/*--------------------------------*- C++ -*----------------------------------*\
| =========                 |                                                 |
| \\      /  F ield         | OpenFOAM: The Open Source CFD Toolbox           |
|  \\    /   O peration     | Version:  v2012                                 |
|   \\  /    A nd           | Website:  www.openfoam.com                      |
|    \\/     M anipulation  |                                                 |
\*---------------------------------------------------------------------------*/
FoamFile
{
    version     2.0;
    format      ascii;
    class       volVectorField;
    location    "4";
    object      wallShearStress;
}
// * * * * * * * * * * * * * * * * * * * * * * * * * * * * * * * * * * * * * //

dimensions      [0 2 -2 0 0 0 0];


internalField   uniform (0 0 0);

boundaryField
{
    inlet
    {
        type            calculated;
        value           uniform (0 0 0);
    }
    outlet
    {
        type            calculated;
        value           uniform (0 0 0);
    }
    topWall
    {
        type            calculated;
        value           nonuniform List<vector> 
545
(
(9.4659e-09 -1.045e-08 0)
(9.46195e-09 -2.92352e-08 0)
(9.45238e-09 -4.87627e-08 0)
(9.43915e-09 -6.77167e-08 0)
(9.4224e-09 -8.58514e-08 0)
(9.40243e-09 -1.03398e-07 0)
(9.37948e-09 -1.20503e-07 0)
(9.35377e-09 -1.37158e-07 0)
(9.32555e-09 -1.53324e-07 0)
(9.29508e-09 -1.69002e-07 0)
(9.26258e-09 -1.8421e-07 0)
(9.22827e-09 -1.98966e-07 0)
(9.19234e-09 -2.13281e-07 0)
(9.15498e-09 -2.27162e-07 0)
(9.11637e-09 -2.40621e-07 0)
(9.07667e-09 -2.53669e-07 0)
(9.03602e-09 -2.66317e-07 0)
(8.99458e-09 -2.78575e-07 0)
(8.95246e-09 -2.90455e-07 0)
(8.9098e-09 -3.01967e-07 0)
(8.8667e-09 -3.13121e-07 0)
(8.82326e-09 -3.23929e-07 0)
(8.77959e-09 -3.344e-07 0)
(8.73577e-09 -3.44544e-07 0)
(8.69189e-09 -3.54371e-07 0)
(8.64801e-09 -3.6389e-07 0)
(8.6042e-09 -3.73112e-07 0)
(8.56054e-09 -3.82045e-07 0)
(8.51707e-09 -3.90699e-07 0)
(8.47385e-09 -3.99081e-07 0)
(8.43093e-09 -4.07201e-07 0)
(8.38835e-09 -4.15067e-07 0)
(8.34615e-09 -4.22687e-07 0)
(8.30436e-09 -4.30069e-07 0)
(8.26301e-09 -4.3722e-07 0)
(8.22214e-09 -4.44148e-07 0)
(8.18177e-09 -4.50861e-07 0)
(8.14192e-09 -4.57364e-07 0)
(8.1026e-09 -4.63665e-07 0)
(8.06384e-09 -4.69771e-07 0)
(8.02565e-09 -4.75687e-07 0)
(7.98805e-09 -4.8142e-07 0)
(7.95103e-09 -4.86976e-07 0)
(7.91462e-09 -4.9236e-07 0)
(7.87882e-09 -4.97579e-07 0)
(7.84362e-09 -5.02637e-07 0)
(7.80905e-09 -5.0754e-07 0)
(7.77509e-09 -5.12293e-07 0)
(7.74175e-09 -5.169e-07 0)
(7.70903e-09 -5.21367e-07 0)
(7.67693e-09 -5.25698e-07 0)
(7.64545e-09 -5.29897e-07 0)
(7.61458e-09 -5.33969e-07 0)
(7.58432e-09 -5.37918e-07 0)
(7.55467e-09 -5.41747e-07 0)
(7.52561e-09 -5.45461e-07 0)
(7.49715e-09 -5.49064e-07 0)
(7.46929e-09 -5.52558e-07 0)
(7.442e-09 -5.55947e-07 0)
(7.41529e-09 -5.59235e-07 0)
(7.38915e-09 -5.62425e-07 0)
(7.36357e-09 -5.6552e-07 0)
(7.33854e-09 -5.68524e-07 0)
(7.31406e-09 -5.71438e-07 0)
(7.29011e-09 -5.74266e-07 0)
(7.26669e-09 -5.7701e-07 0)
(7.2438e-09 -5.79674e-07 0)
(7.22141e-09 -5.82259e-07 0)
(7.19952e-09 -5.84768e-07 0)
(7.17813e-09 -5.87204e-07 0)
(7.15722e-09 -5.8957e-07 0)
(7.13681e-09 -5.91861e-07 0)
(7.11702e-09 -5.94065e-07 0)
(7.09776e-09 -5.96201e-07 0)
(7.0787e-09 -5.9831e-07 0)
(7.05971e-09 -6.00406e-07 0)
(7.04076e-09 -6.02491e-07 0)
(7.02185e-09 -6.04562e-07 0)
(7.00297e-09 -6.06616e-07 0)
(6.98413e-09 -6.08655e-07 0)
(6.96532e-09 -6.10679e-07 0)
(6.94656e-09 -6.12689e-07 0)
(6.92783e-09 -6.14684e-07 0)
(6.90914e-09 -6.16665e-07 0)
(6.89048e-09 -6.18631e-07 0)
(6.87187e-09 -6.20583e-07 0)
(6.8533e-09 -6.22521e-07 0)
(6.83477e-09 -6.24445e-07 0)
(6.81628e-09 -6.26355e-07 0)
(6.79783e-09 -6.28251e-07 0)
(6.77942e-09 -6.30133e-07 0)
(6.76105e-09 -6.32001e-07 0)
(6.74274e-09 -6.33857e-07 0)
(6.72445e-09 -6.35696e-07 0)
(6.70626e-09 -6.37532e-07 0)
(6.68787e-09 -6.39325e-07 0)
(6.6705e-09 -6.40967e-07 0)
(6.65495e-09 -6.42464e-07 0)
(6.63995e-09 -6.4391e-07 0)
(6.62504e-09 -6.45361e-07 0)
(6.6101e-09 -6.46826e-07 0)
(6.59512e-09 -6.48294e-07 0)
(6.58007e-09 -6.49759e-07 0)
(6.56497e-09 -6.51222e-07 0)
(6.54981e-09 -6.52685e-07 0)
(6.53458e-09 -6.5415e-07 0)
(6.5193e-09 -6.55614e-07 0)
(6.50396e-09 -6.57078e-07 0)
(6.48856e-09 -6.58542e-07 0)
(6.4731e-09 -6.60007e-07 0)
(6.45758e-09 -6.61471e-07 0)
(6.442e-09 -6.62935e-07 0)
(6.42635e-09 -6.64399e-07 0)
(6.41065e-09 -6.65863e-07 0)
(6.39489e-09 -6.67326e-07 0)
(6.37907e-09 -6.6879e-07 0)
(6.36319e-09 -6.70253e-07 0)
(6.34724e-09 -6.71716e-07 0)
(6.33124e-09 -6.73179e-07 0)
(6.31518e-09 -6.74642e-07 0)
(6.29905e-09 -6.76104e-07 0)
(6.28287e-09 -6.77566e-07 0)
(6.26662e-09 -6.79028e-07 0)
(6.25032e-09 -6.80489e-07 0)
(6.23395e-09 -6.8195e-07 0)
(6.21753e-09 -6.83411e-07 0)
(6.20104e-09 -6.84871e-07 0)
(6.18449e-09 -6.86331e-07 0)
(6.16788e-09 -6.8779e-07 0)
(6.15121e-09 -6.89249e-07 0)
(6.13448e-09 -6.90707e-07 0)
(6.11769e-09 -6.92164e-07 0)
(6.10084e-09 -6.93622e-07 0)
(6.08392e-09 -6.95078e-07 0)
(6.06695e-09 -6.96534e-07 0)
(6.04992e-09 -6.97989e-07 0)
(6.03282e-09 -6.99444e-07 0)
(6.01566e-09 -7.00898e-07 0)
(5.99845e-09 -7.02351e-07 0)
(5.98117e-09 -7.03803e-07 0)
(5.96383e-09 -7.05255e-07 0)
(5.94643e-09 -7.06706e-07 0)
(5.92897e-09 -7.08155e-07 0)
(5.91145e-09 -7.09605e-07 0)
(5.89387e-09 -7.11053e-07 0)
(5.87622e-09 -7.125e-07 0)
(5.85852e-09 -7.13946e-07 0)
(5.84075e-09 -7.15392e-07 0)
(5.82293e-09 -7.16836e-07 0)
(5.80504e-09 -7.1828e-07 0)
(5.7871e-09 -7.19722e-07 0)
(5.76909e-09 -7.21163e-07 0)
(5.75102e-09 -7.22603e-07 0)
(5.73289e-09 -7.24042e-07 0)
(5.71471e-09 -7.2548e-07 0)
(5.69646e-09 -7.26917e-07 0)
(5.67815e-09 -7.28352e-07 0)
(5.65978e-09 -7.29786e-07 0)
(5.64135e-09 -7.31219e-07 0)
(5.62286e-09 -7.32651e-07 0)
(5.60431e-09 -7.34081e-07 0)
(5.5857e-09 -7.3551e-07 0)
(5.56703e-09 -7.36937e-07 0)
(5.5483e-09 -7.38363e-07 0)
(5.52951e-09 -7.39788e-07 0)
(5.51066e-09 -7.41211e-07 0)
(5.49175e-09 -7.42632e-07 0)
(5.47278e-09 -7.44052e-07 0)
(5.45375e-09 -7.4547e-07 0)
(5.43466e-09 -7.46887e-07 0)
(5.41552e-09 -7.48302e-07 0)
(5.39631e-09 -7.49716e-07 0)
(5.37704e-09 -7.51128e-07 0)
(5.35772e-09 -7.52538e-07 0)
(5.33834e-09 -7.53946e-07 0)
(5.3189e-09 -7.55352e-07 0)
(5.2994e-09 -7.56757e-07 0)
(5.27984e-09 -7.5816e-07 0)
(5.26022e-09 -7.59561e-07 0)
(5.24054e-09 -7.60959e-07 0)
(5.22081e-09 -7.62356e-07 0)
(5.20102e-09 -7.63751e-07 0)
(5.18117e-09 -7.65144e-07 0)
(5.16127e-09 -7.66535e-07 0)
(5.1413e-09 -7.67924e-07 0)
(5.12128e-09 -7.69311e-07 0)
(5.1012e-09 -7.70695e-07 0)
(5.08107e-09 -7.72077e-07 0)
(5.06088e-09 -7.73458e-07 0)
(5.04063e-09 -7.74835e-07 0)
(5.02032e-09 -7.76211e-07 0)
(4.99996e-09 -7.77584e-07 0)
(4.97954e-09 -7.78955e-07 0)
(4.95907e-09 -7.80323e-07 0)
(4.93854e-09 -7.81689e-07 0)
(4.91796e-09 -7.83053e-07 0)
(4.89732e-09 -7.84414e-07 0)
(4.87662e-09 -7.85772e-07 0)
(4.85588e-09 -7.87128e-07 0)
(4.83507e-09 -7.88482e-07 0)
(4.81421e-09 -7.89832e-07 0)
(4.7933e-09 -7.9118e-07 0)
(4.77233e-09 -7.92526e-07 0)
(4.75131e-09 -7.93868e-07 0)
(4.73024e-09 -7.95208e-07 0)
(4.70911e-09 -7.96545e-07 0)
(4.68794e-09 -7.97879e-07 0)
(4.6667e-09 -7.9921e-07 0)
(4.64542e-09 -8.00539e-07 0)
(4.62408e-09 -8.01864e-07 0)
(4.60269e-09 -8.03186e-07 0)
(4.58125e-09 -8.04506e-07 0)
(4.55976e-09 -8.05822e-07 0)
(4.53822e-09 -8.07135e-07 0)
(4.51663e-09 -8.08445e-07 0)
(4.49498e-09 -8.09752e-07 0)
(4.47329e-09 -8.11055e-07 0)
(4.45155e-09 -8.12356e-07 0)
(4.42975e-09 -8.13653e-07 0)
(4.40791e-09 -8.14946e-07 0)
(4.38602e-09 -8.16237e-07 0)
(4.36408e-09 -8.17524e-07 0)
(4.34209e-09 -8.18807e-07 0)
(4.32005e-09 -8.20087e-07 0)
(4.29797e-09 -8.21364e-07 0)
(4.27584e-09 -8.22637e-07 0)
(4.25366e-09 -8.23906e-07 0)
(4.23144e-09 -8.25172e-07 0)
(4.20917e-09 -8.26434e-07 0)
(4.18685e-09 -8.27692e-07 0)
(4.16449e-09 -8.28947e-07 0)
(4.14208e-09 -8.30198e-07 0)
(4.11963e-09 -8.31445e-07 0)
(4.09714e-09 -8.32688e-07 0)
(4.0746e-09 -8.33927e-07 0)
(4.05201e-09 -8.35162e-07 0)
(4.02939e-09 -8.36394e-07 0)
(4.00672e-09 -8.37621e-07 0)
(3.98401e-09 -8.38844e-07 0)
(3.96125e-09 -8.40064e-07 0)
(3.93846e-09 -8.41279e-07 0)
(3.91562e-09 -8.4249e-07 0)
(3.89275e-09 -8.43696e-07 0)
(3.86983e-09 -8.44899e-07 0)
(3.84688e-09 -8.46097e-07 0)
(3.82388e-09 -8.47291e-07 0)
(3.80085e-09 -8.4848e-07 0)
(3.77777e-09 -8.49665e-07 0)
(3.75466e-09 -8.50846e-07 0)
(3.73152e-09 -8.52022e-07 0)
(3.70833e-09 -8.53193e-07 0)
(3.68511e-09 -8.54361e-07 0)
(3.66185e-09 -8.55523e-07 0)
(3.63856e-09 -8.56681e-07 0)
(3.61523e-09 -8.57834e-07 0)
(3.59187e-09 -8.58982e-07 0)
(3.56848e-09 -8.60126e-07 0)
(3.54505e-09 -8.61265e-07 0)
(3.52159e-09 -8.62399e-07 0)
(3.49809e-09 -8.63528e-07 0)
(3.47456e-09 -8.64652e-07 0)
(3.45101e-09 -8.65771e-07 0)
(3.42742e-09 -8.66885e-07 0)
(3.4038e-09 -8.67995e-07 0)
(3.38015e-09 -8.69099e-07 0)
(3.35648e-09 -8.70198e-07 0)
(3.33275e-09 -8.7129e-07 0)
(3.30911e-09 -8.72386e-07 0)
(3.28496e-09 -8.73456e-07 0)
(3.26151e-09 -8.74473e-07 0)
(3.23973e-09 -8.75451e-07 0)
(3.21827e-09 -8.76405e-07 0)
(3.19673e-09 -8.77363e-07 0)
(3.175e-09 -8.78333e-07 0)
(3.15307e-09 -8.79308e-07 0)
(3.13094e-09 -8.80286e-07 0)
(3.10858e-09 -8.81266e-07 0)
(3.08602e-09 -8.8225e-07 0)
(3.06323e-09 -8.83237e-07 0)
(3.04023e-09 -8.84228e-07 0)
(3.01701e-09 -8.85222e-07 0)
(2.99357e-09 -8.86219e-07 0)
(2.96991e-09 -8.87219e-07 0)
(2.94602e-09 -8.88221e-07 0)
(2.92191e-09 -8.89227e-07 0)
(2.89758e-09 -8.90235e-07 0)
(2.87303e-09 -8.91245e-07 0)
(2.84824e-09 -8.92258e-07 0)
(2.82323e-09 -8.93272e-07 0)
(2.798e-09 -8.94289e-07 0)
(2.77253e-09 -8.95307e-07 0)
(2.74683e-09 -8.96327e-07 0)
(2.72091e-09 -8.97349e-07 0)
(2.69475e-09 -8.98372e-07 0)
(2.66836e-09 -8.99395e-07 0)
(2.64174e-09 -9.0042e-07 0)
(2.61489e-09 -9.01445e-07 0)
(2.5878e-09 -9.02471e-07 0)
(2.56048e-09 -9.03497e-07 0)
(2.53292e-09 -9.04524e-07 0)
(2.50513e-09 -9.0555e-07 0)
(2.47711e-09 -9.06576e-07 0)
(2.44885e-09 -9.07601e-07 0)
(2.42035e-09 -9.08625e-07 0)
(2.39162e-09 -9.09649e-07 0)
(2.36265e-09 -9.10671e-07 0)
(2.33345e-09 -9.11692e-07 0)
(2.30401e-09 -9.1271e-07 0)
(2.27434e-09 -9.13727e-07 0)
(2.24443e-09 -9.14741e-07 0)
(2.21429e-09 -9.15753e-07 0)
(2.18392e-09 -9.16762e-07 0)
(2.15331e-09 -9.17768e-07 0)
(2.12247e-09 -9.1877e-07 0)
(2.0914e-09 -9.19769e-07 0)
(2.0601e-09 -9.20763e-07 0)
(2.02856e-09 -9.21753e-07 0)
(1.9968e-09 -9.22738e-07 0)
(1.96481e-09 -9.23718e-07 0)
(1.93259e-09 -9.24693e-07 0)
(1.90015e-09 -9.25662e-07 0)
(1.86748e-09 -9.26625e-07 0)
(1.83459e-09 -9.27581e-07 0)
(1.80148e-09 -9.28531e-07 0)
(1.76816e-09 -9.29473e-07 0)
(1.73461e-09 -9.30408e-07 0)
(1.70085e-09 -9.31334e-07 0)
(1.66688e-09 -9.32252e-07 0)
(1.6327e-09 -9.33162e-07 0)
(1.59831e-09 -9.34062e-07 0)
(1.56372e-09 -9.34953e-07 0)
(1.52892e-09 -9.35833e-07 0)
(1.49393e-09 -9.36703e-07 0)
(1.45874e-09 -9.37562e-07 0)
(1.42336e-09 -9.3841e-07 0)
(1.38779e-09 -9.39245e-07 0)
(1.35203e-09 -9.40069e-07 0)
(1.31609e-09 -9.40879e-07 0)
(1.27997e-09 -9.41676e-07 0)
(1.24368e-09 -9.4246e-07 0)
(1.20722e-09 -9.43228e-07 0)
(1.1706e-09 -9.43983e-07 0)
(1.13381e-09 -9.44721e-07 0)
(1.09687e-09 -9.45444e-07 0)
(1.05978e-09 -9.46151e-07 0)
(1.02254e-09 -9.4684e-07 0)
(9.85168e-10 -9.47512e-07 0)
(9.47658e-10 -9.48166e-07 0)
(9.10019e-10 -9.48802e-07 0)
(8.72257e-10 -9.49418e-07 0)
(8.3438e-10 -9.50014e-07 0)
(7.96392e-10 -9.5059e-07 0)
(7.58301e-10 -9.51145e-07 0)
(7.20114e-10 -9.51679e-07 0)
(6.81837e-10 -9.5219e-07 0)
(6.43478e-10 -9.52679e-07 0)
(6.05044e-10 -9.53144e-07 0)
(5.66543e-10 -9.53586e-07 0)
(5.27983e-10 -9.54003e-07 0)
(4.89372e-10 -9.54394e-07 0)
(4.50718e-10 -9.5476e-07 0)
(4.1203e-10 -9.55099e-07 0)
(3.73316e-10 -9.55411e-07 0)
(3.34586e-10 -9.55696e-07 0)
(2.95848e-10 -9.55951e-07 0)
(2.57112e-10 -9.56178e-07 0)
(2.18388e-10 -9.56375e-07 0)
(1.79685e-10 -9.56542e-07 0)
(1.41014e-10 -9.56677e-07 0)
(1.02385e-10 -9.56781e-07 0)
(6.38081e-11 -9.56853e-07 0)
(2.5294e-11 -9.56891e-07 0)
(-1.31462e-11 -9.56896e-07 0)
(-5.15015e-11 -9.56866e-07 0)
(-8.97607e-11 -9.56801e-07 0)
(-1.27912e-10 -9.567e-07 0)
(-1.65944e-10 -9.56564e-07 0)
(-2.03845e-10 -9.5639e-07 0)
(-2.41603e-10 -9.56178e-07 0)
(-2.79205e-10 -9.55928e-07 0)
(-3.1664e-10 -9.55639e-07 0)
(-3.53895e-10 -9.5531e-07 0)
(-3.90957e-10 -9.54941e-07 0)
(-4.27813e-10 -9.54531e-07 0)
(-4.64451e-10 -9.54079e-07 0)
(-5.00857e-10 -9.53585e-07 0)
(-5.37019e-10 -9.53049e-07 0)
(-5.72923e-10 -9.52469e-07 0)
(-6.08557e-10 -9.51845e-07 0)
(-6.43906e-10 -9.51176e-07 0)
(-6.78957e-10 -9.50462e-07 0)
(-7.13697e-10 -9.49702e-07 0)
(-7.48113e-10 -9.48896e-07 0)
(-7.82191e-10 -9.48043e-07 0)
(-8.15917e-10 -9.47143e-07 0)
(-8.49277e-10 -9.46194e-07 0)
(-8.82259e-10 -9.45197e-07 0)
(-9.14849e-10 -9.44152e-07 0)
(-9.47033e-10 -9.43057e-07 0)
(-9.78798e-10 -9.41911e-07 0)
(-1.01013e-09 -9.40716e-07 0)
(-1.04102e-09 -9.3947e-07 0)
(-1.07144e-09 -9.38172e-07 0)
(-1.1014e-09 -9.36824e-07 0)
(-1.13087e-09 -9.35423e-07 0)
(-1.15984e-09 -9.3397e-07 0)
(-1.1883e-09 -9.32464e-07 0)
(-1.21624e-09 -9.30906e-07 0)
(-1.24364e-09 -9.29294e-07 0)
(-1.27049e-09 -9.27629e-07 0)
(-1.29679e-09 -9.2591e-07 0)
(-1.32251e-09 -9.24137e-07 0)
(-1.34765e-09 -9.22311e-07 0)
(-1.37219e-09 -9.2043e-07 0)
(-1.39613e-09 -9.18495e-07 0)
(-1.41946e-09 -9.16505e-07 0)
(-1.44216e-09 -9.14461e-07 0)
(-1.46422e-09 -9.12362e-07 0)
(-1.48564e-09 -9.10209e-07 0)
(-1.5064e-09 -9.08002e-07 0)
(-1.5265e-09 -9.0574e-07 0)
(-1.54593e-09 -9.03423e-07 0)
(-1.56468e-09 -9.01053e-07 0)
(-1.58274e-09 -8.98628e-07 0)
(-1.6001e-09 -8.96149e-07 0)
(-1.61677e-09 -8.93617e-07 0)
(-1.63273e-09 -8.91031e-07 0)
(-1.64797e-09 -8.88392e-07 0)
(-1.6625e-09 -8.857e-07 0)
(-1.6763e-09 -8.82956e-07 0)
(-1.68938e-09 -8.80159e-07 0)
(-1.70172e-09 -8.77311e-07 0)
(-1.71333e-09 -8.74412e-07 0)
(-1.7242e-09 -8.71461e-07 0)
(-1.73434e-09 -8.68461e-07 0)
(-1.74373e-09 -8.65411e-07 0)
(-1.75238e-09 -8.62311e-07 0)
(-1.76028e-09 -8.59163e-07 0)
(-1.76744e-09 -8.55968e-07 0)
(-1.77386e-09 -8.52725e-07 0)
(-1.77954e-09 -8.49436e-07 0)
(-1.78447e-09 -8.46101e-07 0)
(-1.78867e-09 -8.42721e-07 0)
(-1.79212e-09 -8.39297e-07 0)
(-1.79485e-09 -8.3583e-07 0)
(-1.79684e-09 -8.32321e-07 0)
(-1.79813e-09 -8.28769e-07 0)
(-1.79856e-09 -8.25181e-07 0)
(-1.79887e-09 -8.2153e-07 0)
(-1.79594e-09 -8.17861e-07 0)
(-1.79228e-09 -8.13781e-07 0)
(-1.79047e-09 -8.09235e-07 0)
(-1.78695e-09 -8.04684e-07 0)
(-1.78231e-09 -8.0015e-07 0)
(-1.77675e-09 -7.95635e-07 0)
(-1.77036e-09 -7.91136e-07 0)
(-1.76319e-09 -7.86653e-07 0)
(-1.75528e-09 -7.8219e-07 0)
(-1.74666e-09 -7.77747e-07 0)
(-1.73737e-09 -7.73326e-07 0)
(-1.72746e-09 -7.68931e-07 0)
(-1.71694e-09 -7.64561e-07 0)
(-1.70586e-09 -7.60219e-07 0)
(-1.69425e-09 -7.55905e-07 0)
(-1.68213e-09 -7.51622e-07 0)
(-1.66953e-09 -7.4737e-07 0)
(-1.65647e-09 -7.43151e-07 0)
(-1.64299e-09 -7.38965e-07 0)
(-1.6291e-09 -7.34814e-07 0)
(-1.61483e-09 -7.30699e-07 0)
(-1.60019e-09 -7.2662e-07 0)
(-1.58521e-09 -7.2258e-07 0)
(-1.5699e-09 -7.18577e-07 0)
(-1.55428e-09 -7.14614e-07 0)
(-1.53836e-09 -7.10691e-07 0)
(-1.52217e-09 -7.06808e-07 0)
(-1.50571e-09 -7.02967e-07 0)
(-1.48899e-09 -6.99169e-07 0)
(-1.47204e-09 -6.95412e-07 0)
(-1.45485e-09 -6.917e-07 0)
(-1.43745e-09 -6.88031e-07 0)
(-1.41983e-09 -6.84406e-07 0)
(-1.40201e-09 -6.80826e-07 0)
(-1.384e-09 -6.77292e-07 0)
(-1.3658e-09 -6.73804e-07 0)
(-1.34741e-09 -6.70362e-07 0)
(-1.32886e-09 -6.66968e-07 0)
(-1.31013e-09 -6.6362e-07 0)
(-1.29124e-09 -6.6032e-07 0)
(-1.27219e-09 -6.57068e-07 0)
(-1.25298e-09 -6.53865e-07 0)
(-1.23363e-09 -6.50711e-07 0)
(-1.21412e-09 -6.47606e-07 0)
(-1.19446e-09 -6.44551e-07 0)
(-1.17467e-09 -6.41545e-07 0)
(-1.15473e-09 -6.3859e-07 0)
(-1.13465e-09 -6.35686e-07 0)
(-1.11443e-09 -6.32833e-07 0)
(-1.09407e-09 -6.30032e-07 0)
(-1.07358e-09 -6.27282e-07 0)
(-1.05296e-09 -6.24585e-07 0)
(-1.0322e-09 -6.2194e-07 0)
(-1.01131e-09 -6.19347e-07 0)
(-9.90285e-10 -6.16808e-07 0)
(-9.69131e-10 -6.14323e-07 0)
(-9.47846e-10 -6.11891e-07 0)
(-9.26431e-10 -6.09513e-07 0)
(-9.04887e-10 -6.0719e-07 0)
(-8.83214e-10 -6.04922e-07 0)
(-8.61413e-10 -6.02709e-07 0)
(-8.39484e-10 -6.00551e-07 0)
(-8.17429e-10 -5.9845e-07 0)
(-7.95248e-10 -5.96404e-07 0)
(-7.72942e-10 -5.94415e-07 0)
(-7.50512e-10 -5.92482e-07 0)
(-7.27959e-10 -5.90606e-07 0)
(-7.05285e-10 -5.88788e-07 0)
(-6.82491e-10 -5.87028e-07 0)
(-6.59578e-10 -5.85325e-07 0)
(-6.36549e-10 -5.83681e-07 0)
(-6.13406e-10 -5.82096e-07 0)
(-5.9015e-10 -5.80569e-07 0)
(-5.66784e-10 -5.79101e-07 0)
(-5.4331e-10 -5.77693e-07 0)
(-5.19732e-10 -5.76344e-07 0)
(-4.96052e-10 -5.75056e-07 0)
(-4.72274e-10 -5.73828e-07 0)
(-4.484e-10 -5.7266e-07 0)
(-4.24436e-10 -5.71552e-07 0)
(-4.00383e-10 -5.70506e-07 0)
(-3.76248e-10 -5.69521e-07 0)
(-3.52034e-10 -5.68597e-07 0)
(-3.27747e-10 -5.67735e-07 0)
(-3.03392e-10 -5.66935e-07 0)
(-2.78975e-10 -5.66195e-07 0)
(-2.54504e-10 -5.65522e-07 0)
(-2.29982e-10 -5.64895e-07 0)
(-2.05421e-10 -5.64382e-07 0)
(-1.80791e-10 -5.63761e-07 0)
(-1.56181e-10 -5.6376e-07 0)
(-1.31217e-10 -5.61933e-07 0)
(-1.07215e-10 -5.66199e-07 0)
(-7.94248e-11 -5.49024e-07 0)
(-6.62317e-11 -5.93926e-07 0)
(-3.47599e-11 -5.18615e-07 0)
)
;
    }
    bottomWall
    {
        type            calculated;
        value           nonuniform List<vector> 
449
(
(-46.5204 -0.879898 0)
(-20.1271 -0.221957 0)
(-14.2545 -0.0269333 0)
(-11.9383 -0.0146398 0)
(-10.5736 -0.0106566 0)
(-9.62756 -0.00804003 0)
(-8.88493 -0.00643988 0)
(-8.28397 -0.00521281 0)
(-7.79075 -0.00431859 0)
(-7.37627 -0.0036734 0)
(-7.02032 -0.00317917 0)
(-6.71008 -0.00278282 0)
(-6.43676 -0.00245981 0)
(-6.19365 -0.0021941 0)
(-5.97554 -0.00197273 0)
(-5.77841 -0.00178579 0)
(-5.59909 -0.00162613 0)
(-5.43504 -0.00148854 0)
(-5.28421 -0.00136901 0)
(-5.14492 -0.0012644 0)
(-5.01576 -0.00117223 0)
(-4.89555 -0.00109054 0)
(-4.7833 -0.00101772 0)
(-4.67817 -0.000952506 0)
(-4.57943 -0.000893823 0)
(-4.48645 -0.000840796 0)
(-4.39871 -0.000792694 0)
(-4.31571 -0.000748903 0)
(-4.23704 -0.000708903 0)
(-4.16235 -0.000672251 0)
(-4.09129 -0.000638571 0)
(-4.02359 -0.000607537 0)
(-3.95899 -0.000578868 0)
(-3.89725 -0.000552322 0)
(-3.83817 -0.000527684 0)
(-3.78156 -0.000504771 0)
(-3.72726 -0.000483418 0)
(-3.6751 -0.000463481 0)
(-3.62496 -0.000444834 0)
(-3.57669 -0.000427362 0)
(-3.5302 -0.000410967 0)
(-3.48536 -0.000395556 0)
(-3.44209 -0.000381051 0)
(-3.40029 -0.000367379 0)
(-3.35988 -0.000354474 0)
(-3.32079 -0.000342279 0)
(-3.28294 -0.00033074 0)
(-3.24627 -0.00031981 0)
(-3.21071 -0.000309444 0)
(-3.17622 -0.000299602 0)
(-3.14274 -0.00029025 0)
(-3.11022 -0.000281353 0)
(-3.07861 -0.000272882 0)
(-3.04787 -0.000264808 0)
(-3.01797 -0.000257107 0)
(-2.98886 -0.000249755 0)
(-2.96051 -0.00024273 0)
(-2.93289 -0.000236012 0)
(-2.90597 -0.000229584 0)
(-2.87971 -0.000223428 0)
(-2.85409 -0.000217528 0)
(-2.82908 -0.00021187 0)
(-2.80466 -0.00020644 0)
(-2.78081 -0.000201226 0)
(-2.7575 -0.000196217 0)
(-2.73471 -0.0001914 0)
(-2.71243 -0.000186767 0)
(-2.69063 -0.000182307 0)
(-2.6693 -0.000178011 0)
(-2.64842 -0.000173872 0)
(-2.62797 -0.000169882 0)
(-2.60795 -0.000166033 0)
(-2.58833 -0.000162318 0)
(-2.5691 -0.000158732 0)
(-2.55024 -0.000155267 0)
(-2.53176 -0.000151919 0)
(-2.51363 -0.000148682 0)
(-2.49584 -0.000145551 0)
(-2.47838 -0.000142522 0)
(-2.46124 -0.000139589 0)
(-2.44442 -0.000136748 0)
(-2.42789 -0.000133997 0)
(-2.41166 -0.00013133 0)
(-2.39571 -0.000128744 0)
(-2.38004 -0.000126236 0)
(-2.36464 -0.000123803 0)
(-2.34949 -0.000121442 0)
(-2.3346 -0.000119149 0)
(-2.31996 -0.000116922 0)
(-2.30555 -0.000114759 0)
(-2.29137 -0.000112657 0)
(-2.27742 -0.000110613 0)
(-2.26369 -0.000108626 0)
(-2.25018 -0.000106693 0)
(-2.23687 -0.000104813 0)
(-2.22376 -0.000102982 0)
(-2.21085 -0.000101201 0)
(-2.19814 -9.94654e-05 0)
(-2.18561 -9.77754e-05 0)
(-2.17327 -9.61289e-05 0)
(-2.1611 -9.45243e-05 0)
(-2.14911 -9.29602e-05 0)
(-2.13728 -9.14352e-05 0)
(-2.12563 -8.99479e-05 0)
(-2.11413 -8.84972e-05 0)
(-2.1028 -8.70817e-05 0)
(-2.09161 -8.57004e-05 0)
(-2.08058 -8.4352e-05 0)
(-2.0697 -8.30355e-05 0)
(-2.05896 -8.175e-05 0)
(-2.04836 -8.04943e-05 0)
(-2.03789 -7.92676e-05 0)
(-2.02757 -7.80689e-05 0)
(-2.01737 -7.68974e-05 0)
(-2.0073 -7.57522e-05 0)
(-1.99736 -7.46326e-05 0)
(-1.98754 -7.35377e-05 0)
(-1.97785 -7.24668e-05 0)
(-1.96827 -7.14192e-05 0)
(-1.95881 -7.03942e-05 0)
(-1.94946 -6.93911e-05 0)
(-1.94022 -6.84094e-05 0)
(-1.93109 -6.74483e-05 0)
(-1.92206 -6.65073e-05 0)
(-1.91314 -6.55859e-05 0)
(-1.90433 -6.46834e-05 0)
(-1.89561 -6.37994e-05 0)
(-1.88699 -6.29333e-05 0)
(-1.87847 -6.20846e-05 0)
(-1.87005 -6.12529e-05 0)
(-1.86171 -6.04377e-05 0)
(-1.85347 -5.96386e-05 0)
(-1.84532 -5.8855e-05 0)
(-1.83725 -5.80867e-05 0)
(-1.82928 -5.73332e-05 0)
(-1.82138 -5.65941e-05 0)
(-1.81357 -5.58691e-05 0)
(-1.80584 -5.51578e-05 0)
(-1.79819 -5.44598e-05 0)
(-1.79062 -5.37747e-05 0)
(-1.78313 -5.31024e-05 0)
(-1.77571 -5.24424e-05 0)
(-1.76837 -5.17945e-05 0)
(-1.7611 -5.11583e-05 0)
(-1.7539 -5.05335e-05 0)
(-1.74678 -4.99199e-05 0)
(-1.73972 -4.93173e-05 0)
(-1.73273 -4.87253e-05 0)
(-1.72581 -4.81437e-05 0)
(-1.71896 -4.75722e-05 0)
(-1.71217 -4.70106e-05 0)
(-1.70544 -4.64587e-05 0)
(-1.69878 -4.59162e-05 0)
(-1.69218 -4.5383e-05 0)
(-1.68564 -4.48588e-05 0)
(-1.67916 -4.43434e-05 0)
(-1.67275 -4.38366e-05 0)
(-1.66638 -4.33382e-05 0)
(-1.66008 -4.28481e-05 0)
(-1.65383 -4.2366e-05 0)
(-1.64764 -4.18918e-05 0)
(-1.6415 -4.14252e-05 0)
(-1.63542 -4.09663e-05 0)
(-1.62939 -4.05146e-05 0)
(-1.62341 -4.00702e-05 0)
(-1.61748 -3.9633e-05 0)
(-1.61161 -3.92026e-05 0)
(-1.60578 -3.8779e-05 0)
(-1.60001 -3.83629e-05 0)
(-1.59428 -3.795e-05 0)
(-1.5886 -3.75521e-05 0)
(-1.58296 -3.71586e-05 0)
(-1.57738 -3.66924e-05 0)
(-1.57215 -3.63526e-05 0)
(-1.56724 -3.61102e-05 0)
(-1.56232 -3.57422e-05 0)
(-1.5574 -3.53821e-05 0)
(-1.55247 -3.50443e-05 0)
(-1.54753 -3.47089e-05 0)
(-1.54259 -3.43753e-05 0)
(-1.53764 -3.40443e-05 0)
(-1.53269 -3.37155e-05 0)
(-1.52773 -3.33887e-05 0)
(-1.52277 -3.30639e-05 0)
(-1.5178 -3.2741e-05 0)
(-1.51283 -3.24199e-05 0)
(-1.50785 -3.21008e-05 0)
(-1.50287 -3.17834e-05 0)
(-1.49788 -3.14679e-05 0)
(-1.49289 -3.11543e-05 0)
(-1.48789 -3.08425e-05 0)
(-1.4829 -3.05326e-05 0)
(-1.47789 -3.02245e-05 0)
(-1.47289 -2.99184e-05 0)
(-1.46788 -2.96141e-05 0)
(-1.46287 -2.93117e-05 0)
(-1.45786 -2.90112e-05 0)
(-1.45284 -2.87127e-05 0)
(-1.44782 -2.84161e-05 0)
(-1.4428 -2.81213e-05 0)
(-1.43778 -2.78286e-05 0)
(-1.43276 -2.75377e-05 0)
(-1.42774 -2.72489e-05 0)
(-1.42271 -2.69619e-05 0)
(-1.41768 -2.66769e-05 0)
(-1.41265 -2.63939e-05 0)
(-1.40763 -2.61129e-05 0)
(-1.4026 -2.58338e-05 0)
(-1.39757 -2.55568e-05 0)
(-1.39254 -2.52817e-05 0)
(-1.38751 -2.50085e-05 0)
(-1.38248 -2.47374e-05 0)
(-1.37745 -2.44683e-05 0)
(-1.37243 -2.42012e-05 0)
(-1.3674 -2.3936e-05 0)
(-1.36238 -2.36729e-05 0)
(-1.35735 -2.34117e-05 0)
(-1.35233 -2.31526e-05 0)
(-1.34731 -2.28955e-05 0)
(-1.34229 -2.26403e-05 0)
(-1.33728 -2.23872e-05 0)
(-1.33226 -2.21361e-05 0)
(-1.32725 -2.1887e-05 0)
(-1.32224 -2.16398e-05 0)
(-1.31723 -2.13947e-05 0)
(-1.31223 -2.11516e-05 0)
(-1.30723 -2.09105e-05 0)
(-1.30223 -2.06714e-05 0)
(-1.29724 -2.04342e-05 0)
(-1.29225 -2.01991e-05 0)
(-1.28727 -1.9966e-05 0)
(-1.28229 -1.97348e-05 0)
(-1.27731 -1.95056e-05 0)
(-1.27234 -1.92784e-05 0)
(-1.26737 -1.90532e-05 0)
(-1.2624 -1.88299e-05 0)
(-1.25745 -1.86087e-05 0)
(-1.25249 -1.83893e-05 0)
(-1.24754 -1.8172e-05 0)
(-1.2426 -1.79566e-05 0)
(-1.23767 -1.77431e-05 0)
(-1.23273 -1.75316e-05 0)
(-1.22781 -1.7322e-05 0)
(-1.22289 -1.71143e-05 0)
(-1.21798 -1.69086e-05 0)
(-1.21307 -1.67047e-05 0)
(-1.20817 -1.65028e-05 0)
(-1.20328 -1.63028e-05 0)
(-1.19839 -1.61047e-05 0)
(-1.19351 -1.59085e-05 0)
(-1.18864 -1.57141e-05 0)
(-1.18377 -1.55216e-05 0)
(-1.17892 -1.5331e-05 0)
(-1.17407 -1.51423e-05 0)
(-1.16923 -1.49554e-05 0)
(-1.16439 -1.47703e-05 0)
(-1.15957 -1.45871e-05 0)
(-1.15475 -1.44056e-05 0)
(-1.14994 -1.4226e-05 0)
(-1.14514 -1.40482e-05 0)
(-1.14034 -1.38722e-05 0)
(-1.13556 -1.3698e-05 0)
(-1.13078 -1.35256e-05 0)
(-1.12602 -1.33549e-05 0)
(-1.12126 -1.3186e-05 0)
(-1.11651 -1.30188e-05 0)
(-1.11177 -1.28534e-05 0)
(-1.10704 -1.26897e-05 0)
(-1.10232 -1.25277e-05 0)
(-1.09761 -1.23674e-05 0)
(-1.09291 -1.22088e-05 0)
(-1.08822 -1.20519e-05 0)
(-1.08354 -1.18967e-05 0)
(-1.07887 -1.17431e-05 0)
(-1.07421 -1.15912e-05 0)
(-1.06956 -1.14409e-05 0)
(-1.06493 -1.12922e-05 0)
(-1.0603 -1.11452e-05 0)
(-1.05568 -1.09998e-05 0)
(-1.05107 -1.08559e-05 0)
(-1.04648 -1.07137e-05 0)
(-1.04189 -1.0573e-05 0)
(-1.03732 -1.04339e-05 0)
(-1.03276 -1.02963e-05 0)
(-1.0282 -1.01603e-05 0)
(-1.02366 -1.00257e-05 0)
(-1.01914 -9.89272e-06 0)
(-1.01462 -9.76121e-06 0)
(-1.01011 -9.63118e-06 0)
(-1.00562 -9.50263e-06 0)
(-1.00114 -9.37554e-06 0)
(-0.996669 -9.24989e-06 0)
(-0.992212 -9.12569e-06 0)
(-0.987767 -9.0029e-06 0)
(-0.983334 -8.88152e-06 0)
(-0.978913 -8.76154e-06 0)
(-0.974505 -8.64294e-06 0)
(-0.970109 -8.52572e-06 0)
(-0.965726 -8.40986e-06 0)
(-0.961355 -8.29534e-06 0)
(-0.956998 -8.18215e-06 0)
(-0.952653 -8.07028e-06 0)
(-0.948321 -7.95971e-06 0)
(-0.944002 -7.85044e-06 0)
(-0.939697 -7.74245e-06 0)
(-0.935404 -7.63572e-06 0)
(-0.931125 -7.53024e-06 0)
(-0.926859 -7.42601e-06 0)
(-0.922607 -7.32299e-06 0)
(-0.918368 -7.22119e-06 0)
(-0.914143 -7.12059e-06 0)
(-0.909932 -7.02118e-06 0)
(-0.905735 -6.92294e-06 0)
(-0.901551 -6.82585e-06 0)
(-0.897382 -6.72991e-06 0)
(-0.893226 -6.63511e-06 0)
(-0.889085 -6.54143e-06 0)
(-0.884958 -6.44885e-06 0)
(-0.880846 -6.35737e-06 0)
(-0.876748 -6.26697e-06 0)
(-0.872665 -6.17764e-06 0)
(-0.868596 -6.08937e-06 0)
(-0.864542 -6.00214e-06 0)
(-0.860503 -5.91595e-06 0)
(-0.856479 -5.83078e-06 0)
(-0.85247 -5.74661e-06 0)
(-0.848477 -5.66344e-06 0)
(-0.844498 -5.58126e-06 0)
(-0.840535 -5.50006e-06 0)
(-0.836588 -5.41982e-06 0)
(-0.832656 -5.34053e-06 0)
(-0.82874 -5.26219e-06 0)
(-0.824839 -5.18478e-06 0)
(-0.820955 -5.10829e-06 0)
(-0.817087 -5.03271e-06 0)
(-0.813235 -4.95804e-06 0)
(-0.809399 -4.88426e-06 0)
(-0.805579 -4.81136e-06 0)
(-0.801776 -4.73934e-06 0)
(-0.797989 -4.66819e-06 0)
(-0.794219 -4.59789e-06 0)
(-0.790466 -4.52844e-06 0)
(-0.78673 -4.45983e-06 0)
(-0.783011 -4.39205e-06 0)
(-0.779308 -4.32509e-06 0)
(-0.775623 -4.25895e-06 0)
(-0.771956 -4.19361e-06 0)
(-0.768305 -4.12907e-06 0)
(-0.764672 -4.06528e-06 0)
(-0.761057 -4.00236e-06 0)
(-0.75746 -3.94011e-06 0)
(-0.75388 -3.8775e-06 0)
(-0.75032 -3.8193e-06 0)
(-0.746771 -3.76285e-06 0)
(-0.742848 -3.69188e-06 0)
(-0.738597 -3.61752e-06 0)
(-0.734429 -3.55206e-06 0)
(-0.730335 -3.48843e-06 0)
(-0.726315 -3.42426e-06 0)
(-0.72237 -3.36127e-06 0)
(-0.718498 -3.29983e-06 0)
(-0.714697 -3.23996e-06 0)
(-0.710965 -3.18161e-06 0)
(-0.707301 -3.12474e-06 0)
(-0.703701 -3.06932e-06 0)
(-0.700166 -3.0153e-06 0)
(-0.696694 -2.96263e-06 0)
(-0.693282 -2.91127e-06 0)
(-0.689929 -2.86118e-06 0)
(-0.686634 -2.8123e-06 0)
(-0.683395 -2.76461e-06 0)
(-0.680212 -2.71806e-06 0)
(-0.677082 -2.67262e-06 0)
(-0.674005 -2.62825e-06 0)
(-0.670979 -2.58491e-06 0)
(-0.668003 -2.54257e-06 0)
(-0.665076 -2.5012e-06 0)
(-0.662196 -2.46077e-06 0)
(-0.659364 -2.42126e-06 0)
(-0.656576 -2.38262e-06 0)
(-0.653834 -2.34485e-06 0)
(-0.651135 -2.3079e-06 0)
(-0.648479 -2.27177e-06 0)
(-0.645864 -2.23641e-06 0)
(-0.643291 -2.20182e-06 0)
(-0.640757 -2.16796e-06 0)
(-0.638262 -2.13483e-06 0)
(-0.635806 -2.10238e-06 0)
(-0.633387 -2.07062e-06 0)
(-0.631005 -2.03951e-06 0)
(-0.628659 -2.00905e-06 0)
(-0.626347 -1.9792e-06 0)
(-0.624071 -1.94997e-06 0)
(-0.621828 -1.92132e-06 0)
(-0.619618 -1.89324e-06 0)
(-0.617441 -1.86573e-06 0)
(-0.615295 -1.83876e-06 0)
(-0.61318 -1.81231e-06 0)
(-0.611096 -1.78639e-06 0)
(-0.609042 -1.76097e-06 0)
(-0.607018 -1.73604e-06 0)
(-0.605022 -1.71158e-06 0)
(-0.603054 -1.6876e-06 0)
(-0.601114 -1.66407e-06 0)
(-0.599201 -1.64098e-06 0)
(-0.597315 -1.61832e-06 0)
(-0.595455 -1.59609e-06 0)
(-0.593621 -1.57427e-06 0)
(-0.591812 -1.55286e-06 0)
(-0.590027 -1.53184e-06 0)
(-0.588267 -1.5112e-06 0)
(-0.586531 -1.49094e-06 0)
(-0.584818 -1.47105e-06 0)
(-0.583128 -1.45152e-06 0)
(-0.581461 -1.43234e-06 0)
(-0.579815 -1.41351e-06 0)
(-0.578192 -1.39501e-06 0)
(-0.576589 -1.37685e-06 0)
(-0.575008 -1.35901e-06 0)
(-0.573448 -1.3415e-06 0)
(-0.571907 -1.3243e-06 0)
(-0.570387 -1.3074e-06 0)
(-0.568885 -1.29082e-06 0)
(-0.567404 -1.27453e-06 0)
(-0.56594 -1.25855e-06 0)
(-0.564496 -1.24286e-06 0)
(-0.563069 -1.22746e-06 0)
(-0.56166 -1.21235e-06 0)
(-0.560269 -1.19754e-06 0)
(-0.558894 -1.18302e-06 0)
(-0.557537 -1.1688e-06 0)
(-0.556196 -1.15489e-06 0)
(-0.55487 -1.14129e-06 0)
(-0.553561 -1.12802e-06 0)
(-0.552267 -1.11511e-06 0)
(-0.550987 -1.10257e-06 0)
(-0.549722 -1.09047e-06 0)
(-0.548471 -1.07885e-06 0)
(-0.547233 -1.0678e-06 0)
(-0.546008 -1.05768e-06 0)
(-0.544793 -1.048e-06 0)
(-0.543591 -1.03954e-06 0)
(-0.542396 -1.03905e-06 0)
(-0.541197 -1.0258e-06 0)
(-0.540036 -9.83546e-07 0)
(-0.538922 -1.33171e-06 0)
(-0.536934 -4.84569e-07 0)
(-0.538168 -3.91191e-07 0)
(-0.534784 -2.35698e-06 0)
)
;
    }
    symmetry
    {
        type            symmetryPlane;
    }
    frontAndBack
    {
        type            empty;
    }
}


// ************************************************************************* //
