/*--------------------------------*- C++ -*----------------------------------*\
| =========                 |                                                 |
| \\      /  F ield         | OpenFOAM: The Open Source CFD Toolbox           |
|  \\    /   O peration     | Version:  v2012                                 |
|   \\  /    A nd           | Website:  www.openfoam.com                      |
|    \\/     M anipulation  |                                                 |
\*---------------------------------------------------------------------------*/
FoamFile
{
    version     2.0;
    format      ascii;
    class       volScalarField;
    location    "18";
    object      yPlus;
}
// * * * * * * * * * * * * * * * * * * * * * * * * * * * * * * * * * * * * * //

dimensions      [0 0 0 0 0 0 0];


internalField   uniform 0;

boundaryField
{
    inlet
    {
        type            calculated;
        value           uniform 0;
    }
    outlet
    {
        type            calculated;
        value           uniform 0;
    }
    topWall
    {
        type            calculated;
        value           nonuniform List<scalar> 
545
(
0.106288
0.183457
0.23522
0.276427
0.311311
0.341829
0.369083
0.393767
0.416351
0.437176
0.456495
0.474506
0.491364
0.507197
0.522108
0.536187
0.549509
0.562136
0.574126
0.585527
0.596382
0.606729
0.616604
0.626036
0.635054
0.643683
0.651945
0.659863
0.667455
0.674739
0.681732
0.688448
0.694903
0.701108
0.707077
0.71282
0.718349
0.723674
0.728803
0.733746
0.738511
0.743105
0.747537
0.751813
0.75594
0.759924
0.763771
0.767486
0.771075
0.774543
0.777895
0.781135
0.784268
0.787297
0.790227
0.793062
0.795804
0.798458
0.801027
0.803513
0.805921
0.808252
0.81051
0.812696
0.814815
0.816867
0.818855
0.820782
0.82265
0.82446
0.826215
0.827916
0.829544
0.831118
0.832679
0.834228
0.835763
0.837286
0.838796
0.840293
0.841779
0.843252
0.844713
0.846162
0.847599
0.849024
0.850438
0.85184
0.853231
0.854611
0.855979
0.857337
0.858683
0.860019
0.861344
0.862659
0.86384
0.864897
0.865953
0.867008
0.868063
0.869118
0.870172
0.871226
0.872279
0.873332
0.874384
0.875436
0.876487
0.877538
0.878588
0.879638
0.880687
0.881736
0.882784
0.883831
0.884878
0.885925
0.88697
0.888016
0.88906
0.890104
0.891147
0.89219
0.893232
0.894273
0.895314
0.896354
0.897393
0.898432
0.89947
0.900507
0.901543
0.902579
0.903614
0.904649
0.905682
0.906715
0.907747
0.908778
0.909808
0.910838
0.911866
0.912894
0.913921
0.914948
0.915973
0.916997
0.918021
0.919044
0.920065
0.921086
0.922106
0.923125
0.924143
0.925161
0.926177
0.927192
0.928206
0.929219
0.930231
0.931242
0.932253
0.933262
0.93427
0.935276
0.936282
0.937287
0.938291
0.939293
0.940295
0.941295
0.942294
0.943292
0.944289
0.945284
0.946279
0.947272
0.948264
0.949255
0.950244
0.951232
0.952219
0.953205
0.954189
0.955172
0.956154
0.957134
0.958113
0.959091
0.960067
0.961042
0.962016
0.962988
0.963959
0.964928
0.965896
0.966862
0.967827
0.96879
0.969752
0.970712
0.971671
0.972628
0.973584
0.974538
0.975491
0.976441
0.977391
0.978338
0.979284
0.980229
0.981172
0.982113
0.983052
0.983989
0.984925
0.98586
0.986792
0.987723
0.988651
0.989578
0.990504
0.991427
0.992349
0.993268
0.994186
0.995102
0.996016
0.996928
0.997838
0.998746
0.999653
1.00056
1.00146
1.00236
1.00326
1.00415
1.00505
1.00594
1.00683
1.00772
1.0086
1.00949
1.01037
1.01125
1.01213
1.013
1.01387
1.01474
1.01561
1.01648
1.01734
1.0182
1.01906
1.01992
1.02077
1.02163
1.02248
1.02332
1.02417
1.02501
1.02585
1.02669
1.02753
1.02836
1.02919
1.03002
1.03084
1.03162
1.03235
1.03308
1.03382
1.03457
1.03531
1.03607
1.03682
1.03758
1.03835
1.03912
1.03989
1.04067
1.04145
1.04224
1.04303
1.04382
1.04462
1.04542
1.04623
1.04704
1.04785
1.04867
1.04949
1.05031
1.05114
1.05197
1.0528
1.05364
1.05448
1.05532
1.05617
1.05702
1.05787
1.05873
1.05959
1.06045
1.06131
1.06217
1.06304
1.06391
1.06478
1.06565
1.06653
1.0674
1.06828
1.06916
1.07004
1.07093
1.07181
1.07269
1.07358
1.07446
1.07535
1.07623
1.07712
1.078
1.07889
1.07977
1.08066
1.08154
1.08242
1.0833
1.08418
1.08506
1.08594
1.08681
1.08769
1.08856
1.08942
1.09029
1.09115
1.09201
1.09286
1.09371
1.09456
1.0954
1.09624
1.09707
1.0979
1.09872
1.09954
1.10035
1.10115
1.10195
1.10274
1.10352
1.1043
1.10507
1.10583
1.10658
1.10732
1.10806
1.10878
1.1095
1.1102
1.1109
1.11158
1.11226
1.11292
1.11357
1.11421
1.11483
1.11544
1.11604
1.11663
1.1172
1.11776
1.1183
1.11883
1.11934
1.11984
1.12032
1.12078
1.12122
1.12165
1.12206
1.12246
1.12283
1.12318
1.12352
1.12383
1.12413
1.1244
1.12466
1.12489
1.1251
1.12529
1.12545
1.12559
1.12571
1.12581
1.12588
1.12592
1.12595
1.12594
1.12591
1.12586
1.12578
1.12567
1.12553
1.12537
1.12518
1.12496
1.12472
1.12444
1.12414
1.12381
1.12345
1.12305
1.12263
1.12218
1.1217
1.12119
1.12065
1.12008
1.11947
1.11884
1.11817
1.11748
1.11675
1.11599
1.1152
1.11438
1.11353
1.11264
1.11173
1.11078
1.1098
1.10879
1.10775
1.10668
1.10557
1.10444
1.10327
1.10208
1.10085
1.0996
1.09832
1.097
1.09566
1.09414
1.09244
1.09072
1.08898
1.08723
1.08546
1.08369
1.0819
1.0801
1.07829
1.07648
1.07466
1.07284
1.07102
1.06919
1.06736
1.06553
1.06371
1.06189
1.06007
1.05825
1.05644
1.05464
1.05284
1.05105
1.04927
1.0475
1.04574
1.04399
1.04225
1.04052
1.03881
1.03711
1.03542
1.03375
1.03209
1.03045
1.02883
1.02722
1.02563
1.02406
1.02251
1.02097
1.01946
1.01797
1.01649
1.01504
1.01361
1.0122
1.01082
1.00945
1.00811
1.0068
1.00551
1.00424
1.00299
1.00177
1.00058
0.999415
0.998274
0.99716
0.996073
0.995012
0.99398
0.992975
0.991998
0.99105
0.990131
0.989241
0.98838
0.987549
0.986748
0.985976
0.985236
0.984526
0.983847
0.983199
0.982583
0.981998
0.981446
0.980925
0.980437
0.97998
0.979557
0.979166
0.978809
0.978484
0.978194
0.977936
0.977712
0.977521
0.977365
0.977238
0.977161
0.977062
)
;
    }
    bottomWall
    {
        type            calculated;
        value           nonuniform List<scalar> 
449
(
0.139513
0.0890038
0.0758613
0.0695099
0.0653661
0.0623212
0.0599985
0.0583357
0.0575254
0.0580119
0.0613575
0.065263
0.0678399
0.0692301
0.0699564
0.0703279
0.070479
0.0704775
0.070374
0.0702098
0.070004
0.0697761
0.0695381
0.069297
0.0690575
0.0688218
0.0685914
0.0683672
0.0681499
0.0679393
0.0677353
0.0675376
0.0673459
0.0671597
0.0669786
0.0668019
0.06663
0.0664621
0.0662985
0.0661383
0.0659819
0.0658286
0.0656787
0.0655315
0.0653875
0.0652459
0.0651067
0.0649693
0.0648343
0.0647011
0.0645704
0.0644416
0.0643151
0.0641905
0.0640681
0.0639475
0.0638292
0.0637126
0.063598
0.0634851
0.0633743
0.063265
0.0631576
0.0630516
0.0629473
0.0628446
0.0627436
0.062644
0.062546
0.0624494
0.0623543
0.0622607
0.0621683
0.0620774
0.0619877
0.0618994
0.0618123
0.0617264
0.0616417
0.0615582
0.0614759
0.0613946
0.0613145
0.0612354
0.0611574
0.0610804
0.0610045
0.0609294
0.0608554
0.0607821
0.0607098
0.0606384
0.0605679
0.0604983
0.0604295
0.0603616
0.0602944
0.0602281
0.0601625
0.0600977
0.0600337
0.0599704
0.0599079
0.059846
0.0597849
0.0597243
0.0596646
0.0596054
0.0595469
0.059489
0.0594318
0.0593751
0.0593191
0.0592636
0.0592087
0.0591544
0.0591006
0.0590474
0.0589947
0.0589426
0.0588909
0.0588398
0.0587892
0.0587391
0.0586894
0.0586403
0.0585916
0.0585434
0.0584956
0.0584483
0.0584014
0.0583549
0.0583088
0.0582633
0.058218
0.0581733
0.0581288
0.0580849
0.0580412
0.0579981
0.0579552
0.0579128
0.0578707
0.057829
0.0577876
0.0577467
0.057706
0.0576657
0.0576257
0.0575861
0.0575468
0.0575078
0.0574691
0.0574308
0.0573927
0.057355
0.0573175
0.0572805
0.0572436
0.057207
0.0571707
0.0571348
0.0570991
0.0570637
0.0570285
0.0569937
0.0569591
0.0569247
0.0568907
0.0568569
0.0568234
0.0567901
0.0567571
0.0567262
0.056697
0.0566677
0.0566383
0.0566088
0.0565793
0.0565497
0.05652
0.0564903
0.0564607
0.0564309
0.0564012
0.0563714
0.0563416
0.0563117
0.056282
0.0562521
0.0562224
0.0561926
0.0561628
0.056133
0.0561033
0.0560735
0.0560438
0.056014
0.0559843
0.0559547
0.055925
0.0558953
0.0558657
0.0558361
0.0558066
0.055777
0.0557475
0.055718
0.0556885
0.0556591
0.0556297
0.0556003
0.0555709
0.0555416
0.0555122
0.055483
0.0554537
0.0554245
0.0553954
0.0553662
0.0553371
0.055308
0.055279
0.05525
0.0552211
0.0551923
0.0551636
0.055135
0.0551065
0.055078
0.0550497
0.0550214
0.0549932
0.054965
0.0549369
0.054909
0.054881
0.0548533
0.0548255
0.0547979
0.0547704
0.054743
0.0547156
0.0546883
0.0546612
0.0546342
0.0546073
0.0545805
0.0545539
0.0545273
0.054501
0.0544747
0.0544485
0.0544225
0.0543966
0.0543708
0.054345
0.0543195
0.0542941
0.0542688
0.0542437
0.0542186
0.0541937
0.0541689
0.054144
0.0541194
0.0540949
0.0540704
0.0540461
0.0540219
0.0539977
0.0539737
0.0539497
0.053926
0.0539024
0.0538791
0.0538557
0.0538326
0.0538095
0.0537865
0.0537637
0.053741
0.0537182
0.0536957
0.0536731
0.0536506
0.0536283
0.053606
0.0535838
0.0535618
0.0535397
0.053518
0.0534961
0.0534745
0.053453
0.0534316
0.0534102
0.0533889
0.0533677
0.0533464
0.0533252
0.0533042
0.0532832
0.0532622
0.0532414
0.0532205
0.0531998
0.053179
0.0531582
0.0531375
0.053117
0.0530965
0.0530762
0.0530559
0.0530357
0.0530156
0.0529955
0.0529755
0.0529557
0.0529359
0.0529161
0.0528966
0.0528771
0.0528577
0.0528384
0.0528191
0.0527998
0.0527807
0.0527616
0.0527425
0.0527235
0.0527045
0.0526855
0.0526668
0.0526479
0.0526292
0.0526104
0.0525918
0.0525731
0.0525546
0.052536
0.0525177
0.0524992
0.0524809
0.0524625
0.0524441
0.0524254
0.0524073
0.0523887
0.0523707
0.0523526
0.0523348
0.0523171
0.0522994
0.0522802
0.0522595
0.0522396
0.0522198
0.0522005
0.0521812
0.0521621
0.0521431
0.0521244
0.0521057
0.0520874
0.0520695
0.0520519
0.0520344
0.0520174
0.0520006
0.051984
0.0519676
0.0519513
0.0519354
0.0519196
0.0519041
0.0518888
0.0518737
0.0518588
0.051844
0.0518295
0.051815
0.051801
0.051787
0.0517734
0.0517599
0.0517465
0.0517334
0.0517201
0.0517073
0.0516942
0.0516816
0.051669
0.0516566
0.0516444
0.0516322
0.0516206
0.0516089
0.0515975
0.0515863
0.0515749
0.0515637
0.0515522
0.0515408
0.0515295
0.0515181
0.0515072
0.0514958
0.0514848
0.0514738
0.051463
0.0514521
0.0514415
0.0514312
0.0514209
0.0514109
0.0514011
0.0513911
0.0513811
0.0513713
0.0513615
0.051352
0.0513426
0.0513333
0.0513241
0.0513151
0.0513057
0.0512968
0.0512875
0.0512785
0.0512693
0.0512603
0.0512514
0.0512425
0.0512338
0.0512253
0.0512166
0.0512081
0.0511996
0.0511911
0.0511827
0.0511745
0.0511659
0.0511583
0.051149
0.051144
0.0511297
0.0511341
0.0511147
)
;
    }
    symmetry
    {
        type            symmetryPlane;
    }
    frontAndBack
    {
        type            empty;
    }
}


// ************************************************************************* //
