/*--------------------------------*- C++ -*----------------------------------*\
| =========                 |                                                 |
| \\      /  F ield         | OpenFOAM: The Open Source CFD Toolbox           |
|  \\    /   O peration     | Version:  v2012                                 |
|   \\  /    A nd           | Website:  www.openfoam.com                      |
|    \\/     M anipulation  |                                                 |
\*---------------------------------------------------------------------------*/
FoamFile
{
    version     2.0;
    format      ascii;
    class       volScalarField;
    location    "46";
    object      nut;
}
// * * * * * * * * * * * * * * * * * * * * * * * * * * * * * * * * * * * * * //

dimensions      [0 2 -1 0 0 0 0];


internalField   nonuniform List<scalar> 
209825
(
1.24432e-07
1.23631e-07
1.20533e-07
1.1512e-07
1.08472e-07
1.01643e-07
9.51925e-08
8.93858e-08
8.42393e-08
7.97419e-08
7.57936e-08
7.23513e-08
6.93113e-08
6.6649e-08
6.4275e-08
6.21826e-08
6.02964e-08
5.86251e-08
5.71022e-08
5.57477e-08
5.45001e-08
5.33872e-08
5.2352e-08
5.14268e-08
5.0557e-08
4.97792e-08
4.9041e-08
4.83823e-08
4.7749e-08
4.71858e-08
4.66394e-08
4.61552e-08
4.56791e-08
4.52597e-08
4.48425e-08
4.44779e-08
4.41104e-08
4.37921e-08
4.34669e-08
4.31879e-08
4.28984e-08
4.26529e-08
4.23933e-08
4.21761e-08
4.19439e-08
4.1752e-08
4.15422e-08
4.13716e-08
4.11829e-08
4.10314e-08
4.08586e-08
4.07256e-08
4.05692e-08
4.04513e-08
4.03072e-08
4.02008e-08
4.00737e-08
3.99774e-08
3.98602e-08
3.97775e-08
3.96651e-08
3.95919e-08
3.94894e-08
3.94232e-08
3.93289e-08
3.92703e-08
3.91826e-08
3.91233e-08
3.90473e-08
3.89921e-08
3.89219e-08
3.88687e-08
3.8806e-08
3.87553e-08
3.86958e-08
3.86453e-08
3.85861e-08
3.85366e-08
3.84793e-08
3.84319e-08
3.83771e-08
3.83311e-08
3.82788e-08
3.82334e-08
3.81838e-08
3.81385e-08
3.80923e-08
3.80458e-08
3.80052e-08
3.79574e-08
3.79093e-08
3.78542e-08
3.78221e-08
3.81395e-08
3.44646e-06
2.25655e-08
1.24432e-07
1.23631e-07
1.20534e-07
1.15121e-07
1.08474e-07
1.01645e-07
9.51948e-08
8.93882e-08
8.42417e-08
7.97442e-08
7.57958e-08
7.23534e-08
6.93132e-08
6.66508e-08
6.42767e-08
6.21842e-08
6.02979e-08
5.86264e-08
5.71035e-08
5.57488e-08
5.45011e-08
5.33882e-08
5.23529e-08
5.14276e-08
5.05578e-08
4.97799e-08
4.90416e-08
4.83829e-08
4.77495e-08
4.71863e-08
4.66398e-08
4.61556e-08
4.56794e-08
4.526e-08
4.48428e-08
4.44782e-08
4.41106e-08
4.37923e-08
4.34671e-08
4.31881e-08
4.28985e-08
4.26531e-08
4.23934e-08
4.21761e-08
4.1944e-08
4.1752e-08
4.15422e-08
4.13715e-08
4.11828e-08
4.10314e-08
4.08586e-08
4.07255e-08
4.05691e-08
4.04512e-08
4.03071e-08
4.02007e-08
4.00735e-08
3.99772e-08
3.98601e-08
3.97774e-08
3.96649e-08
3.95917e-08
3.94892e-08
3.9423e-08
3.93287e-08
3.927e-08
3.91823e-08
3.9123e-08
3.90471e-08
3.89919e-08
3.89217e-08
3.88684e-08
3.88058e-08
3.87551e-08
3.86955e-08
3.8645e-08
3.85858e-08
3.85363e-08
3.8479e-08
3.84316e-08
3.83768e-08
3.83308e-08
3.82785e-08
3.82331e-08
3.81834e-08
3.81381e-08
3.80919e-08
3.80454e-08
3.80048e-08
3.79571e-08
3.7909e-08
3.78538e-08
3.78218e-08
3.81395e-08
3.44746e-06
2.27479e-08
1.24431e-07
1.23631e-07
1.20536e-07
1.15127e-07
1.08482e-07
1.01654e-07
9.52047e-08
8.93982e-08
8.42513e-08
7.97535e-08
7.58045e-08
7.23616e-08
6.93208e-08
6.66579e-08
6.42831e-08
6.21902e-08
6.03034e-08
5.86315e-08
5.71082e-08
5.57531e-08
5.45051e-08
5.33918e-08
5.23563e-08
5.14307e-08
5.05606e-08
4.97825e-08
4.9044e-08
4.8385e-08
4.77515e-08
4.71881e-08
4.66414e-08
4.61571e-08
4.56807e-08
4.52612e-08
4.48438e-08
4.44791e-08
4.41114e-08
4.3793e-08
4.34676e-08
4.31886e-08
4.28989e-08
4.26534e-08
4.23936e-08
4.21763e-08
4.1944e-08
4.1752e-08
4.15421e-08
4.13714e-08
4.11826e-08
4.10312e-08
4.08583e-08
4.07252e-08
4.05687e-08
4.04508e-08
4.03066e-08
4.02001e-08
4.0073e-08
3.99766e-08
3.98594e-08
3.97767e-08
3.96642e-08
3.9591e-08
3.94884e-08
3.94221e-08
3.93278e-08
3.92691e-08
3.91814e-08
3.91221e-08
3.90461e-08
3.89909e-08
3.89207e-08
3.88674e-08
3.88047e-08
3.8754e-08
3.86945e-08
3.86439e-08
3.85847e-08
3.85352e-08
3.84778e-08
3.84305e-08
3.83756e-08
3.83296e-08
3.82773e-08
3.82319e-08
3.81822e-08
3.81369e-08
3.80906e-08
3.80441e-08
3.80035e-08
3.79557e-08
3.79076e-08
3.78525e-08
3.78204e-08
3.81388e-08
3.4506e-06
2.30125e-08
1.24431e-07
1.23631e-07
1.20541e-07
1.15136e-07
1.08495e-07
1.0167e-07
9.52212e-08
8.94149e-08
8.42677e-08
7.97691e-08
7.58192e-08
7.23753e-08
6.93336e-08
6.66697e-08
6.42941e-08
6.22003e-08
6.03127e-08
5.86401e-08
5.71161e-08
5.57604e-08
5.45118e-08
5.33979e-08
5.23619e-08
5.14358e-08
5.05654e-08
4.97869e-08
4.9048e-08
4.83887e-08
4.77548e-08
4.71911e-08
4.66442e-08
4.61596e-08
4.5683e-08
4.52632e-08
4.48456e-08
4.44807e-08
4.41128e-08
4.37942e-08
4.34687e-08
4.31895e-08
4.28996e-08
4.26539e-08
4.23941e-08
4.21766e-08
4.19442e-08
4.17521e-08
4.15421e-08
4.13713e-08
4.11824e-08
4.10308e-08
4.08578e-08
4.07246e-08
4.05681e-08
4.04501e-08
4.03058e-08
4.01993e-08
4.0072e-08
3.99756e-08
3.98583e-08
3.97755e-08
3.9663e-08
3.95897e-08
3.94871e-08
3.94208e-08
3.93264e-08
3.92677e-08
3.91799e-08
3.91205e-08
3.90445e-08
3.89893e-08
3.8919e-08
3.88658e-08
3.8803e-08
3.87523e-08
3.86927e-08
3.86421e-08
3.85829e-08
3.85334e-08
3.8476e-08
3.84285e-08
3.83737e-08
3.83276e-08
3.82753e-08
3.82298e-08
3.81801e-08
3.81348e-08
3.80885e-08
3.8042e-08
3.80013e-08
3.79535e-08
3.79054e-08
3.78502e-08
3.7818e-08
3.81376e-08
3.45574e-06
2.33325e-08
1.2443e-07
1.23631e-07
1.20547e-07
1.15149e-07
1.08513e-07
1.01692e-07
9.52447e-08
8.94385e-08
8.42907e-08
7.97911e-08
7.58399e-08
7.23947e-08
6.93516e-08
6.66864e-08
6.43095e-08
6.22146e-08
6.03259e-08
5.86522e-08
5.71272e-08
5.57707e-08
5.45212e-08
5.34066e-08
5.23699e-08
5.14432e-08
5.05721e-08
4.97931e-08
4.90536e-08
4.83939e-08
4.77595e-08
4.71954e-08
4.66481e-08
4.61631e-08
4.56861e-08
4.5266e-08
4.48482e-08
4.4483e-08
4.41148e-08
4.3796e-08
4.34702e-08
4.31907e-08
4.29007e-08
4.26548e-08
4.23947e-08
4.21771e-08
4.19445e-08
4.17522e-08
4.1542e-08
4.13711e-08
4.11821e-08
4.10303e-08
4.08572e-08
4.07239e-08
4.05672e-08
4.04491e-08
4.03048e-08
4.01981e-08
4.00707e-08
3.99743e-08
3.98569e-08
3.9774e-08
3.96613e-08
3.9588e-08
3.94853e-08
3.94189e-08
3.93245e-08
3.92656e-08
3.91778e-08
3.91184e-08
3.90423e-08
3.89871e-08
3.89167e-08
3.88635e-08
3.88006e-08
3.87499e-08
3.86902e-08
3.86397e-08
3.85803e-08
3.85308e-08
3.84733e-08
3.84259e-08
3.83709e-08
3.83249e-08
3.82725e-08
3.8227e-08
3.81772e-08
3.81318e-08
3.80855e-08
3.8039e-08
3.79982e-08
3.79504e-08
3.79022e-08
3.78471e-08
3.78147e-08
3.81359e-08
3.46294e-06
2.36982e-08
1.24429e-07
1.23631e-07
1.20554e-07
1.15166e-07
1.08537e-07
1.0172e-07
9.52751e-08
8.94692e-08
8.43207e-08
7.98197e-08
7.58669e-08
7.24199e-08
6.93751e-08
6.67081e-08
6.43296e-08
6.22331e-08
6.0343e-08
5.8668e-08
5.71418e-08
5.57841e-08
5.45336e-08
5.3418e-08
5.23803e-08
5.14528e-08
5.05809e-08
4.98011e-08
4.9061e-08
4.84006e-08
4.77657e-08
4.72011e-08
4.66532e-08
4.61677e-08
4.56903e-08
4.52698e-08
4.48515e-08
4.4486e-08
4.41174e-08
4.37983e-08
4.34722e-08
4.31924e-08
4.29021e-08
4.2656e-08
4.23956e-08
4.21778e-08
4.19449e-08
4.17525e-08
4.1542e-08
4.13709e-08
4.11817e-08
4.10298e-08
4.08565e-08
4.0723e-08
4.05662e-08
4.04479e-08
4.03034e-08
4.01966e-08
4.00691e-08
3.99726e-08
3.9855e-08
3.9772e-08
3.96593e-08
3.95858e-08
3.9483e-08
3.94165e-08
3.9322e-08
3.92631e-08
3.91752e-08
3.91157e-08
3.90395e-08
3.89842e-08
3.89138e-08
3.88605e-08
3.87976e-08
3.87468e-08
3.86871e-08
3.86365e-08
3.85771e-08
3.85275e-08
3.847e-08
3.84225e-08
3.83675e-08
3.83214e-08
3.82689e-08
3.82234e-08
3.81735e-08
3.81281e-08
3.80817e-08
3.80351e-08
3.79942e-08
3.79465e-08
3.78982e-08
3.7843e-08
3.78105e-08
3.81338e-08
3.47223e-06
2.41066e-08
1.24427e-07
1.23632e-07
1.20564e-07
1.15186e-07
1.08567e-07
1.01755e-07
9.53126e-08
8.95071e-08
8.43576e-08
7.9855e-08
7.59002e-08
7.24511e-08
6.94041e-08
6.6735e-08
6.43545e-08
6.22561e-08
6.03642e-08
5.86875e-08
5.71598e-08
5.58007e-08
5.45488e-08
5.3432e-08
5.23933e-08
5.14646e-08
5.05918e-08
4.98112e-08
4.90702e-08
4.8409e-08
4.77734e-08
4.72081e-08
4.66595e-08
4.61735e-08
4.56955e-08
4.52745e-08
4.48557e-08
4.44897e-08
4.41207e-08
4.38012e-08
4.34747e-08
4.31946e-08
4.29039e-08
4.26574e-08
4.23968e-08
4.21786e-08
4.19455e-08
4.17528e-08
4.15421e-08
4.13708e-08
4.11812e-08
4.10292e-08
4.08557e-08
4.0722e-08
4.05649e-08
4.04465e-08
4.03018e-08
4.01949e-08
4.00672e-08
3.99705e-08
3.98527e-08
3.97697e-08
3.96567e-08
3.95832e-08
3.94802e-08
3.94136e-08
3.9319e-08
3.92599e-08
3.91719e-08
3.91124e-08
3.90361e-08
3.89807e-08
3.89102e-08
3.8857e-08
3.87939e-08
3.87431e-08
3.86833e-08
3.86326e-08
3.85731e-08
3.85235e-08
3.84659e-08
3.84183e-08
3.83632e-08
3.83171e-08
3.82645e-08
3.82189e-08
3.81689e-08
3.81235e-08
3.8077e-08
3.80304e-08
3.79894e-08
3.79416e-08
3.78933e-08
3.78381e-08
3.78054e-08
3.81312e-08
3.48365e-06
2.45592e-08
1.24425e-07
1.23632e-07
1.20575e-07
1.15211e-07
1.08602e-07
1.01797e-07
9.53573e-08
8.95522e-08
8.44017e-08
7.98972e-08
7.59401e-08
7.24883e-08
6.94388e-08
6.67672e-08
6.43843e-08
6.22836e-08
6.03896e-08
5.87109e-08
5.71814e-08
5.58205e-08
5.45671e-08
5.34489e-08
5.24088e-08
5.14789e-08
5.06049e-08
4.98232e-08
4.90812e-08
4.84191e-08
4.77826e-08
4.72165e-08
4.66672e-08
4.61805e-08
4.57018e-08
4.52802e-08
4.48608e-08
4.44943e-08
4.41247e-08
4.38047e-08
4.34777e-08
4.31972e-08
4.2906e-08
4.26592e-08
4.23982e-08
4.21797e-08
4.19462e-08
4.17532e-08
4.15422e-08
4.13706e-08
4.11808e-08
4.10285e-08
4.08547e-08
4.07208e-08
4.05635e-08
4.04449e-08
4.03e-08
4.01928e-08
4.00649e-08
3.9968e-08
3.98501e-08
3.97669e-08
3.96538e-08
3.95801e-08
3.94769e-08
3.94102e-08
3.93154e-08
3.92562e-08
3.91681e-08
3.91084e-08
3.90321e-08
3.89766e-08
3.8906e-08
3.88527e-08
3.87895e-08
3.87386e-08
3.86787e-08
3.8628e-08
3.85684e-08
3.85188e-08
3.8461e-08
3.84134e-08
3.83582e-08
3.8312e-08
3.82592e-08
3.82137e-08
3.81635e-08
3.81181e-08
3.80714e-08
3.80248e-08
3.79836e-08
3.79359e-08
3.78875e-08
3.78322e-08
3.77993e-08
3.81282e-08
3.49724e-06
2.50603e-08
1.24423e-07
1.23633e-07
1.20588e-07
1.15239e-07
1.08643e-07
1.01845e-07
9.54094e-08
8.96049e-08
8.44532e-08
7.99464e-08
7.59865e-08
7.25318e-08
6.94793e-08
6.68048e-08
6.44191e-08
6.23157e-08
6.04192e-08
5.87383e-08
5.72066e-08
5.58438e-08
5.45886e-08
5.34686e-08
5.24269e-08
5.14956e-08
5.06203e-08
4.98373e-08
4.90941e-08
4.8431e-08
4.77934e-08
4.72264e-08
4.66762e-08
4.61887e-08
4.57092e-08
4.52869e-08
4.48668e-08
4.44996e-08
4.41294e-08
4.38089e-08
4.34813e-08
4.32003e-08
4.29087e-08
4.26614e-08
4.23999e-08
4.2181e-08
4.19471e-08
4.17538e-08
4.15424e-08
4.13705e-08
4.11803e-08
4.10277e-08
4.08536e-08
4.07195e-08
4.05618e-08
4.0443e-08
4.02978e-08
4.01904e-08
4.00623e-08
3.99652e-08
3.9847e-08
3.97637e-08
3.96503e-08
3.95765e-08
3.94732e-08
3.94063e-08
3.93113e-08
3.92519e-08
3.91637e-08
3.91039e-08
3.90274e-08
3.89719e-08
3.89011e-08
3.88478e-08
3.87844e-08
3.87335e-08
3.86735e-08
3.86227e-08
3.8563e-08
3.85133e-08
3.84554e-08
3.84077e-08
3.83523e-08
3.83061e-08
3.82532e-08
3.82076e-08
3.81573e-08
3.81118e-08
3.8065e-08
3.80183e-08
3.7977e-08
3.79292e-08
3.78807e-08
3.78255e-08
3.77922e-08
3.81247e-08
3.51298e-06
2.5617e-08
1.24421e-07
1.23633e-07
1.20603e-07
1.15271e-07
1.0869e-07
1.01901e-07
9.54689e-08
8.96652e-08
8.45121e-08
8.00028e-08
7.60398e-08
7.25817e-08
6.95258e-08
6.68479e-08
6.4459e-08
6.23526e-08
6.04533e-08
5.87697e-08
5.72356e-08
5.58705e-08
5.46132e-08
5.34913e-08
5.24478e-08
5.15148e-08
5.06379e-08
4.98535e-08
4.9109e-08
4.84446e-08
4.78059e-08
4.72378e-08
4.66866e-08
4.61981e-08
4.57178e-08
4.52946e-08
4.48737e-08
4.45058e-08
4.41349e-08
4.38137e-08
4.34855e-08
4.32039e-08
4.29117e-08
4.2664e-08
4.2402e-08
4.21826e-08
4.19482e-08
4.17545e-08
4.15427e-08
4.13704e-08
4.11798e-08
4.10269e-08
4.08524e-08
4.0718e-08
4.056e-08
4.04409e-08
4.02955e-08
4.01878e-08
4.00593e-08
3.99621e-08
3.98436e-08
3.976e-08
3.96465e-08
3.95724e-08
3.94689e-08
3.94018e-08
3.93066e-08
3.92471e-08
3.91587e-08
3.90988e-08
3.90221e-08
3.89665e-08
3.88956e-08
3.88423e-08
3.87786e-08
3.87277e-08
3.86675e-08
3.86167e-08
3.85569e-08
3.8507e-08
3.8449e-08
3.84012e-08
3.83457e-08
3.82994e-08
3.82463e-08
3.82006e-08
3.81502e-08
3.81046e-08
3.80577e-08
3.80109e-08
3.79694e-08
3.79216e-08
3.7873e-08
3.78177e-08
3.77841e-08
3.81209e-08
3.53088e-06
2.62382e-08
1.24418e-07
1.23634e-07
1.20619e-07
1.15308e-07
1.08742e-07
1.01963e-07
9.55361e-08
8.97332e-08
8.45787e-08
8.00665e-08
7.61001e-08
7.26382e-08
6.95783e-08
6.68967e-08
6.45042e-08
6.23944e-08
6.04919e-08
5.88054e-08
5.72685e-08
5.59008e-08
5.46411e-08
5.3517e-08
5.24715e-08
5.15366e-08
5.0658e-08
4.9872e-08
4.9126e-08
4.84601e-08
4.78201e-08
4.72508e-08
4.66984e-08
4.62089e-08
4.57275e-08
4.53034e-08
4.48816e-08
4.45129e-08
4.41412e-08
4.38193e-08
4.34903e-08
4.32081e-08
4.29152e-08
4.26669e-08
4.24043e-08
4.21845e-08
4.19496e-08
4.17553e-08
4.1543e-08
4.13703e-08
4.11793e-08
4.10261e-08
4.08512e-08
4.07164e-08
4.0558e-08
4.04386e-08
4.02928e-08
4.01849e-08
4.00561e-08
3.99586e-08
3.98397e-08
3.9756e-08
3.96422e-08
3.95679e-08
3.94641e-08
3.93969e-08
3.93014e-08
3.92417e-08
3.91531e-08
3.9093e-08
3.90161e-08
3.89605e-08
3.88894e-08
3.88361e-08
3.87721e-08
3.87212e-08
3.86608e-08
3.86099e-08
3.85499e-08
3.85e-08
3.84418e-08
3.8394e-08
3.83382e-08
3.82918e-08
3.82386e-08
3.81928e-08
3.81422e-08
3.80966e-08
3.80494e-08
3.80027e-08
3.79609e-08
3.79131e-08
3.78643e-08
3.7809e-08
3.77751e-08
3.81166e-08
3.55089e-06
2.69346e-08
1.24416e-07
1.23635e-07
1.20637e-07
1.15348e-07
1.088e-07
1.02033e-07
9.5611e-08
8.98091e-08
8.46531e-08
8.01378e-08
7.61674e-08
7.27013e-08
6.96372e-08
6.69513e-08
6.45548e-08
6.24412e-08
6.05352e-08
5.88453e-08
5.73053e-08
5.59348e-08
5.46725e-08
5.35459e-08
5.24981e-08
5.15611e-08
5.06805e-08
4.98927e-08
4.9145e-08
4.84776e-08
4.78361e-08
4.72654e-08
4.67117e-08
4.6221e-08
4.57385e-08
4.53134e-08
4.48906e-08
4.45209e-08
4.41483e-08
4.38256e-08
4.34958e-08
4.32129e-08
4.29193e-08
4.26703e-08
4.24071e-08
4.21867e-08
4.19511e-08
4.17564e-08
4.15435e-08
4.13704e-08
4.11788e-08
4.10252e-08
4.08498e-08
4.07147e-08
4.05559e-08
4.04361e-08
4.029e-08
4.01817e-08
4.00525e-08
3.99548e-08
3.98355e-08
3.97516e-08
3.96374e-08
3.95629e-08
3.94589e-08
3.93914e-08
3.92957e-08
3.92357e-08
3.9147e-08
3.90867e-08
3.90096e-08
3.89538e-08
3.88825e-08
3.88292e-08
3.8765e-08
3.8714e-08
3.86534e-08
3.86024e-08
3.85423e-08
3.84922e-08
3.84339e-08
3.83859e-08
3.833e-08
3.82835e-08
3.823e-08
3.81842e-08
3.81333e-08
3.80877e-08
3.80403e-08
3.79934e-08
3.79514e-08
3.79036e-08
3.78547e-08
3.77994e-08
3.7765e-08
3.81119e-08
3.57293e-06
2.77181e-08
1.24412e-07
1.23635e-07
1.20657e-07
1.15392e-07
1.08865e-07
1.0211e-07
9.56937e-08
8.98931e-08
8.47354e-08
8.02167e-08
7.62421e-08
7.27713e-08
6.97025e-08
6.7012e-08
6.4611e-08
6.24932e-08
6.05833e-08
5.88897e-08
5.73463e-08
5.59726e-08
5.47074e-08
5.35781e-08
5.25277e-08
5.15884e-08
5.07057e-08
4.99158e-08
4.91662e-08
4.84971e-08
4.78539e-08
4.72817e-08
4.67266e-08
4.62346e-08
4.57508e-08
4.53245e-08
4.49006e-08
4.45299e-08
4.41563e-08
4.38327e-08
4.3502e-08
4.32183e-08
4.29238e-08
4.26742e-08
4.24102e-08
4.21892e-08
4.1953e-08
4.17577e-08
4.15442e-08
4.13705e-08
4.11784e-08
4.10244e-08
4.08484e-08
4.07129e-08
4.05536e-08
4.04335e-08
4.02869e-08
4.01782e-08
4.00486e-08
3.99506e-08
3.98309e-08
3.97468e-08
3.96323e-08
3.95575e-08
3.94531e-08
3.93854e-08
3.92894e-08
3.92291e-08
3.91402e-08
3.90797e-08
3.90023e-08
3.89465e-08
3.8875e-08
3.88216e-08
3.87571e-08
3.87061e-08
3.86453e-08
3.85941e-08
3.85338e-08
3.84837e-08
3.84251e-08
3.8377e-08
3.83209e-08
3.82743e-08
3.82206e-08
3.81747e-08
3.81236e-08
3.80778e-08
3.80302e-08
3.79833e-08
3.7941e-08
3.78932e-08
3.78441e-08
3.77887e-08
3.7754e-08
3.81069e-08
3.59687e-06
2.86023e-08
1.24409e-07
1.23636e-07
1.20678e-07
1.15441e-07
1.08935e-07
1.02194e-07
9.57845e-08
8.99853e-08
8.48258e-08
8.03035e-08
7.63242e-08
7.28484e-08
6.97744e-08
6.70788e-08
6.4673e-08
6.25506e-08
6.06363e-08
5.89387e-08
5.73915e-08
5.60144e-08
5.47459e-08
5.36136e-08
5.25605e-08
5.16186e-08
5.07334e-08
4.99414e-08
4.91897e-08
4.85187e-08
4.78737e-08
4.72998e-08
4.67431e-08
4.62496e-08
4.57645e-08
4.53369e-08
4.49117e-08
4.454e-08
4.41652e-08
4.38406e-08
4.35089e-08
4.32243e-08
4.2929e-08
4.26786e-08
4.24138e-08
4.2192e-08
4.19551e-08
4.17592e-08
4.1545e-08
4.13708e-08
4.11781e-08
4.10235e-08
4.0847e-08
4.0711e-08
4.05512e-08
4.04306e-08
4.02836e-08
4.01746e-08
4.00445e-08
3.99462e-08
3.9826e-08
3.97415e-08
3.96267e-08
3.95516e-08
3.94469e-08
3.93789e-08
3.92826e-08
3.9222e-08
3.91329e-08
3.90722e-08
3.89945e-08
3.89385e-08
3.88668e-08
3.88133e-08
3.87485e-08
3.86974e-08
3.86364e-08
3.85852e-08
3.85246e-08
3.84744e-08
3.84156e-08
3.83674e-08
3.8311e-08
3.82642e-08
3.82103e-08
3.81643e-08
3.81129e-08
3.80671e-08
3.80192e-08
3.79723e-08
3.79296e-08
3.78818e-08
3.78325e-08
3.77771e-08
3.77419e-08
3.81014e-08
3.62256e-06
2.96016e-08
1.24405e-07
1.23636e-07
1.20702e-07
1.15493e-07
1.09011e-07
1.02285e-07
9.58833e-08
9.00858e-08
8.49245e-08
8.03983e-08
7.64141e-08
7.29327e-08
6.98531e-08
6.7152e-08
6.47409e-08
6.26134e-08
6.06944e-08
5.89924e-08
5.74412e-08
5.60602e-08
5.47882e-08
5.36526e-08
5.25965e-08
5.16518e-08
5.0764e-08
4.99695e-08
4.92155e-08
4.85424e-08
4.78955e-08
4.73198e-08
4.67613e-08
4.62663e-08
4.57796e-08
4.53506e-08
4.49241e-08
4.45511e-08
4.41751e-08
4.38494e-08
4.35167e-08
4.32311e-08
4.29348e-08
4.26835e-08
4.24178e-08
4.21953e-08
4.19575e-08
4.1761e-08
4.15461e-08
4.13713e-08
4.11778e-08
4.10227e-08
4.08456e-08
4.07091e-08
4.05486e-08
4.04277e-08
4.02801e-08
4.01707e-08
4.00401e-08
3.99414e-08
3.98208e-08
3.9736e-08
3.96207e-08
3.95453e-08
3.94402e-08
3.93719e-08
3.92753e-08
3.92144e-08
3.9125e-08
3.9064e-08
3.8986e-08
3.89298e-08
3.88579e-08
3.88044e-08
3.87392e-08
3.86881e-08
3.86268e-08
3.85755e-08
3.85147e-08
3.84643e-08
3.84053e-08
3.83569e-08
3.83002e-08
3.82534e-08
3.81992e-08
3.81531e-08
3.81014e-08
3.80555e-08
3.80073e-08
3.79603e-08
3.79173e-08
3.78695e-08
3.78199e-08
3.77645e-08
3.77289e-08
3.80956e-08
3.64977e-06
3.07315e-08
1.24401e-07
1.23637e-07
1.20726e-07
1.15549e-07
1.09094e-07
1.02384e-07
9.59904e-08
9.01948e-08
8.50317e-08
8.05013e-08
7.65117e-08
7.30244e-08
6.99388e-08
6.72316e-08
6.48148e-08
6.26819e-08
6.07578e-08
5.9051e-08
5.74953e-08
5.61102e-08
5.48344e-08
5.36953e-08
5.26358e-08
5.1688e-08
5.07974e-08
5.00003e-08
4.92439e-08
4.85684e-08
4.79193e-08
4.73417e-08
4.67813e-08
4.62845e-08
4.57962e-08
4.53657e-08
4.49377e-08
4.45634e-08
4.41861e-08
4.38592e-08
4.35252e-08
4.32386e-08
4.29412e-08
4.2689e-08
4.24224e-08
4.2199e-08
4.19604e-08
4.17631e-08
4.15474e-08
4.13719e-08
4.11777e-08
4.1022e-08
4.08442e-08
4.07071e-08
4.05461e-08
4.04246e-08
4.02765e-08
4.01665e-08
4.00354e-08
3.99364e-08
3.98152e-08
3.973e-08
3.96144e-08
3.95385e-08
3.94331e-08
3.93644e-08
3.92674e-08
3.92062e-08
3.91165e-08
3.90553e-08
3.89768e-08
3.89206e-08
3.88484e-08
3.87948e-08
3.87293e-08
3.86781e-08
3.86164e-08
3.8565e-08
3.8504e-08
3.84535e-08
3.83942e-08
3.83456e-08
3.82887e-08
3.82417e-08
3.81872e-08
3.8141e-08
3.8089e-08
3.8043e-08
3.79945e-08
3.79474e-08
3.7904e-08
3.78562e-08
3.78063e-08
3.77509e-08
3.77148e-08
3.80893e-08
3.6782e-06
3.20087e-08
1.24397e-07
1.23637e-07
1.20753e-07
1.15609e-07
1.09182e-07
1.02491e-07
9.61058e-08
9.03125e-08
8.51475e-08
8.06127e-08
7.66174e-08
7.31238e-08
7.00317e-08
6.73181e-08
6.4895e-08
6.27562e-08
6.08266e-08
5.91147e-08
5.75542e-08
5.61646e-08
5.48846e-08
5.37416e-08
5.26786e-08
5.17275e-08
5.08338e-08
5.00338e-08
4.92747e-08
4.85968e-08
4.79454e-08
4.73656e-08
4.68032e-08
4.63045e-08
4.58144e-08
4.53822e-08
4.49526e-08
4.45768e-08
4.41981e-08
4.38699e-08
4.35347e-08
4.3247e-08
4.29484e-08
4.26952e-08
4.24275e-08
4.22033e-08
4.19637e-08
4.17655e-08
4.1549e-08
4.13727e-08
4.11777e-08
4.10214e-08
4.08429e-08
4.07052e-08
4.05434e-08
4.04215e-08
4.02728e-08
4.01623e-08
4.00305e-08
3.99311e-08
3.98093e-08
3.97238e-08
3.96076e-08
3.95314e-08
3.94255e-08
3.93565e-08
3.92591e-08
3.91975e-08
3.91075e-08
3.9046e-08
3.89671e-08
3.89107e-08
3.88383e-08
3.87845e-08
3.87187e-08
3.86675e-08
3.86054e-08
3.85539e-08
3.84926e-08
3.84419e-08
3.83823e-08
3.83336e-08
3.82763e-08
3.82292e-08
3.81744e-08
3.8128e-08
3.80757e-08
3.80296e-08
3.79807e-08
3.79335e-08
3.78897e-08
3.78419e-08
3.77918e-08
3.77364e-08
3.76997e-08
3.80827e-08
3.7075e-06
3.34506e-08
1.24393e-07
1.23637e-07
1.20781e-07
1.15673e-07
1.09277e-07
1.02605e-07
9.62297e-08
9.0439e-08
8.52722e-08
8.07327e-08
7.67314e-08
7.32309e-08
7.01319e-08
6.74114e-08
6.49817e-08
6.28366e-08
6.09011e-08
5.91835e-08
5.76179e-08
5.62235e-08
5.4939e-08
5.37919e-08
5.2725e-08
5.17704e-08
5.08733e-08
5.00703e-08
4.93083e-08
4.86277e-08
4.79738e-08
4.73916e-08
4.6827e-08
4.63263e-08
4.58342e-08
4.54003e-08
4.4969e-08
4.45916e-08
4.42114e-08
4.38818e-08
4.35452e-08
4.32562e-08
4.29564e-08
4.27021e-08
4.24333e-08
4.2208e-08
4.19674e-08
4.17684e-08
4.15509e-08
4.13739e-08
4.1178e-08
4.1021e-08
4.08416e-08
4.07033e-08
4.05408e-08
4.04183e-08
4.02689e-08
4.01579e-08
4.00255e-08
3.99256e-08
3.98031e-08
3.97172e-08
3.96006e-08
3.95239e-08
3.94175e-08
3.93482e-08
3.92503e-08
3.91883e-08
3.9098e-08
3.90361e-08
3.89568e-08
3.89002e-08
3.88275e-08
3.87736e-08
3.87074e-08
3.86562e-08
3.85937e-08
3.8542e-08
3.84804e-08
3.84296e-08
3.83696e-08
3.83208e-08
3.82632e-08
3.82159e-08
3.81607e-08
3.81142e-08
3.80615e-08
3.80153e-08
3.7966e-08
3.79188e-08
3.78745e-08
3.78267e-08
3.77763e-08
3.77208e-08
3.76836e-08
3.80757e-08
3.73721e-06
3.50756e-08
1.24388e-07
1.23637e-07
1.2081e-07
1.15741e-07
1.09377e-07
1.02727e-07
9.63622e-08
9.05745e-08
8.54058e-08
8.08615e-08
7.68538e-08
7.33461e-08
7.02397e-08
6.75118e-08
6.50751e-08
6.29232e-08
6.09813e-08
5.92578e-08
5.76866e-08
5.6287e-08
5.49978e-08
5.38462e-08
5.27752e-08
5.18167e-08
5.09161e-08
5.01097e-08
4.93446e-08
4.86612e-08
4.80045e-08
4.74199e-08
4.68529e-08
4.635e-08
4.58558e-08
4.542e-08
4.49868e-08
4.46078e-08
4.42258e-08
4.38947e-08
4.35567e-08
4.32664e-08
4.29652e-08
4.27097e-08
4.24397e-08
4.22134e-08
4.19716e-08
4.17717e-08
4.15532e-08
4.13753e-08
4.11785e-08
4.10208e-08
4.08406e-08
4.07015e-08
4.05382e-08
4.0415e-08
4.0265e-08
4.01534e-08
4.00202e-08
3.99199e-08
3.97968e-08
3.97104e-08
3.95932e-08
3.95161e-08
3.94092e-08
3.93394e-08
3.92411e-08
3.91786e-08
3.9088e-08
3.90257e-08
3.8946e-08
3.88891e-08
3.88161e-08
3.87621e-08
3.86954e-08
3.86442e-08
3.85812e-08
3.85295e-08
3.84675e-08
3.84165e-08
3.83563e-08
3.83072e-08
3.82493e-08
3.82018e-08
3.81462e-08
3.80996e-08
3.80465e-08
3.80001e-08
3.79505e-08
3.79031e-08
3.78584e-08
3.78105e-08
3.77598e-08
3.77043e-08
3.76665e-08
3.80682e-08
3.76683e-06
3.69027e-08
1.24383e-07
1.23637e-07
1.20841e-07
1.15813e-07
1.09484e-07
1.02856e-07
9.65033e-08
9.07191e-08
8.55486e-08
8.09993e-08
7.69848e-08
7.34696e-08
7.03553e-08
6.76195e-08
6.51753e-08
6.30162e-08
6.10675e-08
5.93377e-08
5.77605e-08
5.63554e-08
5.5061e-08
5.39047e-08
5.28292e-08
5.18666e-08
5.09622e-08
5.01523e-08
4.93838e-08
4.86974e-08
4.80378e-08
4.74505e-08
4.68809e-08
4.63757e-08
4.58793e-08
4.54414e-08
4.50062e-08
4.46254e-08
4.42417e-08
4.3909e-08
4.35693e-08
4.32775e-08
4.29749e-08
4.27182e-08
4.24469e-08
4.22194e-08
4.19765e-08
4.17755e-08
4.1556e-08
4.13772e-08
4.11793e-08
4.10208e-08
4.08397e-08
4.06999e-08
4.05357e-08
4.04119e-08
4.02611e-08
4.01488e-08
4.00149e-08
3.99141e-08
3.97902e-08
3.97034e-08
3.95856e-08
3.9508e-08
3.94005e-08
3.93303e-08
3.92315e-08
3.91685e-08
3.90775e-08
3.90149e-08
3.89346e-08
3.88775e-08
3.88041e-08
3.875e-08
3.86829e-08
3.86317e-08
3.85681e-08
3.85163e-08
3.8454e-08
3.84028e-08
3.83422e-08
3.82929e-08
3.82346e-08
3.81869e-08
3.81309e-08
3.80841e-08
3.80306e-08
3.79841e-08
3.7934e-08
3.78866e-08
3.78413e-08
3.77934e-08
3.77423e-08
3.76869e-08
3.76485e-08
3.80603e-08
3.79572e-06
3.89521e-08
1.24378e-07
1.23637e-07
1.20873e-07
1.15888e-07
1.09597e-07
1.02993e-07
9.66533e-08
9.0873e-08
8.57008e-08
8.11462e-08
7.71248e-08
7.36015e-08
7.04789e-08
6.77348e-08
6.52826e-08
6.31158e-08
6.11599e-08
5.94233e-08
5.78398e-08
5.64288e-08
5.5129e-08
5.39675e-08
5.28873e-08
5.19204e-08
5.10118e-08
5.01981e-08
4.94261e-08
4.87364e-08
4.80737e-08
4.74835e-08
4.69112e-08
4.64035e-08
4.59047e-08
4.54646e-08
4.50273e-08
4.46445e-08
4.42589e-08
4.39245e-08
4.35831e-08
4.32898e-08
4.29857e-08
4.27275e-08
4.24549e-08
4.22262e-08
4.1982e-08
4.17799e-08
4.15592e-08
4.13795e-08
4.11805e-08
4.10212e-08
4.0839e-08
4.06984e-08
4.05334e-08
4.04088e-08
4.02572e-08
4.01442e-08
4.00095e-08
3.99081e-08
3.97835e-08
3.96962e-08
3.95777e-08
3.94996e-08
3.93915e-08
3.93208e-08
3.92214e-08
3.9158e-08
3.90666e-08
3.90036e-08
3.89228e-08
3.88654e-08
3.87916e-08
3.87373e-08
3.86697e-08
3.86185e-08
3.85544e-08
3.85025e-08
3.84398e-08
3.83884e-08
3.83273e-08
3.82779e-08
3.82191e-08
3.81712e-08
3.81148e-08
3.80679e-08
3.80139e-08
3.79673e-08
3.79167e-08
3.78692e-08
3.78234e-08
3.77754e-08
3.77239e-08
3.76685e-08
3.76295e-08
3.80519e-08
3.8232e-06
4.12442e-08
1.24372e-07
1.23637e-07
1.20907e-07
1.15968e-07
1.09716e-07
1.03139e-07
9.68122e-08
9.10363e-08
8.58625e-08
8.13026e-08
7.72738e-08
7.37421e-08
7.06107e-08
6.78579e-08
6.53971e-08
6.32222e-08
6.12587e-08
5.95149e-08
5.79247e-08
5.65074e-08
5.52018e-08
5.40349e-08
5.29497e-08
5.19781e-08
5.10652e-08
5.02474e-08
4.94716e-08
4.87784e-08
4.81124e-08
4.75192e-08
4.69439e-08
4.64336e-08
4.59322e-08
4.54898e-08
4.50501e-08
4.46653e-08
4.42776e-08
4.39414e-08
4.35981e-08
4.33033e-08
4.29975e-08
4.27379e-08
4.24637e-08
4.22338e-08
4.19882e-08
4.1785e-08
4.1563e-08
4.13822e-08
4.11822e-08
4.10219e-08
4.08387e-08
4.06972e-08
4.05312e-08
4.04058e-08
4.02534e-08
4.01397e-08
4.00041e-08
3.99021e-08
3.97766e-08
3.96888e-08
3.95696e-08
3.9491e-08
3.93823e-08
3.93111e-08
3.92111e-08
3.91472e-08
3.90552e-08
3.89918e-08
3.89105e-08
3.88527e-08
3.87786e-08
3.87241e-08
3.8656e-08
3.86048e-08
3.85401e-08
3.8488e-08
3.84249e-08
3.83733e-08
3.83119e-08
3.82622e-08
3.8203e-08
3.81549e-08
3.8098e-08
3.80508e-08
3.79964e-08
3.79496e-08
3.78986e-08
3.78509e-08
3.78045e-08
3.77566e-08
3.77046e-08
3.76492e-08
3.76095e-08
3.8043e-08
3.84847e-06
4.37993e-08
1.24366e-07
1.23636e-07
1.20942e-07
1.16051e-07
1.09841e-07
1.03292e-07
9.69801e-08
9.12092e-08
8.6034e-08
8.14686e-08
7.74321e-08
7.38916e-08
7.07511e-08
6.7989e-08
6.55193e-08
6.33358e-08
6.13642e-08
5.96127e-08
5.80154e-08
5.65915e-08
5.52797e-08
5.4107e-08
5.30165e-08
5.20399e-08
5.11223e-08
5.03003e-08
4.95205e-08
4.88235e-08
4.8154e-08
4.75575e-08
4.69792e-08
4.6466e-08
4.59618e-08
4.55169e-08
4.50749e-08
4.46878e-08
4.4298e-08
4.39598e-08
4.36146e-08
4.3318e-08
4.30104e-08
4.27493e-08
4.24736e-08
4.22423e-08
4.19952e-08
4.17908e-08
4.15675e-08
4.13856e-08
4.11843e-08
4.1023e-08
4.08387e-08
4.06963e-08
4.05292e-08
4.04031e-08
4.02497e-08
4.01352e-08
3.99988e-08
3.98961e-08
3.97697e-08
3.96813e-08
3.95614e-08
3.94822e-08
3.93728e-08
3.93011e-08
3.92005e-08
3.9136e-08
3.90436e-08
3.89797e-08
3.88978e-08
3.88397e-08
3.87651e-08
3.87103e-08
3.86418e-08
3.85905e-08
3.85252e-08
3.8473e-08
3.84094e-08
3.83576e-08
3.82957e-08
3.82458e-08
3.81861e-08
3.81378e-08
3.80804e-08
3.80331e-08
3.79782e-08
3.79312e-08
3.78796e-08
3.78318e-08
3.77848e-08
3.77368e-08
3.76844e-08
3.7629e-08
3.75887e-08
3.80335e-08
3.87065e-06
4.66372e-08
1.2436e-07
1.23636e-07
1.20978e-07
1.16138e-07
1.09972e-07
1.03452e-07
9.71572e-08
9.13918e-08
8.62153e-08
8.16444e-08
7.76001e-08
7.40503e-08
7.09002e-08
6.81283e-08
6.56492e-08
6.34566e-08
6.14765e-08
5.97169e-08
5.81122e-08
5.66812e-08
5.53628e-08
5.41841e-08
5.30878e-08
5.2106e-08
5.11835e-08
5.03569e-08
4.95728e-08
4.88718e-08
4.81987e-08
4.75987e-08
4.70171e-08
4.65009e-08
4.59938e-08
4.55463e-08
4.51016e-08
4.47123e-08
4.43201e-08
4.39798e-08
4.36326e-08
4.33341e-08
4.30247e-08
4.27619e-08
4.24845e-08
4.22517e-08
4.20031e-08
4.17974e-08
4.15727e-08
4.13896e-08
4.1187e-08
4.10247e-08
4.08392e-08
4.06958e-08
4.05276e-08
4.04006e-08
4.02463e-08
4.01309e-08
3.99935e-08
3.98902e-08
3.97628e-08
3.96738e-08
3.95532e-08
3.94733e-08
3.93632e-08
3.92909e-08
3.91896e-08
3.91245e-08
3.90316e-08
3.89672e-08
3.88847e-08
3.88262e-08
3.87511e-08
3.86962e-08
3.8627e-08
3.85757e-08
3.85098e-08
3.84575e-08
3.83934e-08
3.83414e-08
3.8279e-08
3.82288e-08
3.81686e-08
3.81201e-08
3.80622e-08
3.80146e-08
3.79592e-08
3.7912e-08
3.78599e-08
3.78119e-08
3.77643e-08
3.77162e-08
3.76633e-08
3.76079e-08
3.75669e-08
3.80234e-08
3.88879e-06
4.9777e-08
1.24354e-07
1.23635e-07
1.21016e-07
1.16228e-07
1.10109e-07
1.03621e-07
9.73434e-08
9.15843e-08
8.64068e-08
8.18303e-08
7.77778e-08
7.42184e-08
7.10582e-08
6.82762e-08
6.57872e-08
6.3585e-08
6.15959e-08
5.98278e-08
5.82151e-08
5.67767e-08
5.54514e-08
5.42662e-08
5.3164e-08
5.21765e-08
5.12489e-08
5.04175e-08
4.96288e-08
4.89237e-08
4.82465e-08
4.76429e-08
4.70578e-08
4.65384e-08
4.60283e-08
4.55779e-08
4.51305e-08
4.47387e-08
4.43441e-08
4.40016e-08
4.36521e-08
4.33517e-08
4.30403e-08
4.27758e-08
4.24966e-08
4.22623e-08
4.2012e-08
4.18049e-08
4.15787e-08
4.13944e-08
4.11903e-08
4.1027e-08
4.08402e-08
4.06958e-08
4.05264e-08
4.03984e-08
4.02431e-08
4.01269e-08
3.99884e-08
3.98844e-08
3.9756e-08
3.96663e-08
3.95449e-08
3.94643e-08
3.93534e-08
3.92805e-08
3.91786e-08
3.91129e-08
3.90194e-08
3.89545e-08
3.88713e-08
3.88124e-08
3.87367e-08
3.86815e-08
3.86119e-08
3.85604e-08
3.84939e-08
3.84415e-08
3.83768e-08
3.83246e-08
3.82617e-08
3.82112e-08
3.81506e-08
3.81017e-08
3.80433e-08
3.79955e-08
3.79395e-08
3.78921e-08
3.78394e-08
3.77913e-08
3.7743e-08
3.76949e-08
3.76414e-08
3.7586e-08
3.75443e-08
3.80126e-08
3.90187e-06
5.32352e-08
1.24348e-07
1.23633e-07
1.21054e-07
1.16322e-07
1.10252e-07
1.03798e-07
9.75389e-08
9.17868e-08
8.66086e-08
8.20265e-08
7.79655e-08
7.43963e-08
7.12255e-08
6.84328e-08
6.59335e-08
6.37213e-08
6.17227e-08
5.99457e-08
5.83246e-08
5.68783e-08
5.55457e-08
5.43537e-08
5.32452e-08
5.22518e-08
5.13187e-08
5.04822e-08
4.96887e-08
4.89791e-08
4.82978e-08
4.76903e-08
4.71015e-08
4.65787e-08
4.60653e-08
4.5612e-08
4.51617e-08
4.47672e-08
4.437e-08
4.40252e-08
4.36734e-08
4.33709e-08
4.30574e-08
4.27911e-08
4.251e-08
4.2274e-08
4.20219e-08
4.18134e-08
4.15856e-08
4.14e-08
4.11945e-08