/*--------------------------------*- C++ -*----------------------------------*\
| =========                 |                                                 |
| \\      /  F ield         | OpenFOAM: The Open Source CFD Toolbox           |
|  \\    /   O peration     | Version:  v2012                                 |
|   \\  /    A nd           | Website:  www.openfoam.com                      |
|    \\/     M anipulation  |                                                 |
\*---------------------------------------------------------------------------*/
FoamFile
{
    version     2.0;
    format      ascii;
    class       volVectorField;
    location    "46";
    object      wallShearStress;
}
// * * * * * * * * * * * * * * * * * * * * * * * * * * * * * * * * * * * * * //

dimensions      [0 2 -2 0 0 0 0];


internalField   uniform (0 0 0);

boundaryField
{
    inlet
    {
        type            calculated;
        value           uniform (0 0 0);
    }
    outlet
    {
        type            calculated;
        value           uniform (0 0 0);
    }
    topWall
    {
        type            calculated;
        value           nonuniform List<vector> 
545
(
(6.84e-08 -4.81448e-08 0)
(6.83832e-08 -1.34698e-07 0)
(6.83355e-08 -2.24689e-07 0)
(6.8272e-08 -3.12064e-07 0)
(6.81955e-08 -3.95707e-07 0)
(6.81055e-08 -4.76694e-07 0)
(6.80031e-08 -5.55713e-07 0)
(6.7889e-08 -6.32725e-07 0)
(6.77641e-08 -7.07563e-07 0)
(6.76295e-08 -7.80224e-07 0)
(6.7486e-08 -8.50804e-07 0)
(6.73347e-08 -9.19384e-07 0)
(6.71761e-08 -9.86011e-07 0)
(6.70112e-08 -1.05072e-06 0)
(6.68405e-08 -1.11357e-06 0)
(6.66649e-08 -1.1746e-06 0)
(6.64848e-08 -1.23386e-06 0)
(6.63009e-08 -1.2914e-06 0)
(6.61137e-08 -1.34727e-06 0)
(6.59237e-08 -1.40151e-06 0)
(6.57315e-08 -1.45416e-06 0)
(6.55373e-08 -1.50528e-06 0)
(6.53418e-08 -1.5549e-06 0)
(6.51452e-08 -1.60306e-06 0)
(6.49478e-08 -1.64982e-06 0)
(6.47501e-08 -1.6952e-06 0)
(6.45524e-08 -1.73925e-06 0)
(6.43548e-08 -1.78201e-06 0)
(6.41577e-08 -1.82352e-06 0)
(6.39614e-08 -1.8638e-06 0)
(6.3766e-08 -1.90291e-06 0)
(6.35717e-08 -1.94086e-06 0)
(6.33787e-08 -1.97771e-06 0)
(6.31873e-08 -2.01347e-06 0)
(6.29975e-08 -2.04819e-06 0)
(6.28095e-08 -2.08188e-06 0)
(6.26234e-08 -2.1146e-06 0)
(6.24393e-08 -2.14635e-06 0)
(6.22574e-08 -2.17718e-06 0)
(6.20777e-08 -2.20711e-06 0)
(6.19003e-08 -2.23616e-06 0)
(6.17252e-08 -2.26437e-06 0)
(6.15526e-08 -2.29176e-06 0)
(6.13825e-08 -2.31835e-06 0)
(6.12149e-08 -2.34417e-06 0)
(6.10499e-08 -2.36924e-06 0)
(6.08875e-08 -2.39358e-06 0)
(6.07278e-08 -2.41722e-06 0)
(6.05707e-08 -2.44017e-06 0)
(6.04162e-08 -2.46247e-06 0)
(6.02644e-08 -2.48412e-06 0)
(6.01153e-08 -2.50514e-06 0)
(5.99688e-08 -2.52557e-06 0)
(5.98251e-08 -2.5454e-06 0)
(5.96839e-08 -2.56467e-06 0)
(5.95455e-08 -2.58338e-06 0)
(5.94096e-08 -2.60156e-06 0)
(5.92764e-08 -2.61922e-06 0)
(5.91458e-08 -2.63638e-06 0)
(5.90177e-08 -2.65304e-06 0)
(5.88922e-08 -2.66924e-06 0)
(5.87692e-08 -2.68497e-06 0)
(5.86487e-08 -2.70025e-06 0)
(5.85307e-08 -2.71511e-06 0)
(5.84151e-08 -2.72954e-06 0)
(5.83019e-08 -2.74356e-06 0)
(5.81911e-08 -2.75719e-06 0)
(5.80826e-08 -2.77043e-06 0)
(5.79764e-08 -2.78331e-06 0)
(5.78724e-08 -2.79581e-06 0)
(5.77708e-08 -2.80798e-06 0)
(5.7671e-08 -2.81977e-06 0)
(5.75743e-08 -2.83113e-06 0)
(5.74807e-08 -2.84214e-06 0)
(5.7388e-08 -2.85304e-06 0)
(5.72956e-08 -2.86387e-06 0)
(5.72033e-08 -2.87466e-06 0)
(5.71111e-08 -2.88539e-06 0)
(5.7019e-08 -2.89604e-06 0)
(5.6927e-08 -2.90663e-06 0)
(5.68351e-08 -2.91715e-06 0)
(5.67432e-08 -2.92761e-06 0)
(5.66515e-08 -2.938e-06 0)
(5.65599e-08 -2.94833e-06 0)
(5.64684e-08 -2.95859e-06 0)
(5.6377e-08 -2.96879e-06 0)
(5.62857e-08 -2.97893e-06 0)
(5.61946e-08 -2.989e-06 0)
(5.61035e-08 -2.99902e-06 0)
(5.60126e-08 -3.00897e-06 0)
(5.59218e-08 -3.01886e-06 0)
(5.58312e-08 -3.02868e-06 0)
(5.57407e-08 -3.03845e-06 0)
(5.56501e-08 -3.04815e-06 0)
(5.55608e-08 -3.05783e-06 0)
(5.54677e-08 -3.06732e-06 0)
(5.53778e-08 -3.076e-06 0)
(5.53e-08 -3.08391e-06 0)
(5.52259e-08 -3.09158e-06 0)
(5.5152e-08 -3.09927e-06 0)
(5.50779e-08 -3.10705e-06 0)
(5.50035e-08 -3.11485e-06 0)
(5.49288e-08 -3.12264e-06 0)
(5.48538e-08 -3.13042e-06 0)
(5.47783e-08 -3.13822e-06 0)
(5.47026e-08 -3.14603e-06 0)
(5.46265e-08 -3.15384e-06 0)
(5.455e-08 -3.16167e-06 0)
(5.44732e-08 -3.1695e-06 0)
(5.4396e-08 -3.17733e-06 0)
(5.43184e-08 -3.18518e-06 0)
(5.42406e-08 -3.19303e-06 0)
(5.41623e-08 -3.20089e-06 0)
(5.40837e-08 -3.20876e-06 0)
(5.40047e-08 -3.21663e-06 0)
(5.39254e-08 -3.22451e-06 0)
(5.38457e-08 -3.2324e-06 0)
(5.37656e-08 -3.24029e-06 0)
(5.36852e-08 -3.24819e-06 0)
(5.36044e-08 -3.2561e-06 0)
(5.35232e-08 -3.26401e-06 0)
(5.34417e-08 -3.27194e-06 0)
(5.33598e-08 -3.27986e-06 0)
(5.32776e-08 -3.2878e-06 0)
(5.31949e-08 -3.29574e-06 0)
(5.31119e-08 -3.30369e-06 0)
(5.30286e-08 -3.31164e-06 0)
(5.29448e-08 -3.3196e-06 0)
(5.28607e-08 -3.32756e-06 0)
(5.27762e-08 -3.33553e-06 0)
(5.26913e-08 -3.34351e-06 0)
(5.26061e-08 -3.3515e-06 0)
(5.25205e-08 -3.35949e-06 0)
(5.24345e-08 -3.36748e-06 0)
(5.23481e-08 -3.37548e-06 0)
(5.22613e-08 -3.38349e-06 0)
(5.21742e-08 -3.3915e-06 0)
(5.20867e-08 -3.39952e-06 0)
(5.19988e-08 -3.40754e-06 0)
(5.19105e-08 -3.41557e-06 0)
(5.18218e-08 -3.4236e-06 0)
(5.17327e-08 -3.43164e-06 0)
(5.16433e-08 -3.43968e-06 0)
(5.15535e-08 -3.44773e-06 0)
(5.14633e-08 -3.45579e-06 0)
(5.13727e-08 -3.46384e-06 0)
(5.12817e-08 -3.47191e-06 0)
(5.11903e-08 -3.47997e-06 0)
(5.10985e-08 -3.48805e-06 0)
(5.10064e-08 -3.49612e-06 0)
(5.09138e-08 -3.5042e-06 0)
(5.08209e-08 -3.51229e-06 0)
(5.07275e-08 -3.52038e-06 0)
(5.06338e-08 -3.52847e-06 0)
(5.05397e-08 -3.53657e-06 0)
(5.04452e-08 -3.54467e-06 0)
(5.03502e-08 -3.55278e-06 0)
(5.02549e-08 -3.56089e-06 0)
(5.01592e-08 -3.569e-06 0)
(5.00631e-08 -3.57712e-06 0)
(4.99666e-08 -3.58524e-06 0)
(4.98697e-08 -3.59336e-06 0)
(4.97724e-08 -3.60149e-06 0)
(4.96747e-08 -3.60962e-06 0)
(4.95766e-08 -3.61775e-06 0)
(4.94781e-08 -3.62589e-06 0)
(4.93792e-08 -3.63403e-06 0)
(4.92799e-08 -3.64217e-06 0)
(4.91801e-08 -3.65032e-06 0)
(4.908e-08 -3.65846e-06 0)
(4.89795e-08 -3.66661e-06 0)
(4.88786e-08 -3.67477e-06 0)
(4.87772e-08 -3.68292e-06 0)
(4.86755e-08 -3.69108e-06 0)
(4.85734e-08 -3.69924e-06 0)
(4.84708e-08 -3.7074e-06 0)
(4.83679e-08 -3.71556e-06 0)
(4.82645e-08 -3.72373e-06 0)
(4.81607e-08 -3.73189e-06 0)
(4.80566e-08 -3.74006e-06 0)
(4.7952e-08 -3.74823e-06 0)
(4.7847e-08 -3.7564e-06 0)
(4.77416e-08 -3.76457e-06 0)
(4.76358e-08 -3.77275e-06 0)
(4.75296e-08 -3.78092e-06 0)
(4.74229e-08 -3.7891e-06 0)
(4.73159e-08 -3.79727e-06 0)
(4.72085e-08 -3.80545e-06 0)
(4.71006e-08 -3.81363e-06 0)
(4.69923e-08 -3.82181e-06 0)
(4.68836e-08 -3.82999e-06 0)
(4.67746e-08 -3.83817e-06 0)
(4.66651e-08 -3.84634e-06 0)
(4.65551e-08 -3.85452e-06 0)
(4.64448e-08 -3.8627e-06 0)
(4.63341e-08 -3.87088e-06 0)
(4.62229e-08 -3.87906e-06 0)
(4.61114e-08 -3.88724e-06 0)
(4.59994e-08 -3.89542e-06 0)
(4.58871e-08 -3.90359e-06 0)
(4.57743e-08 -3.91177e-06 0)
(4.56611e-08 -3.91994e-06 0)
(4.55475e-08 -3.92812e-06 0)
(4.54334e-08 -3.93629e-06 0)
(4.5319e-08 -3.94446e-06 0)
(4.52042e-08 -3.95263e-06 0)
(4.50889e-08 -3.9608e-06 0)
(4.49733e-08 -3.96897e-06 0)
(4.48572e-08 -3.97713e-06 0)
(4.47407e-08 -3.9853e-06 0)
(4.46238e-08 -3.99346e-06 0)
(4.45065e-08 -4.00161e-06 0)
(4.43888e-08 -4.00977e-06 0)
(4.42707e-08 -4.01793e-06 0)
(4.41522e-08 -4.02608e-06 0)
(4.40332e-08 -4.03423e-06 0)
(4.39139e-08 -4.04237e-06 0)
(4.37942e-08 -4.05051e-06 0)
(4.3674e-08 -4.05865e-06 0)
(4.35534e-08 -4.06679e-06 0)
(4.34325e-08 -4.07492e-06 0)
(4.33111e-08 -4.08305e-06 0)
(4.31893e-08 -4.09118e-06 0)
(4.30672e-08 -4.0993e-06 0)
(4.29446e-08 -4.10742e-06 0)
(4.28216e-08 -4.11553e-06 0)
(4.26982e-08 -4.12364e-06 0)
(4.25744e-08 -4.13175e-06 0)
(4.24502e-08 -4.13985e-06 0)
(4.23256e-08 -4.14794e-06 0)
(4.22006e-08 -4.15604e-06 0)
(4.20753e-08 -4.16412e-06 0)
(4.19495e-08 -4.1722e-06 0)
(4.18233e-08 -4.18028e-06 0)
(4.16967e-08 -4.18835e-06 0)
(4.15697e-08 -4.19642e-06 0)
(4.14424e-08 -4.20447e-06 0)
(4.13146e-08 -4.21253e-06 0)
(4.11864e-08 -4.22057e-06 0)
(4.10579e-08 -4.22862e-06 0)
(4.0929e-08 -4.23665e-06 0)
(4.07996e-08 -4.24468e-06 0)
(4.06699e-08 -4.2527e-06 0)
(4.05398e-08 -4.26072e-06 0)
(4.04093e-08 -4.26873e-06 0)
(4.02785e-08 -4.27673e-06 0)
(4.01472e-08 -4.28472e-06 0)
(4.00156e-08 -4.29271e-06 0)
(3.98836e-08 -4.30069e-06 0)
(3.97512e-08 -4.30866e-06 0)
(3.96184e-08 -4.31662e-06 0)
(3.94853e-08 -4.32458e-06 0)
(3.93517e-08 -4.33253e-06 0)
(3.92178e-08 -4.34047e-06 0)
(3.90835e-08 -4.3484e-06 0)
(3.89489e-08 -4.35632e-06 0)
(3.88139e-08 -4.36423e-06 0)
(3.86785e-08 -4.37214e-06 0)
(3.85427e-08 -4.38003e-06 0)
(3.84066e-08 -4.38792e-06 0)
(3.82701e-08 -4.3958e-06 0)
(3.81333e-08 -4.40366e-06 0)
(3.79961e-08 -4.41152e-06 0)
(3.78586e-08 -4.41937e-06 0)
(3.77206e-08 -4.42721e-06 0)
(3.75824e-08 -4.43504e-06 0)
(3.74437e-08 -4.44284e-06 0)
(3.73056e-08 -4.45068e-06 0)
(3.71661e-08 -4.45841e-06 0)
(3.70275e-08 -4.46576e-06 0)
(3.68971e-08 -4.47281e-06 0)
(3.67714e-08 -4.47976e-06 0)
(3.66444e-08 -4.48675e-06 0)
(3.65163e-08 -4.49385e-06 0)
(3.63868e-08 -4.501e-06 0)
(3.62559e-08 -4.5082e-06 0)
(3.61235e-08 -4.51544e-06 0)
(3.59896e-08 -4.52274e-06 0)
(3.58543e-08 -4.53009e-06 0)
(3.57174e-08 -4.53749e-06 0)
(3.55791e-08 -4.54495e-06 0)
(3.54393e-08 -4.55245e-06 0)
(3.52979e-08 -4.56001e-06 0)
(3.5155e-08 -4.56762e-06 0)
(3.50106e-08 -4.57528e-06 0)
(3.48646e-08 -4.58299e-06 0)
(3.4717e-08 -4.59075e-06 0)
(3.45679e-08 -4.59856e-06 0)
(3.44171e-08 -4.60643e-06 0)
(3.42647e-08 -4.61434e-06 0)
(3.41107e-08 -4.6223e-06 0)
(3.39551e-08 -4.63032e-06 0)
(3.37978e-08 -4.63838e-06 0)
(3.36388e-08 -4.6465e-06 0)
(3.34782e-08 -4.65466e-06 0)
(3.33159e-08 -4.66287e-06 0)
(3.31519e-08 -4.67113e-06 0)
(3.29862e-08 -4.67944e-06 0)
(3.28187e-08 -4.68779e-06 0)
(3.26495e-08 -4.6962e-06 0)
(3.24786e-08 -4.70465e-06 0)
(3.23059e-08 -4.71315e-06 0)
(3.21315e-08 -4.72169e-06 0)
(3.19552e-08 -4.73028e-06 0)
(3.17772e-08 -4.73892e-06 0)
(3.15974e-08 -4.7476e-06 0)
(3.14158e-08 -4.75632e-06 0)
(3.12323e-08 -4.76509e-06 0)
(3.1047e-08 -4.7739e-06 0)
(3.08599e-08 -4.78276e-06 0)
(3.06709e-08 -4.79165e-06 0)
(3.04801e-08 -4.80059e-06 0)
(3.02873e-08 -4.80956e-06 0)
(3.00927e-08 -4.81858e-06 0)
(2.98963e-08 -4.82763e-06 0)
(2.96979e-08 -4.83673e-06 0)
(2.94976e-08 -4.84586e-06 0)
(2.92955e-08 -4.85503e-06 0)
(2.90914e-08 -4.86423e-06 0)
(2.88853e-08 -4.87347e-06 0)
(2.86774e-08 -4.88274e-06 0)
(2.84675e-08 -4.89204e-06 0)
(2.82557e-08 -4.90137e-06 0)
(2.8042e-08 -4.91074e-06 0)
(2.78263e-08 -4.92014e-06 0)
(2.76087e-08 -4.92956e-06 0)
(2.73891e-08 -4.93901e-06 0)
(2.71675e-08 -4.94849e-06 0)
(2.69441e-08 -4.95799e-06 0)
(2.67186e-08 -4.96751e-06 0)
(2.64912e-08 -4.97706e-06 0)
(2.62619e-08 -4.98663e-06 0)
(2.60306e-08 -4.99621e-06 0)
(2.57973e-08 -5.00582e-06 0)
(2.55621e-08 -5.01544e-06 0)
(2.5325e-08 -5.02508e-06 0)
(2.50859e-08 -5.03473e-06 0)
(2.48449e-08 -5.04439e-06 0)
(2.4602e-08 -5.05406e-06 0)
(2.43572e-08 -5.06375e-06 0)
(2.41104e-08 -5.07343e-06 0)
(2.38618e-08 -5.08313e-06 0)
(2.36112e-08 -5.09282e-06 0)
(2.33588e-08 -5.10252e-06 0)
(2.31045e-08 -5.11221e-06 0)
(2.28483e-08 -5.12191e-06 0)
(2.25903e-08 -5.1316e-06 0)
(2.23305e-08 -5.14128e-06 0)
(2.20688e-08 -5.15095e-06 0)
(2.18054e-08 -5.16062e-06 0)
(2.15402e-08 -5.17027e-06 0)
(2.12733e-08 -5.17991e-06 0)
(2.10046e-08 -5.18952e-06 0)
(2.07342e-08 -5.19912e-06 0)
(2.04621e-08 -5.2087e-06 0)
(2.01883e-08 -5.21825e-06 0)
(1.99129e-08 -5.22778e-06 0)
(1.96359e-08 -5.23728e-06 0)
(1.93574e-08 -5.24674e-06 0)
(1.90773e-08 -5.25617e-06 0)
(1.87956e-08 -5.26556e-06 0)
(1.85125e-08 -5.27492e-06 0)
(1.82279e-08 -5.28422e-06 0)
(1.7942e-08 -5.29349e-06 0)
(1.76546e-08 -5.30271e-06 0)
(1.73659e-08 -5.31188e-06 0)
(1.70759e-08 -5.32098e-06 0)
(1.67847e-08 -5.33004e-06 0)
(1.64923e-08 -5.33904e-06 0)
(1.61987e-08 -5.34797e-06 0)
(1.5904e-08 -5.35684e-06 0)
(1.56082e-08 -5.36564e-06 0)
(1.53114e-08 -5.37436e-06 0)
(1.50137e-08 -5.38302e-06 0)
(1.47151e-08 -5.39159e-06 0)
(1.44156e-08 -5.40008e-06 0)
(1.41153e-08 -5.40849e-06 0)
(1.38143e-08 -5.41681e-06 0)
(1.35126e-08 -5.42503e-06 0)
(1.32104e-08 -5.43317e-06 0)
(1.29075e-08 -5.4412e-06 0)
(1.26042e-08 -5.44914e-06 0)
(1.23005e-08 -5.45696e-06 0)
(1.19965e-08 -5.46468e-06 0)
(1.16922e-08 -5.47228e-06 0)
(1.13877e-08 -5.47978e-06 0)
(1.1083e-08 -5.48715e-06 0)
(1.07784e-08 -5.4944e-06 0)
(1.04737e-08 -5.50152e-06 0)
(1.01692e-08 -5.50852e-06 0)
(9.86484e-09 -5.51537e-06 0)
(9.56078e-09 -5.5221e-06 0)
(9.25707e-09 -5.52868e-06 0)
(8.95382e-09 -5.53513e-06 0)
(8.65108e-09 -5.54142e-06 0)
(8.34897e-09 -5.54756e-06 0)
(8.04756e-09 -5.55354e-06 0)
(7.74695e-09 -5.55938e-06 0)
(7.44722e-09 -5.56504e-06 0)
(7.14848e-09 -5.57055e-06 0)
(6.8508e-09 -5.57588e-06 0)
(6.5543e-09 -5.58105e-06 0)
(6.25905e-09 -5.58603e-06 0)
(5.96517e-09 -5.59084e-06 0)
(5.67274e-09 -5.59546e-06 0)
(5.38187e-09 -5.59991e-06 0)
(5.09264e-09 -5.60415e-06 0)
(4.80518e-09 -5.60822e-06 0)
(4.51956e-09 -5.61208e-06 0)
(4.2359e-09 -5.61575e-06 0)
(3.95428e-09 -5.61921e-06 0)
(3.67483e-09 -5.62248e-06 0)
(3.39763e-09 -5.62553e-06 0)
(3.12279e-09 -5.62838e-06 0)
(2.8504e-09 -5.63101e-06 0)
(2.58058e-09 -5.63343e-06 0)
(2.31341e-09 -5.63562e-06 0)
(2.04901e-09 -5.63761e-06 0)
(1.78747e-09 -5.63935e-06 0)
(1.52889e-09 -5.64089e-06 0)
(1.27338e-09 -5.64219e-06 0)
(1.02102e-09 -5.64327e-06 0)
(7.71918e-10 -5.6441e-06 0)
(5.26169e-10 -5.64472e-06 0)
(2.83863e-10 -5.64508e-06 0)
(4.50958e-11 -5.64522e-06 0)
(-1.90044e-10 -5.64511e-06 0)
(-4.21467e-10 -5.64477e-06 0)
(-6.49085e-10 -5.64418e-06 0)
(-8.72818e-10 -5.64336e-06 0)
(-1.09258e-09 -5.64228e-06 0)
(-1.30829e-09 -5.64097e-06 0)
(-1.51986e-09 -5.6394e-06 0)
(-1.72724e-09 -5.6376e-06 0)
(-1.93034e-09 -5.63554e-06 0)
(-2.12909e-09 -5.63325e-06 0)
(-2.32342e-09 -5.63069e-06 0)
(-2.51328e-09 -5.62791e-06 0)
(-2.69857e-09 -5.62485e-06 0)
(-2.87928e-09 -5.62158e-06 0)
(-3.0553e-09 -5.61803e-06 0)
(-3.22662e-09 -5.61427e-06 0)
(-3.39314e-09 -5.61023e-06 0)
(-3.55485e-09 -5.60598e-06 0)
(-3.71165e-09 -5.60146e-06 0)
(-3.86354e-09 -5.59672e-06 0)
(-4.01038e-09 -5.59172e-06 0)
(-4.1524e-09 -5.58651e-06 0)
(-4.28866e-09 -5.581e-06 0)
(-4.42369e-09 -5.5753e-06 0)
(-4.56238e-09 -5.56876e-06 0)
(-4.7027e-09 -5.56126e-06 0)
(-4.83889e-09 -5.55345e-06 0)
(-4.96668e-09 -5.5455e-06 0)
(-5.08598e-09 -5.53731e-06 0)
(-5.19701e-09 -5.52898e-06 0)
(-5.29987e-09 -5.52043e-06 0)
(-5.39488e-09 -5.51177e-06 0)
(-5.48219e-09 -5.50291e-06 0)
(-5.56216e-09 -5.49397e-06 0)
(-5.63495e-09 -5.48486e-06 0)
(-5.7009e-09 -5.47568e-06 0)
(-5.76013e-09 -5.46635e-06 0)
(-5.81299e-09 -5.45698e-06 0)
(-5.85959e-09 -5.44749e-06 0)
(-5.90026e-09 -5.43797e-06 0)
(-5.93509e-09 -5.42834e-06 0)
(-5.96439e-09 -5.41871e-06 0)
(-5.98827e-09 -5.40899e-06 0)
(-6.00699e-09 -5.39928e-06 0)
(-6.02065e-09 -5.3895e-06 0)
(-6.02953e-09 -5.37975e-06 0)
(-6.03367e-09 -5.36994e-06 0)
(-6.03336e-09 -5.36018e-06 0)
(-6.02864e-09 -5.35037e-06 0)
(-6.01976e-09 -5.34062e-06 0)
(-6.00676e-09 -5.33084e-06 0)
(-5.98988e-09 -5.32114e-06 0)
(-5.96915e-09 -5.31142e-06 0)
(-5.9448e-09 -5.30178e-06 0)
(-5.91685e-09 -5.29214e-06 0)
(-5.88551e-09 -5.28259e-06 0)
(-5.8508e-09 -5.27305e-06 0)
(-5.81292e-09 -5.26361e-06 0)
(-5.77188e-09 -5.2542e-06 0)
(-5.72787e-09 -5.24489e-06 0)
(-5.68089e-09 -5.23562e-06 0)
(-5.63113e-09 -5.22647e-06 0)
(-5.57857e-09 -5.21736e-06 0)
(-5.52341e-09 -5.20838e-06 0)
(-5.46561e-09 -5.19945e-06 0)
(-5.40536e-09 -5.19065e-06 0)
(-5.34264e-09 -5.18192e-06 0)
(-5.2776e-09 -5.17333e-06 0)
(-5.21023e-09 -5.1648e-06 0)
(-5.14068e-09 -5.15643e-06 0)
(-5.06893e-09 -5.14813e-06 0)
(-4.99512e-09 -5.13999e-06 0)
(-4.91922e-09 -5.13193e-06 0)
(-4.84138e-09 -5.12404e-06 0)
(-4.76157e-09 -5.11623e-06 0)
(-4.67991e-09 -5.1086e-06 0)
(-4.5964e-09 -5.10105e-06 0)
(-4.51113e-09 -5.09369e-06 0)
(-4.4241e-09 -5.08642e-06 0)
(-4.33541e-09 -5.07934e-06 0)
(-4.24506e-09 -5.07236e-06 0)
(-4.15313e-09 -5.06557e-06 0)
(-4.05962e-09 -5.05889e-06 0)
(-3.96462e-09 -5.0524e-06 0)
(-3.86813e-09 -5.04603e-06 0)
(-3.77023e-09 -5.03985e-06 0)
(-3.67092e-09 -5.0338e-06 0)
(-3.57028e-09 -5.02794e-06 0)
(-3.4683e-09 -5.02222e-06 0)
(-3.36507e-09 -5.01669e-06 0)
(-3.26059e-09 -5.0113e-06 0)
(-3.15494e-09 -5.00611e-06 0)
(-3.04811e-09 -5.00106e-06 0)
(-2.94018e-09 -4.99621e-06 0)
(-2.83115e-09 -4.99151e-06 0)
(-2.7211e-09 -4.98702e-06 0)
(-2.61004e-09 -4.98268e-06 0)
(-2.49802e-09 -4.97854e-06 0)
(-2.38506e-09 -4.97457e-06 0)
(-2.27122e-09 -4.9708e-06 0)
(-2.15653e-09 -4.96719e-06 0)
(-2.04103e-09 -4.96379e-06 0)
(-1.92474e-09 -4.96056e-06 0)
(-1.80772e-09 -4.95753e-06 0)
(-1.69e-09 -4.95468e-06 0)
(-1.57162e-09 -4.95203e-06 0)
(-1.45261e-09 -4.94956e-06 0)
(-1.33302e-09 -4.9473e-06 0)
(-1.2129e-09 -4.94521e-06 0)
(-1.09231e-09 -4.94337e-06 0)
(-9.71312e-10 -4.94158e-06 0)
(-8.50005e-10 -4.94044e-06 0)
(-7.28425e-10 -4.938e-06 0)
(-6.06888e-10 -4.94065e-06 0)
(-4.84841e-10 -4.92692e-06 0)
(-3.64183e-10 -4.96632e-06 0)
(-2.39473e-10 -4.81716e-06 0)
(-1.25185e-10 -5.21251e-06 0)
(-3.81611e-11 -4.55251e-06 0)
)
;
    }
    bottomWall
    {
        type            calculated;
        value           nonuniform List<vector> 
449
(
(-52.7057 -0.955606 0)
(-34.7396 -0.00279776 0)
(-34.3533 -0.000254162 0)
(-32.9906 -0.00036354 0)
(-31.8644 -0.000315365 0)
(-30.8277 -0.000284302 0)
(-29.9105 -0.000249284 0)
(-29.1108 -0.000217354 0)
(-28.4102 -0.000190797 0)
(-27.7909 -0.000169032 0)
(-27.2383 -0.000151016 0)
(-26.7415 -0.000135914 0)
(-26.2917 -0.00012326 0)
(-25.8811 -0.000112576 0)
(-25.504 -0.000103359 0)
(-25.1563 -9.53522e-05 0)
(-24.8339 -8.83584e-05 0)
(-24.5338 -8.22212e-05 0)
(-24.2533 -7.68151e-05 0)
(-23.9902 -7.19953e-05 0)
(-23.7426 -6.76723e-05 0)
(-23.5091 -6.3784e-05 0)
(-23.2881 -6.02756e-05 0)
(-23.0785 -5.70909e-05 0)
(-22.8793 -5.41913e-05 0)
(-22.6896 -5.15308e-05 0)
(-22.5087 -4.90921e-05 0)
(-22.3357 -4.68502e-05 0)
(-22.1701 -4.47825e-05 0)
(-22.0114 -4.2865e-05 0)
(-21.8589 -4.10881e-05 0)
(-21.7124 -3.94347e-05 0)
(-21.5713 -3.78968e-05 0)
(-21.4353 -3.64577e-05 0)
(-21.3041 -3.51126e-05 0)
(-21.1774 -3.38504e-05 0)
(-21.0549 -3.26683e-05 0)
(-20.9363 -3.15592e-05 0)
(-20.8215 -3.05148e-05 0)
(-20.7101 -2.95292e-05 0)
(-20.602 -2.85989e-05 0)
(-20.4971 -2.77194e-05 0)
(-20.3951 -2.68863e-05 0)
(-20.2959 -2.60917e-05 0)
(-20.1993 -2.53329e-05 0)
(-20.1054 -2.46089e-05 0)
(-20.0139 -2.39164e-05 0)
(-19.9247 -2.3256e-05 0)
(-19.8378 -2.26195e-05 0)
(-19.753 -2.20153e-05 0)
(-19.6703 -2.14364e-05 0)
(-19.5896 -2.08819e-05 0)
(-19.5107 -2.03571e-05 0)
(-19.4336 -1.98491e-05 0)
(-19.3583 -1.93681e-05 0)
(-19.2845 -1.8905e-05 0)
(-19.2124 -1.84636e-05 0)
(-19.1418 -1.80392e-05 0)
(-19.0726 -1.76327e-05 0)
(-19.0048 -1.72412e-05 0)
(-18.9383 -1.68658e-05 0)
(-18.8731 -1.65039e-05 0)
(-18.8092 -1.61559e-05 0)
(-18.7464 -1.58206e-05 0)
(-18.6848 -1.54969e-05 0)
(-18.6243 -1.51858e-05 0)
(-18.5649 -1.48832e-05 0)
(-18.5064 -1.45938e-05 0)
(-18.449 -1.43101e-05 0)
(-18.3926 -1.40398e-05 0)
(-18.3371 -1.3774e-05 0)
(-18.2825 -1.35197e-05 0)
(-18.2288 -1.32715e-05 0)
(-18.176 -1.30302e-05 0)
(-18.1239 -1.2799e-05 0)
(-18.0727 -1.25704e-05 0)
(-18.0223 -1.23525e-05 0)
(-17.9726 -1.21377e-05 0)
(-17.9237 -1.193e-05 0)
(-17.8755 -1.17295e-05 0)
(-17.8279 -1.15314e-05 0)
(-17.7811 -1.13422e-05 0)
(-17.7349 -1.11558e-05 0)
(-17.6894 -1.09744e-05 0)
(-17.6445 -1.07996e-05 0)
(-17.6002 -1.06269e-05 0)
(-17.5565 -1.04603e-05 0)
(-17.5134 -1.02981e-05 0)
(-17.4709 -1.01384e-05 0)
(-17.4289 -9.98453e-06 0)
(-17.3874 -9.83364e-06 0)
(-17.3465 -9.6859e-06 0)
(-17.3061 -9.5432e-06 0)
(-17.2662 -9.40286e-06 0)
(-17.2268 -9.26576e-06 0)
(-17.1879 -9.13296e-06 0)
(-17.1494 -9.00231e-06 0)
(-17.1114 -8.87474e-06 0)
(-17.0738 -8.75088e-06 0)
(-17.0367 -8.62914e-06 0)
(-17 -8.51011e-06 0)
(-16.9637 -8.39445e-06 0)
(-16.9278 -8.2807e-06 0)
(-16.8924 -8.16948e-06 0)
(-16.8573 -8.06105e-06 0)
(-16.8226 -7.95477e-06 0)
(-16.7883 -7.85046e-06 0)
(-16.7543 -7.74884e-06 0)
(-16.7207 -7.64917e-06 0)
(-16.6875 -7.55139e-06 0)
(-16.6546 -7.45582e-06 0)
(-16.622 -7.36232e-06 0)
(-16.5898 -7.2704e-06 0)
(-16.5579 -7.18048e-06 0)
(-16.5263 -7.09243e-06 0)
(-16.495 -7.00596e-06 0)
(-16.464 -6.92114e-06 0)
(-16.4334 -6.8381e-06 0)
(-16.403 -6.75664e-06 0)
(-16.3729 -6.67666e-06 0)
(-16.3431 -6.59824e-06 0)
(-16.3136 -6.52136e-06 0)
(-16.2844 -6.4458e-06 0)
(-16.2554 -6.37164e-06 0)
(-16.2267 -6.2989e-06 0)
(-16.1982 -6.22746e-06 0)
(-16.1701 -6.15724e-06 0)
(-16.1421 -6.08826e-06 0)
(-16.1144 -6.02058e-06 0)
(-16.087 -5.95399e-06 0)
(-16.0598 -5.88865e-06 0)
(-16.0328 -5.82434e-06 0)
(-16.006 -5.76132e-06 0)
(-15.9795 -5.69922e-06 0)
(-15.9532 -5.6383e-06 0)
(-15.9271 -5.57823e-06 0)
(-15.9013 -5.51934e-06 0)
(-15.8756 -5.46125e-06 0)
(-15.8502 -5.40426e-06 0)
(-15.8249 -5.34798e-06 0)
(-15.7999 -5.29289e-06 0)
(-15.7751 -5.23844e-06 0)
(-15.7504 -5.18511e-06 0)
(-15.726 -5.13234e-06 0)
(-15.7017 -5.08075e-06 0)
(-15.6777 -5.02966e-06 0)
(-15.6538 -4.97965e-06 0)
(-15.6301 -4.93012e-06 0)
(-15.6066 -4.88166e-06 0)
(-15.5832 -4.83369e-06 0)
(-15.56 -4.78658e-06 0)
(-15.537 -4.74004e-06 0)
(-15.5142 -4.69431e-06 0)
(-15.4915 -4.64922e-06 0)
(-15.469 -4.60477e-06 0)
(-15.4467 -4.561e-06 0)
(-15.4245 -4.51782e-06 0)
(-15.4025 -4.47539e-06 0)
(-15.3806 -4.43345e-06 0)
(-15.3589 -4.3922e-06 0)
(-15.3374 -4.35144e-06 0)
(-15.3159 -4.31145e-06 0)
(-15.2947 -4.27182e-06 0)
(-15.2735 -4.23289e-06 0)
(-15.2526 -4.19439e-06 0)
(-15.2317 -4.15655e-06 0)
(-15.211 -4.11914e-06 0)
(-15.1905 -4.08223e-06 0)
(-15.17 -4.04591e-06 0)
(-15.1498 -4.0099e-06 0)
(-15.1296 -3.97472e-06 0)
(-15.1096 -3.93965e-06 0)
(-15.0897 -3.90355e-06 0)
(-15.071 -3.87418e-06 0)
(-15.0534 -3.84726e-06 0)
(-15.0358 -3.81594e-06 0)
(-15.0182 -3.78515e-06 0)
(-15.0004 -3.75498e-06 0)
(-14.9827 -3.72477e-06 0)
(-14.9649 -3.69495e-06 0)
(-14.947 -3.66518e-06 0)
(-14.9291 -3.63563e-06 0)
(-14.9112 -3.60613e-06 0)
(-14.8932 -3.57684e-06 0)
(-14.8751 -3.54766e-06 0)
(-14.857 -3.51864e-06 0)
(-14.8389 -3.48971e-06 0)
(-14.8207 -3.46087e-06 0)
(-14.8024 -3.43219e-06 0)
(-14.7842 -3.40359e-06 0)
(-14.7658 -3.37527e-06 0)
(-14.7475 -3.34693e-06 0)
(-14.7291 -3.31877e-06 0)
(-14.7106 -3.29063e-06 0)
(-14.6921 -3.26279e-06 0)
(-14.6736 -3.23492e-06 0)
(-14.655 -3.20725e-06 0)
(-14.6364 -3.17962e-06 0)
(-14.6177 -3.15224e-06 0)
(-14.599 -3.12495e-06 0)
(-14.5802 -3.09784e-06 0)
(-14.5615 -3.07077e-06 0)
(-14.5426 -3.04386e-06 0)
(-14.5238 -3.01708e-06 0)
(-14.5049 -2.99049e-06 0)
(-14.486 -2.96394e-06 0)
(-14.467 -2.93759e-06 0)
(-14.448 -2.91129e-06 0)
(-14.429 -2.88527e-06 0)
(-14.4099 -2.8592e-06 0)
(-14.3908 -2.83342e-06 0)
(-14.3717 -2.80763e-06 0)
(-14.3525 -2.78218e-06 0)
(-14.3333 -2.7567e-06 0)
(-14.3141 -2.73152e-06 0)
(-14.2948 -2.70632e-06 0)
(-14.2755 -2.68142e-06 0)
(-14.2562 -2.65656e-06 0)
(-14.2369 -2.63186e-06 0)
(-14.2175 -2.60729e-06 0)
(-14.1981 -2.58284e-06 0)
(-14.1786 -2.55861e-06 0)
(-14.1592 -2.53446e-06 0)
(-14.1397 -2.51043e-06 0)
(-14.1202 -2.48656e-06 0)
(-14.1007 -2.46286e-06 0)
(-14.0811 -2.43928e-06 0)
(-14.0615 -2.41593e-06 0)
(-14.0419 -2.39252e-06 0)
(-14.0223 -2.36954e-06 0)
(-14.0027 -2.3465e-06 0)
(-13.983 -2.32375e-06 0)
(-13.9633 -2.30095e-06 0)
(-13.9436 -2.27854e-06 0)
(-13.9239 -2.25607e-06 0)
(-13.9042 -2.2339e-06 0)
(-13.8844 -2.21169e-06 0)
(-13.8646 -2.18985e-06 0)
(-13.8448 -2.16792e-06 0)
(-13.825 -2.1464e-06 0)
(-13.8052 -2.12477e-06 0)
(-13.7854 -2.10357e-06 0)
(-13.7655 -2.08228e-06 0)
(-13.7457 -2.06143e-06 0)
(-13.7258 -2.04035e-06 0)
(-13.7059 -2.01976e-06 0)
(-13.686 -1.99903e-06 0)
(-13.6661 -1.97871e-06 0)
(-13.6462 -1.95822e-06 0)
(-13.6263 -1.93823e-06 0)
(-13.6063 -1.9181e-06 0)
(-13.5864 -1.89841e-06 0)
(-13.5664 -1.87853e-06 0)
(-13.5465 -1.85914e-06 0)
(-13.5265 -1.83961e-06 0)
(-13.5065 -1.82047e-06 0)
(-13.4865 -1.80125e-06 0)
(-13.4666 -1.78239e-06 0)
(-13.4466 -1.76352e-06 0)
(-13.4266 -1.74489e-06 0)
(-13.4066 -1.7263e-06 0)
(-13.3866 -1.708e-06 0)
(-13.3666 -1.68975e-06 0)
(-13.3466 -1.67167e-06 0)
(-13.3266 -1.65368e-06 0)
(-13.3066 -1.63595e-06 0)
(-13.2866 -1.61827e-06 0)
(-13.2666 -1.60077e-06 0)
(-13.2466 -1.58341e-06 0)
(-13.2266 -1.56626e-06 0)
(-13.2066 -1.54917e-06 0)
(-13.1866 -1.53221e-06 0)
(-13.1666 -1.51542e-06 0)
(-13.1467 -1.49882e-06 0)
(-13.1267 -1.48239e-06 0)
(-13.1067 -1.46594e-06 0)
(-13.0867 -1.4498e-06 0)
(-13.0668 -1.43366e-06 0)
(-13.0468 -1.41779e-06 0)
(-13.0269 -1.4019e-06 0)
(-13.0069 -1.38636e-06 0)
(-12.987 -1.3708e-06 0)
(-12.9671 -1.35549e-06 0)
(-12.9472 -1.34016e-06 0)
(-12.9273 -1.32517e-06 0)
(-12.9074 -1.3101e-06 0)
(-12.8875 -1.29536e-06 0)
(-12.8677 -1.28053e-06 0)
(-12.8478 -1.26611e-06 0)
(-12.828 -1.25154e-06 0)
(-12.8082 -1.23741e-06 0)
(-12.7884 -1.22313e-06 0)
(-12.7685 -1.20921e-06 0)
(-12.7488 -1.19518e-06 0)
(-12.729 -1.18158e-06 0)
(-12.7093 -1.16777e-06 0)
(-12.6895 -1.15443e-06 0)
(-12.6698 -1.14089e-06 0)
(-12.6501 -1.12775e-06 0)
(-12.6304 -1.11455e-06 0)
(-12.6107 -1.10167e-06 0)
(-12.5911 -1.08868e-06 0)
(-12.5715 -1.07609e-06 0)
(-12.5518 -1.06334e-06 0)
(-12.5323 -1.05093e-06 0)
(-12.5127 -1.03837e-06 0)
(-12.4931 -1.02628e-06 0)
(-12.4736 -1.01408e-06 0)
(-12.4541 -1.00217e-06 0)
(-12.4346 -9.90181e-07 0)
(-12.4152 -9.78484e-07 0)
(-12.3957 -9.66739e-07 0)
(-12.3763 -9.55283e-07 0)
(-12.3569 -9.43787e-07 0)
(-12.3375 -9.32505e-07 0)
(-12.3182 -9.21258e-07 0)
(-12.2989 -9.10222e-07 0)
(-12.2795 -8.99229e-07 0)
(-12.2603 -8.8841e-07 0)
(-12.241 -8.7763e-07 0)
(-12.2218 -8.67052e-07 0)
(-12.2026 -8.56539e-07 0)
(-12.1835 -8.46138e-07 0)
(-12.1643 -8.35813e-07 0)
(-12.1452 -8.25634e-07 0)
(-12.1261 -8.15567e-07 0)
(-12.1071 -8.05574e-07 0)
(-12.088 -7.95711e-07 0)
(-12.0691 -7.85912e-07 0)
(-12.0501 -7.7628e-07 0)
(-12.0312 -7.6669e-07 0)
(-12.0122 -7.57243e-07 0)
(-11.9934 -7.47829e-07 0)
(-11.9745 -7.38645e-07 0)
(-11.9557 -7.29427e-07 0)
(-11.9369 -7.20424e-07 0)
(-11.9182 -7.11382e-07 0)
(-11.8995 -7.02626e-07 0)
(-11.8808 -6.93795e-07 0)
(-11.8621 -6.85213e-07 0)
(-11.8435 -6.76584e-07 0)
(-11.8249 -6.68187e-07 0)
(-11.8064 -6.59726e-07 0)
(-11.7878 -6.5151e-07 0)
(-11.7694 -6.43249e-07 0)
(-11.7509 -6.35195e-07 0)
(-11.7325 -6.27137e-07 0)
(-11.7141 -6.19219e-07 0)
(-11.6958 -6.11383e-07 0)
(-11.6775 -6.03602e-07 0)
(-11.6592 -5.95957e-07 0)
(-11.6409 -5.88263e-07 0)
(-11.6228 -5.80902e-07 0)
(-11.6046 -5.73289e-07 0)
(-11.5845 -5.6433e-07 0)
(-11.5625 -5.55174e-07 0)
(-11.541 -5.47e-07 0)
(-11.5197 -5.39041e-07 0)
(-11.4988 -5.31082e-07 0)
(-11.4781 -5.23353e-07 0)
(-11.4578 -5.15807e-07 0)
(-11.4378 -5.08394e-07 0)
(-11.418 -5.012e-07 0)
(-11.3985 -4.94175e-07 0)
(-11.3794 -4.87283e-07 0)
(-11.3604 -4.80556e-07 0)
(-11.3418 -4.74012e-07 0)
(-11.3233 -4.67598e-07 0)
(-11.3052 -4.61321e-07 0)
(-11.2872 -4.55248e-07 0)
(-11.2695 -4.49237e-07 0)
(-11.252 -4.43411e-07 0)
(-11.2348 -4.37657e-07 0)
(-11.2178 -4.32102e-07 0)
(-11.201 -4.26603e-07 0)
(-11.1844 -4.21299e-07 0)
(-11.168 -4.16027e-07 0)
(-11.1518 -4.10925e-07 0)
(-11.1359 -4.05884e-07 0)
(-11.12 -4.00994e-07 0)
(-11.1045 -3.96216e-07 0)
(-11.089 -3.91486e-07 0)
(-11.0738 -3.86875e-07 0)
(-11.0588 -3.82377e-07 0)
(-11.0439 -3.77942e-07 0)
(-11.0292 -3.73588e-07 0)
(-11.0147 -3.69351e-07 0)
(-11.0003 -3.65202e-07 0)
(-10.9861 -3.61148e-07 0)
(-10.972 -3.57152e-07 0)
(-10.9581 -3.53231e-07 0)
(-10.9444 -3.49396e-07 0)
(-10.9308 -3.45619e-07 0)
(-10.9173 -3.41924e-07 0)
(-10.904 -3.38281e-07 0)
(-10.8908 -3.3471e-07 0)
(-10.8778 -3.31221e-07 0)
(-10.8649 -3.27779e-07 0)
(-10.8522 -3.24392e-07 0)
(-10.8395 -3.21099e-07 0)
(-10.827 -3.17832e-07 0)
(-10.8146 -3.14657e-07 0)
(-10.8024 -3.11501e-07 0)
(-10.7903 -3.08437e-07 0)
(-10.7783 -3.054e-07 0)
(-10.7664 -3.02475e-07 0)
(-10.7546 -2.99538e-07 0)
(-10.7429 -2.96671e-07 0)
(-10.7314 -2.93871e-07 0)
(-10.7199 -2.91098e-07 0)
(-10.7086 -2.88378e-07 0)
(-10.6973 -2.85693e-07 0)
(-10.6862 -2.83067e-07 0)
(-10.6752 -2.80461e-07 0)
(-10.6643 -2.77963e-07 0)
(-10.6534 -2.75428e-07 0)
(-10.6427 -2.73026e-07 0)
(-10.6321 -2.70536e-07 0)
(-10.6216 -2.68262e-07 0)
(-10.6111 -2.65823e-07 0)
(-10.6008 -2.63651e-07 0)
(-10.5904 -2.61229e-07 0)
(-10.5803 -2.59222e-07 0)
(-10.5702 -2.56789e-07 0)
(-10.5602 -2.54911e-07 0)
(-10.5502 -2.52518e-07 0)
(-10.5405 -2.50811e-07 0)
(-10.5306 -2.48422e-07 0)
(-10.521 -2.46895e-07 0)
(-10.5113 -2.44483e-07 0)
(-10.5019 -2.43148e-07 0)
(-10.4922 -2.40743e-07 0)
(-10.483 -2.39539e-07 0)
(-10.4735 -2.37181e-07 0)
(-10.4645 -2.36053e-07 0)
(-10.455 -2.33887e-07 0)
(-10.4462 -2.32692e-07 0)
(-10.4368 -2.31022e-07 0)
(-10.4281 -2.29277e-07 0)
(-10.4189 -2.29031e-07 0)
(-10.4102 -2.25149e-07 0)
(-10.4012 -2.29308e-07 0)
(-10.3922 -2.18047e-07 0)
(-10.3842 -2.35718e-07 0)
(-10.3737 -2.01406e-07 0)
(-10.3685 -2.54789e-07 0)
(-10.3536 -1.684e-07 0)
(-10.3556 -2.28912e-07 0)
(-10.3353 -2.6667e-07 0)
)
;
    }
    symmetry
    {
        type            symmetryPlane;
    }
    frontAndBack
    {
        type            empty;
    }
}


// ************************************************************************* //
