/*--------------------------------*- C++ -*----------------------------------*\
| =========                 |                                                 |
| \\      /  F ield         | OpenFOAM: The Open Source CFD Toolbox           |
|  \\    /   O peration     | Version:  v2012                                 |
|   \\  /    A nd           | Website:  www.openfoam.com                      |
|    \\/     M anipulation  |                                                 |
\*---------------------------------------------------------------------------*/
FoamFile
{
    version     2.0;
    format      ascii;
    class       volScalarField;
    location    "46";
    object      yPlus;
}
// * * * * * * * * * * * * * * * * * * * * * * * * * * * * * * * * * * * * * //

dimensions      [0 0 0 0 0 0 0];


internalField   uniform 0;

boundaryField
{
    inlet
    {
        type            calculated;
        value           uniform 0;
    }
    outlet
    {
        type            calculated;
        value           uniform 0;
    }
    topWall
    {
        type            calculated;
        value           nonuniform List<scalar> 
545
(
0.151893
0.26193
0.336029
0.39499
0.444902
0.488571
0.527574
0.562902
0.595232
0.625049
0.652716
0.678514
0.702668
0.725359
0.746736
0.766926
0.786034
0.804154
0.821363
0.837733
0.853325
0.868193
0.882387
0.895949
0.908921
0.921337
0.933231
0.944633
0.95557
0.966068
0.97615
0.985837
0.99515
1.00411
1.01273
1.02102
1.02901
1.03671
1.04413
1.05128
1.05818
1.06483
1.07125
1.07745
1.08343
1.08921
1.09479
1.10018
1.10539
1.11043
1.1153
1.12001
1.12457
1.12898
1.13324
1.13737
1.14136
1.14523
1.14898
1.1526
1.15611
1.15952
1.16281
1.166
1.1691
1.1721
1.17501
1.17783
1.18056
1.18321
1.18578
1.18827
1.19066
1.19296
1.19525
1.19753
1.19978
1.20201
1.20423
1.20643
1.20861
1.21078
1.21292
1.21505
1.21717
1.21926
1.22134
1.22341
1.22545
1.22748
1.2295
1.2315
1.23348
1.23545
1.23741
1.23934
1.24109
1.24265
1.24421
1.24577
1.24733
1.24889
1.25045
1.25201
1.25357
1.25513
1.25669
1.25825
1.2598
1.26136
1.26292
1.26447
1.26603
1.26758
1.26914
1.27069
1.27224
1.27379
1.27535
1.2769
1.27845
1.28
1.28155
1.2831
1.28465
1.28619
1.28774
1.28929
1.29083
1.29238
1.29392
1.29547
1.29701
1.29855
1.3001
1.30164
1.30318
1.30472
1.30626
1.30779
1.30933
1.31087
1.3124
1.31394
1.31547
1.317
1.31854
1.32007
1.3216
1.32313
1.32465
1.32618
1.32771
1.32923
1.33076
1.33228
1.3338
1.33533
1.33685
1.33837
1.33988
1.3414
1.34292
1.34443
1.34595
1.34746
1.34897
1.35048
1.35199
1.3535
1.35501
1.35651
1.35802
1.35952
1.36102
1.36252
1.36402
1.36552
1.36701
1.36851
1.37
1.3715
1.37299
1.37448
1.37597
1.37745
1.37894
1.38042
1.3819
1.38339
1.38487
1.38634
1.38782
1.38929
1.39077
1.39224
1.39371
1.39518
1.39665
1.39811
1.39957
1.40104
1.4025
1.40395
1.40541
1.40687
1.40832
1.40977
1.41122
1.41267
1.41411
1.41556
1.417
1.41844
1.41988
1.42131
1.42275
1.42418
1.42561
1.42704
1.42847
1.42989
1.43131
1.43273
1.43415
1.43557
1.43698
1.43839
1.4398
1.44121
1.44261
1.44402
1.44542
1.44682
1.44821
1.44961
1.451
1.45239
1.45377
1.45516
1.45654
1.45792
1.4593
1.46067
1.46204
1.46341
1.46478
1.46615
1.46751
1.46887
1.47023
1.47158
1.47293
1.47428
1.47563
1.47697
1.47831
1.47965
1.48099
1.48232
1.48365
1.48498
1.4863
1.48762
1.48894
1.49026
1.49157
1.49288
1.49419
1.49542
1.49658
1.49775
1.49893
1.50011
1.5013
1.5025
1.50371
1.50492
1.50615
1.50738
1.50861
1.50986
1.51111
1.51237
1.51364
1.51492
1.5162
1.51749
1.51879
1.52009
1.5214
1.52272
1.52405
1.52538
1.52672
1.52806
1.52942
1.53078
1.53214
1.53352
1.5349
1.53628
1.53767
1.53907
1.54048
1.54189
1.5433
1.54473
1.54616
1.54759
1.54903
1.55047
1.55192
1.55338
1.55483
1.5563
1.55777
1.55924
1.56072
1.5622
1.56369
1.56518
1.56667
1.56817
1.56966
1.57117
1.57267
1.57418
1.57569
1.57721
1.57872
1.58024
1.58176
1.58328
1.5848
1.58632
1.58785
1.58937
1.59089
1.59242
1.59394
1.59546
1.59698
1.5985
1.60002
1.60154
1.60305
1.60457
1.60608
1.60758
1.60909
1.61059
1.61208
1.61357
1.61506
1.61654
1.61802
1.61949
1.62095
1.62241
1.62386
1.6253
1.62673
1.62816
1.62958
1.63099
1.63238
1.63377
1.63515
1.63652
1.63788
1.63922
1.64056
1.64188
1.64319
1.64448
1.64576
1.64703
1.64828
1.64952
1.65074
1.65194
1.65313
1.6543
1.65545
1.65658
1.6577
1.65879
1.65987
1.66093
1.66196
1.66297
1.66397
1.66494
1.66588
1.66681
1.66771
1.66858
1.66944
1.67026
1.67106
1.67184
1.67259
1.67331
1.674
1.67467
1.6753
1.67591
1.67649
1.67704
1.67756
1.67805
1.6785
1.67893
1.67932
1.67968
1.68001
1.68031
1.68057
1.6808
1.68099
1.68116
1.68128
1.68138
1.68143
1.68145
1.68144
1.68139
1.6813
1.68118
1.68102
1.68083
1.68059
1.68033
1.68002
1.67968
1.6793
1.67889
1.67843
1.67795
1.67742
1.67686
1.67625
1.67562
1.67495
1.67424
1.67349
1.67271
1.67189
1.67104
1.67005
1.66893
1.66776
1.66657
1.66534
1.66409
1.6628
1.66149
1.66016
1.65881
1.65744
1.65605
1.65464
1.65322
1.65178
1.65034
1.64888
1.64742
1.64594
1.64446
1.64297
1.64149
1.63999
1.6385
1.637
1.63551
1.63401
1.63252
1.63103
1.62955
1.62807
1.6266
1.62513
1.62368
1.62223
1.62079
1.61936
1.61794
1.61653
1.61514
1.61375
1.61239
1.61103
1.6097
1.60837
1.60707
1.60577
1.6045
1.60325
1.60201
1.60079
1.5996
1.59842
1.59726
1.59612
1.59501
1.59392
1.59285
1.5918
1.59078
1.58977
1.5888
1.58785
1.58692
1.58602
1.58515
1.58429
1.58347
1.58267
1.58191
1.58116
1.58045
1.57976
1.57911
1.57848
1.57788
1.57731
1.57677
1.57625
1.57577
1.57532
1.5749
1.57451
1.57415
1.57382
1.57352
1.57325
1.57301
1.57281
1.57263
1.57249
1.57238
1.5723
1.57226
1.57222
)
;
    }
    bottomWall
    {
        type            calculated;
        value           nonuniform List<scalar> 
449
(
0.00273629
0.00480033
0.00537509
0.00532786
0.00525678
0.00516076
0.00506339
0.00497227
0.00488862
0.00481219
0.00474224
0.00467812
0.0046191
0.00456447
0.00451369
0.00446638
0.00442211
0.0043806
0.00434149
0.00430457
0.00426961
0.00423646
0.00420493
0.00417489
0.00414621
0.0041188
0.00409254
0.00406735
0.00404315
0.00401988
0.00399747
0.00397586
0.00395501
0.00393485
0.00391536
0.00389648
0.00387819
0.00386045
0.00384323
0.0038265
0.00381023
0.0037944
0.00377898
0.00376397
0.00374933
0.00373507
0.00372115
0.00370757
0.00369431
0.00368138
0.00366872
0.00365636
0.00364427
0.00363244
0.00362085
0.00360951
0.00359839
0.00358749
0.00357681
0.00356632
0.00355603
0.00354592
0.00353601
0.00352625
0.00351668
0.00350726
0.003498
0.00348889
0.00347994
0.00347112
0.00346244
0.0034539
0.00344549
0.00343721
0.00342904
0.003421
0.00341307
0.00340526
0.00339756
0.00338996
0.00338247
0.00337508
0.00336779
0.0033606
0.0033535
0.0033465
0.00333958
0.00333275
0.00332601
0.00331935
0.00331277
0.00330627
0.00329984
0.0032935
0.00328723
0.00328103
0.0032749
0.00326884
0.00326284
0.00325692
0.00325106
0.00324526
0.00323952
0.00323385
0.00322823
0.00322267
0.00321717
0.00321173
0.00320634
0.003201
0.00319572
0.00319049
0.00318531
0.00318017
0.00317509
0.00317006
0.00316507
0.00316013
0.00315523
0.00315038
0.00314557
0.0031408
0.00313608
0.00313139
0.00312675
0.00312215
0.00311758
0.00311306
0.00310857
0.00310412
0.00309971
0.00309534
0.00309099
0.00308669
0.00308242
0.00307818
0.00307397
0.0030698
0.00306566
0.00306155
0.00305748
0.00305343
0.00304942
0.00304543
0.00304148
0.00303755
0.00303365
0.00302978
0.00302594
0.00302212
0.00301833
0.00301457
0.00301084
0.00300713
0.00300344
0.00299978
0.00299615
0.00299254
0.00298896
0.00298539
0.00298186
0.00297834
0.00297485
0.00297138
0.00296793
0.00296451
0.0029611
0.00295772
0.00295436
0.00295102
0.0029477
0.0029444
0.00294112
0.00293805
0.00293515
0.00293225
0.00292933
0.00292641
0.00292348
0.00292054
0.00291759
0.00291463
0.00291167
0.00290869
0.00290571
0.00290271
0.00289971
0.0028967
0.00289368
0.00289066
0.00288762
0.00288458
0.00288153
0.00287846
0.0028754
0.00287232
0.00286924
0.00286614
0.00286305
0.00285994
0.00285682
0.0028537
0.00285057
0.00284744
0.00284429
0.00284114
0.00283798
0.00283482
0.00283165
0.00282847
0.00282529
0.00282209
0.0028189
0.00281569
0.00281248
0.00280926
0.00280604
0.00280281
0.00279958
0.00279634
0.00279309
0.00278984
0.00278658
0.00278332
0.00278005
0.00277678
0.0027735
0.00277022
0.00276693
0.00276364
0.00276034
0.00275704
0.00275373
0.00275042
0.00274711
0.00274379
0.00274046
0.00273714
0.00273381
0.00273047
0.00272713
0.00272379
0.00272044
0.00271709
0.00271374
0.00271039
0.00270703
0.00270367
0.0027003
0.00269693
0.00269356
0.00269019
0.00268681
0.00268344
0.00268005
0.00267668
0.00267329
0.00266991
0.00266651
0.00266313
0.00265973
0.00265634
0.00265294
0.00264955
0.00264615
0.00264276
0.00263935
0.00263596
0.00263255
0.00262915
0.00262574
0.00262235
0.00261893
0.00261554
0.00261212
0.00260873
0.00260531
0.00260192
0.0025985
0.0025951
0.00259169
0.00258829
0.00258488
0.00258148
0.00257807
0.00257468
0.00257127
0.00256787
0.00256447
0.00256107
0.00255767
0.00255428
0.00255088
0.00254749
0.00254409
0.0025407
0.00253731
0.00253392
0.00253053
0.00252715
0.00252377
0.00252039
0.00251701
0.00251363
0.00251026
0.00250688
0.00250352
0.00250015
0.00249679
0.00249342
0.00249006
0.0024867
0.00248335
0.00248
0.00247666
0.00247331
0.00246997
0.00246663
0.0024633
0.00245996
0.00245664
0.00245331
0.00244999
0.00244667
0.00244336
0.00244004
0.00243675
0.00243343
0.00243015
0.00242684
0.00242356
0.00242027
0.00241699
0.00241371
0.00241044
0.00240717
0.00240391
0.00240064
0.0023974
0.00239414
0.0023909
0.00238765
0.00238442
0.00238118
0.00237796
0.00237474
0.00237152
0.00236831
0.00236511
0.0023619
0.00235871
0.00235551
0.00235233
0.00234915
0.00234563
0.00234178
0.00233801
0.00233427
0.00233061
0.00232698
0.00232342
0.00231989
0.00231643
0.002313
0.00230963
0.00230629
0.00230302
0.00229977
0.00229657
0.00229341
0.0022903
0.00228722
0.00228419
0.00228118
0.00227822
0.00227529
0.00227241
0.00226955
0.00226673
0.00226394
0.00226119
0.00225846
0.00225577
0.00225311
0.00225048
0.00224788
0.00224531
0.00224276
0.00224025
0.00223776
0.0022353
0.00223286
0.00223045
0.00222807
0.00222571
0.00222337
0.00222107
0.00221878
0.00221652
0.00221427
0.00221206
0.00220986
0.00220769
0.00220553
0.0022034
0.00220128
0.00219919
0.00219712
0.00219506
0.00219303
0.00219101
0.00218901
0.00218704
0.00218507
0.00218313
0.0021812
0.00217929
0.00217739
0.00217552
0.00217365
0.00217181
0.00216998
0.00216817
0.00216636
0.00216459
0.0021628
0.00216106
0.0021593
0.0021576
0.00215585
0.00215418
0.00215246
0.00215082
0.00214911
0.00214751
0.00214581
0.00214424
0.00214255
0.00214101
0.00213934
0.00213782
0.00213618
0.00213464
0.0021331
0.0021314
0.00213019
0.00212797
0.00212767
0.00212459
)
;
    }
    symmetry
    {
        type            symmetryPlane;
    }
    frontAndBack
    {
        type            empty;
    }
}


// ************************************************************************* //
