/*--------------------------------*- C++ -*----------------------------------*\
| =========                 |                                                 |
| \\      /  F ield         | OpenFOAM: The Open Source CFD Toolbox           |
|  \\    /   O peration     | Version:  v2012                                 |
|   \\  /    A nd           | Website:  www.openfoam.com                      |
|    \\/     M anipulation  |                                                 |
\*---------------------------------------------------------------------------*/
FoamFile
{
    version     2.0;
    format      ascii;
    class       volVectorField;
    location    "4.5";
    object      wallShearStress;
}
// * * * * * * * * * * * * * * * * * * * * * * * * * * * * * * * * * * * * * //

dimensions      [0 2 -2 0 0 0 0];


internalField   uniform (0 0 0);

boundaryField
{
    inlet
    {
        type            calculated;
        value           uniform (0 0 0);
    }
    outlet
    {
        type            calculated;
        value           uniform (0 0 0);
    }
    topWall
    {
        type            calculated;
        value           nonuniform List<vector> 
545
(
(7.63642e-09 -5.34298e-09 0)
(7.6672e-09 -1.51404e-08 0)
(7.56289e-09 -2.5131e-08 0)
(7.51916e-09 -3.47844e-08 0)
(7.48728e-09 -4.39873e-08 0)
(7.45573e-09 -5.2866e-08 0)
(7.42174e-09 -6.1502e-08 0)
(7.38478e-09 -6.98938e-08 0)
(7.34495e-09 -7.80219e-08 0)
(7.30253e-09 -8.58849e-08 0)
(7.25776e-09 -9.34923e-08 0)
(7.21086e-09 -1.00854e-07 0)
(7.16207e-09 -1.07974e-07 0)
(7.1116e-09 -1.14859e-07 0)
(7.05965e-09 -1.21514e-07 0)
(7.00643e-09 -1.27945e-07 0)
(6.95211e-09 -1.34159e-07 0)
(6.89686e-09 -1.40161e-07 0)
(6.84084e-09 -1.45958e-07 0)
(6.78418e-09 -1.51556e-07 0)
(6.72701e-09 -1.56961e-07 0)
(6.66947e-09 -1.62178e-07 0)
(6.61166e-09 -1.67214e-07 0)
(6.55368e-09 -1.72074e-07 0)
(6.49562e-09 -1.76765e-07 0)
(6.43758e-09 -1.81291e-07 0)
(6.37961e-09 -1.85658e-07 0)
(6.3218e-09 -1.89872e-07 0)
(6.26421e-09 -1.93937e-07 0)
(6.20688e-09 -1.97859e-07 0)
(6.14988e-09 -2.01643e-07 0)
(6.09324e-09 -2.05292e-07 0)
(6.03701e-09 -2.08813e-07 0)
(5.98121e-09 -2.12209e-07 0)
(5.92588e-09 -2.15485e-07 0)
(5.87104e-09 -2.18646e-07 0)
(5.81671e-09 -2.21694e-07 0)
(5.76292e-09 -2.24634e-07 0)
(5.70966e-09 -2.27471e-07 0)
(5.65697e-09 -2.30207e-07 0)
(5.60484e-09 -2.32846e-07 0)
(5.55329e-09 -2.35393e-07 0)
(5.5023e-09 -2.37849e-07 0)
(5.4519e-09 -2.40218e-07 0)
(5.40206e-09 -2.42504e-07 0)
(5.3528e-09 -2.44709e-07 0)
(5.30411e-09 -2.46837e-07 0)
(5.25598e-09 -2.48889e-07 0)
(5.2084e-09 -2.50869e-07 0)
(5.16137e-09 -2.5278e-07 0)
(5.11486e-09 -2.54624e-07 0)
(5.06889e-09 -2.56403e-07 0)
(5.02342e-09 -2.58119e-07 0)
(4.97845e-09 -2.59775e-07 0)
(4.93395e-09 -2.61373e-07 0)
(4.88993e-09 -2.62915e-07 0)
(4.84636e-09 -2.64402e-07 0)
(4.80322e-09 -2.65838e-07 0)
(4.76049e-09 -2.67223e-07 0)
(4.71817e-09 -2.6856e-07 0)
(4.67622e-09 -2.6985e-07 0)
(4.63463e-09 -2.71095e-07 0)
(4.59339e-09 -2.72296e-07 0)
(4.55246e-09 -2.73455e-07 0)
(4.51184e-09 -2.74574e-07 0)
(4.4715e-09 -2.75653e-07 0)
(4.43142e-09 -2.76694e-07 0)
(4.39155e-09 -2.77698e-07 0)
(4.35201e-09 -2.7867e-07 0)
(4.31215e-09 -2.79599e-07 0)
(4.2747e-09 -2.80528e-07 0)
(4.22782e-09 -2.81349e-07 0)
(4.18462e-09 -2.82171e-07 0)
(4.15783e-09 -2.8304e-07 0)
(4.13144e-09 -2.83803e-07 0)
(4.1052e-09 -2.84559e-07 0)
(4.07902e-09 -2.8533e-07 0)
(4.05288e-09 -2.86099e-07 0)
(4.02679e-09 -2.86856e-07 0)
(4.00074e-09 -2.876e-07 0)
(3.97473e-09 -2.88337e-07 0)
(3.94876e-09 -2.89066e-07 0)
(3.92285e-09 -2.89788e-07 0)
(3.89697e-09 -2.90501e-07 0)
(3.87114e-09 -2.91206e-07 0)
(3.84535e-09 -2.91904e-07 0)
(3.81961e-09 -2.92593e-07 0)
(3.79391e-09 -2.93275e-07 0)
(3.76826e-09 -2.93949e-07 0)
(3.74264e-09 -2.94615e-07 0)
(3.71713e-09 -2.95276e-07 0)
(3.69143e-09 -2.95922e-07 0)
(3.66678e-09 -2.96584e-07 0)
(3.63794e-09 -2.97173e-07 0)
(3.62711e-09 -2.9803e-07 0)
(3.53999e-09 -2.98334e-07 0)
(3.42958e-09 -2.98698e-07 0)
(3.40216e-09 -2.99654e-07 0)
(3.38286e-09 -3.0007e-07 0)
(3.36553e-09 -3.00412e-07 0)
(3.34864e-09 -3.0086e-07 0)
(3.33181e-09 -3.01361e-07 0)
(3.31495e-09 -3.01849e-07 0)
(3.29804e-09 -3.02316e-07 0)
(3.28109e-09 -3.02778e-07 0)
(3.26409e-09 -3.03243e-07 0)
(3.24704e-09 -3.0371e-07 0)
(3.22994e-09 -3.04174e-07 0)
(3.2128e-09 -3.04637e-07 0)
(3.1956e-09 -3.05098e-07 0)
(3.17836e-09 -3.05558e-07 0)
(3.16106e-09 -3.06016e-07 0)
(3.14372e-09 -3.06473e-07 0)
(3.12633e-09 -3.06928e-07 0)
(3.10889e-09 -3.07382e-07 0)
(3.09141e-09 -3.07835e-07 0)
(3.07387e-09 -3.08286e-07 0)
(3.05629e-09 -3.08735e-07 0)
(3.03866e-09 -3.09183e-07 0)
(3.02099e-09 -3.09629e-07 0)
(3.00327e-09 -3.10074e-07 0)
(2.9855e-09 -3.10518e-07 0)
(2.96769e-09 -3.10959e-07 0)
(2.94983e-09 -3.11399e-07 0)
(2.93192e-09 -3.11838e-07 0)
(2.91397e-09 -3.12274e-07 0)
(2.89597e-09 -3.12709e-07 0)
(2.87792e-09 -3.13143e-07 0)
(2.85983e-09 -3.13574e-07 0)
(2.8417e-09 -3.14005e-07 0)
(2.82352e-09 -3.14433e-07 0)
(2.80529e-09 -3.14859e-07 0)
(2.78702e-09 -3.15284e-07 0)
(2.76871e-09 -3.15707e-07 0)
(2.75035e-09 -3.16128e-07 0)
(2.73195e-09 -3.16547e-07 0)
(2.71351e-09 -3.16965e-07 0)
(2.69502e-09 -3.1738e-07 0)
(2.67649e-09 -3.17794e-07 0)
(2.65791e-09 -3.18206e-07 0)
(2.63929e-09 -3.18616e-07 0)
(2.62063e-09 -3.19024e-07 0)
(2.60193e-09 -3.1943e-07 0)
(2.58319e-09 -3.19834e-07 0)
(2.5644e-09 -3.20236e-07 0)
(2.54557e-09 -3.20636e-07 0)
(2.5267e-09 -3.21034e-07 0)
(2.50778e-09 -3.2143e-07 0)
(2.48883e-09 -3.21824e-07 0)
(2.46984e-09 -3.22216e-07 0)
(2.4508e-09 -3.22606e-07 0)
(2.43172e-09 -3.22994e-07 0)
(2.41261e-09 -3.23379e-07 0)
(2.39345e-09 -3.23763e-07 0)
(2.37426e-09 -3.24144e-07 0)
(2.35502e-09 -3.24523e-07 0)
(2.33575e-09 -3.249e-07 0)
(2.31643e-09 -3.25274e-07 0)
(2.29708e-09 -3.25647e-07 0)
(2.27769e-09 -3.26017e-07 0)
(2.25826e-09 -3.26385e-07 0)
(2.2388e-09 -3.2675e-07 0)
(2.21929e-09 -3.27113e-07 0)
(2.19975e-09 -3.27474e-07 0)
(2.18017e-09 -3.27833e-07 0)
(2.16056e-09 -3.28189e-07 0)
(2.14091e-09 -3.28543e-07 0)
(2.12122e-09 -3.28894e-07 0)
(2.1015e-09 -3.29243e-07 0)
(2.08174e-09 -3.29589e-07 0)
(2.06195e-09 -3.29933e-07 0)
(2.04212e-09 -3.30275e-07 0)
(2.02226e-09 -3.30614e-07 0)
(2.00236e-09 -3.3095e-07 0)
(1.98243e-09 -3.31284e-07 0)
(1.96247e-09 -3.31615e-07 0)
(1.94247e-09 -3.31944e-07 0)
(1.92244e-09 -3.3227e-07 0)
(1.90238e-09 -3.32594e-07 0)
(1.88229e-09 -3.32915e-07 0)
(1.86216e-09 -3.33233e-07 0)
(1.84201e-09 -3.33548e-07 0)
(1.82182e-09 -3.33861e-07 0)
(1.8016e-09 -3.34171e-07 0)
(1.78136e-09 -3.34478e-07 0)
(1.76108e-09 -3.34783e-07 0)
(1.74077e-09 -3.35085e-07 0)
(1.72044e-09 -3.35384e-07 0)
(1.70007e-09 -3.3568e-07 0)
(1.67968e-09 -3.35973e-07 0)
(1.65927e-09 -3.36263e-07 0)
(1.63882e-09 -3.36551e-07 0)
(1.61835e-09 -3.36835e-07 0)
(1.59785e-09 -3.37117e-07 0)
(1.57733e-09 -3.37396e-07 0)
(1.55678e-09 -3.37672e-07 0)
(1.5362e-09 -3.37944e-07 0)
(1.51561e-09 -3.38214e-07 0)
(1.49498e-09 -3.38481e-07 0)
(1.47434e-09 -3.38745e-07 0)
(1.45367e-09 -3.39005e-07 0)
(1.43298e-09 -3.39263e-07 0)
(1.41227e-09 -3.39517e-07 0)
(1.39153e-09 -3.39769e-07 0)
(1.37078e-09 -3.40016e-07 0)
(1.35e-09 -3.40262e-07 0)
(1.32921e-09 -3.40503e-07 0)
(1.30839e-09 -3.40742e-07 0)
(1.28756e-09 -3.40977e-07 0)
(1.26671e-09 -3.4121e-07 0)
(1.24584e-09 -3.41438e-07 0)
(1.22496e-09 -3.41664e-07 0)
(1.20405e-09 -3.41886e-07 0)
(1.18314e-09 -3.42105e-07 0)
(1.1622e-09 -3.42321e-07 0)
(1.14125e-09 -3.42533e-07 0)
(1.12029e-09 -3.42742e-07 0)
(1.09931e-09 -3.42947e-07 0)
(1.07832e-09 -3.43149e-07 0)
(1.05732e-09 -3.43348e-07 0)
(1.0363e-09 -3.43543e-07 0)
(1.01528e-09 -3.43735e-07 0)
(9.9424e-10 -3.43922e-07 0)
(9.73193e-10 -3.44107e-07 0)
(9.52135e-10 -3.44288e-07 0)
(9.3107e-10 -3.44466e-07 0)
(9.09995e-10 -3.44639e-07 0)
(8.88914e-10 -3.4481e-07 0)
(8.67824e-10 -3.44976e-07 0)
(8.46729e-10 -3.4514e-07 0)
(8.25627e-10 -3.45299e-07 0)
(8.0452e-10 -3.45455e-07 0)
(7.83409e-10 -3.45607e-07 0)
(7.62294e-10 -3.45755e-07 0)
(7.41175e-10 -3.45899e-07 0)
(7.20055e-10 -3.4604e-07 0)
(6.98932e-10 -3.46177e-07 0)
(6.77808e-10 -3.46311e-07 0)
(6.56683e-10 -3.4644e-07 0)
(6.35559e-10 -3.46566e-07 0)
(6.14435e-10 -3.46687e-07 0)
(5.93313e-10 -3.46805e-07 0)
(5.72193e-10 -3.46919e-07 0)
(5.51076e-10 -3.47029e-07 0)
(5.29962e-10 -3.47135e-07 0)
(5.08853e-10 -3.47238e-07 0)
(4.87749e-10 -3.47336e-07 0)
(4.66651e-10 -3.4743e-07 0)
(4.45559e-10 -3.4752e-07 0)
(4.24474e-10 -3.47607e-07 0)
(4.03397e-10 -3.47689e-07 0)
(3.82329e-10 -3.47767e-07 0)
(3.61271e-10 -3.47841e-07 0)
(3.40222e-10 -3.47911e-07 0)
(3.19184e-10 -3.47977e-07 0)
(2.98159e-10 -3.48039e-07 0)
(2.77145e-10 -3.48097e-07 0)
(2.56145e-10 -3.4815e-07 0)
(2.35158e-10 -3.482e-07 0)
(2.14186e-10 -3.48245e-07 0)
(1.9323e-10 -3.48286e-07 0)
(1.72291e-10 -3.48323e-07 0)
(1.51363e-10 -3.48355e-07 0)
(1.30481e-10 -3.48384e-07 0)
(1.09497e-10 -3.48404e-07 0)
(8.90398e-11 -3.4844e-07 0)
(6.64536e-11 -3.48412e-07 0)
(5.30037e-11 -3.48636e-07 0)
(8.85224e-13 -3.48356e-07 0)
(-6.55164e-11 -3.48163e-07 0)
(-8.87251e-11 -3.48583e-07 0)
(-1.03497e-10 -3.48533e-07 0)
(-1.16407e-10 -3.48391e-07 0)
(-1.29038e-10 -3.48336e-07 0)
(-1.41773e-10 -3.48332e-07 0)
(-1.54702e-10 -3.48318e-07 0)
(-1.6784e-10 -3.48284e-07 0)
(-1.81188e-10 -3.48243e-07 0)
(-1.94747e-10 -3.48202e-07 0)
(-2.08516e-10 -3.4816e-07 0)
(-2.22495e-10 -3.48115e-07 0)
(-2.36682e-10 -3.48066e-07 0)
(-2.51075e-10 -3.48013e-07 0)
(-2.65673e-10 -3.47956e-07 0)
(-2.80474e-10 -3.47896e-07 0)
(-2.95478e-10 -3.47832e-07 0)
(-3.10682e-10 -3.47763e-07 0)
(-3.26084e-10 -3.47691e-07 0)
(-3.41684e-10 -3.47614e-07 0)
(-3.57479e-10 -3.47533e-07 0)
(-3.73468e-10 -3.47447e-07 0)
(-3.89648e-10 -3.47357e-07 0)
(-4.06018e-10 -3.47262e-07 0)
(-4.22576e-10 -3.47162e-07 0)
(-4.3932e-10 -3.47057e-07 0)
(-4.56247e-10 -3.46947e-07 0)
(-4.73356e-10 -3.46832e-07 0)
(-4.90645e-10 -3.46711e-07 0)
(-5.0811e-10 -3.46584e-07 0)
(-5.2575e-10 -3.46452e-07 0)
(-5.43561e-10 -3.46314e-07 0)
(-5.61543e-10 -3.4617e-07 0)
(-5.79691e-10 -3.46019e-07 0)
(-5.98003e-10 -3.45862e-07 0)
(-6.16477e-10 -3.45699e-07 0)
(-6.35109e-10 -3.45529e-07 0)
(-6.53897e-10 -3.45352e-07 0)
(-6.72837e-10 -3.45168e-07 0)
(-6.91926e-10 -3.44977e-07 0)
(-7.11162e-10 -3.44779e-07 0)
(-7.30539e-10 -3.44573e-07 0)
(-7.50056e-10 -3.44359e-07 0)
(-7.69709e-10 -3.44137e-07 0)
(-7.89493e-10 -3.43907e-07 0)
(-8.09405e-10 -3.43669e-07 0)
(-8.29441e-10 -3.43423e-07 0)
(-8.49598e-10 -3.43167e-07 0)
(-8.6987e-10 -3.42903e-07 0)
(-8.90254e-10 -3.4263e-07 0)
(-9.10745e-10 -3.42348e-07 0)
(-9.31339e-10 -3.42056e-07 0)
(-9.52031e-10 -3.41754e-07 0)
(-9.72817e-10 -3.41443e-07 0)
(-9.9369e-10 -3.41121e-07 0)
(-1.01465e-09 -3.40789e-07 0)
(-1.03568e-09 -3.40446e-07 0)
(-1.05679e-09 -3.40093e-07 0)
(-1.07796e-09 -3.39728e-07 0)
(-1.0992e-09 -3.39352e-07 0)
(-1.12049e-09 -3.38964e-07 0)
(-1.14183e-09 -3.38565e-07 0)
(-1.16322e-09 -3.38153e-07 0)
(-1.18464e-09 -3.37729e-07 0)
(-1.20609e-09 -3.37292e-07 0)
(-1.22757e-09 -3.36842e-07 0)
(-1.24906e-09 -3.36379e-07 0)
(-1.27056e-09 -3.35902e-07 0)
(-1.29207e-09 -3.35412e-07 0)
(-1.31357e-09 -3.34906e-07 0)
(-1.33506e-09 -3.34387e-07 0)
(-1.35652e-09 -3.33852e-07 0)
(-1.37796e-09 -3.33303e-07 0)
(-1.39937e-09 -3.32738e-07 0)
(-1.42072e-09 -3.32157e-07 0)
(-1.44203e-09 -3.3156e-07 0)
(-1.46327e-09 -3.30946e-07 0)
(-1.48445e-09 -3.30316e-07 0)
(-1.50554e-09 -3.29668e-07 0)
(-1.52654e-09 -3.29004e-07 0)
(-1.54745e-09 -3.28321e-07 0)
(-1.56825e-09 -3.27621e-07 0)
(-1.58893e-09 -3.26902e-07 0)
(-1.60949e-09 -3.26165e-07 0)
(-1.62991e-09 -3.25409e-07 0)
(-1.65018e-09 -3.24634e-07 0)
(-1.6703e-09 -3.2384e-07 0)
(-1.69026e-09 -3.23027e-07 0)
(-1.71003e-09 -3.22193e-07 0)
(-1.72963e-09 -3.2134e-07 0)
(-1.74902e-09 -3.20467e-07 0)
(-1.76821e-09 -3.19573e-07 0)
(-1.78719e-09 -3.18659e-07 0)
(-1.80593e-09 -3.17724e-07 0)
(-1.82444e-09 -3.16769e-07 0)
(-1.8427e-09 -3.15792e-07 0)
(-1.86071e-09 -3.14795e-07 0)
(-1.87844e-09 -3.13776e-07 0)
(-1.8959e-09 -3.12736e-07 0)
(-1.91307e-09 -3.11675e-07 0)
(-1.92993e-09 -3.10593e-07 0)
(-1.94649e-09 -3.09489e-07 0)
(-1.96273e-09 -3.08363e-07 0)
(-1.97863e-09 -3.07216e-07 0)
(-1.9942e-09 -3.06047e-07 0)
(-2.00941e-09 -3.04856e-07 0)
(-2.02426e-09 -3.03643e-07 0)
(-2.03874e-09 -3.02409e-07 0)
(-2.05283e-09 -3.01153e-07 0)
(-2.06654e-09 -2.99875e-07 0)
(-2.07984e-09 -2.98576e-07 0)
(-2.09272e-09 -2.97254e-07 0)
(-2.10519e-09 -2.95911e-07 0)
(-2.11722e-09 -2.94546e-07 0)
(-2.12881e-09 -2.93159e-07 0)
(-2.13995e-09 -2.9175e-07 0)
(-2.15062e-09 -2.9032e-07 0)
(-2.16083e-09 -2.88868e-07 0)
(-2.17056e-09 -2.87395e-07 0)
(-2.17979e-09 -2.859e-07 0)
(-2.18854e-09 -2.84383e-07 0)
(-2.19677e-09 -2.82845e-07 0)
(-2.20449e-09 -2.81286e-07 0)
(-2.21169e-09 -2.79706e-07 0)
(-2.21837e-09 -2.78104e-07 0)
(-2.2245e-09 -2.76482e-07 0)
(-2.23009e-09 -2.74839e-07 0)
(-2.23513e-09 -2.73175e-07 0)
(-2.23961e-09 -2.7149e-07 0)
(-2.24353e-09 -2.69786e-07 0)
(-2.24688e-09 -2.6806e-07 0)
(-2.24965e-09 -2.66315e-07 0)
(-2.25184e-09 -2.6455e-07 0)
(-2.25345e-09 -2.62766e-07 0)
(-2.25446e-09 -2.60961e-07 0)
(-2.25488e-09 -2.59138e-07 0)
(-2.2547e-09 -2.57296e-07 0)
(-2.25392e-09 -2.55435e-07 0)
(-2.25253e-09 -2.53555e-07 0)
(-2.25054e-09 -2.51658e-07 0)
(-2.24793e-09 -2.49742e-07 0)
(-2.2447e-09 -2.4781e-07 0)
(-2.24087e-09 -2.45859e-07 0)
(-2.23641e-09 -2.43893e-07 0)
(-2.23134e-09 -2.41909e-07 0)
(-2.22565e-09 -2.3991e-07 0)
(-2.21934e-09 -2.37895e-07 0)
(-2.21242e-09 -2.35864e-07 0)
(-2.20487e-09 -2.33819e-07 0)
(-2.19671e-09 -2.3176e-07 0)
(-2.18794e-09 -2.29687e-07 0)
(-2.17855e-09 -2.276e-07 0)
(-2.16856e-09 -2.25501e-07 0)
(-2.15795e-09 -2.23389e-07 0)
(-2.14675e-09 -2.21265e-07 0)
(-2.13495e-09 -2.19131e-07 0)
(-2.12256e-09 -2.16986e-07 0)
(-2.10959e-09 -2.1483e-07 0)
(-2.09605e-09 -2.12666e-07 0)
(-2.08195e-09 -2.10492e-07 0)
(-2.06729e-09 -2.08311e-07 0)
(-2.05208e-09 -2.06122e-07 0)
(-2.03635e-09 -2.03926e-07 0)
(-2.0201e-09 -2.01724e-07 0)
(-2.00334e-09 -1.99517e-07 0)
(-1.98608e-09 -1.97304e-07 0)
(-1.96835e-09 -1.95088e-07 0)
(-1.95015e-09 -1.92868e-07 0)
(-1.9315e-09 -1.90646e-07 0)
(-1.91241e-09 -1.88421e-07 0)
(-1.8929e-09 -1.86195e-07 0)
(-1.87298e-09 -1.83969e-07 0)
(-1.85268e-09 -1.81742e-07 0)
(-1.83199e-09 -1.79516e-07 0)
(-1.81095e-09 -1.77293e-07 0)
(-1.78956e-09 -1.75069e-07 0)
(-1.76784e-09 -1.72854e-07 0)
(-1.74583e-09 -1.70625e-07 0)
(-1.72342e-09 -1.68449e-07 0)
(-1.70106e-09 -1.66074e-07 0)
(-1.67705e-09 -1.64086e-07 0)
(-1.64558e-09 -1.61791e-07 0)
(-1.612e-09 -1.58836e-07 0)
(-1.58262e-09 -1.56284e-07 0)
(-1.55434e-09 -1.53831e-07 0)
(-1.52647e-09 -1.51355e-07 0)
(-1.49881e-09 -1.48888e-07 0)
(-1.47133e-09 -1.46472e-07 0)
(-1.44405e-09 -1.44114e-07 0)
(-1.417e-09 -1.41803e-07 0)
(-1.39018e-09 -1.39532e-07 0)
(-1.36362e-09 -1.37303e-07 0)
(-1.33733e-09 -1.35116e-07 0)
(-1.31133e-09 -1.32973e-07 0)
(-1.28562e-09 -1.30872e-07 0)
(-1.26021e-09 -1.28812e-07 0)
(-1.23512e-09 -1.26793e-07 0)
(-1.21036e-09 -1.24815e-07 0)
(-1.18591e-09 -1.22875e-07 0)
(-1.16181e-09 -1.20976e-07 0)
(-1.13803e-09 -1.19115e-07 0)
(-1.1146e-09 -1.17293e-07 0)
(-1.0915e-09 -1.15508e-07 0)
(-1.06875e-09 -1.13761e-07 0)
(-1.04633e-09 -1.12049e-07 0)
(-1.02425e-09 -1.10374e-07 0)
(-1.0025e-09 -1.08734e-07 0)
(-9.81086e-10 -1.0713e-07 0)
(-9.59997e-10 -1.05559e-07 0)
(-9.39236e-10 -1.04023e-07 0)
(-9.18791e-10 -1.0252e-07 0)
(-8.98665e-10 -1.0105e-07 0)
(-8.78847e-10 -9.9612e-08 0)
(-8.59337e-10 -9.82062e-08 0)
(-8.40126e-10 -9.68314e-08 0)
(-8.21212e-10 -9.54877e-08 0)
(-8.02585e-10 -9.41742e-08 0)
(-7.84246e-10 -9.2891e-08 0)
(-7.66185e-10 -9.16369e-08 0)
(-7.484e-10 -9.04122e-08 0)
(-7.30882e-10 -8.92157e-08 0)
(-7.1363e-10 -8.80478e-08 0)
(-6.96635e-10 -8.69073e-08 0)
(-6.79897e-10 -8.57944e-08 0)
(-6.63405e-10 -8.47082e-08 0)
(-6.4716e-10 -8.36487e-08 0)
(-6.31151e-10 -8.26152e-08 0)
(-6.15378e-10 -8.16075e-08 0)
(-5.99833e-10 -8.06252e-08 0)
(-5.84511e-10 -7.96679e-08 0)
(-5.69409e-10 -7.87353e-08 0)
(-5.54519e-10 -7.78268e-08 0)
(-5.3984e-10 -7.69424e-08 0)
(-5.25362e-10 -7.60815e-08 0)
(-5.11083e-10 -7.52439e-08 0)
(-4.96998e-10 -7.44293e-08 0)
(-4.831e-10 -7.36371e-08 0)
(-4.69387e-10 -7.28675e-08 0)
(-4.5585e-10 -7.21197e-08 0)
(-4.42488e-10 -7.13937e-08 0)
(-4.29293e-10 -7.06891e-08 0)
(-4.16263e-10 -7.00057e-08 0)
(-4.03391e-10 -6.93431e-08 0)
(-3.90674e-10 -6.87012e-08 0)
(-3.78107e-10 -6.80796e-08 0)
(-3.65684e-10 -6.74782e-08 0)
(-3.53403e-10 -6.68967e-08 0)
(-3.41258e-10 -6.63348e-08 0)
(-3.29245e-10 -6.57923e-08 0)
(-3.1736e-10 -6.52691e-08 0)
(-3.05597e-10 -6.47647e-08 0)
(-2.93953e-10 -6.42792e-08 0)
(-2.82421e-10 -6.38119e-08 0)
(-2.71e-10 -6.33633e-08 0)
(-2.5968e-10 -6.29326e-08 0)
(-2.48461e-10 -6.25206e-08 0)
(-2.37333e-10 -6.2126e-08 0)
(-2.26295e-10 -6.17501e-08 0)
(-2.15333e-10 -6.13913e-08 0)
(-2.04446e-10 -6.1051e-08 0)
(-1.93621e-10 -6.07275e-08 0)
(-1.82854e-10 -6.04224e-08 0)
(-1.72132e-10 -6.01339e-08 0)
(-1.61454e-10 -5.98636e-08 0)
(-1.50812e-10 -5.96098e-08 0)
(-1.40213e-10 -5.93741e-08 0)
(-1.29664e-10 -5.9155e-08 0)
(-1.19195e-10 -5.89527e-08 0)
(-1.08851e-10 -5.87715e-08 0)
(-9.86724e-11 -5.85909e-08 0)
(-8.88101e-11 -5.84824e-08 0)
(-7.89373e-11 -5.81971e-08 0)
(-7.02957e-11 -5.8545e-08 0)
(-5.71738e-11 -5.6696e-08 0)
(-6.03993e-11 -6.12536e-08 0)
(-3.65837e-11 -5.34127e-08 0)
)
;
    }
    bottomWall
    {
        type            calculated;
        value           nonuniform List<vector> 
449
(
(-53.4592 -0.964269 0)
(-36.3598 -0.00278684 0)
(-35.1102 -0.000437194 0)
(-33.3532 -0.000478985 0)
(-31.8541 -0.000411721 0)
(-30.5441 -0.000347966 0)
(-29.4764 -0.000281212 0)
(-28.6217 -0.000227731 0)
(-27.9173 -0.000188079 0)
(-27.332 -0.000156545 0)
(-26.8426 -0.000131874 0)
(-26.4253 -0.000110587 0)
(-26.0816 -9.40043e-05 0)
(-25.7762 -8.45961e-05 0)
(-25.4951 -7.54253e-05 0)
(-25.2539 -6.45869e-05 0)
(-25.0475 -5.872e-05 0)
(-24.8457 -5.08514e-05 0)
(-24.6951 -4.39624e-05 0)
(-24.54 -4.06307e-05 0)
(-24.4115 -3.57194e-05 0)
(-24.2908 -3.27389e-05 0)
(-24.1826 -2.86305e-05 0)
(-24.0912 -2.4642e-05 0)
(-24.0097 -2.57463e-05 0)
(-23.9079 -2.5749e-05 0)
(-23.8263 -2.2903e-05 0)
(-23.7454 -2.10046e-05 0)
(-23.678 -1.66713e-05 0)
(-23.6287 -1.42644e-05 0)
(-23.5766 -1.68691e-05 0)
(-23.5067 -1.77497e-05 0)
(-23.4489 -1.56673e-05 0)
(-23.3949 -1.35634e-05 0)
(-23.353 -1.07783e-05 0)
(-23.3189 -1.07878e-05 0)
(-23.2752 -1.1575e-05 0)
(-23.2352 -9.52252e-06 0)
(-23.207 -9.74965e-06 0)
(-23.1641 -1.07854e-05 0)
(-23.1278 -1.03162e-05 0)
(-23.089 -9.38366e-06 0)
(-23.0599 -7.88036e-06 0)
(-23.0317 -8.72377e-06 0)
(-22.9957 -8.26638e-06 0)
(-22.9716 -6.49041e-06 0)
(-22.9491 -6.28403e-06 0)
(-22.9262 -5.2477e-06 0)
(-22.9115 -4.29565e-06 0)
(-22.8948 -5.70945e-06 0)
(-22.8688 -5.87241e-06 0)
(-22.8517 -3.88643e-06 0)
(-22.8408 -4.1966e-06 0)
(-22.8202 -5.70857e-06 0)
(-22.7976 -5.53996e-06 0)
(-22.7785 -4.77522e-06 0)
(-22.7617 -4.08203e-06 0)
(-22.7482 -3.44956e-06 0)
(-22.7361 -3.96634e-06 0)
(-22.7183 -3.73948e-06 0)
(-22.7079 -3.42109e-06 0)
(-22.6926 -3.28005e-06 0)
(-22.6831 -2.70149e-06 0)
(-22.672 -2.87757e-06 0)
(-22.6617 -2.14936e-06 0)
(-22.6566 -1.45941e-06 0)
(-22.6509 -2.75789e-06 0)
(-22.6349 -3.98445e-06 0)
(-22.6199 -2.97583e-06 0)
(-22.6124 -1.67178e-06 0)
(-22.6072 -2.66963e-06 0)
(-22.5907 -4.33343e-06 0)
(-22.5725 -3.78127e-06 0)
(-22.5614 -2.78043e-06 0)
(-22.5513 -2.21424e-06 0)
(-22.5447 -1.49135e-06 0)
(-22.5404 -8.19711e-07 0)
(-22.5391 7.35613e-09 0)
(-22.5414 8.42607e-09 0)
(-22.5396 -1.64413e-06 0)
(-22.5278 -2.75602e-06 0)
(-22.5174 -1.82119e-06 0)
(-22.5142 -5.3099e-07 0)
(-22.5142 3.49258e-08 0)
(-22.5148 -5.04695e-07 0)
(-22.5096 -2.60274e-06 0)
(-22.4929 -3.28644e-06 0)
(-22.483 -1.43952e-06 0)
(-22.4823 -1.36702e-07 0)
(-22.483 3.51944e-08 0)
(-22.4832 -5.8273e-08 0)
(-22.4829 5.11857e-08 0)
(-22.4841 2.92074e-07 0)
(-22.4858 -9.993e-08 0)
(-22.4833 -1.40364e-06 0)
(-22.4737 -1.92412e-06 0)
(-22.4673 -8.58464e-07 0)
(-22.4674 5.83803e-08 0)
(-22.4686 -1.57022e-07 0)
(-22.4663 -6.36903e-07 0)
(-22.4635 -3.56351e-07 0)
(-22.4639 2.96955e-09 0)
(-22.464 -1.26606e-08 0)
(-22.4641 -6.7015e-08 0)
(-22.4635 -4.52496e-07 0)
(-22.4599 -1.2342e-06 0)
(-22.4522 -2.22286e-06 0)
(-22.4402 -1.97031e-06 0)
(-22.4353 -8.86954e-07 0)
(-22.433 -3.67227e-07 0)
(-22.4325 5.66828e-08 0)
(-22.434 4.01979e-07 0)
(-22.4368 3.36867e-07 0)
(-22.4374 -1.44337e-07 0)
(-22.4354 -8.46358e-07 0)
(-22.4296 -1.17093e-06 0)
(-22.425 -6.15105e-07 0)
(-22.4243 -4.08391e-07 0)
(-22.4212 -1.25125e-06 0)
(-22.4131 -1.22965e-06 0)
(-22.4107 -2.34337e-07 0)
(-22.4114 -1.49527e-07 0)
(-22.4095 -1.78856e-07 0)
(-22.41 2.109e-07 0)
(-22.4118 1.91362e-07 0)
(-22.4119 1.18716e-07 0)
(-22.4127 -5.35561e-08 0)
(-22.411 -6.95867e-07 0)
(-22.4057 -1.69181e-06 0)
(-22.3953 -1.49113e-06 0)
(-22.3925 -5.13426e-07 0)
(-22.3912 -2.83093e-07 0)
(-22.3903 -2.64652e-07 0)
(-22.389 -3.07867e-08 0)
(-22.3906 3.22131e-07 0)
(-22.3925 3.25061e-07 0)
(-22.3936 -3.24643e-08 0)
(-22.3921 -3.61306e-07 0)
(-22.3902 -5.57864e-08 0)
(-22.3918 4.20173e-07 0)
(-22.3942 2.2317e-07 0)
(-22.3936 -3.81824e-07 0)
(-22.3903 -8.91034e-07 0)
(-22.385 -7.69756e-07 0)
(-22.3831 -4.115e-07 0)
(-22.3813 -2.74546e-07 0)
(-22.3806 8.81706e-08 0)
(-22.3822 -2.37531e-08 0)
(-22.3802 -5.2206e-07 0)
(-22.3769 -8.32615e-07 0)
(-22.3724 -6.6784e-07 0)
(-22.371 1.20821e-07 0)
(-22.3742 4.86284e-07 0)
(-22.3761 1.22979e-07 0)
(-22.3755 -5.31116e-08 0)
(-22.3761 2.49205e-07 0)
(-22.3784 3.30035e-07 0)
(-22.3794 1.11391e-07 0)
(-22.3795 -1.39791e-07 0)
(-22.3779 -5.6587e-07 0)
(-22.3737 -7.44379e-07 0)
(-22.3705 -1.73836e-07 0)
(-22.3724 2.24351e-07 0)
(-22.3732 -2.24437e-07 0)
(-22.3701 -3.05429e-07 0)
(-22.3701 3.9174e-09 0)
(-22.3703 -4.11502e-08 0)
(-22.3696 -2.64663e-07 0)
(-22.3674 -1.83479e-07 0)
(-22.3676 3.55049e-08 0)
(-22.3676 -3.28882e-07 0)
(-22.3638 -8.79452e-07 0)
(-22.3585 -5.31467e-07 0)
(-22.3589 4.10373e-07 0)
(-22.3627 3.94894e-07 0)
(-22.3624 -3.47184e-07 0)
(-22.359 -4.2056e-07 0)
(-22.3583 -1.53323e-07 0)
(-22.3576 1.3635e-08 0)
(-22.3586 7.18746e-08 0)
(-22.3585 -3.46528e-07 0)
(-22.3551 -5.06597e-07 0)
(-22.3535 5.20245e-07 0)
(-22.361 9.63915e-07 0)
(-22.3636 3.82315e-08 0)
(-22.361 -6.99828e-07 0)
(-22.3562 -5.71551e-07 0)
(-22.3551 -1.30063e-07 0)
(-22.355 2.20197e-07 0)
(-22.3579 4.04261e-07 0)
(-22.3595 4.52049e-08 0)
(-22.3582 -1.97376e-07 0)
(-22.3574 -6.53555e-08 0)
(-22.3578 -3.31229e-08 0)
(-22.3572 -3.5128e-07 0)
(-22.3534 -9.11093e-07 0)
(-22.3463 -6.98657e-07 0)
(-22.3455 -8.60289e-08 0)
(-22.3456 -1.15017e-07 0)
(-22.3444 -6.30536e-08 0)
(-22.3451 6.61522e-08 0)
(-22.3453 1.06693e-08 0)
(-22.3454 8.84586e-08 0)
(-22.3466 -1.4328e-07 0)
(-22.3434 -6.90994e-07 0)
(-22.3375 -7.75243e-07 0)
(-22.3338 -1.65585e-07 0)
(-22.3362 4.19324e-07 0)
(-22.3399 8.27881e-07 0)
(-22.3478 8.61691e-07 0)
(-22.352 2.78256e-07 0)
(-22.3516 -1.79307e-07 0)
(-22.3495 -8.92385e-08 0)
(-22.3505 8.05544e-08 0)
(-22.3507 2.59574e-07 0)
(-22.3545 3.98329e-07 0)
(-22.3566 6.27754e-08 0)
(-22.3552 -1.62028e-07 0)
(-22.3542 -3.71209e-08 0)
(-22.3546 -1.49481e-07 0)
(-22.3516 -3.37391e-07 0)
(-22.3494 -2.28861e-07 0)
(-22.3481 -2.28997e-07 0)
(-22.3456 -3.80712e-07 0)
(-22.342 -3.21414e-07 0)
(-22.3407 -1.49142e-07 0)
(-22.3397 -2.57846e-07 0)
(-22.3364 -2.89016e-07 0)
(-22.335 -2.07678e-07 0)
(-22.333 -3.1486e-07 0)
(-22.3297 -4.20907e-07 0)
(-22.3258 -6.84624e-07 0)
(-22.318 -5.33558e-07 0)
(-22.3171 2.39295e-07 0)
(-22.323 4.57032e-07 0)
(-22.3256 2.21139e-07 0)
(-22.327 5.61322e-08 0)
(-22.3264 -2.271e-07 0)
(-22.3225 -3.42551e-07 0)
(-22.32 -2.11091e-07 0)
(-22.3188 6.67545e-09 0)
(-22.3207 3.51357e-07 0)
(-22.3259 2.94843e-07 0)
(-22.3263 1.74285e-08 0)
(-22.326 -3.93182e-08 0)
(-22.3254 -1.29348e-07 0)
(-22.3236 -9.14391e-08 0)
(-22.3237 -2.088e-07 0)
(-22.3191 -4.83452e-07 0)
(-22.3137 -3.30208e-07 0)
(-22.3127 -7.61343e-08 0)
(-22.3124 4.38361e-08 0)
(-22.3139 2.72102e-07 0)
(-22.3187 2.00132e-07 0)
(-22.3182 -8.59522e-08 0)
(-22.3163 -3.59993e-07 0)
(-22.3097 -5.30374e-07 0)
(-22.3046 -1.00619e-07 0)
(-22.3085 3.38104e-07 0)
(-22.3132 2.99072e-07 0)
(-22.3154 -6.12215e-08 0)
(-22.3112 -2.98751e-07 0)
(-22.3081 -2.10575e-07 0)
(-22.3064 -8.16447e-08 0)
(-22.3063 6.73799e-08 0)
(-22.3082 1.02337e-07 0)
(-22.3088 -1.29138e-08 0)
(-22.3076 -1.29789e-07 0)
(-22.3056 -1.1694e-07 0)
(-22.305 7.07662e-09 0)
(-22.3061 1.42893e-07 0)
(-22.309 1.84618e-07 0)
(-22.3108 -2.27725e-08 0)
(-22.3079 -1.28086e-07 0)
(-22.3074 5.38535e-08 0)
(-22.3098 2.7723e-08 0)
(-22.3083 -3.08006e-08 0)
(-22.3091 5.71605e-08 0)
(-22.31 -5.04129e-08 0)
(-22.3073 -2.07255e-07 0)
(-22.3039 -1.44226e-07 0)
(-22.3035 2.82253e-08 0)
(-22.3051 7.91036e-08 0)
(-22.3059 6.82202e-08 0)
(-22.3069 4.16859e-08 0)
(-22.3069 -3.92418e-08 0)
(-22.3055 -1.87365e-07 0)
(-22.3008 -2.08854e-07 0)
(-22.2991 2.38808e-08 0)
(-22.3021 4.97531e-08 0)
(-22.3009 -7.50423e-08 0)
(-22.2998 7.56405e-08 0)
(-22.3037 1.1494e-07 0)
(-22.3036 1.61367e-08 0)
(-22.3042 2.02488e-07 0)
(-22.3107 2.88709e-07 0)
(-22.314 9.45807e-08 0)
(-22.3137 -5.32446e-08 0)
(-22.3121 -1.25136e-07 0)
(-22.3092 -1.10669e-07 0)
(-22.3081 -4.487e-08 0)
(-22.3079 -4.95355e-08 0)
(-22.3065 -4.66329e-08 0)
(-22.3062 3.10532e-08 0)
(-22.3079 1.50128e-08 0)
(-22.3067 -3.02781e-08 0)
(-22.3065 -4.12421e-08 0)
(-22.3051 -1.43479e-07 0)
(-22.3009 -1.89214e-07 0)
(-22.2977 -7.79573e-08 0)
(-22.2981 6.93702e-09 0)
(-22.2983 -2.4865e-08 0)
(-22.2972 5.49098e-08 0)
(-22.3007 2.16868e-07 0)
(-22.3061 7.51609e-08 0)
(-22.3033 -1.01591e-07 0)
(-22.3016 -6.82206e-08 0)
(-22.3003 -1.54179e-07 0)
(-22.2947 -1.62218e-07 0)
(-22.2936 -3.57073e-08 0)
(-22.2936 2.00769e-09 0)
(-22.2939 1.47278e-07 0)
(-22.3007 3.07208e-07 0)
(-22.3081 1.50251e-07 0)
(-22.3072 -8.26558e-08 0)
(-22.3038 -1.65991e-07 0)
(-22.2992 -1.6429e-07 0)
(-22.296 -6.52133e-08 0)
(-22.2964 3.21612e-08 0)
(-22.298 9.57334e-08 0)
(-22.3014 1.51e-07 0)
(-22.3055 1.50725e-07 0)
(-22.3086 -3.29034e-08 0)
(-22.3031 -2.19226e-07 0)
(-22.2969 -1.85157e-07 0)
(-22.2937 -3.66408e-08 0)
(-22.2955 3.01325e-08 0)
(-22.2954 -6.40758e-08 0)
(-22.2917 -1.08006e-07 0)
(-22.2896 -8.52479e-08 0)
(-22.2872 -4.24361e-08 0)
(-22.2875 7.94058e-08 0)
(-22.2921 1.56728e-07 0)
(-22.2966 1.42448e-07 0)
(-22.3002 3.75996e-08 0)
(-22.2984 -2.19139e-08 0)
(-22.2989 8.23086e-08 0)
(-22.3036 7.88313e-08 0)
(-22.3036 -4.87558e-08 0)
(-22.3004 -7.55298e-08 0)
(-22.2988 -7.34851e-08 0)
(-22.2957 -9.84971e-08 0)
(-22.2925 -3.48201e-08 0)
(-22.2938 -1.05566e-08 0)
(-22.292 -2.98619e-08 0)
(-22.2918 6.11959e-08 0)
(-22.2971 9.39214e-08 0)
(-22.2992 -2.36526e-08 0)
(-22.295 -5.13898e-08 0)
(-22.2952 4.35377e-08 0)
(-22.2986 4.13466e-08 0)
(-22.2985 2.79582e-09 0)
(-22.2988 -1.0735e-08 0)
(-22.2976 -3.6587e-08 0)
(-22.2958 -6.12965e-08 0)
(-22.2926 -2.96432e-08 0)
(-22.2934 -2.66523e-08 0)
(-22.2903 -6.28926e-08 0)
(-22.2883 6.08882e-09 0)
(-22.291 4.95119e-08 0)
(-22.2923 -6.93482e-09 0)
(-22.2904 -3.60455e-08 0)
(-22.2895 1.35332e-08 0)
(-22.2916 2.56095e-08 0)
(-22.2916 -8.32641e-09 0)
(-22.291 1.08915e-08 0)
(-22.2925 3.00261e-09 0)
(-22.2912 -7.7931e-09 0)
(-22.2919 2.53554e-08 0)
(-22.2932 2.53367e-09 0)
(-22.292 -1.43945e-08 0)
(-22.292 -2.99318e-08 0)
(-22.2897 -2.61238e-08 0)
(-22.2902 7.44186e-08 0)
(-22.2958 1.00936e-07 0)
(-22.2981 -1.70467e-10 0)
(-22.2955 -2.94523e-08 0)
(-22.2957 -1.71329e-08 0)
(-22.294 -5.64528e-08 0)
(-22.291 -3.89162e-08 0)
(-22.2911 -3.16572e-08 0)
(-22.2886 -5.4933e-08 0)
(-22.2869 5.45391e-09 0)
(-22.2892 5.16533e-08 0)
(-22.291 4.69459e-08 0)
(-22.293 2.99044e-08 0)
(-22.2934 -8.8271e-09 0)
(-22.2923 4.3637e-09 0)
(-22.2936 -2.27174e-08 0)
(-22.2902 -8.78523e-08 0)
(-22.2865 -6.9328e-08 0)
(-22.2849 1.22582e-08 0)
(-22.2877 2.14613e-08 0)
(-22.2865 -7.09208e-08 0)
(-22.2819 -6.40817e-08 0)
(-22.2815 3.57453e-08 0)
(-22.285 7.02381e-08 0)
(-22.2873 -2.53458e-10 0)
(-22.285 -2.78196e-08 0)
(-22.2851 6.81774e-08 0)
(-22.2906 5.56682e-08 0)
(-22.2895 -1.2795e-08 0)
(-22.2894 4.25242e-08 0)
(-22.2928 4.81787e-08 0)
(-22.293 -1.47503e-08 0)
(-22.2915 -4.61227e-08 0)
(-22.2894 -3.01295e-08 0)
(-22.2893 1.78288e-08 0)
(-22.2912 4.44786e-08 0)
(-22.2929 1.97347e-08 0)
(-22.2925 -1.37678e-08 0)
(-22.2916 -2.15549e-08 0)
(-22.2906 -2.63993e-08 0)
(-22.2894 -4.69254e-08 0)
(-22.2868 -3.17553e-08 0)
(-22.2868 1.63907e-08 0)
(-22.2883 -3.78639e-08 0)
(-22.284 -9.1517e-08 0)
(-22.2812 1.55479e-08 0)
(-22.2856 1.0672e-07 0)
(-22.2898 4.82097e-08 0)
(-22.2893 2.50264e-09 0)
(-22.2899 3.3829e-08 0)
(-22.2918 4.43885e-08 0)
(-22.2933 -7.86684e-09 0)
(-22.2911 -6.95631e-08 0)
(-22.2876 -2.20748e-08 0)
(-22.2895 2.54482e-08 0)
(-22.2899 1.04357e-08 0)
(-22.2903 -2.73152e-08 0)
(-22.2875 -6.32827e-08 0)
(-22.2852 -6.20475e-08 0)
(-22.2827 -1.47639e-08 0)
(-22.2842 5.30409e-08 0)
(-22.2871 2.55947e-08 0)
(-22.2863 -1.37746e-08 0)
(-22.2859 2.37897e-09 0)
(-22.2863 5.31037e-08 0)
(-22.2901 4.71913e-08 0)
)
;
    }
    symmetry
    {
        type            symmetryPlane;
    }
    frontAndBack
    {
        type            empty;
    }
}


// ************************************************************************* //
