/*--------------------------------*- C++ -*----------------------------------*\
| =========                 |                                                 |
| \\      /  F ield         | OpenFOAM: The Open Source CFD Toolbox           |
|  \\    /   O peration     | Version:  v2012                                 |
|   \\  /    A nd           | Website:  www.openfoam.com                      |
|    \\/     M anipulation  |                                                 |
\*---------------------------------------------------------------------------*/
FoamFile
{
    version     2.0;
    format      ascii;
    class       volScalarField;
    location    "6.5";
    object      p;
}
// * * * * * * * * * * * * * * * * * * * * * * * * * * * * * * * * * * * * * //

dimensions      [0 2 -2 0 0 0 0];


internalField   nonuniform List<scalar> 
209825
(
6.99319
6.99595
7.00279
7.01312
7.02636
7.04231
7.06087
7.08196
7.10546
7.13126
7.15927
7.18942
7.22166
7.25591
7.29215
7.33032
7.37039
7.41234
7.45614
7.50178
7.54923
7.5985
7.64958
7.70246
7.75715
7.81366
7.87199
7.93216
7.99419
8.05809
8.12388
8.19159
8.26125
8.3329
8.40656
8.48227
8.56008
8.64004
8.72218
8.80657
8.89325
8.9823
9.07378
9.16775
9.26429
9.36349
9.46542
9.57017
9.67786
9.78857
9.90242
10.0195
10.14
10.2641
10.3918
10.5233
10.6588
10.7985
10.9426
11.0912
11.2447
11.4032
11.5671
11.7366
11.9119
12.0936
12.2819
12.4772
12.68
12.8908
13.1101
13.3385
13.5736
13.818
14.0788
14.3582
14.6586
14.9828
15.334
15.7162
16.1344
16.5944
17.1039
17.6724
18.3122
19.0397
19.8768
20.8551
22.0162
23.4362
25.1921
27.5652
30.5775
36.1425
42.4325
75.1901
6.99319
6.99595
7.00279
7.01312
7.02636
7.04231
7.06087
7.08196
7.10546
7.13126
7.15927
7.18942
7.22166
7.25591
7.29215
7.33032
7.37039
7.41234
7.45614
7.50178
7.54923
7.5985
7.64958
7.70246
7.75715
7.81366
7.87199
7.93216
7.99419
8.05809
8.12388
8.19159
8.26125
8.3329
8.40656
8.48227
8.56008
8.64004
8.72218
8.80657
8.89325
8.9823
9.07378
9.16775
9.26429
9.36349
9.46542
9.57017
9.67786
9.78857
9.90242
10.0195
10.14
10.2641
10.3918
10.5233
10.6588
10.7985
10.9426
11.0912
11.2447
11.4032
11.5671
11.7366
11.9119
12.0936
12.2819
12.4772
12.68
12.8908
13.1101
13.3385
13.5736
13.818
14.0788
14.3582
14.6586
14.9828
15.334
15.7162
16.1344
16.5944
17.1039
17.6724
18.3121
19.0396
19.8767
20.855
22.0161
23.4361
25.192
27.5649
30.5771
36.14
42.4117
74.5531
6.99319
6.99595
7.00279
7.01312
7.02636
7.04231
7.06087
7.08196
7.10546
7.13126
7.15927
7.18942
7.22166
7.25591
7.29215
7.33032
7.37039
7.41234
7.45614
7.50178
7.54923
7.5985
7.64958
7.70246
7.75715
7.81366
7.87199
7.93216
7.99419
8.05809
8.12388
8.19159
8.26125
8.3329
8.40656
8.48227
8.56008
8.64004
8.72218
8.80657
8.89325
8.9823
9.07378
9.16775
9.26429
9.36349
9.46542
9.57017
9.67786
9.78857
9.90242
10.0195
10.14
10.2641
10.3918
10.5233
10.6588
10.7985
10.9426
11.0912
11.2447
11.4032
11.5671
11.7366
11.9119
12.0936
12.2819
12.4772
12.68
12.8908
13.1101
13.3385
13.5735
13.818
14.0788
14.3582
14.6586
14.9828
15.334
15.7162
16.1344
16.5944
17.1039
17.6723
18.3121
19.0396
19.8766
20.8549
22.016
23.4359
25.1917
27.5644
30.5763
36.136
42.3894
73.7832
6.99319
6.99595
7.00279
7.01312
7.02636
7.04231
7.06087
7.08196
7.10546
7.13126
7.15927
7.18942
7.22166
7.25591
7.29215
7.33032
7.37039
7.41234
7.45614
7.50178
7.54923
7.5985
7.64958
7.70246
7.75715
7.81366
7.87199
7.93216
7.99419
8.05809
8.12388
8.19159
8.26125
8.3329
8.40656
8.48227
8.56008
8.64004
8.72218
8.80657
8.89325
8.9823
9.07378
9.16775
9.26429
9.36349
9.46542
9.57017
9.67786
9.78857
9.90242
10.0195
10.14
10.2641
10.3918
10.5233
10.6588
10.7985
10.9426
11.0912
11.2447
11.4032
11.5671
11.7365
11.9119
12.0936
12.2819
12.4772
12.68
12.8908
13.1101
13.3385
13.5735
13.818
14.0788
14.3582
14.6586
14.9827
15.3339
15.7162
16.1343
16.5944
17.1038
17.6723
18.312
19.0395
19.8765
20.8548
22.0158
23.4356
25.1913
27.5636
30.5751
36.1302
42.3694
73.0213
6.99319
6.99595
7.00279
7.01312
7.02636
7.04231
7.06087
7.08196
7.10546
7.13126
7.15927
7.18942
7.22166
7.25591
7.29215
7.33032
7.37039
7.41234
7.45614
7.50178
7.54923
7.5985
7.64958
7.70246
7.75715
7.81366
7.87199
7.93216
7.99419
8.05809
8.12388
8.19159
8.26125
8.3329
8.40656
8.48227
8.56008
8.64003
8.72218
8.80657
8.89325
8.9823
9.07378
9.16775
9.26429
9.36348
9.46541
9.57017
9.67785
9.78857
9.90242
10.0195
10.14
10.2641
10.3918
10.5233
10.6588
10.7985
10.9426
11.0912
11.2447
11.4032
11.5671
11.7365
11.9119
12.0936
12.2819
12.4772
12.68
12.8908
13.1101
13.3384
13.5735
13.818
14.0788
14.3582
14.6585
14.9827
15.3339
15.7162
16.1343
16.5943
17.1038
17.6722
18.3119
19.0394
19.8764
20.8546
22.0155
23.4352
25.1907
27.5625
30.5735
36.1226
42.3496
72.2722
6.99319
6.99595
7.00279
7.01312
7.02636
7.04231
7.06087
7.08196
7.10546
7.13126
7.15927
7.18942
7.22166
7.25591
7.29215
7.33032
7.37039
7.41234
7.45614
7.50178
7.54923
7.5985
7.64958
7.70246
7.75715
7.81366
7.87199
7.93216
7.99419
8.05809
8.12388
8.19159
8.26125
8.3329
8.40656
8.48227
8.56008
8.64003
8.72218
8.80656
8.89325
8.9823
9.07378
9.16775
9.26429
9.36348
9.46541
9.57017
9.67785
9.78856
9.90242
10.0195
10.14
10.2641
10.3917
10.5233
10.6588
10.7985
10.9426
11.0912
11.2447
11.4032
11.5671
11.7365
11.9119
12.0936
12.2819
12.4772
12.68
12.8908
13.1101
13.3384
13.5735
13.8179
14.0788
14.3581
14.6585
14.9827
15.3339
15.7161
16.1342
16.5943
17.1037
17.6721
18.3118
19.0393
19.8762
20.8543
22.0152
23.4347
25.19
27.5612
30.5714
36.1132
42.3275
71.5266
6.99319
6.99595
7.00279
7.01312
7.02636
7.04231
7.06087
7.08196
7.10546
7.13126
7.15927
7.18942
7.22166
7.25591
7.29215
7.33032
7.37039
7.41234
7.45614
7.50178
7.54923
7.5985
7.64958
7.70246
7.75715
7.81366
7.87199
7.93216
7.99419
8.05808
8.12388
8.19159
8.26125
8.3329
8.40656
8.48227
8.56008
8.64003
8.72218
8.80656
8.89325
8.9823
9.07377
9.16775
9.26429
9.36348
9.46541
9.57017
9.67785
9.78856
9.90241
10.0195
10.14
10.2641
10.3917
10.5233
10.6588
10.7985
10.9426
11.0912
11.2447
11.4032
11.5671
11.7365
11.9119
12.0936
12.2818
12.4772
12.68
12.8907
13.11
13.3384
13.5735
13.8179
14.0787
14.3581
14.6585
14.9826
15.3338
15.7161
16.1342
16.5942
17.1036
17.672
18.3117
19.0391
19.876
20.854
22.0148
23.4341
25.1891
27.5595
30.5689
36.1018
42.3019
70.782
6.99319
6.99595
7.00279
7.01312
7.02636
7.04231
7.06087
7.08196
7.10546
7.13126
7.15927
7.18942
7.22166
7.25591
7.29215
7.33032
7.37039
7.41234
7.45614
7.50178
7.54923
7.5985
7.64958
7.70246
7.75715
7.81366
7.87199
7.93216
7.99419
8.05808
8.12388
8.19159
8.26125
8.33289
8.40655
8.48227
8.56008
8.64003
8.72218
8.80656
8.89325
8.9823
9.07377
9.16774
9.26429
9.36348
9.46541
9.57017
9.67785
9.78856
9.90241
10.0195
10.14
10.264
10.3917
10.5233
10.6588
10.7985
10.9426
11.0912
11.2447
11.4032
11.5671
11.7365
11.9119
12.0935
12.2818
12.4772
12.68
12.8907
13.11
13.3384
13.5735
13.8179
14.0787
14.3581
14.6584
14.9826
15.3338
15.716
16.1341
16.5941
17.1035
17.6719
18.3115
19.0389
19.8757
20.8537
22.0143
23.4334
25.188
27.5574
30.5659
36.0882
42.2726
70.0376
6.99319
6.99595
7.00279
7.01312
7.02636
7.04231
7.06087
7.08196
7.10546
7.13126
7.15927
7.18942
7.22166
7.25591
7.29215
7.33032
7.37039
7.41234
7.45614
7.50178
7.54923
7.5985
7.64958
7.70246
7.75715
7.81366
7.87199
7.93216
7.99419
8.05808
8.12388
8.19159
8.26125
8.33289
8.40655
8.48227
8.56008
8.64003
8.72217
8.80656
8.89325
8.9823
9.07377
9.16774
9.26428
9.36348
9.46541
9.57016
9.67784
9.78856
9.90241
10.0195
10.14
10.264
10.3917
10.5233
10.6588
10.7985
10.9426
11.0912
11.2447
11.4032
11.567
11.7365
11.9119
12.0935
12.2818
12.4771
12.6799
12.8907
13.11
13.3384
13.5734
13.8178
14.0787
14.358
14.6584
14.9825
15.3337
15.7159
16.134
16.594
17.1034
17.6717
18.3113
19.0386
19.8754
20.8532
22.0137
23.4325
25.1867
27.5551
30.5623
36.0726
42.2397
69.2933
6.99319
6.99595
7.00279
7.01312
7.02636
7.04231
7.06087
7.08196
7.10546
7.13126
7.15927
7.18942
7.22166
7.25591
7.29215
7.33032
7.37039
7.41234
7.45614
7.50178
7.54923
7.5985
7.64958
7.70246
7.75715
7.81366
7.87199
7.93216
7.99419
8.05808
8.12387
8.19159
8.26125
8.33289
8.40655
8.48227
8.56008
8.64003
8.72217
8.80656
8.89325
8.98229
9.07377
9.16774
9.26428
9.36347
9.4654
9.57016
9.67784
9.78855
9.9024
10.0195
10.14
10.264
10.3917
10.5233
10.6588
10.7985
10.9425
11.0912
11.2447
11.4032
11.567
11.7365
11.9119
12.0935
12.2818
12.4771
12.6799
12.8907
13.11
13.3383
13.5734
13.8178
14.0786
14.358
14.6583
14.9825
15.3336
15.7158
16.1339
16.5939
17.1032
17.6715
18.3111
19.0383
19.875
20.8527
22.013
23.4315
25.1853
27.5523
30.5582
36.0548
42.203
68.5493
6.99319
6.99595
7.00279
7.01312
7.02636
7.04231
7.06087
7.08196
7.10546
7.13126
7.15927
7.18942
7.22166
7.25591
7.29215
7.33032
7.37039
7.41234
7.45614
7.50178
7.54923
7.5985
7.64958
7.70246
7.75715
7.81366
7.87199
7.93216
7.99418
8.05808
8.12387
8.19159
8.26125
8.33289
8.40655
8.48226
8.56008
8.64003
8.72217
8.80656
8.89324
8.98229
9.07377
9.16774
9.26428
9.36347
9.4654
9.57016
9.67784
9.78855
9.9024
10.0195
10.14
10.264
10.3917
10.5232
10.6588
10.7985
10.9425
11.0912
11.2447
11.4032
11.567
11.7365
11.9119
12.0935
12.2818
12.4771
12.6799
12.8907
13.1099
13.3383
13.5734
13.8178
14.0786
14.3579
14.6583
14.9824
15.3335
15.7157
16.1338
16.5937
17.103
17.6713
18.3108
19.038
19.8746
20.8522
22.0122
23.4304
25.1836
27.5492
30.5535
36.0348
42.1626
67.8058
6.99319
6.99595
7.00279
7.01312
7.02636
7.0423
7.06087
7.08196
7.10546
7.13126
7.15927
7.18942
7.22165
7.25591
7.29215
7.33032
7.37039
7.41234
7.45614
7.50178
7.54923
7.5985
7.64958
7.70246
7.75715
7.81366
7.87199
7.93216
7.99418
8.05808
8.12387
8.19159
8.26125
8.33289
8.40655
8.48226
8.56007
8.64003
8.72217
8.80656
8.89324
8.98229
9.07376
9.16773
9.26428
9.36347
9.4654
9.57015
9.67783
9.78854
9.90239
10.0195
10.14
10.264
10.3917
10.5232
10.6588
10.7985
10.9425
11.0912
11.2446
11.4032
11.567
11.7365
11.9118
12.0935
12.2818
12.4771
12.6799
12.8906
13.1099
13.3382
13.5733
13.8177
14.0785
14.3578
14.6582
14.9823
15.3334
15.7156
16.1336
16.5935
17.1028
17.6711
18.3105
19.0376
19.8741
20.8515
22.0113
23.4291
25.1817
27.5457
30.5482
36.0125
42.1182
67.0632
6.99319
6.99595
7.00279
7.01312
7.02636
7.0423
7.06087
7.08196
7.10546
7.13126
7.15927
7.18942
7.22165
7.25591
7.29215
7.33032
7.37039
7.41234
7.45614
7.50177
7.54923
7.5985
7.64958
7.70246
7.75715
7.81366
7.87199
7.93216
7.99418
8.05808
8.12387
8.19158
8.26125
8.33289
8.40655
8.48226
8.56007
8.64002
8.72217
8.80655
8.89324
8.98229
9.07376
9.16773
9.26427
9.36346
9.46539
9.57015
9.67783
9.78854
9.90239
10.0195
10.14
10.264
10.3917
10.5232
10.6587
10.7984
10.9425
11.0912
11.2446
11.4031
11.567
11.7364
11.9118
12.0935
12.2817
12.477
12.6798
12.8906
13.1099
13.3382
13.5733
13.8176
14.0784
14.3578
14.6581
14.9822
15.3333
15.7155
16.1335
16.5934
17.1026
17.6708
18.3102
19.0372
19.8736
20.8508
22.0104
23.4276
25.1796
27.5417
30.5422
35.9879
42.0698
66.3217
6.99319
6.99595
7.00279
7.01312
7.02636
7.0423
7.06087
7.08196
7.10546
7.13126
7.15927
7.18942
7.22165
7.25591
7.29215
7.33032
7.37039
7.41234
7.45614
7.50177
7.54923
7.5985
7.64957
7.70246
7.75715
7.81366
7.87199
7.93216
7.99418
8.05808
8.12387
8.19158
8.26124
8.33289
8.40655
8.48226
8.56007
8.64002
8.72216
8.80655
8.89324
8.98228
9.07376
9.16773
9.26427
9.36346
9.46539
9.57014
9.67782
9.78853
9.90238
10.0195
10.14
10.264
10.3917
10.5232
10.6587
10.7984
10.9425
11.0911
11.2446
11.4031
11.567
11.7364
11.9118
12.0934
12.2817
12.477
12.6798
12.8905
13.1098
13.3381
13.5732
13.8176
14.0784
14.3577
14.658
14.9821
15.3332
15.7153
16.1333
16.5932
17.1024
17.6705
18.3098
19.0368
19.873
20.85
22.0093
23.426
25.1772
27.5374
30.5355
35.9609
42.0173
65.5815
6.99319
6.99595
7.00279
7.01312
7.02636
7.0423
7.06087
7.08196
7.10546
7.13125
7.15927
7.18942
7.22165
7.25591
7.29215
7.33032
7.37039
7.41234
7.45614
7.50177
7.54923
7.5985
7.64957
7.70246
7.75715
7.81366
7.87199
7.93216
7.99418
8.05808
8.12387
8.19158
8.26124
8.33289
8.40654
8.48226
8.56007
8.64002
8.72216
8.80655
8.89323
8.98228
9.07375
9.16772
9.26426
9.36346
9.46538
9.57014
9.67782
9.78852
9.90237
10.0195
10.14
10.264
10.3917
10.5232
10.6587
10.7984
10.9425
11.0911
11.2446
11.4031
11.5669
11.7364
11.9118
12.0934
12.2817
12.477
12.6797
12.8905
13.1098
13.3381
13.5731
13.8175
14.0783
14.3576
14.6579
14.982
15.3331
15.7152
16.1331
16.5929
17.1021
17.6702
18.3094
19.0362
19.8723
20.8491
22.0081
23.4243
25.1746
27.5325
30.5281
35.9316
41.9606
64.8431
6.99319
6.99595
7.00279
7.01312
7.02636
7.0423
7.06087
7.08196
7.10546
7.13125
7.15927
7.18942
7.22165
7.25591
7.29215
7.33032
7.37039
7.41234
7.45614
7.50177
7.54923
7.5985
7.64957
7.70246
7.75715
7.81365
7.87199
7.93216
7.99418
8.05808
8.12387
8.19158
8.26124
8.33288
8.40654
8.48226
8.56006
8.64002
8.72216
8.80654
8.89323
8.98228
9.07375
9.16772
9.26426
9.36345
9.46538
9.57013
9.67781
9.78852
9.90237
10.0195
10.14
10.264
10.3917
10.5232
10.6587
10.7984
10.9425
11.0911
11.2446
11.4031
11.5669
11.7364
11.9117
12.0934
12.2816
12.4769
12.6797
12.8904
13.1097
13.338
13.5731
13.8174
14.0782
14.3575
14.6578
14.9818
15.3329
15.715
16.1329
16.5927
17.1018
17.6698
18.309
19.0357
19.8716
20.8482
22.0067
23.4223
25.1717
27.5272
30.52
35.8998
41.8995
64.1066
6.99318
6.99595
7.00279
7.01312
7.02636
7.0423
7.06087
7.08196
7.10546
7.13125
7.15927
7.18942
7.22165
7.25591
7.29214
7.33032
7.37039
7.41234
7.45614
7.50177
7.54923
7.5985
7.64957
7.70245
7.75715
7.81365
7.87198
7.93215
7.99418
8.05807
8.12387
8.19158
8.26124
8.33288
8.40654
8.48225
8.56006
8.64001
8.72216
8.80654
8.89323
8.98227
9.07375
9.16771
9.26425
9.36344
9.46537
9.57012
9.6778
9.78851
9.90236
10.0195
10.14
10.264
10.3917
10.5232
10.6587
10.7984
10.9424
11.0911
11.2445
11.4031
11.5669
11.7363
11.9117
12.0933
12.2816
12.4769
12.6797
12.8904
13.1096
13.338
13.573
13.8173
14.0781
14.3574
14.6577
14.9817
15.3328
15.7148
16.1327
16.5924
17.1015
17.6694
18.3085
19.0351
19.8708
20.8471
22.0053
23.4202
25.1686
27.5214
30.511
35.8655
41.834
63.3723
6.99318
6.99595
7.00279
7.01312
7.02636
7.0423
7.06087
7.08196
7.10546
7.13125
7.15926
7.18942
7.22165
7.25591
7.29214
7.33031
7.37039
7.41234
7.45614
7.50177
7.54923
7.59849
7.64957
7.70245
7.75714
7.81365
7.87198
7.93215
7.99418
8.05807
8.12386
8.19158
8.26124
8.33288
8.40654
8.48225
8.56006
8.64001
8.72215
8.80654
8.89322
8.98227
9.07374
9.16771
9.26425
9.36344
9.46536
9.57012
9.67779
9.7885
9.90235
10.0195
10.1399
10.264
10.3917
10.5232
10.6587
10.7984
10.9424
11.0911
11.2445
11.403
11.5669
11.7363
11.9117
12.0933
12.2815
12.4768
12.6796
12.8903
13.1096
13.3379
13.5729
13.8173
14.078
14.3573
14.6575
14.9815
15.3326
15.7146
16.1324
16.5921
17.1011
17.669
18.308
19.0344
19.8699
20.8459
22.0037
23.4179
25.1652
27.5151
30.5012
35.8287
41.764
62.6405
6.99318
6.99595
7.00279
7.01312
7.02636
7.0423
7.06087
7.08196
7.10546
7.13125
7.15926
7.18942
7.22165
7.25591
7.29214
7.33031
7.37039
7.41234
7.45614
7.50177
7.54923
7.59849
7.64957
7.70245
7.75714
7.81365
7.87198
7.93215
7.99417
8.05807
8.12386
8.19157
8.26123
8.33288
8.40653
8.48225
8.56006
8.64001
8.72215
8.80653
8.89322
8.98226
9.07374
9.1677
9.26424
9.36343
9.46536
9.57011
9.67778
9.78849
9.90234
10.0194
10.1399
10.2639
10.3916
10.5231
10.6587
10.7983
10.9424
11.091
11.2445
11.403
11.5668
11.7363
11.9116
12.0932
12.2815
12.4768
12.6795
12.8903
13.1095
13.3378
13.5728
13.8172
14.0779
14.3571
14.6574
14.9814
15.3324
15.7144
16.1322
16.5918
17.1008
17.6685
18.3074
19.0336
19.869
20.8447
22.002
23.4153
25.1614
27.5082
30.4906
35.7894
41.6894
61.9114
6.99318
6.99595
7.00279
7.01312
7.02636
7.0423
7.06087
7.08196
7.10546
7.13125
7.15926
7.18942
7.22165
7.25591
7.29214
7.33031
7.37039
7.41233
7.45613
7.50177
7.54922
7.59849
7.64957
7.70245
7.75714
7.81365
7.87198
7.93215
7.99417
8.05807
8.12386
8.19157
8.26123
8.33287
8.40653
8.48224
8.56005
8.64
8.72214
8.80653
8.89321
8.98226
9.07373
9.1677
9.26423
9.36342
9.46535
9.5701
9.67778
9.78848
9.90232
10.0194
10.1399
10.2639
10.3916
10.5231
10.6586
10.7983
10.9424
11.091
11.2445
11.403
11.5668
11.7362
11.9116
12.0932
12.2814
12.4767
12.6795
12.8902
13.1094
13.3377
13.5727
13.817
14.0778
14.357
14.6572
14.9812
15.3322
15.7141
16.1319
16.5915
17.1003
17.668
18.3068
19.0329
19.8679
20.8433
22.0001
23.4126
25.1574
27.5008
30.479
35.7474
41.6101
61.1853
6.99318
6.99595
7.00279
7.01312
7.02636
7.0423
7.06087
7.08196
7.10545
7.13125
7.15926
7.18942
7.22165
7.25591
7.29214
7.33031
7.37039
7.41233
7.45613
7.50177
7.54922
7.59849
7.64957
7.70245
7.75714
7.81365
7.87198
7.93215
7.99417
8.05807
8.12386
8.19157
8.26123
8.33287
8.40653
8.48224
8.56005
8.64
8.72214
8.80652
8.89321
8.98225
9.07372
9.16769
9.26423
9.36342
9.46534
9.57009
9.67776
9.78847
9.90231
10.0194
10.1399
10.2639
10.3916
10.5231
10.6586
10.7983
10.9424
11.091
11.2444
11.4029
11.5668
11.7362
11.9115
12.0931
12.2814
12.4767
12.6794
12.8901
13.1093
13.3376
13.5726
13.8169
14.0776
14.3568
14.657
14.981
15.3319
15.7138
16.1316
16.5911
17.0999
17.6675
18.3061
19.032
19.8668
20.8418
21.9981
23.4096
25.153
27.4928
30.4665
35.7028
41.5261
60.4624
6.99318
6.99595
7.00279
7.01311
7.02636
7.0423
7.06087
7.08196
7.10545
7.13125
7.15926
7.18942
7.22165
7.25591
7.29214
7.33031
7.37038
7.41233
7.45613
7.50177
7.54922
7.59849
7.64957
7.70245
7.75714
7.81364
7.87198
7.93215
7.99417
8.05806
8.12385
8.19156
8.26123
8.33287
8.40652
8.48224
8.56004
8.63999
8.72213
8.80652
8.8932
8.98225
9.07372
9.16768
9.26422
9.36341
9.46533
9.57008
9.67775
9.78846
9.9023
10.0194
10.1399
10.2639
10.3916
10.5231
10.6586
10.7983
10.9423
11.091
11.2444
11.4029
11.5667
11.7361
11.9115
12.0931
12.2813
12.4766
12.6793
12.89
13.1092
13.3375
13.5725
13.8168
14.0775
14.3567
14.6569
14.9808
15.3317
15.7135
16.1312
16.5907
17.0994
17.6669
18.3053
19.0311
19.8656
20.8402
21.9959
23.4064
25.1483
27.4842
30.453
35.6556
41.4372
59.743
6.99318
6.99595
7.00279
7.01311
7.02636
7.0423
7.06087
7.08196
7.10545
7.13125
7.15926
7.18942
7.22165
7.25591
7.29214
7.33031
7.37038
7.41233
7.45613
7.50177
7.54922
7.59849
7.64956
7.70245
7.75714
7.81364
7.87197
7.93214
7.99417
8.05806
8.12385
8.19156
8.26122
8.33286
8.40652
8.48223
8.56004
8.63999
8.72213
8.80651
8.8932
8.98224
9.07371
9.16767
9.26421
9.3634
9.46532
9.57007
9.67774
9.78844
9.90228
10.0194
10.1399
10.2639
10.3916
10.5231
10.6586
10.7982
10.9423
11.0909
11.2444
11.4029
11.5667
11.7361
11.9114
12.093
12.2813
12.4765
12.6793
12.8899
13.1091
13.3374
13.5724
13.8167
14.0773
14.3565
14.6567
14.9805
15.3314
15.7132
16.1309
16.5902
17.0989
17.6662
18.3046
19.0301
19.8643
20.8385
21.9935
23.403
25.1433
27.475
30.4384
35.6056
41.3435
59.0273
6.99318
6.99595
7.00279
7.01311
7.02636
7.0423
7.06087
7.08196
7.10545
7.13125
7.15926
7.18941
7.22165
7.2559
7.29214
7.33031
7.37038
7.41233
7.45613
7.50176
7.54922
7.59849
7.64956
7.70244
7.75713
7.81364
7.87197
7.93214
7.99416
8.05806
8.12385
8.19156
8.26122
8.33286
8.40652
8.48223
8.56003
8.63998
8.72212
8.80651
8.89319
8.98223
9.0737
9.16767
9.2642
9.36339
9.46531
9.57006
9.67773
9.78843
9.90227
10.0194
10.1399
10.2639
10.3915
10.523
10.6585
10.7982
10.9423
11.0909
11.2443
11.4028
11.5666
11.736
11.9114
12.093
12.2812
12.4764
12.6792
12.8899
13.109
13.3373
13.5722
13.8165
14.0772
14.3563
14.6564
14.9803
15.3311
15.7129
16.1305
16.5898
17.0983
17.6655
18.3037
19.029
19.863
20.8367
21.991
23.3993
25.1378
27.4651
30.4228
35.5528
41.2448
58.3156
6.99318
6.99595
7.00279
7.01311
7.02635
7.0423
7.06086
7.08195
7.10545
7.13125
7.15926
7.18941
7.22165
7.2559
7.29214
7.33031
7.37038
7.41233
7.45613
7.50176
7.54922
7.59848
7.64956
7.70244
7.75713
7.81364
7.87197
7.93214
7.99416
8.05805
8.12384
8.19155
8.26121
8.33285
8.40651
8.48222
8.56003
8.63998
8.72212
8.8065
8.89318
8.98222
9.07369
9.16766
9.26419
9.36338
9.4653
9.57004
9.67771
9.78841
9.90225
10.0194
10.1398
10.2638
10.3915
10.523
10.6585
10.7982
10.9422
11.0909
11.2443
11.4028
11.5666
11.736
11.9113
12.0929
12.2811
12.4764
12.6791
12.8898
13.1089
13.3372
13.5721
13.8163
14.077
14.3561
14.6562
14.98
15.3308
15.7125
16.13
16.5893
17.0977
17.6648
18.3028
19.0278
19.8615
20.8347
21.9883
23.3953
25.132
27.4545
30.406
35.4972
41.1411
57.6081
6.99318
6.99595
7.00279
7.01311
7.02635
7.0423
7.06086
7.08195
7.10545
7.13125
7.15926
7.18941
7.22165
7.2559
7.29214
7.33031
7.37038
7.41233
7.45613
7.50176
7.54922
7.59848
7.64956
7.70244
7.75713
7.81364
7.87197
7.93213
7.99416
8.05805
8.12384
8.19155
8.26121
8.33285
8.40651
8.48222
8.56002
8.63997
8.72211
8.80649
8.89317
8.98222
9.07368
9.16765
9.26418
9.36336
9.46528
9.57003
9.6777
9.7884
9.90224
10.0193
10.1398
10.2638
10.3915
10.523
10.6585
10.7982
10.9422
11.0908
11.2442
11.4027
11.5665
11.7359
11.9113
12.0928
12.281
12.4763
12.679
12.8896
13.1088
13.337
13.5719
13.8162
14.0768
14.3559
14.656
14.9797
15.3305
15.7122
16.1296
16.5887
17.0971
17.664
18.3018
19.0266
19.8599
20.8326
21.9854
23.3911
25.1257
27.4432
30.3881
35.4389
41.0323
56.905
6.99318
6.99594
7.00279
7.01311
7.02635
7.0423
7.06086
7.08195
7.10545
7.13125
7.15926
7.18941
7.22164
7.2559
7.29214
7.33031
7.37038
7.41233
7.45612
7.50176
7.54921
7.59848
7.64956
7.70244
7.75713
7.81363
7.87196
7.93213
7.99415
8.05805
8.12384
8.19155
8.26121
8.33285
8.4065
8.48221
8.56002
8.63997
8.7221
8.80648
8.89317
8.98221
9.07367
9.16764
9.26417
9.36335
9.46527
9.57002
9.67768
9.78838
9.90222
10.0193
10.1398
10.2638
10.3915
10.523
10.6585
10.7981
10.9422
11.0908
11.2442
11.4027
11.5665
11.7359
11.9112
12.0928
12.281
12.4762
12.6789
12.8895
13.1087
13.3369
13.5718
13.816
14.0766
14.3557
14.6557
14.9794
15.3301
15.7117
16.1291
16.5882
17.0964
17.6632
18.3008
19.0253
19.8582
20.8303
21.9823
23.3866
25.1191
27.4312
30.3689
35.3776
40.9185
56.2066
6.99318
6.99594
7.00278
7.01311
7.02635
7.0423
7.06086
7.08195
7.10545
7.13125
7.15926
7.18941
7.22164
7.2559
7.29213
7.3303
7.37038
7.41232
7.45612
7.50176
7.54921
7.59848
7.64955
7.70243
7.75712
7.81363
7.87196
7.93213
7.99415
8.05804
8.12383
8.19154
8.2612
8.33284
8.4065
8.48221
8.56001
8.63996
8.7221
8.80648
8.89316
8.9822
9.07366
9.16763
9.26416
9.36334
9.46526
9.57
9.67767
9.78836
9.9022
10.0193
10.1398
10.2638
10.3914
10.5229
10.6584
10.7981
10.9421
11.0907
11.2442
11.4026
11.5664
11.7358
11.9111
12.0927
12.2809
12.4761
12.6788
12.8894
13.1085
13.3367
13.5716
13.8158
14.0764
14.3554
14.6554
14.9791
15.3298
15.7113
16.1286
16.5876
17.0956
17.6623
18.2997
19.0239
19.8564
20.8279
21.979
23.3818
25.112
27.4185
30.3484
35.3135
40.7995
55.513
6.99318
6.99594
7.00278
7.01311
7.02635
7.0423
7.06086
7.08195
7.10545
7.13124
7.15926
7.18941
7.22164
7.2559
7.29213
7.3303
7.37037
7.41232
7.45612
7.50175
7.54921
7.59848
7.64955
7.70243
7.75712
7.81363
7.87196
7.93213
7.99415
8.05804
8.12383
8.19154
8.2612
8.33284
8.40649
8.4822
8.56
8.63995
8.72209
8.80647
8.89315
8.98219
9.07365
9.16761
9.26414
9.36333
9.46524
9.56998
9.67765
9.78834
9.90217
10.0193
10.1397
10.2637
10.3914
10.5229
10.6584
10.798
10.9421
11.0907
11.2441
11.4026
11.5663
11.7357
11.911
12.0926
12.2808
12.476
12.6786
12.8893
13.1084
13.3366
13.5714
13.8156
14.0761
14.3551
14.6551
14.9788
15.3294
15.7108
16.128
16.5869
17.0948
17.6613
18.2985
19.0224
19.8544
20.8253
21.9755
23.3767
25.1044
27.4049
30.3266
35.2465
40.6753
54.8244
6.99318
6.99594
7.00278
7.01311
7.02635
7.04229
7.06086
7.08195
7.10545
7.13124
7.15925
7.18941
7.22164
7.2559
7.29213
7.3303
7.37037
7.41232
7.45612
7.50175
7.54921
7.59847
7.64955
7.70243
7.75712
7.81362
7.87195
7.93212
7.99414
8.05804
8.12382
8.19153
8.26119
8.33283
8.40648
8.48219
8.56
8.63994
8.72208
8.80646
8.89314
8.98218
9.07364
9.1676
9.26413
9.36331
9.46522
9.56997
9.67763
9.78832
9.90215
10.0192
10.1397
10.2637
10.3914
10.5229
10.6583
10.798
10.942
11.0906
11.244
11.4025
11.5663
11.7357
11.9109
12.0925
12.2807
12.4759
12.6785
12.8891
13.1082
13.3364
13.5712
13.8154
14.0759
14.3549
14.6548
14.9784
15.3289
15.7103
16.1274
16.5862
17.094
17.6603
18.2972
19.0208
19.8524
20.8226
21.9718
23.3712
25.0964
27.3906
30.3034
35.1765
40.546
54.1412
6.99318
6.99594
7.00278
7.01311
7.02635
7.04229
7.06086
7.08195
7.10545
7.13124
7.15925
7.18941
7.22164
7.2559
7.29213
7.3303
7.37037
7.41232
7.45612
7.50175
7.5492
7.59847
7.64955
7.70243
7.75712
7.81362
7.87195
7.93212
7.99414
8.05803
8.12382
8.19153
8.26119
8.33282
8.40648
8.48219
8.55999
8.63994
8.72207
8.80645
8.89313
8.98216
9.07363
9.16759
9.26412
9.36329
9.46521
9.56995
9.67761
9.7883
9.90213
10.0192
10.1397
10.2637
10.3913
10.5228
10.6583
10.798
10.942
11.0906
11.244
11.4024
11.5662
11.7356
11.9109
12.0924
12.2806
12.4757
12.6784
12.889
13.1081
13.3362
13.571
13.8151
14.0756
14.3546
14.6544
14.978
15.3285
15.7098
16.1268
16.5855
17.0931
17.6592
18.2959
19.0191
19.8502
20.8197
21.9678
23.3654
25.0878
27.3754
30.2788
35.1036
40.4114
53.4634
6.99317
6.99594
7.00278
7.01311
7.02635
7.04229
7.06086
7.08195
7.10544
7.13124
7.15925
7.1894
7.22164
7.25589
7.29213
7.3303
7.37037
7.41232
7.45612
7.50175
7.5492
7.59847
7.64954
7.70242
7.75711
7.81362
7.87195
7.93211
7.99413
8.05803
8.12381
8.19152
8.26118
8.33282
8.40647
8.48218
8.55998
8.63993
8.72206
8.80644
8.89312
8.98215
9.07362
9.16757
9.2641
9.36328
9.46519
9.56993
9.67759
9.78828
9.9021
10.0192
10.1397
10.2636
10.3913
10.5228
10.6583
10.7979
10.9419
11.0905
11.2439
11.4024
11.5661
11.7355
11.9108
12.0923
12.2804
12.4756
12.6782
12.8888
13.1079
13.336
13.5708
13.8149
14.0753
14.3542
14.6541
14.9776
15.328
15.7092
16.1262
16.5847
17.0922
17.6581
18.2944
19.0173
19.8479
20.8166
21.9636
23.3593
25.0788
27.3593
30.2528
35.0276
40.2716
52.7912
6.99317
6.99594
7.00278
7.01311
7.02635
7.04229
7.06086
7.08195
7.10544
7.13124
7.15925
7.1894
7.22164
7.25589
7.29213
7.3303
7.37037
7.41231
7.45611
7.50175
7.5492
7.59847
7.64954
7.70242
7.75711
7.81361
7.87194
7.93211
7.99413
8.05802
8.12381
8.19152
8.26117
8.33281
8.40646
8.48217
8.55997
8.63992
8.72205
8.80643
8.8931
8.98214
9.0736
9.16756
9.26408
9.36326
9.46517
9.56991
9.67756
9.78825
9.90207
10.0192
10.1396
10.2636
10.3913
10.5227
10.6582
10.7979
10.9419
11.0905
11.2438
11.4023
11.566
11.7354
11.9107
12.0922
12.2803
12.4755
12.6781
12.8886
13.1077
13.3358
13.5705
13.8146
14.075
14.3539
14.6537
14.9771
15.3275
15.7086
16.1255
16.5838
17.0912
17.6569
18.2929
19.0154
19.8454
20.8133
21.9591
23.3528
25.0692
27.3423
30.2252
34.9487
40.1266
52.1249
6.99317
6.99594
7.00278
7.0131
7.02635
7.04229
7.06086
7.08195
7.10544
7.13124
7.15925
7.1894
7.22163
7.25589
7.29212
7.33029
7.37036
7.41231
7.45611
7.50174
7.5492
7.59846
7.64954
7.70242
7.75711
7.81361
7.87194
7.9321
7.99412
8.05802
8.1238
8.19151
8.26117
8.3328
8.40645
8.48216
8.55996
8.63991
8.72204
8.80642
8.89309
8.98213
9.07359
9.16754
9.26407
9.36324
9.46515
9.56988
9.67754
9.78822
9.90205
10.0191
10.1396
10.2636
10.3912
10.5227
10.6582
10.7978
10.9418
11.0904
11.2438
11.4022
11.566
11.7353
11.9106
12.0921
12.2802
12.4753
12.6779
12.8885
13.1075
13.3356
13.5703
13.8143
14.0747
14.3535
14.6533
14.9767
15.3269
15.708
16.1247
16.583
17.0901
17.6556
18.2913
19.0134
19.8428
20.8099
21.9544
23.346
25.059
27.3244
30.196
34.8667
39.9763
51.4646
6.99317
6.99594
7.00278
7.0131
7.02634
7.04229
7.06085
7.08194
7.10544
7.13124
7.15925
7.1894
7.22163
7.25589
7.29212
7.33029
7.37036
7.41231
7.45611
7.50174
7.54919
7.59846
7.64953
7.70241
7.7571
7.81361
7.87193
7.9321
7.99412
8.05801
8.1238
8.1915
8.26116
8.33279
8.40645
8.48215
8.55995
8.6399
8.72203
8.8064
8.89308
8.98211
9.07357
9.16752
9.26405
9.36322
9.46513
9.56986
9.67751
9.7882
9.90201
10.0191
10.1396
10.2635
10.3912
10.5226
10.6581
10.7977
10.9417
11.0903
11.2437
11.4021
11.5659
11.7352
11.9104
12.0919
12.28
12.4752
12.6777
12.8883
13.1073
13.3353
13.57
13.814
14.0744
14.3532
14.6528
14.9762
15.3264
15.7073
16.1239
16.582
17.089
17.6542
18.2896
19.0112
19.8401
20.8062
21.9494
23.3387
25.0483
27.3056
30.1652
34.7816
39.8208
50.8104
6.99317
6.99594
7.00278
7.0131
7.02634
7.04229
7.06085
7.08194
7.10544
7.13123
7.15925
7.1894
7.22163
7.25589
7.29212
7.33029
7.37036
7.41231
7.4561
7.50174
7.54919
7.59846
7.64953
7.70241
7.7571
7.8136
7.87193
7.93209
7.99411
8.058
8.12379
8.1915
8.26115
8.33279
8.40644
8.48214
8.55994
8.63989
8.72202
8.80639
8.89306
8.9821
9.07355
9.16751
9.26403
9.3632
9.4651
9.56983
9.67749
9.78817
9.90198
10.0191
10.1395
10.2635
10.3911
10.5226
10.6581
10.7977
10.9417
11.0902
11.2436
11.402
11.5658
11.7351
11.9103
12.0918
12.2799
12.475
12.6776
12.8881
13.107
13.3351
13.5697
13.8137
14.074
14.3527
14.6524
14.9756
15.3257
15.7066
16.1231
16.581
17.0878
17.6527
18.2878
19.009
19.8372
20.8023
21.9441
23.331
25.0369
27.2857
30.1327
34.6935
39.6602
50.1625
6.99317
6.99594
7.00277
7.0131
7.02634
7.04229
7.06085
7.08194
7.10544
7.13123
7.15924
7.1894
7.22163
7.25588
7.29212
7.33029
7.37036
7.4123
7.4561
7.50173
7.54919
7.59845
7.64953
7.7024
7.75709
7.8136
7.87192
7.93209
7.99411
8.058
8.12378
8.19149
8.26114
8.33278
8.40643
8.48213
8.55993
8.63987
8.722
8.80638
8.89305
8.98208
9.07354
9.16749
9.26401
9.36318
9.46508
9.56981
9.67746
9.78813
9.90195
10.019
10.1395
10.2634
10.3911
10.5225
10.658
10.7976
10.9416
11.0902
11.2435
11.4019
11.5657
11.735
11.9102
12.0917
12.2797
12.4748
12.6774
12.8879
13.1068
13.3348
13.5694
13.8134
14.0736
14.3523
14.6519
14.9751
15.3251
15.7059
16.1222
16.58
17.0865
17.6512
18.2859
19.0066
19.8341
20.7983
21.9385
23.3229
25.025
27.2648
30.0985
34.6023
39.4943
49.5211
6.99317
6.99593
7.00277
7.0131
7.02634
7.04228
7.06085
7.08194
7.10543
7.13123
7.15924
7.18939
7.22163
7.25588
7.29211
7.33028
7.37035
7.4123
7.4561
7.50173
7.54918
7.59845
7.64952
7.7024
7.75709
7.81359
7.87192
7.93208
7.9941
8.05799
8.12378
8.19148
8.26113
8.33277
8.40642
8.48212
8.55992
8.63986
8.72199
8.80636
8.89303
8.98206
9.07352
9.16747
9.26399
9.36315
9.46505
9.56978
9.67743
9.7881
9.90191
10.019
10.1394
10.2634
10.391
10.5225
10.6579
10.7975
10.9415
11.0901
11.2434
11.4018
11.5656
11.7349
11.9101
12.0915
12.2796
12.4746
12.6772
12.8876
13.1066
13.3345
13.5691
13.813
14.0732
14.3519
14.6514
14.9745
15.3244
15.7051
16.1213
16.5789
17.0852
17.6496
18.2839
19.0041
19.8308
20.7939
21.9326
23.3144
25.0124
27.2429
30.0624
34.508
39.3233
48.8862
6.99316
6.99593
7.00277
7.0131
7.02634
7.04228
7.06085
7.08194
7.10543
7.13123
7.15924
7.18939
7.22162
7.25588
7.29211
7.33028
7.37035
7.4123
7.4561
7.50173
7.54918
7.59844
7.64952
7.7024
7.75708
7.81359
7.87191
7.93208
7.99409
8.05798
8.12377
8.19147
8.26113
8.33276
8.40641
8.48211
8.55991
8.63985
8.72198
8.80635
8.89302
8.98204
9.0735
9.16745