/*--------------------------------*- C++ -*----------------------------------*\
| =========                 |                                                 |
| \\      /  F ield         | OpenFOAM: The Open Source CFD Toolbox           |
|  \\    /   O peration     | Version:  v2012                                 |
|   \\  /    A nd           | Website:  www.openfoam.com                      |
|    \\/     M anipulation  |                                                 |
\*---------------------------------------------------------------------------*/
FoamFile
{
    version     2.0;
    format      ascii;
    class       volVectorField;
    location    "6.5";
    object      wallShearStress;
}
// * * * * * * * * * * * * * * * * * * * * * * * * * * * * * * * * * * * * * //

dimensions      [0 2 -2 0 0 0 0];


internalField   uniform (0 0 0);

boundaryField
{
    inlet
    {
        type            calculated;
        value           uniform (0 0 0);
    }
    outlet
    {
        type            calculated;
        value           uniform (0 0 0);
    }
    topWall
    {
        type            calculated;
        value           nonuniform List<vector> 
545
(
(9.47958e-09 -1.04658e-08 0)
(9.47528e-09 -2.92764e-08 0)
(9.46654e-09 -4.88328e-08 0)
(9.45357e-09 -6.78154e-08 0)
(9.43693e-09 -8.59778e-08 0)
(9.41705e-09 -1.03551e-07 0)
(9.39419e-09 -1.20683e-07 0)
(9.36857e-09 -1.37364e-07 0)
(9.34045e-09 -1.53557e-07 0)
(9.31007e-09 -1.69259e-07 0)
(9.27768e-09 -1.84492e-07 0)
(9.24348e-09 -1.99272e-07 0)
(9.20767e-09 -2.13611e-07 0)
(9.17043e-09 -2.27516e-07 0)
(9.13195e-09 -2.40997e-07 0)
(9.09238e-09 -2.54068e-07 0)
(9.05186e-09 -2.66737e-07 0)
(9.01056e-09 -2.79017e-07 0)
(8.96858e-09 -2.90918e-07 0)
(8.92606e-09 -3.02451e-07 0)
(8.88311e-09 -3.13626e-07 0)
(8.83982e-09 -3.24454e-07 0)
(8.7963e-09 -3.34944e-07 0)
(8.75264e-09 -3.45108e-07 0)
(8.70891e-09 -3.54954e-07 0)
(8.66519e-09 -3.64492e-07 0)
(8.62155e-09 -3.73733e-07 0)
(8.57805e-09 -3.82684e-07 0)
(8.53474e-09 -3.91355e-07 0)
(8.49169e-09 -3.99755e-07 0)
(8.44894e-09 -4.07892e-07 0)
(8.40653e-09 -4.15775e-07 0)
(8.36449e-09 -4.23412e-07 0)
(8.32288e-09 -4.3081e-07 0)
(8.28171e-09 -4.37977e-07 0)
(8.24101e-09 -4.44921e-07 0)
(8.20081e-09 -4.51649e-07 0)
(8.16114e-09 -4.58168e-07 0)
(8.122e-09 -4.64484e-07 0)
(8.08342e-09 -4.70604e-07 0)
(8.04541e-09 -4.76535e-07 0)
(8.00799e-09 -4.82282e-07 0)
(7.97116e-09 -4.87852e-07 0)
(7.93493e-09 -4.9325e-07 0)
(7.89932e-09 -4.98482e-07 0)
(7.86431e-09 -5.03553e-07 0)
(7.82992e-09 -5.08469e-07 0)
(7.79616e-09 -5.13235e-07 0)
(7.76301e-09 -5.17855e-07 0)
(7.73049e-09 -5.22334e-07 0)
(7.69859e-09 -5.26677e-07 0)
(7.6673e-09 -5.30889e-07 0)
(7.63664e-09 -5.34972e-07 0)
(7.60658e-09 -5.38932e-07 0)
(7.57713e-09 -5.42773e-07 0)
(7.54829e-09 -5.46498e-07 0)
(7.52004e-09 -5.50111e-07 0)
(7.49239e-09 -5.53616e-07 0)
(7.46532e-09 -5.57016e-07 0)
(7.43882e-09 -5.60315e-07 0)
(7.41291e-09 -5.63515e-07 0)
(7.38755e-09 -5.6662e-07 0)
(7.36275e-09 -5.69633e-07 0)
(7.3385e-09 -5.72557e-07 0)
(7.31479e-09 -5.75394e-07 0)
(7.29161e-09 -5.78148e-07 0)
(7.26896e-09 -5.80821e-07 0)
(7.24682e-09 -5.83415e-07 0)
(7.22519e-09 -5.85933e-07 0)
(7.20406e-09 -5.88378e-07 0)
(7.18338e-09 -5.90752e-07 0)
(7.16334e-09 -5.93053e-07 0)
(7.14388e-09 -5.95264e-07 0)
(7.12473e-09 -5.97408e-07 0)
(7.10579e-09 -5.99525e-07 0)
(7.08692e-09 -6.0163e-07 0)
(7.0681e-09 -6.03723e-07 0)
(7.04931e-09 -6.05801e-07 0)
(7.03056e-09 -6.07864e-07 0)
(7.01185e-09 -6.09911e-07 0)
(6.99317e-09 -6.11943e-07 0)
(6.97453e-09 -6.13961e-07 0)
(6.95593e-09 -6.15964e-07 0)
(6.93737e-09 -6.17953e-07 0)
(6.91885e-09 -6.19927e-07 0)
(6.90037e-09 -6.21887e-07 0)
(6.88193e-09 -6.23833e-07 0)
(6.86353e-09 -6.25765e-07 0)
(6.84517e-09 -6.27683e-07 0)
(6.82685e-09 -6.29587e-07 0)
(6.80858e-09 -6.31477e-07 0)
(6.79035e-09 -6.33354e-07 0)
(6.77216e-09 -6.35217e-07 0)
(6.75405e-09 -6.37065e-07 0)
(6.73579e-09 -6.38905e-07 0)
(6.71845e-09 -6.40711e-07 0)
(6.70243e-09 -6.42364e-07 0)
(6.68698e-09 -6.4386e-07 0)
(6.67206e-09 -6.45315e-07 0)
(6.65721e-09 -6.46775e-07 0)
(6.64234e-09 -6.48247e-07 0)
(6.62742e-09 -6.49722e-07 0)
(6.61244e-09 -6.51194e-07 0)
(6.5974e-09 -6.52664e-07 0)
(6.58231e-09 -6.54135e-07 0)
(6.56715e-09 -6.55606e-07 0)
(6.55193e-09 -6.57078e-07 0)
(6.53666e-09 -6.5855e-07 0)
(6.52132e-09 -6.60021e-07 0)
(6.50593e-09 -6.61493e-07 0)
(6.49048e-09 -6.62964e-07 0)
(6.47496e-09 -6.64436e-07 0)
(6.45939e-09 -6.65907e-07 0)
(6.44376e-09 -6.67379e-07 0)
(6.42806e-09 -6.6885e-07 0)
(6.41231e-09 -6.70321e-07 0)
(6.3965e-09 -6.71792e-07 0)
(6.38062e-09 -6.73263e-07 0)
(6.36469e-09 -6.74733e-07 0)
(6.3487e-09 -6.76204e-07 0)
(6.33265e-09 -6.77674e-07 0)
(6.31653e-09 -6.79144e-07 0)
(6.30036e-09 -6.80613e-07 0)
(6.28412e-09 -6.82083e-07 0)
(6.26783e-09 -6.83551e-07 0)
(6.25148e-09 -6.8502e-07 0)
(6.23506e-09 -6.86488e-07 0)
(6.21859e-09 -6.87956e-07 0)
(6.20205e-09 -6.89423e-07 0)
(6.18545e-09 -6.9089e-07 0)
(6.1688e-09 -6.92356e-07 0)
(6.15208e-09 -6.93822e-07 0)
(6.1353e-09 -6.95288e-07 0)
(6.11847e-09 -6.96752e-07 0)
(6.10157e-09 -6.98216e-07 0)
(6.08461e-09 -6.9968e-07 0)
(6.06759e-09 -7.01143e-07 0)
(6.05051e-09 -7.02605e-07 0)
(6.03337e-09 -7.04067e-07 0)
(6.01617e-09 -7.05528e-07 0)
(5.99891e-09 -7.06988e-07 0)
(5.98159e-09 -7.08447e-07 0)
(5.96421e-09 -7.09906e-07 0)
(5.94676e-09 -7.11363e-07 0)
(5.92926e-09 -7.1282e-07 0)
(5.9117e-09 -7.14276e-07 0)
(5.89407e-09 -7.15731e-07 0)
(5.87639e-09 -7.17185e-07 0)
(5.85864e-09 -7.18639e-07 0)
(5.84084e-09 -7.20091e-07 0)
(5.82298e-09 -7.21542e-07 0)
(5.80505e-09 -7.22992e-07 0)
(5.78707e-09 -7.24441e-07 0)
(5.76902e-09 -7.25889e-07 0)
(5.75092e-09 -7.27336e-07 0)
(5.73275e-09 -7.28782e-07 0)
(5.71452e-09 -7.30227e-07 0)
(5.69624e-09 -7.3167e-07 0)
(5.67789e-09 -7.33112e-07 0)
(5.65949e-09 -7.34553e-07 0)
(5.64103e-09 -7.35992e-07 0)
(5.6225e-09 -7.37431e-07 0)
(5.60392e-09 -7.38868e-07 0)
(5.58527e-09 -7.40303e-07 0)
(5.56657e-09 -7.41737e-07 0)
(5.54781e-09 -7.4317e-07 0)
(5.52899e-09 -7.44601e-07 0)
(5.51011e-09 -7.4603e-07 0)
(5.49117e-09 -7.47459e-07 0)
(5.47217e-09 -7.48885e-07 0)
(5.45312e-09 -7.5031e-07 0)
(5.434e-09 -7.51733e-07 0)
(5.41483e-09 -7.53155e-07 0)
(5.39559e-09 -7.54575e-07 0)
(5.3763e-09 -7.55993e-07 0)
(5.35695e-09 -7.5741e-07 0)
(5.33755e-09 -7.58824e-07 0)
(5.31808e-09 -7.60237e-07 0)
(5.29856e-09 -7.61648e-07 0)
(5.27898e-09 -7.63057e-07 0)
(5.25934e-09 -7.64465e-07 0)
(5.23965e-09 -7.6587e-07 0)
(5.21989e-09 -7.67273e-07 0)
(5.20008e-09 -7.68675e-07 0)
(5.18022e-09 -7.70074e-07 0)
(5.16029e-09 -7.71471e-07 0)
(5.14031e-09 -7.72866e-07 0)
(5.12027e-09 -7.74259e-07 0)
(5.10018e-09 -7.7565e-07 0)
(5.08003e-09 -7.77038e-07 0)
(5.05983e-09 -7.78425e-07 0)
(5.03957e-09 -7.79809e-07 0)
(5.01925e-09 -7.8119e-07 0)
(4.99888e-09 -7.8257e-07 0)
(4.97845e-09 -7.83947e-07 0)
(4.95797e-09 -7.85321e-07 0)
(4.93743e-09 -7.86693e-07 0)
(4.91684e-09 -7.88063e-07 0)
(4.8962e-09 -7.8943e-07 0)
(4.8755e-09 -7.90795e-07 0)
(4.85475e-09 -7.92157e-07 0)
(4.83394e-09 -7.93516e-07 0)
(4.81308e-09 -7.94873e-07 0)
(4.79217e-09 -7.96227e-07 0)
(4.7712e-09 -7.97578e-07 0)
(4.75018e-09 -7.98927e-07 0)
(4.72911e-09 -8.00273e-07 0)
(4.70799e-09 -8.01616e-07 0)
(4.68681e-09 -8.02956e-07 0)
(4.66559e-09 -8.04293e-07 0)
(4.64431e-09 -8.05627e-07 0)
(4.62298e-09 -8.06959e-07 0)
(4.6016e-09 -8.08287e-07 0)
(4.58017e-09 -8.09612e-07 0)
(4.55869e-09 -8.10934e-07 0)
(4.53716e-09 -8.12253e-07 0)
(4.51558e-09 -8.13569e-07 0)
(4.49395e-09 -8.14882e-07 0)
(4.47228e-09 -8.16191e-07 0)
(4.45055e-09 -8.17497e-07 0)
(4.42878e-09 -8.188e-07 0)
(4.40695e-09 -8.201e-07 0)
(4.38508e-09 -8.21396e-07 0)
(4.36317e-09 -8.22689e-07 0)
(4.3412e-09 -8.23978e-07 0)
(4.31919e-09 -8.25264e-07 0)
(4.29713e-09 -8.26546e-07 0)
(4.27503e-09 -8.27825e-07 0)
(4.25288e-09 -8.291e-07 0)
(4.23069e-09 -8.30371e-07 0)
(4.20845e-09 -8.31639e-07 0)
(4.18617e-09 -8.32903e-07 0)
(4.16384e-09 -8.34164e-07 0)
(4.14147e-09 -8.3542e-07 0)
(4.11905e-09 -8.36673e-07 0)
(4.0966e-09 -8.37922e-07 0)
(4.0741e-09 -8.39167e-07 0)
(4.05156e-09 -8.40408e-07 0)
(4.02898e-09 -8.41645e-07 0)
(4.00635e-09 -8.42878e-07 0)
(3.98369e-09 -8.44107e-07 0)
(3.96098e-09 -8.45332e-07 0)
(3.93824e-09 -8.46552e-07 0)
(3.91545e-09 -8.47769e-07 0)
(3.89263e-09 -8.48981e-07 0)
(3.86977e-09 -8.50189e-07 0)
(3.84687e-09 -8.51393e-07 0)
(3.82393e-09 -8.52593e-07 0)
(3.80096e-09 -8.53788e-07 0)
(3.77794e-09 -8.54978e-07 0)
(3.7549e-09 -8.56165e-07 0)
(3.73181e-09 -8.57346e-07 0)
(3.70869e-09 -8.58524e-07 0)
(3.68554e-09 -8.59696e-07 0)
(3.66235e-09 -8.60864e-07 0)
(3.63913e-09 -8.62028e-07 0)
(3.61588e-09 -8.63186e-07 0)
(3.59259e-09 -8.6434e-07 0)
(3.56927e-09 -8.6549e-07 0)
(3.54592e-09 -8.66634e-07 0)
(3.52254e-09 -8.67774e-07 0)
(3.49913e-09 -8.68909e-07 0)
(3.47568e-09 -8.70038e-07 0)
(3.45221e-09 -8.71163e-07 0)
(3.42871e-09 -8.72283e-07 0)
(3.40518e-09 -8.73398e-07 0)
(3.38165e-09 -8.74508e-07 0)
(3.35793e-09 -8.75614e-07 0)
(3.33488e-09 -8.76707e-07 0)
(3.31279e-09 -8.77744e-07 0)
(3.29106e-09 -8.78726e-07 0)
(3.2696e-09 -8.79697e-07 0)
(3.24804e-09 -8.80674e-07 0)
(3.2263e-09 -8.8166e-07 0)
(3.20436e-09 -8.8265e-07 0)
(3.18221e-09 -8.83643e-07 0)
(3.15985e-09 -8.84639e-07 0)
(3.13728e-09 -8.8564e-07 0)
(3.11449e-09 -8.86643e-07 0)
(3.09149e-09 -8.87651e-07 0)
(3.06828e-09 -8.88662e-07 0)
(3.04485e-09 -8.89676e-07 0)
(3.0212e-09 -8.90693e-07 0)
(2.99733e-09 -8.91713e-07 0)
(2.97324e-09 -8.92736e-07 0)
(2.94893e-09 -8.93762e-07 0)
(2.92439e-09 -8.9479e-07 0)
(2.89964e-09 -8.95821e-07 0)
(2.87466e-09 -8.96854e-07 0)
(2.84946e-09 -8.97889e-07 0)
(2.82403e-09 -8.98926e-07 0)
(2.79837e-09 -8.99965e-07 0)
(2.77249e-09 -9.01006e-07 0)
(2.74638e-09 -9.02048e-07 0)
(2.72004e-09 -9.03092e-07 0)
(2.69348e-09 -9.04136e-07 0)
(2.66668e-09 -9.05182e-07 0)
(2.63966e-09 -9.06228e-07 0)
(2.6124e-09 -9.07275e-07 0)
(2.58491e-09 -9.08322e-07 0)
(2.5572e-09 -9.0937e-07 0)
(2.52925e-09 -9.10417e-07 0)
(2.50107e-09 -9.11464e-07 0)
(2.47266e-09 -9.1251e-07 0)
(2.44401e-09 -9.13556e-07 0)
(2.41514e-09 -9.14601e-07 0)
(2.38603e-09 -9.15644e-07 0)
(2.35669e-09 -9.16686e-07 0)
(2.32713e-09 -9.17726e-07 0)
(2.29733e-09 -9.18764e-07 0)
(2.2673e-09 -9.198e-07 0)
(2.23704e-09 -9.20833e-07 0)
(2.20655e-09 -9.21864e-07 0)
(2.17584e-09 -9.22891e-07 0)
(2.14489e-09 -9.23915e-07 0)
(2.11372e-09 -9.24935e-07 0)
(2.08233e-09 -9.25951e-07 0)
(2.05071e-09 -9.26962e-07 0)
(2.01886e-09 -9.27969e-07 0)
(1.9868e-09 -9.28971e-07 0)
(1.95451e-09 -9.29967e-07 0)
(1.92201e-09 -9.30958e-07 0)
(1.88928e-09 -9.31943e-07 0)
(1.85634e-09 -9.32921e-07 0)
(1.82319e-09 -9.33892e-07 0)
(1.78983e-09 -9.34856e-07 0)
(1.75625e-09 -9.35813e-07 0)
(1.72247e-09 -9.36761e-07 0)
(1.68848e-09 -9.37701e-07 0)
(1.6543e-09 -9.38633e-07 0)
(1.61991e-09 -9.39555e-07 0)
(1.58532e-09 -9.40467e-07 0)
(1.55054e-09 -9.4137e-07 0)
(1.51558e-09 -9.42262e-07 0)
(1.48042e-09 -9.43143e-07 0)
(1.44508e-09 -9.44013e-07 0)
(1.40956e-09 -9.4487e-07 0)
(1.37387e-09 -9.45716e-07 0)
(1.338e-09 -9.46548e-07 0)
(1.30197e-09 -9.47368e-07 0)
(1.26577e-09 -9.48174e-07 0)
(1.22941e-09 -9.48965e-07 0)
(1.1929e-09 -9.49741e-07 0)
(1.15624e-09 -9.50503e-07 0)
(1.11944e-09 -9.51248e-07 0)
(1.08249e-09 -9.51977e-07 0)
(1.04542e-09 -9.5269e-07 0)
(1.00821e-09 -9.53384e-07 0)
(9.70886e-10 -9.54061e-07 0)
(9.33445e-10 -9.5472e-07 0)
(8.95895e-10 -9.55359e-07 0)
(8.58241e-10 -9.55979e-07 0)
(8.20492e-10 -9.56578e-07 0)
(7.82653e-10 -9.57157e-07 0)
(7.44733e-10 -9.57714e-07 0)
(7.06738e-10 -9.58249e-07 0)
(6.68675e-10 -9.58762e-07 0)
(6.30554e-10 -9.59252e-07 0)
(5.92381e-10 -9.59717e-07 0)
(5.54165e-10 -9.60159e-07 0)
(5.15914e-10 -9.60575e-07 0)
(4.77638e-10 -9.60966e-07 0)
(4.39344e-10 -9.6133e-07 0)
(4.01042e-10 -9.61668e-07 0)
(3.62741e-10 -9.61978e-07 0)
(3.24452e-10 -9.6226e-07 0)
(2.86182e-10 -9.62513e-07 0)
(2.47943e-10 -9.62737e-07 0)
(2.09745e-10 -9.62931e-07 0)
(1.71598e-10 -9.63094e-07 0)
(1.33512e-10 -9.63225e-07 0)
(9.54986e-11 -9.63325e-07 0)
(5.75683e-11 -9.63392e-07 0)
(1.97325e-11 -9.63426e-07 0)
(-1.79975e-11 -9.63426e-07 0)
(-5.56101e-11 -9.63392e-07 0)
(-9.30937e-11 -9.63322e-07 0)
(-1.30436e-10 -9.63217e-07 0)
(-1.67626e-10 -9.63075e-07 0)
(-2.0465e-10 -9.62896e-07 0)
(-2.41496e-10 -9.62679e-07 0)
(-2.78153e-10 -9.62424e-07 0)
(-3.14606e-10 -9.6213e-07 0)
(-3.50843e-10 -9.61797e-07 0)
(-3.86852e-10 -9.61423e-07 0)
(-4.22618e-10 -9.61009e-07 0)
(-4.5813e-10 -9.60553e-07 0)
(-4.93373e-10 -9.60056e-07 0)
(-5.28334e-10 -9.59516e-07 0)
(-5.63001e-10 -9.58933e-07 0)
(-5.97358e-10 -9.58307e-07 0)
(-6.31393e-10 -9.57636e-07 0)
(-6.65092e-10 -9.56921e-07 0)
(-6.98442e-10 -9.56161e-07 0)
(-7.31428e-10 -9.55356e-07 0)
(-7.64038e-10 -9.54504e-07 0)
(-7.96256e-10 -9.53605e-07 0)
(-8.28071e-10 -9.5266e-07 0)
(-8.59467e-10 -9.51667e-07 0)
(-8.90432e-10 -9.50627e-07 0)
(-9.20953e-10 -9.49538e-07 0)
(-9.51014e-10 -9.48401e-07 0)
(-9.80604e-10 -9.47214e-07 0)
(-1.00971e-09 -9.45979e-07 0)
(-1.03832e-09 -9.44693e-07 0)
(-1.06641e-09 -9.43358e-07 0)
(-1.09399e-09 -9.41973e-07 0)
(-1.12102e-09 -9.40537e-07 0)
(-1.14751e-09 -9.39051e-07 0)
(-1.17344e-09 -9.37513e-07 0)
(-1.19879e-09 -9.35925e-07 0)
(-1.22356e-09 -9.34286e-07 0)
(-1.24774e-09 -9.32595e-07 0)
(-1.2713e-09 -9.30853e-07 0)
(-1.29425e-09 -9.29059e-07 0)
(-1.31658e-09 -9.27214e-07 0)
(-1.33826e-09 -9.25318e-07 0)
(-1.3593e-09 -9.2337e-07 0)
(-1.37967e-09 -9.21371e-07 0)
(-1.39938e-09 -9.1932e-07 0)
(-1.41842e-09 -9.17219e-07 0)
(-1.43677e-09 -9.15066e-07 0)
(-1.45443e-09 -9.12862e-07 0)
(-1.4714e-09 -9.10608e-07 0)
(-1.48765e-09 -9.08304e-07 0)
(-1.5032e-09 -9.05949e-07 0)
(-1.51802e-09 -9.03545e-07 0)
(-1.53213e-09 -9.01092e-07 0)
(-1.5455e-09 -8.98589e-07 0)
(-1.55814e-09 -8.96038e-07 0)
(-1.57005e-09 -8.93439e-07 0)
(-1.58122e-09 -8.90792e-07 0)
(-1.59164e-09 -8.88098e-07 0)
(-1.60131e-09 -8.85357e-07 0)
(-1.61025e-09 -8.82571e-07 0)
(-1.61843e-09 -8.7974e-07 0)
(-1.62586e-09 -8.76863e-07 0)
(-1.63254e-09 -8.73943e-07 0)
(-1.63848e-09 -8.7098e-07 0)
(-1.64367e-09 -8.67974e-07 0)
(-1.64811e-09 -8.64927e-07 0)
(-1.65181e-09 -8.61839e-07 0)
(-1.65477e-09 -8.58712e-07 0)
(-1.65699e-09 -8.55545e-07 0)
(-1.65847e-09 -8.5234e-07 0)
(-1.65923e-09 -8.49099e-07 0)
(-1.65926e-09 -8.45822e-07 0)
(-1.65856e-09 -8.42507e-07 0)
(-1.6572e-09 -8.39164e-07 0)
(-1.65488e-09 -8.35749e-07 0)
(-1.65158e-09 -8.31978e-07 0)
(-1.64738e-09 -8.27846e-07 0)
(-1.64208e-09 -8.23643e-07 0)
(-1.63584e-09 -8.19463e-07 0)
(-1.62876e-09 -8.15323e-07 0)
(-1.62089e-09 -8.11207e-07 0)
(-1.61229e-09 -8.07107e-07 0)
(-1.60299e-09 -8.03026e-07 0)
(-1.59302e-09 -7.9897e-07 0)
(-1.58243e-09 -7.94942e-07 0)
(-1.57126e-09 -7.90941e-07 0)
(-1.55954e-09 -7.86969e-07 0)
(-1.5473e-09 -7.83028e-07 0)
(-1.53458e-09 -7.79118e-07 0)
(-1.52141e-09 -7.75241e-07 0)
(-1.5078e-09 -7.71398e-07 0)
(-1.4938e-09 -7.67591e-07 0)
(-1.47943e-09 -7.63819e-07 0)
(-1.46471e-09 -7.60084e-07 0)
(-1.44966e-09 -7.56387e-07 0)
(-1.43431e-09 -7.52728e-07 0)
(-1.41867e-09 -7.49109e-07 0)
(-1.40277e-09 -7.4553e-07 0)
(-1.38662e-09 -7.41992e-07 0)
(-1.37024e-09 -7.38494e-07 0)
(-1.35364e-09 -7.35039e-07 0)
(-1.33685e-09 -7.31626e-07 0)
(-1.31987e-09 -7.28256e-07 0)
(-1.30271e-09 -7.24929e-07 0)
(-1.2854e-09 -7.21646e-07 0)
(-1.26793e-09 -7.18407e-07 0)
(-1.25032e-09 -7.15213e-07 0)
(-1.23258e-09 -7.12063e-07 0)
(-1.21472e-09 -7.08959e-07 0)
(-1.19675e-09 -7.059e-07 0)
(-1.17867e-09 -7.02887e-07 0)
(-1.16049e-09 -6.99919e-07 0)
(-1.14221e-09 -6.96999e-07 0)
(-1.12385e-09 -6.94124e-07 0)
(-1.1054e-09 -6.91296e-07 0)
(-1.08687e-09 -6.88515e-07 0)
(-1.06827e-09 -6.85782e-07 0)
(-1.0496e-09 -6.83095e-07 0)
(-1.03086e-09 -6.80456e-07 0)
(-1.01205e-09 -6.77865e-07 0)
(-9.93183e-10 -6.75321e-07 0)
(-9.74252e-10 -6.72826e-07 0)
(-9.55263e-10 -6.70378e-07 0)
(-9.36217e-10 -6.67979e-07 0)
(-9.17114e-10 -6.65628e-07 0)
(-8.97957e-10 -6.63325e-07 0)
(-8.78746e-10 -6.61072e-07 0)
(-8.59481e-10 -6.58867e-07 0)
(-8.40164e-10 -6.56711e-07 0)
(-8.20795e-10 -6.54604e-07 0)
(-8.01375e-10 -6.52546e-07 0)
(-7.81902e-10 -6.50538e-07 0)
(-7.62379e-10 -6.48579e-07 0)
(-7.42805e-10 -6.4667e-07 0)
(-7.23179e-10 -6.4481e-07 0)
(-7.03503e-10 -6.43001e-07 0)
(-6.83776e-10 -6.41241e-07 0)
(-6.63998e-10 -6.39531e-07 0)
(-6.4417e-10 -6.37872e-07 0)
(-6.24291e-10 -6.36263e-07 0)
(-6.04362e-10 -6.34704e-07 0)
(-5.84383e-10 -6.33196e-07 0)
(-5.64355e-10 -6.31739e-07 0)
(-5.44277e-10 -6.30333e-07 0)
(-5.2415e-10 -6.28978e-07 0)
(-5.03975e-10 -6.27673e-07 0)
(-4.83752e-10 -6.2642e-07 0)
(-4.63482e-10 -6.25219e-07 0)
(-4.43167e-10 -6.24069e-07 0)
(-4.22806e-10 -6.2297e-07 0)
(-4.02401e-10 -6.21924e-07 0)
(-3.81954e-10 -6.20929e-07 0)
(-3.61464e-10 -6.19986e-07 0)
(-3.40935e-10 -6.19095e-07 0)
(-3.20368e-10 -6.18256e-07 0)
(-2.99763e-10 -6.17469e-07 0)
(-2.79123e-10 -6.16735e-07 0)
(-2.5845e-10 -6.16053e-07 0)
(-2.37746e-10 -6.15424e-07 0)
(-2.17011e-10 -6.14846e-07 0)
(-1.96251e-10 -6.14325e-07 0)
(-1.75464e-10 -6.13841e-07 0)
(-1.5466e-10 -6.13465e-07 0)
(-1.33824e-10 -6.12956e-07 0)
(-1.1302e-10 -6.13108e-07 0)
(-9.20629e-11 -6.11256e-07 0)
(-7.15843e-11 -6.16021e-07 0)
(-4.95336e-11 -5.97433e-07 0)
(-3.30022e-11 -6.46391e-07 0)
(-1.43132e-11 -5.64516e-07 0)
)
;
    }
    bottomWall
    {
        type            calculated;
        value           nonuniform List<vector> 
449
(
(-46.5204 -0.879898 0)
(-20.1271 -0.221957 0)
(-14.2545 -0.0269333 0)
(-11.9383 -0.0146398 0)
(-10.5736 -0.0106566 0)
(-9.62755 -0.00804003 0)
(-8.88493 -0.00643988 0)
(-8.28397 -0.00521281 0)
(-7.79075 -0.00431859 0)
(-7.37627 -0.0036734 0)
(-7.02031 -0.00317917 0)
(-6.71008 -0.00278282 0)
(-6.43676 -0.00245981 0)
(-6.19364 -0.0021941 0)
(-5.97554 -0.00197273 0)
(-5.77841 -0.00178579 0)
(-5.59908 -0.00162613 0)
(-5.43504 -0.00148854 0)
(-5.28421 -0.00136901 0)
(-5.14492 -0.0012644 0)
(-5.01575 -0.00117223 0)
(-4.89554 -0.00109054 0)
(-4.78329 -0.00101772 0)
(-4.67816 -0.000952506 0)
(-4.57942 -0.000893823 0)
(-4.48645 -0.000840796 0)
(-4.3987 -0.000792694 0)
(-4.31571 -0.000748903 0)
(-4.23704 -0.000708903 0)
(-4.16234 -0.000672251 0)
(-4.09129 -0.000638571 0)
(-4.02359 -0.000607537 0)
(-3.95899 -0.000578868 0)
(-3.89725 -0.000552322 0)
(-3.83817 -0.000527684 0)
(-3.78156 -0.000504771 0)
(-3.72726 -0.000483418 0)
(-3.6751 -0.000463481 0)
(-3.62495 -0.000444834 0)
(-3.57669 -0.000427363 0)
(-3.53019 -0.000410967 0)
(-3.48536 -0.000395556 0)
(-3.44209 -0.000381051 0)
(-3.40029 -0.000367379 0)
(-3.35988 -0.000354474 0)
(-3.32078 -0.000342279 0)
(-3.28294 -0.00033074 0)
(-3.24626 -0.00031981 0)
(-3.21071 -0.000309444 0)
(-3.17622 -0.000299603 0)
(-3.14274 -0.00029025 0)
(-3.11022 -0.000281353 0)
(-3.07861 -0.000272882 0)
(-3.04787 -0.000264809 0)
(-3.01797 -0.000257107 0)
(-2.98886 -0.000249755 0)
(-2.96051 -0.00024273 0)
(-2.93289 -0.000236012 0)
(-2.90596 -0.000229584 0)
(-2.8797 -0.000223428 0)
(-2.85408 -0.000217528 0)
(-2.82908 -0.00021187 0)
(-2.80466 -0.00020644 0)
(-2.7808 -0.000201227 0)
(-2.75749 -0.000196217 0)
(-2.73471 -0.0001914 0)
(-2.71243 -0.000186767 0)
(-2.69063 -0.000182307 0)
(-2.6693 -0.000178011 0)
(-2.64842 -0.000173872 0)
(-2.62797 -0.000169882 0)
(-2.60794 -0.000166033 0)
(-2.58832 -0.000162318 0)
(-2.56909 -0.000158732 0)
(-2.55024 -0.000155268 0)
(-2.53176 -0.000151919 0)
(-2.51362 -0.000148682 0)
(-2.49583 -0.000145551 0)
(-2.47838 -0.000142522 0)
(-2.46124 -0.000139589 0)
(-2.44441 -0.000136748 0)
(-2.42789 -0.000133997 0)
(-2.41166 -0.00013133 0)
(-2.39571 -0.000128744 0)
(-2.38004 -0.000126236 0)
(-2.36464 -0.000123803 0)
(-2.34949 -0.000121442 0)
(-2.3346 -0.000119149 0)
(-2.31995 -0.000116923 0)
(-2.30555 -0.000114759 0)
(-2.29137 -0.000112657 0)
(-2.27742 -0.000110614 0)
(-2.26369 -0.000108626 0)
(-2.25017 -0.000106694 0)
(-2.23687 -0.000104813 0)
(-2.22376 -0.000102983 0)
(-2.21085 -0.000101201 0)
(-2.19814 -9.94657e-05 0)
(-2.18561 -9.77756e-05 0)
(-2.17326 -9.61291e-05 0)
(-2.1611 -9.45245e-05 0)
(-2.1491 -9.29604e-05 0)
(-2.13728 -9.14354e-05 0)
(-2.12562 -8.99482e-05 0)
(-2.11413 -8.84974e-05 0)
(-2.10279 -8.7082e-05 0)
(-2.09161 -8.57006e-05 0)
(-2.08058 -8.43522e-05 0)
(-2.06969 -8.30358e-05 0)
(-2.05895 -8.17502e-05 0)
(-2.04835 -8.04945e-05 0)
(-2.03789 -7.92678e-05 0)
(-2.02756 -7.80691e-05 0)
(-2.01737 -7.68976e-05 0)
(-2.0073 -7.57524e-05 0)
(-1.99736 -7.46328e-05 0)
(-1.98754 -7.35379e-05 0)
(-1.97784 -7.2467e-05 0)
(-1.96826 -7.14194e-05 0)
(-1.9588 -7.03944e-05 0)
(-1.94945 -6.93914e-05 0)
(-1.94021 -6.84096e-05 0)
(-1.93108 -6.74486e-05 0)
(-1.92206 -6.65076e-05 0)
(-1.91314 -6.55862e-05 0)
(-1.90432 -6.46837e-05 0)
(-1.89561 -6.37997e-05 0)
(-1.88699 -6.29336e-05 0)
(-1.87847 -6.20849e-05 0)
(-1.87004 -6.12532e-05 0)
(-1.86171 -6.0438e-05 0)
(-1.85347 -5.96389e-05 0)
(-1.84532 -5.88553e-05 0)
(-1.83725 -5.8087e-05 0)
(-1.82927 -5.73335e-05 0)
(-1.82138 -5.65944e-05 0)
(-1.81357 -5.58694e-05 0)
(-1.80584 -5.51581e-05 0)
(-1.79819 -5.44601e-05 0)
(-1.79062 -5.37751e-05 0)
(-1.78312 -5.31027e-05 0)
(-1.77571 -5.24427e-05 0)
(-1.76836 -5.17948e-05 0)
(-1.7611 -5.11586e-05 0)
(-1.7539 -5.05338e-05 0)
(-1.74677 -4.99203e-05 0)
(-1.73972 -4.93176e-05 0)
(-1.73273 -4.87256e-05 0)
(-1.72581 -4.8144e-05 0)
(-1.71895 -4.75725e-05 0)
(-1.71216 -4.70109e-05 0)
(-1.70544 -4.6459e-05 0)
(-1.69878 -4.59166e-05 0)
(-1.69218 -4.53833e-05 0)
(-1.68564 -4.48591e-05 0)
(-1.67916 -4.43437e-05 0)
(-1.67274 -4.3837e-05 0)
(-1.66638 -4.33386e-05 0)
(-1.66007 -4.28485e-05 0)
(-1.65383 -4.23664e-05 0)
(-1.64763 -4.18921e-05 0)
(-1.6415 -4.14256e-05 0)
(-1.63541 -4.09666e-05 0)
(-1.62938 -4.0515e-05 0)
(-1.62341 -4.00706e-05 0)
(-1.61748 -3.96334e-05 0)
(-1.6116 -3.9203e-05 0)
(-1.60578 -3.87794e-05 0)
(-1.6 -3.83633e-05 0)
(-1.59427 -3.79504e-05 0)
(-1.58859 -3.75525e-05 0)
(-1.58295 -3.7159e-05 0)
(-1.57737 -3.66928e-05 0)
(-1.57215 -3.6353e-05 0)
(-1.56724 -3.61106e-05 0)
(-1.56231 -3.57427e-05 0)
(-1.55739 -3.53826e-05 0)
(-1.55246 -3.50447e-05 0)
(-1.54752 -3.47094e-05 0)
(-1.54258 -3.43757e-05 0)
(-1.53763 -3.40447e-05 0)
(-1.53268 -3.3716e-05 0)
(-1.52772 -3.33892e-05 0)
(-1.52276 -3.30644e-05 0)
(-1.51779 -3.27415e-05 0)
(-1.51282 -3.24204e-05 0)
(-1.50784 -3.21012e-05 0)
(-1.50286 -3.17839e-05 0)
(-1.49787 -3.14684e-05 0)
(-1.49288 -3.11548e-05 0)
(-1.48789 -3.0843e-05 0)
(-1.48289 -3.05331e-05 0)
(-1.47789 -3.02251e-05 0)
(-1.47288 -2.99189e-05 0)
(-1.46787 -2.96146e-05 0)
(-1.46286 -2.93123e-05 0)
(-1.45785 -2.90118e-05 0)
(-1.45283 -2.87132e-05 0)
(-1.44782 -2.84166e-05 0)
(-1.4428 -2.81219e-05 0)
(-1.43777 -2.78291e-05 0)
(-1.43275 -2.75383e-05 0)
(-1.42773 -2.72494e-05 0)
(-1.4227 -2.69625e-05 0)
(-1.41767 -2.66775e-05 0)
(-1.41265 -2.63945e-05 0)
(-1.40762 -2.61135e-05 0)
(-1.40259 -2.58344e-05 0)
(-1.39756 -2.55574e-05 0)
(-1.39253 -2.52823e-05 0)
(-1.3875 -2.50092e-05 0)
(-1.38247 -2.4738e-05 0)
(-1.37744 -2.44689e-05 0)
(-1.37242 -2.42018e-05 0)
(-1.36739 -2.39367e-05 0)
(-1.36237 -2.36735e-05 0)
(-1.35734 -2.34124e-05 0)
(-1.35232 -2.31533e-05 0)
(-1.3473 -2.28961e-05 0)
(-1.34228 -2.2641e-05 0)
(-1.33726 -2.23879e-05 0)
(-1.33225 -2.21368e-05 0)
(-1.32724 -2.18877e-05 0)
(-1.32223 -2.16406e-05 0)
(-1.31722 -2.13955e-05 0)
(-1.31222 -2.11523e-05 0)
(-1.30722 -2.09112e-05 0)
(-1.30222 -2.06721e-05 0)
(-1.29723 -2.0435e-05 0)
(-1.29224 -2.01999e-05 0)
(-1.28725 -1.99668e-05 0)
(-1.28227 -1.97356e-05 0)
(-1.27729 -1.95064e-05 0)
(-1.27232 -1.92793e-05 0)
(-1.26735 -1.9054e-05 0)
(-1.26239 -1.88308e-05 0)
(-1.25743 -1.86095e-05 0)
(-1.25248 -1.83902e-05 0)
(-1.24753 -1.81729e-05 0)
(-1.24259 -1.79575e-05 0)
(-1.23765 -1.7744e-05 0)
(-1.23272 -1.75325e-05 0)
(-1.22779 -1.73229e-05 0)
(-1.22287 -1.71153e-05 0)
(-1.21796 -1.69096e-05 0)
(-1.21305 -1.67058e-05 0)
(-1.20815 -1.65039e-05 0)
(-1.20326 -1.63039e-05 0)
(-1.19837 -1.61058e-05 0)
(-1.19349 -1.59096e-05 0)
(-1.18862 -1.57153e-05 0)
(-1.18376 -1.55228e-05 0)
(-1.1789 -1.53322e-05 0)
(-1.17405 -1.51435e-05 0)
(-1.1692 -1.49566e-05 0)
(-1.16437 -1.47716e-05 0)
(-1.15954 -1.45884e-05 0)
(-1.15472 -1.4407e-05 0)
(-1.14991 -1.42274e-05 0)
(-1.14511 -1.40497e-05 0)
(-1.14032 -1.38737e-05 0)
(-1.13553 -1.36995e-05 0)
(-1.13076 -1.35271e-05 0)
(-1.12599 -1.33565e-05 0)
(-1.12123 -1.31876e-05 0)
(-1.11649 -1.30205e-05 0)
(-1.11175 -1.28551e-05 0)
(-1.10702 -1.26915e-05 0)
(-1.1023 -1.25295e-05 0)
(-1.09758 -1.23693e-05 0)
(-1.09288 -1.22108e-05 0)
(-1.08819 -1.20539e-05 0)
(-1.08351 -1.18988e-05 0)
(-1.07884 -1.17453e-05 0)
(-1.07418 -1.15934e-05 0)
(-1.06953 -1.14432e-05 0)
(-1.06489 -1.12947e-05 0)
(-1.06026 -1.11477e-05 0)
(-1.05564 -1.10024e-05 0)
(-1.05103 -1.08587e-05 0)
(-1.04643 -1.07165e-05 0)
(-1.04185 -1.0576e-05 0)
(-1.03727 -1.0437e-05 0)
(-1.03271 -1.02995e-05 0)
(-1.02815 -1.01636e-05 0)
(-1.02361 -1.00292e-05 0)
(-1.01908 -9.8964e-06 0)
(-1.01456 -9.76506e-06 0)
(-1.01006 -9.63522e-06 0)
(-1.00556 -9.50687e-06 0)
(-1.00108 -9.37999e-06 0)
(-0.996605 -9.25457e-06 0)
(-0.992145 -9.1306e-06 0)
(-0.987697 -9.00807e-06 0)
(-0.98326 -8.88697e-06 0)
(-0.978836 -8.76728e-06 0)
(-0.974425 -8.649e-06 0)
(-0.970025 -8.53211e-06 0)
(-0.965638 -8.41659e-06 0)
(-0.961263 -8.30245e-06 0)
(-0.956901 -8.18966e-06 0)
(-0.952551 -8.07822e-06 0)
(-0.948214 -7.96811e-06 0)
(-0.943889 -7.85933e-06 0)
(-0.939577 -7.75185e-06 0)
(-0.935278 -7.64566e-06 0)
(-0.930992 -7.54077e-06 0)
(-0.926719 -7.43715e-06 0)
(-0.922459 -7.33479e-06 0)
(-0.918212 -7.23368e-06 0)
(-0.913977 -7.13381e-06 0)
(-0.909756 -7.03517e-06 0)
(-0.905549 -6.93774e-06 0)
(-0.901354 -6.84152e-06 0)
(-0.897172 -6.74649e-06 0)
(-0.893004 -6.65264e-06 0)
(-0.88885 -6.55996e-06 0)
(-0.884708 -6.46844e-06 0)
(-0.88058 -6.37807e-06 0)
(-0.876466 -6.28883e-06 0)
(-0.872365 -6.20072e-06 0)
(-0.868278 -6.11372e-06 0)
(-0.864204 -6.02782e-06 0)
(-0.860144 -5.94301e-06 0)
(-0.856097 -5.85928e-06 0)
(-0.852065 -5.77662e-06 0)
(-0.848046 -5.69501e-06 0)
(-0.84404 -5.61446e-06 0)
(-0.840049 -5.53494e-06 0)
(-0.836071 -5.45644e-06 0)
(-0.832107 -5.37895e-06 0)
(-0.828157 -5.30247e-06 0)
(-0.824221 -5.22698e-06 0)
(-0.820299 -5.15248e-06 0)
(-0.81639 -5.07894e-06 0)
(-0.812496 -5.00636e-06 0)
(-0.808616 -4.93474e-06 0)
(-0.804749 -4.86405e-06 0)
(-0.800897 -4.79429e-06 0)
(-0.797058 -4.72545e-06 0)
(-0.793234 -4.65752e-06 0)
(-0.789424 -4.59049e-06 0)
(-0.785627 -4.52434e-06 0)
(-0.781845 -4.45907e-06 0)
(-0.778077 -4.39466e-06 0)
(-0.774323 -4.33111e-06 0)
(-0.770583 -4.2684e-06 0)
(-0.766857 -4.20651e-06 0)
(-0.763145 -4.1454e-06 0)
(-0.759448 -4.08518e-06 0)
(-0.755765 -4.02566e-06 0)
(-0.752096 -3.96554e-06 0)
(-0.748443 -3.91017e-06 0)
(-0.744797 -3.85745e-06 0)
(-0.740761 -3.78941e-06 0)
(-0.736382 -3.71746e-06 0)
(-0.732084 -3.65481e-06 0)
(-0.727854 -3.59441e-06 0)
(-0.723696 -3.5336e-06 0)
(-0.719609 -3.474e-06 0)
(-0.71559 -3.41593e-06 0)
(-0.711638 -3.35943e-06 0)
(-0.70775 -3.30443e-06 0)
(-0.703927 -3.25089e-06 0)
(-0.700165 -3.19876e-06 0)
(-0.696462 -3.14801e-06 0)
(-0.692819 -3.09858e-06 0)
(-0.689232 -3.05043e-06 0)
(-0.685701 -3.0035e-06 0)
(-0.682224 -2.95776e-06 0)
(-0.678799 -2.91316e-06 0)
(-0.675426 -2.86966e-06 0)
(-0.672103 -2.82723e-06 0)
(-0.668829 -2.78583e-06 0)
(-0.665603 -2.74542e-06 0)
(-0.662423 -2.70596e-06 0)
(-0.659289 -2.66744e-06 0)
(-0.656199 -2.62981e-06 0)
(-0.653153 -2.59304e-06 0)
(-0.650149 -2.55712e-06 0)
(-0.647186 -2.52201e-06 0)
(-0.644264 -2.48768e-06 0)
(-0.641382 -2.45411e-06 0)
(-0.638538 -2.42128e-06 0)
(-0.635732 -2.38916e-06 0)
(-0.632964 -2.35774e-06 0)
(-0.630231 -2.32698e-06 0)
(-0.627535 -2.29688e-06 0)
(-0.624873 -2.2674e-06 0)
(-0.622245 -2.23854e-06 0)
(-0.61965 -2.21027e-06 0)
(-0.617088 -2.18258e-06 0)
(-0.614558 -2.15544e-06 0)
(-0.612059 -2.12885e-06 0)
(-0.609592 -2.10279e-06 0)
(-0.607154 -2.07724e-06 0)
(-0.604746 -2.05219e-06 0)
(-0.602366 -2.02762e-06 0)
(-0.600016 -2.00353e-06 0)
(-0.597693 -1.9799e-06 0)
(-0.595397 -1.95671e-06 0)
(-0.593128 -1.93395e-06 0)
(-0.590886 -1.91162e-06 0)
(-0.588669 -1.8897e-06 0)
(-0.586478 -1.86818e-06 0)
(-0.584312 -1.84706e-06 0)
(-0.58217 -1.82631e-06 0)
(-0.580052 -1.80594e-06 0)
(-0.577958 -1.78593e-06 0)
(-0.575887 -1.76627e-06 0)
(-0.573838 -1.74696e-06 0)
(-0.571812 -1.72799e-06 0)
(-0.569808 -1.70934e-06 0)
(-0.567826 -1.69102e-06 0)
(-0.565865 -1.67301e-06 0)
(-0.563925 -1.65532e-06 0)
(-0.562005 -1.63792e-06 0)
(-0.560105 -1.62082e-06 0)
(-0.558225 -1.60401e-06 0)
(-0.556365 -1.58748e-06 0)
(-0.554524 -1.57123e-06 0)
(-0.552701 -1.55526e-06 0)
(-0.550897 -1.53956e-06 0)
(-0.549112 -1.52413e-06 0)
(-0.547344 -1.50896e-06 0)
(-0.545594 -1.49405e-06 0)
(-0.543861 -1.47941e-06 0)
(-0.542145 -1.46502e-06 0)
(-0.540446 -1.4509e-06 0)
(-0.538763 -1.43704e-06 0)
(-0.537096 -1.42345e-06 0)
(-0.535445 -1.41014e-06 0)
(-0.533809 -1.39711e-06 0)
(-0.532188 -1.38439e-06 0)
(-0.530583 -1.372e-06 0)
(-0.528991 -1.35997e-06 0)
(-0.527413 -1.34835e-06 0)
(-0.525849 -1.33721e-06 0)
(-0.524297 -1.32662e-06 0)
(-0.522758 -1.31706e-06 0)
(-0.521229 -1.30772e-06 0)
(-0.519712 -1.29954e-06 0)
(-0.518201 -1.30199e-06 0)
(-0.51668 -1.28492e-06 0)
(-0.515215 -1.23626e-06 0)
(-0.513788 -1.6575e-06 0)
(-0.511325 -6.31248e-07 0)
(-0.512734 -5.74862e-07 0)
(-0.508511 -2.85898e-06 0)
)
;
    }
    symmetry
    {
        type            symmetryPlane;
    }
    frontAndBack
    {
        type            empty;
    }
}


// ************************************************************************* //
