/*--------------------------------*- C++ -*----------------------------------*\
| =========                 |                                                 |
| \\      /  F ield         | OpenFOAM: The Open Source CFD Toolbox           |
|  \\    /   O peration     | Version:  v2012                                 |
|   \\  /    A nd           | Website:  www.openfoam.com                      |
|    \\/     M anipulation  |                                                 |
\*---------------------------------------------------------------------------*/
FoamFile
{
    version     2.0;
    format      ascii;
    class       volScalarField;
    location    "6.5";
    object      yPlus;
}
// * * * * * * * * * * * * * * * * * * * * * * * * * * * * * * * * * * * * * //

dimensions      [0 0 0 0 0 0 0];


internalField   uniform 0;

boundaryField
{
    inlet
    {
        type            calculated;
        value           uniform 0;
    }
    outlet
    {
        type            calculated;
        value           uniform 0;
    }
    topWall
    {
        type            calculated;
        value           nonuniform List<scalar> 
545
(
0.0451567
0.0778634
0.0998876
0.117408
0.132233
0.145196
0.156766
0.167237
0.176811
0.185631
0.193807
0.201421
0.208541
0.215221
0.221506
0.227434
0.233035
0.238339
0.243369
0.248146
0.252689
0.257014
0.261136
0.265068
0.268823
0.272411
0.275842
0.279126
0.28227
0.285284
0.288173
0.290944
0.293604
0.296158
0.298611
0.300969
0.303236
0.305416
0.307514
0.309534
0.311478
0.313351
0.315155
0.316894
0.31857
0.320187
0.321746
0.32325
0.324702
0.326103
0.327456
0.328762
0.330025
0.331244
0.332422
0.333561
0.334662
0.335726
0.336756
0.337751
0.338714
0.339646
0.340548
0.341421
0.342266
0.343084
0.343876
0.344643
0.345386
0.346106
0.346803
0.347479
0.348125
0.34875
0.349369
0.349983
0.350591
0.351193
0.351791
0.352383
0.352969
0.353551
0.354127
0.354698
0.355265
0.355826
0.356382
0.356933
0.35748
0.358022
0.358559
0.359091
0.359619
0.360142
0.360661
0.361175
0.361638
0.362051
0.362465
0.362877
0.36329
0.363702
0.364113
0.364524
0.364935
0.365345
0.365755
0.366164
0.366573
0.366982
0.36739
0.367797
0.368204
0.368611
0.369017
0.369423
0.369828
0.370232
0.370637
0.37104
0.371443
0.371846
0.372248
0.37265
0.373051
0.373451
0.373851
0.374251
0.37465
0.375048
0.375446
0.375843
0.37624
0.376636
0.377031
0.377426
0.377821
0.378215
0.378608
0.379
0.379392
0.379784
0.380175
0.380565
0.380954
0.381343
0.381731
0.382119
0.382506
0.382892
0.383278
0.383663
0.384047
0.384431
0.384814
0.385196
0.385578
0.385959
0.386339
0.386718
0.387097
0.387475
0.387853
0.388229
0.388605
0.38898
0.389355
0.389728
0.390101
0.390473
0.390844
0.391215
0.391585
0.391954
0.392322
0.392689
0.393056
0.393422
0.393787
0.394151
0.394514
0.394877
0.395238
0.395599
0.395959
0.396318
0.396676
0.397034
0.39739
0.397746
0.3981
0.398454
0.398807
0.399159
0.39951
0.39986
0.400209
0.400558
0.400905
0.401251
0.401597
0.401941
0.402285
0.402627
0.402969
0.40331
0.403649
0.403988
0.404325
0.404662
0.404997
0.405332
0.405665
0.405998
0.406329
0.40666
0.406989
0.407317
0.407644
0.40797
0.408295
0.408619
0.408942
0.409264
0.409585
0.409904
0.410222
0.41054
0.410856
0.411171
0.411485
0.411797
0.412109
0.412419
0.412728
0.413036
0.413343
0.413648
0.413953
0.414256
0.414558
0.414859
0.415158
0.415456
0.415753
0.416049
0.416344
0.416637
0.416929
0.417219
0.417509
0.417797
0.418084
0.418369
0.418653
0.418936
0.419218
0.419498
0.419777
0.420054
0.420331
0.420605
0.420879
0.421151
0.421421
0.421691
0.421959
0.422225
0.42249
0.422739
0.422973
0.423208
0.423444
0.423681
0.423919
0.424157
0.424396
0.424636
0.424877
0.425118
0.42536
0.425603
0.425846
0.42609
0.426335
0.426579
0.426825
0.427071
0.427317
0.427564
0.427811
0.428058
0.428305
0.428553
0.428801
0.429049
0.429297
0.429545
0.429793
0.430041
0.430289
0.430537
0.430785
0.431032
0.431279
0.431525
0.431772
0.432017
0.432262
0.432507
0.432751
0.432994
0.433236
0.433477
0.433718
0.433957
0.434196
0.434433
0.434669
0.434904
0.435137
0.435369
0.435599
0.435828
0.436054
0.43628
0.436503
0.436724
0.436943
0.43716
0.437375
0.437588
0.437798
0.438005
0.43821
0.438412
0.438611
0.438808
0.439001
0.439191
0.439378
0.439561
0.439741
0.439918
0.44009
0.440259
0.440424
0.440585
0.440741
0.440893
0.441041
0.441184
0.441323
0.441456
0.441585
0.441708
0.441827
0.44194
0.442047
0.442149
0.442245
0.442335
0.442419
0.442497
0.442568
0.442633
0.442692
0.442743
0.442788
0.442826
0.442856
0.442879
0.442895
0.442903
0.442903
0.442895
0.442879
0.442855
0.442823
0.442782
0.442732
0.442674
0.442606
0.44253
0.442444
0.442349
0.442244
0.44213
0.442006
0.441872
0.441728
0.441573
0.441409
0.441233
0.441048
0.440851
0.440644
0.440426
0.440196
0.439956
0.439704
0.439441
0.439166
0.43888
0.438582
0.438272
0.43795
0.437616
0.437271
0.436913
0.436543
0.43616
0.435766
0.435359
0.434939
0.434507
0.434063
0.433606
0.433137
0.432654
0.43216
0.431653
0.431133
0.4306
0.430055
0.429498
0.428928
0.428345
0.42775
0.427142
0.426523
0.425891
0.425246
0.42459
0.423921
0.423241
0.422549
0.421845
0.421129
0.420402
0.419663
0.418914
0.418153
0.417381
0.416599
0.415806
0.415003
0.41419
0.413367
0.412533
0.411596
0.41056
0.409524
0.408489
0.407455
0.406424
0.405395
0.404369
0.403347
0.402329
0.401315
0.400307
0.399303
0.398305
0.397313
0.396327
0.395348
0.394375
0.39341
0.392452
0.391502
0.390559
0.389625
0.3887
0.387783
0.386874
0.385975
0.385085
0.384205
0.383334
0.382473
0.381621
0.38078
0.379949
0.379129
0.378319
0.377519
0.376731
0.375953
0.375187
0.374431
0.373687
0.372955
0.372233
0.371524
0.370826
0.370141
0.369467
0.368805
0.368155
0.367518
0.366893
0.366281
0.365681
0.365094
0.36452
0.363959
0.36341
0.362875
0.362353
0.361844
0.361349
0.360867
0.360398
0.359943
0.359502
0.359075
0.358661
0.358262
0.357877
0.357505
0.357149
0.356806
0.356478
0.356164
0.355864
0.35558
0.355309
0.355054
0.354813
0.354588
0.354377
0.354181
0.354
0.353834
0.353683
0.353547
0.353427
0.353321
0.353231
0.353156
0.353096
0.353051
0.353024
0.353003
)
;
    }
    bottomWall
    {
        type            calculated;
        value           nonuniform List<scalar> 
449
(
4.58185
3.01384
2.53621
2.321
2.18431
2.08431
2.00231
1.93341
1.87497
1.82441
1.77984
1.74007
1.70427
1.67177
1.64207
1.61476
1.58951
1.56605
1.54416
1.52368
1.50443
1.48629
1.46915
1.45292
1.4375
1.42284
1.40885
1.3955
1.38272
1.37048
1.35873
1.34744
1.33658
1.32612
1.31603
1.30629
1.29688
1.28777
1.27895
1.27041
1.26213
1.25409
1.24628
1.23869
1.2313
1.22412
1.21712
1.21031
1.20366
1.19718
1.19085
1.18467
1.17864
1.17274
1.16697
1.16133
1.15581
1.15041
1.14511
1.13993
1.13485
1.12986
1.12498
1.12018
1.11548
1.11086
1.10632
1.10187
1.09749
1.09319
1.08896
1.08481
1.08072
1.0767
1.07274
1.06884
1.06501
1.06123
1.05752
1.05385
1.05025
1.04669
1.04319
1.03973
1.03632
1.03297
1.02965
1.02638
1.02316
1.01998
1.01684
1.01374
1.01068
1.00765
1.00467
1.00172
0.998811
0.995935
0.993093
0.990284
0.987508
0.984764
0.982052
0.97937
0.976718
0.974096
0.971503
0.968937
0.966399
0.963888
0.961404
0.958946
0.956513
0.954105
0.951721
0.949362
0.947025
0.944712
0.942422
0.940154
0.937907
0.935682
0.933478
0.931294
0.929131
0.926988
0.924864
0.922759
0.920674
0.918606
0.916557
0.914526
0.912513
0.910516
0.908537
0.906575
0.904629
0.902699
0.900785
0.898887
0.897004
0.895137
0.893284
0.891446
0.889623
0.887814
0.886018
0.884237
0.88247
0.880715
0.878974
0.877247
0.875532
0.873829
0.872139
0.870462
0.868796
0.867142
0.865501
0.86387
0.862252
0.860644
0.859048
0.857463
0.855888
0.854324
0.852771
0.851228
0.849696
0.848173
0.846661
0.845158
0.843666
0.842268
0.840952
0.83963
0.838305
0.836978
0.835646
0.834311
0.832972
0.831629
0.830283
0.828933
0.827579
0.826222
0.824862
0.823498
0.822131
0.82076
0.819386
0.818008
0.816628
0.815244
0.813857
0.812466
0.811073
0.809677
0.808277
0.806875
0.805469
0.804061
0.80265
0.801236
0.799819
0.798399
0.796977
0.795552
0.794125
0.792695
0.791262
0.789827
0.788389
0.786949
0.785507
0.784062
0.782615
0.781166
0.779714
0.778261
0.776805
0.775347
0.773888
0.772426
0.770962
0.769497
0.768029
0.76656
0.765089
0.763616
0.762141
0.760665
0.759188
0.757708
0.756227
0.754745
0.753261
0.751776
0.75029
0.748802
0.747313
0.745823
0.744331
0.742838
0.741345
0.73985
0.738354
0.736857
0.735359
0.733861
0.732361
0.730861
0.729359
0.727858
0.726355
0.724852
0.723348
0.721843
0.720338
0.718832
0.717326
0.71582
0.714313
0.712806
0.711298
0.70979
0.708282
0.706774
0.705265
0.703757
0.702248
0.700739
0.69923
0.697721
0.696213
0.694704
0.693195
0.691687
0.690179
0.68867
0.687163
0.685655
0.684148
0.682641
0.681135
0.679628
0.678123
0.676618
0.675113
0.673609
0.672105
0.670602
0.6691
0.667599
0.666098
0.664597
0.663098
0.661599
0.660101
0.658605
0.657108
0.655613
0.654119
0.652626
0.651133
0.649642
0.648152
0.646662
0.645174
0.643687
0.642202
0.640717
0.639233
0.637751
0.63627
0.63479
0.633312
0.631835
0.630359
0.628885
0.627412
0.62594
0.62447
0.623002
0.621534
0.620069
0.618605
0.617142
0.615681
0.614222
0.612764
0.611308
0.609853
0.608401
0.606949
0.6055
0.604052
0.602607
0.601162
0.59972
0.59828
0.596841
0.595404
0.593969
0.592536
0.591105
0.589676
0.588248
0.586823
0.5854
0.583979
0.582559
0.581143
0.579726
0.578153
0.576442
0.574757
0.573094
0.571455
0.569838
0.568245
0.566674
0.565124
0.563595
0.562087
0.560599
0.559131
0.557682
0.556251
0.554839
0.553445
0.552068
0.550708
0.549365
0.548039
0.546728
0.545433
0.544153
0.542889
0.541639
0.540404
0.539182
0.537975
0.536781
0.5356
0.534433
0.533278
0.532136
0.531006
0.529888
0.528782
0.527688
0.526605
0.525533
0.524473
0.523423
0.522384
0.521356
0.520337
0.519329
0.518331
0.517342
0.516363
0.515394
0.514434
0.513483
0.512541
0.511608
0.510683
0.509767
0.50886
0.507961
0.50707
0.506187
0.505312
0.504445
0.503586
0.502734
0.50189
0.501053
0.500223
0.4994
0.498585
0.497776
0.496974
0.496179
0.49539
0.494608
0.493832
0.493063
0.4923
0.491542
0.490791
0.490045
0.489305
0.488571
0.487842
0.487118
0.486399
0.485684
0.484973
0.484267
0.483563
0.482853
0.482167
0.481499
0.480344
0.481005
0.47902
)
;
    }
    symmetry
    {
        type            symmetryPlane;
    }
    frontAndBack
    {
        type            empty;
    }
}


// ************************************************************************* //
