/*--------------------------------*- C++ -*----------------------------------*\
| =========                 |                                                 |
| \\      /  F ield         | OpenFOAM: The Open Source CFD Toolbox           |
|  \\    /   O peration     | Version:  v2012                                 |
|   \\  /    A nd           | Website:  www.openfoam.com                      |
|    \\/     M anipulation  |                                                 |
\*---------------------------------------------------------------------------*/
FoamFile
{
    version     2.0;
    format      ascii;
    class       volScalarField;
    location    "58.5";
    object      nut;
}
// * * * * * * * * * * * * * * * * * * * * * * * * * * * * * * * * * * * * * //

dimensions      [0 2 -1 0 0 0 0];


internalField   nonuniform List<scalar> 
209825
(
1.2393e-07
1.23152e-07
1.22399e-07
1.21318e-07
1.19863e-07
1.18115e-07
1.16262e-07
1.144e-07
1.12641e-07
1.10992e-07
1.09501e-07
1.08134e-07
1.06917e-07
1.05806e-07
1.04821e-07
1.0392e-07
1.03121e-07
1.02386e-07
1.01733e-07
1.01129e-07
1.00591e-07
1.00091e-07
9.9643e-08
9.92254e-08
9.88497e-08
9.84977e-08
9.81794e-08
9.78809e-08
9.76094e-08
9.73543e-08
9.71205e-08
9.69012e-08
9.66986e-08
9.65089e-08
9.63321e-08
9.61672e-08
9.60116e-08
9.58675e-08
9.573e-08
9.5604e-08
9.5481e-08
9.53702e-08
9.52607e-08
9.51624e-08
9.50636e-08
9.4977e-08
9.48876e-08
9.48118e-08
9.47298e-08
9.46626e-08
9.45873e-08
9.45273e-08
9.44564e-08
9.44038e-08
9.43396e-08
9.42918e-08
9.4233e-08
9.419e-08
9.41369e-08
9.40979e-08
9.40476e-08
9.40112e-08
9.39655e-08
9.39317e-08
9.38888e-08
9.38577e-08
9.38189e-08
9.37905e-08
9.37544e-08
9.37272e-08
9.36931e-08
9.36677e-08
9.36364e-08
9.36139e-08
9.3585e-08
9.35649e-08
9.35376e-08
9.35183e-08
9.34914e-08
9.34724e-08
9.34456e-08
9.34267e-08
9.34006e-08
9.33818e-08
9.33563e-08
9.33364e-08
9.33082e-08
9.32867e-08
9.32571e-08
9.32343e-08
9.32154e-08
9.31661e-08
9.31704e-08
9.40381e-08
9.63553e-08
9.04654e-09
1.2393e-07
1.23152e-07
1.22399e-07
1.21318e-07
1.19863e-07
1.18115e-07
1.16263e-07
1.14401e-07
1.12642e-07
1.10993e-07
1.09502e-07
1.08135e-07
1.06918e-07
1.05807e-07
1.04822e-07
1.03921e-07
1.03122e-07
1.02387e-07
1.01734e-07
1.0113e-07
1.00592e-07
1.00092e-07
9.96439e-08
9.92262e-08
9.88505e-08
9.84985e-08
9.81802e-08
9.78816e-08
9.76102e-08
9.7355e-08
9.71212e-08
9.69019e-08
9.66992e-08
9.65096e-08
9.63328e-08
9.61678e-08
9.60122e-08
9.58682e-08
9.57307e-08
9.56046e-08
9.54816e-08
9.53708e-08
9.52613e-08
9.5163e-08
9.50642e-08
9.49776e-08
9.48882e-08
9.48123e-08
9.47304e-08
9.46632e-08
9.45879e-08
9.45279e-08
9.4457e-08
9.44044e-08
9.43402e-08
9.42923e-08
9.42336e-08
9.41905e-08
9.41375e-08
9.40984e-08
9.40481e-08
9.40117e-08
9.3966e-08
9.39322e-08
9.38893e-08
9.38582e-08
9.38194e-08
9.3791e-08
9.37549e-08
9.37277e-08
9.36936e-08
9.36682e-08
9.36369e-08
9.36144e-08
9.35855e-08
9.35654e-08
9.35381e-08
9.35188e-08
9.34919e-08
9.34728e-08
9.34461e-08
9.34272e-08
9.34011e-08
9.33823e-08
9.33568e-08
9.33368e-08
9.33087e-08
9.32872e-08
9.32576e-08
9.32348e-08
9.32159e-08
9.31667e-08
9.31709e-08
9.40403e-08
9.63563e-08
9.32362e-09
1.2393e-07
1.23151e-07
1.22399e-07
1.21319e-07
1.19864e-07
1.18117e-07
1.16265e-07
1.14403e-07
1.12644e-07
1.10996e-07
1.09505e-07
1.08138e-07
1.0692e-07
1.0581e-07
1.04824e-07
1.03923e-07
1.03124e-07
1.02389e-07
1.01736e-07
1.01132e-07
1.00594e-07
1.00093e-07
9.96453e-08
9.92276e-08
9.88518e-08
9.84998e-08
9.81814e-08
9.78828e-08
9.76112e-08
9.7356e-08
9.71222e-08
9.69028e-08
9.67001e-08
9.65104e-08
9.63335e-08
9.61685e-08
9.60129e-08
9.58688e-08
9.57313e-08
9.56052e-08
9.54821e-08
9.53713e-08
9.52617e-08
9.51635e-08
9.50646e-08
9.4978e-08
9.48885e-08
9.48127e-08
9.47307e-08
9.46635e-08
9.45882e-08
9.45281e-08
9.44572e-08
9.44046e-08
9.43403e-08
9.42925e-08
9.42337e-08
9.41906e-08
9.41376e-08
9.40985e-08
9.40482e-08
9.40118e-08
9.39661e-08
9.39322e-08
9.38894e-08
9.38583e-08
9.38194e-08
9.3791e-08
9.37549e-08
9.37277e-08
9.36936e-08
9.36682e-08
9.36368e-08
9.36144e-08
9.35855e-08
9.35654e-08
9.3538e-08
9.35188e-08
9.34918e-08
9.34728e-08
9.3446e-08
9.34271e-08
9.3401e-08
9.33821e-08
9.33566e-08
9.33367e-08
9.33086e-08
9.32871e-08
9.32574e-08
9.32347e-08
9.32158e-08
9.31666e-08
9.31709e-08
9.40437e-08
9.63572e-08
9.66771e-09
1.2393e-07
1.23151e-07
1.22399e-07
1.21319e-07
1.19866e-07
1.18119e-07
1.16268e-07
1.14407e-07
1.12648e-07
1.11e-07
1.09509e-07
1.08142e-07
1.06925e-07
1.05814e-07
1.04828e-07
1.03927e-07
1.03127e-07
1.02392e-07
1.01739e-07
1.01135e-07
1.00597e-07
1.00096e-07
9.96481e-08
9.92302e-08
9.88543e-08
9.85021e-08
9.81836e-08
9.78849e-08
9.76133e-08
9.7358e-08
9.7124e-08
9.69046e-08
9.67018e-08
9.6512e-08
9.6335e-08
9.617e-08
9.60143e-08
9.58701e-08
9.57325e-08
9.56064e-08
9.54833e-08
9.53724e-08
9.52628e-08
9.51645e-08
9.50656e-08
9.49789e-08
9.48894e-08
9.48135e-08
9.47315e-08
9.46643e-08
9.45889e-08
9.45288e-08
9.44579e-08
9.44052e-08
9.4341e-08
9.42931e-08
9.42343e-08
9.41912e-08
9.41381e-08
9.4099e-08
9.40487e-08
9.40122e-08
9.39665e-08
9.39327e-08
9.38898e-08
9.38587e-08
9.38198e-08
9.37913e-08
9.37552e-08
9.37281e-08
9.36939e-08
9.36685e-08
9.36371e-08
9.36147e-08
9.35857e-08
9.35656e-08
9.35382e-08
9.3519e-08
9.3492e-08
9.34729e-08
9.34462e-08
9.34273e-08
9.34012e-08
9.33823e-08
9.33568e-08
9.33368e-08
9.33087e-08
9.32873e-08
9.32576e-08
9.32348e-08
9.32159e-08
9.31667e-08
9.31712e-08
9.40493e-08
9.6359e-08
1.00515e-08
1.2393e-07
1.23151e-07
1.22399e-07
1.2132e-07
1.19868e-07
1.18123e-07
1.16272e-07
1.14412e-07
1.12654e-07
1.11006e-07
1.09515e-07
1.08148e-07
1.06931e-07
1.0582e-07
1.04834e-07
1.03932e-07
1.03133e-07
1.02397e-07
1.01744e-07
1.0114e-07
1.00601e-07
1.001e-07
9.96522e-08
9.92341e-08
9.8858e-08
9.85057e-08
9.8187e-08
9.78881e-08
9.76164e-08
9.73609e-08
9.71268e-08
9.69073e-08
9.67043e-08
9.65145e-08
9.63374e-08
9.61723e-08
9.60165e-08
9.58722e-08
9.57345e-08
9.56083e-08
9.54851e-08
9.53742e-08
9.52645e-08
9.51661e-08
9.50672e-08
9.49805e-08
9.48909e-08
9.48149e-08
9.47329e-08
9.46656e-08
9.45902e-08
9.45301e-08
9.44591e-08
9.44064e-08
9.43421e-08
9.42942e-08
9.42354e-08
9.41922e-08
9.41391e-08
9.41e-08
9.40496e-08
9.40131e-08
9.39674e-08
9.39335e-08
9.38906e-08
9.38594e-08
9.38206e-08
9.37921e-08
9.37559e-08
9.37287e-08
9.36945e-08
9.36691e-08
9.36377e-08
9.36153e-08
9.35863e-08
9.35662e-08
9.35388e-08
9.35195e-08
9.34925e-08
9.34734e-08
9.34467e-08
9.34277e-08
9.34016e-08
9.33827e-08
9.33572e-08
9.33373e-08
9.33092e-08
9.32877e-08
9.3258e-08
9.32353e-08
9.32164e-08
9.31672e-08
9.31718e-08
9.40574e-08
9.63616e-08
1.04679e-08
1.2393e-07
1.23151e-07
1.22399e-07
1.21321e-07
1.19871e-07
1.18127e-07
1.16278e-07
1.14419e-07
1.12662e-07
1.11014e-07
1.09523e-07
1.08157e-07
1.06939e-07
1.05827e-07
1.04842e-07
1.0394e-07
1.0314e-07
1.02404e-07
1.0175e-07
1.01146e-07
1.00607e-07
1.00106e-07
9.96576e-08
9.92393e-08
9.8863e-08
9.85104e-08
9.81916e-08
9.78925e-08
9.76205e-08
9.73649e-08
9.71307e-08
9.6911e-08
9.67079e-08
9.65179e-08
9.63407e-08
9.61754e-08
9.60195e-08
9.58751e-08
9.57373e-08
9.5611e-08
9.54877e-08
9.53767e-08
9.52669e-08
9.51685e-08
9.50694e-08
9.49827e-08
9.4893e-08
9.4817e-08
9.47349e-08
9.46675e-08
9.4592e-08
9.45319e-08
9.44608e-08
9.4408e-08
9.43437e-08
9.42957e-08
9.42369e-08
9.41937e-08
9.41405e-08
9.41014e-08
9.4051e-08
9.40145e-08
9.39687e-08
9.39348e-08
9.38918e-08
9.38607e-08
9.38217e-08
9.37932e-08
9.3757e-08
9.37298e-08
9.36956e-08
9.36702e-08
9.36388e-08
9.36163e-08
9.35873e-08
9.35671e-08
9.35397e-08
9.35204e-08
9.34934e-08
9.34743e-08
9.34475e-08
9.34285e-08
9.34024e-08
9.33835e-08
9.33579e-08
9.3338e-08
9.33099e-08
9.32885e-08
9.32588e-08
9.32361e-08
9.32172e-08
9.31681e-08
9.31728e-08
9.40681e-08
9.63651e-08
1.09161e-08
1.2393e-07
1.2315e-07
1.22399e-07
1.21323e-07
1.19875e-07
1.18133e-07
1.16286e-07
1.14428e-07
1.12672e-07
1.11024e-07
1.09534e-07
1.08167e-07
1.06949e-07
1.05837e-07
1.04851e-07
1.03949e-07
1.03149e-07
1.02413e-07
1.01759e-07
1.01154e-07
1.00615e-07
1.00113e-07
9.96645e-08
9.92459e-08
9.88693e-08
9.85165e-08
9.81973e-08
9.7898e-08
9.76259e-08
9.737e-08
9.71356e-08
9.69157e-08
9.67124e-08
9.65222e-08
9.63448e-08
9.61794e-08
9.60234e-08
9.58789e-08
9.5741e-08
9.56145e-08
9.54911e-08
9.538e-08
9.52701e-08
9.51715e-08
9.50724e-08
9.49855e-08
9.48957e-08
9.48196e-08
9.47374e-08
9.467e-08
9.45945e-08
9.45343e-08
9.44631e-08
9.44103e-08
9.43459e-08
9.42979e-08
9.4239e-08
9.41957e-08
9.41425e-08
9.41033e-08
9.40528e-08
9.40163e-08
9.39704e-08
9.39365e-08
9.38935e-08
9.38623e-08
9.38233e-08
9.37948e-08
9.37586e-08
9.37314e-08
9.36971e-08
9.36716e-08
9.36402e-08
9.36177e-08
9.35886e-08
9.35684e-08
9.3541e-08
9.35216e-08
9.34946e-08
9.34755e-08
9.34487e-08
9.34297e-08
9.34035e-08
9.33846e-08
9.33589e-08
9.33391e-08
9.3311e-08
9.32897e-08
9.32599e-08
9.32372e-08
9.32183e-08
9.31692e-08
9.31743e-08
9.40816e-08
9.63695e-08
1.13961e-08
1.2393e-07
1.2315e-07
1.22398e-07
1.21325e-07
1.19879e-07
1.1814e-07
1.16295e-07
1.14438e-07
1.12683e-07
1.11036e-07
1.09546e-07
1.08179e-07
1.06961e-07
1.05849e-07
1.04863e-07
1.0396e-07
1.03159e-07
1.02423e-07
1.01768e-07
1.01163e-07
1.00624e-07
1.00122e-07
9.96728e-08
9.92538e-08
9.88769e-08
9.85238e-08
9.82044e-08
9.79048e-08
9.76323e-08
9.73762e-08
9.71415e-08
9.69214e-08
9.67179e-08
9.65275e-08
9.635e-08
9.61844e-08
9.60281e-08
9.58835e-08
9.57454e-08
9.56188e-08
9.54953e-08
9.5384e-08
9.52739e-08
9.51753e-08
9.5076e-08
9.49891e-08
9.48992e-08
9.4823e-08
9.47407e-08
9.46732e-08
9.45975e-08
9.45372e-08
9.4466e-08
9.44131e-08
9.43486e-08
9.43005e-08
9.42416e-08
9.41982e-08
9.41449e-08
9.41057e-08
9.40552e-08
9.40186e-08
9.39727e-08
9.39387e-08
9.38957e-08
9.38644e-08
9.38254e-08
9.37968e-08
9.37605e-08
9.37333e-08
9.3699e-08
9.36735e-08
9.3642e-08
9.36195e-08
9.35904e-08
9.35701e-08
9.35426e-08
9.35233e-08
9.34962e-08
9.34771e-08
9.34502e-08
9.34312e-08
9.3405e-08
9.3386e-08
9.33603e-08
9.33405e-08
9.33125e-08
9.32912e-08
9.32613e-08
9.32387e-08
9.32197e-08
9.31708e-08
9.31761e-08
9.4098e-08
9.63748e-08
1.19087e-08
1.2393e-07
1.23149e-07
1.22398e-07
1.21327e-07
1.19884e-07
1.18148e-07
1.16305e-07
1.14451e-07
1.12697e-07
1.1105e-07
1.0956e-07
1.08193e-07
1.06975e-07
1.05863e-07
1.04876e-07
1.03973e-07
1.03172e-07
1.02435e-07
1.0178e-07
1.01174e-07
1.00634e-07
1.00132e-07
9.96826e-08
9.92632e-08
9.88859e-08
9.85324e-08
9.82127e-08
9.79127e-08
9.764e-08
9.73836e-08
9.71486e-08
9.69282e-08
9.67245e-08
9.65339e-08
9.63561e-08
9.61903e-08
9.60338e-08
9.5889e-08
9.57507e-08
9.5624e-08
9.55002e-08
9.53888e-08
9.52786e-08
9.51798e-08
9.50804e-08
9.49933e-08
9.49033e-08
9.4827e-08
9.47446e-08
9.4677e-08
9.46012e-08
9.45408e-08
9.44695e-08
9.44165e-08
9.43519e-08
9.43038e-08
9.42447e-08
9.42013e-08
9.41479e-08
9.41087e-08
9.40581e-08
9.40214e-08
9.39754e-08
9.39414e-08
9.38983e-08
9.3867e-08
9.38279e-08
9.37993e-08
9.3763e-08
9.37357e-08
9.37013e-08
9.36758e-08
9.36443e-08
9.36217e-08
9.35925e-08
9.35722e-08
9.35447e-08
9.35253e-08
9.34982e-08
9.3479e-08
9.34521e-08
9.34331e-08
9.34068e-08
9.33879e-08
9.33621e-08
9.33423e-08
9.33143e-08
9.3293e-08
9.32631e-08
9.32406e-08
9.32216e-08
9.31728e-08
9.31785e-08
9.41176e-08
9.63809e-08
1.24543e-08
1.2393e-07
1.23148e-07
1.22398e-07
1.21329e-07
1.1989e-07
1.18157e-07
1.16317e-07
1.14465e-07
1.12712e-07
1.11066e-07
1.09577e-07
1.0821e-07
1.06991e-07
1.05879e-07
1.04892e-07
1.03988e-07
1.03186e-07
1.02449e-07
1.01793e-07
1.01187e-07
1.00647e-07
1.00144e-07
9.96939e-08
9.92741e-08
9.88964e-08
9.85424e-08
9.82223e-08
9.7922e-08
9.76489e-08
9.73922e-08
9.71569e-08
9.69361e-08
9.67322e-08
9.65412e-08
9.63632e-08
9.61971e-08
9.60405e-08
9.58954e-08
9.57569e-08
9.563e-08
9.5506e-08
9.53944e-08
9.52841e-08
9.51851e-08
9.50855e-08
9.49983e-08
9.49081e-08
9.48317e-08
9.47491e-08
9.46814e-08
9.46055e-08
9.45451e-08
9.44737e-08
9.44206e-08
9.43559e-08
9.43076e-08
9.42485e-08
9.4205e-08
9.41515e-08
9.41121e-08
9.40615e-08
9.40247e-08
9.39787e-08
9.39446e-08
9.39015e-08
9.38701e-08
9.38309e-08
9.38023e-08
9.37659e-08
9.37386e-08
9.37041e-08
9.36786e-08
9.3647e-08
9.36243e-08
9.35951e-08
9.35748e-08
9.35472e-08
9.35278e-08
9.35006e-08
9.34814e-08
9.34544e-08
9.34354e-08
9.3409e-08
9.33901e-08
9.33642e-08
9.33444e-08
9.33166e-08
9.32953e-08
9.32653e-08
9.32428e-08
9.32238e-08
9.31751e-08
9.31812e-08
9.41405e-08
9.63877e-08
1.30329e-08
1.2393e-07
1.23147e-07
1.22398e-07
1.21331e-07
1.19896e-07
1.18167e-07
1.16331e-07
1.1448e-07
1.12729e-07
1.11084e-07
1.09595e-07
1.08228e-07
1.0701e-07
1.05897e-07
1.04909e-07
1.04005e-07
1.03203e-07
1.02465e-07
1.01809e-07
1.01202e-07
1.00661e-07
1.00157e-07
9.97069e-08
9.92865e-08
9.89083e-08
9.85539e-08
9.82333e-08
9.79325e-08
9.7659e-08
9.74019e-08
9.71663e-08
9.69452e-08
9.67409e-08
9.65497e-08
9.63713e-08
9.6205e-08
9.60481e-08
9.59027e-08
9.5764e-08
9.56369e-08
9.55127e-08
9.54009e-08
9.52903e-08
9.51912e-08
9.50914e-08
9.50041e-08
9.49137e-08
9.48372e-08
9.47544e-08
9.46866e-08
9.46105e-08
9.455e-08
9.44785e-08
9.44252e-08
9.43604e-08
9.43121e-08
9.42528e-08
9.42092e-08
9.41556e-08
9.41162e-08
9.40654e-08
9.40286e-08
9.39825e-08
9.39484e-08
9.39051e-08
9.38737e-08
9.38344e-08
9.38057e-08
9.37693e-08
9.37419e-08
9.37074e-08
9.36818e-08
9.36501e-08
9.36275e-08
9.35982e-08
9.35778e-08
9.35501e-08
9.35306e-08
9.35034e-08
9.34842e-08
9.34571e-08
9.34381e-08
9.34117e-08
9.33927e-08
9.33667e-08
9.3347e-08
9.33192e-08
9.3298e-08
9.32679e-08
9.32454e-08
9.32264e-08
9.31779e-08
9.31845e-08
9.41668e-08
9.63952e-08
1.36439e-08
1.2393e-07
1.23147e-07
1.22398e-07
1.21334e-07
1.19903e-07
1.18179e-07
1.16346e-07
1.14498e-07
1.12749e-07
1.11105e-07
1.09616e-07
1.08249e-07
1.0703e-07
1.05917e-07
1.04929e-07
1.04024e-07
1.03221e-07
1.02482e-07
1.01826e-07
1.01218e-07
1.00676e-07
1.00173e-07
9.97214e-08
9.93004e-08
9.89217e-08
9.85667e-08
9.82457e-08
9.79444e-08
9.76705e-08
9.74129e-08
9.71769e-08
9.69555e-08
9.67508e-08
9.65592e-08
9.63805e-08
9.62139e-08
9.60567e-08
9.59111e-08
9.57721e-08
9.56447e-08
9.55203e-08
9.54083e-08
9.52975e-08
9.51982e-08
9.50982e-08
9.50106e-08
9.49201e-08
9.48434e-08
9.47605e-08
9.46925e-08
9.46163e-08
9.45556e-08
9.44839e-08
9.44305e-08
9.43656e-08
9.43172e-08
9.42578e-08
9.42141e-08
9.41604e-08
9.41208e-08
9.407e-08
9.40331e-08
9.39869e-08
9.39527e-08
9.39093e-08
9.38778e-08
9.38385e-08
9.38097e-08
9.37732e-08
9.37458e-08
9.37112e-08
9.36856e-08
9.36538e-08
9.36311e-08
9.36017e-08
9.35813e-08
9.35535e-08
9.3534e-08
9.35066e-08
9.34874e-08
9.34603e-08
9.34412e-08
9.34147e-08
9.33957e-08
9.33697e-08
9.33499e-08
9.33222e-08
9.3301e-08
9.32709e-08
9.32485e-08
9.32295e-08
9.31811e-08
9.31883e-08
9.41968e-08
9.64033e-08
1.42869e-08
1.2393e-07
1.23146e-07
1.22398e-07
1.21337e-07
1.19911e-07
1.18191e-07
1.16362e-07
1.14517e-07
1.1277e-07
1.11127e-07
1.09639e-07
1.08272e-07
1.07053e-07
1.05939e-07
1.04951e-07
1.04045e-07
1.03242e-07
1.02502e-07
1.01845e-07
1.01236e-07
1.00694e-07
1.00189e-07
9.97376e-08
9.93159e-08
9.89366e-08
9.85811e-08
9.82595e-08
9.79577e-08
9.76833e-08
9.74253e-08
9.71888e-08
9.69669e-08
9.67618e-08
9.65699e-08
9.63909e-08
9.62239e-08
9.60663e-08
9.59204e-08
9.57811e-08
9.56534e-08
9.55288e-08
9.54165e-08
9.53055e-08
9.5206e-08
9.51057e-08
9.5018e-08
9.49272e-08
9.48503e-08
9.47672e-08
9.46991e-08
9.46227e-08
9.45619e-08
9.44901e-08
9.44365e-08
9.43715e-08
9.43229e-08
9.42633e-08
9.42195e-08
9.41657e-08
9.41261e-08
9.40751e-08
9.40382e-08
9.39918e-08
9.39575e-08
9.39141e-08
9.38825e-08
9.38431e-08
9.38142e-08
9.37776e-08
9.37501e-08
9.37155e-08
9.36898e-08
9.36579e-08
9.36352e-08
9.36057e-08
9.35852e-08
9.35573e-08
9.35378e-08
9.35103e-08
9.34911e-08
9.34639e-08
9.34448e-08
9.34182e-08
9.33992e-08
9.3373e-08
9.33533e-08
9.33256e-08
9.33045e-08
9.32743e-08
9.32519e-08
9.32329e-08
9.31847e-08
9.31926e-08
9.42307e-08
9.64117e-08
1.49638e-08
1.2393e-07
1.23144e-07
1.22397e-07
1.21341e-07
1.19919e-07
1.18205e-07
1.1638e-07
1.14539e-07
1.12793e-07
1.11152e-07
1.09664e-07
1.08298e-07
1.07078e-07
1.05964e-07
1.04975e-07
1.04068e-07
1.03264e-07
1.02524e-07
1.01866e-07
1.01256e-07
1.00713e-07
1.00208e-07
9.97555e-08
9.93331e-08
9.89531e-08
9.85969e-08
9.82748e-08
9.79724e-08
9.76975e-08
9.74389e-08
9.7202e-08
9.69796e-08
9.67741e-08
9.65817e-08
9.64023e-08
9.62349e-08
9.6077e-08
9.59308e-08
9.57912e-08
9.56632e-08
9.55382e-08
9.54257e-08
9.53144e-08
9.52146e-08
9.51141e-08
9.50262e-08
9.49352e-08
9.48581e-08
9.47748e-08
9.47065e-08
9.46299e-08
9.45689e-08
9.44969e-08
9.44432e-08
9.4378e-08
9.43293e-08
9.42696e-08
9.42257e-08
9.41717e-08
9.4132e-08
9.40809e-08
9.40438e-08
9.39973e-08
9.3963e-08
9.39194e-08
9.38878e-08
9.38482e-08
9.38193e-08
9.37825e-08
9.37551e-08
9.37203e-08
9.36946e-08
9.36626e-08
9.36398e-08
9.36102e-08
9.35896e-08
9.35616e-08
9.3542e-08
9.35145e-08
9.34952e-08
9.34679e-08
9.34488e-08
9.34221e-08
9.34031e-08
9.33768e-08
9.33571e-08
9.33295e-08
9.33085e-08
9.32782e-08
9.32558e-08
9.32368e-08
9.31888e-08
9.31974e-08
9.42684e-08
9.64202e-08
1.56768e-08
1.2393e-07
1.23143e-07
1.22397e-07
1.21344e-07
1.19929e-07
1.1822e-07
1.164e-07
1.14562e-07
1.12819e-07
1.11179e-07
1.09692e-07
1.08325e-07
1.07106e-07
1.05991e-07
1.05001e-07
1.04094e-07
1.03289e-07
1.02548e-07
1.01889e-07
1.01279e-07
1.00735e-07
1.00228e-07
9.97751e-08
9.9352e-08
9.89713e-08
9.86144e-08
9.82916e-08
9.79886e-08
9.7713e-08
9.74539e-08
9.72164e-08
9.69935e-08
9.67876e-08
9.65947e-08
9.64149e-08
9.62471e-08
9.60888e-08
9.59422e-08
9.58022e-08
9.56739e-08
9.55487e-08
9.54358e-08
9.53242e-08
9.52242e-08
9.51234e-08
9.50353e-08
9.4944e-08
9.48667e-08
9.47831e-08
9.47146e-08
9.46378e-08
9.45767e-08
9.45045e-08
9.44507e-08
9.43853e-08
9.43364e-08
9.42765e-08
9.42325e-08
9.41783e-08
9.41385e-08
9.40873e-08
9.40501e-08
9.40035e-08
9.3969e-08
9.39254e-08
9.38936e-08
9.38539e-08
9.38249e-08
9.37881e-08
9.37605e-08
9.37257e-08
9.36999e-08
9.36678e-08
9.36449e-08
9.36152e-08
9.35946e-08
9.35664e-08
9.35468e-08
9.35192e-08
9.34998e-08
9.34725e-08
9.34533e-08
9.34265e-08
9.34075e-08
9.3381e-08
9.33614e-08
9.33338e-08
9.33128e-08
9.32825e-08
9.32602e-08
9.32412e-08
9.31934e-08
9.32028e-08
9.43103e-08
9.64285e-08
1.64281e-08
1.2393e-07
1.23142e-07
1.22397e-07
1.21348e-07
1.19938e-07
1.18236e-07
1.16421e-07
1.14587e-07
1.12847e-07
1.11208e-07
1.09722e-07
1.08355e-07
1.07136e-07
1.0602e-07
1.0503e-07
1.04122e-07
1.03316e-07
1.02574e-07
1.01914e-07
1.01303e-07
1.00758e-07
1.00251e-07
9.97966e-08
9.93726e-08
9.89911e-08
9.86334e-08
9.83099e-08
9.80062e-08
9.77301e-08
9.74703e-08
9.72323e-08
9.70088e-08
9.68023e-08
9.6609e-08
9.64287e-08
9.62605e-08
9.61017e-08
9.59547e-08
9.58144e-08
9.56857e-08
9.55601e-08
9.54469e-08
9.5335e-08
9.52347e-08
9.51336e-08
9.50452e-08
9.49537e-08
9.48761e-08
9.47923e-08
9.47236e-08
9.46466e-08
9.45853e-08
9.45129e-08
9.44589e-08
9.43933e-08
9.43442e-08
9.42842e-08
9.42399e-08
9.41856e-08
9.41457e-08
9.40943e-08
9.4057e-08
9.40103e-08
9.39757e-08
9.39319e-08
9.39001e-08
9.38602e-08
9.38311e-08
9.37942e-08
9.37666e-08
9.37316e-08
9.37058e-08
9.36736e-08
9.36506e-08
9.36207e-08
9.36e-08
9.35718e-08
9.35521e-08
9.35244e-08
9.3505e-08
9.34775e-08
9.34583e-08
9.34314e-08
9.34123e-08
9.33857e-08
9.33661e-08
9.33386e-08
9.33177e-08
9.32872e-08
9.3265e-08
9.3246e-08
9.31984e-08
9.32088e-08
9.43564e-08
9.63588e-08
1.72203e-08
1.2393e-07
1.23141e-07
1.22396e-07
1.21352e-07
1.19949e-07
1.18253e-07
1.16444e-07
1.14614e-07
1.12877e-07
1.1124e-07
1.09754e-07
1.08388e-07
1.07168e-07
1.06052e-07
1.05061e-07
1.04152e-07
1.03345e-07
1.02602e-07
1.01941e-07
1.01329e-07
1.00783e-07
1.00275e-07
9.98198e-08
9.93949e-08
9.90127e-08
9.86542e-08
9.83299e-08
9.80254e-08
9.77486e-08
9.74882e-08
9.72495e-08
9.70255e-08
9.68184e-08
9.66245e-08
9.64437e-08
9.6275e-08
9.61158e-08
9.59684e-08
9.58276e-08
9.56986e-08
9.55726e-08
9.54591e-08
9.53468e-08
9.52462e-08
9.51448e-08
9.50561e-08
9.49642e-08
9.48864e-08
9.48024e-08
9.47334e-08
9.46561e-08
9.45947e-08
9.45221e-08
9.44678e-08
9.4402e-08
9.43528e-08
9.42926e-08
9.42482e-08
9.41936e-08
9.41535e-08
9.41021e-08
9.40646e-08
9.40177e-08
9.39831e-08
9.39391e-08
9.39071e-08
9.38672e-08
9.3838e-08
9.38009e-08
9.37732e-08
9.37381e-08
9.37122e-08
9.36799e-08
9.36569e-08
9.36268e-08
9.3606e-08
9.35777e-08
9.35579e-08
9.35301e-08
9.35106e-08
9.3483e-08
9.34638e-08
9.34368e-08
9.34177e-08
9.33909e-08
9.33714e-08
9.33438e-08
9.3323e-08
9.32925e-08
9.32702e-08
9.32513e-08
9.3204e-08
9.32153e-08
9.44068e-08
9.065e-08
1.8056e-08
1.2393e-07
1.23139e-07
1.22396e-07
1.21356e-07
1.1996e-07
1.18271e-07
1.16469e-07
1.14643e-07
1.12909e-07
1.11274e-07
1.09789e-07
1.08423e-07
1.07203e-07
1.06086e-07
1.05094e-07
1.04184e-07
1.03376e-07
1.02632e-07
1.0197e-07
1.01357e-07
1.0081e-07
1.00301e-07
9.9845e-08
9.94191e-08
9.9036e-08
9.86766e-08
9.83515e-08
9.80462e-08
9.77687e-08
9.75075e-08
9.72682e-08
9.70435e-08
9.68359e-08
9.66414e-08
9.646e-08
9.62908e-08
9.61311e-08
9.59832e-08
9.5842e-08
9.57125e-08
9.55862e-08
9.54722e-08
9.53596e-08
9.52587e-08
9.51569e-08
9.50679e-08
9.49757e-08
9.48977e-08
9.48133e-08
9.47441e-08
9.46666e-08
9.46049e-08
9.4532e-08
9.44776e-08
9.44115e-08
9.43621e-08
9.43017e-08
9.42571e-08
9.42024e-08
9.41621e-08
9.41105e-08
9.40729e-08
9.40258e-08
9.39911e-08
9.3947e-08
9.39149e-08
9.38747e-08
9.38455e-08
9.38082e-08
9.37805e-08
9.37452e-08
9.37193e-08
9.36868e-08
9.36637e-08
9.36335e-08
9.36126e-08
9.35841e-08
9.35643e-08
9.35363e-08
9.35168e-08
9.34891e-08
9.34698e-08
9.34427e-08
9.34235e-08
9.33967e-08
9.33771e-08
9.33495e-08
9.33288e-08
9.32982e-08
9.3276e-08
9.32571e-08
9.32101e-08
9.32225e-08
9.44616e-08
8.55624e-08
1.89378e-08
1.2393e-07
1.23138e-07
1.22396e-07
1.21361e-07
1.19972e-07
1.18291e-07
1.16495e-07
1.14674e-07
1.12943e-07
1.1131e-07
1.09826e-07
1.0846e-07
1.0724e-07
1.06123e-07
1.0513e-07
1.04219e-07
1.0341e-07
1.02665e-07
1.02002e-07
1.01387e-07
1.00839e-07
1.00329e-07
9.98721e-08
9.94452e-08
9.90611e-08
9.87007e-08
9.83748e-08
9.80687e-08
9.77903e-08
9.75284e-08
9.72884e-08
9.7063e-08
9.68547e-08
9.66596e-08
9.64777e-08
9.63079e-08
9.61477e-08
9.59993e-08
9.58576e-08
9.57277e-08
9.56008e-08
9.54865e-08
9.53734e-08
9.52722e-08
9.517e-08
9.50807e-08
9.49882e-08
9.49098e-08
9.48251e-08
9.47557e-08
9.46779e-08
9.4616e-08
9.45428e-08
9.44881e-08
9.44219e-08
9.43723e-08
9.43116e-08
9.42668e-08
9.42119e-08
9.41715e-08
9.41196e-08
9.40819e-08
9.40347e-08
9.39998e-08
9.39555e-08
9.39233e-08
9.3883e-08
9.38536e-08
9.38162e-08
9.37884e-08
9.3753e-08
9.37269e-08
9.36943e-08
9.36711e-08
9.36408e-08
9.36198e-08
9.35911e-08
9.35712e-08
9.35431e-08
9.35236e-08
9.34957e-08
9.34764e-08
9.34491e-08
9.34299e-08
9.34029e-08
9.33833e-08
9.33557e-08
9.33351e-08
9.33045e-08
9.32823e-08
9.32634e-08
9.32167e-08
9.32304e-08
9.45209e-08
8.1028e-08
1.98687e-08
1.2393e-07
1.23136e-07
1.22395e-07
1.21365e-07
1.19985e-07
1.18311e-07
1.16522e-07
1.14707e-07
1.12979e-07
1.11348e-07
1.09866e-07
1.08501e-07
1.0728e-07
1.06162e-07
1.05168e-07
1.04257e-07
1.03446e-07
1.027e-07
1.02035e-07
1.0142e-07
1.00871e-07
1.00359e-07
9.99012e-08
9.94732e-08
9.90881e-08
9.87267e-08
9.83999e-08
9.80928e-08
9.78136e-08
9.75508e-08
9.73101e-08
9.70839e-08
9.6875e-08
9.66792e-08
9.64967e-08
9.63263e-08
9.61655e-08
9.60166e-08
9.58743e-08
9.57439e-08
9.56166e-08
9.55019e-08
9.53884e-08
9.52867e-08
9.51842e-08
9.50946e-08
9.50016e-08
9.4923e-08
9.48379e-08
9.47682e-08
9.46901e-08
9.46279e-08
9.45545e-08
9.44996e-08
9.44331e-08
9.43832e-08
9.43223e-08
9.42773e-08
9.42222e-08
9.41816e-08
9.41296e-08
9.40917e-08
9.40442e-08
9.40092e-08
9.39647e-08
9.39324e-08
9.38919e-08
9.38624e-08
9.38248e-08
9.37969e-08
9.37614e-08
9.37353e-08
9.37025e-08
9.36792e-08
9.36487e-08
9.36276e-08
9.35988e-08
9.35788e-08
9.35505e-08
9.35309e-08
9.35029e-08
9.34835e-08
9.34561e-08
9.34369e-08
9.34097e-08
9.33901e-08
9.33625e-08
9.33419e-08
9.33113e-08
9.32891e-08
9.32703e-08
9.32239e-08
9.32389e-08
9.45847e-08
7.69804e-08
2.08515e-08
1.2393e-07
1.23134e-07
1.22394e-07
1.2137e-07
1.19998e-07
1.18333e-07
1.16551e-07
1.14742e-07
1.13018e-07
1.1139e-07
1.09909e-07
1.08543e-07
1.07323e-07
1.06204e-07
1.05209e-07
1.04296e-07
1.03485e-07
1.02737e-07
1.02071e-07
1.01455e-07
1.00904e-07
1.00392e-07
9.99324e-08
9.95031e-08
9.9117e-08
9.87545e-08
9.84267e-08
9.81186e-08
9.78386e-08
9.75749e-08
9.73334e-08
9.71064e-08
9.68967e-08
9.67002e-08
9.6517e-08
9.6346e-08
9.61846e-08
9.60351e-08
9.58923e-08
9.57614e-08
9.56337e-08
9.55184e-08
9.54045e-08
9.53024e-08
9.51995e-08
9.51094e-08
9.50161e-08
9.49371e-08
9.48517e-08
9.47817e-08
9.47032e-08
9.46408e-08
9.45671e-08
9.45119e-08
9.44451e-08
9.43951e-08
9.43339e-08
9.42887e-08
9.42332e-08
9.41925e-08
9.41403e-08
9.41022e-08
9.40545e-08
9.40194e-08
9.39747e-08
9.39422e-08
9.39016e-08
9.38719e-08
9.38342e-08
9.38062e-08
9.37705e-08
9.37443e-08
9.37113e-08
9.3688e-08
9.36572e-08
9.36361e-08
9.3607e-08
9.3587e-08
9.35585e-08
9.35388e-08
9.35107e-08
9.34913e-08
9.34637e-08
9.34445e-08
9.34171e-08
9.33975e-08
9.33697e-08
9.33493e-08
9.33186e-08
9.32965e-08
9.32777e-08
9.32316e-08
9.3248e-08
9.46529e-08
7.33631e-08
2.18891e-08
1.2393e-07
1.23133e-07
1.22394e-07
1.21375e-07
1.20012e-07
1.18356e-07
1.16582e-07
1.14778e-07
1.13059e-07
1.11433e-07
1.09954e-07
1.08589e-07
1.07368e-07
1.06249e-07
1.05253e-07
1.04339e-07
1.03526e-07
1.02777e-07
1.0211e-07
1.01492e-07
1.0094e-07
1.00426e-07
9.99656e-08
9.95351e-08
9.91478e-08
9.87842e-08
9.84554e-08
9.81463e-08
9.78653e-08
9.76007e-08
9.73583e-08
9.71305e-08
9.692e-08
9.67227e-08
9.65388e-08
9.63671e-08
9.62051e-08
9.6055e-08
9.59116e-08
9.57802e-08
9.56519e-08
9.55362e-08
9.54217e-08
9.53192e-08
9.52158e-08
9.51254e-08
9.50316e-08
9.49523e-08
9.48665e-08
9.47962e-08
9.47173e-08
9.46547e-08
9.45807e-08
9.45252e-08
9.44581e-08
9.44078e-08
9.43463e-08
9.43009e-08
9.42452e-08
9.42042e-08
9.41518e-08
9.41135e-08
9.40656e-08
9.40303e-08
9.39855e-08
9.39528e-08
9.3912e-08
9.38822e-08
9.38443e-08
9.38161e-08
9.37803e-08
9.3754e-08
9.37209e-08
9.36974e-08
9.36665e-08
9.36452e-08
9.36159e-08
9.35958e-08
9.35672e-08
9.35474e-08
9.35191e-08
9.34996e-08
9.34719e-08
9.34526e-08
9.3425e-08
9.34054e-08
9.33775e-08
9.33573e-08
9.33265e-08
9.33044e-08
9.32857e-08
9.324e-08
9.32579e-08
9.4725e-08
7.01283e-08
2.29844e-08
1.2393e-07
1.23131e-07
1.22393e-07
1.21381e-07
1.20026e-07
1.1838e-07
1.16615e-07
1.14817e-07
1.13102e-07
1.11479e-07
1.10001e-07
1.08637e-07
1.07416e-07
1.06296e-07
1.05299e-07
1.04384e-07
1.0357e-07
1.02819e-07
1.02151e-07
1.01531e-07
1.00978e-07
1.00463e-07
1.00001e-07
9.95692e-08
9.91807e-08
9.88159e-08
9.8486e-08
9.81758e-08
9.78938e-08
9.76282e-08
9.73848e-08
9.71561e-08
9.69449e-08
9.67468e-08
9.65622e-08
9.63897e-08
9.6227e-08
9.60763e-08
9.59323e-08
9.58003e-08
9.56714e-08
9.55551e-08
9.54402e-08
9.53372e-08
9.52333e-08
9.51425e-08
9.50483e-08
9.49685e-08
9.48823e-08
9.48117e-08
9.47324e-08
9.46695e-08
9.45952e-08
9.45394e-08
9.4472e-08
9.44214e-08
9.43597e-08
9.4314e-08
9.4258e-08
9.42168e-08
9.41641e-08
9.41257e-08
9.40776e-08
9.40421e-08
9.3997e-08
9.39642e-08
9.39231e-08
9.38932e-08
9.38551e-08
9.38268e-08
9.37908e-08
9.37644e-08
9.37311e-08
9.37075e-08
9.36764e-08
9.3655e-08
9.36255e-08
9.36053e-08
9.35765e-08
9.35567e-08
9.35282e-08
9.35086e-08
9.34807e-08
9.34614e-08
9.34336e-08
9.3414e-08
9.33859e-08
9.33658e-08
9.3335e-08
9.33129e-08
9.32943e-08
9.32489e-08
9.32685e-08
9.48004e-08
6.72352e-08
2.414e-08
1.2393e-07
1.23129e-07
1.22392e-07
1.21386e-07
1.20041e-07
1.18405e-07
1.16649e-07
1.14858e-07
1.13148e-07
1.11528e-07
1.10051e-07
1.08687e-07
1.07467e-07
1.06346e-07
1.05348e-07
1.04432e-07
1.03617e-07
1.02864e-07
1.02194e-07
1.01573e-07
1.01019e-07
1.00502e-07
1.00039e-07
9.96055e-08
9.92157e-08
9.88496e-08
9.85185e-08
9.82071e-08
9.79241e-08
9.76574e-08
9.74131e-08
9.71835e-08
9.69713e-08
9.67724e-08
9.6587e-08
9.64138e-08
9.62504e-08
9.6099e-08
9.59543e-08
9.58217e-08
9.56922e-08
9.55754e-08
9.54598e-08
9.53564e-08
9.5252e-08
9.51607e-08
9.5066e-08
9.49859e-08
9.48993e-08
9.48282e-08
9.47486e-08
9.46854e-08
9.46107e-08
9.45545e-08
9.44869e-08
9.4436e-08
9.43739e-08
9.4328e-08
9.42717e-08
9.42303e-08
9.41774e-08
9.41387e-08
9.40903e-08
9.40547e-08
9.40094e-08
9.39764e-08
9.39351e-08
9.3905e-08
9.38667e-08
9.38383e-08
9.38021e-08
9.37756e-08
9.37421e-08
9.37184e-08
9.3687e-08
9.36655e-08
9.36358e-08
9.36155e-08
9.35865e-08
9.35666e-08
9.35379e-08
9.35183e-08
9.34902e-08
9.34708e-08
9.34428e-08
9.34232e-08
9.33949e-08
9.33749e-08
9.33441e-08
9.3322e-08
9.33035e-08
9.32585e-08
9.32798e-08
9.48784e-08
6.46489e-08
2.53583e-08
1.2393e-07
1.23127e-07
1.22391e-07
1.21392e-07
1.20057e-07
1.18432e-07
1.16685e-07
1.14901e-07
1.13196e-07
1.11579e-07
1.10104e-07
1.08741e-07
1.0752e-07
1.06399e-07
1.054e-07
1.04482e-07
1.03666e-07
1.02912e-07
1.02241e-07
1.01618e-07
1.01062e-07
1.00543e-07
1.00079e-07
9.96439e-08
9.92528e-08
9.88854e-08
9.85531e-08
9.82404e-08
9.79563e-08
9.76885e-08
9.74432e-08
9.72126e-08
9.69995e-08
9.67997e-08
9.66134e-08
9.64394e-08
9.62753e-08
9.61231e-08
9.59777e-08
9.58444e-08
9.57143e-08
9.55969e-08
9.54808e-08
9.53769e-08
9.52719e-08
9.51802e-08
9.5085e-08
9.50044e-08
9.49173e-08
9.48459e-08
9.47659e-08
9.47023e-08
9.46272e-08
9.45708e-08
9.45027e-08
9.44515e-08
9.43892e-08
9.43429e-08
9.42863e-08
9.42447e-08
9.41915e-08
9.41526e-08
9.4104e-08
9.40681e-08
9.40226e-08
9.39895e-08
9.39479e-08
9.39176e-08
9.38791e-08
9.38506e-08
9.38141e-08
9.37875e-08
9.37538e-08
9.373e-08
9.36984e-08
9.36767e-08
9.36468e-08
9.36264e-08
9.35972e-08
9.35772e-08
9.35483e-08
9.35286e-08
9.35004e-08
9.34809e-08
9.34527e-08
9.34331e-08
9.34045e-08
9.33847e-08
9.33538e-08
9.33318e-08
9.33134e-08
9.32688e-08
9.32919e-08
9.49582e-08
6.23397e-08
2.66411e-08
1.2393e-07
1.23124e-07
1.2239e-07
1.21397e-07
1.20073e-07
1.18459e-07
1.16722e-07
1.14946e-07
1.13246e-07
1.11632e-07
1.1016e-07
1.08797e-07
1.07576e-07
1.06454e-07
1.05455e-07
1.04535e-07
1.03718e-07
1.02962e-07
1.02289e-07
1.01665e-07
1.01107e-07
1.00587e-07
1.00121e-07
9.96846e-08
9.92921e-08
9.89233e-08
9.85897e-08
9.82757e-08
9.79904e-08
9.77215e-08
9.74751e-08
9.72434e-08
9.70294e-08
9.68286e-08
9.66415e-08
9.64666e-08
9.63017e-08
9.61487e-08
9.60026e-08
9.58687e-08
9.57379e-08
9.56199e-08
9.55031e-08
9.53986e-08
9.52931e-08
9.52009e-08
9.51051e-08
9.50241e-08
9.49365e-08
9.48647e-08
9.47842e-08