/*--------------------------------*- C++ -*----------------------------------*\
| =========                 |                                                 |
| \\      /  F ield         | OpenFOAM: The Open Source CFD Toolbox           |
|  \\    /   O peration     | Version:  v2012                                 |
|   \\  /    A nd           | Website:  www.openfoam.com                      |
|    \\/     M anipulation  |                                                 |
\*---------------------------------------------------------------------------*/
FoamFile
{
    version     2.0;
    format      ascii;
    class       volScalarField;
    location    "58.5";
    object      omega;
}
// * * * * * * * * * * * * * * * * * * * * * * * * * * * * * * * * * * * * * //

dimensions      [0 0 -1 0 0 0 0];


internalField   nonuniform List<scalar> 
209825
(
8261.79
7570.32
6999.54
6538.77
6172.22
5882.2
5650.87
5464.94
5313.03
5187.98
5083.18
4995.12
4919.67
4855.27
4799.06
4750.51
4707.44
4669.92
4636.14
4606.56
4579.55
4555.83
4533.89
4514.58
4496.49
4480.6
4465.52
4452.29
4439.58
4428.48
4417.66
4408.27
4399
4391.01
4383
4376.15
4369.22
4363.33
4357.27
4352.17
4346.89
4342.46
4337.8
4333.96
4329.87
4326.51
4322.89
4319.92
4316.75
4314.15
4311.36
4309.1
4306.71
4304.67
4302.54
4300.76
4298.88
4297.32
4295.62
4294.26
4292.82
4291.71
4290.39
4289.47
4288.34
4287.56
4286.52
4285.87
4284.98
4284.47
4283.72
4283.32
4282.68
4282.34
4281.73
4281.36
4280.77
4280.43
4279.91
4279.63
4279.17
4278.96
4278.55
4278.39
4278.06
4278.01
4277.89
4278.05
4278.05
4278.34
4278.34
4278.96
4279.71
4307.67
4415.6
113063
8261.79
7570.32
6999.54
6538.77
6172.21
5882.17
5650.84
5464.9
5312.97
5187.92
5083.11
4995.04
4919.6
4855.19
4798.97
4750.42
4707.34
4669.82
4636.04
4606.45
4579.45
4555.72
4533.78
4514.47
4496.38
4480.48
4465.41
4452.18
4439.46
4428.36
4417.54
4408.15
4398.88
4390.88
4382.88
4376.03
4369.09
4363.2
4357.15
4352.04
4346.76
4342.33
4337.67
4333.83
4329.74
4326.38
4322.76
4319.79
4316.62
4314.02
4311.23
4308.97
4306.58
4304.54
4302.4
4300.63
4298.74
4297.18
4295.48
4294.13
4292.68
4291.57
4290.25
4289.34
4288.2
4287.42
4286.39
4285.73
4284.84
4284.34
4283.59
4283.18
4282.55
4282.2
4281.59
4281.22
4280.63
4280.3
4279.77
4279.5
4279.04
4278.82
4278.41
4278.25
4277.92
4277.88
4277.75
4277.91
4277.91
4278.2
4278.2
4278.82
4279.57
4307.58
4415.5
109764
8261.79
7570.32
6999.54
6538.75
6172.17
5882.09
5650.73
5464.75
5312.8
5187.72
5082.88
4994.8
4919.33
4854.91
4798.68
4750.11
4707.02
4669.49
4635.71
4606.11
4579.1
4555.36
4533.42
4514.1
4496.01
4480.1
4465.03
4451.79
4439.07
4427.96
4417.15
4407.75
4398.48
4390.48
4382.47
4375.62
4368.68
4362.79
4356.73
4351.62
4346.34
4341.91
4337.24
4333.41
4329.31
4325.95
4322.33
4319.36
4316.19
4313.59
4310.79
4308.54
4306.14
4304.1
4301.97
4300.19
4298.3
4296.74
4295.04
4293.69
4292.24
4291.13
4289.81
4288.89
4287.76
4286.98
4285.94
4285.28
4284.39
4283.89
4283.14
4282.73
4282.1
4281.75
4281.14
4280.77
4280.18
4279.85
4279.32
4279.05
4278.58
4278.37
4277.96
4277.8
4277.47
4277.42
4277.3
4277.46
4277.46
4277.74
4277.74
4278.36
4279.11
4307.22
4415.13
105977
8261.79
7570.34
6999.55
6538.73
6172.09
5881.95
5650.53
5464.5
5312.49
5187.37
5082.49
4994.37
4918.88
4854.43
4798.18
4749.59
4706.48
4668.93
4635.13
4605.52
4578.49
4554.75
4532.79
4513.46
4495.36
4479.45
4464.37
4451.12
4438.4
4427.29
4416.46
4407.06
4397.79
4389.78
4381.77
4374.91
4367.97
4362.08
4356.01
4350.9
4345.62
4341.19
4336.52
4332.68
4328.58
4325.22
4321.6
4318.63
4315.45
4312.85
4310.05
4307.79
4305.4
4303.36
4301.22
4299.44
4297.55
4295.99
4294.29
4292.93
4291.49
4290.38
4289.05
4288.13
4287
4286.22
4285.18
4284.52
4283.63
4283.12
4282.37
4281.96
4281.33
4280.98
4280.38
4280
4279.41
4279.08
4278.55
4278.27
4277.81
4277.59
4277.19
4277.03
4276.69
4276.65
4276.52
4276.68
4276.68
4276.96
4276.96
4277.58
4278.33
4306.59
4414.48
102083
8261.79
7570.35
6999.56
6538.69
6171.97
5881.75
5650.24
5464.13
5312.06
5186.87
5081.94
4993.77
4918.23
4853.74
4797.46
4748.84
4705.7
4668.13
4634.31
4604.68
4577.63
4553.87
4531.9
4512.56
4494.45
4478.53
4463.43
4450.18
4437.44
4426.32
4415.49
4406.08
4396.8
4388.79
4380.77
4373.91
4366.96
4361.06
4355
4349.88
4344.6
4340.16
4335.48
4331.64
4327.54
4324.18
4320.55
4317.58
4314.4
4311.79
4309
4306.73
4304.34
4302.29
4300.15
4298.37
4296.48
4294.92
4293.21
4291.86
4290.41
4289.3
4287.97
4287.05
4285.92
4285.13
4284.09
4283.43
4282.54
4282.03
4281.28
4280.87
4280.24
4279.89
4279.28
4278.91
4278.31
4277.98
4277.45
4277.17
4276.71
4276.49
4276.08
4275.92
4275.59
4275.54
4275.41
4275.56
4275.56
4275.84
4275.84
4276.46
4277.22
4305.69
4413.56
98185.5
8261.79
7570.37
6999.57
6538.64
6171.82
5881.49
5649.87
5463.66
5311.49
5186.22
5081.21
4992.98
4917.39
4852.85
4796.52
4747.86
4704.69
4667.09
4633.23
4603.58
4576.51
4552.73
4530.74
4511.38
4493.25
4477.32
4462.21
4448.94
4436.19
4425.06
4414.22
4404.81
4395.51
4387.5
4379.47
4372.6
4365.65
4359.74
4353.67
4348.55
4343.26
4338.82
4334.14
4330.29
4326.18
4322.81
4319.19
4316.21
4313.03
4310.42
4307.62
4305.35
4302.95
4300.91
4298.76
4296.98
4295.09
4293.52
4291.81
4290.46
4289
4287.89
4286.56
4285.64
4284.5
4283.72
4282.68
4282.02
4281.12
4280.61
4279.86
4279.45
4278.81
4278.46
4277.85
4277.48
4276.88
4276.55
4276.02
4275.74
4275.28
4275.06
4274.65
4274.48
4274.15
4274.1
4273.96
4274.11
4274.11
4274.39
4274.39
4275
4275.77
4304.51
4412.35
94325.3
8261.79
7570.4
6999.58
6538.57
6171.64
5881.17
5649.41
5463.07
5310.78
5185.41
5080.32
4992.01
4916.34
4851.74
4795.35
4746.65
4703.44
4665.79
4631.91
4602.22
4575.12
4551.32
4529.3
4509.92
4491.77
4475.82
4460.69
4447.41
4434.65
4423.51
4412.65
4403.22
4393.92
4385.89
4377.85
4370.98
4364.02
4358.1
4352.02
4346.9
4341.6
4337.15
4332.47
4328.61
4324.5
4321.13
4317.5
4314.51
4311.33
4308.71
4305.91
4303.64
4301.24
4299.19
4297.04
4295.26
4293.36
4291.79
4290.08
4288.72
4287.26
4286.15
4284.82
4283.89
4282.75
4281.97
4280.92
4280.26
4279.36
4278.85
4278.1
4277.68
4277.05
4276.7
4276.09
4275.71
4275.11
4274.78
4274.25
4273.97
4273.5
4273.28
4272.87
4272.7
4272.37
4272.31
4272.17
4272.32
4272.32
4272.59
4272.59
4273.2
4273.98
4303.05
4410.87
90521.1
8261.79
7570.43
6999.59
6538.5
6171.42
5880.79
5648.86
5462.37
5309.94
5184.45
5079.25
4990.84
4915.09
4850.42
4793.97
4745.2
4701.94
4664.25
4630.32
4600.6
4573.47
4549.62
4527.58
4508.18
4490
4474.03
4458.88
4445.58
4432.8
4421.64
4410.77
4401.33
4392.02
4383.98
4375.93
4369.04
4362.07
4356.15
4350.06
4344.92
4339.62
4335.16
4330.47
4326.61
4322.49
4319.11
4315.48
4312.49
4309.29
4306.68
4303.87
4301.59
4299.18
4297.13
4294.98
4293.19
4291.29
4289.72
4288.01
4286.64
4285.18
4284.07
4282.73
4281.8
4280.66
4279.87
4278.83
4278.16
4277.26
4276.75
4275.99
4275.57
4274.93
4274.58
4273.97
4273.59
4273
4272.66
4272.12
4271.84
4271.37
4271.15
4270.74
4270.57
4270.23
4270.18
4270.03
4270.17
4270.17
4270.43
4270.43
4271.04
4271.83
4301.31
4409.1
86781.8
8261.79
7570.47
6999.61
6538.41
6171.17
5880.34
5648.22
5461.55
5308.96
5183.33
5078
4989.48
4913.64
4848.88
4792.35
4743.52
4700.19
4662.45
4628.47
4598.7
4571.53
4547.65
4525.58
4506.14
4487.94
4471.94
4456.77
4443.45
4430.65
4419.47
4408.58
4399.13
4389.79
4381.74
4373.68
4366.78
4359.79
4353.86
4347.76
4342.62
4337.3
4332.84
4328.14
4324.27
4320.14
4316.76
4313.12
4310.12
4306.92
4304.3
4301.48
4299.2
4296.79
4294.73
4292.57
4290.79
4288.88
4287.31
4285.59
4284.22
4282.75
4281.63
4280.29
4279.36
4278.22
4277.43
4276.38
4275.71
4274.81
4274.29
4273.53
4273.11
4272.47
4272.12
4271.5
4271.12
4270.52
4270.18
4269.65
4269.36
4268.89
4268.67
4268.25
4268.08
4267.74
4267.68
4267.53
4267.67
4267.66
4267.92
4267.92
4268.52
4269.33
4299.28
4407.06
83110.1
8261.79
7570.51
6999.63
6538.31
6170.88
5879.83
5647.49
5460.62
5307.85
5182.05
5076.57
4987.93
4911.97
4847.11
4790.49
4741.58
4698.19
4660.38
4626.35
4596.53
4569.31
4545.39
4523.28
4503.81
4485.57
4469.54
4454.34
4441
4428.18
4416.98
4406.07
4396.6
4387.25
4379.18
4371.1
4364.19
4357.19
4351.24
4345.13
4339.97
4334.65
4330.18
4325.47
4321.59
4317.45
4314.06
4310.41
4307.41
4304.2
4301.57
4298.75
4296.46
4294.04
4291.98
4289.82
4288.02
4286.11
4284.54
4282.81
4281.44
4279.97
4278.85
4277.5
4276.57
4275.42
4274.62
4273.57
4272.9
4271.99
4271.47
4270.71
4270.29
4269.64
4269.29
4268.67
4268.29
4267.69
4267.34
4266.81
4266.52
4266.05
4265.82
4265.4
4265.23
4264.89
4264.82
4264.66
4264.79
4264.79
4265.04
4265.03
4265.63
4266.46
4296.97
4404.73
79504.3
8261.78
7570.56
6999.66
6538.2
6170.55
5879.26
5646.67
5459.57
5306.59
5180.6
5074.97
4986.18
4910.09
4845.12
4788.4
4739.41
4695.93
4658.05
4623.95
4594.08
4566.81
4542.84
4520.68
4501.17
4482.9
4466.84
4451.61
4438.24
4425.39
4414.16
4403.24
4393.74
4384.37
4376.28
4368.18
4361.26
4354.24
4348.28
4342.16
4336.99
4331.65
4327.17
4322.45
4318.56
4314.42
4311.02
4307.35
4304.34
4301.13
4298.49
4295.66
4293.37
4290.94
4288.88
4286.7
4284.91
4282.99
4281.41
4279.68
4278.3
4276.82
4275.69
4274.35
4273.41
4272.25
4271.46
4270.4
4269.72
4268.81
4268.29
4267.52
4267.1
4266.45
4266.09
4265.47
4265.09
4264.48
4264.14
4263.6
4263.31
4262.83
4262.6
4262.18
4262.01
4261.66
4261.59
4261.42
4261.55
4261.54
4261.78
4261.77
4262.37
4263.21
4294.35
4402.13
75958.6
8261.78
7570.61
6999.69
6538.08
6170.19
5878.63
5645.76
5458.4
5305.18
5178.99
5073.17
4984.23
4907.99
4842.9
4786.07
4736.97
4693.41
4655.45
4621.28
4591.34
4564.01
4540
4517.79
4498.23
4479.92
4463.82
4448.56
4435.15
4422.27
4411.02
4400.07
4390.55
4381.16
4373.05
4364.93
4357.99
4350.95
4344.98
4338.84
4333.66
4328.3
4323.81
4319.07
4315.18
4311.02
4307.61
4303.94
4300.92
4297.7
4295.05
4292.21
4289.91
4287.48
4285.4
4283.22
4281.42
4279.49
4277.91
4276.17
4274.79
4273.31
4272.17
4270.82
4269.88
4268.71
4267.92
4266.85
4266.17
4265.26
4264.73
4263.96
4263.53
4262.88
4262.52
4261.9
4261.51
4260.9
4260.56
4260.01
4259.72
4259.24
4259
4258.58
4258.4
4258.06
4257.98
4257.8
4257.92
4257.91
4258.14
4258.13
4258.72
4259.59
4291.44
4399.26
72469.3
8261.78
7570.66
6999.72
6537.95
6169.8
5877.93
5644.76
5457.11
5303.64
5177.22
5071.19
4982.07
4905.68
4840.45
4783.49
4734.29
4690.62
4652.58
4618.33
4588.32
4560.92
4536.85
4514.58
4494.98
4476.62
4460.48
4445.18
4431.74
4418.83
4407.55
4396.56
4387.02
4377.6
4369.47
4361.33
4354.37
4347.31
4341.32
4335.17
4329.97
4324.6
4320.09
4315.34
4311.43
4307.26
4303.84
4300.16
4297.13
4293.9
4291.24
4288.39
4286.09
4283.64
4281.56
4279.37
4277.56
4275.63
4274.04
4272.29
4270.91
4269.42
4268.28
4266.92
4265.97
4264.8
4264
4262.93
4262.25
4261.33
4260.8
4260.02
4259.59
4258.93
4258.57
4257.94
4257.55
4256.94
4256.59
4256.04
4255.75
4255.26
4255.02
4254.59
4254.42
4254.07
4253.99
4253.79
4253.91
4253.9
4254.12
4254.1
4254.68
4255.57
4288.22
4396.11
69042.9
8261.78
7570.73
6999.75
6537.81
6169.37
5877.17
5643.66
5455.7
5301.95
5175.27
5069.03
4979.71
4903.14
4837.76
4780.67
4731.34
4687.57
4649.43
4615.09
4585
4557.53
4533.39
4511.07
4491.41
4473
4456.82
4441.47
4427.99
4415.04
4403.73
4392.71
4383.14
4373.7
4365.54
4357.38
4350.39
4343.32
4337.31
4331.13
4325.92
4320.53
4316.01
4311.24
4307.32
4303.14
4299.71
4296.01
4292.97
4289.72
4287.06
4284.2
4281.88
4279.43
4277.34
4275.14
4273.33
4271.38
4269.79
4268.03
4266.64
4265.14
4264
4262.63
4261.68
4260.5
4259.7
4258.62
4257.93
4257.01
4256.47
4255.69
4255.25
4254.59
4254.23
4253.6
4253.2
4252.59
4252.23
4251.68
4251.38
4250.89
4250.65
4250.22
4250.04
4249.68
4249.6
4249.39
4249.5
4249.48
4249.69
4249.68
4250.25
4251.17
4284.69
4392.69
65685.5
8261.77
7570.79
6999.79
6537.65
6168.91
5876.34
5642.48
5454.17
5300.11
5173.16
5066.67
4977.14
4900.38
4834.83
4777.59
4728.13
4684.24
4646
4611.56
4581.38
4553.84
4529.63
4507.24
4487.52
4469.06
4452.82
4437.43
4423.91
4410.92
4399.57
4388.52
4378.92
4369.44
4361.26
4353.07
4346.06
4338.96
4332.93
4326.73
4321.5
4316.09
4311.56
4306.77
4302.84
4298.64
4295.19
4291.48
4288.43
4285.17
4282.5
4279.63
4277.3
4274.83
4272.74
4270.53
4268.7
4266.75
4265.15
4263.39
4261.99
4260.48
4259.33
4257.95
4257
4255.81
4255
4253.92
4253.23
4252.29
4251.75
4250.96
4250.52
4249.86
4249.49
4248.85
4248.46
4247.84
4247.48
4246.92
4246.62
4246.13
4245.88
4245.44
4245.26
4244.9
4244.81
4244.59
4244.69
4244.67
4244.87
4244.85
4245.41
4246.36
4280.84
4389.01
62402.7
8261.77
7570.87
6999.83
6537.49
6168.41
5875.46
5641.2
5452.52
5298.12
5170.88
5064.12
4974.36
4897.4
4831.67
4774.26
4724.66
4680.64
4642.28
4607.73
4577.47
4549.83
4525.54
4503.08
4483.3
4464.78
4448.49
4433.04
4419.48
4406.44
4395.06
4383.97
4374.33
4364.82
4356.61
4348.39
4341.36
4334.23
4328.18
4321.96
4316.71
4311.28
4306.72
4301.92
4297.97
4293.76
4290.29
4286.57
4283.51
4280.23
4277.55
4274.66
4272.32
4269.85
4267.74
4265.52
4263.69
4261.73
4260.12
4258.35
4256.94
4255.42
4254.27
4252.88
4251.91
4250.72
4249.91
4248.82
4248.12
4247.18
4246.63
4245.84
4245.39
4244.72
4244.35
4243.71
4243.31
4242.69
4242.32
4241.76
4241.45
4240.95
4240.7
4240.26
4240.07
4239.71
4239.61
4239.38
4239.47
4239.45
4239.63
4239.6
4240.16
4241.15
4276.66
4385.07
59199.7
8261.76
7570.94
6999.88
6537.32
6167.88
5874.51
5639.82
5450.75
5295.99
5168.42
5061.38
4971.36
4894.18
4828.25
4770.67
4720.92
4676.75
4638.27
4603.61
4573.24
4545.51
4521.14
4498.6
4478.76
4460.17
4443.82
4428.32
4414.7
4401.62
4390.19
4379.06
4369.39
4359.84
4351.6
4343.35
4336.29
4329.13
4323.05
4316.81
4311.53
4306.08
4301.51
4296.69
4292.72
4288.49
4285.01
4281.27
4278.19
4274.9
4272.21
4269.31
4266.96
4264.46
4262.35
4260.12
4258.28
4256.3
4254.68
4252.9
4251.49
4249.96
4248.8
4247.4
4246.43
4245.23
4244.4
4243.31
4242.61
4241.66
4241.1
4240.3
4239.85
4239.17
4238.8
4238.15
4237.75
4237.12
4236.76
4236.19
4235.87
4235.37
4235.12
4234.66
4234.47
4234.1
4234
4233.76
4233.84
4233.81
4233.98
4233.95
4234.49
4235.52
4272.14
4380.87
56081.3
8261.76
7571.02
6999.93
6537.14
6167.32
5873.5
5638.36
5448.86
5293.71
5165.8
5058.45
4968.16
4890.74
4824.59
4766.82
4716.9
4672.58
4633.97
4599.18
4568.71
4540.88
4516.42
4493.79
4473.87
4455.21
4438.8
4423.24
4409.57
4396.44
4384.96
4373.79
4364.07
4354.49
4346.21
4337.92
4330.83
4323.65
4317.55
4311.27
4305.97
4300.5
4295.91
4291.06
4287.08
4282.82
4279.33
4275.57
4272.48
4269.17
4266.46
4263.55
4261.18
4258.68
4256.55
4254.31
4252.46
4250.47
4248.84
4247.05
4245.63
4244.09
4242.92
4241.51
4240.53
4239.32
4238.49
4237.39
4236.68
4235.72
4235.16
4234.35
4233.9
4233.21
4232.83
4232.18
4231.78
4231.14
4230.77
4230.19
4229.88
4229.36
4229.11
4228.65
4228.45
4228.08
4227.97
4227.71
4227.78
4227.75
4227.91
4227.86
4228.4
4229.46
4267.27
4376.4
53052.2
8261.75
7571.11
6999.98
6536.95
6166.72
5872.43
5636.8
5446.85
5291.28
5162.99
5055.32
4964.74
4887.06
4820.69
4762.71
4712.61
4668.13
4629.37
4594.45
4563.86
4535.92
4511.36
4488.65
4468.65
4449.91
4433.43
4417.8
4404.08
4390.89
4379.37
4368.14
4358.39
4348.76
4340.44
4332.12
4325
4317.78
4311.65
4305.35
4300.02
4294.52
4289.91
4285.04
4281.03
4276.76
4273.25
4269.47
4266.36
4263.04
4260.31
4257.38
4255.01
4252.48
4250.35
4248.09
4246.23
4244.23
4242.59
4240.79
4239.36
4237.8
4236.62
4235.21
4234.22
4233
4232.16
4231.05
4230.33
4229.36
4228.8
4227.98
4227.52
4226.83
4226.44
4225.78
4225.38
4224.73
4224.36
4223.77
4223.45
4222.94
4222.67
4222.21
4222
4221.63
4221.51
4221.24
4221.3
4221.26
4221.4
4221.35
4221.88
4222.98
4262.04
4371.65
50116.3
8261.75
7571.2
7000.04
6536.75
6166.09
5871.29
5635.15
5444.71
5288.7
5160.02
5051.99
4961.1
4883.14
4816.53
4758.34
4708.04
4663.39
4624.47
4589.41
4558.69
4530.64
4505.98
4483.17
4463.08
4444.26
4427.71
4412.01
4398.22
4384.97
4373.4
4362.12
4352.32
4342.65
4334.3
4325.93
4318.78
4311.52
4305.36
4299.03
4293.68
4288.15
4283.51
4278.62
4274.59
4270.29
4266.76
4262.96
4259.84
4256.49
4253.75
4250.81
4248.41
4245.87
4243.73
4241.45
4239.58
4237.56
4235.92
4234.1
4232.66
4231.09
4229.91
4228.48
4227.48
4226.25
4225.4
4224.28
4223.56
4222.58
4222.01
4221.18
4220.71
4220.01
4219.62
4218.96
4218.54
4217.9
4217.52
4216.92
4216.6
4216.07
4215.8
4215.33
4215.12
4214.74
4214.62
4214.33
4214.38
4214.33
4214.46
4214.39
4214.92
4216.07
4256.43
4366.57
47277.5
8261.74
7571.3
7000.11
6536.54
6165.44
5870.1
5633.41
5442.45
5285.97
5156.87
5048.46
4957.24
4878.99
4812.12
4753.69
4703.19
4658.35
4619.27
4584.06
4553.21
4525.03
4500.25
4477.34
4457.16
4438.25
4421.62
4405.85
4392
4378.69
4367.05
4355.72
4345.87
4336.15
4327.76
4319.35
4312.16
4304.87
4298.67
4292.3
4286.93
4281.37
4276.7
4271.78
4267.73
4263.41
4259.86
4256.04
4252.89
4249.53
4246.77
4243.81
4241.4
4238.84
4236.68
4234.39
4232.51
4230.47
4228.82
4226.99
4225.54
4223.95
4222.76
4221.32
4220.31
4219.07
4218.21
4217.08
4216.35
4215.36
4214.78
4213.94
4213.47
4212.76
4212.36
4211.69
4211.28
4210.62
4210.23
4209.64
4209.3
4208.77
4208.49
4208.02
4207.8
4207.41
4207.28
4206.99
4207.02
4206.96
4207.07
4207
4207.51
4208.71
4250.42
4361.15
44539.2
8261.73
7571.4
7000.18
6536.33
6164.75
5868.85
5631.58
5440.08
5283.09
5153.54
5044.74
4953.17
4874.6
4807.45
4748.78
4698.06
4653.02
4613.76
4578.39
4547.39
4519.08
4494.19
4471.17
4450.89
4431.89
4415.18
4399.32
4385.4
4372.02
4360.33
4348.94
4339.04
4329.26
4320.82
4312.37
4305.14
4297.81
4291.58
4285.18
4279.77
4274.18
4269.48
4264.54
4260.46
4256.11
4252.54
4248.69
4245.53
4242.15
4239.37
4236.38
4233.96
4231.38
4229.21
4226.9
4225
4222.95
4221.29
4219.44
4217.98
4216.38
4215.18
4213.72
4212.7
4211.45
4210.59
4209.44
4208.7
4207.7
4207.12
4206.27
4205.78
4205.07
4204.66
4203.99
4203.56
4202.9
4202.51
4201.9
4201.57
4201.02
4200.74
4200.25
4200.03
4199.63
4199.5
4199.19
4199.21
4199.14
4199.24
4199.15
4199.65
4200.9
4243.99
4355.37
41904.4
8261.72
7571.51
7000.25
6536.11
6164.03
5867.54
5629.66
5437.58
5280.06
5150.04
5040.81
4948.87
4869.97
4802.53
4743.6
4692.64
4647.39
4607.95
4572.41
4541.26
4512.8
4487.79
4464.64
4444.26
4425.16
4408.36
4392.43
4378.43
4364.97
4353.22
4341.76
4331.81
4321.98
4313.49
4304.99
4297.72
4290.34
4284.07
4277.63
4272.19
4266.57
4261.85
4256.87
4252.76
4248.39
4244.79
4240.92
4237.74
4234.33
4231.54
4228.53
4226.08
4223.49
4221.3
4218.97
4217.06
4215
4213.32
4211.46
4209.98
4208.37
4207.15
4205.68
4204.66
4203.38
4202.51
4201.36
4200.61
4199.6
4199
4198.14
4197.65
4196.93
4196.52
4195.83
4195.4
4194.73
4194.33
4193.72
4193.37
4192.82
4192.53
4192.04
4191.81
4191.4
4191.26
4190.94
4190.95
4190.86
4190.95
4190.84
4191.33
4192.64
4237.12
4349.19
39376
8261.71
7571.62
7000.33
6535.89
6163.28
5866.17
5627.65
5434.96
5276.89
5146.37
5036.69
4944.35
4865.1
4797.35
4738.14
4686.94
4641.46
4601.82
4566.1
4534.79
4506.18
4481.03
4457.77
4437.27
4418.07
4401.17
4385.15
4371.07
4357.54
4345.72
4334.19
4324.18
4314.29
4305.75
4297.2
4289.88
4282.46
4276.16
4269.68
4264.2
4258.54
4253.79
4248.78
4244.64
4240.24
4236.62
4232.72
4229.52
4226.08
4223.27
4220.24
4217.77
4215.16
4212.95
4210.61
4208.68
4206.6
4204.9
4203.03
4201.54
4199.91
4198.68
4197.2
4196.16
4194.87
4193.99
4192.82
4192.07
4191.04
4190.44
4189.56
4189.06
4188.33
4187.91
4187.22
4186.78
4186.11
4185.7
4185.08
4184.72
4184.16
4183.87
4183.36
4183.12
4182.71
4182.56
4182.24
4182.22
4182.12
4182.19
4182.07
4182.55
4183.91
4229.78
4342.57
36956.2
8261.7
7571.73
7000.42
6535.66
6162.51
5864.75
5625.55
5432.23
5273.56
5142.52
5032.37
4939.62
4859.99
4791.92
4732.41
4680.95
4635.23
4595.38
4559.47
4527.98
4499.22
4473.93
4450.53
4429.92
4410.6
4393.61
4377.49
4363.33
4349.72
4337.82
4326.23
4316.15
4306.2
4297.61
4289.01
4281.64
4274.17
4267.82
4261.3
4255.78
4250.08
4245.3
4240.25
4236.09
4231.65
4228
4224.08
4220.85
4217.4
4214.56
4211.5
4209.02
4206.38
4204.16
4201.79
4199.85
4197.75
4196.04
4194.14
4192.65
4190.99
4189.76
4188.26
4187.2
4185.9
4185.01
4183.83
4183.06
4182.03
4181.41
4180.53
4180.02
4179.27
4178.85
4178.15
4177.7
4177.02
4176.6
4175.97
4175.61
4175.04
4174.74
4174.22
4173.97
4173.55
4173.39
4173.06
4173.03
4172.92
4172.97
4172.82
4173.3
4174.72
4221.94
4335.49
34647.2
8261.69
7571.85
7000.51
6535.42
6161.71
5863.27
5623.37
5429.37
5270.09
5138.49
5027.85
4934.66
4854.64
4786.22
4726.4
4674.66
4628.7
4588.63
4552.51
4520.85
4491.92
4466.48
4442.94
4422.2
4402.77
4385.67
4369.45
4355.2
4341.5
4329.52
4317.86
4307.71
4297.7
4289.05
4280.39
4272.97
4265.45
4259.06
4252.49
4246.94
4241.19
4236.37
4231.29
4227.1
4222.63
4218.95
4215
4211.75
4208.26
4205.4
4202.32
4199.82
4197.15
4194.92
4192.52
4190.57
4188.44
4186.72
4184.81
4183.3
4181.62
4180.37
4178.86
4177.79
4176.47
4175.57
4174.38
4173.6
4172.55
4171.92
4171.02
4170.5
4169.75
4169.31
4168.6
4168.16
4167.46
4167.04
4166.39
4166.03
4165.44
4165.13
4164.61
4164.35
4163.92
4163.75
4163.41
4163.37
4163.24
4163.27
4163.1
4163.57
4165.05
4213.57
4327.91
32450.7
8261.67
7571.97
7000.61
6535.19
6160.89
5861.74
5621.11
5426.41
5266.48
5134.3
5023.13
4929.48
4849.05
4780.27
4720.12
4668.09
4621.87
4581.56
4545.23
4513.37
4484.27
4458.67
4434.98
4414.11
4394.55
4377.35
4361.02
4346.68
4332.88
4320.83
4309.08
4298.87
4288.79
4280.08
4271.35
4263.88
4256.31
4249.87
4243.25
4237.66
4231.87
4227.02
4221.9
4217.67
4213.16
4209.46
4205.48
4202.19
4198.68
4195.8
4192.69
4190.16
4187.47
4185.21
4182.8
4180.82
4178.68
4176.94
4175.01
4173.48
4171.79
4170.52
4168.99
4167.91
4166.58
4165.66
4164.45
4163.66
4162.6
4161.96
4161.05
4160.52
4159.75
4159.31
4158.59
4158.13
4157.43
4157
4156.34
4155.97
4155.37
4155.05
4154.52
4154.25
4153.81
4153.63
4153.28
4153.22
4153.08
4153.09
4152.9
4153.36
4154.9
4204.63
4319.78
30368.3
8261.66
7572.1
7000.71
6534.94
6160.05
5860.16
5618.76
5423.32
5262.72
5129.93
5018.22
4924.08
4843.22
4774.05
4713.56
4661.23
4614.73
4574.17
4537.61
4505.56
4476.26
4450.5
4426.66
4405.65
4385.96
4368.64
4352.2
4337.75
4323.87
4311.73
4299.9
4289.61
4279.45
4270.68
4261.89
4254.36
4246.73
4240.24
4233.58
4227.94
4222.11
4217.21
4212.05
4207.79
4203.25
4199.51
4195.5
4192.19
4188.64
4185.73
4182.6
4180.04
4177.33
4175.05
4172.61
4170.62
4168.45
4166.7
4164.74
4163.2
4161.49
4160.21
4158.65
4157.56
4156.21
4155.28
4154.06
4153.26
4152.18
4151.52
4150.6
4150.06
4149.28
4148.83
4148.09
4147.63
4146.91
4146.48
4145.81
4145.43
4144.82
4144.49
4143.95
4143.67
4143.22
4143.03
4142.67
4142.59
4142.44
4142.43
4142.21
4142.66
4144.26
4195.09
4311.09
28401.4
8261.64
7572.23
7000.82
6534.7
6159.18
5858.52
5616.33
5420.13
5258.82
5125.39
5013.11
4918.46
4837.15
4767.58
4706.72
4654.07
4607.28
4566.46
4529.67
4497.4
4467.91
4441.98
4417.97
4396.82
4376.99
4359.54
4342.98
4328.43
4314.44
4302.22
4290.3
4279.93
4269.7
4260.86
4252
4244.42
4236.73
4230.18
4223.47
4217.78
4211.9
4206.97
4201.76
4197.46
4192.88
4189.11
4185.06
4181.72
4178.14
4175.21
4172.04
4169.46
4166.72
4164.42
4161.96
4159.94
4157.75
4155.98
4154
4152.45
4150.71
4149.41
4147.84
4146.73
4145.36
4144.42
4143.18
4142.37
4141.27
4140.61
4139.67
4139.11
4138.32
4137.86
4137.11
4136.64
4135.91
4135.47
4134.79
4134.4
4133.78
4133.44
4132.88
4132.6
4132.13
4131.94
4131.56
4131.47
4131.31
4131.27
4131.03
4131.47
4133.13
4184.93
4301.77
26551
8261.63
7572.36
7000.93
6534.46
6158.29
5856.85
5613.82
5416.83
5254.77
5120.68
5007.8
4912.63
4830.84
4760.84
4699.61
4646.62
4599.52
4558.44
4521.39
4488.9
4459.21
4433.09
4408.91
4387.6
4367.63
4350.05
4333.37
4318.71
4304.62
4292.29
4280.28
4269.84
4259.52
4250.61
4241.68
4234.03
4226.28
4219.68
4212.91
4207.17
4201.24
4196.27
4191.02
4186.68
4182.06
4178.25
4174.17
4170.8
4167.18
4164.22
4161.02
4158.42
4155.64
4153.32
4150.83
4148.8
4146.58
4144.79
4142.79
4141.22
4139.45
4138.14
4136.55
4135.43
4134.03
4133.08
4131.82
4130.99
4129.88
4129.2
4128.25
4127.68
4126.87
4126.4
4125.65
4125.17
4124.43
4123.97
4123.28
4122.88
4122.25
4121.9
4121.33
4121.04
4120.55
4120.35
4119.96
4119.86
4119.68
4119.63
4119.35
4119.78
4121.5
4174.15
4291.8
24818.5
8261.61
7572.49
7001.05
6534.21
6157.38
5855.12
5611.24
5413.42
5250.59
5115.81
5002.3
4906.57
4824.28
4753.85
4692.22
4638.88
4591.46
4550.09
4512.78
4480.06
4450.15
4423.84
4399.48
4378.01
4357.89
4340.17
4323.36
4308.59
4294.38
4281.96
4269.85
4259.32
4248.92
4239.93
4230.93
4223.21
4215.39
4208.74
4201.9
4196.12
4190.14
4185.11
4179.82
4175.44
4170.77
4166.93
4162.81
4159.4
4155.75
4152.76
4149.53
4146.9
4144.09
4141.75
4139.23
4137.17
4134.92
4133.12
4131.09
4129.5
4127.71
4126.39
4124.77
4123.63
4122.22
4121.25
4119.97
4119.13
4118
4117.31
4116.34
4115.76
4114.94
4114.45
4113.68
4113.2
4112.44
4111.98
4111.27
4110.86
4110.22
4109.86
4109.28
4108.97
4108.48
4108.26
4107.86
4107.74
4107.55
4107.47
4107.16
4107.59
4109.36
4162.76
4281.14
23204.7
8261.59
7572.63
7001.18
6533.97
6156.46
5853.36
5608.59
5409.9
5246.28
5110.77
4996.61
4900.3
4817.5
4746.6
4684.56
4630.85
4583.09
4541.43
4503.84
4470.88
4440.74
4414.23
4389.67
4368.04
4347.75
4329.9
4312.95
4298.06
4283.73
4271.2
4258.99
4248.37
4237.88
4228.81
4219.74
4211.95
4204.06
4197.35
4190.45
4184.61
4178.57
4173.5
4168.16
4163.73
4159.02
4155.14
4150.98
4147.54
4143.85
4140.83
4137.56
4134.9
4132.06
4129.7
4127.14
4125.07
4122.79
4120.96
4118.91
4117.3
4115.49
4114.14
4112.5
4111.35
4109.91
4108.93
4107.63
4106.78
4105.63
4104.92
4103.93
4103.34
4102.5
4102.01
4101.22
4100.73
4099.96
4099.49
4098.77
4098.34
4097.69
4097.32
4096.72
4096.4
4095.89
4095.66
4095.25
4095.12
4094.91
4094.82
4094.47
4094.89
4096.72
4150.76
4269.76
21705.3
8261.57
7572.77
7001.32
6533.73
6155.52
5851.55
5605.86
5406.29
5241.83
5105.57
4990.73
4893.82
4810.47
4739.1
4676.62
4622.52
4574.42
4532.44
4494.57
4461.35
4430.98
4404.25
4379.5
4357.69
4337.23
4319.23
4302.13
4287.12
4272.66
4260.03
4247.71
4237
4226.41
4217.26
4208.1
4200.25
4192.28
4185.51
4178.54
4172.65
4166.55
4161.43
4156.03
4151.56
4146.81
4142.89
4138.68
4135.2
4131.48
4128.42
4125.12
4122.43
4119.55
4117.16
4114.57
4112.47
4110.17
4108.32
4106.24
4104.61
4102.77
4101.41
4099.74
4098.57
4097.11
4096.11
4094.79
4093.92
4092.76
4092.03
4091.02
4090.42
4089.56
4089.06
4088.26
4087.75
4086.97
4086.49
4085.75
4085.32
4084.65
4084.27
4083.65
4083.33
4082.8
4082.56
4082.13
4081.98
4081.76
4081.65
4081.27
4081.68
4083.56
4138.13
4257.61
20315.5
8261.55
7572.92
7001.46
6533.49
6154.57
5849.71
5603.07
5402.57
5237.25
5100.21
4984.67
4887.13
4803.21
4731.34
4668.41
4613.91
4565.44
4523.13
4484.97
4451.48
4420.86
4393.91
4368.95
4346.96
4326.32
4308.16
4290.92
4275.77
4261.19
4248.44
4236.01
4225.19
4214.51
4205.28
4196.03
4188.1
4180.06
4173.21
4166.18
4160.23
4154.07
4148.9
4143.44
4138.93
4134.12
4130.16
4125.9
4122.39
4118.62
4115.53
4112.19
4109.47
4106.55
4104.14
4101.52
4099.39
4097.05
4095.19
4093.08
4091.43
4089.56
4088.18
4086.49
4085.3
4083.81
4082.8
4081.46
4080.57
4079.38
4078.64
4077.61
4076.99
4076.12
4075.6
4074.79
4074.27
4073.48
4072.98
4072.23
4071.79
4071.1
4070.71
4070.08
4069.74
4069.2
4068.95
4068.5
4068.33
4068.09
4067.97
4067.55
4067.95
4069.88
4124.88
4244.67
19030.4
8261.52
7573.06
7001.61
6533.25
6153.61
5847.83
5600.21
5398.76
5232.55
5094.7
4978.42
4880.23
4795.73
4723.33
4659.92
4605.01
4556.16
4513.51
4475.03
4441.26
4410.38
4383.2
4358.03
4335.84
4315.02
4296.7
4279.3
4264.01
4249.29
4236.42
4223.88
4212.96
4202.17
4192.85
4183.51
4175.5
4167.38
4160.46
4153.36
4147.35
4141.12
4135.9
4130.39
4125.82
4120.96
4116.95
4112.65
4109.1
4105.29
4102.16
4098.78
4096.02
4093.07
4090.63
4087.97
4085.82
4083.45
4081.56
4079.42
4077.75
4075.85
4074.45
4072.73
4071.52
4070.01
4068.98
4067.61
4066.71
4065.5
4064.75
4063.7
4063.06
4062.17
4061.64
4060.81
4060.28
4059.47
4058.97
4058.2
4057.74
4057.04
4056.63
4055.99
4055.64
4055.08
4054.81
4054.35
4054.17
4053.91
4053.77
4053.31
4053.7
4055.68
4111.01
4230.9
17844.7
8261.5
7573.21
7001.76
6533.02
6152.63
5845.92
5597.29
5394.86
5227.73
5089.03
4972
4873.13
4788.01
4715.07
4651.17
4595.82
4546.57
4503.57
4464.76
4430.71
4399.55
4372.13
4346.73
4324.34
4303.34
4284.84
4267.27
4251.84
4236.98
4223.99
4211.32
4200.29
4189.4
4179.98
4170.55
4162.45
4154.25
4147.26
4140.08
4134.01
4127.71
4122.43
4116.86
4112.24
4107.33
4103.27
4098.92
4095.33
4091.47
4088.31
4084.89
4082.09
4079.1
4076.63
4073.93
4071.76
4069.35
4067.44
4065.27
4063.57
4061.64
4060.22
4058.47
4057.24
4055.7
4054.65
4053.26
4052.35
4051.11
4050.34
4049.27
4048.62
4047.71
4047.16
4046.32
4045.78
4044.95
4044.43
4043.65
4043.18
4042.46
4042.04
4041.38
4041.01
4040.44
4040.16
4039.68
4039.48
4039.2
4039.05
4038.55
4038.93
4040.95
4096.51
4216.27
16753.1
8261.47
7573.36
7001.92
6532.79
6151.65
5843.97
5594.32
5390.87
5222.78
5083.22
4965.4
4865.82
4780.07
4706.57
4642.16
4586.35
4536.69
4493.32
4454.17
4419.81
4388.38
4360.7
4335.06
4312.46
4291.26
4272.58
4254.85
4239.26
4224.25
4211.13
4198.33
4187.19
4176.18
4166.67
4157.14
4148.96
4140.66
4133.6
4126.35
4120.2
4113.83
4108.49
4102.86
4098.19
4093.21
4089.11
4084.71
4081.08
4077.17
4073.97
4070.5
4067.67
4064.63
4062.13
4059.4
4057.19
4054.75
4052.81
4050.61
4048.9
4046.93
4045.48
4043.71
4042.45
4040.89
4039.82
4038.41
4037.47
4036.21
4035.42
4034.33
4033.66
4032.73
4032.17
4031.31
4030.75
4029.91
4029.38
4028.58
4028.1
4027.35
4026.93
4026.25
4025.87
4025.28
4024.98
4024.49
4024.27
4023.97
4023.8
4023.26
4023.64
4025.68
4081.39
4200.76
15749.7
8261.44
7573.51
7002.09
6532.57
6150.67
5842.01
5591.29
5386.8
5217.73
5077.27
4958.62
4858.32
4771.91
4697.82
4632.88
4576.6
4526.5
4482.75
4443.25
4408.58
4376.85
4348.91
4323.03
4300.21
4278.79
4259.93
4242.01
4226.27
4211.11
4197.85
4184.91
4173.66
4162.53
4152.92
4143.28
4135.01
4126.63
4119.48
4112.15
4105.93
4099.49
4094.08
4088.38
4083.66
4078.62
4074.47
4070.01
4066.34
4062.38
4059.14
4055.62
4052.76
4049.67
4047.14
4044.37
4042.13
4039.65
4037.69
4035.45
4033.71
4031.71
4030.24
4028.44
4027.16
4025.56
4024.47
4023.04
4022.08
4020.8
4019.99
4018.87
4018.19
4017.23
4016.66
4015.78
4015.21
4014.35
4013.81
4012.99
4012.49
4011.73
4011.29
4010.59
4010.2
4009.59
4009.28
4008.77
4008.53
4008.21
4008.02
4007.44
4007.81
4009.88
4065.63
4184.34
14828.6
8261.41
7573.66
7002.27
6532.36
6149.68
5840.02
5588.21
5382.65
5212.56
5071.18
4951.69
4850.63
4763.53
4688.84
4623.35
4566.58
4516.03
4471.88
4432.01
4397
4364.97
4336.76
4310.62
4287.57
4265.94
4246.88
4228.78
4212.87
4197.55
4184.14
4171.07
4159.69
4148.45
4138.72
4128.98
4120.61
4112.13
4104.9
4097.48
4091.19
4084.68
4079.21
4073.44
4068.65
4063.56
4059.35
4054.84
4051.11