/*--------------------------------*- C++ -*----------------------------------*\
| =========                 |                                                 |
| \\      /  F ield         | OpenFOAM: The Open Source CFD Toolbox           |
|  \\    /   O peration     | Version:  v2012                                 |
|   \\  /    A nd           | Website:  www.openfoam.com                      |
|    \\/     M anipulation  |                                                 |
\*---------------------------------------------------------------------------*/
FoamFile
{
    version     2.0;
    format      ascii;
    class       volVectorField;
    location    "58.5";
    object      wallShearStress;
}
// * * * * * * * * * * * * * * * * * * * * * * * * * * * * * * * * * * * * * //

dimensions      [0 2 -2 0 0 0 0];


internalField   uniform (0 0 0);

boundaryField
{
    inlet
    {
        type            calculated;
        value           uniform (0 0 0);
    }
    outlet
    {
        type            calculated;
        value           uniform (0 0 0);
    }
    topWall
    {
        type            calculated;
        value           nonuniform List<vector> 
545
(
(3.67405e-08 -2.58621e-08 0)
(3.67291e-08 -7.23464e-08 0)
(3.67091e-08 -1.20684e-07 0)
(3.66807e-08 -1.67624e-07 0)
(3.6645e-08 -2.12567e-07 0)
(3.66027e-08 -2.56088e-07 0)
(3.65545e-08 -2.9856e-07 0)
(3.65007e-08 -3.39961e-07 0)
(3.64418e-08 -3.80202e-07 0)
(3.63782e-08 -4.19282e-07 0)
(3.63104e-08 -4.57251e-07 0)
(3.62389e-08 -4.94155e-07 0)
(3.61639e-08 -5.30017e-07 0)
(3.60858e-08 -5.6486e-07 0)
(3.60051e-08 -5.98708e-07 0)
(3.59219e-08 -6.31587e-07 0)
(3.58366e-08 -6.63524e-07 0)
(3.57494e-08 -6.94544e-07 0)
(3.56607e-08 -7.24672e-07 0)
(3.55706e-08 -7.53932e-07 0)
(3.54794e-08 -7.82348e-07 0)
(3.53873e-08 -8.09943e-07 0)
(3.52945e-08 -8.3674e-07 0)
(3.52011e-08 -8.62762e-07 0)
(3.51073e-08 -8.8803e-07 0)
(3.50134e-08 -9.12566e-07 0)
(3.49194e-08 -9.36391e-07 0)
(3.48255e-08 -9.59525e-07 0)
(3.47317e-08 -9.81989e-07 0)
(3.46383e-08 -1.0038e-06 0)
(3.45453e-08 -1.02498e-06 0)
(3.44528e-08 -1.04555e-06 0)
(3.4361e-08 -1.06552e-06 0)
(3.42698e-08 -1.08491e-06 0)
(3.41794e-08 -1.10374e-06 0)
(3.40898e-08 -1.12203e-06 0)
(3.40011e-08 -1.13978e-06 0)
(3.39133e-08 -1.15703e-06 0)
(3.38266e-08 -1.17378e-06 0)
(3.37409e-08 -1.19004e-06 0)
(3.36563e-08 -1.20583e-06 0)
(3.35728e-08 -1.22117e-06 0)
(3.34905e-08 -1.23607e-06 0)
(3.34093e-08 -1.25054e-06 0)
(3.33294e-08 -1.2646e-06 0)
(3.32506e-08 -1.27825e-06 0)
(3.31731e-08 -1.29151e-06 0)
(3.30969e-08 -1.30439e-06 0)
(3.30219e-08 -1.3169e-06 0)
(3.29482e-08 -1.32906e-06 0)
(3.28758e-08 -1.34087e-06 0)
(3.28046e-08 -1.35234e-06 0)
(3.27347e-08 -1.36348e-06 0)
(3.26661e-08 -1.37431e-06 0)
(3.25988e-08 -1.38483e-06 0)
(3.25328e-08 -1.39506e-06 0)
(3.2468e-08 -1.40499e-06 0)
(3.24044e-08 -1.41464e-06 0)
(3.23422e-08 -1.42402e-06 0)
(3.22811e-08 -1.43314e-06 0)
(3.22213e-08 -1.442e-06 0)
(3.21627e-08 -1.4506e-06 0)
(3.21053e-08 -1.45897e-06 0)
(3.20491e-08 -1.4671e-06 0)
(3.19941e-08 -1.47501e-06 0)
(3.19403e-08 -1.48269e-06 0)
(3.18876e-08 -1.49016e-06 0)
(3.1836e-08 -1.49741e-06 0)
(3.17856e-08 -1.50447e-06 0)
(3.17362e-08 -1.51133e-06 0)
(3.16879e-08 -1.518e-06 0)
(3.1641e-08 -1.52447e-06 0)
(3.15954e-08 -1.5307e-06 0)
(3.15505e-08 -1.53674e-06 0)
(3.1506e-08 -1.54272e-06 0)
(3.14617e-08 -1.54868e-06 0)
(3.14174e-08 -1.5546e-06 0)
(3.13731e-08 -1.56049e-06 0)
(3.13289e-08 -1.56634e-06 0)
(3.12848e-08 -1.57216e-06 0)
(3.12406e-08 -1.57794e-06 0)
(3.11965e-08 -1.58369e-06 0)
(3.11525e-08 -1.58941e-06 0)
(3.11085e-08 -1.59509e-06 0)
(3.10646e-08 -1.60073e-06 0)
(3.10207e-08 -1.60634e-06 0)
(3.09768e-08 -1.61192e-06 0)
(3.0933e-08 -1.61747e-06 0)
(3.08893e-08 -1.62298e-06 0)
(3.08456e-08 -1.62846e-06 0)
(3.0802e-08 -1.63391e-06 0)
(3.07584e-08 -1.63932e-06 0)
(3.07149e-08 -1.6447e-06 0)
(3.06716e-08 -1.65005e-06 0)
(3.06278e-08 -1.65537e-06 0)
(3.05862e-08 -1.66061e-06 0)
(3.05478e-08 -1.66541e-06 0)
(3.05107e-08 -1.66976e-06 0)
(3.04748e-08 -1.67399e-06 0)
(3.0439e-08 -1.67824e-06 0)
(3.04032e-08 -1.68254e-06 0)
(3.03672e-08 -1.68684e-06 0)
(3.03311e-08 -1.69114e-06 0)
(3.02947e-08 -1.69544e-06 0)
(3.02582e-08 -1.69975e-06 0)
(3.02216e-08 -1.70406e-06 0)
(3.01847e-08 -1.70838e-06 0)
(3.01477e-08 -1.7127e-06 0)
(3.01105e-08 -1.71703e-06 0)
(3.00731e-08 -1.72136e-06 0)
(3.00356e-08 -1.7257e-06 0)
(2.99978e-08 -1.73004e-06 0)
(2.99599e-08 -1.73439e-06 0)
(2.99218e-08 -1.73874e-06 0)
(2.98836e-08 -1.7431e-06 0)
(2.98451e-08 -1.74746e-06 0)
(2.98065e-08 -1.75182e-06 0)
(2.97677e-08 -1.75619e-06 0)
(2.97287e-08 -1.76057e-06 0)
(2.96895e-08 -1.76495e-06 0)
(2.96502e-08 -1.76933e-06 0)
(2.96106e-08 -1.77372e-06 0)
(2.95709e-08 -1.77811e-06 0)
(2.9531e-08 -1.78251e-06 0)
(2.94909e-08 -1.78691e-06 0)
(2.94506e-08 -1.79132e-06 0)
(2.94102e-08 -1.79573e-06 0)
(2.93695e-08 -1.80014e-06 0)
(2.93287e-08 -1.80456e-06 0)
(2.92877e-08 -1.80898e-06 0)
(2.92465e-08 -1.81341e-06 0)
(2.92051e-08 -1.81784e-06 0)
(2.91635e-08 -1.82228e-06 0)
(2.91217e-08 -1.82672e-06 0)
(2.90798e-08 -1.83116e-06 0)
(2.90376e-08 -1.83561e-06 0)
(2.89953e-08 -1.84006e-06 0)
(2.89528e-08 -1.84452e-06 0)
(2.891e-08 -1.84898e-06 0)
(2.88671e-08 -1.85344e-06 0)
(2.8824e-08 -1.85791e-06 0)
(2.87807e-08 -1.86238e-06 0)
(2.87372e-08 -1.86686e-06 0)
(2.86935e-08 -1.87134e-06 0)
(2.86497e-08 -1.87582e-06 0)
(2.86056e-08 -1.88031e-06 0)
(2.85613e-08 -1.8848e-06 0)
(2.85169e-08 -1.88929e-06 0)
(2.84722e-08 -1.89379e-06 0)
(2.84273e-08 -1.89829e-06 0)
(2.83823e-08 -1.90279e-06 0)
(2.8337e-08 -1.9073e-06 0)
(2.82916e-08 -1.91181e-06 0)
(2.8246e-08 -1.91633e-06 0)
(2.82001e-08 -1.92085e-06 0)
(2.81541e-08 -1.92537e-06 0)
(2.81078e-08 -1.92989e-06 0)
(2.80614e-08 -1.93442e-06 0)
(2.80147e-08 -1.93895e-06 0)
(2.79679e-08 -1.94348e-06 0)
(2.79209e-08 -1.94802e-06 0)
(2.78736e-08 -1.95256e-06 0)
(2.78262e-08 -1.9571e-06 0)
(2.77785e-08 -1.96165e-06 0)
(2.77307e-08 -1.9662e-06 0)
(2.76826e-08 -1.97075e-06 0)
(2.76344e-08 -1.9753e-06 0)
(2.75859e-08 -1.97986e-06 0)
(2.75373e-08 -1.98442e-06 0)
(2.74884e-08 -1.98898e-06 0)
(2.74393e-08 -1.99355e-06 0)
(2.73901e-08 -1.99812e-06 0)
(2.73406e-08 -2.00269e-06 0)
(2.72909e-08 -2.00726e-06 0)
(2.7241e-08 -2.01184e-06 0)
(2.71909e-08 -2.01641e-06 0)
(2.71406e-08 -2.02099e-06 0)
(2.70901e-08 -2.02558e-06 0)
(2.70394e-08 -2.03016e-06 0)
(2.69885e-08 -2.03475e-06 0)
(2.69374e-08 -2.03934e-06 0)
(2.68861e-08 -2.04393e-06 0)
(2.68345e-08 -2.04852e-06 0)
(2.67828e-08 -2.05311e-06 0)
(2.67308e-08 -2.05771e-06 0)
(2.66787e-08 -2.06231e-06 0)
(2.66263e-08 -2.06691e-06 0)
(2.65737e-08 -2.07151e-06 0)
(2.65209e-08 -2.07612e-06 0)
(2.64679e-08 -2.08072e-06 0)
(2.64147e-08 -2.08533e-06 0)
(2.63613e-08 -2.08994e-06 0)
(2.63077e-08 -2.09455e-06 0)
(2.62539e-08 -2.09916e-06 0)
(2.61998e-08 -2.10377e-06 0)
(2.61456e-08 -2.10839e-06 0)
(2.60911e-08 -2.113e-06 0)
(2.60365e-08 -2.11762e-06 0)
(2.59816e-08 -2.12224e-06 0)
(2.59265e-08 -2.12686e-06 0)
(2.58712e-08 -2.13148e-06 0)
(2.58157e-08 -2.1361e-06 0)
(2.576e-08 -2.14072e-06 0)
(2.57041e-08 -2.14535e-06 0)
(2.56479e-08 -2.14997e-06 0)
(2.55916e-08 -2.15459e-06 0)
(2.5535e-08 -2.15922e-06 0)
(2.54783e-08 -2.16385e-06 0)
(2.54213e-08 -2.16847e-06 0)
(2.53641e-08 -2.1731e-06 0)
(2.53067e-08 -2.17773e-06 0)
(2.52491e-08 -2.18236e-06 0)
(2.51913e-08 -2.18698e-06 0)
(2.51332e-08 -2.19161e-06 0)
(2.5075e-08 -2.19624e-06 0)
(2.50166e-08 -2.20087e-06 0)
(2.49579e-08 -2.2055e-06 0)
(2.4899e-08 -2.21013e-06 0)
(2.484e-08 -2.21476e-06 0)
(2.47807e-08 -2.21938e-06 0)
(2.47212e-08 -2.22401e-06 0)
(2.46615e-08 -2.22864e-06 0)
(2.46016e-08 -2.23327e-06 0)
(2.45414e-08 -2.2379e-06 0)
(2.44811e-08 -2.24252e-06 0)
(2.44206e-08 -2.24715e-06 0)
(2.43598e-08 -2.25178e-06 0)
(2.42989e-08 -2.2564e-06 0)
(2.42377e-08 -2.26103e-06 0)
(2.41764e-08 -2.26565e-06 0)
(2.41148e-08 -2.27027e-06 0)
(2.4053e-08 -2.27489e-06 0)
(2.3991e-08 -2.27951e-06 0)
(2.39288e-08 -2.28413e-06 0)
(2.38664e-08 -2.28875e-06 0)
(2.38038e-08 -2.29337e-06 0)
(2.3741e-08 -2.29799e-06 0)
(2.3678e-08 -2.3026e-06 0)
(2.36148e-08 -2.30721e-06 0)
(2.35513e-08 -2.31183e-06 0)
(2.34877e-08 -2.31644e-06 0)
(2.34239e-08 -2.32105e-06 0)
(2.33598e-08 -2.32565e-06 0)
(2.32956e-08 -2.33026e-06 0)
(2.32311e-08 -2.33486e-06 0)
(2.31665e-08 -2.33946e-06 0)
(2.31017e-08 -2.34406e-06 0)
(2.30366e-08 -2.34866e-06 0)
(2.29714e-08 -2.35325e-06 0)
(2.29059e-08 -2.35785e-06 0)
(2.28403e-08 -2.36244e-06 0)
(2.27744e-08 -2.36702e-06 0)
(2.27084e-08 -2.37161e-06 0)
(2.26422e-08 -2.37619e-06 0)
(2.25757e-08 -2.38077e-06 0)
(2.25091e-08 -2.38535e-06 0)
(2.24423e-08 -2.38992e-06 0)
(2.23752e-08 -2.3945e-06 0)
(2.2308e-08 -2.39907e-06 0)
(2.22406e-08 -2.40363e-06 0)
(2.2173e-08 -2.40819e-06 0)
(2.21052e-08 -2.41275e-06 0)
(2.20372e-08 -2.41731e-06 0)
(2.19691e-08 -2.42186e-06 0)
(2.19007e-08 -2.42641e-06 0)
(2.18321e-08 -2.43096e-06 0)
(2.17635e-08 -2.4355e-06 0)
(2.16941e-08 -2.44004e-06 0)
(2.16267e-08 -2.44455e-06 0)
(2.1562e-08 -2.44885e-06 0)
(2.14982e-08 -2.45293e-06 0)
(2.14351e-08 -2.45698e-06 0)
(2.13716e-08 -2.46107e-06 0)
(2.13075e-08 -2.4652e-06 0)
(2.12427e-08 -2.46938e-06 0)
(2.11771e-08 -2.47358e-06 0)
(2.11109e-08 -2.47782e-06 0)
(2.10439e-08 -2.48208e-06 0)
(2.09762e-08 -2.48638e-06 0)
(2.09077e-08 -2.49071e-06 0)
(2.08385e-08 -2.49508e-06 0)
(2.07685e-08 -2.49948e-06 0)
(2.06978e-08 -2.50391e-06 0)
(2.06263e-08 -2.50837e-06 0)
(2.0554e-08 -2.51286e-06 0)
(2.04809e-08 -2.51739e-06 0)
(2.0407e-08 -2.52195e-06 0)
(2.03323e-08 -2.52655e-06 0)
(2.02568e-08 -2.53117e-06 0)
(2.01805e-08 -2.53583e-06 0)
(2.01034e-08 -2.54053e-06 0)
(2.00254e-08 -2.54525e-06 0)
(1.99466e-08 -2.55001e-06 0)
(1.9867e-08 -2.5548e-06 0)
(1.97865e-08 -2.55962e-06 0)
(1.97051e-08 -2.56448e-06 0)
(1.96229e-08 -2.56937e-06 0)
(1.95398e-08 -2.57429e-06 0)
(1.94559e-08 -2.57924e-06 0)
(1.9371e-08 -2.58422e-06 0)
(1.92853e-08 -2.58924e-06 0)
(1.91986e-08 -2.59429e-06 0)
(1.91111e-08 -2.59937e-06 0)
(1.90226e-08 -2.60448e-06 0)
(1.89333e-08 -2.60963e-06 0)
(1.8843e-08 -2.6148e-06 0)
(1.87518e-08 -2.62001e-06 0)
(1.86596e-08 -2.62524e-06 0)
(1.85665e-08 -2.63051e-06 0)
(1.84725e-08 -2.63581e-06 0)
(1.83775e-08 -2.64113e-06 0)
(1.82816e-08 -2.64649e-06 0)
(1.81846e-08 -2.65188e-06 0)
(1.80868e-08 -2.6573e-06 0)
(1.79879e-08 -2.66274e-06 0)
(1.78881e-08 -2.66822e-06 0)
(1.77873e-08 -2.67372e-06 0)
(1.76855e-08 -2.67925e-06 0)
(1.75827e-08 -2.68481e-06 0)
(1.74789e-08 -2.6904e-06 0)
(1.73741e-08 -2.69601e-06 0)
(1.72683e-08 -2.70165e-06 0)
(1.71615e-08 -2.70732e-06 0)
(1.70537e-08 -2.71301e-06 0)
(1.69449e-08 -2.71873e-06 0)
(1.6835e-08 -2.72448e-06 0)
(1.67241e-08 -2.73024e-06 0)
(1.66123e-08 -2.73604e-06 0)
(1.64993e-08 -2.74185e-06 0)
(1.63854e-08 -2.74769e-06 0)
(1.62704e-08 -2.75355e-06 0)
(1.61545e-08 -2.75943e-06 0)
(1.60374e-08 -2.76533e-06 0)
(1.59194e-08 -2.77126e-06 0)
(1.58003e-08 -2.7772e-06 0)
(1.56802e-08 -2.78316e-06 0)
(1.5559e-08 -2.78914e-06 0)
(1.54369e-08 -2.79514e-06 0)
(1.53137e-08 -2.80116e-06 0)
(1.51894e-08 -2.80719e-06 0)
(1.50642e-08 -2.81324e-06 0)
(1.49379e-08 -2.8193e-06 0)
(1.48107e-08 -2.82538e-06 0)
(1.46824e-08 -2.83147e-06 0)
(1.45531e-08 -2.83757e-06 0)
(1.44227e-08 -2.84369e-06 0)
(1.42914e-08 -2.84981e-06 0)
(1.41591e-08 -2.85595e-06 0)
(1.40258e-08 -2.86209e-06 0)
(1.38916e-08 -2.86824e-06 0)
(1.37563e-08 -2.8744e-06 0)
(1.36201e-08 -2.88056e-06 0)
(1.34829e-08 -2.88673e-06 0)
(1.33448e-08 -2.8929e-06 0)
(1.32057e-08 -2.89907e-06 0)
(1.30657e-08 -2.90525e-06 0)
(1.29248e-08 -2.91143e-06 0)
(1.2783e-08 -2.9176e-06 0)
(1.26403e-08 -2.92377e-06 0)
(1.24967e-08 -2.92994e-06 0)
(1.23523e-08 -2.93611e-06 0)
(1.22069e-08 -2.94227e-06 0)
(1.20608e-08 -2.94842e-06 0)
(1.19138e-08 -2.95456e-06 0)
(1.1766e-08 -2.9607e-06 0)
(1.16175e-08 -2.96682e-06 0)
(1.14681e-08 -2.97293e-06 0)
(1.1318e-08 -2.97903e-06 0)
(1.11672e-08 -2.98511e-06 0)
(1.10157e-08 -2.99117e-06 0)
(1.08635e-08 -2.99722e-06 0)
(1.07106e-08 -3.00325e-06 0)
(1.0557e-08 -3.00925e-06 0)
(1.04029e-08 -3.01523e-06 0)
(1.02481e-08 -3.02119e-06 0)
(1.00928e-08 -3.02713e-06 0)
(9.93693e-09 -3.03303e-06 0)
(9.78054e-09 -3.03891e-06 0)
(9.62366e-09 -3.04475e-06 0)
(9.46631e-09 -3.05057e-06 0)
(9.30854e-09 -3.05635e-06 0)
(9.15037e-09 -3.06209e-06 0)
(8.99182e-09 -3.0678e-06 0)
(8.83294e-09 -3.07346e-06 0)
(8.67375e-09 -3.07909e-06 0)
(8.51429e-09 -3.08467e-06 0)
(8.3546e-09 -3.09021e-06 0)
(8.19471e-09 -3.09571e-06 0)
(8.03465e-09 -3.10115e-06 0)
(7.87447e-09 -3.10655e-06 0)
(7.71419e-09 -3.11189e-06 0)
(7.55387e-09 -3.11718e-06 0)
(7.39353e-09 -3.12242e-06 0)
(7.23323e-09 -3.1276e-06 0)
(7.073e-09 -3.13272e-06 0)
(6.91287e-09 -3.13778e-06 0)
(6.75291e-09 -3.14277e-06 0)
(6.59314e-09 -3.14771e-06 0)
(6.43361e-09 -3.15258e-06 0)
(6.27437e-09 -3.15737e-06 0)
(6.11546e-09 -3.1621e-06 0)
(5.95692e-09 -3.16676e-06 0)
(5.79881e-09 -3.17135e-06 0)
(5.64117e-09 -3.17586e-06 0)
(5.48404e-09 -3.18029e-06 0)
(5.32748e-09 -3.18465e-06 0)
(5.17152e-09 -3.18892e-06 0)
(5.01623e-09 -3.19311e-06 0)
(4.86164e-09 -3.19722e-06 0)
(4.70781e-09 -3.20125e-06 0)
(4.55479e-09 -3.20518e-06 0)
(4.40262e-09 -3.20903e-06 0)
(4.25135e-09 -3.21279e-06 0)
(4.10104e-09 -3.21645e-06 0)
(3.95173e-09 -3.22002e-06 0)
(3.80347e-09 -3.2235e-06 0)
(3.65632e-09 -3.22688e-06 0)
(3.51032e-09 -3.23016e-06 0)
(3.36551e-09 -3.23334e-06 0)
(3.22196e-09 -3.23643e-06 0)
(3.07971e-09 -3.2394e-06 0)
(2.9388e-09 -3.24228e-06 0)
(2.79929e-09 -3.24505e-06 0)
(2.66122e-09 -3.24772e-06 0)
(2.52464e-09 -3.25027e-06 0)
(2.3896e-09 -3.25272e-06 0)
(2.25614e-09 -3.25506e-06 0)
(2.12431e-09 -3.25729e-06 0)
(1.99415e-09 -3.25941e-06 0)
(1.86571e-09 -3.26141e-06 0)
(1.73903e-09 -3.2633e-06 0)
(1.61415e-09 -3.26508e-06 0)
(1.49112e-09 -3.26675e-06 0)
(1.36997e-09 -3.26829e-06 0)
(1.25074e-09 -3.26973e-06 0)
(1.13348e-09 -3.27104e-06 0)
(1.01822e-09 -3.27224e-06 0)
(9.04989e-10 -3.27332e-06 0)
(7.93834e-10 -3.27428e-06 0)
(6.84784e-10 -3.27513e-06 0)
(5.77872e-10 -3.27586e-06 0)
(4.73129e-10 -3.27647e-06 0)
(3.70585e-10 -3.27696e-06 0)
(2.70269e-10 -3.27733e-06 0)
(1.72211e-10 -3.27759e-06 0)
(7.6419e-11 -3.27772e-06 0)
(-1.70038e-11 -3.27774e-06 0)
(-1.08366e-10 -3.27765e-06 0)
(-1.96252e-10 -3.27743e-06 0)
(-2.86502e-10 -3.2771e-06 0)
(-3.81414e-10 -3.27659e-06 0)
(-4.76038e-10 -3.27589e-06 0)
(-5.68865e-10 -3.27502e-06 0)
(-6.57643e-10 -3.274e-06 0)
(-7.42082e-10 -3.27285e-06 0)
(-8.22237e-10 -3.27156e-06 0)
(-8.98195e-10 -3.27015e-06 0)
(-9.70057e-10 -3.26862e-06 0)
(-1.03795e-09 -3.26697e-06 0)
(-1.102e-09 -3.26522e-06 0)
(-1.16234e-09 -3.26337e-06 0)
(-1.21908e-09 -3.26143e-06 0)
(-1.27234e-09 -3.25939e-06 0)
(-1.32223e-09 -3.25727e-06 0)
(-1.36886e-09 -3.25508e-06 0)
(-1.41233e-09 -3.25281e-06 0)
(-1.45275e-09 -3.25048e-06 0)
(-1.49022e-09 -3.24808e-06 0)
(-1.52484e-09 -3.24562e-06 0)
(-1.5567e-09 -3.24311e-06 0)
(-1.58588e-09 -3.24055e-06 0)
(-1.61248e-09 -3.23795e-06 0)
(-1.63659e-09 -3.2353e-06 0)
(-1.65827e-09 -3.23262e-06 0)
(-1.67762e-09 -3.22991e-06 0)
(-1.69471e-09 -3.22716e-06 0)
(-1.70962e-09 -3.2244e-06 0)
(-1.7224e-09 -3.2216e-06 0)
(-1.73314e-09 -3.21879e-06 0)
(-1.74189e-09 -3.21597e-06 0)
(-1.74873e-09 -3.21313e-06 0)
(-1.75371e-09 -3.21028e-06 0)
(-1.75689e-09 -3.20743e-06 0)
(-1.75833e-09 -3.20457e-06 0)
(-1.75808e-09 -3.20171e-06 0)
(-1.7562e-09 -3.19885e-06 0)
(-1.75274e-09 -3.196e-06 0)
(-1.74774e-09 -3.19316e-06 0)
(-1.74126e-09 -3.19032e-06 0)
(-1.73333e-09 -3.1875e-06 0)
(-1.72401e-09 -3.18469e-06 0)
(-1.71333e-09 -3.18189e-06 0)
(-1.70134e-09 -3.17912e-06 0)
(-1.68807e-09 -3.17636e-06 0)
(-1.67356e-09 -3.17363e-06 0)
(-1.65786e-09 -3.17093e-06 0)
(-1.64098e-09 -3.16824e-06 0)
(-1.62298e-09 -3.16559e-06 0)
(-1.60388e-09 -3.16297e-06 0)
(-1.58371e-09 -3.16038e-06 0)
(-1.56251e-09 -3.15782e-06 0)
(-1.5403e-09 -3.1553e-06 0)
(-1.51712e-09 -3.15282e-06 0)
(-1.49299e-09 -3.15037e-06 0)
(-1.46794e-09 -3.14796e-06 0)
(-1.44201e-09 -3.1456e-06 0)
(-1.4152e-09 -3.14327e-06 0)
(-1.38756e-09 -3.141e-06 0)
(-1.3591e-09 -3.13876e-06 0)
(-1.32985e-09 -3.13658e-06 0)
(-1.29984e-09 -3.13444e-06 0)
(-1.26909e-09 -3.13235e-06 0)
(-1.23762e-09 -3.13031e-06 0)
(-1.20546e-09 -3.12833e-06 0)
(-1.17262e-09 -3.12639e-06 0)
(-1.13914e-09 -3.12451e-06 0)
(-1.10503e-09 -3.12269e-06 0)
(-1.07032e-09 -3.12092e-06 0)
(-1.03502e-09 -3.1192e-06 0)
(-9.99172e-10 -3.11755e-06 0)
(-9.62781e-10 -3.11595e-06 0)
(-9.25874e-10 -3.11441e-06 0)
(-8.88471e-10 -3.11293e-06 0)
(-8.50596e-10 -3.11152e-06 0)
(-8.12267e-10 -3.11016e-06 0)
(-7.73509e-10 -3.10887e-06 0)
(-7.34339e-10 -3.10764e-06 0)
(-6.9478e-10 -3.10648e-06 0)
(-6.54853e-10 -3.10537e-06 0)
(-6.14578e-10 -3.10434e-06 0)
(-5.73977e-10 -3.10337e-06 0)
(-5.3307e-10 -3.10246e-06 0)
(-4.91877e-10 -3.10162e-06 0)
(-4.50422e-10 -3.10086e-06 0)
(-4.08723e-10 -3.10014e-06 0)
(-3.66803e-10 -3.09953e-06 0)
(-3.24683e-10 -3.09889e-06 0)
(-2.82392e-10 -3.09861e-06 0)
(-2.39934e-10 -3.09746e-06 0)
(-1.97385e-10 -3.09945e-06 0)
(-1.54635e-10 -3.0911e-06 0)
(-1.12009e-10 -3.11604e-06 0)
(-6.92695e-11 -3.0226e-06 0)
(-2.4973e-11 -3.27077e-06 0)
(-1.13247e-12 -2.85674e-06 0)
)
;
    }
    bottomWall
    {
        type            calculated;
        value           nonuniform List<vector> 
449
(
(-48.481 -0.963381 0)
(-19.7349 -0.00514871 0)
(-14.3362 -0.00113232 0)
(-12.0346 -0.000542768 0)
(-10.639 -0.000347365 0)
(-9.6628 -0.000248505 0)
(-8.93818 -0.000183568 0)
(-8.40341 -0.000127212 0)
(-8.06368 -5.74213e-05 0)
(-8.00892 5.39153e-05 0)
(-8.43979 0.000236152 0)
(-9.64865 0.000338537 0)
(-10.7884 0.000270229 0)
(-11.5249 0.000164938 0)
(-11.937 9.14482e-05 0)
(-12.1636 4.89059e-05 0)
(-12.2795 2.285e-05 0)
(-12.3239 5.21677e-06 0)
(-12.3161 -6.45219e-06 0)
(-12.2784 -1.34727e-05 0)
(-12.2207 -1.80802e-05 0)
(-12.1502 -2.08076e-05 0)
(-12.0729 -2.21191e-05 0)
(-11.9926 -2.25986e-05 0)
(-11.9115 -2.25804e-05 0)
(-11.831 -2.22832e-05 0)
(-11.7516 -2.1811e-05 0)
(-11.6741 -2.12064e-05 0)
(-11.5988 -2.05402e-05 0)
(-11.5257 -1.98511e-05 0)
(-11.455 -1.91594e-05 0)
(-11.3867 -1.84776e-05 0)
(-11.3206 -1.78155e-05 0)
(-11.2567 -1.71763e-05 0)
(-11.195 -1.65702e-05 0)
(-11.1353 -1.60022e-05 0)
(-11.0775 -1.54565e-05 0)
(-11.0215 -1.49264e-05 0)
(-10.9673 -1.44204e-05 0)
(-10.9148 -1.39401e-05 0)
(-10.8639 -1.34843e-05 0)
(-10.8146 -1.30517e-05 0)
(-10.7667 -1.26428e-05 0)
(-10.7202 -1.22541e-05 0)
(-10.675 -1.18836e-05 0)
(-10.631 -1.15313e-05 0)
(-10.5882 -1.11989e-05 0)
(-10.5466 -1.08803e-05 0)
(-10.506 -1.05823e-05 0)
(-10.4664 -1.03202e-05 0)
(-10.4277 -1.00864e-05 0)
(-10.3897 -9.86591e-06 0)
(-10.3524 -9.65279e-06 0)
(-10.3159 -9.44355e-06 0)
(-10.28 -9.23752e-06 0)
(-10.2449 -9.0339e-06 0)
(-10.2105 -8.83492e-06 0)
(-10.1767 -8.64182e-06 0)
(-10.1436 -8.45375e-06 0)
(-10.1111 -8.27074e-06 0)
(-10.0793 -8.094e-06 0)
(-10.0481 -7.92454e-06 0)
(-10.0174 -7.75968e-06 0)
(-9.98733 -7.5991e-06 0)
(-9.9578 -7.44294e-06 0)
(-9.92879 -7.29346e-06 0)
(-9.9003 -7.14939e-06 0)
(-9.87229 -7.01004e-06 0)
(-9.84477 -6.87333e-06 0)
(-9.81772 -6.74411e-06 0)
(-9.79109 -6.6215e-06 0)
(-9.76489 -6.49919e-06 0)
(-9.73912 -6.37892e-06 0)
(-9.71377 -6.26307e-06 0)
(-9.6888 -6.15116e-06 0)
(-9.66423 -6.04085e-06 0)
(-9.64004 -5.93376e-06 0)
(-9.61622 -5.8291e-06 0)
(-9.59277 -5.72737e-06 0)
(-9.56966 -5.62872e-06 0)
(-9.5469 -5.53283e-06 0)
(-9.52447 -5.43954e-06 0)
(-9.50236 -5.34888e-06 0)
(-9.48057 -5.26051e-06 0)
(-9.45909 -5.17434e-06 0)
(-9.43791 -5.0909e-06 0)
(-9.41702 -5.00931e-06 0)
(-9.39641 -4.93122e-06 0)
(-9.37607 -4.8547e-06 0)
(-9.356 -4.77948e-06 0)
(-9.33619 -4.70671e-06 0)
(-9.31664 -4.63492e-06 0)
(-9.29734 -4.56514e-06 0)
(-9.27828 -4.49711e-06 0)
(-9.25947 -4.42988e-06 0)
(-9.24089 -4.36549e-06 0)
(-9.22253 -4.302e-06 0)
(-9.2044 -4.23967e-06 0)
(-9.18648 -4.17982e-06 0)
(-9.16878 -4.12032e-06 0)
(-9.15128 -4.06467e-06 0)
(-9.13397 -4.01189e-06 0)
(-9.11685 -3.95782e-06 0)
(-9.09992 -3.90454e-06 0)
(-9.08318 -3.85176e-06 0)
(-9.06663 -3.79964e-06 0)
(-9.05026 -3.7497e-06 0)
(-9.03407 -3.70029e-06 0)
(-9.01805 -3.65131e-06 0)
(-9.00221 -3.60445e-06 0)
(-8.98653 -3.5581e-06 0)
(-8.97102 -3.51196e-06 0)
(-8.95567 -3.46798e-06 0)
(-8.94047 -3.42452e-06 0)
(-8.92544 -3.3811e-06 0)
(-8.91055 -3.33961e-06 0)
(-8.89581 -3.29889e-06 0)
(-8.88122 -3.25801e-06 0)
(-8.86677 -3.21859e-06 0)
(-8.85247 -3.18046e-06 0)
(-8.8383 -3.14204e-06 0)
(-8.82426 -3.10452e-06 0)
(-8.81036 -3.06872e-06 0)
(-8.79659 -3.03273e-06 0)
(-8.78295 -2.99693e-06 0)
(-8.76944 -2.96282e-06 0)
(-8.75604 -2.92921e-06 0)
(-8.74277 -2.8955e-06 0)
(-8.72962 -2.86275e-06 0)
(-8.71659 -2.83123e-06 0)
(-8.70366 -2.79958e-06 0)
(-8.69086 -2.76804e-06 0)
(-8.67817 -2.73795e-06 0)
(-8.66558 -2.70842e-06 0)
(-8.6531 -2.67865e-06 0)
(-8.64073 -2.64956e-06 0)
(-8.62846 -2.62175e-06 0)
(-8.61629 -2.59385e-06 0)
(-8.60423 -2.56583e-06 0)
(-8.59226 -2.53902e-06 0)
(-8.58039 -2.51306e-06 0)
(-8.56862 -2.48673e-06 0)
(-8.55694 -2.46058e-06 0)
(-8.54536 -2.43568e-06 0)
(-8.53386 -2.41124e-06 0)
(-8.52246 -2.38646e-06 0)
(-8.51114 -2.36251e-06 0)
(-8.49991 -2.34078e-06 0)
(-8.48875 -2.3192e-06 0)
(-8.47767 -2.29627e-06 0)
(-8.46668 -2.27349e-06 0)
(-8.45577 -2.25157e-06 0)
(-8.44494 -2.22991e-06 0)
(-8.43419 -2.20806e-06 0)
(-8.42352 -2.18654e-06 0)
(-8.41293 -2.16583e-06 0)
(-8.40241 -2.14552e-06 0)
(-8.39196 -2.12499e-06 0)
(-8.38159 -2.10461e-06 0)
(-8.3713 -2.08504e-06 0)
(-8.36108 -2.06602e-06 0)
(-8.35092 -2.04673e-06 0)
(-8.34084 -2.02737e-06 0)
(-8.33083 -2.00883e-06 0)
(-8.32089 -1.99091e-06 0)
(-8.31101 -1.97283e-06 0)
(-8.3012 -1.9546e-06 0)
(-8.29146 -1.93688e-06 0)
(-8.28178 -1.91999e-06 0)
(-8.27216 -1.90298e-06 0)
(-8.26261 -1.88613e-06 0)
(-8.25311 -1.86905e-06 0)
(-8.24369 -1.85057e-06 0)
(-8.23486 -1.83721e-06 0)
(-8.22653 -1.82565e-06 0)
(-8.21818 -1.80953e-06 0)
(-8.20982 -1.79449e-06 0)
(-8.20143 -1.78069e-06 0)
(-8.19302 -1.76679e-06 0)
(-8.18458 -1.75273e-06 0)
(-8.17612 -1.73833e-06 0)
(-8.16764 -1.7244e-06 0)
(-8.15913 -1.71076e-06 0)
(-8.1506 -1.69725e-06 0)
(-8.14205 -1.68333e-06 0)
(-8.13347 -1.66925e-06 0)
(-8.12488 -1.65566e-06 0)
(-8.11626 -1.64232e-06 0)
(-8.10761 -1.62895e-06 0)
(-8.09895 -1.61529e-06 0)
(-8.09026 -1.60162e-06 0)
(-8.08155 -1.58839e-06 0)
(-8.07283 -1.57532e-06 0)
(-8.06407 -1.56209e-06 0)
(-8.0553 -1.5487e-06 0)
(-8.04651 -1.53548e-06 0)
(-8.0377 -1.52257e-06 0)
(-8.02887 -1.50981e-06 0)
(-8.02002 -1.49678e-06 0)
(-8.01115 -1.48364e-06 0)
(-8.00226 -1.47088e-06 0)
(-7.99336 -1.45835e-06 0)
(-7.98443 -1.44575e-06 0)
(-7.97548 -1.43298e-06 0)
(-7.96652 -1.42031e-06 0)
(-7.95754 -1.40794e-06 0)
(-7.94854 -1.39576e-06 0)
(-7.93952 -1.38333e-06 0)
(-7.93049 -1.37079e-06 0)
(-7.92144 -1.35862e-06 0)
(-7.91237 -1.34669e-06 0)
(-7.90329 -1.33461e-06 0)
(-7.89419 -1.32296e-06 0)
(-7.88507 -1.31196e-06 0)
(-7.87592 -1.30072e-06 0)
(-7.86676 -1.28911e-06 0)
(-7.85758 -1.27724e-06 0)
(-7.84839 -1.2654e-06 0)
(-7.83918 -1.25389e-06 0)
(-7.82996 -1.24254e-06 0)
(-7.82072 -1.231e-06 0)
(-7.81147 -1.21937e-06 0)
(-7.80221 -1.20809e-06 0)
(-7.79293 -1.19707e-06 0)
(-7.78364 -1.18583e-06 0)
(-7.77433 -1.17447e-06 0)
(-7.76502 -1.16345e-06 0)
(-7.75569 -1.1527e-06 0)
(-7.74635 -1.14177e-06 0)
(-7.73699 -1.13073e-06 0)
(-7.72763 -1.11997e-06 0)
(-7.71825 -1.10948e-06 0)
(-7.70886 -1.09886e-06 0)
(-7.69946 -1.08812e-06 0)
(-7.69005 -1.07765e-06 0)
(-7.68063 -1.06743e-06 0)
(-7.6712 -1.05709e-06 0)
(-7.66176 -1.04665e-06 0)
(-7.65231 -1.03647e-06 0)
(-7.64285 -1.02653e-06 0)
(-7.63338 -1.01647e-06 0)
(-7.6239 -1.00632e-06 0)
(-7.61441 -9.9645e-07 0)
(-7.60492 -9.86788e-07 0)
(-7.59541 -9.76997e-07 0)
(-7.5859 -9.67146e-07 0)
(-7.57638 -9.57586e-07 0)
(-7.56685 -9.48216e-07 0)
(-7.55731 -9.38684e-07 0)
(-7.54777 -9.29124e-07 0)
(-7.53822 -9.19877e-07 0)
(-7.52866 -9.10759e-07 0)
(-7.51909 -9.01489e-07 0)
(-7.50952 -8.92262e-07 0)
(-7.49995 -8.83303e-07 0)
(-7.49037 -8.74419e-07 0)
(-7.48078 -8.65425e-07 0)
(-7.47118 -8.56534e-07 0)
(-7.46159 -8.47874e-07 0)
(-7.45198 -8.3922e-07 0)
(-7.44237 -8.30493e-07 0)
(-7.43276 -8.21926e-07 0)
(-7.42314 -8.13561e-07 0)
(-7.41352 -8.05133e-07 0)
(-7.4039 -7.96674e-07 0)
(-7.39427 -7.88425e-07 0)
(-7.38464 -7.80321e-07 0)
(-7.375 -7.72131e-07 0)
(-7.36536 -7.63975e-07 0)
(-7.35572 -7.56038e-07 0)
(-7.34608 -7.48148e-07 0)
(-7.33643 -7.40219e-07 0)
(-7.32678 -7.32446e-07 0)
(-7.31713 -7.25236e-07 0)
(-7.30746 -7.18134e-07 0)
(-7.29779 -7.10615e-07 0)
(-7.28812 -7.03105e-07 0)
(-7.27845 -6.95688e-07 0)
(-7.26877 -6.88222e-07 0)
(-7.2591 -6.80809e-07 0)
(-7.24943 -6.73582e-07 0)
(-7.23975 -6.66376e-07 0)
(-7.23007 -6.59138e-07 0)
(-7.2204 -6.52039e-07 0)
(-7.21072 -6.45074e-07 0)
(-7.20105 -6.38064e-07 0)
(-7.19137 -6.31072e-07 0)
(-7.1817 -6.24272e-07 0)
(-7.17203 -6.17513e-07 0)
(-7.16236 -6.10721e-07 0)
(-7.15269 -6.04046e-07 0)
(-7.14302 -5.97517e-07 0)
(-7.13336 -5.90944e-07 0)
(-7.12369 -5.84385e-07 0)
(-7.11403 -5.78004e-07 0)
(-7.10437 -5.71669e-07 0)
(-7.09472 -5.65299e-07 0)
(-7.08507 -5.59042e-07 0)
(-7.07542 -5.52922e-07 0)
(-7.06577 -5.46765e-07 0)
(-7.05613 -5.40629e-07 0)
(-7.04649 -5.34655e-07 0)
(-7.03685 -5.2872e-07 0)
(-7.02722 -5.22754e-07 0)
(-7.01759 -5.16905e-07 0)
(-7.00797 -5.11167e-07 0)
(-6.99835 -5.05403e-07 0)
(-6.98874 -4.99677e-07 0)
(-6.97913 -4.94101e-07 0)
(-6.96952 -4.88538e-07 0)
(-6.95993 -4.82963e-07 0)
(-6.95033 -4.7751e-07 0)
(-6.94075 -4.72132e-07 0)
(-6.93116 -4.66735e-07 0)
(-6.92159 -4.61404e-07 0)
(-6.91202 -4.56201e-07 0)
(-6.90245 -4.50986e-07 0)
(-6.8929 -4.45784e-07 0)
(-6.88335 -4.40718e-07 0)
(-6.8738 -4.35681e-07 0)
(-6.86427 -4.30642e-07 0)
(-6.85474 -4.25692e-07 0)
(-6.84522 -4.2082e-07 0)
(-6.8357 -4.15942e-07 0)
(-6.8262 -4.11116e-07 0)
(-6.8167 -4.064e-07 0)
(-6.8072 -4.01681e-07 0)
(-6.79772 -3.96982e-07 0)
(-6.78825 -3.92391e-07 0)
(-6.77878 -3.88012e-07 0)
(-6.76931 -3.83748e-07 0)
(-6.75985 -3.79375e-07 0)
(-6.7504 -3.74959e-07 0)
(-6.74095 -3.70541e-07 0)
(-6.73152 -3.66184e-07 0)
(-6.72209 -3.61908e-07 0)
(-6.71268 -3.5764e-07 0)
(-6.70327 -3.53403e-07 0)
(-6.69387 -3.4928e-07 0)
(-6.68448 -3.45198e-07 0)
(-6.67511 -3.41122e-07 0)
(-6.66574 -3.37097e-07 0)
(-6.65638 -3.33105e-07 0)
(-6.64703 -3.29119e-07 0)
(-6.6377 -3.25209e-07 0)
(-6.62837 -3.21344e-07 0)
(-6.61905 -3.17495e-07 0)
(-6.60975 -3.13687e-07 0)
(-6.60046 -3.09959e-07 0)
(-6.59118 -3.06211e-07 0)
(-6.58191 -3.02536e-07 0)
(-6.57265 -2.9884e-07 0)
(-6.56342 -2.95296e-07 0)
(-6.55418 -2.91874e-07 0)
(-6.54392 -2.87796e-07 0)
(-6.53275 -2.83425e-07 0)
(-6.52174 -2.79435e-07 0)
(-6.51089 -2.7553e-07 0)
(-6.50019 -2.71625e-07 0)
(-6.48964 -2.67843e-07 0)
(-6.47923 -2.64144e-07 0)
(-6.46897 -2.60514e-07 0)
(-6.45885 -2.56991e-07 0)
(-6.44886 -2.53538e-07 0)
(-6.43902 -2.50154e-07 0)
(-6.42929 -2.46872e-07 0)
(-6.4197 -2.43658e-07 0)
(-6.41023 -2.40494e-07 0)
(-6.40089 -2.37438e-07 0)
(-6.39166 -2.34437e-07 0)
(-6.38255 -2.31486e-07 0)
(-6.37355 -2.28623e-07 0)
(-6.36466 -2.25822e-07 0)
(-6.35588 -2.23055e-07 0)
(-6.34721 -2.20368e-07 0)
(-6.33864 -2.17743e-07 0)
(-6.33018 -2.15155e-07 0)
(-6.32181 -2.12621e-07 0)
(-6.31354 -2.10167e-07 0)
(-6.30537 -2.07737e-07 0)
(-6.29729 -2.05346e-07 0)
(-6.2893 -2.03031e-07 0)
(-6.28141 -2.00764e-07 0)
(-6.2736 -1.98635e-07 0)
(-6.26587 -1.96573e-07 0)
(-6.25822 -1.94447e-07 0)
(-6.25066 -1.92335e-07 0)
(-6.24317 -1.90245e-07 0)
(-6.23577 -1.88223e-07 0)
(-6.22845 -1.86239e-07 0)
(-6.22121 -1.84276e-07 0)
(-6.21403 -1.82346e-07 0)
(-6.20694 -1.80478e-07 0)
(-6.19991 -1.78639e-07 0)
(-6.19296 -1.76835e-07 0)
(-6.18608 -1.75063e-07 0)
(-6.17927 -1.73328e-07 0)
(-6.17252 -1.71603e-07 0)
(-6.16584 -1.69901e-07 0)
(-6.15923 -1.68234e-07 0)
(-6.15268 -1.6662e-07 0)
(-6.14619 -1.65014e-07 0)
(-6.13977 -1.63429e-07 0)
(-6.13341 -1.6187e-07 0)
(-6.12711 -1.60365e-07 0)
(-6.12086 -1.58865e-07 0)
(-6.11468 -1.5739e-07 0)
(-6.10855 -1.55925e-07 0)
(-6.10249 -1.54519e-07 0)
(-6.09646 -1.53118e-07 0)
(-6.09051 -1.51746e-07 0)
(-6.08459 -1.50364e-07 0)
(-6.07874 -1.4905e-07 0)
(-6.07293 -1.47738e-07 0)
(-6.06719 -1.46467e-07 0)
(-6.06147 -1.45158e-07 0)
(-6.05583 -1.43933e-07 0)
(-6.05021 -1.42687e-07 0)
(-6.04467 -1.4152e-07 0)
(-6.03914 -1.40287e-07 0)
(-6.03369 -1.39149e-07 0)
(-6.02825 -1.37953e-07 0)
(-6.0229 -1.36888e-07 0)
(-6.01754 -1.35717e-07 0)
(-6.01229 -1.3468e-07 0)
(-6.00701 -1.3352e-07 0)
(-6.00184 -1.32553e-07 0)
(-5.99664 -1.31431e-07 0)
(-5.99156 -1.30519e-07 0)
(-5.98643 -1.29386e-07 0)
(-5.98144 -1.2853e-07 0)
(-5.97637 -1.27426e-07 0)
(-5.97147 -1.26659e-07 0)
(-5.96647 -1.25561e-07 0)
(-5.96165 -1.24848e-07 0)
(-5.9567 -1.23765e-07 0)
(-5.95196 -1.23142e-07 0)
(-5.94707 -1.22153e-07 0)
(-5.94241 -1.21504e-07 0)
(-5.93756 -1.20874e-07 0)
(-5.93295 -1.19624e-07 0)
(-5.92821 -1.20702e-07 0)
(-5.9235 -1.16372e-07 0)
(-5.91911 -1.24573e-07 0)
(-5.91374 -1.06799e-07 0)
(-5.9108 -1.37963e-07 0)
(-5.90286 -8.40621e-08 0)
(-5.90439 -1.16491e-07 0)
(-5.89346 -1.44865e-07 0)
)
;
    }
    symmetry
    {
        type            symmetryPlane;
    }
    frontAndBack
    {
        type            empty;
    }
}


// ************************************************************************* //
