/*--------------------------------*- C++ -*----------------------------------*\
| =========                 |                                                 |
| \\      /  F ield         | OpenFOAM: The Open Source CFD Toolbox           |
|  \\    /   O peration     | Version:  v2012                                 |
|   \\  /    A nd           | Website:  www.openfoam.com                      |
|    \\/     M anipulation  |                                                 |
\*---------------------------------------------------------------------------*/
FoamFile
{
    version     2.0;
    format      ascii;
    class       volScalarField;
    location    "29";
    object      epsilon;
}
// * * * * * * * * * * * * * * * * * * * * * * * * * * * * * * * * * * * * * //

dimensions      [0 2 -3 0 0 0 0];


internalField   nonuniform List<scalar> 
209825
(
0.75503
0.646212
0.583838
0.546523
0.522513
0.506084
0.494236
0.485401
0.478567
0.473198
0.468846
0.465306
0.462337
0.459858
0.457724
0.455917
0.454326
0.452963
0.451738
0.450682
0.449716
0.448878
0.4481
0.447431
0.446798
0.446251
0.445728
0.445283
0.444851
0.444478
0.444115
0.443814
0.443514
0.443261
0.443007
0.442807
0.442591
0.442415
0.442236
0.442095
0.441949
0.441845
0.44172
0.44162
0.441523
0.441462
0.441368
0.441304
0.441253
0.441212
0.441117
0.441103
0.441095
0.441083
0.441072
0.441042
0.441098
0.441195
0.441207
0.441343
0.441375
0.441375
0.441455
0.441533
0.441648
0.441799
0.441919
0.442019
0.442147
0.442302
0.442435
0.442625
0.442787
0.44299
0.443151
0.443387
0.443542
0.443836
0.444011
0.444356
0.444558
0.444966
0.445192
0.445664
0.44593
0.446484
0.446802
0.447472
0.447858
0.44871
0.449162
0.450548
0.450922
0.457289
3.01984
549.233
0.755031
0.646209
0.583829
0.546509
0.522495
0.506064
0.494214
0.485377
0.478542
0.473172
0.468819
0.465278
0.462309
0.459829
0.457695
0.455888
0.454296
0.452933
0.451708
0.450652
0.449685
0.448847
0.448069
0.447399
0.446766
0.44622
0.445696
0.445251
0.44482
0.444446
0.444083
0.443782
0.443482
0.443229
0.442975
0.442775
0.442559
0.442383
0.442204
0.442062
0.441916
0.441813
0.441687
0.441588
0.44149
0.441429
0.441335
0.441272
0.441221
0.441179
0.441084
0.441071
0.441063
0.441051
0.44104
0.44101
0.441065
0.441162
0.441174
0.44131
0.441343
0.441343
0.441422
0.4415
0.441615
0.441766
0.441887
0.441986
0.442114
0.442269
0.442402
0.442592
0.442754
0.442957
0.443118
0.443354
0.443509
0.443803
0.443978
0.444323
0.444525
0.444933
0.445159
0.445631
0.445896
0.446451
0.446769
0.447439
0.447825
0.448677
0.449128
0.450514
0.450888
0.457265
3.02487
545.911
0.755034
0.646191
0.583786
0.546447
0.522418
0.505977
0.494118
0.485275
0.478435
0.473061
0.468705
0.465161
0.46219
0.459708
0.457572
0.455764
0.454171
0.452807
0.45158
0.450524
0.449557
0.448718
0.447939
0.447269
0.446635
0.446088
0.445565
0.445119
0.444687
0.444313
0.44395
0.443649
0.443348
0.443095
0.442841
0.44264
0.442425
0.442248
0.442069
0.441927
0.441781
0.441678
0.441552
0.441452
0.441355
0.441294
0.441199
0.441136
0.441085
0.441043
0.440948
0.440934
0.440926
0.440914
0.440903
0.440873
0.440928
0.441025
0.441037
0.441173
0.441205
0.441205
0.441285
0.441363
0.441477
0.441629
0.441749
0.441848
0.441976
0.442132
0.442264
0.442454
0.442616
0.442819
0.44298
0.443216
0.443371
0.443664
0.443839
0.444184
0.444387
0.444794
0.44502
0.445492
0.445757
0.446311
0.446629
0.447299
0.447685
0.448536
0.448987
0.450373
0.450745
0.457142
3.03566
542.042
0.755038
0.64616
0.583714
0.546341
0.522288
0.505828
0.493956
0.485102
0.478254
0.472874
0.468512
0.464964
0.461989
0.459504
0.457365
0.455555
0.45396
0.452594
0.451366
0.450308
0.449339
0.4485
0.44772
0.447049
0.446414
0.445866
0.445342
0.444896
0.444463
0.444089
0.443726
0.443424
0.443123
0.442869
0.442615
0.442413
0.442198
0.442021
0.441841
0.441699
0.441553
0.441449
0.441323
0.441223
0.441126
0.441064
0.44097
0.440906
0.440855
0.440813
0.440718
0.440704
0.440696
0.440684
0.440673
0.440642
0.440697
0.440794
0.440805
0.440941
0.440974
0.440974
0.441054
0.441131
0.441245
0.441397
0.441517
0.441616
0.441744
0.441899
0.442032
0.442222
0.442383
0.442586
0.442747
0.442983
0.443138
0.443431
0.443606
0.44395
0.444152
0.444559
0.444785
0.445257
0.445522
0.446075
0.446393
0.447062
0.447448
0.448299
0.448749
0.450134
0.450504
0.456931
3.05258
538.396
0.755044
0.646116
0.583612
0.546192
0.522104
0.505618
0.493727
0.484858
0.477998
0.472609
0.46824
0.464685
0.461705
0.459216
0.457073
0.455259
0.453661
0.452293
0.451063
0.450003
0.449033
0.448192
0.44741
0.446738
0.446102
0.445553
0.445028
0.444581
0.444147
0.443772
0.443408
0.443106
0.442804
0.44255
0.442295
0.442093
0.441877
0.441699
0.441519
0.441377
0.44123
0.441126
0.441
0.4409
0.440802
0.44074
0.440646
0.440582
0.44053
0.440488
0.440394
0.440379
0.440371
0.440358
0.440347
0.440316
0.440371
0.440467
0.440479
0.440614
0.440647
0.440647
0.440726
0.440804
0.440918
0.441069
0.441189
0.441288
0.441416
0.441571
0.441703
0.441893
0.442054
0.442257
0.442417
0.442653
0.442808
0.443101
0.443275
0.44362
0.443821
0.444228
0.444453
0.444925
0.445189
0.445742
0.44606
0.446728
0.447113
0.447963
0.448412
0.449796
0.450163
0.456631
3.07609
535.317
0.755051
0.64606
0.583479
0.545998
0.521865
0.505346
0.49343
0.484542
0.477667
0.472265
0.467886
0.464324
0.461336
0.458842
0.456694
0.454876
0.453274
0.451903
0.45067
0.449607
0.448635
0.447792
0.447009
0.446334
0.445697
0.445147
0.44462
0.444172
0.443737
0.443361
0.442996
0.442693
0.44239
0.442136
0.44188
0.441677
0.441461
0.441283
0.441102
0.440959
0.440812
0.440708
0.440581
0.440481
0.440382
0.44032
0.440226
0.440161
0.440109
0.440067
0.439972
0.439957
0.439949
0.439936
0.439925
0.439893
0.439948
0.440044
0.440055
0.44019
0.440222
0.440222
0.440302
0.440379
0.440493
0.440644
0.440764
0.440863
0.44099
0.441145
0.441277
0.441466
0.441627
0.44183
0.44199
0.442226
0.44238
0.442673
0.442847
0.443191
0.443392
0.443798
0.444023
0.444494
0.444758
0.44531
0.445627
0.446294
0.446679
0.447527
0.447975
0.449357
0.449721
0.456242
3.10664
532.97
0.755061
0.645991
0.583316
0.545759
0.521571
0.505011
0.493064
0.484152
0.477259
0.471842
0.467451
0.463878
0.460883
0.458381
0.456227
0.454404
0.452798
0.451422
0.450186
0.44912
0.448144
0.447299
0.446514
0.445837
0.445198
0.444646
0.444118
0.443668
0.443232
0.442855
0.442489
0.442184
0.441881
0.441625
0.441369
0.441165
0.440948
0.440769
0.440588
0.440445
0.440297
0.440192
0.440064
0.439964
0.439865
0.439802
0.439707
0.439643
0.43959
0.439548
0.439453
0.439438
0.439429
0.439416
0.439404
0.439372
0.439427
0.439522
0.439532
0.439667
0.4397
0.439699
0.439779
0.439856
0.439969
0.44012
0.44024
0.440339
0.440466
0.44062
0.440752
0.440941
0.441101
0.441303
0.441463
0.441699
0.441853
0.442145
0.442319
0.442662
0.442863
0.443268
0.443493
0.443963
0.444227
0.444777
0.445094
0.445759
0.446143
0.446989
0.447437
0.448817
0.449176
0.455763
3.14466
531.413
0.755072
0.645908
0.583123
0.545476
0.521221
0.504612
0.492628
0.483688
0.476773
0.471338
0.466933
0.463348
0.460342
0.457832
0.455671
0.453842
0.45223
0.45085
0.449609
0.448539
0.44756
0.446712
0.445924
0.445245
0.444604
0.444049
0.443519
0.443068
0.44263
0.442251
0.441884
0.441578
0.441274
0.441017
0.440759
0.440555
0.440337
0.440157
0.439975
0.439831
0.439683
0.439577
0.439449
0.439348
0.439248
0.439186
0.43909
0.439025
0.438972
0.43893
0.438835
0.438819
0.43881
0.438796
0.438784
0.438751
0.438806
0.4389
0.43891
0.439044
0.439077
0.439076
0.439156
0.439232
0.439345
0.439495
0.439615
0.439714
0.43984
0.439994
0.440126
0.440314
0.440474
0.440676
0.440836
0.441071
0.441225
0.441516
0.44169
0.442032
0.442233
0.442637
0.442861
0.44333
0.443593
0.444143
0.444459
0.445122
0.445505
0.446349
0.446795
0.448173
0.448526
0.455193
3.19059
530.632
0.755086
0.645814
0.582899
0.545147
0.520815
0.504149
0.492122
0.483149
0.476208
0.470752
0.46633
0.462731
0.459714
0.457194
0.455025
0.453188
0.451569
0.450184
0.448938
0.447864
0.446881
0.446029
0.445238
0.444556
0.443912
0.443355
0.442823
0.44237
0.44193
0.44155
0.441181
0.440874
0.440568
0.44031
0.440051
0.439845
0.439626
0.439446
0.439263
0.439118
0.438968
0.438862
0.438733
0.438632
0.438531
0.438468
0.438372
0.438307
0.438253
0.438211
0.438115
0.438099
0.438089
0.438076
0.438063
0.438029
0.438083
0.438176
0.438186
0.43832
0.438352
0.438352
0.438431
0.438507
0.438619
0.438769
0.438888
0.438988
0.439113
0.439267
0.439398
0.439586
0.439745
0.439947
0.440106
0.440341
0.440494
0.440785
0.440958
0.4413
0.441499
0.441903
0.442126
0.442594
0.442856
0.443404
0.443719
0.444381
0.444763
0.445604
0.446048
0.447424
0.447771
0.454531
3.24485
530.564
0.755101
0.645706
0.582644
0.544773
0.520352
0.503621
0.491545
0.482534
0.475563
0.470084
0.465642
0.462028
0.458997
0.456465
0.454286
0.452441
0.450815
0.449423
0.448171
0.447092
0.446105
0.445249
0.444454
0.443769
0.443122
0.442563
0.442028
0.441573
0.441131
0.440748
0.440378
0.440069
0.439761
0.439502
0.439241
0.439035
0.438814
0.438633
0.438449
0.438303
0.438152
0.438045
0.437916
0.437814
0.437712
0.437648
0.437552
0.437486
0.437432
0.437389
0.437294
0.437276
0.437266
0.437252
0.437239
0.437204
0.437258
0.43735
0.437359
0.437492
0.437524
0.437524
0.437603
0.437679
0.43779
0.437939
0.438058
0.438158
0.438282
0.438436
0.438566
0.438754
0.438912
0.439114
0.439272
0.439507
0.439659
0.439949
0.440121
0.440463
0.440661
0.441064
0.441287
0.441753
0.442015
0.442561
0.442875
0.443535
0.443915
0.444754
0.445196
0.446569
0.446908
0.453776
3.30784
531.11
0.755118
0.645587
0.582359
0.544353
0.519832
0.503027
0.490896
0.481842
0.474838
0.469331
0.464868
0.461235
0.458189
0.455645
0.453455
0.4516
0.449966
0.448567
0.447309
0.446224
0.445232
0.444371
0.443572
0.442883
0.442233
0.441671
0.441133
0.440675
0.440231
0.439846
0.439473
0.439162
0.438853
0.438592
0.43833
0.438122
0.4379
0.437717
0.437532
0.437385
0.437234
0.437125
0.436995
0.436892
0.43679
0.436725
0.436628
0.436562
0.436507
0.436464
0.436368
0.43635
0.436339
0.436325
0.436311
0.436275
0.436329
0.436419
0.436427
0.43656
0.436591
0.436591
0.436671
0.436746
0.436856
0.437004
0.437123
0.437223
0.437347
0.4375
0.437629
0.437816
0.437974
0.438175
0.438333
0.438567
0.438719
0.439008
0.43918
0.43952
0.439718
0.440119
0.440341
0.440806
0.441067
0.441611
0.441924
0.442581
0.44296
0.443796
0.444235
0.445605
0.445937
0.452928
3.37992
532.148
0.755138
0.645455
0.582043
0.543887
0.519255
0.502367
0.490174
0.481073
0.474031
0.468494
0.464006
0.460353
0.457291
0.454732
0.452529
0.450664
0.449021
0.447614
0.446348
0.445257
0.444259
0.443394
0.44259
0.441897
0.441243
0.440677
0.440136
0.439675
0.439228
0.438841
0.438466
0.438153
0.437841
0.437579
0.437315
0.437105
0.436882
0.436698
0.436511
0.436364
0.43621
0.436101
0.43597
0.435866
0.435763
0.435698
0.4356
0.435533
0.435476
0.435433
0.435337
0.435318
0.435307
0.435292
0.435278
0.435241
0.435294
0.435383
0.43539
0.435522
0.435553
0.435553
0.435632
0.435707
0.435816
0.435963
0.436083
0.436182
0.436305
0.436457
0.436586
0.436772
0.436929
0.43713
0.437287
0.437521
0.437672
0.43796
0.438131
0.43847
0.438667
0.439067
0.439288
0.439751
0.440011
0.440554
0.440865
0.44152
0.441897
0.442729
0.443166
0.444533
0.444856
0.451985
3.46138
533.54
0.75516
0.645311
0.581696
0.543375
0.51862
0.501641
0.489379
0.480225
0.473141
0.467572
0.463057
0.459381
0.4563
0.453725
0.451509
0.449632
0.447979
0.446562
0.445289
0.444191
0.443187
0.442316
0.441507
0.440809
0.440151
0.439581
0.439037
0.438572
0.438123
0.437733
0.437355
0.43704
0.436726
0.436461
0.436195
0.435984
0.435759
0.435574
0.435386
0.435236
0.435082
0.434971
0.434839
0.434734
0.43463
0.434564
0.434465
0.434397
0.43434
0.434296
0.4342
0.43418
0.434168
0.434153
0.434138
0.434099
0.434152
0.434239
0.434246
0.434376
0.434408
0.434407
0.434487
0.43456
0.434669
0.434815
0.434934
0.435033
0.435155
0.435307
0.435435
0.435621
0.435777
0.435977
0.436133
0.436366
0.436517
0.436804
0.436974
0.437312
0.437508
0.437906
0.438127
0.438588
0.438847
0.439387
0.439697
0.440348
0.440724
0.441552
0.441986
0.443349
0.443663
0.450946
3.55249
535.139
0.755184
0.645155
0.581319
0.542817
0.517927
0.500848
0.48851
0.479299
0.472169
0.466563
0.462018
0.458318
0.455216
0.452624
0.450393
0.448503
0.446838
0.445412
0.44413
0.443024
0.442013
0.441136
0.440321
0.439618
0.438955
0.438382
0.437834
0.437366
0.436913
0.43652
0.436139
0.435821
0.435505
0.435238
0.43497
0.434757
0.43453
0.434343
0.434153
0.434002
0.433847
0.433735
0.433601
0.433495
0.43339
0.433322
0.433223
0.433154
0.433096
0.433052
0.432956
0.432934
0.432921
0.432905
0.43289
0.43285
0.432902
0.432988
0.432993
0.433123
0.433154
0.433154
0.433232
0.433306
0.433413
0.433558
0.433677
0.433776
0.433897
0.434048
0.434175
0.43436
0.434515
0.434715
0.43487
0.435103
0.435252
0.435538
0.435707
0.436044
0.436239
0.436635
0.436855
0.437314
0.437572
0.438109
0.438418
0.439066
0.439439
0.440264
0.440694
0.442054
0.442357
0.449811
3.65339
536.8
0.75521
0.644987
0.580913
0.542214
0.517176
0.499988
0.487568
0.478293
0.471113
0.465467
0.46089
0.457163
0.454038
0.451427
0.44918
0.447276
0.445599
0.444162
0.44287
0.441756
0.440737
0.439853
0.439032
0.438324
0.437656
0.437078
0.436525
0.436054
0.435597
0.435201
0.434817
0.434496
0.434177
0.433908
0.433638
0.433422
0.433194
0.433005
0.432813
0.432661
0.432503
0.43239
0.432255
0.432148
0.432041
0.431973
0.431873
0.431803
0.431744
0.431699
0.431603
0.431579
0.431566
0.431549
0.431534
0.431492
0.431543
0.431627
0.431632
0.43176
0.43179
0.43179
0.431869
0.431941
0.432047
0.432191
0.43231
0.432409
0.432528
0.432679
0.432805
0.432989
0.433143
0.433342
0.433496
0.433729
0.433877
0.434162
0.43433
0.434665
0.434859
0.435253
0.435472
0.435929
0.436185
0.43672
0.437027
0.437672
0.438043
0.438863
0.43929
0.440646
0.440937
0.448578
3.76414
538.381
0.755239
0.644808
0.580476
0.541564
0.516366
0.49906
0.486551
0.477207
0.469973
0.464284
0.459671
0.455915
0.452766
0.450134
0.447869
0.445949
0.444259
0.44281
0.441508
0.440385
0.439358
0.438467
0.437639
0.436925
0.436251
0.435668
0.435111
0.434635
0.434175
0.433775
0.433388
0.433064
0.432742
0.432471
0.432198
0.43198
0.431749
0.431558
0.431365
0.431211
0.431051
0.430936
0.4308
0.430692
0.430583
0.430514
0.430413
0.430342
0.430281
0.430236
0.430139
0.430115
0.4301
0.430083
0.430067
0.430023
0.430074
0.430155
0.430159
0.430286
0.430316
0.430316
0.430394
0.430466
0.430571
0.430713
0.430831
0.430931
0.431049
0.431199
0.431324
0.431506
0.431659
0.431858
0.432011
0.432243
0.43239
0.432674
0.43284
0.433174
0.433366
0.433759
0.433977
0.434431
0.434686
0.435218
0.435523
0.436164
0.436533
0.437348
0.437772
0.439123
0.439403
0.447246
3.88469
539.751
0.755271
0.644619
0.58001
0.540869
0.515499
0.498065
0.48546
0.476041
0.468749
0.463013
0.458361
0.454574
0.451398
0.448744
0.446459
0.444523
0.442818
0.441357
0.440044
0.438911
0.437875
0.436976
0.436141
0.43542
0.434741
0.434152
0.43359
0.43311
0.432645
0.432242
0.431851
0.431524
0.431199
0.430924
0.430648
0.430428
0.430195
0.430002
0.429806
0.42965
0.429489
0.429372
0.429235
0.429125
0.429015
0.428944
0.428842
0.42877
0.428708
0.428662
0.428565
0.428539
0.428524
0.428505
0.428488
0.428443
0.428493
0.428572
0.428575
0.4287
0.42873
0.42873
0.428808
0.428878
0.428982
0.429124
0.429241
0.429341
0.429457
0.429606
0.42973
0.429912
0.430063
0.430262
0.430413
0.430644
0.43079
0.431072
0.431238
0.431569
0.431761
0.432151
0.432368
0.432819
0.433073
0.433602
0.433905
0.434542
0.434908
0.435718
0.436138
0.437485
0.437752
0.445814
4.01481
540.79
0.755305
0.644419
0.579514
0.540128
0.514574
0.497003
0.484293
0.474795
0.467439
0.461653
0.45696
0.453138
0.449934
0.447256
0.444951
0.442997
0.441276
0.439802
0.438476
0.437333
0.436287
0.435379
0.434537
0.433809
0.433123
0.432529
0.431961
0.431476
0.431007
0.430599
0.430204
0.429874
0.429545
0.429268
0.428989
0.428766
0.42853
0.428336
0.428137
0.42798
0.427816
0.427698
0.427558
0.427447
0.427335
0.427263
0.42716
0.427087
0.427023
0.426977
0.426879
0.426852
0.426835
0.426816
0.426798
0.426751
0.4268
0.426876
0.426878
0.427002
0.427031
0.427031
0.427109
0.427178
0.427281
0.427421
0.427538
0.427637
0.427752
0.4279
0.428023
0.428203
0.428354
0.428551
0.428702
0.428932
0.429077
0.429357
0.429522
0.429851
0.430041
0.430429
0.430644
0.431093
0.431345
0.431871
0.432172
0.432804
0.433168
0.433973
0.434388
0.435731
0.435985
0.444281
4.15414
541.389
0.755342
0.644208
0.578991
0.539343
0.513591
0.495873
0.483052
0.473467
0.466045
0.460204
0.455467
0.451609
0.448374
0.44567
0.443342
0.441369
0.439632
0.438143
0.436805
0.435649
0.434593
0.433677
0.432826
0.432091
0.431398
0.430798
0.430224
0.429734
0.429259
0.428848
0.428449
0.428114
0.427782
0.427501
0.427219
0.426994
0.426755
0.426558
0.426357
0.426197
0.426031
0.425911
0.42577
0.425657
0.425543
0.42547
0.425366
0.425291
0.425226
0.425179
0.425081
0.425051
0.425033
0.425013
0.424995
0.424946
0.424994
0.425067
0.425068
0.425191
0.425219
0.425218
0.425296
0.425365
0.425465
0.425604
0.42572
0.42582
0.425933
0.42608
0.426201
0.426381
0.42653
0.426726
0.426875
0.427105
0.427248
0.427527
0.42769
0.428018
0.428206
0.428592
0.428806
0.429251
0.429502
0.430024
0.430323
0.430951
0.431312
0.43211
0.432522
0.433859
0.4341
0.442644
4.30209
541.456
0.755381
0.643988
0.578439
0.538512
0.512551
0.494675
0.481736
0.472059
0.464564
0.458665
0.453881
0.449984
0.446716
0.443985
0.441634
0.43964
0.437885
0.43638
0.435028
0.433861
0.432794
0.431867
0.431008
0.430265
0.429564
0.428957
0.428378
0.427882
0.427402
0.426986
0.426582
0.426244
0.425908
0.425624
0.425338
0.425109
0.424868
0.424668
0.424465
0.424302
0.424134
0.424012
0.423869
0.423755
0.423639
0.423563
0.423458
0.423382
0.423315
0.423267
0.423169
0.423137
0.423118
0.423097
0.423078
0.423027
0.423074
0.423143
0.423144
0.423264
0.423292
0.423292
0.423369
0.423436
0.423535
0.423672
0.423788
0.423888
0.423999
0.424145
0.424265
0.424443
0.424591
0.424786
0.424934
0.425162
0.425304
0.425582
0.425743
0.426068
0.426255
0.426638
0.426851
0.427293
0.427542
0.42806
0.428357
0.42898
0.429338
0.43013
0.430537
0.431869
0.432096
0.440903
4.45785
540.918
0.755424
0.643759
0.577859
0.537638
0.511453
0.493411
0.480345
0.470571
0.462998
0.457038
0.452203
0.448264
0.444962
0.442201
0.439824
0.437809
0.436035
0.434513
0.433146
0.431966
0.430888
0.429951
0.429081
0.42833
0.427622
0.427008
0.426422
0.42592
0.425435
0.425013
0.424605
0.424262
0.423922
0.423634
0.423345
0.423113
0.422868
0.422666
0.42246
0.422295
0.422124
0.421999
0.421854
0.421738
0.42162
0.421543
0.421436
0.421359
0.42129
0.421242
0.421142
0.421109
0.421088
0.421067
0.421046
0.420993
0.421039
0.421105
0.421105
0.421223
0.42125
0.42125
0.421326
0.421392
0.42149
0.421625
0.42174
0.42184
0.421949
0.422094
0.422213
0.422389
0.422535
0.42273
0.422876
0.423103
0.423244
0.423519
0.42368
0.424002
0.424188
0.424568
0.424779
0.425218
0.425465
0.425978
0.426273
0.426891
0.427246
0.428032
0.428434
0.42976
0.429972
0.439055
4.62038
539.702
0.755469
0.643521
0.577253
0.536721
0.510299
0.492079
0.478879
0.469001
0.461347
0.45532
0.450432
0.446449
0.443109
0.440317
0.437914
0.435875
0.434081
0.432542
0.431159
0.429965
0.428874
0.427926
0.427047
0.426286
0.42557
0.424948
0.424355
0.423847
0.423356
0.42293
0.422516
0.422168
0.421824
0.421532
0.421239
0.421003
0.420756
0.42055
0.420341
0.420174
0.42
0.419873
0.419726
0.419608
0.419488
0.419409
0.4193
0.419222
0.41915
0.419101
0.419001
0.418966
0.418944
0.418921
0.4189
0.418844
0.418889
0.418951
0.418951
0.419067
0.419092
0.419092
0.419168
0.419233
0.419329
0.419462
0.419576
0.419676
0.419783
0.419927
0.420044
0.420219
0.420363
0.420557
0.420701
0.420927
0.421067
0.42134
0.421499
0.421819
0.422003
0.42238
0.422589
0.423024
0.423269
0.423779
0.424071
0.424684
0.425035
0.425814
0.426211
0.427532
0.427729
0.4371
4.78834
537.757
0.755517
0.643275
0.57662
0.53576
0.509088
0.490682
0.477339
0.467351
0.45961
0.453514
0.448569
0.444539
0.44116
0.438334
0.435902
0.433839
0.432023
0.430465
0.429066
0.427857
0.426753
0.425793
0.424904
0.424133
0.423408
0.422779
0.422178
0.421663
0.421166
0.420734
0.420315
0.419962
0.419613
0.419317
0.41902
0.418781
0.418529
0.418321
0.418109
0.417939
0.417762
0.417632
0.417483
0.417363
0.41724
0.41716
0.41705
0.416969
0.416896
0.416846
0.416745
0.416708
0.416684
0.41666
0.416637
0.41658
0.416623
0.41668
0.41668
0.416794
0.416818
0.416818
0.416894
0.416957
0.417051
0.417182
0.417295
0.417395
0.4175
0.417643
0.417758
0.417932
0.418074
0.418267
0.418409
0.418634
0.418772
0.419043
0.4192
0.419518
0.4197
0.420074
0.420281
0.420713
0.420956
0.421461
0.42175
0.422357
0.422705
0.423477
0.423869
0.425183
0.425366
0.435033
4.96012
535.042
0.755569
0.643021
0.575963
0.534758
0.507823
0.489218
0.475725
0.46562
0.457787
0.451618
0.446613
0.442533
0.439112
0.436251
0.433789
0.4317
0.429862
0.428284
0.426867
0.425643
0.424525
0.423553
0.422651
0.421871
0.421136
0.420499
0.41989
0.419368
0.418864
0.418426
0.418001
0.417644
0.41729
0.416989
0.416688
0.416445
0.41619
0.415978
0.415762
0.415589
0.415409
0.415277
0.415125
0.415003
0.414878
0.414795
0.414683
0.414601
0.414526
0.414474
0.414373
0.414334
0.414308
0.414282
0.414259
0.414199
0.414241
0.414294
0.414294
0.414405
0.414427
0.414427
0.414502
0.414564
0.414656
0.414785
0.414898
0.414997
0.4151
0.415242
0.415355
0.415527
0.415668
0.415859
0.416
0.416223
0.416359
0.416628
0.416784
0.417098
0.417279
0.417649
0.417855
0.418282
0.418523
0.419023
0.41931
0.419911
0.420256
0.42102
0.421406
0.422714
0.422882
0.432854
5.13377
531.525
0.755623
0.64276
0.575281
0.533714
0.506502
0.487689
0.474037
0.46381
0.45588
0.449632
0.444564
0.440432
0.436967
0.434069
0.431575
0.429459
0.427596
0.425997
0.424562
0.423321
0.422188
0.421203
0.42029
0.419499
0.418754
0.418108
0.417491
0.416961
0.416451
0.416007
0.415576
0.415213
0.414853
0.414548
0.414242
0.413995
0.413736
0.413521
0.413301
0.413125
0.412942
0.412807
0.412653
0.412528
0.4124
0.412315
0.412202
0.412118
0.41204
0.411987
0.411885
0.411844
0.411816
0.411789
0.411765
0.411702
0.411742
0.411791
0.41179
0.411898
0.41192
0.41192
0.411994
0.412054
0.412144
0.412271
0.412383
0.412482
0.412583
0.412723
0.412834
0.413005
0.413143
0.413333
0.413472
0.413694
0.413829
0.414095
0.414249
0.41456
0.414739
0.415105
0.415309
0.415732
0.415971
0.416466
0.41675
0.417345
0.417686
0.418443
0.418823
0.420124
0.420276
0.43056
5.30703
527.178
0.75568
0.642493
0.574575
0.532631
0.505128
0.486096
0.472277
0.46192
0.453888
0.447559
0.442423
0.438236
0.434724
0.431787
0.42926
0.427114
0.425226
0.423606
0.422151
0.420893
0.419744
0.418745
0.417819
0.417017
0.416262
0.415606
0.414981
0.414443
0.413925
0.413475
0.413037
0.412668
0.412303
0.411994
0.411683
0.411431
0.411168
0.410949
0.410726
0.410547
0.41036
0.410222
0.410065
0.409938
0.409807
0.40972
0.409605
0.409519
0.409438
0.409384
0.409281
0.409237
0.409208
0.409179
0.409154
0.409089
0.409127
0.409171
0.40917
0.409275
0.409295
0.409295
0.409369
0.409427
0.409515
0.40964
0.40975
0.409849
0.409947
0.410086
0.410196
0.410364
0.4105
0.410689
0.410826
0.411047
0.411179
0.411443
0.411595
0.411903
0.41208
0.412443
0.412644
0.413063
0.4133
0.41379
0.414071
0.414659
0.414996
0.415745
0.416119
0.417412
0.41755
0.428147
5.4773
521.976
0.755741
0.64222
0.573847
0.531508
0.503701
0.484439
0.470444
0.459952
0.451813
0.445396
0.440191
0.435945
0.432385
0.429406
0.426843
0.424668
0.422753
0.421109
0.419633
0.418357
0.417192
0.416179
0.41524
0.414426
0.41366
0.412994
0.41236
0.411814
0.411288
0.41083
0.410386
0.410011
0.40964
0.409326
0.40901
0.408753
0.408486
0.408263
0.408036
0.407853
0.407663
0.407522
0.407362
0.407233
0.407099
0.407009
0.406892
0.406804
0.406721
0.406665
0.406561
0.406515
0.406483
0.406453
0.406427
0.406359
0.406396
0.406435
0.406432
0.406535
0.406554
0.406554
0.406626
0.406682
0.406769
0.406891
0.406999
0.407099
0.407194
0.407331
0.407439
0.407605
0.40774
0.407927
0.408061
0.408281
0.408411
0.408673
0.408822
0.409128
0.409302
0.409661
0.40986
0.410275
0.410509
0.410993
0.411271
0.411853
0.412185
0.412926
0.413294
0.414579
0.414703
0.425614
5.64167
515.897
0.755804
0.641942
0.573098
0.530348
0.502223
0.482719
0.468541
0.457906
0.449653
0.443147
0.437867
0.43356
0.429948
0.426927
0.424327
0.422119
0.420176
0.418508
0.417011
0.415715
0.414533
0.413505
0.412552
0.411725
0.410948
0.410272
0.409628
0.409073
0.408539
0.408074
0.407623
0.407242
0.406865
0.406545
0.406223
0.405962
0.40569
0.405463
0.405232
0.405046
0.404852
0.404707
0.404544
0.404412
0.404275
0.404183
0.404063
0.403973
0.403887
0.403831
0.403725
0.403676
0.403643
0.40361
0.403583
0.403513
0.403547
0.403582
0.403578
0.403678
0.403695
0.403695
0.403766
0.40382
0.403905
0.404024
0.404131
0.404231
0.404323
0.404459
0.404564
0.404729
0.404861
0.405046
0.405179
0.405396
0.405525
0.405783
0.405931
0.406233
0.406405
0.40676
0.406957
0.407367
0.407598
0.408077
0.408351
0.408926
0.409255
0.409987
0.410349
0.411625
0.411734
0.422957
5.79692
508.915
0.755871
0.641659
0.572328
0.529151
0.500694
0.480939
0.466568
0.455783
0.447412
0.44081
0.435453
0.431081
0.427416
0.424349
0.42171
0.419468
0.417497
0.415802
0.414283
0.412967
0.411767
0.410723
0.409755
0.408915
0.408126
0.407439
0.406785
0.406221
0.405679
0.405206
0.404748
0.40436
0.403976
0.40365
0.403323
0.403057
0.40278
0.402549
0.402314
0.402124
0.401926
0.401778
0.401611
0.401477
0.401336
0.401241
0.401119
0.401027
0.400938
0.40088
0.400774
0.400722
0.400686
0.400652
0.400623
0.400551
0.400583
0.400612
0.400608
0.400704
0.400719
0.400719
0.40079
0.400841
0.400924
0.40104
0.401146
0.401245
0.401335
0.401469
0.401572
0.401734
0.401864
0.402048
0.402178
0.402393
0.40252
0.402775
0.402921
0.403219
0.403389
0.40374
0.403935
0.404339
0.404568
0.405041
0.405312
0.40588
0.406204
0.406927
0.407283
0.40855
0.408645
0.420172
5.93957
501.003
0.755941
0.641373
0.57154
0.527919
0.499116
0.479097
0.464525
0.453584
0.445089
0.438387
0.432949
0.42851
0.424789
0.421674
0.418994
0.416717
0.414715
0.412994
0.41145
0.410114
0.408895
0.407833
0.406851
0.405997
0.405195
0.404497
0.403833
0.403259
0.402707
0.402227
0.401761
0.401366
0.400976
0.400644
0.400311
0.400039
0.399757
0.399522
0.399282
0.399088
0.398886
0.398734
0.398564
0.398427
0.398283
0.398185
0.39806
0.397966
0.397874
0.397814
0.397706
0.397652
0.397614
0.397578
0.397548
0.397474
0.397502
0.397527
0.397521
0.397614
0.397627
0.397627
0.397696
0.397745
0.397826
0.39794
0.398044
0.398142
0.398229
0.398361
0.398462
0.398622
0.398749
0.398932
0.399059
0.399273
0.399397
0.39965
0.399793
0.400088
0.400255
0.400601
0.400794
0.401193
0.401419
0.401886
0.402153
0.402714
0.403033
0.403747
0.404096
0.405354
0.405435
0.417257
6.06592
492.129
0.756014
0.641085
0.570733
0.526653
0.49749
0.477198
0.462415
0.45131
0.442686
0.43588
0.430356
0.425847
0.422067
0.418902
0.416179
0.413866
0.411831
0.410082
0.408513
0.407155
0.405917
0.404838
0.403839
0.402971
0.402156
0.401446
0.400771
0.400187
0.399626
0.399137
0.398663
0.398261
0.397863
0.397525
0.397186
0.396909
0.396622
0.396382
0.396137
0.395939
0.395733
0.395577
0.395403
0.395263
0.395116
0.395014
0.394887
0.39479
0.394695
0.394633
0.394524
0.394467
0.394426
0.394388
0.394357
0.394281
0.394306
0.394327
0.394319
0.394408
0.394419
0.394419
0.394487
0.394533
0.394612
0.394722
0.394825
0.394923
0.395007
0.395137
0.395236
0.395394
0.395518
0.395698
0.395823
0.396034
0.396157
0.396406
0.396547
0.396838
0.397003
0.397344
0.397534
0.397928
0.398151
0.398612
0.398876
0.399428
0.399743
0.400448
0.40079
0.402037
0.402105
0.414208
6.17212
482.26
0.75609
0.640794
0.569911
0.525355
0.495818
0.475241
0.460239
0.448963
0.440203
0.433289
0.427676
0.423093
0.419251
0.416035
0.413267
0.410915
0.408847
0.407068
0.405474
0.404093
0.402833
0.401736
0.400721
0.399838
0.399009
0.398287
0.3976
0.397006
0.396435
0.395938
0.395455
0.395045
0.39464
0.394296
0.39395
0.393667
0.393375
0.39313
0.39288
0.392677
0.392466
0.392306
0.392129
0.391985
0.391835
0.39173
0.3916
0.391501
0.391403
0.391338
0.391228
0.391168
0.391124
0.391084
0.391051
0.390973
0.390996
0.391012
0.391002
0.391087
0.391096
0.391096
0.391162
0.391205
0.391282
0.39139
0.39149
0.391588
0.391668
0.391796
0.391893
0.392048
0.392169
0.392348
0.39247
0.392679
0.3928
0.393045
0.393184
0.393471
0.393633
0.393969
0.394157
0.394546
0.394765
0.39522
0.39548
0.396024
0.396334
0.397029
0.397364
0.3986
0.398656
0.411021
6.25429
471.358
0.75617
0.640502
0.569073
0.524026
0.494102
0.473228
0.457998
0.446544
0.437643
0.430615
0.42491
0.42025
0.416344
0.413073
0.410258
0.407866
0.405763
0.403954
0.402332
0.400927
0.399646
0.39853
0.397497
0.396599
0.395756
0.39502
0.394321
0.393716
0.393135
0.392629
0.392137
0.391719
0.391307
0.390956
0.390604
0.390314
0.390016
0.389766
0.389511
0.389304
0.389088
0.388924
0.388743
0.388596
0.388441
0.388333
0.388201
0.388098
0.387997
0.38793
0.387819
0.387755
0.387709
0.387666
0.387632
0.387552
0.387571
0.387582
0.38757
0.387651
0.387659
0.387658
0.387722
0.387762
0.387838
0.387942
0.38804
0.388137
0.388214
0.38834
0.388434
0.388587
0.388706
0.388882
0.389001
0.389208
0.389327
0.389568
0.389705
0.389987
0.390147
0.390478
0.390663
0.391046
0.391262
0.39171
0.391966
0.392502
0.392807
0.393492
0.39382
0.395044
0.395088
0.407694
6.30855
459.389
0.756252
0.640209
0.568222
0.522669
0.492344
0.471161
0.455694
0.444055
0.435007
0.427861
0.422058
0.417319
0.413345
0.410018
0.407155
0.404721
0.40258
0.40074
0.39909
0.397659
0.396357
0.39522
0.394169
0.393254
0.392396
0.391648
0.390936
0.39032
0.389728
0.389212
0.388712
0.388285
0.387865
0.387507
0.387147
0.386852
0.386548
0.386292
0.386032
0.38582
0.385599
0.385431
0.385245
0.385095
0.384936
0.384825
0.384689
0.384584
0.384479
0.38441
0.384297
0.38423
0.384181
0.384136
0.3841
0.384018
0.384033
0.38404
0.384025
0.384102
0.384108
0.384106
0.384169
0.384206
0.384279
0.38438
0.384476
0.384572
0.384646
0.38477
0.384861
0.385011
0.385127
0.385301
0.385418
0.385622
0.385738
0.385976
0.38611
0.386387
0.386545
0.38687
0.387053
0.38743
0.387643
0.388084
0.388336
0.388863
0.389163
0.389838
0.390159
0.391369
0.391402
0.404221
6.33126
446.317
0.756338
0.639917
0.567359
0.521285
0.490545
0.469043
0.453329
0.441497
0.432297
0.425027
0.419124
0.414301
0.410257
0.406871
0.403957
0.401479
0.399301
0.397427
0.395748
0.394291
0.392965