/*--------------------------------*- C++ -*----------------------------------*\
| =========                 |                                                 |
| \\      /  F ield         | OpenFOAM: The Open Source CFD Toolbox           |
|  \\    /   O peration     | Version:  v2012                                 |
|   \\  /    A nd           | Website:  www.openfoam.com                      |
|    \\/     M anipulation  |                                                 |
\*---------------------------------------------------------------------------*/
FoamFile
{
    version     2.0;
    format      ascii;
    class       volVectorField;
    location    "29";
    object      wallShearStress;
}
// * * * * * * * * * * * * * * * * * * * * * * * * * * * * * * * * * * * * * //

dimensions      [0 2 -2 0 0 0 0];


internalField   uniform (0 0 0);

boundaryField
{
    inlet
    {
        type            calculated;
        value           uniform (0 0 0);
    }
    outlet
    {
        type            calculated;
        value           uniform (0 0 0);
    }
    topWall
    {
        type            calculated;
        value           nonuniform List<vector> 
545
(
(5.99138e-08 -4.21614e-08 0)
(5.99212e-08 -1.18024e-07 0)
(5.98566e-08 -1.96866e-07 0)
(5.9781e-08 -2.73389e-07 0)
(5.96998e-08 -3.46625e-07 0)
(5.96054e-08 -4.17515e-07 0)
(5.94987e-08 -4.86663e-07 0)
(5.93802e-08 -5.54036e-07 0)
(5.92507e-08 -6.19486e-07 0)
(5.91113e-08 -6.83009e-07 0)
(5.8963e-08 -7.4469e-07 0)
(5.88066e-08 -8.04598e-07 0)
(5.86429e-08 -8.62776e-07 0)
(5.84727e-08 -9.19259e-07 0)
(5.82968e-08 -9.74086e-07 0)
(5.81158e-08 -1.0273e-06 0)
(5.79304e-08 -1.07895e-06 0)
(5.77411e-08 -1.12908e-06 0)
(5.75486e-08 -1.17772e-06 0)
(5.73533e-08 -1.22492e-06 0)
(5.71558e-08 -1.27072e-06 0)
(5.69564e-08 -1.31516e-06 0)
(5.67557e-08 -1.35827e-06 0)
(5.6554e-08 -1.4001e-06 0)
(5.63516e-08 -1.44068e-06 0)
(5.61489e-08 -1.48005e-06 0)
(5.59462e-08 -1.51824e-06 0)
(5.57439e-08 -1.55529e-06 0)
(5.5542e-08 -1.59123e-06 0)
(5.5341e-08 -1.62609e-06 0)
(5.5141e-08 -1.65992e-06 0)
(5.49422e-08 -1.69273e-06 0)
(5.47448e-08 -1.72457e-06 0)
(5.4549e-08 -1.75545e-06 0)
(5.43549e-08 -1.78541e-06 0)
(5.41627e-08 -1.81448e-06 0)
(5.39724e-08 -1.84268e-06 0)
(5.37842e-08 -1.87004e-06 0)
(5.35982e-08 -1.89659e-06 0)
(5.34145e-08 -1.92235e-06 0)
(5.32332e-08 -1.94734e-06 0)
(5.30543e-08 -1.9716e-06 0)
(5.28778e-08 -1.99513e-06 0)
(5.27039e-08 -2.01797e-06 0)
(5.25325e-08 -2.04013e-06 0)
(5.23637e-08 -2.06164e-06 0)
(5.21975e-08 -2.08251e-06 0)
(5.2034e-08 -2.10278e-06 0)
(5.18732e-08 -2.12244e-06 0)
(5.1715e-08 -2.14153e-06 0)
(5.15594e-08 -2.16005e-06 0)
(5.14066e-08 -2.17804e-06 0)
(5.12563e-08 -2.1955e-06 0)
(5.11088e-08 -2.21245e-06 0)
(5.09638e-08 -2.2289e-06 0)
(5.08215e-08 -2.24488e-06 0)
(5.06818e-08 -2.26039e-06 0)
(5.05447e-08 -2.27545e-06 0)
(5.04101e-08 -2.29008e-06 0)
(5.0278e-08 -2.30428e-06 0)
(5.01484e-08 -2.31807e-06 0)
(5.00213e-08 -2.33147e-06 0)
(4.98966e-08 -2.34447e-06 0)
(4.97743e-08 -2.35711e-06 0)
(4.96543e-08 -2.36938e-06 0)
(4.95367e-08 -2.3813e-06 0)
(4.94213e-08 -2.39287e-06 0)
(4.93082e-08 -2.40412e-06 0)
(4.91973e-08 -2.41504e-06 0)
(4.90884e-08 -2.42565e-06 0)
(4.89824e-08 -2.43597e-06 0)
(4.88749e-08 -2.44597e-06 0)
(4.87717e-08 -2.45558e-06 0)
(4.86771e-08 -2.46493e-06 0)
(4.8583e-08 -2.47415e-06 0)
(4.84893e-08 -2.48331e-06 0)
(4.83956e-08 -2.49244e-06 0)
(4.8302e-08 -2.50152e-06 0)
(4.82086e-08 -2.51053e-06 0)
(4.81152e-08 -2.51948e-06 0)
(4.8022e-08 -2.52837e-06 0)
(4.79289e-08 -2.5372e-06 0)
(4.78358e-08 -2.54598e-06 0)
(4.77429e-08 -2.5547e-06 0)
(4.76502e-08 -2.56336e-06 0)
(4.75575e-08 -2.57197e-06 0)
(4.7465e-08 -2.58052e-06 0)
(4.73726e-08 -2.58901e-06 0)
(4.72803e-08 -2.59745e-06 0)
(4.71882e-08 -2.60584e-06 0)
(4.70962e-08 -2.61417e-06 0)
(4.70043e-08 -2.62244e-06 0)
(4.6913e-08 -2.63067e-06 0)
(4.682e-08 -2.6388e-06 0)
(4.67346e-08 -2.647e-06 0)
(4.66182e-08 -2.65495e-06 0)
(4.64985e-08 -2.66216e-06 0)
(4.64196e-08 -2.66889e-06 0)
(4.63452e-08 -2.67536e-06 0)
(4.62716e-08 -2.68176e-06 0)
(4.6198e-08 -2.68828e-06 0)
(4.6124e-08 -2.69483e-06 0)
(4.60498e-08 -2.70137e-06 0)
(4.59752e-08 -2.70789e-06 0)
(4.59003e-08 -2.71443e-06 0)
(4.5825e-08 -2.72097e-06 0)
(4.57494e-08 -2.72751e-06 0)
(4.56735e-08 -2.73407e-06 0)
(4.55972e-08 -2.74062e-06 0)
(4.55206e-08 -2.74718e-06 0)
(4.54437e-08 -2.75374e-06 0)
(4.53664e-08 -2.76031e-06 0)
(4.52888e-08 -2.76688e-06 0)
(4.52108e-08 -2.77346e-06 0)
(4.51325e-08 -2.78004e-06 0)
(4.50539e-08 -2.78663e-06 0)
(4.49749e-08 -2.79321e-06 0)
(4.48956e-08 -2.79981e-06 0)
(4.48159e-08 -2.8064e-06 0)
(4.47359e-08 -2.813e-06 0)
(4.46555e-08 -2.81961e-06 0)
(4.45748e-08 -2.82622e-06 0)
(4.44937e-08 -2.83283e-06 0)
(4.44123e-08 -2.83944e-06 0)
(4.43305e-08 -2.84606e-06 0)
(4.42484e-08 -2.85268e-06 0)
(4.41659e-08 -2.85931e-06 0)
(4.40831e-08 -2.86593e-06 0)
(4.39999e-08 -2.87257e-06 0)
(4.39164e-08 -2.8792e-06 0)
(4.38325e-08 -2.88584e-06 0)
(4.37483e-08 -2.89248e-06 0)
(4.36637e-08 -2.89912e-06 0)
(4.35788e-08 -2.90577e-06 0)
(4.34935e-08 -2.91241e-06 0)
(4.34078e-08 -2.91907e-06 0)
(4.33218e-08 -2.92572e-06 0)
(4.32354e-08 -2.93237e-06 0)
(4.31487e-08 -2.93903e-06 0)
(4.30616e-08 -2.94569e-06 0)
(4.29741e-08 -2.95236e-06 0)
(4.28863e-08 -2.95902e-06 0)
(4.27981e-08 -2.96569e-06 0)
(4.27096e-08 -2.97236e-06 0)
(4.26206e-08 -2.97903e-06 0)
(4.25314e-08 -2.9857e-06 0)
(4.24417e-08 -2.99237e-06 0)
(4.23518e-08 -2.99905e-06 0)
(4.22614e-08 -3.00573e-06 0)
(4.21707e-08 -3.01241e-06 0)
(4.20796e-08 -3.01909e-06 0)
(4.19881e-08 -3.02577e-06 0)
(4.18963e-08 -3.03245e-06 0)
(4.18041e-08 -3.03913e-06 0)
(4.17115e-08 -3.04582e-06 0)
(4.16186e-08 -3.0525e-06 0)
(4.15253e-08 -3.05919e-06 0)
(4.14316e-08 -3.06588e-06 0)
(4.13376e-08 -3.07256e-06 0)
(4.12432e-08 -3.07925e-06 0)
(4.11484e-08 -3.08594e-06 0)
(4.10533e-08 -3.09263e-06 0)
(4.09578e-08 -3.09932e-06 0)
(4.08619e-08 -3.10601e-06 0)
(4.07656e-08 -3.11269e-06 0)
(4.0669e-08 -3.11938e-06 0)
(4.0572e-08 -3.12607e-06 0)
(4.04746e-08 -3.13276e-06 0)
(4.03769e-08 -3.13945e-06 0)
(4.02787e-08 -3.14614e-06 0)
(4.01803e-08 -3.15282e-06 0)
(4.00814e-08 -3.15951e-06 0)
(3.99821e-08 -3.16619e-06 0)
(3.98825e-08 -3.17288e-06 0)
(3.97826e-08 -3.17956e-06 0)
(3.96822e-08 -3.18625e-06 0)
(3.95815e-08 -3.19293e-06 0)
(3.94804e-08 -3.19961e-06 0)
(3.93789e-08 -3.20629e-06 0)
(3.9277e-08 -3.21296e-06 0)
(3.91748e-08 -3.21964e-06 0)
(3.90722e-08 -3.22631e-06 0)
(3.89692e-08 -3.23298e-06 0)
(3.88659e-08 -3.23965e-06 0)
(3.87622e-08 -3.24632e-06 0)
(3.86581e-08 -3.25299e-06 0)
(3.85536e-08 -3.25965e-06 0)
(3.84487e-08 -3.26631e-06 0)
(3.83435e-08 -3.27297e-06 0)
(3.82379e-08 -3.27963e-06 0)
(3.8132e-08 -3.28628e-06 0)
(3.80256e-08 -3.29293e-06 0)
(3.79189e-08 -3.29958e-06 0)
(3.78118e-08 -3.30622e-06 0)
(3.77044e-08 -3.31286e-06 0)
(3.75966e-08 -3.3195e-06 0)
(3.74883e-08 -3.32614e-06 0)
(3.73798e-08 -3.33277e-06 0)
(3.72708e-08 -3.33939e-06 0)
(3.71615e-08 -3.34602e-06 0)
(3.70518e-08 -3.35264e-06 0)
(3.69418e-08 -3.35925e-06 0)
(3.68313e-08 -3.36586e-06 0)
(3.67205e-08 -3.37247e-06 0)
(3.66094e-08 -3.37907e-06 0)
(3.64978e-08 -3.38567e-06 0)
(3.63859e-08 -3.39226e-06 0)
(3.62737e-08 -3.39885e-06 0)
(3.6161e-08 -3.40543e-06 0)
(3.6048e-08 -3.41201e-06 0)
(3.59346e-08 -3.41859e-06 0)
(3.58209e-08 -3.42515e-06 0)
(3.57068e-08 -3.43172e-06 0)
(3.55923e-08 -3.43827e-06 0)
(3.54775e-08 -3.44483e-06 0)
(3.53623e-08 -3.45137e-06 0)
(3.52467e-08 -3.45791e-06 0)
(3.51308e-08 -3.46444e-06 0)
(3.50145e-08 -3.47097e-06 0)
(3.48979e-08 -3.47749e-06 0)
(3.47809e-08 -3.48401e-06 0)
(3.46636e-08 -3.49051e-06 0)
(3.45458e-08 -3.49702e-06 0)
(3.44278e-08 -3.50351e-06 0)
(3.43093e-08 -3.51e-06 0)
(3.41906e-08 -3.51648e-06 0)
(3.40714e-08 -3.52295e-06 0)
(3.39519e-08 -3.52941e-06 0)
(3.38321e-08 -3.53587e-06 0)
(3.37119e-08 -3.54232e-06 0)
(3.35913e-08 -3.54876e-06 0)
(3.34705e-08 -3.5552e-06 0)
(3.33492e-08 -3.56162e-06 0)
(3.32276e-08 -3.56804e-06 0)
(3.31057e-08 -3.57445e-06 0)
(3.29834e-08 -3.58085e-06 0)
(3.28608e-08 -3.58724e-06 0)
(3.27378e-08 -3.59363e-06 0)
(3.26145e-08 -3.6e-06 0)
(3.24909e-08 -3.60637e-06 0)
(3.23669e-08 -3.61272e-06 0)
(3.22426e-08 -3.61907e-06 0)
(3.2118e-08 -3.62541e-06 0)
(3.1993e-08 -3.63173e-06 0)
(3.18677e-08 -3.63805e-06 0)
(3.1742e-08 -3.64436e-06 0)
(3.1616e-08 -3.65065e-06 0)
(3.14897e-08 -3.65694e-06 0)
(3.13631e-08 -3.66322e-06 0)
(3.12362e-08 -3.66948e-06 0)
(3.11089e-08 -3.67574e-06 0)
(3.09813e-08 -3.68198e-06 0)
(3.08534e-08 -3.68822e-06 0)
(3.07252e-08 -3.69444e-06 0)
(3.05966e-08 -3.70065e-06 0)
(3.04678e-08 -3.70685e-06 0)
(3.03386e-08 -3.71303e-06 0)
(3.02091e-08 -3.71921e-06 0)
(3.00793e-08 -3.72537e-06 0)
(2.99492e-08 -3.73153e-06 0)
(2.98188e-08 -3.73766e-06 0)
(2.96881e-08 -3.74379e-06 0)
(2.95571e-08 -3.7499e-06 0)
(2.94258e-08 -3.75601e-06 0)
(2.92942e-08 -3.76209e-06 0)
(2.91625e-08 -3.76818e-06 0)
(2.90296e-08 -3.77421e-06 0)
(2.89017e-08 -3.78035e-06 0)
(2.87563e-08 -3.78628e-06 0)
(2.86032e-08 -3.79188e-06 0)
(2.84769e-08 -3.79744e-06 0)
(2.836e-08 -3.80281e-06 0)
(2.82416e-08 -3.80815e-06 0)
(2.81224e-08 -3.81361e-06 0)
(2.80019e-08 -3.81913e-06 0)
(2.78801e-08 -3.82467e-06 0)
(2.77569e-08 -3.83024e-06 0)
(2.76323e-08 -3.83584e-06 0)
(2.75063e-08 -3.84148e-06 0)
(2.73789e-08 -3.84716e-06 0)
(2.72501e-08 -3.85287e-06 0)
(2.71199e-08 -3.85861e-06 0)
(2.69882e-08 -3.86439e-06 0)
(2.68551e-08 -3.8702e-06 0)
(2.67206e-08 -3.87605e-06 0)
(2.65847e-08 -3.88193e-06 0)
(2.64472e-08 -3.88785e-06 0)
(2.63083e-08 -3.89379e-06 0)
(2.61679e-08 -3.89977e-06 0)
(2.6026e-08 -3.90579e-06 0)
(2.58826e-08 -3.91183e-06 0)
(2.57378e-08 -3.91791e-06 0)
(2.55913e-08 -3.92402e-06 0)
(2.54434e-08 -3.93016e-06 0)
(2.52939e-08 -3.93633e-06 0)
(2.51429e-08 -3.94253e-06 0)
(2.49903e-08 -3.94875e-06 0)
(2.48361e-08 -3.95501e-06 0)
(2.46804e-08 -3.9613e-06 0)
(2.4523e-08 -3.96762e-06 0)
(2.43641e-08 -3.97396e-06 0)
(2.42036e-08 -3.98033e-06 0)
(2.40415e-08 -3.98672e-06 0)
(2.38777e-08 -3.99314e-06 0)
(2.37124e-08 -3.99959e-06 0)
(2.35454e-08 -4.00606e-06 0)
(2.33768e-08 -4.01256e-06 0)
(2.32065e-08 -4.01908e-06 0)
(2.30346e-08 -4.02562e-06 0)
(2.2861e-08 -4.03218e-06 0)
(2.26857e-08 -4.03876e-06 0)
(2.25088e-08 -4.04536e-06 0)
(2.23303e-08 -4.05199e-06 0)
(2.215e-08 -4.05863e-06 0)
(2.19681e-08 -4.06528e-06 0)
(2.17844e-08 -4.07196e-06 0)
(2.15991e-08 -4.07865e-06 0)
(2.14121e-08 -4.08535e-06 0)
(2.12234e-08 -4.09207e-06 0)
(2.10331e-08 -4.0988e-06 0)
(2.0841e-08 -4.10554e-06 0)
(2.06472e-08 -4.1123e-06 0)
(2.04517e-08 -4.11906e-06 0)
(2.02545e-08 -4.12583e-06 0)
(2.00557e-08 -4.13261e-06 0)
(1.98551e-08 -4.13939e-06 0)
(1.96528e-08 -4.14617e-06 0)
(1.94489e-08 -4.15297e-06 0)
(1.92433e-08 -4.15976e-06 0)
(1.9036e-08 -4.16655e-06 0)
(1.88269e-08 -4.17334e-06 0)
(1.86163e-08 -4.18013e-06 0)
(1.84039e-08 -4.18691e-06 0)
(1.819e-08 -4.19369e-06 0)
(1.79743e-08 -4.20046e-06 0)
(1.7757e-08 -4.20723e-06 0)
(1.75381e-08 -4.21398e-06 0)
(1.73175e-08 -4.22073e-06 0)
(1.70954e-08 -4.22745e-06 0)
(1.68716e-08 -4.23417e-06 0)
(1.66463e-08 -4.24086e-06 0)
(1.64194e-08 -4.24754e-06 0)
(1.61909e-08 -4.2542e-06 0)
(1.59609e-08 -4.26084e-06 0)
(1.57293e-08 -4.26744e-06 0)
(1.54963e-08 -4.27403e-06 0)
(1.52617e-08 -4.28058e-06 0)
(1.50257e-08 -4.28711e-06 0)
(1.47882e-08 -4.2936e-06 0)
(1.45494e-08 -4.30006e-06 0)
(1.43091e-08 -4.30648e-06 0)
(1.40674e-08 -4.31287e-06 0)
(1.38244e-08 -4.31921e-06 0)
(1.35801e-08 -4.32551e-06 0)
(1.33345e-08 -4.33176e-06 0)
(1.30876e-08 -4.33797e-06 0)
(1.28395e-08 -4.34412e-06 0)
(1.25902e-08 -4.35022e-06 0)
(1.23397e-08 -4.35627e-06 0)
(1.20881e-08 -4.36226e-06 0)
(1.18354e-08 -4.36818e-06 0)
(1.15816e-08 -4.37405e-06 0)
(1.13268e-08 -4.37985e-06 0)
(1.10711e-08 -4.38558e-06 0)
(1.08144e-08 -4.39124e-06 0)
(1.05569e-08 -4.39683e-06 0)
(1.02985e-08 -4.40234e-06 0)
(1.00393e-08 -4.40778e-06 0)
(9.77932e-09 -4.41313e-06 0)
(9.51869e-09 -4.4184e-06 0)
(9.25739e-09 -4.42358e-06 0)
(8.99552e-09 -4.42867e-06 0)
(8.7331e-09 -4.43367e-06 0)
(8.47021e-09 -4.43857e-06 0)
(8.20689e-09 -4.44337e-06 0)
(7.94321e-09 -4.44807e-06 0)
(7.67922e-09 -4.45267e-06 0)
(7.41499e-09 -4.45716e-06 0)
(7.15058e-09 -4.46153e-06 0)
(6.88607e-09 -4.4658e-06 0)
(6.62149e-09 -4.46994e-06 0)
(6.35696e-09 -4.47397e-06 0)
(6.0925e-09 -4.47787e-06 0)
(5.82821e-09 -4.48166e-06 0)
(5.56414e-09 -4.4853e-06 0)
(5.3004e-09 -4.48882e-06 0)
(5.03702e-09 -4.4922e-06 0)
(4.77412e-09 -4.49545e-06 0)
(4.51174e-09 -4.49855e-06 0)
(4.24998e-09 -4.50151e-06 0)
(3.98891e-09 -4.50431e-06 0)
(3.72862e-09 -4.50698e-06 0)
(3.46918e-09 -4.50948e-06 0)
(3.21069e-09 -4.51184e-06 0)
(2.95322e-09 -4.51402e-06 0)
(2.69685e-09 -4.51605e-06 0)
(2.44168e-09 -4.51791e-06 0)
(2.18779e-09 -4.51961e-06 0)
(1.93527e-09 -4.52113e-06 0)
(1.6842e-09 -4.52248e-06 0)
(1.43468e-09 -4.52365e-06 0)
(1.1868e-09 -4.52465e-06 0)
(9.40633e-10 -4.52545e-06 0)
(6.96288e-10 -4.52608e-06 0)
(4.53848e-10 -4.52651e-06 0)
(2.13408e-10 -4.52676e-06 0)
(-2.49406e-11 -4.52681e-06 0)
(-2.61106e-10 -4.52668e-06 0)
(-4.94994e-10 -4.52633e-06 0)
(-7.26513e-10 -4.5258e-06 0)
(-9.55566e-10 -4.52505e-06 0)
(-1.18207e-09 -4.52411e-06 0)
(-1.40591e-09 -4.52295e-06 0)
(-1.62702e-09 -4.5216e-06 0)
(-1.84528e-09 -4.52002e-06 0)
(-2.06062e-09 -4.51824e-06 0)
(-2.27293e-09 -4.51624e-06 0)
(-2.48214e-09 -4.51403e-06 0)
(-2.68814e-09 -4.51159e-06 0)
(-2.89085e-09 -4.50895e-06 0)
(-3.09017e-09 -4.50608e-06 0)
(-3.28604e-09 -4.503e-06 0)
(-3.47834e-09 -4.49968e-06 0)
(-3.66703e-09 -4.49615e-06 0)
(-3.85198e-09 -4.49238e-06 0)
(-4.03316e-09 -4.48841e-06 0)
(-4.21047e-09 -4.48419e-06 0)
(-4.38385e-09 -4.47977e-06 0)
(-4.55321e-09 -4.4751e-06 0)
(-4.71852e-09 -4.47023e-06 0)
(-4.87968e-09 -4.46511e-06 0)
(-5.03667e-09 -4.45979e-06 0)
(-5.18939e-09 -4.45422e-06 0)
(-5.33783e-09 -4.44844e-06 0)
(-5.48189e-09 -4.44242e-06 0)
(-5.62159e-09 -4.4362e-06 0)
(-5.75681e-09 -4.42973e-06 0)
(-5.88757e-09 -4.42307e-06 0)
(-6.01378e-09 -4.41616e-06 0)
(-6.13546e-09 -4.40905e-06 0)
(-6.2525e-09 -4.4017e-06 0)
(-6.36494e-09 -4.39416e-06 0)
(-6.47266e-09 -4.38639e-06 0)
(-6.57571e-09 -4.37842e-06 0)
(-6.67396e-09 -4.37022e-06 0)
(-6.76744e-09 -4.36183e-06 0)
(-6.8561e-09 -4.35321e-06 0)
(-6.93966e-09 -4.34445e-06 0)
(-7.01974e-09 -4.33531e-06 0)
(-7.09089e-09 -4.32617e-06 0)
(-7.15756e-09 -4.31589e-06 0)
(-7.22965e-09 -4.30411e-06 0)
(-7.29914e-09 -4.29227e-06 0)
(-7.36124e-09 -4.28045e-06 0)
(-7.41627e-09 -4.26846e-06 0)
(-7.46441e-09 -4.25641e-06 0)
(-7.50574e-09 -4.24425e-06 0)
(-7.54058e-09 -4.23207e-06 0)
(-7.56904e-09 -4.21981e-06 0)
(-7.59148e-09 -4.20754e-06 0)
(-7.60801e-09 -4.1952e-06 0)
(-7.61899e-09 -4.18288e-06 0)
(-7.62449e-09 -4.17051e-06 0)
(-7.62488e-09 -4.15816e-06 0)
(-7.62023e-09 -4.14579e-06 0)
(-7.61087e-09 -4.13347e-06 0)
(-7.59687e-09 -4.12113e-06 0)
(-7.57854e-09 -4.10885e-06 0)
(-7.55594e-09 -4.09657e-06 0)
(-7.52936e-09 -4.08436e-06 0)
(-7.49884e-09 -4.07216e-06 0)
(-7.46466e-09 -4.06006e-06 0)
(-7.42684e-09 -4.04797e-06 0)
(-7.38566e-09 -4.03599e-06 0)
(-7.34111e-09 -4.02404e-06 0)
(-7.29345e-09 -4.0122e-06 0)
(-7.24268e-09 -4.00041e-06 0)
(-7.18904e-09 -3.98873e-06 0)
(-7.13251e-09 -3.97711e-06 0)
(-7.07333e-09 -3.96562e-06 0)
(-7.01146e-09 -3.95419e-06 0)
(-6.94713e-09 -3.9429e-06 0)
(-6.88031e-09 -3.93168e-06 0)
(-6.81121e-09 -3.9206e-06 0)
(-6.73978e-09 -3.90961e-06 0)
(-6.66623e-09 -3.89877e-06 0)
(-6.59051e-09 -3.88801e-06 0)
(-6.51282e-09 -3.87741e-06 0)
(-6.4331e-09 -3.86691e-06 0)
(-6.35155e-09 -3.85657e-06 0)
(-6.2681e-09 -3.84633e-06 0)
(-6.18293e-09 -3.83626e-06 0)
(-6.09599e-09 -3.82629e-06 0)
(-6.00744e-09 -3.8165e-06 0)
(-5.91723e-09 -3.80683e-06 0)
(-5.82551e-09 -3.79733e-06 0)
(-5.73223e-09 -3.78795e-06 0)
(-5.63752e-09 -3.77876e-06 0)
(-5.54134e-09 -3.76969e-06 0)
(-5.44381e-09 -3.7608e-06 0)
(-5.34489e-09 -3.75205e-06 0)
(-5.24471e-09 -3.74348e-06 0)
(-5.1432e-09 -3.73505e-06 0)
(-5.04049e-09 -3.72682e-06 0)
(-4.93652e-09 -3.71872e-06 0)
(-4.83141e-09 -3.71082e-06 0)
(-4.72511e-09 -3.70306e-06 0)
(-4.61771e-09 -3.69551e-06 0)
(-4.50919e-09 -3.6881e-06 0)
(-4.39962e-09 -3.68089e-06 0)
(-4.28897e-09 -3.67384e-06 0)
(-4.17734e-09 -3.66699e-06 0)
(-4.06468e-09 -3.6603e-06 0)
(-3.95107e-09 -3.65382e-06 0)
(-3.8365e-09 -3.6475e-06 0)
(-3.72102e-09 -3.64139e-06 0)
(-3.60463e-09 -3.63544e-06 0)
(-3.48739e-09 -3.6297e-06 0)
(-3.36928e-09 -3.62413e-06 0)
(-3.25037e-09 -3.61878e-06 0)
(-3.13065e-09 -3.61359e-06 0)
(-3.01017e-09 -3.60863e-06 0)
(-2.88892e-09 -3.60383e-06 0)
(-2.76696e-09 -3.59926e-06 0)
(-2.64428e-09 -3.59486e-06 0)
(-2.52094e-09 -3.59068e-06 0)
(-2.39692e-09 -3.58668e-06 0)
(-2.27228e-09 -3.5829e-06 0)
(-2.14701e-09 -3.57931e-06 0)
(-2.02115e-09 -3.57593e-06 0)
(-1.8947e-09 -3.57275e-06 0)
(-1.76771e-09 -3.56978e-06 0)
(-1.64019e-09 -3.56701e-06 0)
(-1.51217e-09 -3.56445e-06 0)
(-1.38372e-09 -3.56209e-06 0)
(-1.25491e-09 -3.55997e-06 0)
(-1.12584e-09 -3.55795e-06 0)
(-9.96706e-10 -3.55648e-06 0)
(-8.67601e-10 -3.55413e-06 0)
(-7.39133e-10 -3.55552e-06 0)
(-6.10133e-10 -3.54519e-06 0)
(-4.84919e-10 -3.57314e-06 0)
(-3.46775e-10 -3.46552e-06 0)
(-2.53015e-10 -3.74965e-06 0)
(-1.18631e-10 -3.27466e-06 0)
)
;
    }
    bottomWall
    {
        type            calculated;
        value           nonuniform List<vector> 
449
(
(-52.8074 -0.9568 0)
(-34.8074 -0.00280454 0)
(-34.4101 -0.000256851 0)
(-33.0402 -0.000365421 0)
(-31.9083 -0.000316888 0)
(-30.8667 -0.000285562 0)
(-29.9457 -0.000250305 0)
(-29.1428 -0.000218248 0)
(-28.4392 -0.000191613 0)
(-27.8172 -0.000169725 0)
(-27.2625 -0.000151523 0)
(-26.7643 -0.000136242 0)
(-26.3136 -0.000123521 0)
(-25.9021 -0.000112857 0)
(-25.524 -0.000103712 0)
(-25.1748 -9.5776e-05 0)
(-24.8508 -8.88304e-05 0)
(-24.549 -8.26754e-05 0)
(-24.267 -7.72058e-05 0)
(-24.0026 -7.23164e-05 0)
(-23.7541 -6.79236e-05 0)
(-23.5197 -6.39719e-05 0)
(-23.2982 -6.03949e-05 0)
(-23.0883 -5.71687e-05 0)
(-22.8889 -5.42389e-05 0)
(-22.6991 -5.15599e-05 0)
(-22.5181 -4.9112e-05 0)
(-22.345 -4.68711e-05 0)
(-22.1794 -4.48142e-05 0)
(-22.0204 -4.29154e-05 0)
(-21.8678 -4.11585e-05 0)
(-21.7209 -3.95272e-05 0)
(-21.5795 -3.80143e-05 0)
(-21.443 -3.66012e-05 0)
(-21.3112 -3.52864e-05 0)
(-21.1838 -3.4053e-05 0)
(-21.0605 -3.28999e-05 0)
(-20.941 -3.18151e-05 0)
(-20.8252 -3.07971e-05 0)
(-20.7126 -2.98364e-05 0)
(-20.6034 -2.89293e-05 0)
(-20.4971 -2.80711e-05 0)
(-20.3938 -2.72584e-05 0)
(-20.2931 -2.64808e-05 0)
(-20.1951 -2.57375e-05 0)
(-20.0996 -2.50282e-05 0)
(-20.0065 -2.43481e-05 0)
(-19.9156 -2.36945e-05 0)
(-19.8271 -2.30673e-05 0)
(-19.7405 -2.24686e-05 0)
(-19.6561 -2.18891e-05 0)
(-19.5736 -2.13375e-05 0)
(-19.493 -2.08092e-05 0)
(-19.4142 -2.03022e-05 0)
(-19.3371 -1.98158e-05 0)
(-19.2616 -1.93496e-05 0)
(-19.1878 -1.89036e-05 0)
(-19.1154 -1.84762e-05 0)
(-19.0446 -1.80643e-05 0)
(-18.9751 -1.76697e-05 0)
(-18.9069 -1.72889e-05 0)
(-18.8401 -1.69229e-05 0)
(-18.7745 -1.65707e-05 0)
(-18.7101 -1.62297e-05 0)
(-18.6469 -1.59009e-05 0)
(-18.5848 -1.55826e-05 0)
(-18.5238 -1.52775e-05 0)
(-18.4639 -1.498e-05 0)
(-18.405 -1.46936e-05 0)
(-18.347 -1.44145e-05 0)
(-18.29 -1.41463e-05 0)
(-18.2339 -1.38828e-05 0)
(-18.1788 -1.36279e-05 0)
(-18.1245 -1.33797e-05 0)
(-18.0711 -1.31408e-05 0)
(-18.0185 -1.29062e-05 0)
(-17.9668 -1.2681e-05 0)
(-17.9157 -1.24591e-05 0)
(-17.8656 -1.22457e-05 0)
(-17.816 -1.20342e-05 0)
(-17.7673 -1.18308e-05 0)
(-17.7192 -1.16314e-05 0)
(-17.6719 -1.14399e-05 0)
(-17.6252 -1.12521e-05 0)
(-17.5792 -1.10695e-05 0)
(-17.5337 -1.08909e-05 0)
(-17.4891 -1.07145e-05 0)
(-17.4448 -1.05444e-05 0)
(-17.4014 -1.03798e-05 0)
(-17.3583 -1.02189e-05 0)
(-17.316 -1.00621e-05 0)
(-17.274 -9.90738e-06 0)
(-17.2328 -9.75588e-06 0)
(-17.1919 -9.60916e-06 0)
(-17.1518 -9.46495e-06 0)
(-17.1119 -9.3243e-06 0)
(-17.0727 -9.18755e-06 0)
(-17.0338 -9.05466e-06 0)
(-16.9956 -8.92406e-06 0)
(-16.9577 -8.79706e-06 0)
(-16.9204 -8.67086e-06 0)
(-16.8833 -8.54855e-06 0)
(-16.8469 -8.42869e-06 0)
(-16.8107 -8.31181e-06 0)
(-16.7751 -8.19551e-06 0)
(-16.7398 -8.08491e-06 0)
(-16.705 -7.97348e-06 0)
(-16.6704 -7.86752e-06 0)
(-16.6364 -7.76216e-06 0)
(-16.6026 -7.66022e-06 0)
(-16.5693 -7.55929e-06 0)
(-16.5363 -7.45999e-06 0)
(-16.5037 -7.36175e-06 0)
(-16.4713 -7.26589e-06 0)
(-16.4394 -7.17162e-06 0)
(-16.4078 -7.07936e-06 0)
(-16.3766 -6.98972e-06 0)
(-16.3455 -6.90325e-06 0)
(-16.315 -6.81793e-06 0)
(-16.2846 -6.73265e-06 0)
(-16.2546 -6.64995e-06 0)
(-16.2248 -6.56915e-06 0)
(-16.1954 -6.48936e-06 0)
(-16.1662 -6.41072e-06 0)
(-16.1374 -6.33269e-06 0)
(-16.1087 -6.25614e-06 0)
(-16.0805 -6.18032e-06 0)
(-16.0524 -6.10718e-06 0)
(-16.0247 -6.03423e-06 0)
(-15.9972 -5.965e-06 0)
(-15.9699 -5.89606e-06 0)
(-15.9429 -5.82947e-06 0)
(-15.9162 -5.76303e-06 0)
(-15.8896 -5.69701e-06 0)
(-15.8634 -5.63182e-06 0)
(-15.8373 -5.56805e-06 0)
(-15.8116 -5.50427e-06 0)
(-15.786 -5.44266e-06 0)
(-15.7606 -5.38068e-06 0)
(-15.7355 -5.32168e-06 0)
(-15.7106 -5.26292e-06 0)
(-15.6859 -5.20573e-06 0)
(-15.6615 -5.14949e-06 0)
(-15.6372 -5.0948e-06 0)
(-15.6132 -5.04152e-06 0)
(-15.5893 -4.98837e-06 0)
(-15.5656 -4.93732e-06 0)
(-15.5421 -4.8855e-06 0)
(-15.5188 -4.83468e-06 0)
(-15.4957 -4.78299e-06 0)
(-15.4728 -4.73418e-06 0)
(-15.45 -4.68432e-06 0)
(-15.4275 -4.63555e-06 0)
(-15.4051 -4.58806e-06 0)
(-15.383 -4.54066e-06 0)
(-15.3609 -4.4943e-06 0)
(-15.3391 -4.44838e-06 0)
(-15.3174 -4.40474e-06 0)
(-15.2959 -4.35998e-06 0)
(-15.2745 -4.31753e-06 0)
(-15.2534 -4.27536e-06 0)
(-15.2323 -4.2335e-06 0)
(-15.2115 -4.19216e-06 0)
(-15.1907 -4.15218e-06 0)
(-15.1702 -4.11044e-06 0)
(-15.1498 -4.06955e-06 0)
(-15.1295 -4.03047e-06 0)
(-15.1094 -3.9923e-06 0)
(-15.0895 -3.95444e-06 0)
(-15.0696 -3.91799e-06 0)
(-15.05 -3.88137e-06 0)
(-15.0304 -3.84505e-06 0)
(-15.011 -3.81361e-06 0)
(-14.9927 -3.79092e-06 0)
(-14.9756 -3.76335e-06 0)
(-14.9583 -3.72902e-06 0)
(-14.9411 -3.69403e-06 0)
(-14.9238 -3.66172e-06 0)
(-14.9065 -3.62741e-06 0)
(-14.8892 -3.59448e-06 0)
(-14.8718 -3.56268e-06 0)
(-14.8544 -3.53165e-06 0)
(-14.837 -3.49952e-06 0)
(-14.8196 -3.46946e-06 0)
(-14.802 -3.438e-06 0)
(-14.7845 -3.40737e-06 0)
(-14.767 -3.37578e-06 0)
(-14.7494 -3.34631e-06 0)
(-14.7317 -3.31687e-06 0)
(-14.7141 -3.28871e-06 0)
(-14.6964 -3.2588e-06 0)
(-14.6787 -3.22766e-06 0)
(-14.6609 -3.19976e-06 0)
(-14.6432 -3.16971e-06 0)
(-14.6253 -3.13988e-06 0)
(-14.6075 -3.10939e-06 0)
(-14.5897 -3.08137e-06 0)
(-14.5718 -3.05301e-06 0)
(-14.5539 -3.02497e-06 0)
(-14.5359 -2.99726e-06 0)
(-14.518 -2.96834e-06 0)
(-14.5 -2.94072e-06 0)
(-14.482 -2.912e-06 0)
(-14.464 -2.88506e-06 0)
(-14.4459 -2.85629e-06 0)
(-14.4279 -2.82957e-06 0)
(-14.4097 -2.80155e-06 0)
(-14.3917 -2.77304e-06 0)
(-14.3735 -2.74483e-06 0)
(-14.3554 -2.71704e-06 0)
(-14.3372 -2.69061e-06 0)
(-14.3191 -2.66304e-06 0)
(-14.3009 -2.63695e-06 0)
(-14.2828 -2.61112e-06 0)
(-14.2645 -2.58718e-06 0)
(-14.2463 -2.56123e-06 0)
(-14.2281 -2.53687e-06 0)
(-14.2098 -2.51064e-06 0)
(-14.1915 -2.48673e-06 0)
(-14.1732 -2.46204e-06 0)
(-14.1549 -2.4373e-06 0)
(-14.1366 -2.41258e-06 0)
(-14.1183 -2.38698e-06 0)
(-14.0999 -2.36194e-06 0)
(-14.0816 -2.33771e-06 0)
(-14.0632 -2.31186e-06 0)
(-14.0449 -2.28969e-06 0)
(-14.0265 -2.26482e-06 0)
(-14.0082 -2.24115e-06 0)
(-13.9898 -2.21893e-06 0)
(-13.9715 -2.19511e-06 0)
(-13.953 -2.17261e-06 0)
(-13.9347 -2.14978e-06 0)
(-13.9163 -2.12672e-06 0)
(-13.8979 -2.10405e-06 0)
(-13.8795 -2.08108e-06 0)
(-13.8611 -2.05813e-06 0)
(-13.8427 -2.03449e-06 0)
(-13.8244 -2.01218e-06 0)
(-13.806 -1.99136e-06 0)
(-13.7876 -1.96998e-06 0)
(-13.7692 -1.94932e-06 0)
(-13.7509 -1.9291e-06 0)
(-13.7324 -1.90852e-06 0)
(-13.7141 -1.88651e-06 0)
(-13.6957 -1.86656e-06 0)
(-13.6773 -1.84574e-06 0)
(-13.6589 -1.82471e-06 0)
(-13.6406 -1.80406e-06 0)
(-13.6222 -1.78446e-06 0)
(-13.6039 -1.76453e-06 0)
(-13.5856 -1.74609e-06 0)
(-13.5672 -1.72581e-06 0)
(-13.5489 -1.7069e-06 0)
(-13.5306 -1.68748e-06 0)
(-13.5123 -1.66966e-06 0)
(-13.4939 -1.65058e-06 0)
(-13.4757 -1.63159e-06 0)
(-13.4574 -1.61357e-06 0)
(-13.4391 -1.59488e-06 0)
(-13.4208 -1.57703e-06 0)
(-13.4026 -1.55909e-06 0)
(-13.3843 -1.5412e-06 0)
(-13.3661 -1.52259e-06 0)
(-13.3479 -1.50464e-06 0)
(-13.3297 -1.48702e-06 0)
(-13.3116 -1.46894e-06 0)
(-13.2934 -1.45236e-06 0)
(-13.2753 -1.43643e-06 0)
(-13.2572 -1.41969e-06 0)
(-13.2391 -1.40189e-06 0)
(-13.221 -1.38463e-06 0)
(-13.2029 -1.36861e-06 0)
(-13.1849 -1.35356e-06 0)
(-13.1669 -1.33797e-06 0)
(-13.1489 -1.32074e-06 0)
(-13.1309 -1.306e-06 0)
(-13.1129 -1.28926e-06 0)
(-13.095 -1.27411e-06 0)
(-13.0771 -1.25867e-06 0)
(-13.0592 -1.24442e-06 0)
(-13.0413 -1.22977e-06 0)
(-13.0235 -1.21434e-06 0)
(-13.0057 -1.19962e-06 0)
(-12.9879 -1.18502e-06 0)
(-12.9701 -1.17086e-06 0)
(-12.9524 -1.15588e-06 0)
(-12.9346 -1.14059e-06 0)
(-12.917 -1.1268e-06 0)
(-12.8993 -1.11318e-06 0)
(-12.8817 -1.10072e-06 0)
(-12.8641 -1.0876e-06 0)
(-12.8465 -1.07354e-06 0)
(-12.8289 -1.06074e-06 0)
(-12.8114 -1.04778e-06 0)
(-12.7939 -1.03428e-06 0)
(-12.7765 -1.02208e-06 0)
(-12.759 -1.0095e-06 0)
(-12.7416 -9.96943e-07 0)
(-12.7242 -9.85826e-07 0)
(-12.7068 -9.72836e-07 0)
(-12.6895 -9.61815e-07 0)
(-12.6721 -9.50505e-07 0)
(-12.6548 -9.38526e-07 0)
(-12.6375 -9.25378e-07 0)
(-12.6203 -9.12552e-07 0)
(-12.6032 -9.01955e-07 0)
(-12.586 -8.91552e-07 0)
(-12.5689 -8.80281e-07 0)
(-12.5518 -8.69347e-07 0)
(-12.5347 -8.58104e-07 0)
(-12.5176 -8.47401e-07 0)
(-12.5006 -8.37185e-07 0)
(-12.4836 -8.25967e-07 0)
(-12.4667 -8.14244e-07 0)
(-12.4498 -8.04218e-07 0)
(-12.433 -7.93768e-07 0)
(-12.4162 -7.8408e-07 0)
(-12.3994 -7.736e-07 0)
(-12.3826 -7.63888e-07 0)
(-12.3659 -7.54308e-07 0)
(-12.3492 -7.45123e-07 0)
(-12.3325 -7.35027e-07 0)
(-12.316 -7.25266e-07 0)
(-12.2993 -7.16119e-07 0)
(-12.2829 -7.07337e-07 0)
(-12.2663 -6.98334e-07 0)
(-12.2499 -6.88966e-07 0)
(-12.2334 -6.79757e-07 0)
(-12.217 -6.71217e-07 0)
(-12.2006 -6.62781e-07 0)
(-12.1843 -6.53136e-07 0)
(-12.168 -6.44753e-07 0)
(-12.1518 -6.36705e-07 0)
(-12.1356 -6.28252e-07 0)
(-12.1195 -6.18944e-07 0)
(-12.1033 -6.10374e-07 0)
(-12.0873 -6.02725e-07 0)
(-12.0713 -5.9484e-07 0)
(-12.0553 -5.87063e-07 0)
(-12.0393 -5.79867e-07 0)
(-12.0235 -5.71889e-07 0)
(-12.0076 -5.64178e-07 0)
(-11.9918 -5.56616e-07 0)
(-11.976 -5.49299e-07 0)
(-11.9602 -5.41855e-07 0)
(-11.9445 -5.35206e-07 0)
(-11.9288 -5.27662e-07 0)
(-11.9132 -5.20955e-07 0)
(-11.8976 -5.13975e-07 0)
(-11.8821 -5.07005e-07 0)
(-11.8666 -5.00116e-07 0)
(-11.8511 -4.938e-07 0)
(-11.8357 -4.85198e-07 0)
(-11.8187 -4.76115e-07 0)
(-11.8002 -4.68131e-07 0)
(-11.7821 -4.61259e-07 0)
(-11.7641 -4.54579e-07 0)
(-11.7465 -4.47672e-07 0)
(-11.7291 -4.40962e-07 0)
(-11.712 -4.34334e-07 0)
(-11.6951 -4.27575e-07 0)
(-11.6786 -4.21507e-07 0)
(-11.6621 -4.15691e-07 0)
(-11.646 -4.09356e-07 0)
(-11.6301 -4.03423e-07 0)
(-11.6145 -3.97576e-07 0)
(-11.599 -3.91971e-07 0)
(-11.5838 -3.86302e-07 0)
(-11.5687 -3.81483e-07 0)
(-11.5539 -3.75903e-07 0)
(-11.5393 -3.71028e-07 0)
(-11.5249 -3.65728e-07 0)
(-11.5107 -3.60802e-07 0)
(-11.4967 -3.56452e-07 0)
(-11.4828 -3.5232e-07 0)
(-11.4691 -3.47399e-07 0)
(-11.4556 -3.42591e-07 0)
(-11.4423 -3.38252e-07 0)
(-11.4292 -3.3384e-07 0)
(-11.4162 -3.30569e-07 0)
(-11.4033 -3.25898e-07 0)
(-11.3907 -3.22171e-07 0)
(-11.3781 -3.18784e-07 0)
(-11.3657 -3.14553e-07 0)
(-11.3535 -3.10077e-07 0)
(-11.3415 -3.06704e-07 0)
(-11.3295 -3.03409e-07 0)
(-11.3177 -3.00341e-07 0)
(-11.306 -2.97065e-07 0)
(-11.2945 -2.93755e-07 0)
(-11.283 -2.90739e-07 0)
(-11.2717 -2.87319e-07 0)
(-11.2605 -2.84302e-07 0)
(-11.2495 -2.81148e-07 0)
(-11.2385 -2.78163e-07 0)
(-11.2277 -2.75495e-07 0)
(-11.2169 -2.72416e-07 0)
(-11.2064 -2.69396e-07 0)
(-11.1959 -2.66874e-07 0)
(-11.1855 -2.63713e-07 0)
(-11.1752 -2.61092e-07 0)
(-11.1651 -2.5824e-07 0)
(-11.155 -2.55629e-07 0)
(-11.1451 -2.52745e-07 0)
(-11.1352 -2.50655e-07 0)
(-11.1255 -2.48096e-07 0)
(-11.1158 -2.45412e-07 0)
(-11.1063 -2.43167e-07 0)
(-11.0968 -2.4062e-07 0)
(-11.0874 -2.38282e-07 0)
(-11.0782 -2.36094e-07 0)
(-11.069 -2.33654e-07 0)
(-11.0599 -2.31225e-07 0)
(-11.0509 -2.29322e-07 0)
(-11.0419 -2.27239e-07 0)
(-11.0331 -2.25312e-07 0)
(-11.0243 -2.23143e-07 0)
(-11.0156 -2.21386e-07 0)
(-11.007 -2.19215e-07 0)
(-10.9985 -2.17169e-07 0)
(-10.99 -2.14884e-07 0)
(-10.9817 -2.14216e-07 0)
(-10.9732 -2.11662e-07 0)
(-10.9651 -2.09957e-07 0)
(-10.9568 -2.0775e-07 0)
(-10.9489 -2.06534e-07 0)
(-10.9406 -2.04482e-07 0)
(-10.9329 -2.0336e-07 0)
(-10.9247 -2.01033e-07 0)
(-10.9171 -2.00523e-07 0)
(-10.909 -1.98422e-07 0)
(-10.9016 -1.97673e-07 0)
(-10.8936 -1.95725e-07 0)
(-10.8863 -1.94687e-07 0)
(-10.8783 -1.93338e-07 0)
(-10.8712 -1.92022e-07 0)
(-10.8633 -1.91396e-07 0)
(-10.8562 -1.89126e-07 0)
(-10.8485 -1.89409e-07 0)
(-10.8414 -1.8506e-07 0)
(-10.834 -1.89333e-07 0)
(-10.8265 -1.7893e-07 0)
(-10.8201 -1.93445e-07 0)
(-10.8114 -1.66194e-07 0)
(-10.8071 -2.06999e-07 0)
(-10.7951 -1.42679e-07 0)
(-10.7961 -1.80735e-07 0)
(-10.7807 -2.02473e-07 0)
)
;
    }
    symmetry
    {
        type            symmetryPlane;
    }
    frontAndBack
    {
        type            empty;
    }
}


// ************************************************************************* //
