/*--------------------------------*- C++ -*----------------------------------*\
| =========                 |                                                 |
| \\      /  F ield         | OpenFOAM: The Open Source CFD Toolbox           |
|  \\    /   O peration     | Version:  v2012                                 |
|   \\  /    A nd           | Website:  www.openfoam.com                      |
|    \\/     M anipulation  |                                                 |
\*---------------------------------------------------------------------------*/
FoamFile
{
    version     2.0;
    format      ascii;
    class       volScalarField;
    location    "29";
    object      yPlus;
}
// * * * * * * * * * * * * * * * * * * * * * * * * * * * * * * * * * * * * * //

dimensions      [0 0 0 0 0 0 0];


internalField   uniform 0;

boundaryField
{
    inlet
    {
        type            calculated;
        value           uniform 0;
    }
    outlet
    {
        type            calculated;
        value           uniform 0;
    }
    topWall
    {
        type            calculated;
        value           nonuniform List<scalar> 
545
(
0.142121
0.245165
0.314523
0.369689
0.416381
0.457224
0.493696
0.526723
0.556939
0.584798
0.610641
0.634731
0.657277
0.678449
0.698389
0.717213
0.735022
0.751902
0.767928
0.783166
0.797672
0.811499
0.824693
0.837295
0.849342
0.860868
0.871904
0.882478
0.892617
0.902343
0.91168
0.920647
0.929264
0.937547
0.945514
0.95318
0.960559
0.967664
0.974509
0.981104
0.987461
0.993592
0.999504
1.00521
1.01071
1.01603
1.02116
1.02611
1.0309
1.03553
1.03999
1.04432
1.04849
1.05253
1.05644
1.06022
1.06388
1.06741
1.07084
1.07415
1.07736
1.08047
1.08348
1.0864
1.08922
1.09196
1.09461
1.09718
1.09967
1.10208
1.10442
1.10669
1.10886
1.11096
1.11304
1.11511
1.11715
1.11918
1.1212
1.12319
1.12517
1.12714
1.12909
1.13102
1.13293
1.13483
1.13672
1.13859
1.14044
1.14228
1.14411
1.14592
1.14771
1.14949
1.15126
1.15301
1.15459
1.15599
1.1574
1.15881
1.16022
1.16162
1.16303
1.16444
1.16584
1.16724
1.16865
1.17005
1.17145
1.17285
1.17425
1.17565
1.17705
1.17845
1.17985
1.18124
1.18264
1.18403
1.18543
1.18682
1.18821
1.18961
1.191
1.19239
1.19378
1.19516
1.19655
1.19794
1.19932
1.20071
1.20209
1.20347
1.20485
1.20623
1.20761
1.20899
1.21037
1.21174
1.21312
1.21449
1.21586
1.21724
1.21861
1.21998
1.22134
1.22271
1.22408
1.22544
1.22681
1.22817
1.22953
1.23089
1.23225
1.23361
1.23496
1.23632
1.23767
1.23902
1.24037
1.24172
1.24307
1.24442
1.24576
1.2471
1.24845
1.24979
1.25113
1.25246
1.2538
1.25514
1.25647
1.2578
1.25913
1.26046
1.26179
1.26311
1.26444
1.26576
1.26708
1.2684
1.26971
1.27103
1.27234
1.27366
1.27497
1.27627
1.27758
1.27889
1.28019
1.28149
1.28279
1.28409
1.28538
1.28668
1.28797
1.28926
1.29054
1.29183
1.29311
1.2944
1.29568
1.29695
1.29823
1.2995
1.30077
1.30204
1.30331
1.30458
1.30584
1.3071
1.30836
1.30962
1.31087
1.31212
1.31337
1.31462
1.31586
1.31711
1.31835
1.31958
1.32082
1.32205
1.32328
1.32451
1.32574
1.32696
1.32818
1.3294
1.33062
1.33183
1.33304
1.33425
1.33545
1.33666
1.33786
1.33906
1.34025
1.34144
1.34263
1.34382
1.345
1.34618
1.34736
1.34854
1.34971
1.35088
1.35205
1.35321
1.35437
1.35553
1.35668
1.35784
1.35899
1.36013
1.36127
1.36241
1.36355
1.36468
1.36582
1.36694
1.36807
1.36919
1.37031
1.37142
1.37253
1.37364
1.37474
1.37585
1.37694
1.37798
1.37895
1.37993
1.38091
1.3819
1.3829
1.3839
1.38491
1.38592
1.38694
1.38797
1.389
1.39003
1.39107
1.39212
1.39317
1.39423
1.39529
1.39636
1.39743
1.39851
1.39959
1.40067
1.40177
1.40286
1.40396
1.40507
1.40618
1.40729
1.40841
1.40953
1.41066
1.41179
1.41293
1.41406
1.41521
1.41635
1.4175
1.41865
1.4198
1.42096
1.42212
1.42328
1.42445
1.42562
1.42679
1.42796
1.42913
1.4303
1.43148
1.43266
1.43384
1.43502
1.43619
1.43738
1.43856
1.43974
1.44092
1.4421
1.44328
1.44445
1.44563
1.44681
1.44798
1.44915
1.45032
1.45149
1.45266
1.45382
1.45498
1.45614
1.45729
1.45843
1.45958
1.46072
1.46185
1.46298
1.4641
1.46522
1.46633
1.46743
1.46853
1.46961
1.47069
1.47177
1.47283
1.47389
1.47493
1.47597
1.477
1.47801
1.47902
1.48001
1.48099
1.48196
1.48292
1.48386
1.48479
1.48571
1.48661
1.4875
1.48838
1.48923
1.49007
1.4909
1.49171
1.4925
1.49327
1.49402
1.49476
1.49547
1.49617
1.49684
1.49749
1.49813
1.49874
1.49933
1.49989
1.50044
1.50095
1.50145
1.50192
1.50236
1.50278
1.50318
1.50354
1.50388
1.50419
1.50448
1.50473
1.50496
1.50515
1.50532
1.50545
1.50556
1.50563
1.50567
1.50568
1.50566
1.50561
1.50552
1.5054
1.50524
1.50505
1.50483
1.50456
1.50427
1.50394
1.50357
1.50317
1.50273
1.50225
1.50174
1.50119
1.5006
1.49997
1.49931
1.49861
1.49787
1.49709
1.49627
1.49542
1.49453
1.4936
1.49263
1.49162
1.49058
1.48949
1.48837
1.48721
1.48601
1.48478
1.4835
1.48219
1.48085
1.47946
1.47804
1.47658
1.47509
1.47356
1.472
1.47022
1.46823
1.46622
1.46419
1.46214
1.46008
1.45799
1.4559
1.45379
1.45168
1.44955
1.44742
1.44528
1.44314
1.44099
1.43885
1.4367
1.43456
1.43241
1.43028
1.42814
1.42602
1.42389
1.42178
1.41968
1.41759
1.4155
1.41344
1.41138
1.40934
1.40731
1.4053
1.4033
1.40132
1.39935
1.39741
1.39548
1.39358
1.39169
1.38983
1.38798
1.38617
1.38436
1.38259
1.38084
1.37912
1.37741
1.37574
1.37409
1.37247
1.37087
1.3693
1.36776
1.36625
1.36477
1.36332
1.36189
1.3605
1.35914
1.35781
1.35651
1.35524
1.35401
1.35281
1.35164
1.3505
1.3494
1.34834
1.3473
1.34631
1.34534
1.34442
1.34352
1.34267
1.34185
1.34107
1.34032
1.33962
1.33895
1.33831
1.33772
1.33716
1.33664
1.33616
1.33572
1.33532
1.33496
1.33463
1.33435
1.3341
1.3339
1.33373
1.3336
1.33352
1.33343
)
;
    }
    bottomWall
    {
        type            calculated;
        value           nonuniform List<scalar> 
449
(
0.00274283
0.00480913
0.00538236
0.00533427
0.00526243
0.00516572
0.00506781
0.00497623
0.00489212
0.00481526
0.00474497
0.00468063
0.00462146
0.00456665
0.00451565
0.00446802
0.00442341
0.00438149
0.00434205
0.00430479
0.00426957
0.00423617
0.00420446
0.00417426
0.00414544
0.0041179
0.00409152
0.00406621
0.00404189
0.00401848
0.00399591
0.00397412
0.00395307
0.0039327
0.00391297
0.00389383
0.00387526
0.00385721
0.00383967
0.00382258
0.00380595
0.00378973
0.00377393
0.00375849
0.00374344
0.00372872
0.00371436
0.00370031
0.00368659
0.00367316
0.00366004
0.00364718
0.00363461
0.00362229
0.00361022
0.00359839
0.0035868
0.00357541
0.00356425
0.00355329
0.00354253
0.00353196
0.00352157
0.00351136
0.00350132
0.00349145
0.00348174
0.00347218
0.00346279
0.00345352
0.00344442
0.00343543
0.0034266
0.00341788
0.00340931
0.00340085
0.00339253
0.0033843
0.00337621
0.00336821
0.00336036
0.00335257
0.00334493
0.00333734
0.0033299
0.00332252
0.00331527
0.00330807
0.00330101
0.003294
0.00328711
0.00328026
0.00327355
0.00326686
0.00326031
0.00325379
0.00324739
0.00324101
0.00323476
0.00322853
0.00322242
0.00321633
0.00321036
0.0032044
0.00319856
0.00319273
0.00318701
0.00318131
0.00317571
0.00317013
0.00316464
0.00315917
0.00315379
0.00314844
0.00314317
0.00313793
0.00313276
0.00312762
0.00312255
0.00311751
0.00311254
0.00310759
0.00310271
0.00309786
0.00309307
0.0030883
0.00308361
0.00307893
0.00307432
0.00306972
0.00306519
0.00306068
0.00305622
0.00305179
0.00304741
0.00304305
0.00303875
0.00303447
0.00303024
0.00302603
0.00302187
0.00301773
0.00301364
0.00300956
0.00300553
0.00300152
0.00299756
0.00299361
0.0029897
0.00298581
0.00298197
0.00297813
0.00297435
0.00297058
0.00296686
0.00296314
0.00295947
0.00295581
0.00295219
0.00294859
0.00294502
0.00294147
0.00293795
0.00293445
0.00293098
0.00292753
0.00292411
0.0029207
0.00291733
0.00291398
0.00291065
0.00290734
0.00290405
0.00290096
0.00289805
0.00289513
0.00289221
0.00288928
0.00288635
0.00288341
0.00288046
0.00287751
0.00287455
0.00287159
0.00286861
0.00286564
0.00286265
0.00285966
0.00285666
0.00285366
0.00285064
0.00284763
0.0028446
0.00284157
0.00283853
0.0028355
0.00283245
0.0028294
0.00282634
0.00282328
0.00282021
0.00281714
0.00281406
0.00281098
0.00280789
0.00280481
0.0028017
0.00279861
0.0027955
0.00279241
0.00278929
0.00278619
0.00278307
0.00277996
0.00277683
0.0027737
0.00277057
0.00276743
0.00276429
0.00276115
0.002758
0.00275485
0.0027517
0.00274854
0.00274539
0.00274223
0.00273908
0.00273591
0.00273275
0.00272958
0.00272641
0.00272324
0.00272007
0.00271689
0.00271372
0.00271053
0.00270737
0.00270418
0.00270101
0.00269783
0.00269466
0.00269147
0.00268829
0.0026851
0.00268192
0.00267873
0.00267555
0.00267236
0.00266918
0.00266599
0.00266281
0.00265963
0.00265644
0.00265326
0.00265007
0.00264689
0.0026437
0.00264052
0.00263733
0.00263416
0.00263097
0.0026278
0.00262461
0.00262144
0.00261826
0.00261509
0.00261192
0.00260876
0.00260559
0.00260243
0.00259926
0.00259611
0.00259295
0.0025898
0.00258664
0.0025835
0.00258035
0.0025772
0.00257407
0.00257093
0.0025678
0.00256466
0.00256154
0.0025584
0.00255529
0.00255216
0.00254905
0.00254594
0.00254285
0.00253974
0.00253665
0.00253354
0.00253046
0.00252737
0.00252429
0.0025212
0.00251814
0.00251505
0.002512
0.00250892
0.00250586
0.0025028
0.00249975
0.00249669
0.00249364
0.00249061
0.00248758
0.00248454
0.00248152
0.00247849
0.00247547
0.00247246
0.00246945
0.00246645
0.00246345
0.00246046
0.00245748
0.0024545
0.00245152
0.00244856
0.00244559
0.00244263
0.00243967
0.00243673
0.00243378
0.00243086
0.00242791
0.002425
0.00242207
0.00241917
0.00241625
0.00241335
0.00241045
0.00240757
0.00240468
0.00240181
0.00239894
0.00239609
0.00239323
0.00239039
0.00238754
0.00238471
0.00238187
0.00237905
0.00237623
0.00237342
0.00237062
0.00236782
0.00236503
0.00236224
0.00235946
0.00235669
0.00235393
0.00235116
0.00234813
0.0023448
0.00234156
0.00233833
0.00233518
0.00233206
0.002329
0.00232596
0.002323
0.00232005
0.00231717
0.0023143
0.0023115
0.00230872
0.00230599
0.00230329
0.00230063
0.002298
0.00229541
0.00229285
0.00229033
0.00228783
0.00228536
0.00228294
0.00228054
0.00227817
0.00227583
0.00227351
0.00227123
0.00226896
0.00226673
0.00226452
0.00226235
0.00226018
0.00225806
0.00225593
0.00225386
0.00225178
0.00224974
0.00224771
0.00224572
0.00224373
0.00224178
0.00223983
0.00223793
0.00223602
0.00223415
0.00223228
0.00223045
0.00222862
0.00222682
0.00222504
0.00222326
0.00222152
0.00221978
0.00221807
0.00221637
0.00221468
0.00221301
0.00221136
0.00220973
0.0022081
0.0022065
0.0022049
0.00220332
0.00220175
0.0022002
0.00219866
0.00219714
0.0021956
0.00219413
0.00219261
0.00219117
0.00218967
0.00218825
0.00218677
0.00218539
0.00218391
0.00218256
0.00218109
0.00217976
0.0021783
0.002177
0.00217556
0.00217426
0.00217285
0.00217156
0.0021702
0.00216886
0.00216763
0.00216614
0.00216521
0.00216327
0.00216305
0.00216059
)
;
    }
    symmetry
    {
        type            symmetryPlane;
    }
    frontAndBack
    {
        type            empty;
    }
}


// ************************************************************************* //
