/*--------------------------------*- C++ -*----------------------------------*\
| =========                 |                                                 |
| \\      /  F ield         | OpenFOAM: The Open Source CFD Toolbox           |
|  \\    /   O peration     | Version:  v2012                                 |
|   \\  /    A nd           | Website:  www.openfoam.com                      |
|    \\/     M anipulation  |                                                 |
\*---------------------------------------------------------------------------*/
FoamFile
{
    version     2.0;
    format      ascii;
    class       volScalarField;
    location    "3.5";
    object      yPlus;
}
// * * * * * * * * * * * * * * * * * * * * * * * * * * * * * * * * * * * * * //

dimensions      [0 0 0 0 0 0 0];


internalField   uniform 0;

boundaryField
{
    inlet
    {
        type            calculated;
        value           uniform 0;
    }
    outlet
    {
        type            calculated;
        value           uniform 0;
    }
    topWall
    {
        type            calculated;
        value           nonuniform List<scalar> 
545
(
0.0415876
0.0724114
0.0927159
0.108804
0.1224
0.134279
0.144869
0.154442
0.163181
0.171218
0.178654
0.185566
0.192015
0.198052
0.203717
0.209047
0.214072
0.218816
0.223302
0.227551
0.231579
0.235403
0.239036
0.242491
0.24578
0.248912
0.251897
0.254745
0.257462
0.260057
0.262536
0.264905
0.267171
0.269339
0.271414
0.273401
0.275304
0.277127
0.278874
0.28055
0.282156
0.283698
0.285177
0.286597
0.28796
0.289268
0.290526
0.291733
0.292894
0.294009
0.295082
0.296112
0.297104
0.298057
0.298974
0.299856
0.300705
0.301522
0.302308
0.303064
0.303792
0.304493
0.305168
0.305818
0.306444
0.307046
0.307626
0.308185
0.308723
0.309241
0.30974
0.310221
0.310676
0.311115
0.311548
0.311975
0.312398
0.312815
0.313227
0.313634
0.314036
0.314433
0.314825
0.315212
0.315594
0.315972
0.316345
0.316713
0.317076
0.317436
0.31779
0.31814
0.318486
0.318828
0.319164
0.3195
0.319787
0.320041
0.320295
0.320547
0.320799
0.321049
0.321299
0.321548
0.321796
0.322043
0.322289
0.322534
0.322779
0.323022
0.323265
0.323506
0.323747
0.323987
0.324225
0.324463
0.3247
0.324936
0.325171
0.325405
0.325637
0.325869
0.3261
0.32633
0.326559
0.326787
0.327013
0.327239
0.327464
0.327687
0.32791
0.328131
0.328352
0.328571
0.328789
0.329006
0.329222
0.329437
0.329651
0.329864
0.330075
0.330285
0.330495
0.330703
0.33091
0.331115
0.33132
0.331523
0.331725
0.331926
0.332126
0.332325
0.332522
0.332718
0.332913
0.333107
0.333299
0.33349
0.33368
0.333869
0.334056
0.334242
0.334427
0.33461
0.334792
0.334973
0.335152
0.33533
0.335507
0.335683
0.335857
0.336029
0.336201
0.336371
0.336539
0.336706
0.336872
0.337036
0.337199
0.337361
0.337521
0.33768
0.337837
0.337992
0.338147
0.338299
0.338451
0.3386
0.338749
0.338895
0.339041
0.339184
0.339327
0.339467
0.339606
0.339744
0.33988
0.340014
0.340147
0.340278
0.340408
0.340536
0.340662
0.340787
0.34091
0.341032
0.341152
0.34127
0.341386
0.341501
0.341614
0.341726
0.341836
0.341944
0.34205
0.342155
0.342258
0.342359
0.342459
0.342556
0.342652
0.342746
0.342839
0.342929
0.343018
0.343105
0.34319
0.343274
0.343355
0.343435
0.343513
0.343589
0.343663
0.343735
0.343805
0.343874
0.34394
0.344005
0.344068
0.344128
0.344187
0.344244
0.344299
0.344352
0.344403
0.344453
0.3445
0.344545
0.344588
0.344629
0.344668
0.344705
0.34474
0.344773
0.344804
0.344833
0.34486
0.344885
0.344908
0.344928
0.344947
0.344963
0.344978
0.34499
0.345
0.345008
0.345014
0.345017
0.34502
0.345013
0.345002
0.34499
0.344977
0.344963
0.344947
0.34493
0.344911
0.344891
0.344869
0.344846
0.344821
0.344794
0.344766
0.344736
0.344704
0.34467
0.344634
0.344596
0.344555
0.344513
0.344468
0.344421
0.344372
0.34432
0.344266
0.344209
0.344149
0.344086
0.344021
0.343953
0.343882
0.343808
0.34373
0.343649
0.343565
0.343478
0.343387
0.343292
0.343194
0.343092
0.342986
0.342876
0.342762
0.342644
0.342522
0.342395
0.342264
0.342128
0.341988
0.341842
0.341692
0.341537
0.341376
0.341211
0.34104
0.340863
0.340681
0.340493
0.3403
0.3401
0.339894
0.339683
0.339464
0.339239
0.339008
0.33877
0.338525
0.338273
0.338014
0.337747
0.337473
0.337192
0.336903
0.336606
0.336301
0.335988
0.335666
0.335336
0.334998
0.334651
0.334295
0.33393
0.333555
0.333172
0.332779
0.332376
0.331964
0.331541
0.331109
0.330666
0.330213
0.329749
0.329275
0.328789
0.328293
0.327786
0.327267
0.326737
0.326195
0.325641
0.325076
0.324498
0.323909
0.323306
0.322692
0.322065
0.321425
0.320772
0.320106
0.319426
0.318734
0.318028
0.317308
0.316575
0.315828
0.315067
0.314292
0.313503
0.3127
0.311882
0.311049
0.310203
0.309341
0.308465
0.307574
0.306668
0.305747
0.304811
0.30386
0.302894
0.301913
0.300916
0.299904
0.298877
0.297835
0.296777
0.295704
0.294615
0.293512
0.292393
0.291258
0.290108
0.288943
0.287763
0.286568
0.285358
0.284132
0.282892
0.281637
0.280367
0.279082
0.277783
0.27647
0.275142
0.2738
0.272445
0.271075
0.269692
0.268295
0.266885
0.265463
0.264027
0.262579
0.261118
0.259645
0.258161
0.256665
0.255157
0.253639
0.252109
0.25057
0.24902
0.24746
0.245891
0.244313
0.242726
0.24113
0.239527
0.237916
0.236297
0.234493
0.232526
0.230579
0.22865
0.226738
0.224845
0.22297
0.221114
0.219277
0.217458
0.215659
0.21388
0.21212
0.21038
0.208659
0.206959
0.205279
0.203619
0.20198
0.200361
0.198762
0.197184
0.195627
0.19409
0.192574
0.191078
0.189603
0.188148
0.186714
0.185301
0.183909
0.182536
0.181185
0.179854
0.178544
0.177254
0.175984
0.174735
0.173506
0.172298
0.17111
0.169943
0.168796
0.167669
0.166562
0.165475
0.164409
0.163363
0.162337
0.161331
0.160345
0.15938
0.158434
0.157509
0.156603
0.155718
0.154853
0.154008
0.153182
0.152377
0.151592
0.150827
0.150083
0.149358
0.148653
0.147969
0.147305
0.14666
0.146037
0.145433
0.14485
0.144287
0.143744
0.143221
0.142719
0.142238
0.141777
0.141336
0.140916
0.140517
0.140138
0.13978
0.139442
0.139125
0.138829
0.138554
0.138299
0.138066
0.137853
0.137661
0.13749
0.137341
0.137209
0.137114
0.136975
)
;
    }
    bottomWall
    {
        type            calculated;
        value           nonuniform List<scalar> 
449
(
0.139632
0.0892794
0.0766754
0.0712106
0.0681525
0.0662108
0.0648599
0.063859
0.0630842
0.0624662
0.0619633
0.0615481
0.0612014
0.0609088
0.0606596
0.0604457
0.0602605
0.0600992
0.0599579
0.0598334
0.0597232
0.0596252
0.0595377
0.0594593
0.0593888
0.0593251
0.0592675
0.0592153
0.0591677
0.0591243
0.0590846
0.0590482
0.0590148
0.0589841
0.0589557
0.0589295
0.0589053
0.0588829
0.0588621
0.0588427
0.0588247
0.0588079
0.0587922
0.0587776
0.0587639
0.0587511
0.058739
0.0587277
0.0587171
0.0587071
0.0586977
0.0586889
0.0586805
0.0586726
0.0586652
0.0586581
0.0586514
0.0586451
0.0586391
0.0586334
0.0586279
0.0586228
0.0586179
0.0586132
0.0586088
0.0586045
0.0586005
0.0585966
0.0585929
0.0585894
0.058586
0.0585828
0.0585797
0.0585768
0.0585739
0.0585712
0.0585686
0.058566
0.0585636
0.0585613
0.058559
0.0585569
0.0585548
0.0585528
0.0585509
0.058549
0.0585472
0.0585454
0.0585437
0.0585421
0.0585405
0.058539
0.0585375
0.0585361
0.0585347
0.0585333
0.058532
0.0585307
0.0585295
0.0585283
0.0585271
0.058526
0.0585249
0.0585238
0.0585227
0.0585217
0.0585207
0.0585197
0.0585187
0.0585178
0.0585169
0.058516
0.0585151
0.0585143
0.0585134
0.0585126
0.0585118
0.058511
0.0585102
0.0585095
0.0585087
0.058508
0.0585073
0.0585066
0.0585059
0.0585052
0.0585045
0.0585039
0.0585032
0.0585026
0.0585019
0.0585013
0.0585007
0.0585001
0.0584995
0.0584989
0.0584984
0.0584978
0.0584972
0.0584967
0.0584961
0.0584956
0.0584951
0.0584945
0.058494
0.0584935
0.058493
0.0584925
0.058492
0.0584915
0.058491
0.0584905
0.05849
0.0584895
0.0584891
0.0584886
0.0584881
0.0584877
0.0584872
0.0584868
0.0584863
0.0584859
0.0584855
0.058485
0.0584846
0.0584842
0.0584838
0.0584834
0.058483
0.0584826
0.0584823
0.0584822
0.0584817
0.0584819
0.0584825
0.0584836
0.0584844
0.0584849
0.058485
0.0584849
0.0584847
0.0584842
0.0584837
0.058483
0.0584822
0.0584814
0.0584805
0.0584795
0.0584785
0.0584775
0.0584764
0.0584753
0.0584741
0.058473
0.0584718
0.0584706
0.0584694
0.0584681
0.0584669
0.0584656
0.0584644
0.0584631
0.0584619
0.0584606
0.0584594
0.0584581
0.0584568
0.0584556
0.0584543
0.0584531
0.0584518
0.0584506
0.0584494
0.0584481
0.0584469
0.0584457
0.0584445
0.0584433
0.0584421
0.0584409
0.0584397
0.0584386
0.0584374
0.0584363
0.0584351
0.058434
0.0584329
0.0584317
0.0584306
0.0584295
0.0584285
0.0584274
0.0584263
0.0584253
0.0584242
0.0584232
0.0584222
0.0584211
0.0584201
0.0584191
0.0584181
0.0584172
0.0584162
0.0584153
0.0584143
0.0584134
0.0584124
0.0584115
0.0584106
0.0584097
0.0584088
0.058408
0.0584071
0.0584062
0.0584054
0.0584045
0.0584037
0.0584029
0.0584021
0.0584013
0.0584005
0.0583997
0.0583989
0.0583981
0.0583974
0.0583966
0.0583959
0.0583951
0.0583944
0.0583937
0.058393
0.0583923
0.0583916
0.0583909
0.0583902
0.0583895
0.0583889
0.0583882
0.0583876
0.0583869
0.0583863
0.0583857
0.0583851
0.0583844
0.0583838
0.0583832
0.0583826
0.0583821
0.0583815
0.0583809
0.0583803
0.0583798
0.0583792
0.0583787
0.0583782
0.0583776
0.0583771
0.0583766
0.0583761
0.0583756
0.0583751
0.0583746
0.0583741
0.0583736
0.0583731
0.0583726
0.0583722
0.0583717
0.0583712
0.0583708
0.0583703
0.0583699
0.0583695
0.058369
0.0583686
0.0583682
0.0583678
0.0583673
0.0583669
0.0583665
0.0583661
0.0583657
0.0583654
0.058365
0.0583646
0.0583642
0.0583638
0.0583635
0.0583631
0.0583628
0.0583624
0.0583621
0.0583617
0.0583614
0.058361
0.0583607
0.0583604
0.05836
0.0583597
0.0583594
0.0583591
0.0583588
0.0583584
0.0583581
0.0583578
0.0583575
0.0583572
0.058357
0.0583567
0.0583564
0.0583561
0.0583558
0.0583555
0.0583553
0.0583535
0.0583521
0.0583513
0.058351
0.0583507
0.0583506
0.0583505
0.0583504
0.0583503
0.0583503
0.0583503
0.0583502
0.0583502
0.0583502
0.0583502
0.0583501
0.0583501
0.0583501
0.0583501
0.0583501
0.0583501
0.0583501
0.0583501
0.0583501
0.0583501
0.0583501
0.0583501
0.0583501
0.0583501
0.0583501
0.0583501
0.0583501
0.05835
0.05835
0.05835
0.05835
0.05835
0.05835
0.05835
0.05835
0.05835
0.05835
0.05835
0.05835
0.05835
0.05835
0.05835
0.05835
0.05835
0.05835
0.05835
0.05835
0.05835
0.05835
0.05835
0.05835
0.05835
0.05835
0.05835
0.05835
0.05835
0.05835
0.05835
0.05835
0.05835
0.05835
0.05835
0.05835
0.05835
0.05835
0.05835
0.05835
0.05835
0.05835
0.05835
0.05835
0.05835
0.05835
0.05835
0.05835
0.05835
0.05835
0.05835
0.05835
0.05835
0.05835
0.05835
0.05835
0.05835
0.05835
0.05835
0.05835
0.05835
0.05835
0.05835
)
;
    }
    symmetry
    {
        type            symmetryPlane;
    }
    frontAndBack
    {
        type            empty;
    }
}


// ************************************************************************* //
