/*--------------------------------*- C++ -*----------------------------------*\
| =========                 |                                                 |
| \\      /  F ield         | OpenFOAM: The Open Source CFD Toolbox           |
|  \\    /   O peration     | Version:  v2012                                 |
|   \\  /    A nd           | Website:  www.openfoam.com                      |
|    \\/     M anipulation  |                                                 |
\*---------------------------------------------------------------------------*/
FoamFile
{
    version     2.0;
    format      ascii;
    class       volVectorField;
    location    "12.5";
    object      wallShearStress;
}
// * * * * * * * * * * * * * * * * * * * * * * * * * * * * * * * * * * * * * //

dimensions      [0 2 -2 0 0 0 0];


internalField   uniform (0 0 0);

boundaryField
{
    inlet
    {
        type            calculated;
        value           uniform (0 0 0);
    }
    outlet
    {
        type            calculated;
        value           uniform (0 0 0);
    }
    topWall
    {
        type            calculated;
        value           nonuniform List<vector> 
545
(
(1.33902e-08 -9.4189e-09 0)
(1.33884e-08 -2.63787e-08 0)
(1.33627e-08 -4.3988e-08 0)
(1.33393e-08 -6.10757e-08 0)
(1.33124e-08 -7.74196e-08 0)
(1.3281e-08 -9.3228e-08 0)
(1.32451e-08 -1.08635e-07 0)
(1.3205e-08 -1.23633e-07 0)
(1.3161e-08 -1.38187e-07 0)
(1.31136e-08 -1.52295e-07 0)
(1.3063e-08 -1.65977e-07 0)
(1.30096e-08 -1.79247e-07 0)
(1.29538e-08 -1.92115e-07 0)
(1.28957e-08 -2.04588e-07 0)
(1.28358e-08 -2.16677e-07 0)
(1.27741e-08 -2.28391e-07 0)
(1.2711e-08 -2.39741e-07 0)
(1.26467e-08 -2.50736e-07 0)
(1.25814e-08 -2.61386e-07 0)
(1.25152e-08 -2.71702e-07 0)
(1.24483e-08 -2.81692e-07 0)
(1.2381e-08 -2.91367e-07 0)
(1.23133e-08 -3.00735e-07 0)
(1.22453e-08 -3.09806e-07 0)
(1.21773e-08 -3.18589e-07 0)
(1.21093e-08 -3.27093e-07 0)
(1.20414e-08 -3.35326e-07 0)
(1.19737e-08 -3.43297e-07 0)
(1.19063e-08 -3.51014e-07 0)
(1.18394e-08 -3.58485e-07 0)
(1.17728e-08 -3.65719e-07 0)
(1.17068e-08 -3.72722e-07 0)
(1.16414e-08 -3.79503e-07 0)
(1.15766e-08 -3.86067e-07 0)
(1.15124e-08 -3.92423e-07 0)
(1.1449e-08 -3.98578e-07 0)
(1.13864e-08 -4.04537e-07 0)
(1.13245e-08 -4.10307e-07 0)
(1.12635e-08 -4.15895e-07 0)
(1.12033e-08 -4.21307e-07 0)
(1.1144e-08 -4.26547e-07 0)
(1.10855e-08 -4.31623e-07 0)
(1.10279e-08 -4.36539e-07 0)
(1.09713e-08 -4.413e-07 0)
(1.09156e-08 -4.45913e-07 0)
(1.08607e-08 -4.50381e-07 0)
(1.08068e-08 -4.54709e-07 0)
(1.07539e-08 -4.58903e-07 0)
(1.07018e-08 -4.62966e-07 0)
(1.06507e-08 -4.66903e-07 0)
(1.06006e-08 -4.70718e-07 0)
(1.05513e-08 -4.74415e-07 0)
(1.05029e-08 -4.77997e-07 0)
(1.04555e-08 -4.8147e-07 0)
(1.04089e-08 -4.84836e-07 0)
(1.03633e-08 -4.88098e-07 0)
(1.03185e-08 -4.91261e-07 0)
(1.02746e-08 -4.94327e-07 0)
(1.02315e-08 -4.973e-07 0)
(1.01893e-08 -5.00182e-07 0)
(1.01479e-08 -5.02977e-07 0)
(1.01074e-08 -5.05687e-07 0)
(1.00676e-08 -5.08315e-07 0)
(1.00287e-08 -5.10864e-07 0)
(9.9905e-09 -5.13336e-07 0)
(9.95308e-09 -5.15734e-07 0)
(9.9164e-09 -5.1806e-07 0)
(9.88046e-09 -5.20316e-07 0)
(9.84526e-09 -5.22506e-07 0)
(9.81068e-09 -5.24628e-07 0)
(9.7771e-09 -5.26693e-07 0)
(9.74292e-09 -5.28683e-07 0)
(9.71012e-09 -5.306e-07 0)
(9.68024e-09 -5.32467e-07 0)
(9.65064e-09 -5.34298e-07 0)
(9.62114e-09 -5.36118e-07 0)
(9.5917e-09 -5.3793e-07 0)
(9.56232e-09 -5.39729e-07 0)
(9.533e-09 -5.41513e-07 0)
(9.50373e-09 -5.43282e-07 0)
(9.47452e-09 -5.45039e-07 0)
(9.44536e-09 -5.46782e-07 0)
(9.41626e-09 -5.48512e-07 0)
(9.38723e-09 -5.50228e-07 0)
(9.35825e-09 -5.51931e-07 0)
(9.32933e-09 -5.53622e-07 0)
(9.30048e-09 -5.55299e-07 0)
(9.27168e-09 -5.56964e-07 0)
(9.24296e-09 -5.58616e-07 0)
(9.21429e-09 -5.60255e-07 0)
(9.1857e-09 -5.61882e-07 0)
(9.15714e-09 -5.63495e-07 0)
(9.12878e-09 -5.651e-07 0)
(9.0999e-09 -5.66682e-07 0)
(9.07363e-09 -5.68294e-07 0)
(9.03663e-09 -5.69801e-07 0)
(8.99812e-09 -5.71192e-07 0)
(8.97351e-09 -5.72539e-07 0)
(8.9505e-09 -5.73776e-07 0)
(8.9278e-09 -5.75006e-07 0)
(8.90511e-09 -5.76261e-07 0)
(8.88236e-09 -5.77526e-07 0)
(8.85952e-09 -5.78786e-07 0)
(8.8366e-09 -5.80042e-07 0)
(8.81359e-09 -5.81297e-07 0)
(8.79049e-09 -5.82554e-07 0)
(8.76731e-09 -5.8381e-07 0)
(8.74404e-09 -5.85065e-07 0)
(8.72068e-09 -5.86321e-07 0)
(8.69723e-09 -5.87575e-07 0)
(8.6737e-09 -5.88829e-07 0)
(8.65008e-09 -5.90083e-07 0)
(8.62637e-09 -5.91337e-07 0)
(8.60257e-09 -5.9259e-07 0)
(8.57869e-09 -5.93842e-07 0)
(8.55472e-09 -5.95094e-07 0)
(8.53066e-09 -5.96345e-07 0)
(8.50651e-09 -5.97596e-07 0)
(8.48227e-09 -5.98846e-07 0)
(8.45795e-09 -6.00095e-07 0)
(8.43354e-09 -6.01344e-07 0)
(8.40904e-09 -6.02592e-07 0)
(8.38445e-09 -6.03839e-07 0)
(8.35977e-09 -6.05086e-07 0)
(8.33501e-09 -6.06332e-07 0)
(8.31016e-09 -6.07577e-07 0)
(8.28522e-09 -6.08821e-07 0)
(8.26019e-09 -6.10065e-07 0)
(8.23507e-09 -6.11307e-07 0)
(8.20987e-09 -6.12549e-07 0)
(8.18457e-09 -6.1379e-07 0)
(8.15919e-09 -6.1503e-07 0)
(8.13373e-09 -6.16269e-07 0)
(8.10817e-09 -6.17507e-07 0)
(8.08253e-09 -6.18744e-07 0)
(8.05679e-09 -6.1998e-07 0)
(8.03097e-09 -6.21215e-07 0)
(8.00506e-09 -6.22449e-07 0)
(7.97907e-09 -6.23682e-07 0)
(7.95299e-09 -6.24914e-07 0)
(7.92681e-09 -6.26144e-07 0)
(7.90056e-09 -6.27374e-07 0)
(7.87421e-09 -6.28602e-07 0)
(7.84778e-09 -6.29829e-07 0)
(7.82125e-09 -6.31054e-07 0)
(7.79465e-09 -6.32279e-07 0)
(7.76795e-09 -6.33502e-07 0)
(7.74117e-09 -6.34724e-07 0)
(7.7143e-09 -6.35944e-07 0)
(7.68734e-09 -6.37163e-07 0)
(7.66029e-09 -6.38381e-07 0)
(7.63316e-09 -6.39597e-07 0)
(7.60595e-09 -6.40812e-07 0)
(7.57864e-09 -6.42025e-07 0)
(7.55125e-09 -6.43237e-07 0)
(7.52377e-09 -6.44447e-07 0)
(7.49621e-09 -6.45656e-07 0)
(7.46856e-09 -6.46863e-07 0)
(7.44083e-09 -6.48068e-07 0)
(7.41301e-09 -6.49272e-07 0)
(7.3851e-09 -6.50474e-07 0)
(7.35711e-09 -6.51675e-07 0)
(7.32903e-09 -6.52873e-07 0)
(7.30087e-09 -6.5407e-07 0)
(7.27262e-09 -6.55265e-07 0)
(7.24429e-09 -6.56458e-07 0)
(7.21587e-09 -6.5765e-07 0)
(7.18737e-09 -6.58839e-07 0)
(7.15878e-09 -6.60026e-07 0)
(7.13011e-09 -6.61212e-07 0)
(7.10136e-09 -6.62396e-07 0)
(7.07252e-09 -6.63577e-07 0)
(7.0436e-09 -6.64757e-07 0)
(7.0146e-09 -6.65934e-07 0)
(6.98551e-09 -6.6711e-07 0)
(6.95635e-09 -6.68283e-07 0)
(6.92709e-09 -6.69454e-07 0)
(6.89776e-09 -6.70623e-07 0)
(6.86834e-09 -6.71789e-07 0)
(6.83885e-09 -6.72954e-07 0)
(6.80927e-09 -6.74116e-07 0)
(6.77961e-09 -6.75276e-07 0)
(6.74987e-09 -6.76433e-07 0)
(6.72005e-09 -6.77588e-07 0)
(6.69015e-09 -6.78741e-07 0)
(6.66016e-09 -6.79891e-07 0)
(6.6301e-09 -6.81039e-07 0)
(6.59996e-09 -6.82184e-07 0)
(6.56974e-09 -6.83326e-07 0)
(6.53945e-09 -6.84467e-07 0)
(6.50907e-09 -6.85604e-07 0)
(6.47861e-09 -6.86739e-07 0)
(6.44808e-09 -6.87871e-07 0)
(6.41747e-09 -6.89001e-07 0)
(6.38679e-09 -6.90127e-07 0)
(6.35602e-09 -6.91251e-07 0)
(6.32518e-09 -6.92373e-07 0)
(6.29427e-09 -6.93491e-07 0)
(6.26328e-09 -6.94607e-07 0)
(6.23221e-09 -6.95719e-07 0)
(6.20107e-09 -6.96829e-07 0)
(6.16986e-09 -6.97936e-07 0)
(6.13857e-09 -6.99039e-07 0)
(6.10721e-09 -7.0014e-07 0)
(6.07577e-09 -7.01238e-07 0)
(6.04426e-09 -7.02332e-07 0)
(6.01268e-09 -7.03424e-07 0)
(5.98103e-09 -7.04512e-07 0)
(5.94931e-09 -7.05597e-07 0)
(5.91752e-09 -7.06679e-07 0)
(5.88565e-09 -7.07757e-07 0)
(5.85372e-09 -7.08832e-07 0)
(5.82171e-09 -7.09904e-07 0)
(5.78964e-09 -7.10973e-07 0)
(5.7575e-09 -7.12038e-07 0)
(5.7253e-09 -7.131e-07 0)
(5.69302e-09 -7.14158e-07 0)
(5.66068e-09 -7.15212e-07 0)
(5.62827e-09 -7.16264e-07 0)
(5.5958e-09 -7.17311e-07 0)
(5.56326e-09 -7.18355e-07 0)
(5.53065e-09 -7.19395e-07 0)
(5.49798e-09 -7.20432e-07 0)
(5.46525e-09 -7.21465e-07 0)
(5.43246e-09 -7.22494e-07 0)
(5.3996e-09 -7.23519e-07 0)
(5.36668e-09 -7.24541e-07 0)
(5.33371e-09 -7.25559e-07 0)
(5.30067e-09 -7.26572e-07 0)
(5.26757e-09 -7.27582e-07 0)
(5.23441e-09 -7.28588e-07 0)
(5.20119e-09 -7.2959e-07 0)
(5.16791e-09 -7.30588e-07 0)
(5.13458e-09 -7.31581e-07 0)
(5.10119e-09 -7.32571e-07 0)
(5.06774e-09 -7.33557e-07 0)
(5.03424e-09 -7.34538e-07 0)
(5.00069e-09 -7.35515e-07 0)
(4.96708e-09 -7.36488e-07 0)
(4.93342e-09 -7.37456e-07 0)
(4.8997e-09 -7.38421e-07 0)
(4.86593e-09 -7.3938e-07 0)
(4.83211e-09 -7.40336e-07 0)
(4.79824e-09 -7.41287e-07 0)
(4.76433e-09 -7.42233e-07 0)
(4.73036e-09 -7.43175e-07 0)
(4.69634e-09 -7.44113e-07 0)
(4.66228e-09 -7.45046e-07 0)
(4.62817e-09 -7.45974e-07 0)
(4.59401e-09 -7.46898e-07 0)
(4.55981e-09 -7.47817e-07 0)
(4.52557e-09 -7.48731e-07 0)
(4.49128e-09 -7.4964e-07 0)
(4.45695e-09 -7.50545e-07 0)
(4.42257e-09 -7.51445e-07 0)
(4.38816e-09 -7.5234e-07 0)
(4.3537e-09 -7.5323e-07 0)
(4.31921e-09 -7.54115e-07 0)
(4.28468e-09 -7.54995e-07 0)
(4.25011e-09 -7.5587e-07 0)
(4.2155e-09 -7.5674e-07 0)
(4.18086e-09 -7.57605e-07 0)
(4.14618e-09 -7.58465e-07 0)
(4.11147e-09 -7.5932e-07 0)
(4.0767e-09 -7.60169e-07 0)
(4.042e-09 -7.61016e-07 0)
(4.00688e-09 -7.61847e-07 0)
(3.97333e-09 -7.62716e-07 0)
(3.93287e-09 -7.63494e-07 0)
(3.89152e-09 -7.64243e-07 0)
(3.8594e-09 -7.65048e-07 0)
(3.82859e-09 -7.65767e-07 0)
(3.7979e-09 -7.66476e-07 0)
(3.767e-09 -7.67205e-07 0)
(3.73581e-09 -7.67946e-07 0)
(3.70431e-09 -7.68686e-07 0)
(3.6725e-09 -7.69424e-07 0)
(3.64038e-09 -7.70164e-07 0)
(3.60794e-09 -7.70905e-07 0)
(3.57518e-09 -7.71649e-07 0)
(3.5421e-09 -7.72393e-07 0)
(3.50871e-09 -7.73139e-07 0)
(3.47499e-09 -7.73885e-07 0)
(3.44095e-09 -7.74632e-07 0)
(3.40659e-09 -7.7538e-07 0)
(3.3719e-09 -7.76128e-07 0)
(3.33688e-09 -7.76877e-07 0)
(3.30154e-09 -7.77626e-07 0)
(3.26588e-09 -7.78374e-07 0)
(3.22988e-09 -7.79123e-07 0)
(3.19356e-09 -7.79872e-07 0)
(3.15691e-09 -7.80619e-07 0)
(3.11993e-09 -7.81367e-07 0)
(3.08262e-09 -7.82113e-07 0)
(3.04497e-09 -7.82859e-07 0)
(3.007e-09 -7.83603e-07 0)
(2.9687e-09 -7.84346e-07 0)
(2.93006e-09 -7.85087e-07 0)
(2.8911e-09 -7.85826e-07 0)
(2.8518e-09 -7.86564e-07 0)
(2.81217e-09 -7.87299e-07 0)
(2.77221e-09 -7.88032e-07 0)
(2.73192e-09 -7.88762e-07 0)
(2.6913e-09 -7.89489e-07 0)
(2.65036e-09 -7.90213e-07 0)
(2.60908e-09 -7.90933e-07 0)
(2.56747e-09 -7.9165e-07 0)
(2.52554e-09 -7.92363e-07 0)
(2.48328e-09 -7.93071e-07 0)
(2.4407e-09 -7.93776e-07 0)
(2.39779e-09 -7.94475e-07 0)
(2.35457e-09 -7.9517e-07 0)
(2.31102e-09 -7.95859e-07 0)
(2.26715e-09 -7.96543e-07 0)
(2.22297e-09 -7.97221e-07 0)
(2.17847e-09 -7.97892e-07 0)
(2.13366e-09 -7.98557e-07 0)
(2.08853e-09 -7.99216e-07 0)
(2.04311e-09 -7.99867e-07 0)
(1.99737e-09 -8.0051e-07 0)
(1.95134e-09 -8.01146e-07 0)
(1.905e-09 -8.01774e-07 0)
(1.85837e-09 -8.02393e-07 0)
(1.81145e-09 -8.03003e-07 0)
(1.76424e-09 -8.03605e-07 0)
(1.71674e-09 -8.04196e-07 0)
(1.66897e-09 -8.04778e-07 0)
(1.62091e-09 -8.05349e-07 0)
(1.57259e-09 -8.05909e-07 0)
(1.524e-09 -8.06459e-07 0)
(1.47514e-09 -8.06997e-07 0)
(1.42603e-09 -8.07522e-07 0)
(1.37667e-09 -8.08036e-07 0)
(1.32706e-09 -8.08536e-07 0)
(1.27721e-09 -8.09024e-07 0)
(1.22712e-09 -8.09498e-07 0)
(1.17681e-09 -8.09957e-07 0)
(1.12628e-09 -8.10403e-07 0)
(1.07553e-09 -8.10833e-07 0)
(1.02458e-09 -8.11247e-07 0)
(9.73424e-10 -8.11646e-07 0)
(9.22078e-10 -8.12028e-07 0)
(8.70548e-10 -8.12394e-07 0)
(8.18841e-10 -8.12742e-07 0)
(7.66968e-10 -8.13072e-07 0)
(7.14935e-10 -8.13384e-07 0)
(6.62753e-10 -8.13677e-07 0)
(6.10431e-10 -8.1395e-07 0)
(5.57979e-10 -8.14204e-07 0)
(5.05406e-10 -8.14437e-07 0)
(4.52723e-10 -8.14649e-07 0)
(3.99941e-10 -8.1484e-07 0)
(3.4707e-10 -8.15009e-07 0)
(2.94121e-10 -8.15155e-07 0)
(2.41106e-10 -8.15278e-07 0)
(1.88038e-10 -8.15378e-07 0)
(1.34927e-10 -8.15453e-07 0)
(8.17873e-11 -8.15504e-07 0)
(2.86304e-11 -8.15529e-07 0)
(-2.453e-11 -8.15528e-07 0)
(-7.76808e-11 -8.15501e-07 0)
(-1.30808e-10 -8.15447e-07 0)
(-1.83898e-10 -8.15366e-07 0)
(-2.36936e-10 -8.15256e-07 0)
(-2.89908e-10 -8.15118e-07 0)
(-3.42798e-10 -8.1495e-07 0)
(-3.95592e-10 -8.14752e-07 0)
(-4.48274e-10 -8.14525e-07 0)
(-5.00829e-10 -8.14266e-07 0)
(-5.53239e-10 -8.13975e-07 0)
(-6.05489e-10 -8.13653e-07 0)
(-6.57562e-10 -8.13297e-07 0)
(-7.09441e-10 -8.12909e-07 0)
(-7.61108e-10 -8.12486e-07 0)
(-8.12548e-10 -8.12029e-07 0)
(-8.63741e-10 -8.11538e-07 0)
(-9.1467e-10 -8.1101e-07 0)
(-9.65317e-10 -8.10447e-07 0)
(-1.01566e-09 -8.09847e-07 0)
(-1.06569e-09 -8.0921e-07 0)
(-1.11538e-09 -8.08535e-07 0)
(-1.16471e-09 -8.07822e-07 0)
(-1.21367e-09 -8.07071e-07 0)
(-1.26223e-09 -8.0628e-07 0)
(-1.31037e-09 -8.05449e-07 0)
(-1.35808e-09 -8.04578e-07 0)
(-1.40534e-09 -8.03667e-07 0)
(-1.45212e-09 -8.02714e-07 0)
(-1.49841e-09 -8.01719e-07 0)
(-1.54419e-09 -8.00683e-07 0)
(-1.58943e-09 -7.99604e-07 0)
(-1.63412e-09 -7.98482e-07 0)
(-1.67824e-09 -7.97316e-07 0)
(-1.72176e-09 -7.96107e-07 0)
(-1.76467e-09 -7.94854e-07 0)
(-1.80695e-09 -7.93556e-07 0)
(-1.84857e-09 -7.92213e-07 0)
(-1.88952e-09 -7.90826e-07 0)
(-1.92978e-09 -7.89392e-07 0)
(-1.96933e-09 -7.87913e-07 0)
(-2.00814e-09 -7.86388e-07 0)
(-2.04621e-09 -7.84816e-07 0)
(-2.08351e-09 -7.83198e-07 0)
(-2.12002e-09 -7.81534e-07 0)
(-2.15572e-09 -7.79822e-07 0)
(-2.1906e-09 -7.78063e-07 0)
(-2.22464e-09 -7.76257e-07 0)
(-2.25782e-09 -7.74403e-07 0)
(-2.29013e-09 -7.72502e-07 0)
(-2.32154e-09 -7.70554e-07 0)
(-2.35204e-09 -7.68558e-07 0)
(-2.38162e-09 -7.66514e-07 0)
(-2.41026e-09 -7.64423e-07 0)
(-2.43795e-09 -7.62284e-07 0)
(-2.46467e-09 -7.60098e-07 0)
(-2.4904e-09 -7.57865e-07 0)
(-2.51514e-09 -7.55584e-07 0)
(-2.53887e-09 -7.53256e-07 0)
(-2.56158e-09 -7.50882e-07 0)
(-2.58326e-09 -7.4846e-07 0)
(-2.6039e-09 -7.45993e-07 0)
(-2.62349e-09 -7.43479e-07 0)
(-2.64202e-09 -7.40919e-07 0)
(-2.65948e-09 -7.38314e-07 0)
(-2.67586e-09 -7.35664e-07 0)
(-2.69115e-09 -7.3297e-07 0)
(-2.70536e-09 -7.30231e-07 0)
(-2.71848e-09 -7.27448e-07 0)
(-2.73049e-09 -7.24622e-07 0)
(-2.7414e-09 -7.21753e-07 0)
(-2.75121e-09 -7.18843e-07 0)
(-2.7599e-09 -7.1589e-07 0)
(-2.76749e-09 -7.12897e-07 0)
(-2.77397e-09 -7.09864e-07 0)
(-2.77934e-09 -7.06791e-07 0)
(-2.78361e-09 -7.0368e-07 0)
(-2.78677e-09 -7.0053e-07 0)
(-2.78882e-09 -6.97344e-07 0)
(-2.78979e-09 -6.94121e-07 0)
(-2.78965e-09 -6.90863e-07 0)
(-2.78844e-09 -6.8757e-07 0)
(-2.78614e-09 -6.84243e-07 0)
(-2.78277e-09 -6.80884e-07 0)
(-2.77833e-09 -6.77493e-07 0)
(-2.77284e-09 -6.74071e-07 0)
(-2.7663e-09 -6.7062e-07 0)
(-2.75876e-09 -6.67137e-07 0)
(-2.75004e-09 -6.63638e-07 0)
(-2.74093e-09 -6.60061e-07 0)
(-2.7282e-09 -6.56533e-07 0)
(-2.71236e-09 -6.52605e-07 0)
(-2.6969e-09 -6.48183e-07 0)
(-2.68041e-09 -6.43824e-07 0)
(-2.66285e-09 -6.39508e-07 0)
(-2.64426e-09 -6.35219e-07 0)
(-2.62471e-09 -6.30955e-07 0)
(-2.60426e-09 -6.26723e-07 0)
(-2.58296e-09 -6.22527e-07 0)
(-2.56088e-09 -6.18366e-07 0)
(-2.53806e-09 -6.14241e-07 0)
(-2.51457e-09 -6.10154e-07 0)
(-2.49044e-09 -6.06105e-07 0)
(-2.46573e-09 -6.02096e-07 0)
(-2.44049e-09 -5.98128e-07 0)
(-2.41474e-09 -5.942e-07 0)
(-2.38854e-09 -5.90315e-07 0)
(-2.36193e-09 -5.86472e-07 0)
(-2.33492e-09 -5.82673e-07 0)
(-2.30757e-09 -5.78918e-07 0)
(-2.2799e-09 -5.75207e-07 0)
(-2.25193e-09 -5.71542e-07 0)
(-2.2237e-09 -5.67922e-07 0)
(-2.19524e-09 -5.64347e-07 0)
(-2.16656e-09 -5.60819e-07 0)
(-2.13768e-09 -5.57338e-07 0)
(-2.10864e-09 -5.53903e-07 0)
(-2.07944e-09 -5.50516e-07 0)
(-2.05011e-09 -5.47176e-07 0)
(-2.02065e-09 -5.43884e-07 0)
(-1.9911e-09 -5.40639e-07 0)
(-1.96145e-09 -5.37442e-07 0)
(-1.93172e-09 -5.34293e-07 0)
(-1.90193e-09 -5.31193e-07 0)
(-1.87208e-09 -5.2814e-07 0)
(-1.84218e-09 -5.25136e-07 0)
(-1.81225e-09 -5.2218e-07 0)
(-1.78228e-09 -5.19273e-07 0)
(-1.75229e-09 -5.16414e-07 0)
(-1.72228e-09 -5.13604e-07 0)
(-1.69225e-09 -5.10843e-07 0)
(-1.66222e-09 -5.0813e-07 0)
(-1.63218e-09 -5.05465e-07 0)
(-1.60213e-09 -5.02849e-07 0)
(-1.57209e-09 -5.00282e-07 0)
(-1.54205e-09 -4.97764e-07 0)
(-1.51201e-09 -4.95294e-07 0)
(-1.48198e-09 -4.92872e-07 0)
(-1.45195e-09 -4.90499e-07 0)
(-1.42193e-09 -4.88175e-07 0)
(-1.39191e-09 -4.85899e-07 0)
(-1.3619e-09 -4.83672e-07 0)
(-1.3319e-09 -4.81493e-07 0)
(-1.3019e-09 -4.79363e-07 0)
(-1.2719e-09 -4.77282e-07 0)
(-1.2419e-09 -4.75248e-07 0)
(-1.21191e-09 -4.73264e-07 0)
(-1.18191e-09 -4.71328e-07 0)
(-1.15191e-09 -4.6944e-07 0)
(-1.12191e-09 -4.67601e-07 0)
(-1.0919e-09 -4.65811e-07 0)
(-1.06189e-09 -4.64069e-07 0)
(-1.03187e-09 -4.62376e-07 0)
(-1.00183e-09 -4.60731e-07 0)
(-9.71789e-10 -4.59135e-07 0)
(-9.4173e-10 -4.57587e-07 0)
(-9.11656e-10 -4.56088e-07 0)
(-8.81565e-10 -4.54638e-07 0)
(-8.51456e-10 -4.53236e-07 0)
(-8.21328e-10 -4.51883e-07 0)
(-7.9118e-10 -4.50579e-07 0)
(-7.61011e-10 -4.49324e-07 0)
(-7.30819e-10 -4.48117e-07 0)
(-7.00604e-10 -4.46959e-07 0)
(-6.70366e-10 -4.4585e-07 0)
(-6.40104e-10 -4.44791e-07 0)
(-6.09818e-10 -4.4378e-07 0)
(-5.79507e-10 -4.42818e-07 0)
(-5.49172e-10 -4.41905e-07 0)
(-5.18812e-10 -4.41041e-07 0)
(-4.88429e-10 -4.40226e-07 0)
(-4.58021e-10 -4.39461e-07 0)
(-4.2759e-10 -4.38744e-07 0)
(-3.97137e-10 -4.38077e-07 0)
(-3.66663e-10 -4.3746e-07 0)
(-3.3617e-10 -4.36891e-07 0)
(-3.05661e-10 -4.36374e-07 0)
(-2.75139e-10 -4.35895e-07 0)
(-2.44618e-10 -4.35505e-07 0)
(-2.14074e-10 -4.35033e-07 0)
(-1.83623e-10 -4.35041e-07 0)
(-1.52891e-10 -4.3364e-07 0)
(-1.2322e-10 -4.36942e-07 0)
(-8.97181e-11 -4.237e-07 0)
(-7.06932e-11 -4.58361e-07 0)
(-3.55343e-11 -4.00258e-07 0)
)
;
    }
    bottomWall
    {
        type            calculated;
        value           nonuniform List<vector> 
449
(
(-48.6369 -0.96557 0)
(-19.79 -0.00516691 0)
(-14.3715 -0.00113713 0)
(-12.057 -0.000546634 0)
(-10.648 -0.000352221 0)
(-9.65217 -0.000256499 0)
(-8.89266 -0.000198846 0)
(-8.28812 -0.000160068 0)
(-7.792 -0.000132488 0)
(-7.37497 -0.000112062 0)
(-7.01782 -9.63883e-05 0)
(-6.70751 -8.4012e-05 0)
(-6.43471 -7.40277e-05 0)
(-6.1925 -6.58367e-05 0)
(-5.97562 -5.90195e-05 0)
(-5.78 -5.32735e-05 0)
(-5.60242 -4.83766e-05 0)
(-5.44031 -4.41632e-05 0)
(-5.2916 -4.05073e-05 0)
(-5.15456 -3.73115e-05 0)
(-5.02778 -3.44989e-05 0)
(-4.91007 -3.20086e-05 0)
(-4.80041 -2.97916e-05 0)
(-4.69796 -2.78079e-05 0)
(-4.60197 -2.60249e-05 0)
(-4.51181 -2.44155e-05 0)
(-4.42693 -2.29573e-05 0)
(-4.34684 -2.16313e-05 0)
(-4.27113 -2.04214e-05 0)
(-4.19941 -1.93142e-05 0)
(-4.13137 -1.82979e-05 0)
(-4.0667 -1.73627e-05 0)
(-4.00515 -1.64999e-05 0)
(-3.94648 -1.57019e-05 0)
(-3.89047 -1.49623e-05 0)
(-3.83695 -1.42754e-05 0)
(-3.78573 -1.3636e-05 0)
(-3.73666 -1.304e-05 0)
(-3.68961 -1.24832e-05 0)
(-3.64443 -1.19623e-05 0)
(-3.60102 -1.14741e-05 0)
(-3.55926 -1.10159e-05 0)
(-3.51906 -1.05853e-05 0)
(-3.48032 -1.01799e-05 0)
(-3.44296 -9.7979e-06 0)
(-3.40691 -9.4374e-06 0)
(-3.37209 -9.09681e-06 0)
(-3.33844 -8.77464e-06 0)
(-3.30589 -8.46957e-06 0)
(-3.27439 -8.18038e-06 0)
(-3.24388 -7.90595e-06 0)
(-3.21432 -7.64529e-06 0)
(-3.18566 -7.39746e-06 0)
(-3.15786 -7.16162e-06 0)
(-3.13087 -6.937e-06 0)
(-3.10466 -6.72287e-06 0)
(-3.07919 -6.51859e-06 0)
(-3.05444 -6.32354e-06 0)
(-3.03036 -6.13717e-06 0)
(-3.00693 -5.95896e-06 0)
(-2.98413 -5.78843e-06 0)
(-2.96192 -5.62514e-06 0)
(-2.94028 -5.46867e-06 0)
(-2.91919 -5.31865e-06 0)
(-2.89863 -5.17472e-06 0)
(-2.87857 -5.03654e-06 0)
(-2.859 -4.90382e-06 0)
(-2.8399 -4.77626e-06 0)
(-2.82125 -4.65359e-06 0)
(-2.80303 -4.53557e-06 0)
(-2.78523 -4.42195e-06 0)
(-2.76783 -4.31252e-06 0)
(-2.75082 -4.20707e-06 0)
(-2.73419 -4.10541e-06 0)
(-2.71791 -4.00736e-06 0)
(-2.70199 -3.91274e-06 0)
(-2.6864 -3.82139e-06 0)
(-2.67114 -3.73317e-06 0)
(-2.6562 -3.64792e-06 0)
(-2.64156 -3.56552e-06 0)
(-2.62721 -3.48584e-06 0)
(-2.61315 -3.40876e-06 0)
(-2.59937 -3.33416e-06 0)
(-2.58586 -3.26195e-06 0)
(-2.5726 -3.192e-06 0)
(-2.5596 -3.12425e-06 0)
(-2.54685 -3.05858e-06 0)
(-2.53433 -2.99491e-06 0)
(-2.52204 -2.93317e-06 0)
(-2.50998 -2.87328e-06 0)
(-2.49813 -2.81516e-06 0)
(-2.4865 -2.75874e-06 0)
(-2.47507 -2.70395e-06 0)
(-2.46384 -2.65074e-06 0)
(-2.45281 -2.59904e-06 0)
(-2.44196 -2.54879e-06 0)
(-2.4313 -2.49995e-06 0)
(-2.42081 -2.45245e-06 0)
(-2.4105 -2.40626e-06 0)
(-2.40036 -2.36131e-06 0)
(-2.39039 -2.31757e-06 0)
(-2.38058 -2.275e-06 0)
(-2.37092 -2.23355e-06 0)
(-2.36142 -2.19318e-06 0)
(-2.35206 -2.15385e-06 0)
(-2.34285 -2.11554e-06 0)
(-2.33379 -2.0782e-06 0)
(-2.32486 -2.0418e-06 0)
(-2.31607 -2.00632e-06 0)
(-2.30741 -1.97171e-06 0)
(-2.29887 -1.93796e-06 0)
(-2.29047 -1.90502e-06 0)
(-2.28218 -1.87289e-06 0)
(-2.27402 -1.84153e-06 0)
(-2.26598 -1.81091e-06 0)
(-2.25804 -1.78102e-06 0)
(-2.25023 -1.75182e-06 0)
(-2.24252 -1.72331e-06 0)
(-2.23491 -1.69545e-06 0)
(-2.22742 -1.66823e-06 0)
(-2.22002 -1.64163e-06 0)
(-2.21273 -1.61563e-06 0)
(-2.20553 -1.59021e-06 0)
(-2.19844 -1.56536e-06 0)
(-2.19143 -1.54105e-06 0)
(-2.18452 -1.51728e-06 0)
(-2.1777 -1.49402e-06 0)
(-2.17096 -1.47127e-06 0)
(-2.16431 -1.449e-06 0)
(-2.15775 -1.42721e-06 0)
(-2.15127 -1.40587e-06 0)
(-2.14488 -1.38499e-06 0)
(-2.13856 -1.36454e-06 0)
(-2.13232 -1.34451e-06 0)
(-2.12616 -1.32489e-06 0)
(-2.12007 -1.30568e-06 0)
(-2.11406 -1.28685e-06 0)
(-2.10812 -1.2684e-06 0)
(-2.10225 -1.25033e-06 0)
(-2.09645 -1.23261e-06 0)
(-2.09072 -1.21524e-06 0)
(-2.08505 -1.19822e-06 0)
(-2.07946 -1.18152e-06 0)
(-2.07392 -1.16515e-06 0)
(-2.06845 -1.14909e-06 0)
(-2.06305 -1.13334e-06 0)
(-2.0577 -1.1179e-06 0)
(-2.05242 -1.10274e-06 0)
(-2.04719 -1.08787e-06 0)
(-2.04203 -1.07327e-06 0)
(-2.03692 -1.05895e-06 0)
(-2.03186 -1.04488e-06 0)
(-2.02686 -1.03108e-06 0)
(-2.02192 -1.01753e-06 0)
(-2.01703 -1.00422e-06 0)
(-2.01219 -9.91154e-07 0)
(-2.0074 -9.78318e-07 0)
(-2.00267 -9.6571e-07 0)
(-1.99798 -9.53323e-07 0)
(-1.99334 -9.41151e-07 0)
(-1.98875 -9.2919e-07 0)
(-1.98421 -9.17432e-07 0)
(-1.97972 -9.05873e-07 0)
(-1.97527 -8.94505e-07 0)
(-1.97087 -8.83322e-07 0)
(-1.96651 -8.72315e-07 0)
(-1.96219 -8.61479e-07 0)
(-1.95792 -8.50804e-07 0)
(-1.9537 -8.40226e-07 0)
(-1.94951 -8.29949e-07 0)
(-1.94537 -8.19366e-07 0)
(-1.94127 -8.0911e-07 0)
(-1.93721 -8.01032e-07 0)
(-1.9334 -7.94211e-07 0)
(-1.92982 -7.84877e-07 0)
(-1.92626 -7.73763e-07 0)
(-1.92271 -7.64126e-07 0)
(-1.91916 -7.55382e-07 0)
(-1.91561 -7.46951e-07 0)
(-1.91206 -7.38805e-07 0)
(-1.90851 -7.30861e-07 0)
(-1.90497 -7.23077e-07 0)
(-1.90142 -7.15419e-07 0)
(-1.89787 -7.07865e-07 0)
(-1.89432 -7.00398e-07 0)
(-1.89077 -6.93007e-07 0)
(-1.88722 -6.85681e-07 0)
(-1.88367 -6.78415e-07 0)
(-1.88012 -6.71203e-07 0)
(-1.87657 -6.64041e-07 0)
(-1.87302 -6.56926e-07 0)
(-1.86947 -6.49856e-07 0)
(-1.86591 -6.4283e-07 0)
(-1.86236 -6.35847e-07 0)
(-1.85881 -6.28906e-07 0)
(-1.85526 -6.22008e-07 0)
(-1.85171 -6.15151e-07 0)
(-1.84816 -6.08336e-07 0)
(-1.84462 -6.01562e-07 0)
(-1.84107 -5.94831e-07 0)
(-1.83753 -5.88143e-07 0)
(-1.83398 -5.81496e-07 0)
(-1.83044 -5.74893e-07 0)
(-1.82691 -5.68333e-07 0)
(-1.82337 -5.61816e-07 0)
(-1.81984 -5.55342e-07 0)
(-1.81631 -5.48913e-07 0)
(-1.81278 -5.42528e-07 0)
(-1.80926 -5.36188e-07 0)
(-1.80574 -5.29892e-07 0)
(-1.80222 -5.23642e-07 0)
(-1.79871 -5.17437e-07 0)
(-1.7952 -5.11278e-07 0)
(-1.7917 -5.05165e-07 0)
(-1.7882 -4.99098e-07 0)
(-1.7847 -4.93077e-07 0)
(-1.78121 -4.87102e-07 0)
(-1.77773 -4.81175e-07 0)
(-1.77425 -4.75294e-07 0)
(-1.77077 -4.6946e-07 0)
(-1.7673 -4.63673e-07 0)
(-1.76384 -4.57934e-07 0)
(-1.76038 -4.52242e-07 0)
(-1.75693 -4.46598e-07 0)
(-1.75348 -4.41001e-07 0)
(-1.75004 -4.35452e-07 0)
(-1.74661 -4.2995e-07 0)
(-1.74318 -4.24497e-07 0)
(-1.73976 -4.19091e-07 0)
(-1.73635 -4.13733e-07 0)
(-1.73294 -4.08423e-07 0)
(-1.72954 -4.03161e-07 0)
(-1.72615 -3.97947e-07 0)
(-1.72277 -3.92781e-07 0)
(-1.71939 -3.87662e-07 0)
(-1.71602 -3.82592e-07 0)
(-1.71266 -3.77569e-07 0)
(-1.70931 -3.72594e-07 0)
(-1.70597 -3.67667e-07 0)
(-1.70263 -3.62787e-07 0)
(-1.69931 -3.57954e-07 0)
(-1.69599 -3.5317e-07 0)
(-1.69268 -3.48432e-07 0)
(-1.68938 -3.43742e-07 0)
(-1.68609 -3.39099e-07 0)
(-1.68281 -3.34502e-07 0)
(-1.67954 -3.29953e-07 0)
(-1.67628 -3.2545e-07 0)
(-1.67303 -3.20994e-07 0)
(-1.66978 -3.16584e-07 0)
(-1.66655 -3.12221e-07 0)
(-1.66333 -3.07903e-07 0)
(-1.66011 -3.03632e-07 0)
(-1.65691 -2.99406e-07 0)
(-1.65372 -2.95225e-07 0)
(-1.65054 -2.9109e-07 0)
(-1.64737 -2.87e-07 0)
(-1.64421 -2.82955e-07 0)
(-1.64106 -2.78955e-07 0)
(-1.63792 -2.74999e-07 0)
(-1.63479 -2.71087e-07 0)
(-1.63168 -2.67219e-07 0)
(-1.62857 -2.63395e-07 0)
(-1.62548 -2.59615e-07 0)
(-1.62239 -2.55877e-07 0)
(-1.61932 -2.52183e-07 0)
(-1.61626 -2.48531e-07 0)
(-1.61322 -2.44922e-07 0)
(-1.61018 -2.41356e-07 0)
(-1.60715 -2.37831e-07 0)
(-1.60414 -2.34348e-07 0)
(-1.60114 -2.30906e-07 0)
(-1.59815 -2.27506e-07 0)
(-1.59518 -2.24146e-07 0)
(-1.59221 -2.20827e-07 0)
(-1.58926 -2.17548e-07 0)
(-1.58632 -2.14309e-07 0)
(-1.58339 -2.1111e-07 0)
(-1.58048 -2.07951e-07 0)
(-1.57758 -2.0483e-07 0)
(-1.57469 -2.01748e-07 0)
(-1.57181 -1.98705e-07 0)
(-1.56895 -1.957e-07 0)
(-1.56609 -1.92733e-07 0)
(-1.56326 -1.89804e-07 0)
(-1.56043 -1.86912e-07 0)
(-1.55762 -1.84056e-07 0)
(-1.55482 -1.81238e-07 0)
(-1.55203 -1.78456e-07 0)
(-1.54926 -1.7571e-07 0)
(-1.5465 -1.72999e-07 0)
(-1.54375 -1.70324e-07 0)
(-1.54101 -1.67684e-07 0)
(-1.53829 -1.65079e-07 0)
(-1.53558 -1.62509e-07 0)
(-1.53289 -1.59972e-07 0)
(-1.53021 -1.5747e-07 0)
(-1.52754 -1.55e-07 0)
(-1.52489 -1.52565e-07 0)
(-1.52225 -1.50162e-07 0)
(-1.51962 -1.47791e-07 0)
(-1.517 -1.45453e-07 0)
(-1.5144 -1.43146e-07 0)
(-1.51182 -1.40872e-07 0)
(-1.50924 -1.38628e-07 0)
(-1.50668 -1.36416e-07 0)
(-1.50414 -1.34234e-07 0)
(-1.5016 -1.32082e-07 0)
(-1.49908 -1.29961e-07 0)
(-1.49658 -1.27869e-07 0)
(-1.49409 -1.25807e-07 0)
(-1.49161 -1.23773e-07 0)
(-1.48914 -1.21769e-07 0)
(-1.48669 -1.19793e-07 0)
(-1.48425 -1.17845e-07 0)
(-1.48183 -1.15925e-07 0)
(-1.47942 -1.14032e-07 0)
(-1.47702 -1.12167e-07 0)
(-1.47464 -1.10328e-07 0)
(-1.47227 -1.08516e-07 0)
(-1.46992 -1.06731e-07 0)
(-1.46757 -1.04971e-07 0)
(-1.46525 -1.03237e-07 0)
(-1.46293 -1.01529e-07 0)
(-1.46063 -9.98456e-08 0)
(-1.45834 -9.81872e-08 0)
(-1.45607 -9.65532e-08 0)
(-1.45381 -9.49436e-08 0)
(-1.45156 -9.33579e-08 0)
(-1.44933 -9.17958e-08 0)
(-1.44711 -9.02572e-08 0)
(-1.44491 -8.87416e-08 0)
(-1.44271 -8.72489e-08 0)
(-1.44054 -8.57788e-08 0)
(-1.43837 -8.4331e-08 0)
(-1.43622 -8.29051e-08 0)
(-1.43408 -8.15011e-08 0)
(-1.43196 -8.01185e-08 0)
(-1.42985 -7.87573e-08 0)
(-1.42775 -7.7417e-08 0)
(-1.42566 -7.60975e-08 0)
(-1.42359 -7.47987e-08 0)
(-1.42154 -7.35203e-08 0)
(-1.41949 -7.22622e-08 0)
(-1.41746 -7.10243e-08 0)
(-1.41544 -6.98067e-08 0)
(-1.41344 -6.86097e-08 0)
(-1.41144 -6.74338e-08 0)
(-1.40947 -6.62807e-08 0)
(-1.4075 -6.51512e-08 0)
(-1.40555 -6.40523e-08 0)
(-1.4036 -6.30398e-08 0)
(-1.40167 -6.1893e-08 0)
(-1.39976 -6.10255e-08 0)
(-1.39762 -6.0359e-08 0)
(-1.39529 -5.94163e-08 0)
(-1.393 -5.83377e-08 0)
(-1.39076 -5.70554e-08 0)
(-1.38856 -5.57211e-08 0)
(-1.38643 -5.44232e-08 0)
(-1.38434 -5.31789e-08 0)
(-1.38229 -5.19856e-08 0)
(-1.3803 -5.08392e-08 0)
(-1.37834 -4.97363e-08 0)
(-1.37643 -4.86742e-08 0)
(-1.37456 -4.76501e-08 0)
(-1.37273 -4.66616e-08 0)
(-1.37094 -4.57063e-08 0)
(-1.36918 -4.47825e-08 0)
(-1.36746 -4.38884e-08 0)
(-1.36577 -4.30226e-08 0)
(-1.36412 -4.21836e-08 0)
(-1.3625 -4.13701e-08 0)
(-1.36091 -4.05811e-08 0)
(-1.35935 -3.98153e-08 0)
(-1.35782 -3.90719e-08 0)
(-1.35631 -3.83498e-08 0)
(-1.35484 -3.76481e-08 0)
(-1.35339 -3.69661e-08 0)
(-1.35197 -3.63029e-08 0)
(-1.35057 -3.56578e-08 0)
(-1.3492 -3.50302e-08 0)
(-1.34785 -3.44192e-08 0)
(-1.34653 -3.38244e-08 0)
(-1.34523 -3.32452e-08 0)
(-1.34395 -3.26809e-08 0)
(-1.34269 -3.2131e-08 0)
(-1.34146 -3.15951e-08 0)
(-1.34024 -3.10726e-08 0)
(-1.33904 -3.05631e-08 0)
(-1.33787 -3.00662e-08 0)
(-1.33671 -2.95813e-08 0)
(-1.33557 -2.91082e-08 0)
(-1.33445 -2.86464e-08 0)
(-1.33335 -2.81956e-08 0)
(-1.33227 -2.77554e-08 0)
(-1.3312 -2.73254e-08 0)
(-1.33015 -2.69054e-08 0)
(-1.32911 -2.64951e-08 0)
(-1.32809 -2.60941e-08 0)
(-1.32709 -2.57021e-08 0)
(-1.3261 -2.53189e-08 0)
(-1.32512 -2.49443e-08 0)
(-1.32416 -2.45779e-08 0)
(-1.32322 -2.42196e-08 0)
(-1.32229 -2.3869e-08 0)
(-1.32137 -2.35261e-08 0)
(-1.32046 -2.31904e-08 0)
(-1.31957 -2.2862e-08 0)
(-1.31869 -2.25405e-08 0)
(-1.31782 -2.22257e-08 0)
(-1.31697 -2.19175e-08 0)
(-1.31612 -2.16157e-08 0)
(-1.31529 -2.13202e-08 0)
(-1.31447 -2.10307e-08 0)
(-1.31366 -2.07471e-08 0)
(-1.31286 -2.04693e-08 0)
(-1.31207 -2.01971e-08 0)
(-1.31129 -1.99303e-08 0)
(-1.31053 -1.9669e-08 0)
(-1.30977 -1.94128e-08 0)
(-1.30902 -1.91618e-08 0)
(-1.30828 -1.89157e-08 0)
(-1.30756 -1.86745e-08 0)
(-1.30684 -1.84382e-08 0)
(-1.30613 -1.82065e-08 0)
(-1.30543 -1.79795e-08 0)
(-1.30473 -1.77571e-08 0)
(-1.30405 -1.75391e-08 0)
(-1.30338 -1.73257e-08 0)
(-1.30271 -1.71167e-08 0)
(-1.30205 -1.69122e-08 0)
(-1.3014 -1.67123e-08 0)
(-1.30075 -1.65171e-08 0)
(-1.30012 -1.63267e-08 0)
(-1.29949 -1.61416e-08 0)
(-1.29887 -1.59622e-08 0)
(-1.29825 -1.57894e-08 0)
(-1.29764 -1.56242e-08 0)
(-1.29704 -1.547e-08 0)
(-1.29645 -1.53278e-08 0)
(-1.29585 -1.5209e-08 0)
(-1.29527 -1.51286e-08 0)
(-1.29468 -1.51446e-08 0)
(-1.29409 -1.46052e-08 0)
(-1.29355 -1.93228e-08 0)
(-1.2926 -4.49669e-09 0)
(-1.29321 -1.3503e-08 0)
(-1.29152 -2.24257e-08 0)
)
;
    }
    symmetry
    {
        type            symmetryPlane;
    }
    frontAndBack
    {
        type            empty;
    }
}


// ************************************************************************* //
