/*--------------------------------*- C++ -*----------------------------------*\
| =========                 |                                                 |
| \\      /  F ield         | OpenFOAM: The Open Source CFD Toolbox           |
|  \\    /   O peration     | Version:  v2012                                 |
|   \\  /    A nd           | Website:  www.openfoam.com                      |
|    \\/     M anipulation  |                                                 |
\*---------------------------------------------------------------------------*/
FoamFile
{
    version     2.0;
    format      ascii;
    class       volScalarField;
    location    "12.5";
    object      yPlus;
}
// * * * * * * * * * * * * * * * * * * * * * * * * * * * * * * * * * * * * * //

dimensions      [0 0 0 0 0 0 0];


internalField   uniform 0;

boundaryField
{
    inlet
    {
        type            calculated;
        value           uniform 0;
    }
    outlet
    {
        type            calculated;
        value           uniform 0;
    }
    topWall
    {
        type            calculated;
        value           nonuniform List<scalar> 
545
(
0.0671752
0.115913
0.148677
0.174732
0.196775
0.216046
0.233243
0.248804
0.263027
0.276128
0.288268
0.299571
0.310136
0.320046
0.329365
0.338151
0.346451
0.354307
0.361753
0.368822
0.375542
0.381936
0.388028
0.393836
0.39938
0.404675
0.409736
0.414577
0.419211
0.423649
0.427902
0.43198
0.435891
0.439645
0.44325
0.446712
0.450039
0.453237
0.456313
0.459272
0.46212
0.464861
0.467501
0.470044
0.472494
0.474855
0.477132
0.479327
0.481444
0.483487
0.485458
0.487361
0.489198
0.490972
0.492685
0.49434
0.495939
0.497485
0.498978
0.500422
0.501818
0.503169
0.504475
0.505738
0.50696
0.508143
0.509288
0.510396
0.511468
0.512507
0.513512
0.514486
0.515417
0.516316
0.517207
0.518089
0.518964
0.51983
0.520688
0.521539
0.522381
0.523216
0.524043
0.524862
0.525674
0.526479
0.527276
0.528066
0.528848
0.529624
0.530392
0.531153
0.531908
0.532656
0.533396
0.534131
0.53479
0.535379
0.535967
0.536554
0.537141
0.537726
0.538311
0.538896
0.539479
0.540062
0.540644
0.541225
0.541805
0.542385
0.542963
0.543541
0.544118
0.544694
0.54527
0.545844
0.546418
0.54699
0.547562
0.548133
0.548703
0.549273
0.549841
0.550408
0.550975
0.55154
0.552105
0.552668
0.553231
0.553793
0.554353
0.554913
0.555472
0.55603
0.556587
0.557142
0.557697
0.558251
0.558803
0.559355
0.559906
0.560455
0.561004
0.561551
0.562097
0.562642
0.563186
0.563729
0.564271
0.564812
0.565351
0.56589
0.566427
0.566963
0.567498
0.568032
0.568564
0.569096
0.569626
0.570155
0.570682
0.571209
0.571734
0.572258
0.57278
0.573302
0.573822
0.574341
0.574858
0.575374
0.575889
0.576403
0.576915
0.577426
0.577935
0.578443
0.57895
0.579455
0.579959
0.580462
0.580963
0.581462
0.581961
0.582458
0.582953
0.583447
0.583939
0.58443
0.584919
0.585407
0.585894
0.586379
0.586862
0.587344
0.587824
0.588302
0.58878
0.589255
0.589729
0.590201
0.590672
0.591141
0.591608
0.592074
0.592538
0.593001
0.593461
0.59392
0.594378
0.594833
0.595287
0.595739
0.59619
0.596638
0.597085
0.597531
0.597974
0.598415
0.598855
0.599293
0.599729
0.600164
0.600596
0.601026
0.601455
0.601882
0.602307
0.60273
0.603151
0.60357
0.603987
0.604403
0.604816
0.605228
0.605637
0.606044
0.60645
0.606853
0.607255
0.607654
0.608051
0.608447
0.60884
0.609231
0.60962
0.610007
0.610392
0.610774
0.611155
0.611533
0.61191
0.612284
0.612656
0.613026
0.613393
0.613759
0.614122
0.614483
0.614841
0.615198
0.615552
0.615904
0.616254
0.616601
0.616946
0.617289
0.617629
0.617967
0.618303
0.618617
0.618911
0.619207
0.619503
0.619799
0.620096
0.620394
0.620693
0.620991
0.621291
0.62159
0.62189
0.622191
0.622491
0.622792
0.623092
0.623393
0.623694
0.623995
0.624296
0.624596
0.624896
0.625196
0.625496
0.625795
0.626093
0.626391
0.626688
0.626984
0.62728
0.627574
0.627868
0.62816
0.628451
0.628741
0.62903
0.629317
0.629602
0.629886
0.630168
0.630448
0.630726
0.631002
0.631276
0.631548
0.631817
0.632083
0.632347
0.632608
0.632866
0.633121
0.633373
0.633621
0.633866
0.634108
0.634345
0.634579
0.634809
0.635035
0.635256
0.635473
0.635685
0.635893
0.636095
0.636293
0.636485
0.636672
0.636853
0.637029
0.637198
0.637362
0.637519
0.63767
0.637814
0.637951
0.638081
0.638204
0.638319
0.638427
0.638527
0.638619
0.638703
0.638778
0.638845
0.638903
0.638952
0.638991
0.639021
0.639042
0.639052
0.639053
0.639043
0.639022
0.638991
0.638949
0.638895
0.63883
0.638753
0.638665
0.638564
0.63845
0.638325
0.638186
0.638034
0.637869
0.63769
0.637498
0.637292
0.637071
0.636836
0.636586
0.636321
0.636041
0.635746
0.635435
0.635109
0.634766
0.634407
0.634032
0.633639
0.63323
0.632804
0.632361
0.6319
0.631422
0.630925
0.630411
0.629878
0.629327
0.628757
0.628168
0.627561
0.626934
0.626288
0.625623
0.624938
0.624234
0.62351
0.622766
0.622002
0.621217
0.620413
0.619588
0.618743
0.617878
0.616992
0.616086
0.615159
0.614211
0.613243
0.612254
0.611245
0.610215
0.609164
0.608093
0.607001
0.605889
0.604757
0.603604
0.602431
0.601238
0.600025
0.598793
0.59754
0.596268
0.594977
0.593666
0.592337
0.590989
0.589622
0.588237
0.586834
0.585413
0.583975
0.58252
0.581047
0.579558
0.578053
0.576532
0.574996
0.573443
0.571703
0.569784
0.567869
0.56596
0.564057
0.562162
0.560274
0.558396
0.556527
0.554668
0.55282
0.550983
0.549158
0.547345
0.545546
0.543759
0.541987
0.540229
0.538485
0.536757
0.535044
0.533347
0.531667
0.530002
0.528355
0.526725
0.525112
0.523516
0.521939
0.52038
0.518839
0.517317
0.515814
0.51433
0.512865
0.51142
0.509995
0.508589
0.507203
0.505838
0.504493
0.503169
0.501865
0.500582
0.499321
0.49808
0.496862
0.495664
0.494488
0.493334
0.492203
0.491093
0.490005
0.48894
0.487898
0.486878
0.485881
0.484908
0.483957
0.48303
0.482126
0.481245
0.480389
0.479556
0.478747
0.477962
0.477202
0.476465
0.475754
0.475067
0.474405
0.473767
0.473155
0.472568
0.472006
0.471469
0.470958
0.470472
0.470012
0.469578
0.46917
0.468787
0.468431
0.4681
0.467796
0.467518
0.467266
0.467041
0.466842
0.46667
0.466523
0.466404
0.466309
0.466248
0.466186
)
;
    }
    bottomWall
    {
        type            calculated;
        value           nonuniform List<scalar> 
449
(
0.139603
0.0890484
0.0758846
0.0695059
0.0653184
0.0621891
0.0596922
0.0576275
0.0558762
0.0543603
0.0530278
0.0518421
0.050777
0.0498121
0.0489321
0.0481245
0.0473794
0.0466889
0.0460464
0.0454462
0.0448839
0.0443553
0.0438572
0.0433867
0.0429412
0.0425184
0.0421166
0.0417339
0.0413688
0.0410201
0.0406864
0.0403667
0.04006
0.0397655
0.0394824
0.0392098
0.0389473
0.038694
0.0384496
0.0382135
0.0379852
0.0377643
0.0375505
0.0373432
0.0371423
0.0369473
0.036758
0.0365741
0.0363954
0.0362216
0.0360524
0.0358878
0.0357274
0.0355712
0.0354189
0.0352703
0.0351253
0.0349839
0.0348457
0.0347107
0.0345789
0.03445
0.0343239
0.0342006
0.0340799
0.0339618
0.0338462
0.0337329
0.0336219
0.0335132
0.0334066
0.0333021
0.0331996
0.0330991
0.0330004
0.0329036
0.0328086
0.0327153
0.0326236
0.0325336
0.0324451
0.0323582
0.0322728
0.0321888
0.0321062
0.032025
0.0319451
0.0318665
0.0317891
0.031713
0.0316381
0.0315643
0.0314917
0.0314202
0.0313497
0.0312803
0.031212
0.0311446
0.0310782
0.0310128
0.0309483
0.0308847
0.030822
0.0307601
0.0306992
0.030639
0.0305797
0.0305211
0.0304633
0.0304063
0.0303501
0.0302945
0.0302397
0.0301856
0.0301321
0.0300793
0.0300272
0.0299757
0.0299249
0.0298747
0.029825
0.029776
0.0297275
0.0296797
0.0296323
0.0295856
0.0295393
0.0294936
0.0294484
0.0294038
0.0293596
0.0293159
0.0292727
0.02923
0.0291877
0.0291459
0.0291045
0.0290636
0.0290231
0.0289831
0.0289434
0.0289042
0.0288654
0.0288269
0.0287889
0.0287512
0.028714
0.0286771
0.0286406
0.0286044
0.0285686
0.0285331
0.028498
0.0284632
0.0284288
0.0283946
0.0283608
0.0283274
0.0282942
0.0282614
0.0282288
0.0281966
0.0281646
0.0281329
0.0281016
0.0280705
0.0280397
0.0280091
0.0279789
0.0279489
0.0279192
0.0278898
0.0278606
0.0278332
0.0278074
0.0277817
0.0277561
0.0277305
0.0277048
0.0276792
0.0276535
0.0276278
0.027602
0.0275763
0.0275505
0.0275247
0.0274988
0.0274729
0.027447
0.0274211
0.0273951
0.0273691
0.0273431
0.0273171
0.027291
0.0272649
0.0272388
0.0272127
0.0271866
0.0271605
0.0271343
0.0271082
0.027082
0.0270558
0.0270296
0.0270034
0.0269772
0.026951
0.0269248
0.0268986
0.0268724
0.0268462
0.02682
0.0267938
0.0267676
0.0267414
0.0267153
0.0266891
0.026663
0.0266369
0.0266108
0.0265847
0.0265586
0.0265325
0.0265065
0.0264805
0.0264545
0.0264285
0.0264026
0.0263767
0.0263508
0.026325
0.0262991
0.0262733
0.0262476
0.0262219
0.0261962
0.0261705
0.0261449
0.0261194
0.0260938
0.0260684
0.0260429
0.0260175
0.0259922
0.0259669
0.0259416
0.0259164
0.0258913
0.0258662
0.0258411
0.0258161
0.0257912
0.0257663
0.0257415
0.0257167
0.025692
0.0256673
0.0256427
0.0256182
0.0255937
0.0255693
0.025545
0.0255207
0.0254965
0.0254723
0.0254483
0.0254243
0.0254003
0.0253764
0.0253527
0.0253289
0.0253053
0.0252817
0.0252582
0.0252348
0.0252114
0.0251882
0.025165
0.0251419
0.0251188
0.0250959
0.025073
0.0250502
0.0250275
0.0250048
0.0249823
0.0249598
0.0249375
0.0249152
0.024893
0.0248708
0.0248488
0.0248268
0.024805
0.0247832
0.0247615
0.0247399
0.0247184
0.024697
0.0246757
0.0246544
0.0246333
0.0246123
0.0245913
0.0245704
0.0245497
0.024529
0.0245084
0.0244879
0.0244675
0.0244472
0.024427
0.0244069
0.0243869
0.024367
0.0243471
0.0243274
0.0243078
0.0242882
0.0242688
0.0242495
0.0242302
0.0242111
0.024192
0.0241731
0.0241542
0.0241355
0.0241168
0.0240983
0.0240798
0.0240615
0.0240432
0.024025
0.024007
0.023989
0.0239712
0.0239534
0.0239357
0.0239182
0.0239007
0.0238833
0.0238661
0.0238489
0.0238318
0.0238149
0.023798
0.0237812
0.0237645
0.0237479
0.0237315
0.0237151
0.0236987
0.0236825
0.0236644
0.0236447
0.0236253
0.0236063
0.0235877
0.0235695
0.0235517
0.0235343
0.0235173
0.0235007
0.0234844
0.0234684
0.0234528
0.0234375
0.0234225
0.0234077
0.0233933
0.0233791
0.0233652
0.0233516
0.0233382
0.023325
0.0233121
0.0232995
0.023287
0.0232748
0.0232627
0.0232509
0.0232393
0.0232279
0.0232167
0.0232056
0.0231948
0.0231841
0.0231736
0.0231633
0.0231531
0.0231431
0.0231332
0.0231235
0.023114
0.0231046
0.0230953
0.0230862
0.0230772
0.0230683
0.0230596
0.023051
0.0230425
0.0230342
0.023026
0.0230178
0.0230098
0.023002
0.0229942
0.0229865
0.022979
0.0229715
0.0229641
0.0229569
0.0229497
0.0229426
0.0229357
0.0229288
0.022922
0.0229153
0.0229087
0.0229021
0.0228957
0.0228893
0.022883
0.0228768
0.0228706
0.0228646
0.0228586
0.0228527
0.0228468
0.022841
0.0228353
0.0228297
0.0228241
0.0228186
0.0228131
0.0228077
0.0228024
0.0227971
0.0227918
0.0227866
0.0227815
0.0227763
0.0227712
0.0227664
0.022758
0.0227634
0.0227485
)
;
    }
    symmetry
    {
        type            symmetryPlane;
    }
    frontAndBack
    {
        type            empty;
    }
}


// ************************************************************************* //
