/*--------------------------------*- C++ -*----------------------------------*\
| =========                 |                                                 |
| \\      /  F ield         | OpenFOAM: The Open Source CFD Toolbox           |
|  \\    /   O peration     | Version:  v2012                                 |
|   \\  /    A nd           | Website:  www.openfoam.com                      |
|    \\/     M anipulation  |                                                 |
\*---------------------------------------------------------------------------*/
FoamFile
{
    version     2.0;
    format      ascii;
    class       volScalarField;
    location    "18.5";
    object      k;
}
// * * * * * * * * * * * * * * * * * * * * * * * * * * * * * * * * * * * * * //

dimensions      [0 2 -2 0 0 0 0];


internalField   nonuniform List<scalar> 
209825
(
0.00101928
0.000939234
0.000891409
0.000861822
0.000842207
0.00082842
0.000818259
0.000810531
0.000804485
0.000799672
0.000795764
0.000792556
0.000789883
0.000787642
0.000785736
0.000784114
0.000782711
0.000781499
0.000780439
0.000779522
0.000778706
0.000777991
0.000777347
0.000776794
0.000776281
0.000775828
0.000775415
0.000775064
0.00077473
0.000774442
0.000774165
0.000773954
0.000773715
0.000773514
0.000773333
0.000773199
0.00077305
0.000772926
0.00077281
0.000772733
0.000772615
0.00077253
0.000772465
0.000772408
0.000772269
0.000772251
0.000772243
0.000772237
0.000772226
0.000772202
0.000772115
0.00077216
0.00077216
0.000772159
0.000772137
0.000772243
0.00077228
0.00077228
0.000772426
0.000772455
0.000772455
0.000772542
0.000772677
0.000772877
0.000773026
0.000773176
0.000773266
0.000773409
0.000773524
0.00077373
0.000773892
0.000774091
0.000774228
0.000774456
0.000774616
0.00077485
0.000775021
0.000775314
0.000775507
0.000775817
0.000776004
0.000776377
0.00077659
0.000777037
0.000777295
0.000777834
0.000778137
0.000778776
0.000779141
0.000779964
0.00078037
0.000781774
0.000782055
0.000793594
0.000845008
0.00218855
0.00101928
0.000939232
0.000891402
0.000861811
0.000842193
0.000828404
0.00081824
0.00081051
0.000804464
0.000799649
0.00079574
0.000792532
0.000789859
0.000787616
0.00078571
0.000784088
0.000782685
0.000781472
0.000780411
0.000779495
0.000778678
0.000777963
0.000777319
0.000776766
0.000776252
0.0007758
0.000775386
0.000775035
0.000774701
0.000774413
0.000774136
0.000773924
0.000773686
0.000773484
0.000773304
0.00077317
0.00077302
0.000772897
0.00077278
0.000772703
0.000772586
0.0007725
0.000772435
0.000772378
0.000772239
0.000772221
0.000772213
0.000772207
0.000772196
0.000772172
0.000772086
0.00077213
0.00077213
0.00077213
0.000772107
0.000772213
0.00077225
0.00077225
0.000772396
0.000772425
0.000772425
0.000772512
0.000772646
0.000772846
0.000772995
0.000773146
0.000773235
0.000773379
0.000773494
0.0007737
0.000773862
0.000774061
0.000774198
0.000774425
0.000774586
0.00077482
0.000774991
0.000775284
0.000775477
0.000775787
0.000775974
0.000776347
0.00077656
0.000777007
0.000777265
0.000777804
0.000778107
0.000778746
0.000779111
0.000779934
0.00078034
0.000781744
0.000782025
0.000793585
0.000845011
0.00218989
0.00101928
0.000939218
0.000891369
0.000861761
0.000842131
0.000828332
0.000818161
0.000810426
0.000804374
0.000799556
0.000795644
0.000792433
0.000789757
0.000787513
0.000785605
0.000783981
0.000782577
0.000781363
0.000780301
0.000779384
0.000778566
0.00077785
0.000777206
0.000776652
0.000776138
0.000775685
0.000775271
0.00077492
0.000774585
0.000774296
0.000774019
0.000773808
0.000773569
0.000773367
0.000773186
0.000773052
0.000772903
0.000772779
0.000772662
0.000772585
0.000772467
0.000772382
0.000772316
0.000772259
0.000772121
0.000772102
0.000772094
0.000772088
0.000772077
0.000772053
0.000771966
0.000772011
0.000772011
0.00077201
0.000771988
0.000772093
0.00077213
0.00077213
0.000772276
0.000772305
0.000772305
0.000772392
0.000772526
0.000772726
0.000772875
0.000773026
0.000773115
0.000773259
0.000773374
0.000773579
0.000773742
0.000773941
0.000774078
0.000774305
0.000774466
0.0007747
0.00077487
0.000775163
0.000775357
0.000775666
0.000775853
0.000776226
0.000776439
0.000776887
0.000777144
0.000777683
0.000777986
0.000778625
0.00077899
0.000779813
0.000780218
0.000781622
0.000781902
0.000793508
0.00084495
0.00219256
0.00101928
0.000939195
0.000891312
0.000861677
0.000842026
0.000828211
0.000818028
0.000810283
0.000804223
0.000799399
0.000795481
0.000792266
0.000789586
0.000787339
0.000785428
0.000783802
0.000782395
0.00078118
0.000780116
0.000779198
0.000778378
0.000777661
0.000777016
0.000776461
0.000775947
0.000775492
0.000775078
0.000774726
0.00077439
0.000774101
0.000773824
0.000773612
0.000773373
0.00077317
0.000772989
0.000772855
0.000772705
0.000772581
0.000772464
0.000772387
0.000772269
0.000772183
0.000772117
0.00077206
0.000771921
0.000771902
0.000771894
0.000771888
0.000771877
0.000771853
0.000771766
0.000771811
0.000771811
0.00077181
0.000771787
0.000771892
0.000771929
0.000771929
0.000772075
0.000772104
0.000772104
0.000772191
0.000772325
0.000772525
0.000772674
0.000772824
0.000772914
0.000773058
0.000773173
0.000773378
0.00077354
0.000773739
0.000773876
0.000774104
0.000774264
0.000774498
0.000774668
0.000774961
0.000775155
0.000775464
0.000775651
0.000776024
0.000776237
0.000776684
0.000776942
0.00077748
0.000777783
0.000778421
0.000778786
0.000779609
0.000780014
0.000781418
0.000781695
0.000793372
0.00084483
0.00219568
0.00101929
0.000939162
0.000891233
0.000861559
0.000841878
0.00082804
0.00081784
0.000810081
0.000804011
0.000799177
0.000795252
0.00079203
0.000789346
0.000787094
0.000785179
0.000783549
0.00078214
0.000780921
0.000779856
0.000778935
0.000778114
0.000777395
0.000776748
0.000776192
0.000775676
0.000775221
0.000774805
0.000774453
0.000774116
0.000773827
0.000773548
0.000773335
0.000773096
0.000772893
0.000772711
0.000772576
0.000772426
0.000772302
0.000772184
0.000772107
0.000771989
0.000771903
0.000771836
0.000771779
0.000771641
0.000771621
0.000771613
0.000771606
0.000771595
0.000771571
0.000771484
0.000771528
0.000771528
0.000771527
0.000771504
0.000771609
0.000771646
0.000771645
0.000771792
0.00077182
0.00077182
0.000771907
0.000772041
0.000772241
0.00077239
0.00077254
0.00077263
0.000772774
0.000772889
0.000773094
0.000773256
0.000773455
0.000773592
0.000773819
0.00077398
0.000774214
0.000774384
0.000774677
0.00077487
0.00077518
0.000775366
0.000775739
0.000775952
0.000776399
0.000776656
0.000777194
0.000777497
0.000778135
0.000778499
0.000779321
0.000779726
0.000781129
0.000781404
0.000793177
0.000844641
0.00219924
0.0010193
0.00093912
0.00089113
0.000861405
0.000841686
0.00082782
0.000817596
0.00080982
0.000803735
0.00079889
0.000794955
0.000791725
0.000789034
0.000786776
0.000784856
0.000783222
0.000781808
0.000780587
0.000779518
0.000778594
0.000777771
0.00077705
0.000776401
0.000775843
0.000775326
0.000774869
0.000774452
0.000774098
0.000773761
0.00077347
0.000773191
0.000772977
0.000772737
0.000772534
0.000772351
0.000772216
0.000772065
0.00077194
0.000771822
0.000771744
0.000771625
0.000771539
0.000771472
0.000771415
0.000771277
0.000771256
0.000771248
0.000771241
0.00077123
0.000771205
0.000771118
0.000771162
0.000771162
0.000771161
0.000771137
0.000771242
0.000771278
0.000771278
0.000771424
0.000771452
0.000771452
0.00077154
0.000771673
0.000771872
0.000772021
0.000772172
0.000772262
0.000772406
0.000772521
0.000772725
0.000772887
0.000773087
0.000773223
0.00077345
0.000773611
0.000773845
0.000774015
0.000774307
0.0007745
0.00077481
0.000774997
0.000775369
0.000775582
0.000776029
0.000776286
0.000776823
0.000777126
0.000777763
0.000778127
0.000778948
0.000779352
0.000780756
0.000781026
0.000792925
0.000844376
0.00220316
0.0010193
0.000939068
0.000891003
0.000861216
0.000841449
0.000827547
0.000817297
0.000809498
0.000803396
0.000798536
0.000794589
0.000791349
0.000788649
0.000786384
0.000784458
0.000782818
0.0007814
0.000780174
0.000779102
0.000778175
0.000777348
0.000776625
0.000775973
0.000775413
0.000774894
0.000774436
0.000774017
0.000773662
0.000773323
0.000773031
0.000772751
0.000772536
0.000772295
0.000772091
0.000771907
0.000771771
0.000771619
0.000771494
0.000771375
0.000771297
0.000771178
0.000771091
0.000771024
0.000770966
0.000770828
0.000770807
0.000770798
0.000770791
0.000770779
0.000770754
0.000770667
0.00077071
0.00077071
0.000770709
0.000770685
0.00077079
0.000770825
0.000770825
0.000770971
0.000770999
0.000770999
0.000771086
0.00077122
0.000771418
0.000771567
0.000771718
0.000771808
0.000771952
0.000772067
0.000772271
0.000772433
0.000772632
0.000772769
0.000772996
0.000773156
0.00077339
0.00077356
0.000773852
0.000774045
0.000774355
0.000774541
0.000774914
0.000775126
0.000775572
0.000775829
0.000776366
0.000776668
0.000777305
0.000777668
0.000778488
0.000778891
0.000780295
0.00078056
0.000792614
0.000844033
0.00220727
0.00101931
0.000939006
0.000890852
0.000860992
0.000841169
0.000827224
0.00081694
0.000809115
0.000802992
0.000798114
0.000794154
0.000790902
0.000788191
0.000785917
0.000783983
0.000782337
0.000780913
0.000779682
0.000778605
0.000777674
0.000776844
0.000776118
0.000775463
0.000774901
0.000774379
0.000773919
0.000773498
0.000773141
0.000772801
0.000772507
0.000772226
0.000772009
0.000771767
0.000771562
0.000771378
0.00077124
0.000771088
0.000770962
0.000770842
0.000770763
0.000770644
0.000770557
0.000770489
0.000770431
0.000770292
0.000770271
0.000770261
0.000770254
0.000770242
0.000770217
0.000770129
0.000770171
0.000770171
0.00077017
0.000770146
0.00077025
0.000770285
0.000770285
0.00077043
0.000770459
0.000770459
0.000770546
0.000770678
0.000770876
0.000771026
0.000771177
0.000771267
0.000771411
0.000771525
0.000771729
0.00077189
0.00077209
0.000772227
0.000772453
0.000772613
0.000772847
0.000773017
0.000773309
0.000773502
0.000773812
0.000773998
0.00077437
0.000774582
0.000775028
0.000775284
0.000775821
0.000776123
0.000776758
0.000777121
0.00077794
0.000778342
0.000779745
0.000780005
0.000792246
0.000843612
0.00221133
0.00101933
0.000938935
0.000890678
0.000860731
0.000840842
0.000826847
0.000816525
0.00080867
0.000802522
0.000797624
0.000793647
0.00079038
0.000787658
0.000785374
0.000783431
0.000781777
0.000780347
0.00077911
0.000778027
0.000777092
0.000776258
0.000775527
0.00077487
0.000774304
0.00077378
0.000773317
0.000772894
0.000772535
0.000772192
0.000771898
0.000771614
0.000771397
0.000771153
0.000770947
0.000770761
0.000770623
0.00077047
0.000770342
0.000770222
0.000770142
0.000770022
0.000769934
0.000769866
0.000769808
0.000769669
0.000769646
0.000769636
0.000769628
0.000769616
0.000769591
0.000769503
0.000769544
0.000769544
0.000769543
0.000769518
0.000769622
0.000769656
0.000769656
0.000769801
0.000769829
0.000769829
0.000769916
0.000770048
0.000770246
0.000770395
0.000770547
0.000770637
0.000770781
0.000770894
0.000771097
0.000771259
0.000771459
0.000771595
0.000771822
0.000771982
0.000772216
0.000772385
0.000772677
0.000772869
0.000773179
0.000773365
0.000773737
0.000773949
0.000774394
0.00077465
0.000775185
0.000775487
0.000776121
0.000776484
0.000777301
0.000777702
0.000779105
0.000779358
0.000791819
0.000843112
0.00221494
0.00101934
0.000938855
0.000890479
0.000860434
0.00084047
0.000826418
0.000816051
0.000808161
0.000801985
0.000797064
0.000793067
0.000789785
0.000787049
0.000784753
0.0007828
0.000781137
0.000779699
0.000778455
0.000777367
0.000776426
0.000775587
0.000774852
0.000774191
0.000773622
0.000773094
0.000772629
0.000772203
0.000771842
0.000771497
0.0007712
0.000770915
0.000770695
0.000770451
0.000770243
0.000770056
0.000769916
0.000769762
0.000769634
0.000769512
0.000769432
0.000769311
0.000769223
0.000769153
0.000769095
0.000768956
0.000768932
0.000768921
0.000768913
0.000768901
0.000768875
0.000768787
0.000768827
0.000768827
0.000768825
0.0007688
0.000768903
0.000768937
0.000768936
0.000769081
0.000769109
0.000769109
0.000769196
0.000769327
0.000769524
0.000769673
0.000769825
0.000769916
0.00077006
0.000770173
0.000770375
0.000770537
0.000770736
0.000770873
0.000771099
0.000771259
0.000771493
0.000771662
0.000771953
0.000772145
0.000772456
0.000772641
0.000773013
0.000773224
0.000773668
0.000773924
0.000774459
0.00077476
0.000775393
0.000775755
0.000776571
0.000776969
0.000778373
0.000778618
0.000791334
0.000842534
0.00221755
0.00101935
0.000938765
0.000890257
0.000860101
0.000840052
0.000825935
0.000815518
0.000807588
0.00080138
0.000796433
0.000792414
0.000789113
0.000786362
0.000784052
0.000782088
0.000780416
0.000778968
0.000777717
0.000776622
0.000775675
0.000774831
0.000774091
0.000773425
0.000772852
0.000772321
0.000771852
0.000771424
0.00077106
0.000770713
0.000770413
0.000770126
0.000769905
0.000769659
0.000769449
0.00076926
0.000769119
0.000768964
0.000768835
0.000768712
0.00076863
0.000768509
0.00076842
0.000768349
0.00076829
0.000768152
0.000768127
0.000768115
0.000768106
0.000768093
0.000768067
0.000767978
0.000768017
0.000768017
0.000768016
0.00076799
0.000768093
0.000768125
0.000768125
0.000768269
0.000768297
0.000768296
0.000768384
0.000768514
0.00076871
0.000768859
0.000769012
0.000769102
0.000769247
0.000769359
0.000769561
0.000769722
0.000769922
0.000770058
0.000770284
0.000770443
0.000770678
0.000770846
0.000771137
0.000771329
0.000771639
0.000771824
0.000772195
0.000772406
0.00077285
0.000773105
0.000773639
0.000773939
0.000774571
0.000774932
0.000775746
0.000776143
0.000777546
0.000777784
0.00079079
0.000841875
0.00221837
0.00101937
0.000938666
0.000890011
0.00085973
0.000839587
0.000825397
0.000814925
0.00080695
0.000800706
0.00079573
0.000791687
0.000788365
0.000785596
0.000783272
0.000781295
0.000779611
0.000778154
0.000776894
0.000775791
0.000774837
0.000773987
0.000773242
0.000772571
0.000771994
0.000771459
0.000770987
0.000770555
0.000770187
0.000769838
0.000769536
0.000769246
0.000769023
0.000768775
0.000768564
0.000768373
0.000768231
0.000768074
0.000767943
0.000767819
0.000767737
0.000767615
0.000767524
0.000767452
0.000767393
0.000767254
0.000767228
0.000767215
0.000767206
0.000767193
0.000767166
0.000767077
0.000767114
0.000767114
0.000767113
0.000767086
0.000767188
0.000767219
0.000767219
0.000767362
0.00076739
0.00076739
0.000767478
0.000767607
0.000767802
0.000767951
0.000768104
0.000768195
0.000768339
0.000768451
0.000768652
0.000768812
0.000769013
0.000769149
0.000769374
0.000769534
0.000769768
0.000769935
0.000770226
0.000770418
0.000770728
0.000770913
0.000771284
0.000771494
0.000771937
0.000772191
0.000772724
0.000773024
0.000773654
0.000774014
0.000774826
0.000775221
0.000776625
0.000776853
0.000790187
0.000841135
0.00221651
0.00101939
0.000938558
0.000889741
0.000859323
0.000839075
0.000824805
0.00081427
0.000806246
0.000799963
0.000794954
0.000790884
0.000787539
0.000784751
0.00078241
0.000780419
0.000778722
0.000777254
0.000775985
0.000774874
0.000773912
0.000773055
0.000772304
0.000771628
0.000771045
0.000770506
0.00077003
0.000769594
0.000769224
0.000768871
0.000768566
0.000768274
0.000768048
0.000767798
0.000767585
0.000767392
0.000767248
0.00076709
0.000766958
0.000766832
0.000766748
0.000766626
0.000766534
0.000766461
0.000766401
0.000766262
0.000766235
0.000766221
0.000766211
0.000766197
0.00076617
0.00076608
0.000766116
0.000766116
0.000766115
0.000766087
0.000766188
0.000766218
0.000766218
0.000766361
0.000766388
0.000766388
0.000766476
0.000766604
0.000766798
0.000766947
0.0007671
0.000767192
0.000767336
0.000767447
0.000767647
0.000767807
0.000768007
0.000768143
0.000768369
0.000768528
0.000768762
0.000768929
0.00076922
0.00076941
0.000769721
0.000769905
0.000770275
0.000770486
0.000770927
0.000771181
0.000771712
0.000772011
0.00077264
0.000772999
0.000773809
0.000774202
0.000775605
0.000775824
0.000789524
0.000840314
0.00221198
0.00101941
0.00093844
0.000889446
0.000858879
0.000838515
0.000824158
0.000813554
0.000805476
0.000799149
0.000794103
0.000790004
0.000786634
0.000783825
0.000781465
0.000779458
0.000777748
0.000776268
0.000774988
0.000773867
0.000772898
0.000772033
0.000771276
0.000770593
0.000770005
0.000769461
0.000768981
0.000768541
0.000768166
0.00076781
0.000767503
0.000767207
0.000766979
0.000766727
0.000766512
0.000766317
0.00076617
0.00076601
0.000765877
0.00076575
0.000765665
0.000765541
0.000765448
0.000765374
0.000765314
0.000765174
0.000765145
0.00076513
0.000765119
0.000765105
0.000765077
0.000764987
0.000765022
0.000765021
0.00076502
0.000764991
0.000765091
0.00076512
0.00076512
0.000765262
0.000765289
0.000765289
0.000765377
0.000765504
0.000765696
0.000765845
0.000765999
0.000766091
0.000766235
0.000766346
0.000766545
0.000766704
0.000766905
0.000767041
0.000767265
0.000767424
0.000767659
0.000767825
0.000768115
0.000768305
0.000768616
0.0007688
0.000769169
0.000769379
0.000769819
0.000770073
0.000770602
0.000770901
0.000771528
0.000771886
0.000772694
0.000773084
0.000774487
0.000774696
0.000788801
0.000839409
0.0022048
0.00101944
0.000938315
0.000889128
0.000858398
0.000837908
0.000823454
0.000812776
0.000804638
0.000798263
0.000793179
0.000789046
0.000785649
0.000782816
0.000780437
0.000778412
0.000776687
0.000775194
0.000773902
0.000772772
0.000771793
0.00077092
0.000770155
0.000769466
0.000768872
0.000768323
0.000767837
0.000767393
0.000767015
0.000766655
0.000766344
0.000766045
0.000765814
0.00076556
0.000765342
0.000765145
0.000764996
0.000764834
0.000764699
0.00076457
0.000764484
0.000764359
0.000764265
0.000764189
0.000764128
0.000763989
0.000763957
0.000763941
0.000763929
0.000763915
0.000763887
0.000763796
0.000763828
0.000763828
0.000763826
0.000763797
0.000763896
0.000763923
0.000763923
0.000764064
0.000764091
0.000764091
0.000764179
0.000764305
0.000764496
0.000764645
0.000764799
0.000764891
0.000765036
0.000765146
0.000765343
0.000765502
0.000765703
0.000765838
0.000766063
0.000766221
0.000766456
0.000766621
0.000766911
0.000767101
0.000767411
0.000767595
0.000767964
0.000768173
0.000768612
0.000768864
0.000769392
0.00076969
0.000770316
0.000770672
0.000771477
0.000771865
0.000773269
0.000773467
0.000788016
0.00083842
0.00219502
0.00101946
0.00093818
0.000888787
0.000857879
0.000837253
0.000822695
0.000811935
0.000803733
0.000797306
0.000792178
0.00078801
0.000784583
0.000781725
0.000779324
0.00077728
0.000775539
0.000774031
0.000772727
0.000771585
0.000770596
0.000769714
0.000768941
0.000768245
0.000767645
0.00076709
0.000766599
0.00076615
0.000765767
0.000765403
0.000765089
0.000764786
0.000764552
0.000764295
0.000764075
0.000763875
0.000763724
0.00076356
0.000763423
0.000763292
0.000763204
0.000763077
0.000762982
0.000762904
0.000762843
0.000762704
0.00076267
0.000762653
0.00076264
0.000762625
0.000762596
0.000762505
0.000762535
0.000762535
0.000762533
0.000762502
0.0007626
0.000762626
0.000762626
0.000762766
0.000762792
0.000762792
0.000762881
0.000763005
0.000763195
0.000763344
0.000763499
0.00076359
0.000763735
0.000763844
0.000764041
0.000764199
0.0007644
0.000764535
0.000764759
0.000764918
0.000765152
0.000765317
0.000765606
0.000765795
0.000766106
0.000766289
0.000766657
0.000766865
0.000767303
0.000767555
0.000768081
0.000768378
0.000769001
0.000769356
0.000770159
0.000770544
0.000771948
0.000772134
0.000787168
0.000837345
0.00218269
0.00101949
0.000938038
0.000888422
0.000857324
0.00083655
0.000821878
0.000811031
0.000802759
0.000796275
0.000791101
0.000786894
0.000783435
0.000780549
0.000778124
0.00077606
0.000774301
0.000772778
0.00077146
0.000770305
0.000769305
0.000768414
0.000767633
0.000766929
0.000766321
0.00076576
0.000765264
0.000764809
0.000764421
0.000764053
0.000763735
0.000763429
0.000763191
0.000762931
0.000762708
0.000762505
0.000762352
0.000762186
0.000762047
0.000761913
0.000761823
0.000761696
0.000761599
0.00076152
0.000761458
0.000761318
0.000761282
0.000761263
0.00076125
0.000761233
0.000761204
0.000761112
0.000761141
0.000761141
0.000761138
0.000761106
0.000761203
0.000761227
0.000761227
0.000761366
0.000761392
0.000761392
0.00076148
0.000761603
0.000761791
0.00076194
0.000762096
0.000762188
0.000762333
0.000762441
0.000762636
0.000762793
0.000762995
0.00076313
0.000763353
0.000763511
0.000763745
0.000763909
0.000764198
0.000764386
0.000764697
0.000764879
0.000765247
0.000765455
0.000765891
0.000766142
0.000766666
0.000766962
0.000767584
0.000767937
0.000768737
0.000769119
0.000770523
0.000770698
0.000786256
0.000836181
0.00216788
0.00101952
0.000937887
0.000888033
0.000856731
0.000835799
0.000821005
0.000810063
0.000801715
0.000795171
0.000789946
0.000785698
0.000782204
0.000779288
0.000776837
0.000774751
0.000772973
0.000771433
0.0007701
0.000768933
0.000767921
0.000767019
0.000766229
0.000765516
0.000764901
0.000764333
0.00076383
0.00076337
0.000762977
0.000762604
0.000762281
0.000761971
0.000761729
0.000761467
0.000761241
0.000761035
0.000760878
0.00076071
0.000760569
0.000760433
0.000760341
0.000760212
0.000760114
0.000760032
0.00075997
0.000759829
0.000759792
0.000759771
0.000759757
0.000759739
0.00075971
0.000759617
0.000759643
0.000759643
0.00075964
0.000759606
0.000759702
0.000759724
0.000759724
0.000759863
0.000759888
0.000759888
0.000759976
0.000760098
0.000760284
0.000760433
0.000760589
0.000760681
0.000760826
0.000760934
0.000761127
0.000761284
0.000761485
0.00076162
0.000761843
0.000762
0.000762235
0.000762398
0.000762686
0.000762873
0.000763184
0.000763366
0.000763732
0.00076394
0.000764374
0.000764624
0.000765147
0.000765442
0.000766061
0.000766412
0.000767209
0.000767588
0.000768992
0.000769155
0.000785278
0.000834928
0.00215065
0.00101955
0.000937729
0.000887622
0.000856101
0.000835
0.000820075
0.000809031
0.000800602
0.000793992
0.000788714
0.000784421
0.000780889
0.000777941
0.000775463
0.000773353
0.000771553
0.000769996
0.000768647
0.000767465
0.000766441
0.000765528
0.000764727
0.000764006
0.000763382
0.000762807
0.000762297
0.000761831
0.000761432
0.000761054
0.000760727
0.000760413
0.000760167
0.0007599
0.000759671
0.000759462
0.000759303
0.000759131
0.000758988
0.00075885
0.000758756
0.000758625
0.000758525
0.000758442
0.000758378
0.000758237
0.000758198
0.000758175
0.000758159
0.000758141
0.000758111
0.000758018
0.000758041
0.000758041
0.000758038
0.000758002
0.000758097
0.000758117
0.000758117
0.000758254
0.000758279
0.000758279
0.000758367
0.000758487
0.000758672
0.00075882
0.000758977
0.000759069
0.000759215
0.000759321
0.000759513
0.000759669
0.00075987
0.000760005
0.000760227
0.000760384
0.000760618
0.000760781
0.000761067
0.000761255
0.000761565
0.000761746
0.000762112
0.000762318
0.000762751
0.000763
0.000763521
0.000763815
0.000764431
0.000764781
0.000765574
0.00076595
0.000767354
0.000767505
0.000784231
0.000833582
0.00213109
0.00101959
0.000937563
0.000887188
0.000855435
0.000834153
0.000819088
0.000807935
0.000799419
0.000792739
0.000787403
0.000783062
0.000779489
0.000776507
0.000773999
0.000771864
0.000770042
0.000768465
0.000767098
0.000765902
0.000764864
0.000763939
0.000763127
0.000762396
0.000761764
0.00076118
0.000760664
0.000760191
0.000759786
0.000759402
0.00075907
0.000758751
0.000758501
0.000758231
0.000757998
0.000757785
0.000757623
0.000757449
0.000757303
0.000757162
0.000757066
0.000756934
0.000756832
0.000756746
0.000756682
0.00075654
0.000756498
0.000756473
0.000756456
0.000756437
0.000756406
0.000756312
0.000756334
0.000756334
0.000756329
0.000756292
0.000756385
0.000756403
0.000756403
0.000756539
0.000756563
0.000756563
0.000756652
0.00075677
0.000756952
0.0007571
0.000757258
0.00075735
0.000757496
0.000757601
0.000757792
0.000757946
0.000758148
0.000758282
0.000758504
0.00075866
0.000758895
0.000759056
0.000759342
0.000759528
0.000759839
0.000760019
0.000760384
0.00076059
0.000761021
0.000761269
0.000761787
0.00076208
0.000762693
0.000763041
0.000763831
0.000764203
0.000765607
0.000765746
0.000783113
0.000832139
0.00210929
0.00101962
0.00093739
0.000886732
0.000854732
0.000833257
0.000818043
0.000806774
0.000798165
0.00079141
0.000786012
0.00078162
0.000778003
0.000774985
0.000772445
0.000770283
0.000768437
0.000766839
0.000765454
0.000764241
0.000763189
0.000762251
0.000761428
0.000760686
0.000760044
0.000759452
0.000758928
0.000758448
0.000758037
0.000757647
0.00075731
0.000756986
0.000756731
0.000756457
0.000756221
0.000756004
0.000755838
0.000755661
0.000755512
0.000755368
0.00075527
0.000755136
0.000755032
0.000754943
0.000754878
0.000754736
0.000754691
0.000754665
0.000754646
0.000754626
0.000754594
0.0007545
0.000754519
0.000754519
0.000754514
0.000754474
0.000754565
0.000754582
0.000754581
0.000754716
0.00075474
0.000754739
0.000754828
0.000754945
0.000755125
0.000755272
0.00075543
0.000755523
0.000755669
0.000755773
0.000755962
0.000756116
0.000756317
0.000756451
0.000756672
0.000756828
0.000757062
0.000757222
0.000757508
0.000757693
0.000758003
0.000758183
0.000758546
0.000758751
0.000759181
0.000759428
0.000759943
0.000760235
0.000760846
0.000761191
0.000761978
0.000762346
0.00076375
0.000763876
0.000781921
0.000830597
0.00208535
0.00101966
0.000937211
0.000886254
0.000853994
0.000832314
0.000816941
0.000805548
0.00079684
0.000790005
0.000784541
0.000780094
0.000776432
0.000773374
0.0007708
0.000768609
0.000766738
0.000765117
0.000763713
0.000762483
0.000761415
0.000760463
0.000759628
0.000758875
0.000758223
0.000757622
0.00075709
0.000756602
0.000756184
0.000755788
0.000755445
0.000755115
0.000754855
0.000754577
0.000754337
0.000754116
0.000753946
0.000753766
0.000753615
0.000753467
0.000753366
0.00075323
0.000753124
0.000753033
0.000752967
0.000752824
0.000752776
0.000752748
0.000752728
0.000752706
0.000752674
0.000752579
0.000752595
0.000752595
0.000752589
0.000752548
0.000752637
0.000752651
0.000752651
0.000752784
0.000752806
0.000752806
0.000752895
0.00075301
0.000753188
0.000753334
0.000753493
0.000753586
0.000753732
0.000753835
0.000754022
0.000754175
0.000754376
0.00075451
0.00075473
0.000754885
0.000755119
0.000755279
0.000755563
0.000755747
0.000756057
0.000756236
0.000756599
0.000756803
0.00075723
0.000757476
0.000757988
0.000758279
0.000758887
0.00075923
0.000760013
0.000760376
0.000761781
0.000761895
0.000780651
0.000828951
0.00205939
0.00101971
0.000937025
0.000885755
0.000853219
0.000831322
0.000815782
0.000804257
0.000795444
0.000788524
0.00078299
0.000778485
0.000774773
0.000771673
0.000769064
0.000766841
0.000764943
0.000763299
0.000761874
0.000760625
0.000759541
0.000758575
0.000757726
0.000756961
0.000756298
0.000755688
0.000755147
0.000754651
0.000754225
0.000753822
0.000753473
0.000753138
0.000752872
0.00075259
0.000752345
0.00075212
0.000751946
0.000751763
0.000751609
0.000751458
0.000751354
0.000751216
0.000751108
0.000751014
0.000750946
0.000750802
0.000750752
0.000750721
0.0007507
0.000750676
0.000750643
0.000750548
0.000750562
0.000750561
0.000750554
0.000750511
0.000750598
0.00075061
0.000750609
0.000750741
0.000750763
0.000750762
0.000750851
0.000750964
0.000751139
0.000751285
0.000751444
0.000751538
0.000751684
0.000751785
0.000751971
0.000752122
0.000752324
0.000752457
0.000752677
0.000752831
0.000753065
0.000753223
0.000753506
0.000753689
0.000753999
0.000754177
0.000754538
0.000754742
0.000755167
0.000755411
0.000755921
0.00075621
0.000756815
0.000757156
0.000757935
0.000758294
0.000759698
0.0007598
0.0007793
0.000827196
0.00203151
0.00101975
0.000936833
0.000885235
0.000852409
0.000830284
0.000814565
0.000802901
0.000793977
0.000786967
0.000781359
0.000776792
0.000773027
0.000769883
0.000767236
0.00076498
0.000763053
0.000761384
0.000759936
0.000758668
0.000757566
0.000756584
0.000755721
0.000754944
0.000754269
0.000753649
0.000753098
0.000752594
0.00075216
0.00075175
0.000751395
0.000751053
0.000750782
0.000750495
0.000750246
0.000750015
0.000749838
0.00074965
0.000749493
0.000749339
0.000749232
0.000749091
0.000748981
0.000748884
0.000748815
0.00074867
0.000748617
0.000748584
0.00074856
0.000748535
0.000748502
0.000748407
0.000748417
0.000748416
0.000748408
0.000748362
0.000748447
0.000748458
0.000748456
0.000748586
0.000748606
0.000748606
0.000748695
0.000748806
0.000748979
0.000749123
0.000749283
0.000749377
0.000749523
0.000749623
0.000749807
0.000749957
0.000750159
0.000750291
0.00075051
0.000750663
0.000750897
0.000751054
0.000751336
0.000751518
0.000751828
0.000752005
0.000752365
0.000752567
0.00075299
0.000753233
0.00075374
0.000754028
0.000754629
0.000754968
0.000755742
0.000756097
0.000757501
0.000757591
0.000777863
0.000825327
0.00200184
0.0010198
0.000936636
0.000884696
0.000851564
0.000829198
0.000813292
0.00080148
0.000792438
0.000785333
0.000779646
0.000775013
0.000771193
0.000768002
0.000765314
0.000763023
0.000761066
0.00075937
0.000757899
0.000756609
0.000755489
0.00075449
0.000753613
0.000752822
0.000752135
0.000751503
0.000750943
0.00075043
0.000749988
0.00074957
0.000749208
0.000748859
0.000748582
0.00074829
0.000748036
0.000747801
0.000747619
0.000747428
0.000747267
0.000747109
0.000746999
0.000746855
0.000746743
0.000746642
0.000746572
0.000746426
0.00074637
0.000746334
0.000746309
0.000746282
0.000746248
0.000746152
0.00074616
0.000746158
0.000746149
0.000746101
0.000746183
0.000746192
0.00074619
0.000746317
0.000746337
0.000746337
0.000746426
0.000746534
0.000746704
0.000746848
0.000747008
0.000747102
0.000747249
0.000747347
0.000747529
0.000747677
0.000747879
0.000748011
0.000748229
0.000748382
0.000748615
0.000748771
0.000749052
0.000749233
0.000749542
0.000749718
0.000750076
0.000750278
0.000750698
0.00075094
0.000751444
0.00075173
0.000752327
0.000752664
0.000753434
0.000753784
0.000755187
0.000755265
0.000776336
0.000823335
0.00197051
0.00101985
0.000936434
0.000884136
0.000850686
0.000828066
0.000811962
0.000799995
0.000790828
0.000783622
0.000777851
0.000773149
0.000769271
0.00076603
0.000763299
0.000760971
0.000758981
0.000757257
0.000755761
0.000754449
0.000753309
0.000752293
0.0007514
0.000750594
0.000749895
0.000749252
0.000748681
0.000748157
0.000747707
0.000747281
0.000746912
0.000746556
0.000746272
0.000745975
0.000745716
0.000745475
0.000745288
0.000745093
0.000744928
0.000744766
0.000744653
0.000744507
0.000744392
0.000744288
0.000744216
0.000744069
0.00074401
0.000743971
0.000743944
0.000743915
0.00074388
0.000743785
0.000743789
0.000743786
0.000743775
0.000743725