/*--------------------------------*- C++ -*----------------------------------*\
| =========                 |                                                 |
| \\      /  F ield         | OpenFOAM: The Open Source CFD Toolbox           |
|  \\    /   O peration     | Version:  v2012                                 |
|   \\  /    A nd           | Website:  www.openfoam.com                      |
|    \\/     M anipulation  |                                                 |
\*---------------------------------------------------------------------------*/
FoamFile
{
    version     2.0;
    format      ascii;
    class       volScalarField;
    location    "41.5";
    object      epsilon;
}
// * * * * * * * * * * * * * * * * * * * * * * * * * * * * * * * * * * * * * //

dimensions      [0 2 -3 0 0 0 0];


internalField   nonuniform List<scalar> 
209825
(
0.757934
0.634659
0.552084
0.497315
0.459995
0.433622
0.414251
0.399606
0.38819
0.379137
0.371772
0.365731
0.360657
0.356392
0.352716
0.349574
0.346809
0.344417
0.342273
0.340403
0.3387
0.337206
0.335825
0.334611
0.333475
0.332476
0.331528
0.330695
0.329899
0.3292
0.328521
0.327931
0.327352
0.326853
0.326353
0.325928
0.325501
0.325137
0.324764
0.324453
0.324128
0.323864
0.323587
0.323362
0.323115
0.322923
0.322718
0.322551
0.322364
0.322231
0.322079
0.321944
0.321818
0.321709
0.321628
0.32152
0.321421
0.32137
0.321277
0.321236
0.321209
0.321153
0.321143
0.321121
0.321143
0.321142
0.321186
0.321222
0.321222
0.32129
0.321308
0.321397
0.321424
0.321526
0.32157
0.321687
0.321745
0.321878
0.321944
0.322094
0.322175
0.322353
0.32245
0.322661
0.322777
0.323027
0.323165
0.32346
0.323621
0.323987
0.324164
0.324711
0.32489
0.3289
3.1169
565.24
0.757934
0.634659
0.552081
0.49731
0.459986
0.433612
0.414239
0.399592
0.388175
0.379121
0.371755
0.365713
0.360638
0.356373
0.352696
0.349554
0.346789
0.344396
0.342253
0.340382
0.338679
0.337185
0.335804
0.334589
0.333454
0.332454
0.331506
0.330673
0.329877
0.329178
0.328499
0.327908
0.327329
0.32683
0.32633
0.325906
0.325479
0.325115
0.324741
0.32443
0.324105
0.323841
0.323565
0.323339
0.323092
0.3229
0.322695
0.322528
0.322341
0.322208
0.322056
0.321921
0.321795
0.321686
0.321605
0.321497
0.321398
0.321347
0.321254
0.321213
0.321185
0.321129
0.32112
0.321098
0.32112
0.321119
0.321163
0.321198
0.321198
0.321267
0.321285
0.321373
0.321401
0.321503
0.321547
0.321663
0.321721
0.321854
0.32192
0.32207
0.322151
0.322329
0.322426
0.322637
0.322754
0.323003
0.323141
0.323436
0.323597
0.323963
0.32414
0.324687
0.324866
0.328882
3.1224
561.931
0.757937
0.634657
0.552067
0.497282
0.459947
0.433564
0.414183
0.399531
0.388109
0.379051
0.371682
0.365637
0.36056
0.356293
0.352615
0.349471
0.346704
0.344311
0.342166
0.340295
0.338591
0.337096
0.335714
0.3345
0.333363
0.332363
0.331415
0.330582
0.329785
0.329086
0.328406
0.327815
0.327236
0.326737
0.326237
0.325812
0.325384
0.32502
0.324647
0.324335
0.32401
0.323746
0.323469
0.323243
0.322997
0.322805
0.322599
0.322432
0.322244
0.322111
0.32196
0.321824
0.321698
0.321589
0.321508
0.3214
0.321301
0.32125
0.321157
0.321116
0.321088
0.321032
0.321022
0.321
0.321022
0.321021
0.321065
0.3211
0.3211
0.321169
0.321186
0.321275
0.321302
0.321404
0.321448
0.321564
0.321622
0.321755
0.321821
0.321971
0.322052
0.322229
0.322326
0.322537
0.322654
0.322903
0.32304
0.323335
0.323497
0.323862
0.324039
0.324586
0.324764
0.328792
3.13427
558.094
0.757941
0.634653
0.552042
0.497236
0.459881
0.433482
0.414089
0.399427
0.387997
0.378932
0.371558
0.365509
0.360429
0.356158
0.352477
0.349331
0.346562
0.344167
0.342021
0.340148
0.338443
0.336947
0.335564
0.334348
0.333211
0.33221
0.331261
0.330427
0.32963
0.32893
0.328249
0.327658
0.327079
0.326579
0.326078
0.325653
0.325225
0.324861
0.324487
0.324175
0.32385
0.323585
0.323308
0.323082
0.322835
0.322643
0.322437
0.322269
0.322082
0.321949
0.321797
0.321661
0.321535
0.321426
0.321344
0.321236
0.321137
0.321086
0.320993
0.320951
0.320924
0.320867
0.320857
0.320835
0.320857
0.320855
0.320899
0.320934
0.320934
0.321002
0.32102
0.321108
0.321136
0.321237
0.321281
0.321397
0.321455
0.321588
0.321653
0.321803
0.321884
0.322061
0.322158
0.322368
0.322485
0.322733
0.322871
0.323166
0.323327
0.323692
0.323868
0.324415
0.324592
0.328639
3.15292
554.498
0.757946
0.634647
0.552008
0.49717
0.459788
0.433366
0.413956
0.39928
0.387839
0.378765
0.371383
0.365328
0.360242
0.355967
0.352282
0.349133
0.346361
0.343964
0.341815
0.33994
0.338233
0.336735
0.335351
0.334134
0.332995
0.331993
0.331043
0.330208
0.32941
0.32871
0.328028
0.327437
0.326856
0.326356
0.325855
0.325429
0.325
0.324635
0.324261
0.323949
0.323623
0.323358
0.323081
0.322854
0.322607
0.322414
0.322208
0.32204
0.321853
0.321719
0.321567
0.321431
0.321305
0.321195
0.321113
0.321005
0.320906
0.320854
0.320761
0.320719
0.320691
0.320635
0.320625
0.320602
0.320623
0.320622
0.320666
0.3207
0.3207
0.320768
0.320785
0.320873
0.3209
0.321002
0.321045
0.321161
0.321219
0.321351
0.321416
0.321566
0.321646
0.321823
0.32192
0.32213
0.322246
0.322494
0.322631
0.322926
0.323086
0.323451
0.323627
0.324173
0.324349
0.328423
3.17882
551.487
0.757954
0.63464
0.551963
0.497084
0.459667
0.433217
0.413783
0.399089
0.387634
0.378548
0.371157
0.365093
0.360001
0.35572
0.35203
0.348876
0.346101
0.3437
0.341548
0.33967
0.337961
0.336461
0.335075
0.333856
0.332716
0.331712
0.330761
0.329925
0.329125
0.328424
0.327742
0.327149
0.326568
0.326066
0.325564
0.325138
0.324709
0.324343
0.323968
0.323656
0.323329
0.323063
0.322786
0.322559
0.322311
0.322118
0.321911
0.321743
0.321555
0.321421
0.321269
0.321133
0.321006
0.320896
0.320814
0.320706
0.320606
0.320554
0.32046
0.320418
0.32039
0.320334
0.320323
0.3203
0.320321
0.320319
0.320362
0.320396
0.320396
0.320464
0.320481
0.320568
0.320595
0.320696
0.32074
0.320855
0.320912
0.321044
0.321109
0.321259
0.321339
0.321515
0.321611
0.321821
0.321937
0.322184
0.322321
0.322615
0.322775
0.323139
0.323314
0.323859
0.324035
0.328142
3.21244
549.229
0.757963
0.634631
0.551908
0.496979
0.459518
0.433032
0.413571
0.398854
0.387381
0.378281
0.370878
0.364804
0.359703
0.355415
0.351719
0.34856
0.34578
0.343375
0.341219
0.339338
0.337626
0.336124
0.334735
0.333514
0.332372
0.331366
0.330413
0.329576
0.328775
0.328072
0.327388
0.326794
0.326212
0.32571
0.325207
0.32478
0.32435
0.323983
0.323607
0.323294
0.322967
0.3227
0.322422
0.322195
0.321946
0.321753
0.321545
0.321377
0.321188
0.321054
0.320901
0.320765
0.320638
0.320527
0.320444
0.320336
0.320236
0.320184
0.32009
0.320047
0.320019
0.319962
0.319951
0.319927
0.319947
0.319945
0.319989
0.320021
0.320021
0.320089
0.320105
0.320193
0.320219
0.32032
0.320363
0.320478
0.320535
0.320666
0.320731
0.32088
0.320959
0.321135
0.321231
0.32144
0.321555
0.321802
0.321938
0.322231
0.322391
0.322753
0.322928
0.323472
0.323647
0.327795
3.25427
547.783
0.757974
0.63462
0.551843
0.496854
0.459341
0.432813
0.413318
0.398575
0.38708
0.377963
0.370545
0.36446
0.359349
0.355052
0.351349
0.348183
0.345397
0.342987
0.340827
0.338943
0.337227
0.335721
0.33433
0.333106
0.331962
0.330954
0.329999
0.329159
0.328357
0.327652
0.326967
0.326372
0.325788
0.325285
0.324781
0.324352
0.323921
0.323554
0.323177
0.322863
0.322535
0.322268
0.321989
0.321761
0.321512
0.321317
0.321109
0.32094
0.320751
0.320616
0.320463
0.320326
0.320199
0.320088
0.320004
0.319896
0.319795
0.319743
0.319649
0.319605
0.319577
0.31952
0.319508
0.319483
0.319503
0.3195
0.319543
0.319575
0.319575
0.319642
0.319658
0.319745
0.319771
0.319871
0.319914
0.320028
0.320085
0.320216
0.32028
0.320428
0.320507
0.320682
0.320778
0.320986
0.321101
0.321347
0.321483
0.321774
0.321933
0.322295
0.322469
0.323012
0.323184
0.327383
3.30477
547.141
0.757986
0.634608
0.551768
0.49671
0.459136
0.432558
0.413025
0.398251
0.386731
0.377593
0.370159
0.364059
0.358937
0.35463
0.350918
0.347745
0.344953
0.342537
0.340372
0.338483
0.336763
0.335253
0.333859
0.332632
0.331485
0.330475
0.329517
0.328675
0.327871
0.327165
0.326478
0.325881
0.325296
0.324791
0.324285
0.323856
0.323423
0.323055
0.322677
0.322362
0.322033
0.321765
0.321485
0.321256
0.321006
0.320811
0.320602
0.320433
0.320243
0.320107
0.319954
0.319816
0.319688
0.319577
0.319493
0.319384
0.319283
0.31923
0.319135
0.319091
0.319062
0.319005
0.318993
0.318967
0.318986
0.318983
0.319025
0.319056
0.319056
0.319122
0.319138
0.319224
0.31925
0.319349
0.319391
0.319505
0.319561
0.319692
0.319756
0.319903
0.319982
0.320156
0.320251
0.320458
0.320572
0.320817
0.320952
0.321243
0.321401
0.321761
0.321934
0.322476
0.322647
0.326905
3.36439
547.242
0.758001
0.634595
0.551683
0.496545
0.458902
0.432268
0.41269
0.397881
0.386332
0.377171
0.369718
0.363602
0.358466
0.354148
0.350426
0.347245
0.344445
0.342023
0.339852
0.337957
0.336233
0.334719
0.333321
0.33209
0.33094
0.329927
0.328967
0.328123
0.327316
0.326608
0.325919
0.32532
0.324733
0.324227
0.323719
0.323288
0.322855
0.322485
0.322106
0.32179
0.32146
0.321191
0.32091
0.32068
0.320429
0.320233
0.320023
0.319853
0.319663
0.319526
0.319372
0.319234
0.319105
0.318993
0.318908
0.3188
0.318698
0.318644
0.318549
0.318504
0.318475
0.318417
0.318404
0.318378
0.318395
0.318392
0.318434
0.318463
0.318463
0.318529
0.318543
0.31863
0.318654
0.318753
0.318795
0.318908
0.318964
0.319093
0.319157
0.319303
0.319382
0.319555
0.319649
0.319855
0.319969
0.320212
0.320347
0.320636
0.320793
0.321152
0.321324
0.321864
0.322033
0.32636
3.43355
547.989
0.758017
0.63458
0.551588
0.496361
0.458639
0.431943
0.412314
0.397464
0.385884
0.376697
0.369222
0.363088
0.357937
0.353606
0.349873
0.346682
0.343874
0.341444
0.339266
0.337366
0.335636
0.334118
0.332715
0.331481
0.330327
0.32931
0.328347
0.3275
0.326691
0.32598
0.325289
0.324688
0.324099
0.323591
0.323082
0.32265
0.322214
0.321843
0.321463
0.321146
0.320814
0.320544
0.320262
0.320031
0.319779
0.319582
0.319371
0.319201
0.319009
0.318872
0.318717
0.318578
0.318448
0.318336
0.31825
0.318141
0.318038
0.317984
0.317889
0.317843
0.317813
0.317755
0.317742
0.317714
0.317731
0.317726
0.317768
0.317796
0.317796
0.317861
0.317874
0.31796
0.317984
0.318082
0.318123
0.318236
0.318291
0.31842
0.318482
0.318628
0.318705
0.318878
0.318972
0.319176
0.319289
0.319531
0.319665
0.319952
0.320109
0.320466
0.320636
0.321175
0.321342
0.325748
3.51263
549.266
0.758034
0.634564
0.551482
0.496157
0.458348
0.431581
0.411896
0.397002
0.385385
0.376169
0.36867
0.362516
0.357348
0.353002
0.349257
0.346055
0.343237
0.340799
0.338614
0.336707
0.334972
0.333448
0.33204
0.330802
0.329644
0.328624
0.327657
0.326808
0.325995
0.325282
0.324588
0.323985
0.323394
0.322884
0.322373
0.321938
0.321501
0.321129
0.320747
0.320428
0.320095
0.319824
0.31954
0.319308
0.319055
0.318857
0.318646
0.318474
0.318282
0.318143
0.317987
0.317848
0.317717
0.317604
0.317517
0.317408
0.317304
0.317249
0.317154
0.317107
0.317076
0.317018
0.317004
0.316975
0.31699
0.316985
0.317026
0.317053
0.317052
0.317116
0.317129
0.317214
0.317237
0.317335
0.317375
0.317487
0.317541
0.317669
0.317731
0.317876
0.317953
0.318124
0.318217
0.31842
0.318532
0.318773
0.318906
0.319191
0.319347
0.319702
0.319871
0.320408
0.320573
0.325067
3.60196
550.935
0.758054
0.634546
0.551367
0.495932
0.458028
0.431183
0.411436
0.396492
0.384836
0.375587
0.368061
0.361886
0.356699
0.352337
0.348578
0.345364
0.342536
0.340088
0.337896
0.335981
0.334239
0.33271
0.331297
0.330053
0.328891
0.327867
0.326897
0.326043
0.325227
0.324511
0.323815
0.323209
0.322616
0.322103
0.32159
0.321154
0.320715
0.320341
0.319957
0.319637
0.319302
0.319029
0.318744
0.318511
0.318257
0.318058
0.317845
0.317672
0.317479
0.317339
0.317182
0.317042
0.316911
0.316797
0.316709
0.316599
0.316495
0.316439
0.316343
0.316295
0.316263
0.316205
0.31619
0.316159
0.316174
0.316167
0.316208
0.316233
0.316232
0.316296
0.316307
0.316391
0.316414
0.316511
0.31655
0.316661
0.316715
0.316841
0.316903
0.317046
0.317123
0.317292
0.317385
0.317586
0.317697
0.317936
0.318068
0.318352
0.318506
0.318859
0.319027
0.319562
0.319725
0.324318
3.7018
552.852
0.758075
0.634528
0.551242
0.495689
0.457679
0.430749
0.410934
0.395936
0.384236
0.374951
0.367396
0.361196
0.355988
0.351609
0.347835
0.344608
0.341769
0.339311
0.337109
0.335187
0.333438
0.331902
0.330483
0.329234
0.328067
0.327039
0.326064
0.325207
0.324388
0.323668
0.322969
0.32236
0.321764
0.321249
0.320734
0.320295
0.319854
0.319478
0.319093
0.318771
0.318434
0.31816
0.317873
0.317639
0.317383
0.317183
0.316968
0.316795
0.3166
0.316459
0.316302
0.316161
0.316028
0.315913
0.315824
0.315714
0.315609
0.315552
0.315455
0.315406
0.315374
0.315314
0.315299
0.315267
0.31528
0.315273
0.315312
0.315336
0.315335
0.315397
0.315408
0.315491
0.315512
0.315609
0.315647
0.315757
0.31581
0.315935
0.315996
0.316138
0.316214
0.316382
0.316473
0.316673
0.316784
0.31702
0.317152
0.317433
0.317587
0.317937
0.318103
0.318636
0.318796
0.323499
3.81232
554.874
0.758098
0.634508
0.551108
0.495425
0.457302
0.430278
0.410389
0.395332
0.383584
0.374261
0.366674
0.360447
0.355217
0.350819
0.347028
0.343787
0.340935
0.338466
0.336254
0.334323
0.332566
0.331023
0.329598
0.328344
0.327171
0.326138
0.325159
0.324298
0.323475
0.322752
0.322049
0.321438
0.320838
0.320321
0.319803
0.319362
0.318919
0.31854
0.318153
0.317829
0.317491
0.317215
0.316926
0.31669
0.316433
0.316232
0.316016
0.315841
0.315645
0.315503
0.315344
0.315202
0.315069
0.314952
0.314862
0.314752
0.314645
0.314588
0.31449
0.31444
0.314407
0.314347
0.31433
0.314297
0.314308
0.3143
0.314339
0.31436
0.314359
0.31442
0.31443
0.314512
0.314533
0.314628
0.314665
0.314774
0.314826
0.31495
0.31501
0.315151
0.315226
0.315392
0.315483
0.315681
0.31579
0.316025
0.316155
0.316434
0.316586
0.316934
0.317099
0.31763
0.317787
0.32261
3.93358
556.862
0.758123
0.634488
0.550964
0.495142
0.456896
0.429771
0.409802
0.39468
0.382881
0.373516
0.365894
0.359638
0.354383
0.349965
0.346156
0.342899
0.340033
0.337553
0.335331
0.33339
0.331625
0.330074
0.328642
0.327381
0.326203
0.325165
0.324181
0.323315
0.322488
0.321761
0.321055
0.32044
0.319837
0.319317
0.318796
0.318353
0.317907
0.317527
0.317137
0.316811
0.316471
0.316193
0.315903
0.315665
0.315406
0.315203
0.314986
0.31481
0.314612
0.314469
0.314309
0.314166
0.314031
0.313914
0.313822
0.313712
0.313604
0.313545
0.313447
0.313395
0.313361
0.313301
0.313282
0.313248
0.313258
0.313248
0.313286
0.313306
0.313305
0.313364
0.313373
0.313454
0.313473
0.313567
0.313604
0.313711
0.313762
0.313886
0.313945
0.314084
0.314158
0.314322
0.314412
0.314608
0.314716
0.314949
0.315078
0.315355
0.315505
0.31585
0.316013
0.316542
0.316696
0.321651
4.06551
558.685
0.758149
0.634466
0.55081
0.49484
0.456461
0.429228
0.409172
0.393981
0.382126
0.372715
0.365056
0.358769
0.353488
0.349046
0.345219
0.341945
0.339065
0.336571
0.334338
0.332387
0.330612
0.329054
0.327614
0.326346
0.325162
0.324118
0.323129
0.322258
0.321426
0.320696
0.319985
0.319367
0.318761
0.318238
0.317714
0.317268
0.316819
0.316436
0.316044
0.315716
0.315374
0.315094
0.314802
0.314562
0.314302
0.314097
0.313878
0.3137
0.313502
0.313357
0.313195
0.313052
0.312915
0.312797
0.312704
0.312593
0.312483
0.312424
0.312325
0.312272
0.312236
0.312175
0.312156
0.31212
0.312128
0.312117
0.312154
0.312172
0.31217
0.312228
0.312236
0.312316
0.312334
0.312427
0.312462
0.312568
0.312618
0.31274
0.312798
0.312936
0.313009
0.313172
0.31326
0.313454
0.313561
0.313792
0.313919
0.314193
0.314343
0.314685
0.314845
0.315372
0.315523
0.320619
4.20789
560.222
0.758177
0.634444
0.550648
0.494518
0.455997
0.428648
0.408499
0.393234
0.381319
0.371859
0.36416
0.357839
0.35253
0.348064
0.344215
0.340924
0.338028
0.33552
0.333274
0.331313
0.329528
0.327961
0.326513
0.325238
0.324047
0.322997
0.322002
0.321127
0.32029
0.319555
0.31884
0.318218
0.317609
0.317082
0.316555
0.316106
0.315654
0.315269
0.314874
0.314544
0.314199
0.313917
0.313622
0.313382
0.313119
0.312912
0.312691
0.312512
0.312312
0.312166
0.312003
0.311858
0.31172
0.3116
0.311506
0.311394
0.311283
0.311223
0.311123
0.311068
0.311032
0.31097
0.310949
0.310913
0.310919
0.310906
0.310942
0.310958
0.310955
0.311011
0.311018
0.311097
0.311113
0.311205
0.31124
0.311344
0.311393
0.311514
0.311571
0.311707
0.311778
0.311939
0.312027
0.312218
0.312324
0.312552
0.312678
0.31295
0.313097
0.313436
0.313595
0.314119
0.314267
0.319516
4.36032
561.365
0.758207
0.634422
0.550477
0.494178
0.455506
0.428032
0.407784
0.392439
0.38046
0.370948
0.363205
0.356848
0.351508
0.347017
0.343146
0.339835
0.336922
0.3344
0.332141
0.330168
0.328373
0.326796
0.325339
0.324057
0.322858
0.321802
0.320801
0.31992
0.319078
0.318338
0.317619
0.316993
0.316379
0.315849
0.315319
0.314866
0.314412
0.314023
0.313626
0.313293
0.312946
0.312662
0.312365
0.312122
0.311857
0.311649
0.311426
0.311245
0.311044
0.310895
0.310731
0.310585
0.310446
0.310324
0.310228
0.310116
0.310004
0.309942
0.309841
0.309785
0.309747
0.309684
0.309662
0.309624
0.309628
0.309614
0.309648
0.309662
0.309659
0.309714
0.309719
0.309796
0.309812
0.309902
0.309935
0.310039
0.310086
0.310205
0.310261
0.310395
0.310466
0.310625
0.310711
0.3109
0.311005
0.31123
0.311355
0.311623
0.311769
0.312105
0.312261
0.312782
0.312928
0.318339
4.52216
562.022
0.758238
0.634399
0.550298
0.493819
0.454986
0.427381
0.407026
0.391596
0.379549
0.369981
0.362192
0.355796
0.350424
0.345905
0.34201
0.338679
0.335748
0.33321
0.330937
0.328951
0.327144
0.325557
0.324092
0.322801
0.321595
0.320532
0.319524
0.318637
0.31779
0.317045
0.316321
0.315691
0.315073
0.314539
0.314005
0.313549
0.313091
0.3127
0.312299
0.311964
0.311614
0.311328
0.311028
0.310783
0.310517
0.310306
0.310081
0.309899
0.309695
0.309545
0.309379
0.309232
0.309091
0.308968
0.30887
0.308757
0.308643
0.30858
0.308479
0.30842
0.308381
0.308318
0.308294
0.308255
0.308257
0.308241
0.308274
0.308286
0.308282
0.308334
0.308338
0.308414
0.308428
0.308517
0.308549
0.308651
0.308697
0.308815
0.308869
0.309002
0.309071
0.309227
0.309312
0.309499
0.309602
0.309825
0.309948
0.310213
0.310357
0.31069
0.310844
0.311362
0.311505
0.317088
4.69257
562.111
0.758271
0.634375
0.55011
0.493442
0.454439
0.426693
0.406226
0.390705
0.378585
0.368958
0.36112
0.354683
0.349277
0.344728
0.340808
0.337455
0.334504
0.331949
0.329661
0.327662
0.325844
0.324246
0.322771
0.321471
0.320257
0.319186
0.318172
0.317279
0.316425
0.315675
0.314947
0.314312
0.313689
0.313151
0.312613
0.312154
0.311692
0.311298
0.310894
0.310556
0.310203
0.309914
0.309612
0.309365
0.309096
0.308883
0.308656
0.308472
0.308266
0.308114
0.307947
0.307798
0.307655
0.307531
0.307431
0.307318
0.307202
0.307137
0.307035
0.306975
0.306934
0.30687
0.306845
0.306805
0.306804
0.306786
0.306817
0.306827
0.306823
0.306873
0.306876
0.30695
0.306962
0.30705
0.30708
0.307181
0.307225
0.307341
0.307395
0.307525
0.307593
0.307747
0.307831
0.308015
0.308116
0.308336
0.308457
0.308719
0.308862
0.309191
0.309342
0.309857
0.309997
0.315762
4.87042
561.57
0.758306
0.634352
0.549914
0.493047
0.453864
0.42597
0.405383
0.389767
0.37757
0.367879
0.359989
0.353509
0.348066
0.343486
0.339539
0.336162
0.333192
0.330619
0.328315
0.326301
0.32447
0.322861
0.321375
0.320067
0.318844
0.317765
0.316744
0.315844
0.314984
0.314229
0.313494
0.312855
0.312227
0.311685
0.311143
0.31068
0.310214
0.309817
0.30941
0.309069
0.308713
0.308421
0.308116
0.307866
0.307595
0.30738
0.307151
0.306965
0.306757
0.306603
0.306434
0.306283
0.306139
0.306013
0.30591
0.305797
0.305679
0.305613
0.30551
0.305448
0.305405
0.30534
0.305313
0.305272
0.305269
0.305249
0.305278
0.305286
0.305281
0.305328
0.30533
0.305402
0.305414
0.3055
0.305528
0.305627
0.305671
0.305784
0.305836
0.305965
0.306031
0.306183
0.306265
0.306446
0.306547
0.306763
0.306883
0.307141
0.307282
0.307607
0.307756
0.308268
0.308405
0.314359
5.05429
560.334
0.758342
0.634328
0.549711
0.492635
0.453263
0.425212
0.404499
0.388782
0.376502
0.366745
0.358799
0.352274
0.346791
0.342178
0.338203
0.334801
0.331809
0.329217
0.326897
0.324868
0.323024
0.321402
0.319906
0.318587
0.317355
0.316268
0.315239
0.314332
0.313466
0.312705
0.311965
0.31132
0.310687
0.31014
0.309594
0.309127
0.308657
0.308256
0.307846
0.307501
0.307143
0.306848
0.30654
0.306288
0.306014
0.305796
0.305564
0.305377
0.305167
0.30501
0.304839
0.304687
0.304541
0.304413
0.304309
0.304194
0.304075
0.304007
0.303902
0.303839
0.303795
0.303729
0.3037
0.303658
0.303652
0.303629
0.303657
0.303663
0.303656
0.303701
0.303702
0.303772
0.303782
0.303866
0.303893
0.30399
0.304032
0.304144
0.304195
0.304321
0.304386
0.304535
0.304616
0.304794
0.304893
0.305106
0.305224
0.305479
0.305617
0.305938
0.306084
0.306593
0.306727
0.312878
5.24245
558.357
0.758379
0.634305
0.549501
0.492205
0.452635
0.424419
0.403573
0.387749
0.375383
0.365555
0.357551
0.350977
0.345453
0.340805
0.3368
0.333372
0.330357
0.327746
0.325407
0.323363
0.321504
0.31987
0.318362
0.317033
0.315791
0.314695
0.313658
0.312744
0.311871
0.311103
0.310357
0.309706
0.309069
0.308517
0.307966
0.307494
0.307021
0.306616
0.306202
0.305854
0.305492
0.305194
0.304883
0.304629
0.304352
0.304132
0.303897
0.303707
0.303495
0.303337
0.303164
0.30301
0.302861
0.302732
0.302625
0.30251
0.302389
0.302319
0.302213
0.302147
0.302101
0.302035
0.302004
0.301961
0.301953
0.301927
0.301952
0.301957
0.301949
0.301991
0.301991
0.302059
0.302067
0.30215
0.302175
0.30227
0.30231
0.30242
0.302469
0.302593
0.302656
0.302803
0.302882
0.303057
0.303154
0.303364
0.30348
0.303731
0.303867
0.304184
0.304328
0.304833
0.304964
0.311318
5.43283
555.6
0.758418
0.634282
0.549283
0.49176
0.451981
0.423592
0.402606
0.386669
0.374212
0.36431
0.356245
0.349619
0.344052
0.339367
0.33533
0.331875
0.328836
0.326203
0.323846
0.321785
0.319911
0.318264
0.316743
0.315403
0.314151
0.313046
0.312001
0.311079
0.310198
0.309424
0.308671
0.308015
0.307372
0.306815
0.306259
0.305783
0.305305
0.304897
0.304478
0.304127
0.303762
0.303461
0.303146
0.302889
0.302609
0.302387
0.302149
0.301957
0.301743
0.301581
0.301406
0.301251
0.3011
0.300969
0.300859
0.300744
0.30062
0.300549
0.300442
0.300374
0.300326
0.300258
0.300225
0.300181
0.300171
0.300142
0.300165
0.300168
0.300158
0.300197
0.300197
0.300262
0.300269
0.300349
0.300373
0.300466
0.300504
0.300612
0.300659
0.300781
0.300843
0.300987
0.301064
0.301236
0.301331
0.301537
0.301651
0.301899
0.302033
0.302345
0.302486
0.302987
0.303116
0.309677
5.62301
552.026
0.758459
0.634259
0.54906
0.491298
0.451302
0.422731
0.401599
0.385544
0.372991
0.36301
0.35488
0.3482
0.342588
0.337864
0.333794
0.33031
0.327245
0.32459
0.322213
0.320135
0.318245
0.316584
0.31505
0.313698
0.312436
0.311321
0.310267
0.309337
0.308448
0.307667
0.306908
0.306246
0.305597
0.305035
0.304473
0.303993
0.30351
0.303097
0.302675
0.302321
0.301951
0.301647
0.301329
0.301068
0.300786
0.30056
0.30032
0.300126
0.299909
0.299745
0.299568
0.29941
0.299257
0.299124
0.299012
0.298895
0.29877
0.298696
0.298588
0.298518
0.298468
0.298399
0.298364
0.298318
0.298306
0.298275
0.298294
0.298296
0.298285
0.29832
0.298319
0.298381
0.298387
0.298465
0.298487
0.298578
0.298614
0.29872
0.298766
0.298885
0.298945
0.299086
0.299162
0.29933
0.299423
0.299626
0.299738
0.299981
0.300113
0.300421
0.300558
0.301056
0.301182
0.307953
5.81021
547.601
0.7585
0.634238
0.54883
0.490821
0.450598
0.421837
0.400551
0.384372
0.371719
0.361656
0.353458
0.346721
0.341061
0.336297
0.332191
0.328676
0.325585
0.322907
0.320509
0.318412
0.316506
0.31483
0.313283
0.311919
0.310645
0.309521
0.308457
0.307518
0.306621
0.305833
0.305067
0.304398
0.303743
0.303175
0.302609
0.302123
0.301636
0.301219
0.300792
0.300434
0.30006
0.299752
0.299431
0.299167
0.298881
0.298653
0.29841
0.298213
0.297993
0.297827
0.297647
0.297488
0.297333
0.297197
0.297083
0.296965
0.296837
0.296762
0.296652
0.296579
0.296527
0.296457
0.29642
0.296373
0.296358
0.296325
0.296341
0.296341
0.296328
0.29636
0.296358
0.296417
0.296422
0.296498
0.296517
0.296606
0.296641
0.296744
0.296788
0.296904
0.296963
0.297101
0.297175
0.29734
0.297431
0.29763
0.29774
0.297979
0.298108
0.298411
0.298545
0.299039
0.299163
0.306145
5.99131
542.289
0.758543
0.634216
0.548595
0.49033
0.44987
0.420911
0.399464
0.383155
0.370397
0.360247
0.351978
0.345182
0.339471
0.334664
0.330522
0.326975
0.323857
0.321153
0.318734
0.316618
0.314694
0.313002
0.311441
0.310065
0.308779
0.307644
0.30657
0.305622
0.304717
0.303921
0.303148
0.302472
0.301811
0.301237
0.300665
0.300174
0.299682
0.29926
0.298829
0.298467
0.298089
0.297778
0.297452
0.297186
0.296897
0.296665
0.296419
0.296219
0.295997
0.295828
0.295645
0.295484
0.295326
0.295189
0.295071
0.294952
0.294822
0.294745
0.294634
0.294559
0.294504
0.294433
0.294393
0.294345
0.294328
0.294292
0.294305
0.294304
0.294289
0.294317
0.294314
0.29437
0.294373
0.294446
0.294464
0.294551
0.294583
0.294684
0.294726
0.29484
0.294896
0.295031
0.295103
0.295265
0.295354
0.295549
0.295656
0.295891
0.296018
0.296317
0.296447
0.296937
0.297059
0.304251
6.16285
536.049
0.758587
0.634196
0.548356
0.489824
0.449119
0.419953
0.398339
0.381894
0.369025
0.358786
0.350442
0.343583
0.33782
0.332968
0.328787
0.325207
0.322059
0.31933
0.316888
0.314752
0.31281
0.311102
0.309526
0.308136
0.306838
0.305692
0.304608
0.303651
0.302737
0.301932
0.301151
0.300469
0.299801
0.299221
0.298643
0.298147
0.297649
0.297223
0.296787
0.29642
0.296039
0.295723
0.295394
0.295124
0.294831
0.294597
0.294347
0.294145
0.293919
0.293747
0.293562
0.293399
0.293239
0.293099
0.292978
0.292858
0.292726
0.292646
0.292534
0.292456
0.292399
0.292327
0.292284
0.292234
0.292215
0.292176
0.292186
0.292184
0.292166
0.292191
0.292187
0.292239
0.292241
0.292312
0.292327
0.292412
0.292442
0.29254
0.292581
0.292692
0.292746
0.292878
0.292948
0.293106
0.293193
0.293383
0.293489
0.293719
0.293843
0.294137
0.294264
0.29475
0.294869
0.302268
6.32111
528.839
0.758633
0.634177
0.548111
0.489306
0.448345
0.418965
0.397175
0.380589
0.367605
0.357271
0.34885
0.341926
0.336107
0.331208
0.326987
0.323372
0.320194
0.317438
0.314972
0.312814
0.310854
0.309128
0.307537
0.306133
0.304823
0.303665
0.30257
0.301603
0.30068
0.299867
0.299078
0.298388
0.297713
0.297127
0.296543
0.296041
0.295538
0.295107
0.294666
0.294295
0.293909
0.293589
0.293256
0.292982
0.292686
0.292448
0.292195
0.291989
0.291761
0.291586
0.291399
0.291233
0.29107
0.290928
0.290804
0.290683
0.290548
0.290466
0.290352
0.290272
0.290213
0.290138
0.290094
0.290042
0.29002
0.289979
0.289985
0.289982
0.289961
0.289983
0.289977
0.290026
0.290027
0.290095
0.290108
0.29019
0.290218
0.290313
0.290352
0.29046
0.290512
0.290641
0.290709
0.290863
0.290948
0.291134
0.291237
0.291463
0.291584
0.291873
0.291997
0.292478
0.292595
0.300195
6.46208
520.609
0.758679
0.634159
0.547863
0.488775
0.44755
0.417947
0.395975
0.379241
0.366137
0.355705
0.347202
0.34021
0.334334
0.329386
0.325123
0.321471
0.318261
0.315477
0.312986
0.310806
0.308826
0.307083
0.305476
0.304057
0.302733
0.301563
0.300457
0.299479
0.298547
0.297725
0.296928
0.296231
0.295548
0.294956
0.294365
0.293857
0.293348
0.292912
0.292466
0.29209
0.2917
0.291376
0.291038
0.290761
0.290461
0.290219
0.289963
0.289754
0.289523
0.289345
0.289154
0.288987
0.288821
0.288676
0.288549
0.288427
0.288289
0.288205
0.288089
0.288006
0.287944
0.287869
0.287821
0.287768
0.287743
0.287701
0.287702
0.287697
0.287675
0.287693
0.287686
0.28773
0.28773
0.287795
0.287806
0.287885
0.287911
0.288004
0.28804
0.288145
0.288195
0.28832
0.288386
0.288537
0.288619
0.288801
0.288902
0.289122
0.289241
0.289524
0.289645
0.290122
0.290236
0.298029
6.58161
511.307
0.758726
0.634143
0.547611
0.488232
0.446735
0.4169
0.394739
0.377851
0.364623
0.354087
0.3455
0.338436
0.3325
0.327501
0.323194
0.319505
0.316261
0.313448
0.310931
0.308728
0.306727
0.304966
0.303341
0.301908
0.30057
0.299387
0.298269
0.297281
0.296338
0.295508
0.294702
0.293997
0.293306
0.292707
0.29211
0.291596
0.291081
0.290639
0.290188
0.289807
0.289412
0.289084
0.288742
0.28846
0.288157
0.287912
0.287651
0.28744
0.287205
0.287024
0.28683
0.28666
0.286491
0.286344
0.286214
0.28609
0.28595
0.285863
0.285745
0.28566
0.285595
0.285518
0.285468
0.285412
0.285385
0.285341
0.285338
0.285332
0.285306
0.285321
0.285312
0.285351
0.285351
0.285412
0.285422
0.285498
0.285521
0.285611
0.285645
0.285747
0.285796
0.285917
0.285981
0.286127
0.286207
0.286385
0.286483
0.286698
0.286814
0.287092
0.287209
0.287681
0.287794
0.295768
6.67548
500.874
0.758774
0.634128
0.547356
0.487679
0.4459
0.415825
0.393468
0.37642
0.363062
0.35242
0.343744
0.336606
0.330608
0.325556
0.321202
0.317473
0.314195
0.311351
0.308807
0.306581
0.304558
0.302777
0.301136
0.299686
0.298334
0.297138
0.296008
0.295009
0.294055
0.293215
0.2924
0.291687
0.290989
0.290382
0.289778
0.289258
0.288736
0.288289
0.287832
0.287447
0.287047
0.286714
0.286367
0.286082
0.285774
0.285525
0.285261
0.285046
0.284808
0.284623
0.284427
0.284254
0.284082
0.283932
0.283798
0.283673
0.28353
0.283441
0.283321
0.283233
0.283165
0.283087
0.283034
0.282976
0.282946
0.282901
0.282894
0.282885
0.282858
0.282869
0.282858
0.282892
0.282891
0.282949
0.282956
0.283029
0.28305
0.283137
0.283169
0.283268
0.283314
0.283432
0.283493
0.283635
0.283713
0.283886
0.283981
0.284192
0.284305
0.284578
0.284691
0.285158
0.285268
0.29341
6.73947
489.256
0.758823
0.634115
0.5471
0.487116
0.445046
0.414724
0.392163
0.37495
0.361456
0.350703
0.341935
0.334721
0.328657
0.32355
0.319149
0.315378
0.312064
0.309188
0.306616
0.304365
0.30232
0.300519
0.298859
0.297393
0.296026
0.294816
0.293673
0.292663
0.291698
0.290848
0.290024
0.289303
0.288596
0.287982
0.28737
0.286844
0.286316
0.285863
0.2854
0.28501
0.284604
0.284267
0.283915
0.283625
0.283313
0.283061
0.282792
0.282574
0.282333
0.282145
0.281945
0.28177
0.281594
0.281442
0.281304
0.281177
0.281032
0.280939
0.280818
0.280727
0.280656
0.280576
0.28052
0.280461
0.280428
0.28038
0.280369
0.280359
0.280329
0.280336
0.280323
0.280353
0.280351
0.280405
0.28041
0.28048
0.280498
0.280582
0.280612
0.280708
0.280751
0.280865
0.280924
0.281062
0.281138
0.281305
0.281398
0.281604
0.281714
0.28198
0.28209
0.282552
0.28266
0.290951
6.76953
476.397
0.758873
0.634104
0.546841
0.486544
0.444176
0.413598
0.390826
0.373441
0.359807
0.348939
0.340075
0.332781
0.32665
0.321484
0.317034
0.313221
0.309868
0.30696