/*--------------------------------*- C++ -*----------------------------------*\
| =========                 |                                                 |
| \\      /  F ield         | OpenFOAM: The Open Source CFD Toolbox           |
|  \\    /   O peration     | Version:  v2012                                 |
|   \\  /    A nd           | Website:  www.openfoam.com                      |
|    \\/     M anipulation  |                                                 |
\*---------------------------------------------------------------------------*/
FoamFile
{
    version     2.0;
    format      ascii;
    class       volScalarField;
    location    "41.5";
    object      k;
}
// * * * * * * * * * * * * * * * * * * * * * * * * * * * * * * * * * * * * * //

dimensions      [0 2 -2 0 0 0 0];


internalField   nonuniform List<scalar> 
209825
(
0.00102454
0.000932632
0.000854483
0.000788525
0.000733673
0.000688615
0.000651486
0.000620833
0.000595159
0.000573575
0.000555109
0.000539309
0.000525523
0.000513564
0.000502949
0.000493642
0.000485258
0.000477854
0.000471095
0.000465098
0.000459555
0.000454622
0.000450011
0.0004459
0.000442016
0.000438552
0.000435249
0.000432307
0.000429466
0.000426951
0.000424495
0.000422327
0.000420185
0.000418309
0.000416433
0.000414804
0.000413155
0.000411734
0.000410275
0.000409031
0.000407734
0.000406642
0.000405485
0.000404526
0.000403493
0.000402647
0.000401722
0.000400974
0.000400144
0.000399485
0.000398739
0.000398156
0.000397487
0.000396975
0.000396375
0.000395919
0.00039538
0.000394984
0.000394497
0.000394148
0.00039371
0.000393409
0.000393008
0.000392747
0.000392391
0.000392162
0.000391843
0.000391639
0.000391356
0.000391176
0.000390927
0.000390764
0.000390546
0.000390404
0.000390202
0.000390072
0.000389889
0.000389777
0.000389616
0.000389525
0.000389386
0.000389315
0.000389197
0.000389149
0.000389058
0.000389038
0.000388994
0.000389024
0.000389023
0.000389091
0.000389091
0.000389241
0.000389244
0.000393276
0.0115351
0.0127022
0.00102454
0.000932632
0.000854484
0.000788526
0.000733673
0.000688615
0.000651485
0.00062083
0.000595155
0.000573571
0.000555104
0.000539303
0.000525516
0.000513557
0.00050294
0.000493634
0.000485249
0.000477844
0.000471085
0.000465087
0.000459544
0.000454611
0.00045
0.000445888
0.000442004
0.00043854
0.000435236
0.000432294
0.000429453
0.000426938
0.000424481
0.000422313
0.000420171
0.000418295
0.000416419
0.00041479
0.000413141
0.00041172
0.000410261
0.000409016
0.000407719
0.000406627
0.00040547
0.000404511
0.000403478
0.000402632
0.000401707
0.000400959
0.000400129
0.000399469
0.000398724
0.000398141
0.000397472
0.000396959
0.000396359
0.000395904
0.000395364
0.000394968
0.000394481
0.000394132
0.000393694
0.000393393
0.000392992
0.000392731
0.000392375
0.000392146
0.000391826
0.000391623
0.00039134
0.00039116
0.000390911
0.000390748
0.00039053
0.000390388
0.000390186
0.000390055
0.000389872
0.000389761
0.000389599
0.000389509
0.000389369
0.000389299
0.000389181
0.000389132
0.000389042
0.000389022
0.000388977
0.000389007
0.000389006
0.000389074
0.000389074
0.000389224
0.000389227
0.000393264
0.0115459
0.012716
0.00102454
0.000932633
0.000854486
0.000788528
0.000733673
0.00068861
0.000651476
0.000620817
0.000595137
0.000573549
0.000555078
0.000539274
0.000525484
0.000513522
0.000502903
0.000493594
0.000485208
0.000477801
0.000471041
0.000465041
0.000459496
0.000454562
0.00044995
0.000445837
0.000441952
0.000438487
0.000435182
0.00043224
0.000429398
0.000426882
0.000424425
0.000422256
0.000420114
0.000418237
0.00041636
0.000414731
0.000413081
0.000411659
0.0004102
0.000408955
0.000407658
0.000406566
0.000405408
0.000404449
0.000403416
0.000402569
0.000401644
0.000400896
0.000400065
0.000399405
0.00039866
0.000398076
0.000397407
0.000396894
0.000396294
0.000395838
0.000395299
0.000394902
0.000394415
0.000394066
0.000393627
0.000393326
0.000392925
0.000392664
0.000392308
0.000392079
0.000391759
0.000391555
0.000391273
0.000391093
0.000390844
0.00039068
0.000390462
0.00039032
0.000390118
0.000389987
0.000389804
0.000389692
0.000389531
0.00038944
0.0003893
0.00038923
0.000389112
0.000389063
0.000388972
0.000388952
0.000388907
0.000388937
0.000388936
0.000389003
0.000389003
0.000389154
0.000389156
0.000393205
0.0115696
0.0127471
0.00102454
0.000932635
0.00085449
0.000788531
0.000733671
0.000688602
0.00065146
0.000620793
0.000595107
0.000573511
0.000555035
0.000539225
0.00052543
0.000513464
0.000502841
0.000493528
0.000485138
0.000477729
0.000470965
0.000464963
0.000459416
0.00045448
0.000449866
0.000445751
0.000441864
0.000438398
0.000435092
0.000432148
0.000429305
0.000426787
0.000424329
0.00042216
0.000420016
0.000418139
0.000416261
0.000414631
0.00041298
0.000411558
0.000410098
0.000408853
0.000407554
0.000406462
0.000405304
0.000404344
0.00040331
0.000402463
0.000401537
0.000400789
0.000399958
0.000399298
0.000398551
0.000397968
0.000397298
0.000396785
0.000396184
0.000395728
0.000395188
0.000394792
0.000394304
0.000393955
0.000393516
0.000393215
0.000392813
0.000392552
0.000392196
0.000391966
0.000391646
0.000391442
0.000391159
0.000390979
0.00039073
0.000390567
0.000390348
0.000390206
0.000390004
0.000389873
0.000389689
0.000389578
0.000389416
0.000389325
0.000389185
0.000389114
0.000388996
0.000388947
0.000388856
0.000388836
0.00038879
0.000388819
0.000388818
0.000388885
0.000388885
0.000389035
0.000389036
0.000393103
0.0116068
0.0127961
0.00102454
0.000932637
0.000854496
0.000788535
0.000733669
0.000688591
0.000651438
0.00062076
0.000595064
0.000573458
0.000554973
0.000539156
0.000525353
0.000513381
0.000502752
0.000493435
0.00048504
0.000477626
0.000470859
0.000464853
0.000459303
0.000454364
0.000449747
0.00044563
0.000441741
0.000438272
0.000434964
0.000432018
0.000429173
0.000426654
0.000424194
0.000422024
0.000419879
0.000418
0.000416121
0.000414489
0.000412838
0.000411415
0.000409954
0.000408707
0.000407408
0.000406315
0.000405156
0.000404196
0.000403161
0.000402313
0.000401387
0.000400638
0.000399806
0.000399145
0.000398399
0.000397814
0.000397145
0.000396631
0.000396029
0.000395573
0.000395033
0.000394636
0.000394148
0.000393798
0.000393359
0.000393057
0.000392655
0.000392394
0.000392037
0.000391808
0.000391487
0.000391283
0.000390999
0.000390819
0.00039057
0.000390406
0.000390187
0.000390044
0.000389842
0.000389711
0.000389528
0.000389415
0.000389253
0.000389162
0.000389022
0.000388951
0.000388832
0.000388783
0.000388692
0.000388671
0.000388625
0.000388653
0.000388652
0.000388717
0.000388717
0.000388866
0.000388868
0.000392959
0.0116582
0.012864
0.00102454
0.00093264
0.000854503
0.000788541
0.000733667
0.000688576
0.000651409
0.000620718
0.000595007
0.00057339
0.000554894
0.000539066
0.000525255
0.000513274
0.000502638
0.000493313
0.000484913
0.000477493
0.000470721
0.000464711
0.000459157
0.000454213
0.000449593
0.000445473
0.00044158
0.000438109
0.000434798
0.00043185
0.000429003
0.000426482
0.00042402
0.000421847
0.000419701
0.00041782
0.000415939
0.000414307
0.000412654
0.000411229
0.000409767
0.00040852
0.000407219
0.000406125
0.000404965
0.000404003
0.000402968
0.000402119
0.000401192
0.000400442
0.00039961
0.000398948
0.000398201
0.000397616
0.000396945
0.000396431
0.000395829
0.000395372
0.000394831
0.000394434
0.000393945
0.000393595
0.000393155
0.000392853
0.000392451
0.000392189
0.000391832
0.000391602
0.000391281
0.000391076
0.000390792
0.000390611
0.000390362
0.000390198
0.000389979
0.000389836
0.000389633
0.000389502
0.000389318
0.000389205
0.000389043
0.000388951
0.00038881
0.000388739
0.00038862
0.000388571
0.000388479
0.000388457
0.00038841
0.000388438
0.000388436
0.0003885
0.0003885
0.000388649
0.00038865
0.000392772
0.0117248
0.0129519
0.00102454
0.000932643
0.000854512
0.000788548
0.000733664
0.000688558
0.000651374
0.000620665
0.000594939
0.000573306
0.000554796
0.000538956
0.000525133
0.000513142
0.000502497
0.000493164
0.000484756
0.00047733
0.000470552
0.000464536
0.000458976
0.000454028
0.000449403
0.000445279
0.000441383
0.000437908
0.000434594
0.000431643
0.000428793
0.000426269
0.000423805
0.00042163
0.000419481
0.000417599
0.000415716
0.000414082
0.000412427
0.000411001
0.000409537
0.000408288
0.000406986
0.000405891
0.000404729
0.000403767
0.00040273
0.00040188
0.000400952
0.000400201
0.000399368
0.000398705
0.000397957
0.000397371
0.0003967
0.000396185
0.000395582
0.000395125
0.000394583
0.000394185
0.000393695
0.000393345
0.000392904
0.000392601
0.000392198
0.000391936
0.000391579
0.000391348
0.000391027
0.000390821
0.000390537
0.000390356
0.000390106
0.000389941
0.000389722
0.000389578
0.000389375
0.000389244
0.000389059
0.000388946
0.000388783
0.000388691
0.00038855
0.000388478
0.000388359
0.000388309
0.000388216
0.000388194
0.000388146
0.000388173
0.00038817
0.000388233
0.000388233
0.00038838
0.000388381
0.000392541
0.0118071
0.0130607
0.00102453
0.000932647
0.000854523
0.000788557
0.000733661
0.000688537
0.000651333
0.000620603
0.000594857
0.000573206
0.00055468
0.000538825
0.000524988
0.000512986
0.00050233
0.000492987
0.00048457
0.000477136
0.00047035
0.000464327
0.000458761
0.000453808
0.000449178
0.000445049
0.000441148
0.000437669
0.000434351
0.000431397
0.000428543
0.000426016
0.000423549
0.000421371
0.00041922
0.000417335
0.00041545
0.000413813
0.000412156
0.000410729
0.000409263
0.000408012
0.000406709
0.000405612
0.000404449
0.000403485
0.000402447
0.000401596
0.000400666
0.000399914
0.000399079
0.000398416
0.000397667
0.00039708
0.000396407
0.000395891
0.000395288
0.00039483
0.000394287
0.000393888
0.000393397
0.000393047
0.000392605
0.000392302
0.000391898
0.000391635
0.000391277
0.000391046
0.000390724
0.000390518
0.000390233
0.000390051
0.0003898
0.000389636
0.000389416
0.000389272
0.000389068
0.000388936
0.000388751
0.000388638
0.000388474
0.000388382
0.00038824
0.000388167
0.000388047
0.000387997
0.000387903
0.000387881
0.000387831
0.000387857
0.000387854
0.000387915
0.000387915
0.00038806
0.000388061
0.000392268
0.0119058
0.0131912
0.00102453
0.000932651
0.000854535
0.000788567
0.000733658
0.000688513
0.000651285
0.000620532
0.000594763
0.000573091
0.000554545
0.000538673
0.000524821
0.000512804
0.000502135
0.000492781
0.000484354
0.00047691
0.000470115
0.000464085
0.000458512
0.000453552
0.000448915
0.000444781
0.000440875
0.000437391
0.000434069
0.00043111
0.000428253
0.000425722
0.000423251
0.000421071
0.000418916
0.000417028
0.00041514
0.000413502
0.000411842
0.000410412
0.000408944
0.000407692
0.000406386
0.000405287
0.000404123
0.000403157
0.000402117
0.000401265
0.000400334
0.00039958
0.000398744
0.00039808
0.000397329
0.000396741
0.000396067
0.00039555
0.000394945
0.000394486
0.000393942
0.000393543
0.000393051
0.0003927
0.000392257
0.000391953
0.000391548
0.000391285
0.000390926
0.000390694
0.000390371
0.000390165
0.000389879
0.000389697
0.000389445
0.00038928
0.00038906
0.000388915
0.000388711
0.000388579
0.000388393
0.000388279
0.000388115
0.000388021
0.000387879
0.000387806
0.000387685
0.000387633
0.000387539
0.000387516
0.000387465
0.00038749
0.000387485
0.000387545
0.000387544
0.000387688
0.000387688
0.00039195
0.0120214
0.0133445
0.00102453
0.000932656
0.00085455
0.000788578
0.000733654
0.000688486
0.000651231
0.00062045
0.000594655
0.000572959
0.000554392
0.0005385
0.00052463
0.000512597
0.000501914
0.000492546
0.000484107
0.000476652
0.000469848
0.000463809
0.000458227
0.000453259
0.000448616
0.000444475
0.000440563
0.000437074
0.000433746
0.000430783
0.000427921
0.000425386
0.000422912
0.000420727
0.000418569
0.000416678
0.000414787
0.000413145
0.000411483
0.000410051
0.00040858
0.000407325
0.000406017
0.000404916
0.00040375
0.000402782
0.000401741
0.000400887
0.000399954
0.000399199
0.000398361
0.000397695
0.000396943
0.000396354
0.000395679
0.00039516
0.000394554
0.000394094
0.000393549
0.000393148
0.000392656
0.000392303
0.00039186
0.000391555
0.000391149
0.000390885
0.000390525
0.000390292
0.000389968
0.000389761
0.000389475
0.000389292
0.00038904
0.000388874
0.000388653
0.000388508
0.000388303
0.00038817
0.000387983
0.000387869
0.000387704
0.00038761
0.000387466
0.000387392
0.000387271
0.000387219
0.000387124
0.0003871
0.000387047
0.00038707
0.000387065
0.000387122
0.000387121
0.000387263
0.000387263
0.000391588
0.0121542
0.0135213
0.00102453
0.000932662
0.000854566
0.000788592
0.00073365
0.000688456
0.000651171
0.000620359
0.000594535
0.000572812
0.00055422
0.000538305
0.000524415
0.000512364
0.000501665
0.000492282
0.00048383
0.000476363
0.000469547
0.000463498
0.000457907
0.00045293
0.000448279
0.000444131
0.000440212
0.000436717
0.000433384
0.000430415
0.000427548
0.000425008
0.000422529
0.000420341
0.000418178
0.000416284
0.000414389
0.000412744
0.000411079
0.000409643
0.00040817
0.000406913
0.000405602
0.000404499
0.00040333
0.00040236
0.000401316
0.000400461
0.000399526
0.000398769
0.000397929
0.000397262
0.000396508
0.000395918
0.000395241
0.000394721
0.000394114
0.000393653
0.000393106
0.000392704
0.00039221
0.000391857
0.000391412
0.000391106
0.000390699
0.000390434
0.000390073
0.000389839
0.000389515
0.000389307
0.00038902
0.000388836
0.000388583
0.000388416
0.000388194
0.000388049
0.000387843
0.00038771
0.000387522
0.000387407
0.000387241
0.000387146
0.000387001
0.000386927
0.000386804
0.000386751
0.000386655
0.00038663
0.000386576
0.000386597
0.000386591
0.000386646
0.000386644
0.000386784
0.000386783
0.000391181
0.0123044
0.0137224
0.00102452
0.000932668
0.000854583
0.000788607
0.000733647
0.000688423
0.000651105
0.000620259
0.000594402
0.000572649
0.000554029
0.00053809
0.000524177
0.000512106
0.000501388
0.000491989
0.000483521
0.000476041
0.000469213
0.000463152
0.000457551
0.000452565
0.000447905
0.000443748
0.000439822
0.00043632
0.00043298
0.000430005
0.000427132
0.000424587
0.000422103
0.00041991
0.000417744
0.000415845
0.000413946
0.000412298
0.000410629
0.00040919
0.000407713
0.000406453
0.00040514
0.000404034
0.000402862
0.000401891
0.000400844
0.000399986
0.000399049
0.000398291
0.000397449
0.00039678
0.000396024
0.000395432
0.000394753
0.000394232
0.000393623
0.000393161
0.000392612
0.000392209
0.000391714
0.000391359
0.000390913
0.000390606
0.000390198
0.000389932
0.000389569
0.000389335
0.000389009
0.0003888
0.000388512
0.000388327
0.000388073
0.000387906
0.000387684
0.000387537
0.000387331
0.000387197
0.000387008
0.000386892
0.000386725
0.000386629
0.000386483
0.000386408
0.000386284
0.00038623
0.000386133
0.000386107
0.00038605
0.00038607
0.000386062
0.000386115
0.000386112
0.000386251
0.000386249
0.000390729
0.012472
0.0139487
0.00102452
0.000932675
0.000854603
0.000788624
0.000733643
0.000688388
0.000651033
0.000620149
0.000594257
0.00057247
0.00055382
0.000537853
0.000523916
0.000511822
0.000501083
0.000491666
0.000483182
0.000475686
0.000468845
0.000462771
0.000457158
0.000452161
0.000447492
0.000443326
0.000439392
0.000435882
0.000432534
0.000429553
0.000426674
0.000424123
0.000421633
0.000419435
0.000417264
0.000415361
0.000413458
0.000411805
0.000410132
0.00040869
0.000407209
0.000405946
0.00040463
0.000403521
0.000402346
0.000401372
0.000400323
0.000399463
0.000398523
0.000397763
0.000396918
0.000396248
0.000395489
0.000394896
0.000394215
0.000393693
0.000393081
0.000392617
0.000392067
0.000391663
0.000391166
0.00039081
0.000390362
0.000390054
0.000389645
0.000389377
0.000389014
0.000388778
0.000388451
0.000388241
0.000387952
0.000387766
0.000387511
0.000387344
0.00038712
0.000386973
0.000386765
0.00038663
0.00038644
0.000386323
0.000386155
0.000386059
0.000385912
0.000385835
0.00038571
0.000385655
0.000385557
0.00038553
0.000385471
0.000385488
0.000385479
0.00038553
0.000385525
0.000385662
0.00038566
0.00039023
0.0126568
0.0142007
0.00102451
0.000932682
0.000854625
0.000788642
0.00073364
0.00068835
0.000650955
0.00062003
0.000594098
0.000572275
0.000553592
0.000537594
0.00052363
0.000511511
0.000500751
0.000491314
0.000482811
0.000475299
0.000468442
0.000462355
0.000456729
0.000451721
0.00044704
0.000442865
0.000438921
0.000435402
0.000432047
0.000429058
0.000426172
0.000423615
0.000421119
0.000418916
0.000416739
0.000414831
0.000412923
0.000411266
0.000409589
0.000408142
0.000406658
0.000405391
0.000404071
0.00040296
0.000401782
0.000400804
0.000399752
0.000398889
0.000397947
0.000397184
0.000396338
0.000395665
0.000394904
0.000394309
0.000393626
0.000393101
0.000392488
0.000392023
0.00039147
0.000391065
0.000390566
0.000390209
0.000389759
0.00038945
0.000389039
0.00038877
0.000388405
0.000388168
0.00038784
0.000387629
0.000387338
0.000387152
0.000386895
0.000386727
0.000386502
0.000386354
0.000386146
0.00038601
0.000385819
0.000385701
0.000385531
0.000385434
0.000385285
0.000385208
0.000385081
0.000385025
0.000384926
0.000384897
0.000384836
0.000384851
0.000384841
0.000384888
0.000384883
0.000385017
0.000385014
0.000389686
0.012858
0.0144791
0.00102451
0.00093269
0.000854648
0.000788663
0.000733637
0.00068831
0.000650871
0.000619902
0.000593928
0.000572065
0.000553345
0.000537315
0.000523321
0.000511175
0.000500391
0.000490932
0.000482409
0.000474878
0.000468005
0.000461902
0.000456263
0.000451242
0.000446549
0.000442363
0.000438409
0.000434882
0.000431517
0.00042852
0.000425627
0.000423063
0.00042056
0.000418351
0.000416168
0.000414255
0.000412341
0.000410679
0.000408997
0.000407547
0.000406058
0.000404788
0.000403464
0.000402349
0.000401167
0.000400187
0.000399131
0.000398266
0.000397321
0.000396555
0.000395706
0.000395031
0.000394267
0.00039367
0.000392984
0.000392458
0.000391843
0.000391375
0.000390821
0.000390414
0.000389913
0.000389554
0.000389102
0.000388792
0.000388379
0.000388109
0.000387742
0.000387505
0.000387175
0.000386963
0.000386671
0.000386483
0.000386225
0.000386056
0.00038583
0.000385681
0.000385471
0.000385334
0.000385142
0.000385023
0.000384852
0.000384754
0.000384604
0.000384525
0.000384397
0.00038434
0.000384239
0.000384209
0.000384146
0.000384158
0.000384146
0.000384191
0.000384183
0.000384316
0.000384311
0.000389094
0.013075
0.0147844
0.0010245
0.000932698
0.000854673
0.000788685
0.000733635
0.000688268
0.000650782
0.000619765
0.000593745
0.000571839
0.000553079
0.000537014
0.000522988
0.000510813
0.000500002
0.000490519
0.000481975
0.000474425
0.000467533
0.000461414
0.00045576
0.000450725
0.000446019
0.000441822
0.000437857
0.000434319
0.000430945
0.00042794
0.000425038
0.000422466
0.000419956
0.00041774
0.000415551
0.000413632
0.000411712
0.000410045
0.000408358
0.000406903
0.00040541
0.000404135
0.000402807
0.000401688
0.000400503
0.000399519
0.00039846
0.000397591
0.000396643
0.000395875
0.000395022
0.000394345
0.000393579
0.000392979
0.000392291
0.000391762
0.000391144
0.000390675
0.000390119
0.00038971
0.000389207
0.000388846
0.000388392
0.000388081
0.000387666
0.000387394
0.000387026
0.000386786
0.000386455
0.000386242
0.000385948
0.000385759
0.0003855
0.00038533
0.000385102
0.000384953
0.000384742
0.000384604
0.00038441
0.00038429
0.000384117
0.000384018
0.000383866
0.000383786
0.000383657
0.000383598
0.000383495
0.000383464
0.000383398
0.000383408
0.000383394
0.000383436
0.000383426
0.000383557
0.000383551
0.000388454
0.0133063
0.015117
0.0010245
0.000932707
0.0008547
0.00078871
0.000733633
0.000688223
0.000650688
0.000619619
0.000593549
0.000571597
0.000552796
0.000536692
0.000522631
0.000510424
0.000499585
0.000490077
0.000481509
0.000473937
0.000467027
0.00046089
0.000455219
0.000450169
0.00044545
0.000441239
0.000437263
0.000433714
0.00043033
0.000427315
0.000424404
0.000421824
0.000419307
0.000417083
0.000414887
0.000412961
0.000411036
0.000409363
0.00040767
0.00040621
0.000404712
0.000403433
0.0004021
0.000400977
0.000399787
0.0003988
0.000397737
0.000396865
0.000395913
0.000395142
0.000394287
0.000393606
0.000392837
0.000392235
0.000391544
0.000391013
0.000390393
0.000389922
0.000389362
0.000388951
0.000388446
0.000388084
0.000387628
0.000387315
0.000386898
0.000386625
0.000386254
0.000386013
0.00038568
0.000385466
0.00038517
0.00038498
0.00038472
0.000384548
0.000384319
0.000384169
0.000383956
0.000383817
0.000383622
0.0003835
0.000383326
0.000383225
0.000383072
0.000382991
0.00038286
0.000382799
0.000382695
0.000382662
0.000382594
0.000382601
0.000382584
0.000382623
0.000382612
0.00038274
0.000382733
0.000387766
0.0135505
0.015477
0.00102449
0.000932716
0.000854729
0.000788737
0.000733633
0.000688177
0.000650589
0.000619465
0.000593342
0.00057134
0.000552493
0.000536348
0.00052225
0.00051001
0.00049914
0.000489604
0.000481011
0.000473417
0.000466485
0.000460329
0.000454641
0.000449575
0.000444841
0.000440616
0.000436627
0.000433066
0.000429671
0.000426646
0.000423726
0.000421137
0.000418611
0.00041638
0.000414176
0.000412243
0.000410311
0.000408633
0.000406933
0.000405468
0.000403964
0.00040268
0.000401342
0.000400215
0.000399021
0.00039803
0.000396963
0.000396088
0.000395132
0.000394358
0.000393498
0.000392815
0.000392043
0.000391438
0.000390744
0.000390211
0.000389587
0.000389114
0.000388552
0.000388139
0.000387631
0.000387267
0.000386808
0.000386493
0.000386075
0.0003858
0.000385427
0.000385185
0.00038485
0.000384633
0.000384336
0.000384145
0.000383883
0.00038371
0.000383479
0.000383328
0.000383114
0.000382974
0.000382777
0.000382654
0.000382478
0.000382376
0.000382221
0.000382138
0.000382005
0.000381943
0.000381836
0.000381802
0.000381732
0.000381736
0.000381717
0.000381752
0.000381738
0.000381864
0.000381855
0.000387028
0.0138054
0.0158646
0.00102449
0.000932726
0.00085476
0.000788766
0.000733633
0.00068813
0.000650484
0.000619302
0.000593123
0.000571068
0.000552173
0.000535984
0.000521845
0.000509569
0.000498667
0.000489101
0.000480481
0.000472862
0.000465908
0.000459732
0.000454025
0.000448941
0.000444191
0.000439952
0.000435949
0.000432376
0.000428969
0.000425933
0.000423002
0.000420404
0.000417869
0.000415629
0.000413417
0.000411478
0.000409538
0.000407853
0.000406147
0.000404676
0.000403166
0.000401877
0.000400534
0.000399402
0.000398203
0.000397208
0.000396136
0.000395257
0.000394297
0.00039352
0.000392657
0.00039197
0.000391194
0.000390587
0.000389889
0.000389354
0.000388727
0.000388251
0.000387686
0.000387271
0.00038676
0.000386395
0.000385933
0.000385616
0.000385195
0.000384918
0.000384544
0.0003843
0.000383963
0.000383745
0.000383446
0.000383253
0.000382989
0.000382815
0.000382582
0.00038243
0.000382214
0.000382073
0.000381874
0.00038175
0.000381572
0.000381468
0.000381311
0.000381227
0.000381092
0.000381028
0.00038092
0.000380883
0.000380811
0.000380812
0.00038079
0.000380821
0.000380805
0.000380929
0.000380919
0.00038624
0.0140685
0.0162794
0.00102448
0.000932735
0.000854793
0.000788798
0.000733634
0.000688081
0.000650376
0.000619131
0.000592892
0.000570781
0.000551835
0.000535598
0.000521418
0.000509103
0.000498166
0.000488568
0.00047992
0.000472275
0.000465297
0.000459098
0.000453371
0.000448269
0.000443502
0.000439247
0.000435229
0.000431643
0.000428223
0.000425175
0.000422234
0.000419625
0.00041708
0.000414831
0.000412611
0.000410663
0.000408716
0.000407024
0.000405311
0.000403834
0.000402318
0.000401023
0.000399674
0.000398538
0.000397333
0.000396333
0.000395257
0.000394374
0.00039341
0.000392629
0.000391761
0.000391072
0.000390292
0.000389681
0.00038898
0.000388442
0.000387812
0.000387334
0.000386766
0.000386348
0.000385834
0.000385467
0.000385002
0.000384683
0.00038426
0.000383981
0.000383604
0.000383358
0.000383019
0.000382799
0.000382498
0.000382304
0.000382038
0.000381862
0.000381628
0.000381474
0.000381257
0.000381114
0.000380914
0.000380788
0.000380608
0.000380503
0.000380344
0.000380258
0.00038012
0.000380055
0.000379944
0.000379906
0.000379831
0.000379829
0.000379804
0.000379832
0.000379812
0.000379934
0.000379922
0.000385401
0.0143366
0.0167208
0.00102447
0.000932746
0.000854828
0.000788832
0.000733637
0.000688031
0.000650263
0.000618953
0.00059265
0.00057048
0.000551478
0.000535192
0.000520966
0.000508611
0.000497636
0.000488005
0.000479326
0.000471653
0.00046465
0.000458428
0.000452679
0.000447557
0.000442772
0.000438501
0.000434467
0.000430866
0.000427433
0.000424373
0.000421419
0.0004188
0.000416244
0.000413986
0.000411757
0.000409801
0.000407845
0.000406146
0.000404425
0.000402941
0.000401418
0.000400118
0.000398763
0.000397621
0.000396411
0.000395406
0.000394325
0.000393438
0.000392469
0.000391684
0.000390812
0.000390119
0.000389335
0.000388721
0.000388016
0.000387475
0.000386841
0.00038636
0.000385789
0.000385369
0.000384852
0.000384482
0.000384015
0.000383694
0.000383268
0.000382986
0.000382607
0.000382359
0.000382018
0.000381796
0.000381493
0.000381297
0.000381029
0.000380851
0.000380616
0.000380461
0.000380241
0.000380097
0.000379894
0.000379767
0.000379585
0.000379478
0.000379317
0.000379229
0.00037909
0.000379022
0.000378909
0.000378869
0.000378792
0.000378786
0.000378757
0.000378782
0.000378759
0.000378878
0.000378864
0.000384509
0.0146064
0.0171878
0.00102446
0.000932756
0.000854864
0.000788868
0.000733641
0.00068798
0.000650146
0.000618767
0.000592397
0.000570164
0.000551105
0.000534766
0.000520492
0.000508093
0.000497079
0.000487412
0.000478701
0.000470998
0.000463967
0.000457721
0.000451949
0.000446807
0.000442002
0.000437713
0.000433663
0.000430046
0.000426599
0.000423525
0.000420559
0.000417928
0.000415362
0.000413094
0.000410854
0.000408889
0.000406925
0.000405217
0.000403489
0.000401998
0.000400468
0.000399161
0.0003978
0.000396652
0.000395436
0.000394427
0.00039334
0.000392448
0.000391474
0.000390684
0.000389808
0.000389111
0.000388323
0.000387706
0.000386997
0.000386452
0.000385815
0.000385331
0.000384756
0.000384333
0.000383813
0.000383441
0.000382971
0.000382647
0.000382218
0.000381935
0.000381552
0.000381302
0.000380959
0.000380735
0.00038043
0.000380231
0.000379961
0.000379783
0.000379545
0.000379388
0.000379167
0.000379021
0.000378816
0.000378688
0.000378503
0.000378394
0.000378231
0.000378141
0.000377999
0.00037793
0.000377815
0.000377772
0.000377692
0.000377683
0.000377651
0.000377671
0.000377645
0.000377762
0.000377746
0.000383564
0.0148736
0.0176789
0.00102446
0.000932767
0.000854903
0.000788908
0.000733647
0.000687929
0.000650026
0.000618574
0.000592134
0.000569834
0.000550714
0.000534319
0.000519995
0.00050755
0.000496494
0.000486789
0.000478044
0.00047031
0.00046325
0.000456977
0.000451182
0.000446017
0.000441192
0.000436883
0.000432816
0.000429183
0.00042572
0.000422633
0.000419653
0.00041701
0.000414432
0.000412153
0.000409903
0.000407929
0.000405955
0.000404239
0.000402502
0.000401004
0.000399466
0.000398153
0.000396784
0.000395631
0.000394409
0.000393393
0.000392301
0.000391404
0.000390424
0.000389631
0.00038875
0.000388048
0.000387256
0.000386635
0.000385922
0.000385374
0.000384732
0.000384246
0.000383667
0.000383241
0.000382718
0.000382343
0.000381869
0.000381543
0.000381111
0.000380825
0.00038044
0.000380188
0.000379841
0.000379616
0.000379308
0.000379108
0.000378835
0.000378655
0.000378415
0.000378257
0.000378033
0.000377886
0.000377679
0.000377549
0.000377362
0.000377251
0.000377085
0.000376993
0.000376849
0.000376777
0.000376659
0.000376614
0.000376532
0.00037652
0.000376484
0.0003765
0.00037647
0.000376584
0.000376566
0.000382564
0.0151336
0.018192
0.00102445
0.000932778
0.000854943
0.000788949
0.000733655
0.000687877
0.000649902
0.000618374
0.00059186
0.00056949
0.000550306
0.000533853
0.000519475
0.000506981
0.000495882
0.000486137
0.000477355
0.000469588
0.000462498
0.000456197
0.000450376
0.000445188
0.000440341
0.000436013
0.000431926
0.000428277
0.000424797
0.000421695
0.000418701
0.000416045
0.000413454
0.000411164
0.000408903
0.000406919
0.000404935
0.00040321
0.000401465
0.000399958
0.000398412
0.000397092
0.000395716
0.000394556
0.000393328
0.000392306
0.000391208
0.000390306
0.000389321
0.000388522
0.000387636
0.000386931
0.000386133
0.000385508
0.000384791
0.000384239
0.000383593
0.000383103
0.000382521
0.000382092
0.000381565
0.000381187
0.000380709
0.000380381
0.000379946
0.000379657
0.000379269
0.000379015
0.000378666
0.000378438
0.000378127
0.000377925
0.00037765
0.000377468
0.000377226
0.000377066
0.00037684
0.000376691
0.000376482
0.00037635
0.00037616
0.000376047
0.000375879
0.000375785
0.000375638
0.000375564
0.000375443
0.000375396
0.000375311
0.000375295
0.000375255
0.000375267
0.000375232
0.000375345
0.000375325
0.000381507
0.0153812
0.0187243
0.00102444
0.000932789
0.000854985
0.000788994
0.000733666
0.000687826
0.000649775
0.000618169
0.000591577
0.000569134
0.000549882
0.000533367
0.000518933
0.000506388
0.000495243
0.000485456
0.000476635
0.000468833
0.000461711
0.000455381
0.000449533
0.00044432
0.00043945
0.000435101
0.000430994
0.000427327
0.00042383
0.000420712
0.000417704
0.000415034
0.00041243
0.000410128
0.000407855
0.00040586
0.000403866
0.000402131
0.000400376
0.000398861
0.000397307
0.000395979
0.000394596
0.000393429
0.000392193
0.000391166
0.000390061
0.000389153
0.000388162
0.000387359
0.000386467
0.000385757
0.000384955
0.000384325
0.000383603
0.000383048
0.000382398
0.000381904
0.000381317
0.000380885
0.000380354
0.000379973
0.000379492
0.000379161
0.000378722
0.000378431
0.00037804
0.000377783
0.000377431
0.000377201
0.000376887
0.000376683
0.000376405
0.000376221
0.000375977
0.000375815
0.000375587
0.000375437
0.000375224
0.00037509
0.000374898
0.000374783
0.000374612
0.000374516
0.000374366
0.00037429
0.000374166
0.000374116
0.000374028
0.000374009
0.000373965
0.000373973
0.000373933
0.000374043
0.000374021
0.000380392
0.0156108
0.0192722
0.00102443
0.0009328
0.000855029
0.000789041
0.000733678
0.000687774
0.000649646
0.000617957
0.000591284
0.000568765
0.000549442
0.000532862
0.000518369
0.000505771
0.000494577
0.000484745
0.000475885
0.000468045
0.00046089
0.000454529
0.000448652
0.000443413
0.000438519
0.000434147
0.00043002
0.000426333
0.000422819
0.000419684
0.00041666
0.000413976
0.000411358
0.000409043
0.000406757
0.000404751
0.000402746
0.000401002
0.000399237
0.000397713
0.00039615
0.000394814
0.000393422
0.000392248
0.000391005
0.000389972
0.00038886
0.000387946
0.000386949
0.000386141
0.000385243
0.000384528
0.00038372
0.000383087
0.000382359
0.0003818
0.000381145
0.000380648
0.000380056
0.000379621
0.000379086
0.000378702
0.000378217
0.000377883