/*--------------------------------*- C++ -*----------------------------------*\
| =========                 |                                                 |
| \\      /  F ield         | OpenFOAM: The Open Source CFD Toolbox           |
|  \\    /   O peration     | Version:  v2012                                 |
|   \\  /    A nd           | Website:  www.openfoam.com                      |
|    \\/     M anipulation  |                                                 |
\*---------------------------------------------------------------------------*/
FoamFile
{
    version     2.0;
    format      ascii;
    class       volScalarField;
    location    "41.5";
    object      yPlus;
}
// * * * * * * * * * * * * * * * * * * * * * * * * * * * * * * * * * * * * * //

dimensions      [0 0 0 0 0 0 0];


internalField   uniform 0;

boundaryField
{
    inlet
    {
        type            calculated;
        value           uniform 0;
    }
    outlet
    {
        type            calculated;
        value           uniform 0;
    }
    topWall
    {
        type            calculated;
        value           nonuniform List<scalar> 
545
(
0.150534
0.259599
0.33304
0.391474
0.440938
0.484215
0.522865
0.557873
0.589908
0.619451
0.646863
0.672423
0.696352
0.71883
0.740006
0.760004
0.778929
0.796874
0.813917
0.830127
0.845566
0.860287
0.874338
0.887765
0.900605
0.912895
0.924667
0.935951
0.946774
0.957162
0.967137
0.976721
0.985934
0.994795
1.00332
1.01153
1.01943
1.02704
1.03438
1.04145
1.04827
1.05484
1.06119
1.06732
1.07323
1.07894
1.08446
1.08979
1.09494
1.09991
1.10473
1.10938
1.11388
1.11823
1.12245
1.12652
1.13047
1.13429
1.13798
1.14156
1.14503
1.14839
1.15164
1.1548
1.15785
1.16081
1.16368
1.16646
1.16916
1.17178
1.17431
1.17677
1.17913
1.1814
1.18366
1.1859
1.18813
1.19033
1.19252
1.19469
1.19684
1.19897
1.20109
1.20319
1.20527
1.20734
1.20939
1.21143
1.21345
1.21545
1.21744
1.21941
1.22136
1.2233
1.22523
1.22714
1.22886
1.2304
1.23194
1.23348
1.23501
1.23655
1.23809
1.23962
1.24116
1.24269
1.24423
1.24576
1.2473
1.24883
1.25036
1.2519
1.25343
1.25496
1.25649
1.25802
1.25955
1.26108
1.26261
1.26413
1.26566
1.26719
1.26871
1.27024
1.27176
1.27329
1.27481
1.27633
1.27785
1.27937
1.28089
1.28241
1.28393
1.28545
1.28697
1.28848
1.29
1.29151
1.29303
1.29454
1.29605
1.29757
1.29908
1.30059
1.30209
1.3036
1.30511
1.30661
1.30812
1.30962
1.31113
1.31263
1.31413
1.31563
1.31713
1.31862
1.32012
1.32162
1.32311
1.32461
1.3261
1.32759
1.32908
1.33057
1.33205
1.33354
1.33503
1.33651
1.33799
1.33947
1.34095
1.34243
1.34391
1.34539
1.34686
1.34834
1.34981
1.35128
1.35275
1.35422
1.35568
1.35715
1.35861
1.36008
1.36154
1.363
1.36445
1.36591
1.36736
1.36882
1.37027
1.37172
1.37317
1.37461
1.37606
1.3775
1.37894
1.38038
1.38182
1.38326
1.38469
1.38613
1.38756
1.38899
1.39042
1.39184
1.39327
1.39469
1.39611
1.39753
1.39894
1.40036
1.40177
1.40318
1.40459
1.406
1.4074
1.40881
1.41021
1.4116
1.413
1.41439
1.41579
1.41718
1.41856
1.41995
1.42133
1.42272
1.42409
1.42547
1.42685
1.42822
1.42959
1.43095
1.43232
1.43368
1.43504
1.4364
1.43776
1.43911
1.44046
1.44181
1.44315
1.4445
1.44584
1.44718
1.44851
1.44984
1.45117
1.4525
1.45383
1.45515
1.45647
1.45778
1.4591
1.46041
1.46172
1.46302
1.46433
1.46563
1.46692
1.46822
1.46951
1.4708
1.47208
1.47336
1.47464
1.47592
1.47719
1.47839
1.47952
1.48066
1.48181
1.48296
1.48412
1.48529
1.48646
1.48765
1.48883
1.49003
1.49124
1.49245
1.49367
1.49489
1.49612
1.49736
1.49861
1.49986
1.50112
1.50239
1.50367
1.50495
1.50623
1.50753
1.50883
1.51014
1.51145
1.51277
1.51409
1.51543
1.51676
1.51811
1.51946
1.52081
1.52217
1.52354
1.52491
1.52629
1.52767
1.52906
1.53045
1.53185
1.53325
1.53466
1.53607
1.53749
1.5389
1.54033
1.54176
1.54319
1.54462
1.54606
1.5475
1.54894
1.55039
1.55184
1.55329
1.55474
1.5562
1.55765
1.55911
1.56057
1.56203
1.56349
1.56495
1.56642
1.56788
1.56934
1.5708
1.57226
1.57372
1.57518
1.57664
1.57809
1.57955
1.581
1.58244
1.58389
1.58533
1.58677
1.5882
1.58963
1.59105
1.59247
1.59388
1.59529
1.59669
1.59808
1.59947
1.60085
1.60222
1.60359
1.60494
1.60629
1.60762
1.60895
1.61027
1.61157
1.61287
1.61415
1.61542
1.61668
1.61793
1.61916
1.62038
1.62158
1.62277
1.62394
1.6251
1.62624
1.62737
1.62848
1.62957
1.63064
1.63169
1.63273
1.63374
1.63474
1.63571
1.63667
1.6376
1.63851
1.63939
1.64026
1.64109
1.64191
1.6427
1.64347
1.64421
1.64492
1.64561
1.64627
1.6469
1.64751
1.64808
1.64863
1.64915
1.64964
1.65009
1.65052
1.65092
1.65128
1.65161
1.65192
1.65218
1.65242
1.65262
1.65279
1.65292
1.65302
1.65308
1.65311
1.6531
1.65306
1.65298
1.65287
1.65272
1.65253
1.65231
1.65205
1.65175
1.65141
1.65104
1.65063
1.65018
1.6497
1.64918
1.64862
1.64802
1.64739
1.64671
1.64601
1.64526
1.64448
1.64365
1.6428
1.6419
1.64097
1.64001
1.63901
1.63785
1.63654
1.6352
1.63382
1.63242
1.63099
1.62953
1.62806
1.62656
1.62504
1.6235
1.62195
1.62038
1.61881
1.61721
1.61562
1.614
1.61239
1.61076
1.60914
1.6075
1.60588
1.60424
1.60261
1.60097
1.59934
1.59771
1.5961
1.59447
1.59287
1.59126
1.58967
1.58807
1.5865
1.58493
1.58338
1.58183
1.5803
1.57878
1.57728
1.57578
1.57431
1.57285
1.57142
1.56999
1.56859
1.5672
1.56583
1.56448
1.56316
1.56185
1.56056
1.5593
1.55806
1.55684
1.55565
1.55447
1.55333
1.5522
1.55111
1.55003
1.54899
1.54797
1.54698
1.54601
1.54508
1.54417
1.54329
1.54243
1.54161
1.54081
1.54005
1.53932
1.53861
1.53794
1.53729
1.53668
1.5361
1.53555
1.53503
1.53455
1.5341
1.53367
1.53329
1.53293
1.53261
1.53232
1.53206
1.53184
1.53165
1.53149
1.53136
1.53127
1.53122
1.53117
)
;
    }
    bottomWall
    {
        type            calculated;
        value           nonuniform List<scalar> 
449
(
0.0027385
0.00480208
0.00537611
0.0053288
0.00525772
0.00516164
0.00506417
0.00497293
0.00488921
0.00481271
0.00474271
0.00467854
0.00461947
0.0045648
0.004514
0.00446666
0.00442237
0.00438083
0.00434169
0.00430474
0.00426977
0.0042366
0.00420506
0.00417501
0.00414633
0.0041189
0.00409263
0.00406743
0.00404322
0.00401993
0.0039975
0.00397587
0.00395498
0.0039348
0.00391527
0.00389637
0.00387805
0.00386029
0.00384304
0.00382628
0.00380998
0.00379413
0.00377869
0.00376366
0.00374901
0.00373472
0.00372078
0.00370719
0.00369392
0.00368096
0.00366829
0.00365591
0.0036438
0.00363195
0.00362034
0.00360898
0.00359784
0.00358692
0.00357621
0.00356571
0.00355539
0.00354527
0.00353532
0.00352556
0.00351595
0.00350651
0.00349722
0.00348809
0.00347911
0.00347027
0.00346156
0.00345299
0.00344455
0.00343623
0.00342804
0.00341997
0.00341201
0.00340417
0.00339643
0.00338881
0.00338128
0.00337386
0.00336654
0.00335931
0.00335218
0.00334514
0.00333818
0.00333132
0.00332454
0.00331784
0.00331122
0.00330469
0.00329822
0.00329184
0.00328553
0.00327929
0.00327312
0.00326703
0.00326099
0.00325503
0.00324913
0.00324329
0.00323751
0.0032318
0.00322614
0.00322055
0.00321501
0.00320952
0.00320409
0.00319872
0.0031934
0.00318813
0.0031829
0.00317773
0.00317261
0.00316754
0.00316251
0.00315753
0.00315259
0.0031477
0.00314285
0.00313805
0.00313329
0.00312857
0.00312389
0.00311925
0.00311465
0.00311009
0.00310556
0.00310108
0.00309663
0.00309222
0.00308784
0.0030835
0.00307919
0.00307492
0.00307068
0.00306647
0.0030623
0.00305816
0.00305405
0.00304997
0.00304592
0.0030419
0.00303791
0.00303395
0.00303002
0.00302612
0.00302224
0.0030184
0.00301458
0.00301079
0.00300702
0.00300328
0.00299957
0.00299588
0.00299222
0.00298858
0.00298497
0.00298138
0.00297781
0.00297427
0.00297075
0.00296725
0.00296378
0.00296033
0.0029569
0.00295349
0.00295011
0.00294674
0.0029434
0.00294007
0.00293677
0.00293367
0.00293075
0.00292783
0.00292489
0.00292195
0.002919
0.00291603
0.00291307
0.00291009
0.0029071
0.0029041
0.0029011
0.00289809
0.00289507
0.00289204
0.002889
0.00288596
0.0028829
0.00287984
0.00287677
0.00287369
0.00287061
0.00286751
0.00286441
0.0028613
0.00285819
0.00285506
0.00285193
0.0028488
0.00284565
0.0028425
0.00283934
0.00283618
0.002833
0.00282982
0.00282664
0.00282345
0.00282025
0.00281704
0.00281383
0.00281062
0.00280739
0.00280416
0.00280093
0.00279769
0.00279444
0.00279119
0.00278794
0.00278468
0.00278141
0.00277814
0.00277486
0.00277158
0.0027683
0.002765
0.00276171
0.00275841
0.00275511
0.0027518
0.00274849
0.00274517
0.00274186
0.00273853
0.00273521
0.00273187
0.00272854
0.0027252
0.00272187
0.00271852
0.00271518
0.00271182
0.00270847
0.00270511
0.00270176
0.00269839
0.00269504
0.00269167
0.00268831
0.00268493
0.00268157
0.00267819
0.00267482
0.00267144
0.00266806
0.00266468
0.0026613
0.00265792
0.00265454
0.00265115
0.00264777
0.00264438
0.002641
0.00263761
0.00263422
0.00263083
0.00262744
0.00262406
0.00262067
0.00261728
0.00261389
0.0026105
0.00260711
0.00260372
0.00260033
0.00259695
0.00259356
0.00259018
0.00258678
0.0025834
0.00258001
0.00257664
0.00257325
0.00256988
0.00256649
0.00256312
0.00255973
0.00255637
0.00255298
0.00254962
0.00254624
0.00254288
0.0025395
0.00253615
0.00253278
0.00252943
0.00252606
0.00252271
0.00251935
0.00251601
0.00251265
0.00250932
0.00250597
0.00250264
0.00249929
0.00249597
0.00249263
0.00248931
0.00248598
0.00248267
0.00247935
0.00247604
0.00247273
0.00246942
0.00246612
0.00246282
0.00245953
0.00245624
0.00245295
0.00244967
0.00244639
0.00244311
0.00243985
0.00243658
0.00243332
0.00243006
0.00242681
0.00242356
0.00242032
0.00241708
0.00241385
0.00241061
0.0024074
0.00240417
0.00240096
0.00239774
0.00239455
0.00239134
0.00238815
0.00238495
0.00238178
0.00237859
0.00237542
0.00237225
0.00236909
0.00236593
0.00236278
0.00235963
0.00235649
0.00235335
0.00235023
0.0023471
0.00234365
0.00233988
0.00233618
0.00233251
0.00232892
0.00232536
0.00232187
0.00231841
0.00231502
0.00231166
0.00230836
0.00230508
0.00230187
0.00229869
0.00229556
0.00229246
0.00228942
0.0022864
0.00228343
0.00228049
0.00227759
0.00227472
0.0022719
0.0022691
0.00226635
0.00226361
0.00226092
0.00225826
0.00225563
0.00225302
0.00225046
0.00224791
0.0022454
0.00224291
0.00224046
0.00223802
0.00223562
0.00223324
0.00223089
0.00222856
0.00222626
0.00222397
0.00222172
0.00221949
0.00221728
0.00221509
0.00221293
0.00221078
0.00220867
0.00220656
0.00220449
0.00220242
0.00220038
0.00219835
0.00219636
0.00219437
0.00219241
0.00219045
0.00218853
0.00218661
0.00218472
0.00218283
0.00218098
0.00217912
0.0021773
0.00217548
0.00217369
0.0021719
0.00217014
0.00216838
0.00216666
0.00216492
0.00216322
0.00216151
0.00215984
0.00215815
0.00215652
0.00215484
0.00215324
0.00215159
0.00215002
0.00214838
0.00214684
0.00214521
0.0021437
0.00214209
0.00214059
0.00213902
0.0021375
0.00213603
0.00213435
0.0021332
0.00213102
0.00213074
0.00212776
)
;
    }
    symmetry
    {
        type            symmetryPlane;
    }
    frontAndBack
    {
        type            empty;
    }
}


// ************************************************************************* //
