/*--------------------------------*- C++ -*----------------------------------*\
| =========                 |                                                 |
| \\      /  F ield         | OpenFOAM: The Open Source CFD Toolbox           |
|  \\    /   O peration     | Version:  v2012                                 |
|   \\  /    A nd           | Website:  www.openfoam.com                      |
|    \\/     M anipulation  |                                                 |
\*---------------------------------------------------------------------------*/
FoamFile
{
    version     2.0;
    format      ascii;
    class       volVectorField;
    location    "53.5";
    object      wallShearStress;
}
// * * * * * * * * * * * * * * * * * * * * * * * * * * * * * * * * * * * * * //

dimensions      [0 2 -2 0 0 0 0];


internalField   uniform (0 0 0);

boundaryField
{
    inlet
    {
        type            calculated;
        value           uniform (0 0 0);
    }
    outlet
    {
        type            calculated;
        value           uniform (0 0 0);
    }
    topWall
    {
        type            calculated;
        value           nonuniform List<vector> 
545
(
(3.67432e-08 -2.58641e-08 0)
(3.67317e-08 -7.23516e-08 0)
(3.67117e-08 -1.20693e-07 0)
(3.66833e-08 -1.67636e-07 0)
(3.66476e-08 -2.12582e-07 0)
(3.66054e-08 -2.56107e-07 0)
(3.65571e-08 -2.98581e-07 0)
(3.65033e-08 -3.39986e-07 0)
(3.64443e-08 -3.80229e-07 0)
(3.63807e-08 -4.19312e-07 0)
(3.63129e-08 -4.57284e-07 0)
(3.62413e-08 -4.9419e-07 0)
(3.61663e-08 -5.30055e-07 0)
(3.60882e-08 -5.649e-07 0)
(3.60074e-08 -5.98749e-07 0)
(3.59242e-08 -6.31631e-07 0)
(3.58389e-08 -6.6357e-07 0)
(3.57517e-08 -6.94592e-07 0)
(3.56629e-08 -7.24722e-07 0)
(3.55728e-08 -7.53984e-07 0)
(3.54815e-08 -7.82401e-07 0)
(3.53894e-08 -8.09998e-07 0)
(3.52965e-08 -8.36796e-07 0)
(3.52031e-08 -8.6282e-07 0)
(3.51093e-08 -8.88089e-07 0)
(3.50153e-08 -9.12626e-07 0)
(3.49212e-08 -9.36453e-07 0)
(3.48272e-08 -9.59588e-07 0)
(3.47335e-08 -9.82053e-07 0)
(3.464e-08 -1.00387e-06 0)
(3.45469e-08 -1.02505e-06 0)
(3.44544e-08 -1.04562e-06 0)
(3.43625e-08 -1.06559e-06 0)
(3.42713e-08 -1.08498e-06 0)
(3.41808e-08 -1.10381e-06 0)
(3.40912e-08 -1.1221e-06 0)
(3.40024e-08 -1.13986e-06 0)
(3.39146e-08 -1.1571e-06 0)
(3.38278e-08 -1.17385e-06 0)
(3.37421e-08 -1.19011e-06 0)
(3.36574e-08 -1.20591e-06 0)
(3.35739e-08 -1.22125e-06 0)
(3.34915e-08 -1.23615e-06 0)
(3.34103e-08 -1.25062e-06 0)
(3.33303e-08 -1.26467e-06 0)
(3.32516e-08 -1.27832e-06 0)
(3.3174e-08 -1.29159e-06 0)
(3.30977e-08 -1.30447e-06 0)
(3.30227e-08 -1.31698e-06 0)
(3.29489e-08 -1.32914e-06 0)
(3.28765e-08 -1.34094e-06 0)
(3.28053e-08 -1.35242e-06 0)
(3.27353e-08 -1.36356e-06 0)
(3.26667e-08 -1.37439e-06 0)
(3.25993e-08 -1.38491e-06 0)
(3.25332e-08 -1.39514e-06 0)
(3.24684e-08 -1.40507e-06 0)
(3.24048e-08 -1.41472e-06 0)
(3.23425e-08 -1.4241e-06 0)
(3.22814e-08 -1.43322e-06 0)
(3.22216e-08 -1.44208e-06 0)
(3.2163e-08 -1.45068e-06 0)
(3.21056e-08 -1.45905e-06 0)
(3.20493e-08 -1.46718e-06 0)
(3.19943e-08 -1.47509e-06 0)
(3.19404e-08 -1.48277e-06 0)
(3.18877e-08 -1.49023e-06 0)
(3.18361e-08 -1.49749e-06 0)
(3.17856e-08 -1.50455e-06 0)
(3.17362e-08 -1.51141e-06 0)
(3.16879e-08 -1.51808e-06 0)
(3.1641e-08 -1.52455e-06 0)
(3.15954e-08 -1.53078e-06 0)
(3.15504e-08 -1.53682e-06 0)
(3.15059e-08 -1.5428e-06 0)
(3.14615e-08 -1.54875e-06 0)
(3.14172e-08 -1.55468e-06 0)
(3.13729e-08 -1.56057e-06 0)
(3.13287e-08 -1.56642e-06 0)
(3.12845e-08 -1.57224e-06 0)
(3.12403e-08 -1.57802e-06 0)
(3.11962e-08 -1.58377e-06 0)
(3.11522e-08 -1.58949e-06 0)
(3.11081e-08 -1.59517e-06 0)
(3.10642e-08 -1.60081e-06 0)
(3.10203e-08 -1.60642e-06 0)
(3.09764e-08 -1.612e-06 0)
(3.09326e-08 -1.61755e-06 0)
(3.08888e-08 -1.62306e-06 0)
(3.08451e-08 -1.62854e-06 0)
(3.08015e-08 -1.63398e-06 0)
(3.07579e-08 -1.6394e-06 0)
(3.07143e-08 -1.64478e-06 0)
(3.0671e-08 -1.65013e-06 0)
(3.06272e-08 -1.65545e-06 0)
(3.05857e-08 -1.66069e-06 0)
(3.05472e-08 -1.66549e-06 0)
(3.051e-08 -1.66984e-06 0)
(3.04741e-08 -1.67407e-06 0)
(3.04384e-08 -1.67832e-06 0)
(3.04025e-08 -1.68261e-06 0)
(3.03665e-08 -1.68692e-06 0)
(3.03303e-08 -1.69122e-06 0)
(3.0294e-08 -1.69552e-06 0)
(3.02575e-08 -1.69982e-06 0)
(3.02208e-08 -1.70414e-06 0)
(3.01839e-08 -1.70846e-06 0)
(3.01469e-08 -1.71278e-06 0)
(3.01096e-08 -1.71711e-06 0)
(3.00722e-08 -1.72144e-06 0)
(3.00347e-08 -1.72577e-06 0)
(2.99969e-08 -1.73012e-06 0)
(2.9959e-08 -1.73446e-06 0)
(2.99209e-08 -1.73882e-06 0)
(2.98826e-08 -1.74317e-06 0)
(2.98441e-08 -1.74753e-06 0)
(2.98055e-08 -1.7519e-06 0)
(2.97666e-08 -1.75627e-06 0)
(2.97276e-08 -1.76064e-06 0)
(2.96884e-08 -1.76502e-06 0)
(2.96491e-08 -1.76941e-06 0)
(2.96095e-08 -1.77379e-06 0)
(2.95697e-08 -1.77819e-06 0)
(2.95298e-08 -1.78258e-06 0)
(2.94897e-08 -1.78699e-06 0)
(2.94494e-08 -1.79139e-06 0)
(2.94089e-08 -1.7958e-06 0)
(2.93683e-08 -1.80022e-06 0)
(2.93274e-08 -1.80463e-06 0)
(2.92864e-08 -1.80906e-06 0)
(2.92451e-08 -1.81349e-06 0)
(2.92037e-08 -1.81792e-06 0)
(2.91621e-08 -1.82235e-06 0)
(2.91203e-08 -1.82679e-06 0)
(2.90783e-08 -1.83124e-06 0)
(2.90361e-08 -1.83568e-06 0)
(2.89938e-08 -1.84014e-06 0)
(2.89512e-08 -1.84459e-06 0)
(2.89085e-08 -1.84905e-06 0)
(2.88655e-08 -1.85351e-06 0)
(2.88224e-08 -1.85798e-06 0)
(2.87791e-08 -1.86245e-06 0)
(2.87355e-08 -1.86693e-06 0)
(2.86918e-08 -1.87141e-06 0)
(2.86479e-08 -1.87589e-06 0)
(2.86038e-08 -1.88038e-06 0)
(2.85595e-08 -1.88487e-06 0)
(2.8515e-08 -1.88936e-06 0)
(2.84703e-08 -1.89386e-06 0)
(2.84255e-08 -1.89836e-06 0)
(2.83804e-08 -1.90286e-06 0)
(2.83351e-08 -1.90737e-06 0)
(2.82896e-08 -1.91188e-06 0)
(2.82439e-08 -1.91639e-06 0)
(2.81981e-08 -1.92091e-06 0)
(2.8152e-08 -1.92543e-06 0)
(2.81057e-08 -1.92996e-06 0)
(2.80592e-08 -1.93448e-06 0)
(2.80126e-08 -1.93902e-06 0)
(2.79657e-08 -1.94355e-06 0)
(2.79186e-08 -1.94809e-06 0)
(2.78713e-08 -1.95263e-06 0)
(2.78239e-08 -1.95717e-06 0)
(2.77762e-08 -1.96171e-06 0)
(2.77283e-08 -1.96626e-06 0)
(2.76802e-08 -1.97081e-06 0)
(2.76319e-08 -1.97537e-06 0)
(2.75835e-08 -1.97992e-06 0)
(2.75348e-08 -1.98448e-06 0)
(2.74859e-08 -1.98905e-06 0)
(2.74368e-08 -1.99361e-06 0)
(2.73875e-08 -1.99818e-06 0)
(2.73379e-08 -2.00275e-06 0)
(2.72882e-08 -2.00732e-06 0)
(2.72383e-08 -2.0119e-06 0)
(2.71882e-08 -2.01647e-06 0)
(2.71378e-08 -2.02105e-06 0)
(2.70873e-08 -2.02563e-06 0)
(2.70366e-08 -2.03022e-06 0)
(2.69856e-08 -2.0348e-06 0)
(2.69345e-08 -2.03939e-06 0)
(2.68831e-08 -2.04398e-06 0)
(2.68315e-08 -2.04858e-06 0)
(2.67797e-08 -2.05317e-06 0)
(2.67277e-08 -2.05777e-06 0)
(2.66755e-08 -2.06236e-06 0)
(2.66231e-08 -2.06696e-06 0)
(2.65705e-08 -2.07157e-06 0)
(2.65177e-08 -2.07617e-06 0)
(2.64647e-08 -2.08077e-06 0)
(2.64114e-08 -2.08538e-06 0)
(2.6358e-08 -2.08999e-06 0)
(2.63043e-08 -2.0946e-06 0)
(2.62505e-08 -2.09921e-06 0)
(2.61964e-08 -2.10382e-06 0)
(2.61421e-08 -2.10844e-06 0)
(2.60876e-08 -2.11305e-06 0)
(2.60329e-08 -2.11767e-06 0)
(2.5978e-08 -2.12229e-06 0)
(2.59229e-08 -2.1269e-06 0)
(2.58675e-08 -2.13152e-06 0)
(2.5812e-08 -2.13614e-06 0)
(2.57562e-08 -2.14077e-06 0)
(2.57002e-08 -2.14539e-06 0)
(2.56441e-08 -2.15001e-06 0)
(2.55877e-08 -2.15464e-06 0)
(2.55311e-08 -2.15926e-06 0)
(2.54743e-08 -2.16389e-06 0)
(2.54173e-08 -2.16851e-06 0)
(2.536e-08 -2.17314e-06 0)
(2.53026e-08 -2.17776e-06 0)
(2.52449e-08 -2.18239e-06 0)
(2.51871e-08 -2.18702e-06 0)
(2.5129e-08 -2.19165e-06 0)
(2.50707e-08 -2.19628e-06 0)
(2.50122e-08 -2.2009e-06 0)
(2.49535e-08 -2.20553e-06 0)
(2.48946e-08 -2.21016e-06 0)
(2.48355e-08 -2.21479e-06 0)
(2.47762e-08 -2.21941e-06 0)
(2.47166e-08 -2.22404e-06 0)
(2.46569e-08 -2.22867e-06 0)
(2.45969e-08 -2.2333e-06 0)
(2.45368e-08 -2.23792e-06 0)
(2.44764e-08 -2.24255e-06 0)
(2.44158e-08 -2.24718e-06 0)
(2.4355e-08 -2.2518e-06 0)
(2.4294e-08 -2.25642e-06 0)
(2.42328e-08 -2.26105e-06 0)
(2.41714e-08 -2.26567e-06 0)
(2.41098e-08 -2.27029e-06 0)
(2.4048e-08 -2.27491e-06 0)
(2.39859e-08 -2.27953e-06 0)
(2.39237e-08 -2.28415e-06 0)
(2.38612e-08 -2.28877e-06 0)
(2.37986e-08 -2.29339e-06 0)
(2.37357e-08 -2.298e-06 0)
(2.36726e-08 -2.30262e-06 0)
(2.36094e-08 -2.30723e-06 0)
(2.35459e-08 -2.31184e-06 0)
(2.34822e-08 -2.31645e-06 0)
(2.34183e-08 -2.32106e-06 0)
(2.33542e-08 -2.32566e-06 0)
(2.329e-08 -2.33026e-06 0)
(2.32255e-08 -2.33487e-06 0)
(2.31608e-08 -2.33947e-06 0)
(2.30959e-08 -2.34407e-06 0)
(2.30308e-08 -2.34866e-06 0)
(2.29655e-08 -2.35325e-06 0)
(2.29e-08 -2.35785e-06 0)
(2.28343e-08 -2.36244e-06 0)
(2.27684e-08 -2.36702e-06 0)
(2.27023e-08 -2.37161e-06 0)
(2.2636e-08 -2.37619e-06 0)
(2.25695e-08 -2.38077e-06 0)
(2.25028e-08 -2.38534e-06 0)
(2.24359e-08 -2.38992e-06 0)
(2.23689e-08 -2.39449e-06 0)
(2.23016e-08 -2.39905e-06 0)
(2.22341e-08 -2.40362e-06 0)
(2.21665e-08 -2.40818e-06 0)
(2.20986e-08 -2.41274e-06 0)
(2.20306e-08 -2.41729e-06 0)
(2.19623e-08 -2.42185e-06 0)
(2.18939e-08 -2.42639e-06 0)
(2.18253e-08 -2.43094e-06 0)
(2.17566e-08 -2.43548e-06 0)
(2.16872e-08 -2.44002e-06 0)
(2.16197e-08 -2.44453e-06 0)
(2.15548e-08 -2.44882e-06 0)
(2.14909e-08 -2.4529e-06 0)
(2.14278e-08 -2.45695e-06 0)
(2.13643e-08 -2.46103e-06 0)
(2.13001e-08 -2.46517e-06 0)
(2.12353e-08 -2.46935e-06 0)
(2.11697e-08 -2.47355e-06 0)
(2.11034e-08 -2.47778e-06 0)
(2.10364e-08 -2.48204e-06 0)
(2.09686e-08 -2.48634e-06 0)
(2.09001e-08 -2.49067e-06 0)
(2.08308e-08 -2.49504e-06 0)
(2.07608e-08 -2.49943e-06 0)
(2.069e-08 -2.50386e-06 0)
(2.06184e-08 -2.50832e-06 0)
(2.0546e-08 -2.51281e-06 0)
(2.04729e-08 -2.51734e-06 0)
(2.03989e-08 -2.5219e-06 0)
(2.03242e-08 -2.52649e-06 0)
(2.02486e-08 -2.53112e-06 0)
(2.01722e-08 -2.53578e-06 0)
(2.0095e-08 -2.54047e-06 0)
(2.0017e-08 -2.54519e-06 0)
(1.99381e-08 -2.54995e-06 0)
(1.98584e-08 -2.55473e-06 0)
(1.97778e-08 -2.55956e-06 0)
(1.96964e-08 -2.56441e-06 0)
(1.96141e-08 -2.56929e-06 0)
(1.95309e-08 -2.57421e-06 0)
(1.94469e-08 -2.57916e-06 0)
(1.9362e-08 -2.58414e-06 0)
(1.92761e-08 -2.58916e-06 0)
(1.91894e-08 -2.59421e-06 0)
(1.91018e-08 -2.59928e-06 0)
(1.90132e-08 -2.60439e-06 0)
(1.89238e-08 -2.60953e-06 0)
(1.88334e-08 -2.61471e-06 0)
(1.87421e-08 -2.61991e-06 0)
(1.86498e-08 -2.62514e-06 0)
(1.85567e-08 -2.63041e-06 0)
(1.84625e-08 -2.6357e-06 0)
(1.83674e-08 -2.64103e-06 0)
(1.82714e-08 -2.64638e-06 0)
(1.81744e-08 -2.65177e-06 0)
(1.80764e-08 -2.65718e-06 0)
(1.79774e-08 -2.66262e-06 0)
(1.78775e-08 -2.66809e-06 0)
(1.77766e-08 -2.67359e-06 0)
(1.76747e-08 -2.67912e-06 0)
(1.75718e-08 -2.68468e-06 0)
(1.74679e-08 -2.69026e-06 0)
(1.7363e-08 -2.69587e-06 0)
(1.7257e-08 -2.70151e-06 0)
(1.71501e-08 -2.70717e-06 0)
(1.70422e-08 -2.71286e-06 0)
(1.69332e-08 -2.71858e-06 0)
(1.68233e-08 -2.72432e-06 0)
(1.67123e-08 -2.73008e-06 0)
(1.66003e-08 -2.73587e-06 0)
(1.64872e-08 -2.74168e-06 0)
(1.63732e-08 -2.74751e-06 0)
(1.62581e-08 -2.75337e-06 0)
(1.61419e-08 -2.75924e-06 0)
(1.60248e-08 -2.76514e-06 0)
(1.59066e-08 -2.77106e-06 0)
(1.57873e-08 -2.777e-06 0)
(1.56671e-08 -2.78296e-06 0)
(1.55458e-08 -2.78893e-06 0)
(1.54235e-08 -2.79493e-06 0)
(1.53001e-08 -2.80094e-06 0)
(1.51757e-08 -2.80697e-06 0)
(1.50503e-08 -2.81301e-06 0)
(1.49239e-08 -2.81907e-06 0)
(1.47965e-08 -2.82514e-06 0)
(1.4668e-08 -2.83122e-06 0)
(1.45385e-08 -2.83732e-06 0)
(1.44081e-08 -2.84343e-06 0)
(1.42766e-08 -2.84955e-06 0)
(1.41441e-08 -2.85567e-06 0)
(1.40106e-08 -2.86181e-06 0)
(1.38762e-08 -2.86795e-06 0)
(1.37407e-08 -2.8741e-06 0)
(1.36043e-08 -2.88026e-06 0)
(1.3467e-08 -2.88642e-06 0)
(1.33286e-08 -2.89259e-06 0)
(1.31894e-08 -2.89875e-06 0)
(1.30492e-08 -2.90492e-06 0)
(1.29081e-08 -2.91109e-06 0)
(1.27661e-08 -2.91725e-06 0)
(1.26231e-08 -2.92342e-06 0)
(1.24793e-08 -2.92958e-06 0)
(1.23346e-08 -2.93574e-06 0)
(1.21891e-08 -2.94189e-06 0)
(1.20427e-08 -2.94803e-06 0)
(1.18955e-08 -2.95416e-06 0)
(1.17475e-08 -2.96029e-06 0)
(1.15987e-08 -2.9664e-06 0)
(1.14491e-08 -2.9725e-06 0)
(1.12988e-08 -2.97859e-06 0)
(1.11477e-08 -2.98466e-06 0)
(1.0996e-08 -2.99071e-06 0)
(1.08435e-08 -2.99675e-06 0)
(1.06903e-08 -3.00276e-06 0)
(1.05365e-08 -3.00876e-06 0)
(1.03821e-08 -3.01473e-06 0)
(1.02271e-08 -3.02068e-06 0)
(1.00715e-08 -3.0266e-06 0)
(9.91531e-09 -3.03249e-06 0)
(9.75863e-09 -3.03835e-06 0)
(9.60146e-09 -3.04418e-06 0)
(9.44383e-09 -3.04998e-06 0)
(9.28575e-09 -3.05575e-06 0)
(9.12728e-09 -3.06148e-06 0)
(8.96842e-09 -3.06717e-06 0)
(8.80923e-09 -3.07282e-06 0)
(8.64972e-09 -3.07843e-06 0)
(8.48994e-09 -3.084e-06 0)
(8.32992e-09 -3.08952e-06 0)
(8.16969e-09 -3.095e-06 0)
(8.0093e-09 -3.10043e-06 0)
(7.84877e-09 -3.10581e-06 0)
(7.68815e-09 -3.11113e-06 0)
(7.52747e-09 -3.11641e-06 0)
(7.36678e-09 -3.12162e-06 0)
(7.20612e-09 -3.12678e-06 0)
(7.04551e-09 -3.13189e-06 0)
(6.88502e-09 -3.13692e-06 0)
(6.72467e-09 -3.1419e-06 0)
(6.56452e-09 -3.14681e-06 0)
(6.4046e-09 -3.15166e-06 0)
(6.24497e-09 -3.15644e-06 0)
(6.08566e-09 -3.16114e-06 0)
(5.92671e-09 -3.16578e-06 0)
(5.76819e-09 -3.17034e-06 0)
(5.61013e-09 -3.17483e-06 0)
(5.45258e-09 -3.17924e-06 0)
(5.29559e-09 -3.18356e-06 0)
(5.1392e-09 -3.18781e-06 0)
(4.98347e-09 -3.19198e-06 0)
(4.82844e-09 -3.19606e-06 0)
(4.67416e-09 -3.20006e-06 0)
(4.52068e-09 -3.20396e-06 0)
(4.36805e-09 -3.20778e-06 0)
(4.21632e-09 -3.21151e-06 0)
(4.06554e-09 -3.21514e-06 0)
(3.91575e-09 -3.21868e-06 0)
(3.76702e-09 -3.22213e-06 0)
(3.61938e-09 -3.22547e-06 0)
(3.47289e-09 -3.22872e-06 0)
(3.32759e-09 -3.23187e-06 0)
(3.18354e-09 -3.23491e-06 0)
(3.04079e-09 -3.23785e-06 0)
(2.89937e-09 -3.24069e-06 0)
(2.75935e-09 -3.24342e-06 0)
(2.62077e-09 -3.24605e-06 0)
(2.48368e-09 -3.24857e-06 0)
(2.34811e-09 -3.25097e-06 0)
(2.21413e-09 -3.25327e-06 0)
(2.08178e-09 -3.25546e-06 0)
(1.9511e-09 -3.25753e-06 0)
(1.82213e-09 -3.25949e-06 0)
(1.69492e-09 -3.26134e-06 0)
(1.56951e-09 -3.26307e-06 0)
(1.44594e-09 -3.26468e-06 0)
(1.32426e-09 -3.26618e-06 0)
(1.20451e-09 -3.26756e-06 0)
(1.08671e-09 -3.26882e-06 0)
(9.70917e-10 -3.26997e-06 0)
(8.5716e-10 -3.271e-06 0)
(7.45474e-10 -3.2719e-06 0)
(6.35895e-10 -3.27269e-06 0)
(5.28456e-10 -3.27336e-06 0)
(4.23188e-10 -3.27391e-06 0)
(3.20122e-10 -3.27434e-06 0)
(2.19286e-10 -3.27465e-06 0)
(1.20712e-10 -3.27485e-06 0)
(2.44081e-11 -3.27492e-06 0)
(-6.95199e-11 -3.27487e-06 0)
(-1.61384e-10 -3.27471e-06 0)
(-2.49876e-10 -3.27442e-06 0)
(-3.40646e-10 -3.27402e-06 0)
(-4.35786e-10 -3.27344e-06 0)
(-5.30889e-10 -3.27264e-06 0)
(-6.24422e-10 -3.27168e-06 0)
(-7.13765e-10 -3.27058e-06 0)
(-7.9874e-10 -3.26933e-06 0)
(-8.79413e-10 -3.26795e-06 0)
(-9.55867e-10 -3.26645e-06 0)
(-1.0282e-09 -3.26482e-06 0)
(-1.09655e-09 -3.26308e-06 0)
(-1.16103e-09 -3.26124e-06 0)
(-1.22177e-09 -3.25929e-06 0)
(-1.27889e-09 -3.25725e-06 0)
(-1.33251e-09 -3.25512e-06 0)
(-1.38273e-09 -3.2529e-06 0)
(-1.42967e-09 -3.25061e-06 0)
(-1.47342e-09 -3.24824e-06 0)
(-1.51411e-09 -3.24581e-06 0)
(-1.55181e-09 -3.24331e-06 0)
(-1.58664e-09 -3.24076e-06 0)
(-1.61868e-09 -3.23815e-06 0)
(-1.64802e-09 -3.23549e-06 0)
(-1.67475e-09 -3.23278e-06 0)
(-1.69896e-09 -3.23004e-06 0)
(-1.72073e-09 -3.22725e-06 0)
(-1.74014e-09 -3.22444e-06 0)
(-1.75725e-09 -3.22159e-06 0)
(-1.77215e-09 -3.21872e-06 0)
(-1.78491e-09 -3.21583e-06 0)
(-1.7956e-09 -3.21292e-06 0)
(-1.80427e-09 -3.20999e-06 0)
(-1.811e-09 -3.20705e-06 0)
(-1.81584e-09 -3.2041e-06 0)
(-1.81886e-09 -3.20115e-06 0)
(-1.82011e-09 -3.19819e-06 0)
(-1.81964e-09 -3.19523e-06 0)
(-1.81751e-09 -3.19228e-06 0)
(-1.81377e-09 -3.18933e-06 0)
(-1.80847e-09 -3.18638e-06 0)
(-1.80165e-09 -3.18345e-06 0)
(-1.79336e-09 -3.18053e-06 0)
(-1.78365e-09 -3.17762e-06 0)
(-1.77255e-09 -3.17473e-06 0)
(-1.76011e-09 -3.17186e-06 0)
(-1.74636e-09 -3.16901e-06 0)
(-1.73135e-09 -3.16619e-06 0)
(-1.71511e-09 -3.16339e-06 0)
(-1.69767e-09 -3.16061e-06 0)
(-1.67907e-09 -3.15787e-06 0)
(-1.65935e-09 -3.15516e-06 0)
(-1.63853e-09 -3.15248e-06 0)
(-1.61665e-09 -3.14983e-06 0)
(-1.59374e-09 -3.14722e-06 0)
(-1.56982e-09 -3.14465e-06 0)
(-1.54493e-09 -3.14212e-06 0)
(-1.51909e-09 -3.13963e-06 0)
(-1.49233e-09 -3.13718e-06 0)
(-1.46468e-09 -3.13478e-06 0)
(-1.43616e-09 -3.13242e-06 0)
(-1.4068e-09 -3.13011e-06 0)
(-1.37663e-09 -3.12785e-06 0)
(-1.34567e-09 -3.12564e-06 0)
(-1.31394e-09 -3.12348e-06 0)
(-1.28146e-09 -3.12136e-06 0)
(-1.24827e-09 -3.11931e-06 0)
(-1.21439e-09 -3.1173e-06 0)
(-1.17983e-09 -3.11536e-06 0)
(-1.14462e-09 -3.11347e-06 0)
(-1.10878e-09 -3.11164e-06 0)
(-1.07234e-09 -3.10986e-06 0)
(-1.03532e-09 -3.10815e-06 0)
(-9.97742e-10 -3.10649e-06 0)
(-9.59624e-10 -3.1049e-06 0)
(-9.2099e-10 -3.10337e-06 0)
(-8.81864e-10 -3.1019e-06 0)
(-8.42265e-10 -3.10049e-06 0)
(-8.02217e-10 -3.09915e-06 0)
(-7.6174e-10 -3.09788e-06 0)
(-7.20857e-10 -3.09667e-06 0)
(-6.79589e-10 -3.09553e-06 0)
(-6.37958e-10 -3.09445e-06 0)
(-5.95985e-10 -3.09344e-06 0)
(-5.53693e-10 -3.09251e-06 0)
(-5.11101e-10 -3.09163e-06 0)
(-4.68233e-10 -3.09084e-06 0)
(-4.25108e-10 -3.0901e-06 0)
(-3.8175e-10 -3.08946e-06 0)
(-3.38176e-10 -3.0888e-06 0)
(-2.94413e-10 -3.0885e-06 0)
(-2.50462e-10 -3.08732e-06 0)
(-2.06399e-10 -3.08929e-06 0)
(-1.62095e-10 -3.08095e-06 0)
(-1.17957e-10 -3.1058e-06 0)
(-7.35109e-11 -3.01266e-06 0)
(-2.8384e-11 -3.26003e-06 0)
(-2.91674e-12 -2.84731e-06 0)
)
;
    }
    bottomWall
    {
        type            calculated;
        value           nonuniform List<vector> 
449
(
(-48.4838 -0.963419 0)
(-19.736 -0.005149 0)
(-14.3371 -0.00113235 0)
(-12.0355 -0.000542738 0)
(-10.6401 -0.000347255 0)
(-9.66448 -0.000248251 0)
(-8.94104 -0.000182891 0)
(-8.40974 -0.000125468 0)
(-8.07853 -5.47301e-05 0)
(-8.03391 6.2911e-05 0)
(-8.51724 0.000246521 0)
(-9.74527 0.000337706 0)
(-10.8596 0.000262788 0)
(-11.5698 0.000158787 0)
(-11.9654 8.76664e-05 0)
(-12.182 4.65274e-05 0)
(-12.2911 2.12302e-05 0)
(-12.331 4.05481e-06 0)
(-12.3196 -7.25441e-06 0)
(-12.2798 -1.40004e-05 0)
(-12.2205 -1.8462e-05 0)
(-12.1488 -2.10626e-05 0)
(-12.0708 -2.22895e-05 0)
(-11.9901 -2.27113e-05 0)
(-11.9087 -2.26537e-05 0)
(-11.8279 -2.2329e-05 0)
(-11.7485 -2.18359e-05 0)
(-11.6709 -2.12166e-05 0)
(-11.5955 -2.05404e-05 0)
(-11.5225 -1.98441e-05 0)
(-11.4518 -1.91475e-05 0)
(-11.3835 -1.84626e-05 0)
(-11.3175 -1.77983e-05 0)
(-11.2537 -1.71577e-05 0)
(-11.1921 -1.65514e-05 0)
(-11.1324 -1.5983e-05 0)
(-11.0747 -1.54364e-05 0)
(-11.0188 -1.49062e-05 0)
(-10.9646 -1.44007e-05 0)
(-10.9122 -1.39208e-05 0)
(-10.8614 -1.34655e-05 0)
(-10.8121 -1.30334e-05 0)
(-10.7643 -1.26251e-05 0)
(-10.7179 -1.22371e-05 0)
(-10.6727 -1.18673e-05 0)
(-10.6288 -1.15156e-05 0)
(-10.5861 -1.11836e-05 0)
(-10.5445 -1.08655e-05 0)
(-10.504 -1.05688e-05 0)
(-10.4645 -1.03079e-05 0)
(-10.4257 -1.00745e-05 0)
(-10.3878 -9.85456e-06 0)
(-10.3506 -9.64182e-06 0)
(-10.3141 -9.43274e-06 0)
(-10.2783 -9.22708e-06 0)
(-10.2432 -9.02377e-06 0)
(-10.2088 -8.82503e-06 0)
(-10.1751 -8.6323e-06 0)
(-10.142 -8.44443e-06 0)
(-10.1096 -8.26177e-06 0)
(-10.0778 -8.08543e-06 0)
(-10.0466 -7.91625e-06 0)
(-10.016 -7.75166e-06 0)
(-9.9859 -7.5913e-06 0)
(-9.9564 -7.43546e-06 0)
(-9.92742 -7.28629e-06 0)
(-9.89895 -7.14238e-06 0)
(-9.87097 -7.00311e-06 0)
(-9.84348 -6.86665e-06 0)
(-9.81645 -6.73791e-06 0)
(-9.78985 -6.61555e-06 0)
(-9.76368 -6.49331e-06 0)
(-9.73793 -6.3732e-06 0)
(-9.71259 -6.25747e-06 0)
(-9.68765 -6.14572e-06 0)
(-9.6631 -6.03557e-06 0)
(-9.63893 -5.92862e-06 0)
(-9.61513 -5.82413e-06 0)
(-9.5917 -5.72257e-06 0)
(-9.56861 -5.62408e-06 0)
(-9.54587 -5.52831e-06 0)
(-9.52345 -5.43515e-06 0)
(-9.50137 -5.34466e-06 0)
(-9.47959 -5.25636e-06 0)
(-9.45813 -5.1703e-06 0)
(-9.43696 -5.08698e-06 0)
(-9.41609 -5.00554e-06 0)
(-9.3955 -4.9276e-06 0)
(-9.37517 -4.85116e-06 0)
(-9.35512 -4.776e-06 0)
(-9.33532 -4.70329e-06 0)
(-9.31578 -4.63156e-06 0)
(-9.2965 -4.56192e-06 0)
(-9.27745 -4.49395e-06 0)
(-9.25865 -4.42678e-06 0)
(-9.24008 -4.36246e-06 0)
(-9.22174 -4.29902e-06 0)
(-9.20362 -4.23679e-06 0)
(-9.18572 -4.17699e-06 0)
(-9.16802 -4.11753e-06 0)
(-9.15054 -4.06211e-06 0)
(-9.13324 -4.00941e-06 0)
(-9.11613 -3.95527e-06 0)
(-9.09922 -3.90205e-06 0)
(-9.08249 -3.84929e-06 0)
(-9.06595 -3.79719e-06 0)
(-9.04959 -3.74732e-06 0)
(-9.0334 -3.69795e-06 0)
(-9.0174 -3.649e-06 0)
(-9.00156 -3.60221e-06 0)
(-8.98589 -3.55587e-06 0)
(-8.97039 -3.50976e-06 0)
(-8.95505 -3.46585e-06 0)
(-8.93986 -3.42241e-06 0)
(-8.92484 -3.37902e-06 0)
(-8.90996 -3.33759e-06 0)
(-8.89523 -3.29688e-06 0)
(-8.88065 -3.25602e-06 0)
(-8.86621 -3.21665e-06 0)
(-8.85191 -3.17852e-06 0)
(-8.83775 -3.14012e-06 0)
(-8.82373 -3.10267e-06 0)
(-8.80983 -3.0669e-06 0)
(-8.79607 -3.03092e-06 0)
(-8.78244 -2.99514e-06 0)
(-8.76893 -2.96107e-06 0)
(-8.75554 -2.92747e-06 0)
(-8.74228 -2.89377e-06 0)
(-8.72914 -2.86106e-06 0)
(-8.71611 -2.82955e-06 0)
(-8.7032 -2.79792e-06 0)
(-8.6904 -2.76641e-06 0)
(-8.67771 -2.73636e-06 0)
(-8.66513 -2.70683e-06 0)
(-8.65266 -2.67707e-06 0)
(-8.6403 -2.64802e-06 0)
(-8.62804 -2.62024e-06 0)
(-8.61588 -2.59235e-06 0)
(-8.60382 -2.56434e-06 0)
(-8.59186 -2.53756e-06 0)
(-8.58 -2.5116e-06 0)
(-8.56823 -2.48528e-06 0)
(-8.55656 -2.45916e-06 0)
(-8.54498 -2.43429e-06 0)
(-8.53349 -2.40986e-06 0)
(-8.52209 -2.38508e-06 0)
(-8.51079 -2.36123e-06 0)
(-8.49956 -2.33955e-06 0)
(-8.48841 -2.31792e-06 0)
(-8.47734 -2.29499e-06 0)
(-8.46635 -2.27223e-06 0)
(-8.45545 -2.25033e-06 0)
(-8.44462 -2.22867e-06 0)
(-8.43388 -2.20684e-06 0)
(-8.42321 -2.18535e-06 0)
(-8.41262 -2.16466e-06 0)
(-8.40211 -2.14435e-06 0)
(-8.39167 -2.12383e-06 0)
(-8.38131 -2.10348e-06 0)
(-8.37102 -2.08393e-06 0)
(-8.36081 -2.06491e-06 0)
(-8.35066 -2.04564e-06 0)
(-8.34058 -2.0263e-06 0)
(-8.33058 -2.00778e-06 0)
(-8.32064 -1.98988e-06 0)
(-8.31076 -1.9718e-06 0)
(-8.30096 -1.95358e-06 0)
(-8.29122 -1.93589e-06 0)
(-8.28155 -1.91903e-06 0)
(-8.27193 -1.90202e-06 0)
(-8.26238 -1.88518e-06 0)
(-8.25289 -1.86813e-06 0)
(-8.24348 -1.84967e-06 0)
(-8.23465 -1.83632e-06 0)
(-8.22633 -1.82476e-06 0)
(-8.21798 -1.80865e-06 0)
(-8.20963 -1.79363e-06 0)
(-8.20124 -1.77985e-06 0)
(-8.19283 -1.76598e-06 0)
(-8.1844 -1.75193e-06 0)
(-8.17594 -1.73754e-06 0)
(-8.16746 -1.72363e-06 0)
(-8.15896 -1.71002e-06 0)
(-8.15043 -1.69653e-06 0)
(-8.14188 -1.68261e-06 0)
(-8.13331 -1.66854e-06 0)
(-8.12472 -1.65497e-06 0)
(-8.1161 -1.64166e-06 0)
(-8.10746 -1.6283e-06 0)
(-8.0988 -1.61465e-06 0)
(-8.09012 -1.601e-06 0)
(-8.08141 -1.58779e-06 0)
(-8.07269 -1.57474e-06 0)
(-8.06394 -1.56152e-06 0)
(-8.05517 -1.54814e-06 0)
(-8.04639 -1.53495e-06 0)
(-8.03758 -1.52205e-06 0)
(-8.02875 -1.50931e-06 0)
(-8.0199 -1.49629e-06 0)
(-8.01104 -1.48317e-06 0)
(-8.00215 -1.47043e-06 0)
(-7.99325 -1.45791e-06 0)
(-7.98432 -1.44533e-06 0)
(-7.97538 -1.43258e-06 0)
(-7.96642 -1.41992e-06 0)
(-7.95744 -1.40757e-06 0)
(-7.94844 -1.39541e-06 0)
(-7.93943 -1.383e-06 0)
(-7.9304 -1.37048e-06 0)
(-7.92135 -1.35833e-06 0)
(-7.91228 -1.34642e-06 0)
(-7.9032 -1.33435e-06 0)
(-7.8941 -1.32278e-06 0)
(-7.88498 -1.31182e-06 0)
(-7.87584 -1.30055e-06 0)
(-7.86667 -1.28893e-06 0)
(-7.8575 -1.27708e-06 0)
(-7.84831 -1.26526e-06 0)
(-7.8391 -1.25376e-06 0)
(-7.82988 -1.24244e-06 0)
(-7.82064 -1.23091e-06 0)
(-7.81139 -1.2193e-06 0)
(-7.80213 -1.20805e-06 0)
(-7.79285 -1.19704e-06 0)
(-7.78356 -1.18582e-06 0)
(-7.77426 -1.17448e-06 0)
(-7.76494 -1.16348e-06 0)
(-7.75561 -1.15274e-06 0)
(-7.74627 -1.14183e-06 0)
(-7.73691 -1.13081e-06 0)
(-7.72755 -1.12008e-06 0)
(-7.71817 -1.1096e-06 0)
(-7.70878 -1.099e-06 0)
(-7.69938 -1.08828e-06 0)
(-7.68997 -1.07783e-06 0)
(-7.68055 -1.06763e-06 0)
(-7.67111 -1.0573e-06 0)
(-7.66167 -1.04688e-06 0)
(-7.65222 -1.03672e-06 0)
(-7.64276 -1.0268e-06 0)
(-7.63328 -1.01676e-06 0)
(-7.6238 -1.00663e-06 0)
(-7.61431 -9.96772e-07 0)
(-7.60481 -9.87133e-07 0)
(-7.5953 -9.77358e-07 0)
(-7.58578 -9.67521e-07 0)
(-7.57626 -9.57977e-07 0)
(-7.56673 -9.48629e-07 0)
(-7.55718 -9.39111e-07 0)
(-7.54764 -9.29566e-07 0)
(-7.53808 -9.20335e-07 0)
(-7.52852 -9.11235e-07 0)
(-7.51895 -9.01981e-07 0)
(-7.50937 -8.92767e-07 0)
(-7.49979 -8.83825e-07 0)
(-7.4902 -8.74956e-07 0)
(-7.48061 -8.65977e-07 0)
(-7.47101 -8.57099e-07 0)
(-7.4614 -8.48453e-07 0)
(-7.45179 -8.39813e-07 0)
(-7.44218 -8.311e-07 0)
(-7.43256 -8.22547e-07 0)
(-7.42293 -8.14194e-07 0)
(-7.4133 -8.05777e-07 0)
(-7.40367 -7.97332e-07 0)
(-7.39404 -7.89096e-07 0)
(-7.38439 -7.81e-07 0)
(-7.37475 -7.72818e-07 0)
(-7.3651 -7.64677e-07 0)
(-7.35545 -7.56751e-07 0)
(-7.3458 -7.48865e-07 0)
(-7.33614 -7.40932e-07 0)
(-7.32649 -7.3312e-07 0)
(-7.31683 -7.25968e-07 0)
(-7.30715 -7.18927e-07 0)
(-7.29747 -7.11371e-07 0)
(-7.28779 -7.03863e-07 0)
(-7.2781 -6.9645e-07 0)
(-7.26842 -6.8899e-07 0)
(-7.25873 -6.81588e-07 0)
(-7.24905 -6.74369e-07 0)
(-7.23936 -6.67163e-07 0)
(-7.22967 -6.59925e-07 0)
(-7.21998 -6.52828e-07 0)
(-7.2103 -6.45865e-07 0)
(-7.20061 -6.38852e-07 0)
(-7.19092 -6.3186e-07 0)
(-7.18124 -6.25061e-07 0)
(-7.17155 -6.183e-07 0)
(-7.16187 -6.11502e-07 0)
(-7.15219 -6.04825e-07 0)
(-7.14251 -5.98294e-07 0)
(-7.13283 -5.91716e-07 0)
(-7.12315 -5.8515e-07 0)
(-7.11348 -5.78766e-07 0)
(-7.10381 -5.72424e-07 0)
(-7.09414 -5.66046e-07 0)
(-7.08448 -5.5978e-07 0)
(-7.07481 -5.53653e-07 0)
(-7.06515 -5.47486e-07 0)
(-7.0555 -5.41339e-07 0)
(-7.04585 -5.35359e-07 0)
(-7.0362 -5.29412e-07 0)
(-7.02655 -5.23435e-07 0)
(-7.01691 -5.17575e-07 0)
(-7.00728 -5.11826e-07 0)
(-6.99765 -5.06045e-07 0)
(-6.98802 -5.00303e-07 0)
(-6.9784 -4.94715e-07 0)
(-6.96878 -4.89134e-07 0)
(-6.95917 -4.83541e-07 0)
(-6.94957 -4.78074e-07 0)
(-6.93997 -4.72683e-07 0)
(-6.93038 -4.67266e-07 0)
(-6.92079 -4.61918e-07 0)
(-6.91121 -4.56698e-07 0)
(-6.90164 -4.51461e-07 0)
(-6.89207 -4.46235e-07 0)
(-6.88251 -4.41153e-07 0)
(-6.87296 -4.36098e-07 0)
(-6.86341 -4.31032e-07 0)
(-6.85388 -4.26064e-07 0)
(-6.84435 -4.21178e-07 0)
(-6.83482 -4.16274e-07 0)
(-6.82531 -4.11423e-07 0)
(-6.8158 -4.0669e-07 0)
(-6.8063 -4.01948e-07 0)
(-6.79682 -3.97221e-07 0)
(-6.78734 -3.9261e-07 0)
(-6.77786 -3.88239e-07 0)
(-6.76839 -3.83947e-07 0)
(-6.75893 -3.7952e-07 0)
(-6.74947 -3.75084e-07 0)
(-6.74002 -3.70638e-07 0)
(-6.73058 -3.66255e-07 0)
(-6.72116 -3.61963e-07 0)
(-6.71174 -3.5767e-07 0)
(-6.70233 -3.534e-07 0)
(-6.69294 -3.49265e-07 0)
(-6.68355 -3.45164e-07 0)
(-6.67417 -3.41048e-07 0)
(-6.6648 -3.36998e-07 0)
(-6.65545 -3.32983e-07 0)
(-6.6461 -3.28966e-07 0)
(-6.63678 -3.2503e-07 0)
(-6.62745 -3.21145e-07 0)
(-6.61815 -3.17266e-07 0)
(-6.60885 -3.13432e-07 0)
(-6.59957 -3.09682e-07 0)
(-6.59029 -3.0591e-07 0)
(-6.58104 -3.02209e-07 0)
(-6.57179 -2.9849e-07 0)
(-6.56256 -2.94921e-07 0)
(-6.55334 -2.91475e-07 0)
(-6.54309 -2.87366e-07 0)
(-6.53194 -2.82959e-07 0)
(-6.52096 -2.78944e-07 0)
(-6.51012 -2.75015e-07 0)
(-6.49944 -2.71081e-07 0)
(-6.48891 -2.67275e-07 0)
(-6.47853 -2.6355e-07 0)
(-6.46829 -2.59892e-07 0)
(-6.4582 -2.56348e-07 0)
(-6.44824 -2.52873e-07 0)
(-6.43842 -2.49467e-07 0)
(-6.42872 -2.46167e-07 0)
(-6.41916 -2.42932e-07 0)
(-6.40972 -2.39747e-07 0)
(-6.4004 -2.36671e-07 0)
(-6.3912 -2.33647e-07 0)
(-6.38212 -2.30675e-07 0)
(-6.37315 -2.27793e-07 0)
(-6.3643 -2.24972e-07 0)
(-6.35555 -2.22185e-07 0)
(-6.34692 -2.19482e-07 0)
(-6.33838 -2.16841e-07 0)
(-6.32996 -2.14234e-07 0)
(-6.32162 -2.11686e-07 0)
(-6.3134 -2.09216e-07 0)
(-6.30526 -2.0677e-07 0)
(-6.29722 -2.04366e-07 0)
(-6.28927 -2.02037e-07 0)
(-6.28142 -1.99751e-07 0)
(-6.27364 -1.97575e-07 0)
(-6.26596 -1.95501e-07 0)
(-6.25835 -1.93394e-07 0)
(-6.25083 -1.91276e-07 0)
(-6.24339 -1.89178e-07 0)
(-6.23603 -1.87149e-07 0)
(-6.22875 -1.85156e-07 0)
(-6.22155 -1.83185e-07 0)
(-6.21442 -1.81261e-07 0)
(-6.20737 -1.79402e-07 0)
(-6.20038 -1.77551e-07 0)
(-6.19348 -1.75713e-07 0)
(-6.18664 -1.73915e-07 0)
(-6.17987 -1.72172e-07 0)
(-6.17317 -1.70439e-07 0)
(-6.16654 -1.68729e-07 0)
(-6.15997 -1.67055e-07 0)
(-6.15347 -1.65435e-07 0)
(-6.14703 -1.63819e-07 0)
(-6.14066 -1.62229e-07 0)
(-6.13434 -1.60665e-07 0)
(-6.12809 -1.59156e-07 0)
(-6.12189 -1.57649e-07 0)
(-6.11576 -1.56169e-07 0)
(-6.10967 -1.54699e-07 0)
(-6.10366 -1.53293e-07 0)
(-6.09768 -1.51884e-07 0)
(-6.09177 -1.5051e-07 0)
(-6.0859 -1.49122e-07 0)
(-6.08011 -1.47809e-07 0)
(-6.07434 -1.46491e-07 0)
(-6.06865 -1.4522e-07 0)
(-6.06298 -1.43904e-07 0)
(-6.05739 -1.42682e-07 0)
(-6.05182 -1.41431e-07 0)
(-6.04633 -1.40266e-07 0)
(-6.04085 -1.39025e-07 0)
(-6.03545 -1.37891e-07 0)
(-6.03006 -1.3669e-07 0)
(-6.02476 -1.35629e-07 0)
(-6.01945 -1.34453e-07 0)
(-6.01424 -1.33419e-07 0)
(-6.00901 -1.32256e-07 0)
(-6.0039 -1.31293e-07 0)
(-5.99874 -1.3017e-07 0)
(-5.99371 -1.29259e-07 0)
(-5.98863 -1.28125e-07 0)
(-5.98369 -1.27269e-07 0)
(-5.97868 -1.26168e-07 0)
(-5.97382 -1.25399e-07 0)
(-5.96887 -1.24305e-07 0)
(-5.9641 -1.23588e-07 0)
(-5.9592 -1.22516e-07 0)
(-5.95452 -1.21883e-07 0)
(-5.94966 -1.20911e-07 0)
(-5.94506 -1.20247e-07 0)
(-5.94026 -1.19638e-07 0)
(-5.9357 -1.18366e-07 0)
(-5.931 -1.19482e-07 0)
(-5.92635 -1.1512e-07 0)
(-5.92201 -1.23227e-07 0)
(-5.91668 -1.05597e-07 0)
(-5.91379 -1.36683e-07 0)
(-5.90591 -8.32178e-08 0)
(-5.90744 -1.1509e-07 0)
(-5.89662 -1.43465e-07 0)
)
;
    }
    symmetry
    {
        type            symmetryPlane;
    }
    frontAndBack
    {
        type            empty;
    }
}


// ************************************************************************* //
