/*--------------------------------*- C++ -*----------------------------------*\
| =========                 |                                                 |
| \\      /  F ield         | OpenFOAM: The Open Source CFD Toolbox           |
|  \\    /   O peration     | Version:  v2012                                 |
|   \\  /    A nd           | Website:  www.openfoam.com                      |
|    \\/     M anipulation  |                                                 |
\*---------------------------------------------------------------------------*/
FoamFile
{
    version     2.0;
    format      ascii;
    class       volScalarField;
    location    "53.5";
    object      yPlus;
}
// * * * * * * * * * * * * * * * * * * * * * * * * * * * * * * * * * * * * * //

dimensions      [0 0 0 0 0 0 0];


internalField   uniform 0;

boundaryField
{
    inlet
    {
        type            calculated;
        value           uniform 0;
    }
    outlet
    {
        type            calculated;
        value           uniform 0;
    }
    topWall
    {
        type            calculated;
        value           nonuniform List<scalar> 
545
(
0.111334
0.191972
0.246283
0.289505
0.326098
0.358117
0.386719
0.412631
0.436348
0.458225
0.478529
0.497466
0.5152
0.531864
0.547567
0.562401
0.576445
0.589766
0.602421
0.614462
0.625935
0.636878
0.647327
0.657315
0.666871
0.676021
0.684789
0.693196
0.701263
0.709008
0.716449
0.723601
0.730479
0.737096
0.743465
0.749598
0.755506
0.7612
0.766689
0.771982
0.777087
0.782014
0.78677
0.791362
0.795796
0.80008
0.804219
0.808219
0.812086
0.815825
0.819441
0.822939
0.826323
0.829598
0.832767
0.835835
0.838806
0.841682
0.844468
0.847166
0.84978
0.852312
0.854767
0.857145
0.859451
0.861686
0.863853
0.865954
0.867991
0.869968
0.871884
0.873744
0.875524
0.877247
0.878956
0.880652
0.882335
0.884004
0.88566
0.887303
0.888933
0.890551
0.892156
0.893748
0.895329
0.896897
0.898453
0.899997
0.901529
0.903049
0.904558
0.906055
0.907541
0.909016
0.910479
0.911931
0.91324
0.914411
0.915581
0.916752
0.917922
0.919092
0.920262
0.921432
0.922602
0.923772
0.924941
0.926111
0.92728
0.928449
0.929618
0.930787
0.931955
0.933124
0.934292
0.93546
0.936627
0.937795
0.938962
0.940129
0.941296
0.942463
0.943629
0.944795
0.945961
0.947126
0.948291
0.949456
0.950621
0.951785
0.952949
0.954113
0.955276
0.956439
0.957602
0.958764
0.959926
0.961087
0.962248
0.963409
0.96457
0.96573
0.966889
0.968048
0.969207
0.970365
0.971523
0.972681
0.973838
0.974994
0.97615
0.977305
0.97846
0.979615
0.980769
0.981922
0.983075
0.984228
0.98538
0.986531
0.987682
0.988832
0.989982
0.991131
0.992279
0.993427
0.994574
0.995721
0.996866
0.998012
0.999156
1.0003
1.00144
1.00259
1.00373
1.00487
1.00601
1.00715
1.00829
1.00943
1.01056
1.0117
1.01284
1.01397
1.01511
1.01624
1.01737
1.0185
1.01964
1.02077
1.0219
1.02302
1.02415
1.02528
1.0264
1.02753
1.02865
1.02978
1.0309
1.03202
1.03314
1.03426
1.03538
1.03649
1.03761
1.03873
1.03984
1.04095
1.04207
1.04318
1.04429
1.0454
1.0465
1.04761
1.04872
1.04982
1.05092
1.05203
1.05313
1.05423
1.05533
1.05642
1.05752
1.05861
1.05971
1.0608
1.06189
1.06298
1.06407
1.06516
1.06624
1.06733
1.06841
1.06949
1.07057
1.07165
1.07273
1.07381
1.07488
1.07596
1.07703
1.0781
1.07917
1.08024
1.0813
1.08237
1.08343
1.08449
1.08555
1.08661
1.08767
1.08872
1.08978
1.09083
1.09188
1.09293
1.09398
1.09502
1.09607
1.09711
1.09815
1.09919
1.10022
1.10126
1.10229
1.10333
1.10436
1.10538
1.10641
1.10738
1.10829
1.10921
1.11014
1.11107
1.11201
1.11295
1.11391
1.11486
1.11583
1.1168
1.11778
1.11876
1.11975
1.12075
1.12176
1.12277
1.12378
1.12481
1.12583
1.12687
1.12791
1.12896
1.13001
1.13108
1.13214
1.13322
1.13429
1.13538
1.13647
1.13757
1.13867
1.13978
1.1409
1.14202
1.14314
1.14428
1.14541
1.14656
1.14771
1.14886
1.15002
1.15119
1.15236
1.15354
1.15472
1.1559
1.15709
1.15829
1.15949
1.1607
1.16191
1.16312
1.16434
1.16556
1.16679
1.16802
1.16926
1.1705
1.17174
1.17298
1.17423
1.17549
1.17674
1.178
1.17926
1.18053
1.1818
1.18307
1.18434
1.18561
1.18689
1.18817
1.18944
1.19072
1.19201
1.19329
1.19457
1.19586
1.19714
1.19843
1.19971
1.201
1.20228
1.20356
1.20485
1.20613
1.20741
1.20869
1.20996
1.21124
1.21251
1.21378
1.21505
1.21631
1.21757
1.21883
1.22008
1.22133
1.22258
1.22382
1.22505
1.22628
1.22751
1.22872
1.22994
1.23114
1.23234
1.23353
1.23472
1.23589
1.23706
1.23822
1.23937
1.24051
1.24165
1.24277
1.24388
1.24499
1.24608
1.24716
1.24823
1.24929
1.25033
1.25137
1.25239
1.25339
1.25439
1.25537
1.25634
1.25729
1.25823
1.25915
1.26006
1.26095
1.26183
1.26269
1.26353
1.26436
1.26516
1.26596
1.26673
1.26748
1.26822
1.26894
1.26964
1.27032
1.27098
1.27162
1.27224
1.27284
1.27342
1.27398
1.27452
1.27503
1.27553
1.276
1.27645
1.27688
1.27729
1.27767
1.27804
1.27838
1.27869
1.27899
1.27926
1.27951
1.27973
1.27993
1.28011
1.28027
1.2804
1.28051
1.28059
1.28065
1.28069
1.28071
1.2807
1.28067
1.28061
1.28054
1.28042
1.28027
1.28008
1.27986
1.27962
1.27935
1.27906
1.27874
1.2784
1.27804
1.27766
1.27726
1.27684
1.27641
1.27596
1.27549
1.27502
1.27453
1.27402
1.27351
1.27299
1.27246
1.27192
1.27137
1.27082
1.27026
1.26969
1.26912
1.26855
1.26797
1.26739
1.26681
1.26622
1.26564
1.26505
1.26447
1.26388
1.2633
1.26272
1.26214
1.26156
1.26099
1.26042
1.25985
1.25929
1.25873
1.25818
1.25764
1.2571
1.25656
1.25604
1.25552
1.255
1.2545
1.254
1.25351
1.25303
1.25256
1.2521
1.25165
1.2512
1.25077
1.25035
1.24994
1.24954
1.24915
1.24877
1.2484
1.24804
1.2477
1.24737
1.24705
1.24674
1.24644
1.24616
1.24589
1.24564
1.24539
1.24516
1.24495
1.24475
1.24456
1.24438
1.24422
1.24407
1.24394
1.24382
1.24372
1.24363
1.24355
1.24349
1.24344
1.24341
1.24339
1.24338
)
;
    }
    bottomWall
    {
        type            calculated;
        value           nonuniform List<scalar> 
449
(
0.139384
0.0889268
0.0757936
0.0694439
0.0652942
0.0622288
0.0598544
0.0580488
0.0568942
0.0567369
0.0584186
0.0624883
0.0659642
0.068087
0.0692413
0.0698654
0.0701775
0.0702912
0.0702586
0.070145
0.0699756
0.0697701
0.0695457
0.0693127
0.069077
0.0688425
0.0686108
0.068384
0.0681628
0.0679478
0.0677391
0.0675368
0.0673406
0.0671506
0.0669664
0.0667877
0.0666142
0.0664459
0.0662826
0.0661239
0.0659698
0.06582
0.0656743
0.0655324
0.0653942
0.0652596
0.0651284
0.0650003
0.0648753
0.0647531
0.0646332
0.0645154
0.0643998
0.0642861
0.0641745
0.0640648
0.0639572
0.0638514
0.0637476
0.0636456
0.0635455
0.063447
0.0633503
0.0632551
0.0631616
0.0630696
0.0629791
0.0628901
0.0628024
0.0627161
0.0626311
0.0625473
0.0624648
0.0623835
0.0623033
0.0622243
0.0621465
0.0620697
0.061994
0.0619194
0.0618457
0.0617731
0.0617014
0.0616307
0.0615609
0.0614919
0.0614239
0.0613567
0.0612903
0.0612247
0.0611599
0.0610959
0.0610326
0.06097
0.0609082
0.0608471
0.0607867
0.0607269
0.0606678
0.0606094
0.0605516
0.0604943
0.0604376
0.0603815
0.060326
0.060271
0.0602166
0.0601628
0.0601094
0.0600566
0.0600043
0.0599526
0.0599013
0.0598505
0.0598001
0.0597503
0.0597009
0.0596519
0.0596034
0.0595553
0.0595077
0.0594604
0.0594136
0.0593672
0.0593211
0.0592755
0.0592303
0.0591854
0.0591409
0.0590967
0.0590529
0.0590095
0.0589664
0.0589237
0.0588812
0.0588392
0.0587974
0.0587559
0.0587148
0.058674
0.0586335
0.0585933
0.0585533
0.0585137
0.0584744
0.0584353
0.0583965
0.058358
0.0583197
0.0582816
0.0582439
0.0582063
0.0581691
0.0581321
0.0580953
0.0580588
0.0580225
0.0579864
0.0579506
0.057915
0.0578797
0.0578445
0.0578096
0.0577749
0.0577405
0.0577062
0.0576722
0.0576383
0.0576047
0.0575712
0.057538
0.0575049
0.0574721
0.0574413
0.0574123
0.0573832
0.057354
0.0573247
0.0572953
0.0572658
0.0572362
0.0572065
0.0571768
0.0571469
0.0571169
0.0570868
0.0570566
0.0570264
0.056996
0.0569656
0.056935
0.0569044
0.0568737
0.0568428
0.0568119
0.0567809
0.0567498
0.0567187
0.0566874
0.0566561
0.0566246
0.0565931
0.0565615
0.0565298
0.0564981
0.0564662
0.0564343
0.0564023
0.0563702
0.056338
0.0563058
0.0562734
0.056241
0.0562085
0.0561759
0.0561433
0.0561105
0.0560777
0.0560448
0.0560118
0.0559788
0.0559456
0.0559125
0.0558792
0.0558459
0.0558125
0.0557791
0.0557455
0.0557119
0.0556783
0.0556446
0.0556108
0.055577
0.0555431
0.0555091
0.0554751
0.055441
0.0554069
0.0553727
0.0553385
0.0553041
0.0552698
0.0552354
0.0552009
0.0551664
0.0551318
0.0550972
0.0550625
0.0550278
0.054993
0.0549582
0.0549233
0.0548884
0.0548534
0.0548184
0.0547834
0.0547483
0.0547131
0.054678
0.0546427
0.0546075
0.0545722
0.0545368
0.0545014
0.054466
0.0544306
0.0543951
0.0543595
0.054324
0.0542884
0.0542527
0.0542171
0.0541814
0.0541456
0.0541098
0.054074
0.0540381
0.0540022
0.0539662
0.0539302
0.0538942
0.0538582
0.0538222
0.0537861
0.05375
0.0537139
0.0536778
0.0536416
0.0536054
0.0535692
0.053533
0.0534968
0.0534605
0.0534242
0.0533879
0.0533516
0.0533153
0.053279
0.0532426
0.0532063
0.0531699
0.0531335
0.0530971
0.0530607
0.0530243
0.0529879
0.0529515
0.052915
0.0528786
0.0528422
0.0528057
0.0527693
0.0527328
0.0526963
0.0526599
0.0526234
0.052587
0.0525505
0.0525141
0.0524776
0.0524411
0.0524047
0.0523682
0.0523318
0.0522954
0.0522589
0.0522225
0.0521861
0.0521497
0.0521133
0.0520769
0.0520404
0.052004
0.0519676
0.0519312
0.0518948
0.0518585
0.0518221
0.0517858
0.0517494
0.0517131
0.0516768
0.0516405
0.0516043
0.051568
0.0515318
0.0514956
0.0514594
0.0514233
0.0513871
0.051351
0.0513149
0.0512789
0.0512428
0.0512028
0.0511591
0.0511161
0.0510736
0.0510317
0.0509903
0.0509495
0.0509093
0.0508695
0.0508303
0.0507916
0.0507533
0.0507155
0.0506782
0.0506414
0.050605
0.050569
0.0505335
0.0504984
0.0504637
0.0504294
0.0503954
0.0503619
0.0503288
0.050296
0.0502636
0.0502315
0.0501998
0.0501685
0.0501374
0.0501067
0.0500763
0.0500462
0.0500164
0.0499869
0.0499577
0.0499288
0.0499002
0.0498719
0.0498438
0.0498161
0.0497885
0.0497613
0.0497343
0.0497076
0.0496811
0.0496549
0.0496289
0.0496032
0.0495776
0.0495524
0.0495273
0.0495025
0.0494779
0.0494535
0.0494293
0.0494053
0.0493815
0.049358
0.0493346
0.0493115
0.0492884
0.0492657
0.0492431
0.0492207
0.0491984
0.0491764
0.0491545
0.0491328
0.0491112
0.0490899
0.0490686
0.0490477
0.0490266
0.0490061
0.0489853
0.0489651
0.0489446
0.0489247
0.0489044
0.0488849
0.0488648
0.0488456
0.0488257
0.0488068
0.0487871
0.0487683
0.048749
0.0487299
0.0487121
0.0486902
0.0486783
0.0486458
0.0486521
0.0486075
)
;
    }
    symmetry
    {
        type            symmetryPlane;
    }
    frontAndBack
    {
        type            empty;
    }
}


// ************************************************************************* //
