/*--------------------------------*- C++ -*----------------------------------*\
| =========                 |                                                 |
| \\      /  F ield         | OpenFOAM: The Open Source CFD Toolbox           |
|  \\    /   O peration     | Version:  v2012                                 |
|   \\  /    A nd           | Website:  www.openfoam.com                      |
|    \\/     M anipulation  |                                                 |
\*---------------------------------------------------------------------------*/
FoamFile
{
    version     2.0;
    format      ascii;
    class       volVectorField;
    location    "23.5";
    object      wallShearStress;
}
// * * * * * * * * * * * * * * * * * * * * * * * * * * * * * * * * * * * * * //

dimensions      [0 2 -2 0 0 0 0];


internalField   uniform (0 0 0);

boundaryField
{
    inlet
    {
        type            calculated;
        value           uniform (0 0 0);
    }
    outlet
    {
        type            calculated;
        value           uniform (0 0 0);
    }
    topWall
    {
        type            calculated;
        value           nonuniform List<vector> 
545
(
(1.47542e-08 -1.03851e-08 0)
(1.47477e-08 -2.90559e-08 0)
(1.47329e-08 -4.84672e-08 0)
(1.47122e-08 -6.73087e-08 0)
(1.46859e-08 -8.53352e-08 0)
(1.46545e-08 -1.02776e-07 0)
(1.46184e-08 -1.19778e-07 0)
(1.45781e-08 -1.36333e-07 0)
(1.45337e-08 -1.52402e-07 0)
(1.44859e-08 -1.67984e-07 0)
(1.44349e-08 -1.83099e-07 0)
(1.4381e-08 -1.97765e-07 0)
(1.43246e-08 -2.11991e-07 0)
(1.4266e-08 -2.25787e-07 0)
(1.42054e-08 -2.39163e-07 0)
(1.41431e-08 -2.52129e-07 0)
(1.40793e-08 -2.64697e-07 0)
(1.40142e-08 -2.76878e-07 0)
(1.39481e-08 -2.88683e-07 0)
(1.38812e-08 -3.00121e-07 0)
(1.38136e-08 -3.11204e-07 0)
(1.37454e-08 -3.21942e-07 0)
(1.36769e-08 -3.32345e-07 0)
(1.36081e-08 -3.42423e-07 0)
(1.35393e-08 -3.52185e-07 0)
(1.34705e-08 -3.61642e-07 0)
(1.34017e-08 -3.70803e-07 0)
(1.33333e-08 -3.79676e-07 0)
(1.32651e-08 -3.88272e-07 0)
(1.31973e-08 -3.96598e-07 0)
(1.313e-08 -4.04663e-07 0)
(1.30632e-08 -4.12475e-07 0)
(1.2997e-08 -4.20043e-07 0)
(1.29315e-08 -4.27374e-07 0)
(1.28666e-08 -4.34476e-07 0)
(1.28025e-08 -4.41356e-07 0)
(1.27392e-08 -4.48021e-07 0)
(1.26767e-08 -4.54479e-07 0)
(1.26151e-08 -4.60735e-07 0)
(1.25543e-08 -4.66797e-07 0)
(1.24945e-08 -4.72671e-07 0)
(1.24355e-08 -4.78363e-07 0)
(1.23775e-08 -4.83879e-07 0)
(1.23204e-08 -4.89225e-07 0)
(1.22643e-08 -4.94406e-07 0)
(1.22092e-08 -4.99427e-07 0)
(1.2155e-08 -5.04294e-07 0)
(1.21018e-08 -5.09012e-07 0)
(1.20495e-08 -5.13585e-07 0)
(1.19983e-08 -5.18019e-07 0)
(1.1948e-08 -5.22318e-07 0)
(1.18987e-08 -5.26486e-07 0)
(1.18503e-08 -5.30527e-07 0)
(1.18029e-08 -5.34446e-07 0)
(1.17565e-08 -5.38246e-07 0)
(1.1711e-08 -5.41932e-07 0)
(1.16665e-08 -5.45507e-07 0)
(1.16228e-08 -5.48975e-07 0)
(1.15801e-08 -5.52338e-07 0)
(1.15383e-08 -5.55601e-07 0)
(1.14974e-08 -5.58767e-07 0)
(1.14574e-08 -5.61838e-07 0)
(1.14182e-08 -5.64818e-07 0)
(1.13799e-08 -5.67709e-07 0)
(1.13425e-08 -5.70515e-07 0)
(1.13059e-08 -5.73238e-07 0)
(1.12701e-08 -5.75881e-07 0)
(1.12351e-08 -5.78446e-07 0)
(1.12009e-08 -5.80936e-07 0)
(1.11675e-08 -5.83352e-07 0)
(1.11348e-08 -5.85699e-07 0)
(1.1103e-08 -5.87973e-07 0)
(1.10721e-08 -5.90159e-07 0)
(1.10419e-08 -5.92279e-07 0)
(1.10121e-08 -5.94371e-07 0)
(1.09824e-08 -5.96451e-07 0)
(1.09527e-08 -5.98519e-07 0)
(1.09231e-08 -6.00573e-07 0)
(1.08936e-08 -6.02611e-07 0)
(1.08641e-08 -6.04634e-07 0)
(1.08346e-08 -6.06642e-07 0)
(1.08053e-08 -6.08635e-07 0)
(1.0776e-08 -6.10614e-07 0)
(1.07467e-08 -6.12579e-07 0)
(1.07175e-08 -6.1453e-07 0)
(1.06884e-08 -6.16466e-07 0)
(1.06594e-08 -6.18388e-07 0)
(1.06304e-08 -6.20296e-07 0)
(1.06014e-08 -6.2219e-07 0)
(1.05726e-08 -6.24071e-07 0)
(1.05438e-08 -6.25938e-07 0)
(1.05151e-08 -6.27791e-07 0)
(1.04864e-08 -6.29631e-07 0)
(1.04578e-08 -6.31455e-07 0)
(1.04292e-08 -6.33275e-07 0)
(1.04011e-08 -6.35054e-07 0)
(1.03746e-08 -6.36684e-07 0)
(1.03503e-08 -6.38166e-07 0)
(1.03268e-08 -6.39601e-07 0)
(1.03035e-08 -6.41041e-07 0)
(1.02801e-08 -6.42494e-07 0)
(1.02566e-08 -6.43949e-07 0)
(1.02331e-08 -6.45402e-07 0)
(1.02094e-08 -6.46853e-07 0)
(1.01857e-08 -6.48305e-07 0)
(1.01619e-08 -6.49757e-07 0)
(1.01379e-08 -6.51209e-07 0)
(1.01139e-08 -6.52661e-07 0)
(1.00898e-08 -6.54113e-07 0)
(1.00656e-08 -6.55565e-07 0)
(1.00413e-08 -6.57017e-07 0)
(1.00169e-08 -6.58468e-07 0)
(9.99244e-09 -6.5992e-07 0)
(9.96786e-09 -6.61371e-07 0)
(9.94319e-09 -6.62823e-07 0)
(9.91843e-09 -6.64274e-07 0)
(9.89357e-09 -6.65725e-07 0)
(9.86861e-09 -6.67175e-07 0)
(9.84357e-09 -6.68626e-07 0)
(9.81843e-09 -6.70076e-07 0)
(9.79319e-09 -6.71526e-07 0)
(9.76786e-09 -6.72975e-07 0)
(9.74244e-09 -6.74424e-07 0)
(9.71692e-09 -6.75873e-07 0)
(9.6913e-09 -6.77321e-07 0)
(9.6656e-09 -6.78769e-07 0)
(9.63979e-09 -6.80217e-07 0)
(9.6139e-09 -6.81664e-07 0)
(9.58791e-09 -6.83111e-07 0)
(9.56182e-09 -6.84557e-07 0)
(9.53564e-09 -6.86002e-07 0)
(9.50936e-09 -6.87447e-07 0)
(9.48299e-09 -6.88891e-07 0)
(9.45653e-09 -6.90335e-07 0)
(9.42997e-09 -6.91778e-07 0)
(9.40331e-09 -6.9322e-07 0)
(9.37656e-09 -6.94662e-07 0)
(9.34972e-09 -6.96103e-07 0)
(9.32278e-09 -6.97543e-07 0)
(9.29575e-09 -6.98982e-07 0)
(9.26862e-09 -7.00421e-07 0)
(9.2414e-09 -7.01859e-07 0)
(9.21408e-09 -7.03296e-07 0)
(9.18667e-09 -7.04732e-07 0)
(9.15916e-09 -7.06167e-07 0)
(9.13156e-09 -7.07601e-07 0)
(9.10386e-09 -7.09034e-07 0)
(9.07607e-09 -7.10467e-07 0)
(9.04819e-09 -7.11898e-07 0)
(9.02021e-09 -7.13328e-07 0)
(8.99213e-09 -7.14757e-07 0)
(8.96397e-09 -7.16185e-07 0)
(8.9357e-09 -7.17612e-07 0)
(8.90735e-09 -7.19038e-07 0)
(8.8789e-09 -7.20462e-07 0)
(8.85035e-09 -7.21886e-07 0)
(8.82172e-09 -7.23308e-07 0)
(8.79298e-09 -7.24728e-07 0)
(8.76416e-09 -7.26148e-07 0)
(8.73524e-09 -7.27566e-07 0)
(8.70623e-09 -7.28983e-07 0)
(8.67712e-09 -7.30398e-07 0)
(8.64792e-09 -7.31812e-07 0)
(8.61863e-09 -7.33225e-07 0)
(8.58925e-09 -7.34636e-07 0)
(8.55977e-09 -7.36045e-07 0)
(8.5302e-09 -7.37453e-07 0)
(8.50054e-09 -7.3886e-07 0)
(8.47079e-09 -7.40265e-07 0)
(8.44094e-09 -7.41668e-07 0)
(8.411e-09 -7.43069e-07 0)
(8.38097e-09 -7.44469e-07 0)
(8.35085e-09 -7.45867e-07 0)
(8.32063e-09 -7.47264e-07 0)
(8.29033e-09 -7.48658e-07 0)
(8.25993e-09 -7.50051e-07 0)
(8.22945e-09 -7.51442e-07 0)
(8.19887e-09 -7.52831e-07 0)
(8.1682e-09 -7.54218e-07 0)
(8.13745e-09 -7.55603e-07 0)
(8.1066e-09 -7.56986e-07 0)
(8.07566e-09 -7.58367e-07 0)
(8.04464e-09 -7.59746e-07 0)
(8.01352e-09 -7.61123e-07 0)
(7.98232e-09 -7.62498e-07 0)
(7.95102e-09 -7.63871e-07 0)
(7.91964e-09 -7.65242e-07 0)
(7.88817e-09 -7.6661e-07 0)
(7.85661e-09 -7.67976e-07 0)
(7.82497e-09 -7.6934e-07 0)
(7.79324e-09 -7.70702e-07 0)
(7.76142e-09 -7.72061e-07 0)
(7.72951e-09 -7.73418e-07 0)
(7.69752e-09 -7.74772e-07 0)
(7.66544e-09 -7.76124e-07 0)
(7.63327e-09 -7.77473e-07 0)
(7.60103e-09 -7.7882e-07 0)
(7.56869e-09 -7.80165e-07 0)
(7.53627e-09 -7.81507e-07 0)
(7.50377e-09 -7.82846e-07 0)
(7.47118e-09 -7.84182e-07 0)
(7.43851e-09 -7.85516e-07 0)
(7.40575e-09 -7.86848e-07 0)
(7.37292e-09 -7.88176e-07 0)
(7.34e-09 -7.89502e-07 0)
(7.307e-09 -7.90824e-07 0)
(7.27391e-09 -7.92144e-07 0)
(7.24075e-09 -7.93461e-07 0)
(7.2075e-09 -7.94775e-07 0)
(7.17418e-09 -7.96086e-07 0)
(7.14077e-09 -7.97395e-07 0)
(7.10729e-09 -7.987e-07 0)
(7.07373e-09 -8.00002e-07 0)
(7.04008e-09 -8.013e-07 0)
(7.00636e-09 -8.02596e-07 0)
(6.97257e-09 -8.03889e-07 0)
(6.93869e-09 -8.05178e-07 0)
(6.90474e-09 -8.06464e-07 0)
(6.87071e-09 -8.07747e-07 0)
(6.83661e-09 -8.09026e-07 0)
(6.80243e-09 -8.10302e-07 0)
(6.76818e-09 -8.11575e-07 0)
(6.73385e-09 -8.12844e-07 0)
(6.69945e-09 -8.14109e-07 0)
(6.66497e-09 -8.15372e-07 0)
(6.63043e-09 -8.1663e-07 0)
(6.59581e-09 -8.17885e-07 0)
(6.56112e-09 -8.19137e-07 0)
(6.52636e-09 -8.20384e-07 0)
(6.49153e-09 -8.21628e-07 0)
(6.45663e-09 -8.22868e-07 0)
(6.42166e-09 -8.24105e-07 0)
(6.38663e-09 -8.25337e-07 0)
(6.35152e-09 -8.26566e-07 0)
(6.31635e-09 -8.27791e-07 0)
(6.28111e-09 -8.29012e-07 0)
(6.24581e-09 -8.30229e-07 0)
(6.21044e-09 -8.31442e-07 0)
(6.17501e-09 -8.32651e-07 0)
(6.13951e-09 -8.33855e-07 0)
(6.10395e-09 -8.35056e-07 0)
(6.06833e-09 -8.36253e-07 0)
(6.03265e-09 -8.37445e-07 0)
(5.9969e-09 -8.38633e-07 0)
(5.96109e-09 -8.39817e-07 0)
(5.92523e-09 -8.40996e-07 0)
(5.88931e-09 -8.42171e-07 0)
(5.85332e-09 -8.43342e-07 0)
(5.81728e-09 -8.44508e-07 0)
(5.78119e-09 -8.4567e-07 0)
(5.74504e-09 -8.46827e-07 0)
(5.70883e-09 -8.4798e-07 0)
(5.67257e-09 -8.49128e-07 0)
(5.63625e-09 -8.50271e-07 0)
(5.59988e-09 -8.5141e-07 0)
(5.56346e-09 -8.52544e-07 0)
(5.52699e-09 -8.53673e-07 0)
(5.49047e-09 -8.54798e-07 0)
(5.4539e-09 -8.55917e-07 0)
(5.41728e-09 -8.57032e-07 0)
(5.38062e-09 -8.58142e-07 0)
(5.3439e-09 -8.59247e-07 0)
(5.30714e-09 -8.60347e-07 0)
(5.27034e-09 -8.61442e-07 0)
(5.23349e-09 -8.62531e-07 0)
(5.19659e-09 -8.63617e-07 0)
(5.15967e-09 -8.64695e-07 0)
(5.12263e-09 -8.65774e-07 0)
(5.08587e-09 -8.66833e-07 0)
(5.05043e-09 -8.67839e-07 0)
(5.01638e-09 -8.68799e-07 0)
(4.98282e-09 -8.69742e-07 0)
(4.94913e-09 -8.70689e-07 0)
(4.91516e-09 -8.71646e-07 0)
(4.88087e-09 -8.72608e-07 0)
(4.84626e-09 -8.73573e-07 0)
(4.81131e-09 -8.7454e-07 0)
(4.77604e-09 -8.7551e-07 0)
(4.74043e-09 -8.76485e-07 0)
(4.70448e-09 -8.77462e-07 0)
(4.6682e-09 -8.78442e-07 0)
(4.63157e-09 -8.79426e-07 0)
(4.5946e-09 -8.80412e-07 0)
(4.5573e-09 -8.81401e-07 0)
(4.51964e-09 -8.82392e-07 0)
(4.48164e-09 -8.83386e-07 0)
(4.4433e-09 -8.84382e-07 0)
(4.4046e-09 -8.8538e-07 0)
(4.36555e-09 -8.8638e-07 0)
(4.32616e-09 -8.87382e-07 0)
(4.2864e-09 -8.88386e-07 0)
(4.2463e-09 -8.89391e-07 0)
(4.20584e-09 -8.90398e-07 0)
(4.16503e-09 -8.91405e-07 0)
(4.12385e-09 -8.92414e-07 0)
(4.08232e-09 -8.93423e-07 0)
(4.04043e-09 -8.94433e-07 0)
(3.99819e-09 -8.95444e-07 0)
(3.95558e-09 -8.96454e-07 0)
(3.91261e-09 -8.97465e-07 0)
(3.86928e-09 -8.98475e-07 0)
(3.82559e-09 -8.99485e-07 0)
(3.78154e-09 -9.00494e-07 0)
(3.73713e-09 -9.01502e-07 0)
(3.69235e-09 -9.02509e-07 0)
(3.64722e-09 -9.03515e-07 0)
(3.60172e-09 -9.04519e-07 0)
(3.55586e-09 -9.05521e-07 0)
(3.50964e-09 -9.06521e-07 0)
(3.46307e-09 -9.07519e-07 0)
(3.41613e-09 -9.08514e-07 0)
(3.36884e-09 -9.09506e-07 0)
(3.32118e-09 -9.10495e-07 0)
(3.27318e-09 -9.1148e-07 0)
(3.22482e-09 -9.12461e-07 0)
(3.1761e-09 -9.13438e-07 0)
(3.12703e-09 -9.14411e-07 0)
(3.07762e-09 -9.15378e-07 0)
(3.02786e-09 -9.16341e-07 0)
(2.97775e-09 -9.17298e-07 0)
(2.92729e-09 -9.1825e-07 0)
(2.8765e-09 -9.19195e-07 0)
(2.82537e-09 -9.20133e-07 0)
(2.7739e-09 -9.21065e-07 0)
(2.72211e-09 -9.2199e-07 0)
(2.66998e-09 -9.22906e-07 0)
(2.61753e-09 -9.23815e-07 0)
(2.56475e-09 -9.24716e-07 0)
(2.51166e-09 -9.25607e-07 0)
(2.45826e-09 -9.26489e-07 0)
(2.40454e-09 -9.27362e-07 0)
(2.35053e-09 -9.28225e-07 0)
(2.29621e-09 -9.29077e-07 0)
(2.2416e-09 -9.29918e-07 0)
(2.18669e-09 -9.30747e-07 0)
(2.13151e-09 -9.31565e-07 0)
(2.07605e-09 -9.32371e-07 0)
(2.02031e-09 -9.33163e-07 0)
(1.96431e-09 -9.33943e-07 0)
(1.90806e-09 -9.34708e-07 0)
(1.85155e-09 -9.3546e-07 0)
(1.7948e-09 -9.36196e-07 0)
(1.73781e-09 -9.36918e-07 0)
(1.68059e-09 -9.37623e-07 0)
(1.62315e-09 -9.38312e-07 0)
(1.5655e-09 -9.38985e-07 0)
(1.50764e-09 -9.3964e-07 0)
(1.44959e-09 -9.40277e-07 0)
(1.39136e-09 -9.40896e-07 0)
(1.33295e-09 -9.41495e-07 0)
(1.27437e-09 -9.42075e-07 0)
(1.21564e-09 -9.42635e-07 0)
(1.15676e-09 -9.43174e-07 0)
(1.09776e-09 -9.43692e-07 0)
(1.03862e-09 -9.44188e-07 0)
(9.79383e-10 -9.44662e-07 0)
(9.20042e-10 -9.45112e-07 0)
(8.60616e-10 -9.45539e-07 0)
(8.01115e-10 -9.45942e-07 0)
(7.41554e-10 -9.46319e-07 0)
(6.81946e-10 -9.46671e-07 0)
(6.22304e-10 -9.46997e-07 0)
(5.62642e-10 -9.47296e-07 0)
(5.02975e-10 -9.47568e-07 0)
(4.43317e-10 -9.47812e-07 0)
(3.83684e-10 -9.48027e-07 0)
(3.24091e-10 -9.48213e-07 0)
(2.64553e-10 -9.48369e-07 0)
(2.05086e-10 -9.48495e-07 0)
(1.45707e-10 -9.48589e-07 0)
(8.64332e-11 -9.48651e-07 0)
(2.72804e-11 -9.48681e-07 0)
(-3.17336e-11 -9.48678e-07 0)
(-9.05912e-11 -9.48641e-07 0)
(-1.49275e-10 -9.4857e-07 0)
(-2.07766e-10 -9.48464e-07 0)
(-2.66046e-10 -9.48322e-07 0)
(-3.24096e-10 -9.48143e-07 0)
(-3.81898e-10 -9.47928e-07 0)
(-4.39432e-10 -9.47676e-07 0)
(-4.96678e-10 -9.47385e-07 0)
(-5.53617e-10 -9.47055e-07 0)
(-6.10229e-10 -9.46686e-07 0)
(-6.66494e-10 -9.46278e-07 0)
(-7.22391e-10 -9.45828e-07 0)
(-7.77899e-10 -9.45337e-07 0)
(-8.32999e-10 -9.44805e-07 0)
(-8.87669e-10 -9.44231e-07 0)
(-9.41887e-10 -9.43613e-07 0)
(-9.95634e-10 -9.42952e-07 0)
(-1.04889e-09 -9.42247e-07 0)
(-1.10163e-09 -9.41498e-07 0)
(-1.15383e-09 -9.40704e-07 0)
(-1.20547e-09 -9.39864e-07 0)
(-1.25654e-09 -9.38978e-07 0)
(-1.30701e-09 -9.38046e-07 0)
(-1.35685e-09 -9.37067e-07 0)
(-1.40605e-09 -9.3604e-07 0)
(-1.45459e-09 -9.34966e-07 0)
(-1.50244e-09 -9.33844e-07 0)
(-1.54958e-09 -9.32673e-07 0)
(-1.596e-09 -9.31453e-07 0)
(-1.64166e-09 -9.30184e-07 0)
(-1.68656e-09 -9.28865e-07 0)
(-1.73067e-09 -9.27496e-07 0)
(-1.77396e-09 -9.26078e-07 0)
(-1.81643e-09 -9.24608e-07 0)
(-1.85805e-09 -9.23088e-07 0)
(-1.8988e-09 -9.21518e-07 0)
(-1.93866e-09 -9.19896e-07 0)
(-1.97761e-09 -9.18223e-07 0)
(-2.01564e-09 -9.16498e-07 0)
(-2.05272e-09 -9.14722e-07 0)
(-2.08885e-09 -9.12895e-07 0)
(-2.124e-09 -9.11016e-07 0)
(-2.15815e-09 -9.09085e-07 0)
(-2.1913e-09 -9.07103e-07 0)
(-2.22342e-09 -9.05069e-07 0)
(-2.2545e-09 -9.02984e-07 0)
(-2.28453e-09 -9.00848e-07 0)
(-2.31349e-09 -8.9866e-07 0)
(-2.34137e-09 -8.96421e-07 0)
(-2.36816e-09 -8.94131e-07 0)
(-2.39385e-09 -8.91791e-07 0)
(-2.41842e-09 -8.894e-07 0)
(-2.44187e-09 -8.8696e-07 0)
(-2.46419e-09 -8.84469e-07 0)
(-2.48536e-09 -8.81929e-07 0)
(-2.50539e-09 -8.79341e-07 0)
(-2.52426e-09 -8.76704e-07 0)
(-2.54197e-09 -8.74019e-07 0)
(-2.55851e-09 -8.71286e-07 0)
(-2.57389e-09 -8.68506e-07 0)
(-2.58808e-09 -8.65681e-07 0)
(-2.6011e-09 -8.62809e-07 0)
(-2.61294e-09 -8.59892e-07 0)
(-2.62361e-09 -8.56932e-07 0)
(-2.63309e-09 -8.53927e-07 0)
(-2.64139e-09 -8.50879e-07 0)
(-2.64852e-09 -8.4779e-07 0)
(-2.65447e-09 -8.44659e-07 0)
(-2.65925e-09 -8.41488e-07 0)
(-2.66287e-09 -8.38277e-07 0)
(-2.66532e-09 -8.35028e-07 0)
(-2.66663e-09 -8.31741e-07 0)
(-2.66678e-09 -8.28418e-07 0)
(-2.6658e-09 -8.25059e-07 0)
(-2.66365e-09 -8.21664e-07 0)
(-2.66053e-09 -8.18236e-07 0)
(-2.65564e-09 -8.14748e-07 0)
(-2.64899e-09 -8.10893e-07 0)
(-2.6411e-09 -8.06656e-07 0)
(-2.63154e-09 -8.02362e-07 0)
(-2.62054e-09 -7.98094e-07 0)
(-2.60822e-09 -7.93866e-07 0)
(-2.5947e-09 -7.89663e-07 0)
(-2.58003e-09 -7.85477e-07 0)
(-2.56427e-09 -7.81314e-07 0)
(-2.5475e-09 -7.77178e-07 0)
(-2.52976e-09 -7.7307e-07 0)
(-2.51112e-09 -7.68993e-07 0)
(-2.49163e-09 -7.64945e-07 0)
(-2.47134e-09 -7.6093e-07 0)
(-2.45031e-09 -7.56949e-07 0)
(-2.42858e-09 -7.53002e-07 0)
(-2.4062e-09 -7.49091e-07 0)
(-2.3832e-09 -7.45217e-07 0)
(-2.35964e-09 -7.4138e-07 0)
(-2.33554e-09 -7.37582e-07 0)
(-2.31094e-09 -7.33824e-07 0)
(-2.28588e-09 -7.30105e-07 0)
(-2.26038e-09 -7.26428e-07 0)
(-2.23449e-09 -7.22792e-07 0)
(-2.20822e-09 -7.19198e-07 0)
(-2.1816e-09 -7.15648e-07 0)
(-2.15466e-09 -7.1214e-07 0)
(-2.12741e-09 -7.08677e-07 0)
(-2.09989e-09 -7.05257e-07 0)
(-2.07212e-09 -7.01883e-07 0)
(-2.0441e-09 -6.98553e-07 0)
(-2.01586e-09 -6.9527e-07 0)
(-1.98741e-09 -6.92032e-07 0)
(-1.95878e-09 -6.8884e-07 0)
(-1.92996e-09 -6.85694e-07 0)
(-1.90098e-09 -6.82596e-07 0)
(-1.87185e-09 -6.79544e-07 0)
(-1.84257e-09 -6.7654e-07 0)
(-1.81316e-09 -6.73583e-07 0)
(-1.78362e-09 -6.70674e-07 0)
(-1.75397e-09 -6.67813e-07 0)
(-1.72421e-09 -6.65e-07 0)
(-1.69434e-09 -6.62235e-07 0)
(-1.66438e-09 -6.59518e-07 0)
(-1.63432e-09 -6.5685e-07 0)
(-1.60418e-09 -6.54231e-07 0)
(-1.57395e-09 -6.5166e-07 0)
(-1.54364e-09 -6.49139e-07 0)
(-1.51326e-09 -6.46666e-07 0)
(-1.4828e-09 -6.44243e-07 0)
(-1.45226e-09 -6.41869e-07 0)
(-1.42166e-09 -6.39545e-07 0)
(-1.39098e-09 -6.3727e-07 0)
(-1.36024e-09 -6.35045e-07 0)
(-1.32943e-09 -6.32869e-07 0)
(-1.29855e-09 -6.30744e-07 0)
(-1.2676e-09 -6.28668e-07 0)
(-1.23659e-09 -6.26643e-07 0)
(-1.20551e-09 -6.24668e-07 0)
(-1.17437e-09 -6.22743e-07 0)
(-1.14316e-09 -6.20868e-07 0)
(-1.11189e-09 -6.19044e-07 0)
(-1.08055e-09 -6.17271e-07 0)
(-1.04915e-09 -6.15549e-07 0)
(-1.01768e-09 -6.13877e-07 0)
(-9.86139e-10 -6.12256e-07 0)
(-9.54538e-10 -6.10687e-07 0)
(-9.22871e-10 -6.09168e-07 0)
(-8.9114e-10 -6.07701e-07 0)
(-8.59344e-10 -6.06285e-07 0)
(-8.27483e-10 -6.04921e-07 0)
(-7.9556e-10 -6.03608e-07 0)
(-7.63573e-10 -6.02347e-07 0)
(-7.31524e-10 -6.01138e-07 0)
(-6.99415e-10 -5.9998e-07 0)
(-6.67246e-10 -5.98875e-07 0)
(-6.35018e-10 -5.97822e-07 0)
(-6.02734e-10 -5.96821e-07 0)
(-5.70395e-10 -5.95872e-07 0)
(-5.38002e-10 -5.94975e-07 0)
(-5.05558e-10 -5.94131e-07 0)
(-4.73065e-10 -5.9334e-07 0)
(-4.40526e-10 -5.92601e-07 0)
(-4.07942e-10 -5.91914e-07 0)
(-3.75317e-10 -5.91281e-07 0)
(-3.42653e-10 -5.90699e-07 0)
(-3.09954e-10 -5.90175e-07 0)
(-2.77219e-10 -5.89688e-07 0)
(-2.44461e-10 -5.89307e-07 0)
(-2.11654e-10 -5.88801e-07 0)
(-1.78891e-10 -5.88932e-07 0)
(-1.45879e-10 -5.8714e-07 0)
(-1.13622e-10 -5.91706e-07 0)
(-7.88405e-11 -5.73845e-07 0)
(-5.30958e-11 -6.20861e-07 0)
(-2.32741e-11 -5.42219e-07 0)
)
;
    }
    bottomWall
    {
        type            calculated;
        value           nonuniform List<vector> 
449
(
(-48.5616 -0.964513 0)
(-19.7622 -0.0051586 0)
(-14.3513 -0.00113552 0)
(-12.0401 -0.000545866 0)
(-10.633 -0.000351751 0)
(-9.63851 -0.000256183 0)
(-8.87988 -0.000198633 0)
(-8.27592 -0.000159935 0)
(-7.78012 -0.000132425 0)
(-7.36317 -0.000112062 0)
(-7.0059 -9.64499e-05 0)
(-6.69524 -8.41336e-05 0)
(-6.42188 -7.42081e-05 0)
(-6.17891 -6.60742e-05 0)
(-5.96106 -5.9312e-05 0)
(-5.76427 -5.36181e-05 0)
(-5.58533 -4.877e-05 0)
(-5.42171 -4.46018e-05 0)
(-5.27131 -4.09874e-05 0)
(-5.13245 -3.78292e-05 0)
(-5.00372 -3.50507e-05 0)
(-4.88393 -3.25909e-05 0)
(-4.77208 -3.0401e-05 0)
(-4.66735 -2.84414e-05 0)
(-4.56899 -2.66796e-05 0)
(-4.47638 -2.50888e-05 0)
(-4.38899 -2.36468e-05 0)
(-4.30632 -2.23348e-05 0)
(-4.22798 -2.11369e-05 0)
(-4.1536 -2.00399e-05 0)
(-4.08284 -1.90322e-05 0)
(-4.01543 -1.81041e-05 0)
(-3.9511 -1.7247e-05 0)
(-3.88963 -1.64535e-05 0)
(-3.8308 -1.57174e-05 0)
(-3.77444 -1.50329e-05 0)
(-3.72038 -1.43951e-05 0)
(-3.66845 -1.37998e-05 0)
(-3.61853 -1.32431e-05 0)
(-3.57048 -1.27215e-05 0)
(-3.52419 -1.22321e-05 0)
(-3.47956 -1.17722e-05 0)
(-3.43648 -1.13393e-05 0)
(-3.39488 -1.09314e-05 0)
(-3.35466 -1.05464e-05 0)
(-3.31575 -1.01825e-05 0)
(-3.27807 -9.83829e-06 0)
(-3.24158 -9.51221e-06 0)
(-3.2062 -9.20299e-06 0)
(-3.17187 -8.90944e-06 0)
(-3.13855 -8.63048e-06 0)
(-3.10619 -8.36511e-06 0)
(-3.07474 -8.11244e-06 0)
(-3.04416 -7.87164e-06 0)
(-3.01441 -7.64194e-06 0)
(-2.98546 -7.42265e-06 0)
(-2.95726 -7.21312e-06 0)
(-2.92978 -7.01276e-06 0)
(-2.903 -6.82103e-06 0)
(-2.87689 -6.63741e-06 0)
(-2.85141 -6.46144e-06 0)
(-2.82654 -6.29268e-06 0)
(-2.80226 -6.13073e-06 0)
(-2.77855 -5.97522e-06 0)
(-2.75538 -5.82579e-06 0)
(-2.73273 -5.68213e-06 0)
(-2.71058 -5.54392e-06 0)
(-2.68892 -5.41088e-06 0)
(-2.66772 -5.28275e-06 0)
(-2.64698 -5.15929e-06 0)
(-2.62666 -5.04026e-06 0)
(-2.60677 -4.92544e-06 0)
(-2.58728 -4.81463e-06 0)
(-2.56818 -4.70764e-06 0)
(-2.54946 -4.60429e-06 0)
(-2.5311 -4.50441e-06 0)
(-2.5131 -4.40785e-06 0)
(-2.49544 -4.31444e-06 0)
(-2.47811 -4.22405e-06 0)
(-2.4611 -4.13656e-06 0)
(-2.44441 -4.05182e-06 0)
(-2.42801 -3.96972e-06 0)
(-2.41191 -3.89016e-06 0)
(-2.39609 -3.81302e-06 0)
(-2.38054 -3.7382e-06 0)
(-2.36527 -3.66561e-06 0)
(-2.35025 -3.59516e-06 0)
(-2.33549 -3.52676e-06 0)
(-2.32097 -3.46033e-06 0)
(-2.30669 -3.39579e-06 0)
(-2.29264 -3.33307e-06 0)
(-2.27882 -3.2721e-06 0)
(-2.26521 -3.21282e-06 0)
(-2.25183 -3.15515e-06 0)
(-2.23864 -3.09904e-06 0)
(-2.22567 -3.04443e-06 0)
(-2.21289 -2.99128e-06 0)
(-2.2003 -2.93951e-06 0)
(-2.1879 -2.88909e-06 0)
(-2.17568 -2.83997e-06 0)
(-2.16364 -2.7921e-06 0)
(-2.15178 -2.74544e-06 0)
(-2.14008 -2.69995e-06 0)
(-2.12855 -2.65558e-06 0)
(-2.11718 -2.61231e-06 0)
(-2.10598 -2.57009e-06 0)
(-2.09492 -2.52888e-06 0)
(-2.08402 -2.48866e-06 0)
(-2.07326 -2.44939e-06 0)
(-2.06265 -2.41105e-06 0)
(-2.05218 -2.3736e-06 0)
(-2.04184 -2.33701e-06 0)
(-2.03164 -2.30126e-06 0)
(-2.02158 -2.26632e-06 0)
(-2.01164 -2.23217e-06 0)
(-2.00183 -2.19878e-06 0)
(-1.99214 -2.16613e-06 0)
(-1.98257 -2.13419e-06 0)
(-1.97312 -2.10296e-06 0)
(-1.96379 -2.07239e-06 0)
(-1.95457 -2.04249e-06 0)
(-1.94546 -2.01321e-06 0)
(-1.93646 -1.98456e-06 0)
(-1.92756 -1.95651e-06 0)
(-1.91877 -1.92904e-06 0)
(-1.91009 -1.90214e-06 0)
(-1.9015 -1.87578e-06 0)
(-1.89301 -1.84997e-06 0)
(-1.88462 -1.82467e-06 0)
(-1.87633 -1.79988e-06 0)
(-1.86813 -1.77559e-06 0)
(-1.86001 -1.75177e-06 0)
(-1.85199 -1.72842e-06 0)
(-1.84406 -1.70553e-06 0)
(-1.83621 -1.68308e-06 0)
(-1.82845 -1.66106e-06 0)
(-1.82077 -1.63945e-06 0)
(-1.81317 -1.61826e-06 0)
(-1.80565 -1.59747e-06 0)
(-1.79821 -1.57706e-06 0)
(-1.79085 -1.55704e-06 0)
(-1.78357 -1.53738e-06 0)
(-1.77636 -1.51808e-06 0)
(-1.76922 -1.49914e-06 0)
(-1.76215 -1.48053e-06 0)
(-1.75516 -1.46226e-06 0)
(-1.74824 -1.44432e-06 0)
(-1.74138 -1.42669e-06 0)
(-1.73459 -1.40938e-06 0)
(-1.72787 -1.39236e-06 0)
(-1.72121 -1.37565e-06 0)
(-1.71462 -1.35922e-06 0)
(-1.70809 -1.34308e-06 0)
(-1.70163 -1.32721e-06 0)
(-1.69522 -1.31161e-06 0)
(-1.68887 -1.29627e-06 0)
(-1.68259 -1.28119e-06 0)
(-1.67636 -1.26636e-06 0)
(-1.67019 -1.25178e-06 0)
(-1.66407 -1.23744e-06 0)
(-1.65802 -1.22334e-06 0)
(-1.65201 -1.20946e-06 0)
(-1.64606 -1.19581e-06 0)
(-1.64016 -1.18238e-06 0)
(-1.63432 -1.16916e-06 0)
(-1.62853 -1.15616e-06 0)
(-1.62278 -1.14336e-06 0)
(-1.61709 -1.13077e-06 0)
(-1.61145 -1.11839e-06 0)
(-1.60585 -1.10608e-06 0)
(-1.60031 -1.09438e-06 0)
(-1.59481 -1.08229e-06 0)
(-1.58936 -1.06928e-06 0)
(-1.58426 -1.0592e-06 0)
(-1.57947 -1.05091e-06 0)
(-1.57467 -1.04049e-06 0)
(-1.56986 -1.02979e-06 0)
(-1.56506 -1.01978e-06 0)
(-1.56025 -1.00976e-06 0)
(-1.55543 -9.99864e-07 0)
(-1.55061 -9.90036e-07 0)
(-1.54578 -9.80278e-07 0)
(-1.54095 -9.70584e-07 0)
(-1.53612 -9.6095e-07 0)
(-1.53128 -9.51376e-07 0)
(-1.52644 -9.41861e-07 0)
(-1.5216 -9.32403e-07 0)
(-1.51675 -9.23002e-07 0)
(-1.5119 -9.13658e-07 0)
(-1.50704 -9.04371e-07 0)
(-1.50219 -8.95141e-07 0)
(-1.49733 -8.85969e-07 0)
(-1.49247 -8.76853e-07 0)
(-1.4876 -8.67795e-07 0)
(-1.48274 -8.58795e-07 0)
(-1.47787 -8.49852e-07 0)
(-1.473 -8.40968e-07 0)
(-1.46813 -8.32142e-07 0)
(-1.46326 -8.23373e-07 0)
(-1.45838 -8.14664e-07 0)
(-1.45351 -8.06013e-07 0)
(-1.44863 -7.9742e-07 0)
(-1.44376 -7.88887e-07 0)
(-1.43889 -7.80413e-07 0)
(-1.43401 -7.71998e-07 0)
(-1.42914 -7.63642e-07 0)
(-1.42426 -7.55346e-07 0)
(-1.41939 -7.47109e-07 0)
(-1.41452 -7.38932e-07 0)
(-1.40965 -7.30815e-07 0)
(-1.40478 -7.22757e-07 0)
(-1.39991 -7.14759e-07 0)
(-1.39504 -7.06822e-07 0)
(-1.39018 -6.98944e-07 0)
(-1.38531 -6.91126e-07 0)
(-1.38045 -6.83369e-07 0)
(-1.37559 -6.75671e-07 0)
(-1.37074 -6.68034e-07 0)
(-1.36588 -6.60457e-07 0)
(-1.36103 -6.5294e-07 0)
(-1.35619 -6.45483e-07 0)
(-1.35134 -6.38086e-07 0)
(-1.3465 -6.3075e-07 0)
(-1.34167 -6.23473e-07 0)
(-1.33684 -6.16257e-07 0)
(-1.33201 -6.091e-07 0)
(-1.32718 -6.02003e-07 0)
(-1.32236 -5.94966e-07 0)
(-1.31755 -5.87989e-07 0)
(-1.31274 -5.81072e-07 0)
(-1.30794 -5.74214e-07 0)
(-1.30314 -5.67416e-07 0)
(-1.29834 -5.60677e-07 0)
(-1.29355 -5.53997e-07 0)
(-1.28877 -5.47377e-07 0)
(-1.28399 -5.40815e-07 0)
(-1.27922 -5.34313e-07 0)
(-1.27446 -5.27869e-07 0)
(-1.2697 -5.21483e-07 0)
(-1.26495 -5.15156e-07 0)
(-1.2602 -5.08888e-07 0)
(-1.25547 -5.02677e-07 0)
(-1.25073 -4.96524e-07 0)
(-1.24601 -4.90429e-07 0)
(-1.24129 -4.84392e-07 0)
(-1.23659 -4.78411e-07 0)
(-1.23188 -4.72488e-07 0)
(-1.22719 -4.66622e-07 0)
(-1.22251 -4.60812e-07 0)
(-1.21783 -4.55059e-07 0)
(-1.21316 -4.49362e-07 0)
(-1.2085 -4.43721e-07 0)
(-1.20385 -4.38136e-07 0)
(-1.1992 -4.32606e-07 0)
(-1.19457 -4.27132e-07 0)
(-1.18994 -4.21712e-07 0)
(-1.18533 -4.16347e-07 0)
(-1.18072 -4.11037e-07 0)
(-1.17612 -4.05781e-07 0)
(-1.17153 -4.00578e-07 0)
(-1.16696 -3.9543e-07 0)
(-1.16239 -3.90334e-07 0)
(-1.15783 -3.85292e-07 0)
(-1.15328 -3.80303e-07 0)
(-1.14874 -3.75366e-07 0)
(-1.14421 -3.70481e-07 0)
(-1.1397 -3.65648e-07 0)
(-1.13519 -3.60866e-07 0)
(-1.13069 -3.56136e-07 0)
(-1.12621 -3.51457e-07 0)
(-1.12173 -3.46828e-07 0)
(-1.11727 -3.4225e-07 0)
(-1.11282 -3.37722e-07 0)
(-1.10838 -3.33243e-07 0)
(-1.10395 -3.28813e-07 0)
(-1.09953 -3.24433e-07 0)
(-1.09512 -3.20101e-07 0)
(-1.09073 -3.15818e-07 0)
(-1.08634 -3.11582e-07 0)
(-1.08197 -3.07395e-07 0)
(-1.07761 -3.03254e-07 0)
(-1.07326 -2.99161e-07 0)
(-1.06893 -2.95114e-07 0)
(-1.0646 -2.91113e-07 0)
(-1.06029 -2.87159e-07 0)
(-1.056 -2.8325e-07 0)
(-1.05171 -2.79386e-07 0)
(-1.04744 -2.75567e-07 0)
(-1.04318 -2.71793e-07 0)
(-1.03893 -2.68062e-07 0)
(-1.03469 -2.64376e-07 0)
(-1.03047 -2.60733e-07 0)
(-1.02626 -2.57133e-07 0)
(-1.02207 -2.53576e-07 0)
(-1.01788 -2.50062e-07 0)
(-1.01371 -2.46589e-07 0)
(-1.00956 -2.43158e-07 0)
(-1.00541 -2.39769e-07 0)
(-1.00128 -2.3642e-07 0)
(-0.997167 -2.33113e-07 0)
(-0.993064 -2.29845e-07 0)
(-0.988975 -2.26617e-07 0)
(-0.984899 -2.23429e-07 0)
(-0.980838 -2.2028e-07 0)
(-0.97679 -2.1717e-07 0)
(-0.972756 -2.14099e-07 0)
(-0.968736 -2.11065e-07 0)
(-0.964729 -2.08069e-07 0)
(-0.960737 -2.05111e-07 0)
(-0.956759 -2.0219e-07 0)
(-0.952795 -1.99306e-07 0)
(-0.948845 -1.96457e-07 0)
(-0.944909 -1.93645e-07 0)
(-0.940988 -1.90869e-07 0)
(-0.93708 -1.88128e-07 0)
(-0.933188 -1.85422e-07 0)
(-0.929309 -1.8275e-07 0)
(-0.925445 -1.80113e-07 0)
(-0.921595 -1.7751e-07 0)
(-0.91776 -1.7494e-07 0)
(-0.913939 -1.72404e-07 0)
(-0.910133 -1.699e-07 0)
(-0.906341 -1.6743e-07 0)
(-0.902564 -1.64991e-07 0)
(-0.898801 -1.62584e-07 0)
(-0.895053 -1.60209e-07 0)
(-0.89132 -1.57865e-07 0)
(-0.887602 -1.55552e-07 0)
(-0.883898 -1.5327e-07 0)
(-0.880209 -1.51017e-07 0)
(-0.876534 -1.48795e-07 0)
(-0.872875 -1.46602e-07 0)
(-0.86923 -1.44439e-07 0)
(-0.8656 -1.42305e-07 0)
(-0.861985 -1.40199e-07 0)
(-0.858385 -1.38121e-07 0)
(-0.854799 -1.36072e-07 0)
(-0.851229 -1.3405e-07 0)
(-0.847673 -1.32056e-07 0)
(-0.844132 -1.30089e-07 0)
(-0.840606 -1.28148e-07 0)
(-0.837095 -1.26234e-07 0)
(-0.833599 -1.24347e-07 0)
(-0.830118 -1.22485e-07 0)
(-0.826651 -1.20649e-07 0)
(-0.8232 -1.18838e-07 0)
(-0.819763 -1.17052e-07 0)
(-0.816342 -1.15291e-07 0)
(-0.812935 -1.13554e-07 0)
(-0.809543 -1.11844e-07 0)
(-0.806166 -1.10154e-07 0)
(-0.802804 -1.08466e-07 0)
(-0.799458 -1.06895e-07 0)
(-0.796121 -1.05333e-07 0)
(-0.792428 -1.03472e-07 0)
(-0.788424 -1.01512e-07 0)
(-0.784493 -9.97381e-08 0)
(-0.780627 -9.80326e-08 0)
(-0.77683 -9.63058e-08 0)
(-0.773099 -9.46084e-08 0)
(-0.769435 -9.29527e-08 0)
(-0.765834 -9.13411e-08 0)
(-0.762295 -8.97727e-08 0)
(-0.758816 -8.82466e-08 0)
(-0.755397 -8.67616e-08 0)
(-0.752035 -8.53166e-08 0)
(-0.748728 -8.39102e-08 0)
(-0.745476 -8.2541e-08 0)
(-0.742277 -8.12078e-08 0)
(-0.739129 -7.99092e-08 0)
(-0.736031 -7.8644e-08 0)
(-0.732982 -7.7411e-08 0)
(-0.72998 -7.62091e-08 0)
(-0.727025 -7.50373e-08 0)
(-0.724115 -7.38945e-08 0)
(-0.721249 -7.27797e-08 0)
(-0.718427 -7.16919e-08 0)
(-0.715646 -7.06304e-08 0)
(-0.712906 -6.95941e-08 0)
(-0.710207 -6.85823e-08 0)
(-0.707546 -6.75942e-08 0)
(-0.704924 -6.6629e-08 0)
(-0.702339 -6.5686e-08 0)
(-0.69979 -6.47645e-08 0)
(-0.697277 -6.38639e-08 0)
(-0.694799 -6.29834e-08 0)
(-0.692354 -6.21224e-08 0)
(-0.689943 -6.12805e-08 0)
(-0.687565 -6.04569e-08 0)
(-0.685219 -5.96511e-08 0)
(-0.682903 -5.88627e-08 0)
(-0.680618 -5.80911e-08 0)
(-0.678363 -5.73358e-08 0)
(-0.676137 -5.65963e-08 0)
(-0.67394 -5.58723e-08 0)
(-0.671771 -5.51632e-08 0)
(-0.669629 -5.44686e-08 0)
(-0.667514 -5.37882e-08 0)
(-0.665425 -5.31215e-08 0)
(-0.663363 -5.24682e-08 0)
(-0.661325 -5.18278e-08 0)
(-0.659312 -5.12002e-08 0)
(-0.657324 -5.05848e-08 0)
(-0.655359 -4.99815e-08 0)
(-0.653418 -4.93898e-08 0)
(-0.651499 -4.88095e-08 0)
(-0.649604 -4.82403e-08 0)
(-0.64773 -4.76819e-08 0)
(-0.645877 -4.71341e-08 0)
(-0.644046 -4.65965e-08 0)
(-0.642236 -4.6069e-08 0)
(-0.640446 -4.55512e-08 0)
(-0.638676 -4.5043e-08 0)
(-0.636926 -4.45441e-08 0)
(-0.635196 -4.40544e-08 0)
(-0.633484 -4.35735e-08 0)
(-0.631791 -4.31014e-08 0)
(-0.630116 -4.26378e-08 0)
(-0.628459 -4.21826e-08 0)
(-0.626819 -4.17355e-08 0)
(-0.625197 -4.12965e-08 0)
(-0.623592 -4.08653e-08 0)
(-0.622004 -4.04419e-08 0)
(-0.620432 -4.00261e-08 0)
(-0.618877 -3.96179e-08 0)
(-0.617337 -3.9217e-08 0)
(-0.615812 -3.88236e-08 0)
(-0.614303 -3.84374e-08 0)
(-0.612809 -3.80586e-08 0)
(-0.611329 -3.7687e-08 0)
(-0.609864 -3.73229e-08 0)
(-0.608413 -3.69664e-08 0)
(-0.606975 -3.66176e-08 0)
(-0.605551 -3.62769e-08 0)
(-0.604141 -3.59449e-08 0)
(-0.602743 -3.56224e-08 0)
(-0.601357 -3.53105e-08 0)
(-0.599984 -3.50108e-08 0)
(-0.598622 -3.47256e-08 0)
(-0.597271 -3.44645e-08 0)
(-0.595929 -3.4212e-08 0)
(-0.594597 -3.40033e-08 0)
(-0.593272 -3.40026e-08 0)
(-0.591941 -3.3552e-08 0)
(-0.590651 -3.27162e-08 0)
(-0.589384 -4.31515e-08 0)
(-0.587279 -1.17226e-08 0)
(-0.588479 -3.17164e-08 0)
(-0.58476 -4.84845e-08 0)
)
;
    }
    symmetry
    {
        type            symmetryPlane;
    }
    frontAndBack
    {
        type            empty;
    }
}


// ************************************************************************* //
