/*--------------------------------*- C++ -*----------------------------------*\
| =========                 |                                                 |
| \\      /  F ield         | OpenFOAM: The Open Source CFD Toolbox           |
|  \\    /   O peration     | Version:  v2012                                 |
|   \\  /    A nd           | Website:  www.openfoam.com                      |
|    \\/     M anipulation  |                                                 |
\*---------------------------------------------------------------------------*/
FoamFile
{
    version     2.0;
    format      ascii;
    class       volVectorField;
    location    "18.5";
    object      wallShearStress;
}
// * * * * * * * * * * * * * * * * * * * * * * * * * * * * * * * * * * * * * //

dimensions      [0 2 -2 0 0 0 0];


internalField   uniform (0 0 0);

boundaryField
{
    inlet
    {
        type            calculated;
        value           uniform (0 0 0);
    }
    outlet
    {
        type            calculated;
        value           uniform (0 0 0);
    }
    topWall
    {
        type            calculated;
        value           nonuniform List<vector> 
545
(
(1.44936e-08 -1.02004e-08 0)
(1.44881e-08 -2.85445e-08 0)
(1.44711e-08 -4.76115e-08 0)
(1.44497e-08 -6.61179e-08 0)
(1.44232e-08 -8.38227e-08 0)
(1.43917e-08 -1.00951e-07 0)
(1.43555e-08 -1.17648e-07 0)
(1.43151e-08 -1.33905e-07 0)
(1.42706e-08 -1.49683e-07 0)
(1.42227e-08 -1.64983e-07 0)
(1.41715e-08 -1.79823e-07 0)
(1.41176e-08 -1.94221e-07 0)
(1.40611e-08 -2.08186e-07 0)
(1.40023e-08 -2.21728e-07 0)
(1.39416e-08 -2.34856e-07 0)
(1.38792e-08 -2.47581e-07 0)
(1.38153e-08 -2.59914e-07 0)
(1.37501e-08 -2.71866e-07 0)
(1.36839e-08 -2.83448e-07 0)
(1.36168e-08 -2.94669e-07 0)
(1.35491e-08 -3.0554e-07 0)
(1.34808e-08 -3.16072e-07 0)
(1.34122e-08 -3.26274e-07 0)
(1.33433e-08 -3.36156e-07 0)
(1.32744e-08 -3.45729e-07 0)
(1.32054e-08 -3.55e-07 0)
(1.31366e-08 -3.6398e-07 0)
(1.3068e-08 -3.72678e-07 0)
(1.29997e-08 -3.81102e-07 0)
(1.29318e-08 -3.89261e-07 0)
(1.28644e-08 -3.97163e-07 0)
(1.27975e-08 -4.04817e-07 0)
(1.27312e-08 -4.1223e-07 0)
(1.26655e-08 -4.19411e-07 0)
(1.26005e-08 -4.26366e-07 0)
(1.25363e-08 -4.33104e-07 0)
(1.24729e-08 -4.3963e-07 0)
(1.24103e-08 -4.45952e-07 0)
(1.23485e-08 -4.52077e-07 0)
(1.22876e-08 -4.58011e-07 0)
(1.22276e-08 -4.6376e-07 0)
(1.21685e-08 -4.6933e-07 0)
(1.21104e-08 -4.74727e-07 0)
(1.20532e-08 -4.79957e-07 0)
(1.19969e-08 -4.85025e-07 0)
(1.19416e-08 -4.89937e-07 0)
(1.18872e-08 -4.94697e-07 0)
(1.18339e-08 -4.99311e-07 0)
(1.17815e-08 -5.03783e-07 0)
(1.173e-08 -5.08117e-07 0)
(1.16795e-08 -5.1232e-07 0)
(1.163e-08 -5.16394e-07 0)
(1.15815e-08 -5.20344e-07 0)
(1.15339e-08 -5.24174e-07 0)
(1.14872e-08 -5.27887e-07 0)
(1.14415e-08 -5.31489e-07 0)
(1.13967e-08 -5.34981e-07 0)
(1.13529e-08 -5.38368e-07 0)
(1.13099e-08 -5.41653e-07 0)
(1.12679e-08 -5.4484e-07 0)
(1.12267e-08 -5.47931e-07 0)
(1.11864e-08 -5.5093e-07 0)
(1.1147e-08 -5.53839e-07 0)
(1.11084e-08 -5.56662e-07 0)
(1.10706e-08 -5.59401e-07 0)
(1.10337e-08 -5.62059e-07 0)
(1.09976e-08 -5.64638e-07 0)
(1.09622e-08 -5.6714e-07 0)
(1.09277e-08 -5.6957e-07 0)
(1.08939e-08 -5.71927e-07 0)
(1.08609e-08 -5.74217e-07 0)
(1.08285e-08 -5.76434e-07 0)
(1.07971e-08 -5.78565e-07 0)
(1.07669e-08 -5.80634e-07 0)
(1.0737e-08 -5.82673e-07 0)
(1.07071e-08 -5.84701e-07 0)
(1.06774e-08 -5.86717e-07 0)
(1.06477e-08 -5.88719e-07 0)
(1.06181e-08 -5.90706e-07 0)
(1.05886e-08 -5.92677e-07 0)
(1.0559e-08 -5.94634e-07 0)
(1.05296e-08 -5.96577e-07 0)
(1.05002e-08 -5.98506e-07 0)
(1.04709e-08 -6.0042e-07 0)
(1.04416e-08 -6.0232e-07 0)
(1.04124e-08 -6.04207e-07 0)
(1.03833e-08 -6.06079e-07 0)
(1.03542e-08 -6.07938e-07 0)
(1.03252e-08 -6.09783e-07 0)
(1.02963e-08 -6.11614e-07 0)
(1.02674e-08 -6.13432e-07 0)
(1.02386e-08 -6.15237e-07 0)
(1.02099e-08 -6.17029e-07 0)
(1.01811e-08 -6.18804e-07 0)
(1.01529e-08 -6.20581e-07 0)
(1.01228e-08 -6.22305e-07 0)
(1.00938e-08 -6.23886e-07 0)
(1.00693e-08 -6.2534e-07 0)
(1.00458e-08 -6.26735e-07 0)
(1.00225e-08 -6.28132e-07 0)
(9.99916e-09 -6.29544e-07 0)
(9.97574e-09 -6.30961e-07 0)
(9.95223e-09 -6.32375e-07 0)
(9.92864e-09 -6.33786e-07 0)
(9.90495e-09 -6.35197e-07 0)
(9.88117e-09 -6.36609e-07 0)
(9.8573e-09 -6.38021e-07 0)
(9.83333e-09 -6.39433e-07 0)
(9.80927e-09 -6.40844e-07 0)
(9.78512e-09 -6.42256e-07 0)
(9.76088e-09 -6.43667e-07 0)
(9.73654e-09 -6.45078e-07 0)
(9.71212e-09 -6.46489e-07 0)
(9.68759e-09 -6.479e-07 0)
(9.66298e-09 -6.49311e-07 0)
(9.63827e-09 -6.50721e-07 0)
(9.61347e-09 -6.52131e-07 0)
(9.58858e-09 -6.5354e-07 0)
(9.56359e-09 -6.54949e-07 0)
(9.53851e-09 -6.56358e-07 0)
(9.51333e-09 -6.57767e-07 0)
(9.48806e-09 -6.59175e-07 0)
(9.4627e-09 -6.60582e-07 0)
(9.43725e-09 -6.61989e-07 0)
(9.4117e-09 -6.63396e-07 0)
(9.38606e-09 -6.64802e-07 0)
(9.36032e-09 -6.66208e-07 0)
(9.33449e-09 -6.67613e-07 0)
(9.30857e-09 -6.69017e-07 0)
(9.28255e-09 -6.70421e-07 0)
(9.25644e-09 -6.71824e-07 0)
(9.23023e-09 -6.73227e-07 0)
(9.20393e-09 -6.74629e-07 0)
(9.17754e-09 -6.7603e-07 0)
(9.15105e-09 -6.7743e-07 0)
(9.12447e-09 -6.7883e-07 0)
(9.0978e-09 -6.80229e-07 0)
(9.07103e-09 -6.81627e-07 0)
(9.04417e-09 -6.83024e-07 0)
(9.01722e-09 -6.8442e-07 0)
(8.99017e-09 -6.85816e-07 0)
(8.96302e-09 -6.8721e-07 0)
(8.93579e-09 -6.88604e-07 0)
(8.90846e-09 -6.89996e-07 0)
(8.88103e-09 -6.91388e-07 0)
(8.85352e-09 -6.92779e-07 0)
(8.82591e-09 -6.94168e-07 0)
(8.7982e-09 -6.95557e-07 0)
(8.7704e-09 -6.96944e-07 0)
(8.74251e-09 -6.9833e-07 0)
(8.71453e-09 -6.99715e-07 0)
(8.68645e-09 -7.01099e-07 0)
(8.65828e-09 -7.02482e-07 0)
(8.63002e-09 -7.03863e-07 0)
(8.60166e-09 -7.05243e-07 0)
(8.57321e-09 -7.06622e-07 0)
(8.54467e-09 -7.08e-07 0)
(8.51604e-09 -7.09376e-07 0)
(8.48731e-09 -7.1075e-07 0)
(8.45849e-09 -7.12124e-07 0)
(8.42958e-09 -7.13495e-07 0)
(8.40058e-09 -7.14866e-07 0)
(8.37148e-09 -7.16235e-07 0)
(8.34229e-09 -7.17602e-07 0)
(8.31301e-09 -7.18968e-07 0)
(8.28364e-09 -7.20332e-07 0)
(8.25418e-09 -7.21694e-07 0)
(8.22463e-09 -7.23055e-07 0)
(8.19498e-09 -7.24414e-07 0)
(8.16525e-09 -7.25772e-07 0)
(8.13542e-09 -7.27127e-07 0)
(8.10551e-09 -7.28481e-07 0)
(8.0755e-09 -7.29833e-07 0)
(8.0454e-09 -7.31184e-07 0)
(8.01521e-09 -7.32532e-07 0)
(7.98494e-09 -7.33878e-07 0)
(7.95457e-09 -7.35223e-07 0)
(7.92412e-09 -7.36565e-07 0)
(7.89357e-09 -7.37906e-07 0)
(7.86294e-09 -7.39244e-07 0)
(7.83222e-09 -7.40581e-07 0)
(7.8014e-09 -7.41915e-07 0)
(7.77051e-09 -7.43247e-07 0)
(7.73952e-09 -7.44577e-07 0)
(7.70845e-09 -7.45905e-07 0)
(7.67728e-09 -7.47231e-07 0)
(7.64604e-09 -7.48554e-07 0)
(7.6147e-09 -7.49875e-07 0)
(7.58328e-09 -7.51194e-07 0)
(7.55177e-09 -7.5251e-07 0)
(7.52018e-09 -7.53824e-07 0)
(7.4885e-09 -7.55135e-07 0)
(7.45673e-09 -7.56445e-07 0)
(7.42488e-09 -7.57751e-07 0)
(7.39295e-09 -7.59055e-07 0)
(7.36093e-09 -7.60356e-07 0)
(7.32883e-09 -7.61655e-07 0)
(7.29664e-09 -7.62951e-07 0)
(7.26437e-09 -7.64245e-07 0)
(7.23202e-09 -7.65536e-07 0)
(7.19959e-09 -7.66824e-07 0)
(7.16707e-09 -7.68109e-07 0)
(7.13447e-09 -7.69392e-07 0)
(7.10179e-09 -7.70671e-07 0)
(7.06903e-09 -7.71948e-07 0)
(7.03619e-09 -7.73222e-07 0)
(7.00327e-09 -7.74493e-07 0)
(6.97027e-09 -7.75761e-07 0)
(6.93719e-09 -7.77026e-07 0)
(6.90403e-09 -7.78287e-07 0)
(6.8708e-09 -7.79546e-07 0)
(6.83748e-09 -7.80802e-07 0)
(6.80409e-09 -7.82054e-07 0)
(6.77062e-09 -7.83303e-07 0)
(6.73707e-09 -7.84549e-07 0)
(6.70345e-09 -7.85792e-07 0)
(6.66976e-09 -7.87032e-07 0)
(6.63598e-09 -7.88268e-07 0)
(6.60214e-09 -7.895e-07 0)
(6.56822e-09 -7.9073e-07 0)
(6.53422e-09 -7.91955e-07 0)
(6.50016e-09 -7.93178e-07 0)
(6.46602e-09 -7.94396e-07 0)
(6.43181e-09 -7.95612e-07 0)
(6.39752e-09 -7.96823e-07 0)
(6.36317e-09 -7.98031e-07 0)
(6.32875e-09 -7.99236e-07 0)
(6.29426e-09 -8.00436e-07 0)
(6.25969e-09 -8.01633e-07 0)
(6.22506e-09 -8.02826e-07 0)
(6.19037e-09 -8.04015e-07 0)
(6.1556e-09 -8.052e-07 0)
(6.12077e-09 -8.06382e-07 0)
(6.08587e-09 -8.07559e-07 0)
(6.05091e-09 -8.08733e-07 0)
(6.01588e-09 -8.09902e-07 0)
(5.98079e-09 -8.11068e-07 0)
(5.94564e-09 -8.12229e-07 0)
(5.91042e-09 -8.13386e-07 0)
(5.87514e-09 -8.14539e-07 0)
(5.8398e-09 -8.15688e-07 0)
(5.8044e-09 -8.16832e-07 0)
(5.76894e-09 -8.17973e-07 0)
(5.73342e-09 -8.19109e-07 0)
(5.69784e-09 -8.2024e-07 0)
(5.66221e-09 -8.21367e-07 0)
(5.62651e-09 -8.2249e-07 0)
(5.59076e-09 -8.23608e-07 0)
(5.55496e-09 -8.24722e-07 0)
(5.5191e-09 -8.25831e-07 0)
(5.48319e-09 -8.26936e-07 0)
(5.44722e-09 -8.28036e-07 0)
(5.4112e-09 -8.29131e-07 0)
(5.37513e-09 -8.30222e-07 0)
(5.33901e-09 -8.31308e-07 0)
(5.30284e-09 -8.32389e-07 0)
(5.26662e-09 -8.33465e-07 0)
(5.23035e-09 -8.34536e-07 0)
(5.19403e-09 -8.35603e-07 0)
(5.15767e-09 -8.36664e-07 0)
(5.12126e-09 -8.37721e-07 0)
(5.08481e-09 -8.38772e-07 0)
(5.04831e-09 -8.39819e-07 0)
(5.01177e-09 -8.4086e-07 0)
(4.97518e-09 -8.41896e-07 0)
(4.93857e-09 -8.42928e-07 0)
(4.90185e-09 -8.43951e-07 0)
(4.86538e-09 -8.44982e-07 0)
(4.82765e-09 -8.45979e-07 0)
(4.79076e-09 -8.46928e-07 0)
(4.75697e-09 -8.47853e-07 0)
(4.72384e-09 -8.48745e-07 0)
(4.69062e-09 -8.49639e-07 0)
(4.65714e-09 -8.50545e-07 0)
(4.62334e-09 -8.51457e-07 0)
(4.58922e-09 -8.52371e-07 0)
(4.55477e-09 -8.53287e-07 0)
(4.51999e-09 -8.54205e-07 0)
(4.48488e-09 -8.55127e-07 0)
(4.44943e-09 -8.56052e-07 0)
(4.41365e-09 -8.56979e-07 0)
(4.37753e-09 -8.57908e-07 0)
(4.34107e-09 -8.5884e-07 0)
(4.30427e-09 -8.59774e-07 0)
(4.26713e-09 -8.60711e-07 0)
(4.22965e-09 -8.61649e-07 0)
(4.19182e-09 -8.62589e-07 0)
(4.15364e-09 -8.6353e-07 0)
(4.11512e-09 -8.64473e-07 0)
(4.07625e-09 -8.65417e-07 0)
(4.03703e-09 -8.66363e-07 0)
(3.99746e-09 -8.67309e-07 0)
(3.95754e-09 -8.68256e-07 0)
(3.91727e-09 -8.69204e-07 0)
(3.87664e-09 -8.70153e-07 0)
(3.83566e-09 -8.71101e-07 0)
(3.79433e-09 -8.7205e-07 0)
(3.75264e-09 -8.72998e-07 0)
(3.71059e-09 -8.73947e-07 0)
(3.66819e-09 -8.74894e-07 0)
(3.62543e-09 -8.75841e-07 0)
(3.58232e-09 -8.76787e-07 0)
(3.53885e-09 -8.77732e-07 0)
(3.49502e-09 -8.78675e-07 0)
(3.45084e-09 -8.79616e-07 0)
(3.4063e-09 -8.80556e-07 0)
(3.3614e-09 -8.81493e-07 0)
(3.31615e-09 -8.82428e-07 0)
(3.27054e-09 -8.8336e-07 0)
(3.22458e-09 -8.8429e-07 0)
(3.17827e-09 -8.85215e-07 0)
(3.1316e-09 -8.86138e-07 0)
(3.08458e-09 -8.87057e-07 0)
(3.03722e-09 -8.87971e-07 0)
(2.9895e-09 -8.88881e-07 0)
(2.94144e-09 -8.89786e-07 0)
(2.89303e-09 -8.90686e-07 0)
(2.84428e-09 -8.91581e-07 0)
(2.79519e-09 -8.9247e-07 0)
(2.74576e-09 -8.93353e-07 0)
(2.696e-09 -8.9423e-07 0)
(2.6459e-09 -8.951e-07 0)
(2.59547e-09 -8.95963e-07 0)
(2.54471e-09 -8.96818e-07 0)
(2.49363e-09 -8.97665e-07 0)
(2.44223e-09 -8.98505e-07 0)
(2.39051e-09 -8.99335e-07 0)
(2.33847e-09 -9.00157e-07 0)
(2.28613e-09 -9.00969e-07 0)
(2.23348e-09 -9.01771e-07 0)
(2.18053e-09 -9.02563e-07 0)
(2.12728e-09 -9.03344e-07 0)
(2.07375e-09 -9.04114e-07 0)
(2.01993e-09 -9.04873e-07 0)
(1.96582e-09 -9.0562e-07 0)
(1.91145e-09 -9.06354e-07 0)
(1.8568e-09 -9.07075e-07 0)
(1.8019e-09 -9.07783e-07 0)
(1.74673e-09 -9.08477e-07 0)
(1.69132e-09 -9.09157e-07 0)
(1.63567e-09 -9.09821e-07 0)
(1.57978e-09 -9.10471e-07 0)
(1.52367e-09 -9.11104e-07 0)
(1.46734e-09 -9.11721e-07 0)
(1.4108e-09 -9.12322e-07 0)
(1.35405e-09 -9.12905e-07 0)
(1.29711e-09 -9.13469e-07 0)
(1.23999e-09 -9.14016e-07 0)
(1.1827e-09 -9.14543e-07 0)
(1.12524e-09 -9.15051e-07 0)
(1.06762e-09 -9.15539e-07 0)
(1.00987e-09 -9.16006e-07 0)
(9.51975e-10 -9.16451e-07 0)
(8.93963e-10 -9.16875e-07 0)
(8.35839e-10 -9.17276e-07 0)
(7.77617e-10 -9.17655e-07 0)
(7.19308e-10 -9.18009e-07 0)
(6.60925e-10 -9.1834e-07 0)
(6.0248e-10 -9.18645e-07 0)
(5.43987e-10 -9.18926e-07 0)
(4.85459e-10 -9.1918e-07 0)
(4.2691e-10 -9.19407e-07 0)
(3.68353e-10 -9.19607e-07 0)
(3.09804e-10 -9.1978e-07 0)
(2.51277e-10 -9.19924e-07 0)
(1.92788e-10 -9.20038e-07 0)
(1.34351e-10 -9.20123e-07 0)
(7.59825e-11 -9.20178e-07 0)
(1.76986e-11 -9.20202e-07 0)
(-4.04843e-11 -9.20193e-07 0)
(-9.85496e-11 -9.20153e-07 0)
(-1.5648e-10 -9.2008e-07 0)
(-2.14259e-10 -9.19973e-07 0)
(-2.71867e-10 -9.19832e-07 0)
(-3.29288e-10 -9.19656e-07 0)
(-3.86504e-10 -9.19445e-07 0)
(-4.43494e-10 -9.19198e-07 0)
(-5.00242e-10 -9.18914e-07 0)
(-5.56728e-10 -9.18593e-07 0)
(-6.12932e-10 -9.18234e-07 0)
(-6.68835e-10 -9.17837e-07 0)
(-7.24418e-10 -9.174e-07 0)
(-7.7966e-10 -9.16924e-07 0)
(-8.34541e-10 -9.16408e-07 0)
(-8.89041e-10 -9.15851e-07 0)
(-9.4314e-10 -9.15252e-07 0)
(-9.96816e-10 -9.14611e-07 0)
(-1.05005e-09 -9.13928e-07 0)
(-1.10282e-09 -9.13202e-07 0)
(-1.1551e-09 -9.12432e-07 0)
(-1.20688e-09 -9.11618e-07 0)
(-1.25813e-09 -9.1076e-07 0)
(-1.30883e-09 -9.09856e-07 0)
(-1.35897e-09 -9.08907e-07 0)
(-1.40851e-09 -9.07911e-07 0)
(-1.45743e-09 -9.06869e-07 0)
(-1.50573e-09 -9.0578e-07 0)
(-1.55337e-09 -9.04644e-07 0)
(-1.60033e-09 -9.0346e-07 0)
(-1.6466e-09 -9.02228e-07 0)
(-1.69214e-09 -9.00947e-07 0)
(-1.73695e-09 -8.99618e-07 0)
(-1.781e-09 -8.98239e-07 0)
(-1.82427e-09 -8.96811e-07 0)
(-1.86674e-09 -8.95332e-07 0)
(-1.90839e-09 -8.93804e-07 0)
(-1.9492e-09 -8.92226e-07 0)
(-1.98915e-09 -8.90597e-07 0)
(-2.02822e-09 -8.88917e-07 0)
(-2.0664e-09 -8.87187e-07 0)
(-2.10366e-09 -8.85406e-07 0)
(-2.13998e-09 -8.83573e-07 0)
(-2.17536e-09 -8.8169e-07 0)
(-2.20977e-09 -8.79755e-07 0)
(-2.2432e-09 -8.77769e-07 0)
(-2.27562e-09 -8.75732e-07 0)
(-2.30704e-09 -8.73644e-07 0)
(-2.33742e-09 -8.71504e-07 0)
(-2.36676e-09 -8.69314e-07 0)
(-2.39504e-09 -8.67072e-07 0)
(-2.42225e-09 -8.6478e-07 0)
(-2.44837e-09 -8.62438e-07 0)
(-2.47341e-09 -8.60045e-07 0)
(-2.49733e-09 -8.57602e-07 0)
(-2.52015e-09 -8.5511e-07 0)
(-2.54183e-09 -8.52568e-07 0)
(-2.56239e-09 -8.49977e-07 0)
(-2.5818e-09 -8.47338e-07 0)
(-2.60006e-09 -8.4465e-07 0)
(-2.61717e-09 -8.41915e-07 0)
(-2.63312e-09 -8.39132e-07 0)
(-2.6479e-09 -8.36303e-07 0)
(-2.66152e-09 -8.33428e-07 0)
(-2.67397e-09 -8.30507e-07 0)
(-2.68524e-09 -8.27541e-07 0)
(-2.69534e-09 -8.24532e-07 0)
(-2.70427e-09 -8.21478e-07 0)
(-2.71202e-09 -8.18383e-07 0)
(-2.7186e-09 -8.15245e-07 0)
(-2.72401e-09 -8.12066e-07 0)
(-2.72825e-09 -8.08848e-07 0)
(-2.73134e-09 -8.05589e-07 0)
(-2.73327e-09 -8.02293e-07 0)
(-2.73404e-09 -7.98959e-07 0)
(-2.73368e-09 -7.95588e-07 0)
(-2.73217e-09 -7.92183e-07 0)
(-2.72955e-09 -7.88742e-07 0)
(-2.72575e-09 -7.85269e-07 0)
(-2.72113e-09 -7.81753e-07 0)
(-2.71416e-09 -7.782e-07 0)
(-2.70512e-09 -7.74268e-07 0)
(-2.69533e-09 -7.69922e-07 0)
(-2.68397e-09 -7.65546e-07 0)
(-2.67121e-09 -7.612e-07 0)
(-2.65719e-09 -7.56892e-07 0)
(-2.64201e-09 -7.52609e-07 0)
(-2.62572e-09 -7.48348e-07 0)
(-2.6084e-09 -7.44113e-07 0)
(-2.5901e-09 -7.39906e-07 0)
(-2.57088e-09 -7.35731e-07 0)
(-2.55079e-09 -7.31588e-07 0)
(-2.52991e-09 -7.27478e-07 0)
(-2.50827e-09 -7.23402e-07 0)
(-2.48592e-09 -7.19362e-07 0)
(-2.46292e-09 -7.15359e-07 0)
(-2.43929e-09 -7.11393e-07 0)
(-2.4151e-09 -7.07467e-07 0)
(-2.39037e-09 -7.03579e-07 0)
(-2.36515e-09 -6.99733e-07 0)
(-2.33946e-09 -6.95927e-07 0)
(-2.31334e-09 -6.92163e-07 0)
(-2.28683e-09 -6.88442e-07 0)
(-2.25995e-09 -6.84765e-07 0)
(-2.23272e-09 -6.81131e-07 0)
(-2.20518e-09 -6.77541e-07 0)
(-2.17735e-09 -6.73996e-07 0)
(-2.14925e-09 -6.70497e-07 0)
(-2.12091e-09 -6.67043e-07 0)
(-2.09233e-09 -6.63635e-07 0)
(-2.06354e-09 -6.60273e-07 0)
(-2.03456e-09 -6.56959e-07 0)
(-2.0054e-09 -6.53691e-07 0)
(-1.97607e-09 -6.50471e-07 0)
(-1.94659e-09 -6.47298e-07 0)
(-1.91697e-09 -6.44173e-07 0)
(-1.88722e-09 -6.41096e-07 0)
(-1.85736e-09 -6.38068e-07 0)
(-1.82738e-09 -6.35087e-07 0)
(-1.7973e-09 -6.32156e-07 0)
(-1.76713e-09 -6.29273e-07 0)
(-1.73687e-09 -6.26439e-07 0)
(-1.70652e-09 -6.23654e-07 0)
(-1.6761e-09 -6.20918e-07 0)
(-1.64561e-09 -6.18231e-07 0)
(-1.61504e-09 -6.15594e-07 0)
(-1.58442e-09 -6.13006e-07 0)
(-1.55373e-09 -6.10468e-07 0)
(-1.52298e-09 -6.0798e-07 0)
(-1.49217e-09 -6.05541e-07 0)
(-1.4613e-09 -6.03152e-07 0)
(-1.43038e-09 -6.00814e-07 0)
(-1.39941e-09 -5.98525e-07 0)
(-1.36838e-09 -5.96286e-07 0)
(-1.3373e-09 -5.94098e-07 0)
(-1.30617e-09 -5.9196e-07 0)
(-1.27499e-09 -5.89872e-07 0)
(-1.24375e-09 -5.87835e-07 0)
(-1.21246e-09 -5.85849e-07 0)
(-1.18111e-09 -5.83913e-07 0)
(-1.14972e-09 -5.82028e-07 0)
(-1.11827e-09 -5.80193e-07 0)
(-1.08676e-09 -5.7841e-07 0)
(-1.0552e-09 -5.76677e-07 0)
(-1.02359e-09 -5.74996e-07 0)
(-9.9192e-10 -5.73366e-07 0)
(-9.60195e-10 -5.71787e-07 0)
(-9.28414e-10 -5.70259e-07 0)
(-8.96577e-10 -5.68783e-07 0)
(-8.64684e-10 -5.67359e-07 0)
(-8.32735e-10 -5.65986e-07 0)
(-8.0073e-10 -5.64665e-07 0)
(-7.6867e-10 -5.63395e-07 0)
(-7.36555e-10 -5.62178e-07 0)
(-7.04387e-10 -5.61012e-07 0)
(-6.72165e-10 -5.59899e-07 0)
(-6.39891e-10 -5.58838e-07 0)
(-6.07566e-10 -5.57829e-07 0)
(-5.75191e-10 -5.56872e-07 0)
(-5.42769e-10 -5.55968e-07 0)
(-5.103e-10 -5.55116e-07 0)
(-4.77787e-10 -5.54317e-07 0)
(-4.45232e-10 -5.53571e-07 0)
(-4.12637e-10 -5.52877e-07 0)
(-3.80004e-10 -5.52236e-07 0)
(-3.47337e-10 -5.51646e-07 0)
(-3.14637e-10 -5.51115e-07 0)
(-2.81905e-10 -5.5062e-07 0)
(-2.4915e-10 -5.50229e-07 0)
(-2.16347e-10 -5.49725e-07 0)
(-1.83591e-10 -5.49818e-07 0)
(-1.50564e-10 -5.4812e-07 0)
(-1.18387e-10 -5.52361e-07 0)
(-8.32812e-11 -5.35671e-07 0)
(-5.89373e-11 -5.79543e-07 0)
(-2.71092e-11 -5.06122e-07 0)
)
;
    }
    bottomWall
    {
        type            calculated;
        value           nonuniform List<vector> 
449
(
(-48.5843 -0.964832 0)
(-19.7705 -0.00516113 0)
(-14.3573 -0.00113602 0)
(-12.0451 -0.000546113 0)
(-10.6373 -0.000351911 0)
(-9.64235 -0.000256299 0)
(-8.88337 -0.000198723 0)
(-8.27914 -0.000160006 0)
(-7.78312 -0.000132482 0)
(-7.36599 -0.00011211 0)
(-7.00857 -9.64892e-05 0)
(-6.69779 -8.41661e-05 0)
(-6.42433 -7.4235e-05 0)
(-6.18127 -6.60961e-05 0)
(-5.96335 -5.93294e-05 0)
(-5.76651 -5.36314e-05 0)
(-5.58754 -4.87795e-05 0)
(-5.42389 -4.46076e-05 0)
(-5.27348 -4.09897e-05 0)
(-5.13462 -3.7828e-05 0)
(-5.00589 -3.5046e-05 0)
(-4.88613 -3.25829e-05 0)
(-4.77432 -3.03897e-05 0)
(-4.66963 -2.84268e-05 0)
(-4.57134 -2.66618e-05 0)
(-4.4788 -2.50679e-05 0)
(-4.39149 -2.36228e-05 0)
(-4.30892 -2.23077e-05 0)
(-4.23069 -2.1107e-05 0)
(-4.15642 -2.00071e-05 0)
(-4.08579 -1.89967e-05 0)
(-4.01852 -1.80659e-05 0)
(-3.95434 -1.72062e-05 0)
(-3.89302 -1.64103e-05 0)
(-3.83437 -1.56717e-05 0)
(-3.77818 -1.4985e-05 0)
(-3.7243 -1.4345e-05 0)
(-3.67257 -1.37476e-05 0)
(-3.62285 -1.31889e-05 0)
(-3.57501 -1.26654e-05 0)
(-3.52894 -1.21742e-05 0)
(-3.48453 -1.17126e-05 0)
(-3.44169 -1.12781e-05 0)
(-3.40032 -1.08686e-05 0)
(-3.36034 -1.04821e-05 0)
(-3.32168 -1.01169e-05 0)
(-3.28426 -9.77134e-06 0)
(-3.24803 -9.44404e-06 0)
(-3.21291 -9.13366e-06 0)
(-3.17886 -8.83902e-06 0)
(-3.14582 -8.55903e-06 0)
(-3.11374 -8.2927e-06 0)
(-3.08257 -8.03913e-06 0)
(-3.05228 -7.79749e-06 0)
(-3.02282 -7.567e-06 0)
(-2.99416 -7.34698e-06 0)
(-2.96626 -7.13677e-06 0)
(-2.93909 -6.93578e-06 0)
(-2.91261 -6.74347e-06 0)
(-2.88681 -6.55931e-06 0)
(-2.86164 -6.38285e-06 0)
(-2.83709 -6.21364e-06 0)
(-2.81312 -6.05127e-06 0)
(-2.78973 -5.89538e-06 0)
(-2.76688 -5.74561e-06 0)
(-2.74455 -5.60164e-06 0)
(-2.72273 -5.46316e-06 0)
(-2.70139 -5.32988e-06 0)
(-2.68052 -5.20154e-06 0)
(-2.6601 -5.07789e-06 0)
(-2.64012 -4.9587e-06 0)
(-2.62056 -4.84374e-06 0)
(-2.6014 -4.73283e-06 0)
(-2.58264 -4.62575e-06 0)
(-2.56425 -4.52234e-06 0)
(-2.54623 -4.42242e-06 0)
(-2.52856 -4.32583e-06 0)
(-2.51124 -4.23242e-06 0)
(-2.49425 -4.14205e-06 0)
(-2.47758 -4.05459e-06 0)
(-2.46123 -3.9699e-06 0)
(-2.44517 -3.88787e-06 0)
(-2.42941 -3.80839e-06 0)
(-2.41393 -3.73134e-06 0)
(-2.39873 -3.65663e-06 0)
(-2.3838 -3.58416e-06 0)
(-2.36912 -3.51384e-06 0)
(-2.3547 -3.44558e-06 0)
(-2.34052 -3.37931e-06 0)
(-2.32659 -3.31493e-06 0)
(-2.31288 -3.25239e-06 0)
(-2.2994 -3.19161e-06 0)
(-2.28614 -3.13251e-06 0)
(-2.27309 -3.07505e-06 0)
(-2.26025 -3.01915e-06 0)
(-2.24762 -2.96476e-06 0)
(-2.23518 -2.91183e-06 0)
(-2.22293 -2.86029e-06 0)
(-2.21088 -2.81011e-06 0)
(-2.199 -2.76123e-06 0)
(-2.1873 -2.71361e-06 0)
(-2.17578 -2.66721e-06 0)
(-2.16442 -2.62197e-06 0)
(-2.15324 -2.57787e-06 0)
(-2.14221 -2.53486e-06 0)
(-2.13134 -2.49291e-06 0)
(-2.12062 -2.45199e-06 0)
(-2.11006 -2.41205e-06 0)
(-2.09964 -2.37306e-06 0)
(-2.08937 -2.335e-06 0)
(-2.07923 -2.29784e-06 0)
(-2.06923 -2.26155e-06 0)
(-2.05937 -2.22609e-06 0)
(-2.04964 -2.19145e-06 0)
(-2.04004 -2.1576e-06 0)
(-2.03056 -2.12451e-06 0)
(-2.0212 -2.09216e-06 0)
(-2.01197 -2.06053e-06 0)
(-2.00285 -2.0296e-06 0)
(-1.99385 -1.99935e-06 0)
(-1.98496 -1.96975e-06 0)
(-1.97618 -1.94079e-06 0)
(-1.96751 -1.91245e-06 0)
(-1.95895 -1.88471e-06 0)
(-1.95049 -1.85755e-06 0)
(-1.94213 -1.83096e-06 0)
(-1.93387 -1.80492e-06 0)
(-1.92571 -1.77942e-06 0)
(-1.91765 -1.75444e-06 0)
(-1.90967 -1.72997e-06 0)
(-1.9018 -1.70599e-06 0)
(-1.89401 -1.68249e-06 0)
(-1.88631 -1.65946e-06 0)
(-1.8787 -1.63688e-06 0)
(-1.87117 -1.61474e-06 0)
(-1.86373 -1.59304e-06 0)
(-1.85637 -1.57175e-06 0)
(-1.84909 -1.55087e-06 0)
(-1.84189 -1.5304e-06 0)
(-1.83477 -1.5103e-06 0)
(-1.82773 -1.49059e-06 0)
(-1.82076 -1.47125e-06 0)
(-1.81386 -1.45226e-06 0)
(-1.80704 -1.43363e-06 0)
(-1.80029 -1.41534e-06 0)
(-1.79361 -1.39738e-06 0)
(-1.787 -1.37974e-06 0)
(-1.78045 -1.36243e-06 0)
(-1.77398 -1.34542e-06 0)
(-1.76757 -1.32872e-06 0)
(-1.76122 -1.31231e-06 0)
(-1.75493 -1.29619e-06 0)
(-1.74871 -1.28035e-06 0)
(-1.74255 -1.26478e-06 0)
(-1.73645 -1.24948e-06 0)
(-1.73041 -1.23445e-06 0)
(-1.72443 -1.21967e-06 0)
(-1.71851 -1.20514e-06 0)
(-1.71264 -1.19086e-06 0)
(-1.70683 -1.17681e-06 0)
(-1.70107 -1.163e-06 0)
(-1.69537 -1.14941e-06 0)
(-1.68972 -1.13605e-06 0)
(-1.68412 -1.12291e-06 0)
(-1.67857 -1.10998e-06 0)
(-1.67308 -1.09726e-06 0)
(-1.66763 -1.08474e-06 0)
(-1.66224 -1.07242e-06 0)
(-1.65689 -1.0603e-06 0)
(-1.65159 -1.04829e-06 0)
(-1.64634 -1.03676e-06 0)
(-1.64113 -1.02493e-06 0)
(-1.63597 -1.01263e-06 0)
(-1.63115 -1.00307e-06 0)
(-1.62662 -9.94686e-07 0)
(-1.62208 -9.84198e-07 0)
(-1.61754 -9.7366e-07 0)
(-1.613 -9.63833e-07 0)
(-1.60845 -9.54037e-07 0)
(-1.60391 -9.44388e-07 0)
(-1.59936 -9.34826e-07 0)
(-1.59481 -9.25349e-07 0)
(-1.59025 -9.15946e-07 0)
(-1.58569 -9.06614e-07 0)
(-1.58113 -8.97348e-07 0)
(-1.57657 -8.88147e-07 0)
(-1.57201 -8.79008e-07 0)
(-1.56744 -8.69931e-07 0)
(-1.56287 -8.60914e-07 0)
(-1.5583 -8.51957e-07 0)
(-1.55373 -8.4306e-07 0)
(-1.54916 -8.34222e-07 0)
(-1.54458 -8.25442e-07 0)
(-1.54001 -8.16722e-07 0)
(-1.53543 -8.08059e-07 0)
(-1.53086 -7.99455e-07 0)
(-1.52628 -7.90909e-07 0)
(-1.5217 -7.82421e-07 0)
(-1.51712 -7.73992e-07 0)
(-1.51255 -7.6562e-07 0)
(-1.50797 -7.57307e-07 0)
(-1.5034 -7.49052e-07 0)
(-1.49882 -7.40855e-07 0)
(-1.49425 -7.32717e-07 0)
(-1.48967 -7.24637e-07 0)
(-1.4851 -7.16615e-07 0)
(-1.48053 -7.08652e-07 0)
(-1.47597 -7.00747e-07 0)
(-1.4714 -6.92901e-07 0)
(-1.46684 -6.85113e-07 0)
(-1.46227 -6.77384e-07 0)
(-1.45772 -6.69714e-07 0)
(-1.45316 -6.62103e-07 0)
(-1.44861 -6.5455e-07 0)
(-1.44406 -6.47056e-07 0)
(-1.43951 -6.39621e-07 0)
(-1.43497 -6.32245e-07 0)
(-1.43043 -6.24928e-07 0)
(-1.42589 -6.1767e-07 0)
(-1.42136 -6.1047e-07 0)
(-1.41683 -6.03329e-07 0)
(-1.41231 -5.96248e-07 0)
(-1.40779 -5.89224e-07 0)
(-1.40328 -5.8226e-07 0)
(-1.39877 -5.75354e-07 0)
(-1.39426 -5.68507e-07 0)
(-1.38977 -5.61719e-07 0)
(-1.38527 -5.54989e-07 0)
(-1.38079 -5.48318e-07 0)
(-1.37631 -5.41704e-07 0)
(-1.37183 -5.35149e-07 0)
(-1.36736 -5.28653e-07 0)
(-1.3629 -5.22214e-07 0)
(-1.35844 -5.15833e-07 0)
(-1.35399 -5.0951e-07 0)
(-1.34955 -5.03244e-07 0)
(-1.34512 -4.97036e-07 0)
(-1.34069 -4.90886e-07 0)
(-1.33627 -4.84792e-07 0)
(-1.33186 -4.78756e-07 0)
(-1.32745 -4.72777e-07 0)
(-1.32305 -4.66854e-07 0)
(-1.31866 -4.60987e-07 0)
(-1.31428 -4.55178e-07 0)
(-1.30991 -4.49424e-07 0)
(-1.30554 -4.43726e-07 0)
(-1.30119 -4.38084e-07 0)
(-1.29684 -4.32497e-07 0)
(-1.2925 -4.26966e-07 0)
(-1.28817 -4.21489e-07 0)
(-1.28385 -4.16068e-07 0)
(-1.27954 -4.10701e-07 0)
(-1.27524 -4.05388e-07 0)
(-1.27095 -4.0013e-07 0)
(-1.26667 -3.94925e-07 0)
(-1.26239 -3.89775e-07 0)
(-1.25813 -3.84677e-07 0)
(-1.25388 -3.79632e-07 0)
(-1.24964 -3.74641e-07 0)
(-1.24541 -3.69701e-07 0)
(-1.24119 -3.64814e-07 0)
(-1.23698 -3.59979e-07 0)
(-1.23278 -3.55196e-07 0)
(-1.22859 -3.50464e-07 0)
(-1.22441 -3.45783e-07 0)
(-1.22024 -3.41153e-07 0)
(-1.21609 -3.36573e-07 0)
(-1.21194 -3.32043e-07 0)
(-1.20781 -3.27564e-07 0)
(-1.20369 -3.23133e-07 0)
(-1.19958 -3.18752e-07 0)
(-1.19548 -3.1442e-07 0)
(-1.1914 -3.10137e-07 0)
(-1.18732 -3.05902e-07 0)
(-1.18326 -3.01714e-07 0)
(-1.17921 -2.97575e-07 0)
(-1.17517 -2.93482e-07 0)
(-1.17115 -2.89437e-07 0)
(-1.16713 -2.85438e-07 0)
(-1.16313 -2.81485e-07 0)
(-1.15915 -2.77578e-07 0)
(-1.15517 -2.73717e-07 0)
(-1.15121 -2.69901e-07 0)
(-1.14726 -2.6613e-07 0)
(-1.14332 -2.62404e-07 0)
(-1.1394 -2.58721e-07 0)
(-1.13549 -2.55083e-07 0)
(-1.13159 -2.51488e-07 0)
(-1.12771 -2.47936e-07 0)
(-1.12384 -2.44427e-07 0)
(-1.11998 -2.4096e-07 0)
(-1.11614 -2.37535e-07 0)
(-1.11231 -2.34152e-07 0)
(-1.10849 -2.30811e-07 0)
(-1.10469 -2.2751e-07 0)
(-1.1009 -2.24251e-07 0)
(-1.09712 -2.21031e-07 0)
(-1.09336 -2.17851e-07 0)
(-1.08961 -2.14711e-07 0)
(-1.08588 -2.11611e-07 0)
(-1.08216 -2.08549e-07 0)
(-1.07845 -2.05525e-07 0)
(-1.07476 -2.0254e-07 0)
(-1.07108 -1.99593e-07 0)
(-1.06742 -1.96683e-07 0)
(-1.06377 -1.9381e-07 0)
(-1.06014 -1.90974e-07 0)
(-1.05652 -1.88174e-07 0)
(-1.05291 -1.8541e-07 0)
(-1.04932 -1.82682e-07 0)
(-1.04574 -1.7999e-07 0)
(-1.04218 -1.77332e-07 0)
(-1.03863 -1.74709e-07 0)
(-1.0351 -1.72121e-07 0)
(-1.03158 -1.69566e-07 0)
(-1.02807 -1.67045e-07 0)
(-1.02458 -1.64557e-07 0)
(-1.02111 -1.62102e-07 0)
(-1.01765 -1.5968e-07 0)
(-1.0142 -1.5729e-07 0)
(-1.01077 -1.54931e-07 0)
(-1.00736 -1.52605e-07 0)
(-1.00396 -1.50309e-07 0)
(-1.00057 -1.48045e-07 0)
(-0.997198 -1.45811e-07 0)
(-0.993841 -1.43607e-07 0)
(-0.990499 -1.41433e-07 0)
(-0.987172 -1.39289e-07 0)
(-0.98386 -1.37174e-07 0)
(-0.980562 -1.35088e-07 0)
(-0.97728 -1.33031e-07 0)
(-0.974013 -1.31002e-07 0)
(-0.97076 -1.29001e-07 0)
(-0.967523 -1.27027e-07 0)
(-0.9643 -1.25081e-07 0)
(-0.961092 -1.23162e-07 0)
(-0.9579 -1.2127e-07 0)
(-0.954722 -1.19404e-07 0)
(-0.951559 -1.17565e-07 0)
(-0.948411 -1.15751e-07 0)
(-0.945278 -1.13963e-07 0)
(-0.94216 -1.122e-07 0)
(-0.939057 -1.10462e-07 0)
(-0.935969 -1.08749e-07 0)
(-0.932896 -1.07061e-07 0)
(-0.929837 -1.05397e-07 0)
(-0.926794 -1.03757e-07 0)
(-0.923765 -1.02142e-07 0)
(-0.920751 -1.00551e-07 0)
(-0.917752 -9.89852e-08 0)
(-0.914767 -9.74431e-08 0)
(-0.911797 -9.59274e-08 0)
(-0.908841 -9.4467e-08 0)
(-0.905898 -9.30285e-08 0)
(-0.90264 -9.14114e-08 0)
(-0.899106 -8.97173e-08 0)
(-0.895635 -8.81489e-08 0)
(-0.892224 -8.65804e-08 0)
(-0.888875 -8.49752e-08 0)
(-0.885589 -8.33929e-08 0)
(-0.882364 -8.18498e-08 0)
(-0.879199 -8.03492e-08 0)
(-0.876091 -7.88908e-08 0)
(-0.87304 -7.74737e-08 0)
(-0.870043 -7.60969e-08 0)
(-0.867099 -7.4759e-08 0)
(-0.864207 -7.34585e-08 0)
(-0.861364 -7.21941e-08 0)
(-0.858571 -7.09643e-08 0)
(-0.855825 -6.97677e-08 0)
(-0.853124 -6.86033e-08 0)
(-0.850469 -6.74696e-08 0)
(-0.847858 -6.63657e-08 0)
(-0.845289 -6.52904e-08 0)
(-0.842761 -6.42426e-08 0)
(-0.840274 -6.32215e-08 0)
(-0.837826 -6.22261e-08 0)
(-0.835417 -6.12555e-08 0)
(-0.833045 -6.03088e-08 0)
(-0.83071 -5.93852e-08 0)
(-0.82841 -5.8484e-08 0)
(-0.826145 -5.76044e-08 0)
(-0.823914 -5.67457e-08 0)
(-0.821716 -5.59071e-08 0)
(-0.81955 -5.50882e-08 0)
(-0.817416 -5.42882e-08 0)
(-0.815313 -5.35065e-08 0)
(-0.81324 -5.27426e-08 0)
(-0.811197 -5.19959e-08 0)
(-0.809182 -5.12659e-08 0)
(-0.807196 -5.0552e-08 0)
(-0.805237 -4.98539e-08 0)
(-0.803305 -4.91709e-08 0)
(-0.8014 -4.85027e-08 0)
(-0.79952 -4.78489e-08 0)
(-0.797666 -4.7209e-08 0)
(-0.795836 -4.65825e-08 0)
(-0.794031 -4.59692e-08 0)
(-0.792249 -4.53687e-08 0)
(-0.79049 -4.47806e-08 0)
(-0.788754 -4.42045e-08 0)
(-0.787041 -4.36401e-08 0)
(-0.785349 -4.30871e-08 0)
(-0.783679 -4.25452e-08 0)
(-0.782029 -4.20141e-08 0)
(-0.7804 -4.14936e-08 0)
(-0.778791 -4.09832e-08 0)
(-0.777202 -4.04828e-08 0)
(-0.775633 -3.99922e-08 0)
(-0.774082 -3.95109e-08 0)
(-0.77255 -3.9039e-08 0)
(-0.771036 -3.8576e-08 0)
(-0.76954 -3.81217e-08 0)
(-0.768061 -3.76761e-08 0)
(-0.7666 -3.72388e-08 0)
(-0.765156 -3.68097e-08 0)
(-0.763728 -3.63885e-08 0)
(-0.762317 -3.59752e-08 0)
(-0.760921 -3.55695e-08 0)
(-0.759542 -3.51712e-08 0)
(-0.758177 -3.47803e-08 0)
(-0.756828 -3.43965e-08 0)
(-0.755494 -3.40198e-08 0)
(-0.754174 -3.365e-08 0)
(-0.752868 -3.3287e-08 0)
(-0.751577 -3.29307e-08 0)
(-0.750299 -3.25811e-08 0)
(-0.749035 -3.22381e-08 0)
(-0.747784 -3.19016e-08 0)
(-0.746546 -3.15716e-08 0)
(-0.745321 -3.12483e-08 0)
(-0.744109 -3.09316e-08 0)
(-0.742908 -3.06219e-08 0)
(-0.74172 -3.03192e-08 0)
(-0.740543 -3.00241e-08 0)
(-0.739378 -2.97371e-08 0)
(-0.738223 -2.94594e-08 0)
(-0.73708 -2.91922e-08 0)
(-0.735946 -2.89374e-08 0)
(-0.734822 -2.8702e-08 0)
(-0.733707 -2.84806e-08 0)
(-0.732601 -2.82933e-08 0)
(-0.7315 -2.82429e-08 0)
(-0.730398 -2.80057e-08 0)
(-0.729316 -2.72401e-08 0)
(-0.728273 -3.5688e-08 0)
(-0.726532 -9.69486e-09 0)
(-0.727527 -2.62775e-08 0)
(-0.724445 -4.03292e-08 0)
)
;
    }
    symmetry
    {
        type            symmetryPlane;
    }
    frontAndBack
    {
        type            empty;
    }
}


// ************************************************************************* //
