/*--------------------------------*- C++ -*----------------------------------*\
| =========                 |                                                 |
| \\      /  F ield         | OpenFOAM: The Open Source CFD Toolbox           |
|  \\    /   O peration     | Version:  v2012                                 |
|   \\  /    A nd           | Website:  www.openfoam.com                      |
|    \\/     M anipulation  |                                                 |
\*---------------------------------------------------------------------------*/
FoamFile
{
    version     2.0;
    format      ascii;
    class       volScalarField;
    location    "18.5";
    object      yPlus;
}
// * * * * * * * * * * * * * * * * * * * * * * * * * * * * * * * * * * * * * //

dimensions      [0 0 0 0 0 0 0];


internalField   uniform 0;

boundaryField
{
    inlet
    {
        type            calculated;
        value           uniform 0;
    }
    outlet
    {
        type            calculated;
        value           uniform 0;
    }
    topWall
    {
        type            calculated;
        value           nonuniform List<scalar> 
545
(
0.0699167
0.120578
0.154678
0.181803
0.204753
0.224821
0.242729
0.258937
0.273754
0.287404
0.300055
0.311837
0.322852
0.333186
0.342908
0.352075
0.360737
0.368938
0.376715
0.384099
0.39112
0.397804
0.404173
0.410248
0.416048
0.42159
0.426888
0.431959
0.436814
0.441465
0.445923
0.4502
0.454303
0.458243
0.462027
0.465663
0.469159
0.47252
0.475754
0.478866
0.481862
0.484747
0.487526
0.490205
0.492786
0.495275
0.497675
0.499991
0.502225
0.504381
0.506462
0.508472
0.510413
0.512288
0.5141
0.515851
0.517543
0.519179
0.52076
0.52229
0.52377
0.525201
0.526586
0.527926
0.529223
0.530479
0.531695
0.532872
0.534012
0.535116
0.536186
0.537222
0.538213
0.539171
0.54012
0.54106
0.541992
0.542916
0.543831
0.544738
0.545637
0.546527
0.54741
0.548285
0.549152
0.550011
0.550863
0.551707
0.552544
0.553373
0.554195
0.555009
0.555817
0.556617
0.55741
0.558197
0.558904
0.559536
0.560168
0.560798
0.561428
0.562058
0.562686
0.563314
0.563941
0.564568
0.565194
0.565819
0.566443
0.567067
0.567689
0.568311
0.568933
0.569553
0.570173
0.570792
0.57141
0.572027
0.572644
0.573259
0.573874
0.574488
0.575101
0.575713
0.576325
0.576935
0.577545
0.578154
0.578762
0.579369
0.579975
0.58058
0.581184
0.581787
0.58239
0.582991
0.583592
0.584191
0.58479
0.585387
0.585984
0.586579
0.587174
0.587767
0.58836
0.588951
0.589542
0.590131
0.59072
0.591307
0.591893
0.592478
0.593062
0.593645
0.594227
0.594808
0.595387
0.595966
0.596543
0.597119
0.597694
0.598268
0.59884
0.599412
0.599982
0.600551
0.601119
0.601686
0.602251
0.602815
0.603378
0.60394
0.6045
0.605059
0.605617
0.606173
0.606728
0.607282
0.607835
0.608386
0.608935
0.609484
0.610031
0.610577
0.611121
0.611664
0.612205
0.612746
0.613284
0.613821
0.614357
0.614892
0.615424
0.615956
0.616486
0.617014
0.617541
0.618066
0.61859
0.619113
0.619633
0.620153
0.62067
0.621186
0.621701
0.622214
0.622725
0.623235
0.623743
0.624249
0.624754
0.625257
0.625758
0.626258
0.626756
0.627253
0.627747
0.62824
0.628731
0.629221
0.629708
0.630194
0.630679
0.631161
0.631641
0.63212
0.632597
0.633072
0.633546
0.634017
0.634487
0.634954
0.63542
0.635884
0.636346
0.636806
0.637264
0.637721
0.638175
0.638627
0.639078
0.639526
0.639973
0.640417
0.640859
0.6413
0.641738
0.642174
0.642609
0.643041
0.643471
0.643899
0.644325
0.644749
0.64517
0.64559
0.646007
0.646423
0.646836
0.647247
0.647655
0.648062
0.648466
0.648869
0.649268
0.649666
0.650061
0.650455
0.650846
0.651212
0.651557
0.651903
0.65225
0.652598
0.652947
0.653297
0.653648
0.654001
0.654354
0.654707
0.655062
0.655417
0.655774
0.65613
0.656488
0.656846
0.657204
0.657563
0.657922
0.658282
0.658641
0.659001
0.659361
0.659721
0.660081
0.660441
0.660801
0.661161
0.66152
0.661879
0.662237
0.662595
0.662952
0.663309
0.663664
0.664019
0.664373
0.664725
0.665076
0.665427
0.665775
0.666122
0.666468
0.666812
0.667154
0.667494
0.667832
0.668167
0.668501
0.668832
0.66916
0.669486
0.669809
0.670129
0.670446
0.67076
0.67107
0.671377
0.67168
0.67198
0.672275
0.672567
0.672854
0.673136
0.673414
0.673688
0.673956
0.67422
0.674478
0.674731
0.674978
0.675219
0.675454
0.675684
0.675907
0.676123
0.676333
0.676536
0.676731
0.67692
0.677101
0.677274
0.677439
0.677596
0.677745
0.677885
0.678017
0.67814
0.678253
0.678357
0.678452
0.678536
0.678611
0.678675
0.678729
0.678772
0.678804
0.678824
0.678834
0.678831
0.678817
0.678791
0.678752
0.678701
0.678637
0.67856
0.678469
0.678365
0.678247
0.678115
0.677969
0.677809
0.677634
0.677444
0.677238
0.677018
0.676781
0.676529
0.676261
0.675977
0.675676
0.675359
0.675024
0.674673
0.674304
0.673918
0.673514
0.673092
0.672652
0.672194
0.671717
0.671222
0.670709
0.670176
0.669624
0.669053
0.668463
0.667853
0.667224
0.666575
0.665906
0.665218
0.664509
0.66378
0.663031
0.662262
0.661473
0.660663
0.659833
0.658983
0.658112
0.65722
0.656309
0.655377
0.654424
0.653452
0.652459
0.651446
0.650412
0.649359
0.648286
0.647192
0.64608
0.644947
0.643795
0.642624
0.641434
0.640225
0.638997
0.63775
0.636486
0.635203
0.633902
0.632585
0.631249
0.629897
0.628528
0.627143
0.625743
0.624326
0.622734
0.620975
0.619218
0.617463
0.615713
0.613967
0.612226
0.610492
0.608765
0.607045
0.605334
0.603631
0.601939
0.600256
0.598583
0.596922
0.595273
0.593635
0.592011
0.590399
0.5888
0.587216
0.585645
0.584089
0.582548
0.581023
0.579512
0.578018
0.57654
0.575078
0.573633
0.572205
0.570794
0.5694
0.568024
0.566666
0.565326
0.564004
0.562701
0.561416
0.560151
0.558904
0.557677
0.55647
0.555281
0.554113
0.552965
0.551837
0.550729
0.549642
0.548575
0.547529
0.546505
0.545501
0.544519
0.543558
0.542618
0.541701
0.540805
0.539931
0.53908
0.538251
0.537444
0.53666
0.535899
0.535161
0.534445
0.533753
0.533085
0.532439
0.531818
0.531219
0.530645
0.530095
0.529569
0.529067
0.528589
0.528136
0.527707
0.527302
0.526923
0.526568
0.526238
0.525932
0.525652
0.525397
0.525167
0.524962
0.524783
0.524628
0.524499
0.524396
0.524316
0.524267
0.524225
)
;
    }
    bottomWall
    {
        type            calculated;
        value           nonuniform List<scalar> 
449
(
0.139528
0.0890045
0.075847
0.0694715
0.0652858
0.0621575
0.0596611
0.0575963
0.0558443
0.0543272
0.0529928
0.0518045
0.050736
0.0497669
0.0488818
0.0480683
0.0473165
0.0466184
0.0459675
0.0453582
0.0447861
0.0442471
0.0437379
0.0432557
0.042798
0.0423626
0.0419477
0.0415515
0.0411725
0.0408095
0.0404613
0.0401268
0.0398051
0.0394953
0.0391967
0.0389084
0.03863
0.0383607
0.0381002
0.0378478
0.0376031
0.0373658
0.0371354
0.0369115
0.0366939
0.0364822
0.0362761
0.0360755
0.0358799
0.0356893
0.0355033
0.0353218
0.0351446
0.0349715
0.0348023
0.0346369
0.0344752
0.0343169
0.034162
0.0340103
0.0338618
0.0337162
0.0335735
0.0334336
0.0332964
0.0331618
0.0330296
0.0329
0.0327726
0.0326476
0.0325247
0.032404
0.0322854
0.0321687
0.032054
0.0319412
0.0318302
0.031721
0.0316135
0.0315077
0.0314035
0.0313009
0.0311998
0.0311003
0.0310022
0.0309056
0.0308103
0.0307164
0.0306238
0.0305324
0.0304424
0.0303535
0.0302659
0.0301794
0.0300941
0.0300098
0.0299267
0.0298446
0.0297635
0.0296835
0.0296044
0.0295263
0.0294492
0.029373
0.0292977
0.0292232
0.0291497
0.029077
0.0290051
0.028934
0.0288638
0.0287943
0.0287256
0.0286577
0.0285904
0.028524
0.0284582
0.0283931
0.0283287
0.0282649
0.0282019
0.0281394
0.0280776
0.0280165
0.0279559
0.0278959
0.0278366
0.0277778
0.0277196
0.0276619
0.0276048
0.0275482
0.0274921
0.0274366
0.0273816
0.0273271
0.0272731
0.0272196
0.0271665
0.027114
0.0270619
0.0270102
0.026959
0.0269083
0.026858
0.0268081
0.0267586
0.0267096
0.026661
0.0266127
0.0265649
0.0265175
0.0264704
0.0264238
0.0263775
0.0263316
0.026286
0.0262408
0.026196
0.0261515
0.0261074
0.0260636
0.0260201
0.025977
0.0259342
0.0258917
0.0258495
0.0258077
0.0257661
0.0257249
0.0256839
0.0256433
0.025603
0.0255652
0.0255296
0.025494
0.0254583
0.0254225
0.0253867
0.0253508
0.0253148
0.0252788
0.0252426
0.0252064
0.0251702
0.0251338
0.0250974
0.0250609
0.0250244
0.0249878
0.0249511
0.0249144
0.0248775
0.0248407
0.0248037
0.0247668
0.0247297
0.0246926
0.0246554
0.0246182
0.0245809
0.0245436
0.0245063
0.0244688
0.0244314
0.0243938
0.0243563
0.0243187
0.024281
0.0242434
0.0242056
0.0241679
0.0241301
0.0240922
0.0240544
0.0240165
0.0239785
0.0239406
0.0239026
0.0238646
0.0238265
0.0237885
0.0237504
0.0237123
0.0236742
0.023636
0.0235979
0.0235597
0.0235215
0.0234833
0.0234451
0.0234069
0.0233687
0.0233304
0.0232922
0.023254
0.0232157
0.0231775
0.0231392
0.023101
0.0230628
0.0230245
0.0229863
0.0229481
0.0229099
0.0228717
0.0228335
0.0227953
0.0227571
0.022719
0.0226809
0.0226428
0.0226047
0.0225666
0.0225285
0.0224905
0.0224525
0.0224145
0.0223766
0.0223387
0.0223008
0.0222629
0.0222251
0.0221873
0.0221496
0.0221118
0.0220742
0.0220365
0.0219989
0.0219614
0.0219238
0.0218864
0.0218489
0.0218115
0.0217742
0.0217369
0.0216996
0.0216625
0.0216253
0.0215882
0.0215512
0.0215142
0.0214773
0.0214404
0.0214036
0.0213668
0.0213301
0.0212935
0.0212569
0.0212204
0.021184
0.0211476
0.0211113
0.021075
0.0210388
0.0210027
0.0209667
0.0209307
0.0208948
0.020859
0.0208232
0.0207875
0.0207519
0.0207164
0.0206809
0.0206455
0.0206102
0.020575
0.0205399
0.0205048
0.0204698
0.0204349
0.0204001
0.0203654
0.0203307
0.0202962
0.0202617
0.0202273
0.020193
0.0201588
0.0201247
0.0200906
0.0200567
0.0200228
0.0199891
0.0199554
0.0199218
0.0198883
0.0198549
0.0198216
0.0197884
0.0197553
0.0197223
0.0196894
0.0196566
0.0196239
0.0195912
0.0195587
0.0195263
0.019494
0.0194617
0.0194296
0.0193976
0.0193657
0.0193339
0.0193021
0.0192705
0.019239
0.0192076
0.0191763
0.0191451
0.019114
0.019083
0.0190521
0.0190178
0.0189805
0.0189438
0.0189077
0.0188722
0.0188373
0.0188029
0.0187692
0.018736
0.0187033
0.0186712
0.0186396
0.0186085
0.0185779
0.0185477
0.018518
0.0184888
0.01846
0.0184316
0.0184037
0.0183761
0.018349
0.0183223
0.0182959
0.0182699
0.0182443
0.018219
0.0181941
0.0181695
0.0181452
0.0181213
0.0180977
0.0180744
0.0180514
0.0180287
0.0180063
0.0179842
0.0179624
0.0179408
0.0179195
0.0178985
0.0178777
0.0178572
0.017837
0.0178169
0.0177971
0.0177776
0.0177583
0.0177392
0.0177203
0.0177016
0.0176832
0.017665
0.0176469
0.0176291
0.0176115
0.017594
0.0175768
0.0175597
0.0175428
0.0175261
0.0175096
0.0174933
0.0174771
0.0174611
0.0174453
0.0174296
0.0174141
0.0173987
0.0173835
0.0173685
0.0173536
0.0173388
0.0173242
0.0173097
0.0172954
0.0172812
0.0172671
0.0172532
0.0172394
0.0172257
0.0172122
0.0171987
0.0171854
0.0171722
0.017159
0.017146
0.0171331
0.0171202
0.0171073
0.0170946
0.0170824
0.017062
0.0170737
0.0170374
)
;
    }
    symmetry
    {
        type            symmetryPlane;
    }
    frontAndBack
    {
        type            empty;
    }
}


// ************************************************************************* //
