/*--------------------------------*- C++ -*----------------------------------*\
| =========                 |                                                 |
| \\      /  F ield         | OpenFOAM: The Open Source CFD Toolbox           |
|  \\    /   O peration     | Version:  v2012                                 |
|   \\  /    A nd           | Website:  www.openfoam.com                      |
|    \\/     M anipulation  |                                                 |
\*---------------------------------------------------------------------------*/
FoamFile
{
    version     2.0;
    format      ascii;
    class       volScalarField;
    location    "8.5";
    object      p;
}
// * * * * * * * * * * * * * * * * * * * * * * * * * * * * * * * * * * * * * //

dimensions      [0 2 -2 0 0 0 0];


internalField   nonuniform List<scalar> 
209825
(
6.99696
6.99973
7.00657
7.0169
7.03014
7.04608
7.06465
7.08574
7.10924
7.13503
7.16305
7.1932
7.22543
7.25969
7.29593
7.3341
7.37417
7.41612
7.45992
7.50556
7.55301
7.60228
7.65336
7.70624
7.76093
7.81744
7.87577
7.93594
7.99797
8.06186
8.12766
8.19537
8.26503
8.33668
8.41034
8.48605
8.56386
8.64382
8.72596
8.81035
8.89704
8.98608
9.07756
9.17153
9.26807
9.36727
9.4692
9.57396
9.68164
9.79235
9.9062
10.0233
10.1438
10.2678
10.3955
10.5271
10.6626
10.8023
10.9464
11.095
11.2485
11.407
11.5709
11.7403
11.9157
12.0974
12.2857
12.481
12.6838
12.8946
13.1139
13.3423
13.5773
13.8218
14.0826
14.362
14.6624
14.9866
15.3378
15.72
16.1382
16.5982
17.1077
17.6762
18.3159
19.0435
19.8805
20.8588
22.0199
23.44
25.1959
27.569
30.5813
36.1463
42.4363
75.1939
6.99696
6.99973
7.00657
7.0169
7.03014
7.04608
7.06465
7.08574
7.10924
7.13503
7.16305
7.1932
7.22543
7.25969
7.29593
7.3341
7.37417
7.41612
7.45992
7.50556
7.55301
7.60228
7.65336
7.70624
7.76093
7.81744
7.87577
7.93594
7.99797
8.06186
8.12766
8.19537
8.26503
8.33668
8.41034
8.48605
8.56386
8.64382
8.72596
8.81035
8.89703
8.98608
9.07756
9.17153
9.26807
9.36727
9.4692
9.57396
9.68164
9.79235
9.9062
10.0233
10.1438
10.2678
10.3955
10.5271
10.6626
10.8023
10.9464
11.095
11.2485
11.407
11.5709
11.7403
11.9157
12.0974
12.2857
12.481
12.6838
12.8946
13.1139
13.3422
13.5773
13.8218
14.0826
14.362
14.6624
14.9865
15.3378
15.72
16.1382
16.5982
17.1077
17.6761
18.3159
19.0434
19.8805
20.8588
22.0199
23.4399
25.1957
27.5687
30.5809
36.1438
42.4155
74.5569
6.99696
6.99973
7.00657
7.0169
7.03014
7.04608
7.06465
7.08574
7.10924
7.13503
7.16305
7.1932
7.22543
7.25969
7.29593
7.3341
7.37417
7.41612
7.45992
7.50556
7.55301
7.60228
7.65336
7.70624
7.76093
7.81744
7.87577
7.93594
7.99797
8.06186
8.12766
8.19537
8.26503
8.33668
8.41034
8.48605
8.56386
8.64382
8.72596
8.81035
8.89703
8.98608
9.07756
9.17153
9.26807
9.36727
9.4692
9.57395
9.68164
9.79235
9.9062
10.0233
10.1438
10.2678
10.3955
10.5271
10.6626
10.8023
10.9464
11.095
11.2485
11.407
11.5709
11.7403
11.9157
12.0974
12.2857
12.481
12.6838
12.8946
13.1139
13.3422
13.5773
13.8218
14.0826
14.362
14.6624
14.9865
15.3378
15.72
16.1381
16.5982
17.1077
17.6761
18.3159
19.0434
19.8804
20.8587
22.0198
23.4397
25.1955
27.5682
30.5801
36.1398
42.3932
73.787
6.99696
6.99973
7.00657
7.0169
7.03014
7.04608
7.06465
7.08574
7.10924
7.13503
7.16305
7.1932
7.22543
7.25969
7.29593
7.3341
7.37417
7.41612
7.45992
7.50556
7.55301
7.60228
7.65336
7.70624
7.76093
7.81744
7.87577
7.93594
7.99797
8.06186
8.12766
8.19537
8.26503
8.33668
8.41034
8.48605
8.56386
8.64382
8.72596
8.81035
8.89703
8.98608
9.07756
9.17153
9.26807
9.36727
9.4692
9.57395
9.68164
9.79235
9.9062
10.0233
10.1438
10.2678
10.3955
10.5271
10.6626
10.8023
10.9464
11.095
11.2485
11.407
11.5709
11.7403
11.9157
12.0974
12.2857
12.481
12.6838
12.8946
13.1139
13.3422
13.5773
13.8218
14.0826
14.362
14.6624
14.9865
15.3377
15.72
16.1381
16.5982
17.1076
17.6761
18.3158
19.0433
19.8803
20.8586
22.0196
23.4394
25.1951
27.5674
30.5789
36.134
42.3731
73.0251
6.99696
6.99973
7.00657
7.0169
7.03014
7.04608
7.06465
7.08574
7.10924
7.13503
7.16305
7.1932
7.22543
7.25969
7.29593
7.3341
7.37417
7.41612
7.45992
7.50555
7.55301
7.60228
7.65336
7.70624
7.76093
7.81744
7.87577
7.93594
7.99797
8.06186
8.12766
8.19537
8.26503
8.33668
8.41034
8.48605
8.56386
8.64381
8.72596
8.81035
8.89703
8.98608
9.07756
9.17153
9.26807
9.36727
9.4692
9.57395
9.68164
9.79235
9.9062
10.0233
10.1438
10.2678
10.3955
10.5271
10.6626
10.8023
10.9464
11.095
11.2485
11.407
11.5709
11.7403
11.9157
12.0974
12.2856
12.481
12.6838
12.8946
13.1139
13.3422
13.5773
13.8217
14.0826
14.3619
14.6623
14.9865
15.3377
15.7199
16.1381
16.5981
17.1076
17.676
18.3157
19.0432
19.8802
20.8584
22.0193
23.439
25.1945
27.5663
30.5773
36.1264
42.3534
72.276
6.99696
6.99973
7.00657
7.0169
7.03014
7.04608
7.06465
7.08574
7.10924
7.13503
7.16305
7.1932
7.22543
7.25969
7.29593
7.3341
7.37417
7.41612
7.45992
7.50555
7.55301
7.60228
7.65336
7.70624
7.76093
7.81744
7.87577
7.93594
7.99797
8.06186
8.12766
8.19537
8.26503
8.33668
8.41034
8.48605
8.56386
8.64381
8.72596
8.81034
8.89703
8.98608
9.07756
9.17153
9.26807
9.36726
9.46919
9.57395
9.68163
9.79235
9.9062
10.0233
10.1438
10.2678
10.3955
10.5271
10.6626
10.8023
10.9464
11.095
11.2485
11.407
11.5709
11.7403
11.9157
12.0974
12.2856
12.481
12.6838
12.8945
13.1138
13.3422
13.5773
13.8217
14.0825
14.3619
14.6623
14.9865
15.3377
15.7199
16.138
16.598
17.1075
17.6759
18.3156
19.043
19.88
20.8581
22.019
23.4385
25.1938
27.5649
30.5752
36.117
42.3313
71.5304
6.99696
6.99973
7.00657
7.0169
7.03014
7.04608
7.06465
7.08574
7.10924
7.13503
7.16305
7.1932
7.22543
7.25969
7.29593
7.3341
7.37417
7.41612
7.45992
7.50555
7.55301
7.60228
7.65336
7.70624
7.76093
7.81744
7.87577
7.93594
7.99797
8.06186
8.12766
8.19537
8.26503
8.33667
8.41033
8.48605
8.56386
8.64381
8.72596
8.81034
8.89703
8.98608
9.07756
9.17153
9.26807
9.36726
9.46919
9.57395
9.68163
9.79234
9.9062
10.0233
10.1438
10.2678
10.3955
10.5271
10.6626
10.8023
10.9463
11.095
11.2485
11.407
11.5709
11.7403
11.9157
12.0973
12.2856
12.4809
12.6838
12.8945
13.1138
13.3422
13.5773
13.8217
14.0825
14.3619
14.6623
14.9864
15.3376
15.7198
16.138
16.598
17.1074
17.6758
18.3155
19.0429
19.8798
20.8578
22.0185
23.4379
25.1929
27.5632
30.5727
36.1055
42.3057
70.7858
6.99696
6.99973
7.00657
7.0169
7.03014
7.04608
7.06465
7.08574
7.10924
7.13503
7.16304
7.1932
7.22543
7.25969
7.29593
7.3341
7.37417
7.41612
7.45992
7.50555
7.55301
7.60228
7.65336
7.70624
7.76093
7.81744
7.87577
7.93594
7.99797
8.06186
8.12766
8.19537
8.26503
8.33667
8.41033
8.48605
8.56386
8.64381
8.72596
8.81034
8.89703
8.98608
9.07755
9.17153
9.26807
9.36726
9.46919
9.57395
9.68163
9.79234
9.90619
10.0233
10.1438
10.2678
10.3955
10.527
10.6626
10.8023
10.9463
11.095
11.2485
11.407
11.5708
11.7403
11.9157
12.0973
12.2856
12.4809
12.6837
12.8945
13.1138
13.3422
13.5772
13.8217
14.0825
14.3619
14.6622
14.9864
15.3376
15.7198
16.1379
16.5979
17.1073
17.6756
18.3153
19.0427
19.8795
20.8574
22.018
23.4372
25.1918
27.5612
30.5697
36.092
42.2764
70.0414
6.99696
6.99973
7.00657
7.0169
7.03014
7.04608
7.06465
7.08574
7.10924
7.13503
7.16304
7.1932
7.22543
7.25969
7.29592
7.3341
7.37417
7.41612
7.45992
7.50555
7.55301
7.60228
7.65336
7.70624
7.76093
7.81744
7.87577
7.93594
7.99797
8.06186
8.12765
8.19537
8.26503
8.33667
8.41033
8.48605
8.56386
8.64381
8.72595
8.81034
8.89703
8.98608
9.07755
9.17152
9.26807
9.36726
9.46919
9.57394
9.68163
9.79234
9.90619
10.0233
10.1438
10.2678
10.3955
10.527
10.6626
10.8023
10.9463
11.095
11.2485
11.407
11.5708
11.7403
11.9157
12.0973
12.2856
12.4809
12.6837
12.8945
13.1138
13.3421
13.5772
13.8216
14.0824
14.3618
14.6622
14.9863
15.3375
15.7197
16.1378
16.5978
17.1071
17.6755
18.3151
19.0424
19.8792
20.857
22.0175
23.4363
25.1905
27.5588
30.5661
36.0764
42.2435
69.2971
6.99696
6.99973
7.00657
7.0169
7.03014
7.04608
7.06465
7.08574
7.10924
7.13503
7.16304
7.1932
7.22543
7.25969
7.29592
7.3341
7.37417
7.41612
7.45992
7.50555
7.55301
7.60228
7.65335
7.70624
7.76093
7.81744
7.87577
7.93594
7.99796
8.06186
8.12765
8.19537
8.26503
8.33667
8.41033
8.48605
8.56386
8.64381
8.72595
8.81034
8.89703
8.98608
9.07755
9.17152
9.26806
9.36726
9.46918
9.57394
9.68162
9.79233
9.90618
10.0233
10.1438
10.2678
10.3955
10.527
10.6626
10.8023
10.9463
11.095
11.2484
11.407
11.5708
11.7403
11.9157
12.0973
12.2856
12.4809
12.6837
12.8945
13.1137
13.3421
13.5772
13.8216
14.0824
14.3618
14.6621
14.9862
15.3374
15.7196
16.1377
16.5976
17.107
17.6753
18.3149
19.0421
19.8788
20.8565
22.0168
23.4353
25.189
27.5561
30.562
36.0586
42.2068
68.5531
6.99696
6.99973
7.00657
7.0169
7.03014
7.04608
7.06465
7.08574
7.10924
7.13503
7.16304
7.1932
7.22543
7.25969
7.29592
7.3341
7.37417
7.41612
7.45992
7.50555
7.55301
7.60228
7.65335
7.70624
7.76093
7.81744
7.87577
7.93594
7.99796
8.06186
8.12765
8.19537
8.26503
8.33667
8.41033
8.48604
8.56386
8.64381
8.72595
8.81034
8.89702
8.98607
9.07755
9.17152
9.26806
9.36725
9.46918
9.57394
9.68162
9.79233
9.90618
10.0233
10.1438
10.2678
10.3955
10.527
10.6625
10.8022
10.9463
11.095
11.2484
11.407
11.5708
11.7403
11.9156
12.0973
12.2856
12.4809
12.6837
12.8944
13.1137
13.3421
13.5771
13.8215
14.0824
14.3617
14.662
14.9862
15.3373
15.7195
16.1376
16.5975
17.1068
17.6751
18.3146
19.0418
19.8784
20.856
22.016
23.4342
25.1874
27.553
30.5573
36.0386
42.1663
67.8096
6.99696
6.99973
7.00657
7.0169
7.03014
7.04608
7.06465
7.08574
7.10924
7.13503
7.16304
7.1932
7.22543
7.25969
7.29592
7.3341
7.37417
7.41612
7.45992
7.50555
7.55301
7.60228
7.65335
7.70624
7.76093
7.81744
7.87577
7.93594
7.99796
8.06186
8.12765
8.19536
8.26503
8.33667
8.41033
8.48604
8.56385
8.64381
8.72595
8.81034
8.89702
8.98607
9.07754
9.17152
9.26806
9.36725
9.46918
9.57393
9.68161
9.79232
9.90617
10.0233
10.1438
10.2678
10.3955
10.527
10.6625
10.8022
10.9463
11.095
11.2484
11.4069
11.5708
11.7402
11.9156
12.0973
12.2855
12.4808
12.6836
12.8944
13.1137
13.342
13.5771
13.8215
14.0823
14.3616
14.662
14.9861
15.3372
15.7194
16.1374
16.5973
17.1066
17.6749
18.3143
19.0414
19.8779
20.8553
22.0151
23.4329
25.1855
27.5495
30.5519
36.0163
42.122
67.067
6.99696
6.99973
7.00657
7.01689
7.03014
7.04608
7.06465
7.08574
7.10923
7.13503
7.16304
7.1932
7.22543
7.25969
7.29592
7.33409
7.37417
7.41612
7.45992
7.50555
7.55301
7.60228
7.65335
7.70624
7.76093
7.81744
7.87577
7.93594
7.99796
8.06186
8.12765
8.19536
8.26502
8.33667
8.41033
8.48604
8.56385
8.6438
8.72595
8.81033
8.89702
8.98607
9.07754
9.17151
9.26805
9.36724
9.46917
9.57393
9.68161
9.79232
9.90617
10.0233
10.1438
10.2678
10.3955
10.527
10.6625
10.8022
10.9463
11.0949
11.2484
11.4069
11.5708
11.7402
11.9156
12.0972
12.2855
12.4808
12.6836
12.8944
13.1136
13.342
13.577
13.8214
14.0822
14.3616
14.6619
14.986
15.3371
15.7193
16.1373
16.5972
17.1064
17.6746
18.314
19.041
19.8774
20.8546
22.0142
23.4314
25.1834
27.5455
30.546
35.9917
42.0736
66.3255
6.99696
6.99973
7.00657
7.01689
7.03014
7.04608
7.06465
7.08574
7.10923
7.13503
7.16304
7.1932
7.22543
7.25969
7.29592
7.33409
7.37417
7.41612
7.45992
7.50555
7.55301
7.60228
7.65335
7.70624
7.76093
7.81743
7.87577
7.93594
7.99796
8.06186
8.12765
8.19536
8.26502
8.33667
8.41033
8.48604
8.56385
8.6438
8.72594
8.81033
8.89702
8.98606
9.07754
9.17151
9.26805
9.36724
9.46917
9.57392
9.6816
9.79231
9.90616
10.0233
10.1438
10.2678
10.3955
10.527
10.6625
10.8022
10.9463
11.0949
11.2484
11.4069
11.5708
11.7402
11.9156
12.0972
12.2855
12.4808
12.6836
12.8943
13.1136
13.3419
13.577
13.8214
14.0822
14.3615
14.6618
14.9859
15.337
15.7191
16.1371
16.5969
17.1062
17.6743
18.3136
19.0405
19.8768
20.8538
22.0131
23.4298
25.181
27.5411
30.5393
35.9647
42.0211
65.5853
6.99696
6.99973
7.00657
7.01689
7.03014
7.04608
7.06465
7.08574
7.10923
7.13503
7.16304
7.1932
7.22543
7.25969
7.29592
7.33409
7.37417
7.41612
7.45992
7.50555
7.55301
7.60228
7.65335
7.70623
7.76093
7.81743
7.87577
7.93594
7.99796
8.06186
8.12765
8.19536
8.26502
8.33666
8.41032
8.48604
8.56385
8.6438
8.72594
8.81033
8.89701
8.98606
9.07753
9.1715
9.26804
9.36724
9.46916
9.57392
9.6816
9.79231
9.90615
10.0233
10.1438
10.2678
10.3955
10.527
10.6625
10.8022
10.9463
11.0949
11.2484
11.4069
11.5707
11.7402
11.9155
12.0972
12.2854
12.4807
12.6835
12.8943
13.1135
13.3419
13.5769
13.8213
14.0821
14.3614
14.6617
14.9858
15.3369
15.719
16.1369
16.5967
17.1059
17.674
18.3132
19.04
19.8761
20.8529
22.0119
23.4281
25.1784
27.5363
30.5319
35.9354
41.9644
64.8469
6.99696
6.99973
7.00657
7.01689
7.03014
7.04608
7.06465
7.08574
7.10923
7.13503
7.16304
7.1932
7.22543
7.25969
7.29592
7.33409
7.37417
7.41611
7.45992
7.50555
7.55301
7.60227
7.65335
7.70623
7.76093
7.81743
7.87576
7.93593
7.99796
8.06185
8.12765
8.19536
8.26502
8.33666
8.41032
8.48603
8.56384
8.6438
8.72594
8.81032
8.89701
8.98606
9.07753
9.1715
9.26804
9.36723
9.46916
9.57391
9.68159
9.7923
9.90615
10.0233
10.1437
10.2678
10.3955
10.527
10.6625
10.8022
10.9462
11.0949
11.2484
11.4069
11.5707
11.7401
11.9155
12.0971
12.2854
12.4807
12.6835
12.8942
13.1135
13.3418
13.5768
13.8212
14.082
14.3613
14.6616
14.9856
15.3367
15.7188
16.1367
16.5965
17.1056
17.6736
18.3128
19.0395
19.8754
20.8519
22.0105
23.4261
25.1755
27.531
30.5237
35.9036
41.9033
64.1104
6.99696
6.99973
7.00657
7.01689
7.03014
7.04608
7.06465
7.08574
7.10923
7.13503
7.16304
7.1932
7.22543
7.25969
7.29592
7.33409
7.37417
7.41611
7.45991
7.50555
7.55301
7.60227
7.65335
7.70623
7.76092
7.81743
7.87576
7.93593
7.99796
8.06185
8.12764
8.19536
8.26502
8.33666
8.41032
8.48603
8.56384
8.64379
8.72594
8.81032
8.89701
8.98605
9.07753
9.17149
9.26803
9.36722
9.46915
9.5739
9.68158
9.79229
9.90614
10.0232
10.1437
10.2678
10.3954
10.527
10.6625
10.8022
10.9462
11.0949
11.2483
11.4068
11.5707
11.7401
11.9155
12.0971
12.2854
12.4807
12.6834
12.8942
13.1134
13.3417
13.5768
13.8211
14.0819
14.3612
14.6615
14.9855
15.3365
15.7186
16.1365
16.5962
17.1053
17.6732
18.3123
19.0388
19.8746
20.8509
22.0091
23.424
25.1724
27.5252
30.5148
35.8693
41.8378
63.3761
6.99696
6.99973
7.00657
7.01689
7.03013
7.04608
7.06465
7.08574
7.10923
7.13503
7.16304
7.1932
7.22543
7.25969
7.29592
7.33409
7.37417
7.41611
7.45991
7.50555
7.553
7.60227
7.65335
7.70623
7.76092
7.81743
7.87576
7.93593
7.99795
8.06185
8.12764
8.19535
8.26502
8.33666
8.41032
8.48603
8.56384
8.64379
8.72593
8.81032
8.897
8.98605
9.07752
9.17149
9.26803
9.36722
9.46914
9.5739
9.68157
9.79228
9.90613
10.0232
10.1437
10.2677
10.3954
10.5269
10.6625
10.8021
10.9462
11.0949
11.2483
11.4068
11.5706
11.7401
11.9154
12.0971
12.2853
12.4806
12.6834
12.8941
13.1134
13.3417
13.5767
13.821
14.0818
14.3611
14.6613
14.9853
15.3364
15.7184
16.1362
16.5959
17.1049
17.6728
18.3118
19.0382
19.8737
20.8497
22.0075
23.4216
25.169
27.5189
30.505
35.8325
41.7678
62.6443
6.99696
6.99973
7.00657
7.01689
7.03013
7.04608
7.06465
7.08574
7.10923
7.13503
7.16304
7.19319
7.22543
7.25969
7.29592
7.33409
7.37416
7.41611
7.45991
7.50555
7.553
7.60227
7.65335
7.70623
7.76092
7.81743
7.87576
7.93593
7.99795
8.06185
8.12764
8.19535
8.26501
8.33666
8.41031
8.48603
8.56384
8.64379
8.72593
8.81031
8.897
8.98604
9.07752
9.17148
9.26802
9.36721
9.46914
9.57389
9.68157
9.79227
9.90612
10.0232
10.1437
10.2677
10.3954
10.5269
10.6624
10.8021
10.9462
11.0948
11.2483
11.4068
11.5706
11.7401
11.9154
12.097
12.2853
12.4806
12.6833
12.8941
13.1133
13.3416
13.5766
13.8209
14.0817
14.3609
14.6612
14.9852
15.3362
15.7181
16.136
16.5956
17.1045
17.6723
18.3112
19.0374
19.8728
20.8485
22.0058
23.4191
25.1652
27.512
30.4944
35.7932
41.6932
61.9152
6.99696
6.99973
7.00657
7.01689
7.03013
7.04608
7.06464
7.08573
7.10923
7.13503
7.16304
7.19319
7.22543
7.25969
7.29592
7.33409
7.37416
7.41611
7.45991
7.50555
7.553
7.60227
7.65335
7.70623
7.76092
7.81743
7.87576
7.93593
7.99795
8.06185
8.12764
8.19535
8.26501
8.33665
8.41031
8.48602
8.56383
8.64378
8.72592
8.81031
8.89699
8.98604
9.07751
9.17148
9.26802
9.3672
9.46913
9.57388
9.68156
9.79226
9.90611
10.0232
10.1437
10.2677
10.3954
10.5269
10.6624
10.8021
10.9462
11.0948
11.2483
11.4068
11.5706
11.74
11.9154
12.097
12.2852
12.4805
12.6833
12.894
13.1132
13.3415
13.5765
13.8208
14.0815
14.3608
14.661
14.985
15.3359
15.7179
16.1357
16.5952
17.1041
17.6718
18.3105
19.0366
19.8717
20.8471
22.0039
23.4164
25.1612
27.5046
30.4828
35.7512
41.6139
61.1891
6.99696
6.99972
7.00657
7.01689
7.03013
7.04608
7.06464
7.08573
7.10923
7.13503
7.16304
7.19319
7.22543
7.25968
7.29592
7.33409
7.37416
7.41611
7.45991
7.50555
7.553
7.60227
7.65334
7.70623
7.76092
7.81743
7.87576
7.93593
7.99795
8.06184
8.12764
8.19535
8.26501
8.33665
8.41031
8.48602
8.56383
8.64378
8.72592
8.8103
8.89699
8.98603
9.0775
9.17147
9.26801
9.3672
9.46912
9.57387
9.68155
9.79225
9.90609
10.0232
10.1437
10.2677
10.3954
10.5269
10.6624
10.8021
10.9461
11.0948
11.2482
11.4067
11.5705
11.74
11.9153
12.0969
12.2852
12.4804
12.6832
12.8939
13.1131
13.3414
13.5764
13.8207
14.0814
14.3606
14.6608
14.9848
15.3357
15.7176
16.1353
16.5949
17.1037
17.6713
18.3099
19.0358
19.8706
20.8456
22.0019
23.4134
25.1568
27.4966
30.4703
35.7066
41.5298
60.4662
6.99696
6.99972
7.00657
7.01689
7.03013
7.04608
7.06464
7.08573
7.10923
7.13503
7.16304
7.19319
7.22543
7.25968
7.29592
7.33409
7.37416
7.41611
7.45991
7.50554
7.553
7.60227
7.65334
7.70623
7.76092
7.81742
7.87575
7.93592
7.99795
8.06184
8.12763
8.19534
8.265
8.33665
8.4103
8.48602
8.56382
8.64377
8.72591
8.8103
8.89698
8.98603
9.0775
9.17146
9.268
9.36719
9.46911
9.57386
9.68153
9.79224
9.90608
10.0232
10.1437
10.2677
10.3954
10.5269
10.6624
10.8021
10.9461
11.0947
11.2482
11.4067
11.5705
11.7399
11.9153
12.0969
12.2851
12.4804
12.6831
12.8938
13.113
13.3413
13.5763
13.8206
14.0813
14.3605
14.6606
14.9846
15.3355
15.7173
16.135
16.5945
17.1032
17.6707
18.3091
19.0348
19.8694
20.844
21.9997
23.4102
25.1521
27.488
30.4568
35.6593
41.441
59.7468
6.99696
6.99972
7.00656
7.01689
7.03013
7.04608
7.06464
7.08573
7.10923
7.13503
7.16304
7.19319
7.22543
7.25968
7.29592
7.33409
7.37416
7.41611
7.45991
7.50554
7.553
7.60227
7.65334
7.70622
7.76091
7.81742
7.87575
7.93592
7.99794
8.06184
8.12763
8.19534
8.265
8.33664
8.4103
8.48601
8.56382
8.64377
8.72591
8.81029
8.89698
8.98602
9.07749
9.17146
9.26799
9.36718
9.4691
9.57385
9.68152
9.79222
9.90607
10.0232
10.1437
10.2677
10.3953
10.5269
10.6624
10.802
10.9461
11.0947
11.2482
11.4066
11.5705
11.7399
11.9152
12.0968
12.285
12.4803
12.683
12.8937
13.1129
13.3412
13.5761
13.8204
14.0811
14.3603
14.6604
14.9843
15.3352
15.717
16.1346
16.594
17.1027
17.67
18.3083
19.0338
19.8681
20.8423
21.9973
23.4068
25.147
27.4788
30.4422
35.6093
41.3472
59.0311
6.99696
6.99972
7.00656
7.01689
7.03013
7.04608
7.06464
7.08573
7.10923
7.13503
7.16304
7.19319
7.22542
7.25968
7.29592
7.33409
7.37416
7.41611
7.45991
7.50554
7.553
7.60226
7.65334
7.70622
7.76091
7.81742
7.87575
7.93592
7.99794
8.06184
8.12763
8.19534
8.265
8.33664
8.4103
8.48601
8.56381
8.64376
8.7259
8.81029
8.89697
8.98601
9.07748
9.17145
9.26798
9.36717
9.46909
9.57384
9.68151
9.79221
9.90605
10.0231
10.1436
10.2676
10.3953
10.5268
10.6623
10.802
10.946
11.0947
11.2481
11.4066
11.5704
11.7398
11.9152
12.0968
12.285
12.4802
12.683
12.8936
13.1128
13.3411
13.576
13.8203
14.0809
14.3601
14.6602
14.9841
15.3349
15.7167
16.1342
16.5936
17.1021
17.6693
18.3075
19.0328
19.8667
20.8404
21.9948
23.4031
25.1416
27.4689
30.4266
35.5566
41.2486
58.3194
6.99696
6.99972
7.00656
7.01689
7.03013
7.04608
7.06464
7.08573
7.10923
7.13503
7.16304
7.19319
7.22542
7.25968
7.29591
7.33408
7.37416
7.41611
7.45991
7.50554
7.553
7.60226
7.65334
7.70622
7.76091
7.81742
7.87575
7.93592
7.99794
8.06183
8.12762
8.19533
8.26499
8.33663
8.41029
8.486
8.56381
8.64376
8.7259
8.81028
8.89696
8.986
9.07747
9.17144
9.26797
9.36716
9.46908
9.57382
9.6815
9.7922
9.90603
10.0231
10.1436
10.2676
10.3953
10.5268
10.6623
10.802
10.946
11.0946
11.2481
11.4066
11.5704
11.7398
11.9151
12.0967
12.2849
12.4801
12.6829
12.8935
13.1127
13.3409
13.5759
13.8201
14.0808
14.3599
14.66
14.9838
15.3346
15.7163
16.1338
16.5931
17.1015
17.6686
18.3066
19.0316
19.8653
20.8385
21.9921
23.3991
25.1358
27.4583
30.4098
35.501
41.1449
57.6119
6.99696
6.99972
7.00656
7.01689
7.03013
7.04607
7.06464
7.08573
7.10923
7.13502
7.16304
7.19319
7.22542
7.25968
7.29591
7.33408
7.37416
7.4161
7.4599
7.50554
7.55299
7.60226
7.65334
7.70622
7.76091
7.81741
7.87575
7.93591
7.99794
8.06183
8.12762
8.19533
8.26499
8.33663
8.41029
8.486
8.5638
8.64375
8.72589
8.81027
8.89695
8.986
9.07746
9.17143
9.26796
9.36715
9.46906
9.57381
9.68148
9.79218
9.90602
10.0231
10.1436
10.2676
10.3953
10.5268
10.6623
10.8019
10.946
11.0946
11.248
11.4065
11.5703
11.7397
11.915
12.0966
12.2848
12.4801
12.6828
12.8934
13.1126
13.3408
13.5757
13.82
14.0806
14.3597
14.6597
14.9835
15.3343
15.7159
16.1334
16.5925
17.1008
17.6678
18.3056
19.0304
19.8637
20.8364
21.9892
23.3949
25.1295
27.447
30.3918
35.4427
41.0361
56.9088
6.99696
6.99972
7.00656
7.01689
7.03013
7.04607
7.06464
7.08573
7.10923
7.13502
7.16303
7.19319
7.22542
7.25968
7.29591
7.33408
7.37416
7.4161
7.4599
7.50554
7.55299
7.60226
7.65333
7.70622
7.76091
7.81741
7.87574
7.93591
7.99793
8.06183
8.12762
8.19533
8.26499
8.33663
8.41028
8.48599
8.5638
8.64375
8.72588
8.81026
8.89695
8.98599
9.07745
9.17142
9.26795
9.36713
9.46905
9.5738
9.68146
9.79216
9.906
10.0231
10.1436
10.2676
10.3952
10.5267
10.6622
10.8019
10.9459
11.0946
11.248
11.4065
11.5703
11.7397
11.915
12.0965
12.2847
12.48
12.6827
12.8933
13.1125
13.3407
13.5756
13.8198
14.0804
14.3594
14.6595
14.9832
15.3339
15.7155
16.1329
16.5919
17.1002
17.667
18.3046
19.0291
19.862
20.8341
21.9861
23.3904
25.1229
27.435
30.3727
35.3814
40.9223
56.2103
6.99695
6.99972
7.00656
7.01689
7.03013
7.04607
7.06464
7.08573
7.10923
7.13502
7.16303
7.19319
7.22542
7.25968
7.29591
7.33408
7.37415
7.4161
7.4599
7.50553
7.55299
7.60226
7.65333
7.70621
7.7609
7.81741
7.87574
7.93591
7.99793
8.06182
8.12761
8.19532
8.26498
8.33662
8.41028
8.48599
8.56379
8.64374
8.72588
8.81026
8.89694
8.98598
9.07744
9.17141
9.26794
9.36712
9.46904
9.57378
9.68145
9.79214
9.90598
10.0231
10.1435
10.2675
10.3952
10.5267
10.6622
10.8019
10.9459
11.0945
11.2479
11.4064
11.5702
11.7396
11.9149
12.0965
12.2846
12.4799
12.6825
12.8932
13.1123
13.3405
13.5754
13.8196
14.0801
14.3592
14.6592
14.9829
15.3335
15.7151
16.1324
16.5913
17.0994
17.6661
18.3034
19.0277
19.8602
20.8317
21.9828
23.3856
25.1158
27.4223
30.3522
35.3173
40.8033
55.5167
6.99695
6.99972
7.00656
7.01689
7.03013
7.04607
7.06464
7.08573
7.10922
7.13502
7.16303
7.19319
7.22542
7.25968
7.29591
7.33408
7.37415
7.4161
7.4599
7.50553
7.55299
7.60225
7.65333
7.70621
7.7609
7.81741
7.87574
7.9359
7.99793
8.06182
8.12761
8.19532
8.26498
8.33661
8.41027
8.48598
8.56378
8.64373
8.72587
8.81025
8.89693
8.98597
9.07743
9.17139
9.26793
9.36711
9.46902
9.57376
9.68143
9.79212
9.90596
10.023
10.1435
10.2675
10.3952
10.5267
10.6622
10.8018
10.9459
11.0945
11.2479
11.4063
11.5701
11.7395
11.9148
12.0964
12.2845
12.4798
12.6824
12.893
13.1122
13.3403
13.5752
13.8194
14.0799
14.3589
14.6589
14.9825
15.3331
15.7146
16.1318
16.5907
17.0986
17.6651
18.3023
19.0262
19.8582
20.8291
21.9793
23.3805
25.1082
27.4087
30.3304
35.2503
40.6791
54.8282
6.99695
6.99972
7.00656
7.01688
7.03013
7.04607
7.06464
7.08573
7.10922
7.13502
7.16303
7.19318
7.22542
7.25967
7.29591
7.33408
7.37415
7.4161
7.4599
7.50553
7.55299
7.60225
7.65333
7.70621
7.7609
7.8174
7.87573
7.9359
7.99792
8.06181
8.1276
8.19531
8.26497
8.33661
8.41026
8.48597
8.56378
8.64372
8.72586
8.81024
8.89692
8.98596
9.07742
9.17138
9.26791
9.36709
9.46901
9.57375
9.68141
9.7921
9.90593
10.023
10.1435
10.2675
10.3952
10.5266
10.6621
10.8018
10.9458
11.0944
11.2478
11.4063
11.5701
11.7394
11.9147
12.0963
12.2844
12.4796
12.6823
12.8929
13.112
13.3402
13.575
13.8191
14.0797
14.3586
14.6586
14.9822
15.3327
15.7141
16.1312
16.59
17.0978
17.6641
18.301
19.0246
19.8562
20.8264
21.9756
23.375
25.1002
27.3944
30.3072
35.1803
40.5498
54.145
6.99695
6.99972
7.00656
7.01688
7.03013
7.04607
7.06464
7.08573
7.10922
7.13502
7.16303
7.19318
7.22542
7.25967
7.29591
7.33408
7.37415
7.4161
7.45989
7.50553
7.55298
7.60225
7.65332
7.7062
7.76089
7.8174
7.87573
7.9359
7.99792
8.06181
8.1276
8.19531
8.26496
8.3366
8.41026
8.48597
8.56377
8.64371
8.72585
8.81023
8.89691
8.98595
9.07741
9.17137
9.2679
9.36708
9.46899
9.57373
9.68139
9.79208
9.90591
10.023
10.1435
10.2675
10.3951
10.5266
10.6621
10.8017
10.9458
11.0944
11.2478
11.4062
11.57
11.7394
11.9146
12.0962
12.2843
12.4795
12.6822
12.8928
13.1118
13.34
13.5748
13.8189
14.0794
14.3583
14.6582
14.9818
15.3323
15.7136
16.1306
16.5892
17.0969
17.663
18.2997
19.0229
19.854
20.8235
21.9716
23.3692
25.0916
27.3792
30.2826
35.1074
40.4152
53.4672
6.99695
6.99972
7.00656
7.01688
7.03012
7.04607
7.06463
7.08572
7.10922
7.13502
7.16303
7.19318
7.22541
7.25967
7.2959
7.33407
7.37415
7.41609
7.45989
7.50553
7.55298
7.60225
7.65332
7.7062
7.76089
7.8174
7.87573
7.93589
7.99791
8.06181
8.12759
8.1953
8.26496
8.3366
8.41025
8.48596
8.56376
8.64371
8.72584
8.81022
8.8969
8.98593
9.0774
9.17135
9.26788
9.36706
9.46897
9.57371
9.68137
9.79206
9.90588
10.023
10.1434
10.2674
10.3951
10.5266
10.662
10.8017
10.9457
11.0943
11.2477
11.4061
11.5699
11.7393
11.9145
12.0961
12.2842
12.4794
12.682
12.8926
13.1117
13.3398
13.5746
13.8187
14.0791
14.358
14.6579
14.9814
15.3318
15.713
16.1299
16.5885
17.096
17.6619
18.2982
19.0211
19.8517
20.8204
21.9674
23.3631
25.0826
27.3631
30.2566
35.0314
40.2754
52.795
6.99695
6.99972
7.00656
7.01688
7.03012
7.04607
7.06463
7.08572
7.10922
7.13502
7.16303
7.19318
7.22541
7.25967
7.2959
7.33407
7.37414
7.41609
7.45989
7.50552
7.55298
7.60224
7.65332
7.7062
7.76089
7.81739
7.87572
7.93589
7.99791
8.0618
8.12759
8.1953
8.26495
8.33659
8.41024
8.48595
8.56375
8.6437
8.72583
8.81021
8.89688
8.98592
9.07738
9.17134
9.26786
9.36704
9.46895
9.57369
9.68135
9.79203
9.90586
10.0229
10.1434
10.2674
10.395
10.5265
10.662
10.8016
10.9456
11.0942
11.2476
11.4061
11.5698
11.7392
11.9144
12.096
12.2841
12.4792
12.6819
12.8924
13.1115
13.3396
13.5743
13.8184
14.0788
14.3577
14.6575
14.9809
15.3313
15.7124
16.1292
16.5876
17.095
17.6606
18.2967
19.0192
19.8492
20.8171
21.9629
23.3566
25.073
27.3461
30.229
34.9525
40.1304
52.1287
6.99695
6.99971
7.00655
7.01688
7.03012
7.04607
7.06463
7.08572
7.10922
7.13501
7.16303
7.19318
7.22541
7.25967
7.2959
7.33407
7.37414
7.41609
7.45989
7.50552
7.55297
7.60224
7.65331
7.70619
7.76088
7.81739
7.87572
7.93588
7.9979
8.06179
8.12758
8.19529
8.26495
8.33658
8.41023
8.48594
8.56374
8.64369
8.72582
8.8102
8.89687
8.98591
9.07737
9.17132
9.26785
9.36702
9.46893
9.57366
9.68132
9.792
9.90583
10.0229
10.1434
10.2674
10.395
10.5265
10.6619
10.8016
10.9456
11.0942
11.2476
11.406
11.5697
11.7391
11.9143
12.0958
12.284
12.4791
12.6817
12.8922
13.1113
13.3393
13.5741
13.8181
14.0785
14.3573
14.6571
14.9804
15.3307
15.7118
16.1285
16.5867
17.0939
17.6593
18.2951
19.0172
19.8466
20.8137
21.9582
23.3497
25.0628
27.3282
30.1998
34.8705
39.9801
51.4683
6.99695
6.99971
7.00655
7.01688
7.03012
7.04606
7.06463
7.08572
7.10922
7.13501
7.16302
7.19318
7.22541
7.25967
7.2959
7.33407
7.37414
7.41609
7.45989
7.50552
7.55297
7.60224
7.65331
7.70619
7.76088
7.81738
7.87571
7.93588
7.9979
8.06179
8.12758
8.19528
8.26494
8.33657
8.41023
8.48593
8.56373
8.64368
8.72581
8.81018
8.89686
8.98589
9.07735
9.17131
9.26783
9.367
9.46891
9.57364
9.68129
9.79198
9.9058
10.0229
10.1433
10.2673
10.395
10.5264
10.6619
10.8015
10.9455
11.0941
11.2475
11.4059
11.5696
11.739
11.9142
12.0957
12.2838
12.4789
12.6815
12.8921
13.1111
13.3391
13.5738
13.8178
14.0782
14.3569
14.6566
14.9799
15.3301
15.7111
16.1277
16.5858
17.0928
17.658
18.2934
19.015
19.8439
20.81
21.9532
23.3425
25.0521
27.3093
30.169
34.7854
39.8246
50.8142
6.99695
6.99971
7.00655
7.01688
7.03012
7.04606
7.06463
7.08572
7.10921
7.13501
7.16302
7.19317
7.22541
7.25966
7.2959
7.33407
7.37414
7.41608
7.45988
7.50551
7.55297
7.60223
7.65331
7.70619
7.76088
7.81738
7.87571
7.93587
7.99789
8.06178
8.12757
8.19528
8.26493
8.33657
8.41022
8.48592
8.56372
8.64366
8.7258
8.81017
8.89684
8.98588
9.07733
9.17129
9.26781
9.36698
9.46888
9.57361
9.68127
9.79195
9.90576
10.0228
10.1433
10.2673
10.3949
10.5264
10.6618
10.8015
10.9455
11.094
11.2474
11.4058
11.5695
11.7389
11.9141
12.0956
12.2837
12.4788
12.6814
12.8919
13.1108
13.3388
13.5735
13.8175
14.0778
14.3565
14.6562
14.9794
15.3295
15.7104
16.1269
16.5848
17.0916
17.6565
18.2916
19.0128
19.8409
20.8061
21.9479
23.3348
25.0407
27.2895
30.1365
34.6973
39.6639
50.1663
6.99694
6.99971
7.00655
7.01688
7.03012
7.04606
7.06463
7.08572
7.10921
7.13501
7.16302
7.19317
7.2254
7.25966
7.29589
7.33406
7.37413
7.41608
7.45988
7.50551
7.55296
7.60223
7.6533
7.70618
7.76087
7.81737
7.8757
7.93587
7.99789
8.06178
8.12756
8.19527
8.26492
8.33656
8.41021
8.48591
8.56371
8.64365
8.72578
8.81016
8.89683
8.98586
9.07732
9.17127
9.26779
9.36696
9.46886
9.57359
9.68124
9.79191
9.90573
10.0228
10.1433
10.2672
10.3949
10.5263
10.6618
10.8014
10.9454
11.094
11.2473
11.4057
11.5694
11.7388
11.914
12.0954
12.2835
12.4786
12.6812
12.8916
13.1106
13.3386
13.5732
13.8172
14.0774
14.3561
14.6557
14.9789
15.3289
15.7097
16.126
16.5838
17.0903
17.655
18.2897
19.0104
19.8379
20.802
21.9423
23.3267
25.0288
27.2686
30.1022
34.6061
39.4981
49.5248
6.99694
6.99971
7.00655
7.01687
7.03012
7.04606
7.06463
7.08572
7.10921
7.13501
7.16302
7.19317
7.2254
7.25966
7.29589
7.33406
7.37413
7.41608
7.45988
7.50551
7.55296
7.60223
7.6533
7.70618
7.76087
7.81737
7.8757
7.93586
7.99788
8.06177
8.12755
8.19526
8.26491
8.33655
8.4102
8.4859
8.5637
8.64364
8.72577
8.81014
8.89681
8.98584
9.0773
9.17125
9.26777
9.36693
9.46883
9.57356
9.68121
9.79188
9.90569
10.0228
10.1432
10.2672
10.3948
10.5263
10.6617
10.8013
10.9453
11.0939
11.2472
11.4056
11.5693
11.7386
11.9138
12.0953
12.2834
12.4784
12.681
12.8914
13.1103
13.3383
13.5729
13.8168
14.077
14.3557
14.6552
14.9783
15.3282
15.7089
16.1251
16.5827
17.089
17.6534
18.2877
19.0078
19.8346
20.7977
21.9364
23.3182
25.0161
27.2466
30.0662
34.5118
39.3271
48.89
6.99694
6.99971
7.00655
7.01687
7.03011
7.04606
7.06462
7.08571
7.10921
7.13501
7.16302
7.19317
7.2254
7.25966
7.29589
7.33406
7.37413
7.41608
7.45987
7.5055
7.55296
7.60222
7.6533
7.70617
7.76086
7.81736
7.87569
7.93586
7.99787
8.06176
8.12755
8.19525
8.26491
8.33654
8.41019
8.48589
8.56369
8.64363
8.72576
8.81013
8.8968
8.98583