/*--------------------------------*- C++ -*----------------------------------*\
| =========                 |                                                 |
| \\      /  F ield         | OpenFOAM: The Open Source CFD Toolbox           |
|  \\    /   O peration     | Version:  v2012                                 |
|   \\  /    A nd           | Website:  www.openfoam.com                      |
|    \\/     M anipulation  |                                                 |
\*---------------------------------------------------------------------------*/
FoamFile
{
    version     2.0;
    format      ascii;
    class       volVectorField;
    location    "8.5";
    object      wallShearStress;
}
// * * * * * * * * * * * * * * * * * * * * * * * * * * * * * * * * * * * * * //

dimensions      [0 2 -2 0 0 0 0];


internalField   uniform (0 0 0);

boundaryField
{
    inlet
    {
        type            calculated;
        value           uniform (0 0 0);
    }
    outlet
    {
        type            calculated;
        value           uniform (0 0 0);
    }
    topWall
    {
        type            calculated;
        value           nonuniform List<vector> 
545
(
(9.47981e-09 -1.04661e-08 0)
(9.47551e-09 -2.9277e-08 0)
(9.46679e-09 -4.8834e-08 0)
(9.45383e-09 -6.78171e-08 0)
(9.43719e-09 -8.598e-08 0)
(9.41731e-09 -1.03554e-07 0)
(9.39445e-09 -1.20686e-07 0)
(9.36883e-09 -1.37368e-07 0)
(9.34071e-09 -1.53561e-07 0)
(9.31034e-09 -1.69264e-07 0)
(9.27795e-09 -1.84497e-07 0)
(9.24375e-09 -1.99278e-07 0)
(9.20794e-09 -2.13616e-07 0)
(9.17071e-09 -2.27522e-07 0)
(9.13223e-09 -2.41004e-07 0)
(9.09266e-09 -2.54075e-07 0)
(9.05215e-09 -2.66745e-07 0)
(9.01084e-09 -2.79025e-07 0)
(8.96887e-09 -2.90927e-07 0)
(8.92635e-09 -3.0246e-07 0)
(8.8834e-09 -3.13635e-07 0)
(8.84012e-09 -3.24463e-07 0)
(8.79661e-09 -3.34954e-07 0)
(8.75294e-09 -3.45118e-07 0)
(8.70922e-09 -3.54964e-07 0)
(8.6655e-09 -3.64503e-07 0)
(8.62186e-09 -3.73744e-07 0)
(8.57836e-09 -3.82695e-07 0)
(8.53506e-09 -3.91367e-07 0)
(8.49202e-09 -3.99767e-07 0)
(8.44927e-09 -4.07905e-07 0)
(8.40686e-09 -4.15788e-07 0)
(8.36483e-09 -4.23425e-07 0)
(8.32321e-09 -4.30823e-07 0)
(8.28205e-09 -4.37991e-07 0)
(8.24135e-09 -4.44935e-07 0)
(8.20116e-09 -4.51663e-07 0)
(8.16149e-09 -4.58182e-07 0)
(8.12235e-09 -4.64498e-07 0)
(8.08378e-09 -4.70619e-07 0)
(8.04577e-09 -4.7655e-07 0)
(8.00835e-09 -4.82297e-07 0)
(7.97153e-09 -4.87867e-07 0)
(7.93531e-09 -4.93266e-07 0)
(7.89969e-09 -4.98498e-07 0)
(7.86469e-09 -5.0357e-07 0)
(7.83031e-09 -5.08486e-07 0)
(7.79655e-09 -5.13252e-07 0)
(7.76341e-09 -5.17872e-07 0)
(7.73089e-09 -5.22352e-07 0)
(7.69899e-09 -5.26695e-07 0)
(7.66771e-09 -5.30906e-07 0)
(7.63704e-09 -5.3499e-07 0)
(7.60699e-09 -5.38951e-07 0)
(7.57755e-09 -5.42792e-07 0)
(7.54871e-09 -5.46517e-07 0)
(7.52046e-09 -5.5013e-07 0)
(7.49281e-09 -5.53635e-07 0)
(7.46575e-09 -5.57036e-07 0)
(7.43926e-09 -5.60334e-07 0)
(7.41335e-09 -5.63535e-07 0)
(7.388e-09 -5.6664e-07 0)
(7.3632e-09 -5.69653e-07 0)
(7.33896e-09 -5.72577e-07 0)
(7.31525e-09 -5.75415e-07 0)
(7.29208e-09 -5.78169e-07 0)
(7.26943e-09 -5.80842e-07 0)
(7.2473e-09 -5.83436e-07 0)
(7.22567e-09 -5.85955e-07 0)
(7.20454e-09 -5.88399e-07 0)
(7.18387e-09 -5.90773e-07 0)
(7.16384e-09 -5.93074e-07 0)
(7.14439e-09 -5.95286e-07 0)
(7.12523e-09 -5.9743e-07 0)
(7.10629e-09 -5.99547e-07 0)
(7.08743e-09 -6.01652e-07 0)
(7.06861e-09 -6.03745e-07 0)
(7.04982e-09 -6.05824e-07 0)
(7.03108e-09 -6.07886e-07 0)
(7.01237e-09 -6.09933e-07 0)
(6.99369e-09 -6.11966e-07 0)
(6.97506e-09 -6.13984e-07 0)
(6.95646e-09 -6.15987e-07 0)
(6.9379e-09 -6.17976e-07 0)
(6.91938e-09 -6.19951e-07 0)
(6.9009e-09 -6.21911e-07 0)
(6.88246e-09 -6.23857e-07 0)
(6.86407e-09 -6.25789e-07 0)
(6.84571e-09 -6.27707e-07 0)
(6.8274e-09 -6.29611e-07 0)
(6.80913e-09 -6.31502e-07 0)
(6.7909e-09 -6.33378e-07 0)
(6.77271e-09 -6.35242e-07 0)
(6.75461e-09 -6.3709e-07 0)
(6.73634e-09 -6.3893e-07 0)
(6.71903e-09 -6.40737e-07 0)
(6.70304e-09 -6.4239e-07 0)
(6.68759e-09 -6.43885e-07 0)
(6.67266e-09 -6.4534e-07 0)
(6.65782e-09 -6.46801e-07 0)
(6.64295e-09 -6.48273e-07 0)
(6.62803e-09 -6.49748e-07 0)
(6.61305e-09 -6.5122e-07 0)
(6.59802e-09 -6.5269e-07 0)
(6.58292e-09 -6.54161e-07 0)
(6.56777e-09 -6.55633e-07 0)
(6.55255e-09 -6.57105e-07 0)
(6.53728e-09 -6.58577e-07 0)
(6.52194e-09 -6.60048e-07 0)
(6.50655e-09 -6.6152e-07 0)
(6.4911e-09 -6.62992e-07 0)
(6.47559e-09 -6.64463e-07 0)
(6.46002e-09 -6.65935e-07 0)
(6.44438e-09 -6.67406e-07 0)
(6.42869e-09 -6.68878e-07 0)
(6.41294e-09 -6.70349e-07 0)
(6.39713e-09 -6.7182e-07 0)
(6.38126e-09 -6.73291e-07 0)
(6.36533e-09 -6.74762e-07 0)
(6.34934e-09 -6.76232e-07 0)
(6.33328e-09 -6.77703e-07 0)
(6.31717e-09 -6.79173e-07 0)
(6.301e-09 -6.80642e-07 0)
(6.28477e-09 -6.82112e-07 0)
(6.26848e-09 -6.83581e-07 0)
(6.25212e-09 -6.85049e-07 0)
(6.23571e-09 -6.86518e-07 0)
(6.21924e-09 -6.87986e-07 0)
(6.2027e-09 -6.89453e-07 0)
(6.18611e-09 -6.9092e-07 0)
(6.16945e-09 -6.92387e-07 0)
(6.15274e-09 -6.93853e-07 0)
(6.13596e-09 -6.95318e-07 0)
(6.11913e-09 -6.96783e-07 0)
(6.10223e-09 -6.98247e-07 0)
(6.08527e-09 -6.99711e-07 0)
(6.06825e-09 -7.01174e-07 0)
(6.05118e-09 -7.02636e-07 0)
(6.03404e-09 -7.04098e-07 0)
(6.01684e-09 -7.05559e-07 0)
(5.99958e-09 -7.07019e-07 0)
(5.98226e-09 -7.08479e-07 0)
(5.96488e-09 -7.09938e-07 0)
(5.94744e-09 -7.11396e-07 0)
(5.92994e-09 -7.12853e-07 0)
(5.91238e-09 -7.14309e-07 0)
(5.89475e-09 -7.15764e-07 0)
(5.87707e-09 -7.17218e-07 0)
(5.85933e-09 -7.18672e-07 0)
(5.84153e-09 -7.20124e-07 0)
(5.82366e-09 -7.21576e-07 0)
(5.80574e-09 -7.23026e-07 0)
(5.78776e-09 -7.24475e-07 0)
(5.76971e-09 -7.25923e-07 0)
(5.75161e-09 -7.27371e-07 0)
(5.73345e-09 -7.28816e-07 0)
(5.71522e-09 -7.30261e-07 0)
(5.69694e-09 -7.31705e-07 0)
(5.6786e-09 -7.33147e-07 0)
(5.66019e-09 -7.34588e-07 0)
(5.64173e-09 -7.36028e-07 0)
(5.62321e-09 -7.37466e-07 0)
(5.60463e-09 -7.38903e-07 0)
(5.58599e-09 -7.40339e-07 0)
(5.56729e-09 -7.41773e-07 0)
(5.54853e-09 -7.43206e-07 0)
(5.52971e-09 -7.44637e-07 0)
(5.51083e-09 -7.46067e-07 0)
(5.49189e-09 -7.47495e-07 0)
(5.4729e-09 -7.48922e-07 0)
(5.45384e-09 -7.50347e-07 0)
(5.43473e-09 -7.51771e-07 0)
(5.41556e-09 -7.53192e-07 0)
(5.39633e-09 -7.54613e-07 0)
(5.37704e-09 -7.56031e-07 0)
(5.35769e-09 -7.57448e-07 0)
(5.33829e-09 -7.58863e-07 0)
(5.31882e-09 -7.60276e-07 0)
(5.2993e-09 -7.61687e-07 0)
(5.27972e-09 -7.63096e-07 0)
(5.26009e-09 -7.64504e-07 0)
(5.24039e-09 -7.65909e-07 0)
(5.22064e-09 -7.67313e-07 0)
(5.20083e-09 -7.68714e-07 0)
(5.18097e-09 -7.70114e-07 0)
(5.16105e-09 -7.71511e-07 0)
(5.14107e-09 -7.72906e-07 0)
(5.12104e-09 -7.74299e-07 0)
(5.10094e-09 -7.7569e-07 0)
(5.0808e-09 -7.77079e-07 0)
(5.0606e-09 -7.78466e-07 0)
(5.04034e-09 -7.7985e-07 0)
(5.02002e-09 -7.81232e-07 0)
(4.99965e-09 -7.82611e-07 0)
(4.97923e-09 -7.83989e-07 0)
(4.95875e-09 -7.85363e-07 0)
(4.93822e-09 -7.86736e-07 0)
(4.91763e-09 -7.88106e-07 0)
(4.89698e-09 -7.89473e-07 0)
(4.87629e-09 -7.90838e-07 0)
(4.85554e-09 -7.922e-07 0)
(4.83473e-09 -7.9356e-07 0)
(4.81388e-09 -7.94917e-07 0)
(4.79296e-09 -7.96271e-07 0)
(4.772e-09 -7.97623e-07 0)
(4.75098e-09 -7.98971e-07 0)
(4.72992e-09 -8.00317e-07 0)
(4.7088e-09 -8.01661e-07 0)
(4.68762e-09 -8.03001e-07 0)
(4.6664e-09 -8.04338e-07 0)
(4.64512e-09 -8.05673e-07 0)
(4.6238e-09 -8.07004e-07 0)
(4.60242e-09 -8.08333e-07 0)
(4.58099e-09 -8.09658e-07 0)
(4.55952e-09 -8.10981e-07 0)
(4.53799e-09 -8.123e-07 0)
(4.51641e-09 -8.13616e-07 0)
(4.49479e-09 -8.14929e-07 0)
(4.47311e-09 -8.16239e-07 0)
(4.45139e-09 -8.17545e-07 0)
(4.42962e-09 -8.18848e-07 0)
(4.4078e-09 -8.20148e-07 0)
(4.38593e-09 -8.21444e-07 0)
(4.36401e-09 -8.22737e-07 0)
(4.34205e-09 -8.24027e-07 0)
(4.32004e-09 -8.25313e-07 0)
(4.29799e-09 -8.26596e-07 0)
(4.27589e-09 -8.27875e-07 0)
(4.25374e-09 -8.2915e-07 0)
(4.23155e-09 -8.30422e-07 0)
(4.20932e-09 -8.3169e-07 0)
(4.18704e-09 -8.32954e-07 0)
(4.16471e-09 -8.34215e-07 0)
(4.14234e-09 -8.35472e-07 0)
(4.11993e-09 -8.36724e-07 0)
(4.09748e-09 -8.37974e-07 0)
(4.07498e-09 -8.39219e-07 0)
(4.05245e-09 -8.4046e-07 0)
(4.02987e-09 -8.41697e-07 0)
(4.00724e-09 -8.42931e-07 0)
(3.98458e-09 -8.4416e-07 0)
(3.96188e-09 -8.45385e-07 0)
(3.93914e-09 -8.46606e-07 0)
(3.91636e-09 -8.47823e-07 0)
(3.89354e-09 -8.49035e-07 0)
(3.87068e-09 -8.50244e-07 0)
(3.84778e-09 -8.51448e-07 0)
(3.82485e-09 -8.52648e-07 0)
(3.80188e-09 -8.53843e-07 0)
(3.77887e-09 -8.55034e-07 0)
(3.75582e-09 -8.56221e-07 0)
(3.73274e-09 -8.57403e-07 0)
(3.70963e-09 -8.5858e-07 0)
(3.68648e-09 -8.59753e-07 0)
(3.66329e-09 -8.60921e-07 0)
(3.64008e-09 -8.62085e-07 0)
(3.61683e-09 -8.63244e-07 0)
(3.59354e-09 -8.64399e-07 0)
(3.57023e-09 -8.65548e-07 0)
(3.54688e-09 -8.66693e-07 0)
(3.5235e-09 -8.67833e-07 0)
(3.50009e-09 -8.68968e-07 0)
(3.47665e-09 -8.70098e-07 0)
(3.45318e-09 -8.71223e-07 0)
(3.42969e-09 -8.72343e-07 0)
(3.40615e-09 -8.73459e-07 0)
(3.38263e-09 -8.74568e-07 0)
(3.35891e-09 -8.75675e-07 0)
(3.33588e-09 -8.76768e-07 0)
(3.31382e-09 -8.77806e-07 0)
(3.29209e-09 -8.78788e-07 0)
(3.27063e-09 -8.79759e-07 0)
(3.24907e-09 -8.80737e-07 0)
(3.22734e-09 -8.81723e-07 0)
(3.20539e-09 -8.82713e-07 0)
(3.18325e-09 -8.83707e-07 0)
(3.16089e-09 -8.84703e-07 0)
(3.13831e-09 -8.85704e-07 0)
(3.11553e-09 -8.86708e-07 0)
(3.09253e-09 -8.87716e-07 0)
(3.06931e-09 -8.88727e-07 0)
(3.04588e-09 -8.89741e-07 0)
(3.02223e-09 -8.90759e-07 0)
(2.99836e-09 -8.91779e-07 0)
(2.97428e-09 -8.92803e-07 0)
(2.94997e-09 -8.93829e-07 0)
(2.92544e-09 -8.94857e-07 0)
(2.90068e-09 -8.95889e-07 0)
(2.8757e-09 -8.96922e-07 0)
(2.8505e-09 -8.97958e-07 0)
(2.82507e-09 -8.98995e-07 0)
(2.79942e-09 -9.00035e-07 0)
(2.77354e-09 -9.01076e-07 0)
(2.74743e-09 -9.02118e-07 0)
(2.7211e-09 -9.03162e-07 0)
(2.69453e-09 -9.04207e-07 0)
(2.66774e-09 -9.05253e-07 0)
(2.64071e-09 -9.063e-07 0)
(2.61346e-09 -9.07347e-07 0)
(2.58598e-09 -9.08395e-07 0)
(2.55826e-09 -9.09443e-07 0)
(2.53031e-09 -9.1049e-07 0)
(2.50214e-09 -9.11538e-07 0)
(2.47373e-09 -9.12585e-07 0)
(2.44509e-09 -9.13631e-07 0)
(2.41622e-09 -9.14676e-07 0)
(2.38711e-09 -9.1572e-07 0)
(2.35778e-09 -9.16762e-07 0)
(2.32821e-09 -9.17803e-07 0)
(2.29842e-09 -9.18841e-07 0)
(2.26839e-09 -9.19878e-07 0)
(2.23814e-09 -9.20912e-07 0)
(2.20765e-09 -9.21942e-07 0)
(2.17694e-09 -9.2297e-07 0)
(2.146e-09 -9.23994e-07 0)
(2.11484e-09 -9.25015e-07 0)
(2.08344e-09 -9.26032e-07 0)
(2.05183e-09 -9.27044e-07 0)
(2.01999e-09 -9.28051e-07 0)
(1.98793e-09 -9.29053e-07 0)
(1.95564e-09 -9.3005e-07 0)
(1.92314e-09 -9.31042e-07 0)
(1.89042e-09 -9.32027e-07 0)
(1.85749e-09 -9.33006e-07 0)
(1.82434e-09 -9.33977e-07 0)
(1.79098e-09 -9.34942e-07 0)
(1.75741e-09 -9.35899e-07 0)
(1.72364e-09 -9.36848e-07 0)
(1.68966e-09 -9.37789e-07 0)
(1.65547e-09 -9.38721e-07 0)
(1.62109e-09 -9.39644e-07 0)
(1.58651e-09 -9.40557e-07 0)
(1.55174e-09 -9.41461e-07 0)
(1.51678e-09 -9.42353e-07 0)
(1.48163e-09 -9.43235e-07 0)
(1.4463e-09 -9.44105e-07 0)
(1.41079e-09 -9.44964e-07 0)
(1.3751e-09 -9.4581e-07 0)
(1.33924e-09 -9.46644e-07 0)
(1.30321e-09 -9.47464e-07 0)
(1.26702e-09 -9.4827e-07 0)
(1.23067e-09 -9.49062e-07 0)
(1.19417e-09 -9.4984e-07 0)
(1.15752e-09 -9.50602e-07 0)
(1.12072e-09 -9.51348e-07 0)
(1.08378e-09 -9.52078e-07 0)
(1.04672e-09 -9.52791e-07 0)
(1.00952e-09 -9.53487e-07 0)
(9.72205e-10 -9.54165e-07 0)
(9.34773e-10 -9.54824e-07 0)
(8.97232e-10 -9.55464e-07 0)
(8.59588e-10 -9.56085e-07 0)
(8.21848e-10 -9.56685e-07 0)
(7.8402e-10 -9.57265e-07 0)
(7.4611e-10 -9.57823e-07 0)
(7.08125e-10 -9.58359e-07 0)
(6.70074e-10 -9.58873e-07 0)
(6.31964e-10 -9.59364e-07 0)
(5.93802e-10 -9.59831e-07 0)
(5.55598e-10 -9.60273e-07 0)
(5.1736e-10 -9.60691e-07 0)
(4.79095e-10 -9.61082e-07 0)
(4.40814e-10 -9.61448e-07 0)
(4.02525e-10 -9.61787e-07 0)
(3.64238e-10 -9.62098e-07 0)
(3.25962e-10 -9.62381e-07 0)
(2.87706e-10 -9.62636e-07 0)
(2.49482e-10 -9.62861e-07 0)
(2.11298e-10 -9.63056e-07 0)
(1.73166e-10 -9.6322e-07 0)
(1.35095e-10 -9.63354e-07 0)
(9.70974e-11 -9.63455e-07 0)
(5.91833e-11 -9.63523e-07 0)
(2.13639e-11 -9.63559e-07 0)
(-1.63492e-11 -9.6356e-07 0)
(-5.39447e-11 -9.63527e-07 0)
(-9.14106e-11 -9.63459e-07 0)
(-1.28735e-10 -9.63355e-07 0)
(-1.65906e-10 -9.63215e-07 0)
(-2.02912e-10 -9.63037e-07 0)
(-2.39739e-10 -9.62822e-07 0)
(-2.76375e-10 -9.62569e-07 0)
(-3.12808e-10 -9.62277e-07 0)
(-3.49025e-10 -9.61945e-07 0)
(-3.85013e-10 -9.61574e-07 0)
(-4.20758e-10 -9.61161e-07 0)
(-4.56248e-10 -9.60708e-07 0)
(-4.91468e-10 -9.60212e-07 0)
(-5.26407e-10 -9.59674e-07 0)
(-5.6105e-10 -9.59094e-07 0)
(-5.95383e-10 -9.58469e-07 0)
(-6.29394e-10 -9.57801e-07 0)
(-6.63069e-10 -9.57088e-07 0)
(-6.96393e-10 -9.56331e-07 0)
(-7.29353e-10 -9.55527e-07 0)
(-7.61936e-10 -9.54678e-07 0)
(-7.94127e-10 -9.53782e-07 0)
(-8.25914e-10 -9.52839e-07 0)
(-8.57282e-10 -9.51849e-07 0)
(-8.88218e-10 -9.50811e-07 0)
(-9.18708e-10 -9.49725e-07 0)
(-9.48739e-10 -9.4859e-07 0)
(-9.78298e-10 -9.47406e-07 0)
(-1.00737e-09 -9.46174e-07 0)
(-1.03595e-09 -9.44891e-07 0)
(-1.06401e-09 -9.43559e-07 0)
(-1.09155e-09 -9.42177e-07 0)
(-1.11855e-09 -9.40744e-07 0)
(-1.145e-09 -9.39261e-07 0)
(-1.17089e-09 -9.37727e-07 0)
(-1.19621e-09 -9.36142e-07 0)
(-1.22094e-09 -9.34506e-07 0)
(-1.24507e-09 -9.32819e-07 0)
(-1.2686e-09 -9.31081e-07 0)
(-1.29151e-09 -9.29291e-07 0)
(-1.31379e-09 -9.2745e-07 0)
(-1.33543e-09 -9.25558e-07 0)
(-1.35642e-09 -9.23614e-07 0)
(-1.37675e-09 -9.21619e-07 0)
(-1.39642e-09 -9.19573e-07 0)
(-1.4154e-09 -9.17476e-07 0)
(-1.43371e-09 -9.15328e-07 0)
(-1.45132e-09 -9.13129e-07 0)
(-1.46823e-09 -9.1088e-07 0)
(-1.48443e-09 -9.0858e-07 0)
(-1.49993e-09 -9.06231e-07 0)
(-1.5147e-09 -9.03832e-07 0)
(-1.52875e-09 -9.01384e-07 0)
(-1.54206e-09 -8.98887e-07 0)
(-1.55465e-09 -8.96341e-07 0)
(-1.56649e-09 -8.93748e-07 0)
(-1.5776e-09 -8.91107e-07 0)
(-1.58796e-09 -8.88419e-07 0)
(-1.59757e-09 -8.85685e-07 0)
(-1.60643e-09 -8.82905e-07 0)
(-1.61455e-09 -8.80081e-07 0)
(-1.62191e-09 -8.77211e-07 0)
(-1.62853e-09 -8.74298e-07 0)
(-1.63439e-09 -8.71342e-07 0)
(-1.63951e-09 -8.68344e-07 0)
(-1.64387e-09 -8.65305e-07 0)
(-1.64749e-09 -8.62225e-07 0)
(-1.65037e-09 -8.59106e-07 0)
(-1.65251e-09 -8.55947e-07 0)
(-1.65392e-09 -8.52752e-07 0)
(-1.65459e-09 -8.49519e-07 0)
(-1.65454e-09 -8.46251e-07 0)
(-1.65376e-09 -8.42945e-07 0)
(-1.65229e-09 -8.39614e-07 0)
(-1.64997e-09 -8.36207e-07 0)
(-1.64663e-09 -8.32447e-07 0)
(-1.64226e-09 -8.2833e-07 0)
(-1.63682e-09 -8.24139e-07 0)
(-1.63046e-09 -8.19972e-07 0)
(-1.62325e-09 -8.15846e-07 0)
(-1.61527e-09 -8.11744e-07 0)
(-1.60654e-09 -8.07658e-07 0)
(-1.59711e-09 -8.03593e-07 0)
(-1.58702e-09 -7.99552e-07 0)
(-1.57631e-09 -7.95539e-07 0)
(-1.56501e-09 -7.91554e-07 0)
(-1.55317e-09 -7.87598e-07 0)
(-1.5408e-09 -7.83673e-07 0)
(-1.52796e-09 -7.7978e-07 0)
(-1.51466e-09 -7.7592e-07 0)
(-1.50093e-09 -7.72094e-07 0)
(-1.48681e-09 -7.68304e-07 0)
(-1.47231e-09 -7.6455e-07 0)
(-1.45747e-09 -7.60833e-07 0)
(-1.4423e-09 -7.57155e-07 0)
(-1.42682e-09 -7.53515e-07 0)
(-1.41107e-09 -7.49915e-07 0)
(-1.39505e-09 -7.46356e-07 0)
(-1.37878e-09 -7.42837e-07 0)
(-1.36229e-09 -7.3936e-07 0)
(-1.34558e-09 -7.35925e-07 0)
(-1.32868e-09 -7.32532e-07 0)
(-1.31159e-09 -7.29183e-07 0)
(-1.29433e-09 -7.25877e-07 0)
(-1.27691e-09 -7.22616e-07 0)
(-1.25935e-09 -7.19399e-07 0)
(-1.24164e-09 -7.16226e-07 0)
(-1.22381e-09 -7.13099e-07 0)
(-1.20587e-09 -7.10017e-07 0)
(-1.18781e-09 -7.0698e-07 0)
(-1.16965e-09 -7.0399e-07 0)
(-1.15139e-09 -7.01046e-07 0)
(-1.13304e-09 -6.98148e-07 0)
(-1.11461e-09 -6.95297e-07 0)
(-1.0961e-09 -6.92492e-07 0)
(-1.07752e-09 -6.89735e-07 0)
(-1.05887e-09 -6.87025e-07 0)
(-1.04015e-09 -6.84363e-07 0)
(-1.02137e-09 -6.81748e-07 0)
(-1.00253e-09 -6.7918e-07 0)
(-9.83631e-10 -6.76661e-07 0)
(-9.64681e-10 -6.7419e-07 0)
(-9.45678e-10 -6.71766e-07 0)
(-9.26625e-10 -6.69391e-07 0)
(-9.07522e-10 -6.67065e-07 0)
(-8.88373e-10 -6.64787e-07 0)
(-8.69177e-10 -6.62557e-07 0)
(-8.49935e-10 -6.60377e-07 0)
(-8.30649e-10 -6.58245e-07 0)
(-8.11318e-10 -6.56162e-07 0)
(-7.91944e-10 -6.54129e-07 0)
(-7.72527e-10 -6.52144e-07 0)
(-7.53066e-10 -6.50209e-07 0)
(-7.33563e-10 -6.48323e-07 0)
(-7.14018e-10 -6.46487e-07 0)
(-6.9443e-10 -6.447e-07 0)
(-6.748e-10 -6.42964e-07 0)
(-6.55128e-10 -6.41277e-07 0)
(-6.35414e-10 -6.3964e-07 0)
(-6.15658e-10 -6.38053e-07 0)
(-5.95861e-10 -6.36516e-07 0)
(-5.76022e-10 -6.35029e-07 0)
(-5.56142e-10 -6.33593e-07 0)
(-5.36221e-10 -6.32207e-07 0)
(-5.1626e-10 -6.30872e-07 0)
(-4.96259e-10 -6.29588e-07 0)
(-4.76218e-10 -6.28355e-07 0)
(-4.56139e-10 -6.27172e-07 0)
(-4.36021e-10 -6.2604e-07 0)
(-4.15866e-10 -6.2496e-07 0)
(-3.95675e-10 -6.2393e-07 0)
(-3.75448e-10 -6.22952e-07 0)
(-3.55187e-10 -6.22025e-07 0)
(-3.34893e-10 -6.2115e-07 0)
(-3.14567e-10 -6.20326e-07 0)
(-2.9421e-10 -6.19554e-07 0)
(-2.73824e-10 -6.18833e-07 0)
(-2.53411e-10 -6.18164e-07 0)
(-2.32972e-10 -6.17548e-07 0)
(-2.12509e-10 -6.16981e-07 0)
(-1.92024e-10 -6.16472e-07 0)
(-1.71518e-10 -6.15998e-07 0)
(-1.50997e-10 -6.15632e-07 0)
(-1.30446e-10 -6.15132e-07 0)
(-1.09923e-10 -6.15293e-07 0)
(-8.92536e-11 -6.13443e-07 0)
(-6.90216e-11 -6.18233e-07 0)
(-4.73697e-11 -5.99585e-07 0)
(-3.06351e-11 -6.48725e-07 0)
(-1.28773e-11 -5.6656e-07 0)
)
;
    }
    bottomWall
    {
        type            calculated;
        value           nonuniform List<vector> 
449
(
(-46.5204 -0.879898 0)
(-20.1271 -0.221957 0)
(-14.2545 -0.0269333 0)
(-11.9383 -0.0146398 0)
(-10.5736 -0.0106566 0)
(-9.62755 -0.00804003 0)
(-8.88493 -0.00643988 0)
(-8.28397 -0.00521281 0)
(-7.79075 -0.00431859 0)
(-7.37627 -0.0036734 0)
(-7.02031 -0.00317917 0)
(-6.71008 -0.00278282 0)
(-6.43676 -0.00245981 0)
(-6.19364 -0.0021941 0)
(-5.97554 -0.00197273 0)
(-5.77841 -0.00178579 0)
(-5.59908 -0.00162613 0)
(-5.43504 -0.00148854 0)
(-5.28421 -0.00136901 0)
(-5.14492 -0.0012644 0)
(-5.01575 -0.00117223 0)
(-4.89554 -0.00109054 0)
(-4.78329 -0.00101772 0)
(-4.67816 -0.000952506 0)
(-4.57942 -0.000893823 0)
(-4.48645 -0.000840796 0)
(-4.3987 -0.000792694 0)
(-4.31571 -0.000748903 0)
(-4.23704 -0.000708903 0)
(-4.16234 -0.000672251 0)
(-4.09129 -0.000638571 0)
(-4.02359 -0.000607537 0)
(-3.95899 -0.000578868 0)
(-3.89725 -0.000552322 0)
(-3.83817 -0.000527684 0)
(-3.78156 -0.000504771 0)
(-3.72726 -0.000483418 0)
(-3.6751 -0.000463481 0)
(-3.62495 -0.000444834 0)
(-3.57669 -0.000427363 0)
(-3.53019 -0.000410967 0)
(-3.48536 -0.000395556 0)
(-3.44209 -0.000381051 0)
(-3.40029 -0.000367379 0)
(-3.35988 -0.000354474 0)
(-3.32078 -0.000342279 0)
(-3.28293 -0.00033074 0)
(-3.24626 -0.00031981 0)
(-3.21071 -0.000309444 0)
(-3.17622 -0.000299603 0)
(-3.14274 -0.00029025 0)
(-3.11022 -0.000281353 0)
(-3.07861 -0.000272882 0)
(-3.04787 -0.000264809 0)
(-3.01797 -0.000257107 0)
(-2.98886 -0.000249755 0)
(-2.96051 -0.00024273 0)
(-2.93289 -0.000236012 0)
(-2.90596 -0.000229584 0)
(-2.8797 -0.000223428 0)
(-2.85408 -0.000217528 0)
(-2.82908 -0.00021187 0)
(-2.80466 -0.00020644 0)
(-2.7808 -0.000201227 0)
(-2.75749 -0.000196217 0)
(-2.73471 -0.0001914 0)
(-2.71243 -0.000186767 0)
(-2.69063 -0.000182307 0)
(-2.6693 -0.000178011 0)
(-2.64842 -0.000173872 0)
(-2.62797 -0.000169882 0)
(-2.60794 -0.000166033 0)
(-2.58832 -0.000162318 0)
(-2.56909 -0.000158732 0)
(-2.55024 -0.000155268 0)
(-2.53176 -0.000151919 0)
(-2.51362 -0.000148682 0)
(-2.49583 -0.000145551 0)
(-2.47838 -0.000142522 0)
(-2.46124 -0.000139589 0)
(-2.44441 -0.000136748 0)
(-2.42789 -0.000133997 0)
(-2.41166 -0.00013133 0)
(-2.39571 -0.000128744 0)
(-2.38004 -0.000126236 0)
(-2.36464 -0.000123803 0)
(-2.34949 -0.000121442 0)
(-2.3346 -0.000119149 0)
(-2.31995 -0.000116923 0)
(-2.30555 -0.000114759 0)
(-2.29137 -0.000112657 0)
(-2.27742 -0.000110614 0)
(-2.26369 -0.000108626 0)
(-2.25017 -0.000106694 0)
(-2.23687 -0.000104813 0)
(-2.22376 -0.000102983 0)
(-2.21085 -0.000101201 0)
(-2.19814 -9.94657e-05 0)
(-2.18561 -9.77756e-05 0)
(-2.17326 -9.61291e-05 0)
(-2.1611 -9.45245e-05 0)
(-2.1491 -9.29604e-05 0)
(-2.13728 -9.14354e-05 0)
(-2.12562 -8.99482e-05 0)
(-2.11413 -8.84974e-05 0)
(-2.10279 -8.7082e-05 0)
(-2.09161 -8.57006e-05 0)
(-2.08058 -8.43522e-05 0)
(-2.06969 -8.30358e-05 0)
(-2.05895 -8.17502e-05 0)
(-2.04835 -8.04945e-05 0)
(-2.03789 -7.92678e-05 0)
(-2.02756 -7.80691e-05 0)
(-2.01737 -7.68976e-05 0)
(-2.0073 -7.57524e-05 0)
(-1.99736 -7.46328e-05 0)
(-1.98754 -7.35379e-05 0)
(-1.97784 -7.2467e-05 0)
(-1.96826 -7.14194e-05 0)
(-1.9588 -7.03944e-05 0)
(-1.94945 -6.93914e-05 0)
(-1.94021 -6.84096e-05 0)
(-1.93108 -6.74486e-05 0)
(-1.92206 -6.65076e-05 0)
(-1.91314 -6.55862e-05 0)
(-1.90432 -6.46837e-05 0)
(-1.89561 -6.37997e-05 0)
(-1.88699 -6.29336e-05 0)
(-1.87847 -6.20849e-05 0)
(-1.87004 -6.12532e-05 0)
(-1.86171 -6.0438e-05 0)
(-1.85347 -5.96389e-05 0)
(-1.84531 -5.88553e-05 0)
(-1.83725 -5.8087e-05 0)
(-1.82927 -5.73335e-05 0)
(-1.82138 -5.65944e-05 0)
(-1.81357 -5.58694e-05 0)
(-1.80584 -5.51581e-05 0)
(-1.79819 -5.44601e-05 0)
(-1.79062 -5.37751e-05 0)
(-1.78312 -5.31027e-05 0)
(-1.77571 -5.24427e-05 0)
(-1.76836 -5.17948e-05 0)
(-1.7611 -5.11586e-05 0)
(-1.7539 -5.05338e-05 0)
(-1.74677 -4.99203e-05 0)
(-1.73972 -4.93176e-05 0)
(-1.73273 -4.87256e-05 0)
(-1.72581 -4.8144e-05 0)
(-1.71895 -4.75725e-05 0)
(-1.71216 -4.70109e-05 0)
(-1.70544 -4.6459e-05 0)
(-1.69878 -4.59166e-05 0)
(-1.69218 -4.53834e-05 0)
(-1.68564 -4.48591e-05 0)
(-1.67916 -4.43438e-05 0)
(-1.67274 -4.3837e-05 0)
(-1.66638 -4.33386e-05 0)
(-1.66007 -4.28485e-05 0)
(-1.65383 -4.23664e-05 0)
(-1.64763 -4.18922e-05 0)
(-1.6415 -4.14256e-05 0)
(-1.63541 -4.09666e-05 0)
(-1.62938 -4.0515e-05 0)
(-1.62341 -4.00706e-05 0)
(-1.61748 -3.96334e-05 0)
(-1.6116 -3.9203e-05 0)
(-1.60578 -3.87794e-05 0)
(-1.6 -3.83633e-05 0)
(-1.59427 -3.79504e-05 0)
(-1.58859 -3.75525e-05 0)
(-1.58295 -3.7159e-05 0)
(-1.57737 -3.66928e-05 0)
(-1.57215 -3.6353e-05 0)
(-1.56724 -3.61106e-05 0)
(-1.56231 -3.57427e-05 0)
(-1.55739 -3.53826e-05 0)
(-1.55246 -3.50447e-05 0)
(-1.54752 -3.47094e-05 0)
(-1.54258 -3.43758e-05 0)
(-1.53763 -3.40448e-05 0)
(-1.53268 -3.3716e-05 0)
(-1.52772 -3.33892e-05 0)
(-1.52276 -3.30644e-05 0)
(-1.51779 -3.27415e-05 0)
(-1.51282 -3.24204e-05 0)
(-1.50784 -3.21013e-05 0)
(-1.50286 -3.17839e-05 0)
(-1.49787 -3.14684e-05 0)
(-1.49288 -3.11548e-05 0)
(-1.48789 -3.0843e-05 0)
(-1.48289 -3.05331e-05 0)
(-1.47789 -3.02251e-05 0)
(-1.47288 -2.99189e-05 0)
(-1.46787 -2.96146e-05 0)
(-1.46286 -2.93123e-05 0)
(-1.45785 -2.90118e-05 0)
(-1.45283 -2.87132e-05 0)
(-1.44782 -2.84166e-05 0)
(-1.4428 -2.81219e-05 0)
(-1.43777 -2.78291e-05 0)
(-1.43275 -2.75383e-05 0)
(-1.42773 -2.72494e-05 0)
(-1.4227 -2.69625e-05 0)
(-1.41767 -2.66775e-05 0)
(-1.41265 -2.63945e-05 0)
(-1.40762 -2.61135e-05 0)
(-1.40259 -2.58345e-05 0)
(-1.39756 -2.55574e-05 0)
(-1.39253 -2.52823e-05 0)
(-1.3875 -2.50092e-05 0)
(-1.38247 -2.47381e-05 0)
(-1.37744 -2.44689e-05 0)
(-1.37242 -2.42018e-05 0)
(-1.36739 -2.39367e-05 0)
(-1.36237 -2.36735e-05 0)
(-1.35734 -2.34124e-05 0)
(-1.35232 -2.31533e-05 0)
(-1.3473 -2.28961e-05 0)
(-1.34228 -2.2641e-05 0)
(-1.33726 -2.23879e-05 0)
(-1.33225 -2.21368e-05 0)
(-1.32724 -2.18877e-05 0)
(-1.32223 -2.16406e-05 0)
(-1.31722 -2.13955e-05 0)
(-1.31222 -2.11524e-05 0)
(-1.30722 -2.09112e-05 0)
(-1.30222 -2.06721e-05 0)
(-1.29723 -2.0435e-05 0)
(-1.29224 -2.01999e-05 0)
(-1.28725 -1.99668e-05 0)
(-1.28227 -1.97356e-05 0)
(-1.27729 -1.95064e-05 0)
(-1.27232 -1.92793e-05 0)
(-1.26735 -1.90541e-05 0)
(-1.26239 -1.88308e-05 0)
(-1.25743 -1.86095e-05 0)
(-1.25248 -1.83902e-05 0)
(-1.24753 -1.81729e-05 0)
(-1.24259 -1.79575e-05 0)
(-1.23765 -1.7744e-05 0)
(-1.23272 -1.75325e-05 0)
(-1.22779 -1.73229e-05 0)
(-1.22287 -1.71153e-05 0)
(-1.21796 -1.69096e-05 0)
(-1.21305 -1.67058e-05 0)
(-1.20815 -1.65039e-05 0)
(-1.20326 -1.63039e-05 0)
(-1.19837 -1.61058e-05 0)
(-1.19349 -1.59096e-05 0)
(-1.18862 -1.57153e-05 0)
(-1.18376 -1.55228e-05 0)
(-1.1789 -1.53322e-05 0)
(-1.17405 -1.51435e-05 0)
(-1.1692 -1.49566e-05 0)
(-1.16437 -1.47716e-05 0)
(-1.15954 -1.45884e-05 0)
(-1.15472 -1.4407e-05 0)
(-1.14991 -1.42274e-05 0)
(-1.14511 -1.40497e-05 0)
(-1.14032 -1.38737e-05 0)
(-1.13553 -1.36995e-05 0)
(-1.13076 -1.35271e-05 0)
(-1.12599 -1.33565e-05 0)
(-1.12123 -1.31876e-05 0)
(-1.11648 -1.30205e-05 0)
(-1.11175 -1.28551e-05 0)
(-1.10702 -1.26915e-05 0)
(-1.10229 -1.25296e-05 0)
(-1.09758 -1.23693e-05 0)
(-1.09288 -1.22108e-05 0)
(-1.08819 -1.2054e-05 0)
(-1.08351 -1.18988e-05 0)
(-1.07884 -1.17453e-05 0)
(-1.07418 -1.15935e-05 0)
(-1.06953 -1.14433e-05 0)
(-1.06489 -1.12947e-05 0)
(-1.06026 -1.11477e-05 0)
(-1.05564 -1.10024e-05 0)
(-1.05103 -1.08587e-05 0)
(-1.04643 -1.07165e-05 0)
(-1.04185 -1.0576e-05 0)
(-1.03727 -1.0437e-05 0)
(-1.03271 -1.02995e-05 0)
(-1.02815 -1.01636e-05 0)
(-1.02361 -1.00293e-05 0)
(-1.01908 -9.89642e-06 0)
(-1.01456 -9.76509e-06 0)
(-1.01006 -9.63525e-06 0)
(-1.00556 -9.50689e-06 0)
(-1.00108 -9.38001e-06 0)
(-0.996604 -9.25459e-06 0)
(-0.992144 -9.13062e-06 0)
(-0.987696 -9.0081e-06 0)
(-0.98326 -8.88699e-06 0)
(-0.978836 -8.76731e-06 0)
(-0.974424 -8.64903e-06 0)
(-0.970024 -8.53214e-06 0)
(-0.965637 -8.41662e-06 0)
(-0.961262 -8.30248e-06 0)
(-0.9569 -8.1897e-06 0)
(-0.95255 -8.07825e-06 0)
(-0.948213 -7.96815e-06 0)
(-0.943888 -7.85936e-06 0)
(-0.939577 -7.75188e-06 0)
(-0.935278 -7.6457e-06 0)
(-0.930991 -7.54081e-06 0)
(-0.926718 -7.43718e-06 0)
(-0.922458 -7.33483e-06 0)
(-0.918211 -7.23372e-06 0)
(-0.913977 -7.13385e-06 0)
(-0.909755 -7.03521e-06 0)
(-0.905548 -6.93778e-06 0)
(-0.901353 -6.84156e-06 0)
(-0.897171 -6.74654e-06 0)
(-0.893003 -6.65269e-06 0)
(-0.888849 -6.56001e-06 0)
(-0.884707 -6.46849e-06 0)
(-0.880579 -6.37812e-06 0)
(-0.876465 -6.28888e-06 0)
(-0.872364 -6.20077e-06 0)
(-0.868277 -6.11377e-06 0)
(-0.864203 -6.02788e-06 0)
(-0.860143 -5.94307e-06 0)
(-0.856096 -5.85934e-06 0)
(-0.852063 -5.77668e-06 0)
(-0.848044 -5.69508e-06 0)
(-0.844039 -5.61453e-06 0)
(-0.840047 -5.53501e-06 0)
(-0.836069 -5.45652e-06 0)
(-0.832105 -5.37903e-06 0)
(-0.828155 -5.30256e-06 0)
(-0.824219 -5.22707e-06 0)
(-0.820297 -5.15257e-06 0)
(-0.816388 -5.07904e-06 0)
(-0.812494 -5.00646e-06 0)
(-0.808613 -4.93484e-06 0)
(-0.804747 -4.86416e-06 0)
(-0.800894 -4.79441e-06 0)
(-0.797056 -4.72557e-06 0)
(-0.793231 -4.65765e-06 0)
(-0.789421 -4.59062e-06 0)
(-0.785624 -4.52448e-06 0)
(-0.781842 -4.45922e-06 0)
(-0.778074 -4.39482e-06 0)
(-0.774319 -4.33127e-06 0)
(-0.770579 -4.26857e-06 0)
(-0.766853 -4.2067e-06 0)
(-0.763142 -4.14559e-06 0)
(-0.759444 -4.08538e-06 0)
(-0.75576 -4.02588e-06 0)
(-0.752091 -3.96577e-06 0)
(-0.748438 -3.91042e-06 0)
(-0.744792 -3.85772e-06 0)
(-0.740755 -3.7897e-06 0)
(-0.736377 -3.71777e-06 0)
(-0.732077 -3.65515e-06 0)
(-0.727847 -3.59477e-06 0)
(-0.723689 -3.53399e-06 0)
(-0.719601 -3.47442e-06 0)
(-0.715581 -3.41639e-06 0)
(-0.711629 -3.35993e-06 0)
(-0.707741 -3.30497e-06 0)
(-0.703916 -3.25147e-06 0)
(-0.700153 -3.1994e-06 0)
(-0.69645 -3.1487e-06 0)
(-0.692806 -3.09932e-06 0)
(-0.689218 -3.05123e-06 0)
(-0.685686 -3.00437e-06 0)
(-0.682207 -2.95869e-06 0)
(-0.678781 -2.91417e-06 0)
(-0.675407 -2.87075e-06 0)
(-0.672082 -2.8284e-06 0)
(-0.668807 -2.78709e-06 0)
(-0.665579 -2.74677e-06 0)
(-0.662397 -2.70742e-06 0)
(-0.659261 -2.669e-06 0)
(-0.656169 -2.63148e-06 0)
(-0.65312 -2.59484e-06 0)
(-0.650114 -2.55904e-06 0)
(-0.647149 -2.52406e-06 0)
(-0.644224 -2.48987e-06 0)
(-0.641339 -2.45645e-06 0)
(-0.638492 -2.42377e-06 0)
(-0.635683 -2.39181e-06 0)
(-0.63291 -2.36055e-06 0)
(-0.630174 -2.32996e-06 0)
(-0.627473 -2.30004e-06 0)
(-0.624807 -2.27075e-06 0)
(-0.622175 -2.24208e-06 0)
(-0.619575 -2.21401e-06 0)
(-0.617008 -2.18652e-06 0)
(-0.614473 -2.15961e-06 0)
(-0.611969 -2.13324e-06 0)
(-0.609495 -2.10741e-06 0)
(-0.607051 -2.08209e-06 0)
(-0.604637 -2.05729e-06 0)
(-0.602251 -2.03297e-06 0)
(-0.599893 -2.00914e-06 0)
(-0.597562 -1.98577e-06 0)
(-0.595259 -1.96285e-06 0)
(-0.592982 -1.94038e-06 0)
(-0.590731 -1.91833e-06 0)
(-0.588506 -1.89671e-06 0)
(-0.586305 -1.87549e-06 0)
(-0.584129 -1.85467e-06 0)
(-0.581977 -1.83423e-06 0)
(-0.579849 -1.81418e-06 0)
(-0.577744 -1.79449e-06 0)
(-0.575662 -1.77517e-06 0)
(-0.573602 -1.75619e-06 0)
(-0.571564 -1.73756e-06 0)
(-0.569548 -1.71926e-06 0)
(-0.567552 -1.70129e-06 0)
(-0.565578 -1.68365e-06 0)
(-0.563624 -1.66631e-06 0)
(-0.56169 -1.64928e-06 0)
(-0.559775 -1.63255e-06 0)
(-0.55788 -1.61612e-06 0)
(-0.556004 -1.59997e-06 0)
(-0.554147 -1.58411e-06 0)
(-0.552308 -1.56853e-06 0)
(-0.550487 -1.55322e-06 0)
(-0.548684 -1.53818e-06 0)
(-0.546898 -1.52341e-06 0)
(-0.545129 -1.5089e-06 0)
(-0.543377 -1.49466e-06 0)
(-0.541642 -1.48068e-06 0)
(-0.539923 -1.46696e-06 0)
(-0.538219 -1.45351e-06 0)
(-0.536531 -1.44033e-06 0)
(-0.534859 -1.42743e-06 0)
(-0.533201 -1.41482e-06 0)
(-0.531558 -1.40251e-06 0)
(-0.529929 -1.39052e-06 0)
(-0.528314 -1.3789e-06 0)
(-0.526712 -1.36769e-06 0)
(-0.525123 -1.35695e-06 0)
(-0.523546 -1.34676e-06 0)
(-0.521981 -1.33761e-06 0)
(-0.520426 -1.32865e-06 0)
(-0.518883 -1.32085e-06 0)
(-0.517345 -1.32385e-06 0)
(-0.515797 -1.30679e-06 0)
(-0.514304 -1.25818e-06 0)
(-0.512849 -1.68461e-06 0)
(-0.510348 -6.45248e-07 0)
(-0.511763 -5.94122e-07 0)
(-0.507468 -2.89888e-06 0)
)
;
    }
    symmetry
    {
        type            symmetryPlane;
    }
    frontAndBack
    {
        type            empty;
    }
}


// ************************************************************************* //
