/*--------------------------------*- C++ -*----------------------------------*\
| =========                 |                                                 |
| \\      /  F ield         | OpenFOAM: The Open Source CFD Toolbox           |
|  \\    /   O peration     | Version:  v2012                                 |
|   \\  /    A nd           | Website:  www.openfoam.com                      |
|    \\/     M anipulation  |                                                 |
\*---------------------------------------------------------------------------*/
FoamFile
{
    version     2.0;
    format      ascii;
    class       volScalarField;
    location    "40.5";
    object      nut;
}
// * * * * * * * * * * * * * * * * * * * * * * * * * * * * * * * * * * * * * //

dimensions      [0 2 -1 0 0 0 0];


internalField   nonuniform List<scalar> 
209825
(
1.23964e-07
1.23038e-07
1.2219e-07
1.21416e-07
1.20756e-07
1.20197e-07
1.19752e-07
1.19382e-07
1.19097e-07
1.18856e-07
1.18674e-07
1.18515e-07
1.18398e-07
1.18292e-07
1.18218e-07
1.18146e-07
1.18099e-07
1.18049e-07
1.18021e-07
1.17986e-07
1.1797e-07
1.17946e-07
1.17938e-07
1.17922e-07
1.17918e-07
1.17908e-07
1.17908e-07
1.17901e-07
1.17904e-07
1.17899e-07
1.17904e-07
1.17902e-07
1.17907e-07
1.17906e-07
1.17913e-07
1.17913e-07
1.17919e-07
1.1792e-07
1.17927e-07
1.17929e-07
1.17934e-07
1.17937e-07
1.17945e-07
1.17947e-07
1.17953e-07
1.17957e-07
1.17963e-07
1.17967e-07
1.17972e-07
1.17975e-07
1.17979e-07
1.17982e-07
1.17987e-07
1.17992e-07
1.17995e-07
1.18002e-07
1.18003e-07
1.18011e-07
1.18012e-07
1.18018e-07
1.18016e-07
1.18021e-07
1.18021e-07
1.18023e-07
1.18025e-07
1.1802e-07
1.18021e-07
1.18022e-07
1.18026e-07
1.18028e-07
1.1803e-07
1.18032e-07
1.18033e-07
1.18036e-07
1.18039e-07
1.18049e-07
1.18061e-07
1.18074e-07
1.18085e-07
1.18103e-07
1.18112e-07
1.18131e-07
1.18138e-07
1.18153e-07
1.18159e-07
1.18171e-07
1.1818e-07
1.1819e-07
1.18199e-07
1.1821e-07
1.18221e-07
1.18223e-07
1.18254e-07
1.19392e-07
1.22569e-07
1.21435e-08
1.23964e-07
1.23038e-07
1.2219e-07
1.21416e-07
1.20757e-07
1.20197e-07
1.19752e-07
1.19382e-07
1.19097e-07
1.18856e-07
1.18674e-07
1.18515e-07
1.18399e-07
1.18292e-07
1.18218e-07
1.18146e-07
1.18099e-07
1.1805e-07
1.18021e-07
1.17987e-07
1.1797e-07
1.17946e-07
1.17938e-07
1.17922e-07
1.17919e-07
1.17908e-07
1.17908e-07
1.17901e-07
1.17904e-07
1.179e-07
1.17905e-07
1.17902e-07
1.17907e-07
1.17907e-07
1.17913e-07
1.17913e-07
1.17919e-07
1.1792e-07
1.17927e-07
1.17929e-07
1.17935e-07
1.17937e-07
1.17945e-07
1.17947e-07
1.17953e-07
1.17957e-07
1.17964e-07
1.17967e-07
1.17972e-07
1.17975e-07
1.1798e-07
1.17982e-07
1.17987e-07
1.17992e-07
1.17995e-07
1.18002e-07
1.18003e-07
1.18012e-07
1.18013e-07
1.18019e-07
1.18016e-07
1.18022e-07
1.18022e-07
1.18023e-07
1.18025e-07
1.1802e-07
1.18021e-07
1.18023e-07
1.18026e-07
1.18028e-07
1.18031e-07
1.18032e-07
1.18034e-07
1.18036e-07
1.1804e-07
1.18049e-07
1.18061e-07
1.18075e-07
1.18085e-07
1.18103e-07
1.18113e-07
1.18131e-07
1.18138e-07
1.18153e-07
1.18159e-07
1.18172e-07
1.1818e-07
1.1819e-07
1.182e-07
1.18211e-07
1.18221e-07
1.18223e-07
1.18254e-07
1.19395e-07
1.2257e-07
1.25149e-08
1.23964e-07
1.23038e-07
1.2219e-07
1.21416e-07
1.20756e-07
1.20197e-07
1.19752e-07
1.19382e-07
1.19096e-07
1.18855e-07
1.18673e-07
1.18514e-07
1.18398e-07
1.18291e-07
1.18217e-07
1.18145e-07
1.18098e-07
1.18048e-07
1.18019e-07
1.17985e-07
1.17968e-07
1.17945e-07
1.17936e-07
1.1792e-07
1.17917e-07
1.17906e-07
1.17907e-07
1.179e-07
1.17903e-07
1.17898e-07
1.17903e-07
1.179e-07
1.17906e-07
1.17905e-07
1.17912e-07
1.17912e-07
1.17918e-07
1.17919e-07
1.17926e-07
1.17927e-07
1.17933e-07
1.17936e-07
1.17944e-07
1.17945e-07
1.17952e-07
1.17955e-07
1.17962e-07
1.17966e-07
1.17971e-07
1.17974e-07
1.17978e-07
1.17981e-07
1.17985e-07
1.17991e-07
1.17994e-07
1.18001e-07
1.18001e-07
1.1801e-07
1.18011e-07
1.18017e-07
1.18015e-07
1.1802e-07
1.1802e-07
1.18021e-07
1.18023e-07
1.18019e-07
1.18019e-07
1.18021e-07
1.18025e-07
1.18027e-07
1.18029e-07
1.18031e-07
1.18032e-07
1.18035e-07
1.18038e-07
1.18048e-07
1.18059e-07
1.18073e-07
1.18083e-07
1.18102e-07
1.18111e-07
1.18129e-07
1.18136e-07
1.18151e-07
1.18157e-07
1.1817e-07
1.18178e-07
1.18188e-07
1.18198e-07
1.18209e-07
1.1822e-07
1.18222e-07
1.18253e-07
1.19398e-07
1.2257e-07
1.29762e-08
1.23964e-07
1.23038e-07
1.2219e-07
1.21416e-07
1.20756e-07
1.20197e-07
1.19751e-07
1.19381e-07
1.19095e-07
1.18854e-07
1.18672e-07
1.18513e-07
1.18396e-07
1.1829e-07
1.18215e-07
1.18143e-07
1.18096e-07
1.18047e-07
1.18018e-07
1.17983e-07
1.17967e-07
1.17943e-07
1.17934e-07
1.17918e-07
1.17915e-07
1.17904e-07
1.17905e-07
1.17898e-07
1.17901e-07
1.17896e-07
1.17901e-07
1.17898e-07
1.17904e-07
1.17903e-07
1.1791e-07
1.1791e-07
1.17916e-07
1.17916e-07
1.17923e-07
1.17925e-07
1.17931e-07
1.17934e-07
1.17942e-07
1.17943e-07
1.1795e-07
1.17953e-07
1.1796e-07
1.17964e-07
1.17969e-07
1.17972e-07
1.17976e-07
1.17979e-07
1.17983e-07
1.17988e-07
1.17991e-07
1.17998e-07
1.17999e-07
1.18008e-07
1.18009e-07
1.18015e-07
1.18012e-07
1.18018e-07
1.18018e-07
1.18019e-07
1.18021e-07
1.18017e-07
1.18017e-07
1.18019e-07
1.18022e-07
1.18024e-07
1.18027e-07
1.18028e-07
1.1803e-07
1.18033e-07
1.18036e-07
1.18045e-07
1.18057e-07
1.18071e-07
1.18081e-07
1.18099e-07
1.18108e-07
1.18127e-07
1.18134e-07
1.18149e-07
1.18155e-07
1.18168e-07
1.18176e-07
1.18186e-07
1.18196e-07
1.18207e-07
1.18217e-07
1.18219e-07
1.18251e-07
1.19402e-07
1.2257e-07
1.34884e-08
1.23964e-07
1.23038e-07
1.2219e-07
1.21416e-07
1.20756e-07
1.20197e-07
1.19751e-07
1.1938e-07
1.19094e-07
1.18853e-07
1.1867e-07
1.18511e-07
1.18395e-07
1.18288e-07
1.18213e-07
1.18141e-07
1.18094e-07
1.18044e-07
1.18015e-07
1.17981e-07
1.17964e-07
1.1794e-07
1.17932e-07
1.17916e-07
1.17912e-07
1.17902e-07
1.17902e-07
1.17895e-07
1.17898e-07
1.17893e-07
1.17898e-07
1.17895e-07
1.17901e-07
1.179e-07
1.17907e-07
1.17907e-07
1.17913e-07
1.17914e-07
1.17921e-07
1.17922e-07
1.17928e-07
1.17931e-07
1.17939e-07
1.1794e-07
1.17947e-07
1.1795e-07
1.17957e-07
1.17961e-07
1.17966e-07
1.17969e-07
1.17973e-07
1.17976e-07
1.1798e-07
1.17985e-07
1.17989e-07
1.17996e-07
1.17996e-07
1.18005e-07
1.18006e-07
1.18012e-07
1.1801e-07
1.18015e-07
1.18015e-07
1.18016e-07
1.18018e-07
1.18014e-07
1.18014e-07
1.18016e-07
1.18019e-07
1.18022e-07
1.18024e-07
1.18026e-07
1.18027e-07
1.1803e-07
1.18033e-07
1.18043e-07
1.18054e-07
1.18068e-07
1.18078e-07
1.18096e-07
1.18105e-07
1.18124e-07
1.18131e-07
1.18146e-07
1.18152e-07
1.18165e-07
1.18173e-07
1.18183e-07
1.18193e-07
1.18204e-07
1.18214e-07
1.18216e-07
1.18248e-07
1.19409e-07
1.22571e-07
1.40441e-08
1.23964e-07
1.23038e-07
1.2219e-07
1.21417e-07
1.20756e-07
1.20196e-07
1.1975e-07
1.1938e-07
1.19093e-07
1.18852e-07
1.18669e-07
1.18509e-07
1.18392e-07
1.18286e-07
1.18211e-07
1.18138e-07
1.18091e-07
1.18042e-07
1.18012e-07
1.17978e-07
1.17961e-07
1.17937e-07
1.17929e-07
1.17913e-07
1.17909e-07
1.17899e-07
1.17899e-07
1.17892e-07
1.17895e-07
1.1789e-07
1.17895e-07
1.17892e-07
1.17897e-07
1.17897e-07
1.17904e-07
1.17904e-07
1.17909e-07
1.1791e-07
1.17917e-07
1.17919e-07
1.17925e-07
1.17927e-07
1.17935e-07
1.17937e-07
1.17943e-07
1.17947e-07
1.17953e-07
1.17957e-07
1.17962e-07
1.17965e-07
1.17969e-07
1.17972e-07
1.17977e-07
1.17982e-07
1.17985e-07
1.17992e-07
1.17993e-07
1.18001e-07
1.18002e-07
1.18008e-07
1.18006e-07
1.18011e-07
1.18012e-07
1.18013e-07
1.18015e-07
1.1801e-07
1.18011e-07
1.18013e-07
1.18016e-07
1.18018e-07
1.1802e-07
1.18022e-07
1.18023e-07
1.18026e-07
1.18029e-07
1.18039e-07
1.1805e-07
1.18064e-07
1.18074e-07
1.18092e-07
1.18102e-07
1.1812e-07
1.18127e-07
1.18142e-07
1.18148e-07
1.18161e-07
1.18169e-07
1.18179e-07
1.18189e-07
1.182e-07
1.1821e-07
1.18213e-07
1.18244e-07
1.19418e-07
1.22572e-07
1.46418e-08
1.23964e-07
1.23038e-07
1.22191e-07
1.21417e-07
1.20756e-07
1.20196e-07
1.19749e-07
1.19378e-07
1.19092e-07
1.1885e-07
1.18667e-07
1.18507e-07
1.1839e-07
1.18283e-07
1.18208e-07
1.18135e-07
1.18088e-07
1.18038e-07
1.18009e-07
1.17975e-07
1.17958e-07
1.17934e-07
1.17925e-07
1.17909e-07
1.17906e-07
1.17895e-07
1.17895e-07
1.17888e-07
1.17891e-07
1.17886e-07
1.17891e-07
1.17888e-07
1.17894e-07
1.17893e-07
1.179e-07
1.179e-07
1.17905e-07
1.17906e-07
1.17913e-07
1.17915e-07
1.17921e-07
1.17923e-07
1.17931e-07
1.17933e-07
1.17939e-07
1.17943e-07
1.17949e-07
1.17953e-07
1.17958e-07
1.17961e-07
1.17965e-07
1.17968e-07
1.17973e-07
1.17978e-07
1.17981e-07
1.17988e-07
1.17989e-07
1.17997e-07
1.17998e-07
1.18004e-07
1.18002e-07
1.18007e-07
1.18008e-07
1.18009e-07
1.18011e-07
1.18006e-07
1.18007e-07
1.18008e-07
1.18012e-07
1.18014e-07
1.18016e-07
1.18018e-07
1.18019e-07
1.18022e-07
1.18025e-07
1.18035e-07
1.18046e-07
1.18059e-07
1.1807e-07
1.18088e-07
1.18097e-07
1.18116e-07
1.18123e-07
1.18138e-07
1.18144e-07
1.18157e-07
1.18165e-07
1.18175e-07
1.18185e-07
1.18196e-07
1.18206e-07
1.18208e-07
1.1824e-07
1.1943e-07
1.22573e-07
1.52819e-08
1.23964e-07
1.23038e-07
1.22191e-07
1.21417e-07
1.20756e-07
1.20195e-07
1.19748e-07
1.19377e-07
1.1909e-07
1.18848e-07
1.18664e-07
1.18505e-07
1.18387e-07
1.1828e-07
1.18205e-07
1.18132e-07
1.18084e-07
1.18035e-07
1.18005e-07
1.17971e-07
1.17954e-07
1.1793e-07
1.17921e-07
1.17905e-07
1.17901e-07
1.1789e-07
1.17891e-07
1.17884e-07
1.17886e-07
1.17882e-07
1.17886e-07
1.17883e-07
1.17889e-07
1.17888e-07
1.17895e-07
1.17895e-07
1.17901e-07
1.17901e-07
1.17908e-07
1.1791e-07
1.17916e-07
1.17919e-07
1.17926e-07
1.17928e-07
1.17934e-07
1.17938e-07
1.17945e-07
1.17948e-07
1.17953e-07
1.17956e-07
1.17961e-07
1.17964e-07
1.17968e-07
1.17973e-07
1.17976e-07
1.17983e-07
1.17984e-07
1.17993e-07
1.17994e-07
1.18e-07
1.17997e-07
1.18003e-07
1.18003e-07
1.18004e-07
1.18006e-07
1.18002e-07
1.18002e-07
1.18004e-07
1.18007e-07
1.18009e-07
1.18012e-07
1.18013e-07
1.18015e-07
1.18017e-07
1.18021e-07
1.1803e-07
1.18041e-07
1.18054e-07
1.18065e-07
1.18083e-07
1.18092e-07
1.18111e-07
1.18118e-07
1.18133e-07
1.18139e-07
1.18152e-07
1.1816e-07
1.1817e-07
1.1818e-07
1.18191e-07
1.18201e-07
1.18203e-07
1.18236e-07
1.19444e-07
1.22575e-07
1.5965e-08
1.23964e-07
1.23038e-07
1.22191e-07
1.21417e-07
1.20756e-07
1.20195e-07
1.19748e-07
1.19376e-07
1.19088e-07
1.18846e-07
1.18662e-07
1.18502e-07
1.18384e-07
1.18276e-07
1.18201e-07
1.18128e-07
1.1808e-07
1.1803e-07
1.18001e-07
1.17966e-07
1.17949e-07
1.17925e-07
1.17916e-07
1.179e-07
1.17896e-07
1.17885e-07
1.17886e-07
1.17879e-07
1.17881e-07
1.17876e-07
1.17881e-07
1.17878e-07
1.17884e-07
1.17883e-07
1.1789e-07
1.1789e-07
1.17896e-07
1.17896e-07
1.17903e-07
1.17905e-07
1.17911e-07
1.17913e-07
1.17921e-07
1.17923e-07
1.17929e-07
1.17932e-07
1.17939e-07
1.17943e-07
1.17948e-07
1.17951e-07
1.17955e-07
1.17958e-07
1.17963e-07
1.17968e-07
1.17971e-07
1.17978e-07
1.17979e-07
1.17987e-07
1.17988e-07
1.17994e-07
1.17992e-07
1.17997e-07
1.17998e-07
1.17999e-07
1.18001e-07
1.17997e-07
1.17997e-07
1.17999e-07
1.18002e-07
1.18004e-07
1.18006e-07
1.18008e-07
1.18009e-07
1.18012e-07
1.18015e-07
1.18024e-07
1.18036e-07
1.18049e-07
1.18059e-07
1.18077e-07
1.18086e-07
1.18105e-07
1.18112e-07
1.18127e-07
1.18133e-07
1.18146e-07
1.18154e-07
1.18164e-07
1.18174e-07
1.18185e-07
1.18195e-07
1.18198e-07
1.1823e-07
1.19461e-07
1.22577e-07
1.66918e-08
1.23964e-07
1.23038e-07
1.22191e-07
1.21417e-07
1.20756e-07
1.20194e-07
1.19747e-07
1.19374e-07
1.19086e-07
1.18843e-07
1.18659e-07
1.18498e-07
1.1838e-07
1.18272e-07
1.18197e-07
1.18124e-07
1.18076e-07
1.18025e-07
1.17996e-07
1.17961e-07
1.17944e-07
1.1792e-07
1.17911e-07
1.17894e-07
1.17891e-07
1.1788e-07
1.1788e-07
1.17873e-07
1.17875e-07
1.17871e-07
1.17876e-07
1.17873e-07
1.17878e-07
1.17877e-07
1.17884e-07
1.17884e-07
1.1789e-07
1.1789e-07
1.17897e-07
1.17899e-07
1.17905e-07
1.17907e-07
1.17915e-07
1.17917e-07
1.17923e-07
1.17927e-07
1.17933e-07
1.17937e-07
1.17942e-07
1.17945e-07
1.17949e-07
1.17952e-07
1.17957e-07
1.17962e-07
1.17965e-07
1.17972e-07
1.17973e-07
1.17981e-07
1.17982e-07
1.17988e-07
1.17986e-07
1.17991e-07
1.17992e-07
1.17993e-07
1.17995e-07
1.17991e-07
1.17991e-07
1.17993e-07
1.17996e-07
1.17998e-07
1.18001e-07
1.18002e-07
1.18004e-07
1.18006e-07
1.18009e-07
1.18018e-07
1.18029e-07
1.18042e-07
1.18053e-07
1.18071e-07
1.1808e-07
1.18098e-07
1.18106e-07
1.18121e-07
1.18127e-07
1.1814e-07
1.18148e-07
1.18158e-07
1.18168e-07
1.18179e-07
1.18189e-07
1.18191e-07
1.18224e-07
1.19481e-07
1.22579e-07
1.74623e-08
1.23963e-07
1.23038e-07
1.22191e-07
1.21417e-07
1.20756e-07
1.20194e-07
1.19746e-07
1.19373e-07
1.19084e-07
1.1884e-07
1.18656e-07
1.18495e-07
1.18376e-07
1.18268e-07
1.18192e-07
1.18119e-07
1.18071e-07
1.1802e-07
1.1799e-07
1.17955e-07
1.17938e-07
1.17914e-07
1.17905e-07
1.17888e-07
1.17885e-07
1.17874e-07
1.17874e-07
1.17867e-07
1.17869e-07
1.17864e-07
1.17869e-07
1.17866e-07
1.17871e-07
1.17871e-07
1.17877e-07
1.17877e-07
1.17883e-07
1.17884e-07
1.17891e-07
1.17892e-07
1.17898e-07
1.17901e-07
1.17909e-07
1.1791e-07
1.17917e-07
1.1792e-07
1.17927e-07
1.1793e-07
1.17935e-07
1.17938e-07
1.17943e-07
1.17946e-07
1.1795e-07
1.17955e-07
1.17958e-07
1.17965e-07
1.17966e-07
1.17975e-07
1.17976e-07
1.17982e-07
1.1798e-07
1.17985e-07
1.17985e-07
1.17986e-07
1.17988e-07
1.17984e-07
1.17984e-07
1.17986e-07
1.1799e-07
1.17992e-07
1.17994e-07
1.17996e-07
1.17997e-07
1.18e-07
1.18003e-07
1.18012e-07
1.18023e-07
1.18035e-07
1.18046e-07
1.18063e-07
1.18073e-07
1.18091e-07
1.18098e-07
1.18114e-07
1.1812e-07
1.18133e-07
1.18141e-07
1.18151e-07
1.18161e-07
1.18172e-07
1.18182e-07
1.18184e-07
1.18218e-07
1.19504e-07
1.22581e-07
1.82755e-08
1.23963e-07
1.23038e-07
1.22191e-07
1.21417e-07
1.20756e-07
1.20193e-07
1.19744e-07
1.19371e-07
1.19082e-07
1.18837e-07
1.18652e-07
1.18491e-07
1.18372e-07
1.18263e-07
1.18187e-07
1.18113e-07
1.18065e-07
1.18014e-07
1.17984e-07
1.17949e-07
1.17932e-07
1.17907e-07
1.17898e-07
1.17882e-07
1.17878e-07
1.17867e-07
1.17867e-07
1.1786e-07
1.17862e-07
1.17857e-07
1.17862e-07
1.17859e-07
1.17864e-07
1.17863e-07
1.1787e-07
1.1787e-07
1.17876e-07
1.17876e-07
1.17883e-07
1.17885e-07
1.17891e-07
1.17893e-07
1.17901e-07
1.17903e-07
1.17909e-07
1.17913e-07
1.17919e-07
1.17923e-07
1.17928e-07
1.17931e-07
1.17935e-07
1.17938e-07
1.17943e-07
1.17948e-07
1.17951e-07
1.17958e-07
1.17959e-07
1.17967e-07
1.17968e-07
1.17974e-07
1.17972e-07
1.17977e-07
1.17978e-07
1.17979e-07
1.17981e-07
1.17977e-07
1.17977e-07
1.17979e-07
1.17982e-07
1.17984e-07
1.17987e-07
1.17988e-07
1.1799e-07
1.17992e-07
1.17995e-07
1.18004e-07
1.18015e-07
1.18027e-07
1.18038e-07
1.18055e-07
1.18065e-07
1.18083e-07
1.1809e-07
1.18106e-07
1.18112e-07
1.18125e-07
1.18133e-07
1.18143e-07
1.18153e-07
1.18165e-07
1.18174e-07
1.18177e-07
1.18211e-07
1.19531e-07
1.22583e-07
1.91308e-08
1.23963e-07
1.23038e-07
1.22192e-07
1.21418e-07
1.20756e-07
1.20193e-07
1.19743e-07
1.19369e-07
1.19079e-07
1.18834e-07
1.18648e-07
1.18486e-07
1.18367e-07
1.18258e-07
1.18182e-07
1.18107e-07
1.18059e-07
1.18008e-07
1.17978e-07
1.17942e-07
1.17925e-07
1.179e-07
1.17891e-07
1.17874e-07
1.17871e-07
1.17859e-07
1.17859e-07
1.17852e-07
1.17855e-07
1.1785e-07
1.17854e-07
1.17851e-07
1.17857e-07
1.17856e-07
1.17862e-07
1.17862e-07
1.17868e-07
1.17869e-07
1.17876e-07
1.17877e-07
1.17883e-07
1.17885e-07
1.17893e-07
1.17895e-07
1.17901e-07
1.17905e-07
1.17911e-07
1.17915e-07
1.1792e-07
1.17923e-07
1.17927e-07
1.1793e-07
1.17935e-07
1.1794e-07
1.17943e-07
1.1795e-07
1.17951e-07
1.17959e-07
1.1796e-07
1.17966e-07
1.17964e-07
1.17969e-07
1.1797e-07
1.17971e-07
1.17973e-07
1.17969e-07
1.17969e-07
1.17971e-07
1.17974e-07
1.17977e-07
1.17979e-07
1.17981e-07
1.17982e-07
1.17985e-07
1.17988e-07
1.17996e-07
1.18007e-07
1.18019e-07
1.1803e-07
1.18047e-07
1.18056e-07
1.18074e-07
1.18082e-07
1.18097e-07
1.18103e-07
1.18117e-07
1.18124e-07
1.18135e-07
1.18144e-07
1.18156e-07
1.18166e-07
1.18168e-07
1.18203e-07
1.19561e-07
1.22585e-07
2.00304e-08
1.23963e-07
1.23038e-07
1.22192e-07
1.21418e-07
1.20756e-07
1.20192e-07
1.19742e-07
1.19367e-07
1.19076e-07
1.1883e-07
1.18644e-07
1.18481e-07
1.18362e-07
1.18252e-07
1.18176e-07
1.18101e-07
1.18052e-07
1.18001e-07
1.17971e-07
1.17935e-07
1.17917e-07
1.17893e-07
1.17883e-07
1.17866e-07
1.17863e-07
1.17851e-07
1.17851e-07
1.17844e-07
1.17846e-07
1.17841e-07
1.17846e-07
1.17843e-07
1.17848e-07
1.17847e-07
1.17854e-07
1.17854e-07
1.17859e-07
1.1786e-07
1.17867e-07
1.17869e-07
1.17874e-07
1.17877e-07
1.17885e-07
1.17886e-07
1.17893e-07
1.17896e-07
1.17903e-07
1.17906e-07
1.17911e-07
1.17914e-07
1.17919e-07
1.17922e-07
1.17926e-07
1.17931e-07
1.17934e-07
1.17941e-07
1.17942e-07
1.1795e-07
1.17952e-07
1.17958e-07
1.17956e-07
1.17961e-07
1.17961e-07
1.17962e-07
1.17965e-07
1.17961e-07
1.17961e-07
1.17962e-07
1.17966e-07
1.17968e-07
1.1797e-07
1.17972e-07
1.17973e-07
1.17976e-07
1.17979e-07
1.17987e-07
1.17998e-07
1.1801e-07
1.1802e-07
1.18037e-07
1.18046e-07
1.18065e-07
1.18072e-07
1.18088e-07
1.18094e-07
1.18108e-07
1.18115e-07
1.18126e-07
1.18135e-07
1.18147e-07
1.18156e-07
1.18159e-07
1.18195e-07
1.19595e-07
1.22587e-07
2.09773e-08
1.23963e-07
1.23038e-07
1.22192e-07
1.21418e-07
1.20756e-07
1.20192e-07
1.1974e-07
1.19365e-07
1.19073e-07
1.18827e-07
1.1864e-07
1.18476e-07
1.18356e-07
1.18246e-07
1.18169e-07
1.18094e-07
1.18045e-07
1.17993e-07
1.17963e-07
1.17927e-07
1.17909e-07
1.17884e-07
1.17875e-07
1.17858e-07
1.17854e-07
1.17842e-07
1.17842e-07
1.17835e-07
1.17837e-07
1.17832e-07
1.17837e-07
1.17834e-07
1.17839e-07
1.17838e-07
1.17844e-07
1.17844e-07
1.1785e-07
1.17851e-07
1.17858e-07
1.17859e-07
1.17865e-07
1.17867e-07
1.17875e-07
1.17877e-07
1.17883e-07
1.17886e-07
1.17893e-07
1.17897e-07
1.17902e-07
1.17905e-07
1.17909e-07
1.17912e-07
1.17916e-07
1.17922e-07
1.17925e-07
1.17932e-07
1.17932e-07
1.17941e-07
1.17942e-07
1.17948e-07
1.17946e-07
1.17951e-07
1.17952e-07
1.17953e-07
1.17955e-07
1.17951e-07
1.17952e-07
1.17953e-07
1.17956e-07
1.17959e-07
1.17961e-07
1.17963e-07
1.17964e-07
1.17967e-07
1.1797e-07
1.17978e-07
1.17988e-07
1.18e-07
1.1801e-07
1.18027e-07
1.18036e-07
1.18054e-07
1.18062e-07
1.18078e-07
1.18084e-07
1.18098e-07
1.18105e-07
1.18116e-07
1.18125e-07
1.18137e-07
1.18146e-07
1.18149e-07
1.18186e-07
1.19633e-07
1.22587e-07
2.19745e-08
1.23963e-07
1.23039e-07
1.22193e-07
1.21418e-07
1.20756e-07
1.20191e-07
1.19739e-07
1.19362e-07
1.1907e-07
1.18823e-07
1.18635e-07
1.18471e-07
1.1835e-07
1.1824e-07
1.18162e-07
1.18087e-07
1.18037e-07
1.17985e-07
1.17955e-07
1.17919e-07
1.179e-07
1.17875e-07
1.17866e-07
1.17849e-07
1.17845e-07
1.17833e-07
1.17833e-07
1.17825e-07
1.17827e-07
1.17822e-07
1.17827e-07
1.17824e-07
1.17829e-07
1.17828e-07
1.17834e-07
1.17834e-07
1.1784e-07
1.17841e-07
1.17847e-07
1.17849e-07
1.17855e-07
1.17857e-07
1.17865e-07
1.17866e-07
1.17873e-07
1.17876e-07
1.17883e-07
1.17887e-07
1.17892e-07
1.17895e-07
1.17899e-07
1.17902e-07
1.17906e-07
1.17912e-07
1.17915e-07
1.17922e-07
1.17922e-07
1.17931e-07
1.17932e-07
1.17938e-07
1.17936e-07
1.17941e-07
1.17942e-07
1.17943e-07
1.17945e-07
1.17941e-07
1.17942e-07
1.17943e-07
1.17946e-07
1.17949e-07
1.17951e-07
1.17953e-07
1.17954e-07
1.17957e-07
1.1796e-07
1.17967e-07
1.17977e-07
1.17989e-07
1.18e-07
1.18016e-07
1.18025e-07
1.18043e-07
1.18051e-07
1.18067e-07
1.18073e-07
1.18087e-07
1.18094e-07
1.18105e-07
1.18114e-07
1.18127e-07
1.18135e-07
1.18138e-07
1.18176e-07
1.19675e-07
1.22587e-07
2.3025e-08
1.23963e-07
1.23039e-07
1.22193e-07
1.21419e-07
1.20756e-07
1.2019e-07
1.19737e-07
1.1936e-07
1.19066e-07
1.18818e-07
1.1863e-07
1.18465e-07
1.18344e-07
1.18233e-07
1.18155e-07
1.18079e-07
1.18029e-07
1.17977e-07
1.17946e-07
1.17909e-07
1.17891e-07
1.17866e-07
1.17856e-07
1.17839e-07
1.17835e-07
1.17823e-07
1.17822e-07
1.17815e-07
1.17817e-07
1.17812e-07
1.17816e-07
1.17813e-07
1.17818e-07
1.17817e-07
1.17824e-07
1.17823e-07
1.17829e-07
1.1783e-07
1.17837e-07
1.17838e-07
1.17844e-07
1.17846e-07
1.17854e-07
1.17856e-07
1.17862e-07
1.17865e-07
1.17872e-07
1.17876e-07
1.17881e-07
1.17884e-07
1.17888e-07
1.17891e-07
1.17895e-07
1.17901e-07
1.17904e-07
1.17911e-07
1.17911e-07
1.1792e-07
1.17921e-07
1.17927e-07
1.17925e-07
1.1793e-07
1.17931e-07
1.17932e-07
1.17935e-07
1.17931e-07
1.17931e-07
1.17932e-07
1.17936e-07
1.17938e-07
1.1794e-07
1.17942e-07
1.17943e-07
1.17946e-07
1.17949e-07
1.17957e-07
1.17966e-07
1.17977e-07
1.17988e-07
1.18004e-07
1.18014e-07
1.18031e-07
1.18039e-07
1.18055e-07
1.18061e-07
1.18075e-07
1.18082e-07
1.18094e-07
1.18103e-07
1.18115e-07
1.18124e-07
1.18127e-07
1.18165e-07
1.19721e-07
1.22585e-07
2.41322e-08
1.23963e-07
1.23039e-07
1.22193e-07
1.21419e-07
1.20756e-07
1.20189e-07
1.19736e-07
1.19357e-07
1.19063e-07
1.18814e-07
1.18624e-07
1.18459e-07
1.18337e-07
1.18225e-07
1.18146e-07
1.1807e-07
1.1802e-07
1.17967e-07
1.17936e-07
1.17899e-07
1.17881e-07
1.17855e-07
1.17846e-07
1.17828e-07
1.17824e-07
1.17812e-07
1.17811e-07
1.17804e-07
1.17806e-07
1.178e-07
1.17805e-07
1.17802e-07
1.17807e-07
1.17806e-07
1.17812e-07
1.17812e-07
1.17818e-07
1.17818e-07
1.17825e-07
1.17827e-07
1.17832e-07
1.17835e-07
1.17842e-07
1.17844e-07
1.1785e-07
1.17854e-07
1.1786e-07
1.17864e-07
1.17869e-07
1.17872e-07
1.17876e-07
1.17879e-07
1.17884e-07
1.17889e-07
1.17892e-07
1.17899e-07
1.179e-07
1.17908e-07
1.17909e-07
1.17915e-07
1.17914e-07
1.17919e-07
1.17919e-07
1.17921e-07
1.17923e-07
1.17919e-07
1.17919e-07
1.17921e-07
1.17924e-07
1.17926e-07
1.17929e-07
1.1793e-07
1.17932e-07
1.17934e-07
1.17937e-07
1.17945e-07
1.17954e-07
1.17965e-07
1.17976e-07
1.17991e-07
1.18001e-07
1.18019e-07
1.18027e-07
1.18042e-07
1.18049e-07
1.18063e-07
1.1807e-07
1.18081e-07
1.1809e-07
1.18103e-07
1.18111e-07
1.18115e-07
1.18154e-07
1.19771e-07
1.21105e-07
2.52996e-08
1.23963e-07
1.23039e-07
1.22194e-07
1.2142e-07
1.20756e-07
1.20189e-07
1.19734e-07
1.19354e-07
1.19059e-07
1.18809e-07
1.18618e-07
1.18452e-07
1.18329e-07
1.18217e-07
1.18138e-07
1.18061e-07
1.18011e-07
1.17957e-07
1.17926e-07
1.17889e-07
1.1787e-07
1.17844e-07
1.17834e-07
1.17817e-07
1.17812e-07
1.178e-07
1.178e-07
1.17792e-07
1.17794e-07
1.17788e-07
1.17793e-07
1.17789e-07
1.17795e-07
1.17793e-07
1.178e-07
1.178e-07
1.17805e-07
1.17806e-07
1.17813e-07
1.17814e-07
1.1782e-07
1.17822e-07
1.1783e-07
1.17831e-07
1.17838e-07
1.17841e-07
1.17848e-07
1.17852e-07
1.17857e-07
1.1786e-07
1.17864e-07
1.17867e-07
1.17871e-07
1.17876e-07
1.17879e-07
1.17886e-07
1.17887e-07
1.17895e-07
1.17897e-07
1.17903e-07
1.17901e-07
1.17906e-07
1.17907e-07
1.17908e-07
1.17911e-07
1.17907e-07
1.17907e-07
1.17909e-07
1.17912e-07
1.17914e-07
1.17916e-07
1.17918e-07
1.17919e-07
1.17922e-07
1.17925e-07
1.17932e-07
1.17941e-07
1.17952e-07
1.17963e-07
1.17978e-07
1.17988e-07
1.18005e-07
1.18013e-07
1.18029e-07
1.18035e-07
1.1805e-07
1.18056e-07
1.18068e-07
1.18077e-07
1.1809e-07
1.18098e-07
1.18101e-07
1.18142e-07
1.19826e-07
1.14622e-07
2.65306e-08
1.23963e-07
1.23039e-07
1.22194e-07
1.2142e-07
1.20756e-07
1.20188e-07
1.19732e-07
1.19351e-07
1.19055e-07
1.18803e-07
1.18612e-07
1.18445e-07
1.18322e-07
1.18208e-07
1.18129e-07
1.18051e-07
1.18e-07
1.17947e-07
1.17915e-07
1.17878e-07
1.17859e-07
1.17833e-07
1.17823e-07
1.17805e-07
1.178e-07
1.17788e-07
1.17787e-07
1.17779e-07
1.17781e-07
1.17776e-07
1.1778e-07
1.17777e-07
1.17782e-07
1.1778e-07
1.17787e-07
1.17786e-07
1.17792e-07
1.17793e-07
1.17799e-07
1.17801e-07
1.17807e-07
1.17809e-07
1.17817e-07
1.17818e-07
1.17825e-07
1.17828e-07
1.17834e-07
1.17838e-07
1.17843e-07
1.17846e-07
1.17851e-07
1.17854e-07
1.17858e-07
1.17863e-07
1.17866e-07
1.17873e-07
1.17874e-07
1.17882e-07
1.17883e-07
1.1789e-07
1.17888e-07
1.17893e-07
1.17894e-07
1.17895e-07
1.17897e-07
1.17894e-07
1.17894e-07
1.17895e-07
1.17899e-07
1.17901e-07
1.17903e-07
1.17905e-07
1.17906e-07
1.17909e-07
1.17912e-07
1.17919e-07
1.17928e-07
1.17938e-07
1.17949e-07
1.17963e-07
1.17973e-07
1.1799e-07
1.17998e-07
1.18015e-07
1.18021e-07
1.18035e-07
1.18042e-07
1.18054e-07
1.18063e-07
1.18076e-07
1.18083e-07
1.18087e-07
1.1813e-07
1.19884e-07
1.08825e-07
2.78291e-08
1.23963e-07
1.23039e-07
1.22194e-07
1.21421e-07
1.20756e-07
1.20187e-07
1.1973e-07
1.19348e-07
1.1905e-07
1.18798e-07
1.18606e-07
1.18438e-07
1.18313e-07
1.18199e-07
1.18119e-07
1.18041e-07
1.1799e-07
1.17936e-07
1.17904e-07
1.17866e-07
1.17847e-07
1.1782e-07
1.1781e-07
1.17792e-07
1.17787e-07
1.17775e-07
1.17774e-07
1.17766e-07
1.17768e-07
1.17762e-07
1.17767e-07
1.17763e-07
1.17768e-07
1.17766e-07
1.17773e-07
1.17773e-07
1.17778e-07
1.17779e-07
1.17785e-07
1.17787e-07
1.17793e-07
1.17795e-07
1.17803e-07
1.17804e-07
1.1781e-07
1.17814e-07
1.1782e-07
1.17824e-07
1.17829e-07
1.17832e-07
1.17836e-07
1.1784e-07
1.17844e-07
1.17849e-07
1.17852e-07
1.17859e-07
1.1786e-07
1.17868e-07
1.17869e-07
1.17875e-07
1.17874e-07
1.17879e-07
1.1788e-07
1.17881e-07
1.17884e-07
1.1788e-07
1.1788e-07
1.17882e-07
1.17885e-07
1.17887e-07
1.17889e-07
1.17891e-07
1.17892e-07
1.17895e-07
1.17898e-07
1.17905e-07
1.17913e-07
1.17923e-07
1.17934e-07
1.17948e-07
1.17958e-07
1.17975e-07
1.17983e-07
1.17999e-07
1.18006e-07
1.1802e-07
1.18027e-07
1.1804e-07
1.18047e-07
1.18061e-07
1.18068e-07
1.18073e-07
1.18116e-07
1.19947e-07
1.03644e-07
2.91986e-08
1.23963e-07
1.23039e-07
1.22195e-07
1.21421e-07
1.20756e-07
1.20186e-07
1.19728e-07
1.19345e-07
1.19046e-07
1.18792e-07
1.18599e-07
1.1843e-07
1.18305e-07
1.1819e-07
1.18109e-07
1.1803e-07
1.17979e-07
1.17924e-07
1.17892e-07
1.17853e-07
1.17834e-07
1.17807e-07
1.17797e-07
1.17778e-07
1.17773e-07
1.17761e-07
1.1776e-07
1.17752e-07
1.17754e-07
1.17748e-07
1.17752e-07
1.17748e-07
1.17753e-07
1.17752e-07
1.17758e-07
1.17758e-07
1.17764e-07
1.17764e-07
1.17771e-07
1.17772e-07
1.17778e-07
1.1778e-07
1.17788e-07
1.17789e-07
1.17795e-07
1.17799e-07
1.17805e-07
1.17809e-07
1.17814e-07
1.17817e-07
1.17821e-07
1.17825e-07
1.17829e-07
1.17834e-07
1.17837e-07
1.17844e-07
1.17845e-07
1.17853e-07
1.17854e-07
1.1786e-07
1.17859e-07
1.17864e-07
1.17865e-07
1.17866e-07
1.17869e-07
1.17866e-07
1.17866e-07
1.17867e-07
1.1787e-07
1.17872e-07
1.17874e-07
1.17876e-07
1.17878e-07
1.1788e-07
1.17883e-07
1.1789e-07
1.17898e-07
1.17908e-07
1.17918e-07
1.17932e-07
1.17942e-07
1.17959e-07
1.17967e-07
1.17983e-07
1.1799e-07
1.18004e-07
1.18011e-07
1.18024e-07
1.18031e-07
1.18046e-07
1.18052e-07
1.18057e-07
1.18102e-07
1.20013e-07
9.90088e-08
3.06426e-08
1.23963e-07
1.23039e-07
1.22195e-07
1.21422e-07
1.20756e-07
1.20185e-07
1.19726e-07
1.19341e-07
1.19041e-07
1.18786e-07
1.18592e-07
1.18421e-07
1.18296e-07
1.1818e-07
1.18098e-07
1.18019e-07
1.17967e-07
1.17912e-07
1.17879e-07
1.1784e-07
1.1782e-07
1.17793e-07
1.17783e-07
1.17764e-07
1.17759e-07
1.17746e-07
1.17745e-07
1.17737e-07
1.17739e-07
1.17732e-07
1.17737e-07
1.17733e-07
1.17738e-07
1.17736e-07
1.17743e-07
1.17742e-07
1.17748e-07
1.17748e-07
1.17755e-07
1.17756e-07
1.17762e-07
1.17764e-07
1.17772e-07
1.17773e-07
1.1778e-07
1.17783e-07
1.17789e-07
1.17793e-07
1.17798e-07
1.17801e-07
1.17806e-07
1.17809e-07
1.17813e-07
1.17818e-07
1.17821e-07
1.17828e-07
1.17829e-07
1.17837e-07
1.17838e-07
1.17845e-07
1.17843e-07
1.17848e-07
1.17849e-07
1.1785e-07
1.17853e-07
1.1785e-07
1.1785e-07
1.17851e-07
1.17854e-07
1.17856e-07
1.17859e-07
1.17861e-07
1.17862e-07
1.17864e-07
1.17868e-07
1.17874e-07
1.17882e-07
1.17892e-07
1.17902e-07
1.17915e-07
1.17925e-07
1.17941e-07
1.1795e-07
1.17966e-07
1.17973e-07
1.17988e-07
1.17994e-07
1.18007e-07
1.18015e-07
1.18029e-07
1.18035e-07
1.1804e-07
1.18087e-07
1.20083e-07
9.48617e-08
3.21644e-08
1.23963e-07
1.23039e-07
1.22196e-07
1.21422e-07
1.20756e-07
1.20184e-07
1.19724e-07
1.19338e-07
1.19036e-07
1.1878e-07
1.18584e-07
1.18413e-07
1.18286e-07
1.18169e-07
1.18087e-07
1.18007e-07
1.17954e-07
1.17899e-07
1.17865e-07
1.17826e-07
1.17806e-07
1.17779e-07
1.17768e-07
1.17749e-07
1.17744e-07
1.17731e-07
1.1773e-07
1.17721e-07
1.17723e-07
1.17716e-07
1.17721e-07
1.17717e-07
1.17722e-07
1.1772e-07
1.17726e-07
1.17726e-07
1.17732e-07
1.17732e-07
1.17738e-07
1.1774e-07
1.17745e-07
1.17747e-07
1.17755e-07
1.17757e-07
1.17763e-07
1.17766e-07
1.17773e-07
1.17776e-07
1.17782e-07
1.17785e-07
1.17789e-07
1.17792e-07
1.17796e-07
1.17801e-07
1.17804e-07
1.17811e-07
1.17812e-07
1.1782e-07
1.17822e-07
1.17828e-07
1.17827e-07
1.17831e-07
1.17833e-07
1.17834e-07
1.17836e-07
1.17834e-07
1.17834e-07
1.17835e-07
1.17838e-07
1.1784e-07
1.17842e-07
1.17844e-07
1.17846e-07
1.17848e-07
1.17851e-07
1.17857e-07
1.17865e-07
1.17874e-07
1.17885e-07
1.17897e-07
1.17908e-07
1.17923e-07
1.17931e-07
1.17948e-07
1.17955e-07
1.1797e-07
1.17976e-07
1.17989e-07
1.17997e-07
1.18011e-07
1.18017e-07
1.18023e-07
1.18071e-07
1.20154e-07
9.11522e-08
3.37668e-08
1.23963e-07
1.23039e-07
1.22196e-07
1.21423e-07
1.20756e-07
1.20184e-07
1.19722e-07
1.19334e-07
1.19031e-07
1.18773e-07
1.18577e-07
1.18404e-07
1.18276e-07
1.18158e-07
1.18075e-07
1.17994e-07
1.17941e-07
1.17885e-07
1.17851e-07
1.17812e-07
1.17791e-07
1.17763e-07
1.17752e-07
1.17733e-07
1.17728e-07
1.17714e-07
1.17713e-07
1.17704e-07
1.17706e-07
1.177e-07
1.17704e-07
1.177e-07
1.17705e-07
1.17703e-07
1.17709e-07
1.17708e-07
1.17714e-07
1.17714e-07
1.17721e-07
1.17722e-07
1.17728e-07
1.1773e-07
1.17738e-07
1.17739e-07
1.17745e-07
1.17748e-07
1.17755e-07
1.17759e-07
1.17764e-07
1.17767e-07
1.17771e-07
1.17774e-07
1.17778e-07
1.17784e-07
1.17786e-07
1.17793e-07
1.17794e-07
1.17802e-07
1.17804e-07
1.1781e-07
1.17809e-07
1.17814e-07
1.17815e-07
1.17816e-07
1.17819e-07
1.17816e-07
1.17816e-07
1.17817e-07
1.1782e-07
1.17822e-07
1.17825e-07
1.17827e-07
1.17828e-07
1.17831e-07
1.17834e-07
1.1784e-07
1.17847e-07
1.17856e-07
1.17866e-07
1.17878e-07
1.17889e-07
1.17904e-07
1.17912e-07
1.17928e-07
1.17936e-07
1.17951e-07
1.17957e-07
1.17971e-07
1.17978e-07
1.17993e-07
1.17998e-07
1.18004e-07
1.18054e-07
1.20225e-07
8.78376e-08
3.54519e-08
1.23963e-07
1.23039e-07
1.22197e-07
1.21423e-07
1.20756e-07
1.20183e-07
1.1972e-07
1.1933e-07
1.19026e-07
1.18766e-07
1.18568e-07
1.18394e-07
1.18265e-07
1.18147e-07
1.18063e-07
1.17981e-07
1.17927e-07
1.1787e-07
1.17836e-07
1.17796e-07
1.17775e-07
1.17747e-07
1.17736e-07
1.17716e-07
1.17711e-07
1.17697e-07
1.17696e-07
1.17687e-07
1.17688e-07
1.17682e-07
1.17686e-07
1.17682e-07
1.17687e-07
1.17684e-07
1.17691e-07
1.1769e-07
1.17696e-07
1.17696e-07
1.17702e-07
1.17704e-07
1.17709e-07
1.17711e-07
1.17719e-07
1.1772e-07
1.17727e-07
1.1773e-07
1.17736e-07
1.1774e-07
1.17745e-07