/*--------------------------------*- C++ -*----------------------------------*\
| =========                 |                                                 |
| \\      /  F ield         | OpenFOAM: The Open Source CFD Toolbox           |
|  \\    /   O peration     | Version:  v2012                                 |
|   \\  /    A nd           | Website:  www.openfoam.com                      |
|    \\/     M anipulation  |                                                 |
\*---------------------------------------------------------------------------*/
FoamFile
{
    version     2.0;
    format      ascii;
    class       volScalarField;
    location    "40.5";
    object      omega;
}
// * * * * * * * * * * * * * * * * * * * * * * * * * * * * * * * * * * * * * //

dimensions      [0 0 -1 0 0 0 0];


internalField   nonuniform List<scalar> 
209825
(
8261.52
7567.52
6999.59
6547.86
6193.77
5916.93
5698.06
5523.24
5381.03
5264.36
5166.82
5085.02
5015.06
4955.42
4903.42
4858.55
4818.78
4784.17
4753.04
4725.78
4700.93
4679.1
4658.93
4641.18
4624.58
4609.99
4596.17
4584.04
4572.39
4562.23
4552.34
4543.75
4535.28
4527.98
4520.67
4514.44
4508.12
4502.77
4497.25
4492.63
4487.84
4483.83
4479.6
4476.15
4472.45
4469.43
4466.15
4463.49
4460.65
4458.33
4455.85
4453.88
4451.75
4449.91
4448.05
4446.47
4444.83
4443.43
4441.96
4440.81
4439.62
4438.63
4437.54
4436.79
4435.84
4435.17
4434.3
4433.79
4433.09
4432.73
4432.12
4431.81
4431.28
4431
4430.47
4430.18
4429.72
4429.5
4429.12
4428.96
4428.64
4428.58
4428.44
4428.56
4428.55
4428.85
4428.85
4429.4
4429.4
4430.1
4430.1
4431.08
4431.75
4461.24
4573.22
113232
8261.52
7567.53
6999.59
6547.86
6193.76
5916.91
5698.02
5523.19
5380.97
5264.29
5166.74
5084.94
5014.97
4955.33
4903.32
4858.45
4818.68
4784.06
4752.93
4725.67
4700.81
4678.98
4658.81
4641.06
4624.46
4609.87
4596.04
4583.91
4572.26
4562.1
4552.21
4543.62
4535.15
4527.85
4520.54
4514.31
4507.99
4502.63
4497.12
4492.49
4487.71
4483.69
4479.46
4476.01
4472.31
4469.29
4466.01
4463.35
4460.51
4458.19
4455.71
4453.74
4451.61
4449.77
4447.91
4446.33
4444.68
4443.29
4441.82
4440.66
4439.47
4438.49
4437.4
4436.65
4435.7
4435.03
4434.16
4433.65
4432.95
4432.58
4431.97
4431.67
4431.13
4430.86
4430.33
4430.04
4429.57
4429.36
4428.97
4428.82
4428.49
4428.44
4428.29
4428.41
4428.4
4428.71
4428.71
4429.25
4429.25
4429.95
4429.95
4430.93
4431.61
4461.14
4573.11
109934
8261.52
7567.53
6999.59
6547.83
6193.7
5916.8
5697.88
5523.01
5380.77
5264.06
5166.49
5084.67
5014.68
4955.01
4903
4858.11
4818.33
4783.7
4752.56
4725.3
4700.43
4678.59
4658.41
4640.66
4624.05
4609.46
4595.63
4583.49
4571.84
4561.68
4551.78
4543.19
4534.71
4527.41
4520.1
4513.87
4507.54
4502.19
4496.67
4492.04
4487.26
4483.24
4479.01
4475.56
4471.85
4468.83
4465.55
4462.89
4460.05
4457.73
4455.25
4453.28
4451.14
4449.31
4447.44
4445.86
4444.22
4442.82
4441.35
4440.19
4439
4438.02
4436.92
4436.17
4435.22
4434.55
4433.68
4433.17
4432.47
4432.1
4431.5
4431.19
4430.66
4430.38
4429.85
4429.56
4429.09
4428.88
4428.49
4428.34
4428.01
4427.95
4427.81
4427.93
4427.92
4428.22
4428.22
4428.76
4428.76
4429.46
4429.47
4430.45
4431.12
4460.76
4572.7
106147
8261.52
7567.55
6999.59
6547.79
6193.59
5916.63
5697.64
5522.71
5380.41
5263.66
5166.05
5084.19
5014.17
4954.48
4902.44
4857.53
4817.73
4783.09
4751.93
4724.65
4699.77
4677.93
4657.74
4639.97
4623.35
4608.76
4594.92
4582.77
4571.11
4560.95
4551.04
4542.45
4533.97
4526.66
4519.35
4513.11
4506.78
4501.42
4495.9
4491.27
4486.48
4482.46
4478.23
4474.78
4471.07
4468.05
4464.77
4462.1
4459.26
4456.94
4454.45
4452.48
4450.34
4448.51
4446.64
4445.06
4443.41
4442.01
4440.54
4439.39
4438.19
4437.21
4436.11
4435.36
4434.41
4433.74
4432.87
4432.36
4431.65
4431.29
4430.68
4430.37
4429.84
4429.56
4429.03
4428.74
4428.27
4428.06
4427.67
4427.51
4427.19
4427.13
4426.98
4427.1
4427.09
4427.39
4427.39
4427.93
4427.93
4428.63
4428.63
4429.61
4430.29
4460.09
4571.98
102254
8261.52
7567.57
6999.59
6547.72
6193.43
5916.37
5697.29
5522.28
5379.9
5263.09
5165.42
5083.51
5013.45
4953.72
4901.64
4856.71
4816.88
4782.21
4751.03
4723.73
4698.83
4676.97
4656.77
4638.99
4622.36
4607.75
4593.9
4581.75
4570.08
4559.91
4549.99
4541.39
4532.91
4525.6
4518.27
4512.03
4505.7
4500.34
4494.81
4490.18
4485.38
4481.36
4477.12
4473.67
4469.95
4466.93
4463.64
4460.98
4458.13
4455.81
4453.32
4451.35
4449.21
4447.37
4445.5
4443.92
4442.27
4440.87
4439.4
4438.24
4437.04
4436.06
4434.96
4434.21
4433.25
4432.58
4431.71
4431.2
4430.49
4430.12
4429.52
4429.21
4428.67
4428.39
4427.86
4427.57
4427.11
4426.89
4426.5
4426.34
4426.02
4425.96
4425.81
4425.92
4425.91
4426.21
4426.21
4426.74
4426.74
4427.44
4427.44
4428.42
4429.1
4459.13
4570.95
98357.4
8261.53
7567.59
6999.59
6547.64
6193.23
5916.04
5696.84
5521.72
5379.24
5262.34
5164.59
5082.62
5012.5
4952.72
4900.6
4855.63
4815.76
4781.07
4749.86
4722.53
4697.61
4675.73
4655.51
4637.72
4621.07
4606.44
4592.58
4580.42
4568.74
4558.55
4548.63
4540.02
4531.52
4524.2
4516.87
4510.62
4504.28
4498.92
4493.38
4488.75
4483.95
4479.91
4475.68
4472.22
4468.5
4465.47
4462.18
4459.52
4456.66
4454.34
4451.85
4449.87
4447.72
4445.89
4444.01
4442.43
4440.78
4439.37
4437.9
4436.74
4435.54
4434.55
4433.45
4432.7
4431.75
4431.07
4430.2
4429.68
4428.98
4428.61
4428
4427.69
4427.15
4426.87
4426.34
4426.05
4425.58
4425.36
4424.97
4424.81
4424.49
4424.43
4424.27
4424.38
4424.37
4424.66
4424.66
4425.2
4425.2
4425.89
4425.89
4426.87
4427.55
4457.87
4569.61
94498.3
8261.53
7567.63
6999.59
6547.54
6192.98
5915.64
5696.28
5521.02
5378.42
5261.41
5163.58
5081.52
5011.33
4951.49
4899.31
4854.29
4814.38
4779.65
4748.4
4721.05
4696.1
4674.19
4653.95
4636.13
4619.46
4604.82
4590.94
4578.76
4567.07
4556.87
4546.93
4538.32
4529.81
4522.48
4515.14
4508.88
4502.53
4497.16
4491.62
4486.97
4482.17
4478.13
4473.89
4470.42
4466.7
4463.66
4460.37
4457.7
4454.84
4452.51
4450.02
4448.04
4445.89
4444.05
4442.17
4440.59
4438.93
4437.52
4436.05
4434.88
4433.68
4432.69
4431.59
4430.83
4429.88
4429.2
4428.33
4427.81
4427.1
4426.73
4426.12
4425.81
4425.27
4424.99
4424.45
4424.16
4423.69
4423.47
4423.08
4422.92
4422.59
4422.53
4422.37
4422.48
4422.47
4422.75
4422.75
4423.28
4423.28
4423.97
4423.97
4424.94
4425.63
4456.31
4567.96
90695.4
8261.53
7567.66
6999.59
6547.41
6192.68
5915.15
5695.62
5520.19
5377.45
5260.31
5162.36
5080.21
5009.94
4950.02
4897.78
4852.7
4812.74
4777.96
4746.67
4719.28
4694.29
4672.35
4652.08
4634.24
4617.55
4602.88
4588.98
4576.79
4565.08
4554.86
4544.91
4536.28
4527.76
4520.42
4513.06
4506.8
4500.44
4495.06
4489.51
4484.85
4480.04
4476
4471.74
4468.27
4464.54
4461.5
4458.21
4455.53
4452.67
4450.33
4447.83
4445.85
4443.7
4441.85
4439.97
4438.38
4436.72
4435.31
4433.83
4432.66
4431.46
4430.47
4429.36
4428.6
4427.64
4426.97
4426.09
4425.57
4424.86
4424.48
4423.87
4423.56
4423.02
4422.74
4422.2
4421.9
4421.43
4421.21
4420.82
4420.66
4420.33
4420.26
4420.1
4420.2
4420.19
4420.47
4420.47
4420.99
4420.99
4421.67
4421.67
4422.64
4423.34
4454.46
4565.99
86957.3
8261.54
7567.71
6999.6
6547.27
6192.34
5914.59
5694.84
5519.22
5376.31
5259.03
5160.95
5078.68
5008.31
4948.31
4895.99
4850.84
4810.81
4775.98
4744.64
4717.21
4692.18
4670.21
4649.9
4632.03
4615.31
4600.62
4586.7
4574.48
4562.75
4552.51
4542.55
4533.9
4525.36
4518.01
4510.64
4504.37
4498
4492.6
4487.04
4482.38
4477.56
4473.5
4469.25
4465.77
4462.03
4458.98
4455.68
4453
4450.13
4447.79
4445.28
4443.29
4441.13
4439.29
4437.4
4435.81
4434.14
4432.73
4431.24
4430.07
4428.87
4427.87
4426.76
4426
4425.03
4424.35
4423.48
4422.95
4422.24
4421.86
4421.24
4420.93
4420.39
4420.1
4419.57
4419.27
4418.8
4418.57
4418.18
4418.01
4417.68
4417.61
4417.44
4417.54
4417.52
4417.8
4417.8
4418.31
4418.31
4418.99
4418.99
4419.95
4420.67
4452.29
4563.71
83286.9
8261.54
7567.76
6999.6
6547.11
6191.95
5913.94
5693.95
5518.12
5375.01
5257.56
5159.33
5076.94
5006.45
4946.34
4893.93
4848.71
4808.61
4773.72
4742.32
4714.84
4689.77
4667.75
4647.4
4629.5
4612.75
4598.03
4584.08
4571.84
4560.08
4549.83
4539.84
4531.18
4522.62
4515.25
4507.87
4501.58
4495.2
4489.79
4484.22
4479.55
4474.71
4470.65
4466.38
4462.89
4459.15
4456.09
4452.78
4450.09
4447.22
4444.87
4442.36
4440.36
4438.2
4436.34
4434.45
4432.86
4431.18
4429.77
4428.28
4427.1
4425.89
4424.89
4423.78
4423.01
4422.04
4421.36
4420.48
4419.95
4419.23
4418.85
4418.23
4417.92
4417.37
4417.09
4416.55
4416.25
4415.78
4415.55
4415.15
4414.98
4414.65
4414.58
4414.4
4414.49
4414.47
4414.74
4414.74
4415.24
4415.24
4415.91
4415.91
4416.88
4417.6
4449.82
4561.11
79682.4
8261.54
7567.82
6999.6
6546.93
6191.5
5913.22
5692.96
5516.87
5373.54
5255.9
5157.5
5074.96
5004.34
4944.13
4891.62
4846.3
4806.13
4771.16
4739.7
4712.16
4687.04
4664.98
4644.59
4626.64
4609.85
4595.11
4581.12
4568.85
4557.07
4546.79
4536.78
4528.1
4519.52
4512.14
4504.74
4498.43
4492.03
4486.61
4481.03
4476.34
4471.5
4467.42
4463.14
4459.65
4455.89
4452.83
4449.51
4446.81
4443.93
4441.57
4439.06
4437.05
4434.88
4433.02
4431.12
4429.52
4427.84
4426.42
4424.93
4423.75
4422.53
4421.53
4420.41
4419.64
4418.67
4417.98
4417.09
4416.56
4415.84
4415.46
4414.83
4414.51
4413.97
4413.68
4413.14
4412.84
4412.36
4412.13
4411.73
4411.56
4411.23
4411.15
4410.96
4411.05
4411.02
4411.28
4411.28
4411.78
4411.78
4412.44
4412.44
4413.4
4414.13
4447.03
4558.2
76138
8261.55
7567.88
6999.61
6546.73
6191.01
5912.41
5691.85
5515.49
5371.91
5254.05
5155.47
5072.77
5002
4941.66
4889.04
4843.62
4803.36
4768.31
4736.78
4709.18
4683.99
4661.88
4641.44
4623.45
4606.62
4591.84
4577.82
4565.52
4553.71
4543.4
4533.37
4524.66
4516.07
4508.66
4501.24
4494.92
4488.5
4483.06
4477.46
4472.77
4467.9
4463.82
4459.53
4456.02
4452.25
4449.18
4445.85
4443.15
4440.25
4437.89
4435.36
4433.35
4431.17
4429.31
4427.4
4425.8
4424.11
4422.69
4421.18
4420
4418.77
4417.77
4416.64
4415.87
4414.89
4414.2
4413.31
4412.77
4412.05
4411.66
4411.03
4410.71
4410.16
4409.87
4409.33
4409.03
4408.54
4408.31
4407.91
4407.74
4407.4
4407.32
4407.12
4407.2
4407.17
4407.42
4407.42
4407.91
4407.91
4408.55
4408.55
4409.51
4410.26
4443.92
4554.97
72649.8
8261.55
7567.95
6999.61
6546.51
6190.48
5911.53
5690.63
5513.96
5370.12
5252.02
5153.22
5070.34
4999.41
4938.93
4886.18
4840.66
4800.29
4765.16
4733.55
4705.87
4680.63
4658.45
4637.96
4619.93
4603.05
4588.22
4574.17
4561.83
4549.99
4539.66
4529.59
4520.86
4512.24
4504.81
4497.37
4491.03
4484.59
4479.14
4473.52
4468.81
4463.93
4459.83
4455.53
4452.01
4448.23
4445.15
4441.81
4439.09
4436.19
4433.82
4431.28
4429.26
4427.07
4425.2
4423.29
4421.67
4419.98
4418.55
4417.04
4415.85
4414.62
4413.61
4412.47
4411.69
4410.71
4410.02
4409.12
4408.58
4407.85
4407.46
4406.83
4406.5
4405.95
4405.66
4405.11
4404.81
4404.32
4404.08
4403.68
4403.5
4403.16
4403.08
4402.87
4402.95
4402.91
4403.14
4403.14
4403.62
4403.62
4404.26
4404.25
4405.21
4405.98
4440.49
4551.42
69224.3
8261.56
7568.02
6999.62
6546.28
6189.89
5910.56
5689.29
5512.29
5368.15
5249.79
5150.76
5067.68
4996.58
4935.94
4883.05
4837.41
4796.93
4761.7
4730
4702.25
4676.93
4654.69
4634.14
4616.05
4599.13
4584.26
4570.16
4557.79
4545.91
4535.54
4525.44
4516.68
4508.03
4500.58
4493.12
4486.75
4480.3
4474.83
4469.19
4464.46
4459.57
4455.46
4451.13
4447.6
4443.81
4440.71
4437.36
4434.64
4431.72
4429.34
4426.79
4424.76
4422.57
4420.69
4418.76
4417.14
4415.44
4414.01
4412.49
4411.29
4410.05
4409.04
4407.9
4407.11
4406.12
4405.43
4404.52
4403.98
4403.24
4402.84
4402.21
4401.88
4401.32
4401.03
4400.48
4400.17
4399.68
4399.44
4399.03
4398.85
4398.51
4398.42
4398.2
4398.27
4398.22
4398.45
4398.45
4398.91
4398.91
4399.53
4399.53
4400.48
4401.27
4436.72
4547.57
65867.5
8261.56
7568.11
6999.63
6546.02
6189.26
5909.52
5687.85
5510.48
5366.01
5247.36
5148.09
5064.78
4993.49
4932.68
4879.64
4833.87
4793.27
4757.94
4726.14
4698.3
4672.9
4650.6
4629.98
4611.83
4594.85
4579.93
4565.79
4553.37
4541.45
4531.05
4520.92
4512.13
4503.45
4495.97
4488.48
4482.09
4475.61
4470.12
4464.46
4459.72
4454.81
4450.68
4446.34
4442.79
4438.99
4435.88
4432.51
4429.78
4426.85
4424.46
4421.9
4419.86
4417.65
4415.77
4413.83
4412.2
4410.49
4409.05
4407.53
4406.32
4405.07
4404.05
4402.9
4402.11
4401.12
4400.41
4399.5
4398.95
4398.21
4397.81
4397.17
4396.84
4396.27
4395.98
4395.42
4395.11
4394.62
4394.37
4393.96
4393.78
4393.43
4393.33
4393.11
4393.17
4393.11
4393.33
4393.32
4393.78
4393.77
4394.38
4394.38
4395.33
4396.14
4432.61
4543.39
62585
8261.57
7568.2
6999.64
6545.75
6188.58
5908.39
5686.29
5508.52
5363.7
5244.74
5145.19
5061.65
4990.15
4929.16
4875.95
4830.03
4789.31
4753.86
4721.96
4694.02
4668.54
4646.16
4625.47
4607.26
4590.22
4575.24
4561.05
4548.59
4536.62
4526.18
4516.02
4507.19
4498.48
4490.97
4483.45
4477.04
4470.53
4465.02
4459.34
4454.58
4449.64
4445.5
4441.14
4437.58
4433.75
4430.64
4427.26
4424.5
4421.56
4419.16
4416.59
4414.54
4412.32
4410.42
4408.48
4406.84
4405.12
4403.68
4402.14
4400.93
4399.67
4398.64
4397.48
4396.69
4395.68
4394.98
4394.06
4393.5
4392.75
4392.35
4391.7
4391.36
4390.8
4390.5
4389.94
4389.62
4389.13
4388.88
4388.45
4388.27
4387.92
4387.82
4387.58
4387.63
4387.57
4387.77
4387.77
4388.2
4388.2
4388.8
4388.79
4389.73
4390.57
4428.16
4538.91
59382.2
8261.57
7568.29
6999.65
6545.47
6187.86
5907.19
5684.61
5506.42
5361.21
5241.92
5142.08
5058.28
4986.55
4925.36
4871.98
4825.9
4785.04
4749.46
4717.45
4689.41
4663.83
4641.37
4620.6
4602.32
4585.22
4570.19
4555.94
4543.43
4531.42
4520.93
4510.72
4501.86
4493.12
4485.58
4478.03
4471.59
4465.05
4459.52
4453.81
4449.02
4444.07
4439.91
4435.53
4431.95
4428.11
4424.97
4421.58
4418.81
4415.86
4413.44
4410.86
4408.79
4406.56
4404.66
4402.7
4401.06
4399.33
4397.87
4396.33
4395.11
4393.83
4392.8
4391.63
4390.83
4389.82
4389.11
4388.18
4387.62
4386.86
4386.45
4385.79
4385.45
4384.88
4384.58
4384.02
4383.7
4383.2
4382.94
4382.51
4382.32
4381.97
4381.86
4381.62
4381.66
4381.58
4381.77
4381.76
4382.19
4382.19
4382.76
4382.76
4383.69
4384.55
4423.34
4534.12
56263.8
8261.58
7568.39
6999.67
6545.16
6187.09
5905.9
5682.83
5504.17
5358.56
5238.9
5138.74
5054.67
4982.69
4921.29
4867.71
4821.47
4780.45
4744.74
4712.6
4684.46
4658.78
4636.23
4615.37
4597.02
4579.85
4564.75
4550.44
4537.88
4525.82
4515.29
4505.04
4496.14
4487.36
4479.78
4472.2
4465.73
4459.16
4453.6
4447.87
4443.06
4438.08
4433.9
4429.5
4425.9
4422.04
4418.89
4415.48
4412.7
4409.72
4407.3
4404.7
4402.62
4400.38
4398.46
4396.49
4394.84
4393.1
4391.63
4390.07
4388.85
4387.56
4386.53
4385.34
4384.53
4383.51
4382.8
4381.86
4381.3
4380.53
4380.11
4379.45
4379.1
4378.53
4378.22
4377.65
4377.33
4376.82
4376.56
4376.13
4375.93
4375.57
4375.46
4375.21
4375.23
4375.15
4375.33
4375.31
4375.72
4375.72
4376.28
4376.28
4377.2
4378.09
4418.16
4529.02
53234.4
8261.59
7568.5
6999.69
6544.84
6186.27
5904.54
5680.93
5501.78
5355.72
5235.68
5135.18
5050.81
4978.57
4916.94
4863.16
4816.73
4775.55
4739.7
4707.43
4679.17
4653.38
4630.73
4609.79
4591.36
4574.1
4558.94
4544.57
4531.95
4519.83
4509.26
4498.96
4490.01
4481.19
4473.58
4465.96
4459.46
4452.86
4447.27
4441.51
4436.67
4431.67
4427.47
4423.05
4419.43
4415.55
4412.38
4408.95
4406.15
4403.16
4400.72
4398.1
4396.01
4393.75
4391.83
4389.84
4388.18
4386.42
4384.95
4383.38
4382.14
4380.85
4379.8
4378.61
4377.79
4376.76
4376.04
4375.1
4374.52
4373.74
4373.32
4372.65
4372.3
4371.72
4371.41
4370.84
4370.51
4369.99
4369.73
4369.29
4369.09
4368.72
4368.6
4368.34
4368.35
4368.26
4368.42
4368.4
4368.79
4368.79
4369.33
4369.33
4370.25
4371.17
4412.58
4523.62
50298
8261.59
7568.62
6999.71
6544.51
6185.41
5903.1
5678.91
5499.24
5352.72
5232.27
5131.4
5046.71
4974.19
4912.31
4858.31
4811.69
4770.33
4734.32
4701.91
4673.52
4647.62
4624.87
4603.83
4585.31
4567.98
4552.75
4538.3
4525.63
4513.45
4502.82
4492.47
4483.48
4474.61
4466.96
4459.3
4452.77
4446.14
4440.52
4434.73
4429.86
4424.83
4420.61
4416.16
4412.52
4408.61
4405.43
4401.98
4399.16
4396.15
4393.7
4391.06
4388.96
4386.69
4384.75
4382.75
4381.07
4379.3
4377.82
4376.24
4374.99
4373.68
4372.63
4371.43
4370.6
4369.56
4368.83
4367.88
4367.29
4366.51
4366.07
4365.4
4365.04
4364.45
4364.14
4363.56
4363.23
4362.71
4362.44
4361.99
4361.78
4361.41
4361.28
4361.02
4361.01
4360.91
4361.06
4361.03
4361.4
4361.4
4361.92
4361.92
4362.83
4363.79
4406.61
4517.89
47458.5
8261.59
7568.74
6999.74
6544.16
6184.51
5901.58
5676.79
5496.56
5349.53
5228.64
5127.39
5042.36
4969.54
4907.39
4853.16
4806.33
4764.79
4728.61
4696.05
4667.53
4641.5
4618.64
4597.5
4578.89
4561.47
4546.16
4531.64
4518.9
4506.66
4495.98
4485.57
4476.54
4467.62
4459.93
4452.23
4445.65
4438.99
4433.33
4427.51
4422.62
4417.56
4413.31
4408.83
4405.17
4401.24
4398.04
4394.56
4391.73
4388.7
4386.23
4383.58
4381.45
4379.17
4377.22
4375.2
4373.51
4371.73
4370.24
4368.64
4367.38
4366.06
4365
4363.78
4362.94
4361.89
4361.16
4360.2
4359.6
4358.8
4358.37
4357.68
4357.32
4356.72
4356.4
4355.82
4355.48
4354.95
4354.68
4354.22
4354.01
4353.63
4353.5
4353.22
4353.21
4353.08
4353.22
4353.19
4353.54
4353.54
4354.03
4354.03
4354.93
4355.93
4400.22
4511.8
44719.3
8261.6
7568.86
6999.77
6543.8
6183.56
5899.98
5674.55
5493.73
5346.18
5224.82
5123.16
5037.77
4964.62
4902.2
4847.72
4800.66
4758.92
4722.57
4689.85
4661.18
4635.02
4612.04
4590.79
4572.09
4554.57
4539.18
4524.59
4511.77
4499.47
4488.72
4478.26
4469.17
4460.2
4452.47
4444.72
4438.11
4431.4
4425.72
4419.86
4414.94
4409.84
4405.57
4401.07
4397.38
4393.42
4390.2
4386.7
4383.85
4380.8
4378.31
4375.63
4373.49
4371.19
4369.23
4367.19
4365.49
4363.7
4362.19
4360.58
4359.31
4357.97
4356.9
4355.67
4354.82
4353.76
4353.02
4352.04
4351.45
4350.63
4350.19
4349.49
4349.12
4348.52
4348.2
4347.61
4347.26
4346.73
4346.44
4345.98
4345.76
4345.37
4345.24
4344.95
4344.92
4344.78
4344.91
4344.86
4345.2
4345.19
4345.67
4345.67
4346.56
4347.6
4393.39
4505.33
42083.4
8261.6
7569
6999.8
6543.42
6182.57
5898.31
5672.2
5490.76
5342.65
5220.79
5118.69
5032.92
4959.44
4896.72
4841.97
4794.68
4752.73
4716.19
4683.29
4654.48
4628.18
4605.07
4583.7
4564.89
4547.28
4531.8
4517.12
4504.24
4491.86
4481.05
4470.52
4461.38
4452.36
4444.58
4436.79
4430.13
4423.38
4417.66
4411.77
4406.81
4401.68
4397.38
4392.85
4389.13
4385.15
4381.9
4378.38
4375.51
4372.44
4369.93
4367.23
4365.07
4362.75
4360.77
4358.72
4357.01
4355.19
4353.68
4352.05
4350.77
4349.41
4348.34
4347.09
4346.23
4345.16
4344.4
4343.42
4342.81
4341.99
4341.53
4340.83
4340.45
4339.84
4339.51
4338.91
4338.57
4338.02
4337.73
4337.26
4337.03
4336.64
4336.49
4336.2
4336.16
4336
4336.11
4336.06
4336.37
4336.37
4336.81
4336.81
4337.69
4338.78
4386.1
4498.45
39553.5
8261.61
7569.13
6999.84
6543.04
6181.55
5896.56
5669.74
5487.65
5338.94
5216.57
5114
5027.82
4953.98
4890.95
4835.92
4788.38
4746.21
4709.47
4676.39
4647.41
4620.96
4597.72
4576.23
4557.31
4539.59
4524.02
4509.25
4496.29
4483.83
4472.96
4462.37
4453.17
4444.09
4436.26
4428.41
4421.71
4414.92
4409.16
4403.22
4398.23
4393.07
4388.74
4384.17
4380.43
4376.42
4373.15
4369.6
4366.71
4363.61
4361.08
4358.36
4356.19
4353.84
4351.85
4349.78
4348.05
4346.22
4344.69
4343.05
4341.75
4340.38
4339.29
4338.03
4337.16
4336.07
4335.31
4334.31
4333.7
4332.86
4332.4
4331.68
4331.29
4330.68
4330.34
4329.74
4329.38
4328.83
4328.53
4328.05
4327.82
4327.41
4327.26
4326.96
4326.9
4326.73
4326.82
4326.76
4327.05
4327.04
4327.47
4327.47
4328.34
4329.47
4378.32
4491.12
37132.2
8261.61
7569.28
6999.88
6542.64
6180.48
5894.74
5667.18
5484.39
5335.06
5212.14
5109.08
5022.48
4948.26
4884.89
4829.56
4781.76
4739.35
4702.4
4669.13
4639.98
4613.37
4589.99
4568.37
4549.33
4531.5
4515.83
4500.97
4487.92
4475.39
4464.44
4453.78
4444.52
4435.38
4427.49
4419.59
4412.85
4406.01
4400.2
4394.23
4389.2
4384
4379.64
4375.04
4371.27
4367.23
4363.92
4360.35
4357.44
4354.31
4351.76
4349.02
4346.82
4344.46
4342.45
4340.36
4338.62
4336.76
4335.23
4333.56
4332.25
4330.86
4329.76
4328.49
4327.6
4326.5
4325.73
4324.72
4324.09
4323.24
4322.77
4322.04
4321.65
4321.02
4320.68
4320.07
4319.71
4319.14
4318.84
4318.35
4318.11
4317.69
4317.53
4317.22
4317.15
4316.96
4317.04
4316.96
4317.23
4317.22
4317.62
4317.62
4318.48
4319.66
4370.02
4483.31
34821.3
8261.61
7569.43
6999.93
6542.23
6179.38
5892.85
5664.51
5480.99
5331.01
5207.5
5103.94
5016.88
4942.26
4878.54
4822.9
4774.82
4732.16
4694.98
4661.51
4632.18
4605.41
4581.88
4560.11
4540.95
4523.01
4507.24
4492.27
4479.14
4466.51
4455.49
4444.76
4435.43
4426.23
4418.28
4410.33
4403.54
4396.64
4390.8
4384.78
4379.71
4374.47
4370.07
4365.44
4361.63
4357.56
4354.23
4350.63
4347.69
4344.54
4341.97
4339.2
4336.98
4334.59
4332.57
4330.45
4328.7
4326.82
4325.27
4323.59
4322.27
4320.86
4319.75
4318.45
4317.56
4316.44
4315.66
4314.63
4313.99
4313.13
4312.65
4311.91
4311.5
4310.87
4310.52
4309.9
4309.53
4308.96
4308.65
4308.15
4307.9
4307.47
4307.3
4306.98
4306.9
4306.69
4306.75
4306.66
4306.9
4306.9
4307.27
4307.26
4308.11
4309.34
4361.17
4474.99
32622.7
8261.61
7569.59
6999.99
6541.82
6178.24
5890.89
5661.73
5477.46
5326.78
5202.67
5098.57
5011.04
4936
4871.9
4815.93
4767.56
4724.63
4687.22
4653.53
4624.01
4597.06
4573.37
4551.46
4532.18
4514.11
4498.22
4483.16
4469.93
4457.21
4446.11
4435.3
4425.9
4416.63
4408.63
4400.61
4393.77
4386.82
4380.93
4374.86
4369.75
4364.47
4360.04
4355.36
4351.53
4347.42
4344.06
4340.43
4337.47
4334.29
4331.69
4328.9
4326.65
4324.24
4322.2
4320.06
4318.29
4316.39
4314.83
4313.13
4311.79
4310.35
4309.23
4307.92
4307.01
4305.87
4305.08
4304.05
4303.4
4302.52
4302.02
4301.27
4300.86
4300.21
4299.85
4299.23
4298.85
4298.27
4297.95
4297.44
4297.18
4296.74
4296.57
4296.23
4296.14
4295.92
4295.95
4295.85
4296.07
4296.06
4296.4
4296.39
4297.23
4298.52
4351.74
4466.1
30538
8261.61
7569.75
7000.05
6541.39
6177.06
5888.86
5658.85
5473.78
5322.39
5197.64
5092.97
5004.94
4929.46
4864.98
4808.65
4759.98
4716.76
4679.11
4645.19
4615.48
4588.34
4564.48
4542.42
4522.99
4504.79
4488.79
4473.61
4460.29
4447.48
4436.29
4425.4
4415.93
4406.58
4398.52
4390.44
4383.54
4376.54
4370.59
4364.48
4359.33
4354
4349.53
4344.81
4340.94
4336.8
4333.41
4329.75
4326.76
4323.55
4320.92
4318.1
4315.84
4313.4
4311.34
4309.17
4307.38
4305.47
4303.88
4302.16
4300.81
4299.35
4298.22
4296.89
4295.96
4294.81
4294.01
4292.96
4292.29
4291.4
4290.89
4290.13
4289.7
4289.05
4288.68
4288.05
4287.66
4287.07
4286.74
4286.22
4285.95
4285.5
4285.32
4284.97
4284.87
4284.63
4284.64
4284.52
4284.72
4284.71
4285.02
4285
4285.83
4287.17
4341.67
4456.62
28568.4
8261.61
7569.91
7000.11
6540.96
6175.86
5886.77
5655.87
5469.97
5317.83
5192.41
5087.14
4998.59
4922.65
4857.76
4801.06
4752.07
4708.56
4670.65
4636.49
4606.56
4579.23
4555.2
4532.97
4513.4
4495.06
4478.94
4463.65
4450.22
4437.31
4426.03
4415.05
4405.5
4396.08
4387.95
4379.81
4372.85
4365.79
4359.79
4353.62
4348.43
4343.05
4338.54
4333.79
4329.88
4325.7
4322.28
4318.58
4315.56
4312.32
4309.67
4306.82
4304.52
4302.06
4299.98
4297.79
4295.98
4294.04
4292.44
4290.7
4289.32
4287.85
4286.7
4285.35
4284.41
4283.24
4282.42
4281.35
4280.68
4279.77
4279.25
4278.47
4278.04
4277.37
4276.99
4276.35
4275.96
4275.35
4275.02
4274.48
4274.2
4273.74
4273.55
4273.19
4273.07
4272.82
4272.81
4272.67
4272.85
4272.83
4273.12
4273.09
4273.9
4275.3
4330.96
4446.51
26715.2
8261.61
7570.08
7000.18
6540.52
6174.62
5884.62
5652.79
5466.03
5313.1
5186.98
5081.09
4992
4915.56
4850.25
4793.17
4743.83
4700.02
4661.83
4627.43
4597.27
4569.73
4545.52
4523.12
4503.4
4484.92
4468.67
4453.25
4439.71
4426.7
4415.33
4404.25
4394.63
4385.13
4376.92
4368.71
4361.69
4354.56
4348.52
4342.29
4337.05
4331.63
4327.07
4322.27
4318.33
4314.11
4310.65
4306.92
4303.86
4300.59
4297.91
4295.03
4292.71
4290.22
4288.11
4285.9
4284.07
4282.1
4280.49
4278.72
4277.33
4275.83
4274.67
4273.29
4272.34
4271.15
4270.32
4269.24
4268.55
4267.62
4267.09
4266.29
4265.85
4265.17
4264.78
4264.13
4263.73
4263.11
4262.77
4262.22
4261.93
4261.46
4261.25
4260.88
4260.75
4260.49
4260.46
4260.3
4260.45
4260.42
4260.68
4260.64
4261.45
4262.89
4319.59
4435.71
24979.4
8261.6
7570.26
7000.26
6540.08
6173.36
5882.4
5649.62
5461.96
5308.21
5181.36
5074.82
4985.16
4908.21
4842.45
4784.97
4735.27
4691.14
4652.66
4618
4587.61
4559.85
4535.45
4512.87
4492.99
4474.36
4457.97
4442.42
4428.77
4415.64
4404.18
4393
4383.29
4373.71
4365.43
4357.15
4350.06
4342.87
4336.77
4330.48
4325.19
4319.71
4315.11
4310.27
4306.28
4302.02
4298.53
4294.76
4291.67
4288.36
4285.66
4282.74
4280.39
4277.87
4275.74
4273.5
4271.65
4269.66
4268.02
4266.23
4264.83
4263.3
4262.12
4260.72
4259.75
4258.54
4257.7
4256.6
4255.9
4254.95
4254.4
4253.59
4253.14
4252.44
4252.05
4251.38
4250.98
4250.35
4249.99
4249.43
4249.13
4248.65
4248.43
4248.04
4247.9
4247.62
4247.57
4247.39
4247.52
4247.49
4247.72
4247.66
4248.46
4249.96
4307.58
4424.2
23361.9
8261.6
7570.44
7000.35
6539.64
6172.07
5880.13
5646.35
5457.76
5303.15
5175.55
5068.33
4978.07
4900.59
4834.36
4776.46
4726.39
4681.92
4643.14
4608.2
4577.57
4549.59
4524.98
4502.22
4482.16
4463.37
4446.84
4431.16
4417.39
4404.14
4392.57
4381.3
4371.5
4361.83
4353.48
4345.11
4337.95
4330.7
4324.53
4318.19
4312.85
4307.31
4302.67
4297.77
4293.74
4289.44
4285.91
4282.1
4278.98
4275.63
4272.89
4269.94
4267.56
4265.01
4262.86
4260.59
4258.71
4256.69
4255.04
4253.23
4251.8
4250.25
4249.05
4247.63
4246.64
4245.41
4244.56
4243.44
4242.72
4241.76
4241.19
4240.37
4239.9
4239.19
4238.79
4238.11
4237.69
4237.05
4236.68
4236.11
4235.8
4235.3
4235.07
4234.67
4234.52
4234.22
4234.15
4233.94
4234.05
4234.01
4234.21
4234.14
4234.92
4236.47
4294.92
4411.94
21858.7
8261.59
7570.62
7000.44
6539.19
6170.75
5877.8
5642.99
5453.43
5297.94
5169.55
5061.63
4970.74
4892.71
4825.98
4767.64
4717.18
4672.36
4633.27
4598.04
4567.15
4538.93
4514.12
4491.15
4470.92
4451.96
4435.29
4419.46
4405.56
4392.2
4380.52
4369.14
4359.25
4349.48
4341.05
4332.6
4325.38
4318.05
4311.82
4305.41
4300.01
4294.42
4289.73
4284.78
4280.71
4276.35
4272.78
4268.93
4265.78
4262.39
4259.62
4256.63
4254.23
4251.64
4249.47
4247.16
4245.26
4243.21
4241.54
4239.7
4238.25
4236.67
4235.46
4234.02
4233.01
4231.76
4230.89
4229.75
4229.01
4228.03
4227.45
4226.61
4226.12
4225.4
4224.99
4224.3
4223.87
4223.22
4222.84
4222.25
4221.93
4221.41
4221.17
4220.75
4220.59
4220.28
4220.19
4219.96
4220.04
4219.99
4220.17
4220.08
4220.85
4222.44
4281.6
4398.88
20465.1
8261.58
7570.81
7000.54
6538.75
6169.42
5875.42
5639.55
5448.99
5292.58
5163.36
5054.7
4963.17
4884.56
4817.32
4758.52
4707.66
4662.46
4623.04
4587.51
4556.36
4527.89
4502.86
4479.68
4459.27
4440.13
4423.3
4407.33
4393.3
4379.8
4368.01
4356.52
4346.53
4336.67
4328.15
4319.62
4312.32
4304.91
4298.62
4292.15
4286.69
4281.03
4276.29
4271.29
4267.17
4262.77
4259.15
4255.26
4252.07
4248.64
4245.84
4242.81
4240.37
4237.75
4235.55
4233.21
4231.29
4229.21
4227.52
4225.65
4224.18
4222.57
4221.34
4219.87
4218.85
4217.57
4216.68
4215.52
4214.77
4213.77
4213.17
4212.31
4211.81
4211.08
4210.65
4209.95
4209.51
4208.84
4208.45
4207.85
4207.51
4206.98
4206.73
4206.3
4206.12
4205.79
4205.69
4205.43
4205.49
4205.42
4205.57
4205.46
4206.22
4207.86
4267.64
4385
19176.3
8261.57
7571
7000.65
6538.3
6168.06
5872.99
5636.03
5444.42
5287.06
5156.99
5047.57
4955.36
4876.15
4808.38
4749.09
4697.81
4652.22
4612.47
4576.62
4545.19
4516.46
4491.19
4467.8
4447.2
4427.88
4410.89
4394.76
4380.59
4366.96
4355.05
4343.44
4333.35
4323.39
4314.78
4306.16
4298.78
4291.29
4284.93
4278.39
4272.87
4267.15
4262.35
4257.29
4253.13
4248.67
4245.02
4241.08
4237.84
4234.37
4231.54
4228.47
4226
4223.34
4221.11
4218.74
4216.79
4214.68
4212.97
4211.07
4209.58
4207.94
4206.69
4205.19
4204.15
4202.84
4201.94
4200.76
4200
4198.97
4198.36
4197.47
4196.96
4196.21
4195.77
4195.06
4194.61
4193.92
4193.52
4192.9
4192.55
4192.01
4191.74
4191.29
4191.1
4190.75
4190.64
4190.36
4190.39
4190.31
4190.43
4190.29
4191.04
4192.72
4253.02
4370.25
17987
8261.56
7571.2
7000.77
6537.86
6166.69
5870.52
5632.42
5439.75
5281.4
5150.44
5040.23
4947.32
4867.48
4799.15
4739.37
4687.64
4641.66
4601.54
4565.37
4533.64
4504.64
4479.14
4455.52
4434.71
4415.21
4398.04
4381.75
4367.43
4353.67
4341.63
4329.9
4319.71
4309.63
4300.93
4292.22
4284.76
4277.19
4270.75
4264.14
4258.55
4252.77
4247.92
4242.8
4238.58
4234.07
4230.37
4226.38
4223.11
4219.59
4216.72
4213.61
4211.1
4208.41
4206.15
4203.74
4201.77
4199.62
4197.89
4195.95
4194.44
4192.77
4191.5
4189.98
4188.91
4187.58
4186.66
4185.46
4184.68
4183.63
4183
4182.09
4181.57
4180.8
4180.35
4179.62
4179.16
4178.46
4178.04
4177.4
4177.04
4176.48
4176.2
4175.73
4175.53
4175.16
4175.03
4174.73
4174.74
4174.64
4174.73
4174.57
4175.31
4177.02
4237.74
4354.61
16891.7
8261.55
7571.4
7000.9
6537.42
6165.3
5868.01
5628.75
5434.96
5275.59
5143.72
5032.69
4939.05
4858.55
4789.65
4729.35
4677.16
4630.75
4590.27
4553.75
4521.72
4492.44
4466.68
4442.83
4421.81
4402.11
4384.76
4368.3
4353.84
4339.92
4327.76
4315.9
4305.59
4295.41
4286.61
4277.8
4270.25
4262.6
4256.09
4249.39
4243.74
4237.89
4232.98
4227.8
4223.52
4218.96
4215.21
4211.17
4207.86
4204.29
4201.38
4198.23
4195.68
4192.95
4190.66
4188.21
4186.21
4184.03
4182.27
4180.31
4178.77
4177.06
4175.77
4174.22
4173.14
4171.78
4170.84
4169.61
4168.81
4167.74
4167.09
4166.17
4165.63
4164.84
4164.38
4163.63
4163.16
4162.44
4162.01
4161.36
4160.98
4160.4
4160.11
4159.62
4159.4
4159.01
4158.87
4158.56
4158.53
4158.41
4158.48
4158.29
4159.01
4160.75
4221.8
4338.05
15884.7
8261.53
7571.6
7001.03
6536.98
6163.9
5865.46
5625
5430.08
5269.65
5136.83
5024.94
4930.55
4849.38
4779.88
4719.03
4666.36
4619.52
4578.65
4541.78
4509.43
4479.86
4453.84
4429.74
4408.5
4388.58
4371.06
4354.41
4339.79
4325.72
4313.43
4301.44
4291.01
4280.71
4271.81
4262.9
4255.26
4247.51
4240.93
4234.15
4228.43
4222.51
4217.53
4212.29
4207.96
4203.34
4199.54
4195.45
4192.09
4188.47
4185.52
4182.33
4179.74
4176.96
4174.64
4172.15
4170.13
4167.91
4166.12
4164.12
4162.56
4160.82
4159.51
4157.93
4156.82
4155.43
4154.48
4153.22
4152.41
4151.31
4150.64
4149.69
4149.14
4148.33
4147.85
4147.09
4146.61
4145.87
4145.43
4144.75
4144.37
4143.77
4143.46
4142.95
4142.71
4142.31
4142.15
4141.82
4141.77
4141.62
4141.66
4141.44
4142.16
4143.91
4205.2
4320.55
14960.3
8261.52
7571.8
7001.17
6536.55
6162.49
5862.87
5621.19
5425.09
5263.58
5129.78
5017.01
4921.83
4839.96
4769.83
4708.43
4655.26
4607.97
4566.69
4529.45
4496.77
4466.89
4440.59
4416.24
4394.78
4374.64
4356.92
4340.09
4325.31
4311.08
4298.64
4286.51
4275.96
4265.54
4256.54
4247.52
4239.79
4231.95
4225.28
4218.42
4212.62
4206.62
4201.58
4196.27
4191.88
4187.2