/*--------------------------------*- C++ -*----------------------------------*\
| =========                 |                                                 |
| \\      /  F ield         | OpenFOAM: The Open Source CFD Toolbox           |
|  \\    /   O peration     | Version:  v2012                                 |
|   \\  /    A nd           | Website:  www.openfoam.com                      |
|    \\/     M anipulation  |                                                 |
\*---------------------------------------------------------------------------*/
FoamFile
{
    version     2.0;
    format      ascii;
    class       volVectorField;
    location    "40.5";
    object      wallShearStress;
}
// * * * * * * * * * * * * * * * * * * * * * * * * * * * * * * * * * * * * * //

dimensions      [0 2 -2 0 0 0 0];


internalField   uniform (0 0 0);

boundaryField
{
    inlet
    {
        type            calculated;
        value           uniform (0 0 0);
    }
    outlet
    {
        type            calculated;
        value           uniform (0 0 0);
    }
    topWall
    {
        type            calculated;
        value           nonuniform List<vector> 
545
(
(3.67406e-08 -2.58622e-08 0)
(3.67293e-08 -7.23469e-08 0)
(3.67091e-08 -1.20685e-07 0)
(3.66804e-08 -1.67625e-07 0)
(3.66444e-08 -2.12567e-07 0)
(3.66019e-08 -2.56088e-07 0)
(3.65534e-08 -2.98558e-07 0)
(3.64992e-08 -3.39958e-07 0)
(3.64399e-08 -3.80197e-07 0)
(3.63759e-08 -4.19275e-07 0)
(3.63077e-08 -4.57242e-07 0)
(3.62356e-08 -4.94142e-07 0)
(3.61601e-08 -5.30001e-07 0)
(3.60816e-08 -5.6484e-07 0)
(3.60003e-08 -5.98683e-07 0)
(3.59165e-08 -6.31558e-07 0)
(3.58306e-08 -6.6349e-07 0)
(3.57429e-08 -6.94505e-07 0)
(3.56536e-08 -7.24627e-07 0)
(3.55629e-08 -7.53881e-07 0)
(3.5471e-08 -7.82291e-07 0)
(3.53783e-08 -8.09879e-07 0)
(3.52848e-08 -8.36669e-07 0)
(3.51908e-08 -8.62683e-07 0)
(3.50964e-08 -8.87944e-07 0)
(3.50018e-08 -9.12472e-07 0)
(3.49071e-08 -9.36289e-07 0)
(3.48126e-08 -9.59415e-07 0)
(3.47182e-08 -9.8187e-07 0)
(3.46241e-08 -1.00367e-06 0)
(3.45304e-08 -1.02484e-06 0)
(3.44373e-08 -1.0454e-06 0)
(3.43448e-08 -1.06536e-06 0)
(3.42529e-08 -1.08475e-06 0)
(3.41619e-08 -1.10357e-06 0)
(3.40716e-08 -1.12184e-06 0)
(3.39823e-08 -1.13959e-06 0)
(3.38939e-08 -1.15683e-06 0)
(3.38066e-08 -1.17356e-06 0)
(3.37202e-08 -1.18982e-06 0)
(3.3635e-08 -1.2056e-06 0)
(3.35509e-08 -1.22093e-06 0)
(3.3468e-08 -1.23582e-06 0)
(3.33862e-08 -1.25028e-06 0)
(3.33057e-08 -1.26433e-06 0)
(3.32264e-08 -1.27797e-06 0)
(3.31483e-08 -1.29122e-06 0)
(3.30715e-08 -1.30409e-06 0)
(3.29959e-08 -1.31659e-06 0)
(3.29217e-08 -1.32874e-06 0)
(3.28487e-08 -1.34054e-06 0)
(3.2777e-08 -1.352e-06 0)
(3.27066e-08 -1.36314e-06 0)
(3.26374e-08 -1.37396e-06 0)
(3.25696e-08 -1.38447e-06 0)
(3.2503e-08 -1.39468e-06 0)
(3.24377e-08 -1.40461e-06 0)
(3.23737e-08 -1.41425e-06 0)
(3.23109e-08 -1.42362e-06 0)
(3.22494e-08 -1.43273e-06 0)
(3.21891e-08 -1.44158e-06 0)
(3.21301e-08 -1.45018e-06 0)
(3.20722e-08 -1.45853e-06 0)
(3.20156e-08 -1.46666e-06 0)
(3.19601e-08 -1.47455e-06 0)
(3.19058e-08 -1.48223e-06 0)
(3.18527e-08 -1.48968e-06 0)
(3.18007e-08 -1.49693e-06 0)
(3.17498e-08 -1.50398e-06 0)
(3.17001e-08 -1.51083e-06 0)
(3.16514e-08 -1.51749e-06 0)
(3.16041e-08 -1.52396e-06 0)
(3.15581e-08 -1.53018e-06 0)
(3.15128e-08 -1.53622e-06 0)
(3.1468e-08 -1.54219e-06 0)
(3.14233e-08 -1.54814e-06 0)
(3.13786e-08 -1.55405e-06 0)
(3.1334e-08 -1.55994e-06 0)
(3.12895e-08 -1.56578e-06 0)
(3.1245e-08 -1.57159e-06 0)
(3.12005e-08 -1.57737e-06 0)
(3.1156e-08 -1.58311e-06 0)
(3.11116e-08 -1.58882e-06 0)
(3.10673e-08 -1.59449e-06 0)
(3.1023e-08 -1.60013e-06 0)
(3.09788e-08 -1.60573e-06 0)
(3.09346e-08 -1.6113e-06 0)
(3.08904e-08 -1.61684e-06 0)
(3.08463e-08 -1.62234e-06 0)
(3.08023e-08 -1.62782e-06 0)
(3.07583e-08 -1.63326e-06 0)
(3.07144e-08 -1.63866e-06 0)
(3.06705e-08 -1.64404e-06 0)
(3.06268e-08 -1.64937e-06 0)
(3.05827e-08 -1.65469e-06 0)
(3.05406e-08 -1.65992e-06 0)
(3.05016e-08 -1.66471e-06 0)
(3.04642e-08 -1.66905e-06 0)
(3.0428e-08 -1.67328e-06 0)
(3.0392e-08 -1.67753e-06 0)
(3.03559e-08 -1.68181e-06 0)
(3.03196e-08 -1.68611e-06 0)
(3.02832e-08 -1.6904e-06 0)
(3.02466e-08 -1.6947e-06 0)
(3.02098e-08 -1.699e-06 0)
(3.01728e-08 -1.7033e-06 0)
(3.01357e-08 -1.70761e-06 0)
(3.00984e-08 -1.71193e-06 0)
(3.00609e-08 -1.71625e-06 0)
(3.00232e-08 -1.72058e-06 0)
(2.99853e-08 -1.72491e-06 0)
(2.99473e-08 -1.72924e-06 0)
(2.99091e-08 -1.73358e-06 0)
(2.98707e-08 -1.73792e-06 0)
(2.98321e-08 -1.74227e-06 0)
(2.97934e-08 -1.74663e-06 0)
(2.97544e-08 -1.75098e-06 0)
(2.97153e-08 -1.75535e-06 0)
(2.9676e-08 -1.75971e-06 0)
(2.96365e-08 -1.76409e-06 0)
(2.95968e-08 -1.76846e-06 0)
(2.9557e-08 -1.77284e-06 0)
(2.95169e-08 -1.77723e-06 0)
(2.94767e-08 -1.78162e-06 0)
(2.94363e-08 -1.78601e-06 0)
(2.93957e-08 -1.79041e-06 0)
(2.93549e-08 -1.79481e-06 0)
(2.93139e-08 -1.79922e-06 0)
(2.92727e-08 -1.80363e-06 0)
(2.92314e-08 -1.80804e-06 0)
(2.91899e-08 -1.81246e-06 0)
(2.91481e-08 -1.81688e-06 0)
(2.91062e-08 -1.82131e-06 0)
(2.90641e-08 -1.82574e-06 0)
(2.90218e-08 -1.83018e-06 0)
(2.89793e-08 -1.83462e-06 0)
(2.89366e-08 -1.83906e-06 0)
(2.88937e-08 -1.84351e-06 0)
(2.88506e-08 -1.84796e-06 0)
(2.88073e-08 -1.85241e-06 0)
(2.87639e-08 -1.85687e-06 0)
(2.87202e-08 -1.86133e-06 0)
(2.86764e-08 -1.8658e-06 0)
(2.86323e-08 -1.87027e-06 0)
(2.85881e-08 -1.87474e-06 0)
(2.85436e-08 -1.87922e-06 0)
(2.8499e-08 -1.8837e-06 0)
(2.84541e-08 -1.88818e-06 0)
(2.84091e-08 -1.89267e-06 0)
(2.83639e-08 -1.89716e-06 0)
(2.83184e-08 -1.90166e-06 0)
(2.82728e-08 -1.90615e-06 0)
(2.8227e-08 -1.91066e-06 0)
(2.81809e-08 -1.91516e-06 0)
(2.81347e-08 -1.91967e-06 0)
(2.80883e-08 -1.92418e-06 0)
(2.80416e-08 -1.92869e-06 0)
(2.79948e-08 -1.93321e-06 0)
(2.79477e-08 -1.93773e-06 0)
(2.79005e-08 -1.94225e-06 0)
(2.7853e-08 -1.94678e-06 0)
(2.78054e-08 -1.95131e-06 0)
(2.77575e-08 -1.95584e-06 0)
(2.77095e-08 -1.96037e-06 0)
(2.76612e-08 -1.96491e-06 0)
(2.76127e-08 -1.96945e-06 0)
(2.75641e-08 -1.97399e-06 0)
(2.75152e-08 -1.97854e-06 0)
(2.74661e-08 -1.98309e-06 0)
(2.74168e-08 -1.98764e-06 0)
(2.73673e-08 -1.99219e-06 0)
(2.73176e-08 -1.99675e-06 0)
(2.72677e-08 -2.00131e-06 0)
(2.72176e-08 -2.00587e-06 0)
(2.71673e-08 -2.01043e-06 0)
(2.71167e-08 -2.01499e-06 0)
(2.7066e-08 -2.01956e-06 0)
(2.7015e-08 -2.02413e-06 0)
(2.69639e-08 -2.0287e-06 0)
(2.69125e-08 -2.03328e-06 0)
(2.68609e-08 -2.03785e-06 0)
(2.68091e-08 -2.04243e-06 0)
(2.67571e-08 -2.04701e-06 0)
(2.67049e-08 -2.05159e-06 0)
(2.66525e-08 -2.05618e-06 0)
(2.65999e-08 -2.06076e-06 0)
(2.6547e-08 -2.06535e-06 0)
(2.6494e-08 -2.06994e-06 0)
(2.64407e-08 -2.07453e-06 0)
(2.63872e-08 -2.07912e-06 0)
(2.63336e-08 -2.08371e-06 0)
(2.62797e-08 -2.08831e-06 0)
(2.62255e-08 -2.0929e-06 0)
(2.61712e-08 -2.0975e-06 0)
(2.61167e-08 -2.1021e-06 0)
(2.60619e-08 -2.1067e-06 0)
(2.6007e-08 -2.1113e-06 0)
(2.59518e-08 -2.1159e-06 0)
(2.58964e-08 -2.1205e-06 0)
(2.58408e-08 -2.12511e-06 0)
(2.5785e-08 -2.12971e-06 0)
(2.5729e-08 -2.13432e-06 0)
(2.56728e-08 -2.13893e-06 0)
(2.56163e-08 -2.14353e-06 0)
(2.55597e-08 -2.14814e-06 0)
(2.55028e-08 -2.15275e-06 0)
(2.54457e-08 -2.15736e-06 0)
(2.53884e-08 -2.16197e-06 0)
(2.53309e-08 -2.16658e-06 0)
(2.52732e-08 -2.17119e-06 0)
(2.52152e-08 -2.1758e-06 0)
(2.51571e-08 -2.18041e-06 0)
(2.50987e-08 -2.18502e-06 0)
(2.50401e-08 -2.18963e-06 0)
(2.49813e-08 -2.19425e-06 0)
(2.49223e-08 -2.19886e-06 0)
(2.48631e-08 -2.20347e-06 0)
(2.48037e-08 -2.20808e-06 0)
(2.4744e-08 -2.21269e-06 0)
(2.46842e-08 -2.2173e-06 0)
(2.46241e-08 -2.22191e-06 0)
(2.45638e-08 -2.22652e-06 0)
(2.45033e-08 -2.23113e-06 0)
(2.44426e-08 -2.23574e-06 0)
(2.43817e-08 -2.24035e-06 0)
(2.43206e-08 -2.24496e-06 0)
(2.42592e-08 -2.24956e-06 0)
(2.41977e-08 -2.25417e-06 0)
(2.41359e-08 -2.25877e-06 0)
(2.40739e-08 -2.26338e-06 0)
(2.40118e-08 -2.26798e-06 0)
(2.39494e-08 -2.27258e-06 0)
(2.38868e-08 -2.27718e-06 0)
(2.38239e-08 -2.28178e-06 0)
(2.37609e-08 -2.28638e-06 0)
(2.36977e-08 -2.29098e-06 0)
(2.36342e-08 -2.29558e-06 0)
(2.35706e-08 -2.30017e-06 0)
(2.35067e-08 -2.30476e-06 0)
(2.34427e-08 -2.30935e-06 0)
(2.33784e-08 -2.31394e-06 0)
(2.33139e-08 -2.31853e-06 0)
(2.32492e-08 -2.32311e-06 0)
(2.31843e-08 -2.3277e-06 0)
(2.31192e-08 -2.33228e-06 0)
(2.30539e-08 -2.33686e-06 0)
(2.29884e-08 -2.34143e-06 0)
(2.29227e-08 -2.34601e-06 0)
(2.28568e-08 -2.35058e-06 0)
(2.27907e-08 -2.35515e-06 0)
(2.27243e-08 -2.35972e-06 0)
(2.26578e-08 -2.36428e-06 0)
(2.25911e-08 -2.36884e-06 0)
(2.25242e-08 -2.3734e-06 0)
(2.2457e-08 -2.37796e-06 0)
(2.23897e-08 -2.38251e-06 0)
(2.23222e-08 -2.38706e-06 0)
(2.22544e-08 -2.39161e-06 0)
(2.21865e-08 -2.39615e-06 0)
(2.21184e-08 -2.40069e-06 0)
(2.20501e-08 -2.40523e-06 0)
(2.19816e-08 -2.40977e-06 0)
(2.19128e-08 -2.4143e-06 0)
(2.18439e-08 -2.41882e-06 0)
(2.17748e-08 -2.42335e-06 0)
(2.17055e-08 -2.42787e-06 0)
(2.16361e-08 -2.43238e-06 0)
(2.15661e-08 -2.4369e-06 0)
(2.14977e-08 -2.44138e-06 0)
(2.1432e-08 -2.44565e-06 0)
(2.13675e-08 -2.44971e-06 0)
(2.13037e-08 -2.45373e-06 0)
(2.12396e-08 -2.45779e-06 0)
(2.11748e-08 -2.46191e-06 0)
(2.11093e-08 -2.46606e-06 0)
(2.10431e-08 -2.47023e-06 0)
(2.09762e-08 -2.47444e-06 0)
(2.09085e-08 -2.47868e-06 0)
(2.08401e-08 -2.48295e-06 0)
(2.07709e-08 -2.48725e-06 0)
(2.07009e-08 -2.49159e-06 0)
(2.06302e-08 -2.49596e-06 0)
(2.05587e-08 -2.50036e-06 0)
(2.04864e-08 -2.50479e-06 0)
(2.04133e-08 -2.50926e-06 0)
(2.03394e-08 -2.51375e-06 0)
(2.02648e-08 -2.51828e-06 0)
(2.01893e-08 -2.52284e-06 0)
(2.01129e-08 -2.52744e-06 0)
(2.00358e-08 -2.53207e-06 0)
(1.99578e-08 -2.53672e-06 0)
(1.9879e-08 -2.54141e-06 0)
(1.97993e-08 -2.54614e-06 0)
(1.97188e-08 -2.55089e-06 0)
(1.96374e-08 -2.55568e-06 0)
(1.95551e-08 -2.5605e-06 0)
(1.9472e-08 -2.56535e-06 0)
(1.93879e-08 -2.57023e-06 0)
(1.9303e-08 -2.57514e-06 0)
(1.92172e-08 -2.58009e-06 0)
(1.91305e-08 -2.58507e-06 0)
(1.90428e-08 -2.59007e-06 0)
(1.89543e-08 -2.59511e-06 0)
(1.88648e-08 -2.60018e-06 0)
(1.87744e-08 -2.60528e-06 0)
(1.8683e-08 -2.61041e-06 0)
(1.85907e-08 -2.61558e-06 0)
(1.84975e-08 -2.62077e-06 0)
(1.84033e-08 -2.62599e-06 0)
(1.83081e-08 -2.63124e-06 0)
(1.8212e-08 -2.63652e-06 0)
(1.81149e-08 -2.64183e-06 0)
(1.80168e-08 -2.64717e-06 0)
(1.79177e-08 -2.65253e-06 0)
(1.78177e-08 -2.65793e-06 0)
(1.77166e-08 -2.66335e-06 0)
(1.76145e-08 -2.6688e-06 0)
(1.75115e-08 -2.67428e-06 0)
(1.74074e-08 -2.67978e-06 0)
(1.73023e-08 -2.68531e-06 0)
(1.71962e-08 -2.69087e-06 0)
(1.70891e-08 -2.69645e-06 0)
(1.69809e-08 -2.70206e-06 0)
(1.68717e-08 -2.70769e-06 0)
(1.67615e-08 -2.71335e-06 0)
(1.66502e-08 -2.71903e-06 0)
(1.65379e-08 -2.72473e-06 0)
(1.64246e-08 -2.73046e-06 0)
(1.63102e-08 -2.73621e-06 0)
(1.61948e-08 -2.74198e-06 0)
(1.60783e-08 -2.74777e-06 0)
(1.59607e-08 -2.75358e-06 0)
(1.58422e-08 -2.75942e-06 0)
(1.57225e-08 -2.76527e-06 0)
(1.56018e-08 -2.77114e-06 0)
(1.54801e-08 -2.77702e-06 0)
(1.53573e-08 -2.78293e-06 0)
(1.52334e-08 -2.78885e-06 0)
(1.51085e-08 -2.79478e-06 0)
(1.49826e-08 -2.80073e-06 0)
(1.48556e-08 -2.8067e-06 0)
(1.47275e-08 -2.81268e-06 0)
(1.45985e-08 -2.81867e-06 0)
(1.44683e-08 -2.82467e-06 0)
(1.43372e-08 -2.83068e-06 0)
(1.4205e-08 -2.83671e-06 0)
(1.40718e-08 -2.84274e-06 0)
(1.39375e-08 -2.84878e-06 0)
(1.38023e-08 -2.85482e-06 0)
(1.3666e-08 -2.86087e-06 0)
(1.35288e-08 -2.86693e-06 0)
(1.33905e-08 -2.87299e-06 0)
(1.32513e-08 -2.87905e-06 0)
(1.31111e-08 -2.88512e-06 0)
(1.29699e-08 -2.89118e-06 0)
(1.28278e-08 -2.89725e-06 0)
(1.26847e-08 -2.90331e-06 0)
(1.25407e-08 -2.90937e-06 0)
(1.23957e-08 -2.91542e-06 0)
(1.22499e-08 -2.92147e-06 0)
(1.21031e-08 -2.92751e-06 0)
(1.19555e-08 -2.93355e-06 0)
(1.1807e-08 -2.93957e-06 0)
(1.16576e-08 -2.94558e-06 0)
(1.15075e-08 -2.95158e-06 0)
(1.13564e-08 -2.95757e-06 0)
(1.12046e-08 -2.96354e-06 0)
(1.1052e-08 -2.9695e-06 0)
(1.08987e-08 -2.97543e-06 0)
(1.07446e-08 -2.98135e-06 0)
(1.05898e-08 -2.98724e-06 0)
(1.04343e-08 -2.99312e-06 0)
(1.02781e-08 -2.99897e-06 0)
(1.01212e-08 -3.00479e-06 0)
(9.96377e-09 -3.01058e-06 0)
(9.8057e-09 -3.01635e-06 0)
(9.64705e-09 -3.02209e-06 0)
(9.48785e-09 -3.02779e-06 0)
(9.32813e-09 -3.03346e-06 0)
(9.16792e-09 -3.03909e-06 0)
(9.00724e-09 -3.04468e-06 0)
(8.84614e-09 -3.05024e-06 0)
(8.68463e-09 -3.05575e-06 0)
(8.52276e-09 -3.06122e-06 0)
(8.36055e-09 -3.06665e-06 0)
(8.19804e-09 -3.07203e-06 0)
(8.03526e-09 -3.07736e-06 0)
(7.87226e-09 -3.08264e-06 0)
(7.70906e-09 -3.08786e-06 0)
(7.5457e-09 -3.09304e-06 0)
(7.38223e-09 -3.09815e-06 0)
(7.21868e-09 -3.10321e-06 0)
(7.05509e-09 -3.10821e-06 0)
(6.8915e-09 -3.11315e-06 0)
(6.72796e-09 -3.11802e-06 0)
(6.5645e-09 -3.12283e-06 0)
(6.40117e-09 -3.12757e-06 0)
(6.23802e-09 -3.13224e-06 0)
(6.07508e-09 -3.13684e-06 0)
(5.9124e-09 -3.14137e-06 0)
(5.75003e-09 -3.14582e-06 0)
(5.58802e-09 -3.1502e-06 0)
(5.4264e-09 -3.15449e-06 0)
(5.26524e-09 -3.15871e-06 0)
(5.10457e-09 -3.16284e-06 0)
(4.94444e-09 -3.16688e-06 0)
(4.78491e-09 -3.17084e-06 0)
(4.62602e-09 -3.17472e-06 0)
(4.46783e-09 -3.1785e-06 0)
(4.31037e-09 -3.18219e-06 0)
(4.15371e-09 -3.18578e-06 0)
(3.9979e-09 -3.18928e-06 0)
(3.84298e-09 -3.19269e-06 0)
(3.68901e-09 -3.19599e-06 0)
(3.53604e-09 -3.19919e-06 0)
(3.38411e-09 -3.20229e-06 0)
(3.23329e-09 -3.20529e-06 0)
(3.08362e-09 -3.20818e-06 0)
(2.93516e-09 -3.21096e-06 0)
(2.78795e-09 -3.21364e-06 0)
(2.64205e-09 -3.2162e-06 0)
(2.4975e-09 -3.21866e-06 0)
(2.35437e-09 -3.221e-06 0)
(2.21269e-09 -3.22322e-06 0)
(2.07253e-09 -3.22533e-06 0)
(1.93392e-09 -3.22733e-06 0)
(1.79691e-09 -3.2292e-06 0)
(1.66157e-09 -3.23096e-06 0)
(1.52792e-09 -3.23259e-06 0)
(1.39603e-09 -3.23411e-06 0)
(1.26593e-09 -3.2355e-06 0)
(1.13767e-09 -3.23677e-06 0)
(1.01129e-09 -3.23792e-06 0)
(8.86845e-10 -3.23894e-06 0)
(7.64369e-10 -3.23983e-06 0)
(6.43905e-10 -3.2406e-06 0)
(5.25494e-10 -3.24125e-06 0)
(4.09175e-10 -3.24176e-06 0)
(2.94987e-10 -3.24215e-06 0)
(1.82966e-10 -3.24241e-06 0)
(7.31497e-11 -3.24255e-06 0)
(-3.44278e-11 -3.24255e-06 0)
(-1.39733e-10 -3.24243e-06 0)
(-2.42733e-10 -3.24218e-06 0)
(-3.43395e-10 -3.2418e-06 0)
(-4.41703e-10 -3.24129e-06 0)
(-5.37565e-10 -3.24066e-06 0)
(-6.31226e-10 -3.2399e-06 0)
(-7.21516e-10 -3.23901e-06 0)
(-8.13218e-10 -3.23799e-06 0)
(-9.09715e-10 -3.23672e-06 0)
(-1.00698e-09 -3.23516e-06 0)
(-1.10205e-09 -3.23342e-06 0)
(-1.19281e-09 -3.23154e-06 0)
(-1.27902e-09 -3.22952e-06 0)
(-1.36074e-09 -3.22737e-06 0)
(-1.43807e-09 -3.22508e-06 0)
(-1.51111e-09 -3.22268e-06 0)
(-1.57997e-09 -3.22016e-06 0)
(-1.6448e-09 -3.21753e-06 0)
(-1.70572e-09 -3.2148e-06 0)
(-1.76284e-09 -3.21197e-06 0)
(-1.81629e-09 -3.20906e-06 0)
(-1.86617e-09 -3.20606e-06 0)
(-1.91259e-09 -3.20299e-06 0)
(-1.95567e-09 -3.19984e-06 0)
(-1.99551e-09 -3.19663e-06 0)
(-2.0322e-09 -3.19335e-06 0)
(-2.06585e-09 -3.19002e-06 0)
(-2.09654e-09 -3.18664e-06 0)
(-2.12438e-09 -3.1832e-06 0)
(-2.14945e-09 -3.17973e-06 0)
(-2.17183e-09 -3.17622e-06 0)
(-2.19161e-09 -3.17267e-06 0)
(-2.20887e-09 -3.1691e-06 0)
(-2.22369e-09 -3.1655e-06 0)
(-2.23614e-09 -3.16187e-06 0)
(-2.24628e-09 -3.15823e-06 0)
(-2.2542e-09 -3.15458e-06 0)
(-2.25996e-09 -3.15091e-06 0)
(-2.26363e-09 -3.14724e-06 0)
(-2.26526e-09 -3.14356e-06 0)
(-2.26491e-09 -3.13988e-06 0)
(-2.26265e-09 -3.1362e-06 0)
(-2.25853e-09 -3.13253e-06 0)
(-2.2526e-09 -3.12887e-06 0)
(-2.24492e-09 -3.12522e-06 0)
(-2.23554e-09 -3.12158e-06 0)
(-2.2245e-09 -3.11796e-06 0)
(-2.21185e-09 -3.11436e-06 0)
(-2.19764e-09 -3.11078e-06 0)
(-2.18191e-09 -3.10722e-06 0)
(-2.16471e-09 -3.10369e-06 0)
(-2.14606e-09 -3.10019e-06 0)
(-2.12602e-09 -3.09673e-06 0)
(-2.10462e-09 -3.09329e-06 0)
(-2.0819e-09 -3.08989e-06 0)
(-2.05789e-09 -3.08653e-06 0)
(-2.03262e-09 -3.08321e-06 0)
(-2.00614e-09 -3.07993e-06 0)
(-1.97847e-09 -3.0767e-06 0)
(-1.94965e-09 -3.07351e-06 0)
(-1.9197e-09 -3.07037e-06 0)
(-1.88866e-09 -3.06728e-06 0)
(-1.85656e-09 -3.06423e-06 0)
(-1.82342e-09 -3.06125e-06 0)
(-1.78927e-09 -3.05831e-06 0)
(-1.75414e-09 -3.05544e-06 0)
(-1.71806e-09 -3.05262e-06 0)
(-1.68105e-09 -3.04986e-06 0)
(-1.64314e-09 -3.04716e-06 0)
(-1.60436e-09 -3.04452e-06 0)
(-1.56473e-09 -3.04195e-06 0)
(-1.52428e-09 -3.03944e-06 0)
(-1.48303e-09 -3.03699e-06 0)
(-1.441e-09 -3.03462e-06 0)
(-1.39823e-09 -3.03231e-06 0)
(-1.35473e-09 -3.03008e-06 0)
(-1.31054e-09 -3.02791e-06 0)
(-1.26567e-09 -3.02582e-06 0)
(-1.22015e-09 -3.02379e-06 0)
(-1.17401e-09 -3.02185e-06 0)
(-1.12726e-09 -3.01998e-06 0)
(-1.07994e-09 -3.01818e-06 0)
(-1.03206e-09 -3.01646e-06 0)
(-9.83661e-10 -3.01482e-06 0)
(-9.34752e-10 -3.01326e-06 0)
(-8.85364e-10 -3.01178e-06 0)
(-8.35519e-10 -3.01038e-06 0)
(-7.85242e-10 -3.00906e-06 0)
(-7.34556e-10 -3.00782e-06 0)
(-6.83488e-10 -3.00667e-06 0)
(-6.32059e-10 -3.00559e-06 0)
(-5.80298e-10 -3.0046e-06 0)
(-5.28231e-10 -3.00369e-06 0)
(-4.75891e-10 -3.00289e-06 0)
(-4.23307e-10 -3.00209e-06 0)
(-3.70529e-10 -3.00165e-06 0)
(-3.17569e-10 -3.00038e-06 0)
(-2.64569e-10 -3.00219e-06 0)
(-2.11275e-10 -2.99399e-06 0)
(-1.58553e-10 -3.01805e-06 0)
(-1.04016e-10 -2.92748e-06 0)
(-5.41338e-11 -3.16781e-06 0)
(-1.64447e-11 -2.76674e-06 0)
)
;
    }
    bottomWall
    {
        type            calculated;
        value           nonuniform List<vector> 
449
(
(-48.4965 -0.963594 0)
(-19.7411 -0.00515032 0)
(-14.341 -0.00113253 0)
(-12.0393 -0.000542682 0)
(-10.6444 -0.000346927 0)
(-9.6705 -0.000247408 0)
(-8.95112 -0.000180676 0)
(-8.43102 -0.00012024 0)
(-8.12468 -4.38945e-05 0)
(-8.13036 9.68694e-05 0)
(-8.79899 0.00027613 0)
(-10.0459 0.000327909 0)
(-11.0723 0.000238398 0)
(-11.701 0.000140059 0)
(-12.0476 7.64752e-05 0)
(-12.235 3.96107e-05 0)
(-12.3249 1.65363e-05 0)
(-12.351 7.83839e-07 0)
(-12.3302 -9.44379e-06 0)
(-12.2843 -1.55416e-05 0)
(-12.2203 -1.95481e-05 0)
(-12.1456 -2.17505e-05 0)
(-12.0657 -2.27415e-05 0)
(-11.9836 -2.30065e-05 0)
(-11.9014 -2.28432e-05 0)
(-11.8201 -2.24458e-05 0)
(-11.7404 -2.18999e-05 0)
(-11.6627 -2.1244e-05 0)
(-11.5873 -2.05419e-05 0)
(-11.5142 -1.98262e-05 0)
(-11.4437 -1.91159e-05 0)
(-11.3755 -1.84222e-05 0)
(-11.3096 -1.77523e-05 0)
(-11.246 -1.71078e-05 0)
(-11.1845 -1.65009e-05 0)
(-11.1251 -1.5932e-05 0)
(-11.0675 -1.53835e-05 0)
(-11.0118 -1.48538e-05 0)
(-10.9579 -1.43501e-05 0)
(-10.9057 -1.38721e-05 0)
(-10.855 -1.3418e-05 0)
(-10.8059 -1.29877e-05 0)
(-10.7583 -1.25812e-05 0)
(-10.712 -1.21948e-05 0)
(-10.667 -1.1827e-05 0)
(-10.6232 -1.1477e-05 0)
(-10.5807 -1.11459e-05 0)
(-10.5392 -1.08285e-05 0)
(-10.4988 -1.05358e-05 0)
(-10.4594 -1.02785e-05 0)
(-10.4208 -1.00458e-05 0)
(-10.383 -9.82734e-06 0)
(-10.3458 -9.61521e-06 0)
(-10.3094 -9.40645e-06 0)
(-10.2738 -9.20162e-06 0)
(-10.2388 -8.99899e-06 0)
(-10.2045 -8.80096e-06 0)
(-10.1708 -8.60923e-06 0)
(-10.1379 -8.42186e-06 0)
(-10.1055 -8.24021e-06 0)
(-10.0738 -8.06504e-06 0)
(-10.0427 -7.89663e-06 0)
(-10.0121 -7.73278e-06 0)
(-9.98214 -7.57297e-06 0)
(-9.9527 -7.41806e-06 0)
(-9.92379 -7.26948e-06 0)
(-9.89539 -7.12595e-06 0)
(-9.86747 -6.98684e-06 0)
(-9.84004 -6.85097e-06 0)
(-9.81308 -6.72345e-06 0)
(-9.78653 -6.60151e-06 0)
(-9.76041 -6.47916e-06 0)
(-9.73472 -6.35925e-06 0)
(-9.70944 -6.24381e-06 0)
(-9.68456 -6.13222e-06 0)
(-9.66006 -6.02228e-06 0)
(-9.63594 -5.91552e-06 0)
(-9.6122 -5.81118e-06 0)
(-9.58881 -5.70985e-06 0)
(-9.56578 -5.6115e-06 0)
(-9.54309 -5.51577e-06 0)
(-9.52073 -5.42272e-06 0)
(-9.49869 -5.33239e-06 0)
(-9.47697 -5.24404e-06 0)
(-9.45555 -5.15806e-06 0)
(-9.43444 -5.07484e-06 0)
(-9.41361 -4.99351e-06 0)
(-9.39307 -4.91562e-06 0)
(-9.3728 -4.83926e-06 0)
(-9.35279 -4.76427e-06 0)
(-9.33305 -4.69143e-06 0)
(-9.31356 -4.61962e-06 0)
(-9.29432 -4.55012e-06 0)
(-9.27533 -4.48211e-06 0)
(-9.25658 -4.41492e-06 0)
(-9.23806 -4.35065e-06 0)
(-9.21976 -4.28724e-06 0)
(-9.20169 -4.22514e-06 0)
(-9.18384 -4.16532e-06 0)
(-9.1662 -4.10582e-06 0)
(-9.14877 -4.05088e-06 0)
(-9.13151 -3.99835e-06 0)
(-9.11445 -3.94393e-06 0)
(-9.09759 -3.89083e-06 0)
(-9.0809 -3.83808e-06 0)
(-9.06441 -3.78596e-06 0)
(-9.0481 -3.73629e-06 0)
(-9.03197 -3.68695e-06 0)
(-9.01601 -3.63805e-06 0)
(-9.00022 -3.59147e-06 0)
(-8.9846 -3.54515e-06 0)
(-8.96915 -3.49912e-06 0)
(-8.95385 -3.45541e-06 0)
(-8.93871 -3.41208e-06 0)
(-8.92373 -3.36878e-06 0)
(-8.9089 -3.32757e-06 0)
(-8.89421 -3.28694e-06 0)
(-8.87967 -3.2462e-06 0)
(-8.86528 -3.20706e-06 0)
(-8.85102 -3.16901e-06 0)
(-8.8369 -3.1308e-06 0)
(-8.82292 -3.0936e-06 0)
(-8.80907 -3.05796e-06 0)
(-8.79535 -3.0221e-06 0)
(-8.78175 -2.98658e-06 0)
(-8.76829 -2.95274e-06 0)
(-8.75494 -2.91925e-06 0)
(-8.74171 -2.88572e-06 0)
(-8.72861 -2.85329e-06 0)
(-8.71561 -2.82194e-06 0)
(-8.70273 -2.79045e-06 0)
(-8.68997 -2.75923e-06 0)
(-8.67732 -2.72943e-06 0)
(-8.66477 -2.70006e-06 0)
(-8.65233 -2.67046e-06 0)
(-8.64 -2.6417e-06 0)
(-8.62776 -2.6142e-06 0)
(-8.61563 -2.58646e-06 0)
(-8.6036 -2.55862e-06 0)
(-8.59167 -2.53212e-06 0)
(-8.57983 -2.50636e-06 0)
(-8.56809 -2.48022e-06 0)
(-8.55644 -2.45437e-06 0)
(-8.54488 -2.42973e-06 0)
(-8.53341 -2.40552e-06 0)
(-8.52203 -2.38086e-06 0)
(-8.51075 -2.3578e-06 0)
(-8.49953 -2.33671e-06 0)
(-8.48839 -2.31483e-06 0)
(-8.47734 -2.29192e-06 0)
(-8.46637 -2.26935e-06 0)
(-8.45548 -2.24765e-06 0)
(-8.44466 -2.22616e-06 0)
(-8.43393 -2.20454e-06 0)
(-8.42327 -2.1833e-06 0)
(-8.4127 -2.16284e-06 0)
(-8.40219 -2.14269e-06 0)
(-8.39176 -2.12238e-06 0)
(-8.3814 -2.10228e-06 0)
(-8.37112 -2.08294e-06 0)
(-8.36091 -2.0641e-06 0)
(-8.35076 -2.04501e-06 0)
(-8.34069 -2.02593e-06 0)
(-8.33069 -2.00762e-06 0)
(-8.32075 -1.98995e-06 0)
(-8.31087 -1.97204e-06 0)
(-8.30106 -1.954e-06 0)
(-8.29132 -1.93656e-06 0)
(-8.28164 -1.91992e-06 0)
(-8.27202 -1.90307e-06 0)
(-8.26247 -1.88639e-06 0)
(-8.25297 -1.86958e-06 0)
(-8.24355 -1.85132e-06 0)
(-8.23471 -1.83806e-06 0)
(-8.22638 -1.82655e-06 0)
(-8.21803 -1.81057e-06 0)
(-8.20966 -1.79576e-06 0)
(-8.20127 -1.78219e-06 0)
(-8.19285 -1.7685e-06 0)
(-8.1844 -1.7546e-06 0)
(-8.17593 -1.74039e-06 0)
(-8.16744 -1.72668e-06 0)
(-8.15892 -1.71327e-06 0)
(-8.15037 -1.69993e-06 0)
(-8.1418 -1.68617e-06 0)
(-8.13321 -1.67228e-06 0)
(-8.1246 -1.6589e-06 0)
(-8.11596 -1.64575e-06 0)
(-8.1073 -1.63254e-06 0)
(-8.09861 -1.61905e-06 0)
(-8.0899 -1.60558e-06 0)
(-8.08117 -1.59253e-06 0)
(-8.07242 -1.57966e-06 0)
(-8.06365 -1.56659e-06 0)
(-8.05485 -1.55336e-06 0)
(-8.04603 -1.54034e-06 0)
(-8.03719 -1.52762e-06 0)
(-8.02833 -1.51502e-06 0)
(-8.01945 -1.50215e-06 0)
(-8.01054 -1.48917e-06 0)
(-8.00162 -1.47659e-06 0)
(-7.99268 -1.46424e-06 0)
(-7.98371 -1.45177e-06 0)
(-7.97473 -1.43916e-06 0)
(-7.96573 -1.42665e-06 0)
(-7.95671 -1.41446e-06 0)
(-7.94766 -1.40242e-06 0)
(-7.9386 -1.39013e-06 0)
(-7.92952 -1.37776e-06 0)
(-7.92042 -1.36577e-06 0)
(-7.91131 -1.35405e-06 0)
(-7.90217 -1.34286e-06 0)
(-7.89301 -1.33185e-06 0)
(-7.88382 -1.32037e-06 0)
(-7.87462 -1.30879e-06 0)
(-7.8654 -1.29719e-06 0)
(-7.85616 -1.28542e-06 0)
(-7.84691 -1.27371e-06 0)
(-7.83764 -1.26234e-06 0)
(-7.82836 -1.2511e-06 0)
(-7.81905 -1.23963e-06 0)
(-7.80974 -1.22814e-06 0)
(-7.80041 -1.217e-06 0)
(-7.79106 -1.20609e-06 0)
(-7.78169 -1.19493e-06 0)
(-7.77232 -1.18366e-06 0)
(-7.76293 -1.17277e-06 0)
(-7.75352 -1.16213e-06 0)
(-7.7441 -1.15127e-06 0)
(-7.73467 -1.14029e-06 0)
(-7.72522 -1.12964e-06 0)
(-7.71576 -1.11926e-06 0)
(-7.70629 -1.10869e-06 0)
(-7.6968 -1.09799e-06 0)
(-7.68731 -1.08761e-06 0)
(-7.6778 -1.07748e-06 0)
(-7.66828 -1.06718e-06 0)
(-7.65874 -1.05676e-06 0)
(-7.6492 -1.04665e-06 0)
(-7.63965 -1.03678e-06 0)
(-7.63008 -1.02673e-06 0)
(-7.6205 -1.01659e-06 0)
(-7.61092 -1.00676e-06 0)
(-7.60132 -9.97148e-07 0)
(-7.59171 -9.87342e-07 0)
(-7.5821 -9.77482e-07 0)
(-7.57247 -9.67945e-07 0)
(-7.56284 -9.58565e-07 0)
(-7.5532 -9.49e-07 0)
(-7.54355 -9.39446e-07 0)
(-7.53389 -9.30193e-07 0)
(-7.52422 -9.21029e-07 0)
(-7.51455 -9.11714e-07 0)
(-7.50487 -9.02473e-07 0)
(-7.49518 -8.93487e-07 0)
(-7.48549 -8.84524e-07 0)
(-7.47579 -8.75457e-07 0)
(-7.46608 -8.66529e-07 0)
(-7.45637 -8.57807e-07 0)
(-7.44665 -8.4905e-07 0)
(-7.43693 -8.40239e-07 0)
(-7.42721 -8.31615e-07 0)
(-7.41748 -8.23158e-07 0)
(-7.40774 -8.14611e-07 0)
(-7.398 -8.0605e-07 0)
(-7.38826 -7.97715e-07 0)
(-7.37851 -7.89468e-07 0)
(-7.36876 -7.81148e-07 0)
(-7.35901 -7.72893e-07 0)
(-7.34926 -7.64827e-07 0)
(-7.3395 -7.56774e-07 0)
(-7.32974 -7.48855e-07 0)
(-7.31998 -7.41453e-07 0)
(-7.3102 -7.34049e-07 0)
(-7.30043 -7.26194e-07 0)
(-7.29065 -7.18299e-07 0)
(-7.28088 -7.10609e-07 0)
(-7.2711 -7.03016e-07 0)
(-7.26132 -6.95442e-07 0)
(-7.25155 -6.87944e-07 0)
(-7.24177 -6.80545e-07 0)
(-7.23199 -6.73116e-07 0)
(-7.22222 -6.65652e-07 0)
(-7.21245 -6.5834e-07 0)
(-7.20268 -6.51158e-07 0)
(-7.19292 -6.43919e-07 0)
(-7.18316 -6.36722e-07 0)
(-7.1734 -6.29705e-07 0)
(-7.16364 -6.22715e-07 0)
(-7.15389 -6.15675e-07 0)
(-7.14415 -6.08776e-07 0)
(-7.13441 -6.02003e-07 0)
(-7.12467 -5.95183e-07 0)
(-7.11494 -5.88389e-07 0)
(-7.10521 -5.81782e-07 0)
(-7.09549 -5.75184e-07 0)
(-7.08578 -5.68559e-07 0)
(-7.07608 -5.62064e-07 0)
(-7.06638 -5.55687e-07 0)
(-7.05668 -5.49256e-07 0)
(-7.047 -5.4288e-07 0)
(-7.03732 -5.36671e-07 0)
(-7.02765 -5.30462e-07 0)
(-7.01799 -5.24228e-07 0)
(-7.00834 -5.18148e-07 0)
(-6.9987 -5.12138e-07 0)
(-6.98907 -5.06096e-07 0)
(-6.97944 -5.00127e-07 0)
(-6.96983 -4.94312e-07 0)
(-6.96022 -4.88458e-07 0)
(-6.95063 -4.82617e-07 0)
(-6.94105 -4.76937e-07 0)
(-6.93147 -4.7129e-07 0)
(-6.92191 -4.65616e-07 0)
(-6.91237 -4.60061e-07 0)
(-6.90283 -4.54595e-07 0)
(-6.8933 -4.49107e-07 0)
(-6.88379 -4.4367e-07 0)
(-6.87429 -4.3838e-07 0)
(-6.8648 -4.33075e-07 0)
(-6.85533 -4.27781e-07 0)
(-6.84586 -4.22624e-07 0)
(-6.83641 -4.17506e-07 0)
(-6.82698 -4.12376e-07 0)
(-6.81756 -4.07351e-07 0)
(-6.80815 -4.02403e-07 0)
(-6.79876 -3.97446e-07 0)
(-6.78938 -3.92547e-07 0)
(-6.78002 -3.87771e-07 0)
(-6.77066 -3.83188e-07 0)
(-6.76132 -3.78691e-07 0)
(-6.75199 -3.74126e-07 0)
(-6.74267 -3.69521e-07 0)
(-6.73337 -3.64893e-07 0)
(-6.72408 -3.60359e-07 0)
(-6.71481 -3.55876e-07 0)
(-6.70556 -3.51398e-07 0)
(-6.69632 -3.46985e-07 0)
(-6.6871 -3.42658e-07 0)
(-6.6779 -3.38327e-07 0)
(-6.66872 -3.3404e-07 0)
(-6.65954 -3.29851e-07 0)
(-6.6504 -3.25674e-07 0)
(-6.64126 -3.21514e-07 0)
(-6.63215 -3.17453e-07 0)
(-6.62305 -3.13417e-07 0)
(-6.61397 -3.094e-07 0)
(-6.60491 -3.05452e-07 0)
(-6.59587 -3.01562e-07 0)
(-6.58684 -2.97659e-07 0)
(-6.57785 -2.93853e-07 0)
(-6.56886 -2.90002e-07 0)
(-6.5599 -2.86324e-07 0)
(-6.55095 -2.82767e-07 0)
(-6.54102 -2.78467e-07 0)
(-6.53022 -2.73892e-07 0)
(-6.5196 -2.69762e-07 0)
(-6.50912 -2.65725e-07 0)
(-6.49882 -2.61698e-07 0)
(-6.48866 -2.57813e-07 0)
(-6.47865 -2.54001e-07 0)
(-6.46879 -2.50274e-07 0)
(-6.45908 -2.46659e-07 0)
(-6.4495 -2.43112e-07 0)
(-6.44007 -2.39637e-07 0)
(-6.43076 -2.36272e-07 0)
(-6.42159 -2.3297e-07 0)
(-6.41254 -2.29733e-07 0)
(-6.40363 -2.26606e-07 0)
(-6.39482 -2.23536e-07 0)
(-6.38614 -2.20526e-07 0)
(-6.37757 -2.17618e-07 0)
(-6.36913 -2.14769e-07 0)
(-6.36078 -2.11968e-07 0)
(-6.35255 -2.09252e-07 0)
(-6.34441 -2.06588e-07 0)
(-6.33639 -2.0396e-07 0)
(-6.32846 -2.01396e-07 0)
(-6.32064 -1.98902e-07 0)
(-6.31291 -1.96442e-07 0)
(-6.30528 -1.94032e-07 0)
(-6.29774 -1.91694e-07 0)
(-6.29029 -1.89399e-07 0)
(-6.28293 -1.87132e-07 0)
(-6.27566 -1.84929e-07 0)
(-6.26847 -1.8278e-07 0)
(-6.26137 -1.80664e-07 0)
(-6.25434 -1.78623e-07 0)
(-6.2474 -1.76675e-07 0)
(-6.24052 -1.74733e-07 0)
(-6.23373 -1.72798e-07 0)
(-6.22701 -1.70886e-07 0)
(-6.22037 -1.69029e-07 0)
(-6.21379 -1.6719e-07 0)
(-6.2073 -1.65381e-07 0)
(-6.20086 -1.63605e-07 0)
(-6.19451 -1.61887e-07 0)
(-6.1882 -1.60178e-07 0)
(-6.18198 -1.58502e-07 0)
(-6.17581 -1.56854e-07 0)
(-6.16971 -1.55263e-07 0)
(-6.16367 -1.53676e-07 0)
(-6.1577 -1.52125e-07 0)
(-6.15177 -1.50588e-07 0)
(-6.14592 -1.49111e-07 0)
(-6.14011 -1.47629e-07 0)
(-6.13438 -1.4619e-07 0)
(-6.12868 -1.44746e-07 0)
(-6.12306 -1.43372e-07 0)
(-6.11747 -1.4199e-07 0)
(-6.11196 -1.40661e-07 0)
(-6.10647 -1.39301e-07 0)
(-6.10107 -1.38028e-07 0)
(-6.09568 -1.36734e-07 0)
(-6.09037 -1.35511e-07 0)
(-6.08508 -1.34235e-07 0)
(-6.07988 -1.33061e-07 0)
(-6.07468 -1.3184e-07 0)
(-6.06957 -1.30727e-07 0)
(-6.06445 -1.29531e-07 0)
(-6.05944 -1.28444e-07 0)
(-6.05441 -1.27283e-07 0)
(-6.04949 -1.26261e-07 0)
(-6.04454 -1.25134e-07 0)
(-6.0397 -1.24147e-07 0)
(-6.03483 -1.23038e-07 0)
(-6.03008 -1.22103e-07 0)
(-6.02528 -1.21041e-07 0)
(-6.02062 -1.20157e-07 0)
(-6.01589 -1.19111e-07 0)
(-6.0113 -1.1826e-07 0)
(-6.00664 -1.17251e-07 0)
(-6.00214 -1.16463e-07 0)
(-5.99753 -1.15492e-07 0)
(-5.9931 -1.14744e-07 0)
(-5.98856 -1.13813e-07 0)
(-5.98421 -1.13102e-07 0)
(-5.97972 -1.12301e-07 0)
(-5.97542 -1.11535e-07 0)
(-5.971 -1.11127e-07 0)
(-5.96673 -1.09757e-07 0)
(-5.96242 -1.10987e-07 0)
(-5.95805 -1.06683e-07 0)
(-5.95409 -1.14414e-07 0)
(-5.94908 -9.78921e-08 0)
(-5.94647 -1.27181e-07 0)
(-5.93906 -7.69943e-08 0)
(-5.9406 -1.05865e-07 0)
(-5.93051 -1.33957e-07 0)
)
;
    }
    symmetry
    {
        type            symmetryPlane;
    }
    frontAndBack
    {
        type            empty;
    }
}


// ************************************************************************* //
