/*--------------------------------*- C++ -*----------------------------------*\
| =========                 |                                                 |
| \\      /  F ield         | OpenFOAM: The Open Source CFD Toolbox           |
|  \\    /   O peration     | Version:  v2012                                 |
|   \\  /    A nd           | Website:  www.openfoam.com                      |
|    \\/     M anipulation  |                                                 |
\*---------------------------------------------------------------------------*/
FoamFile
{
    version     2.0;
    format      ascii;
    class       volScalarField;
    location    "38.5";
    object      nut;
}
// * * * * * * * * * * * * * * * * * * * * * * * * * * * * * * * * * * * * * //

dimensions      [0 2 -1 0 0 0 0];


internalField   nonuniform List<scalar> 
209825
(
1.24795e-07
1.2295e-07
1.17721e-07
1.10601e-07
1.03219e-07
9.6461e-08
9.05492e-08
8.55006e-08
8.11771e-08
7.74942e-08
7.43123e-08
7.15755e-08
6.91764e-08
6.70936e-08
6.52401e-08
6.36167e-08
6.21525e-08
6.08622e-08
5.9684e-08
5.86413e-08
5.76772e-08
5.68223e-08
5.60228e-08
5.5312e-08
5.46402e-08
5.40431e-08
5.34738e-08
5.29676e-08
5.24788e-08
5.20477e-08
5.16265e-08
5.1255e-08
5.0888e-08
5.05671e-08
5.02468e-08
4.99688e-08
4.96872e-08
4.9445e-08
4.91965e-08
4.89843e-08
4.87635e-08
4.85769e-08
4.83791e-08
4.82158e-08
4.80401e-08
4.7895e-08
4.77366e-08
4.76092e-08
4.7468e-08
4.73538e-08
4.72266e-08
4.71293e-08
4.70138e-08
4.69264e-08
4.68193e-08
4.67466e-08
4.66532e-08
4.65829e-08
4.65018e-08
4.64367e-08
4.6356e-08
4.6303e-08
4.62242e-08
4.6178e-08
4.61067e-08
4.60616e-08
4.59954e-08
4.59496e-08
4.58969e-08
4.58552e-08
4.5803e-08
4.57611e-08
4.57146e-08
4.56741e-08
4.5632e-08
4.55935e-08
4.55554e-08
4.552e-08
4.54859e-08
4.54521e-08
4.54204e-08
4.53896e-08
4.53687e-08
4.53457e-08
4.53265e-08
4.53056e-08
4.52899e-08
4.52688e-08
4.5254e-08
4.52329e-08
4.52154e-08
4.51897e-08
4.51677e-08
4.55222e-08
3.32161e-06
2.28676e-08
1.24795e-07
1.2295e-07
1.17722e-07
1.10603e-07
1.03222e-07
9.64634e-08
9.05516e-08
8.55028e-08
8.11792e-08
7.74962e-08
7.43141e-08
7.15772e-08
6.91779e-08
6.7095e-08
6.52414e-08
6.36178e-08
6.21535e-08
6.08631e-08
5.96848e-08
5.8642e-08
5.76779e-08
5.68228e-08
5.60233e-08
5.53125e-08
5.46406e-08
5.40434e-08
5.34741e-08
5.29678e-08
5.24789e-08
5.20478e-08
5.16265e-08
5.1255e-08
5.0888e-08
5.05671e-08
5.02467e-08
4.99687e-08
4.96871e-08
4.94449e-08
4.91963e-08
4.89841e-08
4.87633e-08
4.85766e-08
4.83789e-08
4.82155e-08
4.80398e-08
4.78947e-08
4.77362e-08
4.76089e-08
4.74677e-08
4.73534e-08
4.72262e-08
4.71289e-08
4.70133e-08
4.69259e-08
4.68188e-08
4.67462e-08
4.66528e-08
4.65824e-08
4.65013e-08
4.64362e-08
4.63555e-08
4.63025e-08
4.62237e-08
4.61775e-08
4.61061e-08
4.6061e-08
4.59949e-08
4.59491e-08
4.58964e-08
4.58547e-08
4.58024e-08
4.57606e-08
4.57141e-08
4.56736e-08
4.56314e-08
4.55929e-08
4.55548e-08
4.55194e-08
4.54853e-08
4.54515e-08
4.54198e-08
4.5389e-08
4.53681e-08
4.53451e-08
4.53259e-08
4.53049e-08
4.52893e-08
4.52681e-08
4.52533e-08
4.52322e-08
4.52147e-08
4.5189e-08
4.5167e-08
4.5522e-08
3.32208e-06
2.3048e-08
1.24794e-07
1.22952e-07
1.17727e-07
1.1061e-07
1.03231e-07
9.64731e-08
9.05611e-08
8.55119e-08
8.11877e-08
7.75039e-08
7.43212e-08
7.15836e-08
6.91837e-08
6.71002e-08
6.52461e-08
6.3622e-08
6.21573e-08
6.08664e-08
5.96878e-08
5.86446e-08
5.76801e-08
5.68248e-08
5.6025e-08
5.53139e-08
5.46418e-08
5.40444e-08
5.34749e-08
5.29685e-08
5.24794e-08
5.20481e-08
5.16267e-08
5.12551e-08
5.08879e-08
5.05669e-08
5.02464e-08
4.99683e-08
4.96865e-08
4.94442e-08
4.91956e-08
4.89833e-08
4.87624e-08
4.85757e-08
4.83778e-08
4.82144e-08
4.80386e-08
4.78935e-08
4.77349e-08
4.76075e-08
4.74662e-08
4.73519e-08
4.72247e-08
4.71273e-08
4.70117e-08
4.69243e-08
4.68171e-08
4.67444e-08
4.6651e-08
4.65806e-08
4.64994e-08
4.64343e-08
4.63536e-08
4.63006e-08
4.62217e-08
4.61755e-08
4.61041e-08
4.6059e-08
4.59928e-08
4.5947e-08
4.58943e-08
4.58526e-08
4.58003e-08
4.57584e-08
4.57119e-08
4.56714e-08
4.56292e-08
4.55907e-08
4.55525e-08
4.55171e-08
4.5483e-08
4.54492e-08
4.54175e-08
4.53866e-08
4.53657e-08
4.53426e-08
4.53234e-08
4.53024e-08
4.52868e-08
4.52656e-08
4.52508e-08
4.52296e-08
4.52121e-08
4.51863e-08
4.51644e-08
4.55201e-08
3.32304e-06
2.33005e-08
1.24793e-07
1.22954e-07
1.17735e-07
1.10623e-07
1.03246e-07
9.64894e-08
9.05772e-08
8.55272e-08
8.12019e-08
7.7517e-08
7.43331e-08
7.15944e-08
6.91935e-08
6.71089e-08
6.52539e-08
6.36291e-08
6.21636e-08
6.0872e-08
5.96927e-08
5.8649e-08
5.7684e-08
5.68282e-08
5.6028e-08
5.53164e-08
5.46439e-08
5.40462e-08
5.34764e-08
5.29696e-08
5.24803e-08
5.20487e-08
5.1627e-08
5.12552e-08
5.08878e-08
5.05666e-08
5.02458e-08
4.99676e-08
4.96856e-08
4.94432e-08
4.91944e-08
4.8982e-08
4.87609e-08
4.85741e-08
4.83761e-08
4.82126e-08
4.80366e-08
4.78914e-08
4.77328e-08
4.76053e-08
4.74639e-08
4.73495e-08
4.72222e-08
4.71247e-08
4.7009e-08
4.69215e-08
4.68143e-08
4.67415e-08
4.6648e-08
4.65776e-08
4.64963e-08
4.64312e-08
4.63504e-08
4.62974e-08
4.62185e-08
4.61722e-08
4.61008e-08
4.60556e-08
4.59894e-08
4.59436e-08
4.58908e-08
4.58491e-08
4.57968e-08
4.57548e-08
4.57083e-08
4.56678e-08
4.56255e-08
4.5587e-08
4.55488e-08
4.55134e-08
4.54792e-08
4.54453e-08
4.54136e-08
4.53827e-08
4.53616e-08
4.53385e-08
4.53193e-08
4.52983e-08
4.52826e-08
4.52614e-08
4.52465e-08
4.52254e-08
4.52078e-08
4.5182e-08
4.516e-08
4.55171e-08
3.32453e-06
2.35988e-08
1.24792e-07
1.22957e-07
1.17746e-07
1.10641e-07
1.03268e-07
9.65125e-08
9.06e-08
8.55489e-08
8.12221e-08
7.75355e-08
7.43499e-08
7.16097e-08
6.92073e-08
6.71214e-08
6.52651e-08
6.36391e-08
6.21725e-08
6.088e-08
5.96998e-08
5.86552e-08
5.76895e-08
5.6833e-08
5.60321e-08
5.532e-08
5.4647e-08
5.40488e-08
5.34784e-08
5.29713e-08
5.24815e-08
5.20495e-08
5.16275e-08
5.12554e-08
5.08877e-08
5.05662e-08
5.02452e-08
4.99667e-08
4.96844e-08
4.94418e-08
4.91928e-08
4.89802e-08
4.87589e-08
4.85719e-08
4.83737e-08
4.82101e-08
4.80339e-08
4.78886e-08
4.77298e-08
4.76022e-08
4.74606e-08
4.73462e-08
4.72187e-08
4.71211e-08
4.70053e-08
4.69177e-08
4.68104e-08
4.67375e-08
4.66439e-08
4.65734e-08
4.6492e-08
4.64269e-08
4.6346e-08
4.62929e-08
4.6214e-08
4.61677e-08
4.60961e-08
4.6051e-08
4.59847e-08
4.59388e-08
4.5886e-08
4.58442e-08
4.57918e-08
4.57499e-08
4.57033e-08
4.56627e-08
4.56204e-08
4.55819e-08
4.55436e-08
4.55081e-08
4.54739e-08
4.544e-08
4.54083e-08
4.53773e-08
4.5356e-08
4.53328e-08
4.53136e-08
4.52925e-08
4.52767e-08
4.52555e-08
4.52406e-08
4.52194e-08
4.52017e-08
4.51759e-08
4.51539e-08
4.55127e-08
3.32662e-06
2.39324e-08
1.2479e-07
1.22961e-07
1.17761e-07
1.10665e-07
1.03297e-07
9.65426e-08
9.06297e-08
8.5577e-08
8.12482e-08
7.75595e-08
7.43718e-08
7.16296e-08
6.92252e-08
6.71375e-08
6.52796e-08
6.36521e-08
6.21842e-08
6.08904e-08
5.9709e-08
5.86634e-08
5.76967e-08
5.68393e-08
5.60376e-08
5.53248e-08
5.4651e-08
5.40521e-08
5.34812e-08
5.29735e-08
5.24832e-08
5.20507e-08
5.16283e-08
5.12557e-08
5.08876e-08
5.05657e-08
5.02443e-08
4.99655e-08
4.9683e-08
4.94401e-08
4.91907e-08
4.89778e-08
4.87564e-08
4.85691e-08
4.83707e-08
4.82068e-08
4.80305e-08
4.7885e-08
4.7726e-08
4.75982e-08
4.74565e-08
4.73419e-08
4.72142e-08
4.71165e-08
4.70006e-08
4.69129e-08
4.68054e-08
4.67324e-08
4.66387e-08
4.6568e-08
4.64865e-08
4.64213e-08
4.63403e-08
4.62872e-08
4.62082e-08
4.61618e-08
4.60901e-08
4.60449e-08
4.59785e-08
4.59326e-08
4.58797e-08
4.58379e-08
4.57855e-08
4.57435e-08
4.56969e-08
4.56562e-08
4.56139e-08
4.55753e-08
4.55369e-08
4.55014e-08
4.54671e-08
4.54332e-08
4.54014e-08
4.53703e-08
4.53488e-08
4.53254e-08
4.53062e-08
4.52851e-08
4.52692e-08
4.52479e-08
4.52329e-08
4.52116e-08
4.5194e-08
4.5168e-08
4.5146e-08
4.55072e-08
3.32934e-06
2.42977e-08
1.24788e-07
1.22965e-07
1.17779e-07
1.10694e-07
1.03332e-07
9.65796e-08
9.06662e-08
8.56118e-08
8.12806e-08
7.75893e-08
7.43989e-08
7.16542e-08
6.92474e-08
6.71576e-08
6.52976e-08
6.36683e-08
6.21986e-08
6.09033e-08
5.97205e-08
5.86736e-08
5.77057e-08
5.68472e-08
5.60445e-08
5.53307e-08
5.4656e-08
5.40564e-08
5.34847e-08
5.29763e-08
5.24853e-08
5.20523e-08
5.16292e-08
5.12561e-08
5.08875e-08
5.05652e-08
5.02434e-08
4.99642e-08
4.96812e-08
4.94379e-08
4.91883e-08
4.89751e-08
4.87532e-08
4.85657e-08
4.8367e-08
4.82029e-08
4.80263e-08
4.78806e-08
4.77213e-08
4.75933e-08
4.74514e-08
4.73366e-08
4.72087e-08
4.71109e-08
4.69947e-08
4.69069e-08
4.67992e-08
4.67261e-08
4.66322e-08
4.65614e-08
4.64797e-08
4.64145e-08
4.63333e-08
4.62802e-08
4.62011e-08
4.61546e-08
4.60828e-08
4.60375e-08
4.5971e-08
4.5925e-08
4.58721e-08
4.58301e-08
4.57777e-08
4.57356e-08
4.56889e-08
4.56483e-08
4.56058e-08
4.55672e-08
4.55287e-08
4.54931e-08
4.54587e-08
4.54247e-08
4.53929e-08
4.53617e-08
4.534e-08
4.53163e-08
4.52972e-08
4.52759e-08
4.52599e-08
4.52385e-08
4.52235e-08
4.52022e-08
4.51844e-08
4.51584e-08
4.51363e-08
4.55004e-08
3.33273e-06
2.46953e-08
1.24786e-07
1.22971e-07
1.178e-07
1.10728e-07
1.03373e-07
9.66238e-08
9.07098e-08
8.56533e-08
8.13192e-08
7.76248e-08
7.44314e-08
7.16836e-08
6.9274e-08
6.71815e-08
6.53192e-08
6.36876e-08
6.22159e-08
6.09187e-08
5.97343e-08
5.86858e-08
5.77164e-08
5.68566e-08
5.60527e-08
5.53378e-08
5.46621e-08
5.40615e-08
5.34889e-08
5.29797e-08
5.24879e-08
5.20542e-08
5.16304e-08
5.12567e-08
5.08875e-08
5.05646e-08
5.02423e-08
4.99626e-08
4.96792e-08
4.94355e-08
4.91854e-08
4.89718e-08
4.87496e-08
4.85617e-08
4.83627e-08
4.81983e-08
4.80214e-08
4.78753e-08
4.77158e-08
4.75876e-08
4.74454e-08
4.73304e-08
4.72023e-08
4.71042e-08
4.69878e-08
4.68998e-08
4.67919e-08
4.67186e-08
4.66245e-08
4.65536e-08
4.64717e-08
4.64064e-08
4.63251e-08
4.62719e-08
4.61926e-08
4.6146e-08
4.6074e-08
4.60288e-08
4.59621e-08
4.5916e-08
4.5863e-08
4.5821e-08
4.57685e-08
4.57263e-08
4.56795e-08
4.56388e-08
4.55963e-08
4.55576e-08
4.5519e-08
4.54833e-08
4.54488e-08
4.54147e-08
4.53828e-08
4.53515e-08
4.53295e-08
4.53055e-08
4.52864e-08
4.5265e-08
4.52489e-08
4.52274e-08
4.52123e-08
4.51909e-08
4.51731e-08
4.51469e-08
4.51248e-08
4.54923e-08
3.33685e-06
2.51288e-08
1.24783e-07
1.22978e-07
1.17825e-07
1.10769e-07
1.03422e-07
9.66752e-08
9.07607e-08
8.57017e-08
8.13643e-08
7.76663e-08
7.44692e-08
7.1718e-08
6.93051e-08
6.72096e-08
6.53444e-08
6.37103e-08
6.22362e-08
6.09369e-08
5.97504e-08
5.87001e-08
5.77291e-08
5.68677e-08
5.60623e-08
5.53461e-08
5.46692e-08
5.40675e-08
5.34938e-08
5.29837e-08
5.2491e-08
5.20564e-08
5.16319e-08
5.12575e-08
5.08875e-08
5.0564e-08
5.02411e-08
4.99608e-08
4.96768e-08
4.94327e-08
4.9182e-08
4.8968e-08
4.87454e-08
4.85571e-08
4.83577e-08
4.81929e-08
4.80156e-08
4.78693e-08
4.77094e-08
4.75809e-08
4.74384e-08
4.73232e-08
4.71947e-08
4.70965e-08
4.69798e-08
4.68916e-08
4.67835e-08
4.67099e-08
4.66157e-08
4.65446e-08
4.64624e-08
4.6397e-08
4.63155e-08
4.62622e-08
4.61828e-08
4.61361e-08
4.60639e-08
4.60186e-08
4.59518e-08
4.59056e-08
4.58524e-08
4.58103e-08
4.57577e-08
4.57154e-08
4.56686e-08
4.56278e-08
4.55851e-08
4.55464e-08
4.55076e-08
4.54719e-08
4.54372e-08
4.54031e-08
4.53711e-08
4.53397e-08
4.53173e-08
4.5293e-08
4.52739e-08
4.52524e-08
4.5236e-08
4.52145e-08
4.51993e-08
4.51778e-08
4.51599e-08
4.51335e-08
4.51114e-08
4.5483e-08
3.34171e-06
2.5604e-08
1.24779e-07
1.22985e-07
1.17853e-07
1.10814e-07
1.03477e-07
9.67341e-08
9.08189e-08
8.57571e-08
8.1416e-08
7.77139e-08
7.45127e-08
7.17574e-08
6.93408e-08
6.72418e-08
6.53735e-08
6.37363e-08
6.22596e-08
6.09577e-08
5.9769e-08
5.87166e-08
5.77436e-08
5.68805e-08
5.60735e-08
5.53558e-08
5.46775e-08
5.40745e-08
5.34996e-08
5.29884e-08
5.24947e-08
5.20591e-08
5.16337e-08
5.12584e-08
5.08877e-08
5.05635e-08
5.02398e-08
4.99589e-08
4.96742e-08
4.94295e-08
4.91783e-08
4.89638e-08
4.87406e-08
4.85519e-08
4.8352e-08
4.81869e-08
4.80091e-08
4.78625e-08
4.77022e-08
4.75734e-08
4.74305e-08
4.7315e-08
4.71862e-08
4.70876e-08
4.69707e-08
4.68823e-08
4.67738e-08
4.67e-08
4.66055e-08
4.65342e-08
4.64517e-08
4.63862e-08
4.63045e-08
4.62512e-08
4.61717e-08
4.61247e-08
4.60524e-08
4.6007e-08
4.594e-08
4.58937e-08
4.58404e-08
4.57981e-08
4.57455e-08
4.57031e-08
4.56561e-08
4.56153e-08
4.55724e-08
4.55336e-08
4.54947e-08
4.54588e-08
4.5424e-08
4.53898e-08
4.53577e-08
4.53261e-08
4.53033e-08
4.52788e-08
4.52596e-08
4.52379e-08
4.52214e-08
4.51998e-08
4.51845e-08
4.51628e-08
4.51448e-08
4.51182e-08
4.50962e-08
4.54724e-08
3.34735e-06
2.61287e-08
1.24776e-07
1.22993e-07
1.17885e-07
1.10866e-07
1.0354e-07
9.68004e-08
9.08846e-08
8.58198e-08
8.14745e-08
7.77677e-08
7.45619e-08
7.18021e-08
6.93813e-08
6.72784e-08
6.54064e-08
6.37659e-08
6.22861e-08
6.09814e-08
5.97901e-08
5.87353e-08
5.77602e-08
5.68951e-08
5.60862e-08
5.53669e-08
5.46869e-08
5.40825e-08
5.35063e-08
5.29938e-08
5.24989e-08
5.20622e-08
5.16357e-08
5.12596e-08
5.08879e-08
5.05629e-08
5.02383e-08
4.99567e-08
4.96714e-08
4.9426e-08
4.91741e-08
4.89591e-08
4.87353e-08
4.85461e-08
4.83457e-08
4.81801e-08
4.80019e-08
4.78548e-08
4.76941e-08
4.75649e-08
4.74216e-08
4.73058e-08
4.71766e-08
4.70777e-08
4.69604e-08
4.68718e-08
4.6763e-08
4.66889e-08
4.65941e-08
4.65226e-08
4.64398e-08
4.63742e-08
4.62922e-08
4.62387e-08
4.61591e-08
4.6112e-08
4.60393e-08
4.59939e-08
4.59266e-08
4.58803e-08
4.58269e-08
4.57844e-08
4.57316e-08
4.56891e-08
4.56421e-08
4.56011e-08
4.55582e-08
4.55192e-08
4.54801e-08
4.54441e-08
4.54091e-08
4.53748e-08
4.53426e-08
4.53109e-08
4.52876e-08
4.52628e-08
4.52435e-08
4.52217e-08
4.52049e-08
4.51832e-08
4.51678e-08
4.51459e-08
4.51278e-08
4.5101e-08
4.50789e-08
4.54606e-08
3.35375e-06
2.67122e-08
1.24772e-07
1.23002e-07
1.1792e-07
1.10923e-07
1.03609e-07
9.68744e-08
9.0958e-08
8.58898e-08
8.15399e-08
7.7828e-08
7.46169e-08
7.18522e-08
6.94267e-08
6.73193e-08
6.54433e-08
6.37991e-08
6.23158e-08
6.1008e-08
5.98138e-08
5.87564e-08
5.77788e-08
5.69115e-08
5.61006e-08
5.53793e-08
5.46976e-08
5.40916e-08
5.35138e-08
5.29999e-08
5.25037e-08
5.20658e-08
5.16382e-08
5.1261e-08
5.08883e-08
5.05623e-08
5.02369e-08
4.99545e-08
4.96683e-08
4.94222e-08
4.91696e-08
4.89539e-08
4.87295e-08
4.85397e-08
4.83387e-08
4.81726e-08
4.79938e-08
4.78463e-08
4.76851e-08
4.75555e-08
4.74117e-08
4.72955e-08
4.71659e-08
4.70667e-08
4.69491e-08
4.68601e-08
4.6751e-08
4.66765e-08
4.65815e-08
4.65097e-08
4.64265e-08
4.63607e-08
4.62785e-08
4.62249e-08
4.61451e-08
4.60977e-08
4.60249e-08
4.59794e-08
4.59118e-08
4.58654e-08
4.58118e-08
4.57692e-08
4.57163e-08
4.56736e-08
4.56265e-08
4.55854e-08
4.55422e-08
4.55032e-08
4.54639e-08
4.54277e-08
4.53925e-08
4.53582e-08
4.53258e-08
4.52939e-08
4.52702e-08
4.52449e-08
4.52256e-08
4.52035e-08
4.51866e-08
4.51647e-08
4.51491e-08
4.51271e-08
4.51089e-08
4.50818e-08
4.50598e-08
4.54474e-08
3.36091e-06
2.73646e-08
1.24767e-07
1.23012e-07
1.17958e-07
1.10986e-07
1.03686e-07
9.69562e-08
9.10392e-08
8.59673e-08
8.16123e-08
7.78948e-08
7.4678e-08
7.19078e-08
6.9477e-08
6.73648e-08
6.54843e-08
6.3836e-08
6.23489e-08
6.10377e-08
5.98402e-08
5.87799e-08
5.77996e-08
5.69299e-08
5.61166e-08
5.53932e-08
5.47096e-08
5.41017e-08
5.35222e-08
5.30068e-08
5.25091e-08
5.20699e-08
5.1641e-08
5.12626e-08
5.08888e-08
5.05618e-08
5.02353e-08
4.9952e-08
4.96649e-08
4.9418e-08
4.91647e-08
4.89483e-08
4.87231e-08
4.85328e-08
4.8331e-08
4.81643e-08
4.7985e-08
4.7837e-08
4.76752e-08
4.75452e-08
4.74009e-08
4.72843e-08
4.71542e-08
4.70546e-08
4.69365e-08
4.68473e-08
4.67377e-08
4.66629e-08
4.65676e-08
4.64955e-08
4.64119e-08
4.63459e-08
4.62634e-08
4.62097e-08
4.61297e-08
4.60821e-08
4.60089e-08
4.59633e-08
4.58955e-08
4.5849e-08
4.57951e-08
4.57523e-08
4.56993e-08
4.56565e-08
4.56092e-08
4.5568e-08
4.55247e-08
4.54855e-08
4.54459e-08
4.54097e-08
4.53742e-08
4.53398e-08
4.53072e-08
4.52751e-08
4.52509e-08
4.52253e-08
4.52058e-08
4.51835e-08
4.51663e-08
4.51443e-08
4.51286e-08
4.51063e-08
4.5088e-08
4.50606e-08
4.50386e-08
4.5433e-08
3.36876e-06
2.80975e-08
1.24762e-07
1.23022e-07
1.17999e-07
1.11054e-07
1.0377e-07
9.70459e-08
9.11283e-08
8.60526e-08
8.1692e-08
7.79684e-08
7.47454e-08
7.19691e-08
6.95326e-08
6.74151e-08
6.55296e-08
6.38768e-08
6.23855e-08
6.10704e-08
5.98695e-08
5.8806e-08
5.78227e-08
5.69502e-08
5.61344e-08
5.54087e-08
5.47229e-08
5.41131e-08
5.35317e-08
5.30146e-08
5.25153e-08
5.20746e-08
5.16442e-08
5.12646e-08
5.08895e-08
5.05614e-08
5.02338e-08
4.99495e-08
4.96614e-08
4.94136e-08
4.91593e-08
4.89422e-08
4.87162e-08
4.85252e-08
4.83227e-08
4.81554e-08
4.79754e-08
4.78268e-08
4.76645e-08
4.75339e-08
4.73891e-08
4.72721e-08
4.71414e-08
4.70414e-08
4.69229e-08
4.68333e-08
4.67233e-08
4.6648e-08
4.65523e-08
4.64799e-08
4.63959e-08
4.63298e-08
4.62469e-08
4.6193e-08
4.61128e-08
4.60649e-08
4.59914e-08
4.59458e-08
4.58776e-08
4.5831e-08
4.57769e-08
4.57339e-08
4.56807e-08
4.56378e-08
4.55903e-08
4.5549e-08
4.55054e-08
4.54661e-08
4.54263e-08
4.53899e-08
4.53542e-08
4.53196e-08
4.52868e-08
4.52546e-08
4.52298e-08
4.52038e-08
4.51841e-08
4.51616e-08
4.51441e-08
4.5122e-08
4.5106e-08
4.50836e-08
4.50651e-08
4.50374e-08
4.50153e-08
4.54173e-08
3.37722e-06
2.89227e-08
1.24757e-07
1.23033e-07
1.18045e-07
1.11129e-07
1.03862e-07
9.71436e-08
9.12256e-08
8.61457e-08
8.17792e-08
7.80488e-08
7.4819e-08
7.20362e-08
6.95935e-08
6.74701e-08
6.55793e-08
6.39215e-08
6.24257e-08
6.11065e-08
5.99016e-08
5.88346e-08
5.78481e-08
5.69726e-08
5.6154e-08
5.54258e-08
5.47376e-08
5.41256e-08
5.35422e-08
5.30233e-08
5.25221e-08
5.20799e-08
5.16479e-08
5.12669e-08
5.08904e-08
5.05611e-08
5.02323e-08
4.99469e-08
4.96577e-08
4.9409e-08
4.91537e-08
4.89357e-08
4.87088e-08
4.8517e-08
4.83138e-08
4.81458e-08
4.7965e-08
4.78159e-08
4.76529e-08
4.75217e-08
4.73763e-08
4.72588e-08
4.71276e-08
4.70271e-08
4.6908e-08
4.68181e-08
4.67076e-08
4.66319e-08
4.65358e-08
4.64631e-08
4.63786e-08
4.63122e-08
4.62289e-08
4.61749e-08
4.60944e-08
4.60463e-08
4.59725e-08
4.59267e-08
4.58582e-08
4.58114e-08
4.57571e-08
4.57139e-08
4.56605e-08
4.56174e-08
4.55698e-08
4.55283e-08
4.54845e-08
4.5445e-08
4.5405e-08
4.53684e-08
4.53324e-08
4.52977e-08
4.52647e-08
4.52322e-08
4.52069e-08
4.51804e-08
4.51606e-08
4.51377e-08
4.512e-08
4.50976e-08
4.50815e-08
4.50588e-08
4.50401e-08
4.50121e-08
4.49901e-08
4.54002e-08
3.38614e-06
2.9853e-08
1.24751e-07
1.23045e-07
1.18093e-07
1.11209e-07
1.03961e-07
9.72495e-08
9.13311e-08
8.62468e-08
8.18739e-08
7.81364e-08
7.48993e-08
7.21094e-08
6.96599e-08
6.75302e-08
6.56335e-08
6.39704e-08
6.24696e-08
6.11459e-08
5.99368e-08
5.8866e-08
5.78759e-08
5.69972e-08
5.61756e-08
5.54447e-08
5.47539e-08
5.41395e-08
5.35539e-08
5.30329e-08
5.25298e-08
5.20858e-08
5.16521e-08
5.12696e-08
5.08916e-08
5.05609e-08
5.02308e-08
4.99442e-08
4.96538e-08
4.9404e-08
4.91477e-08
4.89288e-08
4.8701e-08
4.85084e-08
4.83042e-08
4.81355e-08
4.79539e-08
4.78042e-08
4.76404e-08
4.75087e-08
4.73626e-08
4.72446e-08
4.71126e-08
4.70117e-08
4.68921e-08
4.68017e-08
4.66907e-08
4.66145e-08
4.6518e-08
4.64449e-08
4.63599e-08
4.62933e-08
4.62096e-08
4.61553e-08
4.60746e-08
4.60261e-08
4.5952e-08
4.59061e-08
4.58372e-08
4.57903e-08
4.57356e-08
4.56922e-08
4.56387e-08
4.55954e-08
4.55476e-08
4.5506e-08
4.54619e-08
4.54222e-08
4.53819e-08
4.53451e-08
4.53088e-08
4.52739e-08
4.52407e-08
4.52081e-08
4.51821e-08
4.51552e-08
4.51351e-08
4.51119e-08
4.50939e-08
4.50713e-08
4.5055e-08
4.5032e-08
4.50131e-08
4.49847e-08
4.49627e-08
4.53817e-08
3.39535e-06
3.09015e-08
1.24745e-07
1.23058e-07
1.18145e-07
1.11295e-07
1.04067e-07
9.73636e-08
9.1445e-08
8.63561e-08
8.19765e-08
7.82313e-08
7.49863e-08
7.21887e-08
6.97319e-08
6.75955e-08
6.56925e-08
6.40235e-08
6.25174e-08
6.11887e-08
5.99752e-08
5.89002e-08
5.79063e-08
5.7024e-08
5.61992e-08
5.54653e-08
5.47717e-08
5.41548e-08
5.35667e-08
5.30436e-08
5.25384e-08
5.20924e-08
5.16569e-08
5.12727e-08
5.08931e-08
5.0561e-08
5.02294e-08
4.99415e-08
4.96498e-08
4.93989e-08
4.91414e-08
4.89215e-08
4.86926e-08
4.84992e-08
4.82941e-08
4.81245e-08
4.79421e-08
4.77916e-08
4.76271e-08
4.74947e-08
4.73479e-08
4.72293e-08
4.70967e-08
4.69953e-08
4.6875e-08
4.67841e-08
4.66725e-08
4.65959e-08
4.64988e-08
4.64253e-08
4.63398e-08
4.6273e-08
4.61888e-08
4.61343e-08
4.60533e-08
4.60045e-08
4.59299e-08
4.58839e-08
4.58146e-08
4.57676e-08
4.57126e-08
4.56689e-08
4.56152e-08
4.55717e-08
4.55237e-08
4.54819e-08
4.54376e-08
4.53977e-08
4.5357e-08
4.532e-08
4.52835e-08
4.52484e-08
4.52149e-08
4.5182e-08
4.51555e-08
4.51281e-08
4.51077e-08
4.50842e-08
4.50658e-08
4.5043e-08
4.50264e-08
4.50031e-08
4.49841e-08
4.49551e-08
4.49333e-08
4.53619e-08
3.40458e-06
3.20817e-08
1.24738e-07
1.23071e-07
1.18199e-07
1.11387e-07
1.04181e-07
9.74861e-08
9.15676e-08
8.64738e-08
8.2087e-08
7.83336e-08
7.50802e-08
7.22744e-08
6.98098e-08
6.76661e-08
6.57563e-08
6.40811e-08
6.25692e-08
6.12353e-08
6.00168e-08
5.89374e-08
5.79393e-08
5.70533e-08
5.62249e-08
5.54878e-08
5.47912e-08
5.41715e-08
5.35808e-08
5.30553e-08
5.25478e-08
5.20998e-08
5.16623e-08
5.12764e-08
5.0895e-08
5.05613e-08
5.02281e-08
4.99389e-08
4.96458e-08
4.93937e-08
4.91349e-08
4.89139e-08
4.86839e-08
4.84895e-08
4.82834e-08
4.81129e-08
4.79296e-08
4.77784e-08
4.76129e-08
4.74799e-08
4.73323e-08
4.72131e-08
4.70797e-08
4.69777e-08
4.68567e-08
4.67654e-08
4.66532e-08
4.6576e-08
4.64784e-08
4.64045e-08
4.63183e-08
4.62512e-08
4.61665e-08
4.61118e-08
4.60304e-08
4.59814e-08
4.59064e-08
4.58602e-08
4.57905e-08
4.57433e-08
4.56879e-08
4.5644e-08
4.55901e-08
4.55463e-08
4.54981e-08
4.54561e-08
4.54115e-08
4.53715e-08
4.53304e-08
4.52932e-08
4.52563e-08
4.5221e-08
4.51873e-08
4.51542e-08
4.5127e-08
4.50991e-08
4.50784e-08
4.50544e-08
4.50356e-08
4.50126e-08
4.49958e-08
4.49721e-08
4.49529e-08
4.49235e-08
4.49017e-08
4.53406e-08
3.41353e-06
3.34074e-08
1.24731e-07
1.23085e-07
1.18258e-07
1.11485e-07
1.04302e-07
9.76172e-08
9.16989e-08
8.66001e-08
8.22057e-08
7.84436e-08
7.51813e-08
7.23667e-08
6.98938e-08
6.77422e-08
6.58251e-08
6.41433e-08
6.26252e-08
6.12856e-08
6.00619e-08
5.89777e-08
5.79751e-08
5.7085e-08
5.62529e-08
5.55123e-08
5.48124e-08
5.41898e-08
5.35963e-08
5.30683e-08
5.25583e-08
5.21081e-08
5.16685e-08
5.12806e-08
5.08973e-08
5.05619e-08
5.0227e-08
4.99363e-08
4.96417e-08
4.93883e-08
4.91282e-08
4.8906e-08
4.86748e-08
4.84793e-08
4.82721e-08
4.81007e-08
4.79164e-08
4.77643e-08
4.7598e-08
4.74642e-08
4.73157e-08
4.71959e-08
4.70617e-08
4.69591e-08
4.68374e-08
4.67456e-08
4.66326e-08
4.65549e-08
4.64567e-08
4.63823e-08
4.62955e-08
4.62281e-08
4.61428e-08
4.60879e-08
4.60061e-08
4.59567e-08
4.58813e-08
4.5835e-08
4.57647e-08
4.57174e-08
4.56616e-08
4.56174e-08
4.55633e-08
4.55193e-08
4.54708e-08
4.54287e-08
4.53837e-08
4.53435e-08
4.53021e-08
4.52646e-08
4.52273e-08
4.51919e-08
4.51578e-08
4.51244e-08
4.50966e-08
4.50682e-08
4.50471e-08
4.50226e-08
4.50035e-08
4.49802e-08
4.49631e-08
4.49391e-08
4.49196e-08
4.48896e-08
4.4868e-08
4.53178e-08
3.42179e-06
3.4893e-08
1.24723e-07
1.23099e-07
1.18319e-07
1.11588e-07
1.04432e-07
9.77568e-08
9.1839e-08
8.67352e-08
8.23328e-08
7.85616e-08
7.52897e-08
7.24659e-08
6.9984e-08
6.78241e-08
6.58992e-08
6.42102e-08
6.26855e-08
6.13398e-08
6.01105e-08
5.90212e-08
5.80139e-08
5.71194e-08
5.62832e-08
5.55389e-08
5.48356e-08
5.42098e-08
5.36132e-08
5.30825e-08
5.25699e-08
5.21173e-08
5.16754e-08
5.12854e-08
5.09001e-08
5.05629e-08
5.02262e-08
4.99339e-08
4.96377e-08
4.93828e-08
4.91213e-08
4.88978e-08
4.86653e-08
4.84688e-08
4.82604e-08
4.8088e-08
4.79026e-08
4.77496e-08
4.75823e-08
4.74476e-08
4.72983e-08
4.71778e-08
4.70427e-08
4.69394e-08
4.68169e-08
4.67245e-08
4.66109e-08
4.65325e-08
4.64337e-08
4.63588e-08
4.62714e-08
4.62036e-08
4.61177e-08
4.60625e-08
4.59803e-08
4.59305e-08
4.58547e-08
4.58082e-08
4.57374e-08
4.569e-08
4.56337e-08
4.55892e-08
4.55348e-08
4.54906e-08
4.54418e-08
4.53995e-08
4.53542e-08
4.53137e-08
4.52719e-08
4.52342e-08
4.51965e-08
4.51609e-08
4.51264e-08
4.50928e-08
4.50644e-08
4.50354e-08
4.50138e-08
4.49889e-08
4.49694e-08
4.49458e-08
4.49283e-08
4.49039e-08
4.48843e-08
4.48536e-08
4.48322e-08
4.52935e-08
3.42892e-06
3.65527e-08
1.24715e-07
1.23114e-07
1.18383e-07
1.11698e-07
1.04569e-07
9.79053e-08
9.19883e-08
8.68792e-08
8.24685e-08
7.86876e-08
7.54057e-08
7.2572e-08
7.00806e-08
6.79119e-08
6.59788e-08
6.42821e-08
6.27504e-08
6.13982e-08
6.01629e-08
5.90681e-08
5.80557e-08
5.71566e-08
5.6316e-08
5.55678e-08
5.48607e-08
5.42315e-08
5.36317e-08
5.3098e-08
5.25827e-08
5.21275e-08
5.16831e-08
5.12909e-08
5.09035e-08
5.05643e-08
5.02257e-08
4.99317e-08
4.96337e-08
4.93773e-08
4.91142e-08
4.88895e-08
4.86555e-08
4.84578e-08
4.82481e-08
4.80747e-08
4.78881e-08
4.77342e-08
4.75658e-08
4.74303e-08
4.728e-08
4.71587e-08
4.70227e-08
4.69187e-08
4.67954e-08
4.67024e-08
4.6588e-08
4.65089e-08
4.64095e-08
4.63341e-08
4.62459e-08
4.61778e-08
4.60912e-08
4.60357e-08
4.5953e-08
4.59029e-08
4.58266e-08
4.57799e-08
4.57085e-08
4.5661e-08
4.56042e-08
4.55593e-08
4.55047e-08
4.54602e-08
4.54111e-08
4.53686e-08
4.53229e-08
4.52822e-08
4.524e-08
4.5202e-08
4.51639e-08
4.5128e-08
4.50932e-08
4.50594e-08
4.50302e-08
4.50007e-08
4.49786e-08
4.49531e-08
4.49332e-08
4.49093e-08
4.48915e-08
4.48667e-08
4.48468e-08
4.48153e-08
4.47942e-08
4.52676e-08
3.43437e-06
3.84005e-08
1.24707e-07
1.23129e-07
1.18451e-07
1.11813e-07
1.04713e-07
9.80625e-08
9.21468e-08
8.70324e-08
8.2613e-08
7.8822e-08
7.55294e-08
7.26853e-08
7.01839e-08
6.80058e-08
6.60639e-08
6.43592e-08
6.28199e-08
6.14609e-08
6.02192e-08
5.91185e-08
5.81007e-08
5.71966e-08
5.63514e-08
5.5599e-08
5.48879e-08
5.42551e-08
5.36518e-08
5.31151e-08
5.25967e-08
5.21388e-08
5.16918e-08
5.12973e-08
5.09075e-08
5.05663e-08
5.02256e-08
4.99297e-08
4.96299e-08
4.93719e-08
4.91071e-08
4.88809e-08
4.86455e-08
4.84465e-08
4.82355e-08
4.80609e-08
4.78731e-08
4.77182e-08
4.75487e-08
4.74122e-08
4.72609e-08
4.71388e-08
4.70018e-08
4.6897e-08
4.67728e-08
4.66792e-08
4.6564e-08
4.64841e-08
4.6384e-08
4.6308e-08
4.62191e-08
4.61506e-08
4.60634e-08
4.60074e-08
4.59243e-08
4.58738e-08
4.57969e-08
4.575e-08
4.56781e-08
4.56304e-08
4.5573e-08
4.55279e-08
4.54729e-08
4.54281e-08
4.53788e-08
4.5336e-08
4.52899e-08
4.5249e-08
4.52063e-08
4.51681e-08
4.51295e-08
4.50933e-08
4.50581e-08
4.5024e-08
4.49943e-08
4.49641e-08
4.49415e-08
4.49153e-08
4.48951e-08
4.48708e-08
4.48526e-08
4.48273e-08
4.48071e-08
4.47749e-08
4.4754e-08
4.52401e-08
3.43751e-06
4.04501e-08
1.24698e-07
1.23144e-07
1.18521e-07
1.11934e-07
1.04866e-07
9.82288e-08
9.23146e-08
8.71949e-08
8.27666e-08
7.89649e-08
7.56612e-08
7.28061e-08
7.02942e-08
6.81061e-08
6.61549e-08
6.44416e-08
6.28943e-08
6.1528e-08
6.02795e-08
5.91726e-08
5.8149e-08
5.72397e-08
5.63896e-08
5.56326e-08
5.49174e-08
5.42807e-08
5.36738e-08
5.31337e-08
5.26121e-08
5.21514e-08
5.17015e-08
5.13045e-08
5.09123e-08
5.05688e-08
5.02259e-08
4.99281e-08
4.96263e-08
4.93666e-08
4.91001e-08
4.88723e-08
4.86353e-08
4.8435e-08
4.82225e-08
4.80467e-08
4.78576e-08
4.77016e-08
4.75309e-08
4.73934e-08
4.7241e-08
4.7118e-08
4.69799e-08
4.68743e-08
4.67492e-08
4.66549e-08
4.65388e-08
4.64582e-08
4.63573e-08
4.62807e-08
4.6191e-08
4.61221e-08
4.60341e-08
4.59777e-08
4.58941e-08
4.58432e-08
4.57658e-08
4.57187e-08
4.56461e-08
4.55983e-08
4.55402e-08
4.54948e-08
4.54395e-08
4.53944e-08
4.53447e-08
4.53017e-08
4.52552e-08
4.5214e-08
4.51709e-08
4.51323e-08
4.50933e-08
4.50568e-08
4.50211e-08
4.49868e-08
4.49565e-08
4.49257e-08
4.49024e-08
4.48754e-08
4.48549e-08
4.48302e-08
4.48116e-08
4.47858e-08
4.47654e-08
4.47324e-08
4.47117e-08
4.52108e-08
3.43768e-06
4.27143e-08
1.24688e-07
1.2316e-07
1.18594e-07
1.12061e-07
1.05026e-07
9.8404e-08
9.2492e-08
8.73669e-08
8.29293e-08
7.91166e-08
7.58013e-08
7.29346e-08
7.04115e-08
6.82129e-08
6.62519e-08
6.45295e-08
6.29739e-08
6.15998e-08
6.03441e-08
5.92307e-08
5.8201e-08
5.72861e-08
5.64307e-08
5.5669e-08
5.49492e-08
5.43084e-08
5.36976e-08
5.3154e-08
5.26291e-08
5.21652e-08
5.17124e-08
5.13127e-08
5.09178e-08
5.05721e-08
5.02268e-08
4.99269e-08
4.96231e-08
4.93615e-08
4.90931e-08
4.88637e-08
4.8625e-08
4.84233e-08
4.82093e-08
4.80321e-08
4.78416e-08
4.76845e-08
4.75125e-08
4.73739e-08
4.72203e-08
4.70965e-08
4.69572e-08
4.68508e-08
4.67247e-08
4.66296e-08
4.65126e-08
4.64312e-08
4.63295e-08
4.62523e-08
4.61616e-08
4.60923e-08
4.60035e-08
4.59467e-08
4.58625e-08
4.58111e-08
4.57333e-08
4.56858e-08
4.56125e-08
4.55647e-08
4.55059e-08
4.54601e-08
4.54045e-08
4.5359e-08
4.5309e-08
4.52657e-08
4.52188e-08
4.51773e-08
4.51337e-08
4.50948e-08
4.50553e-08
4.50185e-08
4.49824e-08
4.49477e-08
4.49169e-08
4.48854e-08
4.48613e-08
4.48336e-08
4.48128e-08
4.47875e-08
4.47686e-08
4.47422e-08
4.47215e-08
4.46878e-08
4.46672e-08
4.51796e-08
3.4341e-06
4.52044e-08
1.24679e-07
1.23176e-07
1.1867e-07
1.12193e-07
1.05195e-07
9.85885e-08
9.26791e-08
8.75487e-08
8.31016e-08
7.92773e-08
7.59498e-08
7.3071e-08
7.05363e-08
6.83266e-08
6.63553e-08
6.46233e-08
6.30587e-08
6.16764e-08
6.04132e-08
5.92928e-08
5.82566e-08
5.73358e-08
5.64749e-08
5.57081e-08
5.49836e-08
5.43385e-08
5.37235e-08
5.31762e-08
5.26476e-08
5.21805e-08
5.17245e-08
5.1322e-08
5.09244e-08
5.05761e-08
5.02283e-08
4.99262e-08
4.96202e-08
4.93567e-08
4.90862e-08
4.88552e-08
4.86147e-08
4.84114e-08
4.81958e-08
4.80172e-08
4.78252e-08
4.76669e-08
4.74935e-08
4.73539e-08
4.7199e-08
4.70742e-08
4.69337e-08
4.68264e-08
4.66992e-08
4.66034e-08
4.64854e-08
4.64031e-08
4.63005e-08
4.62226e-08
4.6131e-08
4.60613e-08
4.59716e-08
4.59142e-08
4.58295e-08
4.57777e-08
4.56993e-08
4.56515e-08
4.55775e-08
4.55295e-08
4.547e-08
4.54238e-08
4.53679e-08
4.53221e-08
4.52717e-08
4.52281e-08
4.51808e-08
4.51389e-08
4.50948e-08
4.50556e-08
4.50155e-08
4.49784e-08
4.49417e-08
4.49068e-08
4.48754e-08
4.48433e-08
4.48184e-08
4.47899e-08
4.47687e-08
4.47429e-08
4.47235e-08
4.46965e-08
4.46755e-08
4.46411e-08
4.46206e-08
4.51466e-08
3.42597e-06
4.79297e-08
1.24669e-07
1.23193e-07
1.18749e-07
1.12331e-07
1.05371e-07
9.87821e-08
9.2876e-08
8.77404e-08
8.32836e-08
7.94474e-08
7.61072e-08
7.32157e-08
7.06686e-08
6.84474e-08
6.64651e-08
6.47231e-08
6.31491e-08
6.17582e-08
6.04869e-08
5.93592e-08
5.83162e-08
5.73891e-08
5.65223e-08
5.57502e-08
5.50206e-08
5.43709e-08
5.37516e-08
5.32003e-08
5.26679e-08
5.21974e-08
5.1738e-08
5.13325e-08
5.09319e-08
5.0581e-08
5.02306e-08
4.99262e-08
4.96178e-08
4.93522e-08
4.90796e-08
4.88468e-08
4.86043e-08
4.83995e-08
4.81821e-08
4.80021e-08
4.78085e-08
4.76489e-08
4.74741e-08
4.73332e-08