/*--------------------------------*- C++ -*----------------------------------*\
| =========                 |                                                 |
| \\      /  F ield         | OpenFOAM: The Open Source CFD Toolbox           |
|  \\    /   O peration     | Version:  v2012                                 |
|   \\  /    A nd           | Website:  www.openfoam.com                      |
|    \\/     M anipulation  |                                                 |
\*---------------------------------------------------------------------------*/
FoamFile
{
    version     2.0;
    format      ascii;
    class       volVectorField;
    location    "38.5";
    object      wallShearStress;
}
// * * * * * * * * * * * * * * * * * * * * * * * * * * * * * * * * * * * * * //

dimensions      [0 2 -2 0 0 0 0];


internalField   uniform (0 0 0);

boundaryField
{
    inlet
    {
        type            calculated;
        value           uniform (0 0 0);
    }
    outlet
    {
        type            calculated;
        value           uniform (0 0 0);
    }
    topWall
    {
        type            calculated;
        value           nonuniform List<vector> 
545
(
(6.60672e-08 -4.64997e-08 0)
(6.60576e-08 -1.30115e-07 0)
(6.60052e-08 -2.17042e-07 0)
(6.59376e-08 -3.01434e-07 0)
(6.58592e-08 -3.82216e-07 0)
(6.57672e-08 -4.60426e-07 0)
(6.56628e-08 -5.36729e-07 0)
(6.55464e-08 -6.11089e-07 0)
(6.54192e-08 -6.83342e-07 0)
(6.52821e-08 -7.53485e-07 0)
(6.51361e-08 -8.21612e-07 0)
(6.4982e-08 -8.87801e-07 0)
(6.48207e-08 -9.52096e-07 0)
(6.46529e-08 -1.01454e-06 0)
(6.44793e-08 -1.07517e-06 0)
(6.43007e-08 -1.13404e-06 0)
(6.41176e-08 -1.19119e-06 0)
(6.39306e-08 -1.24668e-06 0)
(6.37403e-08 -1.30055e-06 0)
(6.35473e-08 -1.35284e-06 0)
(6.33519e-08 -1.40359e-06 0)
(6.31547e-08 -1.45285e-06 0)
(6.2956e-08 -1.50066e-06 0)
(6.27563e-08 -1.54707e-06 0)
(6.25558e-08 -1.59211e-06 0)
(6.23551e-08 -1.63581e-06 0)
(6.21543e-08 -1.67823e-06 0)
(6.19537e-08 -1.7194e-06 0)
(6.17536e-08 -1.75935e-06 0)
(6.15543e-08 -1.79813e-06 0)
(6.13559e-08 -1.83576e-06 0)
(6.11587e-08 -1.87228e-06 0)
(6.09629e-08 -1.90772e-06 0)
(6.07686e-08 -1.94212e-06 0)
(6.0576e-08 -1.9755e-06 0)
(6.03852e-08 -2.0079e-06 0)
(6.01963e-08 -2.03935e-06 0)
(6.00096e-08 -2.06987e-06 0)
(5.98249e-08 -2.0995e-06 0)
(5.96426e-08 -2.12825e-06 0)
(5.94626e-08 -2.15616e-06 0)
(5.9285e-08 -2.18326e-06 0)
(5.91098e-08 -2.20956e-06 0)
(5.89372e-08 -2.2351e-06 0)
(5.87671e-08 -2.25988e-06 0)
(5.85996e-08 -2.28395e-06 0)
(5.84348e-08 -2.30731e-06 0)
(5.82726e-08 -2.33e-06 0)
(5.81131e-08 -2.35203e-06 0)
(5.79563e-08 -2.37341e-06 0)
(5.78021e-08 -2.39418e-06 0)
(5.76507e-08 -2.41435e-06 0)
(5.75019e-08 -2.43393e-06 0)
(5.73559e-08 -2.45295e-06 0)
(5.72125e-08 -2.47142e-06 0)
(5.70717e-08 -2.48936e-06 0)
(5.69336e-08 -2.50678e-06 0)
(5.67982e-08 -2.5237e-06 0)
(5.66653e-08 -2.54014e-06 0)
(5.6535e-08 -2.5561e-06 0)
(5.64073e-08 -2.57162e-06 0)
(5.6282e-08 -2.58668e-06 0)
(5.61593e-08 -2.60132e-06 0)
(5.60391e-08 -2.61554e-06 0)
(5.59212e-08 -2.62936e-06 0)
(5.58058e-08 -2.64278e-06 0)
(5.56927e-08 -2.65583e-06 0)
(5.5582e-08 -2.6685e-06 0)
(5.54735e-08 -2.68082e-06 0)
(5.53673e-08 -2.69278e-06 0)
(5.52635e-08 -2.70442e-06 0)
(5.51606e-08 -2.71571e-06 0)
(5.50613e-08 -2.72656e-06 0)
(5.49667e-08 -2.7371e-06 0)
(5.48728e-08 -2.74752e-06 0)
(5.47792e-08 -2.75788e-06 0)
(5.46858e-08 -2.76819e-06 0)
(5.45924e-08 -2.77845e-06 0)
(5.44991e-08 -2.78863e-06 0)
(5.44059e-08 -2.79875e-06 0)
(5.43129e-08 -2.8088e-06 0)
(5.42199e-08 -2.81879e-06 0)
(5.4127e-08 -2.82872e-06 0)
(5.40343e-08 -2.83859e-06 0)
(5.39416e-08 -2.8484e-06 0)
(5.38491e-08 -2.85814e-06 0)
(5.37567e-08 -2.86782e-06 0)
(5.36644e-08 -2.87744e-06 0)
(5.35723e-08 -2.88701e-06 0)
(5.34803e-08 -2.89651e-06 0)
(5.33884e-08 -2.90595e-06 0)
(5.32966e-08 -2.91533e-06 0)
(5.32051e-08 -2.92466e-06 0)
(5.31131e-08 -2.9339e-06 0)
(5.30242e-08 -2.94316e-06 0)
(5.29233e-08 -2.95221e-06 0)
(5.28241e-08 -2.96046e-06 0)
(5.27456e-08 -2.96803e-06 0)
(5.26707e-08 -2.97536e-06 0)
(5.25962e-08 -2.98268e-06 0)
(5.25217e-08 -2.99009e-06 0)
(5.24468e-08 -2.99753e-06 0)
(5.23716e-08 -3.00496e-06 0)
(5.22961e-08 -3.01239e-06 0)
(5.22202e-08 -3.01982e-06 0)
(5.21439e-08 -3.02726e-06 0)
(5.20673e-08 -3.03471e-06 0)
(5.19904e-08 -3.04217e-06 0)
(5.19131e-08 -3.04963e-06 0)
(5.18354e-08 -3.0571e-06 0)
(5.17574e-08 -3.06457e-06 0)
(5.1679e-08 -3.07205e-06 0)
(5.16003e-08 -3.07954e-06 0)
(5.15212e-08 -3.08704e-06 0)
(5.14418e-08 -3.09454e-06 0)
(5.1362e-08 -3.10204e-06 0)
(5.12818e-08 -3.10955e-06 0)
(5.12013e-08 -3.11707e-06 0)
(5.11204e-08 -3.1246e-06 0)
(5.10392e-08 -3.13213e-06 0)
(5.09576e-08 -3.13966e-06 0)
(5.08756e-08 -3.1472e-06 0)
(5.07933e-08 -3.15475e-06 0)
(5.07106e-08 -3.1623e-06 0)
(5.06275e-08 -3.16986e-06 0)
(5.05441e-08 -3.17742e-06 0)
(5.04603e-08 -3.18499e-06 0)
(5.03761e-08 -3.19256e-06 0)
(5.02915e-08 -3.20014e-06 0)
(5.02066e-08 -3.20773e-06 0)
(5.01213e-08 -3.21531e-06 0)
(5.00357e-08 -3.22291e-06 0)
(4.99496e-08 -3.23051e-06 0)
(4.98632e-08 -3.23811e-06 0)
(4.97764e-08 -3.24572e-06 0)
(4.96893e-08 -3.25333e-06 0)
(4.96017e-08 -3.26095e-06 0)
(4.95138e-08 -3.26857e-06 0)
(4.94255e-08 -3.2762e-06 0)
(4.93368e-08 -3.28383e-06 0)
(4.92477e-08 -3.29146e-06 0)
(4.91583e-08 -3.2991e-06 0)
(4.90685e-08 -3.30674e-06 0)
(4.89783e-08 -3.31439e-06 0)
(4.88877e-08 -3.32204e-06 0)
(4.87967e-08 -3.3297e-06 0)
(4.87053e-08 -3.33735e-06 0)
(4.86136e-08 -3.34502e-06 0)
(4.85215e-08 -3.35268e-06 0)
(4.84289e-08 -3.36035e-06 0)
(4.8336e-08 -3.36802e-06 0)
(4.82427e-08 -3.3757e-06 0)
(4.81491e-08 -3.38338e-06 0)
(4.8055e-08 -3.39106e-06 0)
(4.79605e-08 -3.39874e-06 0)
(4.78657e-08 -3.40643e-06 0)
(4.77704e-08 -3.41412e-06 0)
(4.76748e-08 -3.42182e-06 0)
(4.75787e-08 -3.42951e-06 0)
(4.74823e-08 -3.43721e-06 0)
(4.73855e-08 -3.44491e-06 0)
(4.72883e-08 -3.45262e-06 0)
(4.71907e-08 -3.46032e-06 0)
(4.70927e-08 -3.46803e-06 0)
(4.69943e-08 -3.47574e-06 0)
(4.68955e-08 -3.48345e-06 0)
(4.67963e-08 -3.49117e-06 0)
(4.66967e-08 -3.49888e-06 0)
(4.65967e-08 -3.5066e-06 0)
(4.64963e-08 -3.51432e-06 0)
(4.63955e-08 -3.52204e-06 0)
(4.62944e-08 -3.52976e-06 0)
(4.61928e-08 -3.53748e-06 0)
(4.60908e-08 -3.54521e-06 0)
(4.59884e-08 -3.55293e-06 0)
(4.58856e-08 -3.56066e-06 0)
(4.57825e-08 -3.56839e-06 0)
(4.56789e-08 -3.57611e-06 0)
(4.55749e-08 -3.58384e-06 0)
(4.54705e-08 -3.59157e-06 0)
(4.53657e-08 -3.5993e-06 0)
(4.52605e-08 -3.60703e-06 0)
(4.51549e-08 -3.61476e-06 0)
(4.5049e-08 -3.62249e-06 0)
(4.49426e-08 -3.63022e-06 0)
(4.48358e-08 -3.63795e-06 0)
(4.47286e-08 -3.64568e-06 0)
(4.4621e-08 -3.65341e-06 0)
(4.45129e-08 -3.66114e-06 0)
(4.44045e-08 -3.66887e-06 0)
(4.42957e-08 -3.6766e-06 0)
(4.41865e-08 -3.68432e-06 0)
(4.40769e-08 -3.69205e-06 0)
(4.39669e-08 -3.69977e-06 0)
(4.38564e-08 -3.7075e-06 0)
(4.37456e-08 -3.71522e-06 0)
(4.36344e-08 -3.72294e-06 0)
(4.35228e-08 -3.73066e-06 0)
(4.34107e-08 -3.73838e-06 0)
(4.32983e-08 -3.74609e-06 0)
(4.31854e-08 -3.75381e-06 0)
(4.30722e-08 -3.76152e-06 0)
(4.29585e-08 -3.76923e-06 0)
(4.28445e-08 -3.77694e-06 0)
(4.273e-08 -3.78464e-06 0)
(4.26152e-08 -3.79235e-06 0)
(4.24999e-08 -3.80005e-06 0)
(4.23843e-08 -3.80774e-06 0)
(4.22682e-08 -3.81544e-06 0)
(4.21517e-08 -3.82313e-06 0)
(4.20349e-08 -3.83082e-06 0)
(4.19176e-08 -3.8385e-06 0)
(4.18e-08 -3.84618e-06 0)
(4.16819e-08 -3.85386e-06 0)
(4.15634e-08 -3.86153e-06 0)
(4.14446e-08 -3.8692e-06 0)
(4.13253e-08 -3.87687e-06 0)
(4.12057e-08 -3.88453e-06 0)
(4.10856e-08 -3.89219e-06 0)
(4.09652e-08 -3.89984e-06 0)
(4.08443e-08 -3.90749e-06 0)
(4.07231e-08 -3.91514e-06 0)
(4.06015e-08 -3.92278e-06 0)
(4.04795e-08 -3.93041e-06 0)
(4.0357e-08 -3.93804e-06 0)
(4.02342e-08 -3.94566e-06 0)
(4.0111e-08 -3.95328e-06 0)
(3.99874e-08 -3.9609e-06 0)
(3.98635e-08 -3.9685e-06 0)
(3.97391e-08 -3.97611e-06 0)
(3.96143e-08 -3.9837e-06 0)
(3.94892e-08 -3.99129e-06 0)
(3.93636e-08 -3.99888e-06 0)
(3.92377e-08 -4.00645e-06 0)
(3.91114e-08 -4.01402e-06 0)
(3.89847e-08 -4.02159e-06 0)
(3.88577e-08 -4.02914e-06 0)
(3.87302e-08 -4.0367e-06 0)
(3.86024e-08 -4.04424e-06 0)
(3.84742e-08 -4.05177e-06 0)
(3.83456e-08 -4.0593e-06 0)
(3.82166e-08 -4.06682e-06 0)
(3.80873e-08 -4.07434e-06 0)
(3.79576e-08 -4.08184e-06 0)
(3.78275e-08 -4.08934e-06 0)
(3.7697e-08 -4.09683e-06 0)
(3.75662e-08 -4.10431e-06 0)
(3.7435e-08 -4.11178e-06 0)
(3.73034e-08 -4.11925e-06 0)
(3.71715e-08 -4.1267e-06 0)
(3.70392e-08 -4.13415e-06 0)
(3.69065e-08 -4.14158e-06 0)
(3.67735e-08 -4.14901e-06 0)
(3.66401e-08 -4.15643e-06 0)
(3.65063e-08 -4.16384e-06 0)
(3.63722e-08 -4.17124e-06 0)
(3.62377e-08 -4.17863e-06 0)
(3.61029e-08 -4.18601e-06 0)
(3.59677e-08 -4.19337e-06 0)
(3.58322e-08 -4.20073e-06 0)
(3.56963e-08 -4.20808e-06 0)
(3.55601e-08 -4.21542e-06 0)
(3.54236e-08 -4.22274e-06 0)
(3.52867e-08 -4.23006e-06 0)
(3.51494e-08 -4.23736e-06 0)
(3.50119e-08 -4.24466e-06 0)
(3.48737e-08 -4.25192e-06 0)
(3.47374e-08 -4.25924e-06 0)
(3.45948e-08 -4.26642e-06 0)
(3.44506e-08 -4.27324e-06 0)
(3.43205e-08 -4.27983e-06 0)
(3.41963e-08 -4.2863e-06 0)
(3.40707e-08 -4.29278e-06 0)
(3.39442e-08 -4.29938e-06 0)
(3.38162e-08 -4.30603e-06 0)
(3.36868e-08 -4.31272e-06 0)
(3.35559e-08 -4.31945e-06 0)
(3.34236e-08 -4.32623e-06 0)
(3.32899e-08 -4.33305e-06 0)
(3.31547e-08 -4.33992e-06 0)
(3.3018e-08 -4.34684e-06 0)
(3.28798e-08 -4.35381e-06 0)
(3.274e-08 -4.36082e-06 0)
(3.25988e-08 -4.36787e-06 0)
(3.2456e-08 -4.37497e-06 0)
(3.23117e-08 -4.38212e-06 0)
(3.21659e-08 -4.38931e-06 0)
(3.20184e-08 -4.39655e-06 0)
(3.18694e-08 -4.40383e-06 0)
(3.17188e-08 -4.41116e-06 0)
(3.15666e-08 -4.41853e-06 0)
(3.14128e-08 -4.42594e-06 0)
(3.12574e-08 -4.4334e-06 0)
(3.11003e-08 -4.4409e-06 0)
(3.09415e-08 -4.44845e-06 0)
(3.07812e-08 -4.45604e-06 0)
(3.06191e-08 -4.46367e-06 0)
(3.04553e-08 -4.47134e-06 0)
(3.02899e-08 -4.47905e-06 0)
(3.01228e-08 -4.48681e-06 0)
(2.99539e-08 -4.4946e-06 0)
(2.97833e-08 -4.50244e-06 0)
(2.9611e-08 -4.51031e-06 0)
(2.94369e-08 -4.51823e-06 0)
(2.92611e-08 -4.52618e-06 0)
(2.90835e-08 -4.53417e-06 0)
(2.89041e-08 -4.5422e-06 0)
(2.87229e-08 -4.55026e-06 0)
(2.854e-08 -4.55836e-06 0)
(2.83552e-08 -4.5665e-06 0)
(2.81686e-08 -4.57467e-06 0)
(2.79803e-08 -4.58288e-06 0)
(2.779e-08 -4.59111e-06 0)
(2.7598e-08 -4.59939e-06 0)
(2.74041e-08 -4.60769e-06 0)
(2.72084e-08 -4.61602e-06 0)
(2.70108e-08 -4.62438e-06 0)
(2.68113e-08 -4.63277e-06 0)
(2.661e-08 -4.64119e-06 0)
(2.64068e-08 -4.64964e-06 0)
(2.62018e-08 -4.65811e-06 0)
(2.59948e-08 -4.66661e-06 0)
(2.5786e-08 -4.67513e-06 0)
(2.55753e-08 -4.68367e-06 0)
(2.53627e-08 -4.69224e-06 0)
(2.51482e-08 -4.70083e-06 0)
(2.49319e-08 -4.70943e-06 0)
(2.47136e-08 -4.71805e-06 0)
(2.44935e-08 -4.72669e-06 0)
(2.42714e-08 -4.73535e-06 0)
(2.40475e-08 -4.74401e-06 0)
(2.38217e-08 -4.7527e-06 0)
(2.3594e-08 -4.76139e-06 0)
(2.33644e-08 -4.77009e-06 0)
(2.3133e-08 -4.7788e-06 0)
(2.28997e-08 -4.78752e-06 0)
(2.26645e-08 -4.79624e-06 0)
(2.24275e-08 -4.80496e-06 0)
(2.21886e-08 -4.81369e-06 0)
(2.19479e-08 -4.82242e-06 0)
(2.17053e-08 -4.83114e-06 0)
(2.14609e-08 -4.83986e-06 0)
(2.12147e-08 -4.84857e-06 0)
(2.09668e-08 -4.85728e-06 0)
(2.0717e-08 -4.86598e-06 0)
(2.04655e-08 -4.87467e-06 0)
(2.02122e-08 -4.88334e-06 0)
(1.99572e-08 -4.892e-06 0)
(1.97005e-08 -4.90064e-06 0)
(1.94421e-08 -4.90926e-06 0)
(1.9182e-08 -4.91786e-06 0)
(1.89202e-08 -4.92643e-06 0)
(1.86569e-08 -4.93498e-06 0)
(1.83919e-08 -4.9435e-06 0)
(1.81253e-08 -4.95198e-06 0)
(1.78572e-08 -4.96044e-06 0)
(1.75875e-08 -4.96886e-06 0)
(1.73164e-08 -4.97724e-06 0)
(1.70438e-08 -4.98557e-06 0)
(1.67698e-08 -4.99387e-06 0)
(1.64943e-08 -5.00212e-06 0)
(1.62175e-08 -5.01032e-06 0)
(1.59394e-08 -5.01846e-06 0)
(1.566e-08 -5.02656e-06 0)
(1.53793e-08 -5.03459e-06 0)
(1.50975e-08 -5.04257e-06 0)
(1.48144e-08 -5.05048e-06 0)
(1.45303e-08 -5.05833e-06 0)
(1.42451e-08 -5.0661e-06 0)
(1.39588e-08 -5.07381e-06 0)
(1.36716e-08 -5.08144e-06 0)
(1.33835e-08 -5.08899e-06 0)
(1.30944e-08 -5.09646e-06 0)
(1.28046e-08 -5.10385e-06 0)
(1.2514e-08 -5.11114e-06 0)
(1.22227e-08 -5.11836e-06 0)
(1.19308e-08 -5.12547e-06 0)
(1.16383e-08 -5.13249e-06 0)
(1.13452e-08 -5.1394e-06 0)
(1.10518e-08 -5.14622e-06 0)
(1.07579e-08 -5.15292e-06 0)
(1.04637e-08 -5.15952e-06 0)
(1.01692e-08 -5.166e-06 0)
(9.87463e-09 -5.17237e-06 0)
(9.57989e-09 -5.1786e-06 0)
(9.28513e-09 -5.18473e-06 0)
(8.9904e-09 -5.19072e-06 0)
(8.6958e-09 -5.19658e-06 0)
(8.40139e-09 -5.20231e-06 0)
(8.10727e-09 -5.2079e-06 0)
(7.8135e-09 -5.21334e-06 0)
(7.52018e-09 -5.21865e-06 0)
(7.22738e-09 -5.2238e-06 0)
(6.9352e-09 -5.22881e-06 0)
(6.64371e-09 -5.23365e-06 0)
(6.35302e-09 -5.23835e-06 0)
(6.0632e-09 -5.24287e-06 0)
(5.77436e-09 -5.24724e-06 0)
(5.48656e-09 -5.25143e-06 0)
(5.19993e-09 -5.25546e-06 0)
(4.91453e-09 -5.2593e-06 0)
(4.63049e-09 -5.26298e-06 0)
(4.34787e-09 -5.26646e-06 0)
(4.06679e-09 -5.26977e-06 0)
(3.78733e-09 -5.27287e-06 0)
(3.50961e-09 -5.27581e-06 0)
(3.2337e-09 -5.27853e-06 0)
(2.95972e-09 -5.28107e-06 0)
(2.68776e-09 -5.28339e-06 0)
(2.41793e-09 -5.28552e-06 0)
(2.15032e-09 -5.28744e-06 0)
(1.88504e-09 -5.28916e-06 0)
(1.62218e-09 -5.29065e-06 0)
(1.36185e-09 -5.29195e-06 0)
(1.10414e-09 -5.29301e-06 0)
(8.49156e-10 -5.29387e-06 0)
(5.97e-10 -5.29449e-06 0)
(3.47773e-10 -5.29491e-06 0)
(1.0157e-10 -5.29508e-06 0)
(-1.41509e-10 -5.29504e-06 0)
(-3.81366e-10 -5.29476e-06 0)
(-6.17908e-10 -5.29426e-06 0)
(-8.51035e-10 -5.29351e-06 0)
(-1.08066e-09 -5.29254e-06 0)
(-1.30669e-09 -5.29131e-06 0)
(-1.52903e-09 -5.28987e-06 0)
(-1.7476e-09 -5.28817e-06 0)
(-1.96232e-09 -5.28625e-06 0)
(-2.17309e-09 -5.28407e-06 0)
(-2.37985e-09 -5.28166e-06 0)
(-2.5825e-09 -5.27899e-06 0)
(-2.78099e-09 -5.2761e-06 0)
(-2.97522e-09 -5.27295e-06 0)
(-3.16515e-09 -5.26957e-06 0)
(-3.35069e-09 -5.26593e-06 0)
(-3.53179e-09 -5.26206e-06 0)
(-3.70836e-09 -5.25793e-06 0)
(-3.88039e-09 -5.25358e-06 0)
(-4.04776e-09 -5.24896e-06 0)
(-4.21048e-09 -5.24412e-06 0)
(-4.36844e-09 -5.23901e-06 0)
(-4.52164e-09 -5.23369e-06 0)
(-4.66997e-09 -5.22811e-06 0)
(-4.81344e-09 -5.22231e-06 0)
(-4.95195e-09 -5.21625e-06 0)
(-5.08549e-09 -5.20998e-06 0)
(-5.21397e-09 -5.20345e-06 0)
(-5.33742e-09 -5.19674e-06 0)
(-5.45586e-09 -5.18969e-06 0)
(-5.57032e-09 -5.1825e-06 0)
(-5.68545e-09 -5.17433e-06 0)
(-5.80359e-09 -5.165e-06 0)
(-5.9181e-09 -5.15542e-06 0)
(-6.0243e-09 -5.14576e-06 0)
(-6.12234e-09 -5.13589e-06 0)
(-6.21242e-09 -5.1259e-06 0)
(-6.29465e-09 -5.11572e-06 0)
(-6.36935e-09 -5.10547e-06 0)
(-6.43666e-09 -5.09506e-06 0)
(-6.49694e-09 -5.08459e-06 0)
(-6.55034e-09 -5.07398e-06 0)
(-6.5972e-09 -5.06334e-06 0)
(-6.63766e-09 -5.05258e-06 0)
(-6.67205e-09 -5.04181e-06 0)
(-6.70048e-09 -5.03094e-06 0)
(-6.72329e-09 -5.02008e-06 0)
(-6.74056e-09 -5.00914e-06 0)
(-6.75261e-09 -4.99822e-06 0)
(-6.75952e-09 -4.98724e-06 0)
(-6.76158e-09 -4.9763e-06 0)
(-6.75887e-09 -4.96531e-06 0)
(-6.75167e-09 -4.95438e-06 0)
(-6.74003e-09 -4.94342e-06 0)
(-6.72422e-09 -4.93253e-06 0)
(-6.70427e-09 -4.92162e-06 0)
(-6.68044e-09 -4.91079e-06 0)
(-6.65277e-09 -4.89996e-06 0)
(-6.62148e-09 -4.88922e-06 0)
(-6.58661e-09 -4.87849e-06 0)
(-6.54837e-09 -4.86787e-06 0)
(-6.50678e-09 -4.85726e-06 0)
(-6.46206e-09 -4.84677e-06 0)
(-6.4142e-09 -4.83631e-06 0)
(-6.36342e-09 -4.82598e-06 0)
(-6.3097e-09 -4.81568e-06 0)
(-6.25325e-09 -4.80552e-06 0)
(-6.19405e-09 -4.79541e-06 0)
(-6.13229e-09 -4.78544e-06 0)
(-6.06795e-09 -4.77553e-06 0)
(-6.00121e-09 -4.76577e-06 0)
(-5.93205e-09 -4.75608e-06 0)
(-5.86064e-09 -4.74654e-06 0)
(-5.78694e-09 -4.73708e-06 0)
(-5.71113e-09 -4.72778e-06 0)
(-5.63318e-09 -4.71857e-06 0)
(-5.55323e-09 -4.70952e-06 0)
(-5.47125e-09 -4.70057e-06 0)
(-5.38739e-09 -4.69178e-06 0)
(-5.30162e-09 -4.6831e-06 0)
(-5.21407e-09 -4.6746e-06 0)
(-5.12471e-09 -4.6662e-06 0)
(-5.03366e-09 -4.65798e-06 0)
(-4.9409e-09 -4.64988e-06 0)
(-4.84655e-09 -4.64196e-06 0)
(-4.75056e-09 -4.63417e-06 0)
(-4.65307e-09 -4.62656e-06 0)
(-4.55403e-09 -4.61908e-06 0)
(-4.45356e-09 -4.6118e-06 0)
(-4.35162e-09 -4.60464e-06 0)
(-4.24832e-09 -4.59769e-06 0)
(-4.14363e-09 -4.59087e-06 0)
(-4.03765e-09 -4.58425e-06 0)
(-3.93036e-09 -4.57777e-06 0)
(-3.82184e-09 -4.5715e-06 0)
(-3.71208e-09 -4.56538e-06 0)
(-3.60117e-09 -4.55946e-06 0)
(-3.48909e-09 -4.5537e-06 0)
(-3.37593e-09 -4.54814e-06 0)
(-3.26166e-09 -4.54275e-06 0)
(-3.14638e-09 -4.53756e-06 0)
(-3.03007e-09 -4.53254e-06 0)
(-2.9128e-09 -4.52773e-06 0)
(-2.79458e-09 -4.52309e-06 0)
(-2.67547e-09 -4.51866e-06 0)
(-2.55547e-09 -4.5144e-06 0)
(-2.43465e-09 -4.51036e-06 0)
(-2.31301e-09 -4.5065e-06 0)
(-2.1906e-09 -4.50285e-06 0)
(-2.06745e-09 -4.49939e-06 0)
(-1.94359e-09 -4.49613e-06 0)
(-1.81905e-09 -4.49307e-06 0)
(-1.69387e-09 -4.49022e-06 0)
(-1.56808e-09 -4.48756e-06 0)
(-1.44174e-09 -4.48512e-06 0)
(-1.31488e-09 -4.48287e-06 0)
(-1.18758e-09 -4.48086e-06 0)
(-1.05992e-09 -4.47893e-06 0)
(-9.32063e-10 -4.47762e-06 0)
(-8.04061e-10 -4.47516e-06 0)
(-6.76365e-10 -4.47735e-06 0)
(-5.48162e-10 -4.46472e-06 0)
(-4.22323e-10 -4.50026e-06 0)
(-2.88829e-10 -4.36497e-06 0)
(-1.79052e-10 -4.72309e-06 0)
(-7.07383e-11 -4.12497e-06 0)
)
;
    }
    bottomWall
    {
        type            calculated;
        value           nonuniform List<vector> 
449
(
(-52.7385 -0.95599 0)
(-34.7633 -0.00279989 0)
(-34.3719 -0.000255352 0)
(-33.0061 -0.000364286 0)
(-31.8779 -0.000315868 0)
(-30.8397 -0.000284686 0)
(-29.9213 -0.000249627 0)
(-29.1205 -0.000217656 0)
(-28.4189 -0.000191049 0)
(-27.7988 -0.000169251 0)
(-27.2455 -0.000151204 0)
(-26.7481 -0.00013607 0)
(-26.2978 -0.000123392 0)
(-25.8868 -0.000112692 0)
(-25.5093 -0.000103465 0)
(-25.1612 -9.54515e-05 0)
(-24.8385 -8.84474e-05 0)
(-24.5381 -8.22923e-05 0)
(-24.2574 -7.68681e-05 0)
(-23.9941 -7.20324e-05 0)
(-23.7465 -6.76986e-05 0)
(-23.5128 -6.38062e-05 0)
(-23.2918 -6.02988e-05 0)
(-23.0821 -5.71178e-05 0)
(-22.8828 -5.42257e-05 0)
(-22.693 -5.1572e-05 0)
(-22.5119 -4.91388e-05 0)
(-22.3387 -4.69038e-05 0)
(-22.1729 -4.48399e-05 0)
(-22.0139 -4.29222e-05 0)
(-21.8613 -4.11447e-05 0)
(-21.7145 -3.94905e-05 0)
(-21.5732 -3.79492e-05 0)
(-21.4371 -3.65069e-05 0)
(-21.3057 -3.51566e-05 0)
(-21.1789 -3.38932e-05 0)
(-21.0562 -3.27076e-05 0)
(-20.9375 -3.15927e-05 0)
(-20.8225 -3.05482e-05 0)
(-20.711 -2.95598e-05 0)
(-20.6028 -2.86256e-05 0)
(-20.4978 -2.77433e-05 0)
(-20.3957 -2.69085e-05 0)
(-20.2964 -2.61128e-05 0)
(-20.1998 -2.53507e-05 0)
(-20.1058 -2.4626e-05 0)
(-20.0142 -2.39381e-05 0)
(-19.925 -2.32767e-05 0)
(-19.838 -2.26468e-05 0)
(-19.7531 -2.20458e-05 0)
(-19.6702 -2.14685e-05 0)
(-19.5894 -2.09179e-05 0)
(-19.5104 -2.03908e-05 0)
(-19.4331 -1.98856e-05 0)
(-19.3576 -1.94022e-05 0)
(-19.2838 -1.89398e-05 0)
(-19.2115 -1.84968e-05 0)
(-19.1408 -1.80725e-05 0)
(-19.0714 -1.76652e-05 0)
(-19.0035 -1.72741e-05 0)
(-18.9369 -1.68986e-05 0)
(-18.8716 -1.65378e-05 0)
(-18.8075 -1.61904e-05 0)
(-18.7446 -1.58564e-05 0)
(-18.6828 -1.55342e-05 0)
(-18.6222 -1.5224e-05 0)
(-18.5626 -1.4924e-05 0)
(-18.504 -1.46346e-05 0)
(-18.4465 -1.43544e-05 0)
(-18.3899 -1.40834e-05 0)
(-18.3342 -1.38211e-05 0)
(-18.2794 -1.35667e-05 0)
(-18.2255 -1.33203e-05 0)
(-18.1724 -1.30814e-05 0)
(-18.1202 -1.28496e-05 0)
(-18.0688 -1.26247e-05 0)
(-18.0181 -1.24061e-05 0)
(-17.9682 -1.21938e-05 0)
(-17.919 -1.19873e-05 0)
(-17.8706 -1.17867e-05 0)
(-17.8228 -1.15914e-05 0)
(-17.7758 -1.14018e-05 0)
(-17.7293 -1.12166e-05 0)
(-17.6835 -1.10369e-05 0)
(-17.6384 -1.08613e-05 0)
(-17.5938 -1.06902e-05 0)
(-17.5499 -1.05239e-05 0)
(-17.5065 -1.03613e-05 0)
(-17.4637 -1.02034e-05 0)
(-17.4214 -1.0049e-05 0)
(-17.3797 -9.89809e-06 0)
(-17.3385 -9.75136e-06 0)
(-17.2978 -9.60763e-06 0)
(-17.2577 -9.46756e-06 0)
(-17.218 -9.33125e-06 0)
(-17.1788 -9.19734e-06 0)
(-17.14 -9.06719e-06 0)
(-17.1017 -8.93983e-06 0)
(-17.0639 -8.81504e-06 0)
(-17.0265 -8.69313e-06 0)
(-16.9895 -8.57423e-06 0)
(-16.9529 -8.45725e-06 0)
(-16.9168 -8.34372e-06 0)
(-16.881 -8.23198e-06 0)
(-16.8457 -8.12299e-06 0)
(-16.8107 -8.016e-06 0)
(-16.7761 -7.91183e-06 0)
(-16.7419 -7.80907e-06 0)
(-16.708 -7.70896e-06 0)
(-16.6745 -7.61067e-06 0)
(-16.6414 -7.51431e-06 0)
(-16.6086 -7.41972e-06 0)
(-16.5761 -7.32746e-06 0)
(-16.5439 -7.23675e-06 0)
(-16.5121 -7.14793e-06 0)
(-16.4806 -7.06091e-06 0)
(-16.4494 -6.97572e-06 0)
(-16.4185 -6.89185e-06 0)
(-16.3879 -6.80953e-06 0)
(-16.3575 -6.72874e-06 0)
(-16.3275 -6.64948e-06 0)
(-16.2978 -6.5716e-06 0)
(-16.2683 -6.49526e-06 0)
(-16.2391 -6.42026e-06 0)
(-16.2102 -6.34649e-06 0)
(-16.1815 -6.27422e-06 0)
(-16.1531 -6.20333e-06 0)
(-16.125 -6.13368e-06 0)
(-16.0971 -6.06509e-06 0)
(-16.0694 -5.99806e-06 0)
(-16.042 -5.93168e-06 0)
(-16.0148 -5.86676e-06 0)
(-15.9879 -5.8024e-06 0)
(-15.9612 -5.73964e-06 0)
(-15.9347 -5.6775e-06 0)
(-15.9084 -5.61687e-06 0)
(-15.8824 -5.55688e-06 0)
(-15.8566 -5.49831e-06 0)
(-15.8309 -5.44034e-06 0)
(-15.8055 -5.3837e-06 0)
(-15.7803 -5.32748e-06 0)
(-15.7553 -5.27269e-06 0)
(-15.7305 -5.21811e-06 0)
(-15.7059 -5.16499e-06 0)
(-15.6815 -5.11203e-06 0)
(-15.6573 -5.0605e-06 0)
(-15.6333 -5.00906e-06 0)
(-15.6095 -4.95896e-06 0)
(-15.5858 -4.90914e-06 0)
(-15.5623 -4.8606e-06 0)
(-15.539 -4.81251e-06 0)
(-15.5159 -4.76526e-06 0)
(-15.4929 -4.71883e-06 0)
(-15.4702 -4.67294e-06 0)
(-15.4475 -4.62787e-06 0)
(-15.4251 -4.58322e-06 0)
(-15.4028 -4.5397e-06 0)
(-15.3807 -4.49624e-06 0)
(-15.3587 -4.45376e-06 0)
(-15.3369 -4.41158e-06 0)
(-15.3152 -4.37041e-06 0)
(-15.2938 -4.32924e-06 0)
(-15.2724 -4.28921e-06 0)
(-15.2512 -4.24908e-06 0)
(-15.2301 -4.21015e-06 0)
(-15.2092 -4.17128e-06 0)
(-15.1884 -4.13367e-06 0)
(-15.1678 -4.09575e-06 0)
(-15.1473 -4.0592e-06 0)
(-15.127 -4.02223e-06 0)
(-15.1068 -3.98661e-06 0)
(-15.0867 -3.95042e-06 0)
(-15.0667 -3.91536e-06 0)
(-15.048 -3.88701e-06 0)
(-15.0304 -3.85988e-06 0)
(-15.0127 -3.82699e-06 0)
(-14.995 -3.79533e-06 0)
(-14.9772 -3.76391e-06 0)
(-14.9594 -3.73286e-06 0)
(-14.9416 -3.70202e-06 0)
(-14.9237 -3.67163e-06 0)
(-14.9058 -3.64091e-06 0)
(-14.8878 -3.61082e-06 0)
(-14.8698 -3.58055e-06 0)
(-14.8517 -3.55075e-06 0)
(-14.8336 -3.52074e-06 0)
(-14.8154 -3.49114e-06 0)
(-14.7972 -3.4616e-06 0)
(-14.779 -3.43234e-06 0)
(-14.7607 -3.40313e-06 0)
(-14.7424 -3.37365e-06 0)
(-14.724 -3.34471e-06 0)
(-14.7057 -3.31577e-06 0)
(-14.6872 -3.28718e-06 0)
(-14.6688 -3.25852e-06 0)
(-14.6502 -3.23023e-06 0)
(-14.6317 -3.2019e-06 0)
(-14.6131 -3.17385e-06 0)
(-14.5945 -3.14578e-06 0)
(-14.5758 -3.11784e-06 0)
(-14.5571 -3.08993e-06 0)
(-14.5384 -3.06231e-06 0)
(-14.5196 -3.03482e-06 0)
(-14.5008 -3.00757e-06 0)
(-14.482 -2.98023e-06 0)
(-14.4631 -2.95331e-06 0)
(-14.4442 -2.92611e-06 0)
(-14.4253 -2.89962e-06 0)
(-14.4064 -2.87283e-06 0)
(-14.3874 -2.84672e-06 0)
(-14.3684 -2.82009e-06 0)
(-14.3493 -2.79422e-06 0)
(-14.3303 -2.76797e-06 0)
(-14.3112 -2.74238e-06 0)
(-14.292 -2.71617e-06 0)
(-14.2729 -2.69066e-06 0)
(-14.2537 -2.66489e-06 0)
(-14.2345 -2.63973e-06 0)
(-14.2153 -2.61447e-06 0)
(-14.1961 -2.58933e-06 0)
(-14.1768 -2.56447e-06 0)
(-14.1575 -2.53965e-06 0)
(-14.1382 -2.5151e-06 0)
(-14.1189 -2.49073e-06 0)
(-14.0995 -2.46637e-06 0)
(-14.0802 -2.44246e-06 0)
(-14.0608 -2.41851e-06 0)
(-14.0414 -2.39443e-06 0)
(-14.0219 -2.37101e-06 0)
(-14.0025 -2.34718e-06 0)
(-13.9831 -2.32404e-06 0)
(-13.9636 -2.30058e-06 0)
(-13.9441 -2.27762e-06 0)
(-13.9246 -2.25456e-06 0)
(-13.9051 -2.232e-06 0)
(-13.8856 -2.2093e-06 0)
(-13.866 -2.18702e-06 0)
(-13.8465 -2.16466e-06 0)
(-13.8269 -2.14292e-06 0)
(-13.8074 -2.12075e-06 0)
(-13.7878 -2.09908e-06 0)
(-13.7682 -2.07719e-06 0)
(-13.7486 -2.05588e-06 0)
(-13.729 -2.03418e-06 0)
(-13.7094 -2.01329e-06 0)
(-13.6898 -1.99209e-06 0)
(-13.6702 -1.9714e-06 0)
(-13.6505 -1.95059e-06 0)
(-13.6309 -1.9303e-06 0)
(-13.6112 -1.90971e-06 0)
(-13.5916 -1.88969e-06 0)
(-13.572 -1.86932e-06 0)
(-13.5524 -1.84956e-06 0)
(-13.5327 -1.82965e-06 0)
(-13.5131 -1.81015e-06 0)
(-13.4934 -1.7906e-06 0)
(-13.4738 -1.77123e-06 0)
(-13.4541 -1.75213e-06 0)
(-13.4345 -1.73301e-06 0)
(-13.4148 -1.71432e-06 0)
(-13.3952 -1.69554e-06 0)
(-13.3755 -1.67707e-06 0)
(-13.356 -1.65852e-06 0)
(-13.3363 -1.64051e-06 0)
(-13.3167 -1.62242e-06 0)
(-13.2971 -1.60464e-06 0)
(-13.2775 -1.58685e-06 0)
(-13.2578 -1.56946e-06 0)
(-13.2383 -1.55182e-06 0)
(-13.2186 -1.53455e-06 0)
(-13.1991 -1.5173e-06 0)
(-13.1795 -1.5006e-06 0)
(-13.16 -1.48364e-06 0)
(-13.1404 -1.46699e-06 0)
(-13.1209 -1.45007e-06 0)
(-13.1013 -1.43406e-06 0)
(-13.0818 -1.41751e-06 0)
(-13.0623 -1.40168e-06 0)
(-13.0428 -1.38558e-06 0)
(-13.0233 -1.37002e-06 0)
(-13.0038 -1.35412e-06 0)
(-12.9844 -1.33866e-06 0)
(-12.9649 -1.32322e-06 0)
(-12.9455 -1.30815e-06 0)
(-12.9261 -1.29291e-06 0)
(-12.9067 -1.27808e-06 0)
(-12.8873 -1.26316e-06 0)
(-12.8679 -1.24879e-06 0)
(-12.8486 -1.23412e-06 0)
(-12.8293 -1.21993e-06 0)
(-12.8099 -1.20545e-06 0)
(-12.7907 -1.19131e-06 0)
(-12.7713 -1.17729e-06 0)
(-12.7521 -1.16358e-06 0)
(-12.7329 -1.14965e-06 0)
(-12.7137 -1.13628e-06 0)
(-12.6944 -1.12266e-06 0)
(-12.6753 -1.10937e-06 0)
(-12.6561 -1.09616e-06 0)
(-12.637 -1.08295e-06 0)
(-12.6179 -1.07001e-06 0)
(-12.5988 -1.05716e-06 0)
(-12.5798 -1.04428e-06 0)
(-12.5608 -1.03168e-06 0)
(-12.5417 -1.01927e-06 0)
(-12.5228 -1.00719e-06 0)
(-12.5038 -9.95029e-07 0)
(-12.4849 -9.82791e-07 0)
(-12.466 -9.70883e-07 0)
(-12.4471 -9.58981e-07 0)
(-12.4283 -9.47393e-07 0)
(-12.4095 -9.35762e-07 0)
(-12.3906 -9.24275e-07 0)
(-12.3719 -9.12859e-07 0)
(-12.3532 -9.01879e-07 0)
(-12.3345 -8.90743e-07 0)
(-12.3158 -8.79885e-07 0)
(-12.2972 -8.69008e-07 0)
(-12.2785 -8.58393e-07 0)
(-12.26 -8.47756e-07 0)
(-12.2414 -8.37305e-07 0)
(-12.2229 -8.2678e-07 0)
(-12.2044 -8.16555e-07 0)
(-12.1859 -8.06336e-07 0)
(-12.1675 -7.96366e-07 0)
(-12.1491 -7.86259e-07 0)
(-12.1307 -7.76429e-07 0)
(-12.1124 -7.66601e-07 0)
(-12.0941 -7.57137e-07 0)
(-12.0758 -7.47447e-07 0)
(-12.0576 -7.38047e-07 0)
(-12.0394 -7.2874e-07 0)
(-12.0212 -7.19705e-07 0)
(-12.0031 -7.10368e-07 0)
(-11.985 -7.01539e-07 0)
(-11.967 -6.92625e-07 0)
(-11.949 -6.84111e-07 0)
(-11.931 -6.75214e-07 0)
(-11.913 -6.66794e-07 0)
(-11.8951 -6.58189e-07 0)
(-11.8772 -6.49802e-07 0)
(-11.8594 -6.41348e-07 0)
(-11.8416 -6.33283e-07 0)
(-11.8238 -6.25081e-07 0)
(-11.8061 -6.17055e-07 0)
(-11.7884 -6.09128e-07 0)
(-11.7707 -6.01278e-07 0)
(-11.7531 -5.93496e-07 0)
(-11.7355 -5.8578e-07 0)
(-11.718 -5.78118e-07 0)
(-11.7005 -5.70701e-07 0)
(-11.683 -5.63121e-07 0)
(-11.6656 -5.55871e-07 0)
(-11.6482 -5.4823e-07 0)
(-11.629 -5.3898e-07 0)
(-11.6081 -5.3019e-07 0)
(-11.5875 -5.22332e-07 0)
(-11.5672 -5.14653e-07 0)
(-11.5473 -5.07021e-07 0)
(-11.5275 -4.99616e-07 0)
(-11.5082 -4.9218e-07 0)
(-11.489 -4.85149e-07 0)
(-11.4702 -4.7813e-07 0)
(-11.4516 -4.71194e-07 0)
(-11.4333 -4.64577e-07 0)
(-11.4152 -4.58081e-07 0)
(-11.3975 -4.51694e-07 0)
(-11.3799 -4.45497e-07 0)
(-11.3626 -4.39546e-07 0)
(-11.3455 -4.33488e-07 0)
(-11.3287 -4.27784e-07 0)
(-11.312 -4.22083e-07 0)
(-11.2957 -4.16596e-07 0)
(-11.2794 -4.11165e-07 0)
(-11.2635 -4.05881e-07 0)
(-11.2477 -4.00671e-07 0)
(-11.2321 -3.95603e-07 0)
(-11.2167 -3.9073e-07 0)
(-11.2016 -3.85873e-07 0)
(-11.1865 -3.81243e-07 0)
(-11.1717 -3.76403e-07 0)
(-11.157 -3.71967e-07 0)
(-11.1426 -3.67514e-07 0)
(-11.1283 -3.63107e-07 0)
(-11.1142 -3.58797e-07 0)
(-11.1002 -3.54759e-07 0)
(-11.0864 -3.50665e-07 0)
(-11.0728 -3.46671e-07 0)
(-11.0593 -3.42659e-07 0)
(-11.046 -3.3879e-07 0)
(-11.0328 -3.35021e-07 0)
(-11.0197 -3.31281e-07 0)
(-11.0069 -3.27638e-07 0)
(-10.9941 -3.24059e-07 0)
(-10.9815 -3.20578e-07 0)
(-10.969 -3.17187e-07 0)
(-10.9567 -3.1377e-07 0)
(-10.9445 -3.10454e-07 0)
(-10.9324 -3.07285e-07 0)
(-10.9204 -3.0406e-07 0)
(-10.9086 -3.01007e-07 0)
(-10.8969 -2.979e-07 0)
(-10.8853 -2.94953e-07 0)
(-10.8738 -2.91988e-07 0)
(-10.8625 -2.89177e-07 0)
(-10.8512 -2.86211e-07 0)
(-10.8401 -2.8345e-07 0)
(-10.829 -2.80718e-07 0)
(-10.8181 -2.7802e-07 0)
(-10.8072 -2.75332e-07 0)
(-10.7966 -2.72788e-07 0)
(-10.7859 -2.70141e-07 0)
(-10.7754 -2.67714e-07 0)
(-10.7649 -2.65175e-07 0)
(-10.7547 -2.62784e-07 0)
(-10.7444 -2.60277e-07 0)
(-10.7343 -2.58013e-07 0)
(-10.7242 -2.55619e-07 0)
(-10.7143 -2.53439e-07 0)
(-10.7044 -2.51061e-07 0)
(-10.6947 -2.49034e-07 0)
(-10.6849 -2.4682e-07 0)
(-10.6754 -2.44782e-07 0)
(-10.6657 -2.42596e-07 0)
(-10.6564 -2.40759e-07 0)
(-10.6469 -2.38573e-07 0)
(-10.6377 -2.36789e-07 0)
(-10.6284 -2.34683e-07 0)
(-10.6193 -2.32951e-07 0)
(-10.6101 -2.30965e-07 0)
(-10.6013 -2.2919e-07 0)
(-10.5922 -2.27249e-07 0)
(-10.5835 -2.25593e-07 0)
(-10.5746 -2.23798e-07 0)
(-10.566 -2.22208e-07 0)
(-10.5572 -2.20571e-07 0)
(-10.5487 -2.18889e-07 0)
(-10.54 -2.17689e-07 0)
(-10.5317 -2.15597e-07 0)
(-10.5232 -2.15614e-07 0)
(-10.5148 -2.11743e-07 0)
(-10.5066 -2.15549e-07 0)
(-10.4979 -2.05288e-07 0)
(-10.4906 -2.2132e-07 0)
(-10.4806 -1.90122e-07 0)
(-10.4758 -2.38611e-07 0)
(-10.4618 -1.60303e-07 0)
(-10.4635 -2.12873e-07 0)
(-10.4448 -2.45258e-07 0)
)
;
    }
    symmetry
    {
        type            symmetryPlane;
    }
    frontAndBack
    {
        type            empty;
    }
}


// ************************************************************************* //
