/*--------------------------------*- C++ -*----------------------------------*\
| =========                 |                                                 |
| \\      /  F ield         | OpenFOAM: The Open Source CFD Toolbox           |
|  \\    /   O peration     | Version:  v2012                                 |
|   \\  /    A nd           | Website:  www.openfoam.com                      |
|    \\/     M anipulation  |                                                 |
\*---------------------------------------------------------------------------*/
FoamFile
{
    version     2.0;
    format      ascii;
    class       volScalarField;
    location    "38.5";
    object      yPlus;
}
// * * * * * * * * * * * * * * * * * * * * * * * * * * * * * * * * * * * * * //

dimensions      [0 0 0 0 0 0 0];


internalField   uniform 0;

boundaryField
{
    inlet
    {
        type            calculated;
        value           uniform 0;
    }
    outlet
    {
        type            calculated;
        value           uniform 0;
    }
    topWall
    {
        type            calculated;
        value           nonuniform List<scalar> 
545
(
0.14927
0.25743
0.330258
0.3882
0.437247
0.480158
0.51848
0.55319
0.584951
0.61424
0.641416
0.666753
0.690474
0.712754
0.733743
0.753563
0.772319
0.790103
0.806991
0.823053
0.83835
0.852935
0.866856
0.880157
0.892876
0.905049
0.916709
0.927884
0.938602
0.948889
0.958766
0.968255
0.977377
0.986149
0.994588
1.00271
1.01053
1.01807
1.02533
1.03232
1.03907
1.04558
1.05186
1.05792
1.06377
1.06942
1.07488
1.08015
1.08524
1.09016
1.09492
1.09952
1.10397
1.10828
1.11244
1.11647
1.12037
1.12415
1.1278
1.13134
1.13477
1.13809
1.1413
1.14442
1.14744
1.15036
1.1532
1.15595
1.15861
1.1612
1.1637
1.16613
1.16846
1.1707
1.17294
1.17515
1.17734
1.17952
1.18168
1.18382
1.18595
1.18805
1.19015
1.19222
1.19428
1.19632
1.19834
1.20035
1.20234
1.20432
1.20628
1.20823
1.21016
1.21207
1.21397
1.21586
1.21756
1.21908
1.22059
1.22211
1.22363
1.22514
1.22666
1.22817
1.22969
1.2312
1.23272
1.23423
1.23574
1.23726
1.23877
1.24028
1.24179
1.2433
1.24481
1.24632
1.24783
1.24933
1.25084
1.25235
1.25385
1.25536
1.25686
1.25837
1.25987
1.26137
1.26287
1.26437
1.26587
1.26737
1.26887
1.27037
1.27186
1.27336
1.27486
1.27635
1.27784
1.27934
1.28083
1.28232
1.28381
1.2853
1.28678
1.28827
1.28976
1.29124
1.29273
1.29421
1.29569
1.29717
1.29865
1.30013
1.30161
1.30309
1.30456
1.30604
1.30751
1.30898
1.31046
1.31193
1.31339
1.31486
1.31633
1.31779
1.31926
1.32072
1.32218
1.32364
1.3251
1.32656
1.32802
1.32947
1.33092
1.33238
1.33383
1.33528
1.33673
1.33817
1.33962
1.34106
1.3425
1.34395
1.34538
1.34682
1.34826
1.34969
1.35113
1.35256
1.35399
1.35542
1.35684
1.35827
1.35969
1.36111
1.36253
1.36395
1.36537
1.36678
1.3682
1.36961
1.37102
1.37243
1.37383
1.37524
1.37664
1.37804
1.37944
1.38083
1.38223
1.38362
1.38501
1.3864
1.38779
1.38917
1.39055
1.39193
1.39331
1.39469
1.39606
1.39744
1.39881
1.40017
1.40154
1.4029
1.40426
1.40562
1.40698
1.40833
1.40969
1.41103
1.41238
1.41373
1.41507
1.41641
1.41775
1.41908
1.42042
1.42175
1.42307
1.4244
1.42572
1.42704
1.42836
1.42968
1.43099
1.4323
1.43361
1.43491
1.43621
1.43751
1.43881
1.4401
1.44139
1.44268
1.44397
1.44525
1.44653
1.44781
1.44908
1.45035
1.45162
1.45288
1.45415
1.45541
1.45666
1.45792
1.45917
1.46041
1.46166
1.46283
1.46393
1.46504
1.46616
1.46729
1.46842
1.46956
1.47071
1.47186
1.47302
1.47419
1.47536
1.47655
1.47773
1.47893
1.48013
1.48134
1.48256
1.48378
1.48501
1.48624
1.48748
1.48873
1.48998
1.49124
1.49251
1.49378
1.49506
1.49635
1.49764
1.49893
1.50024
1.50154
1.50286
1.50418
1.5055
1.50683
1.50816
1.5095
1.51084
1.51219
1.51354
1.5149
1.51626
1.51763
1.519
1.52037
1.52175
1.52313
1.52451
1.5259
1.52729
1.52868
1.53008
1.53148
1.53288
1.53428
1.53568
1.53709
1.5385
1.5399
1.54131
1.54272
1.54413
1.54555
1.54696
1.54837
1.54978
1.55119
1.5526
1.554
1.55541
1.55681
1.55821
1.55961
1.56101
1.5624
1.56379
1.56518
1.56656
1.56794
1.56931
1.57068
1.57204
1.5734
1.57475
1.5761
1.57743
1.57877
1.58009
1.5814
1.58271
1.58401
1.58529
1.58657
1.58784
1.5891
1.59035
1.59158
1.59281
1.59402
1.59522
1.5964
1.59758
1.59873
1.59988
1.60101
1.60212
1.60322
1.6043
1.60536
1.60641
1.60744
1.60845
1.60944
1.61041
1.61137
1.6123
1.61321
1.6141
1.61497
1.61581
1.61664
1.61743
1.61821
1.61896
1.61969
1.62039
1.62106
1.62171
1.62234
1.62293
1.6235
1.62404
1.62455
1.62503
1.62548
1.6259
1.62629
1.62665
1.62698
1.62728
1.62754
1.62778
1.62798
1.62814
1.62827
1.62837
1.62844
1.62846
1.62846
1.62842
1.62834
1.62823
1.62808
1.62789
1.62767
1.62741
1.62712
1.62678
1.62641
1.626
1.62556
1.62508
1.62456
1.624
1.6234
1.62276
1.62209
1.62138
1.62063
1.61985
1.61903
1.61816
1.61727
1.61633
1.61536
1.61435
1.6133
1.61222
1.6111
1.60982
1.60837
1.60689
1.60538
1.60384
1.60228
1.60069
1.59909
1.59746
1.59581
1.59415
1.59248
1.59079
1.58909
1.58738
1.58566
1.58394
1.58221
1.58047
1.57874
1.57699
1.57526
1.57352
1.57178
1.57004
1.56832
1.56659
1.56487
1.56315
1.56145
1.55975
1.55806
1.55638
1.55472
1.55306
1.55142
1.54979
1.54818
1.54657
1.54499
1.54342
1.54187
1.54034
1.53882
1.53732
1.53585
1.53439
1.53295
1.53154
1.53014
1.52877
1.52742
1.52609
1.5248
1.52351
1.52226
1.52103
1.51983
1.51865
1.51751
1.51638
1.51529
1.51422
1.51318
1.51217
1.51119
1.51023
1.50931
1.50841
1.50755
1.50672
1.50592
1.50515
1.50441
1.5037
1.50303
1.50239
1.50178
1.5012
1.50066
1.50015
1.49967
1.49923
1.49882
1.49844
1.4981
1.4978
1.49753
1.49729
1.49709
1.49692
1.49679
1.49669
1.49663
1.49657
)
;
    }
    bottomWall
    {
        type            calculated;
        value           nonuniform List<scalar> 
449
(
0.00273836
0.00480355
0.0053775
0.00532988
0.00525852
0.00516231
0.00506478
0.00497348
0.00488971
0.00481316
0.00474311
0.0046789
0.00461981
0.0045651
0.00451426
0.00446689
0.00442257
0.004381
0.00434186
0.0043049
0.00426992
0.00423675
0.0042052
0.00417514
0.00414643
0.00411897
0.00409267
0.00406743
0.00404318
0.00401985
0.00399739
0.00397572
0.0039548
0.00393459
0.00391504
0.00389612
0.00387778
0.00385999
0.00384273
0.00382595
0.00380964
0.00379377
0.00377832
0.00376327
0.0037486
0.0037343
0.00372034
0.00370673
0.00369343
0.00368044
0.00366775
0.00365533
0.00364319
0.00363131
0.00361967
0.00360828
0.00359711
0.00358616
0.00357542
0.00356489
0.00355454
0.00354439
0.00353442
0.00352462
0.00351498
0.00350551
0.00349619
0.00348703
0.00347801
0.00346913
0.00346039
0.00345179
0.00344331
0.00343496
0.00342672
0.00341861
0.00341061
0.00340273
0.00339495
0.00338729
0.00337972
0.00337226
0.00336489
0.00335762
0.00335044
0.00334336
0.00333636
0.00332945
0.00332262
0.00331588
0.00330922
0.00330264
0.00329613
0.0032897
0.00328335
0.00327706
0.00327085
0.00326471
0.00325863
0.00325262
0.00324667
0.0032408
0.00323497
0.00322922
0.00322352
0.00321788
0.0032123
0.00320677
0.0032013
0.00319588
0.00319052
0.0031852
0.00317994
0.00317473
0.00316957
0.00316446
0.00315939
0.00315437
0.0031494
0.00314447
0.00313958
0.00313474
0.00312994
0.00312519
0.00312047
0.0031158
0.00311116
0.00310657
0.00310201
0.00309749
0.00309301
0.00308856
0.00308415
0.00307978
0.00307544
0.00307114
0.00306687
0.00306263
0.00305843
0.00305426
0.00305012
0.00304602
0.00304194
0.00303789
0.00303387
0.00302989
0.00302593
0.00302201
0.00301811
0.00301424
0.00301039
0.00300658
0.00300279
0.00299903
0.00299529
0.00299159
0.0029879
0.00298424
0.0029806
0.002977
0.00297341
0.00296985
0.00296631
0.0029628
0.0029593
0.00295584
0.00295239
0.00294896
0.00294556
0.00294218
0.00293882
0.00293548
0.00293216
0.00292905
0.00292612
0.00292317
0.00292023
0.00291727
0.00291431
0.00291133
0.00290835
0.00290536
0.00290237
0.00289936
0.00289634
0.00289332
0.00289029
0.00288725
0.0028842
0.00288115
0.00287809
0.00287501
0.00287194
0.00286885
0.00286576
0.00286266
0.00285955
0.00285643
0.00285331
0.00285018
0.00284705
0.0028439
0.00284075
0.0028376
0.00283444
0.00283126
0.00282809
0.00282491
0.00282172
0.00281852
0.00281532
0.00281212
0.0028089
0.00280569
0.00280246
0.00279923
0.002796
0.00279276
0.00278952
0.00278627
0.00278301
0.00277976
0.00277649
0.00277322
0.00276995
0.00276667
0.00276339
0.00276011
0.00275682
0.00275352
0.00275023
0.00274693
0.00274362
0.00274031
0.002737
0.00273369
0.00273037
0.00272705
0.00272372
0.0027204
0.00271707
0.00271373
0.0027104
0.00270706
0.00270372
0.00270038
0.00269704
0.00269368
0.00269034
0.00268698
0.00268364
0.00268028
0.00267693
0.00267357
0.00267022
0.00266685
0.0026635
0.00266013
0.00265678
0.0026534
0.00265005
0.00264668
0.00264332
0.00263995
0.00263659
0.00263322
0.00262986
0.00262649
0.00262313
0.00261976
0.0026164
0.00261303
0.00260967
0.0026063
0.00260294
0.00259957
0.00259621
0.00259285
0.00258949
0.00258613
0.00258277
0.00257942
0.00257606
0.00257271
0.00256935
0.002566
0.00256265
0.00255931
0.00255596
0.00255262
0.00254927
0.00254594
0.00254259
0.00253926
0.00253592
0.0025326
0.00252926
0.00252595
0.00252261
0.0025193
0.00251598
0.00251267
0.00250935
0.00250606
0.00250275
0.00249946
0.00249615
0.00249286
0.00248956
0.00248629
0.002483
0.00247973
0.00247645
0.00247318
0.00246991
0.00246665
0.00246339
0.00246014
0.00245688
0.00245364
0.00245039
0.00244716
0.00244392
0.0024407
0.00243747
0.00243425
0.00243103
0.00242783
0.00242462
0.00242142
0.00241823
0.00241504
0.00241185
0.00240867
0.0024055
0.00240233
0.00239916
0.002396
0.00239285
0.0023897
0.00238656
0.00238341
0.00238028
0.00237715
0.00237403
0.00237091
0.00236781
0.0023647
0.0023616
0.0023585
0.00235543
0.00235234
0.00234927
0.0023462
0.00234281
0.0023391
0.00233547
0.00233187
0.00232834
0.00232485
0.00232142
0.00231803
0.0023147
0.0023114
0.00230816
0.00230496
0.00230181
0.00229869
0.00229562
0.00229258
0.0022896
0.00228664
0.00228373
0.00228084
0.00227801
0.0022752
0.00227244
0.00226969
0.002267
0.00226431
0.00226168
0.00225907
0.0022565
0.00225395
0.00225144
0.00224894
0.00224649
0.00224405
0.00224165
0.00223926
0.00223691
0.00223458
0.00223229
0.00223
0.00222776
0.00222552
0.00222332
0.00222114
0.00221898
0.00221684
0.00221473
0.00221263
0.00221056
0.0022085
0.00220647
0.00220445
0.00220246
0.00220047
0.00219853
0.00219658
0.00219467
0.00219275
0.00219088
0.002189
0.00218716
0.00218531
0.0021835
0.00218169
0.00217991
0.00217813
0.00217639
0.00217463
0.00217292
0.00217119
0.00216951
0.0021678
0.00216616
0.00216447
0.00216285
0.0021612
0.00215961
0.00215797
0.00215641
0.0021548
0.00215326
0.00215167
0.00215015
0.00214859
0.00214709
0.00214555
0.00214406
0.00214256
0.00214105
0.00213964
0.00213799
0.00213689
0.00213474
0.00213448
0.00213159
)
;
    }
    symmetry
    {
        type            symmetryPlane;
    }
    frontAndBack
    {
        type            empty;
    }
}


// ************************************************************************* //
