/*--------------------------------*- C++ -*----------------------------------*\
| =========                 |                                                 |
| \\      /  F ield         | OpenFOAM: The Open Source CFD Toolbox           |
|  \\    /   O peration     | Version:  v2012                                 |
|   \\  /    A nd           | Website:  www.openfoam.com                      |
|    \\/     M anipulation  |                                                 |
\*---------------------------------------------------------------------------*/
FoamFile
{
    version     2.0;
    format      ascii;
    class       volScalarField;
    location    "56";
    object      yPlus;
}
// * * * * * * * * * * * * * * * * * * * * * * * * * * * * * * * * * * * * * //

dimensions      [0 0 0 0 0 0 0];


internalField   uniform 0;

boundaryField
{
    inlet
    {
        type            calculated;
        value           uniform 0;
    }
    outlet
    {
        type            calculated;
        value           uniform 0;
    }
    topWall
    {
        type            calculated;
        value           nonuniform List<scalar> 
545
(
0.0708352
0.12214
0.156688
0.184172
0.207427
0.227761
0.24591
0.262335
0.277352
0.291187
0.304012
0.315956
0.327124
0.337603
0.347461
0.356758
0.365545
0.373865
0.381754
0.389247
0.396373
0.403157
0.409622
0.41579
0.42168
0.427307
0.43269
0.43784
0.442773
0.447499
0.45203
0.456377
0.460549
0.464555
0.468403
0.472101
0.475657
0.479077
0.482367
0.485535
0.488584
0.491521
0.494351
0.497078
0.499708
0.502243
0.504688
0.507047
0.509324
0.511522
0.513644
0.515693
0.517672
0.519585
0.521433
0.523219
0.524945
0.526615
0.528229
0.52979
0.531301
0.532763
0.534177
0.535546
0.536871
0.538154
0.539396
0.5406
0.541765
0.542894
0.543987
0.545047
0.54606
0.54704
0.548011
0.548973
0.549927
0.550872
0.551809
0.552737
0.553657
0.554569
0.555473
0.556368
0.557256
0.558137
0.559009
0.559874
0.560731
0.56158
0.562423
0.563258
0.564085
0.564906
0.565719
0.566525
0.567251
0.5679
0.568548
0.569195
0.569842
0.570488
0.571133
0.571778
0.572422
0.573065
0.573708
0.57435
0.574991
0.575631
0.576271
0.57691
0.577549
0.578186
0.578823
0.579459
0.580094
0.580729
0.581363
0.581996
0.582628
0.583259
0.58389
0.584519
0.585148
0.585776
0.586404
0.58703
0.587655
0.58828
0.588904
0.589527
0.590149
0.59077
0.59139
0.59201
0.592628
0.593245
0.593862
0.594478
0.595092
0.595706
0.596319
0.59693
0.597541
0.598151
0.59876
0.599368
0.599974
0.60058
0.601185
0.601788
0.602391
0.602993
0.603593
0.604192
0.604791
0.605388
0.605984
0.606579
0.607173
0.607766
0.608357
0.608948
0.609537
0.610125
0.610712
0.611298
0.611883
0.612466
0.613048
0.613629
0.614209
0.614788
0.615365
0.615941
0.616516
0.617089
0.617661
0.618232
0.618802
0.61937
0.619937
0.620503
0.621067
0.62163
0.622192
0.622752
0.623311
0.623868
0.624424
0.624979
0.625532
0.626084
0.626634
0.627183
0.62773
0.628276
0.628821
0.629364
0.629905
0.630445
0.630984
0.631521
0.632056
0.63259
0.633123
0.633653
0.634183
0.63471
0.635236
0.635761
0.636283
0.636804
0.637324
0.637842
0.638358
0.638873
0.639385
0.639897
0.640406
0.640914
0.64142
0.641924
0.642427
0.642927
0.643426
0.643924
0.644419
0.644913
0.645405
0.645895
0.646383
0.646869
0.647354
0.647837
0.648317
0.648796
0.649273
0.649748
0.650222
0.650693
0.651162
0.65163
0.652095
0.652559
0.65302
0.65348
0.653937
0.654393
0.654847
0.655298
0.655748
0.656195
0.65664
0.657084
0.657525
0.657964
0.658401
0.658836
0.659269
0.659699
0.660128
0.660554
0.660978
0.6614
0.66182
0.662237
0.662653
0.663043
0.66341
0.663778
0.664148
0.664519
0.664891
0.665265
0.66564
0.666016
0.666393
0.666771
0.66715
0.66753
0.667912
0.668294
0.668677
0.66906
0.669445
0.66983
0.670216
0.670602
0.670989
0.671377
0.671764
0.672152
0.672541
0.672929
0.673318
0.673707
0.674095
0.674484
0.674872
0.67526
0.675648
0.676036
0.676423
0.676809
0.677194
0.677579
0.677963
0.678346
0.678728
0.679109
0.679488
0.679866
0.680243
0.680618
0.680991
0.681363
0.681732
0.6821
0.682465
0.682828
0.683189
0.683547
0.683902
0.684255
0.684604
0.684951
0.685294
0.685634
0.68597
0.686303
0.686632
0.686957
0.687277
0.687594
0.687906
0.688213
0.688516
0.688813
0.689106
0.689393
0.689674
0.68995
0.690221
0.690485
0.690743
0.690994
0.691239
0.691477
0.691708
0.691932
0.692149
0.692358
0.692559
0.692752
0.692937
0.693114
0.693282
0.693441
0.693591
0.693732
0.693863
0.693985
0.694097
0.694198
0.694289
0.69437
0.69444
0.694498
0.694546
0.694581
0.694606
0.694618
0.694618
0.694605
0.69458
0.694542
0.694491
0.694426
0.694348
0.694257
0.694151
0.694031
0.693896
0.693747
0.693582
0.693403
0.693208
0.692998
0.692772
0.69253
0.692272
0.691997
0.691706
0.691398
0.691074
0.690732
0.690372
0.689995
0.689601
0.689189
0.688758
0.68831
0.687843
0.687358
0.686854
0.686331
0.68579
0.685229
0.68465
0.684051
0.683433
0.682796
0.682139
0.681463
0.680768
0.680053
0.679318
0.678563
0.677789
0.676995
0.676182
0.675348
0.674495
0.673623
0.672731
0.671819
0.670888
0.669938
0.668968
0.667979
0.666971
0.665945
0.664899
0.663835
0.662752
0.661651
0.660532
0.659395
0.65824
0.657068
0.655879
0.654672
0.65345
0.65221
0.650955
0.649684
0.648397
0.647095
0.645631
0.644011
0.642392
0.640775
0.63916
0.63755
0.635943
0.634341
0.632745
0.631156
0.629574
0.627999
0.626433
0.624875
0.623327
0.62179
0.620262
0.618745
0.61724
0.615747
0.614265
0.612797
0.611341
0.609899
0.60847
0.607055
0.605655
0.604269
0.602899
0.601543
0.600203
0.598878
0.59757
0.596277
0.595001
0.593742
0.592499
0.591274
0.590066
0.588875
0.587702
0.586546
0.585409
0.58429
0.583189
0.582106
0.581043
0.579998
0.578972
0.577965
0.576977
0.576009
0.575061
0.574132
0.573223
0.572334
0.571466
0.570617
0.569789
0.568982
0.568195
0.56743
0.566685
0.565961
0.565259
0.564578
0.563918
0.56328
0.562664
0.56207
0.561497
0.560947
0.560419
0.559913
0.55943
0.558969
0.55853
0.558115
0.557722
0.557352
0.557005
0.556681
0.55638
0.556103
0.555848
0.555617
0.555409
0.555225
0.555064
0.554926
0.554812
0.554722
0.554654
0.554614
0.554584
)
;
    }
    bottomWall
    {
        type            calculated;
        value           nonuniform List<scalar> 
449
(
0.139437
0.0889519
0.0758028
0.0694317
0.0652491
0.0621231
0.0596286
0.0575654
0.0558147
0.0542988
0.0529654
0.051778
0.0507102
0.0497418
0.0488572
0.0480442
0.0472928
0.046595
0.0459444
0.0453353
0.0447632
0.0442243
0.0437151
0.0432327
0.0427749
0.0423392
0.0419239
0.0415273
0.0411478
0.0407843
0.0404354
0.0401002
0.0397777
0.039467
0.0391674
0.0388782
0.0385987
0.0383283
0.0380665
0.0378129
0.0375669
0.0373281
0.0370962
0.0368708
0.0366516
0.0364382
0.0362305
0.036028
0.0358306
0.0356381
0.0354502
0.0352667
0.0350875
0.0349123
0.034741
0.0345735
0.0344095
0.0342489
0.0340917
0.0339377
0.0337867
0.0336387
0.0334935
0.0333511
0.0332113
0.0330741
0.0329394
0.032807
0.032677
0.0325492
0.0324236
0.0323001
0.0321786
0.0320591
0.0319415
0.0318257
0.0317118
0.0315996
0.0314891
0.0313803
0.031273
0.0311674
0.0310632
0.0309605
0.0308593
0.0307594
0.030661
0.0305638
0.030468
0.0303734
0.0302801
0.0301879
0.0300969
0.0300071
0.0299184
0.0298308
0.0297442
0.0296587
0.0295742
0.0294907
0.0294082
0.0293267
0.029246
0.0291663
0.0290875
0.0290095
0.0289324
0.0288561
0.0287806
0.028706
0.0286321
0.028559
0.0284867
0.0284151
0.0283442
0.028274
0.0282046
0.0281358
0.0280677
0.0280002
0.0279334
0.0278673
0.0278017
0.0277368
0.0276725
0.0276087
0.0275456
0.027483
0.0274209
0.0273594
0.0272985
0.0272381
0.0271782
0.0271188
0.02706
0.0270016
0.0269437
0.0268863
0.0268294
0.026773
0.026717
0.0266614
0.0266063
0.0265516
0.0264974
0.0264436
0.0263902
0.0263372
0.0262846
0.0262324
0.0261807
0.0261293
0.0260782
0.0260276
0.0259773
0.0259274
0.0258779
0.0258287
0.0257798
0.0257313
0.0256832
0.0256354
0.0255879
0.0255407
0.0254939
0.0254473
0.0254011
0.0253552
0.0253096
0.0252643
0.0252194
0.0251746
0.0251302
0.0250887
0.0250495
0.0250101
0.0249707
0.0249312
0.0248916
0.0248519
0.024812
0.0247721
0.024732
0.0246919
0.0246516
0.0246112
0.0245707
0.0245302
0.0244895
0.0244487
0.0244078
0.0243668
0.0243257
0.0242845
0.0242433
0.0242019
0.0241604
0.0241189
0.0240772
0.0240355
0.0239937
0.0239518
0.0239098
0.0238677
0.0238255
0.0237833
0.023741
0.0236986
0.0236561
0.0236135
0.0235709
0.0235282
0.0234854
0.0234425
0.0233996
0.0233566
0.0233135
0.0232704
0.0232272
0.023184
0.0231406
0.0230972
0.0230538
0.0230103
0.0229667
0.0229231
0.0228794
0.0228357
0.0227919
0.0227481
0.0227042
0.0226603
0.0226163
0.0225722
0.0225282
0.022484
0.0224399
0.0223957
0.0223514
0.0223071
0.0222628
0.0222185
0.0221741
0.0221296
0.0220852
0.0220407
0.0219961
0.0219516
0.021907
0.0218624
0.0218177
0.0217731
0.0217284
0.0216837
0.021639
0.0215942
0.0215494
0.0215046
0.0214598
0.021415
0.0213702
0.0213253
0.0212805
0.0212356
0.0211907
0.0211458
0.0211009
0.021056
0.0210111
0.0209662
0.0209213
0.0208764
0.0208315
0.0207865
0.0207416
0.0206967
0.0206518
0.0206069
0.020562
0.0205171
0.0204722
0.0204273
0.0203824
0.0203375
0.0202927
0.0202479
0.020203
0.0201582
0.0201134
0.0200686
0.0200239
0.0199791
0.0199344
0.0198897
0.019845
0.0198003
0.0197557
0.019711
0.0196664
0.0196219
0.0195773
0.0195328
0.0194883
0.0194438
0.0193994
0.019355
0.0193106
0.0192663
0.019222
0.0191777
0.0191335
0.0190892
0.0190451
0.0190009
0.0189568
0.0189128
0.0188688
0.0188248
0.0187808
0.0187369
0.0186931
0.0186492
0.0186055
0.0185617
0.018518
0.0184744
0.0184308
0.0183872
0.0183437
0.0183003
0.0182569
0.0182135
0.0181702
0.0181269
0.0180837
0.0180406
0.0179974
0.0179544
0.0179114
0.0178684
0.0178255
0.0177827
0.0177399
0.0176972
0.0176545
0.0176119
0.0175693
0.0175268
0.0174843
0.017442
0.0173996
0.0173574
0.0173152
0.017273
0.0172261
0.0171752
0.017125
0.0170755
0.0170266
0.0169785
0.016931
0.0168842
0.0168381
0.0167925
0.0167476
0.0167033
0.0166596
0.0166164
0.0165738
0.0165317
0.0164902
0.0164492
0.0164086
0.0163686
0.0163291
0.01629
0.0162515
0.0162133
0.0161756
0.0161384
0.0161016
0.0160652
0.0160292
0.0159936
0.0159584
0.0159235
0.0158891
0.015855
0.0158213
0.015788
0.015755
0.0157223
0.01569
0.015658
0.0156264
0.015595
0.015564
0.0155333
0.0155029
0.0154727
0.0154429
0.0154134
0.0153841
0.0153551
0.0153264
0.0152979
0.0152698
0.0152418
0.0152141
0.0151867
0.0151595
0.0151326
0.0151059
0.0150794
0.0150532
0.0150272
0.0150014
0.0149758
0.0149505
0.0149253
0.0149004
0.0148756
0.0148511
0.0148268
0.0148026
0.0147787
0.0147549
0.0147314
0.014708
0.0146847
0.0146617
0.0146388
0.0146161
0.0145936
0.0145712
0.014549
0.014527
0.014505
0.0144833
0.0144616
0.01444
0.0144186
0.0143973
0.0143757
0.014355
0.0143343
0.0143003
0.0143192
0.0142591
)
;
    }
    symmetry
    {
        type            symmetryPlane;
    }
    frontAndBack
    {
        type            empty;
    }
}


// ************************************************************************* //
