/*--------------------------------*- C++ -*----------------------------------*\
| =========                 |                                                 |
| \\      /  F ield         | OpenFOAM: The Open Source CFD Toolbox           |
|  \\    /   O peration     | Version:  v2012                                 |
|   \\  /    A nd           | Website:  www.openfoam.com                      |
|    \\/     M anipulation  |                                                 |
\*---------------------------------------------------------------------------*/
FoamFile
{
    version     2.0;
    format      ascii;
    class       volVectorField;
    location    "13.5";
    object      wallShearStress;
}
// * * * * * * * * * * * * * * * * * * * * * * * * * * * * * * * * * * * * * //

dimensions      [0 2 -2 0 0 0 0];


internalField   uniform (0 0 0);

boundaryField
{
    inlet
    {
        type            calculated;
        value           uniform (0 0 0);
    }
    outlet
    {
        type            calculated;
        value           uniform (0 0 0);
    }
    topWall
    {
        type            calculated;
        value           nonuniform List<vector> 
545
(
(1.36871e-08 -9.62948e-09 0)
(1.3684e-08 -2.69612e-08 0)
(1.36609e-08 -4.49625e-08 0)
(1.36381e-08 -6.24321e-08 0)
(1.36112e-08 -7.91421e-08 0)
(1.35797e-08 -9.53057e-08 0)
(1.35437e-08 -1.1106e-07 0)
(1.35034e-08 -1.26396e-07 0)
(1.34592e-08 -1.41279e-07 0)
(1.34115e-08 -1.55707e-07 0)
(1.33607e-08 -1.697e-07 0)
(1.33071e-08 -1.83273e-07 0)
(1.32509e-08 -1.96436e-07 0)
(1.31926e-08 -2.09196e-07 0)
(1.31323e-08 -2.21563e-07 0)
(1.30703e-08 -2.33548e-07 0)
(1.30069e-08 -2.45161e-07 0)
(1.29422e-08 -2.56413e-07 0)
(1.28765e-08 -2.67313e-07 0)
(1.28099e-08 -2.77871e-07 0)
(1.27427e-08 -2.88097e-07 0)
(1.26749e-08 -2.98e-07 0)
(1.26068e-08 -3.07591e-07 0)
(1.25385e-08 -3.16879e-07 0)
(1.24701e-08 -3.25873e-07 0)
(1.24017e-08 -3.34581e-07 0)
(1.23334e-08 -3.43014e-07 0)
(1.22653e-08 -3.51178e-07 0)
(1.21975e-08 -3.59084e-07 0)
(1.21302e-08 -3.66738e-07 0)
(1.20632e-08 -3.7415e-07 0)
(1.19969e-08 -3.81326e-07 0)
(1.1931e-08 -3.88275e-07 0)
(1.18659e-08 -3.95003e-07 0)
(1.18014e-08 -4.01519e-07 0)
(1.17376e-08 -4.07828e-07 0)
(1.16746e-08 -4.13937e-07 0)
(1.16125e-08 -4.19854e-07 0)
(1.15511e-08 -4.25585e-07 0)
(1.14906e-08 -4.31134e-07 0)
(1.14309e-08 -4.3651e-07 0)
(1.13722e-08 -4.41716e-07 0)
(1.13144e-08 -4.46759e-07 0)
(1.12574e-08 -4.51645e-07 0)
(1.12014e-08 -4.56378e-07 0)
(1.11464e-08 -4.60963e-07 0)
(1.10922e-08 -4.65405e-07 0)
(1.10391e-08 -4.6971e-07 0)
(1.09868e-08 -4.73881e-07 0)
(1.09355e-08 -4.77923e-07 0)
(1.08851e-08 -4.8184e-07 0)
(1.08357e-08 -4.85636e-07 0)
(1.07872e-08 -4.89316e-07 0)
(1.07396e-08 -4.92883e-07 0)
(1.06929e-08 -4.9634e-07 0)
(1.06472e-08 -4.99692e-07 0)
(1.06023e-08 -5.02942e-07 0)
(1.05583e-08 -5.06092e-07 0)
(1.05152e-08 -5.09147e-07 0)
(1.04729e-08 -5.12109e-07 0)
(1.04315e-08 -5.14982e-07 0)
(1.03909e-08 -5.17768e-07 0)
(1.03512e-08 -5.2047e-07 0)
(1.03122e-08 -5.23091e-07 0)
(1.02741e-08 -5.25633e-07 0)
(1.02367e-08 -5.28099e-07 0)
(1.02001e-08 -5.30492e-07 0)
(1.01642e-08 -5.32813e-07 0)
(1.01291e-08 -5.35065e-07 0)
(1.00947e-08 -5.37249e-07 0)
(1.00612e-08 -5.39373e-07 0)
(1.00274e-08 -5.41422e-07 0)
(9.99489e-09 -5.43395e-07 0)
(9.96486e-09 -5.45315e-07 0)
(9.93511e-09 -5.47201e-07 0)
(9.90546e-09 -5.49075e-07 0)
(9.87588e-09 -5.5094e-07 0)
(9.84636e-09 -5.52793e-07 0)
(9.81689e-09 -5.5463e-07 0)
(9.78748e-09 -5.56452e-07 0)
(9.75813e-09 -5.58261e-07 0)
(9.72884e-09 -5.60056e-07 0)
(9.6996e-09 -5.61838e-07 0)
(9.67042e-09 -5.63606e-07 0)
(9.64131e-09 -5.65361e-07 0)
(9.61225e-09 -5.67102e-07 0)
(9.58326e-09 -5.68831e-07 0)
(9.55433e-09 -5.70546e-07 0)
(9.52547e-09 -5.72248e-07 0)
(9.49667e-09 -5.73938e-07 0)
(9.46794e-09 -5.75615e-07 0)
(9.43925e-09 -5.77278e-07 0)
(9.41074e-09 -5.78931e-07 0)
(9.38182e-09 -5.80564e-07 0)
(9.35498e-09 -5.82219e-07 0)
(9.31969e-09 -5.83782e-07 0)
(9.28361e-09 -5.85223e-07 0)
(9.259e-09 -5.86598e-07 0)
(9.23581e-09 -5.87875e-07 0)
(9.2129e-09 -5.89149e-07 0)
(9.18999e-09 -5.90445e-07 0)
(9.16701e-09 -5.9175e-07 0)
(9.14395e-09 -5.9305e-07 0)
(9.1208e-09 -5.94346e-07 0)
(9.09756e-09 -5.95642e-07 0)
(9.07424e-09 -5.96939e-07 0)
(9.05082e-09 -5.98236e-07 0)
(9.02732e-09 -5.99532e-07 0)
(9.00373e-09 -6.00828e-07 0)
(8.98004e-09 -6.02123e-07 0)
(8.95627e-09 -6.03418e-07 0)
(8.93241e-09 -6.04713e-07 0)
(8.90846e-09 -6.06007e-07 0)
(8.88442e-09 -6.07301e-07 0)
(8.86029e-09 -6.08595e-07 0)
(8.83608e-09 -6.09887e-07 0)
(8.81177e-09 -6.1118e-07 0)
(8.78737e-09 -6.12472e-07 0)
(8.76289e-09 -6.13763e-07 0)
(8.73831e-09 -6.15054e-07 0)
(8.71365e-09 -6.16344e-07 0)
(8.68889e-09 -6.17634e-07 0)
(8.66405e-09 -6.18923e-07 0)
(8.63911e-09 -6.20211e-07 0)
(8.61409e-09 -6.21498e-07 0)
(8.58897e-09 -6.22785e-07 0)
(8.56377e-09 -6.24071e-07 0)
(8.53848e-09 -6.25357e-07 0)
(8.51309e-09 -6.26641e-07 0)
(8.48762e-09 -6.27925e-07 0)
(8.46206e-09 -6.29208e-07 0)
(8.43641e-09 -6.3049e-07 0)
(8.41067e-09 -6.31771e-07 0)
(8.38483e-09 -6.33051e-07 0)
(8.35891e-09 -6.34331e-07 0)
(8.3329e-09 -6.35609e-07 0)
(8.3068e-09 -6.36886e-07 0)
(8.28061e-09 -6.38163e-07 0)
(8.25433e-09 -6.39438e-07 0)
(8.22796e-09 -6.40712e-07 0)
(8.2015e-09 -6.41985e-07 0)
(8.17496e-09 -6.43258e-07 0)
(8.14832e-09 -6.44528e-07 0)
(8.12159e-09 -6.45798e-07 0)
(8.09478e-09 -6.47067e-07 0)
(8.06787e-09 -6.48334e-07 0)
(8.04088e-09 -6.496e-07 0)
(8.01379e-09 -6.50865e-07 0)
(7.98662e-09 -6.52128e-07 0)
(7.95936e-09 -6.53391e-07 0)
(7.93201e-09 -6.54651e-07 0)
(7.90457e-09 -6.55911e-07 0)
(7.87704e-09 -6.57169e-07 0)
(7.84943e-09 -6.58426e-07 0)
(7.82173e-09 -6.59681e-07 0)
(7.79393e-09 -6.60934e-07 0)
(7.76605e-09 -6.62186e-07 0)
(7.73809e-09 -6.63437e-07 0)
(7.71003e-09 -6.64686e-07 0)
(7.68189e-09 -6.65933e-07 0)
(7.65366e-09 -6.67179e-07 0)
(7.62534e-09 -6.68423e-07 0)
(7.59693e-09 -6.69665e-07 0)
(7.56844e-09 -6.70906e-07 0)
(7.53986e-09 -6.72145e-07 0)
(7.51119e-09 -6.73382e-07 0)
(7.48244e-09 -6.74617e-07 0)
(7.4536e-09 -6.75851e-07 0)
(7.42467e-09 -6.77082e-07 0)
(7.39566e-09 -6.78312e-07 0)
(7.36657e-09 -6.7954e-07 0)
(7.33738e-09 -6.80765e-07 0)
(7.30811e-09 -6.81989e-07 0)
(7.27876e-09 -6.83211e-07 0)
(7.24932e-09 -6.84431e-07 0)
(7.2198e-09 -6.85648e-07 0)
(7.19019e-09 -6.86864e-07 0)
(7.1605e-09 -6.88077e-07 0)
(7.13072e-09 -6.89288e-07 0)
(7.10086e-09 -6.90497e-07 0)
(7.07092e-09 -6.91704e-07 0)
(7.04089e-09 -6.92908e-07 0)
(7.01079e-09 -6.9411e-07 0)
(6.98059e-09 -6.9531e-07 0)
(6.95032e-09 -6.96507e-07 0)
(6.91996e-09 -6.97702e-07 0)
(6.88953e-09 -6.98895e-07 0)
(6.85901e-09 -7.00085e-07 0)
(6.82841e-09 -7.01273e-07 0)
(6.79772e-09 -7.02458e-07 0)
(6.76696e-09 -7.0364e-07 0)
(6.73612e-09 -7.0482e-07 0)
(6.7052e-09 -7.05997e-07 0)
(6.6742e-09 -7.07172e-07 0)
(6.64312e-09 -7.08344e-07 0)
(6.61196e-09 -7.09513e-07 0)
(6.58072e-09 -7.1068e-07 0)
(6.5494e-09 -7.11843e-07 0)
(6.51801e-09 -7.13004e-07 0)
(6.48654e-09 -7.14162e-07 0)
(6.45499e-09 -7.15317e-07 0)
(6.42337e-09 -7.16469e-07 0)
(6.39167e-09 -7.17618e-07 0)
(6.35989e-09 -7.18765e-07 0)
(6.32804e-09 -7.19908e-07 0)
(6.29612e-09 -7.21048e-07 0)
(6.26412e-09 -7.22185e-07 0)
(6.23204e-09 -7.23319e-07 0)
(6.19989e-09 -7.24449e-07 0)
(6.16767e-09 -7.25577e-07 0)
(6.13538e-09 -7.26701e-07 0)
(6.10302e-09 -7.27822e-07 0)
(6.07058e-09 -7.28939e-07 0)
(6.03807e-09 -7.30054e-07 0)
(6.00549e-09 -7.31165e-07 0)
(5.97284e-09 -7.32272e-07 0)
(5.94013e-09 -7.33376e-07 0)
(5.90734e-09 -7.34477e-07 0)
(5.87448e-09 -7.35574e-07 0)
(5.84156e-09 -7.36667e-07 0)
(5.80857e-09 -7.37757e-07 0)
(5.77551e-09 -7.38844e-07 0)
(5.74239e-09 -7.39926e-07 0)
(5.7092e-09 -7.41005e-07 0)
(5.67594e-09 -7.4208e-07 0)
(5.64262e-09 -7.43152e-07 0)
(5.60924e-09 -7.44219e-07 0)
(5.57579e-09 -7.45283e-07 0)
(5.54228e-09 -7.46343e-07 0)
(5.50871e-09 -7.47399e-07 0)
(5.47507e-09 -7.48451e-07 0)
(5.44138e-09 -7.49499e-07 0)
(5.40762e-09 -7.50543e-07 0)
(5.37381e-09 -7.51583e-07 0)
(5.33993e-09 -7.52619e-07 0)
(5.306e-09 -7.5365e-07 0)
(5.27201e-09 -7.54678e-07 0)
(5.23796e-09 -7.55701e-07 0)
(5.20386e-09 -7.5672e-07 0)
(5.1697e-09 -7.57735e-07 0)
(5.13549e-09 -7.58746e-07 0)
(5.10122e-09 -7.59752e-07 0)
(5.0669e-09 -7.60754e-07 0)
(5.03252e-09 -7.61751e-07 0)
(4.9981e-09 -7.62744e-07 0)
(4.96362e-09 -7.63732e-07 0)
(4.92909e-09 -7.64716e-07 0)
(4.89451e-09 -7.65695e-07 0)
(4.85988e-09 -7.6667e-07 0)
(4.82521e-09 -7.6764e-07 0)
(4.79048e-09 -7.68605e-07 0)
(4.75572e-09 -7.69566e-07 0)
(4.7209e-09 -7.70522e-07 0)
(4.68604e-09 -7.71473e-07 0)
(4.65113e-09 -7.72419e-07 0)
(4.61618e-09 -7.73361e-07 0)
(4.58119e-09 -7.74297e-07 0)
(4.54616e-09 -7.75229e-07 0)
(4.51109e-09 -7.76155e-07 0)
(4.47597e-09 -7.77077e-07 0)
(4.44082e-09 -7.77993e-07 0)
(4.40563e-09 -7.78904e-07 0)
(4.3704e-09 -7.79811e-07 0)
(4.33514e-09 -7.80712e-07 0)
(4.29982e-09 -7.81607e-07 0)
(4.26454e-09 -7.825e-07 0)
(4.22893e-09 -7.83379e-07 0)
(4.19458e-09 -7.84288e-07 0)
(4.15482e-09 -7.8512e-07 0)
(4.11444e-09 -7.85919e-07 0)
(4.08169e-09 -7.86753e-07 0)
(4.05026e-09 -7.87515e-07 0)
(4.01885e-09 -7.8827e-07 0)
(3.98721e-09 -7.89043e-07 0)
(3.95528e-09 -7.89826e-07 0)
(3.92304e-09 -7.90609e-07 0)
(3.89047e-09 -7.91392e-07 0)
(3.85759e-09 -7.92175e-07 0)
(3.82439e-09 -7.92961e-07 0)
(3.79086e-09 -7.9375e-07 0)
(3.75701e-09 -7.94539e-07 0)
(3.72284e-09 -7.9533e-07 0)
(3.68834e-09 -7.96122e-07 0)
(3.65351e-09 -7.96915e-07 0)
(3.61835e-09 -7.97709e-07 0)
(3.58286e-09 -7.98504e-07 0)
(3.54704e-09 -7.993e-07 0)
(3.51089e-09 -8.00096e-07 0)
(3.4744e-09 -8.00893e-07 0)
(3.43758e-09 -8.01689e-07 0)
(3.40043e-09 -8.02486e-07 0)
(3.36294e-09 -8.03283e-07 0)
(3.32512e-09 -8.04079e-07 0)
(3.28695e-09 -8.04875e-07 0)
(3.24846e-09 -8.0567e-07 0)
(3.20962e-09 -8.06464e-07 0)
(3.17045e-09 -8.07257e-07 0)
(3.13093e-09 -8.08049e-07 0)
(3.09108e-09 -8.08839e-07 0)
(3.0509e-09 -8.09628e-07 0)
(3.01037e-09 -8.10415e-07 0)
(2.9695e-09 -8.11199e-07 0)
(2.9283e-09 -8.11982e-07 0)
(2.88676e-09 -8.12761e-07 0)
(2.84488e-09 -8.13538e-07 0)
(2.80267e-09 -8.14312e-07 0)
(2.76012e-09 -8.15082e-07 0)
(2.71724e-09 -8.15849e-07 0)
(2.67402e-09 -8.16612e-07 0)
(2.63047e-09 -8.17371e-07 0)
(2.58658e-09 -8.18125e-07 0)
(2.54237e-09 -8.18875e-07 0)
(2.49783e-09 -8.19619e-07 0)
(2.45296e-09 -8.20359e-07 0)
(2.40776e-09 -8.21092e-07 0)
(2.36224e-09 -8.2182e-07 0)
(2.3164e-09 -8.22542e-07 0)
(2.27024e-09 -8.23257e-07 0)
(2.22377e-09 -8.23966e-07 0)
(2.17698e-09 -8.24667e-07 0)
(2.12988e-09 -8.2536e-07 0)
(2.08247e-09 -8.26046e-07 0)
(2.03475e-09 -8.26724e-07 0)
(1.98673e-09 -8.27392e-07 0)
(1.93842e-09 -8.28052e-07 0)
(1.88981e-09 -8.28703e-07 0)
(1.84091e-09 -8.29344e-07 0)
(1.79172e-09 -8.29975e-07 0)
(1.74225e-09 -8.30595e-07 0)
(1.6925e-09 -8.31205e-07 0)
(1.64248e-09 -8.31803e-07 0)
(1.5922e-09 -8.32389e-07 0)
(1.54165e-09 -8.32963e-07 0)
(1.49084e-09 -8.33525e-07 0)
(1.43979e-09 -8.34074e-07 0)
(1.38848e-09 -8.34609e-07 0)
(1.33694e-09 -8.3513e-07 0)
(1.28517e-09 -8.35637e-07 0)
(1.23317e-09 -8.36129e-07 0)
(1.18096e-09 -8.36606e-07 0)
(1.12853e-09 -8.37067e-07 0)
(1.0759e-09 -8.37512e-07 0)
(1.02308e-09 -8.3794e-07 0)
(9.70068e-10 -8.38351e-07 0)
(9.16878e-10 -8.38744e-07 0)
(8.63519e-10 -8.39119e-07 0)
(8.09998e-10 -8.39475e-07 0)
(7.56327e-10 -8.39812e-07 0)
(7.02513e-10 -8.40129e-07 0)
(6.48568e-10 -8.40426e-07 0)
(5.94502e-10 -8.40701e-07 0)
(5.40325e-10 -8.40956e-07 0)
(4.86048e-10 -8.41188e-07 0)
(4.31683e-10 -8.41398e-07 0)
(3.7724e-10 -8.41585e-07 0)
(3.22732e-10 -8.41748e-07 0)
(2.68171e-10 -8.41887e-07 0)
(2.1357e-10 -8.42002e-07 0)
(1.5894e-10 -8.42091e-07 0)
(1.04296e-10 -8.42154e-07 0)
(4.96512e-11 -8.4219e-07 0)
(-4.98132e-12 -8.422e-07 0)
(-5.95872e-11 -8.42182e-07 0)
(-1.14152e-10 -8.42136e-07 0)
(-1.68661e-10 -8.42061e-07 0)
(-2.23099e-10 -8.41956e-07 0)
(-2.77451e-10 -8.41822e-07 0)
(-3.31702e-10 -8.41657e-07 0)
(-3.85834e-10 -8.4146e-07 0)
(-4.39833e-10 -8.41232e-07 0)
(-4.93681e-10 -8.40972e-07 0)
(-5.47362e-10 -8.40679e-07 0)
(-6.00858e-10 -8.40352e-07 0)
(-6.54153e-10 -8.39991e-07 0)
(-7.07228e-10 -8.39596e-07 0)
(-7.60066e-10 -8.39165e-07 0)
(-8.12649e-10 -8.38699e-07 0)
(-8.64958e-10 -8.38196e-07 0)
(-9.16974e-10 -8.37656e-07 0)
(-9.68679e-10 -8.37079e-07 0)
(-1.02005e-09 -8.36463e-07 0)
(-1.07108e-09 -8.35809e-07 0)
(-1.12174e-09 -8.35116e-07 0)
(-1.172e-09 -8.34383e-07 0)
(-1.22186e-09 -8.3361e-07 0)
(-1.2713e-09 -8.32796e-07 0)
(-1.32028e-09 -8.31941e-07 0)
(-1.36879e-09 -8.31044e-07 0)
(-1.41682e-09 -8.30105e-07 0)
(-1.46434e-09 -8.29123e-07 0)
(-1.51133e-09 -8.28099e-07 0)
(-1.55777e-09 -8.2703e-07 0)
(-1.60364e-09 -8.25918e-07 0)
(-1.64892e-09 -8.24761e-07 0)
(-1.69359e-09 -8.23559e-07 0)
(-1.73763e-09 -8.22312e-07 0)
(-1.78101e-09 -8.2102e-07 0)
(-1.82373e-09 -8.19682e-07 0)
(-1.86576e-09 -8.18297e-07 0)
(-1.90707e-09 -8.16865e-07 0)
(-1.94765e-09 -8.15387e-07 0)
(-1.98749e-09 -8.13862e-07 0)
(-2.02655e-09 -8.12289e-07 0)
(-2.06482e-09 -8.10669e-07 0)
(-2.10229e-09 -8.09e-07 0)
(-2.13893e-09 -8.07284e-07 0)
(-2.17472e-09 -8.05519e-07 0)
(-2.20965e-09 -8.03706e-07 0)
(-2.24371e-09 -8.01845e-07 0)
(-2.27686e-09 -7.99935e-07 0)
(-2.3091e-09 -7.97976e-07 0)
(-2.34041e-09 -7.95968e-07 0)
(-2.37078e-09 -7.93912e-07 0)
(-2.40018e-09 -7.91808e-07 0)
(-2.42861e-09 -7.89654e-07 0)
(-2.45604e-09 -7.87453e-07 0)
(-2.48247e-09 -7.85202e-07 0)
(-2.50788e-09 -7.82904e-07 0)
(-2.53227e-09 -7.80557e-07 0)
(-2.55561e-09 -7.78163e-07 0)
(-2.5779e-09 -7.75721e-07 0)
(-2.59912e-09 -7.73231e-07 0)
(-2.61927e-09 -7.70694e-07 0)
(-2.63834e-09 -7.68111e-07 0)
(-2.65631e-09 -7.65481e-07 0)
(-2.67319e-09 -7.62805e-07 0)
(-2.68897e-09 -7.60083e-07 0)
(-2.70363e-09 -7.57316e-07 0)
(-2.71718e-09 -7.54505e-07 0)
(-2.7296e-09 -7.51649e-07 0)
(-2.7409e-09 -7.4875e-07 0)
(-2.75108e-09 -7.45808e-07 0)
(-2.76012e-09 -7.42824e-07 0)
(-2.76804e-09 -7.39798e-07 0)
(-2.77483e-09 -7.36731e-07 0)
(-2.78049e-09 -7.33624e-07 0)
(-2.78502e-09 -7.30477e-07 0)
(-2.78843e-09 -7.27292e-07 0)
(-2.79072e-09 -7.24068e-07 0)
(-2.79189e-09 -7.20808e-07 0)
(-2.79195e-09 -7.17512e-07 0)
(-2.79091e-09 -7.1418e-07 0)
(-2.78876e-09 -7.10814e-07 0)
(-2.78553e-09 -7.07415e-07 0)
(-2.78121e-09 -7.03984e-07 0)
(-2.77582e-09 -7.00522e-07 0)
(-2.76939e-09 -6.97027e-07 0)
(-2.76178e-09 -6.93511e-07 0)
(-2.75367e-09 -6.89926e-07 0)
(-2.74219e-09 -6.86369e-07 0)
(-2.72789e-09 -6.82415e-07 0)
(-2.71372e-09 -6.77984e-07 0)
(-2.69834e-09 -6.73593e-07 0)
(-2.68181e-09 -6.69243e-07 0)
(-2.66419e-09 -6.64921e-07 0)
(-2.64556e-09 -6.60626e-07 0)
(-2.62597e-09 -6.5636e-07 0)
(-2.60548e-09 -6.52128e-07 0)
(-2.58416e-09 -6.4793e-07 0)
(-2.56206e-09 -6.43767e-07 0)
(-2.53923e-09 -6.3964e-07 0)
(-2.51572e-09 -6.35551e-07 0)
(-2.49159e-09 -6.315e-07 0)
(-2.46688e-09 -6.27489e-07 0)
(-2.44163e-09 -6.23519e-07 0)
(-2.41588e-09 -6.19589e-07 0)
(-2.38967e-09 -6.15702e-07 0)
(-2.36304e-09 -6.11858e-07 0)
(-2.33603e-09 -6.08057e-07 0)
(-2.30866e-09 -6.043e-07 0)
(-2.28096e-09 -6.00587e-07 0)
(-2.25297e-09 -5.9692e-07 0)
(-2.2247e-09 -5.93298e-07 0)
(-2.19619e-09 -5.89723e-07 0)
(-2.16746e-09 -5.86193e-07 0)
(-2.13852e-09 -5.8271e-07 0)
(-2.10941e-09 -5.79274e-07 0)
(-2.08013e-09 -5.75886e-07 0)
(-2.0507e-09 -5.72545e-07 0)
(-2.02115e-09 -5.69251e-07 0)
(-1.99147e-09 -5.66006e-07 0)
(-1.9617e-09 -5.62809e-07 0)
(-1.93184e-09 -5.5966e-07 0)
(-1.90189e-09 -5.56559e-07 0)
(-1.87188e-09 -5.53507e-07 0)
(-1.8418e-09 -5.50503e-07 0)
(-1.81167e-09 -5.47548e-07 0)
(-1.7815e-09 -5.44642e-07 0)
(-1.75129e-09 -5.41785e-07 0)
(-1.72105e-09 -5.38976e-07 0)
(-1.69077e-09 -5.36217e-07 0)
(-1.66047e-09 -5.33507e-07 0)
(-1.63016e-09 -5.30845e-07 0)
(-1.59982e-09 -5.28233e-07 0)
(-1.56947e-09 -5.2567e-07 0)
(-1.53911e-09 -5.23156e-07 0)
(-1.50873e-09 -5.2069e-07 0)
(-1.47835e-09 -5.18275e-07 0)
(-1.44795e-09 -5.15908e-07 0)
(-1.41755e-09 -5.1359e-07 0)
(-1.38714e-09 -5.11322e-07 0)
(-1.35671e-09 -5.09103e-07 0)
(-1.32628e-09 -5.06933e-07 0)
(-1.29584e-09 -5.04812e-07 0)
(-1.26539e-09 -5.02741e-07 0)
(-1.23492e-09 -5.00719e-07 0)
(-1.20444e-09 -4.98746e-07 0)
(-1.17395e-09 -4.96822e-07 0)
(-1.14344e-09 -4.94948e-07 0)
(-1.11291e-09 -4.93123e-07 0)
(-1.08237e-09 -4.91347e-07 0)
(-1.0518e-09 -4.89621e-07 0)
(-1.02122e-09 -4.87945e-07 0)
(-9.90605e-10 -4.86318e-07 0)
(-9.59971e-10 -4.8474e-07 0)
(-9.2931e-10 -4.83212e-07 0)
(-8.98623e-10 -4.81734e-07 0)
(-8.67909e-10 -4.80305e-07 0)
(-8.37165e-10 -4.78926e-07 0)
(-8.06391e-10 -4.77596e-07 0)
(-7.75587e-10 -4.76317e-07 0)
(-7.44752e-10 -4.75087e-07 0)
(-7.13885e-10 -4.73908e-07 0)
(-6.82987e-10 -4.72778e-07 0)
(-6.52057e-10 -4.71698e-07 0)
(-6.21094e-10 -4.70668e-07 0)
(-5.90101e-10 -4.69689e-07 0)
(-5.59076e-10 -4.68759e-07 0)
(-5.28021e-10 -4.6788e-07 0)
(-4.96936e-10 -4.67051e-07 0)
(-4.65823e-10 -4.66272e-07 0)
(-4.34682e-10 -4.65544e-07 0)
(-4.03515e-10 -4.64866e-07 0)
(-3.72322e-10 -4.64239e-07 0)
(-3.41106e-10 -4.63661e-07 0)
(-3.09866e-10 -4.63137e-07 0)
(-2.786e-10 -4.62651e-07 0)
(-2.47316e-10 -4.62258e-07 0)
(-2.15981e-10 -4.61776e-07 0)
(-1.84697e-10 -4.61802e-07 0)
(-1.53101e-10 -4.6033e-07 0)
(-1.2252e-10 -4.6385e-07 0)
(-8.83273e-11 -4.49804e-07 0)
(-6.80323e-11 -4.86612e-07 0)
(-3.36757e-11 -4.24938e-07 0)
)
;
    }
    bottomWall
    {
        type            calculated;
        value           nonuniform List<vector> 
449
(
(-48.6249 -0.965401 0)
(-19.7855 -0.0051656 0)
(-14.3682 -0.00113688 0)
(-12.0541 -0.000546526 0)
(-10.6454 -0.000352163 0)
(-9.64972 -0.00025647 0)
(-8.89026 -0.000198839 0)
(-8.28571 -0.000160082 0)
(-7.7895 -0.000132522 0)
(-7.3723 -0.000112118 0)
(-7.01491 -9.64664e-05 0)
(-6.70427 -8.41127e-05 0)
(-6.43107 -7.41508e-05 0)
(-6.18837 -6.59812e-05 0)
(-5.97093 -5.91841e-05 0)
(-5.77467 -5.34563e-05 0)
(-5.5964 -4.85755e-05 0)
(-5.43354 -4.43761e-05 0)
(-5.28403 -4.07322e-05 0)
(-5.14615 -3.75464e-05 0)
(-5.0185 -3.47421e-05 0)
(-4.89989 -3.22584e-05 0)
(-4.78931 -3.00466e-05 0)
(-4.68591 -2.80669e-05 0)
(-4.58897 -2.62868e-05 0)
(-4.49784 -2.46795e-05 0)
(-4.41198 -2.32224e-05 0)
(-4.33092 -2.18968e-05 0)
(-4.25422 -2.06869e-05 0)
(-4.18153 -1.9579e-05 0)
(-4.11251 -1.85617e-05 0)
(-4.04686 -1.76251e-05 0)
(-3.98434 -1.67604e-05 0)
(-3.9247 -1.59605e-05 0)
(-3.86773 -1.52186e-05 0)
(-3.81325 -1.45293e-05 0)
(-3.76109 -1.38874e-05 0)
(-3.71108 -1.32886e-05 0)
(-3.66309 -1.2729e-05 0)
(-3.61699 -1.22052e-05 0)
(-3.57267 -1.17141e-05 0)
(-3.53001 -1.12529e-05 0)
(-3.48891 -1.08193e-05 0)
(-3.44929 -1.04109e-05 0)
(-3.41106 -1.00258e-05 0)
(-3.37414 -9.66227e-06 0)
(-3.33846 -9.31863e-06 0)
(-3.30396 -8.99344e-06 0)
(-3.27058 -8.68535e-06 0)
(-3.23825 -8.39317e-06 0)
(-3.20693 -8.11579e-06 0)
(-3.17657 -7.85219e-06 0)
(-3.14711 -7.60147e-06 0)
(-3.11852 -7.36276e-06 0)
(-3.09075 -7.13531e-06 0)
(-3.06377 -6.9184e-06 0)
(-3.03755 -6.71137e-06 0)
(-3.01204 -6.51361e-06 0)
(-2.98722 -6.32458e-06 0)
(-2.96306 -6.14374e-06 0)
(-2.93953 -5.97063e-06 0)
(-2.9166 -5.80479e-06 0)
(-2.89426 -5.64583e-06 0)
(-2.87247 -5.49336e-06 0)
(-2.85122 -5.34701e-06 0)
(-2.83048 -5.20647e-06 0)
(-2.81023 -5.07142e-06 0)
(-2.79046 -4.94157e-06 0)
(-2.77115 -4.81665e-06 0)
(-2.75228 -4.69642e-06 0)
(-2.73383 -4.58064e-06 0)
(-2.7158 -4.46908e-06 0)
(-2.69815 -4.36154e-06 0)
(-2.68089 -4.25783e-06 0)
(-2.664 -4.15776e-06 0)
(-2.64747 -4.06116e-06 0)
(-2.63128 -3.96787e-06 0)
(-2.61542 -3.87774e-06 0)
(-2.59988 -3.79062e-06 0)
(-2.58466 -3.70638e-06 0)
(-2.56974 -3.62489e-06 0)
(-2.55511 -3.54604e-06 0)
(-2.54076 -3.4697e-06 0)
(-2.52669 -3.39577e-06 0)
(-2.51288 -3.32415e-06 0)
(-2.49933 -3.25474e-06 0)
(-2.48603 -3.18745e-06 0)
(-2.47297 -3.1222e-06 0)
(-2.46015 -3.05889e-06 0)
(-2.44756 -2.99746e-06 0)
(-2.4352 -2.93783e-06 0)
(-2.42304 -2.87993e-06 0)
(-2.4111 -2.82368e-06 0)
(-2.39937 -2.76904e-06 0)
(-2.38783 -2.71593e-06 0)
(-2.37649 -2.6643e-06 0)
(-2.36533 -2.6141e-06 0)
(-2.35436 -2.56527e-06 0)
(-2.34357 -2.51776e-06 0)
(-2.33295 -2.47152e-06 0)
(-2.3225 -2.42651e-06 0)
(-2.31222 -2.38269e-06 0)
(-2.3021 -2.34001e-06 0)
(-2.29213 -2.29843e-06 0)
(-2.28232 -2.25792e-06 0)
(-2.27266 -2.21844e-06 0)
(-2.26315 -2.17995e-06 0)
(-2.25377 -2.14242e-06 0)
(-2.24454 -2.10582e-06 0)
(-2.23544 -2.07012e-06 0)
(-2.22648 -2.03529e-06 0)
(-2.21764 -2.00129e-06 0)
(-2.20893 -1.96812e-06 0)
(-2.20035 -1.93573e-06 0)
(-2.19188 -1.9041e-06 0)
(-2.18353 -1.87321e-06 0)
(-2.1753 -1.84304e-06 0)
(-2.16719 -1.81356e-06 0)
(-2.15918 -1.78475e-06 0)
(-2.15128 -1.7566e-06 0)
(-2.14349 -1.72908e-06 0)
(-2.1358 -1.70217e-06 0)
(-2.12821 -1.67586e-06 0)
(-2.12072 -1.65012e-06 0)
(-2.11333 -1.62495e-06 0)
(-2.10604 -1.60032e-06 0)
(-2.09884 -1.57622e-06 0)
(-2.09173 -1.55264e-06 0)
(-2.08471 -1.52955e-06 0)
(-2.07777 -1.50695e-06 0)
(-2.07092 -1.48483e-06 0)
(-2.06416 -1.46316e-06 0)
(-2.05748 -1.44194e-06 0)
(-2.05088 -1.42115e-06 0)
(-2.04436 -1.40078e-06 0)
(-2.03792 -1.38083e-06 0)
(-2.03156 -1.36127e-06 0)
(-2.02527 -1.34211e-06 0)
(-2.01905 -1.32332e-06 0)
(-2.01291 -1.30491e-06 0)
(-2.00684 -1.28685e-06 0)
(-2.00083 -1.26914e-06 0)
(-1.9949 -1.25178e-06 0)
(-1.98903 -1.23475e-06 0)
(-1.98323 -1.21804e-06 0)
(-1.9775 -1.20165e-06 0)
(-1.97182 -1.18556e-06 0)
(-1.96621 -1.16978e-06 0)
(-1.96067 -1.15429e-06 0)
(-1.95518 -1.13908e-06 0)
(-1.94975 -1.12416e-06 0)
(-1.94438 -1.1095e-06 0)
(-1.93907 -1.09511e-06 0)
(-1.93381 -1.08098e-06 0)
(-1.92861 -1.06711e-06 0)
(-1.92346 -1.05347e-06 0)
(-1.91837 -1.04008e-06 0)
(-1.91333 -1.02693e-06 0)
(-1.90834 -1.014e-06 0)
(-1.90341 -1.00129e-06 0)
(-1.89852 -9.88806e-07 0)
(-1.89368 -9.7653e-07 0)
(-1.88889 -9.6446e-07 0)
(-1.88415 -9.5259e-07 0)
(-1.87946 -9.40914e-07 0)
(-1.87481 -9.29424e-07 0)
(-1.87021 -9.18113e-07 0)
(-1.86566 -9.06979e-07 0)
(-1.86114 -8.95969e-07 0)
(-1.85668 -8.85212e-07 0)
(-1.85225 -8.74384e-07 0)
(-1.84788 -8.6367e-07 0)
(-1.84354 -8.54378e-07 0)
(-1.83947 -8.46825e-07 0)
(-1.83565 -8.3785e-07 0)
(-1.83185 -8.26972e-07 0)
(-1.82804 -8.17087e-07 0)
(-1.82424 -8.0803e-07 0)
(-1.82044 -7.99199e-07 0)
(-1.81665 -7.90609e-07 0)
(-1.81285 -7.82188e-07 0)
(-1.80905 -7.73907e-07 0)
(-1.80525 -7.65739e-07 0)
(-1.80145 -7.57669e-07 0)
(-1.79764 -7.49684e-07 0)
(-1.79384 -7.41775e-07 0)
(-1.79004 -7.33935e-07 0)
(-1.78623 -7.26158e-07 0)
(-1.78243 -7.1844e-07 0)
(-1.77862 -7.10779e-07 0)
(-1.77482 -7.03171e-07 0)
(-1.77101 -6.95614e-07 0)
(-1.76721 -6.88108e-07 0)
(-1.7634 -6.80651e-07 0)
(-1.7596 -6.73242e-07 0)
(-1.7558 -6.65882e-07 0)
(-1.75199 -6.58569e-07 0)
(-1.74819 -6.51304e-07 0)
(-1.74439 -6.44086e-07 0)
(-1.74059 -6.36916e-07 0)
(-1.73679 -6.29793e-07 0)
(-1.73299 -6.22718e-07 0)
(-1.7292 -6.15691e-07 0)
(-1.72541 -6.08712e-07 0)
(-1.72162 -6.01781e-07 0)
(-1.71783 -5.94898e-07 0)
(-1.71405 -5.88064e-07 0)
(-1.71026 -5.81279e-07 0)
(-1.70649 -5.74542e-07 0)
(-1.70271 -5.67855e-07 0)
(-1.69894 -5.61217e-07 0)
(-1.69517 -5.54628e-07 0)
(-1.69141 -5.48089e-07 0)
(-1.68765 -5.416e-07 0)
(-1.68389 -5.35161e-07 0)
(-1.68014 -5.28772e-07 0)
(-1.67639 -5.22433e-07 0)
(-1.67265 -5.16144e-07 0)
(-1.66891 -5.09905e-07 0)
(-1.66518 -5.03718e-07 0)
(-1.66146 -4.9758e-07 0)
(-1.65773 -4.91494e-07 0)
(-1.65402 -4.85458e-07 0)
(-1.65031 -4.79473e-07 0)
(-1.64661 -4.73539e-07 0)
(-1.64291 -4.67655e-07 0)
(-1.63922 -4.61823e-07 0)
(-1.63553 -4.56041e-07 0)
(-1.63186 -4.5031e-07 0)
(-1.62819 -4.4463e-07 0)
(-1.62452 -4.39001e-07 0)
(-1.62087 -4.33423e-07 0)
(-1.61722 -4.27895e-07 0)
(-1.61357 -4.22419e-07 0)
(-1.60994 -4.16992e-07 0)
(-1.60631 -4.11617e-07 0)
(-1.6027 -4.06292e-07 0)
(-1.59909 -4.01017e-07 0)
(-1.59548 -3.95793e-07 0)
(-1.59189 -3.90619e-07 0)
(-1.58831 -3.85495e-07 0)
(-1.58473 -3.80421e-07 0)
(-1.58116 -3.75397e-07 0)
(-1.5776 -3.70423e-07 0)
(-1.57405 -3.65498e-07 0)
(-1.57051 -3.60623e-07 0)
(-1.56698 -3.55797e-07 0)
(-1.56346 -3.5102e-07 0)
(-1.55995 -3.46292e-07 0)
(-1.55645 -3.41613e-07 0)
(-1.55296 -3.36983e-07 0)
(-1.54947 -3.32401e-07 0)
(-1.546 -3.27867e-07 0)
(-1.54254 -3.23381e-07 0)
(-1.53909 -3.18943e-07 0)
(-1.53565 -3.14552e-07 0)
(-1.53222 -3.10209e-07 0)
(-1.5288 -3.05913e-07 0)
(-1.52539 -3.01664e-07 0)
(-1.52199 -2.97461e-07 0)
(-1.51861 -2.93305e-07 0)
(-1.51523 -2.89195e-07 0)
(-1.51187 -2.85131e-07 0)
(-1.50851 -2.81112e-07 0)
(-1.50517 -2.77139e-07 0)
(-1.50184 -2.73211e-07 0)
(-1.49852 -2.69328e-07 0)
(-1.49522 -2.65489e-07 0)
(-1.49192 -2.61694e-07 0)
(-1.48864 -2.57944e-07 0)
(-1.48537 -2.54237e-07 0)
(-1.48211 -2.50574e-07 0)
(-1.47886 -2.46954e-07 0)
(-1.47563 -2.43377e-07 0)
(-1.47241 -2.39842e-07 0)
(-1.4692 -2.36349e-07 0)
(-1.466 -2.32899e-07 0)
(-1.46281 -2.2949e-07 0)
(-1.45964 -2.26122e-07 0)
(-1.45648 -2.22796e-07 0)
(-1.45334 -2.1951e-07 0)
(-1.4502 -2.16264e-07 0)
(-1.44708 -2.13059e-07 0)
(-1.44397 -2.09893e-07 0)
(-1.44088 -2.06767e-07 0)
(-1.4378 -2.0368e-07 0)
(-1.43473 -2.00631e-07 0)
(-1.43167 -1.97621e-07 0)
(-1.42863 -1.94649e-07 0)
(-1.4256 -1.91716e-07 0)
(-1.42258 -1.88819e-07 0)
(-1.41958 -1.8596e-07 0)
(-1.41659 -1.83137e-07 0)
(-1.41362 -1.80351e-07 0)
(-1.41065 -1.77602e-07 0)
(-1.40771 -1.74888e-07 0)
(-1.40477 -1.72209e-07 0)
(-1.40185 -1.69566e-07 0)
(-1.39894 -1.66958e-07 0)
(-1.39605 -1.64384e-07 0)
(-1.39317 -1.61844e-07 0)
(-1.3903 -1.59339e-07 0)
(-1.38745 -1.56867e-07 0)
(-1.38461 -1.54428e-07 0)
(-1.38179 -1.52022e-07 0)
(-1.37897 -1.49648e-07 0)
(-1.37618 -1.47307e-07 0)
(-1.37339 -1.44997e-07 0)
(-1.37062 -1.4272e-07 0)
(-1.36787 -1.40473e-07 0)
(-1.36513 -1.38257e-07 0)
(-1.3624 -1.36072e-07 0)
(-1.35969 -1.33918e-07 0)
(-1.35699 -1.31793e-07 0)
(-1.3543 -1.29698e-07 0)
(-1.35163 -1.27632e-07 0)
(-1.34897 -1.25595e-07 0)
(-1.34633 -1.23587e-07 0)
(-1.3437 -1.21607e-07 0)
(-1.34109 -1.19656e-07 0)
(-1.33849 -1.17732e-07 0)
(-1.3359 -1.15835e-07 0)
(-1.33333 -1.13966e-07 0)
(-1.33077 -1.12123e-07 0)
(-1.32822 -1.10307e-07 0)
(-1.32569 -1.08518e-07 0)
(-1.32318 -1.06754e-07 0)
(-1.32068 -1.05015e-07 0)
(-1.31819 -1.03302e-07 0)
(-1.31571 -1.01614e-07 0)
(-1.31325 -9.99513e-08 0)
(-1.31081 -9.83125e-08 0)
(-1.30838 -9.66978e-08 0)
(-1.30596 -9.51071e-08 0)
(-1.30355 -9.35399e-08 0)
(-1.30116 -9.1996e-08 0)
(-1.29879 -9.04752e-08 0)
(-1.29643 -8.89771e-08 0)
(-1.29408 -8.75015e-08 0)
(-1.29175 -8.60482e-08 0)
(-1.28942 -8.46169e-08 0)
(-1.28712 -8.32074e-08 0)
(-1.28483 -8.18196e-08 0)
(-1.28255 -8.04532e-08 0)
(-1.28028 -7.91082e-08 0)
(-1.27803 -7.77846e-08 0)
(-1.27579 -7.64826e-08 0)
(-1.27357 -7.52026e-08 0)
(-1.27136 -7.3946e-08 0)
(-1.26916 -7.27135e-08 0)
(-1.26698 -7.15103e-08 0)
(-1.26481 -7.03811e-08 0)
(-1.26265 -6.9161e-08 0)
(-1.2605 -6.81274e-08 0)
(-1.25812 -6.72078e-08 0)
(-1.25552 -6.61008e-08 0)
(-1.25297 -6.49266e-08 0)
(-1.25047 -6.35927e-08 0)
(-1.24802 -6.22051e-08 0)
(-1.24563 -6.08463e-08 0)
(-1.24329 -5.95349e-08 0)
(-1.241 -5.82712e-08 0)
(-1.23876 -5.70523e-08 0)
(-1.23656 -5.5876e-08 0)
(-1.23441 -5.474e-08 0)
(-1.2323 -5.36421e-08 0)
(-1.23024 -5.25799e-08 0)
(-1.22821 -5.15516e-08 0)
(-1.22623 -5.05554e-08 0)
(-1.22428 -4.95897e-08 0)
(-1.22237 -4.86531e-08 0)
(-1.2205 -4.77443e-08 0)
(-1.21866 -4.68621e-08 0)
(-1.21685 -4.60052e-08 0)
(-1.21508 -4.51727e-08 0)
(-1.21334 -4.43635e-08 0)
(-1.21163 -4.35767e-08 0)
(-1.20995 -4.28114e-08 0)
(-1.2083 -4.20668e-08 0)
(-1.20668 -4.1342e-08 0)
(-1.20509 -4.06365e-08 0)
(-1.20352 -3.99493e-08 0)
(-1.20198 -3.92799e-08 0)
(-1.20047 -3.86277e-08 0)
(-1.19898 -3.79919e-08 0)
(-1.19751 -3.73721e-08 0)
(-1.19607 -3.67677e-08 0)
(-1.19466 -3.61782e-08 0)
(-1.19326 -3.5603e-08 0)
(-1.19189 -3.50417e-08 0)
(-1.19054 -3.44938e-08 0)
(-1.18921 -3.3959e-08 0)
(-1.1879 -3.34366e-08 0)
(-1.18661 -3.29265e-08 0)
(-1.18534 -3.24282e-08 0)
(-1.18409 -3.19412e-08 0)
(-1.18286 -3.14654e-08 0)
(-1.18164 -3.10002e-08 0)
(-1.18045 -3.05455e-08 0)
(-1.17927 -3.01008e-08 0)
(-1.17811 -2.96659e-08 0)
(-1.17697 -2.92406e-08 0)
(-1.17584 -2.88244e-08 0)
(-1.17473 -2.84172e-08 0)
(-1.17363 -2.80187e-08 0)
(-1.17255 -2.76287e-08 0)
(-1.17148 -2.72468e-08 0)
(-1.17043 -2.6873e-08 0)
(-1.1694 -2.65069e-08 0)
(-1.16837 -2.61484e-08 0)
(-1.16737 -2.57972e-08 0)
(-1.16637 -2.54532e-08 0)
(-1.16539 -2.51161e-08 0)
(-1.16442 -2.47859e-08 0)
(-1.16346 -2.44622e-08 0)
(-1.16252 -2.4145e-08 0)
(-1.16159 -2.38341e-08 0)
(-1.16067 -2.35294e-08 0)
(-1.15976 -2.32306e-08 0)
(-1.15886 -2.29377e-08 0)
(-1.15798 -2.26505e-08 0)
(-1.1571 -2.23689e-08 0)
(-1.15624 -2.20927e-08 0)
(-1.15539 -2.1822e-08 0)
(-1.15455 -2.15565e-08 0)
(-1.15372 -2.12962e-08 0)
(-1.15289 -2.1041e-08 0)
(-1.15208 -2.07908e-08 0)
(-1.15128 -2.05456e-08 0)
(-1.15049 -2.03053e-08 0)
(-1.1497 -2.00701e-08 0)
(-1.14893 -1.98398e-08 0)
(-1.14816 -1.96145e-08 0)
(-1.14741 -1.93945e-08 0)
(-1.14666 -1.918e-08 0)
(-1.14592 -1.89712e-08 0)
(-1.14518 -1.87689e-08 0)
(-1.14446 -1.85741e-08 0)
(-1.14374 -1.83879e-08 0)
(-1.14303 -1.82142e-08 0)
(-1.14233 -1.80538e-08 0)
(-1.14163 -1.79186e-08 0)
(-1.14094 -1.78366e-08 0)
(-1.14025 -1.78209e-08 0)
(-1.13955 -1.72276e-08 0)
(-1.13891 -2.26327e-08 0)
(-1.1378 -5.65367e-09 0)
(-1.13848 -1.61708e-08 0)
(-1.13651 -2.6017e-08 0)
)
;
    }
    symmetry
    {
        type            symmetryPlane;
    }
    frontAndBack
    {
        type            empty;
    }
}


// ************************************************************************* //
