/*--------------------------------*- C++ -*----------------------------------*\
| =========                 |                                                 |
| \\      /  F ield         | OpenFOAM: The Open Source CFD Toolbox           |
|  \\    /   O peration     | Version:  v2012                                 |
|   \\  /    A nd           | Website:  www.openfoam.com                      |
|    \\/     M anipulation  |                                                 |
\*---------------------------------------------------------------------------*/
FoamFile
{
    version     2.0;
    format      ascii;
    class       volScalarField;
    location    "45";
    object      nut;
}
// * * * * * * * * * * * * * * * * * * * * * * * * * * * * * * * * * * * * * //

dimensions      [0 2 -1 0 0 0 0];


internalField   nonuniform List<scalar> 
209825
(
1.24476e-07
1.23593e-07
1.20245e-07
1.1458e-07
1.07781e-07
1.0091e-07
9.44913e-08
8.87587e-08
8.37047e-08
7.93058e-08
7.54538e-08
7.2103e-08
6.91473e-08
6.65627e-08
6.42589e-08
6.22305e-08
6.0402e-08
5.87831e-08
5.73078e-08
5.59965e-08
5.47881e-08
5.37112e-08
5.27087e-08
5.18134e-08
5.09712e-08
5.02187e-08
4.95039e-08
4.88666e-08
4.82533e-08
4.77086e-08
4.71796e-08
4.67112e-08
4.62502e-08
4.58445e-08
4.54407e-08
4.50882e-08
4.47325e-08
4.44249e-08
4.41103e-08
4.38407e-08
4.35606e-08
4.33234e-08
4.30722e-08
4.28625e-08
4.26381e-08
4.24527e-08
4.225e-08
4.20853e-08
4.19032e-08
4.17569e-08
4.15902e-08
4.14621e-08
4.13114e-08
4.11978e-08
4.10586e-08
4.09567e-08
4.08344e-08
4.07416e-08
4.06294e-08
4.05495e-08
4.04411e-08
4.03713e-08
4.02723e-08
4.02092e-08
4.01183e-08
4.0062e-08
3.99763e-08
3.99196e-08
3.98463e-08
3.97924e-08
3.97255e-08
3.96728e-08
3.96137e-08
3.95642e-08
3.95066e-08
3.94576e-08
3.94007e-08
3.93528e-08
3.92983e-08
3.92525e-08
3.92007e-08
3.91563e-08
3.9107e-08
3.9063e-08
3.90165e-08
3.89728e-08
3.89297e-08
3.8885e-08
3.88484e-08
3.8801e-08
3.87558e-08
3.87052e-08
3.86807e-08
3.9001e-08
3.29424e-06
2.31383e-08
1.24476e-07
1.23593e-07
1.20246e-07
1.14582e-07
1.07783e-07
1.00912e-07
9.44937e-08
8.87612e-08
8.37071e-08
7.93081e-08
7.5456e-08
7.2105e-08
6.91493e-08
6.65645e-08
6.42605e-08
6.2232e-08
6.04034e-08
5.87844e-08
5.7309e-08
5.59976e-08
5.47891e-08
5.37121e-08
5.27096e-08
5.18142e-08
5.09719e-08
5.02193e-08
4.95045e-08
4.88672e-08
4.82538e-08
4.77091e-08
4.718e-08
4.67116e-08
4.62505e-08
4.58448e-08
4.5441e-08
4.50885e-08
4.47327e-08
4.44251e-08
4.41104e-08
4.38408e-08
4.35607e-08
4.33235e-08
4.30723e-08
4.28625e-08
4.26381e-08
4.24527e-08
4.22499e-08
4.20853e-08
4.19031e-08
4.17568e-08
4.15901e-08
4.1462e-08
4.13112e-08
4.11977e-08
4.10585e-08
4.09565e-08
4.08342e-08
4.07414e-08
4.06292e-08
4.05493e-08
4.04409e-08
4.03711e-08
4.02721e-08
4.02089e-08
4.01181e-08
4.00617e-08
3.9976e-08
3.99193e-08
3.9846e-08
3.97921e-08
3.97252e-08
3.96725e-08
3.96134e-08
3.95639e-08
3.95063e-08
3.94573e-08
3.94004e-08
3.93525e-08
3.92979e-08
3.92522e-08
3.92004e-08
3.91559e-08
3.91067e-08
3.90627e-08
3.90162e-08
3.89724e-08
3.89293e-08
3.88846e-08
3.8848e-08
3.88006e-08
3.87554e-08
3.87048e-08
3.86803e-08
3.90009e-08
3.29478e-06
2.33188e-08
1.24475e-07
1.23593e-07
1.20248e-07
1.14587e-07
1.07791e-07
1.00921e-07
9.45035e-08
8.8771e-08
8.37166e-08
7.93172e-08
7.54645e-08
7.2113e-08
6.91566e-08
6.65713e-08
6.42668e-08
6.22378e-08
6.04087e-08
5.87893e-08
5.73134e-08
5.60017e-08
5.47929e-08
5.37155e-08
5.27127e-08
5.18171e-08
5.09745e-08
5.02217e-08
4.95067e-08
4.88691e-08
4.82556e-08
4.77107e-08
4.71814e-08
4.67129e-08
4.62516e-08
4.58458e-08
4.54418e-08
4.50892e-08
4.47333e-08
4.44256e-08
4.41108e-08
4.38411e-08
4.35609e-08
4.33236e-08
4.30724e-08
4.28625e-08
4.2638e-08
4.24526e-08
4.22497e-08
4.2085e-08
4.19028e-08
4.17564e-08
4.15897e-08
4.14615e-08
4.13107e-08
4.11971e-08
4.10578e-08
4.09558e-08
4.08335e-08
4.07406e-08
4.06284e-08
4.05484e-08
4.044e-08
4.03702e-08
4.02711e-08
4.02079e-08
4.01171e-08
4.00607e-08
3.99749e-08
3.99183e-08
3.98449e-08
3.9791e-08
3.9724e-08
3.96713e-08
3.96122e-08
3.95627e-08
3.95051e-08
3.9456e-08
3.93991e-08
3.93512e-08
3.92966e-08
3.92509e-08
3.9199e-08
3.91546e-08
3.91053e-08
3.90613e-08
3.90148e-08
3.8971e-08
3.89279e-08
3.88831e-08
3.88465e-08
3.87991e-08
3.87538e-08
3.87032e-08
3.86787e-08
3.9e-08
3.29603e-06
2.35698e-08
1.24474e-07
1.23594e-07
1.20253e-07
1.14597e-07
1.07805e-07
1.00937e-07
9.45202e-08
8.87877e-08
8.37328e-08
7.93325e-08
7.54789e-08
7.21264e-08
6.9169e-08
6.65827e-08
6.42773e-08
6.22475e-08
6.04176e-08
5.87975e-08
5.73209e-08
5.60086e-08
5.47992e-08
5.37213e-08
5.2718e-08
5.18219e-08
5.0979e-08
5.02257e-08
4.95103e-08
4.88724e-08
4.82586e-08
4.77134e-08
4.71838e-08
4.6715e-08
4.62535e-08
4.58475e-08
4.54433e-08
4.50905e-08
4.47344e-08
4.44265e-08
4.41116e-08
4.38417e-08
4.35613e-08
4.33239e-08
4.30725e-08
4.28625e-08
4.26379e-08
4.24524e-08
4.22494e-08
4.20846e-08
4.19023e-08
4.17558e-08
4.1589e-08
4.14607e-08
4.13098e-08
4.11961e-08
4.10568e-08
4.09547e-08
4.08323e-08
4.07394e-08
4.06271e-08
4.05471e-08
4.04386e-08
4.03687e-08
4.02696e-08
4.02063e-08
4.01154e-08
4.0059e-08
3.99732e-08
3.99165e-08
3.98431e-08
3.97892e-08
3.97222e-08
3.96694e-08
3.96102e-08
3.95607e-08
3.95031e-08
3.9454e-08
3.93971e-08
3.93491e-08
3.92945e-08
3.92488e-08
3.91968e-08
3.91524e-08
3.91031e-08
3.9059e-08
3.90124e-08
3.89686e-08
3.89255e-08
3.88807e-08
3.8844e-08
3.87967e-08
3.87513e-08
3.87007e-08
3.86761e-08
3.89985e-08
3.29801e-06
2.38651e-08
1.24473e-07
1.23594e-07
1.2026e-07
1.14611e-07
1.07824e-07
1.00959e-07
9.45437e-08
8.88112e-08
8.37556e-08
7.93541e-08
7.54992e-08
7.21453e-08
6.91866e-08
6.65989e-08
6.42923e-08
6.22612e-08
6.04302e-08
5.88091e-08
5.73316e-08
5.60183e-08
5.48081e-08
5.37295e-08
5.27255e-08
5.18288e-08
5.09852e-08
5.02314e-08
4.95155e-08
4.88772e-08
4.82628e-08
4.77172e-08
4.71873e-08
4.67182e-08
4.62563e-08
4.585e-08
4.54455e-08
4.50924e-08
4.4736e-08
4.44279e-08
4.41127e-08
4.38426e-08
4.3562e-08
4.33244e-08
4.30728e-08
4.28626e-08
4.26379e-08
4.24521e-08
4.2249e-08
4.2084e-08
4.19016e-08
4.1755e-08
4.1588e-08
4.14597e-08
4.13086e-08
4.11948e-08
4.10554e-08
4.09532e-08
4.08307e-08
4.07377e-08
4.06253e-08
4.05452e-08
4.04366e-08
4.03666e-08
4.02674e-08
4.02041e-08
4.01131e-08
4.00566e-08
3.99708e-08
3.9914e-08
3.98406e-08
3.97866e-08
3.97195e-08
3.96668e-08
3.96075e-08
3.9558e-08
3.95003e-08
3.94512e-08
3.93942e-08
3.93462e-08
3.92916e-08
3.92458e-08
3.91938e-08
3.91493e-08
3.90999e-08
3.90559e-08
3.90092e-08
3.89654e-08
3.89222e-08
3.88774e-08
3.88406e-08
3.87932e-08
3.87477e-08
3.86971e-08
3.86724e-08
3.89963e-08
3.30078e-06
2.41942e-08
1.24472e-07
1.23595e-07
1.20268e-07
1.14628e-07
1.07849e-07
1.00988e-07
9.45742e-08
8.88417e-08
8.37851e-08
7.93823e-08
7.55256e-08
7.21699e-08
6.92094e-08
6.662e-08
6.43117e-08
6.22791e-08
6.04467e-08
5.88242e-08
5.73455e-08
5.60311e-08
5.48198e-08
5.37402e-08
5.27353e-08
5.18377e-08
5.09934e-08
5.02389e-08
4.95223e-08
4.88833e-08
4.82684e-08
4.77223e-08
4.71918e-08
4.67222e-08
4.626e-08
4.58532e-08
4.54483e-08
4.50948e-08
4.47381e-08
4.44297e-08
4.41142e-08
4.38438e-08
4.35629e-08
4.33251e-08
4.30732e-08
4.28628e-08
4.26378e-08
4.24519e-08
4.22485e-08
4.20834e-08
4.19007e-08
4.1754e-08
4.15868e-08
4.14583e-08
4.13071e-08
4.11932e-08
4.10536e-08
4.09512e-08
4.08286e-08
4.07355e-08
4.06229e-08
4.05428e-08
4.04341e-08
4.0364e-08
4.02647e-08
4.02013e-08
4.01102e-08
4.00536e-08
3.99677e-08
3.99109e-08
3.98374e-08
3.97834e-08
3.97162e-08
3.96634e-08
3.96041e-08
3.95545e-08
3.94968e-08
3.94476e-08
3.93906e-08
3.93425e-08
3.92878e-08
3.92419e-08
3.91899e-08
3.91453e-08
3.90959e-08
3.90518e-08
3.90051e-08
3.89612e-08
3.89179e-08
3.88731e-08
3.88362e-08
3.87888e-08
3.87432e-08
3.86925e-08
3.86678e-08
3.89935e-08
3.30439e-06
2.45534e-08
1.2447e-07
1.23596e-07
1.20279e-07
1.1465e-07
1.07879e-07
1.01024e-07
9.46118e-08
8.88794e-08
8.38217e-08
7.9417e-08
7.55582e-08
7.22003e-08
6.92375e-08
6.6646e-08
6.43357e-08
6.23012e-08
6.0467e-08
5.88429e-08
5.73626e-08
5.60468e-08
5.48343e-08
5.37535e-08
5.27474e-08
5.18489e-08
5.10036e-08
5.02482e-08
4.95308e-08
4.8891e-08
4.82754e-08
4.77286e-08
4.71975e-08
4.67273e-08
4.62645e-08
4.58573e-08
4.54519e-08
4.50979e-08
4.47408e-08
4.44319e-08
4.4116e-08
4.38453e-08
4.35641e-08
4.33259e-08
4.30737e-08
4.28631e-08
4.26378e-08
4.24516e-08
4.2248e-08
4.20826e-08
4.18997e-08
4.17528e-08
4.15854e-08
4.14567e-08
4.13052e-08
4.11912e-08
4.10514e-08
4.09489e-08
4.08261e-08
4.07328e-08
4.06201e-08
4.05398e-08
4.0431e-08
4.03608e-08
4.02614e-08
4.01979e-08
4.01066e-08
4.005e-08
3.9964e-08
3.9907e-08
3.98334e-08
3.97794e-08
3.97121e-08
3.96593e-08
3.95998e-08
3.95502e-08
3.94924e-08
3.94432e-08
3.93861e-08
3.9338e-08
3.92831e-08
3.92373e-08
3.91851e-08
3.91405e-08
3.9091e-08
3.90468e-08
3.9e-08
3.89561e-08
3.89127e-08
3.88679e-08
3.88309e-08
3.87835e-08
3.87376e-08
3.86869e-08
3.86621e-08
3.89902e-08
3.30889e-06
2.49435e-08
1.24469e-07
1.23597e-07
1.20291e-07
1.14676e-07
1.07916e-07
1.01066e-07
9.46567e-08
8.89244e-08
8.38653e-08
7.94585e-08
7.55972e-08
7.22366e-08
6.92713e-08
6.66772e-08
6.43644e-08
6.23277e-08
6.04914e-08
5.88653e-08
5.73832e-08
5.60657e-08
5.48516e-08
5.37694e-08
5.2762e-08
5.18622e-08
5.10158e-08
5.02593e-08
4.95409e-08
4.89003e-08
4.82838e-08
4.77362e-08
4.72043e-08
4.67335e-08
4.627e-08
4.58621e-08
4.54561e-08
4.51017e-08
4.4744e-08
4.44347e-08
4.41183e-08
4.38472e-08
4.35655e-08
4.3327e-08
4.30744e-08
4.28634e-08
4.26378e-08
4.24513e-08
4.22474e-08
4.20818e-08
4.18985e-08
4.17514e-08
4.15837e-08
4.14548e-08
4.13031e-08
4.11889e-08
4.10489e-08
4.09462e-08
4.08231e-08
4.07297e-08
4.06168e-08
4.05364e-08
4.04273e-08
4.0357e-08
4.02574e-08
4.01938e-08
4.01024e-08
4.00457e-08
3.99596e-08
3.99025e-08
3.98288e-08
3.97747e-08
3.97072e-08
3.96545e-08
3.95948e-08
3.95452e-08
3.94873e-08
3.9438e-08
3.93808e-08
3.93326e-08
3.92777e-08
3.92317e-08
3.91794e-08
3.91348e-08
3.90851e-08
3.90409e-08
3.8994e-08
3.895e-08
3.89065e-08
3.88616e-08
3.88245e-08
3.87771e-08
3.8731e-08
3.86803e-08
3.86553e-08
3.89862e-08
3.31431e-06
2.53679e-08
1.24466e-07
1.23598e-07
1.20305e-07
1.14706e-07
1.07958e-07
1.01115e-07
9.4709e-08
8.89768e-08
8.39162e-08
7.95069e-08
7.56427e-08
7.22791e-08
6.93106e-08
6.67136e-08
6.4398e-08
6.23586e-08
6.05199e-08
5.88915e-08
5.74073e-08
5.60878e-08
5.48719e-08
5.3788e-08
5.27791e-08
5.18778e-08
5.10301e-08
5.02724e-08
4.95528e-08
4.89111e-08
4.82936e-08
4.77451e-08
4.72124e-08
4.67407e-08
4.62764e-08
4.58679e-08
4.54612e-08
4.51062e-08
4.47479e-08
4.4438e-08
4.41211e-08
4.38494e-08
4.35673e-08
4.33283e-08
4.30753e-08
4.28639e-08
4.26379e-08
4.24511e-08
4.22467e-08
4.20808e-08
4.18972e-08
4.17498e-08
4.15818e-08
4.14527e-08
4.13007e-08
4.11862e-08
4.1046e-08
4.0943e-08
4.08197e-08
4.07261e-08
4.0613e-08
4.05324e-08
4.04232e-08
4.03527e-08
4.02529e-08
4.01891e-08
4.00975e-08
4.00406e-08
3.99545e-08
3.98972e-08
3.98234e-08
3.97692e-08
3.97016e-08
3.96489e-08
3.9589e-08
3.95393e-08
3.94813e-08
3.94319e-08
3.93746e-08
3.93264e-08
3.92713e-08
3.92253e-08
3.91729e-08
3.91281e-08
3.90783e-08
3.90341e-08
3.8987e-08
3.8943e-08
3.88993e-08
3.88544e-08
3.88171e-08
3.87696e-08
3.87234e-08
3.86725e-08
3.86474e-08
3.89817e-08
3.32071e-06
2.58328e-08
1.24464e-07
1.23599e-07
1.20322e-07
1.1474e-07
1.08006e-07
1.01172e-07
9.47688e-08
8.90368e-08
8.39745e-08
7.95624e-08
7.56949e-08
7.23277e-08
6.93558e-08
6.67553e-08
6.44366e-08
6.23942e-08
6.05526e-08
5.89216e-08
5.7435e-08
5.61133e-08
5.48953e-08
5.38094e-08
5.27987e-08
5.18958e-08
5.10465e-08
5.02875e-08
4.95665e-08
4.89236e-08
4.8305e-08
4.77554e-08
4.72217e-08
4.67491e-08
4.62839e-08
4.58746e-08
4.54671e-08
4.51113e-08
4.47523e-08
4.44418e-08
4.41242e-08
4.38521e-08
4.35693e-08
4.33299e-08
4.30764e-08
4.28645e-08
4.2638e-08
4.24508e-08
4.22461e-08
4.20798e-08
4.18958e-08
4.17481e-08
4.15797e-08
4.14503e-08
4.12979e-08
4.11832e-08
4.10427e-08
4.09395e-08
4.08159e-08
4.07221e-08
4.06086e-08
4.05279e-08
4.04184e-08
4.03477e-08
4.02477e-08
4.01838e-08
4.0092e-08
4.0035e-08
3.99486e-08
3.98912e-08
3.98173e-08
3.9763e-08
3.96953e-08
3.96425e-08
3.95824e-08
3.95326e-08
3.94745e-08
3.94251e-08
3.93676e-08
3.93193e-08
3.92641e-08
3.9218e-08
3.91654e-08
3.91206e-08
3.90706e-08
3.90263e-08
3.8979e-08
3.8935e-08
3.88912e-08
3.88462e-08
3.88087e-08
3.87612e-08
3.87146e-08
3.86638e-08
3.86385e-08
3.89766e-08
3.32809e-06
2.63458e-08
1.24461e-07
1.236e-07
1.2034e-07
1.14779e-07
1.0806e-07
1.01235e-07
9.48362e-08
8.91045e-08
8.40403e-08
7.96251e-08
7.57539e-08
7.23828e-08
6.94069e-08
6.68026e-08
6.44803e-08
6.24344e-08
6.05897e-08
5.89557e-08
5.74663e-08
5.61421e-08
5.49217e-08
5.38337e-08
5.2821e-08
5.19163e-08
5.10652e-08
5.03046e-08
4.95822e-08
4.89379e-08
4.83179e-08
4.77671e-08
4.72322e-08
4.67586e-08
4.62924e-08
4.58822e-08
4.54738e-08
4.51172e-08
4.47575e-08
4.44462e-08
4.41279e-08
4.38551e-08
4.35718e-08
4.33317e-08
4.30776e-08
4.28653e-08
4.26382e-08
4.24506e-08
4.22454e-08
4.20787e-08
4.18943e-08
4.17462e-08
4.15774e-08
4.14476e-08
4.12949e-08
4.11799e-08
4.1039e-08
4.09355e-08
4.08116e-08
4.07176e-08
4.06038e-08
4.05229e-08
4.04131e-08
4.03422e-08
4.0242e-08
4.01778e-08
4.00858e-08
4.00286e-08
3.99421e-08
3.98845e-08
3.98104e-08
3.97561e-08
3.96881e-08
3.96353e-08
3.9575e-08
3.95252e-08
3.94669e-08
3.94174e-08
3.93597e-08
3.93113e-08
3.92559e-08
3.92097e-08
3.9157e-08
3.91121e-08
3.90619e-08
3.90176e-08
3.89701e-08
3.8926e-08
3.8882e-08
3.88369e-08
3.87992e-08
3.87517e-08
3.87049e-08
3.86539e-08
3.86284e-08
3.89709e-08
3.33647e-06
2.69164e-08
1.24458e-07
1.23602e-07
1.2036e-07
1.14821e-07
1.0812e-07
1.01306e-07
9.49114e-08
8.91801e-08
8.41138e-08
7.96952e-08
7.58199e-08
7.24444e-08
6.94642e-08
6.68556e-08
6.45292e-08
6.24796e-08
6.06312e-08
5.8994e-08
5.75015e-08
5.61745e-08
5.49515e-08
5.3861e-08
5.28461e-08
5.19392e-08
5.10863e-08
5.03238e-08
4.95997e-08
4.89539e-08
4.83325e-08
4.77803e-08
4.72442e-08
4.67694e-08
4.63021e-08
4.58908e-08
4.54814e-08
4.5124e-08
4.47633e-08
4.44512e-08
4.41322e-08
4.38586e-08
4.35745e-08
4.33339e-08
4.30792e-08
4.28663e-08
4.26386e-08
4.24505e-08
4.22447e-08
4.20775e-08
4.18926e-08
4.17442e-08
4.15749e-08
4.14447e-08
4.12916e-08
4.11762e-08
4.1035e-08
4.09312e-08
4.08069e-08
4.07126e-08
4.05984e-08
4.05173e-08
4.04072e-08
4.03361e-08
4.02356e-08
4.01712e-08
4.00789e-08
4.00215e-08
3.99349e-08
3.98771e-08
3.98028e-08
3.97484e-08
3.96802e-08
3.96274e-08
3.95667e-08
3.95169e-08
3.94584e-08
3.94088e-08
3.9351e-08
3.93025e-08
3.92469e-08
3.92006e-08
3.91476e-08
3.91027e-08
3.90523e-08
3.90079e-08
3.89602e-08
3.8916e-08
3.88718e-08
3.88266e-08
3.87887e-08
3.87411e-08
3.8694e-08
3.86429e-08
3.86172e-08
3.89647e-08
3.34583e-06
2.7555e-08
1.24455e-07
1.23603e-07
1.20382e-07
1.14868e-07
1.08187e-07
1.01384e-07
9.49945e-08
8.92637e-08
8.41953e-08
7.97728e-08
7.58931e-08
7.25128e-08
6.95277e-08
6.69144e-08
6.45835e-08
6.25297e-08
6.06774e-08
5.90365e-08
5.75407e-08
5.62105e-08
5.49846e-08
5.38914e-08
5.2874e-08
5.19648e-08
5.11097e-08
5.03453e-08
4.96193e-08
4.89718e-08
4.83487e-08
4.77951e-08
4.72575e-08
4.67814e-08
4.63129e-08
4.59005e-08
4.549e-08
4.51315e-08
4.47698e-08
4.44569e-08
4.41369e-08
4.38626e-08
4.35777e-08
4.33364e-08
4.30809e-08
4.28674e-08
4.26391e-08
4.24504e-08
4.2244e-08
4.20764e-08
4.18909e-08
4.1742e-08
4.15722e-08
4.14416e-08
4.1288e-08
4.11723e-08
4.10306e-08
4.09265e-08
4.08018e-08
4.07072e-08
4.05926e-08
4.05112e-08
4.04008e-08
4.03294e-08
4.02286e-08
4.0164e-08
4.00714e-08
4.00138e-08
3.99269e-08
3.9869e-08
3.97944e-08
3.97399e-08
3.96714e-08
3.96186e-08
3.95577e-08
3.95077e-08
3.94491e-08
3.93994e-08
3.93414e-08
3.92928e-08
3.9237e-08
3.91905e-08
3.91374e-08
3.90923e-08
3.90417e-08
3.89972e-08
3.89492e-08
3.8905e-08
3.88605e-08
3.88153e-08
3.87771e-08
3.87295e-08
3.8682e-08
3.86308e-08
3.86049e-08
3.8958e-08
3.35612e-06
2.82729e-08
1.24451e-07
1.23604e-07
1.20406e-07
1.14919e-07
1.08259e-07
1.0147e-07
9.50857e-08
8.93555e-08
8.42847e-08
7.98582e-08
7.59736e-08
7.2588e-08
6.95976e-08
6.69792e-08
6.46434e-08
6.2585e-08
6.07284e-08
5.90834e-08
5.75839e-08
5.62502e-08
5.50211e-08
5.3925e-08
5.29048e-08
5.19931e-08
5.11356e-08
5.0369e-08
4.9641e-08
4.89916e-08
4.83668e-08
4.78115e-08
4.72723e-08
4.67948e-08
4.63249e-08
4.59112e-08
4.54995e-08
4.51399e-08
4.47772e-08
4.44633e-08
4.41423e-08
4.38672e-08
4.35814e-08
4.33393e-08
4.3083e-08
4.28688e-08
4.26397e-08
4.24504e-08
4.22434e-08
4.20752e-08
4.18891e-08
4.17397e-08
4.15694e-08
4.14383e-08
4.12842e-08
4.11681e-08
4.1026e-08
4.09214e-08
4.07962e-08
4.07014e-08
4.05863e-08
4.05047e-08
4.03939e-08
4.03222e-08
4.0221e-08
4.01561e-08
4.00632e-08
4.00053e-08
3.99183e-08
3.98601e-08
3.97853e-08
3.97307e-08
3.96619e-08
3.96091e-08
3.95478e-08
3.94978e-08
3.9439e-08
3.93891e-08
3.93309e-08
3.92822e-08
3.92261e-08
3.91796e-08
3.91261e-08
3.9081e-08
3.90301e-08
3.89855e-08
3.89373e-08
3.88929e-08
3.88482e-08
3.88029e-08
3.87644e-08
3.87168e-08
3.86689e-08
3.86176e-08
3.85914e-08
3.89506e-08
3.36724e-06
2.90824e-08
1.24447e-07
1.23606e-07
1.20431e-07
1.14974e-07
1.08338e-07
1.01563e-07
9.5185e-08
8.94557e-08
8.43824e-08
7.99516e-08
7.60616e-08
7.26703e-08
6.96742e-08
6.70502e-08
6.47091e-08
6.26455e-08
6.07843e-08
5.91349e-08
5.76313e-08
5.62938e-08
5.50612e-08
5.39619e-08
5.29387e-08
5.20242e-08
5.11642e-08
5.03952e-08
4.96649e-08
4.90134e-08
4.83866e-08
4.78296e-08
4.72887e-08
4.68096e-08
4.63382e-08
4.59232e-08
4.55101e-08
4.51493e-08
4.47854e-08
4.44704e-08
4.41483e-08
4.38722e-08
4.35855e-08
4.33426e-08
4.30854e-08
4.28705e-08
4.26406e-08
4.24506e-08
4.22429e-08
4.2074e-08
4.18873e-08
4.17374e-08
4.15664e-08
4.14349e-08
4.12801e-08
4.11636e-08
4.1021e-08
4.09159e-08
4.07903e-08
4.06951e-08
4.05795e-08
4.04976e-08
4.03864e-08
4.03144e-08
4.02128e-08
4.01477e-08
4.00544e-08
3.99962e-08
3.99089e-08
3.98505e-08
3.97754e-08
3.97207e-08
3.96517e-08
3.95988e-08
3.95371e-08
3.9487e-08
3.9428e-08
3.9378e-08
3.93196e-08
3.92707e-08
3.92144e-08
3.91677e-08
3.9114e-08
3.90687e-08
3.90175e-08
3.89728e-08
3.89243e-08
3.88799e-08
3.88349e-08
3.87895e-08
3.87506e-08
3.8703e-08
3.86548e-08
3.86033e-08
3.85768e-08
3.89428e-08
3.37908e-06
2.99961e-08
1.24443e-07
1.23607e-07
1.20459e-07
1.15034e-07
1.08423e-07
1.01663e-07
9.52926e-08
8.95643e-08
8.44885e-08
8.0053e-08
7.61573e-08
7.27599e-08
6.97576e-08
6.71275e-08
6.47806e-08
6.27116e-08
6.08452e-08
5.91911e-08
5.7683e-08
5.63415e-08
5.51051e-08
5.40022e-08
5.29757e-08
5.20583e-08
5.11954e-08
5.04238e-08
4.96911e-08
4.90373e-08
4.84085e-08
4.78494e-08
4.73067e-08
4.68259e-08
4.63528e-08
4.59363e-08
4.55218e-08
4.51597e-08
4.47944e-08
4.44783e-08
4.41551e-08
4.38779e-08
4.35901e-08
4.33463e-08
4.30882e-08
4.28724e-08
4.26417e-08
4.2451e-08
4.22424e-08
4.2073e-08
4.18854e-08
4.1735e-08
4.15633e-08
4.14312e-08
4.12759e-08
4.11588e-08
4.10157e-08
4.09102e-08
4.0784e-08
4.06884e-08
4.05723e-08
4.049e-08
4.03784e-08
4.0306e-08
4.02041e-08
4.01386e-08
4.00449e-08
3.99864e-08
3.98989e-08
3.98402e-08
3.97648e-08
3.97099e-08
3.96406e-08
3.95877e-08
3.95256e-08
3.94754e-08
3.94161e-08
3.9366e-08
3.93073e-08
3.92583e-08
3.92017e-08
3.91549e-08
3.91009e-08
3.90554e-08
3.9004e-08
3.89592e-08
3.89104e-08
3.88658e-08
3.88205e-08
3.8775e-08
3.87358e-08
3.86881e-08
3.86395e-08
3.85879e-08
3.85611e-08
3.89344e-08
3.39144e-06
3.10275e-08
1.24438e-07
1.23609e-07
1.20488e-07
1.15098e-07
1.08515e-07
1.01771e-07
9.54086e-08
8.96816e-08
8.46032e-08
8.01627e-08
7.6261e-08
7.28569e-08
6.9848e-08
6.72113e-08
6.48582e-08
6.27833e-08
6.09114e-08
5.92521e-08
5.77393e-08
5.63933e-08
5.51528e-08
5.40461e-08
5.30161e-08
5.20954e-08
5.12294e-08
5.0455e-08
4.97196e-08
4.90635e-08
4.84323e-08
4.78712e-08
4.73264e-08
4.68438e-08
4.63689e-08
4.59508e-08
4.55347e-08
4.51711e-08
4.48044e-08
4.4487e-08
4.41626e-08
4.38843e-08
4.35954e-08
4.33505e-08
4.30914e-08
4.28747e-08
4.2643e-08
4.24515e-08
4.22421e-08
4.20719e-08
4.18836e-08
4.17325e-08
4.15602e-08
4.14275e-08
4.12714e-08
4.11539e-08
4.10101e-08
4.09041e-08
4.07773e-08
4.06813e-08
4.05646e-08
4.0482e-08
4.03699e-08
4.02971e-08
4.01948e-08
4.01289e-08
4.00349e-08
3.99759e-08
3.98881e-08
3.98292e-08
3.97535e-08
3.96984e-08
3.96288e-08
3.95759e-08
3.95133e-08
3.94631e-08
3.94035e-08
3.93532e-08
3.92943e-08
3.92451e-08
3.91882e-08
3.91412e-08
3.90869e-08
3.90413e-08
3.89895e-08
3.89445e-08
3.88954e-08
3.88507e-08
3.88051e-08
3.87595e-08
3.87199e-08
3.86721e-08
3.86232e-08
3.85713e-08
3.85442e-08
3.89254e-08
3.40407e-06
3.21901e-08
1.24433e-07
1.2361e-07
1.20519e-07
1.15166e-07
1.08612e-07
1.01887e-07
9.55331e-08
8.98077e-08
8.47266e-08
8.02809e-08
7.63727e-08
7.29616e-08
6.99455e-08
6.73019e-08
6.4942e-08
6.28608e-08
6.0983e-08
5.93182e-08
5.78002e-08
5.64494e-08
5.52045e-08
5.40937e-08
5.30599e-08
5.21356e-08
5.12664e-08
5.04889e-08
4.97507e-08
4.90919e-08
4.84582e-08
4.78948e-08
4.73479e-08
4.68633e-08
4.63865e-08
4.59666e-08
4.55488e-08
4.51837e-08
4.48155e-08
4.44967e-08
4.41709e-08
4.38914e-08
4.36012e-08
4.33553e-08
4.30951e-08
4.28774e-08
4.26447e-08
4.24524e-08
4.2242e-08
4.20711e-08
4.18819e-08
4.17301e-08
4.15569e-08
4.14236e-08
4.12668e-08
4.11487e-08
4.10043e-08
4.08977e-08
4.07703e-08
4.06739e-08
4.05565e-08
4.04736e-08
4.0361e-08
4.02878e-08
4.01849e-08
4.01187e-08
4.00242e-08
3.99649e-08
3.98768e-08
3.98175e-08
3.97415e-08
3.96862e-08
3.96162e-08
3.95632e-08
3.95003e-08
3.94499e-08
3.939e-08
3.93395e-08
3.92803e-08
3.9231e-08
3.91738e-08
3.91266e-08
3.90719e-08
3.90262e-08
3.8974e-08
3.89289e-08
3.88794e-08
3.88346e-08
3.87886e-08
3.87429e-08
3.87029e-08
3.86551e-08
3.86057e-08
3.85537e-08
3.85261e-08
3.89158e-08
3.41665e-06
3.34981e-08
1.24428e-07
1.23611e-07
1.20552e-07
1.15238e-07
1.08716e-07
1.02011e-07
9.56664e-08
8.99428e-08
8.4859e-08
8.04078e-08
7.64927e-08
7.30741e-08
7.00505e-08
6.73993e-08
6.50324e-08
6.29443e-08
6.10602e-08
5.93894e-08
5.78659e-08
5.651e-08
5.52603e-08
5.41451e-08
5.31072e-08
5.21791e-08
5.13064e-08
5.05257e-08
4.97844e-08
4.91228e-08
4.84864e-08
4.79205e-08
4.73712e-08
4.68845e-08
4.64056e-08
4.59838e-08
4.55642e-08
4.51975e-08
4.48276e-08
4.45074e-08
4.418e-08
4.38993e-08
4.36077e-08
4.33607e-08
4.30993e-08
4.28806e-08
4.26467e-08
4.24535e-08
4.22422e-08
4.20704e-08
4.18802e-08
4.17278e-08
4.15537e-08
4.14197e-08
4.12622e-08
4.11434e-08
4.09983e-08
4.08912e-08
4.0763e-08
4.06662e-08
4.05481e-08
4.04647e-08
4.03515e-08
4.02779e-08
4.01746e-08
4.01079e-08
4.00129e-08
3.99532e-08
3.98647e-08
3.98052e-08
3.97288e-08
3.96733e-08
3.96029e-08
3.95498e-08
3.94864e-08
3.94359e-08
3.93757e-08
3.93251e-08
3.92655e-08
3.9216e-08
3.91585e-08
3.91111e-08
3.9056e-08
3.90101e-08
3.89576e-08
3.89124e-08
3.88625e-08
3.88175e-08
3.87711e-08
3.87253e-08
3.86848e-08
3.86369e-08
3.85873e-08
3.85349e-08
3.8507e-08
3.89057e-08
3.4288e-06
3.49661e-08
1.24423e-07
1.23613e-07
1.20587e-07
1.15314e-07
1.08827e-07
1.02143e-07
9.58084e-08
9.0087e-08
8.50004e-08
8.05436e-08
7.66213e-08
7.31948e-08
7.01631e-08
6.7504e-08
6.51294e-08
6.30341e-08
6.11431e-08
5.9466e-08
5.79366e-08
5.65752e-08
5.53205e-08
5.42005e-08
5.31582e-08
5.22261e-08
5.13496e-08
5.05654e-08
4.98207e-08
4.91561e-08
4.85169e-08
4.79484e-08
4.73966e-08
4.69075e-08
4.64264e-08
4.60027e-08
4.5581e-08
4.52125e-08
4.48409e-08
4.45191e-08
4.41902e-08
4.3908e-08
4.3615e-08
4.33667e-08
4.31041e-08
4.28842e-08
4.26492e-08
4.2455e-08
4.22426e-08
4.20699e-08
4.18788e-08
4.17255e-08
4.15506e-08
4.14158e-08
4.12574e-08
4.1138e-08
4.09922e-08
4.08844e-08
4.07555e-08
4.06581e-08
4.05393e-08
4.04555e-08
4.03417e-08
4.02676e-08
4.01637e-08
4.00966e-08
4.00011e-08
3.99409e-08
3.98521e-08
3.97922e-08
3.97153e-08
3.96597e-08
3.95889e-08
3.95357e-08
3.94718e-08
3.94212e-08
3.93606e-08
3.93098e-08
3.92499e-08
3.92002e-08
3.91423e-08
3.90947e-08
3.90393e-08
3.89932e-08
3.89402e-08
3.88948e-08
3.88445e-08
3.87995e-08
3.87526e-08
3.87066e-08
3.86657e-08
3.86178e-08
3.85677e-08
3.85151e-08
3.84866e-08
3.88949e-08
3.44004e-06
3.66084e-08
1.24417e-07
1.23614e-07
1.20623e-07
1.15394e-07
1.08944e-07
1.02283e-07
9.59593e-08
9.02405e-08
8.51512e-08
8.06884e-08
7.67586e-08
7.33237e-08
7.02835e-08
6.76159e-08
6.52332e-08
6.31302e-08
6.12321e-08
5.95482e-08
5.80125e-08
5.66453e-08
5.53851e-08
5.42601e-08
5.32131e-08
5.22767e-08
5.13961e-08
5.06081e-08
4.986e-08
4.91921e-08
4.85499e-08
4.79785e-08
4.7424e-08
4.69325e-08
4.64491e-08
4.60231e-08
4.55994e-08
4.5229e-08
4.48555e-08
4.45319e-08
4.42013e-08
4.39177e-08
4.36232e-08
4.33735e-08
4.31095e-08
4.28885e-08
4.26522e-08
4.24569e-08
4.22434e-08
4.20697e-08
4.18775e-08
4.17234e-08
4.15475e-08
4.14119e-08
4.12526e-08
4.11325e-08
4.09859e-08
4.08774e-08
4.07477e-08
4.06498e-08
4.05302e-08
4.04459e-08
4.03315e-08
4.02569e-08
4.01524e-08
4.00849e-08
3.99888e-08
3.99281e-08
3.98389e-08
3.97786e-08
3.97013e-08
3.96454e-08
3.95742e-08
3.95209e-08
3.94564e-08
3.94058e-08
3.93447e-08
3.92938e-08
3.92335e-08
3.91836e-08
3.91253e-08
3.90775e-08
3.90216e-08
3.89753e-08
3.8922e-08
3.88764e-08
3.88256e-08
3.87804e-08
3.87331e-08
3.8687e-08
3.86455e-08
3.85975e-08
3.85472e-08
3.84942e-08
3.84652e-08
3.88835e-08
3.44984e-06
3.84396e-08
1.24411e-07
1.23615e-07
1.2066e-07
1.15478e-07
1.09067e-07
1.02431e-07
9.61192e-08
9.04035e-08
8.53115e-08
8.08426e-08
7.69049e-08
7.34612e-08
7.04119e-08
6.77355e-08
6.53442e-08
6.3233e-08
6.13272e-08
5.96362e-08
5.80938e-08
5.67203e-08
5.54544e-08
5.4324e-08
5.3272e-08
5.2331e-08
5.14461e-08
5.06541e-08
4.99023e-08
4.92309e-08
4.85854e-08
4.80111e-08
4.74536e-08
4.69595e-08
4.64736e-08
4.60453e-08
4.56193e-08
4.52469e-08
4.48713e-08
4.4546e-08
4.42136e-08
4.39283e-08
4.36322e-08
4.33812e-08
4.31156e-08
4.28934e-08
4.26557e-08
4.24593e-08
4.22445e-08
4.20699e-08
4.18765e-08
4.17215e-08
4.15445e-08
4.14082e-08
4.12479e-08
4.1127e-08
4.09796e-08
4.08703e-08
4.07398e-08
4.06413e-08
4.05209e-08
4.04361e-08
4.0321e-08
4.02458e-08
4.01407e-08
4.00727e-08
3.9976e-08
3.99148e-08
3.98252e-08
3.97645e-08
3.96866e-08
3.96305e-08
3.95588e-08
3.95054e-08
3.94404e-08
3.93897e-08
3.93281e-08
3.9277e-08
3.92164e-08
3.91662e-08
3.91075e-08
3.90594e-08
3.90031e-08
3.89566e-08
3.89028e-08
3.8857e-08
3.88058e-08
3.87604e-08
3.87126e-08
3.86663e-08
3.86243e-08
3.85763e-08
3.85255e-08
3.84723e-08
3.84427e-08
3.88714e-08
3.45757e-06
4.04738e-08
1.24405e-07
1.23616e-07
1.20699e-07
1.15567e-07
1.09196e-07
1.02587e-07
9.62883e-08
9.0576e-08
8.54815e-08
8.10063e-08
7.70603e-08
7.36074e-08
7.05487e-08
6.78628e-08
6.54625e-08
6.33427e-08
6.14288e-08
5.97301e-08
5.81807e-08
5.68006e-08
5.55285e-08
5.43924e-08
5.33351e-08
5.23892e-08
5.14997e-08
5.07035e-08
4.99477e-08
4.92727e-08
4.86237e-08
4.80461e-08
4.74856e-08
4.69887e-08
4.65001e-08
4.60694e-08
4.5641e-08
4.52664e-08
4.48887e-08
4.45614e-08
4.42271e-08
4.39401e-08
4.36423e-08
4.33897e-08
4.31226e-08
4.2899e-08
4.26599e-08
4.24623e-08
4.22462e-08
4.20704e-08
4.18759e-08
4.17199e-08
4.15418e-08
4.14045e-08
4.12432e-08
4.11216e-08
4.09732e-08
4.08632e-08
4.07318e-08
4.06326e-08
4.05113e-08
4.0426e-08
4.03102e-08
4.02344e-08
4.01286e-08
4.006e-08
3.99628e-08
3.99011e-08
3.9811e-08
3.97498e-08
3.96713e-08
3.96149e-08
3.95428e-08
3.94892e-08
3.94237e-08
3.93729e-08
3.93108e-08
3.92595e-08
3.91984e-08
3.9148e-08
3.90889e-08
3.90405e-08
3.89838e-08
3.8937e-08
3.88827e-08
3.88368e-08
3.8785e-08
3.87394e-08
3.86912e-08
3.86447e-08
3.86021e-08
3.8554e-08
3.85029e-08
3.84493e-08
3.84192e-08
3.88585e-08
3.46253e-06
4.27243e-08
1.24398e-07
1.23616e-07
1.2074e-07
1.15659e-07
1.09332e-07
1.02751e-07
9.64666e-08
9.07584e-08
8.56614e-08
8.11797e-08
7.72252e-08
7.37627e-08
7.0694e-08
6.79982e-08
6.55884e-08
6.34595e-08
6.1537e-08
5.98303e-08
5.82733e-08
5.68862e-08
5.56076e-08
5.44656e-08
5.34026e-08
5.24515e-08
5.15571e-08
5.07565e-08
4.99964e-08
4.93175e-08
4.86648e-08
4.80838e-08
4.75201e-08
4.70202e-08
4.65287e-08
4.60954e-08
4.56644e-08
4.52875e-08
4.49076e-08
4.45783e-08
4.42419e-08
4.39531e-08
4.36534e-08
4.33992e-08
4.31305e-08
4.29054e-08
4.26648e-08
4.24659e-08
4.22484e-08
4.20715e-08
4.18756e-08
4.17187e-08
4.15394e-08
4.14011e-08
4.12387e-08
4.11162e-08
4.09669e-08
4.0856e-08
4.07237e-08
4.06239e-08
4.05016e-08
4.04157e-08
4.02991e-08
4.02227e-08
4.01162e-08
4.00471e-08
3.99492e-08
3.98869e-08
3.97963e-08
3.97346e-08
3.96554e-08
3.95988e-08
3.95262e-08
3.94725e-08
3.94063e-08
3.93554e-08
3.92928e-08
3.92413e-08
3.91798e-08
3.91291e-08
3.90695e-08
3.90209e-08
3.89637e-08
3.89167e-08
3.88618e-08
3.88157e-08
3.87634e-08
3.87176e-08
3.86688e-08
3.86222e-08
3.85789e-08
3.85308e-08
3.84792e-08
3.84254e-08
3.83945e-08
3.88449e-08
3.46394e-06
4.52032e-08
1.24391e-07
1.23617e-07
1.20781e-07
1.15755e-07
1.09474e-07
1.02923e-07
9.66542e-08
9.09506e-08
8.58513e-08
8.13631e-08
7.73998e-08
7.39272e-08
7.08482e-08
6.8142e-08
6.57221e-08
6.35836e-08
6.16521e-08
5.99369e-08
5.8372e-08
5.69775e-08
5.56921e-08
5.45436e-08
5.34747e-08
5.25181e-08
5.16185e-08
5.08131e-08
5.00485e-08
4.93655e-08
4.87089e-08
4.81244e-08
4.75572e-08
4.70541e-08
4.65596e-08
4.61235e-08
4.56898e-08
4.53105e-08
4.49281e-08
4.45967e-08
4.42581e-08
4.39674e-08
4.36657e-08
4.34098e-08
4.31393e-08
4.29127e-08
4.26705e-08
4.24702e-08
4.22513e-08
4.20731e-08
4.18759e-08
4.17179e-08
4.15373e-08
4.1398e-08
4.12344e-08
4.1111e-08
4.09607e-08
4.0849e-08
4.07156e-08
4.06151e-08
4.04918e-08
4.04052e-08
4.02878e-08
4.02108e-08
4.01036e-08
4.00338e-08
3.99352e-08
3.98723e-08
3.97812e-08
3.9719e-08
3.96392e-08
3.95822e-08
3.95091e-08
3.94552e-08
3.93884e-08
3.93374e-08
3.92741e-08
3.92225e-08
3.91605e-08
3.91096e-08
3.90494e-08
3.90006e-08
3.89428e-08
3.88955e-08
3.88401e-08
3.87937e-08
3.87409e-08
3.86949e-08
3.86455e-08
3.85987e-08
3.85548e-08
3.85066e-08
3.84545e-08
3.84005e-08
3.83689e-08
3.88304e-08
3.46097e-06
4.79207e-08
1.24384e-07
1.23617e-07
1.20824e-07
1.15854e-07
1.09622e-07
1.03103e-07
9.68512e-08
9.11529e-08
8.60516e-08
8.15567e-08
7.75842e-08
7.41012e-08
7.10114e-08
6.82943e-08
6.58639e-08
6.37153e-08
6.17743e-08
6.00502e-08
5.8477e-08
5.70747e-08
5.5782e-08
5.46267e-08
5.35516e-08
5.25891e-08
5.16842e-08
5.08737e-08
5.01043e-08
4.9417e-08
4.87562e-08
4.81679e-08
4.7597e-08
4.70906e-08
4.65929e-08
4.61539e-08
4.57173e-08
4.53354e-08
4.49505e-08
4.46167e-08
4.42758e-08
4.39831e-08
4.36793e-08
4.34217e-08
4.31493e-08
4.29211e-08
4.26771e-08
4.24754e-08
4.22549e-08
4.20754e-08
4.18767e-08