/*--------------------------------*- C++ -*----------------------------------*\
| =========                 |                                                 |
| \\      /  F ield         | OpenFOAM: The Open Source CFD Toolbox           |
|  \\    /   O peration     | Version:  v2012                                 |
|   \\  /    A nd           | Website:  www.openfoam.com                      |
|    \\/     M anipulation  |                                                 |
\*---------------------------------------------------------------------------*/
FoamFile
{
    version     2.0;
    format      ascii;
    class       volVectorField;
    location    "45";
    object      wallShearStress;
}
// * * * * * * * * * * * * * * * * * * * * * * * * * * * * * * * * * * * * * //

dimensions      [0 2 -2 0 0 0 0];


internalField   uniform (0 0 0);

boundaryField
{
    inlet
    {
        type            calculated;
        value           uniform (0 0 0);
    }
    outlet
    {
        type            calculated;
        value           uniform (0 0 0);
    }
    topWall
    {
        type            calculated;
        value           nonuniform List<vector> 
545
(
(6.81836e-08 -4.79943e-08 0)
(6.81584e-08 -1.34272e-07 0)
(6.8103e-08 -2.23957e-07 0)
(6.80409e-08 -3.11037e-07 0)
(6.7964e-08 -3.94397e-07 0)
(6.78741e-08 -4.75108e-07 0)
(6.77715e-08 -5.53858e-07 0)
(6.76573e-08 -6.30608e-07 0)
(6.75322e-08 -7.0519e-07 0)
(6.73974e-08 -7.77602e-07 0)
(6.72537e-08 -8.4794e-07 0)
(6.71021e-08 -9.16283e-07 0)
(6.69433e-08 -9.82679e-07 0)
(6.67781e-08 -1.04717e-06 0)
(6.66071e-08 -1.10979e-06 0)
(6.64311e-08 -1.17061e-06 0)
(6.62507e-08 -1.22966e-06 0)
(6.60665e-08 -1.287e-06 0)
(6.58789e-08 -1.34267e-06 0)
(6.56886e-08 -1.39672e-06 0)
(6.5496e-08 -1.44918e-06 0)
(6.53015e-08 -1.50011e-06 0)
(6.51056e-08 -1.54956e-06 0)
(6.49086e-08 -1.59755e-06 0)
(6.47109e-08 -1.64413e-06 0)
(6.45129e-08 -1.68935e-06 0)
(6.43147e-08 -1.73324e-06 0)
(6.41168e-08 -1.77584e-06 0)
(6.39194e-08 -1.81719e-06 0)
(6.37227e-08 -1.85733e-06 0)
(6.35269e-08 -1.89629e-06 0)
(6.33323e-08 -1.9341e-06 0)
(6.31389e-08 -1.9708e-06 0)
(6.29471e-08 -2.00643e-06 0)
(6.2757e-08 -2.04101e-06 0)
(6.25686e-08 -2.07458e-06 0)
(6.23822e-08 -2.10717e-06 0)
(6.21978e-08 -2.1388e-06 0)
(6.20155e-08 -2.16951e-06 0)
(6.18355e-08 -2.19932e-06 0)
(6.16578e-08 -2.22826e-06 0)
(6.14824e-08 -2.25636e-06 0)
(6.13095e-08 -2.28364e-06 0)
(6.11391e-08 -2.31013e-06 0)
(6.09712e-08 -2.33584e-06 0)
(6.08059e-08 -2.36081e-06 0)
(6.06432e-08 -2.38506e-06 0)
(6.04831e-08 -2.4086e-06 0)
(6.03257e-08 -2.43146e-06 0)
(6.0171e-08 -2.45367e-06 0)
(6.00189e-08 -2.47523e-06 0)
(5.98695e-08 -2.49617e-06 0)
(5.97228e-08 -2.51651e-06 0)
(5.95787e-08 -2.53626e-06 0)
(5.94373e-08 -2.55545e-06 0)
(5.92986e-08 -2.57409e-06 0)
(5.91624e-08 -2.59219e-06 0)
(5.90289e-08 -2.60978e-06 0)
(5.8898e-08 -2.62686e-06 0)
(5.87697e-08 -2.64346e-06 0)
(5.86439e-08 -2.65958e-06 0)
(5.85207e-08 -2.67525e-06 0)
(5.83999e-08 -2.69047e-06 0)
(5.82816e-08 -2.70526e-06 0)
(5.81657e-08 -2.71963e-06 0)
(5.80523e-08 -2.73359e-06 0)
(5.79412e-08 -2.74716e-06 0)
(5.78324e-08 -2.76035e-06 0)
(5.7726e-08 -2.77317e-06 0)
(5.76217e-08 -2.78562e-06 0)
(5.75198e-08 -2.79773e-06 0)
(5.74197e-08 -2.80947e-06 0)
(5.73227e-08 -2.82078e-06 0)
(5.72291e-08 -2.83175e-06 0)
(5.71362e-08 -2.84259e-06 0)
(5.70437e-08 -2.85338e-06 0)
(5.69512e-08 -2.86412e-06 0)
(5.68588e-08 -2.8748e-06 0)
(5.67666e-08 -2.88541e-06 0)
(5.66744e-08 -2.89595e-06 0)
(5.65823e-08 -2.90642e-06 0)
(5.64903e-08 -2.91683e-06 0)
(5.63985e-08 -2.92718e-06 0)
(5.63067e-08 -2.93746e-06 0)
(5.6215e-08 -2.94768e-06 0)
(5.61235e-08 -2.95783e-06 0)
(5.6032e-08 -2.96793e-06 0)
(5.59407e-08 -2.97796e-06 0)
(5.58495e-08 -2.98792e-06 0)
(5.57585e-08 -2.99783e-06 0)
(5.56675e-08 -3.00767e-06 0)
(5.55767e-08 -3.01745e-06 0)
(5.54861e-08 -3.02718e-06 0)
(5.53953e-08 -3.03683e-06 0)
(5.53058e-08 -3.04649e-06 0)
(5.52108e-08 -3.05589e-06 0)
(5.51207e-08 -3.06453e-06 0)
(5.5044e-08 -3.07244e-06 0)
(5.49694e-08 -3.08006e-06 0)
(5.48954e-08 -3.08772e-06 0)
(5.48213e-08 -3.09546e-06 0)
(5.47468e-08 -3.10322e-06 0)
(5.4672e-08 -3.11097e-06 0)
(5.45968e-08 -3.11872e-06 0)
(5.45213e-08 -3.12648e-06 0)
(5.44455e-08 -3.13426e-06 0)
(5.43693e-08 -3.14203e-06 0)
(5.42927e-08 -3.14982e-06 0)
(5.42158e-08 -3.15761e-06 0)
(5.41385e-08 -3.16541e-06 0)
(5.40609e-08 -3.17322e-06 0)
(5.39829e-08 -3.18104e-06 0)
(5.39046e-08 -3.18886e-06 0)
(5.38259e-08 -3.19669e-06 0)
(5.37468e-08 -3.20452e-06 0)
(5.36674e-08 -3.21236e-06 0)
(5.35877e-08 -3.22021e-06 0)
(5.35075e-08 -3.22807e-06 0)
(5.3427e-08 -3.23593e-06 0)
(5.33461e-08 -3.2438e-06 0)
(5.32649e-08 -3.25168e-06 0)
(5.31833e-08 -3.25956e-06 0)
(5.31013e-08 -3.26745e-06 0)
(5.3019e-08 -3.27535e-06 0)
(5.29363e-08 -3.28325e-06 0)
(5.28532e-08 -3.29116e-06 0)
(5.27698e-08 -3.29907e-06 0)
(5.26859e-08 -3.30699e-06 0)
(5.26017e-08 -3.31492e-06 0)
(5.25172e-08 -3.32285e-06 0)
(5.24322e-08 -3.33079e-06 0)
(5.23469e-08 -3.33873e-06 0)
(5.22612e-08 -3.34668e-06 0)
(5.21751e-08 -3.35464e-06 0)
(5.20887e-08 -3.3626e-06 0)
(5.20018e-08 -3.37057e-06 0)
(5.19146e-08 -3.37854e-06 0)
(5.1827e-08 -3.38652e-06 0)
(5.1739e-08 -3.3945e-06 0)
(5.16507e-08 -3.40249e-06 0)
(5.15619e-08 -3.41048e-06 0)
(5.14728e-08 -3.41848e-06 0)
(5.13833e-08 -3.42648e-06 0)
(5.12934e-08 -3.43449e-06 0)
(5.12031e-08 -3.4425e-06 0)
(5.11124e-08 -3.45052e-06 0)
(5.10213e-08 -3.45854e-06 0)
(5.09298e-08 -3.46657e-06 0)
(5.0838e-08 -3.4746e-06 0)
(5.07458e-08 -3.48264e-06 0)
(5.06531e-08 -3.49068e-06 0)
(5.05601e-08 -3.49872e-06 0)
(5.04667e-08 -3.50677e-06 0)
(5.03729e-08 -3.51482e-06 0)
(5.02787e-08 -3.52288e-06 0)
(5.01841e-08 -3.53094e-06 0)
(5.00891e-08 -3.539e-06 0)
(4.99937e-08 -3.54707e-06 0)
(4.98979e-08 -3.55514e-06 0)
(4.98017e-08 -3.56321e-06 0)
(4.97051e-08 -3.57129e-06 0)
(4.96081e-08 -3.57937e-06 0)
(4.95107e-08 -3.58746e-06 0)
(4.94129e-08 -3.59554e-06 0)
(4.93148e-08 -3.60363e-06 0)
(4.92162e-08 -3.61173e-06 0)
(4.91172e-08 -3.61982e-06 0)
(4.90178e-08 -3.62792e-06 0)
(4.8918e-08 -3.63602e-06 0)
(4.88178e-08 -3.64413e-06 0)
(4.87172e-08 -3.65223e-06 0)
(4.86162e-08 -3.66034e-06 0)
(4.85148e-08 -3.66845e-06 0)
(4.8413e-08 -3.67657e-06 0)
(4.83108e-08 -3.68468e-06 0)
(4.82081e-08 -3.6928e-06 0)
(4.81051e-08 -3.70092e-06 0)
(4.80017e-08 -3.70904e-06 0)
(4.78978e-08 -3.71716e-06 0)
(4.77936e-08 -3.72528e-06 0)
(4.76889e-08 -3.73341e-06 0)
(4.75839e-08 -3.74154e-06 0)
(4.74784e-08 -3.74966e-06 0)
(4.73725e-08 -3.75779e-06 0)
(4.72662e-08 -3.76592e-06 0)
(4.71595e-08 -3.77405e-06 0)
(4.70524e-08 -3.78218e-06 0)
(4.69449e-08 -3.79031e-06 0)
(4.68369e-08 -3.79845e-06 0)
(4.67286e-08 -3.80658e-06 0)
(4.66199e-08 -3.81471e-06 0)
(4.65107e-08 -3.82284e-06 0)
(4.64011e-08 -3.83098e-06 0)
(4.62912e-08 -3.83911e-06 0)
(4.61808e-08 -3.84724e-06 0)
(4.607e-08 -3.85537e-06 0)
(4.59588e-08 -3.86351e-06 0)
(4.58472e-08 -3.87164e-06 0)
(4.57351e-08 -3.87977e-06 0)
(4.56227e-08 -3.8879e-06 0)
(4.55098e-08 -3.89603e-06 0)
(4.53966e-08 -3.90415e-06 0)
(4.52829e-08 -3.91228e-06 0)
(4.51688e-08 -3.92041e-06 0)
(4.50543e-08 -3.92853e-06 0)
(4.49394e-08 -3.93665e-06 0)
(4.48241e-08 -3.94477e-06 0)
(4.47084e-08 -3.95289e-06 0)
(4.45923e-08 -3.96101e-06 0)
(4.44758e-08 -3.96912e-06 0)
(4.43588e-08 -3.97724e-06 0)
(4.42415e-08 -3.98535e-06 0)
(4.41237e-08 -3.99345e-06 0)
(4.40055e-08 -4.00156e-06 0)
(4.3887e-08 -4.00966e-06 0)
(4.3768e-08 -4.01776e-06 0)
(4.36486e-08 -4.02586e-06 0)
(4.35288e-08 -4.03395e-06 0)
(4.34086e-08 -4.04204e-06 0)
(4.3288e-08 -4.05013e-06 0)
(4.3167e-08 -4.05821e-06 0)
(4.30456e-08 -4.06629e-06 0)
(4.29237e-08 -4.07437e-06 0)
(4.28015e-08 -4.08244e-06 0)
(4.26789e-08 -4.09051e-06 0)
(4.25559e-08 -4.09857e-06 0)
(4.24324e-08 -4.10663e-06 0)
(4.23086e-08 -4.11469e-06 0)
(4.21844e-08 -4.12273e-06 0)
(4.20598e-08 -4.13078e-06 0)
(4.19347e-08 -4.13882e-06 0)
(4.18093e-08 -4.14686e-06 0)
(4.16835e-08 -4.15489e-06 0)
(4.15573e-08 -4.16291e-06 0)
(4.14307e-08 -4.17093e-06 0)
(4.13037e-08 -4.17894e-06 0)
(4.11763e-08 -4.18695e-06 0)
(4.10485e-08 -4.19495e-06 0)
(4.09203e-08 -4.20295e-06 0)
(4.07917e-08 -4.21094e-06 0)
(4.06628e-08 -4.21892e-06 0)
(4.05334e-08 -4.2269e-06 0)
(4.04037e-08 -4.23487e-06 0)
(4.02736e-08 -4.24283e-06 0)
(4.0143e-08 -4.25079e-06 0)
(4.00122e-08 -4.25873e-06 0)
(3.98809e-08 -4.26667e-06 0)
(3.97492e-08 -4.27461e-06 0)
(3.96172e-08 -4.28253e-06 0)
(3.94848e-08 -4.29045e-06 0)
(3.9352e-08 -4.29836e-06 0)
(3.92188e-08 -4.30627e-06 0)
(3.90853e-08 -4.31416e-06 0)
(3.89514e-08 -4.32205e-06 0)
(3.88171e-08 -4.32992e-06 0)
(3.86824e-08 -4.33779e-06 0)
(3.85474e-08 -4.34565e-06 0)
(3.8412e-08 -4.3535e-06 0)
(3.82762e-08 -4.36134e-06 0)
(3.81401e-08 -4.36917e-06 0)
(3.80036e-08 -4.37699e-06 0)
(3.78668e-08 -4.38481e-06 0)
(3.77296e-08 -4.39261e-06 0)
(3.7592e-08 -4.4004e-06 0)
(3.74541e-08 -4.40818e-06 0)
(3.73158e-08 -4.41596e-06 0)
(3.7177e-08 -4.42371e-06 0)
(3.70382e-08 -4.4315e-06 0)
(3.68946e-08 -4.43915e-06 0)
(3.6758e-08 -4.44645e-06 0)
(3.6632e-08 -4.45347e-06 0)
(3.65051e-08 -4.46036e-06 0)
(3.63782e-08 -4.4673e-06 0)
(3.625e-08 -4.47434e-06 0)
(3.61205e-08 -4.48145e-06 0)
(3.59895e-08 -4.48859e-06 0)
(3.58571e-08 -4.49578e-06 0)
(3.57233e-08 -4.50303e-06 0)
(3.5588e-08 -4.51032e-06 0)
(3.54512e-08 -4.51767e-06 0)
(3.53129e-08 -4.52507e-06 0)
(3.51732e-08 -4.53252e-06 0)
(3.50319e-08 -4.54002e-06 0)
(3.48891e-08 -4.54757e-06 0)
(3.47447e-08 -4.55517e-06 0)
(3.45988e-08 -4.56282e-06 0)
(3.44513e-08 -4.57052e-06 0)
(3.43022e-08 -4.57828e-06 0)
(3.41515e-08 -4.58608e-06 0)
(3.39993e-08 -4.59393e-06 0)
(3.38454e-08 -4.60183e-06 0)
(3.36898e-08 -4.60979e-06 0)
(3.35326e-08 -4.61779e-06 0)
(3.33738e-08 -4.62584e-06 0)
(3.32133e-08 -4.63393e-06 0)
(3.30511e-08 -4.64208e-06 0)
(3.28872e-08 -4.65027e-06 0)
(3.27216e-08 -4.65852e-06 0)
(3.25542e-08 -4.66681e-06 0)
(3.23852e-08 -4.67514e-06 0)
(3.22143e-08 -4.68352e-06 0)
(3.20418e-08 -4.69195e-06 0)
(3.18675e-08 -4.70043e-06 0)
(3.16914e-08 -4.70895e-06 0)
(3.15135e-08 -4.71751e-06 0)
(3.13338e-08 -4.72612e-06 0)
(3.11523e-08 -4.73477e-06 0)
(3.09689e-08 -4.74346e-06 0)
(3.07838e-08 -4.7522e-06 0)
(3.05968e-08 -4.76098e-06 0)
(3.0408e-08 -4.7698e-06 0)
(3.02173e-08 -4.77866e-06 0)
(3.00247e-08 -4.78756e-06 0)
(2.98303e-08 -4.7965e-06 0)
(2.96339e-08 -4.80547e-06 0)
(2.94357e-08 -4.81449e-06 0)
(2.92356e-08 -4.82353e-06 0)
(2.90336e-08 -4.83262e-06 0)
(2.88297e-08 -4.84174e-06 0)
(2.86239e-08 -4.85089e-06 0)
(2.84161e-08 -4.86008e-06 0)
(2.82064e-08 -4.8693e-06 0)
(2.79948e-08 -4.87855e-06 0)
(2.77813e-08 -4.88783e-06 0)
(2.75658e-08 -4.89713e-06 0)
(2.73484e-08 -4.90647e-06 0)
(2.7129e-08 -4.91583e-06 0)
(2.69077e-08 -4.92522e-06 0)
(2.66844e-08 -4.93463e-06 0)
(2.64592e-08 -4.94406e-06 0)
(2.6232e-08 -4.95351e-06 0)
(2.60029e-08 -4.96299e-06 0)
(2.57719e-08 -4.97248e-06 0)
(2.55389e-08 -4.98199e-06 0)
(2.5304e-08 -4.99151e-06 0)
(2.50671e-08 -5.00105e-06 0)
(2.48283e-08 -5.0106e-06 0)
(2.45876e-08 -5.02017e-06 0)
(2.43449e-08 -5.02974e-06 0)
(2.41004e-08 -5.03932e-06 0)
(2.38539e-08 -5.0489e-06 0)
(2.36056e-08 -5.05849e-06 0)
(2.33553e-08 -5.06808e-06 0)
(2.31032e-08 -5.07767e-06 0)
(2.28492e-08 -5.08726e-06 0)
(2.25934e-08 -5.09685e-06 0)
(2.23358e-08 -5.10643e-06 0)
(2.20763e-08 -5.116e-06 0)
(2.1815e-08 -5.12556e-06 0)
(2.1552e-08 -5.13512e-06 0)
(2.12872e-08 -5.14465e-06 0)
(2.10206e-08 -5.15418e-06 0)
(2.07523e-08 -5.16368e-06 0)
(2.04823e-08 -5.17317e-06 0)
(2.02107e-08 -5.18262e-06 0)
(1.99374e-08 -5.19206e-06 0)
(1.96624e-08 -5.20146e-06 0)
(1.93859e-08 -5.21084e-06 0)
(1.91078e-08 -5.22018e-06 0)
(1.88281e-08 -5.22949e-06 0)
(1.8547e-08 -5.23876e-06 0)
(1.82644e-08 -5.24799e-06 0)
(1.79803e-08 -5.25717e-06 0)
(1.76948e-08 -5.26631e-06 0)
(1.7408e-08 -5.2754e-06 0)
(1.71199e-08 -5.28444e-06 0)
(1.68305e-08 -5.29342e-06 0)
(1.65398e-08 -5.30235e-06 0)
(1.6248e-08 -5.31121e-06 0)
(1.5955e-08 -5.32001e-06 0)
(1.56609e-08 -5.32874e-06 0)
(1.53658e-08 -5.33741e-06 0)
(1.50696e-08 -5.34599e-06 0)
(1.47726e-08 -5.35451e-06 0)
(1.44746e-08 -5.36294e-06 0)
(1.41758e-08 -5.37129e-06 0)
(1.38762e-08 -5.37956e-06 0)
(1.35759e-08 -5.38774e-06 0)
(1.3275e-08 -5.39582e-06 0)
(1.29734e-08 -5.40381e-06 0)
(1.26714e-08 -5.41169e-06 0)
(1.23689e-08 -5.41948e-06 0)
(1.20659e-08 -5.42716e-06 0)
(1.17627e-08 -5.43473e-06 0)
(1.14592e-08 -5.44218e-06 0)
(1.11556e-08 -5.44953e-06 0)
(1.08518e-08 -5.45674e-06 0)
(1.0548e-08 -5.46384e-06 0)
(1.02442e-08 -5.47081e-06 0)
(9.94061e-09 -5.47765e-06 0)
(9.63719e-09 -5.48435e-06 0)
(9.33408e-09 -5.49092e-06 0)
(9.03133e-09 -5.49734e-06 0)
(8.72906e-09 -5.50363e-06 0)
(8.42731e-09 -5.50975e-06 0)
(8.12621e-09 -5.51574e-06 0)
(7.82582e-09 -5.52156e-06 0)
(7.52626e-09 -5.52723e-06 0)
(7.22759e-09 -5.53273e-06 0)
(6.92993e-09 -5.53807e-06 0)
(6.63334e-09 -5.54323e-06 0)
(6.33795e-09 -5.54823e-06 0)
(6.04383e-09 -5.55304e-06 0)
(5.7511e-09 -5.55769e-06 0)
(5.45983e-09 -5.56214e-06 0)
(5.17014e-09 -5.56641e-06 0)
(4.88211e-09 -5.57049e-06 0)
(4.59586e-09 -5.57438e-06 0)
(4.31147e-09 -5.57806e-06 0)
(4.02906e-09 -5.58157e-06 0)
(3.74871e-09 -5.58485e-06 0)
(3.47055e-09 -5.58794e-06 0)
(3.19465e-09 -5.59081e-06 0)
(2.92114e-09 -5.59349e-06 0)
(2.6501e-09 -5.59593e-06 0)
(2.38164e-09 -5.59818e-06 0)
(2.11587e-09 -5.60018e-06 0)
(1.85288e-09 -5.60199e-06 0)
(1.59278e-09 -5.60355e-06 0)
(1.33566e-09 -5.60491e-06 0)
(1.08163e-09 -5.60602e-06 0)
(8.30779e-10 -5.60692e-06 0)
(5.83208e-10 -5.60757e-06 0)
(3.39015e-10 -5.608e-06 0)
(9.829e-11 -5.60818e-06 0)
(-1.38873e-10 -5.60814e-06 0)
(-3.72385e-10 -5.60783e-06 0)
(-6.02158e-10 -5.60732e-06 0)
(-8.28102e-10 -5.60653e-06 0)
(-1.05014e-09 -5.60553e-06 0)
(-1.26818e-09 -5.60426e-06 0)
(-1.48216e-09 -5.60277e-06 0)
(-1.69198e-09 -5.60101e-06 0)
(-1.89759e-09 -5.59902e-06 0)
(-2.09889e-09 -5.59677e-06 0)
(-2.29584e-09 -5.59429e-06 0)
(-2.48835e-09 -5.59155e-06 0)
(-2.67636e-09 -5.58858e-06 0)
(-2.85981e-09 -5.58534e-06 0)
(-3.03865e-09 -5.58188e-06 0)
(-3.21279e-09 -5.57814e-06 0)
(-3.38222e-09 -5.57419e-06 0)
(-3.54684e-09 -5.56997e-06 0)
(-3.70665e-09 -5.56553e-06 0)
(-3.86155e-09 -5.56082e-06 0)
(-4.01155e-09 -5.5559e-06 0)
(-4.15651e-09 -5.55071e-06 0)
(-4.29662e-09 -5.54532e-06 0)
(-4.43084e-09 -5.5396e-06 0)
(-4.56224e-09 -5.53379e-06 0)
(-4.69946e-09 -5.52702e-06 0)
(-4.83921e-09 -5.51924e-06 0)
(-4.9727e-09 -5.51125e-06 0)
(-5.09825e-09 -5.50308e-06 0)
(-5.21522e-09 -5.49469e-06 0)
(-5.32394e-09 -5.48615e-06 0)
(-5.42453e-09 -5.4774e-06 0)
(-5.51728e-09 -5.46853e-06 0)
(-5.60236e-09 -5.45948e-06 0)
(-5.68014e-09 -5.45035e-06 0)
(-5.75077e-09 -5.44105e-06 0)
(-5.81459e-09 -5.43168e-06 0)
(-5.87174e-09 -5.42217e-06 0)
(-5.92255e-09 -5.41262e-06 0)
(-5.96713e-09 -5.40295e-06 0)
(-6.00581e-09 -5.39326e-06 0)
(-6.03868e-09 -5.38347e-06 0)
(-6.06606e-09 -5.37367e-06 0)
(-6.08803e-09 -5.36379e-06 0)
(-6.10489e-09 -5.35392e-06 0)
(-6.11671e-09 -5.34398e-06 0)
(-6.12376e-09 -5.33408e-06 0)
(-6.12611e-09 -5.32412e-06 0)
(-6.12403e-09 -5.3142e-06 0)
(-6.11757e-09 -5.30425e-06 0)
(-6.10697e-09 -5.29436e-06 0)
(-6.09227e-09 -5.28445e-06 0)
(-6.07373e-09 -5.2746e-06 0)
(-6.05135e-09 -5.26475e-06 0)
(-6.02538e-09 -5.25498e-06 0)
(-5.99582e-09 -5.24521e-06 0)
(-5.96291e-09 -5.23553e-06 0)
(-5.92664e-09 -5.22587e-06 0)
(-5.88722e-09 -5.21631e-06 0)
(-5.84466e-09 -5.20678e-06 0)
(-5.79916e-09 -5.19736e-06 0)
(-5.7507e-09 -5.18797e-06 0)
(-5.69948e-09 -5.17871e-06 0)
(-5.64549e-09 -5.16949e-06 0)
(-5.58891e-09 -5.1604e-06 0)
(-5.52972e-09 -5.15137e-06 0)
(-5.46809e-09 -5.14247e-06 0)
(-5.404e-09 -5.13363e-06 0)
(-5.33761e-09 -5.12495e-06 0)
(-5.26891e-09 -5.11633e-06 0)
(-5.19805e-09 -5.10786e-06 0)
(-5.125e-09 -5.09947e-06 0)
(-5.04991e-09 -5.09124e-06 0)
(-4.97274e-09 -5.08309e-06 0)
(-4.89365e-09 -5.07511e-06 0)
(-4.8126e-09 -5.06722e-06 0)
(-4.72973e-09 -5.05951e-06 0)
(-4.645e-09 -5.05189e-06 0)
(-4.55854e-09 -5.04444e-06 0)
(-4.47033e-09 -5.0371e-06 0)
(-4.38047e-09 -5.02994e-06 0)
(-4.28895e-09 -5.02289e-06 0)
(-4.19588e-09 -5.01603e-06 0)
(-4.10123e-09 -5.00929e-06 0)
(-4.00511e-09 -5.00273e-06 0)
(-3.9075e-09 -4.99629e-06 0)
(-3.80849e-09 -4.99005e-06 0)
(-3.70807e-09 -4.98394e-06 0)
(-3.60634e-09 -4.97802e-06 0)
(-3.50327e-09 -4.97224e-06 0)
(-3.39896e-09 -4.96666e-06 0)
(-3.2934e-09 -4.96121e-06 0)
(-3.18668e-09 -4.95597e-06 0)
(-3.07878e-09 -4.95087e-06 0)
(-2.96978e-09 -4.94597e-06 0)
(-2.85969e-09 -4.94123e-06 0)
(-2.74858e-09 -4.93669e-06 0)
(-2.63645e-09 -4.93231e-06 0)
(-2.52337e-09 -4.92813e-06 0)
(-2.40935e-09 -4.92411e-06 0)
(-2.29445e-09 -4.9203e-06 0)
(-2.17869e-09 -4.91666e-06 0)
(-2.06213e-09 -4.91322e-06 0)
(-1.94478e-09 -4.90996e-06 0)
(-1.8267e-09 -4.9069e-06 0)
(-1.70791e-09 -4.90402e-06 0)
(-1.58846e-09 -4.90135e-06 0)
(-1.46839e-09 -4.89885e-06 0)
(-1.34775e-09 -4.89657e-06 0)
(-1.22657e-09 -4.89446e-06 0)
(-1.10493e-09 -4.89259e-06 0)
(-9.8287e-10 -4.89078e-06 0)
(-8.60486e-10 -4.88962e-06 0)
(-7.3779e-10 -4.88717e-06 0)
(-6.15083e-10 -4.88978e-06 0)
(-4.91761e-10 -4.87616e-06 0)
(-3.69882e-10 -4.91514e-06 0)
(-2.43609e-10 -4.7675e-06 0)
(-1.29774e-10 -5.15877e-06 0)
(-4.1191e-11 -4.50557e-06 0)
)
;
    }
    bottomWall
    {
        type            calculated;
        value           nonuniform List<vector> 
449
(
(-52.7095 -0.955647 0)
(-34.7441 -0.00279795 0)
(-34.3557 -0.000254592 0)
(-32.9921 -0.00036374 0)
(-31.8655 -0.000315423 0)
(-30.8288 -0.000284298 0)
(-29.9116 -0.000249294 0)
(-29.1118 -0.000217378 0)
(-28.4112 -0.000190824 0)
(-27.7918 -0.000169057 0)
(-27.239 -0.000151037 0)
(-26.7422 -0.000135933 0)
(-26.2923 -0.000123277 0)
(-25.8817 -0.00011259 0)
(-25.5046 -0.000103371 0)
(-25.1568 -9.53618e-05 0)
(-24.8343 -8.83667e-05 0)
(-24.5343 -8.22293e-05 0)
(-24.2537 -7.68231e-05 0)
(-23.9906 -7.20033e-05 0)
(-23.743 -6.76794e-05 0)
(-23.5094 -6.37899e-05 0)
(-23.2884 -6.02801e-05 0)
(-23.0788 -5.70939e-05 0)
(-22.8796 -5.41929e-05 0)
(-22.6899 -5.1532e-05 0)
(-22.509 -4.9093e-05 0)
(-22.336 -4.6851e-05 0)
(-22.1704 -4.47831e-05 0)
(-22.0117 -4.28664e-05 0)
(-21.8592 -4.10904e-05 0)
(-21.7126 -3.94377e-05 0)
(-21.5715 -3.78999e-05 0)
(-21.4356 -3.6461e-05 0)
(-21.3044 -3.5116e-05 0)
(-21.1776 -3.38547e-05 0)
(-21.0551 -3.26731e-05 0)
(-20.9365 -3.15637e-05 0)
(-20.8216 -3.05197e-05 0)
(-20.7102 -2.95342e-05 0)
(-20.6021 -2.86043e-05 0)
(-20.4972 -2.77249e-05 0)
(-20.3951 -2.68923e-05 0)
(-20.2959 -2.60969e-05 0)
(-20.1994 -2.53364e-05 0)
(-20.1054 -2.46116e-05 0)
(-20.0139 -2.3918e-05 0)
(-19.9247 -2.32565e-05 0)
(-19.8378 -2.26204e-05 0)
(-19.7531 -2.20161e-05 0)
(-19.6703 -2.14379e-05 0)
(-19.5896 -2.08833e-05 0)
(-19.5107 -2.03581e-05 0)
(-19.4336 -1.98504e-05 0)
(-19.3583 -1.93694e-05 0)
(-19.2845 -1.89068e-05 0)
(-19.2124 -1.84653e-05 0)
(-19.1417 -1.80413e-05 0)
(-19.0725 -1.76347e-05 0)
(-19.0047 -1.72433e-05 0)
(-18.9383 -1.68679e-05 0)
(-18.873 -1.65057e-05 0)
(-18.8091 -1.6158e-05 0)
(-18.7463 -1.58222e-05 0)
(-18.6847 -1.54992e-05 0)
(-18.6242 -1.51874e-05 0)
(-18.5648 -1.48856e-05 0)
(-18.5063 -1.45956e-05 0)
(-18.4489 -1.43126e-05 0)
(-18.3925 -1.40421e-05 0)
(-18.337 -1.37762e-05 0)
(-18.2824 -1.35226e-05 0)
(-18.2287 -1.32736e-05 0)
(-18.1758 -1.30336e-05 0)
(-18.1238 -1.28014e-05 0)
(-18.0725 -1.25734e-05 0)
(-18.0221 -1.23557e-05 0)
(-17.9724 -1.21405e-05 0)
(-17.9235 -1.19339e-05 0)
(-17.8752 -1.17324e-05 0)
(-17.8277 -1.15351e-05 0)
(-17.7808 -1.1346e-05 0)
(-17.7346 -1.11591e-05 0)
(-17.6891 -1.09786e-05 0)
(-17.6442 -1.08033e-05 0)
(-17.5999 -1.06308e-05 0)
(-17.5562 -1.04649e-05 0)
(-17.5131 -1.0302e-05 0)
(-17.4705 -1.01428e-05 0)
(-17.4285 -9.98904e-06 0)
(-17.387 -9.83775e-06 0)
(-17.3461 -9.69064e-06 0)
(-17.3057 -9.54781e-06 0)
(-17.2657 -9.40723e-06 0)
(-17.2263 -9.27068e-06 0)
(-17.1873 -9.13765e-06 0)
(-17.1489 -9.00689e-06 0)
(-17.1108 -8.87973e-06 0)
(-17.0732 -8.75569e-06 0)
(-17.0361 -8.63385e-06 0)
(-16.9994 -8.51519e-06 0)
(-16.9631 -8.39933e-06 0)
(-16.9272 -8.2855e-06 0)
(-16.8917 -8.17453e-06 0)
(-16.8566 -8.066e-06 0)
(-16.8219 -7.95962e-06 0)
(-16.7875 -7.85549e-06 0)
(-16.7535 -7.75385e-06 0)
(-16.7199 -7.65405e-06 0)
(-16.6866 -7.5564e-06 0)
(-16.6537 -7.46085e-06 0)
(-16.6211 -7.36724e-06 0)
(-16.5889 -7.27536e-06 0)
(-16.557 -7.18546e-06 0)
(-16.5254 -7.09731e-06 0)
(-16.4941 -7.01081e-06 0)
(-16.4631 -6.92602e-06 0)
(-16.4324 -6.84294e-06 0)
(-16.402 -6.76144e-06 0)
(-16.3719 -6.68149e-06 0)
(-16.3421 -6.60304e-06 0)
(-16.3125 -6.52611e-06 0)
(-16.2833 -6.45052e-06 0)
(-16.2543 -6.37635e-06 0)
(-16.2256 -6.30354e-06 0)
(-16.1971 -6.23206e-06 0)
(-16.1689 -6.16178e-06 0)
(-16.1409 -6.09277e-06 0)
(-16.1132 -6.02503e-06 0)
(-16.0857 -5.95842e-06 0)
(-16.0585 -5.89302e-06 0)
(-16.0315 -5.8287e-06 0)
(-16.0047 -5.76566e-06 0)
(-15.9782 -5.70353e-06 0)
(-15.9519 -5.64253e-06 0)
(-15.9258 -5.58242e-06 0)
(-15.8999 -5.52348e-06 0)
(-15.8742 -5.46533e-06 0)
(-15.8487 -5.40825e-06 0)
(-15.8235 -5.35196e-06 0)
(-15.7984 -5.29684e-06 0)
(-15.7736 -5.24232e-06 0)
(-15.7489 -5.18894e-06 0)
(-15.7245 -5.13614e-06 0)
(-15.7002 -5.08455e-06 0)
(-15.6761 -5.03336e-06 0)
(-15.6522 -4.98332e-06 0)
(-15.6285 -4.93373e-06 0)
(-15.6049 -4.8853e-06 0)
(-15.5816 -4.83716e-06 0)
(-15.5584 -4.79003e-06 0)
(-15.5354 -4.74339e-06 0)
(-15.5125 -4.6977e-06 0)
(-15.4898 -4.65244e-06 0)
(-15.4673 -4.60797e-06 0)
(-15.445 -4.56413e-06 0)
(-15.4228 -4.52098e-06 0)
(-15.4007 -4.47843e-06 0)
(-15.3789 -4.43644e-06 0)
(-15.3571 -4.39514e-06 0)
(-15.3356 -4.35439e-06 0)
(-15.3141 -4.31431e-06 0)
(-15.2929 -4.2746e-06 0)
(-15.2717 -4.23563e-06 0)
(-15.2507 -4.19711e-06 0)
(-15.2299 -4.15922e-06 0)
(-15.2092 -4.12169e-06 0)
(-15.1886 -4.08473e-06 0)
(-15.1682 -4.04837e-06 0)
(-15.1478 -4.01237e-06 0)
(-15.1277 -3.9771e-06 0)
(-15.1076 -3.94194e-06 0)
(-15.0877 -3.90593e-06 0)
(-15.0691 -3.87672e-06 0)
(-15.0515 -3.84975e-06 0)
(-15.0338 -3.81833e-06 0)
(-15.0162 -3.78738e-06 0)
(-14.9985 -3.75716e-06 0)
(-14.9807 -3.72686e-06 0)
(-14.9629 -3.69699e-06 0)
(-14.945 -3.66707e-06 0)
(-14.9271 -3.63743e-06 0)
(-14.9091 -3.60786e-06 0)
(-14.8911 -3.57856e-06 0)
(-14.873 -3.5493e-06 0)
(-14.8549 -3.52021e-06 0)
(-14.8368 -3.49113e-06 0)
(-14.8186 -3.46227e-06 0)
(-14.8003 -3.43352e-06 0)
(-14.7821 -3.40493e-06 0)
(-14.7637 -3.37649e-06 0)
(-14.7454 -3.34805e-06 0)
(-14.7269 -3.31984e-06 0)
(-14.7085 -3.29169e-06 0)
(-14.69 -3.26377e-06 0)
(-14.6714 -3.23578e-06 0)
(-14.6528 -3.20806e-06 0)
(-14.6342 -3.1804e-06 0)
(-14.6155 -3.15301e-06 0)
(-14.5968 -3.12564e-06 0)
(-14.5781 -3.09845e-06 0)
(-14.5593 -3.07131e-06 0)
(-14.5405 -3.04439e-06 0)
(-14.5216 -3.01757e-06 0)
(-14.5027 -2.99087e-06 0)
(-14.4838 -2.96425e-06 0)
(-14.4648 -2.93786e-06 0)
(-14.4458 -2.91155e-06 0)
(-14.4268 -2.88544e-06 0)
(-14.4077 -2.85928e-06 0)
(-14.3886 -2.83346e-06 0)
(-14.3695 -2.80765e-06 0)
(-14.3503 -2.78218e-06 0)
(-14.3311 -2.75659e-06 0)
(-14.3119 -2.73139e-06 0)
(-14.2926 -2.70614e-06 0)
(-14.2734 -2.68126e-06 0)
(-14.254 -2.65626e-06 0)
(-14.2347 -2.63152e-06 0)
(-14.2153 -2.60687e-06 0)
(-14.1959 -2.58245e-06 0)
(-14.1765 -2.55811e-06 0)
(-14.157 -2.53389e-06 0)
(-14.1375 -2.50978e-06 0)
(-14.1181 -2.48595e-06 0)
(-14.0985 -2.46213e-06 0)
(-14.079 -2.43854e-06 0)
(-14.0594 -2.41506e-06 0)
(-14.0398 -2.39171e-06 0)
(-14.0202 -2.36866e-06 0)
(-14.0006 -2.34555e-06 0)
(-13.9809 -2.32272e-06 0)
(-13.9612 -2.29993e-06 0)
(-13.9415 -2.27746e-06 0)
(-13.9218 -2.25493e-06 0)
(-13.9021 -2.23267e-06 0)
(-13.8824 -2.21046e-06 0)
(-13.8626 -2.18855e-06 0)
(-13.8428 -2.16658e-06 0)
(-13.823 -2.14501e-06 0)
(-13.8032 -2.12338e-06 0)
(-13.7834 -2.10214e-06 0)
(-13.7636 -2.08081e-06 0)
(-13.7437 -2.0599e-06 0)
(-13.7239 -2.03879e-06 0)
(-13.704 -2.01818e-06 0)
(-13.6841 -1.99737e-06 0)
(-13.6642 -1.97701e-06 0)
(-13.6443 -1.95648e-06 0)
(-13.6244 -1.9365e-06 0)
(-13.6045 -1.91629e-06 0)
(-13.5846 -1.89659e-06 0)
(-13.5646 -1.87666e-06 0)
(-13.5447 -1.85728e-06 0)
(-13.5247 -1.83765e-06 0)
(-13.5048 -1.81854e-06 0)
(-13.4848 -1.79924e-06 0)
(-13.4649 -1.7804e-06 0)
(-13.4449 -1.76142e-06 0)
(-13.4249 -1.74282e-06 0)
(-13.405 -1.72417e-06 0)
(-13.385 -1.70588e-06 0)
(-13.365 -1.68754e-06 0)
(-13.3451 -1.66947e-06 0)
(-13.3251 -1.65144e-06 0)
(-13.3051 -1.6337e-06 0)
(-13.2851 -1.61595e-06 0)
(-13.2652 -1.59848e-06 0)
(-13.2452 -1.58109e-06 0)
(-13.2252 -1.56393e-06 0)
(-13.2053 -1.54676e-06 0)
(-13.1853 -1.52983e-06 0)
(-13.1653 -1.513e-06 0)
(-13.1454 -1.49642e-06 0)
(-13.1254 -1.47991e-06 0)
(-13.1056 -1.46348e-06 0)
(-13.0856 -1.4473e-06 0)
(-13.0657 -1.43115e-06 0)
(-13.0457 -1.41525e-06 0)
(-13.0259 -1.39938e-06 0)
(-13.0059 -1.3838e-06 0)
(-12.9861 -1.36824e-06 0)
(-12.9662 -1.35288e-06 0)
(-12.9463 -1.33757e-06 0)
(-12.9264 -1.32254e-06 0)
(-12.9066 -1.3075e-06 0)
(-12.8868 -1.2927e-06 0)
(-12.867 -1.27788e-06 0)
(-12.8471 -1.26343e-06 0)
(-12.8274 -1.24888e-06 0)
(-12.8076 -1.23473e-06 0)
(-12.7878 -1.22045e-06 0)
(-12.768 -1.2065e-06 0)
(-12.7483 -1.19249e-06 0)
(-12.7286 -1.17886e-06 0)
(-12.7089 -1.16505e-06 0)
(-12.6892 -1.15171e-06 0)
(-12.6695 -1.13814e-06 0)
(-12.6499 -1.12502e-06 0)
(-12.6302 -1.11182e-06 0)
(-12.6106 -1.09893e-06 0)
(-12.591 -1.08594e-06 0)
(-12.5714 -1.07335e-06 0)
(-12.5519 -1.06057e-06 0)
(-12.5323 -1.04815e-06 0)
(-12.5128 -1.03558e-06 0)
(-12.4933 -1.02355e-06 0)
(-12.4738 -1.01131e-06 0)
(-12.4544 -9.99415e-07 0)
(-12.4349 -9.87395e-07 0)
(-12.4155 -9.75717e-07 0)
(-12.3961 -9.63937e-07 0)
(-12.3768 -9.52516e-07 0)
(-12.3574 -9.4098e-07 0)
(-12.3381 -9.29721e-07 0)
(-12.3188 -9.1845e-07 0)
(-12.2996 -9.07451e-07 0)
(-12.2803 -8.96436e-07 0)
(-12.2612 -8.85643e-07 0)
(-12.2419 -8.7485e-07 0)
(-12.2228 -8.64317e-07 0)
(-12.2036 -8.53777e-07 0)
(-12.1846 -8.43397e-07 0)
(-12.1655 -8.33055e-07 0)
(-12.1465 -8.22912e-07 0)
(-12.1274 -8.1282e-07 0)
(-12.1085 -8.02853e-07 0)
(-12.0895 -7.92968e-07 0)
(-12.0706 -7.8319e-07 0)
(-12.0516 -7.73549e-07 0)
(-12.0328 -7.6398e-07 0)
(-12.0139 -7.54512e-07 0)
(-11.9952 -7.45133e-07 0)
(-11.9763 -7.3595e-07 0)
(-11.9576 -7.26752e-07 0)
(-11.9389 -7.17742e-07 0)
(-11.9202 -7.08734e-07 0)
(-11.9016 -6.99994e-07 0)
(-11.883 -6.91169e-07 0)
(-11.8644 -6.82602e-07 0)
(-11.8458 -6.73985e-07 0)
(-11.8273 -6.65592e-07 0)
(-11.8089 -6.57131e-07 0)
(-11.7904 -6.48936e-07 0)
(-11.772 -6.40677e-07 0)
(-11.7536 -6.32642e-07 0)
(-11.7353 -6.24586e-07 0)
(-11.7169 -6.16693e-07 0)
(-11.6987 -6.08863e-07 0)
(-11.6804 -6.01087e-07 0)
(-11.6623 -5.93453e-07 0)
(-11.6441 -5.8578e-07 0)
(-11.626 -5.7841e-07 0)
(-11.6079 -5.70771e-07 0)
(-11.5879 -5.61785e-07 0)
(-11.566 -5.52637e-07 0)
(-11.5446 -5.44494e-07 0)
(-11.5234 -5.36559e-07 0)
(-11.5026 -5.28625e-07 0)
(-11.482 -5.20935e-07 0)
(-11.4618 -5.1341e-07 0)
(-11.4418 -5.06017e-07 0)
(-11.4222 -4.98864e-07 0)
(-11.4028 -4.91851e-07 0)
(-11.3837 -4.84976e-07 0)
(-11.3648 -4.78275e-07 0)
(-11.3463 -4.71753e-07 0)
(-11.3279 -4.65343e-07 0)
(-11.3099 -4.59105e-07 0)
(-11.292 -4.53046e-07 0)
(-11.2744 -4.47046e-07 0)
(-11.257 -4.41243e-07 0)
(-11.2399 -4.35507e-07 0)
(-11.2229 -4.29971e-07 0)
(-11.2062 -4.24483e-07 0)
(-11.1897 -4.19207e-07 0)
(-11.1734 -4.13932e-07 0)
(-11.1573 -4.08853e-07 0)
(-11.1414 -4.03819e-07 0)
(-11.1257 -3.98966e-07 0)
(-11.1102 -3.94191e-07 0)
(-11.0948 -3.89473e-07 0)
(-11.0797 -3.84885e-07 0)
(-11.0647 -3.80402e-07 0)
(-11.0499 -3.75967e-07 0)
(-11.0353 -3.71633e-07 0)
(-11.0208 -3.67422e-07 0)
(-11.0065 -3.63294e-07 0)
(-10.9924 -3.59254e-07 0)
(-10.9784 -3.55264e-07 0)
(-10.9646 -3.51359e-07 0)
(-10.9509 -3.47533e-07 0)
(-10.9374 -3.43764e-07 0)
(-10.924 -3.40076e-07 0)
(-10.9108 -3.36443e-07 0)
(-10.8977 -3.32884e-07 0)
(-10.8847 -3.29408e-07 0)
(-10.8719 -3.25967e-07 0)
(-10.8592 -3.22601e-07 0)
(-10.8466 -3.19316e-07 0)
(-10.8342 -3.16066e-07 0)
(-10.8219 -3.12898e-07 0)
(-10.8097 -3.09759e-07 0)
(-10.7977 -3.06707e-07 0)
(-10.7857 -3.03694e-07 0)
(-10.7739 -3.00779e-07 0)
(-10.7622 -2.97847e-07 0)
(-10.7506 -2.95001e-07 0)
(-10.7391 -2.92216e-07 0)
(-10.7277 -2.89447e-07 0)
(-10.7165 -2.86741e-07 0)
(-10.7053 -2.84064e-07 0)
(-10.6942 -2.81446e-07 0)
(-10.6832 -2.78855e-07 0)
(-10.6724 -2.7637e-07 0)
(-10.6616 -2.73843e-07 0)
(-10.651 -2.71445e-07 0)
(-10.6404 -2.68966e-07 0)
(-10.6299 -2.66694e-07 0)
(-10.6195 -2.64263e-07 0)
(-10.6092 -2.62088e-07 0)
(-10.599 -2.5969e-07 0)
(-10.5889 -2.57674e-07 0)
(-10.5788 -2.55254e-07 0)
(-10.5689 -2.53378e-07 0)
(-10.559 -2.51016e-07 0)
(-10.5493 -2.49304e-07 0)
(-10.5395 -2.46953e-07 0)
(-10.53 -2.45402e-07 0)
(-10.5203 -2.43035e-07 0)
(-10.5109 -2.41679e-07 0)
(-10.5014 -2.39316e-07 0)
(-10.4922 -2.38085e-07 0)
(-10.4827 -2.35763e-07 0)
(-10.4738 -2.34601e-07 0)
(-10.4644 -2.32481e-07 0)
(-10.4556 -2.31257e-07 0)
(-10.4463 -2.29624e-07 0)
(-10.4376 -2.27863e-07 0)
(-10.4284 -2.27626e-07 0)
(-10.4198 -2.23761e-07 0)
(-10.4109 -2.27878e-07 0)
(-10.4019 -2.16704e-07 0)
(-10.394 -2.34213e-07 0)
(-10.3836 -2.00195e-07 0)
(-10.3784 -2.53082e-07 0)
(-10.3636 -1.67567e-07 0)
(-10.3656 -2.27195e-07 0)
(-10.3454 -2.64348e-07 0)
)
;
    }
    symmetry
    {
        type            symmetryPlane;
    }
    frontAndBack
    {
        type            empty;
    }
}


// ************************************************************************* //
