/*--------------------------------*- C++ -*----------------------------------*\
| =========                 |                                                 |
| \\      /  F ield         | OpenFOAM: The Open Source CFD Toolbox           |
|  \\    /   O peration     | Version:  v2012                                 |
|   \\  /    A nd           | Website:  www.openfoam.com                      |
|    \\/     M anipulation  |                                                 |
\*---------------------------------------------------------------------------*/
FoamFile
{
    version     2.0;
    format      ascii;
    class       volScalarField;
    location    "48.5";
    object      epsilon;
}
// * * * * * * * * * * * * * * * * * * * * * * * * * * * * * * * * * * * * * //

dimensions      [0 2 -3 0 0 0 0];


internalField   nonuniform List<scalar> 
209825
(
0.759185
0.633708
0.544972
0.483302
0.439929
0.408666
0.385427
0.367712
0.353835
0.342778
0.333762
0.326341
0.320101
0.31484
0.310305
0.306414
0.302991
0.300018
0.297356
0.295023
0.292902
0.291032
0.289307
0.287781
0.286357
0.285095
0.283902
0.282846
0.281836
0.280946
0.280082
0.279324
0.278581
0.277934
0.27729
0.276733
0.276175
0.275695
0.275206
0.274791
0.27436
0.274
0.273624
0.273314
0.272982
0.272709
0.272419
0.272185
0.271926
0.271718
0.271502
0.271314
0.271122
0.270953
0.270794
0.270664
0.270501
0.270392
0.270264
0.27015
0.270062
0.269971
0.269898
0.26982
0.269768
0.2697
0.269661
0.26964
0.269601
0.269584
0.269544
0.269549
0.269542
0.269568
0.269568
0.269621
0.269622
0.26969
0.269702
0.269779
0.269804
0.269892
0.269932
0.270038
0.270092
0.270222
0.270291
0.270452
0.270536
0.270741
0.270832
0.271135
0.271244
0.274491
3.21516
581.552
0.759185
0.633709
0.544971
0.483299
0.439924
0.408659
0.385419
0.367702
0.353824
0.342766
0.333749
0.326327
0.320087
0.314825
0.310289
0.306398
0.302975
0.300002
0.29734
0.295006
0.292885
0.291015
0.28929
0.287764
0.28634
0.285077
0.283885
0.282828
0.281819
0.280928
0.280064
0.279306
0.278563
0.277916
0.277272
0.276715
0.276156
0.275677
0.275187
0.274772
0.274342
0.273981
0.273605
0.273296
0.272963
0.27269
0.2724
0.272166
0.271907
0.271699
0.271483
0.271295
0.271103
0.270934
0.270775
0.270645
0.270482
0.270373
0.270245
0.270131
0.270043
0.269952
0.269879
0.269801
0.269749
0.269681
0.269641
0.269621
0.269582
0.269565
0.269525
0.26953
0.269522
0.269549
0.269549
0.269602
0.269602
0.26967
0.269683
0.269759
0.269784
0.269872
0.269912
0.270018
0.270073
0.270202
0.270272
0.270432
0.270516
0.270722
0.270812
0.271115
0.271225
0.274477
3.22077
578.247
0.759186
0.633709
0.544965
0.483283
0.439898
0.408626
0.385379
0.367657
0.353774
0.342713
0.333693
0.326269
0.320026
0.314763
0.310225
0.306333
0.302908
0.299934
0.297271
0.294937
0.292815
0.290944
0.289219
0.287692
0.286267
0.285004
0.283811
0.282754
0.281744
0.280853
0.279989
0.27923
0.278487
0.27784
0.277195
0.276638
0.27608
0.2756
0.27511
0.274695
0.274264
0.273904
0.273527
0.273218
0.272885
0.272612
0.272322
0.272088
0.271828
0.27162
0.271404
0.271216
0.271024
0.270855
0.270695
0.270566
0.270403
0.270293
0.270165
0.270051
0.269963
0.269872
0.269799
0.269721
0.269669
0.269601
0.269561
0.269541
0.269501
0.269484
0.269444
0.269449
0.269441
0.269468
0.269468
0.269521
0.269521
0.269589
0.269601
0.269677
0.269703
0.269791
0.26983
0.269936
0.26999
0.27012
0.270189
0.27035
0.270433
0.270639
0.270729
0.271032
0.271141
0.274403
3.23271
574.44
0.759189
0.633709
0.544953
0.483255
0.439855
0.408569
0.385311
0.367581
0.35369
0.342623
0.333598
0.326169
0.319923
0.314657
0.310117
0.306222
0.302796
0.299819
0.297155
0.294819
0.292696
0.290824
0.289097
0.28757
0.286144
0.28488
0.283686
0.282629
0.281618
0.280727
0.279862
0.279103
0.278359
0.277711
0.277067
0.276509
0.27595
0.27547
0.27498
0.274565
0.274133
0.273772
0.273396
0.273086
0.272753
0.27248
0.27219
0.271955
0.271696
0.271487
0.271271
0.271083
0.270891
0.270721
0.270561
0.270432
0.270269
0.270159
0.27003
0.269917
0.269828
0.269737
0.269664
0.269586
0.269533
0.269465
0.269425
0.269405
0.269365
0.269348
0.269308
0.269312
0.269305
0.269331
0.269331
0.269383
0.269383
0.269451
0.269464
0.26954
0.269564
0.269652
0.269692
0.269798
0.269852
0.269981
0.27005
0.27021
0.270293
0.270499
0.270589
0.270891
0.271001
0.274277
3.25143
570.897
0.759192
0.63371
0.544937
0.483217
0.439795
0.40849
0.385216
0.367472
0.353572
0.342495
0.333464
0.326029
0.319778
0.314507
0.309963
0.306065
0.302636
0.299657
0.296991
0.294653
0.292528
0.290654
0.288926
0.287397
0.28597
0.284706
0.283511
0.282452
0.281441
0.280548
0.279683
0.278923
0.278178
0.27753
0.276885
0.276327
0.275767
0.275287
0.274796
0.27438
0.273949
0.273587
0.27321
0.2729
0.272566
0.272293
0.272002
0.271768
0.271508
0.271299
0.271083
0.270894
0.270702
0.270532
0.270372
0.270242
0.270079
0.269969
0.26984
0.269726
0.269638
0.269546
0.269473
0.269395
0.269342
0.269274
0.269233
0.269213
0.269173
0.269156
0.269116
0.269119
0.269112
0.269137
0.269137
0.269189
0.269189
0.269257
0.269269
0.269345
0.269369
0.269457
0.269496
0.269602
0.269656
0.269785
0.269854
0.270013
0.270096
0.270301
0.270391
0.270693
0.270802
0.2741
3.2774
567.965
0.759197
0.633711
0.544916
0.483167
0.439716
0.408386
0.385092
0.367332
0.353418
0.342331
0.33329
0.325847
0.319589
0.314313
0.309764
0.305862
0.302429
0.299447
0.296778
0.294437
0.29231
0.290434
0.288704
0.287173
0.285745
0.284479
0.283283
0.282223
0.28121
0.280317
0.279451
0.278689
0.277944
0.277295
0.276649
0.27609
0.27553
0.275049
0.274557
0.274141
0.273709
0.273347
0.27297
0.272659
0.272325
0.272051
0.27176
0.271525
0.271265
0.271055
0.270839
0.27065
0.270457
0.270287
0.270127
0.269996
0.269833
0.269723
0.269594
0.26948
0.269391
0.269299
0.269225
0.269147
0.269094
0.269025
0.268985
0.268964
0.268924
0.268907
0.268866
0.268869
0.268861
0.268886
0.268886
0.268938
0.268938
0.269005
0.269017
0.269092
0.269116
0.269204
0.269243
0.269348
0.269401
0.26953
0.269598
0.269757
0.26984
0.270045
0.270134
0.270435
0.270544
0.273869
3.31108
565.81
0.759202
0.633712
0.544891
0.483105
0.43962
0.408259
0.38494
0.36716
0.353229
0.342128
0.333075
0.325623
0.319357
0.314074
0.309519
0.305612
0.302174
0.299188
0.296515
0.294172
0.292042
0.290163
0.288431
0.286898
0.285467
0.2842
0.283002
0.28194
0.280926
0.280032
0.279164
0.278402
0.277655
0.277005
0.276358
0.275798
0.275237
0.274756
0.274263
0.273846
0.273414
0.273051
0.272673
0.272362
0.272027
0.271753
0.271461
0.271226
0.270965
0.270755
0.270538
0.270349
0.270156
0.269985
0.269824
0.269694
0.26953
0.269419
0.26929
0.269176
0.269086
0.268994
0.26892
0.268841
0.268788
0.268719
0.268678
0.268657
0.268617
0.268599
0.268559
0.268561
0.268553
0.268577
0.268577
0.268627
0.268627
0.268694
0.268706
0.268781
0.268805
0.268892
0.26893
0.269035
0.269088
0.269216
0.269284
0.269443
0.269525
0.269729
0.269818
0.270118
0.270226
0.273585
3.35296
564.494
0.759208
0.633713
0.54486
0.483032
0.439505
0.408108
0.384759
0.366954
0.353004
0.341886
0.33282
0.325356
0.319081
0.313789
0.309227
0.305314
0.301871
0.29888
0.296203
0.293855
0.291722
0.28984
0.288105
0.28657
0.285137
0.283867
0.282667
0.281604
0.280588
0.279692
0.278823
0.278059
0.277311
0.27666
0.276012
0.275451
0.274889
0.274406
0.273913
0.273495
0.273062
0.272698
0.272319
0.272007
0.271672
0.271397
0.271105
0.270869
0.270608
0.270397
0.27018
0.26999
0.269796
0.269626
0.269464
0.269333
0.269169
0.269057
0.268928
0.268813
0.268723
0.268631
0.268557
0.268477
0.268424
0.268355
0.268313
0.268292
0.268251
0.268233
0.268192
0.268194
0.268185
0.268209
0.268208
0.268258
0.268258
0.268324
0.268335
0.26841
0.268433
0.26852
0.268558
0.268662
0.268715
0.268842
0.26891
0.269067
0.269149
0.269352
0.269441
0.26974
0.269848
0.273247
3.40348
564.006
0.759216
0.633715
0.544825
0.482947
0.439372
0.407933
0.384549
0.366716
0.352742
0.341605
0.332523
0.325046
0.318759
0.313458
0.308888
0.304967
0.301518
0.298521
0.295839
0.293487
0.29135
0.289465
0.287726
0.286188
0.284752
0.28348
0.282278
0.281212
0.280195
0.279296
0.278426
0.277661
0.276911
0.276259
0.275609
0.275047
0.274484
0.274
0.273506
0.273087
0.272652
0.272288
0.271908
0.271595
0.271259
0.270984
0.270691
0.270454
0.270192
0.269981
0.269763
0.269572
0.269378
0.269207
0.269045
0.268913
0.268749
0.268637
0.268507
0.268392
0.268301
0.268209
0.268134
0.268054
0.268
0.267931
0.267888
0.267866
0.267825
0.267807
0.267766
0.267767
0.267757
0.26778
0.26778
0.267828
0.267828
0.267893
0.267904
0.267978
0.268001
0.268087
0.268125
0.268228
0.26828
0.268407
0.268474
0.268631
0.268712
0.268914
0.269002
0.269301
0.269408
0.272855
3.46307
564.287
0.759224
0.633717
0.544786
0.482851
0.43922
0.407733
0.38431
0.366444
0.352443
0.341284
0.332184
0.324692
0.318392
0.31308
0.3085
0.304571
0.301115
0.298112
0.295424
0.293067
0.290925
0.289036
0.287294
0.285752
0.284313
0.283038
0.281833
0.280765
0.279746
0.278845
0.277973
0.277206
0.276455
0.2758
0.275149
0.274586
0.274021
0.273536
0.273041
0.272621
0.272185
0.27182
0.271439
0.271125
0.270788
0.270512
0.270218
0.26998
0.269718
0.269506
0.269287
0.269096
0.268901
0.268729
0.268566
0.268434
0.268269
0.268157
0.268026
0.267911
0.267819
0.267726
0.267651
0.267571
0.267516
0.267446
0.267403
0.267381
0.267339
0.267321
0.26728
0.26728
0.267269
0.267291
0.26729
0.267337
0.267337
0.267402
0.267412
0.267485
0.267508
0.267593
0.26763
0.267733
0.267784
0.26791
0.267977
0.268132
0.268213
0.268414
0.268501
0.268799
0.268905
0.272408
3.53213
565.239
0.759234
0.633719
0.544742
0.482743
0.43905
0.407509
0.384041
0.366138
0.352108
0.340924
0.331803
0.324294
0.317979
0.312655
0.308064
0.304126
0.300661
0.297651
0.294957
0.292594
0.290447
0.288553
0.286807
0.285261
0.283819
0.28254
0.281332
0.280262
0.27924
0.278337
0.277462
0.276693
0.27594
0.275284
0.274631
0.274066
0.2735
0.273014
0.272517
0.272095
0.271659
0.271292
0.27091
0.270595
0.270257
0.26998
0.269685
0.269447
0.269183
0.26897
0.268751
0.268559
0.268364
0.268191
0.268027
0.267895
0.267729
0.267616
0.267485
0.267369
0.267277
0.267183
0.267107
0.267027
0.266971
0.266901
0.266857
0.266834
0.266792
0.266773
0.266732
0.266731
0.266719
0.26674
0.266739
0.266785
0.266785
0.266848
0.266858
0.266931
0.266952
0.267037
0.267073
0.267175
0.267226
0.267351
0.267417
0.267571
0.267651
0.267851
0.267937
0.268234
0.26834
0.271906
3.61103
566.741
0.759244
0.633722
0.544693
0.482624
0.438861
0.40726
0.383742
0.365798
0.351734
0.340523
0.33138
0.323851
0.31752
0.312182
0.307579
0.30363
0.300156
0.297138
0.294436
0.292067
0.289915
0.288015
0.286265
0.284714
0.283268
0.281986
0.280775
0.279701
0.278676
0.277771
0.276894
0.276123
0.275367
0.274709
0.274055
0.273488
0.27292
0.272432
0.271933
0.271511
0.271073
0.270705
0.270322
0.270006
0.269666
0.269388
0.269092
0.268853
0.268588
0.268375
0.268154
0.267962
0.267765
0.267592
0.267427
0.267294
0.267128
0.267014
0.266882
0.266765
0.266672
0.266578
0.266501
0.26642
0.266364
0.266294
0.266249
0.266225
0.266183
0.266163
0.266122
0.26612
0.266107
0.266127
0.266125
0.266169
0.266169
0.266232
0.266241
0.266313
0.266334
0.266417
0.266453
0.266554
0.266604
0.266728
0.266793
0.266946
0.267026
0.267224
0.267309
0.267605
0.26771
0.271348
3.70004
568.654
0.759255
0.633725
0.54464
0.482493
0.438654
0.406987
0.383413
0.365424
0.351323
0.340081
0.330913
0.323363
0.317014
0.31166
0.307044
0.303083
0.2996
0.296572
0.293863
0.291487
0.289328
0.287423
0.285667
0.284112
0.282661
0.281375
0.280161
0.279083
0.278055
0.277147
0.276267
0.275493
0.274736
0.274076
0.273419
0.27285
0.27228
0.27179
0.27129
0.270866
0.270426
0.270057
0.269672
0.269355
0.269015
0.268735
0.268438
0.268197
0.267932
0.267717
0.267495
0.267302
0.267105
0.266931
0.266765
0.266631
0.266464
0.266349
0.266217
0.2661
0.266006
0.265911
0.265833
0.265752
0.265694
0.265624
0.265578
0.265554
0.26551
0.265491
0.265449
0.265446
0.265431
0.265451
0.265448
0.265491
0.265491
0.265552
0.26556
0.265631
0.265651
0.265734
0.265769
0.265869
0.265918
0.266041
0.266105
0.266257
0.266336
0.266532
0.266617
0.266911
0.267015
0.270733
3.79939
570.831
0.759268
0.633729
0.544582
0.482351
0.438429
0.406688
0.383054
0.365016
0.350874
0.339599
0.330402
0.322829
0.31646
0.311089
0.306459
0.302486
0.298991
0.295953
0.293235
0.290851
0.288685
0.286774
0.285012
0.283452
0.281997
0.280707
0.279488
0.278407
0.277376
0.276464
0.275581
0.274805
0.274044
0.273382
0.272723
0.272152
0.27158
0.271088
0.270586
0.27016
0.269719
0.269348
0.268962
0.268643
0.268301
0.26802
0.267722
0.26748
0.267214
0.266998
0.266775
0.266581
0.266382
0.266208
0.26604
0.265906
0.265738
0.265622
0.26549
0.265371
0.265276
0.265181
0.265102
0.26502
0.264962
0.264891
0.264843
0.264819
0.264775
0.264755
0.264712
0.264708
0.264692
0.26471
0.264707
0.264748
0.264748
0.264808
0.264815
0.264885
0.264905
0.264986
0.265021
0.265119
0.265168
0.265289
0.265353
0.265503
0.265581
0.265776
0.265859
0.266151
0.266255
0.270063
3.90921
573.126
0.759281
0.633733
0.54452
0.482198
0.438185
0.406365
0.382665
0.364572
0.350386
0.339075
0.329848
0.322249
0.315859
0.310469
0.305823
0.301836
0.298329
0.295281
0.292553
0.290161
0.287987
0.286069
0.284301
0.282735
0.281275
0.27998
0.278757
0.277672
0.276637
0.275722
0.274836
0.274056
0.273293
0.272628
0.271966
0.271393
0.270818
0.270325
0.269821
0.269393
0.26895
0.268577
0.268189
0.267869
0.267526
0.267243
0.266943
0.266701
0.266433
0.266216
0.265992
0.265797
0.265597
0.265422
0.265253
0.265118
0.264949
0.264832
0.264698
0.264579
0.264483
0.264387
0.264307
0.264225
0.264165
0.264094
0.264045
0.26402
0.263975
0.263954
0.263911
0.263906
0.263889
0.263905
0.263902
0.26394
0.26394
0.263999
0.264005
0.264075
0.264093
0.264174
0.264207
0.264304
0.264352
0.264471
0.264534
0.264683
0.26476
0.264953
0.265035
0.265326
0.265429
0.269335
4.02951
575.393
0.759295
0.633738
0.544454
0.482033
0.437922
0.406017
0.382246
0.364094
0.34986
0.338509
0.329249
0.321623
0.315209
0.309799
0.305136
0.301134
0.297614
0.294554
0.291816
0.289415
0.287233
0.285307
0.283533
0.281961
0.280495
0.279194
0.277967
0.276877
0.275838
0.274919
0.27403
0.273247
0.272481
0.271813
0.271148
0.270572
0.269996
0.2695
0.268993
0.268564
0.268118
0.267744
0.267354
0.267032
0.266687
0.266404
0.266102
0.265858
0.265589
0.26537
0.265145
0.264949
0.264748
0.264572
0.264401
0.264265
0.264095
0.263978
0.263843
0.263723
0.263626
0.263529
0.263448
0.263365
0.263304
0.263233
0.263182
0.263156
0.26311
0.263089
0.263046
0.263039
0.26302
0.263035
0.263031
0.263068
0.263067
0.263124
0.26313
0.263198
0.263215
0.263295
0.263327
0.263423
0.26347
0.263588
0.26365
0.263797
0.263872
0.264063
0.264144
0.264434
0.264536
0.268549
4.16017
577.497
0.759311
0.633743
0.544384
0.481858
0.437642
0.405644
0.381796
0.363581
0.349296
0.337902
0.328606
0.32095
0.314511
0.30908
0.304398
0.300379
0.296845
0.293773
0.291024
0.288612
0.286421
0.284488
0.282706
0.281128
0.279656
0.27835
0.277117
0.276023
0.274979
0.274056
0.273163
0.272377
0.271607
0.270936
0.270269
0.26969
0.269111
0.268612
0.268103
0.267672
0.267224
0.266848
0.266456
0.266132
0.265786
0.2655
0.265197
0.264951
0.264681
0.264461
0.264234
0.264037
0.263835
0.263657
0.263485
0.263348
0.263178
0.263059
0.262923
0.262802
0.262704
0.262606
0.262524
0.26244
0.262378
0.262306
0.262254
0.262227
0.26218
0.262158
0.262114
0.262107
0.262086
0.2621
0.262094
0.262129
0.262129
0.262184
0.262188
0.262255
0.262271
0.26235
0.262381
0.262475
0.262521
0.262637
0.262698
0.262843
0.262918
0.263107
0.263186
0.263474
0.263576
0.267705
4.30091
579.31
0.759327
0.63375
0.54431
0.481671
0.437343
0.405246
0.381316
0.363034
0.348693
0.337252
0.327919
0.32023
0.313764
0.30831
0.303608
0.299572
0.296022
0.292937
0.290176
0.287753
0.285553
0.283611
0.281821
0.280236
0.278757
0.277445
0.276207
0.275108
0.274059
0.273132
0.272235
0.271445
0.270672
0.269997
0.269327
0.268745
0.268163
0.267662
0.267151
0.266716
0.266267
0.265889
0.265494
0.265169
0.26482
0.264533
0.264228
0.263981
0.263709
0.263487
0.263259
0.26306
0.262857
0.262678
0.262504
0.262367
0.262195
0.262075
0.261938
0.261816
0.261716
0.261618
0.261534
0.26145
0.261386
0.261314
0.26126
0.261232
0.261184
0.261162
0.261117
0.261109
0.261086
0.261098
0.261092
0.261124
0.261123
0.261177
0.26118
0.261246
0.261261
0.261338
0.261368
0.261461
0.261505
0.26162
0.26168
0.261823
0.261896
0.262083
0.262161
0.262447
0.262548
0.266802
4.45125
580.719
0.759344
0.633756
0.544233
0.481474
0.437026
0.404824
0.380806
0.362451
0.34805
0.336561
0.327187
0.319464
0.312968
0.307489
0.302765
0.298711
0.295145
0.292045
0.289271
0.286838
0.284627
0.282676
0.280878
0.279285
0.277799
0.276481
0.275237
0.274132
0.273079
0.272147
0.271245
0.270451
0.269674
0.268996
0.268322
0.267737
0.267152
0.266648
0.266134
0.265698
0.265245
0.264865
0.264469
0.264141
0.26379
0.263502
0.263194
0.262946
0.262672
0.262449
0.262218
0.262019
0.261813
0.261634
0.261458
0.26132
0.261147
0.261025
0.260887
0.260765
0.260663
0.260564
0.260479
0.260393
0.260328
0.260255
0.2602
0.260171
0.260122
0.260099
0.260053
0.260044
0.260019
0.26003
0.260022
0.260052
0.260051
0.260102
0.260105
0.260169
0.260183
0.260258
0.260287
0.260378
0.260422
0.260534
0.260593
0.260734
0.260806
0.260991
0.261067
0.261351
0.261451
0.265839
4.6105
581.622
0.759361
0.633764
0.544151
0.481267
0.436692
0.404378
0.380266
0.361834
0.34737
0.335828
0.32641
0.31865
0.312124
0.306618
0.301871
0.297797
0.294213
0.291098
0.288311
0.285865
0.283643
0.281682
0.279875
0.278274
0.276781
0.275456
0.274205
0.273095
0.272036
0.2711
0.270193
0.269395
0.268614
0.267932
0.267255
0.266666
0.266078
0.265571
0.265054
0.264615
0.26416
0.263777
0.263379
0.263049
0.262696
0.262405
0.262096
0.261845
0.261569
0.261345
0.261113
0.260912
0.260705
0.260524
0.260347
0.260207
0.260032
0.259909
0.259771
0.259647
0.259543
0.259443
0.259357
0.25927
0.259204
0.25913
0.259073
0.259043
0.258993
0.258969
0.258922
0.258912
0.258886
0.258894
0.258886
0.258913
0.258911
0.25896
0.258962
0.259025
0.259037
0.259111
0.259138
0.259228
0.25927
0.259381
0.259438
0.259577
0.259647
0.25983
0.259904
0.260186
0.260286
0.264815
4.77773
581.931
0.75938
0.633773
0.544067
0.481049
0.43634
0.403907
0.379696
0.361182
0.34665
0.335052
0.325588
0.317789
0.31123
0.305695
0.300924
0.296829
0.293227
0.290095
0.287293
0.284835
0.282601
0.28063
0.278813
0.277203
0.275703
0.27437
0.273113
0.271997
0.270932
0.269991
0.269079
0.268276
0.267491
0.266805
0.266124
0.265532
0.26494
0.26443
0.26391
0.263468
0.26301
0.262625
0.262224
0.261892
0.261536
0.261244
0.260932
0.260679
0.260402
0.260176
0.259941
0.259739
0.25953
0.259348
0.259169
0.259027
0.258852
0.258727
0.258587
0.258462
0.258357
0.258256
0.258168
0.258081
0.258012
0.257938
0.257879
0.257848
0.257797
0.257772
0.257724
0.257712
0.257685
0.257692
0.257681
0.257707
0.257704
0.25775
0.257752
0.257812
0.257823
0.257896
0.257921
0.25801
0.25805
0.258159
0.258215
0.258351
0.25842
0.2586
0.258673
0.258952
0.259052
0.263731
4.95174
581.573
0.759399
0.633782
0.543979
0.480821
0.435971
0.403413
0.379096
0.360495
0.345892
0.334235
0.324721
0.316881
0.310286
0.304722
0.299925
0.295807
0.292185
0.289036
0.286219
0.283747
0.281501
0.279518
0.277692
0.276073
0.274564
0.273224
0.27196
0.270837
0.269766
0.268819
0.267902
0.267094
0.266304
0.265614
0.264929
0.264334
0.263738
0.263225
0.262702
0.262256
0.261796
0.261408
0.261004
0.260669
0.260312
0.260016
0.259703
0.259448
0.259168
0.25894
0.258704
0.2585
0.258289
0.258106
0.257924
0.257782
0.257605
0.257479
0.257337
0.257211
0.257104
0.257002
0.256912
0.256824
0.256754
0.256679
0.256618
0.256586
0.256533
0.256507
0.256459
0.256446
0.256416
0.256421
0.256409
0.256432
0.256429
0.256472
0.256473
0.256531
0.256541
0.256612
0.256636
0.256722
0.256761
0.256868
0.256922
0.257056
0.257124
0.257301
0.257372
0.257649
0.257749
0.262584
5.13103
580.478
0.75942
0.633793
0.543888
0.480584
0.435585
0.402895
0.378467
0.359774
0.345095
0.333375
0.32381
0.315925
0.309294
0.303698
0.298874
0.294731
0.291089
0.287922
0.285088
0.282601
0.280343
0.278348
0.276511
0.274882
0.273364
0.272016
0.270745
0.269615
0.268538
0.267585
0.266662
0.26585
0.265055
0.26436
0.26367
0.263071
0.262472
0.261955
0.261428
0.26098
0.260516
0.260126
0.259718
0.259381
0.259021
0.258724
0.258407
0.258151
0.257869
0.257639
0.2574
0.257195
0.256982
0.256797
0.256613
0.256469
0.256291
0.256163
0.256021
0.255893
0.255784
0.25568
0.255589
0.2555
0.255428
0.255353
0.255289
0.255256
0.255201
0.255175
0.255125
0.255111
0.25508
0.255083
0.255069
0.255089
0.255085
0.255126
0.255126
0.255182
0.25519
0.255259
0.255282
0.255366
0.255404
0.255508
0.255561
0.255692
0.255758
0.255932
0.256001
0.256276
0.256376
0.261374
5.31376
578.584
0.75944
0.633804
0.543794
0.480337
0.435182
0.402353
0.377808
0.359018
0.34426
0.332474
0.322853
0.314923
0.308252
0.302622
0.297769
0.293602
0.289938
0.286751
0.2839
0.281398
0.279125
0.277118
0.27527
0.273631
0.272104
0.270748
0.269468
0.268331
0.267247
0.266288
0.26536
0.264542
0.263741
0.263042
0.262348
0.261745
0.261141
0.260621
0.26009
0.259639
0.259172
0.258778
0.258368
0.258028
0.257665
0.257365
0.257046
0.256787
0.256503
0.256271
0.25603
0.255823
0.255608
0.255422
0.255236
0.25509
0.25491
0.254781
0.254636
0.254508
0.254397
0.254292
0.254199
0.254108
0.254035
0.253958
0.253893
0.253858
0.253802
0.253775
0.253724
0.253708
0.253676
0.253676
0.253661
0.253679
0.253673
0.25371
0.25371
0.253764
0.253771
0.253838
0.253858
0.253941
0.253977
0.254078
0.25413
0.254258
0.254323
0.254494
0.254561
0.254834
0.254934
0.2601
5.49778
575.846
0.759462
0.633816
0.543698
0.480082
0.434763
0.401789
0.377121
0.358229
0.343387
0.331532
0.321853
0.313873
0.307161
0.301496
0.296613
0.292419
0.288731
0.285524
0.282655
0.280136
0.27785
0.27583
0.27397
0.27232
0.270783
0.269417
0.268129
0.266985
0.265894
0.264928
0.263994
0.26317
0.262365
0.26166
0.260961
0.260354
0.259745
0.259221
0.258687
0.258232
0.257762
0.257365
0.256951
0.256609
0.256243
0.255941
0.255619
0.255358
0.255071
0.254837
0.254594
0.254384
0.254168
0.25398
0.253791
0.253644
0.253462
0.253331
0.253185
0.253055
0.252942
0.252836
0.252741
0.252649
0.252573
0.252496
0.252428
0.252393
0.252335
0.252306
0.252254
0.252237
0.252203
0.252201
0.252184
0.252199
0.252193
0.252226
0.252226
0.252277
0.252282
0.252347
0.252366
0.252446
0.25248
0.25258
0.252629
0.252755
0.252818
0.252986
0.253051
0.253321
0.253421
0.25876
5.68058
572.216
0.759484
0.63383
0.543599
0.479817
0.434329
0.401202
0.376406
0.357407
0.342476
0.330548
0.320808
0.312777
0.306022
0.300319
0.295404
0.291182
0.28747
0.284241
0.281353
0.278817
0.276516
0.274482
0.272609
0.270948
0.269401
0.268026
0.266729
0.265577
0.264478
0.263506
0.262565
0.261735
0.260924
0.260215
0.259511
0.258898
0.258286
0.257758
0.257219
0.256761
0.256287
0.255887
0.25547
0.255124
0.254755
0.25445
0.254126
0.253862
0.253573
0.253336
0.25309
0.252879
0.25266
0.252471
0.252279
0.252131
0.251947
0.251814
0.251666
0.251535
0.251419
0.251312
0.251215
0.251122
0.251044
0.250966
0.250896
0.250859
0.250799
0.25077
0.250716
0.250698
0.250662
0.250658
0.250639
0.250652
0.250643
0.250674
0.250673
0.250721
0.250725
0.250788
0.250805
0.250883
0.250915
0.251012
0.251059
0.251182
0.251243
0.251408
0.251471
0.251738
0.251839
0.257352
5.85928
567.651
0.759507
0.633845
0.543499
0.479545
0.433879
0.400593
0.375662
0.356551
0.341529
0.329523
0.319719
0.311635
0.304833
0.299092
0.294142
0.289891
0.286154
0.282902
0.279994
0.277441
0.275123
0.273075
0.271189
0.269516
0.267958
0.266573
0.265268
0.264107
0.263001
0.262021
0.261073
0.260237
0.25942
0.258705
0.257996
0.257379
0.256761
0.256229
0.255687
0.255224
0.254746
0.254343
0.253922
0.253573
0.253202
0.252894
0.252566
0.2523
0.252008
0.251769
0.251521
0.251308
0.251086
0.250895
0.250701
0.25055
0.250365
0.25023
0.250081
0.249947
0.24983
0.249721
0.249622
0.249528
0.249447
0.249369
0.249296
0.249257
0.249196
0.249165
0.24911
0.24909
0.249053
0.249047
0.249025
0.249036
0.249026
0.249053
0.249051
0.249096
0.249099
0.249159
0.249174
0.24925
0.24928
0.249374
0.24942
0.24954
0.249599
0.249761
0.249821
0.250086
0.250187
0.255877
6.03067
562.106
0.75953
0.63386
0.543396
0.479265
0.433415
0.399963
0.374891
0.355663
0.340544
0.328458
0.318587
0.310446
0.303597
0.297814
0.292829
0.288548
0.284783
0.281508
0.278579
0.276007
0.273672
0.271609
0.26971
0.268025
0.266455
0.26506
0.263744
0.262575
0.26146
0.260473
0.259518
0.258676
0.257853
0.257132
0.256417
0.255795
0.255173
0.254636
0.254089
0.253623
0.253141
0.252734
0.25231
0.251957
0.251582
0.251271
0.250941
0.250672
0.250377
0.250136
0.249884
0.249669
0.249445
0.249252
0.249055
0.248903
0.248716
0.248579
0.248427
0.248293
0.248173
0.248062
0.247961
0.247866
0.247783
0.247703
0.247628
0.247588
0.247525
0.247492
0.247436
0.247415
0.247376
0.247368
0.247344
0.247351
0.24734
0.247364
0.24736
0.247402
0.247404
0.247461
0.247474
0.247548
0.247576
0.247667
0.247711
0.247828
0.247885
0.248044
0.248102
0.248363
0.248465
0.254331
6.19122
555.533
0.759554
0.633878
0.543292
0.478977
0.432936
0.399312
0.374094
0.354744
0.339523
0.327353
0.317412
0.309211
0.302312
0.296486
0.291465
0.287151
0.283358
0.280058
0.277108
0.274516
0.272164
0.270084
0.268171
0.266473
0.264891
0.263485
0.26216
0.260982
0.259858
0.258863
0.257901
0.257052
0.256222
0.255495
0.254775
0.254148
0.25352
0.252978
0.252427
0.251956
0.25147
0.25106
0.250632
0.250276
0.249897
0.249583
0.24925
0.248977
0.248681
0.248436
0.248182
0.247965
0.247738
0.247543
0.247343
0.247189
0.247
0.246861
0.246707
0.246571
0.246448
0.246337
0.246233
0.246136
0.246051
0.245971
0.245893
0.245851
0.245786
0.245752
0.245694
0.245671
0.245631
0.245621
0.245595
0.245599
0.245586
0.245606
0.245602
0.245639
0.24564
0.245695
0.245706
0.245777
0.245803
0.245892
0.245933
0.246047
0.246102
0.246257
0.246313
0.246571
0.246674
0.252714
6.33711
547.881
0.759578
0.633896
0.543186
0.478682
0.432444
0.398641
0.37327
0.353792
0.338466
0.326208
0.316194
0.307932
0.30098
0.295109
0.290049
0.285702
0.28188
0.278554
0.27558
0.272968
0.270597
0.268502
0.266573
0.264862
0.263268
0.261851
0.260515
0.259327
0.258195
0.257191
0.256221
0.255365
0.254528
0.253796
0.253069
0.252436
0.251803
0.251257
0.250701
0.250226
0.249735
0.249321
0.248889
0.24853
0.248147
0.24783
0.247493
0.247218
0.246918
0.246671
0.246414
0.246194
0.245965
0.245768
0.245565
0.245409
0.245218
0.245076
0.244921
0.244783
0.244657
0.244544
0.244438
0.24434
0.244252
0.244171
0.24409
0.244046
0.243979
0.243944
0.243884
0.24386
0.243818
0.243806
0.243778
0.243779
0.243764
0.243781
0.243775
0.243809
0.243809
0.24386
0.243869
0.243937
0.243961
0.244047
0.244087
0.244197
0.24425
0.244401
0.244455
0.24471
0.244813
0.251023
6.46431
539.098
0.759603
0.633916
0.54308
0.478381
0.431939
0.39795
0.372421
0.35281
0.337374
0.325025
0.314934
0.306607
0.299601
0.293684
0.288583
0.2842
0.280348
0.276995
0.273997
0.271364
0.268974
0.266861
0.264917
0.263191
0.261585
0.260156
0.258809
0.257611
0.25647
0.255457
0.25448
0.253616
0.252772
0.252033
0.2513
0.250662
0.250023
0.249472
0.248911
0.248431
0.247936
0.247518
0.247081
0.246719
0.246333
0.246012
0.245671
0.245393
0.24509
0.24484
0.24458
0.244358
0.244125
0.243927
0.243721
0.243562
0.243369
0.243225
0.243068
0.242928
0.2428
0.242685
0.242576
0.242476
0.242386
0.242304
0.24222
0.242175
0.242105
0.242069
0.242007
0.241981
0.241937
0.241924
0.241893
0.241892
0.241874
0.241888
0.24188
0.24191
0.241909
0.241957
0.241965
0.24203
0.242051
0.242134
0.242172
0.242279
0.242329
0.242477
0.242528
0.24278
0.242884
0.249256
6.56865
529.127
0.759628
0.633937
0.542972
0.478075
0.431422
0.397241
0.371547
0.351799
0.336248
0.323804
0.313633
0.305239
0.298176
0.292209
0.287067
0.282648
0.278763
0.275382
0.27236
0.269704
0.267294
0.265163
0.263203
0.261463
0.259843
0.258401
0.257043
0.255835
0.254684
0.253663
0.252677
0.251805
0.250954
0.250208
0.249469
0.248825
0.24818
0.247624
0.247057
0.246573
0.246073
0.24565
0.24521
0.244843
0.244453
0.244129
0.243785
0.243503
0.243197
0.242944
0.242681
0.242456
0.242221
0.24202
0.241811
0.24165
0.241455
0.241308
0.241149
0.241007
0.240876
0.240759
0.240648
0.240547
0.240454
0.24037
0.240284
0.240236
0.240165
0.240127
0.240063
0.240036
0.23999
0.239975
0.239942
0.239938
0.239917
0.239928
0.239919
0.239945
0.239942
0.239987
0.239992
0.240054
0.240073
0.240153
0.240188
0.240292
0.24034
0.240484
0.240532
0.240781
0.240886
0.247412
6.64591
517.913
0.759653
0.633959
0.542865
0.477763
0.430893
0.396513
0.370649
0.350758
0.335089
0.322545
0.312292
0.303828
0.296705
0.290688
0.285502
0.281044
0.277127
0.273716
0.270668
0.267988
0.265558
0.263409
0.261432
0.259676
0.258042
0.256588
0.255218
0.253999
0.252838
0.251807
0.250813
0.249933
0.249075
0.248321
0.247576
0.246925
0.246275
0.245712
0.245141
0.244652
0.244147
0.24372
0.243275
0.242904
0.24251
0.242183
0.241834
0.24155
0.24124
0.240984
0.240717
0.24049
0.240252
0.240048
0.239836
0.239673
0.239476
0.239326
0.239164
0.239021
0.238887
0.238769
0.238654
0.238552
0.238456
0.238371
0.238282
0.238232
0.238159
0.238119
0.238053
0.238024
0.237976
0.237959
0.237924
0.237918
0.237894
0.237902
0.23789
0.237912
0.237909
0.23795
0.237953
0.238012
0.238028
0.238105
0.238138
0.238238
0.238284
0.238424
0.238469
0.238715
0.23882
0.245488
6.69192
505.403
0.759679
0.633983
0.542757
0.477446
0.430354
0.395769
0.369728
0.349689
0.333897
0.32125
0.310911
0.302374
0.29519
0.289119
0.283888
0.279391
0.275439
0.271997
0.268922
0.266219
0.263767
0.261598
0.259604
0.257832
0.256183
0.254716
0.253334
0.252104
0.250932
0.249892
0.248888
0.248001
0.247134
0.246374
0.245621
0.244964
0.244307
0.243739
0.243162
0.242668
0.242159
0.241727
0.241277
0.240902
0.240504
0.240173
0.23982
0.239532
0.239219
0.23896
0.23869
0.23846
0.238218
0.238013
0.237797
0.237631
0.237431
0.23728
0.237115
0.23697
0.236833
0.236713
0.236596
0.236492
0.236393
0.236307
0.236215
0.236163
0.236087
0.236045
0.235978
0.235947
0.235897
0.235878
0.235841
0.235832
0.235806
0.23581
0.235796
0.235814
0.235809
0.235846
0.235847
0.235903
0.235917
0.23599
0.23602
0.236117
0.236161
0.236296
0.236339
0.236581
0.236687
0.243483
6.70289
491.55
0.759704
0.634009
0.542649
0.477125
0.429804
0.395008
0.368785
0.348593
0.332673
0.319919
0.309491
0.300879
0.29363
0.287505
0.282226
0.277688
0.2737
0.270227
0.267123
0.264395
0.261921
0.259732