/*--------------------------------*- C++ -*----------------------------------*\
| =========                 |                                                 |
| \\      /  F ield         | OpenFOAM: The Open Source CFD Toolbox           |
|  \\    /   O peration     | Version:  v2012                                 |
|   \\  /    A nd           | Website:  www.openfoam.com                      |
|    \\/     M anipulation  |                                                 |
\*---------------------------------------------------------------------------*/
FoamFile
{
    version     2.0;
    format      ascii;
    class       volScalarField;
    location    "48.5";
    object      nut;
}
// * * * * * * * * * * * * * * * * * * * * * * * * * * * * * * * * * * * * * //

dimensions      [0 2 -1 0 0 0 0];


internalField   nonuniform List<scalar> 
209825
(
1.24334e-07
1.23674e-07
1.21145e-07
1.16365e-07
1.10145e-07
1.03486e-07
9.70127e-08
9.10624e-08
8.57136e-08
8.09887e-08
7.68113e-08
7.31471e-08
6.98999e-08
6.70448e-08
6.44954e-08
6.22421e-08
6.02105e-08
5.8406e-08
5.67629e-08
5.5298e-08
5.39506e-08
5.27458e-08
5.16272e-08
5.06251e-08
4.96851e-08
4.88426e-08
4.80444e-08
4.73306e-08
4.66462e-08
4.60357e-08
4.54448e-08
4.49199e-08
4.44052e-08
4.39505e-08
4.34993e-08
4.31038e-08
4.27059e-08
4.23604e-08
4.20082e-08
4.17052e-08
4.13915e-08
4.11249e-08
4.08437e-08
4.06074e-08
4.03554e-08
4.01466e-08
3.99189e-08
3.97331e-08
3.95276e-08
3.9363e-08
3.91748e-08
3.90291e-08
3.88585e-08
3.87294e-08
3.8573e-08
3.84555e-08
3.83158e-08
3.82109e-08
3.80811e-08
3.79907e-08
3.78684e-08
3.77866e-08
3.7675e-08
3.76011e-08
3.74983e-08
3.74317e-08
3.73383e-08
3.72725e-08
3.71885e-08
3.71293e-08
3.70539e-08
3.69984e-08
3.69275e-08
3.68757e-08
3.68084e-08
3.67551e-08
3.66902e-08
3.66371e-08
3.65734e-08
3.6522e-08
3.64601e-08
3.64103e-08
3.63505e-08
3.63018e-08
3.62444e-08
3.61959e-08
3.61416e-08
3.60926e-08
3.6041e-08
3.59937e-08
3.594e-08
3.5885e-08
3.58302e-08
3.61641e-08
4.09123e-06
2.96865e-08
1.24334e-07
1.23674e-07
1.21145e-07
1.16366e-07
1.10147e-07
1.03488e-07
9.7015e-08
9.10648e-08
8.57161e-08
8.09911e-08
7.68136e-08
7.31493e-08
6.9902e-08
6.70468e-08
6.44972e-08
6.22438e-08
6.02121e-08
5.84075e-08
5.67642e-08
5.52993e-08
5.39518e-08
5.27469e-08
5.16282e-08
5.0626e-08
4.9686e-08
4.88434e-08
4.80451e-08
4.73313e-08
4.66469e-08
4.60363e-08
4.54453e-08
4.49205e-08
4.44057e-08
4.39509e-08
4.34997e-08
4.31041e-08
4.27063e-08
4.23607e-08
4.20085e-08
4.17055e-08
4.13917e-08
4.11251e-08
4.08439e-08
4.06076e-08
4.03555e-08
4.01467e-08
3.9919e-08
3.97332e-08
3.95277e-08
3.93631e-08
3.91748e-08
3.90292e-08
3.88585e-08
3.87294e-08
3.8573e-08
3.84554e-08
3.83158e-08
3.82109e-08
3.8081e-08
3.79907e-08
3.78683e-08
3.77865e-08
3.76749e-08
3.7601e-08
3.74982e-08
3.74316e-08
3.73381e-08
3.72723e-08
3.71884e-08
3.71291e-08
3.70537e-08
3.69982e-08
3.69273e-08
3.68755e-08
3.68082e-08
3.67549e-08
3.669e-08
3.6637e-08
3.65731e-08
3.65218e-08
3.64598e-08
3.64101e-08
3.63503e-08
3.63016e-08
3.62442e-08
3.61956e-08
3.61414e-08
3.60924e-08
3.60407e-08
3.59934e-08
3.59398e-08
3.58847e-08
3.583e-08
3.61641e-08
4.09102e-06
2.99175e-08
1.24334e-07
1.23673e-07
1.21147e-07
1.1637e-07
1.10154e-07
1.03497e-07
9.70246e-08
9.10748e-08
8.5726e-08
8.10007e-08
7.68228e-08
7.31579e-08
6.99101e-08
6.70543e-08
6.45043e-08
6.22504e-08
6.02182e-08
5.84131e-08
5.67695e-08
5.53041e-08
5.39562e-08
5.27511e-08
5.16321e-08
5.06296e-08
4.96893e-08
4.88465e-08
4.8048e-08
4.7334e-08
4.66493e-08
4.60386e-08
4.54474e-08
4.49224e-08
4.44074e-08
4.39525e-08
4.35012e-08
4.31055e-08
4.27075e-08
4.23618e-08
4.20095e-08
4.17064e-08
4.13925e-08
4.11258e-08
4.08446e-08
4.06082e-08
4.0356e-08
4.01471e-08
3.99193e-08
3.97334e-08
3.95279e-08
3.93632e-08
3.91749e-08
3.90292e-08
3.88585e-08
3.87293e-08
3.85728e-08
3.84553e-08
3.83155e-08
3.82106e-08
3.80807e-08
3.79903e-08
3.7868e-08
3.77861e-08
3.76745e-08
3.76005e-08
3.74977e-08
3.7431e-08
3.73376e-08
3.72717e-08
3.71878e-08
3.71285e-08
3.70531e-08
3.69975e-08
3.69266e-08
3.68748e-08
3.68074e-08
3.67542e-08
3.66892e-08
3.66362e-08
3.65723e-08
3.65209e-08
3.6459e-08
3.64093e-08
3.63494e-08
3.63007e-08
3.62433e-08
3.61947e-08
3.61404e-08
3.60914e-08
3.60397e-08
3.59924e-08
3.59387e-08
3.58837e-08
3.58289e-08
3.61637e-08
4.08977e-06
3.02533e-08
1.24333e-07
1.23673e-07
1.21151e-07
1.16378e-07
1.10166e-07
1.03512e-07
9.70409e-08
9.10916e-08
8.57427e-08
8.10168e-08
7.68382e-08
7.31724e-08
6.99237e-08
6.7067e-08
6.45161e-08
6.22614e-08
6.02284e-08
5.84226e-08
5.67783e-08
5.53122e-08
5.39638e-08
5.27581e-08
5.16385e-08
5.06356e-08
4.96949e-08
4.88516e-08
4.80527e-08
4.73384e-08
4.66534e-08
4.60424e-08
4.54509e-08
4.49256e-08
4.44104e-08
4.39552e-08
4.35037e-08
4.31078e-08
4.27096e-08
4.23637e-08
4.20112e-08
4.17079e-08
4.13939e-08
4.1127e-08
4.08457e-08
4.06091e-08
4.03568e-08
4.01479e-08
3.99199e-08
3.97339e-08
3.95283e-08
3.93635e-08
3.91751e-08
3.90293e-08
3.88585e-08
3.87292e-08
3.85727e-08
3.8455e-08
3.83152e-08
3.82102e-08
3.80802e-08
3.79898e-08
3.78674e-08
3.77854e-08
3.76738e-08
3.75997e-08
3.74968e-08
3.74302e-08
3.73367e-08
3.72708e-08
3.71868e-08
3.71274e-08
3.7052e-08
3.69964e-08
3.69255e-08
3.68736e-08
3.68062e-08
3.6753e-08
3.6688e-08
3.66349e-08
3.6571e-08
3.65196e-08
3.64576e-08
3.64078e-08
3.6348e-08
3.62992e-08
3.62418e-08
3.61932e-08
3.61388e-08
3.60898e-08
3.60381e-08
3.59908e-08
3.5937e-08
3.5882e-08
3.58272e-08
3.61629e-08
4.08763e-06
3.06595e-08
1.24333e-07
1.23673e-07
1.21155e-07
1.16389e-07
1.10183e-07
1.03533e-07
9.7064e-08
9.11153e-08
8.57662e-08
8.10396e-08
7.68599e-08
7.31929e-08
6.99429e-08
6.7085e-08
6.45328e-08
6.22769e-08
6.02428e-08
5.8436e-08
5.67907e-08
5.53238e-08
5.39745e-08
5.2768e-08
5.16477e-08
5.06441e-08
4.97028e-08
4.88589e-08
4.80595e-08
4.73447e-08
4.66592e-08
4.60477e-08
4.54558e-08
4.49302e-08
4.44146e-08
4.39591e-08
4.35072e-08
4.3111e-08
4.27126e-08
4.23664e-08
4.20136e-08
4.17101e-08
4.13959e-08
4.11288e-08
4.08472e-08
4.06105e-08
4.0358e-08
4.01489e-08
3.99208e-08
3.97346e-08
3.95288e-08
3.93639e-08
3.91754e-08
3.90295e-08
3.88585e-08
3.87292e-08
3.85725e-08
3.84547e-08
3.83148e-08
3.82097e-08
3.80796e-08
3.79891e-08
3.78666e-08
3.77846e-08
3.76728e-08
3.75987e-08
3.74957e-08
3.7429e-08
3.73354e-08
3.72695e-08
3.71854e-08
3.7126e-08
3.70504e-08
3.69949e-08
3.69239e-08
3.6872e-08
3.68046e-08
3.67513e-08
3.66862e-08
3.66331e-08
3.65692e-08
3.65177e-08
3.64557e-08
3.64059e-08
3.63459e-08
3.62972e-08
3.62397e-08
3.6191e-08
3.61366e-08
3.60876e-08
3.60358e-08
3.59885e-08
3.59347e-08
3.58797e-08
3.58248e-08
3.61619e-08
4.08462e-06
3.11232e-08
1.24332e-07
1.23673e-07
1.21161e-07
1.16404e-07
1.10205e-07
1.0356e-07
9.70938e-08
9.11462e-08
8.57968e-08
8.10693e-08
7.68881e-08
7.32196e-08
6.9968e-08
6.71084e-08
6.45546e-08
6.22971e-08
6.02616e-08
5.84535e-08
5.68069e-08
5.53388e-08
5.39884e-08
5.27809e-08
5.16597e-08
5.06552e-08
4.97131e-08
4.88685e-08
4.80684e-08
4.73528e-08
4.66667e-08
4.60547e-08
4.54623e-08
4.49361e-08
4.44201e-08
4.39642e-08
4.35119e-08
4.31153e-08
4.27165e-08
4.237e-08
4.20169e-08
4.17131e-08
4.13985e-08
4.11312e-08
4.08493e-08
4.06124e-08
4.03596e-08
4.01503e-08
3.9922e-08
3.97356e-08
3.95296e-08
3.93645e-08
3.91758e-08
3.90297e-08
3.88586e-08
3.87291e-08
3.85723e-08
3.84544e-08
3.83143e-08
3.82091e-08
3.80789e-08
3.79882e-08
3.78656e-08
3.77835e-08
3.76716e-08
3.75974e-08
3.74943e-08
3.74275e-08
3.73338e-08
3.72678e-08
3.71836e-08
3.71242e-08
3.70485e-08
3.69929e-08
3.69219e-08
3.687e-08
3.68024e-08
3.67492e-08
3.6684e-08
3.66309e-08
3.65669e-08
3.65154e-08
3.64532e-08
3.64034e-08
3.63434e-08
3.62946e-08
3.6237e-08
3.61883e-08
3.61338e-08
3.60848e-08
3.60329e-08
3.59856e-08
3.59317e-08
3.58767e-08
3.58217e-08
3.61606e-08
4.08075e-06
3.16402e-08
1.2433e-07
1.23673e-07
1.21168e-07
1.16421e-07
1.10232e-07
1.03593e-07
9.71307e-08
9.11842e-08
8.58345e-08
8.11058e-08
7.6923e-08
7.32525e-08
6.99989e-08
6.71372e-08
6.45815e-08
6.23222e-08
6.02849e-08
5.8475e-08
5.68269e-08
5.53574e-08
5.40057e-08
5.27969e-08
5.16745e-08
5.0669e-08
4.97258e-08
4.88803e-08
4.80793e-08
4.7363e-08
4.66762e-08
4.60634e-08
4.54704e-08
4.49436e-08
4.4427e-08
4.39705e-08
4.35177e-08
4.31206e-08
4.27213e-08
4.23744e-08
4.20209e-08
4.17168e-08
4.14018e-08
4.11342e-08
4.0852e-08
4.06147e-08
4.03617e-08
4.01521e-08
3.99235e-08
3.97369e-08
3.95306e-08
3.93653e-08
3.91764e-08
3.90301e-08
3.88587e-08
3.87291e-08
3.8572e-08
3.8454e-08
3.83137e-08
3.82084e-08
3.8078e-08
3.79872e-08
3.78644e-08
3.77822e-08
3.76702e-08
3.75958e-08
3.74927e-08
3.74257e-08
3.73319e-08
3.72658e-08
3.71815e-08
3.71219e-08
3.70462e-08
3.69906e-08
3.69194e-08
3.68676e-08
3.67998e-08
3.67466e-08
3.66813e-08
3.66281e-08
3.6564e-08
3.65125e-08
3.64503e-08
3.64004e-08
3.63403e-08
3.62914e-08
3.62337e-08
3.6185e-08
3.61304e-08
3.60814e-08
3.60293e-08
3.5982e-08
3.5928e-08
3.5873e-08
3.58179e-08
3.6159e-08
4.07604e-06
3.22116e-08
1.24329e-07
1.23672e-07
1.21177e-07
1.16442e-07
1.10264e-07
1.03633e-07
9.71746e-08
9.12296e-08
8.58796e-08
8.11495e-08
7.69647e-08
7.32919e-08
7.00358e-08
6.71718e-08
6.46137e-08
6.23521e-08
6.03127e-08
5.85009e-08
5.68509e-08
5.53796e-08
5.40263e-08
5.28161e-08
5.16923e-08
5.06855e-08
4.97411e-08
4.88945e-08
4.80925e-08
4.73752e-08
4.66874e-08
4.60739e-08
4.548e-08
4.49525e-08
4.44352e-08
4.39781e-08
4.35247e-08
4.31271e-08
4.27272e-08
4.23798e-08
4.20258e-08
4.17212e-08
4.14058e-08
4.11378e-08
4.08552e-08
4.06176e-08
4.03641e-08
4.01542e-08
3.99253e-08
3.97384e-08
3.95318e-08
3.93663e-08
3.91771e-08
3.90306e-08
3.88589e-08
3.87291e-08
3.85718e-08
3.84536e-08
3.83131e-08
3.82076e-08
3.80769e-08
3.7986e-08
3.7863e-08
3.77807e-08
3.76685e-08
3.7594e-08
3.74907e-08
3.74236e-08
3.73297e-08
3.72635e-08
3.7179e-08
3.71194e-08
3.70434e-08
3.69878e-08
3.69165e-08
3.68647e-08
3.67968e-08
3.67436e-08
3.66781e-08
3.66249e-08
3.65607e-08
3.65091e-08
3.64468e-08
3.63968e-08
3.63366e-08
3.62877e-08
3.62298e-08
3.61811e-08
3.61264e-08
3.60773e-08
3.60251e-08
3.59778e-08
3.59236e-08
3.58687e-08
3.58135e-08
3.61572e-08
4.07052e-06
3.28419e-08
1.24327e-07
1.23672e-07
1.21186e-07
1.16467e-07
1.10301e-07
1.03679e-07
9.72258e-08
9.12824e-08
8.59321e-08
8.12004e-08
7.70133e-08
7.33378e-08
7.0079e-08
6.72121e-08
6.46513e-08
6.23871e-08
6.03452e-08
5.85311e-08
5.68789e-08
5.54056e-08
5.40505e-08
5.28385e-08
5.17131e-08
5.07048e-08
4.9759e-08
4.89111e-08
4.81079e-08
4.73895e-08
4.67007e-08
4.60862e-08
4.54914e-08
4.4963e-08
4.44449e-08
4.3987e-08
4.35329e-08
4.31346e-08
4.27341e-08
4.23861e-08
4.20315e-08
4.17264e-08
4.14105e-08
4.1142e-08
4.08589e-08
4.06209e-08
4.03671e-08
4.01568e-08
3.99275e-08
3.97403e-08
3.95333e-08
3.93675e-08
3.91779e-08
3.90312e-08
3.88592e-08
3.87291e-08
3.85716e-08
3.84531e-08
3.83124e-08
3.82067e-08
3.80758e-08
3.79847e-08
3.78615e-08
3.77789e-08
3.76666e-08
3.7592e-08
3.74884e-08
3.74212e-08
3.73271e-08
3.72608e-08
3.71762e-08
3.71164e-08
3.70403e-08
3.69846e-08
3.69132e-08
3.68613e-08
3.67933e-08
3.67401e-08
3.66744e-08
3.66211e-08
3.65568e-08
3.65051e-08
3.64427e-08
3.63927e-08
3.63323e-08
3.62834e-08
3.62254e-08
3.61766e-08
3.61217e-08
3.60727e-08
3.60202e-08
3.59729e-08
3.59186e-08
3.58637e-08
3.58083e-08
3.61552e-08
4.0642e-06
3.35389e-08
1.24325e-07
1.23671e-07
1.21197e-07
1.16494e-07
1.10344e-07
1.03732e-07
9.72842e-08
9.13429e-08
8.59923e-08
8.12587e-08
7.7069e-08
7.33905e-08
7.01285e-08
6.72583e-08
6.46944e-08
6.24272e-08
6.03826e-08
5.85657e-08
5.69112e-08
5.54356e-08
5.40782e-08
5.28642e-08
5.17371e-08
5.0727e-08
4.97796e-08
4.89303e-08
4.81256e-08
4.74059e-08
4.67159e-08
4.61003e-08
4.55044e-08
4.49751e-08
4.4456e-08
4.39974e-08
4.35424e-08
4.31433e-08
4.27421e-08
4.23935e-08
4.20382e-08
4.17325e-08
4.1416e-08
4.11469e-08
4.08634e-08
4.06249e-08
4.03705e-08
4.01598e-08
3.99301e-08
3.97425e-08
3.95351e-08
3.9369e-08
3.9179e-08
3.90319e-08
3.88596e-08
3.87293e-08
3.85714e-08
3.84527e-08
3.83116e-08
3.82057e-08
3.80745e-08
3.79832e-08
3.78598e-08
3.7777e-08
3.76645e-08
3.75896e-08
3.74859e-08
3.74184e-08
3.73243e-08
3.72578e-08
3.71729e-08
3.7113e-08
3.70367e-08
3.6981e-08
3.69095e-08
3.68575e-08
3.67893e-08
3.67361e-08
3.66702e-08
3.66169e-08
3.65524e-08
3.65007e-08
3.64381e-08
3.6388e-08
3.63275e-08
3.62785e-08
3.62203e-08
3.61715e-08
3.61164e-08
3.60673e-08
3.60147e-08
3.59673e-08
3.59128e-08
3.5858e-08
3.58025e-08
3.61529e-08
4.0571e-06
3.43124e-08
1.24323e-07
1.2367e-07
1.2121e-07
1.16525e-07
1.10392e-07
1.03792e-07
9.73501e-08
9.14111e-08
8.60602e-08
8.13246e-08
7.7132e-08
7.34501e-08
7.01844e-08
6.73107e-08
6.47433e-08
6.24727e-08
6.04249e-08
5.8605e-08
5.69477e-08
5.54695e-08
5.41097e-08
5.28935e-08
5.17642e-08
5.07522e-08
4.9803e-08
4.8952e-08
4.81458e-08
4.74246e-08
4.67333e-08
4.61164e-08
4.55193e-08
4.49888e-08
4.44687e-08
4.40091e-08
4.35532e-08
4.31533e-08
4.27512e-08
4.24018e-08
4.20458e-08
4.17394e-08
4.14223e-08
4.11526e-08
4.08684e-08
4.06294e-08
4.03745e-08
4.01633e-08
3.9933e-08
3.97451e-08
3.95372e-08
3.93707e-08
3.91803e-08
3.90329e-08
3.88602e-08
3.87295e-08
3.85713e-08
3.84523e-08
3.83108e-08
3.82047e-08
3.80731e-08
3.79816e-08
3.78579e-08
3.77749e-08
3.76621e-08
3.75871e-08
3.74831e-08
3.74154e-08
3.73211e-08
3.72544e-08
3.71694e-08
3.71093e-08
3.70327e-08
3.69769e-08
3.69053e-08
3.68533e-08
3.67849e-08
3.67317e-08
3.66655e-08
3.66122e-08
3.65476e-08
3.64957e-08
3.64329e-08
3.63828e-08
3.6322e-08
3.6273e-08
3.62146e-08
3.61657e-08
3.61104e-08
3.60614e-08
3.60085e-08
3.59611e-08
3.59064e-08
3.58516e-08
3.57959e-08
3.61504e-08
4.04922e-06
3.51739e-08
1.24321e-07
1.23669e-07
1.21224e-07
1.1656e-07
1.10445e-07
1.03858e-07
9.74236e-08
9.14872e-08
8.6136e-08
8.13983e-08
7.72025e-08
7.35167e-08
7.02471e-08
6.73693e-08
6.4798e-08
6.25236e-08
6.04723e-08
5.86491e-08
5.69886e-08
5.55075e-08
5.4145e-08
5.29263e-08
5.17947e-08
5.07805e-08
4.98293e-08
4.89764e-08
4.81684e-08
4.74456e-08
4.67527e-08
4.61344e-08
4.5536e-08
4.50043e-08
4.4483e-08
4.40223e-08
4.35653e-08
4.31645e-08
4.27615e-08
4.24112e-08
4.20544e-08
4.17472e-08
4.14293e-08
4.1159e-08
4.08741e-08
4.06345e-08
4.0379e-08
4.01673e-08
3.99365e-08
3.9748e-08
3.95396e-08
3.93727e-08
3.91818e-08
3.9034e-08
3.88608e-08
3.87298e-08
3.85712e-08
3.84519e-08
3.831e-08
3.82036e-08
3.80717e-08
3.79799e-08
3.78559e-08
3.77727e-08
3.76595e-08
3.75843e-08
3.74801e-08
3.74122e-08
3.73176e-08
3.72507e-08
3.71654e-08
3.71051e-08
3.70283e-08
3.69724e-08
3.69007e-08
3.68486e-08
3.678e-08
3.67268e-08
3.66604e-08
3.6607e-08
3.65421e-08
3.64902e-08
3.64272e-08
3.6377e-08
3.6316e-08
3.62669e-08
3.62083e-08
3.61594e-08
3.61038e-08
3.60547e-08
3.60016e-08
3.59542e-08
3.58993e-08
3.58445e-08
3.57886e-08
3.61477e-08
4.04053e-06
3.61366e-08
1.24319e-07
1.23668e-07
1.21238e-07
1.16598e-07
1.10504e-07
1.03931e-07
9.75047e-08
9.15714e-08
8.62199e-08
8.14798e-08
7.72805e-08
7.35906e-08
7.03166e-08
6.74343e-08
6.48587e-08
6.25802e-08
6.05249e-08
5.8698e-08
5.70341e-08
5.55497e-08
5.41843e-08
5.29627e-08
5.18285e-08
5.08119e-08
4.98585e-08
4.90035e-08
4.81936e-08
4.7469e-08
4.67745e-08
4.61546e-08
4.55547e-08
4.50216e-08
4.4499e-08
4.40371e-08
4.35789e-08
4.3177e-08
4.2773e-08
4.24218e-08
4.2064e-08
4.1756e-08
4.14373e-08
4.11662e-08
4.08806e-08
4.06403e-08
4.03841e-08
4.01718e-08
3.99403e-08
3.97513e-08
3.95424e-08
3.9375e-08
3.91836e-08
3.90353e-08
3.88617e-08
3.87302e-08
3.85712e-08
3.84515e-08
3.83092e-08
3.82025e-08
3.80702e-08
3.79781e-08
3.78538e-08
3.77702e-08
3.76568e-08
3.75813e-08
3.74767e-08
3.74086e-08
3.73138e-08
3.72467e-08
3.71611e-08
3.71007e-08
3.70235e-08
3.69675e-08
3.68956e-08
3.68435e-08
3.67746e-08
3.67215e-08
3.66547e-08
3.66013e-08
3.65362e-08
3.64842e-08
3.6421e-08
3.63706e-08
3.63095e-08
3.62602e-08
3.62014e-08
3.61524e-08
3.60966e-08
3.60475e-08
3.5994e-08
3.59466e-08
3.58914e-08
3.58368e-08
3.57806e-08
3.61448e-08
4.03097e-06
3.72147e-08
1.24316e-07
1.23667e-07
1.21255e-07
1.16639e-07
1.10568e-07
1.04011e-07
9.75936e-08
9.16637e-08
8.63121e-08
8.15694e-08
7.73663e-08
7.36718e-08
7.0393e-08
6.75059e-08
6.49256e-08
6.26425e-08
6.05829e-08
5.8752e-08
5.70843e-08
5.55963e-08
5.42277e-08
5.3003e-08
5.1866e-08
5.08467e-08
4.98909e-08
4.90335e-08
4.82215e-08
4.74949e-08
4.67985e-08
4.61769e-08
4.55753e-08
4.50407e-08
4.45167e-08
4.40534e-08
4.3594e-08
4.31909e-08
4.27858e-08
4.24335e-08
4.20747e-08
4.17658e-08
4.14462e-08
4.11743e-08
4.08878e-08
4.06468e-08
4.03898e-08
4.01769e-08
3.99447e-08
3.97551e-08
3.95455e-08
3.93776e-08
3.91856e-08
3.90369e-08
3.88627e-08
3.87308e-08
3.85713e-08
3.84512e-08
3.83084e-08
3.82014e-08
3.80686e-08
3.79762e-08
3.78515e-08
3.77677e-08
3.76539e-08
3.75781e-08
3.74732e-08
3.74048e-08
3.73097e-08
3.72424e-08
3.71565e-08
3.70958e-08
3.70183e-08
3.69623e-08
3.68902e-08
3.6838e-08
3.67688e-08
3.67157e-08
3.66486e-08
3.65951e-08
3.65298e-08
3.64776e-08
3.64142e-08
3.63637e-08
3.63023e-08
3.6253e-08
3.61939e-08
3.61448e-08
3.60887e-08
3.60396e-08
3.59858e-08
3.59383e-08
3.58829e-08
3.58283e-08
3.5772e-08
3.61417e-08
4.02046e-06
3.84231e-08
1.24313e-07
1.23666e-07
1.21272e-07
1.16684e-07
1.10638e-07
1.04098e-07
9.76905e-08
9.17644e-08
8.64126e-08
8.16673e-08
7.74601e-08
7.37607e-08
7.04767e-08
6.75843e-08
6.49988e-08
6.27107e-08
6.06465e-08
5.88111e-08
5.71393e-08
5.56475e-08
5.42752e-08
5.30472e-08
5.1907e-08
5.08849e-08
4.99263e-08
4.90665e-08
4.82522e-08
4.75234e-08
4.68249e-08
4.62014e-08
4.55981e-08
4.50618e-08
4.45362e-08
4.40715e-08
4.36107e-08
4.32063e-08
4.27999e-08
4.24465e-08
4.20866e-08
4.17767e-08
4.1456e-08
4.11832e-08
4.08959e-08
4.06541e-08
4.03962e-08
4.01826e-08
3.99497e-08
3.97594e-08
3.95491e-08
3.93806e-08
3.9188e-08
3.90387e-08
3.88639e-08
3.87316e-08
3.85716e-08
3.8451e-08
3.83077e-08
3.82003e-08
3.8067e-08
3.79743e-08
3.78491e-08
3.7765e-08
3.76508e-08
3.75747e-08
3.74695e-08
3.74007e-08
3.73053e-08
3.72378e-08
3.71516e-08
3.70907e-08
3.70128e-08
3.69566e-08
3.68843e-08
3.6832e-08
3.67626e-08
3.67095e-08
3.6642e-08
3.65884e-08
3.65229e-08
3.64706e-08
3.64069e-08
3.63563e-08
3.62946e-08
3.62451e-08
3.61858e-08
3.61366e-08
3.60802e-08
3.6031e-08
3.59769e-08
3.59294e-08
3.58736e-08
3.58191e-08
3.57626e-08
3.61385e-08
4.00885e-06
3.97775e-08
1.2431e-07
1.23665e-07
1.21291e-07
1.16732e-07
1.10713e-07
1.04192e-07
9.77953e-08
9.18735e-08
8.65218e-08
8.17736e-08
7.7562e-08
7.38573e-08
7.05678e-08
6.76696e-08
6.50786e-08
6.27851e-08
6.07158e-08
5.88756e-08
5.71993e-08
5.57033e-08
5.43271e-08
5.30954e-08
5.19519e-08
5.09266e-08
4.99651e-08
4.91026e-08
4.82857e-08
4.75546e-08
4.68539e-08
4.62283e-08
4.5623e-08
4.5085e-08
4.45576e-08
4.40913e-08
4.3629e-08
4.32232e-08
4.28154e-08
4.24608e-08
4.20996e-08
4.17887e-08
4.14669e-08
4.11931e-08
4.09048e-08
4.06621e-08
4.04033e-08
4.01889e-08
3.99552e-08
3.97642e-08
3.95531e-08
3.9384e-08
3.91907e-08
3.90409e-08
3.88654e-08
3.87325e-08
3.8572e-08
3.84509e-08
3.8307e-08
3.81993e-08
3.80654e-08
3.79723e-08
3.78467e-08
3.77622e-08
3.76475e-08
3.75711e-08
3.74655e-08
3.73964e-08
3.73007e-08
3.72329e-08
3.71464e-08
3.70852e-08
3.70069e-08
3.69505e-08
3.6878e-08
3.68257e-08
3.67559e-08
3.67028e-08
3.66349e-08
3.65813e-08
3.65154e-08
3.6463e-08
3.63991e-08
3.63483e-08
3.62863e-08
3.62368e-08
3.61771e-08
3.61279e-08
3.60711e-08
3.60219e-08
3.59673e-08
3.59198e-08
3.58637e-08
3.58093e-08
3.57525e-08
3.6135e-08
3.99595e-06
4.12938e-08
1.24306e-07
1.23663e-07
1.2131e-07
1.16783e-07
1.10793e-07
1.04293e-07
9.79082e-08
9.19913e-08
8.66396e-08
8.18885e-08
7.76723e-08
7.39619e-08
7.06664e-08
6.77621e-08
6.51651e-08
6.28658e-08
6.0791e-08
5.89456e-08
5.72645e-08
5.57639e-08
5.43835e-08
5.31479e-08
5.20007e-08
5.0972e-08
5.00074e-08
4.91419e-08
4.83222e-08
4.75885e-08
4.68854e-08
4.62576e-08
4.56502e-08
4.51102e-08
4.4581e-08
4.4113e-08
4.3649e-08
4.32417e-08
4.28324e-08
4.24765e-08
4.2114e-08
4.18018e-08
4.14788e-08
4.1204e-08
4.09146e-08
4.0671e-08
4.04112e-08
4.0196e-08
3.99613e-08
3.97696e-08
3.95577e-08
3.93879e-08
3.91939e-08
3.90434e-08
3.88672e-08
3.87338e-08
3.85726e-08
3.8451e-08
3.83065e-08
3.81983e-08
3.80638e-08
3.79703e-08
3.78443e-08
3.77593e-08
3.76442e-08
3.75674e-08
3.74614e-08
3.73919e-08
3.72959e-08
3.72278e-08
3.71409e-08
3.70794e-08
3.70007e-08
3.69441e-08
3.68714e-08
3.68189e-08
3.67488e-08
3.66957e-08
3.66274e-08
3.65737e-08
3.65075e-08
3.6455e-08
3.63907e-08
3.63398e-08
3.62775e-08
3.62278e-08
3.61678e-08
3.61185e-08
3.60613e-08
3.60121e-08
3.59571e-08
3.59096e-08
3.58531e-08
3.57987e-08
3.57417e-08
3.61313e-08
3.98149e-06
4.29882e-08
1.24303e-07
1.23661e-07
1.21331e-07
1.16837e-07
1.10879e-07
1.04401e-07
9.80294e-08
9.21177e-08
8.67664e-08
8.20122e-08
7.77911e-08
7.40748e-08
7.07728e-08
6.78619e-08
6.52585e-08
6.29529e-08
6.08723e-08
5.90213e-08
5.7335e-08
5.58295e-08
5.44446e-08
5.32047e-08
5.20536e-08
5.10212e-08
5.00531e-08
4.91845e-08
4.83618e-08
4.76254e-08
4.69197e-08
4.62894e-08
4.56797e-08
4.51376e-08
4.46064e-08
4.41366e-08
4.36708e-08
4.32619e-08
4.2851e-08
4.24936e-08
4.21297e-08
4.18162e-08
4.14919e-08
4.1216e-08
4.09254e-08
4.06808e-08
4.042e-08
4.02038e-08
3.99682e-08
3.97757e-08
3.95628e-08
3.93923e-08
3.91974e-08
3.90463e-08
3.88694e-08
3.87353e-08
3.85735e-08
3.84513e-08
3.83061e-08
3.81975e-08
3.80624e-08
3.79684e-08
3.78418e-08
3.77564e-08
3.76408e-08
3.75636e-08
3.74572e-08
3.73873e-08
3.72909e-08
3.72225e-08
3.71351e-08
3.70733e-08
3.69942e-08
3.69374e-08
3.68644e-08
3.68118e-08
3.67414e-08
3.66882e-08
3.66195e-08
3.65658e-08
3.64992e-08
3.64465e-08
3.63819e-08
3.63308e-08
3.62682e-08
3.62184e-08
3.6158e-08
3.61085e-08
3.6051e-08
3.60017e-08
3.59463e-08
3.58987e-08
3.58418e-08
3.57875e-08
3.57302e-08
3.61274e-08
3.96517e-06
4.48768e-08
1.24299e-07
1.23659e-07
1.21353e-07
1.16895e-07
1.1097e-07
1.04517e-07
9.81588e-08
9.22531e-08
8.69023e-08
8.21449e-08
7.79187e-08
7.4196e-08
7.08872e-08
6.79693e-08
6.5359e-08
6.30468e-08
6.09598e-08
5.91029e-08
5.7411e-08
5.59002e-08
5.45105e-08
5.3266e-08
5.21107e-08
5.10743e-08
5.01026e-08
4.92305e-08
4.84047e-08
4.76652e-08
4.69568e-08
4.63239e-08
4.57118e-08
4.51674e-08
4.46341e-08
4.41622e-08
4.36945e-08
4.32838e-08
4.28712e-08
4.25123e-08
4.21468e-08
4.18319e-08
4.15063e-08
4.12291e-08
4.09373e-08
4.06915e-08
4.04296e-08
4.02124e-08
3.99758e-08
3.97824e-08
3.95686e-08
3.93973e-08
3.92015e-08
3.90496e-08
3.88719e-08
3.87372e-08
3.85746e-08
3.84519e-08
3.83059e-08
3.81968e-08
3.8061e-08
3.79665e-08
3.78394e-08
3.77535e-08
3.76374e-08
3.75598e-08
3.74528e-08
3.73825e-08
3.72857e-08
3.7217e-08
3.71291e-08
3.7067e-08
3.69874e-08
3.69304e-08
3.68571e-08
3.68044e-08
3.67335e-08
3.66804e-08
3.66112e-08
3.65574e-08
3.64904e-08
3.64376e-08
3.63726e-08
3.63214e-08
3.62584e-08
3.62084e-08
3.61476e-08
3.60981e-08
3.60401e-08
3.59907e-08
3.59348e-08
3.58872e-08
3.58298e-08
3.57757e-08
3.57181e-08
3.61233e-08
3.94656e-06
4.69755e-08
1.24295e-07
1.23657e-07
1.21376e-07
1.16956e-07
1.11067e-07
1.0464e-07
9.82967e-08
9.23975e-08
8.70474e-08
8.22868e-08
7.80552e-08
7.43258e-08
7.10098e-08
6.80844e-08
6.54668e-08
6.31475e-08
6.10539e-08
5.91905e-08
5.74927e-08
5.59763e-08
5.45813e-08
5.3332e-08
5.21722e-08
5.11316e-08
5.01559e-08
4.92802e-08
4.84509e-08
4.77083e-08
4.69968e-08
4.63612e-08
4.57464e-08
4.51996e-08
4.46639e-08
4.41899e-08
4.37202e-08
4.33076e-08
4.28932e-08
4.25326e-08
4.21654e-08
4.18491e-08
4.15219e-08
4.12434e-08
4.09502e-08
4.07033e-08
4.04402e-08
4.02219e-08
3.99842e-08
3.97898e-08
3.9575e-08
3.94029e-08
3.92061e-08
3.90535e-08
3.88749e-08
3.87394e-08
3.85761e-08
3.84527e-08
3.8306e-08
3.81963e-08
3.80597e-08
3.79648e-08
3.7837e-08
3.77507e-08
3.7634e-08
3.75559e-08
3.74484e-08
3.73777e-08
3.72804e-08
3.72113e-08
3.7123e-08
3.70605e-08
3.69804e-08
3.69231e-08
3.68495e-08
3.67966e-08
3.67254e-08
3.66722e-08
3.66025e-08
3.65486e-08
3.64812e-08
3.64283e-08
3.63629e-08
3.63115e-08
3.62481e-08
3.61979e-08
3.61367e-08
3.6087e-08
3.60286e-08
3.59792e-08
3.59228e-08
3.58751e-08
3.58172e-08
3.57632e-08
3.57053e-08
3.61189e-08
3.92522e-06
4.92996e-08
1.24291e-07
1.23654e-07
1.214e-07
1.17021e-07
1.1117e-07
1.0477e-07
9.84431e-08
9.25511e-08
8.72019e-08
8.24381e-08
7.82009e-08
7.44644e-08
7.11408e-08
6.82075e-08
6.55823e-08
6.32554e-08
6.11546e-08
5.92844e-08
5.75803e-08
5.60579e-08
5.46574e-08
5.34029e-08
5.22382e-08
5.11931e-08
5.02132e-08
4.93336e-08
4.85006e-08
4.77546e-08
4.704e-08
4.64014e-08
4.57838e-08
4.52344e-08
4.46962e-08
4.42199e-08
4.37479e-08
4.33334e-08
4.2917e-08
4.25546e-08
4.21857e-08
4.18677e-08
4.1539e-08
4.12591e-08
4.09644e-08
4.07163e-08
4.04518e-08
4.02324e-08
3.99935e-08
3.97981e-08
3.95821e-08
3.94091e-08
3.92114e-08
3.90579e-08
3.88783e-08
3.87421e-08
3.8578e-08
3.84539e-08
3.83063e-08
3.81961e-08
3.80587e-08
3.79632e-08
3.78348e-08
3.77479e-08
3.76306e-08
3.7552e-08
3.7444e-08
3.73727e-08
3.7275e-08
3.72055e-08
3.71166e-08
3.70538e-08
3.69732e-08
3.69156e-08
3.68416e-08
3.67886e-08
3.67169e-08
3.66637e-08
3.65935e-08
3.65396e-08
3.64716e-08
3.64185e-08
3.63528e-08
3.63012e-08
3.62373e-08
3.6187e-08
3.61253e-08
3.60755e-08
3.60166e-08
3.59671e-08
3.59102e-08
3.58624e-08
3.5804e-08
3.57501e-08
3.56919e-08
3.61142e-08
3.90058e-06
5.18631e-08
1.24286e-07
1.23651e-07
1.21425e-07
1.17088e-07
1.11278e-07
1.04907e-07
9.85981e-08
9.2714e-08
8.7366e-08
8.2599e-08
7.83559e-08
7.46121e-08
7.12805e-08
6.83389e-08
6.57055e-08
6.33706e-08
6.12623e-08
5.93849e-08
5.7674e-08
5.61452e-08
5.47389e-08
5.34788e-08
5.23089e-08
5.1259e-08
5.02747e-08
4.93909e-08
4.8554e-08
4.78044e-08
4.70863e-08
4.64446e-08
4.5824e-08
4.52718e-08
4.4731e-08
4.42523e-08
4.37779e-08
4.33612e-08
4.29427e-08
4.25784e-08
4.22076e-08
4.1888e-08
4.15575e-08
4.12761e-08
4.09799e-08
4.07304e-08
4.04645e-08
4.02439e-08
4.00037e-08
3.98073e-08
3.95901e-08
3.94162e-08
3.92173e-08
3.90629e-08
3.88824e-08
3.87454e-08
3.85803e-08
3.84555e-08
3.8307e-08
3.81962e-08
3.8058e-08
3.79618e-08
3.78328e-08
3.77453e-08
3.76273e-08
3.75482e-08
3.74396e-08
3.73678e-08
3.72696e-08
3.71997e-08
3.71102e-08
3.7047e-08
3.69658e-08
3.69079e-08
3.68334e-08
3.67803e-08
3.67082e-08
3.66549e-08
3.65841e-08
3.65302e-08
3.64617e-08
3.64085e-08
3.63422e-08
3.62904e-08
3.62261e-08
3.61756e-08
3.61135e-08
3.60636e-08
3.60041e-08
3.59545e-08
3.5897e-08
3.58491e-08
3.57902e-08
3.57364e-08
3.5678e-08
3.61093e-08
3.87205e-06
5.46787e-08
1.24282e-07
1.23648e-07
1.21451e-07
1.17158e-07
1.11391e-07
1.05052e-07
9.87618e-08
9.28863e-08
8.75399e-08
8.27696e-08
7.85206e-08
7.4769e-08
7.14291e-08
6.84787e-08
6.58367e-08
6.34934e-08
6.13771e-08
5.9492e-08
5.7774e-08
5.62385e-08
5.48259e-08
5.35599e-08
5.23846e-08
5.13296e-08
5.03406e-08
4.94523e-08
4.86113e-08
4.78578e-08
4.71361e-08
4.6491e-08
4.58672e-08
4.5312e-08
4.47684e-08
4.42871e-08
4.38103e-08
4.33913e-08
4.29705e-08
4.26042e-08
4.22313e-08
4.19099e-08
4.15776e-08
4.12946e-08
4.09968e-08
4.07459e-08
4.04784e-08
4.02566e-08
4.0015e-08
3.98174e-08
3.9599e-08
3.9424e-08
3.9224e-08
3.90687e-08
3.88871e-08
3.87492e-08
3.85832e-08
3.84576e-08
3.83082e-08
3.81966e-08
3.80575e-08
3.79608e-08
3.78309e-08
3.77429e-08
3.76242e-08
3.75445e-08
3.74353e-08
3.73629e-08
3.72641e-08
3.71938e-08
3.71038e-08
3.70401e-08
3.69583e-08
3.69001e-08
3.68251e-08
3.67718e-08
3.66992e-08
3.66458e-08
3.65745e-08
3.65206e-08
3.64515e-08
3.63981e-08
3.63314e-08
3.62794e-08
3.62146e-08
3.61639e-08
3.61012e-08
3.60511e-08
3.59911e-08
3.59415e-08
3.58833e-08
3.58354e-08
3.57759e-08
3.57222e-08
3.56634e-08
3.6104e-08
3.83896e-06
5.77573e-08
1.24277e-07
1.23645e-07
1.21478e-07
1.17232e-07
1.1151e-07
1.05204e-07
9.89342e-08
9.30682e-08
8.77237e-08
8.29502e-08
7.86951e-08
7.49355e-08
7.15868e-08
6.86273e-08
6.59762e-08
6.3624e-08
6.14993e-08
5.96061e-08
5.78806e-08
5.63379e-08
5.49187e-08
5.36465e-08
5.24654e-08
5.1405e-08
5.04109e-08
4.95179e-08
4.86725e-08
4.79149e-08
4.71894e-08
4.65407e-08
4.59135e-08
4.53552e-08
4.48086e-08
4.43245e-08
4.3845e-08
4.34236e-08
4.30005e-08
4.2632e-08
4.2257e-08
4.19336e-08
4.15994e-08
4.13147e-08
4.10152e-08
4.07627e-08
4.04937e-08
4.02705e-08
4.00274e-08
3.98286e-08
3.96088e-08
3.94328e-08
3.92316e-08
3.90752e-08
3.88925e-08
3.87536e-08
3.85867e-08
3.84602e-08
3.83098e-08
3.81975e-08
3.80575e-08
3.796e-08
3.78294e-08
3.77407e-08
3.76213e-08
3.7541e-08
3.74311e-08
3.73581e-08
3.72588e-08
3.7188e-08
3.70973e-08
3.70332e-08
3.69508e-08
3.68922e-08
3.68167e-08
3.67631e-08
3.66901e-08
3.66366e-08
3.65647e-08
3.65108e-08
3.6441e-08
3.63875e-08
3.63202e-08
3.6268e-08
3.62027e-08
3.61518e-08
3.60886e-08
3.60384e-08
3.59777e-08
3.5928e-08
3.58692e-08
3.58212e-08
3.57611e-08
3.57075e-08
3.56484e-08
3.60983e-08
3.8006e-06
6.11058e-08
1.24272e-07
1.23641e-07
1.21505e-07
1.17308e-07
1.11634e-07
1.05363e-07
9.91154e-08
9.32597e-08
8.79176e-08
8.31411e-08
7.88796e-08
7.51118e-08
7.1754e-08
6.87848e-08
6.61242e-08
6.37627e-08
6.16291e-08
5.97274e-08
5.79939e-08
5.64438e-08
5.50175e-08
5.37387e-08
5.25516e-08
5.14854e-08
5.0486e-08
4.9588e-08
4.8738e-08
4.7976e-08
4.72464e-08
4.65939e-08
4.59631e-08
4.54015e-08
4.48518e-08
4.43647e-08
4.38824e-08
4.34584e-08
4.30328e-08
4.26619e-08
4.22847e-08
4.19593e-08
4.16231e-08
4.13365e-08
4.10351e-08
4.07811e-08
4.05103e-08
4.02857e-08
4.00411e-08
3.9841e-08
3.96197e-08
3.94425e-08
3.924e-08
3.90826e-08
3.88986e-08
3.87588e-08
3.85908e-08
3.84635e-08
3.83119e-08
3.8199e-08
3.80579e-08
3.79597e-08
3.78283e-08
3.77389e-08
3.76186e-08
3.75377e-08
3.74271e-08
3.73535e-08
3.72535e-08
3.71823e-08
3.70909e-08
3.70263e-08
3.69432e-08
3.68842e-08
3.68081e-08
3.67544e-08
3.66808e-08
3.66272e-08
3.65547e-08
3.65008e-08
3.64303e-08
3.63767e-08
3.63088e-08
3.62564e-08
3.61905e-08
3.61394e-08
3.60756e-08
3.60252e-08
3.59639e-08
3.59142e-08
3.58546e-08
3.58065e-08
3.57457e-08
3.56923e-08
3.56329e-08
3.60921e-08
3.7562e-06
6.47272e-08
1.24267e-07
1.23637e-07
1.21533e-07
1.17387e-07
1.11763e-07
1.0553e-07
9.93055e-08
9.34611e-08
8.81218e-08
8.33423e-08
7.90745e-08
7.52981e-08
7.19308e-08
6.89515e-08
6.62811e-08
6.39097e-08
6.17668e-08
5.98562e-08
5.81143e-08
5.65562e-08
5.51226e-08
5.38368e-08
5.26432e-08
5.1571e-08
5.0566e-08
4.96627e-08
4.88078e-08
4.80412e-08
4.73073e-08
4.66508e-08
4.60162e-08
4.54511e-08
4.4898e-08
4.44079e-08
4.39226e-08
4.34958e-08
4.30675e-08
4.26942e-08
4.23146e-08
4.1987e-08
4.16486e-08
4.13601e-08
4.10568e-08
4.0801e-08
4.05285e-08
4.03023e-08
4.00561e-08
3.98546e-08
3.96318e-08
3.94534e-08