/*--------------------------------*- C++ -*----------------------------------*\
| =========                 |                                                 |
| \\      /  F ield         | OpenFOAM: The Open Source CFD Toolbox           |
|  \\    /   O peration     | Version:  v2012                                 |
|   \\  /    A nd           | Website:  www.openfoam.com                      |
|    \\/     M anipulation  |                                                 |
\*---------------------------------------------------------------------------*/
FoamFile
{
    version     2.0;
    format      ascii;
    class       volVectorField;
    location    "48.5";
    object      wallShearStress;
}
// * * * * * * * * * * * * * * * * * * * * * * * * * * * * * * * * * * * * * //

dimensions      [0 2 -2 0 0 0 0];


internalField   uniform (0 0 0);

boundaryField
{
    inlet
    {
        type            calculated;
        value           uniform (0 0 0);
    }
    outlet
    {
        type            calculated;
        value           uniform (0 0 0);
    }
    topWall
    {
        type            calculated;
        value           nonuniform List<vector> 
545
(
(6.88896e-08 -4.84902e-08 0)
(6.88719e-08 -1.3566e-07 0)
(6.8826e-08 -2.26295e-07 0)
(6.87632e-08 -3.14298e-07 0)
(6.86872e-08 -3.98544e-07 0)
(6.85978e-08 -4.80115e-07 0)
(6.84959e-08 -5.59705e-07 0)
(6.83824e-08 -6.37277e-07 0)
(6.82581e-08 -7.12659e-07 0)
(6.81242e-08 -7.85851e-07 0)
(6.79815e-08 -8.56948e-07 0)
(6.78309e-08 -9.26032e-07 0)
(6.76732e-08 -9.9315e-07 0)
(6.7509e-08 -1.05834e-06 0)
(6.73392e-08 -1.12166e-06 0)
(6.71644e-08 -1.18314e-06 0)
(6.69852e-08 -1.24285e-06 0)
(6.68022e-08 -1.30082e-06 0)
(6.66159e-08 -1.35711e-06 0)
(6.64269e-08 -1.41176e-06 0)
(6.62355e-08 -1.46482e-06 0)
(6.60423e-08 -1.51633e-06 0)
(6.58477e-08 -1.56633e-06 0)
(6.5652e-08 -1.61487e-06 0)
(6.54555e-08 -1.66199e-06 0)
(6.52588e-08 -1.70773e-06 0)
(6.50619e-08 -1.75213e-06 0)
(6.48653e-08 -1.79523e-06 0)
(6.46691e-08 -1.83706e-06 0)
(6.44736e-08 -1.87767e-06 0)
(6.42791e-08 -1.91709e-06 0)
(6.40857e-08 -1.95535e-06 0)
(6.38936e-08 -1.99249e-06 0)
(6.3703e-08 -2.02855e-06 0)
(6.35141e-08 -2.06355e-06 0)
(6.33269e-08 -2.09752e-06 0)
(6.31416e-08 -2.1305e-06 0)
(6.29584e-08 -2.16252e-06 0)
(6.27772e-08 -2.19361e-06 0)
(6.25983e-08 -2.22379e-06 0)
(6.24217e-08 -2.25308e-06 0)
(6.22475e-08 -2.28153e-06 0)
(6.20756e-08 -2.30915e-06 0)
(6.19063e-08 -2.33597e-06 0)
(6.17395e-08 -2.36201e-06 0)
(6.15752e-08 -2.38729e-06 0)
(6.14135e-08 -2.41185e-06 0)
(6.12545e-08 -2.43569e-06 0)
(6.10981e-08 -2.45884e-06 0)
(6.09443e-08 -2.48133e-06 0)
(6.07932e-08 -2.50317e-06 0)
(6.06448e-08 -2.52438e-06 0)
(6.0499e-08 -2.54498e-06 0)
(6.03559e-08 -2.56499e-06 0)
(6.02155e-08 -2.58443e-06 0)
(6.00777e-08 -2.60331e-06 0)
(5.99425e-08 -2.62166e-06 0)
(5.98099e-08 -2.63947e-06 0)
(5.96799e-08 -2.65678e-06 0)
(5.95525e-08 -2.6736e-06 0)
(5.94276e-08 -2.68994e-06 0)
(5.93053e-08 -2.70582e-06 0)
(5.91854e-08 -2.72124e-06 0)
(5.9068e-08 -2.73623e-06 0)
(5.8953e-08 -2.7508e-06 0)
(5.88405e-08 -2.76495e-06 0)
(5.87302e-08 -2.7787e-06 0)
(5.86224e-08 -2.79207e-06 0)
(5.85168e-08 -2.80506e-06 0)
(5.84135e-08 -2.81768e-06 0)
(5.83124e-08 -2.82996e-06 0)
(5.82134e-08 -2.84187e-06 0)
(5.81174e-08 -2.85333e-06 0)
(5.80242e-08 -2.86445e-06 0)
(5.79319e-08 -2.87545e-06 0)
(5.78398e-08 -2.88639e-06 0)
(5.77479e-08 -2.89728e-06 0)
(5.76561e-08 -2.90811e-06 0)
(5.75644e-08 -2.91886e-06 0)
(5.74727e-08 -2.92955e-06 0)
(5.73812e-08 -2.94017e-06 0)
(5.72897e-08 -2.95073e-06 0)
(5.71984e-08 -2.96122e-06 0)
(5.71071e-08 -2.97165e-06 0)
(5.7016e-08 -2.98201e-06 0)
(5.6925e-08 -2.99231e-06 0)
(5.6834e-08 -3.00255e-06 0)
(5.67433e-08 -3.01272e-06 0)
(5.66526e-08 -3.02283e-06 0)
(5.6562e-08 -3.03288e-06 0)
(5.64716e-08 -3.04287e-06 0)
(5.63813e-08 -3.05279e-06 0)
(5.62912e-08 -3.06266e-06 0)
(5.62011e-08 -3.07245e-06 0)
(5.61119e-08 -3.08222e-06 0)
(5.60205e-08 -3.09181e-06 0)
(5.59327e-08 -3.10058e-06 0)
(5.58552e-08 -3.10856e-06 0)
(5.57814e-08 -3.11631e-06 0)
(5.57077e-08 -3.12408e-06 0)
(5.56338e-08 -3.13194e-06 0)
(5.55597e-08 -3.13981e-06 0)
(5.54852e-08 -3.14768e-06 0)
(5.54104e-08 -3.15555e-06 0)
(5.53352e-08 -3.16343e-06 0)
(5.52596e-08 -3.17131e-06 0)
(5.51837e-08 -3.17921e-06 0)
(5.51075e-08 -3.18711e-06 0)
(5.50309e-08 -3.19502e-06 0)
(5.49539e-08 -3.20294e-06 0)
(5.48766e-08 -3.21086e-06 0)
(5.47989e-08 -3.2188e-06 0)
(5.47209e-08 -3.22674e-06 0)
(5.46425e-08 -3.23468e-06 0)
(5.45637e-08 -3.24264e-06 0)
(5.44846e-08 -3.2506e-06 0)
(5.44051e-08 -3.25857e-06 0)
(5.43253e-08 -3.26655e-06 0)
(5.42451e-08 -3.27453e-06 0)
(5.41645e-08 -3.28252e-06 0)
(5.40836e-08 -3.29052e-06 0)
(5.40023e-08 -3.29852e-06 0)
(5.39206e-08 -3.30653e-06 0)
(5.38385e-08 -3.31455e-06 0)
(5.37561e-08 -3.32257e-06 0)
(5.36733e-08 -3.3306e-06 0)
(5.35902e-08 -3.33864e-06 0)
(5.35066e-08 -3.34669e-06 0)
(5.34227e-08 -3.35474e-06 0)
(5.33385e-08 -3.36279e-06 0)
(5.32538e-08 -3.37086e-06 0)
(5.31688e-08 -3.37892e-06 0)
(5.30834e-08 -3.387e-06 0)
(5.29976e-08 -3.39508e-06 0)
(5.29114e-08 -3.40317e-06 0)
(5.28249e-08 -3.41126e-06 0)
(5.2738e-08 -3.41936e-06 0)
(5.26506e-08 -3.42746e-06 0)
(5.2563e-08 -3.43557e-06 0)
(5.24749e-08 -3.44369e-06 0)
(5.23864e-08 -3.45181e-06 0)
(5.22976e-08 -3.45993e-06 0)
(5.22083e-08 -3.46807e-06 0)
(5.21187e-08 -3.4762e-06 0)
(5.20287e-08 -3.48434e-06 0)
(5.19383e-08 -3.49249e-06 0)
(5.18476e-08 -3.50064e-06 0)
(5.17564e-08 -3.5088e-06 0)
(5.16648e-08 -3.51696e-06 0)
(5.15729e-08 -3.52513e-06 0)
(5.14805e-08 -3.5333e-06 0)
(5.13878e-08 -3.54147e-06 0)
(5.12946e-08 -3.54965e-06 0)
(5.12011e-08 -3.55784e-06 0)
(5.11072e-08 -3.56603e-06 0)
(5.10129e-08 -3.57422e-06 0)
(5.09182e-08 -3.58242e-06 0)
(5.0823e-08 -3.59062e-06 0)
(5.07275e-08 -3.59882e-06 0)
(5.06316e-08 -3.60703e-06 0)
(5.05353e-08 -3.61524e-06 0)
(5.04386e-08 -3.62346e-06 0)
(5.03415e-08 -3.63168e-06 0)
(5.0244e-08 -3.6399e-06 0)
(5.01461e-08 -3.64813e-06 0)
(5.00478e-08 -3.65636e-06 0)
(4.99491e-08 -3.66459e-06 0)
(4.98499e-08 -3.67283e-06 0)
(4.97504e-08 -3.68107e-06 0)
(4.96505e-08 -3.68931e-06 0)
(4.95502e-08 -3.69756e-06 0)
(4.94494e-08 -3.7058e-06 0)
(4.93483e-08 -3.71405e-06 0)
(4.92467e-08 -3.72231e-06 0)
(4.91448e-08 -3.73056e-06 0)
(4.90424e-08 -3.73882e-06 0)
(4.89397e-08 -3.74708e-06 0)
(4.88365e-08 -3.75534e-06 0)
(4.87329e-08 -3.7636e-06 0)
(4.86289e-08 -3.77187e-06 0)
(4.85245e-08 -3.78014e-06 0)
(4.84197e-08 -3.78841e-06 0)
(4.83145e-08 -3.79668e-06 0)
(4.82089e-08 -3.80495e-06 0)
(4.81028e-08 -3.81322e-06 0)
(4.79964e-08 -3.8215e-06 0)
(4.78895e-08 -3.82977e-06 0)
(4.77823e-08 -3.83805e-06 0)
(4.76746e-08 -3.84632e-06 0)
(4.75665e-08 -3.8546e-06 0)
(4.7458e-08 -3.86288e-06 0)
(4.73491e-08 -3.87116e-06 0)
(4.72398e-08 -3.87944e-06 0)
(4.713e-08 -3.88772e-06 0)
(4.70199e-08 -3.896e-06 0)
(4.69093e-08 -3.90428e-06 0)
(4.67983e-08 -3.91256e-06 0)
(4.6687e-08 -3.92084e-06 0)
(4.65752e-08 -3.92912e-06 0)
(4.6463e-08 -3.9374e-06 0)
(4.63504e-08 -3.94568e-06 0)
(4.62373e-08 -3.95396e-06 0)
(4.61239e-08 -3.96223e-06 0)
(4.601e-08 -3.97051e-06 0)
(4.58958e-08 -3.97879e-06 0)
(4.57811e-08 -3.98706e-06 0)
(4.5666e-08 -3.99533e-06 0)
(4.55505e-08 -4.0036e-06 0)
(4.54346e-08 -4.01187e-06 0)
(4.53183e-08 -4.02014e-06 0)
(4.52016e-08 -4.02841e-06 0)
(4.50844e-08 -4.03667e-06 0)
(4.49669e-08 -4.04494e-06 0)
(4.48489e-08 -4.0532e-06 0)
(4.47305e-08 -4.06145e-06 0)
(4.46118e-08 -4.06971e-06 0)
(4.44926e-08 -4.07796e-06 0)
(4.4373e-08 -4.08621e-06 0)
(4.4253e-08 -4.09446e-06 0)
(4.41326e-08 -4.10271e-06 0)
(4.40118e-08 -4.11095e-06 0)
(4.38905e-08 -4.11919e-06 0)
(4.37689e-08 -4.12742e-06 0)
(4.36469e-08 -4.13565e-06 0)
(4.35244e-08 -4.14388e-06 0)
(4.34016e-08 -4.1521e-06 0)
(4.32784e-08 -4.16032e-06 0)
(4.31547e-08 -4.16854e-06 0)
(4.30307e-08 -4.17675e-06 0)
(4.29062e-08 -4.18496e-06 0)
(4.27814e-08 -4.19316e-06 0)
(4.26561e-08 -4.20136e-06 0)
(4.25305e-08 -4.20955e-06 0)
(4.24044e-08 -4.21774e-06 0)
(4.2278e-08 -4.22592e-06 0)
(4.21511e-08 -4.2341e-06 0)
(4.20239e-08 -4.24227e-06 0)
(4.18962e-08 -4.25044e-06 0)
(4.17682e-08 -4.2586e-06 0)
(4.16398e-08 -4.26675e-06 0)
(4.1511e-08 -4.2749e-06 0)
(4.13818e-08 -4.28305e-06 0)
(4.12522e-08 -4.29118e-06 0)
(4.11222e-08 -4.29931e-06 0)
(4.09918e-08 -4.30744e-06 0)
(4.08611e-08 -4.31555e-06 0)
(4.07299e-08 -4.32366e-06 0)
(4.05984e-08 -4.33177e-06 0)
(4.04665e-08 -4.33986e-06 0)
(4.03342e-08 -4.34795e-06 0)
(4.02015e-08 -4.35603e-06 0)
(4.00684e-08 -4.36411e-06 0)
(3.9935e-08 -4.37217e-06 0)
(3.98012e-08 -4.38023e-06 0)
(3.9667e-08 -4.38828e-06 0)
(3.95325e-08 -4.39632e-06 0)
(3.93975e-08 -4.40435e-06 0)
(3.92622e-08 -4.41237e-06 0)
(3.91265e-08 -4.42039e-06 0)
(3.89905e-08 -4.4284e-06 0)
(3.88541e-08 -4.43639e-06 0)
(3.87173e-08 -4.44438e-06 0)
(3.85802e-08 -4.45236e-06 0)
(3.84427e-08 -4.46033e-06 0)
(3.83049e-08 -4.46828e-06 0)
(3.81667e-08 -4.47624e-06 0)
(3.80281e-08 -4.48416e-06 0)
(3.78898e-08 -4.49212e-06 0)
(3.77515e-08 -4.49998e-06 0)
(3.76142e-08 -4.50745e-06 0)
(3.74838e-08 -4.5146e-06 0)
(3.7358e-08 -4.52166e-06 0)
(3.72309e-08 -4.52877e-06 0)
(3.71026e-08 -4.53598e-06 0)
(3.6973e-08 -4.54325e-06 0)
(3.68419e-08 -4.55056e-06 0)
(3.67093e-08 -4.55792e-06 0)
(3.65753e-08 -4.56534e-06 0)
(3.64399e-08 -4.57281e-06 0)
(3.63029e-08 -4.58033e-06 0)
(3.61644e-08 -4.58791e-06 0)
(3.60245e-08 -4.59554e-06 0)
(3.58829e-08 -4.60322e-06 0)
(3.57399e-08 -4.61095e-06 0)
(3.55953e-08 -4.61874e-06 0)
(3.54492e-08 -4.62658e-06 0)
(3.53014e-08 -4.63447e-06 0)
(3.51521e-08 -4.64242e-06 0)
(3.50012e-08 -4.65041e-06 0)
(3.48486e-08 -4.65846e-06 0)
(3.46945e-08 -4.66656e-06 0)
(3.45387e-08 -4.67471e-06 0)
(3.43812e-08 -4.68292e-06 0)
(3.42221e-08 -4.69117e-06 0)
(3.40613e-08 -4.69948e-06 0)
(3.38988e-08 -4.70783e-06 0)
(3.37346e-08 -4.71624e-06 0)
(3.35687e-08 -4.72469e-06 0)
(3.34011e-08 -4.7332e-06 0)
(3.32317e-08 -4.74175e-06 0)
(3.30606e-08 -4.75035e-06 0)
(3.28877e-08 -4.759e-06 0)
(3.2713e-08 -4.7677e-06 0)
(3.25366e-08 -4.77645e-06 0)
(3.23584e-08 -4.78524e-06 0)
(3.21783e-08 -4.79408e-06 0)
(3.19965e-08 -4.80296e-06 0)
(3.18128e-08 -4.8119e-06 0)
(3.16273e-08 -4.82087e-06 0)
(3.14399e-08 -4.82989e-06 0)
(3.12507e-08 -4.83895e-06 0)
(3.10596e-08 -4.84806e-06 0)
(3.08666e-08 -4.85721e-06 0)
(3.06718e-08 -4.8664e-06 0)
(3.0475e-08 -4.87563e-06 0)
(3.02764e-08 -4.8849e-06 0)
(3.00758e-08 -4.89421e-06 0)
(2.98734e-08 -4.90356e-06 0)
(2.9669e-08 -4.91294e-06 0)
(2.94627e-08 -4.92236e-06 0)
(2.92544e-08 -4.93182e-06 0)
(2.90442e-08 -4.94131e-06 0)
(2.88321e-08 -4.95083e-06 0)
(2.8618e-08 -4.96039e-06 0)
(2.8402e-08 -4.96998e-06 0)
(2.8184e-08 -4.9796e-06 0)
(2.79641e-08 -4.98925e-06 0)
(2.77422e-08 -4.99893e-06 0)
(2.75183e-08 -5.00863e-06 0)
(2.72925e-08 -5.01836e-06 0)
(2.70646e-08 -5.02811e-06 0)
(2.68349e-08 -5.03789e-06 0)
(2.66032e-08 -5.04768e-06 0)
(2.63695e-08 -5.0575e-06 0)
(2.61338e-08 -5.06734e-06 0)
(2.58963e-08 -5.07719e-06 0)
(2.56567e-08 -5.08706e-06 0)
(2.54152e-08 -5.09694e-06 0)
(2.51718e-08 -5.10684e-06 0)
(2.49264e-08 -5.11675e-06 0)
(2.46791e-08 -5.12666e-06 0)
(2.44299e-08 -5.13658e-06 0)
(2.41788e-08 -5.14651e-06 0)
(2.39258e-08 -5.15644e-06 0)
(2.36709e-08 -5.16637e-06 0)
(2.34142e-08 -5.17631e-06 0)
(2.31555e-08 -5.18624e-06 0)
(2.28951e-08 -5.19617e-06 0)
(2.26328e-08 -5.20609e-06 0)
(2.23687e-08 -5.216e-06 0)
(2.21028e-08 -5.2259e-06 0)
(2.18351e-08 -5.23579e-06 0)
(2.15657e-08 -5.24566e-06 0)
(2.12945e-08 -5.25552e-06 0)
(2.10217e-08 -5.26536e-06 0)
(2.07471e-08 -5.27518e-06 0)
(2.04709e-08 -5.28497e-06 0)
(2.01931e-08 -5.29473e-06 0)
(1.99137e-08 -5.30446e-06 0)
(1.96327e-08 -5.31417e-06 0)
(1.93501e-08 -5.32384e-06 0)
(1.90661e-08 -5.33347e-06 0)
(1.87806e-08 -5.34306e-06 0)
(1.84936e-08 -5.35261e-06 0)
(1.82053e-08 -5.36211e-06 0)
(1.79156e-08 -5.37157e-06 0)
(1.76245e-08 -5.38097e-06 0)
(1.73322e-08 -5.39032e-06 0)
(1.70387e-08 -5.39961e-06 0)
(1.6744e-08 -5.40885e-06 0)
(1.64481e-08 -5.41801e-06 0)
(1.61511e-08 -5.42712e-06 0)
(1.58531e-08 -5.43615e-06 0)
(1.55542e-08 -5.44511e-06 0)
(1.52542e-08 -5.45399e-06 0)
(1.49535e-08 -5.4628e-06 0)
(1.46518e-08 -5.47152e-06 0)
(1.43495e-08 -5.48017e-06 0)
(1.40464e-08 -5.48871e-06 0)
(1.37427e-08 -5.49717e-06 0)
(1.34384e-08 -5.50553e-06 0)
(1.31336e-08 -5.5138e-06 0)
(1.28283e-08 -5.52195e-06 0)
(1.25227e-08 -5.53001e-06 0)
(1.22168e-08 -5.53795e-06 0)
(1.19106e-08 -5.54579e-06 0)
(1.16043e-08 -5.5535e-06 0)
(1.12979e-08 -5.5611e-06 0)
(1.09915e-08 -5.56857e-06 0)
(1.06852e-08 -5.57592e-06 0)
(1.0379e-08 -5.58313e-06 0)
(1.00731e-08 -5.59022e-06 0)
(9.76744e-09 -5.59715e-06 0)
(9.46224e-09 -5.60396e-06 0)
(9.15751e-09 -5.61061e-06 0)
(8.85337e-09 -5.61713e-06 0)
(8.54988e-09 -5.62348e-06 0)
(8.24717e-09 -5.62968e-06 0)
(7.94528e-09 -5.63572e-06 0)
(7.64435e-09 -5.6416e-06 0)
(7.34443e-09 -5.64731e-06 0)
(7.04566e-09 -5.65286e-06 0)
(6.74809e-09 -5.65822e-06 0)
(6.45185e-09 -5.66342e-06 0)
(6.15702e-09 -5.66843e-06 0)
(5.8637e-09 -5.67327e-06 0)
(5.57199e-09 -5.67791e-06 0)
(5.28199e-09 -5.68237e-06 0)
(4.99379e-09 -5.68662e-06 0)
(4.70752e-09 -5.6907e-06 0)
(4.42324e-09 -5.69456e-06 0)
(4.14108e-09 -5.69823e-06 0)
(3.86112e-09 -5.70168e-06 0)
(3.58348e-09 -5.70494e-06 0)
(3.30825e-09 -5.70797e-06 0)
(3.03554e-09 -5.71081e-06 0)
(2.76543e-09 -5.71341e-06 0)
(2.49805e-09 -5.71581e-06 0)
(2.23348e-09 -5.71797e-06 0)
(1.97183e-09 -5.71993e-06 0)
(1.71318e-09 -5.72164e-06 0)
(1.45766e-09 -5.72315e-06 0)
(1.20534e-09 -5.7244e-06 0)
(9.56321e-10 -5.72544e-06 0)
(7.10701e-10 -5.72623e-06 0)
(4.68574e-10 -5.7268e-06 0)
(2.30028e-10 -5.72711e-06 0)
(-4.84705e-12 -5.72721e-06 0)
(-2.35963e-10 -5.72704e-06 0)
(-4.63236e-10 -5.72665e-06 0)
(-6.8658e-10 -5.726e-06 0)
(-9.05918e-10 -5.72513e-06 0)
(-1.12117e-09 -5.72399e-06 0)
(-1.33225e-09 -5.72263e-06 0)
(-1.5391e-09 -5.721e-06 0)
(-1.74163e-09 -5.71914e-06 0)
(-1.93979e-09 -5.71702e-06 0)
(-2.1335e-09 -5.71467e-06 0)
(-2.32269e-09 -5.71206e-06 0)
(-2.50732e-09 -5.70922e-06 0)
(-2.6873e-09 -5.70611e-06 0)
(-2.8626e-09 -5.70278e-06 0)
(-3.03314e-09 -5.69918e-06 0)
(-3.19889e-09 -5.69536e-06 0)
(-3.35976e-09 -5.69127e-06 0)
(-3.51575e-09 -5.68698e-06 0)
(-3.6667e-09 -5.6824e-06 0)
(-3.81291e-09 -5.67764e-06 0)
(-3.95322e-09 -5.67257e-06 0)
(-4.09322e-09 -5.66729e-06 0)
(-4.23728e-09 -5.66121e-06 0)
(-4.38241e-09 -5.65425e-06 0)
(-4.52365e-09 -5.64695e-06 0)
(-4.65647e-09 -5.63951e-06 0)
(-4.78075e-09 -5.63182e-06 0)
(-4.8967e-09 -5.62398e-06 0)
(-5.00446e-09 -5.61591e-06 0)
(-5.10431e-09 -5.60772e-06 0)
(-5.19642e-09 -5.59933e-06 0)
(-5.28113e-09 -5.59084e-06 0)
(-5.35863e-09 -5.58218e-06 0)
(-5.42922e-09 -5.57344e-06 0)
(-5.49307e-09 -5.56455e-06 0)
(-5.55047e-09 -5.55561e-06 0)
(-5.60158e-09 -5.54654e-06 0)
(-5.6467e-09 -5.53743e-06 0)
(-5.68593e-09 -5.52821e-06 0)
(-5.71959e-09 -5.51898e-06 0)
(-5.74776e-09 -5.50965e-06 0)
(-5.77073e-09 -5.50033e-06 0)
(-5.78859e-09 -5.49092e-06 0)
(-5.80161e-09 -5.48154e-06 0)
(-5.80985e-09 -5.4721e-06 0)
(-5.81358e-09 -5.46269e-06 0)
(-5.81285e-09 -5.45324e-06 0)
(-5.80792e-09 -5.44384e-06 0)
(-5.79882e-09 -5.4344e-06 0)
(-5.7858e-09 -5.42503e-06 0)
(-5.76888e-09 -5.41563e-06 0)
(-5.74829e-09 -5.40631e-06 0)
(-5.72406e-09 -5.39698e-06 0)
(-5.6964e-09 -5.38775e-06 0)
(-5.66532e-09 -5.37851e-06 0)
(-5.63104e-09 -5.36937e-06 0)
(-5.59355e-09 -5.36024e-06 0)
(-5.55305e-09 -5.35123e-06 0)
(-5.50955e-09 -5.34223e-06 0)
(-5.46322e-09 -5.33336e-06 0)
(-5.41406e-09 -5.32451e-06 0)
(-5.36226e-09 -5.3158e-06 0)
(-5.30779e-09 -5.30712e-06 0)
(-5.25083e-09 -5.29858e-06 0)
(-5.19137e-09 -5.29009e-06 0)
(-5.12955e-09 -5.28174e-06 0)
(-5.06537e-09 -5.27346e-06 0)
(-4.99897e-09 -5.26532e-06 0)
(-4.93034e-09 -5.25724e-06 0)
(-4.85962e-09 -5.24932e-06 0)
(-4.78678e-09 -5.24148e-06 0)
(-4.71197e-09 -5.2338e-06 0)
(-4.63516e-09 -5.2262e-06 0)
(-4.55648e-09 -5.21876e-06 0)
(-4.4759e-09 -5.21142e-06 0)
(-4.39356e-09 -5.20425e-06 0)
(-4.30942e-09 -5.19717e-06 0)
(-4.2236e-09 -5.19027e-06 0)
(-4.13609e-09 -5.18347e-06 0)
(-4.04699e-09 -5.17685e-06 0)
(-3.95628e-09 -5.17034e-06 0)
(-3.86406e-09 -5.16401e-06 0)
(-3.77033e-09 -5.1578e-06 0)
(-3.67517e-09 -5.15178e-06 0)
(-3.57858e-09 -5.14588e-06 0)
(-3.48065e-09 -5.14017e-06 0)
(-3.38136e-09 -5.13458e-06 0)
(-3.28081e-09 -5.12919e-06 0)
(-3.17899e-09 -5.12393e-06 0)
(-3.07598e-09 -5.11887e-06 0)
(-2.97179e-09 -5.11395e-06 0)
(-2.86648e-09 -5.10923e-06 0)
(-2.76007e-09 -5.10464e-06 0)
(-2.65262e-09 -5.10026e-06 0)
(-2.54415e-09 -5.09603e-06 0)
(-2.43471e-09 -5.092e-06 0)
(-2.32433e-09 -5.08812e-06 0)
(-2.21307e-09 -5.08445e-06 0)
(-2.10094e-09 -5.08093e-06 0)
(-1.98801e-09 -5.07762e-06 0)
(-1.87428e-09 -5.07447e-06 0)
(-1.75983e-09 -5.07152e-06 0)
(-1.64467e-09 -5.06875e-06 0)
(-1.52885e-09 -5.06617e-06 0)
(-1.41242e-09 -5.06377e-06 0)
(-1.29541e-09 -5.06157e-06 0)
(-1.17787e-09 -5.05954e-06 0)
(-1.05986e-09 -5.05775e-06 0)
(-9.41432e-10 -5.05601e-06 0)
(-8.22677e-10 -5.05492e-06 0)
(-7.03616e-10 -5.0525e-06 0)
(-5.84526e-10 -5.05528e-06 0)
(-4.64925e-10 -5.04128e-06 0)
(-3.46438e-10 -5.08164e-06 0)
(-2.24909e-10 -4.92905e-06 0)
(-1.09957e-10 -5.33362e-06 0)
(-2.90856e-11 -4.65831e-06 0)
)
;
    }
    bottomWall
    {
        type            calculated;
        value           nonuniform List<vector> 
449
(
(-52.7051 -0.95554 0)
(-34.7369 -0.0027987 0)
(-34.3463 -0.000254684 0)
(-32.9847 -0.000363138 0)
(-31.8602 -0.000314939 0)
(-30.8247 -0.000284053 0)
(-29.908 -0.000249169 0)
(-29.1085 -0.000217284 0)
(-28.4082 -0.000190741 0)
(-27.789 -0.000168982 0)
(-27.2366 -0.000150972 0)
(-26.7399 -0.000135876 0)
(-26.2902 -0.000123227 0)
(-25.8798 -0.000112547 0)
(-25.5028 -0.000103334 0)
(-25.1552 -9.5331e-05 0)
(-24.8328 -8.83405e-05 0)
(-24.5328 -8.22053e-05 0)
(-24.2524 -7.68e-05 0)
(-23.9893 -7.19801e-05 0)
(-23.7418 -6.76574e-05 0)
(-23.5083 -6.37699e-05 0)
(-23.2873 -6.0263e-05 0)
(-23.0778 -5.70805e-05 0)
(-22.8787 -5.41836e-05 0)
(-22.689 -5.15252e-05 0)
(-22.5081 -4.90882e-05 0)
(-22.3351 -4.68473e-05 0)
(-22.1695 -4.47806e-05 0)
(-22.0108 -4.28633e-05 0)
(-21.8583 -4.10862e-05 0)
(-21.7118 -3.94324e-05 0)
(-21.5707 -3.78934e-05 0)
(-21.4347 -3.64522e-05 0)
(-21.3036 -3.51069e-05 0)
(-21.1769 -3.38432e-05 0)
(-21.0544 -3.26607e-05 0)
(-20.9359 -3.15506e-05 0)
(-20.821 -3.05046e-05 0)
(-20.7097 -2.95184e-05 0)
(-20.6017 -2.85875e-05 0)
(-20.4968 -2.77088e-05 0)
(-20.3948 -2.68749e-05 0)
(-20.2956 -2.60807e-05 0)
(-20.1992 -2.53243e-05 0)
(-20.1052 -2.46e-05 0)
(-20.0138 -2.39086e-05 0)
(-19.9246 -2.32502e-05 0)
(-19.8377 -2.26139e-05 0)
(-19.753 -2.20122e-05 0)
(-19.6702 -2.14333e-05 0)
(-19.5895 -2.08796e-05 0)
(-19.5107 -2.03552e-05 0)
(-19.4336 -1.98467e-05 0)
(-19.3583 -1.93652e-05 0)
(-19.2845 -1.89013e-05 0)
(-19.2124 -1.84601e-05 0)
(-19.1418 -1.80355e-05 0)
(-19.0726 -1.7629e-05 0)
(-19.0048 -1.72375e-05 0)
(-18.9384 -1.68617e-05 0)
(-18.8732 -1.65004e-05 0)
(-18.8093 -1.61515e-05 0)
(-18.7465 -1.58172e-05 0)
(-18.6849 -1.54925e-05 0)
(-18.6244 -1.51823e-05 0)
(-18.565 -1.4879e-05 0)
(-18.5066 -1.45899e-05 0)
(-18.4492 -1.43065e-05 0)
(-18.3928 -1.40351e-05 0)
(-18.3373 -1.37711e-05 0)
(-18.2828 -1.3514e-05 0)
(-18.2291 -1.32686e-05 0)
(-18.1763 -1.30253e-05 0)
(-18.1243 -1.27945e-05 0)
(-18.073 -1.25665e-05 0)
(-18.0226 -1.23465e-05 0)
(-17.973 -1.2134e-05 0)
(-17.9241 -1.19239e-05 0)
(-17.8759 -1.17243e-05 0)
(-17.8284 -1.15268e-05 0)
(-17.7816 -1.13354e-05 0)
(-17.7354 -1.11508e-05 0)
(-17.6899 -1.0968e-05 0)
(-17.645 -1.07928e-05 0)
(-17.6008 -1.06214e-05 0)
(-17.5571 -1.04529e-05 0)
(-17.514 -1.02912e-05 0)
(-17.4715 -1.01319e-05 0)
(-17.4296 -9.97641e-06 0)
(-17.3881 -9.82649e-06 0)
(-17.3472 -9.67864e-06 0)
(-17.3069 -9.53472e-06 0)
(-17.267 -9.39535e-06 0)
(-17.2276 -9.25785e-06 0)
(-17.1887 -9.1242e-06 0)
(-17.1503 -8.99435e-06 0)
(-17.1123 -8.86641e-06 0)
(-17.0748 -8.74182e-06 0)
(-17.0377 -8.62075e-06 0)
(-17.001 -8.50142e-06 0)
(-16.9648 -8.38513e-06 0)
(-16.929 -8.27192e-06 0)
(-16.8935 -8.1606e-06 0)
(-16.8585 -8.05162e-06 0)
(-16.8238 -7.94568e-06 0)
(-16.7895 -7.84148e-06 0)
(-16.7556 -7.73933e-06 0)
(-16.7221 -7.63986e-06 0)
(-16.6889 -7.54224e-06 0)
(-16.656 -7.44632e-06 0)
(-16.6235 -7.35278e-06 0)
(-16.5913 -7.26112e-06 0)
(-16.5594 -7.17103e-06 0)
(-16.5279 -7.08284e-06 0)
(-16.4967 -6.99659e-06 0)
(-16.4657 -6.91183e-06 0)
(-16.4351 -6.82861e-06 0)
(-16.4048 -6.74723e-06 0)
(-16.3748 -6.66733e-06 0)
(-16.345 -6.58885e-06 0)
(-16.3155 -6.51189e-06 0)
(-16.2863 -6.4365e-06 0)
(-16.2574 -6.36236e-06 0)
(-16.2287 -6.28958e-06 0)
(-16.2003 -6.21818e-06 0)
(-16.1722 -6.14811e-06 0)
(-16.1443 -6.07914e-06 0)
(-16.1166 -6.01152e-06 0)
(-16.0892 -5.94501e-06 0)
(-16.062 -5.87974e-06 0)
(-16.0351 -5.81547e-06 0)
(-16.0084 -5.75246e-06 0)
(-15.9819 -5.69043e-06 0)
(-15.9557 -5.62954e-06 0)
(-15.9296 -5.56957e-06 0)
(-15.9038 -5.51074e-06 0)
(-15.8782 -5.45275e-06 0)
(-15.8528 -5.39583e-06 0)
(-15.8276 -5.33969e-06 0)
(-15.8026 -5.28462e-06 0)
(-15.7778 -5.2303e-06 0)
(-15.7532 -5.17696e-06 0)
(-15.7288 -5.12437e-06 0)
(-15.7046 -5.07272e-06 0)
(-15.6805 -5.0218e-06 0)
(-15.6567 -4.97172e-06 0)
(-15.633 -4.92242e-06 0)
(-15.6096 -4.87387e-06 0)
(-15.5862 -4.82611e-06 0)
(-15.5631 -4.77899e-06 0)
(-15.5401 -4.73269e-06 0)
(-15.5173 -4.68697e-06 0)
(-15.4947 -4.64204e-06 0)
(-15.4723 -4.59762e-06 0)
(-15.4499 -4.55402e-06 0)
(-15.4278 -4.51094e-06 0)
(-15.4058 -4.46857e-06 0)
(-15.384 -4.42671e-06 0)
(-15.3623 -4.38558e-06 0)
(-15.3408 -4.34493e-06 0)
(-15.3194 -4.30496e-06 0)
(-15.2982 -4.26545e-06 0)
(-15.2771 -4.22658e-06 0)
(-15.2561 -4.18822e-06 0)
(-15.2353 -4.15044e-06 0)
(-15.2146 -4.11316e-06 0)
(-15.1941 -4.07632e-06 0)
(-15.1737 -4.04017e-06 0)
(-15.1534 -4.00422e-06 0)
(-15.1333 -3.9691e-06 0)
(-15.1133 -3.93412e-06 0)
(-15.0934 -3.89787e-06 0)
(-15.0748 -3.86823e-06 0)
(-15.0573 -3.84145e-06 0)
(-15.0397 -3.81021e-06 0)
(-15.0221 -3.77966e-06 0)
(-15.0044 -3.74967e-06 0)
(-14.9866 -3.71966e-06 0)
(-14.9688 -3.69001e-06 0)
(-14.951 -3.6604e-06 0)
(-14.9331 -3.63096e-06 0)
(-14.9152 -3.60167e-06 0)
(-14.8972 -3.57249e-06 0)
(-14.8792 -3.54349e-06 0)
(-14.8611 -3.51454e-06 0)
(-14.843 -3.48577e-06 0)
(-14.8248 -3.45706e-06 0)
(-14.8066 -3.42856e-06 0)
(-14.7883 -3.40007e-06 0)
(-14.77 -3.37181e-06 0)
(-14.7517 -3.34358e-06 0)
(-14.7333 -3.31558e-06 0)
(-14.7148 -3.28761e-06 0)
(-14.6964 -3.25984e-06 0)
(-14.6778 -3.23212e-06 0)
(-14.6593 -3.20456e-06 0)
(-14.6407 -3.1771e-06 0)
(-14.622 -3.1498e-06 0)
(-14.6033 -3.12261e-06 0)
(-14.5846 -3.09556e-06 0)
(-14.5658 -3.06863e-06 0)
(-14.547 -3.04187e-06 0)
(-14.5282 -3.01519e-06 0)
(-14.5093 -2.98869e-06 0)
(-14.4904 -2.96224e-06 0)
(-14.4714 -2.93603e-06 0)
(-14.4524 -2.90988e-06 0)
(-14.4334 -2.88392e-06 0)
(-14.4144 -2.85801e-06 0)
(-14.3953 -2.8323e-06 0)
(-14.3761 -2.80671e-06 0)
(-14.357 -2.78126e-06 0)
(-14.3378 -2.75594e-06 0)
(-14.3186 -2.73074e-06 0)
(-14.2993 -2.70577e-06 0)
(-14.28 -2.68087e-06 0)
(-14.2607 -2.65619e-06 0)
(-14.2414 -2.63151e-06 0)
(-14.222 -2.60714e-06 0)
(-14.2026 -2.58277e-06 0)
(-14.1831 -2.55866e-06 0)
(-14.1637 -2.53456e-06 0)
(-14.1442 -2.51074e-06 0)
(-14.1247 -2.48693e-06 0)
(-14.1052 -2.46342e-06 0)
(-14.0856 -2.43982e-06 0)
(-14.066 -2.41664e-06 0)
(-14.0464 -2.39335e-06 0)
(-14.0268 -2.37045e-06 0)
(-14.0071 -2.34747e-06 0)
(-13.9875 -2.32485e-06 0)
(-13.9678 -2.30218e-06 0)
(-13.9481 -2.27985e-06 0)
(-13.9283 -2.25747e-06 0)
(-13.9086 -2.23542e-06 0)
(-13.8888 -2.21334e-06 0)
(-13.869 -2.1916e-06 0)
(-13.8492 -2.16978e-06 0)
(-13.8294 -2.1483e-06 0)
(-13.8095 -2.12681e-06 0)
(-13.7897 -2.10567e-06 0)
(-13.7698 -2.08446e-06 0)
(-13.7499 -2.06362e-06 0)
(-13.73 -2.04274e-06 0)
(-13.7101 -2.02217e-06 0)
(-13.6902 -2.00158e-06 0)
(-13.6703 -1.9813e-06 0)
(-13.6503 -1.961e-06 0)
(-13.6304 -1.941e-06 0)
(-13.6104 -1.92101e-06 0)
(-13.5904 -1.9013e-06 0)
(-13.5704 -1.88164e-06 0)
(-13.5505 -1.86221e-06 0)
(-13.5304 -1.84285e-06 0)
(-13.5104 -1.82368e-06 0)
(-13.4904 -1.80467e-06 0)
(-13.4704 -1.78577e-06 0)
(-13.4504 -1.76705e-06 0)
(-13.4303 -1.74844e-06 0)
(-13.4103 -1.73001e-06 0)
(-13.3903 -1.71167e-06 0)
(-13.3702 -1.69356e-06 0)
(-13.3502 -1.67552e-06 0)
(-13.3301 -1.65768e-06 0)
(-13.3101 -1.63991e-06 0)
(-13.29 -1.62237e-06 0)
(-13.27 -1.60488e-06 0)
(-13.2499 -1.58765e-06 0)
(-13.2299 -1.57043e-06 0)
(-13.2098 -1.55351e-06 0)
(-13.1898 -1.53657e-06 0)
(-13.1697 -1.51991e-06 0)
(-13.1497 -1.50321e-06 0)
(-13.1296 -1.48693e-06 0)
(-13.1096 -1.47052e-06 0)
(-13.0896 -1.45446e-06 0)
(-13.0696 -1.43831e-06 0)
(-13.0495 -1.42257e-06 0)
(-13.0296 -1.40668e-06 0)
(-13.0095 -1.39117e-06 0)
(-12.9895 -1.37562e-06 0)
(-12.9696 -1.36043e-06 0)
(-12.9496 -1.34509e-06 0)
(-12.9296 -1.33015e-06 0)
(-12.9096 -1.3151e-06 0)
(-12.8897 -1.30044e-06 0)
(-12.8697 -1.28562e-06 0)
(-12.8498 -1.27123e-06 0)
(-12.8299 -1.25671e-06 0)
(-12.81 -1.24257e-06 0)
(-12.7901 -1.22834e-06 0)
(-12.7702 -1.21446e-06 0)
(-12.7503 -1.20047e-06 0)
(-12.7305 -1.18685e-06 0)
(-12.7106 -1.17312e-06 0)
(-12.6908 -1.15975e-06 0)
(-12.671 -1.14632e-06 0)
(-12.6512 -1.13313e-06 0)
(-12.6314 -1.11998e-06 0)
(-12.6117 -1.10709e-06 0)
(-12.5919 -1.09416e-06 0)
(-12.5722 -1.0815e-06 0)
(-12.5524 -1.06886e-06 0)
(-12.5328 -1.05644e-06 0)
(-12.5131 -1.04398e-06 0)
(-12.4934 -1.03177e-06 0)
(-12.4738 -1.01965e-06 0)
(-12.4542 -1.00768e-06 0)
(-12.4346 -9.95782e-07 0)
(-12.415 -9.8404e-07 0)
(-12.3954 -9.72383e-07 0)
(-12.3759 -9.60857e-07 0)
(-12.3564 -9.49457e-07 0)
(-12.3369 -9.3814e-07 0)
(-12.3174 -9.26954e-07 0)
(-12.298 -9.15862e-07 0)
(-12.2786 -9.04923e-07 0)
(-12.2592 -8.94063e-07 0)
(-12.2398 -8.83331e-07 0)
(-12.2205 -8.72681e-07 0)
(-12.2011 -8.62205e-07 0)
(-12.1819 -8.51772e-07 0)
(-12.1626 -8.41494e-07 0)
(-12.1434 -8.3126e-07 0)
(-12.1241 -8.2122e-07 0)
(-12.105 -8.11199e-07 0)
(-12.0858 -8.0137e-07 0)
(-12.0667 -7.91544e-07 0)
(-12.0475 -7.81924e-07 0)
(-12.0285 -7.72316e-07 0)
(-12.0094 -7.629e-07 0)
(-11.9904 -7.53462e-07 0)
(-11.9714 -7.44266e-07 0)
(-11.9525 -7.35037e-07 0)
(-11.9335 -7.26028e-07 0)
(-11.9147 -7.16972e-07 0)
(-11.8958 -7.08166e-07 0)
(-11.877 -6.99334e-07 0)
(-11.8581 -6.90709e-07 0)
(-11.8394 -6.82075e-07 0)
(-11.8206 -6.73646e-07 0)
(-11.8019 -6.65199e-07 0)
(-11.7833 -6.56939e-07 0)
(-11.7646 -6.48692e-07 0)
(-11.746 -6.40595e-07 0)
(-11.7274 -6.32547e-07 0)
(-11.7089 -6.24602e-07 0)
(-11.6904 -6.16746e-07 0)
(-11.6719 -6.08949e-07 0)
(-11.6535 -6.01299e-07 0)
(-11.6351 -5.93559e-07 0)
(-11.6167 -5.86191e-07 0)
(-11.5984 -5.78667e-07 0)
(-11.5781 -5.69771e-07 0)
(-11.5559 -5.60587e-07 0)
(-11.5342 -5.52374e-07 0)
(-11.5127 -5.44356e-07 0)
(-11.4916 -5.36364e-07 0)
(-11.4707 -5.28578e-07 0)
(-11.4502 -5.20965e-07 0)
(-11.4299 -5.13521e-07 0)
(-11.41 -5.06259e-07 0)
(-11.3903 -4.9919e-07 0)
(-11.3709 -4.92266e-07 0)
(-11.3517 -4.8551e-07 0)
(-11.3329 -4.78903e-07 0)
(-11.3143 -4.72473e-07 0)
(-11.2959 -4.66152e-07 0)
(-11.2778 -4.60029e-07 0)
(-11.2599 -4.53995e-07 0)
(-11.2422 -4.48134e-07 0)
(-11.2248 -4.42357e-07 0)
(-11.2076 -4.36743e-07 0)
(-11.1907 -4.3123e-07 0)
(-11.1739 -4.25871e-07 0)
(-11.1573 -4.20592e-07 0)
(-11.1409 -4.15438e-07 0)
(-11.1248 -4.10396e-07 0)
(-11.1088 -4.05446e-07 0)
(-11.0931 -4.0063e-07 0)
(-11.0775 -3.95884e-07 0)
(-11.0621 -3.91238e-07 0)
(-11.0468 -3.86703e-07 0)
(-11.0318 -3.82251e-07 0)
(-11.0169 -3.7787e-07 0)
(-11.0022 -3.73593e-07 0)
(-10.9877 -3.69402e-07 0)
(-10.9733 -3.653e-07 0)
(-10.9591 -3.61285e-07 0)
(-10.945 -3.57336e-07 0)
(-10.9311 -3.53475e-07 0)
(-10.9174 -3.49671e-07 0)
(-10.9037 -3.45953e-07 0)
(-10.8903 -3.42297e-07 0)
(-10.8769 -3.38708e-07 0)
(-10.8638 -3.35181e-07 0)
(-10.8507 -3.31733e-07 0)
(-10.8378 -3.28317e-07 0)
(-10.825 -3.25005e-07 0)
(-10.8124 -3.21707e-07 0)
(-10.7998 -3.18505e-07 0)
(-10.7875 -3.15328e-07 0)
(-10.7752 -3.12243e-07 0)
(-10.763 -3.09169e-07 0)
(-10.751 -3.06197e-07 0)
(-10.739 -3.03256e-07 0)
(-10.7272 -3.00358e-07 0)
(-10.7155 -2.97524e-07 0)
(-10.7039 -2.94734e-07 0)
(-10.6925 -2.91992e-07 0)
(-10.6811 -2.89287e-07 0)
(-10.6698 -2.86651e-07 0)
(-10.6586 -2.84021e-07 0)
(-10.6476 -2.81494e-07 0)
(-10.6366 -2.78935e-07 0)
(-10.6258 -2.76525e-07 0)
(-10.615 -2.74012e-07 0)
(-10.6043 -2.71721e-07 0)
(-10.5937 -2.69263e-07 0)
(-10.5832 -2.67095e-07 0)
(-10.5728 -2.64635e-07 0)
(-10.5625 -2.62628e-07 0)
(-10.5522 -2.60186e-07 0)
(-10.5422 -2.58302e-07 0)
(-10.532 -2.55862e-07 0)
(-10.5221 -2.54159e-07 0)
(-10.5121 -2.51703e-07 0)
(-10.5024 -2.50197e-07 0)
(-10.4926 -2.47711e-07 0)
(-10.4831 -2.46392e-07 0)
(-10.4733 -2.43918e-07 0)
(-10.464 -2.42758e-07 0)
(-10.4543 -2.4032e-07 0)
(-10.4452 -2.39252e-07 0)
(-10.4355 -2.36988e-07 0)
(-10.4266 -2.35859e-07 0)
(-10.4171 -2.341e-07 0)
(-10.4083 -2.32404e-07 0)
(-10.3989 -2.32101e-07 0)
(-10.3901 -2.28216e-07 0)
(-10.3811 -2.3242e-07 0)
(-10.3719 -2.21017e-07 0)
(-10.3638 -2.39001e-07 0)
(-10.3532 -2.04062e-07 0)
(-10.3479 -2.58565e-07 0)
(-10.3328 -1.70176e-07 0)
(-10.3349 -2.32732e-07 0)
(-10.3141 -2.71874e-07 0)
)
;
    }
    symmetry
    {
        type            symmetryPlane;
    }
    frontAndBack
    {
        type            empty;
    }
}


// ************************************************************************* //
