/*--------------------------------*- C++ -*----------------------------------*\
| =========                 |                                                 |
| \\      /  F ield         | OpenFOAM: The Open Source CFD Toolbox           |
|  \\    /   O peration     | Version:  v2012                                 |
|   \\  /    A nd           | Website:  www.openfoam.com                      |
|    \\/     M anipulation  |                                                 |
\*---------------------------------------------------------------------------*/
FoamFile
{
    version     2.0;
    format      ascii;
    class       volScalarField;
    location    "32";
    object      yPlus;
}
// * * * * * * * * * * * * * * * * * * * * * * * * * * * * * * * * * * * * * //

dimensions      [0 0 0 0 0 0 0];


internalField   uniform 0;

boundaryField
{
    inlet
    {
        type            calculated;
        value           uniform 0;
    }
    outlet
    {
        type            calculated;
        value           uniform 0;
    }
    topWall
    {
        type            calculated;
        value           nonuniform List<scalar> 
545
(
0.145043
0.250178
0.320961
0.377264
0.42492
0.46661
0.503838
0.537554
0.568401
0.596845
0.623232
0.647831
0.670857
0.692481
0.712849
0.732079
0.750274
0.767522
0.783899
0.799472
0.8143
0.828435
0.841925
0.85481
0.86713
0.878919
0.890208
0.901026
0.9114
0.921353
0.930908
0.940087
0.948908
0.957389
0.965547
0.973398
0.980955
0.988234
0.995246
1.002
1.00852
1.0148
1.02086
1.02671
1.03235
1.0378
1.04306
1.04815
1.05306
1.0578
1.06239
1.06682
1.07111
1.07525
1.07927
1.08315
1.0869
1.09053
1.09405
1.09746
1.10075
1.10395
1.10704
1.11003
1.11294
1.11575
1.11847
1.12111
1.12367
1.12616
1.12856
1.13089
1.13313
1.13529
1.13743
1.13955
1.14166
1.14375
1.14582
1.14787
1.14991
1.15193
1.15394
1.15593
1.1579
1.15986
1.1618
1.16372
1.16563
1.16752
1.1694
1.17127
1.17312
1.17495
1.17677
1.17858
1.1802
1.18165
1.1831
1.18456
1.18601
1.18746
1.18891
1.19036
1.1918
1.19325
1.1947
1.19615
1.19759
1.19904
1.20048
1.20193
1.20337
1.20481
1.20625
1.2077
1.20914
1.21058
1.21202
1.21345
1.21489
1.21633
1.21776
1.2192
1.22063
1.22207
1.2235
1.22493
1.22636
1.22779
1.22922
1.23065
1.23207
1.2335
1.23493
1.23635
1.23777
1.2392
1.24062
1.24204
1.24346
1.24487
1.24629
1.24771
1.24912
1.25054
1.25195
1.25336
1.25477
1.25618
1.25759
1.259
1.2604
1.26181
1.26321
1.26461
1.26601
1.26741
1.26881
1.27021
1.2716
1.273
1.27439
1.27578
1.27717
1.27856
1.27995
1.28134
1.28272
1.2841
1.28549
1.28687
1.28824
1.28962
1.291
1.29237
1.29375
1.29512
1.29649
1.29785
1.29922
1.30059
1.30195
1.30331
1.30467
1.30603
1.30738
1.30874
1.31009
1.31144
1.31279
1.31414
1.31549
1.31683
1.31817
1.31951
1.32085
1.32219
1.32352
1.32486
1.32619
1.32751
1.32884
1.33017
1.33149
1.33281
1.33413
1.33545
1.33676
1.33807
1.33938
1.34069
1.342
1.3433
1.3446
1.3459
1.3472
1.34849
1.34979
1.35108
1.35237
1.35365
1.35493
1.35622
1.35749
1.35877
1.36004
1.36132
1.36258
1.36385
1.36512
1.36638
1.36764
1.36889
1.37015
1.3714
1.37265
1.37389
1.37514
1.37638
1.37761
1.37885
1.38008
1.38131
1.38254
1.38376
1.38498
1.3862
1.38742
1.38863
1.38984
1.39105
1.39225
1.39345
1.39465
1.39585
1.39704
1.39823
1.39942
1.4006
1.40178
1.40296
1.40413
1.4053
1.40647
1.40763
1.40879
1.40995
1.41111
1.41219
1.41322
1.41425
1.41528
1.41632
1.41737
1.41843
1.41949
1.42056
1.42163
1.42271
1.4238
1.42489
1.42599
1.42709
1.4282
1.42931
1.43044
1.43156
1.4327
1.43383
1.43498
1.43613
1.43728
1.43844
1.4396
1.44077
1.44195
1.44313
1.44431
1.4455
1.4467
1.44789
1.4491
1.4503
1.45152
1.45273
1.45395
1.45517
1.4564
1.45763
1.45886
1.4601
1.46134
1.46258
1.46383
1.46508
1.46633
1.46758
1.46884
1.4701
1.47135
1.47261
1.47388
1.47514
1.4764
1.47767
1.47893
1.4802
1.48147
1.48273
1.484
1.48526
1.48653
1.48779
1.48905
1.49031
1.49157
1.49282
1.49408
1.49533
1.49658
1.49782
1.49906
1.5003
1.50153
1.50276
1.50398
1.5052
1.50641
1.50762
1.50882
1.51001
1.5112
1.51238
1.51355
1.51472
1.51587
1.51702
1.51815
1.51928
1.5204
1.52151
1.5226
1.52369
1.52476
1.52582
1.52687
1.52791
1.52893
1.52994
1.53093
1.53191
1.53288
1.53382
1.53476
1.53567
1.53657
1.53745
1.53831
1.53916
1.53998
1.54079
1.54157
1.54234
1.54308
1.5438
1.5445
1.54518
1.54584
1.54647
1.54708
1.54766
1.54822
1.54875
1.54926
1.54974
1.55019
1.55062
1.55101
1.55138
1.55172
1.55204
1.55232
1.55257
1.55279
1.55298
1.55314
1.55327
1.55336
1.55342
1.55345
1.55345
1.55341
1.55333
1.55323
1.55308
1.55291
1.55269
1.55244
1.55216
1.55184
1.55148
1.55108
1.55065
1.55018
1.54967
1.54913
1.54855
1.54792
1.54727
1.54657
1.54583
1.54506
1.54425
1.5434
1.54251
1.54158
1.54062
1.53961
1.53857
1.53749
1.53638
1.53522
1.53403
1.5328
1.53153
1.53023
1.52889
1.52751
1.5261
1.52449
1.52269
1.52086
1.51901
1.51713
1.51524
1.51332
1.51139
1.50945
1.50749
1.50552
1.50354
1.50155
1.49956
1.49756
1.49556
1.49355
1.49155
1.48954
1.48754
1.48553
1.48354
1.48154
1.47955
1.47757
1.4756
1.47363
1.47168
1.46973
1.4678
1.46588
1.46398
1.46208
1.4602
1.45834
1.4565
1.45466
1.45286
1.45106
1.44929
1.44753
1.4458
1.44409
1.4424
1.44073
1.43908
1.43746
1.43586
1.43429
1.43274
1.43121
1.42972
1.42824
1.4268
1.42538
1.424
1.42263
1.4213
1.42
1.41873
1.41748
1.41627
1.41509
1.41394
1.41282
1.41174
1.41068
1.40966
1.40867
1.40772
1.4068
1.40591
1.40506
1.40424
1.40346
1.40271
1.402
1.40132
1.40068
1.40008
1.39951
1.39898
1.39848
1.39803
1.39761
1.39723
1.39688
1.39658
1.39631
1.39608
1.39588
1.39573
1.39561
1.39554
1.39546
)
;
    }
    bottomWall
    {
        type            calculated;
        value           nonuniform List<scalar> 
449
(
0.00274076
0.00480712
0.00538063
0.00533263
0.00526091
0.00516443
0.00506663
0.0049751
0.00489118
0.00481449
0.0047443
0.00467992
0.00462072
0.00456593
0.00451507
0.00446767
0.00442331
0.00438164
0.00434239
0.00430525
0.00427011
0.00423674
0.00420502
0.00417479
0.00414595
0.00411838
0.00409199
0.00406667
0.00404237
0.004019
0.0039965
0.00397479
0.00395384
0.00393359
0.003914
0.00389502
0.00387663
0.00385876
0.00384142
0.00382455
0.00380815
0.00379216
0.00377659
0.0037614
0.0037466
0.00373213
0.00371802
0.00370423
0.00369076
0.00367758
0.0036647
0.00365209
0.00363976
0.00362767
0.00361584
0.00360423
0.00359286
0.00358169
0.00357075
0.00355998
0.00354943
0.00353905
0.00352886
0.00351883
0.00350898
0.00349928
0.00348975
0.00348036
0.00347113
0.00346202
0.00345308
0.00344424
0.00343556
0.00342699
0.00341856
0.00341023
0.00340204
0.00339394
0.00338598
0.0033781
0.00337035
0.00336268
0.00335514
0.00334767
0.00334032
0.00333304
0.00332588
0.00331878
0.0033118
0.00330488
0.00329806
0.0032913
0.00328465
0.00327805
0.00327156
0.00326511
0.00325876
0.00325246
0.00324626
0.00324009
0.00323403
0.003228
0.00322206
0.00321616
0.00321035
0.00320458
0.00319888
0.00319323
0.00318765
0.00318212
0.00317665
0.00317122
0.00316587
0.00316054
0.00315529
0.00315007
0.00314492
0.0031398
0.00313475
0.00312972
0.00312476
0.00311983
0.00311496
0.00311012
0.00310533
0.00310058
0.00309588
0.0030912
0.00308659
0.003082
0.00307746
0.00307295
0.00306849
0.00306405
0.00305967
0.0030553
0.00305099
0.0030467
0.00304245
0.00303823
0.00303405
0.0030299
0.00302579
0.0030217
0.00301766
0.00301363
0.00300965
0.00300569
0.00300177
0.00299786
0.002994
0.00299015
0.00298634
0.00298255
0.0029788
0.00297506
0.00297136
0.00296768
0.00296404
0.00296041
0.00295682
0.00295324
0.00294969
0.00294617
0.00294267
0.00293919
0.00293574
0.00293231
0.0029289
0.00292552
0.00292216
0.00291882
0.00291551
0.00291239
0.00290945
0.00290651
0.00290356
0.00290061
0.00289765
0.00289468
0.0028917
0.00288872
0.00288573
0.00288274
0.00287973
0.00287672
0.00287369
0.00287068
0.00286764
0.00286461
0.00286155
0.00285851
0.00285544
0.00285238
0.0028493
0.00284623
0.00284314
0.00284006
0.00283696
0.00283386
0.00283075
0.00282764
0.00282452
0.0028214
0.00281826
0.00281513
0.00281199
0.00280884
0.00280569
0.00280254
0.00279938
0.00279621
0.00279305
0.00278988
0.0027867
0.00278352
0.00278034
0.00277715
0.00277396
0.00277076
0.00276756
0.00276435
0.00276115
0.00275793
0.00275472
0.0027515
0.00274829
0.00274505
0.00274184
0.0027386
0.00273537
0.00273213
0.0027289
0.00272565
0.00272241
0.00271917
0.00271592
0.00271267
0.00270942
0.00270617
0.00270292
0.00269967
0.00269641
0.00269316
0.00268989
0.00268664
0.00268337
0.00268012
0.00267685
0.00267359
0.00267032
0.00266707
0.00266379
0.00266053
0.00265726
0.002654
0.00265073
0.00264747
0.0026442
0.00264094
0.00263767
0.0026344
0.00263114
0.00262787
0.00262461
0.00262135
0.00261809
0.00261483
0.00261157
0.00260831
0.00260506
0.0026018
0.00259855
0.0025953
0.00259205
0.0025888
0.00258556
0.00258231
0.00257908
0.00257583
0.00257261
0.00256937
0.00256615
0.00256292
0.0025597
0.00255647
0.00255326
0.00255004
0.00254684
0.00254362
0.00254043
0.00253722
0.00253403
0.00253083
0.00252764
0.00252445
0.00252127
0.00251808
0.00251491
0.00251173
0.00250857
0.0025054
0.00250224
0.00249908
0.00249592
0.00249276
0.00248962
0.00248648
0.00248334
0.00248021
0.00247707
0.00247395
0.00247082
0.00246771
0.00246459
0.00246149
0.00245838
0.00245529
0.00245219
0.00244912
0.00244603
0.00244297
0.00243988
0.00243683
0.00243376
0.00243072
0.00242766
0.00242462
0.00242157
0.00241855
0.00241552
0.0024125
0.00240948
0.00240647
0.00240346
0.00240047
0.00239748
0.0023945
0.00239152
0.00238855
0.00238559
0.00238263
0.00237968
0.00237673
0.00237379
0.00237085
0.00236793
0.002365
0.00236209
0.00235917
0.00235627
0.00235336
0.00235048
0.00234758
0.00234441
0.00234092
0.00233752
0.00233414
0.00233083
0.00232756
0.00232435
0.00232117
0.00231806
0.00231498
0.00231195
0.00230895
0.00230601
0.00230309
0.00230023
0.0022974
0.0022946
0.00229185
0.00228913
0.00228644
0.00228379
0.00228117
0.00227859
0.00227603
0.00227351
0.00227101
0.00226857
0.00226612
0.00226373
0.00226135
0.00225901
0.00225668
0.00225441
0.00225213
0.00224991
0.00224769
0.00224551
0.00224333
0.0022412
0.00223907
0.00223699
0.0022349
0.00223286
0.00223082
0.00222881
0.00222682
0.00222485
0.0022229
0.00222097
0.00221906
0.00221717
0.00221529
0.00221345
0.0022116
0.0022098
0.00220798
0.00220621
0.00220443
0.00220269
0.00220094
0.00219924
0.00219752
0.00219584
0.00219415
0.00219251
0.00219084
0.00218923
0.00218758
0.00218601
0.00218439
0.00218285
0.00218125
0.00217974
0.00217816
0.00217668
0.00217512
0.00217368
0.00217214
0.00217072
0.00216919
0.00216779
0.00216629
0.00216491
0.00216344
0.00216206
0.00216063
0.00215924
0.00215786
0.00215642
0.00215516
0.00215357
0.00215261
0.00215057
0.00215033
0.00214771
)
;
    }
    symmetry
    {
        type            symmetryPlane;
    }
    frontAndBack
    {
        type            empty;
    }
}


// ************************************************************************* //
