/*--------------------------------*- C++ -*----------------------------------*\
| =========                 |                                                 |
| \\      /  F ield         | OpenFOAM: The Open Source CFD Toolbox           |
|  \\    /   O peration     | Version:  v2012                                 |
|   \\  /    A nd           | Website:  www.openfoam.com                      |
|    \\/     M anipulation  |                                                 |
\*---------------------------------------------------------------------------*/
FoamFile
{
    version     2.0;
    format      ascii;
    class       volScalarField;
    location    "38.5";
    object      k;
}
// * * * * * * * * * * * * * * * * * * * * * * * * * * * * * * * * * * * * * //

dimensions      [0 2 -2 0 0 0 0];


internalField   nonuniform List<scalar> 
209825
(
0.00102407
0.000930745
0.000855389
0.000796338
0.000750825
0.000715687
0.000688309
0.000666621
0.000649211
0.000634993
0.000623265
0.000613445
0.000605166
0.000598097
0.000592034
0.000586777
0.000582202
0.000578189
0.000574653
0.000571522
0.000568732
0.000566248
0.00056401
0.000562007
0.000560184
0.000558552
0.000557048
0.000555701
0.000554445
0.000553324
0.000552271
0.000551329
0.000550434
0.000549643
0.00054888
0.000548206
0.000547547
0.000546975
0.000546409
0.00054592
0.000545428
0.000545011
0.00054459
0.000544226
0.000543858
0.000543551
0.000543229
0.000542962
0.000542679
0.000542446
0.000542203
0.000542011
0.000541805
0.000541632
0.000541456
0.000541316
0.00054115
0.000541042
0.000540891
0.000540798
0.000540665
0.00054059
0.000540475
0.000540409
0.000540305
0.000540212
0.000540145
0.000540115
0.000540068
0.000540043
0.000539992
0.000539978
0.000539942
0.000539965
0.000539965
0.000540026
0.000540026
0.000540101
0.000540109
0.00054019
0.000540217
0.000540309
0.000540342
0.00054044
0.000540484
0.000540598
0.000540652
0.000540786
0.000540846
0.000541008
0.000541071
0.000541235
0.000541461
0.000550319
0.000579404
0.00142614
0.00102407
0.000930745
0.000855389
0.000796337
0.000750823
0.000715684
0.000688304
0.000666615
0.000649203
0.000634985
0.000623256
0.000613435
0.000605155
0.000598086
0.000592022
0.000586765
0.000582189
0.000578177
0.00057464
0.000571509
0.000568719
0.000566234
0.000563996
0.000561993
0.000560169
0.000558537
0.000557033
0.000555686
0.00055443
0.000553309
0.000552256
0.000551313
0.000550418
0.000549627
0.000548864
0.000548191
0.000547532
0.000546959
0.000546393
0.000545904
0.000545412
0.000544995
0.000544574
0.000544209
0.000543842
0.000543535
0.000543213
0.000542945
0.000542662
0.000542429
0.000542186
0.000541994
0.000541788
0.000541616
0.000541439
0.0005413
0.000541133
0.000541025
0.000540875
0.000540781
0.000540648
0.000540574
0.000540458
0.000540393
0.000540288
0.000540195
0.000540128
0.000540098
0.000540051
0.000540026
0.000539976
0.000539961
0.000539925
0.000539948
0.000539948
0.000540009
0.000540009
0.000540083
0.000540092
0.000540173
0.0005402
0.000540292
0.000540325
0.000540423
0.000540467
0.000540581
0.000540635
0.000540769
0.000540828
0.00054099
0.000541053
0.000541218
0.000541444
0.000550318
0.000579396
0.00142695
0.00102407
0.000930746
0.000855389
0.000796333
0.000750812
0.000715668
0.000688283
0.000666588
0.000649172
0.00063495
0.000623218
0.000613394
0.000605112
0.000598041
0.000591975
0.000586715
0.000582139
0.000578125
0.000574587
0.000571455
0.000568664
0.000566178
0.000563939
0.000561935
0.000560111
0.000558478
0.000556974
0.000555626
0.00055437
0.000553249
0.000552195
0.000551252
0.000550357
0.000549565
0.000548802
0.000548128
0.000547469
0.000546896
0.00054633
0.000545841
0.000545348
0.000544931
0.00054451
0.000544145
0.000543777
0.000543471
0.000543149
0.000542881
0.000542598
0.000542364
0.000542121
0.000541929
0.000541723
0.00054155
0.000541374
0.000541234
0.000541068
0.00054096
0.000540809
0.000540715
0.000540582
0.000540508
0.000540392
0.000540326
0.000540222
0.000540129
0.000540062
0.000540032
0.000539984
0.00053996
0.000539909
0.000539894
0.000539858
0.000539881
0.000539881
0.000539941
0.000539942
0.000540016
0.000540024
0.000540105
0.000540132
0.000540224
0.000540257
0.000540355
0.000540399
0.000540513
0.000540567
0.000540701
0.00054076
0.000540922
0.000540985
0.000541149
0.000541376
0.000550282
0.000579342
0.00142858
0.00102407
0.000930748
0.000855388
0.000796325
0.000750795
0.00071564
0.000688246
0.000666543
0.00064912
0.000634892
0.000623154
0.000613325
0.000605039
0.000597964
0.000591895
0.000586633
0.000582054
0.000578038
0.000574498
0.000571364
0.000568571
0.000566085
0.000563844
0.000561839
0.000560014
0.00055838
0.000556875
0.000555526
0.00055427
0.000553148
0.000552093
0.000551149
0.000550254
0.000549461
0.000548698
0.000548024
0.000547364
0.000546791
0.000546224
0.000545735
0.000545242
0.000544824
0.000544403
0.000544038
0.00054367
0.000543363
0.00054304
0.000542772
0.000542489
0.000542255
0.000542012
0.00054182
0.000541614
0.000541441
0.000541264
0.000541124
0.000540957
0.000540849
0.000540699
0.000540605
0.000540472
0.000540397
0.000540281
0.000540216
0.000540111
0.000540018
0.000539951
0.00053992
0.000539873
0.000539848
0.000539797
0.000539782
0.000539746
0.000539769
0.000539769
0.000539829
0.000539829
0.000539903
0.000539911
0.000539992
0.000540019
0.00054011
0.000540144
0.000540241
0.000540285
0.000540399
0.000540453
0.000540587
0.000540646
0.000540808
0.00054087
0.000541035
0.000541262
0.00055022
0.000579251
0.00143049
0.00102407
0.000930751
0.000855388
0.000796314
0.00075077
0.000715602
0.000688194
0.000666479
0.000649046
0.000634809
0.000623063
0.000613228
0.000604936
0.000597856
0.000591783
0.000586517
0.000581934
0.000577915
0.000574372
0.000571236
0.000568441
0.000565952
0.00056371
0.000561704
0.000559877
0.000558242
0.000556735
0.000555385
0.000554128
0.000553005
0.000551949
0.000551005
0.000550108
0.000549315
0.000548551
0.000547876
0.000547216
0.000546642
0.000546075
0.000545585
0.000545092
0.000544673
0.000544252
0.000543886
0.000543518
0.00054321
0.000542888
0.000542619
0.000542336
0.000542102
0.000541858
0.000541666
0.000541459
0.000541286
0.000541109
0.000540969
0.000540802
0.000540694
0.000540543
0.000540449
0.000540316
0.000540241
0.000540125
0.000540059
0.000539954
0.000539861
0.000539794
0.000539763
0.000539716
0.000539691
0.00053964
0.000539625
0.000539588
0.000539611
0.00053961
0.00053967
0.00053967
0.000539744
0.000539752
0.000539833
0.000539859
0.00053995
0.000539983
0.000540081
0.000540125
0.000540238
0.000540292
0.000540426
0.000540485
0.000540646
0.000540709
0.000540873
0.000541101
0.00055013
0.00057912
0.00143265
0.00102407
0.000930755
0.000855387
0.0007963
0.000750739
0.000715551
0.000688126
0.000666397
0.00064895
0.000634701
0.000622946
0.000613102
0.000604803
0.000597716
0.000591637
0.000586366
0.000581779
0.000577756
0.000574209
0.00057107
0.000568272
0.000565781
0.000563537
0.000561528
0.000559699
0.000558062
0.000556554
0.000555203
0.000553944
0.000552819
0.000551763
0.000550817
0.00054992
0.000549126
0.00054836
0.000547685
0.000547024
0.000546449
0.000545881
0.000545391
0.000544897
0.000544478
0.000544056
0.00054369
0.000543321
0.000543013
0.00054269
0.000542421
0.000542137
0.000541903
0.000541659
0.000541466
0.000541259
0.000541086
0.000540909
0.000540768
0.000540601
0.000540493
0.000540341
0.000540247
0.000540114
0.000540038
0.000539922
0.000539856
0.000539752
0.000539659
0.000539591
0.00053956
0.000539512
0.000539487
0.000539436
0.000539421
0.000539384
0.000539405
0.000539405
0.000539464
0.000539464
0.000539538
0.000539545
0.000539626
0.000539652
0.000539743
0.000539776
0.000539873
0.000539917
0.00054003
0.000540083
0.000540217
0.000540276
0.000540437
0.000540499
0.000540663
0.000540893
0.000550013
0.000578952
0.001435
0.00102407
0.00093076
0.000855386
0.000796282
0.0007507
0.00071549
0.000688044
0.000666295
0.000648832
0.000634569
0.000622801
0.000612947
0.000604638
0.000597544
0.000591458
0.00058618
0.000581588
0.00057756
0.000574009
0.000570866
0.000568064
0.00056557
0.000563323
0.000561311
0.00055948
0.000557841
0.00055633
0.000554978
0.000553717
0.000552591
0.000551533
0.000550586
0.000549687
0.000548892
0.000548126
0.000547449
0.000546787
0.000546211
0.000545643
0.000545151
0.000544657
0.000544237
0.000543814
0.000543448
0.000543078
0.00054277
0.000542446
0.000542177
0.000541892
0.000541658
0.000541413
0.00054122
0.000541013
0.000540839
0.000540661
0.000540521
0.000540353
0.000540244
0.000540093
0.000539998
0.000539864
0.000539789
0.000539673
0.000539606
0.000539502
0.000539408
0.00053934
0.000539309
0.00053926
0.000539236
0.000539184
0.000539169
0.000539131
0.000539152
0.000539152
0.00053921
0.00053921
0.000539283
0.000539291
0.000539371
0.000539397
0.000539487
0.00053952
0.000539617
0.00053966
0.000539773
0.000539826
0.000539959
0.000540018
0.000540179
0.000540241
0.000540405
0.000540636
0.00054987
0.000578744
0.00143743
0.00102407
0.000930765
0.000855384
0.000796261
0.000750653
0.000715416
0.000687945
0.000666174
0.000648691
0.000634411
0.000622629
0.000612762
0.000604443
0.000597338
0.000591244
0.000585959
0.00058136
0.000577326
0.00057377
0.000570622
0.000567816
0.000565318
0.000563067
0.000561053
0.000559219
0.000557577
0.000556064
0.000554709
0.000553446
0.000552318
0.000551258
0.00055031
0.00054941
0.000548613
0.000547845
0.000547168
0.000546504
0.000545928
0.000545358
0.000544866
0.00054437
0.00054395
0.000543526
0.000543159
0.000542789
0.000542479
0.000542155
0.000541885
0.0005416
0.000541365
0.00054112
0.000540926
0.000540718
0.000540544
0.000540366
0.000540225
0.000540057
0.000539948
0.000539796
0.000539701
0.000539567
0.000539491
0.000539375
0.000539308
0.000539203
0.00053911
0.000539041
0.000539009
0.000538961
0.000538936
0.000538884
0.000538868
0.00053883
0.000538851
0.000538849
0.000538907
0.000538907
0.00053898
0.000538987
0.000539066
0.000539092
0.000539182
0.000539214
0.000539311
0.000539354
0.000539466
0.00053952
0.000539652
0.00053971
0.000539871
0.000539932
0.000540096
0.00054033
0.000549702
0.000578498
0.00143977
0.00102407
0.000930772
0.000855383
0.000796238
0.000750599
0.000715331
0.000687831
0.000666033
0.000648528
0.000634228
0.000622429
0.000612547
0.000604215
0.000597099
0.000590995
0.000585701
0.000581095
0.000577054
0.000573492
0.000570338
0.000567528
0.000565025
0.00056277
0.000560752
0.000558915
0.00055727
0.000555754
0.000554396
0.000553131
0.000552001
0.000550939
0.000549989
0.000549087
0.000548288
0.000547519
0.00054684
0.000546175
0.000545598
0.000545027
0.000544533
0.000544037
0.000543615
0.000543191
0.000542823
0.000542451
0.000542141
0.000541816
0.000541546
0.00054126
0.000541024
0.000540779
0.000540584
0.000540376
0.000540201
0.000540022
0.000539881
0.000539712
0.000539603
0.00053945
0.000539355
0.000539221
0.000539144
0.000539028
0.000538961
0.000538856
0.000538762
0.000538693
0.000538661
0.000538612
0.000538586
0.000538535
0.000538518
0.00053848
0.000538499
0.000538498
0.000538554
0.000538554
0.000538626
0.000538633
0.000538712
0.000538737
0.000538827
0.000538859
0.000538955
0.000538998
0.000539109
0.000539162
0.000539294
0.000539352
0.000539512
0.000539573
0.000539737
0.000539973
0.000549508
0.000578212
0.00144176
0.00102407
0.000930779
0.000855381
0.000796211
0.000750538
0.000715234
0.0006877
0.000665873
0.000648341
0.000634019
0.0006222
0.000612302
0.000603955
0.000596826
0.00059071
0.000585407
0.000580791
0.000576743
0.000573174
0.000570014
0.000567198
0.00056469
0.00056243
0.000560408
0.000558567
0.000556918
0.000555399
0.000554039
0.000552771
0.000551638
0.000550574
0.000549621
0.000548717
0.000547917
0.000547146
0.000546465
0.000545799
0.00054522
0.000544648
0.000544153
0.000543655
0.000543233
0.000542807
0.000542438
0.000542065
0.000541755
0.000541429
0.000541157
0.000540871
0.000540634
0.000540388
0.000540193
0.000539984
0.000539809
0.000539629
0.000539487
0.000539318
0.000539208
0.000539055
0.000538959
0.000538824
0.000538748
0.00053863
0.000538563
0.000538458
0.000538364
0.000538294
0.000538262
0.000538212
0.000538187
0.000538135
0.000538118
0.000538078
0.000538097
0.000538095
0.00053815
0.00053815
0.000538221
0.000538227
0.000538306
0.000538331
0.000538421
0.000538452
0.000538548
0.00053859
0.000538701
0.000538753
0.000538885
0.000538943
0.000539102
0.000539162
0.000539325
0.000539565
0.000549289
0.000577886
0.00144301
0.00102407
0.000930788
0.00085538
0.00079618
0.00075047
0.000715126
0.000687554
0.000665693
0.000648132
0.000633784
0.000621943
0.000612025
0.000603661
0.000596519
0.00059039
0.000585075
0.00058045
0.000576392
0.000572815
0.000569648
0.000566826
0.000564312
0.000562047
0.00056002
0.000558174
0.000556522
0.000554999
0.000553635
0.000552364
0.000551229
0.000550162
0.000549207
0.0005483
0.000547498
0.000546725
0.000546042
0.000545374
0.000544794
0.00054422
0.000543724
0.000543224
0.000542801
0.000542373
0.000542004
0.00054163
0.000541318
0.000540991
0.000540719
0.000540432
0.000540194
0.000539947
0.000539751
0.000539541
0.000539365
0.000539185
0.000539043
0.000538873
0.000538762
0.000538609
0.000538512
0.000538377
0.0005383
0.000538182
0.000538115
0.000538009
0.000537915
0.000537844
0.000537811
0.000537761
0.000537735
0.000537683
0.000537666
0.000537626
0.000537643
0.00053764
0.000537694
0.000537694
0.000537764
0.00053777
0.000537849
0.000537873
0.000537962
0.000537992
0.000538088
0.000538129
0.00053824
0.000538292
0.000538423
0.00053848
0.000538639
0.000538698
0.000538861
0.000539104
0.000549045
0.00057752
0.00144301
0.00102407
0.000930797
0.000855378
0.000796147
0.000750394
0.000715005
0.000687391
0.000665492
0.000647898
0.000633522
0.000621656
0.000611717
0.000603335
0.000596176
0.000590033
0.000584705
0.000580069
0.000576001
0.000572415
0.000569241
0.000566411
0.00056389
0.00056162
0.000559587
0.000557737
0.00055608
0.000554553
0.000553185
0.000551911
0.000550772
0.000549702
0.000548744
0.000547835
0.000547031
0.000546255
0.000545571
0.000544901
0.000544318
0.000543742
0.000543245
0.000542744
0.000542319
0.00054189
0.000541519
0.000541144
0.000540831
0.000540503
0.00054023
0.000539941
0.000539703
0.000539455
0.000539258
0.000539047
0.000538871
0.000538689
0.000538547
0.000538376
0.000538265
0.000538111
0.000538014
0.000537878
0.0005378
0.000537682
0.000537614
0.000537509
0.000537414
0.000537342
0.000537309
0.000537258
0.000537232
0.000537179
0.000537162
0.00053712
0.000537137
0.000537133
0.000537185
0.000537185
0.000537255
0.00053726
0.000537338
0.000537361
0.00053745
0.00053748
0.000537574
0.000537616
0.000537726
0.000537777
0.000537907
0.000537964
0.000538122
0.000538181
0.000538343
0.000538591
0.000548776
0.000577113
0.00144131
0.00102408
0.000930807
0.000855376
0.000796111
0.000750311
0.000714872
0.000687212
0.000665271
0.000647641
0.000633233
0.00062134
0.000611377
0.000602974
0.000595797
0.000589638
0.000584297
0.000579648
0.000575569
0.000571974
0.00056879
0.000565952
0.000563425
0.000561147
0.000559109
0.000557253
0.000555591
0.00055406
0.000552688
0.000551409
0.000550267
0.000549194
0.000548233
0.000547321
0.000546514
0.000545736
0.000545049
0.000544377
0.000543792
0.000543215
0.000542715
0.000542213
0.000541786
0.000541356
0.000540983
0.000540607
0.000540293
0.000539963
0.000539689
0.000539399
0.00053916
0.000538911
0.000538713
0.000538501
0.000538324
0.000538142
0.000537998
0.000537826
0.000537715
0.00053756
0.000537463
0.000537326
0.000537248
0.000537129
0.00053706
0.000536955
0.00053686
0.000536787
0.000536753
0.000536701
0.000536675
0.000536622
0.000536604
0.000536562
0.000536577
0.000536573
0.000536623
0.000536623
0.000536691
0.000536696
0.000536773
0.000536795
0.000536883
0.000536913
0.000537007
0.000537047
0.000537157
0.000537208
0.000537337
0.000537393
0.00053755
0.000537608
0.000537771
0.000538023
0.000548483
0.000576664
0.00143791
0.00102408
0.000930818
0.000855375
0.000796071
0.00075022
0.000714728
0.000687016
0.00066503
0.00064736
0.000632917
0.000620994
0.000611005
0.00060258
0.000595382
0.000589206
0.00058385
0.000579187
0.000575096
0.000571489
0.000568296
0.000565449
0.000562914
0.000560629
0.000558584
0.000556722
0.000555055
0.000553519
0.000552142
0.000550859
0.000549713
0.000548636
0.000547672
0.000546757
0.000545947
0.000545166
0.000544477
0.000543802
0.000543215
0.000542636
0.000542134
0.00054163
0.000541201
0.000540769
0.000540395
0.000540017
0.000539702
0.000539371
0.000539095
0.000538805
0.000538564
0.000538314
0.000538115
0.000537902
0.000537724
0.00053754
0.000537396
0.000537224
0.000537111
0.000536956
0.000536857
0.00053672
0.000536641
0.000536522
0.000536452
0.000536347
0.000536252
0.000536178
0.000536143
0.000536091
0.000536064
0.00053601
0.000535992
0.000535949
0.000535962
0.000535957
0.000536005
0.000536005
0.000536072
0.000536076
0.000536153
0.000536174
0.000536262
0.00053629
0.000536384
0.000536424
0.000536532
0.000536583
0.000536711
0.000536767
0.000536923
0.00053698
0.000537142
0.0005374
0.000548164
0.000576172
0.00143283
0.00102408
0.00093083
0.000855373
0.000796029
0.000750123
0.000714571
0.000686804
0.000664768
0.000647054
0.000632574
0.000620618
0.000610601
0.00060215
0.000594931
0.000588736
0.000583362
0.000578685
0.000574581
0.000570962
0.000567758
0.000564902
0.000562357
0.000560065
0.000558013
0.000556144
0.000554471
0.000552929
0.000551548
0.00055026
0.00054911
0.000548029
0.000547061
0.000546142
0.000545329
0.000544545
0.000543853
0.000543176
0.000542586
0.000542004
0.000541501
0.000540994
0.000540564
0.00054013
0.000539754
0.000539375
0.000539057
0.000538725
0.000538448
0.000538156
0.000537915
0.000537663
0.000537463
0.000537248
0.00053707
0.000536885
0.00053674
0.000536566
0.000536453
0.000536296
0.000536198
0.000536059
0.00053598
0.00053586
0.00053579
0.000535684
0.000535589
0.000535513
0.000535477
0.000535424
0.000535397
0.000535343
0.000535324
0.00053528
0.000535292
0.000535286
0.000535332
0.000535332
0.000535398
0.000535401
0.000535477
0.000535497
0.000535584
0.000535612
0.000535705
0.000535744
0.000535851
0.000535901
0.000536029
0.000536083
0.000536239
0.000536295
0.000536456
0.00053672
0.00054782
0.000575636
0.00142611
0.00102408
0.000930843
0.000855372
0.000795983
0.000750017
0.000714403
0.000686576
0.000664486
0.000646725
0.000632203
0.000620212
0.000610163
0.000601686
0.000594443
0.000588227
0.000582835
0.000578141
0.000574022
0.000570391
0.000567175
0.000564309
0.000561755
0.000559454
0.000557394
0.000555518
0.000553838
0.00055229
0.000550903
0.000549611
0.000548455
0.00054737
0.000546399
0.000545476
0.000544659
0.000543872
0.000543177
0.000542497
0.000541905
0.00054132
0.000540814
0.000540305
0.000539873
0.000539437
0.000539059
0.000538678
0.000538359
0.000538025
0.000537747
0.000537453
0.00053721
0.000536957
0.000536756
0.00053654
0.00053636
0.000536174
0.000536028
0.000535853
0.000535739
0.000535582
0.000535482
0.000535343
0.000535263
0.000535142
0.000535071
0.000534965
0.00053487
0.000534793
0.000534756
0.000534702
0.000534675
0.00053462
0.000534601
0.000534555
0.000534566
0.000534558
0.000534602
0.000534602
0.000534666
0.000534669
0.000534744
0.000534763
0.000534849
0.000534876
0.000534968
0.000535006
0.000535113
0.000535162
0.000535288
0.000535343
0.000535497
0.000535552
0.000535713
0.000535984
0.00054745
0.000575055
0.00141778
0.00102408
0.000930857
0.00085537
0.000795935
0.000749905
0.000714222
0.000686331
0.000664182
0.00064637
0.000631804
0.000619774
0.000609692
0.000601185
0.000593917
0.000587679
0.000582267
0.000577556
0.000573421
0.000569776
0.000566547
0.000563669
0.000561105
0.000558795
0.000556726
0.000554843
0.000553156
0.000551602
0.000550208
0.00054891
0.00054775
0.00054666
0.000545684
0.000544757
0.000543937
0.000543146
0.000542448
0.000541764
0.000541169
0.000540582
0.000540073
0.000539562
0.000539127
0.000538689
0.00053831
0.000537926
0.000537605
0.00053727
0.00053699
0.000536694
0.00053645
0.000536195
0.000535993
0.000535776
0.000535595
0.000535407
0.000535261
0.000535084
0.000534969
0.000534811
0.00053471
0.00053457
0.000534489
0.000534368
0.000534296
0.000534189
0.000534093
0.000534015
0.000533978
0.000533923
0.000533895
0.00053384
0.000533819
0.000533773
0.000533782
0.000533773
0.000533815
0.000533815
0.000533877
0.000533879
0.000533953
0.000533971
0.000534056
0.000534082
0.000534173
0.000534211
0.000534316
0.000534364
0.00053449
0.000534543
0.000534697
0.00053475
0.000534911
0.00053519
0.000547053
0.000574425
0.00140789
0.00102408
0.000930872
0.000855369
0.000795884
0.000749786
0.00071403
0.000686069
0.000663858
0.000645991
0.000631377
0.000619306
0.000609187
0.00060065
0.000593354
0.000587091
0.000581658
0.000576927
0.000572776
0.000569115
0.000565873
0.000562983
0.000560408
0.000558088
0.00055601
0.000554118
0.000552423
0.000550862
0.000549462
0.000548158
0.000546992
0.000545897
0.000544917
0.000543985
0.000543161
0.000542366
0.000541664
0.000540977
0.000540379
0.000539789
0.000539278
0.000538764
0.000538326
0.000537886
0.000537504
0.000537118
0.000536796
0.000536458
0.000536177
0.000535879
0.000535634
0.000535377
0.000535173
0.000534954
0.000534772
0.000534583
0.000534436
0.000534258
0.000534142
0.000533982
0.000533881
0.00053374
0.000533658
0.000533535
0.000533463
0.000533356
0.00053326
0.00053318
0.000533141
0.000533085
0.000533057
0.000533001
0.00053298
0.000532933
0.00053294
0.00053293
0.000532969
0.000532968
0.000533029
0.00053303
0.000533103
0.00053312
0.000533204
0.000533229
0.000533319
0.000533356
0.00053346
0.000533507
0.000533632
0.000533684
0.000533837
0.000533889
0.000534049
0.000534336
0.000546627
0.000573745
0.00139648
0.00102409
0.000930888
0.000855368
0.000795831
0.00074966
0.000713825
0.000685791
0.000663513
0.000645587
0.000630922
0.000618806
0.000608649
0.000600077
0.000592752
0.000586463
0.000581007
0.000576256
0.000572086
0.00056841
0.000565153
0.000562249
0.000559662
0.000557331
0.000555243
0.000553343
0.00055164
0.000550071
0.000548664
0.000547354
0.000546182
0.000545081
0.000544096
0.00054316
0.00054233
0.000541532
0.000540826
0.000540136
0.000539534
0.00053894
0.000538426
0.000537909
0.000537469
0.000537026
0.000536642
0.000536254
0.000535929
0.00053559
0.000535306
0.000535007
0.00053476
0.000534501
0.000534296
0.000534075
0.000533892
0.000533701
0.000533552
0.000533373
0.000533256
0.000533095
0.000532993
0.000532851
0.000532768
0.000532644
0.000532571
0.000532464
0.000532367
0.000532286
0.000532246
0.000532189
0.00053216
0.000532103
0.000532082
0.000532034
0.000532039
0.000532027
0.000532063
0.000532063
0.000532121
0.000532122
0.000532193
0.000532209
0.000532292
0.000532316
0.000532405
0.00053244
0.000532544
0.00053259
0.000532713
0.000532765
0.000532916
0.000532966
0.000533127
0.000533423
0.000546172
0.000573013
0.00138361
0.00102409
0.000930905
0.000855368
0.000795774
0.000749526
0.000713609
0.000685496
0.000663147
0.000645158
0.000630438
0.000618275
0.000608076
0.000599469
0.000592112
0.000585795
0.000580314
0.000575541
0.000571352
0.000567658
0.000564386
0.000561468
0.000558868
0.000556525
0.000554427
0.000552516
0.000550805
0.000549228
0.000547814
0.000546496
0.000545318
0.000544211
0.00054322
0.000542279
0.000541445
0.000540642
0.000539932
0.000539238
0.000538633
0.000538035
0.000537518
0.000536998
0.000536555
0.000536109
0.000535723
0.000535332
0.000535005
0.000534663
0.000534378
0.000534077
0.000533828
0.000533567
0.00053336
0.000533138
0.000532953
0.00053276
0.00053261
0.00053243
0.000532311
0.000532149
0.000532046
0.000531903
0.000531818
0.000531694
0.00053162
0.000531512
0.000531415
0.000531332
0.000531291
0.000531233
0.000531203
0.000531145
0.000531123
0.000531075
0.000531077
0.000531064
0.000531097
0.000531096
0.000531152
0.000531153
0.000531222
0.000531237
0.000531319
0.000531341
0.00053143
0.000531464
0.000531566
0.000531611
0.000531733
0.000531784
0.000531934
0.000531983
0.000532142
0.000532449
0.000545685
0.000572224
0.00136935
0.00102409
0.000930923
0.000855368
0.000795716
0.000749386
0.000713382
0.000685185
0.000662759
0.000644705
0.000629926
0.000617712
0.000607469
0.000598823
0.000591432
0.000585086
0.000579579
0.000574783
0.000570573
0.00056686
0.000563571
0.000560638
0.000558024
0.000555669
0.000553559
0.000551638
0.000549917
0.000548331
0.000546909
0.000545585
0.0005444
0.000543287
0.00054229
0.000541343
0.000540504
0.000539696
0.000538982
0.000538283
0.000537674
0.000537073
0.000536553
0.000536029
0.000535583
0.000535134
0.000534746
0.000534352
0.000534023
0.000533678
0.000533391
0.000533088
0.000532837
0.000532574
0.000532365
0.000532141
0.000531955
0.00053176
0.000531609
0.000531426
0.000531306
0.000531143
0.000531039
0.000530894
0.000530808
0.000530683
0.000530608
0.000530499
0.000530402
0.000530317
0.000530275
0.000530216
0.000530185
0.000530127
0.000530104
0.000530055
0.000530055
0.000530039
0.00053007
0.000530069
0.000530122
0.000530122
0.00053019
0.000530204
0.000530284
0.000530305
0.000530392
0.000530425
0.000530526
0.00053057
0.000530691
0.000530741
0.000530889
0.000530936
0.000531096
0.000531412
0.000545164
0.000571374
0.00135376
0.00102409
0.000930941
0.000855368
0.000795655
0.00074924
0.000713143
0.000684857
0.000662352
0.000644226
0.000629385
0.000617118
0.000606828
0.000598141
0.000590714
0.000584336
0.000578801
0.00057398
0.000569747
0.000566015
0.000562707
0.000559759
0.00055713
0.000554762
0.00055264
0.000550708
0.000548977
0.000547382
0.000545951
0.000544619
0.000543426
0.000542307
0.000541303
0.000540351
0.000539506
0.000538693
0.000537975
0.000537272
0.000536658
0.000536053
0.000535529
0.000535002
0.000534553
0.0005341
0.000533709
0.000533312
0.000532981
0.000532633
0.000532344
0.000532038
0.000531786
0.00053152
0.000531309
0.000531083
0.000530896
0.000530698
0.000530546
0.000530362
0.000530241
0.000530076
0.00052997
0.000529824
0.000529737
0.000529611
0.000529534
0.000529425
0.000529327
0.000529241
0.000529198
0.000529137
0.000529105
0.000529046
0.000529023
0.000528973
0.000528971
0.000528953
0.000528981
0.000528979
0.000529029
0.000529029
0.000529095
0.000529107
0.000529186
0.000529206
0.000529292
0.000529324
0.000529423
0.000529466
0.000529585
0.000529634
0.000529781
0.000529826
0.000529985
0.000530314
0.000544603
0.000570461
0.00133691
0.00102409
0.000930961
0.000855368
0.000795591
0.000749087
0.000712892
0.000684514
0.000661923
0.000643722
0.000628816
0.000616492
0.000606152
0.000597421
0.000589956
0.000583545
0.000577979
0.000573132
0.000568876
0.000565122
0.000561796
0.00055883
0.000556186
0.000553803
0.000551669
0.000549725
0.000547983
0.000546378
0.000544939
0.000543598
0.000542397
0.00054127
0.000540261
0.000539302
0.000538452
0.000537633
0.000536909
0.000536201
0.000535584
0.000534975
0.000534446
0.000533916
0.000533463
0.000533007
0.000532613
0.000532213
0.000531878
0.000531529
0.000531237
0.000530929
0.000530674
0.000530406
0.000530193
0.000529964
0.000529775
0.000529576
0.000529422
0.000529236
0.000529113
0.000528947
0.00052884
0.000528693
0.000528604
0.000528477
0.000528399
0.000528289
0.000528191
0.000528103
0.000528058
0.000527995
0.000527963
0.000527903
0.000527879
0.000527828
0.000527824
0.000527804
0.000527829
0.000527826
0.000527873
0.000527873
0.000527937
0.000527947
0.000528025
0.000528043
0.000528128
0.000528158
0.000528256
0.000528298
0.000528415
0.000528463
0.000528609
0.000528652
0.000528811
0.000529151
0.000543997
0.000569482
0.00131889
0.0010241
0.000930981
0.000855369
0.000795526
0.000748928
0.000712631
0.000684154
0.000661473
0.000643194
0.000628218
0.000615833
0.000605441
0.000596664
0.000589158
0.000582711
0.000577114
0.000572239
0.000567958
0.000564181
0.000560835
0.000557851
0.00055519
0.000552793
0.000550645
0.000548689
0.000546935
0.00054532
0.00054387
0.000542521
0.000541312
0.000540177
0.000539161
0.000538195
0.000537339
0.000536514
0.000535785
0.000535072
0.00053445
0.000533836
0.000533304
0.000532769
0.000532313
0.000531853
0.000531456
0.000531053
0.000530715
0.000530362
0.000530068
0.000529757
0.0005295
0.00052923
0.000529014
0.000528784
0.000528593
0.000528391
0.000528236
0.000528048
0.000527923
0.000527756
0.000527647
0.000527498
0.000527409
0.00052728
0.0005272
0.00052709
0.000526991
0.000526901
0.000526854
0.00052679
0.000526757
0.000526696
0.000526671
0.00052662
0.000526614
0.000526591
0.000526613
0.000526609
0.000526652
0.000526652
0.000526714
0.000526723
0.000526799
0.000526816
0.000526899
0.000526928
0.000527025
0.000527065
0.000527181
0.000527227
0.000527371
0.000527412
0.000527571
0.000527924
0.000543337
0.000568435
0.00129978
0.0010241
0.000931003
0.000855371
0.000795459
0.000748762
0.000712358
0.000683778
0.000661003
0.000642641
0.000627592
0.000615143
0.000604695
0.00059587
0.000588321
0.000581836
0.000576206
0.0005713
0.000566993
0.000563193
0.000559825
0.000556821
0.000554143
0.00055173
0.000549567
0.000547598
0.000545832
0.000544206
0.000542746
0.000541387
0.00054017
0.000539027
0.000538003
0.00053703
0.000536167
0.000535337
0.000534602
0.000533884
0.000533257
0.000532638
0.000532101
0.000531562
0.000531102
0.000530639
0.000530238
0.000529831
0.000529491
0.000529135
0.000528838
0.000528524
0.000528264
0.000527991
0.000527774
0.00052754
0.000527348
0.000527143
0.000526987
0.000526797
0.00052667
0.000526501
0.000526391
0.00052624
0.000526149
0.000526019
0.000525938
0.000525827
0.000525727
0.000525635
0.000525587
0.000525521
0.000525487
0.000525425
0.000525399
0.000525347
0.000525339
0.000525313
0.000525333
0.000525327
0.000525367
0.000525367
0.000525426
0.000525434
0.000525507
0.000525523
0.000525605
0.000525632
0.000525727
0.000525766
0.00052588
0.000525926
0.000526068
0.000526107
0.000526265
0.000526631
0.000542615
0.000567317
0.00127965
0.0010241
0.000931025
0.000855373
0.00079539
0.000748591
0.000712075
0.000683387
0.000660513
0.000642063
0.000626937
0.000614421
0.000603914
0.000595037
0.000587443
0.000580919
0.000575253
0.000570316
0.00056598
0.000562155
0.000558765
0.000555741
0.000553044
0.000550614
0.000548436
0.000546453
0.000544675
0.000543036
0.000541566
0.000540197
0.00053897
0.000537819
0.000536787
0.000535806
0.000534937
0.0005341
0.000533359
0.000532635
0.000532003
0.000531379
0.000530838
0.000530294
0.000529829
0.000529362
0.000528958
0.000528547
0.000528203
0.000527844
0.000527544
0.000527228
0.000526965
0.00052669
0.000526469
0.000526234
0.000526039
0.000525832