/*--------------------------------*- C++ -*----------------------------------*\
| =========                 |                                                 |
| \\      /  F ield         | OpenFOAM: The Open Source CFD Toolbox           |
|  \\    /   O peration     | Version:  v2012                                 |
|   \\  /    A nd           | Website:  www.openfoam.com                      |
|    \\/     M anipulation  |                                                 |
\*---------------------------------------------------------------------------*/
FoamFile
{
    version     2.0;
    format      ascii;
    class       volScalarField;
    location    "38.5";
    object      nut;
}
// * * * * * * * * * * * * * * * * * * * * * * * * * * * * * * * * * * * * * //

dimensions      [0 2 -1 0 0 0 0];


internalField   nonuniform List<scalar> 
209825
(
1.23958e-07
1.23004e-07
1.22201e-07
1.21564e-07
1.21098e-07
1.20754e-07
1.20519e-07
1.20345e-07
1.20235e-07
1.20151e-07
1.20107e-07
1.20071e-07
1.20062e-07
1.20052e-07
1.20063e-07
1.20067e-07
1.20088e-07
1.201e-07
1.20126e-07
1.20141e-07
1.20169e-07
1.20187e-07
1.20215e-07
1.20233e-07
1.20261e-07
1.20279e-07
1.20305e-07
1.20322e-07
1.20347e-07
1.20363e-07
1.20387e-07
1.20402e-07
1.20424e-07
1.20439e-07
1.2046e-07
1.20473e-07
1.20492e-07
1.20504e-07
1.20523e-07
1.20534e-07
1.2055e-07
1.20562e-07
1.20579e-07
1.20588e-07
1.20603e-07
1.20613e-07
1.20627e-07
1.20637e-07
1.20648e-07
1.20657e-07
1.20667e-07
1.20675e-07
1.20685e-07
1.20695e-07
1.20704e-07
1.20714e-07
1.2072e-07
1.20732e-07
1.20736e-07
1.20745e-07
1.20746e-07
1.20755e-07
1.20757e-07
1.20762e-07
1.20763e-07
1.2076e-07
1.20767e-07
1.20773e-07
1.2078e-07
1.20784e-07
1.20788e-07
1.20792e-07
1.20798e-07
1.2081e-07
1.20824e-07
1.20845e-07
1.20857e-07
1.20878e-07
1.2089e-07
1.20911e-07
1.20925e-07
1.20944e-07
1.20952e-07
1.20969e-07
1.20979e-07
1.20993e-07
1.21006e-07
1.21018e-07
1.21031e-07
1.21046e-07
1.2106e-07
1.21068e-07
1.211e-07
1.22264e-07
1.2557e-07
1.25899e-08
1.23958e-07
1.23004e-07
1.22201e-07
1.21564e-07
1.21098e-07
1.20754e-07
1.20519e-07
1.20345e-07
1.20235e-07
1.20151e-07
1.20107e-07
1.20071e-07
1.20062e-07
1.20052e-07
1.20063e-07
1.20067e-07
1.20088e-07
1.201e-07
1.20126e-07
1.20141e-07
1.20169e-07
1.20187e-07
1.20215e-07
1.20233e-07
1.20261e-07
1.20279e-07
1.20305e-07
1.20323e-07
1.20347e-07
1.20364e-07
1.20388e-07
1.20402e-07
1.20424e-07
1.20439e-07
1.2046e-07
1.20473e-07
1.20492e-07
1.20504e-07
1.20523e-07
1.20535e-07
1.2055e-07
1.20562e-07
1.20579e-07
1.20588e-07
1.20603e-07
1.20613e-07
1.20628e-07
1.20637e-07
1.20648e-07
1.20657e-07
1.20667e-07
1.20676e-07
1.20686e-07
1.20695e-07
1.20704e-07
1.20714e-07
1.2072e-07
1.20732e-07
1.20737e-07
1.20745e-07
1.20746e-07
1.20755e-07
1.20757e-07
1.20762e-07
1.20763e-07
1.2076e-07
1.20767e-07
1.20773e-07
1.2078e-07
1.20784e-07
1.20788e-07
1.20792e-07
1.20798e-07
1.20811e-07
1.20824e-07
1.20845e-07
1.20857e-07
1.20878e-07
1.2089e-07
1.20911e-07
1.20925e-07
1.20944e-07
1.20953e-07
1.20969e-07
1.20979e-07
1.20994e-07
1.21006e-07
1.21018e-07
1.21032e-07
1.21046e-07
1.2106e-07
1.21068e-07
1.21101e-07
1.22267e-07
1.25572e-07
1.29749e-08
1.23958e-07
1.23004e-07
1.22201e-07
1.21563e-07
1.21097e-07
1.20753e-07
1.20518e-07
1.20344e-07
1.20234e-07
1.2015e-07
1.20105e-07
1.20069e-07
1.20061e-07
1.20051e-07
1.20061e-07
1.20065e-07
1.20086e-07
1.20098e-07
1.20124e-07
1.2014e-07
1.20168e-07
1.20185e-07
1.20214e-07
1.20232e-07
1.20259e-07
1.20277e-07
1.20304e-07
1.20321e-07
1.20346e-07
1.20362e-07
1.20386e-07
1.204e-07
1.20423e-07
1.20437e-07
1.20459e-07
1.20472e-07
1.2049e-07
1.20503e-07
1.20521e-07
1.20533e-07
1.20548e-07
1.20561e-07
1.20577e-07
1.20586e-07
1.20601e-07
1.20612e-07
1.20626e-07
1.20635e-07
1.20647e-07
1.20655e-07
1.20665e-07
1.20674e-07
1.20684e-07
1.20693e-07
1.20702e-07
1.20712e-07
1.20718e-07
1.20731e-07
1.20735e-07
1.20744e-07
1.20744e-07
1.20754e-07
1.20756e-07
1.2076e-07
1.20761e-07
1.20758e-07
1.20765e-07
1.20771e-07
1.20778e-07
1.20782e-07
1.20786e-07
1.20791e-07
1.20796e-07
1.20809e-07
1.20823e-07
1.20843e-07
1.20855e-07
1.20877e-07
1.20888e-07
1.20909e-07
1.20923e-07
1.20942e-07
1.20951e-07
1.20967e-07
1.20977e-07
1.20992e-07
1.21004e-07
1.21017e-07
1.2103e-07
1.21044e-07
1.21058e-07
1.21066e-07
1.21099e-07
1.22269e-07
1.25572e-07
1.34529e-08
1.23958e-07
1.23004e-07
1.22201e-07
1.21563e-07
1.21097e-07
1.20752e-07
1.20517e-07
1.20343e-07
1.20232e-07
1.20148e-07
1.20104e-07
1.20067e-07
1.20059e-07
1.20048e-07
1.20059e-07
1.20063e-07
1.20084e-07
1.20096e-07
1.20122e-07
1.20137e-07
1.20165e-07
1.20183e-07
1.20211e-07
1.20229e-07
1.20257e-07
1.20275e-07
1.20301e-07
1.20318e-07
1.20343e-07
1.20359e-07
1.20383e-07
1.20398e-07
1.2042e-07
1.20435e-07
1.20456e-07
1.20469e-07
1.20488e-07
1.205e-07
1.20518e-07
1.2053e-07
1.20546e-07
1.20558e-07
1.20575e-07
1.20583e-07
1.20599e-07
1.20609e-07
1.20623e-07
1.20633e-07
1.20644e-07
1.20652e-07
1.20663e-07
1.20671e-07
1.20681e-07
1.20691e-07
1.207e-07
1.2071e-07
1.20715e-07
1.20728e-07
1.20732e-07
1.20741e-07
1.20742e-07
1.20751e-07
1.20753e-07
1.20758e-07
1.20759e-07
1.20756e-07
1.20763e-07
1.20769e-07
1.20776e-07
1.20779e-07
1.20784e-07
1.20788e-07
1.20794e-07
1.20806e-07
1.2082e-07
1.20841e-07
1.20852e-07
1.20874e-07
1.20885e-07
1.20907e-07
1.2092e-07
1.20939e-07
1.20948e-07
1.20965e-07
1.20975e-07
1.20989e-07
1.21001e-07
1.21014e-07
1.21027e-07
1.21042e-07
1.21056e-07
1.21063e-07
1.21096e-07
1.22274e-07
1.25572e-07
1.39835e-08
1.23958e-07
1.23004e-07
1.22201e-07
1.21563e-07
1.21096e-07
1.20751e-07
1.20515e-07
1.20341e-07
1.2023e-07
1.20146e-07
1.20101e-07
1.20065e-07
1.20056e-07
1.20046e-07
1.20056e-07
1.2006e-07
1.20081e-07
1.20093e-07
1.20119e-07
1.20134e-07
1.20162e-07
1.20179e-07
1.20208e-07
1.20226e-07
1.20253e-07
1.20271e-07
1.20298e-07
1.20315e-07
1.2034e-07
1.20356e-07
1.2038e-07
1.20394e-07
1.20417e-07
1.20431e-07
1.20453e-07
1.20466e-07
1.20484e-07
1.20497e-07
1.20515e-07
1.20527e-07
1.20542e-07
1.20555e-07
1.20571e-07
1.2058e-07
1.20595e-07
1.20606e-07
1.2062e-07
1.20629e-07
1.20641e-07
1.20649e-07
1.2066e-07
1.20668e-07
1.20678e-07
1.20687e-07
1.20696e-07
1.20706e-07
1.20712e-07
1.20725e-07
1.20729e-07
1.20738e-07
1.20739e-07
1.20748e-07
1.2075e-07
1.20754e-07
1.20756e-07
1.20752e-07
1.20759e-07
1.20766e-07
1.20773e-07
1.20776e-07
1.2078e-07
1.20785e-07
1.20791e-07
1.20803e-07
1.20817e-07
1.20837e-07
1.20849e-07
1.2087e-07
1.20882e-07
1.20903e-07
1.20917e-07
1.20936e-07
1.20945e-07
1.20961e-07
1.20971e-07
1.20986e-07
1.20998e-07
1.21011e-07
1.21024e-07
1.21038e-07
1.21052e-07
1.2106e-07
1.21093e-07
1.2228e-07
1.25572e-07
1.45591e-08
1.23958e-07
1.23004e-07
1.22201e-07
1.21562e-07
1.21095e-07
1.2075e-07
1.20514e-07
1.20339e-07
1.20228e-07
1.20143e-07
1.20098e-07
1.20062e-07
1.20053e-07
1.20042e-07
1.20053e-07
1.20056e-07
1.20077e-07
1.20089e-07
1.20115e-07
1.2013e-07
1.20158e-07
1.20175e-07
1.20204e-07
1.20222e-07
1.20249e-07
1.20267e-07
1.20294e-07
1.20311e-07
1.20336e-07
1.20352e-07
1.20376e-07
1.2039e-07
1.20413e-07
1.20427e-07
1.20449e-07
1.20461e-07
1.2048e-07
1.20492e-07
1.20511e-07
1.20523e-07
1.20538e-07
1.2055e-07
1.20567e-07
1.20576e-07
1.20591e-07
1.20602e-07
1.20616e-07
1.20625e-07
1.20637e-07
1.20645e-07
1.20656e-07
1.20664e-07
1.20674e-07
1.20683e-07
1.20692e-07
1.20702e-07
1.20708e-07
1.20721e-07
1.20725e-07
1.20734e-07
1.20735e-07
1.20744e-07
1.20746e-07
1.2075e-07
1.20752e-07
1.20748e-07
1.20755e-07
1.20762e-07
1.20769e-07
1.20772e-07
1.20776e-07
1.20781e-07
1.20787e-07
1.20799e-07
1.20812e-07
1.20833e-07
1.20845e-07
1.20866e-07
1.20877e-07
1.20899e-07
1.20912e-07
1.20932e-07
1.2094e-07
1.20957e-07
1.20967e-07
1.20982e-07
1.20994e-07
1.21006e-07
1.21019e-07
1.21034e-07
1.21048e-07
1.21056e-07
1.21089e-07
1.22289e-07
1.25573e-07
1.51782e-08
1.23958e-07
1.23005e-07
1.22201e-07
1.21562e-07
1.21094e-07
1.20748e-07
1.20512e-07
1.20336e-07
1.20225e-07
1.2014e-07
1.20095e-07
1.20058e-07
1.20049e-07
1.20038e-07
1.20048e-07
1.20052e-07
1.20073e-07
1.20084e-07
1.2011e-07
1.20125e-07
1.20153e-07
1.20171e-07
1.20199e-07
1.20217e-07
1.20245e-07
1.20262e-07
1.20289e-07
1.20306e-07
1.20331e-07
1.20347e-07
1.20371e-07
1.20385e-07
1.20408e-07
1.20422e-07
1.20444e-07
1.20457e-07
1.20475e-07
1.20488e-07
1.20506e-07
1.20518e-07
1.20533e-07
1.20546e-07
1.20562e-07
1.20571e-07
1.20586e-07
1.20597e-07
1.20611e-07
1.20621e-07
1.20632e-07
1.2064e-07
1.20651e-07
1.20659e-07
1.20669e-07
1.20678e-07
1.20688e-07
1.20698e-07
1.20703e-07
1.20716e-07
1.2072e-07
1.20729e-07
1.2073e-07
1.20739e-07
1.20741e-07
1.20746e-07
1.20747e-07
1.20744e-07
1.20751e-07
1.20757e-07
1.20764e-07
1.20768e-07
1.20772e-07
1.20776e-07
1.20782e-07
1.20794e-07
1.20808e-07
1.20828e-07
1.2084e-07
1.20861e-07
1.20872e-07
1.20894e-07
1.20907e-07
1.20927e-07
1.20935e-07
1.20952e-07
1.20962e-07
1.20977e-07
1.20989e-07
1.21001e-07
1.21015e-07
1.21029e-07
1.21043e-07
1.21051e-07
1.21084e-07
1.22301e-07
1.25574e-07
1.58411e-08
1.23958e-07
1.23005e-07
1.22201e-07
1.21561e-07
1.21093e-07
1.20746e-07
1.20509e-07
1.20333e-07
1.20221e-07
1.20136e-07
1.2009e-07
1.20053e-07
1.20044e-07
1.20033e-07
1.20043e-07
1.20047e-07
1.20067e-07
1.20079e-07
1.20105e-07
1.2012e-07
1.20148e-07
1.20165e-07
1.20193e-07
1.20211e-07
1.20239e-07
1.20257e-07
1.20283e-07
1.203e-07
1.20325e-07
1.20341e-07
1.20365e-07
1.2038e-07
1.20402e-07
1.20417e-07
1.20438e-07
1.20451e-07
1.2047e-07
1.20482e-07
1.205e-07
1.20512e-07
1.20528e-07
1.2054e-07
1.20557e-07
1.20566e-07
1.20581e-07
1.20591e-07
1.20605e-07
1.20615e-07
1.20626e-07
1.20635e-07
1.20645e-07
1.20654e-07
1.20663e-07
1.20673e-07
1.20682e-07
1.20692e-07
1.20698e-07
1.2071e-07
1.20715e-07
1.20723e-07
1.20724e-07
1.20733e-07
1.20736e-07
1.2074e-07
1.20742e-07
1.20738e-07
1.20745e-07
1.20751e-07
1.20759e-07
1.20762e-07
1.20766e-07
1.20771e-07
1.20776e-07
1.20788e-07
1.20802e-07
1.20822e-07
1.20834e-07
1.20855e-07
1.20867e-07
1.20888e-07
1.20901e-07
1.20921e-07
1.2093e-07
1.20947e-07
1.20956e-07
1.20971e-07
1.20983e-07
1.20996e-07
1.21009e-07
1.21024e-07
1.21037e-07
1.21045e-07
1.21079e-07
1.22314e-07
1.25576e-07
1.65485e-08
1.23958e-07
1.23005e-07
1.222e-07
1.21561e-07
1.21092e-07
1.20744e-07
1.20506e-07
1.2033e-07
1.20217e-07
1.20131e-07
1.20086e-07
1.20048e-07
1.20039e-07
1.20028e-07
1.20038e-07
1.20041e-07
1.20061e-07
1.20073e-07
1.20098e-07
1.20114e-07
1.20141e-07
1.20159e-07
1.20187e-07
1.20205e-07
1.20233e-07
1.2025e-07
1.20277e-07
1.20294e-07
1.20319e-07
1.20335e-07
1.20359e-07
1.20373e-07
1.20396e-07
1.2041e-07
1.20432e-07
1.20444e-07
1.20463e-07
1.20475e-07
1.20494e-07
1.20506e-07
1.20521e-07
1.20534e-07
1.2055e-07
1.20559e-07
1.20574e-07
1.20585e-07
1.20599e-07
1.20609e-07
1.2062e-07
1.20628e-07
1.20639e-07
1.20647e-07
1.20657e-07
1.20667e-07
1.20676e-07
1.20686e-07
1.20691e-07
1.20704e-07
1.20708e-07
1.20717e-07
1.20718e-07
1.20727e-07
1.2073e-07
1.20734e-07
1.20736e-07
1.20732e-07
1.20739e-07
1.20745e-07
1.20752e-07
1.20756e-07
1.2076e-07
1.20765e-07
1.2077e-07
1.20782e-07
1.20795e-07
1.20815e-07
1.20827e-07
1.20849e-07
1.2086e-07
1.20881e-07
1.20895e-07
1.20914e-07
1.20923e-07
1.2094e-07
1.2095e-07
1.20965e-07
1.20976e-07
1.20989e-07
1.21002e-07
1.21017e-07
1.21031e-07
1.21039e-07
1.21073e-07
1.22331e-07
1.25577e-07
1.73012e-08
1.23959e-07
1.23005e-07
1.222e-07
1.2156e-07
1.2109e-07
1.20742e-07
1.20503e-07
1.20326e-07
1.20213e-07
1.20126e-07
1.2008e-07
1.20042e-07
1.20033e-07
1.20021e-07
1.20031e-07
1.20034e-07
1.20055e-07
1.20066e-07
1.20092e-07
1.20107e-07
1.20134e-07
1.20151e-07
1.2018e-07
1.20198e-07
1.20225e-07
1.20243e-07
1.20269e-07
1.20286e-07
1.20311e-07
1.20327e-07
1.20351e-07
1.20366e-07
1.20388e-07
1.20403e-07
1.20424e-07
1.20437e-07
1.20456e-07
1.20468e-07
1.20487e-07
1.20499e-07
1.20514e-07
1.20526e-07
1.20543e-07
1.20552e-07
1.20567e-07
1.20578e-07
1.20592e-07
1.20601e-07
1.20613e-07
1.20621e-07
1.20632e-07
1.2064e-07
1.2065e-07
1.2066e-07
1.20669e-07
1.20679e-07
1.20684e-07
1.20697e-07
1.20701e-07
1.2071e-07
1.20711e-07
1.2072e-07
1.20723e-07
1.20727e-07
1.20729e-07
1.20725e-07
1.20732e-07
1.20738e-07
1.20745e-07
1.20749e-07
1.20753e-07
1.20758e-07
1.20763e-07
1.20775e-07
1.20788e-07
1.20808e-07
1.2082e-07
1.20841e-07
1.20852e-07
1.20874e-07
1.20887e-07
1.20907e-07
1.20916e-07
1.20933e-07
1.20942e-07
1.20957e-07
1.20969e-07
1.20982e-07
1.20995e-07
1.2101e-07
1.21024e-07
1.21031e-07
1.21066e-07
1.22351e-07
1.25579e-07
1.8099e-08
1.23959e-07
1.23005e-07
1.222e-07
1.21559e-07
1.21088e-07
1.20739e-07
1.20499e-07
1.20321e-07
1.20208e-07
1.20121e-07
1.20074e-07
1.20036e-07
1.20026e-07
1.20014e-07
1.20024e-07
1.20027e-07
1.20047e-07
1.20058e-07
1.20084e-07
1.20099e-07
1.20126e-07
1.20143e-07
1.20172e-07
1.20189e-07
1.20217e-07
1.20235e-07
1.20261e-07
1.20278e-07
1.20303e-07
1.20319e-07
1.20343e-07
1.20358e-07
1.2038e-07
1.20395e-07
1.20416e-07
1.20429e-07
1.20448e-07
1.2046e-07
1.20479e-07
1.2049e-07
1.20506e-07
1.20518e-07
1.20535e-07
1.20544e-07
1.20559e-07
1.2057e-07
1.20584e-07
1.20593e-07
1.20605e-07
1.20613e-07
1.20624e-07
1.20632e-07
1.20642e-07
1.20652e-07
1.20661e-07
1.20671e-07
1.20676e-07
1.20689e-07
1.20693e-07
1.20702e-07
1.20703e-07
1.20712e-07
1.20715e-07
1.20719e-07
1.20721e-07
1.20718e-07
1.20725e-07
1.20731e-07
1.20738e-07
1.20741e-07
1.20746e-07
1.2075e-07
1.20755e-07
1.20767e-07
1.2078e-07
1.208e-07
1.20812e-07
1.20833e-07
1.20844e-07
1.20865e-07
1.20879e-07
1.20898e-07
1.20907e-07
1.20925e-07
1.20934e-07
1.20949e-07
1.20961e-07
1.20974e-07
1.20987e-07
1.21002e-07
1.21015e-07
1.21023e-07
1.21059e-07
1.22374e-07
1.25581e-07
1.8941e-08
1.23959e-07
1.23005e-07
1.222e-07
1.21558e-07
1.21086e-07
1.20736e-07
1.20495e-07
1.20316e-07
1.20202e-07
1.20114e-07
1.20068e-07
1.20029e-07
1.20018e-07
1.20006e-07
1.20016e-07
1.20019e-07
1.20039e-07
1.2005e-07
1.20075e-07
1.2009e-07
1.20118e-07
1.20135e-07
1.20163e-07
1.20181e-07
1.20208e-07
1.20226e-07
1.20252e-07
1.20269e-07
1.20294e-07
1.2031e-07
1.20334e-07
1.20349e-07
1.20371e-07
1.20386e-07
1.20407e-07
1.2042e-07
1.20439e-07
1.20451e-07
1.2047e-07
1.20482e-07
1.20497e-07
1.20509e-07
1.20526e-07
1.20535e-07
1.2055e-07
1.20561e-07
1.20575e-07
1.20585e-07
1.20596e-07
1.20604e-07
1.20615e-07
1.20623e-07
1.20633e-07
1.20643e-07
1.20652e-07
1.20662e-07
1.20668e-07
1.2068e-07
1.20685e-07
1.20694e-07
1.20695e-07
1.20704e-07
1.20706e-07
1.20711e-07
1.20713e-07
1.20709e-07
1.20716e-07
1.20722e-07
1.20729e-07
1.20733e-07
1.20737e-07
1.20742e-07
1.20747e-07
1.20758e-07
1.20771e-07
1.2079e-07
1.20803e-07
1.20824e-07
1.20835e-07
1.20856e-07
1.20869e-07
1.20889e-07
1.20898e-07
1.20916e-07
1.20925e-07
1.2094e-07
1.20952e-07
1.20965e-07
1.20978e-07
1.20993e-07
1.21006e-07
1.21014e-07
1.2105e-07
1.224e-07
1.25583e-07
1.98264e-08
1.23959e-07
1.23005e-07
1.222e-07
1.21557e-07
1.21084e-07
1.20733e-07
1.20491e-07
1.20311e-07
1.20196e-07
1.20108e-07
1.2006e-07
1.20021e-07
1.2001e-07
1.19998e-07
1.20007e-07
1.2001e-07
1.2003e-07
1.2004e-07
1.20066e-07
1.2008e-07
1.20108e-07
1.20125e-07
1.20153e-07
1.20171e-07
1.20198e-07
1.20216e-07
1.20242e-07
1.20259e-07
1.20284e-07
1.203e-07
1.20325e-07
1.20339e-07
1.20361e-07
1.20376e-07
1.20397e-07
1.2041e-07
1.20429e-07
1.20441e-07
1.2046e-07
1.20472e-07
1.20487e-07
1.205e-07
1.20516e-07
1.20525e-07
1.20541e-07
1.20551e-07
1.20565e-07
1.20575e-07
1.20586e-07
1.20595e-07
1.20605e-07
1.20614e-07
1.20624e-07
1.20633e-07
1.20642e-07
1.20653e-07
1.20658e-07
1.20671e-07
1.20675e-07
1.20684e-07
1.20685e-07
1.20694e-07
1.20697e-07
1.20702e-07
1.20703e-07
1.207e-07
1.20707e-07
1.20713e-07
1.2072e-07
1.20724e-07
1.20728e-07
1.20732e-07
1.20737e-07
1.20748e-07
1.20762e-07
1.2078e-07
1.20793e-07
1.20814e-07
1.20825e-07
1.20846e-07
1.20859e-07
1.20879e-07
1.20888e-07
1.20906e-07
1.20915e-07
1.20931e-07
1.20942e-07
1.20955e-07
1.20968e-07
1.20983e-07
1.20996e-07
1.21004e-07
1.21041e-07
1.2243e-07
1.25585e-07
2.07576e-08
1.23959e-07
1.23006e-07
1.222e-07
1.21556e-07
1.21082e-07
1.20729e-07
1.20486e-07
1.20305e-07
1.20189e-07
1.201e-07
1.20052e-07
1.20012e-07
1.20001e-07
1.19989e-07
1.19998e-07
1.2e-07
1.2002e-07
1.2003e-07
1.20055e-07
1.2007e-07
1.20098e-07
1.20114e-07
1.20143e-07
1.2016e-07
1.20188e-07
1.20205e-07
1.20232e-07
1.20249e-07
1.20274e-07
1.2029e-07
1.20314e-07
1.20328e-07
1.20351e-07
1.20365e-07
1.20387e-07
1.204e-07
1.20418e-07
1.20431e-07
1.20449e-07
1.20461e-07
1.20477e-07
1.20489e-07
1.20506e-07
1.20515e-07
1.2053e-07
1.2054e-07
1.20555e-07
1.20564e-07
1.20576e-07
1.20584e-07
1.20595e-07
1.20603e-07
1.20613e-07
1.20623e-07
1.20632e-07
1.20642e-07
1.20648e-07
1.2066e-07
1.20665e-07
1.20674e-07
1.20675e-07
1.20684e-07
1.20687e-07
1.20691e-07
1.20693e-07
1.2069e-07
1.20697e-07
1.20703e-07
1.2071e-07
1.20714e-07
1.20718e-07
1.20722e-07
1.20727e-07
1.20738e-07
1.20751e-07
1.2077e-07
1.20782e-07
1.20803e-07
1.20814e-07
1.20835e-07
1.20848e-07
1.20868e-07
1.20878e-07
1.20895e-07
1.20904e-07
1.2092e-07
1.20931e-07
1.20945e-07
1.20957e-07
1.20973e-07
1.20986e-07
1.20994e-07
1.21031e-07
1.22463e-07
1.25587e-07
2.17376e-08
1.23959e-07
1.23006e-07
1.22199e-07
1.21555e-07
1.21079e-07
1.20725e-07
1.20481e-07
1.20299e-07
1.20182e-07
1.20092e-07
1.20044e-07
1.20003e-07
1.19992e-07
1.19979e-07
1.19987e-07
1.19989e-07
1.20009e-07
1.20019e-07
1.20044e-07
1.20059e-07
1.20086e-07
1.20103e-07
1.20131e-07
1.20148e-07
1.20176e-07
1.20194e-07
1.2022e-07
1.20237e-07
1.20262e-07
1.20278e-07
1.20302e-07
1.20317e-07
1.20339e-07
1.20354e-07
1.20375e-07
1.20388e-07
1.20407e-07
1.20419e-07
1.20438e-07
1.2045e-07
1.20465e-07
1.20477e-07
1.20494e-07
1.20503e-07
1.20518e-07
1.20529e-07
1.20543e-07
1.20553e-07
1.20564e-07
1.20573e-07
1.20584e-07
1.20592e-07
1.20602e-07
1.20612e-07
1.20621e-07
1.20631e-07
1.20637e-07
1.20649e-07
1.20654e-07
1.20663e-07
1.20664e-07
1.20673e-07
1.20676e-07
1.2068e-07
1.20682e-07
1.20679e-07
1.20686e-07
1.20692e-07
1.20699e-07
1.20703e-07
1.20707e-07
1.20711e-07
1.20716e-07
1.20726e-07
1.20739e-07
1.20758e-07
1.2077e-07
1.20791e-07
1.20802e-07
1.20823e-07
1.20836e-07
1.20856e-07
1.20866e-07
1.20883e-07
1.20893e-07
1.20908e-07
1.2092e-07
1.20933e-07
1.20946e-07
1.20961e-07
1.20974e-07
1.20982e-07
1.2102e-07
1.225e-07
1.25587e-07
2.27695e-08
1.23959e-07
1.23006e-07
1.22199e-07
1.21553e-07
1.21077e-07
1.20721e-07
1.20476e-07
1.20292e-07
1.20174e-07
1.20084e-07
1.20034e-07
1.19993e-07
1.19981e-07
1.19968e-07
1.19976e-07
1.19978e-07
1.19997e-07
1.20007e-07
1.20032e-07
1.20047e-07
1.20074e-07
1.2009e-07
1.20119e-07
1.20136e-07
1.20164e-07
1.20181e-07
1.20207e-07
1.20224e-07
1.20249e-07
1.20265e-07
1.20289e-07
1.20304e-07
1.20326e-07
1.20341e-07
1.20362e-07
1.20375e-07
1.20394e-07
1.20407e-07
1.20425e-07
1.20437e-07
1.20453e-07
1.20465e-07
1.20482e-07
1.20491e-07
1.20506e-07
1.20517e-07
1.20531e-07
1.20541e-07
1.20552e-07
1.20561e-07
1.20571e-07
1.2058e-07
1.2059e-07
1.20599e-07
1.20608e-07
1.20619e-07
1.20624e-07
1.20637e-07
1.20642e-07
1.20651e-07
1.20652e-07
1.20661e-07
1.20664e-07
1.20668e-07
1.20671e-07
1.20667e-07
1.20674e-07
1.2068e-07
1.20687e-07
1.20691e-07
1.20695e-07
1.20699e-07
1.20704e-07
1.20714e-07
1.20727e-07
1.20745e-07
1.20758e-07
1.20778e-07
1.20789e-07
1.2081e-07
1.20823e-07
1.20843e-07
1.20853e-07
1.20871e-07
1.2088e-07
1.20896e-07
1.20907e-07
1.20921e-07
1.20933e-07
1.20949e-07
1.20961e-07
1.2097e-07
1.21009e-07
1.22542e-07
1.25587e-07
2.38565e-08
1.23959e-07
1.23006e-07
1.22199e-07
1.21552e-07
1.21074e-07
1.20716e-07
1.2047e-07
1.20285e-07
1.20166e-07
1.20074e-07
1.20024e-07
1.19983e-07
1.1997e-07
1.19956e-07
1.19964e-07
1.19965e-07
1.19984e-07
1.19994e-07
1.20019e-07
1.20033e-07
1.20061e-07
1.20077e-07
1.20105e-07
1.20122e-07
1.2015e-07
1.20167e-07
1.20194e-07
1.20211e-07
1.20236e-07
1.20252e-07
1.20276e-07
1.2029e-07
1.20313e-07
1.20327e-07
1.20349e-07
1.20362e-07
1.20381e-07
1.20393e-07
1.20412e-07
1.20424e-07
1.20439e-07
1.20451e-07
1.20468e-07
1.20478e-07
1.20493e-07
1.20503e-07
1.20517e-07
1.20527e-07
1.20539e-07
1.20548e-07
1.20558e-07
1.20567e-07
1.20577e-07
1.20586e-07
1.20595e-07
1.20606e-07
1.20611e-07
1.20624e-07
1.20629e-07
1.20638e-07
1.20639e-07
1.20648e-07
1.20651e-07
1.20655e-07
1.20658e-07
1.20655e-07
1.20661e-07
1.20667e-07
1.20674e-07
1.20678e-07
1.20682e-07
1.20687e-07
1.20691e-07
1.20701e-07
1.20714e-07
1.20731e-07
1.20744e-07
1.20764e-07
1.20775e-07
1.20796e-07
1.20809e-07
1.20829e-07
1.20839e-07
1.20857e-07
1.20866e-07
1.20882e-07
1.20893e-07
1.20907e-07
1.2092e-07
1.20936e-07
1.20948e-07
1.20956e-07
1.20996e-07
1.22587e-07
1.25585e-07
2.50019e-08
1.23959e-07
1.23006e-07
1.22199e-07
1.2155e-07
1.21071e-07
1.20712e-07
1.20463e-07
1.20277e-07
1.20157e-07
1.20064e-07
1.20013e-07
1.19971e-07
1.19958e-07
1.19943e-07
1.19951e-07
1.19952e-07
1.19971e-07
1.19981e-07
1.20005e-07
1.20019e-07
1.20047e-07
1.20063e-07
1.20091e-07
1.20108e-07
1.20136e-07
1.20153e-07
1.20179e-07
1.20196e-07
1.20221e-07
1.20237e-07
1.20261e-07
1.20276e-07
1.20298e-07
1.20313e-07
1.20334e-07
1.20347e-07
1.20366e-07
1.20379e-07
1.20397e-07
1.20409e-07
1.20425e-07
1.20437e-07
1.20454e-07
1.20463e-07
1.20478e-07
1.20489e-07
1.20503e-07
1.20513e-07
1.20525e-07
1.20533e-07
1.20544e-07
1.20553e-07
1.20562e-07
1.20572e-07
1.20581e-07
1.20592e-07
1.20597e-07
1.2061e-07
1.20615e-07
1.20624e-07
1.20625e-07
1.20634e-07
1.20637e-07
1.20642e-07
1.20644e-07
1.20641e-07
1.20647e-07
1.20653e-07
1.2066e-07
1.20664e-07
1.20669e-07
1.20673e-07
1.20677e-07
1.20687e-07
1.207e-07
1.20717e-07
1.2073e-07
1.20749e-07
1.20761e-07
1.20781e-07
1.20794e-07
1.20814e-07
1.20825e-07
1.20842e-07
1.20852e-07
1.20868e-07
1.20879e-07
1.20893e-07
1.20905e-07
1.20922e-07
1.20933e-07
1.20942e-07
1.20983e-07
1.22636e-07
1.25581e-07
2.62094e-08
1.23959e-07
1.23007e-07
1.22198e-07
1.21549e-07
1.21067e-07
1.20707e-07
1.20457e-07
1.20269e-07
1.20148e-07
1.20054e-07
1.20002e-07
1.19959e-07
1.19945e-07
1.1993e-07
1.19937e-07
1.19938e-07
1.19957e-07
1.19966e-07
1.1999e-07
1.20004e-07
1.20031e-07
1.20048e-07
1.20076e-07
1.20093e-07
1.2012e-07
1.20137e-07
1.20164e-07
1.20181e-07
1.20206e-07
1.20221e-07
1.20246e-07
1.2026e-07
1.20283e-07
1.20297e-07
1.20319e-07
1.20332e-07
1.20351e-07
1.20363e-07
1.20382e-07
1.20394e-07
1.2041e-07
1.20422e-07
1.20439e-07
1.20448e-07
1.20463e-07
1.20474e-07
1.20488e-07
1.20498e-07
1.20509e-07
1.20518e-07
1.20529e-07
1.20537e-07
1.20547e-07
1.20557e-07
1.20566e-07
1.20577e-07
1.20582e-07
1.20595e-07
1.206e-07
1.20609e-07
1.2061e-07
1.20619e-07
1.20622e-07
1.20627e-07
1.2063e-07
1.20627e-07
1.20633e-07
1.20639e-07
1.20646e-07
1.2065e-07
1.20654e-07
1.20658e-07
1.20663e-07
1.20672e-07
1.20685e-07
1.20701e-07
1.20714e-07
1.20734e-07
1.20745e-07
1.20766e-07
1.20778e-07
1.20798e-07
1.20809e-07
1.20827e-07
1.20836e-07
1.20853e-07
1.20863e-07
1.20878e-07
1.2089e-07
1.20906e-07
1.20918e-07
1.20926e-07
1.20969e-07
1.2269e-07
1.2064e-07
2.74826e-08
1.23959e-07
1.23007e-07
1.22198e-07
1.21547e-07
1.21064e-07
1.20701e-07
1.2045e-07
1.2026e-07
1.20138e-07
1.20043e-07
1.1999e-07
1.19946e-07
1.19931e-07
1.19916e-07
1.19923e-07
1.19923e-07
1.19941e-07
1.1995e-07
1.19975e-07
1.19988e-07
1.20015e-07
1.20031e-07
1.20059e-07
1.20076e-07
1.20104e-07
1.20121e-07
1.20147e-07
1.20164e-07
1.20189e-07
1.20205e-07
1.20229e-07
1.20244e-07
1.20266e-07
1.20281e-07
1.20302e-07
1.20315e-07
1.20334e-07
1.20347e-07
1.20365e-07
1.20377e-07
1.20393e-07
1.20405e-07
1.20422e-07
1.20432e-07
1.20447e-07
1.20457e-07
1.20472e-07
1.20482e-07
1.20493e-07
1.20502e-07
1.20513e-07
1.20521e-07
1.20531e-07
1.20541e-07
1.2055e-07
1.2056e-07
1.20566e-07
1.20579e-07
1.20584e-07
1.20593e-07
1.20595e-07
1.20603e-07
1.20607e-07
1.20611e-07
1.20614e-07
1.20611e-07
1.20617e-07
1.20623e-07
1.2063e-07
1.20634e-07
1.20639e-07
1.20643e-07
1.20647e-07
1.20656e-07
1.20668e-07
1.20684e-07
1.20698e-07
1.20717e-07
1.20728e-07
1.20749e-07
1.20761e-07
1.20781e-07
1.20792e-07
1.2081e-07
1.20819e-07
1.20836e-07
1.20847e-07
1.20861e-07
1.20873e-07
1.2089e-07
1.20901e-07
1.2091e-07
1.20954e-07
1.22747e-07
1.14529e-07
2.88252e-08
1.23959e-07
1.23007e-07
1.22198e-07
1.21546e-07
1.2106e-07
1.20696e-07
1.20442e-07
1.20251e-07
1.20127e-07
1.20031e-07
1.19977e-07
1.19932e-07
1.19917e-07
1.19901e-07
1.19907e-07
1.19907e-07
1.19925e-07
1.19934e-07
1.19958e-07
1.19971e-07
1.19998e-07
1.20014e-07
1.20042e-07
1.20059e-07
1.20086e-07
1.20103e-07
1.2013e-07
1.20146e-07
1.20172e-07
1.20187e-07
1.20212e-07
1.20226e-07
1.20249e-07
1.20263e-07
1.20285e-07
1.20298e-07
1.20317e-07
1.20329e-07
1.20348e-07
1.2036e-07
1.20376e-07
1.20388e-07
1.20405e-07
1.20414e-07
1.20429e-07
1.2044e-07
1.20454e-07
1.20464e-07
1.20476e-07
1.20485e-07
1.20496e-07
1.20504e-07
1.20514e-07
1.20524e-07
1.20533e-07
1.20543e-07
1.20549e-07
1.20562e-07
1.20567e-07
1.20576e-07
1.20578e-07
1.20587e-07
1.2059e-07
1.20595e-07
1.20598e-07
1.20595e-07
1.20601e-07
1.20606e-07
1.20613e-07
1.20618e-07
1.20622e-07
1.20626e-07
1.20631e-07
1.20639e-07
1.20651e-07
1.20667e-07
1.2068e-07
1.20699e-07
1.20711e-07
1.20731e-07
1.20743e-07
1.20763e-07
1.20774e-07
1.20792e-07
1.20802e-07
1.20819e-07
1.20829e-07
1.20844e-07
1.20855e-07
1.20873e-07
1.20883e-07
1.20892e-07
1.20938e-07
1.22809e-07
1.09062e-07
3.02409e-08
1.23959e-07
1.23008e-07
1.22198e-07
1.21544e-07
1.21057e-07
1.2069e-07
1.20434e-07
1.20242e-07
1.20116e-07
1.20018e-07
1.19963e-07
1.19918e-07
1.19902e-07
1.19885e-07
1.19891e-07
1.1989e-07
1.19908e-07
1.19916e-07
1.1994e-07
1.19953e-07
1.1998e-07
1.19996e-07
1.20023e-07
1.2004e-07
1.20068e-07
1.20085e-07
1.20111e-07
1.20128e-07
1.20153e-07
1.20168e-07
1.20193e-07
1.20207e-07
1.2023e-07
1.20244e-07
1.20266e-07
1.20279e-07
1.20298e-07
1.20311e-07
1.20329e-07
1.20341e-07
1.20357e-07
1.20369e-07
1.20387e-07
1.20396e-07
1.20411e-07
1.20422e-07
1.20436e-07
1.20446e-07
1.20458e-07
1.20467e-07
1.20477e-07
1.20486e-07
1.20496e-07
1.20506e-07
1.20515e-07
1.20525e-07
1.20531e-07
1.20544e-07
1.20549e-07
1.20558e-07
1.2056e-07
1.20569e-07
1.20572e-07
1.20577e-07
1.2058e-07
1.20577e-07
1.20583e-07
1.20589e-07
1.20596e-07
1.206e-07
1.20605e-07
1.20609e-07
1.20614e-07
1.20622e-07
1.20633e-07
1.20648e-07
1.20662e-07
1.2068e-07
1.20692e-07
1.20712e-07
1.20724e-07
1.20744e-07
1.20755e-07
1.20773e-07
1.20783e-07
1.208e-07
1.2081e-07
1.20826e-07
1.20837e-07
1.20854e-07
1.20865e-07
1.20874e-07
1.20921e-07
1.22875e-07
1.04173e-07
3.17335e-08
1.23959e-07
1.23008e-07
1.22197e-07
1.21542e-07
1.21053e-07
1.20684e-07
1.20426e-07
1.20231e-07
1.20104e-07
1.20005e-07
1.19949e-07
1.19902e-07
1.19886e-07
1.19868e-07
1.19873e-07
1.19872e-07
1.19889e-07
1.19897e-07
1.19921e-07
1.19934e-07
1.19961e-07
1.19976e-07
1.20004e-07
1.2002e-07
1.20048e-07
1.20065e-07
1.20091e-07
1.20108e-07
1.20133e-07
1.20149e-07
1.20173e-07
1.20188e-07
1.2021e-07
1.20225e-07
1.20246e-07
1.20259e-07
1.20279e-07
1.20291e-07
1.2031e-07
1.20322e-07
1.20338e-07
1.2035e-07
1.20367e-07
1.20376e-07
1.20392e-07
1.20402e-07
1.20417e-07
1.20427e-07
1.20438e-07
1.20447e-07
1.20458e-07
1.20467e-07
1.20477e-07
1.20487e-07
1.20496e-07
1.20506e-07
1.20512e-07
1.20525e-07
1.2053e-07
1.20539e-07
1.20541e-07
1.2055e-07
1.20553e-07
1.20558e-07
1.20561e-07
1.20559e-07
1.20565e-07
1.2057e-07
1.20577e-07
1.20582e-07
1.20586e-07
1.2059e-07
1.20595e-07
1.20603e-07
1.20614e-07
1.20629e-07
1.20642e-07
1.2066e-07
1.20672e-07
1.20692e-07
1.20704e-07
1.20724e-07
1.20735e-07
1.20753e-07
1.20763e-07
1.2078e-07
1.2079e-07
1.20806e-07
1.20817e-07
1.20835e-07
1.20845e-07
1.20854e-07
1.20903e-07
1.22943e-07
9.97974e-08
3.3306e-08
1.2396e-07
1.23008e-07
1.22197e-07
1.2154e-07
1.21049e-07
1.20677e-07
1.20417e-07
1.20221e-07
1.20092e-07
1.19991e-07
1.19934e-07
1.19886e-07
1.19869e-07
1.1985e-07
1.19855e-07
1.19853e-07
1.1987e-07
1.19878e-07
1.19901e-07
1.19914e-07
1.1994e-07
1.19956e-07
1.19983e-07
1.2e-07
1.20027e-07
1.20044e-07
1.2007e-07
1.20087e-07
1.20112e-07
1.20128e-07
1.20152e-07
1.20167e-07
1.20189e-07
1.20204e-07
1.20225e-07
1.20238e-07
1.20258e-07
1.2027e-07
1.20289e-07
1.20301e-07
1.20317e-07
1.20329e-07
1.20346e-07
1.20356e-07
1.20371e-07
1.20382e-07
1.20396e-07
1.20406e-07
1.20418e-07
1.20427e-07
1.20438e-07
1.20447e-07
1.20457e-07
1.20466e-07
1.20475e-07
1.20486e-07
1.20492e-07
1.20504e-07
1.2051e-07
1.20519e-07
1.20521e-07
1.2053e-07
1.20534e-07
1.20538e-07
1.20542e-07
1.20539e-07
1.20545e-07
1.2055e-07
1.20558e-07
1.20562e-07
1.20567e-07
1.20571e-07
1.20576e-07
1.20583e-07
1.20594e-07
1.20608e-07
1.20622e-07
1.20639e-07
1.20651e-07
1.20671e-07
1.20682e-07
1.20703e-07
1.20713e-07
1.20732e-07
1.20742e-07
1.20759e-07
1.20769e-07
1.20785e-07
1.20796e-07
1.20814e-07
1.20824e-07
1.20833e-07
1.20884e-07
1.23013e-07
9.58835e-08
3.49615e-08
1.2396e-07
1.23009e-07
1.22197e-07
1.21538e-07
1.21045e-07
1.2067e-07
1.20408e-07
1.20209e-07
1.20079e-07
1.19976e-07
1.19918e-07
1.19869e-07
1.19851e-07
1.19831e-07
1.19836e-07
1.19833e-07
1.1985e-07
1.19857e-07
1.1988e-07
1.19893e-07
1.19919e-07
1.19934e-07
1.19962e-07
1.19978e-07
1.20005e-07
1.20022e-07
1.20048e-07
1.20065e-07
1.2009e-07
1.20106e-07
1.2013e-07
1.20144e-07
1.20167e-07
1.20182e-07
1.20203e-07
1.20216e-07
1.20236e-07
1.20248e-07
1.20267e-07
1.20279e-07
1.20295e-07
1.20307e-07
1.20325e-07
1.20334e-07
1.20349e-07
1.2036e-07
1.20374e-07
1.20385e-07
1.20396e-07
1.20405e-07
1.20416e-07
1.20425e-07
1.20435e-07
1.20445e-07
1.20454e-07
1.20465e-07
1.20471e-07
1.20483e-07
1.20488e-07
1.20498e-07
1.205e-07
1.20509e-07
1.20513e-07
1.20517e-07
1.20521e-07
1.20519e-07
1.20524e-07
1.2053e-07
1.20537e-07
1.20541e-07
1.20546e-07
1.2055e-07
1.20555e-07
1.20562e-07
1.20573e-07
1.20586e-07
1.206e-07
1.20616e-07
1.20629e-07
1.20648e-07
1.2066e-07
1.2068e-07
1.20691e-07
1.2071e-07
1.20719e-07
1.20737e-07
1.20747e-07
1.20764e-07
1.20774e-07
1.20793e-07
1.20802e-07
1.20811e-07
1.20864e-07
1.23083e-07
9.23858e-08
3.67019e-08
1.2396e-07
1.23009e-07
1.22197e-07
1.21536e-07
1.2104e-07
1.20663e-07
1.20399e-07
1.20198e-07
1.20065e-07
1.19961e-07
1.19901e-07
1.19851e-07
1.19832e-07
1.19812e-07
1.19815e-07
1.19812e-07
1.19828e-07
1.19835e-07
1.19858e-07
1.1987e-07
1.19896e-07
1.19911e-07
1.19939e-07
1.19955e-07
1.19982e-07
1.19999e-07
1.20025e-07
1.20042e-07
1.20067e-07
1.20082e-07
1.20107e-07
1.20121e-07
1.20144e-07
1.20158e-07
1.2018e-07
1.20193e-07
1.20213e-07
1.20225e-07
1.20244e-07
1.20256e-07
1.20272e-07
1.20284e-07
1.20302e-07
1.20311e-07
1.20326e-07
1.20337e-07
1.20352e-07
1.20362e-07
1.20374e-07
1.20383e-07
1.20394e-07