/*--------------------------------*- C++ -*----------------------------------*\
| =========                 |                                                 |
| \\      /  F ield         | OpenFOAM: The Open Source CFD Toolbox           |
|  \\    /   O peration     | Version:  v2012                                 |
|   \\  /    A nd           | Website:  www.openfoam.com                      |
|    \\/     M anipulation  |                                                 |
\*---------------------------------------------------------------------------*/
FoamFile
{
    version     2.0;
    format      ascii;
    class       volScalarField;
    location    "38.5";
    object      omega;
}
// * * * * * * * * * * * * * * * * * * * * * * * * * * * * * * * * * * * * * //

dimensions      [0 0 -1 0 0 0 0];


internalField   nonuniform List<scalar> 
209825
(
8261.38
7566.77
6999.86
6550.79
6200.16
5926.84
5711.23
5539.26
5399.53
5284.98
5189.26
5109.04
5040.44
4981.99
4931.03
4887.08
4848.13
4814.24
4783.76
4757.09
4732.76
4711.4
4691.67
4674.31
4658.07
4643.81
4630.29
4618.43
4607.04
4597.12
4587.45
4579.06
4570.79
4563.66
4556.52
4550.44
4544.27
4539.05
4533.67
4529.16
4524.5
4520.58
4516.46
4513.11
4509.5
4506.56
4503.37
4500.79
4498.03
4495.78
4493.38
4491.48
4489.4
4487.62
4485.82
4484.29
4482.7
4481.34
4479.94
4478.83
4477.7
4476.75
4475.71
4475
4474.09
4473.45
4472.63
4472.15
4471.5
4471.16
4470.59
4470.3
4469.79
4469.53
4469.01
4468.75
4468.32
4468.14
4467.78
4467.67
4467.39
4467.44
4467.39
4467.59
4467.59
4467.99
4467.99
4468.64
4468.64
4469.44
4469.44
4470.51
4471.17
4501.06
4614.18
113276
8261.38
7566.77
6999.86
6550.79
6200.14
5926.81
5711.19
5539.21
5399.47
5284.91
5189.19
5108.95
5040.36
4981.89
4930.94
4886.98
4848.03
4814.13
4783.65
4756.97
4732.64
4711.29
4691.55
4674.19
4657.94
4643.68
4630.16
4618.3
4606.91
4596.99
4587.31
4578.93
4570.65
4563.52
4556.38
4550.31
4544.14
4538.91
4533.53
4529.03
4524.36
4520.44
4516.32
4512.97
4509.36
4506.42
4503.23
4500.65
4497.88
4495.63
4493.23
4491.33
4489.25
4487.47
4485.68
4484.15
4482.56
4481.2
4479.79
4478.69
4477.56
4476.6
4475.57
4474.86
4473.95
4473.3
4472.48
4472
4471.35
4471.02
4470.44
4470.16
4469.64
4469.38
4468.86
4468.6
4468.17
4467.99
4467.64
4467.52
4467.24
4467.29
4467.24
4467.44
4467.44
4467.84
4467.84
4468.49
4468.49
4469.29
4469.29
4470.36
4471.02
4500.96
4614.07
109978
8261.38
7566.78
6999.86
6550.76
6200.07
5926.7
5711.04
5539.03
5399.25
5284.67
5188.92
5108.67
5040.05
4981.57
4930.6
4886.64
4847.67
4813.77
4783.28
4756.59
4732.25
4710.89
4691.14
4673.78
4657.53
4643.26
4629.74
4617.87
4606.48
4596.55
4586.88
4578.49
4570.21
4563.08
4555.94
4549.86
4543.68
4538.46
4533.07
4528.57
4523.9
4519.98
4515.86
4512.51
4508.89
4505.95
4502.76
4500.18
4497.41
4495.16
4492.76
4490.86
4488.78
4487
4485.2
4483.67
4482.08
4480.72
4479.31
4478.21
4477.08
4476.12
4475.09
4474.37
4473.47
4472.82
4472
4471.52
4470.87
4470.53
4469.96
4469.67
4469.15
4468.89
4468.38
4468.11
4467.69
4467.5
4467.15
4467.03
4466.75
4466.8
4466.75
4466.94
4466.94
4467.35
4467.35
4467.99
4467.99
4468.8
4468.8
4469.87
4470.52
4500.58
4613.64
106192
8261.39
7566.79
6999.86
6550.71
6199.96
5926.52
5710.78
5538.71
5398.88
5284.25
5188.47
5108.18
5039.53
4981.02
4930.03
4886.04
4847.06
4813.14
4782.63
4755.93
4731.58
4710.21
4690.45
4673.08
4656.82
4642.54
4629.01
4617.14
4605.74
4595.81
4586.13
4577.74
4569.45
4562.32
4555.17
4549.09
4542.91
4537.68
4532.29
4527.78
4523.11
4519.19
4515.07
4511.71
4508.09
4505.16
4501.96
4499.38
4496.61
4494.36
4491.95
4490.05
4487.97
4486.19
4484.39
4482.85
4481.26
4479.9
4478.49
4477.39
4476.26
4475.3
4474.26
4473.55
4472.64
4471.99
4471.17
4470.69
4470.04
4469.7
4469.13
4468.84
4468.32
4468.06
4467.54
4467.28
4466.85
4466.66
4466.31
4466.2
4465.92
4465.96
4465.91
4466.1
4466.1
4466.51
4466.51
4467.15
4467.15
4467.95
4467.95
4469.02
4469.68
4499.9
4612.91
102299
8261.39
7566.81
6999.85
6550.64
6199.79
5926.25
5710.42
5538.26
5398.36
5283.66
5187.82
5107.48
5038.79
4980.24
4929.21
4885.19
4846.18
4812.24
4781.71
4754.99
4730.62
4709.23
4689.46
4672.08
4655.81
4641.52
4627.98
4616.1
4604.69
4594.75
4585.06
4576.66
4568.37
4561.23
4554.08
4547.99
4541.81
4536.58
4531.18
4526.67
4521.99
4518.07
4513.94
4510.58
4506.96
4504.02
4500.82
4498.23
4495.46
4493.21
4490.8
4488.9
4486.81
4485.03
4483.23
4481.69
4480.1
4478.74
4477.33
4476.22
4475.09
4474.13
4473.09
4472.38
4471.46
4470.82
4469.99
4469.51
4468.86
4468.52
4467.94
4467.66
4467.14
4466.87
4466.36
4466.09
4465.66
4465.48
4465.12
4465
4464.72
4464.77
4464.72
4464.9
4464.9
4465.3
4465.3
4465.94
4465.94
4466.74
4466.74
4467.81
4468.47
4498.92
4611.85
98402.3
8261.39
7566.84
6999.85
6550.54
6199.57
5925.9
5709.95
5537.68
5397.67
5282.89
5186.97
5106.57
5037.81
4979.22
4928.15
4884.09
4845.04
4811.07
4780.51
4753.77
4729.38
4707.96
4688.18
4670.77
4654.49
4640.19
4626.63
4614.74
4603.32
4593.36
4583.67
4575.26
4566.96
4559.81
4552.65
4546.56
4540.37
4535.13
4529.73
4525.21
4520.53
4516.6
4512.47
4509.1
4505.48
4502.53
4499.33
4496.74
4493.97
4491.71
4489.3
4487.39
4485.31
4483.52
4481.72
4480.18
4478.58
4477.22
4475.81
4474.7
4473.56
4472.6
4471.56
4470.84
4469.93
4469.28
4468.46
4467.98
4467.32
4466.98
4466.4
4466.11
4465.59
4465.33
4464.81
4464.55
4464.11
4463.93
4463.57
4463.45
4463.17
4463.21
4463.16
4463.34
4463.34
4463.73
4463.73
4464.37
4464.37
4465.16
4465.16
4466.23
4466.9
4497.64
4610.48
94543.5
8261.39
7566.87
6999.85
6550.43
6199.3
5925.47
5709.36
5536.95
5396.82
5281.93
5185.92
5105.44
5036.61
4977.96
4926.83
4882.72
4843.63
4809.62
4779.03
4752.25
4727.83
4706.39
4686.58
4669.16
4652.85
4638.53
4624.96
4613.05
4601.62
4591.65
4581.94
4573.52
4565.21
4558.05
4550.89
4544.78
4538.58
4533.34
4527.93
4523.41
4518.72
4514.78
4510.65
4507.28
4503.65
4500.7
4497.49
4494.9
4492.12
4489.86
4487.44
4485.53
4483.44
4481.65
4479.84
4478.3
4476.71
4475.34
4473.92
4472.81
4471.67
4470.71
4469.67
4468.95
4468.03
4467.38
4466.55
4466.07
4465.41
4465.07
4464.49
4464.2
4463.68
4463.41
4462.9
4462.63
4462.2
4462.01
4461.65
4461.53
4461.25
4461.28
4461.22
4461.4
4461.4
4461.79
4461.79
4462.42
4462.42
4463.21
4463.21
4464.27
4464.95
4496.06
4608.79
90740.8
8261.4
7566.91
6999.84
6550.29
6198.98
5924.96
5708.66
5536.08
5395.81
5280.79
5184.67
5104.09
5035.18
4976.45
4925.25
4881.09
4841.95
4807.89
4777.25
4750.44
4725.98
4704.52
4684.68
4667.22
4650.89
4636.56
4622.96
4611.04
4599.59
4589.6
4579.88
4571.45
4563.12
4555.95
4548.77
4542.66
4536.45
4531.2
4525.78
4521.25
4516.55
4512.61
4508.47
4505.09
4501.46
4498.5
4495.29
4492.69
4489.9
4487.64
4485.22
4483.3
4481.21
4479.42
4477.6
4476.06
4474.46
4473.09
4471.67
4470.55
4469.41
4468.45
4467.4
4466.68
4465.76
4465.11
4464.28
4463.79
4463.13
4462.79
4462.2
4461.91
4461.39
4461.12
4460.6
4460.34
4459.9
4459.71
4459.35
4459.23
4458.94
4458.97
4458.91
4459.08
4459.08
4459.47
4459.47
4460.09
4460.09
4460.87
4460.87
4461.94
4462.62
4494.17
4606.77
87003
8261.4
7566.96
6999.84
6550.13
6198.61
5924.36
5707.85
5535.08
5394.63
5279.46
5183.21
5102.51
5033.51
4974.69
4923.41
4879.18
4839.98
4805.86
4775.18
4748.32
4723.83
4702.33
4682.45
4664.97
4648.61
4634.25
4620.63
4608.69
4597.22
4587.22
4577.47
4569.03
4560.69
4553.5
4546.31
4540.18
4533.96
4528.7
4523.27
4518.73
4514.03
4510.08
4505.93
4502.54
4498.9
4495.94
4492.71
4490.11
4487.32
4485.05
4482.63
4480.7
4478.6
4476.81
4474.99
4473.44
4471.84
4470.46
4469.04
4467.92
4466.77
4465.81
4464.75
4464.03
4463.11
4462.45
4461.62
4461.13
4460.46
4460.12
4459.54
4459.24
4458.72
4458.45
4457.93
4457.66
4457.22
4457.03
4456.67
4456.54
4456.26
4456.28
4456.21
4456.38
4456.38
4456.75
4456.76
4457.37
4457.37
4458.15
4458.15
4459.21
4459.9
4491.97
4604.43
83332.9
8261.41
7567.01
6999.83
6549.95
6198.19
5923.68
5706.92
5533.92
5393.28
5277.94
5181.54
5100.71
5031.59
4972.67
4921.31
4877
4837.73
4803.55
4772.81
4745.9
4721.36
4699.82
4679.9
4662.39
4646
4631.61
4617.96
4605.99
4594.5
4584.48
4574.72
4566.25
4557.89
4550.7
4543.49
4537.35
4531.11
4525.84
4520.4
4515.85
4511.13
4507.17
4503.01
4499.62
4495.97
4493
4489.77
4487.16
4484.36
4482.08
4479.65
4477.72
4475.62
4473.82
4471.99
4470.44
4468.83
4467.45
4466.02
4464.9
4463.75
4462.78
4461.72
4460.99
4460.07
4459.41
4458.57
4458.08
4457.41
4457.06
4456.48
4456.18
4455.66
4455.39
4454.86
4454.59
4454.15
4453.95
4453.59
4453.46
4453.18
4453.19
4453.12
4453.28
4453.28
4453.65
4453.65
4454.25
4454.25
4455.02
4455.02
4456.08
4456.78
4489.46
4601.77
79728.7
8261.42
7567.07
6999.83
6549.75
6197.72
5922.91
5705.87
5532.63
5391.76
5276.23
5179.65
5098.68
5029.43
4970.4
4918.94
4874.54
4835.18
4800.94
4770.13
4743.17
4718.57
4696.98
4677.03
4659.47
4643.05
4628.62
4614.95
4602.95
4591.43
4581.38
4571.6
4563.11
4554.74
4547.52
4540.3
4534.14
4527.89
4522.6
4517.15
4512.59
4507.86
4503.89
4499.72
4496.31
4492.65
4489.67
4486.44
4483.82
4481.01
4478.73
4476.29
4474.36
4472.24
4470.44
4468.61
4467.05
4465.43
4464.05
4462.62
4461.49
4460.33
4459.36
4458.29
4457.56
4456.63
4455.97
4455.13
4454.64
4453.96
4453.61
4453.02
4452.72
4452.19
4451.92
4451.4
4451.12
4450.68
4450.48
4450.11
4449.98
4449.7
4449.7
4449.62
4449.78
4449.77
4450.13
4450.13
4450.73
4450.73
4451.49
4451.49
4452.54
4453.25
4486.63
4598.77
76184.6
8261.42
7567.14
6999.83
6549.53
6197.19
5922.06
5704.71
5531.18
5390.07
5274.32
5177.56
5096.42
5027.02
4967.86
4916.29
4871.79
4832.35
4798.02
4767.14
4740.11
4715.46
4693.82
4673.82
4656.22
4639.75
4625.29
4611.58
4599.55
4588
4577.93
4568.12
4559.61
4551.21
4543.98
4536.73
4530.56
4524.29
4518.99
4513.52
4508.95
4504.2
4500.22
4496.04
4492.62
4488.95
4485.96
4482.72
4480.09
4477.28
4474.99
4472.54
4470.59
4468.47
4466.66
4464.82
4463.26
4461.64
4460.25
4458.81
4457.68
4456.51
4455.54
4454.47
4453.73
4452.8
4452.13
4451.29
4450.79
4450.11
4449.75
4449.16
4448.86
4448.33
4448.05
4447.53
4447.25
4446.8
4446.6
4446.23
4446.1
4445.81
4445.81
4445.71
4445.86
4445.86
4446.21
4446.21
4446.79
4446.79
4447.54
4447.54
4448.59
4449.32
4483.47
4595.46
72696.7
8261.43
7567.21
6999.82
6549.29
6196.61
5921.12
5703.43
5529.59
5388.21
5272.21
5175.24
5093.92
5024.36
4965.06
4913.36
4868.75
4829.21
4794.8
4763.84
4736.74
4712.02
4690.32
4670.26
4652.62
4636.11
4621.6
4607.86
4595.79
4584.21
4574.11
4564.27
4555.74
4547.31
4540.06
4532.79
4526.6
4520.31
4514.99
4509.51
4504.92
4500.16
4496.16
4491.97
4488.54
4484.86
4481.86
4478.6
4475.96
4473.14
4470.84
4468.38
4466.43
4464.3
4462.48
4460.64
4459.07
4457.44
4456.05
4454.6
4453.46
4452.28
4451.3
4450.23
4449.49
4448.55
4447.88
4447.03
4446.53
4445.84
4445.48
4444.88
4444.58
4444.05
4443.77
4443.24
4442.96
4442.51
4442.3
4441.93
4441.79
4441.5
4441.49
4441.39
4441.53
4441.52
4441.86
4441.86
4442.44
4442.44
4443.17
4443.17
4444.22
4444.96
4479.98
4591.81
69271.3
8261.44
7567.29
6999.82
6549.02
6195.98
5920.1
5702.03
5527.85
5386.16
5269.91
5172.7
5091.18
5021.44
4961.99
4910.15
4865.42
4825.77
4791.26
4760.21
4733.04
4708.25
4686.48
4666.36
4648.67
4632.1
4617.56
4603.77
4591.67
4580.05
4569.92
4560.05
4551.48
4543.03
4535.75
4528.46
4522.25
4515.94
4510.6
4505.1
4500.49
4495.72
4491.71
4487.5
4484.06
4480.36
4477.35
4474.08
4471.43
4468.6
4466.29
4463.82
4461.86
4459.72
4457.89
4456.04
4454.47
4452.82
4451.43
4449.97
4448.83
4447.64
4446.66
4445.58
4444.83
4443.88
4443.21
4442.35
4441.85
4441.15
4440.79
4440.19
4439.88
4439.34
4439.07
4438.53
4438.25
4437.79
4437.58
4437.21
4437.07
4436.78
4436.76
4436.64
4436.78
4436.76
4437.09
4437.09
4437.65
4437.65
4438.37
4438.38
4439.42
4440.18
4476.16
4587.85
65914.6
8261.45
7567.37
6999.82
6548.74
6195.3
5919
5700.52
5525.97
5383.94
5267.4
5169.94
5088.2
5018.27
4958.65
4906.66
4861.79
4822.02
4787.41
4756.26
4729
4704.13
4682.3
4662.12
4644.36
4627.74
4613.15
4599.31
4587.17
4575.51
4565.34
4555.44
4546.85
4538.36
4531.06
4523.74
4517.5
4511.17
4505.82
4500.29
4495.66
4490.87
4486.85
4482.62
4479.17
4475.45
4472.43
4469.15
4466.49
4463.64
4461.32
4458.84
4456.87
4454.72
4452.89
4451.02
4449.44
4447.79
4446.39
4444.92
4443.77
4442.58
4441.59
4440.5
4439.75
4438.79
4438.12
4437.25
4436.74
4436.04
4435.67
4435.06
4434.75
4434.21
4433.93
4433.4
4433.11
4432.65
4432.44
4432.05
4431.91
4431.62
4431.59
4431.46
4431.59
4431.57
4431.88
4431.88
4432.43
4432.43
4433.14
4433.14
4434.18
4434.96
4471.99
4583.55
62632.3
8261.46
7567.47
6999.82
6548.44
6194.57
5917.8
5698.88
5523.93
5381.55
5264.69
5166.96
5084.98
5014.84
4955.03
4902.87
4857.86
4817.96
4783.23
4751.98
4724.63
4699.68
4677.76
4657.51
4639.69
4623.01
4608.37
4594.48
4582.29
4570.59
4560.38
4550.44
4541.82
4533.3
4525.97
4518.62
4512.36
4506
4500.62
4495.08
4490.43
4485.62
4481.58
4477.33
4473.86
4470.13
4467.09
4463.8
4461.13
4458.26
4455.93
4453.44
4451.46
4449.3
4447.46
4445.58
4443.99
4442.33
4440.92
4439.45
4438.29
4437.08
4436.09
4434.99
4434.23
4433.27
4432.59
4431.72
4431.2
4430.49
4430.12
4429.51
4429.19
4428.65
4428.36
4427.82
4427.53
4427.07
4426.85
4426.46
4426.32
4426.02
4425.98
4425.84
4425.96
4425.93
4426.23
4426.23
4426.77
4426.77
4427.46
4427.46
4428.5
4429.3
4467.46
4578.93
59429.5
8261.47
7567.57
6999.82
6548.11
6193.79
5916.53
5697.12
5521.73
5378.97
5261.77
5163.74
5081.51
5011.14
4951.13
4898.8
4853.63
4813.59
4778.73
4747.37
4719.92
4694.87
4672.87
4652.54
4634.65
4617.91
4603.21
4589.26
4577.03
4565.28
4555.03
4545.05
4536.39
4527.84
4520.47
4513.09
4506.81
4500.42
4495.02
4489.45
4484.78
4479.95
4475.89
4471.62
4468.13
4464.39
4461.34
4458.02
4455.34
4452.46
4450.12
4447.61
4445.61
4443.45
4441.59
4439.7
4438.11
4436.44
4435.02
4433.53
4432.36
4431.15
4430.15
4429.04
4428.28
4427.31
4426.62
4425.74
4425.22
4424.51
4424.13
4423.51
4423.19
4422.64
4422.35
4421.81
4421.51
4421.04
4420.82
4420.43
4420.28
4419.97
4419.92
4419.77
4419.88
4419.85
4420.13
4420.13
4420.65
4420.65
4421.33
4421.33
4422.36
4423.19
4462.57
4574
56311.1
8261.47
7567.67
6999.83
6547.77
6192.96
5915.17
5695.25
5519.39
5376.21
5258.65
5160.3
5077.78
5007.17
4946.95
4894.42
4849.09
4808.89
4773.9
4742.42
4714.85
4689.71
4667.62
4647.21
4629.25
4612.43
4597.67
4583.66
4571.38
4559.58
4549.28
4539.26
4530.56
4521.97
4514.57
4507.16
4500.84
4494.43
4489
4483.4
4478.71
4473.85
4469.77
4465.48
4461.98
4458.21
4455.15
4451.82
4449.12
4446.22
4443.87
4441.34
4439.34
4437.15
4435.29
4433.39
4431.78
4430.1
4428.68
4427.18
4426
4424.78
4423.77
4422.65
4421.88
4420.9
4420.21
4419.32
4418.79
4418.07
4417.68
4417.05
4416.73
4416.18
4415.89
4415.34
4415.04
4414.56
4414.33
4413.94
4413.78
4413.47
4413.42
4413.25
4413.35
4413.31
4413.57
4413.57
4414.08
4414.08
4414.74
4414.74
4415.76
4416.62
4457.31
4568.74
53281.5
8261.48
7567.79
6999.83
6547.42
6192.08
5913.72
5693.26
5516.9
5373.27
5255.32
5156.63
5073.81
5002.93
4942.48
4889.75
4844.23
4803.88
4768.74
4737.12
4709.44
4684.19
4662.01
4641.5
4623.46
4606.57
4591.74
4577.67
4565.33
4553.47
4543.13
4533.06
4524.32
4515.69
4508.25
4500.8
4494.45
4488.01
4482.55
4476.93
4472.21
4467.33
4463.23
4458.91
4455.39
4451.6
4448.52
4445.17
4442.45
4439.54
4437.17
4434.63
4432.61
4430.42
4428.54
4426.63
4425.01
4423.32
4421.88
4420.37
4419.19
4417.95
4416.94
4415.8
4415.02
4414.04
4413.34
4412.44
4411.91
4411.17
4410.78
4410.15
4409.82
4409.26
4408.96
4408.41
4408.11
4407.62
4407.39
4406.99
4406.83
4406.51
4406.45
4406.27
4406.35
4406.3
4406.55
4406.55
4407.04
4407.04
4407.68
4407.68
4408.7
4409.58
4451.65
4563.16
50345
8261.49
7567.91
6999.84
6547.04
6191.16
5912.19
5691.14
5514.25
5370.15
5251.78
5152.73
5069.59
4998.43
4937.73
4884.78
4839.07
4798.53
4763.24
4731.48
4703.68
4678.3
4656.02
4635.42
4617.29
4600.33
4585.42
4571.28
4558.88
4546.97
4536.57
4526.45
4517.66
4508.99
4501.51
4494.03
4487.64
4481.16
4475.68
4470.02
4465.28
4460.37
4456.24
4451.91
4448.36
4444.55
4441.45
4438.08
4435.35
4432.42
4430.03
4427.48
4425.44
4423.23
4421.35
4419.41
4417.79
4416.08
4414.64
4413.11
4411.91
4410.67
4409.64
4408.5
4407.71
4406.71
4406.01
4405.1
4404.56
4403.82
4403.42
4402.77
4402.44
4401.87
4401.58
4401.02
4400.71
4400.22
4399.98
4399.57
4399.4
4399.09
4399.01
4398.81
4398.89
4398.83
4399.06
4399.06
4399.52
4399.53
4400.15
4400.15
4401.16
4402.08
4445.59
4557.26
47505.3
8261.5
7568.03
6999.85
6546.65
6190.18
5910.58
5688.91
5511.46
5366.85
5248.04
5148.59
5065.11
4993.65
4932.68
4879.5
4833.58
4792.86
4757.4
4725.49
4697.55
4672.06
4649.66
4628.96
4610.74
4593.69
4578.7
4564.49
4552.02
4540.05
4529.6
4519.42
4510.58
4501.86
4494.35
4486.82
4480.4
4473.88
4468.36
4462.68
4457.9
4452.96
4448.81
4444.45
4440.88
4437.05
4433.93
4430.54
4427.79
4424.84
4422.44
4419.86
4417.81
4415.58
4413.69
4411.74
4410.1
4408.38
4406.92
4405.39
4404.18
4402.92
4401.89
4400.73
4399.93
4398.92
4398.21
4397.3
4396.74
4395.99
4395.58
4394.93
4394.59
4394.02
4393.71
4393.15
4392.84
4392.34
4392.1
4391.68
4391.5
4391.18
4391.1
4390.89
4390.95
4390.88
4391.09
4391.09
4391.53
4391.53
4392.13
4392.13
4393.14
4394.09
4439.11
4550.99
44765.7
8261.51
7568.16
6999.87
6546.24
6189.16
5908.89
5686.56
5508.51
5363.36
5244.08
5144.22
5060.38
4988.59
4927.35
4873.91
4827.77
4786.85
4751.22
4719.15
4691.06
4665.44
4642.92
4622.11
4603.8
4586.65
4571.58
4557.3
4544.76
4532.71
4522.2
4511.97
4503.08
4494.31
4486.75
4479.18
4472.72
4466.16
4460.61
4454.89
4450.08
4445.11
4440.94
4436.55
4432.95
4429.1
4425.95
4422.54
4419.77
4416.8
4414.38
4411.78
4409.72
4407.47
4405.56
4403.6
4401.95
4400.21
4398.74
4397.19
4395.97
4394.69
4393.66
4392.48
4391.68
4390.66
4389.94
4389.01
4388.45
4387.68
4387.27
4386.61
4386.26
4385.68
4385.38
4384.81
4384.49
4383.98
4383.73
4383.3
4383.12
4382.79
4382.7
4382.48
4382.52
4382.44
4382.64
4382.63
4383.05
4383.05
4383.63
4383.63
4384.63
4385.62
4432.19
4544.34
42129.5
8261.52
7568.3
6999.89
6545.82
6188.1
5907.12
5684.1
5505.41
5359.7
5239.92
5139.61
5055.39
4983.26
4921.72
4868.01
4821.64
4780.51
4744.69
4712.45
4684.21
4658.44
4635.81
4614.87
4596.46
4579.21
4564.06
4549.69
4537.08
4524.96
4514.39
4504.09
4495.15
4486.32
4478.72
4471.1
4464.59
4458
4452.41
4446.65
4441.81
4436.81
4432.6
4428.18
4424.57
4420.68
4417.51
4414.08
4411.29
4408.3
4405.86
4403.24
4401.15
4398.89
4396.97
4394.98
4393.32
4391.56
4390.09
4388.52
4387.29
4385.99
4384.95
4383.76
4382.94
4381.91
4381.18
4380.24
4379.67
4378.9
4378.47
4377.8
4377.45
4376.86
4376.55
4375.97
4375.65
4375.14
4374.88
4374.44
4374.26
4373.92
4373.82
4373.58
4373.61
4373.52
4373.7
4373.68
4374.08
4374.08
4374.63
4374.63
4375.62
4376.66
4424.8
4537.27
39599.3
8261.52
7568.45
6999.91
6545.38
6186.99
5905.26
5681.52
5502.16
5355.85
5235.54
5134.77
5050.14
4977.66
4915.79
4861.81
4815.18
4773.83
4737.81
4705.38
4676.99
4651.07
4628.3
4607.25
4588.72
4571.37
4556.12
4541.66
4528.97
4516.78
4506.14
4495.78
4486.78
4477.9
4470.24
4462.57
4456.02
4449.38
4443.75
4437.95
4433.08
4428.04
4423.81
4419.36
4415.71
4411.8
4408.61
4405.15
4402.33
4399.32
4396.86
4394.22
4392.11
4389.83
4387.89
4385.89
4384.21
4382.44
4380.95
4379.37
4378.12
4376.81
4375.75
4374.55
4373.72
4372.67
4371.94
4370.99
4370.41
4369.62
4369.19
4368.51
4368.14
4367.55
4367.23
4366.65
4366.32
4365.8
4365.53
4365.09
4364.89
4364.54
4364.43
4364.18
4364.2
4364.09
4364.25
4364.23
4364.61
4364.61
4365.13
4365.13
4366.11
4367.19
4416.92
4529.75
37177.5
8261.53
7568.6
6999.94
6544.94
6185.84
5903.34
5678.83
5498.76
5351.82
5230.96
5129.69
5044.63
4971.77
4909.57
4855.29
4808.4
4766.8
4730.58
4697.96
4669.39
4643.31
4620.4
4599.22
4580.57
4563.11
4547.77
4533.22
4520.44
4508.17
4497.46
4487.03
4477.97
4469.02
4461.31
4453.59
4447
4440.31
4434.64
4428.8
4423.89
4418.81
4414.55
4410.06
4406.39
4402.45
4399.23
4395.74
4392.9
4389.86
4387.38
4384.72
4382.59
4380.29
4378.33
4376.31
4374.62
4372.82
4371.33
4369.72
4368.46
4367.13
4366.07
4364.85
4364
4362.94
4362.2
4361.24
4360.65
4359.84
4359.4
4358.71
4358.34
4357.74
4357.41
4356.82
4356.49
4355.96
4355.68
4355.23
4355.03
4354.67
4354.55
4354.29
4354.28
4354.16
4354.31
4354.27
4354.63
4354.63
4355.13
4355.12
4356.09
4357.22
4408.52
4521.75
34866.1
8261.54
7568.76
6999.97
6544.48
6184.65
5901.33
5676.02
5495.22
5347.61
5226.16
5124.38
5038.87
4965.6
4903.05
4848.45
4801.29
4759.44
4722.99
4690.17
4661.42
4635.17
4612.12
4590.79
4572.02
4554.45
4539
4524.35
4511.49
4499.13
4488.34
4477.83
4468.71
4459.7
4451.94
4444.15
4437.51
4430.78
4425.06
4419.18
4414.23
4409.11
4404.82
4400.29
4396.59
4392.61
4389.37
4385.85
4382.99
4379.92
4377.42
4374.73
4372.58
4370.26
4368.28
4366.24
4364.53
4362.72
4361.21
4359.58
4358.31
4356.96
4355.88
4354.64
4353.79
4352.72
4351.96
4350.99
4350.38
4349.57
4349.12
4348.41
4348.03
4347.42
4347.09
4346.49
4346.15
4345.61
4345.32
4344.86
4344.65
4344.28
4344.16
4343.88
4343.86
4343.72
4343.85
4343.8
4344.13
4344.13
4344.6
4344.6
4345.56
4346.74
4399.56
4513.22
32666.9
8261.54
7568.92
7000.01
6544.01
6183.42
5899.25
5673.1
5491.53
5343.22
5221.16
5118.84
5032.85
4959.16
4896.24
4841.3
4793.85
4751.73
4715.04
4682.01
4653.07
4626.65
4603.44
4581.96
4563.06
4545.36
4529.81
4515.05
4502.1
4489.65
4478.78
4468.19
4459
4449.93
4442.1
4434.26
4427.57
4420.78
4415.02
4409.08
4404.1
4398.94
4394.6
4390.04
4386.3
4382.3
4379.02
4375.48
4372.59
4369.49
4366.96
4364.25
4362.08
4359.73
4357.74
4355.67
4353.94
4352.11
4350.59
4348.94
4347.65
4346.28
4345.19
4343.94
4343.07
4341.98
4341.22
4340.23
4339.61
4338.78
4338.32
4337.6
4337.21
4336.59
4336.25
4335.65
4335.3
4334.75
4334.46
4333.98
4333.76
4333.38
4333.25
4332.96
4332.92
4332.76
4332.87
4332.81
4333.12
4333.12
4333.56
4333.56
4334.51
4335.73
4390.02
4504.13
30581.5
8261.55
7569.09
7000.05
6543.53
6182.15
5897.1
5670.08
5487.7
5338.66
5215.95
5113.06
5026.57
4952.43
4889.12
4833.83
4786.07
4743.68
4706.74
4673.48
4644.34
4617.73
4594.35
4572.73
4553.69
4535.86
4520.19
4505.32
4492.27
4479.72
4468.77
4458.11
4448.84
4439.69
4431.8
4423.9
4417.15
4410.3
4404.5
4398.52
4393.49
4388.28
4383.91
4379.31
4375.54
4371.49
4368.19
4364.61
4361.69
4358.57
4356.02
4353.27
4351.08
4348.7
4346.69
4344.6
4342.86
4341
4339.46
4337.8
4336.49
4335.1
4334
4332.72
4331.84
4330.73
4329.96
4328.95
4328.33
4327.48
4327.01
4326.28
4325.88
4325.25
4324.9
4324.29
4323.93
4323.37
4323.07
4322.58
4322.35
4321.96
4321.81
4321.52
4321.46
4321.29
4321.37
4321.3
4321.58
4321.58
4321.99
4321.98
4322.92
4324.2
4379.85
4494.43
28611.2
8261.55
7569.27
7000.1
6543.04
6180.85
5894.88
5666.95
5483.72
5333.92
5210.54
5107.04
5020.03
4945.42
4881.7
4826.05
4777.96
4735.27
4698.08
4664.58
4635.23
4608.43
4584.87
4563.08
4543.9
4525.93
4510.14
4495.16
4482
4469.36
4458.32
4447.56
4438.22
4429
4421.04
4413.07
4406.27
4399.36
4393.5
4387.47
4382.39
4377.14
4372.73
4368.09
4364.28
4360.2
4356.86
4353.25
4350.3
4347.14
4344.57
4341.79
4339.57
4337.17
4335.14
4333.02
4331.26
4329.38
4327.83
4326.14
4324.82
4323.4
4322.29
4320.99
4320.1
4318.97
4318.19
4317.16
4316.52
4315.66
4315.17
4314.43
4314.02
4313.38
4313.02
4312.4
4312.03
4311.46
4311.15
4310.65
4310.41
4310.01
4309.86
4309.55
4309.48
4309.28
4309.35
4309.26
4309.51
4309.51
4309.89
4309.88
4310.81
4312.13
4369.02
4484.1
26757.2
8261.55
7569.45
7000.16
6542.54
6179.51
5892.59
5663.71
5479.6
5329.01
5204.92
5100.8
5013.23
4938.14
4873.99
4817.95
4769.52
4726.53
4689.06
4655.31
4625.73
4598.73
4574.99
4553.03
4533.7
4515.58
4499.66
4484.55
4471.29
4458.54
4447.41
4436.56
4427.14
4417.84
4409.81
4401.77
4394.9
4387.94
4382.02
4375.94
4370.81
4365.51
4361.06
4356.37
4352.52
4348.4
4345.03
4341.39
4338.41
4335.22
4332.61
4329.81
4327.56
4325.13
4323.08
4320.93
4319.15
4317.25
4315.67
4313.97
4312.63
4311.19
4310.06
4308.74
4307.83
4306.68
4305.89
4304.85
4304.19
4303.31
4302.81
4302.06
4301.64
4300.98
4300.62
4299.99
4299.61
4299.03
4298.71
4298.2
4297.95
4297.53
4297.36
4297.04
4296.96
4296.74
4296.78
4296.68
4296.91
4296.9
4297.25
4297.23
4298.15
4299.53
4357.54
4473.07
25020.5
8261.56
7569.63
7000.22
6542.04
6178.15
5890.24
5660.38
5475.35
5323.93
5199.1
5094.32
5006.18
4930.58
4865.98
4809.53
4760.75
4717.43
4679.68
4645.66
4615.86
4588.63
4564.7
4542.56
4523.07
4504.81
4488.75
4473.51
4460.13
4447.27
4436.04
4425.1
4415.59
4406.21
4398.11
4390
4383.06
4376.03
4370.06
4363.92
4358.74
4353.39
4348.89
4344.16
4340.27
4336.11
4332.7
4329.02
4326.01
4322.78
4320.14
4317.31
4315.03
4312.57
4310.5
4308.33
4306.52
4304.59
4303
4301.27
4299.91
4298.45
4297.3
4295.96
4295.04
4293.87
4293.06
4292
4291.34
4290.44
4289.92
4289.15
4288.72
4288.05
4287.68
4287.04
4286.65
4286.06
4285.73
4285.2
4284.94
4284.51
4284.33
4284
4283.9
4283.66
4283.69
4283.56
4283.76
4283.75
4284.07
4284.05
4284.95
4286.38
4345.4
4461.32
23402
8261.56
7569.82
7000.29
6541.53
6176.75
5887.83
5656.94
5470.97
5318.68
5193.08
5087.62
4998.88
4922.74
4857.67
4800.8
4751.64
4707.98
4669.93
4635.64
4605.59
4578.14
4554.01
4531.68
4512.02
4493.6
4477.4
4462.03
4448.53
4435.55
4424.22
4413.18
4403.58
4394.11
4385.93
4377.74
4370.74
4363.64
4357.61
4351.4
4346.18
4340.77
4336.23
4331.44
4327.51
4323.3
4319.86
4316.14
4313.09
4309.83
4307.16
4304.29
4301.99
4299.5
4297.4
4295.2
4293.37
4291.42
4289.81
4288.05
4286.67
4285.18
4284.02
4282.66
4281.71
4280.53
4279.7
4278.62
4277.94
4277.03
4276.5
4275.71
4275.27
4274.59
4274.2
4273.55
4273.16
4272.55
4272.2
4271.67
4271.39
4270.95
4270.76
4270.41
4270.3
4270.05
4270.04
4269.9
4270.07
4270.06
4270.34
4270.31
4271.2
4272.68
4332.6
4448.81
21897.8
8261.55
7570.02
7000.37
6541.03
6175.33
5885.35
5653.41
5466.45
5313.26
5186.87
5080.69
4991.33
4914.63
4849.06
4791.75
4742.2
4698.19
4659.82
4625.25
4594.94
4567.25
4542.91
4520.39
4500.55
4481.96
4465.61
4450.1
4436.47
4423.38
4411.94
4400.79
4391.1
4381.53
4373.27
4365
4357.93
4350.76
4344.67
4338.4
4333.12
4327.65
4323.06
4318.22
4314.25
4309.99
4306.51
4302.75
4299.67
4296.36
4293.67
4290.76
4288.42
4285.9
4283.78
4281.54
4279.7
4277.71
4276.08
4274.3
4272.9
4271.38
4270.2
4268.82
4267.85
4266.65
4265.81
4264.71
4264.01
4263.08
4262.53
4261.73
4261.27
4260.58
4260.18
4259.52
4259.11
4258.49
4258.14
4257.59
4257.3
4256.84
4256.64
4256.27
4256.15
4255.88
4255.85
4255.69
4255.83
4255.81
4256.07
4256.02
4256.9
4258.43
4319.14
4435.49
20503.3
8261.55
7570.22
7000.45
6540.52
6173.88
5882.82
5649.79
5461.81
5307.68
5180.46
5073.54
4983.52
4906.24
4840.16
4782.39
4732.44
4688.05
4649.36
4614.48
4583.91
4555.97
4531.41
4508.67
4488.65
4469.89
4453.39
4437.72
4423.97
4410.74
4399.19
4387.93
4378.14
4368.48
4360.14
4351.78
4344.63
4337.39
4331.23
4324.89
4319.55
4314.03
4309.38
4304.5
4300.47
4296.17
4292.65
4288.84
4285.72
4282.38
4279.65
4276.7
4274.33
4271.78
4269.63
4267.36
4265.49
4263.47
4261.82
4260.01
4258.59
4257.04
4255.85
4254.44
4253.45
4252.22
4251.37
4250.25
4249.54
4248.58
4248.02
4247.2
4246.73
4246.02
4245.62
4244.94
4244.52
4243.89
4243.52
4242.95
4242.66
4242.18
4241.97
4241.58
4241.44
4241.16
4241.11
4240.92
4241.04
4241.01
4241.23
4241.17
4242.04
4243.61
4305.01
4421.35
19213.5
8261.55
7570.42
7000.54
6540.01
6172.41
5880.24
5646.09
5457.04
5301.95
5173.86
5066.18
4975.48
4897.59
4830.97
4772.72
4722.34
4677.57
4638.53
4603.34
4572.49
4544.29
4519.5
4496.55
4476.33
4457.39
4440.72
4424.9
4411.01
4397.65
4385.98
4374.6
4364.72
4354.95
4346.52
4338.07
4330.85
4323.52
4317.3
4310.89
4305.49
4299.9
4295.2
4290.26
4286.19
4281.83
4278.27
4274.41
4271.26
4267.87
4265.11
4262.12
4259.72
4257.13
4254.95
4252.65
4250.75
4248.7
4247.03
4245.19
4243.75
4242.17
4240.96
4239.52
4238.51
4237.26
4236.39
4235.25
4234.52
4233.54
4232.97
4232.12
4231.64
4230.91
4230.5
4229.81
4229.38
4228.73
4228.35
4227.77
4227.46
4226.97
4226.74
4226.34
4226.18
4225.88
4225.81
4225.59
4225.69
4225.64
4225.84
4225.76
4226.62
4228.23
4290.21
4406.34
18023.2
8261.54
7570.63
7000.65
6539.5
6170.92
5877.61
5642.3
5452.16
5296.06
5167.08
5058.59
4967.19
4888.67
4821.5
4762.74
4711.92
4666.74
4627.35
4591.83
4560.68
4532.21
4507.18
4484
4463.59
4444.45
4427.62
4411.64
4397.6
4384.1
4372.3
4360.81
4350.81
4340.94
4332.42
4323.88
4316.57
4309.16
4302.86
4296.39
4290.92
4285.26
4280.51
4275.51
4271.39
4266.98
4263.37
4259.47
4256.27
4252.84
4250.04
4247.01
4244.57
4241.94
4239.74
4237.4
4235.48
4233.39
4231.7
4229.83
4228.36
4226.75
4225.52
4224.05
4223.03
4221.75
4220.86
4219.7
4218.95
4217.95
4217.36
4216.49
4216
4215.25
4214.83
4214.12
4213.68
4213.01
4212.63
4212.03
4211.7
4211.2
4210.95
4210.53
4210.36
4210.04
4209.96
4209.71
4209.78
4209.72
4209.89
4209.78
4210.63
4212.27
4274.74
4390.44
16927
8261.53
7570.84
7000.76
6538.99
6169.42
5874.94
5638.43
5447.16
5290.03
5160.11
5050.8
4958.66
4879.48
4811.73
4752.46
4701.17
4655.58
4615.81
4579.94
4548.49
4519.74
4494.46
4471.05
4450.42
4431.09
4414.07
4397.92
4383.74
4370.09
4358.16
4346.54
4336.43
4326.45
4317.83
4309.19
4301.8
4294.31
4287.93
4281.38
4275.85
4270.12
4265.31
4260.24
4256.07
4251.61
4247.94
4244
4240.76
4237.28
4234.44
4231.37
4228.89
4226.22
4223.99
4221.61
4219.66
4217.55
4215.83
4213.92
4212.43
4210.79
4209.54
4208.04
4206.99
4205.69
4204.78
4203.6
4202.83
4201.81
4201.2
4200.31
4199.8
4199.04
4198.6
4197.87
4197.43
4196.74
4196.34
4195.72
4195.39
4194.86
4194.6
4194.16
4193.98
4193.64
4193.53
4193.27
4193.31
4193.23
4193.37
4193.24
4194.07
4195.75
4258.59
4373.61
15919.1
8261.52
7571.05
7000.87
6538.49
6167.9
5872.22
5634.48
5442.05
5283.85
5152.98
5042.8
4949.9
4870.04
4801.69
4741.87
4690.1
4644.07
4603.91
4567.69
4535.93
4506.88
4481.34
4457.68
4436.83
4417.29
4400.09
4383.76
4369.42
4355.62
4343.56
4331.8
4321.58
4311.48
4302.76
4294.02
4286.54
4278.95
4272.5
4265.87
4260.27
4254.47
4249.6
4244.46
4240.23
4235.71
4232
4228
4224.72
4221.19
4218.31
4215.19
4212.68
4209.97
4207.7
4205.28
4203.31
4201.15
4199.41
4197.47
4195.96
4194.28
4193
4191.48
4190.41
4189.08
4188.15
4186.94
4186.16
4185.11
4184.48
4183.57
4183.04
4182.26
4181.81
4181.07
4180.61
4179.91
4179.49
4178.86
4178.5
4177.96
4177.69
4177.23
4177.03
4176.67
4176.55
4176.26
4176.27
4176.17
4176.28
4176.12
4176.95
4178.64
4241.75
4355.83
14993.8
8261.51
7571.27
7001
6538
6166.37
5869.47
5630.47
5436.84
5277.53
5145.67
5034.6
4940.91
4860.34
4791.37
4730.98
4678.71
4632.23
4591.67
4555.08
4522.98
4493.63
4467.81
4443.89
4422.82
4403.06
4385.67
4369.16
4354.65
4340.69
4328.49
4316.59
4306.25
4296.03
4287.2
4278.36
4270.78
4263.1
4256.57
4249.85
4244.18
4238.3
4233.37
4228.17
4223.88
4219.3
4215.53
4211.48