/*--------------------------------*- C++ -*----------------------------------*\
| =========                 |                                                 |
| \\      /  F ield         | OpenFOAM: The Open Source CFD Toolbox           |
|  \\    /   O peration     | Version:  v2012                                 |
|   \\  /    A nd           | Website:  www.openfoam.com                      |
|    \\/     M anipulation  |                                                 |
\*---------------------------------------------------------------------------*/
FoamFile
{
    version     2.0;
    format      ascii;
    class       volScalarField;
    location    "38.5";
    object      yPlus;
}
// * * * * * * * * * * * * * * * * * * * * * * * * * * * * * * * * * * * * * //

dimensions      [0 0 0 0 0 0 0];


internalField   uniform 0;

boundaryField
{
    inlet
    {
        type            calculated;
        value           uniform 0;
    }
    outlet
    {
        type            calculated;
        value           uniform 0;
    }
    topWall
    {
        type            calculated;
        value           nonuniform List<scalar> 
545
(
0.111317
0.191943
0.246245
0.28946
0.326047
0.358061
0.386657
0.412564
0.436276
0.458148
0.478447
0.49738
0.515109
0.531768
0.547466
0.562295
0.576335
0.58965
0.602301
0.614337
0.625805
0.636743
0.647187
0.657171
0.666722
0.675867
0.684629
0.693032
0.701094
0.708835
0.716271
0.723418
0.73029
0.736903
0.743267
0.749396
0.755299
0.760988
0.766472
0.77176
0.776862
0.781784
0.786536
0.791123
0.795553
0.799832
0.803967
0.807963
0.811826
0.815561
0.819173
0.822667
0.826047
0.829318
0.832484
0.835548
0.838514
0.841387
0.844169
0.846864
0.849474
0.852004
0.854454
0.85683
0.859132
0.861364
0.863528
0.865626
0.86766
0.869633
0.871547
0.873404
0.875182
0.876902
0.878608
0.880301
0.881981
0.883648
0.885301
0.886941
0.888569
0.890184
0.891786
0.893376
0.894953
0.896519
0.898072
0.899613
0.901142
0.90266
0.904166
0.905661
0.907144
0.908615
0.910076
0.911526
0.912832
0.914
0.915168
0.916336
0.917504
0.918672
0.91984
0.921008
0.922175
0.923342
0.924509
0.925676
0.926843
0.92801
0.929176
0.930342
0.931508
0.932674
0.93384
0.935005
0.93617
0.937335
0.9385
0.939664
0.940828
0.941992
0.943156
0.944319
0.945482
0.946645
0.947807
0.948969
0.950131
0.951292
0.952453
0.953614
0.954774
0.955935
0.957094
0.958254
0.959412
0.960571
0.961729
0.962887
0.964044
0.965201
0.966358
0.967514
0.968669
0.969824
0.970979
0.972133
0.973287
0.97444
0.975593
0.976745
0.977897
0.979048
0.980199
0.981349
0.982498
0.983647
0.984796
0.985943
0.987091
0.988237
0.989383
0.990529
0.991674
0.992818
0.993961
0.995104
0.996246
0.997388
0.998529
0.999669
1.00081
1.00195
1.00309
1.00422
1.00536
1.00649
1.00763
1.00876
1.0099
1.01103
1.01216
1.01329
1.01442
1.01555
1.01668
1.01781
1.01894
1.02006
1.02119
1.02231
1.02343
1.02456
1.02568
1.0268
1.02792
1.02904
1.03015
1.03127
1.03239
1.0335
1.03462
1.03573
1.03684
1.03795
1.03906
1.04017
1.04127
1.04238
1.04349
1.04459
1.04569
1.04679
1.04789
1.04899
1.05009
1.05119
1.05228
1.05338
1.05447
1.05556
1.05666
1.05775
1.05883
1.05992
1.06101
1.06209
1.06317
1.06425
1.06534
1.06641
1.06749
1.06857
1.06964
1.07072
1.07179
1.07286
1.07393
1.07499
1.07606
1.07713
1.07819
1.07925
1.08031
1.08137
1.08243
1.08348
1.08453
1.08559
1.08664
1.08769
1.08873
1.08978
1.09082
1.09186
1.0929
1.09394
1.09498
1.09602
1.09705
1.09808
1.09911
1.10014
1.10117
1.10219
1.10321
1.10423
1.10525
1.10621
1.10712
1.10803
1.10895
1.10988
1.11081
1.11175
1.11269
1.11364
1.1146
1.11556
1.11653
1.11751
1.11849
1.11948
1.12048
1.12148
1.12249
1.1235
1.12452
1.12555
1.12658
1.12762
1.12867
1.12972
1.13077
1.13184
1.13291
1.13398
1.13506
1.13615
1.13724
1.13834
1.13944
1.14055
1.14167
1.14279
1.14392
1.14505
1.14618
1.14733
1.14847
1.14963
1.15078
1.15195
1.15311
1.15429
1.15546
1.15665
1.15783
1.15902
1.16022
1.16142
1.16262
1.16383
1.16504
1.16625
1.16747
1.16869
1.16992
1.17115
1.17238
1.17361
1.17485
1.17609
1.17734
1.17858
1.17983
1.18108
1.18233
1.18358
1.18484
1.18609
1.18735
1.18861
1.18987
1.19113
1.19239
1.19365
1.19491
1.19616
1.19742
1.19868
1.19994
1.2012
1.20245
1.20371
1.20496
1.20621
1.20745
1.2087
1.20994
1.21118
1.21241
1.21364
1.21487
1.21609
1.21731
1.21853
1.21974
1.22094
1.22214
1.22333
1.22451
1.22569
1.22686
1.22803
1.22918
1.23033
1.23147
1.2326
1.23373
1.23484
1.23594
1.23704
1.23812
1.23919
1.24026
1.24131
1.24235
1.24337
1.24439
1.24539
1.24638
1.24735
1.24831
1.24926
1.25019
1.25111
1.25201
1.2529
1.25377
1.25462
1.25546
1.25628
1.25709
1.25787
1.25864
1.25939
1.26012
1.26083
1.26152
1.26219
1.26285
1.26348
1.26409
1.26468
1.26525
1.2658
1.26632
1.26682
1.26731
1.26776
1.2682
1.26861
1.269
1.26937
1.26971
1.27002
1.27032
1.27059
1.27083
1.27105
1.27125
1.27142
1.27156
1.27168
1.27177
1.27184
1.27189
1.2719
1.2719
1.27186
1.2718
1.27172
1.27161
1.27147
1.27131
1.27112
1.27091
1.27067
1.27037
1.27002
1.26963
1.26921
1.26876
1.26829
1.26779
1.26727
1.26673
1.26616
1.26557
1.26497
1.26434
1.2637
1.26305
1.26238
1.26169
1.261
1.26029
1.25957
1.25885
1.25811
1.25737
1.25662
1.25586
1.2551
1.25433
1.25356
1.25279
1.25202
1.25124
1.25046
1.24969
1.24891
1.24813
1.24736
1.24659
1.24582
1.24505
1.24429
1.24353
1.24278
1.24203
1.24129
1.24056
1.23983
1.23911
1.2384
1.23769
1.23699
1.23631
1.23563
1.23496
1.23431
1.23366
1.23302
1.2324
1.23179
1.23119
1.2306
1.23002
1.22946
1.22891
1.22838
1.22786
1.22735
1.22686
1.22638
1.22592
1.22547
1.22504
1.22462
1.22422
1.22384
1.22347
1.22312
1.22278
1.22246
1.22216
1.22188
1.22161
1.22137
1.22114
1.22092
1.22073
1.22055
1.22039
1.22025
1.22013
1.22003
1.21994
1.21987
1.21982
1.2198
1.21978
)
;
    }
    bottomWall
    {
        type            calculated;
        value           nonuniform List<scalar> 
449
(
0.139406
0.0889408
0.0758064
0.0694572
0.0653102
0.0622521
0.0598947
0.058136
0.0570871
0.05714
0.0595402
0.0636016
0.0667147
0.0685385
0.0695208
0.0700443
0.0702912
0.0703585
0.0702951
0.0701609
0.0699754
0.06976
0.0695291
0.0692917
0.0690531
0.0688167
0.0685839
0.0683564
0.068135
0.06792
0.0677115
0.0675095
0.0673138
0.0671243
0.0669407
0.0667625
0.0665896
0.0664219
0.0662592
0.0661011
0.0659476
0.0657983
0.0656531
0.0655117
0.0653741
0.0652399
0.0651091
0.0649815
0.064857
0.0647351
0.0646156
0.0644981
0.0643828
0.0642695
0.0641581
0.0640488
0.0639415
0.063836
0.0637325
0.0636308
0.0635309
0.0634327
0.0633362
0.0632412
0.063148
0.0630562
0.0629659
0.0628771
0.0627897
0.0627036
0.0626188
0.0625352
0.0624529
0.0623718
0.0622918
0.062213
0.0621354
0.0620588
0.0619833
0.0619089
0.0618355
0.061763
0.0616916
0.061621
0.0615515
0.0614827
0.0614149
0.0613479
0.0612817
0.0612164
0.0611518
0.061088
0.0610249
0.0609626
0.060901
0.0608401
0.0607799
0.0607204
0.0606615
0.0606033
0.0605457
0.0604886
0.0604321
0.0603762
0.0603209
0.0602662
0.060212
0.0601583
0.0601052
0.0600526
0.0600005
0.0599489
0.0598978
0.0598472
0.0597971
0.0597474
0.0596981
0.0596494
0.059601
0.0595531
0.0595056
0.0594585
0.0594119
0.0593656
0.0593197
0.0592742
0.0592291
0.0591844
0.05914
0.0590959
0.0590523
0.059009
0.058966
0.0589233
0.058881
0.058839
0.0587973
0.058756
0.0587149
0.0586742
0.0586337
0.0585935
0.0585537
0.0585141
0.0584748
0.0584358
0.058397
0.0583585
0.0583202
0.0582822
0.0582444
0.0582069
0.0581696
0.0581326
0.0580958
0.0580593
0.058023
0.0579869
0.057951
0.0579154
0.05788
0.0578448
0.0578099
0.0577752
0.0577406
0.0577063
0.0576722
0.0576382
0.0576045
0.057571
0.0575377
0.0575045
0.0574716
0.0574407
0.0574116
0.0573824
0.0573531
0.0573237
0.0572942
0.0572645
0.0572348
0.057205
0.0571751
0.0571451
0.0571149
0.0570847
0.0570544
0.057024
0.0569934
0.0569628
0.0569321
0.0569013
0.0568704
0.0568393
0.0568082
0.056777
0.0567457
0.0567143
0.0566829
0.0566513
0.0566196
0.0565879
0.056556
0.0565241
0.056492
0.0564599
0.0564277
0.0563954
0.056363
0.0563306
0.056298
0.0562654
0.0562326
0.0561997
0.0561668
0.0561338
0.0561007
0.0560675
0.0560342
0.0560009
0.0559675
0.055934
0.0559004
0.0558668
0.0558331
0.0557993
0.0557654
0.0557315
0.0556975
0.0556634
0.0556292
0.055595
0.0555607
0.0555264
0.055492
0.0554575
0.0554229
0.0553883
0.0553537
0.0553189
0.0552841
0.0552493
0.0552144
0.0551794
0.0551444
0.0551093
0.0550742
0.055039
0.0550038
0.0549685
0.0549331
0.0548978
0.0548623
0.0548268
0.0547913
0.0547557
0.0547201
0.0546845
0.0546488
0.054613
0.0545772
0.0545414
0.0545056
0.0544697
0.0544337
0.0543978
0.0543618
0.0543258
0.0542897
0.0542536
0.0542175
0.0541814
0.0541452
0.0541089
0.0540727
0.0540364
0.0540001
0.0539638
0.0539274
0.0538911
0.0538547
0.0538183
0.0537819
0.0537455
0.0537091
0.0536726
0.0536362
0.0535997
0.0535633
0.0535268
0.0534904
0.0534539
0.0534175
0.053381
0.0533446
0.0533081
0.0532717
0.0532352
0.0531988
0.0531624
0.053126
0.0530896
0.0530532
0.0530168
0.0529805
0.0529441
0.0529078
0.0528715
0.0528352
0.052799
0.0527627
0.0527265
0.0526903
0.0526541
0.052618
0.0525819
0.0525458
0.0525097
0.0524737
0.0524377
0.0524017
0.0523658
0.0523299
0.052294
0.0522582
0.0522224
0.0521866
0.0521509
0.0521152
0.0520795
0.0520439
0.0520083
0.0519727
0.0519372
0.0519017
0.0518662
0.0518308
0.0517955
0.0517602
0.0517249
0.0516897
0.0516545
0.0516194
0.0515844
0.0515494
0.0515144
0.0514795
0.0514447
0.0514099
0.0513751
0.0513405
0.0513058
0.0512713
0.0512368
0.0511984
0.0511567
0.0511157
0.0510752
0.0510354
0.050996
0.0509573
0.0509191
0.0508814
0.0508443
0.0508077
0.0507715
0.0507359
0.0507007
0.0506661
0.0506318
0.050598
0.0505646
0.0505317
0.0504992
0.0504671
0.0504353
0.050404
0.0503731
0.0503425
0.0503123
0.0502824
0.0502529
0.0502238
0.0501949
0.0501665
0.0501383
0.0501104
0.0500828
0.0500556
0.0500286
0.050002
0.0499755
0.0499494
0.0499236
0.049898
0.0498727
0.0498476
0.0498228
0.0497983
0.0497739
0.0497499
0.049726
0.0497024
0.049679
0.0496559
0.0496329
0.0496103
0.0495877
0.0495655
0.0495433
0.0495215
0.0494998
0.0494783
0.049457
0.0494359
0.0494149
0.0493942
0.0493736
0.0493533
0.0493329
0.049313
0.049293
0.0492734
0.0492537
0.0492344
0.049215
0.0491961
0.0491769
0.0491583
0.0491394
0.0491211
0.0491025
0.0490845
0.0490661
0.0490484
0.0490302
0.0490128
0.0489949
0.0489777
0.04896
0.0489428
0.0489256
0.048908
0.0488922
0.048872
0.0488616
0.0488318
0.0488381
0.0487975
)
;
    }
    symmetry
    {
        type            symmetryPlane;
    }
    frontAndBack
    {
        type            empty;
    }
}


// ************************************************************************* //
