/*--------------------------------*- C++ -*----------------------------------*\
| =========                 |                                                 |
| \\      /  F ield         | OpenFOAM: The Open Source CFD Toolbox           |
|  \\    /   O peration     | Version:  v2012                                 |
|   \\  /    A nd           | Website:  www.openfoam.com                      |
|    \\/     M anipulation  |                                                 |
\*---------------------------------------------------------------------------*/
FoamFile
{
    version     2.0;
    format      ascii;
    class       volScalarField;
    location    "28.5";
    object      nut;
}
// * * * * * * * * * * * * * * * * * * * * * * * * * * * * * * * * * * * * * //

dimensions      [0 2 -1 0 0 0 0];


internalField   nonuniform List<scalar> 
209825
(
1.24989e-07
1.20002e-07
1.12097e-07
1.04321e-07
9.77181e-08
9.23645e-08
8.80073e-08
8.44526e-08
8.14874e-08
7.90121e-08
7.68941e-08
7.50911e-08
7.35161e-08
7.21571e-08
7.09456e-08
6.98914e-08
6.89372e-08
6.81021e-08
6.73354e-08
6.66611e-08
6.60339e-08
6.54819e-08
6.49604e-08
6.45014e-08
6.4064e-08
6.36801e-08
6.33094e-08
6.29827e-08
6.26678e-08
6.23912e-08
6.21178e-08
6.18801e-08
6.16451e-08
6.14424e-08
6.12395e-08
6.10638e-08
6.08848e-08
6.07332e-08
6.05762e-08
6.04435e-08
6.03057e-08
6.01891e-08
6.0068e-08
5.99678e-08
5.98587e-08
5.977e-08
5.96749e-08
5.96005e-08
5.95145e-08
5.94479e-08
5.93804e-08
5.93222e-08
5.92522e-08
5.9201e-08
5.91426e-08
5.91033e-08
5.90443e-08
5.89939e-08
5.89516e-08
5.89022e-08
5.88597e-08
5.88399e-08
5.87977e-08
5.87619e-08
5.87225e-08
5.86889e-08
5.86452e-08
5.86228e-08
5.85836e-08
5.85771e-08
5.85591e-08
5.85616e-08
5.85517e-08
5.85578e-08
5.85479e-08
5.85509e-08
5.85476e-08
5.85506e-08
5.85505e-08
5.85584e-08
5.85629e-08
5.85764e-08
5.85839e-08
5.86001e-08
5.86093e-08
5.86294e-08
5.86407e-08
5.8666e-08
5.86791e-08
5.87098e-08
5.87209e-08
5.87593e-08
5.8753e-08
5.92101e-08
3.49e-06
2.15222e-08
1.24989e-07
1.20003e-07
1.12099e-07
1.04323e-07
9.77203e-08
9.23666e-08
8.80092e-08
8.44542e-08
8.14889e-08
7.90134e-08
7.68952e-08
7.5092e-08
7.35168e-08
7.21577e-08
7.09462e-08
6.98918e-08
6.89375e-08
6.81023e-08
6.73355e-08
6.66611e-08
6.60338e-08
6.54818e-08
6.49602e-08
6.45012e-08
6.40637e-08
6.36797e-08
6.3309e-08
6.29823e-08
6.26673e-08
6.23907e-08
6.21173e-08
6.18796e-08
6.16446e-08
6.14417e-08
6.12389e-08
6.10631e-08
6.08842e-08
6.07325e-08
6.05755e-08
6.04428e-08
6.03049e-08
6.01883e-08
6.00672e-08
5.9967e-08
5.98579e-08
5.97691e-08
5.96741e-08
5.95996e-08
5.95136e-08
5.9447e-08
5.93795e-08
5.93213e-08
5.92513e-08
5.92001e-08
5.91416e-08
5.91023e-08
5.90433e-08
5.89929e-08
5.89506e-08
5.89012e-08
5.88588e-08
5.88389e-08
5.87967e-08
5.87609e-08
5.87215e-08
5.86879e-08
5.86442e-08
5.86218e-08
5.85826e-08
5.8576e-08
5.85581e-08
5.85606e-08
5.85507e-08
5.85567e-08
5.85468e-08
5.85498e-08
5.85465e-08
5.85495e-08
5.85494e-08
5.85573e-08
5.85618e-08
5.85753e-08
5.85828e-08
5.8599e-08
5.86082e-08
5.86283e-08
5.86395e-08
5.86648e-08
5.86779e-08
5.87087e-08
5.87198e-08
5.87581e-08
5.87518e-08
5.92095e-08
3.49062e-06
2.17019e-08
1.24989e-07
1.20007e-07
1.12107e-07
1.04332e-07
9.77292e-08
9.23748e-08
8.80165e-08
8.44607e-08
8.14945e-08
7.90182e-08
7.68993e-08
7.50954e-08
7.35197e-08
7.216e-08
7.0948e-08
6.98931e-08
6.89385e-08
6.81029e-08
6.73358e-08
6.66611e-08
6.60335e-08
6.54813e-08
6.49594e-08
6.45002e-08
6.40626e-08
6.36784e-08
6.33075e-08
6.29806e-08
6.26655e-08
6.23887e-08
6.21152e-08
6.18774e-08
6.16423e-08
6.14394e-08
6.12364e-08
6.10605e-08
6.08815e-08
6.07298e-08
6.05727e-08
6.04399e-08
6.0302e-08
6.01853e-08
6.00641e-08
5.99638e-08
5.98547e-08
5.97659e-08
5.96708e-08
5.95963e-08
5.95102e-08
5.94435e-08
5.93759e-08
5.93178e-08
5.92477e-08
5.91965e-08
5.9138e-08
5.90987e-08
5.90396e-08
5.89892e-08
5.89469e-08
5.88975e-08
5.8855e-08
5.88351e-08
5.87929e-08
5.8757e-08
5.87176e-08
5.8684e-08
5.86403e-08
5.86178e-08
5.85786e-08
5.8572e-08
5.8554e-08
5.85565e-08
5.85465e-08
5.85526e-08
5.85426e-08
5.85456e-08
5.85423e-08
5.85453e-08
5.85452e-08
5.8553e-08
5.85575e-08
5.8571e-08
5.85785e-08
5.85946e-08
5.86038e-08
5.86239e-08
5.86351e-08
5.86603e-08
5.86734e-08
5.87041e-08
5.87152e-08
5.87536e-08
5.87472e-08
5.92061e-08
3.4922e-06
2.19654e-08
1.24989e-07
1.20014e-07
1.12119e-07
1.04347e-07
9.77442e-08
9.23888e-08
8.8029e-08
8.44716e-08
8.1504e-08
7.90263e-08
7.69062e-08
7.51012e-08
7.35244e-08
7.21639e-08
7.0951e-08
6.98955e-08
6.89402e-08
6.8104e-08
6.73363e-08
6.66612e-08
6.60332e-08
6.54805e-08
6.49583e-08
6.44987e-08
6.40607e-08
6.36762e-08
6.33051e-08
6.29779e-08
6.26626e-08
6.23856e-08
6.21119e-08
6.18738e-08
6.16385e-08
6.14354e-08
6.12323e-08
6.10563e-08
6.08771e-08
6.07252e-08
6.0568e-08
6.04351e-08
6.02971e-08
6.01803e-08
6.0059e-08
5.99586e-08
5.98494e-08
5.97605e-08
5.96653e-08
5.95907e-08
5.95045e-08
5.94378e-08
5.93701e-08
5.93119e-08
5.92418e-08
5.91905e-08
5.91319e-08
5.90926e-08
5.90335e-08
5.8983e-08
5.89407e-08
5.88913e-08
5.88487e-08
5.88288e-08
5.87865e-08
5.87507e-08
5.87112e-08
5.86775e-08
5.86339e-08
5.86113e-08
5.8572e-08
5.85653e-08
5.85473e-08
5.85497e-08
5.85397e-08
5.85457e-08
5.85357e-08
5.85386e-08
5.85353e-08
5.85383e-08
5.85381e-08
5.85459e-08
5.85504e-08
5.85638e-08
5.85713e-08
5.85873e-08
5.85965e-08
5.86165e-08
5.86277e-08
5.86529e-08
5.8666e-08
5.86967e-08
5.87077e-08
5.87461e-08
5.87395e-08
5.92005e-08
3.49473e-06
2.22858e-08
1.24989e-07
1.20024e-07
1.12138e-07
1.04368e-07
9.77656e-08
9.24085e-08
8.80466e-08
8.44871e-08
8.15174e-08
7.90378e-08
7.69159e-08
7.51094e-08
7.35313e-08
7.21694e-08
7.09555e-08
6.98989e-08
6.89427e-08
6.81056e-08
6.73372e-08
6.66613e-08
6.60327e-08
6.54794e-08
6.49567e-08
6.44966e-08
6.40582e-08
6.36733e-08
6.33017e-08
6.29742e-08
6.26585e-08
6.23812e-08
6.21072e-08
6.18689e-08
6.16333e-08
6.14299e-08
6.12266e-08
6.10504e-08
6.08709e-08
6.07189e-08
6.05615e-08
6.04284e-08
6.02902e-08
6.01733e-08
6.00518e-08
5.99513e-08
5.9842e-08
5.97529e-08
5.96576e-08
5.95829e-08
5.94967e-08
5.94298e-08
5.9362e-08
5.93037e-08
5.92335e-08
5.91821e-08
5.91235e-08
5.90841e-08
5.9025e-08
5.89744e-08
5.8932e-08
5.88826e-08
5.88399e-08
5.882e-08
5.87776e-08
5.87418e-08
5.87022e-08
5.86686e-08
5.86248e-08
5.86022e-08
5.85628e-08
5.85559e-08
5.85379e-08
5.85402e-08
5.85301e-08
5.8536e-08
5.8526e-08
5.85289e-08
5.85255e-08
5.85284e-08
5.85283e-08
5.8536e-08
5.85404e-08
5.85537e-08
5.85612e-08
5.85772e-08
5.85864e-08
5.86063e-08
5.86175e-08
5.86426e-08
5.86556e-08
5.86862e-08
5.86972e-08
5.87355e-08
5.87289e-08
5.91925e-08
3.49825e-06
2.26535e-08
1.24989e-07
1.20037e-07
1.12161e-07
1.04396e-07
9.77932e-08
9.24341e-08
8.80696e-08
8.45072e-08
8.15348e-08
7.90528e-08
7.69287e-08
7.51201e-08
7.35402e-08
7.21767e-08
7.09613e-08
6.99034e-08
6.89459e-08
6.81078e-08
6.73383e-08
6.66616e-08
6.60321e-08
6.54781e-08
6.49546e-08
6.4494e-08
6.40549e-08
6.36695e-08
6.32974e-08
6.29694e-08
6.26533e-08
6.23756e-08
6.21011e-08
6.18625e-08
6.16265e-08
6.14229e-08
6.12192e-08
6.10427e-08
6.08631e-08
6.07108e-08
6.05531e-08
6.04198e-08
6.02814e-08
6.01643e-08
6.00426e-08
5.99419e-08
5.98324e-08
5.97432e-08
5.96477e-08
5.95729e-08
5.94865e-08
5.94195e-08
5.93516e-08
5.92932e-08
5.92228e-08
5.91714e-08
5.91126e-08
5.90732e-08
5.90139e-08
5.89634e-08
5.89209e-08
5.88714e-08
5.88286e-08
5.88086e-08
5.87661e-08
5.87303e-08
5.86906e-08
5.8657e-08
5.86132e-08
5.85905e-08
5.85509e-08
5.85437e-08
5.85257e-08
5.85279e-08
5.85178e-08
5.85236e-08
5.85135e-08
5.85163e-08
5.85129e-08
5.85157e-08
5.85155e-08
5.85231e-08
5.85275e-08
5.85408e-08
5.85482e-08
5.85641e-08
5.85732e-08
5.85931e-08
5.86042e-08
5.86292e-08
5.86422e-08
5.86727e-08
5.86837e-08
5.87219e-08
5.87151e-08
5.91822e-08
3.50279e-06
2.30653e-08
1.24988e-07
1.20052e-07
1.1219e-07
1.0443e-07
9.78274e-08
9.24658e-08
8.80979e-08
8.45322e-08
8.15565e-08
7.90714e-08
7.69445e-08
7.51335e-08
7.35512e-08
7.21858e-08
7.09685e-08
6.9909e-08
6.895e-08
6.81106e-08
6.73399e-08
6.6662e-08
6.60315e-08
6.54765e-08
6.49522e-08
6.44908e-08
6.4051e-08
6.36648e-08
6.32921e-08
6.29636e-08
6.26469e-08
6.23687e-08
6.20938e-08
6.18547e-08
6.16183e-08
6.14143e-08
6.12102e-08
6.10334e-08
6.08534e-08
6.07008e-08
6.05428e-08
6.04093e-08
6.02706e-08
6.01532e-08
6.00313e-08
5.99304e-08
5.98207e-08
5.97313e-08
5.96356e-08
5.95606e-08
5.9474e-08
5.94069e-08
5.93387e-08
5.92802e-08
5.92097e-08
5.91581e-08
5.90992e-08
5.90598e-08
5.90004e-08
5.89497e-08
5.89072e-08
5.88576e-08
5.88147e-08
5.87946e-08
5.8752e-08
5.87161e-08
5.86764e-08
5.86427e-08
5.85989e-08
5.85761e-08
5.85363e-08
5.85287e-08
5.85108e-08
5.85128e-08
5.85026e-08
5.85083e-08
5.84982e-08
5.85009e-08
5.84974e-08
5.85001e-08
5.84999e-08
5.85073e-08
5.85117e-08
5.85248e-08
5.85322e-08
5.8548e-08
5.85571e-08
5.85768e-08
5.85878e-08
5.86127e-08
5.86257e-08
5.86561e-08
5.8667e-08
5.87052e-08
5.86981e-08
5.91696e-08
3.50837e-06
2.35223e-08
1.24988e-07
1.20071e-07
1.12225e-07
1.04471e-07
9.78682e-08
9.25036e-08
8.81318e-08
8.4562e-08
8.15823e-08
7.90936e-08
7.69635e-08
7.51495e-08
7.35645e-08
7.21967e-08
7.09772e-08
6.99158e-08
6.8955e-08
6.8114e-08
6.73418e-08
6.66626e-08
6.60308e-08
6.54748e-08
6.49494e-08
6.4487e-08
6.40463e-08
6.36594e-08
6.32859e-08
6.29567e-08
6.26393e-08
6.23605e-08
6.2085e-08
6.18454e-08
6.16085e-08
6.1404e-08
6.11995e-08
6.10223e-08
6.08419e-08
6.0689e-08
6.05306e-08
6.03967e-08
6.02577e-08
6.01401e-08
6.00179e-08
5.99168e-08
5.98068e-08
5.97172e-08
5.96212e-08
5.9546e-08
5.94592e-08
5.93918e-08
5.93234e-08
5.92648e-08
5.91941e-08
5.91424e-08
5.90833e-08
5.90438e-08
5.89842e-08
5.89335e-08
5.88908e-08
5.88413e-08
5.87982e-08
5.87779e-08
5.87353e-08
5.86993e-08
5.86595e-08
5.86257e-08
5.85818e-08
5.85589e-08
5.8519e-08
5.8511e-08
5.8493e-08
5.84949e-08
5.84845e-08
5.84901e-08
5.84799e-08
5.84824e-08
5.84789e-08
5.84815e-08
5.84812e-08
5.84885e-08
5.84928e-08
5.85058e-08
5.85131e-08
5.85288e-08
5.85378e-08
5.85574e-08
5.85684e-08
5.85931e-08
5.8606e-08
5.86363e-08
5.86471e-08
5.86852e-08
5.86779e-08
5.91546e-08
3.51501e-06
2.40285e-08
1.24988e-07
1.20093e-07
1.12265e-07
1.04519e-07
9.79157e-08
9.25478e-08
8.81714e-08
8.45968e-08
8.16126e-08
7.91197e-08
7.69857e-08
7.51682e-08
7.35802e-08
7.22095e-08
7.09875e-08
6.99237e-08
6.89609e-08
6.8118e-08
6.73441e-08
6.66634e-08
6.60301e-08
6.54728e-08
6.49462e-08
6.44827e-08
6.4041e-08
6.36531e-08
6.32788e-08
6.29487e-08
6.26306e-08
6.23511e-08
6.20749e-08
6.18347e-08
6.15972e-08
6.13922e-08
6.11871e-08
6.10095e-08
6.08285e-08
6.06752e-08
6.05164e-08
6.03822e-08
6.02428e-08
6.01249e-08
6.00023e-08
5.99009e-08
5.97906e-08
5.97007e-08
5.96044e-08
5.9529e-08
5.9442e-08
5.93744e-08
5.93056e-08
5.92469e-08
5.9176e-08
5.91241e-08
5.90648e-08
5.90253e-08
5.89655e-08
5.89147e-08
5.88719e-08
5.88222e-08
5.87789e-08
5.87585e-08
5.87157e-08
5.86797e-08
5.86397e-08
5.8606e-08
5.85619e-08
5.85389e-08
5.84988e-08
5.84903e-08
5.84723e-08
5.8474e-08
5.84634e-08
5.84689e-08
5.84586e-08
5.8461e-08
5.84574e-08
5.84599e-08
5.84595e-08
5.84667e-08
5.84709e-08
5.84837e-08
5.84909e-08
5.85065e-08
5.85154e-08
5.85348e-08
5.85457e-08
5.85703e-08
5.85831e-08
5.86132e-08
5.8624e-08
5.8662e-08
5.86544e-08
5.91371e-08
3.52272e-06
2.45903e-08
1.24987e-07
1.20117e-07
1.12311e-07
1.04573e-07
9.797e-08
9.25983e-08
8.82168e-08
8.46368e-08
8.16474e-08
7.91496e-08
7.70112e-08
7.51898e-08
7.35981e-08
7.22243e-08
7.09994e-08
6.9933e-08
6.89678e-08
6.81227e-08
6.73468e-08
6.66643e-08
6.60295e-08
6.54706e-08
6.49427e-08
6.44779e-08
6.4035e-08
6.3646e-08
6.32707e-08
6.29397e-08
6.26206e-08
6.23403e-08
6.20634e-08
6.18225e-08
6.15843e-08
6.13786e-08
6.1173e-08
6.09948e-08
6.08133e-08
6.06595e-08
6.05003e-08
6.03656e-08
6.02258e-08
6.01074e-08
5.99844e-08
5.98827e-08
5.97721e-08
5.96819e-08
5.95853e-08
5.95096e-08
5.94222e-08
5.93544e-08
5.92853e-08
5.92264e-08
5.91553e-08
5.91032e-08
5.90436e-08
5.9004e-08
5.8944e-08
5.88931e-08
5.88501e-08
5.88004e-08
5.87569e-08
5.87363e-08
5.86934e-08
5.86573e-08
5.86172e-08
5.85834e-08
5.85393e-08
5.8516e-08
5.84757e-08
5.84667e-08
5.84487e-08
5.84501e-08
5.84393e-08
5.84446e-08
5.84342e-08
5.84365e-08
5.84328e-08
5.84352e-08
5.84347e-08
5.84417e-08
5.84458e-08
5.84584e-08
5.84655e-08
5.84809e-08
5.84897e-08
5.8509e-08
5.85198e-08
5.85442e-08
5.85569e-08
5.85869e-08
5.85975e-08
5.86354e-08
5.86275e-08
5.91173e-08
3.53146e-06
2.5216e-08
1.24986e-07
1.20145e-07
1.12363e-07
1.04634e-07
9.80314e-08
9.26555e-08
8.82681e-08
8.4682e-08
8.16868e-08
7.91836e-08
7.70402e-08
7.52143e-08
7.36186e-08
7.22411e-08
7.10129e-08
6.99436e-08
6.89757e-08
6.81282e-08
6.735e-08
6.66655e-08
6.60288e-08
6.54682e-08
6.49387e-08
6.44725e-08
6.40283e-08
6.36381e-08
6.32616e-08
6.29296e-08
6.26095e-08
6.23283e-08
6.20505e-08
6.18088e-08
6.15698e-08
6.13634e-08
6.11571e-08
6.09783e-08
6.07962e-08
6.06418e-08
6.0482e-08
6.03469e-08
6.02066e-08
6.00878e-08
5.99644e-08
5.98623e-08
5.97512e-08
5.96607e-08
5.95637e-08
5.94877e-08
5.94e-08
5.93319e-08
5.92624e-08
5.92033e-08
5.91319e-08
5.90796e-08
5.90198e-08
5.89801e-08
5.89198e-08
5.88688e-08
5.88256e-08
5.87758e-08
5.8732e-08
5.87112e-08
5.86682e-08
5.86321e-08
5.85917e-08
5.85579e-08
5.85136e-08
5.84903e-08
5.84496e-08
5.84401e-08
5.8422e-08
5.84232e-08
5.84121e-08
5.84173e-08
5.84068e-08
5.84089e-08
5.84051e-08
5.84073e-08
5.84067e-08
5.84134e-08
5.84175e-08
5.84298e-08
5.84369e-08
5.84521e-08
5.84608e-08
5.84799e-08
5.84906e-08
5.85148e-08
5.85273e-08
5.85571e-08
5.85676e-08
5.86054e-08
5.85971e-08
5.90949e-08
3.5412e-06
2.59153e-08
1.24985e-07
1.20175e-07
1.1242e-07
1.04702e-07
9.80998e-08
9.27193e-08
8.83256e-08
8.47327e-08
8.17309e-08
7.92217e-08
7.70728e-08
7.52419e-08
7.36416e-08
7.22601e-08
7.10282e-08
6.99555e-08
6.89846e-08
6.81344e-08
6.73538e-08
6.6667e-08
6.60281e-08
6.54657e-08
6.49344e-08
6.44666e-08
6.40209e-08
6.36293e-08
6.32515e-08
6.29184e-08
6.25971e-08
6.23149e-08
6.20361e-08
6.17936e-08
6.15537e-08
6.13465e-08
6.11394e-08
6.09599e-08
6.07771e-08
6.06222e-08
6.04618e-08
6.03261e-08
6.01852e-08
6.0066e-08
5.9942e-08
5.98395e-08
5.9728e-08
5.96371e-08
5.95396e-08
5.94633e-08
5.93753e-08
5.93068e-08
5.92368e-08
5.91776e-08
5.91058e-08
5.90533e-08
5.89931e-08
5.89534e-08
5.88928e-08
5.88417e-08
5.87983e-08
5.87484e-08
5.87043e-08
5.86833e-08
5.86401e-08
5.86039e-08
5.85634e-08
5.85295e-08
5.84851e-08
5.84615e-08
5.84206e-08
5.84104e-08
5.83922e-08
5.83931e-08
5.83818e-08
5.83867e-08
5.83761e-08
5.8378e-08
5.83742e-08
5.83761e-08
5.83755e-08
5.83819e-08
5.83859e-08
5.8398e-08
5.84049e-08
5.84199e-08
5.84285e-08
5.84474e-08
5.84579e-08
5.84819e-08
5.84944e-08
5.85239e-08
5.85343e-08
5.85719e-08
5.85633e-08
5.907e-08
3.55186e-06
2.66995e-08
1.24984e-07
1.20208e-07
1.12483e-07
1.04778e-07
9.81755e-08
9.279e-08
8.83892e-08
8.47889e-08
8.17799e-08
7.9264e-08
7.7109e-08
7.52726e-08
7.36673e-08
7.22812e-08
7.10453e-08
6.9969e-08
6.89947e-08
6.81414e-08
6.7358e-08
6.66688e-08
6.60276e-08
6.54631e-08
6.49298e-08
6.44603e-08
6.40128e-08
6.36198e-08
6.32405e-08
6.2906e-08
6.25835e-08
6.23002e-08
6.20203e-08
6.17768e-08
6.15359e-08
6.13279e-08
6.11199e-08
6.09396e-08
6.07561e-08
6.06005e-08
6.04394e-08
6.03031e-08
6.01616e-08
6.00419e-08
5.99173e-08
5.98143e-08
5.97023e-08
5.9611e-08
5.95131e-08
5.94363e-08
5.93479e-08
5.9279e-08
5.92086e-08
5.91491e-08
5.9077e-08
5.90242e-08
5.89637e-08
5.89239e-08
5.8863e-08
5.88118e-08
5.87681e-08
5.87181e-08
5.86737e-08
5.86525e-08
5.8609e-08
5.85727e-08
5.8532e-08
5.84981e-08
5.84535e-08
5.84297e-08
5.83885e-08
5.83777e-08
5.83593e-08
5.83599e-08
5.83483e-08
5.8353e-08
5.83422e-08
5.83439e-08
5.83399e-08
5.83417e-08
5.83409e-08
5.83471e-08
5.83509e-08
5.83627e-08
5.83696e-08
5.83843e-08
5.83928e-08
5.84114e-08
5.84219e-08
5.84455e-08
5.84579e-08
5.84872e-08
5.84974e-08
5.85348e-08
5.85258e-08
5.90425e-08
3.56332e-06
2.75809e-08
1.24983e-07
1.20245e-07
1.12551e-07
1.0486e-07
9.82586e-08
9.28677e-08
8.84593e-08
8.48509e-08
8.1834e-08
7.93107e-08
7.7149e-08
7.53065e-08
7.36957e-08
7.23047e-08
7.10643e-08
6.99839e-08
6.9006e-08
6.81494e-08
6.73629e-08
6.66709e-08
6.60272e-08
6.54603e-08
6.49249e-08
6.44534e-08
6.40041e-08
6.36094e-08
6.32286e-08
6.28927e-08
6.25687e-08
6.22842e-08
6.20031e-08
6.17585e-08
6.15165e-08
6.13075e-08
6.10985e-08
6.09175e-08
6.07331e-08
6.05767e-08
6.04149e-08
6.0278e-08
6.01358e-08
6.00155e-08
5.98903e-08
5.97868e-08
5.96742e-08
5.95824e-08
5.9484e-08
5.94068e-08
5.93179e-08
5.92486e-08
5.91777e-08
5.91179e-08
5.90455e-08
5.89923e-08
5.89315e-08
5.88915e-08
5.88303e-08
5.87789e-08
5.8735e-08
5.86849e-08
5.86402e-08
5.86186e-08
5.85749e-08
5.85386e-08
5.84975e-08
5.84636e-08
5.84188e-08
5.83948e-08
5.83533e-08
5.83418e-08
5.83233e-08
5.83235e-08
5.83116e-08
5.8316e-08
5.8305e-08
5.83065e-08
5.83024e-08
5.83039e-08
5.8303e-08
5.83089e-08
5.83126e-08
5.83241e-08
5.83308e-08
5.83453e-08
5.83536e-08
5.83719e-08
5.83823e-08
5.84056e-08
5.84178e-08
5.84469e-08
5.84569e-08
5.84941e-08
5.84847e-08
5.90123e-08
3.57543e-06
2.85729e-08
1.24982e-07
1.20284e-07
1.12626e-07
1.0495e-07
9.83492e-08
9.29526e-08
8.8536e-08
8.49187e-08
8.18933e-08
7.9362e-08
7.71929e-08
7.53438e-08
7.3727e-08
7.23306e-08
7.10853e-08
7.00005e-08
6.90185e-08
6.81583e-08
6.73685e-08
6.66734e-08
6.60269e-08
6.54575e-08
6.49198e-08
6.44461e-08
6.39948e-08
6.35982e-08
6.32157e-08
6.28782e-08
6.25527e-08
6.22669e-08
6.19845e-08
6.17386e-08
6.14955e-08
6.12854e-08
6.10754e-08
6.08935e-08
6.07081e-08
6.05509e-08
6.03883e-08
6.02506e-08
6.01077e-08
5.99867e-08
5.98608e-08
5.97568e-08
5.96436e-08
5.95514e-08
5.94523e-08
5.93746e-08
5.92853e-08
5.92155e-08
5.91441e-08
5.9084e-08
5.90111e-08
5.89576e-08
5.88963e-08
5.88562e-08
5.87947e-08
5.87431e-08
5.86989e-08
5.86487e-08
5.86036e-08
5.85817e-08
5.85378e-08
5.85013e-08
5.846e-08
5.8426e-08
5.8381e-08
5.83567e-08
5.83149e-08
5.83027e-08
5.82839e-08
5.82838e-08
5.82715e-08
5.82756e-08
5.82645e-08
5.82657e-08
5.82614e-08
5.82627e-08
5.82617e-08
5.82672e-08
5.82708e-08
5.82819e-08
5.82885e-08
5.83027e-08
5.83109e-08
5.83289e-08
5.83391e-08
5.83621e-08
5.83741e-08
5.84029e-08
5.84128e-08
5.84497e-08
5.84398e-08
5.89795e-08
3.58798e-06
2.96895e-08
1.2498e-07
1.20325e-07
1.12706e-07
1.05047e-07
9.84475e-08
9.30448e-08
8.86194e-08
8.49926e-08
8.19579e-08
7.9418e-08
7.7241e-08
7.53846e-08
7.37613e-08
7.2359e-08
7.11083e-08
7.00188e-08
6.90324e-08
6.81682e-08
6.73747e-08
6.66764e-08
6.60268e-08
6.54547e-08
6.49144e-08
6.44384e-08
6.39849e-08
6.35863e-08
6.32019e-08
6.28627e-08
6.25355e-08
6.22482e-08
6.19644e-08
6.17172e-08
6.14728e-08
6.12616e-08
6.10504e-08
6.08675e-08
6.06811e-08
6.05231e-08
6.03595e-08
6.02211e-08
6.00773e-08
5.99557e-08
5.9829e-08
5.97244e-08
5.96105e-08
5.95177e-08
5.9418e-08
5.93398e-08
5.925e-08
5.91797e-08
5.91076e-08
5.90472e-08
5.89739e-08
5.89201e-08
5.88583e-08
5.8818e-08
5.8756e-08
5.87043e-08
5.86598e-08
5.86094e-08
5.85639e-08
5.85417e-08
5.84975e-08
5.84609e-08
5.84193e-08
5.83853e-08
5.83401e-08
5.83155e-08
5.82734e-08
5.82604e-08
5.82413e-08
5.82407e-08
5.82281e-08
5.82319e-08
5.82206e-08
5.82215e-08
5.82171e-08
5.82181e-08
5.82169e-08
5.82221e-08
5.82255e-08
5.82363e-08
5.82427e-08
5.82566e-08
5.82646e-08
5.82823e-08
5.82922e-08
5.8315e-08
5.83268e-08
5.83552e-08
5.83649e-08
5.84016e-08
5.83912e-08
5.89438e-08
3.60069e-06
3.09458e-08
1.24978e-07
1.2037e-07
1.12793e-07
1.05151e-07
9.85535e-08
9.31446e-08
8.87097e-08
8.50727e-08
8.2028e-08
7.94788e-08
7.72932e-08
7.54291e-08
7.37987e-08
7.23901e-08
7.11336e-08
7.00388e-08
6.90477e-08
6.81792e-08
6.73818e-08
6.66799e-08
6.6027e-08
6.54519e-08
6.49088e-08
6.44303e-08
6.39744e-08
6.35737e-08
6.31872e-08
6.28461e-08
6.25172e-08
6.22282e-08
6.19428e-08
6.16943e-08
6.14484e-08
6.1236e-08
6.10236e-08
6.08396e-08
6.06521e-08
6.04931e-08
6.03286e-08
6.01893e-08
6.00446e-08
5.99223e-08
5.97948e-08
5.96894e-08
5.95749e-08
5.94815e-08
5.93811e-08
5.93024e-08
5.92119e-08
5.91411e-08
5.90683e-08
5.90076e-08
5.89338e-08
5.88795e-08
5.88173e-08
5.87768e-08
5.87144e-08
5.86626e-08
5.86177e-08
5.85671e-08
5.85212e-08
5.84986e-08
5.84541e-08
5.84174e-08
5.83755e-08
5.83414e-08
5.82959e-08
5.8271e-08
5.82286e-08
5.82148e-08
5.81954e-08
5.81943e-08
5.81813e-08
5.81847e-08
5.81732e-08
5.81738e-08
5.81692e-08
5.81699e-08
5.81685e-08
5.81733e-08
5.81766e-08
5.8187e-08
5.81932e-08
5.82068e-08
5.82146e-08
5.82319e-08
5.82417e-08
5.82641e-08
5.82757e-08
5.83038e-08
5.83133e-08
5.83496e-08
5.83387e-08
5.89053e-08
3.61324e-06
3.23572e-08
1.24976e-07
1.20417e-07
1.12885e-07
1.05263e-07
9.86674e-08
9.32519e-08
8.8807e-08
8.51593e-08
8.21039e-08
7.95446e-08
7.73498e-08
7.54774e-08
7.38393e-08
7.24239e-08
7.11612e-08
7.00608e-08
6.90645e-08
6.81914e-08
6.73898e-08
6.66841e-08
6.60276e-08
6.54493e-08
6.49032e-08
6.44219e-08
6.39634e-08
6.35603e-08
6.31716e-08
6.28286e-08
6.24977e-08
6.2207e-08
6.19199e-08
6.16698e-08
6.14225e-08
6.12087e-08
6.09949e-08
6.08098e-08
6.06211e-08
6.04611e-08
6.02954e-08
6.01553e-08
6.00097e-08
5.98865e-08
5.97581e-08
5.9652e-08
5.95367e-08
5.94426e-08
5.93415e-08
5.92622e-08
5.91711e-08
5.90997e-08
5.90262e-08
5.89651e-08
5.88907e-08
5.88361e-08
5.87733e-08
5.87326e-08
5.86697e-08
5.86177e-08
5.85724e-08
5.85216e-08
5.84753e-08
5.84523e-08
5.84074e-08
5.83707e-08
5.83284e-08
5.82942e-08
5.82484e-08
5.82233e-08
5.81805e-08
5.81659e-08
5.81461e-08
5.81445e-08
5.8131e-08
5.8134e-08
5.81223e-08
5.81226e-08
5.81177e-08
5.81182e-08
5.81166e-08
5.8121e-08
5.8124e-08
5.8134e-08
5.81401e-08
5.81533e-08
5.81609e-08
5.81779e-08
5.81874e-08
5.82094e-08
5.82208e-08
5.82485e-08
5.82578e-08
5.82937e-08
5.82823e-08
5.88639e-08
3.6252e-06
3.394e-08
1.24974e-07
1.20467e-07
1.12982e-07
1.05382e-07
9.87894e-08
9.33671e-08
8.89117e-08
8.52524e-08
8.21856e-08
7.96157e-08
7.7411e-08
7.55296e-08
7.38834e-08
7.24606e-08
7.11912e-08
7.00848e-08
6.9083e-08
6.82049e-08
6.73987e-08
6.66888e-08
6.60285e-08
6.54468e-08
6.48974e-08
6.44132e-08
6.39519e-08
6.35463e-08
6.31553e-08
6.281e-08
6.2477e-08
6.21845e-08
6.18956e-08
6.16439e-08
6.13949e-08
6.11797e-08
6.09644e-08
6.0778e-08
6.05881e-08
6.04269e-08
6.02602e-08
6.0119e-08
5.99724e-08
5.98483e-08
5.9719e-08
5.96121e-08
5.9496e-08
5.94012e-08
5.92992e-08
5.92193e-08
5.91275e-08
5.90555e-08
5.89812e-08
5.89197e-08
5.88448e-08
5.87897e-08
5.87263e-08
5.86854e-08
5.8622e-08
5.85698e-08
5.8524e-08
5.8473e-08
5.84262e-08
5.84028e-08
5.83576e-08
5.83207e-08
5.8278e-08
5.82437e-08
5.81977e-08
5.81722e-08
5.81291e-08
5.81137e-08
5.80933e-08
5.80912e-08
5.80772e-08
5.80798e-08
5.80678e-08
5.80678e-08
5.80627e-08
5.80628e-08
5.8061e-08
5.8065e-08
5.80678e-08
5.80774e-08
5.80832e-08
5.8096e-08
5.81034e-08
5.812e-08
5.81294e-08
5.81509e-08
5.81621e-08
5.81894e-08
5.81984e-08
5.82339e-08
5.82219e-08
5.88194e-08
3.63611e-06
3.57109e-08
1.24971e-07
1.20519e-07
1.13086e-07
1.05509e-07
9.89196e-08
9.34903e-08
8.90238e-08
8.53522e-08
8.22734e-08
7.96921e-08
7.74769e-08
7.55859e-08
7.3931e-08
7.25003e-08
7.12238e-08
7.0111e-08
6.91032e-08
6.82198e-08
6.74087e-08
6.66944e-08
6.603e-08
6.54445e-08
6.48916e-08
6.44043e-08
6.394e-08
6.35317e-08
6.31381e-08
6.27906e-08
6.24553e-08
6.21607e-08
6.18699e-08
6.16164e-08
6.13657e-08
6.11489e-08
6.09321e-08
6.07444e-08
6.05531e-08
6.03907e-08
6.02227e-08
6.00805e-08
5.99327e-08
5.98077e-08
5.96774e-08
5.95697e-08
5.94527e-08
5.93571e-08
5.92543e-08
5.91736e-08
5.90811e-08
5.90085e-08
5.89334e-08
5.88713e-08
5.87958e-08
5.87402e-08
5.86762e-08
5.8635e-08
5.85711e-08
5.85187e-08
5.84724e-08
5.84213e-08
5.83739e-08
5.83501e-08
5.83044e-08
5.82674e-08
5.82243e-08
5.819e-08
5.81436e-08
5.81178e-08
5.80744e-08
5.80581e-08
5.80372e-08
5.80344e-08
5.80199e-08
5.80221e-08
5.80098e-08
5.80094e-08
5.80041e-08
5.80038e-08
5.80018e-08
5.80053e-08
5.80079e-08
5.8017e-08
5.80226e-08
5.8035e-08
5.80422e-08
5.80583e-08
5.80674e-08
5.80885e-08
5.80994e-08
5.81263e-08
5.81351e-08
5.81701e-08
5.81576e-08
5.87717e-08
3.64539e-06
3.76865e-08
1.24968e-07
1.20574e-07
1.13195e-07
1.05644e-07
9.9058e-08
9.36216e-08
8.91435e-08
8.54591e-08
8.23675e-08
7.97741e-08
7.75477e-08
7.56465e-08
7.39823e-08
7.25433e-08
7.12591e-08
7.01394e-08
6.91254e-08
6.82363e-08
6.74199e-08
6.67008e-08
6.6032e-08
6.54425e-08
6.4886e-08
6.43952e-08
6.39278e-08
6.35166e-08
6.31202e-08
6.27702e-08
6.24325e-08
6.21358e-08
6.18429e-08
6.15875e-08
6.13349e-08
6.11165e-08
6.0898e-08
6.07088e-08
6.05161e-08
6.03524e-08
6.01831e-08
6.00397e-08
5.98908e-08
5.97648e-08
5.96333e-08
5.95247e-08
5.94067e-08
5.93104e-08
5.92066e-08
5.91252e-08
5.9032e-08
5.89586e-08
5.88826e-08
5.88201e-08
5.87439e-08
5.86878e-08
5.8623e-08
5.85816e-08
5.85171e-08
5.84646e-08
5.84177e-08
5.83663e-08
5.83184e-08
5.82941e-08
5.8248e-08
5.82108e-08
5.81673e-08
5.81328e-08
5.80861e-08
5.806e-08
5.80164e-08
5.79991e-08
5.79775e-08
5.79741e-08
5.79591e-08
5.79607e-08
5.79481e-08
5.79474e-08
5.79417e-08
5.79411e-08
5.79388e-08
5.79419e-08
5.79442e-08
5.79528e-08
5.79581e-08
5.79701e-08
5.7977e-08
5.79927e-08
5.80016e-08
5.80221e-08
5.80328e-08
5.80593e-08
5.80677e-08
5.81022e-08
5.80892e-08
5.87208e-08
3.65242e-06
3.98842e-08
1.24964e-07
1.20631e-07
1.1331e-07
1.05786e-07
9.92049e-08
9.37613e-08
8.92711e-08
8.55732e-08
8.2468e-08
7.98618e-08
7.76236e-08
7.57116e-08
7.40374e-08
7.25895e-08
7.12973e-08
7.01702e-08
6.91495e-08
6.82543e-08
6.74323e-08
6.67082e-08
6.60347e-08
6.54409e-08
6.48804e-08
6.43861e-08
6.39152e-08
6.3501e-08
6.31017e-08
6.2749e-08
6.24087e-08
6.21097e-08
6.18146e-08
6.15572e-08
6.13026e-08
6.10824e-08
6.08621e-08
6.06714e-08
6.04771e-08
6.0312e-08
6.01413e-08
5.99967e-08
5.98465e-08
5.97194e-08
5.95868e-08
5.94773e-08
5.93582e-08
5.9261e-08
5.91562e-08
5.9074e-08
5.898e-08
5.89058e-08
5.88289e-08
5.87658e-08
5.8689e-08
5.86323e-08
5.85668e-08
5.85251e-08
5.84599e-08
5.84072e-08
5.83597e-08
5.83081e-08
5.82596e-08
5.82348e-08
5.81882e-08
5.81509e-08
5.81069e-08
5.80723e-08
5.80252e-08
5.79987e-08
5.79549e-08
5.79367e-08
5.79144e-08
5.79102e-08
5.78947e-08
5.78957e-08
5.78828e-08
5.78817e-08
5.78757e-08
5.78747e-08
5.78721e-08
5.78747e-08
5.78767e-08
5.78847e-08
5.78899e-08
5.79013e-08
5.7908e-08
5.79232e-08
5.79318e-08
5.79518e-08
5.79622e-08
5.79882e-08
5.79963e-08
5.80302e-08
5.80166e-08
5.86664e-08
3.65648e-06
4.23205e-08
1.2496e-07
1.20691e-07
1.13431e-07
1.05937e-07
9.93603e-08
9.39094e-08
8.94068e-08
8.56946e-08
8.25753e-08
7.99556e-08
7.77048e-08
7.57813e-08
7.40967e-08
7.26394e-08
7.13384e-08
7.02036e-08
6.91757e-08
6.82741e-08
6.74461e-08
6.67167e-08
6.60381e-08
6.54399e-08
6.48751e-08
6.4377e-08
6.39025e-08
6.34849e-08
6.30825e-08
6.2727e-08
6.2384e-08
6.20826e-08
6.1785e-08
6.15255e-08
6.12688e-08
6.10467e-08
6.08245e-08
6.06322e-08
6.04361e-08
6.02696e-08
6.00974e-08
5.99515e-08
5.98e-08
5.96717e-08
5.95378e-08
5.94273e-08
5.93071e-08
5.9209e-08
5.91032e-08
5.90201e-08
5.89252e-08
5.88502e-08
5.87723e-08
5.87087e-08
5.8631e-08
5.85738e-08
5.85075e-08
5.84654e-08
5.83996e-08
5.83467e-08
5.82985e-08
5.82467e-08
5.81976e-08
5.81722e-08
5.81251e-08
5.80877e-08
5.80431e-08
5.80084e-08
5.79609e-08
5.7934e-08
5.78901e-08
5.78708e-08
5.78477e-08
5.78427e-08
5.78266e-08
5.78271e-08
5.78138e-08
5.78123e-08
5.78059e-08
5.78045e-08
5.78016e-08
5.78036e-08
5.78054e-08
5.78129e-08
5.78177e-08
5.78287e-08
5.78351e-08
5.78497e-08
5.7858e-08
5.78775e-08
5.78876e-08
5.79131e-08
5.79209e-08
5.7954e-08
5.79399e-08
5.86085e-08
3.65678e-06
4.50108e-08
1.24956e-07
1.20752e-07
1.13557e-07
1.06095e-07
9.95244e-08
9.40663e-08
8.95507e-08
8.58238e-08
8.26894e-08
8.00555e-08
7.77915e-08
7.5856e-08
7.41603e-08
7.26929e-08
7.13828e-08
7.02397e-08
6.92043e-08
6.82958e-08
6.74615e-08
6.67264e-08
6.60425e-08
6.54394e-08
6.48702e-08
6.4368e-08
6.38896e-08
6.34686e-08
6.30628e-08
6.27043e-08
6.23583e-08
6.20543e-08
6.17543e-08
6.14925e-08
6.12335e-08
6.10093e-08
6.07852e-08
6.05911e-08
6.03933e-08
6.02252e-08
6.00514e-08
5.99041e-08
5.97511e-08
5.96217e-08
5.94864e-08
5.93748e-08
5.92535e-08
5.91544e-08
5.90474e-08
5.89635e-08
5.88675e-08
5.87917e-08
5.87128e-08
5.86485e-08
5.85701e-08
5.85122e-08
5.8445e-08
5.84026e-08
5.8336e-08
5.8283e-08
5.82341e-08
5.8182e-08
5.81322e-08
5.81062e-08
5.80586e-08
5.8021e-08
5.79759e-08
5.79411e-08
5.78932e-08
5.78659e-08
5.78218e-08
5.78015e-08
5.77774e-08
5.77715e-08
5.7755e-08
5.77548e-08
5.77411e-08
5.77391e-08
5.77324e-08
5.77305e-08
5.77273e-08
5.77287e-08
5.77302e-08
5.77371e-08
5.77416e-08
5.7752e-08
5.77581e-08
5.77722e-08
5.77803e-08
5.77991e-08
5.78089e-08
5.78338e-08
5.78413e-08
5.78736e-08
5.78591e-08
5.85468e-08
3.6525e-06
4.7969e-08
1.24951e-07
1.20816e-07
1.13689e-07
1.0626e-07
9.96973e-08
9.4232e-08
8.97031e-08
8.59607e-08
8.28108e-08
8.0162e-08
7.7884e-08
7.59357e-08
7.42283e-08
7.27503e-08
7.14306e-08
7.02788e-08
6.92353e-08
6.83195e-08
6.74786e-08
6.67374e-08
6.60478e-08
6.54397e-08
6.48657e-08
6.43592e-08
6.38767e-08
6.34519e-08
6.30427e-08
6.2681e-08
6.23319e-08
6.20252e-08
6.17224e-08
6.14582e-08
6.11968e-08
6.09705e-08
6.07442e-08
6.05483e-08
6.03485e-08
6.01788e-08
6.00033e-08
5.98546e-08
5.97e-08
5.95693e-08
5.94326e-08
5.93198e-08
5.91973e-08
5.90971e-08
5.8989e-08
5.8904e-08
5.88071e-08
5.87303e-08
5.86503e-08
5.85854e-08
5.85061e-08
5.84475e-08
5.83795e-08
5.83366e-08
5.82693e-08
5.82162e-08
5.81663e-08
5.8114e-08
5.80636e-08
5.80369e-08
5.79887e-08
5.7951e-08
5.79052e-08
5.78703e-08
5.78219e-08
5.77942e-08
5.775e-08
5.77287e-08
5.77036e-08
5.76968e-08
5.76796e-08
5.76787e-08
5.76647e-08
5.76622e-08
5.7655e-08
5.76527e-08
5.76491e-08
5.765e-08
5.76511e-08
5.76574e-08
5.76616e-08
5.76714e-08
5.76772e-08
5.76907e-08
5.76984e-08
5.77166e-08
5.77261e-08
5.77504e-08
5.77576e-08
5.7789e-08
5.7774e-08
5.84812e-08
3.64272e-06
5.12065e-08
1.24946e-07
1.20882e-07
1.13826e-07
1.06434e-07
9.98791e-08
9.44068e-08
8.98642e-08
8.61058e-08
8.29396e-08
8.02751e-08
7.79825e-08
7.60208e-08
7.4301e-08
7.28119e-08
7.1482e-08
7.03209e-08
6.92689e-08
6.83455e-08
6.74975e-08
6.67499e-08
6.60544e-08
6.54408e-08
6.48618e-08
6.43507e-08
6.38639e-08
6.34352e-08
6.30222e-08
6.26572e-08
6.23047e-08
6.19951e-08
6.16895e-08
6.14227e-08
6.11587e-08
6.09302e-08
6.07016e-08
6.05037e-08
6.0302e-08
6.01305e-08
5.99532e-08
5.98029e-08
5.96467e-08
5.95146e-08
5.93764e-08
5.92624e-08
5.91385e-08
5.90373e-08
5.89278e-08
5.88419e-08
5.87439e-08
5.86662e-08