/*--------------------------------*- C++ -*----------------------------------*\
| =========                 |                                                 |
| \\      /  F ield         | OpenFOAM: The Open Source CFD Toolbox           |
|  \\    /   O peration     | Version:  v2012                                 |
|   \\  /    A nd           | Website:  www.openfoam.com                      |
|    \\/     M anipulation  |                                                 |
\*---------------------------------------------------------------------------*/
FoamFile
{
    version     2.0;
    format      ascii;
    class       volVectorField;
    location    "28.5";
    object      wallShearStress;
}
// * * * * * * * * * * * * * * * * * * * * * * * * * * * * * * * * * * * * * //

dimensions      [0 2 -2 0 0 0 0];


internalField   uniform (0 0 0);

boundaryField
{
    inlet
    {
        type            calculated;
        value           uniform (0 0 0);
    }
    outlet
    {
        type            calculated;
        value           uniform (0 0 0);
    }
    topWall
    {
        type            calculated;
        value           nonuniform List<vector> 
545
(
(5.94398e-08 -4.18272e-08 0)
(5.94482e-08 -1.17093e-07 0)
(5.93827e-08 -1.9531e-07 0)
(5.93065e-08 -2.71227e-07 0)
(5.92252e-08 -3.43882e-07 0)
(5.91308e-08 -4.14208e-07 0)
(5.90241e-08 -4.82805e-07 0)
(5.89056e-08 -5.49641e-07 0)
(5.87761e-08 -6.14567e-07 0)
(5.86367e-08 -6.77581e-07 0)
(5.84884e-08 -7.38765e-07 0)
(5.8332e-08 -7.98191e-07 0)
(5.81684e-08 -8.55899e-07 0)
(5.79982e-08 -9.11924e-07 0)
(5.78224e-08 -9.66305e-07 0)
(5.76414e-08 -1.01909e-06 0)
(5.74561e-08 -1.07032e-06 0)
(5.72669e-08 -1.12003e-06 0)
(5.70744e-08 -1.16828e-06 0)
(5.68792e-08 -1.21509e-06 0)
(5.66818e-08 -1.26051e-06 0)
(5.64825e-08 -1.30457e-06 0)
(5.62819e-08 -1.34733e-06 0)
(5.60802e-08 -1.38881e-06 0)
(5.5878e-08 -1.42904e-06 0)
(5.56754e-08 -1.46808e-06 0)
(5.54729e-08 -1.50595e-06 0)
(5.52706e-08 -1.54268e-06 0)
(5.50689e-08 -1.57832e-06 0)
(5.4868e-08 -1.61289e-06 0)
(5.46681e-08 -1.64642e-06 0)
(5.44695e-08 -1.67896e-06 0)
(5.42722e-08 -1.71052e-06 0)
(5.40765e-08 -1.74113e-06 0)
(5.38826e-08 -1.77083e-06 0)
(5.36905e-08 -1.79965e-06 0)
(5.35003e-08 -1.8276e-06 0)
(5.33123e-08 -1.85473e-06 0)
(5.31265e-08 -1.88104e-06 0)
(5.29429e-08 -1.90657e-06 0)
(5.27617e-08 -1.93135e-06 0)
(5.25829e-08 -1.95538e-06 0)
(5.24065e-08 -1.97871e-06 0)
(5.22327e-08 -2.00134e-06 0)
(5.20614e-08 -2.02331e-06 0)
(5.18928e-08 -2.04462e-06 0)
(5.17267e-08 -2.06531e-06 0)
(5.15633e-08 -2.08539e-06 0)
(5.14025e-08 -2.10487e-06 0)
(5.12444e-08 -2.12379e-06 0)
(5.1089e-08 -2.14214e-06 0)
(5.09362e-08 -2.15997e-06 0)
(5.07861e-08 -2.17727e-06 0)
(5.06386e-08 -2.19406e-06 0)
(5.04937e-08 -2.21036e-06 0)
(5.03514e-08 -2.22619e-06 0)
(5.02118e-08 -2.24156e-06 0)
(5.00747e-08 -2.25648e-06 0)
(4.99401e-08 -2.27097e-06 0)
(4.98081e-08 -2.28504e-06 0)
(4.96785e-08 -2.2987e-06 0)
(4.95514e-08 -2.31197e-06 0)
(4.94267e-08 -2.32486e-06 0)
(4.93044e-08 -2.33737e-06 0)
(4.91844e-08 -2.34953e-06 0)
(4.90668e-08 -2.36133e-06 0)
(4.89514e-08 -2.3728e-06 0)
(4.88382e-08 -2.38394e-06 0)
(4.87273e-08 -2.39476e-06 0)
(4.86183e-08 -2.40526e-06 0)
(4.85123e-08 -2.41549e-06 0)
(4.84045e-08 -2.42539e-06 0)
(4.83012e-08 -2.4349e-06 0)
(4.82067e-08 -2.44416e-06 0)
(4.81128e-08 -2.45329e-06 0)
(4.80191e-08 -2.46237e-06 0)
(4.79255e-08 -2.47141e-06 0)
(4.78321e-08 -2.4804e-06 0)
(4.77387e-08 -2.48932e-06 0)
(4.76454e-08 -2.49818e-06 0)
(4.75523e-08 -2.50698e-06 0)
(4.74593e-08 -2.51573e-06 0)
(4.73664e-08 -2.52442e-06 0)
(4.72736e-08 -2.53306e-06 0)
(4.71809e-08 -2.54163e-06 0)
(4.70884e-08 -2.55016e-06 0)
(4.69959e-08 -2.55862e-06 0)
(4.69037e-08 -2.56703e-06 0)
(4.68115e-08 -2.57539e-06 0)
(4.67195e-08 -2.58369e-06 0)
(4.66276e-08 -2.59194e-06 0)
(4.65358e-08 -2.60013e-06 0)
(4.64446e-08 -2.60828e-06 0)
(4.63517e-08 -2.61633e-06 0)
(4.62665e-08 -2.62444e-06 0)
(4.61489e-08 -2.63232e-06 0)
(4.60279e-08 -2.63945e-06 0)
(4.59494e-08 -2.64612e-06 0)
(4.58751e-08 -2.65252e-06 0)
(4.58017e-08 -2.65885e-06 0)
(4.57281e-08 -2.6653e-06 0)
(4.56544e-08 -2.67179e-06 0)
(4.55803e-08 -2.67826e-06 0)
(4.55058e-08 -2.68472e-06 0)
(4.54311e-08 -2.69118e-06 0)
(4.5356e-08 -2.69766e-06 0)
(4.52806e-08 -2.70414e-06 0)
(4.52048e-08 -2.71062e-06 0)
(4.51287e-08 -2.71711e-06 0)
(4.50523e-08 -2.7236e-06 0)
(4.49756e-08 -2.7301e-06 0)
(4.48985e-08 -2.7366e-06 0)
(4.4821e-08 -2.7431e-06 0)
(4.47432e-08 -2.74961e-06 0)
(4.46651e-08 -2.75612e-06 0)
(4.45867e-08 -2.76264e-06 0)
(4.45079e-08 -2.76916e-06 0)
(4.44287e-08 -2.77569e-06 0)
(4.43492e-08 -2.78221e-06 0)
(4.42694e-08 -2.78874e-06 0)
(4.41892e-08 -2.79528e-06 0)
(4.41087e-08 -2.80182e-06 0)
(4.40278e-08 -2.80836e-06 0)
(4.39466e-08 -2.81491e-06 0)
(4.3865e-08 -2.82145e-06 0)
(4.37831e-08 -2.82801e-06 0)
(4.37008e-08 -2.83456e-06 0)
(4.36182e-08 -2.84112e-06 0)
(4.35353e-08 -2.84768e-06 0)
(4.34519e-08 -2.85425e-06 0)
(4.33683e-08 -2.86081e-06 0)
(4.32842e-08 -2.86738e-06 0)
(4.31999e-08 -2.87395e-06 0)
(4.31151e-08 -2.88053e-06 0)
(4.303e-08 -2.88711e-06 0)
(4.29446e-08 -2.89369e-06 0)
(4.28588e-08 -2.90027e-06 0)
(4.27726e-08 -2.90685e-06 0)
(4.26861e-08 -2.91344e-06 0)
(4.25993e-08 -2.92003e-06 0)
(4.2512e-08 -2.92662e-06 0)
(4.24244e-08 -2.93321e-06 0)
(4.23365e-08 -2.93981e-06 0)
(4.22482e-08 -2.94641e-06 0)
(4.21595e-08 -2.95301e-06 0)
(4.20705e-08 -2.95961e-06 0)
(4.19811e-08 -2.96621e-06 0)
(4.18913e-08 -2.97281e-06 0)
(4.18012e-08 -2.97941e-06 0)
(4.17107e-08 -2.98602e-06 0)
(4.16199e-08 -2.99263e-06 0)
(4.15287e-08 -2.99924e-06 0)
(4.14371e-08 -3.00585e-06 0)
(4.13451e-08 -3.01246e-06 0)
(4.12528e-08 -3.01907e-06 0)
(4.11602e-08 -3.02568e-06 0)
(4.10671e-08 -3.03229e-06 0)
(4.09737e-08 -3.0389e-06 0)
(4.088e-08 -3.04552e-06 0)
(4.07858e-08 -3.05213e-06 0)
(4.06913e-08 -3.05874e-06 0)
(4.05964e-08 -3.06536e-06 0)
(4.05012e-08 -3.07197e-06 0)
(4.04056e-08 -3.07859e-06 0)
(4.03096e-08 -3.0852e-06 0)
(4.02132e-08 -3.09182e-06 0)
(4.01165e-08 -3.09843e-06 0)
(4.00194e-08 -3.10504e-06 0)
(3.9922e-08 -3.11165e-06 0)
(3.98241e-08 -3.11827e-06 0)
(3.97259e-08 -3.12488e-06 0)
(3.96274e-08 -3.13149e-06 0)
(3.95284e-08 -3.1381e-06 0)
(3.94291e-08 -3.14471e-06 0)
(3.93294e-08 -3.15132e-06 0)
(3.92294e-08 -3.15792e-06 0)
(3.9129e-08 -3.16453e-06 0)
(3.90282e-08 -3.17113e-06 0)
(3.8927e-08 -3.17773e-06 0)
(3.88255e-08 -3.18433e-06 0)
(3.87235e-08 -3.19093e-06 0)
(3.86213e-08 -3.19753e-06 0)
(3.85186e-08 -3.20412e-06 0)
(3.84156e-08 -3.21072e-06 0)
(3.83122e-08 -3.21731e-06 0)
(3.82084e-08 -3.2239e-06 0)
(3.81043e-08 -3.23048e-06 0)
(3.79998e-08 -3.23706e-06 0)
(3.78949e-08 -3.24365e-06 0)
(3.77897e-08 -3.25022e-06 0)
(3.7684e-08 -3.2568e-06 0)
(3.7578e-08 -3.26337e-06 0)
(3.74717e-08 -3.26994e-06 0)
(3.73649e-08 -3.27651e-06 0)
(3.72578e-08 -3.28307e-06 0)
(3.71504e-08 -3.28963e-06 0)
(3.70425e-08 -3.29618e-06 0)
(3.69343e-08 -3.30273e-06 0)
(3.68257e-08 -3.30928e-06 0)
(3.67168e-08 -3.31583e-06 0)
(3.66075e-08 -3.32237e-06 0)
(3.64978e-08 -3.3289e-06 0)
(3.63877e-08 -3.33543e-06 0)
(3.62773e-08 -3.34196e-06 0)
(3.61665e-08 -3.34848e-06 0)
(3.60554e-08 -3.355e-06 0)
(3.59439e-08 -3.36151e-06 0)
(3.5832e-08 -3.36802e-06 0)
(3.57197e-08 -3.37453e-06 0)
(3.56071e-08 -3.38102e-06 0)
(3.54942e-08 -3.38752e-06 0)
(3.53808e-08 -3.394e-06 0)
(3.52671e-08 -3.40049e-06 0)
(3.51531e-08 -3.40696e-06 0)
(3.50387e-08 -3.41343e-06 0)
(3.49239e-08 -3.4199e-06 0)
(3.48087e-08 -3.42636e-06 0)
(3.46932e-08 -3.43281e-06 0)
(3.45774e-08 -3.43925e-06 0)
(3.44612e-08 -3.44569e-06 0)
(3.43446e-08 -3.45213e-06 0)
(3.42277e-08 -3.45855e-06 0)
(3.41104e-08 -3.46497e-06 0)
(3.39928e-08 -3.47138e-06 0)
(3.38748e-08 -3.47779e-06 0)
(3.37565e-08 -3.48419e-06 0)
(3.36378e-08 -3.49058e-06 0)
(3.35187e-08 -3.49696e-06 0)
(3.33994e-08 -3.50333e-06 0)
(3.32796e-08 -3.5097e-06 0)
(3.31595e-08 -3.51606e-06 0)
(3.30391e-08 -3.52241e-06 0)
(3.29183e-08 -3.52876e-06 0)
(3.27972e-08 -3.53509e-06 0)
(3.26758e-08 -3.54142e-06 0)
(3.2554e-08 -3.54773e-06 0)
(3.24318e-08 -3.55404e-06 0)
(3.23094e-08 -3.56034e-06 0)
(3.21866e-08 -3.56663e-06 0)
(3.20634e-08 -3.57291e-06 0)
(3.19399e-08 -3.57919e-06 0)
(3.18161e-08 -3.58545e-06 0)
(3.1692e-08 -3.5917e-06 0)
(3.15675e-08 -3.59795e-06 0)
(3.14427e-08 -3.60418e-06 0)
(3.13176e-08 -3.6104e-06 0)
(3.11921e-08 -3.61661e-06 0)
(3.10663e-08 -3.62282e-06 0)
(3.09402e-08 -3.62901e-06 0)
(3.08138e-08 -3.63519e-06 0)
(3.06871e-08 -3.64136e-06 0)
(3.056e-08 -3.64752e-06 0)
(3.04326e-08 -3.65367e-06 0)
(3.0305e-08 -3.6598e-06 0)
(3.01769e-08 -3.66593e-06 0)
(3.00486e-08 -3.67204e-06 0)
(2.992e-08 -3.67814e-06 0)
(2.97911e-08 -3.68424e-06 0)
(2.96619e-08 -3.69031e-06 0)
(2.95323e-08 -3.69638e-06 0)
(2.94025e-08 -3.70243e-06 0)
(2.92724e-08 -3.70847e-06 0)
(2.91419e-08 -3.7145e-06 0)
(2.90112e-08 -3.72052e-06 0)
(2.88802e-08 -3.72652e-06 0)
(2.87491e-08 -3.73252e-06 0)
(2.86167e-08 -3.73846e-06 0)
(2.84895e-08 -3.74451e-06 0)
(2.83436e-08 -3.75036e-06 0)
(2.81903e-08 -3.75587e-06 0)
(2.80651e-08 -3.76136e-06 0)
(2.79487e-08 -3.76666e-06 0)
(2.7831e-08 -3.77192e-06 0)
(2.77125e-08 -3.77729e-06 0)
(2.75927e-08 -3.78273e-06 0)
(2.74715e-08 -3.78819e-06 0)
(2.7349e-08 -3.79368e-06 0)
(2.72251e-08 -3.7992e-06 0)
(2.70998e-08 -3.80475e-06 0)
(2.69732e-08 -3.81035e-06 0)
(2.68451e-08 -3.81597e-06 0)
(2.67156e-08 -3.82163e-06 0)
(2.65847e-08 -3.82732e-06 0)
(2.64524e-08 -3.83305e-06 0)
(2.63187e-08 -3.83881e-06 0)
(2.61835e-08 -3.8446e-06 0)
(2.60468e-08 -3.85043e-06 0)
(2.59087e-08 -3.85629e-06 0)
(2.57691e-08 -3.86217e-06 0)
(2.56281e-08 -3.8681e-06 0)
(2.54855e-08 -3.87405e-06 0)
(2.53414e-08 -3.88003e-06 0)
(2.51959e-08 -3.88605e-06 0)
(2.50488e-08 -3.89209e-06 0)
(2.49001e-08 -3.89816e-06 0)
(2.475e-08 -3.90427e-06 0)
(2.45982e-08 -3.9104e-06 0)
(2.4445e-08 -3.91656e-06 0)
(2.42901e-08 -3.92274e-06 0)
(2.41337e-08 -3.92896e-06 0)
(2.39757e-08 -3.9352e-06 0)
(2.38162e-08 -3.94147e-06 0)
(2.3655e-08 -3.94776e-06 0)
(2.34922e-08 -3.95408e-06 0)
(2.33278e-08 -3.96042e-06 0)
(2.31618e-08 -3.96679e-06 0)
(2.29941e-08 -3.97318e-06 0)
(2.28249e-08 -3.97959e-06 0)
(2.2654e-08 -3.98602e-06 0)
(2.24814e-08 -3.99247e-06 0)
(2.23072e-08 -3.99895e-06 0)
(2.21314e-08 -4.00544e-06 0)
(2.19539e-08 -4.01195e-06 0)
(2.17747e-08 -4.01848e-06 0)
(2.15938e-08 -4.02502e-06 0)
(2.14113e-08 -4.03158e-06 0)
(2.12271e-08 -4.03816e-06 0)
(2.10413e-08 -4.04475e-06 0)
(2.08537e-08 -4.05135e-06 0)
(2.06645e-08 -4.05796e-06 0)
(2.04736e-08 -4.06459e-06 0)
(2.0281e-08 -4.07122e-06 0)
(2.00867e-08 -4.07786e-06 0)
(1.98908e-08 -4.08451e-06 0)
(1.96932e-08 -4.09116e-06 0)
(1.94939e-08 -4.09782e-06 0)
(1.92929e-08 -4.10449e-06 0)
(1.90902e-08 -4.11115e-06 0)
(1.88859e-08 -4.11782e-06 0)
(1.86799e-08 -4.12448e-06 0)
(1.84722e-08 -4.13114e-06 0)
(1.82629e-08 -4.13781e-06 0)
(1.80519e-08 -4.14446e-06 0)
(1.78393e-08 -4.15111e-06 0)
(1.76251e-08 -4.15775e-06 0)
(1.74092e-08 -4.16438e-06 0)
(1.71917e-08 -4.171e-06 0)
(1.69727e-08 -4.17761e-06 0)
(1.6752e-08 -4.18421e-06 0)
(1.65297e-08 -4.19079e-06 0)
(1.63059e-08 -4.19734e-06 0)
(1.60805e-08 -4.20389e-06 0)
(1.58536e-08 -4.2104e-06 0)
(1.56251e-08 -4.2169e-06 0)
(1.53952e-08 -4.22337e-06 0)
(1.51637e-08 -4.22981e-06 0)
(1.49308e-08 -4.23623e-06 0)
(1.46965e-08 -4.24261e-06 0)
(1.44607e-08 -4.24896e-06 0)
(1.42235e-08 -4.25528e-06 0)
(1.39849e-08 -4.26155e-06 0)
(1.3745e-08 -4.26779e-06 0)
(1.35038e-08 -4.27398e-06 0)
(1.32612e-08 -4.28014e-06 0)
(1.30174e-08 -4.28624e-06 0)
(1.27724e-08 -4.2923e-06 0)
(1.25261e-08 -4.2983e-06 0)
(1.22786e-08 -4.30425e-06 0)
(1.203e-08 -4.31015e-06 0)
(1.17804e-08 -4.31599e-06 0)
(1.15296e-08 -4.32176e-06 0)
(1.12778e-08 -4.32748e-06 0)
(1.1025e-08 -4.33312e-06 0)
(1.07713e-08 -4.3387e-06 0)
(1.05166e-08 -4.3442e-06 0)
(1.02611e-08 -4.34964e-06 0)
(1.00048e-08 -4.35499e-06 0)
(9.74766e-09 -4.36027e-06 0)
(9.48983e-09 -4.36547e-06 0)
(9.23133e-09 -4.37058e-06 0)
(8.97221e-09 -4.3756e-06 0)
(8.71252e-09 -4.38053e-06 0)
(8.45231e-09 -4.38537e-06 0)
(8.19165e-09 -4.39011e-06 0)
(7.93058e-09 -4.39475e-06 0)
(7.66918e-09 -4.39929e-06 0)
(7.40749e-09 -4.40373e-06 0)
(7.14559e-09 -4.40806e-06 0)
(6.88353e-09 -4.41227e-06 0)
(6.62138e-09 -4.41637e-06 0)
(6.3592e-09 -4.42036e-06 0)
(6.09708e-09 -4.42422e-06 0)
(5.83506e-09 -4.42796e-06 0)
(5.57323e-09 -4.43158e-06 0)
(5.31165e-09 -4.43506e-06 0)
(5.0504e-09 -4.43842e-06 0)
(4.78955e-09 -4.44163e-06 0)
(4.52919e-09 -4.44472e-06 0)
(4.26938e-09 -4.44765e-06 0)
(4.01021e-09 -4.45045e-06 0)
(3.75175e-09 -4.45309e-06 0)
(3.49409e-09 -4.45559e-06 0)
(3.2373e-09 -4.45793e-06 0)
(2.98147e-09 -4.46012e-06 0)
(2.72668e-09 -4.46215e-06 0)
(2.47302e-09 -4.46401e-06 0)
(2.22057e-09 -4.46571e-06 0)
(1.96942e-09 -4.46725e-06 0)
(1.71965e-09 -4.4686e-06 0)
(1.47136e-09 -4.46979e-06 0)
(1.22462e-09 -4.4708e-06 0)
(9.79543e-10 -4.47163e-06 0)
(7.36197e-10 -4.47228e-06 0)
(4.94684e-10 -4.47275e-06 0)
(2.5509e-10 -4.47302e-06 0)
(1.75088e-11 -4.47311e-06 0)
(-2.17969e-10 -4.473e-06 0)
(-4.51252e-10 -4.47271e-06 0)
(-6.82245e-10 -4.4722e-06 0)
(-9.10859e-10 -4.47152e-06 0)
(-1.137e-09 -4.47061e-06 0)
(-1.36057e-09 -4.46952e-06 0)
(-1.58148e-09 -4.4682e-06 0)
(-1.79965e-09 -4.4667e-06 0)
(-2.01496e-09 -4.46497e-06 0)
(-2.22734e-09 -4.46304e-06 0)
(-2.43669e-09 -4.46088e-06 0)
(-2.64293e-09 -4.45853e-06 0)
(-2.84595e-09 -4.45594e-06 0)
(-3.04568e-09 -4.45315e-06 0)
(-3.24202e-09 -4.45013e-06 0)
(-3.4349e-09 -4.44691e-06 0)
(-3.62421e-09 -4.44345e-06 0)
(-3.80991e-09 -4.43978e-06 0)
(-3.99188e-09 -4.43587e-06 0)
(-4.17007e-09 -4.43176e-06 0)
(-4.34438e-09 -4.42741e-06 0)
(-4.51478e-09 -4.42285e-06 0)
(-4.68117e-09 -4.41805e-06 0)
(-4.8435e-09 -4.41304e-06 0)
(-5.0017e-09 -4.40779e-06 0)
(-5.15573e-09 -4.40234e-06 0)
(-5.3055e-09 -4.39664e-06 0)
(-5.451e-09 -4.39074e-06 0)
(-5.59215e-09 -4.3846e-06 0)
(-5.72893e-09 -4.37825e-06 0)
(-5.86126e-09 -4.37167e-06 0)
(-5.98915e-09 -4.36488e-06 0)
(-6.1125e-09 -4.35786e-06 0)
(-6.23134e-09 -4.35064e-06 0)
(-6.34557e-09 -4.34318e-06 0)
(-6.45522e-09 -4.33553e-06 0)
(-6.56017e-09 -4.32765e-06 0)
(-6.66048e-09 -4.31958e-06 0)
(-6.75602e-09 -4.31127e-06 0)
(-6.8468e-09 -4.30279e-06 0)
(-6.9328e-09 -4.29406e-06 0)
(-7.01369e-09 -4.28521e-06 0)
(-7.09124e-09 -4.27597e-06 0)
(-7.15967e-09 -4.26675e-06 0)
(-7.22312e-09 -4.25637e-06 0)
(-7.29203e-09 -4.24448e-06 0)
(-7.3586e-09 -4.23255e-06 0)
(-7.41785e-09 -4.22064e-06 0)
(-7.47013e-09 -4.20856e-06 0)
(-7.51559e-09 -4.19642e-06 0)
(-7.55434e-09 -4.18418e-06 0)
(-7.58667e-09 -4.17192e-06 0)
(-7.6127e-09 -4.15959e-06 0)
(-7.63279e-09 -4.14725e-06 0)
(-7.64705e-09 -4.13485e-06 0)
(-7.65583e-09 -4.12246e-06 0)
(-7.65921e-09 -4.11004e-06 0)
(-7.65755e-09 -4.09764e-06 0)
(-7.65092e-09 -4.08522e-06 0)
(-7.63965e-09 -4.07284e-06 0)
(-7.62381e-09 -4.06046e-06 0)
(-7.60371e-09 -4.04814e-06 0)
(-7.5794e-09 -4.03582e-06 0)
(-7.55117e-09 -4.02357e-06 0)
(-7.51907e-09 -4.01135e-06 0)
(-7.48338e-09 -3.99921e-06 0)
(-7.44411e-09 -3.9871e-06 0)
(-7.40152e-09 -3.97508e-06 0)
(-7.35563e-09 -3.96311e-06 0)
(-7.30669e-09 -3.95125e-06 0)
(-7.2547e-09 -3.93944e-06 0)
(-7.19988e-09 -3.92774e-06 0)
(-7.14223e-09 -3.9161e-06 0)
(-7.08197e-09 -3.9046e-06 0)
(-7.01908e-09 -3.89316e-06 0)
(-6.95377e-09 -3.88185e-06 0)
(-6.88602e-09 -3.87062e-06 0)
(-6.81602e-09 -3.85954e-06 0)
(-6.74375e-09 -3.84854e-06 0)
(-6.6694e-09 -3.83769e-06 0)
(-6.59292e-09 -3.82693e-06 0)
(-6.51451e-09 -3.81633e-06 0)
(-6.43412e-09 -3.80582e-06 0)
(-6.35192e-09 -3.79548e-06 0)
(-6.26787e-09 -3.78524e-06 0)
(-6.18214e-09 -3.77517e-06 0)
(-6.09467e-09 -3.76521e-06 0)
(-6.00563e-09 -3.75542e-06 0)
(-5.91496e-09 -3.74575e-06 0)
(-5.82281e-09 -3.73626e-06 0)
(-5.72913e-09 -3.72689e-06 0)
(-5.63407e-09 -3.7177e-06 0)
(-5.53756e-09 -3.70863e-06 0)
(-5.43974e-09 -3.69975e-06 0)
(-5.34056e-09 -3.69101e-06 0)
(-5.24013e-09 -3.68245e-06 0)
(-5.13842e-09 -3.67403e-06 0)
(-5.03553e-09 -3.6658e-06 0)
(-4.93142e-09 -3.65771e-06 0)
(-4.82618e-09 -3.64982e-06 0)
(-4.71978e-09 -3.64207e-06 0)
(-4.61232e-09 -3.63452e-06 0)
(-4.50374e-09 -3.62713e-06 0)
(-4.39415e-09 -3.61993e-06 0)
(-4.28351e-09 -3.61289e-06 0)
(-4.17189e-09 -3.60605e-06 0)
(-4.05928e-09 -3.59937e-06 0)
(-3.94574e-09 -3.59289e-06 0)
(-3.83125e-09 -3.58658e-06 0)
(-3.71588e-09 -3.58047e-06 0)
(-3.59961e-09 -3.57454e-06 0)
(-3.48251e-09 -3.56881e-06 0)
(-3.36456e-09 -3.56325e-06 0)
(-3.24582e-09 -3.5579e-06 0)
(-3.12629e-09 -3.55272e-06 0)
(-3.00601e-09 -3.54776e-06 0)
(-2.88498e-09 -3.54298e-06 0)
(-2.76325e-09 -3.53841e-06 0)
(-2.64082e-09 -3.53401e-06 0)
(-2.51773e-09 -3.52984e-06 0)
(-2.39398e-09 -3.52585e-06 0)
(-2.26962e-09 -3.52207e-06 0)
(-2.14463e-09 -3.51848e-06 0)
(-2.01906e-09 -3.51511e-06 0)
(-1.89292e-09 -3.51193e-06 0)
(-1.76622e-09 -3.50896e-06 0)
(-1.63901e-09 -3.50619e-06 0)
(-1.51131e-09 -3.50364e-06 0)
(-1.38317e-09 -3.50128e-06 0)
(-1.25468e-09 -3.49916e-06 0)
(-1.12593e-09 -3.49715e-06 0)
(-9.97131e-10 -3.49566e-06 0)
(-8.68376e-10 -3.49333e-06 0)
(-7.40283e-10 -3.49468e-06 0)
(-6.11669e-10 -3.4845e-06 0)
(-4.86923e-10 -3.51195e-06 0)
(-3.48963e-10 -3.40616e-06 0)
(-2.56514e-10 -3.68541e-06 0)
(-1.21084e-10 -3.21854e-06 0)
)
;
    }
    bottomWall
    {
        type            calculated;
        value           nonuniform List<vector> 
449
(
(-52.8115 -0.956854 0)
(-34.81 -0.0028047 0)
(-34.4131 -0.000256837 0)
(-33.0429 -0.000365535 0)
(-31.9105 -0.000316998 0)
(-30.8687 -0.000285609 0)
(-29.9476 -0.000250342 0)
(-29.1445 -0.000218321 0)
(-28.4406 -0.000191669 0)
(-27.8185 -0.000169731 0)
(-27.2638 -0.000151495 0)
(-26.7658 -0.000136229 0)
(-26.3151 -0.000123551 0)
(-25.9034 -0.000112924 0)
(-25.525 -0.000103795 0)
(-25.1755 -9.58495e-05 0)
(-24.8513 -8.88813e-05 0)
(-24.5493 -8.2699e-05 0)
(-24.2674 -7.72023e-05 0)
(-24.003 -7.22952e-05 0)
(-23.7546 -6.78941e-05 0)
(-23.5203 -6.3938e-05 0)
(-23.2989 -6.03624e-05 0)
(-23.0891 -5.71421e-05 0)
(-22.8898 -5.42189e-05 0)
(-22.7001 -5.15471e-05 0)
(-22.5191 -4.91085e-05 0)
(-22.346 -4.68768e-05 0)
(-22.1803 -4.48289e-05 0)
(-22.0213 -4.29386e-05 0)
(-21.8686 -4.11879e-05 0)
(-21.7216 -3.95624e-05 0)
(-21.58 -3.80544e-05 0)
(-21.4434 -3.66458e-05 0)
(-21.3114 -3.53357e-05 0)
(-21.1838 -3.41063e-05 0)
(-21.0603 -3.29567e-05 0)
(-20.9406 -3.18751e-05 0)
(-20.8245 -3.08597e-05 0)
(-20.7118 -2.99005e-05 0)
(-20.6023 -2.89942e-05 0)
(-20.4958 -2.81358e-05 0)
(-20.3922 -2.73224e-05 0)
(-20.2913 -2.6544e-05 0)
(-20.1931 -2.58001e-05 0)
(-20.0973 -2.50894e-05 0)
(-20.0039 -2.44077e-05 0)
(-19.9129 -2.37523e-05 0)
(-19.8241 -2.31227e-05 0)
(-19.7373 -2.25218e-05 0)
(-19.6527 -2.19398e-05 0)
(-19.57 -2.13866e-05 0)
(-19.4892 -2.08561e-05 0)
(-19.4102 -2.03472e-05 0)
(-19.333 -1.98587e-05 0)
(-19.2574 -1.93909e-05 0)
(-19.1834 -1.89434e-05 0)
(-19.1109 -1.85143e-05 0)
(-19.0398 -1.81005e-05 0)
(-18.9702 -1.77045e-05 0)
(-18.9019 -1.73218e-05 0)
(-18.835 -1.69546e-05 0)
(-18.7693 -1.66007e-05 0)
(-18.7048 -1.62582e-05 0)
(-18.6415 -1.59278e-05 0)
(-18.5793 -1.56084e-05 0)
(-18.5182 -1.53023e-05 0)
(-18.4581 -1.50032e-05 0)
(-18.3991 -1.47158e-05 0)
(-18.341 -1.44354e-05 0)
(-18.284 -1.41661e-05 0)
(-18.2278 -1.39008e-05 0)
(-18.1727 -1.36448e-05 0)
(-18.1183 -1.33957e-05 0)
(-18.0648 -1.31557e-05 0)
(-18.0121 -1.29202e-05 0)
(-17.9604 -1.2694e-05 0)
(-17.9093 -1.24709e-05 0)
(-17.8591 -1.22566e-05 0)
(-17.8094 -1.20436e-05 0)
(-17.7608 -1.18398e-05 0)
(-17.7126 -1.16394e-05 0)
(-17.6653 -1.14478e-05 0)
(-17.6185 -1.12588e-05 0)
(-17.5725 -1.10757e-05 0)
(-17.527 -1.08956e-05 0)
(-17.4823 -1.07183e-05 0)
(-17.4381 -1.05481e-05 0)
(-17.3946 -1.0383e-05 0)
(-17.3515 -1.02215e-05 0)
(-17.3092 -1.00639e-05 0)
(-17.2672 -9.90798e-06 0)
(-17.226 -9.75592e-06 0)
(-17.1851 -9.60862e-06 0)
(-17.145 -9.4637e-06 0)
(-17.1051 -9.32263e-06 0)
(-17.066 -9.18568e-06 0)
(-17.0271 -9.05233e-06 0)
(-16.9889 -8.92143e-06 0)
(-16.9509 -8.79355e-06 0)
(-16.9137 -8.66664e-06 0)
(-16.8766 -8.54401e-06 0)
(-16.8402 -8.42381e-06 0)
(-16.8041 -8.30625e-06 0)
(-16.7685 -8.18969e-06 0)
(-16.7332 -8.07871e-06 0)
(-16.6984 -7.96693e-06 0)
(-16.6639 -7.86112e-06 0)
(-16.6299 -7.75526e-06 0)
(-16.5961 -7.65312e-06 0)
(-16.5629 -7.55144e-06 0)
(-16.5298 -7.45155e-06 0)
(-16.4973 -7.35283e-06 0)
(-16.465 -7.25676e-06 0)
(-16.4331 -7.16209e-06 0)
(-16.4015 -7.06975e-06 0)
(-16.3704 -6.98026e-06 0)
(-16.3394 -6.89386e-06 0)
(-16.3088 -6.80814e-06 0)
(-16.2785 -6.72253e-06 0)
(-16.2486 -6.63987e-06 0)
(-16.2188 -6.55886e-06 0)
(-16.1895 -6.4787e-06 0)
(-16.1603 -6.39951e-06 0)
(-16.1316 -6.32111e-06 0)
(-16.103 -6.24412e-06 0)
(-16.0748 -6.16821e-06 0)
(-16.0467 -6.09491e-06 0)
(-16.0191 -6.02212e-06 0)
(-15.9916 -5.95314e-06 0)
(-15.9644 -5.88413e-06 0)
(-15.9375 -5.81759e-06 0)
(-15.9108 -5.75078e-06 0)
(-15.8843 -5.68431e-06 0)
(-15.8581 -5.61892e-06 0)
(-15.8321 -5.55484e-06 0)
(-15.8064 -5.49085e-06 0)
(-15.7809 -5.42908e-06 0)
(-15.7556 -5.367e-06 0)
(-15.7305 -5.30829e-06 0)
(-15.7057 -5.24941e-06 0)
(-15.6811 -5.19251e-06 0)
(-15.6567 -5.13631e-06 0)
(-15.6325 -5.08202e-06 0)
(-15.6085 -5.02879e-06 0)
(-15.5847 -4.97586e-06 0)
(-15.5611 -4.92475e-06 0)
(-15.5376 -4.8726e-06 0)
(-15.5144 -4.82154e-06 0)
(-15.4913 -4.7697e-06 0)
(-15.4685 -4.72098e-06 0)
(-15.4458 -4.67063e-06 0)
(-15.4234 -4.62204e-06 0)
(-15.401 -4.57441e-06 0)
(-15.379 -4.52701e-06 0)
(-15.357 -4.48053e-06 0)
(-15.3352 -4.43492e-06 0)
(-15.3136 -4.39135e-06 0)
(-15.2922 -4.34663e-06 0)
(-15.2709 -4.30447e-06 0)
(-15.2498 -4.26213e-06 0)
(-15.2288 -4.22036e-06 0)
(-15.208 -4.17903e-06 0)
(-15.1873 -4.13886e-06 0)
(-15.1669 -4.0967e-06 0)
(-15.1465 -4.05595e-06 0)
(-15.1263 -4.01717e-06 0)
(-15.1063 -3.97914e-06 0)
(-15.0864 -3.94146e-06 0)
(-15.0666 -3.90506e-06 0)
(-15.047 -3.86855e-06 0)
(-15.0275 -3.83233e-06 0)
(-15.0082 -3.80129e-06 0)
(-14.99 -3.77896e-06 0)
(-14.9729 -3.75151e-06 0)
(-14.9557 -3.71667e-06 0)
(-14.9385 -3.68162e-06 0)
(-14.9213 -3.64918e-06 0)
(-14.9041 -3.61444e-06 0)
(-14.8868 -3.58159e-06 0)
(-14.8695 -3.55004e-06 0)
(-14.8522 -3.51874e-06 0)
(-14.8348 -3.48667e-06 0)
(-14.8174 -3.45668e-06 0)
(-14.8 -3.42508e-06 0)
(-14.7825 -3.39453e-06 0)
(-14.765 -3.3629e-06 0)
(-14.7475 -3.33399e-06 0)
(-14.7299 -3.30473e-06 0)
(-14.7124 -3.27679e-06 0)
(-14.6947 -3.2462e-06 0)
(-14.6771 -3.21529e-06 0)
(-14.6594 -3.18757e-06 0)
(-14.6417 -3.15714e-06 0)
(-14.6239 -3.12729e-06 0)
(-14.6062 -3.09688e-06 0)
(-14.5884 -3.06921e-06 0)
(-14.5706 -3.04087e-06 0)
(-14.5528 -3.01304e-06 0)
(-14.5349 -2.98522e-06 0)
(-14.517 -2.95635e-06 0)
(-14.4991 -2.92859e-06 0)
(-14.4811 -2.89985e-06 0)
(-14.4632 -2.87296e-06 0)
(-14.4452 -2.84397e-06 0)
(-14.4272 -2.81747e-06 0)
(-14.4092 -2.78893e-06 0)
(-14.3912 -2.76035e-06 0)
(-14.3731 -2.73195e-06 0)
(-14.3551 -2.7045e-06 0)
(-14.3371 -2.67802e-06 0)
(-14.319 -2.65048e-06 0)
(-14.3009 -2.62461e-06 0)
(-14.2828 -2.59928e-06 0)
(-14.2647 -2.57553e-06 0)
(-14.2466 -2.54947e-06 0)
(-14.2284 -2.52505e-06 0)
(-14.2102 -2.49875e-06 0)
(-14.192 -2.47519e-06 0)
(-14.1738 -2.45041e-06 0)
(-14.1556 -2.42563e-06 0)
(-14.1373 -2.40074e-06 0)
(-14.1191 -2.37484e-06 0)
(-14.1009 -2.34999e-06 0)
(-14.0826 -2.32551e-06 0)
(-14.0644 -2.29978e-06 0)
(-14.0461 -2.2778e-06 0)
(-14.0279 -2.25254e-06 0)
(-14.0096 -2.2293e-06 0)
(-13.9913 -2.20697e-06 0)
(-13.9731 -2.1831e-06 0)
(-13.9548 -2.1607e-06 0)
(-13.9365 -2.13778e-06 0)
(-13.9182 -2.11478e-06 0)
(-13.8999 -2.09214e-06 0)
(-13.8816 -2.06908e-06 0)
(-13.8634 -2.04598e-06 0)
(-13.845 -2.0223e-06 0)
(-13.8268 -2.00046e-06 0)
(-13.8085 -1.97982e-06 0)
(-13.7903 -1.95863e-06 0)
(-13.772 -1.93816e-06 0)
(-13.7537 -1.91817e-06 0)
(-13.7354 -1.89724e-06 0)
(-13.7172 -1.87522e-06 0)
(-13.6989 -1.8554e-06 0)
(-13.6806 -1.83446e-06 0)
(-13.6624 -1.81334e-06 0)
(-13.6442 -1.79287e-06 0)
(-13.6259 -1.77329e-06 0)
(-13.6077 -1.75363e-06 0)
(-13.5895 -1.73519e-06 0)
(-13.5712 -1.71475e-06 0)
(-13.553 -1.696e-06 0)
(-13.5348 -1.67671e-06 0)
(-13.5166 -1.65912e-06 0)
(-13.4984 -1.63975e-06 0)
(-13.4803 -1.62097e-06 0)
(-13.4621 -1.603e-06 0)
(-13.444 -1.58432e-06 0)
(-13.4258 -1.56657e-06 0)
(-13.4077 -1.54863e-06 0)
(-13.3895 -1.53066e-06 0)
(-13.3715 -1.51195e-06 0)
(-13.3534 -1.49411e-06 0)
(-13.3353 -1.47649e-06 0)
(-13.3173 -1.45853e-06 0)
(-13.2993 -1.44235e-06 0)
(-13.2813 -1.42647e-06 0)
(-13.2633 -1.40959e-06 0)
(-13.2453 -1.3916e-06 0)
(-13.2274 -1.37458e-06 0)
(-13.2094 -1.35878e-06 0)
(-13.1916 -1.34405e-06 0)
(-13.1736 -1.32819e-06 0)
(-13.1558 -1.31113e-06 0)
(-13.1379 -1.29654e-06 0)
(-13.1201 -1.27975e-06 0)
(-13.1023 -1.2649e-06 0)
(-13.0845 -1.24954e-06 0)
(-13.0668 -1.2356e-06 0)
(-13.049 -1.22088e-06 0)
(-13.0313 -1.20548e-06 0)
(-13.0136 -1.19079e-06 0)
(-12.996 -1.17625e-06 0)
(-12.9783 -1.16212e-06 0)
(-12.9607 -1.14693e-06 0)
(-12.9431 -1.1317e-06 0)
(-12.9256 -1.11817e-06 0)
(-12.9081 -1.10478e-06 0)
(-12.8906 -1.09259e-06 0)
(-12.8731 -1.07928e-06 0)
(-12.8557 -1.06528e-06 0)
(-12.8382 -1.05266e-06 0)
(-12.8209 -1.03963e-06 0)
(-12.8035 -1.02617e-06 0)
(-12.7862 -1.01423e-06 0)
(-12.7688 -1.00158e-06 0)
(-12.7516 -9.89277e-07 0)
(-12.7343 -9.78225e-07 0)
(-12.7171 -9.6522e-07 0)
(-12.6998 -9.54544e-07 0)
(-12.6826 -9.43134e-07 0)
(-12.6654 -9.30961e-07 0)
(-12.6483 -9.17546e-07 0)
(-12.6313 -9.04976e-07 0)
(-12.6142 -8.94709e-07 0)
(-12.5972 -8.84398e-07 0)
(-12.5802 -8.73144e-07 0)
(-12.5632 -8.62221e-07 0)
(-12.5463 -8.50964e-07 0)
(-12.5294 -8.40425e-07 0)
(-12.5125 -8.30315e-07 0)
(-12.4957 -8.18857e-07 0)
(-12.4789 -8.07309e-07 0)
(-12.4622 -7.97491e-07 0)
(-12.4454 -7.87171e-07 0)
(-12.4288 -7.77524e-07 0)
(-12.4121 -7.67062e-07 0)
(-12.3955 -7.57533e-07 0)
(-12.3789 -7.48058e-07 0)
(-12.3624 -7.38876e-07 0)
(-12.3458 -7.28659e-07 0)
(-12.3294 -7.19007e-07 0)
(-12.313 -7.09978e-07 0)
(-12.2966 -7.01261e-07 0)
(-12.2802 -6.92244e-07 0)
(-12.2639 -6.82901e-07 0)
(-12.2475 -6.73768e-07 0)
(-12.2314 -6.65397e-07 0)
(-12.2151 -6.56882e-07 0)
(-12.199 -6.47205e-07 0)
(-12.1828 -6.3906e-07 0)
(-12.1667 -6.31123e-07 0)
(-12.1506 -6.22623e-07 0)
(-12.1347 -6.13242e-07 0)
(-12.1187 -6.04868e-07 0)
(-12.1028 -5.9739e-07 0)
(-12.0869 -5.8953e-07 0)
(-12.0711 -5.81886e-07 0)
(-12.0552 -5.74706e-07 0)
(-12.0395 -5.66676e-07 0)
(-12.0238 -5.58995e-07 0)
(-12.0081 -5.51507e-07 0)
(-11.9924 -5.44185e-07 0)
(-11.9769 -5.36892e-07 0)
(-11.9613 -5.30244e-07 0)
(-11.9458 -5.22672e-07 0)
(-11.9303 -5.1605e-07 0)
(-11.9148 -5.09092e-07 0)
(-11.8995 -5.02142e-07 0)
(-11.8841 -4.95332e-07 0)
(-11.8688 -4.89062e-07 0)
(-11.8535 -4.80396e-07 0)
(-11.8367 -4.71362e-07 0)
(-11.8184 -4.63394e-07 0)
(-11.8004 -4.56657e-07 0)
(-11.7826 -4.50057e-07 0)
(-11.7652 -4.43236e-07 0)
(-11.748 -4.36615e-07 0)
(-11.7311 -4.30055e-07 0)
(-11.7143 -4.23382e-07 0)
(-11.6979 -4.17482e-07 0)
(-11.6816 -4.11658e-07 0)
(-11.6657 -4.05293e-07 0)
(-11.6499 -3.994e-07 0)
(-11.6345 -3.93606e-07 0)
(-11.6191 -3.8802e-07 0)
(-11.6041 -3.82475e-07 0)
(-11.5892 -3.77711e-07 0)
(-11.5746 -3.72135e-07 0)
(-11.5601 -3.67343e-07 0)
(-11.5458 -3.62028e-07 0)
(-11.5318 -3.57172e-07 0)
(-11.5179 -3.52941e-07 0)
(-11.5041 -3.48799e-07 0)
(-11.4906 -3.43736e-07 0)
(-11.4772 -3.39034e-07 0)
(-11.464 -3.34748e-07 0)
(-11.451 -3.30535e-07 0)
(-11.4382 -3.27326e-07 0)
(-11.4254 -3.22602e-07 0)
(-11.4129 -3.19031e-07 0)
(-11.4005 -3.15633e-07 0)
(-11.3882 -3.11355e-07 0)
(-11.3761 -3.06974e-07 0)
(-11.3642 -3.03794e-07 0)
(-11.3523 -3.00577e-07 0)
(-11.3407 -2.97563e-07 0)
(-11.3291 -2.94264e-07 0)
(-11.3177 -2.90982e-07 0)
(-11.3063 -2.87943e-07 0)
(-11.2951 -2.84493e-07 0)
(-11.284 -2.81514e-07 0)
(-11.2731 -2.78341e-07 0)
(-11.2622 -2.75407e-07 0)
(-11.2516 -2.72761e-07 0)
(-11.2409 -2.69626e-07 0)
(-11.2305 -2.66702e-07 0)
(-11.22 -2.64216e-07 0)
(-11.2098 -2.61016e-07 0)
(-11.1996 -2.5844e-07 0)
(-11.1896 -2.55592e-07 0)
(-11.1796 -2.53041e-07 0)
(-11.1698 -2.50224e-07 0)
(-11.16 -2.48278e-07 0)
(-11.1504 -2.45628e-07 0)
(-11.1408 -2.43009e-07 0)
(-11.1313 -2.40793e-07 0)
(-11.122 -2.38243e-07 0)
(-11.1127 -2.35933e-07 0)
(-11.1035 -2.33702e-07 0)
(-11.0944 -2.31199e-07 0)
(-11.0854 -2.28827e-07 0)
(-11.0765 -2.26991e-07 0)
(-11.0677 -2.24945e-07 0)
(-11.0589 -2.22983e-07 0)
(-11.0502 -2.20833e-07 0)
(-11.0416 -2.19064e-07 0)
(-11.0331 -2.16892e-07 0)
(-11.0247 -2.14821e-07 0)
(-11.0163 -2.12706e-07 0)
(-11.008 -2.1209e-07 0)
(-10.9997 -2.09431e-07 0)
(-10.9916 -2.07833e-07 0)
(-10.9834 -2.0571e-07 0)
(-10.9755 -2.0453e-07 0)
(-10.9674 -2.02533e-07 0)
(-10.9597 -2.01411e-07 0)
(-10.9517 -1.99122e-07 0)
(-10.9441 -1.98715e-07 0)
(-10.9361 -1.96502e-07 0)
(-10.9287 -1.95832e-07 0)
(-10.9208 -1.93775e-07 0)
(-10.9136 -1.92946e-07 0)
(-10.9057 -1.91571e-07 0)
(-10.8986 -1.90392e-07 0)
(-10.8908 -1.89665e-07 0)
(-10.8837 -1.87434e-07 0)
(-10.8761 -1.87482e-07 0)
(-10.8691 -1.83239e-07 0)
(-10.8618 -1.87287e-07 0)
(-10.8544 -1.76986e-07 0)
(-10.848 -1.91242e-07 0)
(-10.8394 -1.64292e-07 0)
(-10.8352 -2.0467e-07 0)
(-10.8233 -1.40884e-07 0)
(-10.8243 -1.78447e-07 0)
(-10.8091 -1.99478e-07 0)
)
;
    }
    symmetry
    {
        type            symmetryPlane;
    }
    frontAndBack
    {
        type            empty;
    }
}


// ************************************************************************* //
