/*--------------------------------*- C++ -*----------------------------------*\
| =========                 |                                                 |
| \\      /  F ield         | OpenFOAM: The Open Source CFD Toolbox           |
|  \\    /   O peration     | Version:  v2012                                 |
|   \\  /    A nd           | Website:  www.openfoam.com                      |
|    \\/     M anipulation  |                                                 |
\*---------------------------------------------------------------------------*/
FoamFile
{
    version     2.0;
    format      ascii;
    class       volScalarField;
    location    "40";
    object      nut;
}
// * * * * * * * * * * * * * * * * * * * * * * * * * * * * * * * * * * * * * //

dimensions      [0 2 -1 0 0 0 0];


internalField   nonuniform List<scalar> 
209825
(
1.2472e-07
1.23172e-07
1.18404e-07
1.11576e-07
1.04259e-07
9.74139e-08
9.13416e-08
8.61074e-08
8.15986e-08
7.77413e-08
7.44e-08
7.152e-08
6.89923e-08
6.67948e-08
6.4839e-08
6.31241e-08
6.15778e-08
6.02137e-08
5.89689e-08
5.78662e-08
5.68475e-08
5.59431e-08
5.50984e-08
5.43465e-08
5.36367e-08
5.3005e-08
5.24033e-08
5.1868e-08
5.13512e-08
5.08948e-08
5.04496e-08
5.00566e-08
4.96685e-08
4.93287e-08
4.89896e-08
4.8695e-08
4.83968e-08
4.81401e-08
4.78767e-08
4.76517e-08
4.74176e-08
4.72197e-08
4.70099e-08
4.68362e-08
4.66496e-08
4.64955e-08
4.63271e-08
4.61913e-08
4.6041e-08
4.59195e-08
4.57833e-08
4.56791e-08
4.55556e-08
4.54625e-08
4.53479e-08
4.52685e-08
4.51689e-08
4.50935e-08
4.50053e-08
4.49372e-08
4.48507e-08
4.47955e-08
4.47125e-08
4.46615e-08
4.45845e-08
4.45373e-08
4.44666e-08
4.44184e-08
4.43617e-08
4.43167e-08
4.42621e-08
4.42175e-08
4.41687e-08
4.41259e-08
4.40797e-08
4.40384e-08
4.39953e-08
4.39565e-08
4.39176e-08
4.38808e-08
4.38446e-08
4.38087e-08
4.37751e-08
4.37411e-08
4.37171e-08
4.36898e-08
4.36697e-08
4.36449e-08
4.3626e-08
4.35999e-08
4.35788e-08
4.35466e-08
4.3524e-08
4.3871e-08
3.49446e-06
2.26483e-08
1.2472e-07
1.23172e-07
1.18405e-07
1.11577e-07
1.04261e-07
9.74163e-08
9.1344e-08
8.61097e-08
8.16008e-08
7.77434e-08
7.4402e-08
7.15217e-08
6.89939e-08
6.67962e-08
6.48403e-08
6.31253e-08
6.15789e-08
6.02147e-08
5.89698e-08
5.7867e-08
5.68482e-08
5.59437e-08
5.50989e-08
5.4347e-08
5.36371e-08
5.30054e-08
5.24036e-08
5.18682e-08
5.13515e-08
5.0895e-08
5.04497e-08
5.00567e-08
4.96686e-08
4.93288e-08
4.89896e-08
4.8695e-08
4.83967e-08
4.814e-08
4.78766e-08
4.76516e-08
4.74175e-08
4.72196e-08
4.70097e-08
4.6836e-08
4.66494e-08
4.64953e-08
4.63268e-08
4.61911e-08
4.60407e-08
4.59192e-08
4.5783e-08
4.56787e-08
4.55553e-08
4.54622e-08
4.53475e-08
4.52681e-08
4.51685e-08
4.50931e-08
4.50049e-08
4.49368e-08
4.48503e-08
4.47951e-08
4.47121e-08
4.4661e-08
4.4584e-08
4.45369e-08
4.44661e-08
4.44179e-08
4.43613e-08
4.43162e-08
4.42616e-08
4.4217e-08
4.41682e-08
4.41254e-08
4.40792e-08
4.40379e-08
4.39948e-08
4.3956e-08
4.3917e-08
4.38803e-08
4.3844e-08
4.38081e-08
4.37745e-08
4.37406e-08
4.37166e-08
4.36893e-08
4.36691e-08
4.36444e-08
4.36254e-08
4.35993e-08
4.35782e-08
4.3546e-08
4.35234e-08
4.38708e-08
3.49532e-06
2.28327e-08
1.24719e-07
1.23173e-07
1.18409e-07
1.11585e-07
1.0427e-07
9.7426e-08
9.13537e-08
8.6119e-08
8.16096e-08
7.77515e-08
7.44094e-08
7.15285e-08
6.90001e-08
6.68018e-08
6.48454e-08
6.31299e-08
6.1583e-08
6.02184e-08
5.89731e-08
5.78699e-08
5.68508e-08
5.59461e-08
5.5101e-08
5.43488e-08
5.36387e-08
5.30067e-08
5.24047e-08
5.18692e-08
5.13523e-08
5.08956e-08
5.04502e-08
5.00571e-08
4.96688e-08
4.93289e-08
4.89896e-08
4.86949e-08
4.83965e-08
4.81396e-08
4.78762e-08
4.76511e-08
4.74169e-08
4.72189e-08
4.70089e-08
4.68351e-08
4.66484e-08
4.64943e-08
4.63258e-08
4.619e-08
4.60395e-08
4.5918e-08
4.57817e-08
4.56774e-08
4.55539e-08
4.54608e-08
4.53461e-08
4.52666e-08
4.5167e-08
4.50915e-08
4.50032e-08
4.49352e-08
4.48486e-08
4.47934e-08
4.47104e-08
4.46593e-08
4.45823e-08
4.45351e-08
4.44643e-08
4.44161e-08
4.43594e-08
4.43143e-08
4.42597e-08
4.4215e-08
4.41662e-08
4.41235e-08
4.40773e-08
4.40359e-08
4.39928e-08
4.3954e-08
4.3915e-08
4.38782e-08
4.38419e-08
4.3806e-08
4.37724e-08
4.37384e-08
4.37144e-08
4.3687e-08
4.36668e-08
4.36421e-08
4.36231e-08
4.3597e-08
4.35758e-08
4.35436e-08
4.3521e-08
4.38693e-08
3.4979e-06
2.31014e-08
1.24718e-07
1.23174e-07
1.18416e-07
1.11597e-07
1.04286e-07
9.74423e-08
9.13701e-08
8.61348e-08
8.16244e-08
7.77651e-08
7.44219e-08
7.154e-08
6.90105e-08
6.68113e-08
6.48539e-08
6.31376e-08
6.15899e-08
6.02246e-08
5.89787e-08
5.78749e-08
5.68553e-08
5.595e-08
5.51045e-08
5.43519e-08
5.36414e-08
5.3009e-08
5.24067e-08
5.18709e-08
5.13536e-08
5.08967e-08
5.0451e-08
5.00577e-08
4.96692e-08
4.9329e-08
4.89895e-08
4.86947e-08
4.83961e-08
4.81391e-08
4.78754e-08
4.76502e-08
4.74159e-08
4.72177e-08
4.70077e-08
4.68338e-08
4.66469e-08
4.64927e-08
4.63241e-08
4.61882e-08
4.60376e-08
4.5916e-08
4.57796e-08
4.56753e-08
4.55517e-08
4.54585e-08
4.53437e-08
4.52641e-08
4.51645e-08
4.50889e-08
4.50006e-08
4.49325e-08
4.48459e-08
4.47906e-08
4.47075e-08
4.46564e-08
4.45793e-08
4.45321e-08
4.44613e-08
4.44131e-08
4.43563e-08
4.43112e-08
4.42566e-08
4.42119e-08
4.4163e-08
4.41203e-08
4.4074e-08
4.40326e-08
4.39895e-08
4.39506e-08
4.39116e-08
4.38748e-08
4.38385e-08
4.38025e-08
4.37689e-08
4.37349e-08
4.37107e-08
4.36833e-08
4.36631e-08
4.36383e-08
4.36193e-08
4.35931e-08
4.35719e-08
4.35396e-08
4.3517e-08
4.38667e-08
3.5021e-06
2.34273e-08
1.24717e-07
1.23177e-07
1.18426e-07
1.11614e-07
1.04307e-07
9.74654e-08
9.13932e-08
8.6157e-08
8.16453e-08
7.77845e-08
7.44397e-08
7.15562e-08
6.90252e-08
6.68246e-08
6.4866e-08
6.31485e-08
6.15997e-08
6.02335e-08
5.89866e-08
5.7882e-08
5.68616e-08
5.59557e-08
5.51094e-08
5.43563e-08
5.36452e-08
5.30123e-08
5.24095e-08
5.18733e-08
5.13556e-08
5.08983e-08
5.04523e-08
5.00586e-08
4.96697e-08
4.93293e-08
4.89895e-08
4.86944e-08
4.83956e-08
4.81383e-08
4.78745e-08
4.7649e-08
4.74145e-08
4.72162e-08
4.70059e-08
4.68319e-08
4.66449e-08
4.64905e-08
4.63217e-08
4.61857e-08
4.6035e-08
4.59133e-08
4.57767e-08
4.56723e-08
4.55486e-08
4.54553e-08
4.53404e-08
4.52607e-08
4.5161e-08
4.50853e-08
4.49969e-08
4.49287e-08
4.4842e-08
4.47867e-08
4.47036e-08
4.46524e-08
4.45753e-08
4.4528e-08
4.44571e-08
4.44089e-08
4.43521e-08
4.43069e-08
4.42522e-08
4.42075e-08
4.41586e-08
4.41158e-08
4.40695e-08
4.40281e-08
4.39849e-08
4.3946e-08
4.39069e-08
4.38701e-08
4.38337e-08
4.37977e-08
4.3764e-08
4.373e-08
4.37056e-08
4.36781e-08
4.36578e-08
4.3633e-08
4.36139e-08
4.35877e-08
4.35665e-08
4.35341e-08
4.35115e-08
4.38631e-08
3.50798e-06
2.38004e-08
1.24715e-07
1.2318e-07
1.18439e-07
1.11636e-07
1.04335e-07
9.74955e-08
9.14233e-08
8.61859e-08
8.16724e-08
7.78096e-08
7.44628e-08
7.15772e-08
6.90443e-08
6.6842e-08
6.48817e-08
6.31627e-08
6.16125e-08
6.0245e-08
5.8997e-08
5.78913e-08
5.68699e-08
5.5963e-08
5.5116e-08
5.4362e-08
5.36502e-08
5.30167e-08
5.24133e-08
5.18764e-08
5.13582e-08
5.09004e-08
5.04539e-08
5.00598e-08
4.96705e-08
4.93297e-08
4.89896e-08
4.86941e-08
4.8395e-08
4.81374e-08
4.78733e-08
4.76476e-08
4.74128e-08
4.72142e-08
4.70037e-08
4.68295e-08
4.66422e-08
4.64877e-08
4.63187e-08
4.61825e-08
4.60316e-08
4.59097e-08
4.57731e-08
4.56684e-08
4.55446e-08
4.54512e-08
4.53361e-08
4.52563e-08
4.51565e-08
4.50807e-08
4.49922e-08
4.49239e-08
4.48371e-08
4.47817e-08
4.46985e-08
4.46473e-08
4.457e-08
4.45228e-08
4.44517e-08
4.44035e-08
4.43465e-08
4.43013e-08
4.42466e-08
4.42018e-08
4.41529e-08
4.411e-08
4.40637e-08
4.40222e-08
4.39789e-08
4.394e-08
4.39008e-08
4.38639e-08
4.38275e-08
4.37914e-08
4.37577e-08
4.37236e-08
4.3699e-08
4.36714e-08
4.36511e-08
4.36262e-08
4.3607e-08
4.35807e-08
4.35595e-08
4.3527e-08
4.35044e-08
4.38584e-08
3.51556e-06
2.42178e-08
1.24713e-07
1.23183e-07
1.18455e-07
1.11664e-07
1.04369e-07
9.75325e-08
9.14604e-08
8.62216e-08
8.17059e-08
7.78406e-08
7.44913e-08
7.16033e-08
6.9068e-08
6.68635e-08
6.49011e-08
6.31803e-08
6.16284e-08
6.02593e-08
5.90098e-08
5.79028e-08
5.68802e-08
5.59722e-08
5.5124e-08
5.43692e-08
5.36564e-08
5.30221e-08
5.24179e-08
5.18804e-08
5.13615e-08
5.09031e-08
5.0456e-08
5.00613e-08
4.96716e-08
4.93303e-08
4.89897e-08
4.86938e-08
4.83943e-08
4.81364e-08
4.78718e-08
4.76458e-08
4.74107e-08
4.72119e-08
4.70011e-08
4.68265e-08
4.66391e-08
4.64843e-08
4.6315e-08
4.61786e-08
4.60275e-08
4.59055e-08
4.57686e-08
4.56638e-08
4.55397e-08
4.54462e-08
4.5331e-08
4.5251e-08
4.5151e-08
4.50751e-08
4.49864e-08
4.49181e-08
4.48311e-08
4.47756e-08
4.46923e-08
4.4641e-08
4.45636e-08
4.45163e-08
4.44451e-08
4.43969e-08
4.43398e-08
4.42945e-08
4.42397e-08
4.41949e-08
4.41459e-08
4.4103e-08
4.40565e-08
4.4015e-08
4.39716e-08
4.39326e-08
4.38933e-08
4.38564e-08
4.38199e-08
4.37838e-08
4.37499e-08
4.37158e-08
4.3691e-08
4.36631e-08
4.36428e-08
4.36178e-08
4.35986e-08
4.35721e-08
4.35509e-08
4.35183e-08
4.34957e-08
4.38527e-08
3.52488e-06
2.46807e-08
1.24711e-07
1.23188e-07
1.18474e-07
1.11696e-07
1.0441e-07
9.75767e-08
9.15047e-08
8.62642e-08
8.1746e-08
7.78778e-08
7.45254e-08
7.16344e-08
6.90964e-08
6.68892e-08
6.49245e-08
6.32013e-08
6.16474e-08
6.02764e-08
5.90252e-08
5.79166e-08
5.68925e-08
5.59831e-08
5.51338e-08
5.43778e-08
5.3664e-08
5.30287e-08
5.24235e-08
5.18852e-08
5.13655e-08
5.09064e-08
5.04585e-08
5.00633e-08
4.96729e-08
4.93311e-08
4.89899e-08
4.86935e-08
4.83935e-08
4.81352e-08
4.78702e-08
4.76438e-08
4.74083e-08
4.72091e-08
4.69979e-08
4.68231e-08
4.66353e-08
4.64803e-08
4.63107e-08
4.61741e-08
4.60227e-08
4.59004e-08
4.57632e-08
4.56583e-08
4.5534e-08
4.54402e-08
4.53248e-08
4.52447e-08
4.51444e-08
4.50684e-08
4.49795e-08
4.49111e-08
4.48239e-08
4.47684e-08
4.46849e-08
4.46335e-08
4.4556e-08
4.45087e-08
4.44373e-08
4.4389e-08
4.43318e-08
4.42864e-08
4.42315e-08
4.41866e-08
4.41375e-08
4.40946e-08
4.4048e-08
4.40064e-08
4.39629e-08
4.39239e-08
4.38845e-08
4.38475e-08
4.38108e-08
4.37747e-08
4.37407e-08
4.37065e-08
4.36814e-08
4.36534e-08
4.3633e-08
4.36079e-08
4.35885e-08
4.3562e-08
4.35406e-08
4.35079e-08
4.34853e-08
4.38459e-08
3.53596e-06
2.51935e-08
1.24708e-07
1.23192e-07
1.18497e-07
1.11734e-07
1.04458e-07
9.76281e-08
9.15562e-08
8.63139e-08
8.17927e-08
7.79211e-08
7.45652e-08
7.16708e-08
6.91295e-08
6.69193e-08
6.49517e-08
6.3226e-08
6.16697e-08
6.02965e-08
5.90432e-08
5.79328e-08
5.6907e-08
5.5996e-08
5.51452e-08
5.43879e-08
5.36728e-08
5.30364e-08
5.24302e-08
5.18908e-08
5.13702e-08
5.09102e-08
5.04616e-08
5.00656e-08
4.96745e-08
4.9332e-08
4.89902e-08
4.86933e-08
4.83926e-08
4.81338e-08
4.78683e-08
4.76415e-08
4.74055e-08
4.7206e-08
4.69944e-08
4.68192e-08
4.6631e-08
4.64756e-08
4.63057e-08
4.61688e-08
4.60171e-08
4.58946e-08
4.57571e-08
4.56519e-08
4.55273e-08
4.54334e-08
4.53177e-08
4.52373e-08
4.51369e-08
4.50607e-08
4.49715e-08
4.4903e-08
4.48156e-08
4.47599e-08
4.46763e-08
4.46248e-08
4.45472e-08
4.44998e-08
4.44282e-08
4.43799e-08
4.43225e-08
4.4277e-08
4.4222e-08
4.4177e-08
4.41278e-08
4.40848e-08
4.40382e-08
4.39965e-08
4.39529e-08
4.39137e-08
4.38742e-08
4.38371e-08
4.38003e-08
4.37641e-08
4.373e-08
4.36957e-08
4.36703e-08
4.3642e-08
4.36216e-08
4.35963e-08
4.35768e-08
4.35501e-08
4.35287e-08
4.34958e-08
4.34733e-08
4.38381e-08
3.54879e-06
2.57632e-08
1.24705e-07
1.23198e-07
1.18522e-07
1.11778e-07
1.04512e-07
9.76868e-08
9.16153e-08
8.63708e-08
8.18463e-08
7.79708e-08
7.46109e-08
7.17126e-08
6.91676e-08
6.69539e-08
6.4983e-08
6.32543e-08
6.16953e-08
6.03196e-08
5.9064e-08
5.79514e-08
5.69236e-08
5.60109e-08
5.51584e-08
5.43995e-08
5.3683e-08
5.30453e-08
5.24378e-08
5.18974e-08
5.13757e-08
5.09147e-08
5.04651e-08
5.00683e-08
4.96764e-08
4.93332e-08
4.89906e-08
4.8693e-08
4.83917e-08
4.81323e-08
4.78663e-08
4.76389e-08
4.74024e-08
4.72024e-08
4.69903e-08
4.68147e-08
4.66261e-08
4.64704e-08
4.63001e-08
4.61628e-08
4.60107e-08
4.58879e-08
4.57501e-08
4.56446e-08
4.55197e-08
4.54256e-08
4.53096e-08
4.5229e-08
4.51283e-08
4.50519e-08
4.49624e-08
4.48938e-08
4.48061e-08
4.47504e-08
4.46666e-08
4.46149e-08
4.45371e-08
4.44897e-08
4.44178e-08
4.43695e-08
4.43119e-08
4.42662e-08
4.42112e-08
4.41661e-08
4.41168e-08
4.40737e-08
4.40269e-08
4.39852e-08
4.39414e-08
4.39021e-08
4.38624e-08
4.38253e-08
4.37883e-08
4.3752e-08
4.37178e-08
4.36834e-08
4.36576e-08
4.36291e-08
4.36086e-08
4.35831e-08
4.35635e-08
4.35366e-08
4.35152e-08
4.3482e-08
4.34595e-08
4.38292e-08
3.56336e-06
2.63985e-08
1.24701e-07
1.23204e-07
1.1855e-07
1.11826e-07
1.04573e-07
9.77531e-08
9.1682e-08
8.64351e-08
8.19068e-08
7.8027e-08
7.46626e-08
7.17599e-08
6.92107e-08
6.69931e-08
6.50186e-08
6.32865e-08
6.17243e-08
6.03458e-08
5.90875e-08
5.79726e-08
5.69425e-08
5.60278e-08
5.51734e-08
5.44128e-08
5.36947e-08
5.30555e-08
5.24466e-08
5.19049e-08
5.1382e-08
5.09199e-08
5.04693e-08
5.00715e-08
4.96786e-08
4.93345e-08
4.89912e-08
4.86928e-08
4.83908e-08
4.81307e-08
4.7864e-08
4.76361e-08
4.73989e-08
4.71984e-08
4.69858e-08
4.68097e-08
4.66206e-08
4.64645e-08
4.62937e-08
4.61561e-08
4.60036e-08
4.58805e-08
4.57422e-08
4.56365e-08
4.55112e-08
4.54168e-08
4.53005e-08
4.52196e-08
4.51186e-08
4.5042e-08
4.49523e-08
4.48835e-08
4.47955e-08
4.47396e-08
4.46556e-08
4.46038e-08
4.45258e-08
4.44783e-08
4.44062e-08
4.43578e-08
4.42999e-08
4.42542e-08
4.4199e-08
4.41538e-08
4.41044e-08
4.40612e-08
4.40142e-08
4.39724e-08
4.39284e-08
4.38891e-08
4.38492e-08
4.38119e-08
4.37748e-08
4.37384e-08
4.37041e-08
4.36695e-08
4.36434e-08
4.36146e-08
4.35939e-08
4.35683e-08
4.35485e-08
4.35214e-08
4.34999e-08
4.34665e-08
4.3444e-08
4.38193e-08
3.57962e-06
2.71101e-08
1.24697e-07
1.23211e-07
1.18581e-07
1.1188e-07
1.04641e-07
9.7827e-08
9.17564e-08
8.65069e-08
8.19745e-08
7.80899e-08
7.47205e-08
7.18129e-08
6.9259e-08
6.7037e-08
6.50584e-08
6.33226e-08
6.17569e-08
6.03752e-08
5.9114e-08
5.79964e-08
5.69638e-08
5.60468e-08
5.51903e-08
5.44278e-08
5.37078e-08
5.3067e-08
5.24565e-08
5.19134e-08
5.13891e-08
5.09258e-08
5.0474e-08
5.00751e-08
4.96812e-08
4.93362e-08
4.89919e-08
4.86927e-08
4.83898e-08
4.8129e-08
4.78615e-08
4.7633e-08
4.73951e-08
4.71941e-08
4.69809e-08
4.68043e-08
4.66146e-08
4.6458e-08
4.62868e-08
4.61487e-08
4.59957e-08
4.58723e-08
4.57336e-08
4.56274e-08
4.55018e-08
4.54071e-08
4.52904e-08
4.52092e-08
4.51079e-08
4.5031e-08
4.49409e-08
4.4872e-08
4.47836e-08
4.47275e-08
4.46434e-08
4.45914e-08
4.45132e-08
4.44656e-08
4.43932e-08
4.43448e-08
4.42866e-08
4.42407e-08
4.41855e-08
4.41401e-08
4.40906e-08
4.40473e-08
4.40001e-08
4.39582e-08
4.3914e-08
4.38746e-08
4.38344e-08
4.37971e-08
4.37597e-08
4.37233e-08
4.36888e-08
4.36541e-08
4.36275e-08
4.35984e-08
4.35775e-08
4.35517e-08
4.35318e-08
4.35045e-08
4.34828e-08
4.34492e-08
4.34268e-08
4.38083e-08
3.59748e-06
2.79099e-08
1.24693e-07
1.23218e-07
1.18616e-07
1.1194e-07
1.04716e-07
9.79087e-08
9.18387e-08
8.65865e-08
8.20495e-08
7.81596e-08
7.47847e-08
7.18717e-08
6.93126e-08
6.70857e-08
6.51026e-08
6.33627e-08
6.17932e-08
6.04079e-08
5.91435e-08
5.80229e-08
5.69876e-08
5.6068e-08
5.52092e-08
5.44445e-08
5.37225e-08
5.30798e-08
5.24676e-08
5.19229e-08
5.13971e-08
5.09325e-08
5.04793e-08
5.00792e-08
4.96842e-08
4.93381e-08
4.89928e-08
4.86927e-08
4.83889e-08
4.81273e-08
4.78589e-08
4.76297e-08
4.73911e-08
4.71894e-08
4.69755e-08
4.67983e-08
4.6608e-08
4.64509e-08
4.62791e-08
4.61406e-08
4.59871e-08
4.58632e-08
4.5724e-08
4.56175e-08
4.54914e-08
4.53964e-08
4.52793e-08
4.51977e-08
4.50961e-08
4.50189e-08
4.49284e-08
4.48593e-08
4.47706e-08
4.47143e-08
4.46299e-08
4.45778e-08
4.44993e-08
4.44516e-08
4.43789e-08
4.43305e-08
4.4272e-08
4.42259e-08
4.41705e-08
4.4125e-08
4.40753e-08
4.40319e-08
4.39846e-08
4.39425e-08
4.38981e-08
4.38585e-08
4.38182e-08
4.37807e-08
4.37432e-08
4.37066e-08
4.36719e-08
4.3637e-08
4.361e-08
4.35806e-08
4.35595e-08
4.35334e-08
4.35133e-08
4.34858e-08
4.3464e-08
4.343e-08
4.34077e-08
4.37963e-08
3.61684e-06
2.88113e-08
1.24688e-07
1.23226e-07
1.18653e-07
1.12005e-07
1.04798e-07
9.79982e-08
9.1929e-08
8.66738e-08
8.2132e-08
7.82363e-08
7.48554e-08
7.19365e-08
6.93717e-08
6.71395e-08
6.51515e-08
6.34069e-08
6.18332e-08
6.04441e-08
5.9176e-08
5.80522e-08
5.70138e-08
5.60915e-08
5.52301e-08
5.4463e-08
5.37389e-08
5.30941e-08
5.248e-08
5.19336e-08
5.14061e-08
5.094e-08
5.04853e-08
5.00839e-08
4.96876e-08
4.93404e-08
4.89939e-08
4.86928e-08
4.83879e-08
4.81254e-08
4.78562e-08
4.76261e-08
4.73867e-08
4.71843e-08
4.69697e-08
4.67919e-08
4.66009e-08
4.64433e-08
4.62708e-08
4.61318e-08
4.59777e-08
4.58534e-08
4.57136e-08
4.56067e-08
4.54801e-08
4.53847e-08
4.52672e-08
4.51852e-08
4.50832e-08
4.50057e-08
4.49148e-08
4.48455e-08
4.47564e-08
4.46999e-08
4.46152e-08
4.45629e-08
4.44842e-08
4.44363e-08
4.43633e-08
4.43148e-08
4.4256e-08
4.42097e-08
4.41542e-08
4.41085e-08
4.40586e-08
4.40151e-08
4.39676e-08
4.39254e-08
4.38808e-08
4.3841e-08
4.38004e-08
4.37628e-08
4.3725e-08
4.36883e-08
4.36533e-08
4.36184e-08
4.35909e-08
4.35611e-08
4.35398e-08
4.35134e-08
4.34931e-08
4.34653e-08
4.34434e-08
4.34091e-08
4.33869e-08
4.37831e-08
3.6375e-06
2.98284e-08
1.24683e-07
1.23234e-07
1.18693e-07
1.12075e-07
1.04887e-07
9.80956e-08
9.20276e-08
8.67693e-08
8.22221e-08
7.83202e-08
7.49328e-08
7.20074e-08
6.94365e-08
6.71985e-08
6.5205e-08
6.34555e-08
6.18772e-08
6.04838e-08
5.92119e-08
5.80844e-08
5.70427e-08
5.61174e-08
5.52531e-08
5.44835e-08
5.37569e-08
5.31099e-08
5.24937e-08
5.19454e-08
5.14161e-08
5.09483e-08
5.0492e-08
5.00892e-08
4.96915e-08
4.9343e-08
4.89952e-08
4.8693e-08
4.83871e-08
4.81236e-08
4.78534e-08
4.76224e-08
4.73821e-08
4.7179e-08
4.69635e-08
4.6785e-08
4.65932e-08
4.6435e-08
4.62619e-08
4.61223e-08
4.59676e-08
4.58428e-08
4.57024e-08
4.5595e-08
4.54679e-08
4.53721e-08
4.52541e-08
4.51717e-08
4.50692e-08
4.49914e-08
4.49001e-08
4.48305e-08
4.4741e-08
4.46841e-08
4.45992e-08
4.45467e-08
4.44677e-08
4.44197e-08
4.43463e-08
4.42978e-08
4.42386e-08
4.41921e-08
4.41364e-08
4.40905e-08
4.40405e-08
4.39968e-08
4.39491e-08
4.39067e-08
4.38618e-08
4.38219e-08
4.37811e-08
4.37433e-08
4.37052e-08
4.36684e-08
4.36332e-08
4.35981e-08
4.35701e-08
4.35399e-08
4.35184e-08
4.34917e-08
4.34711e-08
4.3443e-08
4.3421e-08
4.33862e-08
4.33642e-08
4.37689e-08
3.65926e-06
3.09766e-08
1.24677e-07
1.23243e-07
1.18736e-07
1.12151e-07
1.04984e-07
9.82012e-08
9.21344e-08
8.68729e-08
8.23201e-08
7.84115e-08
7.5017e-08
7.20847e-08
6.95071e-08
6.72628e-08
6.52635e-08
6.35085e-08
6.19252e-08
6.05272e-08
5.9251e-08
5.81197e-08
5.70744e-08
5.61457e-08
5.52784e-08
5.45059e-08
5.37767e-08
5.31273e-08
5.25089e-08
5.19584e-08
5.14272e-08
5.09575e-08
5.04995e-08
5.00952e-08
4.96959e-08
4.93461e-08
4.89969e-08
4.86935e-08
4.83863e-08
4.81218e-08
4.78504e-08
4.76185e-08
4.73772e-08
4.71733e-08
4.69569e-08
4.67776e-08
4.65851e-08
4.64262e-08
4.62523e-08
4.61121e-08
4.59567e-08
4.58314e-08
4.56904e-08
4.55825e-08
4.54548e-08
4.53586e-08
4.52401e-08
4.51571e-08
4.50542e-08
4.4976e-08
4.48841e-08
4.48143e-08
4.47243e-08
4.46672e-08
4.45819e-08
4.45292e-08
4.445e-08
4.44017e-08
4.43279e-08
4.42794e-08
4.42197e-08
4.41731e-08
4.41172e-08
4.40711e-08
4.40209e-08
4.39771e-08
4.39291e-08
4.38866e-08
4.38414e-08
4.38013e-08
4.37602e-08
4.37223e-08
4.36839e-08
4.36469e-08
4.36115e-08
4.35762e-08
4.35476e-08
4.3517e-08
4.34952e-08
4.34682e-08
4.34474e-08
4.34189e-08
4.33967e-08
4.33615e-08
4.33396e-08
4.37535e-08
3.68182e-06
3.22722e-08
1.24671e-07
1.23252e-07
1.18782e-07
1.12232e-07
1.05087e-07
9.8315e-08
9.22498e-08
8.69849e-08
8.24262e-08
7.85104e-08
7.51083e-08
7.21685e-08
6.95837e-08
6.73326e-08
6.5327e-08
6.35662e-08
6.19774e-08
6.05745e-08
5.92937e-08
5.81581e-08
5.71089e-08
5.61766e-08
5.53059e-08
5.45305e-08
5.37984e-08
5.31464e-08
5.25254e-08
5.19728e-08
5.14394e-08
5.09678e-08
5.05079e-08
5.01018e-08
4.97009e-08
4.93496e-08
4.89989e-08
4.86942e-08
4.83857e-08
4.812e-08
4.78475e-08
4.76146e-08
4.73722e-08
4.71673e-08
4.695e-08
4.67699e-08
4.65764e-08
4.64168e-08
4.62421e-08
4.61012e-08
4.59451e-08
4.58192e-08
4.56775e-08
4.55691e-08
4.54407e-08
4.53441e-08
4.5225e-08
4.51415e-08
4.5038e-08
4.49595e-08
4.48671e-08
4.4797e-08
4.47065e-08
4.4649e-08
4.45634e-08
4.45105e-08
4.4431e-08
4.43824e-08
4.43082e-08
4.42596e-08
4.41995e-08
4.41526e-08
4.40965e-08
4.40503e-08
4.39998e-08
4.39559e-08
4.39076e-08
4.38649e-08
4.38195e-08
4.37792e-08
4.37377e-08
4.36996e-08
4.36609e-08
4.36238e-08
4.3588e-08
4.35526e-08
4.35235e-08
4.34925e-08
4.34703e-08
4.34428e-08
4.34219e-08
4.33929e-08
4.33707e-08
4.33349e-08
4.33132e-08
4.37369e-08
3.70482e-06
3.37322e-08
1.24665e-07
1.23262e-07
1.18831e-07
1.12319e-07
1.05198e-07
9.8437e-08
9.23738e-08
8.71054e-08
8.25404e-08
7.8617e-08
7.52069e-08
7.2259e-08
6.96665e-08
6.74081e-08
6.53957e-08
6.36286e-08
6.2034e-08
6.06257e-08
5.93399e-08
5.81998e-08
5.71464e-08
5.62103e-08
5.5336e-08
5.45572e-08
5.38221e-08
5.31673e-08
5.25436e-08
5.19885e-08
5.14528e-08
5.09791e-08
5.05172e-08
5.01093e-08
4.97065e-08
4.93536e-08
4.90014e-08
4.86952e-08
4.83853e-08
4.81183e-08
4.78445e-08
4.76105e-08
4.7367e-08
4.71611e-08
4.69427e-08
4.67617e-08
4.65673e-08
4.64069e-08
4.62314e-08
4.60898e-08
4.59329e-08
4.58064e-08
4.56638e-08
4.55548e-08
4.54258e-08
4.53286e-08
4.52089e-08
4.51249e-08
4.50209e-08
4.49419e-08
4.48489e-08
4.47785e-08
4.46874e-08
4.46296e-08
4.45436e-08
4.44904e-08
4.44106e-08
4.43618e-08
4.42872e-08
4.42385e-08
4.41779e-08
4.41308e-08
4.40745e-08
4.4028e-08
4.39773e-08
4.39332e-08
4.38846e-08
4.38418e-08
4.37959e-08
4.37555e-08
4.37136e-08
4.36754e-08
4.36363e-08
4.3599e-08
4.3563e-08
4.35273e-08
4.34977e-08
4.34662e-08
4.34436e-08
4.34157e-08
4.33945e-08
4.33651e-08
4.33427e-08
4.33064e-08
4.32849e-08
4.37192e-08
3.72783e-06
3.53745e-08
1.24658e-07
1.23272e-07
1.18883e-07
1.12411e-07
1.05317e-07
9.85676e-08
9.25066e-08
8.72347e-08
8.26631e-08
7.87316e-08
7.53128e-08
7.23565e-08
6.97556e-08
6.74895e-08
6.54698e-08
6.36959e-08
6.20951e-08
6.0681e-08
5.93899e-08
5.82449e-08
5.7187e-08
5.62467e-08
5.53686e-08
5.45863e-08
5.38478e-08
5.319e-08
5.25634e-08
5.20058e-08
5.14675e-08
5.09915e-08
5.05274e-08
5.01176e-08
4.97129e-08
4.93582e-08
4.90043e-08
4.86966e-08
4.83851e-08
4.81168e-08
4.78416e-08
4.76064e-08
4.73616e-08
4.71547e-08
4.69352e-08
4.67532e-08
4.65578e-08
4.63966e-08
4.62201e-08
4.60777e-08
4.59199e-08
4.57927e-08
4.56494e-08
4.55397e-08
4.541e-08
4.53123e-08
4.51919e-08
4.51073e-08
4.50026e-08
4.49232e-08
4.48296e-08
4.47589e-08
4.46672e-08
4.46089e-08
4.45225e-08
4.44691e-08
4.4389e-08
4.43399e-08
4.42648e-08
4.4216e-08
4.41549e-08
4.41075e-08
4.4051e-08
4.40042e-08
4.39533e-08
4.3909e-08
4.38601e-08
4.38171e-08
4.37709e-08
4.37302e-08
4.3688e-08
4.36495e-08
4.36101e-08
4.35726e-08
4.35362e-08
4.35004e-08
4.34702e-08
4.34383e-08
4.34152e-08
4.33868e-08
4.33654e-08
4.33354e-08
4.33129e-08
4.32761e-08
4.32548e-08
4.37002e-08
3.75032e-06
3.72177e-08
1.24651e-07
1.23283e-07
1.18938e-07
1.12509e-07
1.05443e-07
9.87066e-08
9.26484e-08
8.73729e-08
8.27943e-08
7.88543e-08
7.54265e-08
7.2461e-08
6.98514e-08
6.7577e-08
6.55494e-08
6.37684e-08
6.21608e-08
6.07407e-08
5.94439e-08
5.82936e-08
5.72309e-08
5.62861e-08
5.54038e-08
5.46178e-08
5.38757e-08
5.32146e-08
5.2585e-08
5.20245e-08
5.14836e-08
5.10052e-08
5.05387e-08
5.01268e-08
4.972e-08
4.93635e-08
4.90077e-08
4.86984e-08
4.83852e-08
4.81154e-08
4.78388e-08
4.76023e-08
4.73562e-08
4.71481e-08
4.69274e-08
4.67444e-08
4.65479e-08
4.63858e-08
4.62083e-08
4.6065e-08
4.59063e-08
4.57785e-08
4.56342e-08
4.55239e-08
4.53933e-08
4.5295e-08
4.51739e-08
4.50887e-08
4.49834e-08
4.49034e-08
4.48091e-08
4.47381e-08
4.46458e-08
4.45871e-08
4.45002e-08
4.44465e-08
4.43661e-08
4.43166e-08
4.4241e-08
4.41922e-08
4.41305e-08
4.40829e-08
4.4026e-08
4.3979e-08
4.39278e-08
4.38833e-08
4.38341e-08
4.37909e-08
4.37443e-08
4.37034e-08
4.36608e-08
4.36221e-08
4.35823e-08
4.35446e-08
4.35078e-08
4.34718e-08
4.3441e-08
4.34086e-08
4.3385e-08
4.3356e-08
4.33344e-08
4.33038e-08
4.32813e-08
4.32439e-08
4.32227e-08
4.36799e-08
3.77171e-06
3.92806e-08
1.24643e-07
1.23293e-07
1.18995e-07
1.12612e-07
1.05576e-07
9.88543e-08
9.27992e-08
8.75202e-08
8.29344e-08
7.89854e-08
7.5548e-08
7.25729e-08
6.9954e-08
6.76707e-08
6.56349e-08
6.38462e-08
6.22315e-08
6.08047e-08
5.95019e-08
5.83461e-08
5.72781e-08
5.63286e-08
5.54419e-08
5.46518e-08
5.39059e-08
5.32414e-08
5.26084e-08
5.2045e-08
5.15012e-08
5.10202e-08
5.05512e-08
5.0137e-08
4.9728e-08
4.93695e-08
4.90117e-08
4.87006e-08
4.83857e-08
4.81144e-08
4.78361e-08
4.75983e-08
4.73507e-08
4.71415e-08
4.69195e-08
4.67353e-08
4.65377e-08
4.63745e-08
4.6196e-08
4.60519e-08
4.58922e-08
4.57635e-08
4.56183e-08
4.55072e-08
4.53759e-08
4.52769e-08
4.51551e-08
4.50691e-08
4.49631e-08
4.48826e-08
4.47876e-08
4.47162e-08
4.46232e-08
4.4564e-08
4.44767e-08
4.44227e-08
4.43418e-08
4.42921e-08
4.42159e-08
4.4167e-08
4.41048e-08
4.40568e-08
4.39997e-08
4.39524e-08
4.39009e-08
4.38561e-08
4.38066e-08
4.37631e-08
4.37162e-08
4.3675e-08
4.36319e-08
4.35931e-08
4.35528e-08
4.35149e-08
4.34778e-08
4.34415e-08
4.34102e-08
4.33773e-08
4.33531e-08
4.33234e-08
4.33017e-08
4.32704e-08
4.32477e-08
4.32098e-08
4.31887e-08
4.36583e-08
3.7913e-06
4.15832e-08
1.24635e-07
1.23304e-07
1.19055e-07
1.1272e-07
1.05717e-07
9.90107e-08
9.29593e-08
8.76767e-08
8.30835e-08
7.91252e-08
7.56776e-08
7.26924e-08
7.00636e-08
6.77709e-08
6.57263e-08
6.39295e-08
6.23072e-08
6.08735e-08
5.95641e-08
5.84024e-08
5.73289e-08
5.63744e-08
5.54829e-08
5.46885e-08
5.39386e-08
5.32703e-08
5.26339e-08
5.20672e-08
5.15204e-08
5.10366e-08
5.05649e-08
5.01482e-08
4.97369e-08
4.93763e-08
4.90164e-08
4.87034e-08
4.83866e-08
4.81136e-08
4.78337e-08
4.75944e-08
4.73453e-08
4.71347e-08
4.69114e-08
4.67261e-08
4.65271e-08
4.6363e-08
4.61832e-08
4.60382e-08
4.58774e-08
4.57479e-08
4.56017e-08
4.54899e-08
4.53576e-08
4.5258e-08
4.51353e-08
4.50486e-08
4.49419e-08
4.48609e-08
4.4765e-08
4.46932e-08
4.45995e-08
4.45399e-08
4.44519e-08
4.43976e-08
4.43163e-08
4.42663e-08
4.41895e-08
4.41404e-08
4.40776e-08
4.40294e-08
4.39719e-08
4.39244e-08
4.38725e-08
4.38275e-08
4.37776e-08
4.37339e-08
4.36865e-08
4.36451e-08
4.36016e-08
4.35624e-08
4.35217e-08
4.34836e-08
4.3446e-08
4.34095e-08
4.33778e-08
4.33443e-08
4.33194e-08
4.3289e-08
4.32672e-08
4.32351e-08
4.32123e-08
4.31739e-08
4.31528e-08
4.36353e-08
3.80832e-06
4.41442e-08
1.24626e-07
1.23315e-07
1.19118e-07
1.12834e-07
1.05865e-07
9.9176e-08
9.31289e-08
8.78428e-08
8.32419e-08
7.92737e-08
7.58156e-08
7.28196e-08
7.01804e-08
6.78779e-08
6.5824e-08
6.40185e-08
6.23882e-08
6.09471e-08
5.96308e-08
5.84628e-08
5.73835e-08
5.64235e-08
5.55271e-08
5.4728e-08
5.39738e-08
5.33016e-08
5.26614e-08
5.20914e-08
5.15413e-08
5.10545e-08
5.05799e-08
5.01607e-08
4.97468e-08
4.9384e-08
4.90218e-08
4.87069e-08
4.83881e-08
4.81133e-08
4.78316e-08
4.75907e-08
4.734e-08
4.7128e-08
4.69032e-08
4.67166e-08
4.65163e-08
4.63511e-08
4.61701e-08
4.6024e-08
4.58622e-08
4.57318e-08
4.55845e-08
4.54718e-08
4.53386e-08
4.52383e-08
4.51147e-08
4.50273e-08
4.49197e-08
4.48381e-08
4.47414e-08
4.46692e-08
4.45747e-08
4.45145e-08
4.4426e-08
4.43713e-08
4.42895e-08
4.42391e-08
4.41619e-08
4.41126e-08
4.40491e-08
4.40006e-08
4.39427e-08
4.38949e-08
4.38427e-08
4.37975e-08
4.37472e-08
4.37032e-08
4.36554e-08
4.36136e-08
4.35697e-08
4.35303e-08
4.34891e-08
4.34507e-08
4.34127e-08
4.33759e-08
4.33437e-08
4.33096e-08
4.3284e-08
4.32529e-08
4.32308e-08
4.31979e-08
4.31751e-08
4.31361e-08
4.3115e-08
4.36108e-08
3.82193e-06
4.69822e-08
1.24618e-07
1.23327e-07
1.19183e-07
1.12953e-07
1.06021e-07
9.93501e-08
9.33079e-08
8.80185e-08
8.34097e-08
7.94314e-08
7.59621e-08
7.29549e-08
7.03047e-08
6.79918e-08
6.5928e-08
6.41134e-08
6.24746e-08
6.10257e-08
5.97022e-08
5.85275e-08
5.74419e-08
5.64763e-08
5.55745e-08
5.47706e-08
5.40118e-08
5.33354e-08
5.26912e-08
5.21176e-08
5.1564e-08
5.1074e-08
5.05964e-08
5.01745e-08
4.9758e-08
4.93927e-08
4.90281e-08
4.87111e-08
4.83901e-08
4.81135e-08
4.78298e-08
4.75872e-08
4.73348e-08
4.71214e-08
4.6895e-08
4.67071e-08
4.65054e-08
4.63389e-08
4.61567e-08
4.60095e-08
4.58464e-08
4.57152e-08
4.55667e-08
4.54532e-08
4.53189e-08
4.52178e-08
4.50933e-08
4.5005e-08
4.48967e-08
4.48144e-08
4.47168e-08
4.46441e-08
4.45488e-08
4.44881e-08
4.43989e-08
4.43438e-08
4.42615e-08
4.42108e-08
4.41329e-08
4.40834e-08
4.40193e-08
4.39705e-08
4.39122e-08
4.38641e-08
4.38114e-08
4.3766e-08
4.37153e-08
4.3671e-08
4.36227e-08
4.35807e-08
4.35362e-08
4.34965e-08
4.34548e-08
4.34162e-08
4.33777e-08
4.33406e-08
4.33079e-08
4.32733e-08
4.32468e-08
4.32151e-08
4.31927e-08
4.31589e-08
4.3136e-08
4.30964e-08
4.30753e-08
4.35846e-08
3.8312e-06
5.01144e-08
1.24608e-07
1.23338e-07
1.1925e-07
1.13078e-07
1.06185e-07
9.95332e-08
9.34966e-08
8.82041e-08
8.35872e-08
7.95983e-08
7.61175e-08
7.30985e-08
7.04368e-08
6.81129e-08
6.60388e-08
6.42146e-08
6.25668e-08
6.11096e-08
5.97783e-08
5.85966e-08
5.75044e-08
5.65328e-08
5.56253e-08
5.48163e-08
5.40526e-08
5.33718e-08
5.27234e-08
5.21459e-08
5.15886e-08
5.10954e-08
5.06145e-08
5.01897e-08
4.97703e-08
4.94025e-08
4.90354e-08
4.87161e-08
4.83929e-08
4.81142e-08
4.78285e-08
4.75842e-08
4.73299e-08
4.7115e-08
4.68869e-08
4.66976e-08
4.64943e-08
4.63266e-08
4.6143e-08
4.59947e-08
4.58303e-08
4.56981e-08
4.55484e-08
4.54339e-08
4.52985e-08
4.51966e-08
4.50712e-08
4.4982e-08
4.48727e-08
4.47898e-08
4.46913e-08
4.46181e-08
4.45219e-08
4.44606e-08
4.43707e-08
4.43152e-08
4.42324e-08
4.41812e-08
4.41027e-08
4.4053e-08
4.39882e-08
4.39391e-08
4.38803e-08
4.38319e-08
4.37788e-08
4.37331e-08
4.3682e-08
4.36374e-08
4.35886e-08
4.35463e-08
4.35012e-08
4.34612e-08
4.3419e-08
4.33801e-08
4.3341e-08
4.33037e-08
4.32704e-08
4.32353e-08
4.3208e-08
4.31756e-08
4.31529e-08
4.31182e-08
4.3095e-08
4.30549e-08
4.30338e-08
4.35569e-08
3.83516e-06
5.35554e-08
1.24599e-07
1.2335e-07
1.1932e-07
1.13207e-07
1.06356e-07
9.97254e-08
9.36952e-08
8.83997e-08
8.37746e-08
7.97748e-08
7.62819e-08
7.32507e-08
7.05769e-08
6.82414e-08
6.61565e-08
6.43221e-08
6.26649e-08
6.11989e-08
5.98596e-08
5.86703e-08
5.75712e-08
5.65932e-08
5.56798e-08
5.48653e-08
5.40965e-08
5.3411e-08
5.27581e-08
5.21766e-08
5.16154e-08
5.11186e-08
5.06344e-08
5.02065e-08
4.9784e-08
4.94135e-08
4.90437e-08
4.8722e-08
4.83964e-08
4.81156e-08
4.78278e-08
4.75816e-08
4.73254e-08
4.71087e-08
4.68789e-08
4.66881e-08
4.64832e-08
4.63142e-08
4.61291e-08
4.59796e-08
4.58139e-08
4.56806e-08
4.55296e-08
4.54141e-08