/*--------------------------------*- C++ -*----------------------------------*\
| =========                 |                                                 |
| \\      /  F ield         | OpenFOAM: The Open Source CFD Toolbox           |
|  \\    /   O peration     | Version:  v2012                                 |
|   \\  /    A nd           | Website:  www.openfoam.com                      |
|    \\/     M anipulation  |                                                 |
\*---------------------------------------------------------------------------*/
FoamFile
{
    version     2.0;
    format      ascii;
    class       volVectorField;
    location    "40";
    object      wallShearStress;
}
// * * * * * * * * * * * * * * * * * * * * * * * * * * * * * * * * * * * * * //

dimensions      [0 2 -2 0 0 0 0];


internalField   uniform (0 0 0);

boundaryField
{
    inlet
    {
        type            calculated;
        value           uniform (0 0 0);
    }
    outlet
    {
        type            calculated;
        value           uniform (0 0 0);
    }
    topWall
    {
        type            calculated;
        value           nonuniform List<vector> 
545
(
(6.66634e-08 -4.69202e-08 0)
(6.66522e-08 -1.31287e-07 0)
(6.6601e-08 -2.18997e-07 0)
(6.65344e-08 -3.04152e-07 0)
(6.64563e-08 -3.85665e-07 0)
(6.63648e-08 -4.64585e-07 0)
(6.62608e-08 -5.41582e-07 0)
(6.61449e-08 -6.16619e-07 0)
(6.60181e-08 -6.89533e-07 0)
(6.58816e-08 -7.60319e-07 0)
(6.57361e-08 -8.29073e-07 0)
(6.55826e-08 -8.95872e-07 0)
(6.54218e-08 -9.60762e-07 0)
(6.52546e-08 -1.02378e-06 0)
(6.50816e-08 -1.08498e-06 0)
(6.49036e-08 -1.1444e-06 0)
(6.47211e-08 -1.20209e-06 0)
(6.45347e-08 -1.2581e-06 0)
(6.43451e-08 -1.31248e-06 0)
(6.41526e-08 -1.36526e-06 0)
(6.39579e-08 -1.4165e-06 0)
(6.37613e-08 -1.46624e-06 0)
(6.35632e-08 -1.51451e-06 0)
(6.33641e-08 -1.56136e-06 0)
(6.31643e-08 -1.60684e-06 0)
(6.29642e-08 -1.65097e-06 0)
(6.2764e-08 -1.69381e-06 0)
(6.2564e-08 -1.73538e-06 0)
(6.23645e-08 -1.77572e-06 0)
(6.21658e-08 -1.81488e-06 0)
(6.1968e-08 -1.85289e-06 0)
(6.17714e-08 -1.88977e-06 0)
(6.15761e-08 -1.92557e-06 0)
(6.13824e-08 -1.96031e-06 0)
(6.11903e-08 -1.99403e-06 0)
(6.10001e-08 -2.02676e-06 0)
(6.08118e-08 -2.05853e-06 0)
(6.06255e-08 -2.08937e-06 0)
(6.04414e-08 -2.1193e-06 0)
(6.02596e-08 -2.14835e-06 0)
(6.00801e-08 -2.17655e-06 0)
(5.9903e-08 -2.20393e-06 0)
(5.97283e-08 -2.23051e-06 0)
(5.95562e-08 -2.25631e-06 0)
(5.93866e-08 -2.28136e-06 0)
(5.92196e-08 -2.30568e-06 0)
(5.90553e-08 -2.32929e-06 0)
(5.88936e-08 -2.35222e-06 0)
(5.87345e-08 -2.37448e-06 0)
(5.85782e-08 -2.39609e-06 0)
(5.84245e-08 -2.41708e-06 0)
(5.82735e-08 -2.43747e-06 0)
(5.81252e-08 -2.45726e-06 0)
(5.79796e-08 -2.47649e-06 0)
(5.78367e-08 -2.49516e-06 0)
(5.76964e-08 -2.51329e-06 0)
(5.75588e-08 -2.5309e-06 0)
(5.74238e-08 -2.54801e-06 0)
(5.72913e-08 -2.56463e-06 0)
(5.71615e-08 -2.58078e-06 0)
(5.70342e-08 -2.59646e-06 0)
(5.69095e-08 -2.61169e-06 0)
(5.67872e-08 -2.6265e-06 0)
(5.66674e-08 -2.64088e-06 0)
(5.65501e-08 -2.65485e-06 0)
(5.64351e-08 -2.66842e-06 0)
(5.63225e-08 -2.68161e-06 0)
(5.62123e-08 -2.69443e-06 0)
(5.61043e-08 -2.70689e-06 0)
(5.59985e-08 -2.71899e-06 0)
(5.58952e-08 -2.73076e-06 0)
(5.57931e-08 -2.74217e-06 0)
(5.56943e-08 -2.75315e-06 0)
(5.55998e-08 -2.76382e-06 0)
(5.55062e-08 -2.77435e-06 0)
(5.54129e-08 -2.78483e-06 0)
(5.53196e-08 -2.79527e-06 0)
(5.52265e-08 -2.80564e-06 0)
(5.51335e-08 -2.81594e-06 0)
(5.50405e-08 -2.82618e-06 0)
(5.49477e-08 -2.83635e-06 0)
(5.48549e-08 -2.84646e-06 0)
(5.47623e-08 -2.8565e-06 0)
(5.46698e-08 -2.86649e-06 0)
(5.45773e-08 -2.87641e-06 0)
(5.4485e-08 -2.88627e-06 0)
(5.43929e-08 -2.89606e-06 0)
(5.43008e-08 -2.9058e-06 0)
(5.42089e-08 -2.91547e-06 0)
(5.41171e-08 -2.92509e-06 0)
(5.40254e-08 -2.93464e-06 0)
(5.39338e-08 -2.94414e-06 0)
(5.38425e-08 -2.95358e-06 0)
(5.37508e-08 -2.96293e-06 0)
(5.36618e-08 -2.97229e-06 0)
(5.35629e-08 -2.98145e-06 0)
(5.34659e-08 -2.98981e-06 0)
(5.33874e-08 -2.99747e-06 0)
(5.33127e-08 -3.00489e-06 0)
(5.32383e-08 -3.0123e-06 0)
(5.31639e-08 -3.0198e-06 0)
(5.30891e-08 -3.02733e-06 0)
(5.30139e-08 -3.03485e-06 0)
(5.29385e-08 -3.04237e-06 0)
(5.28626e-08 -3.04989e-06 0)
(5.27865e-08 -3.05743e-06 0)
(5.27099e-08 -3.06497e-06 0)
(5.26331e-08 -3.07252e-06 0)
(5.25558e-08 -3.08007e-06 0)
(5.24782e-08 -3.08763e-06 0)
(5.24003e-08 -3.0952e-06 0)
(5.2322e-08 -3.10278e-06 0)
(5.22433e-08 -3.11036e-06 0)
(5.21643e-08 -3.11794e-06 0)
(5.20849e-08 -3.12554e-06 0)
(5.20052e-08 -3.13314e-06 0)
(5.19251e-08 -3.14074e-06 0)
(5.18446e-08 -3.14836e-06 0)
(5.17638e-08 -3.15597e-06 0)
(5.16826e-08 -3.1636e-06 0)
(5.16011e-08 -3.17123e-06 0)
(5.15191e-08 -3.17887e-06 0)
(5.14368e-08 -3.18651e-06 0)
(5.13542e-08 -3.19416e-06 0)
(5.12712e-08 -3.20181e-06 0)
(5.11878e-08 -3.20947e-06 0)
(5.1104e-08 -3.21713e-06 0)
(5.10199e-08 -3.2248e-06 0)
(5.09354e-08 -3.23248e-06 0)
(5.08505e-08 -3.24016e-06 0)
(5.07652e-08 -3.24785e-06 0)
(5.06796e-08 -3.25554e-06 0)
(5.05936e-08 -3.26323e-06 0)
(5.05072e-08 -3.27094e-06 0)
(5.04204e-08 -3.27864e-06 0)
(5.03333e-08 -3.28635e-06 0)
(5.02458e-08 -3.29407e-06 0)
(5.01579e-08 -3.30179e-06 0)
(5.00696e-08 -3.30952e-06 0)
(4.9981e-08 -3.31725e-06 0)
(4.98919e-08 -3.32498e-06 0)
(4.98025e-08 -3.33272e-06 0)
(4.97127e-08 -3.34046e-06 0)
(4.96225e-08 -3.34821e-06 0)
(4.95319e-08 -3.35596e-06 0)
(4.9441e-08 -3.36372e-06 0)
(4.93496e-08 -3.37148e-06 0)
(4.92579e-08 -3.37924e-06 0)
(4.91658e-08 -3.38701e-06 0)
(4.90732e-08 -3.39478e-06 0)
(4.89803e-08 -3.40255e-06 0)
(4.88871e-08 -3.41033e-06 0)
(4.87934e-08 -3.41811e-06 0)
(4.86993e-08 -3.4259e-06 0)
(4.86048e-08 -3.43368e-06 0)
(4.851e-08 -3.44148e-06 0)
(4.84147e-08 -3.44927e-06 0)
(4.83191e-08 -3.45707e-06 0)
(4.8223e-08 -3.46487e-06 0)
(4.81266e-08 -3.47267e-06 0)
(4.80298e-08 -3.48048e-06 0)
(4.79326e-08 -3.48829e-06 0)
(4.78349e-08 -3.4961e-06 0)
(4.77369e-08 -3.50391e-06 0)
(4.76385e-08 -3.51173e-06 0)
(4.75397e-08 -3.51954e-06 0)
(4.74405e-08 -3.52736e-06 0)
(4.73409e-08 -3.53519e-06 0)
(4.72409e-08 -3.54301e-06 0)
(4.71405e-08 -3.55084e-06 0)
(4.70397e-08 -3.55866e-06 0)
(4.69384e-08 -3.56649e-06 0)
(4.68368e-08 -3.57432e-06 0)
(4.67348e-08 -3.58216e-06 0)
(4.66324e-08 -3.58999e-06 0)
(4.65296e-08 -3.59782e-06 0)
(4.64264e-08 -3.60566e-06 0)
(4.63228e-08 -3.6135e-06 0)
(4.62187e-08 -3.62133e-06 0)
(4.61143e-08 -3.62917e-06 0)
(4.60095e-08 -3.63701e-06 0)
(4.59043e-08 -3.64485e-06 0)
(4.57986e-08 -3.65269e-06 0)
(4.56926e-08 -3.66053e-06 0)
(4.55861e-08 -3.66837e-06 0)
(4.54793e-08 -3.67621e-06 0)
(4.5372e-08 -3.68405e-06 0)
(4.52644e-08 -3.6919e-06 0)
(4.51563e-08 -3.69974e-06 0)
(4.50478e-08 -3.70758e-06 0)
(4.49389e-08 -3.71542e-06 0)
(4.48297e-08 -3.72325e-06 0)
(4.472e-08 -3.73109e-06 0)
(4.46099e-08 -3.73893e-06 0)
(4.44994e-08 -3.74677e-06 0)
(4.43885e-08 -3.7546e-06 0)
(4.42772e-08 -3.76244e-06 0)
(4.41655e-08 -3.77027e-06 0)
(4.40533e-08 -3.7781e-06 0)
(4.39408e-08 -3.78593e-06 0)
(4.38279e-08 -3.79376e-06 0)
(4.37146e-08 -3.80159e-06 0)
(4.36008e-08 -3.80941e-06 0)
(4.34867e-08 -3.81724e-06 0)
(4.33721e-08 -3.82506e-06 0)
(4.32572e-08 -3.83288e-06 0)
(4.31418e-08 -3.84069e-06 0)
(4.3026e-08 -3.84851e-06 0)
(4.29099e-08 -3.85632e-06 0)
(4.27933e-08 -3.86413e-06 0)
(4.26763e-08 -3.87193e-06 0)
(4.2559e-08 -3.87973e-06 0)
(4.24412e-08 -3.88753e-06 0)
(4.2323e-08 -3.89533e-06 0)
(4.22044e-08 -3.90312e-06 0)
(4.20855e-08 -3.91091e-06 0)
(4.19661e-08 -3.91869e-06 0)
(4.18463e-08 -3.92647e-06 0)
(4.17261e-08 -3.93425e-06 0)
(4.16055e-08 -3.94202e-06 0)
(4.14846e-08 -3.94979e-06 0)
(4.13632e-08 -3.95756e-06 0)
(4.12414e-08 -3.96532e-06 0)
(4.11192e-08 -3.97307e-06 0)
(4.09967e-08 -3.98082e-06 0)
(4.08737e-08 -3.98857e-06 0)
(4.07504e-08 -3.99631e-06 0)
(4.06266e-08 -4.00404e-06 0)
(4.05025e-08 -4.01177e-06 0)
(4.03779e-08 -4.0195e-06 0)
(4.0253e-08 -4.02721e-06 0)
(4.01277e-08 -4.03493e-06 0)
(4.0002e-08 -4.04263e-06 0)
(3.98759e-08 -4.05033e-06 0)
(3.97494e-08 -4.05803e-06 0)
(3.96225e-08 -4.06572e-06 0)
(3.94953e-08 -4.0734e-06 0)
(3.93677e-08 -4.08107e-06 0)
(3.92396e-08 -4.08874e-06 0)
(3.91112e-08 -4.0964e-06 0)
(3.89824e-08 -4.10405e-06 0)
(3.88533e-08 -4.1117e-06 0)
(3.87237e-08 -4.11934e-06 0)
(3.85938e-08 -4.12697e-06 0)
(3.84635e-08 -4.13459e-06 0)
(3.83328e-08 -4.14221e-06 0)
(3.82017e-08 -4.14981e-06 0)
(3.80703e-08 -4.15741e-06 0)
(3.79385e-08 -4.165e-06 0)
(3.78064e-08 -4.17259e-06 0)
(3.76738e-08 -4.18016e-06 0)
(3.75409e-08 -4.18772e-06 0)
(3.74076e-08 -4.19528e-06 0)
(3.7274e-08 -4.20283e-06 0)
(3.714e-08 -4.21036e-06 0)
(3.70056e-08 -4.21789e-06 0)
(3.68709e-08 -4.22541e-06 0)
(3.67358e-08 -4.23292e-06 0)
(3.66004e-08 -4.24041e-06 0)
(3.64646e-08 -4.2479e-06 0)
(3.63285e-08 -4.25538e-06 0)
(3.6192e-08 -4.26285e-06 0)
(3.60551e-08 -4.2703e-06 0)
(3.59179e-08 -4.27775e-06 0)
(3.57804e-08 -4.28518e-06 0)
(3.56426e-08 -4.29261e-06 0)
(3.55041e-08 -4.30001e-06 0)
(3.53673e-08 -4.30745e-06 0)
(3.52257e-08 -4.31477e-06 0)
(3.50825e-08 -4.32172e-06 0)
(3.49519e-08 -4.32842e-06 0)
(3.48273e-08 -4.33501e-06 0)
(3.47013e-08 -4.34162e-06 0)
(3.45742e-08 -4.34833e-06 0)
(3.44457e-08 -4.35511e-06 0)
(3.43159e-08 -4.36193e-06 0)
(3.41845e-08 -4.36878e-06 0)
(3.40517e-08 -4.37569e-06 0)
(3.39175e-08 -4.38264e-06 0)
(3.37817e-08 -4.38964e-06 0)
(3.36445e-08 -4.39669e-06 0)
(3.35058e-08 -4.40379e-06 0)
(3.33655e-08 -4.41093e-06 0)
(3.32238e-08 -4.41812e-06 0)
(3.30804e-08 -4.42536e-06 0)
(3.29356e-08 -4.43264e-06 0)
(3.27892e-08 -4.43997e-06 0)
(3.26412e-08 -4.44735e-06 0)
(3.24916e-08 -4.45477e-06 0)
(3.23404e-08 -4.46225e-06 0)
(3.21876e-08 -4.46976e-06 0)
(3.20332e-08 -4.47732e-06 0)
(3.18772e-08 -4.48493e-06 0)
(3.17195e-08 -4.49258e-06 0)
(3.15601e-08 -4.50027e-06 0)
(3.13991e-08 -4.50802e-06 0)
(3.12364e-08 -4.5158e-06 0)
(3.1072e-08 -4.52363e-06 0)
(3.0906e-08 -4.5315e-06 0)
(3.07382e-08 -4.53941e-06 0)
(3.05686e-08 -4.54736e-06 0)
(3.03974e-08 -4.55536e-06 0)
(3.02243e-08 -4.5634e-06 0)
(3.00496e-08 -4.57148e-06 0)
(2.9873e-08 -4.5796e-06 0)
(2.96947e-08 -4.58776e-06 0)
(2.95146e-08 -4.59595e-06 0)
(2.93327e-08 -4.60419e-06 0)
(2.9149e-08 -4.61246e-06 0)
(2.89635e-08 -4.62077e-06 0)
(2.87761e-08 -4.62912e-06 0)
(2.8587e-08 -4.6375e-06 0)
(2.8396e-08 -4.64592e-06 0)
(2.82031e-08 -4.65437e-06 0)
(2.80084e-08 -4.66285e-06 0)
(2.78118e-08 -4.67137e-06 0)
(2.76134e-08 -4.67992e-06 0)
(2.74131e-08 -4.6885e-06 0)
(2.72109e-08 -4.69711e-06 0)
(2.70068e-08 -4.70575e-06 0)
(2.68008e-08 -4.71441e-06 0)
(2.6593e-08 -4.7231e-06 0)
(2.63832e-08 -4.73182e-06 0)
(2.61716e-08 -4.74057e-06 0)
(2.5958e-08 -4.74933e-06 0)
(2.57426e-08 -4.75812e-06 0)
(2.55252e-08 -4.76693e-06 0)
(2.53059e-08 -4.77576e-06 0)
(2.50847e-08 -4.7846e-06 0)
(2.48616e-08 -4.79347e-06 0)
(2.46366e-08 -4.80235e-06 0)
(2.44097e-08 -4.81125e-06 0)
(2.41809e-08 -4.82015e-06 0)
(2.39502e-08 -4.82907e-06 0)
(2.37176e-08 -4.838e-06 0)
(2.34832e-08 -4.84694e-06 0)
(2.32468e-08 -4.85588e-06 0)
(2.30085e-08 -4.86483e-06 0)
(2.27684e-08 -4.87379e-06 0)
(2.25265e-08 -4.88274e-06 0)
(2.22826e-08 -4.8917e-06 0)
(2.2037e-08 -4.90065e-06 0)
(2.17895e-08 -4.9096e-06 0)
(2.15402e-08 -4.91855e-06 0)
(2.1289e-08 -4.92748e-06 0)
(2.10361e-08 -4.93641e-06 0)
(2.07814e-08 -4.94533e-06 0)
(2.0525e-08 -4.95423e-06 0)
(2.02668e-08 -4.96312e-06 0)
(2.00069e-08 -4.97199e-06 0)
(1.97453e-08 -4.98084e-06 0)
(1.9482e-08 -4.98967e-06 0)
(1.9217e-08 -4.99847e-06 0)
(1.89505e-08 -5.00725e-06 0)
(1.86823e-08 -5.01599e-06 0)
(1.84125e-08 -5.02471e-06 0)
(1.81412e-08 -5.03339e-06 0)
(1.78683e-08 -5.04204e-06 0)
(1.7594e-08 -5.05064e-06 0)
(1.73182e-08 -5.05921e-06 0)
(1.70409e-08 -5.06773e-06 0)
(1.67623e-08 -5.0762e-06 0)
(1.64823e-08 -5.08462e-06 0)
(1.6201e-08 -5.093e-06 0)
(1.59184e-08 -5.10131e-06 0)
(1.56346e-08 -5.10957e-06 0)
(1.53495e-08 -5.11776e-06 0)
(1.50634e-08 -5.1259e-06 0)
(1.47761e-08 -5.13396e-06 0)
(1.44878e-08 -5.14196e-06 0)
(1.41984e-08 -5.14988e-06 0)
(1.39081e-08 -5.15773e-06 0)
(1.36169e-08 -5.16549e-06 0)
(1.33248e-08 -5.17318e-06 0)
(1.30319e-08 -5.18077e-06 0)
(1.27383e-08 -5.18829e-06 0)
(1.24441e-08 -5.1957e-06 0)
(1.21492e-08 -5.20303e-06 0)
(1.18537e-08 -5.21025e-06 0)
(1.15578e-08 -5.21737e-06 0)
(1.12614e-08 -5.22439e-06 0)
(1.09647e-08 -5.2313e-06 0)
(1.06676e-08 -5.23809e-06 0)
(1.03704e-08 -5.24478e-06 0)
(1.0073e-08 -5.25134e-06 0)
(9.77554e-09 -5.25778e-06 0)
(9.47807e-09 -5.26409e-06 0)
(9.1807e-09 -5.27028e-06 0)
(8.88347e-09 -5.27633e-06 0)
(8.5865e-09 -5.28225e-06 0)
(8.28983e-09 -5.28802e-06 0)
(7.99358e-09 -5.29366e-06 0)
(7.6978e-09 -5.29914e-06 0)
(7.40261e-09 -5.30448e-06 0)
(7.10806e-09 -5.30966e-06 0)
(6.81428e-09 -5.31469e-06 0)
(6.52132e-09 -5.31955e-06 0)
(6.2293e-09 -5.32426e-06 0)
(5.93829e-09 -5.32878e-06 0)
(5.6484e-09 -5.33315e-06 0)
(5.3597e-09 -5.33734e-06 0)
(5.07232e-09 -5.34136e-06 0)
(4.78632e-09 -5.34518e-06 0)
(4.50183e-09 -5.34884e-06 0)
(4.21891e-09 -5.35229e-06 0)
(3.93769e-09 -5.35557e-06 0)
(3.65825e-09 -5.35864e-06 0)
(3.3807e-09 -5.36152e-06 0)
(3.10513e-09 -5.3642e-06 0)
(2.83165e-09 -5.36668e-06 0)
(2.56035e-09 -5.36895e-06 0)
(2.29135e-09 -5.37102e-06 0)
(2.02472e-09 -5.37287e-06 0)
(1.76059e-09 -5.37452e-06 0)
(1.49904e-09 -5.37593e-06 0)
(1.24019e-09 -5.37715e-06 0)
(9.84126e-10 -5.37812e-06 0)
(7.30955e-10 -5.37889e-06 0)
(4.80772e-10 -5.37942e-06 0)
(2.3368e-10 -5.37973e-06 0)
(-1.02259e-11 -5.3798e-06 0)
(-2.50848e-10 -5.37966e-06 0)
(-4.88091e-10 -5.37926e-06 0)
(-7.21862e-10 -5.37864e-06 0)
(-9.52067e-10 -5.37777e-06 0)
(-1.17862e-09 -5.37669e-06 0)
(-1.40142e-09 -5.37534e-06 0)
(-1.6204e-09 -5.37377e-06 0)
(-1.83547e-09 -5.37194e-06 0)
(-2.04654e-09 -5.36989e-06 0)
(-2.25353e-09 -5.36757e-06 0)
(-2.45638e-09 -5.36503e-06 0)
(-2.65499e-09 -5.36222e-06 0)
(-2.84932e-09 -5.35919e-06 0)
(-3.03927e-09 -5.35589e-06 0)
(-3.2248e-09 -5.35237e-06 0)
(-3.40582e-09 -5.34858e-06 0)
(-3.5823e-09 -5.34457e-06 0)
(-3.75415e-09 -5.34029e-06 0)
(-3.92134e-09 -5.3358e-06 0)
(-4.08378e-09 -5.33103e-06 0)
(-4.24146e-09 -5.32605e-06 0)
(-4.39429e-09 -5.3208e-06 0)
(-4.54225e-09 -5.31533e-06 0)
(-4.68525e-09 -5.3096e-06 0)
(-4.82328e-09 -5.30366e-06 0)
(-4.95624e-09 -5.29746e-06 0)
(-5.08422e-09 -5.29107e-06 0)
(-5.20698e-09 -5.28435e-06 0)
(-5.32635e-09 -5.27747e-06 0)
(-5.44717e-09 -5.26965e-06 0)
(-5.57073e-09 -5.26071e-06 0)
(-5.69046e-09 -5.2515e-06 0)
(-5.80184e-09 -5.2422e-06 0)
(-5.90497e-09 -5.23268e-06 0)
(-6.00005e-09 -5.22304e-06 0)
(-6.08719e-09 -5.21321e-06 0)
(-6.1667e-09 -5.20328e-06 0)
(-6.23874e-09 -5.1932e-06 0)
(-6.30367e-09 -5.18304e-06 0)
(-6.36163e-09 -5.17275e-06 0)
(-6.41297e-09 -5.1624e-06 0)
(-6.45782e-09 -5.15194e-06 0)
(-6.49651e-09 -5.14145e-06 0)
(-6.52916e-09 -5.13087e-06 0)
(-6.5561e-09 -5.12027e-06 0)
(-6.57742e-09 -5.1096e-06 0)
(-6.59344e-09 -5.09894e-06 0)
(-6.60423e-09 -5.08822e-06 0)
(-6.6101e-09 -5.07752e-06 0)
(-6.61112e-09 -5.06678e-06 0)
(-6.60756e-09 -5.05608e-06 0)
(-6.59948e-09 -5.04536e-06 0)
(-6.58716e-09 -5.03468e-06 0)
(-6.57062e-09 -5.024e-06 0)
(-6.55013e-09 -5.01338e-06 0)
(-6.52572e-09 -5.00276e-06 0)
(-6.49764e-09 -4.99222e-06 0)
(-6.46589e-09 -4.98169e-06 0)
(-6.43071e-09 -4.97126e-06 0)
(-6.39211e-09 -4.96084e-06 0)
(-6.35031e-09 -4.95053e-06 0)
(-6.30532e-09 -4.94025e-06 0)
(-6.25734e-09 -4.93009e-06 0)
(-6.20636e-09 -4.91996e-06 0)
(-6.15259e-09 -4.90997e-06 0)
(-6.09601e-09 -4.90002e-06 0)
(-6.03681e-09 -4.8902e-06 0)
(-5.97498e-09 -4.88045e-06 0)
(-5.91069e-09 -4.87083e-06 0)
(-5.84393e-09 -4.86128e-06 0)
(-5.77486e-09 -4.85189e-06 0)
(-5.70346e-09 -4.84256e-06 0)
(-5.6299e-09 -4.83339e-06 0)
(-5.55413e-09 -4.82431e-06 0)
(-5.47633e-09 -4.81539e-06 0)
(-5.39645e-09 -4.80655e-06 0)
(-5.31464e-09 -4.79789e-06 0)
(-5.23087e-09 -4.78932e-06 0)
(-5.14529e-09 -4.78093e-06 0)
(-5.05784e-09 -4.77264e-06 0)
(-4.96868e-09 -4.76453e-06 0)
(-4.87775e-09 -4.75653e-06 0)
(-4.78519e-09 -4.74872e-06 0)
(-4.69097e-09 -4.74102e-06 0)
(-4.59519e-09 -4.73351e-06 0)
(-4.49784e-09 -4.72612e-06 0)
(-4.39902e-09 -4.71892e-06 0)
(-4.2987e-09 -4.71186e-06 0)
(-4.19698e-09 -4.70498e-06 0)
(-4.09385e-09 -4.69825e-06 0)
(-3.98939e-09 -4.69171e-06 0)
(-3.88359e-09 -4.68531e-06 0)
(-3.77654e-09 -4.67911e-06 0)
(-3.66823e-09 -4.67306e-06 0)
(-3.55873e-09 -4.66721e-06 0)
(-3.44805e-09 -4.66152e-06 0)
(-3.33625e-09 -4.65603e-06 0)
(-3.22333e-09 -4.65069e-06 0)
(-3.10937e-09 -4.64557e-06 0)
(-2.99436e-09 -4.6406e-06 0)
(-2.87838e-09 -4.63585e-06 0)
(-2.76143e-09 -4.63126e-06 0)
(-2.64357e-09 -4.62689e-06 0)
(-2.52481e-09 -4.62268e-06 0)
(-2.40521e-09 -4.61869e-06 0)
(-2.28478e-09 -4.61487e-06 0)
(-2.16357e-09 -4.61127e-06 0)
(-2.04161e-09 -4.60784e-06 0)
(-1.91893e-09 -4.60463e-06 0)
(-1.79556e-09 -4.60161e-06 0)
(-1.67155e-09 -4.5988e-06 0)
(-1.54693e-09 -4.59617e-06 0)
(-1.42174e-09 -4.59377e-06 0)
(-1.29604e-09 -4.59154e-06 0)
(-1.16989e-09 -4.58957e-06 0)
(-1.04338e-09 -4.58766e-06 0)
(-9.16645e-10 -4.58639e-06 0)
(-7.89742e-10 -4.58392e-06 0)
(-6.63091e-10 -4.58622e-06 0)
(-5.35931e-10 -4.57332e-06 0)
(-4.10914e-10 -4.60976e-06 0)
(-2.79012e-10 -4.47121e-06 0)
(-1.6787e-10 -4.83808e-06 0)
(-6.38097e-11 -4.22542e-06 0)
)
;
    }
    bottomWall
    {
        type            calculated;
        value           nonuniform List<vector> 
449
(
(-52.7309 -0.955902 0)
(-34.7562 -0.0027995 0)
(-34.367 -0.000254853 0)
(-33.0026 -0.000363999 0)
(-31.875 -0.000315736 0)
(-30.837 -0.000284632 0)
(-29.9188 -0.000249575 0)
(-29.1181 -0.000217597 0)
(-28.4168 -0.000190991 0)
(-27.7969 -0.000169197 0)
(-27.2437 -0.000151161 0)
(-26.7465 -0.000136037 0)
(-26.2962 -0.000123362 0)
(-25.8853 -0.00011266 0)
(-25.508 -0.000103433 0)
(-25.16 -9.54234e-05 0)
(-24.8373 -8.84278e-05 0)
(-24.5371 -8.22829e-05 0)
(-24.2564 -7.68659e-05 0)
(-23.9931 -7.20334e-05 0)
(-23.7454 -6.76979e-05 0)
(-23.5118 -6.38009e-05 0)
(-23.2907 -6.02887e-05 0)
(-23.0811 -5.71022e-05 0)
(-22.8819 -5.42056e-05 0)
(-22.6922 -5.15503e-05 0)
(-22.5111 -4.91154e-05 0)
(-22.3381 -4.68794e-05 0)
(-22.1723 -4.48177e-05 0)
(-22.0134 -4.29028e-05 0)
(-21.8609 -4.11271e-05 0)
(-21.7142 -3.94756e-05 0)
(-21.5729 -3.79365e-05 0)
(-21.4368 -3.64964e-05 0)
(-21.3055 -3.51485e-05 0)
(-21.1786 -3.38866e-05 0)
(-21.056 -3.27016e-05 0)
(-20.9373 -3.15891e-05 0)
(-20.8223 -3.05454e-05 0)
(-20.7109 -2.95574e-05 0)
(-20.6027 -2.86233e-05 0)
(-20.4976 -2.7741e-05 0)
(-20.3955 -2.69076e-05 0)
(-20.2963 -2.61096e-05 0)
(-20.1997 -2.53463e-05 0)
(-20.1057 -2.46209e-05 0)
(-20.0141 -2.39287e-05 0)
(-19.9249 -2.32655e-05 0)
(-19.838 -2.2634e-05 0)
(-19.7532 -2.20313e-05 0)
(-19.6704 -2.14535e-05 0)
(-19.5896 -2.09022e-05 0)
(-19.5106 -2.03758e-05 0)
(-19.4335 -1.98714e-05 0)
(-19.358 -1.93885e-05 0)
(-19.2842 -1.89275e-05 0)
(-19.212 -1.84846e-05 0)
(-19.1413 -1.80616e-05 0)
(-19.072 -1.76542e-05 0)
(-19.0041 -1.72636e-05 0)
(-18.9375 -1.6888e-05 0)
(-18.8723 -1.65269e-05 0)
(-18.8082 -1.61795e-05 0)
(-18.7454 -1.58447e-05 0)
(-18.6836 -1.55225e-05 0)
(-18.6231 -1.5211e-05 0)
(-18.5635 -1.49111e-05 0)
(-18.505 -1.46203e-05 0)
(-18.4475 -1.43402e-05 0)
(-18.3909 -1.4068e-05 0)
(-18.3353 -1.38056e-05 0)
(-18.2806 -1.35503e-05 0)
(-18.2268 -1.33035e-05 0)
(-18.1738 -1.3064e-05 0)
(-18.1216 -1.28315e-05 0)
(-18.0703 -1.26063e-05 0)
(-18.0197 -1.23871e-05 0)
(-17.9699 -1.21748e-05 0)
(-17.9208 -1.19676e-05 0)
(-17.8724 -1.1767e-05 0)
(-17.8247 -1.15712e-05 0)
(-17.7777 -1.13813e-05 0)
(-17.7314 -1.11963e-05 0)
(-17.6857 -1.1016e-05 0)
(-17.6406 -1.08408e-05 0)
(-17.5962 -1.06695e-05 0)
(-17.5523 -1.05031e-05 0)
(-17.509 -1.03407e-05 0)
(-17.4663 -1.01823e-05 0)
(-17.4241 -1.00284e-05 0)
(-17.3825 -9.8776e-06 0)
(-17.3414 -9.73069e-06 0)
(-17.3007 -9.58761e-06 0)
(-17.2607 -9.44727e-06 0)
(-17.2211 -9.31101e-06 0)
(-17.1819 -9.17765e-06 0)
(-17.1433 -9.04721e-06 0)
(-17.1051 -8.92015e-06 0)
(-17.0673 -8.79593e-06 0)
(-17.03 -8.67392e-06 0)
(-16.9931 -8.55542e-06 0)
(-16.9566 -8.43888e-06 0)
(-16.9205 -8.32521e-06 0)
(-16.8849 -8.21394e-06 0)
(-16.8496 -8.10527e-06 0)
(-16.8147 -7.99841e-06 0)
(-16.7802 -7.89443e-06 0)
(-16.7461 -7.7923e-06 0)
(-16.7123 -7.69222e-06 0)
(-16.6788 -7.59432e-06 0)
(-16.6457 -7.49848e-06 0)
(-16.613 -7.40416e-06 0)
(-16.5806 -7.312e-06 0)
(-16.5485 -7.22176e-06 0)
(-16.5167 -7.13315e-06 0)
(-16.4853 -7.04628e-06 0)
(-16.4541 -6.96135e-06 0)
(-16.4233 -6.87796e-06 0)
(-16.3927 -6.79597e-06 0)
(-16.3625 -6.71553e-06 0)
(-16.3325 -6.63667e-06 0)
(-16.3028 -6.55915e-06 0)
(-16.2734 -6.48302e-06 0)
(-16.2443 -6.40842e-06 0)
(-16.2154 -6.33503e-06 0)
(-16.1868 -6.26298e-06 0)
(-16.1584 -6.19219e-06 0)
(-16.1303 -6.12296e-06 0)
(-16.1025 -6.05459e-06 0)
(-16.0749 -5.98779e-06 0)
(-16.0475 -5.92176e-06 0)
(-16.0204 -5.85729e-06 0)
(-15.9935 -5.79336e-06 0)
(-15.9668 -5.7308e-06 0)
(-15.9404 -5.66901e-06 0)
(-15.9141 -5.60864e-06 0)
(-15.8881 -5.54891e-06 0)
(-15.8624 -5.49044e-06 0)
(-15.8368 -5.43278e-06 0)
(-15.8114 -5.37641e-06 0)
(-15.7862 -5.32048e-06 0)
(-15.7613 -5.2658e-06 0)
(-15.7365 -5.21175e-06 0)
(-15.7119 -5.15882e-06 0)
(-15.6875 -5.10632e-06 0)
(-15.6634 -5.05484e-06 0)
(-15.6394 -5.0041e-06 0)
(-15.6156 -4.95408e-06 0)
(-15.5919 -4.90474e-06 0)
(-15.5685 -4.85606e-06 0)
(-15.5452 -4.80857e-06 0)
(-15.5221 -4.7613e-06 0)
(-15.4991 -4.7152e-06 0)
(-15.4764 -4.6693e-06 0)
(-15.4538 -4.62471e-06 0)
(-15.4313 -4.58012e-06 0)
(-15.4091 -4.53682e-06 0)
(-15.387 -4.49355e-06 0)
(-15.365 -4.45141e-06 0)
(-15.3432 -4.4094e-06 0)
(-15.3216 -4.36849e-06 0)
(-15.3001 -4.32752e-06 0)
(-15.2787 -4.28776e-06 0)
(-15.2575 -4.24795e-06 0)
(-15.2365 -4.20917e-06 0)
(-15.2156 -4.1704e-06 0)
(-15.1948 -4.13286e-06 0)
(-15.1742 -4.09528e-06 0)
(-15.1537 -4.05881e-06 0)
(-15.1333 -4.02212e-06 0)
(-15.1131 -3.9866e-06 0)
(-15.093 -3.95078e-06 0)
(-15.0731 -3.91542e-06 0)
(-15.0543 -3.88679e-06 0)
(-15.0367 -3.85969e-06 0)
(-15.019 -3.8273e-06 0)
(-15.0013 -3.79576e-06 0)
(-14.9836 -3.76475e-06 0)
(-14.9658 -3.73379e-06 0)
(-14.9479 -3.70319e-06 0)
(-14.93 -3.6729e-06 0)
(-14.9121 -3.64268e-06 0)
(-14.8941 -3.61263e-06 0)
(-14.8761 -3.58272e-06 0)
(-14.858 -3.55289e-06 0)
(-14.8399 -3.52331e-06 0)
(-14.8217 -3.49375e-06 0)
(-14.8035 -3.46452e-06 0)
(-14.7852 -3.43521e-06 0)
(-14.7669 -3.4064e-06 0)
(-14.7486 -3.37713e-06 0)
(-14.7302 -3.34844e-06 0)
(-14.7118 -3.31956e-06 0)
(-14.6933 -3.29115e-06 0)
(-14.6749 -3.26255e-06 0)
(-14.6563 -3.23443e-06 0)
(-14.6377 -3.20627e-06 0)
(-14.6191 -3.17837e-06 0)
(-14.6005 -3.15044e-06 0)
(-14.5818 -3.12273e-06 0)
(-14.5631 -3.09501e-06 0)
(-14.5443 -3.06756e-06 0)
(-14.5255 -3.04012e-06 0)
(-14.5067 -3.013e-06 0)
(-14.4878 -2.9858e-06 0)
(-14.4689 -2.95905e-06 0)
(-14.45 -2.93204e-06 0)
(-14.431 -2.90549e-06 0)
(-14.412 -2.87881e-06 0)
(-14.393 -2.85274e-06 0)
(-14.3739 -2.82643e-06 0)
(-14.3549 -2.80046e-06 0)
(-14.3357 -2.77443e-06 0)
(-14.3166 -2.74884e-06 0)
(-14.2974 -2.7231e-06 0)
(-14.2782 -2.69753e-06 0)
(-14.259 -2.67205e-06 0)
(-14.2398 -2.64673e-06 0)
(-14.2205 -2.6218e-06 0)
(-14.2012 -2.59669e-06 0)
(-14.1819 -2.57198e-06 0)
(-14.1625 -2.54719e-06 0)
(-14.1432 -2.52276e-06 0)
(-14.1238 -2.49842e-06 0)
(-14.1044 -2.47421e-06 0)
(-14.0849 -2.45013e-06 0)
(-14.0655 -2.4265e-06 0)
(-14.046 -2.40245e-06 0)
(-14.0265 -2.37913e-06 0)
(-14.007 -2.35538e-06 0)
(-13.9875 -2.33229e-06 0)
(-13.9679 -2.30897e-06 0)
(-13.9484 -2.28607e-06 0)
(-13.9288 -2.26302e-06 0)
(-13.9092 -2.24049e-06 0)
(-13.8896 -2.21784e-06 0)
(-13.87 -2.19562e-06 0)
(-13.8504 -2.17321e-06 0)
(-13.8308 -2.15147e-06 0)
(-13.8111 -2.12948e-06 0)
(-13.7915 -2.10787e-06 0)
(-13.7718 -2.08608e-06 0)
(-13.7521 -2.06482e-06 0)
(-13.7324 -2.04329e-06 0)
(-13.7127 -2.02228e-06 0)
(-13.693 -2.00119e-06 0)
(-13.6733 -1.98043e-06 0)
(-13.6536 -1.9597e-06 0)
(-13.6339 -1.93934e-06 0)
(-13.6141 -1.9189e-06 0)
(-13.5944 -1.8988e-06 0)
(-13.5746 -1.87868e-06 0)
(-13.5549 -1.85874e-06 0)
(-13.5352 -1.83903e-06 0)
(-13.5154 -1.81938e-06 0)
(-13.4957 -1.80007e-06 0)
(-13.4759 -1.78055e-06 0)
(-13.4562 -1.76159e-06 0)
(-13.4364 -1.7424e-06 0)
(-13.4167 -1.7238e-06 0)
(-13.3969 -1.70494e-06 0)
(-13.3772 -1.68659e-06 0)
(-13.3575 -1.66796e-06 0)
(-13.3377 -1.64997e-06 0)
(-13.318 -1.63178e-06 0)
(-13.2982 -1.61406e-06 0)
(-13.2785 -1.59617e-06 0)
(-13.2588 -1.57884e-06 0)
(-13.2391 -1.56122e-06 0)
(-13.2194 -1.54401e-06 0)
(-13.1997 -1.52665e-06 0)
(-13.18 -1.50992e-06 0)
(-13.1603 -1.49295e-06 0)
(-13.1406 -1.47641e-06 0)
(-13.1209 -1.45944e-06 0)
(-13.1013 -1.44331e-06 0)
(-13.0816 -1.42683e-06 0)
(-13.062 -1.41088e-06 0)
(-13.0423 -1.39478e-06 0)
(-13.0227 -1.37915e-06 0)
(-13.0031 -1.36336e-06 0)
(-12.9836 -1.34782e-06 0)
(-12.964 -1.33234e-06 0)
(-12.9444 -1.31723e-06 0)
(-12.9248 -1.30202e-06 0)
(-12.9053 -1.28711e-06 0)
(-12.8858 -1.27214e-06 0)
(-12.8663 -1.25766e-06 0)
(-12.8468 -1.24305e-06 0)
(-12.8273 -1.22876e-06 0)
(-12.8078 -1.21442e-06 0)
(-12.7884 -1.20022e-06 0)
(-12.769 -1.18614e-06 0)
(-12.7496 -1.17238e-06 0)
(-12.7302 -1.15851e-06 0)
(-12.7109 -1.14499e-06 0)
(-12.6915 -1.13147e-06 0)
(-12.6722 -1.11807e-06 0)
(-12.6529 -1.10494e-06 0)
(-12.6336 -1.09171e-06 0)
(-12.6143 -1.07873e-06 0)
(-12.5951 -1.06589e-06 0)
(-12.5759 -1.05306e-06 0)
(-12.5567 -1.04033e-06 0)
(-12.5375 -1.02784e-06 0)
(-12.5184 -1.01561e-06 0)
(-12.4993 -1.00354e-06 0)
(-12.4802 -9.91261e-07 0)
(-12.4611 -9.79353e-07 0)
(-12.4421 -9.67378e-07 0)
(-12.4231 -9.55726e-07 0)
(-12.4041 -9.44037e-07 0)
(-12.3851 -9.32585e-07 0)
(-12.3662 -9.21037e-07 0)
(-12.3473 -9.09969e-07 0)
(-12.3285 -8.98782e-07 0)
(-12.3096 -8.87905e-07 0)
(-12.2908 -8.76951e-07 0)
(-12.272 -8.66309e-07 0)
(-12.2532 -8.55605e-07 0)
(-12.2345 -8.45182e-07 0)
(-12.2158 -8.3459e-07 0)
(-12.1971 -8.24347e-07 0)
(-12.1785 -8.14058e-07 0)
(-12.1599 -8.04085e-07 0)
(-12.1413 -7.93934e-07 0)
(-12.1227 -7.84094e-07 0)
(-12.1042 -7.74168e-07 0)
(-12.0858 -7.64639e-07 0)
(-12.0673 -7.54947e-07 0)
(-12.0489 -7.45508e-07 0)
(-12.0305 -7.36059e-07 0)
(-12.0122 -7.26995e-07 0)
(-11.9939 -7.17674e-07 0)
(-11.9756 -7.08721e-07 0)
(-11.9573 -6.99716e-07 0)
(-11.9392 -6.91107e-07 0)
(-11.921 -6.8227e-07 0)
(-11.9028 -6.737e-07 0)
(-11.8847 -6.65142e-07 0)
(-11.8667 -6.5669e-07 0)
(-11.8486 -6.48238e-07 0)
(-11.8306 -6.4001e-07 0)
(-11.8126 -6.31863e-07 0)
(-11.7948 -6.23738e-07 0)
(-11.7768 -6.15786e-07 0)
(-11.759 -6.07852e-07 0)
(-11.7412 -6.00063e-07 0)
(-11.7234 -5.92293e-07 0)
(-11.7057 -5.84573e-07 0)
(-11.688 -5.77078e-07 0)
(-11.6703 -5.69502e-07 0)
(-11.6527 -5.62134e-07 0)
(-11.6351 -5.5448e-07 0)
(-11.6157 -5.45308e-07 0)
(-11.5945 -5.3635e-07 0)
(-11.5737 -5.28448e-07 0)
(-11.5532 -5.2069e-07 0)
(-11.533 -5.12948e-07 0)
(-11.513 -5.05514e-07 0)
(-11.4934 -4.98065e-07 0)
(-11.474 -4.90897e-07 0)
(-11.455 -4.83925e-07 0)
(-11.4362 -4.76958e-07 0)
(-11.4177 -4.70245e-07 0)
(-11.3994 -4.63707e-07 0)
(-11.3814 -4.57302e-07 0)
(-11.3636 -4.50989e-07 0)
(-11.3461 -4.44992e-07 0)
(-11.3287 -4.38946e-07 0)
(-11.3117 -4.33133e-07 0)
(-11.2949 -4.27408e-07 0)
(-11.2783 -4.2185e-07 0)
(-11.2618 -4.16405e-07 0)
(-11.2457 -4.11025e-07 0)
(-11.2297 -4.05812e-07 0)
(-11.2139 -4.00651e-07 0)
(-11.1983 -3.9573e-07 0)
(-11.183 -3.90785e-07 0)
(-11.1677 -3.86152e-07 0)
(-11.1528 -3.81334e-07 0)
(-11.1379 -3.76779e-07 0)
(-11.1233 -3.723e-07 0)
(-11.1088 -3.67884e-07 0)
(-11.0945 -3.63516e-07 0)
(-11.0803 -3.59382e-07 0)
(-11.0664 -3.55277e-07 0)
(-11.0525 -3.51274e-07 0)
(-11.0389 -3.47267e-07 0)
(-11.0253 -3.43328e-07 0)
(-11.012 -3.39514e-07 0)
(-10.9988 -3.35752e-07 0)
(-10.9857 -3.3207e-07 0)
(-10.9728 -3.28436e-07 0)
(-10.96 -3.2489e-07 0)
(-10.9474 -3.21459e-07 0)
(-10.9349 -3.18044e-07 0)
(-10.9225 -3.14657e-07 0)
(-10.9103 -3.11432e-07 0)
(-10.8981 -3.08191e-07 0)
(-10.8861 -3.05098e-07 0)
(-10.8742 -3.01975e-07 0)
(-10.8625 -2.98966e-07 0)
(-10.8508 -2.95975e-07 0)
(-10.8393 -2.93134e-07 0)
(-10.8279 -2.90209e-07 0)
(-10.8166 -2.87368e-07 0)
(-10.8054 -2.84619e-07 0)
(-10.7944 -2.81904e-07 0)
(-10.7834 -2.79192e-07 0)
(-10.7725 -2.7661e-07 0)
(-10.7617 -2.73943e-07 0)
(-10.7511 -2.71449e-07 0)
(-10.7405 -2.68918e-07 0)
(-10.73 -2.66496e-07 0)
(-10.7196 -2.63976e-07 0)
(-10.7094 -2.61639e-07 0)
(-10.6991 -2.5922e-07 0)
(-10.6891 -2.57004e-07 0)
(-10.679 -2.54607e-07 0)
(-10.6692 -2.52493e-07 0)
(-10.6593 -2.50253e-07 0)
(-10.6496 -2.482e-07 0)
(-10.6399 -2.45958e-07 0)
(-10.6304 -2.44114e-07 0)
(-10.6208 -2.41907e-07 0)
(-10.6114 -2.40117e-07 0)
(-10.602 -2.37976e-07 0)
(-10.5928 -2.36281e-07 0)
(-10.5835 -2.34242e-07 0)
(-10.5745 -2.32595e-07 0)
(-10.5653 -2.30528e-07 0)
(-10.5564 -2.28978e-07 0)
(-10.5474 -2.27017e-07 0)
(-10.5387 -2.25576e-07 0)
(-10.5297 -2.23792e-07 0)
(-10.5212 -2.22264e-07 0)
(-10.5123 -2.20901e-07 0)
(-10.5039 -2.18954e-07 0)
(-10.4952 -2.18847e-07 0)
(-10.4867 -2.15044e-07 0)
(-10.4784 -2.18858e-07 0)
(-10.4696 -2.08366e-07 0)
(-10.4621 -2.24782e-07 0)
(-10.452 -1.92815e-07 0)
(-10.4471 -2.4254e-07 0)
(-10.4329 -1.62264e-07 0)
(-10.4346 -2.16705e-07 0)
(-10.4155 -2.50332e-07 0)
)
;
    }
    symmetry
    {
        type            symmetryPlane;
    }
    frontAndBack
    {
        type            empty;
    }
}


// ************************************************************************* //
