/*--------------------------------*- C++ -*----------------------------------*\
| =========                 |                                                 |
| \\      /  F ield         | OpenFOAM: The Open Source CFD Toolbox           |
|  \\    /   O peration     | Version:  v2012                                 |
|   \\  /    A nd           | Website:  www.openfoam.com                      |
|    \\/     M anipulation  |                                                 |
\*---------------------------------------------------------------------------*/
FoamFile
{
    version     2.0;
    format      ascii;
    class       volScalarField;
    location    "15.5";
    object      yPlus;
}
// * * * * * * * * * * * * * * * * * * * * * * * * * * * * * * * * * * * * * //

dimensions      [0 0 0 0 0 0 0];


internalField   uniform 0;

boundaryField
{
    inlet
    {
        type            calculated;
        value           uniform 0;
    }
    outlet
    {
        type            calculated;
        value           uniform 0;
    }
    topWall
    {
        type            calculated;
        value           nonuniform List<scalar> 
545
(
0.0689965
0.119012
0.152664
0.17943
0.202075
0.221875
0.239545
0.255535
0.270152
0.283618
0.296097
0.307717
0.318581
0.328772
0.338358
0.347396
0.355936
0.36402
0.371685
0.378963
0.385882
0.392467
0.398742
0.404727
0.41044
0.415898
0.421116
0.426108
0.430888
0.435466
0.439855
0.444063
0.448101
0.451977
0.4557
0.459277
0.462715
0.46602
0.4692
0.47226
0.475205
0.478041
0.480772
0.483404
0.48594
0.488385
0.490743
0.493017
0.495211
0.497328
0.499371
0.501344
0.503249
0.505089
0.506867
0.508585
0.510245
0.511849
0.5134
0.5149
0.516351
0.517754
0.519112
0.520426
0.521697
0.522927
0.524119
0.525272
0.526388
0.52747
0.528517
0.529532
0.530502
0.531439
0.532368
0.533288
0.5342
0.535104
0.535999
0.536887
0.537766
0.538637
0.5395
0.540356
0.541204
0.542044
0.542877
0.543702
0.54452
0.54533
0.546133
0.546929
0.547718
0.5485
0.549275
0.550044
0.550734
0.551351
0.551967
0.552583
0.553198
0.553812
0.554425
0.555038
0.55565
0.556261
0.556872
0.557481
0.55809
0.558698
0.559306
0.559912
0.560518
0.561123
0.561727
0.56233
0.562933
0.563535
0.564136
0.564736
0.565335
0.565933
0.56653
0.567127
0.567723
0.568317
0.568911
0.569504
0.570096
0.570687
0.571277
0.571867
0.572455
0.573042
0.573628
0.574214
0.574798
0.575382
0.575964
0.576545
0.577126
0.577705
0.578283
0.578861
0.579437
0.580012
0.580586
0.581159
0.581731
0.582302
0.582872
0.58344
0.584008
0.584574
0.58514
0.585704
0.586267
0.586828
0.587389
0.587948
0.588507
0.589064
0.58962
0.590174
0.590728
0.59128
0.591831
0.59238
0.592929
0.593476
0.594022
0.594566
0.59511
0.595652
0.596192
0.596731
0.597269
0.597806
0.598341
0.598875
0.599408
0.599939
0.600469
0.600997
0.601524
0.602049
0.602573
0.603096
0.603617
0.604137
0.604655
0.605172
0.605687
0.6062
0.606713
0.607223
0.607732
0.60824
0.608746
0.609251
0.609753
0.610255
0.610754
0.611253
0.611749
0.612244
0.612737
0.613229
0.613719
0.614207
0.614693
0.615178
0.615661
0.616143
0.616623
0.617101
0.617577
0.618051
0.618524
0.618995
0.619464
0.619932
0.620397
0.620861
0.621323
0.621783
0.622241
0.622697
0.623152
0.623605
0.624055
0.624504
0.624951
0.625396
0.625839
0.62628
0.626719
0.627157
0.627592
0.628025
0.628456
0.628885
0.629313
0.629738
0.630161
0.630582
0.631001
0.631418
0.631833
0.632245
0.632656
0.633065
0.633471
0.633875
0.634277
0.634677
0.635075
0.63547
0.635864
0.636255
0.636644
0.637031
0.637415
0.637797
0.638177
0.638555
0.63893
0.639303
0.639674
0.640022
0.640348
0.640675
0.641004
0.641333
0.641663
0.641994
0.642326
0.642659
0.642992
0.643326
0.643661
0.643996
0.644332
0.644668
0.645005
0.645342
0.645679
0.646017
0.646354
0.646692
0.64703
0.647368
0.647706
0.648043
0.648381
0.648718
0.649055
0.649391
0.649727
0.650062
0.650396
0.65073
0.651063
0.651395
0.651725
0.652055
0.652384
0.652711
0.653036
0.65336
0.653683
0.654004
0.654323
0.65464
0.654954
0.655267
0.655577
0.655885
0.656191
0.656493
0.656793
0.65709
0.657384
0.657675
0.657962
0.658246
0.658526
0.658803
0.659075
0.659344
0.659608
0.659868
0.660123
0.660374
0.66062
0.660861
0.661096
0.661327
0.661551
0.66177
0.661983
0.66219
0.662391
0.662586
0.662773
0.662954
0.663128
0.663295
0.663454
0.663606
0.66375
0.663886
0.664014
0.664133
0.664244
0.664345
0.664438
0.664522
0.664596
0.66466
0.664714
0.664758
0.664792
0.664815
0.664828
0.664829
0.664819
0.664797
0.664764
0.664719
0.664661
0.664591
0.664509
0.664413
0.664304
0.664182
0.664046
0.663897
0.663733
0.663555
0.663362
0.663155
0.662933
0.662695
0.662442
0.662173
0.661888
0.661587
0.66127
0.660936
0.660586
0.660218
0.659834
0.659431
0.659012
0.658574
0.658119
0.657645
0.657153
0.656643
0.656113
0.655565
0.654998
0.654412
0.653806
0.653181
0.652537
0.651872
0.651188
0.650484
0.64976
0.649016
0.648251
0.647466
0.646661
0.645835
0.644989
0.644123
0.643235
0.642328
0.641399
0.64045
0.639481
0.638491
0.63748
0.636449
0.635397
0.634326
0.633233
0.632121
0.630989
0.629836
0.628664
0.627472
0.626261
0.62503
0.623781
0.622512
0.621224
0.619918
0.618594
0.617251
0.615891
0.614513
0.613119
0.611707
0.610278
0.608834
0.607373
0.605897
0.60424
0.602409
0.600582
0.598758
0.59694
0.595127
0.59332
0.591521
0.58973
0.587947
0.586173
0.58441
0.582656
0.580914
0.579183
0.577464
0.575758
0.574065
0.572385
0.570719
0.569067
0.56743
0.565808
0.564201
0.56261
0.561035
0.559476
0.557934
0.556409
0.5549
0.55341
0.551937
0.550482
0.549045
0.547626
0.546226
0.544845
0.543483
0.542139
0.540816
0.539512
0.538228
0.536963
0.535719
0.534495
0.533292
0.532109
0.530947
0.529806
0.528686
0.527587
0.52651
0.525454
0.524421
0.523409
0.522419
0.521451
0.520506
0.519583
0.518683
0.517806
0.516951
0.51612
0.515312
0.514527
0.513766
0.513029
0.512315
0.511625
0.51096
0.510318
0.509701
0.509108
0.50854
0.507996
0.507478
0.506984
0.506515
0.506071
0.505652
0.505259
0.504891
0.504549
0.504232
0.50394
0.503675
0.503435
0.503221
0.503033
0.50287
0.502734
0.502624
0.502538
0.502484
0.502434
)
;
    }
    bottomWall
    {
        type            calculated;
        value           nonuniform List<scalar> 
449
(
0.139558
0.089022
0.0758619
0.0694849
0.0652984
0.0621695
0.0596726
0.0576075
0.0558553
0.0543381
0.0530037
0.0518155
0.0507472
0.0497785
0.0488939
0.048081
0.04733
0.0466329
0.0459831
0.0453751
0.0448044
0.044267
0.0437597
0.0432795
0.0428239
0.0423908
0.0419783
0.0415847
0.0412084
0.0408483
0.0405031
0.0401717
0.0398532
0.0395467
0.0392514
0.0389667
0.0386919
0.0384264
0.0381696
0.0379211
0.0376803
0.037447
0.0372206
0.0370009
0.0367874
0.03658
0.0363782
0.0361819
0.0359907
0.0358044
0.0356229
0.0354459
0.0352732
0.0351047
0.0349401
0.0347793
0.0346222
0.0344685
0.0343183
0.0341713
0.0340274
0.0338866
0.0337486
0.0336135
0.033481
0.0333512
0.0332239
0.033099
0.0329765
0.0328562
0.0327382
0.0326223
0.0325084
0.0323966
0.0322867
0.0321787
0.0320726
0.0319682
0.0318655
0.0317645
0.0316652
0.0315674
0.0314712
0.0313765
0.0312832
0.0311913
0.0311009
0.0310118
0.030924
0.0308375
0.0307522
0.0306681
0.0305853
0.0305036
0.030423
0.0303435
0.0302651
0.0301877
0.0301114
0.0300361
0.0299618
0.0298884
0.029816
0.0297445
0.0296739
0.0296041
0.0295352
0.0294672
0.0294
0.0293336
0.029268
0.0292031
0.029139
0.0290757
0.0290131
0.0289512
0.02889
0.0288295
0.0287696
0.0287105
0.0286519
0.028594
0.0285368
0.0284801
0.0284241
0.0283686
0.0283137
0.0282594
0.0282056
0.0281524
0.0280998
0.0280476
0.027996
0.0279449
0.0278943
0.0278442
0.0277946
0.0277454
0.0276968
0.0276486
0.0276008
0.0275535
0.0275066
0.0274602
0.0274142
0.0273686
0.0273235
0.0272787
0.0272344
0.0271904
0.0271468
0.0271036
0.0270608
0.0270184
0.0269763
0.0269346
0.0268932
0.0268522
0.0268115
0.0267712
0.0267312
0.0266916
0.0266522
0.0266132
0.0265746
0.0265362
0.0264981
0.0264603
0.0264229
0.0263857
0.0263489
0.0263123
0.026276
0.026242
0.02621
0.026178
0.026146
0.0261139
0.0260818
0.0260496
0.0260174
0.0259851
0.0259528
0.0259204
0.025888
0.0258556
0.025823
0.0257905
0.0257579
0.0257252
0.0256925
0.0256597
0.0256269
0.0255941
0.0255612
0.0255283
0.0254953
0.0254623
0.0254293
0.0253962
0.0253631
0.0253299
0.0252968
0.0252636
0.0252303
0.0251971
0.0251638
0.0251305
0.0250972
0.0250638
0.0250304
0.024997
0.0249636
0.0249302
0.0248968
0.0248633
0.0248299
0.0247964
0.0247629
0.0247295
0.024696
0.0246625
0.024629
0.0245955
0.024562
0.0245285
0.024495
0.0244615
0.0244281
0.0243946
0.0243611
0.0243277
0.0242943
0.0242608
0.0242274
0.024194
0.0241606
0.0241273
0.024094
0.0240606
0.0240273
0.0239941
0.0239608
0.0239276
0.0238944
0.0238613
0.0238281
0.023795
0.023762
0.0237289
0.0236959
0.023663
0.0236301
0.0235972
0.0235643
0.0235315
0.0234988
0.0234661
0.0234334
0.0234008
0.0233682
0.0233357
0.0233032
0.0232708
0.0232385
0.0232062
0.0231739
0.0231417
0.0231096
0.0230775
0.0230454
0.0230135
0.0229816
0.0229497
0.022918
0.0228862
0.0228546
0.022823
0.0227915
0.0227601
0.0227287
0.0226974
0.0226661
0.022635
0.0226039
0.0225729
0.0225419
0.0225111
0.0224803
0.0224496
0.022419
0.0223884
0.0223579
0.0223276
0.0222973
0.022267
0.0222369
0.0222068
0.0221769
0.022147
0.0221172
0.0220875
0.0220579
0.0220283
0.0219989
0.0219695
0.0219403
0.0219111
0.021882
0.021853
0.0218241
0.0217953
0.0217666
0.021738
0.0217095
0.0216811
0.0216528
0.0216245
0.0215964
0.0215684
0.0215405
0.0215126
0.0214849
0.0214573
0.0214297
0.0214023
0.021375
0.0213478
0.0213207
0.0212936
0.0212667
0.0212399
0.0212132
0.0211866
0.0211601
0.0211337
0.0211074
0.0210813
0.0210552
0.0210292
0.0210034
0.0209776
0.020952
0.0209264
0.020901
0.0208757
0.0208504
0.0208253
0.0208003
0.0207754
0.0207507
0.020726
0.0207014
0.0206769
0.0206497
0.0206202
0.0205911
0.0205625
0.0205344
0.0205069
0.0204799
0.0204533
0.0204273
0.0204017
0.0203766
0.0203519
0.0203277
0.0203039
0.0202804
0.0202574
0.0202348
0.0202125
0.0201906
0.0201691
0.0201479
0.0201271
0.0201065
0.0200863
0.0200664
0.0200468
0.0200276
0.0200086
0.0199898
0.0199714
0.0199532
0.0199353
0.0199177
0.0199003
0.0198832
0.0198663
0.0198496
0.0198332
0.019817
0.019801
0.0197852
0.0197697
0.0197543
0.0197392
0.0197242
0.0197095
0.0196949
0.0196805
0.0196663
0.0196523
0.0196385
0.0196248
0.0196114
0.019598
0.0195849
0.0195719
0.019559
0.0195463
0.0195338
0.0195214
0.0195092
0.0194971
0.0194851
0.0194733
0.0194616
0.01945
0.0194386
0.0194273
0.0194161
0.0194051
0.0193941
0.0193833
0.0193726
0.0193621
0.0193516
0.0193412
0.019331
0.0193208
0.0193108
0.0193009
0.019291
0.0192813
0.0192716
0.0192621
0.0192526
0.0192432
0.0192339
0.0192247
0.0192155
0.0192063
0.0191972
0.0191885
0.0191739
0.0191824
0.0191566
)
;
    }
    symmetry
    {
        type            symmetryPlane;
    }
    frontAndBack
    {
        type            empty;
    }
}


// ************************************************************************* //
