/*--------------------------------*- C++ -*----------------------------------*\
| =========                 |                                                 |
| \\      /  F ield         | OpenFOAM: The Open Source CFD Toolbox           |
|  \\    /   O peration     | Version:  v2012                                 |
|   \\  /    A nd           | Website:  www.openfoam.com                      |
|    \\/     M anipulation  |                                                 |
\*---------------------------------------------------------------------------*/
FoamFile
{
    version     2.0;
    format      ascii;
    class       volVectorField;
    location    "27.5";
    object      wallShearStress;
}
// * * * * * * * * * * * * * * * * * * * * * * * * * * * * * * * * * * * * * //

dimensions      [0 2 -2 0 0 0 0];


internalField   uniform (0 0 0);

boundaryField
{
    inlet
    {
        type            calculated;
        value           uniform (0 0 0);
    }
    outlet
    {
        type            calculated;
        value           uniform (0 0 0);
    }
    topWall
    {
        type            calculated;
        value           nonuniform List<vector> 
545
(
(1.48263e-08 -1.04362e-08 0)
(1.48196e-08 -2.91975e-08 0)
(1.48054e-08 -4.87041e-08 0)
(1.47849e-08 -6.76384e-08 0)
(1.47586e-08 -8.57539e-08 0)
(1.47273e-08 -1.03281e-07 0)
(1.46913e-08 -1.20368e-07 0)
(1.4651e-08 -1.37006e-07 0)
(1.46068e-08 -1.53155e-07 0)
(1.4559e-08 -1.68815e-07 0)
(1.4508e-08 -1.84007e-07 0)
(1.44543e-08 -1.98747e-07 0)
(1.43979e-08 -2.13046e-07 0)
(1.43394e-08 -2.26913e-07 0)
(1.42789e-08 -2.40357e-07 0)
(1.42166e-08 -2.53391e-07 0)
(1.41529e-08 -2.66025e-07 0)
(1.4088e-08 -2.7827e-07 0)
(1.4022e-08 -2.90136e-07 0)
(1.39551e-08 -3.01636e-07 0)
(1.38876e-08 -3.12778e-07 0)
(1.38195e-08 -3.23573e-07 0)
(1.37511e-08 -3.34032e-07 0)
(1.36825e-08 -3.44165e-07 0)
(1.36137e-08 -3.53981e-07 0)
(1.3545e-08 -3.6349e-07 0)
(1.34763e-08 -3.72702e-07 0)
(1.34079e-08 -3.81625e-07 0)
(1.33398e-08 -3.90269e-07 0)
(1.32721e-08 -3.98642e-07 0)
(1.32049e-08 -4.06752e-07 0)
(1.31382e-08 -4.1461e-07 0)
(1.30721e-08 -4.22221e-07 0)
(1.30067e-08 -4.29594e-07 0)
(1.29419e-08 -4.36738e-07 0)
(1.2878e-08 -4.43658e-07 0)
(1.28147e-08 -4.50363e-07 0)
(1.27523e-08 -4.56859e-07 0)
(1.26908e-08 -4.63153e-07 0)
(1.26301e-08 -4.69251e-07 0)
(1.25704e-08 -4.75161e-07 0)
(1.25115e-08 -4.80887e-07 0)
(1.24536e-08 -4.86437e-07 0)
(1.23966e-08 -4.91816e-07 0)
(1.23406e-08 -4.97029e-07 0)
(1.22855e-08 -5.02081e-07 0)
(1.22314e-08 -5.06979e-07 0)
(1.21783e-08 -5.11726e-07 0)
(1.21262e-08 -5.16329e-07 0)
(1.2075e-08 -5.20791e-07 0)
(1.20248e-08 -5.25117e-07 0)
(1.19756e-08 -5.29312e-07 0)
(1.19274e-08 -5.33379e-07 0)
(1.18801e-08 -5.37324e-07 0)
(1.18337e-08 -5.41149e-07 0)
(1.17884e-08 -5.44859e-07 0)
(1.17439e-08 -5.48458e-07 0)
(1.17004e-08 -5.51949e-07 0)
(1.16578e-08 -5.55335e-07 0)
(1.16161e-08 -5.58619e-07 0)
(1.15753e-08 -5.61806e-07 0)
(1.15354e-08 -5.64898e-07 0)
(1.14964e-08 -5.67899e-07 0)
(1.14582e-08 -5.7081e-07 0)
(1.14209e-08 -5.73635e-07 0)
(1.13844e-08 -5.76377e-07 0)
(1.13487e-08 -5.79038e-07 0)
(1.13138e-08 -5.81621e-07 0)
(1.12797e-08 -5.84129e-07 0)
(1.12465e-08 -5.86562e-07 0)
(1.12139e-08 -5.88926e-07 0)
(1.11823e-08 -5.91216e-07 0)
(1.11516e-08 -5.93418e-07 0)
(1.11215e-08 -5.95552e-07 0)
(1.10917e-08 -5.97659e-07 0)
(1.1062e-08 -5.99755e-07 0)
(1.10324e-08 -6.01838e-07 0)
(1.10029e-08 -6.03907e-07 0)
(1.09734e-08 -6.05959e-07 0)
(1.09439e-08 -6.07997e-07 0)
(1.09146e-08 -6.1002e-07 0)
(1.08852e-08 -6.12028e-07 0)
(1.0856e-08 -6.14022e-07 0)
(1.08268e-08 -6.16001e-07 0)
(1.07977e-08 -6.17966e-07 0)
(1.07686e-08 -6.19917e-07 0)
(1.07396e-08 -6.21854e-07 0)
(1.07106e-08 -6.23776e-07 0)
(1.06818e-08 -6.25685e-07 0)
(1.06529e-08 -6.2758e-07 0)
(1.06242e-08 -6.29461e-07 0)
(1.05955e-08 -6.31328e-07 0)
(1.05669e-08 -6.33182e-07 0)
(1.05384e-08 -6.35021e-07 0)
(1.05098e-08 -6.36852e-07 0)
(1.04822e-08 -6.38648e-07 0)
(1.04565e-08 -6.40292e-07 0)
(1.04322e-08 -6.41782e-07 0)
(1.04088e-08 -6.43229e-07 0)
(1.03854e-08 -6.44681e-07 0)
(1.0362e-08 -6.46146e-07 0)
(1.03386e-08 -6.47613e-07 0)
(1.03151e-08 -6.49077e-07 0)
(1.02914e-08 -6.5054e-07 0)
(1.02677e-08 -6.52003e-07 0)
(1.02439e-08 -6.53467e-07 0)
(1.022e-08 -6.54931e-07 0)
(1.0196e-08 -6.56395e-07 0)
(1.01719e-08 -6.57858e-07 0)
(1.01477e-08 -6.59322e-07 0)
(1.01234e-08 -6.60786e-07 0)
(1.0099e-08 -6.62249e-07 0)
(1.00745e-08 -6.63713e-07 0)
(1.00499e-08 -6.65176e-07 0)
(1.00253e-08 -6.66639e-07 0)
(1.00005e-08 -6.68103e-07 0)
(9.97568e-09 -6.69565e-07 0)
(9.95073e-09 -6.71028e-07 0)
(9.92569e-09 -6.72491e-07 0)
(9.90056e-09 -6.73953e-07 0)
(9.87533e-09 -6.75415e-07 0)
(9.85001e-09 -6.76877e-07 0)
(9.82459e-09 -6.78338e-07 0)
(9.79908e-09 -6.79799e-07 0)
(9.77347e-09 -6.8126e-07 0)
(9.74777e-09 -6.8272e-07 0)
(9.72198e-09 -6.8418e-07 0)
(9.69609e-09 -6.85639e-07 0)
(9.6701e-09 -6.87098e-07 0)
(9.64402e-09 -6.88556e-07 0)
(9.61784e-09 -6.90014e-07 0)
(9.59157e-09 -6.91472e-07 0)
(9.56521e-09 -6.92928e-07 0)
(9.53875e-09 -6.94385e-07 0)
(9.5122e-09 -6.9584e-07 0)
(9.48555e-09 -6.97295e-07 0)
(9.4588e-09 -6.98749e-07 0)
(9.43196e-09 -7.00203e-07 0)
(9.40503e-09 -7.01656e-07 0)
(9.378e-09 -7.03108e-07 0)
(9.35088e-09 -7.04559e-07 0)
(9.32366e-09 -7.0601e-07 0)
(9.29634e-09 -7.0746e-07 0)
(9.26893e-09 -7.08909e-07 0)
(9.24143e-09 -7.10357e-07 0)
(9.21383e-09 -7.11804e-07 0)
(9.18614e-09 -7.1325e-07 0)
(9.15835e-09 -7.14695e-07 0)
(9.13047e-09 -7.16139e-07 0)
(9.10249e-09 -7.17583e-07 0)
(9.07442e-09 -7.19025e-07 0)
(9.04626e-09 -7.20466e-07 0)
(9.018e-09 -7.21906e-07 0)
(8.98964e-09 -7.23345e-07 0)
(8.9612e-09 -7.24782e-07 0)
(8.93265e-09 -7.26219e-07 0)
(8.90402e-09 -7.27654e-07 0)
(8.87529e-09 -7.29088e-07 0)
(8.84646e-09 -7.30521e-07 0)
(8.81755e-09 -7.31952e-07 0)
(8.78853e-09 -7.33383e-07 0)
(8.75943e-09 -7.34811e-07 0)
(8.73023e-09 -7.36239e-07 0)
(8.70094e-09 -7.37665e-07 0)
(8.67155e-09 -7.39089e-07 0)
(8.64208e-09 -7.40512e-07 0)
(8.61251e-09 -7.41934e-07 0)
(8.58284e-09 -7.43354e-07 0)
(8.55309e-09 -7.44772e-07 0)
(8.52324e-09 -7.46189e-07 0)
(8.4933e-09 -7.47605e-07 0)
(8.46327e-09 -7.49018e-07 0)
(8.43315e-09 -7.5043e-07 0)
(8.40293e-09 -7.5184e-07 0)
(8.37262e-09 -7.53248e-07 0)
(8.34222e-09 -7.54655e-07 0)
(8.31174e-09 -7.5606e-07 0)
(8.28116e-09 -7.57463e-07 0)
(8.25049e-09 -7.58864e-07 0)
(8.21972e-09 -7.60263e-07 0)
(8.18887e-09 -7.6166e-07 0)
(8.15793e-09 -7.63055e-07 0)
(8.1269e-09 -7.64448e-07 0)
(8.09578e-09 -7.65839e-07 0)
(8.06457e-09 -7.67229e-07 0)
(8.03327e-09 -7.68615e-07 0)
(8.00189e-09 -7.7e-07 0)
(7.97041e-09 -7.71383e-07 0)
(7.93885e-09 -7.72763e-07 0)
(7.90719e-09 -7.74141e-07 0)
(7.87546e-09 -7.75517e-07 0)
(7.84363e-09 -7.76891e-07 0)
(7.81172e-09 -7.78262e-07 0)
(7.77972e-09 -7.79631e-07 0)
(7.74763e-09 -7.80997e-07 0)
(7.71546e-09 -7.82361e-07 0)
(7.6832e-09 -7.83723e-07 0)
(7.65086e-09 -7.85082e-07 0)
(7.61843e-09 -7.86438e-07 0)
(7.58592e-09 -7.87792e-07 0)
(7.55332e-09 -7.89143e-07 0)
(7.52064e-09 -7.90492e-07 0)
(7.48788e-09 -7.91838e-07 0)
(7.45503e-09 -7.93181e-07 0)
(7.4221e-09 -7.94522e-07 0)
(7.38909e-09 -7.95859e-07 0)
(7.35599e-09 -7.97194e-07 0)
(7.32282e-09 -7.98526e-07 0)
(7.28956e-09 -7.99855e-07 0)
(7.25622e-09 -8.01181e-07 0)
(7.2228e-09 -8.02504e-07 0)
(7.18931e-09 -8.03824e-07 0)
(7.15573e-09 -8.05141e-07 0)
(7.12207e-09 -8.06455e-07 0)
(7.08834e-09 -8.07766e-07 0)
(7.05453e-09 -8.09074e-07 0)
(7.02064e-09 -8.10378e-07 0)
(6.98667e-09 -8.11679e-07 0)
(6.95263e-09 -8.12977e-07 0)
(6.91851e-09 -8.14272e-07 0)
(6.88431e-09 -8.15563e-07 0)
(6.85004e-09 -8.16851e-07 0)
(6.8157e-09 -8.18136e-07 0)
(6.78128e-09 -8.19417e-07 0)
(6.74679e-09 -8.20695e-07 0)
(6.71223e-09 -8.21969e-07 0)
(6.67759e-09 -8.23239e-07 0)
(6.64288e-09 -8.24506e-07 0)
(6.60811e-09 -8.25769e-07 0)
(6.57326e-09 -8.27029e-07 0)
(6.53834e-09 -8.28285e-07 0)
(6.50335e-09 -8.29537e-07 0)
(6.46829e-09 -8.30785e-07 0)
(6.43317e-09 -8.3203e-07 0)
(6.39797e-09 -8.3327e-07 0)
(6.36272e-09 -8.34507e-07 0)
(6.32739e-09 -8.3574e-07 0)
(6.292e-09 -8.36969e-07 0)
(6.25654e-09 -8.38193e-07 0)
(6.22102e-09 -8.39414e-07 0)
(6.18544e-09 -8.40631e-07 0)
(6.14979e-09 -8.41843e-07 0)
(6.11408e-09 -8.43052e-07 0)
(6.07831e-09 -8.44256e-07 0)
(6.04248e-09 -8.45456e-07 0)
(6.00659e-09 -8.46651e-07 0)
(5.97064e-09 -8.47842e-07 0)
(5.93463e-09 -8.49029e-07 0)
(5.89857e-09 -8.50212e-07 0)
(5.86244e-09 -8.5139e-07 0)
(5.82626e-09 -8.52563e-07 0)
(5.79003e-09 -8.53732e-07 0)
(5.75374e-09 -8.54897e-07 0)
(5.71739e-09 -8.56057e-07 0)
(5.68099e-09 -8.57212e-07 0)
(5.64454e-09 -8.58362e-07 0)
(5.60804e-09 -8.59508e-07 0)
(5.57149e-09 -8.60649e-07 0)
(5.53489e-09 -8.61785e-07 0)
(5.49824e-09 -8.62917e-07 0)
(5.46154e-09 -8.64043e-07 0)
(5.42479e-09 -8.65165e-07 0)
(5.388e-09 -8.66282e-07 0)
(5.35116e-09 -8.67393e-07 0)
(5.31427e-09 -8.685e-07 0)
(5.27734e-09 -8.69602e-07 0)
(5.2404e-09 -8.70697e-07 0)
(5.20324e-09 -8.71791e-07 0)
(5.16682e-09 -8.72869e-07 0)
(5.13185e-09 -8.73893e-07 0)
(5.09775e-09 -8.74865e-07 0)
(5.06411e-09 -8.75823e-07 0)
(5.03032e-09 -8.76788e-07 0)
(4.99624e-09 -8.7776e-07 0)
(4.96185e-09 -8.78738e-07 0)
(4.92714e-09 -8.79718e-07 0)
(4.89209e-09 -8.80702e-07 0)
(4.85671e-09 -8.81689e-07 0)
(4.82099e-09 -8.8268e-07 0)
(4.78494e-09 -8.83674e-07 0)
(4.74855e-09 -8.84671e-07 0)
(4.71182e-09 -8.85671e-07 0)
(4.67475e-09 -8.86675e-07 0)
(4.63734e-09 -8.87681e-07 0)
(4.59958e-09 -8.8869e-07 0)
(4.56147e-09 -8.89701e-07 0)
(4.52302e-09 -8.90715e-07 0)
(4.48422e-09 -8.91731e-07 0)
(4.44507e-09 -8.92749e-07 0)
(4.40556e-09 -8.9377e-07 0)
(4.3657e-09 -8.94792e-07 0)
(4.32549e-09 -8.95816e-07 0)
(4.28492e-09 -8.96841e-07 0)
(4.24399e-09 -8.97868e-07 0)
(4.20271e-09 -8.98896e-07 0)
(4.16107e-09 -8.99924e-07 0)
(4.11907e-09 -9.00954e-07 0)
(4.07671e-09 -9.01984e-07 0)
(4.03399e-09 -9.03015e-07 0)
(3.99091e-09 -9.04045e-07 0)
(3.94746e-09 -9.05076e-07 0)
(3.90366e-09 -9.06106e-07 0)
(3.85949e-09 -9.07136e-07 0)
(3.81496e-09 -9.08165e-07 0)
(3.77007e-09 -9.09193e-07 0)
(3.72481e-09 -9.1022e-07 0)
(3.6792e-09 -9.11246e-07 0)
(3.63322e-09 -9.1227e-07 0)
(3.58688e-09 -9.13292e-07 0)
(3.54018e-09 -9.14312e-07 0)
(3.49312e-09 -9.15329e-07 0)
(3.4457e-09 -9.16343e-07 0)
(3.39792e-09 -9.17355e-07 0)
(3.34979e-09 -9.18363e-07 0)
(3.3013e-09 -9.19367e-07 0)
(3.25245e-09 -9.20367e-07 0)
(3.20325e-09 -9.21364e-07 0)
(3.1537e-09 -9.22355e-07 0)
(3.10381e-09 -9.23342e-07 0)
(3.05356e-09 -9.24323e-07 0)
(3.00297e-09 -9.25299e-07 0)
(2.95204e-09 -9.26269e-07 0)
(2.90077e-09 -9.27232e-07 0)
(2.84916e-09 -9.28189e-07 0)
(2.79722e-09 -9.29139e-07 0)
(2.74495e-09 -9.30081e-07 0)
(2.69235e-09 -9.31016e-07 0)
(2.63943e-09 -9.31942e-07 0)
(2.58618e-09 -9.3286e-07 0)
(2.53263e-09 -9.33769e-07 0)
(2.47876e-09 -9.34668e-07 0)
(2.42458e-09 -9.35558e-07 0)
(2.37011e-09 -9.36437e-07 0)
(2.31533e-09 -9.37305e-07 0)
(2.26027e-09 -9.38163e-07 0)
(2.20492e-09 -9.39008e-07 0)
(2.14929e-09 -9.39842e-07 0)
(2.09339e-09 -9.40663e-07 0)
(2.03722e-09 -9.41471e-07 0)
(1.98078e-09 -9.42265e-07 0)
(1.9241e-09 -9.43046e-07 0)
(1.86717e-09 -9.43812e-07 0)
(1.81e-09 -9.44563e-07 0)
(1.75259e-09 -9.45298e-07 0)
(1.69497e-09 -9.46017e-07 0)
(1.63713e-09 -9.4672e-07 0)
(1.57908e-09 -9.47406e-07 0)
(1.52084e-09 -9.48074e-07 0)
(1.4624e-09 -9.48723e-07 0)
(1.40379e-09 -9.49354e-07 0)
(1.34501e-09 -9.49966e-07 0)
(1.28608e-09 -9.50558e-07 0)
(1.22699e-09 -9.51129e-07 0)
(1.16777e-09 -9.51679e-07 0)
(1.10843e-09 -9.52208e-07 0)
(1.04897e-09 -9.52714e-07 0)
(9.89403e-10 -9.53198e-07 0)
(9.29752e-10 -9.53658e-07 0)
(8.70023e-10 -9.54094e-07 0)
(8.1023e-10 -9.54505e-07 0)
(7.50387e-10 -9.54891e-07 0)
(6.90506e-10 -9.55252e-07 0)
(6.30602e-10 -9.55585e-07 0)
(5.7069e-10 -9.55892e-07 0)
(5.10783e-10 -9.56171e-07 0)
(4.50897e-10 -9.56421e-07 0)
(3.91046e-10 -9.56643e-07 0)
(3.31248e-10 -9.56835e-07 0)
(2.71517e-10 -9.56996e-07 0)
(2.1187e-10 -9.57127e-07 0)
(1.52324e-10 -9.57226e-07 0)
(9.28953e-11 -9.57292e-07 0)
(3.36013e-11 -9.57326e-07 0)
(-2.55404e-11 -9.57327e-07 0)
(-8.45119e-11 -9.57293e-07 0)
(-1.43295e-10 -9.57225e-07 0)
(-2.01872e-10 -9.57121e-07 0)
(-2.60223e-10 -9.56981e-07 0)
(-3.18329e-10 -9.56804e-07 0)
(-3.76172e-10 -9.5659e-07 0)
(-4.33732e-10 -9.56338e-07 0)
(-4.90989e-10 -9.56048e-07 0)
(-5.47923e-10 -9.55718e-07 0)
(-6.04515e-10 -9.55349e-07 0)
(-6.60743e-10 -9.54939e-07 0)
(-7.16587e-10 -9.54489e-07 0)
(-7.72026e-10 -9.53997e-07 0)
(-8.27041e-10 -9.53462e-07 0)
(-8.81608e-10 -9.52886e-07 0)
(-9.35709e-10 -9.52266e-07 0)
(-9.8932e-10 -9.51602e-07 0)
(-1.04242e-09 -9.50894e-07 0)
(-1.09499e-09 -9.50141e-07 0)
(-1.14701e-09 -9.49343e-07 0)
(-1.19845e-09 -9.48499e-07 0)
(-1.2493e-09 -9.47609e-07 0)
(-1.29953e-09 -9.46672e-07 0)
(-1.34912e-09 -9.45688e-07 0)
(-1.39805e-09 -9.44656e-07 0)
(-1.4463e-09 -9.43576e-07 0)
(-1.49385e-09 -9.42448e-07 0)
(-1.54067e-09 -9.41271e-07 0)
(-1.58675e-09 -9.40045e-07 0)
(-1.63207e-09 -9.3877e-07 0)
(-1.6766e-09 -9.37445e-07 0)
(-1.72032e-09 -9.36069e-07 0)
(-1.76322e-09 -9.34644e-07 0)
(-1.80527e-09 -9.33168e-07 0)
(-1.84646e-09 -9.31641e-07 0)
(-1.88676e-09 -9.30063e-07 0)
(-1.92616e-09 -9.28434e-07 0)
(-1.96464e-09 -9.26754e-07 0)
(-2.00218e-09 -9.25022e-07 0)
(-2.03877e-09 -9.23239e-07 0)
(-2.07438e-09 -9.21404e-07 0)
(-2.109e-09 -9.19518e-07 0)
(-2.14262e-09 -9.1758e-07 0)
(-2.17521e-09 -9.15591e-07 0)
(-2.20678e-09 -9.13551e-07 0)
(-2.23729e-09 -9.11459e-07 0)
(-2.26673e-09 -9.09316e-07 0)
(-2.29511e-09 -9.07121e-07 0)
(-2.32239e-09 -9.04876e-07 0)
(-2.34857e-09 -9.02581e-07 0)
(-2.37364e-09 -9.00235e-07 0)
(-2.3976e-09 -8.97839e-07 0)
(-2.42042e-09 -8.95393e-07 0)
(-2.4421e-09 -8.92898e-07 0)
(-2.46264e-09 -8.90354e-07 0)
(-2.48202e-09 -8.87761e-07 0)
(-2.50025e-09 -8.85121e-07 0)
(-2.51731e-09 -8.82433e-07 0)
(-2.5332e-09 -8.79697e-07 0)
(-2.54791e-09 -8.76916e-07 0)
(-2.56146e-09 -8.74088e-07 0)
(-2.57382e-09 -8.71216e-07 0)
(-2.58501e-09 -8.68299e-07 0)
(-2.59502e-09 -8.65338e-07 0)
(-2.60385e-09 -8.62334e-07 0)
(-2.6115e-09 -8.59288e-07 0)
(-2.61798e-09 -8.562e-07 0)
(-2.62329e-09 -8.53072e-07 0)
(-2.62744e-09 -8.49905e-07 0)
(-2.63042e-09 -8.46698e-07 0)
(-2.63225e-09 -8.43454e-07 0)
(-2.63293e-09 -8.40173e-07 0)
(-2.63248e-09 -8.36857e-07 0)
(-2.63087e-09 -8.33504e-07 0)
(-2.62824e-09 -8.30121e-07 0)
(-2.62406e-09 -8.2667e-07 0)
(-2.61821e-09 -8.22858e-07 0)
(-2.61093e-09 -8.18677e-07 0)
(-2.60197e-09 -8.1443e-07 0)
(-2.59156e-09 -8.10208e-07 0)
(-2.57983e-09 -8.06026e-07 0)
(-2.56688e-09 -8.01868e-07 0)
(-2.55277e-09 -7.97728e-07 0)
(-2.53757e-09 -7.93608e-07 0)
(-2.52133e-09 -7.89515e-07 0)
(-2.50412e-09 -7.85449e-07 0)
(-2.48601e-09 -7.81412e-07 0)
(-2.46703e-09 -7.77405e-07 0)
(-2.44725e-09 -7.7343e-07 0)
(-2.42671e-09 -7.69487e-07 0)
(-2.40546e-09 -7.65578e-07 0)
(-2.38355e-09 -7.61704e-07 0)
(-2.36102e-09 -7.57866e-07 0)
(-2.33791e-09 -7.54065e-07 0)
(-2.31426e-09 -7.50301e-07 0)
(-2.2901e-09 -7.46577e-07 0)
(-2.26547e-09 -7.42892e-07 0)
(-2.24039e-09 -7.39247e-07 0)
(-2.21491e-09 -7.35643e-07 0)
(-2.18904e-09 -7.32081e-07 0)
(-2.16282e-09 -7.28561e-07 0)
(-2.13627e-09 -7.25083e-07 0)
(-2.10941e-09 -7.21649e-07 0)
(-2.08226e-09 -7.18259e-07 0)
(-2.05485e-09 -7.14912e-07 0)
(-2.02719e-09 -7.11611e-07 0)
(-1.9993e-09 -7.08354e-07 0)
(-1.9712e-09 -7.05142e-07 0)
(-1.9429e-09 -7.01977e-07 0)
(-1.91441e-09 -6.98857e-07 0)
(-1.88576e-09 -6.95783e-07 0)
(-1.85694e-09 -6.92756e-07 0)
(-1.82798e-09 -6.89775e-07 0)
(-1.79887e-09 -6.86842e-07 0)
(-1.76964e-09 -6.83956e-07 0)
(-1.74028e-09 -6.81117e-07 0)
(-1.71081e-09 -6.78325e-07 0)
(-1.68123e-09 -6.75582e-07 0)
(-1.65154e-09 -6.72886e-07 0)
(-1.62176e-09 -6.70239e-07 0)
(-1.59189e-09 -6.6764e-07 0)
(-1.56193e-09 -6.65089e-07 0)
(-1.53188e-09 -6.62586e-07 0)
(-1.50175e-09 -6.60133e-07 0)
(-1.47154e-09 -6.57728e-07 0)
(-1.44126e-09 -6.55372e-07 0)
(-1.4109e-09 -6.53065e-07 0)
(-1.38047e-09 -6.50808e-07 0)
(-1.34996e-09 -6.48599e-07 0)
(-1.31938e-09 -6.4644e-07 0)
(-1.28874e-09 -6.44331e-07 0)
(-1.25802e-09 -6.42271e-07 0)
(-1.22724e-09 -6.40261e-07 0)
(-1.19638e-09 -6.38301e-07 0)
(-1.16546e-09 -6.3639e-07 0)
(-1.13447e-09 -6.3453e-07 0)
(-1.10341e-09 -6.3272e-07 0)
(-1.07228e-09 -6.3096e-07 0)
(-1.04109e-09 -6.29251e-07 0)
(-1.00983e-09 -6.27592e-07 0)
(-9.78501e-10 -6.25984e-07 0)
(-9.47106e-10 -6.24427e-07 0)
(-9.15643e-10 -6.2292e-07 0)
(-8.84114e-10 -6.21464e-07 0)
(-8.52518e-10 -6.2006e-07 0)
(-8.20857e-10 -6.18706e-07 0)
(-7.89132e-10 -6.17404e-07 0)
(-7.57342e-10 -6.16153e-07 0)
(-7.25489e-10 -6.14954e-07 0)
(-6.93575e-10 -6.13806e-07 0)
(-6.616e-10 -6.1271e-07 0)
(-6.29565e-10 -6.11666e-07 0)
(-5.97473e-10 -6.10673e-07 0)
(-5.65325e-10 -6.09733e-07 0)
(-5.33123e-10 -6.08844e-07 0)
(-5.00869e-10 -6.08008e-07 0)
(-4.68566e-10 -6.07224e-07 0)
(-4.36215e-10 -6.06492e-07 0)
(-4.0382e-10 -6.05812e-07 0)
(-3.71382e-10 -6.05186e-07 0)
(-3.38906e-10 -6.0461e-07 0)
(-3.06393e-10 -6.04092e-07 0)
(-2.73846e-10 -6.0361e-07 0)
(-2.41273e-10 -6.03235e-07 0)
(-2.08654e-10 -6.02731e-07 0)
(-1.76077e-10 -6.02877e-07 0)
(-1.43262e-10 -6.01053e-07 0)
(-1.11162e-10 -6.05737e-07 0)
(-7.67041e-11 -5.8746e-07 0)
(-5.05798e-11 -6.35598e-07 0)
(-2.16898e-11 -5.55094e-07 0)
)
;
    }
    bottomWall
    {
        type            calculated;
        value           nonuniform List<vector> 
449
(
(-48.5499 -0.964349 0)
(-19.7579 -0.0051573 0)
(-14.3482 -0.00113526 0)
(-12.0376 -0.000545736 0)
(-10.6308 -0.000351667 0)
(-9.63655 -0.000256122 0)
(-8.8781 -0.000198585 0)
(-8.27429 -0.000159897 0)
(-7.77861 -0.000132393 0)
(-7.36176 -0.000112035 0)
(-7.00457 -9.6427e-05 0)
(-6.69399 -8.41137e-05 0)
(-6.4207 -7.41908e-05 0)
(-6.17778 -6.6059e-05 0)
(-5.95998 -5.92985e-05 0)
(-5.76323 -5.36061e-05 0)
(-5.58434 -4.87593e-05 0)
(-5.42075 -4.45923e-05 0)
(-5.27039 -4.09789e-05 0)
(-5.13156 -3.78216e-05 0)
(-5.00284 -3.50439e-05 0)
(-4.88308 -3.25848e-05 0)
(-4.77126 -3.03956e-05 0)
(-4.66654 -2.84367e-05 0)
(-4.56819 -2.66755e-05 0)
(-4.4756 -2.50854e-05 0)
(-4.38821 -2.36439e-05 0)
(-4.30556 -2.23324e-05 0)
(-4.22723 -2.11351e-05 0)
(-4.15285 -2.00386e-05 0)
(-4.0821 -1.90314e-05 0)
(-4.01468 -1.81038e-05 0)
(-3.95036 -1.72471e-05 0)
(-3.88888 -1.64542e-05 0)
(-3.83006 -1.57185e-05 0)
(-3.77369 -1.50344e-05 0)
(-3.71962 -1.43971e-05 0)
(-3.66768 -1.38022e-05 0)
(-3.61775 -1.32459e-05 0)
(-3.56969 -1.27248e-05 0)
(-3.52339 -1.22358e-05 0)
(-3.47874 -1.17763e-05 0)
(-3.43565 -1.13439e-05 0)
(-3.39402 -1.09363e-05 0)
(-3.35378 -1.05517e-05 0)
(-3.31485 -1.01882e-05 0)
(-3.27715 -9.84434e-06 0)
(-3.24063 -9.51863e-06 0)
(-3.20523 -9.20977e-06 0)
(-3.17087 -8.91657e-06 0)
(-3.13753 -8.63794e-06 0)
(-3.10514 -8.37291e-06 0)
(-3.07366 -8.12056e-06 0)
(-3.04305 -7.88007e-06 0)
(-3.01326 -7.65068e-06 0)
(-2.98427 -7.43169e-06 0)
(-2.95603 -7.22245e-06 0)
(-2.92852 -7.02238e-06 0)
(-2.9017 -6.83092e-06 0)
(-2.87555 -6.64757e-06 0)
(-2.85003 -6.47186e-06 0)
(-2.82512 -6.30336e-06 0)
(-2.8008 -6.14165e-06 0)
(-2.77704 -5.98638e-06 0)
(-2.75382 -5.83718e-06 0)
(-2.73113 -5.69374e-06 0)
(-2.70893 -5.55575e-06 0)
(-2.68722 -5.42292e-06 0)
(-2.66598 -5.295e-06 0)
(-2.64518 -5.17174e-06 0)
(-2.62481 -5.05289e-06 0)
(-2.60487 -4.93826e-06 0)
(-2.58533 -4.82763e-06 0)
(-2.56617 -4.72082e-06 0)
(-2.5474 -4.61763e-06 0)
(-2.52899 -4.51792e-06 0)
(-2.51093 -4.4215e-06 0)
(-2.49321 -4.32825e-06 0)
(-2.47583 -4.23801e-06 0)
(-2.45876 -4.15065e-06 0)
(-2.442 -4.06605e-06 0)
(-2.42555 -3.98408e-06 0)
(-2.40938 -3.90464e-06 0)
(-2.3935 -3.82762e-06 0)
(-2.3779 -3.75292e-06 0)
(-2.36256 -3.68044e-06 0)
(-2.34748 -3.6101e-06 0)
(-2.33265 -3.5418e-06 0)
(-2.31807 -3.47547e-06 0)
(-2.30373 -3.41102e-06 0)
(-2.28961 -3.3484e-06 0)
(-2.27573 -3.28751e-06 0)
(-2.26206 -3.22831e-06 0)
(-2.2486 -3.17072e-06 0)
(-2.23535 -3.11469e-06 0)
(-2.22231 -3.06016e-06 0)
(-2.20946 -3.00707e-06 0)
(-2.1968 -2.95537e-06 0)
(-2.18433 -2.90501e-06 0)
(-2.17205 -2.85595e-06 0)
(-2.15994 -2.80814e-06 0)
(-2.148 -2.76153e-06 0)
(-2.13624 -2.71609e-06 0)
(-2.12464 -2.67177e-06 0)
(-2.1132 -2.62854e-06 0)
(-2.10192 -2.58636e-06 0)
(-2.09079 -2.54519e-06 0)
(-2.07982 -2.50501e-06 0)
(-2.06899 -2.46578e-06 0)
(-2.0583 -2.42746e-06 0)
(-2.04776 -2.39004e-06 0)
(-2.03735 -2.35348e-06 0)
(-2.02708 -2.31776e-06 0)
(-2.01694 -2.28284e-06 0)
(-2.00692 -2.24871e-06 0)
(-1.99704 -2.21534e-06 0)
(-1.98727 -2.18271e-06 0)
(-1.97763 -2.15079e-06 0)
(-1.96811 -2.11956e-06 0)
(-1.9587 -2.08901e-06 0)
(-1.9494 -2.05912e-06 0)
(-1.94022 -2.02985e-06 0)
(-1.93114 -2.00121e-06 0)
(-1.92217 -1.97316e-06 0)
(-1.9133 -1.94569e-06 0)
(-1.90454 -1.91879e-06 0)
(-1.89588 -1.89244e-06 0)
(-1.88731 -1.86663e-06 0)
(-1.87885 -1.84133e-06 0)
(-1.87047 -1.81654e-06 0)
(-1.86219 -1.79224e-06 0)
(-1.854 -1.76841e-06 0)
(-1.8459 -1.74506e-06 0)
(-1.83789 -1.72215e-06 0)
(-1.82997 -1.69969e-06 0)
(-1.82213 -1.67766e-06 0)
(-1.81437 -1.65605e-06 0)
(-1.80669 -1.63484e-06 0)
(-1.79909 -1.61404e-06 0)
(-1.79158 -1.59362e-06 0)
(-1.78414 -1.57357e-06 0)
(-1.77677 -1.5539e-06 0)
(-1.76948 -1.53458e-06 0)
(-1.76227 -1.51562e-06 0)
(-1.75512 -1.49699e-06 0)
(-1.74805 -1.4787e-06 0)
(-1.74104 -1.46074e-06 0)
(-1.73411 -1.44309e-06 0)
(-1.72724 -1.42575e-06 0)
(-1.72044 -1.40872e-06 0)
(-1.7137 -1.39198e-06 0)
(-1.70703 -1.37553e-06 0)
(-1.70042 -1.35936e-06 0)
(-1.69388 -1.34346e-06 0)
(-1.68739 -1.32783e-06 0)
(-1.68096 -1.31247e-06 0)
(-1.6746 -1.29736e-06 0)
(-1.66829 -1.28251e-06 0)
(-1.66204 -1.2679e-06 0)
(-1.65584 -1.25353e-06 0)
(-1.6497 -1.23939e-06 0)
(-1.64362 -1.22549e-06 0)
(-1.63759 -1.2118e-06 0)
(-1.63161 -1.19834e-06 0)
(-1.62569 -1.1851e-06 0)
(-1.61981 -1.17206e-06 0)
(-1.61399 -1.15923e-06 0)
(-1.60822 -1.14661e-06 0)
(-1.6025 -1.1342e-06 0)
(-1.59682 -1.12186e-06 0)
(-1.59119 -1.11014e-06 0)
(-1.58561 -1.09803e-06 0)
(-1.58008 -1.0849e-06 0)
(-1.57491 -1.07473e-06 0)
(-1.57005 -1.06647e-06 0)
(-1.56517 -1.05608e-06 0)
(-1.5603 -1.04537e-06 0)
(-1.55541 -1.03534e-06 0)
(-1.55053 -1.02529e-06 0)
(-1.54564 -1.01536e-06 0)
(-1.54074 -1.0055e-06 0)
(-1.53584 -9.95699e-07 0)
(-1.53093 -9.85962e-07 0)
(-1.52602 -9.76284e-07 0)
(-1.5211 -9.66663e-07 0)
(-1.51618 -9.57099e-07 0)
(-1.51126 -9.47591e-07 0)
(-1.50633 -9.38139e-07 0)
(-1.5014 -9.28743e-07 0)
(-1.49646 -9.19402e-07 0)
(-1.49152 -9.10118e-07 0)
(-1.48658 -9.0089e-07 0)
(-1.48164 -8.91718e-07 0)
(-1.47669 -8.82602e-07 0)
(-1.47174 -8.73544e-07 0)
(-1.46679 -8.64542e-07 0)
(-1.46183 -8.55598e-07 0)
(-1.45687 -8.46711e-07 0)
(-1.45191 -8.37882e-07 0)
(-1.44695 -8.29111e-07 0)
(-1.44199 -8.20398e-07 0)
(-1.43703 -8.11743e-07 0)
(-1.43207 -8.03147e-07 0)
(-1.4271 -7.94609e-07 0)
(-1.42214 -7.8613e-07 0)
(-1.41717 -7.7771e-07 0)
(-1.41221 -7.6935e-07 0)
(-1.40724 -7.61048e-07 0)
(-1.40228 -7.52806e-07 0)
(-1.39731 -7.44623e-07 0)
(-1.39235 -7.36499e-07 0)
(-1.38739 -7.28436e-07 0)
(-1.38243 -7.20432e-07 0)
(-1.37747 -7.12488e-07 0)
(-1.37251 -7.04603e-07 0)
(-1.36755 -6.96779e-07 0)
(-1.3626 -6.89014e-07 0)
(-1.35764 -6.8131e-07 0)
(-1.35269 -6.73665e-07 0)
(-1.34774 -6.66081e-07 0)
(-1.3428 -6.58556e-07 0)
(-1.33785 -6.51091e-07 0)
(-1.33291 -6.43687e-07 0)
(-1.32798 -6.36342e-07 0)
(-1.32304 -6.29058e-07 0)
(-1.31811 -6.21833e-07 0)
(-1.31319 -6.14668e-07 0)
(-1.30827 -6.07563e-07 0)
(-1.30335 -6.00517e-07 0)
(-1.29843 -5.93531e-07 0)
(-1.29352 -5.86605e-07 0)
(-1.28862 -5.79738e-07 0)
(-1.28372 -5.7293e-07 0)
(-1.27883 -5.66182e-07 0)
(-1.27394 -5.59492e-07 0)
(-1.26905 -5.52862e-07 0)
(-1.26417 -5.46291e-07 0)
(-1.2593 -5.39778e-07 0)
(-1.25443 -5.33324e-07 0)
(-1.24957 -5.26928e-07 0)
(-1.24472 -5.2059e-07 0)
(-1.23987 -5.14311e-07 0)
(-1.23503 -5.08089e-07 0)
(-1.23019 -5.01925e-07 0)
(-1.22536 -4.95819e-07 0)
(-1.22054 -4.8977e-07 0)
(-1.21573 -4.83778e-07 0)
(-1.21092 -4.77843e-07 0)
(-1.20612 -4.71965e-07 0)
(-1.20133 -4.66143e-07 0)
(-1.19654 -4.60377e-07 0)
(-1.19177 -4.54668e-07 0)
(-1.187 -4.49014e-07 0)
(-1.18224 -4.43416e-07 0)
(-1.17748 -4.37873e-07 0)
(-1.17274 -4.32385e-07 0)
(-1.16801 -4.26952e-07 0)
(-1.16328 -4.21574e-07 0)
(-1.15856 -4.16249e-07 0)
(-1.15386 -4.10979e-07 0)
(-1.14916 -4.05763e-07 0)
(-1.14447 -4.00599e-07 0)
(-1.13979 -3.95489e-07 0)
(-1.13512 -3.90432e-07 0)
(-1.13046 -3.85428e-07 0)
(-1.1258 -3.80476e-07 0)
(-1.12116 -3.75575e-07 0)
(-1.11653 -3.70727e-07 0)
(-1.11191 -3.65929e-07 0)
(-1.1073 -3.61183e-07 0)
(-1.1027 -3.56488e-07 0)
(-1.09811 -3.51843e-07 0)
(-1.09353 -3.47248e-07 0)
(-1.08896 -3.42703e-07 0)
(-1.08441 -3.38207e-07 0)
(-1.07986 -3.33761e-07 0)
(-1.07532 -3.29363e-07 0)
(-1.0708 -3.25014e-07 0)
(-1.06629 -3.20713e-07 0)
(-1.06179 -3.16459e-07 0)
(-1.0573 -3.12254e-07 0)
(-1.05282 -3.08095e-07 0)
(-1.04835 -3.03983e-07 0)
(-1.0439 -2.99918e-07 0)
(-1.03945 -2.95899e-07 0)
(-1.03502 -2.91925e-07 0)
(-1.0306 -2.87997e-07 0)
(-1.02619 -2.84114e-07 0)
(-1.0218 -2.80276e-07 0)
(-1.01742 -2.76482e-07 0)
(-1.01305 -2.72732e-07 0)
(-1.00869 -2.69026e-07 0)
(-1.00435 -2.65363e-07 0)
(-1.00001 -2.61743e-07 0)
(-0.995694 -2.58166e-07 0)
(-0.991387 -2.54631e-07 0)
(-0.987093 -2.51138e-07 0)
(-0.982812 -2.47686e-07 0)
(-0.978544 -2.44276e-07 0)
(-0.974289 -2.40906e-07 0)
(-0.970047 -2.37577e-07 0)
(-0.965819 -2.34289e-07 0)
(-0.961604 -2.3104e-07 0)
(-0.957402 -2.2783e-07 0)
(-0.953213 -2.24659e-07 0)
(-0.949038 -2.21528e-07 0)
(-0.944877 -2.18434e-07 0)
(-0.940729 -2.15379e-07 0)
(-0.936594 -2.12361e-07 0)
(-0.932474 -2.09381e-07 0)
(-0.928367 -2.06437e-07 0)
(-0.924274 -2.0353e-07 0)
(-0.920194 -2.0066e-07 0)
(-0.916129 -1.97825e-07 0)
(-0.912077 -1.95026e-07 0)
(-0.90804 -1.92262e-07 0)
(-0.904016 -1.89534e-07 0)
(-0.900007 -1.86839e-07 0)
(-0.896011 -1.84179e-07 0)
(-0.89203 -1.81553e-07 0)
(-0.888063 -1.7896e-07 0)
(-0.88411 -1.764e-07 0)
(-0.880171 -1.73874e-07 0)
(-0.876247 -1.7138e-07 0)
(-0.872337 -1.68918e-07 0)
(-0.868441 -1.66487e-07 0)
(-0.864559 -1.64089e-07 0)
(-0.860692 -1.61721e-07 0)
(-0.85684 -1.59385e-07 0)
(-0.853002 -1.57079e-07 0)
(-0.849178 -1.54803e-07 0)
(-0.845369 -1.52557e-07 0)
(-0.841574 -1.5034e-07 0)
(-0.837794 -1.48153e-07 0)
(-0.834028 -1.45995e-07 0)
(-0.830277 -1.43866e-07 0)
(-0.826541 -1.41764e-07 0)
(-0.822819 -1.39691e-07 0)
(-0.819112 -1.37645e-07 0)
(-0.815419 -1.35627e-07 0)
(-0.811741 -1.33636e-07 0)
(-0.808078 -1.31672e-07 0)
(-0.804429 -1.29734e-07 0)
(-0.800795 -1.27822e-07 0)
(-0.797176 -1.25936e-07 0)
(-0.793571 -1.24075e-07 0)
(-0.789981 -1.2224e-07 0)
(-0.786406 -1.2043e-07 0)
(-0.782845 -1.18643e-07 0)
(-0.779299 -1.16883e-07 0)
(-0.775768 -1.15143e-07 0)
(-0.772252 -1.13396e-07 0)
(-0.768752 -1.11786e-07 0)
(-0.765261 -1.10185e-07 0)
(-0.761396 -1.08249e-07 0)
(-0.757205 -1.062e-07 0)
(-0.753091 -1.04353e-07 0)
(-0.749044 -1.02594e-07 0)
(-0.745068 -1.0082e-07 0)
(-0.74116 -9.90791e-08 0)
(-0.73732 -9.73814e-08 0)
(-0.733545 -9.57291e-08 0)
(-0.729834 -9.41209e-08 0)
(-0.726184 -9.25557e-08 0)
(-0.722596 -9.10322e-08 0)
(-0.719066 -8.95491e-08 0)
(-0.715593 -8.81052e-08 0)
(-0.712176 -8.6699e-08 0)
(-0.708813 -8.53292e-08 0)
(-0.705503 -8.39945e-08 0)
(-0.702245 -8.26937e-08 0)
(-0.699037 -8.14257e-08 0)
(-0.695878 -8.01892e-08 0)
(-0.692766 -7.89832e-08 0)
(-0.689702 -7.78066e-08 0)
(-0.686682 -7.66586e-08 0)
(-0.683707 -7.5538e-08 0)
(-0.680775 -7.44441e-08 0)
(-0.677886 -7.3376e-08 0)
(-0.675038 -7.23327e-08 0)
(-0.67223 -7.13136e-08 0)
(-0.669461 -7.03179e-08 0)
(-0.666731 -6.93447e-08 0)
(-0.664039 -6.83935e-08 0)
(-0.661383 -6.74635e-08 0)
(-0.658764 -6.6554e-08 0)
(-0.656179 -6.56646e-08 0)
(-0.653629 -6.47945e-08 0)
(-0.651113 -6.39431e-08 0)
(-0.648629 -6.311e-08 0)
(-0.646178 -6.22946e-08 0)
(-0.643758 -6.14964e-08 0)
(-0.641369 -6.07148e-08 0)
(-0.639011 -5.99494e-08 0)
(-0.636682 -5.91998e-08 0)
(-0.634382 -5.84655e-08 0)
(-0.63211 -5.77461e-08 0)
(-0.629867 -5.70411e-08 0)
(-0.62765 -5.63502e-08 0)
(-0.625461 -5.5673e-08 0)
(-0.623297 -5.50091e-08 0)
(-0.621159 -5.43582e-08 0)
(-0.619047 -5.37199e-08 0)
(-0.616959 -5.30939e-08 0)
(-0.614896 -5.24799e-08 0)
(-0.612856 -5.18776e-08 0)
(-0.610839 -5.12866e-08 0)
(-0.608846 -5.07068e-08 0)
(-0.606875 -5.01377e-08 0)
(-0.604925 -4.95793e-08 0)
(-0.602998 -4.90311e-08 0)
(-0.601092 -4.8493e-08 0)
(-0.599206 -4.79647e-08 0)
(-0.597342 -4.7446e-08 0)
(-0.595497 -4.69367e-08 0)
(-0.593672 -4.64365e-08 0)
(-0.591866 -4.59453e-08 0)
(-0.590079 -4.54629e-08 0)
(-0.588311 -4.49892e-08 0)
(-0.586562 -4.45238e-08 0)
(-0.58483 -4.40668e-08 0)
(-0.583117 -4.36178e-08 0)
(-0.58142 -4.31769e-08 0)
(-0.579741 -4.27438e-08 0)
(-0.578078 -4.23186e-08 0)
(-0.576432 -4.1901e-08 0)
(-0.574802 -4.1491e-08 0)
(-0.573188 -4.10887e-08 0)
(-0.57159 -4.06939e-08 0)
(-0.570006 -4.03067e-08 0)
(-0.568438 -3.99273e-08 0)
(-0.566885 -3.95557e-08 0)
(-0.565346 -3.91923e-08 0)
(-0.563821 -3.88375e-08 0)
(-0.562309 -3.84917e-08 0)
(-0.560811 -3.81559e-08 0)
(-0.559326 -3.78314e-08 0)
(-0.557853 -3.75196e-08 0)
(-0.556393 -3.72232e-08 0)
(-0.554943 -3.69531e-08 0)
(-0.553504 -3.66873e-08 0)
(-0.552075 -3.64716e-08 0)
(-0.550652 -3.64994e-08 0)
(-0.549222 -3.59382e-08 0)
(-0.547843 -3.508e-08 0)
(-0.546479 -4.63859e-08 0)
(-0.544216 -1.26627e-08 0)
(-0.5455 -3.40727e-08 0)
(-0.54151 -5.19392e-08 0)
)
;
    }
    symmetry
    {
        type            symmetryPlane;
    }
    frontAndBack
    {
        type            empty;
    }
}


// ************************************************************************* //
