/*--------------------------------*- C++ -*----------------------------------*\
| =========                 |                                                 |
| \\      /  F ield         | OpenFOAM: The Open Source CFD Toolbox           |
|  \\    /   O peration     | Version:  v2012                                 |
|   \\  /    A nd           | Website:  www.openfoam.com                      |
|    \\/     M anipulation  |                                                 |
\*---------------------------------------------------------------------------*/
FoamFile
{
    version     2.0;
    format      ascii;
    class       volScalarField;
    location    "19";
    object      yPlus;
}
// * * * * * * * * * * * * * * * * * * * * * * * * * * * * * * * * * * * * * //

dimensions      [0 0 0 0 0 0 0];


internalField   uniform 0;

boundaryField
{
    inlet
    {
        type            calculated;
        value           uniform 0;
    }
    outlet
    {
        type            calculated;
        value           uniform 0;
    }
    topWall
    {
        type            calculated;
        value           nonuniform List<scalar> 
545
(
0.0700175
0.120749
0.154899
0.182063
0.205047
0.225143
0.243078
0.259309
0.274148
0.287819
0.300488
0.312288
0.32332
0.33367
0.343406
0.352587
0.361264
0.369477
0.377266
0.384662
0.391694
0.398389
0.404768
0.410854
0.416663
0.422214
0.427522
0.432601
0.437464
0.442123
0.446589
0.450873
0.454984
0.458931
0.462722
0.466365
0.469866
0.473234
0.476474
0.479592
0.482594
0.485484
0.488269
0.490952
0.493539
0.496033
0.498438
0.500758
0.502996
0.505157
0.507243
0.509257
0.511202
0.513081
0.514896
0.51665
0.518346
0.519986
0.521571
0.523104
0.524587
0.526021
0.527409
0.528752
0.530053
0.531311
0.53253
0.53371
0.534852
0.535959
0.537031
0.53807
0.539063
0.540023
0.540974
0.541917
0.542851
0.543777
0.544694
0.545604
0.546505
0.547397
0.548282
0.549159
0.550029
0.55089
0.551744
0.55259
0.553429
0.55426
0.555084
0.555901
0.55671
0.557513
0.558308
0.559097
0.559806
0.56044
0.561073
0.561705
0.562337
0.562968
0.563598
0.564228
0.564857
0.565485
0.566113
0.56674
0.567366
0.567991
0.568615
0.569239
0.569862
0.570484
0.571106
0.571727
0.572346
0.572965
0.573584
0.574201
0.574818
0.575433
0.576048
0.576662
0.577276
0.577888
0.578499
0.57911
0.57972
0.580329
0.580936
0.581543
0.582149
0.582755
0.583359
0.583962
0.584564
0.585166
0.585766
0.586365
0.586964
0.587561
0.588158
0.588753
0.589347
0.589941
0.590533
0.591124
0.591715
0.592304
0.592892
0.593479
0.594065
0.594649
0.595233
0.595816
0.596397
0.596978
0.597557
0.598135
0.598712
0.599287
0.599862
0.600435
0.601008
0.601578
0.602148
0.602717
0.603284
0.60385
0.604415
0.604978
0.605541
0.606102
0.606661
0.60722
0.607777
0.608333
0.608887
0.60944
0.609992
0.610543
0.611092
0.611639
0.612186
0.612731
0.613274
0.613816
0.614357
0.614896
0.615434
0.61597
0.616505
0.617039
0.617571
0.618101
0.61863
0.619158
0.619683
0.620208
0.620731
0.621252
0.621772
0.62229
0.622806
0.623321
0.623835
0.624347
0.624857
0.625365
0.625872
0.626377
0.626881
0.627383
0.627883
0.628381
0.628878
0.629373
0.629867
0.630358
0.630848
0.631336
0.631822
0.632307
0.63279
0.633271
0.63375
0.634227
0.634703
0.635176
0.635648
0.636118
0.636586
0.637052
0.637516
0.637979
0.638439
0.638897
0.639354
0.639809
0.640261
0.640712
0.641161
0.641607
0.642052
0.642494
0.642935
0.643374
0.64381
0.644245
0.644677
0.645107
0.645536
0.645962
0.646386
0.646808
0.647227
0.647645
0.64806
0.648474
0.648885
0.649294
0.6497
0.650105
0.650507
0.650907
0.651305
0.6517
0.652094
0.652463
0.652809
0.653157
0.653507
0.653857
0.654208
0.654561
0.654914
0.655269
0.655624
0.65598
0.656337
0.656695
0.657053
0.657413
0.657772
0.658133
0.658494
0.658855
0.659217
0.659579
0.659941
0.660304
0.660666
0.661029
0.661392
0.661755
0.662117
0.662479
0.662841
0.663203
0.663564
0.663925
0.664285
0.664644
0.665003
0.665361
0.665717
0.666073
0.666427
0.66678
0.667132
0.667483
0.667831
0.668178
0.668523
0.668867
0.669208
0.669547
0.669884
0.670218
0.67055
0.67088
0.671206
0.67153
0.67185
0.672167
0.672481
0.672792
0.673099
0.673402
0.673701
0.673996
0.674287
0.674574
0.674856
0.675133
0.675406
0.675673
0.675935
0.676192
0.676443
0.676689
0.676929
0.677162
0.677389
0.67761
0.677824
0.678031
0.678231
0.678424
0.67861
0.678787
0.678957
0.679119
0.679273
0.679418
0.679554
0.679682
0.6798
0.679909
0.680008
0.680098
0.680177
0.680247
0.680305
0.680354
0.680391
0.680417
0.680431
0.680434
0.680426
0.680405
0.680371
0.680326
0.680267
0.680195
0.680111
0.680012
0.6799
0.679774
0.679634
0.679479
0.67931
0.679126
0.678927
0.678712
0.678482
0.678236
0.677974
0.677696
0.677402
0.67709
0.676762
0.676417
0.676055
0.675675
0.675278
0.674863
0.67443
0.673978
0.673508
0.67302
0.672513
0.671987
0.671442
0.670879
0.670295
0.669693
0.66907
0.668429
0.667767
0.667086
0.666384
0.665663
0.664921
0.664159
0.663377
0.662575
0.661753
0.66091
0.660046
0.659163
0.658259
0.657334
0.65639
0.655425
0.65444
0.653434
0.652409
0.651363
0.650298
0.649213
0.648108
0.646983
0.645839
0.644676
0.643494
0.642293
0.641073
0.639834
0.638578
0.637303
0.636011
0.634701
0.633374
0.63203
0.63067
0.629293
0.6279
0.626491
0.624909
0.623159
0.621412
0.619667
0.617926
0.61619
0.614459
0.612733
0.611015
0.609304
0.607602
0.605908
0.604224
0.602549
0.600885
0.599232
0.597591
0.595962
0.594345
0.592741
0.59115
0.589573
0.58801
0.586461
0.584928
0.583409
0.581906
0.580419
0.578947
0.577492
0.576054
0.574632
0.573227
0.57184
0.57047
0.569118
0.567784
0.566469
0.565172
0.563893
0.562633
0.561392
0.56017
0.558968
0.557785
0.556622
0.555479
0.554356
0.553254
0.552171
0.551109
0.550068
0.549048
0.548049
0.547071
0.546114
0.545179
0.544266
0.543374
0.542505
0.541657
0.540832
0.540029
0.539248
0.538491
0.537756
0.537044
0.536355
0.535689
0.535047
0.534428
0.533833
0.533262
0.532714
0.53219
0.531691
0.531216
0.530764
0.530338
0.529935
0.529558
0.529205
0.528877
0.528573
0.528294
0.528041
0.527812
0.527609
0.52743
0.527277
0.527149
0.527046
0.526968
0.526919
0.526878
)
;
    }
    bottomWall
    {
        type            calculated;
        value           nonuniform List<scalar> 
449
(
0.139524
0.0890021
0.075845
0.0694697
0.0652841
0.0621559
0.0596596
0.0575949
0.0558429
0.0543259
0.0529915
0.0518032
0.0507347
0.0497656
0.0488805
0.048067
0.0473151
0.046617
0.0459661
0.0453568
0.0447845
0.0442454
0.0437362
0.0432539
0.0427961
0.0423606
0.0419455
0.0415491
0.04117
0.0408068
0.0404584
0.0401237
0.0398018
0.0394918
0.0391929
0.0389044
0.0386257
0.0383562
0.0380953
0.0378427
0.0375977
0.0373601
0.0371293
0.0369051
0.0366872
0.0364752
0.0362688
0.0360677
0.0358718
0.0356808
0.0354945
0.0353126
0.035135
0.0349615
0.034792
0.0346262
0.0344641
0.0343054
0.0341501
0.033998
0.033849
0.033703
0.0335599
0.0334195
0.0332819
0.0331468
0.0330143
0.0328842
0.0327564
0.0326309
0.0325076
0.0323864
0.0322673
0.0321502
0.0320351
0.0319218
0.0318103
0.0317007
0.0315927
0.0314864
0.0313818
0.0312787
0.0311772
0.0310772
0.0309786
0.0308815
0.0307858
0.0306914
0.0305983
0.0305065
0.030416
0.0303266
0.0302385
0.0301516
0.0300657
0.029981
0.0298974
0.0298148
0.0297333
0.0296527
0.0295732
0.0294946
0.029417
0.0293403
0.0292645
0.0291896
0.0291156
0.0290424
0.02897
0.0288985
0.0288278
0.0287578
0.0286886
0.0286202
0.0285525
0.0284855
0.0284192
0.0283537
0.0282888
0.0282246
0.028161
0.0280981
0.0280358
0.0279742
0.0279131
0.0278527
0.0277928
0.0277336
0.0276748
0.0276167
0.0275591
0.027502
0.0274455
0.0273895
0.027334
0.027279
0.0272246
0.0271706
0.0271171
0.027064
0.0270114
0.0269593
0.0269076
0.0268564
0.0268056
0.0267553
0.0267054
0.0266558
0.0266067
0.026558
0.0265098
0.0264618
0.0264143
0.0263672
0.0263204
0.0262741
0.026228
0.0261824
0.0261371
0.0260921
0.0260475
0.0260032
0.0259593
0.0259157
0.0258724
0.0258295
0.0257869
0.0257445
0.0257025
0.0256608
0.0256194
0.0255783
0.0255375
0.0254994
0.0254634
0.0254273
0.0253912
0.025355
0.0253188
0.0252824
0.025246
0.0252096
0.025173
0.0251364
0.0250996
0.0250629
0.025026
0.0249891
0.0249521
0.024915
0.0248779
0.0248406
0.0248034
0.024766
0.0247286
0.0246912
0.0246536
0.0246161
0.0245784
0.0245407
0.024503
0.0244651
0.0244273
0.0243894
0.0243514
0.0243134
0.0242753
0.0242372
0.0241991
0.0241609
0.0241226
0.0240843
0.024046
0.0240077
0.0239693
0.0239308
0.0238924
0.0238539
0.0238154
0.0237768
0.0237382
0.0236996
0.023661
0.0236223
0.0235837
0.023545
0.0235063
0.0234675
0.0234288
0.02339
0.0233512
0.0233124
0.0232736
0.0232348
0.023196
0.0231572
0.0231183
0.0230795
0.0230407
0.0230018
0.022963
0.0229242
0.0228853
0.0228465
0.0228077
0.0227689
0.0227301
0.0226913
0.0226525
0.0226137
0.022575
0.0225362
0.0224975
0.0224588
0.0224201
0.0223814
0.0223428
0.0223042
0.0222656
0.022227
0.0221885
0.0221499
0.0221115
0.022073
0.0220346
0.0219962
0.0219578
0.0219195
0.0218812
0.021843
0.0218048
0.0217666
0.0217285
0.0216904
0.0216524
0.0216144
0.0215764
0.0215385
0.0215007
0.0214629
0.0214251
0.0213874
0.0213498
0.0213122
0.0212746
0.0212372
0.0211997
0.0211624
0.0211251
0.0210878
0.0210506
0.0210135
0.0209764
0.0209394
0.0209025
0.0208656
0.0208288
0.0207921
0.0207555
0.0207189
0.0206823
0.0206459
0.0206095
0.0205732
0.020537
0.0205008
0.0204647
0.0204287
0.0203928
0.020357
0.0203212
0.0202855
0.0202499
0.0202144
0.0201789
0.0201436
0.0201083
0.0200731
0.020038
0.020003
0.019968
0.0199332
0.0198984
0.0198637
0.0198292
0.0197947
0.0197603
0.019726
0.0196917
0.0196576
0.0196236
0.0195896
0.0195558
0.019522
0.0194884
0.0194548
0.0194214
0.019388
0.0193547
0.0193216
0.0192885
0.0192555
0.0192226
0.0191899
0.0191572
0.0191246
0.0190921
0.0190598
0.0190275
0.0189953
0.0189632
0.0189313
0.0188994
0.0188676
0.0188323
0.018794
0.0187563
0.0187192
0.0186827
0.0186467
0.0186114
0.0185767
0.0185425
0.0185089
0.0184758
0.0184432
0.0184112
0.0183796
0.0183485
0.0183179
0.0182878
0.0182581
0.0182288
0.0182
0.0181716
0.0181436
0.018116
0.0180887
0.0180619
0.0180354
0.0180093
0.0179836
0.0179582
0.0179331
0.0179084
0.017884
0.0178599
0.0178361
0.0178126
0.0177895
0.0177666
0.017744
0.0177217
0.0176996
0.0176779
0.0176564
0.0176351
0.0176141
0.0175934
0.0175729
0.0175526
0.0175326
0.0175128
0.0174932
0.0174739
0.0174548
0.0174358
0.0174171
0.0173986
0.0173803
0.0173622
0.0173443
0.0173266
0.0173091
0.0172918
0.0172746
0.0172577
0.0172409
0.0172242
0.0172078
0.0171915
0.0171754
0.0171594
0.0171436
0.0171279
0.0171124
0.0170971
0.0170819
0.0170668
0.0170519
0.0170372
0.0170225
0.017008
0.0169937
0.0169794
0.0169653
0.0169513
0.0169374
0.0169237
0.01691
0.0168964
0.0168829
0.0168695
0.0168561
0.0168429
0.0168301
0.0168088
0.016821
0.0167832
)
;
    }
    symmetry
    {
        type            symmetryPlane;
    }
    frontAndBack
    {
        type            empty;
    }
}


// ************************************************************************* //
