/*--------------------------------*- C++ -*----------------------------------*\
| =========                 |                                                 |
| \\      /  F ield         | OpenFOAM: The Open Source CFD Toolbox           |
|  \\    /   O peration     | Version:  v2012                                 |
|   \\  /    A nd           | Website:  www.openfoam.com                      |
|    \\/     M anipulation  |                                                 |
\*---------------------------------------------------------------------------*/
FoamFile
{
    version     2.0;
    format      ascii;
    class       volScalarField;
    location    "44";
    object      yPlus;
}
// * * * * * * * * * * * * * * * * * * * * * * * * * * * * * * * * * * * * * //

dimensions      [0 0 0 0 0 0 0];


internalField   uniform 0;

boundaryField
{
    inlet
    {
        type            calculated;
        value           uniform 0;
    }
    outlet
    {
        type            calculated;
        value           uniform 0;
    }
    topWall
    {
        type            calculated;
        value           nonuniform List<scalar> 
545
(
0.0708327
0.122136
0.156683
0.184166
0.20742
0.227753
0.245901
0.262326
0.277342
0.291177
0.304001
0.315945
0.327113
0.337591
0.347449
0.356746
0.365532
0.373852
0.381741
0.389234
0.396359
0.403142
0.409608
0.415775
0.421664
0.427292
0.432674
0.437825
0.442757
0.447483
0.452014
0.456361
0.460532
0.464538
0.468386
0.472084
0.475639
0.479059
0.48235
0.485517
0.488566
0.491503
0.494333
0.49706
0.499689
0.502224
0.504669
0.507029
0.509305
0.511503
0.513625
0.515674
0.517653
0.519565
0.521413
0.523199
0.524925
0.526595
0.528209
0.52977
0.531281
0.532742
0.534157
0.535526
0.536851
0.538134
0.539376
0.540579
0.541744
0.542873
0.543966
0.545026
0.546039
0.547019
0.54799
0.548952
0.549905
0.55085
0.551787
0.552715
0.553635
0.554547
0.555451
0.556347
0.557235
0.558115
0.558987
0.559852
0.560709
0.561558
0.562401
0.563235
0.564063
0.564883
0.565697
0.566503
0.567229
0.567877
0.568525
0.569172
0.569819
0.570465
0.57111
0.571755
0.572399
0.573042
0.573685
0.574327
0.574968
0.575608
0.576248
0.576887
0.577525
0.578163
0.5788
0.579436
0.580071
0.580705
0.581339
0.581972
0.582604
0.583235
0.583866
0.584495
0.585124
0.585752
0.58638
0.587006
0.587631
0.588256
0.58888
0.589503
0.590125
0.590746
0.591366
0.591985
0.592603
0.593221
0.593837
0.594453
0.595068
0.595681
0.596294
0.596906
0.597516
0.598126
0.598735
0.599342
0.599949
0.600555
0.601159
0.601763
0.602366
0.602967
0.603568
0.604167
0.604765
0.605362
0.605958
0.606553
0.607147
0.60774
0.608331
0.608922
0.609511
0.610099
0.610686
0.611272
0.611856
0.61244
0.613022
0.613603
0.614183
0.614761
0.615338
0.615914
0.616489
0.617062
0.617634
0.618205
0.618775
0.619343
0.61991
0.620476
0.62104
0.621603
0.622164
0.622724
0.623283
0.62384
0.624396
0.624951
0.625504
0.626056
0.626606
0.627155
0.627702
0.628248
0.628793
0.629336
0.629877
0.630417
0.630956
0.631492
0.632028
0.632562
0.633094
0.633625
0.634154
0.634681
0.635207
0.635732
0.636254
0.636775
0.637295
0.637813
0.638329
0.638843
0.639356
0.639867
0.640376
0.640884
0.64139
0.641894
0.642397
0.642897
0.643396
0.643894
0.644389
0.644883
0.645374
0.645864
0.646352
0.646839
0.647323
0.647806
0.648287
0.648765
0.649242
0.649717
0.650191
0.650662
0.651131
0.651599
0.652064
0.652527
0.652989
0.653448
0.653906
0.654361
0.654815
0.655266
0.655716
0.656163
0.656608
0.657051
0.657492
0.657931
0.658368
0.658803
0.659236
0.659666
0.660095
0.660521
0.660945
0.661367
0.661787
0.662204
0.662619
0.66301
0.663376
0.663745
0.664114
0.664485
0.664858
0.665231
0.665606
0.665982
0.666359
0.666737
0.667116
0.667496
0.667877
0.668259
0.668642
0.669026
0.66941
0.669795
0.670181
0.670567
0.670954
0.671341
0.671729
0.672117
0.672505
0.672893
0.673282
0.673671
0.674059
0.674448
0.674836
0.675224
0.675612
0.675999
0.676386
0.676772
0.677157
0.677542
0.677926
0.678309
0.67869
0.679071
0.67945
0.679828
0.680205
0.68058
0.680953
0.681324
0.681694
0.682061
0.682426
0.682789
0.68315
0.683507
0.683863
0.684215
0.684565
0.684911
0.685254
0.685594
0.68593
0.686262
0.686591
0.686916
0.687236
0.687552
0.687864
0.688171
0.688474
0.688771
0.689063
0.68935
0.689632
0.689907
0.690177
0.690441
0.690699
0.69095
0.691195
0.691433
0.691664
0.691888
0.692104
0.692313
0.692514
0.692707
0.692891
0.693068
0.693235
0.693394
0.693544
0.693685
0.693816
0.693937
0.694049
0.69415
0.694241
0.694321
0.69439
0.694449
0.694496
0.694531
0.694555
0.694567
0.694567
0.694554
0.694528
0.69449
0.694438
0.694374
0.694295
0.694203
0.694097
0.693976
0.693841
0.693691
0.693527
0.693347
0.693152
0.692941
0.692715
0.692472
0.692214
0.691939
0.691647
0.691339
0.691014
0.690671
0.690311
0.689934
0.689539
0.689126
0.688695
0.688246
0.687779
0.687293
0.686788
0.686265
0.685723
0.685162
0.684582
0.683983
0.683365
0.682727
0.68207
0.681393
0.680697
0.679981
0.679245
0.67849
0.677715
0.67692
0.676106
0.675272
0.674419
0.673545
0.672652
0.67174
0.670808
0.669857
0.668887
0.667897
0.666888
0.66586
0.664814
0.663749
0.662665
0.661563
0.660443
0.659305
0.65815
0.656977
0.655786
0.654579
0.653355
0.652115
0.650858
0.649586
0.648298
0.646995
0.64553
0.643909
0.642288
0.64067
0.639054
0.637442
0.635834
0.634231
0.632634
0.631043
0.629459
0.627883
0.626316
0.624757
0.623208
0.621668
0.620139
0.618621
0.617115
0.61562
0.614137
0.612667
0.61121
0.609767
0.608337
0.606921
0.605519
0.604132
0.60276
0.601403
0.600061
0.598735
0.597426
0.596132
0.594855
0.593594
0.59235
0.591123
0.589914
0.588722
0.587547
0.586391
0.585252
0.584132
0.58303
0.581946
0.580881
0.579835
0.578808
0.5778
0.576811
0.575842
0.574893
0.573963
0.573053
0.572163
0.571293
0.570444
0.569615
0.568807
0.568019
0.567252
0.566507
0.565782
0.565079
0.564397
0.563737
0.563098
0.562481
0.561886
0.561313
0.560762
0.560233
0.559726
0.559242
0.558781
0.558342
0.557926
0.557533
0.557162
0.556815
0.55649
0.556189
0.555911
0.555656
0.555425
0.555217
0.555032
0.554871
0.554733
0.554619
0.554528
0.554461
0.55442
0.55439
)
;
    }
    bottomWall
    {
        type            calculated;
        value           nonuniform List<scalar> 
449
(
0.139446
0.088957
0.0758071
0.0694356
0.0652526
0.0621264
0.0596317
0.0575684
0.0558176
0.0543015
0.052968
0.0517805
0.0507126
0.0497441
0.0488595
0.0480464
0.0472949
0.0465971
0.0459464
0.0453373
0.0447652
0.0442262
0.0437169
0.0432346
0.0427766
0.0423409
0.0419256
0.0415289
0.0411495
0.0407859
0.040437
0.0401018
0.0397792
0.0394685
0.0391689
0.0388796
0.0386001
0.0383297
0.0380679
0.0378142
0.0375682
0.0373294
0.0370975
0.0368721
0.0366528
0.0364395
0.0362317
0.0360292
0.0358319
0.0356393
0.0354514
0.0352679
0.0350886
0.0349134
0.0347421
0.0345746
0.0344106
0.03425
0.0340928
0.0339387
0.0337877
0.0336397
0.0334945
0.0333521
0.0332123
0.0330751
0.0329404
0.032808
0.032678
0.0325502
0.0324245
0.032301
0.0321795
0.03206
0.0319424
0.0318266
0.0317127
0.0316005
0.03149
0.0313811
0.0312739
0.0311682
0.031064
0.0309614
0.0308601
0.0307603
0.0306618
0.0305646
0.0304688
0.0303742
0.0302809
0.0301887
0.0300977
0.0300079
0.0299192
0.0298316
0.029745
0.0296595
0.029575
0.0294915
0.029409
0.0293274
0.0292467
0.029167
0.0290882
0.0290102
0.0289331
0.0288568
0.0287813
0.0287067
0.0286328
0.0285597
0.0284874
0.0284158
0.0283449
0.0282747
0.0282052
0.0281365
0.0280683
0.0280009
0.0279341
0.0278679
0.0278024
0.0277374
0.0276731
0.0276094
0.0275462
0.0274836
0.0274216
0.0273601
0.0272991
0.0272387
0.0271788
0.0271195
0.0270606
0.0270022
0.0269443
0.0268869
0.02683
0.0267736
0.0267176
0.026662
0.0266069
0.0265522
0.026498
0.0264442
0.0263908
0.0263378
0.0262852
0.026233
0.0261812
0.0261298
0.0260788
0.0260282
0.0259779
0.025928
0.0258785
0.0258293
0.0257804
0.0257319
0.0256838
0.0256359
0.0255885
0.0255413
0.0254945
0.0254479
0.0254017
0.0253558
0.0253102
0.0252649
0.0252199
0.0251752
0.0251308
0.0250892
0.0250501
0.0250107
0.0249713
0.0249318
0.0248922
0.0248525
0.0248126
0.0247727
0.0247326
0.0246925
0.0246522
0.0246118
0.0245713
0.0245308
0.0244901
0.0244493
0.0244084
0.0243674
0.0243263
0.0242852
0.0242439
0.0242025
0.0241611
0.0241195
0.0240779
0.0240361
0.0239943
0.0239524
0.0239104
0.0238683
0.0238262
0.0237839
0.0237416
0.0236992
0.0236567
0.0236142
0.0235716
0.0235288
0.0234861
0.0234432
0.0234003
0.0233573
0.0233142
0.0232711
0.0232279
0.0231847
0.0231414
0.023098
0.0230545
0.023011
0.0229675
0.0229239
0.0228802
0.0228365
0.0227927
0.0227489
0.022705
0.0226611
0.0226171
0.0225731
0.022529
0.0224849
0.0224407
0.0223965
0.0223523
0.022308
0.0222637
0.0222193
0.022175
0.0221305
0.0220861
0.0220416
0.0219971
0.0219525
0.021908
0.0218634
0.0218187
0.0217741
0.0217294
0.0216847
0.02164
0.0215953
0.0215505
0.0215057
0.0214609
0.0214161
0.0213713
0.0213265
0.0212816
0.0212368
0.0211919
0.0211471
0.0211022
0.0210573
0.0210124
0.0209675
0.0209226
0.0208777
0.0208328
0.0207879
0.020743
0.0206981
0.0206532
0.0206083
0.0205634
0.0205186
0.0204737
0.0204288
0.020384
0.0203391
0.0202943
0.0202495
0.0202047
0.0201599
0.0201151
0.0200704
0.0200256
0.0199809
0.0199362
0.0198915
0.0198469
0.0198022
0.0197576
0.019713
0.0196685
0.0196239
0.0195794
0.0195349
0.0194905
0.019446
0.0194016
0.0193573
0.0193129
0.0192686
0.0192244
0.0191801
0.0191359
0.0190918
0.0190476
0.0190035
0.0189595
0.0189155
0.0188715
0.0188275
0.0187836
0.0187398
0.018696
0.0186522
0.0186085
0.0185648
0.0185211
0.0184775
0.018434
0.0183905
0.018347
0.0183036
0.0182603
0.018217
0.0181737
0.0181305
0.0180874
0.0180442
0.0180012
0.0179582
0.0179153
0.0178724
0.0178295
0.0177868
0.017744
0.0177014
0.0176588
0.0176162
0.0175737
0.0175313
0.0174889
0.0174466
0.0174043
0.0173621
0.01732
0.0172779
0.0172311
0.0171803
0.0171302
0.0170807
0.017032
0.016984
0.0169366
0.0168899
0.0168438
0.0167984
0.0167536
0.0167093
0.0166657
0.0166226
0.0165801
0.0165381
0.0164967
0.0164558
0.0164154
0.0163755
0.016336
0.0162971
0.0162586
0.0162206
0.016183
0.0161458
0.0161091
0.0160728
0.0160369
0.0160014
0.0159663
0.0159316
0.0158972
0.0158633
0.0158297
0.0157964
0.0157635
0.015731
0.0156988
0.0156669
0.0156353
0.0156041
0.0155732
0.0155425
0.0155122
0.0154822
0.0154525
0.015423
0.0153939
0.015365
0.0153364
0.015308
0.0152799
0.0152521
0.0152245
0.0151972
0.0151701
0.0151433
0.0151167
0.0150903
0.0150642
0.0150383
0.0150126
0.0149871
0.0149619
0.0149369
0.014912
0.0148874
0.014863
0.0148387
0.0148147
0.0147909
0.0147672
0.0147437
0.0147205
0.0146973
0.0146744
0.0146517
0.0146291
0.0146066
0.0145844
0.0145623
0.0145403
0.0145185
0.0144968
0.0144752
0.0144538
0.0144325
0.0144112
0.0143898
0.0143692
0.0143486
0.0143147
0.0143336
0.0142738
)
;
    }
    symmetry
    {
        type            symmetryPlane;
    }
    frontAndBack
    {
        type            empty;
    }
}


// ************************************************************************* //
