/*--------------------------------*- C++ -*----------------------------------*\
| =========                 |                                                 |
| \\      /  F ield         | OpenFOAM: The Open Source CFD Toolbox           |
|  \\    /   O peration     | Version:  v2012                                 |
|   \\  /    A nd           | Website:  www.openfoam.com                      |
|    \\/     M anipulation  |                                                 |
\*---------------------------------------------------------------------------*/
FoamFile
{
    version     2.0;
    format      ascii;
    class       volScalarField;
    location    "55.5";
    object      epsilon;
}
// * * * * * * * * * * * * * * * * * * * * * * * * * * * * * * * * * * * * * //

dimensions      [0 2 -3 0 0 0 0];


internalField   nonuniform List<scalar> 
209825
(
0.759899
0.633988
0.541727
0.47516
0.426968
0.391528
0.364846
0.344322
0.328157
0.315213
0.304634
0.295897
0.288543
0.282325
0.276965
0.272352
0.268297
0.264762
0.261601
0.258819
0.256295
0.254058
0.252002
0.250171
0.248468
0.246949
0.245519
0.244243
0.243028
0.241947
0.240905
0.239981
0.239079
0.238285
0.237501
0.236814
0.236127
0.235532
0.234928
0.234409
0.233875
0.23342
0.232946
0.23255
0.232131
0.231781
0.231407
0.231101
0.230771
0.230493
0.230205
0.22996
0.229702
0.229485
0.229248
0.229069
0.228859
0.22869
0.228514
0.228357
0.228202
0.22807
0.227938
0.227823
0.227708
0.227617
0.227504
0.227437
0.227347
0.227297
0.227217
0.227173
0.227107
0.227073
0.227017
0.226991
0.226945
0.226928
0.226894
0.226886
0.226867
0.226878
0.226874
0.226906
0.226906
0.226959
0.226969
0.227039
0.227062
0.227158
0.227187
0.227335
0.227397
0.230102
3.28437
604.346
0.759899
0.633988
0.541727
0.475158
0.426964
0.391523
0.36484
0.344315
0.328148
0.315204
0.304624
0.295886
0.288532
0.282313
0.276953
0.27234
0.268285
0.264749
0.261588
0.258806
0.256282
0.254045
0.251988
0.250158
0.248454
0.246935
0.245505
0.244229
0.243014
0.241933
0.24089
0.239966
0.239064
0.238271
0.237486
0.236799
0.236112
0.235517
0.234913
0.234394
0.23386
0.233405
0.232931
0.232535
0.232116
0.231765
0.231392
0.231085
0.230755
0.230478
0.230189
0.229945
0.229687
0.22947
0.229232
0.229054
0.228843
0.228674
0.228499
0.228342
0.228187
0.228054
0.227923
0.227808
0.227692
0.227601
0.227488
0.227422
0.227331
0.227281
0.227201
0.227157
0.227091
0.227057
0.227001
0.226975
0.226929
0.226912
0.226878
0.22687
0.226851
0.226862
0.226858
0.22689
0.22689
0.226943
0.226953
0.227023
0.227046
0.227142
0.227171
0.227319
0.227381
0.23009
3.28961
601.035
0.7599
0.63399
0.541724
0.475149
0.426949
0.391501
0.364812
0.344282
0.328112
0.315164
0.304582
0.295841
0.288484
0.282265
0.276903
0.272288
0.268232
0.264695
0.261534
0.25875
0.256225
0.253988
0.251931
0.2501
0.248396
0.246876
0.245446
0.244169
0.242954
0.241873
0.24083
0.239905
0.239003
0.238209
0.237424
0.236737
0.23605
0.235455
0.23485
0.234331
0.233797
0.233342
0.232868
0.232471
0.232052
0.231702
0.231328
0.231021
0.230691
0.230414
0.230125
0.229881
0.229622
0.229405
0.229167
0.228989
0.228778
0.228609
0.228434
0.228276
0.228122
0.227989
0.227857
0.227742
0.227626
0.227536
0.227422
0.227356
0.227266
0.227215
0.227135
0.227091
0.227025
0.226991
0.226935
0.226908
0.226863
0.226845
0.226811
0.226804
0.226785
0.226795
0.226791
0.226823
0.226823
0.226876
0.226885
0.226955
0.226978
0.227074
0.227103
0.227251
0.227313
0.23003
3.29989
597.171
0.759901
0.633991
0.54172
0.475134
0.426922
0.391463
0.364765
0.344227
0.32805
0.315097
0.304509
0.295765
0.288405
0.282182
0.276818
0.272201
0.268143
0.264604
0.261441
0.258657
0.256131
0.253892
0.251834
0.250002
0.248297
0.246777
0.245345
0.244068
0.242852
0.241771
0.240727
0.239803
0.2389
0.238105
0.23732
0.236632
0.235945
0.23535
0.234744
0.234225
0.23369
0.233235
0.232761
0.232364
0.231945
0.231594
0.23122
0.230913
0.230583
0.230306
0.230016
0.229772
0.229513
0.229296
0.229058
0.22888
0.228669
0.2285
0.228324
0.228167
0.228012
0.227879
0.227747
0.227632
0.227516
0.227425
0.227312
0.227245
0.227154
0.227104
0.227023
0.22698
0.226914
0.226879
0.226823
0.226797
0.226751
0.226733
0.226699
0.226691
0.226672
0.226682
0.226678
0.22671
0.226709
0.226762
0.226771
0.226841
0.226864
0.22696
0.226989
0.227136
0.227198
0.229928
3.31577
593.527
0.759903
0.633994
0.541714
0.475113
0.426884
0.39141
0.364698
0.344149
0.327962
0.315001
0.304407
0.295657
0.288292
0.282065
0.276697
0.272078
0.268017
0.264476
0.261311
0.258524
0.255997
0.253757
0.251697
0.249864
0.248158
0.246636
0.245204
0.243926
0.242709
0.241627
0.240583
0.239657
0.238754
0.237959
0.237173
0.236485
0.235797
0.235201
0.234595
0.234075
0.23354
0.233085
0.23261
0.232213
0.231794
0.231442
0.231068
0.230761
0.230431
0.230153
0.229863
0.229618
0.22936
0.229142
0.228904
0.228725
0.228514
0.228345
0.228169
0.228011
0.227856
0.227723
0.227591
0.227476
0.227359
0.227268
0.227155
0.227088
0.226997
0.226947
0.226866
0.226822
0.226756
0.226721
0.226665
0.226638
0.226592
0.226575
0.22654
0.226533
0.226513
0.226522
0.226518
0.226549
0.226549
0.226602
0.226611
0.22668
0.226703
0.226799
0.226827
0.226974
0.227036
0.229783
3.3377
590.451
0.759905
0.633997
0.541706
0.475086
0.426835
0.39134
0.364611
0.344047
0.327849
0.314877
0.304275
0.295517
0.288146
0.281914
0.276542
0.271918
0.267854
0.26431
0.261142
0.258353
0.255823
0.253581
0.251519
0.249684
0.247977
0.246454
0.245021
0.243742
0.242523
0.24144
0.240395
0.239469
0.238564
0.237769
0.236982
0.236293
0.235605
0.235008
0.234402
0.233881
0.233346
0.23289
0.232415
0.232017
0.231597
0.231245
0.230871
0.230563
0.230232
0.229954
0.229664
0.229419
0.22916
0.228942
0.228704
0.228525
0.228314
0.228144
0.227968
0.22781
0.227654
0.227521
0.227389
0.227273
0.227157
0.227065
0.226952
0.226885
0.226794
0.226743
0.226662
0.226618
0.226551
0.226517
0.22646
0.226433
0.226387
0.226369
0.226335
0.226327
0.226306
0.226315
0.226311
0.226342
0.226342
0.226393
0.226402
0.226471
0.226494
0.226589
0.226617
0.226764
0.226826
0.229595
3.36614
588.108
0.759907
0.634001
0.541696
0.475052
0.426775
0.391255
0.364505
0.343923
0.327709
0.314725
0.304112
0.295345
0.287967
0.281728
0.27635
0.271721
0.267652
0.264105
0.260933
0.258141
0.255609
0.253364
0.251301
0.249463
0.247754
0.24623
0.244795
0.243514
0.242295
0.24121
0.240164
0.239236
0.238331
0.237534
0.236747
0.236057
0.235368
0.23477
0.234163
0.233642
0.233106
0.232649
0.232174
0.231776
0.231355
0.231003
0.230628
0.23032
0.229988
0.22971
0.229419
0.229174
0.228914
0.228696
0.228457
0.228278
0.228066
0.227896
0.22772
0.227562
0.227406
0.227272
0.227139
0.227024
0.226907
0.226815
0.226701
0.226634
0.226543
0.226492
0.22641
0.226366
0.226299
0.226265
0.226207
0.22618
0.226134
0.226116
0.226081
0.226073
0.226052
0.226061
0.226056
0.226086
0.226085
0.226137
0.226145
0.226214
0.226236
0.226331
0.226359
0.226505
0.226567
0.229364
3.4015
586.559
0.75991
0.634006
0.541684
0.475012
0.426703
0.391154
0.364378
0.343774
0.327542
0.314543
0.303917
0.29514
0.287753
0.281506
0.276121
0.271487
0.267413
0.26386
0.260685
0.257889
0.255354
0.253106
0.25104
0.2492
0.247489
0.245962
0.244525
0.243243
0.242022
0.240936
0.239888
0.238959
0.238053
0.237255
0.236466
0.235776
0.235085
0.234487
0.233879
0.233357
0.23282
0.232363
0.231887
0.231488
0.231066
0.230714
0.230338
0.230029
0.229697
0.229418
0.229127
0.228882
0.228621
0.228403
0.228164
0.227984
0.227772
0.227601
0.227424
0.227266
0.227109
0.226976
0.226842
0.226727
0.226609
0.226517
0.226403
0.226335
0.226244
0.226192
0.226111
0.226066
0.225999
0.225964
0.225907
0.225879
0.225832
0.225814
0.225779
0.22577
0.225749
0.225757
0.225752
0.225781
0.22578
0.225831
0.225839
0.225907
0.225929
0.226023
0.226051
0.226196
0.226258
0.229089
3.4442
585.79
0.759914
0.634011
0.541671
0.474965
0.42662
0.391037
0.364231
0.343602
0.327349
0.314332
0.303692
0.294902
0.287504
0.281248
0.275856
0.271214
0.267134
0.263576
0.260397
0.257597
0.255057
0.252806
0.250737
0.248894
0.24718
0.245651
0.244212
0.242928
0.241705
0.240617
0.239568
0.238637
0.237729
0.23693
0.23614
0.235448
0.234757
0.234158
0.233549
0.233026
0.232488
0.23203
0.231553
0.231153
0.230731
0.230377
0.230001
0.229692
0.229359
0.229079
0.228788
0.228542
0.228281
0.228062
0.227822
0.227642
0.227429
0.227258
0.227081
0.226922
0.226765
0.226631
0.226497
0.226381
0.226263
0.226171
0.226056
0.225988
0.225896
0.225844
0.225762
0.225717
0.22565
0.225614
0.225557
0.225529
0.225482
0.225463
0.225427
0.225418
0.225396
0.225404
0.225398
0.225426
0.225426
0.225476
0.225483
0.225551
0.225572
0.225665
0.225692
0.225838
0.2259
0.22877
3.49461
585.736
0.759918
0.634017
0.541656
0.474913
0.426526
0.390903
0.364063
0.343405
0.327129
0.314092
0.303434
0.294631
0.28722
0.280954
0.275552
0.270903
0.266816
0.263252
0.260067
0.257262
0.254718
0.252463
0.25039
0.248545
0.246828
0.245296
0.243854
0.242568
0.241343
0.240253
0.239202
0.23827
0.23736
0.236559
0.235768
0.235075
0.234382
0.233781
0.233172
0.232648
0.232109
0.231649
0.231171
0.230771
0.230348
0.229993
0.229616
0.229306
0.228973
0.228692
0.2284
0.228153
0.227892
0.227672
0.227432
0.227251
0.227038
0.226866
0.226688
0.226529
0.226372
0.226237
0.226103
0.225986
0.225867
0.225775
0.22566
0.225591
0.225498
0.225446
0.225364
0.225319
0.225251
0.225215
0.225157
0.225129
0.225081
0.225062
0.225026
0.225016
0.224994
0.225
0.224994
0.225021
0.22502
0.22507
0.225077
0.225144
0.225164
0.225257
0.225283
0.225428
0.22549
0.228406
3.55308
586.293
0.759922
0.634024
0.541639
0.474854
0.42642
0.390753
0.363875
0.343185
0.326881
0.313821
0.303145
0.294325
0.286901
0.280623
0.275211
0.270553
0.266458
0.262887
0.259696
0.256886
0.254337
0.252077
0.250001
0.248151
0.246431
0.244896
0.243452
0.242163
0.240935
0.239843
0.23879
0.237856
0.236944
0.236142
0.235349
0.234654
0.23396
0.233358
0.232747
0.232222
0.231681
0.231221
0.230742
0.23034
0.229916
0.229561
0.229183
0.228872
0.228538
0.228257
0.227963
0.227716
0.227454
0.227234
0.226992
0.226811
0.226597
0.226425
0.226246
0.226087
0.225929
0.225794
0.225658
0.225542
0.225422
0.22533
0.225214
0.225145
0.225051
0.224999
0.224916
0.22487
0.224802
0.224766
0.224707
0.224678
0.22463
0.224611
0.224574
0.224564
0.22454
0.224546
0.224539
0.224565
0.224564
0.224613
0.224619
0.224685
0.224705
0.224797
0.224823
0.224966
0.225029
0.227997
3.61989
587.336
0.759927
0.634032
0.541621
0.474789
0.426303
0.390587
0.363666
0.342939
0.326605
0.31352
0.302823
0.293985
0.286545
0.280254
0.274831
0.270163
0.26606
0.262481
0.259283
0.256466
0.253912
0.251648
0.249567
0.247713
0.245989
0.244451
0.243003
0.241711
0.240481
0.239387
0.238331
0.237395
0.236481
0.235677
0.234882
0.234186
0.23349
0.232886
0.232274
0.231747
0.231206
0.230744
0.230264
0.229861
0.229436
0.22908
0.2287
0.228389
0.228053
0.227771
0.227477
0.227229
0.226966
0.226745
0.226503
0.226321
0.226106
0.225934
0.225754
0.225594
0.225435
0.2253
0.225164
0.225047
0.224926
0.224834
0.224717
0.224647
0.224553
0.2245
0.224417
0.224371
0.224302
0.224265
0.224206
0.224177
0.224128
0.224108
0.224071
0.22406
0.224036
0.224041
0.224033
0.224057
0.224056
0.224104
0.224109
0.224175
0.224194
0.224285
0.22431
0.224453
0.224515
0.227544
3.69527
588.718
0.759933
0.634041
0.541601
0.474717
0.426174
0.390404
0.363436
0.342669
0.326302
0.313189
0.302468
0.29361
0.286154
0.279848
0.274412
0.269733
0.26562
0.262033
0.258828
0.256004
0.253444
0.251174
0.249088
0.24723
0.245502
0.24396
0.242509
0.241214
0.23998
0.238883
0.237825
0.236886
0.235971
0.235164
0.234367
0.233669
0.232971
0.232366
0.231752
0.231224
0.230681
0.230218
0.229736
0.229332
0.228906
0.228549
0.228168
0.227855
0.227519
0.227236
0.226941
0.226692
0.226428
0.226207
0.225963
0.22578
0.225565
0.225392
0.225212
0.225051
0.224891
0.224755
0.224618
0.224501
0.22438
0.224286
0.224169
0.224099
0.224004
0.22395
0.223866
0.22382
0.22375
0.223713
0.223653
0.223624
0.223574
0.223554
0.223516
0.223505
0.223479
0.223483
0.223474
0.223498
0.223496
0.223542
0.223547
0.223612
0.22363
0.22372
0.223744
0.223886
0.223949
0.227044
3.77937
590.283
0.759938
0.634051
0.541579
0.47464
0.426034
0.390205
0.363185
0.342374
0.32597
0.312826
0.30208
0.2932
0.285725
0.279403
0.273954
0.269263
0.26514
0.261543
0.258329
0.255499
0.252932
0.250656
0.248564
0.246702
0.244969
0.243423
0.241968
0.240669
0.239433
0.238332
0.237271
0.23633
0.235412
0.234603
0.233804
0.233103
0.232404
0.231797
0.231181
0.230651
0.230106
0.229642
0.229159
0.228754
0.228326
0.227967
0.227586
0.227272
0.226934
0.226651
0.226354
0.226104
0.225839
0.225617
0.225373
0.225189
0.224973
0.224799
0.224618
0.224457
0.224296
0.224159
0.224021
0.223903
0.223781
0.223687
0.223569
0.223498
0.223403
0.223348
0.223264
0.223217
0.223146
0.223109
0.223048
0.223018
0.222968
0.222947
0.222908
0.222897
0.22287
0.222873
0.222863
0.222885
0.222883
0.222928
0.222932
0.222995
0.223013
0.223102
0.223125
0.223266
0.223329
0.226499
3.87224
591.874
0.759944
0.634061
0.541556
0.474557
0.425883
0.389989
0.362913
0.342055
0.325611
0.312433
0.301659
0.292755
0.28526
0.278921
0.273456
0.268752
0.264617
0.261011
0.257788
0.254949
0.252375
0.250093
0.247995
0.246127
0.24439
0.242839
0.24138
0.240077
0.238837
0.237733
0.236669
0.235725
0.234804
0.233993
0.233192
0.232489
0.231787
0.231178
0.23056
0.230029
0.229482
0.229016
0.228531
0.228125
0.227695
0.227336
0.226953
0.226637
0.226299
0.226014
0.225716
0.225465
0.225199
0.224976
0.224731
0.224546
0.224329
0.224154
0.223972
0.22381
0.223648
0.223511
0.223372
0.223254
0.223131
0.223036
0.222917
0.222845
0.222749
0.222694
0.222609
0.222561
0.22249
0.222452
0.222391
0.22236
0.222309
0.222287
0.222248
0.222235
0.222208
0.22221
0.222199
0.222219
0.222217
0.22226
0.222263
0.222326
0.222343
0.22243
0.222452
0.222592
0.222656
0.225908
3.97381
593.339
0.759951
0.634073
0.541532
0.474467
0.42572
0.389757
0.36262
0.34171
0.325223
0.312009
0.301204
0.292274
0.284758
0.278399
0.272919
0.2682
0.264053
0.260435
0.257203
0.254355
0.251773
0.249484
0.24738
0.245506
0.243763
0.242208
0.240744
0.239437
0.238193
0.237086
0.236019
0.235071
0.234148
0.233333
0.23253
0.231824
0.23112
0.230509
0.229889
0.229356
0.228807
0.22834
0.227853
0.227445
0.227014
0.226653
0.226268
0.225951
0.225612
0.225325
0.225026
0.224775
0.224507
0.224283
0.224037
0.223851
0.223633
0.223457
0.223274
0.223112
0.222949
0.222811
0.222671
0.222551
0.222427
0.222332
0.222212
0.22214
0.222042
0.221987
0.221901
0.221852
0.221781
0.221742
0.22168
0.221649
0.221597
0.221574
0.221534
0.221521
0.221493
0.221493
0.22148
0.221499
0.221496
0.221538
0.221541
0.221602
0.221618
0.221703
0.221725
0.221864
0.221928
0.22527
4.08388
594.528
0.759958
0.634085
0.541506
0.474372
0.425546
0.389508
0.362306
0.34134
0.324806
0.311554
0.300716
0.291758
0.284218
0.277839
0.272341
0.267607
0.263446
0.259817
0.256574
0.253717
0.251126
0.248829
0.246719
0.244838
0.24309
0.241529
0.24006
0.238749
0.237501
0.23639
0.235319
0.234368
0.233441
0.232624
0.231818
0.23111
0.230403
0.22979
0.229167
0.228632
0.228081
0.227612
0.227124
0.226713
0.226281
0.225918
0.225532
0.225214
0.224873
0.224585
0.224285
0.224032
0.223763
0.223538
0.22329
0.223103
0.222884
0.222708
0.222523
0.22236
0.222196
0.222057
0.221916
0.221796
0.221671
0.221575
0.221454
0.221381
0.221282
0.221226
0.221139
0.22109
0.221018
0.220978
0.220915
0.220883
0.22083
0.220807
0.220766
0.220752
0.220723
0.220722
0.220708
0.220725
0.220721
0.220761
0.220763
0.220823
0.220838
0.220922
0.220943
0.22108
0.221145
0.224585
4.20209
595.307
0.759965
0.634098
0.541479
0.474271
0.425361
0.389243
0.361971
0.340946
0.324362
0.311067
0.300194
0.291206
0.28364
0.27724
0.271722
0.266972
0.262797
0.259155
0.2559
0.253033
0.250434
0.248129
0.24601
0.244123
0.242369
0.240802
0.239329
0.238012
0.23676
0.235645
0.23457
0.233616
0.232685
0.231865
0.231055
0.230345
0.229635
0.229019
0.228394
0.227857
0.227304
0.226833
0.226342
0.22593
0.225496
0.225132
0.224744
0.224424
0.224081
0.223792
0.22349
0.223236
0.222966
0.22274
0.222491
0.222302
0.222083
0.221905
0.221719
0.221555
0.22139
0.22125
0.221108
0.220987
0.220861
0.220765
0.220643
0.220568
0.220469
0.220412
0.220324
0.220274
0.220201
0.220161
0.220097
0.220064
0.22001
0.219986
0.219944
0.219929
0.219899
0.219896
0.219881
0.219897
0.219892
0.21993
0.219931
0.219989
0.220003
0.220086
0.220105
0.220242
0.220307
0.223852
4.32787
595.55
0.759973
0.634113
0.541451
0.474165
0.425165
0.388962
0.361615
0.340526
0.323889
0.310549
0.299638
0.290618
0.283025
0.276601
0.271063
0.266295
0.262105
0.258449
0.255182
0.252304
0.249696
0.247381
0.245255
0.243361
0.2416
0.240027
0.238548
0.237227
0.235969
0.23485
0.233771
0.232813
0.231879
0.231055
0.230242
0.229528
0.228816
0.228198
0.22757
0.22703
0.226475
0.226002
0.225509
0.225095
0.224659
0.224293
0.223903
0.223582
0.223237
0.222947
0.222643
0.222388
0.222116
0.221889
0.221638
0.221449
0.221228
0.221049
0.220862
0.220697
0.22053
0.22039
0.220246
0.220125
0.219997
0.2199
0.219777
0.219702
0.219601
0.219543
0.219454
0.219403
0.219329
0.219288
0.219223
0.21919
0.219135
0.21911
0.219067
0.219052
0.21902
0.219016
0.218999
0.219013
0.219007
0.219043
0.219044
0.2191
0.219113
0.219194
0.219212
0.219347
0.219414
0.223071
4.46048
595.149
0.759981
0.634128
0.541422
0.474053
0.424959
0.388665
0.361239
0.340082
0.323387
0.309999
0.299048
0.289994
0.282372
0.275923
0.270364
0.265577
0.26137
0.257699
0.25442
0.25153
0.248911
0.246587
0.244453
0.242551
0.240783
0.239204
0.237719
0.236392
0.235129
0.234005
0.232922
0.231959
0.231022
0.230194
0.229378
0.228661
0.227946
0.227324
0.226694
0.226152
0.225594
0.225118
0.224624
0.224207
0.223769
0.223401
0.22301
0.222686
0.22234
0.222048
0.221743
0.221486
0.221212
0.220984
0.220732
0.220541
0.220319
0.220139
0.21995
0.219785
0.219617
0.219475
0.21933
0.219208
0.219079
0.218981
0.218857
0.21878
0.218678
0.218619
0.218529
0.218478
0.218403
0.218361
0.218295
0.218261
0.218205
0.218179
0.218135
0.218119
0.218086
0.218081
0.218062
0.218074
0.218067
0.2181
0.218101
0.218155
0.218167
0.218246
0.218263
0.218396
0.218464
0.222241
4.59891
594.002
0.759989
0.634144
0.541391
0.473935
0.424742
0.388352
0.360841
0.339612
0.322857
0.309418
0.298424
0.289334
0.281681
0.275205
0.269623
0.264816
0.260592
0.256905
0.253612
0.25071
0.24808
0.245747
0.243603
0.241693
0.239917
0.238331
0.23684
0.235507
0.23424
0.23311
0.232022
0.231056
0.230114
0.229283
0.228463
0.227742
0.227024
0.226399
0.225766
0.225221
0.224661
0.224183
0.223685
0.223267
0.222826
0.222456
0.222063
0.221738
0.22139
0.221096
0.220789
0.220531
0.220255
0.220026
0.219772
0.21958
0.219356
0.219175
0.218985
0.218819
0.218649
0.218506
0.21836
0.218237
0.218106
0.218007
0.217882
0.217805
0.217701
0.217641
0.21755
0.217498
0.217422
0.217379
0.217312
0.217277
0.21722
0.217193
0.217147
0.21713
0.217096
0.21709
0.217069
0.217079
0.217071
0.217102
0.217101
0.217154
0.217164
0.217241
0.217257
0.217389
0.217458
0.221362
4.7419
592.023
0.759998
0.634161
0.54136
0.473813
0.424514
0.388024
0.360424
0.339118
0.322299
0.308806
0.297767
0.288638
0.280952
0.274448
0.268841
0.264013
0.25977
0.256067
0.25276
0.249845
0.247203
0.244859
0.242706
0.240787
0.239003
0.23741
0.235912
0.234573
0.2333
0.232165
0.231072
0.230101
0.229155
0.228319
0.227496
0.226772
0.22605
0.225422
0.224786
0.224238
0.223675
0.223194
0.222695
0.222274
0.221831
0.221459
0.221063
0.220736
0.220386
0.220091
0.219781
0.219521
0.219244
0.219014
0.218758
0.218564
0.218339
0.218156
0.217965
0.217798
0.217626
0.217483
0.217335
0.217211
0.217078
0.216979
0.216852
0.216774
0.216669
0.216608
0.216516
0.216462
0.216385
0.216342
0.216274
0.216237
0.216179
0.216151
0.216104
0.216086
0.216051
0.216043
0.21602
0.216028
0.216019
0.216047
0.216046
0.216097
0.216106
0.21618
0.216195
0.216326
0.216396
0.220432
4.88791
589.143
0.760007
0.634179
0.541328
0.473685
0.424277
0.38768
0.359986
0.3386
0.321713
0.308163
0.297075
0.287906
0.280185
0.273651
0.268019
0.263168
0.258905
0.255185
0.251862
0.248933
0.246279
0.243924
0.241761
0.239832
0.238041
0.23644
0.234935
0.233589
0.23231
0.231169
0.230071
0.229095
0.228144
0.227305
0.226477
0.22575
0.225024
0.224393
0.223754
0.223202
0.222637
0.222153
0.221651
0.221227
0.220782
0.220408
0.22001
0.21968
0.219328
0.219031
0.21872
0.218458
0.218179
0.217947
0.21769
0.217494
0.217268
0.217084
0.216891
0.216722
0.216549
0.216405
0.216255
0.21613
0.215995
0.215895
0.215767
0.215687
0.215581
0.215519
0.215426
0.215372
0.215293
0.215249
0.215179
0.215142
0.215082
0.215053
0.215005
0.214986
0.21495
0.21494
0.214915
0.214922
0.214911
0.214936
0.214934
0.214983
0.21499
0.215063
0.215076
0.215205
0.215277
0.219452
5.03512
585.303
0.760016
0.634198
0.541295
0.473553
0.424029
0.387321
0.359528
0.338057
0.321099
0.307489
0.29635
0.287137
0.27938
0.272814
0.267155
0.26228
0.257997
0.254258
0.250919
0.247976
0.245309
0.242941
0.240768
0.23883
0.237029
0.23542
0.233908
0.232555
0.23127
0.230123
0.229019
0.228038
0.227083
0.226239
0.225407
0.224675
0.223946
0.223311
0.222668
0.222114
0.221545
0.221059
0.220553
0.220128
0.219679
0.219303
0.218903
0.218571
0.218217
0.217918
0.217604
0.217341
0.21706
0.216826
0.216567
0.21637
0.216142
0.215956
0.215761
0.215592
0.215417
0.215271
0.21512
0.214994
0.214858
0.214757
0.214627
0.214546
0.214438
0.214375
0.21428
0.214225
0.214145
0.2141
0.214029
0.213991
0.21393
0.2139
0.21385
0.21383
0.213792
0.213781
0.213755
0.213759
0.213746
0.213769
0.213766
0.213812
0.213818
0.213889
0.2139
0.214028
0.214101
0.218419
5.18135
580.451
0.760026
0.634219
0.541262
0.473417
0.423772
0.386947
0.35905
0.33749
0.320457
0.306783
0.295592
0.286333
0.278538
0.271938
0.266251
0.26135
0.257045
0.253287
0.249931
0.246972
0.244291
0.241912
0.239727
0.237779
0.235969
0.234351
0.232831
0.231471
0.230179
0.229026
0.227917
0.226931
0.22597
0.225121
0.224285
0.223549
0.222816
0.222177
0.221531
0.220973
0.220401
0.219912
0.219403
0.218975
0.218524
0.218145
0.217742
0.217408
0.217051
0.216751
0.216435
0.216169
0.215886
0.215651
0.21539
0.215191
0.214961
0.214774
0.214577
0.214407
0.21423
0.214083
0.21393
0.213803
0.213665
0.213563
0.213431
0.213349
0.21324
0.213175
0.213079
0.213023
0.212942
0.212896
0.212823
0.212784
0.212721
0.21269
0.212639
0.212618
0.212578
0.212566
0.212538
0.21254
0.212525
0.212545
0.212541
0.212585
0.21259
0.212657
0.212668
0.212794
0.212869
0.217334
5.32417
574.546
0.760035
0.63424
0.541229
0.473276
0.423506
0.386558
0.358553
0.3369
0.319788
0.306048
0.2948
0.285494
0.277657
0.271023
0.265305
0.260379
0.256051
0.252272
0.248898
0.245923
0.243228
0.240835
0.238639
0.23668
0.23486
0.233233
0.231705
0.230338
0.229038
0.227879
0.226763
0.225771
0.224805
0.223952
0.22311
0.22237
0.221633
0.220991
0.22034
0.219779
0.219204
0.218711
0.2182
0.217768
0.217314
0.216933
0.216527
0.216191
0.215832
0.215529
0.215211
0.214944
0.214658
0.214421
0.214158
0.213957
0.213726
0.213537
0.213338
0.213167
0.212988
0.21284
0.212684
0.212556
0.212416
0.212313
0.21218
0.212097
0.211986
0.21192
0.211822
0.211765
0.211682
0.211635
0.211562
0.211521
0.211457
0.211425
0.211372
0.211349
0.211308
0.211295
0.211265
0.211264
0.211248
0.211265
0.21126
0.2113
0.211304
0.211369
0.211378
0.211502
0.211579
0.216194
5.46078
567.551
0.760045
0.634262
0.541195
0.473131
0.42323
0.386156
0.358037
0.336286
0.319092
0.305281
0.293975
0.284619
0.27674
0.270069
0.264319
0.259365
0.255013
0.251213
0.24782
0.244828
0.242117
0.239711
0.237502
0.235532
0.233702
0.232066
0.230529
0.229154
0.227847
0.226681
0.225559
0.224561
0.22359
0.222731
0.221885
0.22114
0.220398
0.219752
0.219097
0.218533
0.217954
0.217458
0.216943
0.216508
0.216052
0.215667
0.215259
0.21492
0.214559
0.214254
0.213933
0.213664
0.213376
0.213137
0.212872
0.212669
0.212436
0.212245
0.212045
0.211872
0.211691
0.211542
0.211384
0.211255
0.211113
0.211009
0.210874
0.210789
0.210676
0.210609
0.21051
0.210452
0.210367
0.210319
0.210244
0.210202
0.210137
0.210103
0.210049
0.210025
0.209982
0.209967
0.209935
0.209933
0.209914
0.209928
0.209922
0.20996
0.209962
0.210024
0.210031
0.210154
0.210233
0.214999
5.58816
559.434
0.760055
0.634285
0.54116
0.472982
0.422946
0.38574
0.357503
0.335649
0.318369
0.304485
0.293117
0.283709
0.275785
0.269075
0.263293
0.258309
0.253932
0.250109
0.246697
0.243687
0.240961
0.23854
0.236319
0.234336
0.232496
0.23085
0.229304
0.22792
0.226606
0.225433
0.224304
0.2233
0.222323
0.221458
0.220607
0.219858
0.219111
0.21846
0.217802
0.217233
0.216651
0.216151
0.215633
0.215195
0.214736
0.214348
0.213937
0.213596
0.213232
0.212924
0.212601
0.21233
0.212039
0.211799
0.211531
0.211326
0.211091
0.210899
0.210696
0.210522
0.210339
0.210188
0.210029
0.209898
0.209754
0.209649
0.209513
0.209426
0.209311
0.209243
0.209142
0.209082
0.208997
0.208947
0.208871
0.208828
0.208761
0.208726
0.20867
0.208644
0.2086
0.208584
0.20855
0.208545
0.208524
0.208536
0.208528
0.208562
0.208563
0.208622
0.208628
0.208749
0.20883
0.213747
5.70299
550.166
0.760065
0.634309
0.541126
0.47283
0.422654
0.38531
0.35695
0.33499
0.31762
0.30366
0.292227
0.282764
0.274794
0.268044
0.262226
0.257212
0.252809
0.248963
0.245529
0.242501
0.239758
0.237322
0.235087
0.233093
0.231241
0.229585
0.22803
0.226637
0.225315
0.224134
0.222999
0.221988
0.221005
0.220134
0.219278
0.218523
0.217772
0.217117
0.216454
0.215882
0.215295
0.214792
0.21427
0.213829
0.213366
0.212976
0.212562
0.212218
0.211851
0.211541
0.211215
0.210942
0.210648
0.210407
0.210137
0.209929
0.209692
0.209498
0.209293
0.209118
0.208933
0.20878
0.208618
0.208487
0.208341
0.208234
0.208096
0.208008
0.207891
0.207821
0.207719
0.207658
0.207571
0.20752
0.207442
0.207398
0.207329
0.207293
0.207235
0.207208
0.207162
0.207144
0.207108
0.207101
0.207078
0.207087
0.207077
0.207108
0.207108
0.207164
0.207168
0.207287
0.20737
0.212437
5.80178
539.722
0.760075
0.634334
0.541092
0.472675
0.422354
0.384867
0.35638
0.334309
0.316845
0.302805
0.291306
0.281785
0.273766
0.266974
0.26112
0.256074
0.251643
0.247772
0.244317
0.241269
0.23851
0.236058
0.233809
0.231802
0.229938
0.228271
0.226706
0.225305
0.223974
0.222785
0.221643
0.220625
0.219636
0.21876
0.217897
0.217138
0.216381
0.215722
0.215055
0.214478
0.213887
0.21338
0.212855
0.212411
0.211944
0.211551
0.211134
0.210787
0.210417
0.210104
0.209775
0.2095
0.209204
0.20896
0.208688
0.208478
0.208239
0.208043
0.207836
0.207659
0.207472
0.207318
0.207154
0.207021
0.206872
0.206764
0.206624
0.206535
0.206416
0.206345
0.206241
0.206178
0.20609
0.206038
0.205958
0.205912
0.205842
0.205804
0.205744
0.205716
0.205668
0.205649
0.205611
0.205602
0.205576
0.205582
0.20557
0.205598
0.205597
0.205649
0.205652
0.205769
0.205854
0.211067
5.88092
528.08
0.760085
0.63436
0.541058
0.472516
0.422047
0.384412
0.355792
0.333606
0.316044
0.301922
0.290352
0.280772
0.272702
0.265866
0.259974
0.254896
0.250435
0.246539
0.243062
0.239993
0.237216
0.234748
0.232484
0.230463
0.228588
0.22691
0.225334
0.223923
0.222584
0.221387
0.220237
0.219213
0.218216
0.217334
0.216466
0.215701
0.214939
0.214275
0.213603
0.213022
0.212427
0.211917
0.211387
0.210939
0.210469
0.210073
0.209652
0.209302
0.208929
0.208615
0.208282
0.208005
0.207706
0.20746
0.207185
0.206973
0.206732
0.206534
0.206325
0.206146
0.205957
0.205801
0.205635
0.205501
0.205349
0.20524
0.205098
0.205007
0.204886
0.204813
0.204707
0.204644
0.204553
0.2045
0.204419
0.204372
0.204299
0.20426
0.204199
0.204169
0.204118
0.204098
0.204058
0.204047
0.204019
0.204022
0.204008
0.204032
0.20403
0.204078
0.20408
0.204194
0.204282
0.209635
5.93678
515.223
0.760095
0.634387
0.541024
0.472356
0.421733
0.383946
0.355188
0.332883
0.315219
0.301011
0.289368
0.279725
0.271603
0.264721
0.25879
0.253677
0.249186
0.245263
0.241762
0.238673
0.235877
0.233391
0.231113
0.229078
0.22719
0.2255
0.223914
0.222493
0.221145
0.21994
0.218782
0.21775
0.216747
0.215858
0.214984
0.214213
0.213446
0.212777
0.2121
0.211514
0.210915
0.210401
0.209867
0.209416
0.208942
0.208542
0.208119
0.207766
0.207389
0.207072
0.206737
0.206456
0.206155
0.205907
0.20563
0.205415
0.205171
0.204972
0.20476
0.20458
0.204388
0.204231
0.204062
0.203926
0.203773
0.203662
0.203518
0.203425
0.203302
0.203228
0.20312
0.203055
0.202963
0.202908
0.202825
0.202777
0.202702
0.202662
0.202598
0.202567
0.202514
0.202492
0.20245
0.202437
0.202407
0.202407
0.202391
0.202411
0.202408
0.202452
0.202452
0.202565
0.202655
0.208139
5.96574
501.137
0.760106
0.634415
0.540991
0.472193
0.421412
0.383468
0.354568
0.332139
0.31437
0.300072
0.288354
0.278646
0.270468
0.263539
0.257567
0.252418
0.247896
0.243946
0.24042
0.237309
0.234493
0.23199
0.229696
0.227646
0.225745
0.224043
0.222446
0.221015
0.219657
0.218443
0.217277
0.216238
0.215227
0.214332
0.213452
0.212675
0.211903
0.211228
0.210546
0.209956
0.209352
0.208834
0.208296
0.207841
0.207363
0.20696
0.206533
0.206176
0.205797
0.205477
0.205138
0.204856
0.204551
0.204301
0.204021
0.203804
0.203558
0.203356
0.203142
0.20296
0.202765
0.202607
0.202435
0.202298
0.202142
0.20203
0.201884
0.20179
0.201665
0.201588
0.201478
0.201412
0.201318
0.201262
0.201177
0.201127
0.201051
0.201009
0.200943
0.20091
0.200855
0.200832
0.200787
0.200773
0.20074
0.200738
0.200718
0.200735
0.20073
0.20077
0.20077
0.200879
0.200972
0.206579
5.96463
485.82
0.760116
0.634444
0.540958
0.472028
0.421085
0.382979
0.353933
0.331376
0.313498
0.299107
0.28731
0.277535
0.2693
0.262321
0.256307
0.25112
0.246566
0.242586
0.239036
0.235901
0.233065
0.230544
0.228233
0.226169
0.224254
0.222539
0.220931
0.219489
0.218121
0.216898
0.215724
0.214677
0.213659
0.212757
0.21187
0.211087
0.210309
0.209629
0.208942
0.208347
0.207738
0.207215
0.206674
0.206214
0.205733
0.205326
0.204895
0.204536
0.204153
0.20383
0.203488
0.203203
0.202895
0.202643
0.20236
0.20214
0.201892
0.201688
0.201471
0.201287
0.20109
0.20093
0.200756
0.200617
0.200459
0.200345
0.200197
0.200101
0.199973
0.199895
0.199783
0.199715
0.199619
0.199562
0.199475
0.199424
0.199345
0.199302
0.199234
0.1992
0.199143
0.199117
0.19907
0.199054
0.199019
0.199014
0.198992
0.199005
0.198998
0.199034
0.199032
0.19914
0.199234
0.204952
5.93049
469.278
0.760126
0.634474
0.540926
0.471861
0.420753
0.382481
0.353283
0.330594
0.312603
0.298115
0.286237
0.276393
0.268098
0.261068
0.255009
0.249784
0.245196
0.241186
0.237609
0.234451
0.231594
0.229054
0.226726