/*--------------------------------*- C++ -*----------------------------------*\
| =========                 |                                                 |
| \\      /  F ield         | OpenFOAM: The Open Source CFD Toolbox           |
|  \\    /   O peration     | Version:  v2012                                 |
|   \\  /    A nd           | Website:  www.openfoam.com                      |
|    \\/     M anipulation  |                                                 |
\*---------------------------------------------------------------------------*/
FoamFile
{
    version     2.0;
    format      ascii;
    class       volScalarField;
    location    "55.5";
    object      nut;
}
// * * * * * * * * * * * * * * * * * * * * * * * * * * * * * * * * * * * * * //

dimensions      [0 2 -1 0 0 0 0];


internalField   nonuniform List<scalar> 
209825
(
1.24155e-07
1.23559e-07
1.22154e-07
1.19004e-07
1.14214e-07
1.08432e-07
1.02303e-07
9.62874e-08
9.06275e-08
8.54424e-08
8.07464e-08
7.65371e-08
7.27603e-08
6.93913e-08
6.63656e-08
6.36633e-08
6.12231e-08
5.9037e-08
5.70487e-08
5.52619e-08
5.36242e-08
5.21484e-08
5.07847e-08
4.95538e-08
4.84063e-08
4.73699e-08
4.63945e-08
4.55149e-08
4.46788e-08
4.3926e-08
4.32033e-08
4.25553e-08
4.19261e-08
4.13646e-08
4.08128e-08
4.03238e-08
3.98369e-08
3.9409e-08
3.89773e-08
3.86016e-08
3.82168e-08
3.78857e-08
3.75412e-08
3.72479e-08
3.69376e-08
3.66778e-08
3.63976e-08
3.61664e-08
3.59119e-08
3.5707e-08
3.54747e-08
3.52915e-08
3.50798e-08
3.49162e-08
3.47237e-08
3.45754e-08
3.43986e-08
3.42676e-08
3.41035e-08
3.39868e-08
3.38367e-08
3.37302e-08
3.35918e-08
3.3495e-08
3.33682e-08
3.32788e-08
3.31639e-08
3.30813e-08
3.2974e-08
3.28982e-08
3.27993e-08
3.27309e-08
3.26407e-08
3.25796e-08
3.24938e-08
3.24349e-08
3.23506e-08
3.22934e-08
3.22103e-08
3.21545e-08
3.2072e-08
3.20165e-08
3.19346e-08
3.18793e-08
3.17996e-08
3.17457e-08
3.16666e-08
3.16156e-08
3.15369e-08
3.14872e-08
3.14094e-08
3.1358e-08
3.12728e-08
3.15934e-08
3.96587e-06
3.3611e-08
1.24155e-07
1.23559e-07
1.22154e-07
1.19004e-07
1.14215e-07
1.08434e-07
1.02305e-07
9.62897e-08
9.06299e-08
8.54449e-08
8.07489e-08
7.65395e-08
7.27627e-08
6.93935e-08
6.63677e-08
6.36653e-08
6.1225e-08
5.90388e-08
5.70504e-08
5.52636e-08
5.36257e-08
5.21498e-08
5.0786e-08
4.9555e-08
4.84075e-08
4.73711e-08
4.63956e-08
4.5516e-08
4.46798e-08
4.3927e-08
4.32041e-08
4.25561e-08
4.19269e-08
4.13653e-08
4.08135e-08
4.03245e-08
3.98376e-08
3.94096e-08
3.89778e-08
3.86021e-08
3.82173e-08
3.78862e-08
3.75417e-08
3.72483e-08
3.6938e-08
3.66782e-08
3.6398e-08
3.61667e-08
3.59122e-08
3.57073e-08
3.5475e-08
3.52918e-08
3.508e-08
3.49165e-08
3.47239e-08
3.45756e-08
3.43988e-08
3.42678e-08
3.41037e-08
3.3987e-08
3.38368e-08
3.37303e-08
3.35919e-08
3.34952e-08
3.33683e-08
3.32789e-08
3.3164e-08
3.30814e-08
3.29741e-08
3.28983e-08
3.27994e-08
3.2731e-08
3.26408e-08
3.25797e-08
3.24939e-08
3.24349e-08
3.23507e-08
3.22935e-08
3.22104e-08
3.21545e-08
3.2072e-08
3.20165e-08
3.19346e-08
3.18793e-08
3.17996e-08
3.17457e-08
3.16666e-08
3.16156e-08
3.15369e-08
3.14872e-08
3.14093e-08
3.1358e-08
3.12728e-08
3.15935e-08
3.96469e-06
3.38532e-08
1.24155e-07
1.23558e-07
1.22154e-07
1.19007e-07
1.1422e-07
1.08441e-07
1.02314e-07
9.62992e-08
9.06399e-08
8.54549e-08
8.07587e-08
7.65491e-08
7.27719e-08
6.94023e-08
6.63761e-08
6.36732e-08
6.12325e-08
5.90458e-08
5.7057e-08
5.52698e-08
5.36316e-08
5.21553e-08
5.07912e-08
4.95599e-08
4.84121e-08
4.73754e-08
4.63997e-08
4.55198e-08
4.46835e-08
4.39304e-08
4.32074e-08
4.25592e-08
4.19298e-08
4.1368e-08
4.08161e-08
4.03269e-08
3.98399e-08
3.94118e-08
3.89799e-08
3.86041e-08
3.82192e-08
3.7888e-08
3.75434e-08
3.72499e-08
3.69395e-08
3.66796e-08
3.63993e-08
3.6168e-08
3.59134e-08
3.57084e-08
3.5476e-08
3.52928e-08
3.5081e-08
3.49174e-08
3.47248e-08
3.45764e-08
3.43995e-08
3.42685e-08
3.41044e-08
3.39876e-08
3.38374e-08
3.37308e-08
3.35924e-08
3.34956e-08
3.33687e-08
3.32793e-08
3.31644e-08
3.30817e-08
3.29744e-08
3.28986e-08
3.27996e-08
3.27312e-08
3.2641e-08
3.25798e-08
3.2494e-08
3.2435e-08
3.23508e-08
3.22935e-08
3.22104e-08
3.21545e-08
3.2072e-08
3.20165e-08
3.19346e-08
3.18793e-08
3.17995e-08
3.17456e-08
3.16665e-08
3.16155e-08
3.15368e-08
3.1487e-08
3.14092e-08
3.13578e-08
3.12726e-08
3.15938e-08
3.9595e-06
3.41792e-08
1.24155e-07
1.23558e-07
1.22155e-07
1.19012e-07
1.14229e-07
1.08453e-07
1.02328e-07
9.63152e-08
9.06566e-08
8.54718e-08
8.07754e-08
7.65652e-08
7.27874e-08
6.94171e-08
6.63901e-08
6.36865e-08
6.1245e-08
5.90576e-08
5.70681e-08
5.52802e-08
5.36415e-08
5.21646e-08
5.08e-08
4.95682e-08
4.84199e-08
4.73827e-08
4.64066e-08
4.55263e-08
4.46896e-08
4.39362e-08
4.32129e-08
4.25644e-08
4.19347e-08
4.13727e-08
4.08205e-08
4.03311e-08
3.98438e-08
3.94155e-08
3.89834e-08
3.86074e-08
3.82223e-08
3.7891e-08
3.75462e-08
3.72526e-08
3.69421e-08
3.6682e-08
3.64016e-08
3.61702e-08
3.59154e-08
3.57103e-08
3.54778e-08
3.52945e-08
3.50826e-08
3.49189e-08
3.47262e-08
3.45777e-08
3.44008e-08
3.42697e-08
3.41055e-08
3.39886e-08
3.38384e-08
3.37317e-08
3.35933e-08
3.34964e-08
3.33694e-08
3.328e-08
3.3165e-08
3.30823e-08
3.29749e-08
3.2899e-08
3.28001e-08
3.27316e-08
3.26413e-08
3.25801e-08
3.24942e-08
3.24353e-08
3.23509e-08
3.22937e-08
3.22105e-08
3.21546e-08
3.2072e-08
3.20165e-08
3.19346e-08
3.18793e-08
3.17994e-08
3.17455e-08
3.16663e-08
3.16153e-08
3.15366e-08
3.14868e-08
3.14089e-08
3.13575e-08
3.12723e-08
3.15941e-08
3.95079e-06
3.45537e-08
1.24154e-07
1.23557e-07
1.22157e-07
1.19018e-07
1.14241e-07
1.0847e-07
1.02349e-07
9.63379e-08
9.06803e-08
8.54957e-08
8.07989e-08
7.6588e-08
7.28093e-08
6.9438e-08
6.64099e-08
6.37052e-08
6.12627e-08
5.90743e-08
5.70838e-08
5.5295e-08
5.36554e-08
5.21777e-08
5.08123e-08
4.95798e-08
4.84308e-08
4.73931e-08
4.64163e-08
4.55355e-08
4.46983e-08
4.39444e-08
4.32206e-08
4.25717e-08
4.19417e-08
4.13792e-08
4.08267e-08
4.0337e-08
3.98494e-08
3.94208e-08
3.89884e-08
3.86122e-08
3.82268e-08
3.78952e-08
3.75502e-08
3.72564e-08
3.69457e-08
3.66855e-08
3.64049e-08
3.61732e-08
3.59183e-08
3.57131e-08
3.54804e-08
3.5297e-08
3.50849e-08
3.49211e-08
3.47283e-08
3.45797e-08
3.44026e-08
3.42714e-08
3.41071e-08
3.39901e-08
3.38398e-08
3.37331e-08
3.35945e-08
3.34975e-08
3.33705e-08
3.3281e-08
3.31659e-08
3.30831e-08
3.29756e-08
3.28997e-08
3.28007e-08
3.27321e-08
3.26418e-08
3.25806e-08
3.24946e-08
3.24356e-08
3.23512e-08
3.22939e-08
3.22106e-08
3.21547e-08
3.20721e-08
3.20166e-08
3.19346e-08
3.18793e-08
3.17993e-08
3.17454e-08
3.16662e-08
3.16151e-08
3.15363e-08
3.14865e-08
3.14086e-08
3.13572e-08
3.12719e-08
3.15945e-08
3.93859e-06
3.49616e-08
1.24154e-07
1.23556e-07
1.22159e-07
1.19027e-07
1.14257e-07
1.08492e-07
1.02376e-07
9.63673e-08
9.0711e-08
8.55266e-08
8.08294e-08
7.66176e-08
7.28378e-08
6.94651e-08
6.64357e-08
6.37296e-08
6.12857e-08
5.9096e-08
5.71043e-08
5.53143e-08
5.36735e-08
5.21948e-08
5.08284e-08
4.95949e-08
4.84451e-08
4.74065e-08
4.64291e-08
4.55475e-08
4.47096e-08
4.39551e-08
4.32308e-08
4.25813e-08
4.19507e-08
4.13878e-08
4.08348e-08
4.03446e-08
3.98567e-08
3.94277e-08
3.8995e-08
3.86184e-08
3.82327e-08
3.79008e-08
3.75555e-08
3.72614e-08
3.69504e-08
3.669e-08
3.64091e-08
3.61773e-08
3.59221e-08
3.57167e-08
3.54838e-08
3.53002e-08
3.50879e-08
3.49239e-08
3.4731e-08
3.45822e-08
3.4405e-08
3.42736e-08
3.41092e-08
3.39921e-08
3.38416e-08
3.37348e-08
3.35961e-08
3.3499e-08
3.33719e-08
3.32823e-08
3.3167e-08
3.30842e-08
3.29766e-08
3.29007e-08
3.28015e-08
3.27329e-08
3.26424e-08
3.25812e-08
3.24951e-08
3.2436e-08
3.23515e-08
3.22942e-08
3.22109e-08
3.21549e-08
3.20722e-08
3.20167e-08
3.19346e-08
3.18793e-08
3.17992e-08
3.17454e-08
3.1666e-08
3.16149e-08
3.1536e-08
3.14862e-08
3.14081e-08
3.13568e-08
3.12715e-08
3.15951e-08
3.92295e-06
3.53967e-08
1.24153e-07
1.23555e-07
1.22162e-07
1.19037e-07
1.14276e-07
1.08519e-07
1.02408e-07
9.64036e-08
9.07489e-08
8.55648e-08
8.08671e-08
7.66542e-08
7.28729e-08
6.94986e-08
6.64675e-08
6.37597e-08
6.13141e-08
5.91228e-08
5.71295e-08
5.5338e-08
5.36959e-08
5.22158e-08
5.08483e-08
4.96136e-08
4.84628e-08
4.74232e-08
4.64448e-08
4.55623e-08
4.47236e-08
4.39684e-08
4.32433e-08
4.25931e-08
4.19619e-08
4.13984e-08
4.08448e-08
4.03542e-08
3.98657e-08
3.94362e-08
3.90031e-08
3.8626e-08
3.824e-08
3.79077e-08
3.7562e-08
3.72676e-08
3.69563e-08
3.66955e-08
3.64144e-08
3.61823e-08
3.59269e-08
3.57212e-08
3.54881e-08
3.53042e-08
3.50917e-08
3.49275e-08
3.47343e-08
3.45854e-08
3.4408e-08
3.42765e-08
3.41118e-08
3.39946e-08
3.38439e-08
3.3737e-08
3.35981e-08
3.35009e-08
3.33736e-08
3.32839e-08
3.31685e-08
3.30856e-08
3.29779e-08
3.29019e-08
3.28025e-08
3.27339e-08
3.26433e-08
3.2582e-08
3.24958e-08
3.24366e-08
3.2352e-08
3.22947e-08
3.22112e-08
3.21552e-08
3.20724e-08
3.20169e-08
3.19347e-08
3.18794e-08
3.17992e-08
3.17453e-08
3.16658e-08
3.16147e-08
3.15357e-08
3.14859e-08
3.14077e-08
3.13563e-08
3.12709e-08
3.15959e-08
3.90393e-06
3.58585e-08
1.24153e-07
1.23554e-07
1.22165e-07
1.19049e-07
1.14299e-07
1.08552e-07
1.02448e-07
9.64468e-08
9.07941e-08
8.56104e-08
8.09121e-08
7.66978e-08
7.29149e-08
6.95386e-08
6.65055e-08
6.37957e-08
6.13481e-08
5.91548e-08
5.71598e-08
5.53665e-08
5.37227e-08
5.22411e-08
5.08721e-08
4.96361e-08
4.84839e-08
4.74431e-08
4.64636e-08
4.55801e-08
4.47405e-08
4.39842e-08
4.32583e-08
4.26073e-08
4.19754e-08
4.14112e-08
4.08569e-08
4.03656e-08
3.98765e-08
3.94465e-08
3.90128e-08
3.86353e-08
3.82487e-08
3.7916e-08
3.75699e-08
3.72751e-08
3.69633e-08
3.67022e-08
3.64207e-08
3.61883e-08
3.59326e-08
3.57266e-08
3.54932e-08
3.5309e-08
3.50963e-08
3.49318e-08
3.47384e-08
3.45893e-08
3.44116e-08
3.42799e-08
3.4115e-08
3.39976e-08
3.38467e-08
3.37396e-08
3.36006e-08
3.35032e-08
3.33758e-08
3.32859e-08
3.31704e-08
3.30873e-08
3.29795e-08
3.29033e-08
3.28038e-08
3.27351e-08
3.26443e-08
3.25829e-08
3.24966e-08
3.24374e-08
3.23527e-08
3.22952e-08
3.22116e-08
3.21556e-08
3.20727e-08
3.20171e-08
3.19348e-08
3.18796e-08
3.17991e-08
3.17452e-08
3.16656e-08
3.16145e-08
3.15353e-08
3.14855e-08
3.14072e-08
3.13558e-08
3.12703e-08
3.1597e-08
3.88163e-06
3.63505e-08
1.24152e-07
1.23552e-07
1.22168e-07
1.19064e-07
1.14326e-07
1.08589e-07
1.02493e-07
9.64971e-08
9.08468e-08
8.56635e-08
8.09645e-08
7.67488e-08
7.29639e-08
6.95853e-08
6.65499e-08
6.38377e-08
6.13878e-08
5.91922e-08
5.71951e-08
5.53997e-08
5.37541e-08
5.22706e-08
5.08999e-08
4.96623e-08
4.85087e-08
4.74665e-08
4.64856e-08
4.56009e-08
4.47601e-08
4.40028e-08
4.32759e-08
4.2624e-08
4.19911e-08
4.14261e-08
4.0871e-08
4.0379e-08
3.98892e-08
3.94585e-08
3.90242e-08
3.86461e-08
3.8259e-08
3.79257e-08
3.75791e-08
3.72839e-08
3.69716e-08
3.67101e-08
3.64282e-08
3.61954e-08
3.59392e-08
3.57329e-08
3.54992e-08
3.53147e-08
3.51016e-08
3.49369e-08
3.47432e-08
3.45938e-08
3.44158e-08
3.42839e-08
3.41188e-08
3.40012e-08
3.38501e-08
3.37428e-08
3.36035e-08
3.3506e-08
3.33783e-08
3.32883e-08
3.31725e-08
3.30894e-08
3.29813e-08
3.29051e-08
3.28054e-08
3.27365e-08
3.26456e-08
3.25841e-08
3.24976e-08
3.24383e-08
3.23534e-08
3.22959e-08
3.22122e-08
3.2156e-08
3.20731e-08
3.20175e-08
3.1935e-08
3.18798e-08
3.17991e-08
3.17452e-08
3.16655e-08
3.16143e-08
3.1535e-08
3.14851e-08
3.14066e-08
3.13553e-08
3.12697e-08
3.15982e-08
3.85616e-06
3.68787e-08
1.24151e-07
1.2355e-07
1.22172e-07
1.1908e-07
1.14357e-07
1.08632e-07
1.02545e-07
9.65546e-08
9.0907e-08
8.57244e-08
8.10246e-08
7.68071e-08
7.302e-08
6.96389e-08
6.66009e-08
6.38858e-08
6.14334e-08
5.92352e-08
5.72356e-08
5.54379e-08
5.37901e-08
5.23045e-08
5.09319e-08
4.96924e-08
4.85371e-08
4.74933e-08
4.6511e-08
4.56248e-08
4.47827e-08
4.40242e-08
4.32961e-08
4.26431e-08
4.20092e-08
4.14432e-08
4.08873e-08
4.03944e-08
3.99038e-08
3.94724e-08
3.90373e-08
3.86585e-08
3.82708e-08
3.79369e-08
3.75897e-08
3.7294e-08
3.69812e-08
3.67192e-08
3.64368e-08
3.62036e-08
3.5947e-08
3.57403e-08
3.55061e-08
3.53213e-08
3.51078e-08
3.49428e-08
3.47487e-08
3.45991e-08
3.44208e-08
3.42886e-08
3.41232e-08
3.40053e-08
3.38539e-08
3.37464e-08
3.36069e-08
3.35092e-08
3.33813e-08
3.3291e-08
3.31751e-08
3.30918e-08
3.29835e-08
3.29071e-08
3.28072e-08
3.27382e-08
3.26471e-08
3.25855e-08
3.24988e-08
3.24395e-08
3.23544e-08
3.22968e-08
3.22128e-08
3.21566e-08
3.20735e-08
3.20179e-08
3.19352e-08
3.18801e-08
3.17992e-08
3.17453e-08
3.16653e-08
3.16141e-08
3.15346e-08
3.14847e-08
3.1406e-08
3.13547e-08
3.1269e-08
3.15998e-08
3.82765e-06
3.74516e-08
1.24151e-07
1.23548e-07
1.22176e-07
1.19098e-07
1.14391e-07
1.08681e-07
1.02604e-07
9.66194e-08
9.09749e-08
8.5793e-08
8.10925e-08
7.6873e-08
7.30835e-08
6.96995e-08
6.66585e-08
6.39404e-08
6.1485e-08
5.92838e-08
5.72815e-08
5.54811e-08
5.38308e-08
5.23429e-08
5.09681e-08
4.97265e-08
4.85693e-08
4.75237e-08
4.65397e-08
4.5652e-08
4.48084e-08
4.40484e-08
4.33191e-08
4.26648e-08
4.20298e-08
4.14627e-08
4.09058e-08
4.04119e-08
3.99204e-08
3.94881e-08
3.90523e-08
3.86727e-08
3.82842e-08
3.79497e-08
3.76018e-08
3.73055e-08
3.69921e-08
3.67296e-08
3.64466e-08
3.62129e-08
3.59558e-08
3.57486e-08
3.5514e-08
3.53289e-08
3.51149e-08
3.49496e-08
3.47551e-08
3.46051e-08
3.44264e-08
3.4294e-08
3.41282e-08
3.401e-08
3.38584e-08
3.37506e-08
3.36108e-08
3.35128e-08
3.33847e-08
3.32942e-08
3.3178e-08
3.30946e-08
3.29861e-08
3.29095e-08
3.28094e-08
3.27402e-08
3.26489e-08
3.25872e-08
3.25003e-08
3.24408e-08
3.23555e-08
3.22978e-08
3.22137e-08
3.21574e-08
3.20741e-08
3.20184e-08
3.19356e-08
3.18804e-08
3.17993e-08
3.17454e-08
3.16652e-08
3.16139e-08
3.15342e-08
3.14843e-08
3.14053e-08
3.13541e-08
3.12682e-08
3.16016e-08
3.79622e-06
3.80789e-08
1.2415e-07
1.23545e-07
1.22181e-07
1.19118e-07
1.14429e-07
1.08734e-07
1.02669e-07
9.66917e-08
9.10508e-08
8.58697e-08
8.11683e-08
7.69467e-08
7.31544e-08
6.97672e-08
6.67229e-08
6.40014e-08
6.15427e-08
5.93383e-08
5.73329e-08
5.55296e-08
5.38765e-08
5.23859e-08
5.10087e-08
4.97648e-08
4.86054e-08
4.75578e-08
4.65719e-08
4.56824e-08
4.48372e-08
4.40757e-08
4.33448e-08
4.26892e-08
4.20529e-08
4.14846e-08
4.09265e-08
4.04316e-08
3.99391e-08
3.95058e-08
3.90691e-08
3.86887e-08
3.82993e-08
3.79641e-08
3.76154e-08
3.73184e-08
3.70044e-08
3.67412e-08
3.64576e-08
3.62234e-08
3.59657e-08
3.57581e-08
3.5523e-08
3.53373e-08
3.5123e-08
3.49572e-08
3.47622e-08
3.4612e-08
3.44328e-08
3.43e-08
3.41339e-08
3.40154e-08
3.38634e-08
3.37553e-08
3.36152e-08
3.3517e-08
3.33886e-08
3.32979e-08
3.31814e-08
3.30978e-08
3.2989e-08
3.29122e-08
3.28119e-08
3.27425e-08
3.2651e-08
3.25891e-08
3.2502e-08
3.24423e-08
3.23568e-08
3.2299e-08
3.22146e-08
3.21582e-08
3.20748e-08
3.20191e-08
3.1936e-08
3.18809e-08
3.17995e-08
3.17455e-08
3.16651e-08
3.16138e-08
3.15339e-08
3.14839e-08
3.14047e-08
3.13534e-08
3.12675e-08
3.16037e-08
3.76203e-06
3.87714e-08
1.24149e-07
1.23543e-07
1.22186e-07
1.1914e-07
1.14471e-07
1.08793e-07
1.02741e-07
9.67715e-08
9.11346e-08
8.59545e-08
8.12522e-08
7.70283e-08
7.32331e-08
6.98423e-08
6.67944e-08
6.40691e-08
6.16068e-08
5.93988e-08
5.739e-08
5.55833e-08
5.39272e-08
5.24337e-08
5.10538e-08
4.98074e-08
4.86456e-08
4.75957e-08
4.66078e-08
4.57162e-08
4.48692e-08
4.41059e-08
4.33735e-08
4.27163e-08
4.20786e-08
4.1509e-08
4.09496e-08
4.04535e-08
3.99599e-08
3.95256e-08
3.90878e-08
3.87064e-08
3.83162e-08
3.79801e-08
3.76306e-08
3.73328e-08
3.70181e-08
3.67542e-08
3.64699e-08
3.62351e-08
3.59768e-08
3.57686e-08
3.5533e-08
3.53468e-08
3.51319e-08
3.49657e-08
3.47703e-08
3.46196e-08
3.444e-08
3.43068e-08
3.41403e-08
3.40215e-08
3.38691e-08
3.37607e-08
3.36202e-08
3.35217e-08
3.3393e-08
3.3302e-08
3.31852e-08
3.31014e-08
3.29923e-08
3.29153e-08
3.28147e-08
3.27452e-08
3.26533e-08
3.25913e-08
3.25039e-08
3.24441e-08
3.23584e-08
3.23004e-08
3.22158e-08
3.21593e-08
3.20756e-08
3.20199e-08
3.19366e-08
3.18815e-08
3.17997e-08
3.17458e-08
3.16651e-08
3.16137e-08
3.15336e-08
3.14835e-08
3.1404e-08
3.13528e-08
3.12667e-08
3.16062e-08
3.72519e-06
3.95404e-08
1.24147e-07
1.2354e-07
1.22192e-07
1.19164e-07
1.14517e-07
1.08858e-07
1.0282e-07
9.68589e-08
9.12265e-08
8.60476e-08
8.13443e-08
7.7118e-08
7.33195e-08
6.9925e-08
6.68731e-08
6.41436e-08
6.16773e-08
5.94654e-08
5.74529e-08
5.56426e-08
5.39832e-08
5.24865e-08
5.11036e-08
4.98543e-08
4.86899e-08
4.76375e-08
4.66473e-08
4.57536e-08
4.49045e-08
4.41394e-08
4.34052e-08
4.27463e-08
4.21071e-08
4.15359e-08
4.09752e-08
4.04777e-08
3.99828e-08
3.95474e-08
3.91085e-08
3.87261e-08
3.83349e-08
3.79978e-08
3.76475e-08
3.73489e-08
3.70332e-08
3.67687e-08
3.64836e-08
3.62481e-08
3.59892e-08
3.57804e-08
3.55441e-08
3.53574e-08
3.51419e-08
3.49752e-08
3.47792e-08
3.46281e-08
3.4448e-08
3.43144e-08
3.41474e-08
3.40282e-08
3.38754e-08
3.37667e-08
3.36258e-08
3.3527e-08
3.33979e-08
3.33067e-08
3.31895e-08
3.31054e-08
3.2996e-08
3.29189e-08
3.28179e-08
3.27482e-08
3.2656e-08
3.25938e-08
3.25061e-08
3.24462e-08
3.23602e-08
3.23021e-08
3.22172e-08
3.21605e-08
3.20766e-08
3.20208e-08
3.19373e-08
3.18822e-08
3.18001e-08
3.17462e-08
3.16652e-08
3.16138e-08
3.15333e-08
3.14832e-08
3.14034e-08
3.13522e-08
3.12659e-08
3.1609e-08
3.68582e-06
4.03975e-08
1.24146e-07
1.23536e-07
1.22198e-07
1.1919e-07
1.14566e-07
1.08928e-07
1.02905e-07
9.69542e-08
9.13267e-08
8.61491e-08
8.1445e-08
7.7216e-08
7.34141e-08
7.00154e-08
6.69591e-08
6.42252e-08
6.17546e-08
5.95383e-08
5.75218e-08
5.57076e-08
5.40445e-08
5.25443e-08
5.11581e-08
4.99057e-08
4.87386e-08
4.76834e-08
4.66907e-08
4.57946e-08
4.49434e-08
4.41761e-08
4.344e-08
4.27793e-08
4.21383e-08
4.15655e-08
4.10032e-08
4.05044e-08
4.00081e-08
3.95714e-08
3.91313e-08
3.87478e-08
3.83554e-08
3.80174e-08
3.7666e-08
3.73665e-08
3.705e-08
3.67846e-08
3.64987e-08
3.62625e-08
3.60028e-08
3.57933e-08
3.55563e-08
3.53691e-08
3.5153e-08
3.49856e-08
3.47891e-08
3.46376e-08
3.44569e-08
3.43229e-08
3.41554e-08
3.40357e-08
3.38824e-08
3.37734e-08
3.36321e-08
3.35329e-08
3.34034e-08
3.33119e-08
3.31943e-08
3.311e-08
3.30002e-08
3.29228e-08
3.28215e-08
3.27516e-08
3.2659e-08
3.25966e-08
3.25087e-08
3.24486e-08
3.23622e-08
3.2304e-08
3.22188e-08
3.2162e-08
3.20778e-08
3.2022e-08
3.19382e-08
3.18831e-08
3.18006e-08
3.17467e-08
3.16653e-08
3.16139e-08
3.15331e-08
3.1483e-08
3.14028e-08
3.13516e-08
3.12652e-08
3.16122e-08
3.644e-06
4.1354e-08
1.24145e-07
1.23533e-07
1.22204e-07
1.19217e-07
1.14619e-07
1.09004e-07
1.02998e-07
9.70573e-08
9.14353e-08
8.62593e-08
8.15542e-08
7.73225e-08
7.35168e-08
7.01136e-08
6.70528e-08
6.4314e-08
6.18387e-08
5.96177e-08
5.75968e-08
5.57783e-08
5.41113e-08
5.26073e-08
5.12177e-08
4.99619e-08
4.87916e-08
4.77335e-08
4.67381e-08
4.58394e-08
4.49858e-08
4.42162e-08
4.3478e-08
4.28153e-08
4.21724e-08
4.15979e-08
4.1034e-08
4.05335e-08
4.00358e-08
3.95977e-08
3.91562e-08
3.87715e-08
3.83779e-08
3.80388e-08
3.76863e-08
3.73858e-08
3.70683e-08
3.68021e-08
3.65153e-08
3.62783e-08
3.60177e-08
3.58076e-08
3.55698e-08
3.53819e-08
3.51651e-08
3.49972e-08
3.48e-08
3.4648e-08
3.44667e-08
3.43322e-08
3.41641e-08
3.4044e-08
3.38902e-08
3.37808e-08
3.3639e-08
3.35395e-08
3.34096e-08
3.33177e-08
3.31997e-08
3.31151e-08
3.30049e-08
3.29273e-08
3.28255e-08
3.27554e-08
3.26625e-08
3.25999e-08
3.25116e-08
3.24513e-08
3.23646e-08
3.23062e-08
3.22206e-08
3.21637e-08
3.20792e-08
3.20234e-08
3.19393e-08
3.18842e-08
3.18013e-08
3.17473e-08
3.16656e-08
3.16141e-08
3.1533e-08
3.14828e-08
3.14023e-08
3.13511e-08
3.12645e-08
3.16157e-08
3.59977e-06
4.24207e-08
1.24144e-07
1.23529e-07
1.22211e-07
1.19247e-07
1.14676e-07
1.09086e-07
1.03098e-07
9.71684e-08
9.15525e-08
8.63783e-08
8.16723e-08
7.74376e-08
7.3628e-08
7.022e-08
6.71542e-08
6.44102e-08
6.19298e-08
5.97038e-08
5.76782e-08
5.58551e-08
5.41839e-08
5.26757e-08
5.12823e-08
5.00229e-08
4.88492e-08
4.7788e-08
4.67896e-08
4.58881e-08
4.50319e-08
4.42599e-08
4.35194e-08
4.28545e-08
4.22096e-08
4.16331e-08
4.10674e-08
4.05653e-08
4.0066e-08
3.96263e-08
3.91834e-08
3.87973e-08
3.84025e-08
3.80621e-08
3.77085e-08
3.7407e-08
3.70884e-08
3.68212e-08
3.65334e-08
3.62956e-08
3.60341e-08
3.58232e-08
3.55846e-08
3.5396e-08
3.51784e-08
3.50099e-08
3.4812e-08
3.46594e-08
3.44774e-08
3.43424e-08
3.41738e-08
3.40532e-08
3.38989e-08
3.3789e-08
3.36467e-08
3.35468e-08
3.34164e-08
3.33241e-08
3.32056e-08
3.31207e-08
3.30101e-08
3.29322e-08
3.28301e-08
3.27597e-08
3.26664e-08
3.26035e-08
3.25148e-08
3.24544e-08
3.23673e-08
3.23087e-08
3.22228e-08
3.21657e-08
3.20809e-08
3.2025e-08
3.19406e-08
3.18854e-08
3.18022e-08
3.17482e-08
3.16661e-08
3.16145e-08
3.1533e-08
3.14828e-08
3.14018e-08
3.13507e-08
3.12639e-08
3.16197e-08
3.55314e-06
4.36081e-08
1.24142e-07
1.23525e-07
1.22218e-07
1.19278e-07
1.14737e-07
1.09173e-07
1.03204e-07
9.72875e-08
9.16783e-08
8.65062e-08
8.17993e-08
7.75616e-08
7.37478e-08
7.03347e-08
6.72636e-08
6.4514e-08
6.20282e-08
5.97969e-08
5.77662e-08
5.59381e-08
5.42623e-08
5.27497e-08
5.13522e-08
5.00888e-08
4.89116e-08
4.78469e-08
4.68454e-08
4.59408e-08
4.50818e-08
4.43072e-08
4.35642e-08
4.2897e-08
4.22499e-08
4.16714e-08
4.11037e-08
4.05997e-08
4.00987e-08
3.96574e-08
3.9213e-08
3.88254e-08
3.84292e-08
3.80875e-08
3.77327e-08
3.743e-08
3.71102e-08
3.6842e-08
3.65532e-08
3.63144e-08
3.6052e-08
3.58402e-08
3.56008e-08
3.54114e-08
3.5193e-08
3.50237e-08
3.48252e-08
3.46719e-08
3.44892e-08
3.43537e-08
3.41844e-08
3.40632e-08
3.39083e-08
3.37979e-08
3.36552e-08
3.35548e-08
3.34239e-08
3.33312e-08
3.32123e-08
3.3127e-08
3.3016e-08
3.29378e-08
3.28351e-08
3.27644e-08
3.26707e-08
3.26077e-08
3.25185e-08
3.24579e-08
3.23704e-08
3.23116e-08
3.22253e-08
3.21681e-08
3.20828e-08
3.20268e-08
3.19421e-08
3.1887e-08
3.18032e-08
3.17493e-08
3.16667e-08
3.16151e-08
3.15332e-08
3.14829e-08
3.14015e-08
3.13504e-08
3.12634e-08
3.16242e-08
3.50405e-06
4.49256e-08
1.24141e-07
1.2352e-07
1.22225e-07
1.19311e-07
1.14801e-07
1.09265e-07
1.03318e-07
9.74149e-08
9.1813e-08
8.66432e-08
8.19356e-08
7.76946e-08
7.38764e-08
7.0458e-08
6.73812e-08
6.46257e-08
6.21341e-08
5.9897e-08
5.78609e-08
5.60275e-08
5.43467e-08
5.28294e-08
5.14275e-08
5.016e-08
4.89789e-08
4.79105e-08
4.69056e-08
4.59978e-08
4.51358e-08
4.43583e-08
4.36126e-08
4.29429e-08
4.22935e-08
4.17127e-08
4.1143e-08
4.0637e-08
4.01341e-08
3.96911e-08
3.9245e-08
3.88559e-08
3.84581e-08
3.81151e-08
3.77589e-08
3.74549e-08
3.71339e-08
3.68646e-08
3.65746e-08
3.63349e-08
3.60714e-08
3.58587e-08
3.56183e-08
3.54281e-08
3.52089e-08
3.50389e-08
3.48395e-08
3.46856e-08
3.45021e-08
3.4366e-08
3.4196e-08
3.40742e-08
3.39187e-08
3.38078e-08
3.36645e-08
3.35636e-08
3.34322e-08
3.3339e-08
3.32196e-08
3.3134e-08
3.30224e-08
3.29439e-08
3.28408e-08
3.27698e-08
3.26756e-08
3.26123e-08
3.25227e-08
3.24618e-08
3.23739e-08
3.23149e-08
3.22282e-08
3.21708e-08
3.20851e-08
3.2029e-08
3.1944e-08
3.18888e-08
3.18046e-08
3.17507e-08
3.16676e-08
3.16159e-08
3.15336e-08
3.14832e-08
3.14014e-08
3.13503e-08
3.12631e-08
3.1629e-08
3.45238e-06
4.63814e-08
1.24139e-07
1.23516e-07
1.22232e-07
1.19346e-07
1.1487e-07
1.09363e-07
1.03439e-07
9.75505e-08
9.19566e-08
8.67895e-08
8.20811e-08
7.78369e-08
7.40141e-08
7.05899e-08
6.75072e-08
6.47454e-08
6.22477e-08
6.00044e-08
5.79625e-08
5.61235e-08
5.44375e-08
5.2915e-08
5.15085e-08
5.02365e-08
4.90513e-08
4.79789e-08
4.69703e-08
4.6059e-08
4.51938e-08
4.44133e-08
4.36648e-08
4.29923e-08
4.23404e-08
4.17573e-08
4.11853e-08
4.06773e-08
4.01724e-08
3.97275e-08
3.92796e-08
3.88888e-08
3.84894e-08
3.81449e-08
3.77872e-08
3.74819e-08
3.71596e-08
3.6889e-08
3.65979e-08
3.6357e-08
3.60924e-08
3.58788e-08
3.56374e-08
3.54463e-08
3.52262e-08
3.50553e-08
3.48551e-08
3.47005e-08
3.45162e-08
3.43794e-08
3.42086e-08
3.40863e-08
3.39301e-08
3.38186e-08
3.36747e-08
3.35733e-08
3.34413e-08
3.33477e-08
3.32276e-08
3.31417e-08
3.30296e-08
3.29507e-08
3.28471e-08
3.27758e-08
3.26811e-08
3.26175e-08
3.25274e-08
3.24663e-08
3.2378e-08
3.23187e-08
3.22316e-08
3.21739e-08
3.20878e-08
3.20316e-08
3.19462e-08
3.18909e-08
3.18063e-08
3.17524e-08
3.16687e-08
3.16169e-08
3.15342e-08
3.14837e-08
3.14014e-08
3.13503e-08
3.1263e-08
3.16343e-08
3.39797e-06
4.79829e-08
1.24138e-07
1.23511e-07
1.2224e-07
1.19383e-07
1.14942e-07
1.09467e-07
1.03567e-07
9.76944e-08
9.21093e-08
8.69452e-08
8.22363e-08
7.79887e-08
7.4161e-08
7.07309e-08
6.76419e-08
6.48733e-08
6.23692e-08
6.01193e-08
5.80713e-08
5.62263e-08
5.45347e-08
5.30068e-08
5.15953e-08
5.03185e-08
4.91289e-08
4.80523e-08
4.70398e-08
4.61248e-08
4.52562e-08
4.44724e-08
4.37209e-08
4.30455e-08
4.23909e-08
4.18053e-08
4.12309e-08
4.07206e-08
4.02135e-08
3.97666e-08
3.93168e-08
3.89242e-08
3.85232e-08
3.8177e-08
3.78178e-08
3.7511e-08
3.71873e-08
3.69155e-08
3.6623e-08
3.6381e-08
3.61152e-08
3.59006e-08
3.56581e-08
3.54661e-08
3.52449e-08
3.50732e-08
3.4872e-08
3.47167e-08
3.45315e-08
3.4394e-08
3.42225e-08
3.40994e-08
3.39425e-08
3.38305e-08
3.36858e-08
3.35839e-08
3.34513e-08
3.33572e-08
3.32365e-08
3.31501e-08
3.30375e-08
3.29582e-08
3.2854e-08
3.27824e-08
3.26872e-08
3.26233e-08
3.25327e-08
3.24713e-08
3.23825e-08
3.2323e-08
3.22354e-08
3.21775e-08
3.20909e-08
3.20345e-08
3.19487e-08
3.18935e-08
3.18083e-08
3.17545e-08
3.16702e-08
3.16183e-08
3.15351e-08
3.14845e-08
3.14017e-08
3.13506e-08
3.1263e-08
3.16401e-08
3.34059e-06
4.9736e-08
1.24136e-07
1.23505e-07
1.22248e-07
1.19421e-07
1.15017e-07
1.09577e-07
1.03703e-07
9.78469e-08
9.22712e-08
8.71106e-08
8.24011e-08
7.81501e-08
7.43174e-08
7.0881e-08
6.77854e-08
6.50098e-08
6.24988e-08
6.0242e-08
5.81875e-08
5.63361e-08
5.46386e-08
5.3105e-08
5.16882e-08
5.04062e-08
4.92119e-08
4.81308e-08
4.71143e-08
4.61953e-08
4.5323e-08
4.45357e-08
4.3781e-08
4.31026e-08
4.24451e-08
4.18567e-08
4.12798e-08
4.07671e-08
4.02578e-08
3.98087e-08
3.93569e-08
3.89624e-08
3.85594e-08
3.82116e-08
3.78507e-08
3.75424e-08
3.72172e-08
3.6944e-08
3.66502e-08
3.64069e-08
3.61399e-08
3.59241e-08
3.56804e-08
3.54874e-08
3.52652e-08
3.50925e-08
3.48904e-08
3.47342e-08
3.45481e-08
3.44099e-08
3.42375e-08
3.41138e-08
3.39561e-08
3.38434e-08
3.3698e-08
3.35955e-08
3.34622e-08
3.33676e-08
3.32463e-08
3.31595e-08
3.30462e-08
3.29666e-08
3.28618e-08
3.27897e-08
3.2694e-08
3.26297e-08
3.25387e-08
3.24769e-08
3.23876e-08
3.23279e-08
3.22397e-08
3.21816e-08
3.20945e-08
3.2038e-08
3.19517e-08
3.18964e-08
3.18107e-08
3.17569e-08
3.1672e-08
3.16201e-08
3.15363e-08
3.14857e-08
3.14022e-08
3.13512e-08
3.12634e-08
3.16463e-08
3.27995e-06
5.16439e-08
1.24134e-07
1.235e-07
1.22256e-07
1.1946e-07
1.15096e-07
1.09692e-07
1.03846e-07
9.80078e-08
9.24424e-08
8.72856e-08
8.25759e-08
7.83214e-08
7.44836e-08
7.10406e-08
6.7938e-08
6.5155e-08
6.26368e-08
6.03727e-08
5.83113e-08
5.64532e-08
5.47494e-08
5.32097e-08
5.17873e-08
5.04999e-08
4.93007e-08
4.82148e-08
4.71938e-08
4.62706e-08
4.53945e-08
4.46035e-08
4.38453e-08
4.31636e-08
4.25031e-08
4.19118e-08
4.13322e-08
4.08169e-08
4.03052e-08
3.98539e-08
3.93999e-08
3.90033e-08
3.85984e-08
3.82487e-08
3.78861e-08
3.75762e-08
3.72494e-08
3.69747e-08
3.66794e-08
3.64349e-08
3.61664e-08
3.59494e-08
3.57046e-08
3.55105e-08
3.52871e-08
3.51135e-08
3.49103e-08
3.47533e-08
3.45661e-08
3.44271e-08
3.42538e-08
3.41293e-08
3.39708e-08
3.38575e-08
3.37113e-08
3.36082e-08
3.34742e-08
3.3379e-08
3.3257e-08
3.31697e-08
3.30558e-08
3.29758e-08
3.28703e-08
3.27979e-08
3.27015e-08
3.26369e-08
3.25453e-08
3.24833e-08
3.23934e-08
3.23334e-08
3.22447e-08
3.21863e-08
3.20986e-08
3.20419e-08
3.19552e-08
3.18998e-08
3.18135e-08
3.17598e-08
3.16742e-08
3.16222e-08
3.15379e-08
3.14872e-08
3.14031e-08
3.13521e-08
3.12641e-08
3.1653e-08
3.21572e-06
5.37077e-08
1.24133e-07
1.23494e-07
1.22264e-07
1.19502e-07
1.15179e-07
1.09813e-07
1.03996e-07
9.81774e-08
9.26231e-08
8.74706e-08
8.27608e-08
7.85028e-08
7.46596e-08
7.12099e-08
6.81e-08
6.53093e-08
6.27834e-08
6.05117e-08
5.8443e-08
5.65777e-08
5.48673e-08
5.33212e-08
5.18929e-08
5.05998e-08
4.93953e-08
4.83043e-08
4.72787e-08
4.6351e-08
4.54708e-08
4.46758e-08
4.39141e-08
4.32289e-08
4.25652e-08
4.19708e-08
4.13883e-08
4.08703e-08
4.0356e-08
3.99023e-08
3.94459e-08
3.90472e-08
3.86402e-08
3.82886e-08
3.7924e-08
3.76125e-08
3.72839e-08
3.70077e-08
3.67108e-08
3.64649e-08
3.6195e-08
3.59768e-08
3.57306e-08
3.55354e-08
3.53108e-08
3.51361e-08
3.49318e-08
3.47739e-08
3.45857e-08
3.44458e-08
3.42716e-08
3.41463e-08
3.39869e-08
3.38728e-08
3.37259e-08
3.3622e-08
3.34873e-08
3.33915e-08
3.32688e-08
3.3181e-08
3.30664e-08
3.29859e-08
3.28797e-08
3.28069e-08
3.27099e-08
3.2645e-08
3.25527e-08
3.24903e-08
3.23999e-08
3.23396e-08
3.22503e-08
3.21916e-08
3.21034e-08
3.20465e-08
3.19593e-08
3.19038e-08
3.18169e-08
3.17632e-08
3.16769e-08
3.16249e-08
3.154e-08
3.14891e-08
3.14044e-08
3.13534e-08
3.12651e-08
3.16601e-08
3.14754e-06
5.59256e-08
1.24131e-07
1.23488e-07
1.22272e-07
1.19545e-07
1.15265e-07
1.09939e-07
1.04153e-07
9.83556e-08
9.28133e-08
8.76657e-08
8.2956e-08
7.86945e-08
7.48459e-08
7.13891e-08
6.82717e-08
6.54727e-08
6.29389e-08
6.06591e-08
5.85829e-08
5.67101e-08
5.49927e-08
5.34397e-08
5.20051e-08
5.0706e-08
4.94959e-08
4.83996e-08
4.73691e-08
4.64367e-08
4.55521e-08
4.4753e-08
4.39874e-08
4.32985e-08
4.26314e-08
4.20338e-08
4.14482e-08
4.09273e-08
4.04103e-08
3.9954e-08
3.94952e-08
3.90942e-08
3.8685e-08
3.83313e-08
3.79648e-08
3.76514e-08
3.7321e-08
3.70431e-08
3.67446e-08
3.64972e-08
3.62258e-08
3.60062e-08
3.57587e-08
3.55622e-08
3.53363e-08
3.51605e-08
3.4955e-08
3.47962e-08
3.46068e-08
3.44661e-08
3.42908e-08
3.41646e-08
3.40043e-08
3.38895e-08
3.37417e-08
3.36372e-08
3.35016e-08
3.34052e-08
3.32816e-08
3.31934e-08
3.3078e-08
3.2997e-08
3.28902e-08
3.28169e-08
3.27192e-08
3.26539e-08
3.2561e-08
3.24982e-08
3.24071e-08
3.23465e-08
3.22566e-08
3.21977e-08
3.21088e-08
3.20517e-08
3.19639e-08
3.19083e-08
3.18208e-08
3.17671e-08
3.16801e-08
3.1628e-08
3.15425e-08
3.14916e-08
3.14061e-08
3.13552e-08
3.12666e-08
3.16676e-08
3.07499e-06
5.82924e-08
1.24129e-07
1.23481e-07
1.22281e-07
1.19589e-07
1.15355e-07
1.10071e-07
1.04318e-07
9.85425e-08
9.30132e-08
8.7871e-08
8.31618e-08
7.88967e-08
7.50426e-08
7.15785e-08
6.84532e-08
6.56458e-08
6.31036e-08
6.08154e-08
5.87311e-08
5.68504e-08
5.51257e-08
5.35656e-08
5.21244e-08
5.08189e-08
4.96029e-08
4.8501e-08
4.74653e-08
4.65279e-08
4.56387e-08
4.48352e-08
4.40655e-08
4.33727e-08
4.2702e-08
4.21009e-08
4.15122e-08
4.09882e-08
4.04683e-08
4.00093e-08
3.95479e-08
3.91444e-08
3.87329e-08
3.8377e-08
3.80084e-08
3.7693e-08
3.73607e-08
3.70811e-08
3.67808e-08
3.65319e-08
3.62588e-08
3.60378e-08
3.57888e-08