/*--------------------------------*- C++ -*----------------------------------*\
| =========                 |                                                 |
| \\      /  F ield         | OpenFOAM: The Open Source CFD Toolbox           |
|  \\    /   O peration     | Version:  v2012                                 |
|   \\  /    A nd           | Website:  www.openfoam.com                      |
|    \\/     M anipulation  |                                                 |
\*---------------------------------------------------------------------------*/
FoamFile
{
    version     2.0;
    format      ascii;
    class       volScalarField;
    location    "55.5";
    object      yPlus;
}
// * * * * * * * * * * * * * * * * * * * * * * * * * * * * * * * * * * * * * //

dimensions      [0 0 0 0 0 0 0];


internalField   uniform 0;

boundaryField
{
    inlet
    {
        type            calculated;
        value           uniform 0;
    }
    outlet
    {
        type            calculated;
        value           uniform 0;
    }
    topWall
    {
        type            calculated;
        value           nonuniform List<scalar> 
545
(
0.153445
0.264582
0.33943
0.398993
0.449416
0.493534
0.532939
0.568634
0.6013
0.631429
0.659388
0.68546
0.709872
0.732807
0.754415
0.774825
0.794143
0.812463
0.829865
0.846419
0.862187
0.877225
0.891582
0.905302
0.918425
0.930988
0.943023
0.954562
0.965631
0.976256
0.986462
0.996269
1.0057
1.01477
1.0235
1.0319
1.03999
1.04779
1.0553
1.06255
1.06954
1.07628
1.08278
1.08907
1.09513
1.10099
1.10664
1.11211
1.1174
1.1225
1.12744
1.13222
1.13684
1.14131
1.14564
1.14983
1.15388
1.1578
1.1616
1.16528
1.16885
1.1723
1.17565
1.17889
1.18203
1.18508
1.18803
1.19089
1.19367
1.19636
1.19897
1.2015
1.20392
1.20627
1.20859
1.2109
1.21319
1.21546
1.21771
1.21995
1.22217
1.22437
1.22655
1.22871
1.23086
1.23299
1.23511
1.2372
1.23929
1.24135
1.2434
1.24543
1.24745
1.24945
1.25144
1.25341
1.25519
1.25678
1.25837
1.25995
1.26154
1.26313
1.26472
1.2663
1.26789
1.26948
1.27106
1.27265
1.27423
1.27582
1.2774
1.27899
1.28057
1.28215
1.28373
1.28532
1.2869
1.28848
1.29006
1.29164
1.29322
1.2948
1.29638
1.29796
1.29953
1.30111
1.30269
1.30426
1.30584
1.30741
1.30899
1.31056
1.31213
1.3137
1.31528
1.31685
1.31842
1.31999
1.32155
1.32312
1.32469
1.32626
1.32782
1.32939
1.33095
1.33251
1.33408
1.33564
1.3372
1.33876
1.34032
1.34188
1.34344
1.34499
1.34655
1.3481
1.34966
1.35121
1.35276
1.35431
1.35586
1.35741
1.35896
1.36051
1.36205
1.3636
1.36514
1.36668
1.36822
1.36977
1.3713
1.37284
1.37438
1.37592
1.37745
1.37898
1.38052
1.38205
1.38358
1.38511
1.38663
1.38816
1.38968
1.39121
1.39273
1.39425
1.39577
1.39729
1.3988
1.40032
1.40183
1.40335
1.40486
1.40637
1.40787
1.40938
1.41089
1.41239
1.41389
1.41539
1.41689
1.41839
1.41988
1.42138
1.42287
1.42436
1.42585
1.42734
1.42882
1.43031
1.43179
1.43327
1.43475
1.43622
1.4377
1.43917
1.44064
1.44211
1.44358
1.44504
1.44651
1.44797
1.44943
1.45089
1.45234
1.4538
1.45525
1.4567
1.45814
1.45959
1.46103
1.46247
1.46391
1.46535
1.46679
1.46822
1.46965
1.47108
1.4725
1.47393
1.47535
1.47677
1.47818
1.4796
1.48101
1.48242
1.48383
1.48523
1.48663
1.48803
1.48943
1.49083
1.49222
1.49361
1.495
1.49638
1.49776
1.49914
1.50052
1.50189
1.50327
1.50463
1.506
1.50736
1.50873
1.51008
1.51144
1.51279
1.51414
1.51541
1.51661
1.51782
1.51904
1.52026
1.52149
1.52273
1.52398
1.52524
1.5265
1.52777
1.52905
1.53034
1.53164
1.53294
1.53426
1.53558
1.5369
1.53824
1.53958
1.54094
1.5423
1.54366
1.54504
1.54642
1.54781
1.54921
1.55061
1.55202
1.55344
1.55487
1.5563
1.55774
1.55918
1.56064
1.5621
1.56357
1.56504
1.56652
1.568
1.5695
1.571
1.5725
1.57401
1.57553
1.57705
1.57857
1.58011
1.58164
1.58319
1.58473
1.58629
1.58784
1.5894
1.59097
1.59254
1.59411
1.59569
1.59727
1.59885
1.60044
1.60203
1.60362
1.60522
1.60682
1.60842
1.61002
1.61162
1.61322
1.61483
1.61644
1.61804
1.61965
1.62126
1.62286
1.62447
1.62607
1.62768
1.62928
1.63088
1.63248
1.63408
1.63567
1.63726
1.63885
1.64043
1.64201
1.64359
1.64516
1.64672
1.64828
1.64984
1.65138
1.65293
1.65446
1.65599
1.65751
1.65902
1.66052
1.66201
1.66349
1.66497
1.66643
1.66788
1.66932
1.67075
1.67217
1.67358
1.67497
1.67635
1.67771
1.67906
1.6804
1.68171
1.68302
1.68431
1.68558
1.68683
1.68807
1.68928
1.69048
1.69166
1.69282
1.69396
1.69508
1.69617
1.69725
1.6983
1.69933
1.70034
1.70133
1.70228
1.70322
1.70413
1.70502
1.70587
1.70671
1.70751
1.70829
1.70904
1.70976
1.71046
1.71112
1.71176
1.71236
1.71294
1.71348
1.71399
1.71448
1.71493
1.71535
1.71573
1.71609
1.71641
1.71669
1.71695
1.71717
1.71735
1.71751
1.71762
1.7177
1.71775
1.71777
1.71774
1.71768
1.71759
1.71746
1.7173
1.7171
1.71686
1.71659
1.71628
1.71595
1.71557
1.71515
1.7147
1.71422
1.7137
1.71315
1.71256
1.71194
1.71121
1.71036
1.70947
1.70856
1.7076
1.70662
1.7056
1.70457
1.7035
1.70241
1.70129
1.70016
1.69901
1.69784
1.69665
1.69546
1.69424
1.69302
1.69178
1.69054
1.68929
1.68803
1.68676
1.6855
1.68422
1.68295
1.68167
1.6804
1.67912
1.67785
1.67657
1.67531
1.67404
1.67279
1.67153
1.67029
1.66905
1.66782
1.66659
1.66538
1.66418
1.66299
1.66181
1.66064
1.65949
1.65835
1.65722
1.65611
1.65501
1.65393
1.65286
1.65181
1.65077
1.64976
1.64876
1.64779
1.64683
1.64589
1.64497
1.64407
1.64319
1.64233
1.64149
1.64068
1.63989
1.63912
1.63837
1.63765
1.63695
1.63627
1.63562
1.635
1.63439
1.63382
1.63326
1.63274
1.63224
1.63176
1.63132
1.6309
1.6305
1.63013
1.62979
1.62948
1.62919
1.62893
1.6287
1.6285
1.62832
1.62818
1.62806
1.62796
1.6279
1.62787
1.62785
)
;
    }
    bottomWall
    {
        type            calculated;
        value           nonuniform List<scalar> 
449
(
0.00273788
0.00479987
0.00537279
0.00532573
0.00525509
0.00515948
0.00506234
0.00497136
0.00488782
0.00481147
0.00474161
0.00467756
0.0046186
0.00456401
0.00451327
0.004466
0.00442177
0.00438028
0.0043412
0.0043043
0.00426937
0.00423624
0.00420473
0.00417471
0.00414606
0.00411865
0.00409241
0.00406723
0.00404305
0.00401979
0.00399739
0.00397579
0.00395494
0.00393479
0.00391532
0.00389645
0.00387818
0.00386045
0.00384324
0.00382653
0.00381028
0.00379447
0.00377907
0.00376408
0.00374947
0.00373522
0.00372133
0.00370777
0.00369453
0.00368161
0.00366898
0.00365664
0.00364455
0.00363274
0.00362117
0.00360985
0.00359874
0.00358787
0.00357719
0.00356673
0.00355645
0.00354637
0.00353647
0.00352674
0.00351718
0.00350779
0.00349854
0.00348946
0.00348052
0.00347172
0.00346307
0.00345454
0.00344616
0.00343789
0.00342975
0.00342173
0.00341382
0.00340604
0.00339835
0.00339078
0.00338332
0.00337595
0.00336869
0.00336152
0.00335444
0.00334746
0.00334057
0.00333377
0.00332705
0.00332041
0.00331386
0.00330739
0.00330099
0.00329467
0.00328843
0.00328226
0.00327615
0.00327012
0.00326416
0.00325826
0.00325243
0.00324666
0.00324095
0.00323531
0.00322972
0.0032242
0.00321873
0.00321331
0.00320795
0.00320265
0.0031974
0.0031922
0.00318705
0.00318195
0.0031769
0.0031719
0.00316694
0.00316203
0.00315717
0.00315235
0.00314757
0.00314284
0.00313815
0.0031335
0.00312889
0.00312432
0.00311979
0.0031153
0.00311085
0.00310643
0.00310205
0.00309771
0.0030934
0.00308913
0.00308489
0.00308069
0.00307652
0.00307238
0.00306828
0.0030642
0.00306016
0.00305615
0.00305217
0.00304822
0.00304429
0.0030404
0.00303654
0.0030327
0.00302889
0.00302511
0.00302136
0.00301763
0.00301393
0.00301025
0.0030066
0.00300297
0.00299937
0.0029958
0.00299224
0.00298872
0.00298521
0.00298173
0.00297827
0.00297483
0.00297142
0.00296803
0.00296465
0.0029613
0.00295798
0.00295467
0.00295138
0.00294811
0.00294487
0.00294182
0.00293895
0.00293608
0.00293319
0.0029303
0.0029274
0.00292449
0.00292156
0.00291864
0.0029157
0.00291275
0.00290979
0.00290683
0.00290386
0.00290087
0.00289788
0.00289489
0.00289188
0.00288886
0.00288584
0.00288281
0.00287977
0.00287672
0.00287367
0.0028706
0.00286753
0.00286445
0.00286137
0.00285827
0.00285517
0.00285206
0.00284895
0.00284583
0.0028427
0.00283956
0.00283642
0.00283327
0.00283011
0.00282695
0.00282378
0.0028206
0.00281742
0.00281423
0.00281103
0.00280783
0.00280462
0.00280141
0.00279819
0.00279496
0.00279173
0.0027885
0.00278526
0.00278201
0.00277876
0.0027755
0.00277224
0.00276897
0.0027657
0.00276242
0.00275914
0.00275585
0.00275256
0.00274926
0.00274596
0.00274266
0.00273935
0.00273604
0.00273272
0.0027294
0.00272607
0.00272274
0.00271941
0.00271608
0.00271274
0.00270939
0.00270605
0.0027027
0.00269935
0.00269599
0.00269263
0.00268927
0.00268591
0.00268254
0.00267917
0.0026758
0.00267243
0.00266905
0.00266568
0.00266229
0.00265891
0.00265553
0.00265214
0.00264875
0.00264537
0.00264197
0.00263858
0.00263519
0.00263179
0.00262839
0.002625
0.0026216
0.0026182
0.0026148
0.0026114
0.00260799
0.0026046
0.00260119
0.00259779
0.00259438
0.00259098
0.00258757
0.00258417
0.00258076
0.00257736
0.00257395
0.00257055
0.00256715
0.00256375
0.00256034
0.00255694
0.00255354
0.00255014
0.00254673
0.00254334
0.00253994
0.00253654
0.00253314
0.00252975
0.00252635
0.00252296
0.00251957
0.00251618
0.00251279
0.00250941
0.00250602
0.00250264
0.00249925
0.00249588
0.0024925
0.00248912
0.00248575
0.00248238
0.00247901
0.00247564
0.00247228
0.00246892
0.00246556
0.0024622
0.00245885
0.0024555
0.00245215
0.0024488
0.00244546
0.00244212
0.00243878
0.00243545
0.00243212
0.0024288
0.00242547
0.00242215
0.00241883
0.00241552
0.00241221
0.00240891
0.0024056
0.00240231
0.00239901
0.00239572
0.00239244
0.00238915
0.00238587
0.0023826
0.00237933
0.00237606
0.0023728
0.00236955
0.00236629
0.00236304
0.0023598
0.00235656
0.00235332
0.00234973
0.00234582
0.00234197
0.00233817
0.00233443
0.00233073
0.00232709
0.0023235
0.00231996
0.00231646
0.00231302
0.00230962
0.00230627
0.00230295
0.00229969
0.00229645
0.00229327
0.00229012
0.00228702
0.00228395
0.00228092
0.00227792
0.00227496
0.00227204
0.00226915
0.00226629
0.00226347
0.00226068
0.00225792
0.00225519
0.0022525
0.00224983
0.00224719
0.00224458
0.002242
0.00223945
0.00223693
0.00223442
0.00223195
0.0022295
0.00222708
0.00222468
0.00222231
0.00221996
0.00221763
0.00221533
0.00221305
0.00221079
0.00220855
0.00220633
0.00220414
0.00220196
0.00219982
0.00219768
0.00219557
0.00219347
0.0021914
0.00218933
0.0021873
0.00218527
0.00218328
0.00218129
0.00217932
0.00217736
0.00217543
0.00217351
0.00217161
0.00216972
0.00216785
0.00216599
0.00216416
0.00216232
0.00216052
0.0021587
0.00215694
0.00215514
0.00215342
0.00215164
0.00214995
0.00214818
0.00214653
0.00214477
0.00214316
0.0021414
0.00213983
0.00213808
0.00213653
0.00213481
0.00213325
0.00213162
0.00212991
0.00212861
0.00212636
0.00212603
0.00212282
)
;
    }
    symmetry
    {
        type            symmetryPlane;
    }
    frontAndBack
    {
        type            empty;
    }
}


// ************************************************************************* //
