/*--------------------------------*- C++ -*----------------------------------*\
| =========                 |                                                 |
| \\      /  F ield         | OpenFOAM: The Open Source CFD Toolbox           |
|  \\    /   O peration     | Version:  v2012                                 |
|   \\  /    A nd           | Website:  www.openfoam.com                      |
|    \\/     M anipulation  |                                                 |
\*---------------------------------------------------------------------------*/
FoamFile
{
    version     2.0;
    format      ascii;
    class       volScalarField;
    location    "39";
    object      yPlus;
}
// * * * * * * * * * * * * * * * * * * * * * * * * * * * * * * * * * * * * * //

dimensions      [0 0 0 0 0 0 0];


internalField   uniform 0;

boundaryField
{
    inlet
    {
        type            calculated;
        value           uniform 0;
    }
    outlet
    {
        type            calculated;
        value           uniform 0;
    }
    topWall
    {
        type            calculated;
        value           nonuniform List<scalar> 
545
(
0.0708274
0.122127
0.156671
0.184152
0.207404
0.227736
0.245883
0.262306
0.277321
0.291155
0.303978
0.315921
0.327088
0.337565
0.347422
0.356719
0.365504
0.373823
0.381712
0.389204
0.396328
0.403111
0.409576
0.415743
0.421632
0.427259
0.43264
0.43779
0.442722
0.447448
0.451978
0.456324
0.460496
0.464501
0.468348
0.472046
0.475601
0.479021
0.482311
0.485477
0.488526
0.491463
0.494293
0.497019
0.499648
0.502183
0.504628
0.506987
0.509263
0.511461
0.513582
0.515631
0.51761
0.519522
0.521369
0.523155
0.524881
0.52655
0.528165
0.529726
0.531236
0.532697
0.534112
0.53548
0.536805
0.538088
0.53933
0.540533
0.541698
0.542826
0.54392
0.544979
0.545993
0.546972
0.547943
0.548905
0.549858
0.550803
0.551739
0.552667
0.553587
0.554499
0.555403
0.556298
0.557186
0.558066
0.558938
0.559803
0.56066
0.561509
0.562351
0.563186
0.564013
0.564834
0.565647
0.566453
0.567178
0.567827
0.568475
0.569122
0.569768
0.570414
0.57106
0.571704
0.572348
0.572991
0.573634
0.574275
0.574916
0.575557
0.576196
0.576835
0.577473
0.578111
0.578747
0.579383
0.580018
0.580653
0.581286
0.581919
0.582551
0.583182
0.583813
0.584442
0.585071
0.585699
0.586326
0.586952
0.587578
0.588202
0.588826
0.589448
0.59007
0.590691
0.591311
0.59193
0.592549
0.593166
0.593782
0.594398
0.595012
0.595626
0.596238
0.59685
0.59746
0.59807
0.598679
0.599286
0.599893
0.600498
0.601103
0.601706
0.602309
0.60291
0.60351
0.60411
0.604708
0.605305
0.605901
0.606496
0.607089
0.607682
0.608273
0.608864
0.609453
0.610041
0.610627
0.611213
0.611797
0.612381
0.612963
0.613543
0.614123
0.614701
0.615278
0.615854
0.616429
0.617002
0.617574
0.618145
0.618714
0.619282
0.619849
0.620414
0.620978
0.621541
0.622103
0.622663
0.623221
0.623778
0.624334
0.624889
0.625442
0.625993
0.626543
0.627092
0.627639
0.628185
0.628729
0.629272
0.629813
0.630353
0.630892
0.631428
0.631963
0.632497
0.633029
0.63356
0.634089
0.634616
0.635142
0.635666
0.636189
0.63671
0.637229
0.637746
0.638262
0.638777
0.639289
0.6398
0.640309
0.640817
0.641323
0.641827
0.642329
0.64283
0.643328
0.643825
0.644321
0.644814
0.645306
0.645795
0.646283
0.64677
0.647254
0.647736
0.648217
0.648696
0.649172
0.649647
0.65012
0.650591
0.65106
0.651528
0.651993
0.652456
0.652917
0.653377
0.653834
0.654289
0.654742
0.655194
0.655643
0.65609
0.656535
0.656978
0.657419
0.657858
0.658295
0.658729
0.659162
0.659592
0.66002
0.660446
0.66087
0.661292
0.661711
0.662129
0.662544
0.662934
0.6633
0.663668
0.664038
0.664409
0.664781
0.665154
0.665529
0.665904
0.666281
0.666659
0.667038
0.667418
0.667799
0.66818
0.668563
0.668946
0.669331
0.669715
0.670101
0.670487
0.670874
0.671261
0.671648
0.672036
0.672424
0.672812
0.6732
0.673589
0.673977
0.674365
0.674753
0.675141
0.675528
0.675915
0.676302
0.676688
0.677073
0.677457
0.677841
0.678224
0.678605
0.678985
0.679364
0.679742
0.680118
0.680493
0.680866
0.681237
0.681606
0.681973
0.682338
0.6827
0.68306
0.683418
0.683773
0.684125
0.684474
0.68482
0.685162
0.685502
0.685838
0.68617
0.686498
0.686822
0.687142
0.687458
0.68777
0.688076
0.688378
0.688675
0.688967
0.689253
0.689534
0.68981
0.690079
0.690343
0.6906
0.690851
0.691095
0.691332
0.691563
0.691786
0.692002
0.69221
0.692411
0.692603
0.692787
0.692963
0.69313
0.693288
0.693438
0.693578
0.693708
0.693829
0.69394
0.69404
0.694131
0.69421
0.694279
0.694337
0.694383
0.694418
0.694441
0.694452
0.694451
0.694438
0.694411
0.694372
0.69432
0.694254
0.694175
0.694082
0.693975
0.693854
0.693718
0.693568
0.693402
0.693222
0.693026
0.692814
0.692587
0.692343
0.692084
0.691808
0.691515
0.691206
0.69088
0.690536
0.690176
0.689797
0.689401
0.688987
0.688555
0.688105
0.687637
0.68715
0.686644
0.68612
0.685577
0.685015
0.684434
0.683833
0.683213
0.682574
0.681916
0.681238
0.68054
0.679823
0.679086
0.67833
0.677553
0.676757
0.675942
0.675106
0.674251
0.673377
0.672482
0.671568
0.670635
0.669682
0.66871
0.667719
0.666709
0.665679
0.664631
0.663565
0.662479
0.661376
0.660254
0.659114
0.657957
0.656782
0.65559
0.654381
0.653155
0.651913
0.650654
0.64938
0.64809
0.646786
0.645318
0.643694
0.642072
0.640451
0.638832
0.637218
0.635607
0.634002
0.632402
0.630809
0.629223
0.627644
0.626074
0.624513
0.622962
0.62142
0.619888
0.618368
0.616859
0.615362
0.613877
0.612405
0.610945
0.609499
0.608067
0.606649
0.605245
0.603855
0.602481
0.601122
0.599778
0.59845
0.597138
0.595842
0.594562
0.5933
0.592054
0.590825
0.589613
0.588419
0.587242
0.586084
0.584943
0.583821
0.582717
0.581631
0.580564
0.579516
0.578487
0.577477
0.576487
0.575516
0.574564
0.573633
0.572721
0.57183
0.570958
0.570107
0.569277
0.568467
0.567678
0.566909
0.566162
0.565436
0.564732
0.564048
0.563387
0.562747
0.562128
0.561532
0.560958
0.560406
0.559876
0.559368
0.558883
0.558421
0.557981
0.557564
0.55717
0.556798
0.55645
0.556125
0.555823
0.555544
0.555289
0.555057
0.554848
0.554663
0.554502
0.554364
0.554249
0.554158
0.55409
0.554049
0.55402
)
;
    }
    bottomWall
    {
        type            calculated;
        value           nonuniform List<scalar> 
449
(
0.139452
0.0889606
0.0758101
0.0694383
0.0652552
0.0621288
0.0596339
0.0575705
0.0558196
0.0543035
0.0529698
0.0517823
0.0507143
0.0497458
0.0488611
0.0480479
0.0472964
0.0465986
0.0459478
0.0453387
0.0447665
0.0442275
0.0437182
0.0432358
0.0427779
0.0423422
0.0419268
0.0415301
0.0411506
0.040787
0.0404381
0.0401029
0.0397803
0.0394696
0.03917
0.0388807
0.0386011
0.0383307
0.0380689
0.0378152
0.0375692
0.0373304
0.0370984
0.036873
0.0366538
0.0364404
0.0362326
0.0360301
0.0358327
0.0356402
0.0354522
0.0352687
0.0350895
0.0349143
0.0347429
0.0345754
0.0344114
0.0342508
0.0340935
0.0339395
0.0337885
0.0336405
0.0334953
0.0333528
0.033213
0.0330758
0.0329411
0.0328087
0.0326787
0.0325509
0.0324252
0.0323017
0.0321802
0.0320607
0.031943
0.0318273
0.0317133
0.0316011
0.0314906
0.0313818
0.0312745
0.0311688
0.0310647
0.030962
0.0308607
0.0307609
0.0306624
0.0305653
0.0304694
0.0303748
0.0302815
0.0301893
0.0300983
0.0300085
0.0299198
0.0298322
0.0297456
0.0296601
0.0295756
0.0294921
0.0294096
0.029328
0.0292473
0.0291676
0.0290888
0.0290108
0.0289337
0.0288574
0.0287819
0.0287073
0.0286334
0.0285603
0.028488
0.0284164
0.0283455
0.0282753
0.0282058
0.0281371
0.0280689
0.0280015
0.0279347
0.0278685
0.027803
0.027738
0.0276737
0.02761
0.0275468
0.0274842
0.0274222
0.0273607
0.0272998
0.0272394
0.0271795
0.0271201
0.0270612
0.0270029
0.026945
0.0268876
0.0268307
0.0267742
0.0267182
0.0266627
0.0266076
0.0265529
0.0264987
0.0264449
0.0263915
0.0263385
0.0262859
0.0262338
0.026182
0.0261306
0.0260796
0.0260289
0.0259787
0.0259288
0.0258792
0.02583
0.0257812
0.0257327
0.0256846
0.0256368
0.0255893
0.0255421
0.0254953
0.0254488
0.0254026
0.0253567
0.0253111
0.0252658
0.0252208
0.0251761
0.0251317
0.0250902
0.025051
0.0250117
0.0249723
0.0249328
0.0248932
0.0248535
0.0248136
0.0247737
0.0247336
0.0246935
0.0246532
0.0246129
0.0245724
0.0245318
0.0244912
0.0244504
0.0244095
0.0243685
0.0243275
0.0242863
0.024245
0.0242037
0.0241622
0.0241207
0.0240791
0.0240374
0.0239956
0.0239537
0.0239117
0.0238696
0.0238275
0.0237853
0.023743
0.0237006
0.0236581
0.0236156
0.023573
0.0235303
0.0234875
0.0234447
0.0234018
0.0233588
0.0233158
0.0232727
0.0232295
0.0231863
0.023143
0.0230996
0.0230562
0.0230127
0.0229692
0.0229256
0.022882
0.0228383
0.0227945
0.0227507
0.0227069
0.022663
0.022619
0.022575
0.022531
0.0224869
0.0224428
0.0223986
0.0223544
0.0223102
0.0222659
0.0222216
0.0221772
0.0221328
0.0220884
0.022044
0.0219995
0.021955
0.0219104
0.0218659
0.0218213
0.0217767
0.0217321
0.0216874
0.0216427
0.021598
0.0215533
0.0215086
0.0214638
0.0214191
0.0213743
0.0213295
0.0212847
0.0212399
0.0211951
0.0211503
0.0211054
0.0210606
0.0210158
0.0209709
0.0209261
0.0208812
0.0208364
0.0207915
0.0207467
0.0207019
0.020657
0.0206122
0.0205674
0.0205226
0.0204777
0.0204329
0.0203882
0.0203434
0.0202986
0.0202539
0.0202091
0.0201644
0.0201197
0.020075
0.0200304
0.0199857
0.0199411
0.0198965
0.0198519
0.0198073
0.0197628
0.0197183
0.0196738
0.0196293
0.0195849
0.0195405
0.0194961
0.0194518
0.0194075
0.0193632
0.0193189
0.0192747
0.0192305
0.0191864
0.0191423
0.0190982
0.0190542
0.0190102
0.0189662
0.0189223
0.0188784
0.0188346
0.0187908
0.018747
0.0187033
0.0186596
0.018616
0.0185724
0.0185289
0.0184854
0.018442
0.0183986
0.0183553
0.018312
0.0182687
0.0182255
0.0181824
0.0181393
0.0180963
0.0180533
0.0180104
0.0179675
0.0179247
0.0178819
0.0178392
0.0177966
0.017754
0.0177115
0.017669
0.0176266
0.0175842
0.0175419
0.0174997
0.0174575
0.0174154
0.0173734
0.0173314
0.0172895
0.0172429
0.0171922
0.0171423
0.017093
0.0170445
0.0169967
0.0169495
0.016903
0.0168571
0.0168118
0.0167672
0.0167232
0.0166797
0.0166368
0.0165945
0.0165527
0.0165115
0.0164707
0.0164305
0.0163908
0.0163515
0.0163128
0.0162745
0.0162366
0.0161992
0.0161622
0.0161257
0.0160896
0.0160539
0.0160186
0.0159837
0.0159491
0.015915
0.0158812
0.0158478
0.0158147
0.015782
0.0157497
0.0157176
0.0156859
0.0156546
0.0156235
0.0155928
0.0155623
0.0155322
0.0155024
0.0154728
0.0154436
0.0154146
0.0153859
0.0153575
0.0153293
0.0153014
0.0152738
0.0152464
0.0152192
0.0151923
0.0151657
0.0151393
0.0151131
0.0150871
0.0150614
0.0150359
0.0150106
0.0149855
0.0149607
0.014936
0.0149116
0.0148873
0.0148633
0.0148394
0.0148158
0.0147923
0.014769
0.0147459
0.014723
0.0147002
0.0146776
0.0146552
0.014633
0.0146109
0.014589
0.0145672
0.0145455
0.014524
0.0145027
0.0144814
0.0144603
0.0144392
0.0144179
0.0143975
0.0143771
0.0143434
0.0143622
0.0143029
)
;
    }
    symmetry
    {
        type            symmetryPlane;
    }
    frontAndBack
    {
        type            empty;
    }
}


// ************************************************************************* //
