/*--------------------------------*- C++ -*----------------------------------*\
| =========                 |                                                 |
| \\      /  F ield         | OpenFOAM: The Open Source CFD Toolbox           |
|  \\    /   O peration     | Version:  v2012                                 |
|   \\  /    A nd           | Website:  www.openfoam.com                      |
|    \\/     M anipulation  |                                                 |
\*---------------------------------------------------------------------------*/
FoamFile
{
    version     2.0;
    format      ascii;
    class       volVectorField;
    location    "48.5";
    object      wallShearStress;
}
// * * * * * * * * * * * * * * * * * * * * * * * * * * * * * * * * * * * * * //

dimensions      [0 2 -2 0 0 0 0];


internalField   uniform (0 0 0);

boundaryField
{
    inlet
    {
        type            calculated;
        value           uniform (0 0 0);
    }
    outlet
    {
        type            calculated;
        value           uniform (0 0 0);
    }
    topWall
    {
        type            calculated;
        value           nonuniform List<vector> 
545
(
(1.48726e-08 -1.0469e-08 0)
(1.48657e-08 -2.92883e-08 0)
(1.4852e-08 -4.88561e-08 0)
(1.48316e-08 -6.785e-08 0)
(1.48054e-08 -8.60228e-08 0)
(1.47741e-08 -1.03606e-07 0)
(1.47382e-08 -1.20747e-07 0)
(1.46979e-08 -1.37438e-07 0)
(1.46538e-08 -1.53639e-07 0)
(1.46061e-08 -1.6935e-07 0)
(1.45552e-08 -1.84591e-07 0)
(1.45015e-08 -1.99379e-07 0)
(1.44452e-08 -2.13725e-07 0)
(1.43868e-08 -2.27637e-07 0)
(1.43263e-08 -2.41126e-07 0)
(1.42642e-08 -2.54203e-07 0)
(1.42006e-08 -2.66879e-07 0)
(1.41357e-08 -2.79165e-07 0)
(1.40698e-08 -2.91072e-07 0)
(1.40031e-08 -3.02611e-07 0)
(1.39356e-08 -3.13792e-07 0)
(1.38677e-08 -3.24625e-07 0)
(1.37993e-08 -3.3512e-07 0)
(1.37308e-08 -3.45288e-07 0)
(1.36621e-08 -3.55139e-07 0)
(1.35935e-08 -3.64682e-07 0)
(1.35249e-08 -3.73927e-07 0)
(1.34566e-08 -3.82882e-07 0)
(1.33886e-08 -3.91557e-07 0)
(1.3321e-08 -3.99961e-07 0)
(1.32539e-08 -4.08102e-07 0)
(1.31873e-08 -4.15988e-07 0)
(1.31213e-08 -4.23628e-07 0)
(1.3056e-08 -4.3103e-07 0)
(1.29913e-08 -4.382e-07 0)
(1.29274e-08 -4.45147e-07 0)
(1.28643e-08 -4.51877e-07 0)
(1.2802e-08 -4.58398e-07 0)
(1.27406e-08 -4.64717e-07 0)
(1.268e-08 -4.7084e-07 0)
(1.26203e-08 -4.76773e-07 0)
(1.25615e-08 -4.82522e-07 0)
(1.25037e-08 -4.88094e-07 0)
(1.24468e-08 -4.93494e-07 0)
(1.23909e-08 -4.98728e-07 0)
(1.23359e-08 -5.03802e-07 0)
(1.2282e-08 -5.08719e-07 0)
(1.22289e-08 -5.13487e-07 0)
(1.21769e-08 -5.18108e-07 0)
(1.21258e-08 -5.22589e-07 0)
(1.20757e-08 -5.26933e-07 0)
(1.20266e-08 -5.31146e-07 0)
(1.19785e-08 -5.35231e-07 0)
(1.19313e-08 -5.39192e-07 0)
(1.1885e-08 -5.43034e-07 0)
(1.18397e-08 -5.46761e-07 0)
(1.17954e-08 -5.50375e-07 0)
(1.1752e-08 -5.53881e-07 0)
(1.17095e-08 -5.57282e-07 0)
(1.16679e-08 -5.60581e-07 0)
(1.16272e-08 -5.63782e-07 0)
(1.15874e-08 -5.66888e-07 0)
(1.15484e-08 -5.69902e-07 0)
(1.15104e-08 -5.72827e-07 0)
(1.14731e-08 -5.75665e-07 0)
(1.14367e-08 -5.78419e-07 0)
(1.14012e-08 -5.81093e-07 0)
(1.13664e-08 -5.83688e-07 0)
(1.13324e-08 -5.86207e-07 0)
(1.12993e-08 -5.88652e-07 0)
(1.12668e-08 -5.91026e-07 0)
(1.12354e-08 -5.93328e-07 0)
(1.12048e-08 -5.9554e-07 0)
(1.11747e-08 -5.97684e-07 0)
(1.1145e-08 -5.99802e-07 0)
(1.11154e-08 -6.01907e-07 0)
(1.10858e-08 -6.04e-07 0)
(1.10563e-08 -6.06079e-07 0)
(1.10269e-08 -6.08142e-07 0)
(1.09975e-08 -6.10189e-07 0)
(1.09682e-08 -6.12222e-07 0)
(1.09389e-08 -6.1424e-07 0)
(1.09097e-08 -6.16244e-07 0)
(1.08806e-08 -6.18233e-07 0)
(1.08515e-08 -6.20208e-07 0)
(1.08225e-08 -6.22168e-07 0)
(1.07935e-08 -6.24115e-07 0)
(1.07646e-08 -6.26047e-07 0)
(1.07358e-08 -6.27965e-07 0)
(1.0707e-08 -6.29869e-07 0)
(1.06783e-08 -6.3176e-07 0)
(1.06497e-08 -6.33637e-07 0)
(1.06211e-08 -6.355e-07 0)
(1.05927e-08 -6.37349e-07 0)
(1.0564e-08 -6.39189e-07 0)
(1.05369e-08 -6.40995e-07 0)
(1.05117e-08 -6.42649e-07 0)
(1.04875e-08 -6.44145e-07 0)
(1.0464e-08 -6.456e-07 0)
(1.04407e-08 -6.4706e-07 0)
(1.04174e-08 -6.48532e-07 0)
(1.03939e-08 -6.50007e-07 0)
(1.03704e-08 -6.51479e-07 0)
(1.03468e-08 -6.5295e-07 0)
(1.03231e-08 -6.54421e-07 0)
(1.02993e-08 -6.55893e-07 0)
(1.02754e-08 -6.57364e-07 0)
(1.02514e-08 -6.58836e-07 0)
(1.02274e-08 -6.60308e-07 0)
(1.02032e-08 -6.6178e-07 0)
(1.01789e-08 -6.63251e-07 0)
(1.01546e-08 -6.64723e-07 0)
(1.01301e-08 -6.66194e-07 0)
(1.01056e-08 -6.67666e-07 0)
(1.00809e-08 -6.69137e-07 0)
(1.00562e-08 -6.70609e-07 0)
(1.00314e-08 -6.7208e-07 0)
(1.00064e-08 -6.73551e-07 0)
(9.98142e-09 -6.75021e-07 0)
(9.95631e-09 -6.76492e-07 0)
(9.9311e-09 -6.77962e-07 0)
(9.9058e-09 -6.79432e-07 0)
(9.88041e-09 -6.80901e-07 0)
(9.85492e-09 -6.82371e-07 0)
(9.82933e-09 -6.8384e-07 0)
(9.80365e-09 -6.85308e-07 0)
(9.77788e-09 -6.86777e-07 0)
(9.75201e-09 -6.88244e-07 0)
(9.72605e-09 -6.89712e-07 0)
(9.69999e-09 -6.91179e-07 0)
(9.67384e-09 -6.92645e-07 0)
(9.64759e-09 -6.94111e-07 0)
(9.62125e-09 -6.95576e-07 0)
(9.59481e-09 -6.97041e-07 0)
(9.56828e-09 -6.98505e-07 0)
(9.54165e-09 -6.99969e-07 0)
(9.51493e-09 -7.01432e-07 0)
(9.48811e-09 -7.02894e-07 0)
(9.4612e-09 -7.04355e-07 0)
(9.4342e-09 -7.05816e-07 0)
(9.40709e-09 -7.07276e-07 0)
(9.3799e-09 -7.08735e-07 0)
(9.35261e-09 -7.10194e-07 0)
(9.32522e-09 -7.11652e-07 0)
(9.29774e-09 -7.13108e-07 0)
(9.27016e-09 -7.14564e-07 0)
(9.24249e-09 -7.16019e-07 0)
(9.21473e-09 -7.17473e-07 0)
(9.18687e-09 -7.18927e-07 0)
(9.15891e-09 -7.20379e-07 0)
(9.13087e-09 -7.2183e-07 0)
(9.10272e-09 -7.2328e-07 0)
(9.07448e-09 -7.24729e-07 0)
(9.04615e-09 -7.26177e-07 0)
(9.01773e-09 -7.27624e-07 0)
(8.98921e-09 -7.29069e-07 0)
(8.96059e-09 -7.30514e-07 0)
(8.93188e-09 -7.31957e-07 0)
(8.90308e-09 -7.33399e-07 0)
(8.87419e-09 -7.34839e-07 0)
(8.8452e-09 -7.36279e-07 0)
(8.81612e-09 -7.37717e-07 0)
(8.78694e-09 -7.39153e-07 0)
(8.75767e-09 -7.40589e-07 0)
(8.72831e-09 -7.42023e-07 0)
(8.69885e-09 -7.43455e-07 0)
(8.6693e-09 -7.44886e-07 0)
(8.63966e-09 -7.46315e-07 0)
(8.60993e-09 -7.47743e-07 0)
(8.5801e-09 -7.49169e-07 0)
(8.55019e-09 -7.50594e-07 0)
(8.52018e-09 -7.52017e-07 0)
(8.49007e-09 -7.53438e-07 0)
(8.45988e-09 -7.54858e-07 0)
(8.42959e-09 -7.56276e-07 0)
(8.39922e-09 -7.57692e-07 0)
(8.36875e-09 -7.59107e-07 0)
(8.33819e-09 -7.60519e-07 0)
(8.30754e-09 -7.6193e-07 0)
(8.2768e-09 -7.63339e-07 0)
(8.24597e-09 -7.64746e-07 0)
(8.21505e-09 -7.6615e-07 0)
(8.18405e-09 -7.67553e-07 0)
(8.15295e-09 -7.68954e-07 0)
(8.12176e-09 -7.70353e-07 0)
(8.09048e-09 -7.7175e-07 0)
(8.05912e-09 -7.73145e-07 0)
(8.02766e-09 -7.74537e-07 0)
(7.99612e-09 -7.75928e-07 0)
(7.96449e-09 -7.77316e-07 0)
(7.93277e-09 -7.78702e-07 0)
(7.90096e-09 -7.80085e-07 0)
(7.86907e-09 -7.81466e-07 0)
(7.83709e-09 -7.82845e-07 0)
(7.80503e-09 -7.84222e-07 0)
(7.77288e-09 -7.85596e-07 0)
(7.74064e-09 -7.86968e-07 0)
(7.70832e-09 -7.88337e-07 0)
(7.67591e-09 -7.89704e-07 0)
(7.64342e-09 -7.91068e-07 0)
(7.61084e-09 -7.92429e-07 0)
(7.57818e-09 -7.93788e-07 0)
(7.54544e-09 -7.95144e-07 0)
(7.51261e-09 -7.96498e-07 0)
(7.4797e-09 -7.97849e-07 0)
(7.44671e-09 -7.99197e-07 0)
(7.41363e-09 -8.00542e-07 0)
(7.38048e-09 -8.01884e-07 0)
(7.34724e-09 -8.03224e-07 0)
(7.31392e-09 -8.0456e-07 0)
(7.28052e-09 -8.05894e-07 0)
(7.24705e-09 -8.07225e-07 0)
(7.21349e-09 -8.08552e-07 0)
(7.17985e-09 -8.09877e-07 0)
(7.14614e-09 -8.11198e-07 0)
(7.11234e-09 -8.12517e-07 0)
(7.07847e-09 -8.13832e-07 0)
(7.04453e-09 -8.15144e-07 0)
(7.0105e-09 -8.16453e-07 0)
(6.9764e-09 -8.17758e-07 0)
(6.94223e-09 -8.1906e-07 0)
(6.90797e-09 -8.20359e-07 0)
(6.87365e-09 -8.21654e-07 0)
(6.83925e-09 -8.22947e-07 0)
(6.80478e-09 -8.24235e-07 0)
(6.77023e-09 -8.2552e-07 0)
(6.73561e-09 -8.26802e-07 0)
(6.70092e-09 -8.2808e-07 0)
(6.66616e-09 -8.29354e-07 0)
(6.63133e-09 -8.30625e-07 0)
(6.59643e-09 -8.31892e-07 0)
(6.56146e-09 -8.33155e-07 0)
(6.52642e-09 -8.34414e-07 0)
(6.49131e-09 -8.3567e-07 0)
(6.45614e-09 -8.36922e-07 0)
(6.42089e-09 -8.3817e-07 0)
(6.38558e-09 -8.39414e-07 0)
(6.35021e-09 -8.40654e-07 0)
(6.31477e-09 -8.4189e-07 0)
(6.27927e-09 -8.43123e-07 0)
(6.2437e-09 -8.44351e-07 0)
(6.20807e-09 -8.45575e-07 0)
(6.17238e-09 -8.46794e-07 0)
(6.13662e-09 -8.4801e-07 0)
(6.10081e-09 -8.49221e-07 0)
(6.06493e-09 -8.50429e-07 0)
(6.029e-09 -8.51631e-07 0)
(5.993e-09 -8.5283e-07 0)
(5.95695e-09 -8.54024e-07 0)
(5.92084e-09 -8.55214e-07 0)
(5.88468e-09 -8.56399e-07 0)
(5.84845e-09 -8.5758e-07 0)
(5.81218e-09 -8.58756e-07 0)
(5.77585e-09 -8.59928e-07 0)
(5.73946e-09 -8.61095e-07 0)
(5.70303e-09 -8.62257e-07 0)
(5.66654e-09 -8.63415e-07 0)
(5.63e-09 -8.64568e-07 0)
(5.59341e-09 -8.65716e-07 0)
(5.55677e-09 -8.66859e-07 0)
(5.52009e-09 -8.67998e-07 0)
(5.48335e-09 -8.69132e-07 0)
(5.44657e-09 -8.7026e-07 0)
(5.40974e-09 -8.71384e-07 0)
(5.37287e-09 -8.72503e-07 0)
(5.33595e-09 -8.73617e-07 0)
(5.29904e-09 -8.74725e-07 0)
(5.26182e-09 -8.7583e-07 0)
(5.22568e-09 -8.76922e-07 0)
(5.19107e-09 -8.77958e-07 0)
(5.15697e-09 -8.78939e-07 0)
(5.12329e-09 -8.79909e-07 0)
(5.08947e-09 -8.80885e-07 0)
(5.05536e-09 -8.8187e-07 0)
(5.02093e-09 -8.82859e-07 0)
(4.98618e-09 -8.83851e-07 0)
(4.9511e-09 -8.84846e-07 0)
(4.91568e-09 -8.85845e-07 0)
(4.87993e-09 -8.86848e-07 0)
(4.84385e-09 -8.87854e-07 0)
(4.80742e-09 -8.88864e-07 0)
(4.77066e-09 -8.89876e-07 0)
(4.73355e-09 -8.90892e-07 0)
(4.69611e-09 -8.91911e-07 0)
(4.65831e-09 -8.92933e-07 0)
(4.62018e-09 -8.93957e-07 0)
(4.58169e-09 -8.94984e-07 0)
(4.54285e-09 -8.96014e-07 0)
(4.50367e-09 -8.97046e-07 0)
(4.46413e-09 -8.98079e-07 0)
(4.42424e-09 -8.99115e-07 0)
(4.384e-09 -9.00153e-07 0)
(4.34339e-09 -9.01192e-07 0)
(4.30244e-09 -9.02233e-07 0)
(4.26112e-09 -9.03275e-07 0)
(4.21945e-09 -9.04318e-07 0)
(4.17742e-09 -9.05362e-07 0)
(4.13503e-09 -9.06407e-07 0)
(4.09228e-09 -9.07452e-07 0)
(4.04916e-09 -9.08498e-07 0)
(4.00569e-09 -9.09544e-07 0)
(3.96185e-09 -9.10589e-07 0)
(3.91765e-09 -9.11635e-07 0)
(3.87309e-09 -9.12679e-07 0)
(3.82817e-09 -9.13723e-07 0)
(3.78288e-09 -9.14766e-07 0)
(3.73723e-09 -9.15808e-07 0)
(3.69122e-09 -9.16848e-07 0)
(3.64485e-09 -9.17886e-07 0)
(3.59812e-09 -9.18923e-07 0)
(3.55103e-09 -9.19957e-07 0)
(3.50357e-09 -9.20988e-07 0)
(3.45576e-09 -9.22017e-07 0)
(3.4076e-09 -9.23042e-07 0)
(3.35907e-09 -9.24064e-07 0)
(3.31019e-09 -9.25082e-07 0)
(3.26096e-09 -9.26096e-07 0)
(3.21138e-09 -9.27105e-07 0)
(3.16145e-09 -9.2811e-07 0)
(3.11117e-09 -9.2911e-07 0)
(3.06054e-09 -9.30104e-07 0)
(3.00958e-09 -9.31093e-07 0)
(2.95827e-09 -9.32075e-07 0)
(2.90663e-09 -9.33051e-07 0)
(2.85465e-09 -9.34021e-07 0)
(2.80234e-09 -9.34983e-07 0)
(2.7497e-09 -9.35937e-07 0)
(2.69674e-09 -9.36883e-07 0)
(2.64346e-09 -9.37821e-07 0)
(2.58986e-09 -9.3875e-07 0)
(2.53595e-09 -9.3967e-07 0)
(2.48174e-09 -9.4058e-07 0)
(2.42722e-09 -9.41481e-07 0)
(2.37241e-09 -9.4237e-07 0)
(2.3173e-09 -9.43249e-07 0)
(2.2619e-09 -9.44116e-07 0)
(2.20623e-09 -9.44972e-07 0)
(2.15028e-09 -9.45815e-07 0)
(2.09407e-09 -9.46645e-07 0)
(2.03759e-09 -9.47462e-07 0)
(1.98085e-09 -9.48265e-07 0)
(1.92387e-09 -9.49054e-07 0)
(1.86665e-09 -9.49828e-07 0)
(1.8092e-09 -9.50587e-07 0)
(1.75152e-09 -9.5133e-07 0)
(1.69363e-09 -9.52056e-07 0)
(1.63552e-09 -9.52766e-07 0)
(1.57722e-09 -9.53459e-07 0)
(1.51874e-09 -9.54133e-07 0)
(1.46007e-09 -9.54789e-07 0)
(1.40123e-09 -9.55425e-07 0)
(1.34223e-09 -9.56042e-07 0)
(1.28308e-09 -9.56639e-07 0)
(1.2238e-09 -9.57215e-07 0)
(1.16439e-09 -9.5777e-07 0)
(1.10486e-09 -9.58303e-07 0)
(1.04523e-09 -9.58813e-07 0)
(9.8551e-10 -9.593e-07 0)
(9.2571e-10 -9.59763e-07 0)
(8.65844e-10 -9.60202e-07 0)
(8.05926e-10 -9.60615e-07 0)
(7.45969e-10 -9.61004e-07 0)
(6.85987e-10 -9.61366e-07 0)
(6.25994e-10 -9.61701e-07 0)
(5.66005e-10 -9.62008e-07 0)
(5.06035e-10 -9.62288e-07 0)
(4.46099e-10 -9.62538e-07 0)
(3.86212e-10 -9.6276e-07 0)
(3.26391e-10 -9.62951e-07 0)
(2.66652e-10 -9.63111e-07 0)
(2.07011e-10 -9.63241e-07 0)
(1.47486e-10 -9.63338e-07 0)
(8.80929e-11 -9.63403e-07 0)
(2.88498e-11 -9.63434e-07 0)
(-3.02254e-11 -9.63432e-07 0)
(-8.91148e-11 -9.63395e-07 0)
(-1.478e-10 -9.63323e-07 0)
(-2.06262e-10 -9.63216e-07 0)
(-2.64483e-10 -9.63072e-07 0)
(-3.22442e-10 -9.6289e-07 0)
(-3.80121e-10 -9.62672e-07 0)
(-4.375e-10 -9.62415e-07 0)
(-4.94558e-10 -9.62119e-07 0)
(-5.51277e-10 -9.61784e-07 0)
(-6.07635e-10 -9.61408e-07 0)
(-6.63613e-10 -9.60992e-07 0)
(-7.19188e-10 -9.60535e-07 0)
(-7.74342e-10 -9.60036e-07 0)
(-8.29052e-10 -9.59494e-07 0)
(-8.83298e-10 -9.5891e-07 0)
(-9.37058e-10 -9.58282e-07 0)
(-9.90311e-10 -9.5761e-07 0)
(-1.04304e-09 -9.56894e-07 0)
(-1.09521e-09 -9.56133e-07 0)
(-1.14682e-09 -9.55326e-07 0)
(-1.19783e-09 -9.54473e-07 0)
(-1.24823e-09 -9.53574e-07 0)
(-1.29799e-09 -9.52628e-07 0)
(-1.3471e-09 -9.51634e-07 0)
(-1.39552e-09 -9.50593e-07 0)
(-1.44325e-09 -9.49504e-07 0)
(-1.49026e-09 -9.48366e-07 0)
(-1.53653e-09 -9.4718e-07 0)
(-1.58204e-09 -9.45944e-07 0)
(-1.62677e-09 -9.44658e-07 0)
(-1.67069e-09 -9.43323e-07 0)
(-1.71379e-09 -9.41938e-07 0)
(-1.75606e-09 -9.40503e-07 0)
(-1.79745e-09 -9.39017e-07 0)
(-1.83797e-09 -9.3748e-07 0)
(-1.8776e-09 -9.35893e-07 0)
(-1.9163e-09 -9.34254e-07 0)
(-1.95407e-09 -9.32565e-07 0)
(-1.99089e-09 -9.30824e-07 0)
(-2.02673e-09 -9.29032e-07 0)
(-2.0616e-09 -9.27189e-07 0)
(-2.09546e-09 -9.25294e-07 0)
(-2.1283e-09 -9.23348e-07 0)
(-2.16011e-09 -9.21351e-07 0)
(-2.19088e-09 -9.19303e-07 0)
(-2.22059e-09 -9.17204e-07 0)
(-2.24922e-09 -9.15054e-07 0)
(-2.27677e-09 -9.12853e-07 0)
(-2.30323e-09 -9.10602e-07 0)
(-2.32857e-09 -9.08301e-07 0)
(-2.35281e-09 -9.0595e-07 0)
(-2.37591e-09 -9.0355e-07 0)
(-2.39788e-09 -9.011e-07 0)
(-2.41871e-09 -8.98602e-07 0)
(-2.43839e-09 -8.96055e-07 0)
(-2.45691e-09 -8.93461e-07 0)
(-2.47427e-09 -8.90819e-07 0)
(-2.49047e-09 -8.8813e-07 0)
(-2.50549e-09 -8.85395e-07 0)
(-2.51935e-09 -8.82614e-07 0)
(-2.53203e-09 -8.79789e-07 0)
(-2.54354e-09 -8.76919e-07 0)
(-2.55387e-09 -8.74005e-07 0)
(-2.56303e-09 -8.71048e-07 0)
(-2.57101e-09 -8.6805e-07 0)
(-2.57783e-09 -8.6501e-07 0)
(-2.58348e-09 -8.6193e-07 0)
(-2.58796e-09 -8.5881e-07 0)
(-2.59129e-09 -8.55651e-07 0)
(-2.59347e-09 -8.52455e-07 0)
(-2.5945e-09 -8.49222e-07 0)
(-2.59439e-09 -8.45954e-07 0)
(-2.59315e-09 -8.42649e-07 0)
(-2.59084e-09 -8.39317e-07 0)
(-2.58719e-09 -8.35911e-07 0)
(-2.58193e-09 -8.32151e-07 0)
(-2.57505e-09 -8.28033e-07 0)
(-2.56651e-09 -8.23843e-07 0)
(-2.55652e-09 -8.19676e-07 0)
(-2.54521e-09 -8.1555e-07 0)
(-2.53267e-09 -8.11449e-07 0)
(-2.51898e-09 -8.07364e-07 0)
(-2.50419e-09 -8.03298e-07 0)
(-2.48837e-09 -7.99258e-07 0)
(-2.47157e-09 -7.95246e-07 0)
(-2.45385e-09 -7.91261e-07 0)
(-2.43528e-09 -7.87306e-07 0)
(-2.4159e-09 -7.83381e-07 0)
(-2.39576e-09 -7.79489e-07 0)
(-2.37491e-09 -7.7563e-07 0)
(-2.35339e-09 -7.71805e-07 0)
(-2.33125e-09 -7.68015e-07 0)
(-2.30853e-09 -7.64262e-07 0)
(-2.28526e-09 -7.60546e-07 0)
(-2.26148e-09 -7.56868e-07 0)
(-2.23722e-09 -7.53229e-07 0)
(-2.21253e-09 -7.49629e-07 0)
(-2.18742e-09 -7.4607e-07 0)
(-2.16192e-09 -7.42552e-07 0)
(-2.13607e-09 -7.39076e-07 0)
(-2.10988e-09 -7.35641e-07 0)
(-2.08339e-09 -7.32249e-07 0)
(-2.0566e-09 -7.28901e-07 0)
(-2.02955e-09 -7.25596e-07 0)
(-2.00225e-09 -7.22334e-07 0)
(-1.97472e-09 -7.19118e-07 0)
(-1.94697e-09 -7.15946e-07 0)
(-1.91903e-09 -7.12819e-07 0)
(-1.8909e-09 -7.09737e-07 0)
(-1.86259e-09 -7.06701e-07 0)
(-1.83412e-09 -7.03711e-07 0)
(-1.80551e-09 -7.00767e-07 0)
(-1.77675e-09 -6.9787e-07 0)
(-1.74786e-09 -6.95019e-07 0)
(-1.71885e-09 -6.92215e-07 0)
(-1.68972e-09 -6.89458e-07 0)
(-1.66048e-09 -6.86749e-07 0)
(-1.63114e-09 -6.84086e-07 0)
(-1.6017e-09 -6.81472e-07 0)
(-1.57217e-09 -6.78905e-07 0)
(-1.54254e-09 -6.76385e-07 0)
(-1.51284e-09 -6.73914e-07 0)
(-1.48305e-09 -6.71491e-07 0)
(-1.45318e-09 -6.69116e-07 0)
(-1.42323e-09 -6.6679e-07 0)
(-1.39321e-09 -6.64512e-07 0)
(-1.36312e-09 -6.62283e-07 0)
(-1.33295e-09 -6.60102e-07 0)
(-1.30272e-09 -6.5797e-07 0)
(-1.27241e-09 -6.55887e-07 0)
(-1.24204e-09 -6.53854e-07 0)
(-1.21159e-09 -6.51869e-07 0)
(-1.18108e-09 -6.49934e-07 0)
(-1.1505e-09 -6.48048e-07 0)
(-1.11986e-09 -6.46212e-07 0)
(-1.08915e-09 -6.44425e-07 0)
(-1.05837e-09 -6.42688e-07 0)
(-1.02752e-09 -6.41001e-07 0)
(-9.96607e-10 -6.39364e-07 0)
(-9.65629e-10 -6.37777e-07 0)
(-9.34584e-10 -6.3624e-07 0)
(-9.03473e-10 -6.34753e-07 0)
(-8.72298e-10 -6.33317e-07 0)
(-8.41057e-10 -6.31931e-07 0)
(-8.09753e-10 -6.30596e-07 0)
(-7.78385e-10 -6.29312e-07 0)
(-7.46955e-10 -6.28078e-07 0)
(-7.15462e-10 -6.26895e-07 0)
(-6.8391e-10 -6.25763e-07 0)
(-6.52298e-10 -6.24682e-07 0)
(-6.20628e-10 -6.23653e-07 0)
(-5.88902e-10 -6.22675e-07 0)
(-5.57122e-10 -6.21748e-07 0)
(-5.25289e-10 -6.20872e-07 0)
(-4.93405e-10 -6.20048e-07 0)
(-4.61473e-10 -6.19276e-07 0)
(-4.29494e-10 -6.18555e-07 0)
(-3.97472e-10 -6.17886e-07 0)
(-3.65409e-10 -6.1727e-07 0)
(-3.33307e-10 -6.16703e-07 0)
(-3.01171e-10 -6.16194e-07 0)
(-2.69e-10 -6.1572e-07 0)
(-2.36806e-10 -6.15353e-07 0)
(-2.04567e-10 -6.14853e-07 0)
(-1.72368e-10 -6.15015e-07 0)
(-1.39944e-10 -6.13165e-07 0)
(-1.08194e-10 -6.17953e-07 0)
(-7.4254e-11 -5.99314e-07 0)
(-4.79513e-11 -6.4843e-07 0)
(-2.01006e-11 -5.66306e-07 0)
)
;
    }
    bottomWall
    {
        type            calculated;
        value           nonuniform List<vector> 
449
(
(-48.5241 -0.963989 0)
(-19.7484 -0.00515444 0)
(-14.3414 -0.00113469 0)
(-12.032 -0.00054545 0)
(-10.626 -0.000351482 0)
(-9.63224 -0.000255985 0)
(-8.8742 -0.000198479 0)
(-8.27071 -0.00015981 0)
(-7.7753 -0.000132321 0)
(-7.35868 -0.000111975 0)
(-7.00169 -9.63749e-05 0)
(-6.69127 -8.40685e-05 0)
(-6.41813 -7.4151e-05 0)
(-6.17534 -6.60237e-05 0)
(-5.95765 -5.9267e-05 0)
(-5.76101 -5.35777e-05 0)
(-5.58222 -4.87336e-05 0)
(-5.41871 -4.45689e-05 0)
(-5.26843 -4.09575e-05 0)
(-5.12967 -3.7802e-05 0)
(-5.00102 -3.50258e-05 0)
(-4.88132 -3.25682e-05 0)
(-4.76955 -3.03802e-05 0)
(-4.66489 -2.84223e-05 0)
(-4.56659 -2.66622e-05 0)
(-4.47405 -2.50729e-05 0)
(-4.3867 -2.36323e-05 0)
(-4.30409 -2.23215e-05 0)
(-4.2258 -2.11249e-05 0)
(-4.15145 -2.00291e-05 0)
(-4.08073 -1.90225e-05 0)
(-4.01335 -1.80954e-05 0)
(-3.94906 -1.72393e-05 0)
(-3.88761 -1.64468e-05 0)
(-3.82881 -1.57115e-05 0)
(-3.77247 -1.50279e-05 0)
(-3.71842 -1.4391e-05 0)
(-3.6665 -1.37965e-05 0)
(-3.61659 -1.32406e-05 0)
(-3.56855 -1.27198e-05 0)
(-3.52227 -1.22312e-05 0)
(-3.47763 -1.1772e-05 0)
(-3.43456 -1.13398e-05 0)
(-3.39295 -1.09325e-05 0)
(-3.35272 -1.05482e-05 0)
(-3.3138 -1.0185e-05 0)
(-3.27612 -9.84142e-06 0)
(-3.23961 -9.51597e-06 0)
(-3.20421 -9.20735e-06 0)
(-3.16987 -8.91439e-06 0)
(-3.13653 -8.636e-06 0)
(-3.10414 -8.3712e-06 0)
(-3.07267 -8.11907e-06 0)
(-3.04206 -7.8788e-06 0)
(-3.01228 -7.64962e-06 0)
(-2.9833 -7.43083e-06 0)
(-2.95506 -7.22179e-06 0)
(-2.92755 -7.02192e-06 0)
(-2.90073 -6.83065e-06 0)
(-2.87458 -6.64749e-06 0)
(-2.84906 -6.47197e-06 0)
(-2.82415 -6.30364e-06 0)
(-2.79983 -6.14212e-06 0)
(-2.77607 -5.98701e-06 0)
(-2.75285 -5.83799e-06 0)
(-2.73015 -5.69471e-06 0)
(-2.70795 -5.55688e-06 0)
(-2.68623 -5.42422e-06 0)
(-2.66498 -5.29645e-06 0)
(-2.64418 -5.17334e-06 0)
(-2.62381 -5.05465e-06 0)
(-2.60385 -4.94016e-06 0)
(-2.5843 -4.82968e-06 0)
(-2.56514 -4.723e-06 0)
(-2.54635 -4.61996e-06 0)
(-2.52793 -4.52038e-06 0)
(-2.50986 -4.4241e-06 0)
(-2.49214 -4.33098e-06 0)
(-2.47474 -4.24087e-06 0)
(-2.45766 -4.15363e-06 0)
(-2.44089 -4.06916e-06 0)
(-2.42442 -3.98731e-06 0)
(-2.40825 -3.908e-06 0)
(-2.39235 -3.83109e-06 0)
(-2.37673 -3.75651e-06 0)
(-2.36138 -3.68414e-06 0)
(-2.34628 -3.61391e-06 0)
(-2.33144 -3.54572e-06 0)
(-2.31684 -3.47949e-06 0)
(-2.30248 -3.41516e-06 0)
(-2.28835 -3.35263e-06 0)
(-2.27444 -3.29185e-06 0)
(-2.26075 -3.23274e-06 0)
(-2.24728 -3.17525e-06 0)
(-2.23401 -3.11932e-06 0)
(-2.22094 -3.06488e-06 0)
(-2.20807 -3.01188e-06 0)
(-2.1954 -2.96027e-06 0)
(-2.1829 -2.91001e-06 0)
(-2.1706 -2.86103e-06 0)
(-2.15847 -2.8133e-06 0)
(-2.14651 -2.76678e-06 0)
(-2.13472 -2.72142e-06 0)
(-2.1231 -2.67718e-06 0)
(-2.11163 -2.63403e-06 0)
(-2.10033 -2.59193e-06 0)
(-2.08918 -2.55084e-06 0)
(-2.07818 -2.51073e-06 0)
(-2.06732 -2.47157e-06 0)
(-2.05661 -2.43333e-06 0)
(-2.04604 -2.39598e-06 0)
(-2.03561 -2.35949e-06 0)
(-2.02531 -2.32383e-06 0)
(-2.01514 -2.28898e-06 0)
(-2.0051 -2.25492e-06 0)
(-1.99518 -2.22161e-06 0)
(-1.98539 -2.18904e-06 0)
(-1.97572 -2.15718e-06 0)
(-1.96616 -2.12602e-06 0)
(-1.95673 -2.09553e-06 0)
(-1.9474 -2.06569e-06 0)
(-1.93818 -2.03648e-06 0)
(-1.92908 -2.00789e-06 0)
(-1.92008 -1.9799e-06 0)
(-1.91118 -1.95248e-06 0)
(-1.90239 -1.92563e-06 0)
(-1.89369 -1.89933e-06 0)
(-1.88509 -1.87357e-06 0)
(-1.87659 -1.84832e-06 0)
(-1.86819 -1.82357e-06 0)
(-1.85988 -1.79932e-06 0)
(-1.85165 -1.77554e-06 0)
(-1.84352 -1.75223e-06 0)
(-1.83547 -1.72937e-06 0)
(-1.82751 -1.70695e-06 0)
(-1.81964 -1.68496e-06 0)
(-1.81185 -1.66339e-06 0)
(-1.80413 -1.64223e-06 0)
(-1.7965 -1.62146e-06 0)
(-1.78895 -1.60108e-06 0)
(-1.78147 -1.58107e-06 0)
(-1.77407 -1.56143e-06 0)
(-1.76675 -1.54215e-06 0)
(-1.7595 -1.52322e-06 0)
(-1.75231 -1.50463e-06 0)
(-1.7452 -1.48638e-06 0)
(-1.73816 -1.46844e-06 0)
(-1.73119 -1.45083e-06 0)
(-1.72428 -1.43352e-06 0)
(-1.71745 -1.41652e-06 0)
(-1.71067 -1.39981e-06 0)
(-1.70396 -1.38338e-06 0)
(-1.69731 -1.36724e-06 0)
(-1.69073 -1.35137e-06 0)
(-1.6842 -1.33577e-06 0)
(-1.67774 -1.32044e-06 0)
(-1.67133 -1.30535e-06 0)
(-1.66498 -1.29052e-06 0)
(-1.65869 -1.27594e-06 0)
(-1.65246 -1.26159e-06 0)
(-1.64628 -1.24748e-06 0)
(-1.64015 -1.23359e-06 0)
(-1.63408 -1.21993e-06 0)
(-1.62806 -1.20649e-06 0)
(-1.6221 -1.19327e-06 0)
(-1.61618 -1.18025e-06 0)
(-1.61032 -1.16744e-06 0)
(-1.6045 -1.15484e-06 0)
(-1.59874 -1.14245e-06 0)
(-1.59302 -1.13012e-06 0)
(-1.58735 -1.11844e-06 0)
(-1.58173 -1.10634e-06 0)
(-1.57615 -1.0932e-06 0)
(-1.57094 -1.08302e-06 0)
(-1.56604 -1.07479e-06 0)
(-1.56112 -1.06444e-06 0)
(-1.55621 -1.05375e-06 0)
(-1.55129 -1.04374e-06 0)
(-1.54636 -1.03371e-06 0)
(-1.54143 -1.02379e-06 0)
(-1.53649 -1.01394e-06 0)
(-1.53155 -1.00415e-06 0)
(-1.5266 -9.94421e-07 0)
(-1.52164 -9.8475e-07 0)
(-1.51669 -9.75136e-07 0)
(-1.51172 -9.65577e-07 0)
(-1.50675 -9.56073e-07 0)
(-1.50178 -9.46625e-07 0)
(-1.4968 -9.37232e-07 0)
(-1.49182 -9.27894e-07 0)
(-1.48683 -9.18612e-07 0)
(-1.48184 -9.09385e-07 0)
(-1.47685 -9.00213e-07 0)
(-1.47186 -8.91098e-07 0)
(-1.46686 -8.82039e-07 0)
(-1.46185 -8.73037e-07 0)
(-1.45685 -8.64091e-07 0)
(-1.45184 -8.55202e-07 0)
(-1.44683 -8.46371e-07 0)
(-1.44182 -8.37596e-07 0)
(-1.43681 -8.2888e-07 0)
(-1.43179 -8.20221e-07 0)
(-1.42678 -8.1162e-07 0)
(-1.42176 -8.03077e-07 0)
(-1.41674 -7.94592e-07 0)
(-1.41172 -7.86167e-07 0)
(-1.4067 -7.77799e-07 0)
(-1.40168 -7.69491e-07 0)
(-1.39666 -7.61241e-07 0)
(-1.39164 -7.5305e-07 0)
(-1.38662 -7.44919e-07 0)
(-1.3816 -7.36846e-07 0)
(-1.37658 -7.28833e-07 0)
(-1.37156 -7.2088e-07 0)
(-1.36654 -7.12985e-07 0)
(-1.36152 -7.05151e-07 0)
(-1.35651 -6.97375e-07 0)
(-1.35149 -6.8966e-07 0)
(-1.34648 -6.82004e-07 0)
(-1.34147 -6.74407e-07 0)
(-1.33646 -6.66871e-07 0)
(-1.33146 -6.59394e-07 0)
(-1.32645 -6.51976e-07 0)
(-1.32145 -6.44618e-07 0)
(-1.31645 -6.3732e-07 0)
(-1.31146 -6.30081e-07 0)
(-1.30646 -6.22901e-07 0)
(-1.30147 -6.15782e-07 0)
(-1.29649 -6.08721e-07 0)
(-1.29151 -6.0172e-07 0)
(-1.28653 -5.94777e-07 0)
(-1.28155 -5.87894e-07 0)
(-1.27658 -5.8107e-07 0)
(-1.27162 -5.74305e-07 0)
(-1.26666 -5.67599e-07 0)
(-1.2617 -5.60951e-07 0)
(-1.25675 -5.54362e-07 0)
(-1.2518 -5.47831e-07 0)
(-1.24686 -5.41359e-07 0)
(-1.24193 -5.34945e-07 0)
(-1.237 -5.28588e-07 0)
(-1.23207 -5.22289e-07 0)
(-1.22715 -5.16048e-07 0)
(-1.22224 -5.09865e-07 0)
(-1.21733 -5.03738e-07 0)
(-1.21243 -4.97669e-07 0)
(-1.20754 -4.91656e-07 0)
(-1.20265 -4.857e-07 0)
(-1.19777 -4.79801e-07 0)
(-1.1929 -4.73958e-07 0)
(-1.18803 -4.6817e-07 0)
(-1.18317 -4.62439e-07 0)
(-1.17832 -4.56763e-07 0)
(-1.17348 -4.51142e-07 0)
(-1.16864 -4.45576e-07 0)
(-1.16382 -4.40066e-07 0)
(-1.159 -4.34609e-07 0)
(-1.15418 -4.29207e-07 0)
(-1.14938 -4.23859e-07 0)
(-1.14458 -4.18565e-07 0)
(-1.1398 -4.13324e-07 0)
(-1.13502 -4.08136e-07 0)
(-1.13025 -4.03002e-07 0)
(-1.12549 -3.9792e-07 0)
(-1.12074 -3.9289e-07 0)
(-1.11599 -3.87912e-07 0)
(-1.11126 -3.82986e-07 0)
(-1.10654 -3.78112e-07 0)
(-1.10182 -3.73288e-07 0)
(-1.09712 -3.68516e-07 0)
(-1.09242 -3.63794e-07 0)
(-1.08774 -3.59122e-07 0)
(-1.08306 -3.545e-07 0)
(-1.07839 -3.49928e-07 0)
(-1.07374 -3.45405e-07 0)
(-1.06909 -3.40931e-07 0)
(-1.06446 -3.36506e-07 0)
(-1.05984 -3.32129e-07 0)
(-1.05522 -3.278e-07 0)
(-1.05062 -3.23518e-07 0)
(-1.04603 -3.19284e-07 0)
(-1.04145 -3.15097e-07 0)
(-1.03688 -3.10956e-07 0)
(-1.03232 -3.06862e-07 0)
(-1.02777 -3.02813e-07 0)
(-1.02323 -2.98811e-07 0)
(-1.01871 -2.94853e-07 0)
(-1.0142 -2.9094e-07 0)
(-1.00969 -2.87072e-07 0)
(-1.0052 -2.83249e-07 0)
(-1.00073 -2.79469e-07 0)
(-0.996259 -2.75732e-07 0)
(-0.991804 -2.72039e-07 0)
(-0.987361 -2.68389e-07 0)
(-0.98293 -2.64781e-07 0)
(-0.978511 -2.61215e-07 0)
(-0.974104 -2.57692e-07 0)
(-0.969709 -2.54209e-07 0)
(-0.965327 -2.50768e-07 0)
(-0.960958 -2.47367e-07 0)
(-0.9566 -2.44007e-07 0)
(-0.952256 -2.40687e-07 0)
(-0.947923 -2.37406e-07 0)
(-0.943604 -2.34165e-07 0)
(-0.939297 -2.30963e-07 0)
(-0.935003 -2.27799e-07 0)
(-0.930722 -2.24674e-07 0)
(-0.926453 -2.21586e-07 0)
(-0.922198 -2.18537e-07 0)
(-0.917956 -2.15524e-07 0)
(-0.913726 -2.12548e-07 0)
(-0.90951 -2.09609e-07 0)
(-0.905307 -2.06706e-07 0)
(-0.901117 -2.03839e-07 0)
(-0.896941 -2.01008e-07 0)
(-0.892777 -1.98212e-07 0)
(-0.888627 -1.9545e-07 0)
(-0.884491 -1.92723e-07 0)
(-0.880368 -1.9003e-07 0)
(-0.876258 -1.87371e-07 0)
(-0.872162 -1.84746e-07 0)
(-0.868079 -1.82153e-07 0)
(-0.86401 -1.79594e-07 0)
(-0.859955 -1.77067e-07 0)
(-0.855913 -1.74572e-07 0)
(-0.851885 -1.72109e-07 0)
(-0.84787 -1.69677e-07 0)
(-0.843869 -1.67277e-07 0)
(-0.839882 -1.64907e-07 0)
(-0.835909 -1.62568e-07 0)
(-0.83195 -1.60259e-07 0)
(-0.828005 -1.5798e-07 0)
(-0.824073 -1.5573e-07 0)
(-0.820155 -1.5351e-07 0)
(-0.816251 -1.51319e-07 0)
(-0.812362 -1.49156e-07 0)
(-0.808486 -1.47022e-07 0)
(-0.804624 -1.44916e-07 0)
(-0.800776 -1.42837e-07 0)
(-0.796942 -1.40786e-07 0)
(-0.793122 -1.38761e-07 0)
(-0.789316 -1.36764e-07 0)
(-0.785524 -1.34793e-07 0)
(-0.781747 -1.32848e-07 0)
(-0.777983 -1.30928e-07 0)
(-0.774233 -1.29035e-07 0)
(-0.770498 -1.27166e-07 0)
(-0.766776 -1.25322e-07 0)
(-0.763069 -1.23501e-07 0)
(-0.759376 -1.21708e-07 0)
(-0.755697 -1.19932e-07 0)
(-0.752033 -1.18144e-07 0)
(-0.748384 -1.16506e-07 0)
(-0.744743 -1.14879e-07 0)
(-0.740711 -1.12892e-07 0)
(-0.736338 -1.10781e-07 0)
(-0.732044 -1.08881e-07 0)
(-0.72782 -1.07083e-07 0)
(-0.723667 -1.05273e-07 0)
(-0.719584 -1.03498e-07 0)
(-0.71557 -1.01768e-07 0)
(-0.711622 -1.00085e-07 0)
(-0.707739 -9.84472e-08 0)
(-0.70392 -9.68529e-08 0)
(-0.700162 -9.53008e-08 0)
(-0.696464 -9.37897e-08 0)
(-0.692825 -9.23181e-08 0)
(-0.689242 -9.08847e-08 0)
(-0.685714 -8.94879e-08 0)
(-0.682241 -8.81266e-08 0)
(-0.67882 -8.67995e-08 0)
(-0.67545 -8.55054e-08 0)
(-0.67213 -8.42432e-08 0)
(-0.668859 -8.30118e-08 0)
(-0.665636 -8.18101e-08 0)
(-0.662459 -8.06371e-08 0)
(-0.659328 -7.9492e-08 0)
(-0.65624 -7.83738e-08 0)
(-0.653196 -7.72815e-08 0)
(-0.650194 -7.62145e-08 0)
(-0.647233 -7.51718e-08 0)
(-0.644313 -7.41527e-08 0)
(-0.641432 -7.31565e-08 0)
(-0.63859 -7.21824e-08 0)
(-0.635785 -7.12299e-08 0)
(-0.633017 -7.02981e-08 0)
(-0.630285 -6.93865e-08 0)
(-0.627589 -6.84946e-08 0)
(-0.624927 -6.76216e-08 0)
(-0.622299 -6.67671e-08 0)
(-0.619703 -6.59305e-08 0)
(-0.617141 -6.51113e-08 0)
(-0.614609 -6.43091e-08 0)
(-0.612109 -6.35232e-08 0)
(-0.60964 -6.27533e-08 0)
(-0.6072 -6.19989e-08 0)
(-0.604789 -6.12596e-08 0)
(-0.602407 -6.0535e-08 0)
(-0.600053 -5.98247e-08 0)
(-0.597727 -5.91282e-08 0)
(-0.595428 -5.84453e-08 0)
(-0.593155 -5.77756e-08 0)
(-0.590908 -5.71186e-08 0)
(-0.588686 -5.64742e-08 0)
(-0.586489 -5.5842e-08 0)
(-0.584317 -5.52216e-08 0)
(-0.582169 -5.46128e-08 0)
(-0.580045 -5.40152e-08 0)
(-0.577943 -5.34287e-08 0)
(-0.575865 -5.2853e-08 0)
(-0.573809 -5.22877e-08 0)
(-0.571774 -5.17326e-08 0)
(-0.569761 -5.11876e-08 0)
(-0.56777 -5.06523e-08 0)
(-0.565799 -5.01266e-08 0)
(-0.563848 -4.96103e-08 0)
(-0.561917 -4.91031e-08 0)
(-0.560007 -4.86049e-08 0)
(-0.558115 -4.81154e-08 0)
(-0.556242 -4.76346e-08 0)
(-0.554388 -4.71623e-08 0)
(-0.552553 -4.66982e-08 0)
(-0.550735 -4.62424e-08 0)
(-0.548935 -4.57946e-08 0)
(-0.547152 -4.53548e-08 0)
(-0.545387 -4.49229e-08 0)
(-0.543638 -4.44988e-08 0)
(-0.541905 -4.40825e-08 0)
(-0.540189 -4.36741e-08 0)
(-0.538489 -4.32735e-08 0)
(-0.536804 -4.28809e-08 0)
(-0.535134 -4.24965e-08 0)
(-0.533479 -4.21205e-08 0)
(-0.531839 -4.17535e-08 0)
(-0.530213 -4.13959e-08 0)
(-0.5286 -4.10487e-08 0)
(-0.527001 -4.07134e-08 0)
(-0.525415 -4.03912e-08 0)
(-0.523841 -4.00853e-08 0)
(-0.522279 -3.98082e-08 0)
(-0.520727 -3.95294e-08 0)
(-0.519187 -3.93085e-08 0)
(-0.517652 -3.93694e-08 0)
(-0.516107 -3.86882e-08 0)
(-0.514625 -3.78189e-08 0)
(-0.513148 -4.99803e-08 0)
(-0.510715 -1.3989e-08 0)
(-0.512065 -3.68951e-08 0)
(-0.507785 -5.56317e-08 0)
)
;
    }
    symmetry
    {
        type            symmetryPlane;
    }
    frontAndBack
    {
        type            empty;
    }
}


// ************************************************************************* //
