/*--------------------------------*- C++ -*----------------------------------*\
| =========                 |                                                 |
| \\      /  F ield         | OpenFOAM: The Open Source CFD Toolbox           |
|  \\    /   O peration     | Version:  v2012                                 |
|   \\  /    A nd           | Website:  www.openfoam.com                      |
|    \\/     M anipulation  |                                                 |
\*---------------------------------------------------------------------------*/
FoamFile
{
    version     2.0;
    format      ascii;
    class       volScalarField;
    location    "49.5";
    object      k;
}
// * * * * * * * * * * * * * * * * * * * * * * * * * * * * * * * * * * * * * //

dimensions      [0 2 -2 0 0 0 0];


internalField   nonuniform List<scalar> 
209825
(
0.00102405
0.000932103
0.000855988
0.000792911
0.000741179
0.000698972
0.000664643
0.000636543
0.000613444
0.000594229
0.000578159
0.000564547
0.00055297
0.000543004
0.0005344
0.000526895
0.000520331
0.000514543
0.000509424
0.00050487
0.0005008
0.000497156
0.000493867
0.000490911
0.000488214
0.000485785
0.000483547
0.00048153
0.000479653
0.000477961
0.000476372
0.000474943
0.000473585
0.000472369
0.0004712
0.000470161
0.000469149
0.000468255
0.000467372
0.000466599
0.000465828
0.000465156
0.000464478
0.000463896
0.000463297
0.000462788
0.000462258
0.000461815
0.000461344
0.000460956
0.000460536
0.000460195
0.000459818
0.000459525
0.000459185
0.00045893
0.000458628
0.000458403
0.000458135
0.000457936
0.0004577
0.000457522
0.000457313
0.000457157
0.000456965
0.000456834
0.000456663
0.000456545
0.000456387
0.000456282
0.000456144
0.000456058
0.000455942
0.000455872
0.000455767
0.0004557
0.0004556
0.000455537
0.000455444
0.000455388
0.000455303
0.000455255
0.000455181
0.000455141
0.000455079
0.000455048
0.000454991
0.000454967
0.000454938
0.000454921
0.000454873
0.000454907
0.000455068
0.000462441
0.000486065
0.00117855
0.00102405
0.000932103
0.000855988
0.000792911
0.000741179
0.000698971
0.000664641
0.000636541
0.000613441
0.000594225
0.000578154
0.000564542
0.000552964
0.000542997
0.000534393
0.000526887
0.000520323
0.000514535
0.000509415
0.000504861
0.00050079
0.000497147
0.000493857
0.000490901
0.000488204
0.000485774
0.000483537
0.000481519
0.000479642
0.00047795
0.000476361
0.000474932
0.000473573
0.000472358
0.000471189
0.00047015
0.000469138
0.000468243
0.00046736
0.000466587
0.000465816
0.000465144
0.000464466
0.000463883
0.000463284
0.000462776
0.000462246
0.000461802
0.000461332
0.000460944
0.000460524
0.000460183
0.000459805
0.000459512
0.000459172
0.000458917
0.000458615
0.00045839
0.000458122
0.000457924
0.000457688
0.000457509
0.0004573
0.000457144
0.000456952
0.000456821
0.00045665
0.000456532
0.000456374
0.000456269
0.000456131
0.000456044
0.000455929
0.000455859
0.000455754
0.000455687
0.000455587
0.000455524
0.000455431
0.000455374
0.00045529
0.000455242
0.000455168
0.000455128
0.000455065
0.000455035
0.000454978
0.000454954
0.000454925
0.000454908
0.000454859
0.000454894
0.000455055
0.000462441
0.000486059
0.00117921
0.00102405
0.000932103
0.000855989
0.000792911
0.000741177
0.000698966
0.000664633
0.000636529
0.000613425
0.000594207
0.000578133
0.000564518
0.000552937
0.000542968
0.000534363
0.000526855
0.00052029
0.0005145
0.000509379
0.000504824
0.000500752
0.000497108
0.000493817
0.00049086
0.000488162
0.000485732
0.000483494
0.000481476
0.000479599
0.000477906
0.000476316
0.000474887
0.000473528
0.000472312
0.000471143
0.000470103
0.000469091
0.000468196
0.000467313
0.000466539
0.000465768
0.000465096
0.000464417
0.000463835
0.000463236
0.000462727
0.000462197
0.000461753
0.000461283
0.000460894
0.000460474
0.000460133
0.000459755
0.000459462
0.000459122
0.000458867
0.000458565
0.00045834
0.000458072
0.000457873
0.000457637
0.000457458
0.000457249
0.000457093
0.000456901
0.00045677
0.000456599
0.000456481
0.000456322
0.000456218
0.000456079
0.000455993
0.000455878
0.000455807
0.000455702
0.000455636
0.000455535
0.000455472
0.000455379
0.000455322
0.000455238
0.00045519
0.000455116
0.000455076
0.000455013
0.000454983
0.000454925
0.000454901
0.000454872
0.000454855
0.000454806
0.000454841
0.000455003
0.000462416
0.000486019
0.00118055
0.00102405
0.000932103
0.00085599
0.000792911
0.000741174
0.000698957
0.000664618
0.000636509
0.000613399
0.000594175
0.000578097
0.000564477
0.000552893
0.000542921
0.000534312
0.000526801
0.000520233
0.000514441
0.000509318
0.000504761
0.000500688
0.000497042
0.00049375
0.000490791
0.000488093
0.000485661
0.000483422
0.000481403
0.000479525
0.000477832
0.000476241
0.000474811
0.000473451
0.000472235
0.000471065
0.000470025
0.000469012
0.000468116
0.000467233
0.000466459
0.000465688
0.000465015
0.000464336
0.000463754
0.000463154
0.000462645
0.000462115
0.00046167
0.0004612
0.000460811
0.000460391
0.000460049
0.000459671
0.000459378
0.000459038
0.000458783
0.00045848
0.000458255
0.000457987
0.000457788
0.000457552
0.000457373
0.000457163
0.000457007
0.000456815
0.000456684
0.000456513
0.000456395
0.000456236
0.000456132
0.000455993
0.000455906
0.000455791
0.00045572
0.000455616
0.000455549
0.000455448
0.000455385
0.000455292
0.000455235
0.000455151
0.000455102
0.000455028
0.000454988
0.000454925
0.000454895
0.000454837
0.000454813
0.000454784
0.000454767
0.000454718
0.000454752
0.000454915
0.00046237
0.00048595
0.00118222
0.00102405
0.000932104
0.000855992
0.000792911
0.000741169
0.000698946
0.000664598
0.00063648
0.000613363
0.000594131
0.000578046
0.00056442
0.00055283
0.000542853
0.00053424
0.000526725
0.000520154
0.000514359
0.000509232
0.000504673
0.000500597
0.000496949
0.000493655
0.000490695
0.000487994
0.000485562
0.000483321
0.000481301
0.000479421
0.000477727
0.000476135
0.000474704
0.000473344
0.000472126
0.000470955
0.000469915
0.000468901
0.000468005
0.000467121
0.000466347
0.000465574
0.000464901
0.000464222
0.000463639
0.000463039
0.000462529
0.000461999
0.000461554
0.000461083
0.000460694
0.000460273
0.000459932
0.000459553
0.00045926
0.000458919
0.000458664
0.000458361
0.000458136
0.000457867
0.000457668
0.000457431
0.000457253
0.000457043
0.000456887
0.000456694
0.000456563
0.000456392
0.000456273
0.000456115
0.00045601
0.000455871
0.000455784
0.000455669
0.000455598
0.000455493
0.000455426
0.000455325
0.000455262
0.000455169
0.000455112
0.000455028
0.000454979
0.000454905
0.000454865
0.000454801
0.000454771
0.000454713
0.000454689
0.00045466
0.000454643
0.000454593
0.000454627
0.000454791
0.000462305
0.000485852
0.0011841
0.00102405
0.000932105
0.000855994
0.000792911
0.000741163
0.00069893
0.000664572
0.000636443
0.000613315
0.000594074
0.00057798
0.000564346
0.000552749
0.000542766
0.000534147
0.000526627
0.000520051
0.000514251
0.000509121
0.000504559
0.00050048
0.000496829
0.000493532
0.00049057
0.000487867
0.000485432
0.00048319
0.000481168
0.000479287
0.000477591
0.000475997
0.000474566
0.000473204
0.000471985
0.000470814
0.000469772
0.000468757
0.00046786
0.000466976
0.0004662
0.000465428
0.000464754
0.000464074
0.00046349
0.000462889
0.000462379
0.000461848
0.000461403
0.000460932
0.000460542
0.000460121
0.000459779
0.0004594
0.000459106
0.000458766
0.000458509
0.000458207
0.000457981
0.000457712
0.000457513
0.000457276
0.000457097
0.000456887
0.00045673
0.000456538
0.000456406
0.000456235
0.000456116
0.000455957
0.000455852
0.000455713
0.000455626
0.00045551
0.00045544
0.000455334
0.000455267
0.000455166
0.000455103
0.000455009
0.000454953
0.000454868
0.000454819
0.000454745
0.000454704
0.000454641
0.00045461
0.000454552
0.000454528
0.000454499
0.000454481
0.000454431
0.000454465
0.00045463
0.00046222
0.000485725
0.00118615
0.00102405
0.000932106
0.000855997
0.000792911
0.000741155
0.000698911
0.00066454
0.000636398
0.000613257
0.000594004
0.000577899
0.000564255
0.000552649
0.000542658
0.000534032
0.000526506
0.000519924
0.000514119
0.000508985
0.000504418
0.000500335
0.00049668
0.000493381
0.000490415
0.00048771
0.000485273
0.000483028
0.000481004
0.000479121
0.000477423
0.000475828
0.000474395
0.000473032
0.000471812
0.000470639
0.000469596
0.00046858
0.000467682
0.000466796
0.00046602
0.000465246
0.000464572
0.000463891
0.000463307
0.000462705
0.000462194
0.000461663
0.000461217
0.000460745
0.000460355
0.000459933
0.000459591
0.000459211
0.000458917
0.000458576
0.000458319
0.000458016
0.00045779
0.000457521
0.000457321
0.000457084
0.000456905
0.000456694
0.000456537
0.000456344
0.000456213
0.000456041
0.000455922
0.000455763
0.000455658
0.000455518
0.000455431
0.000455315
0.000455244
0.000455139
0.000455071
0.00045497
0.000454907
0.000454813
0.000454756
0.000454671
0.000454622
0.000454547
0.000454507
0.000454443
0.000454412
0.000454354
0.00045433
0.0004543
0.000454282
0.000454231
0.000454266
0.000454433
0.000462117
0.000485569
0.00118827
0.00102404
0.000932108
0.000856
0.000792911
0.000741146
0.000698889
0.000664502
0.000636344
0.000613188
0.00059392
0.000577802
0.000564147
0.00055253
0.000542529
0.000533895
0.000526361
0.000519773
0.000513962
0.000508822
0.00050425
0.000500162
0.000496504
0.0004932
0.000490231
0.000487523
0.000485083
0.000482835
0.000480809
0.000478923
0.000477223
0.000475626
0.000474191
0.000472826
0.000471605
0.00047043
0.000469386
0.000468369
0.00046747
0.000466583
0.000465805
0.00046503
0.000464355
0.000463673
0.000463088
0.000462486
0.000461974
0.000461441
0.000460995
0.000460522
0.000460132
0.000459709
0.000459366
0.000458986
0.000458692
0.00045835
0.000458093
0.000457789
0.000457563
0.000457293
0.000457093
0.000456855
0.000456675
0.000456464
0.000456307
0.000456114
0.000455982
0.00045581
0.000455691
0.000455531
0.000455426
0.000455286
0.000455199
0.000455082
0.000455011
0.000454905
0.000454838
0.000454736
0.000454673
0.000454578
0.000454521
0.000454436
0.000454387
0.000454312
0.000454271
0.000454207
0.000454176
0.000454117
0.000454093
0.000454063
0.000454045
0.000453992
0.000454027
0.000454197
0.000461994
0.000485384
0.00119032
0.00102404
0.000932109
0.000856004
0.000792911
0.000741136
0.000698863
0.000664459
0.000636281
0.000613107
0.000593823
0.00057769
0.000564021
0.000552392
0.00054238
0.000533736
0.000526194
0.000519597
0.000513779
0.000508632
0.000504054
0.000499962
0.000496298
0.00049299
0.000490017
0.000487305
0.000484861
0.00048261
0.000480581
0.000478693
0.000476991
0.000475391
0.000473954
0.000472587
0.000471364
0.000470187
0.000469141
0.000468123
0.000467222
0.000466334
0.000465555
0.000464779
0.000464102
0.000463419
0.000462833
0.00046223
0.000461717
0.000461184
0.000460737
0.000460263
0.000459872
0.000459448
0.000459105
0.000458724
0.000458429
0.000458086
0.000457829
0.000457524
0.000457297
0.000457027
0.000456826
0.000456588
0.000456408
0.000456197
0.000456039
0.000455845
0.000455713
0.000455541
0.000455421
0.000455261
0.000455156
0.000455016
0.000454928
0.000454811
0.000454739
0.000454634
0.000454566
0.000454464
0.0004544
0.000454305
0.000454248
0.000454162
0.000454113
0.000454037
0.000453996
0.000453932
0.000453901
0.000453842
0.000453817
0.000453786
0.000453768
0.000453715
0.000453749
0.000453922
0.000461854
0.000485169
0.00119208
0.00102404
0.000932111
0.000856008
0.000792912
0.000741125
0.000698834
0.000664409
0.00063621
0.000613016
0.000593713
0.000577562
0.000563877
0.000552235
0.00054221
0.000533554
0.000526002
0.000519396
0.00051357
0.000508416
0.000503831
0.000499732
0.000496063
0.00049275
0.000489772
0.000487055
0.000484608
0.000482354
0.000480321
0.00047843
0.000476725
0.000475123
0.000473683
0.000472313
0.000471088
0.000469909
0.000468862
0.000467841
0.000466939
0.000466049
0.000465269
0.000464491
0.000463813
0.000463129
0.000462542
0.000461937
0.000461424
0.000460889
0.000460441
0.000459966
0.000459574
0.00045915
0.000458806
0.000458424
0.000458128
0.000457785
0.000457527
0.000457222
0.000456994
0.000456723
0.000456522
0.000456283
0.000456103
0.00045589
0.000455733
0.000455538
0.000455405
0.000455232
0.000455113
0.000454952
0.000454847
0.000454706
0.000454618
0.000454501
0.000454429
0.000454322
0.000454254
0.000454152
0.000454088
0.000453993
0.000453935
0.000453849
0.000453799
0.000453724
0.000453682
0.000453618
0.000453586
0.000453527
0.000453501
0.00045347
0.000453452
0.000453397
0.000453432
0.000453607
0.000461696
0.000484924
0.00119323
0.00102404
0.000932113
0.000856013
0.000792912
0.000741112
0.000698801
0.000664352
0.00063613
0.000612913
0.000593588
0.000577418
0.000563716
0.000552057
0.000542018
0.00053335
0.000525786
0.000519169
0.000513334
0.000508171
0.000503579
0.000499473
0.000495798
0.000492479
0.000489496
0.000486775
0.000484323
0.000482064
0.000480028
0.000478133
0.000476425
0.000474819
0.000473377
0.000472005
0.000470777
0.000469596
0.000468546
0.000467524
0.000466619
0.000465728
0.000464946
0.000464167
0.000463487
0.000462801
0.000462213
0.000461607
0.000461092
0.000460557
0.000460107
0.000459632
0.000459238
0.000458813
0.000458468
0.000458086
0.000457789
0.000457445
0.000457186
0.00045688
0.000456652
0.00045638
0.000456178
0.000455939
0.000455758
0.000455545
0.000455387
0.000455192
0.000455058
0.000454885
0.000454765
0.000454604
0.000454498
0.000454357
0.000454268
0.00045415
0.000454078
0.000453971
0.000453903
0.0004538
0.000453736
0.00045364
0.000453582
0.000453496
0.000453446
0.000453369
0.000453328
0.000453263
0.000453231
0.000453171
0.000453145
0.000453114
0.000453094
0.000453038
0.000453073
0.000453253
0.000461521
0.000484649
0.00119335
0.00102404
0.000932116
0.000856019
0.000792913
0.000741097
0.000698764
0.00066429
0.000636041
0.000612798
0.00059345
0.000577258
0.000563536
0.000551859
0.000541804
0.000533122
0.000525545
0.000518917
0.000513071
0.000507899
0.000503299
0.000499185
0.000495503
0.000492177
0.000489188
0.000486461
0.000484005
0.000481741
0.000479701
0.000477802
0.00047609
0.000474481
0.000473036
0.000471661
0.00047043
0.000469246
0.000468194
0.000467169
0.000466263
0.000465369
0.000464586
0.000463805
0.000463124
0.000462436
0.000461846
0.000461239
0.000460723
0.000460186
0.000459735
0.000459258
0.000458864
0.000458438
0.000458092
0.000457708
0.00045741
0.000457065
0.000456806
0.000456499
0.00045627
0.000455997
0.000455795
0.000455554
0.000455373
0.000455159
0.000455001
0.000454805
0.000454671
0.000454497
0.000454377
0.000454215
0.000454108
0.000453967
0.000453878
0.00045376
0.000453687
0.00045358
0.000453511
0.000453408
0.000453343
0.000453247
0.000453189
0.000453102
0.000453051
0.000452974
0.000452932
0.000452866
0.000452834
0.000452774
0.000452747
0.000452716
0.000452696
0.000452638
0.000452673
0.000452857
0.000461328
0.000484343
0.00119207
0.00102404
0.000932118
0.000856025
0.000792914
0.000741082
0.000698725
0.000664222
0.000635944
0.000612672
0.000593297
0.000577081
0.000563337
0.000551641
0.000541569
0.00053287
0.000525279
0.000518639
0.000512781
0.000507599
0.000502989
0.000498867
0.000495176
0.000491844
0.000488848
0.000486115
0.000483653
0.000481385
0.000479339
0.000477436
0.00047572
0.000474108
0.000472659
0.00047128
0.000470047
0.00046886
0.000467805
0.000466778
0.000465869
0.000464973
0.000464188
0.000463404
0.000462722
0.000462032
0.00046144
0.000460831
0.000460314
0.000459775
0.000459324
0.000458845
0.00045845
0.000458022
0.000457675
0.00045729
0.000456992
0.000456646
0.000456385
0.000456077
0.000455848
0.000455574
0.000455371
0.00045513
0.000454947
0.000454733
0.000454574
0.000454377
0.000454243
0.000454068
0.000453947
0.000453785
0.000453678
0.000453536
0.000453446
0.000453327
0.000453254
0.000453146
0.000453077
0.000452974
0.000452908
0.000452812
0.000452753
0.000452666
0.000452615
0.000452537
0.000452495
0.000452428
0.000452395
0.000452335
0.000452308
0.000452275
0.000452255
0.000452196
0.000452231
0.00045242
0.000461118
0.000484005
0.00118939
0.00102404
0.000932121
0.000856032
0.000792914
0.000741065
0.000698681
0.000664148
0.000635837
0.000612535
0.000593131
0.000576888
0.00056312
0.000551403
0.000541311
0.000532595
0.000524988
0.000518334
0.000512464
0.00050727
0.000502649
0.000498518
0.000494819
0.000491478
0.000488476
0.000485736
0.000483268
0.000480994
0.000478943
0.000477035
0.000475315
0.000473698
0.000472245
0.000470863
0.000469626
0.000468436
0.000467379
0.000466348
0.000465437
0.000464539
0.000463751
0.000462965
0.000462281
0.000461589
0.000460995
0.000460385
0.000459866
0.000459325
0.000458872
0.000458392
0.000457996
0.000457567
0.000457219
0.000456832
0.000456533
0.000456185
0.000455924
0.000455615
0.000455384
0.00045511
0.000454906
0.000454663
0.00045448
0.000454265
0.000454105
0.000453908
0.000453773
0.000453597
0.000453476
0.000453313
0.000453206
0.000453063
0.000452973
0.000452853
0.000452779
0.000452671
0.000452601
0.000452497
0.000452431
0.000452334
0.000452275
0.000452187
0.000452135
0.000452058
0.000452014
0.000451947
0.000451914
0.000451853
0.000451825
0.000451792
0.000451771
0.00045171
0.000451746
0.00045194
0.000460891
0.000483636
0.00118534
0.00102404
0.000932123
0.000856039
0.000792915
0.000741047
0.000698634
0.000664067
0.000635722
0.000612386
0.00059295
0.000576679
0.000562885
0.000551144
0.00054103
0.000532296
0.000524672
0.000518002
0.000512118
0.000506912
0.00050228
0.000498138
0.000494429
0.00049108
0.00048807
0.000485323
0.000482848
0.000480568
0.000478511
0.000476598
0.000474873
0.000473252
0.000471795
0.000470408
0.000469168
0.000467975
0.000466914
0.00046588
0.000464966
0.000464065
0.000463275
0.000462487
0.0004618
0.000461106
0.000460511
0.000459898
0.000459377
0.000458835
0.00045838
0.000457898
0.0004575
0.00045707
0.000456721
0.000456333
0.000456032
0.000455683
0.000455421
0.000455111
0.000454879
0.000454603
0.000454398
0.000454155
0.000453971
0.000453755
0.000453595
0.000453396
0.00045326
0.000453084
0.000452962
0.000452799
0.000452691
0.000452547
0.000452456
0.000452336
0.000452262
0.000452153
0.000452082
0.000451978
0.000451911
0.000451814
0.000451754
0.000451665
0.000451613
0.000451535
0.000451491
0.000451423
0.000451389
0.000451328
0.000451299
0.000451265
0.000451244
0.000451181
0.000451216
0.000451417
0.000460645
0.000483232
0.00117994
0.00102403
0.000932126
0.000856047
0.000792917
0.000741028
0.000698584
0.000663981
0.000635598
0.000612225
0.000592755
0.000576452
0.00056263
0.000550863
0.000540727
0.000531972
0.00052433
0.000517643
0.000511744
0.000506524
0.00050188
0.000497726
0.000494008
0.00049065
0.00048763
0.000484875
0.000482393
0.000480106
0.000478044
0.000476125
0.000474394
0.000472768
0.000471306
0.000469916
0.000468671
0.000467474
0.00046641
0.000465373
0.000464456
0.000463552
0.000462759
0.000461968
0.000461279
0.000460583
0.000459985
0.00045937
0.000458847
0.000458303
0.000457847
0.000457363
0.000456964
0.000456531
0.000456181
0.000455791
0.000455489
0.000455139
0.000454875
0.000454564
0.000454331
0.000454054
0.000453848
0.000453604
0.00045342
0.000453202
0.000453041
0.000452841
0.000452705
0.000452528
0.000452405
0.000452241
0.000452132
0.000451988
0.000451896
0.000451775
0.0004517
0.000451591
0.00045152
0.000451414
0.000451348
0.000451249
0.000451189
0.000451099
0.000451047
0.000450967
0.000450923
0.000450855
0.00045082
0.000450758
0.000450729
0.000450694
0.000450672
0.000450607
0.000450643
0.000450851
0.000460382
0.000482795
0.00117321
0.00102403
0.000932129
0.000856055
0.000792918
0.000741008
0.000698531
0.000663889
0.000635465
0.000612053
0.000592546
0.000576209
0.000562356
0.000550562
0.000540401
0.000531624
0.000523961
0.000517257
0.000511341
0.000506107
0.000501449
0.000497283
0.000493554
0.000490185
0.000487157
0.000484393
0.000481903
0.000479609
0.00047754
0.000475615
0.000473878
0.000472247
0.00047078
0.000469385
0.000468136
0.000466935
0.000465867
0.000464826
0.000463906
0.000462998
0.000462202
0.000461409
0.000460717
0.000460018
0.000459418
0.000458801
0.000458276
0.000457729
0.000457271
0.000456786
0.000456385
0.00045595
0.000455598
0.000455207
0.000454904
0.000454552
0.000454287
0.000453974
0.00045374
0.000453462
0.000453255
0.00045301
0.000452824
0.000452605
0.000452443
0.000452243
0.000452106
0.000451927
0.000451804
0.000451639
0.00045153
0.000451384
0.000451292
0.00045117
0.000451095
0.000450984
0.000450913
0.000450807
0.000450739
0.00045064
0.000450579
0.000450489
0.000450436
0.000450356
0.000450311
0.000450241
0.000450206
0.000450144
0.000450113
0.000450078
0.000450055
0.000449988
0.000450024
0.000450239
0.0004601
0.00048232
0.0011652
0.00102403
0.000932133
0.000856064
0.00079292
0.000740986
0.000698474
0.00066379
0.000635323
0.000611869
0.000592322
0.00057595
0.000562064
0.00055024
0.000540052
0.000531251
0.000523567
0.000516843
0.00051091
0.000505659
0.000500987
0.000496808
0.000493066
0.000489687
0.000486648
0.000483876
0.000481377
0.000479075
0.000476999
0.000475067
0.000473324
0.000471687
0.000470215
0.000468815
0.000467561
0.000466355
0.000465283
0.000464239
0.000463315
0.000462404
0.000461605
0.000460808
0.000460113
0.000459411
0.000458809
0.000458189
0.000457662
0.000457113
0.000456653
0.000456165
0.000455763
0.000455326
0.000454973
0.00045458
0.000454275
0.000453922
0.000453655
0.000453341
0.000453106
0.000452826
0.000452618
0.000452371
0.000452184
0.000451964
0.000451802
0.0004516
0.000451462
0.000451282
0.000451158
0.000450992
0.000450882
0.000450736
0.000450643
0.00045052
0.000450444
0.000450333
0.000450261
0.000450154
0.000450086
0.000449986
0.000449924
0.000449833
0.000449779
0.000449698
0.000449653
0.000449582
0.000449547
0.000449483
0.000449452
0.000449416
0.000449392
0.000449323
0.000449358
0.000449583
0.000459798
0.000481808
0.00115595
0.00102403
0.000932136
0.000856073
0.000792922
0.000740964
0.000698414
0.000663686
0.000635172
0.000611673
0.000592084
0.000575673
0.000561751
0.000549896
0.00053968
0.000530853
0.000523145
0.000516401
0.000510449
0.000505181
0.000500493
0.0004963
0.000492546
0.000489155
0.000486105
0.000483323
0.000480815
0.000478505
0.00047642
0.000474481
0.000472732
0.000471088
0.000469611
0.000468205
0.000466946
0.000465736
0.000464659
0.000463611
0.000462683
0.000461768
0.000460965
0.000460165
0.000459468
0.000458763
0.000458158
0.000457535
0.000457006
0.000456454
0.000455992
0.000455502
0.000455097
0.000454659
0.000454303
0.000453908
0.000453602
0.000453247
0.000452979
0.000452663
0.000452426
0.000452145
0.000451936
0.000451687
0.0004515
0.000451278
0.000451115
0.000450912
0.000450772
0.000450592
0.000450467
0.0004503
0.000450189
0.000450042
0.000449948
0.000449825
0.000449748
0.000449635
0.000449563
0.000449455
0.000449386
0.000449285
0.000449223
0.000449131
0.000449077
0.000448994
0.000448948
0.000448877
0.000448841
0.000448776
0.000448744
0.000448707
0.000448683
0.000448611
0.000448647
0.00044888
0.000459474
0.000481254
0.00114549
0.00102403
0.00093214
0.000856083
0.000792924
0.000740941
0.000698351
0.000663576
0.000635013
0.000611466
0.000591832
0.000575379
0.00056142
0.000549531
0.000539284
0.000530429
0.000522697
0.00051593
0.000509958
0.000504672
0.000499968
0.00049576
0.000491992
0.000488588
0.000485527
0.000482734
0.000480216
0.000477897
0.000475804
0.000473857
0.000472101
0.00047045
0.000468966
0.000467555
0.000466291
0.000465075
0.000463994
0.000462941
0.000462009
0.00046109
0.000460284
0.00045948
0.000458779
0.000458071
0.000457463
0.000456837
0.000456305
0.000455751
0.000455287
0.000454794
0.000454387
0.000453947
0.00045359
0.000453192
0.000452884
0.000452527
0.000452257
0.00045194
0.000451702
0.000451419
0.000451208
0.000450958
0.00045077
0.000450547
0.000450382
0.000450178
0.000450037
0.000449856
0.00044973
0.000449562
0.00044945
0.000449302
0.000449207
0.000449082
0.000449005
0.000448891
0.000448818
0.000448709
0.00044864
0.000448538
0.000448475
0.000448382
0.000448327
0.000448244
0.000448197
0.000448124
0.000448087
0.000448022
0.000447989
0.000447951
0.000447926
0.000447851
0.000447887
0.000448131
0.000459128
0.000480657
0.0011339
0.00102402
0.000932144
0.000856094
0.000792926
0.000740916
0.000698285
0.00066346
0.000634845
0.000611247
0.000591565
0.000575069
0.000561069
0.000549144
0.000538865
0.000529981
0.000522222
0.000515431
0.000509438
0.000504132
0.00049941
0.000495186
0.000491403
0.000487986
0.000484912
0.000482108
0.00047958
0.000477251
0.000475149
0.000473194
0.00047143
0.000469772
0.000468282
0.000466864
0.000465595
0.000464373
0.000463287
0.000462229
0.000461293
0.000460369
0.000459559
0.000458752
0.000458047
0.000457335
0.000456724
0.000456096
0.000455561
0.000455004
0.000454537
0.000454041
0.000453632
0.000453189
0.00045283
0.000452431
0.000452121
0.000451762
0.00045149
0.000451171
0.000450931
0.000450647
0.000450435
0.000450183
0.000449993
0.000449769
0.000449603
0.000449397
0.000449256
0.000449072
0.000448946
0.000448777
0.000448664
0.000448515
0.000448419
0.000448293
0.000448215
0.0004481
0.000448026
0.000447916
0.000447846
0.000447743
0.00044768
0.000447586
0.00044753
0.000447445
0.000447398
0.000447324
0.000447286
0.00044722
0.000447186
0.000447146
0.000447121
0.000447044
0.00044708
0.000447334
0.000458756
0.000480013
0.00112121
0.00102402
0.000932147
0.000856105
0.000792929
0.000740891
0.000698216
0.000663339
0.000634669
0.000611017
0.000591284
0.000574741
0.000560699
0.000548736
0.000538422
0.000529507
0.00052172
0.000514904
0.000508887
0.000503561
0.00049882
0.000494579
0.00049078
0.000487348
0.000484262
0.000481445
0.000478906
0.000476567
0.000474456
0.000472492
0.00047072
0.000469054
0.000467557
0.000466132
0.000464857
0.000463629
0.000462538
0.000461474
0.000460534
0.000459606
0.000458791
0.000457979
0.000457272
0.000456556
0.000455942
0.000455309
0.000454772
0.000454212
0.000453742
0.000453244
0.000452832
0.000452387
0.000452026
0.000451624
0.000451312
0.000450951
0.000450677
0.000450356
0.000450114
0.000449828
0.000449614
0.000449361
0.00044917
0.000448943
0.000448777
0.000448569
0.000448427
0.000448242
0.000448115
0.000447944
0.000447831
0.00044768
0.000447584
0.000447456
0.000447377
0.000447261
0.000447186
0.000447075
0.000447005
0.000446901
0.000446836
0.000446741
0.000446684
0.000446599
0.00044655
0.000446475
0.000446436
0.00044637
0.000446335
0.000446294
0.000446267
0.000446187
0.000446224
0.000446489
0.000458353
0.000479321
0.00110749
0.00102402
0.000932151
0.000856117
0.000792933
0.000740865
0.000698144
0.000663212
0.000634484
0.000610775
0.000590989
0.000574396
0.00056031
0.000548306
0.000537955
0.000529007
0.00052119
0.000514347
0.000508306
0.000502958
0.000498197
0.000493938
0.000490122
0.000486675
0.000483575
0.000480746
0.000478195
0.000475844
0.000473723
0.00047175
0.000469969
0.000468295
0.00046679
0.000465359
0.000464077
0.000462843
0.000461746
0.000460677
0.000459731
0.000458798
0.000457979
0.000457163
0.000456451
0.000455732
0.000455114
0.000454478
0.000453937
0.000453374
0.000452901
0.0004524
0.000451986
0.000451538
0.000451175
0.00045077
0.000450456
0.000450093
0.000449817
0.000449494
0.00044925
0.000448962
0.000448747
0.000448491
0.000448299
0.000448071
0.000447903
0.000447693
0.00044755
0.000447364
0.000447235
0.000447064
0.000446949
0.000446797
0.000446699
0.000446571
0.00044649
0.000446373
0.000446298
0.000446186
0.000446114
0.000446009
0.000445944
0.000445847
0.000445789
0.000445703
0.000445653
0.000445577
0.000445538
0.00044547
0.000445434
0.000445391
0.000445364
0.000445281
0.000445318
0.000445595
0.000457915
0.000478579
0.0010928
0.00102402
0.000932155
0.000856129
0.000792936
0.000740838
0.000698069
0.00066308
0.00063429
0.000610522
0.000590679
0.000574035
0.000559901
0.000547854
0.000537464
0.000528482
0.000520633
0.000513762
0.000507695
0.000502324
0.000497541
0.000493263
0.00048943
0.000485966
0.000482851
0.000480008
0.000477445
0.000475083
0.000472951
0.000470967
0.000469178
0.000467495
0.000465982
0.000464543
0.000463254
0.000462014
0.000460911
0.000459836
0.000458885
0.000457946
0.000457123
0.000456302
0.000455586
0.000454862
0.000454241
0.000453601
0.000453057
0.00045249
0.000452014
0.00045151
0.000451093
0.000450642
0.000450276
0.000449869
0.000449553
0.000449187
0.00044891
0.000448584
0.000448339
0.000448048
0.000447831
0.000447574
0.00044738
0.00044715
0.00044698
0.000446769
0.000446624
0.000446437
0.000446307
0.000446134
0.000446018
0.000445865
0.000445766
0.000445636
0.000445555
0.000445437
0.00044536
0.000445247
0.000445174
0.000445068
0.000445002
0.000444904
0.000444845
0.000444757
0.000444707
0.00044463
0.000444589
0.00044452
0.000444483
0.000444439
0.00044441
0.000444325
0.000444362
0.000444651
0.000457434
0.000477785
0.00107722
0.00102401
0.000932159
0.000856142
0.00079294
0.000740811
0.000697991
0.000662942
0.000634089
0.000610258
0.000590356
0.000573657
0.000559473
0.00054738
0.00053695
0.00052793
0.000520049
0.000513147
0.000507053
0.000501657
0.000496852
0.000492553
0.000488702
0.000485221
0.00048209
0.000479233
0.000476656
0.000474282
0.000472139
0.000470145
0.000468345
0.000466653
0.000465132
0.000463685
0.000462389
0.000461141
0.000460032
0.00045895
0.000457994
0.00045705
0.000456222
0.000455396
0.000454675
0.000453947
0.000453321
0.000452677
0.00045213
0.000451559
0.000451081
0.000450573
0.000450154
0.000449699
0.000449331
0.000448921
0.000448602
0.000448234
0.000447954
0.000447626
0.000447378
0.000447086
0.000446867
0.000446607
0.000446412
0.00044618
0.000446009
0.000445796
0.00044565
0.00044546
0.00044533
0.000445155
0.000445038
0.000444883
0.000444784
0.000444652
0.00044457
0.00044445
0.000444372
0.000444258
0.000444185
0.000444077
0.00044401
0.00044391
0.000443851
0.000443761
0.00044371
0.000443631
0.00044359
0.000443519
0.000443481
0.000443436
0.000443406
0.000443317
0.000443355
0.000443657
0.000456902
0.000476935
0.0010608
0.00102401
0.000932163
0.000856155
0.000792945
0.000740783
0.000697911
0.000662799
0.000633879
0.000609983
0.000590018
0.000573262
0.000559025
0.000546885
0.000536412
0.000527353
0.000519437
0.000512504
0.000506381
0.000500959
0.00049613
0.000491809
0.000487938
0.00048444
0.000481292
0.000478419
0.000475829
0.000473441
0.000471286
0.000469281
0.000467471
0.00046577
0.00046424
0.000462784
0.00046148
0.000460225
0.000459109
0.000458021
0.000457058
0.000456108
0.000455275
0.000454443
0.000453719
0.000452985
0.000452356
0.000451707
0.000451156
0.000450581
0.0004501
0.000449588
0.000449166
0.000448708
0.000448337
0.000447924
0.000447603
0.000447232