/*--------------------------------*- C++ -*----------------------------------*\
| =========                 |                                                 |
| \\      /  F ield         | OpenFOAM: The Open Source CFD Toolbox           |
|  \\    /   O peration     | Version:  v2012                                 |
|   \\  /    A nd           | Website:  www.openfoam.com                      |
|    \\/     M anipulation  |                                                 |
\*---------------------------------------------------------------------------*/
FoamFile
{
    version     2.0;
    format      ascii;
    class       volScalarField;
    location    "49.5";
    object      nut;
}
// * * * * * * * * * * * * * * * * * * * * * * * * * * * * * * * * * * * * * //

dimensions      [0 2 -1 0 0 0 0];


internalField   nonuniform List<scalar> 
209825
(
1.2395e-07
1.2314e-07
1.22294e-07
1.21217e-07
1.19962e-07
1.18622e-07
1.17325e-07
1.16104e-07
1.15013e-07
1.14028e-07
1.1317e-07
1.12399e-07
1.11734e-07
1.11132e-07
1.10613e-07
1.1014e-07
1.09731e-07
1.09355e-07
1.0903e-07
1.08726e-07
1.08464e-07
1.08217e-07
1.08003e-07
1.078e-07
1.07624e-07
1.07455e-07
1.07309e-07
1.07167e-07
1.07044e-07
1.06924e-07
1.0682e-07
1.06718e-07
1.06629e-07
1.06542e-07
1.06465e-07
1.0639e-07
1.06323e-07
1.06258e-07
1.062e-07
1.06143e-07
1.06091e-07
1.06042e-07
1.05997e-07
1.05954e-07
1.05913e-07
1.05875e-07
1.05839e-07
1.05807e-07
1.05774e-07
1.05745e-07
1.05714e-07
1.05689e-07
1.05658e-07
1.05638e-07
1.0561e-07
1.05593e-07
1.05567e-07
1.05552e-07
1.0553e-07
1.05516e-07
1.05494e-07
1.05479e-07
1.05461e-07
1.05446e-07
1.05428e-07
1.05416e-07
1.05401e-07
1.05388e-07
1.05372e-07
1.05359e-07
1.05344e-07
1.05333e-07
1.05321e-07
1.05312e-07
1.05302e-07
1.05295e-07
1.05286e-07
1.05278e-07
1.05269e-07
1.05261e-07
1.05252e-07
1.05245e-07
1.05237e-07
1.0523e-07
1.05221e-07
1.05212e-07
1.052e-07
1.05188e-07
1.05181e-07
1.05167e-07
1.05156e-07
1.05146e-07
1.05165e-07
1.06172e-07
1.08868e-07
1.0419e-08
1.2395e-07
1.2314e-07
1.22294e-07
1.21217e-07
1.19963e-07
1.18622e-07
1.17325e-07
1.16104e-07
1.15014e-07
1.14028e-07
1.1317e-07
1.124e-07
1.11734e-07
1.11132e-07
1.10614e-07
1.1014e-07
1.09732e-07
1.09355e-07
1.0903e-07
1.08727e-07
1.08465e-07
1.08217e-07
1.08004e-07
1.07801e-07
1.07625e-07
1.07456e-07
1.07309e-07
1.07168e-07
1.07045e-07
1.06925e-07
1.06821e-07
1.06719e-07
1.0663e-07
1.06542e-07
1.06466e-07
1.06391e-07
1.06324e-07
1.06259e-07
1.062e-07
1.06144e-07
1.06092e-07
1.06043e-07
1.05997e-07
1.05954e-07
1.05913e-07
1.05876e-07
1.05839e-07
1.05807e-07
1.05774e-07
1.05746e-07
1.05715e-07
1.05689e-07
1.05658e-07
1.05639e-07
1.0561e-07
1.05593e-07
1.05568e-07
1.05553e-07
1.0553e-07
1.05516e-07
1.05495e-07
1.0548e-07
1.05462e-07
1.05447e-07
1.05429e-07
1.05416e-07
1.05401e-07
1.05389e-07
1.05372e-07
1.05359e-07
1.05344e-07
1.05333e-07
1.05321e-07
1.05313e-07
1.05303e-07
1.05296e-07
1.05286e-07
1.05279e-07
1.05269e-07
1.05262e-07
1.05252e-07
1.05246e-07
1.05237e-07
1.0523e-07
1.05222e-07
1.05213e-07
1.052e-07
1.05188e-07
1.05181e-07
1.05167e-07
1.05156e-07
1.05146e-07
1.05166e-07
1.06174e-07
1.08869e-07
1.0738e-08
1.2395e-07
1.2314e-07
1.22294e-07
1.21217e-07
1.19963e-07
1.18623e-07
1.17326e-07
1.16106e-07
1.15015e-07
1.14029e-07
1.13172e-07
1.12401e-07
1.11735e-07
1.11133e-07
1.10614e-07
1.10141e-07
1.09733e-07
1.09356e-07
1.0903e-07
1.08727e-07
1.08465e-07
1.08218e-07
1.08004e-07
1.07801e-07
1.07625e-07
1.07456e-07
1.07309e-07
1.07168e-07
1.07045e-07
1.06925e-07
1.0682e-07
1.06719e-07
1.06629e-07
1.06542e-07
1.06465e-07
1.0639e-07
1.06323e-07
1.06258e-07
1.062e-07
1.06143e-07
1.06091e-07
1.06042e-07
1.05997e-07
1.05954e-07
1.05913e-07
1.05875e-07
1.05839e-07
1.05807e-07
1.05773e-07
1.05745e-07
1.05714e-07
1.05688e-07
1.05658e-07
1.05638e-07
1.0561e-07
1.05593e-07
1.05567e-07
1.05552e-07
1.0553e-07
1.05515e-07
1.05494e-07
1.05479e-07
1.05461e-07
1.05446e-07
1.05428e-07
1.05416e-07
1.054e-07
1.05388e-07
1.05371e-07
1.05358e-07
1.05343e-07
1.05333e-07
1.0532e-07
1.05312e-07
1.05302e-07
1.05295e-07
1.05285e-07
1.05278e-07
1.05268e-07
1.05261e-07
1.05251e-07
1.05245e-07
1.05236e-07
1.0523e-07
1.05221e-07
1.05212e-07
1.05199e-07
1.05187e-07
1.05181e-07
1.05166e-07
1.05155e-07
1.05145e-07
1.05165e-07
1.06177e-07
1.0887e-07
1.11341e-08
1.2395e-07
1.23139e-07
1.22295e-07
1.21218e-07
1.19964e-07
1.18625e-07
1.17328e-07
1.16108e-07
1.15017e-07
1.14031e-07
1.13173e-07
1.12402e-07
1.11737e-07
1.11135e-07
1.10616e-07
1.10142e-07
1.09734e-07
1.09357e-07
1.09031e-07
1.08728e-07
1.08466e-07
1.08218e-07
1.08004e-07
1.07801e-07
1.07625e-07
1.07456e-07
1.07309e-07
1.07168e-07
1.07045e-07
1.06925e-07
1.0682e-07
1.06718e-07
1.06629e-07
1.06542e-07
1.06465e-07
1.0639e-07
1.06323e-07
1.06258e-07
1.06199e-07
1.06143e-07
1.06091e-07
1.06042e-07
1.05996e-07
1.05953e-07
1.05912e-07
1.05875e-07
1.05838e-07
1.05806e-07
1.05773e-07
1.05744e-07
1.05713e-07
1.05688e-07
1.05657e-07
1.05637e-07
1.05609e-07
1.05592e-07
1.05566e-07
1.05551e-07
1.05529e-07
1.05515e-07
1.05493e-07
1.05478e-07
1.0546e-07
1.05445e-07
1.05427e-07
1.05415e-07
1.05399e-07
1.05387e-07
1.0537e-07
1.05358e-07
1.05343e-07
1.05332e-07
1.0532e-07
1.05311e-07
1.05301e-07
1.05294e-07
1.05284e-07
1.05277e-07
1.05267e-07
1.0526e-07
1.0525e-07
1.05244e-07
1.05235e-07
1.05229e-07
1.0522e-07
1.05211e-07
1.05198e-07
1.05186e-07
1.0518e-07
1.05165e-07
1.05154e-07
1.05144e-07
1.05164e-07
1.06182e-07
1.0887e-07
1.1575e-08
1.2395e-07
1.23139e-07
1.22295e-07
1.21219e-07
1.19966e-07
1.18627e-07
1.17331e-07
1.16111e-07
1.1502e-07
1.14034e-07
1.13176e-07
1.12405e-07
1.11739e-07
1.11137e-07
1.10618e-07
1.10144e-07
1.09735e-07
1.09358e-07
1.09033e-07
1.08729e-07
1.08467e-07
1.08219e-07
1.08005e-07
1.07802e-07
1.07626e-07
1.07456e-07
1.0731e-07
1.07168e-07
1.07045e-07
1.06925e-07
1.0682e-07
1.06718e-07
1.06629e-07
1.06542e-07
1.06465e-07
1.0639e-07
1.06323e-07
1.06257e-07
1.06199e-07
1.06142e-07
1.0609e-07
1.06041e-07
1.05996e-07
1.05953e-07
1.05912e-07
1.05874e-07
1.05838e-07
1.05805e-07
1.05772e-07
1.05744e-07
1.05713e-07
1.05687e-07
1.05656e-07
1.05637e-07
1.05608e-07
1.05591e-07
1.05565e-07
1.0555e-07
1.05528e-07
1.05514e-07
1.05492e-07
1.05477e-07
1.05459e-07
1.05444e-07
1.05426e-07
1.05414e-07
1.05398e-07
1.05386e-07
1.05369e-07
1.05356e-07
1.05342e-07
1.05331e-07
1.05318e-07
1.0531e-07
1.053e-07
1.05293e-07
1.05283e-07
1.05276e-07
1.05266e-07
1.05259e-07
1.05249e-07
1.05242e-07
1.05234e-07
1.05227e-07
1.05219e-07
1.0521e-07
1.05197e-07
1.05185e-07
1.05178e-07
1.05164e-07
1.05153e-07
1.05143e-07
1.05163e-07
1.0619e-07
1.08872e-07
1.20533e-08
1.2395e-07
1.23139e-07
1.22295e-07
1.2122e-07
1.19968e-07
1.1863e-07
1.17334e-07
1.16114e-07
1.15024e-07
1.14038e-07
1.1318e-07
1.12409e-07
1.11743e-07
1.1114e-07
1.10621e-07
1.10147e-07
1.09738e-07
1.0936e-07
1.09035e-07
1.08731e-07
1.08468e-07
1.08221e-07
1.08007e-07
1.07803e-07
1.07627e-07
1.07457e-07
1.0731e-07
1.07169e-07
1.07045e-07
1.06925e-07
1.06821e-07
1.06719e-07
1.06629e-07
1.06542e-07
1.06465e-07
1.0639e-07
1.06322e-07
1.06257e-07
1.06199e-07
1.06142e-07
1.0609e-07
1.06041e-07
1.05995e-07
1.05952e-07
1.05911e-07
1.05873e-07
1.05837e-07
1.05805e-07
1.05771e-07
1.05743e-07
1.05712e-07
1.05686e-07
1.05655e-07
1.05636e-07
1.05607e-07
1.0559e-07
1.05564e-07
1.05549e-07
1.05527e-07
1.05513e-07
1.05491e-07
1.05476e-07
1.05458e-07
1.05443e-07
1.05425e-07
1.05413e-07
1.05397e-07
1.05385e-07
1.05368e-07
1.05355e-07
1.0534e-07
1.05329e-07
1.05317e-07
1.05309e-07
1.05299e-07
1.05292e-07
1.05282e-07
1.05275e-07
1.05265e-07
1.05257e-07
1.05248e-07
1.05241e-07
1.05233e-07
1.05226e-07
1.05217e-07
1.05208e-07
1.05196e-07
1.05184e-07
1.05177e-07
1.05163e-07
1.05151e-07
1.05142e-07
1.05162e-07
1.062e-07
1.08874e-07
1.2568e-08
1.2395e-07
1.23139e-07
1.22295e-07
1.21221e-07
1.19971e-07
1.18634e-07
1.17339e-07
1.16119e-07
1.15029e-07
1.14043e-07
1.13185e-07
1.12413e-07
1.11747e-07
1.11144e-07
1.10625e-07
1.1015e-07
1.09741e-07
1.09363e-07
1.09037e-07
1.08733e-07
1.0847e-07
1.08223e-07
1.08008e-07
1.07805e-07
1.07628e-07
1.07459e-07
1.07311e-07
1.0717e-07
1.07046e-07
1.06926e-07
1.06821e-07
1.06719e-07
1.06629e-07
1.06542e-07
1.06465e-07
1.0639e-07
1.06322e-07
1.06257e-07
1.06198e-07
1.06142e-07
1.0609e-07
1.0604e-07
1.05995e-07
1.05952e-07
1.05911e-07
1.05873e-07
1.05836e-07
1.05804e-07
1.05771e-07
1.05742e-07
1.05711e-07
1.05685e-07
1.05654e-07
1.05635e-07
1.05606e-07
1.05589e-07
1.05564e-07
1.05548e-07
1.05526e-07
1.05512e-07
1.0549e-07
1.05475e-07
1.05457e-07
1.05442e-07
1.05424e-07
1.05411e-07
1.05396e-07
1.05384e-07
1.05367e-07
1.05354e-07
1.05339e-07
1.05328e-07
1.05316e-07
1.05307e-07
1.05297e-07
1.0529e-07
1.0528e-07
1.05273e-07
1.05263e-07
1.05256e-07
1.05247e-07
1.0524e-07
1.05231e-07
1.05225e-07
1.05216e-07
1.05207e-07
1.05194e-07
1.05183e-07
1.05176e-07
1.05162e-07
1.0515e-07
1.0514e-07
1.05161e-07
1.06212e-07
1.08876e-07
1.31192e-08
1.2395e-07
1.23138e-07
1.22295e-07
1.21223e-07
1.19974e-07
1.18638e-07
1.17344e-07
1.16125e-07
1.15035e-07
1.14049e-07
1.13191e-07
1.12419e-07
1.11752e-07
1.11149e-07
1.10629e-07
1.10154e-07
1.09745e-07
1.09367e-07
1.09041e-07
1.08736e-07
1.08473e-07
1.08225e-07
1.08011e-07
1.07807e-07
1.0763e-07
1.0746e-07
1.07313e-07
1.07171e-07
1.07047e-07
1.06927e-07
1.06822e-07
1.0672e-07
1.0663e-07
1.06542e-07
1.06465e-07
1.0639e-07
1.06323e-07
1.06257e-07
1.06198e-07
1.06142e-07
1.0609e-07
1.0604e-07
1.05994e-07
1.05951e-07
1.0591e-07
1.05872e-07
1.05836e-07
1.05803e-07
1.0577e-07
1.05741e-07
1.0571e-07
1.05684e-07
1.05653e-07
1.05634e-07
1.05605e-07
1.05588e-07
1.05563e-07
1.05547e-07
1.05525e-07
1.0551e-07
1.05489e-07
1.05474e-07
1.05456e-07
1.05441e-07
1.05422e-07
1.0541e-07
1.05395e-07
1.05382e-07
1.05366e-07
1.05353e-07
1.05338e-07
1.05327e-07
1.05315e-07
1.05306e-07
1.05296e-07
1.05289e-07
1.05279e-07
1.05272e-07
1.05262e-07
1.05254e-07
1.05245e-07
1.05238e-07
1.0523e-07
1.05223e-07
1.05214e-07
1.05205e-07
1.05193e-07
1.05181e-07
1.05174e-07
1.0516e-07
1.05148e-07
1.05139e-07
1.05159e-07
1.06227e-07
1.0888e-07
1.37076e-08
1.2395e-07
1.23138e-07
1.22296e-07
1.21225e-07
1.19978e-07
1.18644e-07
1.17351e-07
1.16132e-07
1.15042e-07
1.14056e-07
1.13198e-07
1.12425e-07
1.11758e-07
1.11155e-07
1.10635e-07
1.10159e-07
1.09749e-07
1.09371e-07
1.09045e-07
1.0874e-07
1.08476e-07
1.08228e-07
1.08013e-07
1.07809e-07
1.07632e-07
1.07462e-07
1.07315e-07
1.07172e-07
1.07049e-07
1.06928e-07
1.06823e-07
1.06721e-07
1.06631e-07
1.06543e-07
1.06466e-07
1.0639e-07
1.06323e-07
1.06257e-07
1.06198e-07
1.06142e-07
1.0609e-07
1.0604e-07
1.05994e-07
1.05951e-07
1.0591e-07
1.05872e-07
1.05835e-07
1.05803e-07
1.05769e-07
1.05741e-07
1.0571e-07
1.05684e-07
1.05653e-07
1.05633e-07
1.05605e-07
1.05587e-07
1.05561e-07
1.05546e-07
1.05524e-07
1.05509e-07
1.05488e-07
1.05473e-07
1.05455e-07
1.0544e-07
1.05421e-07
1.05409e-07
1.05393e-07
1.05381e-07
1.05365e-07
1.05352e-07
1.05336e-07
1.05325e-07
1.05313e-07
1.05305e-07
1.05294e-07
1.05287e-07
1.05277e-07
1.0527e-07
1.0526e-07
1.05253e-07
1.05243e-07
1.05237e-07
1.05228e-07
1.05221e-07
1.05213e-07
1.05204e-07
1.05191e-07
1.0518e-07
1.05173e-07
1.05159e-07
1.05146e-07
1.05137e-07
1.05158e-07
1.06246e-07
1.08883e-07
1.43339e-08
1.2395e-07
1.23137e-07
1.22296e-07
1.21227e-07
1.19982e-07
1.1865e-07
1.17358e-07
1.1614e-07
1.1505e-07
1.14064e-07
1.13205e-07
1.12433e-07
1.11765e-07
1.11161e-07
1.10641e-07
1.10165e-07
1.09755e-07
1.09376e-07
1.09049e-07
1.08744e-07
1.0848e-07
1.08231e-07
1.08016e-07
1.07812e-07
1.07635e-07
1.07465e-07
1.07317e-07
1.07174e-07
1.0705e-07
1.0693e-07
1.06824e-07
1.06722e-07
1.06632e-07
1.06544e-07
1.06466e-07
1.06391e-07
1.06323e-07
1.06258e-07
1.06199e-07
1.06142e-07
1.0609e-07
1.0604e-07
1.05994e-07
1.05951e-07
1.05909e-07
1.05871e-07
1.05835e-07
1.05802e-07
1.05769e-07
1.0574e-07
1.05709e-07
1.05683e-07
1.05652e-07
1.05632e-07
1.05604e-07
1.05586e-07
1.0556e-07
1.05545e-07
1.05523e-07
1.05508e-07
1.05487e-07
1.05471e-07
1.05453e-07
1.05438e-07
1.0542e-07
1.05408e-07
1.05392e-07
1.0538e-07
1.05363e-07
1.0535e-07
1.05335e-07
1.05324e-07
1.05312e-07
1.05303e-07
1.05293e-07
1.05286e-07
1.05276e-07
1.05268e-07
1.05258e-07
1.05251e-07
1.05242e-07
1.05235e-07
1.05226e-07
1.05219e-07
1.05211e-07
1.05202e-07
1.0519e-07
1.05178e-07
1.05171e-07
1.05157e-07
1.05144e-07
1.05135e-07
1.05157e-07
1.06267e-07
1.08887e-07
1.49979e-08
1.2395e-07
1.23137e-07
1.22296e-07
1.2123e-07
1.19987e-07
1.18657e-07
1.17366e-07
1.16149e-07
1.1506e-07
1.14073e-07
1.13214e-07
1.12441e-07
1.11773e-07
1.11169e-07
1.10648e-07
1.10172e-07
1.09761e-07
1.09382e-07
1.09054e-07
1.08749e-07
1.08485e-07
1.08235e-07
1.0802e-07
1.07815e-07
1.07638e-07
1.07467e-07
1.07319e-07
1.07177e-07
1.07052e-07
1.06931e-07
1.06826e-07
1.06723e-07
1.06633e-07
1.06545e-07
1.06467e-07
1.06392e-07
1.06324e-07
1.06258e-07
1.06199e-07
1.06142e-07
1.0609e-07
1.0604e-07
1.05994e-07
1.0595e-07
1.05909e-07
1.05871e-07
1.05834e-07
1.05802e-07
1.05768e-07
1.05739e-07
1.05708e-07
1.05682e-07
1.05651e-07
1.05631e-07
1.05603e-07
1.05585e-07
1.05559e-07
1.05544e-07
1.05521e-07
1.05507e-07
1.05485e-07
1.0547e-07
1.05452e-07
1.05437e-07
1.05419e-07
1.05406e-07
1.05391e-07
1.05378e-07
1.05362e-07
1.05349e-07
1.05333e-07
1.05322e-07
1.0531e-07
1.05301e-07
1.05291e-07
1.05284e-07
1.05274e-07
1.05267e-07
1.05257e-07
1.05249e-07
1.0524e-07
1.05233e-07
1.05224e-07
1.05218e-07
1.05209e-07
1.052e-07
1.05188e-07
1.05176e-07
1.05169e-07
1.05155e-07
1.05142e-07
1.05133e-07
1.05155e-07
1.06292e-07
1.08891e-07
1.5699e-08
1.2395e-07
1.23136e-07
1.22297e-07
1.21233e-07
1.19993e-07
1.18664e-07
1.17375e-07
1.16159e-07
1.1507e-07
1.14084e-07
1.13224e-07
1.12451e-07
1.11783e-07
1.11178e-07
1.10656e-07
1.10179e-07
1.09768e-07
1.09388e-07
1.0906e-07
1.08754e-07
1.0849e-07
1.0824e-07
1.08024e-07
1.07819e-07
1.07641e-07
1.07471e-07
1.07322e-07
1.07179e-07
1.07055e-07
1.06934e-07
1.06828e-07
1.06725e-07
1.06635e-07
1.06546e-07
1.06468e-07
1.06393e-07
1.06325e-07
1.06259e-07
1.062e-07
1.06142e-07
1.0609e-07
1.0604e-07
1.05994e-07
1.0595e-07
1.05909e-07
1.05871e-07
1.05834e-07
1.05801e-07
1.05767e-07
1.05739e-07
1.05707e-07
1.05681e-07
1.0565e-07
1.0563e-07
1.05602e-07
1.05584e-07
1.05558e-07
1.05543e-07
1.0552e-07
1.05506e-07
1.05484e-07
1.05469e-07
1.05451e-07
1.05436e-07
1.05417e-07
1.05405e-07
1.05389e-07
1.05377e-07
1.0536e-07
1.05347e-07
1.05332e-07
1.05321e-07
1.05308e-07
1.053e-07
1.05289e-07
1.05282e-07
1.05272e-07
1.05265e-07
1.05255e-07
1.05247e-07
1.05238e-07
1.05231e-07
1.05222e-07
1.05215e-07
1.05207e-07
1.05198e-07
1.05186e-07
1.05174e-07
1.05167e-07
1.05154e-07
1.0514e-07
1.05131e-07
1.05154e-07
1.06321e-07
1.08896e-07
1.64366e-08
1.23949e-07
1.23136e-07
1.22297e-07
1.21236e-07
1.19999e-07
1.18673e-07
1.17385e-07
1.1617e-07
1.15081e-07
1.14095e-07
1.13235e-07
1.12462e-07
1.11793e-07
1.11187e-07
1.10665e-07
1.10188e-07
1.09776e-07
1.09395e-07
1.09067e-07
1.0876e-07
1.08495e-07
1.08245e-07
1.08029e-07
1.07824e-07
1.07645e-07
1.07474e-07
1.07326e-07
1.07182e-07
1.07058e-07
1.06936e-07
1.0683e-07
1.06727e-07
1.06636e-07
1.06548e-07
1.0647e-07
1.06394e-07
1.06326e-07
1.0626e-07
1.062e-07
1.06143e-07
1.0609e-07
1.0604e-07
1.05994e-07
1.0595e-07
1.05909e-07
1.0587e-07
1.05834e-07
1.05801e-07
1.05767e-07
1.05738e-07
1.05707e-07
1.05681e-07
1.05649e-07
1.05629e-07
1.05601e-07
1.05583e-07
1.05557e-07
1.05542e-07
1.05519e-07
1.05504e-07
1.05483e-07
1.05467e-07
1.05449e-07
1.05434e-07
1.05416e-07
1.05403e-07
1.05387e-07
1.05375e-07
1.05358e-07
1.05345e-07
1.0533e-07
1.05319e-07
1.05307e-07
1.05298e-07
1.05287e-07
1.0528e-07
1.0527e-07
1.05263e-07
1.05253e-07
1.05245e-07
1.05236e-07
1.05229e-07
1.0522e-07
1.05213e-07
1.05204e-07
1.05196e-07
1.05184e-07
1.05172e-07
1.05165e-07
1.05152e-07
1.05138e-07
1.05129e-07
1.05152e-07
1.06353e-07
1.089e-07
1.72128e-08
1.23949e-07
1.23135e-07
1.22298e-07
1.21239e-07
1.20005e-07
1.18682e-07
1.17397e-07
1.16182e-07
1.15094e-07
1.14108e-07
1.13248e-07
1.12473e-07
1.11804e-07
1.11198e-07
1.10675e-07
1.10197e-07
1.09784e-07
1.09403e-07
1.09074e-07
1.08767e-07
1.08502e-07
1.08251e-07
1.08035e-07
1.07828e-07
1.0765e-07
1.07478e-07
1.07329e-07
1.07186e-07
1.07061e-07
1.06939e-07
1.06833e-07
1.06729e-07
1.06638e-07
1.0655e-07
1.06471e-07
1.06395e-07
1.06327e-07
1.06261e-07
1.06201e-07
1.06144e-07
1.06091e-07
1.06041e-07
1.05994e-07
1.0595e-07
1.05909e-07
1.0587e-07
1.05833e-07
1.05801e-07
1.05766e-07
1.05738e-07
1.05706e-07
1.0568e-07
1.05648e-07
1.05629e-07
1.056e-07
1.05582e-07
1.05556e-07
1.0554e-07
1.05518e-07
1.05503e-07
1.05481e-07
1.05466e-07
1.05448e-07
1.05433e-07
1.05414e-07
1.05402e-07
1.05386e-07
1.05373e-07
1.05357e-07
1.05344e-07
1.05328e-07
1.05317e-07
1.05305e-07
1.05296e-07
1.05285e-07
1.05278e-07
1.05268e-07
1.05261e-07
1.05251e-07
1.05243e-07
1.05234e-07
1.05227e-07
1.05218e-07
1.05211e-07
1.05202e-07
1.05194e-07
1.05182e-07
1.0517e-07
1.05163e-07
1.0515e-07
1.05135e-07
1.05127e-07
1.05151e-07
1.06389e-07
1.08904e-07
1.80301e-08
1.23949e-07
1.23134e-07
1.22298e-07
1.21242e-07
1.20012e-07
1.18692e-07
1.17409e-07
1.16195e-07
1.15108e-07
1.14121e-07
1.13261e-07
1.12486e-07
1.11816e-07
1.11209e-07
1.10686e-07
1.10207e-07
1.09794e-07
1.09412e-07
1.09083e-07
1.08775e-07
1.08509e-07
1.08258e-07
1.08041e-07
1.07834e-07
1.07655e-07
1.07483e-07
1.07334e-07
1.07189e-07
1.07064e-07
1.06942e-07
1.06836e-07
1.06732e-07
1.06641e-07
1.06552e-07
1.06473e-07
1.06397e-07
1.06328e-07
1.06262e-07
1.06202e-07
1.06144e-07
1.06091e-07
1.06041e-07
1.05995e-07
1.05951e-07
1.05909e-07
1.0587e-07
1.05833e-07
1.058e-07
1.05766e-07
1.05737e-07
1.05705e-07
1.05679e-07
1.05648e-07
1.05628e-07
1.05599e-07
1.05581e-07
1.05555e-07
1.05539e-07
1.05516e-07
1.05502e-07
1.0548e-07
1.05464e-07
1.05446e-07
1.05431e-07
1.05412e-07
1.054e-07
1.05384e-07
1.05372e-07
1.05355e-07
1.05342e-07
1.05327e-07
1.05315e-07
1.05303e-07
1.05294e-07
1.05283e-07
1.05276e-07
1.05266e-07
1.05259e-07
1.05248e-07
1.05241e-07
1.05231e-07
1.05224e-07
1.05215e-07
1.05209e-07
1.052e-07
1.05191e-07
1.0518e-07
1.05168e-07
1.0516e-07
1.05147e-07
1.05133e-07
1.05124e-07
1.05149e-07
1.06429e-07
1.08907e-07
1.88912e-08
1.23949e-07
1.23133e-07
1.22299e-07
1.21246e-07
1.2002e-07
1.18703e-07
1.17422e-07
1.1621e-07
1.15123e-07
1.14136e-07
1.13276e-07
1.125e-07
1.1183e-07
1.11222e-07
1.10698e-07
1.10218e-07
1.09804e-07
1.09422e-07
1.09092e-07
1.08783e-07
1.08517e-07
1.08265e-07
1.08047e-07
1.0784e-07
1.0766e-07
1.07488e-07
1.07338e-07
1.07194e-07
1.07068e-07
1.06945e-07
1.06839e-07
1.06735e-07
1.06643e-07
1.06554e-07
1.06475e-07
1.06398e-07
1.0633e-07
1.06263e-07
1.06203e-07
1.06145e-07
1.06092e-07
1.06042e-07
1.05995e-07
1.05951e-07
1.05909e-07
1.0587e-07
1.05833e-07
1.058e-07
1.05766e-07
1.05737e-07
1.05705e-07
1.05679e-07
1.05647e-07
1.05627e-07
1.05598e-07
1.0558e-07
1.05554e-07
1.05538e-07
1.05515e-07
1.055e-07
1.05479e-07
1.05463e-07
1.05445e-07
1.0543e-07
1.05411e-07
1.05398e-07
1.05382e-07
1.0537e-07
1.05353e-07
1.0534e-07
1.05325e-07
1.05313e-07
1.05301e-07
1.05292e-07
1.05281e-07
1.05274e-07
1.05264e-07
1.05256e-07
1.05246e-07
1.05239e-07
1.05229e-07
1.05222e-07
1.05213e-07
1.05206e-07
1.05197e-07
1.05189e-07
1.05177e-07
1.05166e-07
1.05158e-07
1.05145e-07
1.0513e-07
1.05122e-07
1.05148e-07
1.06473e-07
1.0891e-07
1.97988e-08
1.23949e-07
1.23132e-07
1.22299e-07
1.2125e-07
1.20028e-07
1.18714e-07
1.17436e-07
1.16225e-07
1.15139e-07
1.14152e-07
1.13292e-07
1.12516e-07
1.11844e-07
1.11236e-07
1.10711e-07
1.1023e-07
1.09816e-07
1.09432e-07
1.09101e-07
1.08792e-07
1.08525e-07
1.08272e-07
1.08054e-07
1.07847e-07
1.07667e-07
1.07494e-07
1.07343e-07
1.07198e-07
1.07072e-07
1.06949e-07
1.06842e-07
1.06738e-07
1.06646e-07
1.06556e-07
1.06478e-07
1.06401e-07
1.06332e-07
1.06265e-07
1.06205e-07
1.06147e-07
1.06093e-07
1.06042e-07
1.05996e-07
1.05951e-07
1.05909e-07
1.0587e-07
1.05833e-07
1.058e-07
1.05765e-07
1.05736e-07
1.05704e-07
1.05678e-07
1.05646e-07
1.05626e-07
1.05597e-07
1.05579e-07
1.05553e-07
1.05537e-07
1.05514e-07
1.05499e-07
1.05477e-07
1.05461e-07
1.05443e-07
1.05428e-07
1.05409e-07
1.05396e-07
1.0538e-07
1.05368e-07
1.05351e-07
1.05338e-07
1.05323e-07
1.05311e-07
1.05299e-07
1.0529e-07
1.05279e-07
1.05272e-07
1.05261e-07
1.05254e-07
1.05244e-07
1.05236e-07
1.05226e-07
1.05219e-07
1.0521e-07
1.05203e-07
1.05194e-07
1.05186e-07
1.05175e-07
1.05163e-07
1.05155e-07
1.05143e-07
1.05127e-07
1.05119e-07
1.05146e-07
1.06521e-07
1.0595e-07
2.07559e-08
1.23949e-07
1.23131e-07
1.223e-07
1.21254e-07
1.20037e-07
1.18727e-07
1.17451e-07
1.16242e-07
1.15156e-07
1.1417e-07
1.13309e-07
1.12532e-07
1.1186e-07
1.11251e-07
1.10725e-07
1.10243e-07
1.09828e-07
1.09444e-07
1.09112e-07
1.08802e-07
1.08534e-07
1.08281e-07
1.08062e-07
1.07854e-07
1.07673e-07
1.075e-07
1.07349e-07
1.07204e-07
1.07077e-07
1.06954e-07
1.06846e-07
1.06741e-07
1.06649e-07
1.06559e-07
1.0648e-07
1.06403e-07
1.06334e-07
1.06267e-07
1.06206e-07
1.06148e-07
1.06094e-07
1.06043e-07
1.05996e-07
1.05952e-07
1.0591e-07
1.05871e-07
1.05833e-07
1.058e-07
1.05765e-07
1.05736e-07
1.05704e-07
1.05677e-07
1.05645e-07
1.05625e-07
1.05596e-07
1.05578e-07
1.05552e-07
1.05535e-07
1.05513e-07
1.05497e-07
1.05476e-07
1.0546e-07
1.05441e-07
1.05426e-07
1.05407e-07
1.05395e-07
1.05379e-07
1.05366e-07
1.05349e-07
1.05336e-07
1.05321e-07
1.05309e-07
1.05297e-07
1.05287e-07
1.05277e-07
1.05269e-07
1.05259e-07
1.05251e-07
1.05241e-07
1.05233e-07
1.05224e-07
1.05216e-07
1.05208e-07
1.052e-07
1.05191e-07
1.05184e-07
1.05172e-07
1.05161e-07
1.05153e-07
1.0514e-07
1.05124e-07
1.05117e-07
1.05144e-07
1.06574e-07
9.99837e-08
2.17655e-08
1.23948e-07
1.2313e-07
1.223e-07
1.21259e-07
1.20046e-07
1.1874e-07
1.17467e-07
1.16259e-07
1.15175e-07
1.14188e-07
1.13327e-07
1.1255e-07
1.11877e-07
1.11267e-07
1.1074e-07
1.10257e-07
1.09841e-07
1.09456e-07
1.09124e-07
1.08813e-07
1.08544e-07
1.0829e-07
1.08071e-07
1.07862e-07
1.0768e-07
1.07506e-07
1.07355e-07
1.07209e-07
1.07082e-07
1.06958e-07
1.06851e-07
1.06745e-07
1.06653e-07
1.06563e-07
1.06483e-07
1.06405e-07
1.06336e-07
1.06269e-07
1.06208e-07
1.06149e-07
1.06096e-07
1.06044e-07
1.05997e-07
1.05953e-07
1.0591e-07
1.05871e-07
1.05833e-07
1.058e-07
1.05765e-07
1.05736e-07
1.05703e-07
1.05677e-07
1.05645e-07
1.05624e-07
1.05595e-07
1.05577e-07
1.0555e-07
1.05534e-07
1.05511e-07
1.05496e-07
1.05474e-07
1.05458e-07
1.0544e-07
1.05425e-07
1.05406e-07
1.05393e-07
1.05377e-07
1.05364e-07
1.05347e-07
1.05334e-07
1.05319e-07
1.05307e-07
1.05294e-07
1.05285e-07
1.05274e-07
1.05267e-07
1.05256e-07
1.05249e-07
1.05238e-07
1.05231e-07
1.05221e-07
1.05214e-07
1.05205e-07
1.05198e-07
1.05188e-07
1.05181e-07
1.05169e-07
1.05158e-07
1.0515e-07
1.05138e-07
1.05121e-07
1.05114e-07
1.05143e-07
1.06631e-07
9.46599e-08
2.28308e-08
1.23948e-07
1.23129e-07
1.22301e-07
1.21264e-07
1.20056e-07
1.18754e-07
1.17484e-07
1.16278e-07
1.15194e-07
1.14208e-07
1.13347e-07
1.12569e-07
1.11895e-07
1.11284e-07
1.10756e-07
1.10273e-07
1.09855e-07
1.09469e-07
1.09136e-07
1.08824e-07
1.08555e-07
1.083e-07
1.0808e-07
1.0787e-07
1.07688e-07
1.07514e-07
1.07362e-07
1.07215e-07
1.07088e-07
1.06964e-07
1.06855e-07
1.0675e-07
1.06657e-07
1.06566e-07
1.06486e-07
1.06408e-07
1.06339e-07
1.06271e-07
1.0621e-07
1.06151e-07
1.06097e-07
1.06046e-07
1.05998e-07
1.05953e-07
1.05911e-07
1.05871e-07
1.05833e-07
1.058e-07
1.05765e-07
1.05735e-07
1.05703e-07
1.05676e-07
1.05644e-07
1.05623e-07
1.05594e-07
1.05576e-07
1.05549e-07
1.05533e-07
1.0551e-07
1.05495e-07
1.05473e-07
1.05457e-07
1.05438e-07
1.05423e-07
1.05404e-07
1.05391e-07
1.05375e-07
1.05362e-07
1.05345e-07
1.05332e-07
1.05316e-07
1.05305e-07
1.05292e-07
1.05283e-07
1.05272e-07
1.05264e-07
1.05254e-07
1.05246e-07
1.05236e-07
1.05228e-07
1.05218e-07
1.05211e-07
1.05202e-07
1.05195e-07
1.05185e-07
1.05178e-07
1.05167e-07
1.05155e-07
1.05147e-07
1.05135e-07
1.05118e-07
1.05111e-07
1.05141e-07
1.06692e-07
8.99073e-08
2.39551e-08
1.23948e-07
1.23128e-07
1.22301e-07
1.21269e-07
1.20066e-07
1.18769e-07
1.17502e-07
1.16298e-07
1.15216e-07
1.1423e-07
1.13368e-07
1.12589e-07
1.11914e-07
1.11302e-07
1.10773e-07
1.10289e-07
1.09871e-07
1.09483e-07
1.09149e-07
1.08836e-07
1.08566e-07
1.08311e-07
1.0809e-07
1.07879e-07
1.07697e-07
1.07521e-07
1.07369e-07
1.07222e-07
1.07094e-07
1.06969e-07
1.0686e-07
1.06754e-07
1.06661e-07
1.0657e-07
1.0649e-07
1.06411e-07
1.06341e-07
1.06273e-07
1.06212e-07
1.06153e-07
1.06099e-07
1.06047e-07
1.06e-07
1.05954e-07
1.05911e-07
1.05872e-07
1.05834e-07
1.058e-07
1.05765e-07
1.05735e-07
1.05703e-07
1.05676e-07
1.05644e-07
1.05623e-07
1.05593e-07
1.05575e-07
1.05548e-07
1.05532e-07
1.05508e-07
1.05493e-07
1.05471e-07
1.05455e-07
1.05436e-07
1.05421e-07
1.05402e-07
1.05389e-07
1.05373e-07
1.0536e-07
1.05343e-07
1.0533e-07
1.05314e-07
1.05303e-07
1.0529e-07
1.0528e-07
1.05269e-07
1.05262e-07
1.05251e-07
1.05243e-07
1.05233e-07
1.05225e-07
1.05215e-07
1.05208e-07
1.05199e-07
1.05191e-07
1.05182e-07
1.05174e-07
1.05164e-07
1.05153e-07
1.05144e-07
1.05132e-07
1.05115e-07
1.05108e-07
1.05139e-07
1.06758e-07
8.56596e-08
2.51416e-08
1.23948e-07
1.23127e-07
1.22302e-07
1.21274e-07
1.20077e-07
1.18784e-07
1.17521e-07
1.1632e-07
1.15238e-07
1.14252e-07
1.1339e-07
1.1261e-07
1.11935e-07
1.11322e-07
1.10792e-07
1.10306e-07
1.09887e-07
1.09499e-07
1.09163e-07
1.0885e-07
1.08579e-07
1.08322e-07
1.081e-07
1.07889e-07
1.07706e-07
1.0753e-07
1.07377e-07
1.07229e-07
1.07101e-07
1.06975e-07
1.06866e-07
1.06759e-07
1.06666e-07
1.06574e-07
1.06494e-07
1.06415e-07
1.06345e-07
1.06276e-07
1.06215e-07
1.06155e-07
1.06101e-07
1.06049e-07
1.06001e-07
1.05955e-07
1.05912e-07
1.05873e-07
1.05834e-07
1.058e-07
1.05765e-07
1.05735e-07
1.05702e-07
1.05676e-07
1.05643e-07
1.05622e-07
1.05592e-07
1.05574e-07
1.05547e-07
1.0553e-07
1.05507e-07
1.05492e-07
1.0547e-07
1.05453e-07
1.05435e-07
1.05419e-07
1.054e-07
1.05387e-07
1.05371e-07
1.05358e-07
1.05341e-07
1.05328e-07
1.05312e-07
1.053e-07
1.05287e-07
1.05278e-07
1.05267e-07
1.05259e-07
1.05248e-07
1.0524e-07
1.0523e-07
1.05222e-07
1.05212e-07
1.05205e-07
1.05195e-07
1.05188e-07
1.05178e-07
1.05171e-07
1.0516e-07
1.0515e-07
1.05141e-07
1.05129e-07
1.05111e-07
1.05105e-07
1.05138e-07
1.06827e-07
8.18604e-08
2.63935e-08
1.23948e-07
1.23125e-07
1.22303e-07
1.21279e-07
1.20088e-07
1.18801e-07
1.17542e-07
1.16342e-07
1.15261e-07
1.14276e-07
1.13413e-07
1.12633e-07
1.11957e-07
1.11342e-07
1.10812e-07
1.10325e-07
1.09904e-07
1.09515e-07
1.09179e-07
1.08864e-07
1.08592e-07
1.08334e-07
1.08112e-07
1.07899e-07
1.07716e-07
1.07539e-07
1.07385e-07
1.07237e-07
1.07108e-07
1.06982e-07
1.06872e-07
1.06765e-07
1.06671e-07
1.06579e-07
1.06498e-07
1.06419e-07
1.06348e-07
1.06279e-07
1.06217e-07
1.06158e-07
1.06103e-07
1.06051e-07
1.06002e-07
1.05957e-07
1.05913e-07
1.05873e-07
1.05835e-07
1.05801e-07
1.05765e-07
1.05735e-07
1.05702e-07
1.05675e-07
1.05643e-07
1.05621e-07
1.05592e-07
1.05573e-07
1.05546e-07
1.05529e-07
1.05506e-07
1.0549e-07
1.05468e-07
1.05452e-07
1.05433e-07
1.05417e-07
1.05398e-07
1.05385e-07
1.05368e-07
1.05356e-07
1.05339e-07
1.05326e-07
1.0531e-07
1.05298e-07
1.05285e-07
1.05275e-07
1.05264e-07
1.05256e-07
1.05245e-07
1.05238e-07
1.05227e-07
1.05219e-07
1.05209e-07
1.05201e-07
1.05192e-07
1.05185e-07
1.05175e-07
1.05168e-07
1.05157e-07
1.05146e-07
1.05137e-07
1.05126e-07
1.05108e-07
1.05101e-07
1.05136e-07
1.069e-07
7.84618e-08
2.77138e-08
1.23947e-07
1.23124e-07
1.22303e-07
1.21285e-07
1.201e-07
1.18818e-07
1.17563e-07
1.16366e-07
1.15286e-07
1.14301e-07
1.13438e-07
1.12657e-07
1.1198e-07
1.11364e-07
1.10832e-07
1.10344e-07
1.09923e-07
1.09532e-07
1.09195e-07
1.08879e-07
1.08606e-07
1.08347e-07
1.08124e-07
1.07911e-07
1.07726e-07
1.07548e-07
1.07394e-07
1.07245e-07
1.07115e-07
1.06989e-07
1.06878e-07
1.06771e-07
1.06676e-07
1.06584e-07
1.06502e-07
1.06423e-07
1.06352e-07
1.06282e-07
1.0622e-07
1.0616e-07
1.06105e-07
1.06053e-07
1.06004e-07
1.05958e-07
1.05915e-07
1.05874e-07
1.05835e-07
1.05801e-07
1.05765e-07
1.05735e-07
1.05702e-07
1.05675e-07
1.05642e-07
1.05621e-07
1.05591e-07
1.05572e-07
1.05545e-07
1.05528e-07
1.05504e-07
1.05489e-07
1.05467e-07
1.0545e-07
1.05431e-07
1.05416e-07
1.05396e-07
1.05383e-07
1.05366e-07
1.05353e-07
1.05337e-07
1.05323e-07
1.05307e-07
1.05296e-07
1.05282e-07
1.05273e-07
1.05261e-07
1.05253e-07
1.05242e-07
1.05234e-07
1.05224e-07
1.05216e-07
1.05206e-07
1.05198e-07
1.05189e-07
1.05181e-07
1.05171e-07
1.05164e-07
1.05154e-07
1.05143e-07
1.05134e-07
1.05123e-07
1.05104e-07
1.05098e-07
1.05134e-07
1.06974e-07
7.54226e-08
2.91049e-08
1.23947e-07
1.23122e-07
1.22304e-07
1.2129e-07
1.20112e-07
1.18836e-07
1.17585e-07
1.16391e-07
1.15313e-07
1.14327e-07
1.13464e-07
1.12683e-07
1.12005e-07
1.11388e-07
1.10855e-07
1.10365e-07
1.09942e-07
1.0955e-07
1.09212e-07
1.08895e-07
1.08621e-07
1.08361e-07
1.08137e-07
1.07923e-07
1.07737e-07
1.07559e-07
1.07404e-07
1.07254e-07
1.07124e-07
1.06996e-07
1.06885e-07
1.06777e-07
1.06682e-07
1.06589e-07
1.06507e-07
1.06427e-07
1.06356e-07
1.06286e-07
1.06223e-07
1.06163e-07
1.06108e-07
1.06055e-07
1.06006e-07
1.0596e-07
1.05916e-07
1.05876e-07
1.05836e-07
1.05802e-07
1.05766e-07
1.05735e-07
1.05702e-07
1.05675e-07
1.05642e-07
1.0562e-07
1.0559e-07
1.05571e-07
1.05544e-07
1.05527e-07
1.05503e-07
1.05487e-07
1.05465e-07
1.05449e-07
1.05429e-07
1.05414e-07
1.05394e-07
1.05381e-07
1.05364e-07
1.05351e-07
1.05334e-07
1.05321e-07
1.05305e-07
1.05293e-07
1.05279e-07
1.0527e-07
1.05258e-07
1.0525e-07
1.05239e-07
1.05231e-07
1.05221e-07
1.05213e-07
1.05202e-07
1.05195e-07
1.05185e-07
1.05178e-07
1.05168e-07
1.0516e-07
1.0515e-07
1.0514e-07
1.0513e-07
1.05119e-07
1.051e-07
1.05094e-07
1.05133e-07
1.0705e-07
7.2708e-08
3.0569e-08
1.23947e-07
1.23121e-07
1.22304e-07
1.21296e-07
1.20125e-07
1.18855e-07
1.17608e-07
1.16417e-07
1.1534e-07
1.14355e-07
1.13492e-07
1.1271e-07
1.12031e-07
1.11412e-07
1.10878e-07
1.10387e-07
1.09963e-07
1.0957e-07
1.0923e-07
1.08912e-07
1.08637e-07
1.08376e-07
1.08151e-07
1.07935e-07
1.07749e-07
1.0757e-07
1.07414e-07
1.07263e-07
1.07132e-07
1.07004e-07
1.06893e-07
1.06784e-07
1.06688e-07
1.06595e-07
1.06512e-07
1.06432e-07
1.0636e-07
1.0629e-07
1.06227e-07
1.06166e-07
1.06111e-07
1.06057e-07
1.06008e-07
1.05962e-07
1.05918e-07
1.05877e-07
1.05837e-07
1.05803e-07
1.05766e-07
1.05736e-07
1.05702e-07
1.05675e-07
1.05642e-07
1.0562e-07
1.0559e-07
1.0557e-07