/*--------------------------------*- C++ -*----------------------------------*\
| =========                 |                                                 |
| \\      /  F ield         | OpenFOAM: The Open Source CFD Toolbox           |
|  \\    /   O peration     | Version:  v2012                                 |
|   \\  /    A nd           | Website:  www.openfoam.com                      |
|    \\/     M anipulation  |                                                 |
\*---------------------------------------------------------------------------*/
FoamFile
{
    version     2.0;
    format      ascii;
    class       volScalarField;
    location    "49.5";
    object      omega;
}
// * * * * * * * * * * * * * * * * * * * * * * * * * * * * * * * * * * * * * //

dimensions      [0 0 -1 0 0 0 0];


internalField   nonuniform List<scalar> 
209825
(
8261.75
7569.47
6999.4
6541.25
6178.44
5892.44
5664.98
5482.53
5333.67
5211.27
5108.77
5022.7
4949
4886.12
4831.25
4783.88
4741.86
4705.27
4672.34
4643.5
4617.19
4594.07
4572.7
4553.89
4536.28
4520.81
4506.13
4493.26
4480.88
4470.08
4459.57
4450.44
4441.42
4433.65
4425.87
4419.22
4412.48
4406.76
4400.88
4395.93
4390.81
4386.52
4381.99
4378.28
4374.31
4371.07
4367.56
4364.69
4361.62
4359.11
4356.42
4354.26
4351.95
4349.98
4347.93
4346.22
4344.41
4342.9
4341.28
4339.98
4338.62
4337.56
4336.3
4335.44
4334.37
4333.63
4332.65
4332.03
4331.2
4330.75
4330.05
4329.67
4329.08
4328.76
4328.18
4327.83
4327.27
4326.98
4326.5
4326.26
4325.85
4325.66
4325.3
4325.2
4324.97
4325.05
4325.02
4325.29
4325.29
4325.71
4325.71
4326.45
4327.17
4355.6
4464.72
113115
8261.75
7569.47
6999.4
6541.24
6178.42
5892.42
5664.95
5482.49
5333.62
5211.21
5108.7
5022.63
4948.92
4886.03
4831.16
4783.78
4741.76
4705.17
4672.24
4643.4
4617.08
4593.96
4572.59
4553.78
4536.17
4520.69
4506.02
4493.14
4480.76
4469.96
4459.44
4450.31
4441.3
4433.52
4425.74
4419.09
4412.35
4406.64
4400.75
4395.8
4390.68
4386.39
4381.86
4378.15
4374.18
4370.93
4367.43
4364.56
4361.49
4358.98
4356.29
4354.12
4351.82
4349.84
4347.79
4346.08
4344.27
4342.77
4341.14
4339.85
4338.49
4337.42
4336.17
4335.3
4334.23
4333.49
4332.51
4331.89
4331.06
4330.61
4329.91
4329.53
4328.94
4328.62
4328.04
4327.69
4327.14
4326.84
4326.36
4326.12
4325.7
4325.52
4325.16
4325.06
4324.83
4324.91
4324.88
4325.15
4325.15
4325.57
4325.57
4326.31
4327.03
4355.5
4464.62
109817
8261.75
7569.48
6999.41
6541.23
6178.37
5892.33
5664.83
5482.33
5333.43
5211
5108.47
5022.37
4948.65
4885.75
4830.86
4783.47
4741.44
4704.84
4671.89
4643.04
4616.72
4593.59
4572.21
4553.4
4535.78
4520.3
4505.62
4492.74
4480.36
4469.56
4459.04
4449.9
4440.88
4433.11
4425.32
4418.67
4411.93
4406.21
4400.33
4395.37
4390.25
4385.96
4381.43
4377.72
4373.74
4370.5
4366.99
4364.12
4361.05
4358.54
4355.84
4353.68
4351.37
4349.4
4347.35
4345.63
4343.83
4342.32
4340.69
4339.4
4338.03
4336.97
4335.71
4334.85
4333.78
4333.04
4332.05
4331.44
4330.61
4330.15
4329.45
4329.08
4328.48
4328.16
4327.58
4327.23
4326.68
4326.38
4325.9
4325.66
4325.24
4325.06
4324.7
4324.6
4324.37
4324.44
4324.41
4324.68
4324.68
4325.1
4325.1
4325.84
4326.56
4355.14
4464.23
106030
8261.75
7569.49
6999.41
6541.19
6178.28
5892.18
5664.62
5482.06
5333.11
5210.63
5108.06
5021.93
4948.18
4885.25
4830.34
4782.93
4740.87
4704.26
4671.3
4642.44
4616.1
4592.96
4571.57
4552.75
4535.12
4519.63
4504.95
4492.06
4479.67
4468.86
4458.34
4449.2
4440.18
4432.4
4424.61
4417.95
4411.21
4405.48
4399.6
4394.64
4389.52
4385.22
4380.69
4376.97
4373
4369.75
4366.24
4363.36
4360.29
4357.78
4355.09
4352.92
4350.61
4348.63
4346.58
4344.87
4343.06
4341.55
4339.92
4338.62
4337.26
4336.19
4334.94
4334.08
4333
4332.26
4331.28
4330.66
4329.83
4329.37
4328.67
4328.29
4327.7
4327.38
4326.79
4326.44
4325.89
4325.59
4325.11
4324.87
4324.46
4324.27
4323.91
4323.81
4323.57
4323.65
4323.62
4323.88
4323.88
4324.3
4324.3
4325.04
4325.77
4354.5
4463.56
102136
8261.75
7569.51
6999.42
6541.15
6178.16
5891.97
5664.31
5481.68
5332.65
5210.11
5107.48
5021.3
4947.51
4884.54
4829.59
4782.15
4740.07
4703.43
4670.45
4641.57
4615.22
4592.06
4570.66
4551.82
4534.18
4518.68
4503.99
4491.09
4478.69
4467.88
4457.34
4448.19
4439.17
4431.38
4423.58
4416.92
4410.17
4404.45
4398.55
4393.59
4388.47
4384.16
4379.63
4375.91
4371.93
4368.68
4365.17
4362.29
4359.22
4356.7
4354
4351.84
4349.52
4347.55
4345.49
4343.78
4341.97
4340.46
4338.82
4337.53
4336.16
4335.09
4333.84
4332.97
4331.9
4331.15
4330.17
4329.55
4328.72
4328.26
4327.55
4327.18
4326.58
4326.26
4325.68
4325.32
4324.77
4324.47
4323.99
4323.75
4323.33
4323.15
4322.79
4322.68
4322.45
4322.52
4322.49
4322.75
4322.75
4323.17
4323.17
4323.9
4324.63
4353.58
4462.6
98238.8
8261.75
7569.53
6999.42
6541.09
6177.99
5891.69
5663.91
5481.17
5332.05
5209.43
5106.73
5020.49
4946.63
4883.61
4828.62
4781.14
4739.03
4702.36
4669.35
4640.44
4614.06
4590.89
4569.47
4550.61
4532.96
4517.44
4502.73
4489.82
4477.42
4466.59
4456.04
4446.89
4437.85
4430.06
4422.25
4415.58
4408.83
4403.09
4397.2
4392.23
4387.1
4382.79
4378.25
4374.53
4370.55
4367.29
4363.77
4360.89
4357.82
4355.3
4352.6
4350.42
4348.11
4346.13
4344.07
4342.36
4340.54
4339.03
4337.39
4336.1
4334.73
4333.66
4332.4
4331.53
4330.46
4329.71
4328.72
4328.1
4327.27
4326.81
4326.1
4325.73
4325.13
4324.8
4324.22
4323.87
4323.31
4323.01
4322.53
4322.29
4321.87
4321.68
4321.32
4321.22
4320.97
4321.05
4321.01
4321.27
4321.27
4321.68
4321.68
4322.41
4323.15
4352.37
4461.35
94379
8261.75
7569.56
6999.43
6541.01
6177.79
5891.34
5663.42
5480.55
5331.32
5208.59
5105.8
5019.47
4945.55
4882.47
4827.42
4779.89
4737.74
4701.03
4667.98
4639.04
4612.64
4589.44
4567.99
4549.11
4531.44
4515.91
4501.18
4488.25
4475.83
4464.99
4454.43
4445.27
4436.22
4428.42
4420.6
4413.93
4407.16
4401.42
4395.51
4390.54
4385.4
4381.09
4376.54
4372.82
4368.83
4365.57
4362.05
4359.16
4356.08
4353.56
4350.85
4348.68
4346.36
4344.37
4342.31
4340.59
4338.77
4337.26
4335.62
4334.32
4332.95
4331.88
4330.62
4329.75
4328.67
4327.92
4326.93
4326.31
4325.47
4325.01
4324.3
4323.93
4323.32
4323
4322.41
4322.06
4321.51
4321.2
4320.72
4320.47
4320.05
4319.87
4319.5
4319.4
4319.15
4319.22
4319.18
4319.44
4319.44
4319.84
4319.84
4320.57
4321.32
4350.88
4459.82
90575.2
8261.75
7569.6
6999.45
6540.92
6177.55
5890.92
5662.84
5479.81
5330.43
5207.58
5104.68
5018.26
4944.25
4881.1
4825.99
4778.4
4736.19
4699.43
4666.35
4637.37
4610.93
4587.7
4566.22
4547.32
4529.62
4514.07
4499.32
4486.38
4473.94
4463.08
4452.51
4443.33
4434.27
4426.45
4418.63
4411.94
4405.17
4399.42
4393.5
4388.52
4383.37
4379.05
4374.5
4370.77
4366.77
4363.51
4359.98
4357.09
4354
4351.48
4348.76
4346.58
4344.26
4342.27
4340.21
4338.49
4336.66
4335.15
4333.51
4332.2
4330.83
4329.75
4328.49
4327.61
4326.53
4325.78
4324.79
4324.17
4323.33
4322.86
4322.15
4321.77
4321.17
4320.84
4320.26
4319.9
4319.34
4319.04
4318.55
4318.31
4317.89
4317.7
4317.33
4317.22
4316.97
4317.04
4317
4317.25
4317.24
4317.64
4317.64
4318.37
4319.13
4349.11
4457.99
86836.4
8261.75
7569.64
6999.46
6540.82
6177.27
5890.44
5662.16
5478.95
5329.41
5206.41
5103.38
5016.85
4942.75
4879.5
4824.32
4776.66
4734.39
4697.58
4664.44
4635.42
4608.94
4585.67
4564.16
4545.23
4527.51
4511.93
4497.15
4484.19
4471.73
4460.86
4450.27
4441.07
4431.99
4424.17
4416.33
4409.63
4402.84
4397.08
4391.15
4386.16
4381.01
4376.68
4372.12
4368.38
4364.38
4361.1
4357.57
4354.67
4351.58
4349.05
4346.33
4344.14
4341.81
4339.82
4337.75
4336.03
4334.2
4332.68
4331.03
4329.73
4328.35
4327.27
4326
4325.12
4324.04
4323.29
4322.29
4321.66
4320.82
4320.35
4319.64
4319.26
4318.65
4318.32
4317.74
4317.38
4316.82
4316.51
4316.02
4315.78
4315.35
4315.16
4314.79
4314.68
4314.43
4314.49
4314.44
4314.69
4314.68
4315.08
4315.08
4315.8
4316.57
4347.04
4455.87
83165.1
8261.75
7569.68
6999.48
6540.7
6176.95
5889.89
5661.38
5477.96
5328.23
5205.07
5101.89
5015.24
4941.02
4877.68
4822.4
4774.67
4732.33
4695.45
4662.26
4633.19
4606.66
4583.35
4561.81
4542.84
4525.08
4509.47
4494.67
4481.68
4469.2
4458.31
4447.69
4438.48
4429.39
4421.54
4413.69
4406.98
4400.17
4394.4
4388.46
4383.46
4378.3
4373.96
4369.39
4365.64
4361.63
4358.34
4354.8
4351.9
4348.8
4346.26
4343.54
4341.34
4339.01
4337.01
4334.94
4333.21
4331.37
4329.85
4328.2
4326.89
4325.5
4324.42
4323.15
4322.27
4321.18
4320.42
4319.42
4318.8
4317.95
4317.48
4316.76
4316.38
4315.77
4315.44
4314.85
4314.49
4313.93
4313.62
4313.13
4312.88
4312.45
4312.26
4311.88
4311.77
4311.52
4311.57
4311.51
4311.75
4311.75
4312.13
4312.13
4312.85
4313.64
4344.67
4453.46
79559.8
8261.75
7569.73
6999.5
6540.57
6176.59
5889.28
5660.51
5476.85
5326.91
5203.56
5100.22
5013.42
4939.07
4875.62
4820.24
4772.42
4730
4693.05
4659.8
4630.67
4604.09
4580.73
4559.14
4540.14
4522.34
4506.7
4491.87
4478.85
4466.34
4455.42
4444.79
4435.55
4426.44
4418.58
4410.71
4403.98
4397.16
4391.38
4385.42
4380.41
4375.23
4370.88
4366.3
4362.54
4358.52
4355.23
4351.68
4348.77
4345.66
4343.11
4340.38
4338.18
4335.84
4333.84
4331.76
4330.02
4328.18
4326.65
4325
4323.68
4322.29
4321.2
4319.92
4319.04
4317.95
4317.19
4316.18
4315.55
4314.7
4314.23
4313.51
4313.12
4312.51
4312.18
4311.58
4311.22
4310.66
4310.35
4309.85
4309.6
4309.17
4308.97
4308.6
4308.48
4308.22
4308.27
4308.21
4308.44
4308.43
4308.81
4308.81
4309.52
4310.32
4342
4450.75
76014.5
8261.75
7569.79
6999.52
6540.43
6176.19
5888.59
5659.54
5475.62
5325.44
5201.88
5098.35
5011.39
4936.9
4873.32
4817.83
4769.91
4727.4
4690.38
4657.05
4627.86
4601.22
4577.81
4556.17
4537.12
4519.28
4503.6
4488.74
4475.69
4463.15
4452.21
4441.55
4432.29
4423.15
4415.27
4407.38
4400.63
4393.8
4388
4382.03
4377
4371.81
4367.45
4362.85
4359.08
4355.05
4351.75
4348.19
4345.27
4342.15
4339.6
4336.86
4334.65
4332.3
4330.29
4328.2
4326.46
4324.61
4323.08
4321.42
4320.1
4318.7
4317.61
4316.32
4315.44
4314.34
4313.58
4312.57
4311.93
4311.07
4310.6
4309.87
4309.48
4308.87
4308.53
4307.94
4307.57
4307
4306.69
4306.19
4305.94
4305.5
4305.3
4304.92
4304.81
4304.54
4304.58
4304.51
4304.73
4304.73
4305.09
4305.09
4305.8
4306.62
4339.03
4447.76
72525.6
8261.75
7569.85
6999.54
6540.27
6175.75
5887.84
5658.47
5474.26
5323.81
5200.02
5096.29
5009.15
4934.5
4870.78
4815.17
4767.14
4724.53
4687.42
4654.01
4624.75
4598.04
4574.57
4552.88
4533.78
4515.9
4500.18
4485.27
4472.19
4459.62
4448.64
4437.96
4428.67
4419.51
4411.61
4403.69
4396.93
4390.07
4384.26
4378.27
4373.23
4368.02
4363.64
4359.04
4355.25
4351.21
4347.9
4344.33
4341.4
4338.27
4335.71
4332.96
4330.74
4328.38
4326.37
4324.27
4322.52
4320.67
4319.13
4317.46
4316.13
4314.73
4313.63
4312.34
4311.45
4310.34
4309.58
4308.56
4307.92
4307.06
4306.58
4305.85
4305.45
4304.83
4304.5
4303.9
4303.53
4302.96
4302.64
4302.14
4301.88
4301.44
4301.24
4300.86
4300.74
4300.47
4300.5
4300.42
4300.63
4300.63
4300.98
4300.98
4301.68
4302.52
4335.74
4444.49
69099.5
8261.75
7569.91
6999.57
6540.1
6175.28
5887.01
5657.3
5472.77
5322.04
5197.99
5094.04
5006.69
4931.87
4868
4812.25
4764.1
4721.38
4684.17
4650.68
4621.33
4594.56
4571.02
4549.27
4530.12
4512.18
4496.42
4481.47
4468.35
4455.74
4444.74
4434.02
4424.7
4415.51
4407.59
4399.65
4392.86
4385.98
4380.15
4374.15
4369.09
4363.86
4359.47
4354.85
4351.05
4346.99
4343.67
4340.09
4337.15
4334
4331.43
4328.67
4326.45
4324.08
4322.06
4319.95
4318.2
4316.33
4314.79
4313.11
4311.78
4310.36
4309.26
4307.96
4307.07
4305.95
4305.18
4304.16
4303.52
4302.65
4302.16
4301.43
4301.03
4300.41
4300.07
4299.46
4299.1
4298.52
4298.2
4297.69
4297.43
4296.99
4296.78
4296.39
4296.27
4295.99
4296.01
4295.93
4296.13
4296.13
4296.46
4296.46
4297.15
4298.02
4332.13
4440.93
65742.3
8261.75
7569.99
6999.6
6539.92
6174.77
5886.12
5656.04
5471.15
5320.11
5195.78
5091.58
5004.02
4929.01
4864.97
4809.07
4760.79
4717.95
4680.63
4647.04
4617.62
4590.76
4567.16
4545.33
4526.12
4508.14
4492.32
4477.33
4464.17
4451.52
4440.47
4429.72
4420.38
4411.16
4403.2
4395.23
4388.43
4381.53
4375.67
4369.64
4364.57
4359.32
4354.92
4350.28
4346.46
4342.39
4339.06
4335.46
4332.51
4329.35
4326.77
4324
4321.76
4319.38
4317.36
4315.24
4313.47
4311.6
4310.05
4308.36
4307.02
4305.6
4304.5
4303.19
4302.28
4301.16
4300.39
4299.36
4298.71
4297.84
4297.35
4296.6
4296.2
4295.57
4295.23
4294.62
4294.25
4293.67
4293.35
4292.84
4292.57
4292.12
4291.91
4291.52
4291.39
4291.11
4291.12
4291.02
4291.21
4291.21
4291.53
4291.53
4292.22
4293.12
4328.2
4437.09
62459.7
8261.74
7570.06
6999.64
6539.73
6174.22
5885.17
5654.67
5469.41
5318.02
5193.4
5088.93
5001.14
4925.91
4861.69
4805.63
4757.2
4714.23
4676.8
4643.11
4613.59
4586.64
4562.96
4541.07
4521.8
4503.75
4487.88
4472.83
4459.63
4446.93
4435.85
4425.06
4415.68
4406.43
4398.44
4390.45
4383.62
4376.69
4370.81
4364.76
4359.67
4354.4
4349.98
4345.32
4341.49
4337.4
4334.05
4330.44
4327.47
4324.31
4321.72
4318.93
4316.68
4314.29
4312.25
4310.12
4308.35
4306.47
4304.91
4303.21
4301.87
4300.43
4299.32
4298.01
4297.1
4295.97
4295.19
4294.15
4293.5
4292.62
4292.12
4291.37
4290.97
4290.33
4289.98
4289.37
4289
4288.41
4288.09
4287.57
4287.3
4286.84
4286.63
4286.23
4286.1
4285.82
4285.81
4285.7
4285.88
4285.88
4286.19
4286.18
4286.86
4287.79
4323.93
4432.98
59256.7
8261.74
7570.15
6999.67
6539.52
6173.63
5884.14
5653.21
5467.54
5315.78
5190.83
5086.07
4998.03
4922.58
4858.16
4801.92
4753.34
4710.23
4672.67
4638.86
4609.24
4582.2
4558.44
4536.47
4517.13
4499.01
4483.09
4467.99
4454.73
4441.99
4430.87
4420.03
4410.62
4401.33
4393.31
4385.29
4378.43
4371.47
4365.57
4359.5
4354.38
4349.09
4344.65
4339.97
4336.12
4332.02
4328.65
4325.02
4322.04
4318.86
4316.26
4313.46
4311.2
4308.79
4306.75
4304.6
4302.82
4300.93
4299.36
4297.66
4296.3
4294.86
4293.74
4292.41
4291.5
4290.36
4289.57
4288.53
4287.87
4286.98
4286.48
4285.72
4285.31
4284.67
4284.32
4283.7
4283.33
4282.74
4282.4
4281.88
4281.61
4281.15
4280.93
4280.53
4280.39
4280.1
4280.08
4279.96
4280.13
4280.13
4280.42
4280.41
4281.08
4282.04
4319.32
4428.59
56138.4
8261.74
7570.23
6999.72
6539.31
6173
5883.05
5651.64
5465.54
5313.38
5188.08
5083.01
4994.69
4919
4854.37
4797.94
4749.19
4705.93
4668.24
4634.31
4604.58
4577.44
4553.59
4531.53
4512.11
4493.93
4477.94
4462.78
4449.47
4436.68
4425.51
4414.63
4405.18
4395.85
4387.8
4379.74
4372.85
4365.86
4359.93
4353.83
4348.69
4343.38
4338.92
4334.22
4330.35
4326.23
4322.84
4319.2
4316.21
4313.01
4310.39
4307.57
4305.3
4302.88
4300.83
4298.67
4296.88
4294.97
4293.4
4291.68
4290.32
4288.86
4287.74
4286.4
4285.48
4284.33
4283.54
4282.49
4281.82
4280.92
4280.41
4279.65
4279.23
4278.59
4278.23
4277.61
4277.23
4276.63
4276.3
4275.76
4275.49
4275.02
4274.8
4274.39
4274.25
4273.96
4273.92
4273.79
4273.95
4273.94
4274.21
4274.2
4274.86
4275.86
4314.35
4423.93
53109.2
8261.74
7570.33
6999.76
6539.08
6172.34
5881.89
5649.98
5463.41
5310.83
5185.15
5079.75
4991.14
4915.19
4850.33
4793.69
4744.76
4701.34
4663.51
4629.44
4599.59
4572.34
4548.4
4526.25
4506.75
4488.49
4472.44
4457.21
4443.84
4430.99
4419.78
4408.85
4399.35
4389.98
4381.9
4373.8
4366.88
4359.86
4353.9
4347.77
4342.61
4337.27
4332.78
4328.06
4324.18
4320.03
4316.63
4312.96
4309.96
4306.74
4304.11
4301.27
4298.99
4296.55
4294.49
4292.32
4290.52
4288.6
4287.01
4285.28
4283.91
4282.44
4281.31
4279.96
4279.03
4277.87
4277.07
4276.01
4275.34
4274.43
4273.92
4273.15
4272.72
4272.07
4271.71
4271.08
4270.7
4270.1
4269.75
4269.22
4268.93
4268.46
4268.23
4267.82
4267.67
4267.37
4267.33
4267.18
4267.32
4267.31
4267.57
4267.55
4268.2
4269.25
4309.01
4418.97
50173.2
8261.73
7570.43
6999.81
6538.84
6171.65
5880.66
5648.22
5461.15
5308.12
5182.04
5076.28
4987.36
4911.13
4846.02
4789.17
4740.05
4696.45
4658.46
4624.25
4594.28
4566.91
4542.86
4520.62
4501.04
4482.69
4466.57
4451.27
4437.84
4424.93
4413.66
4402.68
4393.14
4383.73
4375.6
4367.47
4360.51
4353.46
4347.47
4341.31
4336.12
4330.75
4326.24
4321.49
4317.59
4313.42
4310
4306.31
4303.29
4300.05
4297.4
4294.55
4292.25
4289.8
4287.72
4285.54
4283.73
4281.79
4280.2
4278.46
4277.08
4275.59
4274.45
4273.09
4272.15
4270.98
4270.18
4269.11
4268.43
4267.51
4266.98
4266.2
4265.78
4265.12
4264.75
4264.12
4263.73
4263.12
4262.77
4262.23
4261.94
4261.46
4261.22
4260.8
4260.65
4260.34
4260.29
4260.12
4260.26
4260.24
4260.48
4260.46
4261.1
4262.18
4303.28
4413.69
47334.2
8261.73
7570.53
6999.87
6538.6
6170.92
5879.37
5646.37
5458.76
5305.25
5178.74
5072.6
4983.35
4906.82
4841.46
4784.37
4735.04
4691.25
4653.1
4618.74
4588.63
4561.14
4536.98
4514.64
4494.96
4476.53
4460.33
4444.96
4431.46
4418.49
4407.16
4396.13
4386.54
4377.08
4368.91
4360.73
4353.74
4346.65
4340.63
4334.43
4329.21
4323.81
4319.28
4314.51
4310.58
4306.38
4302.94
4299.24
4296.19
4292.94
4290.27
4287.4
4285.09
4282.62
4280.53
4278.32
4276.5
4274.55
4272.95
4271.19
4269.8
4268.3
4267.15
4265.78
4264.83
4263.65
4262.84
4261.76
4261.07
4260.14
4259.61
4258.82
4258.38
4257.72
4257.35
4256.71
4256.31
4255.7
4255.34
4254.79
4254.49
4254.01
4253.77
4253.34
4253.18
4252.87
4252.8
4252.62
4252.74
4252.72
4252.94
4252.91
4253.54
4254.67
4297.15
4408.07
44595.6
8261.72
7570.64
6999.93
6538.34
6170.15
5878.01
5644.41
5456.25
5302.23
5175.26
5068.72
4979.11
4902.27
4836.63
4779.29
4729.74
4685.76
4647.43
4612.91
4582.66
4555.03
4530.75
4508.3
4488.52
4470
4453.71
4438.26
4424.7
4411.66
4400.27
4389.18
4379.54
4370.03
4361.81
4353.59
4346.56
4339.43
4333.37
4327.14
4321.89
4316.46
4311.9
4307.1
4303.14
4298.92
4295.46
4291.73
4288.67
4285.39
4282.71
4279.82
4277.48
4275
4272.89
4270.67
4268.84
4266.87
4265.26
4263.49
4262.09
4260.57
4259.41
4258.03
4257.06
4255.87
4255.05
4253.96
4253.26
4252.33
4251.78
4250.98
4250.54
4249.87
4249.49
4248.84
4248.44
4247.82
4247.46
4246.9
4246.6
4246.1
4245.86
4245.42
4245.25
4244.93
4244.86
4244.65
4244.76
4244.73
4244.94
4244.9
4245.52
4246.7
4290.59
4402.07
41960.6
8261.72
7570.76
6999.99
6538.08
6169.36
5876.59
5642.36
5453.6
5299.04
5171.6
5064.63
4974.65
4897.47
4831.54
4773.93
4724.15
4679.95
4641.44
4606.74
4576.34
4548.58
4524.17
4501.6
4481.72
4463.1
4446.72
4431.19
4417.55
4404.44
4392.99
4381.83
4372.14
4362.57
4354.31
4346.04
4338.96
4331.79
4325.7
4319.43
4314.14
4308.68
4304.09
4299.26
4295.28
4291.03
4287.55
4283.79
4280.71
4277.41
4274.7
4271.8
4269.44
4266.94
4264.82
4262.58
4260.73
4258.75
4257.12
4255.33
4253.92
4252.39
4251.22
4249.82
4248.85
4247.64
4246.81
4245.71
4245
4244.05
4243.5
4242.69
4242.24
4241.56
4241.17
4240.52
4240.12
4239.48
4239.12
4238.55
4238.24
4237.73
4237.48
4237.04
4236.86
4236.53
4236.45
4236.23
4236.32
4236.29
4236.47
4236.42
4237.03
4238.26
4283.59
4395.67
39431.7
8261.71
7570.88
7000.06
6537.81
6168.53
5875.11
5640.22
5450.84
5295.7
5167.76
5060.33
4969.95
4892.42
4826.17
4768.29
4718.26
4673.84
4635.13
4600.25
4569.69
4541.77
4517.24
4494.54
4474.55
4455.82
4439.35
4423.73
4410.01
4396.82
4385.3
4374.08
4364.33
4354.7
4346.39
4338.07
4330.95
4323.73
4317.6
4311.29
4305.97
4300.47
4295.85
4290.99
4286.98
4282.7
4279.19
4275.41
4272.3
4268.98
4266.26
4263.33
4260.95
4258.43
4256.29
4254.03
4252.17
4250.17
4248.53
4246.73
4245.3
4243.75
4242.57
4241.16
4240.17
4238.95
4238.11
4237
4236.28
4235.32
4234.76
4233.94
4233.48
4232.78
4232.39
4231.73
4231.32
4230.68
4230.31
4229.73
4229.41
4228.9
4228.64
4228.19
4228
4227.67
4227.57
4227.33
4227.41
4227.37
4227.54
4227.47
4228.07
4229.35
4276.11
4388.83
37011.5
8261.7
7571
7000.14
6537.53
6167.67
5873.57
5637.98
5447.94
5292.21
5163.73
5055.83
4965.03
4887.12
4820.55
4762.37
4712.08
4667.42
4628.49
4593.43
4562.69
4534.62
4509.94
4487.11
4467
4448.16
4431.6
4415.88
4402.08
4388.81
4377.22
4365.92
4356.11
4346.42
4338.05
4329.68
4322.51
4315.24
4309.07
4302.72
4297.36
4291.82
4287.17
4282.27
4278.24
4273.93
4270.39
4266.58
4263.45
4260.1
4257.36
4254.4
4252.01
4249.46
4247.31
4245.03
4243.15
4241.13
4239.48
4237.66
4236.22
4234.65
4233.46
4232.03
4231.03
4229.79
4228.95
4227.82
4227.09
4226.12
4225.55
4224.71
4224.24
4223.54
4223.14
4222.47
4222.06
4221.41
4221.03
4220.44
4220.12
4219.59
4219.32
4218.86
4218.67
4218.32
4218.22
4217.96
4218.02
4217.97
4218.12
4218.04
4218.63
4219.97
4268.12
4381.52
34701.9
8261.7
7571.13
7000.22
6537.25
6166.78
5871.97
5635.65
5444.92
5288.56
5159.52
5051.12
4959.87
4881.57
4814.65
4756.16
4705.59
4660.68
4621.54
4586.26
4555.35
4527.11
4502.28
4479.31
4459.08
4440.12
4423.45
4407.63
4393.74
4380.39
4368.72
4357.35
4347.47
4337.72
4329.29
4320.86
4313.64
4306.32
4300.11
4293.71
4288.32
4282.74
4278.05
4273.11
4269.05
4264.71
4261.14
4257.3
4254.15
4250.77
4248
4245.02
4242.61
4240.04
4237.87
4235.56
4233.67
4231.63
4229.96
4228.12
4226.67
4225.08
4223.88
4222.43
4221.42
4220.17
4219.31
4218.17
4217.43
4216.44
4215.86
4215.01
4214.54
4213.82
4213.42
4212.74
4212.31
4211.65
4211.27
4210.67
4210.34
4209.8
4209.53
4209.05
4208.85
4208.5
4208.38
4208.11
4208.15
4208.09
4208.22
4208.13
4208.71
4210.1
4259.59
4373.7
32504.9
8261.69
7571.26
7000.3
6536.96
6165.86
5870.31
5633.23
5441.78
5284.76
5155.12
5046.2
4954.49
4875.77
4808.48
4749.66
4698.8
4653.63
4614.25
4578.76
4547.66
4519.24
4494.26
4471.14
4450.78
4431.7
4414.91
4398.99
4385
4371.56
4359.81
4348.36
4338.41
4328.59
4320.11
4311.61
4304.34
4296.97
4290.71
4284.27
4278.83
4273.2
4268.48
4263.51
4259.41
4255.03
4251.44
4247.57
4244.39
4240.98
4238.19
4235.18
4232.74
4230.15
4227.96
4225.63
4223.72
4221.66
4219.98
4218.12
4216.65
4215.04
4213.82
4212.36
4211.33
4210.06
4209.19
4208.04
4207.29
4206.29
4205.69
4204.84
4204.35
4203.62
4203.21
4202.52
4202.09
4201.42
4201.02
4200.41
4200.07
4199.53
4199.24
4198.76
4198.55
4198.18
4198.06
4197.77
4197.79
4197.72
4197.83
4197.72
4198.29
4199.74
4250.48
4365.34
30421.8
8261.67
7571.4
7000.4
6536.67
6164.92
5868.6
5630.72
5438.52
5280.81
5150.55
5041.07
4948.87
4869.72
4802.05
4742.88
4691.72
4646.27
4606.64
4570.93
4539.62
4511.02
4485.86
4462.59
4442.09
4422.88
4405.98
4389.94
4375.86
4362.32
4350.48
4338.95
4328.93
4319.03
4310.49
4301.93
4294.6
4287.18
4280.86
4274.37
4268.89
4263.22
4258.46
4253.45
4249.31
4244.9
4241.27
4237.37
4234.16
4230.72
4227.91
4224.87
4222.41
4219.78
4217.58
4215.23
4213.3
4211.21
4209.52
4207.63
4206.15
4204.52
4203.29
4201.81
4200.77
4199.48
4198.6
4197.43
4196.67
4195.65
4195.04
4194.17
4193.67
4192.93
4192.51
4191.81
4191.37
4190.69
4190.29
4189.67
4189.32
4188.76
4188.47
4187.97
4187.75
4187.37
4187.24
4186.94
4186.94
4186.85
4186.94
4186.81
4187.37
4188.88
4240.76
4356.4
28454.1
8261.66
7571.54
7000.5
6536.37
6163.96
5866.83
5628.12
5435.14
5276.7
5145.8
5035.74
4943.03
4863.42
4795.34
4735.81
4684.33
4638.58
4598.7
4562.75
4531.23
4502.43
4477.1
4453.67
4433.02
4413.67
4396.65
4380.49
4366.31
4352.66
4340.74
4329.12
4319.02
4309.05
4300.44
4291.81
4284.42
4276.94
4270.57
4264.03
4258.5
4252.78
4247.98
4242.93
4238.75
4234.3
4230.64
4226.71
4223.47
4220
4217.16
4214.09
4211.6
4208.95
4206.72
4204.35
4202.4
4200.29
4198.57
4196.67
4195.17
4193.52
4192.27
4190.77
4189.71
4188.41
4187.51
4186.32
4185.56
4184.52
4183.9
4183.01
4182.5
4181.75
4181.32
4180.61
4180.16
4179.47
4179.06
4178.43
4178.07
4177.5
4177.2
4176.69
4176.46
4176.07
4175.92
4175.61
4175.59
4175.48
4175.55
4175.4
4175.95
4177.52
4230.41
4346.84
26602.9
8261.65
7571.68
7000.6
6536.07
6162.96
5865.01
5625.44
5431.64
5272.45
5140.87
5030.2
4936.96
4856.87
4788.37
4728.46
4676.63
4630.59
4590.43
4554.23
4522.49
4493.48
4467.97
4444.36
4423.56
4404.07
4386.92
4370.64
4356.34
4342.59
4330.58
4318.87
4308.68
4298.63
4289.95
4281.25
4273.8
4266.25
4259.83
4253.23
4247.66
4241.89
4237.05
4231.94
4227.73
4223.24
4219.55
4215.57
4212.3
4208.8
4205.93
4202.83
4200.32
4197.63
4195.39
4192.98
4191.01
4188.88
4187.15
4185.22
4183.7
4182.02
4180.76
4179.24
4178.17
4176.84
4175.93
4174.73
4173.95
4172.89
4172.26
4171.36
4170.83
4170.07
4169.63
4168.91
4168.45
4167.75
4167.33
4166.68
4166.32
4165.73
4165.42
4164.9
4164.66
4164.25
4164.1
4163.77
4163.74
4163.61
4163.66
4163.49
4164.03
4165.64
4219.43
4336.61
24869.4
8261.63
7571.83
7000.71
6535.77
6161.95
5863.14
5622.68
5428.03
5268.05
5135.77
5024.47
4930.66
4850.07
4781.13
4720.82
4668.64
4622.27
4581.83
4545.36
4513.39
4484.17
4458.47
4434.68
4413.72
4394.07
4376.78
4360.38
4345.96
4332.1
4319.99
4308.18
4297.91
4287.77
4279.01
4270.24
4262.73
4255.11
4248.64
4241.98
4236.35
4230.53
4225.64
4220.49
4216.24
4211.71
4207.98
4203.97
4200.66
4197.12
4194.22
4191.09
4188.55
4185.84
4183.57
4181.13
4179.14
4176.98
4175.23
4173.28
4171.74
4170.04
4168.76
4167.22
4166.13
4164.78
4163.86
4162.64
4161.84
4160.77
4160.12
4159.2
4158.67
4157.89
4157.44
4156.7
4156.24
4155.52
4155.09
4154.43
4154.06
4153.46
4153.14
4152.6
4152.35
4151.93
4151.76
4151.42
4151.37
4151.23
4151.26
4151.05
4151.59
4153.26
4207.83
4325.69
23254.5
8261.62
7571.98
7000.83
6535.47
6160.92
5861.22
5619.84
5424.3
5263.51
5130.49
5018.53
4924.14
4843.03
4773.62
4712.89
4660.34
4613.64
4572.89
4536.16
4503.94
4474.49
4448.59
4424.61
4403.48
4383.67
4366.24
4349.7
4335.17
4321.19
4308.97
4297.06
4286.7
4276.47
4267.64
4258.79
4251.21
4243.52
4236.98
4230.27
4224.58
4218.71
4213.77
4208.57
4204.28
4199.7
4195.93
4191.88
4188.54
4184.96
4182.03
4178.87
4176.3
4173.55
4171.26
4168.79
4166.78
4164.59
4162.82
4160.84
4159.29
4157.56
4156.26
4154.69
4153.59
4152.22
4151.28
4150.04
4149.23
4148.14
4147.48
4146.54
4145.99
4145.2
4144.74
4143.99
4143.52
4142.79
4142.35
4141.67
4141.29
4140.67
4140.34
4139.79
4139.53
4139.09
4138.92
4138.56
4138.49
4138.34
4138.34
4138.1
4138.63
4140.35
4195.6
4314.04
21753.9
8261.6
7572.14
7000.96
6535.17
6159.87
5859.26
5616.92
5420.47
5258.83
5125.05
5012.4
4917.4
4835.74
4765.84
4704.68
4651.75
4604.69
4563.63
4526.61
4494.14
4464.45
4438.34
4414.16
4392.85
4372.88
4355.3
4338.61
4323.95
4309.85
4297.52
4285.51
4275.06
4264.73
4255.82
4246.89
4239.23
4231.47
4224.87
4218.09
4212.35
4206.42
4201.43
4196.18
4191.84
4187.21
4183.4
4179.31
4175.94
4172.32
4169.36
4166.16
4163.55
4160.77
4158.45
4155.96
4153.92
4151.7
4149.91
4147.91
4146.33
4144.57
4143.26
4141.67
4140.55
4139.15
4138.2
4136.94
4136.11
4135
4134.33
4133.37
4132.81
4132
4131.52
4130.76
4130.28
4129.54
4129.09
4128.4
4128
4127.37
4127.03
4126.47
4126.19
4125.74
4125.55
4125.18
4125.09
4124.92
4124.9
4124.63
4125.15
4126.92
4182.74
4301.61
20362.9
8261.58
7572.3
7001.09
6534.88
6158.81
5857.25
5613.94
5416.53
5254.01
5119.43
5006.07
4910.43
4828.2
4757.81
4696.19
4642.85
4595.42
4554.04
4516.72
4483.98
4454.04
4427.71
4403.32
4381.84
4361.68
4343.95
4327.11
4312.32
4298.09
4285.65
4273.52
4262.97
4252.55
4243.55
4234.53
4226.8
4218.96
4212.3
4205.45
4199.65
4193.65
4188.62
4183.31
4178.92
4174.25
4170.4
4166.26
4162.85
4159.19
4156.19
4152.95
4150.32
4147.5
4145.15
4142.62
4140.56
4138.31
4136.5
4134.47
4132.88
4131.09
4129.75
4128.14
4127
4125.58
4124.61
4123.32
4122.48
4121.35
4120.66
4119.68
4119.11
4118.28
4117.79
4117.02
4116.53
4115.77
4115.31
4114.6
4114.19
4113.55
4113.19
4112.62
4112.33
4111.86
4111.66
4111.27
4111.17
4110.98
4110.93
4110.63
4111.14
4112.96
4169.24
4288.39
19076.6
8261.56
7572.46
7001.23
6534.58
6157.73
5855.21
5610.88
5412.49
5249.06
5113.66
4999.55
4903.25
4820.43
4749.51
4687.41
4633.66
4585.85
4544.12
4506.49
4473.47
4443.27
4416.71
4392.1
4370.42
4350.09
4332.19
4315.2
4300.27
4285.9
4273.34
4261.09
4250.44
4239.92
4230.83
4221.72
4213.91
4205.99
4199.26
4192.33
4186.48
4180.42
4175.33
4169.96
4165.52
4160.8
4156.9
4152.72
4149.27
4145.57
4142.53
4139.25
4136.59
4133.73
4131.36
4128.79
4126.71
4124.42
4122.59
4120.52
4118.91
4117.09
4115.74
4114.09
4112.93
4111.49
4110.5
4109.2
4108.34
4107.19
4106.48
4105.48
4104.89
4104.04
4103.55
4102.75
4102.25
4101.48
4101.01
4100.29
4099.86
4099.2
4098.84
4098.24
4097.94
4097.46
4097.24
4096.84
4096.72
4096.51
4096.44
4096.1
4096.61
4098.47
4155.11
4274.33
17889.8
8261.54
7572.62
7001.38
6534.29
6156.64
5853.13
5607.75
5408.36
5243.98
5107.72
4992.84
4895.86
4812.42
4740.95
4678.36
4624.17
4575.96
4533.88
4495.91
4462.6
4432.14
4405.33
4380.5
4358.62
4338.09
4320.02
4302.87
4287.79
4273.28
4260.6
4248.23
4237.47
4226.84
4217.65
4208.45
4200.56
4192.56
4185.75
4178.75
4172.83
4166.7
4161.56
4156.13
4151.64
4146.86
4142.92
4138.69
4135.2
4131.45
4128.38
4125.06
4122.35
4119.46
4117.06
4114.45
4112.34
4110.02
4108.16
4106.07
4104.44
4102.58
4101.21
4099.54
4098.36
4096.89
4095.88
4094.55
4093.68
4092.5
4091.78
4090.76
4090.15
4089.29
4088.77
4087.97
4087.45
4086.66
4086.18
4085.44
4085.01
4084.33
4083.95
4083.34
4083.02
4082.52
4082.29
4081.87
4081.73
4081.51
4081.42
4081.04
4081.54
4083.43
4140.34
4259.4
16797
8261.52
7572.78
7001.53
6534
6155.54
5851.02
5604.56
5404.13
5238.77
5101.63
4985.95
4888.26
4804.17
4732.14
4669.03
4614.38
4565.76
4523.31
4485
4451.39
4420.64
4393.58
4368.52
4346.42
4325.7
4307.45
4290.12
4274.9
4260.24
4247.42
4234.93
4224.05
4213.31
4204.03
4194.73
4186.75
4178.66
4171.78
4164.7
4158.72
4152.51
4147.31
4141.82
4137.28
4132.44
4128.45
4124.17
4120.63
4116.84
4113.73
4110.36
4107.62
4104.68
4102.25
4099.61
4097.47
4095.11
4093.23
4091.11
4089.45
4087.56
4086.17
4084.47
4083.26
4081.77
4080.74
4079.39
4078.5
4077.3
4076.55
4075.51
4074.89
4074
4073.48
4072.65
4072.13
4071.32
4070.82
4070.07
4069.62
4068.93
4068.53
4067.91
4067.57
4067.05
4066.81
4066.37
4066.22
4065.98
4065.86
4065.44
4065.93
4067.86
4124.94
4243.57
15792.4
8261.49
7572.95
7001.69
6533.72
6154.43
5848.88
5601.32
5399.81
5233.44
5095.39
4978.88
4880.45
4795.7
4723.07
4659.44
4604.31
4555.25
4512.42
4473.76
4439.83
4408.79
4381.46
4356.15
4333.84
4312.9
4294.47
4276.96
4261.58
4246.77
4233.82
4221.19
4210.2
4199.34
4189.95
4180.55
4172.48
4164.3
4157.34
4150.18
4144.12
4137.85
4132.58
4127.03
4122.43
4117.53
4113.49
4109.15
4105.57
4101.73
4098.58
4095.17
4092.39
4089.41
4086.94
4084.26
4082.09
4079.7
4077.79
4075.63
4073.95
4072.03
4070.61
4068.88
4067.65
4066.13
4065.08
4063.7
4062.79
4061.57
4060.8
4059.74
4059.1
4058.19
4057.65
4056.81
4056.27
4055.45
4054.94
4054.16
4053.7
4052.99
4052.58
4051.94
4051.59
4051.05
4050.79
4050.34
4050.16
4049.9
4049.77
4049.3
4049.78
4051.73
4108.9
4226.83
14870.3
8261.46
7573.11
7001.86
6533.45
6153.32
5846.71
5598.02
5395.4
5228
5089
4971.63
4872.44
4787
4713.76
4649.57
4593.95
4544.44
4501.21
4462.18
4427.92
4396.57
4368.98
4343.4
4320.86
4299.71
4281.09
4263.39
4247.84
4232.87
4219.78
4207.01
4195.89
4184.91
4175.42
4165.91
4157.75
4149.47
4142.42
4135.18
4129.05
4122.7
4117.37
4111.75
4107.09
4102.13
4098.04
4093.64
4090.02
4086.12
4082.93