/*--------------------------------*- C++ -*----------------------------------*\
| =========                 |                                                 |
| \\      /  F ield         | OpenFOAM: The Open Source CFD Toolbox           |
|  \\    /   O peration     | Version:  v2012                                 |
|   \\  /    A nd           | Website:  www.openfoam.com                      |
|    \\/     M anipulation  |                                                 |
\*---------------------------------------------------------------------------*/
FoamFile
{
    version     2.0;
    format      ascii;
    class       volVectorField;
    location    "49.5";
    object      wallShearStress;
}
// * * * * * * * * * * * * * * * * * * * * * * * * * * * * * * * * * * * * * //

dimensions      [0 2 -2 0 0 0 0];


internalField   uniform (0 0 0);

boundaryField
{
    inlet
    {
        type            calculated;
        value           uniform (0 0 0);
    }
    outlet
    {
        type            calculated;
        value           uniform (0 0 0);
    }
    topWall
    {
        type            calculated;
        value           nonuniform List<vector> 
545
(
(3.67455e-08 -2.58657e-08 0)
(3.67341e-08 -7.23563e-08 0)
(3.67141e-08 -1.20701e-07 0)
(3.66856e-08 -1.67647e-07 0)
(3.66499e-08 -2.12596e-07 0)
(3.66076e-08 -2.56123e-07 0)
(3.65593e-08 -2.986e-07 0)
(3.65054e-08 -3.40007e-07 0)
(3.64464e-08 -3.80253e-07 0)
(3.63828e-08 -4.19338e-07 0)
(3.63149e-08 -4.57312e-07 0)
(3.62433e-08 -4.9422e-07 0)
(3.61682e-08 -5.30087e-07 0)
(3.60901e-08 -5.64934e-07 0)
(3.60092e-08 -5.98785e-07 0)
(3.59259e-08 -6.31668e-07 0)
(3.58405e-08 -6.63609e-07 0)
(3.57532e-08 -6.94632e-07 0)
(3.56644e-08 -7.24764e-07 0)
(3.55742e-08 -7.54026e-07 0)
(3.54828e-08 -7.82445e-07 0)
(3.53906e-08 -8.10042e-07 0)
(3.52977e-08 -8.36842e-07 0)
(3.52042e-08 -8.62866e-07 0)
(3.51103e-08 -8.88136e-07 0)
(3.50162e-08 -9.12674e-07 0)
(3.49221e-08 -9.36501e-07 0)
(3.4828e-08 -9.59637e-07 0)
(3.47342e-08 -9.82103e-07 0)
(3.46406e-08 -1.00392e-06 0)
(3.45475e-08 -1.0251e-06 0)
(3.44549e-08 -1.04567e-06 0)
(3.43629e-08 -1.06564e-06 0)
(3.42716e-08 -1.08503e-06 0)
(3.41811e-08 -1.10386e-06 0)
(3.40914e-08 -1.12215e-06 0)
(3.40026e-08 -1.13991e-06 0)
(3.39147e-08 -1.15715e-06 0)
(3.38278e-08 -1.1739e-06 0)
(3.3742e-08 -1.19016e-06 0)
(3.36573e-08 -1.20596e-06 0)
(3.35737e-08 -1.2213e-06 0)
(3.34913e-08 -1.2362e-06 0)
(3.341e-08 -1.25067e-06 0)
(3.33299e-08 -1.26472e-06 0)
(3.32511e-08 -1.27838e-06 0)
(3.31735e-08 -1.29164e-06 0)
(3.30971e-08 -1.30452e-06 0)
(3.30221e-08 -1.31703e-06 0)
(3.29482e-08 -1.32919e-06 0)
(3.28757e-08 -1.34099e-06 0)
(3.28044e-08 -1.35247e-06 0)
(3.27345e-08 -1.36361e-06 0)
(3.26658e-08 -1.37444e-06 0)
(3.25983e-08 -1.38496e-06 0)
(3.25322e-08 -1.39518e-06 0)
(3.24673e-08 -1.40512e-06 0)
(3.24037e-08 -1.41477e-06 0)
(3.23413e-08 -1.42415e-06 0)
(3.22802e-08 -1.43326e-06 0)
(3.22203e-08 -1.44212e-06 0)
(3.21616e-08 -1.45073e-06 0)
(3.21041e-08 -1.4591e-06 0)
(3.20479e-08 -1.46723e-06 0)
(3.19928e-08 -1.47513e-06 0)
(3.19389e-08 -1.48281e-06 0)
(3.18861e-08 -1.49028e-06 0)
(3.18344e-08 -1.49754e-06 0)
(3.17839e-08 -1.50459e-06 0)
(3.17345e-08 -1.51145e-06 0)
(3.16861e-08 -1.51812e-06 0)
(3.16391e-08 -1.52459e-06 0)
(3.15935e-08 -1.53082e-06 0)
(3.15485e-08 -1.53687e-06 0)
(3.15039e-08 -1.54284e-06 0)
(3.14595e-08 -1.5488e-06 0)
(3.14152e-08 -1.55472e-06 0)
(3.13709e-08 -1.56061e-06 0)
(3.13266e-08 -1.56646e-06 0)
(3.12823e-08 -1.57228e-06 0)
(3.12382e-08 -1.57806e-06 0)
(3.1194e-08 -1.58381e-06 0)
(3.11499e-08 -1.58952e-06 0)
(3.11058e-08 -1.5952e-06 0)
(3.10618e-08 -1.60085e-06 0)
(3.10179e-08 -1.60646e-06 0)
(3.0974e-08 -1.61204e-06 0)
(3.09301e-08 -1.61758e-06 0)
(3.08863e-08 -1.62309e-06 0)
(3.08425e-08 -1.62857e-06 0)
(3.07989e-08 -1.63402e-06 0)
(3.07552e-08 -1.63943e-06 0)
(3.07116e-08 -1.64481e-06 0)
(3.06682e-08 -1.65016e-06 0)
(3.06244e-08 -1.65549e-06 0)
(3.05828e-08 -1.66072e-06 0)
(3.05443e-08 -1.66552e-06 0)
(3.05071e-08 -1.66987e-06 0)
(3.04711e-08 -1.6741e-06 0)
(3.04353e-08 -1.67835e-06 0)
(3.03995e-08 -1.68264e-06 0)
(3.03634e-08 -1.68695e-06 0)
(3.03272e-08 -1.69125e-06 0)
(3.02908e-08 -1.69555e-06 0)
(3.02543e-08 -1.69985e-06 0)
(3.02175e-08 -1.70416e-06 0)
(3.01806e-08 -1.70848e-06 0)
(3.01435e-08 -1.71281e-06 0)
(3.01063e-08 -1.71713e-06 0)
(3.00689e-08 -1.72146e-06 0)
(3.00312e-08 -1.7258e-06 0)
(2.99935e-08 -1.73014e-06 0)
(2.99555e-08 -1.73449e-06 0)
(2.99173e-08 -1.73884e-06 0)
(2.9879e-08 -1.7432e-06 0)
(2.98405e-08 -1.74756e-06 0)
(2.98018e-08 -1.75192e-06 0)
(2.9763e-08 -1.75629e-06 0)
(2.97239e-08 -1.76066e-06 0)
(2.96847e-08 -1.76504e-06 0)
(2.96453e-08 -1.76943e-06 0)
(2.96057e-08 -1.77381e-06 0)
(2.95659e-08 -1.77821e-06 0)
(2.95259e-08 -1.7826e-06 0)
(2.94858e-08 -1.787e-06 0)
(2.94454e-08 -1.79141e-06 0)
(2.94049e-08 -1.79582e-06 0)
(2.93642e-08 -1.80023e-06 0)
(2.93233e-08 -1.80465e-06 0)
(2.92822e-08 -1.80907e-06 0)
(2.9241e-08 -1.8135e-06 0)
(2.91995e-08 -1.81793e-06 0)
(2.91578e-08 -1.82237e-06 0)
(2.9116e-08 -1.8268e-06 0)
(2.9074e-08 -1.83125e-06 0)
(2.90318e-08 -1.8357e-06 0)
(2.89894e-08 -1.84015e-06 0)
(2.89468e-08 -1.8446e-06 0)
(2.8904e-08 -1.84906e-06 0)
(2.8861e-08 -1.85352e-06 0)
(2.88178e-08 -1.85799e-06 0)
(2.87744e-08 -1.86246e-06 0)
(2.87309e-08 -1.86694e-06 0)
(2.86871e-08 -1.87141e-06 0)
(2.86432e-08 -1.8759e-06 0)
(2.8599e-08 -1.88038e-06 0)
(2.85547e-08 -1.88487e-06 0)
(2.85102e-08 -1.88936e-06 0)
(2.84654e-08 -1.89386e-06 0)
(2.84205e-08 -1.89836e-06 0)
(2.83754e-08 -1.90286e-06 0)
(2.833e-08 -1.90737e-06 0)
(2.82845e-08 -1.91188e-06 0)
(2.82388e-08 -1.91639e-06 0)
(2.81929e-08 -1.92091e-06 0)
(2.81468e-08 -1.92543e-06 0)
(2.81004e-08 -1.92995e-06 0)
(2.80539e-08 -1.93448e-06 0)
(2.80072e-08 -1.93901e-06 0)
(2.79603e-08 -1.94354e-06 0)
(2.79132e-08 -1.94808e-06 0)
(2.78658e-08 -1.95262e-06 0)
(2.78183e-08 -1.95716e-06 0)
(2.77706e-08 -1.9617e-06 0)
(2.77227e-08 -1.96625e-06 0)
(2.76745e-08 -1.9708e-06 0)
(2.76262e-08 -1.97535e-06 0)
(2.75776e-08 -1.97991e-06 0)
(2.75289e-08 -1.98447e-06 0)
(2.748e-08 -1.98903e-06 0)
(2.74308e-08 -1.99359e-06 0)
(2.73815e-08 -1.99816e-06 0)
(2.73319e-08 -2.00273e-06 0)
(2.72821e-08 -2.0073e-06 0)
(2.72321e-08 -2.01187e-06 0)
(2.7182e-08 -2.01645e-06 0)
(2.71316e-08 -2.02103e-06 0)
(2.7081e-08 -2.02561e-06 0)
(2.70302e-08 -2.03019e-06 0)
(2.69792e-08 -2.03478e-06 0)
(2.6928e-08 -2.03936e-06 0)
(2.68766e-08 -2.04395e-06 0)
(2.68249e-08 -2.04855e-06 0)
(2.67731e-08 -2.05314e-06 0)
(2.6721e-08 -2.05773e-06 0)
(2.66688e-08 -2.06233e-06 0)
(2.66163e-08 -2.06693e-06 0)
(2.65637e-08 -2.07153e-06 0)
(2.65108e-08 -2.07613e-06 0)
(2.64577e-08 -2.08074e-06 0)
(2.64044e-08 -2.08534e-06 0)
(2.63509e-08 -2.08995e-06 0)
(2.62972e-08 -2.09456e-06 0)
(2.62432e-08 -2.09917e-06 0)
(2.61891e-08 -2.10378e-06 0)
(2.61348e-08 -2.10839e-06 0)
(2.60802e-08 -2.113e-06 0)
(2.60254e-08 -2.11762e-06 0)
(2.59705e-08 -2.12224e-06 0)
(2.59153e-08 -2.12685e-06 0)
(2.58599e-08 -2.13147e-06 0)
(2.58043e-08 -2.13609e-06 0)
(2.57484e-08 -2.14071e-06 0)
(2.56924e-08 -2.14533e-06 0)
(2.56362e-08 -2.14995e-06 0)
(2.55797e-08 -2.15458e-06 0)
(2.55231e-08 -2.1592e-06 0)
(2.54662e-08 -2.16382e-06 0)
(2.54091e-08 -2.16845e-06 0)
(2.53518e-08 -2.17307e-06 0)
(2.52943e-08 -2.1777e-06 0)
(2.52366e-08 -2.18232e-06 0)
(2.51787e-08 -2.18695e-06 0)
(2.51205e-08 -2.19158e-06 0)
(2.50622e-08 -2.1962e-06 0)
(2.50036e-08 -2.20083e-06 0)
(2.49448e-08 -2.20545e-06 0)
(2.48859e-08 -2.21008e-06 0)
(2.48267e-08 -2.21471e-06 0)
(2.47673e-08 -2.21933e-06 0)
(2.47077e-08 -2.22396e-06 0)
(2.46478e-08 -2.22859e-06 0)
(2.45878e-08 -2.23321e-06 0)
(2.45276e-08 -2.23784e-06 0)
(2.44671e-08 -2.24246e-06 0)
(2.44065e-08 -2.24708e-06 0)
(2.43456e-08 -2.25171e-06 0)
(2.42845e-08 -2.25633e-06 0)
(2.42233e-08 -2.26095e-06 0)
(2.41618e-08 -2.26557e-06 0)
(2.41001e-08 -2.27019e-06 0)
(2.40382e-08 -2.27481e-06 0)
(2.3976e-08 -2.27943e-06 0)
(2.39137e-08 -2.28405e-06 0)
(2.38512e-08 -2.28866e-06 0)
(2.37885e-08 -2.29328e-06 0)
(2.37255e-08 -2.29789e-06 0)
(2.36624e-08 -2.3025e-06 0)
(2.3599e-08 -2.30711e-06 0)
(2.35355e-08 -2.31172e-06 0)
(2.34717e-08 -2.31633e-06 0)
(2.34077e-08 -2.32093e-06 0)
(2.33436e-08 -2.32554e-06 0)
(2.32792e-08 -2.33014e-06 0)
(2.32146e-08 -2.33474e-06 0)
(2.31499e-08 -2.33934e-06 0)
(2.30849e-08 -2.34393e-06 0)
(2.30197e-08 -2.34853e-06 0)
(2.29543e-08 -2.35312e-06 0)
(2.28887e-08 -2.35771e-06 0)
(2.28229e-08 -2.36229e-06 0)
(2.2757e-08 -2.36688e-06 0)
(2.26908e-08 -2.37146e-06 0)
(2.26244e-08 -2.37604e-06 0)
(2.25578e-08 -2.38062e-06 0)
(2.24911e-08 -2.38519e-06 0)
(2.24241e-08 -2.38976e-06 0)
(2.23569e-08 -2.39433e-06 0)
(2.22896e-08 -2.39889e-06 0)
(2.2222e-08 -2.40346e-06 0)
(2.21542e-08 -2.40802e-06 0)
(2.20863e-08 -2.41257e-06 0)
(2.20182e-08 -2.41712e-06 0)
(2.19498e-08 -2.42167e-06 0)
(2.18813e-08 -2.42622e-06 0)
(2.18126e-08 -2.43076e-06 0)
(2.17438e-08 -2.4353e-06 0)
(2.16743e-08 -2.43984e-06 0)
(2.16068e-08 -2.44434e-06 0)
(2.15418e-08 -2.44863e-06 0)
(2.14779e-08 -2.45271e-06 0)
(2.14146e-08 -2.45675e-06 0)
(2.1351e-08 -2.46084e-06 0)
(2.12867e-08 -2.46497e-06 0)
(2.12218e-08 -2.46914e-06 0)
(2.11561e-08 -2.47334e-06 0)
(2.10897e-08 -2.47757e-06 0)
(2.10226e-08 -2.48183e-06 0)
(2.09547e-08 -2.48613e-06 0)
(2.08861e-08 -2.49046e-06 0)
(2.08167e-08 -2.49482e-06 0)
(2.07466e-08 -2.49921e-06 0)
(2.06757e-08 -2.50363e-06 0)
(2.0604e-08 -2.50809e-06 0)
(2.05315e-08 -2.51258e-06 0)
(2.04583e-08 -2.51711e-06 0)
(2.03842e-08 -2.52166e-06 0)
(2.03093e-08 -2.52625e-06 0)
(2.02337e-08 -2.53087e-06 0)
(2.01572e-08 -2.53553e-06 0)
(2.00799e-08 -2.54022e-06 0)
(2.00017e-08 -2.54494e-06 0)
(1.99227e-08 -2.54969e-06 0)
(1.98429e-08 -2.55447e-06 0)
(1.97622e-08 -2.55929e-06 0)
(1.96807e-08 -2.56414e-06 0)
(1.95982e-08 -2.56902e-06 0)
(1.9515e-08 -2.57393e-06 0)
(1.94308e-08 -2.57888e-06 0)
(1.93457e-08 -2.58386e-06 0)
(1.92598e-08 -2.58887e-06 0)
(1.91729e-08 -2.59391e-06 0)
(1.90852e-08 -2.59898e-06 0)
(1.89965e-08 -2.60409e-06 0)
(1.89069e-08 -2.60923e-06 0)
(1.88164e-08 -2.61439e-06 0)
(1.87249e-08 -2.61959e-06 0)
(1.86325e-08 -2.62482e-06 0)
(1.85392e-08 -2.63008e-06 0)
(1.84449e-08 -2.63537e-06 0)
(1.83497e-08 -2.64069e-06 0)
(1.82535e-08 -2.64604e-06 0)
(1.81563e-08 -2.65142e-06 0)
(1.80582e-08 -2.65683e-06 0)
(1.79591e-08 -2.66226e-06 0)
(1.7859e-08 -2.66773e-06 0)
(1.77579e-08 -2.67322e-06 0)
(1.76558e-08 -2.67875e-06 0)
(1.75527e-08 -2.6843e-06 0)
(1.74486e-08 -2.68987e-06 0)
(1.73436e-08 -2.69548e-06 0)
(1.72375e-08 -2.70111e-06 0)
(1.71304e-08 -2.70677e-06 0)
(1.70223e-08 -2.71245e-06 0)
(1.69131e-08 -2.71816e-06 0)
(1.6803e-08 -2.72389e-06 0)
(1.66918e-08 -2.72965e-06 0)
(1.65796e-08 -2.73543e-06 0)
(1.64663e-08 -2.74123e-06 0)
(1.63521e-08 -2.74706e-06 0)
(1.62367e-08 -2.7529e-06 0)
(1.61204e-08 -2.75877e-06 0)
(1.6003e-08 -2.76466e-06 0)
(1.58846e-08 -2.77057e-06 0)
(1.57652e-08 -2.7765e-06 0)
(1.56447e-08 -2.78245e-06 0)
(1.55232e-08 -2.78842e-06 0)
(1.54006e-08 -2.79441e-06 0)
(1.5277e-08 -2.80041e-06 0)
(1.51524e-08 -2.80643e-06 0)
(1.50268e-08 -2.81246e-06 0)
(1.49001e-08 -2.81851e-06 0)
(1.47724e-08 -2.82457e-06 0)
(1.46437e-08 -2.83064e-06 0)
(1.4514e-08 -2.83673e-06 0)
(1.43832e-08 -2.84283e-06 0)
(1.42515e-08 -2.84894e-06 0)
(1.41187e-08 -2.85505e-06 0)
(1.3985e-08 -2.86118e-06 0)
(1.38503e-08 -2.86731e-06 0)
(1.37145e-08 -2.87345e-06 0)
(1.35779e-08 -2.87959e-06 0)
(1.34402e-08 -2.88574e-06 0)
(1.33016e-08 -2.89189e-06 0)
(1.3162e-08 -2.89805e-06 0)
(1.30215e-08 -2.9042e-06 0)
(1.28801e-08 -2.91036e-06 0)
(1.27378e-08 -2.91651e-06 0)
(1.25945e-08 -2.92266e-06 0)
(1.24504e-08 -2.92881e-06 0)
(1.23054e-08 -2.93495e-06 0)
(1.21595e-08 -2.94108e-06 0)
(1.20128e-08 -2.94721e-06 0)
(1.18653e-08 -2.95333e-06 0)
(1.17169e-08 -2.95944e-06 0)
(1.15678e-08 -2.96554e-06 0)
(1.14178e-08 -2.97162e-06 0)
(1.12671e-08 -2.97769e-06 0)
(1.11157e-08 -2.98374e-06 0)
(1.09635e-08 -2.98978e-06 0)
(1.08107e-08 -2.9958e-06 0)
(1.06572e-08 -3.0018e-06 0)
(1.0503e-08 -3.00777e-06 0)
(1.03481e-08 -3.01372e-06 0)
(1.01927e-08 -3.01965e-06 0)
(1.00367e-08 -3.02555e-06 0)
(9.88013e-09 -3.03142e-06 0)
(9.72304e-09 -3.03726e-06 0)
(9.56545e-09 -3.04307e-06 0)
(9.40738e-09 -3.04885e-06 0)
(9.24887e-09 -3.05459e-06 0)
(9.08995e-09 -3.0603e-06 0)
(8.93065e-09 -3.06597e-06 0)
(8.771e-09 -3.0716e-06 0)
(8.61103e-09 -3.07718e-06 0)
(8.45078e-09 -3.08273e-06 0)
(8.29029e-09 -3.08822e-06 0)
(8.12959e-09 -3.09367e-06 0)
(7.96871e-09 -3.09907e-06 0)
(7.80769e-09 -3.10443e-06 0)
(7.64657e-09 -3.10972e-06 0)
(7.48539e-09 -3.11497e-06 0)
(7.32419e-09 -3.12015e-06 0)
(7.163e-09 -3.12528e-06 0)
(7.00188e-09 -3.13035e-06 0)
(6.84086e-09 -3.13536e-06 0)
(6.67998e-09 -3.14031e-06 0)
(6.51928e-09 -3.14518e-06 0)
(6.35882e-09 -3.15e-06 0)
(6.19863e-09 -3.15474e-06 0)
(6.03876e-09 -3.15941e-06 0)
(5.87925e-09 -3.16401e-06 0)
(5.72016e-09 -3.16853e-06 0)
(5.56152e-09 -3.17298e-06 0)
(5.40339e-09 -3.17735e-06 0)
(5.24581e-09 -3.18164e-06 0)
(5.08883e-09 -3.18585e-06 0)
(4.9325e-09 -3.18997e-06 0)
(4.77687e-09 -3.19401e-06 0)
(4.62198e-09 -3.19796e-06 0)
(4.46788e-09 -3.20182e-06 0)
(4.31464e-09 -3.2056e-06 0)
(4.16228e-09 -3.20928e-06 0)
(4.01087e-09 -3.21286e-06 0)
(3.86045e-09 -3.21635e-06 0)
(3.71108e-09 -3.21975e-06 0)
(3.5628e-09 -3.22304e-06 0)
(3.41567e-09 -3.22624e-06 0)
(3.26972e-09 -3.22933e-06 0)
(3.12502e-09 -3.23232e-06 0)
(2.98161e-09 -3.23521e-06 0)
(2.83954e-09 -3.23799e-06 0)
(2.69887e-09 -3.24066e-06 0)
(2.55962e-09 -3.24323e-06 0)
(2.42187e-09 -3.24568e-06 0)
(2.28564e-09 -3.24803e-06 0)
(2.151e-09 -3.25026e-06 0)
(2.01798e-09 -3.25238e-06 0)
(1.88663e-09 -3.25439e-06 0)
(1.757e-09 -3.25628e-06 0)
(1.62913e-09 -3.25806e-06 0)
(1.50306e-09 -3.25972e-06 0)
(1.37883e-09 -3.26126e-06 0)
(1.25649e-09 -3.26268e-06 0)
(1.13608e-09 -3.26399e-06 0)
(1.01763e-09 -3.26518e-06 0)
(9.01185e-10 -3.26624e-06 0)
(7.86781e-10 -3.26719e-06 0)
(6.74454e-10 -3.26802e-06 0)
(5.64239e-10 -3.26872e-06 0)
(4.56169e-10 -3.26931e-06 0)
(3.50277e-10 -3.26977e-06 0)
(2.46594e-10 -3.27011e-06 0)
(1.45149e-10 -3.27033e-06 0)
(4.59753e-11 -3.27043e-06 0)
(-5.09181e-11 -3.27041e-06 0)
(-1.4543e-10 -3.27027e-06 0)
(-2.37869e-10 -3.27001e-06 0)
(-3.26931e-10 -3.26963e-06 0)
(-4.18205e-10 -3.26912e-06 0)
(-5.13851e-10 -3.26843e-06 0)
(-6.09584e-10 -3.26751e-06 0)
(-7.03733e-10 -3.26642e-06 0)
(-7.93632e-10 -3.26518e-06 0)
(-8.79156e-10 -3.26381e-06 0)
(-9.60347e-10 -3.2623e-06 0)
(-1.03729e-09 -3.26066e-06 0)
(-1.11008e-09 -3.25891e-06 0)
(-1.17884e-09 -3.25703e-06 0)
(-1.24372e-09 -3.25506e-06 0)
(-1.30482e-09 -3.25297e-06 0)
(-1.36227e-09 -3.2508e-06 0)
(-1.41618e-09 -3.24853e-06 0)
(-1.46666e-09 -3.24618e-06 0)
(-1.51383e-09 -3.24375e-06 0)
(-1.55778e-09 -3.24125e-06 0)
(-1.59862e-09 -3.23868e-06 0)
(-1.63646e-09 -3.23604e-06 0)
(-1.67138e-09 -3.23335e-06 0)
(-1.70348e-09 -3.2306e-06 0)
(-1.73285e-09 -3.22781e-06 0)
(-1.75958e-09 -3.22496e-06 0)
(-1.78375e-09 -3.22208e-06 0)
(-1.80544e-09 -3.21916e-06 0)
(-1.82474e-09 -3.21621e-06 0)
(-1.84171e-09 -3.21323e-06 0)
(-1.85644e-09 -3.21022e-06 0)
(-1.86899e-09 -3.20719e-06 0)
(-1.87943e-09 -3.20415e-06 0)
(-1.88783e-09 -3.20108e-06 0)
(-1.89424e-09 -3.19801e-06 0)
(-1.89874e-09 -3.19493e-06 0)
(-1.90138e-09 -3.19184e-06 0)
(-1.90221e-09 -3.18875e-06 0)
(-1.9013e-09 -3.18566e-06 0)
(-1.89869e-09 -3.18257e-06 0)
(-1.89443e-09 -3.17949e-06 0)
(-1.88858e-09 -3.17641e-06 0)
(-1.88118e-09 -3.17335e-06 0)
(-1.87228e-09 -3.1703e-06 0)
(-1.86192e-09 -3.16727e-06 0)
(-1.85014e-09 -3.16425e-06 0)
(-1.83698e-09 -3.16126e-06 0)
(-1.82249e-09 -3.15828e-06 0)
(-1.80669e-09 -3.15533e-06 0)
(-1.78964e-09 -3.15241e-06 0)
(-1.77135e-09 -3.14952e-06 0)
(-1.75188e-09 -3.14666e-06 0)
(-1.73125e-09 -3.14383e-06 0)
(-1.70949e-09 -3.14103e-06 0)
(-1.68663e-09 -3.13827e-06 0)
(-1.66271e-09 -3.13555e-06 0)
(-1.63776e-09 -3.13287e-06 0)
(-1.6118e-09 -3.13023e-06 0)
(-1.58486e-09 -3.12763e-06 0)
(-1.55698e-09 -3.12508e-06 0)
(-1.52817e-09 -3.12257e-06 0)
(-1.49846e-09 -3.12012e-06 0)
(-1.46789e-09 -3.1177e-06 0)
(-1.43647e-09 -3.11535e-06 0)
(-1.40423e-09 -3.11304e-06 0)
(-1.37119e-09 -3.11078e-06 0)
(-1.33739e-09 -3.10858e-06 0)
(-1.30284e-09 -3.10643e-06 0)
(-1.26756e-09 -3.10434e-06 0)
(-1.23159e-09 -3.10231e-06 0)
(-1.19494e-09 -3.10034e-06 0)
(-1.15764e-09 -3.09842e-06 0)
(-1.11971e-09 -3.09657e-06 0)
(-1.08117e-09 -3.09478e-06 0)
(-1.04205e-09 -3.09305e-06 0)
(-1.00237e-09 -3.09139e-06 0)
(-9.62154e-10 -3.08979e-06 0)
(-9.21421e-10 -3.08826e-06 0)
(-8.80193e-10 -3.08679e-06 0)
(-8.38496e-10 -3.08539e-06 0)
(-7.96351e-10 -3.08406e-06 0)
(-7.5378e-10 -3.0828e-06 0)
(-7.10806e-10 -3.0816e-06 0)
(-6.67453e-10 -3.08048e-06 0)
(-6.2374e-10 -3.07942e-06 0)
(-5.79693e-10 -3.07844e-06 0)
(-5.35332e-10 -3.07753e-06 0)
(-4.90682e-10 -3.07669e-06 0)
(-4.45762e-10 -3.07592e-06 0)
(-4.00598e-10 -3.07525e-06 0)
(-3.55207e-10 -3.07456e-06 0)
(-3.09619e-10 -3.07423e-06 0)
(-2.63834e-10 -3.07304e-06 0)
(-2.17937e-10 -3.07498e-06 0)
(-1.71774e-10 -3.06666e-06 0)
(-1.25855e-10 -3.09137e-06 0)
(-7.93667e-11 -2.99866e-06 0)
(-3.32139e-11 -3.24484e-06 0)
(-5.42131e-12 -2.83408e-06 0)
)
;
    }
    bottomWall
    {
        type            calculated;
        value           nonuniform List<vector> 
449
(
(-48.4867 -0.963459 0)
(-19.7372 -0.0051493 0)
(-14.338 -0.00113239 0)
(-12.0364 -0.000542715 0)
(-10.6412 -0.000347158 0)
(-9.66606 -0.000248013 0)
(-8.94375 -0.000182273 0)
(-8.41558 -0.000124017 0)
(-8.09124 -5.17588e-05 0)
(-8.06036 7.26198e-05 0)
(-8.59732 0.000255654 0)
(-9.83468 0.000335323 0)
(-10.9228 0.000255482 0)
(-11.6084 0.000153154 0)
(-11.9893 8.4319e-05 0)
(-12.1973 4.44684e-05 0)
(-12.3007 1.98518e-05 0)
(-12.3366 3.08007e-06 0)
(-12.3222 -7.91929e-06 0)
(-12.2807 -1.44388e-05 0)
(-12.2201 -1.87768e-05 0)
(-12.1475 -2.12703e-05 0)
(-12.0689 -2.24257e-05 0)
(-11.9878 -2.2798e-05 0)
(-11.9061 -2.2707e-05 0)
(-11.8253 -2.23596e-05 0)
(-11.7457 -2.18498e-05 0)
(-11.6682 -2.12192e-05 0)
(-11.5928 -2.05356e-05 0)
(-11.5198 -1.98337e-05 0)
(-11.4492 -1.91334e-05 0)
(-11.3809 -1.84463e-05 0)
(-11.3149 -1.77807e-05 0)
(-11.2512 -1.71393e-05 0)
(-11.1896 -1.65331e-05 0)
(-11.1301 -1.59648e-05 0)
(-11.0724 -1.54178e-05 0)
(-11.0165 -1.4888e-05 0)
(-10.9625 -1.43832e-05 0)
(-10.9101 -1.3904e-05 0)
(-10.8594 -1.34492e-05 0)
(-10.8102 -1.30179e-05 0)
(-10.7624 -1.26103e-05 0)
(-10.716 -1.22229e-05 0)
(-10.6709 -1.18538e-05 0)
(-10.6271 -1.15026e-05 0)
(-10.5844 -1.1171e-05 0)
(-10.5428 -1.08532e-05 0)
(-10.5024 -1.05577e-05 0)
(-10.4629 -1.0298e-05 0)
(-10.4242 -1.00648e-05 0)
(-10.3863 -9.84536e-06 0)
(-10.3491 -9.63285e-06 0)
(-10.3126 -9.42388e-06 0)
(-10.2769 -9.21852e-06 0)
(-10.2418 -9.01541e-06 0)
(-10.2075 -8.81688e-06 0)
(-10.1738 -8.62449e-06 0)
(-10.1407 -8.43683e-06 0)
(-10.1083 -8.25449e-06 0)
(-10.0766 -8.07852e-06 0)
(-10.0454 -7.9096e-06 0)
(-10.0148 -7.74525e-06 0)
(-9.98475 -7.58509e-06 0)
(-9.95527 -7.42954e-06 0)
(-9.92631 -7.28065e-06 0)
(-9.89787 -7.13686e-06 0)
(-9.86991 -6.99765e-06 0)
(-9.84244 -6.86141e-06 0)
(-9.81543 -6.73308e-06 0)
(-9.78885 -6.61091e-06 0)
(-9.7627 -6.48872e-06 0)
(-9.73697 -6.36875e-06 0)
(-9.71165 -6.2531e-06 0)
(-9.68673 -6.14148e-06 0)
(-9.66219 -6.03145e-06 0)
(-9.63804 -5.9246e-06 0)
(-9.61425 -5.82024e-06 0)
(-9.59084 -5.7188e-06 0)
(-9.56776 -5.62045e-06 0)
(-9.54504 -5.52476e-06 0)
(-9.52264 -5.4317e-06 0)
(-9.50057 -5.34133e-06 0)
(-9.4788 -5.25308e-06 0)
(-9.45735 -5.16711e-06 0)
(-9.4362 -5.08389e-06 0)
(-9.41534 -5.00257e-06 0)
(-9.39476 -4.92472e-06 0)
(-9.37444 -4.84833e-06 0)
(-9.3544 -4.77325e-06 0)
(-9.33462 -4.70057e-06 0)
(-9.31509 -4.62888e-06 0)
(-9.29582 -4.55934e-06 0)
(-9.27678 -4.49141e-06 0)
(-9.25799 -4.42427e-06 0)
(-9.23943 -4.36001e-06 0)
(-9.2211 -4.29661e-06 0)
(-9.20299 -4.23444e-06 0)
(-9.1851 -4.17466e-06 0)
(-9.16741 -4.11522e-06 0)
(-9.14994 -4.05997e-06 0)
(-9.13265 -4.00732e-06 0)
(-9.11555 -3.9531e-06 0)
(-9.09864 -3.89993e-06 0)
(-9.08192 -3.84717e-06 0)
(-9.06539 -3.79509e-06 0)
(-9.04904 -3.74527e-06 0)
(-9.03287 -3.6959e-06 0)
(-9.01687 -3.64697e-06 0)
(-9.00104 -3.60023e-06 0)
(-8.98538 -3.55389e-06 0)
(-8.96989 -3.50779e-06 0)
(-8.95456 -3.46393e-06 0)
(-8.93938 -3.4205e-06 0)
(-8.92436 -3.37711e-06 0)
(-8.90949 -3.33573e-06 0)
(-8.89477 -3.29502e-06 0)
(-8.8802 -3.25416e-06 0)
(-8.86577 -3.21484e-06 0)
(-8.85148 -3.1767e-06 0)
(-8.83732 -3.13831e-06 0)
(-8.82331 -3.1009e-06 0)
(-8.80942 -3.06515e-06 0)
(-8.79567 -3.02917e-06 0)
(-8.78204 -2.9934e-06 0)
(-8.76854 -2.95937e-06 0)
(-8.75517 -2.92577e-06 0)
(-8.74191 -2.89207e-06 0)
(-8.72878 -2.85939e-06 0)
(-8.71576 -2.82789e-06 0)
(-8.70285 -2.79626e-06 0)
(-8.69006 -2.76479e-06 0)
(-8.67738 -2.73475e-06 0)
(-8.66481 -2.70523e-06 0)
(-8.65234 -2.67547e-06 0)
(-8.63999 -2.64646e-06 0)
(-8.62774 -2.61871e-06 0)
(-8.61558 -2.59081e-06 0)
(-8.60353 -2.56281e-06 0)
(-8.59158 -2.53606e-06 0)
(-8.57972 -2.51012e-06 0)
(-8.56796 -2.4838e-06 0)
(-8.5563 -2.45772e-06 0)
(-8.54473 -2.43286e-06 0)
(-8.53325 -2.40844e-06 0)
(-8.52185 -2.38367e-06 0)
(-8.51055 -2.35991e-06 0)
(-8.49933 -2.33828e-06 0)
(-8.48819 -2.31661e-06 0)
(-8.47712 -2.29368e-06 0)
(-8.46614 -2.27095e-06 0)
(-8.45524 -2.24906e-06 0)
(-8.44442 -2.22742e-06 0)
(-8.43368 -2.2056e-06 0)
(-8.42303 -2.18413e-06 0)
(-8.41244 -2.16347e-06 0)
(-8.40194 -2.14317e-06 0)
(-8.3915 -2.12267e-06 0)
(-8.38115 -2.10235e-06 0)
(-8.37087 -2.08283e-06 0)
(-8.36065 -2.06382e-06 0)
(-8.35051 -2.04456e-06 0)
(-8.34044 -2.02526e-06 0)
(-8.33044 -2.00676e-06 0)
(-8.32051 -1.98889e-06 0)
(-8.31064 -1.97082e-06 0)
(-8.30084 -1.95262e-06 0)
(-8.2911 -1.93497e-06 0)
(-8.28143 -1.91813e-06 0)
(-8.27182 -1.90114e-06 0)
(-8.26228 -1.88431e-06 0)
(-8.2528 -1.8673e-06 0)
(-8.24338 -1.84887e-06 0)
(-8.23456 -1.83552e-06 0)
(-8.22624 -1.82396e-06 0)
(-8.2179 -1.80786e-06 0)
(-8.20955 -1.79288e-06 0)
(-8.20117 -1.77913e-06 0)
(-8.19276 -1.76529e-06 0)
(-8.18433 -1.75125e-06 0)
(-8.17588 -1.73689e-06 0)
(-8.1674 -1.72302e-06 0)
(-8.1589 -1.70943e-06 0)
(-8.15038 -1.69596e-06 0)
(-8.14183 -1.68207e-06 0)
(-8.13326 -1.66802e-06 0)
(-8.12467 -1.65448e-06 0)
(-8.11605 -1.64119e-06 0)
(-8.10742 -1.62785e-06 0)
(-8.09876 -1.61422e-06 0)
(-8.09008 -1.6006e-06 0)
(-8.08138 -1.58742e-06 0)
(-8.07265 -1.5744e-06 0)
(-8.06391 -1.5612e-06 0)
(-8.05514 -1.54784e-06 0)
(-8.04636 -1.53468e-06 0)
(-8.03755 -1.52181e-06 0)
(-8.02872 -1.5091e-06 0)
(-8.01988 -1.49611e-06 0)
(-8.01101 -1.483e-06 0)
(-8.00213 -1.4703e-06 0)
(-7.99322 -1.4578e-06 0)
(-7.9843 -1.44525e-06 0)
(-7.97535 -1.43252e-06 0)
(-7.96639 -1.41989e-06 0)
(-7.95742 -1.40757e-06 0)
(-7.94842 -1.39543e-06 0)
(-7.9394 -1.38305e-06 0)
(-7.93037 -1.37056e-06 0)
(-7.92132 -1.35843e-06 0)
(-7.91226 -1.34655e-06 0)
(-7.90317 -1.33452e-06 0)
(-7.89407 -1.32307e-06 0)
(-7.88495 -1.31217e-06 0)
(-7.8758 -1.30084e-06 0)
(-7.86664 -1.28922e-06 0)
(-7.85746 -1.27739e-06 0)
(-7.84827 -1.2656e-06 0)
(-7.83906 -1.25413e-06 0)
(-7.82983 -1.24283e-06 0)
(-7.82059 -1.23132e-06 0)
(-7.81134 -1.21974e-06 0)
(-7.80208 -1.20852e-06 0)
(-7.79279 -1.19754e-06 0)
(-7.7835 -1.18634e-06 0)
(-7.77419 -1.17502e-06 0)
(-7.76487 -1.16406e-06 0)
(-7.75553 -1.15335e-06 0)
(-7.74619 -1.14246e-06 0)
(-7.73683 -1.13146e-06 0)
(-7.72746 -1.12076e-06 0)
(-7.71807 -1.11031e-06 0)
(-7.70868 -1.09972e-06 0)
(-7.69927 -1.08903e-06 0)
(-7.68985 -1.0786e-06 0)
(-7.68042 -1.06843e-06 0)
(-7.67098 -1.05813e-06 0)
(-7.66153 -1.04773e-06 0)
(-7.65207 -1.03759e-06 0)
(-7.6426 -1.0277e-06 0)
(-7.63312 -1.01767e-06 0)
(-7.62363 -1.00756e-06 0)
(-7.61413 -9.97725e-07 0)
(-7.60462 -9.8811e-07 0)
(-7.5951 -9.78356e-07 0)
(-7.58557 -9.68535e-07 0)
(-7.57604 -9.59011e-07 0)
(-7.56649 -9.49682e-07 0)
(-7.55694 -9.40187e-07 0)
(-7.54738 -9.30659e-07 0)
(-7.53782 -9.21445e-07 0)
(-7.52824 -9.12361e-07 0)
(-7.51866 -9.03127e-07 0)
(-7.50907 -8.93929e-07 0)
(-7.49948 -8.84999e-07 0)
(-7.48988 -8.76141e-07 0)
(-7.48027 -8.67179e-07 0)
(-7.47066 -8.58314e-07 0)
(-7.46104 -8.49678e-07 0)
(-7.45141 -8.41047e-07 0)
(-7.44178 -8.32348e-07 0)
(-7.43215 -8.23806e-07 0)
(-7.42251 -8.15458e-07 0)
(-7.41286 -8.07047e-07 0)
(-7.40321 -7.98612e-07 0)
(-7.39356 -7.90386e-07 0)
(-7.38391 -7.82291e-07 0)
(-7.37424 -7.74111e-07 0)
(-7.36458 -7.65979e-07 0)
(-7.35491 -7.58056e-07 0)
(-7.34524 -7.50169e-07 0)
(-7.33557 -7.42234e-07 0)
(-7.3259 -7.34462e-07 0)
(-7.31622 -7.27334e-07 0)
(-7.30652 -7.20203e-07 0)
(-7.29683 -7.12613e-07 0)
(-7.28713 -7.05143e-07 0)
(-7.27742 -6.97737e-07 0)
(-7.26772 -6.90274e-07 0)
(-7.25802 -6.82876e-07 0)
(-7.24831 -6.7565e-07 0)
(-7.23861 -6.68428e-07 0)
(-7.2289 -6.61176e-07 0)
(-7.21919 -6.5407e-07 0)
(-7.20949 -6.47092e-07 0)
(-7.19978 -6.40063e-07 0)
(-7.19008 -6.33064e-07 0)
(-7.18038 -6.2625e-07 0)
(-7.17067 -6.19468e-07 0)
(-7.16097 -6.12652e-07 0)
(-7.15127 -6.05961e-07 0)
(-7.14157 -5.99404e-07 0)
(-7.13188 -5.92805e-07 0)
(-7.12218 -5.86226e-07 0)
(-7.11249 -5.79821e-07 0)
(-7.1028 -5.73448e-07 0)
(-7.09312 -5.67049e-07 0)
(-7.08344 -5.60765e-07 0)
(-7.07376 -5.54606e-07 0)
(-7.06408 -5.4841e-07 0)
(-7.05441 -5.42245e-07 0)
(-7.04474 -5.36237e-07 0)
(-7.03508 -5.30253e-07 0)
(-7.02542 -5.24253e-07 0)
(-7.01576 -5.18368e-07 0)
(-7.00611 -5.12578e-07 0)
(-6.99647 -5.06762e-07 0)
(-6.98683 -5.00997e-07 0)
(-6.97719 -4.95377e-07 0)
(-6.96756 -4.89754e-07 0)
(-6.95794 -4.84133e-07 0)
(-6.94833 -4.78638e-07 0)
(-6.93872 -4.73206e-07 0)
(-6.92911 -4.67756e-07 0)
(-6.91952 -4.62378e-07 0)
(-6.90993 -4.57116e-07 0)
(-6.90035 -4.51841e-07 0)
(-6.89077 -4.46586e-07 0)
(-6.88121 -4.41467e-07 0)
(-6.87164 -4.36368e-07 0)
(-6.86209 -4.31267e-07 0)
(-6.85255 -4.26267e-07 0)
(-6.84302 -4.21338e-07 0)
(-6.83349 -4.16397e-07 0)
(-6.82398 -4.11515e-07 0)
(-6.81447 -4.06743e-07 0)
(-6.80497 -4.01964e-07 0)
(-6.79548 -3.97203e-07 0)
(-6.786 -3.92552e-07 0)
(-6.77653 -3.88171e-07 0)
(-6.76706 -3.83841e-07 0)
(-6.7576 -3.79347e-07 0)
(-6.74815 -3.74869e-07 0)
(-6.7387 -3.70386e-07 0)
(-6.72927 -3.65971e-07 0)
(-6.71985 -3.6164e-07 0)
(-6.71045 -3.57312e-07 0)
(-6.70105 -3.5303e-07 0)
(-6.69166 -3.48889e-07 0)
(-6.68229 -3.44731e-07 0)
(-6.67292 -3.40544e-07 0)
(-6.66357 -3.3646e-07 0)
(-6.65423 -3.32411e-07 0)
(-6.6449 -3.28357e-07 0)
(-6.63559 -3.2439e-07 0)
(-6.62629 -3.2047e-07 0)
(-6.617 -3.16556e-07 0)
(-6.60773 -3.12691e-07 0)
(-6.59847 -3.08907e-07 0)
(-6.58922 -3.051e-07 0)
(-6.57999 -3.0137e-07 0)
(-6.57077 -2.97618e-07 0)
(-6.56157 -2.94018e-07 0)
(-6.55237 -2.90543e-07 0)
(-6.54216 -2.86389e-07 0)
(-6.53105 -2.81938e-07 0)
(-6.52011 -2.77892e-07 0)
(-6.50931 -2.73931e-07 0)
(-6.49868 -2.69965e-07 0)
(-6.48819 -2.66132e-07 0)
(-6.47786 -2.62378e-07 0)
(-6.46766 -2.58696e-07 0)
(-6.45762 -2.55128e-07 0)
(-6.4477 -2.51626e-07 0)
(-6.43794 -2.48193e-07 0)
(-6.42829 -2.44869e-07 0)
(-6.41878 -2.41606e-07 0)
(-6.40939 -2.38397e-07 0)
(-6.40013 -2.353e-07 0)
(-6.39098 -2.32254e-07 0)
(-6.38196 -2.29261e-07 0)
(-6.37305 -2.26363e-07 0)
(-6.36425 -2.23522e-07 0)
(-6.35556 -2.20719e-07 0)
(-6.34699 -2.18001e-07 0)
(-6.33851 -2.15342e-07 0)
(-6.33014 -2.1272e-07 0)
(-6.32187 -2.1016e-07 0)
(-6.3137 -2.07675e-07 0)
(-6.30562 -2.05214e-07 0)
(-6.29765 -2.02799e-07 0)
(-6.28976 -2.00461e-07 0)
(-6.28197 -1.98163e-07 0)
(-6.27426 -1.95919e-07 0)
(-6.26664 -1.93818e-07 0)
(-6.2591 -1.91748e-07 0)
(-6.25164 -1.89631e-07 0)
(-6.24426 -1.87537e-07 0)
(-6.23697 -1.85519e-07 0)
(-6.22975 -1.8353e-07 0)
(-6.22262 -1.81551e-07 0)
(-6.21555 -1.79604e-07 0)
(-6.20857 -1.77719e-07 0)
(-6.20165 -1.75851e-07 0)
(-6.19481 -1.74007e-07 0)
(-6.18804 -1.72204e-07 0)
(-6.18134 -1.70458e-07 0)
(-6.1747 -1.68718e-07 0)
(-6.16814 -1.67005e-07 0)
(-6.16164 -1.65329e-07 0)
(-6.15521 -1.63708e-07 0)
(-6.14883 -1.62088e-07 0)
(-6.14253 -1.60496e-07 0)
(-6.13628 -1.5893e-07 0)
(-6.1301 -1.57422e-07 0)
(-6.12396 -1.5591e-07 0)
(-6.11791 -1.54431e-07 0)
(-6.11188 -1.52959e-07 0)
(-6.10594 -1.51553e-07 0)
(-6.10003 -1.50141e-07 0)
(-6.0942 -1.48768e-07 0)
(-6.08839 -1.47379e-07 0)
(-6.08267 -1.4607e-07 0)
(-6.07697 -1.4475e-07 0)
(-6.07135 -1.43481e-07 0)
(-6.06574 -1.42164e-07 0)
(-6.06023 -1.40947e-07 0)
(-6.05472 -1.39694e-07 0)
(-6.0493 -1.38534e-07 0)
(-6.04388 -1.37292e-07 0)
(-6.03856 -1.36164e-07 0)
(-6.03323 -1.34964e-07 0)
(-6.028 -1.33908e-07 0)
(-6.02276 -1.32732e-07 0)
(-6.01762 -1.31703e-07 0)
(-6.01246 -1.30543e-07 0)
(-6.00741 -1.29583e-07 0)
(-6.00232 -1.28465e-07 0)
(-5.99736 -1.27555e-07 0)
(-5.99234 -1.26429e-07 0)
(-5.98747 -1.25573e-07 0)
(-5.98252 -1.24483e-07 0)
(-5.97774 -1.23709e-07 0)
(-5.97284 -1.22631e-07 0)
(-5.96814 -1.21905e-07 0)
(-5.96331 -1.20855e-07 0)
(-5.95869 -1.20208e-07 0)
(-5.95391 -1.19264e-07 0)
(-5.94936 -1.18578e-07 0)
(-5.94463 -1.18006e-07 0)
(-5.94013 -1.16701e-07 0)
(-5.93551 -1.17874e-07 0)
(-5.9309 -1.13452e-07 0)
(-5.92664 -1.21496e-07 0)
(-5.92138 -1.04116e-07 0)
(-5.91854 -1.34901e-07 0)
(-5.91074 -8.20323e-08 0)
(-5.91228 -1.13267e-07 0)
(-5.9016 -1.41636e-07 0)
)
;
    }
    symmetry
    {
        type            symmetryPlane;
    }
    frontAndBack
    {
        type            empty;
    }
}


// ************************************************************************* //
