/*--------------------------------*- C++ -*----------------------------------*\
| =========                 |                                                 |
| \\      /  F ield         | OpenFOAM: The Open Source CFD Toolbox           |
|  \\    /   O peration     | Version:  v2012                                 |
|   \\  /    A nd           | Website:  www.openfoam.com                      |
|    \\/     M anipulation  |                                                 |
\*---------------------------------------------------------------------------*/
FoamFile
{
    version     2.0;
    format      ascii;
    class       volScalarField;
    location    "49.5";
    object      yPlus;
}
// * * * * * * * * * * * * * * * * * * * * * * * * * * * * * * * * * * * * * //

dimensions      [0 0 0 0 0 0 0];


internalField   uniform 0;

boundaryField
{
    inlet
    {
        type            calculated;
        value           uniform 0;
    }
    outlet
    {
        type            calculated;
        value           uniform 0;
    }
    topWall
    {
        type            calculated;
        value           nonuniform List<scalar> 
545
(
0.111337
0.191979
0.246291
0.289514
0.326108
0.358129
0.386732
0.412644
0.436361
0.458239
0.478544
0.497481
0.515216
0.53188
0.547583
0.562418
0.576462
0.589783
0.602438
0.61448
0.625952
0.636895
0.647345
0.657333
0.666889
0.676039
0.684806
0.693214
0.701281
0.709026
0.716467
0.723619
0.730496
0.737113
0.743482
0.749615
0.755523
0.761217
0.766705
0.771998
0.777104
0.782031
0.786786
0.791378
0.795812
0.800096
0.804235
0.808235
0.812102
0.815841
0.819457
0.822954
0.826338
0.829613
0.832782
0.83585
0.83882
0.841696
0.844482
0.84718
0.849793
0.852326
0.85478
0.857159
0.859464
0.861699
0.863866
0.865967
0.868004
0.86998
0.871897
0.873756
0.875536
0.877259
0.878968
0.880664
0.882346
0.884015
0.885671
0.887314
0.888944
0.890562
0.892167
0.893759
0.895339
0.896907
0.898463
0.900007
0.901539
0.903059
0.904568
0.906065
0.90755
0.909025
0.910488
0.91194
0.913249
0.914419
0.91559
0.91676
0.91793
0.9191
0.92027
0.92144
0.92261
0.923779
0.924949
0.926118
0.927287
0.928456
0.929625
0.930794
0.931962
0.93313
0.934298
0.935466
0.936633
0.937801
0.938968
0.940135
0.941301
0.942468
0.943634
0.9448
0.945965
0.947131
0.948296
0.94946
0.950625
0.951789
0.952953
0.954116
0.955279
0.956442
0.957605
0.958767
0.959928
0.96109
0.962251
0.963411
0.964572
0.965731
0.966891
0.96805
0.969208
0.970366
0.971524
0.972681
0.973838
0.974994
0.97615
0.977305
0.97846
0.979614
0.980768
0.981921
0.983074
0.984226
0.985378
0.986529
0.98768
0.98883
0.989979
0.991128
0.992276
0.993423
0.99457
0.995717
0.996862
0.998007
0.999152
1.0003
1.00144
1.00258
1.00372
1.00486
1.006
1.00714
1.00828
1.00942
1.01056
1.01169
1.01283
1.01396
1.0151
1.01623
1.01736
1.0185
1.01963
1.02076
1.02189
1.02301
1.02414
1.02527
1.02639
1.02752
1.02864
1.02976
1.03089
1.03201
1.03313
1.03425
1.03536
1.03648
1.0376
1.03871
1.03983
1.04094
1.04205
1.04316
1.04427
1.04538
1.04649
1.04759
1.0487
1.0498
1.05091
1.05201
1.05311
1.05421
1.05531
1.0564
1.0575
1.05859
1.05969
1.06078
1.06187
1.06296
1.06405
1.06513
1.06622
1.0673
1.06839
1.06947
1.07055
1.07163
1.0727
1.07378
1.07485
1.07593
1.077
1.07807
1.07914
1.08021
1.08127
1.08234
1.0834
1.08446
1.08552
1.08658
1.08763
1.08869
1.08974
1.09079
1.09184
1.09289
1.09394
1.09499
1.09603
1.09707
1.09811
1.09915
1.10019
1.10122
1.10225
1.10329
1.10431
1.10534
1.10637
1.10734
1.10825
1.10917
1.11009
1.11102
1.11196
1.11291
1.11386
1.11482
1.11578
1.11675
1.11773
1.11871
1.1197
1.1207
1.1217
1.12271
1.12373
1.12475
1.12578
1.12681
1.12786
1.1289
1.12996
1.13102
1.13208
1.13316
1.13423
1.13532
1.13641
1.13751
1.13861
1.13972
1.14083
1.14195
1.14308
1.14421
1.14535
1.14649
1.14764
1.14879
1.14995
1.15111
1.15228
1.15346
1.15464
1.15582
1.15701
1.15821
1.15941
1.16061
1.16182
1.16303
1.16425
1.16547
1.1667
1.16793
1.16916
1.1704
1.17164
1.17289
1.17413
1.17539
1.17664
1.1779
1.17916
1.18042
1.18169
1.18295
1.18423
1.1855
1.18677
1.18805
1.18932
1.1906
1.19188
1.19316
1.19445
1.19573
1.19701
1.19829
1.19957
1.20086
1.20214
1.20342
1.2047
1.20598
1.20726
1.20853
1.20981
1.21108
1.21235
1.21362
1.21488
1.21614
1.2174
1.21865
1.2199
1.22115
1.22239
1.22363
1.22486
1.22608
1.2273
1.22852
1.22973
1.23093
1.23212
1.23331
1.23449
1.23566
1.23683
1.23798
1.23913
1.24027
1.24139
1.24251
1.24362
1.24472
1.2458
1.24688
1.24794
1.249
1.25004
1.25107
1.25208
1.25308
1.25407
1.25505
1.25601
1.25695
1.25788
1.2588
1.2597
1.26058
1.26145
1.2623
1.26314
1.26396
1.26476
1.26554
1.26631
1.26705
1.26778
1.26849
1.26918
1.26985
1.2705
1.27113
1.27174
1.27233
1.2729
1.27345
1.27397
1.27448
1.27496
1.27542
1.27586
1.27628
1.27667
1.27705
1.27739
1.27772
1.27802
1.2783
1.27856
1.27879
1.279
1.27919
1.27935
1.27949
1.27961
1.2797
1.27977
1.27981
1.27983
1.27983
1.2798
1.27975
1.27967
1.27958
1.27944
1.27926
1.27905
1.27881
1.27854
1.27825
1.27793
1.27758
1.27722
1.27683
1.27642
1.27599
1.27555
1.27509
1.27461
1.27412
1.27362
1.2731
1.27257
1.27203
1.27148
1.27092
1.27035
1.26978
1.26919
1.26861
1.26801
1.26741
1.26681
1.26621
1.2656
1.26499
1.26438
1.26377
1.26315
1.26254
1.26193
1.26132
1.26071
1.26011
1.2595
1.25891
1.25831
1.25772
1.25713
1.25655
1.25597
1.2554
1.25484
1.25428
1.25373
1.25319
1.25265
1.25212
1.2516
1.25109
1.25059
1.2501
1.24961
1.24914
1.24868
1.24823
1.24779
1.24735
1.24693
1.24653
1.24613
1.24575
1.24537
1.24501
1.24467
1.24433
1.24401
1.2437
1.24341
1.24312
1.24286
1.2426
1.24236
1.24213
1.24192
1.24172
1.24154
1.24137
1.24122
1.24108
1.24095
1.24084
1.24075
1.24067
1.2406
1.24055
1.24051
1.24049
1.24049
)
;
    }
    bottomWall
    {
        type            calculated;
        value           nonuniform List<scalar> 
449
(
0.139388
0.0889295
0.0757961
0.0694466
0.0652975
0.0622339
0.0598635
0.058069
0.056939
0.0568302
0.0586926
0.0627743
0.0661559
0.0682007
0.0693106
0.0699093
0.0702048
0.0703072
0.0702663
0.0701477
0.0699744
0.0697664
0.0695403
0.0693061
0.0690697
0.0688347
0.0686029
0.0683759
0.0681547
0.0679398
0.0677312
0.067529
0.067333
0.0671431
0.0669591
0.0667806
0.0666074
0.0664392
0.066276
0.0661176
0.0659637
0.065814
0.0656684
0.0655267
0.0653887
0.0652542
0.0651231
0.0649952
0.0648703
0.0647482
0.0646284
0.0645108
0.0643952
0.0642816
0.0641701
0.0640605
0.063953
0.0638473
0.0637436
0.0636417
0.0635416
0.0634432
0.0633466
0.0632515
0.063158
0.0630661
0.0629757
0.0628867
0.0627991
0.0627129
0.0626279
0.0625442
0.0624617
0.0623805
0.0623004
0.0622214
0.0621436
0.0620669
0.0619912
0.0619166
0.061843
0.0617704
0.0616988
0.0616281
0.0615583
0.0614894
0.0614214
0.0613543
0.0612879
0.0612224
0.0611576
0.0610936
0.0610303
0.0609678
0.060906
0.060845
0.0607846
0.0607249
0.0606658
0.0606074
0.0605496
0.0604923
0.0604357
0.0603796
0.0603241
0.0602692
0.0602148
0.060161
0.0601077
0.0600549
0.0600026
0.0599509
0.0598996
0.0598488
0.0597985
0.0597487
0.0596993
0.0596504
0.0596019
0.0595539
0.0595062
0.059459
0.0594122
0.0593658
0.0593198
0.0592742
0.059229
0.0591841
0.0591396
0.0590955
0.0590517
0.0590083
0.0589653
0.0589225
0.0588802
0.0588381
0.0587964
0.0587549
0.0587138
0.058673
0.0586325
0.0585923
0.0585524
0.0585128
0.0584735
0.0584345
0.0583957
0.0583572
0.0583189
0.0582809
0.0582431
0.0582056
0.0581684
0.0581314
0.0580946
0.0580581
0.0580219
0.0579858
0.05795
0.0579145
0.0578792
0.057844
0.0578091
0.0577745
0.05774
0.0577058
0.0576717
0.0576379
0.0576043
0.0575709
0.0575376
0.0575046
0.0574718
0.057441
0.057412
0.0573829
0.0573537
0.0573244
0.0572951
0.0572656
0.057236
0.0572063
0.0571765
0.0571467
0.0571167
0.0570866
0.0570565
0.0570262
0.0569959
0.0569654
0.0569349
0.0569042
0.0568735
0.0568427
0.0568118
0.0567808
0.0567497
0.0567186
0.0566873
0.056656
0.0566245
0.056593
0.0565614
0.0565297
0.056498
0.0564661
0.0564342
0.0564022
0.0563701
0.0563379
0.0563057
0.0562733
0.0562409
0.0562084
0.0561758
0.0561431
0.0561104
0.0560775
0.0560446
0.0560116
0.0559786
0.0559455
0.0559123
0.055879
0.0558457
0.0558123
0.0557788
0.0557453
0.0557116
0.055678
0.0556443
0.0556105
0.0555766
0.0555427
0.0555087
0.0554747
0.0554405
0.0554064
0.0553722
0.0553379
0.0553035
0.0552692
0.0552347
0.0552002
0.0551656
0.055131
0.0550964
0.0550617
0.0550269
0.0549921
0.0549572
0.0549223
0.0548873
0.0548523
0.0548173
0.0547822
0.054747
0.0547118
0.0546766
0.0546413
0.054606
0.0545707
0.0545353
0.0544998
0.0544643
0.0544288
0.0543933
0.0543577
0.054322
0.0542864
0.0542507
0.0542149
0.0541792
0.0541434
0.0541075
0.0540716
0.0540356
0.0539996
0.0539636
0.0539276
0.0538915
0.0538554
0.0538193
0.0537832
0.053747
0.0537108
0.0536746
0.0536384
0.0536021
0.0535658
0.0535296
0.0534932
0.0534569
0.0534206
0.0533842
0.0533478
0.0533115
0.0532751
0.0532387
0.0532022
0.0531658
0.0531294
0.0530929
0.0530564
0.05302
0.0529835
0.052947
0.0529105
0.052874
0.0528375
0.052801
0.0527645
0.052728
0.0526915
0.052655
0.0526185
0.052582
0.0525455
0.0525091
0.0524726
0.0524361
0.0523996
0.0523632
0.0523267
0.0522903
0.0522538
0.0522174
0.052181
0.0521446
0.0521082
0.0520717
0.0520353
0.0519989
0.0519625
0.0519262
0.0518898
0.0518535
0.0518171
0.0517808
0.0517445
0.0517083
0.051672
0.0516358
0.0515996
0.0515634
0.0515273
0.0514912
0.0514551
0.051419
0.0513829
0.0513469
0.0513109
0.051275
0.0512391
0.0511991
0.0511556
0.0511128
0.0510704
0.0510287
0.0509875
0.0509469
0.0509068
0.0508672
0.0508282
0.0507897
0.0507516
0.050714
0.0506769
0.0506403
0.0506041
0.0505684
0.0505331
0.0504982
0.0504637
0.0504296
0.0503959
0.0503627
0.0503297
0.0502972
0.050265
0.0502332
0.0502018
0.0501707
0.0501399
0.0501094
0.0500793
0.0500494
0.0500199
0.0499907
0.0499617
0.0499331
0.0499047
0.0498767
0.0498489
0.0498214
0.0497942
0.0497672
0.0497405
0.0497141
0.0496878
0.0496619
0.0496362
0.0496107
0.0495855
0.0495605
0.0495357
0.0495112
0.0494868
0.0494628
0.0494388
0.0494152
0.0493916
0.0493684
0.0493453
0.0493224
0.0492997
0.0492772
0.0492549
0.0492328
0.0492108
0.0491891
0.0491674
0.0491461
0.0491247
0.0491037
0.0490826
0.049062
0.0490413
0.049021
0.0490005
0.0489806
0.0489603
0.0489407
0.0489207
0.0489014
0.0488816
0.0488627
0.0488431
0.0488244
0.048805
0.0487865
0.0487675
0.0487486
0.0487311
0.0487095
0.0486978
0.0486657
0.0486721
0.0486281
)
;
    }
    symmetry
    {
        type            symmetryPlane;
    }
    frontAndBack
    {
        type            empty;
    }
}


// ************************************************************************* //
