/*--------------------------------*- C++ -*----------------------------------*\
| =========                 |                                                 |
| \\      /  F ield         | OpenFOAM: The Open Source CFD Toolbox           |
|  \\    /   O peration     | Version:  v2012                                 |
|   \\  /    A nd           | Website:  www.openfoam.com                      |
|    \\/     M anipulation  |                                                 |
\*---------------------------------------------------------------------------*/
FoamFile
{
    version     2.0;
    format      ascii;
    class       volVectorField;
    location    "39.5";
    object      wallShearStress;
}
// * * * * * * * * * * * * * * * * * * * * * * * * * * * * * * * * * * * * * //

dimensions      [0 2 -2 0 0 0 0];


internalField   uniform (0 0 0);

boundaryField
{
    inlet
    {
        type            calculated;
        value           uniform (0 0 0);
    }
    outlet
    {
        type            calculated;
        value           uniform (0 0 0);
    }
    topWall
    {
        type            calculated;
        value           nonuniform List<vector> 
545
(
(1.48701e-08 -1.04672e-08 0)
(1.48632e-08 -2.92834e-08 0)
(1.48494e-08 -4.88478e-08 0)
(1.4829e-08 -6.78384e-08 0)
(1.48028e-08 -8.60081e-08 0)
(1.47716e-08 -1.03588e-07 0)
(1.47356e-08 -1.20727e-07 0)
(1.46954e-08 -1.37414e-07 0)
(1.46512e-08 -1.53612e-07 0)
(1.46035e-08 -1.6932e-07 0)
(1.45526e-08 -1.84559e-07 0)
(1.44989e-08 -1.99344e-07 0)
(1.44427e-08 -2.13688e-07 0)
(1.43842e-08 -2.27597e-07 0)
(1.43237e-08 -2.41084e-07 0)
(1.42616e-08 -2.54158e-07 0)
(1.4198e-08 -2.66832e-07 0)
(1.41331e-08 -2.79116e-07 0)
(1.40672e-08 -2.91021e-07 0)
(1.40004e-08 -3.02558e-07 0)
(1.3933e-08 -3.13736e-07 0)
(1.3865e-08 -3.24567e-07 0)
(1.37967e-08 -3.35061e-07 0)
(1.37281e-08 -3.45227e-07 0)
(1.36594e-08 -3.55076e-07 0)
(1.35908e-08 -3.64617e-07 0)
(1.35223e-08 -3.7386e-07 0)
(1.3454e-08 -3.82813e-07 0)
(1.3386e-08 -3.91487e-07 0)
(1.33184e-08 -3.99889e-07 0)
(1.32512e-08 -4.08028e-07 0)
(1.31846e-08 -4.15913e-07 0)
(1.31186e-08 -4.23551e-07 0)
(1.30533e-08 -4.30951e-07 0)
(1.29886e-08 -4.3812e-07 0)
(1.29247e-08 -4.45065e-07 0)
(1.28616e-08 -4.51794e-07 0)
(1.27993e-08 -4.58314e-07 0)
(1.27378e-08 -4.64631e-07 0)
(1.26772e-08 -4.70753e-07 0)
(1.26175e-08 -4.76684e-07 0)
(1.25588e-08 -4.82432e-07 0)
(1.25009e-08 -4.88003e-07 0)
(1.24441e-08 -4.93402e-07 0)
(1.23881e-08 -4.98635e-07 0)
(1.23332e-08 -5.03707e-07 0)
(1.22792e-08 -5.08624e-07 0)
(1.22261e-08 -5.1339e-07 0)
(1.21741e-08 -5.18011e-07 0)
(1.2123e-08 -5.2249e-07 0)
(1.20729e-08 -5.26834e-07 0)
(1.20238e-08 -5.31045e-07 0)
(1.19756e-08 -5.35129e-07 0)
(1.19284e-08 -5.3909e-07 0)
(1.18822e-08 -5.42931e-07 0)
(1.18369e-08 -5.46656e-07 0)
(1.17925e-08 -5.5027e-07 0)
(1.17491e-08 -5.53775e-07 0)
(1.17066e-08 -5.57175e-07 0)
(1.1665e-08 -5.60473e-07 0)
(1.16243e-08 -5.63674e-07 0)
(1.15845e-08 -5.66779e-07 0)
(1.15455e-08 -5.69792e-07 0)
(1.15074e-08 -5.72716e-07 0)
(1.14702e-08 -5.75553e-07 0)
(1.14338e-08 -5.78307e-07 0)
(1.13982e-08 -5.8098e-07 0)
(1.13635e-08 -5.83574e-07 0)
(1.13295e-08 -5.86092e-07 0)
(1.12963e-08 -5.88537e-07 0)
(1.12639e-08 -5.90911e-07 0)
(1.12324e-08 -5.93212e-07 0)
(1.12018e-08 -5.95423e-07 0)
(1.11718e-08 -5.97566e-07 0)
(1.1142e-08 -5.99684e-07 0)
(1.11124e-08 -6.01789e-07 0)
(1.10828e-08 -6.03881e-07 0)
(1.10533e-08 -6.0596e-07 0)
(1.10239e-08 -6.08022e-07 0)
(1.09945e-08 -6.10069e-07 0)
(1.09652e-08 -6.12101e-07 0)
(1.09359e-08 -6.14119e-07 0)
(1.09067e-08 -6.16122e-07 0)
(1.08775e-08 -6.1811e-07 0)
(1.08485e-08 -6.20084e-07 0)
(1.08194e-08 -6.22044e-07 0)
(1.07905e-08 -6.2399e-07 0)
(1.07616e-08 -6.25922e-07 0)
(1.07328e-08 -6.2784e-07 0)
(1.0704e-08 -6.29743e-07 0)
(1.06753e-08 -6.31633e-07 0)
(1.06467e-08 -6.3351e-07 0)
(1.06181e-08 -6.35373e-07 0)
(1.05897e-08 -6.37221e-07 0)
(1.0561e-08 -6.3906e-07 0)
(1.05338e-08 -6.40866e-07 0)
(1.05086e-08 -6.42519e-07 0)
(1.04844e-08 -6.44014e-07 0)
(1.04609e-08 -6.45469e-07 0)
(1.04376e-08 -6.46929e-07 0)
(1.04143e-08 -6.48401e-07 0)
(1.03908e-08 -6.49875e-07 0)
(1.03673e-08 -6.51347e-07 0)
(1.03437e-08 -6.52817e-07 0)
(1.032e-08 -6.54288e-07 0)
(1.02962e-08 -6.55759e-07 0)
(1.02723e-08 -6.5723e-07 0)
(1.02483e-08 -6.58701e-07 0)
(1.02242e-08 -6.60173e-07 0)
(1.02001e-08 -6.61644e-07 0)
(1.01758e-08 -6.63115e-07 0)
(1.01514e-08 -6.64586e-07 0)
(1.0127e-08 -6.66058e-07 0)
(1.01024e-08 -6.67529e-07 0)
(1.00778e-08 -6.69e-07 0)
(1.0053e-08 -6.7047e-07 0)
(1.00282e-08 -6.71941e-07 0)
(1.00033e-08 -6.73411e-07 0)
(9.97827e-09 -6.74882e-07 0)
(9.95315e-09 -6.76352e-07 0)
(9.92795e-09 -6.77821e-07 0)
(9.90264e-09 -6.79291e-07 0)
(9.87725e-09 -6.8076e-07 0)
(9.85175e-09 -6.82229e-07 0)
(9.82617e-09 -6.83697e-07 0)
(9.80049e-09 -6.85165e-07 0)
(9.77471e-09 -6.86633e-07 0)
(9.74884e-09 -6.881e-07 0)
(9.72288e-09 -6.89567e-07 0)
(9.69682e-09 -6.91034e-07 0)
(9.67066e-09 -6.925e-07 0)
(9.64441e-09 -6.93965e-07 0)
(9.61807e-09 -6.9543e-07 0)
(9.59163e-09 -6.96894e-07 0)
(9.56509e-09 -6.98358e-07 0)
(9.53846e-09 -6.99821e-07 0)
(9.51174e-09 -7.01283e-07 0)
(9.48492e-09 -7.02745e-07 0)
(9.45801e-09 -7.04206e-07 0)
(9.431e-09 -7.05666e-07 0)
(9.40389e-09 -7.07126e-07 0)
(9.37669e-09 -7.08585e-07 0)
(9.3494e-09 -7.10043e-07 0)
(9.32201e-09 -7.115e-07 0)
(9.29453e-09 -7.12956e-07 0)
(9.26695e-09 -7.14412e-07 0)
(9.23928e-09 -7.15866e-07 0)
(9.21151e-09 -7.1732e-07 0)
(9.18365e-09 -7.18772e-07 0)
(9.15569e-09 -7.20224e-07 0)
(9.12764e-09 -7.21675e-07 0)
(9.0995e-09 -7.23124e-07 0)
(9.07126e-09 -7.24573e-07 0)
(9.04292e-09 -7.2602e-07 0)
(9.01449e-09 -7.27466e-07 0)
(8.98597e-09 -7.28911e-07 0)
(8.95735e-09 -7.30355e-07 0)
(8.92864e-09 -7.31798e-07 0)
(8.89984e-09 -7.33239e-07 0)
(8.87094e-09 -7.34679e-07 0)
(8.84195e-09 -7.36118e-07 0)
(8.81286e-09 -7.37556e-07 0)
(8.78368e-09 -7.38992e-07 0)
(8.75441e-09 -7.40427e-07 0)
(8.72505e-09 -7.4186e-07 0)
(8.69559e-09 -7.43292e-07 0)
(8.66604e-09 -7.44722e-07 0)
(8.6364e-09 -7.46151e-07 0)
(8.60666e-09 -7.47578e-07 0)
(8.57683e-09 -7.49004e-07 0)
(8.54691e-09 -7.50428e-07 0)
(8.5169e-09 -7.51851e-07 0)
(8.48679e-09 -7.53271e-07 0)
(8.4566e-09 -7.54691e-07 0)
(8.42631e-09 -7.56108e-07 0)
(8.39593e-09 -7.57524e-07 0)
(8.36546e-09 -7.58937e-07 0)
(8.3349e-09 -7.60349e-07 0)
(8.30425e-09 -7.6176e-07 0)
(8.2735e-09 -7.63168e-07 0)
(8.24267e-09 -7.64574e-07 0)
(8.21175e-09 -7.65979e-07 0)
(8.18074e-09 -7.67381e-07 0)
(8.14964e-09 -7.68781e-07 0)
(8.11845e-09 -7.7018e-07 0)
(8.08717e-09 -7.71576e-07 0)
(8.0558e-09 -7.7297e-07 0)
(8.02434e-09 -7.74362e-07 0)
(7.99279e-09 -7.75752e-07 0)
(7.96116e-09 -7.77139e-07 0)
(7.92944e-09 -7.78524e-07 0)
(7.89763e-09 -7.79907e-07 0)
(7.86574e-09 -7.81288e-07 0)
(7.83375e-09 -7.82667e-07 0)
(7.80169e-09 -7.84042e-07 0)
(7.76953e-09 -7.85416e-07 0)
(7.73729e-09 -7.86787e-07 0)
(7.70497e-09 -7.88156e-07 0)
(7.67256e-09 -7.89522e-07 0)
(7.64006e-09 -7.90885e-07 0)
(7.60748e-09 -7.92246e-07 0)
(7.57482e-09 -7.93604e-07 0)
(7.54207e-09 -7.9496e-07 0)
(7.50924e-09 -7.96313e-07 0)
(7.47633e-09 -7.97663e-07 0)
(7.44333e-09 -7.9901e-07 0)
(7.41026e-09 -8.00355e-07 0)
(7.3771e-09 -8.01697e-07 0)
(7.34386e-09 -8.03036e-07 0)
(7.31054e-09 -8.04372e-07 0)
(7.27713e-09 -8.05705e-07 0)
(7.24365e-09 -8.07035e-07 0)
(7.21009e-09 -8.08362e-07 0)
(7.17645e-09 -8.09686e-07 0)
(7.14274e-09 -8.11007e-07 0)
(7.10894e-09 -8.12324e-07 0)
(7.07507e-09 -8.13639e-07 0)
(7.04112e-09 -8.1495e-07 0)
(7.00709e-09 -8.16258e-07 0)
(6.97298e-09 -8.17563e-07 0)
(6.93881e-09 -8.18865e-07 0)
(6.90455e-09 -8.20163e-07 0)
(6.87022e-09 -8.21458e-07 0)
(6.83582e-09 -8.22749e-07 0)
(6.80135e-09 -8.24037e-07 0)
(6.7668e-09 -8.25321e-07 0)
(6.73218e-09 -8.26602e-07 0)
(6.69748e-09 -8.2788e-07 0)
(6.66272e-09 -8.29153e-07 0)
(6.62788e-09 -8.30423e-07 0)
(6.59298e-09 -8.3169e-07 0)
(6.558e-09 -8.32952e-07 0)
(6.52296e-09 -8.34211e-07 0)
(6.48785e-09 -8.35466e-07 0)
(6.45267e-09 -8.36717e-07 0)
(6.41743e-09 -8.37965e-07 0)
(6.38211e-09 -8.39208e-07 0)
(6.34674e-09 -8.40448e-07 0)
(6.31129e-09 -8.41683e-07 0)
(6.27579e-09 -8.42915e-07 0)
(6.24022e-09 -8.44142e-07 0)
(6.20458e-09 -8.45365e-07 0)
(6.16889e-09 -8.46584e-07 0)
(6.13313e-09 -8.47799e-07 0)
(6.09731e-09 -8.4901e-07 0)
(6.06143e-09 -8.50216e-07 0)
(6.02549e-09 -8.51419e-07 0)
(5.98949e-09 -8.52616e-07 0)
(5.95344e-09 -8.5381e-07 0)
(5.91733e-09 -8.54999e-07 0)
(5.88116e-09 -8.56183e-07 0)
(5.84493e-09 -8.57363e-07 0)
(5.80866e-09 -8.58539e-07 0)
(5.77232e-09 -8.5971e-07 0)
(5.73593e-09 -8.60876e-07 0)
(5.69949e-09 -8.62038e-07 0)
(5.663e-09 -8.63195e-07 0)
(5.62646e-09 -8.64347e-07 0)
(5.58987e-09 -8.65495e-07 0)
(5.55323e-09 -8.66637e-07 0)
(5.51654e-09 -8.67775e-07 0)
(5.4798e-09 -8.68908e-07 0)
(5.44301e-09 -8.70036e-07 0)
(5.40618e-09 -8.71159e-07 0)
(5.36931e-09 -8.72277e-07 0)
(5.33238e-09 -8.7339e-07 0)
(5.29547e-09 -8.74498e-07 0)
(5.25825e-09 -8.75602e-07 0)
(5.22209e-09 -8.76693e-07 0)
(5.18745e-09 -8.77729e-07 0)
(5.15335e-09 -8.78709e-07 0)
(5.11968e-09 -8.79678e-07 0)
(5.08585e-09 -8.80654e-07 0)
(5.05174e-09 -8.81637e-07 0)
(5.01731e-09 -8.82626e-07 0)
(4.98256e-09 -8.83617e-07 0)
(4.94748e-09 -8.84612e-07 0)
(4.91206e-09 -8.8561e-07 0)
(4.87631e-09 -8.86612e-07 0)
(4.84022e-09 -8.87617e-07 0)
(4.8038e-09 -8.88626e-07 0)
(4.76703e-09 -8.89638e-07 0)
(4.72993e-09 -8.90653e-07 0)
(4.69248e-09 -8.91672e-07 0)
(4.65469e-09 -8.92692e-07 0)
(4.61655e-09 -8.93716e-07 0)
(4.57806e-09 -8.94742e-07 0)
(4.53922e-09 -8.95771e-07 0)
(4.50003e-09 -8.96802e-07 0)
(4.4605e-09 -8.97835e-07 0)
(4.4206e-09 -8.9887e-07 0)
(4.38036e-09 -8.99907e-07 0)
(4.33975e-09 -9.00945e-07 0)
(4.2988e-09 -9.01985e-07 0)
(4.25748e-09 -9.03026e-07 0)
(4.21581e-09 -9.04068e-07 0)
(4.17377e-09 -9.05111e-07 0)
(4.13138e-09 -9.06155e-07 0)
(4.08862e-09 -9.072e-07 0)
(4.04551e-09 -9.08244e-07 0)
(4.00203e-09 -9.09289e-07 0)
(3.95819e-09 -9.10334e-07 0)
(3.91399e-09 -9.11378e-07 0)
(3.86943e-09 -9.12422e-07 0)
(3.8245e-09 -9.13465e-07 0)
(3.77921e-09 -9.14507e-07 0)
(3.73356e-09 -9.15548e-07 0)
(3.68755e-09 -9.16587e-07 0)
(3.64118e-09 -9.17624e-07 0)
(3.59444e-09 -9.18659e-07 0)
(3.54735e-09 -9.19692e-07 0)
(3.49989e-09 -9.20722e-07 0)
(3.45208e-09 -9.2175e-07 0)
(3.40391e-09 -9.22774e-07 0)
(3.35538e-09 -9.23795e-07 0)
(3.3065e-09 -9.24812e-07 0)
(3.25726e-09 -9.25825e-07 0)
(3.20768e-09 -9.26833e-07 0)
(3.15774e-09 -9.27837e-07 0)
(3.10746e-09 -9.28835e-07 0)
(3.05683e-09 -9.29828e-07 0)
(3.00586e-09 -9.30816e-07 0)
(2.95455e-09 -9.31797e-07 0)
(2.9029e-09 -9.32772e-07 0)
(2.85092e-09 -9.3374e-07 0)
(2.79861e-09 -9.347e-07 0)
(2.74597e-09 -9.35654e-07 0)
(2.693e-09 -9.36599e-07 0)
(2.63972e-09 -9.37535e-07 0)
(2.58612e-09 -9.38463e-07 0)
(2.53221e-09 -9.39381e-07 0)
(2.47799e-09 -9.4029e-07 0)
(2.42347e-09 -9.41189e-07 0)
(2.36865e-09 -9.42077e-07 0)
(2.31354e-09 -9.42955e-07 0)
(2.25814e-09 -9.43821e-07 0)
(2.20246e-09 -9.44675e-07 0)
(2.14651e-09 -9.45516e-07 0)
(2.09029e-09 -9.46345e-07 0)
(2.03381e-09 -9.4716e-07 0)
(1.97707e-09 -9.47962e-07 0)
(1.92008e-09 -9.48749e-07 0)
(1.86286e-09 -9.49522e-07 0)
(1.8054e-09 -9.50279e-07 0)
(1.74772e-09 -9.51021e-07 0)
(1.68982e-09 -9.51746e-07 0)
(1.63171e-09 -9.52454e-07 0)
(1.57341e-09 -9.53144e-07 0)
(1.51492e-09 -9.53817e-07 0)
(1.45624e-09 -9.54471e-07 0)
(1.3974e-09 -9.55106e-07 0)
(1.3384e-09 -9.55721e-07 0)
(1.27925e-09 -9.56317e-07 0)
(1.21996e-09 -9.56891e-07 0)
(1.16054e-09 -9.57444e-07 0)
(1.10101e-09 -9.57975e-07 0)
(1.04138e-09 -9.58483e-07 0)
(9.81651e-10 -9.58968e-07 0)
(9.21846e-10 -9.59429e-07 0)
(8.61976e-10 -9.59866e-07 0)
(8.02053e-10 -9.60278e-07 0)
(7.42092e-10 -9.60664e-07 0)
(6.82105e-10 -9.61024e-07 0)
(6.22108e-10 -9.61357e-07 0)
(5.62114e-10 -9.61663e-07 0)
(5.0214e-10 -9.6194e-07 0)
(4.42199e-10 -9.62189e-07 0)
(3.82308e-10 -9.62408e-07 0)
(3.22483e-10 -9.62597e-07 0)
(2.62739e-10 -9.62756e-07 0)
(2.03094e-10 -9.62883e-07 0)
(1.43564e-10 -9.62978e-07 0)
(8.41668e-11 -9.6304e-07 0)
(2.49195e-11 -9.6307e-07 0)
(-3.416e-11 -9.63065e-07 0)
(-9.30536e-11 -9.63026e-07 0)
(-1.51743e-10 -9.62952e-07 0)
(-2.10209e-10 -9.62842e-07 0)
(-2.68434e-10 -9.62695e-07 0)
(-3.26397e-10 -9.62512e-07 0)
(-3.8408e-10 -9.6229e-07 0)
(-4.41462e-10 -9.62031e-07 0)
(-4.98525e-10 -9.61733e-07 0)
(-5.55247e-10 -9.61395e-07 0)
(-6.11609e-10 -9.61017e-07 0)
(-6.6759e-10 -9.60598e-07 0)
(-7.23169e-10 -9.60138e-07 0)
(-7.78326e-10 -9.59637e-07 0)
(-8.33039e-10 -9.59093e-07 0)
(-8.87288e-10 -9.58506e-07 0)
(-9.41051e-10 -9.57875e-07 0)
(-9.94307e-10 -9.572e-07 0)
(-1.04704e-09 -9.56481e-07 0)
(-1.09921e-09 -9.55717e-07 0)
(-1.15082e-09 -9.54907e-07 0)
(-1.20183e-09 -9.54052e-07 0)
(-1.25223e-09 -9.5315e-07 0)
(-1.302e-09 -9.522e-07 0)
(-1.35111e-09 -9.51204e-07 0)
(-1.39954e-09 -9.5016e-07 0)
(-1.44727e-09 -9.49067e-07 0)
(-1.49428e-09 -9.47927e-07 0)
(-1.54055e-09 -9.46737e-07 0)
(-1.58606e-09 -9.45498e-07 0)
(-1.63079e-09 -9.44209e-07 0)
(-1.67471e-09 -9.42871e-07 0)
(-1.71782e-09 -9.41483e-07 0)
(-1.76008e-09 -9.40044e-07 0)
(-1.80148e-09 -9.38555e-07 0)
(-1.842e-09 -9.37015e-07 0)
(-1.88162e-09 -9.35424e-07 0)
(-1.92032e-09 -9.33782e-07 0)
(-1.95809e-09 -9.32089e-07 0)
(-1.9949e-09 -9.30344e-07 0)
(-2.03075e-09 -9.28549e-07 0)
(-2.06561e-09 -9.26702e-07 0)
(-2.09947e-09 -9.24804e-07 0)
(-2.13231e-09 -9.22854e-07 0)
(-2.16412e-09 -9.20853e-07 0)
(-2.19488e-09 -9.18801e-07 0)
(-2.22459e-09 -9.16698e-07 0)
(-2.25322e-09 -9.14545e-07 0)
(-2.28077e-09 -9.1234e-07 0)
(-2.30722e-09 -9.10085e-07 0)
(-2.33256e-09 -9.0778e-07 0)
(-2.35679e-09 -9.05425e-07 0)
(-2.37989e-09 -9.03021e-07 0)
(-2.40185e-09 -9.00567e-07 0)
(-2.42267e-09 -8.98065e-07 0)
(-2.44235e-09 -8.95514e-07 0)
(-2.46086e-09 -8.92915e-07 0)
(-2.47822e-09 -8.90269e-07 0)
(-2.4944e-09 -8.87576e-07 0)
(-2.50942e-09 -8.84836e-07 0)
(-2.52327e-09 -8.82051e-07 0)
(-2.53594e-09 -8.79221e-07 0)
(-2.54744e-09 -8.76347e-07 0)
(-2.55777e-09 -8.73429e-07 0)
(-2.56691e-09 -8.70468e-07 0)
(-2.57489e-09 -8.67465e-07 0)
(-2.58169e-09 -8.6442e-07 0)
(-2.58733e-09 -8.61335e-07 0)
(-2.5918e-09 -8.58211e-07 0)
(-2.59512e-09 -8.55048e-07 0)
(-2.59728e-09 -8.51847e-07 0)
(-2.5983e-09 -8.48609e-07 0)
(-2.59818e-09 -8.45336e-07 0)
(-2.59693e-09 -8.42026e-07 0)
(-2.5946e-09 -8.38689e-07 0)
(-2.59092e-09 -8.35278e-07 0)
(-2.58564e-09 -8.31513e-07 0)
(-2.57874e-09 -8.27389e-07 0)
(-2.57018e-09 -8.23193e-07 0)
(-2.56017e-09 -8.1902e-07 0)
(-2.54884e-09 -8.14889e-07 0)
(-2.53629e-09 -8.10781e-07 0)
(-2.52257e-09 -8.0669e-07 0)
(-2.50776e-09 -8.02619e-07 0)
(-2.49192e-09 -7.98573e-07 0)
(-2.4751e-09 -7.94555e-07 0)
(-2.45736e-09 -7.90565e-07 0)
(-2.43877e-09 -7.86604e-07 0)
(-2.41936e-09 -7.82674e-07 0)
(-2.3992e-09 -7.78776e-07 0)
(-2.37832e-09 -7.74911e-07 0)
(-2.35678e-09 -7.7108e-07 0)
(-2.33462e-09 -7.67285e-07 0)
(-2.31187e-09 -7.63527e-07 0)
(-2.28857e-09 -7.59805e-07 0)
(-2.26477e-09 -7.56122e-07 0)
(-2.24049e-09 -7.52478e-07 0)
(-2.21577e-09 -7.48873e-07 0)
(-2.19063e-09 -7.45309e-07 0)
(-2.16511e-09 -7.41785e-07 0)
(-2.13923e-09 -7.38304e-07 0)
(-2.11301e-09 -7.34864e-07 0)
(-2.08649e-09 -7.31467e-07 0)
(-2.05968e-09 -7.28114e-07 0)
(-2.03259e-09 -7.24804e-07 0)
(-2.00526e-09 -7.21538e-07 0)
(-1.9777e-09 -7.18316e-07 0)
(-1.94993e-09 -7.15139e-07 0)
(-1.92195e-09 -7.12008e-07 0)
(-1.89378e-09 -7.08921e-07 0)
(-1.86545e-09 -7.05881e-07 0)
(-1.83695e-09 -7.02886e-07 0)
(-1.8083e-09 -6.99938e-07 0)
(-1.77951e-09 -6.97036e-07 0)
(-1.75059e-09 -6.94181e-07 0)
(-1.72154e-09 -6.91372e-07 0)
(-1.69238e-09 -6.88611e-07 0)
(-1.66311e-09 -6.85897e-07 0)
(-1.63373e-09 -6.83231e-07 0)
(-1.60425e-09 -6.80612e-07 0)
(-1.57469e-09 -6.7804e-07 0)
(-1.54503e-09 -6.75517e-07 0)
(-1.51528e-09 -6.73042e-07 0)
(-1.48546e-09 -6.70615e-07 0)
(-1.45555e-09 -6.68236e-07 0)
(-1.42557e-09 -6.65906e-07 0)
(-1.39551e-09 -6.63624e-07 0)
(-1.36538e-09 -6.61391e-07 0)
(-1.33517e-09 -6.59207e-07 0)
(-1.3049e-09 -6.57072e-07 0)
(-1.27455e-09 -6.54986e-07 0)
(-1.24413e-09 -6.52948e-07 0)
(-1.21365e-09 -6.50961e-07 0)
(-1.1831e-09 -6.49022e-07 0)
(-1.15247e-09 -6.47133e-07 0)
(-1.12179e-09 -6.45294e-07 0)
(-1.09103e-09 -6.43504e-07 0)
(-1.06021e-09 -6.41764e-07 0)
(-1.02932e-09 -6.40074e-07 0)
(-9.98359e-10 -6.38434e-07 0)
(-9.67334e-10 -6.36844e-07 0)
(-9.36244e-10 -6.35304e-07 0)
(-9.05087e-10 -6.33815e-07 0)
(-8.73864e-10 -6.32376e-07 0)
(-8.42577e-10 -6.30988e-07 0)
(-8.11224e-10 -6.2965e-07 0)
(-7.79808e-10 -6.28363e-07 0)
(-7.48329e-10 -6.27127e-07 0)
(-7.16788e-10 -6.25942e-07 0)
(-6.85185e-10 -6.24808e-07 0)
(-6.53524e-10 -6.23726e-07 0)
(-6.21803e-10 -6.22694e-07 0)
(-5.90027e-10 -6.21714e-07 0)
(-5.58195e-10 -6.20785e-07 0)
(-5.2631e-10 -6.19908e-07 0)
(-4.94374e-10 -6.19082e-07 0)
(-4.6239e-10 -6.18309e-07 0)
(-4.30359e-10 -6.17587e-07 0)
(-3.98284e-10 -6.16916e-07 0)
(-3.66167e-10 -6.16298e-07 0)
(-3.34012e-10 -6.15731e-07 0)
(-3.01822e-10 -6.1522e-07 0)
(-2.69597e-10 -6.14745e-07 0)
(-2.37349e-10 -6.14378e-07 0)
(-2.05055e-10 -6.13877e-07 0)
(-1.72802e-10 -6.14037e-07 0)
(-1.40323e-10 -6.12189e-07 0)
(-1.08521e-10 -6.16969e-07 0)
(-7.45147e-11 -5.98359e-07 0)
(-4.8209e-11 -6.47395e-07 0)
(-2.02501e-11 -5.65402e-07 0)
)
;
    }
    bottomWall
    {
        type            calculated;
        value           nonuniform List<vector> 
449
(
(-48.5308 -0.964083 0)
(-19.7508 -0.00515518 0)
(-14.3432 -0.00113484 0)
(-12.0335 -0.000545525 0)
(-10.6273 -0.00035153 0)
(-9.63337 -0.00025602 0)
(-8.87522 -0.000198507 0)
(-8.27164 -0.000159833 0)
(-7.77616 -0.00013234 0)
(-7.35949 -0.000111991 0)
(-7.00244 -9.63886e-05 0)
(-6.69198 -8.40803e-05 0)
(-6.4188 -7.41614e-05 0)
(-6.17597 -6.6033e-05 0)
(-5.95826 -5.92753e-05 0)
(-5.76159 -5.35852e-05 0)
(-5.58277 -4.87404e-05 0)
(-5.41924 -4.45751e-05 0)
(-5.26894 -4.09632e-05 0)
(-5.13016 -3.78072e-05 0)
(-5.0015 -3.50306e-05 0)
(-4.88177 -3.25726e-05 0)
(-4.76999 -3.03843e-05 0)
(-4.66531 -2.84262e-05 0)
(-4.56701 -2.66658e-05 0)
(-4.47445 -2.50763e-05 0)
(-4.38709 -2.36354e-05 0)
(-4.30447 -2.23245e-05 0)
(-4.22616 -2.11277e-05 0)
(-4.15181 -2.00317e-05 0)
(-4.08108 -1.9025e-05 0)
(-4.01369 -1.80978e-05 0)
(-3.94939 -1.72415e-05 0)
(-3.88793 -1.64489e-05 0)
(-3.82912 -1.57136e-05 0)
(-3.77277 -1.50299e-05 0)
(-3.71872 -1.43929e-05 0)
(-3.6668 -1.37983e-05 0)
(-3.61688 -1.32423e-05 0)
(-3.56883 -1.27214e-05 0)
(-3.52254 -1.22327e-05 0)
(-3.47791 -1.17735e-05 0)
(-3.43482 -1.13412e-05 0)
(-3.39321 -1.09339e-05 0)
(-3.35298 -1.05495e-05 0)
(-3.31405 -1.01863e-05 0)
(-3.27636 -9.84263e-06 0)
(-3.23985 -9.51713e-06 0)
(-3.20445 -9.20847e-06 0)
(-3.1701 -8.91547e-06 0)
(-3.13676 -8.63704e-06 0)
(-3.10437 -8.3722e-06 0)
(-3.07289 -8.12004e-06 0)
(-3.04228 -7.87973e-06 0)
(-3.0125 -7.65052e-06 0)
(-2.98351 -7.4317e-06 0)
(-2.95527 -7.22264e-06 0)
(-2.92776 -7.02273e-06 0)
(-2.90094 -6.83144e-06 0)
(-2.87478 -6.64825e-06 0)
(-2.84925 -6.4727e-06 0)
(-2.82434 -6.30436e-06 0)
(-2.80002 -6.14281e-06 0)
(-2.77625 -5.98768e-06 0)
(-2.75303 -5.83864e-06 0)
(-2.73033 -5.69534e-06 0)
(-2.70813 -5.55749e-06 0)
(-2.68641 -5.4248e-06 0)
(-2.66515 -5.29702e-06 0)
(-2.64435 -5.17389e-06 0)
(-2.62398 -5.05518e-06 0)
(-2.60402 -4.94068e-06 0)
(-2.58447 -4.83018e-06 0)
(-2.5653 -4.72349e-06 0)
(-2.54652 -4.62043e-06 0)
(-2.52809 -4.52084e-06 0)
(-2.51002 -4.42455e-06 0)
(-2.49229 -4.33141e-06 0)
(-2.47489 -4.24128e-06 0)
(-2.45781 -4.15404e-06 0)
(-2.44104 -4.06955e-06 0)
(-2.42457 -3.9877e-06 0)
(-2.40839 -3.90836e-06 0)
(-2.3925 -3.83145e-06 0)
(-2.37688 -3.75685e-06 0)
(-2.36152 -3.68448e-06 0)
(-2.34642 -3.61423e-06 0)
(-2.33158 -3.54603e-06 0)
(-2.31698 -3.4798e-06 0)
(-2.30261 -3.41545e-06 0)
(-2.28848 -3.35291e-06 0)
(-2.27457 -3.29212e-06 0)
(-2.26089 -3.23301e-06 0)
(-2.24741 -3.17551e-06 0)
(-2.23414 -3.11956e-06 0)
(-2.22107 -3.06511e-06 0)
(-2.2082 -3.01211e-06 0)
(-2.19553 -2.96049e-06 0)
(-2.18303 -2.91022e-06 0)
(-2.17072 -2.86123e-06 0)
(-2.15859 -2.8135e-06 0)
(-2.14663 -2.76697e-06 0)
(-2.13484 -2.7216e-06 0)
(-2.12322 -2.67735e-06 0)
(-2.11176 -2.63419e-06 0)
(-2.10045 -2.59208e-06 0)
(-2.0893 -2.55099e-06 0)
(-2.0783 -2.51087e-06 0)
(-2.06744 -2.47171e-06 0)
(-2.05673 -2.43346e-06 0)
(-2.04616 -2.3961e-06 0)
(-2.03573 -2.3596e-06 0)
(-2.02543 -2.32394e-06 0)
(-2.01526 -2.28908e-06 0)
(-2.00522 -2.25501e-06 0)
(-1.9953 -2.2217e-06 0)
(-1.98551 -2.18912e-06 0)
(-1.97584 -2.15726e-06 0)
(-1.96628 -2.12609e-06 0)
(-1.95684 -2.09559e-06 0)
(-1.94752 -2.06574e-06 0)
(-1.9383 -2.03653e-06 0)
(-1.92919 -2.00793e-06 0)
(-1.92019 -1.97993e-06 0)
(-1.9113 -1.95252e-06 0)
(-1.9025 -1.92566e-06 0)
(-1.89381 -1.89936e-06 0)
(-1.88521 -1.87358e-06 0)
(-1.87671 -1.84833e-06 0)
(-1.8683 -1.82358e-06 0)
(-1.85999 -1.79932e-06 0)
(-1.85177 -1.77554e-06 0)
(-1.84364 -1.75222e-06 0)
(-1.83559 -1.72936e-06 0)
(-1.82763 -1.70693e-06 0)
(-1.81975 -1.68494e-06 0)
(-1.81196 -1.66336e-06 0)
(-1.80425 -1.64219e-06 0)
(-1.79662 -1.62142e-06 0)
(-1.78907 -1.60103e-06 0)
(-1.78159 -1.58102e-06 0)
(-1.77419 -1.56138e-06 0)
(-1.76687 -1.5421e-06 0)
(-1.75961 -1.52316e-06 0)
(-1.75243 -1.50457e-06 0)
(-1.74532 -1.4863e-06 0)
(-1.73828 -1.46837e-06 0)
(-1.73131 -1.45075e-06 0)
(-1.7244 -1.43344e-06 0)
(-1.71757 -1.41643e-06 0)
(-1.71079 -1.39971e-06 0)
(-1.70408 -1.38328e-06 0)
(-1.69743 -1.36714e-06 0)
(-1.69085 -1.35126e-06 0)
(-1.68432 -1.33566e-06 0)
(-1.67786 -1.32032e-06 0)
(-1.67145 -1.30523e-06 0)
(-1.66511 -1.2904e-06 0)
(-1.65882 -1.27581e-06 0)
(-1.65258 -1.26146e-06 0)
(-1.6464 -1.24734e-06 0)
(-1.64028 -1.23345e-06 0)
(-1.63421 -1.21979e-06 0)
(-1.62819 -1.20635e-06 0)
(-1.62223 -1.19312e-06 0)
(-1.61631 -1.1801e-06 0)
(-1.61045 -1.16728e-06 0)
(-1.60463 -1.15468e-06 0)
(-1.59887 -1.14229e-06 0)
(-1.59315 -1.12995e-06 0)
(-1.58749 -1.11826e-06 0)
(-1.58186 -1.10616e-06 0)
(-1.57629 -1.09302e-06 0)
(-1.57108 -1.08284e-06 0)
(-1.56618 -1.07461e-06 0)
(-1.56126 -1.06425e-06 0)
(-1.55635 -1.05356e-06 0)
(-1.55143 -1.04355e-06 0)
(-1.5465 -1.03351e-06 0)
(-1.54157 -1.02359e-06 0)
(-1.53664 -1.01373e-06 0)
(-1.53169 -1.00394e-06 0)
(-1.52674 -9.9421e-07 0)
(-1.52179 -9.84536e-07 0)
(-1.51683 -9.74918e-07 0)
(-1.51187 -9.65357e-07 0)
(-1.5069 -9.55851e-07 0)
(-1.50193 -9.46399e-07 0)
(-1.49695 -9.37003e-07 0)
(-1.49197 -9.27662e-07 0)
(-1.48699 -9.18377e-07 0)
(-1.482 -9.09147e-07 0)
(-1.47701 -8.99973e-07 0)
(-1.47201 -8.90855e-07 0)
(-1.46702 -8.81793e-07 0)
(-1.46202 -8.72788e-07 0)
(-1.45701 -8.63839e-07 0)
(-1.45201 -8.54948e-07 0)
(-1.447 -8.46113e-07 0)
(-1.44199 -8.37336e-07 0)
(-1.43698 -8.28617e-07 0)
(-1.43197 -8.19955e-07 0)
(-1.42695 -8.11351e-07 0)
(-1.42193 -8.02806e-07 0)
(-1.41692 -7.94319e-07 0)
(-1.4119 -7.8589e-07 0)
(-1.40688 -7.7752e-07 0)
(-1.40186 -7.69209e-07 0)
(-1.39684 -7.60956e-07 0)
(-1.39183 -7.52763e-07 0)
(-1.38681 -7.44629e-07 0)
(-1.38179 -7.36554e-07 0)
(-1.37677 -7.28538e-07 0)
(-1.37175 -7.20582e-07 0)
(-1.36674 -7.12685e-07 0)
(-1.36172 -7.04848e-07 0)
(-1.35671 -6.9707e-07 0)
(-1.3517 -6.89352e-07 0)
(-1.34669 -6.81694e-07 0)
(-1.34168 -6.74095e-07 0)
(-1.33667 -6.66556e-07 0)
(-1.33167 -6.59076e-07 0)
(-1.32667 -6.51656e-07 0)
(-1.32167 -6.44296e-07 0)
(-1.31667 -6.36995e-07 0)
(-1.31168 -6.29754e-07 0)
(-1.30669 -6.22573e-07 0)
(-1.3017 -6.1545e-07 0)
(-1.29672 -6.08387e-07 0)
(-1.29174 -6.01384e-07 0)
(-1.28676 -5.9444e-07 0)
(-1.28179 -5.87554e-07 0)
(-1.27682 -5.80728e-07 0)
(-1.27186 -5.73961e-07 0)
(-1.2669 -5.67252e-07 0)
(-1.26195 -5.60603e-07 0)
(-1.257 -5.54011e-07 0)
(-1.25206 -5.47479e-07 0)
(-1.24712 -5.41004e-07 0)
(-1.24219 -5.34588e-07 0)
(-1.23726 -5.28229e-07 0)
(-1.23234 -5.21929e-07 0)
(-1.22743 -5.15686e-07 0)
(-1.22252 -5.095e-07 0)
(-1.21761 -5.03372e-07 0)
(-1.21272 -4.97301e-07 0)
(-1.20783 -4.91286e-07 0)
(-1.20294 -4.85329e-07 0)
(-1.19807 -4.79427e-07 0)
(-1.1932 -4.73582e-07 0)
(-1.18834 -4.67793e-07 0)
(-1.18348 -4.6206e-07 0)
(-1.17864 -4.56382e-07 0)
(-1.1738 -4.5076e-07 0)
(-1.16896 -4.45193e-07 0)
(-1.16414 -4.3968e-07 0)
(-1.15932 -4.34222e-07 0)
(-1.15452 -4.28819e-07 0)
(-1.14972 -4.23469e-07 0)
(-1.14493 -4.18174e-07 0)
(-1.14014 -4.12931e-07 0)
(-1.13537 -4.07742e-07 0)
(-1.1306 -4.02606e-07 0)
(-1.12585 -3.97523e-07 0)
(-1.1211 -3.92492e-07 0)
(-1.11636 -3.87513e-07 0)
(-1.11163 -3.82585e-07 0)
(-1.10692 -3.7771e-07 0)
(-1.10221 -3.72885e-07 0)
(-1.09751 -3.68111e-07 0)
(-1.09282 -3.63388e-07 0)
(-1.08814 -3.58715e-07 0)
(-1.08347 -3.54092e-07 0)
(-1.07881 -3.49519e-07 0)
(-1.07416 -3.44995e-07 0)
(-1.06952 -3.4052e-07 0)
(-1.06489 -3.36094e-07 0)
(-1.06027 -3.31716e-07 0)
(-1.05566 -3.27386e-07 0)
(-1.05107 -3.23103e-07 0)
(-1.04648 -3.18868e-07 0)
(-1.04191 -3.1468e-07 0)
(-1.03734 -3.10539e-07 0)
(-1.03279 -3.06444e-07 0)
(-1.02825 -3.02394e-07 0)
(-1.02372 -2.98391e-07 0)
(-1.0192 -2.94433e-07 0)
(-1.01469 -2.9052e-07 0)
(-1.0102 -2.86651e-07 0)
(-1.00571 -2.82827e-07 0)
(-1.00124 -2.79046e-07 0)
(-0.996783 -2.75309e-07 0)
(-0.992335 -2.71616e-07 0)
(-0.987899 -2.67965e-07 0)
(-0.983475 -2.64356e-07 0)
(-0.979063 -2.6079e-07 0)
(-0.974664 -2.57266e-07 0)
(-0.970277 -2.53783e-07 0)
(-0.965902 -2.50341e-07 0)
(-0.96154 -2.4694e-07 0)
(-0.95719 -2.4358e-07 0)
(-0.952853 -2.40259e-07 0)
(-0.948529 -2.36979e-07 0)
(-0.944217 -2.33737e-07 0)
(-0.939919 -2.30535e-07 0)
(-0.935633 -2.27371e-07 0)
(-0.93136 -2.24246e-07 0)
(-0.9271 -2.21158e-07 0)
(-0.922853 -2.18108e-07 0)
(-0.918619 -2.15096e-07 0)
(-0.914398 -2.1212e-07 0)
(-0.91019 -2.09181e-07 0)
(-0.905996 -2.06278e-07 0)
(-0.901815 -2.03411e-07 0)
(-0.897647 -2.0058e-07 0)
(-0.893493 -1.97784e-07 0)
(-0.889352 -1.95023e-07 0)
(-0.885225 -1.92296e-07 0)
(-0.881111 -1.89603e-07 0)
(-0.877011 -1.86944e-07 0)
(-0.872924 -1.84319e-07 0)
(-0.868851 -1.81727e-07 0)
(-0.864792 -1.79168e-07 0)
(-0.860746 -1.76641e-07 0)
(-0.856714 -1.74147e-07 0)
(-0.852696 -1.71684e-07 0)
(-0.848691 -1.69253e-07 0)
(-0.844701 -1.66853e-07 0)
(-0.840724 -1.64484e-07 0)
(-0.836762 -1.62145e-07 0)
(-0.832813 -1.59837e-07 0)
(-0.828878 -1.57558e-07 0)
(-0.824957 -1.55309e-07 0)
(-0.82105 -1.5309e-07 0)
(-0.817157 -1.50899e-07 0)
(-0.813278 -1.48737e-07 0)
(-0.809413 -1.46603e-07 0)
(-0.805563 -1.44498e-07 0)
(-0.801726 -1.4242e-07 0)
(-0.797903 -1.40369e-07 0)
(-0.794095 -1.38346e-07 0)
(-0.790301 -1.36349e-07 0)
(-0.786521 -1.34379e-07 0)
(-0.782755 -1.32435e-07 0)
(-0.779003 -1.30516e-07 0)
(-0.775265 -1.28623e-07 0)
(-0.771542 -1.26756e-07 0)
(-0.767833 -1.24913e-07 0)
(-0.764138 -1.23093e-07 0)
(-0.760457 -1.213e-07 0)
(-0.756791 -1.19526e-07 0)
(-0.753139 -1.1774e-07 0)
(-0.749503 -1.16102e-07 0)
(-0.745875 -1.14476e-07 0)
(-0.741857 -1.12491e-07 0)
(-0.7375 -1.10383e-07 0)
(-0.733222 -1.08485e-07 0)
(-0.729013 -1.06688e-07 0)
(-0.724876 -1.04879e-07 0)
(-0.720808 -1.03106e-07 0)
(-0.716809 -1.01377e-07 0)
(-0.712877 -9.96955e-08 0)
(-0.70901 -9.80587e-08 0)
(-0.705206 -9.64654e-08 0)
(-0.701464 -9.49144e-08 0)
(-0.697781 -9.34044e-08 0)
(-0.694156 -9.19339e-08 0)
(-0.690589 -9.05014e-08 0)
(-0.687077 -8.91057e-08 0)
(-0.683618 -8.77454e-08 0)
(-0.680212 -8.64194e-08 0)
(-0.676857 -8.51263e-08 0)
(-0.673553 -8.38651e-08 0)
(-0.670297 -8.26347e-08 0)
(-0.667088 -8.1434e-08 0)
(-0.663926 -8.02621e-08 0)
(-0.660809 -7.91179e-08 0)
(-0.657737 -7.80007e-08 0)
(-0.654707 -7.69095e-08 0)
(-0.65172 -7.58434e-08 0)
(-0.648774 -7.48018e-08 0)
(-0.645868 -7.37837e-08 0)
(-0.643002 -7.27885e-08 0)
(-0.640174 -7.18155e-08 0)
(-0.637384 -7.08639e-08 0)
(-0.63463 -6.99332e-08 0)
(-0.631913 -6.90226e-08 0)
(-0.629231 -6.81317e-08 0)
(-0.626583 -6.72597e-08 0)
(-0.623969 -6.64062e-08 0)
(-0.621388 -6.55707e-08 0)
(-0.618839 -6.47525e-08 0)
(-0.616322 -6.39512e-08 0)
(-0.613837 -6.31663e-08 0)
(-0.611381 -6.23974e-08 0)
(-0.608955 -6.16441e-08 0)
(-0.606559 -6.09058e-08 0)
(-0.604191 -6.01821e-08 0)
(-0.601851 -5.94728e-08 0)
(-0.599538 -5.87773e-08 0)
(-0.597253 -5.80954e-08 0)
(-0.594993 -5.74267e-08 0)
(-0.59276 -5.67707e-08 0)
(-0.590552 -5.61273e-08 0)
(-0.588369 -5.5496e-08 0)
(-0.586211 -5.48766e-08 0)
(-0.584076 -5.42688e-08 0)
(-0.581965 -5.36722e-08 0)
(-0.579878 -5.30867e-08 0)
(-0.577813 -5.25118e-08 0)
(-0.57577 -5.19475e-08 0)
(-0.573749 -5.13934e-08 0)
(-0.571749 -5.08493e-08 0)
(-0.569771 -5.0315e-08 0)
(-0.567813 -4.97903e-08 0)
(-0.565876 -4.92748e-08 0)
(-0.563959 -4.87686e-08 0)
(-0.562061 -4.82713e-08 0)
(-0.560182 -4.77828e-08 0)
(-0.558323 -4.73028e-08 0)
(-0.556482 -4.68314e-08 0)
(-0.554659 -4.63683e-08 0)
(-0.552855 -4.59133e-08 0)
(-0.551068 -4.54664e-08 0)
(-0.549298 -4.50275e-08 0)
(-0.547545 -4.45964e-08 0)
(-0.545809 -4.41732e-08 0)
(-0.54409 -4.37578e-08 0)
(-0.542386 -4.33502e-08 0)
(-0.540698 -4.29504e-08 0)
(-0.539026 -4.25586e-08 0)
(-0.537369 -4.2175e-08 0)
(-0.535727 -4.17998e-08 0)
(-0.534099 -4.14335e-08 0)
(-0.532486 -4.10766e-08 0)
(-0.530886 -4.07302e-08 0)
(-0.5293 -4.03955e-08 0)
(-0.527726 -4.00739e-08 0)
(-0.526165 -3.97686e-08 0)
(-0.524615 -3.94918e-08 0)
(-0.523075 -3.92139e-08 0)
(-0.521547 -3.89931e-08 0)
(-0.520025 -3.90509e-08 0)
(-0.518493 -3.83804e-08 0)
(-0.517023 -3.75104e-08 0)
(-0.515558 -4.95988e-08 0)
(-0.513143 -1.38107e-08 0)
(-0.514489 -3.65637e-08 0)
(-0.510239 -5.52548e-08 0)
)
;
    }
    symmetry
    {
        type            symmetryPlane;
    }
    frontAndBack
    {
        type            empty;
    }
}


// ************************************************************************* //
