/*--------------------------------*- C++ -*----------------------------------*\
| =========                 |                                                 |
| \\      /  F ield         | OpenFOAM: The Open Source CFD Toolbox           |
|  \\    /   O peration     | Version:  v2012                                 |
|   \\  /    A nd           | Website:  www.openfoam.com                      |
|    \\/     M anipulation  |                                                 |
\*---------------------------------------------------------------------------*/
FoamFile
{
    version     2.0;
    format      ascii;
    class       volScalarField;
    location    "60";
    object      k;
}
// * * * * * * * * * * * * * * * * * * * * * * * * * * * * * * * * * * * * * //

dimensions      [0 2 -2 0 0 0 0];


internalField   nonuniform List<scalar> 
209825
(
0.00102381
0.00093268
0.000857629
0.000793577
0.000737673
0.000688509
0.000645302
0.000607427
0.000574264
0.000545227
0.000519727
0.000497292
0.000477441
0.000459849
0.00044414
0.000430117
0.000417478
0.000406122
0.000395793
0.000386466
0.000377909
0.000370152
0.000362976
0.000356454
0.000350369
0.000344834
0.000339623
0.000334886
0.000330386
0.000326303
0.000322385
0.000318843
0.00031541
0.000312321
0.000309293
0.000306585
0.000303899
0.000301517
0.000299122
0.000297018
0.000294874
0.00029301
0.000291083
0.000289427
0.000287686
0.000286211
0.000284634
0.000283317
0.000281884
0.000280707
0.000279401
0.000278346
0.000277153
0.000276206
0.000275113
0.000274263
0.000273261
0.000272496
0.000271577
0.000270885
0.000270042
0.000269417
0.000268643
0.000268077
0.000267365
0.000266854
0.000266197
0.000265735
0.000265128
0.00026471
0.000264149
0.000263772
0.00026326
0.000262925
0.00026244
0.000262121
0.000261649
0.000261347
0.000260887
0.000260599
0.00026015
0.000259878
0.000259438
0.000259183
0.000258749
0.000258513
0.000258088
0.000257869
0.000257455
0.000257254
0.000256846
0.000256667
0.000256239
0.000259182
0.0132197
0.0134248
0.00102381
0.00093268
0.000857629
0.000793577
0.000737674
0.00068851
0.000645303
0.000607428
0.000574265
0.000545227
0.000519727
0.000497292
0.00047744
0.000459848
0.000444139
0.000430115
0.000417476
0.000406119
0.000395791
0.000386463
0.000377906
0.000370149
0.000362972
0.00035645
0.000350365
0.00034483
0.000339618
0.000334881
0.000330381
0.000326297
0.00032238
0.000318838
0.000315404
0.000312315
0.000309287
0.000306579
0.000303893
0.000301511
0.000299116
0.000297012
0.000294868
0.000293004
0.000291076
0.00028942
0.000287679
0.000286204
0.000284627
0.000283311
0.000281877
0.0002807
0.000279394
0.000278339
0.000277145
0.000276199
0.000275106
0.000274256
0.000273253
0.000272488
0.000271569
0.000270878
0.000270035
0.00026941
0.000268636
0.00026807
0.000267358
0.000266846
0.000266189
0.000265727
0.00026512
0.000264702
0.000264141
0.000263763
0.000263252
0.000262917
0.000262432
0.000262113
0.000261641
0.000261338
0.000260878
0.000260591
0.000260142
0.00025987
0.000259429
0.000259175
0.000258741
0.000258504
0.000258079
0.00025786
0.000257447
0.000257245
0.000256838
0.000256658
0.00025623
0.000259177
0.013236
0.013445
0.00102381
0.00093268
0.000857629
0.000793578
0.000737676
0.000688513
0.000645307
0.000607431
0.000574267
0.000545228
0.000519726
0.00049729
0.000477436
0.000459842
0.000444131
0.000430106
0.000417465
0.000406108
0.000395778
0.000386449
0.000377891
0.000370132
0.000362954
0.000356431
0.000350345
0.000344809
0.000339597
0.00033486
0.000330359
0.000326274
0.000322356
0.000318813
0.00031538
0.00031229
0.000309261
0.000306553
0.000303866
0.000301483
0.000299089
0.000296984
0.00029484
0.000292975
0.000291047
0.000289391
0.00028765
0.000286174
0.000284597
0.00028328
0.000281847
0.000280669
0.000279363
0.000278307
0.000277114
0.000276167
0.000275074
0.000274224
0.000273221
0.000272456
0.000271536
0.000270845
0.000270002
0.000269377
0.000268602
0.000268036
0.000267324
0.000266812
0.000266155
0.000265693
0.000265086
0.000264668
0.000264107
0.000263729
0.000263217
0.000262882
0.000262397
0.000262078
0.000261606
0.000261303
0.000260843
0.000260556
0.000260107
0.000259835
0.000259394
0.000259139
0.000258705
0.000258469
0.000258043
0.000257824
0.000257411
0.000257209
0.000256802
0.000256622
0.000256194
0.00025915
0.0132787
0.0135015
0.00102381
0.000932679
0.000857629
0.00079358
0.00073768
0.000688518
0.000645312
0.000607436
0.00057427
0.000545229
0.000519724
0.000497285
0.000477429
0.000459832
0.000444118
0.000430091
0.000417447
0.000406087
0.000395755
0.000386424
0.000377864
0.000370104
0.000362924
0.0003564
0.000350312
0.000344775
0.000339562
0.000334823
0.000330321
0.000326235
0.000322316
0.000318772
0.000315338
0.000312247
0.000309218
0.000306509
0.000303821
0.000301438
0.000299042
0.000296937
0.000294792
0.000292927
0.000290999
0.000289342
0.0002876
0.000286124
0.000284547
0.000283229
0.000281795
0.000280617
0.00027931
0.000278255
0.000277061
0.000276114
0.00027502
0.00027417
0.000273167
0.000272401
0.000271482
0.00027079
0.000269946
0.000269321
0.000268547
0.00026798
0.000267268
0.000266756
0.000266098
0.000265636
0.000265029
0.000264611
0.000264049
0.000263671
0.000263159
0.000262824
0.000262339
0.00026202
0.000261548
0.000261245
0.000260784
0.000260497
0.000260047
0.000259775
0.000259334
0.000259079
0.000258645
0.000258409
0.000257983
0.000257764
0.00025735
0.000257149
0.000256741
0.000256561
0.000256133
0.000259103
0.0133472
0.0135933
0.00102381
0.000932678
0.000857629
0.000793582
0.000737685
0.000688526
0.00064532
0.000607443
0.000574274
0.00054523
0.000519721
0.000497278
0.000477418
0.000459817
0.0004441
0.000430069
0.000417422
0.000406059
0.000395724
0.00038639
0.000377827
0.000370064
0.000362882
0.000356356
0.000350266
0.000344727
0.000339512
0.000334771
0.000330267
0.00032618
0.00032226
0.000318715
0.000315279
0.000312187
0.000309156
0.000306446
0.000303758
0.000301373
0.000298977
0.000296871
0.000294725
0.000292859
0.00029093
0.000289272
0.00028753
0.000286053
0.000284475
0.000283157
0.000281723
0.000280544
0.000279237
0.00027818
0.000276986
0.000276038
0.000274945
0.000274094
0.00027309
0.000272324
0.000271404
0.000270712
0.000269868
0.000269243
0.000268468
0.000267901
0.000267188
0.000266676
0.000266018
0.000265555
0.000264948
0.00026453
0.000263968
0.00026359
0.000263078
0.000262742
0.000262256
0.000261937
0.000261465
0.000261162
0.000260701
0.000260414
0.000259964
0.000259691
0.00025925
0.000258995
0.000258561
0.000258324
0.000257898
0.000257679
0.000257265
0.000257063
0.000256655
0.000256475
0.000256047
0.000259036
0.0134424
0.0137217
0.00102381
0.000932677
0.000857628
0.000793585
0.000737693
0.000688536
0.000645331
0.000607451
0.00057428
0.000545231
0.000519718
0.00049727
0.000477404
0.000459798
0.000444076
0.00043004
0.000417389
0.000406021
0.000395683
0.000386345
0.000377779
0.000370012
0.000362828
0.000356298
0.000350206
0.000344664
0.000339447
0.000334704
0.000330198
0.000326109
0.000322186
0.00031864
0.000315202
0.000312108
0.000309077
0.000306365
0.000303676
0.00030129
0.000298892
0.000296785
0.000294638
0.000292771
0.000290841
0.000289182
0.000287439
0.000285961
0.000284382
0.000283064
0.000281628
0.000280449
0.000279141
0.000278084
0.000276889
0.000275941
0.000274846
0.000273995
0.000272991
0.000272224
0.000271304
0.000270611
0.000269767
0.000269141
0.000268365
0.000267798
0.000267085
0.000266572
0.000265914
0.000265451
0.000264843
0.000264425
0.000263862
0.000263484
0.000262972
0.000262636
0.00026215
0.00026183
0.000261357
0.000261054
0.000260593
0.000260305
0.000259855
0.000259583
0.000259141
0.000258886
0.000258451
0.000258214
0.000257788
0.000257568
0.000257154
0.000256952
0.000256544
0.000256364
0.000255936
0.00025895
0.0135652
0.0138885
0.00102381
0.000932675
0.000857628
0.000793589
0.000737701
0.000688547
0.000645343
0.000607462
0.000574287
0.000545233
0.000519714
0.000497259
0.000477388
0.000459775
0.000444047
0.000430005
0.000417349
0.000405976
0.000395632
0.00038629
0.00037772
0.000369949
0.000362761
0.000356227
0.000350132
0.000344587
0.000339367
0.000334621
0.000330112
0.000326021
0.000322096
0.000318547
0.000315108
0.000312012
0.000308979
0.000306265
0.000303574
0.000301187
0.000298787
0.000296679
0.000294531
0.000292662
0.000290731
0.000289071
0.000287327
0.000285848
0.000284268
0.000282949
0.000281512
0.000280332
0.000279023
0.000277966
0.00027677
0.000275821
0.000274726
0.000273873
0.000272869
0.000272102
0.00027118
0.000270487
0.000269642
0.000269015
0.000268239
0.000267672
0.000266958
0.000266445
0.000265786
0.000265323
0.000264714
0.000264296
0.000263732
0.000263354
0.000262841
0.000262505
0.000262018
0.000261699
0.000261225
0.000260922
0.00026046
0.000260172
0.000259721
0.000259449
0.000259007
0.000258751
0.000258316
0.000258079
0.000257652
0.000257433
0.000257018
0.000256816
0.000256406
0.000256227
0.000255799
0.000258844
0.013716
0.0140953
0.00102381
0.000932673
0.000857627
0.000793593
0.000737712
0.000688562
0.000645358
0.000607475
0.000574295
0.000545235
0.000519709
0.000497247
0.000477368
0.000459748
0.000444013
0.000429964
0.000417301
0.000405922
0.000395572
0.000386224
0.000377649
0.000369874
0.000362681
0.000356143
0.000350044
0.000344495
0.000339272
0.000334522
0.000330011
0.000325917
0.000321989
0.000318438
0.000314996
0.000311898
0.000308862
0.000306147
0.000303454
0.000301064
0.000298663
0.000296553
0.000294403
0.000292533
0.000290601
0.000288939
0.000287194
0.000285714
0.000284133
0.000282812
0.000281374
0.000280193
0.000278883
0.000277825
0.000276628
0.000275678
0.000274582
0.000273729
0.000272723
0.000271955
0.000271033
0.000270339
0.000269494
0.000268866
0.00026809
0.000267522
0.000266807
0.000266293
0.000265634
0.00026517
0.000264561
0.000264142
0.000263578
0.000263199
0.000262685
0.000262349
0.000261862
0.000261542
0.000261068
0.000260764
0.000260302
0.000260014
0.000259562
0.00025929
0.000258847
0.000258591
0.000258155
0.000257918
0.000257491
0.000257271
0.000256855
0.000256653
0.000256243
0.000256063
0.000255636
0.000258717
0.0138955
0.0143439
0.00102381
0.000932671
0.000857627
0.000793599
0.000737724
0.000688578
0.000645376
0.00060749
0.000574305
0.000545238
0.000519704
0.000497233
0.000477345
0.000459717
0.000443973
0.000429916
0.000417245
0.000405859
0.000395503
0.000386149
0.000377568
0.000369786
0.000362589
0.000356046
0.000349942
0.000344389
0.000339161
0.000334408
0.000329893
0.000325796
0.000321865
0.00031831
0.000314866
0.000311765
0.000308727
0.000306009
0.000303314
0.000300922
0.000298519
0.000296407
0.000294255
0.000292383
0.000290449
0.000288786
0.000287039
0.000285558
0.000283975
0.000282653
0.000281214
0.000280031
0.00027872
0.000277661
0.000276463
0.000275512
0.000274415
0.000273561
0.000272554
0.000271785
0.000270862
0.000270167
0.000269321
0.000268693
0.000267915
0.000267347
0.000266631
0.000266117
0.000265457
0.000264992
0.000264382
0.000263963
0.000263398
0.000263019
0.000262505
0.000262168
0.00026168
0.00026136
0.000260885
0.000260581
0.000260118
0.000259829
0.000259377
0.000259104
0.000258661
0.000258405
0.000257968
0.000257731
0.000257303
0.000257083
0.000256666
0.000256464
0.000256053
0.000255874
0.000255446
0.000258571
0.0141037
0.014636
0.00102381
0.000932669
0.000857626
0.000793604
0.000737738
0.000688597
0.000645396
0.000607507
0.000574317
0.000545241
0.000519699
0.000497217
0.00047732
0.000459681
0.000443928
0.000429862
0.000417183
0.000405788
0.000395424
0.000386062
0.000377475
0.000369687
0.000362483
0.000355935
0.000349826
0.000344268
0.000339036
0.000334278
0.000329759
0.000325658
0.000321724
0.000318165
0.000314717
0.000311613
0.000308572
0.000305852
0.000303154
0.00030076
0.000298354
0.00029624
0.000294086
0.000292212
0.000290276
0.000288611
0.000286863
0.000285379
0.000283795
0.000282471
0.000281031
0.000279847
0.000278535
0.000277473
0.000276274
0.000275322
0.000274224
0.000273369
0.000272361
0.000271591
0.000270667
0.000269971
0.000269124
0.000268495
0.000267716
0.000267147
0.000266431
0.000265916
0.000265254
0.00026479
0.000264179
0.000263758
0.000263193
0.000262814
0.000262298
0.000261961
0.000261472
0.000261152
0.000260676
0.000260372
0.000259908
0.000259619
0.000259166
0.000258893
0.000258448
0.000258192
0.000257755
0.000257517
0.000257088
0.000256868
0.000256451
0.000256248
0.000255837
0.000255657
0.000255229
0.000258404
0.0143407
0.0149738
0.00102381
0.000932666
0.000857626
0.000793611
0.000737753
0.000688618
0.000645419
0.000607527
0.000574331
0.000545246
0.000519693
0.0004972
0.000477292
0.000459642
0.000443878
0.000429801
0.000417113
0.000405708
0.000395336
0.000385966
0.000377371
0.000369576
0.000362366
0.000355811
0.000349696
0.000344132
0.000338895
0.000334132
0.000329609
0.000325502
0.000321564
0.000318002
0.000314551
0.000311443
0.000308399
0.000305675
0.000302974
0.000300577
0.000298169
0.000296052
0.000293896
0.00029202
0.000290081
0.000288414
0.000286664
0.000285179
0.000283593
0.000282267
0.000280825
0.000279639
0.000278325
0.000277263
0.000276062
0.000275109
0.000274009
0.000273153
0.000272144
0.000271373
0.000270448
0.000269751
0.000268902
0.000268272
0.000267493
0.000266922
0.000266205
0.000265689
0.000265027
0.000264561
0.000263949
0.000263529
0.000262962
0.000262582
0.000262066
0.000261728
0.000261239
0.000260917
0.000260441
0.000260136
0.000259672
0.000259382
0.000258928
0.000258655
0.000258209
0.000257953
0.000257515
0.000257276
0.000256847
0.000256626
0.000256208
0.000256005
0.000255593
0.000255413
0.000254985
0.000258217
0.0146062
0.015359
0.00102381
0.000932663
0.000857625
0.000793618
0.00073777
0.000688642
0.000645445
0.00060755
0.000574346
0.000545251
0.000519687
0.000497182
0.000477261
0.000459599
0.000443823
0.000429735
0.000417035
0.00040562
0.000395239
0.000385859
0.000377256
0.000369452
0.000362235
0.000355673
0.000349551
0.000343981
0.000338738
0.00033397
0.000329441
0.00032533
0.000321388
0.000317821
0.000314365
0.000311254
0.000308206
0.000305479
0.000302775
0.000300374
0.000297964
0.000295843
0.000293685
0.000291806
0.000289865
0.000288196
0.000286443
0.000284955
0.000283367
0.00028204
0.000280596
0.000279408
0.000278093
0.000277029
0.000275826
0.000274871
0.00027377
0.000272912
0.000271902
0.00027113
0.000270203
0.000269505
0.000268655
0.000268024
0.000267243
0.000266672
0.000265954
0.000265437
0.000264774
0.000264307
0.000263694
0.000263273
0.000262705
0.000262324
0.000261807
0.000261469
0.000260978
0.000260657
0.000260179
0.000259874
0.000259408
0.000259118
0.000258664
0.000258389
0.000257943
0.000257686
0.000257247
0.000257008
0.000256578
0.000256356
0.000255938
0.000255734
0.000255321
0.000255141
0.000254713
0.00025801
0.0148995
0.0157937
0.00102381
0.000932659
0.000857624
0.000793626
0.000737789
0.000688669
0.000645474
0.000607575
0.000574364
0.000545258
0.000519681
0.000497162
0.000477228
0.000459552
0.000443764
0.000429662
0.000416951
0.000405524
0.000395132
0.000385742
0.000377129
0.000369317
0.000362091
0.000355521
0.000349392
0.000343815
0.000338566
0.000333791
0.000329257
0.000325141
0.000321193
0.000317621
0.000314161
0.000311046
0.000307994
0.000305262
0.000302555
0.000300151
0.000297737
0.000295614
0.000293452
0.00029157
0.000289627
0.000287955
0.000286199
0.00028471
0.000283119
0.000281789
0.000280344
0.000279154
0.000277836
0.00027677
0.000275566
0.000274609
0.000273507
0.000272647
0.000271635
0.000270862
0.000269934
0.000269234
0.000268383
0.000267751
0.000266969
0.000266396
0.000265676
0.000265159
0.000264494
0.000264027
0.000263413
0.00026299
0.000262422
0.00026204
0.000261522
0.000261183
0.000260691
0.000260369
0.00025989
0.000259584
0.000259118
0.000258827
0.000258372
0.000258097
0.00025765
0.000257392
0.000256952
0.000256713
0.000256281
0.000256059
0.00025564
0.000255435
0.000255021
0.000254841
0.000254414
0.000257781
0.0152197
0.01628
0.00102381
0.000932655
0.000857623
0.000793634
0.00073781
0.000688698
0.000645506
0.000607602
0.000574383
0.000545265
0.000519675
0.000497142
0.000477193
0.000459501
0.000443699
0.000429583
0.000416859
0.000405419
0.000395016
0.000385615
0.000376992
0.000369169
0.000361935
0.000355356
0.000349219
0.000343634
0.000338378
0.000333596
0.000329056
0.000324934
0.000320981
0.000317403
0.000313939
0.000310818
0.000307762
0.000305026
0.000302315
0.000299907
0.000297489
0.000295362
0.000293198
0.000291313
0.000289366
0.000287691
0.000285933
0.000284441
0.000282848
0.000281516
0.000280067
0.000278876
0.000277556
0.000276488
0.000275282
0.000274323
0.000273218
0.000272358
0.000271344
0.000270569
0.000269639
0.000268938
0.000268085
0.000267452
0.000266668
0.000266095
0.000265373
0.000264855
0.000264189
0.00026372
0.000263105
0.000262682
0.000262112
0.000261729
0.00026121
0.00026087
0.000260377
0.000260054
0.000259575
0.000259268
0.0002588
0.000258509
0.000258052
0.000257777
0.000257328
0.00025707
0.000256629
0.000256389
0.000255957
0.000255734
0.000255313
0.000255109
0.000254693
0.000254513
0.000254086
0.000257531
0.0155652
0.0168199
0.00102381
0.000932651
0.000857621
0.000793644
0.000737833
0.000688729
0.000645541
0.000607633
0.000574405
0.000545274
0.00051967
0.00049712
0.000477155
0.000459447
0.000443629
0.000429498
0.00041676
0.000405307
0.000394891
0.000385477
0.000376843
0.00036901
0.000361765
0.000355177
0.000349032
0.000343438
0.000338174
0.000333385
0.000328839
0.000324709
0.00032075
0.000317167
0.000313697
0.000310571
0.00030751
0.00030477
0.000302054
0.000299642
0.00029722
0.00029509
0.000292921
0.000291033
0.000289083
0.000287405
0.000285644
0.000284149
0.000282553
0.000281218
0.000279768
0.000278573
0.000277251
0.000276181
0.000274973
0.000274012
0.000272905
0.000272043
0.000271027
0.00027025
0.000269319
0.000268616
0.000267762
0.000267127
0.000266342
0.000265767
0.000265044
0.000264524
0.000263857
0.000263387
0.00026277
0.000262346
0.000261775
0.000261391
0.000260871
0.00026053
0.000260036
0.000259712
0.000259231
0.000258924
0.000258455
0.000258163
0.000257705
0.000257429
0.000256979
0.000256721
0.000256278
0.000256038
0.000255604
0.000255381
0.000254959
0.000254753
0.000254336
0.000254156
0.00025373
0.00025726
0.0159343
0.0174155
0.00102381
0.000932647
0.00085762
0.000793653
0.000737857
0.000688764
0.000645578
0.000607667
0.00057443
0.000545285
0.000519665
0.000497098
0.000477116
0.00045939
0.000443555
0.000429407
0.000416654
0.000405186
0.000394756
0.000385329
0.000376683
0.000368838
0.000361583
0.000354984
0.00034883
0.000343227
0.000337955
0.000333158
0.000328604
0.000324467
0.000320502
0.000316912
0.000313437
0.000310305
0.000307239
0.000304493
0.000301773
0.000299356
0.00029693
0.000294795
0.000292623
0.000290731
0.000288778
0.000287096
0.000285332
0.000283833
0.000282235
0.000280897
0.000279444
0.000278247
0.000276922
0.00027585
0.000274639
0.000273676
0.000272567
0.000271703
0.000270685
0.000269906
0.000268973
0.000268269
0.000267412
0.000266776
0.000265989
0.000265412
0.000264688
0.000264167
0.000263498
0.000263027
0.000262408
0.000261983
0.000261411
0.000261026
0.000260504
0.000260162
0.000259667
0.000259342
0.00025886
0.000258552
0.000258081
0.000257789
0.000257329
0.000257053
0.000256602
0.000256343
0.000255899
0.000255658
0.000255222
0.000254999
0.000254575
0.000254369
0.000253951
0.00025377
0.000253345
0.000256967
0.0163245
0.0180685
0.00102381
0.000932642
0.000857618
0.000793664
0.000737883
0.000688801
0.000645619
0.000607704
0.000574457
0.000545297
0.000519661
0.000497075
0.000477074
0.000459329
0.000443477
0.000429311
0.000416541
0.000405057
0.000394613
0.000385171
0.000376513
0.000368655
0.000361388
0.000354778
0.000348614
0.000343001
0.00033772
0.000332914
0.000328353
0.000324208
0.000320236
0.000316639
0.000313157
0.000310019
0.000306947
0.000304196
0.000301471
0.000299049
0.000296619
0.000294479
0.000292303
0.000290407
0.00028845
0.000286764
0.000284997
0.000283495
0.000281893
0.000280552
0.000279096
0.000277896
0.000276569
0.000275494
0.00027428
0.000273315
0.000272204
0.000271337
0.000270317
0.000269536
0.000268601
0.000267895
0.000267036
0.000266398
0.000265609
0.000265031
0.000264305
0.000263783
0.000263112
0.00026264
0.00026202
0.000261593
0.000261019
0.000260634
0.00026011
0.000259767
0.00025927
0.000258945
0.000258461
0.000258152
0.00025768
0.000257387
0.000256925
0.000256648
0.000256196
0.000255936
0.00025549
0.000255249
0.000254812
0.000254588
0.000254163
0.000253956
0.000253536
0.000253356
0.000252931
0.000256652
0.016733
0.0187809
0.00102381
0.000932637
0.000857616
0.000793675
0.000737911
0.00068884
0.000645664
0.000607744
0.000574487
0.000545312
0.000519657
0.000497051
0.000477031
0.000459266
0.000443394
0.000429209
0.000416422
0.00040492
0.00039446
0.000385003
0.000376331
0.000368459
0.000361181
0.000354558
0.000348383
0.00034276
0.00033747
0.000332654
0.000328084
0.000323931
0.000319951
0.000316347
0.000312859
0.000309714
0.000306636
0.000303879
0.000301148
0.000298721
0.000296286
0.000294141
0.000291961
0.00029006
0.000288099
0.000286409
0.000284638
0.000283132
0.000281527
0.000280183
0.000278724
0.000277521
0.000276191
0.000275113
0.000273897
0.000272929
0.000271815
0.000270946
0.000269923
0.00026914
0.000268203
0.000267495
0.000266634
0.000265994
0.000265203
0.000264624
0.000263895
0.000263371
0.000262699
0.000262225
0.000261603
0.000261176
0.0002606
0.000260213
0.000259688
0.000259344
0.000258846
0.000258519
0.000258033
0.000257724
0.00025725
0.000256956
0.000256493
0.000256215
0.000255761
0.0002555
0.000255053
0.000254811
0.000254373
0.000254148
0.000253721
0.000253514
0.000253092
0.000252911
0.000252487
0.000256314
0.0171562
0.0195541
0.00102381
0.000932632
0.000857614
0.000793687
0.000737941
0.000688883
0.000645711
0.000607787
0.000574519
0.000545328
0.000519655
0.000497028
0.000476987
0.0004592
0.000443308
0.000429102
0.000416296
0.000404776
0.000394299
0.000384826
0.000376139
0.000368252
0.000360961
0.000354325
0.000348139
0.000342504
0.000337204
0.000332378
0.000327799
0.000323637
0.000319649
0.000316037
0.000312541
0.000309389
0.000306305
0.000303541
0.000300805
0.000298372
0.000295931
0.000293782
0.000291596
0.00028969
0.000287725
0.000286031
0.000284256
0.000282746
0.000281138
0.00027979
0.000278327
0.000277121
0.000275788
0.000274706
0.000273488
0.000272517
0.0002714
0.000270529
0.000269504
0.000268718
0.000267778
0.000267068
0.000266205
0.000265563
0.00026477
0.000264189
0.000263458
0.000262933
0.000262258
0.000261783
0.000261159
0.00026073
0.000260152
0.000259765
0.000259237
0.000258893
0.000258393
0.000258065
0.000257578
0.000257267
0.000256791
0.000256497
0.000256032
0.000255753
0.000255297
0.000255036
0.000254587
0.000254344
0.000253904
0.000253678
0.00025325
0.000253042
0.000252618
0.000252437
0.000252014
0.000255953
0.0175902
0.0203891
0.00102381
0.000932626
0.000857612
0.000793699
0.000737973
0.000688928
0.000645763
0.000607834
0.000574555
0.000545347
0.000519654
0.000497005
0.000476941
0.000459131
0.000443217
0.00042899
0.000416164
0.000404624
0.00039413
0.000384639
0.000375936
0.000368034
0.000360728
0.000354079
0.00034788
0.000342233
0.000336922
0.000332085
0.000327497
0.000323325
0.000319329
0.000315708
0.000312205
0.000309045
0.000305954
0.000303183
0.00030044
0.000298001
0.000295555
0.0002934
0.000291209
0.000289299
0.000287328
0.00028563
0.00028385
0.000282337
0.000280724
0.000279372
0.000277906
0.000276696
0.00027536
0.000274275
0.000273053
0.00027208
0.00027096
0.000270086
0.000269058
0.00026827
0.000267328
0.000266615
0.00026575
0.000265106
0.00026431
0.000263727
0.000262994
0.000262467
0.00026179
0.000261314
0.000260688
0.000260257
0.000259677
0.000259288
0.000258759
0.000258413
0.000257911
0.000257583
0.000257093
0.000256781
0.000256304
0.000256008
0.000255542
0.000255262
0.000254804
0.000254542
0.000254092
0.000253848
0.000253406
0.000253179
0.000252749
0.00025254
0.000252115
0.000251934
0.000251511
0.000255568
0.0180301
0.0212867
0.00102381
0.00093262
0.00085761
0.000793712
0.000738006
0.000688976
0.000645817
0.000607884
0.000574594
0.000545368
0.000519655
0.000496981
0.000476895
0.00045906
0.000443124
0.000428873
0.000416026
0.000404466
0.000393952
0.000384442
0.000375722
0.000367804
0.000360484
0.00035382
0.000347608
0.000341948
0.000336625
0.000331777
0.000327178
0.000322996
0.000318991
0.000315361
0.000311849
0.000308681
0.000305583
0.000302805
0.000300056
0.00029761
0.000295158
0.000292996
0.0002908
0.000288884
0.000286909
0.000285206
0.000283422
0.000281903
0.000280286
0.000278931
0.00027746
0.000276247
0.000274907
0.000273819
0.000272594
0.000271617
0.000270494
0.000269617
0.000268586
0.000267796
0.00026685
0.000266136
0.000265268
0.000264621
0.000263823
0.000263238
0.000262503
0.000261974
0.000261294
0.000260816
0.000260188
0.000259756
0.000259174
0.000258784
0.000258252
0.000257906
0.000257401
0.000257071
0.00025658
0.000256267
0.000255788
0.000255491
0.000255022
0.000254742
0.000254282
0.000254019
0.000253567
0.000253322
0.000252878
0.000252651
0.000252219
0.000252009
0.000251581
0.0002514
0.000250979
0.000255158
0.0184708
0.0222468
0.00102381
0.000932614
0.000857607
0.000793725
0.000738041
0.000689028
0.000645876
0.000607938
0.000574637
0.000545391
0.000519657
0.000496959
0.000476847
0.000458987
0.000443027
0.000428752
0.000415883
0.0004043
0.000393766
0.000384237
0.000375499
0.000367563
0.000360227
0.000353547
0.000347322
0.000341648
0.000336313
0.000331452
0.000326843
0.00032265
0.000318635
0.000314995
0.000311475
0.000308298
0.000305192
0.000302406
0.00029965
0.000297197
0.000294739
0.000292571
0.000290369
0.000288447
0.000286467
0.000284758
0.000282969
0.000281446
0.000279825
0.000278465
0.00027699
0.000275773
0.000274429
0.000273337
0.000272108
0.000271128
0.000270002
0.000269122
0.000268088
0.000267295
0.000266347
0.000265629
0.000264758
0.00026411
0.000263309
0.000262722
0.000261984
0.000261453
0.000260771
0.000260291
0.00025966
0.000259227
0.000258643
0.000258251
0.000257717
0.000257369
0.000256863
0.000256532
0.000256038
0.000255724
0.000255243
0.000254945
0.000254474
0.000254193
0.00025373
0.000253467
0.000253012
0.000252766
0.000252321
0.000252092
0.000251658
0.000251447
0.000251018
0.000250836
0.000250416
0.000254723
0.0189061
0.0232682
0.00102382
0.000932607
0.000857604
0.000793739
0.000738078
0.000689082
0.000645938
0.000607996
0.000574683
0.000545418
0.000519661
0.000496937
0.0004768
0.000458913
0.000442927
0.000428626
0.000415734
0.000404127
0.000393573
0.000384022
0.000375266
0.000367311
0.000359958
0.000353262
0.000347022
0.000341333
0.000335985
0.000331112
0.000326491
0.000322286
0.000318261
0.000314611
0.000311082
0.000307896
0.000304782
0.000301988
0.000299224
0.000296763
0.000294298
0.000292124
0.000289916
0.000287988
0.000286002
0.000284287
0.000282493
0.000280965
0.000279339
0.000277974
0.000276495
0.000275274
0.000273926
0.00027283
0.000271598
0.000270614
0.000269485
0.000268601
0.000267564
0.000266768
0.000265816
0.000265096
0.000264222
0.000263571
0.000262767
0.000262178
0.000261437
0.000260904
0.00026022
0.000259738
0.000259105
0.00025867
0.000258083
0.00025769
0.000257154
0.000256804
0.000256295
0.000255963
0.000255467
0.000255152
0.000254668
0.000254369
0.000253896
0.000253614
0.000253149
0.000252885
0.000252428
0.000252181
0.000251733
0.000251504
0.000251068
0.000250856
0.000250424
0.000250242
0.000249824
0.000254262
0.0193296
0.024349
0.00102382
0.0009326
0.000857601
0.000793753
0.000738117
0.000689139
0.000646004
0.000608058
0.000574733
0.000545448
0.000519667
0.000496916
0.000476752
0.000458837
0.000442824
0.000428497
0.000415579
0.000403948
0.000393372
0.000383799
0.000375023
0.000367048
0.000359678
0.000352965
0.000346709
0.000341005
0.000335643
0.000330756
0.000326123
0.000321906
0.00031787
0.000314209
0.00031067
0.000307474
0.000304351
0.000301549
0.000298777
0.000296308
0.000293836
0.000291655
0.00028944
0.000287506
0.000285514
0.000283794
0.000281994
0.000280461
0.000278829
0.00027746
0.000275976
0.00027475
0.000273398
0.000272298
0.000271062
0.000270075
0.000268941
0.000268054
0.000267014
0.000266214
0.000265259
0.000264536
0.000263659
0.000263005
0.000262199
0.000261607
0.000260863
0.000260328
0.000259641
0.000259157
0.000258521
0.000258084
0.000257495
0.0002571
0.000256562
0.00025621
0.000255699
0.000255366
0.000254868
0.000254551
0.000254065
0.000253765
0.000253289
0.000253006
0.000252539
0.000252273
0.000251814
0.000251566
0.000251116
0.000250885
0.000250447
0.000250234
0.0002498
0.000249618
0.000249201
0.000253774
0.0197339
0.0254856
0.00102382
0.000932593
0.000857597
0.000793768
0.000738158
0.000689199
0.000646073
0.000608125
0.000574787
0.000545481
0.000519676
0.000496897
0.000476705
0.00045876
0.000442719
0.000428364
0.00041542
0.000403763
0.000393163
0.000383567
0.00037477
0.000366775
0.000359387
0.000352655
0.000346383
0.000340663
0.000335287
0.000330385
0.000325739
0.000321509
0.000317462
0.000313789
0.00031024
0.000307034
0.000303902
0.00030109
0.00029831
0.000295833
0.000293353
0.000291164
0.000288943
0.000287001
0.000285003
0.000283277
0.000281472
0.000279932
0.000278296
0.000276921
0.000275433
0.000274202
0.000272845
0.000271741
0.0002705
0.000269509
0.000268372
0.000267481
0.000266437
0.000265634
0.000264676
0.000263949
0.000263069
0.000262413
0.000261603
0.000261008
0.000260262
0.000259724
0.000259034
0.000258548
0.000257909
0.000257471
0.000256878
0.000256482
0.000255941
0.000255588
0.000255074
0.000254739
0.000254239
0.000253921
0.000253432
0.000253131
0.000252652
0.000252368
0.000251898
0.000251631
0.00025117
0.000250921
0.000250468
0.000250237
0.000249796
0.000249582
0.000249145
0.000248963
0.000248547
0.000253257
0.0201114
0.0266728
0.00102382
0.000932585
0.000857593
0.000793783
0.0007382
0.000689262
0.000646147
0.000608195
0.000574845
0.000545518
0.000519688
0.00049688
0.000476658
0.000458682
0.000442612
0.000428227
0.000415257
0.000403573
0.000392948
0.000383328
0.000374509
0.000366492
0.000359084
0.000352333
0.000346044
0.000340307
0.000334916
0.000329999
0.000325339
0.000321096
0.000317036
0.000313352
0.000309792
0.000306575
0.000303433
0.000300611
0.000297823
0.000295337
0.000292849
0.000290652
0.000288424
0.000286475
0.00028447
0.000282737
0.000280926
0.000279381
0.000277739
0.000276358
0.000274865
0.000273629
0.000272267
0.000271159
0.000269914
0.000268918
0.000267777
0.000266882
0.000265834
0.000265027
0.000264066