/*--------------------------------*- C++ -*----------------------------------*\
| =========                 |                                                 |
| \\      /  F ield         | OpenFOAM: The Open Source CFD Toolbox           |
|  \\    /   O peration     | Version:  v2012                                 |
|   \\  /    A nd           | Website:  www.openfoam.com                      |
|    \\/     M anipulation  |                                                 |
\*---------------------------------------------------------------------------*/
FoamFile
{
    version     2.0;
    format      ascii;
    class       volVectorField;
    location    "60";
    object      wallShearStress;
}
// * * * * * * * * * * * * * * * * * * * * * * * * * * * * * * * * * * * * * //

dimensions      [0 2 -2 0 0 0 0];


internalField   uniform (0 0 0);

boundaryField
{
    inlet
    {
        type            calculated;
        value           uniform (0 0 0);
    }
    outlet
    {
        type            calculated;
        value           uniform (0 0 0);
    }
    topWall
    {
        type            calculated;
        value           nonuniform List<vector> 
545
(
(7.01389e-08 -4.93707e-08 0)
(7.0114e-08 -1.38116e-07 0)
(7.00658e-08 -2.30381e-07 0)
(7.00064e-08 -3.19971e-07 0)
(6.9932e-08 -4.05741e-07 0)
(6.98443e-08 -4.88792e-07 0)
(6.97443e-08 -5.6983e-07 0)
(6.96327e-08 -6.48817e-07 0)
(6.95106e-08 -7.2558e-07 0)
(6.93789e-08 -8.00116e-07 0)
(6.92386e-08 -8.72525e-07 0)
(6.90905e-08 -9.42888e-07 0)
(6.89353e-08 -1.01126e-06 0)
(6.87739e-08 -1.07767e-06 0)
(6.86068e-08 -1.14217e-06 0)
(6.84348e-08 -1.20481e-06 0)
(6.82584e-08 -1.26565e-06 0)
(6.80783e-08 -1.32473e-06 0)
(6.7895e-08 -1.3821e-06 0)
(6.77089e-08 -1.4378e-06 0)
(6.75205e-08 -1.49188e-06 0)
(6.73303e-08 -1.5444e-06 0)
(6.71386e-08 -1.59538e-06 0)
(6.6946e-08 -1.64487e-06 0)
(6.67525e-08 -1.69292e-06 0)
(6.65588e-08 -1.73957e-06 0)
(6.63649e-08 -1.78485e-06 0)
(6.61712e-08 -1.82882e-06 0)
(6.5978e-08 -1.87149e-06 0)
(6.57855e-08 -1.91293e-06 0)
(6.55939e-08 -1.95315e-06 0)
(6.54034e-08 -1.99219e-06 0)
(6.52142e-08 -2.0301e-06 0)
(6.50264e-08 -2.0669e-06 0)
(6.48403e-08 -2.10263e-06 0)
(6.46559e-08 -2.13732e-06 0)
(6.44734e-08 -2.17099e-06 0)
(6.42929e-08 -2.20369e-06 0)
(6.41144e-08 -2.23543e-06 0)
(6.39382e-08 -2.26626e-06 0)
(6.37642e-08 -2.29618e-06 0)
(6.35925e-08 -2.32524e-06 0)
(6.34233e-08 -2.35346e-06 0)
(6.32565e-08 -2.38086e-06 0)
(6.30921e-08 -2.40747e-06 0)
(6.29304e-08 -2.43331e-06 0)
(6.27711e-08 -2.4584e-06 0)
(6.26145e-08 -2.48278e-06 0)
(6.24605e-08 -2.50645e-06 0)
(6.23091e-08 -2.52944e-06 0)
(6.21603e-08 -2.55176e-06 0)
(6.20142e-08 -2.57345e-06 0)
(6.18707e-08 -2.59452e-06 0)
(6.17298e-08 -2.61499e-06 0)
(6.15916e-08 -2.63487e-06 0)
(6.1456e-08 -2.65418e-06 0)
(6.13229e-08 -2.67295e-06 0)
(6.11925e-08 -2.69117e-06 0)
(6.10647e-08 -2.70889e-06 0)
(6.09394e-08 -2.72609e-06 0)
(6.08166e-08 -2.74282e-06 0)
(6.06963e-08 -2.75906e-06 0)
(6.05785e-08 -2.77485e-06 0)
(6.04631e-08 -2.79019e-06 0)
(6.03502e-08 -2.8051e-06 0)
(6.02396e-08 -2.81959e-06 0)
(6.01314e-08 -2.83367e-06 0)
(6.00255e-08 -2.84736e-06 0)
(5.99219e-08 -2.86066e-06 0)
(5.98206e-08 -2.87359e-06 0)
(5.97214e-08 -2.88616e-06 0)
(5.96246e-08 -2.89836e-06 0)
(5.95309e-08 -2.9101e-06 0)
(5.94393e-08 -2.92149e-06 0)
(5.93483e-08 -2.93275e-06 0)
(5.92575e-08 -2.94396e-06 0)
(5.91668e-08 -2.95512e-06 0)
(5.90763e-08 -2.96622e-06 0)
(5.89858e-08 -2.97724e-06 0)
(5.88954e-08 -2.98819e-06 0)
(5.88051e-08 -2.99907e-06 0)
(5.87149e-08 -3.00989e-06 0)
(5.86248e-08 -3.02065e-06 0)
(5.85348e-08 -3.03133e-06 0)
(5.84449e-08 -3.04196e-06 0)
(5.83551e-08 -3.05252e-06 0)
(5.82654e-08 -3.06301e-06 0)
(5.81759e-08 -3.07344e-06 0)
(5.80864e-08 -3.0838e-06 0)
(5.79971e-08 -3.09411e-06 0)
(5.79079e-08 -3.10435e-06 0)
(5.78189e-08 -3.11452e-06 0)
(5.773e-08 -3.12464e-06 0)
(5.76413e-08 -3.13469e-06 0)
(5.75524e-08 -3.14472e-06 0)
(5.74637e-08 -3.15452e-06 0)
(5.73824e-08 -3.16353e-06 0)
(5.73083e-08 -3.17174e-06 0)
(5.72352e-08 -3.17967e-06 0)
(5.71623e-08 -3.18766e-06 0)
(5.70892e-08 -3.19572e-06 0)
(5.70159e-08 -3.2038e-06 0)
(5.69422e-08 -3.21187e-06 0)
(5.68681e-08 -3.21994e-06 0)
(5.67937e-08 -3.22803e-06 0)
(5.6719e-08 -3.23612e-06 0)
(5.66438e-08 -3.24423e-06 0)
(5.65684e-08 -3.25234e-06 0)
(5.64926e-08 -3.26046e-06 0)
(5.64164e-08 -3.26859e-06 0)
(5.63399e-08 -3.27672e-06 0)
(5.6263e-08 -3.28487e-06 0)
(5.61858e-08 -3.29302e-06 0)
(5.61082e-08 -3.30118e-06 0)
(5.60302e-08 -3.30935e-06 0)
(5.59519e-08 -3.31753e-06 0)
(5.58733e-08 -3.32571e-06 0)
(5.57942e-08 -3.3339e-06 0)
(5.57148e-08 -3.3421e-06 0)
(5.56351e-08 -3.35031e-06 0)
(5.5555e-08 -3.35852e-06 0)
(5.54745e-08 -3.36675e-06 0)
(5.53936e-08 -3.37497e-06 0)
(5.53124e-08 -3.38321e-06 0)
(5.52308e-08 -3.39146e-06 0)
(5.51489e-08 -3.39971e-06 0)
(5.50666e-08 -3.40797e-06 0)
(5.49839e-08 -3.41623e-06 0)
(5.49008e-08 -3.4245e-06 0)
(5.48174e-08 -3.43278e-06 0)
(5.47335e-08 -3.44107e-06 0)
(5.46494e-08 -3.44936e-06 0)
(5.45648e-08 -3.45766e-06 0)
(5.44799e-08 -3.46597e-06 0)
(5.43945e-08 -3.47428e-06 0)
(5.43088e-08 -3.4826e-06 0)
(5.42228e-08 -3.49093e-06 0)
(5.41363e-08 -3.49926e-06 0)
(5.40495e-08 -3.5076e-06 0)
(5.39623e-08 -3.51595e-06 0)
(5.38747e-08 -3.5243e-06 0)
(5.37867e-08 -3.53265e-06 0)
(5.36983e-08 -3.54102e-06 0)
(5.36095e-08 -3.54939e-06 0)
(5.35204e-08 -3.55776e-06 0)
(5.34309e-08 -3.56614e-06 0)
(5.3341e-08 -3.57453e-06 0)
(5.32506e-08 -3.58292e-06 0)
(5.31599e-08 -3.59132e-06 0)
(5.30689e-08 -3.59972e-06 0)
(5.29774e-08 -3.60813e-06 0)
(5.28855e-08 -3.61654e-06 0)
(5.27932e-08 -3.62496e-06 0)
(5.27006e-08 -3.63339e-06 0)
(5.26075e-08 -3.64181e-06 0)
(5.25141e-08 -3.65025e-06 0)
(5.24203e-08 -3.65869e-06 0)
(5.2326e-08 -3.66713e-06 0)
(5.22314e-08 -3.67558e-06 0)
(5.21364e-08 -3.68403e-06 0)
(5.20409e-08 -3.69249e-06 0)
(5.19451e-08 -3.70095e-06 0)
(5.18489e-08 -3.70941e-06 0)
(5.17522e-08 -3.71788e-06 0)
(5.16552e-08 -3.72636e-06 0)
(5.15578e-08 -3.73484e-06 0)
(5.14599e-08 -3.74332e-06 0)
(5.13617e-08 -3.7518e-06 0)
(5.12631e-08 -3.76029e-06 0)
(5.1164e-08 -3.76879e-06 0)
(5.10646e-08 -3.77728e-06 0)
(5.09647e-08 -3.78578e-06 0)
(5.08645e-08 -3.79429e-06 0)
(5.07638e-08 -3.80279e-06 0)
(5.06627e-08 -3.8113e-06 0)
(5.05613e-08 -3.81982e-06 0)
(5.04594e-08 -3.82833e-06 0)
(5.03571e-08 -3.83685e-06 0)
(5.02544e-08 -3.84537e-06 0)
(5.01513e-08 -3.8539e-06 0)
(5.00478e-08 -3.86242e-06 0)
(4.99439e-08 -3.87095e-06 0)
(4.98396e-08 -3.87948e-06 0)
(4.97348e-08 -3.88801e-06 0)
(4.96297e-08 -3.89655e-06 0)
(4.95241e-08 -3.90509e-06 0)
(4.94181e-08 -3.91363e-06 0)
(4.93118e-08 -3.92217e-06 0)
(4.9205e-08 -3.93071e-06 0)
(4.90978e-08 -3.93925e-06 0)
(4.89902e-08 -3.9478e-06 0)
(4.88821e-08 -3.95635e-06 0)
(4.87737e-08 -3.9649e-06 0)
(4.86649e-08 -3.97344e-06 0)
(4.85556e-08 -3.98199e-06 0)
(4.84459e-08 -3.99055e-06 0)
(4.83358e-08 -3.9991e-06 0)
(4.82254e-08 -4.00765e-06 0)
(4.81144e-08 -4.0162e-06 0)
(4.80031e-08 -4.02476e-06 0)
(4.78914e-08 -4.03331e-06 0)
(4.77793e-08 -4.04186e-06 0)
(4.76667e-08 -4.05042e-06 0)
(4.75537e-08 -4.05897e-06 0)
(4.74403e-08 -4.06752e-06 0)
(4.73266e-08 -4.07608e-06 0)
(4.72123e-08 -4.08463e-06 0)
(4.70977e-08 -4.09318e-06 0)
(4.69827e-08 -4.10173e-06 0)
(4.68673e-08 -4.11029e-06 0)
(4.67514e-08 -4.11883e-06 0)
(4.66351e-08 -4.12738e-06 0)
(4.65185e-08 -4.13593e-06 0)
(4.64014e-08 -4.14448e-06 0)
(4.62839e-08 -4.15302e-06 0)
(4.6166e-08 -4.16156e-06 0)
(4.60477e-08 -4.1701e-06 0)
(4.59289e-08 -4.17864e-06 0)
(4.58098e-08 -4.18718e-06 0)
(4.56902e-08 -4.19572e-06 0)
(4.55703e-08 -4.20425e-06 0)
(4.54499e-08 -4.21278e-06 0)
(4.53292e-08 -4.22131e-06 0)
(4.5208e-08 -4.22983e-06 0)
(4.50864e-08 -4.23835e-06 0)
(4.49644e-08 -4.24687e-06 0)
(4.4842e-08 -4.25539e-06 0)
(4.47192e-08 -4.2639e-06 0)
(4.4596e-08 -4.27241e-06 0)
(4.44724e-08 -4.28092e-06 0)
(4.43484e-08 -4.28942e-06 0)
(4.4224e-08 -4.29792e-06 0)
(4.40992e-08 -4.30642e-06 0)
(4.39739e-08 -4.31491e-06 0)
(4.38483e-08 -4.32339e-06 0)
(4.37223e-08 -4.33187e-06 0)
(4.35959e-08 -4.34035e-06 0)
(4.34691e-08 -4.34883e-06 0)
(4.33419e-08 -4.35729e-06 0)
(4.32143e-08 -4.36576e-06 0)
(4.30863e-08 -4.37421e-06 0)
(4.29579e-08 -4.38267e-06 0)
(4.28291e-08 -4.39111e-06 0)
(4.26999e-08 -4.39956e-06 0)
(4.25703e-08 -4.40799e-06 0)
(4.24404e-08 -4.41642e-06 0)
(4.231e-08 -4.42485e-06 0)
(4.21793e-08 -4.43327e-06 0)
(4.20482e-08 -4.44168e-06 0)
(4.19167e-08 -4.45008e-06 0)
(4.17848e-08 -4.45848e-06 0)
(4.16525e-08 -4.46687e-06 0)
(4.15198e-08 -4.47526e-06 0)
(4.13868e-08 -4.48364e-06 0)
(4.12534e-08 -4.49201e-06 0)
(4.11196e-08 -4.50037e-06 0)
(4.09854e-08 -4.50872e-06 0)
(4.08509e-08 -4.51707e-06 0)
(4.0716e-08 -4.52541e-06 0)
(4.05807e-08 -4.53375e-06 0)
(4.0445e-08 -4.54207e-06 0)
(4.0309e-08 -4.55038e-06 0)
(4.01726e-08 -4.55869e-06 0)
(4.00358e-08 -4.56699e-06 0)
(3.98987e-08 -4.57528e-06 0)
(3.97612e-08 -4.58356e-06 0)
(3.96235e-08 -4.59183e-06 0)
(3.94847e-08 -4.60011e-06 0)
(3.93461e-08 -4.60829e-06 0)
(3.9215e-08 -4.6161e-06 0)
(3.90893e-08 -4.62355e-06 0)
(3.89629e-08 -4.6309e-06 0)
(3.88358e-08 -4.63833e-06 0)
(3.87076e-08 -4.64585e-06 0)
(3.8578e-08 -4.65343e-06 0)
(3.84471e-08 -4.66106e-06 0)
(3.83146e-08 -4.66874e-06 0)
(3.81807e-08 -4.67649e-06 0)
(3.80454e-08 -4.68428e-06 0)
(3.79086e-08 -4.69214e-06 0)
(3.77702e-08 -4.70005e-06 0)
(3.76304e-08 -4.70802e-06 0)
(3.74891e-08 -4.71605e-06 0)
(3.73463e-08 -4.72413e-06 0)
(3.72019e-08 -4.73227e-06 0)
(3.70559e-08 -4.74046e-06 0)
(3.69084e-08 -4.74871e-06 0)
(3.67593e-08 -4.75702e-06 0)
(3.66085e-08 -4.76538e-06 0)
(3.64562e-08 -4.7738e-06 0)
(3.63023e-08 -4.78227e-06 0)
(3.61467e-08 -4.79081e-06 0)
(3.59895e-08 -4.79939e-06 0)
(3.58306e-08 -4.80803e-06 0)
(3.567e-08 -4.81673e-06 0)
(3.55078e-08 -4.82548e-06 0)
(3.53438e-08 -4.83428e-06 0)
(3.51782e-08 -4.84315e-06 0)
(3.50108e-08 -4.85206e-06 0)
(3.48417e-08 -4.86103e-06 0)
(3.46708e-08 -4.87005e-06 0)
(3.44981e-08 -4.87912e-06 0)
(3.43237e-08 -4.88825e-06 0)
(3.41475e-08 -4.89742e-06 0)
(3.39695e-08 -4.90665e-06 0)
(3.37897e-08 -4.91594e-06 0)
(3.36081e-08 -4.92527e-06 0)
(3.34246e-08 -4.93465e-06 0)
(3.32393e-08 -4.94408e-06 0)
(3.30522e-08 -4.95356e-06 0)
(3.28632e-08 -4.96309e-06 0)
(3.26723e-08 -4.97267e-06 0)
(3.24795e-08 -4.98229e-06 0)
(3.22849e-08 -4.99197e-06 0)
(3.20883e-08 -5.00168e-06 0)
(3.18899e-08 -5.01145e-06 0)
(3.16895e-08 -5.02125e-06 0)
(3.14872e-08 -5.03111e-06 0)
(3.1283e-08 -5.041e-06 0)
(3.10768e-08 -5.05094e-06 0)
(3.08687e-08 -5.06091e-06 0)
(3.06587e-08 -5.07093e-06 0)
(3.04466e-08 -5.08099e-06 0)
(3.02327e-08 -5.09108e-06 0)
(3.00167e-08 -5.10121e-06 0)
(2.97989e-08 -5.11138e-06 0)
(2.9579e-08 -5.12159e-06 0)
(2.93571e-08 -5.13183e-06 0)
(2.91333e-08 -5.1421e-06 0)
(2.89075e-08 -5.1524e-06 0)
(2.86797e-08 -5.16273e-06 0)
(2.845e-08 -5.1731e-06 0)
(2.82182e-08 -5.18348e-06 0)
(2.79845e-08 -5.1939e-06 0)
(2.77488e-08 -5.20434e-06 0)
(2.75111e-08 -5.21481e-06 0)
(2.72715e-08 -5.2253e-06 0)
(2.70299e-08 -5.23581e-06 0)
(2.67863e-08 -5.24633e-06 0)
(2.65407e-08 -5.25688e-06 0)
(2.62933e-08 -5.26744e-06 0)
(2.60438e-08 -5.27802e-06 0)
(2.57925e-08 -5.2886e-06 0)
(2.55392e-08 -5.2992e-06 0)
(2.5284e-08 -5.30981e-06 0)
(2.50269e-08 -5.32043e-06 0)
(2.47679e-08 -5.33104e-06 0)
(2.45071e-08 -5.34167e-06 0)
(2.42443e-08 -5.35229e-06 0)
(2.39798e-08 -5.36292e-06 0)
(2.37134e-08 -5.37353e-06 0)
(2.34452e-08 -5.38415e-06 0)
(2.31752e-08 -5.39476e-06 0)
(2.29034e-08 -5.40536e-06 0)
(2.26299e-08 -5.41594e-06 0)
(2.23546e-08 -5.42652e-06 0)
(2.20777e-08 -5.43707e-06 0)
(2.17991e-08 -5.44761e-06 0)
(2.15188e-08 -5.45812e-06 0)
(2.1237e-08 -5.46862e-06 0)
(2.09535e-08 -5.47908e-06 0)
(2.06685e-08 -5.48952e-06 0)
(2.03819e-08 -5.49992e-06 0)
(2.00939e-08 -5.51029e-06 0)
(1.98044e-08 -5.52062e-06 0)
(1.95135e-08 -5.53092e-06 0)
(1.92213e-08 -5.54116e-06 0)
(1.89277e-08 -5.55137e-06 0)
(1.86328e-08 -5.56153e-06 0)
(1.83366e-08 -5.57163e-06 0)
(1.80393e-08 -5.58168e-06 0)
(1.77408e-08 -5.59168e-06 0)
(1.74412e-08 -5.6016e-06 0)
(1.71405e-08 -5.61148e-06 0)
(1.68388e-08 -5.62127e-06 0)
(1.65362e-08 -5.63101e-06 0)
(1.62327e-08 -5.64066e-06 0)
(1.59283e-08 -5.65025e-06 0)
(1.56232e-08 -5.65975e-06 0)
(1.53173e-08 -5.66917e-06 0)
(1.50108e-08 -5.6785e-06 0)
(1.47037e-08 -5.68775e-06 0)
(1.43961e-08 -5.69689e-06 0)
(1.4088e-08 -5.70595e-06 0)
(1.37795e-08 -5.71489e-06 0)
(1.34707e-08 -5.72375e-06 0)
(1.31617e-08 -5.73248e-06 0)
(1.28525e-08 -5.74112e-06 0)
(1.25431e-08 -5.74963e-06 0)
(1.22338e-08 -5.75804e-06 0)
(1.19245e-08 -5.76631e-06 0)
(1.16154e-08 -5.77447e-06 0)
(1.13064e-08 -5.78249e-06 0)
(1.09978e-08 -5.79038e-06 0)
(1.06895e-08 -5.79813e-06 0)
(1.03818e-08 -5.80576e-06 0)
(1.00745e-08 -5.81323e-06 0)
(9.76796e-09 -5.82056e-06 0)
(9.4621e-09 -5.82774e-06 0)
(9.15708e-09 -5.83477e-06 0)
(8.85295e-09 -5.84163e-06 0)
(8.54986e-09 -5.84835e-06 0)
(8.24784e-09 -5.85489e-06 0)
(7.94704e-09 -5.86127e-06 0)
(7.64751e-09 -5.86747e-06 0)
(7.34938e-09 -5.87351e-06 0)
(7.05272e-09 -5.87936e-06 0)
(6.75766e-09 -5.88504e-06 0)
(6.46427e-09 -5.89053e-06 0)
(6.17266e-09 -5.89584e-06 0)
(5.88292e-09 -5.90095e-06 0)
(5.59518e-09 -5.90588e-06 0)
(5.30949e-09 -5.91059e-06 0)
(5.026e-09 -5.91513e-06 0)
(4.74477e-09 -5.91944e-06 0)
(4.46594e-09 -5.92357e-06 0)
(4.18957e-09 -5.92747e-06 0)
(3.91579e-09 -5.93118e-06 0)
(3.64468e-09 -5.93465e-06 0)
(3.37635e-09 -5.93793e-06 0)
(3.11088e-09 -5.94098e-06 0)
(2.8484e-09 -5.94382e-06 0)
(2.58898e-09 -5.94642e-06 0)
(2.33272e-09 -5.94882e-06 0)
(2.07971e-09 -5.95096e-06 0)
(1.83006e-09 -5.9529e-06 0)
(1.58383e-09 -5.95459e-06 0)
(1.34114e-09 -5.95607e-06 0)
(1.10205e-09 -5.95729e-06 0)
(8.66671e-10 -5.95831e-06 0)
(6.35066e-10 -5.95906e-06 0)
(4.07327e-10 -5.9596e-06 0)
(1.83528e-10 -5.95987e-06 0)
(-3.62511e-11 -5.95993e-06 0)
(-2.51937e-10 -5.95973e-06 0)
(-4.63457e-10 -5.95931e-06 0)
(-6.70738e-10 -5.95862e-06 0)
(-8.73717e-10 -5.95772e-06 0)
(-1.07232e-09 -5.95655e-06 0)
(-1.2665e-09 -5.95517e-06 0)
(-1.45617e-09 -5.95351e-06 0)
(-1.6413e-09 -5.95165e-06 0)
(-1.82182e-09 -5.94951e-06 0)
(-1.99768e-09 -5.94717e-06 0)
(-2.16882e-09 -5.94455e-06 0)
(-2.33523e-09 -5.94173e-06 0)
(-2.49674e-09 -5.93864e-06 0)
(-2.65379e-09 -5.93534e-06 0)
(-2.80414e-09 -5.93176e-06 0)
(-2.95537e-09 -5.92801e-06 0)
(-3.11488e-09 -5.92355e-06 0)
(-3.27487e-09 -5.91836e-06 0)
(-3.42889e-09 -5.91288e-06 0)
(-3.57502e-09 -5.90718e-06 0)
(-3.71263e-09 -5.90122e-06 0)
(-3.84187e-09 -5.8951e-06 0)
(-3.96289e-09 -5.88873e-06 0)
(-4.07596e-09 -5.88221e-06 0)
(-4.18126e-09 -5.87547e-06 0)
(-4.27914e-09 -5.86862e-06 0)
(-4.36977e-09 -5.86156e-06 0)
(-4.45345e-09 -5.85441e-06 0)
(-4.53035e-09 -5.84709e-06 0)
(-4.60077e-09 -5.83969e-06 0)
(-4.66485e-09 -5.83214e-06 0)
(-4.72288e-09 -5.82454e-06 0)
(-4.77498e-09 -5.8168e-06 0)
(-4.82144e-09 -5.80903e-06 0)
(-4.86236e-09 -5.80114e-06 0)
(-4.89802e-09 -5.79324e-06 0)
(-4.9285e-09 -5.78524e-06 0)
(-4.95407e-09 -5.77724e-06 0)
(-4.97481e-09 -5.76916e-06 0)
(-4.99096e-09 -5.76109e-06 0)
(-5.0026e-09 -5.75295e-06 0)
(-5.00995e-09 -5.74485e-06 0)
(-5.01308e-09 -5.73669e-06 0)
(-5.01221e-09 -5.72858e-06 0)
(-5.00738e-09 -5.72042e-06 0)
(-4.9988e-09 -5.71233e-06 0)
(-4.98653e-09 -5.7042e-06 0)
(-4.97075e-09 -5.69614e-06 0)
(-4.9515e-09 -5.68807e-06 0)
(-4.92897e-09 -5.68007e-06 0)
(-4.90318e-09 -5.67207e-06 0)
(-4.87431e-09 -5.66416e-06 0)
(-4.84239e-09 -5.65625e-06 0)
(-4.80757e-09 -5.64845e-06 0)
(-4.76988e-09 -5.64065e-06 0)
(-4.72948e-09 -5.63297e-06 0)
(-4.68637e-09 -5.62531e-06 0)
(-4.64072e-09 -5.61776e-06 0)
(-4.59251e-09 -5.61025e-06 0)
(-4.5419e-09 -5.60286e-06 0)
(-4.48888e-09 -5.59551e-06 0)
(-4.4336e-09 -5.58829e-06 0)
(-4.37606e-09 -5.58112e-06 0)
(-4.31638e-09 -5.57409e-06 0)
(-4.25455e-09 -5.56712e-06 0)
(-4.19072e-09 -5.56029e-06 0)
(-4.12485e-09 -5.55352e-06 0)
(-4.05709e-09 -5.5469e-06 0)
(-3.9874e-09 -5.54035e-06 0)
(-3.91592e-09 -5.53396e-06 0)
(-3.84263e-09 -5.52764e-06 0)
(-3.76764e-09 -5.52149e-06 0)
(-3.69094e-09 -5.51542e-06 0)
(-3.61263e-09 -5.50951e-06 0)
(-3.5327e-09 -5.50369e-06 0)
(-3.45125e-09 -5.49804e-06 0)
(-3.36828e-09 -5.49249e-06 0)
(-3.28388e-09 -5.48711e-06 0)
(-3.19804e-09 -5.48183e-06 0)
(-3.11085e-09 -5.47672e-06 0)
(-3.02231e-09 -5.47173e-06 0)
(-2.9325e-09 -5.46691e-06 0)
(-2.84143e-09 -5.4622e-06 0)
(-2.74917e-09 -5.45768e-06 0)
(-2.65572e-09 -5.45327e-06 0)
(-2.56117e-09 -5.44905e-06 0)
(-2.46552e-09 -5.44495e-06 0)
(-2.36884e-09 -5.44104e-06 0)
(-2.27115e-09 -5.43726e-06 0)
(-2.1725e-09 -5.43366e-06 0)
(-2.07292e-09 -5.43019e-06 0)
(-1.97247e-09 -5.42692e-06 0)
(-1.87116e-09 -5.42378e-06 0)
(-1.76906e-09 -5.42083e-06 0)
(-1.66618e-09 -5.41802e-06 0)
(-1.56259e-09 -5.4154e-06 0)
(-1.45831e-09 -5.41294e-06 0)
(-1.35339e-09 -5.41065e-06 0)
(-1.24787e-09 -5.40853e-06 0)
(-1.1418e-09 -5.40659e-06 0)
(-1.03521e-09 -5.40479e-06 0)
(-9.28167e-10 -5.40323e-06 0)
(-8.20715e-10 -5.40168e-06 0)
(-7.1293e-10 -5.4008e-06 0)
(-6.04834e-10 -5.39846e-06 0)
(-4.96607e-10 -5.40166e-06 0)
(-3.88027e-10 -5.38689e-06 0)
(-2.79672e-10 -5.43018e-06 0)
(-1.71661e-10 -5.26725e-06 0)
(-5.73618e-11 -5.69969e-06 0)
(1.39904e-12 -4.9781e-06 0)
)
;
    }
    bottomWall
    {
        type            calculated;
        value           nonuniform List<vector> 
449
(
(-52.6791 -0.95525 0)
(-34.7126 -0.00279741 0)
(-34.3298 -0.000252952 0)
(-32.9725 -0.000362106 0)
(-31.8507 -0.0003144 0)
(-30.8161 -0.000283805 0)
(-29.9001 -0.000248953 0)
(-29.1014 -0.000217065 0)
(-28.4018 -0.000190541 0)
(-27.7833 -0.000168805 0)
(-27.2314 -0.000150816 0)
(-26.7353 -0.000135741 0)
(-26.286 -0.000123109 0)
(-25.8759 -0.000112447 0)
(-25.4993 -0.000103249 0)
(-25.1519 -9.52564e-05 0)
(-24.8298 -8.82759e-05 0)
(-24.53 -8.21495e-05 0)
(-24.2498 -7.67515e-05 0)
(-23.9869 -7.19382e-05 0)
(-23.7395 -6.76202e-05 0)
(-23.5061 -6.37364e-05 0)
(-23.2853 -6.02322e-05 0)
(-23.0759 -5.70525e-05 0)
(-22.8768 -5.4158e-05 0)
(-22.6872 -5.15022e-05 0)
(-22.5064 -4.90681e-05 0)
(-22.3335 -4.68297e-05 0)
(-22.168 -4.47652e-05 0)
(-22.0092 -4.28502e-05 0)
(-21.8569 -4.10747e-05 0)
(-21.7104 -3.94228e-05 0)
(-21.5693 -3.78856e-05 0)
(-21.4334 -3.64447e-05 0)
(-21.3023 -3.50995e-05 0)
(-21.1756 -3.38351e-05 0)
(-21.0531 -3.26528e-05 0)
(-20.9346 -3.1542e-05 0)
(-20.8198 -3.04948e-05 0)
(-20.7085 -2.95077e-05 0)
(-20.6005 -2.85765e-05 0)
(-20.4957 -2.76987e-05 0)
(-20.3937 -2.68648e-05 0)
(-20.2946 -2.60704e-05 0)
(-20.1982 -2.53156e-05 0)
(-20.1043 -2.45899e-05 0)
(-20.0129 -2.38993e-05 0)
(-19.9237 -2.32418e-05 0)
(-19.8369 -2.26046e-05 0)
(-19.7522 -2.20051e-05 0)
(-19.6695 -2.14246e-05 0)
(-19.5888 -2.08738e-05 0)
(-19.5099 -2.03476e-05 0)
(-19.4329 -1.98414e-05 0)
(-19.3576 -1.93595e-05 0)
(-19.2839 -1.88963e-05 0)
(-19.2118 -1.84543e-05 0)
(-19.1412 -1.80295e-05 0)
(-19.072 -1.76225e-05 0)
(-19.0043 -1.72309e-05 0)
(-18.9378 -1.68547e-05 0)
(-18.8727 -1.64927e-05 0)
(-18.8088 -1.61439e-05 0)
(-18.7461 -1.58082e-05 0)
(-18.6845 -1.54847e-05 0)
(-18.6241 -1.51718e-05 0)
(-18.5647 -1.48711e-05 0)
(-18.5063 -1.45781e-05 0)
(-18.449 -1.42975e-05 0)
(-18.3926 -1.40234e-05 0)
(-18.3372 -1.37599e-05 0)
(-18.2826 -1.35034e-05 0)
(-18.229 -1.32552e-05 0)
(-18.1762 -1.3015e-05 0)
(-18.1243 -1.27803e-05 0)
(-18.0731 -1.25546e-05 0)
(-18.0228 -1.2334e-05 0)
(-17.9732 -1.21201e-05 0)
(-17.9243 -1.19129e-05 0)
(-17.8761 -1.17101e-05 0)
(-17.8287 -1.15143e-05 0)
(-17.7819 -1.13233e-05 0)
(-17.7358 -1.11367e-05 0)
(-17.6904 -1.09564e-05 0)
(-17.6456 -1.07796e-05 0)
(-17.6014 -1.06077e-05 0)
(-17.5578 -1.04413e-05 0)
(-17.5147 -1.02775e-05 0)
(-17.4723 -1.01187e-05 0)
(-17.4304 -9.96437e-06 0)
(-17.389 -9.81261e-06 0)
(-17.3482 -9.66532e-06 0)
(-17.3079 -9.52215e-06 0)
(-17.268 -9.38129e-06 0)
(-17.2287 -9.24438e-06 0)
(-17.1899 -9.11131e-06 0)
(-17.1515 -8.98024e-06 0)
(-17.1136 -8.85262e-06 0)
(-17.0761 -8.7287e-06 0)
(-17.0391 -8.60649e-06 0)
(-17.0025 -8.4873e-06 0)
(-16.9663 -8.3716e-06 0)
(-16.9305 -8.25761e-06 0)
(-16.8952 -8.14604e-06 0)
(-16.8602 -8.03762e-06 0)
(-16.8256 -7.93128e-06 0)
(-16.7914 -7.82667e-06 0)
(-16.7575 -7.72475e-06 0)
(-16.724 -7.62535e-06 0)
(-16.6909 -7.52719e-06 0)
(-16.6581 -7.43128e-06 0)
(-16.6256 -7.33796e-06 0)
(-16.5935 -7.24591e-06 0)
(-16.5617 -7.1556e-06 0)
(-16.5302 -7.06747e-06 0)
(-16.4991 -6.98134e-06 0)
(-16.4682 -6.89614e-06 0)
(-16.4377 -6.81291e-06 0)
(-16.4074 -6.7316e-06 0)
(-16.3775 -6.65167e-06 0)
(-16.3478 -6.57288e-06 0)
(-16.3184 -6.49592e-06 0)
(-16.2892 -6.42065e-06 0)
(-16.2604 -6.34635e-06 0)
(-16.2318 -6.27332e-06 0)
(-16.2035 -6.20196e-06 0)
(-16.1754 -6.13198e-06 0)
(-16.1476 -6.06286e-06 0)
(-16.12 -5.99501e-06 0)
(-16.0927 -5.92865e-06 0)
(-16.0656 -5.86345e-06 0)
(-16.0387 -5.79909e-06 0)
(-16.0121 -5.73589e-06 0)
(-15.9857 -5.67403e-06 0)
(-15.9595 -5.61317e-06 0)
(-15.9335 -5.55311e-06 0)
(-15.9078 -5.49411e-06 0)
(-15.8822 -5.43628e-06 0)
(-15.8569 -5.37941e-06 0)
(-15.8318 -5.32324e-06 0)
(-15.8069 -5.26806e-06 0)
(-15.7822 -5.21389e-06 0)
(-15.7576 -5.16066e-06 0)
(-15.7333 -5.10805e-06 0)
(-15.7092 -5.05635e-06 0)
(-15.6852 -5.0055e-06 0)
(-15.6614 -4.95559e-06 0)
(-15.6379 -4.90626e-06 0)
(-15.6145 -4.85769e-06 0)
(-15.5912 -4.80992e-06 0)
(-15.5682 -4.76298e-06 0)
(-15.5453 -4.71671e-06 0)
(-15.5226 -4.67099e-06 0)
(-15.5 -4.62606e-06 0)
(-15.4776 -4.58182e-06 0)
(-15.4554 -4.5383e-06 0)
(-15.4333 -4.4953e-06 0)
(-15.4114 -4.45291e-06 0)
(-15.3897 -4.41123e-06 0)
(-15.3681 -4.37015e-06 0)
(-15.3466 -4.32969e-06 0)
(-15.3253 -4.28966e-06 0)
(-15.3041 -4.25031e-06 0)
(-15.2831 -4.21151e-06 0)
(-15.2622 -4.17331e-06 0)
(-15.2415 -4.13557e-06 0)
(-15.2209 -4.09836e-06 0)
(-15.2005 -4.06163e-06 0)
(-15.1801 -4.02562e-06 0)
(-15.16 -3.98978e-06 0)
(-15.1399 -3.95476e-06 0)
(-15.12 -3.91989e-06 0)
(-15.1002 -3.88323e-06 0)
(-15.0816 -3.85303e-06 0)
(-15.0641 -3.82632e-06 0)
(-15.0466 -3.79541e-06 0)
(-15.0291 -3.76514e-06 0)
(-15.0114 -3.73548e-06 0)
(-14.9938 -3.70574e-06 0)
(-14.976 -3.67635e-06 0)
(-14.9583 -3.64698e-06 0)
(-14.9405 -3.61781e-06 0)
(-14.9226 -3.58871e-06 0)
(-14.9047 -3.55979e-06 0)
(-14.8867 -3.53096e-06 0)
(-14.8687 -3.50226e-06 0)
(-14.8506 -3.47365e-06 0)
(-14.8325 -3.44516e-06 0)
(-14.8144 -3.41681e-06 0)
(-14.7962 -3.38859e-06 0)
(-14.7779 -3.36046e-06 0)
(-14.7596 -3.33247e-06 0)
(-14.7413 -3.30457e-06 0)
(-14.7229 -3.27684e-06 0)
(-14.7045 -3.24921e-06 0)
(-14.686 -3.22171e-06 0)
(-14.6675 -3.19433e-06 0)
(-14.649 -3.16706e-06 0)
(-14.6304 -3.13995e-06 0)
(-14.6118 -3.11297e-06 0)
(-14.5931 -3.08611e-06 0)
(-14.5744 -3.05937e-06 0)
(-14.5556 -3.03275e-06 0)
(-14.5369 -3.00631e-06 0)
(-14.518 -2.97996e-06 0)
(-14.4992 -2.95378e-06 0)
(-14.4803 -2.92769e-06 0)
(-14.4613 -2.90177e-06 0)
(-14.4424 -2.87598e-06 0)
(-14.4233 -2.85033e-06 0)
(-14.4043 -2.82482e-06 0)
(-14.3852 -2.79941e-06 0)
(-14.3661 -2.7742e-06 0)
(-14.347 -2.74908e-06 0)
(-14.3278 -2.72415e-06 0)
(-14.3086 -2.6993e-06 0)
(-14.2893 -2.67464e-06 0)
(-14.2701 -2.65009e-06 0)
(-14.2508 -2.62571e-06 0)
(-14.2314 -2.60145e-06 0)
(-14.2121 -2.57734e-06 0)
(-14.1927 -2.55337e-06 0)
(-14.1733 -2.52956e-06 0)
(-14.1538 -2.50587e-06 0)
(-14.1344 -2.48235e-06 0)
(-14.1149 -2.45894e-06 0)
(-14.0953 -2.43572e-06 0)
(-14.0758 -2.41261e-06 0)
(-14.0562 -2.38968e-06 0)
(-14.0366 -2.36686e-06 0)
(-14.017 -2.34422e-06 0)
(-13.9973 -2.32169e-06 0)
(-13.9777 -2.29935e-06 0)
(-13.958 -2.27711e-06 0)
(-13.9383 -2.25506e-06 0)
(-13.9185 -2.23312e-06 0)
(-13.8988 -2.21137e-06 0)
(-13.879 -2.18972e-06 0)
(-13.8592 -2.16826e-06 0)
(-13.8394 -2.14691e-06 0)
(-13.8196 -2.12575e-06 0)
(-13.7997 -2.1047e-06 0)
(-13.7799 -2.08383e-06 0)
(-13.76 -2.06307e-06 0)
(-13.7401 -2.0425e-06 0)
(-13.7202 -2.02204e-06 0)
(-13.7003 -2.00176e-06 0)
(-13.6803 -1.98159e-06 0)
(-13.6604 -1.96162e-06 0)
(-13.6404 -1.94175e-06 0)
(-13.6204 -1.92206e-06 0)
(-13.6004 -1.90249e-06 0)
(-13.5804 -1.88309e-06 0)
(-13.5604 -1.86382e-06 0)
(-13.5404 -1.8447e-06 0)
(-13.5204 -1.82573e-06 0)
(-13.5003 -1.80691e-06 0)
(-13.4803 -1.78823e-06 0)
(-13.4602 -1.76969e-06 0)
(-13.4402 -1.7513e-06 0)
(-13.4201 -1.73306e-06 0)
(-13.4 -1.71497e-06 0)
(-13.3799 -1.697e-06 0)
(-13.3598 -1.6792e-06 0)
(-13.3398 -1.66153e-06 0)
(-13.3197 -1.64401e-06 0)
(-13.2996 -1.62661e-06 0)
(-13.2794 -1.60939e-06 0)
(-13.2593 -1.59228e-06 0)
(-13.2392 -1.57534e-06 0)
(-13.2191 -1.5585e-06 0)
(-13.199 -1.54184e-06 0)
(-13.1789 -1.52529e-06 0)
(-13.1588 -1.50892e-06 0)
(-13.1387 -1.49264e-06 0)
(-13.1185 -1.47654e-06 0)
(-13.0984 -1.46054e-06 0)
(-13.0783 -1.44472e-06 0)
(-13.0582 -1.42898e-06 0)
(-13.0381 -1.41344e-06 0)
(-13.018 -1.39799e-06 0)
(-12.9979 -1.38271e-06 0)
(-12.9778 -1.36751e-06 0)
(-12.9577 -1.35251e-06 0)
(-12.9376 -1.33759e-06 0)
(-12.9176 -1.32284e-06 0)
(-12.8975 -1.30818e-06 0)
(-12.8774 -1.29371e-06 0)
(-12.8574 -1.27932e-06 0)
(-12.8373 -1.26509e-06 0)
(-12.8173 -1.25096e-06 0)
(-12.7972 -1.23701e-06 0)
(-12.7772 -1.22313e-06 0)
(-12.7572 -1.20942e-06 0)
(-12.7372 -1.1958e-06 0)
(-12.7172 -1.18235e-06 0)
(-12.6972 -1.16898e-06 0)
(-12.6772 -1.15577e-06 0)
(-12.6573 -1.14266e-06 0)
(-12.6373 -1.1297e-06 0)
(-12.6174 -1.11683e-06 0)
(-12.5974 -1.10411e-06 0)
(-12.5775 -1.0915e-06 0)
(-12.5576 -1.07901e-06 0)
(-12.5377 -1.06663e-06 0)
(-12.5179 -1.05439e-06 0)
(-12.498 -1.04226e-06 0)
(-12.4782 -1.03024e-06 0)
(-12.4583 -1.01834e-06 0)
(-12.4385 -1.00656e-06 0)
(-12.4187 -9.94892e-07 0)
(-12.399 -9.83335e-07 0)
(-12.3792 -9.71904e-07 0)
(-12.3595 -9.60575e-07 0)
(-12.3398 -9.49358e-07 0)
(-12.3201 -9.38254e-07 0)
(-12.3004 -9.27273e-07 0)
(-12.2807 -9.16384e-07 0)
(-12.2611 -9.05614e-07 0)
(-12.2414 -8.94949e-07 0)
(-12.2218 -8.84404e-07 0)
(-12.2023 -8.73941e-07 0)
(-12.1827 -8.63608e-07 0)
(-12.1632 -8.53366e-07 0)
(-12.1436 -8.43244e-07 0)
(-12.1241 -8.332e-07 0)
(-12.1047 -8.23291e-07 0)
(-12.0852 -8.13455e-07 0)
(-12.0658 -8.03742e-07 0)
(-12.0464 -7.94109e-07 0)
(-12.027 -7.84607e-07 0)
(-12.0077 -7.75166e-07 0)
(-11.9883 -7.65861e-07 0)
(-11.969 -7.56623e-07 0)
(-11.9498 -7.47511e-07 0)
(-11.9305 -7.38457e-07 0)
(-11.9113 -7.29542e-07 0)
(-11.8921 -7.20688e-07 0)
(-11.8729 -7.11955e-07 0)
(-11.8538 -7.03287e-07 0)
(-11.8346 -6.94744e-07 0)
(-11.8155 -6.86258e-07 0)
(-11.7965 -6.7789e-07 0)
(-11.7774 -6.69591e-07 0)
(-11.7584 -6.61402e-07 0)
(-11.7395 -6.53278e-07 0)
(-11.7205 -6.45266e-07 0)
(-11.7016 -6.37313e-07 0)
(-11.6827 -6.29482e-07 0)
(-11.6638 -6.21663e-07 0)
(-11.645 -6.14037e-07 0)
(-11.6262 -6.06294e-07 0)
(-11.6075 -5.98876e-07 0)
(-11.5887 -5.91688e-07 0)
(-11.5679 -5.83025e-07 0)
(-11.5453 -5.73792e-07 0)
(-11.523 -5.65494e-07 0)
(-11.501 -5.57374e-07 0)
(-11.4794 -5.49324e-07 0)
(-11.458 -5.4148e-07 0)
(-11.437 -5.33811e-07 0)
(-11.4162 -5.26314e-07 0)
(-11.3958 -5.19014e-07 0)
(-11.3756 -5.11856e-07 0)
(-11.3557 -5.04897e-07 0)
(-11.3361 -4.98075e-07 0)
(-11.3167 -4.91435e-07 0)
(-11.2976 -4.84924e-07 0)
(-11.2787 -4.78587e-07 0)
(-11.2601 -4.72366e-07 0)
(-11.2418 -4.66313e-07 0)
(-11.2236 -4.60369e-07 0)
(-11.2057 -4.54575e-07 0)
(-11.188 -4.48892e-07 0)
(-11.1706 -4.43345e-07 0)
(-11.1533 -4.37902e-07 0)
(-11.1363 -4.32589e-07 0)
(-11.1194 -4.27378e-07 0)
(-11.1028 -4.22279e-07 0)
(-11.0864 -4.17282e-07 0)
(-11.0702 -4.12395e-07 0)
(-11.0541 -4.076e-07 0)
(-11.0383 -4.0291e-07 0)
(-11.0226 -3.98304e-07 0)
(-11.0071 -3.93801e-07 0)
(-10.9917 -3.89378e-07 0)
(-10.9766 -3.85051e-07 0)
(-10.9616 -3.80798e-07 0)
(-10.9468 -3.76639e-07 0)
(-10.9321 -3.72547e-07 0)
(-10.9176 -3.68547e-07 0)
(-10.9033 -3.64608e-07 0)
(-10.8891 -3.60757e-07 0)
(-10.875 -3.56966e-07 0)
(-10.8611 -3.53258e-07 0)
(-10.8474 -3.49604e-07 0)
(-10.8338 -3.46032e-07 0)
(-10.8203 -3.42511e-07 0)
(-10.807 -3.39069e-07 0)
(-10.7937 -3.35672e-07 0)
(-10.7807 -3.32351e-07 0)
(-10.7677 -3.29079e-07 0)
(-10.7549 -3.25873e-07 0)
(-10.7422 -3.22713e-07 0)
(-10.7297 -3.19618e-07 0)
(-10.7172 -3.16576e-07 0)
(-10.7049 -3.13579e-07 0)
(-10.6926 -3.10638e-07 0)
(-10.6806 -3.07748e-07 0)
(-10.6685 -3.04913e-07 0)
(-10.6567 -3.02115e-07 0)
(-10.6449 -2.99369e-07 0)
(-10.6333 -2.96671e-07 0)
(-10.6217 -2.94019e-07 0)
(-10.6102 -2.91409e-07 0)
(-10.5989 -2.8884e-07 0)
(-10.5876 -2.86327e-07 0)
(-10.5764 -2.83831e-07 0)
(-10.5654 -2.81424e-07 0)
(-10.5544 -2.78987e-07 0)
(-10.5436 -2.76685e-07 0)
(-10.5328 -2.74292e-07 0)
(-10.5221 -2.72129e-07 0)
(-10.5115 -2.69747e-07 0)
(-10.501 -2.67742e-07 0)
(-10.4905 -2.65354e-07 0)
(-10.4802 -2.63533e-07 0)
(-10.4699 -2.61096e-07 0)
(-10.4598 -2.59507e-07 0)
(-10.4496 -2.56978e-07 0)
(-10.4397 -2.55661e-07 0)
(-10.4295 -2.53022e-07 0)
(-10.4199 -2.52005e-07 0)
(-10.4098 -2.49247e-07 0)
(-10.4003 -2.48518e-07 0)
(-10.3904 -2.45733e-07 0)
(-10.3811 -2.45135e-07 0)
(-10.3712 -2.42693e-07 0)
(-10.3621 -2.41632e-07 0)
(-10.3523 -2.40671e-07 0)
(-10.3433 -2.37224e-07 0)
(-10.3337 -2.41294e-07 0)
(-10.3244 -2.29181e-07 0)
(-10.3158 -2.49586e-07 0)
(-10.3048 -2.11474e-07 0)
(-10.2994 -2.68086e-07 0)
(-10.2836 -1.75081e-07 0)
(-10.2859 -2.4425e-07 0)
(-10.264 -2.87593e-07 0)
)
;
    }
    symmetry
    {
        type            symmetryPlane;
    }
    frontAndBack
    {
        type            empty;
    }
}


// ************************************************************************* //
