/*--------------------------------*- C++ -*----------------------------------*\
| =========                 |                                                 |
| \\      /  F ield         | OpenFOAM: The Open Source CFD Toolbox           |
|  \\    /   O peration     | Version:  v2012                                 |
|   \\  /    A nd           | Website:  www.openfoam.com                      |
|    \\/     M anipulation  |                                                 |
\*---------------------------------------------------------------------------*/
FoamFile
{
    version     2.0;
    format      ascii;
    class       volScalarField;
    location    "60";
    object      yPlus;
}
// * * * * * * * * * * * * * * * * * * * * * * * * * * * * * * * * * * * * * //

dimensions      [0 0 0 0 0 0 0];


internalField   uniform 0;

boundaryField
{
    inlet
    {
        type            calculated;
        value           uniform 0;
    }
    outlet
    {
        type            calculated;
        value           uniform 0;
    }
    topWall
    {
        type            calculated;
        value           nonuniform List<scalar> 
545
(
0.153817
0.265236
0.340261
0.399966
0.45051
0.494735
0.534236
0.570019
0.602766
0.63297
0.660998
0.687137
0.711611
0.734604
0.756269
0.776732
0.796101
0.814469
0.831917
0.848516
0.864327
0.879407
0.893803
0.907562
0.920722
0.933321
0.945391
0.956963
0.968064
0.978721
0.988957
0.998793
1.00825
1.01735
1.0261
1.03453
1.04265
1.05047
1.05801
1.06528
1.07229
1.07905
1.08558
1.09188
1.09797
1.10384
1.10952
1.11501
1.12031
1.12544
1.13039
1.13519
1.13982
1.14431
1.14865
1.15285
1.15692
1.16086
1.16467
1.16837
1.17195
1.17541
1.17877
1.18202
1.18518
1.18823
1.1912
1.19407
1.19686
1.19956
1.20218
1.20472
1.20715
1.20951
1.21184
1.21416
1.21646
1.21874
1.221
1.22324
1.22547
1.22768
1.22987
1.23204
1.2342
1.23634
1.23846
1.24057
1.24266
1.24473
1.24679
1.24884
1.25086
1.25287
1.25487
1.25685
1.25863
1.26023
1.26182
1.26342
1.26501
1.26661
1.2682
1.26979
1.27139
1.27298
1.27457
1.27617
1.27776
1.27935
1.28094
1.28253
1.28412
1.28571
1.2873
1.28889
1.29048
1.29207
1.29366
1.29524
1.29683
1.29842
1.3
1.30159
1.30317
1.30476
1.30634
1.30793
1.30951
1.31109
1.31267
1.31425
1.31583
1.31741
1.31899
1.32057
1.32215
1.32373
1.3253
1.32688
1.32845
1.33003
1.3316
1.33317
1.33474
1.33632
1.33789
1.33946
1.34102
1.34259
1.34416
1.34573
1.34729
1.34886
1.35042
1.35198
1.35354
1.35511
1.35667
1.35822
1.35978
1.36134
1.3629
1.36445
1.36601
1.36756
1.36911
1.37066
1.37221
1.37376
1.37531
1.37685
1.3784
1.37994
1.38149
1.38303
1.38457
1.38611
1.38765
1.38919
1.39072
1.39226
1.39379
1.39532
1.39685
1.39838
1.39991
1.40144
1.40296
1.40449
1.40601
1.40753
1.40905
1.41057
1.41209
1.4136
1.41512
1.41663
1.41814
1.41965
1.42116
1.42266
1.42417
1.42567
1.42717
1.42867
1.43017
1.43167
1.43316
1.43465
1.43615
1.43764
1.43912
1.44061
1.44209
1.44358
1.44506
1.44654
1.44801
1.44949
1.45096
1.45243
1.4539
1.45537
1.45684
1.4583
1.45976
1.46122
1.46268
1.46413
1.46559
1.46704
1.46849
1.46994
1.47138
1.47282
1.47426
1.4757
1.47714
1.47857
1.48
1.48143
1.48286
1.48429
1.48571
1.48713
1.48855
1.48996
1.49137
1.49279
1.49419
1.4956
1.497
1.4984
1.4998
1.5012
1.50259
1.50398
1.50537
1.50675
1.50814
1.50952
1.51089
1.51227
1.51364
1.51501
1.51638
1.51774
1.5191
1.52038
1.52159
1.52281
1.52404
1.52527
1.52652
1.52777
1.52903
1.53029
1.53157
1.53285
1.53415
1.53545
1.53675
1.53807
1.5394
1.54073
1.54207
1.54342
1.54477
1.54614
1.54751
1.54889
1.55028
1.55167
1.55308
1.55449
1.5559
1.55733
1.55876
1.5602
1.56165
1.5631
1.56457
1.56603
1.56751
1.56899
1.57048
1.57198
1.57348
1.57499
1.5765
1.57802
1.57955
1.58108
1.58262
1.58416
1.58571
1.58727
1.58883
1.59039
1.59197
1.59354
1.59512
1.5967
1.59829
1.59989
1.60148
1.60308
1.60469
1.60629
1.6079
1.60952
1.61113
1.61275
1.61437
1.616
1.61762
1.61925
1.62088
1.6225
1.62413
1.62576
1.62739
1.62903
1.63066
1.63229
1.63391
1.63554
1.63717
1.63879
1.64042
1.64204
1.64365
1.64527
1.64688
1.64849
1.65009
1.65169
1.65328
1.65487
1.65646
1.65803
1.6596
1.66117
1.66273
1.66428
1.66582
1.66735
1.66888
1.6704
1.6719
1.6734
1.67489
1.67636
1.67783
1.67928
1.68072
1.68215
1.68356
1.68496
1.68635
1.68772
1.68908
1.69042
1.69175
1.69306
1.69435
1.69563
1.69689
1.69813
1.69935
1.70055
1.70173
1.7029
1.70404
1.70516
1.70626
1.70733
1.70839
1.70942
1.71042
1.71141
1.71236
1.7133
1.71421
1.71509
1.71595
1.71678
1.71758
1.71835
1.7191
1.71982
1.7205
1.72116
1.72179
1.72239
1.72296
1.7235
1.72401
1.72449
1.72493
1.72534
1.72572
1.72607
1.72638
1.72667
1.72691
1.72713
1.72731
1.72746
1.72757
1.72764
1.72769
1.7277
1.72767
1.72761
1.72751
1.72738
1.72721
1.72701
1.72677
1.7265
1.7262
1.72586
1.72548
1.72507
1.72462
1.72414
1.72363
1.72308
1.72243
1.72168
1.72088
1.72006
1.71919
1.7183
1.71737
1.71642
1.71544
1.71444
1.71341
1.71236
1.71129
1.71021
1.7091
1.70799
1.70686
1.70572
1.70456
1.7034
1.70222
1.70105
1.69986
1.69867
1.69747
1.69627
1.69507
1.69387
1.69266
1.69147
1.69026
1.68907
1.68787
1.68669
1.6855
1.68432
1.68315
1.68199
1.68083
1.67968
1.67854
1.67741
1.67629
1.67519
1.67409
1.67301
1.67194
1.67088
1.66984
1.66881
1.6678
1.6668
1.66582
1.66486
1.66391
1.66298
1.66207
1.66118
1.6603
1.65945
1.65861
1.6578
1.657
1.65623
1.65547
1.65474
1.65403
1.65335
1.65268
1.65204
1.65142
1.65082
1.65025
1.6497
1.64918
1.64868
1.64821
1.64776
1.64733
1.64693
1.64656
1.64621
1.64589
1.64559
1.64532
1.64508
1.64486
1.64467
1.6445
1.64436
1.64425
1.64417
1.64411
1.64409
1.64407
)
;
    }
    bottomWall
    {
        type            calculated;
        value           nonuniform List<scalar> 
449
(
0.00273647
0.0047966
0.00537185
0.00532538
0.00525501
0.00515929
0.00506207
0.00497108
0.00488756
0.00481124
0.0047414
0.00467737
0.00461843
0.00456386
0.00451314
0.00446588
0.00442167
0.00438019
0.00434112
0.00430422
0.0042693
0.00423618
0.00420468
0.00417466
0.00414601
0.00411861
0.00409237
0.00406719
0.00404301
0.00401975
0.00399736
0.00397576
0.00395492
0.00393477
0.0039153
0.00389643
0.00387816
0.00386044
0.00384324
0.00382652
0.00381028
0.00379447
0.00377908
0.00376409
0.00374948
0.00373523
0.00372134
0.00370778
0.00369454
0.00368162
0.00366898
0.00365664
0.00364456
0.00363275
0.00362118
0.00360986
0.00359875
0.00358788
0.00357721
0.00356675
0.00355647
0.00354639
0.00353649
0.00352677
0.00351721
0.00350782
0.00349858
0.0034895
0.00348056
0.00347177
0.00346312
0.0034546
0.00344622
0.00343796
0.00342982
0.00342181
0.00341391
0.00340612
0.00339845
0.00339088
0.00338342
0.00337606
0.0033688
0.00336164
0.00335457
0.00334759
0.00334071
0.00333391
0.00332719
0.00332056
0.00331402
0.00330755
0.00330116
0.00329484
0.00328861
0.00328244
0.00327634
0.00327032
0.00326436
0.00325846
0.00325264
0.00324687
0.00324117
0.00323553
0.00322995
0.00322443
0.00321897
0.00321356
0.0032082
0.0032029
0.00319766
0.00319246
0.00318732
0.00318222
0.00317718
0.00317218
0.00316723
0.00316233
0.00315747
0.00315265
0.00314788
0.00314316
0.00313847
0.00313383
0.00312922
0.00312466
0.00312014
0.00311565
0.0031112
0.0031068
0.00310242
0.00309809
0.00309378
0.00308952
0.00308529
0.00308109
0.00307693
0.00307279
0.00306869
0.00306463
0.00306059
0.00305659
0.00305261
0.00304866
0.00304475
0.00304086
0.003037
0.00303317
0.00302937
0.0030256
0.00302185
0.00301813
0.00301443
0.00301076
0.00300712
0.0030035
0.00299991
0.00299634
0.00299279
0.00298927
0.00298577
0.00298229
0.00297884
0.00297541
0.002972
0.00296862
0.00296525
0.00296191
0.00295859
0.00295529
0.00295201
0.00294875
0.00294551
0.00294246
0.00293961
0.00293674
0.00293386
0.00293097
0.00292808
0.00292517
0.00292226
0.00291933
0.0029164
0.00291346
0.00291051
0.00290755
0.00290459
0.00290161
0.00289863
0.00289564
0.00289264
0.00288963
0.00288661
0.00288359
0.00288055
0.00287751
0.00287446
0.00287141
0.00286835
0.00286527
0.0028622
0.00285911
0.00285602
0.00285292
0.00284981
0.00284669
0.00284357
0.00284044
0.00283731
0.00283416
0.00283101
0.00282786
0.0028247
0.00282153
0.00281835
0.00281517
0.00281198
0.00280879
0.00280559
0.00280239
0.00279917
0.00279596
0.00279273
0.00278951
0.00278627
0.00278303
0.00277979
0.00277654
0.00277329
0.00277003
0.00276676
0.00276349
0.00276022
0.00275694
0.00275366
0.00275037
0.00274708
0.00274378
0.00274048
0.00273718
0.00273387
0.00273056
0.00272724
0.00272392
0.0027206
0.00271727
0.00271394
0.0027106
0.00270727
0.00270392
0.00270058
0.00269723
0.00269388
0.00269053
0.00268718
0.00268382
0.00268046
0.00267709
0.00267373
0.00267036
0.00266699
0.00266361
0.00266024
0.00265686
0.00265349
0.0026501
0.00264672
0.00264334
0.00263995
0.00263657
0.00263318
0.00262979
0.0026264
0.002623
0.00261961
0.00261622
0.00261282
0.00260943
0.00260603
0.00260263
0.00259924
0.00259584
0.00259244
0.00258904
0.00258564
0.00258224
0.00257884
0.00257544
0.00257205
0.00256865
0.00256525
0.00256185
0.00255845
0.00255505
0.00255166
0.00254826
0.00254486
0.00254147
0.00253807
0.00253468
0.00253129
0.0025279
0.00252451
0.00252112
0.00251773
0.00251435
0.00251096
0.00250758
0.00250419
0.00250082
0.00249744
0.00249406
0.00249069
0.00248731
0.00248394
0.00248057
0.00247721
0.00247384
0.00247048
0.00246712
0.00246376
0.00246041
0.00245706
0.00245371
0.00245036
0.00244702
0.00244367
0.00244034
0.002437
0.00243367
0.00243034
0.00242701
0.00242369
0.00242037
0.00241705
0.00241374
0.00241043
0.00240712
0.00240382
0.00240052
0.00239722
0.00239393
0.00239064
0.00238736
0.00238408
0.0023808
0.00237753
0.00237426
0.00237099
0.00236773
0.00236448
0.00236122
0.00235798
0.00235473
0.00235113
0.00234721
0.00234334
0.00233953
0.00233577
0.00233207
0.00232841
0.00232481
0.00232126
0.00231775
0.00231429
0.00231088
0.00230751
0.00230418
0.0023009
0.00229766
0.00229446
0.0022913
0.00228818
0.00228509
0.00228205
0.00227904
0.00227607
0.00227313
0.00227023
0.00226736
0.00226452
0.00226171
0.00225895
0.0022562
0.00225349
0.00225081
0.00224816
0.00224553
0.00224294
0.00224037
0.00223783
0.00223531
0.00223283
0.00223036
0.00222793
0.00222551
0.00222313
0.00222076
0.00221842
0.0022161
0.00221381
0.00221153
0.00220929
0.00220705
0.00220485
0.00220265
0.00220049
0.00219834
0.00219621
0.0021941
0.00219201
0.00218994
0.00218789
0.00218585
0.00218383
0.00218183
0.00217985
0.00217788
0.00217593
0.002174
0.00217208
0.00217018
0.0021683
0.00216642
0.00216457
0.00216272
0.00216091
0.00215908
0.0021573
0.00215549
0.00215375
0.00215196
0.00215025
0.00214847
0.0021468
0.00214503
0.00214341
0.00214164
0.00214006
0.00213829
0.00213674
0.00213498
0.00213343
0.00213177
0.00213005
0.00212873
0.00212649
0.00212614
0.00212289
)
;
    }
    symmetry
    {
        type            symmetryPlane;
    }
    frontAndBack
    {
        type            empty;
    }
}


// ************************************************************************* //
