/*--------------------------------*- C++ -*----------------------------------*\
| =========                 |                                                 |
| \\      /  F ield         | OpenFOAM: The Open Source CFD Toolbox           |
|  \\    /   O peration     | Version:  v2012                                 |
|   \\  /    A nd           | Website:  www.openfoam.com                      |
|    \\/     M anipulation  |                                                 |
\*---------------------------------------------------------------------------*/
FoamFile
{
    version     2.0;
    format      ascii;
    class       volScalarField;
    location    "46.5";
    object      epsilon;
}
// * * * * * * * * * * * * * * * * * * * * * * * * * * * * * * * * * * * * * //

dimensions      [0 2 -3 0 0 0 0];


internalField   nonuniform List<scalar> 
209825
(
0.758886
0.633794
0.546508
0.486594
0.444827
0.414894
0.392722
0.375861
0.362672
0.352178
0.343626
0.336594
0.330683
0.325704
0.321411
0.317733
0.314496
0.311687
0.309172
0.30697
0.304968
0.303205
0.301578
0.30014
0.298798
0.297611
0.296488
0.295495
0.294546
0.293711
0.292899
0.292189
0.291493
0.290888
0.290285
0.289766
0.289245
0.288799
0.288343
0.287958
0.287558
0.287224
0.286877
0.286592
0.286284
0.286034
0.285769
0.285555
0.285316
0.285129
0.284933
0.284761
0.284588
0.284434
0.284298
0.284178
0.284031
0.283939
0.283822
0.283725
0.283657
0.283577
0.283521
0.283454
0.283419
0.283359
0.283348
0.283337
0.283308
0.283312
0.283303
0.283334
0.283334
0.283394
0.283395
0.283469
0.283486
0.28357
0.2836
0.283693
0.283734
0.283844
0.2839
0.284032
0.284102
0.284262
0.284349
0.284544
0.284647
0.284893
0.285005
0.285367
0.285495
0.288927
3.02361
558.301
0.758886
0.633795
0.546507
0.486591
0.444821
0.414886
0.392712
0.37585
0.36266
0.352164
0.343612
0.336579
0.330668
0.325688
0.321395
0.317716
0.314479
0.31167
0.309155
0.306953
0.30495
0.303187
0.30156
0.300122
0.29878
0.297592
0.296469
0.295476
0.294527
0.293692
0.29288
0.29217
0.291473
0.290869
0.290266
0.289747
0.289226
0.28878
0.288323
0.287938
0.287538
0.287205
0.286857
0.286572
0.286264
0.286014
0.285749
0.285535
0.285296
0.285109
0.284913
0.284741
0.284568
0.284414
0.284278
0.284158
0.284011
0.283919
0.283802
0.283705
0.283637
0.283556
0.283501
0.283434
0.283399
0.283339
0.283327
0.283317
0.283288
0.283291
0.283283
0.283314
0.283314
0.283373
0.283375
0.283448
0.283466
0.28355
0.283579
0.283672
0.283714
0.283823
0.283879
0.284011
0.284081
0.284241
0.284329
0.284523
0.284627
0.284872
0.284984
0.285346
0.285474
0.288912
3.02909
554.995
0.758888
0.633794
0.546498
0.486572
0.444792
0.414849
0.392668
0.3758
0.362606
0.352106
0.343551
0.336516
0.330602
0.325621
0.321326
0.317646
0.314407
0.311598
0.309082
0.306878
0.304875
0.303111
0.301483
0.300045
0.298702
0.297514
0.296391
0.295397
0.294448
0.293612
0.292801
0.29209
0.291393
0.290788
0.290185
0.289665
0.289145
0.288698
0.288242
0.287856
0.287456
0.287122
0.286775
0.28649
0.286181
0.285931
0.285666
0.285452
0.285213
0.285025
0.28483
0.284657
0.284484
0.28433
0.284194
0.284074
0.283926
0.283835
0.283717
0.283621
0.283552
0.283472
0.283416
0.283349
0.283314
0.283254
0.283242
0.283232
0.283203
0.283206
0.283197
0.283228
0.283228
0.283288
0.283289
0.283362
0.283379
0.283463
0.283493
0.283586
0.283627
0.283737
0.283792
0.283924
0.283994
0.284154
0.284241
0.284436
0.284539
0.284785
0.284896
0.285258
0.285385
0.288834
3.04094
551.113
0.758891
0.633794
0.546484
0.48654
0.444744
0.414786
0.392594
0.375717
0.362514
0.352009
0.343449
0.336409
0.330492
0.325507
0.32121
0.317527
0.314287
0.311475
0.308957
0.306753
0.304749
0.302983
0.301354
0.299915
0.298571
0.297383
0.296258
0.295264
0.294315
0.293478
0.292666
0.291954
0.291257
0.290652
0.290048
0.289528
0.289007
0.28856
0.288103
0.287718
0.287317
0.286983
0.286635
0.28635
0.286042
0.285791
0.285526
0.285311
0.285072
0.284884
0.284689
0.284516
0.284342
0.284188
0.284052
0.283932
0.283784
0.283692
0.283575
0.283478
0.283409
0.283329
0.283273
0.283206
0.283171
0.28311
0.283098
0.283088
0.283059
0.283062
0.283053
0.283083
0.283083
0.283143
0.283144
0.283217
0.283234
0.283318
0.283347
0.28344
0.283481
0.28359
0.283646
0.283777
0.283848
0.284007
0.284094
0.284288
0.284391
0.284636
0.284748
0.285109
0.285236
0.288701
3.05958
547.428
0.758895
0.633793
0.546464
0.486494
0.444675
0.414697
0.392489
0.375598
0.362386
0.351871
0.343304
0.336258
0.330336
0.325347
0.321046
0.317359
0.314116
0.311302
0.308782
0.306576
0.304569
0.302802
0.301172
0.299732
0.298387
0.297197
0.296071
0.295076
0.294126
0.293288
0.292475
0.291763
0.291065
0.29046
0.289855
0.289335
0.288813
0.288366
0.287908
0.287522
0.287121
0.286787
0.286439
0.286153
0.285844
0.285593
0.285327
0.285113
0.284873
0.284685
0.284489
0.284316
0.284142
0.283988
0.283852
0.283731
0.283583
0.283491
0.283374
0.283277
0.283208
0.283127
0.283071
0.283004
0.282968
0.282908
0.282895
0.282885
0.282856
0.282858
0.282849
0.282879
0.282879
0.282938
0.282939
0.283011
0.283029
0.283112
0.283141
0.283234
0.283275
0.283384
0.283439
0.28357
0.28364
0.283799
0.283886
0.284079
0.284182
0.284427
0.284538
0.284899
0.285026
0.288513
3.08548
544.287
0.7589
0.633793
0.546437
0.486436
0.444586
0.414582
0.392352
0.375445
0.362218
0.351693
0.343116
0.336062
0.330133
0.325139
0.320832
0.317142
0.313895
0.311078
0.308555
0.306346
0.304337
0.302568
0.300936
0.299494
0.298147
0.296956
0.295829
0.294833
0.293881
0.293042
0.292228
0.291515
0.290817
0.29021
0.289605
0.289084
0.288561
0.288113
0.287655
0.287269
0.286867
0.286532
0.286183
0.285897
0.285588
0.285337
0.28507
0.284855
0.284615
0.284427
0.284231
0.284057
0.283883
0.283729
0.283592
0.283471
0.283323
0.283231
0.283113
0.283015
0.282946
0.282865
0.282809
0.282741
0.282705
0.282645
0.282632
0.282621
0.282592
0.282594
0.282585
0.282614
0.282614
0.282672
0.282673
0.282745
0.282762
0.282845
0.282874
0.282966
0.283007
0.283116
0.28317
0.283301
0.283371
0.28353
0.283616
0.283809
0.283912
0.284156
0.284267
0.284626
0.284753
0.288269
3.11913
541.856
0.758906
0.633792
0.546405
0.486363
0.444476
0.41444
0.392185
0.375256
0.362013
0.351473
0.342885
0.335821
0.329884
0.324882
0.32057
0.316874
0.313623
0.310801
0.308275
0.306063
0.304051
0.302279
0.300645
0.2992
0.297852
0.296659
0.29553
0.294532
0.293579
0.292739
0.291924
0.29121
0.29051
0.289902
0.289296
0.288774
0.288251
0.287802
0.287343
0.286956
0.286554
0.286218
0.285869
0.285582
0.285272
0.285021
0.284753
0.284538
0.284298
0.284109
0.283912
0.283738
0.283564
0.283409
0.283271
0.28315
0.283002
0.282909
0.282791
0.282693
0.282624
0.282542
0.282485
0.282418
0.282382
0.282321
0.282308
0.282297
0.282267
0.282269
0.282259
0.282287
0.282287
0.282345
0.282345
0.282417
0.282434
0.282517
0.282545
0.282637
0.282677
0.282785
0.28284
0.28297
0.283039
0.283197
0.283283
0.283475
0.283578
0.283821
0.283931
0.284291
0.284416
0.287969
3.16103
540.197
0.758914
0.633791
0.546367
0.486278
0.444345
0.414272
0.391985
0.375032
0.361768
0.351211
0.342609
0.335534
0.329587
0.324577
0.320257
0.316555
0.313298
0.310472
0.307941
0.305725
0.30371
0.301935
0.300298
0.298851
0.2975
0.296305
0.295174
0.294175
0.29322
0.292378
0.291562
0.290846
0.290145
0.289536
0.288929
0.288406
0.287881
0.287432
0.286972
0.286584
0.28618
0.285844
0.285494
0.285207
0.284896
0.284644
0.284376
0.28416
0.283919
0.28373
0.283532
0.283358
0.283183
0.283028
0.28289
0.282768
0.28262
0.282526
0.282408
0.28231
0.282239
0.282158
0.282101
0.282033
0.281996
0.281935
0.281921
0.28191
0.28188
0.281881
0.28187
0.281898
0.281898
0.281955
0.281955
0.282026
0.282042
0.282125
0.282153
0.282244
0.282284
0.282392
0.282446
0.282575
0.282644
0.282801
0.282887
0.283078
0.28318
0.283422
0.283532
0.283891
0.284015
0.287612
3.21169
539.303
0.758923
0.63379
0.546323
0.486179
0.444194
0.414076
0.391754
0.374771
0.361483
0.350907
0.342289
0.3352
0.329242
0.324222
0.319894
0.316185
0.312921
0.310089
0.307553
0.305333
0.303314
0.301535
0.299894
0.298444
0.297091
0.295893
0.29476
0.293759
0.292802
0.291958
0.29114
0.290423
0.28972
0.28911
0.288501
0.287977
0.287451
0.287001
0.28654
0.286151
0.285746
0.285409
0.285058
0.28477
0.284458
0.284206
0.283937
0.28372
0.283479
0.283289
0.283091
0.282916
0.28274
0.282585
0.282446
0.282324
0.282175
0.282081
0.281962
0.281863
0.281793
0.281711
0.281653
0.281585
0.281547
0.281486
0.281471
0.28146
0.28143
0.28143
0.281418
0.281445
0.281445
0.281501
0.281501
0.281572
0.281587
0.281669
0.281696
0.281787
0.281827
0.281934
0.281987
0.282116
0.282185
0.282341
0.282426
0.282616
0.282718
0.282959
0.283068
0.283425
0.283549
0.287197
3.27159
539.115
0.758933
0.633789
0.546272
0.486066
0.444022
0.413854
0.39149
0.374473
0.361158
0.35056
0.341923
0.334819
0.328847
0.323816
0.319479
0.315761
0.31249
0.309652
0.30711
0.304884
0.302861
0.301078
0.299434
0.29798
0.296623
0.295423
0.294288
0.293283
0.292324
0.291479
0.290658
0.289939
0.289235
0.288623
0.288013
0.287487
0.28696
0.286508
0.286046
0.285656
0.28525
0.284913
0.28456
0.284271
0.283959
0.283705
0.283436
0.283218
0.282976
0.282785
0.282586
0.282411
0.282235
0.282078
0.281939
0.281817
0.281667
0.281572
0.281453
0.281354
0.281282
0.2812
0.281141
0.281073
0.281035
0.280974
0.280958
0.280946
0.280916
0.280915
0.280902
0.280928
0.280928
0.280983
0.280983
0.281053
0.281068
0.281149
0.281175
0.281266
0.281305
0.281411
0.281464
0.281592
0.28166
0.281815
0.2819
0.282089
0.282189
0.282429
0.282538
0.282894
0.283017
0.286725
3.34118
539.539
0.758944
0.633788
0.546217
0.485939
0.443828
0.413603
0.391193
0.374139
0.360793
0.35017
0.341512
0.33439
0.328404
0.32336
0.319012
0.315285
0.312006
0.30916
0.306612
0.30438
0.302351
0.300564
0.298915
0.297458
0.296097
0.294894
0.293755
0.292748
0.291787
0.290939
0.290116
0.289395
0.288689
0.288075
0.287463
0.286936
0.286407
0.285954
0.28549
0.285099
0.284692
0.284353
0.284
0.283709
0.283396
0.283141
0.282871
0.282653
0.282409
0.282218
0.282018
0.281842
0.281665
0.281508
0.281368
0.281245
0.281095
0.281
0.28088
0.28078
0.280707
0.280625
0.280566
0.280497
0.280458
0.280396
0.28038
0.280367
0.280337
0.280335
0.280321
0.280346
0.280346
0.280399
0.280399
0.280468
0.280482
0.280563
0.280589
0.280679
0.280717
0.280822
0.280875
0.281001
0.281069
0.281223
0.281307
0.281495
0.281595
0.281833
0.28194
0.282295
0.282418
0.286193
3.42091
540.46
0.758956
0.633788
0.546155
0.485799
0.443614
0.413326
0.390863
0.373767
0.360387
0.349735
0.341054
0.333913
0.32791
0.322852
0.318492
0.314754
0.311466
0.308612
0.306056
0.303818
0.301784
0.299991
0.298338
0.296876
0.295512
0.294304
0.293163
0.292153
0.291188
0.290338
0.289512
0.288789
0.288081
0.287465
0.286851
0.286322
0.285792
0.285337
0.284872
0.284479
0.284071
0.28373
0.283376
0.283084
0.28277
0.282514
0.282242
0.282023
0.281779
0.281586
0.281386
0.281209
0.281031
0.280874
0.280732
0.280609
0.280458
0.280362
0.280241
0.280141
0.280068
0.279984
0.279925
0.279855
0.279816
0.279754
0.279736
0.279723
0.279692
0.279689
0.279675
0.279698
0.279697
0.279749
0.279749
0.279817
0.279831
0.279911
0.279936
0.280025
0.280062
0.280167
0.280218
0.280344
0.280411
0.280564
0.280647
0.280833
0.280932
0.281169
0.281276
0.281629
0.28175
0.285603
3.51114
541.746
0.75897
0.633787
0.546087
0.485646
0.443379
0.41302
0.3905
0.373358
0.35994
0.349257
0.34055
0.333387
0.327366
0.322292
0.317919
0.314169
0.310871
0.308008
0.305444
0.303199
0.301158
0.29936
0.297701
0.296235
0.294866
0.293654
0.292509
0.291496
0.290528
0.289675
0.288847
0.288121
0.28741
0.286792
0.286176
0.285645
0.285113
0.284656
0.284189
0.283795
0.283385
0.283043
0.282687
0.282394
0.282079
0.281822
0.281549
0.281329
0.281083
0.28089
0.280688
0.280511
0.280332
0.280174
0.280031
0.279907
0.279755
0.279658
0.279537
0.279436
0.279362
0.279278
0.279217
0.279147
0.279107
0.279045
0.279026
0.279012
0.278981
0.278977
0.278961
0.278984
0.278982
0.279032
0.279032
0.279099
0.279112
0.279191
0.279215
0.279303
0.27934
0.279443
0.279494
0.279619
0.279685
0.279837
0.279919
0.280104
0.280202
0.280437
0.280542
0.280895
0.281015
0.284954
3.61221
543.258
0.758985
0.633787
0.546014
0.485479
0.443122
0.412687
0.390104
0.372911
0.359451
0.348734
0.339999
0.332812
0.326771
0.32168
0.317292
0.313529
0.31022
0.307347
0.304775
0.302522
0.300473
0.298669
0.297004
0.295533
0.294159
0.292943
0.291794
0.290777
0.289805
0.288949
0.288118
0.28739
0.286676
0.286055
0.285437
0.284904
0.284369
0.283911
0.283442
0.283046
0.282635
0.282291
0.281934
0.28164
0.281322
0.281064
0.28079
0.280569
0.280322
0.280128
0.279925
0.279746
0.279566
0.279407
0.279263
0.279139
0.278986
0.278888
0.278767
0.278665
0.278589
0.278505
0.278443
0.278373
0.278331
0.278269
0.278248
0.278234
0.278203
0.278198
0.27818
0.278202
0.278199
0.278248
0.278248
0.278314
0.278325
0.278403
0.278427
0.278514
0.27855
0.278652
0.278702
0.278825
0.278891
0.279041
0.279122
0.279305
0.279403
0.279636
0.27974
0.28009
0.280209
0.284244
3.72434
544.856
0.759
0.633786
0.545936
0.485299
0.442845
0.412326
0.389675
0.372425
0.358921
0.348166
0.3394
0.332188
0.326125
0.321015
0.31661
0.312834
0.309512
0.306628
0.304047
0.301785
0.299729
0.297918
0.296247
0.29477
0.293391
0.29217
0.291016
0.289995
0.28902
0.28816
0.287326
0.286594
0.285878
0.285255
0.284634
0.284098
0.283562
0.283101
0.28263
0.282232
0.281819
0.281474
0.281114
0.280819
0.2805
0.280241
0.279965
0.279742
0.279495
0.279299
0.279095
0.278915
0.278734
0.278574
0.278429
0.278304
0.27815
0.278051
0.277929
0.277826
0.27775
0.277665
0.277602
0.277531
0.277488
0.277425
0.277403
0.277389
0.277356
0.277351
0.277331
0.277351
0.277349
0.277395
0.277395
0.277459
0.27747
0.277547
0.27757
0.277656
0.27769
0.277792
0.277841
0.277963
0.278027
0.278175
0.278256
0.278437
0.278533
0.278765
0.278868
0.279216
0.279334
0.283474
3.84767
546.407
0.759018
0.633787
0.545852
0.485106
0.442546
0.411937
0.389212
0.371902
0.358348
0.347554
0.338754
0.331514
0.325426
0.320297
0.315875
0.312083
0.308748
0.305852
0.30326
0.300989
0.298925
0.297106
0.295428
0.293945
0.292561
0.291335
0.290176
0.289151
0.288171
0.287308
0.28647
0.285735
0.285015
0.284389
0.283766
0.283228
0.282688
0.282226
0.281752
0.281353
0.280937
0.280591
0.280229
0.279932
0.279612
0.27935
0.279073
0.278849
0.2786
0.278403
0.278197
0.278017
0.277835
0.277674
0.277527
0.277401
0.277247
0.277147
0.277023
0.276919
0.276842
0.276756
0.276692
0.27662
0.276576
0.276513
0.27649
0.276475
0.276441
0.276435
0.276414
0.276432
0.276429
0.276473
0.276473
0.276536
0.276546
0.276621
0.276643
0.276728
0.276762
0.276862
0.27691
0.27703
0.277094
0.27724
0.27732
0.277499
0.277594
0.277824
0.277925
0.278272
0.278388
0.282642
3.98219
547.786
0.759036
0.633787
0.545763
0.484899
0.442227
0.411521
0.388716
0.371341
0.357734
0.346896
0.33806
0.330789
0.324676
0.319525
0.315084
0.311276
0.307926
0.305018
0.302415
0.300134
0.29806
0.296233
0.294548
0.293058
0.291668
0.290436
0.289272
0.288242
0.287258
0.286391
0.285549
0.284811
0.284087
0.283459
0.282832
0.282291
0.281749
0.281284
0.280808
0.280406
0.279989
0.27964
0.279277
0.278978
0.278656
0.278393
0.278114
0.277888
0.277638
0.277439
0.277232
0.277051
0.276867
0.276705
0.276557
0.27643
0.276275
0.276173
0.276049
0.275944
0.275865
0.275779
0.275713
0.275641
0.275596
0.275532
0.275507
0.275491
0.275457
0.275449
0.275427
0.275444
0.275439
0.275481
0.275481
0.275543
0.275551
0.275626
0.275646
0.27573
0.275763
0.275861
0.275908
0.276027
0.276089
0.276234
0.276312
0.27649
0.276584
0.276811
0.27691
0.277255
0.277371
0.281749
4.12775
548.879
0.759055
0.633788
0.545669
0.48468
0.441887
0.411077
0.388186
0.370741
0.357077
0.346192
0.337317
0.330014
0.323874
0.318698
0.314237
0.310412
0.307047
0.304125
0.301509
0.299218
0.297135
0.295299
0.293606
0.292109
0.290712
0.289474
0.288305
0.28727
0.286281
0.285409
0.284563
0.283821
0.283094
0.282462
0.281832
0.281288
0.280743
0.280276
0.279798
0.279393
0.278973
0.278623
0.278257
0.277956
0.277632
0.277368
0.277087
0.27686
0.276608
0.276407
0.276199
0.276016
0.275831
0.275668
0.275518
0.27539
0.275234
0.275131
0.275006
0.2749
0.274819
0.274732
0.274666
0.274592
0.274546
0.274482
0.274455
0.274438
0.274403
0.274394
0.27437
0.274385
0.27438
0.274419
0.274419
0.274479
0.274487
0.27456
0.274579
0.274662
0.274693
0.27479
0.274836
0.274953
0.275014
0.275157
0.275234
0.275409
0.275502
0.275727
0.275825
0.276167
0.276282
0.280792
4.28402
549.586
0.759075
0.63379
0.54557
0.484448
0.441526
0.410606
0.387623
0.370104
0.356379
0.345443
0.336527
0.329188
0.323018
0.317818
0.313335
0.30949
0.306109
0.303172
0.300544
0.298241
0.296148
0.294303
0.292601
0.291096
0.289692
0.288448
0.287273
0.286232
0.285239
0.284362
0.283512
0.282766
0.282035
0.281399
0.280766
0.280219
0.279671
0.2792
0.278719
0.278313
0.27789
0.277537
0.277169
0.276866
0.27654
0.276274
0.275991
0.275762
0.275509
0.275307
0.275097
0.274913
0.274726
0.274562
0.27441
0.274281
0.274123
0.274019
0.273893
0.273786
0.273704
0.273616
0.273548
0.273474
0.273426
0.273361
0.273332
0.273315
0.273279
0.273269
0.273243
0.273256
0.27325
0.273287
0.273287
0.273344
0.273351
0.273423
0.273441
0.273522
0.273552
0.273647
0.273692
0.273807
0.273867
0.274008
0.274084
0.274257
0.274348
0.27457
0.274666
0.275007
0.27512
0.279773
4.45047
549.82
0.759097
0.633792
0.545467
0.484204
0.441145
0.410107
0.387027
0.369428
0.355637
0.344648
0.335688
0.328312
0.32211
0.316883
0.312377
0.308512
0.305113
0.302161
0.299519
0.297203
0.295099
0.293244
0.291534
0.290021
0.288609
0.287358
0.286177
0.28513
0.284131
0.283249
0.282394
0.281644
0.280909
0.280269
0.279633
0.279082
0.278531
0.278057
0.277574
0.277164
0.276739
0.276384
0.276013
0.275708
0.27538
0.275112
0.274827
0.274596
0.274341
0.274137
0.273925
0.27374
0.273551
0.273386
0.273232
0.273103
0.272943
0.272838
0.272711
0.272602
0.272518
0.272429
0.27236
0.272285
0.272236
0.27217
0.272139
0.272121
0.272084
0.272073
0.272045
0.272057
0.272049
0.272084
0.272083
0.272139
0.272144
0.272214
0.272231
0.27231
0.272339
0.272433
0.272477
0.27259
0.272649
0.272787
0.272861
0.273032
0.273121
0.273341
0.273435
0.273774
0.273886
0.278689
4.6263
549.513
0.759119
0.633795
0.545359
0.483948
0.440745
0.409581
0.386397
0.368713
0.354854
0.343808
0.3348
0.327385
0.32115
0.315893
0.311362
0.307476
0.304058
0.30109
0.298433
0.296104
0.293988
0.292123
0.290403
0.288881
0.287461
0.286203
0.285015
0.283962
0.282957
0.28207
0.281211
0.280456
0.279716
0.279073
0.278432
0.277878
0.277323
0.276847
0.27636
0.275947
0.27552
0.275162
0.274788
0.274481
0.27415
0.27388
0.273593
0.273361
0.273103
0.272898
0.272684
0.272497
0.272307
0.27214
0.271984
0.271854
0.271693
0.271586
0.271458
0.271348
0.271262
0.271172
0.271101
0.271025
0.270974
0.270909
0.270875
0.270856
0.270818
0.270806
0.270776
0.270786
0.270777
0.270809
0.270808
0.270861
0.270865
0.270934
0.270949
0.271027
0.271054
0.271146
0.271189
0.2713
0.271357
0.271493
0.271566
0.271734
0.271822
0.272039
0.272131
0.272467
0.272579
0.27754
4.81047
548.603
0.759142
0.633798
0.545246
0.483679
0.440324
0.409028
0.385735
0.367961
0.354029
0.342922
0.333864
0.326406
0.320136
0.314849
0.310292
0.306383
0.302945
0.299959
0.297287
0.294944
0.292816
0.290939
0.289209
0.287678
0.286249
0.284984
0.283788
0.282729
0.281718
0.280825
0.27996
0.2792
0.278456
0.277808
0.277164
0.276606
0.276047
0.275568
0.275077
0.274662
0.274231
0.273871
0.273495
0.273185
0.272852
0.272579
0.27229
0.272055
0.271796
0.271588
0.271373
0.271184
0.270992
0.270824
0.270666
0.270534
0.270372
0.270264
0.270134
0.270023
0.269935
0.269844
0.269772
0.269695
0.269642
0.269576
0.26954
0.26952
0.269481
0.269467
0.269436
0.269443
0.269433
0.269462
0.26946
0.269511
0.269514
0.269581
0.269595
0.269671
0.269697
0.269787
0.269828
0.269937
0.269993
0.270127
0.270198
0.270363
0.27045
0.270664
0.270754
0.271087
0.271198
0.276324
5.00164
547.038
0.759167
0.633802
0.54513
0.4834
0.439884
0.408448
0.38504
0.367171
0.353161
0.341991
0.332879
0.325377
0.319069
0.31375
0.309165
0.305232
0.301773
0.298768
0.296079
0.293722
0.291581
0.289692
0.287951
0.28641
0.284973
0.283699
0.282496
0.28143
0.280412
0.279514
0.278643
0.277878
0.277129
0.276477
0.275828
0.275266
0.274703
0.27422
0.273726
0.273308
0.272874
0.272511
0.272132
0.271819
0.271484
0.271209
0.270917
0.27068
0.270419
0.270209
0.269991
0.269801
0.269607
0.269438
0.269277
0.269144
0.26898
0.26887
0.268739
0.268627
0.268537
0.268445
0.268371
0.268293
0.268238
0.268171
0.268133
0.268112
0.268071
0.268057
0.268023
0.268029
0.268017
0.268043
0.268041
0.268089
0.268091
0.268156
0.268168
0.268243
0.268267
0.268355
0.268394
0.268501
0.268556
0.268687
0.268757
0.268919
0.269004
0.269215
0.269303
0.269634
0.269744
0.275041
5.19814
544.784
0.759192
0.633808
0.54501
0.483109
0.439425
0.407843
0.384313
0.366344
0.352252
0.341014
0.331847
0.324297
0.317949
0.312596
0.307982
0.304023
0.300542
0.297518
0.294811
0.292439
0.290283
0.288382
0.28663
0.285078
0.283632
0.28235
0.281138
0.280065
0.279041
0.278136
0.277259
0.276489
0.275735
0.275077
0.274424
0.273858
0.273291
0.272804
0.272307
0.271885
0.271448
0.271081
0.270699
0.270384
0.270046
0.269768
0.269474
0.269235
0.268971
0.268759
0.268539
0.268348
0.268152
0.26798
0.267817
0.267683
0.267518
0.267406
0.267274
0.26716
0.267068
0.266975
0.266898
0.266819
0.266763
0.266695
0.266654
0.266632
0.26659
0.266574
0.266539
0.266542
0.266529
0.266553
0.266549
0.266594
0.266596
0.266658
0.266668
0.266741
0.266764
0.26685
0.266888
0.266992
0.267045
0.267174
0.267242
0.267401
0.267484
0.267692
0.267778
0.268106
0.268215
0.27369
5.39797
541.81
0.759218
0.633814
0.544886
0.482807
0.438948
0.407212
0.383553
0.36548
0.351301
0.339992
0.330766
0.323166
0.316776
0.311387
0.306742
0.302757
0.299252
0.296207
0.293482
0.291093
0.288923
0.287009
0.285244
0.283683
0.282226
0.280935
0.279715
0.278634
0.277602
0.276691
0.275808
0.275032
0.274272
0.27361
0.272952
0.272382
0.27181
0.271319
0.270818
0.270393
0.269952
0.269583
0.269197
0.268879
0.268538
0.268258
0.267961
0.26772
0.267454
0.267239
0.267017
0.266823
0.266625
0.266452
0.266286
0.266151
0.265984
0.26587
0.265736
0.265621
0.265527
0.265433
0.265354
0.265274
0.265215
0.265147
0.265104
0.265081
0.265037
0.26502
0.264983
0.264984
0.264968
0.264989
0.264985
0.265027
0.265028
0.265087
0.265096
0.265167
0.265188
0.265272
0.265308
0.26541
0.265461
0.265587
0.265654
0.26581
0.265891
0.266095
0.266179
0.266504
0.266613
0.272268
5.59877
538.089
0.759245
0.633821
0.544759
0.482495
0.438452
0.406555
0.382762
0.364578
0.35031
0.338925
0.329637
0.321985
0.315551
0.310124
0.305447
0.301433
0.297904
0.294837
0.292093
0.289686
0.287501
0.285572
0.283796
0.282222
0.280755
0.279454
0.278226
0.277137
0.276098
0.275179
0.27429
0.273508
0.272743
0.272075
0.271412
0.270837
0.270261
0.269766
0.269261
0.268832
0.268387
0.268015
0.267626
0.267305
0.266961
0.266678
0.266377
0.266134
0.265865
0.265649
0.265424
0.265228
0.265028
0.264853
0.264685
0.264548
0.264379
0.264263
0.264128
0.264011
0.263915
0.263819
0.263739
0.263657
0.263596
0.263527
0.263481
0.263457
0.263411
0.263393
0.263355
0.263353
0.263336
0.263354
0.263348
0.263387
0.263387
0.263444
0.263451
0.26352
0.263539
0.263621
0.263655
0.263755
0.263804
0.263927
0.263992
0.264144
0.264224
0.264424
0.264505
0.264828
0.264937
0.270775
5.79783
533.596
0.759273
0.633829
0.544629
0.482173
0.437939
0.405874
0.381941
0.363641
0.349277
0.337814
0.32846
0.320754
0.314273
0.308807
0.304095
0.300052
0.296496
0.293407
0.290642
0.288218
0.286016
0.284073
0.282283
0.280698
0.27922
0.277909
0.276672
0.275574
0.274527
0.273601
0.272705
0.271917
0.271145
0.270472
0.269804
0.269224
0.268643
0.268144
0.267634
0.267202
0.266753
0.266377
0.265985
0.265661
0.265313
0.265028
0.264724
0.264478
0.264207
0.263988
0.26376
0.263563
0.26336
0.263184
0.263012
0.262874
0.262703
0.262585
0.262448
0.26233
0.262231
0.262134
0.262051
0.261968
0.261906
0.261835
0.261787
0.261761
0.261714
0.261694
0.261655
0.261651
0.261631
0.261646
0.261639
0.261674
0.261673
0.261727
0.261733
0.2618
0.261817
0.261897
0.261929
0.262026
0.262073
0.262193
0.262256
0.262405
0.262483
0.26268
0.262758
0.263078
0.263186
0.269209
5.99206
528.304
0.759301
0.633839
0.544497
0.481842
0.437409
0.405168
0.381088
0.362667
0.348204
0.336659
0.327237
0.319473
0.312944
0.307436
0.302688
0.298614
0.295031
0.291917
0.289132
0.286688
0.28447
0.282511
0.280708
0.27911
0.27762
0.276299
0.275052
0.273945
0.27289
0.271957
0.271053
0.270259
0.269481
0.268802
0.268128
0.267543
0.266957
0.266453
0.265939
0.265503
0.26505
0.26467
0.264274
0.263947
0.263596
0.263308
0.263001
0.262752
0.262478
0.262257
0.262026
0.261827
0.261622
0.261443
0.261269
0.261129
0.260956
0.260836
0.260698
0.260577
0.260476
0.260377
0.260293
0.260208
0.260143
0.260072
0.260021
0.259993
0.259944
0.259924
0.259882
0.259876
0.259854
0.259866
0.259858
0.259889
0.259888
0.259938
0.259943
0.260007
0.260022
0.260099
0.260129
0.260224
0.260269
0.260386
0.260447
0.260593
0.260668
0.260861
0.260938
0.261254
0.261362
0.267568
6.17805
522.183
0.75933
0.633849
0.544362
0.481502
0.436862
0.404439
0.380206
0.361659
0.347092
0.335461
0.325967
0.318143
0.311562
0.306011
0.301226
0.297119
0.293508
0.290369
0.287561
0.285098
0.282861
0.280887
0.279069
0.277458
0.275957
0.274624
0.273367
0.272251
0.271187
0.270246
0.269335
0.268533
0.267749
0.267064
0.266384
0.265794
0.265203
0.264695
0.264176
0.263735
0.263279
0.262895
0.262495
0.262164
0.26181
0.261518
0.261208
0.260957
0.26068
0.260455
0.260222
0.26002
0.259813
0.259632
0.259455
0.259313
0.259139
0.259016
0.258876
0.258753
0.25865
0.25855
0.258463
0.258377
0.258309
0.258237
0.258183
0.258154
0.258103
0.258081
0.258038
0.25803
0.258005
0.258015
0.258004
0.258032
0.258029
0.258077
0.25808
0.258141
0.258154
0.258229
0.258257
0.258349
0.258392
0.258505
0.258564
0.258707
0.25878
0.258969
0.259043
0.259356
0.259464
0.26585
6.35208
515.196
0.75936
0.633862
0.544225
0.481153
0.4363
0.403687
0.379295
0.360616
0.34594
0.334219
0.324651
0.316764
0.31013
0.304533
0.299709
0.295567
0.291927
0.288761
0.285931
0.283447
0.281192
0.279201
0.277367
0.275743
0.274229
0.272885
0.271617
0.270492
0.269419
0.268469
0.267551
0.266742
0.26595
0.265259
0.264573
0.263977
0.263381
0.262868
0.262344
0.261899
0.261438
0.26105
0.260646
0.260312
0.259954
0.259659
0.259346
0.259091
0.258812
0.258584
0.258348
0.258144
0.257933
0.257751
0.257571
0.257427
0.257251
0.257126
0.256983
0.256859
0.256753
0.256651
0.256561
0.256474
0.256404
0.256331
0.256274
0.256243
0.25619
0.256167
0.256122
0.256112
0.256084
0.256091
0.256079
0.256103
0.256099
0.256143
0.256145
0.256203
0.256214
0.256287
0.256312
0.256401
0.256442
0.256552
0.256609
0.256748
0.256819
0.257004
0.257075
0.257385
0.257493
0.264055
6.51015
507.299
0.75939
0.633875
0.544087
0.480797
0.435722
0.402913
0.378355
0.359539
0.344751
0.332936
0.323289
0.315336
0.308647
0.303002
0.298137
0.29396
0.290288
0.287096
0.284241
0.281735
0.279461
0.277453
0.275604
0.273965
0.272438
0.271082
0.269803
0.268668
0.267585
0.266627
0.2657
0.264884
0.264085
0.263388
0.262695
0.262094
0.261492
0.260973
0.260445
0.259995
0.25953
0.259138
0.258729
0.258391
0.25803
0.257731
0.257414
0.257157
0.256874
0.256644
0.256404
0.256198
0.255985
0.2558
0.255617
0.255471
0.255292
0.255165
0.25502
0.254894
0.254785
0.254682
0.25459
0.254501
0.254428
0.254354
0.254294
0.254262
0.254207
0.254182
0.254135
0.254122
0.254093
0.254097
0.254082
0.254103
0.254098
0.254137
0.254138
0.254193
0.254202
0.254272
0.254295
0.254381
0.25442
0.254527
0.254581
0.254716
0.254785
0.254966
0.255034
0.25534
0.255448
0.262178
6.64807
498.441
0.759421
0.63389
0.543947
0.480433
0.435131
0.402118
0.377388
0.358429
0.343523
0.331611
0.321883
0.313862
0.307114
0.30142
0.296512
0.292298
0.288594
0.285373
0.282492
0.279964
0.27767
0.275643
0.273778
0.272124
0.270583
0.269215
0.267925
0.266779
0.265687
0.26472
0.263784
0.26296
0.262154
0.26145
0.260751
0.260144
0.259536
0.259012
0.258478
0.258023
0.257553
0.257157
0.256744
0.256402
0.256037
0.255735
0.255414
0.255154
0.254868
0.254634
0.254392
0.254183
0.253966
0.25378
0.253593
0.253445
0.253264
0.253134
0.252988
0.25286
0.252748
0.252643
0.252548
0.252458
0.252382
0.252307
0.252243
0.252209
0.252152
0.252125
0.252077
0.252062
0.252031
0.252031
0.252015
0.252031
0.252025
0.25206
0.25206
0.252112
0.252119
0.252185
0.252206
0.252289
0.252326
0.252429
0.252481
0.252613
0.252679
0.252856
0.252921
0.253223
0.253332
0.26022
6.76155
488.567
0.759452
0.633906
0.543806
0.480063
0.434526
0.401302
0.376395
0.357287
0.342259
0.330245
0.320432
0.31234
0.305532
0.299786
0.294834
0.290582
0.286844
0.283593
0.280686
0.278135
0.275819
0.273774
0.271891
0.270222
0.268667
0.267286
0.265984
0.264827
0.263724
0.262748
0.261804
0.260972
0.260158
0.259447
0.258741
0.258127
0.257513
0.256984
0.256444
0.255985
0.25551
0.255109
0.254692
0.254346
0.253976
0.253671
0.253346
0.253082
0.252793
0.252557
0.25231
0.252099
0.251879
0.251691
0.2515
0.25135
0.251167
0.251035
0.250886
0.250756
0.250641
0.250534
0.250436
0.250345
0.250266
0.25019
0.250123
0.250087
0.250027
0.249999
0.249948
0.249932
0.249899
0.249896
0.249877
0.24989
0.249882
0.249912
0.249911
0.249959
0.249964
0.250028
0.250046
0.250126
0.25016
0.25026
0.25031
0.250437
0.250501
0.250674
0.250736
0.251034
0.251143
0.258177
6.84627
477.617
0.759483
0.633924
0.543665
0.479687
0.433908
0.400467
0.375375
0.356114
0.340959
0.32884
0.318939
0.310773
0.303902
0.298102
0.293104
0.288811
0.285038
0.281756
0.278822
0.276246
0.273909
0.271844
0.269944
0.268259
0.266689
0.265294
0.26398
0.262812
0.261698
0.260712
0.259759
0.258919
0.258097
0.257378
0.256665
0.256045
0.255425
0.25489
0.254345
0.25388
0.2534
0.252995
0.252573
0.252222
0.251849
0.25154
0.251211
0.250943
0.250651
0.250411
0.250161
0.249947
0.249724
0.249533
0.249339
0.249187
0.249001
0.248866
0.248715
0.248583
0.248465
0.248356
0.248256
0.248163
0.248081
0.248004
0.247933
0.247895
0.247833
0.247804
0.247751
0.247732
0.247697
0.247691
0.247669
0.247679
0.247668
0.247695
0.247692
0.247736
0.24774
0.2478
0.247816
0.247893
0.247924
0.24802
0.248068
0.248191
0.248252
0.248421
0.24848
0.248774
0.248883
0.256047
6.89799
465.529
0.759515
0.633944
0.543523
0.479306
0.433278
0.399614
0.374331
0.354911
0.339625
0.327396
0.317404
0.30916
0.302225
0.296369
0.291323
0.286988
0.283179