/*--------------------------------*- C++ -*----------------------------------*\
| =========                 |                                                 |
| \\      /  F ield         | OpenFOAM: The Open Source CFD Toolbox           |
|  \\    /   O peration     | Version:  v2012                                 |
|   \\  /    A nd           | Website:  www.openfoam.com                      |
|    \\/     M anipulation  |                                                 |
\*---------------------------------------------------------------------------*/
FoamFile
{
    version     2.0;
    format      ascii;
    class       volScalarField;
    location    "46.5";
    object      nut;
}
// * * * * * * * * * * * * * * * * * * * * * * * * * * * * * * * * * * * * * //

dimensions      [0 2 -1 0 0 0 0];


internalField   nonuniform List<scalar> 
209825
(
1.24411e-07
1.23645e-07
1.20668e-07
1.15381e-07
1.08813e-07
1.02011e-07
9.55496e-08
8.97093e-08
8.45189e-08
7.99739e-08
7.59783e-08
7.24908e-08
6.94089e-08
6.67079e-08
6.42987e-08
6.21743e-08
6.02591e-08
5.85614e-08
5.70146e-08
5.56382e-08
5.43709e-08
5.32398e-08
5.21882e-08
5.12477e-08
5.03641e-08
4.95736e-08
4.88235e-08
4.8154e-08
4.75105e-08
4.69381e-08
4.63828e-08
4.58907e-08
4.54069e-08
4.49805e-08
4.45566e-08
4.4186e-08
4.38124e-08
4.34888e-08
4.31582e-08
4.28745e-08
4.25802e-08
4.23306e-08
4.20667e-08
4.18457e-08
4.16096e-08
4.14144e-08
4.1201e-08
4.10274e-08
4.08354e-08
4.06813e-08
4.05055e-08
4.03699e-08
4.02107e-08
4.00906e-08
3.99441e-08
3.98354e-08
3.97059e-08
3.96079e-08
3.94882e-08
3.9404e-08
3.92896e-08
3.92147e-08
3.91104e-08
3.90426e-08
3.89466e-08
3.88864e-08
3.87976e-08
3.87372e-08
3.866e-08
3.86041e-08
3.85324e-08
3.84789e-08
3.84145e-08
3.83632e-08
3.83026e-08
3.82514e-08
3.81911e-08
3.81408e-08
3.80822e-08
3.8034e-08
3.79777e-08
3.79309e-08
3.78771e-08
3.78311e-08
3.77798e-08
3.77338e-08
3.76861e-08
3.76388e-08
3.75961e-08
3.75485e-08
3.74997e-08
3.74439e-08
3.74061e-08
3.77263e-08
3.63075e-06
2.32855e-08
1.24411e-07
1.23644e-07
1.20669e-07
1.15383e-07
1.08815e-07
1.02013e-07
9.55519e-08
8.97118e-08
8.45213e-08
7.99762e-08
7.59805e-08
7.24929e-08
6.94109e-08
6.67097e-08
6.43004e-08
6.21759e-08
6.02606e-08
5.85627e-08
5.70159e-08
5.56394e-08
5.43719e-08
5.32408e-08
5.21891e-08
5.12486e-08
5.03649e-08
4.95743e-08
4.88242e-08
4.81546e-08
4.75111e-08
4.69386e-08
4.63833e-08
4.58911e-08
4.54073e-08
4.49809e-08
4.4557e-08
4.41863e-08
4.38127e-08
4.3489e-08
4.31584e-08
4.28747e-08
4.25803e-08
4.23307e-08
4.20668e-08
4.18458e-08
4.16097e-08
4.14144e-08
4.1201e-08
4.10274e-08
4.08354e-08
4.06813e-08
4.05054e-08
4.03699e-08
4.02106e-08
4.00906e-08
3.9944e-08
3.98353e-08
3.97057e-08
3.96077e-08
3.9488e-08
3.94039e-08
3.92894e-08
3.92145e-08
3.91102e-08
3.90424e-08
3.89464e-08
3.88862e-08
3.87974e-08
3.8737e-08
3.86598e-08
3.86039e-08
3.85322e-08
3.84787e-08
3.84142e-08
3.83629e-08
3.83024e-08
3.82511e-08
3.81908e-08
3.81406e-08
3.80819e-08
3.80337e-08
3.79774e-08
3.79307e-08
3.78769e-08
3.78308e-08
3.77795e-08
3.77335e-08
3.76858e-08
3.76385e-08
3.75958e-08
3.75481e-08
3.74993e-08
3.74436e-08
3.74058e-08
3.77263e-08
3.63184e-06
2.34761e-08
1.24411e-07
1.23645e-07
1.20671e-07
1.15388e-07
1.08823e-07
1.02022e-07
9.55617e-08
8.97217e-08
8.45311e-08
7.99855e-08
7.59893e-08
7.25012e-08
6.94186e-08
6.67169e-08
6.4307e-08
6.2182e-08
6.02662e-08
5.85679e-08
5.70207e-08
5.56438e-08
5.4376e-08
5.32446e-08
5.21925e-08
5.12518e-08
5.03678e-08
4.9577e-08
4.88266e-08
4.81568e-08
4.75132e-08
4.69405e-08
4.6385e-08
4.58927e-08
4.54087e-08
4.49822e-08
4.45581e-08
4.41873e-08
4.38136e-08
4.34898e-08
4.31591e-08
4.28753e-08
4.25808e-08
4.23311e-08
4.20671e-08
4.1846e-08
4.16098e-08
4.14145e-08
4.12011e-08
4.10274e-08
4.08353e-08
4.06812e-08
4.05052e-08
4.03696e-08
4.02103e-08
4.00902e-08
3.99436e-08
3.98349e-08
3.97052e-08
3.96072e-08
3.94874e-08
3.94033e-08
3.92887e-08
3.92138e-08
3.91095e-08
3.90417e-08
3.89457e-08
3.88854e-08
3.87966e-08
3.87361e-08
3.86589e-08
3.86029e-08
3.85312e-08
3.84777e-08
3.84132e-08
3.83619e-08
3.83014e-08
3.82501e-08
3.81897e-08
3.81395e-08
3.80808e-08
3.80326e-08
3.79763e-08
3.79295e-08
3.78757e-08
3.78296e-08
3.77783e-08
3.77323e-08
3.76845e-08
3.76373e-08
3.75945e-08
3.75469e-08
3.7498e-08
3.74423e-08
3.74045e-08
3.77257e-08
3.63541e-06
2.37588e-08
1.2441e-07
1.23645e-07
1.20675e-07
1.15397e-07
1.08836e-07
1.02038e-07
9.55782e-08
8.97384e-08
8.45475e-08
8.00012e-08
7.60042e-08
7.25151e-08
6.94315e-08
6.67289e-08
6.43181e-08
6.21923e-08
6.02757e-08
5.85767e-08
5.70288e-08
5.56513e-08
5.43829e-08
5.32509e-08
5.21983e-08
5.12571e-08
5.03728e-08
4.95815e-08
4.88308e-08
4.81606e-08
4.75166e-08
4.69436e-08
4.63879e-08
4.58953e-08
4.5411e-08
4.49843e-08
4.456e-08
4.4189e-08
4.38151e-08
4.34911e-08
4.31603e-08
4.28763e-08
4.25817e-08
4.23318e-08
4.20677e-08
4.18465e-08
4.16101e-08
4.14147e-08
4.12011e-08
4.10273e-08
4.08351e-08
4.06809e-08
4.05049e-08
4.03692e-08
4.02098e-08
4.00896e-08
3.99429e-08
3.98341e-08
3.97044e-08
3.96063e-08
3.94865e-08
3.94023e-08
3.92877e-08
3.92127e-08
3.91083e-08
3.90404e-08
3.89444e-08
3.8884e-08
3.87952e-08
3.87347e-08
3.86574e-08
3.86014e-08
3.85297e-08
3.84762e-08
3.84116e-08
3.83603e-08
3.82997e-08
3.82484e-08
3.8188e-08
3.81378e-08
3.8079e-08
3.80308e-08
3.79744e-08
3.79277e-08
3.78738e-08
3.78277e-08
3.77763e-08
3.77303e-08
3.76825e-08
3.76352e-08
3.75924e-08
3.75448e-08
3.74959e-08
3.74401e-08
3.74022e-08
3.77247e-08
3.64128e-06
2.41054e-08
1.24409e-07
1.23645e-07
1.2068e-07
1.15409e-07
1.08854e-07
1.02059e-07
9.56016e-08
8.97621e-08
8.45706e-08
8.00234e-08
7.60251e-08
7.25347e-08
6.94498e-08
6.67458e-08
6.43339e-08
6.22068e-08
6.02892e-08
5.85891e-08
5.70402e-08
5.56618e-08
5.43926e-08
5.32598e-08
5.22066e-08
5.12647e-08
5.03797e-08
4.95879e-08
4.88366e-08
4.8166e-08
4.75216e-08
4.69482e-08
4.6392e-08
4.5899e-08
4.54144e-08
4.49874e-08
4.45628e-08
4.41915e-08
4.38173e-08
4.34931e-08
4.3162e-08
4.28778e-08
4.25829e-08
4.23329e-08
4.20686e-08
4.18472e-08
4.16106e-08
4.1415e-08
4.12013e-08
4.10273e-08
4.0835e-08
4.06807e-08
4.05045e-08
4.03687e-08
4.02091e-08
4.00888e-08
3.9942e-08
3.98331e-08
3.97033e-08
3.96051e-08
3.94852e-08
3.94009e-08
3.92862e-08
3.92111e-08
3.91067e-08
3.90387e-08
3.89426e-08
3.88822e-08
3.87933e-08
3.87327e-08
3.86554e-08
3.85994e-08
3.85276e-08
3.84741e-08
3.84094e-08
3.83581e-08
3.82974e-08
3.82461e-08
3.81857e-08
3.81354e-08
3.80766e-08
3.80283e-08
3.79719e-08
3.79251e-08
3.78711e-08
3.7825e-08
3.77736e-08
3.77276e-08
3.76797e-08
3.76324e-08
3.75895e-08
3.75418e-08
3.74929e-08
3.74372e-08
3.73991e-08
3.77232e-08
3.64949e-06
2.4506e-08
1.24408e-07
1.23645e-07
1.20688e-07
1.15425e-07
1.08877e-07
1.02088e-07
9.56319e-08
8.97929e-08
8.46007e-08
8.00522e-08
7.60524e-08
7.25602e-08
6.94736e-08
6.67679e-08
6.43543e-08
6.22257e-08
6.03066e-08
5.86052e-08
5.70551e-08
5.56755e-08
5.44052e-08
5.32715e-08
5.22173e-08
5.12746e-08
5.03888e-08
4.95963e-08
4.88443e-08
4.81731e-08
4.7528e-08
4.69541e-08
4.63974e-08
4.59039e-08
4.54189e-08
4.49914e-08
4.45664e-08
4.41947e-08
4.38202e-08
4.34956e-08
4.31642e-08
4.28797e-08
4.25846e-08
4.23343e-08
4.20697e-08
4.18481e-08
4.16113e-08
4.14155e-08
4.12015e-08
4.10274e-08
4.08348e-08
4.06804e-08
4.0504e-08
4.0368e-08
4.02083e-08
4.00879e-08
3.99409e-08
3.98319e-08
3.97019e-08
3.96036e-08
3.94835e-08
3.93991e-08
3.92843e-08
3.92092e-08
3.91046e-08
3.90366e-08
3.89403e-08
3.88798e-08
3.87909e-08
3.87302e-08
3.86528e-08
3.85967e-08
3.85249e-08
3.84713e-08
3.84066e-08
3.83553e-08
3.82945e-08
3.82432e-08
3.81826e-08
3.81323e-08
3.80734e-08
3.80251e-08
3.79686e-08
3.79218e-08
3.78678e-08
3.78216e-08
3.77701e-08
3.7724e-08
3.7676e-08
3.76288e-08
3.75857e-08
3.75381e-08
3.74891e-08
3.74333e-08
3.73952e-08
3.77214e-08
3.66007e-06
2.4958e-08
1.24406e-07
1.23645e-07
1.20697e-07
1.15446e-07
1.08906e-07
1.02122e-07
9.56694e-08
8.98308e-08
8.46379e-08
8.00878e-08
7.6086e-08
7.25918e-08
6.9503e-08
6.67952e-08
6.43796e-08
6.22491e-08
6.03282e-08
5.86252e-08
5.70735e-08
5.56925e-08
5.44209e-08
5.3286e-08
5.22306e-08
5.12869e-08
5.04001e-08
4.96067e-08
4.88539e-08
4.81818e-08
4.75361e-08
4.69614e-08
4.64041e-08
4.59101e-08
4.54244e-08
4.49964e-08
4.45709e-08
4.41988e-08
4.38238e-08
4.34989e-08
4.3167e-08
4.28822e-08
4.25867e-08
4.23361e-08
4.20711e-08
4.18492e-08
4.16121e-08
4.14161e-08
4.12019e-08
4.10275e-08
4.08347e-08
4.068e-08
4.05034e-08
4.03673e-08
4.02073e-08
4.00867e-08
3.99396e-08
3.98304e-08
3.97002e-08
3.96018e-08
3.94815e-08
3.9397e-08
3.92821e-08
3.92068e-08
3.91021e-08
3.9034e-08
3.89376e-08
3.8877e-08
3.87879e-08
3.87272e-08
3.86496e-08
3.85935e-08
3.85216e-08
3.8468e-08
3.84031e-08
3.83518e-08
3.82909e-08
3.82395e-08
3.81789e-08
3.81286e-08
3.80696e-08
3.80212e-08
3.79646e-08
3.79177e-08
3.78636e-08
3.78174e-08
3.77658e-08
3.77197e-08
3.76716e-08
3.76243e-08
3.75812e-08
3.75335e-08
3.74844e-08
3.74287e-08
3.73903e-08
3.77192e-08
3.67304e-06
2.54633e-08
1.24405e-07
1.23646e-07
1.20707e-07
1.15469e-07
1.08941e-07
1.02164e-07
9.5714e-08
8.98761e-08
8.46823e-08
8.01304e-08
7.61262e-08
7.26295e-08
6.95381e-08
6.68279e-08
6.44099e-08
6.22771e-08
6.03541e-08
5.8649e-08
5.70956e-08
5.57129e-08
5.44397e-08
5.33033e-08
5.22466e-08
5.13016e-08
5.04137e-08
4.96191e-08
4.88653e-08
4.81924e-08
4.75457e-08
4.69703e-08
4.64121e-08
4.59174e-08
4.54311e-08
4.50025e-08
4.45764e-08
4.42037e-08
4.38282e-08
4.35028e-08
4.31704e-08
4.28852e-08
4.25892e-08
4.23382e-08
4.20729e-08
4.18507e-08
4.16132e-08
4.14169e-08
4.12023e-08
4.10277e-08
4.08346e-08
4.06797e-08
4.05028e-08
4.03664e-08
4.02062e-08
4.00854e-08
3.99381e-08
3.98287e-08
3.96983e-08
3.95997e-08
3.94792e-08
3.93946e-08
3.92795e-08
3.9204e-08
3.90991e-08
3.90309e-08
3.89343e-08
3.88736e-08
3.87844e-08
3.87236e-08
3.86458e-08
3.85897e-08
3.85177e-08
3.84641e-08
3.83991e-08
3.83477e-08
3.82867e-08
3.82353e-08
3.81746e-08
3.81241e-08
3.8065e-08
3.80166e-08
3.79599e-08
3.7913e-08
3.78587e-08
3.78124e-08
3.77607e-08
3.77146e-08
3.76664e-08
3.7619e-08
3.75757e-08
3.75281e-08
3.74789e-08
3.74232e-08
3.73846e-08
3.77166e-08
3.68841e-06
2.60268e-08
1.24403e-07
1.23646e-07
1.2072e-07
1.15497e-07
1.08981e-07
1.02212e-07
9.57659e-08
8.99288e-08
8.4734e-08
8.01799e-08
7.61732e-08
7.26735e-08
6.95792e-08
6.6866e-08
6.44452e-08
6.23098e-08
6.03844e-08
5.8677e-08
5.71214e-08
5.57367e-08
5.44617e-08
5.33235e-08
5.22653e-08
5.13188e-08
5.04295e-08
4.96338e-08
4.88787e-08
4.82047e-08
4.7557e-08
4.69806e-08
4.64216e-08
4.59261e-08
4.5439e-08
4.50096e-08
4.45828e-08
4.42095e-08
4.38333e-08
4.35074e-08
4.31745e-08
4.28887e-08
4.25923e-08
4.23408e-08
4.20751e-08
4.18524e-08
4.16146e-08
4.14179e-08
4.12029e-08
4.1028e-08
4.08345e-08
4.06793e-08
4.05021e-08
4.03655e-08
4.0205e-08
4.0084e-08
3.99363e-08
3.98267e-08
3.96961e-08
3.95973e-08
3.94765e-08
3.93918e-08
3.92764e-08
3.92008e-08
3.90957e-08
3.90273e-08
3.89306e-08
3.88697e-08
3.87804e-08
3.87194e-08
3.86415e-08
3.85853e-08
3.85132e-08
3.84595e-08
3.83943e-08
3.8343e-08
3.82818e-08
3.82303e-08
3.81695e-08
3.8119e-08
3.80598e-08
3.80113e-08
3.79544e-08
3.79074e-08
3.7853e-08
3.78067e-08
3.77549e-08
3.77087e-08
3.76603e-08
3.76129e-08
3.75694e-08
3.75218e-08
3.74725e-08
3.74167e-08
3.73779e-08
3.77137e-08
3.70617e-06
2.66563e-08
1.24401e-07
1.23646e-07
1.20734e-07
1.15528e-07
1.09027e-07
1.02267e-07
9.58253e-08
8.99892e-08
8.47932e-08
8.02368e-08
7.6227e-08
7.2724e-08
6.96263e-08
6.69098e-08
6.44858e-08
6.23474e-08
6.04191e-08
5.87091e-08
5.7151e-08
5.57641e-08
5.44869e-08
5.33468e-08
5.22868e-08
5.13386e-08
5.04478e-08
4.96506e-08
4.88942e-08
4.82189e-08
4.75701e-08
4.69926e-08
4.64325e-08
4.5936e-08
4.5448e-08
4.50179e-08
4.45903e-08
4.42162e-08
4.38393e-08
4.35127e-08
4.31792e-08
4.28928e-08
4.25958e-08
4.23439e-08
4.20776e-08
4.18545e-08
4.16161e-08
4.1419e-08
4.12037e-08
4.10284e-08
4.08345e-08
4.0679e-08
4.05014e-08
4.03645e-08
4.02036e-08
4.00823e-08
3.99344e-08
3.98245e-08
3.96936e-08
3.95946e-08
3.94735e-08
3.93886e-08
3.9273e-08
3.91972e-08
3.90919e-08
3.90233e-08
3.89264e-08
3.88653e-08
3.87758e-08
3.87147e-08
3.86365e-08
3.85803e-08
3.8508e-08
3.84544e-08
3.8389e-08
3.83376e-08
3.82762e-08
3.82247e-08
3.81637e-08
3.81132e-08
3.80538e-08
3.80052e-08
3.79482e-08
3.79011e-08
3.78466e-08
3.78002e-08
3.77482e-08
3.77019e-08
3.76534e-08
3.7606e-08
3.75623e-08
3.75146e-08
3.74652e-08
3.74094e-08
3.73703e-08
3.77104e-08
3.72627e-06
2.73615e-08
1.24398e-07
1.23646e-07
1.20749e-07
1.15564e-07
1.09079e-07
1.02329e-07
9.58923e-08
9.00573e-08
8.48601e-08
8.0301e-08
7.62878e-08
7.27811e-08
6.96796e-08
6.69593e-08
6.45317e-08
6.23899e-08
6.04585e-08
5.87455e-08
5.71846e-08
5.57951e-08
5.45156e-08
5.33733e-08
5.23112e-08
5.13611e-08
5.04685e-08
4.96697e-08
4.89118e-08
4.82351e-08
4.75849e-08
4.70062e-08
4.6445e-08
4.59474e-08
4.54584e-08
4.50273e-08
4.45988e-08
4.42239e-08
4.38462e-08
4.35188e-08
4.31845e-08
4.28976e-08
4.25999e-08
4.23474e-08
4.20805e-08
4.18569e-08
4.1618e-08
4.14204e-08
4.12046e-08
4.10289e-08
4.08345e-08
4.06787e-08
4.05006e-08
4.03634e-08
4.02021e-08
4.00805e-08
3.99323e-08
3.98221e-08
3.96908e-08
3.95916e-08
3.94702e-08
3.9385e-08
3.92692e-08
3.91932e-08
3.90876e-08
3.90188e-08
3.89217e-08
3.88604e-08
3.87708e-08
3.87094e-08
3.8631e-08
3.85747e-08
3.85023e-08
3.84486e-08
3.8383e-08
3.83316e-08
3.827e-08
3.82184e-08
3.81573e-08
3.81066e-08
3.80471e-08
3.79984e-08
3.79412e-08
3.78941e-08
3.78393e-08
3.77929e-08
3.77407e-08
3.76943e-08
3.76456e-08
3.75982e-08
3.75542e-08
3.75066e-08
3.7457e-08
3.74012e-08
3.73618e-08
3.77068e-08
3.74864e-06
2.81541e-08
1.24395e-07
1.23647e-07
1.20766e-07
1.15603e-07
1.09136e-07
1.02398e-07
9.5967e-08
9.01333e-08
8.49348e-08
8.03728e-08
7.63558e-08
7.28449e-08
6.97392e-08
6.70148e-08
6.45832e-08
6.24376e-08
6.05026e-08
5.87862e-08
5.72223e-08
5.58299e-08
5.45477e-08
5.3403e-08
5.23386e-08
5.13864e-08
5.04918e-08
4.96912e-08
4.89315e-08
4.82533e-08
4.76016e-08
4.70215e-08
4.6459e-08
4.59602e-08
4.54701e-08
4.50379e-08
4.46083e-08
4.42326e-08
4.38539e-08
4.35258e-08
4.31907e-08
4.2903e-08
4.26045e-08
4.23514e-08
4.20839e-08
4.18597e-08
4.16202e-08
4.14221e-08
4.12057e-08
4.10295e-08
4.08346e-08
4.06784e-08
4.04999e-08
4.03622e-08
4.02006e-08
4.00786e-08
3.993e-08
3.98195e-08
3.96878e-08
3.95884e-08
3.94666e-08
3.93812e-08
3.9265e-08
3.91887e-08
3.90829e-08
3.90139e-08
3.89165e-08
3.88549e-08
3.87651e-08
3.87036e-08
3.86249e-08
3.85685e-08
3.8496e-08
3.84422e-08
3.83763e-08
3.83249e-08
3.8263e-08
3.82114e-08
3.81501e-08
3.80994e-08
3.80396e-08
3.79909e-08
3.79335e-08
3.78862e-08
3.78313e-08
3.77847e-08
3.77323e-08
3.76859e-08
3.7637e-08
3.75895e-08
3.75453e-08
3.74976e-08
3.74478e-08
3.73921e-08
3.73523e-08
3.77029e-08
3.77317e-06
2.90474e-08
1.24392e-07
1.23647e-07
1.20785e-07
1.15646e-07
1.092e-07
1.02474e-07
9.60495e-08
9.02174e-08
8.50175e-08
8.04523e-08
7.64312e-08
7.29158e-08
6.98054e-08
6.70763e-08
6.46404e-08
6.24905e-08
6.05516e-08
5.88316e-08
5.72642e-08
5.58686e-08
5.45835e-08
5.3436e-08
5.23691e-08
5.14145e-08
5.05178e-08
4.97151e-08
4.89536e-08
4.82735e-08
4.76202e-08
4.70386e-08
4.64746e-08
4.59745e-08
4.54831e-08
4.50498e-08
4.46191e-08
4.42423e-08
4.38626e-08
4.35336e-08
4.31975e-08
4.29091e-08
4.26098e-08
4.23559e-08
4.20877e-08
4.18628e-08
4.16226e-08
4.1424e-08
4.1207e-08
4.10303e-08
4.08348e-08
4.06781e-08
4.04991e-08
4.03611e-08
4.01989e-08
4.00766e-08
3.99275e-08
3.98167e-08
3.96846e-08
3.95848e-08
3.94626e-08
3.93769e-08
3.92605e-08
3.91839e-08
3.90778e-08
3.90085e-08
3.89108e-08
3.8849e-08
3.8759e-08
3.86973e-08
3.86182e-08
3.85617e-08
3.8489e-08
3.84352e-08
3.8369e-08
3.83176e-08
3.82554e-08
3.82037e-08
3.81423e-08
3.80914e-08
3.80315e-08
3.79826e-08
3.7925e-08
3.78776e-08
3.78224e-08
3.77758e-08
3.77231e-08
3.76767e-08
3.76275e-08
3.75799e-08
3.75354e-08
3.74878e-08
3.74378e-08
3.73821e-08
3.73419e-08
3.76986e-08
3.79969e-06
3.00563e-08
1.24389e-07
1.23647e-07
1.20806e-07
1.15692e-07
1.09269e-07
1.02557e-07
9.61399e-08
9.03097e-08
8.51083e-08
8.05397e-08
7.65142e-08
7.29937e-08
6.98783e-08
6.71441e-08
6.47033e-08
6.25489e-08
6.06056e-08
5.88816e-08
5.73105e-08
5.59114e-08
5.4623e-08
5.34725e-08
5.24028e-08
5.14456e-08
5.05465e-08
4.97416e-08
4.89779e-08
4.8296e-08
4.76408e-08
4.70576e-08
4.6492e-08
4.59904e-08
4.54976e-08
4.5063e-08
4.4631e-08
4.42531e-08
4.38723e-08
4.35423e-08
4.32052e-08
4.29159e-08
4.26157e-08
4.23611e-08
4.2092e-08
4.18664e-08
4.16255e-08
4.14262e-08
4.12085e-08
4.10313e-08
4.08352e-08
4.0678e-08
4.04984e-08
4.03599e-08
4.01972e-08
4.00745e-08
3.99249e-08
3.98137e-08
3.96811e-08
3.9581e-08
3.94584e-08
3.93724e-08
3.92556e-08
3.91787e-08
3.90722e-08
3.90027e-08
3.89047e-08
3.88426e-08
3.87523e-08
3.86903e-08
3.8611e-08
3.85543e-08
3.84815e-08
3.84275e-08
3.83611e-08
3.83097e-08
3.82472e-08
3.81954e-08
3.81337e-08
3.80827e-08
3.80226e-08
3.79735e-08
3.79157e-08
3.78682e-08
3.78128e-08
3.77661e-08
3.77131e-08
3.76666e-08
3.76171e-08
3.75695e-08
3.75247e-08
3.7477e-08
3.74268e-08
3.73711e-08
3.73306e-08
3.7694e-08
3.828e-06
3.11968e-08
1.24385e-07
1.23647e-07
1.20828e-07
1.15743e-07
1.09344e-07
1.02648e-07
9.62384e-08
9.04104e-08
8.52075e-08
8.06352e-08
7.66048e-08
7.3079e-08
6.9958e-08
6.72184e-08
6.47723e-08
6.26128e-08
6.06649e-08
5.89364e-08
5.73612e-08
5.59583e-08
5.46664e-08
5.35126e-08
5.24398e-08
5.14798e-08
5.0578e-08
4.97707e-08
4.90048e-08
4.83207e-08
4.76636e-08
4.70784e-08
4.65111e-08
4.6008e-08
4.55136e-08
4.50776e-08
4.46443e-08
4.42651e-08
4.38831e-08
4.35519e-08
4.32138e-08
4.29235e-08
4.26223e-08
4.23668e-08
4.20968e-08
4.18705e-08
4.16288e-08
4.14288e-08
4.12104e-08
4.10325e-08
4.08357e-08
4.0678e-08
4.04978e-08
4.03587e-08
4.01955e-08
4.00723e-08
3.99222e-08
3.98105e-08
3.96774e-08
3.9577e-08
3.94538e-08
3.93676e-08
3.92503e-08
3.91731e-08
3.90663e-08
3.89964e-08
3.88981e-08
3.88357e-08
3.87451e-08
3.86829e-08
3.86032e-08
3.85464e-08
3.84733e-08
3.84192e-08
3.83525e-08
3.83011e-08
3.82382e-08
3.81864e-08
3.81244e-08
3.80733e-08
3.80129e-08
3.79638e-08
3.79057e-08
3.78581e-08
3.78023e-08
3.77555e-08
3.77023e-08
3.76557e-08
3.76059e-08
3.75582e-08
3.75131e-08
3.74654e-08
3.74149e-08
3.73593e-08
3.73183e-08
3.76892e-08
3.85783e-06
3.24862e-08
1.24382e-07
1.23647e-07
1.20851e-07
1.15798e-07
1.09425e-07
1.02746e-07
9.63452e-08
9.05195e-08
8.53152e-08
8.07389e-08
7.67034e-08
7.31718e-08
7.00448e-08
6.72992e-08
6.48475e-08
6.26825e-08
6.07295e-08
5.89962e-08
5.74165e-08
5.60095e-08
5.47137e-08
5.35563e-08
5.24802e-08
5.15172e-08
5.06125e-08
4.98025e-08
4.90341e-08
4.83478e-08
4.76885e-08
4.71013e-08
4.65321e-08
4.60272e-08
4.55311e-08
4.50936e-08
4.46588e-08
4.42783e-08
4.3895e-08
4.35626e-08
4.32233e-08
4.29319e-08
4.26297e-08
4.23732e-08
4.21023e-08
4.18751e-08
4.16325e-08
4.14318e-08
4.12125e-08
4.1034e-08
4.08364e-08
4.06781e-08
4.04972e-08
4.03576e-08
4.01937e-08
4.007e-08
3.99194e-08
3.98072e-08
3.96736e-08
3.95728e-08
3.94491e-08
3.93624e-08
3.92448e-08
3.91672e-08
3.90599e-08
3.89898e-08
3.8891e-08
3.88283e-08
3.87375e-08
3.86749e-08
3.85949e-08
3.85378e-08
3.84645e-08
3.84104e-08
3.83433e-08
3.82919e-08
3.82286e-08
3.81767e-08
3.81145e-08
3.80633e-08
3.80026e-08
3.79533e-08
3.78949e-08
3.78471e-08
3.77911e-08
3.77442e-08
3.76907e-08
3.76439e-08
3.75938e-08
3.75461e-08
3.75005e-08
3.74528e-08
3.74021e-08
3.73465e-08
3.7305e-08
3.7684e-08
3.88881e-06
3.3943e-08
1.24378e-07
1.23647e-07
1.20876e-07
1.15856e-07
1.09511e-07
1.02852e-07
9.64602e-08
9.06373e-08
8.54315e-08
8.08511e-08
7.68101e-08
7.32722e-08
7.01389e-08
6.73869e-08
6.4929e-08
6.27581e-08
6.07996e-08
5.90611e-08
5.74767e-08
5.60651e-08
5.47652e-08
5.36039e-08
5.25242e-08
5.15579e-08
5.06501e-08
4.98372e-08
4.90661e-08
4.83773e-08
4.77156e-08
4.71264e-08
4.65551e-08
4.60483e-08
4.55504e-08
4.51112e-08
4.46748e-08
4.42928e-08
4.3908e-08
4.35744e-08
4.32338e-08
4.29412e-08
4.26378e-08
4.23803e-08
4.21084e-08
4.18803e-08
4.16367e-08
4.14352e-08
4.1215e-08
4.10358e-08
4.08374e-08
4.06785e-08
4.04968e-08
4.03566e-08
4.0192e-08
4.00677e-08
3.99166e-08
3.98039e-08
3.96696e-08
3.95684e-08
3.94441e-08
3.93571e-08
3.92389e-08
3.9161e-08
3.90532e-08
3.89827e-08
3.88836e-08
3.88204e-08
3.87293e-08
3.86665e-08
3.8586e-08
3.85288e-08
3.84552e-08
3.84009e-08
3.83335e-08
3.82821e-08
3.82184e-08
3.81664e-08
3.81039e-08
3.80525e-08
3.79915e-08
3.7942e-08
3.78834e-08
3.78354e-08
3.77791e-08
3.77321e-08
3.76782e-08
3.76313e-08
3.75809e-08
3.75331e-08
3.74871e-08
3.74394e-08
3.73883e-08
3.73327e-08
3.72909e-08
3.76784e-08
3.92054e-06
3.55871e-08
1.24373e-07
1.23647e-07
1.20902e-07
1.15918e-07
1.09604e-07
1.02965e-07
9.65837e-08
9.0764e-08
8.55567e-08
8.09719e-08
7.69251e-08
7.33806e-08
7.02404e-08
6.74815e-08
6.5017e-08
6.28399e-08
6.08754e-08
5.91314e-08
5.75417e-08
5.61253e-08
5.4821e-08
5.36555e-08
5.2572e-08
5.1602e-08
5.06909e-08
4.98749e-08
4.91009e-08
4.84094e-08
4.77452e-08
4.71536e-08
4.658e-08
4.60712e-08
4.55714e-08
4.51304e-08
4.46922e-08
4.43087e-08
4.39224e-08
4.35873e-08
4.32453e-08
4.29515e-08
4.26468e-08
4.23882e-08
4.21151e-08
4.18861e-08
4.16414e-08
4.1439e-08
4.1218e-08
4.10379e-08
4.08387e-08
4.0679e-08
4.04965e-08
4.03557e-08
4.01903e-08
4.00655e-08
3.99137e-08
3.98004e-08
3.96655e-08
3.95639e-08
3.94389e-08
3.93515e-08
3.92328e-08
3.91544e-08
3.90462e-08
3.89753e-08
3.88757e-08
3.88122e-08
3.87207e-08
3.86576e-08
3.85767e-08
3.85192e-08
3.84453e-08
3.83909e-08
3.83231e-08
3.82717e-08
3.82075e-08
3.81554e-08
3.80926e-08
3.80411e-08
3.79798e-08
3.79301e-08
3.78711e-08
3.7823e-08
3.77663e-08
3.77191e-08
3.76649e-08
3.7618e-08
3.75671e-08
3.75192e-08
3.74728e-08
3.74251e-08
3.73736e-08
3.73181e-08
3.72757e-08
3.76726e-08
3.95251e-06
3.74391e-08
1.24369e-07
1.23646e-07
1.2093e-07
1.15984e-07
1.09703e-07
1.03085e-07
9.67157e-08
9.08995e-08
8.56909e-08
8.11016e-08
7.70486e-08
7.3497e-08
7.03496e-08
6.75834e-08
6.51119e-08
6.2928e-08
6.09571e-08
5.92071e-08
5.76119e-08
5.61903e-08
5.48812e-08
5.37112e-08
5.26235e-08
5.16497e-08
5.0735e-08
4.99157e-08
4.91386e-08
4.84441e-08
4.77772e-08
4.71831e-08
4.66072e-08
4.60961e-08
4.55942e-08
4.51513e-08
4.47113e-08
4.4326e-08
4.3938e-08
4.36014e-08
4.32579e-08
4.29628e-08
4.26568e-08
4.2397e-08
4.21227e-08
4.18925e-08
4.16468e-08
4.14434e-08
4.12213e-08
4.10404e-08
4.08402e-08
4.06798e-08
4.04965e-08
4.03549e-08
4.01888e-08
4.00633e-08
3.99108e-08
3.97969e-08
3.96613e-08
3.95592e-08
3.94335e-08
3.93456e-08
3.92264e-08
3.91476e-08
3.90389e-08
3.89675e-08
3.88675e-08
3.88035e-08
3.87117e-08
3.86482e-08
3.85668e-08
3.8509e-08
3.84348e-08
3.83803e-08
3.83121e-08
3.82607e-08
3.8196e-08
3.81438e-08
3.80807e-08
3.8029e-08
3.79674e-08
3.79175e-08
3.78581e-08
3.78099e-08
3.77528e-08
3.77054e-08
3.76508e-08
3.76037e-08
3.75525e-08
3.75045e-08
3.74576e-08
3.74099e-08
3.73581e-08
3.73026e-08
3.72597e-08
3.76663e-08
3.98413e-06
3.95209e-08
1.24364e-07
1.23646e-07
1.20959e-07
1.16054e-07
1.09808e-07
1.03213e-07
9.68563e-08
9.10442e-08
8.58342e-08
8.12403e-08
7.71809e-08
7.36218e-08
7.04666e-08
6.76927e-08
6.52136e-08
6.30225e-08
6.1045e-08
5.92886e-08
5.76874e-08
5.62603e-08
5.4946e-08
5.37713e-08
5.26791e-08
5.17011e-08
5.07826e-08
4.99597e-08
4.91792e-08
4.84817e-08
4.78119e-08
4.7215e-08
4.66365e-08
4.61232e-08
4.56189e-08
4.5174e-08
4.47319e-08
4.43448e-08
4.39551e-08
4.36169e-08
4.32717e-08
4.29752e-08
4.26677e-08
4.24067e-08
4.2131e-08
4.18998e-08
4.16528e-08
4.14484e-08
4.12252e-08
4.10434e-08
4.08422e-08
4.0681e-08
4.04967e-08
4.03544e-08
4.01874e-08
4.00613e-08
3.9908e-08
3.97935e-08
3.96571e-08
3.95544e-08
3.9428e-08
3.93397e-08
3.92198e-08
3.91405e-08
3.90312e-08
3.89595e-08
3.88589e-08
3.87945e-08
3.87023e-08
3.86384e-08
3.85565e-08
3.84984e-08
3.84239e-08
3.83691e-08
3.83005e-08
3.82491e-08
3.8184e-08
3.81317e-08
3.80681e-08
3.80162e-08
3.79543e-08
3.79042e-08
3.78444e-08
3.7796e-08
3.77385e-08
3.7691e-08
3.7636e-08
3.75888e-08
3.75371e-08
3.7489e-08
3.74416e-08
3.73938e-08
3.73416e-08
3.72862e-08
3.72428e-08
3.76597e-08
4.01472e-06
4.18547e-08
1.24359e-07
1.23645e-07
1.2099e-07
1.16127e-07
1.09919e-07
1.03349e-07
9.70057e-08
9.11982e-08
8.5987e-08
8.13883e-08
7.7322e-08
7.37552e-08
7.05918e-08
6.78096e-08
6.53226e-08
6.31238e-08
6.11391e-08
5.93759e-08
5.77684e-08
5.63354e-08
5.50156e-08
5.38357e-08
5.27388e-08
5.17564e-08
5.08338e-08
5.00071e-08
4.9223e-08
4.85222e-08
4.78493e-08
4.72495e-08
4.66683e-08
4.61524e-08
4.56458e-08
4.51986e-08
4.47544e-08
4.43653e-08
4.39736e-08
4.36337e-08
4.32868e-08
4.29887e-08
4.26797e-08
4.24173e-08
4.21403e-08
4.19078e-08
4.16595e-08
4.14541e-08
4.12297e-08
4.10469e-08
4.08446e-08
4.06825e-08
4.04973e-08
4.03541e-08
4.01862e-08
4.00593e-08
3.99053e-08
3.97901e-08
3.96528e-08
3.95497e-08
3.94225e-08
3.93336e-08
3.92131e-08
3.91333e-08
3.90234e-08
3.89511e-08
3.885e-08
3.87851e-08
3.86925e-08
3.86282e-08
3.85458e-08
3.84874e-08
3.84124e-08
3.83575e-08
3.82884e-08
3.8237e-08
3.81713e-08
3.81189e-08
3.80549e-08
3.80029e-08
3.79405e-08
3.78903e-08
3.78301e-08
3.77814e-08
3.77235e-08
3.76759e-08
3.76204e-08
3.7573e-08
3.75208e-08
3.74727e-08
3.74247e-08
3.73769e-08
3.73243e-08
3.72689e-08
3.7225e-08
3.76527e-08
4.0435e-06
4.44638e-08
1.24354e-07
1.23644e-07
1.21022e-07
1.16204e-07
1.10035e-07
1.03493e-07
9.7164e-08
9.13616e-08
8.61494e-08
8.15457e-08
7.74724e-08
7.38973e-08
7.07253e-08
6.79344e-08
6.5439e-08
6.32321e-08
6.12397e-08
5.94693e-08
5.78551e-08
5.64158e-08
5.50901e-08
5.39048e-08
5.28029e-08
5.18158e-08
5.08888e-08
5.0058e-08
4.92701e-08
4.85657e-08
4.78895e-08
4.72867e-08
4.67025e-08
4.61839e-08
4.56747e-08
4.52252e-08
4.47787e-08
4.43875e-08
4.39938e-08
4.3652e-08
4.33033e-08
4.30036e-08
4.26929e-08
4.2429e-08
4.21505e-08
4.19167e-08
4.1667e-08
4.14604e-08
4.12349e-08
4.1051e-08
4.08475e-08
4.06845e-08
4.04982e-08
4.03542e-08
4.01853e-08
4.00576e-08
3.99027e-08
3.97868e-08
3.96487e-08
3.95449e-08
3.94169e-08
3.93274e-08
3.92063e-08
3.91259e-08
3.90154e-08
3.89426e-08
3.88409e-08
3.87755e-08
3.86824e-08
3.86176e-08
3.85347e-08
3.84759e-08
3.84005e-08
3.83454e-08
3.82759e-08
3.82244e-08
3.81581e-08
3.81057e-08
3.80412e-08
3.7989e-08
3.79262e-08
3.78757e-08
3.78151e-08
3.77662e-08
3.77078e-08
3.766e-08
3.7604e-08
3.75565e-08
3.75038e-08
3.74556e-08
3.7407e-08
3.73591e-08
3.73061e-08
3.72507e-08
3.72063e-08
3.76452e-08
4.06962e-06
4.73717e-08
1.24348e-07
1.23643e-07
1.21055e-07
1.16284e-07
1.10158e-07
1.03645e-07
9.73312e-08
9.15345e-08
8.63214e-08
8.17127e-08
7.76321e-08
7.40484e-08
7.08673e-08
6.80673e-08
6.5563e-08
6.33475e-08
6.1347e-08
5.9569e-08
5.79477e-08
5.65017e-08
5.51699e-08
5.39788e-08
5.28714e-08
5.18794e-08
5.09477e-08
5.01126e-08
4.93207e-08
4.86125e-08
4.79327e-08
4.73267e-08
4.67394e-08
4.62179e-08
4.5706e-08
4.52539e-08
4.4805e-08
4.44116e-08
4.40157e-08
4.36719e-08
4.33212e-08
4.30197e-08
4.27073e-08
4.24419e-08
4.21618e-08
4.19266e-08
4.16755e-08
4.14676e-08
4.12407e-08
4.10557e-08
4.0851e-08
4.06871e-08
4.04996e-08
4.03547e-08
4.01847e-08
4.00562e-08
3.99004e-08
3.97836e-08
3.96446e-08
3.95402e-08
3.94113e-08
3.93213e-08
3.91994e-08
3.91184e-08
3.90072e-08
3.89339e-08
3.88316e-08
3.87656e-08
3.8672e-08
3.86067e-08
3.85233e-08
3.84641e-08
3.83882e-08
3.83329e-08
3.82629e-08
3.82113e-08
3.81444e-08
3.80919e-08
3.80269e-08
3.79745e-08
3.79113e-08
3.78606e-08
3.77995e-08
3.77504e-08
3.76915e-08
3.76435e-08
3.7587e-08
3.75393e-08
3.74861e-08
3.74378e-08
3.73886e-08
3.73406e-08
3.7287e-08
3.72318e-08
3.71867e-08
3.76372e-08
4.09213e-06
5.06006e-08
1.24342e-07
1.23642e-07
1.21089e-07
1.16368e-07
1.10287e-07
1.03804e-07
9.75075e-08
9.17171e-08
8.65035e-08
8.18896e-08
7.78014e-08
7.42087e-08
7.10182e-08
6.82085e-08
6.56949e-08
6.34704e-08
6.14614e-08
5.96753e-08
5.80465e-08
5.65933e-08
5.5255e-08
5.40577e-08
5.29447e-08
5.19473e-08
5.10107e-08
5.0171e-08
4.93748e-08
4.86627e-08
4.79792e-08
4.73696e-08
4.6779e-08
4.62545e-08
4.57396e-08
4.52849e-08
4.48333e-08
4.44376e-08
4.40394e-08
4.36935e-08
4.33408e-08
4.30374e-08
4.27231e-08
4.2456e-08
4.21742e-08
4.19375e-08
4.16849e-08
4.14757e-08
4.12474e-08
4.10612e-08
4.08552e-08
4.06902e-08
4.05015e-08
4.03556e-08
4.01845e-08
4.00551e-08
3.98983e-08
3.97808e-08
3.96407e-08
3.95357e-08
3.94058e-08
3.93151e-08
3.91925e-08
3.91108e-08
3.89989e-08
3.8925e-08
3.8822e-08
3.87555e-08
3.86614e-08
3.85956e-08
3.85115e-08
3.84519e-08
3.83755e-08
3.83199e-08
3.82494e-08
3.81977e-08
3.81303e-08
3.80777e-08
3.80121e-08
3.79596e-08
3.78958e-08
3.78449e-08
3.77833e-08
3.7734e-08
3.76745e-08
3.76263e-08
3.75693e-08
3.75214e-08
3.74676e-08
3.74192e-08
3.73693e-08
3.73213e-08
3.72672e-08
3.7212e-08
3.71664e-08
3.76286e-08
4.11e-06
5.41719e-08
1.24336e-07
1.2364e-07
1.21124e-07
1.16456e-07
1.10421e-07
1.03971e-07
9.76929e-08
9.19096e-08
8.66956e-08
8.20766e-08
7.79806e-08
7.43786e-08
7.11782e-08
6.83584e-08
6.58349e-08
6.36009e-08
6.15829e-08
5.97883e-08
5.81515e-08
5.6691e-08
5.53457e-08
5.4142e-08
5.30229e-08
5.20199e-08
5.10781e-08
5.02335e-08
4.94327e-08
4.87164e-08
4.80289e-08
4.74156e-08
4.68215e-08
4.62938e-08
4.57758e-08
4.53182e-08
4.48639e-08
4.44657e-08
4.4065e-08
4.37169e-08
4.3362e-08
4.30566e-08
4.27403e-08
4.24715e-08
4.21879e-08
4.19497e-08
4.16953e-08
4.14847e-08
4.12549e-08
4.10675e-08
4.08601e-08
4.0694e-08
4.0504e-08
4.03571e-08
4.01848e-08
4.00545e-08
3.98966e-08
3.97782e-08
3.96371e-08
3.95313e-08
3.94004e-08
3.93091e-08
3.91856e-08
3.91033e-08
3.89906e-08
3.89161e-08
3.88124e-08
3.87453e-08
3.86506e-08
3.85843e-08
3.84995e-08
3.84395e-08
3.83624e-08
3.83067e-08
3.82356e-08
3.81838e-08
3.81158e-08
3.80631e-08
3.79969e-08
3.79442e-08
3.78799e-08
3.78287e-08
3.77666e-08
3.7717e-08
3.7657e-08
3.76086e-08
3.75509e-08
3.75029e-08
3.74485e-08
3.74e-08
3.73494e-08
3.73013e-08
3.72466e-08
3.71915e-08
3.71453e-08
3.76194e-08
4.12214e-06
5.81041e-08
1.2433e-07
1.23638e-07
1.2116e-07
1.16547e-07
1.10562e-07
1.04146e-07
9.78875e-08
9.21121e-08
8.68981e-08
8.22739e-08
7.817e-08
7.45582e-08
7.13475e-08
6.85171e-08
6.59834e-08
6.37394e-08
6.1712e-08
5.99083e-08
5.82632e-08
5.67948e-08
5.54422e-08
5.42316e-08
5.31062e-08
5.20973e-08
5.11499e-08
5.03002e-08
4.94946e-08
4.87738e-08
4.80821e-08
4.74649e-08
4.68671e-08
4.63359e-08
4.58147e-08
4.53541e-08
4.48969e-08
4.44961e-08
4.40927e-08
4.37423e-08
4.3385e-08
4.30776e-08
4.27591e-08
4.24884e-08
4.22029e-08
4.1963e-08
4.17069e-08
4.14949e-08
4.12635e-08
4.10747e-08