/*--------------------------------*- C++ -*----------------------------------*\
| =========                 |                                                 |
| \\      /  F ield         | OpenFOAM: The Open Source CFD Toolbox           |
|  \\    /   O peration     | Version:  v2012                                 |
|   \\  /    A nd           | Website:  www.openfoam.com                      |
|    \\/     M anipulation  |                                                 |
\*---------------------------------------------------------------------------*/
FoamFile
{
    version     2.0;
    format      ascii;
    class       volVectorField;
    location    "46.5";
    object      wallShearStress;
}
// * * * * * * * * * * * * * * * * * * * * * * * * * * * * * * * * * * * * * //

dimensions      [0 2 -2 0 0 0 0];


internalField   uniform (0 0 0);

boundaryField
{
    inlet
    {
        type            calculated;
        value           uniform (0 0 0);
    }
    outlet
    {
        type            calculated;
        value           uniform (0 0 0);
    }
    topWall
    {
        type            calculated;
        value           nonuniform List<vector> 
545
(
(6.85064e-08 -4.822e-08 0)
(6.84898e-08 -1.34907e-07 0)
(6.84429e-08 -2.25039e-07 0)
(6.83794e-08 -3.12552e-07 0)
(6.8303e-08 -3.96327e-07 0)
(6.82131e-08 -4.77442e-07 0)
(6.81108e-08 -5.56585e-07 0)
(6.79968e-08 -6.3372e-07 0)
(6.7872e-08 -7.08676e-07 0)
(6.77375e-08 -7.81453e-07 0)
(6.75942e-08 -8.52146e-07 0)
(6.7443e-08 -9.20836e-07 0)
(6.72846e-08 -9.8757e-07 0)
(6.71198e-08 -1.05239e-06 0)
(6.69494e-08 -1.11534e-06 0)
(6.67739e-08 -1.17646e-06 0)
(6.6594e-08 -1.23582e-06 0)
(6.64102e-08 -1.29346e-06 0)
(6.62232e-08 -1.34942e-06 0)
(6.60335e-08 -1.40375e-06 0)
(6.58414e-08 -1.45649e-06 0)
(6.56474e-08 -1.50769e-06 0)
(6.54521e-08 -1.55739e-06 0)
(6.52556e-08 -1.60564e-06 0)
(6.50585e-08 -1.65248e-06 0)
(6.4861e-08 -1.69794e-06 0)
(6.46634e-08 -1.74207e-06 0)
(6.4466e-08 -1.7849e-06 0)
(6.42691e-08 -1.82647e-06 0)
(6.4073e-08 -1.86683e-06 0)
(6.38777e-08 -1.906e-06 0)
(6.36836e-08 -1.94403e-06 0)
(6.34908e-08 -1.98093e-06 0)
(6.32996e-08 -2.01676e-06 0)
(6.31099e-08 -2.05154e-06 0)
(6.29221e-08 -2.0853e-06 0)
(6.27362e-08 -2.11807e-06 0)
(6.25523e-08 -2.14988e-06 0)
(6.23705e-08 -2.18076e-06 0)
(6.2191e-08 -2.21075e-06 0)
(6.20137e-08 -2.23985e-06 0)
(6.18388e-08 -2.26811e-06 0)
(6.16664e-08 -2.29555e-06 0)
(6.14964e-08 -2.32219e-06 0)
(6.1329e-08 -2.34806e-06 0)
(6.11642e-08 -2.37317e-06 0)
(6.10019e-08 -2.39756e-06 0)
(6.08423e-08 -2.42125e-06 0)
(6.06853e-08 -2.44425e-06 0)
(6.0531e-08 -2.46658e-06 0)
(6.03793e-08 -2.48827e-06 0)
(6.02303e-08 -2.50934e-06 0)
(6.0084e-08 -2.5298e-06 0)
(5.99404e-08 -2.54967e-06 0)
(5.97994e-08 -2.56898e-06 0)
(5.9661e-08 -2.58773e-06 0)
(5.95253e-08 -2.60594e-06 0)
(5.93922e-08 -2.62364e-06 0)
(5.92617e-08 -2.64082e-06 0)
(5.91338e-08 -2.65752e-06 0)
(5.90084e-08 -2.67375e-06 0)
(5.88855e-08 -2.68951e-06 0)
(5.87652e-08 -2.70483e-06 0)
(5.86473e-08 -2.71971e-06 0)
(5.85318e-08 -2.73417e-06 0)
(5.84187e-08 -2.74822e-06 0)
(5.8308e-08 -2.76188e-06 0)
(5.81996e-08 -2.77515e-06 0)
(5.80935e-08 -2.78805e-06 0)
(5.79897e-08 -2.80058e-06 0)
(5.78881e-08 -2.81277e-06 0)
(5.77885e-08 -2.82459e-06 0)
(5.76919e-08 -2.83596e-06 0)
(5.75984e-08 -2.847e-06 0)
(5.75058e-08 -2.85792e-06 0)
(5.74134e-08 -2.86878e-06 0)
(5.73212e-08 -2.87959e-06 0)
(5.72291e-08 -2.89034e-06 0)
(5.71371e-08 -2.90101e-06 0)
(5.70451e-08 -2.91162e-06 0)
(5.69533e-08 -2.92217e-06 0)
(5.68615e-08 -2.93264e-06 0)
(5.67699e-08 -2.94306e-06 0)
(5.66783e-08 -2.95341e-06 0)
(5.65869e-08 -2.96369e-06 0)
(5.64956e-08 -2.97392e-06 0)
(5.64044e-08 -2.98407e-06 0)
(5.63133e-08 -2.99417e-06 0)
(5.62224e-08 -3.0042e-06 0)
(5.61315e-08 -3.01418e-06 0)
(5.60408e-08 -3.02409e-06 0)
(5.59502e-08 -3.03393e-06 0)
(5.58599e-08 -3.04373e-06 0)
(5.57694e-08 -3.05344e-06 0)
(5.56802e-08 -3.06314e-06 0)
(5.55876e-08 -3.07265e-06 0)
(5.54981e-08 -3.08135e-06 0)
(5.54201e-08 -3.08928e-06 0)
(5.5346e-08 -3.09697e-06 0)
(5.52722e-08 -3.10468e-06 0)
(5.51982e-08 -3.11247e-06 0)
(5.51239e-08 -3.12028e-06 0)
(5.50492e-08 -3.12809e-06 0)
(5.49742e-08 -3.13589e-06 0)
(5.48989e-08 -3.14371e-06 0)
(5.48232e-08 -3.15153e-06 0)
(5.47471e-08 -3.15937e-06 0)
(5.46707e-08 -3.16721e-06 0)
(5.4594e-08 -3.17505e-06 0)
(5.45168e-08 -3.18291e-06 0)
(5.44394e-08 -3.19077e-06 0)
(5.43615e-08 -3.19864e-06 0)
(5.42833e-08 -3.20652e-06 0)
(5.42048e-08 -3.2144e-06 0)
(5.41259e-08 -3.22229e-06 0)
(5.40466e-08 -3.23019e-06 0)
(5.3967e-08 -3.23809e-06 0)
(5.3887e-08 -3.24601e-06 0)
(5.38066e-08 -3.25393e-06 0)
(5.37259e-08 -3.26185e-06 0)
(5.36448e-08 -3.26978e-06 0)
(5.35633e-08 -3.27772e-06 0)
(5.34815e-08 -3.28567e-06 0)
(5.33993e-08 -3.29362e-06 0)
(5.33167e-08 -3.30158e-06 0)
(5.32338e-08 -3.30954e-06 0)
(5.31505e-08 -3.31752e-06 0)
(5.30668e-08 -3.32549e-06 0)
(5.29827e-08 -3.33348e-06 0)
(5.28983e-08 -3.34147e-06 0)
(5.28135e-08 -3.34946e-06 0)
(5.27283e-08 -3.35747e-06 0)
(5.26428e-08 -3.36547e-06 0)
(5.25568e-08 -3.37349e-06 0)
(5.24705e-08 -3.38151e-06 0)
(5.23838e-08 -3.38953e-06 0)
(5.22967e-08 -3.39756e-06 0)
(5.22093e-08 -3.4056e-06 0)
(5.21214e-08 -3.41364e-06 0)
(5.20332e-08 -3.42169e-06 0)
(5.19446e-08 -3.42974e-06 0)
(5.18556e-08 -3.4378e-06 0)
(5.17662e-08 -3.44586e-06 0)
(5.16764e-08 -3.45393e-06 0)
(5.15862e-08 -3.462e-06 0)
(5.14957e-08 -3.47008e-06 0)
(5.14048e-08 -3.47816e-06 0)
(5.13134e-08 -3.48625e-06 0)
(5.12217e-08 -3.49434e-06 0)
(5.11296e-08 -3.50244e-06 0)
(5.10371e-08 -3.51054e-06 0)
(5.09442e-08 -3.51864e-06 0)
(5.08509e-08 -3.52675e-06 0)
(5.07572e-08 -3.53486e-06 0)
(5.06631e-08 -3.54298e-06 0)
(5.05687e-08 -3.5511e-06 0)
(5.04738e-08 -3.55923e-06 0)
(5.03785e-08 -3.56736e-06 0)
(5.02829e-08 -3.57549e-06 0)
(5.01868e-08 -3.58363e-06 0)
(5.00903e-08 -3.59177e-06 0)
(4.99935e-08 -3.59991e-06 0)
(4.98962e-08 -3.60806e-06 0)
(4.97986e-08 -3.61621e-06 0)
(4.97005e-08 -3.62436e-06 0)
(4.9602e-08 -3.63252e-06 0)
(4.95032e-08 -3.64068e-06 0)
(4.94039e-08 -3.64884e-06 0)
(4.93042e-08 -3.65701e-06 0)
(4.92041e-08 -3.66518e-06 0)
(4.91037e-08 -3.67335e-06 0)
(4.90028e-08 -3.68152e-06 0)
(4.89015e-08 -3.6897e-06 0)
(4.87998e-08 -3.69787e-06 0)
(4.86977e-08 -3.70605e-06 0)
(4.85952e-08 -3.71424e-06 0)
(4.84922e-08 -3.72242e-06 0)
(4.83889e-08 -3.73061e-06 0)
(4.82852e-08 -3.73879e-06 0)
(4.8181e-08 -3.74698e-06 0)
(4.80765e-08 -3.75517e-06 0)
(4.79715e-08 -3.76337e-06 0)
(4.78662e-08 -3.77156e-06 0)
(4.77604e-08 -3.77976e-06 0)
(4.76542e-08 -3.78795e-06 0)
(4.75476e-08 -3.79615e-06 0)
(4.74406e-08 -3.80435e-06 0)
(4.73332e-08 -3.81255e-06 0)
(4.72253e-08 -3.82074e-06 0)
(4.71171e-08 -3.82895e-06 0)
(4.70085e-08 -3.83715e-06 0)
(4.68994e-08 -3.84535e-06 0)
(4.67899e-08 -3.85355e-06 0)
(4.668e-08 -3.86175e-06 0)
(4.65698e-08 -3.86995e-06 0)
(4.64591e-08 -3.87815e-06 0)
(4.63479e-08 -3.88635e-06 0)
(4.62364e-08 -3.89455e-06 0)
(4.61245e-08 -3.90275e-06 0)
(4.60121e-08 -3.91095e-06 0)
(4.58994e-08 -3.91915e-06 0)
(4.57862e-08 -3.92735e-06 0)
(4.56726e-08 -3.93554e-06 0)
(4.55586e-08 -3.94374e-06 0)
(4.54442e-08 -3.95193e-06 0)
(4.53294e-08 -3.96012e-06 0)
(4.52142e-08 -3.96831e-06 0)
(4.50985e-08 -3.9765e-06 0)
(4.49825e-08 -3.98469e-06 0)
(4.4866e-08 -3.99288e-06 0)
(4.47492e-08 -4.00106e-06 0)
(4.46319e-08 -4.00924e-06 0)
(4.45142e-08 -4.01742e-06 0)
(4.43961e-08 -4.0256e-06 0)
(4.42776e-08 -4.03377e-06 0)
(4.41587e-08 -4.04195e-06 0)
(4.40394e-08 -4.05012e-06 0)
(4.39196e-08 -4.05828e-06 0)
(4.37995e-08 -4.06644e-06 0)
(4.3679e-08 -4.07461e-06 0)
(4.3558e-08 -4.08276e-06 0)
(4.34367e-08 -4.09091e-06 0)
(4.33149e-08 -4.09906e-06 0)
(4.31928e-08 -4.10721e-06 0)
(4.30702e-08 -4.11535e-06 0)
(4.29472e-08 -4.12349e-06 0)
(4.28239e-08 -4.13162e-06 0)
(4.27001e-08 -4.13975e-06 0)
(4.25759e-08 -4.14788e-06 0)
(4.24514e-08 -4.156e-06 0)
(4.23264e-08 -4.16411e-06 0)
(4.2201e-08 -4.17222e-06 0)
(4.20752e-08 -4.18033e-06 0)
(4.19491e-08 -4.18843e-06 0)
(4.18225e-08 -4.19652e-06 0)
(4.16956e-08 -4.20461e-06 0)
(4.15682e-08 -4.2127e-06 0)
(4.14405e-08 -4.22077e-06 0)
(4.13123e-08 -4.22885e-06 0)
(4.11838e-08 -4.23691e-06 0)
(4.10549e-08 -4.24497e-06 0)
(4.09256e-08 -4.25303e-06 0)
(4.07959e-08 -4.26107e-06 0)
(4.06658e-08 -4.26911e-06 0)
(4.05353e-08 -4.27715e-06 0)
(4.04044e-08 -4.28517e-06 0)
(4.02732e-08 -4.29319e-06 0)
(4.01416e-08 -4.3012e-06 0)
(4.00096e-08 -4.30921e-06 0)
(3.98772e-08 -4.31721e-06 0)
(3.97444e-08 -4.32519e-06 0)
(3.96113e-08 -4.33318e-06 0)
(3.94777e-08 -4.34115e-06 0)
(3.93439e-08 -4.34911e-06 0)
(3.92096e-08 -4.35707e-06 0)
(3.90749e-08 -4.36502e-06 0)
(3.89399e-08 -4.37296e-06 0)
(3.88046e-08 -4.38089e-06 0)
(3.86688e-08 -4.38881e-06 0)
(3.85327e-08 -4.39672e-06 0)
(3.83962e-08 -4.40462e-06 0)
(3.82594e-08 -4.41252e-06 0)
(3.81222e-08 -4.4204e-06 0)
(3.79846e-08 -4.42827e-06 0)
(3.78467e-08 -4.43614e-06 0)
(3.77085e-08 -4.44399e-06 0)
(3.75698e-08 -4.45183e-06 0)
(3.74317e-08 -4.45969e-06 0)
(3.72929e-08 -4.46745e-06 0)
(3.71543e-08 -4.47483e-06 0)
(3.70235e-08 -4.48189e-06 0)
(3.68978e-08 -4.48887e-06 0)
(3.67708e-08 -4.49589e-06 0)
(3.66427e-08 -4.503e-06 0)
(3.65131e-08 -4.51018e-06 0)
(3.63821e-08 -4.51741e-06 0)
(3.62497e-08 -4.52468e-06 0)
(3.61158e-08 -4.532e-06 0)
(3.59804e-08 -4.53938e-06 0)
(3.58436e-08 -4.54681e-06 0)
(3.57052e-08 -4.55428e-06 0)
(3.55653e-08 -4.56182e-06 0)
(3.54239e-08 -4.5694e-06 0)
(3.5281e-08 -4.57704e-06 0)
(3.51365e-08 -4.58472e-06 0)
(3.49904e-08 -4.59246e-06 0)
(3.48428e-08 -4.60025e-06 0)
(3.46936e-08 -4.60809e-06 0)
(3.45428e-08 -4.61598e-06 0)
(3.43904e-08 -4.62393e-06 0)
(3.42363e-08 -4.63192e-06 0)
(3.40806e-08 -4.63996e-06 0)
(3.39233e-08 -4.64806e-06 0)
(3.37643e-08 -4.6562e-06 0)
(3.36036e-08 -4.66439e-06 0)
(3.34413e-08 -4.67264e-06 0)
(3.32772e-08 -4.68093e-06 0)
(3.31114e-08 -4.68927e-06 0)
(3.29439e-08 -4.69766e-06 0)
(3.27747e-08 -4.70609e-06 0)
(3.26037e-08 -4.71458e-06 0)
(3.2431e-08 -4.72311e-06 0)
(3.22564e-08 -4.73168e-06 0)
(3.20802e-08 -4.74031e-06 0)
(3.19021e-08 -4.74898e-06 0)
(3.17222e-08 -4.75769e-06 0)
(3.15405e-08 -4.76645e-06 0)
(3.1357e-08 -4.77525e-06 0)
(3.11716e-08 -4.7841e-06 0)
(3.09844e-08 -4.79299e-06 0)
(3.07954e-08 -4.80192e-06 0)
(3.06045e-08 -4.81089e-06 0)
(3.04117e-08 -4.81991e-06 0)
(3.0217e-08 -4.82896e-06 0)
(3.00205e-08 -4.83805e-06 0)
(2.9822e-08 -4.84719e-06 0)
(2.96217e-08 -4.85635e-06 0)
(2.94194e-08 -4.86556e-06 0)
(2.92152e-08 -4.8748e-06 0)
(2.90092e-08 -4.88408e-06 0)
(2.88011e-08 -4.89339e-06 0)
(2.85912e-08 -4.90273e-06 0)
(2.83793e-08 -4.91211e-06 0)
(2.81655e-08 -4.92152e-06 0)
(2.79497e-08 -4.93095e-06 0)
(2.7732e-08 -4.94042e-06 0)
(2.75123e-08 -4.94991e-06 0)
(2.72906e-08 -4.95943e-06 0)
(2.70671e-08 -4.96897e-06 0)
(2.68415e-08 -4.97854e-06 0)
(2.6614e-08 -4.98813e-06 0)
(2.63846e-08 -4.99775e-06 0)
(2.61532e-08 -5.00738e-06 0)
(2.59198e-08 -5.01703e-06 0)
(2.56845e-08 -5.0267e-06 0)
(2.54473e-08 -5.03638e-06 0)
(2.52081e-08 -5.04608e-06 0)
(2.4967e-08 -5.05579e-06 0)
(2.47239e-08 -5.06551e-06 0)
(2.44789e-08 -5.07524e-06 0)
(2.4232e-08 -5.08497e-06 0)
(2.39832e-08 -5.09471e-06 0)
(2.37325e-08 -5.10446e-06 0)
(2.348e-08 -5.11421e-06 0)
(2.32255e-08 -5.12395e-06 0)
(2.29692e-08 -5.1337e-06 0)
(2.27111e-08 -5.14344e-06 0)
(2.24511e-08 -5.15318e-06 0)
(2.21893e-08 -5.1629e-06 0)
(2.19257e-08 -5.17262e-06 0)
(2.16603e-08 -5.18232e-06 0)
(2.13932e-08 -5.19202e-06 0)
(2.11243e-08 -5.20169e-06 0)
(2.08538e-08 -5.21134e-06 0)
(2.05815e-08 -5.22097e-06 0)
(2.03076e-08 -5.23058e-06 0)
(2.0032e-08 -5.24016e-06 0)
(1.97548e-08 -5.24972e-06 0)
(1.9476e-08 -5.25924e-06 0)
(1.91957e-08 -5.26873e-06 0)
(1.89138e-08 -5.27818e-06 0)
(1.86305e-08 -5.28759e-06 0)
(1.83457e-08 -5.29696e-06 0)
(1.80595e-08 -5.30629e-06 0)
(1.77719e-08 -5.31556e-06 0)
(1.7483e-08 -5.3248e-06 0)
(1.71928e-08 -5.33397e-06 0)
(1.69013e-08 -5.34309e-06 0)
(1.66086e-08 -5.35214e-06 0)
(1.63148e-08 -5.36114e-06 0)
(1.60198e-08 -5.37007e-06 0)
(1.57237e-08 -5.37894e-06 0)
(1.54267e-08 -5.38773e-06 0)
(1.51287e-08 -5.39645e-06 0)
(1.48297e-08 -5.40509e-06 0)
(1.45299e-08 -5.41365e-06 0)
(1.42293e-08 -5.42212e-06 0)
(1.3928e-08 -5.43051e-06 0)
(1.3626e-08 -5.4388e-06 0)
(1.33234e-08 -5.44701e-06 0)
(1.30203e-08 -5.45511e-06 0)
(1.27166e-08 -5.46311e-06 0)
(1.24125e-08 -5.47101e-06 0)
(1.21081e-08 -5.4788e-06 0)
(1.18034e-08 -5.48647e-06 0)
(1.14986e-08 -5.49404e-06 0)
(1.11935e-08 -5.50148e-06 0)
(1.08885e-08 -5.50881e-06 0)
(1.05834e-08 -5.516e-06 0)
(1.02785e-08 -5.52308e-06 0)
(9.97374e-09 -5.53001e-06 0)
(9.66927e-09 -5.53681e-06 0)
(9.36512e-09 -5.54347e-06 0)
(9.06143e-09 -5.54999e-06 0)
(8.75823e-09 -5.55635e-06 0)
(8.45567e-09 -5.56258e-06 0)
(8.15378e-09 -5.56864e-06 0)
(7.8527e-09 -5.57455e-06 0)
(7.55249e-09 -5.58029e-06 0)
(7.25326e-09 -5.58588e-06 0)
(6.95507e-09 -5.59129e-06 0)
(6.65806e-09 -5.59654e-06 0)
(6.36229e-09 -5.6016e-06 0)
(6.06789e-09 -5.6065e-06 0)
(5.77492e-09 -5.6112e-06 0)
(5.48351e-09 -5.61573e-06 0)
(5.19373e-09 -5.62005e-06 0)
(4.9057e-09 -5.6242e-06 0)
(4.61951e-09 -5.62815e-06 0)
(4.33527e-09 -5.63191e-06 0)
(4.05306e-09 -5.63545e-06 0)
(3.77301e-09 -5.6388e-06 0)
(3.49519e-09 -5.64193e-06 0)
(3.21973e-09 -5.64487e-06 0)
(2.94671e-09 -5.64758e-06 0)
(2.67625e-09 -5.65009e-06 0)
(2.40843e-09 -5.65237e-06 0)
(2.14337e-09 -5.65444e-06 0)
(1.88116e-09 -5.65628e-06 0)
(1.6219e-09 -5.6579e-06 0)
(1.36569e-09 -5.65929e-06 0)
(1.11263e-09 -5.66046e-06 0)
(8.62808e-10 -5.66138e-06 0)
(6.16332e-10 -5.66208e-06 0)
(3.73288e-10 -5.66253e-06 0)
(1.33773e-10 -5.66277e-06 0)
(-1.02125e-10 -5.66274e-06 0)
(-3.34316e-10 -5.6625e-06 0)
(-5.62713e-10 -5.66199e-06 0)
(-7.87232e-10 -5.66126e-06 0)
(-1.00779e-09 -5.66027e-06 0)
(-1.2243e-09 -5.65906e-06 0)
(-1.43669e-09 -5.65757e-06 0)
(-1.64489e-09 -5.65587e-06 0)
(-1.84882e-09 -5.65389e-06 0)
(-2.0484e-09 -5.6517e-06 0)
(-2.24357e-09 -5.64923e-06 0)
(-2.43428e-09 -5.64654e-06 0)
(-2.62043e-09 -5.64357e-06 0)
(-2.80199e-09 -5.64039e-06 0)
(-2.97887e-09 -5.63693e-06 0)
(-3.15106e-09 -5.63326e-06 0)
(-3.31845e-09 -5.62931e-06 0)
(-3.48102e-09 -5.62515e-06 0)
(-3.63869e-09 -5.62072e-06 0)
(-3.79146e-09 -5.61607e-06 0)
(-3.93917e-09 -5.61116e-06 0)
(-4.08209e-09 -5.60605e-06 0)
(-4.21921e-09 -5.60063e-06 0)
(-4.35536e-09 -5.59501e-06 0)
(-4.49515e-09 -5.58856e-06 0)
(-4.63643e-09 -5.58118e-06 0)
(-4.77373e-09 -5.57347e-06 0)
(-4.90258e-09 -5.56563e-06 0)
(-5.02295e-09 -5.55754e-06 0)
(-5.13503e-09 -5.54931e-06 0)
(-5.23894e-09 -5.54086e-06 0)
(-5.33499e-09 -5.5323e-06 0)
(-5.42333e-09 -5.52354e-06 0)
(-5.50432e-09 -5.51469e-06 0)
(-5.57813e-09 -5.50567e-06 0)
(-5.64507e-09 -5.49658e-06 0)
(-5.7053e-09 -5.48735e-06 0)
(-5.75913e-09 -5.47806e-06 0)
(-5.80669e-09 -5.46865e-06 0)
(-5.8483e-09 -5.45922e-06 0)
(-5.88408e-09 -5.44968e-06 0)
(-5.9143e-09 -5.44013e-06 0)
(-5.93909e-09 -5.43049e-06 0)
(-5.95871e-09 -5.42086e-06 0)
(-5.97326e-09 -5.41115e-06 0)
(-5.98301e-09 -5.40148e-06 0)
(-5.98802e-09 -5.39174e-06 0)
(-5.98856e-09 -5.38205e-06 0)
(-5.98467e-09 -5.37232e-06 0)
(-5.97662e-09 -5.36264e-06 0)
(-5.96444e-09 -5.35293e-06 0)
(-5.94837e-09 -5.34329e-06 0)
(-5.92844e-09 -5.33364e-06 0)
(-5.90488e-09 -5.32406e-06 0)
(-5.87771e-09 -5.31449e-06 0)
(-5.84715e-09 -5.305e-06 0)
(-5.8132e-09 -5.29552e-06 0)
(-5.77607e-09 -5.28615e-06 0)
(-5.73578e-09 -5.27679e-06 0)
(-5.69251e-09 -5.26754e-06 0)
(-5.64626e-09 -5.25833e-06 0)
(-5.59722e-09 -5.24923e-06 0)
(-5.54538e-09 -5.24018e-06 0)
(-5.49092e-09 -5.23125e-06 0)
(-5.43383e-09 -5.22237e-06 0)
(-5.37427e-09 -5.21363e-06 0)
(-5.31223e-09 -5.20494e-06 0)
(-5.24787e-09 -5.1964e-06 0)
(-5.18117e-09 -5.18792e-06 0)
(-5.11228e-09 -5.1796e-06 0)
(-5.04118e-09 -5.17134e-06 0)
(-4.96802e-09 -5.16325e-06 0)
(-4.89276e-09 -5.15523e-06 0)
(-4.81555e-09 -5.14738e-06 0)
(-4.73636e-09 -5.13961e-06 0)
(-4.65532e-09 -5.13202e-06 0)
(-4.57241e-09 -5.12451e-06 0)
(-4.48775e-09 -5.11719e-06 0)
(-4.40131e-09 -5.10996e-06 0)
(-4.31321e-09 -5.10291e-06 0)
(-4.22344e-09 -5.09597e-06 0)
(-4.13209e-09 -5.08921e-06 0)
(-4.03915e-09 -5.08257e-06 0)
(-3.94472e-09 -5.07611e-06 0)
(-3.84878e-09 -5.06977e-06 0)
(-3.75144e-09 -5.06362e-06 0)
(-3.65268e-09 -5.0576e-06 0)
(-3.55258e-09 -5.05177e-06 0)
(-3.45115e-09 -5.04607e-06 0)
(-3.34846e-09 -5.04057e-06 0)
(-3.24451e-09 -5.03521e-06 0)
(-3.13938e-09 -5.03004e-06 0)
(-3.03308e-09 -5.02502e-06 0)
(-2.92567e-09 -5.02019e-06 0)
(-2.81717e-09 -5.01552e-06 0)
(-2.70763e-09 -5.01105e-06 0)
(-2.59708e-09 -5.00673e-06 0)
(-2.48557e-09 -5.00261e-06 0)
(-2.37313e-09 -4.99866e-06 0)
(-2.2598e-09 -4.9949e-06 0)
(-2.14561e-09 -4.99132e-06 0)
(-2.03062e-09 -4.98793e-06 0)
(-1.91484e-09 -4.98472e-06 0)
(-1.79834e-09 -4.98171e-06 0)
(-1.68113e-09 -4.97887e-06 0)
(-1.56327e-09 -4.97624e-06 0)
(-1.44479e-09 -4.97378e-06 0)
(-1.32574e-09 -4.97153e-06 0)
(-1.20616e-09 -4.96946e-06 0)
(-1.08611e-09 -4.96762e-06 0)
(-9.65649e-10 -4.96584e-06 0)
(-8.44876e-10 -4.96471e-06 0)
(-7.23812e-10 -4.96227e-06 0)
(-6.02758e-10 -4.96495e-06 0)
(-4.81166e-10 -4.95116e-06 0)
(-3.60884e-10 -4.99077e-06 0)
(-2.36772e-10 -4.84088e-06 0)
(-1.22255e-10 -5.23818e-06 0)
(-3.63581e-11 -4.57494e-06 0)
)
;
    }
    bottomWall
    {
        type            calculated;
        value           nonuniform List<vector> 
449
(
(-52.7049 -0.955592 0)
(-34.7378 -0.00279789 0)
(-34.3518 -0.000254063 0)
(-32.9896 -0.000363402 0)
(-31.8637 -0.000315287 0)
(-30.8272 -0.000284281 0)
(-29.91 -0.000249277 0)
(-29.1103 -0.000217344 0)
(-28.4098 -0.000190785 0)
(-27.7905 -0.000169021 0)
(-27.2379 -0.000151006 0)
(-26.7412 -0.000135905 0)
(-26.2914 -0.000123252 0)
(-25.8808 -0.000112569 0)
(-25.5038 -0.000103354 0)
(-25.156 -9.53475e-05 0)
(-24.8336 -8.83544e-05 0)
(-24.5336 -8.22175e-05 0)
(-24.2531 -7.68115e-05 0)
(-23.99 -7.19916e-05 0)
(-23.7424 -6.76689e-05 0)
(-23.5089 -6.3781e-05 0)
(-23.2879 -6.02731e-05 0)
(-23.0784 -5.7089e-05 0)
(-22.8792 -5.419e-05 0)
(-22.6895 -5.153e-05 0)
(-22.5085 -4.90916e-05 0)
(-22.3356 -4.68498e-05 0)
(-22.17 -4.47822e-05 0)
(-22.0112 -4.28646e-05 0)
(-21.8588 -4.10875e-05 0)
(-21.7122 -3.94338e-05 0)
(-21.5712 -3.78954e-05 0)
(-21.4352 -3.64563e-05 0)
(-21.304 -3.51114e-05 0)
(-21.1773 -3.3849e-05 0)
(-21.0548 -3.26669e-05 0)
(-20.9362 -3.15569e-05 0)
(-20.8214 -3.05119e-05 0)
(-20.71 -2.9526e-05 0)
(-20.6019 -2.85958e-05 0)
(-20.497 -2.77168e-05 0)
(-20.395 -2.6884e-05 0)
(-20.2958 -2.60899e-05 0)
(-20.1993 -2.53318e-05 0)
(-20.1053 -2.46076e-05 0)
(-20.0138 -2.39151e-05 0)
(-19.9247 -2.32547e-05 0)
(-19.8378 -2.26182e-05 0)
(-19.753 -2.20146e-05 0)
(-19.6703 -2.14359e-05 0)
(-19.5896 -2.08815e-05 0)
(-19.5107 -2.03566e-05 0)
(-19.4336 -1.98482e-05 0)
(-19.3583 -1.93671e-05 0)
(-19.2845 -1.89038e-05 0)
(-19.2124 -1.84627e-05 0)
(-19.1418 -1.80384e-05 0)
(-19.0726 -1.7632e-05 0)
(-19.0048 -1.72405e-05 0)
(-18.9383 -1.68652e-05 0)
(-18.8731 -1.65033e-05 0)
(-18.8092 -1.61551e-05 0)
(-18.7464 -1.582e-05 0)
(-18.6848 -1.54961e-05 0)
(-18.6243 -1.51852e-05 0)
(-18.5649 -1.48822e-05 0)
(-18.5065 -1.4593e-05 0)
(-18.4491 -1.43092e-05 0)
(-18.3927 -1.40388e-05 0)
(-18.3372 -1.37731e-05 0)
(-18.2826 -1.35183e-05 0)
(-18.2289 -1.32707e-05 0)
(-18.176 -1.30288e-05 0)
(-18.124 -1.2798e-05 0)
(-18.0728 -1.25692e-05 0)
(-18.0224 -1.23511e-05 0)
(-17.9727 -1.21367e-05 0)
(-17.9238 -1.19284e-05 0)
(-17.8756 -1.17283e-05 0)
(-17.828 -1.153e-05 0)
(-17.7812 -1.13405e-05 0)
(-17.735 -1.11546e-05 0)
(-17.6895 -1.09726e-05 0)
(-17.6446 -1.0798e-05 0)
(-17.6003 -1.06254e-05 0)
(-17.5567 -1.04584e-05 0)
(-17.5136 -1.02964e-05 0)
(-17.471 -1.01366e-05 0)
(-17.4291 -9.98252e-06 0)
(-17.3876 -9.8319e-06 0)
(-17.3467 -9.68395e-06 0)
(-17.3063 -9.54114e-06 0)
(-17.2664 -9.40102e-06 0)
(-17.227 -9.26367e-06 0)
(-17.1881 -9.13086e-06 0)
(-17.1496 -9.00037e-06 0)
(-17.1116 -8.87259e-06 0)
(-17.0741 -8.74872e-06 0)
(-17.0369 -8.62712e-06 0)
(-17.0002 -8.50792e-06 0)
(-16.964 -8.39225e-06 0)
(-16.9281 -8.27861e-06 0)
(-16.8927 -8.16728e-06 0)
(-16.8576 -8.05882e-06 0)
(-16.8229 -7.95264e-06 0)
(-16.7886 -7.84827e-06 0)
(-16.7546 -7.74659e-06 0)
(-16.721 -7.647e-06 0)
(-16.6878 -7.54919e-06 0)
(-16.6549 -7.45356e-06 0)
(-16.6224 -7.36012e-06 0)
(-16.5901 -7.26821e-06 0)
(-16.5582 -7.17824e-06 0)
(-16.5267 -7.09022e-06 0)
(-16.4954 -7.00379e-06 0)
(-16.4645 -6.91895e-06 0)
(-16.4338 -6.8359e-06 0)
(-16.4034 -6.75448e-06 0)
(-16.3734 -6.67449e-06 0)
(-16.3436 -6.59607e-06 0)
(-16.3141 -6.5192e-06 0)
(-16.2848 -6.44367e-06 0)
(-16.2559 -6.3695e-06 0)
(-16.2272 -6.29677e-06 0)
(-16.1988 -6.22535e-06 0)
(-16.1706 -6.15516e-06 0)
(-16.1426 -6.08619e-06 0)
(-16.1149 -6.01854e-06 0)
(-16.0875 -5.95196e-06 0)
(-16.0603 -5.88664e-06 0)
(-16.0333 -5.82234e-06 0)
(-16.0066 -5.75933e-06 0)
(-15.9801 -5.69724e-06 0)
(-15.9538 -5.63634e-06 0)
(-15.9277 -5.5763e-06 0)
(-15.9019 -5.51742e-06 0)
(-15.8762 -5.45935e-06 0)
(-15.8508 -5.40239e-06 0)
(-15.8256 -5.34614e-06 0)
(-15.8005 -5.29106e-06 0)
(-15.7757 -5.23663e-06 0)
(-15.7511 -5.18332e-06 0)
(-15.7266 -5.13058e-06 0)
(-15.7024 -5.07897e-06 0)
(-15.6783 -5.02792e-06 0)
(-15.6545 -4.97791e-06 0)
(-15.6308 -4.92843e-06 0)
(-15.6073 -4.87995e-06 0)
(-15.5839 -4.83204e-06 0)
(-15.5608 -4.78494e-06 0)
(-15.5378 -4.73846e-06 0)
(-15.5149 -4.69271e-06 0)
(-15.4923 -4.64767e-06 0)
(-15.4698 -4.60323e-06 0)
(-15.4474 -4.55951e-06 0)
(-15.4253 -4.51633e-06 0)
(-15.4033 -4.47393e-06 0)
(-15.3814 -4.43201e-06 0)
(-15.3597 -4.3908e-06 0)
(-15.3381 -4.35004e-06 0)
(-15.3167 -4.31005e-06 0)
(-15.2955 -4.27047e-06 0)
(-15.2744 -4.23157e-06 0)
(-15.2534 -4.19308e-06 0)
(-15.2326 -4.15525e-06 0)
(-15.2119 -4.11788e-06 0)
(-15.1913 -4.081e-06 0)
(-15.1709 -4.04472e-06 0)
(-15.1506 -4.0087e-06 0)
(-15.1305 -3.97353e-06 0)
(-15.1104 -3.9385e-06 0)
(-15.0905 -3.90238e-06 0)
(-15.0719 -3.87295e-06 0)
(-15.0543 -3.84604e-06 0)
(-15.0367 -3.81473e-06 0)
(-15.0191 -3.78402e-06 0)
(-15.0013 -3.7539e-06 0)
(-14.9836 -3.72373e-06 0)
(-14.9658 -3.69394e-06 0)
(-14.9479 -3.6642e-06 0)
(-14.93 -3.63469e-06 0)
(-14.9121 -3.60524e-06 0)
(-14.8941 -3.57597e-06 0)
(-14.876 -3.54682e-06 0)
(-14.8579 -3.51782e-06 0)
(-14.8398 -3.48895e-06 0)
(-14.8216 -3.46014e-06 0)
(-14.8034 -3.43149e-06 0)
(-14.7851 -3.4029e-06 0)
(-14.7668 -3.3746e-06 0)
(-14.7484 -3.34629e-06 0)
(-14.73 -3.31818e-06 0)
(-14.7116 -3.29007e-06 0)
(-14.6931 -3.26223e-06 0)
(-14.6745 -3.2344e-06 0)
(-14.656 -3.20678e-06 0)
(-14.6373 -3.17918e-06 0)
(-14.6187 -3.1518e-06 0)
(-14.6 -3.12452e-06 0)
(-14.5812 -3.09744e-06 0)
(-14.5625 -3.07042e-06 0)
(-14.5436 -3.04353e-06 0)
(-14.5248 -3.01676e-06 0)
(-14.5059 -2.9902e-06 0)
(-14.487 -2.96368e-06 0)
(-14.468 -2.93737e-06 0)
(-14.449 -2.91108e-06 0)
(-14.43 -2.88507e-06 0)
(-14.4109 -2.85905e-06 0)
(-14.3918 -2.8333e-06 0)
(-14.3727 -2.80753e-06 0)
(-14.3535 -2.78207e-06 0)
(-14.3343 -2.75663e-06 0)
(-14.3151 -2.73147e-06 0)
(-14.2958 -2.70632e-06 0)
(-14.2765 -2.6814e-06 0)
(-14.2572 -2.65659e-06 0)
(-14.2379 -2.63191e-06 0)
(-14.2185 -2.60739e-06 0)
(-14.1991 -2.58294e-06 0)
(-14.1796 -2.55873e-06 0)
(-14.1602 -2.53461e-06 0)
(-14.1407 -2.51064e-06 0)
(-14.1212 -2.48676e-06 0)
(-14.1017 -2.46309e-06 0)
(-14.0821 -2.43951e-06 0)
(-14.0625 -2.41622e-06 0)
(-14.0429 -2.39282e-06 0)
(-14.0233 -2.36985e-06 0)
(-14.0037 -2.34682e-06 0)
(-13.984 -2.32413e-06 0)
(-13.9643 -2.30134e-06 0)
(-13.9446 -2.27894e-06 0)
(-13.9249 -2.2565e-06 0)
(-13.9051 -2.23437e-06 0)
(-13.8854 -2.21217e-06 0)
(-13.8656 -2.19034e-06 0)
(-13.8458 -2.16844e-06 0)
(-13.826 -2.14695e-06 0)
(-13.8062 -2.12534e-06 0)
(-13.7863 -2.10414e-06 0)
(-13.7665 -2.08286e-06 0)
(-13.7466 -2.06204e-06 0)
(-13.7267 -2.04099e-06 0)
(-13.7068 -2.02039e-06 0)
(-13.6869 -1.9997e-06 0)
(-13.667 -1.97941e-06 0)
(-13.6471 -1.95894e-06 0)
(-13.6271 -1.93894e-06 0)
(-13.6072 -1.91884e-06 0)
(-13.5873 -1.89916e-06 0)
(-13.5673 -1.87932e-06 0)
(-13.5473 -1.85991e-06 0)
(-13.5273 -1.84042e-06 0)
(-13.5074 -1.82129e-06 0)
(-13.4874 -1.8021e-06 0)
(-13.4674 -1.78323e-06 0)
(-13.4474 -1.7644e-06 0)
(-13.4274 -1.74578e-06 0)
(-13.4074 -1.72721e-06 0)
(-13.3874 -1.7089e-06 0)
(-13.3673 -1.69069e-06 0)
(-13.3474 -1.67262e-06 0)
(-13.3273 -1.65465e-06 0)
(-13.3073 -1.63691e-06 0)
(-13.2873 -1.61927e-06 0)
(-13.2673 -1.60176e-06 0)
(-13.2473 -1.58443e-06 0)
(-13.2273 -1.56727e-06 0)
(-13.2073 -1.55022e-06 0)
(-13.1873 -1.53325e-06 0)
(-13.1673 -1.51649e-06 0)
(-13.1473 -1.49987e-06 0)
(-13.1273 -1.48348e-06 0)
(-13.1073 -1.46702e-06 0)
(-13.0873 -1.4509e-06 0)
(-13.0674 -1.43476e-06 0)
(-13.0474 -1.41892e-06 0)
(-13.0274 -1.40302e-06 0)
(-13.0075 -1.38749e-06 0)
(-12.9875 -1.37193e-06 0)
(-12.9676 -1.35664e-06 0)
(-12.9477 -1.3413e-06 0)
(-12.9277 -1.32634e-06 0)
(-12.9079 -1.31126e-06 0)
(-12.8879 -1.29654e-06 0)
(-12.8681 -1.28171e-06 0)
(-12.8482 -1.26731e-06 0)
(-12.8284 -1.25273e-06 0)
(-12.8085 -1.2386e-06 0)
(-12.7887 -1.22433e-06 0)
(-12.7688 -1.21043e-06 0)
(-12.7491 -1.19639e-06 0)
(-12.7293 -1.1828e-06 0)
(-12.7095 -1.169e-06 0)
(-12.6897 -1.15566e-06 0)
(-12.67 -1.14213e-06 0)
(-12.6503 -1.12898e-06 0)
(-12.6306 -1.11579e-06 0)
(-12.6109 -1.10291e-06 0)
(-12.5912 -1.08992e-06 0)
(-12.5715 -1.07732e-06 0)
(-12.5519 -1.06459e-06 0)
(-12.5323 -1.05219e-06 0)
(-12.5127 -1.03964e-06 0)
(-12.4931 -1.02752e-06 0)
(-12.4736 -1.01534e-06 0)
(-12.454 -1.00342e-06 0)
(-12.4345 -9.91449e-07 0)
(-12.415 -9.79742e-07 0)
(-12.3955 -9.68016e-07 0)
(-12.3761 -9.56544e-07 0)
(-12.3567 -9.45069e-07 0)
(-12.3373 -9.33776e-07 0)
(-12.3179 -9.22543e-07 0)
(-12.2986 -9.11491e-07 0)
(-12.2792 -9.00507e-07 0)
(-12.26 -8.89677e-07 0)
(-12.2407 -8.78908e-07 0)
(-12.2215 -8.68309e-07 0)
(-12.2022 -8.57807e-07 0)
(-12.183 -8.47398e-07 0)
(-12.1638 -8.37082e-07 0)
(-12.1447 -8.26887e-07 0)
(-12.1256 -8.1683e-07 0)
(-12.1065 -8.06829e-07 0)
(-12.0874 -7.96974e-07 0)
(-12.0685 -7.87164e-07 0)
(-12.0494 -7.7754e-07 0)
(-12.0305 -7.67941e-07 0)
(-12.0115 -7.58501e-07 0)
(-11.9927 -7.49079e-07 0)
(-11.9737 -7.39893e-07 0)
(-11.9549 -7.30668e-07 0)
(-11.9361 -7.21666e-07 0)
(-11.9173 -7.12615e-07 0)
(-11.8986 -7.03849e-07 0)
(-11.8799 -6.95015e-07 0)
(-11.8611 -6.86426e-07 0)
(-11.8425 -6.77792e-07 0)
(-11.8239 -6.69389e-07 0)
(-11.8053 -6.60932e-07 0)
(-11.7867 -6.52707e-07 0)
(-11.7682 -6.44446e-07 0)
(-11.7497 -6.36383e-07 0)
(-11.7313 -6.28327e-07 0)
(-11.7129 -6.204e-07 0)
(-11.6945 -6.12559e-07 0)
(-11.6761 -6.04776e-07 0)
(-11.6579 -5.97127e-07 0)
(-11.6396 -5.8942e-07 0)
(-11.6213 -5.82061e-07 0)
(-11.6031 -5.74467e-07 0)
(-11.583 -5.6552e-07 0)
(-11.561 -5.56359e-07 0)
(-11.5394 -5.48174e-07 0)
(-11.5181 -5.40203e-07 0)
(-11.4971 -5.32236e-07 0)
(-11.4764 -5.24489e-07 0)
(-11.4561 -5.1693e-07 0)
(-11.436 -5.09511e-07 0)
(-11.4162 -5.02298e-07 0)
(-11.3966 -4.95265e-07 0)
(-11.3774 -4.88368e-07 0)
(-11.3584 -4.81631e-07 0)
(-11.3397 -4.75073e-07 0)
(-11.3212 -4.68658e-07 0)
(-11.303 -4.62367e-07 0)
(-11.285 -4.56284e-07 0)
(-11.2673 -4.50268e-07 0)
(-11.2498 -4.44433e-07 0)
(-11.2325 -4.38671e-07 0)
(-11.2155 -4.33105e-07 0)
(-11.1986 -4.27603e-07 0)
(-11.182 -4.22286e-07 0)
(-11.1656 -4.17013e-07 0)
(-11.1493 -4.11902e-07 0)
(-11.1333 -4.0686e-07 0)
(-11.1175 -4.01952e-07 0)
(-11.1019 -3.97168e-07 0)
(-11.0864 -3.92436e-07 0)
(-11.0712 -3.87815e-07 0)
(-11.0561 -3.83309e-07 0)
(-11.0412 -3.78872e-07 0)
(-11.0264 -3.74512e-07 0)
(-11.0119 -3.70264e-07 0)
(-10.9974 -3.66104e-07 0)
(-10.9832 -3.62043e-07 0)
(-10.9691 -3.58044e-07 0)
(-10.9552 -3.54115e-07 0)
(-10.9414 -3.50274e-07 0)
(-10.9278 -3.46494e-07 0)
(-10.9143 -3.42795e-07 0)
(-10.9009 -3.39148e-07 0)
(-10.8877 -3.35572e-07 0)
(-10.8747 -3.32076e-07 0)
(-10.8617 -3.28635e-07 0)
(-10.8489 -3.25239e-07 0)
(-10.8363 -3.21941e-07 0)
(-10.8237 -3.18667e-07 0)
(-10.8113 -3.15488e-07 0)
(-10.7991 -3.12326e-07 0)
(-10.7869 -3.09256e-07 0)
(-10.7749 -3.06209e-07 0)
(-10.7629 -3.03276e-07 0)
(-10.7511 -3.00339e-07 0)
(-10.7394 -2.97463e-07 0)
(-10.7278 -2.94655e-07 0)
(-10.7163 -2.91879e-07 0)
(-10.705 -2.89154e-07 0)
(-10.6937 -2.86465e-07 0)
(-10.6826 -2.83836e-07 0)
(-10.6715 -2.81223e-07 0)
(-10.6606 -2.78718e-07 0)
(-10.6497 -2.7618e-07 0)
(-10.6389 -2.73777e-07 0)
(-10.6283 -2.71281e-07 0)
(-10.6177 -2.69004e-07 0)
(-10.6072 -2.66561e-07 0)
(-10.5969 -2.64391e-07 0)
(-10.5865 -2.61959e-07 0)
(-10.5764 -2.59955e-07 0)
(-10.5662 -2.57518e-07 0)
(-10.5562 -2.55639e-07 0)
(-10.5462 -2.53233e-07 0)
(-10.5364 -2.51528e-07 0)
(-10.5265 -2.49122e-07 0)
(-10.5169 -2.47602e-07 0)
(-10.5071 -2.45171e-07 0)
(-10.4977 -2.43844e-07 0)
(-10.488 -2.41422e-07 0)
(-10.4788 -2.40229e-07 0)
(-10.4692 -2.37854e-07 0)
(-10.4602 -2.3674e-07 0)
(-10.4507 -2.34553e-07 0)
(-10.4418 -2.33371e-07 0)
(-10.4324 -2.31684e-07 0)
(-10.4237 -2.29946e-07 0)
(-10.4144 -2.29693e-07 0)
(-10.4057 -2.25805e-07 0)
(-10.3968 -2.29982e-07 0)
(-10.3877 -2.18684e-07 0)
(-10.3797 -2.36426e-07 0)
(-10.3691 -2.01978e-07 0)
(-10.364 -2.55598e-07 0)
(-10.349 -1.68789e-07 0)
(-10.351 -2.29728e-07 0)
(-10.3306 -2.67777e-07 0)
)
;
    }
    symmetry
    {
        type            symmetryPlane;
    }
    frontAndBack
    {
        type            empty;
    }
}


// ************************************************************************* //
