/*--------------------------------*- C++ -*----------------------------------*\
| =========                 |                                                 |
| \\      /  F ield         | OpenFOAM: The Open Source CFD Toolbox           |
|  \\    /   O peration     | Version:  v2012                                 |
|   \\  /    A nd           | Website:  www.openfoam.com                      |
|    \\/     M anipulation  |                                                 |
\*---------------------------------------------------------------------------*/
FoamFile
{
    version     2.0;
    format      ascii;
    class       volScalarField;
    location    "26.5";
    object      k;
}
// * * * * * * * * * * * * * * * * * * * * * * * * * * * * * * * * * * * * * //

dimensions      [0 2 -2 0 0 0 0];


internalField   nonuniform List<scalar> 
209825
(
0.00102202
0.000930067
0.000864656
0.000819403
0.000787582
0.000764475
0.000747142
0.000733765
0.000723204
0.0007147
0.000707751
0.000701988
0.00069716
0.00069307
0.000689578
0.000686573
0.000683968
0.000681697
0.0006797
0.000677947
0.000676389
0.000675012
0.00067377
0.000672671
0.000671674
0.000670785
0.000669963
0.000669241
0.000668565
0.000667975
0.000667407
0.000666921
0.000666458
0.000666047
0.000665645
0.000665306
0.000664977
0.0006647
0.000664414
0.000664187
0.000663956
0.000663763
0.000663551
0.000663406
0.000663237
0.000663084
0.00066294
0.000662835
0.000662732
0.000662668
0.000662575
0.000662493
0.000662423
0.00066238
0.000662297
0.000662245
0.00066221
0.000662124
0.000662118
0.00066211
0.000662081
0.000662134
0.000662134
0.000662225
0.00066229
0.000662413
0.000662493
0.000662647
0.000662708
0.000662833
0.000662883
0.00066302
0.000663114
0.000663289
0.000663377
0.000663563
0.00066366
0.000663862
0.000663966
0.000664187
0.000664309
0.000664563
0.000664697
0.000664974
0.000665124
0.000665438
0.00066561
0.000665979
0.000666176
0.000666634
0.000666835
0.00066751
0.000667773
0.000678268
0.000718586
0.00182403
0.00102202
0.000930067
0.000864654
0.000819399
0.000787575
0.000764466
0.000747131
0.000733752
0.00072319
0.000714685
0.000707734
0.000701971
0.000697142
0.000693052
0.000689559
0.000686553
0.000683948
0.000681677
0.000679679
0.000677927
0.000676368
0.000674991
0.000673748
0.00067265
0.000671652
0.000670763
0.000669942
0.000669219
0.000668543
0.000667953
0.000667385
0.000666898
0.000666435
0.000666025
0.000665622
0.000665283
0.000664954
0.000664677
0.000664391
0.000664164
0.000663933
0.00066374
0.000663528
0.000663383
0.000663214
0.00066306
0.000662917
0.000662812
0.000662709
0.000662645
0.000662551
0.00066247
0.0006624
0.000662357
0.000662274
0.000662222
0.000662186
0.0006621
0.000662095
0.000662087
0.000662057
0.000662111
0.000662111
0.000662202
0.000662266
0.00066239
0.00066247
0.000662624
0.000662685
0.000662809
0.000662859
0.000662996
0.000663091
0.000663266
0.000663354
0.00066354
0.000663637
0.000663838
0.000663942
0.000664164
0.000664286
0.000664539
0.000664673
0.00066495
0.0006651
0.000665414
0.000665586
0.000665955
0.000666152
0.00066661
0.000666811
0.000667486
0.000667749
0.000678264
0.000718573
0.00182511
0.00102203
0.000930066
0.000864643
0.000819376
0.000787541
0.000764423
0.000747082
0.000733697
0.00072313
0.000714621
0.000707667
0.000701901
0.00069707
0.000692978
0.000689483
0.000686476
0.000683869
0.000681597
0.000679598
0.000677844
0.000676285
0.000674907
0.000673664
0.000672565
0.000671566
0.000670677
0.000669855
0.000669131
0.000668456
0.000667865
0.000667297
0.00066681
0.000666346
0.000665935
0.000665532
0.000665193
0.000664864
0.000664587
0.000664301
0.000664073
0.000663843
0.000663649
0.000663437
0.000663292
0.000663123
0.000662969
0.000662825
0.00066272
0.000662617
0.000662553
0.00066246
0.000662378
0.000662307
0.000662265
0.000662182
0.00066213
0.000662094
0.000662008
0.000662002
0.000661995
0.000661965
0.000662018
0.000662018
0.000662109
0.000662173
0.000662296
0.000662376
0.00066253
0.000662591
0.000662716
0.000662765
0.000662903
0.000662997
0.000663172
0.00066326
0.000663446
0.000663543
0.000663744
0.000663848
0.000664069
0.000664191
0.000664445
0.000664579
0.000664856
0.000665005
0.00066532
0.000665492
0.00066586
0.000666057
0.000666515
0.000666716
0.00066739
0.000667653
0.000678209
0.000718495
0.00182724
0.00102203
0.000930064
0.000864624
0.000819337
0.000787485
0.000764352
0.000746998
0.000733604
0.000723029
0.000714514
0.000707554
0.000701783
0.000696948
0.000692853
0.000689355
0.000686345
0.000683736
0.000681462
0.000679461
0.000677706
0.000676145
0.000674766
0.000673522
0.000672422
0.000671422
0.000670532
0.000669709
0.000668985
0.000668309
0.000667717
0.000667148
0.000666661
0.000666197
0.000665786
0.000665382
0.000665043
0.000664714
0.000664436
0.000664149
0.000663921
0.000663691
0.000663497
0.000663284
0.000663139
0.00066297
0.000662816
0.000662672
0.000662567
0.000662463
0.000662399
0.000662305
0.000662224
0.000662153
0.00066211
0.000662027
0.000661975
0.000661939
0.000661854
0.000661847
0.00066184
0.000661809
0.000661862
0.000661862
0.000661953
0.000662017
0.00066214
0.00066222
0.000662374
0.000662435
0.000662559
0.000662609
0.000662746
0.00066284
0.000663015
0.000663103
0.000663288
0.000663385
0.000663586
0.000663691
0.000663912
0.000664033
0.000664287
0.00066442
0.000664697
0.000664847
0.000665161
0.000665333
0.000665701
0.000665898
0.000666355
0.000666556
0.00066723
0.000667492
0.000678112
0.000718362
0.00182972
0.00102204
0.000930061
0.000864596
0.000819282
0.000787405
0.000764251
0.000746881
0.000733473
0.000722887
0.000714362
0.000707395
0.000701617
0.000696777
0.000692676
0.000689174
0.000686161
0.000683549
0.000681272
0.000679269
0.000677511
0.000675949
0.000674568
0.000673321
0.00067222
0.000671219
0.000670328
0.000669504
0.000668778
0.000668101
0.000667509
0.000666939
0.000666451
0.000665986
0.000665575
0.000665171
0.00066483
0.000664501
0.000664223
0.000663935
0.000663707
0.000663476
0.000663282
0.000663069
0.000662923
0.000662754
0.0006626
0.000662455
0.00066235
0.000662246
0.000662182
0.000662088
0.000662006
0.000661935
0.000661892
0.000661809
0.000661757
0.000661721
0.000661635
0.000661629
0.000661621
0.00066159
0.000661642
0.000661642
0.000661733
0.000661797
0.00066192
0.000662
0.000662153
0.000662214
0.000662338
0.000662387
0.000662524
0.000662618
0.000662793
0.000662881
0.000663066
0.000663163
0.000663364
0.000663468
0.000663689
0.000663811
0.000664063
0.000664197
0.000664474
0.000664623
0.000664937
0.000665108
0.000665476
0.000665673
0.00066613
0.00066633
0.000667005
0.000667266
0.000677973
0.000718173
0.00183253
0.00102204
0.000930056
0.000864561
0.00081921
0.000787301
0.000764121
0.000746729
0.000733303
0.000722702
0.000714166
0.000707188
0.000701402
0.000696554
0.000692448
0.000688941
0.000685922
0.000683306
0.000681025
0.000679019
0.000677258
0.000675693
0.00067431
0.000673062
0.000671958
0.000670956
0.000670063
0.000669237
0.000668511
0.000667832
0.000667239
0.000666668
0.000666179
0.000665714
0.000665301
0.000664896
0.000664555
0.000664225
0.000663946
0.000663658
0.00066343
0.000663198
0.000663004
0.00066279
0.000662644
0.000662474
0.00066232
0.000662175
0.000662069
0.000661965
0.0006619
0.000661806
0.000661724
0.000661653
0.00066161
0.000661527
0.000661474
0.000661438
0.000661353
0.000661346
0.000661337
0.000661306
0.000661358
0.000661358
0.000661448
0.000661511
0.000661634
0.000661714
0.000661867
0.000661927
0.000662051
0.000662101
0.000662237
0.000662331
0.000662506
0.000662593
0.000662778
0.000662875
0.000663076
0.00066318
0.0006634
0.000663522
0.000663774
0.000663908
0.000664184
0.000664333
0.000664646
0.000664818
0.000665185
0.000665382
0.000665838
0.000666038
0.000666712
0.000666973
0.000677793
0.000717927
0.00183558
0.00102205
0.000930051
0.000864518
0.000819123
0.000787174
0.00076396
0.000746541
0.000733093
0.000722475
0.000713924
0.000706934
0.000701137
0.000696281
0.000692166
0.000688652
0.000685628
0.000683007
0.000680721
0.000678711
0.000676947
0.000675379
0.000673993
0.000672741
0.000671636
0.000670631
0.000669736
0.000668909
0.000668181
0.000667501
0.000666906
0.000666334
0.000665844
0.000665377
0.000664964
0.000664558
0.000664216
0.000663885
0.000663605
0.000663317
0.000663087
0.000662855
0.00066266
0.000662446
0.000662299
0.000662129
0.000661975
0.000661829
0.000661723
0.000661618
0.000661553
0.000661459
0.000661377
0.000661305
0.000661262
0.000661179
0.000661126
0.000661089
0.000661004
0.000660997
0.000660988
0.000660956
0.000661007
0.000661007
0.000661097
0.000661159
0.000661281
0.000661361
0.000661514
0.000661574
0.000661698
0.000661747
0.000661883
0.000661977
0.000662151
0.000662239
0.000662423
0.00066252
0.000662721
0.000662824
0.000663044
0.000663166
0.000663418
0.000663551
0.000663827
0.000663976
0.000664288
0.00066446
0.000664826
0.000665022
0.000665478
0.000665677
0.000666351
0.000666611
0.000677571
0.000717626
0.00183876
0.00102206
0.000930046
0.000864466
0.000819019
0.000787022
0.000763769
0.000746318
0.000732844
0.000722205
0.000713635
0.000706631
0.000700822
0.000695954
0.000691831
0.000688309
0.000685277
0.00068265
0.000680359
0.000678344
0.000676576
0.000675004
0.000673614
0.00067236
0.000671251
0.000670244
0.000669347
0.000668517
0.000667787
0.000667105
0.000666509
0.000665936
0.000665444
0.000664976
0.000664561
0.000664154
0.000663812
0.000663479
0.000663199
0.00066291
0.000662679
0.000662446
0.000662251
0.000662036
0.000661889
0.000661718
0.000661563
0.000661417
0.00066131
0.000661205
0.000661139
0.000661045
0.000660962
0.00066089
0.000660846
0.000660763
0.00066071
0.000660673
0.000660588
0.00066058
0.000660571
0.000660539
0.000660588
0.000660588
0.000660677
0.00066074
0.000660861
0.000660941
0.000661094
0.000661153
0.000661276
0.000661325
0.000661461
0.000661555
0.000661729
0.000661816
0.000662
0.000662097
0.000662297
0.0006624
0.00066262
0.000662741
0.000662992
0.000663125
0.000663401
0.000663549
0.000663861
0.000664032
0.000664398
0.000664594
0.000665048
0.000665247
0.00066592
0.00066618
0.00067731
0.000717268
0.00184184
0.00102207
0.000930039
0.000864407
0.000818898
0.000786846
0.000763548
0.000746059
0.000732555
0.00072189
0.0007133
0.000706278
0.000700454
0.000695574
0.00069144
0.000687909
0.000684869
0.000682235
0.000679937
0.000677917
0.000676144
0.000674567
0.000673173
0.000671915
0.000670803
0.000669793
0.000668894
0.000668062
0.000667329
0.000666645
0.000666047
0.000665472
0.000664978
0.000664509
0.000664093
0.000663685
0.00066334
0.000663007
0.000662726
0.000662435
0.000662204
0.00066197
0.000661774
0.000661558
0.00066141
0.000661239
0.000661083
0.000660936
0.000660829
0.000660723
0.000660657
0.000660562
0.000660479
0.000660407
0.000660363
0.000660279
0.000660225
0.000660189
0.000660104
0.000660095
0.000660085
0.000660052
0.0006601
0.0006601
0.000660189
0.00066025
0.000660372
0.000660451
0.000660604
0.000660662
0.000660786
0.000660834
0.00066097
0.000661063
0.000661236
0.000661323
0.000661507
0.000661603
0.000661803
0.000661906
0.000662125
0.000662246
0.000662497
0.00066263
0.000662905
0.000663053
0.000663364
0.000663534
0.000663899
0.000664094
0.000664548
0.000664746
0.000665419
0.000665677
0.000677007
0.000716853
0.00184448
0.00102208
0.000930032
0.00086434
0.000818761
0.000786646
0.000763295
0.000745763
0.000732224
0.000721531
0.000712917
0.000705876
0.000700035
0.00069514
0.000690994
0.000687451
0.000684403
0.00068176
0.000679455
0.000677428
0.000675649
0.000674067
0.000672669
0.000671407
0.000670291
0.000669278
0.000668375
0.00066754
0.000666805
0.000666119
0.000665518
0.000664941
0.000664446
0.000663974
0.000663557
0.000663147
0.000662802
0.000662467
0.000662184
0.000661893
0.00066166
0.000661425
0.000661228
0.000661012
0.000660862
0.000660691
0.000660534
0.000660387
0.000660279
0.000660172
0.000660105
0.00066001
0.000659927
0.000659854
0.000659809
0.000659726
0.000659671
0.000659634
0.000659549
0.00065954
0.00065953
0.000659496
0.000659542
0.000659542
0.000659631
0.000659691
0.000659811
0.000659891
0.000660043
0.000660101
0.000660224
0.000660272
0.000660407
0.0006605
0.000660673
0.00066076
0.000660943
0.000661039
0.000661238
0.000661341
0.000661559
0.00066168
0.00066193
0.000662062
0.000662337
0.000662484
0.000662795
0.000662965
0.000663329
0.000663523
0.000663975
0.000664172
0.000664845
0.000665103
0.000676665
0.000716381
0.00184621
0.0010221
0.000930024
0.000864264
0.000818607
0.000786421
0.00076301
0.000745431
0.000731852
0.000721127
0.000712486
0.000705422
0.000699562
0.000694651
0.00069049
0.000686936
0.000683877
0.000681224
0.000678912
0.000676877
0.000675092
0.000673504
0.000672101
0.000670834
0.000669714
0.000668696
0.00066779
0.000666952
0.000666214
0.000665525
0.000664922
0.000664342
0.000663845
0.000663371
0.000662952
0.000662541
0.000662193
0.000661857
0.000661573
0.00066128
0.000661047
0.00066081
0.000660612
0.000660395
0.000660245
0.000660072
0.000659915
0.000659767
0.000659658
0.00065955
0.000659483
0.000659387
0.000659303
0.000659229
0.000659185
0.000659101
0.000659046
0.000659009
0.000658924
0.000658913
0.000658903
0.000658868
0.000658913
0.000658913
0.000659
0.00065906
0.000659179
0.000659259
0.00065941
0.000659467
0.00065959
0.000659638
0.000659772
0.000659865
0.000660037
0.000660124
0.000660306
0.000660402
0.0006606
0.000660703
0.000660921
0.000661041
0.00066129
0.000661422
0.000661696
0.000661843
0.000662153
0.000662322
0.000662685
0.000662879
0.000663329
0.000663525
0.000664197
0.000664454
0.000676282
0.000715851
0.00184638
0.00102211
0.000930015
0.000864181
0.000818437
0.000786172
0.000762694
0.000745061
0.000731438
0.000720676
0.000712005
0.000704916
0.000699035
0.000694106
0.000689929
0.000686362
0.00068329
0.000680627
0.000678306
0.000676263
0.00067447
0.000672876
0.000671467
0.000670195
0.00066907
0.000668048
0.000667137
0.000666296
0.000665554
0.000664862
0.000664257
0.000663674
0.000663174
0.000662699
0.000662277
0.000661864
0.000661515
0.000661177
0.000660891
0.000660597
0.000660362
0.000660125
0.000659925
0.000659707
0.000659555
0.000659382
0.000659224
0.000659075
0.000658965
0.000658857
0.000658788
0.000658692
0.000658608
0.000658533
0.000658488
0.000658404
0.000658348
0.000658311
0.000658226
0.000658214
0.000658203
0.000658167
0.00065821
0.00065821
0.000658297
0.000658355
0.000658474
0.000658553
0.000658704
0.00065876
0.000658883
0.00065893
0.000659064
0.000659156
0.000659328
0.000659414
0.000659596
0.000659691
0.000659889
0.000659991
0.000660208
0.000660328
0.000660576
0.000660708
0.000660981
0.000661128
0.000661436
0.000661605
0.000661966
0.000662159
0.000662609
0.000662803
0.000663475
0.000663731
0.00067586
0.000715262
0.00184434
0.00102213
0.000930006
0.00086409
0.00081825
0.000785897
0.000762346
0.000744653
0.000730981
0.000720179
0.000711475
0.000704358
0.000698453
0.000693504
0.00068931
0.000685727
0.000682642
0.000679968
0.000677636
0.000675584
0.000673783
0.000672182
0.000670766
0.000669488
0.000668358
0.000667331
0.000666416
0.000665571
0.000664825
0.00066413
0.000663521
0.000662936
0.000662433
0.000661955
0.000661531
0.000661116
0.000660765
0.000660425
0.000660138
0.000659842
0.000659605
0.000659366
0.000659166
0.000658946
0.000658793
0.000658619
0.000658461
0.00065831
0.000658199
0.00065809
0.000658021
0.000657924
0.000657839
0.000657763
0.000657717
0.000657633
0.000657577
0.000657539
0.000657454
0.000657442
0.00065743
0.000657392
0.000657434
0.000657433
0.00065752
0.000657576
0.000657694
0.000657773
0.000657923
0.000657978
0.000658101
0.000658148
0.000658281
0.000658372
0.000658544
0.000658629
0.00065881
0.000658905
0.000659102
0.000659204
0.00065942
0.000659539
0.000659787
0.000659918
0.00066019
0.000660336
0.000660643
0.000660811
0.000661172
0.000661364
0.000661812
0.000662005
0.000662676
0.000662932
0.000675397
0.000714614
0.00184008
0.00102215
0.000929996
0.000863991
0.000818046
0.000785597
0.000761966
0.000744207
0.000730481
0.000719636
0.000710895
0.000703747
0.000697815
0.000692844
0.000688631
0.000685031
0.000681932
0.000679245
0.000676902
0.00067484
0.00067303
0.000671421
0.000669998
0.000668713
0.000667577
0.000666545
0.000665625
0.000664775
0.000664026
0.000663326
0.000662714
0.000662126
0.00066162
0.000661139
0.000660713
0.000660296
0.000659942
0.0006596
0.000659311
0.000659014
0.000658775
0.000658534
0.000658333
0.000658111
0.000657957
0.000657782
0.000657622
0.000657471
0.000657359
0.000657248
0.000657178
0.00065708
0.000656995
0.000656918
0.000656872
0.000656787
0.00065673
0.000656692
0.000656607
0.000656593
0.000656581
0.000656542
0.000656582
0.000656581
0.000656666
0.000656721
0.000656839
0.000656917
0.000657067
0.000657121
0.000657243
0.000657289
0.000657421
0.000657512
0.000657683
0.000657768
0.000657948
0.000658043
0.000658239
0.000658341
0.000658556
0.000658674
0.000658921
0.000659051
0.000659322
0.000659468
0.000659774
0.000659941
0.0006603
0.000660491
0.000660937
0.000661128
0.0006618
0.000662055
0.000674893
0.000713905
0.00183365
0.00102217
0.000929986
0.000863885
0.000817825
0.000785272
0.000761553
0.000743723
0.000729938
0.000719044
0.000710263
0.000703082
0.000697122
0.000692126
0.000687892
0.000684274
0.000681159
0.000678458
0.000676102
0.00067403
0.00067221
0.000670591
0.00066916
0.000667869
0.000666726
0.000665688
0.000664763
0.000663908
0.000663155
0.000662451
0.000661835
0.000661243
0.000660734
0.00066025
0.000659822
0.000659401
0.000659046
0.000658701
0.00065841
0.00065811
0.00065787
0.000657627
0.000657424
0.000657202
0.000657046
0.000656869
0.000656709
0.000656556
0.000656443
0.000656331
0.000656259
0.000656161
0.000656075
0.000655997
0.00065595
0.000655865
0.000655807
0.000655769
0.000655684
0.000655669
0.000655656
0.000655615
0.000655653
0.000655652
0.000655736
0.000655789
0.000655906
0.000655984
0.000656133
0.000656185
0.000656307
0.000656353
0.000656484
0.000656574
0.000656744
0.000656829
0.000657009
0.000657102
0.000657298
0.000657399
0.000657613
0.000657731
0.000657976
0.000658106
0.000658376
0.000658521
0.000658826
0.000658992
0.000659349
0.000659539
0.000659984
0.000660173
0.000660844
0.000661099
0.000674349
0.000713135
0.00182508
0.00102219
0.000929976
0.000863771
0.000817588
0.000784922
0.000761108
0.000743199
0.000729351
0.000718405
0.00070958
0.000702362
0.000696371
0.000691349
0.000687092
0.000683454
0.000680322
0.000677605
0.000675236
0.000673152
0.000671321
0.000669693
0.000668253
0.000666954
0.000665804
0.00066476
0.000663829
0.000662969
0.00066221
0.000661502
0.000660882
0.000660287
0.000659774
0.000659287
0.000658855
0.000658432
0.000658074
0.000657727
0.000657433
0.000657132
0.000656889
0.000656645
0.00065644
0.000656215
0.000656058
0.00065588
0.000655719
0.000655564
0.00065545
0.000655336
0.000655264
0.000655164
0.000655078
0.000654999
0.000654951
0.000654866
0.000654807
0.000654768
0.000654683
0.000654667
0.000654653
0.000654611
0.000654647
0.000654644
0.000654728
0.000654779
0.000654894
0.000654972
0.00065512
0.000655171
0.000655293
0.000655338
0.000655468
0.000655558
0.000655727
0.000655811
0.00065599
0.000656083
0.000656278
0.000656378
0.000656591
0.000656708
0.000656952
0.000657082
0.00065735
0.000657495
0.000657798
0.000657963
0.000658319
0.000658508
0.00065895
0.000659138
0.000659808
0.000660064
0.000673763
0.000712302
0.00181441
0.00102221
0.000929966
0.00086365
0.000817335
0.000784547
0.00076063
0.000742638
0.00072872
0.000717717
0.000708845
0.000701587
0.000695563
0.000690512
0.00068623
0.000682571
0.000679419
0.000676687
0.000674303
0.000672205
0.000670363
0.000668725
0.000667276
0.000665968
0.00066481
0.000663759
0.000662822
0.000661956
0.000661192
0.000660479
0.000659855
0.000659255
0.000658738
0.000658247
0.000657813
0.000657387
0.000657025
0.000656675
0.00065638
0.000656076
0.000655831
0.000655584
0.000655378
0.000655152
0.000654992
0.000654813
0.00065465
0.000654494
0.000654378
0.000654263
0.000654189
0.000654089
0.000654002
0.000653921
0.000653873
0.000653787
0.000653727
0.000653688
0.000653603
0.000653585
0.00065357
0.000653527
0.000653561
0.000653558
0.00065364
0.000653689
0.000653803
0.000653881
0.000654027
0.000654077
0.000654198
0.000654242
0.000654372
0.000654461
0.000654629
0.000654713
0.00065489
0.000654983
0.000655177
0.000655277
0.000655488
0.000655605
0.000655847
0.000655977
0.000656243
0.000656387
0.000656689
0.000656853
0.000657207
0.000657394
0.000657835
0.000658021
0.00065869
0.000658946
0.000673134
0.000711404
0.0018017
0.00102224
0.000929955
0.000863521
0.000817065
0.000784147
0.00076012
0.000742036
0.000728045
0.000716981
0.000708058
0.000700757
0.000694696
0.000689614
0.000685305
0.000681623
0.000678451
0.000675701
0.000673301
0.000671189
0.000669335
0.000667685
0.000666226
0.000664909
0.000663743
0.000662684
0.000661741
0.000660868
0.000660099
0.00065938
0.000658751
0.000658147
0.000657626
0.000657131
0.000656693
0.000656264
0.0006559
0.000655547
0.000655248
0.000654942
0.000654694
0.000654445
0.000654237
0.000654009
0.000653848
0.000653667
0.000653503
0.000653345
0.000653228
0.000653111
0.000653035
0.000652934
0.000652846
0.000652764
0.000652715
0.000652629
0.000652568
0.000652528
0.000652443
0.000652423
0.000652408
0.000652363
0.000652394
0.00065239
0.000652471
0.000652518
0.000652631
0.000652708
0.000652854
0.000652902
0.000653022
0.000653066
0.000653195
0.000653282
0.00065345
0.000653533
0.000653709
0.000653801
0.000653994
0.000654093
0.000654304
0.000654419
0.000654661
0.000654789
0.000655054
0.000655197
0.000655497
0.000655661
0.000656012
0.000656199
0.000656637
0.00065682
0.00065749
0.000657747
0.000672461
0.000710438
0.00178701
0.00102226
0.000929945
0.000863386
0.000816779
0.000783721
0.000759576
0.000741396
0.000727325
0.000716195
0.000707217
0.000699871
0.000693771
0.000688655
0.000684318
0.00068061
0.000677417
0.000674647
0.00067223
0.000670104
0.000668235
0.000666573
0.000665104
0.000663777
0.000662602
0.000661535
0.000660584
0.000659705
0.000658929
0.000658205
0.000657571
0.000656962
0.000656436
0.000655937
0.000655496
0.000655063
0.000654695
0.000654339
0.000654038
0.000653728
0.000653478
0.000653227
0.000653017
0.000652786
0.000652623
0.00065244
0.000652275
0.000652115
0.000651996
0.000651877
0.000651801
0.000651699
0.000651609
0.000651526
0.000651475
0.000651389
0.000651327
0.000651286
0.000651202
0.00065118
0.000651164
0.000651117
0.000651146
0.000651141
0.00065122
0.000651265
0.000651376
0.000651453
0.000651598
0.000651644
0.000651764
0.000651807
0.000651934
0.000652021
0.000652188
0.00065227
0.000652445
0.000652537
0.000652728
0.000652827
0.000653036
0.000653151
0.00065339
0.000653518
0.000653782
0.000653924
0.000654222
0.000654385
0.000654734
0.000654919
0.000655354
0.000655536
0.000656204
0.000656463
0.000671743
0.000709402
0.00177042
0.00102229
0.000929934
0.000863244
0.000816477
0.000783271
0.000759
0.000740716
0.00072656
0.00071536
0.000706323
0.000698928
0.000692786
0.000687635
0.000683266
0.000679532
0.000676315
0.000673524
0.000671089
0.000668947
0.000667064
0.000665389
0.000663907
0.00066257
0.000661386
0.00066031
0.000659352
0.000658465
0.000657683
0.000656952
0.000656312
0.000655698
0.000655168
0.000654664
0.000654219
0.000653782
0.000653411
0.000653051
0.000652747
0.000652434
0.000652182
0.000651927
0.000651715
0.000651483
0.000651317
0.000651132
0.000650965
0.000650804
0.000650683
0.000650562
0.000650484
0.00065038
0.00065029
0.000650205
0.000650154
0.000650067
0.000650003
0.000649962
0.000649877
0.000649854
0.000649837
0.000649788
0.000649815
0.000649809
0.000649886
0.000649929
0.000650039
0.000650115
0.000650258
0.000650303
0.000650422
0.000650464
0.00065059
0.000650676
0.000650842
0.000650923
0.000651097
0.000651188
0.000651378
0.000651476
0.000651684
0.000651797
0.000652035
0.000652162
0.000652424
0.000652566
0.000652862
0.000653023
0.00065337
0.000653554
0.000653987
0.000654166
0.000654834
0.000655094
0.000670977
0.000708292
0.001752
0.00102232
0.000929924
0.000863095
0.000816159
0.000782796
0.000758391
0.000739997
0.00072575
0.000714475
0.000705376
0.000697928
0.000691741
0.000686552
0.00068215
0.000678387
0.000675145
0.000672332
0.000669878
0.000667718
0.000665819
0.000664131
0.000662637
0.000661288
0.000660094
0.000659009
0.000658041
0.000657147
0.000656358
0.000655621
0.000654975
0.000654355
0.00065382
0.000653311
0.000652861
0.00065242
0.000652045
0.000651682
0.000651374
0.000651059
0.000650803
0.000650546
0.000650331
0.000650096
0.000649928
0.000649742
0.000649573
0.00064941
0.000649287
0.000649164
0.000649084
0.000648979
0.000648888
0.000648801
0.000648748
0.000648661
0.000648596
0.000648554
0.000648469
0.000648444
0.000648426
0.000648376
0.000648399
0.000648392
0.000648468
0.000648507
0.000648616
0.000648692
0.000648834
0.000648877
0.000648995
0.000649036
0.000649161
0.000649246
0.00064941
0.000649491
0.000649663
0.000649753
0.000649942
0.000650039
0.000650245
0.000650358
0.000650595
0.000650721
0.000650981
0.000651121
0.000651415
0.000651576
0.00065192
0.000652102
0.000652533
0.000652709
0.000653376
0.000653639
0.000670162
0.000707105
0.00173184
0.00102235
0.000929914
0.00086294
0.000815826
0.000782297
0.00075775
0.000739239
0.000724895
0.00071354
0.000704374
0.00069687
0.000690636
0.000685406
0.000680969
0.000677175
0.000673906
0.00067107
0.000668595
0.000666416
0.000664501
0.000662798
0.00066129
0.00065993
0.000658725
0.000657629
0.000656653
0.000655751
0.000654954
0.00065421
0.000653557
0.000652932
0.000652391
0.000651877
0.000651423
0.000650977
0.000650598
0.000650231
0.00064992
0.000649601
0.000649342
0.000649082
0.000648865
0.000648627
0.000648456
0.000648267
0.000648097
0.000647931
0.000647807
0.000647681
0.000647599
0.000647493
0.000647401
0.000647313
0.000647258
0.00064717
0.000647104
0.000647061
0.000646976
0.000646949
0.00064693
0.000646878
0.000646899
0.00064689
0.000646964
0.000647001
0.000647108
0.000647183
0.000647323
0.000647364
0.000647481
0.000647521
0.000647645
0.000647729
0.000647892
0.000647972
0.000648143
0.000648232
0.000648419
0.000648516
0.00064872
0.000648832
0.000649067
0.000649192
0.00064945
0.00064959
0.000649881
0.00065004
0.000650382
0.000650563
0.00065099
0.000651164
0.000651831
0.000652097
0.000669295
0.000705835
0.00171003
0.00102238
0.000929905
0.000862779
0.000815478
0.000781773
0.000757076
0.000738441
0.000723994
0.000712555
0.000703318
0.000695755
0.000689469
0.000684196
0.000679722
0.000675896
0.000672598
0.000669737
0.00066724
0.000665041
0.000663109
0.000661389
0.000659868
0.000658495
0.000657278
0.000656172
0.000655186
0.000654275
0.00065347
0.000652718
0.000652059
0.000651427
0.00065088
0.000650361
0.000649901
0.000649452
0.000649068
0.000648696
0.000648381
0.000648059
0.000647797
0.000647533
0.000647313
0.000647073
0.000646899
0.000646708
0.000646536
0.000646368
0.000646241
0.000646114
0.000646029
0.000645922
0.000645828
0.000645738
0.000645682
0.000645593
0.000645526
0.000645482
0.000645397
0.000645367
0.000645347
0.000645294
0.000645312
0.000645301
0.000645373
0.000645407
0.000645512
0.000645587
0.000645725
0.000645764
0.00064588
0.000645919
0.000646042
0.000646125
0.000646286
0.000646365
0.000646535
0.000646623
0.000646809
0.000646905
0.000647107
0.000647218
0.00064745
0.000647575
0.000647831
0.000647969
0.000648259
0.000648417
0.000648755
0.000648934
0.000649359
0.000649531
0.000650196
0.000650465
0.000668373
0.000704477
0.00168667
0.00102241
0.000929896
0.000862612
0.000815115
0.000781225
0.000756369
0.000737603
0.000723049
0.00071152
0.000702208
0.000694581
0.000688242
0.000682923
0.000678409
0.000674548
0.00067122
0.000668332
0.000665811
0.000663592
0.000661641
0.000659905
0.000658368
0.000656981
0.000655752
0.000654635
0.000653639
0.000652718
0.000651904
0.000651145
0.000650478
0.00064984
0.000649286
0.000648761
0.000648297
0.000647842
0.000647454
0.000647077
0.000646759
0.000646433
0.000646167
0.0006459
0.000645677
0.000645434
0.000645256
0.000645063
0.000644889
0.000644718
0.000644589
0.000644459
0.000644373
0.000644264
0.000644169
0.000644076
0.00064402
0.00064393
0.000643861
0.000643815
0.00064373
0.000643698
0.000643677
0.000643622
0.000643638
0.000643625
0.000643695
0.000643725
0.000643829
0.000643903
0.000644039
0.000644076
0.000644191
0.000644229
0.00064435
0.000644431
0.000644592
0.00064467
0.000644838
0.000644925
0.000645109
0.000645204
0.000645405
0.000645515
0.000645745
0.000645868
0.000646122
0.000646259
0.000646546
0.000646703
0.000647039
0.000647216
0.000647638
0.000647806
0.000648471
0.000648744
0.000667392
0.000703024
0.00166186
0.00102245
0.000929888
0.00086244
0.000814737
0.000780653
0.000755631
0.000736727
0.000722058
0.000710434
0.000701043
0.000693349
0.000686953
0.000681585
0.000677029
0.000673132
0.000669772
0.000666856
0.00066431
0.000662068
0.000660097
0.000658343
0.000656791
0.000655389
0.000654147
0.000653017
0.000652011
0.00065108
0.000650257
0.000649489
0.000648815
0.000648169
0.000647609
0.000647078
0.000646608
0.000646148
0.000645755
0.000645374
0.000645051
0.00064472
0.000644451
0.00064418
0.000643954
0.000643708
0.000643527
0.000643331
0.000643155
0.000642982
0.00064285
0.000642717
0.000642629
0.000642518
0.000642421
0.000642327
0.000642269
0.000642178
0.000642107
0.000642061
0.000641975
0.000641941
0.000641919
0.000641862
0.000641875
0.00064186
0.000641927
0.000641954
0.000642056
0.00064213
0.000642264
0.000642298
0.000642412
0.000642449
0.000642569
0.000642648
0.000642807
0.000642884
0.00064305
0.000643137
0.000643319
0.000643413
0.000643612
0.000643721
0.000643948
0.000644071
0.000644323
0.000644459
0.000644743
0.000644898
0.000645231
0.000645406
0.000645825
0.00064599
0.000646654
0.000646932
0.000666345
0.000701472
0.00163572
0.00102248
0.000929881
0.000862262
0.000814346
0.000780059
0.000754861
0.000735811
0.000721021
0.000709298
0.000699823
0.000692059
0.000685603
0.000680183
0.000675582
0.000671647
0.000668252
0.000665307
0.000662734
0.000660469
0.000658477
0.000656704
0.000655134
0.000653718
0.000652461
0.000651319
0.000650301
0.00064936
0.000648528
0.00064775
0.000647068
0.000646415
0.000645848
0.00064531
0.000644834
0.000644368
0.00064397
0.000643583
0.000643256
0.000642922
0.000642648
0.000642373
0.000642144
0.000641894
0.00064171
0.000641512
0.000641333
0.000641157
0.000641023
0.000640887
0.000640796
0.000640683
0.000640585
0.000640489
0.000640429
0.000640337
0.000640265