/*--------------------------------*- C++ -*----------------------------------*\
| =========                 |                                                 |
| \\      /  F ield         | OpenFOAM: The Open Source CFD Toolbox           |
|  \\    /   O peration     | Version:  v2012                                 |
|   \\  /    A nd           | Website:  www.openfoam.com                      |
|    \\/     M anipulation  |                                                 |
\*---------------------------------------------------------------------------*/
FoamFile
{
    version     2.0;
    format      ascii;
    class       volScalarField;
    location    "26.5";
    object      omega;
}
// * * * * * * * * * * * * * * * * * * * * * * * * * * * * * * * * * * * * * //

dimensions      [0 0 -1 0 0 0 0];


internalField   nonuniform List<scalar> 
209825
(
8254.1
7557.35
7027.83
6640.33
6356.31
6144.44
5982.03
5854.96
5753.04
5670.29
5601.65
5544.46
5495.79
5454.5
5418.64
5387.82
5360.58
5336.96
5315.76
5297.27
5280.44
5265.72
5252.12
5240.22
5229.11
5219.38
5210.15
5202.1
5194.4
5187.7
5181.18
5175.57
5170.01
5165.28
5160.55
5156.58
5152.48
5149.08
5145.56
5142.72
5139.62
5137.15
5134.58
5132.45
5130.11
5128.31
5126.31
5124.88
5123.21
5122.03
5120.66
5119.48
5118.13
5117.3
5116.25
5115.31
5114.55
5113.96
5113.55
5112.99
5112.46
5112.11
5111.83
5111.24
5111.01
5110.94
5110.87
5110.75
5110.43
5110.44
5110.37
5110.63
5110.63
5111.23
5111.23
5112.06
5112.06
5113.01
5113.03
5114.12
5114.28
5115.35
5115.72
5116.9
5117.37
5118.65
5119.19
5120.63
5121.17
5122.91
5123.38
5125.97
5126.54
5162.19
5298.06
114030
8254.1
7557.35
7027.82
6640.3
6356.26
6144.38
5981.95
5854.87
5752.94
5670.18
5601.53
5544.33
5495.66
5454.36
5418.49
5387.67
5360.43
5336.81
5315.61
5297.11
5280.28
5265.56
5251.96
5240.05
5228.94
5219.21
5209.98
5201.93
5194.22
5187.53
5181
5175.39
5169.84
5165.11
5160.37
5156.4
5152.3
5148.9
5145.38
5142.54
5139.44
5136.97
5134.4
5132.27
5129.93
5128.12
5126.12
5124.7
5123.02
5121.84
5120.48
5119.29
5117.95
5117.11
5116.07
5115.13
5114.37
5113.77
5113.37
5112.8
5112.27
5111.93
5111.64
5111.05
5110.82
5110.75
5110.68
5110.56
5110.24
5110.25
5110.18
5110.45
5110.45
5111.04
5111.04
5111.87
5111.87
5112.82
5112.84
5113.93
5114.09
5115.16
5115.53
5116.71
5117.18
5118.46
5119
5120.44
5120.98
5122.72
5123.19
5125.77
5126.35
5162.06
5297.9
110733
8254.11
7557.36
7027.78
6640.2
6356.1
6144.15
5981.68
5854.55
5752.59
5669.8
5601.12
5543.9
5495.21
5453.9
5418.02
5387.18
5359.93
5336.3
5315.09
5296.59
5279.75
5265.02
5251.41
5239.5
5228.38
5218.66
5209.42
5201.36
5193.65
5186.96
5180.43
5174.82
5169.25
5164.52
5159.79
5155.81
5151.71
5148.31
5144.79
5141.94
5138.85
5136.37
5133.8
5131.67
5129.32
5127.52
5125.52
5124.09
5122.42
5121.23
5119.87
5118.68
5117.34
5116.5
5115.46
5114.52
5113.76
5113.16
5112.75
5112.18
5111.66
5111.31
5111.03
5110.43
5110.21
5110.13
5110.06
5109.94
5109.62
5109.64
5109.56
5109.82
5109.82
5110.42
5110.42
5111.25
5111.25
5112.19
5112.22
5113.3
5113.46
5114.53
5114.91
5116.09
5116.55
5117.83
5118.37
5119.81
5120.35
5122.09
5122.55
5125.14
5125.72
5161.57
5297.31
106948
8254.13
7557.37
7027.71
6640.02
6355.8
6143.76
5981.2
5854.01
5751.98
5669.14
5600.42
5543.17
5494.44
5453.11
5417.2
5386.34
5359.07
5335.42
5314.2
5295.69
5278.84
5264.1
5250.48
5238.56
5227.43
5217.7
5208.45
5200.39
5192.68
5185.97
5179.44
5173.82
5168.26
5163.52
5158.78
5154.81
5150.7
5147.29
5143.77
5140.92
5137.83
5135.34
5132.78
5130.64
5128.29
5126.49
5124.49
5123.05
5121.38
5120.19
5118.83
5117.64
5116.29
5115.46
5114.41
5113.47
5112.71
5112.11
5111.7
5111.13
5110.61
5110.26
5109.97
5109.38
5109.15
5109.08
5109.01
5108.88
5108.57
5108.58
5108.5
5108.76
5108.76
5109.35
5109.35
5110.18
5110.18
5111.12
5111.15
5112.23
5112.39
5113.46
5113.83
5115.01
5115.47
5116.75
5117.29
5118.73
5119.27
5121.01
5121.47
5124.06
5124.63
5160.7
5296.29
103057
8254.15
7557.38
7027.61
6639.76
6355.39
6143.2
5980.52
5853.23
5751.12
5668.21
5599.43
5542.12
5493.35
5451.97
5416.03
5385.15
5357.85
5334.18
5312.93
5294.4
5277.54
5262.78
5249.15
5237.21
5226.08
5216.33
5207.08
5199.01
5191.28
5184.57
5178.03
5172.41
5166.84
5162.1
5157.35
5153.37
5149.26
5145.85
5142.32
5139.47
5136.37
5133.89
5131.31
5129.18
5126.82
5125.02
5123.01
5121.58
5119.9
5118.71
5117.35
5116.16
5114.81
5113.97
5112.92
5111.98
5111.21
5110.62
5110.2
5109.63
5109.11
5108.75
5108.47
5107.88
5107.65
5107.57
5107.5
5107.38
5107.06
5107.07
5106.98
5107.25
5107.25
5107.83
5107.83
5108.66
5108.66
5109.6
5109.62
5110.71
5110.86
5111.93
5112.3
5113.48
5113.94
5115.22
5115.76
5117.19
5117.74
5119.47
5119.93
5122.52
5123.09
5159.46
5294.84
99163.6
8254.18
7557.39
7027.48
6639.43
6354.85
6142.47
5979.64
5852.21
5749.99
5666.99
5598.13
5540.75
5491.93
5450.5
5414.51
5383.59
5356.25
5332.55
5311.28
5292.73
5275.84
5261.06
5247.41
5235.46
5224.31
5214.55
5205.28
5197.2
5189.47
5182.75
5176.2
5170.57
5164.99
5160.24
5155.49
5151.5
5147.38
5143.97
5140.43
5137.58
5134.47
5131.98
5129.41
5127.27
5124.91
5123.1
5121.09
5119.65
5117.97
5116.78
5115.41
5114.22
5112.87
5112.03
5110.98
5110.03
5109.26
5108.66
5108.25
5107.68
5107.15
5106.8
5106.51
5105.92
5105.68
5105.61
5105.53
5105.41
5105.1
5105.1
5105.01
5105.27
5105.27
5105.85
5105.85
5106.67
5106.67
5107.61
5107.64
5108.71
5108.87
5109.94
5110.31
5111.48
5111.94
5113.22
5113.75
5115.19
5115.73
5117.46
5117.92
5120.51
5121.08
5157.83
5292.95
95307.7
8254.22
7557.41
7027.32
6639.02
6354.18
6141.57
5978.54
5850.95
5748.59
5665.48
5596.52
5539.06
5490.16
5448.67
5412.63
5381.66
5354.28
5330.54
5309.24
5290.65
5273.74
5258.94
5245.26
5233.29
5222.12
5212.35
5203.06
5194.97
5187.22
5180.49
5173.92
5168.28
5162.69
5157.94
5153.18
5149.18
5145.05
5141.63
5138.09
5135.23
5132.12
5129.63
5127.04
5124.9
5122.54
5120.72
5118.71
5117.27
5115.58
5114.39
5113.02
5111.82
5110.47
5109.62
5108.57
5107.62
5106.85
5106.25
5105.83
5105.26
5104.73
5104.37
5104.09
5103.49
5103.25
5103.17
5103.1
5102.97
5102.66
5102.66
5102.57
5102.82
5102.82
5103.4
5103.4
5104.22
5104.22
5105.15
5105.17
5106.25
5106.4
5107.47
5107.84
5109.01
5109.47
5110.74
5111.27
5112.7
5113.25
5114.97
5115.43
5118.02
5118.59
5155.82
5290.61
91508.3
8254.26
7557.43
7027.13
6638.52
6353.38
6140.5
5977.24
5849.45
5746.93
5663.67
5594.6
5537.04
5488.05
5446.49
5410.38
5379.35
5351.92
5328.14
5306.79
5288.17
5271.22
5256.39
5242.69
5230.7
5219.5
5209.71
5200.41
5192.29
5184.53
5177.78
5171.21
5165.55
5159.95
5155.18
5150.41
5146.41
5142.27
5138.84
5135.29
5132.43
5129.31
5126.81
5124.22
5122.07
5119.7
5117.88
5115.86
5114.42
5112.73
5111.53
5110.15
5108.96
5107.59
5106.74
5105.69
5104.74
5103.97
5103.36
5102.94
5102.37
5101.83
5101.47
5101.18
5100.59
5100.35
5100.26
5100.18
5100.06
5099.76
5099.74
5099.64
5099.9
5099.9
5100.47
5100.47
5101.28
5101.28
5102.21
5102.23
5103.3
5103.45
5104.52
5104.88
5106.05
5106.5
5107.77
5108.31
5109.73
5110.28
5112
5112.46
5115.04
5115.6
5153.41
5287.83
87774.4
8254.31
7557.46
7026.92
6637.95
6352.45
6139.25
5975.72
5847.7
5744.99
5661.57
5592.35
5534.68
5485.59
5443.94
5407.76
5376.66
5349.17
5325.34
5303.94
5285.28
5268.29
5253.43
5239.69
5227.67
5216.45
5206.63
5197.31
5189.17
5181.39
5174.63
5168.04
5162.37
5156.75
5151.97
5147.19
5143.17
5139.02
5135.59
5132.03
5129.15
5126.02
5123.52
5120.92
5118.76
5116.39
5114.57
5112.54
5111.09
5109.39
5108.19
5106.81
5105.61
5104.24
5103.39
5102.33
5101.38
5100.6
5099.99
5099.56
5098.99
5098.45
5098.08
5097.8
5097.2
5096.95
5096.87
5096.78
5096.66
5096.36
5096.34
5096.23
5096.48
5096.48
5097.04
5097.04
5097.85
5097.85
5098.77
5098.79
5099.86
5100.01
5101.07
5101.43
5102.6
5103.05
5104.31
5104.84
5106.27
5106.81
5108.53
5108.98
5111.57
5112.12
5150.62
5284.58
84108.6
8254.37
7557.49
7026.67
6637.3
6351.39
6137.83
5973.98
5845.7
5742.77
5659.16
5589.79
5531.98
5482.78
5441.02
5404.75
5373.58
5346.02
5322.12
5300.67
5281.96
5264.93
5250.03
5236.26
5224.2
5212.95
5203.11
5193.75
5185.6
5177.79
5171.01
5164.4
5158.72
5153.09
5148.29
5143.49
5139.46
5135.3
5131.86
5128.29
5125.4
5122.26
5119.75
5117.14
5114.98
5112.6
5110.76
5108.73
5107.27
5105.57
5104.36
5102.97
5101.77
5100.4
5099.54
5098.48
5097.52
5096.74
5096.12
5095.69
5095.11
5094.57
5094.2
5093.91
5093.31
5093.06
5092.98
5092.89
5092.77
5092.46
5092.44
5092.32
5092.56
5092.56
5093.12
5093.12
5093.91
5093.92
5094.84
5094.85
5095.92
5096.06
5097.12
5097.47
5098.64
5099.09
5100.35
5100.88
5102.3
5102.83
5104.55
5105
5107.59
5108.14
5147.42
5280.87
80509.1
8254.43
7557.53
7026.39
6636.57
6350.2
6136.22
5972.02
5843.45
5740.26
5656.45
5586.9
5528.94
5479.6
5437.73
5401.36
5370.1
5342.46
5318.5
5296.99
5278.22
5261.14
5246.19
5232.38
5220.29
5209
5199.12
5189.74
5181.56
5173.73
5166.93
5160.3
5154.59
5148.94
5144.13
5139.32
5135.27
5131.1
5127.64
5124.06
5121.16
5118.01
5115.49
5112.87
5110.7
5108.31
5106.47
5104.43
5102.96
5101.25
5100.03
5098.64
5097.44
5096.06
5095.19
5094.13
5093.17
5092.38
5091.75
5091.31
5090.74
5090.19
5089.82
5089.53
5088.93
5088.67
5088.58
5088.49
5088.36
5088.06
5088.03
5087.9
5088.14
5088.14
5088.69
5088.69
5089.47
5089.47
5090.39
5090.4
5091.46
5091.6
5092.65
5093.01
5094.17
5094.61
5095.87
5096.39
5097.81
5098.34
5100.05
5100.5
5103.09
5103.63
5143.82
5276.69
76970.2
8254.5
7557.57
7026.09
6635.76
6348.87
6134.44
5969.84
5840.94
5737.47
5653.43
5583.68
5525.54
5476.06
5434.06
5397.58
5366.22
5338.49
5314.45
5292.87
5274.04
5256.9
5241.9
5228.05
5215.91
5204.59
5194.68
5185.27
5177.06
5169.2
5162.37
5155.71
5149.99
5144.32
5139.49
5134.66
5130.6
5126.41
5122.93
5119.34
5116.43
5113.27
5110.73
5108.1
5105.92
5103.52
5101.67
5099.62
5098.15
5096.43
5095.2
5093.8
5092.59
5091.21
5090.34
5089.27
5088.3
5087.5
5086.87
5086.43
5085.85
5085.3
5084.92
5084.63
5084.03
5083.76
5083.66
5083.57
5083.44
5083.15
5083.11
5082.97
5083.2
5083.2
5083.73
5083.73
5084.51
5084.51
5085.42
5085.43
5086.48
5086.62
5087.67
5088.01
5089.17
5089.61
5090.86
5091.38
5092.79
5093.32
5095.03
5095.47
5098.06
5098.6
5139.82
5272.04
73486.4
8254.58
7557.62
7025.75
6634.88
6347.42
6132.47
5967.44
5838.17
5734.4
5650.09
5580.12
5521.79
5472.14
5430.01
5393.4
5361.93
5334.11
5309.98
5288.32
5269.42
5252.22
5237.16
5223.26
5211.08
5199.71
5189.76
5180.31
5172.07
5164.18
5157.33
5150.64
5144.9
5139.2
5134.35
5129.5
5125.42
5121.22
5117.73
5114.11
5111.19
5108.02
5105.47
5102.83
5100.64
5098.23
5096.37
5094.31
5092.82
5091.09
5089.86
5088.45
5087.24
5085.85
5084.96
5083.89
5082.92
5082.11
5081.47
5081.02
5080.44
5079.88
5079.5
5079.2
5078.6
5078.33
5078.23
5078.13
5078
5077.71
5077.66
5077.51
5077.73
5077.73
5078.25
5078.25
5079.02
5079.02
5079.92
5079.92
5080.97
5081.1
5082.15
5082.49
5083.64
5084.07
5085.32
5085.84
5087.24
5087.77
5089.47
5089.91
5092.49
5093.03
5135.4
5266.9
70064.2
8254.67
7557.67
7025.39
6633.91
6345.83
6130.33
5964.81
5835.14
5731.03
5646.43
5576.21
5517.68
5467.85
5425.56
5388.81
5357.22
5329.29
5305.07
5283.32
5264.35
5247.08
5231.96
5218
5205.77
5194.35
5184.36
5174.87
5166.6
5158.67
5151.79
5145.08
5139.3
5133.58
5128.71
5123.83
5119.74
5115.51
5112.01
5108.38
5105.44
5102.25
5099.69
5097.03
5094.83
5092.41
5090.54
5088.47
5086.97
5085.23
5083.99
5082.57
5081.35
5079.95
5079.06
5077.98
5077.01
5076.19
5075.55
5075.09
5074.5
5073.94
5073.55
5073.25
5072.64
5072.36
5072.25
5072.15
5072.02
5071.73
5071.67
5071.51
5071.72
5071.72
5072.23
5072.23
5072.99
5072.99
5073.88
5073.88
5074.92
5075.05
5076.09
5076.42
5077.57
5078
5079.24
5079.75
5081.15
5081.67
5083.37
5083.79
5086.38
5086.92
5130.56
5261.27
66709.7
8254.76
7557.73
7025
6632.87
6344.11
6127.99
5961.96
5831.84
5727.36
5642.46
5571.97
5513.21
5463.18
5420.71
5383.82
5352.09
5324.05
5299.72
5277.88
5258.82
5241.48
5226.3
5212.27
5199.98
5188.52
5178.48
5168.95
5160.63
5152.67
5145.75
5139.01
5133.2
5127.46
5122.56
5117.66
5113.54
5109.3
5105.77
5102.12
5099.16
5095.96
5093.38
5090.71
5088.5
5086.06
5084.18
5082.1
5080.59
5078.84
5077.59
5076.16
5074.93
5073.53
5072.63
5071.54
5070.56
5069.73
5069.08
5068.61
5068.02
5067.45
5067.05
5066.75
5066.14
5065.85
5065.74
5065.63
5065.5
5065.21
5065.14
5064.97
5065.17
5065.17
5065.67
5065.67
5066.41
5066.41
5067.28
5067.29
5068.32
5068.44
5069.48
5069.8
5070.94
5071.37
5072.6
5073.11
5074.5
5075.02
5076.71
5077.13
5079.72
5080.25
5125.29
5255.14
63428.5
8254.86
7557.8
7024.59
6631.75
6342.26
6125.48
5958.88
5828.29
5723.4
5638.15
5567.37
5508.37
5458.12
5415.47
5378.41
5346.54
5318.36
5293.93
5271.98
5252.84
5235.41
5220.15
5206.06
5193.71
5182.19
5172.1
5162.52
5154.16
5146.16
5139.2
5132.42
5126.59
5120.81
5115.89
5110.96
5106.82
5102.55
5099.01
5095.33
5092.36
5089.14
5086.54
5083.86
5081.63
5079.18
5077.29
5075.19
5073.67
5071.91
5070.64
5069.21
5067.97
5066.56
5065.64
5064.55
5063.56
5062.73
5062.06
5061.58
5060.99
5060.41
5060.01
5059.7
5059.09
5058.79
5058.67
5058.55
5058.42
5058.13
5058.06
5057.87
5058.07
5058.06
5058.54
5058.54
5059.27
5059.27
5060.13
5060.14
5061.16
5061.27
5062.3
5062.62
5063.76
5064.17
5065.4
5065.9
5067.29
5067.8
5069.48
5069.9
5072.49
5073.01
5119.6
5248.5
60225.8
8254.96
7557.87
7024.15
6630.55
6340.27
6122.78
5955.57
5824.46
5719.13
5633.52
5562.43
5503.15
5452.67
5409.82
5372.57
5340.55
5312.24
5287.68
5265.62
5246.38
5228.86
5213.53
5199.36
5186.94
5175.36
5165.22
5155.58
5147.18
5139.13
5132.14
5125.32
5119.46
5113.64
5108.69
5103.73
5099.57
5095.27
5091.71
5088.01
5085.02
5081.78
5079.17
5076.46
5074.22
5071.76
5069.85
5067.73
5066.2
5064.43
5063.15
5061.7
5060.46
5059.03
5058.11
5057.01
5056.01
5055.16
5054.49
5054
5053.4
5052.82
5052.4
5052.09
5051.48
5051.17
5051.05
5050.92
5050.79
5050.5
5050.42
5050.21
5050.4
5050.39
5050.86
5050.85
5051.56
5051.56
5052.42
5052.42
5053.43
5053.54
5054.56
5054.87
5056
5056.41
5057.63
5058.13
5059.5
5060.01
5061.68
5062.09
5064.68
5065.2
5113.46
5241.35
57106.5
8255.07
7557.95
7023.69
6629.27
6338.16
6119.9
5952.03
5820.36
5714.57
5628.56
5557.12
5497.56
5446.82
5403.75
5366.32
5334.13
5305.66
5280.97
5258.8
5239.45
5221.83
5206.41
5192.16
5179.68
5168.03
5157.82
5148.14
5139.68
5131.59
5124.55
5117.69
5111.79
5105.94
5100.96
5095.97
5091.78
5087.46
5083.86
5080.15
5077.13
5073.87
5071.24
5068.51
5066.26
5063.78
5061.85
5059.72
5058.17
5056.39
5055.09
5053.63
5052.38
5050.95
5050.01
5048.9
5047.9
5047.04
5046.35
5045.85
5045.25
5044.66
5044.23
5043.91
5043.31
5042.98
5042.85
5042.71
5042.58
5042.29
5042.2
5041.98
5042.16
5042.14
5042.59
5042.59
5043.28
5043.28
5044.12
5044.12
5045.12
5045.22
5046.24
5046.54
5047.66
5048.06
5049.28
5049.77
5051.14
5051.64
5053.3
5053.7
5056.29
5056.81
5106.87
5233.67
54075
8255.19
7558.04
7023.2
6627.93
6335.91
6116.84
5948.26
5816
5709.7
5623.26
5551.46
5491.58
5440.58
5397.27
5359.63
5327.26
5298.63
5273.8
5251.5
5232.03
5214.31
5198.8
5184.46
5171.91
5160.18
5149.92
5140.17
5131.66
5123.51
5116.43
5109.53
5103.59
5097.7
5092.68
5087.66
5083.44
5079.09
5075.47
5071.72
5068.69
5065.41
5062.75
5060
5057.73
5055.23
5053.29
5051.15
5049.58
5047.78
5046.47
5045
5043.74
5042.29
5041.34
5040.22
5039.21
5038.34
5037.64
5037.13
5036.52
5035.92
5035.48
5035.16
5034.55
5034.22
5034.07
5033.93
5033.79
5033.5
5033.41
5033.17
5033.33
5033.31
5033.74
5033.75
5034.42
5034.42
5035.24
5035.24
5036.23
5036.32
5037.33
5037.62
5038.74
5039.13
5040.33
5040.82
5042.18
5042.67
5044.33
5044.72
5047.31
5047.83
5099.82
5225.45
51135.5
8255.31
7558.13
7022.69
6626.5
6333.53
6113.59
5944.26
5811.36
5704.52
5617.63
5545.44
5485.22
5433.93
5390.37
5352.51
5319.95
5291.15
5266.16
5243.72
5224.13
5206.3
5190.69
5176.26
5163.62
5151.82
5141.48
5131.67
5123.11
5114.9
5107.77
5100.82
5094.84
5088.91
5083.86
5078.8
5074.55
5070.16
5066.52
5062.74
5059.68
5056.38
5053.7
5050.93
5048.64
5046.12
5044.16
5042
5040.42
5038.6
5037.27
5035.78
5034.51
5033.05
5032.09
5030.96
5029.94
5029.06
5028.35
5027.82
5027.21
5026.6
5026.15
5025.82
5025.21
5024.86
5024.71
5024.55
5024.42
5024.12
5024.02
5023.77
5023.92
5023.89
5024.31
5024.31
5024.96
5024.96
5025.76
5025.76
5026.74
5026.82
5027.83
5028.1
5029.21
5029.59
5030.79
5031.27
5032.62
5033.11
5034.75
5035.13
5037.72
5038.25
5092.31
5216.68
48291.7
8255.43
7558.24
7022.17
6625.01
6331.03
6110.16
5940.03
5806.45
5699.04
5611.66
5539.05
5478.48
5426.88
5383.05
5344.95
5312.18
5283.19
5258.04
5235.46
5215.74
5197.79
5182.07
5167.54
5154.81
5142.93
5132.52
5122.64
5114.01
5105.75
5098.57
5091.57
5085.54
5079.57
5074.48
5069.38
5065.09
5060.67
5057
5053.19
5050.1
5046.77
5044.07
5041.28
5038.97
5036.43
5034.45
5032.27
5030.67
5028.83
5027.49
5025.98
5024.71
5023.23
5022.25
5021.11
5020.08
5019.18
5018.46
5017.92
5017.3
5016.68
5016.22
5015.88
5015.27
5014.91
5014.75
5014.58
5014.44
5014.14
5014.04
5013.77
5013.91
5013.87
5014.27
5014.27
5014.9
5014.9
5015.68
5015.68
5016.64
5016.72
5017.72
5017.98
5019.08
5019.45
5020.64
5021.11
5022.45
5022.93
5024.56
5024.93
5027.53
5028.05
5084.31
5207.34
45547.2
8255.57
7558.35
7021.62
6623.45
6328.39
6106.55
5935.57
5801.27
5693.25
5605.35
5532.3
5471.35
5419.41
5375.3
5336.95
5303.96
5274.77
5249.45
5226.71
5206.85
5188.77
5172.94
5158.3
5145.48
5133.51
5123.03
5113.07
5104.38
5096.05
5088.81
5081.76
5075.68
5069.66
5064.53
5059.39
5055.06
5050.61
5046.9
5043.07
5039.95
5036.59
5033.86
5031.04
5028.71
5026.15
5024.16
5021.95
5020.33
5018.47
5017.11
5015.59
5014.3
5012.81
5011.82
5010.67
5009.62
5008.71
5007.97
5007.42
5006.79
5006.16
5005.69
5005.34
5004.73
5004.35
5004.18
5004
5003.86
5003.56
5003.45
5003.17
5003.29
5003.25
5003.62
5003.62
5004.23
5004.23
5004.99
5004.99
5005.94
5006
5006.99
5007.24
5008.33
5008.69
5009.87
5010.33
5011.66
5012.14
5013.76
5014.12
5016.71
5017.24
5075.81
5197.41
42904.8
8255.71
7558.47
7021.05
6621.82
6325.64
6102.76
5930.88
5795.82
5687.15
5598.7
5525.18
5463.82
5411.54
5367.12
5328.5
5295.27
5265.88
5240.37
5217.46
5197.45
5179.24
5163.28
5148.54
5135.62
5123.55
5112.98
5102.95
5094.19
5085.79
5078.5
5071.38
5065.25
5059.19
5054.01
5048.82
5044.46
5039.97
5036.23
5032.36
5029.21
5025.82
5023.07
5020.22
5017.86
5015.28
5013.26
5011.03
5009.39
5007.52
5006.14
5004.6
5003.3
5001.79
5000.78
4999.62
4998.56
4997.63
4996.88
4996.31
4995.67
4995.03
4994.55
4994.19
4993.58
4993.19
4993
4992.81
4992.67
4992.36
4992.24
4991.95
4992.05
4992
4992.35
4992.35
4992.94
4992.94
4993.67
4993.68
4994.61
4994.66
4995.64
4995.88
4996.96
4997.31
4998.48
4998.93
5000.25
5000.71
5002.33
5002.67
5005.27
5005.8
5066.81
5186.88
40367.4
8255.85
7558.6
7020.46
6620.12
6322.76
6098.79
5925.97
5790.1
5680.74
5591.71
5517.69
5455.91
5403.25
5358.51
5319.6
5286.13
5256.51
5230.8
5207.71
5187.55
5169.19
5153.11
5138.25
5125.22
5113.05
5102.4
5092.28
5083.44
5074.97
5067.61
5060.44
5054.26
5048.13
5042.91
5037.67
5033.27
5028.74
5024.96
5021.05
5017.87
5014.46
5011.67
5008.79
5006.42
5003.81
5001.77
4999.52
4997.85
4995.95
4994.55
4993
4991.68
4990.16
4989.13
4987.95
4986.89
4985.94
4985.17
4984.58
4983.94
4983.28
4982.79
4982.42
4981.8
4981.4
4981.2
4981
4980.85
4980.54
4980.41
4980.11
4980.2
4980.13
4980.46
4980.46
4981.02
4981.02
4981.73
4981.74
4982.65
4982.69
4983.66
4983.88
4984.96
4985.29
4986.45
4986.89
4988.2
4988.66
4990.26
4990.59
4993.19
4993.73
5057.28
5175.72
37937.3
8256
7558.74
7019.86
6618.36
6319.76
6094.65
5920.82
5784.1
5674.02
5584.38
5509.83
5447.59
5394.54
5349.46
5310.25
5276.51
5246.66
5220.74
5197.47
5177.14
5158.62
5142.4
5127.41
5114.28
5102
5091.25
5081.05
5072.13
5063.59
5056.16
5048.92
5042.68
5036.5
5031.22
5025.94
5021.49
5016.92
5013.1
5009.15
5005.94
5002.49
4999.68
4996.76
4994.36
4991.73
4989.66
4987.39
4985.7
4983.78
4982.35
4980.78
4979.45
4977.91
4976.86
4975.67
4974.59
4973.63
4972.84
4972.23
4971.58
4970.91
4970.41
4970.02
4969.4
4968.98
4968.77
4968.56
4968.41
4968.09
4967.96
4967.64
4967.71
4967.63
4967.93
4967.93
4968.47
4968.46
4969.15
4969.16
4970.05
4970.09
4971.04
4971.25
4972.31
4972.64
4973.79
4974.21
4975.51
4975.96
4977.54
4977.87
4980.46
4981.01
5047.19
5163.93
35616.6
8256.15
7558.9
7019.25
6616.54
6316.64
6090.33
5915.46
5777.84
5667
5576.7
5501.6
5438.88
5385.41
5339.97
5300.44
5266.43
5236.32
5210.19
5186.71
5166.2
5147.53
5131.17
5116.04
5102.78
5090.4
5079.55
5069.25
5060.25
5051.63
5044.13
5036.82
5030.52
5024.28
5018.95
5013.61
5009.12
5004.5
5000.64
4996.65
4993.4
4989.91
4987.07
4984.12
4981.7
4979.03
4976.94
4974.64
4972.93
4970.98
4969.53
4967.94
4966.59
4965.04
4963.96
4962.76
4961.67
4960.68
4959.88
4959.25
4958.59
4957.91
4957.39
4956.99
4956.37
4955.93
4955.71
4955.48
4955.32
4955
4954.86
4954.53
4954.58
4954.49
4954.77
4954.76
4955.27
4955.27
4955.93
4955.94
4956.8
4956.83
4957.78
4957.97
4959.02
4959.33
4960.47
4960.88
4962.16
4962.6
4964.18
4964.49
4967.09
4967.65
5036.5
5151.49
33406.9
8256.3
7559.06
7018.62
6614.66
6313.41
6085.84
5909.87
5771.31
5659.66
5568.69
5492.99
5429.78
5375.87
5330.05
5290.18
5255.87
5225.5
5199.13
5175.44
5154.75
5135.9
5119.39
5104.13
5090.74
5078.24
5067.28
5056.88
5047.8
5039.09
5031.51
5024.13
5017.76
5011.46
5006.07
5000.68
4996.14
4991.47
4987.57
4983.54
4980.25
4976.73
4973.85
4970.86
4968.41
4965.71
4963.6
4961.26
4959.53
4957.56
4956.09
4954.46
4953.1
4951.53
4950.44
4949.21
4948.11
4947.1
4946.28
4945.63
4944.96
4944.26
4943.73
4943.31
4942.69
4942.24
4942
4941.76
4941.59
4941.26
4941.12
4940.78
4940.81
4940.7
4940.95
4940.95
4941.43
4941.42
4942.06
4942.06
4942.91
4942.93
4943.86
4944.04
4945.07
4945.37
4946.49
4946.89
4948.16
4948.59
4950.15
4950.45
4953.05
4953.62
5025.18
5138.39
31309.8
8256.46
7559.23
7017.99
6612.72
6310.06
6081.19
5904.06
5764.52
5652.02
5560.33
5484.02
5420.27
5365.9
5319.68
5279.46
5244.84
5214.19
5187.58
5163.67
5142.78
5123.75
5107.07
5091.66
5078.14
5065.51
5054.45
5043.94
5034.76
5025.96
5018.31
5010.85
5004.41
4998.04
4992.6
4987.15
4982.55
4977.83
4973.89
4969.81
4966.48
4962.92
4960
4956.98
4954.49
4951.77
4949.63
4947.26
4945.5
4943.5
4942
4940.35
4938.98
4937.38
4936.27
4935.03
4933.9
4932.88
4932.04
4931.37
4930.68
4929.97
4929.42
4928.99
4928.37
4927.89
4927.65
4927.38
4927.21
4926.87
4926.72
4926.38
4926.38
4926.26
4926.49
4926.48
4926.92
4926.92
4927.53
4927.53
4928.35
4928.37
4929.28
4929.44
4930.46
4930.75
4931.86
4932.24
4933.5
4933.92
4935.46
4935.75
4938.34
4938.93
5013.19
5124.62
29326.5
8256.62
7559.41
7017.34
6610.73
6306.61
6076.37
5898.03
5757.46
5644.08
5551.63
5474.68
5410.37
5355.52
5308.87
5268.28
5233.33
5202.39
5175.52
5151.37
5130.28
5111.05
5094.21
5078.64
5064.98
5052.22
5041.04
5030.43
5021.14
5012.25
5004.51
4996.97
4990.46
4984.02
4978.51
4973
4968.35
4963.58
4959.59
4955.46
4952.08
4948.48
4945.53
4942.47
4939.95
4937.19
4935.02
4932.62
4930.83
4928.8
4927.27
4925.6
4924.21
4922.59
4921.45
4920.19
4919.05
4918.01
4917.15
4916.45
4915.76
4915.03
4914.46
4914.02
4913.39
4912.89
4912.63
4912.35
4912.18
4911.83
4911.67
4911.32
4911.3
4911.15
4911.36
4911.34
4911.76
4911.76
4912.33
4912.34
4913.13
4913.14
4914.03
4914.18
4915.18
4915.45
4916.55
4916.92
4918.16
4918.57
4920.1
4920.37
4922.96
4923.56
5000.47
5110.18
27458.1
8256.79
7559.61
7016.69
6608.69
6303.05
6071.38
5891.79
5750.14
5635.84
5542.6
5464.96
5400.08
5344.71
5297.62
5256.63
5221.34
5190.09
5162.95
5138.56
5117.24
5097.82
5080.8
5065.07
5051.26
5038.36
5027.06
5016.33
5006.94
4997.95
4990.12
4982.49
4975.91
4969.39
4963.82
4958.24
4953.53
4948.7
4944.66
4940.48
4937.06
4933.41
4930.42
4927.32
4924.77
4921.97
4919.77
4917.34
4915.51
4913.45
4911.9
4910.2
4908.79
4907.15
4905.98
4904.71
4903.55
4902.48
4901.6
4900.88
4900.17
4899.43
4898.84
4898.38
4897.75
4897.23
4896.95
4896.65
4896.47
4896.11
4895.95
4895.59
4895.55
4895.38
4895.57
4895.54
4895.92
4895.92
4896.47
4896.47
4897.23
4897.23
4898.11
4898.24
4899.23
4899.48
4900.56
4900.92
4902.14
4902.54
4904.05
4904.31
4906.9
4907.52
4986.97
5095.01
25705.6
8256.96
7559.81
7016.03
6606.61
6299.39
6066.24
5885.34
5742.56
5627.29
5533.23
5454.88
5389.38
5333.48
5285.93
5244.53
5208.87
5177.3
5149.88
5125.23
5103.68
5084.05
5066.84
5050.93
5036.97
5023.93
5012.5
5001.64
4992.14
4983.04
4975.13
4967.4
4960.74
4954.15
4948.51
4942.86
4938.09
4933.2
4929.1
4924.87
4921.4
4917.71
4914.67
4911.53
4908.94
4906.1
4903.87
4901.41
4899.55
4897.46
4895.88
4894.15
4892.71
4891.05
4889.86
4888.56
4887.39
4886.29
4885.39
4884.64
4883.92
4883.16
4882.55
4882.07
4881.44
4880.9
4880.61
4880.29
4880.1
4879.73
4879.55
4879.19
4879.13
4878.94
4879.1
4879.06
4879.41
4879.41
4879.92
4879.92
4880.65
4880.65
4881.51
4881.62
4882.59
4882.83
4883.89
4884.23
4885.44
4885.83
4887.32
4887.56
4890.15
4890.78
4972.65
5079.07
24069.6
8257.13
7560.03
7015.37
6604.48
6295.64
6060.95
5878.69
5734.73
5618.46
5523.53
5444.44
5378.3
5321.83
5273.79
5231.96
5195.93
5164.02
5136.3
5111.37
5089.59
5069.73
5052.33
5036.24
5022.12
5008.92
4997.35
4986.36
4976.76
4967.54
4959.53
4951.71
4944.96
4938.29
4932.57
4926.85
4922.02
4917.06
4912.91
4908.62
4905.11
4901.36
4898.28
4895.09
4892.47
4889.59
4887.32
4884.82
4882.93
4880.81
4879.19
4877.43
4875.98
4874.29
4873.07
4871.75
4870.56
4869.44
4868.51
4867.73
4867
4866.22
4865.59
4865.09
4864.45
4863.89
4863.59
4863.25
4863.05
4862.67
4862.49
4862.11
4862.04
4861.82
4861.96
4861.91
4862.22
4862.22
4862.69
4862.7
4863.39
4863.39
4864.22
4864.31
4865.27
4865.48
4866.53
4866.86
4868.05
4868.42
4869.9
4870.12
4872.71
4873.36
4957.43
5062.32
22548.6
8257.3
7560.26
7014.71
6602.31
6291.79
6055.52
5871.84
5726.66
5609.33
5513.5
5433.63
5366.82
5309.77
5261.22
5218.94
5182.51
5150.25
5122.21
5097
5074.96
5054.87
5037.26
5020.98
5006.69
4993.33
4981.62
4970.5
4960.77
4951.44
4943.32
4935.4
4928.57
4921.81
4916.02
4910.22
4905.32
4900.3
4896.09
4891.74
4888.17
4884.37
4881.25
4878.01
4875.34
4872.43
4870.12
4867.58
4865.65
4863.5
4861.85
4860.06
4858.58
4856.86
4855.62
4854.27
4853.06
4851.91
4850.96
4850.16
4849.4
4848.6
4847.96
4847.44
4846.79
4846.21
4845.89
4845.52
4845.32
4844.92
4844.73
4844.35
4844.26
4844.02
4844.13
4844.07
4844.35
4844.34
4844.78
4844.78
4845.43
4845.43
4846.24
4846.31
4847.25
4847.45
4848.48
4848.79
4849.96
4850.32
4851.78
4851.99
4854.57
4855.23
4941.29
5044.72
21137.4
8257.47
7560.51
7014.05
6600.1
6287.86
6049.94
5864.79
5718.33
5599.91
5503.15
5422.46
5354.95
5297.29
5248.21
5205.45
5168.61
5135.97
5107.61
5082.1
5059.8
5039.47
5021.64
5005.16
4990.69
4977.16
4965.3
4954.04
4944.18
4934.73
4926.51
4918.48
4911.56
4904.7
4898.83
4892.95
4887.98
4882.89
4878.62
4874.21
4870.58
4866.74
4863.56
4860.27
4857.56
4854.6
4852.26
4849.68
4847.71
4845.52
4843.84
4842.01
4840.51
4838.77
4837.49
4836.12
4834.89
4833.71
4832.74
4831.9
4831.13
4830.31
4829.65
4829.1
4828.45
4827.84
4827.5
4827.12
4826.9
4826.49
4826.29
4825.9
4825.79
4825.53
4825.62
4825.54
4825.78
4825.77
4826.17
4826.17
4826.79
4826.78
4827.56
4827.62
4828.54
4828.71
4829.73
4830.02
4831.17
4831.51
4832.95
4833.15
4835.72
4836.4
4924.22
5026.22
19831.4
8257.64
7560.76
7013.4
6597.87
6283.85
6044.22
5857.55
5709.77
5590.21
5492.47
5410.94
5342.7
5284.4
5234.76
5191.51
5154.24
5121.21
5092.5
5066.68
5044.11
5023.52
5005.47
4988.78
4974.12
4960.41
4948.4
4936.98
4927
4917.42
4909.08
4900.95
4893.92
4886.97
4881.02
4875.05
4870.01
4864.85
4860.51
4856.03
4852.35
4848.45
4845.22
4841.87
4839.12
4836.12
4833.74
4831.11
4829.11
4826.88
4825.16
4823.3
4821.76
4820
4818.69
4817.29
4816.04
4814.83
4813.83
4812.96
4812.18
4811.33
4810.65
4810.08
4809.42
4808.79
4808.43
4808.02
4807.79
4807.37
4807.16
4806.76
4806.64
4806.35
4806.41
4806.31
4806.53
4806.51
4806.87
4806.87
4807.44
4807.43
4808.18
4808.23
4809.12
4809.28
4810.27
4810.54
4811.68
4812
4813.42
4813.6
4816.17
4816.86
4906.19
5006.78
18625.3
8257.82
7561.03
7012.74
6595.61
6279.76
6038.38
5850.13
5700.98
5580.23
5481.48
5399.07
5330.07
5271.1
5220.88
5177.12
5139.39
5105.96
5076.89
5050.74
5027.88
5007.03
4988.74
4971.83
4956.97
4943.08
4930.9
4919.34
4909.21
4899.5
4891.04
4882.79
4875.67
4868.62
4862.57
4856.52
4851.4
4846.16
4841.76
4837.21
4833.47
4829.5
4826.23
4822.82
4820.03
4816.97
4814.55
4811.88
4809.84
4807.56
4805.81
4803.91
4802.35
4800.55
4799.21
4797.78
4796.5
4795.27
4794.25
4793.34
4792.53
4791.67
4790.96
4790.36
4789.7
4789.04
4788.66
4788.23
4787.99
4787.55
4787.33
4786.92
4786.78
4786.47
4786.51
4786.39
4786.57
4786.54
4786.86
4786.86
4787.39
4787.38
4788.1
4788.13
4789
4789.13
4790.11
4790.36
4791.47
4791.78
4793.18
4793.34
4795.9
4796.6
4887.19
4986.36
17513.7
8257.99
7561.31
7012.1
6593.32
6275.6
6032.41
5842.53
5691.97
5569.99
5470.18
5386.85
5317.06
5257.39
5206.57
5162.27
5124.07
5090.22
5060.78
5034.29
5011.12
4989.99
4971.46
4954.31
4939.26
4925.17
4912.82
4901.09
4890.82
4880.97
4872.39
4864.02
4856.79
4849.63
4843.5
4837.35
4832.15
4826.83
4822.36
4817.74
4813.93
4809.9
4806.57
4803.11
4800.26
4797.16
4794.69
4791.98
4789.89
4787.57
4785.78
4783.84
4782.25
4780.42
4779.05
4777.59
4776.29
4775.02
4773.97
4773.03
4772.2
4771.31
4770.58
4769.96
4769.28
4768.61
4768.21
4767.75
4767.49
4767.03
4766.81
4766.37
4766.23
4765.91
4765.91
4765.77
4765.92
4765.88
4766.16
4766.15
4766.63
4766.63
4767.31
4767.32
4768.17
4768.28
4769.23
4769.46
4770.56
4770.85
4772.22
4772.37
4774.91
4775.62
4867.23
4964.93
16491
8258.16
7561.6
7011.47
6591.02
6271.37
6026.32
5834.76
5682.73
5559.48
5458.57
5374.29
5303.68
5243.29
5191.84
5146.98
5108.29
5073.99
5044.16
5017.32
4993.84
4972.41
4953.62
4936.24
4920.97
4906.68
4894.15
4882.25
4871.83
4861.83
4853.12
4844.63
4837.29
4830.02
4823.79
4817.55
4812.26
4806.85
4802.31
4797.61
4793.74
4789.65
4786.26
4782.73
4779.84
4776.68
4774.17
4771.4
4769.27
4766.91
4765.08
4763.09
4761.47
4759.61
4758.2
4756.71
4755.39
4754.09
4753.01
4752.03
4751.18
4750.26
4749.51
4748.86
4748.17
4747.47
4747.05
4746.56
4746.29
4745.81
4745.58
4745.13
4744.97
4744.64
4744.61
4744.44
4744.56
4744.51
4744.75
4744.73
4745.17
4745.17
4745.8
4745.81
4746.62
4746.71
4747.65
4747.85
4748.92
4749.2
4750.55
4750.68
4753.21
4753.92
4846.27
4942.45
15551.5
8258.33
7561.9
7010.85
6588.7
6267.09
6020.13
5826.84
5673.29
5548.71
5446.67
5361.4
5289.93
5228.79
5176.68
5131.24
5092.04
5057.28
5027.05
4999.83
4976.02
4954.3
4935.24
4917.6
4902.11
4887.62
4874.9
4862.82
4852.24
4842.09
4833.24
4824.62
4817.16
4809.78
4803.45
4797.1
4791.73
4786.23
4781.61
4776.84
4772.9
4768.74
4765.28
4761.69
4758.75
4755.54
4752.97
4750.16