/*--------------------------------*- C++ -*----------------------------------*\
| =========                 |                                                 |
| \\      /  F ield         | OpenFOAM: The Open Source CFD Toolbox           |
|  \\    /   O peration     | Version:  v2012                                 |
|   \\  /    A nd           | Website:  www.openfoam.com                      |
|    \\/     M anipulation  |                                                 |
\*---------------------------------------------------------------------------*/
FoamFile
{
    version     2.0;
    format      ascii;
    class       volVectorField;
    location    "26.5";
    object      wallShearStress;
}
// * * * * * * * * * * * * * * * * * * * * * * * * * * * * * * * * * * * * * //

dimensions      [0 2 -2 0 0 0 0];


internalField   uniform (0 0 0);

boundaryField
{
    inlet
    {
        type            calculated;
        value           uniform (0 0 0);
    }
    outlet
    {
        type            calculated;
        value           uniform (0 0 0);
    }
    topWall
    {
        type            calculated;
        value           nonuniform List<vector> 
545
(
(3.62739e-08 -2.55321e-08 0)
(3.62638e-08 -7.14322e-08 0)
(3.62387e-08 -1.19153e-07 0)
(3.62074e-08 -1.65491e-07 0)
(3.61691e-08 -2.09852e-07 0)
(3.61241e-08 -2.52808e-07 0)
(3.60727e-08 -2.94722e-07 0)
(3.60154e-08 -3.35576e-07 0)
(3.59527e-08 -3.7528e-07 0)
(3.5885e-08 -4.13833e-07 0)
(3.58129e-08 -4.51286e-07 0)
(3.57368e-08 -4.87681e-07 0)
(3.5657e-08 -5.23045e-07 0)
(3.55739e-08 -5.57396e-07 0)
(3.5488e-08 -5.90761e-07 0)
(3.53995e-08 -6.23166e-07 0)
(3.53087e-08 -6.54636e-07 0)
(3.5216e-08 -6.85197e-07 0)
(3.51216e-08 -7.14873e-07 0)
(3.50258e-08 -7.43688e-07 0)
(3.49287e-08 -7.71666e-07 0)
(3.48307e-08 -7.9883e-07 0)
(3.47319e-08 -8.25203e-07 0)
(3.46326e-08 -8.50808e-07 0)
(3.45328e-08 -8.75666e-07 0)
(3.44329e-08 -8.99798e-07 0)
(3.43328e-08 -9.23225e-07 0)
(3.42329e-08 -9.45969e-07 0)
(3.41331e-08 -9.68048e-07 0)
(3.40337e-08 -9.89483e-07 0)
(3.39347e-08 -1.01029e-06 0)
(3.38362e-08 -1.03049e-06 0)
(3.37384e-08 -1.0501e-06 0)
(3.36413e-08 -1.06914e-06 0)
(3.35451e-08 -1.08763e-06 0)
(3.34497e-08 -1.10557e-06 0)
(3.33552e-08 -1.12299e-06 0)
(3.32618e-08 -1.13991e-06 0)
(3.31693e-08 -1.15633e-06 0)
(3.3078e-08 -1.17228e-06 0)
(3.29879e-08 -1.18776e-06 0)
(3.28989e-08 -1.20279e-06 0)
(3.28111e-08 -1.21739e-06 0)
(3.27246e-08 -1.23157e-06 0)
(3.26393e-08 -1.24533e-06 0)
(3.25554e-08 -1.2587e-06 0)
(3.24727e-08 -1.27168e-06 0)
(3.23913e-08 -1.28429e-06 0)
(3.23113e-08 -1.29654e-06 0)
(3.22326e-08 -1.30843e-06 0)
(3.21552e-08 -1.31998e-06 0)
(3.20792e-08 -1.3312e-06 0)
(3.20045e-08 -1.3421e-06 0)
(3.19311e-08 -1.35268e-06 0)
(3.18591e-08 -1.36297e-06 0)
(3.17885e-08 -1.37296e-06 0)
(3.17191e-08 -1.38266e-06 0)
(3.16511e-08 -1.39209e-06 0)
(3.15844e-08 -1.40125e-06 0)
(3.1519e-08 -1.41015e-06 0)
(3.14548e-08 -1.4188e-06 0)
(3.1392e-08 -1.4272e-06 0)
(3.13304e-08 -1.43537e-06 0)
(3.127e-08 -1.4433e-06 0)
(3.12109e-08 -1.45102e-06 0)
(3.1153e-08 -1.45851e-06 0)
(3.10962e-08 -1.46579e-06 0)
(3.10407e-08 -1.47287e-06 0)
(3.09863e-08 -1.47975e-06 0)
(3.09331e-08 -1.48643e-06 0)
(3.0881e-08 -1.49293e-06 0)
(3.08298e-08 -1.49924e-06 0)
(3.07803e-08 -1.50531e-06 0)
(3.07324e-08 -1.5112e-06 0)
(3.0685e-08 -1.51702e-06 0)
(3.06377e-08 -1.52282e-06 0)
(3.05904e-08 -1.52859e-06 0)
(3.05432e-08 -1.53432e-06 0)
(3.0496e-08 -1.54002e-06 0)
(3.04488e-08 -1.54568e-06 0)
(3.04017e-08 -1.55131e-06 0)
(3.03546e-08 -1.55691e-06 0)
(3.03076e-08 -1.56247e-06 0)
(3.02606e-08 -1.56799e-06 0)
(3.02137e-08 -1.57348e-06 0)
(3.01669e-08 -1.57894e-06 0)
(3.012e-08 -1.58437e-06 0)
(3.00733e-08 -1.58976e-06 0)
(3.00266e-08 -1.59512e-06 0)
(2.99799e-08 -1.60044e-06 0)
(2.99333e-08 -1.60573e-06 0)
(2.98868e-08 -1.61099e-06 0)
(2.98404e-08 -1.61623e-06 0)
(2.97938e-08 -1.62142e-06 0)
(2.9748e-08 -1.6266e-06 0)
(2.96992e-08 -1.63167e-06 0)
(2.96526e-08 -1.63632e-06 0)
(2.96133e-08 -1.64057e-06 0)
(2.95752e-08 -1.64467e-06 0)
(2.95372e-08 -1.64879e-06 0)
(2.94992e-08 -1.65295e-06 0)
(2.9461e-08 -1.65713e-06 0)
(2.94226e-08 -1.6613e-06 0)
(2.9384e-08 -1.66548e-06 0)
(2.93453e-08 -1.66965e-06 0)
(2.93064e-08 -1.67383e-06 0)
(2.92673e-08 -1.67802e-06 0)
(2.9228e-08 -1.68221e-06 0)
(2.91885e-08 -1.68641e-06 0)
(2.91488e-08 -1.69061e-06 0)
(2.91089e-08 -1.69481e-06 0)
(2.90689e-08 -1.69902e-06 0)
(2.90286e-08 -1.70323e-06 0)
(2.89882e-08 -1.70745e-06 0)
(2.89476e-08 -1.71167e-06 0)
(2.89068e-08 -1.71589e-06 0)
(2.88658e-08 -1.72012e-06 0)
(2.88246e-08 -1.72435e-06 0)
(2.87832e-08 -1.72859e-06 0)
(2.87416e-08 -1.73283e-06 0)
(2.86998e-08 -1.73707e-06 0)
(2.86579e-08 -1.74132e-06 0)
(2.86157e-08 -1.74557e-06 0)
(2.85734e-08 -1.74983e-06 0)
(2.85308e-08 -1.75409e-06 0)
(2.84881e-08 -1.75835e-06 0)
(2.84451e-08 -1.76261e-06 0)
(2.8402e-08 -1.76688e-06 0)
(2.83586e-08 -1.77116e-06 0)
(2.83151e-08 -1.77543e-06 0)
(2.82714e-08 -1.77971e-06 0)
(2.82274e-08 -1.784e-06 0)
(2.81833e-08 -1.78828e-06 0)
(2.8139e-08 -1.79257e-06 0)
(2.80944e-08 -1.79687e-06 0)
(2.80497e-08 -1.80117e-06 0)
(2.80047e-08 -1.80547e-06 0)
(2.79596e-08 -1.80977e-06 0)
(2.79142e-08 -1.81408e-06 0)
(2.78687e-08 -1.81839e-06 0)
(2.78229e-08 -1.8227e-06 0)
(2.7777e-08 -1.82702e-06 0)
(2.77308e-08 -1.83133e-06 0)
(2.76844e-08 -1.83566e-06 0)
(2.76379e-08 -1.83998e-06 0)
(2.75911e-08 -1.84431e-06 0)
(2.75441e-08 -1.84864e-06 0)
(2.74969e-08 -1.85297e-06 0)
(2.74495e-08 -1.85731e-06 0)
(2.74019e-08 -1.86165e-06 0)
(2.7354e-08 -1.86599e-06 0)
(2.7306e-08 -1.87033e-06 0)
(2.72578e-08 -1.87468e-06 0)
(2.72093e-08 -1.87903e-06 0)
(2.71607e-08 -1.88338e-06 0)
(2.71118e-08 -1.88774e-06 0)
(2.70627e-08 -1.89209e-06 0)
(2.70134e-08 -1.89645e-06 0)
(2.69639e-08 -1.90081e-06 0)
(2.69142e-08 -1.90518e-06 0)
(2.68642e-08 -1.90954e-06 0)
(2.68141e-08 -1.91391e-06 0)
(2.67637e-08 -1.91828e-06 0)
(2.67131e-08 -1.92265e-06 0)
(2.66623e-08 -1.92703e-06 0)
(2.66113e-08 -1.9314e-06 0)
(2.65601e-08 -1.93578e-06 0)
(2.65087e-08 -1.94016e-06 0)
(2.6457e-08 -1.94454e-06 0)
(2.64052e-08 -1.94892e-06 0)
(2.63531e-08 -1.95331e-06 0)
(2.63008e-08 -1.9577e-06 0)
(2.62482e-08 -1.96208e-06 0)
(2.61955e-08 -1.96647e-06 0)
(2.61425e-08 -1.97086e-06 0)
(2.60894e-08 -1.97526e-06 0)
(2.6036e-08 -1.97965e-06 0)
(2.59824e-08 -1.98405e-06 0)
(2.59285e-08 -1.98844e-06 0)
(2.58745e-08 -1.99284e-06 0)
(2.58202e-08 -1.99724e-06 0)
(2.57657e-08 -2.00164e-06 0)
(2.5711e-08 -2.00604e-06 0)
(2.56561e-08 -2.01044e-06 0)
(2.56009e-08 -2.01485e-06 0)
(2.55455e-08 -2.01925e-06 0)
(2.54899e-08 -2.02366e-06 0)
(2.54341e-08 -2.02806e-06 0)
(2.53781e-08 -2.03247e-06 0)
(2.53218e-08 -2.03687e-06 0)
(2.52653e-08 -2.04128e-06 0)
(2.52086e-08 -2.04569e-06 0)
(2.51517e-08 -2.0501e-06 0)
(2.50946e-08 -2.05451e-06 0)
(2.50372e-08 -2.05891e-06 0)
(2.49796e-08 -2.06332e-06 0)
(2.49218e-08 -2.06773e-06 0)
(2.48638e-08 -2.07214e-06 0)
(2.48055e-08 -2.07655e-06 0)
(2.4747e-08 -2.08096e-06 0)
(2.46883e-08 -2.08537e-06 0)
(2.46294e-08 -2.08978e-06 0)
(2.45702e-08 -2.09419e-06 0)
(2.45108e-08 -2.0986e-06 0)
(2.44512e-08 -2.10301e-06 0)
(2.43914e-08 -2.10742e-06 0)
(2.43314e-08 -2.11182e-06 0)
(2.42711e-08 -2.11623e-06 0)
(2.42106e-08 -2.12064e-06 0)
(2.41499e-08 -2.12504e-06 0)
(2.40889e-08 -2.12945e-06 0)
(2.40278e-08 -2.13385e-06 0)
(2.39664e-08 -2.13826e-06 0)
(2.39048e-08 -2.14266e-06 0)
(2.38429e-08 -2.14706e-06 0)
(2.37809e-08 -2.15146e-06 0)
(2.37186e-08 -2.15586e-06 0)
(2.36561e-08 -2.16026e-06 0)
(2.35934e-08 -2.16466e-06 0)
(2.35304e-08 -2.16905e-06 0)
(2.34673e-08 -2.17345e-06 0)
(2.34039e-08 -2.17784e-06 0)
(2.33402e-08 -2.18223e-06 0)
(2.32764e-08 -2.18662e-06 0)
(2.32123e-08 -2.19101e-06 0)
(2.31481e-08 -2.1954e-06 0)
(2.30836e-08 -2.19978e-06 0)
(2.30188e-08 -2.20416e-06 0)
(2.29539e-08 -2.20854e-06 0)
(2.28887e-08 -2.21292e-06 0)
(2.28234e-08 -2.2173e-06 0)
(2.27577e-08 -2.22167e-06 0)
(2.26919e-08 -2.22604e-06 0)
(2.26259e-08 -2.23041e-06 0)
(2.25596e-08 -2.23478e-06 0)
(2.24931e-08 -2.23914e-06 0)
(2.24264e-08 -2.2435e-06 0)
(2.23595e-08 -2.24786e-06 0)
(2.22924e-08 -2.25222e-06 0)
(2.2225e-08 -2.25657e-06 0)
(2.21575e-08 -2.26092e-06 0)
(2.20897e-08 -2.26527e-06 0)
(2.20217e-08 -2.26961e-06 0)
(2.19535e-08 -2.27395e-06 0)
(2.1885e-08 -2.27829e-06 0)
(2.18164e-08 -2.28262e-06 0)
(2.17475e-08 -2.28695e-06 0)
(2.16784e-08 -2.29128e-06 0)
(2.16092e-08 -2.2956e-06 0)
(2.15397e-08 -2.29992e-06 0)
(2.14699e-08 -2.30424e-06 0)
(2.14e-08 -2.30855e-06 0)
(2.13299e-08 -2.31286e-06 0)
(2.12596e-08 -2.31716e-06 0)
(2.1189e-08 -2.32146e-06 0)
(2.11182e-08 -2.32575e-06 0)
(2.10473e-08 -2.33004e-06 0)
(2.09761e-08 -2.33433e-06 0)
(2.09047e-08 -2.33861e-06 0)
(2.08331e-08 -2.34289e-06 0)
(2.07613e-08 -2.34716e-06 0)
(2.06893e-08 -2.35143e-06 0)
(2.06171e-08 -2.3557e-06 0)
(2.05447e-08 -2.35996e-06 0)
(2.04721e-08 -2.36421e-06 0)
(2.03993e-08 -2.36846e-06 0)
(2.03262e-08 -2.3727e-06 0)
(2.02534e-08 -2.37695e-06 0)
(2.01779e-08 -2.38114e-06 0)
(2.01045e-08 -2.38514e-06 0)
(2.00375e-08 -2.38897e-06 0)
(1.9971e-08 -2.39274e-06 0)
(1.99042e-08 -2.39654e-06 0)
(1.98367e-08 -2.40039e-06 0)
(1.97685e-08 -2.40428e-06 0)
(1.96995e-08 -2.40819e-06 0)
(1.96298e-08 -2.41213e-06 0)
(1.95592e-08 -2.41609e-06 0)
(1.94879e-08 -2.42009e-06 0)
(1.94157e-08 -2.42411e-06 0)
(1.93428e-08 -2.42816e-06 0)
(1.9269e-08 -2.43225e-06 0)
(1.91945e-08 -2.43635e-06 0)
(1.91191e-08 -2.44049e-06 0)
(1.90428e-08 -2.44466e-06 0)
(1.89658e-08 -2.44885e-06 0)
(1.88878e-08 -2.45308e-06 0)
(1.88091e-08 -2.45733e-06 0)
(1.87294e-08 -2.4616e-06 0)
(1.86489e-08 -2.46591e-06 0)
(1.85675e-08 -2.47025e-06 0)
(1.84852e-08 -2.47461e-06 0)
(1.8402e-08 -2.479e-06 0)
(1.8318e-08 -2.48342e-06 0)
(1.8233e-08 -2.48786e-06 0)
(1.81471e-08 -2.49234e-06 0)
(1.80603e-08 -2.49684e-06 0)
(1.79725e-08 -2.50136e-06 0)
(1.78838e-08 -2.50592e-06 0)
(1.77942e-08 -2.5105e-06 0)
(1.77036e-08 -2.5151e-06 0)
(1.76121e-08 -2.51974e-06 0)
(1.75196e-08 -2.52439e-06 0)
(1.74261e-08 -2.52908e-06 0)
(1.73316e-08 -2.53379e-06 0)
(1.72362e-08 -2.53852e-06 0)
(1.71398e-08 -2.54328e-06 0)
(1.70424e-08 -2.54807e-06 0)
(1.69439e-08 -2.55288e-06 0)
(1.68445e-08 -2.55771e-06 0)
(1.67441e-08 -2.56256e-06 0)
(1.66426e-08 -2.56744e-06 0)
(1.65401e-08 -2.57235e-06 0)
(1.64366e-08 -2.57727e-06 0)
(1.6332e-08 -2.58222e-06 0)
(1.62264e-08 -2.58719e-06 0)
(1.61198e-08 -2.59217e-06 0)
(1.60121e-08 -2.59718e-06 0)
(1.59034e-08 -2.60222e-06 0)
(1.57935e-08 -2.60727e-06 0)
(1.56827e-08 -2.61234e-06 0)
(1.55707e-08 -2.61742e-06 0)
(1.54577e-08 -2.62253e-06 0)
(1.53436e-08 -2.62766e-06 0)
(1.52285e-08 -2.6328e-06 0)
(1.51122e-08 -2.63795e-06 0)
(1.49949e-08 -2.64313e-06 0)
(1.48765e-08 -2.64832e-06 0)
(1.47569e-08 -2.65352e-06 0)
(1.46363e-08 -2.65874e-06 0)
(1.45147e-08 -2.66397e-06 0)
(1.43919e-08 -2.66921e-06 0)
(1.4268e-08 -2.67447e-06 0)
(1.41431e-08 -2.67973e-06 0)
(1.4017e-08 -2.68501e-06 0)
(1.38898e-08 -2.69029e-06 0)
(1.37616e-08 -2.69559e-06 0)
(1.36323e-08 -2.70089e-06 0)
(1.35019e-08 -2.7062e-06 0)
(1.33704e-08 -2.71151e-06 0)
(1.32378e-08 -2.71683e-06 0)
(1.31041e-08 -2.72215e-06 0)
(1.29694e-08 -2.72748e-06 0)
(1.28336e-08 -2.7328e-06 0)
(1.26967e-08 -2.73813e-06 0)
(1.25588e-08 -2.74346e-06 0)
(1.24198e-08 -2.74879e-06 0)
(1.22798e-08 -2.75411e-06 0)
(1.21387e-08 -2.75943e-06 0)
(1.19966e-08 -2.76475e-06 0)
(1.18535e-08 -2.77006e-06 0)
(1.17093e-08 -2.77536e-06 0)
(1.15641e-08 -2.78066e-06 0)
(1.1418e-08 -2.78595e-06 0)
(1.12709e-08 -2.79122e-06 0)
(1.11228e-08 -2.79648e-06 0)
(1.09737e-08 -2.80173e-06 0)
(1.08237e-08 -2.80697e-06 0)
(1.06727e-08 -2.81218e-06 0)
(1.05209e-08 -2.81738e-06 0)
(1.03681e-08 -2.82257e-06 0)
(1.02144e-08 -2.82773e-06 0)
(1.00599e-08 -2.83286e-06 0)
(9.90454e-09 -2.83798e-06 0)
(9.74833e-09 -2.84307e-06 0)
(9.59131e-09 -2.84813e-06 0)
(9.4335e-09 -2.85316e-06 0)
(9.27492e-09 -2.85817e-06 0)
(9.11559e-09 -2.86314e-06 0)
(8.95553e-09 -2.86808e-06 0)
(8.79477e-09 -2.87298e-06 0)
(8.63334e-09 -2.87785e-06 0)
(8.47126e-09 -2.88268e-06 0)
(8.30855e-09 -2.88747e-06 0)
(8.14525e-09 -2.89221e-06 0)
(7.98138e-09 -2.89691e-06 0)
(7.81698e-09 -2.90157e-06 0)
(7.65207e-09 -2.90618e-06 0)
(7.48668e-09 -2.91073e-06 0)
(7.32086e-09 -2.91524e-06 0)
(7.15463e-09 -2.91969e-06 0)
(6.98802e-09 -2.92409e-06 0)
(6.82108e-09 -2.92843e-06 0)
(6.65383e-09 -2.93271e-06 0)
(6.48632e-09 -2.93693e-06 0)
(6.31859e-09 -2.94109e-06 0)
(6.15067e-09 -2.94518e-06 0)
(5.98261e-09 -2.94921e-06 0)
(5.81444e-09 -2.95316e-06 0)
(5.64621e-09 -2.95705e-06 0)
(5.47797e-09 -2.96086e-06 0)
(5.30974e-09 -2.96459e-06 0)
(5.14159e-09 -2.96825e-06 0)
(4.97355e-09 -2.97183e-06 0)
(4.80568e-09 -2.97532e-06 0)
(4.63801e-09 -2.97873e-06 0)
(4.4706e-09 -2.98206e-06 0)
(4.3035e-09 -2.9853e-06 0)
(4.13675e-09 -2.98845e-06 0)
(3.97042e-09 -2.99151e-06 0)
(3.80454e-09 -2.99447e-06 0)
(3.63916e-09 -2.99734e-06 0)
(3.47436e-09 -3.00011e-06 0)
(3.31017e-09 -3.00277e-06 0)
(3.14664e-09 -3.00534e-06 0)
(2.98385e-09 -3.0078e-06 0)
(2.82183e-09 -3.01016e-06 0)
(2.66065e-09 -3.01241e-06 0)
(2.50036e-09 -3.01455e-06 0)
(2.34102e-09 -3.01658e-06 0)
(2.18269e-09 -3.0185e-06 0)
(2.02542e-09 -3.0203e-06 0)
(1.86928e-09 -3.02198e-06 0)
(1.71431e-09 -3.02354e-06 0)
(1.56059e-09 -3.02499e-06 0)
(1.40816e-09 -3.02631e-06 0)
(1.2571e-09 -3.0275e-06 0)
(1.10745e-09 -3.02858e-06 0)
(9.59272e-10 -3.02952e-06 0)
(8.12634e-10 -3.03034e-06 0)
(6.6759e-10 -3.03103e-06 0)
(5.24198e-10 -3.03158e-06 0)
(3.82515e-10 -3.03201e-06 0)
(2.42599e-10 -3.0323e-06 0)
(1.04505e-10 -3.03245e-06 0)
(-3.17112e-11 -3.03247e-06 0)
(-1.65995e-10 -3.03236e-06 0)
(-2.98293e-10 -3.0321e-06 0)
(-4.28554e-10 -3.03171e-06 0)
(-5.56725e-10 -3.03117e-06 0)
(-6.82758e-10 -3.0305e-06 0)
(-8.06602e-10 -3.02969e-06 0)
(-9.2821e-10 -3.02873e-06 0)
(-1.04754e-09 -3.02763e-06 0)
(-1.16453e-09 -3.02639e-06 0)
(-1.27916e-09 -3.02501e-06 0)
(-1.39137e-09 -3.02348e-06 0)
(-1.50112e-09 -3.02181e-06 0)
(-1.60838e-09 -3.02e-06 0)
(-1.7131e-09 -3.01805e-06 0)
(-1.81524e-09 -3.01595e-06 0)
(-1.91478e-09 -3.0137e-06 0)
(-2.01166e-09 -3.01132e-06 0)
(-2.10587e-09 -3.00879e-06 0)
(-2.19736e-09 -3.00612e-06 0)
(-2.2861e-09 -3.00332e-06 0)
(-2.37208e-09 -3.00036e-06 0)
(-2.45525e-09 -2.99728e-06 0)
(-2.53559e-09 -2.99401e-06 0)
(-2.61305e-09 -2.99068e-06 0)
(-2.69347e-09 -2.98683e-06 0)
(-2.77746e-09 -2.98234e-06 0)
(-2.85822e-09 -2.97776e-06 0)
(-2.93414e-09 -2.97306e-06 0)
(-3.00516e-09 -2.96824e-06 0)
(-3.07137e-09 -2.9633e-06 0)
(-3.13289e-09 -2.95826e-06 0)
(-3.18984e-09 -2.95313e-06 0)
(-3.24237e-09 -2.94791e-06 0)
(-3.29061e-09 -2.9426e-06 0)
(-3.33471e-09 -2.93723e-06 0)
(-3.3748e-09 -2.93178e-06 0)
(-3.41101e-09 -2.92628e-06 0)
(-3.44347e-09 -2.92071e-06 0)
(-3.4723e-09 -2.9151e-06 0)
(-3.49762e-09 -2.90945e-06 0)
(-3.51955e-09 -2.90376e-06 0)
(-3.5382e-09 -2.89803e-06 0)
(-3.55368e-09 -2.89228e-06 0)
(-3.5661e-09 -2.88651e-06 0)
(-3.57555e-09 -2.88071e-06 0)
(-3.58213e-09 -2.87491e-06 0)
(-3.58595e-09 -2.8691e-06 0)
(-3.58708e-09 -2.86328e-06 0)
(-3.58563e-09 -2.85746e-06 0)
(-3.58166e-09 -2.85165e-06 0)
(-3.57528e-09 -2.84585e-06 0)
(-3.56654e-09 -2.84006e-06 0)
(-3.55553e-09 -2.83428e-06 0)
(-3.54233e-09 -2.82853e-06 0)
(-3.52699e-09 -2.8228e-06 0)
(-3.50959e-09 -2.81709e-06 0)
(-3.4902e-09 -2.81142e-06 0)
(-3.46887e-09 -2.80577e-06 0)
(-3.44566e-09 -2.80017e-06 0)
(-3.42064e-09 -2.7946e-06 0)
(-3.39386e-09 -2.78908e-06 0)
(-3.36536e-09 -2.7836e-06 0)
(-3.33521e-09 -2.77817e-06 0)
(-3.30345e-09 -2.77278e-06 0)
(-3.27013e-09 -2.76746e-06 0)
(-3.2353e-09 -2.76218e-06 0)
(-3.19899e-09 -2.75697e-06 0)
(-3.16126e-09 -2.75181e-06 0)
(-3.12213e-09 -2.74672e-06 0)
(-3.08166e-09 -2.74169e-06 0)
(-3.03988e-09 -2.73672e-06 0)
(-2.99683e-09 -2.73183e-06 0)
(-2.95253e-09 -2.72701e-06 0)
(-2.90703e-09 -2.72226e-06 0)
(-2.86035e-09 -2.71758e-06 0)
(-2.81253e-09 -2.71298e-06 0)
(-2.7636e-09 -2.70846e-06 0)
(-2.71359e-09 -2.70402e-06 0)
(-2.66253e-09 -2.69967e-06 0)
(-2.61043e-09 -2.69539e-06 0)
(-2.55734e-09 -2.6912e-06 0)
(-2.50327e-09 -2.6871e-06 0)
(-2.44826e-09 -2.68308e-06 0)
(-2.39232e-09 -2.67916e-06 0)
(-2.33549e-09 -2.67532e-06 0)
(-2.27778e-09 -2.67158e-06 0)
(-2.21922e-09 -2.66794e-06 0)
(-2.15983e-09 -2.66439e-06 0)
(-2.09964e-09 -2.66093e-06 0)
(-2.03867e-09 -2.65758e-06 0)
(-1.97694e-09 -2.65432e-06 0)
(-1.91448e-09 -2.65116e-06 0)
(-1.85131e-09 -2.64811e-06 0)
(-1.78745e-09 -2.64516e-06 0)
(-1.72293e-09 -2.64231e-06 0)
(-1.65776e-09 -2.63956e-06 0)
(-1.59198e-09 -2.63693e-06 0)
(-1.5256e-09 -2.6344e-06 0)
(-1.45865e-09 -2.63197e-06 0)
(-1.39115e-09 -2.62966e-06 0)
(-1.32312e-09 -2.62746e-06 0)
(-1.2546e-09 -2.62537e-06 0)
(-1.1856e-09 -2.62338e-06 0)
(-1.11615e-09 -2.62151e-06 0)
(-1.04627e-09 -2.61975e-06 0)
(-9.75999e-10 -2.61811e-06 0)
(-9.05358e-10 -2.61658e-06 0)
(-8.34378e-10 -2.61517e-06 0)
(-7.63088e-10 -2.61386e-06 0)
(-6.91519e-10 -2.6127e-06 0)
(-6.19695e-10 -2.61157e-06 0)
(-5.47661e-10 -2.6108e-06 0)
(-4.75384e-10 -2.60936e-06 0)
(-4.03081e-10 -2.61062e-06 0)
(-3.30111e-10 -2.60324e-06 0)
(-2.58799e-10 -2.62394e-06 0)
(-1.81398e-10 -2.54504e-06 0)
(-1.25869e-10 -2.75382e-06 0)
(-5.66547e-11 -2.40506e-06 0)
)
;
    }
    bottomWall
    {
        type            calculated;
        value           nonuniform List<vector> 
449
(
(-48.5291 -0.964046 0)
(-19.7535 -0.00515382 0)
(-14.3504 -0.0011331 0)
(-12.0478 -0.000542751 0)
(-10.6533 -0.000346524 0)
(-9.68174 -0.000246168 0)
(-8.96851 -0.000177284 0)
(-8.46561 -0.000111911 0)
(-8.19956 -2.69451e-05 0)
(-8.28235 0.000139729 0)
(-9.1707 0.000308536 0)
(-10.421 0.000313209 0)
(-11.3409 0.000208781 0)
(-11.8705 0.000117024 0)
(-12.1558 6.23372e-05 0)
(-12.3058 3.08071e-05 0)
(-12.3714 1.05511e-05 0)
(-12.3797 -3.27731e-06 0)
(-12.3482 -1.21033e-05 0)
(-12.2942 -1.75053e-05 0)
(-12.2243 -2.09027e-05 0)
(-12.146 -2.26279e-05 0)
(-12.0635 -2.33319e-05 0)
(-11.9797 -2.34113e-05 0)
(-11.8963 -2.31199e-05 0)
(-11.8143 -2.26319e-05 0)
(-11.734 -2.20217e-05 0)
(-11.6559 -2.132e-05 0)
(-11.5803 -2.05846e-05 0)
(-11.5072 -1.98446e-05 0)
(-11.4366 -1.91168e-05 0)
(-11.3684 -1.84105e-05 0)
(-11.3026 -1.7731e-05 0)
(-11.2391 -1.70783e-05 0)
(-11.1777 -1.64663e-05 0)
(-11.1184 -1.58928e-05 0)
(-11.061 -1.53378e-05 0)
(-11.0055 -1.4802e-05 0)
(-10.9518 -1.42932e-05 0)
(-10.8998 -1.38108e-05 0)
(-10.8494 -1.33501e-05 0)
(-10.8005 -1.29128e-05 0)
(-10.7532 -1.24992e-05 0)
(-10.7072 -1.21051e-05 0)
(-10.6626 -1.17298e-05 0)
(-10.6192 -1.13742e-05 0)
(-10.5771 -1.10337e-05 0)
(-10.5361 -1.07064e-05 0)
(-10.4962 -1.04182e-05 0)
(-10.4572 -1.01738e-05 0)
(-10.4189 -9.94876e-06 0)
(-10.3815 -9.7322e-06 0)
(-10.3447 -9.51742e-06 0)
(-10.3087 -9.30491e-06 0)
(-10.2734 -9.09649e-06 0)
(-10.2388 -8.89375e-06 0)
(-10.2049 -8.69825e-06 0)
(-10.1717 -8.50886e-06 0)
(-10.1391 -8.32641e-06 0)
(-10.1071 -8.15114e-06 0)
(-10.0757 -7.98071e-06 0)
(-10.0449 -7.81693e-06 0)
(-10.0147 -7.6592e-06 0)
(-9.98496 -7.5068e-06 0)
(-9.95576 -7.3588e-06 0)
(-9.92707 -7.21536e-06 0)
(-9.89887 -7.07723e-06 0)
(-9.87113 -6.94381e-06 0)
(-9.84385 -6.81976e-06 0)
(-9.81697 -6.702e-06 0)
(-9.7905 -6.5835e-06 0)
(-9.76444 -6.46503e-06 0)
(-9.73879 -6.35044e-06 0)
(-9.71352 -6.23963e-06 0)
(-9.68864 -6.13232e-06 0)
(-9.66412 -6.0286e-06 0)
(-9.63996 -5.92766e-06 0)
(-9.61615 -5.82921e-06 0)
(-9.59267 -5.73308e-06 0)
(-9.56953 -5.6395e-06 0)
(-9.5467 -5.54873e-06 0)
(-9.52419 -5.46027e-06 0)
(-9.50198 -5.37499e-06 0)
(-9.48006 -5.29133e-06 0)
(-9.45844 -5.20996e-06 0)
(-9.43709 -5.13115e-06 0)
(-9.41601 -5.05369e-06 0)
(-9.3952 -4.97931e-06 0)
(-9.37465 -4.90589e-06 0)
(-9.35435 -4.8345e-06 0)
(-9.3343 -4.76521e-06 0)
(-9.31448 -4.69672e-06 0)
(-9.29491 -4.63095e-06 0)
(-9.27556 -4.56601e-06 0)
(-9.25644 -4.50201e-06 0)
(-9.23753 -4.44071e-06 0)
(-9.21884 -4.38066e-06 0)
(-9.20036 -4.32452e-06 0)
(-9.18206 -4.27055e-06 0)
(-9.16395 -4.21459e-06 0)
(-9.14604 -4.15934e-06 0)
(-9.12832 -4.10482e-06 0)
(-9.11079 -4.05059e-06 0)
(-9.09345 -3.9993e-06 0)
(-9.07629 -3.9481e-06 0)
(-9.05931 -3.89741e-06 0)
(-9.04251 -3.84922e-06 0)
(-9.02587 -3.80096e-06 0)
(-9.0094 -3.75331e-06 0)
(-8.9931 -3.70811e-06 0)
(-8.97696 -3.6625e-06 0)
(-8.96098 -3.61768e-06 0)
(-8.94515 -3.575e-06 0)
(-8.92948 -3.53205e-06 0)
(-8.91395 -3.48961e-06 0)
(-8.89858 -3.44936e-06 0)
(-8.88334 -3.40891e-06 0)
(-8.86826 -3.3687e-06 0)
(-8.85331 -3.33037e-06 0)
(-8.83849 -3.29241e-06 0)
(-8.82381 -3.25433e-06 0)
(-8.80927 -3.21775e-06 0)
(-8.79485 -3.18207e-06 0)
(-8.78056 -3.1461e-06 0)
(-8.7664 -3.11093e-06 0)
(-8.75236 -3.07746e-06 0)
(-8.73843 -3.0435e-06 0)
(-8.72464 -3.00965e-06 0)
(-8.71096 -2.97769e-06 0)
(-8.69739 -2.94593e-06 0)
(-8.68394 -2.91382e-06 0)
(-8.6706 -2.88288e-06 0)
(-8.65737 -2.85312e-06 0)
(-8.64425 -2.82277e-06 0)
(-8.63123 -2.7928e-06 0)
(-8.61833 -2.7642e-06 0)
(-8.60552 -2.7361e-06 0)
(-8.59282 -2.70772e-06 0)
(-8.58021 -2.68051e-06 0)
(-8.5677 -2.6546e-06 0)
(-8.55528 -2.62946e-06 0)
(-8.54295 -2.60369e-06 0)
(-8.53072 -2.57773e-06 0)
(-8.51858 -2.55221e-06 0)
(-8.50652 -2.5268e-06 0)
(-8.49457 -2.50128e-06 0)
(-8.4827 -2.47683e-06 0)
(-8.47092 -2.45304e-06 0)
(-8.45923 -2.42911e-06 0)
(-8.44762 -2.40499e-06 0)
(-8.43611 -2.38197e-06 0)
(-8.42467 -2.35956e-06 0)
(-8.41331 -2.3369e-06 0)
(-8.40204 -2.31406e-06 0)
(-8.39086 -2.29233e-06 0)
(-8.37974 -2.27118e-06 0)
(-8.36871 -2.24972e-06 0)
(-8.35775 -2.22803e-06 0)
(-8.34688 -2.20743e-06 0)
(-8.33608 -2.18743e-06 0)
(-8.32535 -2.16712e-06 0)
(-8.3147 -2.14661e-06 0)
(-8.30412 -2.12697e-06 0)
(-8.29361 -2.10806e-06 0)
(-8.28318 -2.08898e-06 0)
(-8.27281 -2.06966e-06 0)
(-8.26252 -2.05098e-06 0)
(-8.25228 -2.03299e-06 0)
(-8.24213 -2.01525e-06 0)
(-8.23202 -1.99691e-06 0)
(-8.222 -1.97936e-06 0)
(-8.21203 -1.96206e-06 0)
(-8.20214 -1.94266e-06 0)
(-8.19286 -1.92832e-06 0)
(-8.18413 -1.91646e-06 0)
(-8.17535 -1.90038e-06 0)
(-8.16657 -1.8851e-06 0)
(-8.15776 -1.87074e-06 0)
(-8.14892 -1.85559e-06 0)
(-8.14005 -1.84043e-06 0)
(-8.13117 -1.82562e-06 0)
(-8.12226 -1.81105e-06 0)
(-8.11333 -1.79647e-06 0)
(-8.10436 -1.78152e-06 0)
(-8.09539 -1.76645e-06 0)
(-8.08638 -1.75187e-06 0)
(-8.07736 -1.73747e-06 0)
(-8.06831 -1.72303e-06 0)
(-8.05925 -1.7083e-06 0)
(-8.05016 -1.69364e-06 0)
(-8.04105 -1.67932e-06 0)
(-8.03192 -1.66521e-06 0)
(-8.02277 -1.65091e-06 0)
(-8.0136 -1.63645e-06 0)
(-8.00441 -1.62214e-06 0)
(-7.9952 -1.60818e-06 0)
(-7.98598 -1.59433e-06 0)
(-7.97673 -1.58021e-06 0)
(-7.96747 -1.56598e-06 0)
(-7.95819 -1.55216e-06 0)
(-7.94889 -1.53852e-06 0)
(-7.93957 -1.5249e-06 0)
(-7.93024 -1.51137e-06 0)
(-7.92089 -1.49842e-06 0)
(-7.91151 -1.4857e-06 0)
(-7.90212 -1.47243e-06 0)
(-7.89271 -1.45866e-06 0)
(-7.88329 -1.44481e-06 0)
(-7.87386 -1.43134e-06 0)
(-7.8644 -1.41811e-06 0)
(-7.85495 -1.40463e-06 0)
(-7.84547 -1.39094e-06 0)
(-7.83599 -1.37755e-06 0)
(-7.8265 -1.36443e-06 0)
(-7.817 -1.35119e-06 0)
(-7.80748 -1.33779e-06 0)
(-7.79797 -1.32441e-06 0)
(-7.78844 -1.31147e-06 0)
(-7.7789 -1.29845e-06 0)
(-7.76935 -1.28533e-06 0)
(-7.75981 -1.27214e-06 0)
(-7.75025 -1.25939e-06 0)
(-7.74069 -1.2467e-06 0)
(-7.73112 -1.23383e-06 0)
(-7.72155 -1.22084e-06 0)
(-7.71198 -1.2083e-06 0)
(-7.7024 -1.19587e-06 0)
(-7.69282 -1.18328e-06 0)
(-7.68324 -1.17059e-06 0)
(-7.67366 -1.15833e-06 0)
(-7.66407 -1.14627e-06 0)
(-7.65449 -1.13404e-06 0)
(-7.6449 -1.1217e-06 0)
(-7.63531 -1.10974e-06 0)
(-7.62572 -1.09799e-06 0)
(-7.61614 -1.086e-06 0)
(-7.60655 -1.07395e-06 0)
(-7.59697 -1.0622e-06 0)
(-7.58738 -1.05062e-06 0)
(-7.57781 -1.03885e-06 0)
(-7.56823 -1.02701e-06 0)
(-7.55867 -1.01551e-06 0)
(-7.5491 -1.00422e-06 0)
(-7.53955 -9.92738e-07 0)
(-7.53 -9.81232e-07 0)
(-7.52046 -9.70069e-07 0)
(-7.51092 -9.59042e-07 0)
(-7.50139 -9.47882e-07 0)
(-7.49187 -9.36759e-07 0)
(-7.48236 -9.25951e-07 0)
(-7.47285 -9.15249e-07 0)
(-7.46336 -9.0437e-07 0)
(-7.45387 -8.93627e-07 0)
(-7.4444 -8.8309e-07 0)
(-7.43494 -8.7265e-07 0)
(-7.42549 -8.62034e-07 0)
(-7.41605 -8.51663e-07 0)
(-7.40663 -8.41472e-07 0)
(-7.39721 -8.31309e-07 0)
(-7.38781 -8.21067e-07 0)
(-7.37843 -8.11067e-07 0)
(-7.36906 -8.01256e-07 0)
(-7.3597 -7.91373e-07 0)
(-7.35036 -7.81401e-07 0)
(-7.34103 -7.71711e-07 0)
(-7.33172 -7.62087e-07 0)
(-7.32243 -7.52362e-07 0)
(-7.31316 -7.42772e-07 0)
(-7.30391 -7.3341e-07 0)
(-7.29467 -7.24143e-07 0)
(-7.28546 -7.1503e-07 0)
(-7.27625 -7.0624e-07 0)
(-7.26706 -6.97491e-07 0)
(-7.25789 -6.88585e-07 0)
(-7.24874 -6.79682e-07 0)
(-7.23961 -6.70999e-07 0)
(-7.2305 -6.62474e-07 0)
(-7.2214 -6.53935e-07 0)
(-7.21233 -6.45386e-07 0)
(-7.20328 -6.37116e-07 0)
(-7.19424 -6.28777e-07 0)
(-7.18523 -6.20446e-07 0)
(-7.17624 -6.12256e-07 0)
(-7.16728 -6.04266e-07 0)
(-7.15833 -5.962e-07 0)
(-7.14941 -5.88263e-07 0)
(-7.14051 -5.80468e-07 0)
(-7.13164 -5.72818e-07 0)
(-7.12278 -5.65144e-07 0)
(-7.11396 -5.57565e-07 0)
(-7.10515 -5.50184e-07 0)
(-7.09637 -5.42787e-07 0)
(-7.08761 -5.35431e-07 0)
(-7.07888 -5.28248e-07 0)
(-7.07017 -5.21162e-07 0)
(-7.06148 -5.14103e-07 0)
(-7.05282 -5.07107e-07 0)
(-7.04419 -5.00318e-07 0)
(-7.03557 -4.93509e-07 0)
(-7.02698 -4.86771e-07 0)
(-7.01842 -4.80147e-07 0)
(-7.00988 -4.73612e-07 0)
(-7.00137 -4.67101e-07 0)
(-6.99288 -4.60708e-07 0)
(-6.98442 -4.54434e-07 0)
(-6.97599 -4.48247e-07 0)
(-6.96757 -4.42084e-07 0)
(-6.95919 -4.36057e-07 0)
(-6.95082 -4.30117e-07 0)
(-6.94248 -4.242e-07 0)
(-6.93417 -4.18349e-07 0)
(-6.92589 -4.12689e-07 0)
(-6.91761 -4.0704e-07 0)
(-6.90938 -4.01435e-07 0)
(-6.90116 -3.95945e-07 0)
(-6.89298 -3.90491e-07 0)
(-6.88481 -3.85068e-07 0)
(-6.87668 -3.79711e-07 0)
(-6.86856 -3.74475e-07 0)
(-6.86048 -3.69268e-07 0)
(-6.85241 -3.64144e-07 0)
(-6.84438 -3.59116e-07 0)
(-6.83636 -3.54156e-07 0)
(-6.82839 -3.49193e-07 0)
(-6.82042 -3.44313e-07 0)
(-6.81249 -3.39472e-07 0)
(-6.80458 -3.34695e-07 0)
(-6.79671 -3.29939e-07 0)
(-6.78885 -3.25303e-07 0)
(-6.78103 -3.20718e-07 0)
(-6.77323 -3.16164e-07 0)
(-6.76546 -3.11714e-07 0)
(-6.75771 -3.07333e-07 0)
(-6.75 -3.02971e-07 0)
(-6.7423 -2.98681e-07 0)
(-6.73464 -2.94446e-07 0)
(-6.72699 -2.90293e-07 0)
(-6.71939 -2.86135e-07 0)
(-6.71179 -2.82122e-07 0)
(-6.70424 -2.78101e-07 0)
(-6.6967 -2.74191e-07 0)
(-6.68919 -2.703e-07 0)
(-6.68171 -2.66556e-07 0)
(-6.67425 -2.62822e-07 0)
(-6.66682 -2.59142e-07 0)
(-6.65941 -2.55426e-07 0)
(-6.65202 -2.51821e-07 0)
(-6.64466 -2.48216e-07 0)
(-6.63734 -2.44815e-07 0)
(-6.63002 -2.41368e-07 0)
(-6.62274 -2.38052e-07 0)
(-6.61547 -2.34598e-07 0)
(-6.60825 -2.31375e-07 0)
(-6.60102 -2.28091e-07 0)
(-6.59304 -2.23816e-07 0)
(-6.58438 -2.19392e-07 0)
(-6.57591 -2.15525e-07 0)
(-6.56755 -2.11839e-07 0)
(-6.55936 -2.08178e-07 0)
(-6.5513 -2.04602e-07 0)
(-6.54339 -2.0108e-07 0)
(-6.5356 -1.97719e-07 0)
(-6.52795 -1.94462e-07 0)
(-6.52041 -1.91378e-07 0)
(-6.513 -1.8844e-07 0)
(-6.5057 -1.85591e-07 0)
(-6.49851 -1.82782e-07 0)
(-6.49142 -1.80037e-07 0)
(-6.48445 -1.77348e-07 0)
(-6.47757 -1.74745e-07 0)
(-6.47081 -1.72222e-07 0)
(-6.46413 -1.69735e-07 0)
(-6.45755 -1.67375e-07 0)
(-6.45106 -1.6508e-07 0)
(-6.44466 -1.62862e-07 0)
(-6.43834 -1.60694e-07 0)
(-6.43212 -1.58595e-07 0)
(-6.42596 -1.56528e-07 0)
(-6.41989 -1.54496e-07 0)
(-6.41389 -1.5249e-07 0)
(-6.40799 -1.50505e-07 0)
(-6.40214 -1.48613e-07 0)
(-6.39638 -1.46762e-07 0)
(-6.39068 -1.44993e-07 0)
(-6.38506 -1.43244e-07 0)
(-6.37949 -1.41538e-07 0)
(-6.37401 -1.39841e-07 0)
(-6.36857 -1.38156e-07 0)
(-6.36322 -1.36544e-07 0)
(-6.35791 -1.34925e-07 0)
(-6.35268 -1.33399e-07 0)
(-6.34749 -1.31892e-07 0)
(-6.34238 -1.30444e-07 0)
(-6.33731 -1.29008e-07 0)
(-6.33231 -1.27576e-07 0)
(-6.32734 -1.26182e-07 0)
(-6.32245 -1.24812e-07 0)
(-6.3176 -1.23473e-07 0)
(-6.31281 -1.22173e-07 0)
(-6.30806 -1.20875e-07 0)
(-6.30337 -1.19623e-07 0)
(-6.29872 -1.18311e-07 0)
(-6.29414 -1.17058e-07 0)
(-6.28958 -1.15848e-07 0)
(-6.28509 -1.14702e-07 0)
(-6.28062 -1.13628e-07 0)
(-6.27622 -1.1253e-07 0)
(-6.27183 -1.11485e-07 0)
(-6.26751 -1.10439e-07 0)
(-6.26321 -1.09467e-07 0)
(-6.25896 -1.0848e-07 0)
(-6.25474 -1.07513e-07 0)
(-6.25057 -1.06574e-07 0)
(-6.24641 -1.05638e-07 0)
(-6.24232 -1.04709e-07 0)
(-6.23824 -1.03786e-07 0)
(-6.23421 -1.0287e-07 0)
(-6.2302 -1.01928e-07 0)
(-6.22625 -1.01039e-07 0)
(-6.22231 -1.00118e-07 0)
(-6.21843 -9.92534e-08 0)
(-6.21456 -9.83672e-08 0)
(-6.21075 -9.75657e-08 0)
(-6.20694 -9.67081e-08 0)
(-6.2032 -9.59476e-08 0)
(-6.19945 -9.50623e-08 0)
(-6.19577 -9.43492e-08 0)
(-6.19208 -9.35094e-08 0)
(-6.18847 -9.28436e-08 0)
(-6.18483 -9.2031e-08 0)
(-6.18129 -9.13949e-08 0)
(-6.17769 -9.06371e-08 0)
(-6.17421 -9.00377e-08 0)
(-6.17066 -8.93505e-08 0)
(-6.16723 -8.88367e-08 0)
(-6.16372 -8.81966e-08 0)
(-6.16034 -8.7621e-08 0)
(-6.15688 -8.70807e-08 0)
(-6.15354 -8.63988e-08 0)
(-6.15013 -8.62328e-08 0)
(-6.14681 -8.50287e-08 0)
(-6.1435 -8.62471e-08 0)
(-6.14007 -8.26478e-08 0)
(-6.13705 -8.91471e-08 0)
(-6.13309 -7.58076e-08 0)
(-6.13116 -9.95085e-08 0)
(-6.12525 -5.91495e-08 0)
(-6.12667 -8.00605e-08 0)
(-6.11878 -1.04976e-07 0)
)
;
    }
    symmetry
    {
        type            symmetryPlane;
    }
    frontAndBack
    {
        type            empty;
    }
}


// ************************************************************************* //
