/*--------------------------------*- C++ -*----------------------------------*\
| =========                 |                                                 |
| \\      /  F ield         | OpenFOAM: The Open Source CFD Toolbox           |
|  \\    /   O peration     | Version:  v2012                                 |
|   \\  /    A nd           | Website:  www.openfoam.com                      |
|    \\/     M anipulation  |                                                 |
\*---------------------------------------------------------------------------*/
FoamFile
{
    version     2.0;
    format      ascii;
    class       volScalarField;
    location    "27";
    object      k;
}
// * * * * * * * * * * * * * * * * * * * * * * * * * * * * * * * * * * * * * //

dimensions      [0 2 -2 0 0 0 0];


internalField   nonuniform List<scalar> 
209825
(
0.00102218
0.000929921
0.00086375
0.000817676
0.000785151
0.000761479
0.000743699
0.000729965
0.000719117
0.000710377
0.000703232
0.000697304
0.000692337
0.000688128
0.000684533
0.000681438
0.000678755
0.000676415
0.000674357
0.00067255
0.000670943
0.000669523
0.000668242
0.000667108
0.000666078
0.000665161
0.000664312
0.000663565
0.000662867
0.000662257
0.00066167
0.000661165
0.000660686
0.000660261
0.000659845
0.000659493
0.000659151
0.000658863
0.000658567
0.000658329
0.000658089
0.000657888
0.000657668
0.000657514
0.00065734
0.000657181
0.000657029
0.000656917
0.000656807
0.000656737
0.000656641
0.000656556
0.000656479
0.000656433
0.00065635
0.000656292
0.000656254
0.000656171
0.000656155
0.00065614
0.000656097
0.000656135
0.000656135
0.000656221
0.000656278
0.000656394
0.000656471
0.000656623
0.000656678
0.000656801
0.000656846
0.000656976
0.000657066
0.000657237
0.000657322
0.000657501
0.000657595
0.000657791
0.000657892
0.000658105
0.000658222
0.000658467
0.000658597
0.000658866
0.000659011
0.000659314
0.000659479
0.000659834
0.000660023
0.000660463
0.000660656
0.000661298
0.000661559
0.000671993
0.000711663
0.00180379
0.00102218
0.000929921
0.000863748
0.000817672
0.000785144
0.000761469
0.000743688
0.000729952
0.000719103
0.000710362
0.000703216
0.000697287
0.00069232
0.00068811
0.000684514
0.000681419
0.000678735
0.000676395
0.000674337
0.00067253
0.000670923
0.000669503
0.000668221
0.000667087
0.000666057
0.000665139
0.000664291
0.000663544
0.000662846
0.000662235
0.000661648
0.000661143
0.000660664
0.000660239
0.000659823
0.00065947
0.000659129
0.000658841
0.000658544
0.000658306
0.000658066
0.000657866
0.000657645
0.000657491
0.000657317
0.000657158
0.000657007
0.000656895
0.000656784
0.000656714
0.000656618
0.000656533
0.000656456
0.00065641
0.000656327
0.000656269
0.000656231
0.000656148
0.000656132
0.000656117
0.000656074
0.000656112
0.000656112
0.000656198
0.000656254
0.000656371
0.000656448
0.000656599
0.000656655
0.000656778
0.000656822
0.000656952
0.000657043
0.000657214
0.000657298
0.000657478
0.000657572
0.000657767
0.000657868
0.000658082
0.000658199
0.000658444
0.000658574
0.000658843
0.000658987
0.00065929
0.000659456
0.000659811
0.00066
0.00066044
0.000660632
0.000661274
0.000661535
0.000671989
0.000711651
0.00180486
0.00102219
0.00092992
0.000863737
0.00081765
0.000785112
0.000761429
0.00074364
0.000729899
0.000719045
0.000710299
0.00070315
0.000697219
0.000692249
0.000688037
0.00068444
0.000681343
0.000678658
0.000676317
0.000674257
0.000672449
0.000670841
0.00066942
0.000668138
0.000667003
0.000665972
0.000665055
0.000664206
0.000663458
0.000662759
0.000662149
0.000661561
0.000661056
0.000660576
0.000660152
0.000659735
0.000659382
0.00065904
0.000658752
0.000658455
0.000658217
0.000657977
0.000657776
0.000657555
0.000657401
0.000657227
0.000657068
0.000656917
0.000656804
0.000656693
0.000656624
0.000656528
0.000656442
0.000656365
0.00065632
0.000656237
0.000656179
0.000656141
0.000656057
0.000656041
0.000656026
0.000655983
0.000656021
0.000656021
0.000656106
0.000656163
0.000656279
0.000656356
0.000656507
0.000656563
0.000656686
0.00065673
0.00065686
0.00065695
0.000657122
0.000657206
0.000657385
0.000657479
0.000657675
0.000657776
0.000657989
0.000658106
0.000658351
0.000658481
0.00065875
0.000658894
0.000659197
0.000659362
0.000659717
0.000659906
0.000660346
0.000660538
0.00066118
0.000661441
0.000671936
0.000711575
0.00180696
0.00102219
0.000929919
0.000863719
0.000817613
0.000785057
0.00076136
0.00074356
0.000729808
0.000718946
0.000710195
0.00070304
0.000697104
0.00069213
0.000687915
0.000684314
0.000681215
0.000678528
0.000676184
0.000674123
0.000672313
0.000670704
0.000669282
0.000667998
0.000666862
0.000665831
0.000664912
0.000664062
0.000663314
0.000662615
0.000662003
0.000661415
0.00066091
0.00066043
0.000660004
0.000659587
0.000659234
0.000658892
0.000658603
0.000658306
0.000658068
0.000657827
0.000657627
0.000657405
0.000657251
0.000657077
0.000656918
0.000656766
0.000656653
0.000656542
0.000656472
0.000656376
0.00065629
0.000656213
0.000656168
0.000656084
0.000656026
0.000655988
0.000655905
0.000655888
0.000655873
0.00065583
0.000655867
0.000655867
0.000655953
0.000656009
0.000656126
0.000656202
0.000656353
0.000656408
0.000656531
0.000656576
0.000656706
0.000656796
0.000656967
0.000657051
0.00065723
0.000657324
0.00065752
0.00065762
0.000657834
0.00065795
0.000658195
0.000658325
0.000658594
0.000658738
0.000659041
0.000659206
0.00065956
0.000659749
0.000660189
0.000660381
0.000661023
0.000661283
0.00067184
0.000711443
0.00180941
0.00102219
0.000929916
0.000863694
0.000817561
0.000784981
0.000761263
0.000743446
0.000729681
0.000718808
0.000710047
0.000702884
0.000696942
0.000691962
0.000687742
0.000684137
0.000681034
0.000678344
0.000675998
0.000673934
0.000672122
0.000670511
0.000669087
0.000667801
0.000666664
0.000665631
0.000664711
0.00066386
0.000663111
0.000662411
0.000661799
0.00066121
0.000660703
0.000660223
0.000659797
0.000659379
0.000659025
0.000658683
0.000658394
0.000658096
0.000657857
0.000657616
0.000657415
0.000657193
0.000657039
0.000656864
0.000656705
0.000656553
0.00065644
0.000656328
0.000656258
0.000656162
0.000656076
0.000655999
0.000655953
0.00065587
0.000655812
0.000655773
0.00065569
0.000655673
0.000655658
0.000655614
0.000655651
0.000655651
0.000655736
0.000655792
0.000655908
0.000655985
0.000656136
0.000656191
0.000656314
0.000656358
0.000656488
0.000656577
0.000656748
0.000656833
0.000657012
0.000657106
0.000657301
0.000657401
0.000657614
0.000657731
0.000657975
0.000658105
0.000658374
0.000658518
0.00065882
0.000658985
0.000659339
0.000659528
0.000659967
0.000660159
0.0006608
0.00066106
0.000671704
0.000711257
0.00181217
0.0010222
0.000929913
0.000863661
0.000817493
0.000784881
0.000761137
0.000743298
0.000729516
0.000718628
0.000709855
0.000702682
0.000696731
0.000691744
0.000687518
0.000683908
0.0006808
0.000678106
0.000675756
0.000673689
0.000671874
0.00067026
0.000668834
0.000667546
0.000666407
0.000665372
0.000664451
0.000663599
0.000662848
0.000662146
0.000661533
0.000660943
0.000660436
0.000659954
0.000659527
0.000659109
0.000658755
0.000658411
0.000658122
0.000657823
0.000657584
0.000657343
0.000657141
0.000656919
0.000656764
0.000656589
0.000656429
0.000656277
0.000656164
0.000656052
0.000655981
0.000655885
0.000655799
0.000655721
0.000655675
0.000655592
0.000655533
0.000655495
0.000655412
0.000655394
0.000655379
0.000655335
0.000655371
0.000655371
0.000655456
0.000655511
0.000655627
0.000655704
0.000655854
0.000655909
0.000656032
0.000656076
0.000656205
0.000656295
0.000656465
0.000656549
0.000656728
0.000656822
0.000657017
0.000657117
0.00065733
0.000657446
0.000657691
0.00065782
0.000658088
0.000658232
0.000658534
0.000658699
0.000659052
0.000659241
0.000659679
0.00065987
0.000660512
0.000660771
0.000671527
0.000711016
0.00181519
0.00102221
0.00092991
0.000863621
0.00081741
0.000784759
0.000760982
0.000743117
0.000729312
0.000718407
0.000709619
0.000702434
0.000696472
0.000691476
0.000687243
0.000683626
0.000680512
0.000677812
0.000675458
0.000673387
0.000671568
0.000669951
0.000668522
0.000667232
0.00066609
0.000665053
0.00066413
0.000663276
0.000662523
0.000661821
0.000661206
0.000660615
0.000660106
0.000659623
0.000659196
0.000658776
0.000658421
0.000658077
0.000657786
0.000657487
0.000657247
0.000657005
0.000656803
0.00065658
0.000656425
0.000656249
0.00065609
0.000655936
0.000655823
0.00065571
0.00065564
0.000655543
0.000655457
0.000655378
0.000655332
0.000655249
0.00065519
0.000655151
0.000655068
0.00065505
0.000655035
0.00065499
0.000655026
0.000655025
0.00065511
0.000655164
0.00065528
0.000655357
0.000655507
0.000655561
0.000655684
0.000655727
0.000655857
0.000655946
0.000656116
0.0006562
0.000656379
0.000656472
0.000656667
0.000656767
0.000656979
0.000657096
0.000657339
0.000657469
0.000657736
0.00065788
0.000658182
0.000658346
0.000658699
0.000658887
0.000659324
0.000659515
0.000660156
0.000660415
0.000671311
0.00071072
0.00181832
0.00102222
0.000929905
0.000863574
0.000817312
0.000784614
0.000760797
0.0007429
0.00072907
0.000718143
0.000709337
0.000702138
0.000696164
0.000691157
0.000686914
0.000683289
0.000680168
0.000677462
0.000675102
0.000673026
0.000671204
0.000669583
0.00066815
0.000666857
0.000665712
0.000664673
0.000663747
0.000662891
0.000662136
0.000661432
0.000660815
0.000660223
0.000659713
0.000659229
0.0006588
0.000658379
0.000658023
0.000657678
0.000657387
0.000657087
0.000656846
0.000656603
0.0006564
0.000656177
0.00065602
0.000655845
0.000655684
0.00065553
0.000655416
0.000655303
0.000655232
0.000655135
0.000655049
0.00065497
0.000654923
0.00065484
0.000654781
0.000654742
0.000654659
0.00065464
0.000654624
0.000654579
0.000654614
0.000654613
0.000654697
0.000654751
0.000654866
0.000654943
0.000655093
0.000655146
0.000655268
0.000655312
0.000655441
0.00065553
0.0006557
0.000655784
0.000655962
0.000656055
0.000656249
0.000656349
0.000656561
0.000656677
0.00065692
0.000657049
0.000657317
0.00065746
0.000657761
0.000657925
0.000658277
0.000658464
0.000658901
0.000659091
0.000659732
0.00065999
0.000671054
0.000710368
0.00182135
0.00102223
0.000929901
0.000863519
0.000817198
0.000784446
0.000760583
0.000742649
0.000728788
0.000717837
0.00070901
0.000701793
0.000695804
0.000690785
0.000686531
0.000682897
0.000679768
0.000677055
0.000674689
0.000672607
0.000670779
0.000669154
0.000667717
0.00066642
0.000665272
0.00066423
0.000663302
0.000662443
0.000661686
0.000660979
0.000660361
0.000659767
0.000659255
0.000658769
0.000658339
0.000657917
0.00065756
0.000657213
0.000656921
0.00065662
0.000656378
0.000656134
0.000655931
0.000655707
0.000655549
0.000655373
0.000655212
0.000655058
0.000654943
0.000654829
0.000654757
0.00065466
0.000654573
0.000654494
0.000654447
0.000654363
0.000654304
0.000654265
0.000654182
0.000654162
0.000654146
0.0006541
0.000654134
0.000654133
0.000654217
0.000654269
0.000654384
0.000654461
0.00065461
0.000654663
0.000654785
0.000654828
0.000654957
0.000655045
0.000655215
0.000655299
0.000655476
0.000655569
0.000655763
0.000655863
0.000656074
0.00065619
0.000656432
0.000656561
0.000656828
0.000656971
0.000657271
0.000657435
0.000657786
0.000657973
0.000658408
0.000658598
0.000659238
0.000659496
0.000670759
0.000709959
0.00182395
0.00102224
0.000929895
0.000863457
0.000817068
0.000784254
0.000760339
0.000742363
0.000728467
0.000717487
0.000708637
0.000701399
0.000695394
0.00069036
0.000686094
0.000682449
0.00067931
0.000676589
0.000674216
0.000672128
0.000670294
0.000668664
0.000667222
0.000665921
0.000664769
0.000663723
0.000662792
0.00066193
0.000661171
0.000660462
0.000659841
0.000659245
0.000658731
0.000658243
0.000657812
0.000657388
0.000657029
0.000656682
0.000656388
0.000656086
0.000655843
0.000655598
0.000655394
0.000655169
0.000655011
0.000654834
0.000654672
0.000654517
0.000654402
0.000654287
0.000654214
0.000654116
0.000654029
0.00065395
0.000653902
0.000653818
0.000653758
0.000653719
0.000653636
0.000653615
0.000653599
0.000653553
0.000653585
0.000653584
0.000653667
0.000653718
0.000653833
0.000653909
0.000654058
0.00065411
0.000654232
0.000654275
0.000654403
0.000654491
0.00065466
0.000654743
0.000654921
0.000655013
0.000655206
0.000655306
0.000655517
0.000655632
0.000655874
0.000656002
0.000656268
0.000656411
0.00065671
0.000656873
0.000657224
0.00065741
0.000657845
0.000658033
0.000658673
0.00065893
0.000670423
0.000709495
0.00182564
0.00102225
0.00092989
0.000863388
0.000816922
0.000784038
0.000760065
0.00074204
0.000728105
0.000717093
0.000708216
0.000700956
0.000694931
0.000689881
0.000685601
0.000681944
0.000678795
0.000676064
0.000673682
0.000671587
0.000669747
0.00066811
0.000666663
0.000665358
0.000664202
0.000663152
0.000662217
0.000661352
0.00066059
0.000659878
0.000659255
0.000658656
0.00065814
0.00065765
0.000657217
0.000656792
0.000656431
0.000656082
0.000655787
0.000655484
0.000655239
0.000654993
0.000654788
0.000654562
0.000654403
0.000654225
0.000654063
0.000653907
0.000653791
0.000653675
0.000653602
0.000653503
0.000653416
0.000653335
0.000653287
0.000653203
0.000653143
0.000653103
0.00065302
0.000652999
0.000652982
0.000652934
0.000652966
0.000652964
0.000653046
0.000653097
0.00065321
0.000653286
0.000653435
0.000653486
0.000653608
0.00065365
0.000653778
0.000653865
0.000654034
0.000654117
0.000654294
0.000654386
0.000654578
0.000654678
0.000654888
0.000655003
0.000655244
0.000655372
0.000655637
0.000655779
0.000656078
0.00065624
0.000656589
0.000656775
0.000657208
0.000657396
0.000658035
0.000658292
0.000670049
0.000708974
0.00182579
0.00102227
0.000929884
0.000863311
0.000816761
0.000783799
0.00075976
0.000741682
0.000727703
0.000716654
0.000707747
0.000700462
0.000694416
0.000689348
0.000685051
0.000681381
0.00067822
0.000675478
0.000673087
0.000670984
0.000669136
0.000667494
0.000666041
0.00066473
0.000663569
0.000662515
0.000661576
0.000660707
0.000659941
0.000659226
0.0006586
0.000657999
0.000657481
0.000656989
0.000656553
0.000656126
0.000655764
0.000655413
0.000655116
0.000654812
0.000654566
0.000654318
0.000654112
0.000653885
0.000653724
0.000653546
0.000653383
0.000653226
0.000653109
0.000652992
0.000652918
0.000652819
0.000652731
0.00065265
0.000652601
0.000652517
0.000652456
0.000652416
0.000652332
0.00065231
0.000652293
0.000652245
0.000652274
0.000652272
0.000652354
0.000652403
0.000652516
0.000652592
0.000652739
0.00065279
0.000652911
0.000652953
0.00065308
0.000653167
0.000653336
0.000653418
0.000653594
0.000653686
0.000653878
0.000653977
0.000654186
0.0006543
0.00065454
0.000654668
0.000654932
0.000655074
0.000655372
0.000655534
0.000655882
0.000656066
0.000656498
0.000656684
0.000657323
0.00065758
0.000669635
0.000708395
0.00182375
0.00102228
0.000929877
0.000863227
0.000816584
0.000783536
0.000759424
0.000741286
0.000727259
0.00071617
0.000707229
0.000699917
0.000693847
0.000688758
0.000684445
0.000680759
0.000677584
0.000674832
0.00067243
0.000670318
0.000668462
0.000666812
0.000665352
0.000664035
0.000662869
0.00066181
0.000660867
0.000659994
0.000659225
0.000658506
0.000657877
0.000657273
0.000656752
0.000656257
0.00065582
0.000655391
0.000655026
0.000654673
0.000654375
0.000654068
0.000653821
0.000653572
0.000653365
0.000653136
0.000652974
0.000652795
0.000652631
0.000652473
0.000652355
0.000652237
0.000652162
0.000652062
0.000651974
0.000651892
0.000651843
0.000651758
0.000651696
0.000651656
0.000651572
0.000651549
0.000651532
0.000651482
0.00065151
0.000651508
0.000651588
0.000651636
0.000651748
0.000651824
0.00065197
0.00065202
0.000652141
0.000652182
0.000652309
0.000652395
0.000652563
0.000652645
0.00065282
0.000652912
0.000653103
0.000653202
0.00065341
0.000653524
0.000653763
0.00065389
0.000654153
0.000654295
0.000654591
0.000654752
0.000655099
0.000655283
0.000655713
0.000655898
0.000656537
0.000656793
0.000669182
0.000707757
0.00181952
0.0010223
0.000929871
0.000863136
0.000816391
0.000783248
0.000759057
0.000740854
0.000726773
0.00071564
0.000706663
0.000699319
0.000693223
0.000688113
0.00068378
0.000680077
0.000676888
0.000674122
0.00067171
0.000669587
0.000667723
0.000666064
0.000664598
0.000663274
0.000662102
0.000661038
0.000660089
0.000659212
0.000658439
0.000657716
0.000657084
0.000656477
0.000655952
0.000655455
0.000655015
0.000654583
0.000654217
0.000653861
0.000653562
0.000653253
0.000653004
0.000652754
0.000652545
0.000652315
0.000652151
0.000651971
0.000651806
0.000651647
0.000651528
0.000651409
0.000651333
0.000651232
0.000651143
0.00065106
0.00065101
0.000650925
0.000650862
0.000650822
0.000650738
0.000650714
0.000650696
0.000650645
0.000650672
0.000650668
0.000650748
0.000650794
0.000650905
0.000650981
0.000651127
0.000651175
0.000651295
0.000651337
0.000651462
0.000651548
0.000651715
0.000651797
0.000651971
0.000652062
0.000652252
0.000652351
0.000652558
0.000652672
0.00065291
0.000653036
0.000653299
0.000653439
0.000653734
0.000653895
0.00065424
0.000654423
0.000654852
0.000655035
0.000655673
0.00065593
0.00066869
0.000707061
0.00181314
0.00102232
0.000929864
0.000863038
0.000816182
0.000782937
0.000758659
0.000740385
0.000726245
0.000715064
0.000706047
0.00069867
0.000692545
0.00068741
0.000683056
0.000679335
0.00067613
0.00067335
0.000670925
0.000668792
0.000666917
0.00066525
0.000663775
0.000662445
0.000661266
0.000660196
0.000659242
0.00065836
0.000657582
0.000656856
0.000656219
0.000655608
0.000655081
0.000654581
0.000654138
0.000653704
0.000653335
0.000652977
0.000652675
0.000652365
0.000652114
0.000651861
0.000651651
0.000651419
0.000651254
0.000651072
0.000650907
0.000650746
0.000650626
0.000650506
0.000650428
0.000650327
0.000650237
0.000650153
0.000650103
0.000650017
0.000649954
0.000649913
0.000649829
0.000649803
0.000649785
0.000649733
0.000649758
0.000649754
0.000649832
0.000649876
0.000649987
0.000650062
0.000650207
0.000650254
0.000650374
0.000650414
0.000650539
0.000650625
0.000650791
0.000650872
0.000651045
0.000651136
0.000651325
0.000651423
0.00065163
0.000651742
0.000651979
0.000652105
0.000652366
0.000652506
0.0006528
0.00065296
0.000653304
0.000653486
0.000653913
0.000654094
0.000654732
0.000654989
0.000668157
0.000706303
0.00180465
0.00102234
0.000929857
0.000862933
0.000815958
0.000782602
0.00075823
0.000739878
0.000725675
0.000714441
0.00070538
0.000697967
0.000691811
0.000686649
0.000682272
0.000678531
0.000675309
0.000672514
0.000670075
0.00066793
0.000666045
0.000664368
0.000662885
0.000661546
0.00066036
0.000659283
0.000658324
0.000657437
0.000656654
0.000655923
0.000655282
0.000654668
0.000654137
0.000653633
0.000653187
0.00065275
0.000652378
0.000652018
0.000651714
0.000651401
0.000651148
0.000650894
0.000650682
0.000650449
0.000650282
0.000650099
0.000649932
0.00064977
0.000649648
0.000649527
0.000649448
0.000649346
0.000649256
0.00064917
0.000649119
0.000649033
0.000648969
0.000648927
0.000648843
0.000648816
0.000648797
0.000648744
0.000648767
0.000648762
0.000648839
0.000648882
0.000648991
0.000649066
0.00064921
0.000649255
0.000649375
0.000649415
0.000649539
0.000649623
0.000649789
0.000649869
0.000650042
0.000650132
0.00065032
0.000650418
0.000650623
0.000650735
0.00065097
0.000651096
0.000651356
0.000651495
0.000651788
0.000651947
0.000652288
0.000652469
0.000652895
0.000653074
0.000653711
0.000653969
0.000667583
0.000705483
0.00179409
0.00102236
0.00092985
0.000862822
0.000815718
0.000782243
0.000757769
0.000739333
0.000725061
0.000713771
0.000704663
0.00069721
0.00069102
0.00068583
0.000681428
0.000677666
0.000674424
0.000671613
0.00066916
0.000667001
0.000665104
0.000663417
0.000661924
0.000660577
0.000659384
0.0006583
0.000657334
0.000656441
0.000655653
0.000654917
0.000654272
0.000653653
0.000653118
0.000652611
0.000652162
0.000651722
0.000651347
0.000650984
0.000650677
0.000650362
0.000650107
0.00064985
0.000649637
0.000649402
0.000649233
0.000649048
0.000648881
0.000648717
0.000648594
0.000648471
0.000648391
0.000648288
0.000648196
0.00064811
0.000648057
0.000647971
0.000647906
0.000647864
0.00064778
0.000647751
0.000647731
0.000647678
0.000647699
0.000647692
0.000647768
0.000647808
0.000647916
0.000647991
0.000648134
0.000648178
0.000648297
0.000648336
0.000648459
0.000648543
0.000648707
0.000648787
0.000648959
0.000649048
0.000649236
0.000649333
0.000649537
0.000649648
0.000649882
0.000650007
0.000650266
0.000650404
0.000650695
0.000650853
0.000651193
0.000651373
0.000651796
0.000651974
0.00065261
0.000652869
0.000666968
0.0007046
0.00178151
0.00102239
0.000929844
0.000862703
0.000815463
0.000781859
0.000757276
0.000738751
0.000724405
0.000713054
0.000703895
0.000696399
0.000690173
0.000684951
0.000680522
0.000676737
0.000673475
0.000670646
0.000668177
0.000666004
0.000664094
0.000662396
0.000660893
0.000659537
0.000658335
0.000657244
0.000656271
0.000655372
0.000654578
0.000653836
0.000653187
0.000652563
0.000652024
0.000651513
0.000651061
0.000650617
0.000650239
0.000649873
0.000649564
0.000649247
0.000648989
0.00064873
0.000648514
0.000648277
0.000648107
0.00064792
0.000647751
0.000647586
0.000647461
0.000647336
0.000647255
0.000647151
0.000647059
0.00064697
0.000646917
0.000646831
0.000646764
0.000646721
0.000646637
0.000646607
0.000646587
0.000646532
0.000646551
0.000646543
0.000646617
0.000646655
0.000646762
0.000646836
0.000646978
0.00064702
0.000647139
0.000647177
0.000647299
0.000647382
0.000647546
0.000647625
0.000647795
0.000647884
0.000648071
0.000648167
0.00064837
0.00064848
0.000648713
0.000648837
0.000649094
0.000649232
0.000649521
0.000649679
0.000650016
0.000650195
0.000650616
0.000650791
0.000651427
0.000651688
0.00066631
0.000703649
0.00176698
0.00102241
0.000929837
0.000862579
0.000815192
0.000781452
0.000756752
0.000738131
0.000723705
0.000712289
0.000703075
0.000695533
0.000689268
0.000684013
0.000679555
0.000675744
0.000672461
0.000669612
0.000667126
0.000664938
0.000663015
0.000661304
0.000659791
0.000658425
0.000657214
0.000656114
0.000655134
0.000654228
0.000653428
0.000652681
0.000652026
0.000651398
0.000650854
0.000650339
0.000649882
0.000649436
0.000649054
0.000648685
0.000648373
0.000648053
0.000647792
0.000647531
0.000647313
0.000647074
0.000646901
0.000646713
0.000646542
0.000646375
0.000646249
0.000646122
0.000646039
0.000645934
0.000645841
0.000645751
0.000645697
0.00064561
0.000645542
0.000645499
0.000645415
0.000645383
0.000645362
0.000645306
0.000645322
0.000645313
0.000645386
0.000645421
0.000645527
0.000645601
0.000645741
0.000645781
0.000645899
0.000645937
0.000646058
0.00064614
0.000646302
0.000646381
0.00064655
0.000646639
0.000646823
0.000646919
0.000647121
0.000647231
0.000647462
0.000647585
0.000647841
0.000647978
0.000648265
0.000648421
0.000648757
0.000648934
0.000649353
0.000649526
0.000650161
0.000650424
0.000665608
0.000702629
0.00175056
0.00102244
0.000929831
0.000862448
0.000814907
0.000781021
0.000756197
0.000737472
0.000722962
0.000711475
0.000702203
0.000694611
0.000688304
0.000683014
0.000678525
0.000674688
0.00067138
0.000668511
0.000666006
0.000663802
0.000661865
0.000660141
0.000658616
0.000657239
0.000656019
0.000654911
0.000653923
0.000653009
0.000652202
0.000651449
0.000650788
0.000650155
0.000649607
0.000649086
0.000648626
0.000648176
0.000647791
0.000647418
0.000647103
0.000646779
0.000646516
0.000646252
0.000646032
0.000645791
0.000645616
0.000645426
0.000645253
0.000645084
0.000644956
0.000644827
0.000644743
0.000644636
0.000644542
0.000644451
0.000644396
0.000644308
0.000644239
0.000644195
0.00064411
0.000644077
0.000644055
0.000643998
0.000644012
0.000644001
0.000644072
0.000644105
0.000644209
0.000644283
0.000644421
0.00064446
0.000644577
0.000644614
0.000644734
0.000644815
0.000644976
0.000645054
0.000645222
0.00064531
0.000645493
0.000645588
0.000645789
0.000645898
0.000646127
0.00064625
0.000646503
0.000646639
0.000646925
0.00064708
0.000647413
0.000647589
0.000648005
0.000648177
0.000648811
0.000649076
0.000664859
0.000701537
0.00173234
0.00102246
0.000929825
0.000862311
0.000814606
0.000780566
0.00075561
0.000736776
0.000722175
0.000710614
0.000701278
0.000693634
0.000687283
0.000681954
0.000677432
0.000673566
0.000670233
0.000667342
0.000664818
0.000662596
0.000660643
0.000658905
0.000657367
0.00065598
0.000654749
0.000653631
0.000652635
0.000651714
0.0006509
0.00065014
0.000649473
0.000648834
0.00064828
0.000647755
0.000647291
0.000646836
0.000646448
0.000646071
0.000645752
0.000645426
0.00064516
0.000644893
0.00064467
0.000644427
0.000644249
0.000644057
0.000643883
0.000643712
0.000643582
0.000643451
0.000643365
0.000643256
0.000643161
0.000643069
0.000643012
0.000642924
0.000642853
0.000642808
0.000642724
0.000642688
0.000642666
0.000642607
0.000642619
0.000642606
0.000642676
0.000642706
0.000642808
0.000642881
0.000643018
0.000643055
0.000643171
0.000643207
0.000643326
0.000643406
0.000643566
0.000643643
0.00064381
0.000643897
0.000644079
0.000644173
0.000644372
0.00064448
0.000644707
0.000644829
0.000645081
0.000645216
0.0006455
0.000645654
0.000645985
0.000646159
0.000646573
0.000646742
0.000647375
0.000647643
0.000664061
0.000700367
0.0017124
0.00102249
0.00092982
0.000862169
0.000814291
0.000780088
0.000754991
0.000736041
0.000721344
0.000709703
0.000700301
0.000692601
0.000686202
0.000680832
0.000676275
0.000672378
0.000669019
0.000666104
0.000663559
0.000661319
0.000659349
0.000657596
0.000656045
0.000654645
0.000653404
0.000652276
0.000651271
0.000650341
0.000649519
0.000648752
0.000648079
0.000647434
0.000646875
0.000646345
0.000645876
0.000645416
0.000645024
0.000644643
0.000644321
0.000643991
0.000643722
0.000643451
0.000643226
0.00064298
0.0006428
0.000642606
0.00064243
0.000642256
0.000642125
0.000641992
0.000641903
0.000641794
0.000641697
0.000641603
0.000641545
0.000641456
0.000641384
0.000641338
0.000641253
0.000641216
0.000641192
0.000641133
0.000641142
0.000641127
0.000641194
0.000641222
0.000641323
0.000641395
0.00064153
0.000641565
0.000641681
0.000641715
0.000641833
0.000641912
0.000642071
0.000642147
0.000642312
0.000642398
0.000642579
0.000642672
0.000642869
0.000642977
0.000643202
0.000643323
0.000643573
0.000643707
0.000643989
0.000644141
0.00064447
0.000644643
0.000645054
0.00064522
0.000645853
0.000646124
0.000663213
0.000699116
0.00169083
0.00102252
0.000929815
0.000862021
0.000813962
0.000779587
0.000754341
0.000735268
0.000720469
0.000708744
0.000699271
0.000691512
0.000685061
0.000679648
0.000675054
0.000671124
0.000667736
0.000664796
0.000662229
0.000659969
0.000657982
0.000656213
0.000654648
0.000653235
0.000651982
0.000650843
0.000649828
0.00064889
0.00064806
0.000647285
0.000646605
0.000645954
0.000645389
0.000644853
0.000644379
0.000643915
0.000643518
0.000643133
0.000642807
0.000642474
0.000642201
0.000641927
0.0006417
0.000641451
0.000641267
0.000641071
0.000640893
0.000640718
0.000640584
0.000640448
0.000640358
0.000640246
0.000640149
0.000640052
0.000639993
0.000639903
0.00063983
0.000639782
0.000639698
0.000639658
0.000639634
0.000639574
0.00063958
0.000639563
0.000639628
0.000639652
0.000639752
0.000639824
0.000639957
0.000639989
0.000640104
0.000640137
0.000640254
0.000640332
0.000640489
0.000640564
0.000640728
0.000640813
0.000640992
0.000641085
0.00064128
0.000641386
0.00064161
0.00064173
0.000641978
0.000642111
0.00064239
0.000642542
0.000642867
0.000643038
0.000643446
0.00064361
0.000644242
0.000644518
0.000662309
0.000697778
0.00166773
0.00102255
0.000929811
0.000861868
0.000813619
0.000779063
0.000753661
0.000734457
0.00071955
0.000707735
0.000698188
0.000690365
0.000683861
0.000678402
0.000673768
0.000669804
0.000666385
0.000663418
0.000660828
0.000658547
0.00065654
0.000654755
0.000653175
0.000651748
0.000650482
0.000649333
0.000648307
0.00064736
0.000646521
0.000645738
0.000645051
0.000644394
0.000643822
0.00064328
0.000642801
0.000642332
0.00064193
0.00064154
0.000641211
0.000640873
0.000640597
0.00064032
0.000640089
0.000639837
0.000639651
0.000639452
0.000639272
0.000639094
0.000638958
0.000638819
0.000638727
0.000638614
0.000638515
0.000638416
0.000638355
0.000638265
0.00063819
0.000638141
0.000638056
0.000638014
0.00063799
0.000637928
0.000637932
0.000637912
0.000637975
0.000637996
0.000638094
0.000638165
0.000638296
0.000638326
0.00063844
0.000638472
0.000638588
0.000638664
0.000638819
0.000638894
0.000639056
0.00063914
0.000639318
0.00063941
0.000639603
0.000639708
0.000639929
0.000640048
0.000640295
0.000640426
0.000640703
0.000640853
0.000641176
0.000641346
0.000641751
0.000641911
0.000642542
0.000642823
0.000661349
0.000696345
0.00164321
0.00102259
0.000929808
0.000861709
0.000813262
0.000778516
0.000752949
0.000733608
0.000718587
0.000706678
0.000697051
0.000689162
0.000682601
0.000677093
0.000672416
0.000668416
0.000664965
0.00066197
0.000659354
0.000657051
0.000655025
0.000653222
0.000651625
0.000650184
0.000648905
0.000647743
0.000646707
0.000645749
0.000644902
0.00064411
0.000643415
0.000642751
0.000642172
0.000641624
0.000641139
0.000640665
0.000640258
0.000639864
0.00063953
0.000639188
0.000638908
0.000638627
0.000638393
0.000638138
0.000637949
0.000637747
0.000637565
0.000637384
0.000637246
0.000637105
0.00063701
0.000636895
0.000636795
0.000636694
0.000636631
0.000636539
0.000636464
0.000636413
0.000636328
0.000636284
0.000636258
0.000636196
0.000636197
0.000636174
0.000636234
0.000636252
0.000636348
0.000636419
0.000636547
0.000636575
0.000636687
0.000636718
0.000636833
0.000636908
0.000637061
0.000637135
0.000637296
0.000637379
0.000637554
0.000637645
0.000637837
0.000637941
0.00063816
0.000638278
0.000638522
0.000638652
0.000638926
0.000639075
0.000639395
0.000639563
0.000639965
0.000640122
0.000640752
0.000641039
0.000660322
0.000694814
0.00161737
0.00102262
0.000929806
0.000861547
0.000812893
0.000777947
0.000752207
0.000732722
0.00071758
0.000705572
0.000695861
0.000687902
0.00068128
0.000675721
0.000670999
0.00066696
0.000663475
0.00066045
0.000657808
0.000655481
0.000653434
0.000651612
0.000649998
0.000648542
0.000647249
0.000646074
0.000645027
0.000644058
0.000643201
0.000642401
0.000641697
0.000641025
0.000640439
0.000639884
0.000639394
0.000638914
0.000638502
0.000638103
0.000637764
0.000637418
0.000637134
0.000636849
0.000636612
0.000636353
0.00063616
0.000635955
0.000635772
0.000635588
0.000635447
0.000635303
0.000635205
0.000635088
0.000634987
0.000634884
0.000634819