/*--------------------------------*- C++ -*----------------------------------*\
| =========                 |                                                 |
| \\      /  F ield         | OpenFOAM: The Open Source CFD Toolbox           |
|  \\    /   O peration     | Version:  v2012                                 |
|   \\  /    A nd           | Website:  www.openfoam.com                      |
|    \\/     M anipulation  |                                                 |
\*---------------------------------------------------------------------------*/
FoamFile
{
    version     2.0;
    format      ascii;
    class       volScalarField;
    location    "27";
    object      nut;
}
// * * * * * * * * * * * * * * * * * * * * * * * * * * * * * * * * * * * * * //

dimensions      [0 2 -1 0 0 0 0];


internalField   nonuniform List<scalar> 
209825
(
1.23826e-07
1.23045e-07
1.22972e-07
1.23311e-07
1.23806e-07
1.24315e-07
1.24797e-07
1.25227e-07
1.25616e-07
1.25956e-07
1.26266e-07
1.26535e-07
1.26782e-07
1.26998e-07
1.27199e-07
1.27373e-07
1.27538e-07
1.27681e-07
1.27818e-07
1.27936e-07
1.28052e-07
1.28151e-07
1.28249e-07
1.28333e-07
1.28418e-07
1.28489e-07
1.28561e-07
1.28623e-07
1.28685e-07
1.28739e-07
1.28793e-07
1.2884e-07
1.2889e-07
1.2893e-07
1.28972e-07
1.29007e-07
1.29046e-07
1.29079e-07
1.29113e-07
1.29141e-07
1.29174e-07
1.292e-07
1.29224e-07
1.2925e-07
1.29277e-07
1.29294e-07
1.29317e-07
1.29333e-07
1.29355e-07
1.29374e-07
1.29391e-07
1.29405e-07
1.29425e-07
1.2944e-07
1.2945e-07
1.29464e-07
1.29478e-07
1.29478e-07
1.29487e-07
1.29498e-07
1.29504e-07
1.29522e-07
1.2953e-07
1.29562e-07
1.29581e-07
1.29607e-07
1.29624e-07
1.29658e-07
1.29676e-07
1.29702e-07
1.29717e-07
1.29737e-07
1.29755e-07
1.29776e-07
1.29792e-07
1.29809e-07
1.29827e-07
1.29843e-07
1.29863e-07
1.29879e-07
1.29899e-07
1.29921e-07
1.29938e-07
1.29962e-07
1.2998e-07
1.30008e-07
1.30028e-07
1.30062e-07
1.30086e-07
1.3013e-07
1.30157e-07
1.3022e-07
1.30257e-07
1.31397e-07
1.35601e-07
1.58263e-08
1.23826e-07
1.23045e-07
1.22972e-07
1.23311e-07
1.23806e-07
1.24315e-07
1.24797e-07
1.25226e-07
1.25616e-07
1.25956e-07
1.26266e-07
1.26534e-07
1.26782e-07
1.26997e-07
1.27198e-07
1.27373e-07
1.27538e-07
1.27681e-07
1.27818e-07
1.27936e-07
1.28052e-07
1.28151e-07
1.28249e-07
1.28333e-07
1.28418e-07
1.28489e-07
1.28561e-07
1.28623e-07
1.28685e-07
1.28739e-07
1.28793e-07
1.2884e-07
1.2889e-07
1.2893e-07
1.28972e-07
1.29007e-07
1.29047e-07
1.29079e-07
1.29113e-07
1.29141e-07
1.29174e-07
1.292e-07
1.29224e-07
1.2925e-07
1.29277e-07
1.29294e-07
1.29317e-07
1.29333e-07
1.29356e-07
1.29374e-07
1.29391e-07
1.29405e-07
1.29426e-07
1.2944e-07
1.29451e-07
1.29464e-07
1.29478e-07
1.29478e-07
1.29487e-07
1.29498e-07
1.29505e-07
1.29522e-07
1.2953e-07
1.29562e-07
1.29581e-07
1.29607e-07
1.29625e-07
1.29658e-07
1.29676e-07
1.29702e-07
1.29717e-07
1.29737e-07
1.29755e-07
1.29776e-07
1.29792e-07
1.29809e-07
1.29828e-07
1.29844e-07
1.29863e-07
1.29879e-07
1.29899e-07
1.29921e-07
1.29938e-07
1.29962e-07
1.2998e-07
1.30008e-07
1.30028e-07
1.30062e-07
1.30086e-07
1.3013e-07
1.30157e-07
1.3022e-07
1.30257e-07
1.31399e-07
1.35602e-07
1.63074e-08
1.23827e-07
1.23045e-07
1.22971e-07
1.23309e-07
1.23804e-07
1.24312e-07
1.24794e-07
1.25224e-07
1.25613e-07
1.25953e-07
1.26263e-07
1.26532e-07
1.26779e-07
1.26995e-07
1.27196e-07
1.2737e-07
1.27535e-07
1.27678e-07
1.27815e-07
1.27933e-07
1.28049e-07
1.28148e-07
1.28247e-07
1.28331e-07
1.28415e-07
1.28486e-07
1.28558e-07
1.2862e-07
1.28683e-07
1.28736e-07
1.28791e-07
1.28837e-07
1.28888e-07
1.28928e-07
1.28969e-07
1.29004e-07
1.29044e-07
1.29076e-07
1.2911e-07
1.29138e-07
1.29172e-07
1.29198e-07
1.29222e-07
1.29247e-07
1.29275e-07
1.29291e-07
1.29314e-07
1.2933e-07
1.29353e-07
1.29371e-07
1.29388e-07
1.29402e-07
1.29423e-07
1.29437e-07
1.29448e-07
1.29462e-07
1.29475e-07
1.29476e-07
1.29484e-07
1.29496e-07
1.29502e-07
1.2952e-07
1.29527e-07
1.29559e-07
1.29578e-07
1.29604e-07
1.29622e-07
1.29655e-07
1.29673e-07
1.297e-07
1.29714e-07
1.29734e-07
1.29752e-07
1.29773e-07
1.2979e-07
1.29806e-07
1.29825e-07
1.29841e-07
1.29861e-07
1.29876e-07
1.29897e-07
1.29918e-07
1.29936e-07
1.2996e-07
1.29977e-07
1.30005e-07
1.30025e-07
1.3006e-07
1.30084e-07
1.30128e-07
1.30155e-07
1.30218e-07
1.30254e-07
1.31401e-07
1.35603e-07
1.69045e-08
1.23827e-07
1.23045e-07
1.2297e-07
1.23307e-07
1.23801e-07
1.24309e-07
1.2479e-07
1.2522e-07
1.25609e-07
1.25949e-07
1.26258e-07
1.26527e-07
1.26775e-07
1.2699e-07
1.27191e-07
1.27365e-07
1.27531e-07
1.27674e-07
1.27811e-07
1.27929e-07
1.28045e-07
1.28144e-07
1.28242e-07
1.28326e-07
1.28411e-07
1.28482e-07
1.28554e-07
1.28616e-07
1.28678e-07
1.28732e-07
1.28786e-07
1.28833e-07
1.28884e-07
1.28924e-07
1.28965e-07
1.29e-07
1.2904e-07
1.29072e-07
1.29106e-07
1.29134e-07
1.29168e-07
1.29194e-07
1.29218e-07
1.29243e-07
1.29271e-07
1.29287e-07
1.2931e-07
1.29327e-07
1.29349e-07
1.29367e-07
1.29384e-07
1.29399e-07
1.29419e-07
1.29433e-07
1.29444e-07
1.29458e-07
1.29472e-07
1.29472e-07
1.29481e-07
1.29492e-07
1.29498e-07
1.29516e-07
1.29523e-07
1.29555e-07
1.29574e-07
1.296e-07
1.29618e-07
1.29651e-07
1.29669e-07
1.29696e-07
1.2971e-07
1.29731e-07
1.29748e-07
1.2977e-07
1.29786e-07
1.29803e-07
1.29821e-07
1.29837e-07
1.29857e-07
1.29873e-07
1.29893e-07
1.29915e-07
1.29932e-07
1.29956e-07
1.29974e-07
1.30002e-07
1.30021e-07
1.30056e-07
1.3008e-07
1.30124e-07
1.30151e-07
1.30214e-07
1.30251e-07
1.31405e-07
1.35604e-07
1.75668e-08
1.23827e-07
1.23044e-07
1.22968e-07
1.23303e-07
1.23797e-07
1.24304e-07
1.24785e-07
1.25214e-07
1.25603e-07
1.25943e-07
1.26252e-07
1.26521e-07
1.26769e-07
1.26984e-07
1.27185e-07
1.27359e-07
1.27525e-07
1.27668e-07
1.27805e-07
1.27923e-07
1.28039e-07
1.28139e-07
1.28237e-07
1.28321e-07
1.28405e-07
1.28476e-07
1.28548e-07
1.2861e-07
1.28673e-07
1.28727e-07
1.28781e-07
1.28828e-07
1.28878e-07
1.28918e-07
1.2896e-07
1.28995e-07
1.29035e-07
1.29067e-07
1.29101e-07
1.29129e-07
1.29163e-07
1.29189e-07
1.29213e-07
1.29238e-07
1.29266e-07
1.29282e-07
1.29305e-07
1.29322e-07
1.29344e-07
1.29362e-07
1.29379e-07
1.29394e-07
1.29414e-07
1.29428e-07
1.29439e-07
1.29453e-07
1.29467e-07
1.29467e-07
1.29476e-07
1.29487e-07
1.29493e-07
1.29511e-07
1.29519e-07
1.2955e-07
1.29569e-07
1.29596e-07
1.29613e-07
1.29646e-07
1.29664e-07
1.29691e-07
1.29706e-07
1.29726e-07
1.29743e-07
1.29765e-07
1.29781e-07
1.29798e-07
1.29817e-07
1.29833e-07
1.29852e-07
1.29868e-07
1.29888e-07
1.2991e-07
1.29927e-07
1.29951e-07
1.29969e-07
1.29997e-07
1.30017e-07
1.30051e-07
1.30075e-07
1.30119e-07
1.30146e-07
1.30209e-07
1.30246e-07
1.31409e-07
1.35605e-07
1.82849e-08
1.23827e-07
1.23044e-07
1.22965e-07
1.23299e-07
1.23791e-07
1.24297e-07
1.24778e-07
1.25207e-07
1.25596e-07
1.25936e-07
1.26245e-07
1.26514e-07
1.26762e-07
1.26977e-07
1.27178e-07
1.27352e-07
1.27518e-07
1.2766e-07
1.27798e-07
1.27916e-07
1.28032e-07
1.28131e-07
1.2823e-07
1.28314e-07
1.28398e-07
1.28469e-07
1.28542e-07
1.28603e-07
1.28666e-07
1.2872e-07
1.28774e-07
1.28821e-07
1.28872e-07
1.28912e-07
1.28954e-07
1.28988e-07
1.29028e-07
1.29061e-07
1.29095e-07
1.29122e-07
1.29156e-07
1.29182e-07
1.29206e-07
1.29232e-07
1.2926e-07
1.29276e-07
1.29299e-07
1.29315e-07
1.29338e-07
1.29356e-07
1.29373e-07
1.29387e-07
1.29408e-07
1.29422e-07
1.29433e-07
1.29447e-07
1.29461e-07
1.29461e-07
1.2947e-07
1.29481e-07
1.29487e-07
1.29505e-07
1.29513e-07
1.29544e-07
1.29563e-07
1.29589e-07
1.29607e-07
1.2964e-07
1.29658e-07
1.29685e-07
1.297e-07
1.2972e-07
1.29737e-07
1.29759e-07
1.29775e-07
1.29792e-07
1.29811e-07
1.29827e-07
1.29847e-07
1.29862e-07
1.29882e-07
1.29904e-07
1.29921e-07
1.29945e-07
1.29963e-07
1.29991e-07
1.30011e-07
1.30045e-07
1.30069e-07
1.30113e-07
1.3014e-07
1.30203e-07
1.3024e-07
1.31416e-07
1.35607e-07
1.90568e-08
1.23828e-07
1.23043e-07
1.22962e-07
1.23294e-07
1.23784e-07
1.2429e-07
1.2477e-07
1.25198e-07
1.25587e-07
1.25926e-07
1.26236e-07
1.26504e-07
1.26752e-07
1.26968e-07
1.27169e-07
1.27343e-07
1.27509e-07
1.27652e-07
1.27789e-07
1.27907e-07
1.28023e-07
1.28123e-07
1.28221e-07
1.28305e-07
1.2839e-07
1.28461e-07
1.28533e-07
1.28595e-07
1.28658e-07
1.28712e-07
1.28766e-07
1.28813e-07
1.28864e-07
1.28904e-07
1.28946e-07
1.2898e-07
1.2902e-07
1.29053e-07
1.29087e-07
1.29115e-07
1.29149e-07
1.29175e-07
1.29199e-07
1.29224e-07
1.29252e-07
1.29269e-07
1.29292e-07
1.29308e-07
1.2933e-07
1.29349e-07
1.29366e-07
1.2938e-07
1.29401e-07
1.29415e-07
1.29426e-07
1.2944e-07
1.29454e-07
1.29454e-07
1.29463e-07
1.29474e-07
1.2948e-07
1.29498e-07
1.29505e-07
1.29537e-07
1.29556e-07
1.29582e-07
1.296e-07
1.29633e-07
1.29651e-07
1.29678e-07
1.29692e-07
1.29712e-07
1.2973e-07
1.29752e-07
1.29768e-07
1.29785e-07
1.29803e-07
1.2982e-07
1.29839e-07
1.29855e-07
1.29875e-07
1.29897e-07
1.29914e-07
1.29938e-07
1.29956e-07
1.29984e-07
1.30004e-07
1.30038e-07
1.30062e-07
1.30106e-07
1.30133e-07
1.30196e-07
1.30232e-07
1.31425e-07
1.3561e-07
1.98828e-08
1.23828e-07
1.23042e-07
1.22958e-07
1.23287e-07
1.23776e-07
1.2428e-07
1.2476e-07
1.25188e-07
1.25576e-07
1.25916e-07
1.26225e-07
1.26494e-07
1.26742e-07
1.26957e-07
1.27158e-07
1.27332e-07
1.27498e-07
1.27641e-07
1.27779e-07
1.27897e-07
1.28013e-07
1.28113e-07
1.28211e-07
1.28295e-07
1.2838e-07
1.28451e-07
1.28524e-07
1.28586e-07
1.28649e-07
1.28703e-07
1.28757e-07
1.28804e-07
1.28855e-07
1.28895e-07
1.28936e-07
1.28971e-07
1.29011e-07
1.29044e-07
1.29078e-07
1.29106e-07
1.2914e-07
1.29166e-07
1.2919e-07
1.29216e-07
1.29243e-07
1.2926e-07
1.29283e-07
1.29299e-07
1.29322e-07
1.2934e-07
1.29357e-07
1.29372e-07
1.29392e-07
1.29407e-07
1.29418e-07
1.29431e-07
1.29445e-07
1.29446e-07
1.29454e-07
1.29466e-07
1.29472e-07
1.29489e-07
1.29497e-07
1.29529e-07
1.29548e-07
1.29574e-07
1.29592e-07
1.29625e-07
1.29642e-07
1.29669e-07
1.29684e-07
1.29704e-07
1.29722e-07
1.29743e-07
1.2976e-07
1.29777e-07
1.29795e-07
1.29811e-07
1.29831e-07
1.29847e-07
1.29867e-07
1.29889e-07
1.29906e-07
1.2993e-07
1.29948e-07
1.29976e-07
1.29995e-07
1.3003e-07
1.30054e-07
1.30097e-07
1.30124e-07
1.30187e-07
1.30224e-07
1.31435e-07
1.35613e-07
2.07638e-08
1.23829e-07
1.2304e-07
1.22954e-07
1.2328e-07
1.23767e-07
1.2427e-07
1.24748e-07
1.25176e-07
1.25564e-07
1.25903e-07
1.26212e-07
1.26481e-07
1.26729e-07
1.26944e-07
1.27146e-07
1.2732e-07
1.27486e-07
1.27629e-07
1.27767e-07
1.27885e-07
1.28002e-07
1.28101e-07
1.282e-07
1.28284e-07
1.28369e-07
1.2844e-07
1.28513e-07
1.28575e-07
1.28638e-07
1.28692e-07
1.28746e-07
1.28793e-07
1.28844e-07
1.28884e-07
1.28926e-07
1.28961e-07
1.29001e-07
1.29033e-07
1.29068e-07
1.29096e-07
1.29129e-07
1.29156e-07
1.2918e-07
1.29206e-07
1.29233e-07
1.2925e-07
1.29273e-07
1.29289e-07
1.29312e-07
1.2933e-07
1.29348e-07
1.29362e-07
1.29383e-07
1.29397e-07
1.29408e-07
1.29422e-07
1.29436e-07
1.29437e-07
1.29445e-07
1.29457e-07
1.29462e-07
1.2948e-07
1.29487e-07
1.29519e-07
1.29538e-07
1.29564e-07
1.29582e-07
1.29615e-07
1.29633e-07
1.29659e-07
1.29674e-07
1.29695e-07
1.29712e-07
1.29734e-07
1.2975e-07
1.29767e-07
1.29786e-07
1.29802e-07
1.29822e-07
1.29837e-07
1.29858e-07
1.29879e-07
1.29897e-07
1.29921e-07
1.29938e-07
1.29966e-07
1.29986e-07
1.3002e-07
1.30044e-07
1.30088e-07
1.30115e-07
1.30178e-07
1.30214e-07
1.31448e-07
1.35618e-07
2.17004e-08
1.23829e-07
1.23039e-07
1.22949e-07
1.23272e-07
1.23756e-07
1.24257e-07
1.24735e-07
1.25162e-07
1.2555e-07
1.25889e-07
1.26198e-07
1.26467e-07
1.26715e-07
1.2693e-07
1.27132e-07
1.27306e-07
1.27473e-07
1.27616e-07
1.27753e-07
1.27872e-07
1.27989e-07
1.28088e-07
1.28187e-07
1.28271e-07
1.28356e-07
1.28428e-07
1.285e-07
1.28562e-07
1.28625e-07
1.28679e-07
1.28734e-07
1.28781e-07
1.28832e-07
1.28872e-07
1.28914e-07
1.28949e-07
1.28989e-07
1.29022e-07
1.29056e-07
1.29084e-07
1.29118e-07
1.29144e-07
1.29168e-07
1.29194e-07
1.29222e-07
1.29239e-07
1.29262e-07
1.29278e-07
1.29301e-07
1.29319e-07
1.29337e-07
1.29351e-07
1.29372e-07
1.29386e-07
1.29397e-07
1.29411e-07
1.29425e-07
1.29426e-07
1.29434e-07
1.29446e-07
1.29452e-07
1.29469e-07
1.29477e-07
1.29508e-07
1.29527e-07
1.29553e-07
1.29571e-07
1.29604e-07
1.29622e-07
1.29648e-07
1.29663e-07
1.29684e-07
1.29701e-07
1.29723e-07
1.2974e-07
1.29757e-07
1.29775e-07
1.29791e-07
1.29811e-07
1.29827e-07
1.29847e-07
1.29869e-07
1.29886e-07
1.2991e-07
1.29928e-07
1.29956e-07
1.29976e-07
1.3001e-07
1.30034e-07
1.30077e-07
1.30104e-07
1.30167e-07
1.30203e-07
1.31463e-07
1.35623e-07
2.26924e-08
1.2383e-07
1.23038e-07
1.22943e-07
1.23262e-07
1.23744e-07
1.24244e-07
1.24721e-07
1.25147e-07
1.25535e-07
1.25873e-07
1.26182e-07
1.26451e-07
1.26699e-07
1.26915e-07
1.27116e-07
1.27291e-07
1.27457e-07
1.276e-07
1.27738e-07
1.27857e-07
1.27974e-07
1.28074e-07
1.28172e-07
1.28257e-07
1.28342e-07
1.28413e-07
1.28486e-07
1.28548e-07
1.28611e-07
1.28666e-07
1.2872e-07
1.28767e-07
1.28818e-07
1.28859e-07
1.28901e-07
1.28936e-07
1.28976e-07
1.29009e-07
1.29043e-07
1.29071e-07
1.29105e-07
1.29131e-07
1.29156e-07
1.29181e-07
1.29209e-07
1.29226e-07
1.29249e-07
1.29266e-07
1.29288e-07
1.29307e-07
1.29324e-07
1.29339e-07
1.29359e-07
1.29374e-07
1.29385e-07
1.29399e-07
1.29413e-07
1.29414e-07
1.29422e-07
1.29434e-07
1.2944e-07
1.29457e-07
1.29464e-07
1.29496e-07
1.29515e-07
1.29541e-07
1.29559e-07
1.29592e-07
1.29609e-07
1.29636e-07
1.29651e-07
1.29672e-07
1.29689e-07
1.29711e-07
1.29728e-07
1.29745e-07
1.29763e-07
1.2978e-07
1.29799e-07
1.29815e-07
1.29835e-07
1.29857e-07
1.29875e-07
1.29898e-07
1.29916e-07
1.29944e-07
1.29964e-07
1.29998e-07
1.30022e-07
1.30065e-07
1.30092e-07
1.30155e-07
1.30191e-07
1.31481e-07
1.3563e-07
2.37386e-08
1.23831e-07
1.23036e-07
1.22937e-07
1.23252e-07
1.23731e-07
1.24229e-07
1.24704e-07
1.2513e-07
1.25517e-07
1.25856e-07
1.26165e-07
1.26434e-07
1.26682e-07
1.26897e-07
1.27099e-07
1.27274e-07
1.2744e-07
1.27583e-07
1.27721e-07
1.27841e-07
1.27957e-07
1.28057e-07
1.28156e-07
1.28241e-07
1.28326e-07
1.28398e-07
1.2847e-07
1.28533e-07
1.28596e-07
1.2865e-07
1.28705e-07
1.28752e-07
1.28803e-07
1.28844e-07
1.28886e-07
1.28921e-07
1.28961e-07
1.28994e-07
1.29028e-07
1.29057e-07
1.29091e-07
1.29117e-07
1.29142e-07
1.29167e-07
1.29195e-07
1.29212e-07
1.29235e-07
1.29252e-07
1.29274e-07
1.29293e-07
1.29311e-07
1.29325e-07
1.29346e-07
1.2936e-07
1.29372e-07
1.29385e-07
1.29399e-07
1.29401e-07
1.29409e-07
1.29421e-07
1.29427e-07
1.29444e-07
1.29451e-07
1.29482e-07
1.29501e-07
1.29527e-07
1.29545e-07
1.29578e-07
1.29596e-07
1.29622e-07
1.29638e-07
1.29658e-07
1.29676e-07
1.29698e-07
1.29714e-07
1.29732e-07
1.2975e-07
1.29767e-07
1.29786e-07
1.29802e-07
1.29822e-07
1.29844e-07
1.29862e-07
1.29885e-07
1.29903e-07
1.29931e-07
1.29951e-07
1.29985e-07
1.30008e-07
1.30052e-07
1.30078e-07
1.30141e-07
1.30178e-07
1.31502e-07
1.35638e-07
2.48372e-08
1.23832e-07
1.23034e-07
1.2293e-07
1.23241e-07
1.23716e-07
1.24212e-07
1.24686e-07
1.25111e-07
1.25498e-07
1.25836e-07
1.26145e-07
1.26414e-07
1.26662e-07
1.26878e-07
1.2708e-07
1.27255e-07
1.27421e-07
1.27565e-07
1.27703e-07
1.27822e-07
1.27939e-07
1.28039e-07
1.28138e-07
1.28223e-07
1.28308e-07
1.2838e-07
1.28453e-07
1.28516e-07
1.28579e-07
1.28634e-07
1.28689e-07
1.28736e-07
1.28787e-07
1.28827e-07
1.2887e-07
1.28905e-07
1.28945e-07
1.28978e-07
1.29013e-07
1.29041e-07
1.29075e-07
1.29101e-07
1.29126e-07
1.29152e-07
1.2918e-07
1.29197e-07
1.2922e-07
1.29237e-07
1.29259e-07
1.29278e-07
1.29295e-07
1.2931e-07
1.29331e-07
1.29345e-07
1.29357e-07
1.2937e-07
1.29385e-07
1.29386e-07
1.29395e-07
1.29406e-07
1.29412e-07
1.29429e-07
1.29436e-07
1.29468e-07
1.29486e-07
1.29512e-07
1.29531e-07
1.29563e-07
1.29581e-07
1.29607e-07
1.29623e-07
1.29643e-07
1.29661e-07
1.29683e-07
1.297e-07
1.29717e-07
1.29735e-07
1.29752e-07
1.29772e-07
1.29788e-07
1.29808e-07
1.29829e-07
1.29847e-07
1.29871e-07
1.29889e-07
1.29917e-07
1.29936e-07
1.2997e-07
1.29994e-07
1.30037e-07
1.30064e-07
1.30127e-07
1.30163e-07
1.31525e-07
1.35647e-07
2.5991e-08
1.23833e-07
1.23032e-07
1.22923e-07
1.23228e-07
1.237e-07
1.24194e-07
1.24667e-07
1.2509e-07
1.25477e-07
1.25815e-07
1.26124e-07
1.26393e-07
1.26641e-07
1.26857e-07
1.27059e-07
1.27234e-07
1.27401e-07
1.27544e-07
1.27683e-07
1.27802e-07
1.27919e-07
1.2802e-07
1.28119e-07
1.28204e-07
1.28289e-07
1.28361e-07
1.28434e-07
1.28497e-07
1.28561e-07
1.28615e-07
1.2867e-07
1.28718e-07
1.28769e-07
1.2881e-07
1.28852e-07
1.28887e-07
1.28928e-07
1.28961e-07
1.28995e-07
1.29023e-07
1.29058e-07
1.29084e-07
1.29109e-07
1.29135e-07
1.29163e-07
1.2918e-07
1.29203e-07
1.2922e-07
1.29243e-07
1.29261e-07
1.29279e-07
1.29294e-07
1.29314e-07
1.29329e-07
1.29341e-07
1.29354e-07
1.29369e-07
1.29371e-07
1.29379e-07
1.29391e-07
1.29396e-07
1.29413e-07
1.2942e-07
1.29451e-07
1.2947e-07
1.29496e-07
1.29515e-07
1.29547e-07
1.29564e-07
1.29591e-07
1.29607e-07
1.29627e-07
1.29645e-07
1.29667e-07
1.29684e-07
1.29701e-07
1.2972e-07
1.29736e-07
1.29756e-07
1.29772e-07
1.29792e-07
1.29814e-07
1.29832e-07
1.29855e-07
1.29873e-07
1.29901e-07
1.29921e-07
1.29954e-07
1.29978e-07
1.30021e-07
1.30048e-07
1.30111e-07
1.30147e-07
1.31551e-07
1.35657e-07
2.72035e-08
1.23834e-07
1.2303e-07
1.22915e-07
1.23215e-07
1.23683e-07
1.24174e-07
1.24645e-07
1.25068e-07
1.25454e-07
1.25792e-07
1.26101e-07
1.2637e-07
1.26618e-07
1.26834e-07
1.27036e-07
1.27211e-07
1.27378e-07
1.27522e-07
1.27661e-07
1.27781e-07
1.27898e-07
1.27998e-07
1.28098e-07
1.28183e-07
1.28269e-07
1.28341e-07
1.28414e-07
1.28477e-07
1.28541e-07
1.28595e-07
1.28651e-07
1.28698e-07
1.28749e-07
1.2879e-07
1.28833e-07
1.28868e-07
1.28909e-07
1.28942e-07
1.28976e-07
1.29005e-07
1.29039e-07
1.29066e-07
1.2909e-07
1.29116e-07
1.29144e-07
1.29162e-07
1.29185e-07
1.29202e-07
1.29225e-07
1.29243e-07
1.29261e-07
1.29276e-07
1.29296e-07
1.29311e-07
1.29323e-07
1.29337e-07
1.29351e-07
1.29353e-07
1.29362e-07
1.29373e-07
1.29379e-07
1.29396e-07
1.29403e-07
1.29434e-07
1.29452e-07
1.29478e-07
1.29497e-07
1.2953e-07
1.29546e-07
1.29573e-07
1.29589e-07
1.2961e-07
1.29627e-07
1.2965e-07
1.29666e-07
1.29684e-07
1.29702e-07
1.29719e-07
1.29739e-07
1.29755e-07
1.29775e-07
1.29796e-07
1.29815e-07
1.29838e-07
1.29856e-07
1.29884e-07
1.29904e-07
1.29937e-07
1.29961e-07
1.30004e-07
1.3003e-07
1.30093e-07
1.3013e-07
1.3158e-07
1.35668e-07
2.84781e-08
1.23835e-07
1.23028e-07
1.22907e-07
1.232e-07
1.23664e-07
1.24152e-07
1.24622e-07
1.25044e-07
1.2543e-07
1.25767e-07
1.26076e-07
1.26345e-07
1.26593e-07
1.26809e-07
1.27012e-07
1.27187e-07
1.27354e-07
1.27498e-07
1.27637e-07
1.27757e-07
1.27875e-07
1.27975e-07
1.28075e-07
1.2816e-07
1.28246e-07
1.28318e-07
1.28392e-07
1.28455e-07
1.28519e-07
1.28574e-07
1.28629e-07
1.28677e-07
1.28728e-07
1.28769e-07
1.28812e-07
1.28847e-07
1.28888e-07
1.28921e-07
1.28956e-07
1.28984e-07
1.29019e-07
1.29045e-07
1.29071e-07
1.29096e-07
1.29125e-07
1.29142e-07
1.29166e-07
1.29182e-07
1.29205e-07
1.29224e-07
1.29242e-07
1.29256e-07
1.29277e-07
1.29292e-07
1.29304e-07
1.29318e-07
1.29333e-07
1.29335e-07
1.29343e-07
1.29355e-07
1.2936e-07
1.29377e-07
1.29384e-07
1.29415e-07
1.29433e-07
1.29459e-07
1.29478e-07
1.2951e-07
1.29527e-07
1.29554e-07
1.2957e-07
1.29591e-07
1.29608e-07
1.29631e-07
1.29648e-07
1.29666e-07
1.29684e-07
1.29701e-07
1.2972e-07
1.29736e-07
1.29757e-07
1.29778e-07
1.29796e-07
1.2982e-07
1.29838e-07
1.29865e-07
1.29885e-07
1.29919e-07
1.29942e-07
1.29985e-07
1.30011e-07
1.30074e-07
1.30112e-07
1.31613e-07
1.3568e-07
2.98184e-08
1.23836e-07
1.23026e-07
1.22897e-07
1.23185e-07
1.23644e-07
1.24129e-07
1.24597e-07
1.25018e-07
1.25403e-07
1.2574e-07
1.26049e-07
1.26317e-07
1.26566e-07
1.26782e-07
1.26985e-07
1.27161e-07
1.27328e-07
1.27472e-07
1.27612e-07
1.27732e-07
1.27849e-07
1.2795e-07
1.2805e-07
1.28136e-07
1.28222e-07
1.28294e-07
1.28368e-07
1.28431e-07
1.28495e-07
1.2855e-07
1.28606e-07
1.28654e-07
1.28705e-07
1.28746e-07
1.28789e-07
1.28825e-07
1.28866e-07
1.28899e-07
1.28934e-07
1.28962e-07
1.28997e-07
1.29024e-07
1.29049e-07
1.29075e-07
1.29103e-07
1.29121e-07
1.29144e-07
1.29161e-07
1.29184e-07
1.29203e-07
1.29221e-07
1.29236e-07
1.29257e-07
1.29272e-07
1.29284e-07
1.29297e-07
1.29312e-07
1.29315e-07
1.29323e-07
1.29335e-07
1.2934e-07
1.29357e-07
1.29364e-07
1.29394e-07
1.29413e-07
1.29439e-07
1.29458e-07
1.2949e-07
1.29506e-07
1.29533e-07
1.29549e-07
1.29571e-07
1.29588e-07
1.29611e-07
1.29627e-07
1.29646e-07
1.29664e-07
1.29681e-07
1.297e-07
1.29716e-07
1.29737e-07
1.29758e-07
1.29777e-07
1.298e-07
1.29818e-07
1.29846e-07
1.29865e-07
1.29899e-07
1.29922e-07
1.29965e-07
1.29991e-07
1.30054e-07
1.30092e-07
1.31648e-07
1.35693e-07
3.12283e-08
1.23838e-07
1.23024e-07
1.22888e-07
1.23168e-07
1.23623e-07
1.24105e-07
1.24571e-07
1.2499e-07
1.25374e-07
1.25711e-07
1.2602e-07
1.26288e-07
1.26537e-07
1.26754e-07
1.26956e-07
1.27132e-07
1.273e-07
1.27445e-07
1.27584e-07
1.27704e-07
1.27822e-07
1.27923e-07
1.28024e-07
1.28109e-07
1.28196e-07
1.28269e-07
1.28343e-07
1.28406e-07
1.2847e-07
1.28525e-07
1.28581e-07
1.28629e-07
1.28681e-07
1.28722e-07
1.28765e-07
1.28801e-07
1.28842e-07
1.28875e-07
1.2891e-07
1.28939e-07
1.28973e-07
1.29001e-07
1.29026e-07
1.29052e-07
1.2908e-07
1.29098e-07
1.29122e-07
1.29139e-07
1.29162e-07
1.29181e-07
1.29199e-07
1.29213e-07
1.29234e-07
1.2925e-07
1.29262e-07
1.29275e-07
1.29291e-07
1.29293e-07
1.29302e-07
1.29313e-07
1.29319e-07
1.29335e-07
1.29342e-07
1.29373e-07
1.2939e-07
1.29416e-07
1.29436e-07
1.29468e-07
1.29484e-07
1.29511e-07
1.29527e-07
1.29549e-07
1.29566e-07
1.2959e-07
1.29606e-07
1.29624e-07
1.29642e-07
1.2966e-07
1.29679e-07
1.29695e-07
1.29716e-07
1.29737e-07
1.29755e-07
1.29779e-07
1.29797e-07
1.29824e-07
1.29844e-07
1.29877e-07
1.29901e-07
1.29944e-07
1.29969e-07
1.30032e-07
1.3007e-07
1.31687e-07
1.35706e-07
3.27118e-08
1.23839e-07
1.23021e-07
1.22878e-07
1.23151e-07
1.236e-07
1.24079e-07
1.24542e-07
1.2496e-07
1.25344e-07
1.2568e-07
1.25989e-07
1.26257e-07
1.26506e-07
1.26723e-07
1.26926e-07
1.27102e-07
1.2727e-07
1.27415e-07
1.27555e-07
1.27675e-07
1.27794e-07
1.27895e-07
1.27995e-07
1.28081e-07
1.28168e-07
1.28241e-07
1.28315e-07
1.28378e-07
1.28443e-07
1.28498e-07
1.28555e-07
1.28602e-07
1.28655e-07
1.28696e-07
1.28739e-07
1.28775e-07
1.28816e-07
1.2885e-07
1.28885e-07
1.28914e-07
1.28948e-07
1.28976e-07
1.29001e-07
1.29027e-07
1.29056e-07
1.29073e-07
1.29097e-07
1.29115e-07
1.29137e-07
1.29157e-07
1.29175e-07
1.2919e-07
1.29211e-07
1.29226e-07
1.29238e-07
1.29252e-07
1.29267e-07
1.2927e-07
1.29279e-07
1.29291e-07
1.29296e-07
1.29312e-07
1.29319e-07
1.29349e-07
1.29367e-07
1.29393e-07
1.29412e-07
1.29444e-07
1.2946e-07
1.29487e-07
1.29504e-07
1.29525e-07
1.29543e-07
1.29567e-07
1.29582e-07
1.29601e-07
1.29619e-07
1.29637e-07
1.29656e-07
1.29672e-07
1.29693e-07
1.29714e-07
1.29733e-07
1.29756e-07
1.29774e-07
1.29802e-07
1.29821e-07
1.29854e-07
1.29878e-07
1.29921e-07
1.29946e-07
1.30009e-07
1.30047e-07
1.31729e-07
1.3572e-07
3.42728e-08
1.23841e-07
1.23019e-07
1.22867e-07
1.23132e-07
1.23576e-07
1.24051e-07
1.24512e-07
1.24929e-07
1.25311e-07
1.25647e-07
1.25956e-07
1.26224e-07
1.26473e-07
1.2669e-07
1.26893e-07
1.2707e-07
1.27238e-07
1.27383e-07
1.27523e-07
1.27644e-07
1.27763e-07
1.27864e-07
1.27965e-07
1.28051e-07
1.28138e-07
1.28211e-07
1.28286e-07
1.28349e-07
1.28414e-07
1.2847e-07
1.28526e-07
1.28574e-07
1.28627e-07
1.28668e-07
1.28712e-07
1.28747e-07
1.28789e-07
1.28822e-07
1.28858e-07
1.28887e-07
1.28922e-07
1.28949e-07
1.28975e-07
1.29e-07
1.29029e-07
1.29047e-07
1.29072e-07
1.29089e-07
1.29112e-07
1.29131e-07
1.29149e-07
1.29164e-07
1.29185e-07
1.29201e-07
1.29213e-07
1.29227e-07
1.29243e-07
1.29246e-07
1.29254e-07
1.29266e-07
1.29271e-07
1.29287e-07
1.29294e-07
1.29324e-07
1.29342e-07
1.29368e-07
1.29387e-07
1.29419e-07
1.29435e-07
1.29462e-07
1.29478e-07
1.295e-07
1.29518e-07
1.29542e-07
1.29558e-07
1.29577e-07
1.29594e-07
1.29613e-07
1.29632e-07
1.29648e-07
1.29669e-07
1.2969e-07
1.29708e-07
1.29732e-07
1.2975e-07
1.29777e-07
1.29797e-07
1.2983e-07
1.29854e-07
1.29896e-07
1.29921e-07
1.29984e-07
1.30023e-07
1.31773e-07
1.35735e-07
3.59155e-08
1.23842e-07
1.23016e-07
1.22856e-07
1.23113e-07
1.2355e-07
1.24021e-07
1.2448e-07
1.24895e-07
1.25277e-07
1.25612e-07
1.2592e-07
1.26189e-07
1.26438e-07
1.26655e-07
1.26859e-07
1.27035e-07
1.27204e-07
1.27349e-07
1.2749e-07
1.27611e-07
1.2773e-07
1.27832e-07
1.27933e-07
1.28019e-07
1.28107e-07
1.2818e-07
1.28255e-07
1.28318e-07
1.28384e-07
1.28439e-07
1.28496e-07
1.28544e-07
1.28597e-07
1.28638e-07
1.28682e-07
1.28718e-07
1.2876e-07
1.28794e-07
1.28829e-07
1.28858e-07
1.28893e-07
1.28921e-07
1.28947e-07
1.28972e-07
1.29002e-07
1.2902e-07
1.29044e-07
1.29061e-07
1.29084e-07
1.29104e-07
1.29122e-07
1.29137e-07
1.29158e-07
1.29174e-07
1.29187e-07
1.292e-07
1.29216e-07
1.2922e-07
1.29228e-07
1.2924e-07
1.29245e-07
1.29261e-07
1.29268e-07
1.29298e-07
1.29315e-07
1.29341e-07
1.29361e-07
1.29392e-07
1.29408e-07
1.29435e-07
1.29451e-07
1.29473e-07
1.29491e-07
1.29516e-07
1.29531e-07
1.29551e-07
1.29568e-07
1.29587e-07
1.29606e-07
1.29622e-07
1.29643e-07
1.29664e-07
1.29683e-07
1.29706e-07
1.29724e-07
1.29751e-07
1.29771e-07
1.29804e-07
1.29828e-07
1.2987e-07
1.29895e-07
1.29958e-07
1.29997e-07
1.31821e-07
1.35748e-07
3.76437e-08
1.23844e-07
1.23013e-07
1.22844e-07
1.23092e-07
1.23523e-07
1.2399e-07
1.24446e-07
1.2486e-07
1.2524e-07
1.25575e-07
1.25883e-07
1.26151e-07
1.26401e-07
1.26618e-07
1.26822e-07
1.26998e-07
1.27168e-07
1.27313e-07
1.27454e-07
1.27575e-07
1.27695e-07
1.27797e-07
1.27899e-07
1.27985e-07
1.28073e-07
1.28147e-07
1.28222e-07
1.28286e-07
1.28351e-07
1.28407e-07
1.28464e-07
1.28512e-07
1.28565e-07
1.28607e-07
1.28651e-07
1.28687e-07
1.28729e-07
1.28763e-07
1.28799e-07
1.28828e-07
1.28863e-07
1.28891e-07
1.28917e-07
1.28943e-07
1.28972e-07
1.2899e-07
1.29015e-07
1.29032e-07
1.29055e-07
1.29075e-07
1.29093e-07
1.29108e-07
1.2913e-07
1.29145e-07
1.29158e-07
1.29172e-07
1.29188e-07
1.29192e-07
1.292e-07
1.29212e-07
1.29218e-07
1.29233e-07
1.2924e-07
1.29269e-07
1.29286e-07
1.29313e-07
1.29333e-07
1.29364e-07
1.29379e-07
1.29407e-07
1.29423e-07
1.29445e-07
1.29463e-07
1.29488e-07
1.29503e-07
1.29523e-07
1.2954e-07
1.29559e-07
1.29578e-07
1.29595e-07
1.29615e-07
1.29636e-07
1.29655e-07
1.29678e-07
1.29697e-07
1.29724e-07
1.29744e-07
1.29777e-07
1.298e-07
1.29842e-07
1.29867e-07
1.2993e-07
1.2997e-07
1.31872e-07
1.35762e-07
3.94614e-08
1.23845e-07
1.2301e-07
1.22831e-07
1.23071e-07
1.23495e-07
1.23957e-07
1.2441e-07
1.24822e-07
1.25202e-07
1.25536e-07
1.25843e-07
1.26112e-07
1.26361e-07
1.26578e-07
1.26783e-07
1.2696e-07
1.27129e-07
1.27275e-07
1.27416e-07
1.27538e-07
1.27658e-07
1.2776e-07
1.27862e-07
1.27949e-07
1.28037e-07
1.28111e-07
1.28187e-07
1.28251e-07
1.28317e-07
1.28373e-07
1.2843e-07
1.28478e-07
1.28531e-07
1.28574e-07
1.28618e-07
1.28654e-07
1.28696e-07
1.2873e-07
1.28766e-07
1.28796e-07
1.28831e-07
1.28859e-07
1.28885e-07
1.28911e-07
1.28941e-07
1.28959e-07
1.28984e-07
1.29001e-07
1.29024e-07
1.29044e-07
1.29063e-07
1.29078e-07
1.29099e-07
1.29115e-07
1.29128e-07
1.29142e-07
1.29158e-07
1.29162e-07
1.29171e-07
1.29183e-07
1.29189e-07
1.29204e-07
1.29211e-07
1.29239e-07
1.29256e-07
1.29282e-07
1.29303e-07
1.29334e-07
1.29349e-07
1.29376e-07
1.29392e-07
1.29415e-07
1.29433e-07
1.29458e-07
1.29473e-07
1.29494e-07
1.29511e-07
1.2953e-07
1.29549e-07
1.29565e-07
1.29586e-07
1.29607e-07
1.29626e-07
1.29649e-07
1.29668e-07
1.29695e-07
1.29715e-07
1.29747e-07
1.29771e-07
1.29812e-07
1.29837e-07
1.299e-07
1.29941e-07
1.31925e-07
1.35773e-07
4.13719e-08
1.23847e-07
1.23008e-07
1.22819e-07
1.23048e-07
1.23465e-07
1.23922e-07
1.24373e-07
1.24782e-07
1.25161e-07
1.25494e-07
1.25802e-07
1.2607e-07
1.2632e-07
1.26537e-07
1.26741e-07
1.26919e-07
1.27089e-07
1.27235e-07
1.27377e-07
1.27499e-07
1.27619e-07
1.27722e-07
1.27824e-07
1.27911e-07
1.27999e-07
1.28074e-07
1.28149e-07
1.28214e-07
1.2828e-07
1.28336e-07
1.28394e-07
1.28443e-07
1.28496e-07
1.28538e-07
1.28583e-07
1.28619e-07
1.28662e-07
1.28696e-07
1.28732e-07
1.28762e-07
1.28797e-07
1.28825e-07
1.28852e-07
1.28878e-07
1.28907e-07
1.28926e-07
1.28951e-07
1.28968e-07
1.28992e-07
1.29011e-07
1.29031e-07
1.29046e-07
1.29067e-07
1.29083e-07
1.29097e-07
1.2911e-07
1.29127e-07
1.29131e-07
1.2914e-07
1.29152e-07
1.29158e-07
1.29173e-07
1.29179e-07
1.29208e-07
1.29225e-07
1.29251e-07
1.29271e-07
1.29302e-07
1.29317e-07
1.29344e-07
1.2936e-07
1.29383e-07
1.29401e-07
1.29427e-07
1.29442e-07
1.29462e-07
1.2948e-07
1.29499e-07
1.29517e-07
1.29535e-07
1.29556e-07
1.29576e-07
1.29596e-07
1.29618e-07
1.29637e-07
1.29664e-07
1.29684e-07
1.29716e-07
1.2974e-07
1.29781e-07
1.29806e-07
1.29869e-07
1.2991e-07
1.3198e-07
1.35783e-07
4.33778e-08
1.23849e-07
1.23005e-07
1.22805e-07
1.23025e-07
1.23434e-07
1.23886e-07
1.24333e-07
1.24741e-07
1.25118e-07
1.25451e-07
1.25758e-07
1.26026e-07
1.26276e-07
1.26493e-07
1.26698e-07
1.26876e-07
1.27046e-07
1.27192e-07
1.27335e-07
1.27457e-07
1.27578e-07
1.27681e-07
1.27783e-07
1.27871e-07
1.2796e-07
1.28034e-07
1.2811e-07
1.28175e-07
1.28241e-07
1.28298e-07
1.28356e-07
1.28405e-07
1.28458e-07
1.28501e-07
1.28546e-07
1.28583e-07
1.28625e-07
1.28659e-07
1.28696e-07
1.28726e-07
1.28761e-07
1.28789e-07
1.28816e-07
1.28842e-07
1.28872e-07
1.28891e-07
1.28916e-07
1.28934e-07
1.28957e-07
1.28977e-07
1.28997e-07
1.29012e-07
1.29033e-07
1.2905e-07
1.29063e-07
1.29077e-07
1.29094e-07
1.29098e-07
1.29107e-07
1.29119e-07
1.29125e-07
1.2914e-07
1.29146e-07
1.29174e-07
1.29191e-07
1.29217e-07
1.29238e-07
1.29269e-07
1.29283e-07
1.2931e-07
1.29326e-07
1.2935e-07
1.29368e-07
1.29393e-07
1.29409e-07
1.2943e-07
1.29447e-07
1.29466e-07
1.29485e-07
1.29502e-07
1.29523e-07
1.29543e-07
1.29563e-07
1.29586e-07
1.29605e-07
1.29632e-07
1.29652e-07
1.29684e-07
1.29707e-07
1.29748e-07
1.29773e-07
1.29836e-07
1.29878e-07
1.32038e-07
1.35789e-07
4.54811e-08
1.23851e-07
1.23002e-07
1.22792e-07
1.23e-07
1.23402e-07
1.23848e-07
1.24292e-07
1.24697e-07
1.25073e-07
1.25405e-07
1.25712e-07
1.25979e-07
1.26229e-07
1.26447e-07
1.26652e-07
1.2683e-07
1.27001e-07
1.27148e-07
1.2729e-07
1.27413e-07
1.27534e-07
1.27637e-07
1.27741e-07
1.27828e-07
1.27918e-07
1.27992e-07
1.28069e-07
1.28134e-07
1.28201e-07
1.28258e-07
1.28316e-07
1.28365e-07
1.28419e-07
1.28462e-07
1.28507e-07
1.28544e-07
1.28586e-07
1.28621e-07
1.28658e-07
1.28688e-07
1.28723e-07
1.28752e-07
1.28779e-07
1.28805e-07
1.28835e-07
1.28854e-07
1.28879e-07
1.28898e-07
1.28921e-07
1.28941e-07