/*--------------------------------*- C++ -*----------------------------------*\
| =========                 |                                                 |
| \\      /  F ield         | OpenFOAM: The Open Source CFD Toolbox           |
|  \\    /   O peration     | Version:  v2012                                 |
|   \\  /    A nd           | Website:  www.openfoam.com                      |
|    \\/     M anipulation  |                                                 |
\*---------------------------------------------------------------------------*/
FoamFile
{
    version     2.0;
    format      ascii;
    class       volScalarField;
    location    "27";
    object      omega;
}
// * * * * * * * * * * * * * * * * * * * * * * * * * * * * * * * * * * * * * //

dimensions      [0 0 -1 0 0 0 0];


internalField   nonuniform List<scalar> 
209825
(
8254.96
7557.55
7023.93
6631.01
6341.76
6125.39
5959.26
5829.15
5724.7
5639.86
5569.46
5510.78
5460.83
5418.44
5381.61
5349.95
5321.97
5297.7
5275.92
5256.91
5239.61
5224.47
5210.48
5198.24
5186.8
5176.8
5167.3
5159.01
5151.07
5144.18
5137.46
5131.68
5125.95
5121.07
5116.19
5112.09
5107.86
5104.35
5100.71
5097.77
5094.58
5092.01
5089.35
5087.15
5084.73
5082.85
5080.78
5079.27
5077.53
5076.28
5074.87
5073.66
5072.25
5071.35
5070.28
5069.3
5068.48
5067.82
5067.36
5066.78
5066.21
5065.81
5065.52
5064.93
5064.63
5064.51
5064.41
5064.28
5064
5063.91
5063.69
5063.92
5063.92
5064.41
5064.41
5065.15
5065.15
5066.03
5066.03
5067.07
5067.18
5068.22
5068.55
5069.69
5070.11
5071.34
5071.84
5073.23
5073.74
5075.41
5075.84
5078.3
5078.88
5114.22
5248.23
113975
8254.97
7557.55
7023.92
6630.98
6341.71
6125.33
5959.19
5829.06
5724.61
5639.76
5569.34
5510.65
5460.7
5418.3
5381.47
5349.81
5321.82
5297.55
5275.77
5256.76
5239.45
5224.31
5210.32
5198.07
5186.64
5176.63
5167.13
5158.84
5150.91
5144.01
5137.29
5131.51
5125.78
5120.9
5116.01
5111.91
5107.68
5104.17
5100.53
5097.59
5094.4
5091.83
5089.17
5086.97
5084.55
5082.67
5080.6
5079.09
5077.35
5076.1
5074.69
5073.48
5072.07
5071.17
5070.1
5069.12
5068.29
5067.63
5067.17
5066.6
5066.03
5065.63
5065.34
5064.75
5064.44
5064.33
5064.22
5064.09
5063.81
5063.73
5063.51
5063.73
5063.73
5064.22
5064.23
5064.96
5064.96
5065.84
5065.85
5066.88
5066.99
5068.04
5068.36
5069.5
5069.92
5071.15
5071.66
5073.04
5073.56
5075.22
5075.65
5078.12
5078.69
5114.1
5248.07
110677
8254.97
7557.55
7023.89
6630.89
6341.56
6125.12
5958.92
5828.75
5724.26
5639.39
5568.94
5510.24
5460.26
5417.85
5381.01
5349.33
5321.34
5297.06
5275.26
5256.24
5238.93
5223.79
5209.79
5197.54
5186.1
5176.09
5166.58
5158.28
5150.35
5143.45
5136.72
5130.94
5125.21
5120.33
5115.44
5111.34
5107.1
5103.59
5099.95
5097.01
5093.82
5091.24
5088.58
5086.38
5083.96
5082.08
5080
5078.5
5076.76
5075.5
5074.09
5072.88
5071.47
5070.57
5069.5
5068.52
5067.69
5067.03
5066.57
5065.99
5065.43
5065.02
5064.73
5064.14
5063.84
5063.72
5063.62
5063.49
5063.21
5063.12
5062.9
5063.12
5063.12
5063.61
5063.61
5064.35
5064.35
5065.23
5065.23
5066.27
5066.38
5067.42
5067.74
5068.88
5069.3
5070.53
5071.04
5072.42
5072.94
5074.6
5075.03
5077.5
5078.07
5113.61
5247.49
106893
8254.99
7557.56
7023.83
6630.72
6341.28
6124.74
5958.47
5828.22
5723.68
5638.75
5568.26
5509.52
5459.51
5417.08
5380.21
5348.51
5320.5
5296.2
5274.39
5255.36
5238.04
5222.88
5208.87
5196.61
5185.16
5175.14
5165.63
5157.33
5149.39
5142.48
5135.75
5129.96
5124.23
5119.34
5114.45
5110.35
5106.11
5102.59
5098.95
5096.01
5092.81
5090.24
5087.57
5085.37
5082.94
5081.07
5078.99
5077.48
5075.74
5074.48
5073.07
5071.85
5070.45
5069.54
5068.47
5067.49
5066.66
5066
5065.54
5064.96
5064.39
5063.99
5063.69
5063.11
5062.8
5062.68
5062.57
5062.45
5062.16
5062.08
5061.86
5062.07
5062.07
5062.56
5062.56
5063.3
5063.3
5064.18
5064.18
5065.21
5065.32
5066.36
5066.68
5067.82
5068.24
5069.47
5069.98
5071.36
5071.87
5073.54
5073.97
5076.43
5077.01
5112.76
5246.49
103001
8255.01
7557.58
7023.74
6630.48
6340.89
6124.21
5957.81
5827.47
5722.84
5637.84
5567.29
5508.5
5458.45
5415.97
5379.07
5347.34
5319.3
5294.98
5273.15
5254.1
5236.76
5221.59
5207.57
5195.29
5183.83
5173.8
5164.28
5155.97
5148.02
5141.11
5134.37
5128.58
5122.83
5117.94
5113.05
5108.94
5104.7
5101.17
5097.53
5094.58
5091.38
5088.8
5086.14
5083.93
5081.5
5079.62
5077.54
5076.03
5074.28
5073.03
5071.61
5070.39
5068.98
5068.08
5067.01
5066.02
5065.19
5064.53
5064.06
5063.49
5062.92
5062.51
5062.22
5061.63
5061.32
5061.2
5061.09
5060.96
5060.68
5060.59
5060.37
5060.58
5060.58
5061.07
5061.07
5061.8
5061.8
5062.68
5062.68
5063.71
5063.82
5064.86
5065.18
5066.32
5066.74
5067.96
5068.47
5069.85
5070.36
5072.02
5072.45
5074.91
5075.49
5111.54
5245.07
99107.5
8255.04
7557.6
7023.62
6630.17
6340.37
6123.51
5956.96
5826.49
5721.74
5636.65
5566.03
5507.16
5457.05
5414.53
5377.58
5345.82
5317.74
5293.39
5271.53
5252.46
5235.1
5219.9
5205.87
5193.57
5182.1
5172.06
5162.52
5154.2
5146.24
5139.32
5132.57
5126.76
5121.02
5116.12
5111.21
5107.1
5102.85
5099.32
5095.67
5092.72
5089.52
5086.93
5084.26
5082.05
5079.62
5077.73
5075.65
5074.13
5072.39
5071.13
5069.71
5068.49
5067.08
5066.17
5065.09
5064.11
5063.27
5062.61
5062.14
5061.56
5060.99
5060.58
5060.29
5059.7
5059.39
5059.26
5059.16
5059.03
5058.75
5058.65
5058.43
5058.64
5058.64
5059.12
5059.12
5059.85
5059.85
5060.72
5060.72
5061.75
5061.86
5062.9
5063.22
5064.35
5064.77
5066
5066.5
5067.88
5068.39
5070.05
5070.47
5072.94
5073.51
5109.94
5243.21
95251.3
8255.07
7557.62
7023.48
6629.78
6339.73
6122.65
5955.91
5825.27
5720.39
5635.18
5564.46
5505.51
5455.33
5412.74
5375.74
5343.93
5315.81
5291.42
5269.53
5250.42
5233.03
5217.82
5203.76
5191.44
5179.95
5169.89
5160.34
5152.01
5144.03
5137.1
5130.34
5124.52
5118.76
5113.86
5108.94
5104.82
5100.56
5097.03
5093.37
5090.41
5087.2
5084.61
5081.94
5079.73
5077.29
5075.4
5073.31
5071.79
5070.04
5068.77
5067.35
5066.13
5064.72
5063.8
5062.73
5061.74
5060.9
5060.23
5059.76
5059.18
5058.61
5058.2
5057.9
5057.31
5056.99
5056.87
5056.76
5056.63
5056.35
5056.26
5056.03
5056.23
5056.23
5056.71
5056.71
5057.43
5057.43
5058.3
5058.3
5059.33
5059.43
5060.47
5060.78
5061.92
5062.33
5063.56
5064.06
5065.43
5065.94
5067.6
5068.02
5070.49
5071.05
5107.96
5240.92
91451.8
8255.11
7557.65
7023.31
6629.33
6338.98
6121.62
5954.65
5823.82
5718.78
5633.43
5562.59
5503.54
5453.27
5410.61
5373.54
5341.67
5313.5
5289.07
5267.13
5247.99
5230.57
5215.32
5201.24
5188.9
5177.38
5167.3
5157.73
5149.38
5141.39
5134.44
5127.67
5121.84
5116.07
5111.15
5106.23
5102.09
5097.83
5094.29
5090.62
5087.65
5084.44
5081.84
5079.16
5076.94
5074.5
5072.61
5070.51
5068.99
5067.23
5065.96
5064.53
5063.31
5061.89
5060.97
5059.9
5058.9
5058.06
5057.39
5056.92
5056.34
5055.76
5055.35
5055.05
5054.46
5054.14
5054.01
5053.9
5053.77
5053.48
5053.39
5053.15
5053.35
5053.35
5053.83
5053.83
5054.54
5054.54
5055.4
5055.41
5056.43
5056.53
5057.56
5057.87
5059.01
5059.42
5060.64
5061.14
5062.51
5063.02
5064.67
5065.09
5067.56
5068.12
5105.59
5238.18
87717.5
8255.16
7557.68
7023.12
6628.79
6338.1
6120.43
5953.18
5822.12
5716.89
5631.39
5560.41
5501.24
5450.87
5408.12
5370.97
5339.04
5310.81
5286.32
5264.34
5245.16
5227.7
5212.41
5198.3
5185.93
5174.39
5164.28
5154.69
5146.32
5138.31
5131.34
5124.55
5118.71
5112.93
5108
5103.06
5098.91
5094.64
5091.09
5087.41
5084.44
5081.21
5078.61
5075.92
5073.69
5071.24
5069.35
5067.24
5065.71
5063.95
5062.68
5061.24
5060.02
5058.6
5057.67
5056.59
5055.6
5054.75
5054.07
5053.59
5053.01
5052.43
5052.01
5051.71
5051.12
5050.8
5050.67
5050.55
5050.42
5050.14
5050.04
5049.8
5049.99
5049.99
5050.46
5050.46
5051.17
5051.17
5052.02
5052.02
5053.04
5053.14
5054.17
5054.48
5055.61
5056.02
5057.24
5057.73
5059.1
5059.61
5061.26
5061.68
5064.14
5064.7
5102.84
5235
84051.4
8255.21
7557.72
7022.9
6628.19
6337.09
6119.06
5951.51
5820.19
5714.74
5629.05
5557.91
5498.61
5448.13
5405.27
5368.04
5336.03
5307.72
5283.18
5261.14
5241.91
5224.4
5209.08
5194.93
5182.53
5170.95
5160.82
5151.21
5142.81
5134.78
5127.79
5120.98
5115.13
5109.32
5104.38
5099.43
5095.27
5090.99
5087.42
5083.73
5080.75
5077.52
5074.9
5072.2
5069.97
5067.51
5065.61
5063.5
5061.96
5060.19
5058.91
5057.48
5056.24
5054.82
5053.89
5052.8
5051.81
5050.95
5050.27
5049.79
5049.2
5048.62
5048.2
5047.89
5047.3
5046.97
5046.84
5046.72
5046.59
5046.3
5046.2
5045.95
5046.14
5046.14
5046.6
5046.6
5047.3
5047.3
5048.15
5048.15
5049.16
5049.26
5050.29
5050.59
5051.71
5052.12
5053.33
5053.82
5055.19
5055.69
5057.34
5057.76
5060.22
5060.77
5099.7
5231.36
80451.6
8255.27
7557.76
7022.65
6627.51
6335.96
6117.53
5949.62
5818.01
5712.31
5626.41
5555.1
5495.65
5445.03
5402.06
5364.72
5332.62
5304.24
5279.63
5257.53
5238.24
5220.68
5205.32
5191.12
5178.69
5167.08
5156.92
5147.27
5138.85
5130.79
5123.78
5116.95
5111.08
5105.26
5100.3
5095.33
5091.16
5086.86
5083.28
5079.58
5076.58
5073.34
5070.72
5068.01
5065.77
5063.3
5061.39
5059.27
5057.72
5055.95
5054.66
5053.22
5051.98
5050.55
5049.61
5048.52
5047.52
5046.66
5045.98
5045.48
5044.9
5044.31
5043.88
5043.58
5042.99
5042.65
5042.51
5042.39
5042.25
5041.97
5041.87
5041.61
5041.79
5041.79
5042.24
5042.24
5042.93
5042.93
5043.77
5043.77
5044.78
5044.87
5045.89
5046.19
5047.31
5047.71
5048.93
5049.41
5050.78
5051.27
5052.92
5053.33
5055.79
5056.34
5096.16
5227.26
76912.3
8255.33
7557.81
7022.38
6626.75
6334.71
6115.82
5947.53
5815.58
5709.61
5623.47
5551.96
5492.34
5441.57
5398.47
5361.02
5328.83
5300.36
5275.66
5253.49
5234.15
5216.53
5201.12
5186.87
5174.4
5162.75
5152.55
5142.87
5134.42
5126.33
5119.31
5112.45
5106.55
5100.71
5095.73
5090.75
5086.56
5082.24
5078.66
5074.94
5071.93
5068.68
5066.04
5063.32
5061.07
5058.59
5056.67
5054.54
5052.99
5051.21
5049.91
5048.46
5047.22
5045.78
5044.84
5043.74
5042.74
5041.87
5041.18
5040.68
5040.09
5039.5
5039.07
5038.75
5038.16
5037.82
5037.68
5037.55
5037.41
5037.13
5037.02
5036.76
5036.93
5036.93
5037.36
5037.36
5038.05
5038.05
5038.88
5038.88
5039.88
5039.97
5040.99
5041.28
5042.4
5042.79
5044
5044.48
5045.84
5046.34
5047.98
5048.38
5050.84
5051.39
5092.22
5222.69
73428.2
8255.41
7557.87
7022.08
6625.93
6333.33
6113.94
5945.21
5812.91
5706.62
5620.23
5548.49
5488.68
5437.75
5394.51
5356.94
5324.63
5296.06
5271.28
5249.03
5229.62
5211.94
5196.47
5182.17
5169.65
5157.96
5147.73
5138.01
5129.53
5121.41
5114.35
5107.47
5101.55
5095.69
5090.69
5085.68
5081.47
5077.14
5073.54
5069.8
5066.78
5063.51
5060.87
5058.13
5055.87
5053.38
5051.45
5049.31
5047.75
5045.96
5044.65
5043.19
5041.95
5040.5
5039.55
5038.45
5037.44
5036.57
5035.87
5035.36
5034.77
5034.17
5033.73
5033.42
5032.83
5032.48
5032.33
5032.19
5032.06
5031.77
5031.66
5031.39
5031.56
5031.55
5031.97
5031.97
5032.64
5032.64
5033.46
5033.46
5034.46
5034.54
5035.56
5035.84
5036.96
5037.35
5038.55
5039.03
5040.38
5040.87
5042.51
5042.9
5045.36
5045.91
5087.87
5217.65
70005.8
8255.48
7557.93
7021.76
6625.03
6331.82
6111.88
5942.68
5809.98
5703.35
5616.68
5544.69
5484.67
5433.56
5390.17
5352.45
5320.02
5291.35
5266.48
5244.14
5224.65
5206.9
5191.37
5177.02
5164.45
5152.71
5142.43
5132.67
5124.16
5116
5108.91
5102
5096.06
5090.17
5085.14
5080.12
5075.89
5071.54
5067.92
5064.17
5061.13
5057.85
5055.19
5052.44
5050.17
5047.67
5045.72
5043.57
5042
5040.2
5038.88
5037.41
5036.16
5034.71
5033.75
5032.64
5031.63
5030.75
5030.04
5029.52
5028.93
5028.32
5027.88
5027.56
5026.97
5026.61
5026.45
5026.31
5026.18
5025.89
5025.77
5025.49
5025.65
5025.64
5026.05
5026.05
5026.71
5026.71
5027.52
5027.52
5028.5
5028.58
5029.59
5029.87
5030.98
5031.37
5032.56
5033.04
5034.38
5034.87
5036.5
5036.89
5039.35
5039.9
5083.11
5212.13
66651.1
8255.57
7558
7021.42
6624.06
6330.19
6109.65
5939.94
5806.79
5699.8
5612.81
5540.56
5480.31
5429
5385.43
5347.57
5315.01
5286.22
5261.24
5238.81
5219.24
5201.41
5185.81
5171.4
5158.77
5146.98
5136.66
5126.85
5118.3
5110.11
5102.99
5096.04
5090.07
5084.15
5079.1
5074.05
5069.8
5065.43
5061.79
5058.02
5054.96
5051.66
5048.99
5046.22
5043.94
5041.43
5039.47
5037.31
5035.73
5033.91
5032.59
5031.11
5029.85
5028.39
5027.42
5026.31
5025.28
5024.39
5023.68
5023.15
5022.55
5021.94
5021.49
5021.16
5020.57
5020.2
5020.04
5019.9
5019.76
5019.47
5019.35
5019.06
5019.21
5019.19
5019.59
5019.59
5020.24
5020.24
5021.03
5021.03
5022.01
5022.08
5023.09
5023.36
5024.46
5024.84
5026.03
5026.5
5027.84
5028.32
5029.94
5030.33
5032.79
5033.33
5077.94
5206.12
63369.8
8255.66
7558.08
7021.05
6623.01
6328.43
6107.25
5936.97
5803.35
5695.96
5608.63
5536.09
5475.59
5424.06
5380.31
5342.28
5309.58
5280.66
5255.56
5233.03
5213.37
5195.46
5179.79
5165.31
5152.62
5140.77
5130.39
5120.55
5111.95
5103.71
5096.56
5089.58
5083.57
5077.62
5072.55
5067.47
5063.2
5058.8
5055.14
5051.35
5048.28
5044.96
5042.27
5039.49
5037.19
5034.66
5032.7
5030.52
5028.92
5027.09
5025.76
5024.27
5023
5021.53
5020.55
5019.43
5018.4
5017.5
5016.77
5016.24
5015.64
5015.02
5014.56
5014.23
5013.64
5013.26
5013.09
5012.94
5012.8
5012.51
5012.38
5012.08
5012.22
5012.2
5012.59
5012.58
5013.21
5013.21
5014
5014
5014.96
5015.03
5016.03
5016.29
5017.39
5017.76
5018.95
5019.41
5020.74
5021.22
5022.83
5023.21
5025.67
5026.22
5072.33
5199.62
60167.1
8255.75
7558.16
7020.66
6621.9
6326.55
6104.67
5933.78
5799.65
5691.82
5604.12
5531.27
5470.5
5418.74
5374.79
5336.58
5303.72
5274.66
5249.45
5226.8
5207.04
5189.05
5173.29
5158.73
5145.98
5134.07
5123.64
5113.74
5105.09
5096.82
5089.62
5082.6
5076.56
5070.58
5065.48
5060.37
5056.07
5051.65
5047.97
5044.15
5041.06
5037.73
5035.01
5032.21
5029.9
5027.36
5025.38
5023.19
5021.58
5019.74
5018.39
5016.89
5015.61
5014.13
5013.14
5012.01
5010.97
5010.06
5009.33
5008.78
5008.17
5007.55
5007.08
5006.74
5006.15
5005.76
5005.59
5005.42
5005.28
5004.99
5004.86
5004.55
5004.68
5004.65
5005.02
5005.02
5005.63
5005.63
5006.4
5006.4
5007.36
5007.42
5008.41
5008.67
5009.76
5010.12
5011.3
5011.75
5013.08
5013.55
5015.16
5015.53
5017.99
5018.53
5066.29
5192.61
57047.9
8255.85
7558.25
7020.25
6620.71
6324.55
6101.91
5930.38
5795.69
5687.4
5599.3
5526.11
5465.05
5413.04
5368.86
5330.46
5297.44
5268.23
5242.88
5220.12
5200.25
5182.16
5166.32
5151.68
5138.85
5126.87
5116.39
5106.43
5097.73
5089.41
5082.17
5075.11
5069.03
5063.02
5057.88
5052.74
5048.42
5043.97
5040.26
5036.42
5033.31
5029.95
5027.22
5024.4
5022.07
5019.51
5017.52
5015.31
5013.69
5011.83
5010.46
5008.95
5007.67
5006.18
5005.18
5004.04
5002.99
5002.07
5001.32
5000.76
5000.15
4999.52
4999.04
4998.7
4998.1
4997.7
4997.52
4997.35
4997.21
4996.91
4996.78
4996.46
4996.57
4996.54
4996.89
4996.89
4997.49
4997.49
4998.24
4998.24
4999.18
4999.24
5000.22
5000.47
5001.55
5001.91
5003.08
5003.53
5004.85
5005.31
5006.91
5007.27
5009.74
5010.28
5059.81
5185.08
54016.5
8255.96
7558.35
7019.82
6619.46
6322.42
6098.98
5926.75
5791.47
5682.67
5594.15
5520.6
5459.23
5406.94
5362.54
5323.93
5290.72
5261.35
5235.86
5212.97
5192.98
5174.79
5158.85
5144.13
5131.23
5119.18
5108.62
5098.61
5089.86
5081.48
5074.2
5067.09
5060.98
5054.92
5049.75
5044.58
5040.22
5035.74
5032.01
5028.15
5025.01
5021.63
5018.88
5016.04
5013.69
5011.11
5009.1
5006.88
5005.24
5003.37
5001.99
5000.46
4999.17
4997.67
4996.65
4995.5
4994.45
4993.51
4992.75
4992.18
4991.56
4990.92
4990.44
4990.08
4989.49
4989.08
4988.89
4988.71
4988.56
4988.26
4988.12
4987.79
4987.9
4987.85
4988.19
4988.19
4988.77
4988.77
4989.5
4989.5
4990.43
4990.48
4991.46
4991.69
4992.77
4993.11
4994.28
4994.72
4996.03
4996.49
4998.08
4998.43
5000.89
5001.44
5052.87
5177.03
51077.2
8256.07
7558.46
7019.37
6618.13
6320.17
6095.87
5922.9
5786.99
5677.66
5588.68
5514.73
5453.03
5400.46
5355.8
5316.97
5283.57
5254.02
5228.38
5205.35
5185.24
5166.93
5150.9
5136.08
5123.1
5110.97
5100.35
5090.27
5081.46
5073.03
5065.69
5058.54
5052.38
5046.29
5041.08
5035.87
5031.48
5026.97
5023.21
5019.32
5016.15
5012.75
5009.98
5007.11
5004.75
5002.15
5000.13
4997.88
4996.22
4994.34
4992.94
4991.4
4990.1
4988.58
4987.55
4986.39
4985.33
4984.38
4983.61
4983.03
4982.4
4981.75
4981.25
4980.89
4980.29
4979.87
4979.67
4979.48
4979.33
4979.03
4978.89
4978.55
4978.64
4978.58
4978.9
4978.9
4979.46
4979.46
4980.18
4980.18
4981.09
4981.13
4982.1
4982.32
4983.39
4983.73
4984.89
4985.32
4986.62
4987.07
4988.65
4989
4991.46
4992.01
5045.47
5168.44
48233.8
8256.18
7558.58
7018.9
6616.74
6317.8
6092.59
5918.83
5782.25
5672.34
5582.88
5508.52
5446.46
5393.57
5348.64
5309.58
5275.97
5246.24
5220.43
5197.25
5177.02
5158.59
5142.45
5127.53
5114.46
5102.25
5091.56
5081.4
5072.53
5064.04
5056.65
5049.45
5043.25
5037.11
5031.86
5026.61
5022.19
5017.65
5013.86
5009.93
5006.74
5003.31
5000.52
4997.63
4995.25
4992.63
4990.58
4988.31
4986.64
4984.73
4983.32
4981.76
4980.45
4978.92
4977.88
4976.71
4975.63
4974.67
4973.89
4973.29
4972.65
4971.99
4971.49
4971.11
4970.52
4970.08
4969.87
4969.67
4969.52
4969.21
4969.06
4968.72
4968.79
4968.72
4969.03
4969.02
4969.56
4969.56
4970.26
4970.26
4971.16
4971.19
4972.15
4972.36
4973.42
4973.75
4974.9
4975.32
4976.61
4977.06
4978.63
4978.96
4981.43
4981.98
5037.59
5159.3
45489.6
8256.31
7558.7
7018.42
6615.29
6315.3
6089.14
5914.54
5777.24
5666.73
5576.75
5501.95
5439.51
5386.29
5341.08
5301.76
5267.93
5238
5212.02
5188.68
5168.3
5149.75
5133.49
5118.47
5105.3
5093.01
5082.23
5072.01
5063.07
5054.51
5047.07
5039.82
5033.56
5027.38
5022.09
5016.8
5012.34
5007.76
5003.94
4999.98
4996.76
4993.3
4990.48
4987.56
4985.16
4982.52
4980.45
4978.17
4976.47
4974.55
4973.12
4971.54
4970.22
4968.68
4967.61
4966.43
4965.35
4964.37
4963.57
4962.96
4962.31
4961.65
4961.13
4960.74
4960.14
4959.7
4959.48
4959.26
4959.11
4958.79
4958.64
4958.29
4958.35
4958.27
4958.55
4958.55
4959.06
4959.06
4959.74
4959.74
4960.62
4960.65
4961.6
4961.8
4962.85
4963.16
4964.3
4964.71
4965.99
4966.43
4967.99
4968.32
4970.78
4971.34
5029.23
5149.59
42847.7
8256.43
7558.84
7017.92
6613.78
6312.69
6085.52
5910.03
5771.97
5660.81
5570.29
5495.01
5432.17
5378.61
5333.09
5293.5
5259.43
5229.29
5203.13
5179.62
5159.1
5140.4
5124.03
5108.9
5095.63
5083.24
5072.38
5062.07
5053.07
5044.44
5036.94
5029.63
5023.32
5017.08
5011.75
5006.41
5001.92
4997.3
4993.44
4989.45
4986.2
4982.72
4979.87
4976.92
4974.5
4971.83
4969.74
4967.44
4965.72
4963.77
4962.32
4960.73
4959.39
4957.84
4956.76
4955.56
4954.47
4953.48
4952.66
4952.03
4951.38
4950.7
4950.17
4949.77
4949.17
4948.71
4948.48
4948.25
4948.09
4947.77
4947.62
4947.26
4947.3
4947.2
4947.47
4947.46
4947.95
4947.95
4948.6
4948.61
4949.47
4949.49
4950.43
4950.61
4951.66
4951.96
4953.09
4953.49
4954.76
4955.19
4956.74
4957.05
4959.52
4960.08
5020.36
5139.29
40310.8
8256.56
7558.98
7017.4
6612.2
6309.97
6081.72
5905.3
5766.44
5654.6
5563.5
5487.73
5424.46
5370.52
5324.67
5284.8
5250.49
5220.12
5193.76
5170.08
5149.39
5130.55
5114.05
5098.8
5085.42
5072.93
5061.99
5051.6
5042.52
5033.82
5026.25
5018.88
5012.52
5006.23
5000.85
4995.46
4990.93
4986.26
4982.37
4978.34
4975.06
4971.55
4968.67
4965.69
4963.24
4960.55
4958.44
4956.11
4954.37
4952.4
4950.93
4949.32
4947.97
4946.4
4945.3
4944.09
4942.98
4941.97
4941.14
4940.49
4939.83
4939.14
4938.6
4938.19
4937.59
4937.11
4936.87
4936.63
4936.46
4936.13
4935.98
4935.61
4935.64
4935.52
4935.77
4935.76
4936.23
4936.23
4936.85
4936.86
4937.7
4937.71
4938.64
4938.81
4939.84
4940.14
4941.25
4941.64
4942.9
4943.32
4944.86
4945.16
4947.63
4948.2
5010.96
5128.38
37881.3
8256.69
7559.13
7016.88
6610.56
6307.13
6077.76
5900.35
5760.65
5648.09
5556.38
5480.08
5416.36
5362.02
5315.84
5275.66
5241.08
5210.48
5183.91
5160.04
5139.19
5120.19
5103.56
5088.18
5074.69
5062.09
5051.05
5040.57
5031.41
5022.64
5015.01
5007.56
5001.15
4994.8
4989.37
4983.93
4979.35
4974.65
4970.72
4966.65
4963.33
4959.78
4956.87
4953.86
4951.39
4948.67
4946.54
4944.18
4942.42
4940.43
4938.93
4937.3
4935.94
4934.35
4933.23
4932
4930.88
4929.86
4929.02
4928.34
4927.67
4926.97
4926.41
4925.99
4925.38
4924.89
4924.64
4924.38
4924.22
4923.88
4923.72
4923.35
4923.35
4923.22
4923.45
4923.44
4923.88
4923.88
4924.48
4924.48
4925.3
4925.31
4926.23
4926.38
4927.4
4927.68
4928.78
4929.16
4930.41
4930.82
4932.35
4932.64
4935.1
4935.69
5001.02
5116.86
35561.3
8256.83
7559.3
7016.34
6608.87
6304.18
6073.63
5895.19
5754.6
5641.28
5548.92
5472.07
5407.87
5353.12
5306.57
5266.08
5231.22
5200.37
5173.58
5149.5
5128.48
5109.32
5092.54
5077.02
5063.42
5050.71
5039.57
5028.99
5019.75
5010.89
5003.19
4995.68
4989.2
4982.79
4977.31
4971.82
4967.19
4962.44
4958.47
4954.36
4951
4947.42
4944.48
4941.44
4938.94
4936.19
4934.03
4931.64
4929.86
4927.84
4926.33
4924.67
4923.29
4921.68
4920.54
4919.3
4918.17
4917.13
4916.27
4915.57
4914.89
4914.17
4913.6
4913.17
4912.56
4912.05
4911.79
4911.51
4911.34
4911
4910.83
4910.46
4910.44
4910.29
4910.5
4910.48
4910.89
4910.89
4911.47
4911.47
4912.27
4912.27
4913.17
4913.31
4914.32
4914.58
4915.68
4916.05
4917.28
4917.68
4919.19
4919.47
4921.94
4922.54
4990.48
5104.71
33352.4
8256.97
7559.47
7015.79
6607.12
6301.12
6069.35
5889.81
5748.3
5634.18
5541.14
5463.7
5398.99
5343.8
5296.88
5256.05
5220.89
5189.78
5162.75
5138.47
5117.26
5097.93
5080.99
5065.34
5051.6
5038.77
5027.53
5016.86
5007.52
4998.58
4990.8
4983.21
4976.67
4970.2
4964.66
4959.11
4954.44
4949.64
4945.62
4941.47
4938.08
4934.45
4931.48
4928.4
4925.87
4923.09
4920.91
4918.49
4916.68
4914.64
4913.1
4911.42
4910.02
4908.4
4907.24
4905.98
4904.83
4903.77
4902.89
4902.17
4901.48
4900.75
4900.16
4899.71
4899.1
4898.58
4898.3
4898.01
4897.83
4897.48
4897.3
4896.93
4896.89
4896.73
4896.91
4896.89
4897.27
4897.27
4897.82
4897.82
4898.59
4898.59
4899.47
4899.6
4900.59
4900.84
4901.92
4902.28
4903.5
4903.89
4905.39
4905.65
4908.12
4908.73
4979.31
5091.93
31256.2
8257.12
7559.66
7015.23
6605.33
6297.96
6064.9
5884.22
5741.73
5626.78
5533.02
5454.96
5389.73
5334.08
5286.76
5245.57
5210.1
5178.71
5151.44
5126.93
5105.52
5086.01
5068.91
5053.11
5039.24
5026.29
5014.93
5004.15
4994.73
4985.69
4977.83
4970.17
4963.56
4957.02
4951.42
4945.81
4941.08
4936.23
4932.17
4927.97
4924.54
4920.88
4917.87
4914.75
4912.19
4909.38
4907.17
4904.72
4902.88
4900.82
4899.25
4897.54
4896.13
4894.48
4893.3
4892.02
4890.86
4889.78
4888.88
4888.14
4887.44
4886.69
4886.09
4885.62
4885
4884.46
4884.17
4883.87
4883.68
4883.32
4883.14
4882.76
4882.71
4882.51
4882.68
4882.65
4883
4883
4883.52
4883.52
4884.26
4884.26
4885.12
4885.23
4886.22
4886.45
4887.52
4887.86
4889.07
4889.45
4890.93
4891.18
4893.64
4894.27
4967.47
5078.51
29273.9
8257.26
7559.86
7014.66
6603.48
6294.69
6060.29
5878.43
5734.91
5619.08
5524.58
5445.87
5380.09
5323.95
5276.2
5234.64
5198.85
5167.16
5139.63
5114.89
5093.27
5073.57
5056.3
5040.34
5026.33
5013.25
5001.77
4990.88
4981.36
4972.23
4964.29
4956.54
4949.86
4943.24
4937.58
4931.91
4927.13
4922.22
4918.12
4913.87
4910.39
4906.69
4903.64
4900.48
4897.89
4895.04
4892.8
4890.33
4888.46
4886.36
4884.76
4883.03
4881.6
4879.93
4878.73
4877.43
4876.25
4875.15
4874.23
4873.47
4872.75
4871.99
4871.37
4870.88
4870.26
4869.7
4869.4
4869.07
4868.88
4868.51
4868.32
4867.94
4867.87
4867.65
4867.8
4867.76
4868.08
4868.08
4868.57
4868.57
4869.27
4869.27
4870.12
4870.21
4871.18
4871.4
4872.45
4872.78
4873.97
4874.34
4875.8
4876.04
4878.5
4879.15
4954.91
5064.4
27406.5
8257.41
7560.06
7014.09
6601.59
6291.33
6055.53
5872.43
5727.85
5611.09
5515.8
5436.42
5370.05
5313.41
5265.21
5223.26
5187.13
5155.13
5127.33
5102.34
5080.5
5060.6
5043.15
5027.03
5012.87
4999.64
4988.05
4977.04
4967.41
4958.18
4950.15
4942.32
4935.56
4928.87
4923.14
4917.41
4912.57
4907.6
4903.44
4899.14
4895.62
4891.87
4888.79
4885.58
4882.96
4880.08
4877.8
4875.3
4873.39
4871.27
4869.65
4867.88
4866.43
4864.74
4863.51
4862.19
4861
4859.87
4858.93
4858.14
4857.41
4856.63
4856
4855.49
4854.87
4854.29
4853.97
4853.63
4853.42
4853.04
4852.85
4852.46
4852.37
4852.14
4852.26
4852.21
4852.5
4852.5
4852.96
4852.95
4853.62
4853.63
4854.45
4854.53
4855.48
4855.68
4856.72
4857.03
4858.2
4858.56
4860.01
4860.23
4862.69
4863.36
4941.58
5049.57
25655.2
8257.56
7560.28
7013.52
6599.66
6287.87
6050.62
5866.23
5720.53
5602.82
5506.71
5426.62
5359.64
5302.45
5253.8
5211.43
5174.94
5142.61
5114.53
5089.28
5067.21
5047.1
5029.47
5013.16
4998.86
4985.48
4973.76
4962.63
4952.89
4943.55
4935.43
4927.5
4920.66
4913.89
4908.1
4902.29
4897.39
4892.37
4888.16
4883.8
4880.23
4876.43
4873.3
4870.06
4867.4
4864.48
4862.17
4859.63
4857.7
4855.54
4853.88
4852.09
4850.62
4848.91
4847.65
4846.31
4845.1
4843.94
4842.98
4842.17
4841.42
4840.63
4839.97
4839.45
4838.82
4838.22
4837.88
4837.52
4837.31
4836.91
4836.72
4836.32
4836.22
4835.96
4836.06
4835.99
4836.26
4836.25
4836.68
4836.67
4837.31
4837.31
4838.11
4838.17
4839.1
4839.29
4840.31
4840.6
4841.76
4842.11
4843.54
4843.75
4846.21
4846.89
4927.42
5033.97
24020.6
8257.72
7560.51
7012.95
6597.69
6284.32
6045.57
5859.84
5712.97
5594.26
5497.29
5416.45
5348.83
5291.09
5241.95
5199.15
5162.28
5129.62
5101.23
5075.71
5053.4
5033.07
5015.24
4998.75
4984.28
4970.75
4958.89
4947.63
4937.78
4928.33
4920.11
4912.09
4905.16
4898.31
4892.44
4886.56
4881.6
4876.51
4872.24
4867.83
4864.21
4860.37
4857.19
4853.9
4851.2
4848.24
4845.9
4843.32
4841.35
4839.16
4837.48
4835.65
4834.16
4832.42
4831.13
4829.77
4828.54
4827.36
4826.38
4825.54
4824.78
4823.96
4823.29
4822.74
4822.11
4821.49
4821.13
4820.75
4820.53
4820.12
4819.92
4819.51
4819.4
4819.12
4819.2
4819.11
4819.34
4819.33
4819.72
4819.72
4820.32
4820.32
4821.09
4821.14
4822.05
4822.22
4823.22
4823.5
4824.64
4824.98
4826.39
4826.58
4829.04
4829.74
4912.38
5017.56
22500.7
8257.87
7560.75
7012.37
6595.68
6280.69
6040.38
5853.25
5705.17
5585.41
5487.55
5405.94
5337.65
5279.32
5229.67
5186.42
5149.15
5116.14
5087.44
5061.63
5039.07
5018.5
5000.47
4983.79
4969.15
4955.46
4943.45
4932.06
4922.08
4912.52
4904.19
4896.07
4889.06
4882.12
4876.17
4870.22
4865.18
4860.03
4855.7
4851.23
4847.56
4843.66
4840.44
4837.1
4834.36
4831.36
4828.98
4826.36
4824.36
4822.13
4820.42
4818.56
4817.04
4815.28
4813.96
4812.57
4811.32
4810.12
4809.12
4808.24
4807.46
4806.63
4805.94
4805.37
4804.73
4804.09
4803.72
4803.31
4803.08
4802.65
4802.45
4802.03
4801.9
4801.6
4801.66
4801.55
4801.76
4801.74
4802.09
4802.09
4802.65
4802.65
4803.39
4803.43
4804.32
4804.46
4805.45
4805.71
4806.84
4807.16
4808.55
4808.73
4811.18
4811.9
4896.43
5000.3
21090.8
8258.02
7561.01
7011.8
6593.64
6276.98
6035.06
5846.47
5697.14
5576.29
5477.49
5395.08
5326.09
5267.15
5216.97
5173.25
5135.56
5102.17
5073.15
5047.04
5024.22
5003.4
4985.15
4968.27
4953.45
4939.59
4927.44
4915.9
4905.8
4896.11
4887.68
4879.45
4872.35
4865.32
4859.29
4853.25
4848.15
4842.92
4838.54
4834
4830.27
4826.32
4823.05
4819.66
4816.88
4813.83
4811.42
4808.76
4806.72
4804.45
4802.7
4800.81
4799.26
4797.47
4796.13
4794.71
4793.44
4792.21
4791.18
4790.28
4789.48
4788.62
4787.92
4787.32
4786.67
4786.01
4785.62
4785.19
4784.95
4784.51
4784.3
4783.87
4783.73
4783.41
4783.44
4783.32
4783.49
4783.47
4783.78
4783.78
4784.3
4784.29
4785
4785.03
4785.9
4786.02
4787
4787.24
4788.34
4788.65
4790.02
4790.18
4792.63
4793.36
4879.57
4982.14
19786
8258.18
7561.27
7011.24
6591.57
6273.19
6029.6
5839.52
5688.88
5566.9
5467.13
5383.87
5314.16
5254.58
5203.84
5159.63
5121.51
5087.73
5058.36
5031.94
5008.84
4987.77
4969.29
4952.2
4937.2
4923.16
4910.85
4899.16
4888.93
4879.11
4870.56
4862.23
4855.02
4847.9
4841.79
4835.66
4830.49
4825.19
4820.74
4816.13
4812.35
4808.34
4805.02
4801.57
4798.74
4795.66
4793.2
4790.5
4788.42
4786.11
4784.33
4782.4
4780.82
4779.01
4777.63
4776.19
4774.9
4773.64
4772.58
4771.65
4770.83
4769.95
4769.22
4768.6
4767.94
4767.26
4766.85
4766.4
4766.14
4765.69
4765.46
4765.02
4764.87
4764.55
4764.55
4764.4
4764.55
4764.51
4764.78
4764.78
4765.26
4765.25
4765.93
4765.94
4766.78
4766.89
4767.84
4768.07
4769.15
4769.44
4770.79
4770.94
4773.38
4774.13
4861.77
4963.05
18581.1
8258.33
7561.55
7010.68
6589.48
6269.33
6024.02
5832.39
5680.39
5557.24
5456.46
5372.32
5301.85
5241.61
5190.29
5145.56
5106.99
5072.81
5043.08
5016.33
4992.94
4971.61
4952.89
4935.58
4920.38
4906.15
4893.68
4881.84
4871.46
4861.51
4852.85
4844.39
4837.09
4829.86
4823.66
4817.45
4812.2
4806.82
4802.3
4797.63
4793.78
4789.71
4786.34
4782.84
4779.96
4776.83
4774.33
4771.58
4769.46
4767.12
4765.29
4763.32
4761.72
4759.87
4758.47
4756.99
4755.68
4754.39
4753.31
4752.34
4751.51
4750.6
4749.85
4749.2
4748.53
4747.83
4747.4
4746.92
4746.65
4746.18
4745.95
4745.49
4745.33
4745
4744.97
4744.79
4744.91
4744.86
4745.1
4745.09
4745.52
4745.52
4746.16
4746.16
4746.98
4747.07
4748
4748.2
4749.26
4749.54
4750.86
4751
4753.42
4754.19
4843.04
4942.98
17470.6
8258.49
7561.84
7010.12
6587.37
6265.4
6018.33
5825.09
5671.69
5547.32
5445.49
5360.44
5289.18
5228.24
5176.32
5131.05
5092.01
5057.4
5027.3
5000.22
4976.52
4954.91
4935.95
4918.41
4903
4888.58
4875.93
4863.93
4853.41
4843.32
4834.53
4825.95
4818.54
4811.21
4804.92
4798.62
4793.28
4787.82
4783.23
4778.49
4774.58
4770.45
4767.02
4763.45
4760.53
4757.34
4754.8
4752.01
4749.84
4747.46
4745.59
4743.58
4741.95
4740.07
4738.63
4737.12
4735.79
4734.47
4733.36
4732.36
4731.5
4730.57
4729.8
4729.12
4728.44
4727.71
4727.27
4726.76
4726.48
4725.99
4725.74
4725.28
4725.1
4724.75
4724.7
4724.5
4724.59
4724.52
4724.73
4724.7
4725.09
4725.09
4725.69
4725.69
4726.47
4726.54
4727.45
4727.63
4728.67
4728.93
4730.23
4730.35
4732.77
4733.54
4823.35
4921.9
16449
8258.64
7562.14
7009.58
6585.24
6261.42
6012.53
5817.64
5662.78
5537.15
5434.23
5348.23
5276.15
5214.49
5161.94
5116.11
5076.58
5041.53
5011.04
4983.6
4959.59
4937.68
4918.46
4900.68
4885.06
4870.44
4857.61
4845.43
4834.76
4824.52
4815.61
4806.91
4799.38
4791.94
4785.55
4779.15
4773.73
4768.19
4763.52
4758.7
4754.73
4750.53
4747.04
4743.41
4740.44
4737.2
4734.61
4731.77
4729.56
4727.13
4725.23
4723.18
4721.51
4719.6
4718.13
4716.58
4715.22
4713.87
4712.74
4711.69
4710.81
4709.85
4709.06
4708.35
4707.67
4706.91
4706.45
4705.91
4705.61
4705.11
4704.85
4704.37
4704.18
4703.81
4703.74
4703.51
4703.58
4703.49
4703.66
4703.62
4703.97
4703.97
4704.51
4704.51
4705.26
4705.31
4706.2
4706.36
4707.38
4707.61
4708.89
4708.99
4711.4
4712.18
4802.7
4899.77
15510.5
8258.79
7562.46
7009.05
6583.1
6257.39
6006.62
5810.02
5653.67
5526.73
5422.68
5335.7
5262.76
5200.35
5147.15
5100.74
5060.7
5025.18
4994.28
4966.47
4942.13
4919.93
4900.44
4882.4
4866.56
4851.73
4838.71
4826.36
4815.53
4805.14
4796.08
4787.25
4779.61
4772.05
4765.56
4759.06
4753.55
4747.92
4743.18
4738.28
4734.23
4729.97
4726.42
4722.73
4719.7
4716.41
4713.77
4710.87