/*--------------------------------*- C++ -*----------------------------------*\
| =========                 |                                                 |
| \\      /  F ield         | OpenFOAM: The Open Source CFD Toolbox           |
|  \\    /   O peration     | Version:  v2012                                 |
|   \\  /    A nd           | Website:  www.openfoam.com                      |
|    \\/     M anipulation  |                                                 |
\*---------------------------------------------------------------------------*/
FoamFile
{
    version     2.0;
    format      ascii;
    class       volScalarField;
    location    "27";
    object      yPlus;
}
// * * * * * * * * * * * * * * * * * * * * * * * * * * * * * * * * * * * * * //

dimensions      [0 0 0 0 0 0 0];


internalField   uniform 0;

boundaryField
{
    inlet
    {
        type            calculated;
        value           uniform 0;
    }
    outlet
    {
        type            calculated;
        value           uniform 0;
    }
    topWall
    {
        type            calculated;
        value           nonuniform List<scalar> 
545
(
0.110694
0.190883
0.244881
0.287852
0.324229
0.356059
0.384489
0.410243
0.433813
0.455553
0.475727
0.494541
0.512158
0.528709
0.544304
0.559034
0.572977
0.5862
0.598761
0.610711
0.622094
0.63295
0.643315
0.653221
0.662697
0.671768
0.680458
0.688791
0.696784
0.704458
0.711828
0.718911
0.725722
0.732273
0.738577
0.744647
0.750494
0.756126
0.761556
0.76679
0.771839
0.77671
0.781411
0.785949
0.790331
0.794563
0.798652
0.802603
0.806422
0.810114
0.813683
0.817136
0.820476
0.823707
0.826834
0.82986
0.832789
0.835626
0.838372
0.841032
0.843609
0.846105
0.848523
0.850867
0.853138
0.855339
0.857473
0.859542
0.861549
0.863494
0.865381
0.867211
0.868963
0.870658
0.872339
0.874008
0.875662
0.877304
0.878933
0.880548
0.882151
0.883741
0.885319
0.886884
0.888437
0.889978
0.891507
0.893024
0.894529
0.896022
0.897504
0.898974
0.900433
0.901881
0.903317
0.904743
0.906027
0.907175
0.908324
0.909472
0.91062
0.911767
0.912915
0.914062
0.915209
0.916356
0.917502
0.918648
0.919794
0.92094
0.922086
0.923231
0.924376
0.92552
0.926664
0.927808
0.928952
0.930095
0.931238
0.932381
0.933523
0.934665
0.935806
0.936948
0.938088
0.939229
0.940369
0.941508
0.942647
0.943786
0.944924
0.946062
0.947199
0.948336
0.949473
0.950609
0.951744
0.952879
0.954014
0.955148
0.956281
0.957414
0.958546
0.959678
0.960809
0.96194
0.96307
0.9642
0.965329
0.966457
0.967585
0.968712
0.969839
0.970965
0.97209
0.973214
0.974338
0.975461
0.976584
0.977706
0.978827
0.979947
0.981067
0.982186
0.983304
0.984422
0.985538
0.986654
0.987769
0.988884
0.989997
0.99111
0.992222
0.993333
0.994443
0.995552
0.996661
0.997768
0.998875
0.999981
1.00109
1.00219
1.00329
1.00439
1.0055
1.0066
1.00769
1.00879
1.00989
1.01099
1.01208
1.01318
1.01427
1.01536
1.01645
1.01754
1.01863
1.01972
1.0208
1.02189
1.02297
1.02406
1.02514
1.02622
1.0273
1.02838
1.02945
1.03053
1.0316
1.03268
1.03375
1.03482
1.03589
1.03696
1.03802
1.03909
1.04015
1.04122
1.04228
1.04334
1.0444
1.04545
1.04651
1.04756
1.04862
1.04967
1.05072
1.05177
1.05281
1.05386
1.0549
1.05594
1.05698
1.05802
1.05906
1.0601
1.06113
1.06216
1.0632
1.06423
1.06525
1.06628
1.0673
1.06833
1.06935
1.07037
1.07138
1.0724
1.07341
1.07443
1.07544
1.07644
1.07745
1.07846
1.07946
1.08046
1.08146
1.08246
1.08345
1.08444
1.08544
1.08643
1.08741
1.0884
1.08938
1.09036
1.09134
1.09232
1.09329
1.09421
1.09508
1.09595
1.09683
1.09771
1.0986
1.0995
1.1004
1.10131
1.10222
1.10314
1.10407
1.105
1.10593
1.10688
1.10782
1.10878
1.10974
1.1107
1.11167
1.11265
1.11363
1.11461
1.11561
1.1166
1.11761
1.11861
1.11963
1.12065
1.12167
1.1227
1.12373
1.12477
1.12581
1.12686
1.12792
1.12897
1.13004
1.1311
1.13217
1.13325
1.13433
1.13541
1.1365
1.1376
1.13869
1.13979
1.1409
1.142
1.14311
1.14423
1.14535
1.14647
1.14759
1.14872
1.14985
1.15098
1.15211
1.15325
1.15439
1.15553
1.15667
1.15781
1.15896
1.16011
1.16126
1.16241
1.16356
1.16471
1.16586
1.16701
1.16816
1.16931
1.17046
1.17161
1.17276
1.17391
1.17506
1.1762
1.17735
1.17849
1.17963
1.18077
1.1819
1.18304
1.18416
1.18529
1.18641
1.18753
1.18864
1.18975
1.19085
1.19195
1.19305
1.19413
1.19521
1.19629
1.19736
1.19842
1.19947
1.20052
1.20155
1.20258
1.2036
1.20462
1.20562
1.20661
1.20759
1.20856
1.20952
1.21047
1.21141
1.21234
1.21325
1.21415
1.21504
1.21591
1.21678
1.21762
1.21845
1.21927
1.22007
1.22086
1.22163
1.22238
1.22311
1.22383
1.22453
1.22521
1.22588
1.22652
1.22715
1.22775
1.22834
1.22891
1.22945
1.22997
1.23047
1.23095
1.23141
1.23185
1.23226
1.23265
1.23301
1.23335
1.23367
1.23396
1.23423
1.23447
1.23468
1.23487
1.23504
1.23517
1.23528
1.23537
1.23542
1.23545
1.23545
1.23543
1.23537
1.23529
1.23518
1.23504
1.23487
1.23467
1.23445
1.23419
1.23391
1.2336
1.23325
1.23288
1.23248
1.23205
1.2316
1.23111
1.23059
1.23005
1.22947
1.22887
1.22824
1.22758
1.22681
1.22594
1.22503
1.2241
1.22315
1.22216
1.22116
1.22014
1.2191
1.21803
1.21696
1.21586
1.21476
1.21364
1.2125
1.21136
1.21021
1.20905
1.20788
1.20671
1.20553
1.20435
1.20316
1.20197
1.20078
1.19959
1.1984
1.19721
1.19602
1.19484
1.19366
1.19248
1.19131
1.19014
1.18898
1.18782
1.18668
1.18554
1.18441
1.18328
1.18217
1.18107
1.17998
1.1789
1.17783
1.17678
1.17574
1.17471
1.17369
1.17269
1.17171
1.17074
1.16978
1.16884
1.16792
1.16702
1.16613
1.16526
1.1644
1.16357
1.16276
1.16196
1.16118
1.16043
1.15969
1.15897
1.15828
1.1576
1.15695
1.15632
1.15571
1.15512
1.15456
1.15402
1.1535
1.153
1.15253
1.15208
1.15165
1.15125
1.15087
1.15052
1.15019
1.14989
1.14961
1.14935
1.14912
1.14892
1.14874
1.14858
1.14845
1.14835
1.14827
1.14823
1.14818
)
;
    }
    bottomWall
    {
        type            calculated;
        value           nonuniform List<scalar> 
449
(
0.139446
0.0889646
0.0758275
0.069478
0.0653334
0.0622826
0.0599436
0.0582361
0.0573075
0.0575853
0.0605714
0.0645752
0.0673808
0.0689479
0.0697784
0.0702115
0.070401
0.0704264
0.0703379
0.0701848
0.0699857
0.0697614
0.0695245
0.069283
0.0690415
0.0688031
0.068569
0.0683405
0.0681186
0.0679032
0.0676946
0.0674925
0.0672969
0.0671075
0.0669241
0.0667462
0.0665736
0.0664062
0.0662439
0.0660863
0.0659332
0.0657845
0.06564
0.0654993
0.0653624
0.0652292
0.0650993
0.0649728
0.0648494
0.0647286
0.0646101
0.0644937
0.0643793
0.064267
0.0641568
0.0640486
0.0639424
0.0638382
0.0637358
0.0636352
0.0635363
0.0634391
0.0633436
0.0632496
0.0631571
0.0630661
0.0629766
0.0628884
0.0628016
0.0627159
0.0626314
0.0625482
0.0624661
0.0623852
0.0623054
0.0622267
0.0621491
0.0620725
0.0619969
0.0619222
0.0618485
0.0617758
0.0617039
0.061633
0.0615628
0.0614936
0.0614251
0.0613574
0.0612905
0.0612244
0.0611589
0.0610943
0.0610303
0.060967
0.0609043
0.0608424
0.060781
0.0607203
0.0606602
0.0606006
0.0605416
0.0604831
0.0604253
0.060368
0.0603113
0.0602551
0.0601994
0.0601442
0.0600896
0.0600354
0.0599818
0.0599286
0.0598759
0.0598236
0.0597718
0.0597205
0.0596696
0.0596191
0.059569
0.0595194
0.0594702
0.0594213
0.0593729
0.0593249
0.0592772
0.0592299
0.059183
0.0591365
0.0590903
0.0590445
0.058999
0.0589538
0.058909
0.0588645
0.0588204
0.0587766
0.0587331
0.0586899
0.058647
0.0586044
0.0585621
0.0585201
0.0584783
0.0584369
0.0583957
0.0583548
0.0583142
0.0582738
0.0582337
0.0581939
0.0581544
0.0581151
0.058076
0.0580373
0.0579988
0.0579605
0.0579224
0.0578846
0.0578471
0.0578098
0.0577727
0.0577358
0.0576992
0.0576628
0.0576266
0.0575907
0.0575549
0.0575194
0.0574841
0.057449
0.0574141
0.0573794
0.0573449
0.0573125
0.0572821
0.0572514
0.0572208
0.05719
0.0571591
0.057128
0.057097
0.0570657
0.0570344
0.057003
0.0569715
0.0569399
0.0569082
0.0568764
0.0568445
0.0568125
0.0567804
0.0567482
0.056716
0.0566836
0.0566512
0.0566186
0.056586
0.0565533
0.0565205
0.0564876
0.0564547
0.0564216
0.0563885
0.0563553
0.056322
0.0562885
0.0562551
0.0562215
0.0561879
0.0561542
0.0561204
0.0560866
0.0560527
0.0560187
0.0559847
0.0559506
0.0559165
0.0558824
0.0558481
0.0558138
0.0557795
0.0557451
0.0557107
0.0556762
0.0556417
0.0556072
0.0555726
0.055538
0.0555033
0.0554687
0.0554339
0.0553992
0.0553644
0.0553296
0.0552948
0.0552599
0.0552251
0.0551902
0.0551553
0.0551203
0.0550854
0.0550505
0.0550155
0.0549806
0.0549456
0.0549106
0.0548757
0.0548407
0.0548057
0.0547708
0.0547358
0.0547009
0.0546659
0.054631
0.0545961
0.0545612
0.0545263
0.0544915
0.0544566
0.0544218
0.054387
0.0543523
0.0543175
0.0542828
0.0542481
0.0542135
0.0541789
0.0541443
0.0541098
0.0540753
0.0540409
0.0540065
0.0539721
0.0539378
0.0539035
0.0538692
0.053835
0.0538009
0.0537667
0.0537327
0.0536987
0.0536647
0.0536308
0.053597
0.0535632
0.0535295
0.0534959
0.0534623
0.0534287
0.0533953
0.0533619
0.0533285
0.0532952
0.0532621
0.0532289
0.0531958
0.0531628
0.0531299
0.053097
0.0530643
0.0530315
0.0529989
0.0529663
0.0529338
0.0529014
0.052869
0.0528367
0.0528046
0.0527724
0.0527404
0.0527084
0.0526765
0.0526446
0.0526129
0.0525812
0.0525496
0.052518
0.0524866
0.0524551
0.0524239
0.0523926
0.0523615
0.0523304
0.0522994
0.0522685
0.0522376
0.0522069
0.0521762
0.0521456
0.0521151
0.0520847
0.0520544
0.0520241
0.051994
0.0519639
0.0519339
0.0519039
0.0518741
0.0518444
0.0518147
0.0517852
0.0517557
0.0517262
0.0516969
0.0516676
0.0516384
0.0516094
0.0515803
0.0515514
0.0515226
0.0514938
0.0514651
0.0514365
0.0514079
0.0513763
0.051342
0.0513084
0.0512752
0.0512427
0.0512106
0.0511791
0.0511481
0.0511176
0.0510876
0.051058
0.0510289
0.0510002
0.0509718
0.050944
0.0509164
0.0508894
0.0508626
0.0508363
0.0508102
0.0507846
0.0507592
0.0507342
0.0507095
0.0506851
0.050661
0.0506372
0.0506137
0.0505905
0.0505675
0.0505449
0.0505225
0.0505003
0.0504784
0.0504568
0.0504354
0.0504142
0.0503933
0.0503726
0.0503521
0.0503319
0.0503118
0.050292
0.0502723
0.0502529
0.0502336
0.0502146
0.0501957
0.0501771
0.0501586
0.0501404
0.0501222
0.0501043
0.0500865
0.0500689
0.0500514
0.0500342
0.050017
0.05
0.0499831
0.0499664
0.0499498
0.0499334
0.049917
0.0499009
0.0498848
0.049869
0.0498532
0.0498376
0.049822
0.0498067
0.0497914
0.0497764
0.0497613
0.0497465
0.0497316
0.0497171
0.0497024
0.0496881
0.0496735
0.0496595
0.0496451
0.0496312
0.0496171
0.0496033
0.0495894
0.0495757
0.0495621
0.049548
0.0495356
0.0495193
0.0495114
0.0494871
0.0494929
0.0494604
)
;
    }
    symmetry
    {
        type            symmetryPlane;
    }
    frontAndBack
    {
        type            empty;
    }
}


// ************************************************************************* //
