/*--------------------------------*- C++ -*----------------------------------*\
| =========                 |                                                 |
| \\      /  F ield         | OpenFOAM: The Open Source CFD Toolbox           |
|  \\    /   O peration     | Version:  v2012                                 |
|   \\  /    A nd           | Website:  www.openfoam.com                      |
|    \\/     M anipulation  |                                                 |
\*---------------------------------------------------------------------------*/
FoamFile
{
    version     2.0;
    format      ascii;
    class       volScalarField;
    location    "7";
    object      epsilon;
}
// * * * * * * * * * * * * * * * * * * * * * * * * * * * * * * * * * * * * * //

dimensions      [0 2 -3 0 0 0 0];


internalField   nonuniform List<scalar> 
209825
(
0.793719
0.776052
0.771328
0.769471
0.768516
0.767975
0.767623
0.767391
0.767216
0.767096
0.766993
0.766922
0.766848
0.766805
0.766769
0.766743
0.766714
0.766696
0.766672
0.76666
0.766637
0.766634
0.766627
0.766624
0.766614
0.766622
0.76662
0.766629
0.766626
0.766645
0.766645
0.76666
0.76666
0.766677
0.766677
0.766696
0.766696
0.76673
0.76673
0.766749
0.766749
0.766772
0.766772
0.766807
0.766807
0.766839
0.766839
0.766867
0.766867
0.766901
0.766901
0.766953
0.766953
0.766953
0.766964
0.766964
0.767031
0.767031
0.767084
0.767083
0.767083
0.767079
0.767175
0.767196
0.767196
0.767196
0.767321
0.767335
0.767334
0.767449
0.767454
0.767454
0.767572
0.767572
0.76772
0.767833
0.767887
0.767995
0.768138
0.768148
0.768345
0.768461
0.768648
0.768937
0.769194
0.769549
0.769967
0.770514
0.771323
0.772129
0.773763
0.775279
0.778623
0.792655
1.08545
214.03
0.793709
0.776026
0.771296
0.769435
0.768478
0.767935
0.767582
0.76735
0.767174
0.767054
0.76695
0.76688
0.766805
0.766762
0.766726
0.7667
0.76667
0.766652
0.766629
0.766616
0.766593
0.76659
0.766583
0.766581
0.766571
0.766578
0.766576
0.766585
0.766582
0.766601
0.766601
0.766616
0.766616
0.766634
0.766634
0.766653
0.766653
0.766687
0.766687
0.766705
0.766705
0.766729
0.766728
0.766763
0.766763
0.766795
0.766795
0.766823
0.766823
0.766857
0.766857
0.766909
0.766909
0.766909
0.76692
0.76692
0.766987
0.766988
0.76704
0.76704
0.76704
0.767036
0.767132
0.767153
0.767153
0.767152
0.767278
0.767291
0.767291
0.767406
0.767411
0.767411
0.767529
0.767529
0.767677
0.767791
0.767845
0.767953
0.768096
0.768106
0.768304
0.76842
0.768606
0.768896
0.769153
0.769509
0.769927
0.770474
0.771285
0.772092
0.773726
0.775246
0.778589
0.792655
1.08629
210.797
0.793649
0.775902
0.771144
0.76927
0.768305
0.767758
0.767401
0.767167
0.76699
0.766869
0.766764
0.766693
0.766617
0.766574
0.766538
0.766511
0.766481
0.766463
0.766439
0.766427
0.766403
0.7664
0.766393
0.76639
0.76638
0.766387
0.766385
0.766395
0.766392
0.76641
0.76641
0.766425
0.766425
0.766443
0.766443
0.766462
0.766462
0.766496
0.766496
0.766514
0.766514
0.766538
0.766538
0.766572
0.766572
0.766605
0.766605
0.766633
0.766633
0.766667
0.766667
0.766719
0.766719
0.766719
0.76673
0.76673
0.766797
0.766798
0.76685
0.76685
0.76685
0.766847
0.766943
0.766964
0.766964
0.766963
0.767089
0.767103
0.767103
0.767218
0.767224
0.767224
0.767342
0.767342
0.76749
0.767605
0.767659
0.767767
0.767911
0.767921
0.76812
0.768237
0.768424
0.768714
0.768972
0.76933
0.769749
0.770298
0.77111
0.771921
0.773557
0.775085
0.778418
0.792577
1.08842
207.287
0.793547
0.775691
0.770887
0.76899
0.768013
0.767457
0.767096
0.766858
0.766678
0.766555
0.766448
0.766376
0.766299
0.766255
0.766218
0.766191
0.766161
0.766142
0.766118
0.766105
0.766082
0.766078
0.766071
0.766068
0.766057
0.766065
0.766063
0.766072
0.766068
0.766087
0.766087
0.766102
0.766102
0.76612
0.76612
0.766138
0.766138
0.766173
0.766173
0.766191
0.766191
0.766215
0.766215
0.76625
0.76625
0.766282
0.766282
0.76631
0.76631
0.766345
0.766345
0.766397
0.766397
0.766397
0.766408
0.766408
0.766476
0.766477
0.766529
0.766529
0.766529
0.766526
0.766622
0.766644
0.766644
0.766643
0.76677
0.766784
0.766784
0.766899
0.766906
0.766906
0.767025
0.767025
0.767174
0.767289
0.767344
0.767452
0.767597
0.767609
0.767808
0.767926
0.768114
0.768406
0.768666
0.769025
0.769447
0.769999
0.770814
0.771629
0.773267
0.77481
0.778126
0.792433
1.09185
204.248
0.793402
0.775393
0.770523
0.768594
0.767599
0.767032
0.766663
0.76642
0.766237
0.76611
0.766002
0.765928
0.76585
0.765804
0.765766
0.765738
0.765707
0.765688
0.765663
0.76565
0.765626
0.765622
0.765615
0.765612
0.765601
0.765608
0.765606
0.765615
0.765611
0.76563
0.76563
0.765645
0.765644
0.765662
0.765662
0.765681
0.765681
0.765716
0.765716
0.765734
0.765734
0.765758
0.765758
0.765793
0.765793
0.765825
0.765825
0.765854
0.765854
0.765888
0.765888
0.765941
0.765941
0.765941
0.765953
0.765953
0.766021
0.766023
0.766075
0.766075
0.766075
0.766071
0.766169
0.766191
0.766191
0.76619
0.766317
0.766333
0.766333
0.766449
0.766456
0.766456
0.766576
0.766577
0.766726
0.766843
0.766897
0.767007
0.767154
0.767166
0.767367
0.767487
0.767675
0.767969
0.768232
0.768594
0.769019
0.769574
0.770393
0.771215
0.772856
0.774418
0.777708
0.792222
1.09668
201.982
0.793214
0.775006
0.770052
0.768081
0.767062
0.766481
0.766102
0.765852
0.765664
0.765534
0.765422
0.765346
0.765266
0.765219
0.76518
0.765151
0.765119
0.765099
0.765074
0.76506
0.765035
0.765031
0.765023
0.76502
0.765009
0.765015
0.765013
0.765022
0.765018
0.765036
0.765036
0.765051
0.765051
0.765069
0.765069
0.765088
0.765088
0.765122
0.765122
0.765141
0.765141
0.765165
0.765165
0.7652
0.7652
0.765233
0.765233
0.765262
0.765262
0.765296
0.765296
0.765349
0.76535
0.76535
0.765361
0.765361
0.765431
0.765433
0.765485
0.765485
0.765485
0.765482
0.76558
0.765603
0.765603
0.765602
0.76573
0.765746
0.765746
0.765864
0.765872
0.765871
0.765993
0.765994
0.766144
0.766263
0.766318
0.766429
0.766578
0.766591
0.766793
0.766916
0.767106
0.767401
0.767668
0.768033
0.768462
0.769022
0.769846
0.770676
0.77232
0.773908
0.777164
0.791943
1.10299
200.597
0.792985
0.77453
0.769471
0.767449
0.766401
0.765801
0.765411
0.765152
0.764957
0.764823
0.764707
0.764628
0.764546
0.764497
0.764456
0.764426
0.764393
0.764372
0.764346
0.764332
0.764307
0.764302
0.764294
0.76429
0.764278
0.764284
0.764282
0.76429
0.764286
0.764304
0.764304
0.764319
0.764319
0.764337
0.764337
0.764355
0.764355
0.76439
0.76439
0.764409
0.764409
0.764433
0.764433
0.764469
0.764469
0.764502
0.764502
0.764531
0.764531
0.764566
0.764566
0.764619
0.76462
0.76462
0.764632
0.764632
0.764703
0.764706
0.764758
0.764758
0.764758
0.764755
0.764854
0.764877
0.764877
0.764877
0.765006
0.765023
0.765023
0.765142
0.765151
0.765151
0.765274
0.765276
0.765426
0.765548
0.765604
0.765715
0.765867
0.765882
0.766086
0.766211
0.766402
0.766701
0.766971
0.767341
0.767774
0.768339
0.76917
0.770009
0.771657
0.773278
0.776491
0.791593
1.11089
200.095
0.792712
0.773964
0.76878
0.766696
0.765612
0.764992
0.764586
0.764318
0.764115
0.763975
0.763855
0.763773
0.763688
0.763636
0.763594
0.763562
0.763528
0.763506
0.763479
0.763464
0.763438
0.763432
0.763423
0.763419
0.763407
0.763413
0.76341
0.763418
0.763413
0.763432
0.763432
0.763446
0.763446
0.763464
0.763464
0.763482
0.763482
0.763518
0.763518
0.763536
0.763536
0.76356
0.76356
0.763597
0.763597
0.76363
0.76363
0.76366
0.76366
0.763695
0.763695
0.763748
0.76375
0.76375
0.763762
0.763762
0.763834
0.763839
0.76389
0.76389
0.76389
0.763887
0.763987
0.764012
0.764012
0.764012
0.764142
0.764161
0.764161
0.764281
0.764291
0.764291
0.764416
0.764419
0.76457
0.764694
0.764751
0.764864
0.765019
0.765036
0.765242
0.765371
0.765563
0.765865
0.76614
0.766515
0.766953
0.767525
0.768363
0.769213
0.770865
0.772523
0.775685
0.791171
1.12048
200.408
0.792398
0.773309
0.767977
0.76582
0.764696
0.76405
0.763627
0.763347
0.763135
0.762989
0.762864
0.762777
0.762689
0.762635
0.76259
0.762556
0.76252
0.762497
0.762469
0.762453
0.762426
0.76242
0.76241
0.762406
0.762392
0.762398
0.762395
0.762402
0.762397
0.762415
0.762415
0.76243
0.762429
0.762447
0.762447
0.762466
0.762466
0.762501
0.762501
0.76252
0.76252
0.762544
0.762544
0.762581
0.762581
0.762615
0.762615
0.762645
0.762645
0.762681
0.76268
0.762735
0.762737
0.762737
0.762749
0.762749
0.762823
0.762829
0.76288
0.76288
0.76288
0.762877
0.762979
0.763005
0.763005
0.763005
0.763135
0.763157
0.763157
0.763279
0.76329
0.76329
0.763417
0.763421
0.763573
0.763701
0.763759
0.763872
0.764031
0.76405
0.764259
0.764391
0.764586
0.764892
0.765172
0.765552
0.765996
0.766575
0.767421
0.768285
0.76994
0.771643
0.774743
0.790673
1.13187
201.427
0.792043
0.772562
0.767062
0.764821
0.763649
0.762973
0.762531
0.762237
0.762015
0.761861
0.76173
0.761639
0.761547
0.761489
0.761442
0.761406
0.761368
0.761344
0.761314
0.761297
0.761269
0.761262
0.761252
0.761247
0.761232
0.761237
0.761234
0.761241
0.761236
0.761253
0.761253
0.761267
0.761267
0.761285
0.761285
0.761303
0.761303
0.761339
0.761339
0.761358
0.761358
0.761382
0.761382
0.76142
0.76142
0.761455
0.761455
0.761485
0.761485
0.761521
0.761521
0.761575
0.761578
0.761578
0.761591
0.761591
0.761666
0.761674
0.761725
0.761725
0.761724
0.761722
0.761825
0.761853
0.761853
0.761853
0.761985
0.762008
0.762008
0.762133
0.762145
0.762145
0.762274
0.76228
0.762432
0.762564
0.762623
0.762738
0.762901
0.762923
0.763134
0.763271
0.763467
0.763777
0.764063
0.76445
0.764901
0.765488
0.766343
0.767221
0.76888
0.770634
0.773664
0.790098
1.14515
203.013
0.791646
0.771725
0.766033
0.763697
0.762471
0.761761
0.761296
0.760986
0.760753
0.760591
0.760452
0.760356
0.760259
0.760198
0.760148
0.76011
0.76007
0.760044
0.760012
0.759994
0.759965
0.759957
0.759946
0.75994
0.759924
0.759929
0.759925
0.759931
0.759925
0.759943
0.759943
0.759957
0.759956
0.759974
0.759974
0.759992
0.759992
0.760029
0.760029
0.760048
0.760048
0.760072
0.760072
0.76011
0.76011
0.760146
0.760146
0.760177
0.760177
0.760213
0.760213
0.760268
0.760272
0.760271
0.760284
0.760284
0.760362
0.760372
0.760422
0.760422
0.760422
0.760419
0.760524
0.760554
0.760554
0.760554
0.760687
0.760713
0.760713
0.76084
0.760854
0.760854
0.760985
0.760993
0.761146
0.761282
0.761342
0.761459
0.761626
0.761651
0.761865
0.762007
0.762205
0.76252
0.762812
0.763206
0.763664
0.76426
0.765125
0.766019
0.767681
0.769492
0.772442
0.78944
1.16042
205.008
0.791209
0.770796
0.764889
0.762446
0.761159
0.760411
0.759921
0.759593
0.759347
0.759174
0.759028
0.758926
0.758824
0.758759
0.758705
0.758664
0.758622
0.758594
0.75856
0.758541
0.75851
0.758501
0.758489
0.758482
0.758466
0.75847
0.758466
0.758471
0.758464
0.758482
0.758482
0.758495
0.758494
0.758512
0.758512
0.75853
0.75853
0.758567
0.758567
0.758586
0.758586
0.758611
0.758611
0.75865
0.75865
0.758686
0.758686
0.758717
0.758717
0.758754
0.758754
0.75881
0.758814
0.758814
0.758827
0.758828
0.758907
0.758919
0.758968
0.758968
0.758968
0.758967
0.759073
0.759105
0.759104
0.759104
0.759239
0.759268
0.759268
0.759398
0.759413
0.759413
0.759547
0.759557
0.759711
0.759851
0.759913
0.760031
0.760204
0.760231
0.760449
0.760596
0.760797
0.761117
0.761416
0.761818
0.762284
0.762889
0.763764
0.764676
0.76634
0.768215
0.771076
0.788697
1.1778
207.25
0.790733
0.769777
0.76363
0.761067
0.759712
0.758921
0.758402
0.758055
0.757793
0.75761
0.757455
0.757346
0.757238
0.757169
0.757111
0.757067
0.757022
0.756992
0.756956
0.756935
0.756903
0.756893
0.756879
0.756872
0.756854
0.756858
0.756853
0.756858
0.75685
0.756867
0.756867
0.75688
0.756879
0.756897
0.756897
0.756915
0.756914
0.756952
0.756952
0.756971
0.756971
0.756996
0.756996
0.757036
0.757036
0.757073
0.757073
0.757105
0.757105
0.757141
0.757141
0.757198
0.757204
0.757204
0.757217
0.757217
0.757299
0.757314
0.757362
0.757362
0.757362
0.757361
0.75747
0.757503
0.757503
0.757503
0.757639
0.757671
0.757671
0.757803
0.757821
0.757821
0.757958
0.75797
0.758125
0.75827
0.758334
0.758454
0.758631
0.758662
0.758884
0.759037
0.75924
0.759565
0.759872
0.760282
0.760756
0.761372
0.762257
0.763189
0.764855
0.766799
0.769563
0.787863
1.19736
209.578
0.790218
0.768666
0.762255
0.759559
0.758128
0.75729
0.756739
0.756369
0.756091
0.755895
0.755731
0.755614
0.7555
0.755425
0.755363
0.755316
0.755268
0.755235
0.755197
0.755175
0.755141
0.755129
0.755114
0.755106
0.755087
0.75509
0.755084
0.755088
0.755079
0.755096
0.755096
0.755109
0.755108
0.755125
0.755125
0.755143
0.755142
0.755181
0.755181
0.7552
0.7552
0.755225
0.755225
0.755266
0.755266
0.755304
0.755303
0.755336
0.755336
0.755373
0.755373
0.755431
0.755437
0.755437
0.755451
0.755451
0.755535
0.755553
0.7556
0.7556
0.755601
0.755599
0.755711
0.755746
0.755746
0.755746
0.755884
0.755919
0.755919
0.756055
0.756075
0.756075
0.756214
0.756229
0.756385
0.756535
0.756601
0.756723
0.756906
0.756941
0.757166
0.757325
0.757531
0.757861
0.758177
0.758595
0.759078
0.759706
0.760602
0.761555
0.763221
0.765242
0.767898
0.786933
1.21919
211.836
0.789665
0.767464
0.760763
0.757921
0.756405
0.755515
0.754928
0.754534
0.754238
0.754029
0.753853
0.753728
0.753607
0.753527
0.753459
0.753409
0.753357
0.753322
0.753281
0.753257
0.753221
0.753208
0.753191
0.753182
0.753162
0.753163
0.753157
0.75316
0.75315
0.753167
0.753167
0.753179
0.753177
0.753195
0.753195
0.753212
0.753211
0.75325
0.75325
0.75327
0.75327
0.753295
0.753295
0.753336
0.753336
0.753375
0.753375
0.753409
0.753409
0.753446
0.753446
0.753504
0.753512
0.753512
0.753527
0.753527
0.753613
0.753634
0.75368
0.75368
0.753681
0.75368
0.753794
0.753831
0.753831
0.753831
0.753972
0.75401
0.75401
0.754149
0.754171
0.754171
0.754314
0.754332
0.754488
0.754644
0.754712
0.754836
0.755025
0.755064
0.755293
0.755459
0.755667
0.756004
0.756327
0.756756
0.757248
0.757888
0.758795
0.75977
0.761436
0.763539
0.766079
0.785902
1.24336
213.882
0.789076
0.766172
0.759154
0.756151
0.754543
0.753595
0.752969
0.752548
0.752231
0.752007
0.751819
0.751686
0.751557
0.75147
0.751397
0.751342
0.751287
0.751249
0.751205
0.751179
0.75114
0.751126
0.751108
0.751097
0.751076
0.751076
0.751069
0.751071
0.75106
0.751076
0.751076
0.751088
0.751085
0.751103
0.751103
0.75112
0.751118
0.751159
0.751159
0.751178
0.751178
0.751203
0.751203
0.751246
0.751246
0.751286
0.751286
0.75132
0.75132
0.751358
0.751358
0.751417
0.751426
0.751426
0.751441
0.751441
0.75153
0.751554
0.751599
0.751599
0.7516
0.7516
0.751716
0.751756
0.751756
0.751756
0.751898
0.751941
0.751941
0.752083
0.752108
0.752108
0.752254
0.752275
0.752432
0.752593
0.752664
0.75279
0.752985
0.753029
0.753262
0.753435
0.753646
0.753989
0.754322
0.75476
0.755262
0.755914
0.756833
0.757832
0.759496
0.761686
0.764102
0.784762
1.26991
215.589
0.788451
0.76479
0.757427
0.754249
0.752539
0.751528
0.75086
0.750408
0.750069
0.749829
0.749628
0.749484
0.749346
0.749252
0.749174
0.749114
0.749055
0.749013
0.748967
0.748938
0.748897
0.74888
0.748861
0.748849
0.748826
0.748825
0.748817
0.748818
0.748805
0.748821
0.748821
0.748832
0.748829
0.748847
0.748846
0.748863
0.748861
0.748902
0.748902
0.748922
0.748922
0.748947
0.748947
0.748991
0.748991
0.749032
0.749032
0.749067
0.749067
0.749105
0.749105
0.749165
0.749175
0.749175
0.749191
0.749191
0.749283
0.74931
0.749355
0.749355
0.749356
0.749355
0.749474
0.749517
0.749518
0.749517
0.749662
0.749709
0.749709
0.749854
0.749882
0.749882
0.750031
0.750056
0.750214
0.750381
0.750455
0.750582
0.750784
0.750833
0.751071
0.751251
0.751465
0.751814
0.752156
0.752605
0.753117
0.753782
0.754712
0.755736
0.757397
0.759681
0.761964
0.783508
1.29886
216.848
0.787792
0.763318
0.755582
0.752213
0.750393
0.749313
0.748598
0.748113
0.74775
0.747491
0.747276
0.747121
0.746974
0.746872
0.746787
0.746723
0.746658
0.746613
0.746563
0.746532
0.746488
0.74647
0.746448
0.746435
0.74641
0.746408
0.746399
0.746398
0.746384
0.746399
0.746399
0.74641
0.746407
0.746423
0.746423
0.74644
0.746438
0.746479
0.746479
0.746499
0.746499
0.746524
0.746524
0.746569
0.746569
0.746611
0.746611
0.746648
0.746648
0.746686
0.746686
0.746746
0.746758
0.746758
0.746774
0.746774
0.746869
0.7469
0.746944
0.746944
0.746945
0.746945
0.747066
0.747113
0.747113
0.747113
0.747259
0.747311
0.747311
0.74746
0.74749
0.74749
0.747643
0.747673
0.747832
0.748004
0.748081
0.74821
0.748419
0.748473
0.748716
0.748904
0.749121
0.749476
0.749828
0.750287
0.75081
0.751488
0.75243
0.75348
0.755137
0.757519
0.759662
0.782131
1.33021
217.566
0.7871
0.761757
0.753619
0.750044
0.748104
0.746948
0.746181
0.745661
0.745271
0.744993
0.744761
0.744594
0.744436
0.744327
0.744234
0.744165
0.744095
0.744046
0.743992
0.743958
0.743912
0.743891
0.743867
0.743852
0.743826
0.743822
0.743812
0.74381
0.743794
0.743809
0.743809
0.743818
0.743814
0.743831
0.743831
0.743847
0.743844
0.743887
0.743886
0.743907
0.743907
0.743932
0.743932
0.743977
0.743977
0.744021
0.744021
0.744059
0.744059
0.744097
0.744097
0.744158
0.744172
0.744172
0.744188
0.744188
0.744286
0.744321
0.744364
0.744364
0.744366
0.744365
0.744489
0.744539
0.744539
0.744539
0.744687
0.744744
0.744744
0.744897
0.744931
0.744931
0.745087
0.745122
0.745281
0.74546
0.745541
0.745672
0.745887
0.745946
0.746194
0.746391
0.746611
0.746972
0.747333
0.747805
0.748337
0.74903
0.749983
0.75106
0.752711
0.755195
0.757192
0.780624
1.36391
217.673
0.786377
0.760109
0.751538
0.747739
0.745669
0.744431
0.743609
0.74305
0.742631
0.742331
0.742082
0.741901
0.741732
0.741614
0.741514
0.741438
0.741363
0.74131
0.741252
0.741214
0.741165
0.741141
0.741115
0.741099
0.74107
0.741065
0.741054
0.74105
0.741032
0.741046
0.741046
0.741055
0.74105
0.741066
0.741066
0.741082
0.741078
0.741121
0.741121
0.741142
0.741142
0.741167
0.741167
0.741214
0.741214
0.741258
0.741258
0.741297
0.741297
0.741335
0.741335
0.741397
0.741413
0.741413
0.74143
0.74143
0.741531
0.74157
0.741612
0.741612
0.741614
0.741614
0.741741
0.741794
0.741794
0.741794
0.741945
0.742007
0.742007
0.742163
0.742201
0.742201
0.74236
0.7424
0.74256
0.742745
0.74283
0.742963
0.743186
0.74325
0.743503
0.743708
0.743932
0.7443
0.744671
0.745154
0.745697
0.746404
0.747368
0.748473
0.750116
0.752707
0.754551
0.778976
1.39986
217.122
0.785625
0.758375
0.74934
0.745299
0.743088
0.741762
0.740879
0.740278
0.739827
0.739503
0.739235
0.73904
0.738859
0.738731
0.738622
0.73854
0.738459
0.738401
0.738338
0.738297
0.738244
0.738218
0.738189
0.738171
0.73814
0.738134
0.738121
0.738116
0.738096
0.738109
0.738109
0.738117
0.738111
0.738127
0.738127
0.738142
0.738138
0.738181
0.738181
0.738202
0.738202
0.738227
0.738227
0.738275
0.738275
0.738321
0.738321
0.738361
0.738361
0.738399
0.738399
0.738462
0.73848
0.73848
0.738497
0.738497
0.738601
0.738644
0.738685
0.738685
0.738688
0.738688
0.738818
0.738875
0.738875
0.738875
0.739027
0.739095
0.739095
0.739256
0.739297
0.739297
0.739459
0.739506
0.739666
0.739857
0.739946
0.740081
0.740311
0.740381
0.74064
0.740854
0.741081
0.741455
0.741836
0.742331
0.742885
0.743607
0.744581
0.745715
0.747349
0.750049
0.751736
0.777179
1.43792
215.869
0.784845
0.756555
0.747023
0.742724
0.740361
0.738938
0.73799
0.737343
0.736858
0.736509
0.73622
0.73601
0.735815
0.735676
0.735558
0.735468
0.735381
0.735318
0.73525
0.735205
0.735149
0.735119
0.735087
0.735068
0.735034
0.735026
0.735012
0.735005
0.734982
0.734995
0.734995
0.735002
0.734995
0.735011
0.735011
0.735024
0.735019
0.735064
0.735064
0.735085
0.735085
0.735109
0.735109
0.735158
0.735158
0.735206
0.735206
0.735248
0.735248
0.735286
0.735286
0.735348
0.735369
0.735369
0.735387
0.735386
0.735493
0.735541
0.735582
0.735582
0.735585
0.735585
0.735718
0.735779
0.735779
0.735779
0.735933
0.736007
0.736007
0.736172
0.736217
0.736217
0.736382
0.736436
0.736597
0.736794
0.736887
0.737024
0.737261
0.737338
0.737602
0.737825
0.738056
0.738436
0.738827
0.739334
0.739899
0.740635
0.74162
0.742783
0.744406
0.747218
0.748743
0.775223
1.47789
213.899
0.784039
0.754651
0.74459
0.740012
0.737486
0.73596
0.734941
0.734244
0.733722
0.733345
0.733034
0.732806
0.732598
0.732446
0.732319
0.732221
0.732126
0.732058
0.731985
0.731936
0.731875
0.731843
0.731808
0.731785
0.73175
0.73174
0.731723
0.731715
0.73169
0.731702
0.731701
0.731707
0.731699
0.731714
0.731714
0.731727
0.731721
0.731766
0.731766
0.731787
0.731787
0.731811
0.731811
0.731862
0.731862
0.731911
0.73191
0.731954
0.731954
0.731992
0.731992
0.732055
0.732078
0.732078
0.732096
0.732096
0.732206
0.732259
0.732299
0.732299
0.732302
0.732302
0.732438
0.732503
0.732504
0.732503
0.732659
0.73274
0.73274
0.732909
0.732958
0.732958
0.733126
0.733187
0.733348
0.733551
0.73365
0.733788
0.734033
0.734116
0.734385
0.734619
0.734853
0.735239
0.735639
0.736159
0.736735
0.737487
0.73848
0.739674
0.741284
0.744209
0.745569
0.773095
1.51947
211.213
0.783209
0.752666
0.742041
0.737165
0.734463
0.732825
0.73173
0.73098
0.730417
0.73001
0.729675
0.729429
0.729205
0.729041
0.728902
0.728796
0.728694
0.728619
0.728541
0.728487
0.728422
0.728385
0.728347
0.728322
0.728284
0.728272
0.728254
0.728244
0.728216
0.728226
0.728226
0.72823
0.728221
0.728236
0.728236
0.728248
0.72824
0.728286
0.728286
0.728307
0.728307
0.728331
0.728331
0.728382
0.728382
0.728433
0.728433
0.728478
0.728478
0.728516
0.728516
0.728579
0.728604
0.728605
0.728623
0.728623
0.728736
0.728794
0.728834
0.728834
0.728837
0.728837
0.728976
0.729045
0.729046
0.729046
0.729203
0.729291
0.729291
0.729464
0.729517
0.729517
0.729689
0.729757
0.729918
0.730127
0.730232
0.730372
0.730624
0.730713
0.730988
0.731231
0.731469
0.731861
0.732272
0.732804
0.733391
0.734157
0.735159
0.736383
0.737979
0.741017
0.742211
0.770784
1.56233
207.825
0.782357
0.750601
0.739377
0.734182
0.731291
0.729533
0.728356
0.727548
0.726942
0.726503
0.726142
0.725876
0.725635
0.725457
0.725307
0.725192
0.725081
0.724999
0.724914
0.724856
0.724786
0.724746
0.724703
0.724676
0.724635
0.72462
0.7246
0.724589
0.724558
0.724567
0.724567
0.724569
0.724559
0.724572
0.724572
0.724583
0.724575
0.724621
0.724621
0.724642
0.724642
0.724665
0.724665
0.724718
0.724718
0.72477
0.72477
0.724817
0.724817
0.724854
0.724854
0.724918
0.724946
0.724946
0.724965
0.724965
0.725081
0.725143
0.725184
0.725183
0.725187
0.725187
0.725328
0.725403
0.725403
0.725403
0.725563
0.725658
0.725658
0.725835
0.725892
0.725892
0.726067
0.726143
0.726305
0.726519
0.72663
0.726771
0.727031
0.727127
0.727408
0.727661
0.727903
0.7283
0.72872
0.729266
0.729862
0.730644
0.731654
0.732908
0.734488
0.737638
0.738665
0.768279
1.60602
203.762
0.781486
0.748458
0.736599
0.731064
0.727971
0.726084
0.724819
0.723949
0.723296
0.722822
0.722433
0.722145
0.721886
0.721693
0.72153
0.721405
0.721285
0.721196
0.721105
0.721041
0.720966
0.720921
0.720875
0.720845
0.7208
0.720783
0.72076
0.720747
0.720714
0.720721
0.720721
0.720722
0.72071
0.720722
0.720722
0.720732
0.720722
0.720769
0.720768
0.72079
0.72079
0.720813
0.720812
0.720866
0.720866
0.720919
0.720919
0.720969
0.720969
0.721005
0.721005
0.721069
0.7211
0.7211
0.721119
0.721119
0.721239
0.721306
0.721347
0.721346
0.721349
0.721349
0.721494
0.721573
0.721574
0.721574
0.721735
0.721837
0.721837
0.722019
0.722081
0.722081
0.722258
0.722343
0.722505
0.722725
0.722842
0.722985
0.723252
0.723355
0.723641
0.723905
0.72415
0.724553
0.724982
0.725541
0.726147
0.726945
0.72796
0.729246
0.730809
0.734068
0.734928
0.765566
1.65003
199.06
0.780597
0.74624
0.733709
0.727811
0.724503
0.722477
0.721117
0.72018
0.719477
0.718965
0.718546
0.718235
0.717956
0.717747
0.71757
0.717435
0.717305
0.717208
0.717109
0.71704
0.716959
0.71691
0.716859
0.716826
0.716778
0.716758
0.716733
0.716718
0.716681
0.716687
0.716686
0.716685
0.716671
0.716683
0.716683
0.716692
0.716679
0.716727
0.716726
0.716748
0.716748
0.71677
0.71677
0.716824
0.716824
0.716879
0.716879
0.716931
0.716931
0.716966
0.716966
0.71703
0.717064
0.717064
0.717084
0.717083
0.717206
0.717279
0.71732
0.71732
0.717322
0.717322
0.71747
0.717554
0.717554
0.717555
0.717717
0.717828
0.717828
0.718013
0.71808
0.71808
0.71826
0.718354
0.718516
0.718741
0.718866
0.71901
0.719284
0.719393
0.719686
0.71996
0.720209
0.720618
0.721056
0.721627
0.722243
0.723055
0.724076
0.725392
0.726938
0.730302
0.730998
0.762632
1.69373
193.766
0.779693
0.743949
0.730708
0.724425
0.720885
0.718712
0.71725
0.716241
0.715484
0.714931
0.71448
0.714143
0.713843
0.713618
0.713426
0.713279
0.713138
0.713034
0.712927
0.712851
0.712764
0.71271
0.712654
0.712617
0.712566
0.712543
0.712515
0.712498
0.712458
0.712462
0.712461
0.712458
0.712442
0.712453
0.712453
0.71246
0.712446
0.712493
0.712493
0.712514
0.712514
0.712536
0.712535
0.71259
0.71259
0.712646
0.712647
0.712701
0.712701
0.712735
0.712735
0.712799
0.712836
0.712836
0.712856
0.712856
0.712982
0.71306
0.713101
0.713101
0.713103
0.713103
0.713253
0.713343
0.713343
0.713344
0.713508
0.713626
0.713626
0.713816
0.713888
0.713888
0.71407
0.714174
0.714336
0.714566
0.714698
0.714844
0.715124
0.715241
0.71554
0.715824
0.716077
0.71649
0.716937
0.717521
0.718146
0.718973
0.719997
0.721344
0.722871
0.726336
0.726871
0.759464
1.73642
187.933
0.778777
0.741589
0.727598
0.720905
0.71712
0.714788
0.713217
0.712131
0.711316
0.71072
0.710234
0.70987
0.709548
0.709303
0.709096
0.708936
0.708784
0.70867
0.708555
0.708472
0.708379
0.708319
0.708258
0.708218
0.708162
0.708136
0.708105
0.708086
0.708043
0.708045
0.708043
0.708039
0.70802
0.70803
0.70803
0.708035
0.708018
0.708066
0.708065
0.708087
0.708087
0.708108
0.708107
0.708163
0.708163
0.70822
0.70822
0.708278
0.708278
0.70831
0.708311
0.708374
0.708414
0.708414
0.708434
0.708434
0.708563
0.708646
0.708689
0.708689
0.70869
0.70869
0.708843
0.708938
0.708938
0.708939
0.709104
0.709231
0.709231
0.709426
0.709502
0.709502
0.709686
0.7098
0.709962
0.710197
0.710337
0.710484
0.710771
0.710895
0.7112
0.711495
0.711752
0.71217
0.712624
0.71322
0.713854
0.714696
0.715722
0.7171
0.718606
0.722167
0.722545
0.756047
1.77733
181.617
0.77785
0.739161
0.724382
0.717255
0.713207
0.710706
0.709019
0.70785
0.706973
0.70633
0.705807
0.705414
0.705067
0.704803
0.704578
0.704405
0.70424
0.704117
0.703992
0.703903
0.703802
0.703736
0.70367
0.703625
0.703565
0.703536
0.703501
0.70348
0.703434
0.703434
0.703431
0.703424
0.703403
0.703412
0.703412
0.703415
0.703396
0.703443
0.703443
0.703464
0.703464
0.703484
0.703483
0.703539
0.703539
0.703598
0.703598
0.703659
0.703659
0.70369
0.70369
0.703752
0.703797
0.703797
0.703816
0.703816
0.703949
0.704037
0.70408
0.704081
0.704081
0.704081
0.704237
0.704337
0.704338
0.704338
0.704504
0.704641
0.704641
0.704839
0.704921
0.704921
0.705107
0.705231
0.705393
0.705632
0.705781
0.705929
0.706222
0.706354
0.706663
0.70697
0.707231
0.707652
0.708114
0.708722
0.709365
0.710221
0.711248
0.712655
0.71414
0.717789
0.718016
0.752368
1.81558
174.88
0.776916
0.73667
0.721062
0.713474
0.709148
0.706467
0.704655
0.703398
0.702454
0.701761
0.701197
0.700774
0.7004
0.700115
0.699872
0.699684
0.699506
0.699372
0.699238
0.69914
0.699032
0.69896
0.698888
0.698839
0.698774
0.698741
0.698703
0.698679
0.69863
0.698627
0.698622
0.698614
0.698591
0.698598
0.698598
0.698599
0.698576
0.698623
0.698623
0.698644
0.698644
0.698663
0.698661
0.698718
0.698718
0.698778
0.698778
0.698842
0.698842
0.698871
0.698871
0.698933
0.698981
0.698981
0.699001
0.699001
0.699136
0.69923
0.699273
0.699274
0.699275
0.699274
0.699432
0.699539
0.699539
0.69954
0.699707
0.699852
0.699852
0.700055
0.700142
0.700142
0.700329
0.700464
0.700627
0.700869
0.701027
0.701176
0.701475
0.701614
0.701929
0.702247
0.702512
0.702937
0.703405
0.704025
0.704675
0.705546
0.706571
0.708007
0.70947
0.7132
0.713282
0.748412
1.85025
167.785
0.775977
0.734119
0.71764
0.709566
0.704944
0.70207
0.700126
0.698774
0.697759
0.697013
0.696406
0.695948
0.695547
0.695239
0.694976
0.694772
0.694581
0.694435
0.69429
0.694184
0.694067
0.693989
0.69391
0.693856
0.693786
0.693749
0.693707
0.693681
0.693629
0.693623
0.693616
0.693606
0.69358
0.693586
0.693586
0.693584
0.693558
0.693604
0.693604
0.693625
0.693625
0.693644
0.693641
0.693698
0.693698
0.693759
0.693759
0.693827
0.693827
0.693853
0.693854
0.693914
0.693966
0.693966
0.693986
0.693986
0.694124
0.694223
0.694267
0.694268
0.694269
0.694267
0.694428
0.694541
0.694542
0.694542
0.694709
0.694864
0.694864
0.695071
0.695163
0.695163
0.695352
0.695497
0.695661
0.695906
0.696073
0.696223
0.696528
0.696674
0.696995
0.697323
0.697593
0.698021
0.698494
0.699127
0.699783
0.700667
0.701691
0.703154
0.704594
0.708396
0.708341
0.744166
1.8804
160.395
0.775036
0.731512
0.71412
0.705532
0.700596
0.697518
0.695432
0.693979
0.692888
0.692084
0.691431
0.690938
0.690507
0.690174
0.68989
0.689669
0.689463
0.689305
0.689148
0.689033
0.688908
0.688822
0.688736
0.688677
0.688602
0.68856
0.688514
0.688484
0.688429
0.68842
0.688411
0.688399
0.688371
0.688375
0.688374
0.68837
0.68834
0.688386
0.688386
0.688406
0.688406
0.688424
0.68842
0.688477
0.688477
0.68854
0.68854
0.68861
0.688611
0.688635
0.688635
0.688694
0.68875
0.688751
0.68877
0.68877
0.688911
0.689015
0.689059
0.689062
0.689061
0.68906
0.689223
0.689342
0.689343
0.689343
0.689511
0.689675
0.689675
0.689886
0.689984
0.689984
0.690174
0.69033
0.690494
0.690742
0.690919
0.69107
0.691379
0.691533
0.691858
0.692198
0.692472
0.692903
0.693381
0.694024
0.694686
0.695584
0.696603
0.698093
0.699508
0.703375
0.703189
0.739616
1.90504
152.774
0.774096
0.728853
0.710506
0.701375
0.696106
0.692811
0.690574
0.689013
0.687841
0.686976
0.686274
0.685742
0.685279
0.68492
0.684613
0.684374
0.684151
0.683981
0.683812
0.683687
0.683552
0.683458
0.683365
0.6833
0.683219
0.683173
0.683122
0.683089
0.68303
0.683018
0.683006
0.682993
0.682962
0.682964
0.682962
0.682956
0.682921
0.682966
0.682966
0.682987
0.682986
0.683003
0.682998
0.683055
0.683054
0.683118
0.683118
0.683192
0.683194
0.683215
0.683215
0.683272
0.683333
0.683333
0.683352
0.683351
0.683496
0.683605
0.683649
0.683652
0.683652
0.683651
0.683816
0.683941
0.683941
0.683941
0.684109
0.684284
0.684284
0.684499
0.684602
0.684602
0.684793
0.68496
0.685125
0.685374
0.685561
0.685713
0.686028
0.686189
0.686519
0.686869
0.687147
0.687582
0.688063
0.688717
0.689384
0.690294
0.691307
0.692822
0.694212
0.698133
0.697826
0.734749
1.92322
144.984
0.773159
0.726146
0.7068
0.697098
0.691477
0.68795
0.685553
0.683877
0.682618
0.681688
0.680934
0.680361
0.679863
0.679476
0.679146
0.678887
0.678647
0.678462
0.67828
0.678144
0.678
0.677897