/*--------------------------------*- C++ -*----------------------------------*\
| =========                 |                                                 |
| \\      /  F ield         | OpenFOAM: The Open Source CFD Toolbox           |
|  \\    /   O peration     | Version:  v2012                                 |
|   \\  /    A nd           | Website:  www.openfoam.com                      |
|    \\/     M anipulation  |                                                 |
\*---------------------------------------------------------------------------*/
FoamFile
{
    version     2.0;
    format      ascii;
    class       volVectorField;
    location    "7";
    object      wallShearStress;
}
// * * * * * * * * * * * * * * * * * * * * * * * * * * * * * * * * * * * * * //

dimensions      [0 2 -2 0 0 0 0];


internalField   uniform (0 0 0);

boundaryField
{
    inlet
    {
        type            calculated;
        value           uniform (0 0 0);
    }
    outlet
    {
        type            calculated;
        value           uniform (0 0 0);
    }
    topWall
    {
        type            calculated;
        value           nonuniform List<vector> 
545
(
(1.45929e-08 -1.02434e-08 0)
(1.46257e-08 -2.88734e-08 0)
(1.4497e-08 -4.80059e-08 0)
(1.44366e-08 -6.65203e-08 0)
(1.4388e-08 -8.41931e-08 0)
(1.43382e-08 -1.01261e-07 0)
(1.4284e-08 -1.17877e-07 0)
(1.42249e-08 -1.34035e-07 0)
(1.41609e-08 -1.49698e-07 0)
(1.40927e-08 -1.64864e-07 0)
(1.40205e-08 -1.79551e-07 0)
(1.39449e-08 -1.93779e-07 0)
(1.3866e-08 -2.07556e-07 0)
(1.37844e-08 -2.20893e-07 0)
(1.37003e-08 -2.33799e-07 0)
(1.36141e-08 -2.46288e-07 0)
(1.35261e-08 -2.58369e-07 0)
(1.34365e-08 -2.70054e-07 0)
(1.33455e-08 -2.81355e-07 0)
(1.32535e-08 -2.92283e-07 0)
(1.31606e-08 -3.02849e-07 0)
(1.3067e-08 -3.13063e-07 0)
(1.2973e-08 -3.22937e-07 0)
(1.28787e-08 -3.32481e-07 0)
(1.27842e-08 -3.41705e-07 0)
(1.26897e-08 -3.5062e-07 0)
(1.25954e-08 -3.59235e-07 0)
(1.25012e-08 -3.67561e-07 0)
(1.24074e-08 -3.75606e-07 0)
(1.23141e-08 -3.83381e-07 0)
(1.22213e-08 -3.90893e-07 0)
(1.21291e-08 -3.98152e-07 0)
(1.20376e-08 -4.05166e-07 0)
(1.19468e-08 -4.11944e-07 0)
(1.18568e-08 -4.18493e-07 0)
(1.17676e-08 -4.24821e-07 0)
(1.16793e-08 -4.30936e-07 0)
(1.15919e-08 -4.36846e-07 0)
(1.15055e-08 -4.42556e-07 0)
(1.142e-08 -4.48075e-07 0)
(1.13355e-08 -4.53408e-07 0)
(1.12519e-08 -4.58562e-07 0)
(1.11694e-08 -4.63543e-07 0)
(1.10879e-08 -4.68357e-07 0)
(1.10074e-08 -4.73011e-07 0)
(1.0928e-08 -4.77508e-07 0)
(1.08495e-08 -4.81856e-07 0)
(1.0772e-08 -4.86059e-07 0)
(1.06956e-08 -4.90121e-07 0)
(1.06201e-08 -4.94049e-07 0)
(1.05456e-08 -4.97846e-07 0)
(1.0472e-08 -5.01517e-07 0)
(1.03994e-08 -5.05066e-07 0)
(1.03277e-08 -5.08498e-07 0)
(1.02569e-08 -5.11816e-07 0)
(1.0187e-08 -5.15025e-07 0)
(1.0118e-08 -5.18128e-07 0)
(1.00498e-08 -5.21128e-07 0)
(9.98242e-09 -5.2403e-07 0)
(9.91582e-09 -5.26836e-07 0)
(9.84999e-09 -5.2955e-07 0)
(9.7849e-09 -5.32176e-07 0)
(9.72051e-09 -5.34715e-07 0)
(9.65681e-09 -5.3717e-07 0)
(9.59376e-09 -5.39546e-07 0)
(9.53133e-09 -5.41843e-07 0)
(9.46951e-09 -5.44066e-07 0)
(9.40822e-09 -5.46215e-07 0)
(9.34762e-09 -5.48297e-07 0)
(9.28686e-09 -5.50302e-07 0)
(9.22939e-09 -5.52279e-07 0)
(9.1604e-09 -5.54102e-07 0)
(9.09641e-09 -5.55892e-07 0)
(9.05316e-09 -5.57714e-07 0)
(9.01037e-09 -5.59398e-07 0)
(8.96778e-09 -5.61071e-07 0)
(8.92529e-09 -5.62757e-07 0)
(8.88287e-09 -5.64436e-07 0)
(8.84054e-09 -5.66093e-07 0)
(8.79828e-09 -5.6773e-07 0)
(8.7561e-09 -5.69352e-07 0)
(8.714e-09 -5.7096e-07 0)
(8.67198e-09 -5.72554e-07 0)
(8.63003e-09 -5.74132e-07 0)
(8.58817e-09 -5.75695e-07 0)
(8.54638e-09 -5.77244e-07 0)
(8.50468e-09 -5.78778e-07 0)
(8.46305e-09 -5.80297e-07 0)
(8.42151e-09 -5.81803e-07 0)
(8.38003e-09 -5.83293e-07 0)
(8.33871e-09 -5.84772e-07 0)
(8.29716e-09 -5.86229e-07 0)
(8.25695e-09 -5.87699e-07 0)
(8.21151e-09 -5.89077e-07 0)
(8.18866e-09 -5.90771e-07 0)
(8.07022e-09 -5.91792e-07 0)
(7.92403e-09 -5.92829e-07 0)
(7.88289e-09 -5.94519e-07 0)
(7.85137e-09 -5.95544e-07 0)
(7.82214e-09 -5.96481e-07 0)
(7.79337e-09 -5.97552e-07 0)
(7.76462e-09 -5.98689e-07 0)
(7.73578e-09 -5.99808e-07 0)
(7.70685e-09 -6.009e-07 0)
(7.67781e-09 -6.01987e-07 0)
(7.64866e-09 -6.03078e-07 0)
(7.61941e-09 -6.04171e-07 0)
(7.59004e-09 -6.05262e-07 0)
(7.56057e-09 -6.06349e-07 0)
(7.53098e-09 -6.07435e-07 0)
(7.50128e-09 -6.0852e-07 0)
(7.47148e-09 -6.09602e-07 0)
(7.44156e-09 -6.10683e-07 0)
(7.41154e-09 -6.11762e-07 0)
(7.3814e-09 -6.1284e-07 0)
(7.35115e-09 -6.13915e-07 0)
(7.32079e-09 -6.14988e-07 0)
(7.29033e-09 -6.1606e-07 0)
(7.25975e-09 -6.1713e-07 0)
(7.22907e-09 -6.18197e-07 0)
(7.19827e-09 -6.19263e-07 0)
(7.16737e-09 -6.20326e-07 0)
(7.13636e-09 -6.21387e-07 0)
(7.10525e-09 -6.22447e-07 0)
(7.07403e-09 -6.23504e-07 0)
(7.0427e-09 -6.24559e-07 0)
(7.01127e-09 -6.25612e-07 0)
(6.97973e-09 -6.26662e-07 0)
(6.94809e-09 -6.2771e-07 0)
(6.91634e-09 -6.28756e-07 0)
(6.8845e-09 -6.29799e-07 0)
(6.85255e-09 -6.30841e-07 0)
(6.8205e-09 -6.31879e-07 0)
(6.78835e-09 -6.32916e-07 0)
(6.75611e-09 -6.33949e-07 0)
(6.72376e-09 -6.34981e-07 0)
(6.69132e-09 -6.36009e-07 0)
(6.65878e-09 -6.37036e-07 0)
(6.62614e-09 -6.38059e-07 0)
(6.59341e-09 -6.3908e-07 0)
(6.56058e-09 -6.40098e-07 0)
(6.52766e-09 -6.41114e-07 0)
(6.49464e-09 -6.42127e-07 0)
(6.46153e-09 -6.43137e-07 0)
(6.42833e-09 -6.44144e-07 0)
(6.39504e-09 -6.45148e-07 0)
(6.36166e-09 -6.4615e-07 0)
(6.32819e-09 -6.47148e-07 0)
(6.29463e-09 -6.48144e-07 0)
(6.26098e-09 -6.49137e-07 0)
(6.22724e-09 -6.50126e-07 0)
(6.19341e-09 -6.51113e-07 0)
(6.1595e-09 -6.52096e-07 0)
(6.1255e-09 -6.53077e-07 0)
(6.09141e-09 -6.54054e-07 0)
(6.05725e-09 -6.55028e-07 0)
(6.02299e-09 -6.55999e-07 0)
(5.98865e-09 -6.56967e-07 0)
(5.95423e-09 -6.57931e-07 0)
(5.91972e-09 -6.58892e-07 0)
(5.88514e-09 -6.5985e-07 0)
(5.85046e-09 -6.60804e-07 0)
(5.81571e-09 -6.61755e-07 0)
(5.78088e-09 -6.62703e-07 0)
(5.74597e-09 -6.63647e-07 0)
(5.71097e-09 -6.64587e-07 0)
(5.6759e-09 -6.65524e-07 0)
(5.64074e-09 -6.66458e-07 0)
(5.60551e-09 -6.67387e-07 0)
(5.5702e-09 -6.68313e-07 0)
(5.53481e-09 -6.69236e-07 0)
(5.49934e-09 -6.70154e-07 0)
(5.46379e-09 -6.71069e-07 0)
(5.42817e-09 -6.7198e-07 0)
(5.39247e-09 -6.72887e-07 0)
(5.3567e-09 -6.73791e-07 0)
(5.32085e-09 -6.7469e-07 0)
(5.28492e-09 -6.75586e-07 0)
(5.24892e-09 -6.76477e-07 0)
(5.21284e-09 -6.77365e-07 0)
(5.17669e-09 -6.78248e-07 0)
(5.14047e-09 -6.79127e-07 0)
(5.10417e-09 -6.80002e-07 0)
(5.06781e-09 -6.80873e-07 0)
(5.03136e-09 -6.8174e-07 0)
(4.99485e-09 -6.82603e-07 0)
(4.95826e-09 -6.83461e-07 0)
(4.92161e-09 -6.84315e-07 0)
(4.88488e-09 -6.85165e-07 0)
(4.84808e-09 -6.8601e-07 0)
(4.81122e-09 -6.86851e-07 0)
(4.77428e-09 -6.87687e-07 0)
(4.73728e-09 -6.88519e-07 0)
(4.7002e-09 -6.89346e-07 0)
(4.66307e-09 -6.90169e-07 0)
(4.62586e-09 -6.90987e-07 0)
(4.58858e-09 -6.918e-07 0)
(4.55125e-09 -6.92609e-07 0)
(4.51384e-09 -6.93413e-07 0)
(4.47637e-09 -6.94212e-07 0)
(4.43884e-09 -6.95007e-07 0)
(4.40124e-09 -6.95796e-07 0)
(4.36358e-09 -6.96581e-07 0)
(4.32586e-09 -6.97361e-07 0)
(4.28808e-09 -6.98135e-07 0)
(4.25023e-09 -6.98905e-07 0)
(4.21232e-09 -6.9967e-07 0)
(4.17436e-09 -7.00429e-07 0)
(4.13634e-09 -7.01184e-07 0)
(4.09825e-09 -7.01933e-07 0)
(4.06011e-09 -7.02678e-07 0)
(4.02192e-09 -7.03416e-07 0)
(3.98367e-09 -7.0415e-07 0)
(3.94536e-09 -7.04878e-07 0)
(3.907e-09 -7.05601e-07 0)
(3.86858e-09 -7.06319e-07 0)
(3.83011e-09 -7.07031e-07 0)
(3.79159e-09 -7.07738e-07 0)
(3.75302e-09 -7.08439e-07 0)
(3.7144e-09 -7.09135e-07 0)
(3.67572e-09 -7.09825e-07 0)
(3.637e-09 -7.10509e-07 0)
(3.59824e-09 -7.11188e-07 0)
(3.55942e-09 -7.11861e-07 0)
(3.52056e-09 -7.12528e-07 0)
(3.48165e-09 -7.13189e-07 0)
(3.4427e-09 -7.13845e-07 0)
(3.40371e-09 -7.14495e-07 0)
(3.36467e-09 -7.15139e-07 0)
(3.32559e-09 -7.15776e-07 0)
(3.28648e-09 -7.16408e-07 0)
(3.24732e-09 -7.17034e-07 0)
(3.20812e-09 -7.17654e-07 0)
(3.16889e-09 -7.18268e-07 0)
(3.12962e-09 -7.18875e-07 0)
(3.09032e-09 -7.19477e-07 0)
(3.05098e-09 -7.20072e-07 0)
(3.01161e-09 -7.20661e-07 0)
(2.97221e-09 -7.21243e-07 0)
(2.93277e-09 -7.2182e-07 0)
(2.89331e-09 -7.22389e-07 0)
(2.85382e-09 -7.22953e-07 0)
(2.8143e-09 -7.2351e-07 0)
(2.77475e-09 -7.2406e-07 0)
(2.73518e-09 -7.24604e-07 0)
(2.69558e-09 -7.25142e-07 0)
(2.65596e-09 -7.25672e-07 0)
(2.61632e-09 -7.26197e-07 0)
(2.57666e-09 -7.26714e-07 0)
(2.53698e-09 -7.27225e-07 0)
(2.49728e-09 -7.27729e-07 0)
(2.45757e-09 -7.28226e-07 0)
(2.41783e-09 -7.28716e-07 0)
(2.37809e-09 -7.29199e-07 0)
(2.33833e-09 -7.29676e-07 0)
(2.29856e-09 -7.30145e-07 0)
(2.25878e-09 -7.30608e-07 0)
(2.21898e-09 -7.31063e-07 0)
(2.17919e-09 -7.31512e-07 0)
(2.13938e-09 -7.31953e-07 0)
(2.09957e-09 -7.32387e-07 0)
(2.05975e-09 -7.32814e-07 0)
(2.01993e-09 -7.33233e-07 0)
(1.98014e-09 -7.33648e-07 0)
(1.94018e-09 -7.34047e-07 0)
(1.90093e-09 -7.34466e-07 0)
(1.85872e-09 -7.34801e-07 0)
(1.82901e-09 -7.35452e-07 0)
(1.74641e-09 -7.35465e-07 0)
(1.64608e-09 -7.35569e-07 0)
(1.60561e-09 -7.36425e-07 0)
(1.57529e-09 -7.36683e-07 0)
(1.54711e-09 -7.36826e-07 0)
(1.51913e-09 -7.37084e-07 0)
(1.49088e-09 -7.37409e-07 0)
(1.46227e-09 -7.37722e-07 0)
(1.43326e-09 -7.38009e-07 0)
(1.40385e-09 -7.38288e-07 0)
(1.37405e-09 -7.38569e-07 0)
(1.34385e-09 -7.38849e-07 0)
(1.31326e-09 -7.39127e-07 0)
(1.28227e-09 -7.39399e-07 0)
(1.25088e-09 -7.39668e-07 0)
(1.21911e-09 -7.39933e-07 0)
(1.18694e-09 -7.40194e-07 0)
(1.15437e-09 -7.40451e-07 0)
(1.12142e-09 -7.40703e-07 0)
(1.08808e-09 -7.4095e-07 0)
(1.05435e-09 -7.41193e-07 0)
(1.02023e-09 -7.4143e-07 0)
(9.85728e-10 -7.41662e-07 0)
(9.50842e-10 -7.41888e-07 0)
(9.15575e-10 -7.42108e-07 0)
(8.79928e-10 -7.42323e-07 0)
(8.43902e-10 -7.4253e-07 0)
(8.07501e-10 -7.42732e-07 0)
(7.70726e-10 -7.42926e-07 0)
(7.33579e-10 -7.43113e-07 0)
(6.96063e-10 -7.43292e-07 0)
(6.5818e-10 -7.43464e-07 0)
(6.19933e-10 -7.43628e-07 0)
(5.81325e-10 -7.43783e-07 0)
(5.42358e-10 -7.4393e-07 0)
(5.03036e-10 -7.44068e-07 0)
(4.63362e-10 -7.44197e-07 0)
(4.23339e-10 -7.44316e-07 0)
(3.8297e-10 -7.44425e-07 0)
(3.4226e-10 -7.44524e-07 0)
(3.01212e-10 -7.44613e-07 0)
(2.59831e-10 -7.44691e-07 0)
(2.1812e-10 -7.44757e-07 0)
(1.76084e-10 -7.44813e-07 0)
(1.33727e-10 -7.44856e-07 0)
(9.1054e-11 -7.44887e-07 0)
(4.80705e-11 -7.44905e-07 0)
(4.78126e-12 -7.44911e-07 0)
(-3.88083e-11 -7.44902e-07 0)
(-8.26926e-11 -7.44881e-07 0)
(-1.26866e-10 -7.44845e-07 0)
(-1.71322e-10 -7.44795e-07 0)
(-2.16055e-10 -7.44729e-07 0)
(-2.61058e-10 -7.44649e-07 0)
(-3.06324e-10 -7.44552e-07 0)
(-3.51847e-10 -7.4444e-07 0)
(-3.97619e-10 -7.44311e-07 0)
(-4.43633e-10 -7.44165e-07 0)
(-4.89882e-10 -7.44001e-07 0)
(-5.36356e-10 -7.43819e-07 0)
(-5.83048e-10 -7.4362e-07 0)
(-6.2995e-10 -7.43401e-07 0)
(-6.77052e-10 -7.43163e-07 0)
(-7.24345e-10 -7.42905e-07 0)
(-7.71821e-10 -7.42628e-07 0)
(-8.1947e-10 -7.42329e-07 0)
(-8.67281e-10 -7.42009e-07 0)
(-9.15244e-10 -7.41668e-07 0)
(-9.6335e-10 -7.41305e-07 0)
(-1.01159e-09 -7.40918e-07 0)
(-1.05994e-09 -7.4051e-07 0)
(-1.10841e-09 -7.40077e-07 0)
(-1.15697e-09 -7.3962e-07 0)
(-1.20562e-09 -7.39138e-07 0)
(-1.25434e-09 -7.38632e-07 0)
(-1.30312e-09 -7.38099e-07 0)
(-1.35195e-09 -7.37541e-07 0)
(-1.4008e-09 -7.36956e-07 0)
(-1.44969e-09 -7.36343e-07 0)
(-1.49857e-09 -7.35703e-07 0)
(-1.54745e-09 -7.35035e-07 0)
(-1.59631e-09 -7.34337e-07 0)
(-1.64512e-09 -7.33611e-07 0)
(-1.69389e-09 -7.32854e-07 0)
(-1.74259e-09 -7.32068e-07 0)
(-1.7912e-09 -7.31249e-07 0)
(-1.83971e-09 -7.304e-07 0)
(-1.88811e-09 -7.29519e-07 0)
(-1.93637e-09 -7.28605e-07 0)
(-1.98448e-09 -7.27658e-07 0)
(-2.03243e-09 -7.26677e-07 0)
(-2.08018e-09 -7.25662e-07 0)
(-2.12774e-09 -7.24613e-07 0)
(-2.17507e-09 -7.23528e-07 0)
(-2.22216e-09 -7.22407e-07 0)
(-2.26899e-09 -7.2125e-07 0)
(-2.31554e-09 -7.20057e-07 0)
(-2.3618e-09 -7.18826e-07 0)
(-2.40774e-09 -7.17557e-07 0)
(-2.45333e-09 -7.1625e-07 0)
(-2.49858e-09 -7.14905e-07 0)
(-2.54344e-09 -7.13519e-07 0)
(-2.58791e-09 -7.12095e-07 0)
(-2.63195e-09 -7.1063e-07 0)
(-2.67556e-09 -7.09124e-07 0)
(-2.7187e-09 -7.07577e-07 0)
(-2.76136e-09 -7.05989e-07 0)
(-2.80352e-09 -7.04358e-07 0)
(-2.84515e-09 -7.02685e-07 0)
(-2.88624e-09 -7.00969e-07 0)
(-2.92676e-09 -6.9921e-07 0)
(-2.96668e-09 -6.97408e-07 0)
(-3.006e-09 -6.95561e-07 0)
(-3.04468e-09 -6.9367e-07 0)
(-3.0827e-09 -6.91734e-07 0)
(-3.12005e-09 -6.89753e-07 0)
(-3.1567e-09 -6.87727e-07 0)
(-3.19263e-09 -6.85656e-07 0)
(-3.22782e-09 -6.83538e-07 0)
(-3.26225e-09 -6.81375e-07 0)
(-3.29589e-09 -6.79165e-07 0)
(-3.32874e-09 -6.76908e-07 0)
(-3.36075e-09 -6.74605e-07 0)
(-3.39193e-09 -6.72255e-07 0)
(-3.42224e-09 -6.69857e-07 0)
(-3.45166e-09 -6.67413e-07 0)
(-3.48019e-09 -6.64921e-07 0)
(-3.50779e-09 -6.62382e-07 0)
(-3.53446e-09 -6.59795e-07 0)
(-3.56017e-09 -6.57162e-07 0)
(-3.5849e-09 -6.5448e-07 0)
(-3.60865e-09 -6.51751e-07 0)
(-3.63138e-09 -6.48975e-07 0)
(-3.6531e-09 -6.46151e-07 0)
(-3.67377e-09 -6.43281e-07 0)
(-3.69339e-09 -6.40363e-07 0)
(-3.71193e-09 -6.37398e-07 0)
(-3.7294e-09 -6.34387e-07 0)
(-3.74576e-09 -6.31328e-07 0)
(-3.76101e-09 -6.28224e-07 0)
(-3.77513e-09 -6.25074e-07 0)
(-3.78811e-09 -6.21878e-07 0)
(-3.79994e-09 -6.18637e-07 0)
(-3.81061e-09 -6.15351e-07 0)
(-3.82009e-09 -6.1202e-07 0)
(-3.82839e-09 -6.08645e-07 0)
(-3.83549e-09 -6.05227e-07 0)
(-3.84138e-09 -6.01765e-07 0)
(-3.84605e-09 -5.98262e-07 0)
(-3.84949e-09 -5.94716e-07 0)
(-3.85169e-09 -5.91129e-07 0)
(-3.85265e-09 -5.87502e-07 0)
(-3.85236e-09 -5.83835e-07 0)
(-3.8508e-09 -5.80128e-07 0)
(-3.84799e-09 -5.76385e-07 0)
(-3.84391e-09 -5.72603e-07 0)
(-3.83859e-09 -5.68786e-07 0)
(-3.83199e-09 -5.64932e-07 0)
(-3.82415e-09 -5.61045e-07 0)
(-3.81504e-09 -5.57123e-07 0)
(-3.80472e-09 -5.53171e-07 0)
(-3.79315e-09 -5.49184e-07 0)
(-3.78038e-09 -5.45171e-07 0)
(-3.76638e-09 -5.41124e-07 0)
(-3.75123e-09 -5.37054e-07 0)
(-3.73487e-09 -5.32953e-07 0)
(-3.7174e-09 -5.2883e-07 0)
(-3.69875e-09 -5.24678e-07 0)
(-3.67903e-09 -5.20508e-07 0)
(-3.65818e-09 -5.16311e-07 0)
(-3.63629e-09 -5.12099e-07 0)
(-3.6133e-09 -5.07861e-07 0)
(-3.58933e-09 -5.03611e-07 0)
(-3.5643e-09 -4.99338e-07 0)
(-3.53833e-09 -4.95056e-07 0)
(-3.51135e-09 -4.90753e-07 0)
(-3.48348e-09 -4.86443e-07 0)
(-3.45462e-09 -4.82121e-07 0)
(-3.42498e-09 -4.77771e-07 0)
(-3.39407e-09 -4.73477e-07 0)
(-3.36371e-09 -4.68872e-07 0)
(-3.32655e-09 -4.64838e-07 0)
(-3.27844e-09 -4.60219e-07 0)
(-3.2312e-09 -4.5446e-07 0)
(-3.18856e-09 -4.49333e-07 0)
(-3.14664e-09 -4.44332e-07 0)
(-3.10472e-09 -4.39302e-07 0)
(-3.06249e-09 -4.34277e-07 0)
(-3.02007e-09 -4.29344e-07 0)
(-2.97737e-09 -4.24489e-07 0)
(-2.93458e-09 -4.19717e-07 0)
(-2.89162e-09 -4.15e-07 0)
(-2.84867e-09 -4.10359e-07 0)
(-2.80563e-09 -4.05779e-07 0)
(-2.76268e-09 -4.01279e-07 0)
(-2.71972e-09 -3.96839e-07 0)
(-2.67693e-09 -3.92478e-07 0)
(-2.6342e-09 -3.88177e-07 0)
(-2.59169e-09 -3.83953e-07 0)
(-2.54931e-09 -3.7979e-07 0)
(-2.50719e-09 -3.75704e-07 0)
(-2.46524e-09 -3.71677e-07 0)
(-2.42359e-09 -3.67726e-07 0)
(-2.38216e-09 -3.63834e-07 0)
(-2.34105e-09 -3.60016e-07 0)
(-2.30018e-09 -3.56258e-07 0)
(-2.25966e-09 -3.52572e-07 0)
(-2.2194e-09 -3.48945e-07 0)
(-2.1795e-09 -3.4539e-07 0)
(-2.13987e-09 -3.41892e-07 0)
(-2.10061e-09 -3.38465e-07 0)
(-2.06163e-09 -3.35094e-07 0)
(-2.02301e-09 -3.31793e-07 0)
(-1.98469e-09 -3.28547e-07 0)
(-1.94674e-09 -3.2537e-07 0)
(-1.90907e-09 -3.22247e-07 0)
(-1.87178e-09 -3.19192e-07 0)
(-1.83477e-09 -3.1619e-07 0)
(-1.79814e-09 -3.13255e-07 0)
(-1.76179e-09 -3.10372e-07 0)
(-1.7258e-09 -3.07554e-07 0)
(-1.69011e-09 -3.04789e-07 0)
(-1.65477e-09 -3.02086e-07 0)
(-1.61973e-09 -2.99435e-07 0)
(-1.58503e-09 -2.96846e-07 0)
(-1.55063e-09 -2.94308e-07 0)
(-1.51656e-09 -2.91831e-07 0)
(-1.48278e-09 -2.89403e-07 0)
(-1.44933e-09 -2.87035e-07 0)
(-1.41617e-09 -2.84716e-07 0)
(-1.38332e-09 -2.82456e-07 0)
(-1.35074e-09 -2.80244e-07 0)
(-1.31848e-09 -2.78089e-07 0)
(-1.28648e-09 -2.75982e-07 0)
(-1.25477e-09 -2.7393e-07 0)
(-1.22331e-09 -2.71926e-07 0)
(-1.19213e-09 -2.69977e-07 0)
(-1.16119e-09 -2.68075e-07 0)
(-1.13051e-09 -2.66226e-07 0)
(-1.10005e-09 -2.64423e-07 0)
(-1.06984e-09 -2.62673e-07 0)
(-1.03985e-09 -2.60968e-07 0)
(-1.01008e-09 -2.59316e-07 0)
(-9.80502e-10 -2.57708e-07 0)
(-9.51139e-10 -2.56152e-07 0)
(-9.21958e-10 -2.5464e-07 0)
(-8.92973e-10 -2.53178e-07 0)
(-8.64155e-10 -2.5176e-07 0)
(-8.35517e-10 -2.50393e-07 0)
(-8.07031e-10 -2.49068e-07 0)
(-7.78711e-10 -2.47793e-07 0)
(-7.50527e-10 -2.46561e-07 0)
(-7.22495e-10 -2.45378e-07 0)
(-6.94582e-10 -2.44237e-07 0)
(-6.66804e-10 -2.43145e-07 0)
(-6.39127e-10 -2.42094e-07 0)
(-6.11566e-10 -2.41092e-07 0)
(-5.84086e-10 -2.40131e-07 0)
(-5.56696e-10 -2.39219e-07 0)
(-5.29364e-10 -2.38347e-07 0)
(-5.02089e-10 -2.37523e-07 0)
(-4.74846e-10 -2.36741e-07 0)
(-4.47624e-10 -2.36005e-07 0)
(-4.20407e-10 -2.35312e-07 0)
(-3.93185e-10 -2.34664e-07 0)
(-3.65956e-10 -2.34061e-07 0)
(-3.38742e-10 -2.33503e-07 0)
(-3.11582e-10 -2.32988e-07 0)
(-2.84568e-10 -2.32516e-07 0)
(-2.57839e-10 -2.32104e-07 0)
(-2.31551e-10 -2.31673e-07 0)
(-2.0605e-10 -2.31503e-07 0)
(-1.80785e-10 -2.30613e-07 0)
(-1.57801e-10 -2.32215e-07 0)
(-1.26459e-10 -2.25068e-07 0)
(-1.25207e-10 -2.4335e-07 0)
(-7.25614e-11 -2.12373e-07 0)
)
;
    }
    bottomWall
    {
        type            calculated;
        value           nonuniform List<vector> 
449
(
(-53.5084 -0.963124 0)
(-35.0818 -0.00280521 0)
(-35.123 -0.000202457 0)
(-33.6739 -0.000413826 0)
(-32.2604 -0.000408661 0)
(-30.8539 -0.000384207 0)
(-29.6164 -0.000331868 0)
(-28.5711 -0.000278709 0)
(-27.6975 -0.000234591 0)
(-26.9534 -0.000200071 0)
(-26.3153 -0.000172632 0)
(-25.7583 -0.000150805 0)
(-25.2693 -0.000132216 0)
(-24.8399 -0.000115663 0)
(-24.4643 -0.000103606 0)
(-24.1168 -9.36391e-05 0)
(-23.8096 -8.41309e-05 0)
(-23.5274 -7.72932e-05 0)
(-23.2667 -7.06204e-05 0)
(-23.0306 -6.41507e-05 0)
(-22.8145 -5.92277e-05 0)
(-22.6122 -5.44299e-05 0)
(-22.4292 -5.09815e-05 0)
(-22.2503 -4.75943e-05 0)
(-22.091 -4.29504e-05 0)
(-21.9448 -3.97235e-05 0)
(-21.8077 -3.73614e-05 0)
(-21.6777 -3.51704e-05 0)
(-21.5555 -3.38766e-05 0)
(-21.4341 -3.20223e-05 0)
(-21.3251 -2.90202e-05 0)
(-21.2251 -2.72189e-05 0)
(-21.1284 -2.61342e-05 0)
(-21.0356 -2.52209e-05 0)
(-20.945 -2.43706e-05 0)
(-20.8581 -2.27671e-05 0)
(-20.779 -2.14808e-05 0)
(-20.7011 -2.06797e-05 0)
(-20.6276 -1.91508e-05 0)
(-20.5608 -1.77262e-05 0)
(-20.4975 -1.68936e-05 0)
(-20.4364 -1.64428e-05 0)
(-20.3758 -1.6018e-05 0)
(-20.3175 -1.53039e-05 0)
(-20.262 -1.49191e-05 0)
(-20.2061 -1.48434e-05 0)
(-20.1509 -1.43772e-05 0)
(-20.0983 -1.39737e-05 0)
(-20.0459 -1.3324e-05 0)
(-19.9982 -1.23844e-05 0)
(-19.9527 -1.2044e-05 0)
(-19.9071 -1.21346e-05 0)
(-19.8607 -1.13783e-05 0)
(-19.8211 -1.01548e-05 0)
(-19.7837 -1.01146e-05 0)
(-19.7439 -9.99749e-06 0)
(-19.7073 -9.7709e-06 0)
(-19.6691 -9.32562e-06 0)
(-19.6358 -9.11157e-06 0)
(-19.5989 -9.13203e-06 0)
(-19.5654 -8.78627e-06 0)
(-19.531 -8.6989e-06 0)
(-19.498 -7.84455e-06 0)
(-19.4704 -6.91892e-06 0)
(-19.4444 -6.88135e-06 0)
(-19.4168 -7.11303e-06 0)
(-19.3888 -6.81332e-06 0)
(-19.3636 -6.28183e-06 0)
(-19.3396 -6.5224e-06 0)
(-19.3121 -6.74844e-06 0)
(-19.2863 -6.18092e-06 0)
(-19.2634 -5.69323e-06 0)
(-19.2414 -5.84079e-06 0)
(-19.2169 -6.29854e-06 0)
(-19.1909 -6.14831e-06 0)
(-19.1676 -6.42736e-06 0)
(-19.1391 -6.63796e-06 0)
(-19.1141 -5.97515e-06 0)
(-19.0913 -5.30539e-06 0)
(-19.0718 -4.89817e-06 0)
(-19.052 -4.9304e-06 0)
(-19.0319 -5.12813e-06 0)
(-19.0103 -5.26725e-06 0)
(-18.989 -4.99974e-06 0)
(-18.9697 -4.4754e-06 0)
(-18.9528 -3.67465e-06 0)
(-18.94 -3.45498e-06 0)
(-18.9244 -4.39235e-06 0)
(-18.9035 -4.74319e-06 0)
(-18.8852 -4.64272e-06 0)
(-18.8652 -4.69361e-06 0)
(-18.8465 -4.34339e-06 0)
(-18.8295 -4.22378e-06 0)
(-18.8117 -3.95951e-06 0)
(-18.7969 -3.17441e-06 0)
(-18.7856 -3.09362e-06 0)
(-18.7711 -3.58899e-06 0)
(-18.7554 -3.84315e-06 0)
(-18.7387 -3.86228e-06 0)
(-18.7229 -3.61717e-06 0)
(-18.7084 -3.55831e-06 0)
(-18.6928 -3.63278e-06 0)
(-18.6776 -3.05147e-06 0)
(-18.6673 -2.37406e-06 0)
(-18.6576 -2.21086e-06 0)
(-18.6486 -1.97117e-06 0)
(-18.6411 -1.85443e-06 0)
(-18.6328 -2.52296e-06 0)
(-18.6192 -3.07685e-06 0)
(-18.6061 -3.21351e-06 0)
(-18.5913 -3.35051e-06 0)
(-18.5771 -2.96253e-06 0)
(-18.5659 -2.88916e-06 0)
(-18.5522 -2.65599e-06 0)
(-18.543 -1.92785e-06 0)
(-18.5358 -1.89713e-06 0)
(-18.5265 -2.39793e-06 0)
(-18.5146 -2.41314e-06 0)
(-18.5055 -1.73446e-06 0)
(-18.4997 -1.61862e-06 0)
(-18.4912 -2.18265e-06 0)
(-18.4801 -2.36291e-06 0)
(-18.4702 -2.48636e-06 0)
(-18.4579 -2.93239e-06 0)
(-18.4438 -2.76037e-06 0)
(-18.4334 -2.02837e-06 0)
(-18.426 -1.81179e-06 0)
(-18.4174 -1.60734e-06 0)
(-18.4118 -1.32646e-06 0)
(-18.4056 -1.48523e-06 0)
(-18.3984 -1.82541e-06 0)
(-18.389 -1.96476e-06 0)
(-18.3808 -1.62813e-06 0)
(-18.3744 -1.80276e-06 0)
(-18.3642 -2.02878e-06 0)
(-18.3559 -1.66876e-06 0)
(-18.3492 -1.63004e-06 0)
(-18.3412 -1.53707e-06 0)
(-18.3352 -1.43574e-06 0)
(-18.3281 -1.57254e-06 0)
(-18.321 -1.32565e-06 0)
(-18.3162 -9.39453e-07 0)
(-18.3125 -1.07509e-06 0)
(-18.3062 -1.38398e-06 0)
(-18.2996 -1.17221e-06 0)
(-18.2954 -1.10169e-06 0)
(-18.2893 -1.3419e-06 0)
(-18.2828 -1.36793e-06 0)
(-18.2766 -1.39775e-06 0)
(-18.2697 -1.64053e-06 0)
(-18.2612 -1.63568e-06 0)
(-18.2543 -1.49926e-06 0)
(-18.247 -1.53089e-06 0)
(-18.2399 -1.23548e-06 0)
(-18.2355 -9.95635e-07 0)
(-18.2306 -1.10144e-06 0)
(-18.225 -1.03377e-06 0)
(-18.2209 -7.03449e-07 0)
(-18.2185 -5.51204e-07 0)
(-18.2156 -8.03285e-07 0)
(-18.2107 -9.34331e-07 0)
(-18.2067 -9.6529e-07 0)
(-18.2014 -1.25377e-06 0)
(-18.1945 -1.10724e-06 0)
(-18.1907 -7.90329e-07 0)
(-18.1868 -1.09494e-06 0)
(-18.18 -1.12035e-06 0)
(-18.1759 -7.68217e-07 0)
(-18.1725 -7.85662e-07 0)
(-18.1683 -7.56312e-07 0)
(-18.1654 -3.96378e-07 0)
(-18.1647 -2.59e-07 0)
(-18.1629 -5.66878e-07 0)
(-18.1592 -9.13773e-07 0)
(-18.1545 -1.06172e-06 0)
(-18.1497 -9.64843e-07 0)
(-18.146 -7.54468e-07 0)
(-18.143 -5.3441e-07 0)
(-18.1412 -4.16599e-07 0)
(-18.1393 -4.33693e-07 0)
(-18.1372 -2.94079e-07 0)
(-18.1366 -2.63146e-07 0)
(-18.1346 -6.88072e-07 0)
(-18.1297 -8.3197e-07 0)
(-18.1266 -4.70657e-07 0)
(-18.1254 -2.74272e-07 0)
(-18.1241 -2.88767e-07 0)
(-18.1225 -5.03726e-07 0)
(-18.1187 -8.54253e-07 0)
(-18.1135 -7.30871e-07 0)
(-18.1111 -4.21038e-07 0)
(-18.1091 -4.38123e-07 0)
(-18.1065 -6.26754e-07 0)
(-18.1024 -5.83504e-07 0)
(-18.1002 -3.49026e-07 0)
(-18.0986 -2.49038e-07 0)
(-18.0975 -2.6477e-07 0)
(-18.0956 -4.12375e-07 0)
(-18.0927 -5.23468e-07 0)
(-18.0894 -6.23907e-07 0)
(-18.0852 -6.32293e-07 0)
(-18.082 -6.23866e-07 0)
(-18.0778 -5.81145e-07 0)
(-18.075 -3.91097e-07 0)
(-18.0732 -2.40917e-07 0)
(-18.0722 -3.6676e-07 0)
(-18.0685 -6.10901e-07 0)
(-18.0642 -6.32292e-07 0)
(-18.0602 -7.88483e-07 0)
(-18.0539 -8.36733e-07 0)
(-18.0494 -5.19657e-07 0)
(-18.0472 -3.0277e-07 0)
(-18.0454 -4.19564e-07 0)
(-18.0414 -6.29224e-07 0)
(-18.0367 -6.35201e-07 0)
(-18.0327 -5.10177e-07 0)
(-18.0298 -3.14284e-07 0)
(-18.0285 -2.71604e-07 0)
(-18.0259 -4.14376e-07 0)
(-18.0225 -3.81333e-07 0)
(-18.0205 -2.55012e-07 0)
(-18.0188 -2.45068e-07 0)
(-18.0168 -3.29882e-07 0)
(-18.0139 -3.55443e-07 0)
(-18.0115 -3.0874e-07 0)
(-18.0092 -3.1783e-07 0)
(-18.0066 -3.0118e-07 0)
(-18.0045 -2.5636e-07 0)
(-18.0026 -2.18667e-07 0)
(-18.001 -2.50605e-07 0)
(-17.9984 -2.4631e-07 0)
(-17.9969 -1.89414e-07 0)
(-17.9952 -3.56544e-07 0)
(-17.9907 -5.14191e-07 0)
(-17.9863 -4.35396e-07 0)
(-17.9831 -4.45548e-07 0)
(-17.9785 -4.27511e-07 0)
(-17.9757 -2.50606e-07 0)
(-17.9742 -2.03131e-07 0)
(-17.9721 -3.20799e-07 0)
(-17.9682 -4.20839e-07 0)
(-17.9642 -4.09216e-07 0)
(-17.9606 -3.80792e-07 0)
(-17.9571 -3.05535e-07 0)
(-17.9549 -2.14124e-07 0)
(-17.9531 -2.29843e-07 0)
(-17.9504 -3.05584e-07 0)
(-17.9471 -2.49524e-07 0)
(-17.9455 -1.64057e-07 0)
(-17.9437 -2.86274e-07 0)
(-17.9395 -4.53311e-07 0)
(-17.9343 -4.84071e-07 0)
(-17.9295 -3.85804e-07 0)
(-17.9263 -2.64208e-07 0)
(-17.924 -1.83101e-07 0)
(-17.9226 -1.43403e-07 0)
(-17.9211 -1.93743e-07 0)
(-17.9183 -3.77003e-07 0)
(-17.9124 -5.16279e-07 0)
(-17.9065 -3.50948e-07 0)
(-17.9046 -1.29417e-07 0)
(-17.9037 -1.07829e-07 0)
(-17.9021 -2.10332e-07 0)
(-17.8987 -2.53783e-07 0)
(-17.8961 -2.8654e-07 0)
(-17.8918 -3.03371e-07 0)
(-17.8888 -1.85529e-07 0)
(-17.8874 -1.28166e-07 0)
(-17.8857 -2.4125e-07 0)
(-17.8813 -3.39625e-07 0)
(-17.877 -3.17408e-07 0)
(-17.8732 -2.22302e-07 0)
(-17.8713 -1.2748e-07 0)
(-17.87 -1.90888e-07 0)
(-17.8663 -2.80642e-07 0)
(-17.8625 -2.43837e-07 0)
(-17.8598 -2.22211e-07 0)
(-17.8565 -2.52015e-07 0)
(-17.853 -1.91664e-07 0)
(-17.8513 -1.46437e-07 0)
(-17.849 -1.74326e-07 0)
(-17.8464 -1.96055e-07 0)
(-17.8434 -1.60756e-07 0)
(-17.8418 -1.22998e-07 0)
(-17.8398 -1.78465e-07 0)
(-17.8366 -1.74764e-07 0)
(-17.8348 -1.07955e-07 0)
(-17.8335 -1.15042e-07 0)
(-17.8313 -1.89701e-07 0)
(-17.8276 -2.4212e-07 0)
(-17.8237 -2.41225e-07 0)
(-17.8199 -2.5928e-07 0)
(-17.8153 -2.47164e-07 0)
(-17.812 -1.63098e-07 0)
(-17.8102 -1.64228e-07 0)
(-17.8067 -1.61458e-07 0)
(-17.805 -6.98488e-08 0)
(-17.8047 -5.13633e-08 0)
(-17.8035 -4.9735e-08 0)
(-17.8031 -5.4043e-08 0)
(-17.8017 -1.13301e-07 0)
(-17.7991 -1.03807e-07 0)
(-17.798 -9.59744e-08 0)
(-17.7955 -2.13897e-07 0)
(-17.79 -2.72872e-07 0)
(-17.7855 -2.14882e-07 0)
(-17.7822 -1.71499e-07 0)
(-17.7793 -1.21603e-07 0)
(-17.7778 -7.25094e-08 0)
(-17.7766 -9.2679e-08 0)
(-17.7741 -1.18692e-07 0)
(-17.7719 -8.98715e-08 0)
(-17.7706 -1.15782e-07 0)
(-17.7672 -1.59896e-07 0)
(-17.7642 -1.00967e-07 0)
(-17.7633 -5.37672e-08 0)
(-17.7621 -5.93177e-08 0)
(-17.7609 -5.7283e-08 0)
(-17.7598 -9.82343e-08 0)
(-17.7567 -1.07519e-07 0)
(-17.755 -9.07575e-08 0)
(-17.7526 -1.49119e-07 0)
(-17.7484 -1.48081e-07 0)
(-17.7461 -6.88017e-08 0)
(-17.7455 -6.52138e-08 0)
(-17.7433 -9.57194e-08 0)
(-17.7411 -7.99354e-08 0)
(-17.7396 -8.94274e-08 0)
(-17.7369 -1.06426e-07 0)
(-17.7344 -1.22806e-07 0)
(-17.7309 -1.3613e-07 0)
(-17.7279 -7.87925e-08 0)
(-17.7273 9.51527e-09 0)
(-17.7288 1.78293e-08 0)
(-17.7284 -4.28338e-08 0)
(-17.7266 -9.49071e-08 0)
(-17.7235 -8.12184e-08 0)
(-17.7223 -3.1793e-08 0)
(-17.7219 -4.01789e-08 0)
(-17.7202 -3.41688e-08 0)
(-17.7201 -3.0072e-08 0)
(-17.7186 -8.80384e-08 0)
(-17.7152 -1.19134e-07 0)
(-17.712 -8.99708e-08 0)
(-17.7103 -2.8665e-08 0)
(-17.7107 -1.03155e-08 0)
(-17.7099 -3.92219e-08 0)
(-17.7085 -3.86528e-08 0)
(-17.7077 -2.1561e-08 0)
(-17.7072 -2.50507e-08 0)
(-17.7062 -2.47096e-08 0)
(-17.7058 -1.69408e-08 0)
(-17.7052 -3.56261e-08 0)
(-17.7036 -3.67277e-08 0)
(-17.7029 -4.51216e-08 0)
(-17.7001 -8.18969e-08 0)
(-17.6965 -6.80755e-08 0)
(-17.695 -4.966e-08 0)
(-17.6928 -6.56947e-08 0)
(-17.6899 -6.40085e-08 0)
(-17.688 -4.38545e-08 0)
(-17.6867 -1.92855e-08 0)
(-17.6866 1.70136e-09 0)
(-17.687 -2.17546e-09 0)
(-17.6865 -1.13941e-08 0)
(-17.6861 -1.76896e-08 0)
(-17.6852 -1.95467e-08 0)
(-17.6846 -2.15646e-08 0)
(-17.6835 -4.08972e-08 0)
(-17.6815 -4.74474e-08 0)
(-17.6799 -3.11154e-08 0)
(-17.6792 -1.6096e-08 0)
(-17.6787 -9.37561e-09 0)
(-17.6785 -3.3067e-09 0)
(-17.6785 -6.71072e-09 0)
(-17.678 -3.67581e-08 0)
(-17.6756 -5.2663e-08 0)
(-17.6739 -4.45021e-08 0)
(-17.6722 -2.99262e-08 0)
(-17.6716 -1.06322e-08 0)
(-17.6715 -5.00352e-09 0)
(-17.6713 -1.0303e-08 0)
(-17.6707 -2.58109e-08 0)
(-17.6693 -3.37129e-08 0)
(-17.6681 -2.73048e-08 0)
(-17.6673 -1.6584e-08 0)
(-17.667 -1.51539e-08 0)
(-17.6662 5.59563e-10 0)
(-17.6671 1.8957e-08 0)
(-17.6677 -2.89476e-09 0)
(-17.6668 -1.34905e-08 0)
(-17.6666 -2.11149e-08 0)
(-17.6651 -3.37073e-08 0)
(-17.664 -2.59289e-08 0)
(-17.6632 -2.11663e-08 0)
(-17.6624 -2.22419e-08 0)
(-17.6614 -1.54665e-08 0)
(-17.6612 -1.53111e-09 0)
(-17.6614 1.79474e-08 0)
(-17.6627 2.42888e-08 0)
(-17.6633 7.70524e-09 0)
(-17.6632 -8.29525e-09 0)
(-17.6626 -2.00948e-09 0)
(-17.6631 5.8153e-09 0)
(-17.6631 -1.44613e-08 0)
(-17.662 -2.92048e-08 0)
(-17.6608 -3.77656e-08 0)
(-17.659 -2.79102e-08 0)
(-17.6587 -1.6485e-08 0)
(-17.6578 -3.51084e-08 0)
(-17.656 -1.92344e-08 0)
(-17.6563 4.07184e-09 0)
(-17.6563 -1.22168e-09 0)
(-17.6563 1.82474e-08 0)
(-17.6579 3.70159e-08 0)
(-17.6592 2.78689e-08 0)
(-17.66 4.40326e-10 0)
(-17.6592 -3.74795e-08 0)
(-17.657 -4.31185e-08 0)
(-17.6558 -2.91053e-08 0)
(-17.6548 -2.49737e-08 0)
(-17.654 -9.24777e-09 0)
(-17.6542 2.03799e-09 0)
(-17.6542 1.14245e-08 0)
(-17.6551 3.38194e-08 0)
(-17.6569 1.4782e-08 0)
(-17.6563 -1.4532e-08 0)
(-17.6557 -2.37304e-08 0)
(-17.6543 -4.80356e-08 0)
(-17.6518 -5.58502e-08 0)
(-17.65 -3.12282e-08 0)
(-17.6495 -1.45431e-08 0)
(-17.6489 -1.40842e-09 0)
(-17.6495 8.49116e-09 0)
(-17.6497 1.21016e-08 0)
(-17.6505 1.20642e-08 0)
(-17.6506 -1.29283e-08 0)
(-17.6494 -2.37233e-08 0)
(-17.6487 -5.42138e-09 0)
(-17.649 1.39067e-08 0)
(-17.6499 1.12183e-08 0)
(-17.6499 -2.83173e-10 0)
(-17.6498 -6.67498e-09 0)
(-17.6493 -2.37446e-08 0)
(-17.6479 -2.77955e-08 0)
(-17.6471 -1.39628e-08 0)
(-17.6468 -1.79286e-09 0)
(-17.6471 1.65895e-08 0)
(-17.6482 1.36737e-08 0)
)
;
    }
    symmetry
    {
        type            symmetryPlane;
    }
    frontAndBack
    {
        type            empty;
    }
}


// ************************************************************************* //
