/*--------------------------------*- C++ -*----------------------------------*\
| =========                 |                                                 |
| \\      /  F ield         | OpenFOAM: The Open Source CFD Toolbox           |
|  \\    /   O peration     | Version:  v2012                                 |
|   \\  /    A nd           | Website:  www.openfoam.com                      |
|    \\/     M anipulation  |                                                 |
\*---------------------------------------------------------------------------*/
FoamFile
{
    version     2.0;
    format      ascii;
    class       volVectorField;
    location    "40.5";
    object      wallShearStress;
}
// * * * * * * * * * * * * * * * * * * * * * * * * * * * * * * * * * * * * * //

dimensions      [0 2 -2 0 0 0 0];


internalField   uniform (0 0 0);

boundaryField
{
    inlet
    {
        type            calculated;
        value           uniform (0 0 0);
    }
    outlet
    {
        type            calculated;
        value           uniform (0 0 0);
    }
    topWall
    {
        type            calculated;
        value           nonuniform List<vector> 
545
(
(1.48706e-08 -1.04676e-08 0)
(1.48638e-08 -2.92845e-08 0)
(1.485e-08 -4.88497e-08 0)
(1.48296e-08 -6.78411e-08 0)
(1.48034e-08 -8.60115e-08 0)
(1.47722e-08 -1.03592e-07 0)
(1.47362e-08 -1.20731e-07 0)
(1.4696e-08 -1.37419e-07 0)
(1.46518e-08 -1.53618e-07 0)
(1.46041e-08 -1.69327e-07 0)
(1.45532e-08 -1.84566e-07 0)
(1.44995e-08 -1.99352e-07 0)
(1.44433e-08 -2.13696e-07 0)
(1.43848e-08 -2.27607e-07 0)
(1.43244e-08 -2.41094e-07 0)
(1.42622e-08 -2.54169e-07 0)
(1.41986e-08 -2.66843e-07 0)
(1.41337e-08 -2.79128e-07 0)
(1.40678e-08 -2.91033e-07 0)
(1.40011e-08 -3.0257e-07 0)
(1.39336e-08 -3.13749e-07 0)
(1.38656e-08 -3.2458e-07 0)
(1.37973e-08 -3.35075e-07 0)
(1.37287e-08 -3.45241e-07 0)
(1.36601e-08 -3.55091e-07 0)
(1.35914e-08 -3.64632e-07 0)
(1.35229e-08 -3.73875e-07 0)
(1.34546e-08 -3.82829e-07 0)
(1.33866e-08 -3.91503e-07 0)
(1.3319e-08 -3.99906e-07 0)
(1.32518e-08 -4.08045e-07 0)
(1.31853e-08 -4.1593e-07 0)
(1.31192e-08 -4.23569e-07 0)
(1.30539e-08 -4.30969e-07 0)
(1.29892e-08 -4.38139e-07 0)
(1.29253e-08 -4.45084e-07 0)
(1.28622e-08 -4.51814e-07 0)
(1.27999e-08 -4.58334e-07 0)
(1.27385e-08 -4.64651e-07 0)
(1.26779e-08 -4.70773e-07 0)
(1.26182e-08 -4.76705e-07 0)
(1.25594e-08 -4.82453e-07 0)
(1.25016e-08 -4.88024e-07 0)
(1.24447e-08 -4.93424e-07 0)
(1.23888e-08 -4.98657e-07 0)
(1.23338e-08 -5.03729e-07 0)
(1.22798e-08 -5.08646e-07 0)
(1.22268e-08 -5.13413e-07 0)
(1.21747e-08 -5.18033e-07 0)
(1.21237e-08 -5.22513e-07 0)
(1.20736e-08 -5.26857e-07 0)
(1.20244e-08 -5.31069e-07 0)
(1.19763e-08 -5.35153e-07 0)
(1.19291e-08 -5.39114e-07 0)
(1.18828e-08 -5.42955e-07 0)
(1.18376e-08 -5.46681e-07 0)
(1.17932e-08 -5.50294e-07 0)
(1.17498e-08 -5.53799e-07 0)
(1.17073e-08 -5.572e-07 0)
(1.16657e-08 -5.60499e-07 0)
(1.1625e-08 -5.63699e-07 0)
(1.15852e-08 -5.66805e-07 0)
(1.15462e-08 -5.69818e-07 0)
(1.15081e-08 -5.72742e-07 0)
(1.14709e-08 -5.7558e-07 0)
(1.14345e-08 -5.78333e-07 0)
(1.13989e-08 -5.81006e-07 0)
(1.13642e-08 -5.83601e-07 0)
(1.13302e-08 -5.86119e-07 0)
(1.1297e-08 -5.88564e-07 0)
(1.12646e-08 -5.90938e-07 0)
(1.12331e-08 -5.93239e-07 0)
(1.12025e-08 -5.95451e-07 0)
(1.11725e-08 -5.97594e-07 0)
(1.11427e-08 -5.99711e-07 0)
(1.11131e-08 -6.01816e-07 0)
(1.10835e-08 -6.03909e-07 0)
(1.1054e-08 -6.05988e-07 0)
(1.10246e-08 -6.0805e-07 0)
(1.09952e-08 -6.10097e-07 0)
(1.09659e-08 -6.12129e-07 0)
(1.09366e-08 -6.14147e-07 0)
(1.09074e-08 -6.1615e-07 0)
(1.08783e-08 -6.18139e-07 0)
(1.08492e-08 -6.20113e-07 0)
(1.08201e-08 -6.22073e-07 0)
(1.07912e-08 -6.24019e-07 0)
(1.07623e-08 -6.25951e-07 0)
(1.07335e-08 -6.27869e-07 0)
(1.07047e-08 -6.29773e-07 0)
(1.0676e-08 -6.31663e-07 0)
(1.06474e-08 -6.33539e-07 0)
(1.06188e-08 -6.35403e-07 0)
(1.05904e-08 -6.37251e-07 0)
(1.05617e-08 -6.3909e-07 0)
(1.05345e-08 -6.40896e-07 0)
(1.05094e-08 -6.42549e-07 0)
(1.04851e-08 -6.44045e-07 0)
(1.04617e-08 -6.455e-07 0)
(1.04383e-08 -6.4696e-07 0)
(1.0415e-08 -6.48432e-07 0)
(1.03916e-08 -6.49906e-07 0)
(1.0368e-08 -6.51378e-07 0)
(1.03444e-08 -6.52848e-07 0)
(1.03207e-08 -6.54319e-07 0)
(1.02969e-08 -6.5579e-07 0)
(1.0273e-08 -6.57262e-07 0)
(1.0249e-08 -6.58733e-07 0)
(1.0225e-08 -6.60204e-07 0)
(1.02008e-08 -6.61676e-07 0)
(1.01765e-08 -6.63147e-07 0)
(1.01522e-08 -6.64618e-07 0)
(1.01277e-08 -6.6609e-07 0)
(1.01032e-08 -6.67561e-07 0)
(1.00785e-08 -6.69032e-07 0)
(1.00538e-08 -6.70503e-07 0)
(1.0029e-08 -6.71973e-07 0)
(1.0004e-08 -6.73444e-07 0)
(9.97901e-09 -6.74914e-07 0)
(9.9539e-09 -6.76384e-07 0)
(9.92869e-09 -6.77854e-07 0)
(9.90339e-09 -6.79324e-07 0)
(9.87799e-09 -6.80793e-07 0)
(9.8525e-09 -6.82262e-07 0)
(9.82691e-09 -6.83731e-07 0)
(9.80123e-09 -6.85199e-07 0)
(9.77546e-09 -6.86667e-07 0)
(9.74959e-09 -6.88134e-07 0)
(9.72362e-09 -6.89601e-07 0)
(9.69756e-09 -6.91068e-07 0)
(9.67141e-09 -6.92534e-07 0)
(9.64516e-09 -6.93999e-07 0)
(9.61882e-09 -6.95464e-07 0)
(9.59238e-09 -6.96929e-07 0)
(9.56584e-09 -6.98392e-07 0)
(9.53921e-09 -6.99855e-07 0)
(9.51249e-09 -7.01318e-07 0)
(9.48567e-09 -7.0278e-07 0)
(9.45876e-09 -7.04241e-07 0)
(9.43175e-09 -7.05701e-07 0)
(9.40465e-09 -7.07161e-07 0)
(9.37745e-09 -7.0862e-07 0)
(9.35016e-09 -7.10078e-07 0)
(9.32277e-09 -7.11535e-07 0)
(9.29528e-09 -7.12992e-07 0)
(9.26771e-09 -7.14447e-07 0)
(9.24004e-09 -7.15902e-07 0)
(9.21227e-09 -7.17356e-07 0)
(9.18441e-09 -7.18809e-07 0)
(9.15645e-09 -7.2026e-07 0)
(9.1284e-09 -7.21711e-07 0)
(9.10026e-09 -7.23161e-07 0)
(9.07202e-09 -7.24609e-07 0)
(9.04368e-09 -7.26057e-07 0)
(9.01525e-09 -7.27503e-07 0)
(8.98673e-09 -7.28948e-07 0)
(8.95812e-09 -7.30392e-07 0)
(8.92941e-09 -7.31835e-07 0)
(8.9006e-09 -7.33277e-07 0)
(8.8717e-09 -7.34717e-07 0)
(8.84271e-09 -7.36156e-07 0)
(8.81363e-09 -7.37593e-07 0)
(8.78445e-09 -7.3903e-07 0)
(8.75518e-09 -7.40465e-07 0)
(8.72582e-09 -7.41898e-07 0)
(8.69636e-09 -7.4333e-07 0)
(8.66681e-09 -7.44761e-07 0)
(8.63716e-09 -7.4619e-07 0)
(8.60743e-09 -7.47617e-07 0)
(8.5776e-09 -7.49043e-07 0)
(8.54768e-09 -7.50467e-07 0)
(8.51767e-09 -7.5189e-07 0)
(8.48756e-09 -7.53311e-07 0)
(8.45737e-09 -7.5473e-07 0)
(8.42708e-09 -7.56147e-07 0)
(8.3967e-09 -7.57563e-07 0)
(8.36623e-09 -7.58977e-07 0)
(8.33567e-09 -7.60389e-07 0)
(8.30502e-09 -7.618e-07 0)
(8.27428e-09 -7.63208e-07 0)
(8.24345e-09 -7.64614e-07 0)
(8.21253e-09 -7.66019e-07 0)
(8.18152e-09 -7.67421e-07 0)
(8.15041e-09 -7.68822e-07 0)
(8.11922e-09 -7.7022e-07 0)
(8.08794e-09 -7.71617e-07 0)
(8.05658e-09 -7.73011e-07 0)
(8.02512e-09 -7.74403e-07 0)
(7.99358e-09 -7.75793e-07 0)
(7.96194e-09 -7.77181e-07 0)
(7.93022e-09 -7.78566e-07 0)
(7.89842e-09 -7.79949e-07 0)
(7.86652e-09 -7.8133e-07 0)
(7.83454e-09 -7.82708e-07 0)
(7.80247e-09 -7.84085e-07 0)
(7.77032e-09 -7.85458e-07 0)
(7.73808e-09 -7.86829e-07 0)
(7.70575e-09 -7.88198e-07 0)
(7.67334e-09 -7.89564e-07 0)
(7.64085e-09 -7.90928e-07 0)
(7.60827e-09 -7.92289e-07 0)
(7.57561e-09 -7.93647e-07 0)
(7.54286e-09 -7.95003e-07 0)
(7.51003e-09 -7.96356e-07 0)
(7.47712e-09 -7.97707e-07 0)
(7.44413e-09 -7.99054e-07 0)
(7.41105e-09 -8.00399e-07 0)
(7.37789e-09 -8.01741e-07 0)
(7.34465e-09 -8.0308e-07 0)
(7.31133e-09 -8.04416e-07 0)
(7.27793e-09 -8.05749e-07 0)
(7.24445e-09 -8.07079e-07 0)
(7.21089e-09 -8.08406e-07 0)
(7.17725e-09 -8.09731e-07 0)
(7.14353e-09 -8.11052e-07 0)
(7.10974e-09 -8.12369e-07 0)
(7.07587e-09 -8.13684e-07 0)
(7.04192e-09 -8.14996e-07 0)
(7.00789e-09 -8.16304e-07 0)
(6.97379e-09 -8.17609e-07 0)
(6.93961e-09 -8.18911e-07 0)
(6.90535e-09 -8.20209e-07 0)
(6.87103e-09 -8.21504e-07 0)
(6.83663e-09 -8.22795e-07 0)
(6.80215e-09 -8.24084e-07 0)
(6.7676e-09 -8.25368e-07 0)
(6.73298e-09 -8.26649e-07 0)
(6.69829e-09 -8.27927e-07 0)
(6.66353e-09 -8.292e-07 0)
(6.62869e-09 -8.30471e-07 0)
(6.59379e-09 -8.31737e-07 0)
(6.55881e-09 -8.33e-07 0)
(6.52377e-09 -8.34259e-07 0)
(6.48866e-09 -8.35514e-07 0)
(6.45348e-09 -8.36765e-07 0)
(6.41824e-09 -8.38013e-07 0)
(6.38293e-09 -8.39257e-07 0)
(6.34755e-09 -8.40496e-07 0)
(6.31211e-09 -8.41732e-07 0)
(6.2766e-09 -8.42963e-07 0)
(6.24103e-09 -8.44191e-07 0)
(6.2054e-09 -8.45414e-07 0)
(6.1697e-09 -8.46634e-07 0)
(6.13395e-09 -8.47849e-07 0)
(6.09813e-09 -8.4906e-07 0)
(6.06225e-09 -8.50266e-07 0)
(6.02631e-09 -8.51469e-07 0)
(5.99032e-09 -8.52667e-07 0)
(5.95426e-09 -8.5386e-07 0)
(5.91815e-09 -8.55049e-07 0)
(5.88198e-09 -8.56234e-07 0)
(5.84576e-09 -8.57414e-07 0)
(5.80948e-09 -8.5859e-07 0)
(5.77315e-09 -8.59761e-07 0)
(5.73676e-09 -8.60928e-07 0)
(5.70032e-09 -8.62089e-07 0)
(5.66383e-09 -8.63247e-07 0)
(5.62729e-09 -8.64399e-07 0)
(5.5907e-09 -8.65547e-07 0)
(5.55406e-09 -8.66689e-07 0)
(5.51737e-09 -8.67827e-07 0)
(5.48063e-09 -8.68961e-07 0)
(5.44384e-09 -8.70089e-07 0)
(5.40701e-09 -8.71212e-07 0)
(5.37014e-09 -8.7233e-07 0)
(5.33321e-09 -8.73444e-07 0)
(5.2963e-09 -8.74551e-07 0)
(5.25908e-09 -8.75655e-07 0)
(5.22293e-09 -8.76747e-07 0)
(5.1883e-09 -8.77783e-07 0)
(5.1542e-09 -8.78763e-07 0)
(5.12052e-09 -8.79732e-07 0)
(5.08669e-09 -8.80708e-07 0)
(5.05258e-09 -8.81692e-07 0)
(5.01816e-09 -8.8268e-07 0)
(4.9834e-09 -8.83672e-07 0)
(4.94832e-09 -8.84667e-07 0)
(4.9129e-09 -8.85665e-07 0)
(4.87715e-09 -8.86667e-07 0)
(4.84107e-09 -8.87673e-07 0)
(4.80464e-09 -8.88682e-07 0)
(4.76788e-09 -8.89694e-07 0)
(4.73077e-09 -8.90709e-07 0)
(4.69332e-09 -8.91728e-07 0)
(4.65553e-09 -8.92749e-07 0)
(4.61739e-09 -8.93773e-07 0)
(4.5789e-09 -8.94799e-07 0)
(4.54007e-09 -8.95828e-07 0)
(4.50088e-09 -8.96859e-07 0)
(4.46134e-09 -8.97892e-07 0)
(4.42145e-09 -8.98927e-07 0)
(4.3812e-09 -8.99964e-07 0)
(4.3406e-09 -9.01003e-07 0)
(4.29964e-09 -9.02043e-07 0)
(4.25833e-09 -9.03084e-07 0)
(4.21665e-09 -9.04127e-07 0)
(4.17462e-09 -9.0517e-07 0)
(4.13223e-09 -9.06214e-07 0)
(4.08947e-09 -9.07259e-07 0)
(4.04636e-09 -9.08304e-07 0)
(4.00288e-09 -9.09349e-07 0)
(3.95904e-09 -9.10394e-07 0)
(3.91484e-09 -9.11438e-07 0)
(3.87028e-09 -9.12482e-07 0)
(3.82535e-09 -9.13525e-07 0)
(3.78006e-09 -9.14568e-07 0)
(3.73441e-09 -9.15609e-07 0)
(3.6884e-09 -9.16648e-07 0)
(3.64203e-09 -9.17685e-07 0)
(3.59529e-09 -9.18721e-07 0)
(3.5482e-09 -9.19754e-07 0)
(3.50074e-09 -9.20785e-07 0)
(3.45293e-09 -9.21812e-07 0)
(3.40476e-09 -9.22837e-07 0)
(3.35623e-09 -9.23858e-07 0)
(3.30735e-09 -9.24875e-07 0)
(3.25812e-09 -9.25888e-07 0)
(3.20853e-09 -9.26897e-07 0)
(3.1586e-09 -9.27901e-07 0)
(3.10832e-09 -9.289e-07 0)
(3.05769e-09 -9.29893e-07 0)
(3.00672e-09 -9.30881e-07 0)
(2.95541e-09 -9.31862e-07 0)
(2.90376e-09 -9.32837e-07 0)
(2.85178e-09 -9.33806e-07 0)
(2.79947e-09 -9.34766e-07 0)
(2.74683e-09 -9.3572e-07 0)
(2.69387e-09 -9.36665e-07 0)
(2.64058e-09 -9.37602e-07 0)
(2.58698e-09 -9.3853e-07 0)
(2.53307e-09 -9.39449e-07 0)
(2.47885e-09 -9.40358e-07 0)
(2.42433e-09 -9.41257e-07 0)
(2.36951e-09 -9.42146e-07 0)
(2.3144e-09 -9.43024e-07 0)
(2.25901e-09 -9.4389e-07 0)
(2.20333e-09 -9.44744e-07 0)
(2.14738e-09 -9.45586e-07 0)
(2.09116e-09 -9.46415e-07 0)
(2.03467e-09 -9.47231e-07 0)
(1.97794e-09 -9.48033e-07 0)
(1.92095e-09 -9.48821e-07 0)
(1.86373e-09 -9.49594e-07 0)
(1.80627e-09 -9.50351e-07 0)
(1.74859e-09 -9.51093e-07 0)
(1.69069e-09 -9.51818e-07 0)
(1.63259e-09 -9.52527e-07 0)
(1.57428e-09 -9.53218e-07 0)
(1.51579e-09 -9.53891e-07 0)
(1.45712e-09 -9.54545e-07 0)
(1.39827e-09 -9.55181e-07 0)
(1.33927e-09 -9.55796e-07 0)
(1.28012e-09 -9.56392e-07 0)
(1.22083e-09 -9.56967e-07 0)
(1.16142e-09 -9.5752e-07 0)
(1.10189e-09 -9.58051e-07 0)
(1.04225e-09 -9.5856e-07 0)
(9.82528e-10 -9.59045e-07 0)
(9.22725e-10 -9.59507e-07 0)
(8.62855e-10 -9.59944e-07 0)
(8.02933e-10 -9.60357e-07 0)
(7.42972e-10 -9.60743e-07 0)
(6.82986e-10 -9.61104e-07 0)
(6.22989e-10 -9.61437e-07 0)
(5.62996e-10 -9.61743e-07 0)
(5.03022e-10 -9.62021e-07 0)
(4.43081e-10 -9.6227e-07 0)
(3.83191e-10 -9.6249e-07 0)
(3.23366e-10 -9.6268e-07 0)
(2.63623e-10 -9.62838e-07 0)
(2.03978e-10 -9.62966e-07 0)
(1.44449e-10 -9.63062e-07 0)
(8.50518e-11 -9.63125e-07 0)
(2.58049e-11 -9.63155e-07 0)
(-3.32742e-11 -9.63151e-07 0)
(-9.21674e-11 -9.63112e-07 0)
(-1.50856e-10 -9.63038e-07 0)
(-2.09322e-10 -9.62929e-07 0)
(-2.67547e-10 -9.62783e-07 0)
(-3.2551e-10 -9.626e-07 0)
(-3.83192e-10 -9.62379e-07 0)
(-4.40575e-10 -9.6212e-07 0)
(-4.97637e-10 -9.61822e-07 0)
(-5.54359e-10 -9.61485e-07 0)
(-6.10721e-10 -9.61108e-07 0)
(-6.66702e-10 -9.6069e-07 0)
(-7.22281e-10 -9.6023e-07 0)
(-7.77438e-10 -9.59729e-07 0)
(-8.32151e-10 -9.59186e-07 0)
(-8.864e-10 -9.58599e-07 0)
(-9.40163e-10 -9.57969e-07 0)
(-9.93419e-10 -9.57295e-07 0)
(-1.04615e-09 -9.56577e-07 0)
(-1.09833e-09 -9.55813e-07 0)
(-1.14993e-09 -9.55004e-07 0)
(-1.20095e-09 -9.54149e-07 0)
(-1.25135e-09 -9.53248e-07 0)
(-1.30111e-09 -9.52299e-07 0)
(-1.35022e-09 -9.51304e-07 0)
(-1.39865e-09 -9.5026e-07 0)
(-1.44638e-09 -9.49168e-07 0)
(-1.4934e-09 -9.48028e-07 0)
(-1.53967e-09 -9.46839e-07 0)
(-1.58518e-09 -9.45601e-07 0)
(-1.62991e-09 -9.44313e-07 0)
(-1.67383e-09 -9.42975e-07 0)
(-1.71693e-09 -9.41588e-07 0)
(-1.7592e-09 -9.4015e-07 0)
(-1.8006e-09 -9.38661e-07 0)
(-1.84112e-09 -9.37122e-07 0)
(-1.88074e-09 -9.35532e-07 0)
(-1.91944e-09 -9.33891e-07 0)
(-1.95721e-09 -9.32198e-07 0)
(-1.99403e-09 -9.30455e-07 0)
(-2.02988e-09 -9.2866e-07 0)
(-2.06474e-09 -9.26814e-07 0)
(-2.0986e-09 -9.24916e-07 0)
(-2.13144e-09 -9.22967e-07 0)
(-2.16325e-09 -9.20967e-07 0)
(-2.19402e-09 -9.18916e-07 0)
(-2.22372e-09 -9.16814e-07 0)
(-2.25236e-09 -9.14661e-07 0)
(-2.27991e-09 -9.12458e-07 0)
(-2.30636e-09 -9.10204e-07 0)
(-2.3317e-09 -9.07899e-07 0)
(-2.35593e-09 -9.05545e-07 0)
(-2.37903e-09 -9.03142e-07 0)
(-2.401e-09 -9.00689e-07 0)
(-2.42182e-09 -8.98187e-07 0)
(-2.4415e-09 -8.95637e-07 0)
(-2.46002e-09 -8.9304e-07 0)
(-2.47737e-09 -8.90394e-07 0)
(-2.49357e-09 -8.87702e-07 0)
(-2.50859e-09 -8.84964e-07 0)
(-2.52244e-09 -8.8218e-07 0)
(-2.53511e-09 -8.7935e-07 0)
(-2.54661e-09 -8.76477e-07 0)
(-2.55694e-09 -8.7356e-07 0)
(-2.56609e-09 -8.706e-07 0)
(-2.57407e-09 -8.67598e-07 0)
(-2.58088e-09 -8.64554e-07 0)
(-2.58652e-09 -8.6147e-07 0)
(-2.591e-09 -8.58347e-07 0)
(-2.59431e-09 -8.55184e-07 0)
(-2.59648e-09 -8.51985e-07 0)
(-2.5975e-09 -8.48748e-07 0)
(-2.59739e-09 -8.45476e-07 0)
(-2.59614e-09 -8.42167e-07 0)
(-2.59381e-09 -8.38831e-07 0)
(-2.59014e-09 -8.35421e-07 0)
(-2.58487e-09 -8.31657e-07 0)
(-2.57797e-09 -8.27535e-07 0)
(-2.56942e-09 -8.23339e-07 0)
(-2.55941e-09 -8.19168e-07 0)
(-2.54809e-09 -8.15038e-07 0)
(-2.53554e-09 -8.10932e-07 0)
(-2.52183e-09 -8.06842e-07 0)
(-2.50703e-09 -8.02772e-07 0)
(-2.49119e-09 -7.98727e-07 0)
(-2.47437e-09 -7.9471e-07 0)
(-2.45664e-09 -7.90721e-07 0)
(-2.43805e-09 -7.86761e-07 0)
(-2.41865e-09 -7.82832e-07 0)
(-2.3985e-09 -7.78935e-07 0)
(-2.37763e-09 -7.75072e-07 0)
(-2.35609e-09 -7.71242e-07 0)
(-2.33393e-09 -7.67448e-07 0)
(-2.31119e-09 -7.63691e-07 0)
(-2.2879e-09 -7.5997e-07 0)
(-2.2641e-09 -7.56288e-07 0)
(-2.23983e-09 -7.52645e-07 0)
(-2.21511e-09 -7.49041e-07 0)
(-2.18998e-09 -7.45478e-07 0)
(-2.16446e-09 -7.41956e-07 0)
(-2.13859e-09 -7.38475e-07 0)
(-2.11238e-09 -7.35037e-07 0)
(-2.08587e-09 -7.31641e-07 0)
(-2.05906e-09 -7.28288e-07 0)
(-2.03198e-09 -7.24979e-07 0)
(-2.00466e-09 -7.21714e-07 0)
(-1.97711e-09 -7.18493e-07 0)
(-1.94934e-09 -7.15318e-07 0)
(-1.92136e-09 -7.12187e-07 0)
(-1.89321e-09 -7.09101e-07 0)
(-1.86488e-09 -7.06062e-07 0)
(-1.83639e-09 -7.03068e-07 0)
(-1.80774e-09 -7.00121e-07 0)
(-1.77896e-09 -6.9722e-07 0)
(-1.75004e-09 -6.94365e-07 0)
(-1.72101e-09 -6.91558e-07 0)
(-1.69185e-09 -6.88798e-07 0)
(-1.66258e-09 -6.86084e-07 0)
(-1.63322e-09 -6.83419e-07 0)
(-1.60375e-09 -6.80801e-07 0)
(-1.57419e-09 -6.7823e-07 0)
(-1.54454e-09 -6.75708e-07 0)
(-1.5148e-09 -6.73233e-07 0)
(-1.48498e-09 -6.70807e-07 0)
(-1.45508e-09 -6.68429e-07 0)
(-1.42511e-09 -6.661e-07 0)
(-1.39506e-09 -6.63819e-07 0)
(-1.36493e-09 -6.61587e-07 0)
(-1.33474e-09 -6.59403e-07 0)
(-1.30447e-09 -6.57268e-07 0)
(-1.27413e-09 -6.55183e-07 0)
(-1.24372e-09 -6.53146e-07 0)
(-1.21325e-09 -6.51159e-07 0)
(-1.1827e-09 -6.49221e-07 0)
(-1.15209e-09 -6.47333e-07 0)
(-1.12141e-09 -6.45494e-07 0)
(-1.09066e-09 -6.43705e-07 0)
(-1.05985e-09 -6.41966e-07 0)
(-1.02896e-09 -6.40276e-07 0)
(-9.98016e-10 -6.38637e-07 0)
(-9.67001e-10 -6.37047e-07 0)
(-9.35919e-10 -6.35508e-07 0)
(-9.04772e-10 -6.34019e-07 0)
(-8.73558e-10 -6.32581e-07 0)
(-8.4228e-10 -6.31193e-07 0)
(-8.10937e-10 -6.29856e-07 0)
(-7.7953e-10 -6.2857e-07 0)
(-7.4806e-10 -6.27334e-07 0)
(-7.16529e-10 -6.2615e-07 0)
(-6.84936e-10 -6.25016e-07 0)
(-6.53284e-10 -6.23934e-07 0)
(-6.21574e-10 -6.22903e-07 0)
(-5.89807e-10 -6.21923e-07 0)
(-5.57985e-10 -6.20994e-07 0)
(-5.2611e-10 -6.20118e-07 0)
(-4.94184e-10 -6.19292e-07 0)
(-4.6221e-10 -6.18519e-07 0)
(-4.30189e-10 -6.17797e-07 0)
(-3.98124e-10 -6.17127e-07 0)
(-3.66018e-10 -6.16509e-07 0)
(-3.33873e-10 -6.15942e-07 0)
(-3.01693e-10 -6.15432e-07 0)
(-2.69479e-10 -6.14957e-07 0)
(-2.37241e-10 -6.1459e-07 0)
(-2.04958e-10 -6.14089e-07 0)
(-1.72715e-10 -6.14249e-07 0)
(-1.40246e-10 -6.12401e-07 0)
(-1.08453e-10 -6.17182e-07 0)
(-7.44592e-11 -5.98566e-07 0)
(-4.81532e-11 -6.4762e-07 0)
(-2.02178e-11 -5.65598e-07 0)
)
;
    }
    bottomWall
    {
        type            calculated;
        value           nonuniform List<vector> 
449
(
(-48.5299 -0.964069 0)
(-19.7505 -0.00515508 0)
(-14.3429 -0.00113482 0)
(-12.0333 -0.000545514 0)
(-10.6271 -0.000351523 0)
(-9.63321 -0.000256015 0)
(-8.87507 -0.000198503 0)
(-8.27151 -0.00015983 0)
(-7.77604 -0.000132337 0)
(-7.35937 -0.000111988 0)
(-7.00233 -9.63866e-05 0)
(-6.69188 -8.40787e-05 0)
(-6.4187 -7.41599e-05 0)
(-6.17588 -6.60316e-05 0)
(-5.95817 -5.92741e-05 0)
(-5.76151 -5.35841e-05 0)
(-5.58269 -4.87394e-05 0)
(-5.41917 -4.45742e-05 0)
(-5.26887 -4.09624e-05 0)
(-5.13009 -3.78065e-05 0)
(-5.00143 -3.503e-05 0)
(-4.88171 -3.2572e-05 0)
(-4.76993 -3.03837e-05 0)
(-4.66525 -2.84257e-05 0)
(-4.56695 -2.66653e-05 0)
(-4.47439 -2.50758e-05 0)
(-4.38704 -2.3635e-05 0)
(-4.30442 -2.23241e-05 0)
(-4.22611 -2.11273e-05 0)
(-4.15176 -2.00313e-05 0)
(-4.08103 -1.90246e-05 0)
(-4.01364 -1.80974e-05 0)
(-3.94934 -1.72412e-05 0)
(-3.88789 -1.64486e-05 0)
(-3.82908 -1.57133e-05 0)
(-3.77273 -1.50296e-05 0)
(-3.71867 -1.43926e-05 0)
(-3.66675 -1.3798e-05 0)
(-3.61684 -1.3242e-05 0)
(-3.56879 -1.27212e-05 0)
(-3.5225 -1.22325e-05 0)
(-3.47787 -1.17732e-05 0)
(-3.43479 -1.1341e-05 0)
(-3.39317 -1.09337e-05 0)
(-3.35294 -1.05493e-05 0)
(-3.31401 -1.01861e-05 0)
(-3.27633 -9.84246e-06 0)
(-3.23981 -9.51697e-06 0)
(-3.20441 -9.20832e-06 0)
(-3.17007 -8.91532e-06 0)
(-3.13672 -8.6369e-06 0)
(-3.10434 -8.37206e-06 0)
(-3.07286 -8.1199e-06 0)
(-3.04225 -7.8796e-06 0)
(-3.01247 -7.65039e-06 0)
(-2.98348 -7.43158e-06 0)
(-2.95524 -7.22252e-06 0)
(-2.92773 -7.02262e-06 0)
(-2.90091 -6.83133e-06 0)
(-2.87475 -6.64815e-06 0)
(-2.84923 -6.4726e-06 0)
(-2.82431 -6.30426e-06 0)
(-2.79999 -6.14271e-06 0)
(-2.77623 -5.98759e-06 0)
(-2.753 -5.83855e-06 0)
(-2.7303 -5.69525e-06 0)
(-2.7081 -5.55741e-06 0)
(-2.68638 -5.42473e-06 0)
(-2.66513 -5.29695e-06 0)
(-2.64432 -5.17382e-06 0)
(-2.62395 -5.05511e-06 0)
(-2.60399 -4.94061e-06 0)
(-2.58444 -4.83012e-06 0)
(-2.56528 -4.72343e-06 0)
(-2.54649 -4.62037e-06 0)
(-2.52807 -4.52078e-06 0)
(-2.51 -4.42449e-06 0)
(-2.49227 -4.33136e-06 0)
(-2.47487 -4.24123e-06 0)
(-2.45779 -4.15399e-06 0)
(-2.44102 -4.0695e-06 0)
(-2.42455 -3.98765e-06 0)
(-2.40837 -3.90832e-06 0)
(-2.39248 -3.83141e-06 0)
(-2.37685 -3.75681e-06 0)
(-2.3615 -3.68444e-06 0)
(-2.3464 -3.6142e-06 0)
(-2.33156 -3.546e-06 0)
(-2.31696 -3.47977e-06 0)
(-2.30259 -3.41542e-06 0)
(-2.28846 -3.35288e-06 0)
(-2.27455 -3.2921e-06 0)
(-2.26087 -3.23298e-06 0)
(-2.24739 -3.17549e-06 0)
(-2.23412 -3.11954e-06 0)
(-2.22105 -3.06509e-06 0)
(-2.20818 -3.01209e-06 0)
(-2.1955 -2.96048e-06 0)
(-2.18301 -2.9102e-06 0)
(-2.1707 -2.86122e-06 0)
(-2.15857 -2.81349e-06 0)
(-2.14661 -2.76696e-06 0)
(-2.13482 -2.72159e-06 0)
(-2.1232 -2.67735e-06 0)
(-2.11174 -2.63419e-06 0)
(-2.10043 -2.59208e-06 0)
(-2.08928 -2.55098e-06 0)
(-2.07828 -2.51087e-06 0)
(-2.06742 -2.4717e-06 0)
(-2.05671 -2.43346e-06 0)
(-2.04614 -2.3961e-06 0)
(-2.03571 -2.3596e-06 0)
(-2.02541 -2.32394e-06 0)
(-2.01524 -2.28909e-06 0)
(-2.0052 -2.25502e-06 0)
(-1.99528 -2.22171e-06 0)
(-1.98549 -2.18913e-06 0)
(-1.97582 -2.15727e-06 0)
(-1.96626 -2.1261e-06 0)
(-1.95682 -2.0956e-06 0)
(-1.9475 -2.06576e-06 0)
(-1.93828 -2.03655e-06 0)
(-1.92917 -2.00795e-06 0)
(-1.92017 -1.97995e-06 0)
(-1.91128 -1.95253e-06 0)
(-1.90248 -1.92568e-06 0)
(-1.89379 -1.89938e-06 0)
(-1.88519 -1.87361e-06 0)
(-1.87669 -1.84835e-06 0)
(-1.86828 -1.8236e-06 0)
(-1.85997 -1.79935e-06 0)
(-1.85175 -1.77557e-06 0)
(-1.84361 -1.75225e-06 0)
(-1.83557 -1.72939e-06 0)
(-1.82761 -1.70696e-06 0)
(-1.81973 -1.68497e-06 0)
(-1.81194 -1.66339e-06 0)
(-1.80423 -1.64222e-06 0)
(-1.7966 -1.62145e-06 0)
(-1.78904 -1.60107e-06 0)
(-1.78157 -1.58106e-06 0)
(-1.77417 -1.56142e-06 0)
(-1.76684 -1.54213e-06 0)
(-1.75959 -1.5232e-06 0)
(-1.75241 -1.50461e-06 0)
(-1.7453 -1.48634e-06 0)
(-1.73826 -1.46841e-06 0)
(-1.73129 -1.45079e-06 0)
(-1.72438 -1.43348e-06 0)
(-1.71754 -1.41647e-06 0)
(-1.71077 -1.39976e-06 0)
(-1.70406 -1.38333e-06 0)
(-1.69741 -1.36718e-06 0)
(-1.69082 -1.35131e-06 0)
(-1.6843 -1.33571e-06 0)
(-1.67783 -1.32037e-06 0)
(-1.67143 -1.30528e-06 0)
(-1.66508 -1.29045e-06 0)
(-1.65879 -1.27586e-06 0)
(-1.65256 -1.26151e-06 0)
(-1.64638 -1.24739e-06 0)
(-1.64025 -1.23351e-06 0)
(-1.63418 -1.21984e-06 0)
(-1.62816 -1.2064e-06 0)
(-1.6222 -1.19317e-06 0)
(-1.61628 -1.18016e-06 0)
(-1.61042 -1.16734e-06 0)
(-1.60461 -1.15473e-06 0)
(-1.59884 -1.14235e-06 0)
(-1.59312 -1.13001e-06 0)
(-1.58746 -1.11832e-06 0)
(-1.58183 -1.10622e-06 0)
(-1.57626 -1.09308e-06 0)
(-1.57105 -1.0829e-06 0)
(-1.56615 -1.07467e-06 0)
(-1.56123 -1.06431e-06 0)
(-1.55632 -1.05362e-06 0)
(-1.5514 -1.04361e-06 0)
(-1.54647 -1.03357e-06 0)
(-1.54154 -1.02366e-06 0)
(-1.5366 -1.0138e-06 0)
(-1.53166 -1.00401e-06 0)
(-1.52671 -9.94277e-07 0)
(-1.52176 -9.84604e-07 0)
(-1.5168 -9.74987e-07 0)
(-1.51184 -9.65426e-07 0)
(-1.50687 -9.55921e-07 0)
(-1.50189 -9.4647e-07 0)
(-1.49692 -9.37074e-07 0)
(-1.49194 -9.27734e-07 0)
(-1.48695 -9.18449e-07 0)
(-1.48196 -9.0922e-07 0)
(-1.47697 -9.00046e-07 0)
(-1.47198 -8.90929e-07 0)
(-1.46698 -8.81868e-07 0)
(-1.46198 -8.72863e-07 0)
(-1.45697 -8.63915e-07 0)
(-1.45197 -8.55024e-07 0)
(-1.44696 -8.4619e-07 0)
(-1.44195 -8.37413e-07 0)
(-1.43694 -8.28694e-07 0)
(-1.43192 -8.20033e-07 0)
(-1.42691 -8.1143e-07 0)
(-1.42189 -8.02885e-07 0)
(-1.41687 -7.94398e-07 0)
(-1.41186 -7.8597e-07 0)
(-1.40684 -7.77601e-07 0)
(-1.40182 -7.6929e-07 0)
(-1.3968 -7.61038e-07 0)
(-1.39178 -7.52845e-07 0)
(-1.38676 -7.44711e-07 0)
(-1.38174 -7.36637e-07 0)
(-1.37672 -7.28622e-07 0)
(-1.37171 -7.20666e-07 0)
(-1.36669 -7.1277e-07 0)
(-1.36167 -7.04933e-07 0)
(-1.35666 -6.97156e-07 0)
(-1.35165 -6.89438e-07 0)
(-1.34663 -6.8178e-07 0)
(-1.34163 -6.74181e-07 0)
(-1.33662 -6.66643e-07 0)
(-1.33161 -6.59164e-07 0)
(-1.32661 -6.51744e-07 0)
(-1.32161 -6.44384e-07 0)
(-1.31661 -6.37084e-07 0)
(-1.31162 -6.29843e-07 0)
(-1.30663 -6.22662e-07 0)
(-1.30164 -6.1554e-07 0)
(-1.29666 -6.08477e-07 0)
(-1.29168 -6.01474e-07 0)
(-1.2867 -5.9453e-07 0)
(-1.28173 -5.87645e-07 0)
(-1.27676 -5.80819e-07 0)
(-1.2718 -5.74053e-07 0)
(-1.26684 -5.67344e-07 0)
(-1.26189 -5.60695e-07 0)
(-1.25694 -5.54104e-07 0)
(-1.25199 -5.47572e-07 0)
(-1.24706 -5.41097e-07 0)
(-1.24212 -5.34681e-07 0)
(-1.23719 -5.28323e-07 0)
(-1.23227 -5.22023e-07 0)
(-1.22736 -5.1578e-07 0)
(-1.22245 -5.09595e-07 0)
(-1.21754 -5.03467e-07 0)
(-1.21265 -4.97396e-07 0)
(-1.20775 -4.91382e-07 0)
(-1.20287 -4.85424e-07 0)
(-1.19799 -4.79523e-07 0)
(-1.19312 -4.73679e-07 0)
(-1.18826 -4.6789e-07 0)
(-1.1834 -4.62157e-07 0)
(-1.17856 -4.56479e-07 0)
(-1.17372 -4.50857e-07 0)
(-1.16888 -4.4529e-07 0)
(-1.16406 -4.39778e-07 0)
(-1.15924 -4.3432e-07 0)
(-1.15443 -4.28917e-07 0)
(-1.14963 -4.23567e-07 0)
(-1.14484 -4.18272e-07 0)
(-1.14005 -4.1303e-07 0)
(-1.13528 -4.07841e-07 0)
(-1.13051 -4.02705e-07 0)
(-1.12576 -3.97621e-07 0)
(-1.12101 -3.92591e-07 0)
(-1.11627 -3.87612e-07 0)
(-1.11154 -3.82685e-07 0)
(-1.10682 -3.77809e-07 0)
(-1.10211 -3.72985e-07 0)
(-1.09741 -3.68211e-07 0)
(-1.09272 -3.63488e-07 0)
(-1.08803 -3.58815e-07 0)
(-1.08336 -3.54192e-07 0)
(-1.0787 -3.49619e-07 0)
(-1.07405 -3.45095e-07 0)
(-1.06941 -3.4062e-07 0)
(-1.06478 -3.36194e-07 0)
(-1.06016 -3.31816e-07 0)
(-1.05555 -3.27486e-07 0)
(-1.05095 -3.23204e-07 0)
(-1.04637 -3.18969e-07 0)
(-1.04179 -3.1478e-07 0)
(-1.03723 -3.10639e-07 0)
(-1.03267 -3.06544e-07 0)
(-1.02813 -3.02495e-07 0)
(-1.0236 -2.98491e-07 0)
(-1.01908 -2.94533e-07 0)
(-1.01457 -2.9062e-07 0)
(-1.01007 -2.86751e-07 0)
(-1.00559 -2.82927e-07 0)
(-1.00111 -2.79146e-07 0)
(-0.996651 -2.7541e-07 0)
(-0.992202 -2.71716e-07 0)
(-0.987764 -2.68065e-07 0)
(-0.983338 -2.64457e-07 0)
(-0.978925 -2.6089e-07 0)
(-0.974524 -2.57366e-07 0)
(-0.970135 -2.53883e-07 0)
(-0.965759 -2.50441e-07 0)
(-0.961395 -2.4704e-07 0)
(-0.957043 -2.4368e-07 0)
(-0.952705 -2.40359e-07 0)
(-0.948378 -2.37078e-07 0)
(-0.944065 -2.33837e-07 0)
(-0.939764 -2.30634e-07 0)
(-0.935477 -2.2747e-07 0)
(-0.931202 -2.24345e-07 0)
(-0.92694 -2.21257e-07 0)
(-0.922691 -2.18207e-07 0)
(-0.918455 -2.15195e-07 0)
(-0.914232 -2.12219e-07 0)
(-0.910023 -2.0928e-07 0)
(-0.905826 -2.06377e-07 0)
(-0.901643 -2.0351e-07 0)
(-0.897474 -2.00678e-07 0)
(-0.893317 -1.97882e-07 0)
(-0.889174 -1.9512e-07 0)
(-0.885045 -1.92393e-07 0)
(-0.880929 -1.897e-07 0)
(-0.876826 -1.87041e-07 0)
(-0.872738 -1.84416e-07 0)
(-0.868662 -1.81824e-07 0)
(-0.864601 -1.79264e-07 0)
(-0.860553 -1.76737e-07 0)
(-0.856519 -1.74243e-07 0)
(-0.852498 -1.7178e-07 0)
(-0.848492 -1.69348e-07 0)
(-0.844499 -1.66948e-07 0)
(-0.84052 -1.64579e-07 0)
(-0.836555 -1.6224e-07 0)
(-0.832604 -1.59931e-07 0)
(-0.828666 -1.57652e-07 0)
(-0.824743 -1.55403e-07 0)
(-0.820834 -1.53183e-07 0)
(-0.816938 -1.50993e-07 0)
(-0.813057 -1.4883e-07 0)
(-0.80919 -1.46696e-07 0)
(-0.805337 -1.4459e-07 0)
(-0.801497 -1.42512e-07 0)
(-0.797672 -1.40461e-07 0)
(-0.793861 -1.38437e-07 0)
(-0.790065 -1.3644e-07 0)
(-0.786282 -1.3447e-07 0)
(-0.782513 -1.32525e-07 0)
(-0.778759 -1.30607e-07 0)
(-0.775019 -1.28714e-07 0)
(-0.771293 -1.26846e-07 0)
(-0.767581 -1.25002e-07 0)
(-0.763883 -1.23182e-07 0)
(-0.7602 -1.21389e-07 0)
(-0.756531 -1.19614e-07 0)
(-0.752876 -1.17828e-07 0)
(-0.749238 -1.1619e-07 0)
(-0.745606 -1.14563e-07 0)
(-0.741586 -1.12578e-07 0)
(-0.737225 -1.10469e-07 0)
(-0.732944 -1.0857e-07 0)
(-0.728731 -1.06773e-07 0)
(-0.72459 -1.04964e-07 0)
(-0.72052 -1.0319e-07 0)
(-0.716518 -1.01461e-07 0)
(-0.712582 -9.97792e-08 0)
(-0.708712 -9.8142e-08 0)
(-0.704905 -9.65484e-08 0)
(-0.701159 -9.49971e-08 0)
(-0.697473 -9.34868e-08 0)
(-0.693845 -9.20159e-08 0)
(-0.690274 -9.05831e-08 0)
(-0.686759 -8.91871e-08 0)
(-0.683297 -8.78265e-08 0)
(-0.679888 -8.65002e-08 0)
(-0.67653 -8.52068e-08 0)
(-0.673222 -8.39453e-08 0)
(-0.669963 -8.27145e-08 0)
(-0.666751 -8.15136e-08 0)
(-0.663586 -8.03414e-08 0)
(-0.660466 -7.91969e-08 0)
(-0.65739 -7.80794e-08 0)
(-0.654358 -7.69879e-08 0)
(-0.651367 -7.59216e-08 0)
(-0.648418 -7.48796e-08 0)
(-0.64551 -7.38612e-08 0)
(-0.64264 -7.28658e-08 0)
(-0.639809 -7.18924e-08 0)
(-0.637016 -7.09406e-08 0)
(-0.63426 -7.00096e-08 0)
(-0.631539 -6.90987e-08 0)
(-0.628854 -6.82075e-08 0)
(-0.626203 -6.73353e-08 0)
(-0.623586 -6.64815e-08 0)
(-0.621002 -6.56457e-08 0)
(-0.618451 -6.48272e-08 0)
(-0.615931 -6.40257e-08 0)
(-0.613442 -6.32405e-08 0)
(-0.610983 -6.24714e-08 0)
(-0.608555 -6.17177e-08 0)
(-0.606155 -6.09791e-08 0)
(-0.603784 -6.02552e-08 0)
(-0.601442 -5.95456e-08 0)
(-0.599126 -5.88499e-08 0)
(-0.596838 -5.81677e-08 0)
(-0.594576 -5.74987e-08 0)
(-0.59234 -5.68425e-08 0)
(-0.590129 -5.61988e-08 0)
(-0.587943 -5.55673e-08 0)
(-0.585782 -5.49476e-08 0)
(-0.583645 -5.43395e-08 0)
(-0.581531 -5.37427e-08 0)
(-0.57944 -5.31569e-08 0)
(-0.577372 -5.25819e-08 0)
(-0.575327 -5.20173e-08 0)
(-0.573303 -5.1463e-08 0)
(-0.571301 -5.09186e-08 0)
(-0.56932 -5.03841e-08 0)
(-0.567359 -4.98591e-08 0)
(-0.565419 -4.93434e-08 0)
(-0.563499 -4.88369e-08 0)
(-0.561599 -4.83394e-08 0)
(-0.559718 -4.78506e-08 0)
(-0.557856 -4.73705e-08 0)
(-0.556012 -4.68988e-08 0)
(-0.554187 -4.64354e-08 0)
(-0.552379 -4.59803e-08 0)
(-0.55059 -4.55331e-08 0)
(-0.548817 -4.5094e-08 0)
(-0.547062 -4.46627e-08 0)
(-0.545323 -4.42393e-08 0)
(-0.543601 -4.38237e-08 0)
(-0.541895 -4.34158e-08 0)
(-0.540205 -4.30159e-08 0)
(-0.53853 -4.26239e-08 0)
(-0.53687 -4.22401e-08 0)
(-0.535226 -4.18647e-08 0)
(-0.533595 -4.14982e-08 0)
(-0.531979 -4.11411e-08 0)
(-0.530377 -4.07945e-08 0)
(-0.528788 -4.04597e-08 0)
(-0.527212 -4.01379e-08 0)
(-0.525648 -3.98325e-08 0)
(-0.524096 -3.95556e-08 0)
(-0.522554 -3.92775e-08 0)
(-0.521023 -3.90566e-08 0)
(-0.519499 -3.9115e-08 0)
(-0.517964 -3.84423e-08 0)
(-0.516491 -3.75722e-08 0)
(-0.515024 -4.96764e-08 0)
(-0.512605 -1.38452e-08 0)
(-0.513952 -3.66295e-08 0)
(-0.509696 -5.53322e-08 0)
)
;
    }
    symmetry
    {
        type            symmetryPlane;
    }
    frontAndBack
    {
        type            empty;
    }
}


// ************************************************************************* //
