/*--------------------------------*- C++ -*----------------------------------*\
| =========                 |                                                 |
| \\      /  F ield         | OpenFOAM: The Open Source CFD Toolbox           |
|  \\    /   O peration     | Version:  v2012                                 |
|   \\  /    A nd           | Website:  www.openfoam.com                      |
|    \\/     M anipulation  |                                                 |
\*---------------------------------------------------------------------------*/
FoamFile
{
    version     2.0;
    format      ascii;
    class       volVectorField;
    location    "54.5";
    object      wallShearStress;
}
// * * * * * * * * * * * * * * * * * * * * * * * * * * * * * * * * * * * * * //

dimensions      [0 2 -2 0 0 0 0];


internalField   uniform (0 0 0);

boundaryField
{
    inlet
    {
        type            calculated;
        value           uniform (0 0 0);
    }
    outlet
    {
        type            calculated;
        value           uniform (0 0 0);
    }
    topWall
    {
        type            calculated;
        value           nonuniform List<vector> 
545
(
(1.48729e-08 -1.04692e-08 0)
(1.48661e-08 -2.92889e-08 0)
(1.48523e-08 -4.88571e-08 0)
(1.48319e-08 -6.78514e-08 0)
(1.48057e-08 -8.60246e-08 0)
(1.47744e-08 -1.03608e-07 0)
(1.47385e-08 -1.2075e-07 0)
(1.46983e-08 -1.3744e-07 0)
(1.46541e-08 -1.53642e-07 0)
(1.46064e-08 -1.69353e-07 0)
(1.45555e-08 -1.84594e-07 0)
(1.45018e-08 -1.99383e-07 0)
(1.44456e-08 -2.13729e-07 0)
(1.43871e-08 -2.27642e-07 0)
(1.43267e-08 -2.41131e-07 0)
(1.42645e-08 -2.54208e-07 0)
(1.42009e-08 -2.66885e-07 0)
(1.4136e-08 -2.79171e-07 0)
(1.40701e-08 -2.91079e-07 0)
(1.40034e-08 -3.02617e-07 0)
(1.39359e-08 -3.13798e-07 0)
(1.3868e-08 -3.24631e-07 0)
(1.37996e-08 -3.35127e-07 0)
(1.37311e-08 -3.45296e-07 0)
(1.36624e-08 -3.55147e-07 0)
(1.35938e-08 -3.6469e-07 0)
(1.35252e-08 -3.73935e-07 0)
(1.34569e-08 -3.8289e-07 0)
(1.3389e-08 -3.91566e-07 0)
(1.33214e-08 -3.9997e-07 0)
(1.32542e-08 -4.08111e-07 0)
(1.31876e-08 -4.15997e-07 0)
(1.31216e-08 -4.23637e-07 0)
(1.30563e-08 -4.31039e-07 0)
(1.29916e-08 -4.3821e-07 0)
(1.29277e-08 -4.45157e-07 0)
(1.28646e-08 -4.51887e-07 0)
(1.28023e-08 -4.58409e-07 0)
(1.27409e-08 -4.64727e-07 0)
(1.26803e-08 -4.7085e-07 0)
(1.26206e-08 -4.76783e-07 0)
(1.25619e-08 -4.82533e-07 0)
(1.2504e-08 -4.88105e-07 0)
(1.24471e-08 -4.93505e-07 0)
(1.23912e-08 -4.98739e-07 0)
(1.23363e-08 -5.03813e-07 0)
(1.22823e-08 -5.08731e-07 0)
(1.22292e-08 -5.13498e-07 0)
(1.21772e-08 -5.1812e-07 0)
(1.21261e-08 -5.22601e-07 0)
(1.2076e-08 -5.26945e-07 0)
(1.20269e-08 -5.31158e-07 0)
(1.19788e-08 -5.35243e-07 0)
(1.19316e-08 -5.39205e-07 0)
(1.18853e-08 -5.43047e-07 0)
(1.18401e-08 -5.46773e-07 0)
(1.17957e-08 -5.50387e-07 0)
(1.17523e-08 -5.53893e-07 0)
(1.17098e-08 -5.57294e-07 0)
(1.16682e-08 -5.60594e-07 0)
(1.16275e-08 -5.63795e-07 0)
(1.15877e-08 -5.66901e-07 0)
(1.15487e-08 -5.69915e-07 0)
(1.15107e-08 -5.7284e-07 0)
(1.14734e-08 -5.75678e-07 0)
(1.14371e-08 -5.78433e-07 0)
(1.14015e-08 -5.81106e-07 0)
(1.13667e-08 -5.83701e-07 0)
(1.13328e-08 -5.8622e-07 0)
(1.12996e-08 -5.88665e-07 0)
(1.12671e-08 -5.9104e-07 0)
(1.12357e-08 -5.93341e-07 0)
(1.12051e-08 -5.95554e-07 0)
(1.11751e-08 -5.97697e-07 0)
(1.11453e-08 -5.99815e-07 0)
(1.11157e-08 -6.01921e-07 0)
(1.10861e-08 -6.04014e-07 0)
(1.10566e-08 -6.06093e-07 0)
(1.10272e-08 -6.08156e-07 0)
(1.09978e-08 -6.10203e-07 0)
(1.09685e-08 -6.12236e-07 0)
(1.09392e-08 -6.14255e-07 0)
(1.091e-08 -6.16258e-07 0)
(1.08809e-08 -6.18247e-07 0)
(1.08518e-08 -6.20222e-07 0)
(1.08228e-08 -6.22183e-07 0)
(1.07938e-08 -6.24129e-07 0)
(1.07649e-08 -6.26061e-07 0)
(1.07361e-08 -6.2798e-07 0)
(1.07074e-08 -6.29884e-07 0)
(1.06787e-08 -6.31775e-07 0)
(1.065e-08 -6.33652e-07 0)
(1.06215e-08 -6.35515e-07 0)
(1.05931e-08 -6.37364e-07 0)
(1.05644e-08 -6.39204e-07 0)
(1.05372e-08 -6.4101e-07 0)
(1.05121e-08 -6.42664e-07 0)
(1.04878e-08 -6.4416e-07 0)
(1.04644e-08 -6.45615e-07 0)
(1.04411e-08 -6.47075e-07 0)
(1.04177e-08 -6.48548e-07 0)
(1.03943e-08 -6.50022e-07 0)
(1.03708e-08 -6.51494e-07 0)
(1.03471e-08 -6.52965e-07 0)
(1.03234e-08 -6.54436e-07 0)
(1.02996e-08 -6.55908e-07 0)
(1.02758e-08 -6.5738e-07 0)
(1.02518e-08 -6.58852e-07 0)
(1.02277e-08 -6.60323e-07 0)
(1.02035e-08 -6.61795e-07 0)
(1.01793e-08 -6.63267e-07 0)
(1.01549e-08 -6.64739e-07 0)
(1.01304e-08 -6.6621e-07 0)
(1.01059e-08 -6.67682e-07 0)
(1.00813e-08 -6.69153e-07 0)
(1.00565e-08 -6.70625e-07 0)
(1.00317e-08 -6.72096e-07 0)
(1.00068e-08 -6.73567e-07 0)
(9.98175e-09 -6.75037e-07 0)
(9.95664e-09 -6.76508e-07 0)
(9.93144e-09 -6.77978e-07 0)
(9.90614e-09 -6.79448e-07 0)
(9.88074e-09 -6.80918e-07 0)
(9.85525e-09 -6.82387e-07 0)
(9.82967e-09 -6.83856e-07 0)
(9.80399e-09 -6.85325e-07 0)
(9.77822e-09 -6.86793e-07 0)
(9.75235e-09 -6.88261e-07 0)
(9.72639e-09 -6.89728e-07 0)
(9.70033e-09 -6.91195e-07 0)
(9.67418e-09 -6.92662e-07 0)
(9.64793e-09 -6.94128e-07 0)
(9.62159e-09 -6.95593e-07 0)
(9.59515e-09 -6.97058e-07 0)
(9.56862e-09 -6.98522e-07 0)
(9.54199e-09 -6.99986e-07 0)
(9.51527e-09 -7.01449e-07 0)
(9.48845e-09 -7.02911e-07 0)
(9.46154e-09 -7.04372e-07 0)
(9.43453e-09 -7.05833e-07 0)
(9.40743e-09 -7.07293e-07 0)
(9.38024e-09 -7.08753e-07 0)
(9.35294e-09 -7.10211e-07 0)
(9.32556e-09 -7.11669e-07 0)
(9.29808e-09 -7.13126e-07 0)
(9.2705e-09 -7.14582e-07 0)
(9.24283e-09 -7.16037e-07 0)
(9.21507e-09 -7.17491e-07 0)
(9.18721e-09 -7.18944e-07 0)
(9.15925e-09 -7.20396e-07 0)
(9.13121e-09 -7.21848e-07 0)
(9.10306e-09 -7.23298e-07 0)
(9.07483e-09 -7.24747e-07 0)
(9.04649e-09 -7.26195e-07 0)
(9.01807e-09 -7.27642e-07 0)
(8.98955e-09 -7.29087e-07 0)
(8.96093e-09 -7.30532e-07 0)
(8.93223e-09 -7.31975e-07 0)
(8.90342e-09 -7.33417e-07 0)
(8.87453e-09 -7.34858e-07 0)
(8.84554e-09 -7.36297e-07 0)
(8.81646e-09 -7.37735e-07 0)
(8.78728e-09 -7.39172e-07 0)
(8.75801e-09 -7.40607e-07 0)
(8.72865e-09 -7.42041e-07 0)
(8.69919e-09 -7.43474e-07 0)
(8.66965e-09 -7.44904e-07 0)
(8.64001e-09 -7.46334e-07 0)
(8.61027e-09 -7.47762e-07 0)
(8.58045e-09 -7.49188e-07 0)
(8.55053e-09 -7.50613e-07 0)
(8.52052e-09 -7.52036e-07 0)
(8.49042e-09 -7.53457e-07 0)
(8.46022e-09 -7.54877e-07 0)
(8.42994e-09 -7.56295e-07 0)
(8.39956e-09 -7.57711e-07 0)
(8.3691e-09 -7.59126e-07 0)
(8.33854e-09 -7.60538e-07 0)
(8.30789e-09 -7.61949e-07 0)
(8.27715e-09 -7.63358e-07 0)
(8.24632e-09 -7.64765e-07 0)
(8.2154e-09 -7.6617e-07 0)
(8.18439e-09 -7.67573e-07 0)
(8.15329e-09 -7.68974e-07 0)
(8.1221e-09 -7.70373e-07 0)
(8.09083e-09 -7.7177e-07 0)
(8.05946e-09 -7.73165e-07 0)
(8.02801e-09 -7.74557e-07 0)
(7.99647e-09 -7.75948e-07 0)
(7.96484e-09 -7.77336e-07 0)
(7.93312e-09 -7.78722e-07 0)
(7.90131e-09 -7.80105e-07 0)
(7.86942e-09 -7.81487e-07 0)
(7.83744e-09 -7.82866e-07 0)
(7.80538e-09 -7.84242e-07 0)
(7.77323e-09 -7.85616e-07 0)
(7.74099e-09 -7.86988e-07 0)
(7.70867e-09 -7.88357e-07 0)
(7.67626e-09 -7.89724e-07 0)
(7.64377e-09 -7.91088e-07 0)
(7.61119e-09 -7.9245e-07 0)
(7.57853e-09 -7.93809e-07 0)
(7.54579e-09 -7.95165e-07 0)
(7.51296e-09 -7.96519e-07 0)
(7.48005e-09 -7.97869e-07 0)
(7.44706e-09 -7.99218e-07 0)
(7.41399e-09 -8.00563e-07 0)
(7.38083e-09 -8.01905e-07 0)
(7.34759e-09 -8.03245e-07 0)
(7.31427e-09 -8.04581e-07 0)
(7.28088e-09 -8.05915e-07 0)
(7.2474e-09 -8.07246e-07 0)
(7.21384e-09 -8.08574e-07 0)
(7.18021e-09 -8.09898e-07 0)
(7.14649e-09 -8.1122e-07 0)
(7.1127e-09 -8.12538e-07 0)
(7.07883e-09 -8.13853e-07 0)
(7.04488e-09 -8.15166e-07 0)
(7.01086e-09 -8.16474e-07 0)
(6.97676e-09 -8.1778e-07 0)
(6.94258e-09 -8.19082e-07 0)
(6.90833e-09 -8.20381e-07 0)
(6.87401e-09 -8.21677e-07 0)
(6.83961e-09 -8.22969e-07 0)
(6.80513e-09 -8.24257e-07 0)
(6.77059e-09 -8.25542e-07 0)
(6.73597e-09 -8.26824e-07 0)
(6.70128e-09 -8.28102e-07 0)
(6.66652e-09 -8.29376e-07 0)
(6.63169e-09 -8.30647e-07 0)
(6.59679e-09 -8.31914e-07 0)
(6.56182e-09 -8.33178e-07 0)
(6.52678e-09 -8.34437e-07 0)
(6.49167e-09 -8.35693e-07 0)
(6.4565e-09 -8.36945e-07 0)
(6.42125e-09 -8.38193e-07 0)
(6.38595e-09 -8.39437e-07 0)
(6.35057e-09 -8.40677e-07 0)
(6.31513e-09 -8.41914e-07 0)
(6.27963e-09 -8.43146e-07 0)
(6.24406e-09 -8.44374e-07 0)
(6.20843e-09 -8.45598e-07 0)
(6.17274e-09 -8.46818e-07 0)
(6.13699e-09 -8.48034e-07 0)
(6.10117e-09 -8.49245e-07 0)
(6.0653e-09 -8.50452e-07 0)
(6.02936e-09 -8.51655e-07 0)
(5.99337e-09 -8.52854e-07 0)
(5.95732e-09 -8.54048e-07 0)
(5.92121e-09 -8.55238e-07 0)
(5.88504e-09 -8.56423e-07 0)
(5.84882e-09 -8.57604e-07 0)
(5.81255e-09 -8.5878e-07 0)
(5.77622e-09 -8.59952e-07 0)
(5.73983e-09 -8.61119e-07 0)
(5.7034e-09 -8.62282e-07 0)
(5.66691e-09 -8.63439e-07 0)
(5.63037e-09 -8.64592e-07 0)
(5.59378e-09 -8.65741e-07 0)
(5.55715e-09 -8.66884e-07 0)
(5.52046e-09 -8.68023e-07 0)
(5.48372e-09 -8.69157e-07 0)
(5.44694e-09 -8.70285e-07 0)
(5.41012e-09 -8.71409e-07 0)
(5.37325e-09 -8.72528e-07 0)
(5.33632e-09 -8.73642e-07 0)
(5.29941e-09 -8.7475e-07 0)
(5.2622e-09 -8.75855e-07 0)
(5.22606e-09 -8.76948e-07 0)
(5.19145e-09 -8.77984e-07 0)
(5.15735e-09 -8.78965e-07 0)
(5.12367e-09 -8.79935e-07 0)
(5.08985e-09 -8.80911e-07 0)
(5.05574e-09 -8.81895e-07 0)
(5.02131e-09 -8.82885e-07 0)
(4.98656e-09 -8.83877e-07 0)
(4.95148e-09 -8.84872e-07 0)
(4.91606e-09 -8.85871e-07 0)
(4.88031e-09 -8.86874e-07 0)
(4.84423e-09 -8.8788e-07 0)
(4.8078e-09 -8.8889e-07 0)
(4.77104e-09 -8.89903e-07 0)
(4.73394e-09 -8.90919e-07 0)
(4.69649e-09 -8.91938e-07 0)
(4.6587e-09 -8.9296e-07 0)
(4.62056e-09 -8.93984e-07 0)
(4.58207e-09 -8.95011e-07 0)
(4.54324e-09 -8.96041e-07 0)
(4.50405e-09 -8.97073e-07 0)
(4.46451e-09 -8.98106e-07 0)
(4.42462e-09 -8.99142e-07 0)
(4.38438e-09 -9.0018e-07 0)
(4.34378e-09 -9.01219e-07 0)
(4.30282e-09 -9.0226e-07 0)
(4.26151e-09 -9.03302e-07 0)
(4.21984e-09 -9.04346e-07 0)
(4.17781e-09 -9.0539e-07 0)
(4.13541e-09 -9.06435e-07 0)
(4.09266e-09 -9.0748e-07 0)
(4.04955e-09 -9.08526e-07 0)
(4.00607e-09 -9.09572e-07 0)
(3.96224e-09 -9.10617e-07 0)
(3.91804e-09 -9.11663e-07 0)
(3.87348e-09 -9.12708e-07 0)
(3.82856e-09 -9.13752e-07 0)
(3.78327e-09 -9.14795e-07 0)
(3.73762e-09 -9.15837e-07 0)
(3.69161e-09 -9.16877e-07 0)
(3.64524e-09 -9.17915e-07 0)
(3.59851e-09 -9.18952e-07 0)
(3.55142e-09 -9.19986e-07 0)
(3.50397e-09 -9.21017e-07 0)
(3.45616e-09 -9.22046e-07 0)
(3.40799e-09 -9.23072e-07 0)
(3.35947e-09 -9.24094e-07 0)
(3.31059e-09 -9.25112e-07 0)
(3.26136e-09 -9.26126e-07 0)
(3.21178e-09 -9.27136e-07 0)
(3.16185e-09 -9.2814e-07 0)
(3.11157e-09 -9.2914e-07 0)
(3.06094e-09 -9.30135e-07 0)
(3.00998e-09 -9.31124e-07 0)
(2.95867e-09 -9.32106e-07 0)
(2.90703e-09 -9.33082e-07 0)
(2.85505e-09 -9.34052e-07 0)
(2.80274e-09 -9.35014e-07 0)
(2.7501e-09 -9.35968e-07 0)
(2.69714e-09 -9.36915e-07 0)
(2.64386e-09 -9.37853e-07 0)
(2.59027e-09 -9.38782e-07 0)
(2.53636e-09 -9.39702e-07 0)
(2.48215e-09 -9.40612e-07 0)
(2.42763e-09 -9.41513e-07 0)
(2.37281e-09 -9.42403e-07 0)
(2.31771e-09 -9.43281e-07 0)
(2.26232e-09 -9.44149e-07 0)
(2.20664e-09 -9.45004e-07 0)
(2.1507e-09 -9.45848e-07 0)
(2.09448e-09 -9.46678e-07 0)
(2.038e-09 -9.47495e-07 0)
(1.98127e-09 -9.48299e-07 0)
(1.92429e-09 -9.49088e-07 0)
(1.86707e-09 -9.49862e-07 0)
(1.80962e-09 -9.50621e-07 0)
(1.75194e-09 -9.51364e-07 0)
(1.69405e-09 -9.52091e-07 0)
(1.63595e-09 -9.52801e-07 0)
(1.57765e-09 -9.53493e-07 0)
(1.51916e-09 -9.54168e-07 0)
(1.46049e-09 -9.54824e-07 0)
(1.40166e-09 -9.55461e-07 0)
(1.34266e-09 -9.56078e-07 0)
(1.28351e-09 -9.56675e-07 0)
(1.22423e-09 -9.57251e-07 0)
(1.16482e-09 -9.57806e-07 0)
(1.10529e-09 -9.58339e-07 0)
(1.04567e-09 -9.58849e-07 0)
(9.85946e-10 -9.59336e-07 0)
(9.26147e-10 -9.598e-07 0)
(8.66282e-10 -9.60239e-07 0)
(8.06366e-10 -9.60653e-07 0)
(7.4641e-10 -9.61041e-07 0)
(6.86429e-10 -9.61403e-07 0)
(6.26438e-10 -9.61739e-07 0)
(5.6645e-10 -9.62046e-07 0)
(5.06481e-10 -9.62326e-07 0)
(4.46546e-10 -9.62577e-07 0)
(3.86661e-10 -9.62798e-07 0)
(3.26842e-10 -9.6299e-07 0)
(2.67104e-10 -9.63151e-07 0)
(2.07465e-10 -9.6328e-07 0)
(1.47941e-10 -9.63378e-07 0)
(8.85494e-11 -9.63443e-07 0)
(2.93079e-11 -9.63475e-07 0)
(-2.97658e-11 -9.63473e-07 0)
(-8.86537e-11 -9.63436e-07 0)
(-1.47337e-10 -9.63365e-07 0)
(-2.05798e-10 -9.63257e-07 0)
(-2.64017e-10 -9.63113e-07 0)
(-3.21975e-10 -9.62932e-07 0)
(-3.79652e-10 -9.62714e-07 0)
(-4.37029e-10 -9.62457e-07 0)
(-4.94086e-10 -9.62162e-07 0)
(-5.50803e-10 -9.61827e-07 0)
(-6.0716e-10 -9.61452e-07 0)
(-6.63136e-10 -9.61036e-07 0)
(-7.1871e-10 -9.60579e-07 0)
(-7.73862e-10 -9.6008e-07 0)
(-8.2857e-10 -9.59539e-07 0)
(-8.82814e-10 -9.58955e-07 0)
(-9.36572e-10 -9.58328e-07 0)
(-9.89824e-10 -9.57656e-07 0)
(-1.04255e-09 -9.5694e-07 0)
(-1.09472e-09 -9.56179e-07 0)
(-1.14632e-09 -9.55373e-07 0)
(-1.19733e-09 -9.5452e-07 0)
(-1.24773e-09 -9.53621e-07 0)
(-1.29749e-09 -9.52676e-07 0)
(-1.3466e-09 -9.51683e-07 0)
(-1.39502e-09 -9.50642e-07 0)
(-1.44275e-09 -9.49553e-07 0)
(-1.48976e-09 -9.48416e-07 0)
(-1.53603e-09 -9.47229e-07 0)
(-1.58153e-09 -9.45994e-07 0)
(-1.62626e-09 -9.44709e-07 0)
(-1.67018e-09 -9.43374e-07 0)
(-1.71328e-09 -9.4199e-07 0)
(-1.75554e-09 -9.40555e-07 0)
(-1.79694e-09 -9.39069e-07 0)
(-1.83746e-09 -9.37533e-07 0)
(-1.87708e-09 -9.35946e-07 0)
(-1.91578e-09 -9.34308e-07 0)
(-1.95355e-09 -9.32619e-07 0)
(-1.99036e-09 -9.30879e-07 0)
(-2.02621e-09 -9.29087e-07 0)
(-2.06107e-09 -9.27244e-07 0)
(-2.09493e-09 -9.2535e-07 0)
(-2.12777e-09 -9.23405e-07 0)
(-2.15958e-09 -9.21408e-07 0)
(-2.19035e-09 -9.1936e-07 0)
(-2.22005e-09 -9.17262e-07 0)
(-2.24869e-09 -9.15112e-07 0)
(-2.27624e-09 -9.12912e-07 0)
(-2.30269e-09 -9.10662e-07 0)
(-2.32804e-09 -9.08361e-07 0)
(-2.35227e-09 -9.06011e-07 0)
(-2.37537e-09 -9.03611e-07 0)
(-2.39734e-09 -9.01162e-07 0)
(-2.41817e-09 -8.98664e-07 0)
(-2.43784e-09 -8.96118e-07 0)
(-2.45636e-09 -8.93524e-07 0)
(-2.47372e-09 -8.90883e-07 0)
(-2.48992e-09 -8.88195e-07 0)
(-2.50495e-09 -8.8546e-07 0)
(-2.5188e-09 -8.8268e-07 0)
(-2.53148e-09 -8.79855e-07 0)
(-2.54299e-09 -8.76986e-07 0)
(-2.55332e-09 -8.74073e-07 0)
(-2.56248e-09 -8.71117e-07 0)
(-2.57046e-09 -8.68119e-07 0)
(-2.57728e-09 -8.6508e-07 0)
(-2.58292e-09 -8.62e-07 0)
(-2.58741e-09 -8.58881e-07 0)
(-2.59074e-09 -8.55723e-07 0)
(-2.59291e-09 -8.52527e-07 0)
(-2.59394e-09 -8.49295e-07 0)
(-2.59384e-09 -8.46028e-07 0)
(-2.5926e-09 -8.42723e-07 0)
(-2.59028e-09 -8.39392e-07 0)
(-2.58663e-09 -8.35986e-07 0)
(-2.58138e-09 -8.32227e-07 0)
(-2.5745e-09 -8.28111e-07 0)
(-2.56596e-09 -8.23921e-07 0)
(-2.55597e-09 -8.19755e-07 0)
(-2.54466e-09 -8.1563e-07 0)
(-2.53212e-09 -8.1153e-07 0)
(-2.51843e-09 -8.07446e-07 0)
(-2.50364e-09 -8.03381e-07 0)
(-2.48782e-09 -7.99342e-07 0)
(-2.47102e-09 -7.9533e-07 0)
(-2.45331e-09 -7.91347e-07 0)
(-2.43474e-09 -7.87392e-07 0)
(-2.41536e-09 -7.83469e-07 0)
(-2.39522e-09 -7.79577e-07 0)
(-2.37437e-09 -7.75719e-07 0)
(-2.35286e-09 -7.71894e-07 0)
(-2.33072e-09 -7.68106e-07 0)
(-2.308e-09 -7.64353e-07 0)
(-2.28473e-09 -7.60638e-07 0)
(-2.26095e-09 -7.56961e-07 0)
(-2.2367e-09 -7.53323e-07 0)
(-2.21201e-09 -7.49724e-07 0)
(-2.1869e-09 -7.46166e-07 0)
(-2.16141e-09 -7.42649e-07 0)
(-2.13556e-09 -7.39173e-07 0)
(-2.10938e-09 -7.35739e-07 0)
(-2.08288e-09 -7.32348e-07 0)
(-2.0561e-09 -7.29001e-07 0)
(-2.02905e-09 -7.25696e-07 0)
(-2.00176e-09 -7.22436e-07 0)
(-1.97423e-09 -7.1922e-07 0)
(-1.94649e-09 -7.16049e-07 0)
(-1.91854e-09 -7.12923e-07 0)
(-1.89041e-09 -7.09842e-07 0)
(-1.86211e-09 -7.06807e-07 0)
(-1.83365e-09 -7.03817e-07 0)
(-1.80504e-09 -7.00874e-07 0)
(-1.77628e-09 -6.97978e-07 0)
(-1.7474e-09 -6.95128e-07 0)
(-1.71839e-09 -6.92325e-07 0)
(-1.68927e-09 -6.89568e-07 0)
(-1.66003e-09 -6.86859e-07 0)
(-1.6307e-09 -6.84198e-07 0)
(-1.60126e-09 -6.81584e-07 0)
(-1.57174e-09 -6.79017e-07 0)
(-1.54212e-09 -6.76499e-07 0)
(-1.51242e-09 -6.74028e-07 0)
(-1.48264e-09 -6.71606e-07 0)
(-1.45277e-09 -6.69232e-07 0)
(-1.42283e-09 -6.66906e-07 0)
(-1.39282e-09 -6.64629e-07 0)
(-1.36273e-09 -6.624e-07 0)
(-1.33257e-09 -6.6022e-07 0)
(-1.30234e-09 -6.58089e-07 0)
(-1.27204e-09 -6.56007e-07 0)
(-1.24167e-09 -6.53974e-07 0)
(-1.21124e-09 -6.5199e-07 0)
(-1.18073e-09 -6.50055e-07 0)
(-1.15016e-09 -6.4817e-07 0)
(-1.11952e-09 -6.46334e-07 0)
(-1.08882e-09 -6.44548e-07 0)
(-1.05805e-09 -6.42811e-07 0)
(-1.02721e-09 -6.41125e-07 0)
(-9.96302e-10 -6.39488e-07 0)
(-9.65331e-10 -6.37902e-07 0)
(-9.34294e-10 -6.36365e-07 0)
(-9.03191e-10 -6.34879e-07 0)
(-8.72024e-10 -6.33443e-07 0)
(-8.40792e-10 -6.32058e-07 0)
(-8.09495e-10 -6.30723e-07 0)
(-7.78136e-10 -6.29439e-07 0)
(-7.46714e-10 -6.28206e-07 0)
(-7.1523e-10 -6.27023e-07 0)
(-6.83687e-10 -6.25892e-07 0)
(-6.52084e-10 -6.24811e-07 0)
(-6.20423e-10 -6.23782e-07 0)
(-5.88706e-10 -6.22804e-07 0)
(-5.56934e-10 -6.21877e-07 0)
(-5.2511e-10 -6.21002e-07 0)
(-4.93236e-10 -6.20179e-07 0)
(-4.61313e-10 -6.19406e-07 0)
(-4.29344e-10 -6.18686e-07 0)
(-3.97331e-10 -6.18017e-07 0)
(-3.65278e-10 -6.17401e-07 0)
(-3.33186e-10 -6.16835e-07 0)
(-3.01059e-10 -6.16326e-07 0)
(-2.68898e-10 -6.15852e-07 0)
(-2.36714e-10 -6.15485e-07 0)
(-2.04484e-10 -6.14986e-07 0)
(-1.72295e-10 -6.15147e-07 0)
(-1.39882e-10 -6.13297e-07 0)
(-1.0814e-10 -6.18086e-07 0)
(-7.42124e-11 -5.99444e-07 0)
(-4.7912e-11 -6.4857e-07 0)
(-2.00783e-11 -5.66428e-07 0)
)
;
    }
    bottomWall
    {
        type            calculated;
        value           nonuniform List<vector> 
449
(
(-48.5214 -0.963951 0)
(-19.7474 -0.00515414 0)
(-14.3407 -0.00113463 0)
(-12.0314 -0.000545419 0)
(-10.6255 -0.000351462 0)
(-9.63178 -0.00025597 0)
(-8.87378 -0.000198467 0)
(-8.27033 -0.000159801 0)
(-7.77495 -0.000132313 0)
(-7.35835 -0.000111968 0)
(-7.00138 -9.63693e-05 0)
(-6.69098 -8.40636e-05 0)
(-6.41785 -7.41467e-05 0)
(-6.17508 -6.60199e-05 0)
(-5.9574 -5.92636e-05 0)
(-5.76077 -5.35746e-05 0)
(-5.58199 -4.87308e-05 0)
(-5.41849 -4.45663e-05 0)
(-5.26822 -4.09552e-05 0)
(-5.12947 -3.77999e-05 0)
(-5.00083 -3.50239e-05 0)
(-4.88113 -3.25663e-05 0)
(-4.76937 -3.03785e-05 0)
(-4.66471 -2.84208e-05 0)
(-4.56642 -2.66607e-05 0)
(-4.47388 -2.50715e-05 0)
(-4.38654 -2.3631e-05 0)
(-4.30394 -2.23203e-05 0)
(-4.22565 -2.11238e-05 0)
(-4.15131 -2.0028e-05 0)
(-4.08059 -1.90215e-05 0)
(-4.01321 -1.80944e-05 0)
(-3.94892 -1.72383e-05 0)
(-3.88748 -1.64459e-05 0)
(-3.82868 -1.57107e-05 0)
(-3.77234 -1.50271e-05 0)
(-3.71829 -1.43903e-05 0)
(-3.66638 -1.37958e-05 0)
(-3.61647 -1.32399e-05 0)
(-3.56843 -1.27191e-05 0)
(-3.52215 -1.22305e-05 0)
(-3.47752 -1.17714e-05 0)
(-3.43445 -1.13392e-05 0)
(-3.39284 -1.0932e-05 0)
(-3.35262 -1.05477e-05 0)
(-3.3137 -1.01845e-05 0)
(-3.27602 -9.84092e-06 0)
(-3.23951 -9.51548e-06 0)
(-3.20411 -9.20689e-06 0)
(-3.16977 -8.91394e-06 0)
(-3.13643 -8.63557e-06 0)
(-3.10405 -8.37078e-06 0)
(-3.07258 -8.11867e-06 0)
(-3.04198 -7.87841e-06 0)
(-3.0122 -7.64924e-06 0)
(-2.98321 -7.43047e-06 0)
(-2.95498 -7.22144e-06 0)
(-2.92747 -7.02158e-06 0)
(-2.90065 -6.83032e-06 0)
(-2.8745 -6.64717e-06 0)
(-2.84898 -6.47165e-06 0)
(-2.82407 -6.30334e-06 0)
(-2.79975 -6.14182e-06 0)
(-2.77599 -5.98673e-06 0)
(-2.75277 -5.83771e-06 0)
(-2.73007 -5.69444e-06 0)
(-2.70788 -5.55662e-06 0)
(-2.68616 -5.42396e-06 0)
(-2.66491 -5.2962e-06 0)
(-2.64411 -5.1731e-06 0)
(-2.62374 -5.05441e-06 0)
(-2.60378 -4.93993e-06 0)
(-2.58423 -4.82946e-06 0)
(-2.56507 -4.72279e-06 0)
(-2.54629 -4.61975e-06 0)
(-2.52787 -4.52017e-06 0)
(-2.5098 -4.4239e-06 0)
(-2.49207 -4.33078e-06 0)
(-2.47468 -4.24068e-06 0)
(-2.4576 -4.15345e-06 0)
(-2.44083 -4.06898e-06 0)
(-2.42436 -3.98714e-06 0)
(-2.40819 -3.90782e-06 0)
(-2.39229 -3.83093e-06 0)
(-2.37667 -3.75634e-06 0)
(-2.36132 -3.68398e-06 0)
(-2.34623 -3.61375e-06 0)
(-2.33138 -3.54557e-06 0)
(-2.31678 -3.47934e-06 0)
(-2.30242 -3.41501e-06 0)
(-2.28829 -3.35249e-06 0)
(-2.27439 -3.29171e-06 0)
(-2.2607 -3.23261e-06 0)
(-2.24722 -3.17512e-06 0)
(-2.23396 -3.11919e-06 0)
(-2.22089 -3.06475e-06 0)
(-2.20802 -3.01176e-06 0)
(-2.19535 -2.96015e-06 0)
(-2.18286 -2.90989e-06 0)
(-2.17055 -2.86091e-06 0)
(-2.15842 -2.81319e-06 0)
(-2.14646 -2.76667e-06 0)
(-2.13467 -2.72131e-06 0)
(-2.12305 -2.67708e-06 0)
(-2.11159 -2.63393e-06 0)
(-2.10028 -2.59183e-06 0)
(-2.08913 -2.55074e-06 0)
(-2.07813 -2.51063e-06 0)
(-2.06728 -2.47148e-06 0)
(-2.05657 -2.43324e-06 0)
(-2.046 -2.39589e-06 0)
(-2.03556 -2.3594e-06 0)
(-2.02526 -2.32374e-06 0)
(-2.0151 -2.2889e-06 0)
(-2.00506 -2.25483e-06 0)
(-1.99514 -2.22153e-06 0)
(-1.98535 -2.18896e-06 0)
(-1.97568 -2.1571e-06 0)
(-1.96612 -2.12594e-06 0)
(-1.95669 -2.09545e-06 0)
(-1.94736 -2.06561e-06 0)
(-1.93814 -2.03641e-06 0)
(-1.92904 -2.00782e-06 0)
(-1.92004 -1.97983e-06 0)
(-1.91114 -1.95241e-06 0)
(-1.90235 -1.92557e-06 0)
(-1.89365 -1.89927e-06 0)
(-1.88506 -1.8735e-06 0)
(-1.87656 -1.84825e-06 0)
(-1.86815 -1.82351e-06 0)
(-1.85984 -1.79926e-06 0)
(-1.85162 -1.77548e-06 0)
(-1.84348 -1.75217e-06 0)
(-1.83544 -1.72932e-06 0)
(-1.82748 -1.7069e-06 0)
(-1.8196 -1.68491e-06 0)
(-1.81181 -1.66334e-06 0)
(-1.8041 -1.64218e-06 0)
(-1.79647 -1.62141e-06 0)
(-1.78892 -1.60103e-06 0)
(-1.78144 -1.58102e-06 0)
(-1.77404 -1.56139e-06 0)
(-1.76671 -1.54211e-06 0)
(-1.75946 -1.52318e-06 0)
(-1.75228 -1.50459e-06 0)
(-1.74517 -1.48633e-06 0)
(-1.73813 -1.4684e-06 0)
(-1.73116 -1.45079e-06 0)
(-1.72425 -1.43348e-06 0)
(-1.71741 -1.41648e-06 0)
(-1.71064 -1.39977e-06 0)
(-1.70393 -1.38334e-06 0)
(-1.69728 -1.3672e-06 0)
(-1.6907 -1.35134e-06 0)
(-1.68417 -1.33574e-06 0)
(-1.67771 -1.3204e-06 0)
(-1.6713 -1.30532e-06 0)
(-1.66495 -1.29049e-06 0)
(-1.65866 -1.2759e-06 0)
(-1.65243 -1.26156e-06 0)
(-1.64625 -1.24745e-06 0)
(-1.64012 -1.23356e-06 0)
(-1.63405 -1.2199e-06 0)
(-1.62803 -1.20647e-06 0)
(-1.62207 -1.19324e-06 0)
(-1.61615 -1.18023e-06 0)
(-1.61029 -1.16741e-06 0)
(-1.60447 -1.15481e-06 0)
(-1.59871 -1.14243e-06 0)
(-1.59299 -1.1301e-06 0)
(-1.58732 -1.11841e-06 0)
(-1.5817 -1.10631e-06 0)
(-1.57612 -1.09318e-06 0)
(-1.57091 -1.083e-06 0)
(-1.56601 -1.07477e-06 0)
(-1.5611 -1.06442e-06 0)
(-1.55618 -1.05373e-06 0)
(-1.55126 -1.04373e-06 0)
(-1.54633 -1.03369e-06 0)
(-1.5414 -1.02378e-06 0)
(-1.53646 -1.01392e-06 0)
(-1.53152 -1.00413e-06 0)
(-1.52657 -9.94406e-07 0)
(-1.52162 -9.84736e-07 0)
(-1.51666 -9.75122e-07 0)
(-1.51169 -9.65564e-07 0)
(-1.50672 -9.56061e-07 0)
(-1.50175 -9.46614e-07 0)
(-1.49677 -9.37221e-07 0)
(-1.49179 -9.27884e-07 0)
(-1.48681 -9.18602e-07 0)
(-1.48182 -9.09376e-07 0)
(-1.47682 -9.00205e-07 0)
(-1.47183 -8.9109e-07 0)
(-1.46683 -8.82032e-07 0)
(-1.46183 -8.7303e-07 0)
(-1.45682 -8.64085e-07 0)
(-1.45182 -8.55197e-07 0)
(-1.44681 -8.46366e-07 0)
(-1.4418 -8.37592e-07 0)
(-1.43678 -8.28876e-07 0)
(-1.43177 -8.20217e-07 0)
(-1.42675 -8.11617e-07 0)
(-1.42173 -8.03075e-07 0)
(-1.41671 -7.94591e-07 0)
(-1.4117 -7.86166e-07 0)
(-1.40668 -7.77799e-07 0)
(-1.40165 -7.69491e-07 0)
(-1.39663 -7.61242e-07 0)
(-1.39161 -7.53052e-07 0)
(-1.38659 -7.44921e-07 0)
(-1.38157 -7.36849e-07 0)
(-1.37655 -7.28836e-07 0)
(-1.37153 -7.20883e-07 0)
(-1.36651 -7.1299e-07 0)
(-1.3615 -7.05155e-07 0)
(-1.35648 -6.97381e-07 0)
(-1.35147 -6.89666e-07 0)
(-1.34645 -6.8201e-07 0)
(-1.34144 -6.74414e-07 0)
(-1.33643 -6.66878e-07 0)
(-1.33143 -6.59402e-07 0)
(-1.32642 -6.51985e-07 0)
(-1.32142 -6.44627e-07 0)
(-1.31642 -6.37329e-07 0)
(-1.31143 -6.30091e-07 0)
(-1.30643 -6.22912e-07 0)
(-1.30145 -6.15793e-07 0)
(-1.29646 -6.08733e-07 0)
(-1.29148 -6.01732e-07 0)
(-1.2865 -5.9479e-07 0)
(-1.28152 -5.87908e-07 0)
(-1.27655 -5.81084e-07 0)
(-1.27159 -5.7432e-07 0)
(-1.26663 -5.67614e-07 0)
(-1.26167 -5.60967e-07 0)
(-1.25672 -5.54378e-07 0)
(-1.25177 -5.47848e-07 0)
(-1.24683 -5.41376e-07 0)
(-1.2419 -5.34962e-07 0)
(-1.23697 -5.28606e-07 0)
(-1.23204 -5.22308e-07 0)
(-1.22712 -5.16067e-07 0)
(-1.22221 -5.09884e-07 0)
(-1.2173 -5.03758e-07 0)
(-1.2124 -4.97689e-07 0)
(-1.20751 -4.91677e-07 0)
(-1.20262 -4.85722e-07 0)
(-1.19774 -4.79823e-07 0)
(-1.19287 -4.7398e-07 0)
(-1.188 -4.68193e-07 0)
(-1.18314 -4.62462e-07 0)
(-1.17829 -4.56787e-07 0)
(-1.17345 -4.51166e-07 0)
(-1.16861 -4.45601e-07 0)
(-1.16378 -4.40091e-07 0)
(-1.15896 -4.34635e-07 0)
(-1.15415 -4.29233e-07 0)
(-1.14935 -4.23886e-07 0)
(-1.14455 -4.18592e-07 0)
(-1.13976 -4.13351e-07 0)
(-1.13498 -4.08164e-07 0)
(-1.13021 -4.0303e-07 0)
(-1.12545 -3.97948e-07 0)
(-1.1207 -3.92919e-07 0)
(-1.11596 -3.87942e-07 0)
(-1.11122 -3.83016e-07 0)
(-1.1065 -3.78142e-07 0)
(-1.10178 -3.73319e-07 0)
(-1.09708 -3.68547e-07 0)
(-1.09238 -3.63826e-07 0)
(-1.0877 -3.59154e-07 0)
(-1.08302 -3.54533e-07 0)
(-1.07836 -3.49961e-07 0)
(-1.0737 -3.45439e-07 0)
(-1.06905 -3.40965e-07 0)
(-1.06442 -3.3654e-07 0)
(-1.05979 -3.32163e-07 0)
(-1.05518 -3.27834e-07 0)
(-1.05058 -3.23553e-07 0)
(-1.04599 -3.1932e-07 0)
(-1.0414 -3.15133e-07 0)
(-1.03683 -3.10992e-07 0)
(-1.03227 -3.06898e-07 0)
(-1.02773 -3.0285e-07 0)
(-1.02319 -2.98848e-07 0)
(-1.01866 -2.94891e-07 0)
(-1.01415 -2.90979e-07 0)
(-1.00965 -2.87111e-07 0)
(-1.00516 -2.83288e-07 0)
(-1.00068 -2.79508e-07 0)
(-0.996209 -2.75772e-07 0)
(-0.991754 -2.72079e-07 0)
(-0.98731 -2.68429e-07 0)
(-0.982878 -2.64822e-07 0)
(-0.978459 -2.61256e-07 0)
(-0.974051 -2.57733e-07 0)
(-0.969656 -2.54251e-07 0)
(-0.965273 -2.5081e-07 0)
(-0.960903 -2.47409e-07 0)
(-0.956545 -2.44049e-07 0)
(-0.952199 -2.40729e-07 0)
(-0.947866 -2.37449e-07 0)
(-0.943546 -2.34208e-07 0)
(-0.939238 -2.31006e-07 0)
(-0.934943 -2.27843e-07 0)
(-0.930661 -2.24718e-07 0)
(-0.926392 -2.21631e-07 0)
(-0.922136 -2.18581e-07 0)
(-0.917893 -2.15569e-07 0)
(-0.913662 -2.12594e-07 0)
(-0.909445 -2.09655e-07 0)
(-0.905241 -2.06752e-07 0)
(-0.901051 -2.03885e-07 0)
(-0.896873 -2.01054e-07 0)
(-0.892709 -1.98258e-07 0)
(-0.888558 -1.95497e-07 0)
(-0.88442 -1.9277e-07 0)
(-0.880296 -1.90077e-07 0)
(-0.876185 -1.87419e-07 0)
(-0.872088 -1.84793e-07 0)
(-0.868004 -1.82201e-07 0)
(-0.863934 -1.79642e-07 0)
(-0.859877 -1.77115e-07 0)
(-0.855834 -1.7462e-07 0)
(-0.851805 -1.72157e-07 0)
(-0.84779 -1.69726e-07 0)
(-0.843788 -1.67326e-07 0)
(-0.8398 -1.64956e-07 0)
(-0.835825 -1.62617e-07 0)
(-0.831865 -1.60309e-07 0)
(-0.827918 -1.5803e-07 0)
(-0.823985 -1.5578e-07 0)
(-0.820066 -1.5356e-07 0)
(-0.816161 -1.51369e-07 0)
(-0.81227 -1.49207e-07 0)
(-0.808393 -1.47073e-07 0)
(-0.804529 -1.44966e-07 0)
(-0.80068 -1.42888e-07 0)
(-0.796845 -1.40837e-07 0)
(-0.793023 -1.38812e-07 0)
(-0.789216 -1.36815e-07 0)
(-0.785423 -1.34844e-07 0)
(-0.781643 -1.32899e-07 0)
(-0.777878 -1.3098e-07 0)
(-0.774127 -1.29086e-07 0)
(-0.77039 -1.27218e-07 0)
(-0.766667 -1.25374e-07 0)
(-0.762958 -1.23553e-07 0)
(-0.759264 -1.2176e-07 0)
(-0.755583 -1.19984e-07 0)
(-0.751917 -1.18196e-07 0)
(-0.748267 -1.16558e-07 0)
(-0.744624 -1.14931e-07 0)
(-0.74059 -1.12944e-07 0)
(-0.736215 -1.10834e-07 0)
(-0.731919 -1.08933e-07 0)
(-0.727693 -1.07135e-07 0)
(-0.723538 -1.05325e-07 0)
(-0.719453 -1.0355e-07 0)
(-0.715436 -1.01821e-07 0)
(-0.711487 -1.00138e-07 0)
(-0.707602 -9.84999e-08 0)
(-0.703781 -9.69056e-08 0)
(-0.700021 -9.53536e-08 0)
(-0.696321 -9.38426e-08 0)
(-0.692679 -9.23711e-08 0)
(-0.689094 -9.09376e-08 0)
(-0.685565 -8.9541e-08 0)
(-0.682089 -8.81797e-08 0)
(-0.678666 -8.68526e-08 0)
(-0.675294 -8.55586e-08 0)
(-0.671972 -8.42964e-08 0)
(-0.668699 -8.3065e-08 0)
(-0.665474 -8.18634e-08 0)
(-0.662295 -8.06904e-08 0)
(-0.659161 -7.95453e-08 0)
(-0.656071 -7.84271e-08 0)
(-0.653025 -7.73349e-08 0)
(-0.650021 -7.62679e-08 0)
(-0.647058 -7.52252e-08 0)
(-0.644136 -7.42061e-08 0)
(-0.641253 -7.32099e-08 0)
(-0.638408 -7.22359e-08 0)
(-0.635602 -7.12833e-08 0)
(-0.632832 -7.03516e-08 0)
(-0.630098 -6.944e-08 0)
(-0.627399 -6.8548e-08 0)
(-0.624735 -6.76751e-08 0)
(-0.622104 -6.68206e-08 0)
(-0.619507 -6.5984e-08 0)
(-0.616942 -6.51648e-08 0)
(-0.614409 -6.43625e-08 0)
(-0.611907 -6.35766e-08 0)
(-0.609435 -6.28067e-08 0)
(-0.606993 -6.20523e-08 0)
(-0.60458 -6.1313e-08 0)
(-0.602196 -6.05884e-08 0)
(-0.59984 -5.9878e-08 0)
(-0.597512 -5.91815e-08 0)
(-0.59521 -5.84986e-08 0)
(-0.592935 -5.78288e-08 0)
(-0.590686 -5.71719e-08 0)
(-0.588462 -5.65274e-08 0)
(-0.586264 -5.58952e-08 0)
(-0.58409 -5.52747e-08 0)
(-0.581939 -5.46659e-08 0)
(-0.579813 -5.40684e-08 0)
(-0.577709 -5.34818e-08 0)
(-0.575629 -5.2906e-08 0)
(-0.57357 -5.23407e-08 0)
(-0.571534 -5.17856e-08 0)
(-0.569519 -5.12405e-08 0)
(-0.567525 -5.07052e-08 0)
(-0.565552 -5.01795e-08 0)
(-0.563599 -4.96631e-08 0)
(-0.561667 -4.91559e-08 0)
(-0.559754 -4.86576e-08 0)
(-0.55786 -4.81681e-08 0)
(-0.555985 -4.76873e-08 0)
(-0.554129 -4.72149e-08 0)
(-0.552291 -4.67508e-08 0)
(-0.550472 -4.62949e-08 0)
(-0.54867 -4.58471e-08 0)
(-0.546885 -4.54072e-08 0)
(-0.545117 -4.49753e-08 0)
(-0.543366 -4.45512e-08 0)
(-0.541632 -4.41348e-08 0)
(-0.539913 -4.37264e-08 0)
(-0.538211 -4.33257e-08 0)
(-0.536524 -4.29331e-08 0)
(-0.534852 -4.25486e-08 0)
(-0.533195 -4.21726e-08 0)
(-0.531553 -4.18055e-08 0)
(-0.529924 -4.14479e-08 0)
(-0.52831 -4.11007e-08 0)
(-0.526709 -4.07654e-08 0)
(-0.525121 -4.04431e-08 0)
(-0.523545 -4.01373e-08 0)
(-0.521981 -3.98601e-08 0)
(-0.520426 -3.95813e-08 0)
(-0.518884 -3.93604e-08 0)
(-0.517347 -3.94217e-08 0)
(-0.5158 -3.87392e-08 0)
(-0.514317 -3.78701e-08 0)
(-0.512837 -5.00416e-08 0)
(-0.510401 -1.4021e-08 0)
(-0.511751 -3.69514e-08 0)
(-0.507467 -5.56912e-08 0)
)
;
    }
    symmetry
    {
        type            symmetryPlane;
    }
    frontAndBack
    {
        type            empty;
    }
}


// ************************************************************************* //
