/*--------------------------------*- C++ -*----------------------------------*\
| =========                 |                                                 |
| \\      /  F ield         | OpenFOAM: The Open Source CFD Toolbox           |
|  \\    /   O peration     | Version:  v2012                                 |
|   \\  /    A nd           | Website:  www.openfoam.com                      |
|    \\/     M anipulation  |                                                 |
\*---------------------------------------------------------------------------*/
FoamFile
{
    version     2.0;
    format      ascii;
    class       volScalarField;
    location    "54.5";
    object      yPlus;
}
// * * * * * * * * * * * * * * * * * * * * * * * * * * * * * * * * * * * * * //

dimensions      [0 0 0 0 0 0 0];


internalField   uniform 0;

boundaryField
{
    inlet
    {
        type            calculated;
        value           uniform 0;
    }
    outlet
    {
        type            calculated;
        value           uniform 0;
    }
    topWall
    {
        type            calculated;
        value           nonuniform List<scalar> 
545
(
0.0708351
0.12214
0.156688
0.184172
0.207427
0.227761
0.245909
0.262334
0.277352
0.291187
0.304011
0.315955
0.327124
0.337602
0.347461
0.356758
0.365545
0.373864
0.381754
0.389247
0.396372
0.403156
0.409622
0.41579
0.421679
0.427307
0.432689
0.43784
0.442772
0.447498
0.45203
0.456377
0.460548
0.464554
0.468402
0.472101
0.475656
0.479076
0.482367
0.485534
0.488583
0.491521
0.494351
0.497078
0.499707
0.502242
0.504688
0.507047
0.509324
0.511521
0.513643
0.515692
0.517672
0.519584
0.521432
0.523218
0.524945
0.526614
0.528228
0.52979
0.5313
0.532762
0.534176
0.535545
0.53687
0.538153
0.539396
0.540599
0.541764
0.542893
0.543987
0.545046
0.54606
0.547039
0.54801
0.548973
0.549926
0.550871
0.551808
0.552736
0.553656
0.554568
0.555472
0.556368
0.557256
0.558136
0.559008
0.559873
0.56073
0.56158
0.562422
0.563257
0.564085
0.564905
0.565718
0.566525
0.56725
0.567899
0.568547
0.569194
0.569841
0.570487
0.571132
0.571777
0.572421
0.573064
0.573707
0.574349
0.57499
0.575631
0.57627
0.57691
0.577548
0.578185
0.578822
0.579458
0.580094
0.580728
0.581362
0.581995
0.582627
0.583258
0.583889
0.584519
0.585147
0.585776
0.586403
0.587029
0.587655
0.588279
0.588903
0.589526
0.590148
0.590769
0.591389
0.592009
0.592627
0.593245
0.593861
0.594477
0.595092
0.595705
0.596318
0.59693
0.59754
0.59815
0.598759
0.599367
0.599974
0.600579
0.601184
0.601788
0.60239
0.602992
0.603592
0.604192
0.60479
0.605387
0.605983
0.606578
0.607172
0.607765
0.608357
0.608947
0.609536
0.610125
0.610712
0.611297
0.611882
0.612465
0.613048
0.613629
0.614208
0.614787
0.615364
0.61594
0.616515
0.617088
0.617661
0.618231
0.618801
0.619369
0.619936
0.620502
0.621066
0.621629
0.622191
0.622751
0.62331
0.623867
0.624423
0.624978
0.625531
0.626083
0.626633
0.627182
0.62773
0.628276
0.62882
0.629363
0.629905
0.630445
0.630983
0.63152
0.632055
0.632589
0.633122
0.633652
0.634182
0.634709
0.635235
0.63576
0.636282
0.636804
0.637323
0.637841
0.638357
0.638872
0.639384
0.639896
0.640405
0.640913
0.641419
0.641923
0.642426
0.642926
0.643425
0.643923
0.644418
0.644912
0.645404
0.645894
0.646382
0.646868
0.647353
0.647836
0.648316
0.648795
0.649272
0.649748
0.650221
0.650692
0.651161
0.651629
0.652094
0.652558
0.653019
0.653479
0.653937
0.654392
0.654846
0.655297
0.655747
0.656194
0.656639
0.657083
0.657524
0.657963
0.6584
0.658835
0.659268
0.659698
0.660127
0.660553
0.660977
0.661399
0.661819
0.662236
0.662652
0.663042
0.663409
0.663777
0.664147
0.664518
0.66489
0.665264
0.665639
0.666015
0.666392
0.66677
0.667149
0.667529
0.667911
0.668293
0.668676
0.669059
0.669444
0.669829
0.670215
0.670601
0.670988
0.671375
0.671763
0.672151
0.67254
0.672928
0.673317
0.673706
0.674094
0.674483
0.674871
0.675259
0.675647
0.676035
0.676421
0.676808
0.677193
0.677578
0.677962
0.678345
0.678727
0.679108
0.679487
0.679865
0.680242
0.680617
0.68099
0.681362
0.681731
0.682099
0.682464
0.682827
0.683188
0.683546
0.683901
0.684254
0.684603
0.68495
0.685293
0.685633
0.685969
0.686302
0.686631
0.686956
0.687276
0.687593
0.687905
0.688212
0.688514
0.688812
0.689104
0.689392
0.689673
0.689949
0.690219
0.690484
0.690741
0.690993
0.691238
0.691476
0.691707
0.691931
0.692148
0.692357
0.692558
0.692751
0.692936
0.693113
0.693281
0.69344
0.69359
0.693731
0.693862
0.693984
0.694095
0.694197
0.694288
0.694368
0.694438
0.694497
0.694544
0.69458
0.694604
0.694616
0.694616
0.694604
0.694579
0.694541
0.694489
0.694425
0.694347
0.694255
0.694149
0.694029
0.693894
0.693745
0.693581
0.693402
0.693207
0.692997
0.692771
0.692529
0.69227
0.691996
0.691705
0.691397
0.691072
0.69073
0.690371
0.689994
0.689599
0.689187
0.688756
0.688308
0.687841
0.687356
0.686852
0.686329
0.685788
0.685227
0.684648
0.684049
0.683431
0.682794
0.682138
0.681461
0.680766
0.68005
0.679316
0.678561
0.677787
0.676993
0.676179
0.675346
0.674493
0.673621
0.672729
0.671817
0.670886
0.669935
0.668966
0.667977
0.666969
0.665942
0.664896
0.663832
0.662749
0.661648
0.660529
0.659392
0.658238
0.657065
0.655876
0.65467
0.653447
0.652207
0.650952
0.649681
0.648394
0.647092
0.645628
0.644008
0.642389
0.640772
0.639157
0.637546
0.63594
0.634338
0.632742
0.631153
0.62957
0.627996
0.626429
0.624872
0.623324
0.621786
0.620258
0.618742
0.617236
0.615743
0.614261
0.612793
0.611337
0.609895
0.608466
0.607051
0.605651
0.604265
0.602894
0.601539
0.600198
0.598874
0.597565
0.596273
0.594997
0.593737
0.592495
0.591269
0.590061
0.58887
0.587697
0.586541
0.585404
0.584285
0.583184
0.582101
0.581037
0.579992
0.578966
0.57796
0.576972
0.576004
0.575055
0.574126
0.573218
0.572329
0.57146
0.570612
0.569784
0.568976
0.56819
0.567424
0.566679
0.565955
0.565253
0.564572
0.563912
0.563274
0.562658
0.562063
0.561491
0.560941
0.560413
0.559907
0.559423
0.558962
0.558524
0.558109
0.557716
0.557346
0.556999
0.556675
0.556374
0.556096
0.555842
0.555611
0.555403
0.555218
0.555057
0.55492
0.554806
0.554716
0.554648
0.554607
0.554578
)
;
    }
    bottomWall
    {
        type            calculated;
        value           nonuniform List<scalar> 
449
(
0.139438
0.0889523
0.0758031
0.0694321
0.0652494
0.0621234
0.0596288
0.0575656
0.055815
0.0542991
0.0529656
0.0517782
0.0507104
0.049742
0.0488574
0.0480444
0.047293
0.0465952
0.0459445
0.0453355
0.0447634
0.0442244
0.0437152
0.0432329
0.042775
0.0423394
0.0419241
0.0415274
0.041148
0.0407844
0.0404356
0.0401004
0.0397778
0.0394672
0.0391676
0.0388783
0.0385988
0.0383284
0.0380666
0.037813
0.037567
0.0373282
0.0370963
0.0368709
0.0366517
0.0364383
0.0362306
0.0360281
0.0358308
0.0356382
0.0354503
0.0352668
0.0350876
0.0349124
0.0347411
0.0345736
0.0344096
0.034249
0.0340918
0.0339378
0.0337868
0.0336388
0.0334936
0.0333512
0.0332114
0.0330742
0.0329395
0.0328071
0.0326771
0.0325493
0.0324237
0.0323002
0.0321787
0.0320592
0.0319416
0.0318258
0.0317119
0.0315997
0.0314892
0.0313803
0.0312731
0.0311674
0.0310633
0.0309606
0.0308594
0.0307595
0.030661
0.0305639
0.0304681
0.0303735
0.0302801
0.030188
0.030097
0.0300072
0.0299185
0.0298309
0.0297443
0.0296588
0.0295743
0.0294908
0.0294083
0.0293267
0.0292461
0.0291663
0.0290875
0.0290095
0.0289324
0.0288562
0.0287807
0.0287061
0.0286322
0.0285591
0.0284867
0.0284151
0.0283443
0.0282741
0.0282046
0.0281359
0.0280677
0.0280003
0.0279335
0.0278673
0.0278018
0.0277368
0.0276725
0.0276088
0.0275456
0.027483
0.027421
0.0273595
0.0272986
0.0272382
0.0271783
0.0271189
0.02706
0.0270017
0.0269438
0.0268864
0.0268295
0.026773
0.026717
0.0266614
0.0266063
0.0265517
0.0264974
0.0264436
0.0263902
0.0263372
0.0262847
0.0262325
0.0261807
0.0261293
0.0260783
0.0260276
0.0259774
0.0259275
0.0258779
0.0258287
0.0257799
0.0257314
0.0256832
0.0256354
0.0255879
0.0255407
0.0254939
0.0254474
0.0254012
0.0253553
0.0253097
0.0252644
0.0252194
0.0251747
0.0251303
0.0250887
0.0250495
0.0250102
0.0249708
0.0249313
0.0248917
0.0248519
0.0248121
0.0247721
0.0247321
0.0246919
0.0246516
0.0246113
0.0245708
0.0245302
0.0244895
0.0244487
0.0244078
0.0243668
0.0243258
0.0242846
0.0242433
0.0242019
0.0241605
0.0241189
0.0240773
0.0240355
0.0239937
0.0239518
0.0239098
0.0238677
0.0238256
0.0237833
0.023741
0.0236986
0.0236561
0.0236136
0.0235709
0.0235282
0.0234854
0.0234426
0.0233996
0.0233566
0.0233136
0.0232704
0.0232273
0.023184
0.0231407
0.0230973
0.0230538
0.0230103
0.0229668
0.0229231
0.0228795
0.0228357
0.022792
0.0227481
0.0227042
0.0226603
0.0226163
0.0225723
0.0225282
0.0224841
0.0224399
0.0223957
0.0223515
0.0223072
0.0222629
0.0222185
0.0221741
0.0221297
0.0220852
0.0220407
0.0219962
0.0219516
0.021907
0.0218624
0.0218178
0.0217731
0.0217284
0.0216837
0.021639
0.0215942
0.0215495
0.0215047
0.0214599
0.0214151
0.0213702
0.0213254
0.0212805
0.0212356
0.0211908
0.0211459
0.021101
0.0210561
0.0210112
0.0209663
0.0209213
0.0208764
0.0208315
0.0207866
0.0207417
0.0206967
0.0206518
0.0206069
0.020562
0.0205171
0.0204722
0.0204273
0.0203825
0.0203376
0.0202927
0.0202479
0.0202031
0.0201583
0.0201135
0.0200687
0.0200239
0.0199792
0.0199344
0.0198897
0.019845
0.0198004
0.0197557
0.0197111
0.0196665
0.0196219
0.0195774
0.0195329
0.0194884
0.0194439
0.0193995
0.0193551
0.0193107
0.0192664
0.019222
0.0191778
0.0191335
0.0190893
0.0190451
0.019001
0.0189569
0.0189128
0.0188688
0.0188248
0.0187809
0.018737
0.0186931
0.0186493
0.0186055
0.0185618
0.0185181
0.0184745
0.0184309
0.0183873
0.0183438
0.0183004
0.018257
0.0182136
0.0181703
0.018127
0.0180838
0.0180407
0.0179975
0.0179545
0.0179115
0.0178685
0.0178256
0.0177828
0.01774
0.0176973
0.0176546
0.017612
0.0175694
0.0175269
0.0174845
0.0174421
0.0173998
0.0173575
0.0173153
0.0172731
0.0172263
0.0171753
0.0171251
0.0170756
0.0170268
0.0169787
0.0169312
0.0168844
0.0168382
0.0167927
0.0167478
0.0167035
0.0166597
0.0166166
0.016574
0.0165319
0.0164904
0.0164493
0.0164088
0.0163688
0.0163293
0.0162902
0.0162517
0.0162135
0.0161758
0.0161386
0.0161018
0.0160654
0.0160294
0.0159938
0.0159586
0.0159238
0.0158893
0.0158553
0.0158216
0.0157882
0.0157552
0.0157226
0.0156903
0.0156583
0.0156266
0.0155953
0.0155643
0.0155336
0.0155031
0.015473
0.0154432
0.0154137
0.0153844
0.0153554
0.0153267
0.0152982
0.0152701
0.0152421
0.0152145
0.015187
0.0151599
0.0151329
0.0151062
0.0150798
0.0150535
0.0150275
0.0150017
0.0149762
0.0149508
0.0149257
0.0149007
0.014876
0.0148515
0.0148271
0.014803
0.0147791
0.0147553
0.0147317
0.0147084
0.0146851
0.0146621
0.0146392
0.0146166
0.014594
0.0145717
0.0145494
0.0145274
0.0145055
0.0144837
0.014462
0.0144405
0.0144191
0.0143977
0.0143762
0.0143555
0.0143348
0.0143007
0.0143196
0.0142596
)
;
    }
    symmetry
    {
        type            symmetryPlane;
    }
    frontAndBack
    {
        type            empty;
    }
}


// ************************************************************************* //
