/*--------------------------------*- C++ -*----------------------------------*\
| =========                 |                                                 |
| \\      /  F ield         | OpenFOAM: The Open Source CFD Toolbox           |
|  \\    /   O peration     | Version:  v2012                                 |
|   \\  /    A nd           | Website:  www.openfoam.com                      |
|    \\/     M anipulation  |                                                 |
\*---------------------------------------------------------------------------*/
FoamFile
{
    version     2.0;
    format      ascii;
    class       volScalarField;
    location    "13";
    object      k;
}
// * * * * * * * * * * * * * * * * * * * * * * * * * * * * * * * * * * * * * //

dimensions      [0 2 -2 0 0 0 0];


internalField   nonuniform List<scalar> 
209825
(
0.00101928
0.00095144
0.000914548
0.000892314
0.000877355
0.000866619
0.000858432
0.000852071
0.000846889
0.000842704
0.000839138
0.000836196
0.000833608
0.000831426
0.000829489
0.000827855
0.000826354
0.000825087
0.00082389
0.000822887
0.000821917
0.000821104
0.000820321
0.000819682
0.00081903
0.000818504
0.000817975
0.000817566
0.000817106
0.000816756
0.000816439
0.000816172
0.000815885
0.000815657
0.000815392
0.000815184
0.000814987
0.00081483
0.000814659
0.00081453
0.00081436
0.000814226
0.000814096
0.000814002
0.000813891
0.000813798
0.00081372
0.000813628
0.000813547
0.000813492
0.000813379
0.000813334
0.000813311
0.000813272
0.000813156
0.000813191
0.000813191
0.000813189
0.000813157
0.000813233
0.000813233
0.000813231
0.000813326
0.000813601
0.000813627
0.000813627
0.000813724
0.000814
0.000814226
0.000814226
0.000814363
0.000814618
0.000814926
0.000815197
0.000815571
0.00081587
0.000816129
0.00081641
0.000816761
0.000817205
0.000817624
0.000818219
0.000818734
0.000819391
0.000819958
0.00082088
0.000821619
0.000822936
0.000823835
0.000825806
0.000827003
0.000830708
0.000831581
0.000844343
0.0043071
0.00274118
0.00101928
0.000951435
0.000914537
0.000892298
0.000877335
0.000866596
0.000858407
0.000852044
0.00084686
0.000842675
0.000839107
0.000836164
0.000833576
0.000831392
0.000829455
0.00082782
0.000826318
0.000825051
0.000823854
0.000822851
0.00082188
0.000821067
0.000820284
0.000819644
0.000818992
0.000818466
0.000817937
0.000817528
0.000817067
0.000816717
0.0008164
0.000816133
0.000815845
0.000815617
0.000815352
0.000815144
0.000814947
0.00081479
0.000814619
0.00081449
0.00081432
0.000814186
0.000814056
0.000813962
0.000813851
0.000813758
0.000813679
0.000813588
0.000813507
0.000813452
0.000813339
0.000813294
0.000813271
0.000813232
0.000813115
0.00081315
0.00081315
0.000813149
0.000813116
0.000813192
0.000813192
0.000813191
0.000813286
0.000813561
0.000813587
0.000813587
0.000813683
0.000813959
0.000814185
0.000814185
0.000814323
0.000814578
0.000814886
0.000815156
0.000815531
0.00081583
0.000816089
0.00081637
0.00081672
0.000817165
0.000817584
0.000818179
0.000818694
0.000819351
0.000819918
0.00082084
0.000821579
0.000822897
0.000823796
0.000825767
0.000826964
0.00083067
0.000831542
0.000844326
0.00431324
0.00274788
0.00101928
0.000951406
0.000914482
0.000892223
0.000877246
0.000866496
0.000858298
0.000851928
0.000846739
0.000842549
0.000838977
0.000836031
0.000833439
0.000831253
0.000829314
0.000827677
0.000826173
0.000824904
0.000823705
0.000822701
0.000821729
0.000820915
0.000820131
0.00081949
0.000818837
0.00081831
0.000817781
0.00081737
0.00081691
0.000816558
0.000816241
0.000815973
0.000815686
0.000815457
0.000815191
0.000814983
0.000814786
0.000814628
0.000814457
0.000814328
0.000814157
0.000814023
0.000813893
0.000813799
0.000813687
0.000813594
0.000813516
0.000813424
0.000813343
0.000813288
0.000813175
0.000813129
0.000813106
0.000813067
0.000812951
0.000812985
0.000812985
0.000812984
0.000812951
0.000813027
0.000813027
0.000813026
0.000813121
0.000813395
0.000813422
0.000813422
0.000813519
0.000813794
0.000814021
0.000814021
0.000814158
0.000814413
0.000814721
0.000814992
0.000815366
0.000815665
0.000815925
0.000816207
0.000816557
0.000817002
0.000817421
0.000818016
0.000818532
0.000819189
0.000819756
0.000820678
0.000821417
0.000822736
0.000823635
0.000825606
0.000826803
0.00083051
0.000831378
0.000844206
0.00432975
0.00276456
0.00101927
0.000951357
0.000914388
0.000892096
0.000877095
0.000866327
0.000858115
0.000851733
0.000846535
0.000842336
0.000838758
0.000835806
0.000833209
0.000831019
0.000829076
0.000827436
0.000825929
0.000824657
0.000823456
0.000822449
0.000821475
0.000820659
0.000819873
0.000819231
0.000818577
0.000818048
0.000817518
0.000817106
0.000816644
0.000816292
0.000815974
0.000815705
0.000815417
0.000815187
0.000814921
0.000814712
0.000814514
0.000814356
0.000814184
0.000814055
0.000813884
0.00081375
0.000813619
0.000813525
0.000813412
0.000813319
0.00081324
0.000813148
0.000813067
0.000813012
0.000812899
0.000812853
0.00081283
0.000812791
0.000812674
0.000812709
0.000812709
0.000812707
0.000812674
0.00081275
0.00081275
0.000812749
0.000812843
0.000813118
0.000813145
0.000813145
0.000813241
0.000813516
0.000813744
0.000813744
0.000813882
0.000814136
0.000814445
0.000814715
0.00081509
0.000815389
0.000815649
0.000815931
0.000816282
0.000816727
0.000817146
0.000817742
0.000818257
0.000818915
0.000819483
0.000820406
0.000821145
0.000822464
0.000823363
0.000825334
0.000826531
0.00083024
0.0008311
0.000843996
0.0043565
0.00279099
0.00101927
0.000951287
0.000914255
0.000891917
0.000876882
0.000866088
0.000857856
0.000851458
0.000846246
0.000842037
0.000838449
0.000835489
0.000832885
0.000830689
0.00082874
0.000827095
0.000825584
0.000824308
0.000823103
0.000822093
0.000821117
0.000820298
0.00081951
0.000818865
0.000818209
0.000817679
0.000817146
0.000816733
0.00081627
0.000815917
0.000815597
0.000815327
0.000815037
0.000814807
0.00081454
0.00081433
0.000814131
0.000813972
0.0008138
0.00081367
0.000813498
0.000813363
0.000813232
0.000813137
0.000813025
0.000812931
0.000812852
0.00081276
0.000812678
0.000812623
0.000812509
0.000812464
0.00081244
0.000812401
0.000812284
0.000812318
0.000812318
0.000812316
0.000812283
0.000812359
0.000812359
0.000812358
0.000812452
0.000812726
0.000812754
0.000812754
0.000812851
0.000813125
0.000813353
0.000813353
0.000813491
0.000813746
0.000814054
0.000814325
0.000814699
0.000815
0.00081526
0.000815543
0.000815893
0.000816339
0.000816758
0.000817354
0.00081787
0.00081853
0.000819097
0.000820021
0.00082076
0.00082208
0.000822979
0.00082495
0.000826147
0.000829857
0.000830708
0.000843696
0.00439398
0.00282743
0.00101927
0.000951197
0.000914084
0.000891686
0.000876606
0.000865779
0.00085752
0.000851102
0.000845873
0.000841649
0.000838048
0.000835078
0.000832465
0.000830261
0.000828305
0.000826653
0.000825137
0.000823856
0.000822647
0.000821633
0.000820653
0.00081983
0.000819039
0.000818392
0.000817733
0.0008172
0.000816665
0.00081625
0.000815785
0.00081543
0.000815108
0.000814837
0.000814546
0.000814314
0.000814046
0.000813835
0.000813635
0.000813475
0.000813301
0.000813171
0.000812998
0.000812863
0.000812731
0.000812636
0.000812523
0.000812429
0.000812349
0.000812256
0.000812174
0.000812119
0.000812005
0.000811959
0.000811935
0.000811895
0.000811778
0.000811812
0.000811812
0.00081181
0.000811777
0.000811852
0.000811853
0.000811851
0.000811945
0.000812219
0.000812247
0.000812247
0.000812344
0.000812617
0.000812847
0.000812847
0.000812985
0.00081324
0.000813548
0.000813819
0.000814193
0.000814495
0.000814756
0.000815039
0.00081539
0.000815836
0.000816255
0.000816852
0.000817368
0.000818029
0.000818597
0.000819522
0.00082026
0.000821581
0.000822481
0.000824452
0.000825649
0.000829361
0.0008302
0.000843305
0.00444276
0.00287408
0.00101927
0.000951086
0.000913873
0.000891401
0.000876267
0.000865398
0.000857108
0.000850663
0.000845412
0.000841171
0.000837555
0.000834572
0.000831947
0.000829733
0.000827769
0.00082611
0.000824586
0.000823299
0.000822084
0.000821065
0.00082008
0.000819254
0.000818459
0.000817808
0.000817146
0.00081661
0.000816073
0.000815655
0.000815188
0.00081483
0.000814506
0.000814233
0.00081394
0.000813707
0.000813437
0.000813225
0.000813023
0.000812862
0.000812687
0.000812556
0.000812382
0.000812246
0.000812113
0.000812017
0.000811903
0.000811809
0.000811728
0.000811635
0.000811553
0.000811497
0.000811383
0.000811337
0.000811312
0.000811272
0.000811155
0.000811188
0.000811188
0.000811186
0.000811152
0.000811228
0.000811228
0.000811227
0.000811319
0.000811593
0.000811622
0.000811622
0.000811719
0.000811992
0.000812223
0.000812223
0.000812361
0.000812616
0.000812924
0.000813196
0.000813569
0.000813872
0.000814134
0.000814419
0.000814769
0.000815216
0.000815635
0.000816232
0.000816749
0.000817412
0.00081798
0.000818906
0.000819644
0.000820967
0.000821866
0.000823837
0.000825034
0.000828748
0.000829573
0.000842822
0.00450339
0.00293117
0.00101926
0.000950955
0.000913623
0.000891062
0.000875863
0.000864945
0.000856616
0.00085014
0.000844864
0.000840601
0.000836967
0.000833969
0.000831331
0.000829105
0.00082713
0.000825462
0.000823929
0.000822635
0.000821414
0.000820389
0.000819399
0.000818567
0.000817767
0.000817112
0.000816447
0.000815907
0.000815366
0.000814946
0.000814475
0.000814115
0.000813788
0.000813513
0.000813218
0.000812983
0.000812712
0.000812498
0.000812294
0.000812132
0.000811955
0.000811823
0.000811648
0.000811511
0.000811377
0.00081128
0.000811165
0.00081107
0.000810989
0.000810896
0.000810812
0.000810756
0.000810642
0.000810595
0.00081057
0.00081053
0.000810412
0.000810444
0.000810444
0.000810442
0.000810408
0.000810483
0.000810483
0.000810482
0.000810574
0.000810847
0.000810877
0.000810877
0.000810974
0.000811246
0.000811479
0.000811479
0.000811618
0.000811872
0.000812181
0.000812452
0.000812826
0.00081313
0.000813393
0.000813678
0.000814028
0.000814476
0.000814895
0.000815494
0.000816011
0.000816676
0.000817244
0.000818171
0.000818909
0.000820234
0.000821133
0.000823104
0.0008243
0.000828017
0.000828824
0.000842246
0.00457647
0.00299887
0.00101926
0.000950804
0.000913333
0.000890669
0.000875395
0.000864419
0.000856045
0.000849533
0.000844227
0.000839939
0.000836284
0.000833267
0.000830614
0.000828375
0.000826387
0.000824708
0.000823166
0.000821863
0.000820634
0.000819602
0.000818605
0.000817768
0.000816963
0.000816303
0.000815633
0.000815089
0.000814544
0.00081412
0.000813647
0.000813283
0.000812953
0.000812675
0.000812378
0.000812141
0.000811867
0.000811651
0.000811446
0.000811282
0.000811104
0.000810969
0.000810794
0.000810656
0.00081052
0.000810422
0.000810306
0.00081021
0.000810128
0.000810034
0.00080995
0.000809894
0.000809779
0.000809731
0.000809706
0.000809665
0.000809547
0.000809579
0.000809579
0.000809576
0.000809541
0.000809617
0.000809617
0.000809616
0.000809706
0.000809978
0.00081001
0.00081001
0.000810107
0.000810377
0.000810613
0.000810613
0.000810752
0.000811006
0.000811315
0.000811586
0.00081196
0.000812265
0.00081253
0.000812816
0.000813166
0.000813615
0.000814034
0.000814633
0.000815152
0.000815818
0.000816387
0.000817316
0.000818053
0.000819379
0.000820279
0.000822249
0.000823444
0.000827166
0.000827952
0.000841574
0.00466255
0.00307734
0.00101926
0.000950632
0.000913003
0.000890222
0.00087486
0.000863819
0.000855393
0.00084884
0.0008435
0.000839183
0.000835504
0.000832466
0.000829795
0.00082754
0.000825538
0.000823847
0.000822294
0.000820981
0.000819743
0.000818703
0.000817699
0.000816855
0.000816043
0.000815378
0.000814702
0.000814154
0.000813604
0.000813176
0.000812699
0.000812332
0.000811998
0.000811718
0.000811417
0.000811178
0.000810902
0.000810683
0.000810476
0.00081031
0.00081013
0.000809994
0.000809817
0.000809677
0.00080954
0.000809441
0.000809324
0.000809227
0.000809144
0.00080905
0.000808964
0.000808908
0.000808793
0.000808744
0.000808718
0.000808677
0.000808559
0.000808589
0.000808589
0.000808586
0.00080855
0.000808625
0.000808626
0.000808625
0.000808714
0.000808985
0.000809018
0.000809018
0.000809116
0.000809384
0.000809623
0.000809623
0.000809761
0.000810015
0.000810324
0.000810596
0.000810969
0.000811277
0.000811542
0.000811831
0.00081218
0.00081263
0.000813049
0.000813649
0.000814168
0.000814838
0.000815406
0.000816337
0.000817074
0.000818402
0.000819302
0.000821272
0.000822466
0.000826191
0.000826954
0.000840806
0.0047622
0.00316675
0.00101925
0.00095044
0.000912633
0.000889719
0.00087426
0.000863145
0.00085466
0.00084806
0.000842681
0.000838332
0.000834626
0.000831564
0.000828873
0.0008266
0.000824582
0.000822876
0.000821311
0.000819987
0.000818739
0.000817689
0.000816677
0.000815826
0.000815007
0.000814335
0.000813654
0.0008131
0.000812545
0.000812113
0.000811631
0.00081126
0.000810922
0.000810638
0.000810334
0.000810092
0.000809813
0.000809593
0.000809382
0.000809214
0.000809032
0.000808894
0.000808716
0.000808575
0.000808436
0.000808335
0.000808217
0.000808119
0.000808034
0.00080794
0.000807853
0.000807796
0.00080768
0.000807631
0.000807604
0.000807563
0.000807444
0.000807473
0.000807473
0.00080747
0.000807433
0.000807508
0.000807508
0.000807507
0.000807595
0.000807866
0.0008079
0.0008079
0.000807998
0.000808265
0.000808506
0.000808506
0.000808645
0.000808898
0.000809207
0.000809479
0.000809852
0.000810162
0.000810429
0.000810719
0.000811068
0.000811519
0.000811938
0.00081254
0.000813059
0.000813731
0.0008143
0.000815233
0.000815969
0.0008173
0.000818199
0.000820168
0.000821361
0.000825091
0.000825827
0.00083994
0.00487596
0.00326724
0.00101925
0.000950229
0.000912224
0.000889161
0.000873593
0.000862395
0.000853845
0.000847192
0.00084177
0.000837385
0.000833648
0.00083056
0.000827845
0.000825552
0.000823517
0.000821796
0.000820216
0.00081888
0.00081762
0.00081656
0.000815539
0.000814679
0.000813852
0.000813173
0.000812485
0.000811926
0.000811365
0.000810927
0.000810441
0.000810065
0.000809723
0.000809435
0.000809127
0.000808882
0.0008086
0.000808377
0.000808163
0.000807993
0.000807808
0.000807669
0.000807488
0.000807345
0.000807205
0.000807103
0.000806983
0.000806883
0.000806797
0.000806702
0.000806614
0.000806557
0.00080644
0.00080639
0.000806362
0.00080632
0.000806201
0.000806228
0.000806228
0.000806226
0.000806188
0.000806262
0.000806262
0.000806262
0.000806348
0.000806617
0.000806653
0.000806653
0.000806752
0.000807016
0.000807261
0.000807261
0.000807399
0.000807653
0.000807962
0.000808234
0.000808607
0.000808918
0.000809187
0.000809478
0.000809828
0.00081028
0.000810699
0.000811301
0.000811822
0.000812497
0.000813066
0.000814001
0.000814737
0.000816069
0.000816968
0.000818937
0.000820129
0.000823863
0.00082457
0.000838973
0.00500431
0.00337897
0.00101925
0.000949997
0.000911775
0.000888548
0.000872859
0.000861568
0.000852946
0.000846235
0.000840765
0.00083634
0.000832568
0.000829451
0.000826711
0.000824396
0.000822341
0.000820602
0.000819007
0.000817657
0.000816384
0.000815314
0.000814282
0.000813412
0.000812577
0.00081189
0.000811195
0.000810629
0.000810062
0.000809618
0.000809127
0.000808745
0.000808398
0.000808106
0.000807794
0.000807545
0.00080726
0.000807034
0.000806817
0.000806644
0.000806456
0.000806315
0.000806132
0.000805987
0.000805845
0.000805741
0.000805619
0.000805519
0.000805431
0.000805335
0.000805245
0.000805187
0.00080507
0.000805019
0.000804989
0.000804948
0.000804828
0.000804854
0.000804854
0.000804851
0.000804812
0.000804886
0.000804886
0.000804885
0.00080497
0.000805238
0.000805275
0.000805275
0.000805375
0.000805637
0.000805885
0.000805885
0.000806024
0.000806277
0.000806586
0.000806858
0.00080723
0.000807544
0.000807815
0.000808108
0.000808457
0.00080891
0.00080933
0.000809933
0.000810454
0.000811132
0.000811701
0.00081264
0.000813374
0.000814709
0.000815608
0.000817575
0.000818765
0.000822504
0.00082318
0.000837903
0.00514767
0.00350211
0.00101924
0.000949747
0.000911286
0.00088788
0.000872057
0.000860665
0.000851964
0.000845189
0.000839666
0.000835196
0.000831387
0.000828238
0.00082547
0.000823131
0.000821053
0.000819296
0.000817683
0.000816318
0.000815031
0.000813948
0.000812905
0.000812025
0.00081118
0.000810485
0.000809781
0.000809207
0.000808633
0.000808183
0.000807686
0.000807299
0.000806946
0.00080665
0.000806333
0.000806081
0.000805792
0.000805562
0.000805341
0.000805165
0.000804975
0.000804831
0.000804646
0.000804499
0.000804354
0.000804248
0.000804125
0.000804022
0.000803933
0.000803836
0.000803745
0.000803686
0.000803569
0.000803516
0.000803485
0.000803443
0.000803324
0.000803347
0.000803347
0.000803344
0.000803303
0.000803377
0.000803377
0.000803376
0.000803459
0.000803726
0.000803765
0.000803765
0.000803865
0.000804125
0.000804376
0.000804376
0.000804515
0.000804768
0.000805076
0.00080535
0.000805721
0.000806037
0.000806309
0.000806605
0.000806953
0.000807408
0.000807828
0.000808432
0.000808954
0.000809636
0.000810205
0.000811146
0.000811879
0.000813216
0.000814114
0.000816081
0.000817269
0.000821013
0.000821654
0.000836728
0.00530635
0.00363686
0.00101924
0.000949477
0.000910757
0.000887156
0.000871187
0.000859685
0.000850896
0.000844052
0.000838471
0.000833953
0.000830103
0.000826918
0.00082412
0.000821754
0.000819652
0.000817874
0.000816242
0.00081486
0.000813558
0.000812462
0.000811406
0.000810515
0.000809659
0.000808954
0.000808242
0.00080766
0.000807078
0.000806621
0.000806118
0.000805725
0.000805366
0.000805064
0.000804743
0.000804486
0.000804193
0.000803959
0.000803735
0.000803555
0.000803361
0.000803214
0.000803027
0.000802878
0.00080273
0.000802622
0.000802497
0.000802393
0.000802302
0.000802204
0.000802111
0.000802052
0.000801933
0.000801879
0.000801847
0.000801805
0.000801684
0.000801706
0.000801706
0.000801702
0.00080166
0.000801733
0.000801734
0.000801733
0.000801813
0.000802079
0.00080212
0.00080212
0.00080222
0.000802477
0.000802732
0.000802733
0.000802871
0.000803124
0.000803432
0.000803706
0.000804077
0.000804395
0.000804669
0.000804967
0.000805315
0.000805771
0.000806191
0.000806797
0.000807319
0.000808005
0.000808574
0.000809517
0.000810249
0.000811589
0.000812487
0.000814452
0.000815638
0.000819387
0.000819991
0.000835445
0.00548056
0.00378343
0.00101924
0.000949189
0.00091019
0.000886376
0.00087025
0.000858628
0.000849744
0.000842823
0.000837179
0.000832609
0.000828714
0.000825491
0.000822659
0.000820264
0.000818137
0.000816336
0.000814683
0.000813283
0.000811965
0.000810853
0.000809783
0.00080888
0.000808013
0.000807298
0.000806575
0.000805985
0.000805395
0.00080493
0.00080442
0.00080402
0.000803654
0.000803347
0.000803021
0.000802759
0.000802461
0.000802223
0.000801995
0.000801812
0.000801614
0.000801464
0.000801274
0.000801122
0.000800972
0.000800862
0.000800735
0.000800629
0.000800535
0.000800436
0.000800342
0.000800281
0.000800162
0.000800106
0.000800073
0.00080003
0.000799909
0.000799929
0.000799929
0.000799924
0.000799881
0.000799953
0.000799954
0.000799953
0.000800031
0.000800295
0.000800338
0.000800338
0.000800439
0.000800693
0.000800951
0.000800953
0.000801091
0.000801343
0.000801651
0.000801925
0.000802295
0.000802616
0.000802893
0.000803192
0.00080354
0.000803998
0.000804417
0.000805024
0.000805547
0.000806237
0.000806806
0.000807752
0.000808483
0.000809825
0.000810722
0.000812686
0.00081387
0.000817624
0.000818188
0.000834051
0.00567035
0.00394206
0.00101924
0.000948883
0.000909583
0.00088554
0.000869244
0.000857492
0.000848506
0.000841503
0.000835791
0.000831164
0.00082722
0.000823956
0.000821088
0.000818661
0.000816506
0.00081468
0.000813005
0.000811585
0.000810249
0.000809121
0.000808036
0.00080712
0.00080624
0.000805514
0.000804781
0.000804181
0.000803581
0.000803109
0.000802591
0.000802184
0.000801811
0.000801498
0.000801165
0.000800898
0.000800596
0.000800353
0.00080012
0.000799934
0.000799732
0.000799579
0.000799385
0.000799231
0.000799077
0.000798965
0.000798835
0.000798727
0.000798632
0.000798531
0.000798435
0.000798373
0.000798253
0.000798196
0.000798161
0.000798118
0.000797997
0.000798014
0.000798013
0.000798009
0.000797963
0.000798035
0.000798035
0.000798034
0.00079811
0.000798372
0.000798417
0.000798417
0.000798519
0.000798769
0.000799032
0.000799034
0.000799172
0.000799423
0.000799731
0.000800006
0.000800375
0.000800698
0.000800977
0.000801279
0.000801626
0.000802086
0.000802505
0.000803113
0.000803637
0.00080433
0.000804899
0.000805849
0.000806577
0.000807922
0.000808819
0.000810781
0.000811961
0.000815721
0.000816242
0.000832542
0.00587556
0.00411301
0.00101924
0.000948558
0.000908938
0.00088465
0.00086817
0.000856278
0.000847182
0.00084009
0.000834304
0.000829616
0.00082562
0.000822311
0.000819404
0.000816943
0.000814757
0.000812905
0.000811206
0.000809765
0.000808409
0.000807264
0.000806163
0.000805233
0.000804339
0.0008036
0.000802856
0.000802246
0.000801636
0.000801155
0.000800629
0.000800214
0.000799833
0.000799514
0.000799175
0.000798902
0.000798595
0.000798347
0.000798109
0.000797918
0.000797712
0.000797556
0.000797359
0.000797202
0.000797045
0.00079693
0.000796797
0.000796687
0.000796589
0.000796487
0.000796388
0.000796326
0.000796205
0.000796146
0.000796109
0.000796065
0.000795944
0.000795959
0.000795958
0.000795953
0.000795905
0.000795976
0.000795976
0.000795976
0.000796048
0.000796308
0.000796356
0.000796355
0.000796458
0.000796705
0.000796971
0.000796975
0.000797112
0.000797362
0.00079767
0.000797945
0.000798313
0.000798639
0.00079892
0.000799225
0.000799572
0.000800033
0.000800452
0.000801061
0.000801585
0.000802283
0.000802852
0.000803804
0.000804531
0.000805878
0.000806774
0.000808734
0.000809911
0.000813676
0.000814152
0.000830916
0.00609584
0.00429655
0.00101924
0.000948217
0.000908255
0.000883704
0.000867028
0.000854986
0.000845771
0.000838584
0.000832719
0.000827965
0.000823913
0.000820555
0.000817606
0.000815109
0.000812891
0.00081101
0.000809285
0.000807821
0.000806444
0.00080528
0.000804162
0.000803216
0.000802308
0.000801556
0.0008008
0.000800179
0.000799558
0.000799068
0.000798533
0.000798109
0.00079772
0.000797394
0.000797048
0.00079677
0.000796456
0.000796204
0.00079596
0.000795765
0.000795554
0.000795394
0.000795193
0.000795033
0.000794872
0.000794754
0.000794619
0.000794507
0.000794406
0.000794303
0.000794201
0.000794138
0.000794015
0.000793955
0.000793916
0.000793872
0.00079375
0.000793762
0.000793762
0.000793755
0.000793705
0.000793775
0.000793776
0.000793775
0.000793844
0.000794102
0.000794152
0.000794151
0.000794255
0.000794498
0.000794768
0.000794773
0.00079491
0.000795159
0.000795467
0.000795742
0.000796109
0.000796437
0.000796721
0.000797028
0.000797375
0.000797837
0.000798256
0.000798866
0.000799391
0.000800093
0.000800661
0.000801616
0.000802341
0.000803691
0.000804585
0.000806543
0.000807716
0.000811486
0.000811916
0.000829167
0.00633053
0.00449298
0.00101925
0.00094786
0.000907534
0.000882703
0.000865818
0.000853615
0.000844274
0.000836984
0.000831035
0.00082621
0.000822098
0.000818689
0.000815695
0.000813159
0.000810905
0.000808993
0.000807241
0.000805752
0.000804353
0.000803169
0.000802033
0.00080107
0.000800146
0.00079938
0.000798611
0.000797978
0.000797346
0.000796845
0.000796301
0.000795869
0.00079547
0.000795136
0.000794783
0.000794498
0.000794179
0.000793921
0.000793671
0.000793471
0.000793255
0.000793091
0.000792887
0.000792723
0.000792559
0.000792437
0.000792299
0.000792184
0.000792081
0.000791976
0.000791872
0.000791807
0.000791683
0.00079162
0.000791579
0.000791535
0.000791413
0.000791423
0.000791422
0.000791413
0.000791361
0.000791431
0.000791431
0.00079143
0.000791496
0.000791751
0.000791803
0.000791803
0.000791908
0.000792147
0.00079242
0.000792427
0.000792563
0.000792811
0.000793119
0.000793394
0.00079376
0.000794091
0.000794376
0.000794687
0.000795033
0.000795497
0.000795915
0.000796527
0.000797051
0.000797758
0.000798326
0.000799284
0.000800007
0.000801358
0.000802251
0.000804206
0.000805375
0.000809149
0.00080953
0.000827292
0.00657868
0.00470258
0.00101926
0.000947486
0.000906776
0.000881649
0.00086454
0.000852166
0.00084269
0.000835291
0.000829251
0.000824351
0.000820175
0.00081671
0.000813669
0.000811091
0.000808799
0.000806855
0.000805072
0.000803557
0.000802134
0.000800929
0.000799773
0.000798793
0.000797852
0.000797071
0.000796288
0.000795642
0.000794998
0.000794486
0.000793932
0.00079349
0.000793082
0.00079274
0.000792379
0.000792087
0.000791761
0.000791497
0.000791241
0.000791036
0.000790815
0.000790646
0.000790438
0.00079027
0.000790102
0.000789977
0.000789836
0.000789718
0.000789611
0.000789505
0.000789398
0.000789332
0.000789206
0.000789142
0.000789098
0.000789053
0.000788931
0.000788938
0.000788936
0.000788927
0.000788872
0.00078894
0.000788941
0.00078894
0.000789003
0.000789255
0.000789309
0.000789309
0.000789414
0.000789649
0.000789926
0.000789935
0.000790071
0.000790317
0.000790624
0.0007909
0.000791264
0.000791598
0.000791886
0.000792199
0.000792544
0.00079301
0.000793427
0.00079404
0.000794565
0.000795276
0.000795843
0.000796804
0.000797525
0.000798878
0.00079977
0.000801721
0.000802885
0.000806663
0.000806994
0.000825285
0.00683898
0.00492559
0.00101926
0.000947097
0.000905983
0.00088054
0.000863194
0.000850639
0.000841018
0.000833504
0.000827368
0.000822388
0.000818142
0.000814619
0.000811526
0.000808904
0.000806573
0.000804593
0.000802779
0.000801236
0.000799787
0.000798559
0.000797382
0.000796383
0.000795424
0.000794628
0.000793829
0.00079317
0.000792513
0.000791989
0.000791424
0.000790972
0.000790554
0.000790203
0.000789833
0.000789535
0.000789202
0.000788931
0.000788669
0.000788458
0.000788231
0.000788058
0.000787845
0.000787673
0.0007875
0.000787372
0.000787227
0.000787106
0.000786997
0.000786888
0.000786778
0.00078671
0.000786583
0.000786517
0.00078647
0.000786425
0.000786304
0.000786307
0.000786305
0.000786294
0.000786236
0.000786303
0.000786303
0.000786303
0.000786362
0.000786611
0.000786667
0.000786667
0.000786774
0.000787004
0.000787284
0.000787295
0.00078743
0.000787676
0.000787981
0.000788257
0.00078862
0.000788956
0.000789246
0.000789563
0.000789907
0.000790375
0.000790791
0.000791406
0.00079193
0.000792645
0.000793212
0.000794176
0.000794894
0.000796248
0.000797139
0.000799086
0.000800245
0.000804026
0.000804305
0.000823142
0.00710972
0.00516222
0.00101928
0.000946694
0.000905154
0.000879379
0.000861782
0.000849034
0.00083926
0.000831622
0.000825385
0.000820319
0.000816001
0.000812415
0.000809268
0.000806598
0.000804224
0.000802207
0.00080036
0.000798787
0.000797311
0.000796059
0.000794859
0.00079384
0.000792862
0.000792048
0.000791234
0.000790561
0.000789889
0.000789353
0.000788777
0.000788314
0.000787884
0.000787525
0.000787146
0.00078684
0.000786499
0.000786222
0.000785952
0.000785735
0.000785502
0.000785324
0.000785107
0.000784931
0.000784753
0.000784621
0.000784472
0.000784348
0.000784235
0.000784124
0.000784011
0.000783942
0.000783813
0.000783744
0.000783695
0.000783649
0.000783528
0.000783529
0.000783525
0.000783512
0.000783452
0.000783517
0.000783518
0.000783517
0.000783572
0.000783818
0.000783876
0.000783876
0.000783984
0.000784209
0.000784492
0.000784506
0.00078464
0.000784884
0.000785189
0.000785465
0.000785826
0.000786165
0.000786457
0.000786777
0.00078712
0.000787589
0.000788005
0.00078862
0.000789144
0.000789864
0.00079043
0.000791397
0.000792111
0.000793467
0.000794356
0.000796299
0.000797451
0.000801234
0.000801462
0.000820856
0.00738876
0.00541257
0.00101929
0.000946277
0.00090429
0.000878165
0.000860302
0.00084735
0.000837415
0.000829647
0.000823301
0.000818145
0.000813749
0.000810098
0.000806893
0.000804172
0.000801754
0.000799697
0.000797814
0.000796209
0.000794704
0.000793426
0.000792203
0.000791162
0.000790164
0.000789333
0.000788502
0.000787813
0.000787127
0.000786578
0.000785989
0.000785514
0.000785073
0.000784704
0.000784315
0.000784001
0.000783653
0.000783368
0.00078309
0.000782868
0.000782628
0.000782444
0.000782222
0.000782042
0.000781859
0.000781723
0.00078157
0.000781443
0.000781325
0.000781212
0.000781096
0.000781024
0.000780894
0.000780823
0.000780771
0.000780723
0.000780604
0.000780601
0.000780595
0.000780581
0.000780518
0.000780582
0.000780582
0.000780581
0.000780631
0.000780874
0.000780934
0.000780934
0.000781043
0.000781264
0.000781549
0.000781567
0.000781699
0.000781941
0.000782245
0.000782522
0.00078288
0.000783222
0.000783516
0.000783839
0.000784182
0.000784652
0.000785067
0.000785683
0.000786206
0.000786931
0.000787495
0.000788465
0.000789176
0.000790533
0.000791419
0.000793357
0.000794504
0.000798287
0.000798461
0.000818423
0.00767349
0.00567665
0.00101931
0.000945848
0.000903393
0.0008769
0.000858757
0.00084559
0.000835484
0.000827577
0.000821117
0.000815865
0.000811388
0.000807666
0.0008044
0.000801627
0.00079916
0.000797062
0.000795141
0.000793503
0.000791967
0.000790662
0.000789413
0.00078835
0.00078733
0.00078648
0.000785631
0.000784926
0.000784224
0.000783661
0.00078306
0.000782572
0.000782119
0.000781739
0.000781341
0.000781017
0.000780661
0.000780368
0.000780083
0.000779853
0.000779606
0.000779417
0.000779189
0.000779004
0.000778816
0.000778676
0.000778518
0.000778388
0.000778266
0.000778151
0.000778031
0.000777957
0.000777825
0.000777751
0.000777695
0.000777647
0.000777528
0.000777522
0.000777515
0.000777499
0.000777433
0.000777495
0.000777495
0.000777494
0.000777539
0.000777778
0.00077784
0.000777841
0.00077795
0.000778166
0.000778453
0.000778475
0.000778606
0.000778846
0.000779149
0.000779426
0.000779782
0.000780126
0.000780422
0.000780749
0.00078109
0.000781562
0.000781975
0.000782592
0.000783115
0.000783843
0.000784406
0.000785378
0.000786087
0.000787444
0.000788327
0.00079026
0.000791399
0.000795181
0.000795303
0.000815834
0.00796081
0.00595427
0.00101933
0.000945406
0.000902464
0.000875584
0.000857148
0.000843753
0.000833467
0.000825414
0.000818833
0.00081348
0.000808916
0.000805121
0.00080179
0.00079896
0.000796443
0.000794301
0.00079234
0.000790666
0.000789098
0.000787764
0.000786489
0.000785401
0.000784359
0.000783488
0.00078262
0.000781898
0.00078118
0.000780602
0.000779987
0.000779487
0.00077902
0.000778629
0.00077822
0.000777888
0.000777522
0.000777222
0.000776927
0.000776691
0.000776437
0.000776242
0.000776008
0.000775818
0.000775624
0.000775479
0.000775317
0.000775182
0.000775056
0.000774939
0.000774814
0.000774739
0.000774604
0.000774527
0.000774469
0.00077442
0.000774301
0.000774292
0.000774283