/*--------------------------------*- C++ -*----------------------------------*\
| =========                 |                                                 |
| \\      /  F ield         | OpenFOAM: The Open Source CFD Toolbox           |
|  \\    /   O peration     | Version:  v2012                                 |
|   \\  /    A nd           | Website:  www.openfoam.com                      |
|    \\/     M anipulation  |                                                 |
\*---------------------------------------------------------------------------*/
FoamFile
{
    version     2.0;
    format      ascii;
    class       volVectorField;
    location    "13";
    object      wallShearStress;
}
// * * * * * * * * * * * * * * * * * * * * * * * * * * * * * * * * * * * * * //

dimensions      [0 2 -2 0 0 0 0];


internalField   uniform (0 0 0);

boundaryField
{
    inlet
    {
        type            calculated;
        value           uniform (0 0 0);
    }
    outlet
    {
        type            calculated;
        value           uniform (0 0 0);
    }
    topWall
    {
        type            calculated;
        value           nonuniform List<vector> 
545
(
(3.22114e-08 -2.26452e-08 0)
(3.22761e-08 -6.35641e-08 0)
(3.21844e-08 -1.05991e-07 0)
(3.20992e-08 -1.47111e-07 0)
(3.20275e-08 -1.86424e-07 0)
(3.19477e-08 -2.24438e-07 0)
(3.18601e-08 -2.61484e-07 0)
(3.17636e-08 -2.97544e-07 0)
(3.16589e-08 -3.32538e-07 0)
(3.15468e-08 -3.66464e-07 0)
(3.1428e-08 -3.99364e-07 0)
(3.1303e-08 -4.31277e-07 0)
(3.11727e-08 -4.62227e-07 0)
(3.10374e-08 -4.92232e-07 0)
(3.08979e-08 -5.21316e-07 0)
(3.07547e-08 -5.49502e-07 0)
(3.06082e-08 -5.76816e-07 0)
(3.04589e-08 -6.03281e-07 0)
(3.03073e-08 -6.28922e-07 0)
(3.01538e-08 -6.53761e-07 0)
(2.99987e-08 -6.77821e-07 0)
(2.98424e-08 -7.01125e-07 0)
(2.96851e-08 -7.23696e-07 0)
(2.95273e-08 -7.45556e-07 0)
(2.93692e-08 -7.66725e-07 0)
(2.92109e-08 -7.87225e-07 0)
(2.90529e-08 -8.07077e-07 0)
(2.88952e-08 -8.263e-07 0)
(2.8738e-08 -8.44915e-07 0)
(2.85816e-08 -8.6294e-07 0)
(2.8426e-08 -8.80394e-07 0)
(2.82715e-08 -8.97296e-07 0)
(2.81181e-08 -9.13662e-07 0)
(2.79661e-08 -9.2951e-07 0)
(2.78153e-08 -9.44858e-07 0)
(2.76661e-08 -9.5972e-07 0)
(2.75184e-08 -9.74113e-07 0)
(2.73723e-08 -9.88051e-07 0)
(2.72278e-08 -1.00155e-06 0)
(2.70851e-08 -1.01462e-06 0)
(2.69442e-08 -1.02729e-06 0)
(2.68051e-08 -1.03955e-06 0)
(2.66678e-08 -1.05143e-06 0)
(2.65324e-08 -1.06294e-06 0)
(2.63989e-08 -1.07409e-06 0)
(2.62672e-08 -1.08489e-06 0)
(2.61375e-08 -1.09535e-06 0)
(2.60096e-08 -1.10548e-06 0)
(2.58837e-08 -1.11531e-06 0)
(2.57596e-08 -1.12482e-06 0)
(2.56374e-08 -1.13404e-06 0)
(2.55171e-08 -1.14298e-06 0)
(2.53986e-08 -1.15164e-06 0)
(2.52819e-08 -1.16003e-06 0)
(2.51671e-08 -1.16816e-06 0)
(2.5054e-08 -1.17604e-06 0)
(2.49427e-08 -1.18368e-06 0)
(2.48331e-08 -1.19109e-06 0)
(2.47252e-08 -1.19827e-06 0)
(2.4619e-08 -1.20523e-06 0)
(2.45144e-08 -1.21198e-06 0)
(2.44113e-08 -1.21852e-06 0)
(2.43098e-08 -1.22486e-06 0)
(2.42099e-08 -1.23101e-06 0)
(2.41114e-08 -1.23697e-06 0)
(2.40143e-08 -1.24275e-06 0)
(2.39187e-08 -1.24836e-06 0)
(2.38244e-08 -1.2538e-06 0)
(2.37315e-08 -1.25907e-06 0)
(2.36392e-08 -1.26418e-06 0)
(2.35507e-08 -1.26916e-06 0)
(2.34526e-08 -1.27395e-06 0)
(2.33606e-08 -1.27853e-06 0)
(2.3288e-08 -1.28305e-06 0)
(2.32157e-08 -1.28746e-06 0)
(2.31441e-08 -1.29181e-06 0)
(2.30725e-08 -1.29617e-06 0)
(2.3001e-08 -1.3005e-06 0)
(2.29297e-08 -1.30479e-06 0)
(2.28585e-08 -1.30904e-06 0)
(2.27873e-08 -1.31326e-06 0)
(2.27163e-08 -1.31745e-06 0)
(2.26454e-08 -1.32161e-06 0)
(2.25746e-08 -1.32573e-06 0)
(2.2504e-08 -1.32983e-06 0)
(2.24334e-08 -1.33389e-06 0)
(2.23629e-08 -1.33792e-06 0)
(2.22926e-08 -1.34192e-06 0)
(2.22224e-08 -1.34589e-06 0)
(2.21522e-08 -1.34982e-06 0)
(2.20823e-08 -1.35373e-06 0)
(2.20122e-08 -1.35761e-06 0)
(2.19434e-08 -1.36147e-06 0)
(2.18693e-08 -1.36522e-06 0)
(2.18161e-08 -1.3692e-06 0)
(2.1675e-08 -1.37277e-06 0)
(2.15118e-08 -1.37592e-06 0)
(2.14463e-08 -1.37933e-06 0)
(2.13893e-08 -1.38235e-06 0)
(2.13367e-08 -1.38517e-06 0)
(2.12841e-08 -1.38816e-06 0)
(2.12313e-08 -1.3912e-06 0)
(2.11783e-08 -1.39422e-06 0)
(2.11253e-08 -1.39722e-06 0)
(2.1072e-08 -1.40021e-06 0)
(2.10186e-08 -1.40321e-06 0)
(2.09649e-08 -1.40622e-06 0)
(2.09111e-08 -1.40922e-06 0)
(2.08571e-08 -1.41222e-06 0)
(2.08028e-08 -1.41522e-06 0)
(2.07484e-08 -1.41821e-06 0)
(2.06938e-08 -1.42121e-06 0)
(2.0639e-08 -1.42421e-06 0)
(2.05839e-08 -1.4272e-06 0)
(2.05287e-08 -1.4302e-06 0)
(2.04732e-08 -1.43319e-06 0)
(2.04175e-08 -1.43618e-06 0)
(2.03617e-08 -1.43917e-06 0)
(2.03056e-08 -1.44216e-06 0)
(2.02493e-08 -1.44515e-06 0)
(2.01928e-08 -1.44814e-06 0)
(2.0136e-08 -1.45113e-06 0)
(2.00791e-08 -1.45411e-06 0)
(2.0022e-08 -1.45709e-06 0)
(1.99646e-08 -1.46008e-06 0)
(1.99071e-08 -1.46306e-06 0)
(1.98493e-08 -1.46604e-06 0)
(1.97913e-08 -1.46901e-06 0)
(1.97331e-08 -1.47199e-06 0)
(1.96747e-08 -1.47496e-06 0)
(1.96161e-08 -1.47793e-06 0)
(1.95573e-08 -1.4809e-06 0)
(1.94982e-08 -1.48387e-06 0)
(1.9439e-08 -1.48684e-06 0)
(1.93795e-08 -1.4898e-06 0)
(1.93199e-08 -1.49276e-06 0)
(1.926e-08 -1.49572e-06 0)
(1.91999e-08 -1.49868e-06 0)
(1.91396e-08 -1.50163e-06 0)
(1.90791e-08 -1.50458e-06 0)
(1.90184e-08 -1.50753e-06 0)
(1.89574e-08 -1.51048e-06 0)
(1.88963e-08 -1.51343e-06 0)
(1.8835e-08 -1.51637e-06 0)
(1.87734e-08 -1.51931e-06 0)
(1.87116e-08 -1.52225e-06 0)
(1.86497e-08 -1.52518e-06 0)
(1.85875e-08 -1.52811e-06 0)
(1.85251e-08 -1.53104e-06 0)
(1.84625e-08 -1.53396e-06 0)
(1.83997e-08 -1.53689e-06 0)
(1.83366e-08 -1.53981e-06 0)
(1.82734e-08 -1.54272e-06 0)
(1.821e-08 -1.54563e-06 0)
(1.81463e-08 -1.54854e-06 0)
(1.80825e-08 -1.55145e-06 0)
(1.80184e-08 -1.55435e-06 0)
(1.79541e-08 -1.55725e-06 0)
(1.78897e-08 -1.56015e-06 0)
(1.7825e-08 -1.56304e-06 0)
(1.77601e-08 -1.56593e-06 0)
(1.7695e-08 -1.56881e-06 0)
(1.76297e-08 -1.57169e-06 0)
(1.75642e-08 -1.57457e-06 0)
(1.74985e-08 -1.57744e-06 0)
(1.74326e-08 -1.58031e-06 0)
(1.73664e-08 -1.58318e-06 0)
(1.73001e-08 -1.58604e-06 0)
(1.72336e-08 -1.58889e-06 0)
(1.71668e-08 -1.59174e-06 0)
(1.70999e-08 -1.59459e-06 0)
(1.70327e-08 -1.59743e-06 0)
(1.69654e-08 -1.60027e-06 0)
(1.68979e-08 -1.60311e-06 0)
(1.68301e-08 -1.60594e-06 0)
(1.67621e-08 -1.60876e-06 0)
(1.6694e-08 -1.61158e-06 0)
(1.66256e-08 -1.61439e-06 0)
(1.65571e-08 -1.6172e-06 0)
(1.64883e-08 -1.62001e-06 0)
(1.64194e-08 -1.62281e-06 0)
(1.63502e-08 -1.6256e-06 0)
(1.62809e-08 -1.62839e-06 0)
(1.62113e-08 -1.63118e-06 0)
(1.61416e-08 -1.63395e-06 0)
(1.60717e-08 -1.63673e-06 0)
(1.60015e-08 -1.63949e-06 0)
(1.59312e-08 -1.64226e-06 0)
(1.58607e-08 -1.64501e-06 0)
(1.579e-08 -1.64776e-06 0)
(1.5719e-08 -1.65051e-06 0)
(1.56479e-08 -1.65324e-06 0)
(1.55766e-08 -1.65598e-06 0)
(1.55052e-08 -1.6587e-06 0)
(1.54335e-08 -1.66142e-06 0)
(1.53616e-08 -1.66414e-06 0)
(1.52896e-08 -1.66684e-06 0)
(1.52173e-08 -1.66955e-06 0)
(1.51449e-08 -1.67224e-06 0)
(1.50723e-08 -1.67493e-06 0)
(1.49995e-08 -1.67761e-06 0)
(1.49265e-08 -1.68029e-06 0)
(1.48533e-08 -1.68295e-06 0)
(1.478e-08 -1.68561e-06 0)
(1.47064e-08 -1.68827e-06 0)
(1.46327e-08 -1.69092e-06 0)
(1.45588e-08 -1.69356e-06 0)
(1.44847e-08 -1.69619e-06 0)
(1.44105e-08 -1.69881e-06 0)
(1.43361e-08 -1.70143e-06 0)
(1.42614e-08 -1.70404e-06 0)
(1.41867e-08 -1.70665e-06 0)
(1.41117e-08 -1.70924e-06 0)
(1.40366e-08 -1.71183e-06 0)
(1.39613e-08 -1.71441e-06 0)
(1.38858e-08 -1.71698e-06 0)
(1.38101e-08 -1.71954e-06 0)
(1.37343e-08 -1.7221e-06 0)
(1.36583e-08 -1.72465e-06 0)
(1.35822e-08 -1.72719e-06 0)
(1.35059e-08 -1.72972e-06 0)
(1.34294e-08 -1.73224e-06 0)
(1.33527e-08 -1.73476e-06 0)
(1.32759e-08 -1.73727e-06 0)
(1.3199e-08 -1.73976e-06 0)
(1.31218e-08 -1.74225e-06 0)
(1.30446e-08 -1.74473e-06 0)
(1.29671e-08 -1.7472e-06 0)
(1.28895e-08 -1.74967e-06 0)
(1.28118e-08 -1.75212e-06 0)
(1.27338e-08 -1.75456e-06 0)
(1.26558e-08 -1.757e-06 0)
(1.25776e-08 -1.75942e-06 0)
(1.24992e-08 -1.76184e-06 0)
(1.24207e-08 -1.76425e-06 0)
(1.23421e-08 -1.76664e-06 0)
(1.22633e-08 -1.76903e-06 0)
(1.21843e-08 -1.77141e-06 0)
(1.21052e-08 -1.77378e-06 0)
(1.2026e-08 -1.77614e-06 0)
(1.19467e-08 -1.77848e-06 0)
(1.18672e-08 -1.78082e-06 0)
(1.17875e-08 -1.78315e-06 0)
(1.17078e-08 -1.78547e-06 0)
(1.16279e-08 -1.78777e-06 0)
(1.15478e-08 -1.79007e-06 0)
(1.14677e-08 -1.79236e-06 0)
(1.13874e-08 -1.79463e-06 0)
(1.1307e-08 -1.7969e-06 0)
(1.12264e-08 -1.79915e-06 0)
(1.11458e-08 -1.8014e-06 0)
(1.1065e-08 -1.80363e-06 0)
(1.09841e-08 -1.80585e-06 0)
(1.09031e-08 -1.80806e-06 0)
(1.08219e-08 -1.81026e-06 0)
(1.07407e-08 -1.81245e-06 0)
(1.06593e-08 -1.81462e-06 0)
(1.05779e-08 -1.81679e-06 0)
(1.04963e-08 -1.81894e-06 0)
(1.04146e-08 -1.82108e-06 0)
(1.03329e-08 -1.82321e-06 0)
(1.0251e-08 -1.82533e-06 0)
(1.0169e-08 -1.82743e-06 0)
(1.00869e-08 -1.82953e-06 0)
(1.00046e-08 -1.83161e-06 0)
(9.92298e-09 -1.83369e-06 0)
(9.83778e-09 -1.83569e-06 0)
(9.76552e-09 -1.83795e-06 0)
(9.64542e-09 -1.83975e-06 0)
(9.5038e-09 -1.8414e-06 0)
(9.41849e-09 -1.84362e-06 0)
(9.34891e-09 -1.84541e-06 0)
(9.28225e-09 -1.84703e-06 0)
(9.21502e-09 -1.84879e-06 0)
(9.147e-09 -1.85062e-06 0)
(9.07824e-09 -1.85244e-06 0)
(9.00868e-09 -1.85425e-06 0)
(8.93831e-09 -1.85606e-06 0)
(8.86711e-09 -1.85788e-06 0)
(8.7951e-09 -1.8597e-06 0)
(8.72225e-09 -1.86153e-06 0)
(8.64856e-09 -1.86337e-06 0)
(8.57404e-09 -1.8652e-06 0)
(8.49867e-09 -1.86704e-06 0)
(8.42246e-09 -1.86889e-06 0)
(8.3454e-09 -1.87074e-06 0)
(8.26748e-09 -1.87259e-06 0)
(8.18872e-09 -1.87444e-06 0)
(8.10909e-09 -1.8763e-06 0)
(8.02861e-09 -1.87815e-06 0)
(7.94727e-09 -1.88001e-06 0)
(7.86507e-09 -1.88187e-06 0)
(7.78201e-09 -1.88373e-06 0)
(7.69808e-09 -1.88559e-06 0)
(7.61329e-09 -1.88745e-06 0)
(7.52764e-09 -1.88931e-06 0)
(7.44112e-09 -1.89117e-06 0)
(7.35374e-09 -1.89302e-06 0)
(7.26549e-09 -1.89488e-06 0)
(7.17638e-09 -1.89673e-06 0)
(7.0864e-09 -1.89858e-06 0)
(6.99556e-09 -1.90042e-06 0)
(6.90385e-09 -1.90226e-06 0)
(6.81128e-09 -1.9041e-06 0)
(6.71785e-09 -1.90593e-06 0)
(6.62356e-09 -1.90775e-06 0)
(6.5284e-09 -1.90957e-06 0)
(6.43239e-09 -1.91138e-06 0)
(6.33553e-09 -1.91318e-06 0)
(6.23781e-09 -1.91498e-06 0)
(6.13924e-09 -1.91676e-06 0)
(6.03983e-09 -1.91854e-06 0)
(5.93957e-09 -1.92031e-06 0)
(5.83847e-09 -1.92206e-06 0)
(5.73654e-09 -1.92381e-06 0)
(5.63377e-09 -1.92554e-06 0)
(5.53017e-09 -1.92726e-06 0)
(5.42576e-09 -1.92896e-06 0)
(5.32052e-09 -1.93065e-06 0)
(5.21447e-09 -1.93233e-06 0)
(5.10762e-09 -1.93398e-06 0)
(4.99997e-09 -1.93563e-06 0)
(4.89153e-09 -1.93725e-06 0)
(4.7823e-09 -1.93885e-06 0)
(4.6723e-09 -1.94044e-06 0)
(4.56153e-09 -1.94201e-06 0)
(4.44999e-09 -1.94355e-06 0)
(4.33772e-09 -1.94507e-06 0)
(4.22469e-09 -1.94657e-06 0)
(4.11095e-09 -1.94805e-06 0)
(3.99648e-09 -1.9495e-06 0)
(3.8813e-09 -1.95092e-06 0)
(3.76543e-09 -1.95232e-06 0)
(3.64887e-09 -1.95369e-06 0)
(3.53165e-09 -1.95503e-06 0)
(3.41377e-09 -1.95634e-06 0)
(3.29524e-09 -1.95762e-06 0)
(3.17609e-09 -1.95886e-06 0)
(3.05633e-09 -1.96008e-06 0)
(2.93597e-09 -1.96126e-06 0)
(2.81503e-09 -1.9624e-06 0)
(2.69353e-09 -1.96351e-06 0)
(2.57149e-09 -1.96458e-06 0)
(2.44892e-09 -1.96561e-06 0)
(2.32585e-09 -1.9666e-06 0)
(2.20229e-09 -1.96755e-06 0)
(2.07826e-09 -1.96845e-06 0)
(1.95379e-09 -1.96932e-06 0)
(1.8289e-09 -1.97013e-06 0)
(1.70361e-09 -1.97091e-06 0)
(1.57795e-09 -1.97163e-06 0)
(1.45194e-09 -1.9723e-06 0)
(1.32559e-09 -1.97293e-06 0)
(1.19896e-09 -1.9735e-06 0)
(1.07204e-09 -1.97402e-06 0)
(9.44883e-10 -1.97449e-06 0)
(8.17506e-10 -1.9749e-06 0)
(6.8994e-10 -1.97525e-06 0)
(5.62215e-10 -1.97555e-06 0)
(4.34361e-10 -1.97579e-06 0)
(3.0641e-10 -1.97596e-06 0)
(1.78393e-10 -1.97607e-06 0)
(5.03426e-11 -1.97612e-06 0)
(-7.7707e-11 -1.97611e-06 0)
(-2.05722e-10 -1.97602e-06 0)
(-3.33667e-10 -1.97587e-06 0)
(-4.61506e-10 -1.97565e-06 0)
(-5.89204e-10 -1.97536e-06 0)
(-7.16721e-10 -1.975e-06 0)
(-8.44022e-10 -1.97456e-06 0)
(-9.71066e-10 -1.97405e-06 0)
(-1.09782e-09 -1.97346e-06 0)
(-1.22423e-09 -1.97279e-06 0)
(-1.35027e-09 -1.97205e-06 0)
(-1.47588e-09 -1.97122e-06 0)
(-1.60104e-09 -1.97031e-06 0)
(-1.7257e-09 -1.96932e-06 0)
(-1.84981e-09 -1.96824e-06 0)
(-1.97333e-09 -1.96708e-06 0)
(-2.09622e-09 -1.96583e-06 0)
(-2.21843e-09 -1.96448e-06 0)
(-2.33991e-09 -1.96305e-06 0)
(-2.46062e-09 -1.96153e-06 0)
(-2.58052e-09 -1.95991e-06 0)
(-2.69956e-09 -1.9582e-06 0)
(-2.81768e-09 -1.95639e-06 0)
(-2.93485e-09 -1.95449e-06 0)
(-3.05102e-09 -1.95249e-06 0)
(-3.16613e-09 -1.95039e-06 0)
(-3.28015e-09 -1.94818e-06 0)
(-3.39301e-09 -1.94588e-06 0)
(-3.50469e-09 -1.94347e-06 0)
(-3.61511e-09 -1.94096e-06 0)
(-3.72426e-09 -1.93835e-06 0)
(-3.83206e-09 -1.93562e-06 0)
(-3.93848e-09 -1.9328e-06 0)
(-4.04345e-09 -1.92986e-06 0)
(-4.14696e-09 -1.92681e-06 0)
(-4.24893e-09 -1.92365e-06 0)
(-4.34933e-09 -1.92039e-06 0)
(-4.44809e-09 -1.917e-06 0)
(-4.5452e-09 -1.91352e-06 0)
(-4.64057e-09 -1.90991e-06 0)
(-4.7342e-09 -1.90619e-06 0)
(-4.826e-09 -1.90236e-06 0)
(-4.91595e-09 -1.89841e-06 0)
(-5.00399e-09 -1.89434e-06 0)
(-5.09009e-09 -1.89017e-06 0)
(-5.17418e-09 -1.88587e-06 0)
(-5.25624e-09 -1.88146e-06 0)
(-5.3362e-09 -1.87693e-06 0)
(-5.41404e-09 -1.87228e-06 0)
(-5.48969e-09 -1.86751e-06 0)
(-5.56314e-09 -1.86263e-06 0)
(-5.63431e-09 -1.85763e-06 0)
(-5.7032e-09 -1.85252e-06 0)
(-5.76972e-09 -1.84728e-06 0)
(-5.83387e-09 -1.84193e-06 0)
(-5.89558e-09 -1.83646e-06 0)
(-5.95485e-09 -1.83088e-06 0)
(-6.0116e-09 -1.82518e-06 0)
(-6.06585e-09 -1.81937e-06 0)
(-6.11751e-09 -1.81343e-06 0)
(-6.16661e-09 -1.80739e-06 0)
(-6.21308e-09 -1.80123e-06 0)
(-6.25693e-09 -1.79497e-06 0)
(-6.29811e-09 -1.78858e-06 0)
(-6.33665e-09 -1.7821e-06 0)
(-6.37248e-09 -1.77549e-06 0)
(-6.40566e-09 -1.76879e-06 0)
(-6.43611e-09 -1.76197e-06 0)
(-6.4639e-09 -1.75506e-06 0)
(-6.48896e-09 -1.74803e-06 0)
(-6.51137e-09 -1.74092e-06 0)
(-6.53105e-09 -1.73369e-06 0)
(-6.5481e-09 -1.72637e-06 0)
(-6.56244e-09 -1.71894e-06 0)
(-6.57415e-09 -1.71143e-06 0)
(-6.58319e-09 -1.70382e-06 0)
(-6.58962e-09 -1.69612e-06 0)
(-6.59339e-09 -1.68833e-06 0)
(-6.59457e-09 -1.68046e-06 0)
(-6.5931e-09 -1.67249e-06 0)
(-6.58904e-09 -1.66445e-06 0)
(-6.58231e-09 -1.65632e-06 0)
(-6.57291e-09 -1.64812e-06 0)
(-6.561e-09 -1.63981e-06 0)
(-6.54597e-09 -1.63153e-06 0)
(-6.53097e-09 -1.62284e-06 0)
(-6.49968e-09 -1.61461e-06 0)
(-6.45687e-09 -1.60541e-06 0)
(-6.4237e-09 -1.59453e-06 0)
(-6.3908e-09 -1.58416e-06 0)
(-6.35521e-09 -1.57401e-06 0)
(-6.31786e-09 -1.56376e-06 0)
(-6.27819e-09 -1.55354e-06 0)
(-6.23617e-09 -1.54338e-06 0)
(-6.19199e-09 -1.53333e-06 0)
(-6.14566e-09 -1.52335e-06 0)
(-6.09739e-09 -1.51345e-06 0)
(-6.0472e-09 -1.50361e-06 0)
(-5.9953e-09 -1.49386e-06 0)
(-5.94169e-09 -1.4842e-06 0)
(-5.8866e-09 -1.47463e-06 0)
(-5.83003e-09 -1.46514e-06 0)
(-5.77218e-09 -1.45575e-06 0)
(-5.71306e-09 -1.44645e-06 0)
(-5.65285e-09 -1.43725e-06 0)
(-5.59155e-09 -1.42815e-06 0)
(-5.52933e-09 -1.41915e-06 0)
(-5.46617e-09 -1.41024e-06 0)
(-5.40223e-09 -1.40145e-06 0)
(-5.33748e-09 -1.39275e-06 0)
(-5.27207e-09 -1.38417e-06 0)
(-5.20596e-09 -1.37568e-06 0)
(-5.13929e-09 -1.36731e-06 0)
(-5.07201e-09 -1.35904e-06 0)
(-5.00426e-09 -1.35089e-06 0)
(-4.93598e-09 -1.34284e-06 0)
(-4.8673e-09 -1.33491e-06 0)
(-4.79816e-09 -1.32708e-06 0)
(-4.72868e-09 -1.31937e-06 0)
(-4.65881e-09 -1.31176e-06 0)
(-4.58865e-09 -1.30428e-06 0)
(-4.51815e-09 -1.29691e-06 0)
(-4.44742e-09 -1.28965e-06 0)
(-4.3764e-09 -1.2825e-06 0)
(-4.30519e-09 -1.27548e-06 0)
(-4.23374e-09 -1.26856e-06 0)
(-4.16214e-09 -1.26177e-06 0)
(-4.09035e-09 -1.25509e-06 0)
(-4.01844e-09 -1.24853e-06 0)
(-3.94638e-09 -1.24208e-06 0)
(-3.87424e-09 -1.23575e-06 0)
(-3.80198e-09 -1.22953e-06 0)
(-3.72966e-09 -1.22344e-06 0)
(-3.65725e-09 -1.21746e-06 0)
(-3.58481e-09 -1.2116e-06 0)
(-3.51229e-09 -1.20585e-06 0)
(-3.43976e-09 -1.20023e-06 0)
(-3.36717e-09 -1.19472e-06 0)
(-3.29457e-09 -1.18933e-06 0)
(-3.22193e-09 -1.18405e-06 0)
(-3.14929e-09 -1.1789e-06 0)
(-3.07661e-09 -1.17386e-06 0)
(-3.00394e-09 -1.16894e-06 0)
(-2.93122e-09 -1.16413e-06 0)
(-2.85852e-09 -1.15945e-06 0)
(-2.78578e-09 -1.15488e-06 0)
(-2.71304e-09 -1.15044e-06 0)
(-2.64028e-09 -1.1461e-06 0)
(-2.56751e-09 -1.14189e-06 0)
(-2.49471e-09 -1.13779e-06 0)
(-2.42191e-09 -1.13381e-06 0)
(-2.34908e-09 -1.12995e-06 0)
(-2.27624e-09 -1.12621e-06 0)
(-2.20337e-09 -1.12258e-06 0)
(-2.1305e-09 -1.11908e-06 0)
(-2.05759e-09 -1.11568e-06 0)
(-1.98468e-09 -1.11241e-06 0)
(-1.91173e-09 -1.10926e-06 0)
(-1.83876e-09 -1.10622e-06 0)
(-1.76576e-09 -1.1033e-06 0)
(-1.69272e-09 -1.1005e-06 0)
(-1.61963e-09 -1.09782e-06 0)
(-1.54649e-09 -1.09526e-06 0)
(-1.47328e-09 -1.09281e-06 0)
(-1.4e-09 -1.09048e-06 0)
(-1.32661e-09 -1.08827e-06 0)
(-1.25311e-09 -1.08618e-06 0)
(-1.17948e-09 -1.0842e-06 0)
(-1.10571e-09 -1.08235e-06 0)
(-1.03181e-09 -1.08062e-06 0)
(-9.57816e-10 -1.079e-06 0)
(-8.83816e-10 -1.07751e-06 0)
(-8.09986e-10 -1.07614e-06 0)
(-7.36598e-10 -1.07487e-06 0)
(-6.64124e-10 -1.07381e-06 0)
(-5.93033e-10 -1.07255e-06 0)
(-5.24285e-10 -1.07246e-06 0)
(-4.56721e-10 -1.06889e-06 0)
(-3.94466e-10 -1.07689e-06 0)
(-3.16724e-10 -1.0441e-06 0)
(-2.86542e-10 -1.12933e-06 0)
(-1.52901e-10 -9.8599e-07 0)
)
;
    }
    bottomWall
    {
        type            calculated;
        value           nonuniform List<vector> 
449
(
(-53.0701 -0.959909 0)
(-35.0039 -0.00281487 0)
(-34.6052 -0.000262259 0)
(-33.1971 -0.000377898 0)
(-32.0171 -0.000324504 0)
(-30.9743 -0.000280477 0)
(-30.0932 -0.000239656 0)
(-29.3245 -0.000212245 0)
(-28.6259 -0.0001939 0)
(-27.9795 -0.000179157 0)
(-27.3803 -0.000165432 0)
(-26.8271 -0.00015222 0)
(-26.318 -0.000139736 0)
(-25.8502 -0.000128525 0)
(-25.4178 -0.000118405 0)
(-25.0193 -0.000109132 0)
(-24.6505 -0.000100943 0)
(-24.3081 -9.3492e-05 0)
(-23.9904 -8.6777e-05 0)
(-23.6942 -8.08711e-05 0)
(-23.4171 -7.54952e-05 0)
(-23.1578 -7.06978e-05 0)
(-22.9136 -6.63632e-05 0)
(-22.6842 -6.22416e-05 0)
(-22.4685 -5.86521e-05 0)
(-22.2638 -5.5482e-05 0)
(-22.0699 -5.24933e-05 0)
(-21.8858 -4.97571e-05 0)
(-21.7109 -4.71799e-05 0)
(-21.5446 -4.46446e-05 0)
(-21.3873 -4.24909e-05 0)
(-21.2359 -4.05886e-05 0)
(-21.0917 -3.87591e-05 0)
(-20.953 -3.70418e-05 0)
(-20.8207 -3.53336e-05 0)
(-20.694 -3.3758e-05 0)
(-20.5727 -3.24058e-05 0)
(-20.4553 -3.10813e-05 0)
(-20.3432 -2.98497e-05 0)
(-20.2345 -2.87352e-05 0)
(-20.1301 -2.7718e-05 0)
(-20.0284 -2.67428e-05 0)
(-19.9308 -2.57341e-05 0)
(-19.8362 -2.4815e-05 0)
(-19.7451 -2.39641e-05 0)
(-19.6564 -2.31118e-05 0)
(-19.5713 -2.23051e-05 0)
(-19.4883 -2.1559e-05 0)
(-19.4084 -2.08212e-05 0)
(-19.3307 -2.02026e-05 0)
(-19.2551 -1.96486e-05 0)
(-19.1812 -1.90589e-05 0)
(-19.1097 -1.8397e-05 0)
(-19.0406 -1.79195e-05 0)
(-18.9724 -1.74507e-05 0)
(-18.9065 -1.69743e-05 0)
(-18.8418 -1.64703e-05 0)
(-18.7795 -1.60002e-05 0)
(-18.7181 -1.56069e-05 0)
(-18.6585 -1.51741e-05 0)
(-18.6002 -1.47788e-05 0)
(-18.5434 -1.43651e-05 0)
(-18.4881 -1.39557e-05 0)
(-18.4343 -1.36515e-05 0)
(-18.381 -1.33989e-05 0)
(-18.3289 -1.30887e-05 0)
(-18.2779 -1.27578e-05 0)
(-18.2282 -1.24968e-05 0)
(-18.1789 -1.2251e-05 0)
(-18.131 -1.19021e-05 0)
(-18.0843 -1.15786e-05 0)
(-18.0387 -1.13451e-05 0)
(-17.9936 -1.11674e-05 0)
(-17.9492 -1.08976e-05 0)
(-17.9062 -1.06346e-05 0)
(-17.8637 -1.04005e-05 0)
(-17.8223 -1.01171e-05 0)
(-17.7819 -9.85455e-06 0)
(-17.7425 -9.6276e-06 0)
(-17.7038 -9.48962e-06 0)
(-17.6653 -9.3542e-06 0)
(-17.6275 -9.18325e-06 0)
(-17.5902 -8.95365e-06 0)
(-17.5541 -8.71667e-06 0)
(-17.5186 -8.51913e-06 0)
(-17.484 -8.37709e-06 0)
(-17.4495 -8.35145e-06 0)
(-17.4149 -8.24158e-06 0)
(-17.3812 -7.99766e-06 0)
(-17.3484 -7.79752e-06 0)
(-17.3162 -7.60943e-06 0)
(-17.2849 -7.44626e-06 0)
(-17.2539 -7.32742e-06 0)
(-17.2235 -7.16557e-06 0)
(-17.1937 -7.05862e-06 0)
(-17.164 -7.01268e-06 0)
(-17.1344 -6.90833e-06 0)
(-17.1055 -6.7469e-06 0)
(-17.0772 -6.6121e-06 0)
(-17.0492 -6.48454e-06 0)
(-17.0219 -6.39616e-06 0)
(-16.9946 -6.27451e-06 0)
(-16.9682 -6.14048e-06 0)
(-16.9419 -6.066e-06 0)
(-16.916 -6.02112e-06 0)
(-16.8899 -5.93323e-06 0)
(-16.8646 -5.88599e-06 0)
(-16.8389 -5.82572e-06 0)
(-16.814 -5.65926e-06 0)
(-16.7896 -5.53271e-06 0)
(-16.7658 -5.35093e-06 0)
(-16.7428 -5.23842e-06 0)
(-16.7199 -5.14834e-06 0)
(-16.6976 -5.03253e-06 0)
(-16.6755 -5.00475e-06 0)
(-16.6534 -5.00618e-06 0)
(-16.6312 -4.96411e-06 0)
(-16.6093 -4.85665e-06 0)
(-16.588 -4.78494e-06 0)
(-16.5666 -4.80175e-06 0)
(-16.545 -4.72549e-06 0)
(-16.5243 -4.5911e-06 0)
(-16.5038 -4.4836e-06 0)
(-16.484 -4.3586e-06 0)
(-16.4646 -4.23574e-06 0)
(-16.4457 -4.19587e-06 0)
(-16.4266 -4.1781e-06 0)
(-16.4078 -4.15098e-06 0)
(-16.3887 -4.16385e-06 0)
(-16.3697 -4.16091e-06 0)
(-16.3506 -4.11236e-06 0)
(-16.332 -3.99806e-06 0)
(-16.3139 -3.89237e-06 0)
(-16.2962 -3.83606e-06 0)
(-16.2785 -3.74983e-06 0)
(-16.2616 -3.62146e-06 0)
(-16.245 -3.55613e-06 0)
(-16.2286 -3.48927e-06 0)
(-16.2125 -3.44512e-06 0)
(-16.1964 -3.39145e-06 0)
(-16.1808 -3.3405e-06 0)
(-16.165 -3.40035e-06 0)
(-16.1487 -3.42208e-06 0)
(-16.1326 -3.44401e-06 0)
(-16.1161 -3.43692e-06 0)
(-16.1 -3.42513e-06 0)
(-16.0835 -3.35172e-06 0)
(-16.0681 -3.27317e-06 0)
(-16.0522 -3.22579e-06 0)
(-16.0372 -3.14357e-06 0)
(-16.0221 -3.03644e-06 0)
(-16.008 -2.96372e-06 0)
(-15.9936 -2.93868e-06 0)
(-15.9797 -2.8247e-06 0)
(-15.9663 -2.81238e-06 0)
(-15.9524 -2.83496e-06 0)
(-15.9386 -2.82817e-06 0)
(-15.9248 -2.8094e-06 0)
(-15.9111 -2.84616e-06 0)
(-15.8968 -2.87589e-06 0)
(-15.8828 -2.79824e-06 0)
(-15.8693 -2.74413e-06 0)
(-15.8558 -2.63731e-06 0)
(-15.8432 -2.50964e-06 0)
(-15.8309 -2.53479e-06 0)
(-15.818 -2.6136e-06 0)
(-15.8048 -2.59916e-06 0)
(-15.792 -2.58151e-06 0)
(-15.7789 -2.60934e-06 0)
(-15.7658 -2.59969e-06 0)
(-15.7527 -2.59664e-06 0)
(-15.7395 -2.59631e-06 0)
(-15.7265 -2.57121e-06 0)
(-15.7142 -2.60071e-06 0)
(-15.7022 -2.53579e-06 0)
(-15.6911 -2.44044e-06 0)
(-15.6797 -2.39713e-06 0)
(-15.6688 -2.30416e-06 0)
(-15.6581 -2.32034e-06 0)
(-15.6467 -2.39335e-06 0)
(-15.635 -2.34543e-06 0)
(-15.6238 -2.34287e-06 0)
(-15.6119 -2.3633e-06 0)
(-15.6003 -2.28662e-06 0)
(-15.5889 -2.21544e-06 0)
(-15.5778 -2.20304e-06 0)
(-15.5663 -2.23023e-06 0)
(-15.5546 -2.228e-06 0)
(-15.5429 -2.15927e-06 0)
(-15.5317 -2.07293e-06 0)
(-15.5207 -2.03054e-06 0)
(-15.5097 -2.07893e-06 0)
(-15.4979 -2.01087e-06 0)
(-15.4875 -1.94881e-06 0)
(-15.4761 -2.00418e-06 0)
(-15.4648 -2.02991e-06 0)
(-15.4528 -2.02857e-06 0)
(-15.4413 -2.0283e-06 0)
(-15.4291 -2.06487e-06 0)
(-15.4168 -2.02244e-06 0)
(-15.4049 -1.99148e-06 0)
(-15.3928 -1.97853e-06 0)
(-15.3807 -1.9307e-06 0)
(-15.369 -1.83351e-06 0)
(-15.3579 -1.76508e-06 0)
(-15.3468 -1.67623e-06 0)
(-15.3366 -1.57016e-06 0)
(-15.3266 -1.53326e-06 0)
(-15.3166 -1.54266e-06 0)
(-15.3062 -1.54553e-06 0)
(-15.296 -1.5638e-06 0)
(-15.2851 -1.61487e-06 0)
(-15.274 -1.6981e-06 0)
(-15.2617 -1.71127e-06 0)
(-15.2502 -1.64695e-06 0)
(-15.2386 -1.63189e-06 0)
(-15.227 -1.63298e-06 0)
(-15.2151 -1.64798e-06 0)
(-15.2031 -1.6521e-06 0)
(-15.1909 -1.58115e-06 0)
(-15.1796 -1.53933e-06 0)
(-15.1678 -1.49303e-06 0)
(-15.1571 -1.45978e-06 0)
(-15.1455 -1.45318e-06 0)
(-15.1346 -1.39606e-06 0)
(-15.1236 -1.44198e-06 0)
(-15.1118 -1.43133e-06 0)
(-15.1008 -1.37262e-06 0)
(-15.0896 -1.44373e-06 0)
(-15.0772 -1.40879e-06 0)
(-15.0664 -1.3922e-06 0)
(-15.0539 -1.41773e-06 0)
(-15.0425 -1.31574e-06 0)
(-15.0315 -1.25512e-06 0)
(-15.0208 -1.20756e-06 0)
(-15.0105 -1.15484e-06 0)
(-15.0005 -1.11414e-06 0)
(-14.9907 -1.11741e-06 0)
(-14.9804 -1.19402e-06 0)
(-14.9689 -1.21196e-06 0)
(-14.958 -1.22442e-06 0)
(-14.946 -1.27244e-06 0)
(-14.934 -1.25602e-06 0)
(-14.9222 -1.206e-06 0)
(-14.9109 -1.16542e-06 0)
(-14.8996 -1.11596e-06 0)
(-14.8891 -1.03048e-06 0)
(-14.8792 -1.01812e-06 0)
(-14.8687 -1.0529e-06 0)
(-14.8579 -1.07267e-06 0)
(-14.8467 -1.07741e-06 0)
(-14.8355 -1.02666e-06 0)
(-14.8252 -1.009e-06 0)
(-14.8142 -1.01074e-06 0)
(-14.8036 -1.00112e-06 0)
(-14.7926 -9.50231e-07 0)
(-14.7829 -9.05705e-07 0)
(-14.7726 -9.43324e-07 0)
(-14.7618 -9.21806e-07 0)
(-14.7518 -8.78553e-07 0)
(-14.7418 -8.76037e-07 0)
(-14.7316 -8.6187e-07 0)
(-14.7217 -8.51597e-07 0)
(-14.7116 -8.30135e-07 0)
(-14.7019 -8.3836e-07 0)
(-14.6914 -8.38564e-07 0)
(-14.6815 -8.35539e-07 0)
(-14.6708 -8.6274e-07 0)
(-14.66 -8.16286e-07 0)
(-14.6503 -7.44147e-07 0)
(-14.6412 -7.18073e-07 0)
(-14.6318 -7.39017e-07 0)
(-14.6219 -7.85267e-07 0)
(-14.6112 -7.95206e-07 0)
(-14.6008 -7.26183e-07 0)
(-14.5917 -7.03921e-07 0)
(-14.5817 -7.13804e-07 0)
(-14.5721 -7.07743e-07 0)
(-14.5621 -7.21127e-07 0)
(-14.5519 -7.3338e-07 0)
(-14.5414 -7.26322e-07 0)
(-14.5312 -6.80108e-07 0)
(-14.5217 -6.39065e-07 0)
(-14.5125 -6.40165e-07 0)
(-14.5029 -6.1978e-07 0)
(-14.4941 -5.8433e-07 0)
(-14.4853 -5.16105e-07 0)
(-14.4784 -5.15901e-07 0)
(-14.4693 -5.74366e-07 0)
(-14.4604 -5.94628e-07 0)
(-14.4506 -5.74222e-07 0)
(-14.4422 -5.32526e-07 0)
(-14.4335 -5.37959e-07 0)
(-14.4247 -5.42115e-07 0)
(-14.4156 -5.05059e-07 0)
(-14.4079 -5.08859e-07 0)
(-14.3985 -5.46466e-07 0)
(-14.3893 -5.39448e-07 0)
(-14.38 -5.69639e-07 0)
(-14.3695 -5.60007e-07 0)
(-14.3603 -5.6574e-07 0)
(-14.3493 -5.84256e-07 0)
(-14.3393 -4.99706e-07 0)
(-14.3314 -4.18824e-07 0)
(-14.3241 -3.65589e-07 0)
(-14.3179 -3.9085e-07 0)
(-14.3094 -4.57832e-07 0)
(-14.3005 -4.49007e-07 0)
(-14.2922 -4.48081e-07 0)
(-14.2832 -4.34013e-07 0)
(-14.2753 -4.2259e-07 0)
(-14.2664 -4.45949e-07 0)
(-14.2574 -4.22522e-07 0)
(-14.2494 -3.6693e-07 0)
(-14.2425 -3.58377e-07 0)
(-14.2346 -3.81573e-07 0)
(-14.2266 -3.74721e-07 0)
(-14.2188 -3.58263e-07 0)
(-14.2113 -3.538e-07 0)
(-14.2036 -3.84116e-07 0)
(-14.1945 -4.08869e-07 0)
(-14.1856 -3.6648e-07 0)
(-14.1783 -3.2536e-07 0)
(-14.171 -3.40699e-07 0)
(-14.1628 -3.81443e-07 0)
(-14.1534 -3.95626e-07 0)
(-14.1444 -3.71079e-07 0)
(-14.136 -3.39014e-07 0)
(-14.1283 -3.35536e-07 0)
(-14.1198 -3.50905e-07 0)
(-14.1113 -3.05796e-07 0)
(-14.1049 -2.78365e-07 0)
(-14.0975 -3.15975e-07 0)
(-14.0891 -3.19556e-07 0)
(-14.0814 -2.68139e-07 0)
(-14.0755 -2.28317e-07 0)
(-14.0696 -2.62056e-07 0)
(-14.0616 -2.9233e-07 0)
(-14.0541 -2.86895e-07 0)
(-14.0463 -2.94811e-07 0)
(-14.0381 -2.85615e-07 0)
(-14.0308 -2.45269e-07 0)
(-14.0247 -2.28698e-07 0)
(-14.018 -2.3356e-07 0)
(-14.0115 -2.34538e-07 0)
(-14.0047 -2.56126e-07 0)
(-13.9967 -2.62496e-07 0)
(-13.9894 -2.44296e-07 0)
(-13.9824 -2.48944e-07 0)
(-13.9746 -2.49577e-07 0)
(-13.9674 -2.32109e-07 0)
(-13.9605 -2.33587e-07 0)
(-13.953 -2.19343e-07 0)
(-13.9468 -2.0074e-07 0)
(-13.9397 -1.98623e-07 0)
(-13.9322 -1.92793e-07 0)
(-13.9247 -1.9884e-07 0)
(-13.9167 -2.03291e-07 0)
(-13.9089 -2.06665e-07 0)
(-13.9006 -2.11115e-07 0)
(-13.8924 -1.93791e-07 0)
(-13.8855 -1.93025e-07 0)
(-13.8773 -2.12909e-07 0)
(-13.8689 -1.94587e-07 0)
(-13.8622 -1.63618e-07 0)
(-13.8562 -1.64995e-07 0)
(-13.8493 -1.74678e-07 0)
(-13.8425 -1.78887e-07 0)
(-13.8354 -1.9072e-07 0)
(-13.8277 -1.76153e-07 0)
(-13.8218 -1.51954e-07 0)
(-13.8159 -1.56467e-07 0)
(-13.8096 -1.49062e-07 0)
(-13.8043 -1.59099e-07 0)
(-13.7972 -1.77495e-07 0)
(-13.7905 -1.54318e-07 0)
(-13.7852 -1.28276e-07 0)
(-13.7806 -1.2751e-07 0)
(-13.7753 -1.42318e-07 0)
(-13.7695 -1.7155e-07 0)
(-13.7619 -1.75889e-07 0)
(-13.7558 -1.41867e-07 0)
(-13.7509 -1.39494e-07 0)
(-13.745 -1.34654e-07 0)
(-13.7405 -9.67144e-08 0)
(-13.7375 -8.57008e-08 0)
(-13.7338 -1.10581e-07 0)
(-13.7288 -1.20937e-07 0)
(-13.7244 -1.27343e-07 0)
(-13.719 -1.24494e-07 0)
(-13.7147 -1.22499e-07 0)
(-13.7095 -1.18659e-07 0)
(-13.7056 -1.08795e-07 0)
(-13.701 -1.14244e-07 0)
(-13.6967 -1.14785e-07 0)
(-13.6921 -1.30434e-07 0)
(-13.6865 -1.42028e-07 0)
(-13.681 -1.37773e-07 0)
(-13.6758 -1.43777e-07 0)
(-13.6698 -1.33881e-07 0)
(-13.6654 -1.11523e-07 0)
(-13.6612 -1.08758e-07 0)
(-13.657 -9.85049e-08 0)
(-13.6536 -9.2384e-08 0)
(-13.6498 -1.03486e-07 0)
(-13.6455 -1.04629e-07 0)
(-13.6417 -9.04424e-08 0)
(-13.6385 -1.0161e-07 0)
(-13.6337 -1.13276e-07 0)
(-13.6296 -9.81839e-08 0)
(-13.6261 -9.69298e-08 0)
(-13.6221 -9.52759e-08 0)
(-13.6187 -8.217e-08 0)
(-13.6158 -8.96301e-08 0)
(-13.6117 -1.03639e-07 0)
(-13.6077 -9.72419e-08 0)
(-13.6041 -9.27179e-08 0)
(-13.6004 -9.79777e-08 0)
(-13.5965 -9.65608e-08 0)
(-13.593 -7.76619e-08 0)
(-13.5906 -6.5219e-08 0)
(-13.588 -8.96547e-08 0)
(-13.5836 -9.92856e-08 0)
(-13.5803 -8.5932e-08 0)
(-13.5769 -8.48006e-08 0)
(-13.5737 -7.25187e-08 0)
(-13.5713 -7.32155e-08 0)
(-13.568 -8.64854e-08 0)
(-13.5646 -8.30799e-08 0)
(-13.5615 -8.33103e-08 0)
(-13.5581 -9.11644e-08 0)
(-13.5544 -8.34365e-08 0)
(-13.5516 -6.62758e-08 0)
(-13.5493 -7.47233e-08 0)
(-13.5458 -8.48784e-08 0)
(-13.5427 -7.72733e-08 0)
(-13.5398 -8.23984e-08 0)
(-13.5363 -8.46556e-08 0)
(-13.5332 -7.08848e-08 0)
(-13.5308 -7.1895e-08 0)
(-13.5276 -8.16044e-08 0)
(-13.5244 -7.55294e-08 0)
(-13.5218 -6.71267e-08 0)
(-13.5192 -8.3223e-08 0)
(-13.5153 -8.05098e-08 0)
(-13.513 -7.48662e-08 0)
(-13.5095 -5.97856e-08 0)
(-13.5084 -8.297e-08 0)
(-13.503 -7.12597e-08 0)
)
;
    }
    symmetry
    {
        type            symmetryPlane;
    }
    frontAndBack
    {
        type            empty;
    }
}


// ************************************************************************* //
