/*--------------------------------*- C++ -*----------------------------------*\
| =========                 |                                                 |
| \\      /  F ield         | OpenFOAM: The Open Source CFD Toolbox           |
|  \\    /   O peration     | Version:  v2012                                 |
|   \\  /    A nd           | Website:  www.openfoam.com                      |
|    \\/     M anipulation  |                                                 |
\*---------------------------------------------------------------------------*/
FoamFile
{
    version     2.0;
    format      ascii;
    class       volScalarField;
    location    "13";
    object      yPlus;
}
// * * * * * * * * * * * * * * * * * * * * * * * * * * * * * * * * * * * * * //

dimensions      [0 0 0 0 0 0 0];


internalField   uniform 0;

boundaryField
{
    inlet
    {
        type            calculated;
        value           uniform 0;
    }
    outlet
    {
        type            calculated;
        value           uniform 0;
    }
    topWall
    {
        type            calculated;
        value           nonuniform List<scalar> 
545
(
0.104068
0.179842
0.230729
0.27113
0.305305
0.335178
0.361835
0.385956
0.408005
0.428315
0.447136
0.464662
0.481047
0.496416
0.510872
0.524503
0.537381
0.549572
0.561131
0.572105
0.582538
0.592468
0.60193
0.610953
0.619567
0.627796
0.635662
0.643189
0.650394
0.657295
0.66391
0.670252
0.676338
0.682179
0.687788
0.693176
0.698355
0.703334
0.708122
0.71273
0.717164
0.721432
0.725543
0.729503
0.733319
0.736996
0.740542
0.74396
0.747258
0.750439
0.753509
0.756472
0.759332
0.762094
0.764761
0.767337
0.769826
0.772231
0.774555
0.776802
0.778973
0.781073
0.783103
0.785067
0.786966
0.788804
0.790582
0.792302
0.793966
0.795578
0.797137
0.798647
0.800089
0.801481
0.802861
0.804228
0.805582
0.806924
0.808253
0.80957
0.810874
0.812167
0.813447
0.814716
0.815973
0.817218
0.818452
0.819674
0.820886
0.822086
0.823275
0.824454
0.825621
0.826778
0.827924
0.829062
0.830077
0.830983
0.831888
0.832791
0.833694
0.834595
0.835495
0.836395
0.837293
0.83819
0.839086
0.83998
0.840874
0.841766
0.842658
0.843548
0.844437
0.845324
0.846211
0.847096
0.84798
0.848863
0.849744
0.850624
0.851503
0.852381
0.853257
0.854132
0.855006
0.855878
0.856749
0.857618
0.858487
0.859353
0.860219
0.861083
0.861945
0.862806
0.863666
0.864524
0.865381
0.866236
0.867089
0.867942
0.868792
0.869641
0.870489
0.871335
0.872179
0.873022
0.873863
0.874702
0.87554
0.876376
0.877211
0.878044
0.878875
0.879704
0.880532
0.881358
0.882182
0.883005
0.883825
0.884644
0.885461
0.886277
0.88709
0.887902
0.888712
0.889519
0.890325
0.89113
0.891932
0.892732
0.89353
0.894327
0.895121
0.895913
0.896704
0.897492
0.898278
0.899063
0.899845
0.900625
0.901403
0.902179
0.902953
0.903724
0.904494
0.905261
0.906026
0.906789
0.90755
0.908309
0.909065
0.909819
0.910571
0.91132
0.912067
0.912812
0.913555
0.914295
0.915032
0.915768
0.916501
0.917231
0.917959
0.918685
0.919408
0.920129
0.920847
0.921563
0.922276
0.922987
0.923695
0.9244
0.925103
0.925803
0.926501
0.927196
0.927888
0.928578
0.929265
0.929949
0.930631
0.93131
0.931985
0.932659
0.933329
0.933997
0.934662
0.935324
0.935983
0.936639
0.937292
0.937943
0.93859
0.939235
0.939876
0.940515
0.94115
0.941783
0.942413
0.943039
0.943662
0.944283
0.9449
0.945514
0.946125
0.946733
0.947338
0.947939
0.948538
0.949133
0.949724
0.950313
0.950898
0.95148
0.952059
0.952635
0.953207
0.953775
0.954341
0.954903
0.955461
0.956016
0.956568
0.957116
0.957661
0.958202
0.95874
0.959274
0.959805
0.960299
0.960761
0.961225
0.96169
0.962156
0.962624
0.963094
0.963564
0.964036
0.964509
0.964983
0.965457
0.965933
0.96641
0.966887
0.967365
0.967844
0.968323
0.968802
0.969282
0.969762
0.970242
0.970722
0.971202
0.971682
0.972162
0.972641
0.973119
0.973597
0.974074
0.97455
0.975025
0.975499
0.975972
0.976443
0.976913
0.977381
0.977847
0.978311
0.978773
0.979233
0.97969
0.980144
0.980596
0.981044
0.98149
0.981932
0.982371
0.982806
0.983237
0.983664
0.984086
0.984505
0.984918
0.985327
0.98573
0.986128
0.986521
0.986908
0.987289
0.987663
0.988032
0.988393
0.988748
0.989095
0.989435
0.989767
0.990091
0.990408
0.990715
0.991014
0.991303
0.991584
0.991855
0.992116
0.992366
0.992607
0.992836
0.993054
0.993261
0.993457
0.99364
0.993811
0.993969
0.994114
0.994246
0.994365
0.994469
0.994559
0.994634
0.994695
0.99474
0.994769
0.994782
0.994779
0.994759
0.994723
0.994668
0.994596
0.994505
0.994396
0.994268
0.994121
0.993954
0.993767
0.99356
0.993332
0.993082
0.992812
0.992519
0.992204
0.991866
0.991506
0.991122
0.990715
0.990283
0.989828
0.989347
0.988841
0.98831
0.987753
0.987169
0.98656
0.985923
0.98526
0.984568
0.98385
0.983102
0.982328
0.981523
0.980691
0.979828
0.978937
0.978014
0.977063
0.976081
0.975069
0.974025
0.972951
0.971845
0.970709
0.96954
0.968341
0.967108
0.965845
0.964548
0.963221
0.961859
0.960467
0.959041
0.957584
0.956092
0.95457
0.953013
0.951426
0.949805
0.948153
0.946466
0.94475
0.942999
0.941219
0.939405
0.937561
0.935684
0.933777
0.931838
0.92987
0.92787
0.925841
0.923781
0.921693
0.919574
0.917429
0.915252
0.91305
0.910819
0.908562
0.906277
0.903968
0.901632
0.899271
0.896626
0.893712
0.890799
0.887895
0.884996
0.882107
0.879225
0.876357
0.873497
0.870653
0.867819
0.865004
0.8622
0.859417
0.856647
0.853899
0.851167
0.848458
0.845766
0.843098
0.840449
0.837825
0.835221
0.832645
0.830088
0.82756
0.825054
0.822577
0.820122
0.817697
0.815296
0.812926
0.810581
0.808267
0.805978
0.803722
0.801492
0.799296
0.797126
0.79499
0.792881
0.790807
0.788762
0.786751
0.784769
0.782823
0.780907
0.779026
0.777176
0.775362
0.773579
0.771833
0.770119
0.768441
0.766796
0.765188
0.763613
0.762076
0.760572
0.759106
0.757674
0.75628
0.754921
0.753601
0.752315
0.751069
0.749857
0.748686
0.74755
0.746454
0.745394
0.744374
0.74339
0.742447
0.741541
0.740675
0.739847
0.73906
0.73831
0.737602
0.736932
0.736303
0.735713
0.735165
0.734656
0.734188
0.73376
0.733373
0.733024
0.732715
0.732443
0.732208
0.732004
0.731858
0.731679
)
;
    }
    bottomWall
    {
        type            calculated;
        value           nonuniform List<scalar> 
449
(
0.00275508
0.0048331
0.00540711
0.00535208
0.00527013
0.00517232
0.00508052
0.00499308
0.00490713
0.00482263
0.00474077
0.0046628
0.00458935
0.00452066
0.00445616
0.00439608
0.00433989
0.0042873
0.00423819
0.00419207
0.0041487
0.00410792
0.00406932
0.00403293
0.00399861
0.00396586
0.00393477
0.00390515
0.00387691
0.00385006
0.00382459
0.00379998
0.0037765
0.00375385
0.00373223
0.0037115
0.0036916
0.00367231
0.00365388
0.00363593
0.0036187
0.00360185
0.00358569
0.00356999
0.00355486
0.00354011
0.00352596
0.00351212
0.00349882
0.00348584
0.0034732
0.00346081
0.00344887
0.00343727
0.00342581
0.00341475
0.00340383
0.00339336
0.00338299
0.00337296
0.0033631
0.00335352
0.00334418
0.00333508
0.00332604
0.00331719
0.0033085
0.00330003
0.00329162
0.00328344
0.00327549
0.00326772
0.00326002
0.00325242
0.00324508
0.00323781
0.00323076
0.00322386
0.00321714
0.00321051
0.0032039
0.0031974
0.003191
0.00318482
0.00317873
0.0031728
0.00316685
0.00316085
0.00315504
0.0031494
0.00314386
0.00313848
0.00313315
0.00312791
0.00312279
0.00311766
0.00311254
0.00310754
0.00310265
0.00309782
0.0030931
0.00308836
0.0030838
0.00307924
0.00307474
0.00307019
0.0030658
0.00306127
0.00305696
0.00305271
0.00304859
0.00304464
0.00304067
0.00303685
0.00303305
0.00302922
0.00302536
0.00302156
0.00301786
0.00301414
0.00301035
0.00300675
0.00300317
0.00299974
0.00299639
0.00299316
0.00298982
0.00298657
0.00298324
0.00297991
0.00297654
0.00297327
0.0029701
0.002967
0.0029639
0.00296096
0.00295808
0.00295523
0.00295247
0.00294967
0.002947
0.00294426
0.00294141
0.00293858
0.00293565
0.0029328
0.00292986
0.00292715
0.00292433
0.00292171
0.00291906
0.00291664
0.00291411
0.00291171
0.00290939
0.00290696
0.00290456
0.00290212
0.00289972
0.00289716
0.00289468
0.00289229
0.00288991
0.00288774
0.0028856
0.00288333
0.002881
0.00287876
0.00287644
0.00287411
0.0028718
0.00286943
0.0028671
0.00286491
0.00286275
0.00286079
0.00285876
0.00285683
0.00285494
0.00285287
0.00285077
0.00284874
0.00284656
0.00284446
0.00284243
0.00284046
0.0028384
0.0028363
0.0028342
0.00283221
0.00283025
0.00282827
0.00282613
0.00282431
0.00282226
0.00282024
0.00281808
0.00281601
0.00281378
0.00281157
0.00280942
0.00280722
0.00280505
0.00280294
0.00280098
0.00279898
0.0027972
0.00279543
0.00279367
0.00279181
0.00279
0.00278805
0.00278605
0.0027838
0.00278174
0.00277966
0.0027776
0.00277547
0.00277328
0.00277108
0.00276908
0.00276694
0.00276503
0.00276291
0.00276098
0.00275901
0.00275685
0.00275491
0.00275289
0.00275062
0.00274869
0.0027464
0.00274434
0.00274237
0.00274044
0.00273857
0.00273676
0.002735
0.00273314
0.00273105
0.0027291
0.0027269
0.00272468
0.0027225
0.00272047
0.00271842
0.00271652
0.00271477
0.00271285
0.00271087
0.0027088
0.00270677
0.00270491
0.00270292
0.00270099
0.00269897
0.00269725
0.00269538
0.00269341
0.00269163
0.00268982
0.00268797
0.00268614
0.00268429
0.00268254
0.0026806
0.00267883
0.00267686
0.00267488
0.00267311
0.00267146
0.00266977
0.00266795
0.00266594
0.00266404
0.0026624
0.00266055
0.00265878
0.00265695
0.00265509
0.00265315
0.00265128
0.00264956
0.00264789
0.00264612
0.00264452
0.00264292
0.00264171
0.00264005
0.00263842
0.00263663
0.00263513
0.00263353
0.00263192
0.00263027
0.00262891
0.00262717
0.00262547
0.00262374
0.0026218
0.00262011
0.00261807
0.00261623
0.00261477
0.00261345
0.00261238
0.00261084
0.00260923
0.00260775
0.0026061
0.0026047
0.00260307
0.0026014
0.00259992
0.00259867
0.00259722
0.00259575
0.00259435
0.00259301
0.00259162
0.00258991
0.00258825
0.00258696
0.00258564
0.00258413
0.00258236
0.00258069
0.00257916
0.00257777
0.00257619
0.00257461
0.00257349
0.00257214
0.00257056
0.00256914
0.0025681
0.00256707
0.00256559
0.00256419
0.00256275
0.00256122
0.00255986
0.00255878
0.00255755
0.00255636
0.0025551
0.00255361
0.00255225
0.00255098
0.00254951
0.00254819
0.00254691
0.00254551
0.00254438
0.00254304
0.00254168
0.00254033
0.00253886
0.00253744
0.00253593
0.00253446
0.00253324
0.00253173
0.00253013
0.00252892
0.00252782
0.00252654
0.00252528
0.00252392
0.00252248
0.00252142
0.00252035
0.00251916
0.00251818
0.00251682
0.00251556
0.00251458
0.00251374
0.00251279
0.00251168
0.00251024
0.00250909
0.00250819
0.00250708
0.00250625
0.00250572
0.00250504
0.00250411
0.00250328
0.00250225
0.00250146
0.00250045
0.00249974
0.0024989
0.00249811
0.00249726
0.0024962
0.00249516
0.00249415
0.002493
0.00249216
0.00249137
0.00249056
0.00248995
0.00248924
0.00248845
0.00248774
0.00248716
0.00248625
0.0024855
0.00248484
0.00248408
0.00248344
0.00248288
0.00248209
0.0024813
0.00248062
0.0024799
0.00247914
0.00247848
0.00247806
0.00247759
0.00247677
0.00247614
0.00247551
0.00247488
0.00247445
0.00247381
0.00247318
0.00247262
0.00247197
0.00247127
0.00247076
0.00247033
0.00246966
0.00246907
0.00246851
0.00246783
0.00246726
0.0024668
0.0024662
0.0024656
0.00246512
0.00246462
0.00246388
0.00246344
0.00246283
0.00246251
0.00246155
)
;
    }
    symmetry
    {
        type            symmetryPlane;
    }
    frontAndBack
    {
        type            empty;
    }
}


// ************************************************************************* //
