/*--------------------------------*- C++ -*----------------------------------*\
| =========                 |                                                 |
| \\      /  F ield         | OpenFOAM: The Open Source CFD Toolbox           |
|  \\    /   O peration     | Version:  v2012                                 |
|   \\  /    A nd           | Website:  www.openfoam.com                      |
|    \\/     M anipulation  |                                                 |
\*---------------------------------------------------------------------------*/
FoamFile
{
    version     2.0;
    format      ascii;
    class       volScalarField;
    location    "49.5";
    object      k;
}
// * * * * * * * * * * * * * * * * * * * * * * * * * * * * * * * * * * * * * //

dimensions      [0 2 -2 0 0 0 0];


internalField   nonuniform List<scalar> 
209825
(
0.00102406
0.000933171
0.000856692
0.000790832
0.000734026
0.000685501
0.000644186
0.000609144
0.000579235
0.000553682
0.000531598
0.000512507
0.000495763
0.000481125
0.000468107
0.000456619
0.00044627
0.000437071
0.000428688
0.000421199
0.000414299
0.000408114
0.000402357
0.000397187
0.000392326
0.000387957
0.000383808
0.000380088
0.000376515
0.00037332
0.00037022
0.000367461
0.000364751
0.000362353
0.00035997
0.000357877
0.000355771
0.000353938
0.000352067
0.000350457
0.000348787
0.000347367
0.000345871
0.000344614
0.00034327
0.000342156
0.000340945
0.000339955
0.00033886
0.00033798
0.000336988
0.000336204
0.000335303
0.000334605
0.000333787
0.000333165
0.000332419
0.000331866
0.000331186
0.000330695
0.000330074
0.000329635
0.000329072
0.000328677
0.000328166
0.00032781
0.000327349
0.000327027
0.000326609
0.00032632
0.000325939
0.000325681
0.000325341
0.000325113
0.000324794
0.000324577
0.000324269
0.000324061
0.000323764
0.000323568
0.000323286
0.000323103
0.000322838
0.00032267
0.000322424
0.00032227
0.000322045
0.000321909
0.000321698
0.000321597
0.000321387
0.000321307
0.000321093
0.00032448
0.0114887
0.0138029
0.00102406
0.000933171
0.000856693
0.000790833
0.000734027
0.000685502
0.000644186
0.000609144
0.000579234
0.000553681
0.000531596
0.000512505
0.00049576
0.000481121
0.000468103
0.000456614
0.000446265
0.000437066
0.000428682
0.000421193
0.000414292
0.000408107
0.00040235
0.000397179
0.000392318
0.000387949
0.0003838
0.00038008
0.000376506
0.000373311
0.000370211
0.000367451
0.000364741
0.000362344
0.00035996
0.000357867
0.00035576
0.000353928
0.000352057
0.000350446
0.000348777
0.000347356
0.000345861
0.000344603
0.00034326
0.000342145
0.000340934
0.000339944
0.000338849
0.000337969
0.000336976
0.000336192
0.000335292
0.000334593
0.000333775
0.000333153
0.000332408
0.000331854
0.000331174
0.000330683
0.000330062
0.000329623
0.00032906
0.000328665
0.000328154
0.000327798
0.000327337
0.000327015
0.000326597
0.000326308
0.000325927
0.000325668
0.000325329
0.000325101
0.000324782
0.000324565
0.000324256
0.000324048
0.000323752
0.000323555
0.000323274
0.00032309
0.000322826
0.000322657
0.000322411
0.000322257
0.000322032
0.000321896
0.000321686
0.000321584
0.000321374
0.000321294
0.00032108
0.000324472
0.0114973
0.0138151
0.00102406
0.000933171
0.000856694
0.000790835
0.00073403
0.000685503
0.000644186
0.000609141
0.000579228
0.000553672
0.000531584
0.00051249
0.000495743
0.000481102
0.000468081
0.000456591
0.000446239
0.000437039
0.000428653
0.000421163
0.000414261
0.000408074
0.000402316
0.000397144
0.000392282
0.000387913
0.000383763
0.000380042
0.000376467
0.000373272
0.000370171
0.000367411
0.0003647
0.000362302
0.000359918
0.000357824
0.000355717
0.000353884
0.000352013
0.000350402
0.000348732
0.000347311
0.000345815
0.000344557
0.000343213
0.000342099
0.000340887
0.000339897
0.000338802
0.000337921
0.000336929
0.000336144
0.000335244
0.000334545
0.000333727
0.000333104
0.000332359
0.000331805
0.000331125
0.000330634
0.000330013
0.000329573
0.00032901
0.000328615
0.000328104
0.000327748
0.000327286
0.000326965
0.000326546
0.000326257
0.000325876
0.000325617
0.000325277
0.00032505
0.000324731
0.000324513
0.000324205
0.000323997
0.0003237
0.000323503
0.000323222
0.000323038
0.000322774
0.000322605
0.000322359
0.000322204
0.000321979
0.000321843
0.000321633
0.000321531
0.000321321
0.000321241
0.000321026
0.000324427
0.011512
0.0138384
0.00102406
0.000933171
0.000856696
0.000790839
0.000734034
0.000685506
0.000644185
0.000609135
0.000579218
0.000553656
0.000531564
0.000512465
0.000495714
0.000481069
0.000468045
0.000456551
0.000446197
0.000436993
0.000428605
0.000421112
0.000414209
0.00040802
0.00040226
0.000397086
0.000392222
0.000387851
0.0003837
0.000379977
0.000376402
0.000373205
0.000370103
0.000367342
0.00036463
0.000362231
0.000359846
0.000357752
0.000355644
0.00035381
0.000351938
0.000350327
0.000348656
0.000347235
0.000345738
0.00034448
0.000343136
0.00034202
0.000340808
0.000339818
0.000338722
0.000337841
0.000336848
0.000336064
0.000335162
0.000334463
0.000333645
0.000333022
0.000332276
0.000331722
0.000331041
0.00033055
0.000329929
0.000329489
0.000328926
0.00032853
0.000328019
0.000327663
0.000327201
0.000326879
0.000326461
0.000326171
0.00032579
0.000325531
0.000325191
0.000324963
0.000324644
0.000324426
0.000324118
0.000323909
0.000323613
0.000323416
0.000323134
0.00032295
0.000322686
0.000322517
0.00032227
0.000322116
0.00032189
0.000321754
0.000321543
0.000321442
0.000321231
0.000321152
0.000320936
0.000324349
0.0115341
0.0138739
0.00102406
0.00093317
0.000856699
0.000790845
0.000734041
0.000685509
0.000644183
0.000609128
0.000579203
0.000553634
0.000531536
0.00051243
0.000495673
0.000481023
0.000467993
0.000456495
0.000446136
0.000436929
0.000428537
0.000421041
0.000414134
0.000407942
0.00040218
0.000397004
0.000392137
0.000387764
0.000383611
0.000379887
0.00037631
0.000373111
0.000370007
0.000367245
0.000364532
0.000362132
0.000359745
0.00035765
0.000355541
0.000353706
0.000351833
0.000350221
0.000348549
0.000347127
0.00034563
0.000344371
0.000343026
0.00034191
0.000340697
0.000339706
0.00033861
0.000337728
0.000336735
0.00033595
0.000335048
0.000334348
0.000333529
0.000332906
0.00033216
0.000331606
0.000330924
0.000330433
0.000329811
0.000329371
0.000328807
0.000328411
0.0003279
0.000327543
0.000327081
0.000326759
0.00032634
0.00032605
0.000325669
0.000325409
0.000325069
0.000324841
0.000324522
0.000324304
0.000323995
0.000323786
0.000323489
0.000323292
0.00032301
0.000322826
0.000322561
0.000322392
0.000322146
0.000321991
0.000321765
0.000321629
0.000321417
0.000321315
0.000321105
0.000321025
0.00032081
0.00032424
0.0115644
0.0139228
0.00102406
0.00093317
0.000856702
0.000790853
0.000734049
0.000685514
0.000644182
0.000609117
0.000579184
0.000553606
0.000531499
0.000512385
0.00049562
0.000480963
0.000467927
0.000456422
0.000446058
0.000436845
0.000428449
0.000420948
0.000414038
0.000407842
0.000402076
0.000396897
0.000392028
0.000387652
0.000383496
0.000379769
0.00037619
0.000372989
0.000369884
0.000367119
0.000364405
0.000362003
0.000359615
0.000357518
0.000355408
0.000353572
0.000351697
0.000350084
0.000348411
0.000346988
0.000345489
0.00034423
0.000342883
0.000341767
0.000340553
0.000339561
0.000338464
0.000337582
0.000336588
0.000335802
0.000334899
0.000334199
0.000333379
0.000332756
0.000332009
0.000331454
0.000330772
0.00033028
0.000329658
0.000329217
0.000328653
0.000328257
0.000327745
0.000327388
0.000326925
0.000326603
0.000326183
0.000325893
0.000325512
0.000325252
0.000324911
0.000324683
0.000324363
0.000324145
0.000323836
0.000323627
0.00032333
0.000323132
0.00032285
0.000322666
0.0003224
0.000322231
0.000321984
0.000321829
0.000321603
0.000321466
0.000321254
0.000321152
0.000320941
0.000320861
0.000320645
0.000324098
0.0116036
0.0139858
0.00102406
0.000933169
0.000856707
0.000790862
0.000734059
0.00068552
0.000644179
0.000609105
0.000579161
0.000553572
0.000531453
0.00051233
0.000495555
0.000480889
0.000467845
0.000456332
0.000445962
0.000436743
0.000428341
0.000420835
0.000413919
0.000407719
0.000401949
0.000396765
0.000391893
0.000387513
0.000383354
0.000379625
0.000376043
0.000372839
0.000369731
0.000366965
0.000364248
0.000361844
0.000359454
0.000357355
0.000355244
0.000353406
0.00035153
0.000349915
0.000348241
0.000346816
0.000345317
0.000344056
0.000342708
0.00034159
0.000340376
0.000339383
0.000338285
0.000337402
0.000336406
0.00033562
0.000334716
0.000334016
0.000333195
0.000332571
0.000331823
0.000331268
0.000330585
0.000330092
0.00032947
0.000329028
0.000328464
0.000328067
0.000327554
0.000327196
0.000326734
0.000326411
0.00032599
0.0003257
0.000325318
0.000325058
0.000324717
0.000324488
0.000324168
0.000323949
0.00032364
0.000323431
0.000323133
0.000322935
0.000322652
0.000322468
0.000322202
0.000322032
0.000321784
0.000321629
0.000321402
0.000321265
0.000321053
0.000320951
0.000320739
0.000320659
0.000320443
0.000323924
0.0116523
0.0140638
0.00102406
0.000933168
0.000856712
0.000790874
0.000734071
0.000685527
0.000644177
0.000609091
0.000579133
0.000553531
0.0005314
0.000512264
0.000495478
0.000480801
0.000467748
0.000456226
0.000445847
0.000436621
0.000428212
0.000420699
0.000413778
0.000407572
0.000401797
0.000396609
0.000391732
0.000387349
0.000383186
0.000379453
0.000375867
0.000372661
0.00036955
0.000366781
0.000364061
0.000361655
0.000359263
0.000357162
0.000355048
0.000353208
0.000351331
0.000349714
0.000348038
0.000346612
0.000345111
0.000343848
0.000342499
0.00034138
0.000340165
0.000339171
0.000338071
0.000337187
0.000336191
0.000335403
0.000334499
0.000333797
0.000332975
0.00033235
0.000331601
0.000331046
0.000330362
0.000329869
0.000329245
0.000328803
0.000328238
0.00032784
0.000327327
0.000326969
0.000326505
0.000326182
0.000325761
0.00032547
0.000325087
0.000324827
0.000324485
0.000324256
0.000323935
0.000323716
0.000323406
0.000323197
0.000322898
0.0003227
0.000322416
0.000322232
0.000321965
0.000321795
0.000321547
0.000321391
0.000321164
0.000321027
0.000320814
0.000320711
0.000320498
0.000320418
0.000320201
0.000323717
0.011711
0.0141575
0.00102406
0.000933167
0.000856718
0.000790887
0.000734085
0.000685535
0.000644175
0.000609074
0.000579102
0.000553484
0.000531338
0.000512188
0.000495389
0.0004807
0.000467635
0.000456103
0.000445715
0.000436479
0.000428063
0.000420542
0.000413614
0.000407402
0.000401621
0.000396427
0.000391545
0.000387157
0.00038299
0.000379253
0.000375664
0.000372454
0.000369339
0.000366567
0.000363844
0.000361435
0.00035904
0.000356937
0.000354821
0.000352979
0.000351099
0.00034948
0.000347802
0.000346374
0.000344871
0.000343607
0.000342257
0.000341136
0.000339919
0.000338924
0.000337823
0.000336937
0.00033594
0.000335151
0.000334245
0.000333543
0.00033272
0.000332094
0.000331344
0.000330787
0.000330103
0.000329609
0.000328984
0.000328541
0.000327975
0.000327577
0.000327063
0.000326704
0.00032624
0.000325915
0.000325494
0.000325202
0.000324819
0.000324558
0.000324215
0.000323986
0.000323664
0.000323445
0.000323134
0.000322925
0.000322625
0.000322427
0.000322143
0.000321958
0.00032169
0.00032152
0.000321271
0.000321115
0.000320886
0.000320749
0.000320535
0.000320432
0.000320218
0.000320138
0.000319921
0.000323477
0.0117803
0.0142674
0.00102405
0.000933165
0.000856726
0.000790902
0.000734101
0.000685545
0.000644172
0.000609056
0.000579066
0.000553431
0.000531268
0.000512101
0.000495287
0.000480584
0.000467507
0.000455963
0.000445564
0.000436318
0.000427892
0.000420363
0.000413427
0.000407208
0.00040142
0.00039622
0.000391332
0.000386939
0.000382767
0.000379025
0.000375431
0.000372217
0.000369099
0.000366323
0.000363597
0.000361184
0.000358786
0.00035668
0.000354561
0.000352717
0.000350834
0.000349213
0.000347533
0.000346103
0.000344598
0.000343332
0.00034198
0.000340858
0.000339638
0.000338642
0.000337539
0.000336652
0.000335653
0.000334863
0.000333956
0.000333252
0.000332428
0.000331801
0.00033105
0.000330492
0.000329806
0.000329312
0.000328686
0.000328242
0.000327675
0.000327276
0.000326761
0.000326401
0.000325936
0.000325611
0.000325189
0.000324897
0.000324512
0.000324251
0.000323907
0.000323677
0.000323355
0.000323135
0.000322824
0.000322614
0.000322314
0.000322115
0.00032183
0.000321644
0.000321376
0.000321205
0.000320955
0.000320799
0.000320569
0.000320432
0.000320216
0.000320113
0.000319898
0.000319818
0.0003196
0.000323203
0.0118604
0.0143943
0.00102405
0.000933164
0.000856733
0.000790918
0.00073412
0.000685556
0.00064417
0.000609036
0.000579027
0.000553371
0.000531189
0.000512005
0.000495174
0.000480455
0.000467363
0.000455805
0.000445394
0.000436137
0.000427701
0.000420162
0.000413217
0.00040699
0.000401194
0.000395987
0.000391093
0.000386693
0.000382516
0.000378768
0.00037517
0.000371951
0.000368828
0.000366048
0.000363318
0.000360902
0.000358501
0.000356391
0.000354269
0.000352422
0.000350536
0.000348913
0.00034723
0.000345798
0.00034429
0.000343022
0.000341668
0.000340544
0.000339322
0.000338324
0.00033722
0.000336331
0.00033533
0.000334539
0.00033363
0.000332925
0.0003321
0.000331472
0.000330719
0.00033016
0.000329473
0.000328977
0.00032835
0.000327905
0.000327337
0.000326937
0.000326421
0.00032606
0.000325594
0.000325269
0.000324845
0.000324552
0.000324167
0.000323905
0.000323561
0.00032333
0.000323007
0.000322787
0.000322474
0.000322264
0.000321963
0.000321764
0.000321477
0.000321291
0.000321022
0.000320851
0.0003206
0.000320443
0.000320212
0.000320074
0.000319858
0.000319754
0.000319538
0.000319458
0.000319239
0.000322896
0.0119515
0.0145385
0.00102405
0.000933162
0.000856742
0.000790937
0.000734141
0.000685569
0.000644167
0.000609014
0.000578983
0.000553306
0.000531103
0.000511898
0.000495048
0.000480311
0.000467203
0.000455631
0.000445206
0.000435936
0.000427488
0.000419939
0.000412984
0.000406747
0.000400944
0.000395729
0.000390827
0.00038642
0.000382236
0.000378483
0.000374879
0.000371655
0.000368527
0.000365742
0.000363008
0.000360588
0.000358183
0.00035607
0.000353944
0.000352093
0.000350205
0.000348578
0.000346893
0.000345458
0.000343948
0.000342677
0.00034132
0.000340194
0.000338971
0.00033797
0.000336864
0.000335974
0.000334971
0.000334178
0.000333268
0.000332561
0.000331734
0.000331104
0.00033035
0.00032979
0.000329101
0.000328604
0.000327976
0.00032753
0.00032696
0.00032656
0.000326042
0.000325681
0.000325213
0.000324887
0.000324462
0.000324169
0.000323782
0.00032352
0.000323174
0.000322943
0.000322619
0.000322398
0.000322085
0.000321874
0.000321572
0.000321372
0.000321085
0.000320898
0.000320628
0.000320456
0.000320204
0.000320046
0.000319815
0.000319676
0.000319458
0.000319354
0.000319136
0.000319057
0.000318837
0.000322554
0.0120536
0.0147004
0.00102405
0.00093316
0.000856752
0.000790958
0.000734164
0.000685583
0.000644165
0.00060899
0.000578936
0.000553234
0.000531008
0.00051178
0.00049491
0.000480154
0.000467028
0.000455439
0.000444999
0.000435715
0.000427254
0.000419693
0.000412727
0.00040648
0.000400667
0.000395444
0.000390534
0.00038612
0.000381928
0.000378168
0.000374558
0.000371328
0.000368195
0.000365405
0.000362666
0.000360242
0.000357832
0.000355715
0.000353586
0.000351731
0.000349839
0.00034821
0.000346521
0.000345083
0.00034357
0.000342297
0.000340937
0.000339809
0.000338583
0.00033758
0.000336472
0.00033558
0.000334575
0.00033378
0.000332868
0.000332159
0.00033133
0.000330699
0.000329943
0.000329382
0.000328691
0.000328193
0.000327563
0.000327116
0.000326545
0.000326143
0.000325624
0.000325262
0.000324793
0.000324466
0.00032404
0.000323746
0.000323358
0.000323095
0.000322748
0.000322516
0.000322191
0.000321969
0.000321655
0.000321443
0.00032114
0.00032094
0.000320652
0.000320464
0.000320193
0.00032002
0.000319767
0.000319609
0.000319376
0.000319237
0.000319018
0.000318912
0.000318693
0.000318614
0.000318394
0.000322179
0.0121665
0.0148802
0.00102404
0.000933158
0.000856762
0.00079098
0.000734189
0.000685599
0.000644164
0.000608965
0.000578885
0.000553157
0.000530905
0.000511653
0.00049476
0.000479982
0.000466837
0.00045523
0.000444773
0.000435474
0.000426999
0.000419425
0.000412447
0.000406189
0.000400366
0.000395132
0.000390213
0.000385791
0.000381592
0.000377825
0.000374208
0.000370972
0.000367832
0.000365037
0.000362293
0.000359863
0.000357449
0.000355327
0.000353193
0.000351335
0.000349439
0.000347806
0.000346114
0.000344673
0.000343157
0.000341881
0.000340518
0.000339387
0.000338158
0.000337154
0.000336042
0.000335148
0.000334141
0.000333344
0.00033243
0.000331719
0.000330888
0.000330256
0.000329498
0.000328935
0.000328243
0.000327743
0.000327111
0.000326663
0.00032609
0.000325687
0.000325167
0.000324803
0.000324333
0.000324005
0.000323578
0.000323282
0.000322893
0.000322629
0.000322281
0.000322049
0.000321722
0.0003215
0.000321184
0.000320972
0.000320668
0.000320467
0.000320177
0.000319989
0.000319717
0.000319543
0.000319289
0.00031913
0.000318895
0.000318755
0.000318535
0.000318429
0.000318208
0.000318129
0.000317908
0.000321769
0.0122897
0.0150781
0.00102404
0.000933155
0.000856773
0.000791005
0.000734217
0.000685618
0.000644163
0.000608939
0.000578831
0.000553074
0.000530795
0.000511516
0.000494598
0.000479797
0.00046663
0.000455003
0.000444529
0.000435213
0.000426723
0.000419134
0.000412143
0.000405873
0.000400038
0.000394794
0.000389866
0.000385434
0.000381227
0.000377451
0.000373827
0.000370584
0.000367438
0.000364637
0.000361887
0.000359452
0.000357032
0.000354906
0.000352767
0.000350905
0.000349005
0.000347367
0.000345671
0.000344227
0.000342707
0.000341428
0.000340062
0.000338928
0.000337697
0.000336689
0.000335575
0.000334679
0.000333669
0.00033287
0.000331953
0.000331241
0.000330408
0.000329773
0.000329013
0.000328449
0.000327755
0.000327253
0.00032662
0.00032617
0.000325596
0.000325191
0.000324669
0.000324305
0.000323833
0.000323504
0.000323075
0.000322778
0.000322388
0.000322123
0.000321774
0.00032154
0.000321212
0.000320989
0.000320672
0.000320459
0.000320154
0.000319952
0.000319661
0.000319472
0.000319198
0.000319024
0.000318768
0.000318609
0.000318373
0.000318232
0.00031801
0.000317903
0.000317681
0.000317601
0.00031738
0.000321324
0.0124224
0.015294
0.00102404
0.000933152
0.000856785
0.000791031
0.000734247
0.000685638
0.000644163
0.000608911
0.000578774
0.000552986
0.000530676
0.000511369
0.000494424
0.000479598
0.000466408
0.00045476
0.000444266
0.000434931
0.000426425
0.00041882
0.000411815
0.000405531
0.000399685
0.000394429
0.00038949
0.000385049
0.000380832
0.000377048
0.000373416
0.000370165
0.000367013
0.000364204
0.000361448
0.000359007
0.000356582
0.00035445
0.000352307
0.00035044
0.000348535
0.000346893
0.000345193
0.000343745
0.000342221
0.000340939
0.00033957
0.000338433
0.000337198
0.000336188
0.000335071
0.000334172
0.000333159
0.000332358
0.000331438
0.000330724
0.000329888
0.000329252
0.00032849
0.000327923
0.000327227
0.000326724
0.000326089
0.000325637
0.000325061
0.000324655
0.000324131
0.000323765
0.000323292
0.000322961
0.000322531
0.000322233
0.000321841
0.000321575
0.000321224
0.00032099
0.000320661
0.000320437
0.000320119
0.000319905
0.000319598
0.000319395
0.000319103
0.000318913
0.000318638
0.000318463
0.000318205
0.000318045
0.000317807
0.000317666
0.000317441
0.000317334
0.00031711
0.00031703
0.000316808
0.000320843
0.0125637
0.0155278
0.00102403
0.000933149
0.000856798
0.00079106
0.00073428
0.00068566
0.000644164
0.000608883
0.000578714
0.000552892
0.00053055
0.000511212
0.000494238
0.000479385
0.000466171
0.000454499
0.000443984
0.00043463
0.000426105
0.000418484
0.000411464
0.000405165
0.000399306
0.000394038
0.000389088
0.000384635
0.000380409
0.000376615
0.000372975
0.000369716
0.000366555
0.00036374
0.000360977
0.000358529
0.000356098
0.000353961
0.000351812
0.000349939
0.00034803
0.000346384
0.000344679
0.000343227
0.000341699
0.000340413
0.00033904
0.000337899
0.000336661
0.000335648
0.000334528
0.000333626
0.00033261
0.000331807
0.000330884
0.000330168
0.000329329
0.000328691
0.000327926
0.000327358
0.000326659
0.000326154
0.000325517
0.000325064
0.000324486
0.000324078
0.000323552
0.000323185
0.000322709
0.000322378
0.000321945
0.000321647
0.000321253
0.000320986
0.000320633
0.000320398
0.000320067
0.000319842
0.000319523
0.000319308
0.000319
0.000318796
0.000318502
0.000318312
0.000318034
0.000317858
0.000317599
0.000317438
0.000317198
0.000317056
0.00031683
0.000316721
0.000316495
0.000316416
0.000316193
0.000320326
0.0127122
0.0157792
0.00102403
0.000933146
0.000856811
0.00079109
0.000734316
0.000685685
0.000644165
0.000608854
0.00057865
0.000552794
0.000530417
0.000511045
0.000494041
0.000479159
0.000465918
0.000454221
0.000443683
0.000434308
0.000425764
0.000418125
0.000411088
0.000404774
0.0003989
0.000393619
0.000388657
0.000384193
0.000379956
0.000376152
0.000372502
0.000369234
0.000366066
0.000363243
0.000360472
0.000358018
0.00035558
0.000353437
0.000351282
0.000349404
0.000347489
0.000345838
0.000344129
0.000342672
0.00034114
0.00033985
0.000338472
0.000337328
0.000336086
0.00033507
0.000333946
0.000333041
0.000332022
0.000331216
0.000330291
0.000329572
0.00032873
0.00032809
0.000327322
0.000326752
0.000326051
0.000325544
0.000324904
0.000324449
0.000323869
0.00032346
0.000322932
0.000322563
0.000322085
0.000321752
0.000321318
0.000321018
0.000320623
0.000320354
0.00032
0.000319763
0.000319431
0.000319205
0.000318884
0.000318668
0.000318358
0.000318154
0.000317858
0.000317667
0.000317388
0.000317211
0.00031695
0.000316787
0.000316546
0.000316403
0.000316175
0.000316065
0.000315837
0.000315757
0.000315534
0.000319773
0.012866
0.0160475
0.00102403
0.000933142
0.000856825
0.000791123
0.000734354
0.000685712
0.000644169
0.000608824
0.000578585
0.00055269
0.000530277
0.00051087
0.000493832
0.000478919
0.00046565
0.000453926
0.000443364
0.000433966
0.000425402
0.000417743
0.000410689
0.000404358
0.000398469
0.000393174
0.000388198
0.000383722
0.000379474
0.000375659
0.000371999
0.000368722
0.000365545
0.000362713
0.000359934
0.000357473
0.000355028
0.000352878
0.000350717
0.000348833
0.000346913
0.000345256
0.000343541
0.00034208
0.000340543
0.000339249
0.000337867
0.000336719
0.000335473
0.000334453
0.000333326
0.000332418
0.000331395
0.000330586
0.000329658
0.000328936
0.000328092
0.000327448
0.000326678
0.000326105
0.000325402
0.000324893
0.000324251
0.000323794
0.000323211
0.0003228
0.00032227
0.000321899
0.00032142
0.000321085
0.000320648
0.000320347
0.00031995
0.00031968
0.000319324
0.000319086
0.000318752
0.000318525
0.000318202
0.000317985
0.000317674
0.000317468
0.000317171
0.000316978
0.000316697
0.000316519
0.000316256
0.000316093
0.000315849
0.000315706
0.000315475
0.000315364
0.000315134
0.000315054
0.000314831
0.000319183
0.0130229
0.0163319
0.00102402
0.000933138
0.00085684
0.000791158
0.000734395
0.000685742
0.000644173
0.000608794
0.000578516
0.000552582
0.00053013
0.000510685
0.000493613
0.000478666
0.000465366
0.000453615
0.000443027
0.000433604
0.000425018
0.000417339
0.000410266
0.000403918
0.000398012
0.000392701
0.000387712
0.000383223
0.000378962
0.000375136
0.000371465
0.000368178
0.000364991
0.00036215
0.000359364
0.000356894
0.000354442
0.000352285
0.000350117
0.000348227
0.0003463
0.000344638
0.000342918
0.000341451
0.000339909
0.00033861
0.000337224
0.000336072
0.000334821
0.000333798
0.000332666
0.000331755
0.000330729
0.000329916
0.000328984
0.00032826
0.000327412
0.000326767
0.000325993
0.000325418
0.000324711
0.0003242
0.000323555
0.000323096
0.000322511
0.000322098
0.000321566
0.000321193
0.000320711
0.000320375
0.000319936
0.000319634
0.000319234
0.000318963
0.000318605
0.000318366
0.00031803
0.000317802
0.000317477
0.000317259
0.000316946
0.000316739
0.000316439
0.000316246
0.000315963
0.000315784
0.000315519
0.000315355
0.000315108
0.000314964
0.000314731
0.000314619
0.000314386
0.000314306
0.000314083
0.000318555
0.0131805
0.0166313
0.00102402
0.000933134
0.000856856
0.000791194
0.000734439
0.000685774
0.000644179
0.000608764
0.000578446
0.000552469
0.000529976
0.000510491
0.000493382
0.0004784
0.000465068
0.000453286
0.000442671
0.000433223
0.000424613
0.000416912
0.000409819
0.000403452
0.000397529
0.000392202
0.000387198
0.000382694
0.000378421
0.000374582
0.0003709
0.000367602
0.000364405
0.000361555
0.000358759
0.000356281
0.000353821
0.000351657
0.000349481
0.000347584
0.000345651
0.000343983
0.000342257
0.000340785
0.000339237
0.000337934
0.000336542
0.000335386
0.000334131
0.000333103
0.000331967
0.000331052
0.000330022
0.000329207
0.000328271
0.000327543
0.000326692
0.000326044
0.000325267
0.000324689
0.00032398
0.000323466
0.000322818
0.000322357
0.000321769
0.000321354
0.000320819
0.000320444
0.00031996
0.000319622
0.000319181
0.000318877
0.000318475
0.000318202
0.000317842
0.000317602
0.000317264
0.000317035
0.000316708
0.000316489
0.000316173
0.000315965
0.000315664
0.000315469
0.000315184
0.000315004
0.000314737
0.000314571
0.000314323
0.000314177
0.000313942
0.000313829
0.000313593
0.000313513
0.000313289
0.000317889
0.0133355
0.016944
0.00102402
0.000933129
0.000856872
0.000791233
0.000734486
0.000685809
0.000644187
0.000608735
0.000578374
0.000552353
0.000529816
0.000510289
0.00049314
0.000478121
0.000464755
0.000452942
0.000442297
0.000432822
0.000424187
0.000416463
0.000409348
0.000402961
0.00039702
0.000391676
0.000386656
0.000382137
0.00037785
0.000373999
0.000370304
0.000366994
0.000363787
0.000360927
0.000358121
0.000355634
0.000353166
0.000350993
0.00034881
0.000346906
0.000344966
0.000343292
0.000341559
0.000340081
0.000338528
0.000337219
0.000335822
0.000334661
0.000333401
0.000332369
0.000331229
0.00033031
0.000329276
0.000328457
0.000327517
0.000326786
0.000325931
0.00032528
0.0003245
0.000323919
0.000323206
0.00032269
0.000322039
0.000321576
0.000320985
0.000320567
0.00032003
0.000319653
0.000319167
0.000318827
0.000318383
0.000318077
0.000317673
0.000317399
0.000317036
0.000316795
0.000316455
0.000316224
0.000315895
0.000315675
0.000315357
0.000315148
0.000314844
0.000314648
0.000314361
0.00031418
0.00031391
0.000313743
0.000313492
0.000313346
0.000313107
0.000312993
0.000312754
0.000312675
0.000312451
0.000317183
0.0134847
0.0172682
0.00102401
0.000933124
0.000856888
0.000791274
0.000734536
0.000685847
0.000644198
0.000608705
0.0005783
0.000552232
0.00052965
0.000510079
0.000492889
0.00047783
0.000464428
0.000452581
0.000441906
0.000432401
0.000423741
0.000415991
0.000408854
0.000402446
0.000396486
0.000391123
0.000386086
0.000381552
0.00037725
0.000373384
0.000369677
0.000366355
0.000363136
0.000360265
0.00035745
0.000354953
0.000352476
0.000350295
0.000348104
0.000346192
0.000344244
0.000342563
0.000340824
0.00033934
0.000337781
0.000336466
0.000335064
0.000333898
0.000332633
0.000331596
0.000330451
0.000329528
0.000328489
0.000327666
0.000326722
0.000325988
0.000325129
0.000324475
0.000323691
0.000323108
0.000322391
0.000321872
0.000321218
0.000320752
0.000320158
0.000319738
0.000319198
0.000318819
0.00031833
0.000317988
0.000317542
0.000317234
0.000316827
0.000316551
0.000316187
0.000315944
0.000315601
0.000315369
0.000315038
0.000314816
0.000314496
0.000314286
0.00031398
0.000313783
0.000313493
0.00031331
0.000313038
0.00031287
0.000312616
0.000312469
0.000312227
0.000312112
0.00031187
0.00031179
0.000311566
0.000316437
0.013624
0.0176014
0.00102401
0.000933118
0.000856906
0.000791316
0.000734589
0.000685889
0.00064421
0.000608677
0.000578225
0.000552109
0.000529479
0.00050986
0.000492627
0.000477527
0.000464087
0.000452204
0.000441496
0.000431962
0.000423273
0.000415498
0.000408337
0.000401906
0.000395926
0.000390543
0.000385489
0.000380938
0.00037662
0.00037274
0.000369019
0.000365685
0.000362453
0.000359571
0.000356745
0.000354238
0.000351751
0.000349561
0.000347361
0.000345442
0.000343486
0.000341798
0.000340051
0.000338561
0.000336995
0.000335675
0.000334267
0.000333095
0.000331825
0.000330783
0.000329633
0.000328706
0.000327662
0.000326835
0.000325887
0.000325149
0.000324286
0.000323628
0.00032284
0.000322254
0.000321534
0.000321012
0.000320355
0.000319886
0.000319289
0.000318866
0.000318323
0.000317942
0.000317449
0.000317105
0.000316657
0.000316347
0.000315937
0.00031566
0.000315293
0.000315048
0.000314703
0.00031447
0.000314136
0.000313913
0.00031359
0.000313379
0.00031307
0.000312872
0.000312579
0.000312395
0.00031212
0.000311951
0.000311694
0.000311546
0.000311301
0.000311184
0.000310939
0.00031086
0.000310636
0.000315649
0.013749
0.0179405
0.001024
0.000933112
0.000856923
0.000791361
0.000734646
0.000685933
0.000644225
0.000608649
0.00057815
0.000551982
0.000529302
0.000509634
0.000492355
0.000477212
0.000463733
0.000451812
0.00044107
0.000431503
0.000422786
0.000414982
0.000407797
0.000401342
0.00039534
0.000389937
0.000384864
0.000380295
0.000375961
0.000372066
0.000368331
0.000364982
0.000361738
0.000358844
0.000356007
0.000353489
0.000350992
0.000348793
0.000346584
0.000344656
0.000342692
0.000340996
0.000339242
0.000337744
0.000336172
0.000334845
0.000333431
0.000332254
0.000330977
0.000329931
0.000328775
0.000327843
0.000326795
0.000325963
0.00032501
0.000324269
0.000323401
0.00032274
0.000321948
0.000321358
0.000320634
0.000320109
0.000319449
0.000318977
0.000318376
0.000317951
0.000317405
0.000317021
0.000316526
0.00031618
0.000315728
0.000315416
0.000315004
0.000314724
0.000314354
0.000314108
0.00031376
0.000313526
0.000313189
0.000312965
0.00031264
0.000312427
0.000312116
0.000311916
0.000311621
0.000311435
0.000311157
0.000310987
0.000310727
0.000310577
0.000310329
0.000310211
0.000309963
0.000309883
0.000309659
0.000314818
0.0138552
0.018282
0.001024
0.000933105
0.000856941
0.000791408
0.000734705
0.000685981
0.000644243
0.000608623
0.000578073
0.000551852
0.00052912
0.000509401
0.000492074
0.000476886
0.000463365
0.000451404
0.000440627
0.000431026
0.000422278
0.000414446
0.000407234
0.000400754
0.000394729
0.000389305
0.000384212
0.000379624
0.000375273
0.000371361
0.000367611
0.000364249
0.000360991
0.000358084
0.000355235
0.000352707
0.000350199
0.000347989
0.00034577
0.000343833
0.000341861
0.000340157
0.000338395
0.00033689
0.000335311
0.000333977
0.000332556
0.000331373
0.000330091
0.000329039
0.000327877
0.000326941
0.000325887
0.000325051
0.000324093
0.000323347
0.000322475
0.00032181
0.000321014
0.000320421
0.000319693
0.000319164
0.0003185
0.000318025
0.000317421