/*--------------------------------*- C++ -*----------------------------------*\
| =========                 |                                                 |
| \\      /  F ield         | OpenFOAM: The Open Source CFD Toolbox           |
|  \\    /   O peration     | Version:  v2012                                 |
|   \\  /    A nd           | Website:  www.openfoam.com                      |
|    \\/     M anipulation  |                                                 |
\*---------------------------------------------------------------------------*/
FoamFile
{
    version     2.0;
    format      ascii;
    class       volVectorField;
    location    "49.5";
    object      wallShearStress;
}
// * * * * * * * * * * * * * * * * * * * * * * * * * * * * * * * * * * * * * //

dimensions      [0 2 -2 0 0 0 0];


internalField   uniform (0 0 0);

boundaryField
{
    inlet
    {
        type            calculated;
        value           uniform (0 0 0);
    }
    outlet
    {
        type            calculated;
        value           uniform (0 0 0);
    }
    topWall
    {
        type            calculated;
        value           nonuniform List<vector> 
545
(
(6.90569e-08 -4.86082e-08 0)
(6.90389e-08 -1.35989e-07 0)
(6.89933e-08 -2.26845e-07 0)
(6.89308e-08 -3.15061e-07 0)
(6.88549e-08 -3.99512e-07 0)
(6.87657e-08 -4.81283e-07 0)
(6.8664e-08 -5.61068e-07 0)
(6.85506e-08 -6.3883e-07 0)
(6.84266e-08 -7.14398e-07 0)
(6.82929e-08 -7.87771e-07 0)
(6.81505e-08 -8.59044e-07 0)
(6.80002e-08 -9.283e-07 0)
(6.78427e-08 -9.95586e-07 0)
(6.76789e-08 -1.06094e-06 0)
(6.75094e-08 -1.12442e-06 0)
(6.73349e-08 -1.18606e-06 0)
(6.7156e-08 -1.24591e-06 0)
(6.69733e-08 -1.30404e-06 0)
(6.67873e-08 -1.36047e-06 0)
(6.65986e-08 -1.41526e-06 0)
(6.64076e-08 -1.46846e-06 0)
(6.62147e-08 -1.5201e-06 0)
(6.60204e-08 -1.57024e-06 0)
(6.5825e-08 -1.6189e-06 0)
(6.56289e-08 -1.66615e-06 0)
(6.54325e-08 -1.71201e-06 0)
(6.5236e-08 -1.75653e-06 0)
(6.50397e-08 -1.79974e-06 0)
(6.48438e-08 -1.84169e-06 0)
(6.46487e-08 -1.8824e-06 0)
(6.44545e-08 -1.92193e-06 0)
(6.42614e-08 -1.9603e-06 0)
(6.40696e-08 -1.99754e-06 0)
(6.38794e-08 -2.03369e-06 0)
(6.36907e-08 -2.06879e-06 0)
(6.35039e-08 -2.10286e-06 0)
(6.33189e-08 -2.13593e-06 0)
(6.3136e-08 -2.16804e-06 0)
(6.29551e-08 -2.19921e-06 0)
(6.27765e-08 -2.22948e-06 0)
(6.26002e-08 -2.25886e-06 0)
(6.24262e-08 -2.28739e-06 0)
(6.22547e-08 -2.31509e-06 0)
(6.20856e-08 -2.34198e-06 0)
(6.19191e-08 -2.3681e-06 0)
(6.17551e-08 -2.39346e-06 0)
(6.15937e-08 -2.41808e-06 0)
(6.1435e-08 -2.442e-06 0)
(6.12788e-08 -2.46522e-06 0)
(6.11253e-08 -2.48777e-06 0)
(6.09745e-08 -2.50968e-06 0)
(6.08263e-08 -2.53095e-06 0)
(6.06808e-08 -2.55162e-06 0)
(6.0538e-08 -2.57169e-06 0)
(6.03978e-08 -2.59118e-06 0)
(6.02602e-08 -2.61012e-06 0)
(6.01253e-08 -2.62852e-06 0)
(5.9993e-08 -2.64639e-06 0)
(5.98632e-08 -2.66376e-06 0)
(5.9736e-08 -2.68062e-06 0)
(5.96114e-08 -2.69701e-06 0)
(5.94893e-08 -2.71294e-06 0)
(5.93697e-08 -2.72841e-06 0)
(5.92525e-08 -2.74345e-06 0)
(5.91378e-08 -2.75806e-06 0)
(5.90254e-08 -2.77226e-06 0)
(5.89154e-08 -2.78605e-06 0)
(5.88078e-08 -2.79946e-06 0)
(5.87024e-08 -2.8125e-06 0)
(5.85993e-08 -2.82516e-06 0)
(5.84985e-08 -2.83747e-06 0)
(5.83998e-08 -2.84942e-06 0)
(5.8304e-08 -2.86092e-06 0)
(5.82109e-08 -2.87208e-06 0)
(5.81188e-08 -2.88311e-06 0)
(5.80269e-08 -2.89408e-06 0)
(5.79351e-08 -2.90501e-06 0)
(5.78434e-08 -2.91587e-06 0)
(5.77518e-08 -2.92666e-06 0)
(5.76603e-08 -2.93739e-06 0)
(5.75689e-08 -2.94804e-06 0)
(5.74776e-08 -2.95863e-06 0)
(5.73864e-08 -2.96916e-06 0)
(5.72953e-08 -2.97962e-06 0)
(5.72043e-08 -2.99002e-06 0)
(5.71134e-08 -3.00035e-06 0)
(5.70227e-08 -3.01062e-06 0)
(5.6932e-08 -3.02083e-06 0)
(5.68415e-08 -3.03098e-06 0)
(5.67511e-08 -3.04106e-06 0)
(5.66608e-08 -3.05108e-06 0)
(5.65707e-08 -3.06103e-06 0)
(5.64807e-08 -3.07093e-06 0)
(5.63907e-08 -3.08076e-06 0)
(5.63015e-08 -3.09056e-06 0)
(5.6211e-08 -3.10018e-06 0)
(5.6124e-08 -3.10898e-06 0)
(5.60463e-08 -3.11699e-06 0)
(5.59726e-08 -3.12477e-06 0)
(5.5899e-08 -3.13257e-06 0)
(5.58252e-08 -3.14045e-06 0)
(5.57511e-08 -3.14835e-06 0)
(5.56767e-08 -3.15625e-06 0)
(5.5602e-08 -3.16414e-06 0)
(5.55269e-08 -3.17205e-06 0)
(5.54514e-08 -3.17996e-06 0)
(5.53756e-08 -3.18788e-06 0)
(5.52995e-08 -3.19581e-06 0)
(5.52229e-08 -3.20375e-06 0)
(5.51461e-08 -3.2117e-06 0)
(5.50688e-08 -3.21965e-06 0)
(5.49912e-08 -3.22761e-06 0)
(5.49133e-08 -3.23558e-06 0)
(5.4835e-08 -3.24355e-06 0)
(5.47563e-08 -3.25154e-06 0)
(5.46773e-08 -3.25953e-06 0)
(5.45979e-08 -3.26752e-06 0)
(5.45181e-08 -3.27553e-06 0)
(5.4438e-08 -3.28354e-06 0)
(5.43575e-08 -3.29156e-06 0)
(5.42767e-08 -3.29958e-06 0)
(5.41954e-08 -3.30762e-06 0)
(5.41138e-08 -3.31566e-06 0)
(5.40319e-08 -3.3237e-06 0)
(5.39496e-08 -3.33176e-06 0)
(5.38669e-08 -3.33982e-06 0)
(5.37838e-08 -3.34788e-06 0)
(5.37004e-08 -3.35596e-06 0)
(5.36165e-08 -3.36403e-06 0)
(5.35323e-08 -3.37212e-06 0)
(5.34478e-08 -3.38021e-06 0)
(5.33628e-08 -3.38831e-06 0)
(5.32775e-08 -3.39641e-06 0)
(5.31918e-08 -3.40453e-06 0)
(5.31057e-08 -3.41264e-06 0)
(5.30193e-08 -3.42076e-06 0)
(5.29324e-08 -3.42889e-06 0)
(5.28452e-08 -3.43703e-06 0)
(5.27576e-08 -3.44517e-06 0)
(5.26696e-08 -3.45331e-06 0)
(5.25812e-08 -3.46146e-06 0)
(5.24925e-08 -3.46962e-06 0)
(5.24033e-08 -3.47778e-06 0)
(5.23138e-08 -3.48595e-06 0)
(5.22239e-08 -3.49412e-06 0)
(5.21336e-08 -3.5023e-06 0)
(5.20429e-08 -3.51048e-06 0)
(5.19518e-08 -3.51867e-06 0)
(5.18603e-08 -3.52686e-06 0)
(5.17685e-08 -3.53506e-06 0)
(5.16762e-08 -3.54326e-06 0)
(5.15836e-08 -3.55147e-06 0)
(5.14905e-08 -3.55968e-06 0)
(5.13971e-08 -3.56789e-06 0)
(5.13032e-08 -3.57611e-06 0)
(5.1209e-08 -3.58434e-06 0)
(5.11144e-08 -3.59257e-06 0)
(5.10194e-08 -3.6008e-06 0)
(5.09239e-08 -3.60904e-06 0)
(5.08281e-08 -3.61728e-06 0)
(5.07319e-08 -3.62552e-06 0)
(5.06353e-08 -3.63377e-06 0)
(5.05383e-08 -3.64202e-06 0)
(5.04409e-08 -3.65028e-06 0)
(5.0343e-08 -3.65854e-06 0)
(5.02448e-08 -3.6668e-06 0)
(5.01462e-08 -3.67506e-06 0)
(5.00472e-08 -3.68333e-06 0)
(4.99477e-08 -3.6916e-06 0)
(4.98479e-08 -3.69988e-06 0)
(4.97477e-08 -3.70816e-06 0)
(4.9647e-08 -3.71644e-06 0)
(4.9546e-08 -3.72472e-06 0)
(4.94445e-08 -3.73301e-06 0)
(4.93427e-08 -3.74129e-06 0)
(4.92404e-08 -3.74959e-06 0)
(4.91377e-08 -3.75788e-06 0)
(4.90346e-08 -3.76617e-06 0)
(4.89311e-08 -3.77447e-06 0)
(4.88272e-08 -3.78277e-06 0)
(4.87229e-08 -3.79107e-06 0)
(4.86182e-08 -3.79937e-06 0)
(4.85131e-08 -3.80768e-06 0)
(4.84075e-08 -3.81598e-06 0)
(4.83016e-08 -3.82429e-06 0)
(4.81952e-08 -3.8326e-06 0)
(4.80885e-08 -3.84091e-06 0)
(4.79813e-08 -3.84922e-06 0)
(4.78737e-08 -3.85753e-06 0)
(4.77657e-08 -3.86585e-06 0)
(4.76573e-08 -3.87416e-06 0)
(4.75484e-08 -3.88247e-06 0)
(4.74392e-08 -3.89079e-06 0)
(4.73296e-08 -3.8991e-06 0)
(4.72195e-08 -3.90742e-06 0)
(4.7109e-08 -3.91573e-06 0)
(4.69981e-08 -3.92405e-06 0)
(4.68868e-08 -3.93236e-06 0)
(4.67751e-08 -3.94068e-06 0)
(4.6663e-08 -3.94899e-06 0)
(4.65505e-08 -3.95731e-06 0)
(4.64375e-08 -3.96562e-06 0)
(4.63242e-08 -3.97394e-06 0)
(4.62104e-08 -3.98225e-06 0)
(4.60962e-08 -3.99056e-06 0)
(4.59816e-08 -3.99887e-06 0)
(4.58666e-08 -4.00718e-06 0)
(4.57512e-08 -4.01549e-06 0)
(4.56353e-08 -4.02379e-06 0)
(4.55191e-08 -4.0321e-06 0)
(4.54024e-08 -4.0404e-06 0)
(4.52854e-08 -4.0487e-06 0)
(4.51679e-08 -4.057e-06 0)
(4.505e-08 -4.0653e-06 0)
(4.49317e-08 -4.07359e-06 0)
(4.4813e-08 -4.08189e-06 0)
(4.46939e-08 -4.09018e-06 0)
(4.45744e-08 -4.09847e-06 0)
(4.44544e-08 -4.10675e-06 0)
(4.43341e-08 -4.11503e-06 0)
(4.42134e-08 -4.12331e-06 0)
(4.40922e-08 -4.13159e-06 0)
(4.39706e-08 -4.13986e-06 0)
(4.38487e-08 -4.14813e-06 0)
(4.37263e-08 -4.15639e-06 0)
(4.36035e-08 -4.16466e-06 0)
(4.34803e-08 -4.17291e-06 0)
(4.33568e-08 -4.18117e-06 0)
(4.32328e-08 -4.18942e-06 0)
(4.31084e-08 -4.19766e-06 0)
(4.29836e-08 -4.20591e-06 0)
(4.28584e-08 -4.21414e-06 0)
(4.27328e-08 -4.22237e-06 0)
(4.26068e-08 -4.2306e-06 0)
(4.24804e-08 -4.23882e-06 0)
(4.23536e-08 -4.24704e-06 0)
(4.22265e-08 -4.25525e-06 0)
(4.20989e-08 -4.26346e-06 0)
(4.19709e-08 -4.27166e-06 0)
(4.18425e-08 -4.27985e-06 0)
(4.17138e-08 -4.28804e-06 0)
(4.15846e-08 -4.29623e-06 0)
(4.14551e-08 -4.3044e-06 0)
(4.13251e-08 -4.31257e-06 0)
(4.11948e-08 -4.32074e-06 0)
(4.10641e-08 -4.32889e-06 0)
(4.0933e-08 -4.33704e-06 0)
(4.08015e-08 -4.34519e-06 0)
(4.06697e-08 -4.35332e-06 0)
(4.05374e-08 -4.36145e-06 0)
(4.04048e-08 -4.36958e-06 0)
(4.02718e-08 -4.37769e-06 0)
(4.01384e-08 -4.3858e-06 0)
(4.00046e-08 -4.39389e-06 0)
(3.98705e-08 -4.40198e-06 0)
(3.9736e-08 -4.41007e-06 0)
(3.96011e-08 -4.41814e-06 0)
(3.94658e-08 -4.42621e-06 0)
(3.93302e-08 -4.43426e-06 0)
(3.91942e-08 -4.44231e-06 0)
(3.90578e-08 -4.45035e-06 0)
(3.89211e-08 -4.45838e-06 0)
(3.8784e-08 -4.4664e-06 0)
(3.86466e-08 -4.47441e-06 0)
(3.85087e-08 -4.48241e-06 0)
(3.83706e-08 -4.4904e-06 0)
(3.82321e-08 -4.49838e-06 0)
(3.80937e-08 -4.50637e-06 0)
(3.79559e-08 -4.51427e-06 0)
(3.78191e-08 -4.52179e-06 0)
(3.76886e-08 -4.52897e-06 0)
(3.75628e-08 -4.53607e-06 0)
(3.74356e-08 -4.54322e-06 0)
(3.73073e-08 -4.55047e-06 0)
(3.71776e-08 -4.55778e-06 0)
(3.70465e-08 -4.56513e-06 0)
(3.69139e-08 -4.57254e-06 0)
(3.67799e-08 -4.57999e-06 0)
(3.66444e-08 -4.58751e-06 0)
(3.65074e-08 -4.59507e-06 0)
(3.63689e-08 -4.60269e-06 0)
(3.62289e-08 -4.61036e-06 0)
(3.60873e-08 -4.61809e-06 0)
(3.59442e-08 -4.62587e-06 0)
(3.57996e-08 -4.6337e-06 0)
(3.56534e-08 -4.64159e-06 0)
(3.55057e-08 -4.64952e-06 0)
(3.53563e-08 -4.65751e-06 0)
(3.52054e-08 -4.66556e-06 0)
(3.50528e-08 -4.67365e-06 0)
(3.48986e-08 -4.6818e-06 0)
(3.47428e-08 -4.69e-06 0)
(3.45853e-08 -4.69825e-06 0)
(3.44261e-08 -4.70655e-06 0)
(3.42653e-08 -4.71491e-06 0)
(3.41028e-08 -4.72331e-06 0)
(3.39385e-08 -4.73177e-06 0)
(3.37726e-08 -4.74028e-06 0)
(3.36049e-08 -4.74883e-06 0)
(3.34355e-08 -4.75744e-06 0)
(3.32644e-08 -4.76609e-06 0)
(3.30915e-08 -4.7748e-06 0)
(3.29168e-08 -4.78355e-06 0)
(3.27403e-08 -4.79235e-06 0)
(3.2562e-08 -4.8012e-06 0)
(3.23819e-08 -4.8101e-06 0)
(3.22e-08 -4.81904e-06 0)
(3.20163e-08 -4.82802e-06 0)
(3.18307e-08 -4.83706e-06 0)
(3.16433e-08 -4.84614e-06 0)
(3.1454e-08 -4.85526e-06 0)
(3.12629e-08 -4.86442e-06 0)
(3.10699e-08 -4.87363e-06 0)
(3.0875e-08 -4.88288e-06 0)
(3.06782e-08 -4.89217e-06 0)
(3.04795e-08 -4.90151e-06 0)
(3.02789e-08 -4.91088e-06 0)
(3.00764e-08 -4.92029e-06 0)
(2.98719e-08 -4.92974e-06 0)
(2.96655e-08 -4.93922e-06 0)
(2.94572e-08 -4.94874e-06 0)
(2.9247e-08 -4.9583e-06 0)
(2.90347e-08 -4.96789e-06 0)
(2.88206e-08 -4.97752e-06 0)
(2.86045e-08 -4.98718e-06 0)
(2.83864e-08 -4.99687e-06 0)
(2.81664e-08 -5.00658e-06 0)
(2.79444e-08 -5.01633e-06 0)
(2.77204e-08 -5.0261e-06 0)
(2.74945e-08 -5.03591e-06 0)
(2.72666e-08 -5.04573e-06 0)
(2.70368e-08 -5.05558e-06 0)
(2.68049e-08 -5.06545e-06 0)
(2.65712e-08 -5.07534e-06 0)
(2.63354e-08 -5.08525e-06 0)
(2.60977e-08 -5.09519e-06 0)
(2.5858e-08 -5.10513e-06 0)
(2.56164e-08 -5.11509e-06 0)
(2.53729e-08 -5.12506e-06 0)
(2.51274e-08 -5.13505e-06 0)
(2.48799e-08 -5.14505e-06 0)
(2.46306e-08 -5.15505e-06 0)
(2.43793e-08 -5.16506e-06 0)
(2.41262e-08 -5.17508e-06 0)
(2.38711e-08 -5.18509e-06 0)
(2.36142e-08 -5.19511e-06 0)
(2.33554e-08 -5.20513e-06 0)
(2.30948e-08 -5.21514e-06 0)
(2.28323e-08 -5.22515e-06 0)
(2.25681e-08 -5.23515e-06 0)
(2.2302e-08 -5.24514e-06 0)
(2.20341e-08 -5.25512e-06 0)
(2.17645e-08 -5.26508e-06 0)
(2.14931e-08 -5.27503e-06 0)
(2.12201e-08 -5.28496e-06 0)
(2.09453e-08 -5.29487e-06 0)
(2.06689e-08 -5.30475e-06 0)
(2.03908e-08 -5.31462e-06 0)
(2.01111e-08 -5.32445e-06 0)
(1.98299e-08 -5.33425e-06 0)
(1.95471e-08 -5.34401e-06 0)
(1.92628e-08 -5.35374e-06 0)
(1.8977e-08 -5.36343e-06 0)
(1.86898e-08 -5.37309e-06 0)
(1.84011e-08 -5.38269e-06 0)
(1.81111e-08 -5.39225e-06 0)
(1.78198e-08 -5.40175e-06 0)
(1.75272e-08 -5.41121e-06 0)
(1.72333e-08 -5.4206e-06 0)
(1.69383e-08 -5.42995e-06 0)
(1.66421e-08 -5.43922e-06 0)
(1.63448e-08 -5.44843e-06 0)
(1.60464e-08 -5.45757e-06 0)
(1.57471e-08 -5.46665e-06 0)
(1.54468e-08 -5.47564e-06 0)
(1.51456e-08 -5.48456e-06 0)
(1.48436e-08 -5.4934e-06 0)
(1.45408e-08 -5.50215e-06 0)
(1.42373e-08 -5.51081e-06 0)
(1.39331e-08 -5.51939e-06 0)
(1.36284e-08 -5.52787e-06 0)
(1.33231e-08 -5.53625e-06 0)
(1.30174e-08 -5.54453e-06 0)
(1.27113e-08 -5.55271e-06 0)
(1.24049e-08 -5.56077e-06 0)
(1.20982e-08 -5.56873e-06 0)
(1.17914e-08 -5.57656e-06 0)
(1.14845e-08 -5.58429e-06 0)
(1.11775e-08 -5.59188e-06 0)
(1.08706e-08 -5.59936e-06 0)
(1.05639e-08 -5.60669e-06 0)
(1.02574e-08 -5.61391e-06 0)
(9.95114e-09 -5.62097e-06 0)
(9.64533e-09 -5.62791e-06 0)
(9.33997e-09 -5.63469e-06 0)
(9.0352e-09 -5.64134e-06 0)
(8.73105e-09 -5.64782e-06 0)
(8.42767e-09 -5.65416e-06 0)
(8.1251e-09 -5.66033e-06 0)
(7.82347e-09 -5.66635e-06 0)
(7.52284e-09 -5.6722e-06 0)
(7.22334e-09 -5.67789e-06 0)
(6.92502e-09 -5.68339e-06 0)
(6.62803e-09 -5.68873e-06 0)
(6.33241e-09 -5.69388e-06 0)
(6.03831e-09 -5.69886e-06 0)
(5.74579e-09 -5.70363e-06 0)
(5.45497e-09 -5.70824e-06 0)
(5.16593e-09 -5.71264e-06 0)
(4.8788e-09 -5.71686e-06 0)
(4.59365e-09 -5.72086e-06 0)
(4.3106e-09 -5.72468e-06 0)
(4.02974e-09 -5.72828e-06 0)
(3.75118e-09 -5.73169e-06 0)
(3.47501e-09 -5.73487e-06 0)
(3.20134e-09 -5.73786e-06 0)
(2.93026e-09 -5.74061e-06 0)
(2.6619e-09 -5.74316e-06 0)
(2.39632e-09 -5.74547e-06 0)
(2.13365e-09 -5.74758e-06 0)
(1.87396e-09 -5.74945e-06 0)
(1.61738e-09 -5.75111e-06 0)
(1.36399e-09 -5.75251e-06 0)
(1.11388e-09 -5.75371e-06 0)
(8.67156e-10 -5.75465e-06 0)
(6.23908e-10 -5.75538e-06 0)
(3.84222e-10 -5.75585e-06 0)
(1.48194e-10 -5.7561e-06 0)
(-8.40932e-11 -5.75609e-06 0)
(-3.12552e-10 -5.75587e-06 0)
(-5.37098e-10 -5.75537e-06 0)
(-7.57652e-10 -5.75466e-06 0)
(-9.74131e-10 -5.75368e-06 0)
(-1.18646e-09 -5.75248e-06 0)
(-1.39457e-09 -5.75101e-06 0)
(-1.59838e-09 -5.74932e-06 0)
(-1.79782e-09 -5.74735e-06 0)
(-1.99283e-09 -5.74517e-06 0)
(-2.18334e-09 -5.74271e-06 0)
(-2.3693e-09 -5.74004e-06 0)
(-2.55062e-09 -5.73709e-06 0)
(-2.72727e-09 -5.73392e-06 0)
(-2.89917e-09 -5.73048e-06 0)
(-3.06629e-09 -5.72683e-06 0)
(-3.22855e-09 -5.7229e-06 0)
(-3.38594e-09 -5.71877e-06 0)
(-3.5383e-09 -5.71436e-06 0)
(-3.68595e-09 -5.70975e-06 0)
(-3.82762e-09 -5.70485e-06 0)
(-3.96924e-09 -5.69973e-06 0)
(-4.11517e-09 -5.69383e-06 0)
(-4.26208e-09 -5.68707e-06 0)
(-4.40505e-09 -5.67996e-06 0)
(-4.5396e-09 -5.67271e-06 0)
(-4.66561e-09 -5.6652e-06 0)
(-4.78329e-09 -5.65755e-06 0)
(-4.89276e-09 -5.64966e-06 0)
(-4.99431e-09 -5.64165e-06 0)
(-5.08811e-09 -5.63344e-06 0)
(-5.17451e-09 -5.62513e-06 0)
(-5.25367e-09 -5.61663e-06 0)
(-5.32592e-09 -5.60807e-06 0)
(-5.39141e-09 -5.59934e-06 0)
(-5.45045e-09 -5.59056e-06 0)
(-5.50317e-09 -5.58165e-06 0)
(-5.54989e-09 -5.5727e-06 0)
(-5.59071e-09 -5.56363e-06 0)
(-5.62593e-09 -5.55455e-06 0)
(-5.65566e-09 -5.54538e-06 0)
(-5.68017e-09 -5.5362e-06 0)
(-5.69956e-09 -5.52694e-06 0)
(-5.71408e-09 -5.51771e-06 0)
(-5.72382e-09 -5.5084e-06 0)
(-5.72903e-09 -5.49913e-06 0)
(-5.72977e-09 -5.48982e-06 0)
(-5.72628e-09 -5.48055e-06 0)
(-5.71862e-09 -5.47124e-06 0)
(-5.70701e-09 -5.46199e-06 0)
(-5.6915e-09 -5.45272e-06 0)
(-5.6723e-09 -5.44353e-06 0)
(-5.64945e-09 -5.43432e-06 0)
(-5.62315e-09 -5.4252e-06 0)
(-5.59342e-09 -5.41608e-06 0)
(-5.56047e-09 -5.40706e-06 0)
(-5.5243e-09 -5.39805e-06 0)
(-5.48511e-09 -5.38914e-06 0)
(-5.4429e-09 -5.38026e-06 0)
(-5.39786e-09 -5.37149e-06 0)
(-5.34997e-09 -5.36275e-06 0)
(-5.29943e-09 -5.35413e-06 0)
(-5.24621e-09 -5.34556e-06 0)
(-5.19048e-09 -5.33712e-06 0)
(-5.13224e-09 -5.32872e-06 0)
(-5.07163e-09 -5.32047e-06 0)
(-5.00865e-09 -5.31227e-06 0)
(-4.94345e-09 -5.30423e-06 0)
(-4.876e-09 -5.29624e-06 0)
(-4.80644e-09 -5.28841e-06 0)
(-4.73477e-09 -5.28065e-06 0)
(-4.66111e-09 -5.27305e-06 0)
(-4.58544e-09 -5.26553e-06 0)
(-4.50789e-09 -5.25818e-06 0)
(-4.42844e-09 -5.25091e-06 0)
(-4.34721e-09 -5.24381e-06 0)
(-4.26419e-09 -5.23681e-06 0)
(-4.17947e-09 -5.22998e-06 0)
(-4.09305e-09 -5.22325e-06 0)
(-4.00504e-09 -5.2167e-06 0)
(-3.91541e-09 -5.21026e-06 0)
(-3.82428e-09 -5.204e-06 0)
(-3.73162e-09 -5.19785e-06 0)
(-3.63753e-09 -5.19189e-06 0)
(-3.542e-09 -5.18605e-06 0)
(-3.44513e-09 -5.18039e-06 0)
(-3.3469e-09 -5.17487e-06 0)
(-3.2474e-09 -5.16953e-06 0)
(-3.14663e-09 -5.16433e-06 0)
(-3.04467e-09 -5.15932e-06 0)
(-2.94151e-09 -5.15444e-06 0)
(-2.83725e-09 -5.14977e-06 0)
(-2.73187e-09 -5.14523e-06 0)
(-2.62546e-09 -5.14089e-06 0)
(-2.51802e-09 -5.1367e-06 0)
(-2.40961e-09 -5.13271e-06 0)
(-2.30026e-09 -5.12888e-06 0)
(-2.19003e-09 -5.12524e-06 0)
(-2.07893e-09 -5.12176e-06 0)
(-1.96702e-09 -5.11848e-06 0)
(-1.85433e-09 -5.11537e-06 0)
(-1.7409e-09 -5.11245e-06 0)
(-1.62677e-09 -5.1097e-06 0)
(-1.512e-09 -5.10716e-06 0)
(-1.3966e-09 -5.10478e-06 0)
(-1.28063e-09 -5.10261e-06 0)
(-1.16413e-09 -5.1006e-06 0)
(-1.04717e-09 -5.09884e-06 0)
(-9.2977e-10 -5.09711e-06 0)
(-8.12031e-10 -5.09604e-06 0)
(-6.9396e-10 -5.09362e-06 0)
(-5.75812e-10 -5.09645e-06 0)
(-4.57131e-10 -5.08236e-06 0)
(-3.39438e-10 -5.12307e-06 0)
(-2.19093e-10 -4.96925e-06 0)
(-1.04121e-10 -5.37713e-06 0)
(-2.57308e-11 -4.69632e-06 0)
)
;
    }
    bottomWall
    {
        type            calculated;
        value           nonuniform List<vector> 
449
(
(-52.701 -0.955497 0)
(-34.7375 -0.00279813 0)
(-34.3457 -0.000254936 0)
(-32.9834 -0.00036329 0)
(-31.8586 -0.000314949 0)
(-30.8233 -0.000283975 0)
(-29.907 -0.000249099 0)
(-29.1077 -0.000217239 0)
(-28.4075 -0.000190713 0)
(-27.7884 -0.000168961 0)
(-27.236 -0.000150955 0)
(-26.7394 -0.000135862 0)
(-26.2898 -0.000123215 0)
(-25.8793 -0.000112537 0)
(-25.5024 -0.000103326 0)
(-25.1548 -9.53239e-05 0)
(-24.8324 -8.83346e-05 0)
(-24.5325 -8.22004e-05 0)
(-24.252 -7.67958e-05 0)
(-23.989 -7.19761e-05 0)
(-23.7415 -6.76535e-05 0)
(-23.508 -6.3766e-05 0)
(-23.2871 -6.0259e-05 0)
(-23.0776 -5.70768e-05 0)
(-22.8784 -5.41803e-05 0)
(-22.6888 -5.15225e-05 0)
(-22.5078 -4.90864e-05 0)
(-22.3349 -4.68456e-05 0)
(-22.1693 -4.47793e-05 0)
(-22.0106 -4.28624e-05 0)
(-21.8581 -4.10852e-05 0)
(-21.7116 -3.94318e-05 0)
(-21.5705 -3.78935e-05 0)
(-21.4345 -3.64522e-05 0)
(-21.3034 -3.51065e-05 0)
(-21.1767 -3.38416e-05 0)
(-21.0542 -3.26586e-05 0)
(-20.9357 -3.15484e-05 0)
(-20.8209 -3.05016e-05 0)
(-20.7095 -2.9515e-05 0)
(-20.6015 -2.8584e-05 0)
(-20.4966 -2.77053e-05 0)
(-20.3947 -2.68712e-05 0)
(-20.2955 -2.60767e-05 0)
(-20.1991 -2.53208e-05 0)
(-20.1052 -2.45965e-05 0)
(-20.0137 -2.39056e-05 0)
(-19.9246 -2.32478e-05 0)
(-19.8377 -2.26116e-05 0)
(-19.753 -2.20108e-05 0)
(-19.6702 -2.1432e-05 0)
(-19.5895 -2.08787e-05 0)
(-19.5106 -2.03545e-05 0)
(-19.4336 -1.98465e-05 0)
(-19.3582 -1.93649e-05 0)
(-19.2845 -1.89007e-05 0)
(-19.2124 -1.84594e-05 0)
(-19.1418 -1.80346e-05 0)
(-19.0726 -1.76279e-05 0)
(-19.0048 -1.72364e-05 0)
(-18.9384 -1.68603e-05 0)
(-18.8732 -1.64992e-05 0)
(-18.8093 -1.615e-05 0)
(-18.7465 -1.5816e-05 0)
(-18.685 -1.54912e-05 0)
(-18.6245 -1.51811e-05 0)
(-18.5651 -1.48778e-05 0)
(-18.5067 -1.45884e-05 0)
(-18.4493 -1.43055e-05 0)
(-18.3929 -1.40333e-05 0)
(-18.3374 -1.37703e-05 0)
(-18.2829 -1.35123e-05 0)
(-18.2292 -1.32673e-05 0)
(-18.1763 -1.30241e-05 0)
(-18.1243 -1.27927e-05 0)
(-18.0731 -1.25655e-05 0)
(-18.0227 -1.23446e-05 0)
(-17.9731 -1.21327e-05 0)
(-17.9242 -1.19225e-05 0)
(-17.876 -1.17223e-05 0)
(-17.8285 -1.15257e-05 0)
(-17.7817 -1.13334e-05 0)
(-17.7355 -1.11492e-05 0)
(-17.69 -1.09667e-05 0)
(-17.6452 -1.07906e-05 0)
(-17.6009 -1.06199e-05 0)
(-17.5573 -1.04511e-05 0)
(-17.5142 -1.02891e-05 0)
(-17.4717 -1.01304e-05 0)
(-17.4297 -9.97435e-06 0)
(-17.3883 -9.82435e-06 0)
(-17.3474 -9.67693e-06 0)
(-17.3071 -9.53245e-06 0)
(-17.2672 -9.39312e-06 0)
(-17.2279 -9.25596e-06 0)
(-17.189 -9.12182e-06 0)
(-17.1505 -8.99204e-06 0)
(-17.1126 -8.86438e-06 0)
(-17.0751 -8.73936e-06 0)
(-17.038 -8.61833e-06 0)
(-17.0013 -8.49924e-06 0)
(-16.9651 -8.38259e-06 0)
(-16.9293 -8.26937e-06 0)
(-16.8939 -8.15827e-06 0)
(-16.8588 -8.04906e-06 0)
(-16.8242 -7.94301e-06 0)
(-16.7899 -7.83903e-06 0)
(-16.756 -7.73676e-06 0)
(-16.7225 -7.63712e-06 0)
(-16.6893 -7.53964e-06 0)
(-16.6564 -7.44375e-06 0)
(-16.6239 -7.35e-06 0)
(-16.5917 -7.25839e-06 0)
(-16.5599 -7.1684e-06 0)
(-16.5283 -7.08008e-06 0)
(-16.4971 -6.99378e-06 0)
(-16.4662 -6.90914e-06 0)
(-16.4356 -6.82588e-06 0)
(-16.4053 -6.74441e-06 0)
(-16.3753 -6.66455e-06 0)
(-16.3455 -6.58613e-06 0)
(-16.3161 -6.50908e-06 0)
(-16.2869 -6.43367e-06 0)
(-16.258 -6.35959e-06 0)
(-16.2293 -6.28681e-06 0)
(-16.2009 -6.21533e-06 0)
(-16.1728 -6.1453e-06 0)
(-16.1449 -6.07637e-06 0)
(-16.1173 -6.00873e-06 0)
(-16.0899 -5.94222e-06 0)
(-16.0627 -5.87698e-06 0)
(-16.0358 -5.81274e-06 0)
(-16.0091 -5.7497e-06 0)
(-15.9826 -5.68768e-06 0)
(-15.9564 -5.6268e-06 0)
(-15.9303 -5.56685e-06 0)
(-15.9045 -5.508e-06 0)
(-15.8789 -5.45005e-06 0)
(-15.8535 -5.39313e-06 0)
(-15.8284 -5.33704e-06 0)
(-15.8034 -5.28195e-06 0)
(-15.7786 -5.22769e-06 0)
(-15.754 -5.17433e-06 0)
(-15.7296 -5.12179e-06 0)
(-15.7054 -5.07012e-06 0)
(-15.6814 -5.01926e-06 0)
(-15.6576 -4.96915e-06 0)
(-15.6339 -4.91989e-06 0)
(-15.6104 -4.87133e-06 0)
(-15.5871 -4.82362e-06 0)
(-15.564 -4.7765e-06 0)
(-15.5411 -4.73021e-06 0)
(-15.5183 -4.68452e-06 0)
(-15.4957 -4.63963e-06 0)
(-15.4732 -4.59524e-06 0)
(-15.4509 -4.55164e-06 0)
(-15.4288 -4.50859e-06 0)
(-15.4068 -4.46626e-06 0)
(-15.385 -4.42443e-06 0)
(-15.3633 -4.38329e-06 0)
(-15.3418 -4.34268e-06 0)
(-15.3204 -4.30273e-06 0)
(-15.2992 -4.26327e-06 0)
(-15.2781 -4.2244e-06 0)
(-15.2572 -4.18606e-06 0)
(-15.2364 -4.1483e-06 0)
(-15.2157 -4.11107e-06 0)
(-15.1952 -4.07425e-06 0)
(-15.1748 -4.03812e-06 0)
(-15.1546 -4.00218e-06 0)
(-15.1345 -3.96711e-06 0)
(-15.1145 -3.93216e-06 0)
(-15.0946 -3.89586e-06 0)
(-15.076 -3.8661e-06 0)
(-15.0585 -3.83935e-06 0)
(-15.0409 -3.80818e-06 0)
(-15.0232 -3.77768e-06 0)
(-15.0056 -3.74775e-06 0)
(-14.9878 -3.71776e-06 0)
(-14.9701 -3.68816e-06 0)
(-14.9522 -3.65863e-06 0)
(-14.9344 -3.62924e-06 0)
(-14.9164 -3.59999e-06 0)
(-14.8985 -3.57084e-06 0)
(-14.8805 -3.54187e-06 0)
(-14.8624 -3.51298e-06 0)
(-14.8443 -3.48426e-06 0)
(-14.8261 -3.45557e-06 0)
(-14.8079 -3.4271e-06 0)
(-14.7896 -3.39866e-06 0)
(-14.7713 -3.37044e-06 0)
(-14.753 -3.34225e-06 0)
(-14.7346 -3.31426e-06 0)
(-14.7162 -3.28633e-06 0)
(-14.6977 -3.25859e-06 0)
(-14.6792 -3.23094e-06 0)
(-14.6606 -3.20341e-06 0)
(-14.642 -3.17599e-06 0)
(-14.6234 -3.14871e-06 0)
(-14.6047 -3.12156e-06 0)
(-14.586 -3.09456e-06 0)
(-14.5672 -3.06765e-06 0)
(-14.5484 -3.04091e-06 0)
(-14.5296 -3.01428e-06 0)
(-14.5107 -2.98782e-06 0)
(-14.4918 -2.96143e-06 0)
(-14.4729 -2.93521e-06 0)
(-14.4539 -2.90911e-06 0)
(-14.4348 -2.88318e-06 0)
(-14.4158 -2.85735e-06 0)
(-14.3967 -2.83163e-06 0)
(-14.3776 -2.80608e-06 0)
(-14.3584 -2.78066e-06 0)
(-14.3392 -2.75541e-06 0)
(-14.32 -2.73023e-06 0)
(-14.3008 -2.70527e-06 0)
(-14.2815 -2.68038e-06 0)
(-14.2622 -2.65577e-06 0)
(-14.2428 -2.63113e-06 0)
(-14.2234 -2.60676e-06 0)
(-14.204 -2.58242e-06 0)
(-14.1846 -2.55837e-06 0)
(-14.1652 -2.53431e-06 0)
(-14.1457 -2.51052e-06 0)
(-14.1262 -2.48672e-06 0)
(-14.1066 -2.46327e-06 0)
(-14.0871 -2.43972e-06 0)
(-14.0675 -2.41655e-06 0)
(-14.0479 -2.3933e-06 0)
(-14.0283 -2.37043e-06 0)
(-14.0086 -2.34751e-06 0)
(-13.9889 -2.32489e-06 0)
(-13.9692 -2.30226e-06 0)
(-13.9495 -2.27995e-06 0)
(-13.9298 -2.25764e-06 0)
(-13.9101 -2.2356e-06 0)
(-13.8903 -2.21355e-06 0)
(-13.8705 -2.19184e-06 0)
(-13.8507 -2.1701e-06 0)
(-13.8309 -2.14863e-06 0)
(-13.811 -2.12717e-06 0)
(-13.7912 -2.10604e-06 0)
(-13.7713 -2.0849e-06 0)
(-13.7514 -2.06405e-06 0)
(-13.7315 -2.04321e-06 0)
(-13.7116 -2.02265e-06 0)
(-13.6916 -2.00213e-06 0)
(-13.6717 -1.98185e-06 0)
(-13.6517 -1.96161e-06 0)
(-13.6318 -1.94161e-06 0)
(-13.6118 -1.92169e-06 0)
(-13.5918 -1.90197e-06 0)
(-13.5718 -1.88236e-06 0)
(-13.5518 -1.86293e-06 0)
(-13.5318 -1.84365e-06 0)
(-13.5118 -1.82446e-06 0)
(-13.4918 -1.80549e-06 0)
(-13.4718 -1.78661e-06 0)
(-13.4517 -1.76794e-06 0)
(-13.4317 -1.74933e-06 0)
(-13.4116 -1.73095e-06 0)
(-13.3916 -1.71263e-06 0)
(-13.3715 -1.69456e-06 0)
(-13.3515 -1.67651e-06 0)
(-13.3314 -1.65872e-06 0)
(-13.3113 -1.64097e-06 0)
(-13.2913 -1.62347e-06 0)
(-13.2712 -1.60598e-06 0)
(-13.2511 -1.58879e-06 0)
(-13.2311 -1.57159e-06 0)
(-13.211 -1.5547e-06 0)
(-13.191 -1.53775e-06 0)
(-13.1709 -1.52116e-06 0)
(-13.1508 -1.50446e-06 0)
(-13.1308 -1.48818e-06 0)
(-13.1107 -1.4718e-06 0)
(-13.0907 -1.45578e-06 0)
(-13.0706 -1.43964e-06 0)
(-13.0506 -1.4239e-06 0)
(-13.0306 -1.40806e-06 0)
(-13.0105 -1.39257e-06 0)
(-12.9905 -1.37702e-06 0)
(-12.9705 -1.36184e-06 0)
(-12.9505 -1.34654e-06 0)
(-12.9305 -1.3316e-06 0)
(-12.9105 -1.31658e-06 0)
(-12.8906 -1.30192e-06 0)
(-12.8706 -1.28715e-06 0)
(-12.8506 -1.27274e-06 0)
(-12.8307 -1.25826e-06 0)
(-12.8108 -1.24411e-06 0)
(-12.7908 -1.22991e-06 0)
(-12.7709 -1.21602e-06 0)
(-12.751 -1.20207e-06 0)
(-12.7312 -1.18844e-06 0)
(-12.7113 -1.17475e-06 0)
(-12.6914 -1.16135e-06 0)
(-12.6716 -1.14797e-06 0)
(-12.6518 -1.13478e-06 0)
(-12.6319 -1.12164e-06 0)
(-12.6122 -1.10874e-06 0)
(-12.5923 -1.09585e-06 0)
(-12.5726 -1.08317e-06 0)
(-12.5528 -1.07056e-06 0)
(-12.5331 -1.05813e-06 0)
(-12.5134 -1.04573e-06 0)
(-12.4938 -1.03348e-06 0)
(-12.474 -1.02139e-06 0)
(-12.4544 -1.00941e-06 0)
(-12.4348 -9.97533e-07 0)
(-12.4152 -9.85775e-07 0)
(-12.3956 -9.74151e-07 0)
(-12.376 -9.62611e-07 0)
(-12.3564 -9.51229e-07 0)
(-12.337 -9.3991e-07 0)
(-12.3174 -9.28749e-07 0)
(-12.298 -9.17646e-07 0)
(-12.2785 -9.06719e-07 0)
(-12.2591 -8.95857e-07 0)
(-12.2396 -8.85144e-07 0)
(-12.2203 -8.74479e-07 0)
(-12.2009 -8.64013e-07 0)
(-12.1816 -8.53579e-07 0)
(-12.1622 -8.4331e-07 0)
(-12.143 -8.33069e-07 0)
(-12.1237 -8.23037e-07 0)
(-12.1045 -8.13014e-07 0)
(-12.0853 -8.03186e-07 0)
(-12.0661 -7.93365e-07 0)
(-12.0469 -7.83744e-07 0)
(-12.0279 -7.74133e-07 0)
(-12.0087 -7.64722e-07 0)
(-11.9897 -7.55293e-07 0)
(-11.9706 -7.46085e-07 0)
(-11.9517 -7.36862e-07 0)
(-11.9327 -7.27852e-07 0)
(-11.9137 -7.18807e-07 0)
(-11.8948 -7.09979e-07 0)
(-11.8759 -7.01157e-07 0)
(-11.8571 -6.92519e-07 0)
(-11.8383 -6.83887e-07 0)
(-11.8194 -6.75442e-07 0)
(-11.8007 -6.67007e-07 0)
(-11.782 -6.5873e-07 0)
(-11.7633 -6.50487e-07 0)
(-11.7446 -6.4238e-07 0)
(-11.726 -6.34336e-07 0)
(-11.7074 -6.26383e-07 0)
(-11.6888 -6.18526e-07 0)
(-11.6703 -6.10726e-07 0)
(-11.6518 -6.03076e-07 0)
(-11.6333 -5.95324e-07 0)
(-11.615 -5.87955e-07 0)
(-11.5965 -5.80461e-07 0)
(-11.5762 -5.71589e-07 0)
(-11.5539 -5.62397e-07 0)
(-11.5321 -5.54168e-07 0)
(-11.5106 -5.46131e-07 0)
(-11.4894 -5.3813e-07 0)
(-11.4684 -5.30334e-07 0)
(-11.4479 -5.22705e-07 0)
(-11.4275 -5.1525e-07 0)
(-11.4075 -5.07968e-07 0)
(-11.3878 -5.00886e-07 0)
(-11.3683 -4.9395e-07 0)
(-11.3491 -4.87186e-07 0)
(-11.3302 -4.80564e-07 0)
(-11.3115 -4.74124e-07 0)
(-11.2931 -4.67793e-07 0)
(-11.2748 -4.61653e-07 0)
(-11.2569 -4.55615e-07 0)
(-11.2392 -4.49739e-07 0)
(-11.2217 -4.43961e-07 0)
(-11.2044 -4.38333e-07 0)
(-11.1874 -4.32814e-07 0)
(-11.1705 -4.27434e-07 0)
(-11.1539 -4.22155e-07 0)
(-11.1375 -4.16986e-07 0)
(-11.1213 -4.11938e-07 0)
(-11.1053 -4.06976e-07 0)
(-11.0894 -4.02147e-07 0)
(-11.0738 -3.97396e-07 0)
(-11.0583 -3.92737e-07 0)
(-11.043 -3.88191e-07 0)
(-11.0279 -3.83734e-07 0)
(-11.013 -3.79345e-07 0)
(-10.9983 -3.75053e-07 0)
(-10.9836 -3.70852e-07 0)
(-10.9692 -3.66738e-07 0)
(-10.9549 -3.62709e-07 0)
(-10.9408 -3.58748e-07 0)
(-10.9268 -3.54878e-07 0)
(-10.9131 -3.51067e-07 0)
(-10.8994 -3.47337e-07 0)
(-10.8859 -3.43671e-07 0)
(-10.8725 -3.40078e-07 0)
(-10.8592 -3.36543e-07 0)
(-10.8461 -3.33088e-07 0)
(-10.8332 -3.29663e-07 0)
(-10.8203 -3.26342e-07 0)
(-10.8076 -3.23041e-07 0)
(-10.795 -3.19829e-07 0)
(-10.7826 -3.16644e-07 0)
(-10.7702 -3.1355e-07 0)
(-10.758 -3.10473e-07 0)
(-10.7459 -3.07485e-07 0)
(-10.734 -3.04539e-07 0)
(-10.7221 -3.01633e-07 0)
(-10.7104 -2.98789e-07 0)
(-10.6987 -2.95992e-07 0)
(-10.6872 -2.93246e-07 0)
(-10.6758 -2.90533e-07 0)
(-10.6645 -2.87891e-07 0)
(-10.6532 -2.85256e-07 0)
(-10.6421 -2.82723e-07 0)
(-10.6311 -2.80156e-07 0)
(-10.6202 -2.77739e-07 0)
(-10.6094 -2.75222e-07 0)
(-10.5987 -2.72921e-07 0)
(-10.588 -2.70456e-07 0)
(-10.5775 -2.68286e-07 0)
(-10.567 -2.65821e-07 0)
(-10.5567 -2.63804e-07 0)
(-10.5463 -2.61365e-07 0)
(-10.5362 -2.59477e-07 0)
(-10.526 -2.57027e-07 0)
(-10.5161 -2.55322e-07 0)
(-10.5061 -2.52853e-07 0)
(-10.4963 -2.51345e-07 0)
(-10.4864 -2.48846e-07 0)
(-10.4768 -2.47523e-07 0)
(-10.467 -2.45027e-07 0)
(-10.4577 -2.43878e-07 0)
(-10.4479 -2.41413e-07 0)
(-10.4388 -2.40368e-07 0)
(-10.4291 -2.38064e-07 0)
(-10.4201 -2.36963e-07 0)
(-10.4106 -2.3516e-07 0)
(-10.4017 -2.33498e-07 0)
(-10.3923 -2.33158e-07 0)
(-10.3835 -2.2929e-07 0)
(-10.3744 -2.33489e-07 0)
(-10.3652 -2.22052e-07 0)
(-10.357 -2.40136e-07 0)
(-10.3463 -2.04979e-07 0)
(-10.3411 -2.59885e-07 0)
(-10.3258 -1.70767e-07 0)
(-10.328 -2.34066e-07 0)
(-10.3071 -2.73715e-07 0)
)
;
    }
    symmetry
    {
        type            symmetryPlane;
    }
    frontAndBack
    {
        type            empty;
    }
}


// ************************************************************************* //
