/*--------------------------------*- C++ -*----------------------------------*\
| =========                 |                                                 |
| \\      /  F ield         | OpenFOAM: The Open Source CFD Toolbox           |
|  \\    /   O peration     | Version:  v2012                                 |
|   \\  /    A nd           | Website:  www.openfoam.com                      |
|    \\/     M anipulation  |                                                 |
\*---------------------------------------------------------------------------*/
FoamFile
{
    version     2.0;
    format      ascii;
    class       volScalarField;
    location    "49.5";
    object      yPlus;
}
// * * * * * * * * * * * * * * * * * * * * * * * * * * * * * * * * * * * * * //

dimensions      [0 0 0 0 0 0 0];


internalField   uniform 0;

boundaryField
{
    inlet
    {
        type            calculated;
        value           uniform 0;
    }
    outlet
    {
        type            calculated;
        value           uniform 0;
    }
    topWall
    {
        type            calculated;
        value           nonuniform List<scalar> 
545
(
0.152624
0.263183
0.337638
0.396883
0.447037
0.490918
0.530111
0.565612
0.598101
0.628065
0.65587
0.681798
0.706073
0.728879
0.750366
0.770659
0.789866
0.80808
0.82538
0.841837
0.857511
0.87246
0.88673
0.900367
0.913409
0.925895
0.937855
0.949321
0.960321
0.970878
0.981018
0.990761
1.00013
1.00914
1.01781
1.02616
1.03419
1.04194
1.0494
1.0566
1.06354
1.07023
1.07669
1.08293
1.08895
1.09476
1.10038
1.10581
1.11105
1.11613
1.12103
1.12577
1.13036
1.13479
1.13909
1.14324
1.14726
1.15116
1.15493
1.15858
1.16212
1.16554
1.16886
1.17208
1.17519
1.17821
1.18114
1.18398
1.18673
1.1894
1.19199
1.1945
1.19691
1.19923
1.20154
1.20383
1.2061
1.20835
1.21058
1.2128
1.215
1.21718
1.21934
1.22149
1.22362
1.22573
1.22782
1.2299
1.23197
1.23401
1.23605
1.23806
1.24006
1.24205
1.24401
1.24597
1.24773
1.2493
1.25088
1.25245
1.25402
1.2556
1.25717
1.25874
1.26031
1.26188
1.26345
1.26502
1.26659
1.26816
1.26973
1.2713
1.27287
1.27444
1.276
1.27757
1.27914
1.2807
1.28227
1.28383
1.2854
1.28696
1.28853
1.29009
1.29165
1.29321
1.29477
1.29633
1.29789
1.29945
1.30101
1.30257
1.30412
1.30568
1.30723
1.30879
1.31034
1.3119
1.31345
1.315
1.31655
1.3181
1.31965
1.3212
1.32275
1.3243
1.32584
1.32739
1.32893
1.33048
1.33202
1.33356
1.3351
1.33664
1.33818
1.33972
1.34125
1.34279
1.34433
1.34586
1.34739
1.34892
1.35045
1.35198
1.35351
1.35504
1.35657
1.35809
1.35962
1.36114
1.36266
1.36418
1.3657
1.36722
1.36874
1.37025
1.37177
1.37328
1.37479
1.3763
1.37781
1.37932
1.38083
1.38233
1.38384
1.38534
1.38684
1.38834
1.38984
1.39134
1.39283
1.39432
1.39582
1.39731
1.3988
1.40028
1.40177
1.40326
1.40474
1.40622
1.4077
1.40918
1.41065
1.41213
1.4136
1.41507
1.41654
1.41801
1.41948
1.42094
1.4224
1.42386
1.42532
1.42678
1.42823
1.42969
1.43114
1.43259
1.43404
1.43548
1.43692
1.43837
1.43981
1.44124
1.44268
1.44411
1.44554
1.44697
1.4484
1.44982
1.45125
1.45267
1.45408
1.4555
1.45691
1.45833
1.45974
1.46114
1.46255
1.46395
1.46535
1.46675
1.46814
1.46954
1.47093
1.47231
1.4737
1.47508
1.47646
1.47784
1.47922
1.48059
1.48196
1.48333
1.48469
1.48606
1.48742
1.48877
1.49013
1.49148
1.49283
1.49418
1.49552
1.49686
1.4982
1.49953
1.50086
1.50219
1.50352
1.50477
1.50595
1.50714
1.50833
1.50953
1.51074
1.51196
1.51319
1.51442
1.51566
1.51691
1.51817
1.51943
1.52071
1.52199
1.52328
1.52457
1.52587
1.52719
1.5285
1.52983
1.53116
1.5325
1.53385
1.53521
1.53657
1.53794
1.53931
1.5407
1.54209
1.54349
1.54489
1.5463
1.54772
1.54914
1.55057
1.55201
1.55345
1.5549
1.55635
1.55781
1.55928
1.56075
1.56222
1.56371
1.56519
1.56669
1.56818
1.56969
1.57119
1.57271
1.57422
1.57574
1.57727
1.57879
1.58032
1.58186
1.5834
1.58494
1.58648
1.58803
1.58958
1.59113
1.59268
1.59424
1.59579
1.59735
1.59891
1.60047
1.60203
1.60359
1.60515
1.60671
1.60827
1.60983
1.61139
1.61295
1.6145
1.61605
1.6176
1.61915
1.6207
1.62224
1.62378
1.62531
1.62684
1.62837
1.62989
1.6314
1.63291
1.63441
1.63591
1.6374
1.63888
1.64036
1.64182
1.64328
1.64473
1.64617
1.6476
1.64902
1.65043
1.65182
1.65321
1.65458
1.65595
1.6573
1.65863
1.65995
1.66126
1.66255
1.66383
1.66509
1.66634
1.66757
1.66878
1.66997
1.67115
1.67231
1.67345
1.67456
1.67566
1.67674
1.6778
1.67883
1.67985
1.68084
1.6818
1.68275
1.68367
1.68457
1.68543
1.68628
1.6871
1.68789
1.68866
1.6894
1.69011
1.69079
1.69144
1.69207
1.69266
1.69323
1.69376
1.69427
1.69474
1.69518
1.69559
1.69597
1.69631
1.69662
1.6969
1.69714
1.69735
1.69753
1.69767
1.69778
1.69785
1.69789
1.69789
1.69786
1.69778
1.69768
1.69754
1.69736
1.69715
1.6969
1.69661
1.69629
1.69593
1.69553
1.6951
1.69463
1.69412
1.69358
1.69301
1.69239
1.69174
1.69106
1.69034
1.68959
1.6887
1.6877
1.68665
1.68557
1.68446
1.68332
1.68215
1.68096
1.67973
1.67849
1.67723
1.67595
1.67465
1.67333
1.672
1.67066
1.6693
1.66794
1.66656
1.66518
1.66379
1.6624
1.661
1.6596
1.65819
1.65679
1.65539
1.65399
1.65259
1.65119
1.6498
1.64841
1.64703
1.64565
1.64428
1.64293
1.64157
1.64023
1.6389
1.63758
1.63627
1.63498
1.63369
1.63243
1.63117
1.62993
1.62871
1.6275
1.62631
1.62514
1.62398
1.62285
1.62172
1.62063
1.61955
1.61849
1.61745
1.61643
1.61544
1.61446
1.61351
1.61259
1.61168
1.6108
1.60994
1.60911
1.6083
1.60752
1.60676
1.60603
1.60533
1.60465
1.60399
1.60337
1.60277
1.6022
1.60166
1.60115
1.60066
1.6002
1.59977
1.59938
1.599
1.59866
1.59835
1.59807
1.59782
1.59759
1.5974
1.59724
1.5971
1.597
1.59693
1.59689
1.59686
)
;
    }
    bottomWall
    {
        type            calculated;
        value           nonuniform List<scalar> 
449
(
0.00273737
0.00480056
0.00537404
0.00532683
0.00525597
0.00516019
0.00506294
0.00497188
0.00488828
0.00481188
0.00474197
0.00467787
0.00461888
0.00456427
0.00451351
0.00446621
0.00442196
0.00438046
0.00434136
0.00430445
0.0042695
0.00423636
0.00420485
0.00417482
0.00414615
0.00411874
0.00409248
0.0040673
0.00404311
0.00401984
0.00399744
0.00397583
0.00395498
0.00393483
0.00391534
0.00389647
0.0038782
0.00386046
0.00384326
0.00382654
0.00381028
0.00379447
0.00377907
0.00376407
0.00374945
0.00373519
0.00372129
0.00370772
0.00369448
0.00368154
0.0036689
0.00365655
0.00364446
0.00363263
0.00362106
0.00360972
0.00359861
0.00358772
0.00357705
0.00356656
0.00355629
0.00354619
0.00353628
0.00352654
0.00351697
0.00350757
0.00349832
0.00348922
0.00348027
0.00347147
0.0034628
0.00345427
0.00344586
0.00343759
0.00342944
0.0034214
0.00341349
0.00340569
0.003398
0.00339042
0.00338293
0.00337556
0.00336828
0.0033611
0.00335402
0.00334702
0.00334012
0.0033333
0.00332657
0.00331993
0.00331336
0.00330688
0.00330047
0.00329414
0.00328788
0.00328169
0.00327558
0.00326954
0.00326356
0.00325765
0.0032518
0.00324602
0.0032403
0.00323464
0.00322904
0.0032235
0.00321802
0.00321259
0.00320722
0.0032019
0.00319663
0.00319142
0.00318625
0.00318114
0.00317607
0.00317106
0.00316608
0.00316116
0.00315628
0.00315145
0.00314665
0.00314191
0.0031372
0.00313253
0.00312791
0.00312333
0.00311878
0.00311427
0.0031098
0.00310537
0.00310098
0.00309662
0.0030923
0.00308801
0.00308375
0.00307953
0.00307535
0.00307119
0.00306707
0.00306298
0.00305892
0.00305489
0.00305089
0.00304693
0.00304299
0.00303908
0.0030352
0.00303134
0.00302752
0.00302372
0.00301995
0.0030162
0.00301249
0.00300879
0.00300512
0.00300148
0.00299786
0.00299427
0.0029907
0.00298716
0.00298364
0.00298014
0.00297666
0.00297321
0.00296978
0.00296637
0.00296298
0.00295961
0.00295627
0.00295294
0.00294964
0.00294635
0.00294309
0.00294003
0.00293715
0.00293426
0.00293136
0.00292845
0.00292553
0.0029226
0.00291967
0.00291672
0.00291377
0.00291081
0.00290784
0.00290486
0.00290187
0.00289887
0.00289586
0.00289285
0.00288983
0.0028868
0.00288376
0.00288071
0.00287766
0.00287459
0.00287152
0.00286844
0.00286536
0.00286226
0.00285916
0.00285605
0.00285293
0.00284981
0.00284668
0.00284354
0.00284039
0.00283724
0.00283408
0.00283091
0.00282774
0.00282456
0.00282138
0.00281818
0.00281498
0.00281178
0.00280857
0.00280535
0.00280213
0.0027989
0.00279566
0.00279242
0.00278917
0.00278592
0.00278266
0.0027794
0.00277613
0.00277286
0.00276958
0.0027663
0.00276301
0.00275972
0.00275642
0.00275312
0.00274981
0.0027465
0.00274319
0.00273987
0.00273654
0.00273322
0.00272988
0.00272655
0.00272321
0.00271987
0.00271652
0.00271318
0.00270982
0.00270647
0.00270311
0.00269975
0.00269638
0.00269302
0.00268964
0.00268627
0.00268289
0.00267952
0.00267613
0.00267276
0.00266937
0.00266598
0.00266259
0.0026592
0.00265581
0.00265242
0.00264902
0.00264562
0.00264222
0.00263883
0.00263542
0.00263202
0.00262862
0.00262521
0.00262181
0.0026184
0.00261499
0.00261159
0.00260818
0.00260477
0.00260136
0.00259796
0.00259455
0.00259114
0.00258773
0.00258432
0.00258091
0.00257751
0.0025741
0.00257069
0.00256729
0.00256388
0.00256048
0.00255707
0.00255367
0.00255026
0.00254687
0.00254346
0.00254007
0.00253667
0.00253328
0.00252988
0.00252649
0.00252309
0.00251971
0.00251631
0.00251294
0.00250955
0.00250617
0.00250278
0.00249941
0.00249603
0.00249267
0.00248929
0.00248593
0.00248256
0.0024792
0.00247583
0.00247248
0.00246912
0.00246578
0.00246242
0.00245908
0.00245573
0.0024524
0.00244906
0.00244574
0.0024424
0.00243908
0.00243575
0.00243244
0.00242912
0.00242582
0.0024225
0.00241921
0.0024159
0.00241261
0.00240931
0.00240603
0.00240275
0.00239947
0.00239619
0.00239293
0.00238966
0.0023864
0.00238314
0.00237989
0.00237664
0.0023734
0.00237016
0.00236693
0.0023637
0.00236048
0.00235726
0.00235405
0.00235083
0.00234728
0.0023434
0.00233959
0.00233582
0.00233211
0.00232845
0.00232485
0.00232129
0.00231779
0.00231433
0.00231092
0.00230755
0.00230424
0.00230095
0.00229773
0.00229453
0.00229138
0.00228827
0.0022852
0.00228216
0.00227917
0.00227621
0.00227329
0.00227039
0.00226754
0.00226472
0.00226194
0.00225918
0.00225646
0.00225376
0.0022511
0.00224847
0.00224587
0.00224329
0.00224075
0.00223822
0.00223573
0.00223326
0.00223083
0.00222841
0.00222603
0.00222366
0.00222132
0.002219
0.00221671
0.00221444
0.00221219
0.00220996
0.00220776
0.00220557
0.00220342
0.00220127
0.00219915
0.00219705
0.00219497
0.0021929
0.00219086
0.00218883
0.00218683
0.00218484
0.00218287
0.00218091
0.00217897
0.00217705
0.00217515
0.00217326
0.00217139
0.00216952
0.00216769
0.00216585
0.00216406
0.00216224
0.00216048
0.00215869
0.00215696
0.00215519
0.0021535
0.00215174
0.00215008
0.00214834
0.00214672
0.00214499
0.00214341
0.00214169
0.00214013
0.00213843
0.00213689
0.00213522
0.00213366
0.00213208
0.00213038
0.00212913
0.00212689
0.00212658
0.00212344
)
;
    }
    symmetry
    {
        type            symmetryPlane;
    }
    frontAndBack
    {
        type            empty;
    }
}


// ************************************************************************* //
