/*--------------------------------*- C++ -*----------------------------------*\
| =========                 |                                                 |
| \\      /  F ield         | OpenFOAM: The Open Source CFD Toolbox           |
|  \\    /   O peration     | Version:  v2012                                 |
|   \\  /    A nd           | Website:  www.openfoam.com                      |
|    \\/     M anipulation  |                                                 |
\*---------------------------------------------------------------------------*/
FoamFile
{
    version     2.0;
    format      ascii;
    class       volScalarField;
    location    "2";
    object      p;
}
// * * * * * * * * * * * * * * * * * * * * * * * * * * * * * * * * * * * * * //

dimensions      [0 2 -2 0 0 0 0];


internalField   nonuniform List<scalar> 
209825
(
6.12605
6.12879
6.13559
6.14585
6.159
6.17484
6.19329
6.21424
6.23759
6.26323
6.29107
6.32104
6.35308
6.38713
6.42316
6.46111
6.50096
6.54268
6.58624
6.63164
6.67885
6.72787
6.7787
6.83133
6.88577
6.94202
7.00009
7.06
7.12177
7.1854
7.25094
7.31839
7.38779
7.45918
7.53258
7.60804
7.68559
7.76529
7.84719
7.93133
8.01777
8.10657
8.1978
8.29154
8.38784
8.4868
8.5885
8.69303
8.80049
8.91098
9.02461
9.14151
9.2618
9.38562
9.51311
9.64443
9.77976
9.91926
10.0631
10.2116
10.3649
10.5233
10.6869
10.8562
11.0314
11.2129
11.4011
11.5962
11.7989
12.0095
12.2287
12.4569
12.6918
12.9361
13.1968
13.4761
13.7763
14.1004
14.4515
14.8336
15.2516
15.7115
16.2208
16.7892
17.4288
18.1562
18.9931
19.9713
21.1323
22.5521
24.3079
26.6809
29.6931
35.258
41.5479
74.3056
6.12605
6.12879
6.13559
6.14585
6.159
6.17484
6.19329
6.21424
6.23759
6.26323
6.29107
6.32104
6.35308
6.38713
6.42316
6.46111
6.50096
6.54268
6.58624
6.63164
6.67885
6.72787
6.7787
6.83133
6.88577
6.94202
7.00009
7.06
7.12177
7.1854
7.25094
7.31839
7.38779
7.45918
7.53258
7.60804
7.68559
7.76529
7.84719
7.93133
8.01777
8.10657
8.1978
8.29154
8.38784
8.4868
8.5885
8.69303
8.80049
8.91098
9.02461
9.14151
9.2618
9.38562
9.51311
9.64443
9.77976
9.91926
10.0631
10.2116
10.3649
10.5233
10.6869
10.8562
11.0314
11.2129
11.4011
11.5962
11.7989
12.0095
12.2287
12.4569
12.6918
12.9361
13.1968
13.4761
13.7763
14.1004
14.4515
14.8336
15.2516
15.7115
16.2208
16.7892
17.4288
18.1562
18.9931
19.9712
21.1322
22.5521
24.3078
26.6806
29.6927
35.2555
41.5271
73.6685
6.12605
6.12879
6.13559
6.14585
6.159
6.17484
6.19329
6.21424
6.23759
6.26323
6.29107
6.32104
6.35308
6.38713
6.42316
6.46111
6.50096
6.54268
6.58624
6.63164
6.67885
6.72787
6.7787
6.83133
6.88577
6.94202
7.00009
7.06
7.12177
7.1854
7.25094
7.31839
7.38779
7.45918
7.53258
7.60804
7.68559
7.76529
7.84719
7.93133
8.01777
8.10657
8.1978
8.29154
8.38784
8.4868
8.5885
8.69303
8.80049
8.91098
9.02461
9.14151
9.2618
9.38562
9.51311
9.64443
9.77976
9.91926
10.0631
10.2116
10.3649
10.5233
10.6869
10.8562
11.0314
11.2129
11.4011
11.5962
11.7989
12.0095
12.2287
12.4569
12.6918
12.9361
13.1968
13.4761
13.7763
14.1004
14.4514
14.8335
15.2516
15.7115
16.2208
16.7891
17.4287
18.1561
18.993
19.9712
21.1321
22.5519
24.3075
26.6801
29.6919
35.2515
41.5047
72.8987
6.12605
6.12879
6.13559
6.14585
6.159
6.17484
6.19329
6.21424
6.23759
6.26323
6.29107
6.32104
6.35308
6.38713
6.42316
6.46111
6.50096
6.54268
6.58624
6.63164
6.67885
6.72787
6.7787
6.83133
6.88577
6.94202
7.00009
7.06
7.12177
7.1854
7.25094
7.31839
7.38779
7.45918
7.53258
7.60804
7.68559
7.76529
7.84719
7.93132
8.01777
8.10657
8.1978
8.29153
8.38784
8.4868
8.5885
8.69303
8.80049
8.91098
9.02461
9.14151
9.2618
9.38561
9.51311
9.64443
9.77975
9.91926
10.0631
10.2116
10.3649
10.5233
10.6869
10.8562
11.0314
11.2129
11.401
11.5962
11.7989
12.0095
12.2286
12.4569
12.6918
12.9361
13.1968
13.4761
13.7763
14.1003
14.4514
14.8335
15.2515
15.7114
16.2208
16.7891
17.4287
18.156
18.9929
19.971
21.1319
22.5516
24.3071
26.6793
29.6907
35.2457
41.4847
72.1368
6.12605
6.12879
6.13559
6.14585
6.159
6.17484
6.19329
6.21424
6.23759
6.26323
6.29107
6.32104
6.35308
6.38713
6.42316
6.46111
6.50096
6.54268
6.58624
6.63164
6.67885
6.72787
6.7787
6.83133
6.88577
6.94202
7.00009
7.06
7.12177
7.1854
7.25094
7.31839
7.38779
7.45918
7.53258
7.60804
7.68559
7.76529
7.84719
7.93132
8.01776
8.10657
8.1978
8.29153
8.38784
8.4868
8.5885
8.69303
8.80048
8.91098
9.02461
9.14151
9.2618
9.38561
9.5131
9.64443
9.77975
9.91926
10.0631
10.2116
10.3649
10.5232
10.6869
10.8562
11.0314
11.2129
11.401
11.5962
11.7989
12.0095
12.2286
12.4569
12.6918
12.9361
13.1968
13.476
13.7763
14.1003
14.4514
14.8335
15.2515
15.7114
16.2207
16.789
17.4286
18.1559
18.9928
19.9708
21.1316
22.5512
24.3065
26.6782
29.6891
35.2381
41.465
71.3876
6.12605
6.12879
6.13559
6.14585
6.159
6.17484
6.19329
6.21424
6.23759
6.26323
6.29107
6.32104
6.35308
6.38713
6.42316
6.46111
6.50096
6.54268
6.58624
6.63164
6.67885
6.72787
6.7787
6.83133
6.88577
6.94202
7.00009
7.06
7.12177
7.1854
7.25093
7.31839
7.38779
7.45918
7.53258
7.60804
7.68559
7.76529
7.84719
7.93132
8.01776
8.10657
8.1978
8.29153
8.38784
8.4868
8.5885
8.69303
8.80048
8.91097
9.02461
9.1415
9.26179
9.38561
9.5131
9.64442
9.77975
9.91925
10.0631
10.2116
10.3649
10.5232
10.6869
10.8562
11.0314
11.2129
11.401
11.5962
11.7988
12.0095
12.2286
12.4568
12.6918
12.9361
13.1968
13.476
13.7763
14.1003
14.4514
14.8334
15.2514
15.7113
16.2206
16.7889
17.4285
18.1558
18.9926
19.9706
21.1313
22.5507
24.3058
26.6769
29.687
35.2287
41.4429
70.6421
6.12605
6.12879
6.13559
6.14585
6.159
6.17484
6.19329
6.21424
6.23759
6.26323
6.29107
6.32104
6.35308
6.38713
6.42316
6.46111
6.50096
6.54268
6.58624
6.63164
6.67885
6.72787
6.7787
6.83133
6.88577
6.94202
7.00009
7.06
7.12177
7.1854
7.25093
7.31839
7.38779
7.45918
7.53258
7.60804
7.68559
7.76529
7.84718
7.93132
8.01776
8.10657
8.1978
8.29153
8.38784
8.4868
8.58849
8.69302
8.80048
8.91097
9.0246
9.1415
9.26179
9.38561
9.5131
9.64442
9.77974
9.91925
10.0631
10.2116
10.3649
10.5232
10.6869
10.8562
11.0314
11.2129
11.401
11.5962
11.7988
12.0095
12.2286
12.4568
12.6918
12.9361
13.1968
13.476
13.7762
14.1002
14.4513
14.8334
15.2514
15.7112
16.2205
16.7888
17.4283
18.1556
18.9924
19.9703
21.1309
22.5501
24.3049
26.6752
29.6845
35.2172
41.4173
69.8974
6.12605
6.12879
6.13559
6.14585
6.159
6.17484
6.19329
6.21424
6.23759
6.26323
6.29107
6.32104
6.35308
6.38713
6.42316
6.46111
6.50096
6.54268
6.58624
6.63164
6.67885
6.72787
6.7787
6.83133
6.88577
6.94202
7.00009
7.06
7.12177
7.1854
7.25093
7.31839
7.38779
7.45917
7.53258
7.60804
7.68559
7.76529
7.84718
7.93132
8.01776
8.10656
8.1978
8.29153
8.38783
8.48679
8.58849
8.69302
8.80048
8.91097
9.0246
9.1415
9.26179
9.3856
9.51309
9.64442
9.77974
9.91924
10.0631
10.2116
10.3649
10.5232
10.6869
10.8562
11.0314
11.2129
11.401
11.5962
11.7988
12.0094
12.2286
12.4568
12.6917
12.936
13.1967
13.4759
13.7762
14.1002
14.4512
14.8333
15.2513
15.7112
16.2204
16.7887
17.4282
18.1554
18.9921
19.9699
21.1304
22.5493
24.3038
26.6731
29.6815
35.2037
41.388
69.153
6.12605
6.12879
6.13559
6.14585
6.159
6.17484
6.19329
6.21424
6.23759
6.26323
6.29107
6.32104
6.35308
6.38713
6.42316
6.46111
6.50096
6.54268
6.58624
6.63164
6.67885
6.72787
6.7787
6.83133
6.88577
6.94202
7.00009
7.06
7.12176
7.1854
7.25093
7.31839
7.38779
7.45917
7.53258
7.60803
7.68559
7.76529
7.84718
7.93132
8.01776
8.10656
8.1978
8.29153
8.38783
8.48679
8.58849
8.69302
8.80048
8.91096
9.0246
9.14149
9.26178
9.3856
9.51309
9.64441
9.77973
9.91924
10.0631
10.2116
10.3649
10.5232
10.6869
10.8562
11.0314
11.2129
11.401
11.5961
11.7988
12.0094
12.2286
12.4568
12.6917
12.936
13.1967
13.4759
13.7761
14.1001
14.4512
14.8332
15.2512
15.711
16.2203
16.7885
17.428
18.1551
18.9918
19.9695
21.1298
22.5485
24.3026
26.6708
29.6779
35.1881
41.355
68.4087
6.12605
6.12879
6.13559
6.14585
6.159
6.17484
6.19329
6.21424
6.23759
6.26323
6.29107
6.32104
6.35308
6.38713
6.42316
6.46111
6.50096
6.54268
6.58624
6.63164
6.67885
6.72787
6.7787
6.83133
6.88576
6.94202
7.00009
7.06
7.12176
7.1854
7.25093
7.31839
7.38779
7.45917
7.53258
7.60803
7.68559
7.76529
7.84718
7.93132
8.01776
8.10656
8.19779
8.29153
8.38783
8.48679
8.58849
8.69302
8.80047
8.91096
9.02459
9.14149
9.26178
9.38559
9.51308
9.6444
9.77972
9.91923
10.0631
10.2116
10.3649
10.5232
10.6869
10.8562
11.0314
11.2129
11.401
11.5961
11.7988
12.0094
12.2285
12.4567
12.6917
12.936
13.1966
13.4759
13.7761
14.1001
14.4511
14.8332
15.2511
15.7109
16.2201
16.7883
17.4277
18.1548
18.9914
19.969
21.1291
22.5475
24.3011
26.668
29.6738
35.1703
41.3184
67.6647
6.12605
6.12879
6.13559
6.14585
6.159
6.17484
6.19329
6.21424
6.23759
6.26323
6.29107
6.32104
6.35308
6.38713
6.42316
6.46111
6.50096
6.54268
6.58624
6.63164
6.67885
6.72787
6.7787
6.83133
6.88576
6.94201
7.00009
7.06
7.12176
7.1854
7.25093
7.31838
7.38779
7.45917
7.53257
7.60803
7.68559
7.76529
7.84718
7.93132
8.01776
8.10656
8.19779
8.29152
8.38783
8.48679
8.58848
8.69301
8.80047
8.91096
9.02459
9.14149
9.26177
9.38559
9.51308
9.6444
9.77972
9.91922
10.0631
10.2116
10.3649
10.5232
10.6869
10.8561
11.0314
11.2128
11.4009
11.5961
11.7987
12.0094
12.2285
12.4567
12.6916
12.9359
13.1966
13.4758
13.776
14.1
14.451
14.8331
15.251
15.7108
16.22
16.7881
17.4275
18.1545
18.991
19.9684
21.1283
22.5463
24.2994
26.6649
29.6691
35.1502
41.2779
66.9212
6.12605
6.12879
6.13559
6.14585
6.159
6.17484
6.19329
6.21424
6.23759
6.26323
6.29107
6.32104
6.35308
6.38713
6.42316
6.46111
6.50096
6.54268
6.58624
6.63164
6.67885
6.72787
6.7787
6.83133
6.88576
6.94201
7.00009
7.06
7.12176
7.1854
7.25093
7.31838
7.38779
7.45917
7.53257
7.60803
7.68559
7.76528
7.84718
7.93131
8.01775
8.10656
8.19779
8.29152
8.38782
8.48678
8.58848
8.69301
8.80046
8.91095
9.02458
9.14148
9.26177
9.38558
9.51307
9.64439
9.77971
9.91921
10.0631
10.2116
10.3648
10.5232
10.6868
10.8561
11.0313
11.2128
11.4009
11.5961
11.7987
12.0093
12.2285
12.4567
12.6916
12.9359
13.1965
13.4757
13.7759
14.0999
14.4509
14.8329
15.2508
15.7106
16.2198
16.7879
17.4272
18.1541
18.9905
19.9678
21.1275
22.5451
24.2975
26.6614
29.6637
35.1279
41.2335
66.1786
6.12605
6.12879
6.13559
6.14585
6.159
6.17484
6.19329
6.21424
6.23759
6.26323
6.29107
6.32104
6.35308
6.38713
6.42316
6.46111
6.50096
6.54268
6.58624
6.63164
6.67885
6.72787
6.7787
6.83133
6.88576
6.94201
7.00009
7.06
7.12176
7.1854
7.25093
7.31838
7.38778
7.45917
7.53257
7.60803
7.68558
7.76528
7.84717
7.93131
8.01775
8.10655
8.19779
8.29152
8.38782
8.48678
8.58848
8.693
8.80046
8.91095
9.02458
9.14147
9.26176
9.38557
9.51306
9.64438
9.7797
9.9192
10.0631
10.2115
10.3648
10.5232
10.6868
10.8561
11.0313
11.2128
11.4009
11.596
11.7987
12.0093
12.2284
12.4566
12.6915
12.9358
13.1965
13.4757
13.7758
14.0998
14.4508
14.8328
15.2507
15.7104
16.2196
16.7876
17.4269
18.1537
18.99
19.9671
21.1265
22.5436
24.2954
26.6574
29.6577
35.1033
41.1852
65.437
6.12605
6.12879
6.13559
6.14585
6.159
6.17484
6.19329
6.21424
6.23759
6.26323
6.29106
6.32104
6.35308
6.38713
6.42315
6.46111
6.50096
6.54268
6.58624
6.63164
6.67885
6.72787
6.7787
6.83133
6.88576
6.94201
7.00009
7.06
7.12176
7.1854
7.25093
7.31838
7.38778
7.45917
7.53257
7.60803
7.68558
7.76528
7.84717
7.93131
8.01775
8.10655
8.19778
8.29151
8.38782
8.48677
8.58847
8.693
8.80045
8.91094
9.02457
9.14147
9.26175
9.38556
9.51305
9.64437
9.77969
9.91919
10.0631
10.2115
10.3648
10.5231
10.6868
10.8561
11.0313
11.2128
11.4009
11.596
11.7986
12.0093
12.2284
12.4566
12.6915
12.9357
13.1964
13.4756
13.7758
14.0997
14.4507
14.8327
15.2505
15.7102
16.2193
16.7873
17.4265
18.1533
18.9894
19.9663
21.1254
22.542
24.2931
26.6531
29.6511
35.0764
41.1327
64.6969
6.12605
6.12879
6.13559
6.14584
6.159
6.17484
6.19329
6.21424
6.23759
6.26323
6.29106
6.32103
6.35307
6.38713
6.42315
6.46111
6.50096
6.54268
6.58624
6.63164
6.67885
6.72787
6.77869
6.83132
6.88576
6.94201
7.00009
7.06
7.12176
7.1854
7.25093
7.31838
7.38778
7.45917
7.53257
7.60802
7.68558
7.76528
7.84717
7.93131
8.01774
8.10655
8.19778
8.29151
8.38781
8.48677
8.58847
8.69299
8.80045
8.91093
9.02456
9.14146
9.26174
9.38555
9.51304
9.64436
9.77967
9.91917
10.063
10.2115
10.3648
10.5231
10.6868
10.8561
11.0313
11.2127
11.4008
11.596
11.7986
12.0092
12.2283
12.4565
12.6914
12.9357
13.1963
13.4755
13.7757
14.0996
14.4505
14.8325
15.2503
15.71
16.219
16.787
17.4261
18.1528
18.9887
19.9654
21.1242
22.5402
24.2904
26.6482
29.6437
35.047
41.0759
63.9585
6.12605
6.12879
6.13559
6.14584
6.159
6.17484
6.19329
6.21424
6.23759
6.26323
6.29106
6.32103
6.35307
6.38713
6.42315
6.46111
6.50096
6.54267
6.58624
6.63164
6.67885
6.72787
6.77869
6.83132
6.88576
6.94201
7.00008
7.05999
7.12176
7.18539
7.25092
7.31838
7.38778
7.45916
7.53256
7.60802
7.68558
7.76528
7.84717
7.9313
8.01774
8.10654
8.19777
8.2915
8.38781
8.48676
8.58846
8.69299
8.80044
8.91093
9.02456
9.14145
9.26173
9.38554
9.51303
9.64434
9.77966
9.91916
10.063
10.2115
10.3648
10.5231
10.6868
10.856
11.0312
11.2127
11.4008
11.5959
11.7986
12.0092
12.2283
12.4564
12.6913
12.9356
13.1962
13.4754
13.7755
14.0995
14.4504
14.8323
15.2501
15.7098
16.2187
16.7866
17.4256
18.1522
18.988
19.9644
21.1228
22.5383
24.2876
26.6429
29.6355
35.0153
41.0148
63.222
6.12605
6.12879
6.13559
6.14584
6.159
6.17484
6.19329
6.21424
6.23759
6.26322
6.29106
6.32103
6.35307
6.38713
6.42315
6.46111
6.50096
6.54267
6.58624
6.63163
6.67885
6.72787
6.77869
6.83132
6.88576
6.94201
7.00008
7.05999
7.12176
7.18539
7.25092
7.31838
7.38778
7.45916
7.53256
7.60802
7.68557
7.76527
7.84716
7.9313
8.01774
8.10654
8.19777
8.2915
8.3878
8.48676
8.58845
8.69298
8.80043
8.91092
9.02455
9.14144
9.26172
9.38553
9.51302
9.64433
9.77965
9.91914
10.063
10.2115
10.3647
10.5231
10.6867
10.856
11.0312
11.2127
11.4008
11.5959
11.7985
12.0091
12.2282
12.4564
12.6913
12.9355
13.1961
13.4753
13.7754
14.0993
14.4502
14.8321
15.2499
15.7095
16.2184
16.7862
17.4252
18.1516
18.9872
19.9633
21.1214
22.5362
24.2844
26.6371
29.6266
34.981
40.9493
62.4877
6.12604
6.12879
6.13559
6.14584
6.159
6.17484
6.19329
6.21424
6.23759
6.26322
6.29106
6.32103
6.35307
6.38713
6.42315
6.46111
6.50095
6.54267
6.58624
6.63163
6.67885
6.72787
6.77869
6.83132
6.88576
6.94201
7.00008
7.05999
7.12175
7.18539
7.25092
7.31837
7.38777
7.45916
7.53256
7.60802
7.68557
7.76527
7.84716
7.9313
8.01773
8.10653
8.19777
8.29149
8.3878
8.48675
8.58845
8.69297
8.80042
8.91091
9.02454
9.14143
9.26171
9.38552
9.513
9.64432
9.77963
9.91912
10.063
10.2115
10.3647
10.5231
10.6867
10.856
11.0312
11.2126
11.4007
11.5958
11.7985
12.009
12.2281
12.4563
12.6912
12.9354
13.196
13.4751
13.7753
14.0992
14.45
14.8319
15.2496
15.7092
16.2181
16.7858
17.4246
18.1509
18.9863
19.9622
21.1198
22.5338
24.281
26.6308
29.6168
34.9442
40.8793
61.7558
6.12604
6.12879
6.13559
6.14584
6.159
6.17484
6.19328
6.21424
6.23759
6.26322
6.29106
6.32103
6.35307
6.38713
6.42315
6.4611
6.50095
6.54267
6.58624
6.63163
6.67884
6.72787
6.77869
6.83132
6.88576
6.94201
7.00008
7.05999
7.12175
7.18539
7.25092
7.31837
7.38777
7.45916
7.53256
7.60801
7.68557
7.76527
7.84716
7.93129
8.01773
8.10653
8.19776
8.29149
8.38779
8.48675
8.58844
8.69296
8.80042
8.9109
9.02453
9.14142
9.2617
9.38551
9.51299
9.6443
9.77961
9.9191
10.063
10.2114
10.3647
10.523
10.6867
10.8559
11.0311
11.2126
11.4007
11.5958
11.7984
12.009
12.2281
12.4562
12.6911
12.9353
13.1959
13.475
13.7751
14.099
14.4498
14.8317
15.2494
15.7089
16.2177
16.7853
17.424
18.1502
18.9854
19.9609
21.1181
22.5313
24.2773
26.6239
29.6062
34.9049
40.8047
61.0267
6.12604
6.12879
6.13558
6.14584
6.159
6.17484
6.19328
6.21424
6.23759
6.26322
6.29106
6.32103
6.35307
6.38713
6.42315
6.4611
6.50095
6.54267
6.58624
6.63163
6.67884
6.72786
6.77869
6.83132
6.88575
6.942
7.00008
7.05999
7.12175
7.18539
7.25092
7.31837
7.38777
7.45915
7.53255
7.60801
7.68556
7.76526
7.84715
7.93129
8.01772
8.10652
8.19775
8.29148
8.38778
8.48674
8.58843
8.69295
8.80041
8.91089
9.02452
9.1414
9.26168
9.38549
9.51297
9.64428
9.77959
9.91908
10.0629
10.2114
10.3647
10.523
10.6866
10.8559
11.0311
11.2125
11.4006
11.5957
11.7983
12.0089
12.228
12.4561
12.691
12.9352
13.1958
13.4749
13.775
14.0988
14.4496
14.8314
15.2491
15.7085
16.2173
16.7848
17.4234
18.1494
18.9843
19.9595
21.1162
22.5286
24.2732
26.6165
29.5946
34.8629
40.7254
60.3006
6.12604
6.12879
6.13558
6.14584
6.159
6.17484
6.19328
6.21424
6.23759
6.26322
6.29106
6.32103
6.35307
6.38713
6.42315
6.4611
6.50095
6.54267
6.58624
6.63163
6.67884
6.72786
6.77869
6.83132
6.88575
6.942
7.00008
7.05999
7.12175
7.18538
7.25091
7.31837
7.38777
7.45915
7.53255
7.60801
7.68556
7.76526
7.84715
7.93128
8.01772
8.10652
8.19775
8.29147
8.38778
8.48673
8.58842
8.69295
8.8004
8.91088
9.0245
9.14139
9.26167
9.38547
9.51295
9.64426
9.77957
9.91906
10.0629
10.2114
10.3646
10.523
10.6866
10.8559
11.031
11.2125
11.4006
11.5957
11.7983
12.0088
12.2279
12.456
12.6909
12.9351
13.1956
13.4747
13.7748
14.0986
14.4494
14.8312
15.2488
15.7082
16.2168
16.7843
17.4227
18.1485
18.9832
19.9581
21.1142
22.5256
24.2689
26.6085
29.5821
34.8183
40.6414
59.5777
6.12604
6.12879
6.13558
6.14584
6.159
6.17484
6.19328
6.21424
6.23759
6.26322
6.29106
6.32103
6.35307
6.38713
6.42315
6.4611
6.50095
6.54267
6.58623
6.63163
6.67884
6.72786
6.77869
6.83132
6.88575
6.942
7.00007
7.05998
7.12175
7.18538
7.25091
7.31836
7.38776
7.45915
7.53255
7.608
7.68556
7.76525
7.84714
7.93128
8.01771
8.10651
8.19774
8.29147
8.38777
8.48672
8.58841
8.69294
8.80038
8.91087
9.02449
9.14138
9.26165
9.38546
9.51293
9.64424
9.77955
9.91903
10.0629
10.2113
10.3646
10.5229
10.6866
10.8558
11.031
11.2124
11.4005
11.5956
11.7982
12.0087
12.2278
12.4559
12.6908
12.9349
13.1955
13.4746
13.7746
14.0984
14.4492
14.8309
15.2484
15.7077
16.2163
16.7837
17.422
18.1476
18.982
19.9565
21.112
22.5224
24.2642
26.5999
29.5686
34.771
40.5526
58.8583
6.12604
6.12879
6.13558
6.14584
6.159
6.17484
6.19328
6.21424
6.23759
6.26322
6.29106
6.32103
6.35307
6.38712
6.42315
6.4611
6.50095
6.54267
6.58623
6.63163
6.67884
6.72786
6.77868
6.83131
6.88575
6.942
7.00007
7.05998
7.12174
7.18538
7.25091
7.31836
7.38776
7.45914
7.53254
7.608
7.68555
7.76525
7.84714
7.93127
8.01771
8.10651
8.19773
8.29146
8.38776
8.48671
8.5884
8.69292
8.80037
8.91085
9.02448
9.14136
9.26164
9.38544
9.51291
9.64422
9.77952
9.91901
10.0629
10.2113
10.3646
10.5229
10.6865
10.8558
11.0309
11.2124
11.4004
11.5955
11.7981
12.0087
12.2277
12.4558
12.6906
12.9348
13.1953
13.4744
13.7744
14.0981
14.4489
14.8306
15.2481
15.7073
16.2158
16.783
17.4212
18.1466
18.9807
19.9548
21.1096
22.519
24.2591
26.5907
29.554
34.721
40.4588
58.1427
6.12604
6.12879
6.13558
6.14584
6.159
6.17484
6.19328
6.21424
6.23758
6.26322
6.29106
6.32103
6.35307
6.38712
6.42315
6.4611
6.50095
6.54267
6.58623
6.63163
6.67884
6.72786
6.77868
6.83131
6.88575
6.942
7.00007
7.05998
7.12174
7.18538
7.25091
7.31836
7.38776
7.45914
7.53254
7.60799
7.68555
7.76524
7.84713
7.93126
8.0177
8.1065
8.19773
8.29145
8.38775
8.4867
8.58839
8.69291
8.80036
8.91084
9.02446
9.14134
9.26162
9.38542
9.51289
9.6442
9.7795
9.91898
10.0628
10.2113
10.3645
10.5228
10.6865
10.8557
11.0309
11.2123
11.4004
11.5955
11.798
12.0086
12.2276
12.4557
12.6905
12.9347
13.1952
13.4742
13.7742
14.0979
14.4486
14.8302
15.2477
15.7068
16.2152
16.7823
17.4204
18.1455
18.9793
19.9529
21.1071
22.5153
24.2536
26.5808
29.5384
34.6683
40.3601
57.431
6.12604
6.12879
6.13558
6.14584
6.15899
6.17484
6.19328
6.21424
6.23758
6.26322
6.29106
6.32103
6.35307
6.38712
6.42315
6.4611
6.50095
6.54267
6.58623
6.63162
6.67884
6.72786
6.77868
6.83131
6.88575
6.94199
7.00007
7.05998
7.12174
7.18537
7.2509
7.31835
7.38775
7.45914
7.53253
7.60799
7.68554
7.76524
7.84712
7.93126
8.01769
8.10649
8.19772
8.29144
8.38774
8.48669
8.58838
8.6929
8.80035
8.91082
9.02444
9.14133
9.2616
9.3854
9.51287
9.64417
9.77947
9.91895
10.0628
10.2112
10.3645
10.5228
10.6864
10.8557
11.0308
11.2122
11.4003
11.5954
11.7979
12.0085
12.2275
12.4556
12.6904
12.9345
13.195
13.474
13.7739
14.0976
14.4483
14.8299
15.2472
15.7063
16.2146
16.7816
17.4194
18.1444
18.9779
19.9509
21.1044
22.5113
24.2478
26.5702
29.5216
34.6127
40.2564
56.7234
6.12604
6.12879
6.13558
6.14584
6.15899
6.17483
6.19328
6.21423
6.23758
6.26322
6.29106
6.32103
6.35307
6.38712
6.42314
6.4611
6.50095
6.54266
6.58623
6.63162
6.67883
6.72785
6.77868
6.83131
6.88574
6.94199
7.00006
7.05997
7.12174
7.18537
7.2509
7.31835
7.38775
7.45913
7.53253
7.60798
7.68554
7.76523
7.84712
7.93125
8.01769
8.10648
8.19771
8.29143
8.38773
8.48668
8.58837
8.69289
8.80033
8.91081
9.02443
9.14131
9.26158
9.38537
9.51284
9.64414
9.77944
9.91891
10.0628
10.2112
10.3644
10.5227
10.6864
10.8556
11.0308
11.2122
11.4002
11.5953
11.7978
12.0084
12.2274
12.4554
12.6902
12.9343
13.1948
13.4738
13.7737
14.0973
14.448
14.8295
15.2468
15.7058
16.214
16.7808
17.4185
18.1431
18.9763
19.9488
21.1015
22.5071
24.2416
26.559
29.5036
34.5543
40.1477
56.0203
6.12604
6.12879
6.13558
6.14584
6.15899
6.17483
6.19328
6.21423
6.23758
6.26322
6.29106
6.32103
6.35307
6.38712
6.42314
6.4611
6.50094
6.54266
6.58623
6.63162
6.67883
6.72785
6.77868
6.83131
6.88574
6.94199
7.00006
7.05997
7.12173
7.18537
7.25089
7.31834
7.38774
7.45913
7.53252
7.60798
7.68553
7.76522
7.84711
7.93124
8.01768
8.10647
8.1977
8.29142
8.38772
8.48667
8.58835
8.69287
8.80031
8.91079
9.02441
9.14129
9.26156
9.38535
9.51282
9.64411
9.77941
9.91888
10.0627
10.2112
10.3644
10.5227
10.6863
10.8555
11.0307
11.2121
11.4001
11.5952
11.7977
12.0082
12.2272
12.4553
12.69
12.9341
13.1946
13.4735
13.7734
14.097
14.4476
14.8291
15.2463
15.7052
16.2133
16.78
17.4174
18.1418
18.9746
19.9466
21.0984
22.5026
24.2349
26.547
29.4844
34.4931
40.0338
55.3219
6.12604
6.12879
6.13558
6.14584
6.15899
6.17483
6.19328
6.21423
6.23758
6.26322
6.29105
6.32102
6.35306
6.38712
6.42314
6.46109
6.50094
6.54266
6.58623
6.63162
6.67883
6.72785
6.77867
6.8313
6.88574
6.94199
7.00006
7.05997
7.12173
7.18536
7.25089
7.31834
7.38774
7.45912
7.53252
7.60797
7.68552
7.76522
7.8471
7.93123
8.01767
8.10646
8.19769
8.29141
8.38771
8.48665
8.58834
8.69286
8.8003
8.91077
9.02439
9.14126
9.26153
9.38532
9.51279
9.64408
9.77937
9.91884
10.0627
10.2111
10.3643
10.5226
10.6863
10.8555
11.0306
11.212
11.4
11.5951
11.7976
12.0081
12.2271
12.4551
12.6899
12.9339
13.1944
13.4733
13.7731
14.0967
14.4472
14.8286
15.2458
15.7046
16.2126
16.7791
17.4163
18.1404
18.9728
19.9441
21.0951
22.4978
24.2278
26.5342
29.464
34.429
39.9148
54.6283
6.12604
6.12878
6.13558
6.14584
6.15899
6.17483
6.19328
6.21423
6.23758
6.26322
6.29105
6.32102
6.35306
6.38712
6.42314
6.46109
6.50094
6.54266
6.58622
6.63162
6.67883
6.72785
6.77867
6.8313
6.88574
6.94198
7.00006
7.05996
7.12172
7.18536
7.25089
7.31834
7.38773
7.45912
7.53251
7.60797
7.68552
7.76521
7.8471
7.93123
8.01766
8.10645
8.19768
8.2914
8.38769
8.48664
8.58832
8.69284
8.80028
8.91075
9.02437
9.14124
9.26151
9.3853
9.51276
9.64405
9.77934
9.9188
10.0626
10.2111
10.3643
10.5226
10.6862
10.8554
11.0305
11.2119
11.3999
11.595
11.7975
12.008
12.2269
12.455
12.6897
12.9337
13.1941
13.473
13.7728
14.0964
14.4468
14.8282
15.2452
15.704
16.2118
16.7781
17.4151
18.1389
18.9708
19.9416
21.0916
22.4926
24.2203
26.5206
29.4422
34.362
39.7907
53.9397
6.12604
6.12878
6.13558
6.14584
6.15899
6.17483
6.19328
6.21423
6.23758
6.26321
6.29105
6.32102
6.35306
6.38712
6.42314
6.46109
6.50094
6.54266
6.58622
6.63162
6.67883
6.72785
6.77867
6.8313
6.88573
6.94198
7.00005
7.05996
7.12172
7.18535
7.25088
7.31833
7.38773
7.45911
7.53251
7.60796
7.68551
7.7652
7.84709
7.93122
8.01765
8.10644
8.19767
8.29139
8.38768
8.48662
8.58831
8.69282
8.80026
8.91073
9.02434
9.14122
9.26148
9.38527
9.51272
9.64401
9.7793
9.91876
10.0626
10.211
10.3642
10.5225
10.6861
10.8553
11.0305
11.2118
11.3998
11.5949
11.7974
12.0078
12.2268
12.4548
12.6895
12.9335
13.1939
13.4727
13.7725
14.096
14.4464
14.8277
15.2446
15.7033
16.2109
16.7771
17.4139
18.1373
18.9688
19.9388
21.0879
22.4872
24.2122
26.5063
29.419
34.292
39.6613
53.2565
6.12604
6.12878
6.13558
6.14583
6.15899
6.17483
6.19328
6.21423
6.23758
6.26321
6.29105
6.32102
6.35306
6.38711
6.42314
6.46109
6.50094
6.54266
6.58622
6.63161
6.67882
6.72784
6.77867
6.83129
6.88573
6.94198
7.00005
7.05996
7.12172
7.18535
7.25088
7.31833
7.38772
7.4591
7.5325
7.60795
7.6855
7.76519
7.84708
7.93121
8.01764
8.10643
8.19765
8.29137
8.38766
8.48661
8.58829
8.6928
8.80024
8.91071
9.02432
9.14119
9.26145
9.38523
9.51269
9.64397
9.77925
9.91871
10.0625
10.211
10.3642
10.5225
10.686
10.8552
11.0304
11.2117
11.3997
11.5947
11.7972
12.0077
12.2266
12.4546
12.6893
12.9333
13.1936
13.4724
13.7722
14.0956
14.4459
14.8271
15.244
15.7025
16.21
16.776
17.4125
18.1356
18.9666
19.9359
21.0839
22.4814
24.2037
26.4911
29.3944
34.219
39.5268
52.5787
6.12603
6.12878
6.13558
6.14583
6.15899
6.17483
6.19327
6.21423
6.23758
6.26321
6.29105
6.32102
6.35306
6.38711
6.42314
6.46109
6.50094
6.54265
6.58622
6.63161
6.67882
6.72784
6.77866
6.83129
6.88573
6.94197
7.00004
7.05995
7.12171
7.18534
7.25087
7.31832
7.38772
7.4591
7.53249
7.60794
7.68549
7.76519
7.84707
7.9312
8.01763
8.10642
8.19764
8.29136
8.38765
8.48659
8.58827
8.69278
8.80022
8.91068
9.02429
9.14116
9.26142
9.3852
9.51265
9.64393
9.77921
9.91866
10.0625
10.2109
10.3641
10.5224
10.686
10.8552
11.0303
11.2116
11.3996
11.5946
11.7971
12.0075
12.2264
12.4544
12.6891
12.933
13.1933
13.4721
13.7718
14.0952
14.4455
14.8266
15.2434
15.7017
16.2091
16.7749
17.4111
18.1338
18.9643
19.9329
21.0797
22.4753
24.1946
26.475
29.3684
34.1431
39.387
51.9065
6.12603
6.12878
6.13557
6.14583
6.15899
6.17483
6.19327
6.21423
6.23757
6.26321
6.29105
6.32102
6.35306
6.38711
6.42313
6.46109
6.50093
6.54265
6.58621
6.63161
6.67882
6.72784
6.77866
6.83129
6.88572
6.94197
7.00004
7.05995
7.12171
7.18534
7.25087
7.31831
7.38771
7.45909
7.53249
7.60794
7.68548
7.76518
7.84706
7.93119
8.01762
8.10641
8.19763
8.29134
8.38763
8.48657
8.58825
8.69276
8.8002
8.91066
9.02427
9.14113
9.26139
9.38517
9.51261
9.64389
9.77916
9.91861
10.0624
10.2108
10.364
10.5223
10.6859
10.8551
11.0302
11.2115
11.3995
11.5945
11.7969
12.0074
12.2263
12.4542
12.6888
12.9328
13.193
13.4718
13.7714
14.0947
14.4449
14.826
15.2427
15.7009
16.2081
16.7736
17.4096
18.1319
18.9618
19.9296
21.0752
22.4688
24.185
26.458
29.3408
34.0642
39.2419
51.2402
6.12603
6.12878
6.13557
6.14583
6.15899
6.17483
6.19327
6.21423
6.23757
6.26321
6.29105
6.32102
6.35306
6.38711
6.42313
6.46108
6.50093
6.54265
6.58621
6.63161
6.67882
6.72783
6.77866
6.83128
6.88572
6.94197
7.00004
7.05994
7.1217
7.18533
7.25086
7.31831
7.3877
7.45908
7.53248
7.60793
7.68548
7.76517
7.84705
7.93117
8.0176
8.10639
8.19761
8.29133
8.38761
8.48656
8.58823
8.69274
8.80017
8.91063
9.02424
9.1411
9.26135
9.38513
9.51257
9.64385
9.77911
9.91856
10.0624
10.2108
10.364
10.5222
10.6858
10.855
11.0301
11.2114
11.3994
11.5943
11.7968
12.0072
12.226
12.454
12.6886
12.9325
13.1927
13.4714
13.771
14.0943
14.4444
14.8254
15.2419
15.7
16.207
16.7723
17.408
18.1299
18.9592
19.9261
21.0705
22.4619
24.1749
26.4401
29.3116
33.9822
39.0917
50.5798
6.12603
6.12878
6.13557
6.14583
6.15898
6.17482
6.19327
6.21422
6.23757
6.26321
6.29105
6.32101
6.35305
6.38711
6.42313
6.46108
6.50093
6.54265
6.58621
6.6316
6.67881
6.72783
6.77865
6.83128
6.88571
6.94196
7.00003
7.05994
7.1217
7.18533
7.25085
7.3183
7.3877
7.45908
7.53247
7.60792
7.68547
7.76516
7.84704
7.93116
8.01759
8.10638
8.1976
8.29131
8.3876
8.48653
8.58821
8.69272
8.80014
8.9106
9.02421
9.14107
9.26131
9.38509
9.51253
9.6438
9.77906
9.9185
10.0623
10.2107
10.3639
10.5221
10.6857
10.8549
11.0299
11.2113
11.3992
11.5942
11.7966
12.007
12.2258
12.4537
12.6883
12.9322
13.1924
13.471
13.7706
14.0938
14.4438
14.8247
15.2411
15.6991
16.2059
16.771
17.4063
18.1278
18.9564
19.9225
21.0655
22.4547
24.1641
26.4213
29.2808
33.8971
38.9362
49.9257
6.12603
6.12878
6.13557
6.14583
6.15898
6.17482
6.19327
6.21422
6.23757
6.26321
6.29104
6.32101
6.35305
6.38711
6.42313
6.46108
6.50093
6.54264
6.58621
6.6316
6.67881
6.72783
6.77865
6.83128
6.88571
6.94196
7.00003
7.05993
7.12169
7.18532
7.25085
7.31829
7.38769
7.45907
7.53246
7.60791
7.68546
7.76514
7.84702
7.93115
8.01757
8.10636
8.19758
8.29129
8.38758
8.48651
8.58819
8.69269
8.80012
8.91057
9.02417
9.14103
9.26128
9.38504
9.51248
9.64375
9.77901
9.91844
10.0622
10.2106
10.3638
10.5221
10.6856
10.8548
11.0298
11.2111
11.3991
11.594
11.7964
12.0068
12.2256
12.4535
12.688
12.9319
13.192
13.4706
13.7701
14.0932
14.4432
14.824
15.2403
15.6981
16.2047
16.7695
17.4045
18.1255
18.9535
19.9186
21.0602
22.447
24.1528
26.4014
29.2483
33.809
38.7755
49.2778
6.12603
6.12878
6.13557
6.14583
6.15898
6.17482
6.19327
6.21422
6.23757
6.2632
6.29104
6.32101
6.35305
6.3871
6.42313
6.46108
6.50092
6.54264
6.5862
6.6316
6.67881
6.72782
6.77865
6.83127
6.88571
6.94195
7.00002
7.05993
7.12169
7.18532
7.25084
7.31829
7.38768
7.45906
7.53245
7.6079
7.68544
7.76513
7.84701
7.93114
8.01756
8.10635
8.19756
8.29127
8.38756
8.48649
8.58816
8.69266
8.80009
8.91054
9.02414
9.14099
9.26124
9.385
9.51243
9.64369
9.77895
9.91838
10.0622
10.2106
10.3637
10.522
10.6855
10.8546
11.0297
11.211
11.3989
11.5938
11.7962
12.0066
12.2254
12.4532
12.6877
12.9315
13.1916
13.4702
13.7696
14.0927
14.4426
14.8232
15.2394
15.697
16.2035
16.768
17.4026
18.1231
18.9505
19.9145
21.0546
22.4389
24.1408
26.3805
29.214
33.7178
38.6096
48.6363
6.12603
6.12878
6.13557
6.14583
6.15898
6.17482
6.19327
6.21422
6.23757
6.2632
6.29104
6.32101
6.35305
6.3871
6.42312
6.46107
6.50092
6.54264
6.5862
6.63159
6.6788
6.72782
6.77864
6.83127
6.8857
6.94195
7.00002
7.05992
7.12168
7.18531
7.25083
7.31828
7.38767
7.45905
7.53244
7.60789
7.68543
7.76512
7.847
7.93112
8.01754
8.10633
8.19754
8.29125
8.38753
8.48647
8.58814
8.69264
8.80006
8.91051
9.0241
9.14095
9.26119
9.38495
9.51238
9.64364
9.77889
9.91831
10.0621
10.2105
10.3636
10.5219
10.6854
10.8545
11.0296
11.2108
11.3987
11.5937
11.796
12.0063
12.2251
12.4529
12.6874
12.9312
13.1913
13.4697
13.7691
14.0921
14.4419
14.8224
15.2385
15.6959
16.2021
16.7664
17.4006
18.1206
18.9472
19.9102
21.0487
22.4304
24.1282
26.3586
29.178
33.6235
38.4386
48.0015
6.12603
6.12877
6.13557
6.14582
6.15898
6.17482
6.19326
6.21422
6.23757
6.2632
6.29104
6.32101
6.35304
6.3871
6.42312
6.46107
6.50092
6.54263
6.5862
6.63159
6.6788
6.72782
6.77864
6.83126
6.8857
6.94194
7.00001
7.05992
7.12167
7.1853
7.25083
7.31827
7.38766
7.45904
7.53243
7.60788
7.68542
7.76511
7.84698
7.93111
8.01753
8.10631
8.19752
8.29123
8.38751
8.48644
8.58811
8.69261