/*--------------------------------*- C++ -*----------------------------------*\
| =========                 |                                                 |
| \\      /  F ield         | OpenFOAM: The Open Source CFD Toolbox           |
|  \\    /   O peration     | Version:  v2012                                 |
|   \\  /    A nd           | Website:  www.openfoam.com                      |
|    \\/     M anipulation  |                                                 |
\*---------------------------------------------------------------------------*/
FoamFile
{
    version     2.0;
    format      ascii;
    class       volScalarField;
    location    "22";
    object      epsilon;
}
// * * * * * * * * * * * * * * * * * * * * * * * * * * * * * * * * * * * * * //

dimensions      [0 2 -3 0 0 0 0];


internalField   nonuniform List<scalar> 
209825
(
0.755539
0.665436
0.619971
0.594512
0.578625
0.567942
0.560315
0.554682
0.550346
0.546967
0.544233
0.542027
0.540174
0.538638
0.537318
0.536211
0.535232
0.534403
0.533653
0.533016
0.532426
0.531923
0.531454
0.531059
0.530678
0.530357
0.530048
0.529796
0.529539
0.529325
0.529122
0.52896
0.52879
0.528653
0.528518
0.528418
0.528293
0.528203
0.528113
0.528049
0.527986
0.527943
0.527867
0.527828
0.527799
0.52777
0.527702
0.527699
0.527696
0.527691
0.527667
0.527755
0.527755
0.527755
0.527811
0.527811
0.527902
0.528042
0.52815
0.528309
0.528322
0.528322
0.528408
0.528548
0.528759
0.528893
0.528974
0.529121
0.529337
0.529494
0.529704
0.529927
0.53012
0.530343
0.530563
0.530814
0.531077
0.531411
0.531676
0.532092
0.532389
0.532869
0.533209
0.533796
0.534186
0.534934
0.535391
0.536359
0.536934
0.538197
0.538917
0.541189
0.541728
0.550477
2.89916
534.372
0.755539
0.665429
0.619956
0.594492
0.578601
0.567914
0.560286
0.554651
0.550314
0.546934
0.544199
0.541992
0.540139
0.538602
0.537282
0.536174
0.535195
0.534366
0.533616
0.532978
0.532389
0.531885
0.531416
0.531021
0.53064
0.530319
0.53001
0.529757
0.5295
0.529286
0.529083
0.528922
0.528751
0.528614
0.528479
0.528379
0.528254
0.528164
0.528074
0.52801
0.527947
0.527904
0.527828
0.527789
0.52776
0.527731
0.527663
0.52766
0.527657
0.527651
0.527628
0.527716
0.527716
0.527716
0.527771
0.527771
0.527863
0.528003
0.528111
0.52827
0.528282
0.528282
0.528368
0.528508
0.528719
0.528854
0.528934
0.529081
0.529297
0.529455
0.529664
0.529888
0.53008
0.530304
0.530524
0.530775
0.531037
0.531372
0.531637
0.532053
0.532349
0.53283
0.533169
0.533757
0.534147
0.534895
0.535352
0.53632
0.536894
0.538157
0.538878
0.54115
0.541688
0.550451
2.90387
531.04
0.755537
0.66539
0.619886
0.594399
0.578493
0.567796
0.560159
0.554518
0.550177
0.546793
0.544055
0.541845
0.53999
0.538452
0.53713
0.536021
0.535041
0.534211
0.533459
0.532821
0.532231
0.531727
0.531257
0.530861
0.53048
0.530159
0.529849
0.529596
0.529339
0.529124
0.528921
0.52876
0.528589
0.528452
0.528317
0.528216
0.528091
0.528001
0.527911
0.527846
0.527783
0.52774
0.527664
0.527625
0.527596
0.527567
0.527499
0.527496
0.527493
0.527487
0.527463
0.527551
0.527551
0.527551
0.527607
0.527607
0.527698
0.527838
0.527946
0.528105
0.528118
0.528118
0.528204
0.528344
0.528555
0.528689
0.52877
0.528917
0.529133
0.52929
0.5295
0.529723
0.529916
0.530139
0.530359
0.53061
0.530873
0.531207
0.531472
0.531888
0.532184
0.532665
0.533005
0.533592
0.533982
0.53473
0.535187
0.536154
0.536729
0.537991
0.538712
0.540983
0.541518
0.550309
2.9141
527.162
0.755533
0.665325
0.619767
0.594243
0.578311
0.567596
0.559946
0.554294
0.549945
0.546555
0.543811
0.541598
0.539739
0.538198
0.536873
0.535762
0.53478
0.533949
0.533196
0.532556
0.531965
0.53146
0.530989
0.530592
0.53021
0.529888
0.529578
0.529324
0.529067
0.528852
0.528648
0.528486
0.528315
0.528178
0.528042
0.527941
0.527816
0.527726
0.527635
0.527571
0.527507
0.527464
0.527388
0.527348
0.527319
0.52729
0.527222
0.527219
0.527216
0.52721
0.527186
0.527274
0.527274
0.527274
0.527329
0.527329
0.527421
0.52756
0.527668
0.527827
0.52784
0.52784
0.527926
0.528066
0.528276
0.528411
0.528492
0.528639
0.528855
0.529012
0.529222
0.529445
0.529638
0.529861
0.530081
0.530332
0.530595
0.530929
0.531194
0.53161
0.531906
0.532387
0.532726
0.533313
0.533703
0.534451
0.534907
0.535874
0.536449
0.537711
0.53843
0.540701
0.541232
0.550065
2.93019
523.508
0.755527
0.665232
0.619599
0.594022
0.578054
0.567313
0.559644
0.553978
0.549617
0.546218
0.543467
0.541248
0.539384
0.537839
0.536511
0.535397
0.534412
0.533578
0.532823
0.532182
0.531589
0.531082
0.53061
0.530212
0.529829
0.529506
0.529195
0.528941
0.528682
0.528466
0.528262
0.5281
0.527928
0.52779
0.527654
0.527553
0.527427
0.527337
0.527246
0.527181
0.527117
0.527074
0.526997
0.526958
0.526928
0.526899
0.526831
0.526828
0.526825
0.526819
0.526794
0.526882
0.526882
0.526881
0.526937
0.526937
0.527028
0.527168
0.527275
0.527434
0.527447
0.527447
0.527534
0.527673
0.527884
0.528019
0.5281
0.528246
0.528462
0.52862
0.528829
0.529053
0.529245
0.529469
0.529689
0.52994
0.530202
0.530536
0.530801
0.531217
0.531513
0.531993
0.532333
0.53292
0.533309
0.534057
0.534513
0.535479
0.536053
0.537313
0.538032
0.540301
0.540827
0.549718
2.95258
520.422
0.75552
0.665111
0.61938
0.593735
0.57772
0.566946
0.559252
0.553568
0.549192
0.545782
0.543022
0.540794
0.538924
0.537373
0.536041
0.534923
0.533934
0.533097
0.53234
0.531696
0.531101
0.530592
0.530118
0.529719
0.529335
0.529011
0.528698
0.528443
0.528184
0.527967
0.527762
0.527598
0.527426
0.527288
0.527151
0.527049
0.526923
0.526832
0.526741
0.526676
0.526612
0.526568
0.526491
0.526451
0.526422
0.526393
0.526325
0.526321
0.526318
0.526311
0.526286
0.526373
0.526373
0.526373
0.526428
0.526428
0.526519
0.526659
0.526766
0.526925
0.526938
0.526938
0.527025
0.527164
0.527374
0.527509
0.527591
0.527737
0.527953
0.528111
0.52832
0.528543
0.528736
0.528959
0.529179
0.52943
0.529692
0.530027
0.530291
0.530707
0.531003
0.531483
0.531822
0.532409
0.532798
0.533545
0.534001
0.534966
0.535539
0.536798
0.537515
0.539783
0.540302
0.549266
2.98167
518.066
0.755511
0.664964
0.619112
0.593383
0.57731
0.566494
0.55877
0.553062
0.548669
0.545244
0.542472
0.540236
0.538358
0.5368
0.535461
0.534338
0.533346
0.532505
0.531744
0.531098
0.5305
0.529989
0.529513
0.529112
0.528726
0.5284
0.528086
0.527829
0.527569
0.527351
0.527145
0.526981
0.526808
0.526669
0.526531
0.526429
0.526302
0.52621
0.526118
0.526053
0.525988
0.525944
0.525867
0.525827
0.525797
0.525768
0.5257
0.525695
0.525692
0.525685
0.52566
0.525746
0.525746
0.525746
0.525801
0.525801
0.525892
0.526031
0.526138
0.526297
0.526311
0.526311
0.526397
0.526536
0.526746
0.526882
0.526964
0.52711
0.527325
0.527483
0.527691
0.527915
0.528108
0.528331
0.528551
0.528803
0.529064
0.529399
0.529663
0.530078
0.530374
0.530854
0.531193
0.53178
0.532168
0.532915
0.53337
0.534333
0.534906
0.536163
0.536879
0.539144
0.539654
0.54871
3.01791
516.497
0.755501
0.664788
0.618793
0.592963
0.576821
0.565956
0.558195
0.55246
0.548045
0.544603
0.541818
0.53957
0.537682
0.536117
0.534771
0.533642
0.532645
0.5318
0.531035
0.530385
0.529784
0.52927
0.528791
0.528388
0.528
0.527672
0.527357
0.527099
0.526837
0.526618
0.52641
0.526245
0.526071
0.525931
0.525792
0.525689
0.525561
0.525469
0.525377
0.525311
0.525245
0.525201
0.525124
0.525083
0.525052
0.525023
0.524955
0.52495
0.524947
0.52494
0.524913
0.524999
0.524999
0.524999
0.525054
0.525054
0.525145
0.525284
0.52539
0.525549
0.525563
0.525563
0.525649
0.525788
0.525997
0.526134
0.526216
0.526362
0.526576
0.526735
0.526943
0.527167
0.52736
0.527583
0.527803
0.528054
0.528315
0.52865
0.528913
0.529329
0.529625
0.530105
0.530443
0.531029
0.531417
0.532163
0.532617
0.533579
0.534151
0.535406
0.536119
0.538382
0.538883
0.548048
3.06172
515.7
0.755489
0.664586
0.618423
0.592477
0.576254
0.565331
0.557528
0.551761
0.547321
0.543859
0.541057
0.538796
0.536897
0.535322
0.533969
0.532833
0.531829
0.530979
0.530209
0.529555
0.528951
0.528434
0.527952
0.527546
0.527156
0.526826
0.526509
0.526248
0.525985
0.525764
0.525556
0.525389
0.525213
0.525072
0.524933
0.524829
0.5247
0.524608
0.524514
0.524447
0.524381
0.524336
0.524259
0.524218
0.524187
0.524157
0.524089
0.524084
0.52408
0.524072
0.524045
0.524131
0.524131
0.52413
0.524184
0.524184
0.524275
0.524414
0.52452
0.524679
0.524693
0.524693
0.52478
0.524918
0.525126
0.525264
0.525347
0.525492
0.525706
0.525865
0.526072
0.526297
0.526489
0.526713
0.526933
0.527184
0.527444
0.527779
0.528042
0.528458
0.528753
0.529233
0.52957
0.530157
0.530543
0.531289
0.531742
0.532702
0.533273
0.534526
0.535236
0.537496
0.537985
0.547278
3.11349
515.61
0.755476
0.664356
0.618003
0.591922
0.575607
0.564618
0.556767
0.550963
0.546494
0.543009
0.540189
0.537912
0.536001
0.534415
0.533052
0.531909
0.530898
0.530042
0.529267
0.528608
0.527999
0.527479
0.526994
0.526585
0.526192
0.525859
0.52554
0.525277
0.525012
0.52479
0.524579
0.524411
0.524234
0.524092
0.523951
0.523846
0.523717
0.523623
0.523529
0.523461
0.523395
0.523349
0.523271
0.523229
0.523197
0.523168
0.5231
0.523094
0.52309
0.523082
0.523053
0.523138
0.523138
0.523138
0.523191
0.523191
0.523282
0.52342
0.523525
0.523685
0.523699
0.523699
0.523786
0.523923
0.524132
0.52427
0.524353
0.524498
0.524712
0.524871
0.525078
0.525302
0.525495
0.525719
0.525938
0.526189
0.526449
0.526784
0.527046
0.527462
0.527757
0.528237
0.528573
0.529159
0.529545
0.53029
0.530742
0.5317
0.53227
0.533519
0.534227
0.536484
0.53696
0.546401
3.17362
516.126
0.755462
0.664099
0.617531
0.5913
0.57488
0.563817
0.55591
0.550064
0.545563
0.542052
0.539211
0.536917
0.534992
0.533394
0.53202
0.530868
0.52985
0.528987
0.528206
0.527542
0.526928
0.526404
0.525915
0.525502
0.525106
0.524771
0.524449
0.524184
0.523917
0.523692
0.52348
0.52331
0.523132
0.522988
0.522846
0.52274
0.522609
0.522514
0.522419
0.522351
0.522283
0.522237
0.522158
0.522116
0.522083
0.522054
0.521986
0.521979
0.521975
0.521966
0.521936
0.52202
0.52202
0.52202
0.522073
0.522073
0.522163
0.522301
0.522406
0.522565
0.52258
0.52258
0.522667
0.522804
0.523011
0.52315
0.523234
0.523378
0.523591
0.523751
0.523957
0.524182
0.524374
0.524598
0.524818
0.525069
0.525328
0.525663
0.525925
0.52634
0.526634
0.527114
0.52745
0.528036
0.52842
0.529164
0.529616
0.530571
0.531139
0.532386
0.533091
0.535343
0.535805
0.545414
3.24246
517.126
0.755448
0.663815
0.617008
0.590609
0.574072
0.562926
0.554958
0.549065
0.544528
0.540988
0.538123
0.53581
0.533868
0.532257
0.530872
0.529709
0.528682
0.527812
0.527024
0.526354
0.525736
0.525206
0.524713
0.524297
0.523897
0.523559
0.523234
0.522966
0.522697
0.52247
0.522255
0.522084
0.521904
0.521759
0.521615
0.521507
0.521376
0.52128
0.521183
0.521114
0.521045
0.520998
0.520919
0.520876
0.520843
0.520813
0.520745
0.520737
0.520733
0.520723
0.520692
0.520775
0.520775
0.520775
0.520828
0.520828
0.520917
0.521055
0.521159
0.521318
0.521334
0.521334
0.52142
0.521556
0.521763
0.521903
0.521988
0.522131
0.522344
0.522504
0.52271
0.522934
0.523127
0.523351
0.52357
0.523822
0.524079
0.524415
0.524676
0.525091
0.525384
0.525864
0.526199
0.526785
0.527168
0.527911
0.528361
0.529314
0.52988
0.531123
0.531825
0.534073
0.534518
0.544317
3.32031
518.47
0.755433
0.663504
0.616434
0.589849
0.573183
0.561945
0.553909
0.547964
0.543386
0.539815
0.536924
0.534589
0.53263
0.531003
0.529605
0.528432
0.527395
0.526516
0.525721
0.525045
0.52442
0.523886
0.523388
0.522967
0.522563
0.522222
0.521893
0.521623
0.521351
0.521122
0.520905
0.520731
0.520549
0.520402
0.520257
0.520148
0.520015
0.519918
0.51982
0.51975
0.51968
0.519632
0.519552
0.519508
0.519474
0.519444
0.519376
0.519368
0.519362
0.519352
0.51932
0.519402
0.519402
0.519402
0.519453
0.519453
0.519543
0.51968
0.519783
0.519942
0.519959
0.519958
0.520045
0.52018
0.520386
0.520527
0.520613
0.520756
0.520967
0.521128
0.521333
0.521557
0.52175
0.521974
0.522193
0.522445
0.522701
0.523037
0.523297
0.523712
0.524005
0.524485
0.524819
0.525404
0.525786
0.526527
0.526976
0.527926
0.528491
0.52973
0.530428
0.532672
0.533099
0.543108
3.40742
520.011
0.755417
0.663167
0.61581
0.58902
0.572213
0.560873
0.552762
0.546761
0.542138
0.538531
0.535612
0.533254
0.531274
0.529631
0.528219
0.527034
0.525986
0.525098
0.524295
0.523612
0.52298
0.52244
0.521937
0.521512
0.521104
0.520759
0.520426
0.520153
0.519878
0.519646
0.519427
0.519251
0.519067
0.518918
0.51877
0.51866
0.518525
0.518427
0.518328
0.518256
0.518185
0.518136
0.518056
0.518011
0.517976
0.517945
0.517877
0.517868
0.517862
0.517851
0.517818
0.517898
0.517899
0.517898
0.517949
0.517949
0.518038
0.518175
0.518276
0.518435
0.518453
0.518453
0.51854
0.518674
0.518879
0.519021
0.519107
0.519249
0.51946
0.519621
0.519825
0.52005
0.520243
0.520467
0.520685
0.520938
0.521193
0.521528
0.521788
0.522203
0.522495
0.522974
0.523307
0.523892
0.524272
0.525013
0.52546
0.526406
0.52697
0.528204
0.528898
0.531137
0.531545
0.541785
3.50396
521.604
0.755401
0.662804
0.615134
0.588122
0.57116
0.55971
0.551517
0.545454
0.540783
0.537137
0.534186
0.531802
0.529801
0.52814
0.526713
0.525514
0.524455
0.523557
0.522745
0.522053
0.521415
0.520869
0.52036
0.51993
0.519517
0.519167
0.518831
0.518555
0.518276
0.518042
0.517819
0.517641
0.517454
0.517304
0.517154
0.517042
0.516906
0.516806
0.516705
0.516632
0.51656
0.51651
0.516429
0.516383
0.516347
0.516316
0.516247
0.516237
0.516231
0.516219
0.516184
0.516263
0.516263
0.516263
0.516313
0.516313
0.516401
0.516538
0.516638
0.516797
0.516815
0.516815
0.516902
0.517036
0.51724
0.517383
0.51747
0.517611
0.517821
0.517983
0.518186
0.518411
0.518603
0.518828
0.519045
0.519298
0.519552
0.519888
0.520147
0.520561
0.520852
0.521331
0.521663
0.522247
0.522626
0.523365
0.523811
0.524754
0.525315
0.526545
0.527234
0.529468
0.529855
0.540348
3.61
523.108
0.755386
0.662415
0.614408
0.587156
0.570026
0.558455
0.550174
0.544042
0.539319
0.535631
0.532646
0.530234
0.52821
0.526529
0.525085
0.523871
0.5228
0.521891
0.521069
0.520369
0.519723
0.51917
0.518655
0.518219
0.517801
0.517447
0.517107
0.516827
0.516545
0.516307
0.516081
0.5159
0.515711
0.515558
0.515406
0.515292
0.515155
0.515053
0.514951
0.514876
0.514802
0.514752
0.514669
0.514622
0.514585
0.514554
0.514485
0.514474
0.514467
0.514455
0.514418
0.514495
0.514496
0.514495
0.514544
0.514544
0.514632
0.514768
0.514867
0.515026
0.515045
0.515045
0.515132
0.515264
0.515467
0.515611
0.515699
0.51584
0.516049
0.516211
0.516413
0.516638
0.516831
0.517055
0.517272
0.517525
0.517777
0.518114
0.518371
0.518785
0.519076
0.519555
0.519885
0.520468
0.520845
0.521583
0.522027
0.522966
0.523525
0.52475
0.525434
0.527663
0.528028
0.538795
3.72551
524.393
0.75537
0.662002
0.613632
0.58612
0.568809
0.557109
0.548731
0.542526
0.537745
0.534012
0.530991
0.528548
0.526499
0.524797
0.523334
0.522105
0.52102
0.520099
0.519266
0.518557
0.517903
0.517343
0.516821
0.516379
0.515956
0.515597
0.515252
0.514968
0.514682
0.514441
0.514212
0.514028
0.513836
0.513681
0.513526
0.51341
0.513271
0.513167
0.513063
0.512987
0.512912
0.51286
0.512777
0.512729
0.51269
0.512658
0.512589
0.512577
0.512569
0.512556
0.512518
0.512593
0.512593
0.512593
0.512641
0.512641
0.512728
0.512864
0.512961
0.51312
0.51314
0.51314
0.513226
0.513358
0.513559
0.513705
0.513794
0.513934
0.514142
0.514304
0.514505
0.51473
0.514923
0.515147
0.515364
0.515617
0.515868
0.516204
0.516461
0.516874
0.517164
0.517642
0.517971
0.518554
0.518929
0.519665
0.520107
0.521042
0.521599
0.522818
0.523497
0.52572
0.526062
0.537123
3.85029
525.338
0.755355
0.661564
0.612807
0.585016
0.56751
0.55567
0.547188
0.540905
0.536063
0.53228
0.529219
0.526744
0.524668
0.522943
0.52146
0.520214
0.519114
0.51818
0.517337
0.516618
0.515955
0.515386
0.514857
0.514409
0.51398
0.513616
0.513266
0.512977
0.512687
0.512443
0.51221
0.512023
0.511828
0.51167
0.511513
0.511395
0.511253
0.511148
0.511042
0.510964
0.510887
0.510834
0.510749
0.5107
0.51066
0.510627
0.510558
0.510545
0.510536
0.510522
0.510482
0.510556
0.510556
0.510556
0.510602
0.510602
0.510689
0.510824
0.510919
0.511078
0.511099
0.511099
0.511186
0.511316
0.511516
0.511663
0.511753
0.511892
0.512099
0.512262
0.512461
0.512686
0.512879
0.513104
0.51332
0.513573
0.513822
0.514158
0.514414
0.514827
0.515115
0.515593
0.515921
0.516503
0.516876
0.51761
0.51805
0.51898
0.519535
0.520749
0.521422
0.523639
0.523956
0.535332
3.98402
525.838
0.755341
0.661102
0.611932
0.583844
0.566129
0.554139
0.545546
0.539178
0.53427
0.530435
0.527331
0.524821
0.522715
0.520965
0.519462
0.518198
0.517082
0.516134
0.515279
0.514549
0.513876
0.513299
0.512763
0.512308
0.511872
0.511502
0.511147
0.510853
0.510559
0.510311
0.510074
0.509883
0.509686
0.509525
0.509365
0.509244
0.5091
0.508993
0.508885
0.508805
0.508726
0.508672
0.508586
0.508536
0.508494
0.508461
0.508391
0.508377
0.508367
0.508353
0.50831
0.508382
0.508382
0.508382
0.508427
0.508427
0.508513
0.508647
0.508741
0.508899
0.508921
0.508921
0.509008
0.509137
0.509336
0.509483
0.509575
0.509713
0.509918
0.510082
0.51028
0.510505
0.510698
0.510923
0.511138
0.511391
0.511639
0.511975
0.51223
0.512642
0.512929
0.513407
0.513732
0.514313
0.514685
0.515416
0.515854
0.51678
0.517332
0.518539
0.519207
0.521417
0.521709
0.533418
4.12614
525.804
0.755328
0.660618
0.61101
0.582604
0.564666
0.552515
0.543804
0.537346
0.532366
0.528475
0.525325
0.522778
0.520641
0.518865
0.517339
0.516055
0.514922
0.51396
0.513091
0.51235
0.511667
0.511081
0.510536
0.510074
0.509632
0.509256
0.508895
0.508596
0.508297
0.508044
0.507804
0.507609
0.507408
0.507244
0.507081
0.506958
0.506812
0.506702
0.506592
0.506511
0.506429
0.506374
0.506287
0.506235
0.506192
0.506158
0.506088
0.506072
0.506061
0.506046
0.506001
0.506071
0.506071
0.506071
0.506114
0.506114
0.506199
0.506333
0.506424
0.506582
0.506605
0.506606
0.506692
0.506821
0.507017
0.507166
0.507259
0.507396
0.5076
0.507764
0.507961
0.508186
0.508378
0.508603
0.508818
0.509072
0.509317
0.509654
0.509906
0.510318
0.510604
0.511081
0.511405
0.511985
0.512354
0.513083
0.513519
0.51444
0.514988
0.51619
0.516851
0.519054
0.519319
0.531379
4.27594
525.165
0.755317
0.660111
0.610039
0.581297
0.563121
0.5508
0.541962
0.535407
0.530352
0.526401
0.523202
0.520615
0.518444
0.51664
0.51509
0.513786
0.512635
0.511657
0.510774
0.510021
0.509327
0.508732
0.508178
0.507707
0.507258
0.506876
0.506509
0.506204
0.5059
0.505643
0.505398
0.5052
0.504995
0.504828
0.504662
0.504536
0.504387
0.504275
0.504162
0.504079
0.503995
0.503938
0.50385
0.503796
0.503751
0.503717
0.503646
0.503629
0.503617
0.503601
0.503554
0.503622
0.503622
0.503621
0.503663
0.503663
0.503747
0.50388
0.50397
0.504127
0.504151
0.504151
0.504238
0.504365
0.50456
0.50471
0.504804
0.50494
0.505143
0.505307
0.505503
0.505728
0.50592
0.506145
0.506358
0.506612
0.506856
0.507192
0.507444
0.507855
0.508139
0.508616
0.508938
0.509517
0.509883
0.51061
0.511043
0.511959
0.512504
0.513699
0.514353
0.516549
0.516786
0.529214
4.4324
523.849
0.755307
0.659583
0.609022
0.579923
0.561496
0.548993
0.54002
0.533362
0.528227
0.524212
0.520962
0.518331
0.516125
0.514291
0.512715
0.511389
0.510219
0.509224
0.508327
0.507561
0.506855
0.506249
0.505686
0.505207
0.50475
0.504361
0.503987
0.503677
0.503368
0.503106
0.502856
0.502654
0.502445
0.502275
0.502105
0.501976
0.501825
0.50171
0.501595
0.501509
0.501423
0.501364
0.501275
0.501219
0.501173
0.501138
0.501066
0.501047
0.501034
0.501017
0.500968
0.501034
0.501033
0.501033
0.501073
0.501073
0.501156
0.501288
0.501375
0.501532
0.501558
0.501557
0.501644
0.50177
0.501963
0.502114
0.502209
0.502344
0.502545
0.50271
0.502904
0.503129
0.503321
0.503546
0.503758
0.504013
0.504254
0.50459
0.50484
0.505251
0.505534
0.506009
0.506329
0.506907
0.507271
0.507995
0.508426
0.509336
0.509878
0.511065
0.511713
0.5139
0.51411
0.526918
4.5943
521.811
0.755298
0.659034
0.607959
0.578484
0.559789
0.547094
0.537978
0.531212
0.525991
0.521908
0.518603
0.515927
0.513683
0.511818
0.510214
0.508865
0.507674
0.506662
0.505749
0.504969
0.504251
0.503634
0.50306
0.502573
0.502108
0.501711
0.501331
0.501014
0.5007
0.500433
0.500178
0.499971
0.499758
0.499584
0.499411
0.499278
0.499124
0.499007
0.498889
0.498801
0.498713
0.498652
0.498561
0.498504
0.498455
0.498419
0.498347
0.498327
0.498312
0.498294
0.498243
0.498306
0.498306
0.498304
0.498343
0.498343
0.498425
0.498555
0.498641
0.498797
0.498824
0.498823
0.49891
0.499035
0.499226
0.499377
0.499473
0.499608
0.499807
0.499973
0.500165
0.50039
0.500581
0.500806
0.501018
0.501272
0.501512
0.501848
0.502096
0.502505
0.502787
0.503262
0.503579
0.504155
0.504517
0.505237
0.505666
0.50657
0.507108
0.508288
0.508929
0.511107
0.511288
0.52449
4.7601
519.015
0.755292
0.658466
0.606852
0.576979
0.558004
0.545105
0.535838
0.528955
0.523645
0.51949
0.516126
0.513403
0.511119
0.509219
0.507587
0.506213
0.505
0.503969
0.503039
0.502245
0.501514
0.500886
0.500301
0.499804
0.49933
0.498926
0.498539
0.498216
0.497895
0.497623
0.497362
0.497151
0.496934
0.496756
0.496578
0.496443
0.496286
0.496166
0.496045
0.495954
0.495863
0.4958
0.495708
0.495649
0.495598
0.495561
0.495488
0.495466
0.49545
0.495431
0.495378
0.495437
0.495438
0.495436
0.495473
0.495472
0.495553
0.495682
0.495765
0.495921
0.495949
0.495949
0.496035
0.496158
0.496347
0.4965
0.496597
0.496731
0.496928
0.497094
0.497285
0.497509
0.4977
0.497925
0.498135
0.49839
0.498627
0.498963
0.499209
0.499618
0.499898
0.500371
0.500687
0.501261
0.50162
0.502337
0.502763
0.503661
0.504196
0.505367
0.506
0.508168
0.508321
0.521926
4.92797
515.431
0.755289
0.657879
0.605702
0.575411
0.556139
0.543026
0.533598
0.526594
0.521188
0.516957
0.513531
0.510757
0.508431
0.506496
0.504833
0.503432
0.502197
0.501147
0.500199
0.499389
0.498644
0.498004
0.497408
0.496901
0.496418
0.496006
0.49561
0.495281
0.494954
0.494675
0.494409
0.494193
0.493971
0.493789
0.493608
0.493469
0.493308
0.493185
0.493061
0.492968
0.492874
0.492809
0.492715
0.492654
0.492601
0.492563
0.492489
0.492465
0.492448
0.492428
0.492372
0.492429
0.492429
0.492427
0.492462
0.492461
0.492541
0.492669
0.492749
0.492904
0.492933
0.492933
0.493019
0.493141
0.493327
0.493481
0.493579
0.493712
0.493907
0.494074
0.494263
0.494486
0.494677
0.494902
0.495111
0.495366
0.495601
0.495936
0.496181
0.496588
0.496866
0.497338
0.497651
0.498224
0.49858
0.499294
0.499717
0.500608
0.501138
0.502302
0.502927
0.505084
0.505209
0.519222
5.09575
511.037
0.755288
0.657275
0.604509
0.573781
0.554196
0.540857
0.531261
0.524128
0.518621
0.51431
0.510819
0.507991
0.50562
0.503648
0.501952
0.500524
0.499265
0.498193
0.497227
0.496401
0.495642
0.494988
0.494381
0.493863
0.49337
0.492949
0.492546
0.492209
0.491875
0.491591
0.491319
0.491098
0.490871
0.490684
0.490499
0.490356
0.490192
0.490066
0.489939
0.489843
0.489746
0.489679
0.489582
0.48952
0.489464
0.489425
0.48935
0.489324
0.489305
0.489284
0.489226
0.48928
0.48928
0.489278
0.48931
0.489309
0.489387
0.489514
0.489591
0.489745
0.489775
0.489775
0.489862
0.489982
0.490166
0.49032
0.49042
0.490552
0.490745
0.490911
0.491099
0.491322
0.491512
0.491736
0.491944
0.492199
0.492432
0.492766
0.493009
0.493415
0.493691
0.494162
0.494473
0.495044
0.495397
0.496106
0.496526
0.49741
0.497937
0.499091
0.499708
0.501854
0.50195
0.516374
5.26099
505.814
0.75529
0.656655
0.603276
0.57209
0.552177
0.5386
0.528827
0.521558
0.515945
0.511549
0.50799
0.505106
0.502687
0.500675
0.498946
0.497489
0.496204
0.49511
0.494125
0.493281
0.492506
0.491839
0.491219
0.490691
0.490188
0.489757
0.489346
0.489001
0.48866
0.48837
0.488091
0.487864
0.487633
0.487441
0.487251
0.487104
0.486937
0.486807
0.486677
0.486578
0.486478
0.486408
0.48631
0.486245
0.486187
0.486147
0.48607
0.486043
0.486022
0.486
0.48594
0.48599
0.48599
0.485987
0.486017
0.486015
0.486093
0.486218
0.486292
0.486445
0.486476
0.486476
0.486562
0.486681
0.486862
0.487017
0.487118
0.487249
0.48744
0.487607
0.487792
0.488015
0.488204
0.488428
0.488635
0.48889
0.48912
0.489454
0.489694
0.490099
0.490373
0.490843
0.491151
0.491719
0.49207
0.492774
0.493191
0.494068
0.49459
0.495735
0.496344
0.498477
0.498545
0.51338
5.4209
499.746
0.755296
0.65602
0.602003
0.570339
0.550083
0.536256
0.526296
0.518885
0.51316
0.508676
0.505044
0.5021
0.499633
0.497579
0.495814
0.494326
0.493014
0.491897
0.490891
0.490029
0.489238
0.488557
0.487924
0.487384
0.48687
0.48643
0.486009
0.485656
0.485308
0.485011
0.484726
0.484493
0.484256
0.48406
0.483865
0.483714
0.483543
0.48341
0.483276
0.483174
0.48307
0.482998
0.482898
0.48283
0.48277
0.482728
0.482651
0.482621
0.482598
0.482575
0.482513
0.482559
0.482559
0.482556
0.482583
0.482581
0.482657
0.48278
0.482851
0.483003
0.483035
0.483035
0.483122
0.483239
0.483417
0.483572
0.483675
0.483805
0.483993
0.48416
0.484343
0.484565
0.484753
0.484978
0.485183
0.485438
0.485665
0.485998
0.486237
0.486639
0.486911
0.48738
0.487685
0.488251
0.488598
0.489298
0.489712
0.490581
0.491099
0.492234
0.492834
0.494953
0.494994
0.510234
5.57243
492.812
0.755305
0.655371
0.600694
0.56853
0.547914
0.533826
0.52367
0.51611
0.510268
0.50569
0.501982
0.498976
0.496456
0.494359
0.492556
0.491036
0.489697
0.488555
0.487527
0.486647
0.485838
0.485142
0.484495
0.483943
0.483418
0.482968
0.482537
0.482176
0.48182
0.481516
0.481224
0.480985
0.480742
0.480541
0.480341
0.480186
0.480011
0.479874
0.479736
0.47963
0.479524
0.479449
0.479346
0.479276
0.479213
0.47917
0.479091
0.479059
0.479035
0.47901
0.478945
0.478988
0.478988
0.478984
0.479009
0.479006
0.47908
0.479202
0.479269
0.47942
0.479453
0.479453
0.479539
0.479654
0.47983
0.479986
0.480089
0.480218
0.480404
0.480571
0.480752
0.480973
0.481161
0.481385
0.481588
0.481843
0.482067
0.4824
0.482636
0.483037
0.483306
0.483773
0.484075
0.484639
0.484983
0.485678
0.486088
0.48695
0.487462
0.488587
0.489178
0.491282
0.491296
0.506931
5.71224
484.991
0.755318
0.65471
0.599348
0.566665
0.545674
0.531311
0.520951
0.513234
0.507269
0.502593
0.498806
0.495734
0.49316
0.491016
0.489174
0.48762
0.486251
0.485084
0.484034
0.483133
0.482307
0.481595
0.480934
0.480368
0.479831
0.479371
0.478931
0.478561
0.478197
0.477885
0.477586
0.477341
0.477092
0.476885
0.476679
0.476519
0.47634
0.4762
0.476057
0.475949
0.475838
0.475761
0.475655
0.475583
0.475517
0.475472
0.475392
0.475358
0.475331
0.475306
0.475238
0.475277
0.475277
0.475272
0.475295
0.47529
0.475363
0.475482
0.475547
0.475696
0.47573
0.47573
0.475816
0.475929
0.476102
0.476258
0.476362
0.47649
0.476673
0.476841
0.477019
0.477239
0.477426
0.477649
0.477851
0.478106
0.478327
0.478658
0.478892
0.479291
0.479558
0.480023
0.480322
0.480883
0.481223
0.481913
0.48232
0.483173
0.48368
0.484795
0.485377
0.487464
0.487453
0.503469
5.83679
476.258
0.755335
0.654039
0.59797
0.564745
0.543363
0.528714
0.51814
0.510258
0.504165
0.499386
0.495516
0.492376
0.489744
0.487552
0.485668
0.484079
0.482679
0.481485
0.480411
0.47949
0.478645
0.477916
0.47724
0.476661
0.476112
0.47564
0.47519
0.47481
0.474438
0.474118
0.473812
0.473559
0.473304
0.473092
0.472881
0.472716
0.472532
0.472388
0.472241
0.472129
0.472014
0.471934
0.471826
0.471751
0.471681
0.471635
0.471553
0.471517
0.471488
0.471461
0.471391
0.471426
0.471426
0.47142
0.47144
0.471434
0.471506
0.471623
0.471683
0.471831
0.471866
0.471866
0.471952
0.472063
0.472232
0.472389
0.472494
0.472621
0.472802
0.472969
0.473145
0.473364
0.473549
0.473772
0.473972
0.474227
0.474445
0.474775
0.475006
0.475403
0.475668
0.47613
0.476426
0.476984
0.477321
0.478005
0.478408
0.479253
0.479754
0.480858
0.48143
0.483499
0.483463
0.499841
5.94241
466.585
0.755357
0.653358
0.596559
0.562774
0.540984
0.526036
0.515238
0.507185
0.500957
0.496071
0.492113
0.488901
0.486209
0.483967
0.48204
0.480414
0.478982
0.47776
0.476661
0.475718
0.474853
0.474107
0.473415
0.472822
0.47226
0.471777
0.471315
0.470926
0.470544
0.470217
0.469902
0.469643
0.469381
0.469164
0.468946
0.468776
0.468588
0.468439
0.468288
0.468172
0.468053
0.46797
0.467859
0.467781
0.467708
0.46766
0.467576
0.467538
0.467506
0.467479
0.467406
0.467437
0.467436
0.467429
0.467447
0.467439
0.46751
0.467624
0.467681
0.467826
0.467862
0.467862
0.467948
0.468057
0.468223
0.468379
0.468485
0.468612
0.468789
0.468956
0.46913
0.469348
0.469532
0.469754
0.469952
0.470206
0.470421
0.47075
0.470979
0.471373
0.471635
0.472095
0.472388
0.472942
0.473275
0.473953
0.474352
0.475188
0.475684
0.476776
0.477339
0.479389
0.479329
0.496043
6.02534
455.939
0.755383
0.652669
0.595119
0.560752
0.538538
0.52328
0.512248
0.504015
0.497647
0.492648
0.4886
0.485312
0.482558
0.480263
0.478291
0.476626
0.47516
0.473909
0.472784
0.471818
0.470933
0.470169
0.46946
0.468852
0.468276
0.467781
0.467308
0.466909
0.466518
0.466182
0.465859
0.465593
0.465324
0.4651
0.464876
0.464701
0.464508
0.464354
0.464199
0.464078
0.463956
0.463869
0.463755
0.463674
0.463598
0.463547
0.463462
0.463421
0.463387
0.463358
0.463284
0.463309
0.463309
0.463301
0.463316
0.463306
0.463375
0.463486
0.463539
0.463683
0.46372
0.46372
0.463805
0.463912
0.464074
0.46423
0.464337
0.464463
0.464637
0.464804
0.464975
0.465191
0.465374
0.465596
0.465791
0.466045
0.466257
0.466584
0.46681
0.467202
0.467461
0.467919
0.468207
0.468758
0.469088
0.469759
0.470154
0.470981
0.471471
0.472551
0.473104
0.475135
0.475051
0.49207
6.08188
444.288
0.755414
0.651974
0.593651
0.558683
0.536029
0.520446
0.509171
0.500751
0.494236
0.489121
0.484977
0.481611
0.478791
0.476441
0.474422
0.472717
0.471215
0.469933
0.468781
0.467791
0.466885
0.466102
0.465376
0.464752
0.464163
0.463655
0.46317
0.46276
0.462359
0.462015
0.461683
0.461409
0.461133
0.460903
0.460673
0.460491
0.460293
0.460135
0.459974
0.45985
0.459723
0.459632
0.459516
0.459432
0.459352
0.459299
0.459212
0.459168
0.459131
0.459101
0.459024
0.459046
0.459045
0.459035
0.459048
0.459036
0.459103
0.459211
0.45926
0.459401
0.459439
0.459439
0.459524
0.459629
0.459788
0.459943
0.460051
0.460175
0.460346
0.460513
0.460681
0.460896
0.461077
0.461298
0.461491
0.461745
0.461953
0.462278
0.462501
0.462891
0.463146
0.463601
0.463886
0.464433
0.464759
0.465424
0.465814
0.466631
0.467115
0.468183
0.468726
0.470736
0.47063
0.487917
6.10847
431.602
0.755451
0.651274
0.592159
0.556569
0.533458
0.517539
0.50601
0.497396
0.490727
0.48549
0.481246
0.477799
0.474911
0.472504
0.470435
0.468687
0.467149
0.465835
0.464655
0.46364
0.462712
0.461909
0.461164