/*--------------------------------*- C++ -*----------------------------------*\
| =========                 |                                                 |
| \\      /  F ield         | OpenFOAM: The Open Source CFD Toolbox           |
|  \\    /   O peration     | Version:  v2012                                 |
|   \\  /    A nd           | Website:  www.openfoam.com                      |
|    \\/     M anipulation  |                                                 |
\*---------------------------------------------------------------------------*/
FoamFile
{
    version     2.0;
    format      ascii;
    class       volScalarField;
    location    "22";
    object      k;
}
// * * * * * * * * * * * * * * * * * * * * * * * * * * * * * * * * * * * * * //

dimensions      [0 2 -2 0 0 0 0];


internalField   nonuniform List<scalar> 
209825
(
0.00102159
0.000929659
0.000865228
0.00082084
0.000789197
0.000765803
0.000747739
0.000733499
0.00072187
0.000712339
0.000704255
0.000697459
0.000691544
0.000686476
0.000681969
0.000678083
0.000674559
0.000671504
0.000668684
0.00066623
0.000663932
0.000661928
0.000660021
0.000658374
0.000656786
0.000655414
0.00065407
0.000652923
0.000651799
0.000650813
0.00064985
0.000649038
0.000648224
0.000647537
0.000646839
0.000646241
0.000645626
0.000645121
0.000644592
0.000644164
0.000643714
0.00064334
0.00064294
0.000642616
0.000642278
0.000642004
0.000641708
0.000641491
0.000641229
0.000641042
0.000640835
0.000640671
0.000640477
0.000640363
0.00064022
0.000640106
0.000639991
0.00063993
0.000639818
0.000639735
0.000639691
0.000639638
0.000639481
0.000639547
0.000639563
0.000639563
0.000639646
0.000639766
0.000639884
0.000640077
0.000640256
0.000640452
0.000640594
0.000640819
0.000640975
0.000641263
0.00064146
0.000641846
0.000642077
0.000642521
0.000642767
0.000643282
0.000643574
0.000644188
0.000644552
0.000645309
0.000645747
0.000646658
0.000647186
0.00064834
0.000648961
0.000650846
0.000651266
0.000659184
0.0104478
0.0108073
0.00102159
0.000929658
0.000865225
0.000820834
0.000789188
0.000765791
0.000747725
0.000733483
0.000721853
0.00071232
0.000704235
0.000697438
0.000691522
0.000686454
0.000681946
0.000678059
0.000674535
0.00067148
0.000668659
0.000666204
0.000663906
0.000661902
0.000659995
0.000658347
0.000656759
0.000655387
0.000654043
0.000652896
0.000651771
0.000650785
0.000649821
0.00064901
0.000648195
0.000647508
0.000646811
0.000646212
0.000645597
0.000645092
0.000644563
0.000644134
0.000643684
0.00064331
0.000642911
0.000642587
0.000642248
0.000641975
0.000641678
0.000641461
0.000641199
0.000641012
0.000640805
0.000640641
0.000640447
0.000640333
0.000640189
0.000640076
0.000639961
0.0006399
0.000639788
0.000639705
0.00063966
0.000639608
0.000639451
0.000639517
0.000639533
0.000639533
0.000639615
0.000639736
0.000639854
0.000640046
0.000640226
0.000640421
0.000640564
0.000640788
0.000640944
0.000641232
0.000641429
0.000641816
0.000642046
0.00064249
0.000642737
0.000643251
0.000643543
0.000644158
0.000644521
0.000645278
0.000645716
0.000646627
0.000647155
0.000648309
0.00064893
0.000650816
0.000651235
0.000659165
0.0104572
0.0108194
0.0010216
0.000929656
0.000865209
0.000820803
0.000789144
0.000765736
0.000747661
0.000733413
0.000721776
0.000712238
0.00070415
0.000697348
0.00069143
0.000686358
0.000681848
0.000677959
0.000674433
0.000671376
0.000668553
0.000666098
0.000663798
0.000661793
0.000659884
0.000658236
0.000656647
0.000655273
0.000653929
0.000652781
0.000651655
0.000650669
0.000649705
0.000648893
0.000648077
0.00064739
0.000646692
0.000646093
0.000645477
0.000644972
0.000644443
0.000644014
0.000643564
0.000643189
0.000642789
0.000642465
0.000642127
0.000641853
0.000641556
0.000641339
0.000641076
0.000640889
0.000640682
0.000640518
0.000640323
0.00064021
0.000640066
0.000639952
0.000639838
0.000639776
0.000639664
0.000639581
0.000639536
0.000639484
0.000639327
0.000639392
0.000639408
0.000639408
0.000639491
0.000639611
0.000639729
0.000639921
0.000640101
0.000640296
0.000640438
0.000640663
0.000640819
0.000641107
0.000641304
0.00064169
0.00064192
0.000642364
0.000642611
0.000643125
0.000643417
0.000644031
0.000644394
0.000645151
0.000645589
0.0006465
0.000647028
0.000648181
0.000648802
0.000650687
0.000651104
0.00065906
0.0104779
0.0108465
0.0010216
0.000929651
0.000865181
0.000820749
0.000789069
0.000765643
0.000747554
0.000733293
0.000721647
0.0007121
0.000704005
0.000697197
0.000691273
0.000686197
0.000681683
0.00067779
0.000674261
0.000671201
0.000668376
0.000665918
0.000663616
0.000661608
0.000659699
0.000658048
0.000656458
0.000655083
0.000653737
0.000652588
0.000651461
0.000650474
0.000649509
0.000648696
0.00064788
0.000647192
0.000646493
0.000645893
0.000645277
0.000644771
0.000644241
0.000643812
0.000643361
0.000642986
0.000642585
0.000642261
0.000641922
0.000641648
0.00064135
0.000641133
0.00064087
0.000640683
0.000640475
0.000640312
0.000640116
0.000640002
0.000639858
0.000639745
0.00063963
0.000639568
0.000639456
0.000639373
0.000639328
0.000639275
0.000639118
0.000639183
0.000639199
0.000639199
0.000639281
0.000639402
0.000639519
0.000639711
0.00063989
0.000640086
0.000640228
0.000640453
0.000640608
0.000640896
0.000641093
0.000641478
0.000641709
0.000642153
0.000642399
0.000642913
0.000643205
0.000643818
0.000644182
0.000644938
0.000645375
0.000646286
0.000646813
0.000647966
0.000648586
0.000650471
0.000650885
0.000658878
0.0105104
0.0108891
0.00102161
0.000929645
0.000865141
0.000820674
0.000788963
0.000765512
0.000747402
0.000733124
0.000721464
0.000711906
0.0007038
0.000696984
0.000691052
0.00068597
0.000681449
0.000677552
0.000674018
0.000670954
0.000668125
0.000665664
0.000663359
0.000661349
0.000659436
0.000657784
0.000656191
0.000654814
0.000653467
0.000652316
0.000651187
0.000650199
0.000649232
0.000648418
0.0006476
0.000646911
0.000646211
0.00064561
0.000644993
0.000644487
0.000643956
0.000643526
0.000643074
0.000642699
0.000642298
0.000641973
0.000641633
0.000641358
0.00064106
0.000640843
0.000640579
0.000640392
0.000640184
0.00064002
0.000639824
0.00063971
0.000639566
0.000639452
0.000639336
0.000639274
0.000639163
0.000639079
0.000639034
0.000638981
0.000638824
0.000638889
0.000638904
0.000638904
0.000638985
0.000639106
0.000639222
0.000639414
0.000639593
0.000639789
0.000639931
0.000640155
0.000640311
0.000640598
0.000640795
0.00064118
0.00064141
0.000641854
0.0006421
0.000642614
0.000642905
0.000643518
0.000643881
0.000644637
0.000645074
0.000645984
0.000646511
0.000647662
0.000648281
0.000650166
0.000650575
0.00065862
0.0105555
0.0109479
0.00102162
0.000929636
0.00086509
0.000820577
0.000788826
0.000765342
0.000747205
0.000732906
0.000721227
0.000711654
0.000703535
0.000696707
0.000690766
0.000685675
0.000681147
0.000677243
0.000673703
0.000670634
0.0006678
0.000665335
0.000663026
0.000661012
0.000659096
0.000657441
0.000655845
0.000654466
0.000653116
0.000651963
0.000650833
0.000649842
0.000648873
0.000648057
0.000647238
0.000646548
0.000645847
0.000645244
0.000644626
0.000644119
0.000643587
0.000643156
0.000642703
0.000642327
0.000641925
0.000641599
0.000641259
0.000640983
0.000640685
0.000640466
0.000640203
0.000640015
0.000639806
0.000639642
0.000639446
0.000639331
0.000639186
0.000639072
0.000638956
0.000638894
0.000638782
0.000638699
0.000638653
0.0006386
0.000638442
0.000638507
0.000638521
0.000638521
0.000638602
0.000638722
0.000638838
0.00063903
0.000639208
0.000639404
0.000639546
0.00063977
0.000639925
0.000640212
0.000640408
0.000640793
0.000641023
0.000641466
0.000641712
0.000642225
0.000642516
0.000643129
0.000643491
0.000644246
0.000644683
0.000645592
0.000646118
0.000647269
0.000647887
0.00064977
0.000650173
0.000658285
0.0106139
0.0110238
0.00102163
0.000929626
0.000865027
0.000820458
0.000788658
0.000765133
0.000746963
0.000732637
0.000720936
0.000711343
0.000703209
0.000696367
0.000690414
0.000685313
0.000680775
0.000676863
0.000673316
0.00067024
0.0006674
0.000664929
0.000662616
0.000660597
0.000658678
0.000657019
0.000655419
0.000654037
0.000652684
0.000651528
0.000650395
0.000649403
0.000648432
0.000647613
0.000646793
0.0006461
0.000645397
0.000644794
0.000644174
0.000643665
0.000643132
0.000642699
0.000642245
0.000641868
0.000641465
0.000641139
0.000640797
0.000640521
0.000640222
0.000640003
0.000639738
0.00063955
0.00063934
0.000639176
0.000638979
0.000638864
0.000638718
0.000638604
0.000638488
0.000638425
0.000638313
0.000638229
0.000638183
0.00063813
0.000637972
0.000638036
0.00063805
0.000638049
0.00063813
0.000638249
0.000638365
0.000638556
0.000638734
0.00063893
0.000639071
0.000639295
0.00063945
0.000639736
0.000639932
0.000640316
0.000640546
0.000640989
0.000641234
0.000641747
0.000642038
0.000642649
0.000643011
0.000643765
0.000644201
0.000645109
0.000645634
0.000646783
0.0006474
0.000649282
0.000649678
0.000657872
0.0106863
0.0111176
0.00102164
0.000929614
0.000864952
0.000820316
0.000788457
0.000764885
0.000746676
0.000732317
0.000720589
0.000710974
0.00070282
0.000695962
0.000689995
0.000684881
0.000680332
0.00067641
0.000672854
0.00066977
0.000666924
0.000664446
0.000662127
0.000660103
0.000658179
0.000656515
0.000654912
0.000653526
0.000652169
0.00065101
0.000649874
0.000648879
0.000647905
0.000647084
0.000646261
0.000645567
0.000644862
0.000644256
0.000643635
0.000643124
0.00064259
0.000642156
0.0006417
0.000641322
0.000640918
0.00064059
0.000640248
0.00063997
0.00063967
0.00063945
0.000639185
0.000638995
0.000638785
0.00063862
0.000638423
0.000638307
0.000638161
0.000638046
0.000637929
0.000637866
0.000637754
0.00063767
0.000637623
0.00063757
0.000637411
0.000637474
0.000637487
0.000637487
0.000637566
0.000637686
0.0006378
0.000637991
0.000638168
0.000638364
0.000638505
0.000638729
0.000638883
0.000639169
0.000639364
0.000639748
0.000639977
0.000640419
0.000640664
0.000641176
0.000641467
0.000642077
0.000642439
0.000643191
0.000643627
0.000644533
0.000645057
0.000646204
0.000646819
0.0006487
0.000649088
0.00065738
0.0107734
0.0112299
0.00102166
0.000929601
0.000864866
0.000820153
0.000788225
0.000764597
0.000746342
0.000731946
0.000720186
0.000710545
0.000702368
0.000695491
0.000689507
0.000684379
0.000679817
0.000675884
0.000672317
0.000669224
0.000666369
0.000663885
0.000661558
0.000659529
0.000657598
0.00065593
0.000654322
0.000652931
0.00065157
0.000650407
0.000649268
0.000648269
0.000647292
0.000646469
0.000645643
0.000644946
0.000644238
0.000643631
0.000643008
0.000642495
0.000641958
0.000641523
0.000641066
0.000640686
0.000640281
0.000639952
0.000639608
0.00063933
0.000639028
0.000638807
0.000638541
0.00063835
0.00063814
0.000637974
0.000637775
0.000637659
0.000637512
0.000637397
0.000637279
0.000637216
0.000637103
0.000637019
0.000636971
0.000636918
0.000636759
0.000636821
0.000636833
0.000636833
0.000636911
0.00063703
0.000637144
0.000637333
0.00063751
0.000637706
0.000637846
0.00063807
0.000638224
0.000638509
0.000638703
0.000639086
0.000639315
0.000639756
0.000640001
0.000640512
0.000640802
0.000641412
0.000641772
0.000642523
0.000642958
0.000643862
0.000644386
0.000645531
0.000646144
0.000648023
0.000648401
0.000656809
0.0108755
0.0113615
0.00102168
0.000929586
0.000864769
0.000819966
0.000787962
0.000764269
0.000745961
0.000731522
0.000719727
0.000710055
0.000701853
0.000694954
0.000688951
0.000683805
0.000679229
0.000675282
0.000671704
0.000668601
0.000665736
0.000663243
0.000660909
0.000658872
0.000656935
0.000655261
0.000653647
0.000652252
0.000650886
0.000649719
0.000648575
0.000647573
0.000646592
0.000645766
0.000644936
0.000644237
0.000643526
0.000642917
0.000642291
0.000641776
0.000641237
0.0006408
0.000640341
0.000639959
0.000639552
0.000639222
0.000638876
0.000638597
0.000638294
0.000638072
0.000637805
0.000637613
0.000637401
0.000637235
0.000637035
0.000636918
0.000636771
0.000636655
0.000636536
0.000636472
0.00063636
0.000636275
0.000636226
0.000636173
0.000636014
0.000636074
0.000636085
0.000636085
0.000636162
0.00063628
0.000636393
0.000636581
0.000636757
0.000636953
0.000637093
0.000637317
0.00063747
0.000637755
0.000637948
0.00063833
0.000638557
0.000638998
0.000639243
0.000639753
0.000640042
0.00064065
0.00064101
0.000641759
0.000642193
0.000643095
0.000643618
0.00064476
0.000645371
0.000647249
0.000647616
0.000656156
0.0109931
0.011513
0.0010217
0.000929569
0.00086466
0.000819758
0.000787665
0.0007639
0.000745534
0.000731046
0.00071921
0.000709505
0.000701273
0.000694349
0.000688324
0.00068316
0.000678567
0.000674605
0.000671014
0.000667898
0.000665023
0.00066252
0.000660177
0.000658133
0.000656188
0.000654507
0.000652887
0.000651486
0.000650115
0.000648943
0.000647795
0.000646788
0.000645804
0.000644973
0.00064414
0.000643437
0.000642724
0.000642111
0.000641483
0.000640966
0.000640424
0.000639985
0.000639523
0.00063914
0.000638731
0.000638399
0.000638052
0.000637771
0.000637467
0.000637243
0.000636975
0.000636782
0.000636569
0.000636402
0.000636201
0.000636083
0.000635935
0.000635819
0.000635699
0.000635634
0.000635521
0.000635436
0.000635386
0.000635332
0.000635173
0.000635232
0.000635242
0.000635242
0.000635317
0.000635435
0.000635546
0.000635733
0.000635909
0.000636105
0.000636244
0.000636467
0.00063662
0.000636904
0.000637096
0.000637477
0.000637704
0.000638144
0.000638388
0.000638897
0.000639186
0.000639792
0.000640151
0.000640898
0.000641331
0.000642231
0.000642752
0.000643892
0.0006445
0.000646376
0.00064673
0.000655423
0.0111265
0.011685
0.00102172
0.000929551
0.000864541
0.000819527
0.000787337
0.000763491
0.000745059
0.000730517
0.000718636
0.000708892
0.000700628
0.000693676
0.000687626
0.000682441
0.000677829
0.000673851
0.000670245
0.000667116
0.000664229
0.000661715
0.000659362
0.000657309
0.000655356
0.000653667
0.00065204
0.000650633
0.000649256
0.000648078
0.000646925
0.000645914
0.000644924
0.00064409
0.000643253
0.000642546
0.000641829
0.000641214
0.000640582
0.000640062
0.000639518
0.000639076
0.000638613
0.000638227
0.000637816
0.000637483
0.000637133
0.000636851
0.000636545
0.00063632
0.00063605
0.000635856
0.000635641
0.000635473
0.000635272
0.000635152
0.000635003
0.000634886
0.000634765
0.0006347
0.000634586
0.0006345
0.00063445
0.000634396
0.000634236
0.000634294
0.000634302
0.000634302
0.000634375
0.000634493
0.000634602
0.000634788
0.000634963
0.000635159
0.000635298
0.000635521
0.000635672
0.000635955
0.000636146
0.000636526
0.000636752
0.000637191
0.000637435
0.000637942
0.00063823
0.000638835
0.000639193
0.000639938
0.00064037
0.000641267
0.000641787
0.000642923
0.000643529
0.000645402
0.000645743
0.000654606
0.0112756
0.0118782
0.00102175
0.000929532
0.00086441
0.000819275
0.000786977
0.000763042
0.000744536
0.000729934
0.000718003
0.000708217
0.000699917
0.000692934
0.000686857
0.000681649
0.000677016
0.00067302
0.000669397
0.000666253
0.000663352
0.000660827
0.000658463
0.0006564
0.000654438
0.00065274
0.000651106
0.000649691
0.000648308
0.000647124
0.000645965
0.000644949
0.000643954
0.000643115
0.000642273
0.000641563
0.000640842
0.000640223
0.000639588
0.000639065
0.000638518
0.000638073
0.000637607
0.000637219
0.000636806
0.00063647
0.000636118
0.000635835
0.000635526
0.0006353
0.000635028
0.000634833
0.000634617
0.000634448
0.000634245
0.000634124
0.000633974
0.000633856
0.000633734
0.000633668
0.000633554
0.000633467
0.000633416
0.000633361
0.000633201
0.000633257
0.000633264
0.000633264
0.000633335
0.000633452
0.00063356
0.000633745
0.000633918
0.000634114
0.000634252
0.000634474
0.000634625
0.000634907
0.000635097
0.000635475
0.000635701
0.000636139
0.000636382
0.000636888
0.000637175
0.000637778
0.000638135
0.000638877
0.000639308
0.000640203
0.000640721
0.000641853
0.000642456
0.000644327
0.000644653
0.000653704
0.0114405
0.0120929
0.00102177
0.000929513
0.000864269
0.000819
0.000786584
0.000762551
0.000743966
0.000729297
0.000717311
0.000707479
0.000699139
0.000692122
0.000686016
0.000680781
0.000676126
0.000672109
0.000668468
0.000665308
0.000662393
0.000659854
0.000657478
0.000655404
0.000653432
0.000651725
0.000650082
0.00064866
0.000647269
0.000646078
0.000644913
0.000643891
0.000642891
0.000642046
0.0006412
0.000640485
0.00063976
0.000639137
0.000638498
0.000637972
0.000637422
0.000636974
0.000636504
0.000636115
0.000635698
0.000635361
0.000635007
0.000634721
0.00063441
0.000634182
0.000633909
0.000633712
0.000633494
0.000633324
0.000633119
0.000632997
0.000632846
0.000632728
0.000632604
0.000632537
0.000632422
0.000632335
0.000632282
0.000632227
0.000632067
0.00063212
0.000632126
0.000632126
0.000632194
0.000632311
0.000632417
0.0006326
0.000632773
0.000632969
0.000633106
0.000633328
0.000633477
0.000633759
0.000633947
0.000634323
0.000634548
0.000634985
0.000635227
0.000635731
0.000636018
0.000636619
0.000636974
0.000637714
0.000638143
0.000639035
0.000639552
0.00064068
0.00064128
0.000643148
0.000643457
0.000652718
0.0116206
0.0123297
0.0010218
0.000929492
0.000864117
0.000818703
0.000786159
0.00076202
0.000743347
0.000728606
0.00071656
0.000706677
0.000698294
0.00069124
0.000685101
0.000679839
0.000675158
0.000671119
0.000667458
0.000664281
0.000661349
0.000658796
0.000656406
0.00065432
0.000652337
0.000650621
0.000648968
0.000647537
0.000646138
0.00064494
0.000643768
0.00064274
0.000641733
0.000640883
0.000640032
0.000639312
0.000638582
0.000637956
0.000637312
0.000636782
0.000636228
0.000635777
0.000635304
0.000634912
0.000634493
0.000634153
0.000633796
0.000633508
0.000633195
0.000632965
0.00063269
0.000632491
0.000632271
0.0006321
0.000631894
0.00063177
0.000631617
0.000631498
0.000631373
0.000631305
0.00063119
0.000631102
0.000631048
0.000630993
0.000630832
0.000630883
0.000630888
0.000630887
0.000630953
0.000631069
0.000631172
0.000631354
0.000631525
0.000631721
0.000631858
0.000632079
0.000632227
0.000632508
0.000632695
0.000633069
0.000633293
0.000633728
0.00063397
0.000634472
0.000634758
0.000635357
0.000635711
0.000636447
0.000636875
0.000637764
0.000638278
0.000639403
0.000639999
0.000641864
0.000642156
0.000651644
0.0118153
0.0125889
0.00102183
0.000929471
0.000863954
0.000818385
0.000785703
0.000761448
0.00074268
0.000727861
0.00071575
0.000705811
0.000697382
0.000690287
0.000684113
0.00067882
0.000674112
0.000670048
0.000666366
0.000663169
0.00066022
0.000657651
0.000655247
0.000653148
0.000651153
0.000649425
0.000647762
0.000646322
0.000644915
0.000643709
0.000642529
0.000641494
0.000640481
0.000639625
0.000638767
0.000638042
0.000637307
0.000636676
0.000636028
0.000635495
0.000634936
0.000634482
0.000634006
0.00063361
0.000633188
0.000632845
0.000632485
0.000632195
0.000631879
0.000631648
0.00063137
0.000631169
0.000630948
0.000630775
0.000630567
0.000630442
0.000630287
0.000630168
0.000630041
0.000629971
0.000629856
0.000629767
0.000629711
0.000629656
0.000629494
0.000629543
0.000629546
0.000629546
0.000629608
0.000629723
0.000629825
0.000630005
0.000630175
0.000630371
0.000630506
0.000630726
0.000630874
0.000631153
0.000631338
0.000631711
0.000631933
0.000632368
0.000632608
0.000633109
0.000633394
0.00063399
0.000634342
0.000635076
0.000635502
0.000636387
0.000636899
0.000638019
0.000638611
0.000640473
0.000640746
0.000650481
0.0120236
0.0128709
0.00102187
0.000929449
0.000863782
0.000818046
0.000785214
0.000760835
0.000741965
0.000727061
0.000714879
0.000704881
0.000696401
0.000689262
0.00068305
0.000677723
0.000672986
0.000668897
0.000665191
0.000661973
0.000659005
0.000656419
0.000653999
0.000651887
0.000649878
0.000648139
0.000646465
0.000645015
0.000643597
0.000642383
0.000641194
0.000640153
0.000639132
0.000638269
0.000637405
0.000636675
0.000635934
0.000635298
0.000634646
0.000634108
0.000633545
0.000633087
0.000632606
0.000632208
0.000631782
0.000631436
0.000631073
0.000630781
0.000630462
0.000630228
0.000629948
0.000629746
0.000629521
0.000629347
0.000629138
0.00062901
0.000628854
0.000628734
0.000628605
0.000628534
0.000628418
0.000628328
0.000628271
0.000628215
0.000628053
0.000628099
0.000628101
0.0006281
0.000628159
0.000628273
0.000628373
0.000628551
0.000628719
0.000628915
0.000629049
0.000629269
0.000629415
0.000629693
0.000629876
0.000630247
0.000630468
0.000630901
0.00063114
0.000631639
0.000631923
0.000632516
0.000632867
0.000633597
0.000634021
0.000634902
0.000635412
0.000636527
0.000637115
0.000638974
0.000639227
0.000649228
0.0122441
0.0131757
0.0010219
0.000929427
0.0008636
0.000817685
0.000784694
0.000760181
0.000741201
0.000726207
0.000713949
0.000703886
0.000695351
0.000688165
0.000681912
0.00067655
0.000671781
0.000667663
0.000663932
0.000660692
0.000657703
0.000655099
0.000652662
0.000650534
0.000648512
0.00064676
0.000645073
0.000643613
0.000642185
0.000640961
0.000639764
0.000638714
0.000637686
0.000636816
0.000635945
0.000635208
0.000634462
0.000633821
0.000633163
0.00063262
0.000632053
0.00063159
0.000631106
0.000630703
0.000630274
0.000629925
0.000629559
0.000629264
0.000628942
0.000628705
0.000628423
0.000628218
0.000627992
0.000627816
0.000627604
0.000627475
0.000627317
0.000627195
0.000627065
0.000626993
0.000626876
0.000626785
0.000626725
0.000626669
0.000626507
0.00062655
0.000626551
0.000626549
0.000626604
0.000626718
0.000626815
0.000626991
0.000627157
0.000627353
0.000627486
0.000627705
0.00062785
0.000628126
0.000628308
0.000628676
0.000628896
0.000629327
0.000629566
0.000630062
0.000630344
0.000630935
0.000631284
0.00063201
0.000632433
0.00063331
0.000633817
0.000634927
0.00063551
0.000637365
0.000637598
0.000647882
0.0124751
0.0135035
0.00102194
0.000929405
0.000863409
0.000817304
0.000784142
0.000759487
0.000740389
0.000725298
0.000712958
0.000702827
0.000694233
0.000686996
0.000680699
0.000675298
0.000670495
0.000666347
0.000662588
0.000659324
0.000656314
0.000653689
0.000651235
0.000649091
0.000647053
0.000645287
0.000643588
0.000642115
0.000640677
0.000639443
0.000638236
0.000637178
0.000636141
0.000635264
0.000634385
0.000633642
0.000632889
0.000632242
0.000631579
0.000631031
0.000630458
0.000629991
0.000629502
0.000629096
0.000628663
0.000628311
0.000627941
0.000627643
0.000627318
0.000627079
0.000626793
0.000626586
0.000626357
0.000626179
0.000625965
0.000625834
0.000625675
0.000625551
0.000625418
0.000625345
0.000625227
0.000625136
0.000625074
0.000625017
0.000624855
0.000624894
0.000624894
0.000624892
0.000624943
0.000625055
0.000625149
0.000625324
0.000625488
0.000625684
0.000625816
0.000626033
0.000626177
0.000626451
0.000626631
0.000626997
0.000627215
0.000627645
0.000627882
0.000628376
0.000628657
0.000629244
0.000629592
0.000630314
0.000630734
0.000631607
0.000632111
0.000633216
0.000633794
0.000635645
0.000635856
0.000646441
0.0127144
0.013854
0.00102198
0.000929383
0.000863209
0.000816903
0.00078356
0.000758753
0.000739529
0.000724333
0.000711906
0.000701702
0.000693045
0.000685754
0.00067941
0.000673968
0.000669128
0.000664948
0.00066116
0.00065787
0.000654836
0.00065219
0.000649716
0.000647555
0.000645501
0.00064372
0.000642007
0.000640522
0.000639072
0.000637827
0.00063661
0.000635543
0.000634497
0.000633611
0.000632725
0.000631974
0.000631214
0.000630562
0.000629892
0.000629339
0.000628761
0.000628289
0.000627795
0.000627385
0.000626948
0.000626592
0.000626218
0.000625917
0.000625588
0.000625346
0.000625058
0.000624848
0.000624616
0.000624437
0.00062422
0.000624087
0.000623925
0.000623801
0.000623665
0.000623591
0.000623472
0.000623379
0.000623315
0.000623258
0.000623095
0.00062313
0.00062313
0.000623127
0.000623173
0.000623284
0.000623375
0.000623548
0.00062371
0.000623905
0.000624036
0.000624253
0.000624394
0.000624667
0.000624845
0.000625209
0.000625425
0.000625852
0.000626089
0.00062658
0.00062686
0.000627444
0.000627789
0.000628507
0.000628925
0.000629793
0.000630294
0.000631393
0.000631966
0.000633812
0.000634001
0.000644903
0.0129593
0.0142267
0.00102202
0.000929361
0.000863001
0.000816482
0.000782947
0.000757978
0.000738621
0.000723315
0.000710795
0.000700512
0.000691788
0.000684439
0.000678044
0.000672559
0.000667679
0.000663465
0.000659646
0.000656328
0.000653269
0.000650601
0.000648106
0.000645926
0.000643855
0.000642058
0.00064033
0.000638832
0.000637369
0.000636112
0.000634885
0.000633808
0.000632752
0.000631858
0.000630963
0.000630205
0.000629437
0.000628779
0.000628102
0.000627543
0.00062696
0.000626482
0.000625983
0.000625569
0.000625127
0.000624767
0.000624389
0.000624085
0.000623752
0.000623507
0.000623216
0.000623003
0.000622768
0.000622587
0.000622368
0.000622232
0.000622068
0.000621942
0.000621804
0.000621728
0.000621608
0.000621514
0.000621448
0.00062139
0.000621227
0.000621257
0.000621257
0.000621253
0.000621294
0.000621404
0.000621492
0.000621662
0.000621822
0.000622017
0.000622146
0.000622362
0.000622502
0.000622773
0.000622949
0.000623309
0.000623524
0.000623949
0.000624184
0.000624672
0.000624951
0.000625531
0.000625874
0.000626588
0.000627003
0.000627866
0.000628364
0.000629457
0.000630025
0.000631865
0.000632031
0.000643266
0.0132067
0.0146208
0.00102207
0.00092934
0.000862784
0.000816042
0.000782303
0.000757164
0.000737665
0.000722241
0.000709623
0.000699256
0.000690461
0.000683051
0.000676602
0.00067107
0.000666149
0.000661898
0.000658046
0.000654698
0.000651612
0.00064892
0.000646403
0.000644203
0.000642114
0.0006403
0.000638557
0.000637044
0.000635568
0.000634299
0.00063306
0.000631973
0.000630906
0.000630003
0.000629099
0.000628332
0.000627557
0.000626892
0.000626208
0.000625643
0.000625053
0.00062457
0.000624066
0.000623647
0.0006232
0.000622836
0.000622453
0.000622146
0.000621809
0.00062156
0.000621266
0.00062105
0.000620812
0.000620628
0.000620406
0.000620268
0.000620101
0.000619974
0.000619834
0.000619756
0.000619634
0.000619539
0.00061947
0.000619412
0.000619249
0.000619275
0.000619274
0.000619268
0.000619304
0.000619413
0.000619498
0.000619665
0.000619823
0.000620017
0.000620145
0.000620359
0.000620498
0.000620766
0.00062094
0.000621297
0.000621511
0.000621933
0.000622167
0.000622652
0.000622929
0.000623505
0.000623846
0.000624555
0.000624968
0.000625825
0.00062632
0.000627406
0.000627968
0.000629803
0.000629945
0.000641526
0.013453
0.0150352
0.00102211
0.00092932
0.00086256
0.000815583
0.000781631
0.000756311
0.000736662
0.000721113
0.000708391
0.000697936
0.000689065
0.000681589
0.000675084
0.000669502
0.000664537
0.000660246
0.000656359
0.00065298
0.000649866
0.000647148
0.000644608
0.000642387
0.000640277
0.000638446
0.000636686
0.000635158
0.000633668
0.000632385
0.000631134
0.000630036
0.000628958
0.000628045
0.000627131
0.000626356
0.000625572
0.0006249
0.000624209
0.000623637
0.00062304
0.000622552
0.000622041
0.000621618
0.000621166
0.000620797
0.00062041
0.000620098
0.000619757
0.000619505
0.000619207
0.000618988
0.000618746
0.00061856
0.000618335
0.000618195
0.000618025
0.000617896
0.000617753
0.000617673
0.00061755
0.000617454
0.000617382
0.000617324
0.000617161
0.000617181
0.00061718
0.000617173
0.000617202
0.00061731
0.000617391
0.000617557
0.000617712
0.000617905
0.000618031
0.000618244
0.000618381
0.000618647
0.000618819
0.000619173
0.000619384
0.000619804
0.000620036
0.000620518
0.000620793
0.000621366
0.000621704
0.000622407
0.000622818
0.000623669
0.000624161
0.000625239
0.000625796
0.000627624
0.000627742
0.00063968
0.013694
0.0154682
0.00102216
0.000929301
0.000862329
0.000815106
0.000780929
0.000755419
0.000735612
0.000719932
0.000707098
0.00069655
0.000687599
0.000680054
0.000673488
0.000667854
0.000662842
0.00065851
0.000654586
0.000651173
0.000648029
0.000645284
0.000642719
0.000640475
0.000638345
0.000636495
0.000634717
0.000633173
0.000631668
0.000630371
0.000629106
0.000627997
0.000626908
0.000625984
0.000625059
0.000624275
0.000623483
0.000622802
0.000622103
0.000621525
0.000620921
0.000620427
0.00061991
0.000619481
0.000619023
0.00061865
0.000618257
0.000617942
0.000617596
0.00061734
0.000617038
0.000616816
0.00061657
0.000616382
0.000616154
0.00061601
0.000615838
0.000615707
0.000615561
0.000615479
0.000615354
0.000615257
0.000615182
0.000615123
0.000614961
0.000614976
0.000614974
0.000614966
0.000614988
0.000615095
0.000615172
0.000615334
0.000615487
0.00061568
0.000615803
0.000616015
0.00061615
0.000616414
0.000616583
0.000616934
0.000617143
0.000617559
0.00061779
0.000618269
0.000618542
0.00061911
0.000619446
0.000620144
0.000620552
0.000621396
0.000621885
0.000622956
0.000623506
0.000625327
0.000625421
0.000637726
0.0139251
0.0159176
0.00102221
0.000929283
0.000862092
0.000814612
0.0007802
0.000754489
0.000734515
0.000718696
0.000705747
0.000695099
0.000686063
0.000678446
0.000671816
0.000666126
0.000661065
0.000656689
0.000652725
0.000649278
0.000646101
0.000643327
0.000640736
0.000638468
0.000636316
0.000634446
0.000632649
0.000631089
0.000629567
0.000628256
0.000626977
0.000625855
0.000624754
0.000623818
0.000622883
0.00062209
0.000621287
0.000620599
0.000619892
0.000619306
0.000618694
0.000618193
0.000617669
0.000617235
0.000616771
0.000616394
0.000615995
0.000615676
0.000615325
0.000615065
0.000614759
0.000614533
0.000614283
0.000614093
0.000613861
0.000613714
0.000613539
0.000613406
0.000613257
0.000613173
0.000613046
0.000612947
0.00061287
0.00061281
0.000612648
0.000612658
0.000612656
0.000612645
0.000612661
0.000612765
0.000612839
0.000612998
0.000613148
0.00061334
0.000613462
0.000613671
0.000613804
0.000614066
0.000614233
0.000614579
0.000614787
0.0006152
0.000615429
0.000615904
0.000616175
0.000616739
0.000617072
0.000617764
0.000618168
0.000619007
0.000619491
0.000620554
0.000621098
0.000622911
0.000622981
0.000635658
0.0141411
0.0163806
0.00102226
0.000929266
0.000861848
0.000814102
0.000779442
0.000753522
0.000733373
0.000717408
0.000704335
0.000693584
0.000684459
0.000676764
0.000670067
0.000664318
0.000659205
0.000654783
0.000650777
0.000647293
0.000644082
0.000641278
0.000638659
0.000636366
0.000634191
0.000632299
0.000630483
0.000628904
0.000627366
0.000626039
0.000624745
0.00062361
0.000622496
0.000621548
0.000620602
0.000619798
0.000618985
0.000618289
0.000617572
0.000616979
0.000616359
0.000615851
0.00061532
0.00061488
0.00061441
0.000614027
0.000613623
0.000613299
0.000612943
0.000612679
0.000612368
0.000612139
0.000611885
0.000611691
0.000611456
0.000611306
0.000611127
0.000610993
0.00061084
0.000610753
0.000610625
0.000610524
0.000610444