/*--------------------------------*- C++ -*----------------------------------*\
| =========                 |                                                 |
| \\      /  F ield         | OpenFOAM: The Open Source CFD Toolbox           |
|  \\    /   O peration     | Version:  v2012                                 |
|   \\  /    A nd           | Website:  www.openfoam.com                      |
|    \\/     M anipulation  |                                                 |
\*---------------------------------------------------------------------------*/
FoamFile
{
    version     2.0;
    format      ascii;
    class       volScalarField;
    location    "22";
    object      nut;
}
// * * * * * * * * * * * * * * * * * * * * * * * * * * * * * * * * * * * * * //

dimensions      [0 2 -1 0 0 0 0];


internalField   nonuniform List<scalar> 
209825
(
1.2432e-07
1.16892e-07
1.08676e-07
1.02e-07
9.68761e-08
9.29336e-08
8.98069e-08
8.72967e-08
8.52168e-08
8.34938e-08
8.20197e-08
8.07716e-08
7.96798e-08
7.87402e-08
7.79005e-08
7.71743e-08
7.6514e-08
7.59401e-08
7.54093e-08
7.49464e-08
7.45127e-08
7.41337e-08
7.37723e-08
7.34591e-08
7.31576e-08
7.28963e-08
7.264e-08
7.242e-08
7.22057e-08
7.20167e-08
7.18311e-08
7.16737e-08
7.1517e-08
7.1384e-08
7.12484e-08
7.11301e-08
7.10117e-08
7.09127e-08
7.08086e-08
7.0723e-08
7.06327e-08
7.05564e-08
7.04789e-08
7.04132e-08
7.03429e-08
7.02867e-08
7.02309e-08
7.01838e-08
7.01268e-08
7.00868e-08
7.00447e-08
6.99972e-08
6.99547e-08
6.99299e-08
6.98911e-08
6.98664e-08
6.98292e-08
6.97973e-08
6.97587e-08
6.97196e-08
6.97082e-08
6.96968e-08
6.96512e-08
6.96471e-08
6.96229e-08
6.96051e-08
6.96125e-08
6.96194e-08
6.96166e-08
6.96378e-08
6.96494e-08
6.96625e-08
6.96682e-08
6.96878e-08
6.96927e-08
6.97224e-08
6.97308e-08
6.97709e-08
6.97862e-08
6.98281e-08
6.98428e-08
6.98916e-08
6.99104e-08
6.99669e-08
6.99947e-08
7.00611e-08
7.00964e-08
7.01675e-08
7.02069e-08
7.02922e-08
7.03327e-08
7.0445e-08
7.04658e-08
7.10423e-08
3.38856e-06
1.96714e-08
1.2432e-07
1.16893e-07
1.08678e-07
1.02002e-07
9.68779e-08
9.29351e-08
8.98083e-08
8.72978e-08
8.52176e-08
8.34945e-08
8.20202e-08
8.07719e-08
7.968e-08
7.87403e-08
7.79005e-08
7.71741e-08
7.65137e-08
7.59397e-08
7.54089e-08
7.49459e-08
7.45122e-08
7.41331e-08
7.37716e-08
7.34584e-08
7.31569e-08
7.28955e-08
7.26392e-08
7.24191e-08
7.22048e-08
7.20158e-08
7.18301e-08
7.16727e-08
7.15159e-08
7.13829e-08
7.12474e-08
7.1129e-08
7.10105e-08
7.09116e-08
7.08074e-08
7.07219e-08
7.06314e-08
7.05552e-08
7.04777e-08
7.04119e-08
7.03416e-08
7.02855e-08
7.02296e-08
7.01825e-08
7.01255e-08
7.00855e-08
7.00433e-08
6.99959e-08
6.99533e-08
6.99285e-08
6.98898e-08
6.9865e-08
6.98278e-08
6.97959e-08
6.97573e-08
6.97183e-08
6.97068e-08
6.96954e-08
6.96498e-08
6.96457e-08
6.96215e-08
6.96037e-08
6.96111e-08
6.9618e-08
6.96152e-08
6.96364e-08
6.96479e-08
6.9661e-08
6.96667e-08
6.96863e-08
6.96912e-08
6.97209e-08
6.97293e-08
6.97694e-08
6.97847e-08
6.98266e-08
6.98413e-08
6.98901e-08
6.99089e-08
6.99654e-08
6.99932e-08
7.00596e-08
7.00949e-08
7.0166e-08
7.02054e-08
7.02906e-08
7.03311e-08
7.04435e-08
7.04642e-08
7.10415e-08
3.38918e-06
1.98393e-08
1.24321e-07
1.16899e-07
1.08686e-07
1.0201e-07
9.6885e-08
9.29412e-08
8.98133e-08
8.73018e-08
8.52208e-08
8.34968e-08
8.20219e-08
8.0773e-08
7.96806e-08
7.87404e-08
7.79001e-08
7.71734e-08
7.65126e-08
7.59383e-08
7.54072e-08
7.49439e-08
7.45099e-08
7.41306e-08
7.3769e-08
7.34556e-08
7.31539e-08
7.28923e-08
7.26359e-08
7.24157e-08
7.22012e-08
7.20121e-08
7.18263e-08
7.16688e-08
7.15119e-08
7.13788e-08
7.12432e-08
7.11247e-08
7.10062e-08
7.09072e-08
7.08029e-08
7.07173e-08
7.06268e-08
7.05505e-08
7.04729e-08
7.04072e-08
7.03368e-08
7.02806e-08
7.02247e-08
7.01776e-08
7.01205e-08
7.00805e-08
7.00383e-08
6.99908e-08
6.99482e-08
6.99234e-08
6.98846e-08
6.98598e-08
6.98226e-08
6.97907e-08
6.97521e-08
6.9713e-08
6.97015e-08
6.96901e-08
6.96444e-08
6.96403e-08
6.96161e-08
6.95983e-08
6.96056e-08
6.96125e-08
6.96097e-08
6.96308e-08
6.96423e-08
6.96555e-08
6.96611e-08
6.96807e-08
6.96856e-08
6.97152e-08
6.97236e-08
6.97636e-08
6.9779e-08
6.98209e-08
6.98355e-08
6.98843e-08
6.99031e-08
6.99596e-08
6.99873e-08
7.00537e-08
7.00889e-08
7.016e-08
7.01994e-08
7.02846e-08
7.03251e-08
7.04374e-08
7.04581e-08
7.1037e-08
3.39066e-06
2.00854e-08
1.24323e-07
1.16909e-07
1.087e-07
1.02023e-07
9.68971e-08
9.29514e-08
8.98217e-08
8.73086e-08
8.52261e-08
8.35009e-08
8.20248e-08
8.07749e-08
7.96816e-08
7.87406e-08
7.78996e-08
7.71722e-08
7.65108e-08
7.5936e-08
7.54044e-08
7.49407e-08
7.45063e-08
7.41267e-08
7.37646e-08
7.3451e-08
7.31489e-08
7.28872e-08
7.26305e-08
7.241e-08
7.21953e-08
7.2006e-08
7.182e-08
7.16623e-08
7.15053e-08
7.1372e-08
7.12363e-08
7.11177e-08
7.0999e-08
7.08999e-08
7.07955e-08
7.07098e-08
7.06192e-08
7.05428e-08
7.04651e-08
7.03993e-08
7.03288e-08
7.02725e-08
7.02165e-08
7.01694e-08
7.01123e-08
7.00721e-08
7.00299e-08
6.99824e-08
6.99398e-08
6.99149e-08
6.98761e-08
6.98513e-08
6.9814e-08
6.9782e-08
6.97434e-08
6.97043e-08
6.96928e-08
6.96813e-08
6.96356e-08
6.96315e-08
6.96071e-08
6.95893e-08
6.95965e-08
6.96034e-08
6.96005e-08
6.96216e-08
6.96331e-08
6.96462e-08
6.96518e-08
6.96714e-08
6.96763e-08
6.97059e-08
6.97142e-08
6.97542e-08
6.97695e-08
6.98114e-08
6.9826e-08
6.98747e-08
6.98935e-08
6.99499e-08
6.99776e-08
7.00439e-08
7.00791e-08
7.01502e-08
7.01895e-08
7.02746e-08
7.03151e-08
7.04274e-08
7.04478e-08
7.10294e-08
3.39299e-06
2.03846e-08
1.24326e-07
1.16924e-07
1.08719e-07
1.02043e-07
9.69142e-08
9.29659e-08
8.98337e-08
8.73183e-08
8.52338e-08
8.35067e-08
8.2029e-08
8.07777e-08
7.96831e-08
7.87409e-08
7.78989e-08
7.71706e-08
7.65084e-08
7.59329e-08
7.54006e-08
7.49363e-08
7.45013e-08
7.41211e-08
7.37586e-08
7.34445e-08
7.31421e-08
7.28799e-08
7.26229e-08
7.24021e-08
7.21871e-08
7.19975e-08
7.18113e-08
7.16533e-08
7.1496e-08
7.13626e-08
7.12266e-08
7.11078e-08
7.0989e-08
7.08896e-08
7.07852e-08
7.06993e-08
7.06085e-08
7.0532e-08
7.04542e-08
7.03882e-08
7.03177e-08
7.02613e-08
7.02051e-08
7.01579e-08
7.01007e-08
7.00605e-08
7.00182e-08
6.99707e-08
6.99279e-08
6.9903e-08
6.98641e-08
6.98393e-08
6.98019e-08
6.97699e-08
6.97313e-08
6.96921e-08
6.96805e-08
6.9669e-08
6.96232e-08
6.9619e-08
6.95946e-08
6.95767e-08
6.95838e-08
6.95907e-08
6.95877e-08
6.96087e-08
6.96202e-08
6.96333e-08
6.96388e-08
6.96583e-08
6.96632e-08
6.96927e-08
6.9701e-08
6.97409e-08
6.97562e-08
6.9798e-08
6.98126e-08
6.98612e-08
6.988e-08
6.99363e-08
6.9964e-08
7.00301e-08
7.00653e-08
7.01363e-08
7.01756e-08
7.02607e-08
7.0301e-08
7.04133e-08
7.04335e-08
7.10186e-08
3.39624e-06
2.07276e-08
1.24329e-07
1.16943e-07
1.08745e-07
1.02068e-07
9.69365e-08
9.29848e-08
8.98493e-08
8.7331e-08
8.52437e-08
8.35143e-08
8.20345e-08
8.07814e-08
7.96851e-08
7.87415e-08
7.78981e-08
7.71687e-08
7.65054e-08
7.59289e-08
7.53957e-08
7.49306e-08
7.44949e-08
7.4114e-08
7.37509e-08
7.34362e-08
7.31333e-08
7.28706e-08
7.26131e-08
7.23919e-08
7.21765e-08
7.19866e-08
7.18e-08
7.16417e-08
7.14841e-08
7.13504e-08
7.12141e-08
7.10951e-08
7.0976e-08
7.08765e-08
7.07718e-08
7.06857e-08
7.05948e-08
7.05181e-08
7.04401e-08
7.0374e-08
7.03033e-08
7.02467e-08
7.01904e-08
7.01431e-08
7.00857e-08
7.00455e-08
7.00031e-08
6.99556e-08
6.99127e-08
6.98876e-08
6.98487e-08
6.98238e-08
6.97863e-08
6.97542e-08
6.97156e-08
6.96764e-08
6.96646e-08
6.96531e-08
6.96073e-08
6.9603e-08
6.95784e-08
6.95605e-08
6.95674e-08
6.95743e-08
6.95712e-08
6.9592e-08
6.96034e-08
6.96166e-08
6.9622e-08
6.96415e-08
6.96463e-08
6.96757e-08
6.96839e-08
6.97237e-08
6.97389e-08
6.97807e-08
6.97953e-08
6.98438e-08
6.98626e-08
6.99187e-08
6.99464e-08
7.00124e-08
7.00475e-08
7.01184e-08
7.01577e-08
7.02426e-08
7.02829e-08
7.03952e-08
7.04149e-08
7.10047e-08
3.40043e-06
2.11117e-08
1.24334e-07
1.16966e-07
1.08776e-07
1.02099e-07
9.6964e-08
9.30082e-08
8.98687e-08
8.73467e-08
8.52561e-08
8.35238e-08
8.20414e-08
8.0786e-08
7.96876e-08
7.87422e-08
7.78973e-08
7.71663e-08
7.65017e-08
7.5924e-08
7.53898e-08
7.49236e-08
7.4487e-08
7.41053e-08
7.37415e-08
7.34261e-08
7.31224e-08
7.28592e-08
7.26011e-08
7.23794e-08
7.21636e-08
7.19732e-08
7.17861e-08
7.16274e-08
7.14695e-08
7.13354e-08
7.11988e-08
7.10795e-08
7.09601e-08
7.08603e-08
7.07553e-08
7.0669e-08
7.05779e-08
7.05009e-08
7.04227e-08
7.03565e-08
7.02855e-08
7.02289e-08
7.01723e-08
7.01249e-08
7.00674e-08
7.0027e-08
6.99846e-08
6.99369e-08
6.98939e-08
6.98687e-08
6.98297e-08
6.98047e-08
6.97671e-08
6.9735e-08
6.96964e-08
6.9657e-08
6.96451e-08
6.96336e-08
6.95876e-08
6.95832e-08
6.95585e-08
6.95405e-08
6.95472e-08
6.9554e-08
6.95508e-08
6.95715e-08
6.95828e-08
6.9596e-08
6.96014e-08
6.96208e-08
6.96255e-08
6.96548e-08
6.9663e-08
6.97026e-08
6.97178e-08
6.97594e-08
6.9774e-08
6.98224e-08
6.98411e-08
6.98971e-08
6.99247e-08
6.99905e-08
7.00256e-08
7.00964e-08
7.01356e-08
7.02203e-08
7.02605e-08
7.03728e-08
7.0392e-08
7.09875e-08
3.4056e-06
2.15376e-08
1.24339e-07
1.16994e-07
1.08813e-07
1.02136e-07
9.69969e-08
9.30362e-08
8.98919e-08
8.73655e-08
8.5271e-08
8.35352e-08
8.20498e-08
8.07916e-08
7.96908e-08
7.87432e-08
7.78963e-08
7.71636e-08
7.64974e-08
7.59183e-08
7.53827e-08
7.49154e-08
7.44777e-08
7.40951e-08
7.37303e-08
7.3414e-08
7.31096e-08
7.28457e-08
7.25869e-08
7.23646e-08
7.21481e-08
7.19572e-08
7.17697e-08
7.16105e-08
7.1452e-08
7.13175e-08
7.11806e-08
7.10609e-08
7.09411e-08
7.0841e-08
7.07357e-08
7.06492e-08
7.05577e-08
7.04805e-08
7.04021e-08
7.03356e-08
7.02645e-08
7.02076e-08
7.01507e-08
7.01032e-08
7.00455e-08
7.00049e-08
6.99624e-08
6.99148e-08
6.98715e-08
6.98462e-08
6.98071e-08
6.9782e-08
6.97443e-08
6.9712e-08
6.96734e-08
6.9634e-08
6.96218e-08
6.96103e-08
6.95642e-08
6.95597e-08
6.95348e-08
6.95167e-08
6.95231e-08
6.95299e-08
6.95265e-08
6.95471e-08
6.95583e-08
6.95714e-08
6.95768e-08
6.95961e-08
6.96007e-08
6.96299e-08
6.9638e-08
6.96774e-08
6.96925e-08
6.97341e-08
6.97486e-08
6.97968e-08
6.98156e-08
6.98713e-08
6.98989e-08
6.99645e-08
6.99995e-08
7.00702e-08
7.01092e-08
7.01938e-08
7.02339e-08
7.03461e-08
7.03648e-08
7.09671e-08
3.41177e-06
2.20089e-08
1.24345e-07
1.17027e-07
1.08857e-07
1.02179e-07
9.70353e-08
9.30689e-08
8.9919e-08
8.73875e-08
8.52885e-08
8.35486e-08
8.20596e-08
8.07982e-08
7.96946e-08
7.87445e-08
7.78953e-08
7.71606e-08
7.64925e-08
7.59117e-08
7.53746e-08
7.49059e-08
7.44669e-08
7.40832e-08
7.37173e-08
7.34001e-08
7.30947e-08
7.283e-08
7.25704e-08
7.23473e-08
7.21302e-08
7.19387e-08
7.17505e-08
7.15908e-08
7.14318e-08
7.12968e-08
7.11594e-08
7.10393e-08
7.09191e-08
7.08187e-08
7.0713e-08
7.06261e-08
7.05343e-08
7.04568e-08
7.03781e-08
7.03113e-08
7.02399e-08
7.01828e-08
7.01257e-08
7.00779e-08
7.002e-08
6.99793e-08
6.99367e-08
6.98889e-08
6.98455e-08
6.982e-08
6.97807e-08
6.97556e-08
6.97177e-08
6.96853e-08
6.96467e-08
6.96071e-08
6.95948e-08
6.95831e-08
6.9537e-08
6.95322e-08
6.95072e-08
6.9489e-08
6.94951e-08
6.95019e-08
6.94983e-08
6.95186e-08
6.95298e-08
6.95429e-08
6.95481e-08
6.95673e-08
6.95718e-08
6.96009e-08
6.96089e-08
6.96481e-08
6.96632e-08
6.97046e-08
6.9719e-08
6.97671e-08
6.97858e-08
6.98412e-08
6.98688e-08
6.99341e-08
6.99691e-08
7.00396e-08
7.00785e-08
7.01629e-08
7.02029e-08
7.0315e-08
7.03331e-08
7.09434e-08
3.41894e-06
2.25317e-08
1.24351e-07
1.17063e-07
1.08906e-07
1.02228e-07
9.70793e-08
9.31064e-08
8.99501e-08
8.74129e-08
8.53086e-08
8.35641e-08
8.2071e-08
8.0806e-08
7.96991e-08
7.87461e-08
7.78942e-08
7.71572e-08
7.6487e-08
7.59043e-08
7.53654e-08
7.48952e-08
7.44547e-08
7.40696e-08
7.37025e-08
7.33841e-08
7.30777e-08
7.2812e-08
7.25516e-08
7.23277e-08
7.21097e-08
7.19175e-08
7.17286e-08
7.15683e-08
7.14087e-08
7.12731e-08
7.11351e-08
7.10146e-08
7.08939e-08
7.07931e-08
7.0687e-08
7.05997e-08
7.05075e-08
7.04297e-08
7.03506e-08
7.02836e-08
7.02119e-08
7.01545e-08
7.0097e-08
7.0049e-08
6.99909e-08
6.995e-08
6.99073e-08
6.98594e-08
6.98157e-08
6.979e-08
6.97506e-08
6.97253e-08
6.96872e-08
6.96548e-08
6.96161e-08
6.95764e-08
6.95638e-08
6.95521e-08
6.95058e-08
6.95009e-08
6.94757e-08
6.94573e-08
6.9463e-08
6.94698e-08
6.9466e-08
6.9486e-08
6.94971e-08
6.95102e-08
6.95153e-08
6.95344e-08
6.95388e-08
6.95677e-08
6.95756e-08
6.96145e-08
6.96295e-08
6.96708e-08
6.96852e-08
6.9733e-08
6.97517e-08
6.98069e-08
6.98344e-08
6.98994e-08
6.99343e-08
7.00046e-08
7.00434e-08
7.01276e-08
7.01674e-08
7.02794e-08
7.02968e-08
7.09163e-08
3.42711e-06
2.31134e-08
1.24358e-07
1.17104e-07
1.08962e-07
1.02284e-07
9.7129e-08
9.31489e-08
8.99855e-08
8.74416e-08
8.53315e-08
8.35818e-08
8.2084e-08
8.08148e-08
7.97042e-08
7.8748e-08
7.78932e-08
7.71535e-08
7.64809e-08
7.5896e-08
7.53552e-08
7.48831e-08
7.4441e-08
7.40544e-08
7.36859e-08
7.33663e-08
7.30587e-08
7.27919e-08
7.25304e-08
7.23055e-08
7.20867e-08
7.18937e-08
7.1704e-08
7.15429e-08
7.13826e-08
7.12464e-08
7.11079e-08
7.09868e-08
7.08656e-08
7.07642e-08
7.06576e-08
7.05699e-08
7.04773e-08
7.03992e-08
7.03196e-08
7.02523e-08
7.01802e-08
7.01225e-08
7.00647e-08
7.00165e-08
6.9958e-08
6.99169e-08
6.9874e-08
6.98261e-08
6.97821e-08
6.97562e-08
6.97166e-08
6.96912e-08
6.96529e-08
6.96203e-08
6.95816e-08
6.95417e-08
6.95288e-08
6.95171e-08
6.94707e-08
6.94655e-08
6.94401e-08
6.94216e-08
6.94268e-08
6.94335e-08
6.94295e-08
6.94493e-08
6.94602e-08
6.94733e-08
6.94782e-08
6.94973e-08
6.95015e-08
6.95302e-08
6.9538e-08
6.95767e-08
6.95916e-08
6.96327e-08
6.9647e-08
6.96946e-08
6.97132e-08
6.97681e-08
6.97955e-08
6.98602e-08
6.9895e-08
6.99651e-08
7.00038e-08
7.00877e-08
7.01273e-08
7.02393e-08
7.02558e-08
7.08857e-08
3.43623e-06
2.37633e-08
1.24366e-07
1.1715e-07
1.09024e-07
1.02346e-07
9.71846e-08
9.31965e-08
9.00251e-08
8.74739e-08
8.53572e-08
8.36017e-08
8.20986e-08
8.08249e-08
7.97102e-08
7.87502e-08
7.78921e-08
7.71495e-08
7.64742e-08
7.58869e-08
7.53438e-08
7.48698e-08
7.44258e-08
7.40375e-08
7.36674e-08
7.33464e-08
7.30374e-08
7.27694e-08
7.25068e-08
7.22809e-08
7.2061e-08
7.18671e-08
7.16766e-08
7.15147e-08
7.13536e-08
7.12167e-08
7.10774e-08
7.09558e-08
7.08339e-08
7.0732e-08
7.06249e-08
7.05367e-08
7.04437e-08
7.03651e-08
7.02851e-08
7.02174e-08
7.01449e-08
7.00869e-08
7.00286e-08
6.99801e-08
6.99214e-08
6.988e-08
6.9837e-08
6.97889e-08
6.97446e-08
6.97184e-08
6.96787e-08
6.96531e-08
6.96145e-08
6.95818e-08
6.95431e-08
6.9503e-08
6.94898e-08
6.9478e-08
6.94315e-08
6.9426e-08
6.94003e-08
6.93817e-08
6.93864e-08
6.93931e-08
6.93888e-08
6.94082e-08
6.94191e-08
6.94321e-08
6.94369e-08
6.94558e-08
6.94599e-08
6.94884e-08
6.9496e-08
6.95344e-08
6.95492e-08
6.95901e-08
6.96044e-08
6.96516e-08
6.96703e-08
6.97248e-08
6.97521e-08
6.98164e-08
6.98511e-08
6.9921e-08
6.99595e-08
7.00431e-08
7.00826e-08
7.01944e-08
7.02101e-08
7.08517e-08
3.44624e-06
2.44916e-08
1.24375e-07
1.172e-07
1.09093e-07
1.02414e-07
9.72462e-08
9.32493e-08
9.00691e-08
8.75099e-08
8.53859e-08
8.36239e-08
8.21151e-08
8.08362e-08
7.97169e-08
7.87529e-08
7.78912e-08
7.71452e-08
7.64669e-08
7.58769e-08
7.53314e-08
7.48551e-08
7.4409e-08
7.40189e-08
7.36471e-08
7.33245e-08
7.3014e-08
7.27447e-08
7.24808e-08
7.22537e-08
7.20327e-08
7.18378e-08
7.16463e-08
7.14835e-08
7.13215e-08
7.11839e-08
7.10438e-08
7.09216e-08
7.0799e-08
7.06965e-08
7.05888e-08
7.05e-08
7.04064e-08
7.03274e-08
7.02469e-08
7.01788e-08
7.01059e-08
7.00474e-08
6.99887e-08
6.99399e-08
6.98808e-08
6.98392e-08
6.9796e-08
6.97478e-08
6.97032e-08
6.96767e-08
6.96367e-08
6.9611e-08
6.95721e-08
6.95392e-08
6.95005e-08
6.94602e-08
6.94466e-08
6.94348e-08
6.93881e-08
6.93822e-08
6.93564e-08
6.93376e-08
6.93417e-08
6.93483e-08
6.93437e-08
6.93628e-08
6.93735e-08
6.93866e-08
6.93911e-08
6.94099e-08
6.94138e-08
6.94421e-08
6.94495e-08
6.94876e-08
6.95023e-08
6.9543e-08
6.95572e-08
6.96041e-08
6.96227e-08
6.96768e-08
6.97041e-08
6.9768e-08
6.98026e-08
6.98722e-08
6.99105e-08
6.99938e-08
7.00331e-08
7.01447e-08
7.01594e-08
7.0814e-08
3.45704e-06
2.53098e-08
1.24384e-07
1.17255e-07
1.09168e-07
1.0249e-07
9.7314e-08
9.33074e-08
9.01177e-08
8.75496e-08
8.54176e-08
8.36485e-08
8.21334e-08
8.08489e-08
7.97245e-08
7.87561e-08
7.78903e-08
7.71407e-08
7.64591e-08
7.58661e-08
7.53179e-08
7.48392e-08
7.43908e-08
7.39987e-08
7.36249e-08
7.33006e-08
7.29885e-08
7.27176e-08
7.24523e-08
7.22239e-08
7.20017e-08
7.18058e-08
7.16131e-08
7.14493e-08
7.12864e-08
7.11479e-08
7.1007e-08
7.0884e-08
7.07607e-08
7.06575e-08
7.05491e-08
7.04598e-08
7.03656e-08
7.0286e-08
7.0205e-08
7.01365e-08
7.00631e-08
7.00042e-08
6.99449e-08
6.98959e-08
6.98364e-08
6.97945e-08
6.9751e-08
6.97026e-08
6.96577e-08
6.96308e-08
6.95907e-08
6.95647e-08
6.95256e-08
6.94924e-08
6.94537e-08
6.94132e-08
6.93993e-08
6.93873e-08
6.93404e-08
6.93342e-08
6.93082e-08
6.92891e-08
6.92926e-08
6.92992e-08
6.92942e-08
6.9313e-08
6.93235e-08
6.93365e-08
6.93409e-08
6.93595e-08
6.93633e-08
6.93912e-08
6.93985e-08
6.94362e-08
6.94508e-08
6.94913e-08
6.95054e-08
6.9552e-08
6.95705e-08
6.96242e-08
6.96514e-08
6.97148e-08
6.97492e-08
6.98186e-08
6.98567e-08
6.99396e-08
6.99787e-08
7.00902e-08
7.01038e-08
7.07727e-08
3.46847e-06
2.62304e-08
1.24393e-07
1.17314e-07
1.09249e-07
1.02572e-07
9.7388e-08
9.33711e-08
9.01709e-08
8.75932e-08
8.54526e-08
8.36757e-08
8.21536e-08
8.0863e-08
7.97331e-08
7.87598e-08
7.78896e-08
7.7136e-08
7.64508e-08
7.58546e-08
7.53034e-08
7.4822e-08
7.43711e-08
7.39767e-08
7.36009e-08
7.32746e-08
7.29607e-08
7.26883e-08
7.24214e-08
7.21916e-08
7.1968e-08
7.17709e-08
7.1577e-08
7.14122e-08
7.12481e-08
7.11087e-08
7.09669e-08
7.08431e-08
7.07189e-08
7.06151e-08
7.05059e-08
7.04159e-08
7.03211e-08
7.0241e-08
7.01594e-08
7.00904e-08
7.00164e-08
6.99571e-08
6.98972e-08
6.98478e-08
6.97879e-08
6.97456e-08
6.97019e-08
6.96534e-08
6.9608e-08
6.95808e-08
6.95404e-08
6.95143e-08
6.94748e-08
6.94414e-08
6.94027e-08
6.9362e-08
6.93476e-08
6.93355e-08
6.92885e-08
6.92819e-08
6.92556e-08
6.92363e-08
6.9239e-08
6.92455e-08
6.92402e-08
6.92586e-08
6.92689e-08
6.92819e-08
6.92861e-08
6.93046e-08
6.93081e-08
6.93358e-08
6.93429e-08
6.93802e-08
6.93946e-08
6.94348e-08
6.94488e-08
6.94951e-08
6.95135e-08
6.95667e-08
6.95938e-08
6.96567e-08
6.96911e-08
6.976e-08
6.9798e-08
6.98805e-08
6.99193e-08
7.00307e-08
7.00432e-08
7.07276e-08
3.48034e-06
2.72663e-08
1.24404e-07
1.17377e-07
1.09337e-07
1.02661e-07
9.74685e-08
9.34404e-08
9.0229e-08
8.76409e-08
8.54908e-08
8.37055e-08
8.21759e-08
8.08786e-08
7.97428e-08
7.87642e-08
7.78891e-08
7.71312e-08
7.64421e-08
7.58423e-08
7.52878e-08
7.48035e-08
7.435e-08
7.39531e-08
7.3575e-08
7.32466e-08
7.29308e-08
7.26565e-08
7.2388e-08
7.21566e-08
7.19316e-08
7.17331e-08
7.1538e-08
7.13719e-08
7.12067e-08
7.10663e-08
7.09235e-08
7.07989e-08
7.06737e-08
7.05691e-08
7.04591e-08
7.03685e-08
7.02729e-08
7.01922e-08
7.01099e-08
7.00404e-08
6.99659e-08
6.9906e-08
6.98455e-08
6.97957e-08
6.97353e-08
6.96927e-08
6.96487e-08
6.96001e-08
6.95542e-08
6.95266e-08
6.9486e-08
6.94595e-08
6.94197e-08
6.93861e-08
6.93474e-08
6.93064e-08
6.92915e-08
6.92793e-08
6.92321e-08
6.9225e-08
6.91986e-08
6.91791e-08
6.91809e-08
6.91874e-08
6.91817e-08
6.91996e-08
6.92097e-08
6.92227e-08
6.92266e-08
6.92449e-08
6.92482e-08
6.92756e-08
6.92825e-08
6.93193e-08
6.93336e-08
6.93736e-08
6.93875e-08
6.94333e-08
6.94517e-08
6.95044e-08
6.95313e-08
6.95937e-08
6.96279e-08
6.96966e-08
6.97342e-08
6.98163e-08
6.98549e-08
6.9966e-08
6.99773e-08
7.06786e-08
3.49239e-06
2.84317e-08
1.24414e-07
1.17445e-07
1.09432e-07
1.02757e-07
9.75556e-08
9.35155e-08
9.02921e-08
8.76928e-08
8.55325e-08
8.37381e-08
8.22004e-08
8.08959e-08
7.97535e-08
7.87692e-08
7.78889e-08
7.71263e-08
7.64329e-08
7.58293e-08
7.52713e-08
7.47838e-08
7.43273e-08
7.39279e-08
7.35472e-08
7.32166e-08
7.28986e-08
7.26225e-08
7.23521e-08
7.2119e-08
7.18924e-08
7.16925e-08
7.1496e-08
7.13286e-08
7.11622e-08
7.10206e-08
7.08767e-08
7.07512e-08
7.0625e-08
7.05195e-08
7.04087e-08
7.03173e-08
7.0221e-08
7.01396e-08
7.00566e-08
6.99865e-08
6.99113e-08
6.98509e-08
6.97897e-08
6.97395e-08
6.96787e-08
6.96356e-08
6.95913e-08
6.95425e-08
6.94961e-08
6.94681e-08
6.94272e-08
6.94005e-08
6.93603e-08
6.93264e-08
6.92876e-08
6.92464e-08
6.9231e-08
6.92187e-08
6.91713e-08
6.91637e-08
6.91371e-08
6.91173e-08
6.91182e-08
6.91246e-08
6.91185e-08
6.91359e-08
6.91458e-08
6.91587e-08
6.91624e-08
6.91805e-08
6.91835e-08
6.92106e-08
6.92173e-08
6.92536e-08
6.92678e-08
6.93074e-08
6.93212e-08
6.93666e-08
6.93849e-08
6.94371e-08
6.94639e-08
6.95257e-08
6.95597e-08
6.9628e-08
6.96654e-08
6.97471e-08
6.97853e-08
6.98962e-08
6.99063e-08
7.06256e-08
3.50429e-06
2.97409e-08
1.24426e-07
1.17517e-07
1.09533e-07
1.0286e-07
9.76493e-08
9.35966e-08
9.03603e-08
8.7749e-08
8.55777e-08
8.37736e-08
8.22272e-08
8.09149e-08
7.97655e-08
7.87749e-08
7.7889e-08
7.71214e-08
7.64234e-08
7.58157e-08
7.52539e-08
7.4763e-08
7.43033e-08
7.39009e-08
7.35176e-08
7.31846e-08
7.28643e-08
7.2586e-08
7.23137e-08
7.20788e-08
7.18504e-08
7.16491e-08
7.1451e-08
7.12823e-08
7.11144e-08
7.09716e-08
7.08266e-08
7.07e-08
7.05728e-08
7.04664e-08
7.03546e-08
7.02624e-08
7.01652e-08
7.00831e-08
6.99993e-08
6.99286e-08
6.98528e-08
6.97917e-08
6.97299e-08
6.96792e-08
6.96178e-08
6.95743e-08
6.95296e-08
6.94806e-08
6.94337e-08
6.94053e-08
6.9364e-08
6.93371e-08
6.92964e-08
6.92623e-08
6.92234e-08
6.91819e-08
6.91659e-08
6.91536e-08
6.9106e-08
6.90977e-08
6.90711e-08
6.90509e-08
6.90508e-08
6.90571e-08
6.90505e-08
6.90675e-08
6.90771e-08
6.909e-08
6.90933e-08
6.91112e-08
6.9114e-08
6.91407e-08
6.91472e-08
6.9183e-08
6.9197e-08
6.92363e-08
6.925e-08
6.92949e-08
6.93131e-08
6.93648e-08
6.93914e-08
6.94526e-08
6.94864e-08
6.95543e-08
6.95914e-08
6.96726e-08
6.97105e-08
6.98212e-08
6.98299e-08
7.05685e-08
3.51567e-06
3.12093e-08
1.24437e-07
1.17594e-07
1.09641e-07
1.02971e-07
9.775e-08
9.36839e-08
9.04339e-08
8.78097e-08
8.56268e-08
8.38121e-08
8.22563e-08
8.09357e-08
7.97788e-08
7.87816e-08
7.78896e-08
7.71166e-08
7.64136e-08
7.58014e-08
7.52355e-08
7.47409e-08
7.42778e-08
7.38724e-08
7.34862e-08
7.31505e-08
7.28277e-08
7.25473e-08
7.22728e-08
7.2036e-08
7.18057e-08
7.16027e-08
7.14029e-08
7.12327e-08
7.10634e-08
7.09193e-08
7.07731e-08
7.06454e-08
7.0517e-08
7.04096e-08
7.02968e-08
7.02037e-08
7.01056e-08
7.00228e-08
6.99381e-08
6.98667e-08
6.97902e-08
6.97285e-08
6.96658e-08
6.96147e-08
6.95527e-08
6.95087e-08
6.94636e-08
6.94144e-08
6.9367e-08
6.9338e-08
6.92964e-08
6.92692e-08
6.92281e-08
6.91936e-08
6.91547e-08
6.91129e-08
6.90963e-08
6.90838e-08
6.90361e-08
6.90271e-08
6.90004e-08
6.89798e-08
6.89787e-08
6.89848e-08
6.89778e-08
6.89942e-08
6.90036e-08
6.90163e-08
6.90194e-08
6.90371e-08
6.90396e-08
6.90659e-08
6.90722e-08
6.91074e-08
6.91212e-08
6.91601e-08
6.91737e-08
6.92181e-08
6.92362e-08
6.92873e-08
6.93137e-08
6.93743e-08
6.94079e-08
6.94753e-08
6.95122e-08
6.95928e-08
6.96304e-08
6.97407e-08
6.9748e-08
7.05071e-08
3.52604e-06
3.28524e-08
1.24449e-07
1.17674e-07
1.09756e-07
1.03088e-07
9.78577e-08
9.37775e-08
9.05129e-08
8.78751e-08
8.56797e-08
8.38539e-08
8.22881e-08
8.09585e-08
7.97936e-08
7.87892e-08
7.78907e-08
7.71119e-08
7.64036e-08
7.57867e-08
7.52164e-08
7.47178e-08
7.4251e-08
7.38423e-08
7.3453e-08
7.31145e-08
7.2789e-08
7.25062e-08
7.22294e-08
7.19905e-08
7.17582e-08
7.15534e-08
7.13519e-08
7.11801e-08
7.10092e-08
7.08637e-08
7.07161e-08
7.05872e-08
7.04576e-08
7.03491e-08
7.02353e-08
7.01412e-08
7.00422e-08
6.99584e-08
6.98729e-08
6.98008e-08
6.97234e-08
6.9661e-08
6.95976e-08
6.95459e-08
6.94833e-08
6.94387e-08
6.93932e-08
6.93438e-08
6.92958e-08
6.92663e-08
6.92243e-08
6.91967e-08
6.91551e-08
6.91204e-08
6.90814e-08
6.90393e-08
6.90221e-08
6.90094e-08
6.89616e-08
6.89518e-08
6.89251e-08
6.89041e-08
6.89017e-08
6.89077e-08
6.89002e-08
6.8916e-08
6.89251e-08
6.89378e-08
6.89405e-08
6.89579e-08
6.89602e-08
6.8986e-08
6.89921e-08
6.90267e-08
6.90403e-08
6.90789e-08
6.90923e-08
6.91361e-08
6.91542e-08
6.92046e-08
6.92308e-08
6.92907e-08
6.9324e-08
6.9391e-08
6.94276e-08
6.95076e-08
6.95448e-08
6.96548e-08
6.96607e-08
7.04413e-08
3.53487e-06
3.46858e-08
1.24461e-07
1.17759e-07
1.09877e-07
1.03214e-07
9.79727e-08
9.38776e-08
9.05976e-08
8.79453e-08
8.57367e-08
8.3899e-08
8.23225e-08
8.09833e-08
7.98099e-08
7.87979e-08
7.78924e-08
7.71074e-08
7.63934e-08
7.57714e-08
7.51964e-08
7.46936e-08
7.42229e-08
7.38106e-08
7.3418e-08
7.30765e-08
7.27482e-08
7.24627e-08
7.21836e-08
7.19423e-08
7.17079e-08
7.15013e-08
7.12978e-08
7.11243e-08
7.09518e-08
7.08048e-08
7.06557e-08
7.05255e-08
7.03946e-08
7.0285e-08
7.01699e-08
7.00748e-08
6.99748e-08
6.98902e-08
6.98036e-08
6.97308e-08
6.96526e-08
6.95894e-08
6.95251e-08
6.94728e-08
6.94095e-08
6.93644e-08
6.93184e-08
6.92688e-08
6.92201e-08
6.919e-08
6.91477e-08
6.91197e-08
6.90776e-08
6.90425e-08
6.90034e-08
6.89611e-08
6.89431e-08
6.89303e-08
6.88823e-08
6.88717e-08
6.8845e-08
6.88235e-08
6.88199e-08
6.88257e-08
6.88176e-08
6.88329e-08
6.88416e-08
6.88542e-08
6.88566e-08
6.88737e-08
6.88757e-08
6.8901e-08
6.89069e-08
6.89409e-08
6.89543e-08
6.89923e-08
6.90057e-08
6.90489e-08
6.90668e-08
6.91165e-08
6.91426e-08
6.92018e-08
6.92348e-08
6.93012e-08
6.93375e-08
6.9417e-08
6.94538e-08
6.95633e-08
6.95678e-08
7.03708e-08
3.54154e-06
3.67264e-08
1.24474e-07
1.17848e-07
1.10005e-07
1.03347e-07
9.8095e-08
9.39844e-08
9.06883e-08
8.80207e-08
8.5798e-08
8.39476e-08
8.23598e-08
8.10105e-08
7.98279e-08
7.88077e-08
7.78949e-08
7.71033e-08
7.63832e-08
7.57558e-08
7.51758e-08
7.46685e-08
7.41935e-08
7.37775e-08
7.33813e-08
7.30366e-08
7.27052e-08
7.2417e-08
7.21352e-08
7.18916e-08
7.16549e-08
7.14462e-08
7.12408e-08
7.10654e-08
7.0891e-08
7.07424e-08
7.05918e-08
7.04603e-08
7.03279e-08
7.02171e-08
7.01008e-08
7.00046e-08
6.99034e-08
6.98179e-08
6.97303e-08
6.96566e-08
6.95775e-08
6.95136e-08
6.94483e-08
6.93954e-08
6.93314e-08
6.92856e-08
6.92392e-08
6.91893e-08
6.91398e-08
6.91092e-08
6.90665e-08
6.90381e-08
6.89954e-08
6.89599e-08
6.89208e-08
6.88781e-08
6.88593e-08
6.88464e-08
6.87983e-08
6.87867e-08
6.87602e-08
6.87382e-08
6.87331e-08
6.87387e-08
6.873e-08
6.87447e-08
6.87531e-08
6.87655e-08
6.87676e-08
6.87844e-08
6.8786e-08
6.88109e-08
6.88165e-08
6.88498e-08
6.8863e-08
6.89006e-08
6.89137e-08
6.89564e-08
6.89742e-08
6.90232e-08
6.9049e-08
6.91074e-08
6.91402e-08
6.9206e-08
6.9242e-08
6.93208e-08
6.93572e-08
6.94662e-08
6.94692e-08
7.02955e-08
3.54536e-06
3.89894e-08
1.24486e-07
1.17941e-07
1.1014e-07
1.03488e-07
9.82248e-08
9.40981e-08
9.0785e-08
8.81012e-08
8.58637e-08
8.4e-08
8.24001e-08
8.104e-08
7.98477e-08
7.88189e-08
7.78983e-08
7.70996e-08
7.63731e-08
7.57398e-08
7.51545e-08
7.46424e-08
7.41629e-08
7.37429e-08
7.33429e-08
7.29948e-08
7.26601e-08
7.2369e-08
7.20845e-08
7.18383e-08
7.15991e-08
7.13883e-08
7.11807e-08
7.10034e-08
7.08271e-08
7.06767e-08
7.05244e-08
7.03915e-08
7.02576e-08
7.01455e-08
7.00279e-08
6.99305e-08
6.98282e-08
6.97416e-08
6.96529e-08
6.95783e-08
6.94982e-08
6.94334e-08
6.93672e-08
6.93136e-08
6.92488e-08
6.92024e-08
6.91554e-08
6.91052e-08
6.9055e-08
6.90237e-08
6.89806e-08
6.89518e-08
6.89085e-08
6.88726e-08
6.88334e-08
6.87903e-08
6.87708e-08
6.87577e-08
6.87095e-08
6.86969e-08
6.86705e-08
6.86479e-08
6.86413e-08
6.86467e-08
6.86374e-08
6.86514e-08
6.86594e-08
6.86717e-08
6.86734e-08
6.86899e-08
6.86912e-08
6.87155e-08
6.87208e-08
6.87534e-08
6.87664e-08
6.88034e-08
6.88164e-08
6.88584e-08
6.88761e-08
6.89243e-08
6.89499e-08
6.90075e-08
6.904e-08
6.91053e-08
6.91408e-08
6.92189e-08
6.92549e-08
6.93634e-08
6.93648e-08
7.02152e-08
3.54558e-06
4.14899e-08
1.24499e-07
1.18038e-07
1.10282e-07
1.03636e-07
9.83624e-08
9.42189e-08
9.0888e-08
8.81873e-08
8.59341e-08
8.40562e-08
8.24436e-08
8.10721e-08
7.98696e-08
7.88316e-08
7.79026e-08
7.70965e-08
7.63631e-08
7.57237e-08
7.51327e-08
7.46155e-08
7.41313e-08
7.3707e-08
7.3303e-08
7.29511e-08
7.2613e-08
7.23188e-08
7.20313e-08
7.17824e-08
7.15406e-08
7.13275e-08
7.11176e-08
7.09382e-08
7.07598e-08
7.06077e-08
7.04536e-08
7.03192e-08
7.01837e-08
7.00701e-08
6.99511e-08
6.98525e-08
6.97489e-08
6.96612e-08
6.95713e-08
6.94958e-08
6.94147e-08
6.9349e-08
6.92817e-08
6.92274e-08
6.91618e-08
6.91147e-08
6.9067e-08
6.90166e-08
6.89655e-08
6.89336e-08
6.889e-08
6.88607e-08
6.88168e-08
6.87805e-08
6.87412e-08
6.86978e-08
6.86774e-08
6.86641e-08
6.86159e-08
6.86023e-08
6.85759e-08
6.85528e-08
6.85444e-08
6.85496e-08
6.85396e-08
6.8553e-08
6.85606e-08
6.85727e-08
6.8574e-08
6.85901e-08
6.85911e-08
6.86148e-08
6.86199e-08
6.86516e-08
6.86644e-08
6.87009e-08
6.87137e-08
6.8755e-08
6.87725e-08
6.882e-08
6.88453e-08
6.89021e-08
6.89342e-08
6.89988e-08
6.9034e-08
6.91114e-08
6.91469e-08
6.92547e-08
6.92547e-08
7.01296e-08
3.54136e-06
4.42414e-08
1.24511e-07
1.18139e-07
1.10431e-07
1.03792e-07
9.85078e-08
9.43471e-08
9.09976e-08
8.8279e-08
8.60094e-08
8.41166e-08
8.24905e-08
8.1107e-08
7.98936e-08
7.88459e-08
7.79081e-08
7.7094e-08
7.63534e-08
7.57075e-08
7.51105e-08
7.45878e-08
7.40986e-08
7.36697e-08
7.32615e-08
7.29057e-08
7.2564e-08
7.22664e-08
7.19758e-08
7.1724e-08
7.14794e-08
7.12639e-08
7.10515e-08
7.08699e-08
7.06894e-08
7.05353e-08
7.03794e-08
7.02433e-08
7.01061e-08
6.9991e-08
6.98705e-08
6.97705e-08
6.96656e-08
6.95768e-08
6.94857e-08
6.94092e-08
6.9327e-08
6.92603e-08
6.91918e-08
6.91368e-08
6.90703e-08
6.90224e-08
6.89741e-08
6.89234e-08
6.88714e-08
6.88388e-08
6.87946e-08
6.87649e-08
6.87204e-08
6.86836e-08
6.86441e-08
6.86003e-08
6.8579e-08
6.85656e-08
6.85173e-08
6.85027e-08
6.84763e-08
6.84527e-08
6.84425e-08
6.84474e-08
6.84367e-08
6.84494e-08
6.84565e-08
6.84684e-08
6.84692e-08
6.8485e-08
6.84856e-08
6.85088e-08
6.85136e-08
6.85445e-08
6.8557e-08
6.85929e-08
6.86056e-08
6.86461e-08
6.86635e-08
6.87101e-08
6.87351e-08
6.8791e-08
6.88228e-08
6.88867e-08
6.89215e-08
6.89981e-08
6.90331e-08
6.91402e-08
6.91387e-08
7.00386e-08
3.53184e-06
4.7255e-08
1.24524e-07
1.18243e-07
1.10586e-07
1.03957e-07
9.86613e-08
9.44827e-08
9.11139e-08
8.83767e-08
8.60898e-08
8.41813e-08
8.2541e-08
8.11449e-08
7.99199e-08
7.88621e-08
7.79149e-08
7.70924e-08
7.63441e-08
7.56913e-08
7.50879e-08
7.45595e-08
7.40649e-08
7.36313e-08
7.32185e-08
7.28586e-08
7.2513e-08
7.2212e-08
7.1918e-08
7.16631e-08
7.14156e-08
7.11975e-08
7.09825e-08
7.07986e-08
7.06158e-08
7.04597e-08
7.03017e-08
7.01639e-08
7.00248e-08
6.99082e-08
6.97861e-08
6.96847e-08
6.95784e-08
6.94883e-08
6.93959e-08
6.93183e-08
6.92349e-08
6.91673e-08
6.90976e-08
6.90417e-08
6.89744e-08
6.89256e-08
6.88766e-08
6.88255e-08