/*--------------------------------*- C++ -*----------------------------------*\
| =========                 |                                                 |
| \\      /  F ield         | OpenFOAM: The Open Source CFD Toolbox           |
|  \\    /   O peration     | Version:  v2012                                 |
|   \\  /    A nd           | Website:  www.openfoam.com                      |
|    \\/     M anipulation  |                                                 |
\*---------------------------------------------------------------------------*/
FoamFile
{
    version     2.0;
    format      ascii;
    class       volVectorField;
    location    "22";
    object      wallShearStress;
}
// * * * * * * * * * * * * * * * * * * * * * * * * * * * * * * * * * * * * * //

dimensions      [0 2 -2 0 0 0 0];


internalField   uniform (0 0 0);

boundaryField
{
    inlet
    {
        type            calculated;
        value           uniform (0 0 0);
    }
    outlet
    {
        type            calculated;
        value           uniform (0 0 0);
    }
    topWall
    {
        type            calculated;
        value           nonuniform List<vector> 
545
(
(5.13174e-08 -3.61014e-08 0)
(5.13478e-08 -1.0113e-07 0)
(5.12703e-08 -1.68676e-07 0)
(5.11869e-08 -2.34212e-07 0)
(5.11056e-08 -2.96915e-07 0)
(5.1012e-08 -3.57594e-07 0)
(5.09071e-08 -4.16766e-07 0)
(5.07907e-08 -4.74403e-07 0)
(5.06639e-08 -5.30379e-07 0)
(5.05276e-08 -5.84689e-07 0)
(5.03827e-08 -6.37404e-07 0)
(5.023e-08 -6.88587e-07 0)
(5.00704e-08 -7.38272e-07 0)
(4.99045e-08 -7.86489e-07 0)
(4.97332e-08 -8.33273e-07 0)
(4.9557e-08 -8.78664e-07 0)
(4.93766e-08 -9.227e-07 0)
(4.91926e-08 -9.65416e-07 0)
(4.90055e-08 -1.00685e-06 0)
(4.88158e-08 -1.04703e-06 0)
(4.8624e-08 -1.08601e-06 0)
(4.84306e-08 -1.1238e-06 0)
(4.82358e-08 -1.16045e-06 0)
(4.80402e-08 -1.19599e-06 0)
(4.7844e-08 -1.23046e-06 0)
(4.76477e-08 -1.26387e-06 0)
(4.74513e-08 -1.29627e-06 0)
(4.72554e-08 -1.32769e-06 0)
(4.706e-08 -1.35815e-06 0)
(4.68654e-08 -1.38769e-06 0)
(4.66719e-08 -1.41632e-06 0)
(4.64795e-08 -1.44409e-06 0)
(4.62886e-08 -1.47101e-06 0)
(4.60992e-08 -1.49712e-06 0)
(4.59116e-08 -1.52244e-06 0)
(4.57257e-08 -1.54698e-06 0)
(4.55417e-08 -1.57079e-06 0)
(4.53598e-08 -1.59387e-06 0)
(4.518e-08 -1.61625e-06 0)
(4.50025e-08 -1.63796e-06 0)
(4.48271e-08 -1.65901e-06 0)
(4.46541e-08 -1.67943e-06 0)
(4.44835e-08 -1.69923e-06 0)
(4.43153e-08 -1.71844e-06 0)
(4.41495e-08 -1.73707e-06 0)
(4.39862e-08 -1.75514e-06 0)
(4.38254e-08 -1.77268e-06 0)
(4.36671e-08 -1.78968e-06 0)
(4.35113e-08 -1.80618e-06 0)
(4.3358e-08 -1.82219e-06 0)
(4.32073e-08 -1.83772e-06 0)
(4.30591e-08 -1.85279e-06 0)
(4.29133e-08 -1.86741e-06 0)
(4.27701e-08 -1.88159e-06 0)
(4.26293e-08 -1.89536e-06 0)
(4.24909e-08 -1.90872e-06 0)
(4.2355e-08 -1.92169e-06 0)
(4.22215e-08 -1.93427e-06 0)
(4.20903e-08 -1.94649e-06 0)
(4.19615e-08 -1.95834e-06 0)
(4.1835e-08 -1.96985e-06 0)
(4.17108e-08 -1.98102e-06 0)
(4.15887e-08 -1.99187e-06 0)
(4.14689e-08 -2.00239e-06 0)
(4.13512e-08 -2.01261e-06 0)
(4.12357e-08 -2.02254e-06 0)
(4.11222e-08 -2.03217e-06 0)
(4.10107e-08 -2.04153e-06 0)
(4.09013e-08 -2.05061e-06 0)
(4.07935e-08 -2.05943e-06 0)
(4.06891e-08 -2.06801e-06 0)
(4.05798e-08 -2.07631e-06 0)
(4.04763e-08 -2.08427e-06 0)
(4.0386e-08 -2.09204e-06 0)
(4.02954e-08 -2.09969e-06 0)
(4.02053e-08 -2.10729e-06 0)
(4.01153e-08 -2.11486e-06 0)
(4.00254e-08 -2.12238e-06 0)
(3.99356e-08 -2.12984e-06 0)
(3.98459e-08 -2.13726e-06 0)
(3.97563e-08 -2.14462e-06 0)
(3.96669e-08 -2.15193e-06 0)
(3.95776e-08 -2.15919e-06 0)
(3.94884e-08 -2.16641e-06 0)
(3.93993e-08 -2.17357e-06 0)
(3.93104e-08 -2.18068e-06 0)
(3.92216e-08 -2.18775e-06 0)
(3.91329e-08 -2.19477e-06 0)
(3.90444e-08 -2.20174e-06 0)
(3.8956e-08 -2.20866e-06 0)
(3.88677e-08 -2.21554e-06 0)
(3.87795e-08 -2.22236e-06 0)
(3.86921e-08 -2.22916e-06 0)
(3.86017e-08 -2.23584e-06 0)
(3.85239e-08 -2.24265e-06 0)
(3.83906e-08 -2.24917e-06 0)
(3.82506e-08 -2.25502e-06 0)
(3.81766e-08 -2.26067e-06 0)
(3.81052e-08 -2.266e-06 0)
(3.80358e-08 -2.27121e-06 0)
(3.79663e-08 -2.27656e-06 0)
(3.78965e-08 -2.28195e-06 0)
(3.78266e-08 -2.28733e-06 0)
(3.77563e-08 -2.29269e-06 0)
(3.76857e-08 -2.29805e-06 0)
(3.76149e-08 -2.30342e-06 0)
(3.75437e-08 -2.3088e-06 0)
(3.74723e-08 -2.31417e-06 0)
(3.74005e-08 -2.31955e-06 0)
(3.73285e-08 -2.32493e-06 0)
(3.72561e-08 -2.33031e-06 0)
(3.71835e-08 -2.33569e-06 0)
(3.71105e-08 -2.34108e-06 0)
(3.70372e-08 -2.34647e-06 0)
(3.69637e-08 -2.35186e-06 0)
(3.68898e-08 -2.35725e-06 0)
(3.68156e-08 -2.36264e-06 0)
(3.67411e-08 -2.36804e-06 0)
(3.66663e-08 -2.37344e-06 0)
(3.65912e-08 -2.37884e-06 0)
(3.65157e-08 -2.38424e-06 0)
(3.644e-08 -2.38964e-06 0)
(3.63639e-08 -2.39504e-06 0)
(3.62876e-08 -2.40045e-06 0)
(3.62109e-08 -2.40586e-06 0)
(3.61339e-08 -2.41126e-06 0)
(3.60566e-08 -2.41667e-06 0)
(3.5979e-08 -2.42208e-06 0)
(3.5901e-08 -2.4275e-06 0)
(3.58228e-08 -2.43291e-06 0)
(3.57442e-08 -2.43832e-06 0)
(3.56653e-08 -2.44373e-06 0)
(3.55861e-08 -2.44915e-06 0)
(3.55066e-08 -2.45456e-06 0)
(3.54268e-08 -2.45998e-06 0)
(3.53466e-08 -2.4654e-06 0)
(3.52661e-08 -2.47081e-06 0)
(3.51853e-08 -2.47623e-06 0)
(3.51042e-08 -2.48165e-06 0)
(3.50228e-08 -2.48707e-06 0)
(3.4941e-08 -2.49248e-06 0)
(3.4859e-08 -2.4979e-06 0)
(3.47765e-08 -2.50332e-06 0)
(3.46938e-08 -2.50874e-06 0)
(3.46108e-08 -2.51416e-06 0)
(3.45274e-08 -2.51957e-06 0)
(3.44437e-08 -2.52499e-06 0)
(3.43597e-08 -2.53041e-06 0)
(3.42754e-08 -2.53582e-06 0)
(3.41907e-08 -2.54124e-06 0)
(3.41058e-08 -2.54665e-06 0)
(3.40205e-08 -2.55207e-06 0)
(3.39348e-08 -2.55748e-06 0)
(3.38489e-08 -2.56289e-06 0)
(3.37626e-08 -2.56831e-06 0)
(3.3676e-08 -2.57372e-06 0)
(3.35891e-08 -2.57912e-06 0)
(3.35018e-08 -2.58453e-06 0)
(3.34142e-08 -2.58994e-06 0)
(3.33263e-08 -2.59534e-06 0)
(3.32381e-08 -2.60075e-06 0)
(3.31496e-08 -2.60615e-06 0)
(3.30607e-08 -2.61155e-06 0)
(3.29715e-08 -2.61695e-06 0)
(3.28819e-08 -2.62234e-06 0)
(3.27921e-08 -2.62774e-06 0)
(3.27019e-08 -2.63313e-06 0)
(3.26114e-08 -2.63852e-06 0)
(3.25206e-08 -2.64391e-06 0)
(3.24294e-08 -2.64929e-06 0)
(3.23379e-08 -2.65467e-06 0)
(3.22461e-08 -2.66005e-06 0)
(3.2154e-08 -2.66543e-06 0)
(3.20615e-08 -2.67081e-06 0)
(3.19687e-08 -2.67618e-06 0)
(3.18756e-08 -2.68155e-06 0)
(3.17822e-08 -2.68691e-06 0)
(3.16884e-08 -2.69227e-06 0)
(3.15943e-08 -2.69763e-06 0)
(3.14999e-08 -2.70299e-06 0)
(3.14052e-08 -2.70834e-06 0)
(3.13101e-08 -2.71369e-06 0)
(3.12147e-08 -2.71904e-06 0)
(3.1119e-08 -2.72438e-06 0)
(3.1023e-08 -2.72972e-06 0)
(3.09266e-08 -2.73505e-06 0)
(3.08299e-08 -2.74038e-06 0)
(3.07329e-08 -2.7457e-06 0)
(3.06356e-08 -2.75102e-06 0)
(3.05379e-08 -2.75634e-06 0)
(3.044e-08 -2.76165e-06 0)
(3.03417e-08 -2.76696e-06 0)
(3.02431e-08 -2.77226e-06 0)
(3.01441e-08 -2.77756e-06 0)
(3.00449e-08 -2.78285e-06 0)
(2.99453e-08 -2.78814e-06 0)
(2.98454e-08 -2.79342e-06 0)
(2.97452e-08 -2.7987e-06 0)
(2.96447e-08 -2.80397e-06 0)
(2.95438e-08 -2.80924e-06 0)
(2.94427e-08 -2.8145e-06 0)
(2.93412e-08 -2.81976e-06 0)
(2.92394e-08 -2.82501e-06 0)
(2.91373e-08 -2.83025e-06 0)
(2.90348e-08 -2.83549e-06 0)
(2.89321e-08 -2.84072e-06 0)
(2.8829e-08 -2.84594e-06 0)
(2.87257e-08 -2.85116e-06 0)
(2.8622e-08 -2.85637e-06 0)
(2.8518e-08 -2.86158e-06 0)
(2.84137e-08 -2.86678e-06 0)
(2.83091e-08 -2.87197e-06 0)
(2.82042e-08 -2.87715e-06 0)
(2.8099e-08 -2.88233e-06 0)
(2.79935e-08 -2.8875e-06 0)
(2.78876e-08 -2.89266e-06 0)
(2.77815e-08 -2.89782e-06 0)
(2.7675e-08 -2.90297e-06 0)
(2.75683e-08 -2.90811e-06 0)
(2.74612e-08 -2.91324e-06 0)
(2.73539e-08 -2.91836e-06 0)
(2.72462e-08 -2.92348e-06 0)
(2.71383e-08 -2.92859e-06 0)
(2.70301e-08 -2.93369e-06 0)
(2.69215e-08 -2.93878e-06 0)
(2.68127e-08 -2.94386e-06 0)
(2.67035e-08 -2.94894e-06 0)
(2.65941e-08 -2.954e-06 0)
(2.64844e-08 -2.95906e-06 0)
(2.63744e-08 -2.9641e-06 0)
(2.62641e-08 -2.96914e-06 0)
(2.61535e-08 -2.97417e-06 0)
(2.60426e-08 -2.97919e-06 0)
(2.59315e-08 -2.9842e-06 0)
(2.582e-08 -2.9892e-06 0)
(2.57083e-08 -2.99419e-06 0)
(2.55963e-08 -2.99917e-06 0)
(2.5484e-08 -3.00414e-06 0)
(2.53715e-08 -3.0091e-06 0)
(2.52586e-08 -3.01405e-06 0)
(2.51455e-08 -3.01899e-06 0)
(2.50321e-08 -3.02392e-06 0)
(2.49185e-08 -3.02883e-06 0)
(2.48045e-08 -3.03374e-06 0)
(2.46903e-08 -3.03864e-06 0)
(2.45759e-08 -3.04352e-06 0)
(2.44611e-08 -3.04839e-06 0)
(2.43461e-08 -3.05326e-06 0)
(2.42309e-08 -3.05811e-06 0)
(2.41154e-08 -3.06294e-06 0)
(2.39996e-08 -3.06777e-06 0)
(2.38836e-08 -3.07259e-06 0)
(2.37673e-08 -3.07739e-06 0)
(2.36507e-08 -3.08218e-06 0)
(2.35339e-08 -3.08696e-06 0)
(2.34169e-08 -3.09172e-06 0)
(2.32996e-08 -3.09648e-06 0)
(2.31821e-08 -3.10122e-06 0)
(2.30643e-08 -3.10594e-06 0)
(2.29463e-08 -3.11066e-06 0)
(2.2828e-08 -3.11536e-06 0)
(2.27095e-08 -3.12005e-06 0)
(2.25908e-08 -3.12472e-06 0)
(2.24719e-08 -3.12938e-06 0)
(2.23526e-08 -3.13403e-06 0)
(2.22336e-08 -3.13867e-06 0)
(2.21124e-08 -3.14325e-06 0)
(2.19994e-08 -3.14799e-06 0)
(2.18529e-08 -3.15243e-06 0)
(2.16978e-08 -3.15659e-06 0)
(2.15856e-08 -3.16095e-06 0)
(2.14811e-08 -3.16504e-06 0)
(2.13765e-08 -3.16902e-06 0)
(2.12712e-08 -3.17314e-06 0)
(2.11647e-08 -3.17732e-06 0)
(2.10571e-08 -3.18152e-06 0)
(2.09482e-08 -3.18572e-06 0)
(2.08381e-08 -3.18994e-06 0)
(2.07268e-08 -3.19419e-06 0)
(2.06143e-08 -3.19847e-06 0)
(2.05005e-08 -3.20276e-06 0)
(2.03854e-08 -3.20708e-06 0)
(2.02691e-08 -3.21142e-06 0)
(2.01515e-08 -3.21579e-06 0)
(2.00326e-08 -3.22017e-06 0)
(1.99125e-08 -3.22458e-06 0)
(1.9791e-08 -3.22901e-06 0)
(1.96683e-08 -3.23345e-06 0)
(1.95442e-08 -3.23792e-06 0)
(1.94189e-08 -3.24241e-06 0)
(1.92922e-08 -3.24692e-06 0)
(1.91642e-08 -3.25144e-06 0)
(1.90348e-08 -3.25599e-06 0)
(1.89041e-08 -3.26055e-06 0)
(1.87721e-08 -3.26513e-06 0)
(1.86387e-08 -3.26973e-06 0)
(1.8504e-08 -3.27434e-06 0)
(1.83679e-08 -3.27897e-06 0)
(1.82304e-08 -3.28362e-06 0)
(1.80915e-08 -3.28828e-06 0)
(1.79513e-08 -3.29295e-06 0)
(1.78097e-08 -3.29764e-06 0)
(1.76666e-08 -3.30234e-06 0)
(1.75222e-08 -3.30706e-06 0)
(1.73764e-08 -3.31178e-06 0)
(1.72292e-08 -3.31652e-06 0)
(1.70806e-08 -3.32127e-06 0)
(1.69305e-08 -3.32603e-06 0)
(1.67791e-08 -3.33079e-06 0)
(1.66262e-08 -3.33557e-06 0)
(1.64719e-08 -3.34035e-06 0)
(1.63162e-08 -3.34514e-06 0)
(1.61591e-08 -3.34993e-06 0)
(1.60005e-08 -3.35474e-06 0)
(1.58405e-08 -3.35954e-06 0)
(1.56791e-08 -3.36435e-06 0)
(1.55163e-08 -3.36915e-06 0)
(1.5352e-08 -3.37397e-06 0)
(1.51863e-08 -3.37877e-06 0)
(1.50192e-08 -3.38359e-06 0)
(1.48507e-08 -3.38839e-06 0)
(1.46808e-08 -3.3932e-06 0)
(1.45094e-08 -3.398e-06 0)
(1.43366e-08 -3.40279e-06 0)
(1.41624e-08 -3.40758e-06 0)
(1.39869e-08 -3.41237e-06 0)
(1.38099e-08 -3.41714e-06 0)
(1.36315e-08 -3.4219e-06 0)
(1.34517e-08 -3.42665e-06 0)
(1.32706e-08 -3.43139e-06 0)
(1.30881e-08 -3.43612e-06 0)
(1.29042e-08 -3.44083e-06 0)
(1.2719e-08 -3.44552e-06 0)
(1.25324e-08 -3.4502e-06 0)
(1.23445e-08 -3.45485e-06 0)
(1.21553e-08 -3.45949e-06 0)
(1.19647e-08 -3.4641e-06 0)
(1.17729e-08 -3.46869e-06 0)
(1.15798e-08 -3.47326e-06 0)
(1.13854e-08 -3.47779e-06 0)
(1.11898e-08 -3.4823e-06 0)
(1.09929e-08 -3.48678e-06 0)
(1.07948e-08 -3.49122e-06 0)
(1.05956e-08 -3.49564e-06 0)
(1.03951e-08 -3.50001e-06 0)
(1.01935e-08 -3.50435e-06 0)
(9.99076e-09 -3.50865e-06 0)
(9.78691e-09 -3.51291e-06 0)
(9.58196e-09 -3.51712e-06 0)
(9.37595e-09 -3.52129e-06 0)
(9.1689e-09 -3.52541e-06 0)
(8.96084e-09 -3.52949e-06 0)
(8.75179e-09 -3.53351e-06 0)
(8.54179e-09 -3.53749e-06 0)
(8.33086e-09 -3.5414e-06 0)
(8.11905e-09 -3.54526e-06 0)
(7.90636e-09 -3.54906e-06 0)
(7.69286e-09 -3.5528e-06 0)
(7.47856e-09 -3.55647e-06 0)
(7.26351e-09 -3.56009e-06 0)
(7.04773e-09 -3.56363e-06 0)
(6.83128e-09 -3.5671e-06 0)
(6.61418e-09 -3.5705e-06 0)
(6.3965e-09 -3.57383e-06 0)
(6.17825e-09 -3.57707e-06 0)
(5.95949e-09 -3.58024e-06 0)
(5.74026e-09 -3.58333e-06 0)
(5.52062e-09 -3.58633e-06 0)
(5.30059e-09 -3.58925e-06 0)
(5.08025e-09 -3.59208e-06 0)
(4.85963e-09 -3.59481e-06 0)
(4.6388e-09 -3.59746e-06 0)
(4.41779e-09 -3.6e-06 0)
(4.19666e-09 -3.60245e-06 0)
(3.97548e-09 -3.6048e-06 0)
(3.75429e-09 -3.60704e-06 0)
(3.53316e-09 -3.60918e-06 0)
(3.31214e-09 -3.61121e-06 0)
(3.09129e-09 -3.61312e-06 0)
(2.87068e-09 -3.61493e-06 0)
(2.65037e-09 -3.61661e-06 0)
(2.43042e-09 -3.61818e-06 0)
(2.21089e-09 -3.61962e-06 0)
(1.99186e-09 -3.62095e-06 0)
(1.77338e-09 -3.62214e-06 0)
(1.55553e-09 -3.62321e-06 0)
(1.33838e-09 -3.62414e-06 0)
(1.12199e-09 -3.62495e-06 0)
(9.06441e-10 -3.62561e-06 0)
(6.91797e-10 -3.62614e-06 0)
(4.78131e-10 -3.62652e-06 0)
(2.65518e-10 -3.62676e-06 0)
(5.40306e-11 -3.62685e-06 0)
(-1.56257e-10 -3.6268e-06 0)
(-3.6527e-10 -3.62659e-06 0)
(-5.72933e-10 -3.62624e-06 0)
(-7.79168e-10 -3.62572e-06 0)
(-9.83903e-10 -3.62505e-06 0)
(-1.18706e-09 -3.62422e-06 0)
(-1.38855e-09 -3.62323e-06 0)
(-1.58831e-09 -3.62206e-06 0)
(-1.78626e-09 -3.62074e-06 0)
(-1.98232e-09 -3.61925e-06 0)
(-2.1764e-09 -3.61759e-06 0)
(-2.36844e-09 -3.61575e-06 0)
(-2.55834e-09 -3.61374e-06 0)
(-2.74604e-09 -3.61155e-06 0)
(-2.93144e-09 -3.60919e-06 0)
(-3.11448e-09 -3.60664e-06 0)
(-3.29507e-09 -3.60392e-06 0)
(-3.47312e-09 -3.60101e-06 0)
(-3.64857e-09 -3.59792e-06 0)
(-3.82131e-09 -3.59464e-06 0)
(-3.99131e-09 -3.59119e-06 0)
(-4.15844e-09 -3.58753e-06 0)
(-4.32265e-09 -3.58369e-06 0)
(-4.48385e-09 -3.57966e-06 0)
(-4.64199e-09 -3.57545e-06 0)
(-4.79695e-09 -3.57103e-06 0)
(-4.9487e-09 -3.56643e-06 0)
(-5.09713e-09 -3.56163e-06 0)
(-5.24221e-09 -3.55665e-06 0)
(-5.38383e-09 -3.55146e-06 0)
(-5.52196e-09 -3.54609e-06 0)
(-5.65652e-09 -3.54051e-06 0)
(-5.78747e-09 -3.53475e-06 0)
(-5.91472e-09 -3.52879e-06 0)
(-6.03826e-09 -3.52265e-06 0)
(-6.158e-09 -3.5163e-06 0)
(-6.27395e-09 -3.50977e-06 0)
(-6.386e-09 -3.50304e-06 0)
(-6.49419e-09 -3.49613e-06 0)
(-6.5984e-09 -3.48901e-06 0)
(-6.69868e-09 -3.48173e-06 0)
(-6.79494e-09 -3.47424e-06 0)
(-6.8872e-09 -3.46657e-06 0)
(-6.97539e-09 -3.45871e-06 0)
(-7.05955e-09 -3.45068e-06 0)
(-7.13959e-09 -3.44245e-06 0)
(-7.21556e-09 -3.43406e-06 0)
(-7.28738e-09 -3.42547e-06 0)
(-7.35509e-09 -3.41673e-06 0)
(-7.4186e-09 -3.40779e-06 0)
(-7.47796e-09 -3.3987e-06 0)
(-7.53307e-09 -3.38942e-06 0)
(-7.58393e-09 -3.37999e-06 0)
(-7.63059e-09 -3.37037e-06 0)
(-7.67248e-09 -3.36067e-06 0)
(-7.71274e-09 -3.35055e-06 0)
(-7.74123e-09 -3.34062e-06 0)
(-7.75854e-09 -3.3295e-06 0)
(-7.78239e-09 -3.31665e-06 0)
(-7.80709e-09 -3.30398e-06 0)
(-7.82564e-09 -3.29143e-06 0)
(-7.83882e-09 -3.27873e-06 0)
(-7.84662e-09 -3.26602e-06 0)
(-7.84912e-09 -3.25328e-06 0)
(-7.84659e-09 -3.24058e-06 0)
(-7.83911e-09 -3.22787e-06 0)
(-7.827e-09 -3.21519e-06 0)
(-7.81033e-09 -3.20251e-06 0)
(-7.78943e-09 -3.18989e-06 0)
(-7.76436e-09 -3.17727e-06 0)
(-7.73542e-09 -3.16473e-06 0)
(-7.70269e-09 -3.15221e-06 0)
(-7.66646e-09 -3.13978e-06 0)
(-7.62678e-09 -3.12738e-06 0)
(-7.58392e-09 -3.11507e-06 0)
(-7.53792e-09 -3.10281e-06 0)
(-7.48905e-09 -3.09065e-06 0)
(-7.43731e-09 -3.07855e-06 0)
(-7.38296e-09 -3.06656e-06 0)
(-7.326e-09 -3.05463e-06 0)
(-7.26667e-09 -3.04283e-06 0)
(-7.20495e-09 -3.03109e-06 0)
(-7.14107e-09 -3.01949e-06 0)
(-7.075e-09 -3.00796e-06 0)
(-7.00695e-09 -2.99657e-06 0)
(-6.93688e-09 -2.98526e-06 0)
(-6.86501e-09 -2.9741e-06 0)
(-6.79128e-09 -2.96303e-06 0)
(-6.7159e-09 -2.9521e-06 0)
(-6.6388e-09 -2.94127e-06 0)
(-6.56018e-09 -2.93059e-06 0)
(-6.47997e-09 -2.92002e-06 0)
(-6.39837e-09 -2.9096e-06 0)
(-6.3153e-09 -2.8993e-06 0)
(-6.23094e-09 -2.88915e-06 0)
(-6.14523e-09 -2.87911e-06 0)
(-6.05833e-09 -2.86924e-06 0)
(-5.97018e-09 -2.85949e-06 0)
(-5.88092e-09 -2.8499e-06 0)
(-5.7905e-09 -2.84044e-06 0)
(-5.69905e-09 -2.83115e-06 0)
(-5.60653e-09 -2.82198e-06 0)
(-5.51305e-09 -2.81299e-06 0)
(-5.41856e-09 -2.80413e-06 0)
(-5.32319e-09 -2.79544e-06 0)
(-5.22686e-09 -2.78688e-06 0)
(-5.12971e-09 -2.77851e-06 0)
(-5.03165e-09 -2.77027e-06 0)
(-4.93282e-09 -2.76221e-06 0)
(-4.83313e-09 -2.75429e-06 0)
(-4.7327e-09 -2.74656e-06 0)
(-4.63147e-09 -2.73896e-06 0)
(-4.52952e-09 -2.73156e-06 0)
(-4.42681e-09 -2.72429e-06 0)
(-4.32341e-09 -2.71722e-06 0)
(-4.21929e-09 -2.71029e-06 0)
(-4.11451e-09 -2.70355e-06 0)
(-4.00903e-09 -2.69696e-06 0)
(-3.90293e-09 -2.69056e-06 0)
(-3.79615e-09 -2.68432e-06 0)
(-3.68877e-09 -2.67826e-06 0)
(-3.58076e-09 -2.67237e-06 0)
(-3.47217e-09 -2.66666e-06 0)
(-3.36296e-09 -2.66112e-06 0)
(-3.25321e-09 -2.65577e-06 0)
(-3.14288e-09 -2.65058e-06 0)
(-3.03202e-09 -2.64558e-06 0)
(-2.92062e-09 -2.64075e-06 0)
(-2.80871e-09 -2.63612e-06 0)
(-2.69627e-09 -2.63165e-06 0)
(-2.58336e-09 -2.62738e-06 0)
(-2.46996e-09 -2.62328e-06 0)
(-2.35609e-09 -2.61937e-06 0)
(-2.24174e-09 -2.61564e-06 0)
(-2.12695e-09 -2.6121e-06 0)
(-2.0117e-09 -2.60874e-06 0)
(-1.89601e-09 -2.60557e-06 0)
(-1.77988e-09 -2.60259e-06 0)
(-1.66332e-09 -2.5998e-06 0)
(-1.54635e-09 -2.59719e-06 0)
(-1.42899e-09 -2.59478e-06 0)
(-1.3113e-09 -2.59255e-06 0)
(-1.19337e-09 -2.59053e-06 0)
(-1.07532e-09 -2.58863e-06 0)
(-9.57377e-10 -2.58716e-06 0)
(-8.397e-10 -2.5851e-06 0)
(-7.2301e-10 -2.58579e-06 0)
(-6.05958e-10 -2.578e-06 0)
(-4.93623e-10 -2.59807e-06 0)
(-3.64951e-10 -2.51963e-06 0)
(-2.9392e-10 -2.72602e-06 0)
(-1.49176e-10 -2.38054e-06 0)
)
;
    }
    bottomWall
    {
        type            calculated;
        value           nonuniform List<vector> 
449
(
(-52.8902 -0.957794 0)
(-34.8631 -0.00280935 0)
(-34.461 -0.00025822 0)
(-33.0864 -0.000366866 0)
(-31.9491 -0.000318556 0)
(-30.9014 -0.000286824 0)
(-29.9779 -0.000250599 0)
(-29.1756 -0.000218183 0)
(-28.4718 -0.000192097 0)
(-27.8464 -0.000171012 0)
(-27.2859 -0.000153105 0)
(-26.7824 -0.000137545 0)
(-26.328 -0.000124173 0)
(-25.9158 -0.000112817 0)
(-25.539 -0.0001032 0)
(-25.1923 -9.50244e-05 0)
(-24.8712 -8.80561e-05 0)
(-24.572 -8.2057e-05 0)
(-24.2917 -7.6852e-05 0)
(-24.028 -7.22848e-05 0)
(-23.7788 -6.82235e-05 0)
(-23.5427 -6.459e-05 0)
(-23.3183 -6.12936e-05 0)
(-23.1047 -5.8293e-05 0)
(-22.9007 -5.55611e-05 0)
(-22.7057 -5.30438e-05 0)
(-22.519 -5.07086e-05 0)
(-22.34 -4.85536e-05 0)
(-22.1679 -4.65355e-05 0)
(-22.0027 -4.46554e-05 0)
(-21.8435 -4.29125e-05 0)
(-21.6903 -4.12804e-05 0)
(-21.5423 -3.97421e-05 0)
(-21.3996 -3.82978e-05 0)
(-21.2615 -3.69255e-05 0)
(-21.1283 -3.56523e-05 0)
(-20.9989 -3.44488e-05 0)
(-20.874 -3.33161e-05 0)
(-20.7524 -3.22365e-05 0)
(-20.6349 -3.1212e-05 0)
(-20.5204 -3.02342e-05 0)
(-20.4096 -2.92995e-05 0)
(-20.3016 -2.83989e-05 0)
(-20.1971 -2.7541e-05 0)
(-20.095 -2.67197e-05 0)
(-19.9962 -2.59357e-05 0)
(-19.8995 -2.51885e-05 0)
(-19.8059 -2.44698e-05 0)
(-19.7142 -2.37902e-05 0)
(-19.6253 -2.31379e-05 0)
(-19.5382 -2.25203e-05 0)
(-19.4536 -2.1916e-05 0)
(-19.3707 -2.13424e-05 0)
(-19.2901 -2.07991e-05 0)
(-19.211 -2.02783e-05 0)
(-19.134 -1.97762e-05 0)
(-19.0584 -1.92901e-05 0)
(-18.9849 -1.88293e-05 0)
(-18.9125 -1.8387e-05 0)
(-18.842 -1.79593e-05 0)
(-18.7727 -1.75502e-05 0)
(-18.7051 -1.71517e-05 0)
(-18.6385 -1.67704e-05 0)
(-18.5736 -1.64074e-05 0)
(-18.5095 -1.60561e-05 0)
(-18.4471 -1.57084e-05 0)
(-18.3855 -1.53713e-05 0)
(-18.3254 -1.50505e-05 0)
(-18.2661 -1.47366e-05 0)
(-18.2083 -1.44297e-05 0)
(-18.1511 -1.41351e-05 0)
(-18.0954 -1.38582e-05 0)
(-18.0402 -1.35883e-05 0)
(-17.9863 -1.33167e-05 0)
(-17.933 -1.30589e-05 0)
(-17.881 -1.28048e-05 0)
(-17.8295 -1.25613e-05 0)
(-17.7792 -1.23238e-05 0)
(-17.7295 -1.20989e-05 0)
(-17.6808 -1.18831e-05 0)
(-17.6325 -1.16689e-05 0)
(-17.5853 -1.14543e-05 0)
(-17.5386 -1.12441e-05 0)
(-17.493 -1.10415e-05 0)
(-17.4477 -1.08484e-05 0)
(-17.4034 -1.06642e-05 0)
(-17.3595 -1.049e-05 0)
(-17.3164 -1.03038e-05 0)
(-17.2739 -1.0123e-05 0)
(-17.2321 -9.94931e-06 0)
(-17.1908 -9.78456e-06 0)
(-17.1502 -9.62843e-06 0)
(-17.11 -9.47557e-06 0)
(-17.0705 -9.3217e-06 0)
(-17.0314 -9.17759e-06 0)
(-16.993 -9.03283e-06 0)
(-16.9549 -8.88792e-06 0)
(-16.9175 -8.74325e-06 0)
(-16.8805 -8.60765e-06 0)
(-16.8441 -8.47409e-06 0)
(-16.8081 -8.35046e-06 0)
(-16.7726 -8.22098e-06 0)
(-16.7374 -8.10009e-06 0)
(-16.7028 -7.98091e-06 0)
(-16.6686 -7.86897e-06 0)
(-16.6347 -7.74822e-06 0)
(-16.6014 -7.64102e-06 0)
(-16.5683 -7.52203e-06 0)
(-16.5359 -7.41389e-06 0)
(-16.5036 -7.30474e-06 0)
(-16.4719 -7.2012e-06 0)
(-16.4404 -7.10739e-06 0)
(-16.4095 -7.01255e-06 0)
(-16.3786 -6.92082e-06 0)
(-16.3483 -6.83081e-06 0)
(-16.3181 -6.74281e-06 0)
(-16.2885 -6.64592e-06 0)
(-16.259 -6.55034e-06 0)
(-16.23 -6.46326e-06 0)
(-16.2012 -6.38181e-06 0)
(-16.1729 -6.29049e-06 0)
(-16.1448 -6.20518e-06 0)
(-16.117 -6.12547e-06 0)
(-16.0895 -6.04836e-06 0)
(-16.0623 -5.97481e-06 0)
(-16.0353 -5.90639e-06 0)
(-16.0086 -5.83792e-06 0)
(-15.9821 -5.76685e-06 0)
(-15.956 -5.69766e-06 0)
(-15.93 -5.62168e-06 0)
(-15.9044 -5.55019e-06 0)
(-15.879 -5.47535e-06 0)
(-15.854 -5.40795e-06 0)
(-15.829 -5.3463e-06 0)
(-15.8045 -5.2827e-06 0)
(-15.78 -5.22278e-06 0)
(-15.7559 -5.16713e-06 0)
(-15.7318 -5.11072e-06 0)
(-15.7081 -5.0575e-06 0)
(-15.6844 -4.9985e-06 0)
(-15.6612 -4.94443e-06 0)
(-15.6379 -4.89061e-06 0)
(-15.615 -4.83345e-06 0)
(-15.5922 -4.77494e-06 0)
(-15.5698 -4.71457e-06 0)
(-15.5474 -4.65873e-06 0)
(-15.5254 -4.59732e-06 0)
(-15.5035 -4.54694e-06 0)
(-15.4819 -4.49686e-06 0)
(-15.4604 -4.45142e-06 0)
(-15.4391 -4.39941e-06 0)
(-15.418 -4.35781e-06 0)
(-15.397 -4.31318e-06 0)
(-15.3762 -4.26679e-06 0)
(-15.3556 -4.22681e-06 0)
(-15.3351 -4.18449e-06 0)
(-15.3148 -4.14188e-06 0)
(-15.2946 -4.09666e-06 0)
(-15.2746 -4.05752e-06 0)
(-15.2548 -4.01067e-06 0)
(-15.2352 -3.96617e-06 0)
(-15.2156 -3.9256e-06 0)
(-15.1964 -3.88143e-06 0)
(-15.1772 -3.84095e-06 0)
(-15.1582 -3.81025e-06 0)
(-15.1392 -3.77686e-06 0)
(-15.1205 -3.73665e-06 0)
(-15.1018 -3.69989e-06 0)
(-15.0834 -3.66197e-06 0)
(-15.065 -3.62218e-06 0)
(-15.0469 -3.58726e-06 0)
(-15.0288 -3.5458e-06 0)
(-15.011 -3.51762e-06 0)
(-14.9941 -3.50051e-06 0)
(-14.9783 -3.47012e-06 0)
(-14.9624 -3.43656e-06 0)
(-14.9466 -3.40246e-06 0)
(-14.9306 -3.36589e-06 0)
(-14.9148 -3.33875e-06 0)
(-14.8988 -3.30775e-06 0)
(-14.8829 -3.26956e-06 0)
(-14.8669 -3.23843e-06 0)
(-14.851 -3.20461e-06 0)
(-14.835 -3.1702e-06 0)
(-14.8191 -3.14167e-06 0)
(-14.803 -3.11775e-06 0)
(-14.787 -3.09243e-06 0)
(-14.7709 -3.05992e-06 0)
(-14.7549 -3.02377e-06 0)
(-14.7387 -2.98815e-06 0)
(-14.7228 -2.96159e-06 0)
(-14.7066 -2.93579e-06 0)
(-14.6906 -2.89925e-06 0)
(-14.6744 -2.87823e-06 0)
(-14.6583 -2.85643e-06 0)
(-14.642 -2.83059e-06 0)
(-14.6258 -2.79815e-06 0)
(-14.6096 -2.76764e-06 0)
(-14.5934 -2.73744e-06 0)
(-14.5772 -2.70788e-06 0)
(-14.561 -2.68025e-06 0)
(-14.5448 -2.65159e-06 0)
(-14.5286 -2.62094e-06 0)
(-14.5124 -2.59318e-06 0)
(-14.4962 -2.56768e-06 0)
(-14.48 -2.5397e-06 0)
(-14.4638 -2.51479e-06 0)
(-14.4475 -2.49765e-06 0)
(-14.4312 -2.47644e-06 0)
(-14.4149 -2.45526e-06 0)
(-14.3985 -2.43165e-06 0)
(-14.3821 -2.41157e-06 0)
(-14.3656 -2.38701e-06 0)
(-14.3492 -2.35625e-06 0)
(-14.3328 -2.32732e-06 0)
(-14.3165 -2.30258e-06 0)
(-14.3001 -2.27722e-06 0)
(-14.2837 -2.25129e-06 0)
(-14.2673 -2.22164e-06 0)
(-14.2511 -2.1923e-06 0)
(-14.2348 -2.16926e-06 0)
(-14.2185 -2.14216e-06 0)
(-14.2023 -2.12144e-06 0)
(-14.186 -2.09726e-06 0)
(-14.1697 -2.07583e-06 0)
(-14.1535 -2.0564e-06 0)
(-14.1372 -2.02572e-06 0)
(-14.121 -2.00461e-06 0)
(-14.1047 -1.98385e-06 0)
(-14.0885 -1.9541e-06 0)
(-14.0724 -1.93519e-06 0)
(-14.0562 -1.90766e-06 0)
(-14.0401 -1.884e-06 0)
(-14.024 -1.86629e-06 0)
(-14.0079 -1.84617e-06 0)
(-13.9917 -1.82696e-06 0)
(-13.9756 -1.80827e-06 0)
(-13.9595 -1.79555e-06 0)
(-13.9432 -1.77819e-06 0)
(-13.927 -1.75642e-06 0)
(-13.9109 -1.73673e-06 0)
(-13.8947 -1.71419e-06 0)
(-13.8786 -1.6896e-06 0)
(-13.8625 -1.66902e-06 0)
(-13.8465 -1.65113e-06 0)
(-13.8304 -1.62809e-06 0)
(-13.8144 -1.60859e-06 0)
(-13.7984 -1.59499e-06 0)
(-13.7824 -1.57496e-06 0)
(-13.7664 -1.55531e-06 0)
(-13.7505 -1.53383e-06 0)
(-13.7346 -1.51399e-06 0)
(-13.7187 -1.49812e-06 0)
(-13.7028 -1.48082e-06 0)
(-13.6869 -1.46115e-06 0)
(-13.6711 -1.4414e-06 0)
(-13.6554 -1.42721e-06 0)
(-13.6395 -1.41242e-06 0)
(-13.6237 -1.39333e-06 0)
(-13.608 -1.37904e-06 0)
(-13.5922 -1.36207e-06 0)
(-13.5765 -1.34406e-06 0)
(-13.5608 -1.32718e-06 0)
(-13.5451 -1.31303e-06 0)
(-13.5294 -1.29937e-06 0)
(-13.5137 -1.28285e-06 0)
(-13.4981 -1.27001e-06 0)
(-13.4824 -1.25167e-06 0)
(-13.4669 -1.23334e-06 0)
(-13.4513 -1.21835e-06 0)
(-13.4358 -1.20827e-06 0)
(-13.4202 -1.19763e-06 0)
(-13.4046 -1.18444e-06 0)
(-13.389 -1.16452e-06 0)
(-13.3736 -1.15032e-06 0)
(-13.358 -1.1402e-06 0)
(-13.3426 -1.12514e-06 0)
(-13.3271 -1.11368e-06 0)
(-13.3116 -1.10212e-06 0)
(-13.2961 -1.08814e-06 0)
(-13.2807 -1.07288e-06 0)
(-13.2653 -1.0558e-06 0)
(-13.2501 -1.04479e-06 0)
(-13.2347 -1.03155e-06 0)
(-13.2195 -1.01761e-06 0)
(-13.2042 -1.00284e-06 0)
(-13.1891 -9.92877e-07 0)
(-13.1738 -9.8722e-07 0)
(-13.1586 -9.75123e-07 0)
(-13.1432 -9.6261e-07 0)
(-13.1281 -9.45795e-07 0)
(-13.113 -9.32023e-07 0)
(-13.098 -9.22228e-07 0)
(-13.0829 -9.0897e-07 0)
(-13.068 -8.9646e-07 0)
(-13.0529 -8.88686e-07 0)
(-13.0379 -8.75175e-07 0)
(-13.023 -8.63573e-07 0)
(-13.0082 -8.53623e-07 0)
(-12.9933 -8.38755e-07 0)
(-12.9786 -8.29716e-07 0)
(-12.9637 -8.15216e-07 0)
(-12.9492 -7.99405e-07 0)
(-12.9346 -7.89922e-07 0)
(-12.9202 -7.85289e-07 0)
(-12.9054 -7.83058e-07 0)
(-12.8907 -7.70917e-07 0)
(-12.8761 -7.57901e-07 0)
(-12.8616 -7.46584e-07 0)
(-12.8471 -7.34219e-07 0)
(-12.8328 -7.24719e-07 0)
(-12.8183 -7.15169e-07 0)
(-12.8041 -7.0331e-07 0)
(-12.7898 -6.97514e-07 0)
(-12.7755 -6.92622e-07 0)
(-12.7611 -6.84386e-07 0)
(-12.7468 -6.73354e-07 0)
(-12.7325 -6.64082e-07 0)
(-12.7183 -6.55959e-07 0)
(-12.7042 -6.47525e-07 0)
(-12.69 -6.36509e-07 0)
(-12.676 -6.26479e-07 0)
(-12.662 -6.2008e-07 0)
(-12.648 -6.12749e-07 0)
(-12.634 -6.03342e-07 0)
(-12.6201 -5.93379e-07 0)
(-12.6063 -5.84687e-07 0)
(-12.5925 -5.77716e-07 0)
(-12.5787 -5.71522e-07 0)
(-12.565 -5.63358e-07 0)
(-12.5513 -5.53995e-07 0)
(-12.5377 -5.51061e-07 0)
(-12.5238 -5.43457e-07 0)
(-12.5103 -5.32668e-07 0)
(-12.4967 -5.24053e-07 0)
(-12.4833 -5.21105e-07 0)
(-12.4696 -5.17835e-07 0)
(-12.4561 -5.09196e-07 0)
(-12.4425 -5.02479e-07 0)
(-12.4291 -4.95806e-07 0)
(-12.4156 -4.87153e-07 0)
(-12.4024 -4.80538e-07 0)
(-12.3889 -4.75919e-07 0)
(-12.3757 -4.69226e-07 0)
(-12.3623 -4.63512e-07 0)
(-12.3491 -4.56235e-07 0)
(-12.3359 -4.47425e-07 0)
(-12.3229 -4.40721e-07 0)
(-12.3098 -4.34715e-07 0)
(-12.2969 -4.26804e-07 0)
(-12.284 -4.21419e-07 0)
(-12.2711 -4.16018e-07 0)
(-12.2583 -4.10578e-07 0)
(-12.2454 -4.03411e-07 0)
(-12.2313 -3.93929e-07 0)
(-12.2161 -3.87134e-07 0)
(-12.2011 -3.81725e-07 0)
(-12.1863 -3.7525e-07 0)
(-12.1718 -3.69903e-07 0)
(-12.1574 -3.64515e-07 0)
(-12.1433 -3.5949e-07 0)
(-12.1293 -3.55992e-07 0)
(-12.1155 -3.50219e-07 0)
(-12.1019 -3.4396e-07 0)
(-12.0886 -3.40319e-07 0)
(-12.0753 -3.37011e-07 0)
(-12.0622 -3.32936e-07 0)
(-12.0493 -3.28515e-07 0)
(-12.0366 -3.2436e-07 0)
(-12.024 -3.1775e-07 0)
(-12.0117 -3.14291e-07 0)
(-11.9994 -3.1043e-07 0)
(-11.9875 -3.06316e-07 0)
(-11.9755 -3.03109e-07 0)
(-11.9638 -2.96533e-07 0)
(-11.9523 -2.89986e-07 0)
(-11.9411 -2.86702e-07 0)
(-11.9299 -2.85482e-07 0)
(-11.9188 -2.82582e-07 0)
(-11.9078 -2.79704e-07 0)
(-11.897 -2.7274e-07 0)
(-11.8865 -2.70681e-07 0)
(-11.8758 -2.67607e-07 0)
(-11.8656 -2.61788e-07 0)
(-11.8554 -2.61731e-07 0)
(-11.8451 -2.64051e-07 0)
(-11.8347 -2.62215e-07 0)
(-11.8247 -2.57191e-07 0)
(-11.8146 -2.51844e-07 0)
(-11.805 -2.46187e-07 0)
(-11.7954 -2.4168e-07 0)
(-11.7861 -2.37096e-07 0)
(-11.7769 -2.34699e-07 0)
(-11.7678 -2.31927e-07 0)
(-11.7588 -2.286e-07 0)
(-11.7499 -2.25585e-07 0)
(-11.7412 -2.22004e-07 0)
(-11.7326 -2.20151e-07 0)
(-11.724 -2.1868e-07 0)
(-11.7155 -2.15871e-07 0)
(-11.7071 -2.14813e-07 0)
(-11.6987 -2.12452e-07 0)
(-11.6905 -2.10465e-07 0)
(-11.6823 -2.09392e-07 0)
(-11.6741 -2.09264e-07 0)
(-11.6659 -2.06459e-07 0)
(-11.658 -2.02887e-07 0)
(-11.6501 -2.01856e-07 0)
(-11.6422 -1.97792e-07 0)
(-11.6346 -1.95341e-07 0)
(-11.627 -1.93081e-07 0)
(-11.6195 -1.90396e-07 0)
(-11.6121 -1.89706e-07 0)
(-11.6047 -1.88771e-07 0)
(-11.5974 -1.87361e-07 0)
(-11.5901 -1.85459e-07 0)
(-11.5829 -1.83486e-07 0)
(-11.5758 -1.8104e-07 0)
(-11.5687 -1.78066e-07 0)
(-11.5619 -1.74961e-07 0)
(-11.5551 -1.75207e-07 0)
(-11.5482 -1.75005e-07 0)
(-11.5414 -1.70085e-07 0)
(-11.5349 -1.68655e-07 0)
(-11.5282 -1.70432e-07 0)
(-11.5216 -1.69818e-07 0)
(-11.515 -1.68484e-07 0)
(-11.5084 -1.65741e-07 0)
(-11.502 -1.62932e-07 0)
(-11.4957 -1.61e-07 0)
(-11.4895 -1.57612e-07 0)
(-11.4834 -1.54943e-07 0)
(-11.4774 -1.5295e-07 0)
(-11.4715 -1.50124e-07 0)
(-11.4657 -1.51222e-07 0)
(-11.4597 -1.50009e-07 0)
(-11.454 -1.50374e-07 0)
(-11.4479 -1.47038e-07 0)
(-11.4425 -1.46275e-07 0)
(-11.4365 -1.45005e-07 0)
(-11.4312 -1.44752e-07 0)
(-11.4252 -1.45418e-07 0)
(-11.4198 -1.40742e-07 0)
(-11.4142 -1.51424e-07 0)
(-11.4079 -1.32619e-07 0)
(-11.4039 -1.65424e-07 0)
(-11.3949 -1.14839e-07 0)
(-11.395 -1.47732e-07 0)
(-11.3832 -1.54843e-07 0)
)
;
    }
    symmetry
    {
        type            symmetryPlane;
    }
    frontAndBack
    {
        type            empty;
    }
}


// ************************************************************************* //
