/*--------------------------------*- C++ -*----------------------------------*\
| =========                 |                                                 |
| \\      /  F ield         | OpenFOAM: The Open Source CFD Toolbox           |
|  \\    /   O peration     | Version:  v2012                                 |
|   \\  /    A nd           | Website:  www.openfoam.com                      |
|    \\/     M anipulation  |                                                 |
\*---------------------------------------------------------------------------*/
FoamFile
{
    version     2.0;
    format      ascii;
    class       volScalarField;
    location    "16.5";
    object      k;
}
// * * * * * * * * * * * * * * * * * * * * * * * * * * * * * * * * * * * * * //

dimensions      [0 2 -2 0 0 0 0];


internalField   nonuniform List<scalar> 
209825
(
0.00101924
0.000938271
0.000889011
0.000857742
0.000836286
0.000820719
0.000808792
0.00079946
0.000791848
0.000785651
0.000780381
0.000775987
0.000772145
0.000768872
0.00076596
0.000763474
0.000761206
0.000759263
0.000757451
0.000755898
0.000754425
0.000753159
0.000751946
0.000750926
0.000749919
0.00074907
0.000748228
0.000747542
0.000746833
0.000746233
0.000745666
0.000745198
0.000744714
0.000744317
0.000743893
0.000743534
0.000743178
0.000742893
0.000742587
0.000742353
0.000742086
0.000741864
0.000741631
0.000741454
0.000741266
0.000741107
0.000740954
0.000740827
0.000740676
0.000740591
0.000740457
0.000740354
0.000740273
0.00074022
0.000740109
0.000740059
0.000740035
0.000739995
0.000739877
0.000739919
0.000739919
0.000739918
0.000739926
0.000740119
0.000740238
0.000740238
0.000740363
0.000740523
0.000740822
0.000741001
0.000741131
0.000741297
0.000741551
0.000741812
0.00074211
0.000742484
0.000742814
0.000743194
0.00074349
0.000743962
0.000744323
0.000744919
0.000745377
0.000746154
0.000746635
0.000747598
0.00074818
0.000749418
0.000750186
0.000751848
0.000752818
0.000755789
0.000756482
0.000767011
0.00946543
0.00847507
0.00101924
0.000938268
0.000889004
0.000857731
0.000836271
0.000820701
0.000808772
0.000799438
0.000791825
0.000785626
0.000780355
0.000775959
0.000772117
0.000768843
0.000765931
0.000763444
0.000761176
0.000759232
0.000757419
0.000755867
0.000754393
0.000753127
0.000751914
0.000750893
0.000749886
0.000749037
0.000748195
0.000747509
0.000746799
0.000746198
0.000745632
0.000745164
0.000744679
0.000744283
0.000743858
0.0007435
0.000743143
0.000742858
0.000742552
0.000742318
0.000742051
0.000741828
0.000741596
0.000741419
0.00074123
0.000741071
0.000740918
0.000740791
0.000740641
0.000740555
0.000740421
0.000740318
0.000740237
0.000740184
0.000740073
0.000740023
0.000739999
0.000739959
0.000739841
0.000739883
0.000739883
0.000739882
0.00073989
0.000740083
0.000740202
0.000740201
0.000740327
0.000740487
0.000740786
0.000740965
0.000741095
0.000741261
0.000741515
0.000741776
0.000742074
0.000742448
0.000742778
0.000743158
0.000743454
0.000743926
0.000744288
0.000744884
0.000745341
0.000746118
0.0007466
0.000747562
0.000748144
0.000749383
0.00075015
0.000751813
0.000752782
0.000755754
0.000756446
0.000766992
0.0094753
0.00848747
0.00101924
0.000938253
0.000888967
0.000857675
0.000836201
0.00082062
0.000808683
0.000799342
0.000791722
0.000785519
0.000780244
0.000775845
0.000771999
0.000768722
0.000765808
0.000763319
0.000761049
0.000759104
0.000757289
0.000755735
0.00075426
0.000752993
0.000751779
0.000750757
0.000749749
0.0007489
0.000748057
0.00074737
0.00074666
0.000746058
0.000745491
0.000745022
0.000744537
0.00074414
0.000743716
0.000743357
0.000742999
0.000742714
0.000742408
0.000742174
0.000741906
0.000741684
0.00074145
0.000741273
0.000741085
0.000740925
0.000740772
0.000740645
0.000740494
0.000740408
0.000740274
0.000740172
0.00074009
0.000740037
0.000739927
0.000739876
0.000739852
0.000739812
0.000739694
0.000739736
0.000739736
0.000739735
0.000739743
0.000739936
0.000740054
0.000740054
0.00074018
0.00074034
0.000740638
0.000740817
0.000740948
0.000741114
0.000741368
0.000741629
0.000741926
0.000742301
0.00074263
0.00074301
0.000743307
0.000743778
0.00074414
0.000744736
0.000745194
0.000745971
0.000746453
0.000747415
0.000747997
0.000749235
0.000750003
0.000751665
0.000752634
0.000755606
0.000756295
0.000766875
0.00949917
0.00851957
0.00101925
0.000938228
0.000888904
0.000857582
0.000836083
0.000820484
0.000808532
0.000799179
0.00079155
0.000785338
0.000780056
0.000775651
0.0007718
0.000768519
0.000765601
0.000763109
0.000760836
0.000758888
0.00075707
0.000755514
0.000754037
0.000752768
0.000751552
0.000750528
0.000749519
0.000748668
0.000747824
0.000747136
0.000746425
0.000745823
0.000745255
0.000744785
0.000744299
0.000743901
0.000743476
0.000743116
0.000742758
0.000742472
0.000742166
0.000741931
0.000741663
0.00074144
0.000741207
0.000741029
0.00074084
0.00074068
0.000740527
0.0007404
0.000740249
0.000740163
0.000740028
0.000739926
0.000739844
0.000739791
0.00073968
0.000739629
0.000739606
0.000739566
0.000739447
0.000739489
0.000739489
0.000739487
0.000739495
0.000739688
0.000739806
0.000739806
0.000739932
0.000740092
0.00074039
0.000740569
0.0007407
0.000740866
0.00074112
0.000741381
0.000741678
0.000742052
0.000742382
0.000742763
0.000743059
0.000743531
0.000743893
0.000744489
0.000744946
0.000745723
0.000746205
0.000747168
0.00074775
0.000748987
0.000749755
0.000751417
0.000752385
0.000755357
0.000756041
0.000766672
0.00953722
0.00857099
0.00101925
0.000938192
0.000888815
0.000857449
0.000835917
0.000820291
0.000808318
0.000798949
0.000791306
0.000785083
0.000779792
0.000775378
0.00077152
0.000768233
0.000765309
0.000762812
0.000760534
0.000758582
0.000756762
0.000755202
0.000753722
0.00075245
0.000751232
0.000750206
0.000749195
0.000748342
0.000747496
0.000746807
0.000746094
0.00074549
0.000744921
0.00074445
0.000743963
0.000743564
0.000743138
0.000742777
0.000742418
0.000742131
0.000741824
0.000741589
0.00074132
0.000741097
0.000740863
0.000740685
0.000740495
0.000740335
0.000740181
0.000740054
0.000739902
0.000739816
0.000739681
0.000739578
0.000739496
0.000739443
0.000739332
0.000739281
0.000739257
0.000739217
0.000739099
0.00073914
0.00073914
0.000739138
0.000739146
0.000739338
0.000739456
0.000739456
0.000739582
0.000739742
0.00074004
0.000740219
0.000740351
0.000740517
0.00074077
0.000741031
0.000741328
0.000741702
0.000742032
0.000742413
0.000742709
0.000743181
0.000743543
0.000744139
0.000744596
0.000745373
0.000745855
0.000746818
0.0007474
0.000748637
0.000749404
0.000751065
0.000752033
0.000755005
0.000755681
0.000766383
0.00959014
0.00864242
0.00101926
0.000938145
0.000888701
0.000857277
0.000835701
0.000820042
0.000808042
0.000798652
0.000790991
0.000784753
0.000779449
0.000775025
0.000771157
0.000767862
0.000764931
0.000762428
0.000760144
0.000758187
0.000756362
0.000754798
0.000753314
0.000752039
0.000750818
0.000749789
0.000748775
0.00074792
0.000747071
0.00074638
0.000745665
0.000745059
0.000744488
0.000744016
0.000743527
0.000743127
0.000742699
0.000742338
0.000741978
0.00074169
0.000741382
0.000741145
0.000740876
0.000740652
0.000740417
0.000740238
0.000740048
0.000739887
0.000739733
0.000739605
0.000739453
0.000739366
0.000739231
0.000739128
0.000739045
0.000738992
0.000738881
0.00073883
0.000738806
0.000738765
0.000738647
0.000738688
0.000738688
0.000738686
0.000738693
0.000738884
0.000739003
0.000739003
0.000739129
0.000739289
0.000739586
0.000739766
0.000739898
0.000740064
0.000740317
0.000740578
0.000740874
0.000741248
0.000741578
0.000741959
0.000742256
0.000742728
0.000743089
0.000743686
0.000744142
0.00074492
0.000745401
0.000746364
0.000746946
0.000748183
0.00074895
0.00075061
0.000751577
0.000754548
0.000755215
0.000766007
0.00965861
0.00873453
0.00101927
0.000938087
0.00088856
0.000857066
0.000835436
0.000819735
0.000807702
0.000798285
0.000790603
0.000784346
0.000779027
0.000774589
0.00077071
0.000767405
0.000764465
0.000761954
0.000759663
0.0007577
0.000755869
0.0007543
0.000752812
0.000751532
0.000750307
0.000749274
0.000748257
0.000747399
0.000746548
0.000745853
0.000745136
0.000744529
0.000743955
0.00074348
0.00074299
0.000742588
0.000742159
0.000741796
0.000741435
0.000741145
0.000740836
0.000740599
0.000740328
0.000740103
0.000739867
0.000739688
0.000739497
0.000739335
0.00073918
0.000739052
0.000738899
0.000738812
0.000738677
0.000738573
0.00073849
0.000738437
0.000738326
0.000738274
0.000738249
0.000738209
0.00073809
0.00073813
0.00073813
0.000738129
0.000738135
0.000738325
0.000738444
0.000738444
0.00073857
0.00073873
0.000739026
0.000739207
0.000739339
0.000739505
0.000739758
0.000740019
0.000740315
0.000740689
0.000741018
0.0007414
0.000741697
0.000742169
0.00074253
0.000743127
0.000743583
0.00074436
0.000744842
0.000745805
0.000746387
0.000747622
0.000748389
0.000750048
0.000751014
0.000753984
0.00075464
0.000765543
0.00974322
0.00884799
0.00101928
0.00093802
0.000888392
0.000856816
0.000835121
0.00081937
0.000807298
0.000797849
0.00079014
0.000783862
0.000778524
0.000774071
0.000770178
0.000766861
0.00076391
0.000761389
0.00075909
0.000757119
0.000755281
0.000753707
0.000752213
0.000750928
0.000749698
0.000748661
0.00074764
0.000746778
0.000745924
0.000745226
0.000744506
0.000743896
0.00074332
0.000742843
0.00074235
0.000741946
0.000741515
0.000741151
0.000740787
0.000740497
0.000740186
0.000739947
0.000739675
0.000739449
0.000739212
0.000739032
0.00073884
0.000738678
0.000738521
0.000738393
0.000738239
0.000738151
0.000738016
0.000737912
0.000737828
0.000737774
0.000737663
0.000737611
0.000737586
0.000737545
0.000737426
0.000737466
0.000737466
0.000737465
0.000737469
0.000737659
0.000737778
0.000737777
0.000737904
0.000738064
0.000738359
0.000738541
0.000738674
0.00073884
0.000739091
0.000739353
0.000739648
0.000740022
0.000740351
0.000740734
0.00074103
0.000741503
0.000741864
0.00074246
0.000742916
0.000743694
0.000744175
0.000745138
0.00074572
0.000746954
0.00074772
0.000749378
0.000750342
0.000753312
0.000753955
0.000764991
0.00984449
0.00898339
0.0010193
0.000937942
0.000888199
0.000856525
0.000834755
0.000818946
0.000806828
0.000797342
0.000789603
0.0007833
0.00077794
0.000773468
0.000769559
0.000766228
0.000763264
0.000760733
0.000758424
0.000756444
0.000754598
0.000753016
0.000751516
0.000750225
0.00074899
0.000747948
0.000746922
0.000746056
0.000745198
0.000744496
0.000743773
0.00074316
0.00074258
0.000742101
0.000741605
0.000741199
0.000740766
0.000740399
0.000740034
0.000739742
0.000739429
0.000739189
0.000738916
0.000738688
0.00073845
0.000738268
0.000738075
0.000737912
0.000737755
0.000737626
0.000737471
0.000737383
0.000737247
0.000737142
0.000737057
0.000737004
0.000736892
0.00073684
0.000736814
0.000736773
0.000736654
0.000736693
0.000736693
0.000736691
0.000736695
0.000736884
0.000737002
0.000737002
0.000737128
0.000737288
0.000737582
0.000737765
0.000737899
0.000738065
0.000738316
0.000738577
0.000738871
0.000739245
0.000739574
0.000739958
0.000740254
0.000740727
0.000741088
0.000741685
0.000742139
0.000742917
0.000743399
0.000744361
0.000744943
0.000746176
0.000746942
0.000748598
0.00074956
0.00075253
0.000753156
0.000764348
0.00996282
0.00914135
0.00101931
0.000937853
0.000887979
0.000856194
0.000834339
0.000818463
0.000806293
0.000796764
0.00078899
0.000782657
0.000777273
0.000772779
0.000768852
0.000765505
0.000762527
0.000759983
0.000757662
0.000755673
0.000753818
0.000752228
0.00075072
0.000749422
0.00074818
0.000747133
0.000746102
0.000745231
0.000744368
0.000743662
0.000742936
0.000742318
0.000741735
0.000741252
0.000740754
0.000740345
0.00073991
0.000739541
0.000739173
0.000738879
0.000738564
0.000738322
0.000738047
0.000737818
0.000737579
0.000737396
0.000737201
0.000737037
0.000736879
0.000736749
0.000736593
0.000736504
0.000736367
0.000736262
0.000736176
0.000736122
0.000736011
0.000735957
0.000735931
0.00073589
0.00073577
0.000735809
0.000735808
0.000735807
0.000735809
0.000735997
0.000736115
0.000736115
0.000736242
0.000736401
0.000736694
0.000736878
0.000737012
0.000737178
0.000737429
0.00073769
0.000737983
0.000738357
0.000738685
0.00073907
0.000739367
0.00073984
0.0007402
0.000740797
0.000741251
0.00074203
0.00074251
0.000743473
0.000744054
0.000745287
0.000746051
0.000747706
0.000748665
0.000751634
0.000752243
0.000763614
0.0100985
0.0093224
0.00101933
0.000937755
0.000887733
0.000855824
0.000833871
0.00081792
0.00080569
0.000796114
0.0007883
0.000781934
0.000776521
0.000772004
0.000768056
0.00076469
0.000761696
0.000759138
0.000756805
0.000754804
0.000752938
0.000751339
0.000749822
0.000748518
0.000747268
0.000746215
0.000745177
0.000744301
0.000743433
0.000742722
0.000741991
0.00074137
0.000740783
0.000740297
0.000739794
0.000739383
0.000738944
0.000738573
0.000738203
0.000737906
0.000737589
0.000737345
0.000737068
0.000736838
0.000736596
0.000736412
0.000736216
0.000736051
0.000735891
0.00073576
0.000735603
0.000735513
0.000735376
0.00073527
0.000735183
0.000735129
0.000735017
0.000734963
0.000734936
0.000734895
0.000734775
0.000734812
0.000734812
0.000734811
0.00073481
0.000734997
0.000735116
0.000735115
0.000735242
0.000735401
0.000735693
0.000735878
0.000736013
0.000736179
0.000736429
0.00073669
0.000736982
0.000737355
0.000737684
0.000738069
0.000738366
0.00073884
0.000739199
0.000739797
0.000740249
0.000741028
0.000741509
0.000742471
0.000743052
0.000744283
0.000745047
0.000746699
0.000747656
0.000750625
0.000751214
0.000762787
0.0102516
0.00952705
0.00101935
0.000937647
0.000887461
0.000855412
0.000833351
0.000817317
0.00080502
0.00079539
0.000787532
0.000781129
0.000775685
0.000771141
0.000767169
0.000763783
0.000760771
0.000758197
0.000755849
0.000753836
0.000751959
0.000750349
0.000748823
0.000747509
0.000746252
0.000745191
0.000744147
0.000743265
0.00074239
0.000741675
0.000740939
0.000740313
0.000739721
0.000739231
0.000738725
0.00073831
0.000737869
0.000737494
0.000737121
0.000736822
0.000736502
0.000736256
0.000735977
0.000735745
0.000735501
0.000735316
0.000735118
0.000734951
0.00073479
0.000734658
0.0007345
0.000734409
0.000734271
0.000734164
0.000734076
0.000734021
0.000733909
0.000733854
0.000733826
0.000733785
0.000733664
0.000733701
0.0007337
0.0007337
0.000733697
0.000733883
0.000734001
0.000734001
0.000734128
0.000734286
0.000734577
0.000734763
0.000734899
0.000735065
0.000735314
0.000735575
0.000735865
0.000736238
0.000736566
0.000736953
0.00073725
0.000737724
0.000738083
0.000738681
0.000739132
0.000739911
0.000740391
0.000741354
0.000741934
0.000743163
0.000743926
0.000745576
0.00074653
0.000749498
0.000750065
0.000761865
0.010422
0.00975579
0.00101938
0.000937529
0.000887162
0.000854961
0.00083278
0.000816653
0.000804282
0.000794593
0.000786686
0.000780242
0.000774763
0.000770189
0.000766191
0.000762783
0.00075975
0.000757159
0.000754795
0.000752767
0.000750877
0.000749256
0.000747719
0.000746396
0.00074513
0.000744061
0.00074301
0.000742121
0.00074124
0.000740518
0.000739777
0.000739146
0.000738549
0.000738054
0.000737544
0.000737126
0.00073668
0.000736303
0.000735926
0.000735624
0.000735302
0.000735053
0.000734772
0.000734538
0.000734292
0.000734104
0.000733905
0.000733737
0.000733573
0.00073344
0.000733281
0.000733189
0.00073305
0.000732943
0.000732853
0.000732798
0.000732685
0.00073263
0.000732601
0.000732559
0.000732438
0.000732473
0.000732473
0.000732472
0.000732468
0.000732652
0.000732769
0.000732769
0.000732896
0.000733055
0.000733343
0.000733531
0.000733668
0.000733834
0.000734082
0.000734342
0.000734632
0.000735004
0.000735332
0.00073572
0.000736017
0.000736491
0.00073685
0.000737447
0.000737897
0.000738677
0.000739157
0.000740119
0.000740699
0.000741926
0.000742688
0.000744335
0.000745286
0.000748253
0.000748796
0.000760846
0.0106094
0.010009
0.0010194
0.000937402
0.000886838
0.000854468
0.000832157
0.000815927
0.000803476
0.000793721
0.00078576
0.000779271
0.000773754
0.000769147
0.00076512
0.000761687
0.000758633
0.000756021
0.00075364
0.000751597
0.000749693
0.000748059
0.000746511
0.000745177
0.000743901
0.000742823
0.000741764
0.000740867
0.000739979
0.000739251
0.000738504
0.000737867
0.000737264
0.000736765
0.00073625
0.000735828
0.000735378
0.000734997
0.000734617
0.000734312
0.000733986
0.000733735
0.000733451
0.000733215
0.000732967
0.000732777
0.000732575
0.000732406
0.00073224
0.000732106
0.000731945
0.000731851
0.000731712
0.000731603
0.000731512
0.000731457
0.000731343
0.000731287
0.000731257
0.000731215
0.000731094
0.000731127
0.000731127
0.000731126
0.00073112
0.000731302
0.000731419
0.000731419
0.000731546
0.000731705
0.000731991
0.00073218
0.000732318
0.000732484
0.000732731
0.000732991
0.000733279
0.000733651
0.000733979
0.000734368
0.000734664
0.000735139
0.000735497
0.000736095
0.000736543
0.000737324
0.000737803
0.000738764
0.000739344
0.000740569
0.00074133
0.000742974
0.000743921
0.000746887
0.000747403
0.00075973
0.0108132
0.0102872
0.00101943
0.000937266
0.000886488
0.000853936
0.000831481
0.00081514
0.000802601
0.000792774
0.000784754
0.000778216
0.000772657
0.000768014
0.000763956
0.000760496
0.000757417
0.000754784
0.000752384
0.000750324
0.000748404
0.000746756
0.000745195
0.00074385
0.000742564
0.000741476
0.000740407
0.000739503
0.000738607
0.000737871
0.000737118
0.000736475
0.000735866
0.000735361
0.000734841
0.000734414
0.000733961
0.000733576
0.000733191
0.000732883
0.000732554
0.000732299
0.000732013
0.000731774
0.000731523
0.000731331
0.000731127
0.000730956
0.000730788
0.000730653
0.00073049
0.000730395
0.000730254
0.000730145
0.000730052
0.000729996
0.000729882
0.000729825
0.000729794
0.000729752
0.00072963
0.000729661
0.000729661
0.00072966
0.000729652
0.000729832
0.000729949
0.000729948
0.000730076
0.000730234
0.000730518
0.000730708
0.000730848
0.000731014
0.000731259
0.00073152
0.000731806
0.000732178
0.000732504
0.000732895
0.000733191
0.000733666
0.000734024
0.000734622
0.000735068
0.000735849
0.000736328
0.000737289
0.000737868
0.000739091
0.00073985
0.000741491
0.000742434
0.000745399
0.000745887
0.000758513
0.0110325
0.0105905
0.00101946
0.00093712
0.000886113
0.000853363
0.000830754
0.000814292
0.000801656
0.000791752
0.000783668
0.000777076
0.000771471
0.000766789
0.000762697
0.000759207
0.000756102
0.000753446
0.000751025
0.000748946
0.00074701
0.000745347
0.000743772
0.000742415
0.000741116
0.000740018
0.000738939
0.000738026
0.000737121
0.000736378
0.000735617
0.000734968
0.000734352
0.000733842
0.000733316
0.000732884
0.000732426
0.000732037
0.000731648
0.000731336
0.000731003
0.000730745
0.000730456
0.000730215
0.000729961
0.000729766
0.00072956
0.000729386
0.000729216
0.000729079
0.000728915
0.000728818
0.000728676
0.000728566
0.000728471
0.000728415
0.0007283
0.000728242
0.000728209
0.000728167
0.000728044
0.000728074
0.000728074
0.000728073
0.000728062
0.000728241
0.000728356
0.000728356
0.000728483
0.000728641
0.000728923
0.000729115
0.000729255
0.000729422
0.000729665
0.000729926
0.00073021
0.000730581
0.000730907
0.000731299
0.000731595
0.000732071
0.000732428
0.000733025
0.00073347
0.000734251
0.000734729
0.00073569
0.000736268
0.000737488
0.000738246
0.000739883
0.000740822
0.000743786
0.000744243
0.000757194
0.011266
0.0109192
0.00101949
0.000936967
0.000885713
0.000852751
0.000829974
0.000813381
0.000800642
0.000790654
0.0007825
0.00077585
0.000770196
0.000765471
0.000761343
0.000757821
0.000754687
0.000752006
0.000749562
0.000747463
0.000745509
0.000743829
0.000742239
0.000740869
0.000739557
0.000738448
0.000737358
0.000736435
0.000735521
0.00073477
0.000734001
0.000733345
0.000732722
0.000732205
0.000731673
0.000731236
0.000730773
0.000730379
0.000729986
0.000729669
0.000729332
0.000729071
0.000728778
0.000728534
0.000728277
0.00072808
0.000727871
0.000727695
0.000727523
0.000727384
0.000727217
0.000727119
0.000726976
0.000726864
0.000726768
0.00072671
0.000726595
0.000726536
0.000726502
0.000726459
0.000726336
0.000726364
0.000726363
0.000726362
0.000726348
0.000726525
0.00072664
0.00072664
0.000726767
0.000726925
0.000727204
0.000727397
0.000727538
0.000727705
0.000727947
0.000728208
0.00072849
0.000728861
0.000729186
0.000729579
0.000729875
0.000730351
0.000730707
0.000731305
0.000731747
0.000732528
0.000733006
0.000733965
0.000734543
0.000735761
0.000736516
0.00073815
0.000739084
0.000742046
0.000742471
0.000755769
0.0115122
0.0112733
0.00101953
0.000936805
0.000885289
0.000852098
0.000829142
0.000812409
0.000799558
0.000789479
0.00078125
0.000774538
0.00076883
0.00076406
0.000759892
0.000756336
0.000753171
0.000750463
0.000747995
0.000745874
0.000743899
0.000742202
0.000740596
0.000739211
0.000737886
0.000736764
0.000735663
0.000734729
0.000733806
0.000733045
0.000732268
0.000731604
0.000730973
0.00073045
0.000729911
0.000729468
0.000728999
0.000728601
0.000728202
0.000727882
0.00072754
0.000727275
0.000726978
0.000726731
0.000726471
0.000726271
0.000726058
0.000725881
0.000725705
0.000725565
0.000725396
0.000725296
0.000725151
0.000725039
0.00072494
0.000724882
0.000724766
0.000724705
0.000724669
0.000724626
0.000724503
0.000724528
0.000724528
0.000724526
0.00072451
0.000724685
0.000724798
0.000724798
0.000724925
0.000725082
0.000725359
0.000725553
0.000725696
0.000725863
0.000726104
0.000726364
0.000726644
0.000727014
0.000727338
0.000727733
0.000728028
0.000728505
0.000728859
0.000729457
0.000729898
0.000730679
0.000731156
0.000732114
0.000732691
0.000733906
0.000734659
0.000736289
0.000737218
0.000740178
0.000740569
0.000754237
0.0117689
0.0116528
0.00101957
0.000936636
0.00088484
0.000851407
0.000828258
0.000811375
0.000798403
0.000788228
0.000779919
0.000773139
0.000767374
0.000762555
0.000758344
0.000754751
0.000751553
0.000748816
0.000746321
0.000744177
0.000742181
0.000740465
0.000738842
0.000737441
0.000736101
0.000734966
0.000733852
0.000732908
0.000731973
0.000731203
0.000730417
0.000729745
0.000729105
0.000728574
0.000728029
0.00072758
0.000727105
0.000726701
0.000726297
0.000725972
0.000725625
0.000725356
0.000725055
0.000724805
0.000724541
0.000724338
0.000724122
0.000723942
0.000723764
0.000723621
0.00072345
0.000723348
0.000723201
0.000723088
0.000722986
0.000722927
0.00072281
0.000722748
0.000722711
0.000722667
0.000722544
0.000722567
0.000722566
0.000722564
0.000722545
0.000722717
0.000722829
0.000722829
0.000722957
0.000723113
0.000723387
0.000723583
0.000723727
0.000723894
0.000724132
0.000724392
0.000724671
0.000725039
0.000725362
0.000725759
0.000726054
0.000726531
0.000726884
0.000727482
0.00072792
0.000728701
0.000729177
0.000730135
0.000730711
0.000731922
0.000732673
0.000734298
0.000735221
0.000738179
0.000738535
0.000752594
0.0120336
0.0120572
0.00101961
0.00093646
0.000884368
0.000850676
0.000827322
0.000810279
0.000797179
0.0007869
0.000778505
0.000771653
0.000765827
0.000760955
0.000756699
0.000753065
0.000749832
0.000747064
0.000744541
0.000742372
0.000740353
0.000738617
0.000736974
0.000735557
0.000734201
0.000733052
0.000731925
0.000730968
0.000730022
0.000729242
0.000728446
0.000727765
0.000727116
0.000726578
0.000726024
0.000725569
0.000725087
0.000724678
0.000724268
0.000723937
0.000723586
0.000723312
0.000723007
0.000722753
0.000722485
0.000722279
0.00072206
0.000721877
0.000721695
0.000721551
0.000721377
0.000721273
0.000721125
0.000721009
0.000720905
0.000720845
0.000720728
0.000720664
0.000720625
0.000720581
0.000720457
0.000720477
0.000720477
0.000720474
0.000720452
0.000720621
0.000720732
0.000720732
0.000720859
0.000721015
0.000721286
0.000721483
0.000721628
0.000721796
0.000722032
0.000722292
0.000722568
0.000722935
0.000723257
0.000723655
0.00072395
0.000724427
0.000724779
0.000725377
0.000725813
0.000726593
0.000727068
0.000728024
0.000728599
0.000729807
0.000730556
0.000732176
0.000733093
0.000736048
0.000736367
0.000750837
0.0123033
0.0124861
0.00101965
0.000936276
0.000883873
0.000849907
0.000826335
0.000809121
0.000795885
0.000785494
0.000777008
0.000770079
0.000764187
0.00075926
0.000754954
0.000751279
0.000748008
0.000745206
0.000742653
0.000740457
0.000738414
0.000736656
0.000734994
0.000733558
0.000732186
0.000731021
0.00072988
0.00072891
0.000727952
0.00072716
0.000726354
0.000725664
0.000725005
0.000724458
0.000723897
0.000723434
0.000722946
0.000722531
0.000722114
0.000721778
0.000721421
0.000721142
0.000720833
0.000720575
0.000720303
0.000720093
0.00071987
0.000719685
0.000719499
0.000719353
0.000719176
0.000719069
0.000718919
0.000718802
0.000718696
0.000718635
0.000718516
0.000718451
0.00071841
0.000718365
0.000718242
0.000718258
0.000718258
0.000718254
0.000718229
0.000718396
0.000718505
0.000718504
0.000718632
0.000718787
0.000719054
0.000719253
0.000719399
0.000719567
0.000719801
0.00072006
0.000720334
0.000720701
0.000721021
0.00072142
0.000721714
0.000722192
0.000722543
0.00072314
0.000723573
0.000724354
0.000724827
0.000725782
0.000726356
0.000727559
0.000728306
0.00072992
0.000730831
0.000733783
0.000734064
0.000748962
0.0125747
0.0129384
0.0010197
0.000936087
0.000883355
0.0008491
0.000825298
0.000807901
0.00079452
0.000784012
0.000775428
0.000768417
0.000762456
0.000757468
0.000753111
0.000749391
0.000746079
0.000743242
0.000740657
0.000738433
0.000736364
0.000734582
0.000732898
0.000731444
0.000730053
0.000728872
0.000727716
0.000726733
0.000725761
0.000724957
0.00072414
0.00072344
0.000722771
0.000722215
0.000721645
0.000721175
0.000720679
0.000720258
0.000719834
0.000719492
0.000719129
0.000718846
0.000718531
0.00071827
0.000717993
0.000717779
0.000717552
0.000717364
0.000717174
0.000717026
0.000716846
0.000716737
0.000716585
0.000716466
0.000716356
0.000716294
0.000716174
0.000716107
0.000716064
0.000716019
0.000715896
0.000715909
0.000715909
0.000715904
0.000715875
0.000716039
0.000716146
0.000716145
0.000716272
0.000716428
0.000716691
0.00071689
0.000717038
0.000717206
0.000717439
0.000717697
0.000717968
0.000718333
0.000718652
0.000719052
0.000719346
0.000719824
0.000720173
0.00072077
0.000721201
0.000721981
0.000722453
0.000723406
0.000723978
0.000725178
0.000725921
0.00072753
0.000728434
0.000731382
0.000731623
0.000746965
0.012844
0.0134131
0.00101975
0.000935891
0.000882816
0.000848256
0.000824209
0.000806621
0.000793086
0.000782453
0.000773765
0.000766667
0.000760632
0.000755581
0.000751169
0.0007474
0.000744045
0.00074117
0.000738551
0.000736297
0.0007342
0.000732394
0.000730688
0.000729213
0.000727803
0.000726605
0.000725432
0.000724435
0.000723449
0.000722633
0.000721804
0.000721093
0.000720413
0.000719847
0.000719268
0.000718789
0.000718286
0.000717858
0.000717427
0.000717079
0.00071671
0.000716421
0.000716101
0.000715835
0.000715553
0.000715335
0.000715104
0.000714912
0.000714719
0.000714568
0.000714385
0.000714273
0.000714119
0.000713998
0.000713886
0.000713822
0.000713701
0.000713632
0.000713587
0.000713541
0.000713418
0.000713428
0.000713427
0.000713421
0.000713388
0.00071355
0.000713654
0.000713654
0.00071378
0.000713935
0.000714194
0.000714395
0.000714544
0.000714712
0.000714942
0.0007152
0.000715468
0.000715832
0.00071615
0.000716551
0.000716844
0.000717322
0.00071767
0.000718266
0.000718694
0.000719473
0.000719944
0.000720894
0.000721465
0.00072266
0.0007234
0.000725002
0.0007259
0.000728843
0.000729044
0.000744843
0.0131068
0.0139083
0.00101981
0.000935691
0.000882256
0.000847375
0.000823072
0.00080528
0.000791582
0.000780817
0.000772019
0.00076483
0.000758716
0.000753598
0.000749127
0.000745307
0.000741907
0.000738992
0.000736336
0.00073405
0.000731924
0.000730092
0.000728361
0.000726865
0.000725435
0.000724218
0.000723028
0.000722015
0.000721015
0.000720185
0.000719344
0.000718621
0.00071793
0.000717354
0.000716765
0.000716277
0.000715766
0.00071533
0.000714892
0.000714537
0.000714161
0.000713866
0.000713541
0.00071327
0.000712984
0.000712761
0.000712526
0.00071233
0.000712133
0.000711979
0.000711792
0.000711678
0.000711521
0.000711398
0.000711283
0.000711217
0.000711095
0.000711024
0.000710976
0.00071093
0.000710807
0.000710814
0.000710813
0.000710805
0.000710768
0.000710926
0.000711028
0.000711028
0.000711154
0.000711309
0.000711563
0.000711765
0.000711914
0.000712083
0.000712311
0.000712568
0.000712834
0.000713196
0.000713511
0.000713914
0.000714206
0.000714684
0.00071503
0.000715626
0.00071605
0.000716828
0.000717298
0.000718246
0.000718816
0.000720005
0.000720742
0.000722337
0.000723227
0.000726164
0.000726325
0.00074259
0.0133585
0.0144219
0.00101986
0.000935485
0.000881676
0.000846459
0.000821885
0.000803879
0.000790009
0.000779104
0.00077019
0.000762904
0.000756707
0.000751517
0.000746985
0.000743111
0.000739662
0.000736705
0.000734011
0.000731691
0.000729534
0.000727674
0.000725918
0.000724399
0.000722947
0.000721711
0.000720503
0.000719474
0.000718458
0.000717613
0.000716759
0.000716024
0.00071532
0.000714734
0.000714134
0.000713638
0.000713117
0.000712674
0.000712227
0.000711866
0.000711483
0.000711182
0.00071085
0.000710575
0.000710283
0.000710056
0.000709815
0.000709616
0.000709414
0.000709257
0.000709067
0.000708949
0.00070879
0.000708665
0.000708546
0.000708479
0.000708355
0.000708282
0.000708232
0.000708185
0.000708063
0.000708066
0.000708064
0.000708055
0.000708013
0.000708168
0.000708267
0.000708267
0.000708393
0.000708546
0.000708797
0.000708999
0.00070915
0.000709319
0.000709544
0.0007098
0.000710063
0.000710423
0.000710737
0.00071114
0.000711431
0.000711909
0.000712253
0.000712849
0.00071327
0.000714046
0.000714514
0.000715459
0.000716027
0.000717212
0.000717945
0.000719532
0.000720414
0.000723344
0.000723464
0.000740202
0.0135937
0.0149508
0.00101992
0.000935276
0.000881077
0.000845508
0.000820649
0.000802418
0.000788367
0.000777315
0.000768279
0.00076089
0.000754606
0.000749341
0.000744742
0.000740812
0.000737312
0.00073431
0.000731576
0.00072922
0.00072703
0.000725141
0.000723357
0.000721814
0.00072034
0.000719083
0.000717856
0.000716809
0.000715776
0.000714917
0.000714049
0.000713301
0.000712584
0.000711986
0.000711376
0.00071087
0.00071034
0.000709889
0.000709433
0.000709064
0.000708673
0.000708366
0.000708028
0.000707747
0.00070745
0.000707218
0.000706972
0.000706769
0.000706562
0.000706402
0.000706207
0.000706086
0.000705924
0.000705797
0.000705675
0.000705606
0.00070548
0.000705406
0.000705352
0.000705304
0.000705184
0.000705183