/*--------------------------------*- C++ -*----------------------------------*\
| =========                 |                                                 |
| \\      /  F ield         | OpenFOAM: The Open Source CFD Toolbox           |
|  \\    /   O peration     | Version:  v2012                                 |
|   \\  /    A nd           | Website:  www.openfoam.com                      |
|    \\/     M anipulation  |                                                 |
\*---------------------------------------------------------------------------*/
FoamFile
{
    version     2.0;
    format      ascii;
    class       volVectorField;
    location    "16.5";
    object      wallShearStress;
}
// * * * * * * * * * * * * * * * * * * * * * * * * * * * * * * * * * * * * * //

dimensions      [0 2 -2 0 0 0 0];


internalField   uniform (0 0 0);

boundaryField
{
    inlet
    {
        type            calculated;
        value           uniform (0 0 0);
    }
    outlet
    {
        type            calculated;
        value           uniform (0 0 0);
    }
    topWall
    {
        type            calculated;
        value           nonuniform List<vector> 
545
(
(4.1059e-08 -2.88696e-08 0)
(4.10141e-08 -8.09899e-08 0)
(4.07987e-08 -1.34756e-07 0)
(4.07393e-08 -1.86925e-07 0)
(4.06634e-08 -2.36827e-07 0)
(4.05767e-08 -2.85098e-07 0)
(4.04814e-08 -3.32158e-07 0)
(4.03755e-08 -3.77984e-07 0)
(4.02599e-08 -4.22472e-07 0)
(4.01356e-08 -4.65622e-07 0)
(4.00034e-08 -5.07487e-07 0)
(3.98641e-08 -5.48116e-07 0)
(3.97185e-08 -5.87538e-07 0)
(3.95671e-08 -6.25777e-07 0)
(3.94107e-08 -6.62861e-07 0)
(3.92499e-08 -6.98821e-07 0)
(3.90853e-08 -7.33688e-07 0)
(3.89174e-08 -7.67492e-07 0)
(3.87466e-08 -8.00261e-07 0)
(3.85736e-08 -8.32024e-07 0)
(3.83986e-08 -8.62811e-07 0)
(3.82222e-08 -8.92649e-07 0)
(3.80446e-08 -9.21565e-07 0)
(3.78663e-08 -9.49588e-07 0)
(3.76874e-08 -9.76743e-07 0)
(3.75085e-08 -1.00306e-06 0)
(3.73296e-08 -1.02855e-06 0)
(3.7151e-08 -1.05326e-06 0)
(3.6973e-08 -1.0772e-06 0)
(3.67958e-08 -1.1004e-06 0)
(3.66196e-08 -1.12288e-06 0)
(3.64445e-08 -1.14466e-06 0)
(3.62706e-08 -1.16576e-06 0)
(3.60982e-08 -1.18621e-06 0)
(3.59273e-08 -1.20603e-06 0)
(3.57581e-08 -1.22523e-06 0)
(3.55906e-08 -1.24384e-06 0)
(3.5425e-08 -1.26187e-06 0)
(3.52613e-08 -1.27935e-06 0)
(3.50995e-08 -1.29628e-06 0)
(3.49398e-08 -1.3127e-06 0)
(3.47822e-08 -1.32861e-06 0)
(3.46267e-08 -1.34403e-06 0)
(3.44733e-08 -1.35898e-06 0)
(3.43222e-08 -1.37346e-06 0)
(3.41732e-08 -1.38751e-06 0)
(3.40264e-08 -1.40112e-06 0)
(3.38819e-08 -1.41432e-06 0)
(3.37396e-08 -1.42712e-06 0)
(3.35995e-08 -1.43953e-06 0)
(3.34616e-08 -1.45156e-06 0)
(3.33259e-08 -1.46323e-06 0)
(3.31924e-08 -1.47454e-06 0)
(3.3061e-08 -1.48551e-06 0)
(3.29318e-08 -1.49615e-06 0)
(3.28047e-08 -1.50647e-06 0)
(3.26798e-08 -1.51648e-06 0)
(3.25569e-08 -1.52618e-06 0)
(3.2436e-08 -1.5356e-06 0)
(3.23171e-08 -1.54473e-06 0)
(3.22002e-08 -1.55359e-06 0)
(3.20852e-08 -1.56219e-06 0)
(3.19721e-08 -1.57053e-06 0)
(3.18609e-08 -1.57862e-06 0)
(3.17515e-08 -1.58647e-06 0)
(3.16438e-08 -1.59409e-06 0)
(3.15379e-08 -1.60148e-06 0)
(3.14337e-08 -1.60865e-06 0)
(3.13312e-08 -1.61561e-06 0)
(3.12298e-08 -1.62236e-06 0)
(3.11321e-08 -1.62896e-06 0)
(3.10269e-08 -1.6352e-06 0)
(3.09271e-08 -1.64133e-06 0)
(3.08444e-08 -1.64737e-06 0)
(3.07623e-08 -1.65314e-06 0)
(3.06807e-08 -1.65894e-06 0)
(3.05991e-08 -1.66471e-06 0)
(3.05177e-08 -1.67045e-06 0)
(3.04364e-08 -1.67614e-06 0)
(3.03552e-08 -1.68179e-06 0)
(3.02741e-08 -1.6874e-06 0)
(3.01932e-08 -1.69296e-06 0)
(3.01123e-08 -1.69849e-06 0)
(3.00316e-08 -1.70398e-06 0)
(2.9951e-08 -1.70942e-06 0)
(2.98705e-08 -1.71483e-06 0)
(2.97902e-08 -1.7202e-06 0)
(2.971e-08 -1.72553e-06 0)
(2.96299e-08 -1.73082e-06 0)
(2.95499e-08 -1.73607e-06 0)
(2.94701e-08 -1.74129e-06 0)
(2.93902e-08 -1.74646e-06 0)
(2.93115e-08 -1.75161e-06 0)
(2.92285e-08 -1.75669e-06 0)
(2.91638e-08 -1.76217e-06 0)
(2.90244e-08 -1.76638e-06 0)
(2.88655e-08 -1.77083e-06 0)
(2.87928e-08 -1.77581e-06 0)
(2.87293e-08 -1.77948e-06 0)
(2.86679e-08 -1.78339e-06 0)
(2.86065e-08 -1.78741e-06 0)
(2.85451e-08 -1.79148e-06 0)
(2.84834e-08 -1.79554e-06 0)
(2.84214e-08 -1.79957e-06 0)
(2.83593e-08 -1.8036e-06 0)
(2.82968e-08 -1.80764e-06 0)
(2.82341e-08 -1.81169e-06 0)
(2.81712e-08 -1.81573e-06 0)
(2.8108e-08 -1.81977e-06 0)
(2.80446e-08 -1.82381e-06 0)
(2.79809e-08 -1.82785e-06 0)
(2.79169e-08 -1.8319e-06 0)
(2.78527e-08 -1.83594e-06 0)
(2.77882e-08 -1.83998e-06 0)
(2.77235e-08 -1.84403e-06 0)
(2.76585e-08 -1.84807e-06 0)
(2.75932e-08 -1.85211e-06 0)
(2.75277e-08 -1.85616e-06 0)
(2.7462e-08 -1.8602e-06 0)
(2.7396e-08 -1.86424e-06 0)
(2.73297e-08 -1.86829e-06 0)
(2.72631e-08 -1.87233e-06 0)
(2.71963e-08 -1.87637e-06 0)
(2.71293e-08 -1.88041e-06 0)
(2.70619e-08 -1.88445e-06 0)
(2.69944e-08 -1.8885e-06 0)
(2.69265e-08 -1.89254e-06 0)
(2.68584e-08 -1.89658e-06 0)
(2.679e-08 -1.90061e-06 0)
(2.67214e-08 -1.90465e-06 0)
(2.66525e-08 -1.90869e-06 0)
(2.65834e-08 -1.91272e-06 0)
(2.6514e-08 -1.91676e-06 0)
(2.64443e-08 -1.92079e-06 0)
(2.63744e-08 -1.92483e-06 0)
(2.63042e-08 -1.92886e-06 0)
(2.62337e-08 -1.93289e-06 0)
(2.6163e-08 -1.93692e-06 0)
(2.6092e-08 -1.94094e-06 0)
(2.60208e-08 -1.94497e-06 0)
(2.59493e-08 -1.949e-06 0)
(2.58775e-08 -1.95302e-06 0)
(2.58054e-08 -1.95704e-06 0)
(2.57331e-08 -1.96106e-06 0)
(2.56606e-08 -1.96508e-06 0)
(2.55878e-08 -1.96909e-06 0)
(2.55147e-08 -1.97311e-06 0)
(2.54413e-08 -1.97712e-06 0)
(2.53677e-08 -1.98113e-06 0)
(2.52938e-08 -1.98513e-06 0)
(2.52197e-08 -1.98914e-06 0)
(2.51453e-08 -1.99314e-06 0)
(2.50706e-08 -1.99714e-06 0)
(2.49957e-08 -2.00114e-06 0)
(2.49205e-08 -2.00513e-06 0)
(2.4845e-08 -2.00913e-06 0)
(2.47693e-08 -2.01311e-06 0)
(2.46933e-08 -2.0171e-06 0)
(2.46171e-08 -2.02108e-06 0)
(2.45405e-08 -2.02507e-06 0)
(2.44638e-08 -2.02904e-06 0)
(2.43867e-08 -2.03302e-06 0)
(2.43094e-08 -2.03699e-06 0)
(2.42319e-08 -2.04096e-06 0)
(2.4154e-08 -2.04492e-06 0)
(2.4076e-08 -2.04888e-06 0)
(2.39976e-08 -2.05284e-06 0)
(2.3919e-08 -2.0568e-06 0)
(2.38401e-08 -2.06075e-06 0)
(2.3761e-08 -2.06469e-06 0)
(2.36816e-08 -2.06863e-06 0)
(2.36019e-08 -2.07257e-06 0)
(2.3522e-08 -2.07651e-06 0)
(2.34419e-08 -2.08044e-06 0)
(2.33614e-08 -2.08436e-06 0)
(2.32807e-08 -2.08829e-06 0)
(2.31998e-08 -2.0922e-06 0)
(2.31186e-08 -2.09612e-06 0)
(2.30371e-08 -2.10003e-06 0)
(2.29554e-08 -2.10393e-06 0)
(2.28734e-08 -2.10783e-06 0)
(2.27911e-08 -2.11172e-06 0)
(2.27086e-08 -2.11561e-06 0)
(2.26259e-08 -2.1195e-06 0)
(2.25429e-08 -2.12338e-06 0)
(2.24596e-08 -2.12725e-06 0)
(2.23761e-08 -2.13112e-06 0)
(2.22923e-08 -2.13498e-06 0)
(2.22083e-08 -2.13884e-06 0)
(2.2124e-08 -2.14269e-06 0)
(2.20394e-08 -2.14654e-06 0)
(2.19547e-08 -2.15038e-06 0)
(2.18696e-08 -2.15422e-06 0)
(2.17843e-08 -2.15805e-06 0)
(2.16988e-08 -2.16187e-06 0)
(2.1613e-08 -2.16569e-06 0)
(2.1527e-08 -2.1695e-06 0)
(2.14407e-08 -2.17331e-06 0)
(2.13541e-08 -2.1771e-06 0)
(2.12673e-08 -2.1809e-06 0)
(2.11803e-08 -2.18468e-06 0)
(2.1093e-08 -2.18846e-06 0)
(2.10055e-08 -2.19223e-06 0)
(2.09178e-08 -2.196e-06 0)
(2.08298e-08 -2.19976e-06 0)
(2.07415e-08 -2.20351e-06 0)
(2.0653e-08 -2.20725e-06 0)
(2.05643e-08 -2.21099e-06 0)
(2.04753e-08 -2.21472e-06 0)
(2.03861e-08 -2.21844e-06 0)
(2.02967e-08 -2.22215e-06 0)
(2.0207e-08 -2.22586e-06 0)
(2.01171e-08 -2.22956e-06 0)
(2.00269e-08 -2.23325e-06 0)
(1.99365e-08 -2.23693e-06 0)
(1.98459e-08 -2.24061e-06 0)
(1.97551e-08 -2.24428e-06 0)
(1.9664e-08 -2.24794e-06 0)
(1.95727e-08 -2.25159e-06 0)
(1.94812e-08 -2.25523e-06 0)
(1.93894e-08 -2.25886e-06 0)
(1.92974e-08 -2.26249e-06 0)
(1.92052e-08 -2.2661e-06 0)
(1.91127e-08 -2.26971e-06 0)
(1.90201e-08 -2.27331e-06 0)
(1.89272e-08 -2.2769e-06 0)
(1.88341e-08 -2.28048e-06 0)
(1.87408e-08 -2.28405e-06 0)
(1.86473e-08 -2.28761e-06 0)
(1.85535e-08 -2.29116e-06 0)
(1.84595e-08 -2.2947e-06 0)
(1.83654e-08 -2.29823e-06 0)
(1.8271e-08 -2.30176e-06 0)
(1.81764e-08 -2.30527e-06 0)
(1.80816e-08 -2.30877e-06 0)
(1.79866e-08 -2.31226e-06 0)
(1.78913e-08 -2.31575e-06 0)
(1.77959e-08 -2.31922e-06 0)
(1.77003e-08 -2.32268e-06 0)
(1.76045e-08 -2.32613e-06 0)
(1.75084e-08 -2.32957e-06 0)
(1.74122e-08 -2.333e-06 0)
(1.73158e-08 -2.33642e-06 0)
(1.72192e-08 -2.33983e-06 0)
(1.71224e-08 -2.34322e-06 0)
(1.70254e-08 -2.34661e-06 0)
(1.69282e-08 -2.34998e-06 0)
(1.68308e-08 -2.35334e-06 0)
(1.67332e-08 -2.35669e-06 0)
(1.66355e-08 -2.36003e-06 0)
(1.65376e-08 -2.36336e-06 0)
(1.64395e-08 -2.36667e-06 0)
(1.63412e-08 -2.36998e-06 0)
(1.62427e-08 -2.37327e-06 0)
(1.61441e-08 -2.37655e-06 0)
(1.60453e-08 -2.37982e-06 0)
(1.59463e-08 -2.38307e-06 0)
(1.58471e-08 -2.38631e-06 0)
(1.57478e-08 -2.38954e-06 0)
(1.56484e-08 -2.39276e-06 0)
(1.55487e-08 -2.39596e-06 0)
(1.54489e-08 -2.39915e-06 0)
(1.5349e-08 -2.40233e-06 0)
(1.52489e-08 -2.40549e-06 0)
(1.51485e-08 -2.40864e-06 0)
(1.50486e-08 -2.41179e-06 0)
(1.4946e-08 -2.41488e-06 0)
(1.48553e-08 -2.41833e-06 0)
(1.47184e-08 -2.42084e-06 0)
(1.45646e-08 -2.4236e-06 0)
(1.44678e-08 -2.42705e-06 0)
(1.43832e-08 -2.42958e-06 0)
(1.42982e-08 -2.4322e-06 0)
(1.42129e-08 -2.43494e-06 0)
(1.41266e-08 -2.43774e-06 0)
(1.40394e-08 -2.44055e-06 0)
(1.39512e-08 -2.44334e-06 0)
(1.38619e-08 -2.44615e-06 0)
(1.37716e-08 -2.44898e-06 0)
(1.36802e-08 -2.45182e-06 0)
(1.35878e-08 -2.45467e-06 0)
(1.34944e-08 -2.45753e-06 0)
(1.33999e-08 -2.4604e-06 0)
(1.33044e-08 -2.46328e-06 0)
(1.32078e-08 -2.46617e-06 0)
(1.31101e-08 -2.46907e-06 0)
(1.30114e-08 -2.47199e-06 0)
(1.29117e-08 -2.47491e-06 0)
(1.28108e-08 -2.47784e-06 0)
(1.27089e-08 -2.48078e-06 0)
(1.26059e-08 -2.48372e-06 0)
(1.25019e-08 -2.48668e-06 0)
(1.23967e-08 -2.48964e-06 0)
(1.22905e-08 -2.49261e-06 0)
(1.21832e-08 -2.49558e-06 0)
(1.20748e-08 -2.49856e-06 0)
(1.19653e-08 -2.50155e-06 0)
(1.18547e-08 -2.50454e-06 0)
(1.1743e-08 -2.50753e-06 0)
(1.16302e-08 -2.51053e-06 0)
(1.15162e-08 -2.51353e-06 0)
(1.14012e-08 -2.51653e-06 0)
(1.12851e-08 -2.51954e-06 0)
(1.11679e-08 -2.52255e-06 0)
(1.10495e-08 -2.52555e-06 0)
(1.09301e-08 -2.52856e-06 0)
(1.08095e-08 -2.53157e-06 0)
(1.06879e-08 -2.53457e-06 0)
(1.05651e-08 -2.53758e-06 0)
(1.04412e-08 -2.54058e-06 0)
(1.03162e-08 -2.54358e-06 0)
(1.01901e-08 -2.54657e-06 0)
(1.00628e-08 -2.54956e-06 0)
(9.93452e-09 -2.55254e-06 0)
(9.80509e-09 -2.55552e-06 0)
(9.67456e-09 -2.55849e-06 0)
(9.54293e-09 -2.56145e-06 0)
(9.41022e-09 -2.5644e-06 0)
(9.2764e-09 -2.56734e-06 0)
(9.14151e-09 -2.57028e-06 0)
(9.00553e-09 -2.57319e-06 0)
(8.86848e-09 -2.5761e-06 0)
(8.73035e-09 -2.57899e-06 0)
(8.59117e-09 -2.58187e-06 0)
(8.45092e-09 -2.58473e-06 0)
(8.30963e-09 -2.58758e-06 0)
(8.16729e-09 -2.5904e-06 0)
(8.02392e-09 -2.59321e-06 0)
(7.87952e-09 -2.596e-06 0)
(7.73411e-09 -2.59877e-06 0)
(7.58769e-09 -2.60151e-06 0)
(7.44028e-09 -2.60424e-06 0)
(7.29188e-09 -2.60693e-06 0)
(7.14252e-09 -2.6096e-06 0)
(6.99219e-09 -2.61224e-06 0)
(6.84092e-09 -2.61486e-06 0)
(6.68872e-09 -2.61744e-06 0)
(6.5356e-09 -2.62e-06 0)
(6.38158e-09 -2.62252e-06 0)
(6.22668e-09 -2.62501e-06 0)
(6.07091e-09 -2.62746e-06 0)
(5.9143e-09 -2.62988e-06 0)
(5.75685e-09 -2.63225e-06 0)
(5.59859e-09 -2.63459e-06 0)
(5.43954e-09 -2.63689e-06 0)
(5.27972e-09 -2.63915e-06 0)
(5.11915e-09 -2.64136e-06 0)
(4.95786e-09 -2.64352e-06 0)
(4.79586e-09 -2.64564e-06 0)
(4.6332e-09 -2.64771e-06 0)
(4.46987e-09 -2.64973e-06 0)
(4.30593e-09 -2.6517e-06 0)
(4.14138e-09 -2.65362e-06 0)
(3.97627e-09 -2.65548e-06 0)
(3.81062e-09 -2.65728e-06 0)
(3.64446e-09 -2.65902e-06 0)
(3.47782e-09 -2.66071e-06 0)
(3.31074e-09 -2.66233e-06 0)
(3.14324e-09 -2.66389e-06 0)
(2.97536e-09 -2.66538e-06 0)
(2.80714e-09 -2.66681e-06 0)
(2.63861e-09 -2.66817e-06 0)
(2.46981e-09 -2.66945e-06 0)
(2.30078e-09 -2.67066e-06 0)
(2.13156e-09 -2.6718e-06 0)
(1.96218e-09 -2.67286e-06 0)
(1.79269e-09 -2.67385e-06 0)
(1.62314e-09 -2.67475e-06 0)
(1.45355e-09 -2.67557e-06 0)
(1.28399e-09 -2.67631e-06 0)
(1.11449e-09 -2.67696e-06 0)
(9.45097e-10 -2.67753e-06 0)
(7.75861e-10 -2.678e-06 0)
(6.06831e-10 -2.67838e-06 0)
(4.38055e-10 -2.67867e-06 0)
(2.69583e-10 -2.67887e-06 0)
(1.01465e-10 -2.67896e-06 0)
(-6.6245e-11 -2.67896e-06 0)
(-2.33496e-10 -2.67886e-06 0)
(-4.00234e-10 -2.67865e-06 0)
(-5.66405e-10 -2.67834e-06 0)
(-7.31954e-10 -2.67792e-06 0)
(-8.96823e-10 -2.67739e-06 0)
(-1.06096e-09 -2.67676e-06 0)
(-1.2243e-09 -2.67601e-06 0)
(-1.3868e-09 -2.67515e-06 0)
(-1.54838e-09 -2.67416e-06 0)
(-1.709e-09 -2.67307e-06 0)
(-1.86859e-09 -2.67185e-06 0)
(-2.0271e-09 -2.67051e-06 0)
(-2.18446e-09 -2.66905e-06 0)
(-2.34061e-09 -2.66747e-06 0)
(-2.4955e-09 -2.66575e-06 0)
(-2.64905e-09 -2.66391e-06 0)
(-2.80122e-09 -2.66194e-06 0)
(-2.95194e-09 -2.65984e-06 0)
(-3.10114e-09 -2.65761e-06 0)
(-3.24877e-09 -2.65524e-06 0)
(-3.39477e-09 -2.65273e-06 0)
(-3.53907e-09 -2.6501e-06 0)
(-3.68161e-09 -2.64731e-06 0)
(-3.82235e-09 -2.6444e-06 0)
(-3.96119e-09 -2.64133e-06 0)
(-4.09811e-09 -2.63813e-06 0)
(-4.23302e-09 -2.63478e-06 0)
(-4.36588e-09 -2.6313e-06 0)
(-4.49661e-09 -2.62766e-06 0)
(-4.62518e-09 -2.62388e-06 0)
(-4.75149e-09 -2.61995e-06 0)
(-4.87553e-09 -2.61587e-06 0)
(-4.99719e-09 -2.61164e-06 0)
(-5.11645e-09 -2.60727e-06 0)
(-5.23323e-09 -2.60273e-06 0)
(-5.34748e-09 -2.59806e-06 0)
(-5.45914e-09 -2.59323e-06 0)
(-5.56816e-09 -2.58825e-06 0)
(-5.67446e-09 -2.58311e-06 0)
(-5.77802e-09 -2.57783e-06 0)
(-5.87874e-09 -2.57238e-06 0)
(-5.97662e-09 -2.5668e-06 0)
(-6.07155e-09 -2.56105e-06 0)
(-6.16353e-09 -2.55516e-06 0)
(-6.25247e-09 -2.5491e-06 0)
(-6.33836e-09 -2.54291e-06 0)
(-6.42112e-09 -2.53655e-06 0)
(-6.50075e-09 -2.53006e-06 0)
(-6.57718e-09 -2.5234e-06 0)
(-6.65041e-09 -2.51661e-06 0)
(-6.72038e-09 -2.50966e-06 0)
(-6.78709e-09 -2.50257e-06 0)
(-6.85049e-09 -2.49532e-06 0)
(-6.9106e-09 -2.48795e-06 0)
(-6.96736e-09 -2.48041e-06 0)
(-7.0208e-09 -2.47275e-06 0)
(-7.07086e-09 -2.46494e-06 0)
(-7.1176e-09 -2.457e-06 0)
(-7.16094e-09 -2.44891e-06 0)
(-7.20095e-09 -2.44069e-06 0)
(-7.23755e-09 -2.43233e-06 0)
(-7.27083e-09 -2.42386e-06 0)
(-7.3007e-09 -2.41524e-06 0)
(-7.32725e-09 -2.4065e-06 0)
(-7.3504e-09 -2.39763e-06 0)
(-7.37023e-09 -2.38865e-06 0)
(-7.38668e-09 -2.37954e-06 0)
(-7.39979e-09 -2.37032e-06 0)
(-7.40975e-09 -2.36096e-06 0)
(-7.41564e-09 -2.35157e-06 0)
(-7.41923e-09 -2.34163e-06 0)
(-7.39908e-09 -2.3325e-06 0)
(-7.38343e-09 -2.32191e-06 0)
(-7.3822e-09 -2.30929e-06 0)
(-7.36632e-09 -2.29749e-06 0)
(-7.34908e-09 -2.2857e-06 0)
(-7.32842e-09 -2.27382e-06 0)
(-7.30388e-09 -2.26195e-06 0)
(-7.27575e-09 -2.25012e-06 0)
(-7.24426e-09 -2.23838e-06 0)
(-7.20945e-09 -2.22667e-06 0)
(-7.1716e-09 -2.21503e-06 0)
(-7.13077e-09 -2.20344e-06 0)
(-7.08721e-09 -2.19194e-06 0)
(-7.04095e-09 -2.18049e-06 0)
(-6.99226e-09 -2.16914e-06 0)
(-6.94114e-09 -2.15784e-06 0)
(-6.88786e-09 -2.14666e-06 0)
(-6.83241e-09 -2.13554e-06 0)
(-6.77502e-09 -2.12453e-06 0)
(-6.71571e-09 -2.1136e-06 0)
(-6.65467e-09 -2.10278e-06 0)
(-6.59192e-09 -2.09205e-06 0)
(-6.52764e-09 -2.08144e-06 0)
(-6.46182e-09 -2.07091e-06 0)
(-6.39466e-09 -2.06051e-06 0)
(-6.32612e-09 -2.0502e-06 0)
(-6.25638e-09 -2.04003e-06 0)
(-6.18541e-09 -2.02995e-06 0)
(-6.11338e-09 -2.02e-06 0)
(-6.04024e-09 -2.01015e-06 0)
(-5.96615e-09 -2.00044e-06 0)
(-5.89107e-09 -1.99083e-06 0)
(-5.81513e-09 -1.98136e-06 0)
(-5.7383e-09 -1.972e-06 0)
(-5.66071e-09 -1.96278e-06 0)
(-5.58231e-09 -1.95367e-06 0)
(-5.50323e-09 -1.94471e-06 0)
(-5.4234e-09 -1.93585e-06 0)
(-5.34297e-09 -1.92714e-06 0)
(-5.26186e-09 -1.91855e-06 0)
(-5.18021e-09 -1.91011e-06 0)
(-5.09794e-09 -1.90178e-06 0)
(-5.01517e-09 -1.8936e-06 0)
(-4.93184e-09 -1.88554e-06 0)
(-4.84806e-09 -1.87763e-06 0)
(-4.76377e-09 -1.86984e-06 0)
(-4.67905e-09 -1.86221e-06 0)
(-4.59386e-09 -1.85469e-06 0)
(-4.50829e-09 -1.84733e-06 0)
(-4.42228e-09 -1.84009e-06 0)
(-4.3359e-09 -1.83301e-06 0)
(-4.24911e-09 -1.82605e-06 0)
(-4.16198e-09 -1.81925e-06 0)
(-4.07446e-09 -1.81258e-06 0)
(-3.98661e-09 -1.80606e-06 0)
(-3.89838e-09 -1.79967e-06 0)
(-3.80984e-09 -1.79344e-06 0)
(-3.72093e-09 -1.78733e-06 0)
(-3.63173e-09 -1.78139e-06 0)
(-3.54216e-09 -1.77557e-06 0)
(-3.4523e-09 -1.76991e-06 0)
(-3.36209e-09 -1.76439e-06 0)
(-3.27159e-09 -1.75903e-06 0)
(-3.18076e-09 -1.7538e-06 0)
(-3.08963e-09 -1.74872e-06 0)
(-2.99817e-09 -1.74379e-06 0)
(-2.90643e-09 -1.73901e-06 0)
(-2.81436e-09 -1.73438e-06 0)
(-2.72202e-09 -1.7299e-06 0)
(-2.62936e-09 -1.72556e-06 0)
(-2.53642e-09 -1.72138e-06 0)
(-2.44318e-09 -1.71734e-06 0)
(-2.34966e-09 -1.71346e-06 0)
(-2.25585e-09 -1.70973e-06 0)
(-2.16177e-09 -1.70615e-06 0)
(-2.0674e-09 -1.70272e-06 0)
(-1.97277e-09 -1.69946e-06 0)
(-1.87785e-09 -1.69633e-06 0)
(-1.78267e-09 -1.69337e-06 0)
(-1.68721e-09 -1.69055e-06 0)
(-1.59149e-09 -1.6879e-06 0)
(-1.49549e-09 -1.6854e-06 0)
(-1.39924e-09 -1.68305e-06 0)
(-1.30273e-09 -1.68086e-06 0)
(-1.20596e-09 -1.67883e-06 0)
(-1.10892e-09 -1.67695e-06 0)
(-1.01162e-09 -1.67524e-06 0)
(-9.14034e-10 -1.67364e-06 0)
(-8.16162e-10 -1.67235e-06 0)
(-7.1786e-10 -1.67071e-06 0)
(-6.19494e-10 -1.67089e-06 0)
(-5.19641e-10 -1.66563e-06 0)
(-4.24068e-10 -1.6784e-06 0)
(-3.12508e-10 -1.62759e-06 0)
(-2.67322e-10 -1.76079e-06 0)
(-1.44452e-10 -1.53753e-06 0)
)
;
    }
    bottomWall
    {
        type            calculated;
        value           nonuniform List<vector> 
449
(
(-52.9907 -0.958968 0)
(-34.934 -0.00281575 0)
(-34.5192 -0.000260122 0)
(-33.145 -0.000366108 0)
(-32.0127 -0.000318627 0)
(-30.9586 -0.000290801 0)
(-30.013 -0.000256067 0)
(-29.1952 -0.000220129 0)
(-28.4949 -0.000189443 0)
(-27.8859 -0.000166096 0)
(-27.3437 -0.000148788 0)
(-26.8516 -0.000135564 0)
(-26.3987 -0.00012492 0)
(-25.9786 -0.000115858 0)
(-25.5871 -0.000107946 0)
(-25.2206 -0.000100869 0)
(-24.8772 -9.44412e-05 0)
(-24.5545 -8.86503e-05 0)
(-24.2506 -8.33232e-05 0)
(-23.9642 -7.84542e-05 0)
(-23.6936 -7.4012e-05 0)
(-23.4376 -6.9888e-05 0)
(-23.1953 -6.61483e-05 0)
(-22.9649 -6.26911e-05 0)
(-22.7463 -5.94401e-05 0)
(-22.5383 -5.64464e-05 0)
(-22.3402 -5.37186e-05 0)
(-22.151 -5.11611e-05 0)
(-21.9705 -4.88458e-05 0)
(-21.7972 -4.66632e-05 0)
(-21.6318 -4.45629e-05 0)
(-21.4731 -4.26075e-05 0)
(-21.3212 -4.08178e-05 0)
(-21.1748 -3.91505e-05 0)
(-21.0344 -3.76183e-05 0)
(-20.8986 -3.61319e-05 0)
(-20.7685 -3.47186e-05 0)
(-20.6426 -3.3425e-05 0)
(-20.5215 -3.21785e-05 0)
(-20.4042 -3.1023e-05 0)
(-20.2911 -2.9903e-05 0)
(-20.1816 -2.88954e-05 0)
(-20.0756 -2.79249e-05 0)
(-19.9729 -2.70049e-05 0)
(-19.8732 -2.61108e-05 0)
(-19.7767 -2.52947e-05 0)
(-19.6828 -2.44803e-05 0)
(-19.592 -2.37251e-05 0)
(-19.5033 -2.29887e-05 0)
(-19.4177 -2.22813e-05 0)
(-19.334 -2.16018e-05 0)
(-19.2532 -2.10036e-05 0)
(-19.1737 -2.04163e-05 0)
(-19.097 -1.98152e-05 0)
(-19.0217 -1.92698e-05 0)
(-18.9489 -1.87513e-05 0)
(-18.8772 -1.82786e-05 0)
(-18.8077 -1.77901e-05 0)
(-18.7395 -1.73312e-05 0)
(-18.6733 -1.68966e-05 0)
(-18.6081 -1.64788e-05 0)
(-18.5448 -1.6084e-05 0)
(-18.4825 -1.56968e-05 0)
(-18.4219 -1.52892e-05 0)
(-18.3624 -1.49139e-05 0)
(-18.3045 -1.45776e-05 0)
(-18.2475 -1.42548e-05 0)
(-18.1918 -1.39224e-05 0)
(-18.1371 -1.36233e-05 0)
(-18.0836 -1.33495e-05 0)
(-18.0309 -1.30651e-05 0)
(-17.9794 -1.27565e-05 0)
(-17.9288 -1.24771e-05 0)
(-17.8793 -1.22392e-05 0)
(-17.8305 -1.19945e-05 0)
(-17.7827 -1.17598e-05 0)
(-17.7355 -1.15361e-05 0)
(-17.6894 -1.13084e-05 0)
(-17.6438 -1.10659e-05 0)
(-17.5994 -1.08133e-05 0)
(-17.5557 -1.05979e-05 0)
(-17.5128 -1.04089e-05 0)
(-17.4705 -1.02417e-05 0)
(-17.4288 -1.0061e-05 0)
(-17.3877 -9.86989e-06 0)
(-17.3474 -9.66288e-06 0)
(-17.3079 -9.45075e-06 0)
(-17.2691 -9.30871e-06 0)
(-17.2306 -9.17764e-06 0)
(-17.1927 -9.02038e-06 0)
(-17.1553 -8.86706e-06 0)
(-17.1186 -8.69505e-06 0)
(-17.0824 -8.53773e-06 0)
(-17.0469 -8.39106e-06 0)
(-17.0118 -8.23158e-06 0)
(-16.9774 -8.0795e-06 0)
(-16.9434 -7.96649e-06 0)
(-16.9098 -7.8509e-06 0)
(-16.8767 -7.72725e-06 0)
(-16.844 -7.59659e-06 0)
(-16.8118 -7.46387e-06 0)
(-16.7801 -7.35549e-06 0)
(-16.7487 -7.24125e-06 0)
(-16.7178 -7.11086e-06 0)
(-16.6874 -6.98806e-06 0)
(-16.6575 -6.88821e-06 0)
(-16.6278 -6.76895e-06 0)
(-16.5987 -6.68836e-06 0)
(-16.5696 -6.60797e-06 0)
(-16.5411 -6.5199e-06 0)
(-16.5126 -6.43855e-06 0)
(-16.4846 -6.32136e-06 0)
(-16.457 -6.21899e-06 0)
(-16.4299 -6.10991e-06 0)
(-16.4031 -5.99821e-06 0)
(-16.3769 -5.89437e-06 0)
(-16.3509 -5.82748e-06 0)
(-16.3251 -5.76483e-06 0)
(-16.2996 -5.67213e-06 0)
(-16.2744 -5.58308e-06 0)
(-16.2496 -5.53518e-06 0)
(-16.2248 -5.48223e-06 0)
(-16.2003 -5.40839e-06 0)
(-16.176 -5.3431e-06 0)
(-16.152 -5.26128e-06 0)
(-16.1284 -5.16924e-06 0)
(-16.1051 -5.08121e-06 0)
(-16.0822 -5.00103e-06 0)
(-16.0595 -4.92549e-06 0)
(-16.0372 -4.8738e-06 0)
(-16.0149 -4.83296e-06 0)
(-15.9928 -4.80284e-06 0)
(-15.9707 -4.75268e-06 0)
(-15.949 -4.69065e-06 0)
(-15.9273 -4.64517e-06 0)
(-15.9059 -4.59228e-06 0)
(-15.8846 -4.5155e-06 0)
(-15.8639 -4.44874e-06 0)
(-15.8431 -4.37402e-06 0)
(-15.823 -4.311e-06 0)
(-15.8027 -4.23492e-06 0)
(-15.7832 -4.15272e-06 0)
(-15.7636 -4.10211e-06 0)
(-15.7445 -4.05097e-06 0)
(-15.7253 -4.01221e-06 0)
(-15.7064 -3.96997e-06 0)
(-15.6875 -3.95754e-06 0)
(-15.6687 -3.90636e-06 0)
(-15.6502 -3.85285e-06 0)
(-15.6318 -3.8067e-06 0)
(-15.6137 -3.78039e-06 0)
(-15.5954 -3.73139e-06 0)
(-15.5777 -3.67805e-06 0)
(-15.5598 -3.64141e-06 0)
(-15.5424 -3.56708e-06 0)
(-15.5252 -3.51805e-06 0)
(-15.5082 -3.47501e-06 0)
(-15.4913 -3.43641e-06 0)
(-15.4746 -3.38247e-06 0)
(-15.4582 -3.35786e-06 0)
(-15.4416 -3.33656e-06 0)
(-15.4253 -3.30337e-06 0)
(-15.409 -3.29353e-06 0)
(-15.3927 -3.25986e-06 0)
(-15.3766 -3.18692e-06 0)
(-15.361 -3.12963e-06 0)
(-15.3455 -3.101e-06 0)
(-15.3301 -3.0536e-06 0)
(-15.3149 -3.01087e-06 0)
(-15.2999 -2.9836e-06 0)
(-15.2849 -2.95147e-06 0)
(-15.2701 -2.93576e-06 0)
(-15.2552 -2.93478e-06 0)
(-15.2412 -2.9418e-06 0)
(-15.2278 -2.93518e-06 0)
(-15.2144 -2.89917e-06 0)
(-15.201 -2.86554e-06 0)
(-15.1877 -2.84422e-06 0)
(-15.1742 -2.78598e-06 0)
(-15.1612 -2.75589e-06 0)
(-15.1477 -2.75639e-06 0)
(-15.1343 -2.71728e-06 0)
(-15.121 -2.6853e-06 0)
(-15.1076 -2.6574e-06 0)
(-15.0943 -2.60523e-06 0)
(-15.0812 -2.54894e-06 0)
(-15.0681 -2.50406e-06 0)
(-15.0552 -2.49342e-06 0)
(-15.0419 -2.49551e-06 0)
(-15.0287 -2.49348e-06 0)
(-15.0151 -2.45484e-06 0)
(-15.0021 -2.41772e-06 0)
(-14.9886 -2.42164e-06 0)
(-14.9752 -2.37074e-06 0)
(-14.9621 -2.32036e-06 0)
(-14.949 -2.2901e-06 0)
(-14.9359 -2.27459e-06 0)
(-14.9227 -2.24941e-06 0)
(-14.9096 -2.22456e-06 0)
(-14.8963 -2.2108e-06 0)
(-14.8831 -2.19124e-06 0)
(-14.8699 -2.17586e-06 0)
(-14.8566 -2.16736e-06 0)
(-14.8431 -2.15147e-06 0)
(-14.8297 -2.12777e-06 0)
(-14.8162 -2.12123e-06 0)
(-14.8026 -2.10419e-06 0)
(-14.7891 -2.0597e-06 0)
(-14.7758 -2.02226e-06 0)
(-14.7625 -1.98303e-06 0)
(-14.7494 -1.94668e-06 0)
(-14.7363 -1.90393e-06 0)
(-14.7236 -1.86553e-06 0)
(-14.7107 -1.85481e-06 0)
(-14.6978 -1.8405e-06 0)
(-14.6848 -1.80928e-06 0)
(-14.6721 -1.78411e-06 0)
(-14.6592 -1.76326e-06 0)
(-14.6465 -1.76175e-06 0)
(-14.6333 -1.76676e-06 0)
(-14.6203 -1.74965e-06 0)
(-14.6071 -1.74891e-06 0)
(-14.5937 -1.73303e-06 0)
(-14.5805 -1.71816e-06 0)
(-14.5671 -1.70809e-06 0)
(-14.5537 -1.67249e-06 0)
(-14.5406 -1.67384e-06 0)
(-14.5269 -1.64818e-06 0)
(-14.5139 -1.61321e-06 0)
(-14.5005 -1.61903e-06 0)
(-14.4871 -1.59103e-06 0)
(-14.4739 -1.58178e-06 0)
(-14.4604 -1.58076e-06 0)
(-14.4469 -1.54718e-06 0)
(-14.4337 -1.53482e-06 0)
(-14.4201 -1.52816e-06 0)
(-14.4067 -1.51226e-06 0)
(-14.3932 -1.46754e-06 0)
(-14.3803 -1.42194e-06 0)
(-14.3673 -1.39289e-06 0)
(-14.3547 -1.35728e-06 0)
(-14.342 -1.33818e-06 0)
(-14.3295 -1.33922e-06 0)
(-14.3165 -1.33839e-06 0)
(-14.3037 -1.31985e-06 0)
(-14.2909 -1.3247e-06 0)
(-14.2777 -1.31996e-06 0)
(-14.2646 -1.28728e-06 0)
(-14.2518 -1.27596e-06 0)
(-14.2387 -1.26671e-06 0)
(-14.2258 -1.25651e-06 0)
(-14.2126 -1.25066e-06 0)
(-14.1996 -1.22531e-06 0)
(-14.1867 -1.20171e-06 0)
(-14.1738 -1.19415e-06 0)
(-14.1608 -1.1893e-06 0)
(-14.1478 -1.17478e-06 0)
(-14.1348 -1.15005e-06 0)
(-14.122 -1.14168e-06 0)
(-14.109 -1.1226e-06 0)
(-14.0964 -1.1069e-06 0)
(-14.0834 -1.10924e-06 0)
(-14.0705 -1.10025e-06 0)
(-14.0574 -1.08499e-06 0)
(-14.0446 -1.05928e-06 0)
(-14.0318 -1.04665e-06 0)
(-14.019 -1.01776e-06 0)
(-14.0067 -1.00124e-06 0)
(-13.9941 -1.00615e-06 0)
(-13.9814 -1.00605e-06 0)
(-13.9685 -9.90797e-07 0)
(-13.9559 -9.58997e-07 0)
(-13.9435 -9.36118e-07 0)
(-13.9313 -9.32383e-07 0)
(-13.9187 -9.26752e-07 0)
(-13.9064 -9.05803e-07 0)
(-13.8941 -8.98397e-07 0)
(-13.8817 -8.80773e-07 0)
(-13.8697 -8.51782e-07 0)
(-13.8578 -8.36623e-07 0)
(-13.846 -8.27607e-07 0)
(-13.8341 -8.39335e-07 0)
(-13.8216 -8.31305e-07 0)
(-13.8097 -8.20233e-07 0)
(-13.7973 -8.15475e-07 0)
(-13.7853 -8.16031e-07 0)
(-13.7726 -8.10038e-07 0)
(-13.7605 -7.76435e-07 0)
(-13.7486 -7.54405e-07 0)
(-13.737 -7.34708e-07 0)
(-13.7254 -7.4054e-07 0)
(-13.7133 -7.45706e-07 0)
(-13.7014 -7.29825e-07 0)
(-13.6895 -7.24573e-07 0)
(-13.6774 -7.24683e-07 0)
(-13.6653 -6.96825e-07 0)
(-13.654 -6.85263e-07 0)
(-13.642 -6.78359e-07 0)
(-13.6306 -6.54639e-07 0)
(-13.6192 -6.56865e-07 0)
(-13.6075 -6.39049e-07 0)
(-13.5964 -6.33922e-07 0)
(-13.5846 -6.60486e-07 0)
(-13.5723 -6.70153e-07 0)
(-13.5599 -6.54959e-07 0)
(-13.548 -6.14627e-07 0)
(-13.5369 -5.93087e-07 0)
(-13.5255 -5.90536e-07 0)
(-13.5142 -5.85553e-07 0)
(-13.5028 -5.8965e-07 0)
(-13.4911 -5.79511e-07 0)
(-13.4798 -5.62254e-07 0)
(-13.4686 -5.63403e-07 0)
(-13.457 -5.54854e-07 0)
(-13.4459 -5.3568e-07 0)
(-13.4349 -5.20373e-07 0)
(-13.4241 -5.21648e-07 0)
(-13.4128 -5.18401e-07 0)
(-13.402 -5.08563e-07 0)
(-13.3908 -4.9783e-07 0)
(-13.3802 -4.94142e-07 0)
(-13.369 -5.01426e-07 0)
(-13.3578 -4.95017e-07 0)
(-13.3466 -4.84318e-07 0)
(-13.3357 -4.73044e-07 0)
(-13.3248 -4.69116e-07 0)
(-13.3139 -4.64605e-07 0)
(-13.3029 -4.60524e-07 0)
(-13.2919 -4.48251e-07 0)
(-13.2813 -4.42345e-07 0)
(-13.2704 -4.49818e-07 0)
(-13.2592 -4.3544e-07 0)
(-13.2487 -4.22199e-07 0)
(-13.238 -4.27609e-07 0)
(-13.227 -4.35907e-07 0)
(-13.2155 -4.22095e-07 0)
(-13.2051 -3.93986e-07 0)
(-13.1949 -3.85842e-07 0)
(-13.1846 -3.77847e-07 0)
(-13.1747 -3.66888e-07 0)
(-13.1648 -3.71304e-07 0)
(-13.1543 -3.74785e-07 0)
(-13.144 -3.66263e-07 0)
(-13.1338 -3.61586e-07 0)
(-13.1235 -3.54093e-07 0)
(-13.1135 -3.45285e-07 0)
(-13.1035 -3.47507e-07 0)
(-13.0932 -3.45062e-07 0)
(-13.0831 -3.37127e-07 0)
(-13.073 -3.38334e-07 0)
(-13.0626 -3.33138e-07 0)
(-13.0527 -3.24035e-07 0)
(-13.0426 -3.23302e-07 0)
(-13.0325 -3.15147e-07 0)
(-13.0217 -3.04556e-07 0)
(-13.0099 -2.99555e-07 0)
(-12.9983 -2.93614e-07 0)
(-12.987 -2.92391e-07 0)
(-12.9755 -2.86988e-07 0)
(-12.9646 -2.78626e-07 0)
(-12.9538 -2.73991e-07 0)
(-12.9433 -2.64681e-07 0)
(-12.9332 -2.59996e-07 0)
(-12.923 -2.6498e-07 0)
(-12.9125 -2.64497e-07 0)
(-12.9024 -2.5349e-07 0)
(-12.8928 -2.45159e-07 0)
(-12.8833 -2.38313e-07 0)
(-12.8742 -2.3128e-07 0)
(-12.8653 -2.36755e-07 0)
(-12.8557 -2.34642e-07 0)
(-12.847 -2.27823e-07 0)
(-12.838 -2.26503e-07 0)
(-12.8293 -2.19469e-07 0)
(-12.8209 -2.18007e-07 0)
(-12.8123 -2.29105e-07 0)
(-12.803 -2.30065e-07 0)
(-12.7944 -2.15673e-07 0)
(-12.7862 -2.03217e-07 0)
(-12.7785 -1.9096e-07 0)
(-12.7713 -1.97186e-07 0)
(-12.7631 -1.9903e-07 0)
(-12.7558 -1.96526e-07 0)
(-12.7478 -1.99835e-07 0)
(-12.7402 -1.89926e-07 0)
(-12.733 -1.70228e-07 0)
(-12.7269 -1.58001e-07 0)
(-12.7208 -1.62082e-07 0)
(-12.7143 -1.68088e-07 0)
(-12.7076 -1.7686e-07 0)
(-12.7005 -1.82515e-07 0)
(-12.6934 -1.86241e-07 0)
(-12.686 -1.84635e-07 0)
(-12.679 -1.80081e-07 0)
(-12.6719 -1.81124e-07 0)
(-12.6649 -1.75593e-07 0)
(-12.6582 -1.72757e-07 0)
(-12.6514 -1.70144e-07 0)
(-12.645 -1.62741e-07 0)
(-12.6387 -1.63826e-07 0)
(-12.6322 -1.65396e-07 0)
(-12.6258 -1.6449e-07 0)
(-12.6193 -1.63176e-07 0)
(-12.613 -1.5484e-07 0)
(-12.6073 -1.40647e-07 0)
(-12.6021 -1.39725e-07 0)
(-12.5964 -1.49408e-07 0)
(-12.5904 -1.41861e-07 0)
(-12.5853 -1.42463e-07 0)
(-12.5793 -1.44891e-07 0)
(-12.574 -1.45658e-07 0)
(-12.568 -1.46798e-07 0)
(-12.5626 -1.4206e-07 0)
(-12.5569 -1.35495e-07 0)
(-12.552 -1.28135e-07 0)
(-12.5469 -1.29646e-07 0)
(-12.5419 -1.31264e-07 0)
(-12.5367 -1.3303e-07 0)
(-12.5315 -1.36541e-07 0)
(-12.526 -1.426e-07 0)
(-12.5204 -1.34501e-07 0)
(-12.5155 -1.22275e-07 0)
(-12.5109 -1.30746e-07 0)
(-12.5053 -1.30809e-07 0)
(-12.5006 -1.13832e-07 0)
(-12.4964 -1.12817e-07 0)
(-12.4919 -1.13018e-07 0)
(-12.4876 -1.1053e-07 0)
(-12.4833 -1.12695e-07 0)
(-12.4789 -1.11989e-07 0)
(-12.4745 -1.16048e-07 0)
(-12.4698 -1.19373e-07 0)
(-12.4652 -1.25161e-07 0)
(-12.46 -1.21328e-07 0)
(-12.4558 -1.04666e-07 0)
(-12.4519 -1.008e-07 0)
(-12.4479 -1.00558e-07 0)
(-12.4441 -1.04598e-07 0)
(-12.4397 -1.15359e-07 0)
(-12.4351 -1.16269e-07 0)
(-12.4307 -1.13246e-07 0)
(-12.4262 -1.17314e-07 0)
(-12.4215 -1.1907e-07 0)
(-12.417 -1.15887e-07 0)
(-12.4125 -1.06077e-07 0)
(-12.4087 -1.27217e-07 0)
(-12.4026 -8.9617e-08 0)
(-12.4018 -1.2007e-07 0)
(-12.3931 -1.14253e-07 0)
)
;
    }
    symmetry
    {
        type            symmetryPlane;
    }
    frontAndBack
    {
        type            empty;
    }
}


// ************************************************************************* //
