/*--------------------------------*- C++ -*----------------------------------*\
| =========                 |                                                 |
| \\      /  F ield         | OpenFOAM: The Open Source CFD Toolbox           |
|  \\    /   O peration     | Version:  v2012                                 |
|   \\  /    A nd           | Website:  www.openfoam.com                      |
|    \\/     M anipulation  |                                                 |
\*---------------------------------------------------------------------------*/
FoamFile
{
    version     2.0;
    format      ascii;
    class       volScalarField;
    location    "16.5";
    object      yPlus;
}
// * * * * * * * * * * * * * * * * * * * * * * * * * * * * * * * * * * * * * //

dimensions      [0 0 0 0 0 0 0];


internalField   uniform 0;

boundaryField
{
    inlet
    {
        type            calculated;
        value           uniform 0;
    }
    outlet
    {
        type            calculated;
        value           uniform 0;
    }
    topWall
    {
        type            calculated;
        value           nonuniform List<scalar> 
545
(
0.117476
0.203054
0.260172
0.305643
0.344128
0.377784
0.407828
0.435025
0.459895
0.482814
0.504061
0.523854
0.542366
0.559738
0.576086
0.591507
0.606085
0.619891
0.632987
0.645428
0.657261
0.66853
0.679272
0.689523
0.699313
0.708671
0.717622
0.72619
0.734397
0.742263
0.749806
0.757043
0.76399
0.770662
0.777073
0.783235
0.78916
0.79486
0.800346
0.805626
0.810711
0.815609
0.820329
0.824878
0.829264
0.833493
0.837573
0.841509
0.845308
0.848975
0.852515
0.855934
0.859237
0.862427
0.86551
0.86849
0.87137
0.874154
0.876847
0.879451
0.881969
0.884406
0.886763
0.889045
0.891253
0.89339
0.895459
0.897462
0.899402
0.90128
0.903099
0.904862
0.906546
0.908173
0.909787
0.911385
0.91297
0.91454
0.916096
0.917638
0.919167
0.920682
0.922184
0.923672
0.925147
0.92661
0.928059
0.929496
0.93092
0.932331
0.93373
0.935117
0.936492
0.937855
0.939205
0.940546
0.941746
0.942818
0.943889
0.944959
0.946027
0.947095
0.948162
0.949228
0.950293
0.951357
0.95242
0.953481
0.954542
0.955602
0.95666
0.957718
0.958774
0.959829
0.960883
0.961937
0.962988
0.964039
0.965089
0.966137
0.967184
0.96823
0.969275
0.970318
0.97136
0.972401
0.973441
0.974479
0.975516
0.976552
0.977587
0.97862
0.979652
0.980682
0.981711
0.982739
0.983765
0.98479
0.985813
0.986835
0.987856
0.988875
0.989892
0.990909
0.991923
0.992936
0.993948
0.994958
0.995966
0.996973
0.997978
0.998982
0.999984
1.00098
1.00198
1.00298
1.00398
1.00497
1.00596
1.00695
1.00794
1.00893
1.00991
1.0109
1.01188
1.01286
1.01383
1.01481
1.01578
1.01676
1.01773
1.0187
1.01966
1.02063
1.02159
1.02255
1.02351
1.02447
1.02542
1.02637
1.02733
1.02827
1.02922
1.03017
1.03111
1.03205
1.03299
1.03392
1.03486
1.03579
1.03672
1.03765
1.03857
1.03949
1.04041
1.04133
1.04225
1.04316
1.04407
1.04498
1.04589
1.04679
1.0477
1.0486
1.04949
1.05039
1.05128
1.05217
1.05306
1.05394
1.05482
1.0557
1.05658
1.05745
1.05833
1.0592
1.06006
1.06093
1.06179
1.06265
1.0635
1.06435
1.06521
1.06605
1.0669
1.06774
1.06858
1.06942
1.07025
1.07108
1.07191
1.07273
1.07355
1.07437
1.07519
1.076
1.07681
1.07762
1.07842
1.07923
1.08002
1.08082
1.08161
1.0824
1.08318
1.08397
1.08475
1.08552
1.08629
1.08706
1.08783
1.08859
1.08935
1.09011
1.09086
1.09161
1.09236
1.0931
1.09384
1.09458
1.09531
1.09604
1.09677
1.09749
1.09821
1.09892
1.09963
1.10034
1.10105
1.10171
1.10232
1.10295
1.10357
1.1042
1.10483
1.10546
1.10609
1.10673
1.10737
1.10801
1.10865
1.1093
1.10995
1.1106
1.11125
1.1119
1.11256
1.11322
1.11388
1.11454
1.1152
1.11586
1.11653
1.11719
1.11786
1.11853
1.1192
1.11987
1.12054
1.12121
1.12188
1.12255
1.12322
1.12389
1.12456
1.12523
1.1259
1.12657
1.12723
1.1279
1.12857
1.12923
1.12989
1.13056
1.13121
1.13187
1.13253
1.13318
1.13383
1.13448
1.13512
1.13576
1.1364
1.13704
1.13767
1.13829
1.13892
1.13953
1.14015
1.14076
1.14136
1.14196
1.14255
1.14313
1.14371
1.14429
1.14485
1.14541
1.14596
1.14651
1.14704
1.14757
1.14809
1.1486
1.1491
1.1496
1.15008
1.15055
1.15101
1.15146
1.1519
1.15233
1.15275
1.15315
1.15355
1.15393
1.15429
1.15464
1.15498
1.15531
1.15562
1.15591
1.15619
1.15646
1.1567
1.15693
1.15715
1.15734
1.15752
1.15768
1.15783
1.15795
1.15805
1.15814
1.1582
1.15824
1.15826
1.15827
1.15824
1.1582
1.15813
1.15805
1.15793
1.1578
1.15763
1.15745
1.15724
1.157
1.15674
1.15645
1.15613
1.15579
1.15542
1.15503
1.1546
1.15414
1.15366
1.15315
1.1526
1.15203
1.15143
1.1508
1.15013
1.14943
1.14871
1.14795
1.14715
1.14633
1.14547
1.14458
1.14366
1.1427
1.14171
1.14068
1.13962
1.13853
1.1374
1.13624
1.13504
1.13381
1.13254
1.13124
1.1299
1.12853
1.12712
1.12567
1.12419
1.12268
1.12113
1.11955
1.11793
1.11627
1.11458
1.11286
1.1111
1.10931
1.10749
1.10563
1.10374
1.10181
1.09985
1.09786
1.09584
1.09379
1.0917
1.08958
1.08743
1.08526
1.08305
1.08081
1.07831
1.07553
1.07274
1.06996
1.06717
1.06439
1.06161
1.05883
1.05606
1.0533
1.05054
1.04779
1.04505
1.04233
1.03961
1.03692
1.03423
1.03156
1.0289
1.02627
1.02364
1.02104
1.01846
1.0159
1.01336
1.01084
1.00834
1.00586
1.00341
1.00098
0.998578
0.9962
0.993845
0.991519
0.989215
0.986943
0.984694
0.982477
0.980285
0.978125
0.975991
0.97389
0.971815
0.969775
0.967762
0.965784
0.963833
0.961919
0.960033
0.958184
0.956364
0.954581
0.952828
0.951113
0.949429
0.947784
0.946169
0.944594
0.943052
0.941548
0.940078
0.938648
0.937251
0.935895
0.934574
0.933293
0.932048
0.930844
0.929676
0.92855
0.92746
0.926413
0.925403
0.924435
0.923506
0.922619
0.921771
0.920966
0.9202
0.919477
0.918795
0.918156
0.917558
0.917003
0.91649
0.91602
0.915593
0.915209
0.914868
0.914571
0.914317
0.914108
0.913938
0.913832
0.913692
)
;
    }
    bottomWall
    {
        type            calculated;
        value           nonuniform List<scalar> 
449
(
0.00275308
0.00482489
0.00539564
0.00534726
0.00527557
0.0051762
0.00507314
0.00497825
0.00489415
0.00481893
0.00475007
0.00468581
0.00462509
0.00456745
0.00451267
0.00446048
0.00441087
0.00436364
0.00431867
0.00427591
0.00423515
0.00419632
0.0041593
0.0041239
0.00409013
0.00405785
0.00402698
0.00399735
0.003969
0.00394164
0.00391549
0.00389029
0.00386613
0.00384276
0.00382031
0.00379851
0.00377763
0.00375731
0.00373779
0.00371881
0.00370051
0.00368273
0.0036655
0.00364876
0.00363252
0.00361676
0.00360138
0.00358653
0.00357197
0.00355793
0.00354417
0.00353089
0.00351776
0.00350514
0.00349269
0.00348067
0.0034688
0.00345729
0.00344598
0.00343499
0.00342416
0.00341363
0.00340324
0.00339316
0.00338325
0.0033736
0.00336406
0.00335477
0.00334561
0.00333665
0.00332779
0.00331916
0.00331068
0.00330237
0.00329415
0.00328612
0.00327816
0.00327039
0.0032627
0.00325522
0.00324784
0.0032406
0.00323343
0.00322637
0.00321941
0.00321258
0.00320589
0.00319933
0.00319277
0.00318634
0.00317997
0.00317373
0.00316758
0.00316153
0.00315556
0.0031497
0.00314392
0.00313819
0.00313253
0.00312694
0.00312145
0.00311603
0.00311066
0.00310537
0.00310017
0.00309503
0.00308995
0.00308497
0.00307996
0.00307507
0.00307016
0.00306537
0.00306063
0.00305597
0.00305138
0.00304688
0.00304243
0.00303799
0.0030336
0.00302929
0.00302501
0.00302074
0.00301651
0.00301232
0.00300817
0.0030041
0.00300008
0.00299613
0.00299223
0.00298838
0.00298452
0.0029807
0.00297685
0.00297309
0.00296932
0.0029656
0.00296189
0.00295829
0.00295468
0.00295119
0.00294767
0.00294431
0.00294092
0.00293762
0.00293429
0.00293103
0.00292775
0.00292447
0.00292126
0.00291806
0.00291491
0.00291172
0.00290865
0.00290553
0.00290251
0.00289952
0.00289656
0.00289363
0.00289073
0.00288788
0.00288499
0.00288216
0.0028793
0.00287646
0.00287366
0.00287096
0.00286824
0.00286558
0.00286295
0.00286035
0.00285775
0.00285519
0.00285259
0.00285016
0.00284781
0.00284548
0.00284314
0.00284081
0.00283845
0.00283618
0.0028338
0.00283146
0.00282911
0.00282677
0.00282442
0.00282214
0.00281987
0.00281763
0.0028153
0.00281299
0.0028106
0.00280832
0.00280595
0.00280359
0.0028013
0.00279901
0.00279672
0.00279441
0.00279213
0.00278982
0.00278752
0.00278519
0.00278286
0.00278049
0.00277813
0.00277576
0.00277335
0.00277096
0.00276862
0.00276627
0.00276398
0.00276167
0.00275945
0.0027572
0.00275495
0.00275269
0.00275048
0.00274823
0.00274602
0.00274371
0.00274143
0.00273911
0.00273675
0.00273442
0.00273204
0.00272969
0.00272737
0.00272494
0.00272267
0.0027203
0.00271793
0.0027156
0.00271319
0.00271081
0.00270847
0.00270605
0.00270364
0.00270121
0.00269894
0.00269664
0.00269443
0.00269222
0.00269002
0.00268772
0.00268545
0.00268317
0.00268081
0.00267849
0.00267622
0.00267388
0.00267159
0.00266923
0.0026669
0.0026646
0.00266232
0.00265999
0.00265766
0.00265533
0.00265307
0.00265072
0.00264849
0.00264614
0.00264383
0.00264146
0.00263917
0.00263688
0.00263459
0.00263241
0.00263015
0.00262786
0.00262553
0.00262327
0.00262106
0.00261887
0.00261661
0.00261439
0.00261219
0.00260995
0.0026078
0.00260568
0.00260358
0.00260145
0.0025992
0.00259706
0.00259481
0.00259264
0.00259032
0.00258812
0.00258597
0.00258388
0.00258182
0.00257962
0.00257745
0.00257531
0.00257311
0.00257091
0.00256888
0.00256669
0.00256466
0.00256261
0.0025605
0.00255855
0.00255641
0.00255415
0.00255184
0.00254966
0.00254766
0.00254562
0.00254359
0.00254152
0.00253939
0.00253737
0.00253533
0.00253322
0.00253118
0.00252918
0.00252723
0.00252515
0.00252319
0.00252117
0.00251926
0.00251721
0.00251517
0.00251312
0.00251114
0.00250917
0.00250718
0.00250519
0.00250319
0.00250128
0.00249926
0.0024972
0.0024953
0.00249334
0.00249131
0.00248918
0.00248727
0.00248543
0.00248355
0.00248175
0.00247994
0.00247801
0.0024761
0.00247422
0.00247232
0.0024705
0.00246867
0.00246676
0.00246491
0.00246307
0.00246115
0.00245932
0.00245747
0.00245559
0.00245359
0.00245141
0.00244929
0.00244721
0.00244511
0.00244314
0.00244117
0.00243927
0.00243746
0.00243561
0.00243366
0.0024318
0.00243004
0.0024283
0.00242665
0.00242501
0.00242324
0.00242164
0.00241998
0.00241837
0.00241683
0.00241525
0.00241348
0.00241187
0.00241037
0.00240899
0.00240769
0.00240618
0.00240481
0.00240334
0.00240191
0.00240056
0.00239946
0.00239833
0.00239714
0.00239591
0.00239458
0.00239324
0.00239185
0.00239055
0.00238924
0.00238792
0.00238672
0.00238545
0.00238427
0.00238313
0.00238192
0.00238072
0.00237951
0.00237832
0.00237726
0.00237632
0.00237526
0.00237415
0.00237323
0.00237211
0.00237114
0.00236999
0.00236899
0.00236792
0.00236703
0.00236608
0.00236514
0.00236416
0.0023632
0.00236215
0.00236108
0.00236018
0.00235932
0.00235827
0.0023574
0.00235662
0.00235575
0.00235499
0.00235419
0.00235338
0.00235259
0.00235171
0.00235084
0.00234986
0.00234909
0.00234838
0.00234764
0.00234693
0.00234612
0.00234523
0.00234442
0.00234359
0.00234271
0.00234184
0.00234105
0.00234029
0.00233922
0.00233891
0.00233741
)
;
    }
    symmetry
    {
        type            symmetryPlane;
    }
    frontAndBack
    {
        type            empty;
    }
}


// ************************************************************************* //
