/*--------------------------------*- C++ -*----------------------------------*\
| =========                 |                                                 |
| \\      /  F ield         | OpenFOAM: The Open Source CFD Toolbox           |
|  \\    /   O peration     | Version:  v2012                                 |
|   \\  /    A nd           | Website:  www.openfoam.com                      |
|    \\/     M anipulation  |                                                 |
\*---------------------------------------------------------------------------*/
FoamFile
{
    version     2.0;
    format      ascii;
    class       volScalarField;
    location    "36.5";
    object      nut;
}
// * * * * * * * * * * * * * * * * * * * * * * * * * * * * * * * * * * * * * //

dimensions      [0 2 -1 0 0 0 0];


internalField   nonuniform List<scalar> 
209825
(
1.23947e-07
1.22972e-07
1.22239e-07
1.21765e-07
1.21507e-07
1.21381e-07
1.2135e-07
1.21362e-07
1.21415e-07
1.21474e-07
1.21555e-07
1.21629e-07
1.21716e-07
1.21792e-07
1.21877e-07
1.21948e-07
1.22029e-07
1.22094e-07
1.22167e-07
1.22226e-07
1.22293e-07
1.22345e-07
1.22406e-07
1.22453e-07
1.22507e-07
1.22549e-07
1.22598e-07
1.22636e-07
1.22679e-07
1.22713e-07
1.22753e-07
1.22782e-07
1.22819e-07
1.22846e-07
1.2288e-07
1.22903e-07
1.22933e-07
1.22955e-07
1.22983e-07
1.23003e-07
1.23027e-07
1.23047e-07
1.23071e-07
1.23086e-07
1.23108e-07
1.23125e-07
1.23144e-07
1.23159e-07
1.23175e-07
1.23188e-07
1.23204e-07
1.23217e-07
1.23231e-07
1.23244e-07
1.23258e-07
1.2327e-07
1.23281e-07
1.23296e-07
1.23302e-07
1.23313e-07
1.23317e-07
1.23329e-07
1.23332e-07
1.23338e-07
1.23337e-07
1.23338e-07
1.23354e-07
1.23362e-07
1.23371e-07
1.23377e-07
1.23387e-07
1.23401e-07
1.23415e-07
1.23437e-07
1.23452e-07
1.23478e-07
1.23493e-07
1.23517e-07
1.23532e-07
1.23555e-07
1.23567e-07
1.23588e-07
1.23599e-07
1.23617e-07
1.23631e-07
1.23647e-07
1.23663e-07
1.23678e-07
1.23695e-07
1.23713e-07
1.2373e-07
1.23745e-07
1.23779e-07
1.24964e-07
1.28408e-07
1.30635e-08
1.23947e-07
1.22972e-07
1.22239e-07
1.21765e-07
1.21507e-07
1.21381e-07
1.2135e-07
1.21362e-07
1.21414e-07
1.21474e-07
1.21555e-07
1.21629e-07
1.21716e-07
1.21792e-07
1.21877e-07
1.21948e-07
1.22029e-07
1.22094e-07
1.22167e-07
1.22226e-07
1.22293e-07
1.22345e-07
1.22406e-07
1.22453e-07
1.22507e-07
1.22549e-07
1.22598e-07
1.22636e-07
1.22679e-07
1.22713e-07
1.22753e-07
1.22782e-07
1.22819e-07
1.22847e-07
1.2288e-07
1.22904e-07
1.22933e-07
1.22955e-07
1.22983e-07
1.23003e-07
1.23027e-07
1.23047e-07
1.23071e-07
1.23086e-07
1.23108e-07
1.23125e-07
1.23145e-07
1.23159e-07
1.23175e-07
1.23189e-07
1.23204e-07
1.23217e-07
1.23231e-07
1.23245e-07
1.23258e-07
1.2327e-07
1.23281e-07
1.23296e-07
1.23303e-07
1.23313e-07
1.23317e-07
1.23329e-07
1.23332e-07
1.23338e-07
1.23337e-07
1.23338e-07
1.23354e-07
1.23362e-07
1.23371e-07
1.23377e-07
1.23388e-07
1.23401e-07
1.23415e-07
1.23437e-07
1.23452e-07
1.23478e-07
1.23493e-07
1.23517e-07
1.23532e-07
1.23555e-07
1.23567e-07
1.23588e-07
1.236e-07
1.23618e-07
1.23631e-07
1.23647e-07
1.23663e-07
1.23678e-07
1.23695e-07
1.23713e-07
1.23731e-07
1.23745e-07
1.2378e-07
1.24967e-07
1.28409e-07
1.34627e-08
1.23947e-07
1.22972e-07
1.22239e-07
1.21764e-07
1.21507e-07
1.2138e-07
1.21349e-07
1.2136e-07
1.21413e-07
1.21472e-07
1.21553e-07
1.21627e-07
1.21715e-07
1.2179e-07
1.21875e-07
1.21947e-07
1.22027e-07
1.22092e-07
1.22165e-07
1.22224e-07
1.22291e-07
1.22343e-07
1.22404e-07
1.22451e-07
1.22505e-07
1.22547e-07
1.22596e-07
1.22634e-07
1.22677e-07
1.22711e-07
1.22751e-07
1.2278e-07
1.22817e-07
1.22844e-07
1.22878e-07
1.22902e-07
1.22931e-07
1.22953e-07
1.22981e-07
1.23001e-07
1.23025e-07
1.23045e-07
1.23069e-07
1.23084e-07
1.23106e-07
1.23123e-07
1.23143e-07
1.23157e-07
1.23173e-07
1.23187e-07
1.23202e-07
1.23215e-07
1.23229e-07
1.23243e-07
1.23256e-07
1.23268e-07
1.23279e-07
1.23294e-07
1.23301e-07
1.23311e-07
1.23315e-07
1.23327e-07
1.2333e-07
1.23336e-07
1.23335e-07
1.23336e-07
1.23352e-07
1.2336e-07
1.23369e-07
1.23375e-07
1.23386e-07
1.23399e-07
1.23413e-07
1.23435e-07
1.2345e-07
1.23476e-07
1.23491e-07
1.23515e-07
1.2353e-07
1.23553e-07
1.23565e-07
1.23586e-07
1.23598e-07
1.23615e-07
1.23629e-07
1.23645e-07
1.23661e-07
1.23676e-07
1.23693e-07
1.23711e-07
1.23728e-07
1.23743e-07
1.23778e-07
1.24969e-07
1.28409e-07
1.39584e-08
1.23947e-07
1.22972e-07
1.22239e-07
1.21764e-07
1.21506e-07
1.21378e-07
1.21348e-07
1.21358e-07
1.21411e-07
1.2147e-07
1.21551e-07
1.21624e-07
1.21712e-07
1.21787e-07
1.21873e-07
1.21944e-07
1.22024e-07
1.22089e-07
1.22163e-07
1.22221e-07
1.22288e-07
1.2234e-07
1.22401e-07
1.22448e-07
1.22502e-07
1.22544e-07
1.22593e-07
1.22631e-07
1.22674e-07
1.22708e-07
1.22748e-07
1.22777e-07
1.22814e-07
1.22842e-07
1.22875e-07
1.22899e-07
1.22928e-07
1.2295e-07
1.22978e-07
1.22998e-07
1.23022e-07
1.23042e-07
1.23066e-07
1.23081e-07
1.23104e-07
1.2312e-07
1.2314e-07
1.23154e-07
1.2317e-07
1.23184e-07
1.232e-07
1.23212e-07
1.23226e-07
1.2324e-07
1.23254e-07
1.23266e-07
1.23276e-07
1.23291e-07
1.23298e-07
1.23309e-07
1.23312e-07
1.23324e-07
1.23327e-07
1.23333e-07
1.23332e-07
1.23334e-07
1.23349e-07
1.23357e-07
1.23366e-07
1.23373e-07
1.23383e-07
1.23397e-07
1.2341e-07
1.23432e-07
1.23447e-07
1.23473e-07
1.23488e-07
1.23512e-07
1.23527e-07
1.2355e-07
1.23562e-07
1.23583e-07
1.23595e-07
1.23613e-07
1.23626e-07
1.23643e-07
1.23658e-07
1.23673e-07
1.2369e-07
1.23708e-07
1.23726e-07
1.2374e-07
1.23775e-07
1.24974e-07
1.28409e-07
1.45086e-08
1.23947e-07
1.22972e-07
1.22239e-07
1.21763e-07
1.21504e-07
1.21377e-07
1.21345e-07
1.21356e-07
1.21408e-07
1.21467e-07
1.21547e-07
1.21621e-07
1.21708e-07
1.21783e-07
1.21869e-07
1.2194e-07
1.2202e-07
1.22085e-07
1.22159e-07
1.22217e-07
1.22284e-07
1.22337e-07
1.22397e-07
1.22444e-07
1.22498e-07
1.2254e-07
1.22589e-07
1.22627e-07
1.2267e-07
1.22704e-07
1.22744e-07
1.22774e-07
1.2281e-07
1.22838e-07
1.22871e-07
1.22895e-07
1.22924e-07
1.22946e-07
1.22974e-07
1.22994e-07
1.23018e-07
1.23039e-07
1.23062e-07
1.23077e-07
1.231e-07
1.23116e-07
1.23136e-07
1.2315e-07
1.23167e-07
1.2318e-07
1.23196e-07
1.23208e-07
1.23223e-07
1.23236e-07
1.2325e-07
1.23262e-07
1.23272e-07
1.23287e-07
1.23294e-07
1.23305e-07
1.23309e-07
1.2332e-07
1.23324e-07
1.23329e-07
1.23328e-07
1.2333e-07
1.23345e-07
1.23354e-07
1.23362e-07
1.23369e-07
1.23379e-07
1.23393e-07
1.23406e-07
1.23428e-07
1.23444e-07
1.23469e-07
1.23484e-07
1.23508e-07
1.23523e-07
1.23546e-07
1.23558e-07
1.2358e-07
1.23591e-07
1.23609e-07
1.23622e-07
1.23639e-07
1.23654e-07
1.2367e-07
1.23686e-07
1.23705e-07
1.23722e-07
1.23737e-07
1.23771e-07
1.2498e-07
1.2841e-07
1.51053e-08
1.23948e-07
1.22972e-07
1.22238e-07
1.21762e-07
1.21503e-07
1.21374e-07
1.21342e-07
1.21352e-07
1.21404e-07
1.21463e-07
1.21543e-07
1.21617e-07
1.21704e-07
1.21779e-07
1.21864e-07
1.21935e-07
1.22015e-07
1.2208e-07
1.22154e-07
1.22212e-07
1.22279e-07
1.22332e-07
1.22392e-07
1.22439e-07
1.22493e-07
1.22535e-07
1.22584e-07
1.22622e-07
1.22665e-07
1.22699e-07
1.22739e-07
1.22769e-07
1.22805e-07
1.22833e-07
1.22866e-07
1.2289e-07
1.22919e-07
1.22941e-07
1.22969e-07
1.22989e-07
1.23013e-07
1.23034e-07
1.23057e-07
1.23073e-07
1.23095e-07
1.23111e-07
1.23131e-07
1.23146e-07
1.23162e-07
1.23175e-07
1.23191e-07
1.23204e-07
1.23218e-07
1.23231e-07
1.23245e-07
1.23257e-07
1.23268e-07
1.23283e-07
1.23289e-07
1.233e-07
1.23304e-07
1.23316e-07
1.23319e-07
1.23325e-07
1.23324e-07
1.23326e-07
1.23341e-07
1.23349e-07
1.23358e-07
1.23364e-07
1.23374e-07
1.23388e-07
1.23402e-07
1.23423e-07
1.23439e-07
1.23464e-07
1.23479e-07
1.23503e-07
1.23518e-07
1.23541e-07
1.23554e-07
1.23575e-07
1.23586e-07
1.23604e-07
1.23618e-07
1.23634e-07
1.2365e-07
1.23665e-07
1.23682e-07
1.237e-07
1.23717e-07
1.23732e-07
1.23767e-07
1.24989e-07
1.2841e-07
1.57471e-08
1.23948e-07
1.22972e-07
1.22238e-07
1.21761e-07
1.215e-07
1.21371e-07
1.21339e-07
1.21348e-07
1.214e-07
1.21458e-07
1.21538e-07
1.21611e-07
1.21698e-07
1.21773e-07
1.21859e-07
1.21929e-07
1.22009e-07
1.22075e-07
1.22148e-07
1.22206e-07
1.22273e-07
1.22326e-07
1.22386e-07
1.22433e-07
1.22487e-07
1.2253e-07
1.22578e-07
1.22616e-07
1.2266e-07
1.22693e-07
1.22734e-07
1.22763e-07
1.22799e-07
1.22827e-07
1.2286e-07
1.22884e-07
1.22913e-07
1.22936e-07
1.22964e-07
1.22984e-07
1.23008e-07
1.23028e-07
1.23052e-07
1.23067e-07
1.23089e-07
1.23106e-07
1.23126e-07
1.2314e-07
1.23156e-07
1.2317e-07
1.23186e-07
1.23198e-07
1.23213e-07
1.23226e-07
1.2324e-07
1.23252e-07
1.23262e-07
1.23277e-07
1.23284e-07
1.23295e-07
1.23299e-07
1.23311e-07
1.23314e-07
1.2332e-07
1.23319e-07
1.2332e-07
1.23335e-07
1.23344e-07
1.23353e-07
1.23359e-07
1.23369e-07
1.23383e-07
1.23396e-07
1.23418e-07
1.23433e-07
1.23459e-07
1.23474e-07
1.23497e-07
1.23513e-07
1.23535e-07
1.23548e-07
1.23569e-07
1.23581e-07
1.23599e-07
1.23612e-07
1.23629e-07
1.23644e-07
1.23659e-07
1.23676e-07
1.23695e-07
1.23712e-07
1.23726e-07
1.23761e-07
1.25e-07
1.28411e-07
1.64343e-08
1.23948e-07
1.22972e-07
1.22238e-07
1.21759e-07
1.21498e-07
1.21368e-07
1.21334e-07
1.21343e-07
1.21394e-07
1.21452e-07
1.21532e-07
1.21605e-07
1.21692e-07
1.21767e-07
1.21852e-07
1.21923e-07
1.22003e-07
1.22068e-07
1.22141e-07
1.222e-07
1.22266e-07
1.22319e-07
1.22379e-07
1.22426e-07
1.22481e-07
1.22523e-07
1.22571e-07
1.22609e-07
1.22653e-07
1.22687e-07
1.22727e-07
1.22756e-07
1.22793e-07
1.2282e-07
1.22854e-07
1.22878e-07
1.22907e-07
1.22929e-07
1.22957e-07
1.22977e-07
1.23001e-07
1.23022e-07
1.23045e-07
1.23061e-07
1.23083e-07
1.23099e-07
1.23119e-07
1.23134e-07
1.2315e-07
1.23163e-07
1.23179e-07
1.23192e-07
1.23206e-07
1.23219e-07
1.23233e-07
1.23245e-07
1.23256e-07
1.23271e-07
1.23278e-07
1.23289e-07
1.23292e-07
1.23304e-07
1.23308e-07
1.23314e-07
1.23313e-07
1.23314e-07
1.23329e-07
1.23338e-07
1.23347e-07
1.23353e-07
1.23363e-07
1.23376e-07
1.2339e-07
1.23411e-07
1.23427e-07
1.23452e-07
1.23467e-07
1.23491e-07
1.23506e-07
1.23529e-07
1.23542e-07
1.23563e-07
1.23574e-07
1.23592e-07
1.23606e-07
1.23622e-07
1.23638e-07
1.23653e-07
1.2367e-07
1.23688e-07
1.23705e-07
1.2372e-07
1.23755e-07
1.25013e-07
1.28413e-07
1.71676e-08
1.23948e-07
1.22972e-07
1.22237e-07
1.21757e-07
1.21495e-07
1.21364e-07
1.21329e-07
1.21338e-07
1.21388e-07
1.21446e-07
1.21525e-07
1.21598e-07
1.21685e-07
1.21759e-07
1.21844e-07
1.21915e-07
1.21995e-07
1.2206e-07
1.22133e-07
1.22192e-07
1.22258e-07
1.22311e-07
1.22371e-07
1.22418e-07
1.22473e-07
1.22515e-07
1.22564e-07
1.22601e-07
1.22645e-07
1.22679e-07
1.22719e-07
1.22748e-07
1.22785e-07
1.22813e-07
1.22846e-07
1.2287e-07
1.22899e-07
1.22922e-07
1.2295e-07
1.2297e-07
1.22994e-07
1.23014e-07
1.23038e-07
1.23053e-07
1.23076e-07
1.23092e-07
1.23112e-07
1.23126e-07
1.23143e-07
1.23156e-07
1.23172e-07
1.23185e-07
1.23199e-07
1.23212e-07
1.23226e-07
1.23238e-07
1.23249e-07
1.23264e-07
1.23271e-07
1.23282e-07
1.23285e-07
1.23297e-07
1.23301e-07
1.23307e-07
1.23306e-07
1.23307e-07
1.23322e-07
1.23331e-07
1.2334e-07
1.23346e-07
1.23356e-07
1.23369e-07
1.23382e-07
1.23404e-07
1.23419e-07
1.23445e-07
1.2346e-07
1.23483e-07
1.23498e-07
1.23521e-07
1.23534e-07
1.23555e-07
1.23567e-07
1.23585e-07
1.23598e-07
1.23615e-07
1.2363e-07
1.23646e-07
1.23662e-07
1.23681e-07
1.23698e-07
1.23713e-07
1.23748e-07
1.25029e-07
1.28415e-07
1.79477e-08
1.23948e-07
1.22972e-07
1.22236e-07
1.21755e-07
1.21492e-07
1.21359e-07
1.21324e-07
1.21331e-07
1.21381e-07
1.21438e-07
1.21517e-07
1.2159e-07
1.21676e-07
1.21751e-07
1.21836e-07
1.21906e-07
1.21986e-07
1.22051e-07
1.22124e-07
1.22183e-07
1.22249e-07
1.22302e-07
1.22362e-07
1.22409e-07
1.22464e-07
1.22506e-07
1.22555e-07
1.22593e-07
1.22636e-07
1.2267e-07
1.2271e-07
1.2274e-07
1.22776e-07
1.22804e-07
1.22838e-07
1.22861e-07
1.22891e-07
1.22913e-07
1.22941e-07
1.22961e-07
1.22985e-07
1.23006e-07
1.23029e-07
1.23045e-07
1.23067e-07
1.23083e-07
1.23103e-07
1.23118e-07
1.23134e-07
1.23148e-07
1.23164e-07
1.23176e-07
1.23191e-07
1.23204e-07
1.23218e-07
1.2323e-07
1.23241e-07
1.23256e-07
1.23263e-07
1.23274e-07
1.23277e-07
1.23289e-07
1.23293e-07
1.23299e-07
1.23298e-07
1.23299e-07
1.23314e-07
1.23323e-07
1.23332e-07
1.23338e-07
1.23348e-07
1.23361e-07
1.23374e-07
1.23396e-07
1.23411e-07
1.23436e-07
1.23451e-07
1.23475e-07
1.2349e-07
1.23513e-07
1.23526e-07
1.23547e-07
1.23558e-07
1.23577e-07
1.2359e-07
1.23607e-07
1.23622e-07
1.23638e-07
1.23654e-07
1.23673e-07
1.2369e-07
1.23704e-07
1.2374e-07
1.25049e-07
1.28417e-07
1.87745e-08
1.23948e-07
1.22973e-07
1.22236e-07
1.21753e-07
1.21488e-07
1.21354e-07
1.21318e-07
1.21324e-07
1.21373e-07
1.2143e-07
1.21508e-07
1.21581e-07
1.21667e-07
1.21741e-07
1.21826e-07
1.21896e-07
1.21976e-07
1.22041e-07
1.22114e-07
1.22173e-07
1.2224e-07
1.22292e-07
1.22353e-07
1.22399e-07
1.22454e-07
1.22496e-07
1.22545e-07
1.22583e-07
1.22627e-07
1.2266e-07
1.22701e-07
1.2273e-07
1.22767e-07
1.22794e-07
1.22828e-07
1.22852e-07
1.22881e-07
1.22904e-07
1.22932e-07
1.22952e-07
1.22976e-07
1.22996e-07
1.2302e-07
1.23035e-07
1.23058e-07
1.23074e-07
1.23094e-07
1.23109e-07
1.23125e-07
1.23139e-07
1.23155e-07
1.23167e-07
1.23182e-07
1.23195e-07
1.23209e-07
1.23221e-07
1.23231e-07
1.23247e-07
1.23254e-07
1.23265e-07
1.23268e-07
1.2328e-07
1.23284e-07
1.2329e-07
1.23289e-07
1.23291e-07
1.23305e-07
1.23314e-07
1.23323e-07
1.23329e-07
1.23339e-07
1.23352e-07
1.23365e-07
1.23386e-07
1.23402e-07
1.23427e-07
1.23442e-07
1.23465e-07
1.2348e-07
1.23503e-07
1.23516e-07
1.23538e-07
1.23549e-07
1.23568e-07
1.23581e-07
1.23598e-07
1.23613e-07
1.23629e-07
1.23645e-07
1.23664e-07
1.2368e-07
1.23695e-07
1.23732e-07
1.25071e-07
1.28419e-07
1.96469e-08
1.23948e-07
1.22973e-07
1.22235e-07
1.21751e-07
1.21484e-07
1.21348e-07
1.21311e-07
1.21316e-07
1.21365e-07
1.2142e-07
1.21499e-07
1.2157e-07
1.21657e-07
1.2173e-07
1.21815e-07
1.21885e-07
1.21965e-07
1.2203e-07
1.22103e-07
1.22162e-07
1.22228e-07
1.22281e-07
1.22341e-07
1.22388e-07
1.22443e-07
1.22485e-07
1.22534e-07
1.22572e-07
1.22616e-07
1.22649e-07
1.2269e-07
1.22719e-07
1.22756e-07
1.22784e-07
1.22817e-07
1.22841e-07
1.22871e-07
1.22893e-07
1.22921e-07
1.22941e-07
1.22965e-07
1.22986e-07
1.2301e-07
1.23025e-07
1.23047e-07
1.23064e-07
1.23084e-07
1.23098e-07
1.23115e-07
1.23128e-07
1.23144e-07
1.23157e-07
1.23172e-07
1.23185e-07
1.23199e-07
1.23211e-07
1.23221e-07
1.23237e-07
1.23244e-07
1.23255e-07
1.23259e-07
1.2327e-07
1.23274e-07
1.2328e-07
1.2328e-07
1.23281e-07
1.23296e-07
1.23304e-07
1.23313e-07
1.2332e-07
1.23329e-07
1.23342e-07
1.23355e-07
1.23376e-07
1.23391e-07
1.23416e-07
1.23431e-07
1.23455e-07
1.2347e-07
1.23493e-07
1.23506e-07
1.23528e-07
1.23539e-07
1.23557e-07
1.23571e-07
1.23588e-07
1.23603e-07
1.23619e-07
1.23635e-07
1.23654e-07
1.2367e-07
1.23685e-07
1.23722e-07
1.25097e-07
1.28421e-07
2.05643e-08
1.23949e-07
1.22973e-07
1.22234e-07
1.21748e-07
1.21479e-07
1.21342e-07
1.21303e-07
1.21308e-07
1.21355e-07
1.2141e-07
1.21488e-07
1.21559e-07
1.21645e-07
1.21719e-07
1.21803e-07
1.21874e-07
1.21953e-07
1.22018e-07
1.22091e-07
1.2215e-07
1.22216e-07
1.22269e-07
1.22329e-07
1.22376e-07
1.22431e-07
1.22473e-07
1.22522e-07
1.2256e-07
1.22604e-07
1.22637e-07
1.22678e-07
1.22707e-07
1.22744e-07
1.22772e-07
1.22806e-07
1.22829e-07
1.22859e-07
1.22881e-07
1.22909e-07
1.2293e-07
1.22954e-07
1.22974e-07
1.22998e-07
1.23014e-07
1.23036e-07
1.23053e-07
1.23073e-07
1.23087e-07
1.23104e-07
1.23117e-07
1.23133e-07
1.23146e-07
1.2316e-07
1.23174e-07
1.23188e-07
1.232e-07
1.2321e-07
1.23226e-07
1.23233e-07
1.23244e-07
1.23248e-07
1.2326e-07
1.23263e-07
1.23269e-07
1.23269e-07
1.2327e-07
1.23285e-07
1.23293e-07
1.23303e-07
1.23309e-07
1.23318e-07
1.2333e-07
1.23344e-07
1.23365e-07
1.2338e-07
1.23405e-07
1.2342e-07
1.23443e-07
1.23458e-07
1.23481e-07
1.23495e-07
1.23516e-07
1.23528e-07
1.23546e-07
1.23559e-07
1.23577e-07
1.23592e-07
1.23608e-07
1.23624e-07
1.23643e-07
1.23659e-07
1.23674e-07
1.23712e-07
1.25126e-07
1.28423e-07
2.1529e-08
1.23949e-07
1.22973e-07
1.22233e-07
1.21745e-07
1.21474e-07
1.21335e-07
1.21295e-07
1.21298e-07
1.21345e-07
1.21399e-07
1.21476e-07
1.21547e-07
1.21633e-07
1.21706e-07
1.21791e-07
1.2186e-07
1.2194e-07
1.22005e-07
1.22078e-07
1.22136e-07
1.22203e-07
1.22256e-07
1.22316e-07
1.22363e-07
1.22418e-07
1.2246e-07
1.22509e-07
1.22547e-07
1.22591e-07
1.22624e-07
1.22665e-07
1.22695e-07
1.22731e-07
1.22759e-07
1.22793e-07
1.22817e-07
1.22846e-07
1.22869e-07
1.22897e-07
1.22917e-07
1.22941e-07
1.22962e-07
1.22986e-07
1.23001e-07
1.23024e-07
1.2304e-07
1.2306e-07
1.23075e-07
1.23092e-07
1.23105e-07
1.23121e-07
1.23134e-07
1.23148e-07
1.23162e-07
1.23176e-07
1.23188e-07
1.23198e-07
1.23214e-07
1.23221e-07
1.23232e-07
1.23236e-07
1.23248e-07
1.23252e-07
1.23258e-07
1.23258e-07
1.23259e-07
1.23273e-07
1.23282e-07
1.23291e-07
1.23297e-07
1.23306e-07
1.23318e-07
1.23332e-07
1.23353e-07
1.23368e-07
1.23393e-07
1.23407e-07
1.23431e-07
1.23446e-07
1.23469e-07
1.23482e-07
1.23504e-07
1.23515e-07
1.23534e-07
1.23547e-07
1.23565e-07
1.2358e-07
1.23596e-07
1.23612e-07
1.23631e-07
1.23647e-07
1.23661e-07
1.237e-07
1.25158e-07
1.28425e-07
2.25441e-08
1.23949e-07
1.22974e-07
1.22232e-07
1.21742e-07
1.21469e-07
1.21328e-07
1.21286e-07
1.21288e-07
1.21334e-07
1.21387e-07
1.21464e-07
1.21534e-07
1.21619e-07
1.21692e-07
1.21777e-07
1.21846e-07
1.21926e-07
1.2199e-07
1.22064e-07
1.22122e-07
1.22189e-07
1.22241e-07
1.22302e-07
1.22349e-07
1.22403e-07
1.22446e-07
1.22495e-07
1.22532e-07
1.22577e-07
1.2261e-07
1.22651e-07
1.2268e-07
1.22717e-07
1.22745e-07
1.22779e-07
1.22803e-07
1.22833e-07
1.22855e-07
1.22883e-07
1.22904e-07
1.22928e-07
1.22948e-07
1.22972e-07
1.22988e-07
1.2301e-07
1.23027e-07
1.23047e-07
1.23062e-07
1.23078e-07
1.23092e-07
1.23108e-07
1.23121e-07
1.23135e-07
1.23149e-07
1.23163e-07
1.23175e-07
1.23185e-07
1.23201e-07
1.23208e-07
1.23219e-07
1.23223e-07
1.23235e-07
1.23239e-07
1.23245e-07
1.23245e-07
1.23246e-07
1.23261e-07
1.23269e-07
1.23278e-07
1.23285e-07
1.23293e-07
1.23306e-07
1.23319e-07
1.23339e-07
1.23354e-07
1.23379e-07
1.23394e-07
1.23417e-07
1.23432e-07
1.23455e-07
1.23469e-07
1.2349e-07
1.23502e-07
1.23521e-07
1.23534e-07
1.23551e-07
1.23566e-07
1.23582e-07
1.23598e-07
1.23618e-07
1.23634e-07
1.23648e-07
1.23688e-07
1.25195e-07
1.28426e-07
2.36127e-08
1.23949e-07
1.22974e-07
1.22231e-07
1.21739e-07
1.21464e-07
1.2132e-07
1.21277e-07
1.21277e-07
1.21321e-07
1.21374e-07
1.2145e-07
1.2152e-07
1.21605e-07
1.21677e-07
1.21761e-07
1.21831e-07
1.21911e-07
1.21975e-07
1.22048e-07
1.22106e-07
1.22173e-07
1.22226e-07
1.22286e-07
1.22333e-07
1.22388e-07
1.2243e-07
1.22479e-07
1.22517e-07
1.22561e-07
1.22595e-07
1.22636e-07
1.22665e-07
1.22702e-07
1.2273e-07
1.22764e-07
1.22788e-07
1.22818e-07
1.2284e-07
1.22868e-07
1.22889e-07
1.22913e-07
1.22934e-07
1.22958e-07
1.22973e-07
1.22996e-07
1.23012e-07
1.23033e-07
1.23047e-07
1.23064e-07
1.23077e-07
1.23094e-07
1.23107e-07
1.23121e-07
1.23134e-07
1.23148e-07
1.23161e-07
1.23171e-07
1.23187e-07
1.23194e-07
1.23205e-07
1.23209e-07
1.23221e-07
1.23225e-07
1.23232e-07
1.23232e-07
1.23233e-07
1.23247e-07
1.23256e-07
1.23265e-07
1.23271e-07
1.2328e-07
1.23291e-07
1.23305e-07
1.23325e-07
1.2334e-07
1.23365e-07
1.23379e-07
1.23403e-07
1.23417e-07
1.2344e-07
1.23454e-07
1.23476e-07
1.23488e-07
1.23507e-07
1.23519e-07
1.23537e-07
1.23552e-07
1.23568e-07
1.23584e-07
1.23604e-07
1.23619e-07
1.23634e-07
1.23674e-07
1.25235e-07
1.28426e-07
2.47381e-08
1.23949e-07
1.22974e-07
1.2223e-07
1.21736e-07
1.21457e-07
1.21312e-07
1.21266e-07
1.21265e-07
1.21308e-07
1.2136e-07
1.21435e-07
1.21505e-07
1.21589e-07
1.21661e-07
1.21745e-07
1.21814e-07
1.21894e-07
1.21958e-07
1.22031e-07
1.22089e-07
1.22156e-07
1.22209e-07
1.22269e-07
1.22316e-07
1.22371e-07
1.22413e-07
1.22463e-07
1.225e-07
1.22545e-07
1.22579e-07
1.22619e-07
1.22649e-07
1.22686e-07
1.22714e-07
1.22748e-07
1.22772e-07
1.22802e-07
1.22824e-07
1.22852e-07
1.22873e-07
1.22897e-07
1.22918e-07
1.22942e-07
1.22958e-07
1.2298e-07
1.22997e-07
1.23017e-07
1.23032e-07
1.23049e-07
1.23062e-07
1.23078e-07
1.23091e-07
1.23106e-07
1.23119e-07
1.23133e-07
1.23146e-07
1.23156e-07
1.23172e-07
1.23179e-07
1.2319e-07
1.23194e-07
1.23206e-07
1.2321e-07
1.23217e-07
1.23217e-07
1.23218e-07
1.23232e-07
1.23241e-07
1.2325e-07
1.23256e-07
1.23265e-07
1.23276e-07
1.2329e-07
1.2331e-07
1.23324e-07
1.23349e-07
1.23364e-07
1.23387e-07
1.23401e-07
1.23424e-07
1.23439e-07
1.2346e-07
1.23472e-07
1.23491e-07
1.23504e-07
1.23522e-07
1.23537e-07
1.23553e-07
1.23569e-07
1.23588e-07
1.23604e-07
1.23618e-07
1.2366e-07
1.2528e-07
1.28425e-07
2.59239e-08
1.2395e-07
1.22975e-07
1.22229e-07
1.21732e-07
1.21451e-07
1.21303e-07
1.21255e-07
1.21252e-07
1.21294e-07
1.21345e-07
1.2142e-07
1.21488e-07
1.21572e-07
1.21644e-07
1.21728e-07
1.21797e-07
1.21876e-07
1.2194e-07
1.22013e-07
1.22071e-07
1.22138e-07
1.22191e-07
1.22251e-07
1.22298e-07
1.22353e-07
1.22395e-07
1.22445e-07
1.22483e-07
1.22527e-07
1.22561e-07
1.22602e-07
1.22631e-07
1.22668e-07
1.22696e-07
1.2273e-07
1.22755e-07
1.22784e-07
1.22807e-07
1.22835e-07
1.22856e-07
1.2288e-07
1.22901e-07
1.22925e-07
1.22941e-07
1.22963e-07
1.2298e-07
1.23e-07
1.23015e-07
1.23032e-07
1.23046e-07
1.23062e-07
1.23075e-07
1.23089e-07
1.23103e-07
1.23117e-07
1.2313e-07
1.2314e-07
1.23155e-07
1.23163e-07
1.23174e-07
1.23178e-07
1.2319e-07
1.23194e-07
1.23201e-07
1.23202e-07
1.23202e-07
1.23216e-07
1.23225e-07
1.23234e-07
1.23241e-07
1.23249e-07
1.2326e-07
1.23274e-07
1.23293e-07
1.23308e-07
1.23332e-07
1.23347e-07
1.2337e-07
1.23384e-07
1.23407e-07
1.23422e-07
1.23444e-07
1.23455e-07
1.23475e-07
1.23487e-07
1.23506e-07
1.2352e-07
1.23537e-07
1.23552e-07
1.23572e-07
1.23587e-07
1.23602e-07
1.23645e-07
1.25328e-07
1.28422e-07
2.71736e-08
1.2395e-07
1.22975e-07
1.22228e-07
1.21728e-07
1.21444e-07
1.21293e-07
1.21243e-07
1.21239e-07
1.21279e-07
1.21329e-07
1.21403e-07
1.21471e-07
1.21554e-07
1.21626e-07
1.21709e-07
1.21778e-07
1.21857e-07
1.21921e-07
1.21994e-07
1.22052e-07
1.22119e-07
1.22171e-07
1.22232e-07
1.22279e-07
1.22334e-07
1.22376e-07
1.22426e-07
1.22464e-07
1.22508e-07
1.22542e-07
1.22583e-07
1.22613e-07
1.2265e-07
1.22678e-07
1.22712e-07
1.22736e-07
1.22766e-07
1.22789e-07
1.22817e-07
1.22838e-07
1.22862e-07
1.22883e-07
1.22907e-07
1.22923e-07
1.22945e-07
1.22962e-07
1.22982e-07
1.22997e-07
1.23014e-07
1.23028e-07
1.23044e-07
1.23057e-07
1.23072e-07
1.23085e-07
1.23099e-07
1.23112e-07
1.23123e-07
1.23138e-07
1.23145e-07
1.23157e-07
1.23161e-07
1.23173e-07
1.23178e-07
1.23184e-07
1.23185e-07
1.23186e-07
1.23199e-07
1.23208e-07
1.23218e-07
1.23224e-07
1.23232e-07
1.23243e-07
1.23256e-07
1.23275e-07
1.2329e-07
1.23314e-07
1.23329e-07
1.23352e-07
1.23366e-07
1.23389e-07
1.23404e-07
1.23426e-07
1.23438e-07
1.23457e-07
1.2347e-07
1.23488e-07
1.23502e-07
1.23519e-07
1.23535e-07
1.23555e-07
1.2357e-07
1.23584e-07
1.23628e-07
1.2538e-07
1.27676e-07
2.8491e-08
1.2395e-07
1.22975e-07
1.22227e-07
1.21724e-07
1.21437e-07
1.21283e-07
1.21231e-07
1.21224e-07
1.21264e-07
1.21312e-07
1.21385e-07
1.21452e-07
1.21535e-07
1.21606e-07
1.21689e-07
1.21758e-07
1.21837e-07
1.21901e-07
1.21974e-07
1.22032e-07
1.22098e-07
1.22151e-07
1.22212e-07
1.22259e-07
1.22314e-07
1.22356e-07
1.22405e-07
1.22443e-07
1.22488e-07
1.22522e-07
1.22563e-07
1.22593e-07
1.2263e-07
1.22658e-07
1.22692e-07
1.22716e-07
1.22746e-07
1.22769e-07
1.22798e-07
1.22818e-07
1.22843e-07
1.22863e-07
1.22888e-07
1.22904e-07
1.22926e-07
1.22943e-07
1.22963e-07
1.22978e-07
1.22995e-07
1.23009e-07
1.23025e-07
1.23039e-07
1.23053e-07
1.23067e-07
1.23081e-07
1.23094e-07
1.23104e-07
1.23119e-07
1.23127e-07
1.23139e-07
1.23143e-07
1.23155e-07
1.23159e-07
1.23166e-07
1.23167e-07
1.23168e-07
1.23181e-07
1.2319e-07
1.232e-07
1.23206e-07
1.23214e-07
1.23225e-07
1.23238e-07
1.23256e-07
1.23271e-07
1.23295e-07
1.2331e-07
1.23333e-07
1.23347e-07
1.2337e-07
1.23384e-07
1.23406e-07
1.23418e-07
1.23438e-07
1.23451e-07
1.2347e-07
1.23484e-07
1.23501e-07
1.23516e-07
1.23536e-07
1.23551e-07
1.23565e-07
1.23611e-07
1.25437e-07
1.21199e-07
2.988e-08
1.23951e-07
1.22976e-07
1.22225e-07
1.2172e-07
1.21429e-07
1.21273e-07
1.21218e-07
1.21209e-07
1.21247e-07
1.21294e-07
1.21366e-07
1.21432e-07
1.21514e-07
1.21585e-07
1.21668e-07
1.21736e-07
1.21815e-07
1.21879e-07
1.21952e-07
1.2201e-07
1.22077e-07
1.22129e-07
1.2219e-07
1.22237e-07
1.22292e-07
1.22334e-07
1.22384e-07
1.22422e-07
1.22466e-07
1.225e-07
1.22541e-07
1.22571e-07
1.22609e-07
1.22637e-07
1.22671e-07
1.22695e-07
1.22725e-07
1.22748e-07
1.22777e-07
1.22797e-07
1.22822e-07
1.22843e-07
1.22867e-07
1.22883e-07
1.22906e-07
1.22923e-07
1.22943e-07
1.22958e-07
1.22975e-07
1.22989e-07
1.23005e-07
1.23019e-07
1.23033e-07
1.23047e-07
1.23061e-07
1.23074e-07
1.23084e-07
1.231e-07
1.23107e-07
1.23119e-07
1.23124e-07
1.23136e-07
1.2314e-07
1.23147e-07
1.23148e-07
1.23149e-07
1.23162e-07
1.23171e-07
1.23181e-07
1.23187e-07
1.23195e-07
1.23205e-07
1.23218e-07
1.23236e-07
1.23251e-07
1.23275e-07
1.23289e-07
1.23312e-07
1.23326e-07
1.23349e-07
1.23364e-07
1.23386e-07
1.23398e-07
1.23418e-07
1.23431e-07
1.2345e-07
1.23464e-07
1.23481e-07
1.23496e-07
1.23517e-07
1.23531e-07
1.23545e-07
1.23593e-07
1.25498e-07
1.15398e-07
3.13444e-08
1.23951e-07
1.22976e-07
1.22224e-07
1.21715e-07
1.21421e-07
1.21261e-07
1.21204e-07
1.21193e-07
1.21229e-07
1.21275e-07
1.21346e-07
1.21411e-07
1.21493e-07
1.21563e-07
1.21646e-07
1.21713e-07
1.21792e-07
1.21856e-07
1.21929e-07
1.21986e-07
1.22053e-07
1.22106e-07
1.22167e-07
1.22213e-07
1.22269e-07
1.22311e-07
1.22361e-07
1.22399e-07
1.22444e-07
1.22477e-07
1.22519e-07
1.22549e-07
1.22586e-07
1.22614e-07
1.22649e-07
1.22673e-07
1.22703e-07
1.22726e-07
1.22755e-07
1.22776e-07
1.228e-07
1.22821e-07
1.22846e-07
1.22861e-07
1.22884e-07
1.22901e-07
1.22922e-07
1.22937e-07
1.22954e-07
1.22968e-07
1.22984e-07
1.22997e-07
1.23012e-07
1.23026e-07
1.2304e-07
1.23053e-07
1.23063e-07
1.23079e-07
1.23087e-07
1.23098e-07
1.23103e-07
1.23115e-07
1.2312e-07
1.23127e-07
1.23128e-07
1.23129e-07
1.23142e-07
1.23151e-07
1.2316e-07
1.23167e-07
1.23175e-07
1.23185e-07
1.23197e-07
1.23215e-07
1.2323e-07
1.23253e-07
1.23268e-07
1.23291e-07
1.23305e-07
1.23328e-07
1.23342e-07
1.23364e-07
1.23377e-07
1.23397e-07
1.23409e-07
1.23429e-07
1.23442e-07
1.2346e-07
1.23475e-07
1.23496e-07
1.2351e-07
1.23524e-07
1.23573e-07
1.25562e-07
1.10208e-07
3.28877e-08
1.23951e-07
1.22977e-07
1.22223e-07
1.2171e-07
1.21413e-07
1.21249e-07
1.21189e-07
1.21176e-07
1.2121e-07
1.21254e-07
1.21324e-07
1.21389e-07
1.2147e-07
1.2154e-07
1.21622e-07
1.21689e-07
1.21768e-07
1.21831e-07
1.21904e-07
1.21962e-07
1.22029e-07
1.22081e-07
1.22142e-07
1.22189e-07
1.22244e-07
1.22287e-07
1.22336e-07
1.22374e-07
1.22419e-07
1.22453e-07
1.22495e-07
1.22525e-07
1.22562e-07
1.2259e-07
1.22625e-07
1.22649e-07
1.2268e-07
1.22703e-07
1.22731e-07
1.22752e-07
1.22777e-07
1.22798e-07
1.22822e-07
1.22838e-07
1.22861e-07
1.22878e-07
1.22899e-07
1.22914e-07
1.22931e-07
1.22945e-07
1.22962e-07
1.22975e-07
1.2299e-07
1.23003e-07
1.23018e-07
1.23031e-07
1.23041e-07
1.23057e-07
1.23065e-07
1.23076e-07
1.23081e-07
1.23093e-07
1.23098e-07
1.23105e-07
1.23107e-07
1.23107e-07
1.2312e-07
1.23129e-07
1.23139e-07
1.23145e-07
1.23153e-07
1.23163e-07
1.23175e-07
1.23192e-07
1.23207e-07
1.2323e-07
1.23245e-07
1.23268e-07
1.23282e-07
1.23304e-07
1.23319e-07
1.23341e-07
1.23354e-07
1.23374e-07
1.23387e-07
1.23406e-07
1.2342e-07
1.23438e-07
1.23452e-07
1.23474e-07
1.23487e-07
1.23501e-07
1.23552e-07
1.25629e-07
1.05564e-07
3.45134e-08
1.23952e-07
1.22977e-07
1.22221e-07
1.21705e-07
1.21404e-07
1.21237e-07
1.21174e-07
1.21158e-07
1.2119e-07
1.21233e-07
1.21302e-07
1.21365e-07
1.21446e-07
1.21515e-07
1.21597e-07
1.21664e-07
1.21742e-07
1.21805e-07
1.21878e-07
1.21936e-07
1.22003e-07
1.22055e-07
1.22116e-07
1.22163e-07
1.22218e-07
1.22261e-07
1.22311e-07
1.22349e-07
1.22394e-07
1.22428e-07
1.22469e-07
1.22499e-07
1.22537e-07
1.22565e-07
1.226e-07
1.22624e-07
1.22655e-07
1.22678e-07
1.22707e-07
1.22728e-07
1.22753e-07
1.22773e-07
1.22798e-07
1.22814e-07
1.22837e-07
1.22854e-07
1.22875e-07
1.2289e-07
1.22907e-07
1.22921e-07
1.22938e-07
1.22951e-07
1.22966e-07
1.2298e-07
1.22994e-07
1.23007e-07
1.23018e-07
1.23033e-07
1.23041e-07
1.23053e-07
1.23058e-07
1.2307e-07
1.23075e-07
1.23082e-07
1.23084e-07
1.23085e-07
1.23098e-07
1.23106e-07
1.23116e-07
1.23123e-07
1.23131e-07
1.2314e-07
1.23152e-07
1.23168e-07
1.23184e-07
1.23206e-07
1.23221e-07
1.23244e-07
1.23257e-07
1.2328e-07
1.23294e-07
1.23317e-07
1.2333e-07
1.2335e-07
1.23363e-07
1.23383e-07
1.23396e-07
1.23414e-07
1.23428e-07
1.2345e-07
1.23463e-07
1.23478e-07
1.2353e-07
1.25697e-07
1.0141e-07
3.62243e-08
1.23952e-07
1.22978e-07
1.2222e-07
1.217e-07
1.21395e-07
1.21224e-07
1.21158e-07
1.21139e-07
1.2117e-07
1.21211e-07
1.21278e-07
1.21341e-07
1.21421e-07
1.21489e-07
1.2157e-07
1.21637e-07
1.21715e-07
1.21778e-07
1.21851e-07
1.21908e-07
1.21975e-07
1.22027e-07
1.22089e-07
1.22136e-07
1.22191e-07
1.22233e-07
1.22283e-07
1.22321e-07
1.22367e-07
1.22401e-07
1.22443e-07
1.22473e-07
1.2251e-07
1.22539e-07
1.22573e-07
1.22598e-07
1.22629e-07
1.22652e-07
1.22681e-07
1.22702e-07
1.22727e-07
1.22747e-07
1.22772e-07
1.22788e-07
1.22811e-07
1.22828e-07
1.22849e-07
1.22865e-07
1.22882e-07
1.22896e-07
1.22913e-07
1.22926e-07
1.22941e-07
1.22955e-07
1.22969e-07
1.22982e-07
1.22993e-07
1.23008e-07
1.23017e-07
1.23029e-07
1.23034e-07
1.23046e-07
1.23051e-07
1.23058e-07
1.2306e-07
1.23061e-07
1.23073e-07
1.23082e-07
1.23092e-07
1.23099e-07
1.23107e-07
1.23116e-07
1.23128e-07
1.23143e-07
1.23159e-07
1.23181e-07
1.23195e-07
1.23218e-07
1.23232e-07
1.23254e-07
1.23268e-07
1.23291e-07
1.23304e-07
1.23325e-07
1.23337e-07
1.23358e-07
1.23371e-07
1.23389e-07
1.23403e-07
1.23425e-07
1.23438e-07
1.23452e-07
1.23507e-07
1.25767e-07
9.76967e-08
3.80226e-08
1.23952e-07
1.22978e-07
1.22218e-07
1.21695e-07
1.21385e-07
1.21211e-07
1.21141e-07
1.2112e-07
1.21148e-07
1.21187e-07
1.21253e-07
1.21315e-07
1.21394e-07
1.21462e-07
1.21543e-07
1.21609e-07
1.21687e-07
1.2175e-07
1.21822e-07
1.2188e-07
1.21947e-07
1.21999e-07
1.2206e-07
1.22107e-07
1.22162e-07
1.22205e-07
1.22255e-07
1.22293e-07
1.22338e-07
1.22372e-07
1.22414e-07
1.22444e-07
1.22482e-07
1.2251e-07
1.22545e-07
1.2257e-07
1.22601e-07
1.22624e-07
1.22653e-07
1.22674e-07
1.22699e-07
1.2272e-07
1.22745e-07
1.22761e-07
1.22784e-07
1.22801e-07
1.22822e-07
1.22838e-07
1.22856e-07