/*--------------------------------*- C++ -*----------------------------------*\
| =========                 |                                                 |
| \\      /  F ield         | OpenFOAM: The Open Source CFD Toolbox           |
|  \\    /   O peration     | Version:  v2012                                 |
|   \\  /    A nd           | Website:  www.openfoam.com                      |
|    \\/     M anipulation  |                                                 |
\*---------------------------------------------------------------------------*/
FoamFile
{
    version     2.0;
    format      ascii;
    class       volScalarField;
    location    "36.5";
    object      omega;
}
// * * * * * * * * * * * * * * * * * * * * * * * * * * * * * * * * * * * * * //

dimensions      [0 0 -1 0 0 0 0];


internalField   nonuniform List<scalar> 
209825
(
8261.16
7565.79
7000.38
6554.94
6208.87
5940.15
5728.74
5560.44
5423.86
5312.01
5218.61
5140.38
5073.52
5016.56
4966.93
4924.14
4886.22
4853.24
4823.59
4797.64
4773.98
4753.21
4734.03
4717.15
4701.37
4687.52
4674.38
4662.87
4651.81
4642.17
4632.79
4624.65
4616.62
4609.71
4602.79
4596.9
4590.92
4585.86
4580.65
4576.29
4571.78
4567.98
4564.01
4560.77
4557.27
4554.44
4551.35
4548.87
4546.21
4544.05
4541.75
4539.93
4537.92
4536.21
4534.5
4533.03
4531.51
4530.2
4528.87
4527.84
4526.78
4525.86
4524.9
4524.24
4523.38
4522.76
4522
4521.57
4520.98
4520.68
4520.14
4519.88
4519.38
4519.13
4518.64
4518.42
4518.04
4517.89
4517.57
4517.54
4517.45
4517.56
4517.56
4517.87
4517.88
4518.42
4518.42
4519.18
4519.18
4520.1
4520.12
4521.3
4521.94
4552.36
4666.98
113333
8261.16
7565.79
7000.38
6554.93
6208.85
5940.12
5728.69
5560.38
5423.8
5311.93
5218.53
5140.29
5073.43
5016.46
4966.83
4924.03
4886.11
4853.13
4823.47
4797.52
4773.86
4753.09
4733.9
4717.03
4701.24
4687.39
4674.25
4662.73
4651.68
4642.04
4632.65
4624.52
4616.49
4609.57
4602.65
4596.76
4590.78
4585.72
4580.5
4576.15
4571.63
4567.84
4563.86
4560.63
4557.13
4554.3
4551.21
4548.73
4546.06
4543.9
4541.6
4539.79
4537.78
4536.07
4534.35
4532.88
4531.36
4530.05
4528.72
4527.69
4526.63
4525.71
4524.75
4524.09
4523.23
4522.61
4521.85
4521.42
4520.83
4520.53
4519.99
4519.73
4519.23
4518.98
4518.49
4518.27
4517.88
4517.74
4517.42
4517.39
4517.29
4517.41
4517.41
4517.72
4517.72
4518.26
4518.26
4519.03
4519.03
4519.95
4519.96
4521.15
4521.79
4552.26
4666.86
110035
8261.16
7565.8
7000.38
6554.9
6208.78
5940
5728.54
5560.19
5423.57
5311.68
5218.26
5140
5073.11
5016.13
4966.49
4923.68
4885.75
4852.75
4823.08
4797.12
4773.45
4752.68
4733.49
4716.61
4700.82
4686.96
4673.82
4662.3
4651.24
4641.59
4632.2
4624.07
4616.03
4609.12
4602.19
4596.3
4590.32
4585.26
4580.04
4575.68
4571.16
4567.37
4563.39
4560.15
4556.66
4553.82
4550.73
4548.25
4545.58
4543.42
4541.12
4539.31
4537.29
4535.58
4533.87
4532.39
4530.87
4529.56
4528.24
4527.2
4526.14
4525.22
4524.26
4523.6
4522.73
4522.12
4521.36
4520.93
4520.33
4520.03
4519.5
4519.23
4518.73
4518.49
4518
4517.77
4517.39
4517.24
4516.92
4516.89
4516.79
4516.91
4516.9
4517.22
4517.22
4517.76
4517.76
4518.53
4518.53
4519.44
4519.46
4520.64
4521.28
4551.86
4666.42
106249
8261.17
7565.81
7000.37
6554.84
6208.65
5939.8
5728.27
5559.86
5423.19
5311.25
5217.79
5139.49
5072.57
5015.57
4965.9
4923.06
4885.11
4852.1
4822.42
4796.45
4772.76
4751.98
4732.78
4715.89
4700.09
4686.22
4673.08
4661.55
4650.48
4640.83
4631.44
4623.29
4615.26
4608.34
4601.41
4595.51
4589.52
4584.46
4579.24
4574.88
4570.36
4566.56
4562.58
4559.34
4555.84
4553.01
4549.91
4547.43
4544.76
4542.6
4540.3
4538.48
4536.46
4534.75
4533.04
4531.56
4530.04
4528.73
4527.4
4526.36
4525.3
4524.38
4523.42
4522.75
4521.89
4521.27
4520.51
4520.08
4519.49
4519.19
4518.65
4518.38
4517.88
4517.64
4517.15
4516.92
4516.54
4516.39
4516.07
4516.04
4515.94
4516.05
4516.05
4516.36
4516.36
4516.9
4516.9
4517.66
4517.66
4518.58
4518.59
4519.78
4520.42
4551.17
4665.66
102356
8261.17
7565.83
7000.37
6554.76
6208.47
5939.52
5727.88
5559.39
5422.64
5310.63
5217.11
5138.76
5071.8
5014.76
4965.05
4922.19
4884.21
4851.18
4821.47
4795.48
4771.78
4750.98
4731.76
4714.86
4699.05
4685.17
4672.02
4660.48
4649.4
4639.75
4630.34
4622.19
4614.15
4607.22
4600.29
4594.39
4588.4
4583.33
4578.1
4573.74
4569.21
4565.41
4561.43
4558.18
4554.68
4551.84
4548.75
4546.26
4543.59
4541.43
4539.12
4537.3
4535.28
4533.57
4531.85
4530.38
4528.85
4527.54
4526.21
4525.17
4524.11
4523.18
4522.22
4521.55
4520.69
4520.07
4519.31
4518.88
4518.28
4517.98
4517.44
4517.17
4516.68
4516.43
4515.94
4515.71
4515.32
4515.17
4514.86
4514.82
4514.72
4514.83
4514.82
4515.13
4515.13
4515.67
4515.67
4516.43
4516.43
4517.34
4517.36
4518.54
4519.18
4550.17
4664.58
98460.4
8261.17
7565.86
7000.36
6554.65
6208.23
5939.14
5727.38
5558.77
5421.92
5309.83
5216.23
5137.82
5070.8
5013.7
4963.95
4921.05
4883.04
4849.97
4820.24
4794.22
4770.5
4749.68
4730.44
4713.52
4697.7
4683.8
4670.63
4659.08
4647.99
4638.33
4628.92
4620.76
4612.7
4605.77
4598.83
4592.92
4586.92
4581.85
4576.62
4572.25
4567.72
4563.91
4559.92
4556.68
4553.17
4550.33
4547.23
4544.74
4542.06
4539.9
4537.59
4535.76
4533.75
4532.03
4530.31
4528.83
4527.3
4525.99
4524.65
4523.61
4522.55
4521.62
4520.66
4519.99
4519.12
4518.51
4517.74
4517.31
4516.71
4516.41
4515.86
4515.6
4515.1
4514.85
4514.36
4514.13
4513.74
4513.59
4513.27
4513.24
4513.13
4513.24
4513.23
4513.54
4513.54
4514.07
4514.07
4514.82
4514.83
4515.73
4515.75
4516.93
4517.58
4548.87
4663.16
94601.8
8261.18
7565.9
7000.35
6554.52
6207.94
5938.68
5726.76
5558
5421.03
5308.83
5215.14
5136.64
5069.55
5012.4
4962.59
4919.64
4881.59
4848.48
4818.71
4792.66
4768.91
4748.07
4728.8
4711.86
4696.02
4682.11
4668.92
4657.36
4646.25
4636.58
4627.15
4618.98
4610.92
4603.98
4597.02
4591.11
4585.1
4580.02
4574.78
4570.41
4565.87
4562.06
4558.06
4554.81
4551.3
4548.45
4545.34
4542.85
4540.17
4538
4535.69
4533.86
4531.84
4530.12
4528.39
4526.91
4525.38
4524.07
4522.73
4521.69
4520.62
4519.69
4518.73
4518.05
4517.18
4516.57
4515.8
4515.36
4514.76
4514.46
4513.91
4513.64
4513.15
4512.9
4512.4
4512.17
4511.78
4511.63
4511.31
4511.28
4511.16
4511.27
4511.26
4511.56
4511.56
4512.08
4512.08
4512.84
4512.84
4513.74
4513.75
4514.94
4515.59
4547.25
4661.41
90799.4
8261.19
7565.94
7000.34
6554.36
6207.59
5938.13
5726.02
5557.09
5419.97
5307.64
5213.84
5135.24
5068.07
5010.84
4960.97
4917.96
4879.85
4846.7
4816.89
4790.8
4767.02
4746.14
4726.85
4709.88
4694.01
4680.08
4666.88
4655.29
4644.17
4634.48
4625.04
4616.86
4608.78
4601.83
4594.86
4588.94
4582.92
4577.83
4572.58
4568.2
4563.65
4559.84
4555.83
4552.57
4549.05
4546.2
4543.09
4540.59
4537.91
4535.74
4533.42
4531.58
4529.56
4527.83
4526.11
4524.62
4523.09
4521.77
4520.43
4519.38
4518.31
4517.38
4516.41
4515.74
4514.87
4514.24
4513.47
4513.04
4512.43
4512.13
4511.58
4511.31
4510.81
4510.56
4510.06
4509.83
4509.44
4509.29
4508.97
4508.93
4508.8
4508.91
4508.9
4509.19
4509.19
4509.71
4509.71
4510.46
4510.46
4511.36
4511.37
4512.55
4513.21
4545.33
4659.33
87061.9
8261.19
7565.99
7000.32
6554.18
6207.18
5937.49
5725.15
5556.03
5418.74
5306.26
5212.32
5133.61
5066.34
5009.02
4959.07
4915.99
4877.82
4844.62
4814.76
4788.63
4764.8
4743.89
4724.57
4707.57
4691.67
4677.72
4664.49
4652.88
4641.74
4632.03
4622.57
4614.38
4606.28
4599.32
4592.34
4586.4
4580.37
4575.28
4570.01
4565.62
4561.07
4557.24
4553.23
4549.97
4546.44
4543.58
4540.46
4537.96
4535.27
4533.09
4530.76
4528.93
4526.9
4525.17
4523.43
4521.95
4520.41
4519.09
4517.74
4516.69
4515.61
4514.68
4513.71
4513.03
4512.16
4511.53
4510.76
4510.32
4509.71
4509.4
4508.86
4508.58
4508.08
4507.83
4507.33
4507.1
4506.71
4506.55
4506.23
4506.19
4506.06
4506.16
4506.14
4506.43
4506.43
4506.94
4506.94
4507.68
4507.68
4508.58
4508.58
4509.76
4510.43
4543.09
4656.92
83392.2
8261.2
7566.04
7000.31
6553.98
6206.72
5936.76
5724.17
5554.82
5417.32
5304.67
5210.58
5131.75
5064.35
5006.94
4956.9
4913.74
4875.5
4842.23
4812.32
4786.14
4762.27
4741.31
4721.95
4704.92
4688.99
4675.01
4661.75
4650.12
4638.96
4629.23
4619.75
4611.53
4603.42
4596.44
4589.45
4583.5
4577.46
4572.35
4567.07
4562.67
4558.11
4554.27
4550.25
4546.98
4543.44
4540.58
4537.45
4534.94
4532.24
4530.06
4527.72
4525.88
4523.85
4522.11
4520.37
4518.88
4517.34
4516.01
4514.66
4513.61
4512.52
4511.59
4510.61
4509.93
4509.05
4508.43
4507.65
4507.21
4506.6
4506.28
4505.73
4505.46
4504.96
4504.7
4504.2
4503.97
4503.57
4503.42
4503.09
4503.04
4502.9
4503
4502.98
4503.26
4503.26
4503.77
4503.77
4504.5
4504.5
4505.39
4505.39
4506.57
4507.24
4540.52
4654.17
79788.4
8261.21
7566.1
7000.3
6553.75
6206.2
5935.93
5723.06
5553.46
5415.73
5302.88
5208.63
5129.64
5062.12
5004.59
4954.45
4911.2
4872.88
4839.55
4809.56
4783.33
4759.4
4738.4
4719
4701.93
4685.96
4671.95
4658.66
4647
4635.81
4626.06
4616.56
4608.32
4600.19
4593.2
4586.18
4580.22
4574.16
4569.04
4563.75
4559.34
4554.76
4550.92
4546.88
4543.6
4540.06
4537.18
4534.05
4531.53
4528.82
4526.63
4524.29
4522.44
4520.4
4518.66
4516.91
4515.42
4513.87
4512.54
4511.18
4510.12
4509.03
4508.1
4507.11
4506.43
4505.55
4504.92
4504.14
4503.69
4503.07
4502.76
4502.2
4501.93
4501.42
4501.17
4500.67
4500.43
4500.03
4499.87
4499.55
4499.49
4499.34
4499.44
4499.41
4499.69
4499.69
4500.18
4500.18
4500.9
4500.9
4501.78
4501.79
4502.96
4503.65
4537.63
4651.08
76244.7
8261.22
7566.17
7000.28
6553.49
6205.63
5935.02
5721.83
5551.94
5413.96
5300.89
5206.44
5127.29
5059.62
5001.96
4951.71
4908.37
4869.96
4836.54
4806.49
4780.19
4756.21
4735.16
4715.7
4698.59
4682.58
4668.53
4655.21
4643.52
4632.3
4622.52
4613
4604.74
4596.59
4589.57
4582.54
4576.56
4570.48
4565.34
4560.04
4555.62
4551.02
4547.17
4543.12
4539.83
4536.27
4533.39
4530.25
4527.72
4525
4522.8
4520.45
4518.6
4516.55
4514.8
4513.05
4511.55
4509.99
4508.66
4507.3
4506.23
4505.13
4504.19
4503.2
4502.51
4501.63
4501
4500.21
4499.76
4499.14
4498.82
4498.26
4497.98
4497.47
4497.22
4496.71
4496.47
4496.07
4495.91
4495.59
4495.53
4495.37
4495.45
4495.42
4495.69
4495.69
4496.17
4496.17
4496.88
4496.89
4497.75
4497.76
4498.93
4499.63
4534.41
4647.65
72757
8261.23
7566.25
7000.26
6553.21
6204.99
5934.02
5720.47
5550.26
5412.01
5298.7
5204.03
5124.7
5056.87
4999.07
4948.69
4905.24
4866.73
4833.23
4803.09
4776.72
4752.67
4731.56
4712.06
4694.9
4678.85
4664.75
4651.39
4639.67
4628.42
4618.61
4609.06
4600.77
4592.6
4585.56
4578.5
4572.5
4566.41
4561.25
4555.94
4551.49
4546.89
4543.02
4538.96
4535.65
4532.09
4529.19
4526.04
4523.5
4520.78
4518.57
4516.21
4514.34
4512.29
4510.54
4508.77
4507.26
4505.7
4504.36
4502.99
4501.92
4500.82
4499.87
4498.88
4498.18
4497.29
4496.66
4495.86
4495.41
4494.78
4494.46
4493.9
4493.62
4493.11
4492.85
4492.34
4492.1
4491.69
4491.53
4491.2
4491.13
4490.97
4491.05
4491.01
4491.26
4491.26
4491.73
4491.73
4492.44
4492.44
4493.3
4493.3
4494.47
4495.18
4530.86
4643.88
69331.9
8261.24
7566.33
7000.25
6552.91
6204.3
5932.92
5718.99
5548.43
5409.87
5296.29
5201.4
5121.86
5053.85
4995.9
4945.38
4901.8
4863.19
4829.59
4799.36
4772.92
4748.8
4727.62
4708.05
4690.84
4674.74
4660.6
4647.2
4635.44
4624.16
4614.31
4604.73
4596.42
4588.21
4581.15
4574.07
4568.05
4561.94
4556.76
4551.43
4546.97
4542.35
4538.46
4534.39
4531.07
4527.49
4524.58
4521.42
4518.87
4516.13
4513.91
4511.54
4509.67
4507.61
4505.85
4504.08
4502.56
4500.99
4499.64
4498.27
4497.19
4496.08
4495.13
4494.12
4493.42
4492.53
4491.89
4491.09
4490.63
4490
4489.67
4489.1
4488.82
4488.31
4488.04
4487.54
4487.29
4486.88
4486.71
4486.38
4486.31
4486.13
4486.2
4486.16
4486.4
4486.4
4486.86
4486.86
4487.55
4487.55
4488.4
4488.4
4489.57
4490.29
4526.96
4639.77
65975.5
8261.26
7566.42
7000.23
6552.59
6203.56
5931.73
5717.38
5546.44
5407.55
5293.68
5198.53
5118.77
5050.57
4992.44
4941.77
4898.06
4859.33
4825.62
4795.3
4768.77
4744.57
4723.33
4703.69
4686.42
4670.27
4656.08
4642.63
4630.83
4619.51
4609.63
4600.01
4591.67
4583.43
4576.34
4569.24
4563.2
4557.06
4551.87
4546.51
4542.03
4537.39
4533.49
4529.4
4526.07
4522.47
4519.56
4516.38
4513.82
4511.07
4508.84
4506.46
4504.57
4502.5
4500.73
4498.95
4497.43
4495.85
4494.5
4493.11
4492.02
4490.91
4489.95
4488.94
4488.23
4487.33
4486.69
4485.88
4485.42
4484.78
4484.45
4483.88
4483.59
4483.07
4482.81
4482.29
4482.04
4481.63
4481.46
4481.12
4481.05
4480.86
4480.92
4480.87
4481.1
4481.1
4481.54
4481.54
4482.22
4482.22
4483.06
4483.06
4484.22
4484.96
4522.71
4635.32
62693.2
8261.27
7566.52
7000.21
6552.24
6202.76
5930.45
5715.64
5544.29
5405.03
5290.85
5195.42
5115.42
5047.01
4988.7
4937.86
4894.01
4855.14
4821.32
4790.9
4764.27
4739.99
4718.67
4698.97
4681.63
4665.42
4651.18
4637.68
4625.83
4614.46
4604.55
4594.89
4586.52
4578.25
4571.13
4564
4557.93
4551.77
4546.56
4541.18
4536.68
4532.02
4528.1
4523.99
4520.64
4517.03
4514.1
4510.91
4508.34
4505.58
4503.33
4500.94
4499.04
4496.96
4495.18
4493.39
4491.86
4490.27
4488.91
4487.52
4486.42
4485.29
4484.34
4483.31
4482.6
4481.69
4481.04
4480.23
4479.76
4479.11
4478.78
4478.2
4477.91
4477.39
4477.12
4476.61
4476.35
4475.93
4475.75
4475.42
4475.34
4475.14
4475.19
4475.13
4475.35
4475.35
4475.77
4475.78
4476.44
4476.44
4477.26
4477.26
4478.42
4479.18
4518.09
4630.53
59490.4
8261.28
7566.62
7000.2
6551.87
6201.91
5929.08
5713.78
5541.99
5402.33
5287.81
5192.08
5111.82
5043.18
4984.67
4933.66
4889.65
4850.64
4816.69
4786.16
4759.43
4735.05
4713.65
4693.87
4676.47
4660.19
4645.89
4632.33
4620.44
4609.03
4599.07
4589.37
4580.96
4572.66
4565.51
4558.35
4552.25
4546.06
4540.82
4535.42
4530.9
4526.22
4522.28
4518.16
4514.79
4511.16
4508.22
4505.01
4502.42
4499.65
4497.39
4494.98
4493.08
4490.98
4489.19
4487.39
4485.85
4484.25
4482.89
4481.48
4480.38
4479.24
4478.27
4477.24
4476.52
4475.6
4474.95
4474.13
4473.65
4473
4472.66
4472.08
4471.78
4471.25
4470.98
4470.47
4470.21
4469.78
4469.6
4469.26
4469.17
4468.96
4469
4468.94
4469.14
4469.14
4469.55
4469.55
4470.2
4470.2
4471
4471
4472.16
4472.94
4513.11
4625.41
56371.9
8261.3
7566.73
7000.19
6551.48
6201
5927.62
5711.79
5539.52
5399.45
5284.55
5188.5
5107.96
5039.07
4980.34
4929.14
4884.96
4845.8
4811.72
4781.06
4754.23
4729.75
4708.26
4688.39
4670.92
4654.57
4640.21
4626.6
4614.65
4603.18
4593.18
4583.44
4574.99
4566.65
4559.47
4552.27
4546.15
4539.93
4534.66
4529.23
4524.69
4519.99
4516.03
4511.88
4508.5
4504.85
4501.89
4498.67
4496.06
4493.27
4491
4488.58
4486.66
4484.55
4482.76
4480.94
4479.39
4477.78
4476.41
4474.99
4473.88
4472.73
4471.76
4470.71
4469.99
4469.06
4468.4
4467.57
4467.09
4466.43
4466.08
4465.49
4465.19
4464.66
4464.39
4463.86
4463.6
4463.17
4462.98
4462.64
4462.54
4462.32
4462.36
4462.28
4462.47
4462.46
4462.85
4462.85
4463.49
4463.49
4464.27
4464.27
4465.42
4466.23
4507.75
4619.94
53342.2
8261.31
7566.85
7000.17
6551.07
6200.03
5926.07
5709.67
5536.89
5396.37
5281.08
5184.68
5103.84
5034.69
4975.73
4924.32
4879.96
4840.63
4806.41
4775.62
4748.66
4724.08
4702.49
4682.54
4664.98
4648.56
4634.13
4620.45
4608.45
4596.93
4586.88
4577.09
4568.6
4560.22
4553
4545.77
4539.62
4533.36
4528.07
4522.61
4518.05
4513.32
4509.34
4505.17
4501.76
4498.1
4495.12
4491.87
4489.26
4486.45
4484.17
4481.73
4479.79
4477.67
4475.86
4474.03
4472.48
4470.85
4469.47
4468.04
4466.92
4465.75
4464.78
4463.72
4462.99
4462.05
4461.39
4460.55
4460.06
4459.39
4459.03
4458.44
4458.14
4457.6
4457.32
4456.79
4456.53
4456.09
4455.9
4455.55
4455.44
4455.21
4455.23
4455.15
4455.32
4455.31
4455.69
4455.69
4456.3
4456.3
4457.07
4457.07
4458.21
4459.05
4501.99
4614.14
50405.5
8261.33
7566.98
7000.16
6550.64
6199.02
5924.42
5707.43
5534.11
5393.1
5277.39
5180.62
5099.46
5030.02
4970.81
4919.18
4874.63
4835.13
4800.75
4769.81
4742.74
4718.03
4696.34
4676.29
4658.66
4642.15
4627.65
4613.91
4601.84
4590.26
4580.16
4570.32
4561.79
4553.36
4546.11
4538.84
4532.65
4526.36
4521.04
4515.55
4510.96
4506.2
4502.2
4498
4494.58
4490.89
4487.89
4484.63
4481.99
4479.17
4476.87
4474.41
4472.46
4470.33
4468.51
4466.66
4465.1
4463.46
4462.07
4460.62
4459.49
4458.31
4457.33
4456.26
4455.52
4454.58
4453.91
4453.06
4452.56
4451.88
4451.52
4450.91
4450.6
4450.06
4449.78
4449.25
4448.98
4448.53
4448.33
4447.98
4447.87
4447.63
4447.64
4447.53
4447.7
4447.68
4448.04
4448.04
4448.63
4448.63
4449.38
4449.38
4450.52
4451.39
4495.83
4608
47565.5
8261.34
7567.11
7000.15
6550.19
6197.95
5922.69
5705.06
5531.16
5389.64
5273.48
5176.32
5094.81
5025.07
4965.6
4913.73
4868.97
4829.28
4794.73
4763.65
4736.44
4711.61
4689.81
4669.66
4651.93
4635.34
4620.76
4606.95
4594.82
4583.18
4573.02
4563.13
4554.54
4546.07
4538.77
4531.46
4525.23
4518.91
4513.56
4508.04
4503.42
4498.63
4494.61
4490.38
4486.93
4483.22
4480.2
4476.92
4474.27
4471.42
4469.11
4466.63
4464.67
4462.52
4460.69
4458.82
4457.24
4455.59
4454.19
4452.73
4451.59
4450.4
4449.41
4448.33
4447.58
4446.62
4445.94
4445.09
4444.58
4443.89
4443.52
4442.91
4442.59
4442.05
4441.76
4441.22
4440.94
4440.49
4440.29
4439.93
4439.81
4439.56
4439.55
4439.44
4439.59
4439.56
4439.9
4439.9
4440.47
4440.47
4441.2
4441.2
4442.34
4443.24
4489.23
4601.5
44825.6
8261.35
7567.25
7000.15
6549.72
6196.83
5920.87
5702.56
5528.05
5385.99
5269.35
5171.77
5089.9
5019.84
4960.08
4907.96
4862.98
4823.09
4788.37
4757.12
4729.77
4704.81
4682.9
4662.63
4644.81
4628.12
4613.47
4599.57
4587.37
4575.66
4565.45
4555.5
4546.86
4538.34
4531
4523.64
4517.38
4511.01
4505.63
4500.07
4495.42
4490.6
4486.55
4482.3
4478.83
4475.09
4472.05
4468.75
4466.08
4463.21
4460.88
4458.38
4456.4
4454.23
4452.39
4450.51
4448.92
4447.25
4445.84
4444.36
4443.21
4442
4441
4439.91
4439.15
4438.18
4437.5
4436.63
4436.11
4435.41
4435.03
4434.41
4434.09
4433.54
4433.25
4432.71
4432.42
4431.96
4431.75
4431.38
4431.26
4431
4430.98
4430.85
4430.98
4430.95
4431.27
4431.26
4431.82
4431.82
4432.52
4432.52
4433.65
4434.59
4482.19
4594.61
42189
8261.37
7567.4
7000.14
6549.23
6195.66
5918.97
5699.95
5524.79
5382.14
5265
5166.98
5084.72
5014.32
4954.26
4901.88
4856.66
4816.56
4781.65
4750.23
4722.72
4697.62
4675.58
4655.21
4637.28
4620.49
4605.75
4591.77
4579.5
4567.72
4557.44
4547.43
4538.74
4530.16
4522.77
4515.37
4509.06
4502.66
4497.24
4491.65
4486.96
4482.11
4478.03
4473.75
4470.25
4466.49
4463.43
4460.1
4457.41
4454.52
4452.17
4449.65
4447.65
4445.46
4443.61
4441.71
4440.1
4438.42
4437
4435.51
4434.34
4433.12
4432.11
4431
4430.23
4429.25
4428.56
4427.68
4427.15
4426.44
4426.05
4425.42
4425.1
4424.54
4424.24
4423.69
4423.4
4422.93
4422.72
4422.34
4422.21
4421.95
4421.91
4421.76
4421.88
4421.84
4422.13
4422.13
4422.66
4422.66
4423.34
4423.34
4424.46
4425.43
4474.68
4587.3
39658.2
8261.38
7567.55
7000.15
6548.73
6194.44
5916.98
5697.2
5521.36
5378.11
5260.44
5161.94
5079.28
5008.51
4948.14
4895.47
4850
4809.67
4774.56
4742.97
4715.3
4690.05
4667.88
4647.37
4629.33
4612.45
4597.61
4583.54
4571.2
4559.34
4548.99
4538.92
4530.17
4521.54
4514.1
4506.65
4500.29
4493.85
4488.38
4482.75
4478.04
4473.15
4469.04
4464.73
4461.2
4457.41
4454.32
4450.97
4448.26
4445.34
4442.97
4440.43
4438.41
4436.21
4434.34
4432.42
4430.8
4429.1
4427.67
4426.16
4424.98
4423.74
4422.72
4421.6
4420.81
4419.82
4419.12
4418.23
4417.69
4416.97
4416.57
4415.93
4415.6
4415.03
4414.73
4414.18
4413.88
4413.4
4413.18
4412.79
4412.65
4412.38
4412.33
4412.16
4412.27
4412.22
4412.49
4412.48
4412.99
4412.99
4413.64
4413.64
4414.76
4415.77
4466.68
4579.52
37235.8
8261.4
7567.71
7000.15
6548.21
6193.18
5914.9
5694.34
5517.78
5373.89
5255.65
5156.66
5073.56
5002.41
4941.7
4888.73
4843
4802.44
4767.12
4735.33
4707.49
4682.08
4659.77
4639.14
4620.98
4603.98
4589.05
4574.89
4562.46
4550.52
4540.1
4529.96
4521.15
4512.46
4504.96
4497.46
4491.06
4484.56
4479.06
4473.39
4468.64
4463.71
4459.57
4455.23
4451.67
4447.85
4444.74
4441.36
4438.62
4435.68
4433.29
4430.73
4428.69
4426.46
4424.57
4422.63
4421
4419.28
4417.84
4416.31
4415.12
4413.86
4412.83
4411.69
4410.9
4409.89
4409.18
4408.27
4407.73
4406.99
4406.59
4405.94
4405.59
4405.02
4404.71
4404.15
4403.84
4403.36
4403.13
4402.73
4402.58
4402.3
4402.24
4402.05
4402.14
4402.08
4402.33
4402.32
4402.8
4402.8
4403.42
4403.43
4404.54
4405.59
4458.15
4571.26
34923.7
8261.41
7567.88
7000.16
6547.67
6191.87
5912.74
5691.36
5514.04
5369.48
5250.64
5151.14
5067.58
4996.02
4934.96
4881.68
4835.66
4794.85
4759.31
4727.31
4699.29
4673.72
4651.26
4630.49
4612.21
4595.09
4580.06
4565.79
4553.28
4541.26
4530.76
4520.54
4511.67
4502.91
4495.37
4487.8
4481.36
4474.81
4469.27
4463.55
4458.76
4453.79
4449.62
4445.24
4441.65
4437.8
4434.66
4431.25
4428.49
4425.52
4423.11
4420.52
4418.46
4416.21
4414.31
4412.35
4410.7
4408.96
4407.5
4405.96
4404.75
4403.47
4402.43
4401.27
4400.47
4399.45
4398.73
4397.81
4397.25
4396.5
4396.08
4395.42
4395.07
4394.49
4394.18
4393.61
4393.29
4392.8
4392.56
4392.15
4392
4391.7
4391.63
4391.42
4391.49
4391.42
4391.64
4391.63
4392.09
4392.09
4392.68
4392.69
4393.79
4394.89
4449.07
4562.47
32723.8
8261.42
7568.05
7000.17
6547.13
6190.52
5910.51
5688.26
5510.15
5364.88
5245.42
5145.36
5061.33
4989.35
4927.91
4874.29
4827.99
4786.91
4751.13
4718.92
4690.71
4664.96
4642.34
4621.42
4603.01
4585.78
4570.63
4556.26
4543.66
4531.54
4520.97
4510.67
4501.73
4492.91
4485.3
4477.68
4471.18
4464.58
4458.99
4453.23
4448.4
4443.39
4439.18
4434.76
4431.14
4427.26
4424.09
4420.65
4417.86
4414.87
4412.43
4409.81
4407.73
4405.46
4403.54
4401.55
4399.89
4398.13
4396.66
4395.09
4393.87
4392.57
4391.52
4390.34
4389.52
4388.49
4387.76
4386.82
4386.26
4385.49
4385.06
4384.39
4384.03
4383.44
4383.12
4382.54
4382.22
4381.71
4381.46
4381.05
4380.89
4380.58
4380.49
4380.27
4380.32
4380.24
4380.44
4380.42
4380.85
4380.84
4381.41
4381.42
4382.51
4383.65
4439.4
4553.1
30637.6
8261.43
7568.23
7000.19
6546.57
6189.13
5908.19
5685.04
5506.11
5360.09
5239.98
5139.35
5054.81
4982.38
4920.55
4866.58
4819.97
4778.61
4742.58
4710.14
4681.73
4655.8
4633.02
4611.94
4593.4
4576.03
4560.77
4546.29
4533.59
4521.38
4510.72
4500.34
4491.33
4482.43
4474.76
4467.08
4460.52
4453.87
4448.23
4442.42
4437.54
4432.49
4428.25
4423.79
4420.14
4416.22
4413.02
4409.55
4406.73
4403.71
4401.24
4398.6
4396.49
4394.2
4392.25
4390.25
4388.56
4386.78
4385.3
4383.71
4382.47
4381.15
4380.09
4378.89
4378.06
4377.01
4376.27
4375.32
4374.74
4373.95
4373.52
4372.83
4372.46
4371.86
4371.53
4370.95
4370.62
4370.1
4369.84
4369.42
4369.24
4368.92
4368.83
4368.59
4368.62
4368.52
4368.69
4368.67
4369.07
4369.06
4369.6
4369.6
4370.69
4371.88
4429.1
4543.12
28666.3
8261.44
7568.42
7000.22
6546
6187.69
5905.8
5681.71
5501.92
5355.12
5234.33
5133.09
5048.02
4975.12
4912.88
4858.54
4811.6
4769.95
4733.66
4700.99
4672.37
4646.24
4623.28
4602.04
4583.35
4565.85
4550.47
4535.87
4523.06
4510.75
4500.01
4489.54
4480.46
4471.49
4463.75
4456
4449.39
4442.67
4436.98
4431.12
4426.2
4421.1
4416.82
4412.32
4408.63
4404.67
4401.44
4397.94
4395.09
4392.03
4389.54
4386.87
4384.74
4382.42
4380.46
4378.42
4376.72
4374.92
4373.41
4371.81
4370.55
4369.21
4368.13
4366.91
4366.07
4365
4364.25
4363.28
4362.69
4361.88
4361.44
4360.74
4360.36
4359.75
4359.42
4358.82
4358.48
4357.95
4357.68
4357.25
4357.06
4356.73
4356.62
4356.37
4356.38
4356.26
4356.41
4356.38
4356.75
4356.74
4357.25
4357.25
4358.32
4359.56
4418.14
4532.49
26811.2
8261.45
7568.61
7000.25
6545.43
6186.22
5903.34
5678.27
5497.57
5349.97
5228.46
5126.59
5040.96
4967.57
4904.9
4850.18
4802.9
4760.93
4724.37
4691.45
4662.6
4636.27
4613.13
4591.72
4572.88
4555.23
4539.72
4525
4512.09
4499.67
4488.84
4478.28
4469.11
4460.06
4452.26
4444.44
4437.76
4430.99
4425.25
4419.33
4414.36
4409.21
4404.89
4400.34
4396.61
4392.61
4389.35
4385.81
4382.93
4379.85
4377.33
4374.63
4372.46
4370.12
4368.13
4366.07
4364.35
4362.53
4361
4359.37
4358.1
4356.74
4355.64
4354.4
4353.54
4352.45
4351.69
4350.71
4350.1
4349.28
4348.82
4348.11
4347.72
4347.1
4346.76
4346.15
4345.8
4345.26
4344.98
4344.54
4344.34
4343.99
4343.87
4343.61
4343.59
4343.46
4343.59
4343.54
4343.88
4343.88
4344.35
4344.35
4345.41
4346.7
4406.52
4521.15
25073.3
8261.46
7568.8
7000.28
6544.84
6184.72
5900.8
5674.72
5493.09
5344.64
5222.38
5119.85
5033.64
4959.74
4896.62
4841.48
4793.84
4751.56
4714.71
4681.52
4652.45
4625.9
4602.56
4580.98
4561.98
4544.18
4528.53
4513.69
4500.65
4488.13
4477.2
4466.54
4457.29
4448.16
4440.28
4432.39
4425.65
4418.81
4413.01
4407.03
4402.01
4396.82
4392.45
4387.85
4384.09
4380.05
4376.75
4373.17
4370.26
4367.14
4364.59
4361.86
4359.67
4357.29
4355.29
4353.2
4351.46
4349.6
4348.07
4346.41
4345.11
4343.73
4342.62
4341.36
4340.48
4339.37
4338.6
4337.6
4336.98
4336.14
4335.67
4334.94
4334.54
4333.9
4333.55
4332.94
4332.58
4332.03
4331.74
4331.28
4331.07
4330.71
4330.58
4330.3
4330.26
4330.1
4330.21
4330.15
4330.46
4330.46
4330.89
4330.89
4331.94
4333.28
4394.21
4509.09
23453.5
8261.47
7569.01
7000.33
6544.25
6183.18
5898.2
5671.07
5488.46
5339.13
5216.1
5112.87
5026.06
4951.62
4888.02
4832.46
4784.45
4741.82
4704.68
4671.21
4641.89
4615.11
4591.58
4569.81
4550.64
4532.68
4516.89
4501.91
4488.76
4476.12
4465.09
4454.33
4444.99
4435.77
4427.82
4419.85
4413.04
4406.13
4400.27
4394.24
4389.17
4383.91
4379.5
4374.86
4371.05
4366.96
4363.63
4360.01
4357.07
4353.91
4351.33
4348.56
4346.34
4343.94
4341.91
4339.79
4338.03
4336.15
4334.59
4332.91
4331.59
4330.18
4329.06
4327.77
4326.88
4325.75
4324.96
4323.94
4323.31
4322.45
4321.96
4321.22
4320.81
4320.16
4319.8
4319.17
4318.81
4318.24
4317.94
4317.47
4317.25
4316.87
4316.73
4316.43
4316.38
4316.2
4316.28
4316.2
4316.48
4316.48
4316.88
4316.87
4317.91
4319.29
4381.23
4496.27
21948.1
8261.48
7569.21
7000.38
6543.66
6181.61
5895.53
5667.31
5483.69
5333.44
5209.6
5105.66
5018.22
4943.21
4879.12
4823.12
4774.71
4731.73
4694.27
4660.52
4630.94
4603.93
4580.18
4558.21
4538.87
4520.74
4504.81
4489.69
4476.41
4463.65
4452.51
4441.65
4432.21
4422.9
4414.86
4406.81
4399.94
4392.96
4387.04
4380.94
4375.81
4370.5
4366.04
4361.34
4357.49
4353.36
4349.98
4346.33
4343.35
4340.15
4337.54
4334.74
4332.49
4330.05
4328
4325.85
4324.06
4322.15
4320.58
4318.87
4317.53
4316.09
4314.95
4313.64
4312.73
4311.58
4310.78
4309.74
4309.09
4308.21
4307.71
4306.95
4306.53
4305.86
4305.49
4304.86
4304.48
4303.9
4303.59
4303.1
4302.87
4302.47
4302.32
4302.01
4301.94
4301.73
4301.79
4301.7
4301.94
4301.94
4302.3
4302.29
4303.32
4304.74
4367.57
4482.64
20552.3
8261.48
7569.43
7000.44
6543.06
6180.01
5892.81
5663.46
5478.79
5327.59
5202.91
5098.21
5010.11
4934.52
4869.91
4813.45
4764.63
4721.28
4683.49
4649.44
4619.59
4592.33
4568.37
4546.19
4526.66
4508.36
4492.27
4477
4463.59
4450.71
4439.45
4428.48
4418.95
4409.54
4401.42
4393.28
4386.33
4379.28
4373.29
4367.13
4361.94
4356.57
4352.06
4347.31
4343.41
4339.23
4335.82
4332.12
4329.1
4325.86
4323.22
4320.38
4318.1
4315.63
4313.54
4311.36
4309.55
4307.61
4306.02
4304.28
4302.92
4301.45
4300.3
4298.96
4298.03
4296.86
4296.04
4294.98
4294.31
4293.41
4292.9
4292.12
4291.69
4291.01
4290.63
4289.98
4289.59
4289
4288.67
4288.17
4287.92
4287.52
4287.35
4287.02
4286.93
4286.71
4286.74
4286.62
4286.84
4286.83
4287.16
4287.14
4288.16
4289.62
4353.22
4468.17
19261.2
8261.48
7569.64
7000.51
6542.46
6178.39
5890.02
5659.51
5473.76
5321.57
5196.01
5090.54
5001.75
4925.55
4860.4
4803.45
4754.21
4710.47
4672.34
4637.97
4607.85
4580.33
4556.13
4533.74
4514.02
4495.53
4479.28
4463.86
4450.32
4437.29
4425.92
4414.83
4405.2
4395.69
4387.48
4379.26
4372.23
4365.1
4359.04
4352.81
4347.56
4342.13
4337.56
4332.76
4328.81
4324.58
4321.12
4317.38
4314.32
4311.04
4308.36
4305.48
4303.16
4300.66
4298.55
4296.33
4294.5
4292.53
4290.91
4289.15
4287.76
4286.27
4285.09
4283.73
4282.78
4281.58
4280.75
4279.67
4278.98
4278.06
4277.53
4276.73
4276.28
4275.59
4275.2
4274.54
4274.14
4273.53
4273.2
4272.67
4272.42
4271.99
4271.81
4271.46
4271.36
4271.12
4271.12
4270.98
4271.17
4271.15
4271.45
4271.41
4272.42
4273.92
4338.17
4452.83
18069.7
8261.49
7569.87
7000.58
6541.86
6176.74
5887.18
5655.47
5468.6
5315.39
5188.92
5082.64
4993.14
4916.3
4850.59
4793.14
4743.46
4699.31
4660.82
4626.13
4595.71
4567.92
4543.48
4520.86
4500.94
4482.27
4465.85
4450.26
4436.57
4423.41
4411.91
4400.7
4390.97
4381.35
4373.05
4364.73
4357.62
4350.41
4344.28
4337.98
4332.67
4327.16
4322.55
4317.68
4313.68
4309.4
4305.89
4302.11
4299.01
4295.68
4292.97
4290.04
4287.69
4285.15
4283.01
4280.76
4278.9
4276.9
4275.26
4273.46
4272.06
4270.53
4269.33
4267.94
4266.97
4265.75
4264.9
4263.79
4263.09
4262.15
4261.6
4260.78
4260.32
4259.61
4259.21
4258.54
4258.13
4257.5
4257.15
4256.61
4256.34
4255.89
4255.7
4255.34
4255.22
4254.96
4254.93
4254.77
4254.93
4254.9
4255.16
4255.11
4256.11
4257.64
4322.43
4436.59
16972.3
8261.48
7570.09
7000.67
6541.27
6175.08
5884.3
5651.35
5463.32
5309.06
5181.65
5074.52
4984.28
4906.78
4840.49
4782.51
4732.37
4687.8
4648.94
4613.9
4583.18
4555.1
4530.41
4507.56
4487.43
4468.55
4451.96
4436.2
4422.36
4409.05
4397.43
4386.1
4376.25
4366.52
4358.12
4349.71
4342.51
4335.21
4329.01
4322.63
4317.25
4311.68
4307
4302.08
4298.03
4293.69
4290.14
4286.3
4283.16
4279.79
4277.03
4274.06
4271.68
4269.09
4266.93
4264.64
4262.75
4260.71
4259.05
4257.22
4255.79
4254.23
4253.02
4251.59
4250.6
4249.35
4248.49
4247.36
4246.64
4245.67
4245.11
4244.27
4243.79
4243.07
4242.65
4241.96
4241.54
4240.9
4240.53
4239.98
4239.69
4239.23
4239.01
4238.63
4238.5
4238.22
4238.17
4237.98
4238.11
4238.07
4238.3
4238.23
4239.22
4240.78
4306
4419.41
15963.3
8261.48
7570.32
7000.76
6540.67
6173.4
5881.36
5647.15
5457.92
5302.57
5174.18
5066.19
4975.18
4896.99
4830.09
4771.57
4720.94
4675.94
4636.68
4601.29
4570.25
4541.88
4516.93
4493.83
4473.48
4454.4
4437.62
4421.68
4407.69
4394.23
4382.47
4371
4361.04
4351.2
4342.7
4334.18
4326.9
4319.51
4313.23
4306.77
4301.32
4295.68
4290.94
4285.95
4281.84
4277.45
4273.84
4269.95
4266.77
4263.35
4260.56
4257.54
4255.12
4252.49
4250.3
4247.97
4246.05
4243.98
4242.29
4240.42
4238.97
4237.37
4236.14
4234.69
4233.67
4232.4
4231.51
4230.36
4229.62
4228.63
4228.04
4227.18
4226.69
4225.95
4225.52
4224.81
4224.38
4223.72
4223.34
4222.77
4222.47
4221.98
4221.76
4221.35
4221.2
4220.9
4220.84
4220.61
4220.71
4220.66
4220.86
4220.77
4221.75
4223.32
4288.85
4401.28
15036.9
8261.48
7570.55
7000.87
6540.08
6171.71
5878.39
5642.87
5452.41
5295.93
5166.54
5057.64
4965.84
4886.93
4819.41
4760.32
4709.19
4663.73
4624.07
4588.31
4556.94
4528.26
4503.04
4479.68
4459.1
4439.8
4422.83
4406.71
4392.55
4378.93
4367.03
4355.43
4345.34
4335.38
4326.78
4318.15
4310.78
4303.29
4296.93
4290.39
4284.87
4279.15
4274.35
4269.29
4265.13
4260.67
4257.02
4253.07
4249.84
4246.37