/*--------------------------------*- C++ -*----------------------------------*\
| =========                 |                                                 |
| \\      /  F ield         | OpenFOAM: The Open Source CFD Toolbox           |
|  \\    /   O peration     | Version:  v2012                                 |
|   \\  /    A nd           | Website:  www.openfoam.com                      |
|    \\/     M anipulation  |                                                 |
\*---------------------------------------------------------------------------*/
FoamFile
{
    version     2.0;
    format      ascii;
    class       volVectorField;
    location    "36.5";
    object      wallShearStress;
}
// * * * * * * * * * * * * * * * * * * * * * * * * * * * * * * * * * * * * * //

dimensions      [0 2 -2 0 0 0 0];


internalField   uniform (0 0 0);

boundaryField
{
    inlet
    {
        type            calculated;
        value           uniform (0 0 0);
    }
    outlet
    {
        type            calculated;
        value           uniform (0 0 0);
    }
    topWall
    {
        type            calculated;
        value           nonuniform List<vector> 
545
(
(3.6716e-08 -2.58447e-08 0)
(3.67047e-08 -7.22986e-08 0)
(3.66841e-08 -1.20604e-07 0)
(3.66552e-08 -1.67512e-07 0)
(3.66189e-08 -2.12423e-07 0)
(3.65762e-08 -2.55913e-07 0)
(3.65273e-08 -2.98354e-07 0)
(3.64727e-08 -3.39724e-07 0)
(3.6413e-08 -3.79934e-07 0)
(3.63486e-08 -4.18982e-07 0)
(3.62799e-08 -4.56921e-07 0)
(3.62074e-08 -4.93793e-07 0)
(3.61314e-08 -5.29624e-07 0)
(3.60524e-08 -5.64435e-07 0)
(3.59705e-08 -5.9825e-07 0)
(3.58862e-08 -6.31097e-07 0)
(3.57997e-08 -6.63002e-07 0)
(3.57114e-08 -6.9399e-07 0)
(3.56215e-08 -7.24086e-07 0)
(3.55302e-08 -7.53313e-07 0)
(3.54377e-08 -7.81696e-07 0)
(3.53443e-08 -8.09258e-07 0)
(3.52502e-08 -8.36022e-07 0)
(3.51556e-08 -8.62011e-07 0)
(3.50605e-08 -8.87246e-07 0)
(3.49653e-08 -9.11749e-07 0)
(3.487e-08 -9.3554e-07 0)
(3.47747e-08 -9.58642e-07 0)
(3.46797e-08 -9.81072e-07 0)
(3.4585e-08 -1.00285e-06 0)
(3.44907e-08 -1.024e-06 0)
(3.43969e-08 -1.04453e-06 0)
(3.43037e-08 -1.06447e-06 0)
(3.42112e-08 -1.08383e-06 0)
(3.41195e-08 -1.10263e-06 0)
(3.40287e-08 -1.12088e-06 0)
(3.39387e-08 -1.13861e-06 0)
(3.38497e-08 -1.15582e-06 0)
(3.37617e-08 -1.17253e-06 0)
(3.36748e-08 -1.18877e-06 0)
(3.3589e-08 -1.20453e-06 0)
(3.35043e-08 -1.21984e-06 0)
(3.34207e-08 -1.23471e-06 0)
(3.33384e-08 -1.24915e-06 0)
(3.32573e-08 -1.26317e-06 0)
(3.31774e-08 -1.27679e-06 0)
(3.30987e-08 -1.29002e-06 0)
(3.30214e-08 -1.30288e-06 0)
(3.29453e-08 -1.31536e-06 0)
(3.28705e-08 -1.32749e-06 0)
(3.27969e-08 -1.33927e-06 0)
(3.27247e-08 -1.35071e-06 0)
(3.26538e-08 -1.36183e-06 0)
(3.25841e-08 -1.37263e-06 0)
(3.25158e-08 -1.38313e-06 0)
(3.24487e-08 -1.39332e-06 0)
(3.23829e-08 -1.40323e-06 0)
(3.23184e-08 -1.41286e-06 0)
(3.22551e-08 -1.42221e-06 0)
(3.21931e-08 -1.4313e-06 0)
(3.21324e-08 -1.44014e-06 0)
(3.20729e-08 -1.44872e-06 0)
(3.20146e-08 -1.45706e-06 0)
(3.19575e-08 -1.46517e-06 0)
(3.19016e-08 -1.47305e-06 0)
(3.18468e-08 -1.48071e-06 0)
(3.17933e-08 -1.48816e-06 0)
(3.17409e-08 -1.49539e-06 0)
(3.16896e-08 -1.50243e-06 0)
(3.16394e-08 -1.50927e-06 0)
(3.15903e-08 -1.51592e-06 0)
(3.15425e-08 -1.52237e-06 0)
(3.14961e-08 -1.52858e-06 0)
(3.14505e-08 -1.5346e-06 0)
(3.14054e-08 -1.54057e-06 0)
(3.13603e-08 -1.5465e-06 0)
(3.13154e-08 -1.5524e-06 0)
(3.12704e-08 -1.55828e-06 0)
(3.12255e-08 -1.56411e-06 0)
(3.11807e-08 -1.56991e-06 0)
(3.11359e-08 -1.57567e-06 0)
(3.10911e-08 -1.5814e-06 0)
(3.10464e-08 -1.58709e-06 0)
(3.10017e-08 -1.59275e-06 0)
(3.0957e-08 -1.59838e-06 0)
(3.09125e-08 -1.60397e-06 0)
(3.08679e-08 -1.60953e-06 0)
(3.08234e-08 -1.61506e-06 0)
(3.0779e-08 -1.62055e-06 0)
(3.07346e-08 -1.62601e-06 0)
(3.06903e-08 -1.63144e-06 0)
(3.06461e-08 -1.63683e-06 0)
(3.06019e-08 -1.64219e-06 0)
(3.05578e-08 -1.64752e-06 0)
(3.05135e-08 -1.65283e-06 0)
(3.04707e-08 -1.65804e-06 0)
(3.0431e-08 -1.66282e-06 0)
(3.03933e-08 -1.66716e-06 0)
(3.03569e-08 -1.67137e-06 0)
(3.03206e-08 -1.67561e-06 0)
(3.02842e-08 -1.67988e-06 0)
(3.02477e-08 -1.68417e-06 0)
(3.0211e-08 -1.68845e-06 0)
(3.01741e-08 -1.69274e-06 0)
(3.0137e-08 -1.69703e-06 0)
(3.00998e-08 -1.70132e-06 0)
(3.00624e-08 -1.70562e-06 0)
(3.00248e-08 -1.70993e-06 0)
(2.9987e-08 -1.71424e-06 0)
(2.99491e-08 -1.71855e-06 0)
(2.99109e-08 -1.72287e-06 0)
(2.98726e-08 -1.7272e-06 0)
(2.98341e-08 -1.73153e-06 0)
(2.97955e-08 -1.73586e-06 0)
(2.97566e-08 -1.7402e-06 0)
(2.97176e-08 -1.74454e-06 0)
(2.96784e-08 -1.74889e-06 0)
(2.96389e-08 -1.75324e-06 0)
(2.95994e-08 -1.75759e-06 0)
(2.95596e-08 -1.76195e-06 0)
(2.95196e-08 -1.76632e-06 0)
(2.94795e-08 -1.77069e-06 0)
(2.94391e-08 -1.77506e-06 0)
(2.93986e-08 -1.77944e-06 0)
(2.93579e-08 -1.78382e-06 0)
(2.9317e-08 -1.78821e-06 0)
(2.92759e-08 -1.7926e-06 0)
(2.92346e-08 -1.79699e-06 0)
(2.91932e-08 -1.80139e-06 0)
(2.91515e-08 -1.80579e-06 0)
(2.91096e-08 -1.8102e-06 0)
(2.90676e-08 -1.81461e-06 0)
(2.90254e-08 -1.81903e-06 0)
(2.89829e-08 -1.82344e-06 0)
(2.89403e-08 -1.82787e-06 0)
(2.88975e-08 -1.83229e-06 0)
(2.88545e-08 -1.83672e-06 0)
(2.88113e-08 -1.84116e-06 0)
(2.87679e-08 -1.8456e-06 0)
(2.87243e-08 -1.85004e-06 0)
(2.86805e-08 -1.85448e-06 0)
(2.86365e-08 -1.85893e-06 0)
(2.85924e-08 -1.86339e-06 0)
(2.8548e-08 -1.86784e-06 0)
(2.85034e-08 -1.8723e-06 0)
(2.84586e-08 -1.87677e-06 0)
(2.84136e-08 -1.88123e-06 0)
(2.83685e-08 -1.8857e-06 0)
(2.83231e-08 -1.89018e-06 0)
(2.82775e-08 -1.89466e-06 0)
(2.82317e-08 -1.89914e-06 0)
(2.81858e-08 -1.90362e-06 0)
(2.81396e-08 -1.90811e-06 0)
(2.80932e-08 -1.9126e-06 0)
(2.80466e-08 -1.91709e-06 0)
(2.79998e-08 -1.92159e-06 0)
(2.79528e-08 -1.92609e-06 0)
(2.79056e-08 -1.93059e-06 0)
(2.78582e-08 -1.9351e-06 0)
(2.78106e-08 -1.9396e-06 0)
(2.77628e-08 -1.94412e-06 0)
(2.77148e-08 -1.94863e-06 0)
(2.76666e-08 -1.95315e-06 0)
(2.76182e-08 -1.95767e-06 0)
(2.75696e-08 -1.96219e-06 0)
(2.75207e-08 -1.96671e-06 0)
(2.74717e-08 -1.97124e-06 0)
(2.74224e-08 -1.97577e-06 0)
(2.7373e-08 -1.98031e-06 0)
(2.73233e-08 -1.98484e-06 0)
(2.72734e-08 -1.98938e-06 0)
(2.72233e-08 -1.99392e-06 0)
(2.7173e-08 -1.99846e-06 0)
(2.71225e-08 -2.00301e-06 0)
(2.70718e-08 -2.00755e-06 0)
(2.70209e-08 -2.0121e-06 0)
(2.69698e-08 -2.01665e-06 0)
(2.69184e-08 -2.02121e-06 0)
(2.68669e-08 -2.02576e-06 0)
(2.68151e-08 -2.03032e-06 0)
(2.67631e-08 -2.03488e-06 0)
(2.67109e-08 -2.03944e-06 0)
(2.66585e-08 -2.044e-06 0)
(2.66059e-08 -2.04857e-06 0)
(2.65531e-08 -2.05313e-06 0)
(2.65001e-08 -2.0577e-06 0)
(2.64468e-08 -2.06227e-06 0)
(2.63933e-08 -2.06684e-06 0)
(2.63397e-08 -2.07142e-06 0)
(2.62858e-08 -2.07599e-06 0)
(2.62317e-08 -2.08056e-06 0)
(2.61774e-08 -2.08514e-06 0)
(2.61228e-08 -2.08972e-06 0)
(2.60681e-08 -2.0943e-06 0)
(2.60131e-08 -2.09888e-06 0)
(2.59579e-08 -2.10346e-06 0)
(2.59025e-08 -2.10804e-06 0)
(2.58469e-08 -2.11263e-06 0)
(2.57911e-08 -2.11721e-06 0)
(2.57351e-08 -2.1218e-06 0)
(2.56788e-08 -2.12638e-06 0)
(2.56224e-08 -2.13097e-06 0)
(2.55657e-08 -2.13556e-06 0)
(2.55088e-08 -2.14015e-06 0)
(2.54517e-08 -2.14473e-06 0)
(2.53944e-08 -2.14932e-06 0)
(2.53368e-08 -2.15391e-06 0)
(2.52791e-08 -2.1585e-06 0)
(2.52211e-08 -2.16309e-06 0)
(2.51629e-08 -2.16768e-06 0)
(2.51045e-08 -2.17227e-06 0)
(2.50459e-08 -2.17687e-06 0)
(2.49871e-08 -2.18146e-06 0)
(2.4928e-08 -2.18605e-06 0)
(2.48687e-08 -2.19064e-06 0)
(2.48093e-08 -2.19523e-06 0)
(2.47496e-08 -2.19982e-06 0)
(2.46897e-08 -2.20441e-06 0)
(2.46295e-08 -2.209e-06 0)
(2.45692e-08 -2.21359e-06 0)
(2.45087e-08 -2.21818e-06 0)
(2.44479e-08 -2.22276e-06 0)
(2.43869e-08 -2.22735e-06 0)
(2.43257e-08 -2.23194e-06 0)
(2.42643e-08 -2.23653e-06 0)
(2.42027e-08 -2.24111e-06 0)
(2.41408e-08 -2.2457e-06 0)
(2.40788e-08 -2.25028e-06 0)
(2.40165e-08 -2.25486e-06 0)
(2.3954e-08 -2.25944e-06 0)
(2.38913e-08 -2.26402e-06 0)
(2.38284e-08 -2.2686e-06 0)
(2.37653e-08 -2.27318e-06 0)
(2.3702e-08 -2.27776e-06 0)
(2.36385e-08 -2.28233e-06 0)
(2.35747e-08 -2.2869e-06 0)
(2.35107e-08 -2.29147e-06 0)
(2.34466e-08 -2.29604e-06 0)
(2.33822e-08 -2.30061e-06 0)
(2.33176e-08 -2.30518e-06 0)
(2.32528e-08 -2.30974e-06 0)
(2.31878e-08 -2.31431e-06 0)
(2.31225e-08 -2.31887e-06 0)
(2.30571e-08 -2.32342e-06 0)
(2.29915e-08 -2.32798e-06 0)
(2.29256e-08 -2.33253e-06 0)
(2.28596e-08 -2.33708e-06 0)
(2.27933e-08 -2.34163e-06 0)
(2.27268e-08 -2.34618e-06 0)
(2.26602e-08 -2.35072e-06 0)
(2.25933e-08 -2.35526e-06 0)
(2.25262e-08 -2.3598e-06 0)
(2.24589e-08 -2.36434e-06 0)
(2.23914e-08 -2.36887e-06 0)
(2.23237e-08 -2.3734e-06 0)
(2.22558e-08 -2.37793e-06 0)
(2.21877e-08 -2.38245e-06 0)
(2.21194e-08 -2.38697e-06 0)
(2.20509e-08 -2.39148e-06 0)
(2.19822e-08 -2.396e-06 0)
(2.19133e-08 -2.40051e-06 0)
(2.18442e-08 -2.40501e-06 0)
(2.17749e-08 -2.40952e-06 0)
(2.17054e-08 -2.41401e-06 0)
(2.16358e-08 -2.41851e-06 0)
(2.15659e-08 -2.423e-06 0)
(2.14958e-08 -2.42748e-06 0)
(2.14253e-08 -2.43197e-06 0)
(2.1356e-08 -2.43643e-06 0)
(2.12893e-08 -2.44066e-06 0)
(2.12243e-08 -2.4447e-06 0)
(2.11601e-08 -2.44869e-06 0)
(2.10954e-08 -2.45273e-06 0)
(2.10301e-08 -2.45681e-06 0)
(2.09641e-08 -2.46093e-06 0)
(2.08974e-08 -2.46508e-06 0)
(2.08299e-08 -2.46926e-06 0)
(2.07617e-08 -2.47347e-06 0)
(2.06927e-08 -2.47771e-06 0)
(2.0623e-08 -2.48198e-06 0)
(2.05525e-08 -2.48629e-06 0)
(2.04812e-08 -2.49062e-06 0)
(2.04091e-08 -2.49499e-06 0)
(2.03363e-08 -2.49939e-06 0)
(2.02626e-08 -2.50383e-06 0)
(2.01881e-08 -2.50829e-06 0)
(2.01128e-08 -2.51279e-06 0)
(2.00367e-08 -2.51731e-06 0)
(1.99597e-08 -2.52187e-06 0)
(1.9882e-08 -2.52646e-06 0)
(1.98033e-08 -2.53109e-06 0)
(1.97239e-08 -2.53574e-06 0)
(1.96435e-08 -2.54043e-06 0)
(1.95623e-08 -2.54514e-06 0)
(1.94802e-08 -2.54989e-06 0)
(1.93973e-08 -2.55467e-06 0)
(1.93134e-08 -2.55948e-06 0)
(1.92287e-08 -2.56433e-06 0)
(1.91431e-08 -2.5692e-06 0)
(1.90565e-08 -2.5741e-06 0)
(1.89691e-08 -2.57904e-06 0)
(1.88807e-08 -2.584e-06 0)
(1.87914e-08 -2.589e-06 0)
(1.87011e-08 -2.59402e-06 0)
(1.86099e-08 -2.59908e-06 0)
(1.85178e-08 -2.60417e-06 0)
(1.84247e-08 -2.60928e-06 0)
(1.83307e-08 -2.61443e-06 0)
(1.82356e-08 -2.6196e-06 0)
(1.81396e-08 -2.6248e-06 0)
(1.80427e-08 -2.63003e-06 0)
(1.79447e-08 -2.63529e-06 0)
(1.78458e-08 -2.64058e-06 0)
(1.77458e-08 -2.6459e-06 0)
(1.76449e-08 -2.65124e-06 0)
(1.75429e-08 -2.65661e-06 0)
(1.744e-08 -2.66201e-06 0)
(1.7336e-08 -2.66743e-06 0)
(1.7231e-08 -2.67288e-06 0)
(1.7125e-08 -2.67835e-06 0)
(1.70179e-08 -2.68385e-06 0)
(1.69098e-08 -2.68938e-06 0)
(1.68007e-08 -2.69492e-06 0)
(1.66905e-08 -2.7005e-06 0)
(1.65793e-08 -2.70609e-06 0)
(1.6467e-08 -2.71171e-06 0)
(1.63537e-08 -2.71735e-06 0)
(1.62393e-08 -2.72301e-06 0)
(1.61238e-08 -2.7287e-06 0)
(1.60073e-08 -2.7344e-06 0)
(1.58898e-08 -2.74013e-06 0)
(1.57712e-08 -2.74587e-06 0)
(1.56515e-08 -2.75163e-06 0)
(1.55307e-08 -2.75741e-06 0)
(1.54089e-08 -2.76321e-06 0)
(1.5286e-08 -2.76902e-06 0)
(1.51621e-08 -2.77485e-06 0)
(1.50371e-08 -2.7807e-06 0)
(1.4911e-08 -2.78655e-06 0)
(1.47838e-08 -2.79243e-06 0)
(1.46556e-08 -2.79831e-06 0)
(1.45264e-08 -2.80421e-06 0)
(1.43961e-08 -2.81012e-06 0)
(1.42647e-08 -2.81604e-06 0)
(1.41323e-08 -2.82196e-06 0)
(1.39988e-08 -2.8279e-06 0)
(1.38644e-08 -2.83384e-06 0)
(1.37288e-08 -2.83979e-06 0)
(1.35923e-08 -2.84575e-06 0)
(1.34547e-08 -2.8517e-06 0)
(1.33161e-08 -2.85767e-06 0)
(1.31765e-08 -2.86363e-06 0)
(1.30359e-08 -2.8696e-06 0)
(1.28943e-08 -2.87556e-06 0)
(1.27518e-08 -2.88152e-06 0)
(1.26082e-08 -2.88748e-06 0)
(1.24637e-08 -2.89344e-06 0)
(1.23183e-08 -2.89939e-06 0)
(1.21719e-08 -2.90534e-06 0)
(1.20246e-08 -2.91128e-06 0)
(1.18764e-08 -2.91721e-06 0)
(1.17273e-08 -2.92313e-06 0)
(1.15773e-08 -2.92903e-06 0)
(1.14265e-08 -2.93493e-06 0)
(1.12748e-08 -2.94081e-06 0)
(1.11222e-08 -2.94667e-06 0)
(1.09689e-08 -2.95252e-06 0)
(1.08148e-08 -2.95835e-06 0)
(1.06599e-08 -2.96416e-06 0)
(1.05042e-08 -2.96994e-06 0)
(1.03478e-08 -2.9757e-06 0)
(1.01907e-08 -2.98144e-06 0)
(1.00329e-08 -2.98715e-06 0)
(9.87447e-09 -2.99283e-06 0)
(9.71538e-09 -2.99849e-06 0)
(9.55569e-09 -3.00411e-06 0)
(9.39541e-09 -3.00969e-06 0)
(9.23457e-09 -3.01524e-06 0)
(9.0732e-09 -3.02076e-06 0)
(8.91134e-09 -3.02623e-06 0)
(8.749e-09 -3.03167e-06 0)
(8.58623e-09 -3.03706e-06 0)
(8.42305e-09 -3.04241e-06 0)
(8.25949e-09 -3.04772e-06 0)
(8.0956e-09 -3.05297e-06 0)
(7.9314e-09 -3.05818e-06 0)
(7.76694e-09 -3.06333e-06 0)
(7.60224e-09 -3.06843e-06 0)
(7.43734e-09 -3.07348e-06 0)
(7.27229e-09 -3.07847e-06 0)
(7.10712e-09 -3.08339e-06 0)
(6.94186e-09 -3.08826e-06 0)
(6.77657e-09 -3.09307e-06 0)
(6.61129e-09 -3.09781e-06 0)
(6.44605e-09 -3.10248e-06 0)
(6.28089e-09 -3.10708e-06 0)
(6.11587e-09 -3.11161e-06 0)
(5.95103e-09 -3.11607e-06 0)
(5.78641e-09 -3.12046e-06 0)
(5.62206e-09 -3.12476e-06 0)
(5.45802e-09 -3.12899e-06 0)
(5.29434e-09 -3.13314e-06 0)
(5.13107e-09 -3.13721e-06 0)
(4.96826e-09 -3.14119e-06 0)
(4.80596e-09 -3.14508e-06 0)
(4.64421e-09 -3.14888e-06 0)
(4.48307e-09 -3.1526e-06 0)
(4.32259e-09 -3.15622e-06 0)
(4.16282e-09 -3.15975e-06 0)
(4.00381e-09 -3.16318e-06 0)
(3.84561e-09 -3.16651e-06 0)
(3.68827e-09 -3.16975e-06 0)
(3.53185e-09 -3.17288e-06 0)
(3.3764e-09 -3.17591e-06 0)
(3.22198e-09 -3.17883e-06 0)
(3.06863e-09 -3.18165e-06 0)
(2.9164e-09 -3.18436e-06 0)
(2.76536e-09 -3.18695e-06 0)
(2.61556e-09 -3.18944e-06 0)
(2.46704e-09 -3.19181e-06 0)
(2.31987e-09 -3.19407e-06 0)
(2.17409e-09 -3.19622e-06 0)
(2.02976e-09 -3.19824e-06 0)
(1.88692e-09 -3.20015e-06 0)
(1.74563e-09 -3.20194e-06 0)
(1.60595e-09 -3.2036e-06 0)
(1.46792e-09 -3.20514e-06 0)
(1.33159e-09 -3.20656e-06 0)
(1.197e-09 -3.20785e-06 0)
(1.06422e-09 -3.20902e-06 0)
(9.33285e-10 -3.21006e-06 0)
(8.04241e-10 -3.21098e-06 0)
(6.77136e-10 -3.21176e-06 0)
(5.52015e-10 -3.21242e-06 0)
(4.28921e-10 -3.21294e-06 0)
(3.07898e-10 -3.21334e-06 0)
(1.88988e-10 -3.2136e-06 0)
(7.22321e-11 -3.21373e-06 0)
(-4.23305e-11 -3.21373e-06 0)
(-1.54661e-10 -3.2136e-06 0)
(-2.64721e-10 -3.21333e-06 0)
(-3.72475e-10 -3.21294e-06 0)
(-4.77887e-10 -3.21241e-06 0)
(-5.80924e-10 -3.21174e-06 0)
(-6.8155e-10 -3.21095e-06 0)
(-7.79748e-10 -3.21002e-06 0)
(-8.75432e-10 -3.20896e-06 0)
(-9.68802e-10 -3.20777e-06 0)
(-1.05888e-09 -3.20644e-06 0)
(-1.14968e-09 -3.20498e-06 0)
(-1.2451e-09 -3.20323e-06 0)
(-1.34184e-09 -3.20112e-06 0)
(-1.43617e-09 -3.19885e-06 0)
(-1.52603e-09 -3.19643e-06 0)
(-1.61123e-09 -3.19387e-06 0)
(-1.69184e-09 -3.19118e-06 0)
(-1.76795e-09 -3.18836e-06 0)
(-1.83967e-09 -3.18542e-06 0)
(-1.90712e-09 -3.18237e-06 0)
(-1.97043e-09 -3.17921e-06 0)
(-2.02974e-09 -3.17596e-06 0)
(-2.08517e-09 -3.17261e-06 0)
(-2.13683e-09 -3.16917e-06 0)
(-2.18483e-09 -3.16566e-06 0)
(-2.2293e-09 -3.16207e-06 0)
(-2.27034e-09 -3.15841e-06 0)
(-2.30806e-09 -3.15469e-06 0)
(-2.34255e-09 -3.15091e-06 0)
(-2.37393e-09 -3.14708e-06 0)
(-2.40228e-09 -3.1432e-06 0)
(-2.4277e-09 -3.13928e-06 0)
(-2.45028e-09 -3.13532e-06 0)
(-2.4701e-09 -3.13132e-06 0)
(-2.48727e-09 -3.12729e-06 0)
(-2.50184e-09 -3.12324e-06 0)
(-2.51391e-09 -3.11917e-06 0)
(-2.52355e-09 -3.11508e-06 0)
(-2.53083e-09 -3.11098e-06 0)
(-2.53583e-09 -3.10686e-06 0)
(-2.53861e-09 -3.10274e-06 0)
(-2.53924e-09 -3.09862e-06 0)
(-2.53778e-09 -3.0945e-06 0)
(-2.53429e-09 -3.09038e-06 0)
(-2.52884e-09 -3.08627e-06 0)
(-2.52148e-09 -3.08217e-06 0)
(-2.51227e-09 -3.07809e-06 0)
(-2.50125e-09 -3.07402e-06 0)
(-2.48849e-09 -3.06997e-06 0)
(-2.47403e-09 -3.06594e-06 0)
(-2.45791e-09 -3.06194e-06 0)
(-2.44019e-09 -3.05797e-06 0)
(-2.42091e-09 -3.05402e-06 0)
(-2.40011e-09 -3.05011e-06 0)
(-2.37783e-09 -3.04623e-06 0)
(-2.35412e-09 -3.04239e-06 0)
(-2.32901e-09 -3.03859e-06 0)
(-2.30253e-09 -3.03483e-06 0)
(-2.27474e-09 -3.03112e-06 0)
(-2.24566e-09 -3.02745e-06 0)
(-2.21532e-09 -3.02383e-06 0)
(-2.18377e-09 -3.02026e-06 0)
(-2.15102e-09 -3.01674e-06 0)
(-2.11712e-09 -3.01328e-06 0)
(-2.08209e-09 -3.00987e-06 0)
(-2.04596e-09 -3.00652e-06 0)
(-2.00877e-09 -3.00323e-06 0)
(-1.97054e-09 -3e-06 0)
(-1.93129e-09 -2.99683e-06 0)
(-1.89107e-09 -2.99373e-06 0)
(-1.84988e-09 -2.9907e-06 0)
(-1.80777e-09 -2.98773e-06 0)
(-1.76475e-09 -2.98483e-06 0)
(-1.72086e-09 -2.982e-06 0)
(-1.67611e-09 -2.97924e-06 0)
(-1.63054e-09 -2.97655e-06 0)
(-1.58417e-09 -2.97394e-06 0)
(-1.53702e-09 -2.97141e-06 0)
(-1.48912e-09 -2.96895e-06 0)
(-1.4405e-09 -2.96657e-06 0)
(-1.39118e-09 -2.96427e-06 0)
(-1.34118e-09 -2.96205e-06 0)
(-1.29053e-09 -2.95991e-06 0)
(-1.23925e-09 -2.95786e-06 0)
(-1.18738e-09 -2.95589e-06 0)
(-1.13493e-09 -2.954e-06 0)
(-1.08193e-09 -2.95219e-06 0)
(-1.0284e-09 -2.95048e-06 0)
(-9.7437e-10 -2.94885e-06 0)
(-9.19864e-10 -2.94731e-06 0)
(-8.64907e-10 -2.94586e-06 0)
(-8.09522e-10 -2.94449e-06 0)
(-7.53738e-10 -2.94322e-06 0)
(-6.97578e-10 -2.94203e-06 0)
(-6.41072e-10 -2.94095e-06 0)
(-5.84248e-10 -2.93994e-06 0)
(-5.2714e-10 -2.93905e-06 0)
(-4.69779e-10 -2.93817e-06 0)
(-4.12219e-10 -2.93766e-06 0)
(-3.54468e-10 -2.93634e-06 0)
(-2.96689e-10 -2.93804e-06 0)
(-2.3855e-10 -2.92996e-06 0)
(-1.81207e-10 -2.95346e-06 0)
(-1.21176e-10 -2.8648e-06 0)
(-6.91605e-11 -3.09994e-06 0)
(-2.45598e-11 -2.70745e-06 0)
)
;
    }
    bottomWall
    {
        type            calculated;
        value           nonuniform List<vector> 
449
(
(-48.503 -0.963683 0)
(-19.7436 -0.00515101 0)
(-14.343 -0.00113263 0)
(-12.0411 -0.00054268 0)
(-10.6463 -0.000346815 0)
(-9.67304 -0.000247095 0)
(-8.95519 -0.000179838 0)
(-8.43932 -0.000118214 0)
(-8.14273 -3.97008e-05 0)
(-8.16774 0.000108525 0)
(-8.89783 0.000285418 0)
(-10.1472 0.000324199 0)
(-11.1451 0.000230401 0)
(-11.7468 0.000133795 0)
(-12.0767 7.26157e-05 0)
(-12.2539 3.71902e-05 0)
(-12.337 1.48833e-05 0)
(-12.3582 -3.39459e-07 0)
(-12.3345 -1.0173e-05 0)
(-12.2864 -1.60838e-05 0)
(-12.2207 -1.99238e-05 0)
(-12.1451 -2.19777e-05 0)
(-12.0645 -2.28888e-05 0)
(-11.982 -2.31051e-05 0)
(-11.8995 -2.29088e-05 0)
(-11.8181 -2.24882e-05 0)
(-11.7382 -2.1926e-05 0)
(-11.6604 -2.12582e-05 0)
(-11.5849 -2.05474e-05 0)
(-11.5119 -1.98255e-05 0)
(-11.4414 -1.91108e-05 0)
(-11.3732 -1.84139e-05 0)
(-11.3074 -1.77419e-05 0)
(-11.2438 -1.70958e-05 0)
(-11.1824 -1.64884e-05 0)
(-11.123 -1.59192e-05 0)
(-11.0655 -1.537e-05 0)
(-11.0098 -1.48402e-05 0)
(-10.9559 -1.43368e-05 0)
(-10.9037 -1.38594e-05 0)
(-10.8532 -1.34058e-05 0)
(-10.8041 -1.29758e-05 0)
(-10.7565 -1.25698e-05 0)
(-10.7102 -1.21839e-05 0)
(-10.6653 -1.18168e-05 0)
(-10.6216 -1.14673e-05 0)
(-10.579 -1.11365e-05 0)
(-10.5376 -1.08195e-05 0)
(-10.4973 -1.0528e-05 0)
(-10.4579 -1.02718e-05 0)
(-10.4193 -1.00395e-05 0)
(-10.3815 -9.82133e-06 0)
(-10.3444 -9.60945e-06 0)
(-10.308 -9.40087e-06 0)
(-10.2723 -9.19622e-06 0)
(-10.2374 -8.99391e-06 0)
(-10.2031 -8.7959e-06 0)
(-10.1695 -8.60423e-06 0)
(-10.1365 -8.41679e-06 0)
(-10.1042 -8.23513e-06 0)
(-10.0725 -8.05984e-06 0)
(-10.0414 -7.89129e-06 0)
(-10.0109 -7.72726e-06 0)
(-9.9809 -7.56734e-06 0)
(-9.95148 -7.41209e-06 0)
(-9.9226 -7.26293e-06 0)
(-9.89422 -7.11905e-06 0)
(-9.86634 -6.9796e-06 0)
(-9.83894 -6.84351e-06 0)
(-9.812 -6.71559e-06 0)
(-9.78549 -6.59321e-06 0)
(-9.75941 -6.47022e-06 0)
(-9.73375 -6.34995e-06 0)
(-9.70851 -6.23445e-06 0)
(-9.68367 -6.12259e-06 0)
(-9.65921 -6.01236e-06 0)
(-9.63513 -5.90515e-06 0)
(-9.61143 -5.80056e-06 0)
(-9.58809 -5.699e-06 0)
(-9.5651 -5.60049e-06 0)
(-9.54246 -5.50469e-06 0)
(-9.52014 -5.41151e-06 0)
(-9.49815 -5.32123e-06 0)
(-9.47647 -5.23284e-06 0)
(-9.45511 -5.14677e-06 0)
(-9.43404 -5.06359e-06 0)
(-9.41326 -4.98276e-06 0)
(-9.39276 -4.90522e-06 0)
(-9.37253 -4.82884e-06 0)
(-9.35257 -4.75364e-06 0)
(-9.33287 -4.68072e-06 0)
(-9.31343 -4.60909e-06 0)
(-9.29424 -4.53985e-06 0)
(-9.27528 -4.47203e-06 0)
(-9.25657 -4.40504e-06 0)
(-9.2381 -4.34109e-06 0)
(-9.21984 -4.27784e-06 0)
(-9.20181 -4.21614e-06 0)
(-9.184 -4.15648e-06 0)
(-9.16639 -4.09717e-06 0)
(-9.149 -4.04304e-06 0)
(-9.13178 -3.99084e-06 0)
(-9.11475 -3.93648e-06 0)
(-9.09791 -3.88372e-06 0)
(-9.08126 -3.83126e-06 0)
(-9.0648 -3.77945e-06 0)
(-9.04851 -3.73015e-06 0)
(-9.0324 -3.68123e-06 0)
(-9.01647 -3.63264e-06 0)
(-9.00071 -3.58643e-06 0)
(-8.9851 -3.54055e-06 0)
(-8.96967 -3.49487e-06 0)
(-8.95439 -3.45158e-06 0)
(-8.93927 -3.40864e-06 0)
(-8.9243 -3.36571e-06 0)
(-8.90948 -3.32488e-06 0)
(-8.89481 -3.2846e-06 0)
(-8.88028 -3.24426e-06 0)
(-8.86589 -3.2056e-06 0)
(-8.85164 -3.16789e-06 0)
(-8.83752 -3.13002e-06 0)
(-8.82354 -3.09325e-06 0)
(-8.80969 -3.05793e-06 0)
(-8.79597 -3.02239e-06 0)
(-8.78237 -2.98725e-06 0)
(-8.7689 -2.95377e-06 0)
(-8.75554 -2.92058e-06 0)
(-8.74231 -2.88738e-06 0)
(-8.72919 -2.8553e-06 0)
(-8.71619 -2.82425e-06 0)
(-8.7033 -2.79307e-06 0)
(-8.69052 -2.76218e-06 0)
(-8.67786 -2.73269e-06 0)
(-8.66529 -2.70361e-06 0)
(-8.65283 -2.67429e-06 0)
(-8.64048 -2.64584e-06 0)
(-8.62823 -2.61865e-06 0)
(-8.61607 -2.59117e-06 0)
(-8.60402 -2.56359e-06 0)
(-8.59206 -2.53738e-06 0)
(-8.5802 -2.51189e-06 0)
(-8.56843 -2.48598e-06 0)
(-8.55675 -2.46041e-06 0)
(-8.54516 -2.43603e-06 0)
(-8.53366 -2.41191e-06 0)
(-8.52225 -2.38801e-06 0)
(-8.51093 -2.36616e-06 0)
(-8.49967 -2.345e-06 0)
(-8.48849 -2.32257e-06 0)
(-8.4774 -2.29967e-06 0)
(-8.46639 -2.27733e-06 0)
(-8.45546 -2.25581e-06 0)
(-8.44461 -2.23447e-06 0)
(-8.43383 -2.21301e-06 0)
(-8.42313 -2.19195e-06 0)
(-8.41251 -2.17166e-06 0)
(-8.40196 -2.15165e-06 0)
(-8.39149 -2.13149e-06 0)
(-8.38108 -2.11154e-06 0)
(-8.37075 -2.09237e-06 0)
(-8.36049 -2.07364e-06 0)
(-8.3503 -2.05467e-06 0)
(-8.34018 -2.03575e-06 0)
(-8.33012 -2.01758e-06 0)
(-8.32013 -2.00005e-06 0)
(-8.31021 -1.98221e-06 0)
(-8.30035 -1.96427e-06 0)
(-8.29055 -1.94698e-06 0)
(-8.28082 -1.93044e-06 0)
(-8.27115 -1.91364e-06 0)
(-8.26154 -1.89704e-06 0)
(-8.25199 -1.88037e-06 0)
(-8.24251 -1.86216e-06 0)
(-8.23362 -1.84891e-06 0)
(-8.22524 -1.83743e-06 0)
(-8.21683 -1.82149e-06 0)
(-8.20842 -1.8068e-06 0)
(-8.19997 -1.79333e-06 0)
(-8.19149 -1.77966e-06 0)
(-8.18299 -1.76578e-06 0)
(-8.17447 -1.75161e-06 0)
(-8.16592 -1.73801e-06 0)
(-8.15734 -1.72464e-06 0)
(-8.14874 -1.71129e-06 0)
(-8.14011 -1.69756e-06 0)
(-8.13146 -1.68375e-06 0)
(-8.12279 -1.67046e-06 0)
(-8.11409 -1.65734e-06 0)
(-8.10536 -1.6441e-06 0)
(-8.09662 -1.63063e-06 0)
(-8.08785 -1.61723e-06 0)
(-8.07905 -1.60423e-06 0)
(-8.07023 -1.59136e-06 0)
(-8.06139 -1.57829e-06 0)
(-8.05253 -1.56504e-06 0)
(-8.04364 -1.55208e-06 0)
(-8.03474 -1.53937e-06 0)
(-8.02581 -1.52674e-06 0)
(-8.01685 -1.51385e-06 0)
(-8.00788 -1.50091e-06 0)
(-7.99889 -1.48835e-06 0)
(-7.98987 -1.47597e-06 0)
(-7.98083 -1.46347e-06 0)
(-7.97177 -1.45083e-06 0)
(-7.9627 -1.43833e-06 0)
(-7.9536 -1.42614e-06 0)
(-7.94448 -1.41404e-06 0)
(-7.93534 -1.40173e-06 0)
(-7.92619 -1.38938e-06 0)
(-7.91701 -1.37763e-06 0)
(-7.90782 -1.3668e-06 0)
(-7.89859 -1.35573e-06 0)
(-7.88934 -1.34373e-06 0)
(-7.88008 -1.33179e-06 0)
(-7.87079 -1.32015e-06 0)
(-7.86149 -1.30847e-06 0)
(-7.85217 -1.29659e-06 0)
(-7.84284 -1.28485e-06 0)
(-7.83349 -1.27345e-06 0)
(-7.82412 -1.2621e-06 0)
(-7.81474 -1.25053e-06 0)
(-7.80534 -1.23898e-06 0)
(-7.79592 -1.2278e-06 0)
(-7.78649 -1.21676e-06 0)
(-7.77704 -1.20547e-06 0)
(-7.76758 -1.19413e-06 0)
(-7.75811 -1.18318e-06 0)
(-7.74862 -1.17241e-06 0)
(-7.73912 -1.16139e-06 0)
(-7.7296 -1.15029e-06 0)
(-7.72007 -1.13958e-06 0)
(-7.71053 -1.12906e-06 0)
(-7.70097 -1.1183e-06 0)
(-7.69141 -1.10746e-06 0)
(-7.68183 -1.09699e-06 0)
(-7.67224 -1.0867e-06 0)
(-7.66263 -1.07619e-06 0)
(-7.65302 -1.06563e-06 0)
(-7.6434 -1.05541e-06 0)
(-7.63376 -1.04536e-06 0)
(-7.62411 -1.03509e-06 0)
(-7.61446 -1.02481e-06 0)
(-7.6048 -1.01485e-06 0)
(-7.59512 -1.00502e-06 0)
(-7.58544 -9.95002e-07 0)
(-7.57575 -9.85001e-07 0)
(-7.56606 -9.75298e-07 0)
(-7.55635 -9.65678e-07 0)
(-7.54664 -9.55901e-07 0)
(-7.53692 -9.46196e-07 0)
(-7.52719 -9.36744e-07 0)
(-7.51746 -9.27322e-07 0)
(-7.50772 -9.17792e-07 0)
(-7.49797 -9.08386e-07 0)
(-7.48823 -8.99184e-07 0)
(-7.47847 -8.89971e-07 0)
(-7.46871 -8.80686e-07 0)
(-7.45895 -8.7157e-07 0)
(-7.44918 -8.62624e-07 0)
(-7.43941 -8.53626e-07 0)
(-7.42964 -8.44588e-07 0)
(-7.41986 -8.35752e-07 0)
(-7.41009 -8.27044e-07 0)
(-7.4003 -8.18261e-07 0)
(-7.39052 -8.09486e-07 0)
(-7.38074 -8.00932e-07 0)
(-7.37096 -7.92437e-07 0)
(-7.36117 -7.8388e-07 0)
(-7.35139 -7.75399e-07 0)
(-7.34161 -7.67099e-07 0)
(-7.33182 -7.58964e-07 0)
(-7.32204 -7.51179e-07 0)
(-7.31224 -7.43383e-07 0)
(-7.30245 -7.35341e-07 0)
(-7.29266 -7.27213e-07 0)
(-7.28287 -7.19117e-07 0)
(-7.27308 -7.11262e-07 0)
(-7.2633 -7.03479e-07 0)
(-7.25352 -6.9558e-07 0)
(-7.24375 -6.87759e-07 0)
(-7.23397 -6.8013e-07 0)
(-7.22421 -6.72454e-07 0)
(-7.21445 -6.6475e-07 0)
(-7.20469 -6.5725e-07 0)
(-7.19494 -6.49844e-07 0)
(-7.1852 -6.42358e-07 0)
(-7.17547 -6.34966e-07 0)
(-7.16574 -6.27759e-07 0)
(-7.15602 -6.20529e-07 0)
(-7.1463 -6.13257e-07 0)
(-7.1366 -6.0618e-07 0)
(-7.1269 -5.99182e-07 0)
(-7.11721 -5.92133e-07 0)
(-7.10754 -5.8516e-07 0)
(-7.09787 -5.7838e-07 0)
(-7.08821 -5.71556e-07 0)
(-7.07856 -5.64729e-07 0)
(-7.06893 -5.58074e-07 0)
(-7.0593 -5.51501e-07 0)
(-7.04968 -5.44866e-07 0)
(-7.04008 -5.38344e-07 0)
(-7.03049 -5.31968e-07 0)
(-7.0209 -5.2556e-07 0)
(-7.01134 -5.19155e-07 0)
(-7.00178 -5.12943e-07 0)
(-6.99224 -5.06752e-07 0)
(-6.98271 -5.00544e-07 0)
(-6.9732 -4.9445e-07 0)
(-6.9637 -4.88476e-07 0)
(-6.95421 -4.82456e-07 0)
(-6.94474 -4.76502e-07 0)
(-6.93528 -4.70695e-07 0)
(-6.92584 -4.64898e-07 0)
(-6.91641 -4.59097e-07 0)
(-6.907 -4.53445e-07 0)
(-6.8976 -4.47847e-07 0)
(-6.88822 -4.42247e-07 0)
(-6.87886 -4.36734e-07 0)
(-6.86951 -4.31345e-07 0)
(-6.86017 -4.25933e-07 0)
(-6.85086 -4.20574e-07 0)
(-6.84156 -4.15354e-07 0)
(-6.83228 -4.10163e-07 0)
(-6.82301 -4.04983e-07 0)
(-6.81377 -3.99919e-07 0)
(-6.80453 -3.94897e-07 0)
(-6.79532 -3.8987e-07 0)
(-6.78612 -3.84913e-07 0)
(-6.77695 -3.80058e-07 0)
(-6.76778 -3.7524e-07 0)
(-6.75864 -3.70609e-07 0)
(-6.74951 -3.66073e-07 0)
(-6.7404 -3.61419e-07 0)
(-6.7313 -3.56754e-07 0)
(-6.72223 -3.52188e-07 0)
(-6.71317 -3.47659e-07 0)
(-6.70414 -3.43147e-07 0)
(-6.69512 -3.38703e-07 0)
(-6.68612 -3.34338e-07 0)
(-6.67714 -3.29977e-07 0)
(-6.66819 -3.25669e-07 0)
(-6.65925 -3.21455e-07 0)
(-6.65034 -3.17254e-07 0)
(-6.64145 -3.13074e-07 0)
(-6.63258 -3.08999e-07 0)
(-6.62372 -3.04948e-07 0)
(-6.6149 -3.00921e-07 0)
(-6.60609 -2.96963e-07 0)
(-6.5973 -2.9306e-07 0)
(-6.58853 -2.89151e-07 0)
(-6.5798 -2.85343e-07 0)
(-6.57107 -2.81491e-07 0)
(-6.56239 -2.77828e-07 0)
(-6.5537 -2.74267e-07 0)
(-6.54408 -2.69935e-07 0)
(-6.53361 -2.65344e-07 0)
(-6.52333 -2.61222e-07 0)
(-6.51318 -2.57209e-07 0)
(-6.50322 -2.53207e-07 0)
(-6.49339 -2.49354e-07 0)
(-6.48372 -2.45572e-07 0)
(-6.47419 -2.41875e-07 0)
(-6.46481 -2.3829e-07 0)
(-6.45555 -2.34776e-07 0)
(-6.44645 -2.31326e-07 0)
(-6.43747 -2.2799e-07 0)
(-6.42863 -2.24715e-07 0)
(-6.4199 -2.21506e-07 0)
(-6.41131 -2.18408e-07 0)
(-6.40282 -2.15373e-07 0)
(-6.39447 -2.12393e-07 0)
(-6.38622 -2.09511e-07 0)
(-6.37809 -2.06688e-07 0)
(-6.37006 -2.03913e-07 0)
(-6.36214 -2.01218e-07 0)
(-6.35432 -1.98592e-07 0)
(-6.34662 -1.96009e-07 0)
(-6.339 -1.93491e-07 0)
(-6.33149 -1.91047e-07 0)
(-6.32406 -1.88644e-07 0)
(-6.31674 -1.86281e-07 0)
(-6.3095 -1.8399e-07 0)
(-6.30236 -1.81749e-07 0)
(-6.29529 -1.79535e-07 0)
(-6.28832 -1.77379e-07 0)
(-6.28142 -1.75282e-07 0)
(-6.27462 -1.73222e-07 0)
(-6.26788 -1.71187e-07 0)
(-6.26124 -1.69216e-07 0)
(-6.25465 -1.67287e-07 0)
(-6.24816 -1.65386e-07 0)
(-6.24172 -1.63524e-07 0)
(-6.23537 -1.61749e-07 0)
(-6.22908 -1.60007e-07 0)
(-6.22286 -1.5828e-07 0)
(-6.2167 -1.56568e-07 0)
(-6.21062 -1.54907e-07 0)
(-6.20459 -1.53262e-07 0)
(-6.19864 -1.51652e-07 0)
(-6.19274 -1.50057e-07 0)
(-6.18691 -1.48516e-07 0)
(-6.18113 -1.4699e-07 0)
(-6.17542 -1.45498e-07 0)
(-6.16975 -1.44005e-07 0)
(-6.16416 -1.42567e-07 0)
(-6.15861 -1.41136e-07 0)
(-6.15313 -1.39747e-07 0)
(-6.14768 -1.38347e-07 0)
(-6.14231 -1.37021e-07 0)
(-6.13697 -1.35691e-07 0)
(-6.1317 -1.34419e-07 0)
(-6.12646 -1.33115e-07 0)
(-6.1213 -1.31895e-07 0)
(-6.11615 -1.3065e-07 0)
(-6.11108 -1.29488e-07 0)
(-6.10603 -1.28273e-07 0)
(-6.10106 -1.27149e-07 0)
(-6.09609 -1.25979e-07 0)
(-6.09121 -1.24913e-07 0)
(-6.08632 -1.23773e-07 0)
(-6.08153 -1.22735e-07 0)
(-6.07673 -1.21615e-07 0)
(-6.07202 -1.20627e-07 0)
(-6.0673 -1.19552e-07 0)
(-6.06268 -1.18605e-07 0)
(-6.05802 -1.17547e-07 0)
(-6.05349 -1.16639e-07 0)
(-6.0489 -1.15625e-07 0)
(-6.04445 -1.14761e-07 0)
(-6.03993 -1.13775e-07 0)
(-6.03555 -1.12935e-07 0)
(-6.0311 -1.11985e-07 0)
(-6.0268 -1.11192e-07 0)
(-6.02241 -1.10293e-07 0)
(-6.01818 -1.0954e-07 0)
(-6.01385 -1.08693e-07 0)
(-6.00968 -1.07968e-07 0)
(-6.00541 -1.07257e-07 0)
(-6.0013 -1.06473e-07 0)
(-5.99708 -1.06154e-07 0)
(-5.993 -1.048e-07 0)
(-5.98889 -1.06033e-07 0)
(-5.9847 -1.01864e-07 0)
(-5.98094 -1.09343e-07 0)
(-5.97613 -9.34526e-08 0)
(-5.97368 -1.21638e-07 0)
(-5.96655 -7.34347e-08 0)
(-5.96808 -1.00648e-07 0)
(-5.95842 -1.28307e-07 0)
)
;
    }
    symmetry
    {
        type            symmetryPlane;
    }
    frontAndBack
    {
        type            empty;
    }
}


// ************************************************************************* //
