/*--------------------------------*- C++ -*----------------------------------*\
| =========                 |                                                 |
| \\      /  F ield         | OpenFOAM: The Open Source CFD Toolbox           |
|  \\    /   O peration     | Version:  v2012                                 |
|   \\  /    A nd           | Website:  www.openfoam.com                      |
|    \\/     M anipulation  |                                                 |
\*---------------------------------------------------------------------------*/
FoamFile
{
    version     2.0;
    format      ascii;
    class       volScalarField;
    location    "36.5";
    object      yPlus;
}
// * * * * * * * * * * * * * * * * * * * * * * * * * * * * * * * * * * * * * //

dimensions      [0 0 0 0 0 0 0];


internalField   uniform 0;

boundaryField
{
    inlet
    {
        type            calculated;
        value           uniform 0;
    }
    outlet
    {
        type            calculated;
        value           uniform 0;
    }
    topWall
    {
        type            calculated;
        value           nonuniform List<scalar> 
545
(
0.111292
0.191902
0.246192
0.289397
0.325975
0.357982
0.386572
0.412472
0.436178
0.458044
0.478338
0.497266
0.51499
0.531644
0.547338
0.562163
0.576198
0.589509
0.602156
0.614188
0.625652
0.636586
0.647027
0.657006
0.666554
0.675695
0.684454
0.692853
0.700912
0.708649
0.716081
0.723225
0.730095
0.736704
0.743065
0.749191
0.755091
0.760777
0.766258
0.771544
0.776642
0.781562
0.78631
0.790895
0.795322
0.799599
0.803731
0.807725
0.811585
0.815318
0.818927
0.822419
0.825797
0.829065
0.832229
0.835291
0.838255
0.841126
0.843906
0.846599
0.849207
0.851734
0.854183
0.856557
0.858857
0.861087
0.863249
0.865346
0.867379
0.86935
0.871262
0.873117
0.874893
0.876612
0.878317
0.880009
0.881687
0.883352
0.885004
0.886643
0.888269
0.889882
0.891483
0.893071
0.894647
0.896211
0.897763
0.899303
0.90083
0.902347
0.903851
0.905344
0.906826
0.908296
0.909755
0.911203
0.912508
0.913675
0.914842
0.916009
0.917176
0.918342
0.919509
0.920675
0.921841
0.923007
0.924173
0.925339
0.926504
0.927669
0.928835
0.929999
0.931164
0.932329
0.933493
0.934657
0.935821
0.936984
0.938147
0.93931
0.940473
0.941635
0.942798
0.943959
0.945121
0.946282
0.947443
0.948604
0.949764
0.950924
0.952084
0.953243
0.954402
0.955561
0.956719
0.957877
0.959034
0.960191
0.961348
0.962504
0.96366
0.964815
0.96597
0.967124
0.968278
0.969432
0.970585
0.971738
0.97289
0.974041
0.975192
0.976343
0.977493
0.978642
0.979791
0.98094
0.982088
0.983235
0.984382
0.985528
0.986673
0.987818
0.988962
0.990106
0.991249
0.992392
0.993533
0.994674
0.995815
0.996954
0.998093
0.999232
1.00037
1.00151
1.00264
1.00378
1.00491
1.00605
1.00718
1.00831
1.00944
1.01057
1.0117
1.01283
1.01396
1.01509
1.01622
1.01734
1.01847
1.01959
1.02071
1.02183
1.02296
1.02408
1.0252
1.02631
1.02743
1.02855
1.02966
1.03078
1.03189
1.033
1.03412
1.03523
1.03633
1.03744
1.03855
1.03966
1.04076
1.04187
1.04297
1.04407
1.04517
1.04627
1.04737
1.04846
1.04956
1.05065
1.05175
1.05284
1.05393
1.05502
1.05611
1.0572
1.05828
1.05937
1.06045
1.06153
1.06261
1.06369
1.06477
1.06584
1.06692
1.06799
1.06906
1.07013
1.0712
1.07227
1.07334
1.0744
1.07547
1.07653
1.07759
1.07865
1.0797
1.08076
1.08181
1.08287
1.08392
1.08497
1.08601
1.08706
1.0881
1.08915
1.09019
1.09123
1.09226
1.0933
1.09433
1.09537
1.0964
1.09742
1.09845
1.09948
1.1005
1.10152
1.10254
1.10356
1.10457
1.10553
1.10643
1.10734
1.10826
1.10918
1.11011
1.11105
1.11199
1.11293
1.11389
1.11485
1.11582
1.11679
1.11777
1.11875
1.11974
1.12074
1.12175
1.12276
1.12377
1.1248
1.12583
1.12686
1.1279
1.12895
1.13
1.13106
1.13212
1.1332
1.13427
1.13535
1.13644
1.13754
1.13863
1.13974
1.14085
1.14197
1.14309
1.14421
1.14535
1.14648
1.14762
1.14877
1.14992
1.15108
1.15224
1.15341
1.15458
1.15576
1.15694
1.15812
1.15931
1.1605
1.1617
1.1629
1.16411
1.16531
1.16652
1.16774
1.16896
1.17018
1.1714
1.17263
1.17386
1.17509
1.17633
1.17757
1.17881
1.18005
1.18129
1.18253
1.18378
1.18503
1.18628
1.18752
1.18877
1.19002
1.19127
1.19252
1.19377
1.19502
1.19627
1.19752
1.19877
1.20001
1.20126
1.2025
1.20374
1.20498
1.20621
1.20745
1.20868
1.2099
1.21113
1.21234
1.21356
1.21477
1.21597
1.21717
1.21837
1.21956
1.22074
1.22192
1.22309
1.22425
1.22541
1.22656
1.2277
1.22883
1.22995
1.23107
1.23217
1.23327
1.23436
1.23543
1.2365
1.23755
1.2386
1.23963
1.24065
1.24165
1.24265
1.24363
1.2446
1.24555
1.24649
1.24742
1.24833
1.24922
1.2501
1.25096
1.25181
1.25264
1.25345
1.25425
1.25503
1.25579
1.25653
1.25725
1.25795
1.25864
1.2593
1.25995
1.26057
1.26117
1.26175
1.26231
1.26285
1.26337
1.26386
1.26433
1.26478
1.2652
1.26561
1.26598
1.26634
1.26667
1.26697
1.26726
1.26751
1.26774
1.26795
1.26813
1.26829
1.26842
1.26852
1.2686
1.26865
1.26868
1.26868
1.26866
1.2686
1.26853
1.26842
1.26829
1.26814
1.26795
1.26774
1.26751
1.26725
1.26696
1.26661
1.2662
1.26575
1.26527
1.26477
1.26423
1.26368
1.26309
1.26249
1.26186
1.26122
1.26055
1.25987
1.25918
1.25846
1.25773
1.25699
1.25624
1.25548
1.2547
1.25392
1.25313
1.25233
1.25153
1.25072
1.2499
1.24908
1.24826
1.24743
1.24661
1.24578
1.24495
1.24412
1.2433
1.24247
1.24165
1.24083
1.24001
1.2392
1.23839
1.23758
1.23678
1.23599
1.23521
1.23443
1.23366
1.23289
1.23214
1.23139
1.23066
1.22993
1.22922
1.22851
1.22782
1.22713
1.22646
1.2258
1.22515
1.22452
1.2239
1.22329
1.2227
1.22212
1.22155
1.221
1.22047
1.21995
1.21944
1.21895
1.21848
1.21802
1.21759
1.21716
1.21676
1.21637
1.216
1.21564
1.21531
1.21499
1.21469
1.21441
1.21415
1.2139
1.21368
1.21347
1.21329
1.21312
1.21297
1.21284
1.21273
1.21264
1.21257
1.21251
1.21248
1.21246
)
;
    }
    bottomWall
    {
        type            calculated;
        value           nonuniform List<scalar> 
449
(
0.139411
0.0889437
0.0758091
0.0694599
0.0653133
0.0622563
0.0599017
0.0581508
0.0571199
0.0572075
0.0597096
0.0637641
0.0668257
0.068606
0.0695627
0.0700711
0.0703084
0.0703687
0.0703012
0.0701639
0.0699761
0.0697593
0.0695275
0.0692894
0.0690504
0.0688137
0.0685808
0.0683531
0.0681317
0.0679166
0.0677081
0.0675062
0.0673105
0.067121
0.0669375
0.0667594
0.0665866
0.0664189
0.0662562
0.0660982
0.0659447
0.0657955
0.0656504
0.0655091
0.0653715
0.0652374
0.0651066
0.064979
0.0648546
0.0647327
0.0646132
0.0644958
0.0643805
0.0642672
0.0641559
0.0640466
0.0639393
0.0638339
0.0637303
0.0636287
0.0635288
0.0634306
0.0633341
0.0632393
0.063146
0.0630543
0.0629641
0.0628753
0.0627879
0.0627019
0.0626172
0.0625336
0.0624514
0.0623704
0.0622905
0.0622118
0.0621342
0.0620577
0.0619824
0.061908
0.0618347
0.0617623
0.061691
0.0616205
0.061551
0.0614824
0.0614147
0.0613478
0.0612817
0.0612164
0.0611519
0.0610881
0.0610252
0.0609629
0.0609014
0.0608406
0.0607804
0.060721
0.0606622
0.060604
0.0605465
0.0604895
0.060433
0.0603772
0.0603219
0.0602672
0.0602131
0.0601594
0.0601063
0.0600538
0.0600017
0.0599501
0.0598991
0.0598485
0.0597983
0.0597487
0.0596994
0.0596507
0.0596023
0.0595544
0.0595069
0.0594598
0.0594131
0.0593668
0.0593209
0.0592754
0.0592303
0.0591855
0.0591411
0.059097
0.0590533
0.0590099
0.0589669
0.0589242
0.0588818
0.0588398
0.058798
0.0587566
0.0587155
0.0586747
0.0586342
0.0585939
0.058554
0.0585143
0.0584749
0.0584358
0.058397
0.0583584
0.05832
0.0582819
0.058244
0.0582064
0.058169
0.0581319
0.058095
0.0580584
0.058022
0.0579858
0.0579498
0.0579141
0.0578786
0.0578433
0.0578082
0.0577734
0.0577387
0.0577043
0.05767
0.057636
0.0576022
0.0575685
0.0575351
0.0575018
0.0574687
0.0574377
0.0574085
0.0573792
0.0573498
0.0573203
0.0572906
0.0572609
0.0572311
0.0572011
0.0571711
0.0571409
0.0571107
0.0570803
0.0570499
0.0570193
0.0569886
0.0569579
0.056927
0.0568961
0.056865
0.0568338
0.0568026
0.0567712
0.0567398
0.0567083
0.0566766
0.0566449
0.0566131
0.0565812
0.0565492
0.0565171
0.0564849
0.0564526
0.0564202
0.0563878
0.0563552
0.0563226
0.0562899
0.056257
0.0562241
0.0561911
0.056158
0.0561248
0.0560915
0.0560581
0.0560247
0.0559912
0.0559576
0.055924
0.0558902
0.0558564
0.0558225
0.0557885
0.0557545
0.0557204
0.0556862
0.055652
0.0556177
0.0555833
0.0555488
0.0555143
0.0554797
0.0554451
0.0554104
0.0553756
0.0553408
0.0553059
0.0552709
0.0552359
0.0552009
0.0551657
0.0551306
0.0550953
0.0550601
0.0550247
0.0549894
0.0549539
0.0549185
0.054883
0.0548474
0.0548118
0.0547761
0.0547405
0.0547047
0.054669
0.0546332
0.0545973
0.0545614
0.0545255
0.0544896
0.0544536
0.0544176
0.0543816
0.0543455
0.0543095
0.0542734
0.0542372
0.0542011
0.0541649
0.0541287
0.0540924
0.0540561
0.0540198
0.0539835
0.0539472
0.0539109
0.0538746
0.0538382
0.0538018
0.0537655
0.0537291
0.0536928
0.0536564
0.05362
0.0535837
0.0535473
0.053511
0.0534746
0.0534383
0.0534019
0.0533656
0.0533293
0.053293
0.0532567
0.0532205
0.0531842
0.053148
0.0531118
0.0530756
0.0530394
0.0530032
0.0529671
0.052931
0.0528949
0.0528589
0.0528229
0.0527869
0.0527509
0.052715
0.0526791
0.0526432
0.0526074
0.0525716
0.0525358
0.0525001
0.0524644
0.0524288
0.0523932
0.0523576
0.0523221
0.0522866
0.0522511
0.0522157
0.0521803
0.052145
0.0521098
0.0520745
0.0520393
0.0520042
0.0519691
0.051934
0.051899
0.051864
0.0518291
0.0517942
0.0517594
0.0517246
0.05169
0.0516553
0.0516207
0.0515862
0.0515517
0.0515173
0.051483
0.0514487
0.0514145
0.0513803
0.0513462
0.0513121
0.0512782
0.0512443
0.0512066
0.0511657
0.0511254
0.0510856
0.0510465
0.0510079
0.0509699
0.0509325
0.0508956
0.0508591
0.0508232
0.0507878
0.0507529
0.0507185
0.0506845
0.050651
0.0506179
0.0505852
0.050553
0.0505212
0.0504898
0.0504588
0.0504282
0.0503979
0.050368
0.0503385
0.0503093
0.0502805
0.050252
0.0502238
0.050196
0.0501685
0.0501413
0.0501144
0.0500878
0.0500615
0.0500355
0.0500097
0.0499843
0.049959
0.0499341
0.0499094
0.049885
0.0498607
0.0498368
0.0498131
0.0497896
0.0497664
0.0497434
0.0497205
0.049698
0.0496756
0.0496535
0.0496315
0.0496099
0.0495883
0.049567
0.0495458
0.0495249
0.0495041
0.0494836
0.0494631
0.049443
0.0494228
0.049403
0.0493832
0.0493638
0.0493443
0.0493252
0.049306
0.0492872
0.0492683
0.0492498
0.0492312
0.0492131
0.0491947
0.0491768
0.0491587
0.0491412
0.0491233
0.049106
0.0490883
0.0490713
0.0490539
0.0490371
0.0490199
0.0490032
0.0489864
0.0489692
0.0489538
0.0489342
0.0489241
0.0488949
0.0489012
0.0488616
)
;
    }
    symmetry
    {
        type            symmetryPlane;
    }
    frontAndBack
    {
        type            empty;
    }
}


// ************************************************************************* //
