/*--------------------------------*- C++ -*----------------------------------*\
| =========                 |                                                 |
| \\      /  F ield         | OpenFOAM: The Open Source CFD Toolbox           |
|  \\    /   O peration     | Version:  v2012                                 |
|   \\  /    A nd           | Website:  www.openfoam.com                      |
|    \\/     M anipulation  |                                                 |
\*---------------------------------------------------------------------------*/
FoamFile
{
    version     2.0;
    format      ascii;
    class       volScalarField;
    location    "9.5";
    object      nut;
}
// * * * * * * * * * * * * * * * * * * * * * * * * * * * * * * * * * * * * * //

dimensions      [0 2 -1 0 0 0 0];


internalField   nonuniform List<scalar> 
209825
(
1.20726e-07
1.13995e-07
1.10149e-07
1.07793e-07
1.06183e-07
1.0502e-07
1.04128e-07
1.03439e-07
1.02875e-07
1.02425e-07
1.02039e-07
1.01727e-07
1.01448e-07
1.01218e-07
1.01015e-07
1.00847e-07
1.00691e-07
1.00563e-07
1.00439e-07
1.0034e-07
1.00239e-07
1.00161e-07
1.00084e-07
1.00025e-07
9.99601e-08
9.99141e-08
9.98652e-08
9.98321e-08
9.97868e-08
9.97645e-08
9.97446e-08
9.97246e-08
9.97021e-08
9.96828e-08
9.96561e-08
9.9642e-08
9.96314e-08
9.96166e-08
9.96045e-08
9.95909e-08
9.9571e-08
9.9558e-08
9.95497e-08
9.95375e-08
9.95258e-08
9.95126e-08
9.95053e-08
9.94842e-08
9.94806e-08
9.94693e-08
9.94522e-08
9.94508e-08
9.94508e-08
9.94504e-08
9.9437e-08
9.9458e-08
9.94421e-08
9.94345e-08
9.94242e-08
9.94418e-08
9.94413e-08
9.94409e-08
9.94614e-08
9.94877e-08
9.94877e-08
9.94876e-08
9.95042e-08
9.9549e-08
9.95498e-08
9.95276e-08
9.95509e-08
9.96072e-08
9.96435e-08
9.96872e-08
9.97208e-08
9.96997e-08
9.97219e-08
9.97634e-08
9.98127e-08
9.98706e-08
9.99295e-08
9.99854e-08
1.00024e-07
1.00075e-07
1.00154e-07
1.00248e-07
1.00344e-07
1.00477e-07
1.00599e-07
1.00815e-07
1.00929e-07
1.01418e-07
1.01495e-07
1.02606e-07
4.14162e-07
6.88833e-10
1.20727e-07
1.13997e-07
1.1015e-07
1.07794e-07
1.06183e-07
1.0502e-07
1.04128e-07
1.03437e-07
1.02874e-07
1.02424e-07
1.02037e-07
1.01725e-07
1.01446e-07
1.01216e-07
1.01013e-07
1.00845e-07
1.00688e-07
1.00561e-07
1.00436e-07
1.00337e-07
1.00237e-07
1.00158e-07
1.00081e-07
1.00022e-07
9.99573e-08
9.99112e-08
9.98624e-08
9.98291e-08
9.97839e-08
9.97615e-08
9.97415e-08
9.97216e-08
9.96991e-08
9.96797e-08
9.9653e-08
9.96389e-08
9.96283e-08
9.96135e-08
9.96013e-08
9.95877e-08
9.95678e-08
9.95548e-08
9.95465e-08
9.95342e-08
9.95226e-08
9.95094e-08
9.95021e-08
9.9481e-08
9.94773e-08
9.9466e-08
9.9449e-08
9.94476e-08
9.94475e-08
9.94471e-08
9.94337e-08
9.94547e-08
9.94388e-08
9.94312e-08
9.94209e-08
9.94385e-08
9.9438e-08
9.94375e-08
9.94581e-08
9.94844e-08
9.94844e-08
9.94843e-08
9.95009e-08
9.95457e-08
9.95464e-08
9.95243e-08
9.95476e-08
9.96038e-08
9.96401e-08
9.96838e-08
9.97175e-08
9.96964e-08
9.97186e-08
9.976e-08
9.98093e-08
9.98672e-08
9.99262e-08
9.99821e-08
1.00021e-07
1.00072e-07
1.00151e-07
1.00245e-07
1.00341e-07
1.00474e-07
1.00595e-07
1.00811e-07
1.00926e-07
1.01414e-07
1.01492e-07
1.02605e-07
4.14545e-07
7.02632e-10
1.20731e-07
1.14002e-07
1.10153e-07
1.07795e-07
1.06183e-07
1.05018e-07
1.04125e-07
1.03433e-07
1.02869e-07
1.02418e-07
1.02031e-07
1.01718e-07
1.01439e-07
1.01208e-07
1.01005e-07
1.00837e-07
1.0068e-07
1.00551e-07
1.00427e-07
1.00327e-07
1.00227e-07
1.00148e-07
1.00071e-07
1.00012e-07
9.99468e-08
9.99006e-08
9.98516e-08
9.98182e-08
9.97728e-08
9.97504e-08
9.97303e-08
9.97103e-08
9.96877e-08
9.96682e-08
9.96415e-08
9.96273e-08
9.96167e-08
9.96018e-08
9.95896e-08
9.9576e-08
9.9556e-08
9.9543e-08
9.95346e-08
9.95223e-08
9.95106e-08
9.94974e-08
9.94901e-08
9.94689e-08
9.94653e-08
9.9454e-08
9.94369e-08
9.94354e-08
9.94353e-08
9.9435e-08
9.94215e-08
9.94425e-08
9.94266e-08
9.94189e-08
9.94085e-08
9.94261e-08
9.94257e-08
9.94252e-08
9.94457e-08
9.9472e-08
9.9472e-08
9.94719e-08
9.94885e-08
9.95333e-08
9.9534e-08
9.95119e-08
9.95351e-08
9.95914e-08
9.96277e-08
9.96714e-08
9.97051e-08
9.96841e-08
9.97062e-08
9.97477e-08
9.9797e-08
9.98549e-08
9.99138e-08
9.99697e-08
1.00009e-07
1.0006e-07
1.00139e-07
1.00233e-07
1.00329e-07
1.00462e-07
1.00583e-07
1.00799e-07
1.00914e-07
1.01402e-07
1.01479e-07
1.02596e-07
4.15594e-07
7.23526e-10
1.20738e-07
1.1401e-07
1.10159e-07
1.07797e-07
1.06182e-07
1.05015e-07
1.0412e-07
1.03427e-07
1.02861e-07
1.02409e-07
1.0202e-07
1.01707e-07
1.01427e-07
1.01196e-07
1.00991e-07
1.00822e-07
1.00665e-07
1.00536e-07
1.00411e-07
1.00311e-07
1.00211e-07
1.00131e-07
1.00054e-07
9.99945e-08
9.99293e-08
9.98829e-08
9.98337e-08
9.98002e-08
9.97546e-08
9.9732e-08
9.97117e-08
9.96916e-08
9.96689e-08
9.96493e-08
9.96224e-08
9.96081e-08
9.95974e-08
9.95825e-08
9.95701e-08
9.95565e-08
9.95364e-08
9.95234e-08
9.95149e-08
9.95026e-08
9.94908e-08
9.94775e-08
9.94702e-08
9.9449e-08
9.94453e-08
9.9434e-08
9.94168e-08
9.94152e-08
9.94151e-08
9.94148e-08
9.94012e-08
9.94222e-08
9.94062e-08
9.93985e-08
9.93881e-08
9.94057e-08
9.94052e-08
9.94048e-08
9.94253e-08
9.94515e-08
9.94515e-08
9.94514e-08
9.94679e-08
9.95127e-08
9.95135e-08
9.94914e-08
9.95144e-08
9.95707e-08
9.96071e-08
9.96507e-08
9.96846e-08
9.96638e-08
9.96858e-08
9.97272e-08
9.97764e-08
9.98343e-08
9.98932e-08
9.99493e-08
9.99882e-08
1.0004e-07
1.00118e-07
1.00212e-07
1.00308e-07
1.00442e-07
1.00563e-07
1.00779e-07
1.00893e-07
1.01381e-07
1.01458e-07
1.0258e-07
4.17295e-07
7.49638e-10
1.20749e-07
1.14023e-07
1.10167e-07
1.078e-07
1.06182e-07
1.05011e-07
1.04113e-07
1.03418e-07
1.02849e-07
1.02396e-07
1.02006e-07
1.01691e-07
1.0141e-07
1.01177e-07
1.00972e-07
1.00803e-07
1.00644e-07
1.00515e-07
1.00389e-07
1.00289e-07
1.00188e-07
1.00108e-07
1.0003e-07
9.99704e-08
9.99049e-08
9.98582e-08
9.98086e-08
9.97748e-08
9.9729e-08
9.97062e-08
9.96856e-08
9.96653e-08
9.96424e-08
9.96227e-08
9.95957e-08
9.95812e-08
9.95704e-08
9.95554e-08
9.95429e-08
9.95291e-08
9.9509e-08
9.94958e-08
9.94872e-08
9.94749e-08
9.94631e-08
9.94497e-08
9.94423e-08
9.94211e-08
9.94173e-08
9.94059e-08
9.93886e-08
9.93868e-08
9.93868e-08
9.93864e-08
9.93728e-08
9.93937e-08
9.93777e-08
9.93699e-08
9.93594e-08
9.93769e-08
9.93765e-08
9.93761e-08
9.93965e-08
9.94226e-08
9.94227e-08
9.94225e-08
9.9439e-08
9.94838e-08
9.94848e-08
9.94626e-08
9.94854e-08
9.95418e-08
9.95782e-08
9.96218e-08
9.96558e-08
9.96352e-08
9.96571e-08
9.96985e-08
9.97476e-08
9.98055e-08
9.98644e-08
9.99205e-08
9.99596e-08
1.00011e-07
1.0009e-07
1.00184e-07
1.0028e-07
1.00413e-07
1.00534e-07
1.0075e-07
1.00865e-07
1.01352e-07
1.01429e-07
1.02557e-07
4.19676e-07
7.80253e-10
1.20763e-07
1.14039e-07
1.10177e-07
1.07805e-07
1.06181e-07
1.05006e-07
1.04104e-07
1.03406e-07
1.02835e-07
1.02379e-07
1.01987e-07
1.0167e-07
1.01388e-07
1.01154e-07
1.00948e-07
1.00777e-07
1.00618e-07
1.00488e-07
1.00361e-07
1.0026e-07
1.00158e-07
1.00078e-07
9.99993e-08
9.99393e-08
9.98733e-08
9.98262e-08
9.97763e-08
9.97421e-08
9.9696e-08
9.96728e-08
9.96519e-08
9.96314e-08
9.96083e-08
9.95883e-08
9.95611e-08
9.95465e-08
9.95354e-08
9.95203e-08
9.95076e-08
9.94938e-08
9.94735e-08
9.94602e-08
9.94515e-08
9.94391e-08
9.94272e-08
9.94137e-08
9.94063e-08
9.93849e-08
9.9381e-08
9.93696e-08
9.93522e-08
9.93502e-08
9.93502e-08
9.93498e-08
9.9336e-08
9.93569e-08
9.93408e-08
9.93329e-08
9.93223e-08
9.93398e-08
9.93394e-08
9.9339e-08
9.93594e-08
9.93854e-08
9.93854e-08
9.93853e-08
9.94016e-08
9.94464e-08
9.94476e-08
9.94254e-08
9.94479e-08
9.95044e-08
9.95409e-08
9.95843e-08
9.96185e-08
9.95982e-08
9.962e-08
9.96613e-08
9.97103e-08
9.97681e-08
9.98271e-08
9.98834e-08
9.99226e-08
9.9974e-08
1.00053e-07
1.00147e-07
1.00242e-07
1.00376e-07
1.00497e-07
1.00713e-07
1.00828e-07
1.01314e-07
1.01391e-07
1.02527e-07
4.22768e-07
8.15074e-10
1.20779e-07
1.14058e-07
1.1019e-07
1.0781e-07
1.0618e-07
1.05e-07
1.04094e-07
1.03391e-07
1.02817e-07
1.02358e-07
1.01964e-07
1.01645e-07
1.01361e-07
1.01125e-07
1.00917e-07
1.00746e-07
1.00585e-07
1.00454e-07
1.00327e-07
1.00225e-07
1.00122e-07
1.00041e-07
9.99616e-08
9.9901e-08
9.98345e-08
9.97868e-08
9.97364e-08
9.97018e-08
9.96553e-08
9.96317e-08
9.96104e-08
9.95896e-08
9.95662e-08
9.9546e-08
9.95185e-08
9.95037e-08
9.94924e-08
9.94771e-08
9.94642e-08
9.94503e-08
9.94298e-08
9.94164e-08
9.94075e-08
9.9395e-08
9.9383e-08
9.93694e-08
9.93619e-08
9.93405e-08
9.93364e-08
9.93249e-08
9.93073e-08
9.93051e-08
9.93051e-08
9.93047e-08
9.92907e-08
9.93115e-08
9.92954e-08
9.92873e-08
9.92767e-08
9.9294e-08
9.92937e-08
9.92933e-08
9.93136e-08
9.93395e-08
9.93395e-08
9.93394e-08
9.93556e-08
9.94004e-08
9.94018e-08
9.93795e-08
9.94017e-08
9.94582e-08
9.94948e-08
9.95381e-08
9.95725e-08
9.95527e-08
9.95743e-08
9.96154e-08
9.96643e-08
9.97222e-08
9.97811e-08
9.98375e-08
9.98769e-08
9.99285e-08
1.00007e-07
1.00101e-07
1.00197e-07
1.00331e-07
1.00451e-07
1.00668e-07
1.00783e-07
1.01268e-07
1.01344e-07
1.02491e-07
4.26603e-07
8.54035e-10
1.20799e-07
1.14082e-07
1.10205e-07
1.07817e-07
1.06179e-07
1.04993e-07
1.04081e-07
1.03374e-07
1.02796e-07
1.02334e-07
1.01937e-07
1.01615e-07
1.01328e-07
1.01091e-07
1.00882e-07
1.00708e-07
1.00546e-07
1.00414e-07
1.00285e-07
1.00182e-07
1.00079e-07
9.99968e-08
9.99168e-08
9.98554e-08
9.97882e-08
9.97399e-08
9.96889e-08
9.96538e-08
9.96068e-08
9.95827e-08
9.9561e-08
9.95398e-08
9.95161e-08
9.94956e-08
9.94678e-08
9.94527e-08
9.94412e-08
9.94257e-08
9.94125e-08
9.93984e-08
9.93778e-08
9.93642e-08
9.93551e-08
9.93425e-08
9.93303e-08
9.93166e-08
9.9309e-08
9.92874e-08
9.92833e-08
9.92716e-08
9.92538e-08
9.92514e-08
9.92513e-08
9.92509e-08
9.92368e-08
9.92575e-08
9.92413e-08
9.9233e-08
9.92222e-08
9.92395e-08
9.92393e-08
9.92388e-08
9.92591e-08
9.92848e-08
9.92848e-08
9.92847e-08
9.93008e-08
9.93455e-08
9.93472e-08
9.93249e-08
9.93466e-08
9.94032e-08
9.94399e-08
9.94831e-08
9.95178e-08
9.94984e-08
9.95198e-08
9.95608e-08
9.96095e-08
9.96673e-08
9.97262e-08
9.97829e-08
9.98225e-08
9.98741e-08
9.99524e-08
1.00047e-07
1.00142e-07
1.00276e-07
1.00396e-07
1.00613e-07
1.00728e-07
1.01212e-07
1.01289e-07
1.02447e-07
4.31212e-07
8.97245e-10
1.20823e-07
1.14109e-07
1.10223e-07
1.07825e-07
1.06178e-07
1.04985e-07
1.04066e-07
1.03354e-07
1.02772e-07
1.02306e-07
1.01905e-07
1.01581e-07
1.01291e-07
1.01052e-07
1.0084e-07
1.00665e-07
1.00501e-07
1.00367e-07
1.00237e-07
1.00133e-07
1.00029e-07
9.99456e-08
9.98645e-08
9.98023e-08
9.97344e-08
9.96854e-08
9.96337e-08
9.9598e-08
9.95504e-08
9.95257e-08
9.95035e-08
9.94819e-08
9.94578e-08
9.9437e-08
9.94087e-08
9.93933e-08
9.93816e-08
9.93658e-08
9.93524e-08
9.9338e-08
9.93171e-08
9.93034e-08
9.9294e-08
9.92813e-08
9.9269e-08
9.92551e-08
9.92474e-08
9.92257e-08
9.92214e-08
9.92096e-08
9.91916e-08
9.91889e-08
9.91888e-08
9.91883e-08
9.91739e-08
9.91945e-08
9.91783e-08
9.91698e-08
9.91589e-08
9.91761e-08
9.91759e-08
9.91754e-08
9.91955e-08
9.92211e-08
9.92211e-08
9.9221e-08
9.92369e-08
9.92817e-08
9.92836e-08
9.92612e-08
9.92824e-08
9.93392e-08
9.9376e-08
9.94189e-08
9.9454e-08
9.94351e-08
9.94563e-08
9.94971e-08
9.95457e-08
9.96035e-08
9.96623e-08
9.97193e-08
9.97591e-08
9.98108e-08
9.98889e-08
9.99832e-08
1.00079e-07
1.00213e-07
1.00332e-07
1.0055e-07
1.00665e-07
1.01147e-07
1.01224e-07
1.02396e-07
4.36626e-07
9.44961e-10
1.20849e-07
1.1414e-07
1.10244e-07
1.07834e-07
1.06177e-07
1.04975e-07
1.0405e-07
1.03332e-07
1.02744e-07
1.02273e-07
1.01869e-07
1.01541e-07
1.01249e-07
1.01007e-07
1.00792e-07
1.00615e-07
1.0045e-07
1.00314e-07
1.00183e-07
1.00077e-07
9.99711e-08
9.9887e-08
9.98049e-08
9.97417e-08
9.96729e-08
9.9623e-08
9.95706e-08
9.95341e-08
9.94859e-08
9.94606e-08
9.94377e-08
9.94156e-08
9.93911e-08
9.93699e-08
9.93412e-08
9.93254e-08
9.93133e-08
9.92973e-08
9.92835e-08
9.92689e-08
9.92478e-08
9.92338e-08
9.92242e-08
9.92113e-08
9.91988e-08
9.91847e-08
9.91769e-08
9.91551e-08
9.91505e-08
9.91386e-08
9.91204e-08
9.91173e-08
9.91172e-08
9.91167e-08
9.91021e-08
9.91225e-08
9.91062e-08
9.90975e-08
9.90863e-08
9.91035e-08
9.91033e-08
9.91028e-08
9.91229e-08
9.91482e-08
9.91481e-08
9.91481e-08
9.91639e-08
9.92085e-08
9.92108e-08
9.91883e-08
9.9209e-08
9.92659e-08
9.93028e-08
9.93456e-08
9.9381e-08
9.93627e-08
9.93836e-08
9.94243e-08
9.94726e-08
9.95303e-08
9.95892e-08
9.96464e-08
9.96865e-08
9.97383e-08
9.98161e-08
9.99106e-08
1.00006e-07
1.0014e-07
1.00259e-07
1.00477e-07
1.00592e-07
1.01073e-07
1.01149e-07
1.02337e-07
4.42873e-07
9.97547e-10
1.20878e-07
1.14176e-07
1.10267e-07
1.07845e-07
1.06177e-07
1.04965e-07
1.04032e-07
1.03307e-07
1.02713e-07
1.02237e-07
1.01828e-07
1.01496e-07
1.01201e-07
1.00956e-07
1.00739e-07
1.00559e-07
1.00392e-07
1.00254e-07
1.00121e-07
1.00014e-07
9.99064e-08
9.98209e-08
9.97376e-08
9.96734e-08
9.96035e-08
9.95527e-08
9.94994e-08
9.94621e-08
9.94132e-08
9.93871e-08
9.93635e-08
9.93409e-08
9.93159e-08
9.92942e-08
9.9265e-08
9.92488e-08
9.92364e-08
9.922e-08
9.92058e-08
9.9191e-08
9.91696e-08
9.91553e-08
9.91454e-08
9.91323e-08
9.91196e-08
9.91054e-08
9.90974e-08
9.90753e-08
9.90706e-08
9.90585e-08
9.904e-08
9.90365e-08
9.90364e-08
9.90359e-08
9.90209e-08
9.90412e-08
9.90249e-08
9.90158e-08
9.90045e-08
9.90215e-08
9.90214e-08
9.90209e-08
9.90408e-08
9.9066e-08
9.90659e-08
9.90658e-08
9.90814e-08
9.9126e-08
9.91286e-08
9.91061e-08
9.91261e-08
9.91832e-08
9.92201e-08
9.92627e-08
9.92985e-08
9.9281e-08
9.93015e-08
9.9342e-08
9.93902e-08
9.94478e-08
9.95066e-08
9.95641e-08
9.96044e-08
9.96564e-08
9.9734e-08
9.98286e-08
9.99235e-08
1.00058e-07
1.00177e-07
1.00395e-07
1.0051e-07
1.00989e-07
1.01065e-07
1.02271e-07
4.49981e-07
1.0555e-09
1.2091e-07
1.14215e-07
1.10294e-07
1.07857e-07
1.06176e-07
1.04954e-07
1.04012e-07
1.03279e-07
1.02678e-07
1.02197e-07
1.01783e-07
1.01447e-07
1.01147e-07
1.00899e-07
1.00679e-07
1.00497e-07
1.00327e-07
1.00187e-07
1.00052e-07
9.99432e-08
9.98342e-08
9.97474e-08
9.96626e-08
9.95972e-08
9.95262e-08
9.94743e-08
9.942e-08
9.93819e-08
9.93321e-08
9.93051e-08
9.92807e-08
9.92575e-08
9.92319e-08
9.92097e-08
9.91799e-08
9.91633e-08
9.91505e-08
9.91338e-08
9.91191e-08
9.9104e-08
9.90823e-08
9.90677e-08
9.90575e-08
9.90442e-08
9.90312e-08
9.90168e-08
9.90086e-08
9.89864e-08
9.89814e-08
9.89691e-08
9.89503e-08
9.89464e-08
9.89463e-08
9.89457e-08
9.89304e-08
9.89506e-08
9.89341e-08
9.89248e-08
9.89132e-08
9.89301e-08
9.893e-08
9.89294e-08
9.89493e-08
9.89742e-08
9.8974e-08
9.89739e-08
9.89893e-08
9.90338e-08
9.90369e-08
9.90143e-08
9.90336e-08
9.90908e-08
9.91279e-08
9.91702e-08
9.92064e-08
9.91897e-08
9.92099e-08
9.92501e-08
9.9298e-08
9.93556e-08
9.94143e-08
9.94721e-08
9.95128e-08
9.95649e-08
9.96422e-08
9.9737e-08
9.98316e-08
9.99667e-08
1.00084e-07
1.00303e-07
1.00419e-07
1.00896e-07
1.0097e-07
1.02198e-07
4.57973e-07
1.11943e-09
1.20946e-07
1.14259e-07
1.10323e-07
1.0787e-07
1.06176e-07
1.04942e-07
1.0399e-07
1.03248e-07
1.0264e-07
1.02153e-07
1.01733e-07
1.01393e-07
1.01089e-07
1.00837e-07
1.00613e-07
1.00428e-07
1.00255e-07
1.00113e-07
9.99762e-08
9.98654e-08
9.97546e-08
9.96661e-08
9.95798e-08
9.9513e-08
9.94408e-08
9.93877e-08
9.93322e-08
9.92932e-08
9.92424e-08
9.92146e-08
9.91893e-08
9.91654e-08
9.91392e-08
9.91164e-08
9.9086e-08
9.90689e-08
9.90556e-08
9.90385e-08
9.90233e-08
9.90079e-08
9.89858e-08
9.89709e-08
9.89603e-08
9.89468e-08
9.89335e-08
9.89188e-08
9.89104e-08
9.8888e-08
9.88828e-08
9.88703e-08
9.88512e-08
9.88467e-08
9.88466e-08
9.8846e-08
9.88303e-08
9.88503e-08
9.88337e-08
9.8824e-08
9.88122e-08
9.88289e-08
9.88289e-08
9.88283e-08
9.8848e-08
9.88727e-08
9.88724e-08
9.88724e-08
9.88875e-08
9.89318e-08
9.89354e-08
9.89127e-08
9.89313e-08
9.89886e-08
9.90258e-08
9.90679e-08
9.91045e-08
9.90887e-08
9.91085e-08
9.91485e-08
9.91961e-08
9.92536e-08
9.93123e-08
9.93704e-08
9.94114e-08
9.94637e-08
9.95406e-08
9.96356e-08
9.97299e-08
9.98652e-08
9.99824e-08
1.00201e-07
1.00317e-07
1.00792e-07
1.00866e-07
1.02116e-07
4.66867e-07
1.19004e-09
1.20984e-07
1.14307e-07
1.10355e-07
1.07886e-07
1.06176e-07
1.0493e-07
1.03966e-07
1.03215e-07
1.02599e-07
1.02105e-07
1.01679e-07
1.01333e-07
1.01025e-07
1.00769e-07
1.00542e-07
1.00353e-07
1.00177e-07
1.00033e-07
9.9893e-08
9.97801e-08
9.96673e-08
9.9577e-08
9.94891e-08
9.94208e-08
9.93471e-08
9.92928e-08
9.92361e-08
9.91959e-08
9.91442e-08
9.91152e-08
9.90891e-08
9.90643e-08
9.90374e-08
9.9014e-08
9.89829e-08
9.89652e-08
9.89514e-08
9.89339e-08
9.89182e-08
9.89024e-08
9.88799e-08
9.88646e-08
9.88536e-08
9.88399e-08
9.88263e-08
9.88113e-08
9.88027e-08
9.87801e-08
9.87745e-08
9.87619e-08
9.87424e-08
9.87374e-08
9.87373e-08
9.87365e-08
9.87205e-08
9.87402e-08
9.87235e-08
9.87135e-08
9.87014e-08
9.87179e-08
9.87179e-08
9.87173e-08
9.87369e-08
9.87612e-08
9.87609e-08
9.87609e-08
9.87757e-08
9.88199e-08
9.8824e-08
9.88013e-08
9.8819e-08
9.88764e-08
9.89138e-08
9.89556e-08
9.89927e-08
9.89777e-08
9.89972e-08
9.90369e-08
9.90842e-08
9.91416e-08
9.92002e-08
9.92587e-08
9.93e-08
9.93525e-08
9.9429e-08
9.95242e-08
9.96181e-08
9.97538e-08
9.98702e-08
1.00089e-07
1.00205e-07
1.00678e-07
1.00751e-07
1.02026e-07
4.76674e-07
1.26815e-09
1.21026e-07
1.14359e-07
1.10391e-07
1.07903e-07
1.06177e-07
1.04916e-07
1.03941e-07
1.0318e-07
1.02555e-07
1.02053e-07
1.0162e-07
1.01269e-07
1.00955e-07
1.00694e-07
1.00463e-07
1.00271e-07
1.00092e-07
9.99449e-08
9.98026e-08
9.96873e-08
9.95724e-08
9.94801e-08
9.93903e-08
9.93204e-08
9.92451e-08
9.91894e-08
9.91314e-08
9.909e-08
9.90371e-08
9.90071e-08
9.89798e-08
9.89543e-08
9.89265e-08
9.89025e-08
9.88706e-08
9.88523e-08
9.88379e-08
9.882e-08
9.88036e-08
9.87874e-08
9.87644e-08
9.87488e-08
9.87373e-08
9.87233e-08
9.87095e-08
9.86941e-08
9.86853e-08
9.86624e-08
9.86565e-08
9.86436e-08
9.86238e-08
9.86181e-08
9.86181e-08
9.86172e-08
9.86007e-08
9.86203e-08
9.86033e-08
9.8593e-08
9.85806e-08
9.8597e-08
9.8597e-08
9.85963e-08
9.86158e-08
9.86397e-08
9.86393e-08
9.86393e-08
9.86538e-08
9.86978e-08
9.87025e-08
9.86797e-08
9.86965e-08
9.8754e-08
9.87916e-08
9.88331e-08
9.88706e-08
9.88567e-08
9.88757e-08
9.89152e-08
9.89622e-08
9.90194e-08
9.90779e-08
9.91368e-08
9.91785e-08
9.92312e-08
9.93072e-08
9.94027e-08
9.94962e-08
9.96321e-08
9.97478e-08
9.99673e-08
1.00084e-07
1.00554e-07
1.00625e-07
1.01928e-07
4.87401e-07
1.35466e-09
1.2107e-07
1.14415e-07
1.1043e-07
1.07922e-07
1.06178e-07
1.04902e-07
1.03913e-07
1.03141e-07
1.02507e-07
1.01997e-07
1.01557e-07
1.01199e-07
1.0088e-07
1.00615e-07
1.00379e-07
1.00183e-07
1.00001e-07
9.985e-08
9.97048e-08
9.95869e-08
9.94696e-08
9.93753e-08
9.92834e-08
9.92117e-08
9.91348e-08
9.90775e-08
9.9018e-08
9.89753e-08
9.89212e-08
9.88899e-08
9.88615e-08
9.8835e-08
9.88064e-08
9.87816e-08
9.87489e-08
9.87299e-08
9.8715e-08
9.86965e-08
9.86795e-08
9.86628e-08
9.86393e-08
9.86233e-08
9.86113e-08
9.8597e-08
9.85828e-08
9.85671e-08
9.8558e-08
9.85349e-08
9.85286e-08
9.85155e-08
9.84953e-08
9.84889e-08
9.84889e-08
9.84879e-08
9.84709e-08
9.84902e-08
9.84731e-08
9.84624e-08
9.84497e-08
9.84658e-08
9.84658e-08
9.84651e-08
9.84844e-08
9.8508e-08
9.85074e-08
9.85074e-08
9.85217e-08
9.85654e-08
9.85707e-08
9.85479e-08
9.85637e-08
9.86213e-08
9.86591e-08
9.87003e-08
9.87382e-08
9.87254e-08
9.8744e-08
9.87831e-08
9.88298e-08
9.88869e-08
9.89453e-08
9.90045e-08
9.90466e-08
9.90995e-08
9.91751e-08
9.92707e-08
9.93638e-08
9.95001e-08
9.96149e-08
9.98347e-08
9.9951e-08
1.00419e-07
1.00489e-07
1.01821e-07
4.99044e-07
1.45064e-09
1.21118e-07
1.14476e-07
1.10472e-07
1.07943e-07
1.0618e-07
1.04888e-07
1.03885e-07
1.03101e-07
1.02456e-07
1.01937e-07
1.01489e-07
1.01125e-07
1.00799e-07
1.00529e-07
1.00288e-07
1.00088e-07
9.99019e-08
9.97478e-08
9.95995e-08
9.94789e-08
9.9359e-08
9.92623e-08
9.91683e-08
9.90946e-08
9.90159e-08
9.8957e-08
9.88958e-08
9.88517e-08
9.87963e-08
9.87637e-08
9.87341e-08
9.87065e-08
9.86769e-08
9.86513e-08
9.86177e-08
9.8598e-08
9.85824e-08
9.85633e-08
9.85456e-08
9.85285e-08
9.85044e-08
9.84879e-08
9.84754e-08
9.84608e-08
9.84461e-08
9.84302e-08
9.84208e-08
9.83973e-08
9.83906e-08
9.83772e-08
9.83567e-08
9.83496e-08
9.83495e-08
9.83484e-08
9.83308e-08
9.83498e-08
9.83327e-08
9.83214e-08
9.83085e-08
9.83243e-08
9.83243e-08
9.83236e-08
9.83427e-08
9.83659e-08
9.83651e-08
9.83652e-08
9.83791e-08
9.84225e-08
9.84284e-08
9.84056e-08
9.84205e-08
9.84781e-08
9.8516e-08
9.85569e-08
9.85953e-08
9.85836e-08
9.86018e-08
9.86406e-08
9.86868e-08
9.87438e-08
9.88021e-08
9.88616e-08
9.89042e-08
9.89573e-08
9.90323e-08
9.91282e-08
9.92208e-08
9.93574e-08
9.94713e-08
9.96915e-08
9.98079e-08
1.00273e-07
1.00341e-07
1.01705e-07
5.11585e-07
1.55727e-09
1.21168e-07
1.14541e-07
1.10518e-07
1.07966e-07
1.06183e-07
1.04873e-07
1.03855e-07
1.03058e-07
1.02402e-07
1.01873e-07
1.01417e-07
1.01045e-07
1.00713e-07
1.00437e-07
1.00191e-07
9.99865e-08
9.97962e-08
9.96385e-08
9.94868e-08
9.93632e-08
9.92405e-08
9.91413e-08
9.90449e-08
9.89691e-08
9.88884e-08
9.88277e-08
9.87648e-08
9.87191e-08
9.86623e-08
9.86282e-08
9.85973e-08
9.85686e-08
9.85379e-08
9.85114e-08
9.84769e-08
9.84563e-08
9.844e-08
9.84203e-08
9.84018e-08
9.83842e-08
9.83595e-08
9.83425e-08
9.83294e-08
9.83145e-08
9.82994e-08
9.82831e-08
9.82733e-08
9.82495e-08
9.82424e-08
9.82288e-08
9.82079e-08
9.82e-08
9.81999e-08
9.81986e-08
9.81805e-08
9.81991e-08
9.81818e-08
9.81701e-08
9.81568e-08
9.81723e-08
9.81723e-08
9.81715e-08
9.81905e-08
9.82132e-08
9.82123e-08
9.82123e-08
9.82259e-08
9.8269e-08
9.82755e-08
9.82527e-08
9.82666e-08
9.83242e-08
9.83623e-08
9.84028e-08
9.84417e-08
9.84312e-08
9.8449e-08
9.84874e-08
9.85332e-08
9.859e-08
9.86481e-08
9.87081e-08
9.8751e-08
9.88044e-08
9.88789e-08
9.8975e-08
9.9067e-08
9.9204e-08
9.93169e-08
9.95373e-08
9.96538e-08
1.00116e-07
1.00183e-07
1.0158e-07
5.24998e-07
1.6759e-09
1.21221e-07
1.1461e-07
1.10568e-07
1.07991e-07
1.06187e-07
1.04858e-07
1.03823e-07
1.03013e-07
1.02345e-07
1.01805e-07
1.01341e-07
1.0096e-07
1.00622e-07
1.00339e-07
1.00088e-07
9.98783e-08
9.96835e-08
9.95219e-08
9.93666e-08
9.92397e-08
9.91141e-08
9.90122e-08
9.89132e-08
9.88351e-08
9.87523e-08
9.86896e-08
9.86248e-08
9.85775e-08
9.85192e-08
9.84835e-08
9.84511e-08
9.84213e-08
9.83894e-08
9.83619e-08
9.83264e-08
9.83049e-08
9.82879e-08
9.82674e-08
9.82481e-08
9.823e-08
9.82046e-08
9.81871e-08
9.81733e-08
9.8158e-08
9.81425e-08
9.81257e-08
9.81156e-08
9.80915e-08
9.80839e-08
9.807e-08
9.80487e-08
9.804e-08
9.80399e-08
9.80384e-08
9.80196e-08
9.80378e-08
9.80204e-08
9.80082e-08
9.79945e-08
9.80097e-08
9.80097e-08
9.80089e-08
9.80276e-08
9.80499e-08
9.80488e-08
9.80488e-08
9.8062e-08
9.81048e-08
9.81119e-08
9.80891e-08
9.81019e-08
9.81595e-08
9.81978e-08
9.82379e-08
9.82772e-08
9.8268e-08
9.82854e-08
9.83234e-08
9.83688e-08
9.84254e-08
9.84833e-08
9.85436e-08
9.8587e-08
9.86407e-08
9.87146e-08
9.88109e-08
9.89023e-08
9.90396e-08
9.91515e-08
9.93721e-08
9.94886e-08
9.99483e-08
1.00013e-07
1.01445e-07
5.39237e-07
1.80802e-09
1.21276e-07
1.14684e-07
1.10621e-07
1.08019e-07
1.06191e-07
1.04842e-07
1.03791e-07
1.02965e-07
1.02284e-07
1.01734e-07
1.01259e-07
1.00871e-07
1.00525e-07
1.00235e-07
9.99785e-08
9.97634e-08
9.95639e-08
9.9398e-08
9.92388e-08
9.91084e-08
9.89796e-08
9.88748e-08
9.87731e-08
9.86925e-08
9.86074e-08
9.85426e-08
9.84758e-08
9.84267e-08
9.83668e-08
9.83294e-08
9.82955e-08
9.82643e-08
9.82311e-08
9.82027e-08
9.81661e-08
9.81436e-08
9.81257e-08
9.81046e-08
9.80844e-08
9.80656e-08
9.80395e-08
9.80214e-08
9.8007e-08
9.79913e-08
9.79752e-08
9.7958e-08
9.79475e-08
9.7923e-08
9.79149e-08
9.79007e-08
9.7879e-08
9.78695e-08
9.78693e-08
9.78675e-08
9.78481e-08
9.78659e-08
9.78484e-08
9.78357e-08
9.78215e-08
9.78363e-08
9.78364e-08
9.78354e-08
9.78539e-08
9.78757e-08
9.78746e-08
9.78744e-08
9.78872e-08
9.79296e-08
9.79373e-08
9.79146e-08
9.79263e-08
9.79838e-08
9.80222e-08
9.8062e-08
9.81018e-08
9.80939e-08
9.81108e-08
9.81485e-08
9.81933e-08
9.82498e-08
9.83074e-08
9.83681e-08
9.84119e-08
9.84659e-08
9.85391e-08
9.86357e-08
9.87264e-08
9.88641e-08
9.89749e-08
9.91956e-08
9.93121e-08
9.97689e-08
9.98314e-08
1.013e-07
5.54242e-07
1.95532e-09
1.21335e-07
1.14763e-07
1.10678e-07
1.0805e-07
1.06197e-07
1.04827e-07
1.03757e-07
1.02916e-07
1.02221e-07
1.01659e-07
1.01174e-07
1.00776e-07
1.00422e-07
1.00126e-07
9.98626e-08
9.96419e-08
9.94373e-08
9.92668e-08
9.91034e-08
9.89693e-08
9.88371e-08
9.87291e-08
9.86245e-08
9.85413e-08
9.84537e-08
9.83867e-08
9.83178e-08
9.82668e-08
9.8205e-08
9.81659e-08
9.81302e-08
9.80977e-08
9.80632e-08
9.80336e-08
9.79959e-08
9.79723e-08
9.79535e-08
9.79316e-08
9.79104e-08
9.7891e-08
9.78641e-08
9.78454e-08
9.78302e-08
9.78141e-08
9.77974e-08
9.77798e-08
9.77688e-08
9.7744e-08
9.77353e-08
9.77208e-08
9.76987e-08
9.76883e-08
9.76881e-08
9.7686e-08
9.76659e-08
9.76832e-08
9.76655e-08
9.76523e-08
9.76377e-08
9.76521e-08
9.76521e-08
9.76511e-08
9.76693e-08
9.76905e-08
9.76892e-08
9.7689e-08
9.77014e-08
9.77433e-08
9.77517e-08
9.77291e-08
9.77397e-08
9.7797e-08
9.78356e-08
9.7875e-08
9.79152e-08
9.79086e-08
9.79251e-08
9.79624e-08
9.80067e-08
9.80629e-08
9.81204e-08
9.81814e-08
9.82256e-08
9.82799e-08
9.83525e-08
9.84492e-08
9.85393e-08
9.86772e-08
9.87869e-08
9.90077e-08
9.91242e-08
9.9578e-08
9.9638e-08
1.01145e-07
5.69931e-07
2.11984e-09
1.21395e-07
1.14847e-07
1.10739e-07
1.08083e-07
1.06205e-07
1.04812e-07
1.03723e-07
1.02864e-07
1.02155e-07
1.0158e-07
1.01085e-07
1.00677e-07
1.00315e-07
1.00011e-07
9.97405e-08
9.95138e-08
9.93037e-08
9.91284e-08
9.89605e-08
9.88224e-08
9.86865e-08
9.85752e-08
9.84674e-08
9.83814e-08
9.82912e-08
9.82218e-08
9.81506e-08
9.80975e-08
9.80339e-08
9.79928e-08
9.79554e-08
9.79214e-08
9.78854e-08
9.78546e-08
9.78157e-08
9.7791e-08
9.77711e-08
9.77483e-08
9.77262e-08
9.7706e-08
9.76783e-08
9.76589e-08
9.7643e-08
9.76264e-08
9.76091e-08
9.75911e-08
9.75796e-08
9.75544e-08
9.7545e-08
9.75302e-08
9.75078e-08
9.74965e-08
9.74961e-08
9.74937e-08
9.74728e-08
9.74896e-08
9.74717e-08
9.7458e-08
9.74429e-08
9.74569e-08
9.74569e-08
9.74557e-08
9.74737e-08
9.74943e-08
9.74928e-08
9.74926e-08
9.75045e-08
9.75459e-08
9.75549e-08
9.75324e-08
9.75418e-08
9.75989e-08
9.76377e-08
9.76767e-08
9.77173e-08
9.77121e-08
9.77282e-08
9.77651e-08
9.78089e-08
9.78648e-08
9.79219e-08
9.79834e-08
9.8028e-08
9.80826e-08
9.81544e-08
9.82513e-08
9.83407e-08
9.84789e-08
9.85873e-08
9.88082e-08
9.89245e-08
9.93753e-08
9.94327e-08
1.00979e-07
5.862e-07
2.30373e-09
1.21458e-07
1.14935e-07
1.10805e-07
1.0812e-07
1.06214e-07
1.04797e-07
1.03687e-07
1.02811e-07
1.02087e-07
1.01499e-07
1.00991e-07
1.00573e-07
1.00202e-07
9.98897e-08
9.96122e-08
9.93791e-08
9.91631e-08
9.89827e-08
9.88101e-08
9.86677e-08
9.85278e-08
9.84131e-08
9.83019e-08
9.82129e-08
9.81199e-08
9.80479e-08
9.79742e-08
9.7919e-08
9.78533e-08
9.78102e-08
9.77709e-08
9.77352e-08
9.76977e-08
9.76656e-08
9.76254e-08
9.75994e-08
9.75785e-08
9.75548e-08
9.75316e-08
9.75107e-08
9.74821e-08
9.74619e-08
9.74452e-08
9.74281e-08
9.74102e-08
9.73916e-08
9.73796e-08
9.7354e-08
9.7344e-08
9.73288e-08
9.73061e-08
9.72938e-08
9.72932e-08
9.72904e-08
9.72688e-08
9.7285e-08
9.72668e-08
9.72527e-08
9.72371e-08
9.72506e-08
9.72505e-08
9.72492e-08
9.7267e-08
9.72868e-08
9.72851e-08
9.72849e-08
9.72963e-08
9.73371e-08
9.73467e-08
9.73244e-08
9.73327e-08
9.73895e-08
9.74284e-08
9.7467e-08
9.75079e-08
9.75042e-08
9.75199e-08
9.75563e-08
9.75996e-08
9.76552e-08
9.7712e-08
9.77738e-08
9.78188e-08
9.78738e-08
9.79449e-08
9.80419e-08
9.81305e-08
9.82689e-08
9.83761e-08
9.85969e-08
9.8713e-08
9.91607e-08
9.92153e-08
1.00801e-07
6.02922e-07
2.50948e-09
1.21524e-07
1.15027e-07
1.10875e-07
1.08159e-07
1.06225e-07
1.04783e-07
1.03652e-07
1.02757e-07
1.02016e-07
1.01413e-07
1.00893e-07
1.00465e-07
1.00083e-07
9.97631e-08
9.94778e-08
9.92379e-08
9.90157e-08
9.88297e-08
9.86521e-08
9.85052e-08
9.83612e-08
9.82426e-08
9.81278e-08
9.80356e-08
9.79397e-08
9.78649e-08
9.77886e-08
9.77311e-08
9.76633e-08
9.7618e-08
9.75766e-08
9.75393e-08
9.75e-08
9.74666e-08
9.74251e-08
9.73977e-08
9.73756e-08
9.73509e-08
9.73265e-08
9.73048e-08
9.72753e-08
9.72543e-08
9.72367e-08
9.72191e-08
9.72005e-08
9.71814e-08
9.71688e-08
9.71427e-08
9.7132e-08
9.71165e-08
9.70935e-08
9.70802e-08
9.70794e-08
9.70761e-08
9.70537e-08
9.70693e-08
9.70509e-08
9.70362e-08
9.70201e-08
9.7033e-08
9.70329e-08
9.70314e-08
9.7049e-08
9.70681e-08
9.70661e-08
9.70658e-08
9.70768e-08
9.71169e-08
9.71271e-08
9.7105e-08
9.71122e-08
9.71685e-08
9.72076e-08
9.72457e-08
9.7287e-08
9.72847e-08
9.73001e-08
9.73361e-08
9.73787e-08
9.7434e-08
9.74905e-08
9.75526e-08
9.7598e-08
9.76533e-08
9.77236e-08
9.78208e-08
9.79085e-08
9.80471e-08
9.81531e-08
9.83736e-08
9.84895e-08
9.89339e-08
9.89857e-08
1.00612e-07
6.19942e-07
2.73987e-09
1.21591e-07
1.15125e-07
1.10949e-07
1.08202e-07
1.06238e-07
1.0477e-07
1.03615e-07
1.02701e-07
1.01943e-07
1.01325e-07
1.00792e-07
1.00352e-07
9.99603e-08
9.96308e-08
9.93374e-08
9.90902e-08
9.88615e-08
9.86696e-08
9.84866e-08
9.83349e-08
9.81864e-08
9.80639e-08
9.79453e-08
9.78497e-08
9.77506e-08
9.7673e-08
9.75938e-08
9.75338e-08
9.74637e-08
9.74162e-08
9.73726e-08
9.73334e-08
9.72924e-08
9.72575e-08
9.72145e-08
9.71857e-08
9.71623e-08
9.71366e-08
9.7111e-08
9.70884e-08
9.70578e-08
9.70361e-08
9.70176e-08
9.69993e-08
9.69799e-08
9.69603e-08
9.69471e-08
9.69206e-08
9.69091e-08
9.68932e-08
9.687e-08
9.68556e-08
9.68545e-08
9.68508e-08
9.68275e-08
9.68424e-08
9.68239e-08
9.68086e-08
9.67919e-08
9.68041e-08
9.68041e-08
9.68023e-08
9.68196e-08
9.68379e-08
9.68356e-08
9.68353e-08
9.68458e-08
9.68851e-08
9.6896e-08
9.68741e-08
9.68801e-08
9.6936e-08
9.69752e-08
9.70129e-08
9.70545e-08
9.70536e-08
9.70686e-08
9.71042e-08
9.71461e-08
9.72011e-08
9.72572e-08
9.73196e-08
9.73654e-08
9.74211e-08
9.74905e-08
9.75878e-08
9.76746e-08
9.78134e-08
9.7918e-08
9.81382e-08
9.82539e-08
9.8695e-08
9.87437e-08
1.00411e-07
6.37078e-07
2.99799e-09
1.21661e-07
1.15227e-07
1.11028e-07
1.08249e-07
1.06254e-07
1.04758e-07
1.03579e-07
1.02644e-07
1.01867e-07
1.01234e-07
1.00687e-07
1.00234e-07
9.98321e-08
9.94931e-08
9.9191e-08
9.89362e-08
9.87005e-08
9.85024e-08
9.83137e-08
9.81569e-08
9.80037e-08
9.78769e-08
9.77543e-08
9.76551e-08
9.75526e-08
9.74719e-08
9.73898e-08
9.73272e-08
9.72547e-08
9.72047e-08
9.71588e-08
9.71177e-08
9.70748e-08
9.70383e-08
9.69938e-08
9.69634e-08
9.69386e-08
9.69118e-08
9.68849e-08
9.68614e-08
9.68297e-08
9.68071e-08
9.67876e-08
9.67687e-08
9.67485e-08
9.67283e-08
9.67144e-08
9.66874e-08