/*--------------------------------*- C++ -*----------------------------------*\
| =========                 |                                                 |
| \\      /  F ield         | OpenFOAM: The Open Source CFD Toolbox           |
|  \\    /   O peration     | Version:  v2012                                 |
|   \\  /    A nd           | Website:  www.openfoam.com                      |
|    \\/     M anipulation  |                                                 |
\*---------------------------------------------------------------------------*/
FoamFile
{
    version     2.0;
    format      ascii;
    class       volVectorField;
    location    "9.5";
    object      wallShearStress;
}
// * * * * * * * * * * * * * * * * * * * * * * * * * * * * * * * * * * * * * //

dimensions      [0 2 -2 0 0 0 0];


internalField   uniform (0 0 0);

boundaryField
{
    inlet
    {
        type            calculated;
        value           uniform (0 0 0);
    }
    outlet
    {
        type            calculated;
        value           uniform (0 0 0);
    }
    topWall
    {
        type            calculated;
        value           nonuniform List<vector> 
545
(
(2.21031e-08 -1.55181e-08 0)
(2.21984e-08 -4.36871e-08 0)
(2.21044e-08 -7.28486e-08 0)
(2.20179e-08 -1.01068e-07 0)
(2.19575e-08 -1.28029e-07 0)
(2.18911e-08 -1.54083e-07 0)
(2.18192e-08 -1.7946e-07 0)
(2.17405e-08 -2.04149e-07 0)
(2.16556e-08 -2.28094e-07 0)
(2.1565e-08 -2.51294e-07 0)
(2.14692e-08 -2.73777e-07 0)
(2.13688e-08 -2.95571e-07 0)
(2.12642e-08 -3.16692e-07 0)
(2.11558e-08 -3.37152e-07 0)
(2.10442e-08 -3.56969e-07 0)
(2.09296e-08 -3.76159e-07 0)
(2.08126e-08 -3.9474e-07 0)
(2.06935e-08 -4.12729e-07 0)
(2.05726e-08 -4.30142e-07 0)
(2.04503e-08 -4.46996e-07 0)
(2.03268e-08 -4.63306e-07 0)
(2.02023e-08 -4.7909e-07 0)
(2.00772e-08 -4.94363e-07 0)
(1.99517e-08 -5.09141e-07 0)
(1.9826e-08 -5.23438e-07 0)
(1.97003e-08 -5.37271e-07 0)
(1.95747e-08 -5.50653e-07 0)
(1.94494e-08 -5.63599e-07 0)
(1.93246e-08 -5.76122e-07 0)
(1.92003e-08 -5.88237e-07 0)
(1.90768e-08 -5.99957e-07 0)
(1.89541e-08 -6.11294e-07 0)
(1.88323e-08 -6.22261e-07 0)
(1.87116e-08 -6.32871e-07 0)
(1.85919e-08 -6.43134e-07 0)
(1.84733e-08 -6.53063e-07 0)
(1.83559e-08 -6.62668e-07 0)
(1.82398e-08 -6.71961e-07 0)
(1.8125e-08 -6.80952e-07 0)
(1.80115e-08 -6.8965e-07 0)
(1.78994e-08 -6.98067e-07 0)
(1.77886e-08 -7.0621e-07 0)
(1.76793e-08 -7.1409e-07 0)
(1.75714e-08 -7.21715e-07 0)
(1.74649e-08 -7.29094e-07 0)
(1.73598e-08 -7.36234e-07 0)
(1.72562e-08 -7.43145e-07 0)
(1.7154e-08 -7.49833e-07 0)
(1.70532e-08 -7.56307e-07 0)
(1.69539e-08 -7.62573e-07 0)
(1.68559e-08 -7.68638e-07 0)
(1.67593e-08 -7.7451e-07 0)
(1.66641e-08 -7.80194e-07 0)
(1.65702e-08 -7.85696e-07 0)
(1.64777e-08 -7.91024e-07 0)
(1.63864e-08 -7.96182e-07 0)
(1.62965e-08 -8.01176e-07 0)
(1.62077e-08 -8.06012e-07 0)
(1.61202e-08 -8.10695e-07 0)
(1.60339e-08 -8.1523e-07 0)
(1.59487e-08 -8.19622e-07 0)
(1.58647e-08 -8.23875e-07 0)
(1.57818e-08 -8.27995e-07 0)
(1.56999e-08 -8.31984e-07 0)
(1.5619e-08 -8.35849e-07 0)
(1.55391e-08 -8.39592e-07 0)
(1.54602e-08 -8.43218e-07 0)
(1.53821e-08 -8.4673e-07 0)
(1.53051e-08 -8.50136e-07 0)
(1.52282e-08 -8.5342e-07 0)
(1.51551e-08 -8.56637e-07 0)
(1.507e-08 -8.59718e-07 0)
(1.4991e-08 -8.6264e-07 0)
(1.49343e-08 -8.65554e-07 0)
(1.48775e-08 -8.68388e-07 0)
(1.48208e-08 -8.71159e-07 0)
(1.47642e-08 -8.7395e-07 0)
(1.47077e-08 -8.76723e-07 0)
(1.46512e-08 -8.79466e-07 0)
(1.45948e-08 -8.82181e-07 0)
(1.45385e-08 -8.84874e-07 0)
(1.44823e-08 -8.87546e-07 0)
(1.44261e-08 -8.90195e-07 0)
(1.43701e-08 -8.92822e-07 0)
(1.43141e-08 -8.95427e-07 0)
(1.42582e-08 -8.98009e-07 0)
(1.42024e-08 -9.0057e-07 0)
(1.41467e-08 -9.03109e-07 0)
(1.40911e-08 -9.05627e-07 0)
(1.40356e-08 -9.08122e-07 0)
(1.39802e-08 -9.10599e-07 0)
(1.39246e-08 -9.13048e-07 0)
(1.38705e-08 -9.15507e-07 0)
(1.38109e-08 -9.17818e-07 0)
(1.37754e-08 -9.20393e-07 0)
(1.36376e-08 -9.22704e-07 0)
(1.3473e-08 -9.24486e-07 0)
(1.34224e-08 -9.26724e-07 0)
(1.33802e-08 -9.28714e-07 0)
(1.33397e-08 -9.30372e-07 0)
(1.32995e-08 -9.32235e-07 0)
(1.32595e-08 -9.34149e-07 0)
(1.32192e-08 -9.36048e-07 0)
(1.31789e-08 -9.37917e-07 0)
(1.31383e-08 -9.39781e-07 0)
(1.30977e-08 -9.4165e-07 0)
(1.30569e-08 -9.43521e-07 0)
(1.30159e-08 -9.4539e-07 0)
(1.29748e-08 -9.47256e-07 0)
(1.29335e-08 -9.49121e-07 0)
(1.28921e-08 -9.50984e-07 0)
(1.28506e-08 -9.52846e-07 0)
(1.28089e-08 -9.54706e-07 0)
(1.2767e-08 -9.56564e-07 0)
(1.2725e-08 -9.5842e-07 0)
(1.26829e-08 -9.60275e-07 0)
(1.26406e-08 -9.62128e-07 0)
(1.25981e-08 -9.63979e-07 0)
(1.25556e-08 -9.65829e-07 0)
(1.25128e-08 -9.67676e-07 0)
(1.247e-08 -9.69521e-07 0)
(1.24269e-08 -9.71365e-07 0)
(1.23838e-08 -9.73206e-07 0)
(1.23405e-08 -9.75045e-07 0)
(1.2297e-08 -9.76882e-07 0)
(1.22534e-08 -9.78717e-07 0)
(1.22096e-08 -9.8055e-07 0)
(1.21658e-08 -9.8238e-07 0)
(1.21217e-08 -9.84208e-07 0)
(1.20775e-08 -9.86034e-07 0)
(1.20332e-08 -9.87857e-07 0)
(1.19887e-08 -9.89678e-07 0)
(1.19441e-08 -9.91496e-07 0)
(1.18993e-08 -9.93312e-07 0)
(1.18544e-08 -9.95126e-07 0)
(1.18094e-08 -9.96936e-07 0)
(1.17642e-08 -9.98744e-07 0)
(1.17188e-08 -1.00055e-06 0)
(1.16733e-08 -1.00235e-06 0)
(1.16277e-08 -1.00415e-06 0)
(1.15819e-08 -1.00595e-06 0)
(1.1536e-08 -1.00774e-06 0)
(1.14899e-08 -1.00953e-06 0)
(1.14437e-08 -1.01132e-06 0)
(1.13974e-08 -1.01311e-06 0)
(1.13509e-08 -1.01489e-06 0)
(1.13043e-08 -1.01667e-06 0)
(1.12575e-08 -1.01844e-06 0)
(1.12106e-08 -1.02022e-06 0)
(1.11635e-08 -1.02199e-06 0)
(1.11163e-08 -1.02375e-06 0)
(1.10689e-08 -1.02552e-06 0)
(1.10215e-08 -1.02727e-06 0)
(1.09738e-08 -1.02903e-06 0)
(1.09261e-08 -1.03078e-06 0)
(1.08781e-08 -1.03253e-06 0)
(1.08301e-08 -1.03428e-06 0)
(1.07819e-08 -1.03602e-06 0)
(1.07336e-08 -1.03776e-06 0)
(1.06851e-08 -1.03949e-06 0)
(1.06365e-08 -1.04122e-06 0)
(1.05877e-08 -1.04295e-06 0)
(1.05389e-08 -1.04467e-06 0)
(1.04898e-08 -1.04639e-06 0)
(1.04407e-08 -1.0481e-06 0)
(1.03914e-08 -1.04981e-06 0)
(1.03419e-08 -1.05152e-06 0)
(1.02924e-08 -1.05322e-06 0)
(1.02427e-08 -1.05492e-06 0)
(1.01928e-08 -1.05661e-06 0)
(1.01429e-08 -1.0583e-06 0)
(1.00927e-08 -1.05999e-06 0)
(1.00425e-08 -1.06167e-06 0)
(9.99213e-09 -1.06335e-06 0)
(9.94162e-09 -1.06502e-06 0)
(9.89098e-09 -1.06668e-06 0)
(9.84021e-09 -1.06835e-06 0)
(9.7893e-09 -1.07001e-06 0)
(9.73827e-09 -1.07166e-06 0)
(9.6871e-09 -1.07331e-06 0)
(9.63581e-09 -1.07495e-06 0)
(9.58439e-09 -1.07659e-06 0)
(9.53283e-09 -1.07822e-06 0)
(9.48115e-09 -1.07985e-06 0)
(9.42935e-09 -1.08148e-06 0)
(9.37742e-09 -1.08309e-06 0)
(9.32536e-09 -1.08471e-06 0)
(9.27317e-09 -1.08632e-06 0)
(9.22086e-09 -1.08792e-06 0)
(9.16843e-09 -1.08952e-06 0)
(9.11587e-09 -1.09111e-06 0)
(9.06319e-09 -1.09269e-06 0)
(9.01039e-09 -1.09428e-06 0)
(8.95747e-09 -1.09585e-06 0)
(8.90443e-09 -1.09742e-06 0)
(8.85127e-09 -1.09899e-06 0)
(8.79798e-09 -1.10054e-06 0)
(8.74458e-09 -1.1021e-06 0)
(8.69107e-09 -1.10364e-06 0)
(8.63743e-09 -1.10519e-06 0)
(8.58368e-09 -1.10672e-06 0)
(8.52982e-09 -1.10825e-06 0)
(8.47584e-09 -1.10977e-06 0)
(8.42174e-09 -1.11129e-06 0)
(8.36754e-09 -1.1128e-06 0)
(8.31322e-09 -1.11431e-06 0)
(8.25879e-09 -1.1158e-06 0)
(8.20425e-09 -1.1173e-06 0)
(8.1496e-09 -1.11878e-06 0)
(8.09485e-09 -1.12026e-06 0)
(8.03999e-09 -1.12173e-06 0)
(7.98501e-09 -1.1232e-06 0)
(7.92994e-09 -1.12466e-06 0)
(7.87476e-09 -1.12611e-06 0)
(7.81948e-09 -1.12756e-06 0)
(7.76409e-09 -1.129e-06 0)
(7.7086e-09 -1.13043e-06 0)
(7.65301e-09 -1.13185e-06 0)
(7.59733e-09 -1.13327e-06 0)
(7.54154e-09 -1.13468e-06 0)
(7.48566e-09 -1.13609e-06 0)
(7.42968e-09 -1.13748e-06 0)
(7.3736e-09 -1.13887e-06 0)
(7.31743e-09 -1.14025e-06 0)
(7.26117e-09 -1.14163e-06 0)
(7.20482e-09 -1.143e-06 0)
(7.14837e-09 -1.14436e-06 0)
(7.09183e-09 -1.14571e-06 0)
(7.03521e-09 -1.14705e-06 0)
(6.9785e-09 -1.14839e-06 0)
(6.9217e-09 -1.14972e-06 0)
(6.86482e-09 -1.15104e-06 0)
(6.80786e-09 -1.15236e-06 0)
(6.75081e-09 -1.15366e-06 0)
(6.69368e-09 -1.15496e-06 0)
(6.63647e-09 -1.15625e-06 0)
(6.57918e-09 -1.15753e-06 0)
(6.52181e-09 -1.1588e-06 0)
(6.46437e-09 -1.16007e-06 0)
(6.40685e-09 -1.16133e-06 0)
(6.34926e-09 -1.16258e-06 0)
(6.2916e-09 -1.16382e-06 0)
(6.23387e-09 -1.16505e-06 0)
(6.17606e-09 -1.16627e-06 0)
(6.11819e-09 -1.16749e-06 0)
(6.06025e-09 -1.16869e-06 0)
(6.00225e-09 -1.16989e-06 0)
(5.94418e-09 -1.17108e-06 0)
(5.88605e-09 -1.17226e-06 0)
(5.82786e-09 -1.17343e-06 0)
(5.76961e-09 -1.17459e-06 0)
(5.7113e-09 -1.17575e-06 0)
(5.65294e-09 -1.17689e-06 0)
(5.59452e-09 -1.17803e-06 0)
(5.53605e-09 -1.17915e-06 0)
(5.47753e-09 -1.18027e-06 0)
(5.41895e-09 -1.18138e-06 0)
(5.36033e-09 -1.18247e-06 0)
(5.30166e-09 -1.18356e-06 0)
(5.24295e-09 -1.18464e-06 0)
(5.18419e-09 -1.18571e-06 0)
(5.12539e-09 -1.18677e-06 0)
(5.06654e-09 -1.18782e-06 0)
(5.0077e-09 -1.18886e-06 0)
(4.94864e-09 -1.18989e-06 0)
(4.89035e-09 -1.19093e-06 0)
(4.82902e-09 -1.19186e-06 0)
(4.78224e-09 -1.19309e-06 0)
(4.68116e-09 -1.1939e-06 0)
(4.5532e-09 -1.1945e-06 0)
(4.49032e-09 -1.19578e-06 0)
(4.44537e-09 -1.1967e-06 0)
(4.40016e-09 -1.19735e-06 0)
(4.35545e-09 -1.19817e-06 0)
(4.31014e-09 -1.19905e-06 0)
(4.26425e-09 -1.19992e-06 0)
(4.21774e-09 -1.20076e-06 0)
(4.17062e-09 -1.2016e-06 0)
(4.12289e-09 -1.20245e-06 0)
(4.07456e-09 -1.20329e-06 0)
(4.02562e-09 -1.20414e-06 0)
(3.97607e-09 -1.20498e-06 0)
(3.92593e-09 -1.20583e-06 0)
(3.87519e-09 -1.20667e-06 0)
(3.82385e-09 -1.2075e-06 0)
(3.77191e-09 -1.20834e-06 0)
(3.71938e-09 -1.20917e-06 0)
(3.66625e-09 -1.21e-06 0)
(3.61252e-09 -1.21083e-06 0)
(3.5582e-09 -1.21166e-06 0)
(3.50329e-09 -1.21248e-06 0)
(3.44778e-09 -1.21329e-06 0)
(3.39169e-09 -1.2141e-06 0)
(3.335e-09 -1.21491e-06 0)
(3.27773e-09 -1.21571e-06 0)
(3.21986e-09 -1.21651e-06 0)
(3.16141e-09 -1.2173e-06 0)
(3.10237e-09 -1.21808e-06 0)
(3.04275e-09 -1.21886e-06 0)
(2.98254e-09 -1.21963e-06 0)
(2.92176e-09 -1.2204e-06 0)
(2.8604e-09 -1.22115e-06 0)
(2.79846e-09 -1.2219e-06 0)
(2.73594e-09 -1.22264e-06 0)
(2.67286e-09 -1.22337e-06 0)
(2.6092e-09 -1.22409e-06 0)
(2.54498e-09 -1.2248e-06 0)
(2.4802e-09 -1.2255e-06 0)
(2.41486e-09 -1.22619e-06 0)
(2.34897e-09 -1.22687e-06 0)
(2.28252e-09 -1.22754e-06 0)
(2.21553e-09 -1.22819e-06 0)
(2.14799e-09 -1.22883e-06 0)
(2.07992e-09 -1.22946e-06 0)
(2.01131e-09 -1.23007e-06 0)
(1.94218e-09 -1.23067e-06 0)
(1.87252e-09 -1.23126e-06 0)
(1.80235e-09 -1.23183e-06 0)
(1.73167e-09 -1.23238e-06 0)
(1.66049e-09 -1.23292e-06 0)
(1.5888e-09 -1.23344e-06 0)
(1.51663e-09 -1.23394e-06 0)
(1.44398e-09 -1.23442e-06 0)
(1.37085e-09 -1.23489e-06 0)
(1.29725e-09 -1.23533e-06 0)
(1.2232e-09 -1.23576e-06 0)
(1.1487e-09 -1.23616e-06 0)
(1.07376e-09 -1.23654e-06 0)
(9.98385e-10 -1.2369e-06 0)
(9.22592e-10 -1.23724e-06 0)
(8.46389e-10 -1.23755e-06 0)
(7.69786e-10 -1.23784e-06 0)
(6.92795e-10 -1.23811e-06 0)
(6.15428e-10 -1.23834e-06 0)
(5.37695e-10 -1.23856e-06 0)
(4.5961e-10 -1.23874e-06 0)
(3.81185e-10 -1.2389e-06 0)
(3.02434e-10 -1.23902e-06 0)
(2.2337e-10 -1.23912e-06 0)
(1.44008e-10 -1.23919e-06 0)
(6.4362e-11 -1.23923e-06 0)
(-1.5553e-11 -1.23923e-06 0)
(-9.57212e-11 -1.2392e-06 0)
(-1.76127e-10 -1.23914e-06 0)
(-2.56753e-10 -1.23905e-06 0)
(-3.37583e-10 -1.23891e-06 0)
(-4.18599e-10 -1.23875e-06 0)
(-4.99783e-10 -1.23854e-06 0)
(-5.81117e-10 -1.2383e-06 0)
(-6.62582e-10 -1.23802e-06 0)
(-7.44159e-10 -1.2377e-06 0)
(-8.25826e-10 -1.23734e-06 0)
(-9.07565e-10 -1.23694e-06 0)
(-9.89353e-10 -1.2365e-06 0)
(-1.07117e-09 -1.23601e-06 0)
(-1.15299e-09 -1.23548e-06 0)
(-1.2348e-09 -1.23491e-06 0)
(-1.31657e-09 -1.23429e-06 0)
(-1.39827e-09 -1.23363e-06 0)
(-1.47989e-09 -1.23291e-06 0)
(-1.5614e-09 -1.23215e-06 0)
(-1.64277e-09 -1.23134e-06 0)
(-1.72398e-09 -1.23048e-06 0)
(-1.80499e-09 -1.22957e-06 0)
(-1.8858e-09 -1.2286e-06 0)
(-1.96636e-09 -1.22758e-06 0)
(-2.04666e-09 -1.22651e-06 0)
(-2.12666e-09 -1.22539e-06 0)
(-2.20633e-09 -1.22421e-06 0)
(-2.28565e-09 -1.22297e-06 0)
(-2.36458e-09 -1.22168e-06 0)
(-2.4431e-09 -1.22033e-06 0)
(-2.52118e-09 -1.21892e-06 0)
(-2.59879e-09 -1.21744e-06 0)
(-2.67589e-09 -1.21591e-06 0)
(-2.75246e-09 -1.21432e-06 0)
(-2.82845e-09 -1.21266e-06 0)
(-2.90386e-09 -1.21095e-06 0)
(-2.97863e-09 -1.20916e-06 0)
(-3.05273e-09 -1.20732e-06 0)
(-3.12615e-09 -1.2054e-06 0)
(-3.19883e-09 -1.20342e-06 0)
(-3.27076e-09 -1.20138e-06 0)
(-3.34189e-09 -1.19926e-06 0)
(-3.4122e-09 -1.19708e-06 0)
(-3.48164e-09 -1.19483e-06 0)
(-3.5502e-09 -1.19251e-06 0)
(-3.61783e-09 -1.19012e-06 0)
(-3.68449e-09 -1.18765e-06 0)
(-3.75018e-09 -1.18512e-06 0)
(-3.81483e-09 -1.18251e-06 0)
(-3.87843e-09 -1.17983e-06 0)
(-3.94094e-09 -1.17708e-06 0)
(-4.00233e-09 -1.17425e-06 0)
(-4.06256e-09 -1.17135e-06 0)
(-4.12161e-09 -1.16838e-06 0)
(-4.17944e-09 -1.16532e-06 0)
(-4.23603e-09 -1.1622e-06 0)
(-4.29133e-09 -1.159e-06 0)
(-4.34533e-09 -1.15572e-06 0)
(-4.39798e-09 -1.15236e-06 0)
(-4.44927e-09 -1.14893e-06 0)
(-4.49916e-09 -1.14542e-06 0)
(-4.54762e-09 -1.14184e-06 0)
(-4.59462e-09 -1.13817e-06 0)
(-4.64015e-09 -1.13444e-06 0)
(-4.68415e-09 -1.13062e-06 0)
(-4.72662e-09 -1.12673e-06 0)
(-4.76752e-09 -1.12275e-06 0)
(-4.80683e-09 -1.11871e-06 0)
(-4.84451e-09 -1.11458e-06 0)
(-4.88056e-09 -1.11038e-06 0)
(-4.91493e-09 -1.1061e-06 0)
(-4.94762e-09 -1.10175e-06 0)
(-4.97858e-09 -1.09732e-06 0)
(-5.00782e-09 -1.09282e-06 0)
(-5.03527e-09 -1.08824e-06 0)
(-5.06097e-09 -1.08359e-06 0)
(-5.08485e-09 -1.07886e-06 0)
(-5.10692e-09 -1.07406e-06 0)
(-5.12715e-09 -1.06919e-06 0)
(-5.14554e-09 -1.06424e-06 0)
(-5.16205e-09 -1.05923e-06 0)
(-5.1767e-09 -1.05415e-06 0)
(-5.18945e-09 -1.04899e-06 0)
(-5.20033e-09 -1.04377e-06 0)
(-5.2093e-09 -1.03849e-06 0)
(-5.21639e-09 -1.03314e-06 0)
(-5.22157e-09 -1.02772e-06 0)
(-5.22488e-09 -1.02224e-06 0)
(-5.22629e-09 -1.0167e-06 0)
(-5.22584e-09 -1.01109e-06 0)
(-5.2235e-09 -1.00543e-06 0)
(-5.21933e-09 -9.99714e-07 0)
(-5.2133e-09 -9.93936e-07 0)
(-5.20547e-09 -9.88108e-07 0)
(-5.19581e-09 -9.82222e-07 0)
(-5.18439e-09 -9.76288e-07 0)
(-5.17118e-09 -9.703e-07 0)
(-5.15624e-09 -9.64268e-07 0)
(-5.13954e-09 -9.58184e-07 0)
(-5.12115e-09 -9.5206e-07 0)
(-5.10103e-09 -9.45887e-07 0)
(-5.07923e-09 -9.39679e-07 0)
(-5.0557e-09 -9.33423e-07 0)
(-5.03046e-09 -9.27142e-07 0)
(-5.00356e-09 -9.2079e-07 0)
(-4.97431e-09 -9.14517e-07 0)
(-4.94617e-09 -9.07869e-07 0)
(-4.90824e-09 -9.01664e-07 0)
(-4.85465e-09 -8.94822e-07 0)
(-4.80419e-09 -8.86573e-07 0)
(-4.7601e-09 -8.78813e-07 0)
(-4.71575e-09 -8.7132e-07 0)
(-4.67034e-09 -8.63738e-07 0)
(-4.62399e-09 -8.56186e-07 0)
(-4.57662e-09 -8.48717e-07 0)
(-4.52832e-09 -8.41356e-07 0)
(-4.4791e-09 -8.34071e-07 0)
(-4.42908e-09 -8.26866e-07 0)
(-4.37827e-09 -8.19734e-07 0)
(-4.3268e-09 -8.12691e-07 0)
(-4.27469e-09 -8.05727e-07 0)
(-4.22205e-09 -7.98854e-07 0)
(-4.16891e-09 -7.9206e-07 0)
(-4.11539e-09 -7.85359e-07 0)
(-4.06149e-09 -7.78738e-07 0)
(-4.00732e-09 -7.72211e-07 0)
(-3.95289e-09 -7.65766e-07 0)
(-3.8983e-09 -7.59415e-07 0)
(-3.84352e-09 -7.53147e-07 0)
(-3.78868e-09 -7.46973e-07 0)
(-3.73373e-09 -7.40882e-07 0)
(-3.67877e-09 -7.34887e-07 0)
(-3.62378e-09 -7.28974e-07 0)
(-3.56883e-09 -7.23156e-07 0)
(-3.51389e-09 -7.17421e-07 0)
(-3.45903e-09 -7.11782e-07 0)
(-3.40423e-09 -7.06224e-07 0)
(-3.34955e-09 -7.00762e-07 0)
(-3.29495e-09 -6.95382e-07 0)
(-3.24051e-09 -6.90096e-07 0)
(-3.18616e-09 -6.84892e-07 0)
(-3.13199e-09 -6.79783e-07 0)
(-3.07795e-09 -6.74755e-07 0)
(-3.0241e-09 -6.6982e-07 0)
(-2.9704e-09 -6.64966e-07 0)
(-2.9169e-09 -6.60205e-07 0)
(-2.86356e-09 -6.55525e-07 0)
(-2.81043e-09 -6.50937e-07 0)
(-2.75748e-09 -6.46429e-07 0)
(-2.70475e-09 -6.42012e-07 0)
(-2.6522e-09 -6.37675e-07 0)
(-2.59988e-09 -6.33429e-07 0)
(-2.54775e-09 -6.29261e-07 0)
(-2.49585e-09 -6.25183e-07 0)
(-2.44414e-09 -6.21184e-07 0)
(-2.39266e-09 -6.17274e-07 0)
(-2.34136e-09 -6.13441e-07 0)
(-2.29029e-09 -6.09696e-07 0)
(-2.23941e-09 -6.06029e-07 0)
(-2.18874e-09 -6.02449e-07 0)
(-2.13825e-09 -5.98946e-07 0)
(-2.08797e-09 -5.95529e-07 0)
(-2.03786e-09 -5.92189e-07 0)
(-1.98794e-09 -5.88934e-07 0)
(-1.93817e-09 -5.85756e-07 0)
(-1.88859e-09 -5.82662e-07 0)
(-1.83914e-09 -5.79643e-07 0)
(-1.78986e-09 -5.76709e-07 0)
(-1.74071e-09 -5.7385e-07 0)
(-1.6917e-09 -5.71075e-07 0)
(-1.64281e-09 -5.68375e-07 0)
(-1.59404e-09 -5.65757e-07 0)
(-1.54537e-09 -5.63215e-07 0)
(-1.49681e-09 -5.60755e-07 0)
(-1.44834e-09 -5.58369e-07 0)
(-1.39996e-09 -5.56066e-07 0)
(-1.35164e-09 -5.53837e-07 0)
(-1.30341e-09 -5.5169e-07 0)
(-1.25524e-09 -5.49617e-07 0)
(-1.20712e-09 -5.47625e-07 0)
(-1.15906e-09 -5.45709e-07 0)
(-1.11104e-09 -5.43872e-07 0)
(-1.06305e-09 -5.42111e-07 0)
(-1.0151e-09 -5.4043e-07 0)
(-9.67162e-10 -5.38824e-07 0)
(-9.19249e-10 -5.37298e-07 0)
(-8.71343e-10 -5.35848e-07 0)
(-8.23444e-10 -5.34477e-07 0)
(-7.75537e-10 -5.33181e-07 0)
(-7.27616e-10 -5.31965e-07 0)
(-6.79661e-10 -5.30825e-07 0)
(-6.31653e-10 -5.29764e-07 0)
(-5.83547e-10 -5.28777e-07 0)
(-5.35288e-10 -5.27874e-07 0)
(-4.86775e-10 -5.27033e-07 0)
(-4.37898e-10 -5.26318e-07 0)
(-3.8844e-10 -5.25524e-07 0)
(-3.3854e-10 -5.25329e-07 0)
(-2.87286e-10 -5.23459e-07 0)
(-2.38583e-10 -5.27276e-07 0)
(-1.7798e-10 -5.11177e-07 0)
(-1.70512e-10 -5.52874e-07 0)
(-1.00605e-10 -4.82636e-07 0)
)
;
    }
    bottomWall
    {
        type            calculated;
        value           nonuniform List<vector> 
449
(
(-53.1894 -0.96146 0)
(-35.0769 -0.00282881 0)
(-34.6355 -0.000257266 0)
(-33.315 -0.000345733 0)
(-32.2726 -0.000301871 0)
(-31.2386 -0.000299135 0)
(-30.205 -0.000289154 0)
(-29.2374 -0.000265316 0)
(-28.3682 -0.000236318 0)
(-27.6003 -0.000208413 0)
(-26.9228 -0.000183829 0)
(-26.3234 -0.000162908 0)
(-25.7891 -0.000145589 0)
(-25.3083 -0.000130574 0)
(-24.8771 -0.00011718 0)
(-24.4882 -0.000106259 0)
(-24.1318 -9.67409e-05 0)
(-23.8083 -8.82834e-05 0)
(-23.5099 -8.15033e-05 0)
(-23.2329 -7.5185e-05 0)
(-22.978 -6.96529e-05 0)
(-22.739 -6.47415e-05 0)
(-22.5179 -6.00848e-05 0)
(-22.311 -5.64796e-05 0)
(-22.1146 -5.31598e-05 0)
(-21.9307 -4.96391e-05 0)
(-21.7588 -4.65807e-05 0)
(-21.596 -4.37687e-05 0)
(-21.4437 -4.12016e-05 0)
(-21.2986 -3.94015e-05 0)
(-21.1584 -3.75874e-05 0)
(-21.026 -3.54145e-05 0)
(-20.9011 -3.34806e-05 0)
(-20.7822 -3.17415e-05 0)
(-20.6694 -3.035e-05 0)
(-20.56 -2.92544e-05 0)
(-20.4548 -2.78756e-05 0)
(-20.3551 -2.67232e-05 0)
(-20.2579 -2.57678e-05 0)
(-20.1648 -2.4669e-05 0)
(-20.0753 -2.35602e-05 0)
(-19.9901 -2.24225e-05 0)
(-19.9087 -2.15664e-05 0)
(-19.8295 -2.0762e-05 0)
(-19.7537 -1.9835e-05 0)
(-19.6811 -1.91138e-05 0)
(-19.6103 -1.84884e-05 0)
(-19.542 -1.78623e-05 0)
(-19.4757 -1.74467e-05 0)
(-19.4102 -1.69426e-05 0)
(-19.3474 -1.61849e-05 0)
(-19.2874 -1.55901e-05 0)
(-19.2288 -1.53599e-05 0)
(-19.1702 -1.49349e-05 0)
(-19.1147 -1.42321e-05 0)
(-19.0613 -1.37743e-05 0)
(-19.009 -1.33774e-05 0)
(-18.9583 -1.31186e-05 0)
(-18.9078 -1.26269e-05 0)
(-18.8608 -1.21835e-05 0)
(-18.8134 -1.18562e-05 0)
(-18.7687 -1.14845e-05 0)
(-18.724 -1.14206e-05 0)
(-18.6796 -1.11899e-05 0)
(-18.6365 -1.07326e-05 0)
(-18.5956 -1.04023e-05 0)
(-18.5549 -1.02117e-05 0)
(-18.5152 -9.87961e-06 0)
(-18.477 -9.3891e-06 0)
(-18.4411 -9.23468e-06 0)
(-18.4038 -9.2223e-06 0)
(-18.3678 -8.98955e-06 0)
(-18.3323 -8.52055e-06 0)
(-18.2999 -8.16645e-06 0)
(-18.267 -7.98495e-06 0)
(-18.2359 -7.66574e-06 0)
(-18.2055 -7.52446e-06 0)
(-18.1752 -7.55668e-06 0)
(-18.1443 -7.61419e-06 0)
(-18.1135 -7.43263e-06 0)
(-18.084 -7.09198e-06 0)
(-18.0558 -6.82109e-06 0)
(-18.0284 -6.7151e-06 0)
(-18.0009 -6.74914e-06 0)
(-17.973 -6.80271e-06 0)
(-17.9449 -6.77303e-06 0)
(-17.9172 -6.32807e-06 0)
(-17.8929 -5.84001e-06 0)
(-17.8691 -5.84417e-06 0)
(-17.8444 -5.87619e-06 0)
(-17.8202 -5.87042e-06 0)
(-17.7954 -5.87711e-06 0)
(-17.771 -5.74629e-06 0)
(-17.7473 -5.73536e-06 0)
(-17.7228 -5.71095e-06 0)
(-17.6992 -5.38692e-06 0)
(-17.6774 -5.12787e-06 0)
(-17.6559 -5.06981e-06 0)
(-17.6344 -4.98147e-06 0)
(-17.6135 -4.87596e-06 0)
(-17.5929 -4.72088e-06 0)
(-17.5732 -4.62545e-06 0)
(-17.5533 -4.72093e-06 0)
(-17.5327 -4.73153e-06 0)
(-17.5126 -4.63753e-06 0)
(-17.4928 -4.63642e-06 0)
(-17.4727 -4.46126e-06 0)
(-17.4543 -4.12147e-06 0)
(-17.4371 -4.0991e-06 0)
(-17.4188 -4.05122e-06 0)
(-17.4018 -4.16077e-06 0)
(-17.3823 -4.2829e-06 0)
(-17.3641 -4.31364e-06 0)
(-17.3443 -4.452e-06 0)
(-17.3249 -4.34795e-06 0)
(-17.3059 -4.11846e-06 0)
(-17.2885 -3.84403e-06 0)
(-17.272 -3.78939e-06 0)
(-17.255 -3.75338e-06 0)
(-17.2387 -3.44135e-06 0)
(-17.2244 -3.28312e-06 0)
(-17.2094 -3.3809e-06 0)
(-17.1941 -3.43731e-06 0)
(-17.1784 -3.53791e-06 0)
(-17.1621 -3.58849e-06 0)
(-17.1459 -3.5345e-06 0)
(-17.1301 -3.51241e-06 0)
(-17.1141 -3.45691e-06 0)
(-17.0988 -3.18725e-06 0)
(-17.0853 -2.8988e-06 0)
(-17.0724 -2.74397e-06 0)
(-17.0602 -2.74253e-06 0)
(-17.0472 -2.87415e-06 0)
(-17.0337 -2.77611e-06 0)
(-17.0216 -2.72797e-06 0)
(-17.0084 -2.99092e-06 0)
(-16.9938 -3.11096e-06 0)
(-16.9795 -3.12003e-06 0)
(-16.9647 -3.2031e-06 0)
(-16.9495 -3.26309e-06 0)
(-16.9342 -3.16757e-06 0)
(-16.9199 -2.94988e-06 0)
(-16.9066 -2.70967e-06 0)
(-16.8947 -2.40907e-06 0)
(-16.8841 -2.28823e-06 0)
(-16.8731 -2.17923e-06 0)
(-16.8635 -2.2025e-06 0)
(-16.8522 -2.50358e-06 0)
(-16.8396 -2.57269e-06 0)
(-16.8276 -2.47916e-06 0)
(-16.8159 -2.40528e-06 0)
(-16.8045 -2.38349e-06 0)
(-16.793 -2.40151e-06 0)
(-16.7813 -2.57923e-06 0)
(-16.768 -2.61957e-06 0)
(-16.756 -2.28228e-06 0)
(-16.746 -2.24641e-06 0)
(-16.7342 -2.3858e-06 0)
(-16.7227 -2.26357e-06 0)
(-16.7122 -2.10459e-06 0)
(-16.7022 -2.13426e-06 0)
(-16.6913 -2.03814e-06 0)
(-16.6822 -2.0274e-06 0)
(-16.6712 -2.33084e-06 0)
(-16.659 -2.2836e-06 0)
(-16.6487 -2.01132e-06 0)
(-16.6392 -2.06547e-06 0)
(-16.6282 -2.23451e-06 0)
(-16.617 -2.02805e-06 0)
(-16.608 -1.96378e-06 0)
(-16.5974 -1.88541e-06 0)
(-16.5892 -1.76132e-06 0)
(-16.5797 -1.76213e-06 0)
(-16.572 -1.65945e-06 0)
(-16.5645 -1.75585e-06 0)
(-16.5561 -1.8186e-06 0)
(-16.5478 -1.80768e-06 0)
(-16.5392 -1.87702e-06 0)
(-16.5302 -1.65476e-06 0)
(-16.5237 -1.22905e-06 0)
(-16.5185 -1.26046e-06 0)
(-16.5115 -1.43585e-06 0)
(-16.5045 -1.42693e-06 0)
(-16.4975 -1.67357e-06 0)
(-16.4878 -1.90278e-06 0)
(-16.4783 -1.78829e-06 0)
(-16.4696 -1.6191e-06 0)
(-16.4616 -1.4313e-06 0)
(-16.4548 -1.25523e-06 0)
(-16.4485 -1.35449e-06 0)
(-16.4402 -1.49063e-06 0)
(-16.4324 -1.29472e-06 0)
(-16.4262 -1.41979e-06 0)
(-16.4167 -1.63412e-06 0)
(-16.4081 -1.44733e-06 0)
(-16.4005 -1.37354e-06 0)
(-16.3925 -1.32334e-06 0)
(-16.3855 -1.204e-06 0)
(-16.3787 -1.20497e-06 0)
(-16.3713 -1.27225e-06 0)
(-16.3636 -1.20403e-06 0)
(-16.357 -1.12628e-06 0)
(-16.3499 -1.23757e-06 0)
(-16.3417 -1.33169e-06 0)
(-16.3334 -1.25977e-06 0)
(-16.326 -1.14179e-06 0)
(-16.319 -1.22165e-06 0)
(-16.3104 -1.2546e-06 0)
(-16.3028 -1.18232e-06 0)
(-16.295 -1.19157e-06 0)
(-16.2871 -1.21303e-06 0)
(-16.2787 -1.23985e-06 0)
(-16.2703 -1.0926e-06 0)
(-16.2639 -1.041e-06 0)
(-16.256 -1.21485e-06 0)
(-16.2469 -1.29731e-06 0)
(-16.2376 -1.3067e-06 0)
(-16.2282 -1.17293e-06 0)
(-16.2208 -1.02396e-06 0)
(-16.2134 -1.14497e-06 0)
(-16.2039 -1.1077e-06 0)
(-16.197 -9.2391e-07 0)
(-16.1902 -9.07706e-07 0)
(-16.1833 -9.38069e-07 0)
(-16.1758 -1.00839e-06 0)
(-16.1676 -9.28989e-07 0)
(-16.1612 -9.44954e-07 0)
(-16.1526 -1.00598e-06 0)
(-16.1451 -8.578e-07 0)
(-16.1388 -8.64509e-07 0)
(-16.131 -8.74752e-07 0)
(-16.1244 -7.09477e-07 0)
(-16.1194 -7.228e-07 0)
(-16.1124 -7.80995e-07 0)
(-16.1061 -6.53639e-07 0)
(-16.1011 -5.74809e-07 0)
(-16.0961 -7.27854e-07 0)
(-16.0882 -8.3848e-07 0)
(-16.0812 -7.72124e-07 0)
(-16.0744 -7.90866e-07 0)
(-16.0668 -7.18869e-07 0)
(-16.0612 -5.71876e-07 0)
(-16.0561 -5.63673e-07 0)
(-16.0505 -6.88766e-07 0)
(-16.043 -7.33285e-07 0)
(-16.0365 -6.28516e-07 0)
(-16.0308 -7.16083e-07 0)
(-16.0224 -7.07471e-07 0)
(-16.0169 -5.17744e-07 0)
(-16.0122 -4.42905e-07 0)
(-16.008 -4.35581e-07 0)
(-16.0032 -5.44708e-07 0)
(-15.9965 -6.7625e-07 0)
(-15.9889 -6.40262e-07 0)
(-15.983 -5.53767e-07 0)
(-15.977 -6.08563e-07 0)
(-15.9697 -5.99782e-07 0)
(-15.9639 -4.88385e-07 0)
(-15.959 -5.28488e-07 0)
(-15.952 -6.21889e-07 0)
(-15.9449 -5.32388e-07 0)
(-15.94 -3.83475e-07 0)
(-15.9362 -4.05966e-07 0)
(-15.9305 -4.67715e-07 0)
(-15.9251 -4.34314e-07 0)
(-15.9202 -4.93634e-07 0)
(-15.9132 -5.46838e-07 0)
(-15.9069 -4.30085e-07 0)
(-15.9027 -3.72372e-07 0)
(-15.8976 -3.75844e-07 0)
(-15.8932 -4.14467e-07 0)
(-15.8871 -4.46659e-07 0)
(-15.8818 -3.68308e-07 0)
(-15.8776 -3.60482e-07 0)
(-15.8723 -4.19111e-07 0)
(-15.8664 -3.74183e-07 0)
(-15.8623 -2.82825e-07 0)
(-15.8587 -3.63931e-07 0)
(-15.8522 -4.20985e-07 0)
(-15.847 -3.86381e-07 0)
(-15.8413 -3.41267e-07 0)
(-15.8373 -3.18623e-07 0)
(-15.8321 -3.84033e-07 0)
(-15.8261 -3.70921e-07 0)
(-15.8213 -3.06906e-07 0)
(-15.8171 -2.95907e-07 0)
(-15.8123 -3.68992e-07 0)
(-15.8057 -3.86667e-07 0)
(-15.8005 -3.33531e-07 0)
(-15.7954 -3.53495e-07 0)
(-15.7894 -3.13011e-07 0)
(-15.7855 -2.48004e-07 0)
(-15.7815 -2.89615e-07 0)
(-15.7761 -3.10224e-07 0)
(-15.7712 -3.46507e-07 0)
(-15.7645 -3.61978e-07 0)
(-15.7591 -2.81523e-07 0)
(-15.755 -3.0155e-07 0)
(-15.7488 -3.24632e-07 0)
(-15.7439 -2.87283e-07 0)
(-15.7388 -3.01981e-07 0)
(-15.7333 -2.5802e-07 0)
(-15.7297 -1.73568e-07 0)
(-15.7271 -1.45282e-07 0)
(-15.7244 -2.45237e-07 0)
(-15.7179 -3.26459e-07 0)
(-15.7121 -3.07142e-07 0)
(-15.7062 -3.18168e-07 0)
(-15.6998 -2.88091e-07 0)
(-15.6951 -2.54226e-07 0)
(-15.69 -2.77969e-07 0)
(-15.6842 -2.4403e-07 0)
(-15.6804 -1.6997e-07 0)
(-15.6775 -1.76431e-07 0)
(-15.6731 -2.35967e-07 0)
(-15.6676 -2.39695e-07 0)
(-15.6631 -2.20664e-07 0)
(-15.6583 -2.50716e-07 0)
(-15.6525 -2.51677e-07 0)
(-15.6476 -1.96516e-07 0)
(-15.644 -1.65903e-07 0)
(-15.6403 -2.07947e-07 0)
(-15.6347 -2.55637e-07 0)
(-15.6288 -2.30238e-07 0)
(-15.6244 -1.69198e-07 0)
(-15.6212 -1.57521e-07 0)
(-15.6171 -1.75721e-07 0)
(-15.6129 -1.94605e-07 0)
(-15.6079 -1.79662e-07 0)
(-15.6044 -1.39796e-07 0)
(-15.6011 -1.80933e-07 0)
(-15.5954 -2.31445e-07 0)
(-15.5896 -1.92307e-07 0)
(-15.5859 -1.35824e-07 0)
(-15.5828 -1.48965e-07 0)
(-15.5782 -1.95497e-07 0)
(-15.5727 -1.80677e-07 0)
(-15.5688 -1.39527e-07 0)
(-15.5653 -1.43419e-07 0)
(-15.5612 -1.34056e-07 0)
(-15.5582 -1.04117e-07 0)
(-15.5556 -1.30141e-07 0)
(-15.551 -1.4456e-07 0)
(-15.5475 -1.3349e-07 0)
(-15.5434 -1.62901e-07 0)
(-15.5382 -1.50708e-07 0)
(-15.5348 -1.23337e-07 0)
(-15.531 -1.47035e-07 0)
(-15.5261 -1.30926e-07 0)
(-15.5233 -9.5459e-08 0)
(-15.5205 -1.0904e-07 0)
(-15.5168 -1.06827e-07 0)
(-15.514 -9.84838e-08 0)
(-15.5107 -9.60114e-08 0)
(-15.5077 -8.89605e-08 0)
(-15.5041 -1.16155e-07 0)
(-15.4987 -1.31766e-07 0)
(-15.4939 -1.27583e-07 0)
(-15.4888 -1.34604e-07 0)
(-15.4835 -1.65732e-07 0)
(-15.4759 -1.92486e-07 0)
(-15.4685 -1.65148e-07 0)
(-15.4632 -1.1645e-07 0)
(-15.4596 -9.74097e-08 0)
(-15.4557 -1.05004e-07 0)
(-15.4516 -9.63072e-08 0)
(-15.4484 -8.4857e-08 0)
(-15.4451 -7.34395e-08 0)
(-15.4428 -6.33583e-08 0)
(-15.4402 -9.03154e-08 0)
(-15.4357 -1.10623e-07 0)
(-15.4317 -8.50373e-08 0)
(-15.4292 -6.90387e-08 0)
(-15.4263 -7.48572e-08 0)
(-15.4235 -5.78023e-08 0)
(-15.422 -3.56573e-08 0)
(-15.4208 -5.28259e-08 0)
(-15.4179 -8.89622e-08 0)
(-15.4139 -9.05875e-08 0)
(-15.4109 -7.95014e-08 0)
(-15.4078 -6.70677e-08 0)
(-15.4057 -5.35667e-08 0)
(-15.4036 -6.01783e-08 0)
(-15.4011 -6.02057e-08 0)
(-15.399 -5.86695e-08 0)
(-15.3965 -6.88522e-08 0)
(-15.3937 -6.58411e-08 0)
(-15.3915 -6.00863e-08 0)
(-15.3891 -5.67642e-08 0)
(-15.3872 -4.02858e-08 0)
(-15.3861 -2.87812e-08 0)
(-15.385 -3.60917e-08 0)
(-15.3833 -5.55611e-08 0)
(-15.3807 -6.95472e-08 0)
(-15.3779 -6.59026e-08 0)
(-15.3756 -6.13647e-08 0)
(-15.3732 -4.99569e-08 0)
(-15.3719 -4.46102e-08 0)
(-15.3698 -5.28588e-08 0)
(-15.3678 -3.73151e-08 0)
(-15.367 -2.42866e-08 0)
(-15.366 -2.86546e-08 0)
(-15.3648 -4.01295e-08 0)
(-15.3629 -5.47643e-08 0)
(-15.3607 -5.67401e-08 0)
(-15.3586 -4.93106e-08 0)
(-15.3569 -5.04513e-08 0)
(-15.3547 -5.69273e-08 0)
(-15.3525 -4.80509e-08 0)
(-15.3511 -4.81317e-08 0)
(-15.3488 -4.32355e-08 0)
(-15.3477 -3.3091e-08 0)
(-15.3462 -3.50067e-08 0)
(-15.345 -3.86824e-08 0)
(-15.3433 -3.17768e-08 0)
(-15.3426 -1.64015e-08 0)
(-15.3422 -9.60273e-09 0)
(-15.342 1.739e-10 0)
(-15.3422 -5.79276e-09 0)
(-15.3416 -3.44753e-08 0)
(-15.3395 -5.36819e-08 0)
(-15.3374 -4.91144e-08 0)
(-15.3357 -3.34049e-08 0)
(-15.3348 -2.75586e-08 0)
(-15.3336 -2.98192e-08 0)
(-15.3325 -3.04925e-08 0)
(-15.3313 -3.62457e-08 0)
(-15.3298 -3.37021e-08 0)
(-15.3287 -2.93303e-08 0)
(-15.3275 -3.80859e-08 0)
(-15.3258 -3.38425e-08 0)
(-15.3249 -2.99783e-08 0)
(-15.3234 -4.35535e-08 0)
(-15.3215 -5.06235e-08 0)
(-15.3195 -3.55295e-08 0)
(-15.3188 -1.73858e-08 0)
(-15.3183 -1.69741e-08 0)
(-15.3176 -1.8249e-08 0)
(-15.3169 -2.62257e-08 0)
(-15.3155 -3.97954e-08 0)
(-15.3138 -3.54431e-08 0)
(-15.3128 -2.32758e-08 0)
(-15.312 -1.85624e-08 0)
(-15.3115 -2.29295e-08 0)
(-15.3103 -2.04847e-08 0)
(-15.3099 -2.30212e-08 0)
(-15.3085 -1.88633e-08 0)
(-15.3085 -2.35114e-08 0)
(-15.3067 -2.33762e-08 0)
)
;
    }
    symmetry
    {
        type            symmetryPlane;
    }
    frontAndBack
    {
        type            empty;
    }
}


// ************************************************************************* //
