/*--------------------------------*- C++ -*----------------------------------*\
| =========                 |                                                 |
| \\      /  F ield         | OpenFOAM: The Open Source CFD Toolbox           |
|  \\    /   O peration     | Version:  v2012                                 |
|   \\  /    A nd           | Website:  www.openfoam.com                      |
|    \\/     M anipulation  |                                                 |
\*---------------------------------------------------------------------------*/
FoamFile
{
    version     2.0;
    format      ascii;
    class       volScalarField;
    location    "9.5";
    object      yPlus;
}
// * * * * * * * * * * * * * * * * * * * * * * * * * * * * * * * * * * * * * //

dimensions      [0 0 0 0 0 0 0];


internalField   uniform 0;

boundaryField
{
    inlet
    {
        type            calculated;
        value           uniform 0;
    }
    outlet
    {
        type            calculated;
        value           uniform 0;
    }
    topWall
    {
        type            calculated;
        value           nonuniform List<scalar> 
545
(
0.0860895
0.14904
0.191251
0.224695
0.252976
0.277689
0.299732
0.319669
0.337886
0.354657
0.370191
0.384648
0.398156
0.410818
0.422721
0.433937
0.444527
0.454545
0.464036
0.47304
0.481595
0.489731
0.497476
0.504858
0.511898
0.518619
0.525039
0.531175
0.537045
0.542663
0.548043
0.553197
0.558138
0.562877
0.567423
0.571787
0.575977
0.580002
0.583869
0.587587
0.591162
0.594601
0.597909
0.601093
0.604159
0.60711
0.609953
0.612693
0.615332
0.617876
0.620329
0.622694
0.624975
0.627176
0.629299
0.631348
0.633325
0.635234
0.637077
0.638857
0.640576
0.642236
0.64384
0.64539
0.646887
0.648334
0.649733
0.651085
0.652393
0.653657
0.654879
0.656061
0.657187
0.658275
0.659352
0.660418
0.661474
0.662519
0.663554
0.664578
0.665592
0.666597
0.667591
0.668575
0.66955
0.670515
0.67147
0.672416
0.673353
0.674281
0.675199
0.676108
0.677008
0.6779
0.678782
0.679659
0.680434
0.681126
0.681817
0.682506
0.683195
0.683882
0.684568
0.685253
0.685936
0.686619
0.6873
0.68798
0.688659
0.689337
0.690013
0.690688
0.691362
0.692035
0.692706
0.693376
0.694045
0.694713
0.695379
0.696044
0.696707
0.697369
0.69803
0.69869
0.699348
0.700004
0.700659
0.701313
0.701966
0.702617
0.703266
0.703914
0.704561
0.705206
0.705849
0.706491
0.707132
0.707771
0.708408
0.709044
0.709678
0.710311
0.710942
0.711572
0.7122
0.712826
0.71345
0.714073
0.714695
0.715314
0.715932
0.716549
0.717163
0.717776
0.718387
0.718996
0.719604
0.720209
0.720813
0.721416
0.722016
0.722614
0.723211
0.723806
0.724399
0.72499
0.725579
0.726166
0.726752
0.727335
0.727917
0.728496
0.729074
0.729649
0.730223
0.730794
0.731364
0.731931
0.732497
0.73306
0.733621
0.73418
0.734737
0.735292
0.735845
0.736396
0.736944
0.73749
0.738034
0.738576
0.739116
0.739653
0.740189
0.740722
0.741252
0.741781
0.742307
0.74283
0.743352
0.743871
0.744388
0.744902
0.745414
0.745923
0.74643
0.746935
0.747437
0.747937
0.748434
0.748929
0.749421
0.749911
0.750398
0.750883
0.751365
0.751845
0.752322
0.752796
0.753268
0.753737
0.754203
0.754667
0.755128
0.755586
0.756042
0.756495
0.756945
0.757392
0.757837
0.758279
0.758718
0.759154
0.759588
0.760018
0.760446
0.76087
0.761292
0.761711
0.762128
0.762541
0.762951
0.763358
0.763762
0.764163
0.764562
0.764957
0.765349
0.765738
0.766124
0.766507
0.766887
0.767263
0.767637
0.768007
0.768375
0.768739
0.7691
0.769457
0.769812
0.770163
0.770511
0.770855
0.771197
0.771535
0.77187
0.772201
0.772529
0.772853
0.773177
0.773471
0.773745
0.774019
0.774293
0.774567
0.774841
0.775115
0.77539
0.775663
0.775937
0.77621
0.776483
0.776755
0.777027
0.777298
0.777569
0.777838
0.778107
0.778375
0.778641
0.778906
0.779171
0.779433
0.779694
0.779954
0.780212
0.780468
0.780722
0.780974
0.781223
0.781471
0.781716
0.781958
0.782198
0.782435
0.782669
0.7829
0.783128
0.783353
0.783574
0.783791
0.784004
0.784214
0.784419
0.78462
0.784817
0.785008
0.785196
0.785378
0.785555
0.785727
0.785893
0.786053
0.786208
0.786356
0.786499
0.786634
0.786764
0.786886
0.787001
0.787109
0.787209
0.787301
0.787386
0.787462
0.78753
0.78759
0.78764
0.787681
0.787713
0.787735
0.787748
0.78775
0.787742
0.787723
0.787693
0.787652
0.7876
0.787536
0.78746
0.787372
0.787271
0.787158
0.787031
0.786891
0.786737
0.786569
0.786388
0.786191
0.78598
0.785753
0.785511
0.785254
0.78498
0.78469
0.784383
0.784059
0.783718
0.78336
0.782983
0.782589
0.782175
0.781743
0.781292
0.780822
0.780331
0.779821
0.77929
0.778739
0.778166
0.777573
0.776957
0.77632
0.775661
0.774979
0.774275
0.773547
0.772796
0.772022
0.771224
0.770401
0.769554
0.768683
0.767786
0.766865
0.765918
0.764945
0.763947
0.762922
0.761871
0.760794
0.759689
0.758559
0.7574
0.756215
0.755002
0.753762
0.752493
0.751198
0.749873
0.748522
0.747141
0.745733
0.744296
0.742831
0.741337
0.739815
0.738264
0.736686
0.735078
0.733442
0.731777
0.730085
0.728364
0.726616
0.724838
0.723034
0.721201
0.719342
0.717454
0.71554
0.713598
0.711631
0.709636
0.707616
0.705569
0.703498
0.7014
0.699279
0.697132
0.694963
0.692768
0.690551
0.68831
0.686048
0.683762
0.681457
0.679129
0.676783
0.674415
0.672028
0.669358
0.666431
0.663515
0.660615
0.657728
0.65486
0.652005
0.64917
0.646351
0.643553
0.640772
0.638014
0.635275
0.63256
0.629865
0.627195
0.624546
0.621924
0.619323
0.61675
0.6142
0.611678
0.60918
0.60671
0.604265
0.601849
0.599458
0.597098
0.594763
0.592458
0.59018
0.587933
0.585713
0.583524
0.581362
0.579232
0.57713
0.575061
0.573019
0.57101
0.569029
0.567082
0.565163
0.563278
0.561422
0.5596
0.557807
0.556048
0.554319
0.552624
0.550959
0.549329
0.54773
0.546165
0.544631
0.543132
0.541664
0.540231
0.53883
0.537464
0.53613
0.534832
0.533566
0.532336
0.531138
0.529977
0.528849
0.527757
0.526698
0.525676
0.524688
0.523736
0.522819
0.521939
0.521093
0.520284
0.519511
0.518775
0.518074
0.517411
0.516783
0.516193
0.51564
0.515124
0.514645
0.514204
0.5138
0.513435
0.513108
0.51282
0.512572
0.512365
0.512193
0.512084
0.511918
)
;
    }
    bottomWall
    {
        type            calculated;
        value           nonuniform List<scalar> 
449
(
0.00275583
0.00483808
0.00540307
0.00536123
0.00530302
0.00520059
0.00507194
0.00493963
0.00481489
0.00470144
0.0045994
0.00450785
0.00442526
0.00435011
0.00428236
0.00422084
0.00416404
0.00411236
0.00406433
0.0040195
0.00397818
0.00393915
0.00390308
0.00386912
0.00383669
0.00380631
0.00377791
0.00375091
0.00372568
0.00370152
0.00367801
0.00365583
0.00363492
0.00361497
0.00359606
0.00357757
0.00355978
0.00354294
0.00352639
0.00351058
0.00349535
0.0034809
0.00346708
0.00345359
0.00344073
0.0034284
0.00341633
0.00340469
0.00339332
0.00338205
0.00337128
0.00336102
0.00335094
0.00334078
0.00333125
0.00332205
0.00331306
0.00330432
0.00329557
0.00328753
0.00327933
0.00327167
0.0032639
0.00325614
0.00324861
0.00324146
0.00323432
0.00322738
0.00322076
0.00321456
0.00320803
0.00320174
0.00319556
0.00319002
0.00318433
0.00317903
0.00317379
0.00316857
0.00316313
0.00315767
0.00315248
0.00314757
0.00314279
0.00313797
0.00313302
0.00312802
0.00312309
0.00311891
0.00311477
0.00311044
0.00310617
0.00310177
0.00309744
0.00309322
0.0030888
0.00308459
0.00308076
0.00307695
0.00307317
0.00306947
0.00306581
0.00306234
0.00305877
0.00305504
0.00305142
0.00304782
0.00304418
0.00304096
0.00303794
0.00303471
0.00303174
0.00302821
0.00302497
0.00302132
0.00301781
0.00301438
0.00301129
0.00300836
0.00300529
0.00300239
0.00299989
0.00299721
0.00299446
0.00299165
0.00298872
0.00298581
0.00298292
0.00298
0.00297721
0.00297482
0.00297254
0.00297037
0.00296801
0.00296556
0.00296343
0.002961
0.00295829
0.00295566
0.00295293
0.00295013
0.00294731
0.00294469
0.00294224
0.00294014
0.00293827
0.00293629
0.0029346
0.00293249
0.00293017
0.002928
0.0029259
0.00292387
0.00292176
0.00291959
0.00291707
0.00291492
0.00291308
0.00291086
0.00290872
0.00290681
0.00290499
0.00290299
0.00290138
0.00289931
0.00289707
0.00289521
0.0028935
0.00289143
0.00288939
0.00288776
0.00288576
0.00288429
0.00288252
0.00288115
0.00287978
0.00287821
0.00287667
0.00287505
0.00287337
0.00287222
0.00287126
0.00286991
0.00286866
0.00286738
0.00286551
0.00286375
0.00286212
0.00286065
0.00285945
0.0028583
0.00285672
0.00285528
0.00285417
0.00285235
0.00285079
0.00284941
0.00284795
0.0028467
0.00284546
0.00284409
0.00284268
0.0028415
0.00284018
0.00283863
0.0028371
0.00283575
0.0028345
0.00283289
0.00283153
0.00283008
0.0028286
0.00282699
0.00282545
0.00282434
0.00282285
0.00282116
0.00281939
0.00281762
0.00281627
0.00281486
0.00281311
0.00281187
0.00281062
0.00280938
0.00280799
0.0028065
0.00280534
0.00280373
0.00280239
0.00280123
0.0027998
0.00279865
0.00279778
0.00279653
0.00279542
0.00279453
0.0027936
0.00279212
0.00279085
0.00278962
0.00278824
0.00278725
0.00278633
0.0027853
0.00278388
0.0027827
0.00278169
0.00278011
0.00277916
0.00277835
0.00277766
0.00277682
0.00277558
0.00277413
0.00277305
0.00277192
0.00277057
0.0027696
0.00276875
0.00276743
0.00276609
0.00276525
0.00276458
0.00276354
0.0027626
0.00276171
0.00276039
0.00275924
0.00275851
0.0027576
0.00275684
0.00275572
0.00275474
0.00275398
0.00275301
0.00275193
0.00275122
0.00275059
0.00274935
0.00274842
0.0027474
0.00274669
0.00274572
0.00274462
0.00274376
0.00274297
0.00274207
0.00274083
0.00273989
0.00273897
0.00273788
0.00273722
0.00273648
0.00273547
0.00273456
0.00273326
0.00273222
0.00273143
0.00273023
0.00272935
0.00272841
0.0027274
0.00272677
0.00272634
0.00272589
0.00272469
0.00272363
0.00272254
0.00272136
0.00272052
0.00271957
0.00271851
0.00271783
0.00271732
0.00271647
0.00271543
0.00271458
0.00271368
0.0027126
0.00271173
0.00271109
0.00271041
0.00270935
0.00270819
0.00270738
0.00270683
0.00270609
0.00270534
0.00270441
0.00270379
0.00270318
0.00270207
0.00270093
0.00270023
0.00269966
0.00269883
0.00269781
0.00269711
0.00269648
0.00269571
0.00269516
0.00269469
0.00269382
0.00269317
0.00269235
0.00269134
0.0026907
0.00268994
0.00268901
0.00268852
0.00268801
0.00268734
0.00268685
0.00268622
0.00268569
0.00268505
0.00268402
0.00268311
0.00268218
0.00268118
0.00267969
0.00267828
0.00267727
0.0026766
0.00267587
0.00267512
0.00267453
0.00267394
0.00267354
0.00267307
0.0026722
0.00267144
0.002671
0.00267042
0.00266989
0.00266963
0.00266943
0.00266889
0.00266815
0.00266758
0.00266698
0.0026666
0.00266622
0.00266576
0.00266535
0.00266485
0.00266432
0.00266391
0.00266345
0.00266312
0.00266292
0.00266275
0.00266246
0.00266197
0.00266142
0.00266099
0.00266054
0.0026603
0.00265989
0.00265951
0.00265938
0.00265922
0.00265899
0.00265862
0.00265823
0.00265787
0.00265754
0.00265713
0.00265673
0.00265647
0.00265601
0.0026558
0.00265553
0.00265526
0.00265489
0.00265476
0.00265469
0.00265469
0.00265477
0.00265466
0.00265427
0.00265386
0.00265355
0.00265338
0.00265315
0.00265292
0.00265267
0.00265244
0.00265231
0.0026521
0.00265175
0.00265159
0.0026513
0.00265091
0.00265051
0.00265039
0.00265031
0.00265019
0.00265006
0.00264979
0.00264945
0.00264929
0.00264918
0.00264907
0.00264886
0.00264879
0.00264857
0.0026485
0.00264814
)
;
    }
    symmetry
    {
        type            symmetryPlane;
    }
    frontAndBack
    {
        type            empty;
    }
}


// ************************************************************************* //
