/*--------------------------------*- C++ -*----------------------------------*\
| =========                 |                                                 |
| \\      /  F ield         | OpenFOAM: The Open Source CFD Toolbox           |
|  \\    /   O peration     | Version:  v2012                                 |
|   \\  /    A nd           | Website:  www.openfoam.com                      |
|    \\/     M anipulation  |                                                 |
\*---------------------------------------------------------------------------*/
FoamFile
{
    version     2.0;
    format      ascii;
    class       volScalarField;
    location    "48.5";
    object      k;
}
// * * * * * * * * * * * * * * * * * * * * * * * * * * * * * * * * * * * * * //

dimensions      [0 2 -2 0 0 0 0];


internalField   nonuniform List<scalar> 
209825
(
0.00102407
0.000932039
0.000855879
0.000792951
0.000741564
0.000699824
0.000666005
0.00063841
0.00061578
0.000596991
0.0005813
0.000568026
0.000556746
0.000547044
0.000538675
0.000531378
0.000525
0.000519379
0.000514409
0.00050999
0.000506042
0.000502509
0.00049932
0.000496456
0.000493843
0.000491491
0.000489324
0.000487372
0.000485556
0.000483919
0.000482381
0.000481001
0.000479687
0.000478513
0.000477384
0.000476381
0.000475403
0.00047454
0.000473689
0.000472943
0.0004722
0.000471552
0.000470899
0.000470339
0.000469763
0.000469274
0.000468765
0.000468338
0.000467887
0.000467514
0.000467112
0.000466784
0.000466423
0.000466143
0.000465818
0.000465576
0.000465287
0.000465074
0.000464818
0.00046463
0.000464405
0.000464235
0.000464037
0.000463888
0.000463708
0.000463585
0.000463423
0.00046331
0.000463159
0.000463062
0.000462933
0.000462854
0.000462747
0.000462683
0.000462586
0.000462524
0.000462431
0.000462374
0.000462288
0.000462238
0.000462163
0.000462121
0.000462056
0.000462024
0.00046197
0.000461946
0.000461895
0.000461885
0.000461863
0.000461865
0.000461849
0.000461892
0.00046206
0.000469557
0.000493592
0.00119808
0.00102407
0.000932039
0.000855879
0.000792951
0.000741564
0.000699823
0.000666003
0.000638407
0.000615776
0.000596987
0.000581295
0.00056802
0.000556739
0.000547037
0.000538667
0.00053137
0.000524992
0.00051937
0.0005144
0.000509981
0.000506032
0.000502499
0.00049931
0.000496445
0.000493832
0.00049148
0.000489313
0.000487361
0.000485544
0.000483907
0.00048237
0.000480989
0.000479676
0.000478501
0.000477372
0.000476369
0.000475391
0.000474528
0.000473676
0.000472931
0.000472188
0.00047154
0.000470887
0.000470327
0.00046975
0.000469261
0.000468752
0.000468326
0.000467875
0.000467501
0.000467099
0.000466771
0.000466411
0.000466131
0.000465805
0.000465563
0.000465274
0.000465061
0.000464805
0.000464617
0.000464391
0.000464222
0.000464024
0.000463875
0.000463695
0.000463572
0.000463409
0.000463297
0.000463146
0.000463049
0.000462919
0.000462841
0.000462734
0.00046267
0.000462572
0.000462511
0.000462417
0.00046236
0.000462275
0.000462225
0.000462149
0.000462108
0.000462043
0.00046201
0.000461957
0.000461932
0.000461882
0.000461871
0.000461849
0.000461851
0.000461835
0.000461878
0.000462047
0.000469557
0.000493586
0.00119875
0.00102407
0.00093204
0.00085588
0.000792951
0.000741561
0.000699817
0.000665994
0.000638394
0.00061576
0.000596967
0.000581273
0.000567995
0.000556712
0.000547007
0.000538636
0.000531337
0.000524957
0.000519334
0.000514362
0.000509943
0.000505992
0.000502459
0.000499269
0.000496403
0.00049379
0.000491436
0.000489269
0.000487316
0.000485499
0.000483862
0.000482324
0.000480943
0.000479629
0.000478454
0.000477324
0.000476321
0.000475343
0.00047448
0.000473628
0.000472882
0.000472139
0.000471491
0.000470837
0.000470277
0.0004697
0.000469211
0.000468702
0.000468275
0.000467824
0.000467451
0.000467048
0.00046672
0.000466359
0.000466079
0.000465754
0.000465511
0.000465222
0.000465009
0.000464753
0.000464565
0.00046434
0.00046417
0.000463972
0.000463823
0.000463642
0.00046352
0.000463357
0.000463244
0.000463093
0.000462996
0.000462867
0.000462788
0.000462681
0.000462617
0.00046252
0.000462458
0.000462364
0.000462307
0.000462222
0.000462172
0.000462096
0.000462054
0.000461989
0.000461957
0.000461903
0.000461879
0.000461828
0.000461817
0.000461795
0.000461797
0.000461781
0.000461824
0.000461993
0.000469531
0.000493545
0.00120011
0.00102407
0.00093204
0.000855881
0.000792951
0.000741557
0.000699808
0.000665978
0.000638372
0.000615732
0.000596934
0.000581234
0.000567952
0.000556665
0.000546957
0.000538583
0.000531281
0.000524899
0.000519273
0.000514299
0.000509878
0.000505926
0.000502391
0.000499199
0.000496333
0.000493718
0.000491363
0.000489195
0.000487241
0.000485424
0.000483785
0.000482247
0.000480865
0.00047955
0.000478375
0.000477245
0.000476241
0.000475263
0.000474398
0.000473546
0.0004728
0.000472056
0.000471408
0.000470754
0.000470194
0.000469617
0.000469127
0.000468618
0.000468191
0.000467739
0.000467366
0.000466963
0.000466635
0.000466274
0.000465993
0.000465668
0.000465425
0.000465136
0.000464922
0.000464666
0.000464478
0.000464252
0.000464083
0.000463885
0.000463735
0.000463555
0.000463432
0.000463269
0.000463156
0.000463005
0.000462908
0.000462778
0.000462699
0.000462592
0.000462528
0.000462431
0.000462369
0.000462275
0.000462218
0.000462132
0.000462083
0.000462007
0.000461965
0.0004619
0.000461867
0.000461813
0.000461789
0.000461738
0.000461727
0.000461705
0.000461707
0.000461691
0.000461733
0.000461903
0.000469484
0.000493474
0.00120181
0.00102407
0.000932041
0.000855883
0.00079295
0.000741551
0.000699794
0.000665956
0.000638341
0.000615693
0.000596887
0.000581181
0.000567892
0.0005566
0.000546887
0.000538508
0.000531202
0.000524816
0.000519187
0.000514211
0.000509786
0.000505832
0.000502295
0.000499102
0.000496233
0.000493616
0.000491261
0.000489091
0.000487136
0.000485317
0.000483678
0.000482138
0.000480755
0.000479439
0.000478263
0.000477132
0.000476128
0.000475149
0.000474284
0.000473431
0.000472684
0.00047194
0.000471291
0.000470637
0.000470076
0.000469499
0.000469008
0.000468499
0.000468071
0.00046762
0.000467246
0.000466842
0.000466514
0.000466153
0.000465872
0.000465546
0.000465303
0.000465014
0.0004648
0.000464544
0.000464355
0.000464129
0.00046396
0.000463761
0.000463612
0.000463431
0.000463308
0.000463145
0.000463032
0.000462881
0.000462784
0.000462654
0.000462575
0.000462467
0.000462403
0.000462306
0.000462244
0.00046215
0.000462093
0.000462007
0.000461957
0.000461881
0.000461839
0.000461773
0.000461741
0.000461687
0.000461662
0.000461611
0.0004616
0.000461578
0.000461579
0.000461563
0.000461605
0.000461777
0.000469417
0.000493374
0.00120371
0.00102407
0.000932043
0.000855885
0.00079295
0.000741544
0.000699777
0.000665927
0.000638301
0.000615642
0.000596826
0.000581111
0.000567814
0.000556515
0.000546795
0.00053841
0.000531099
0.000524709
0.000519076
0.000514096
0.000509668
0.000505711
0.00050217
0.000498975
0.000496104
0.000493485
0.000491127
0.000488956
0.000486999
0.000485178
0.000483538
0.000481997
0.000480612
0.000479296
0.000478118
0.000476986
0.000475981
0.000475001
0.000474135
0.000473282
0.000472534
0.000471789
0.00047114
0.000470485
0.000469923
0.000469345
0.000468855
0.000468345
0.000467917
0.000467464
0.00046709
0.000466686
0.000466358
0.000465996
0.000465715
0.000465389
0.000465145
0.000464856
0.000464642
0.000464385
0.000464196
0.00046397
0.0004638
0.000463601
0.000463452
0.000463271
0.000463147
0.000462984
0.000462871
0.00046272
0.000462622
0.000462492
0.000462413
0.000462305
0.000462241
0.000462143
0.000462081
0.000461987
0.00046193
0.000461844
0.000461794
0.000461717
0.000461675
0.00046161
0.000461577
0.000461523
0.000461498
0.000461447
0.000461436
0.000461414
0.000461414
0.000461397
0.00046144
0.000461612
0.00046933
0.000493244
0.00120578
0.00102407
0.000932044
0.000855888
0.000792949
0.000741535
0.000699755
0.000665892
0.000638252
0.000615579
0.000596751
0.000581025
0.000567718
0.00055641
0.000546682
0.00053829
0.000530973
0.000524577
0.000518939
0.000513954
0.000509522
0.000505561
0.000502017
0.000498818
0.000495944
0.000493323
0.000490963
0.000488789
0.00048683
0.000485008
0.000483365
0.000481823
0.000480437
0.000479119
0.00047794
0.000476807
0.0004758
0.000474819
0.000473953
0.000473098
0.00047235
0.000471604
0.000470953
0.000470298
0.000469735
0.000469157
0.000468665
0.000468154
0.000467726
0.000467273
0.000466898
0.000466494
0.000466165
0.000465803
0.000465521
0.000465195
0.000464951
0.000464661
0.000464446
0.000464189
0.000464
0.000463774
0.000463604
0.000463404
0.000463255
0.000463073
0.000462949
0.000462786
0.000462672
0.000462521
0.000462423
0.000462293
0.000462213
0.000462106
0.000462041
0.000461943
0.000461881
0.000461787
0.000461729
0.000461643
0.000461592
0.000461516
0.000461474
0.000461408
0.000461375
0.00046132
0.000461295
0.000461244
0.000461233
0.000461211
0.00046121
0.000461192
0.000461235
0.00046141
0.000469223
0.000493084
0.00120793
0.00102407
0.000932046
0.000855892
0.000792949
0.000741524
0.00069973
0.00066585
0.000638194
0.000615505
0.000596662
0.000580923
0.000567604
0.000556285
0.000546548
0.000538148
0.000530823
0.00052442
0.000518776
0.000513785
0.000509348
0.000505383
0.000501834
0.000498632
0.000495754
0.00049313
0.000490767
0.00048859
0.000486629
0.000484804
0.00048316
0.000481615
0.000480227
0.000478908
0.000477727
0.000476593
0.000475585
0.000474602
0.000473734
0.000472879
0.000472129
0.000471382
0.000470731
0.000470074
0.000469511
0.000468931
0.000468439
0.000467928
0.000467499
0.000467045
0.00046667
0.000466265
0.000465935
0.000465572
0.00046529
0.000464963
0.000464719
0.000464428
0.000464213
0.000463955
0.000463766
0.000463539
0.000463369
0.000463169
0.000463019
0.000462837
0.000462713
0.000462549
0.000462436
0.000462284
0.000462186
0.000462055
0.000461976
0.000461867
0.000461803
0.000461704
0.000461642
0.000461547
0.00046149
0.000461403
0.000461353
0.000461276
0.000461233
0.000461167
0.000461134
0.000461079
0.000461054
0.000461002
0.00046099
0.000460969
0.000460967
0.000460948
0.000460991
0.000461168
0.000469097
0.000492893
0.00121
0.00102407
0.000932048
0.000855896
0.000792948
0.000741512
0.0006997
0.000665802
0.000638126
0.000615418
0.000596559
0.000580804
0.000567471
0.00055614
0.000546392
0.000537982
0.000530648
0.000524237
0.000518586
0.000513589
0.000509146
0.000505175
0.000501622
0.000498415
0.000495533
0.000492905
0.000490539
0.000488359
0.000486395
0.000484567
0.00048292
0.000481373
0.000479984
0.000478662
0.00047748
0.000476343
0.000475333
0.00047435
0.00047348
0.000472623
0.000471872
0.000471124
0.000470472
0.000469814
0.00046925
0.000468669
0.000468176
0.000467664
0.000467234
0.000466779
0.000466403
0.000465997
0.000465667
0.000465304
0.000465021
0.000464693
0.000464448
0.000464157
0.000463942
0.000463683
0.000463494
0.000463266
0.000463095
0.000462895
0.000462745
0.000462562
0.000462438
0.000462274
0.00046216
0.000462008
0.00046191
0.000461778
0.000461699
0.00046159
0.000461525
0.000461426
0.000461364
0.000461269
0.000461211
0.000461124
0.000461073
0.000460996
0.000460953
0.000460887
0.000460853
0.000460798
0.000460772
0.000460721
0.000460708
0.000460686
0.000460684
0.000460664
0.000460707
0.000460887
0.000468953
0.000492673
0.00121178
0.00102406
0.00093205
0.0008559
0.000792948
0.000741497
0.000699667
0.000665747
0.000638048
0.00061532
0.000596441
0.000580668
0.00056732
0.000555974
0.000546214
0.000537792
0.000530448
0.000524028
0.000518368
0.000513364
0.000508914
0.000504937
0.000501379
0.000498167
0.000495281
0.000492648
0.000490278
0.000488095
0.000486127
0.000484297
0.000482647
0.000481097
0.000479705
0.000478381
0.000477196
0.000476058
0.000475046
0.000474061
0.00047319
0.000472331
0.000471579
0.000470829
0.000470175
0.000469516
0.000468951
0.000468369
0.000467875
0.000467362
0.000466931
0.000466475
0.000466099
0.000465692
0.000465361
0.000464996
0.000464713
0.000464385
0.000464139
0.000463847
0.000463631
0.000463372
0.000463182
0.000462954
0.000462783
0.000462582
0.000462431
0.000462248
0.000462123
0.000461959
0.000461845
0.000461692
0.000461593
0.000461462
0.000461381
0.000461273
0.000461207
0.000461108
0.000461045
0.00046095
0.000460892
0.000460804
0.000460753
0.000460676
0.000460633
0.000460566
0.000460532
0.000460476
0.00046045
0.000460398
0.000460386
0.000460363
0.000460361
0.000460339
0.000460382
0.000460565
0.00046879
0.000492422
0.00121294
0.00102406
0.000932053
0.000855905
0.000792947
0.000741482
0.00069963
0.000665685
0.000637961
0.000615209
0.000596308
0.000580516
0.00056715
0.000555788
0.000546013
0.000537578
0.000530223
0.000523792
0.000518124
0.000513111
0.000508654
0.00050467
0.000501105
0.000497887
0.000494996
0.000492359
0.000489984
0.000487796
0.000485825
0.000483991
0.000482338
0.000480785
0.00047939
0.000478063
0.000476877
0.000475736
0.000474722
0.000473735
0.000472862
0.000472001
0.000471248
0.000470496
0.000469841
0.000469181
0.000468614
0.000468031
0.000467536
0.000467021
0.000466589
0.000466132
0.000465755
0.000465347
0.000465015
0.00046465
0.000464366
0.000464036
0.00046379
0.000463497
0.000463281
0.000463021
0.00046283
0.000462601
0.00046243
0.000462228
0.000462077
0.000461893
0.000461768
0.000461603
0.000461489
0.000461335
0.000461236
0.000461104
0.000461024
0.000460914
0.000460849
0.000460749
0.000460686
0.00046059
0.000460532
0.000460444
0.000460392
0.000460314
0.000460271
0.000460203
0.000460169
0.000460113
0.000460087
0.000460035
0.000460021
0.000459999
0.000459995
0.000459972
0.000460015
0.000460202
0.00046861
0.000492139
0.00121304
0.00102406
0.000932055
0.000855911
0.000792946
0.000741464
0.000699588
0.000665616
0.000637865
0.000615086
0.000596161
0.000580346
0.00056696
0.00055558
0.000545789
0.00053734
0.000529972
0.00052353
0.000517851
0.000512829
0.000508363
0.000504371
0.0005008
0.000497575
0.000494678
0.000492036
0.000489656
0.000487464
0.000485488
0.00048365
0.000481994
0.000480438
0.00047904
0.00047771
0.000476521
0.000475377
0.000474361
0.000473371
0.000472496
0.000471633
0.000470878
0.000470125
0.000469468
0.000468806
0.000468238
0.000467653
0.000467157
0.000466641
0.000466208
0.00046575
0.000465371
0.000464962
0.00046463
0.000464263
0.000463978
0.000463648
0.000463401
0.000463107
0.00046289
0.000462629
0.000462438
0.000462208
0.000462036
0.000461834
0.000461682
0.000461498
0.000461372
0.000461206
0.000461091
0.000460938
0.000460838
0.000460706
0.000460624
0.000460514
0.000460448
0.000460348
0.000460285
0.000460189
0.00046013
0.000460041
0.00045999
0.000459911
0.000459867
0.000459799
0.000459764
0.000459708
0.000459681
0.000459629
0.000459615
0.000459592
0.000459587
0.000459562
0.000459606
0.000459798
0.000468411
0.000491826
0.00121173
0.00102406
0.000932058
0.000855918
0.000792946
0.000741445
0.000699543
0.000665541
0.000637759
0.000614951
0.000595998
0.000580159
0.000566751
0.000555351
0.000545543
0.000537078
0.000529695
0.000523241
0.00051755
0.000512517
0.000508042
0.000504042
0.000500462
0.000497231
0.000494327
0.000491679
0.000489293
0.000487096
0.000485116
0.000483274
0.000481613
0.000480053
0.000478652
0.000477319
0.000476127
0.00047498
0.000473962
0.000472969
0.000472092
0.000471227
0.000470469
0.000469714
0.000469056
0.000468392
0.000467822
0.000467236
0.000466738
0.00046622
0.000465786
0.000465327
0.000464947
0.000464537
0.000464203
0.000463835
0.00046355
0.000463218
0.00046297
0.000462676
0.000462457
0.000462196
0.000462003
0.000461773
0.0004616
0.000461397
0.000461245
0.00046106
0.000460934
0.000460767
0.000460652
0.000460498
0.000460398
0.000460265
0.000460183
0.000460072
0.000460006
0.000459905
0.000459841
0.000459745
0.000459685
0.000459596
0.000459544
0.000459465
0.000459421
0.000459352
0.000459317
0.00045926
0.000459233
0.00045918
0.000459165
0.000459142
0.000459137
0.000459109
0.000459153
0.00045935
0.000468194
0.000491479
0.001209
0.00102406
0.000932062
0.000855924
0.000792945
0.000741425
0.000699494
0.000665458
0.000637643
0.000614803
0.000595821
0.000579955
0.000566522
0.000555101
0.000545273
0.000536791
0.000529392
0.000522924
0.00051722
0.000512176
0.000507691
0.000503681
0.000500093
0.000496854
0.000493943
0.000491287
0.000488896
0.000486694
0.000484708
0.000482861
0.000481196
0.000479632
0.000478227
0.00047689
0.000475695
0.000474545
0.000473523
0.000472528
0.000471648
0.000470781
0.000470021
0.000469264
0.000468603
0.000467937
0.000467366
0.000466778
0.000466278
0.000465759
0.000465323
0.000464862
0.000464481
0.00046407
0.000463735
0.000463366
0.000463079
0.000462747
0.000462498
0.000462202
0.000461983
0.00046172
0.000461527
0.000461296
0.000461122
0.000460918
0.000460766
0.00046058
0.000460453
0.000460286
0.00046017
0.000460015
0.000459915
0.000459781
0.000459698
0.000459587
0.00045952
0.000459419
0.000459355
0.000459257
0.000459198
0.000459108
0.000459055
0.000458976
0.000458931
0.000458862
0.000458826
0.000458768
0.000458741
0.000458687
0.000458672
0.000458649
0.000458642
0.000458613
0.000458656
0.000458859
0.00046796
0.0004911
0.00120486
0.00102406
0.000932065
0.000855932
0.000792945
0.000741403
0.00069944
0.000665369
0.000637518
0.000614643
0.000595628
0.000579733
0.000566274
0.000554829
0.000544979
0.000536478
0.000529063
0.000522578
0.000516861
0.000511805
0.000507308
0.000503288
0.00049969
0.000496443
0.000493524
0.000490861
0.000488463
0.000486255
0.000484264
0.000482411
0.000480741
0.000479173
0.000477763
0.000476423
0.000475224
0.000474071
0.000473046
0.000472048
0.000471165
0.000470295
0.000469533
0.000468773
0.00046811
0.000467442
0.000466869
0.000466278
0.000465777
0.000465256
0.000464819
0.000464356
0.000463974
0.000463561
0.000463225
0.000462854
0.000462567
0.000462233
0.000461982
0.000461686
0.000461466
0.000461202
0.000461008
0.000460776
0.000460601
0.000460396
0.000460243
0.000460056
0.000459928
0.000459761
0.000459644
0.000459489
0.000459388
0.000459253
0.00045917
0.000459058
0.00045899
0.000458889
0.000458824
0.000458726
0.000458666
0.000458576
0.000458522
0.000458442
0.000458397
0.000458327
0.00045829
0.000458232
0.000458204
0.00045815
0.000458134
0.00045811
0.000458102
0.000458071
0.000458115
0.000458324
0.000467707
0.000490686
0.00119936
0.00102406
0.000932069
0.00085594
0.000792944
0.000741379
0.000699383
0.000665274
0.000637383
0.000614471
0.000595421
0.000579493
0.000566005
0.000554535
0.000544662
0.00053614
0.000528706
0.000522205
0.000516473
0.000511403
0.000506893
0.000502862
0.000499254
0.000495997
0.00049307
0.0004904
0.000487995
0.000485779
0.000483782
0.000481924
0.000480249
0.000478675
0.000477261
0.000475916
0.000474713
0.000473557
0.000472528
0.000471527
0.000470641
0.000469768
0.000469003
0.000468241
0.000467576
0.000466905
0.00046633
0.000465737
0.000465234
0.000464711
0.000464272
0.000463808
0.000463424
0.000463009
0.000462672
0.0004623
0.000462011
0.000461675
0.000461424
0.000461126
0.000460905
0.00046064
0.000460445
0.000460212
0.000460036
0.00045983
0.000459676
0.000459488
0.00045936
0.000459191
0.000459074
0.000458918
0.000458816
0.000458681
0.000458597
0.000458484
0.000458416
0.000458314
0.000458248
0.00045815
0.000458089
0.000457998
0.000457945
0.000457863
0.000457818
0.000457747
0.00045771
0.00045765
0.000457622
0.000457567
0.00045755
0.000457526
0.000457517
0.000457483
0.000457528
0.000457744
0.000467435
0.000490237
0.0011925
0.00102405
0.000932073
0.000855949
0.000792944
0.000741355
0.000699322
0.000665172
0.000637238
0.000614285
0.000595197
0.000579236
0.000565717
0.000554218
0.00054432
0.000535776
0.000528322
0.000521803
0.000516055
0.00051097
0.000506447
0.000502404
0.000498785
0.000495518
0.000492581
0.000489902
0.000487489
0.000485267
0.000483263
0.000481399
0.000479718
0.000478139
0.00047672
0.000475371
0.000474163
0.000473002
0.00047197
0.000470965
0.000470076
0.0004692
0.000468432
0.000467667
0.000466999
0.000466326
0.000465748
0.000465154
0.000464649
0.000464123
0.000463683
0.000463216
0.000462831
0.000462414
0.000462076
0.000461701
0.000461411
0.000461074
0.000460822
0.000460522
0.0004603
0.000460034
0.000459838
0.000459603
0.000459427
0.00045922
0.000459065
0.000458876
0.000458746
0.000458577
0.000458459
0.000458302
0.0004582
0.000458063
0.000457979
0.000457865
0.000457797
0.000457693
0.000457628
0.000457528
0.000457467
0.000457375
0.000457321
0.000457239
0.000457193
0.000457121
0.000457083
0.000457023
0.000456994
0.000456939
0.000456921
0.000456896
0.000456886
0.00045685
0.000456894
0.000457118
0.000467144
0.000489751
0.00118435
0.00102405
0.000932077
0.000855958
0.000792944
0.000741328
0.000699257
0.000665063
0.000637084
0.000614087
0.000594959
0.00057896
0.000565408
0.00055388
0.000543955
0.000535387
0.000527911
0.000521372
0.000515606
0.000510505
0.000505968
0.000501912
0.000498281
0.000495003
0.000492057
0.000489369
0.000486947
0.000484717
0.000482706
0.000480835
0.000479148
0.000477563
0.000476139
0.000474784
0.000473573
0.000472407
0.000471371
0.000470362
0.00046947
0.00046859
0.000467819
0.00046705
0.00046638
0.000465704
0.000465124
0.000464527
0.00046402
0.000463492
0.000463049
0.000462581
0.000462193
0.000461775
0.000461435
0.000461059
0.000460767
0.000460428
0.000460174
0.000459874
0.00045965
0.000459383
0.000459185
0.000458949
0.000458772
0.000458564
0.000458408
0.000458217
0.000458087
0.000457917
0.000457799
0.00045764
0.000457537
0.0004574
0.000457315
0.0004572
0.000457131
0.000457027
0.00045696
0.00045686
0.000456798
0.000456706
0.000456651
0.000456568
0.000456521
0.000456449
0.00045641
0.000456349
0.00045632
0.000456264
0.000456245
0.000456219
0.000456208
0.000456169
0.000456214
0.000456446
0.000466832
0.000489225
0.00117492
0.00102405
0.000932081
0.000855968
0.000792944
0.000741301
0.000699189
0.000664947
0.00063692
0.000613877
0.000594705
0.000578667
0.000565079
0.000553518
0.000543565
0.000534971
0.000527472
0.000520912
0.000515127
0.000510009
0.000505457
0.000501386
0.000497743
0.000494453
0.000491496
0.000488798
0.000486367
0.000484129
0.00048211
0.000480232
0.000478538
0.000476947
0.000475518
0.000474158
0.000472941
0.00047177
0.00047073
0.000469717
0.000468821
0.000467937
0.000467163
0.000466391
0.000465718
0.000465039
0.000464456
0.000463856
0.000463346
0.000462816
0.000462371
0.0004619
0.000461511
0.000461091
0.000460749
0.000460371
0.000460077
0.000459737
0.000459482
0.000459179
0.000458954
0.000458685
0.000458487
0.00045825
0.000458071
0.000457861
0.000457705
0.000457513
0.000457382
0.00045721
0.000457091
0.000456932
0.000456828
0.00045669
0.000456604
0.000456489
0.000456418
0.000456313
0.000456246
0.000456145
0.000456083
0.00045599
0.000455934
0.00045585
0.000455802
0.000455729
0.00045569
0.000455628
0.000455598
0.000455541
0.000455521
0.000455494
0.000455482
0.00045544
0.000455485
0.000455727
0.000466499
0.000488657
0.00116428
0.00102405
0.000932086
0.000855979
0.000792944
0.000741272
0.000699117
0.000664825
0.000636747
0.000613654
0.000594436
0.000578356
0.000564729
0.000553135
0.00054315
0.000534529
0.000527004
0.000520423
0.000514618
0.000509481
0.000504912
0.000500827
0.00049717
0.000493867
0.000490898
0.00048819
0.00048575
0.000483502
0.000481475
0.000479589
0.000477889
0.000476291
0.000474855
0.000473489
0.000472267
0.000471092
0.000470047
0.000469029
0.000468129
0.000467241
0.000466463
0.000465688
0.000465012
0.000464329
0.000463743
0.00046314
0.000462628
0.000462095
0.000461648
0.000461175
0.000460784
0.000460361
0.000460017
0.000459637
0.000459342
0.000459
0.000458743
0.000458439
0.000458212
0.000457942
0.000457742
0.000457503
0.000457324
0.000457112
0.000456955
0.000456762
0.00045663
0.000456457
0.000456337
0.000456177
0.000456072
0.000455933
0.000455846
0.000455729
0.000455658
0.000455552
0.000455485
0.000455383
0.000455319
0.000455225
0.000455169
0.000455084
0.000455035
0.000454961
0.000454921
0.000454858
0.000454827
0.000454769
0.000454748
0.000454721
0.000454708
0.000454663
0.000454708
0.00045496
0.000466141
0.000488044
0.00115247
0.00102405
0.00093209
0.00085599
0.000792945
0.000741242
0.000699041
0.000664697
0.000636564
0.000613419
0.000594151
0.000578026
0.000564359
0.000552728
0.000542711
0.00053406
0.000526509
0.000519904
0.000514077
0.000508921
0.000504334
0.000500233
0.000496561
0.000493245
0.000490264
0.000487544
0.000485094
0.000482837
0.000480801
0.000478907
0.000477199
0.000475594
0.000474151
0.000472779
0.000471551
0.000470371
0.000469321
0.000468298
0.000467394
0.000466502
0.00046572
0.00046494
0.000464261
0.000463575
0.000462986
0.00046238
0.000461865
0.000461329
0.00046088
0.000460404
0.000460011
0.000459585
0.00045924
0.000458857
0.000458561
0.000458216
0.000457958
0.000457652
0.000457423
0.000457151
0.00045695
0.00045671
0.000456529
0.000456316
0.000456157
0.000455963
0.00045583
0.000455656
0.000455535
0.000455374
0.000455268
0.000455127
0.00045504
0.000454922
0.00045485
0.000454743
0.000454675
0.000454572
0.000454508
0.000454412
0.000454355
0.000454269
0.00045422
0.000454144
0.000454104
0.000454039
0.000454008
0.000453949
0.000453927
0.000453899
0.000453884
0.000453836
0.000453882
0.000454144
0.000465758
0.000487384
0.00113955
0.00102404
0.000932095
0.000856002
0.000792946
0.00074121
0.000698962
0.000664563
0.000636371
0.000613171
0.000593851
0.000577679
0.000563969
0.000552299
0.000542247
0.000533564
0.000525985
0.000519355
0.000513505
0.000508329
0.000503723
0.000499604
0.000495917
0.000492587
0.000489592
0.000486861
0.000484399
0.000482132
0.000480086
0.000478184
0.000476467
0.000474855
0.000473406
0.000472027
0.000470793
0.000469606
0.000468551
0.000467523
0.000466614
0.000465718
0.000464932
0.000464148
0.000463465
0.000462775
0.000462183
0.000461574
0.000461056
0.000460517
0.000460065
0.000459586
0.000459191
0.000458763
0.000458415
0.00045803
0.000457732
0.000457385
0.000457125
0.000456817
0.000456587
0.000456313
0.00045611
0.000455868
0.000455686
0.000455471
0.000455312
0.000455116
0.000454981
0.000454806
0.000454684
0.000454522
0.000454415
0.000454273
0.000454184
0.000454066
0.000453993
0.000453885
0.000453815
0.000453712
0.000453647
0.00045355
0.000453492
0.000453405
0.000453355
0.000453278
0.000453237
0.000453171
0.000453139
0.000453079
0.000453056
0.000453027
0.000453011
0.000452959
0.000453005
0.000453279
0.000465343
0.000486675
0.00112559
0.00102404
0.0009321
0.000856014
0.000792947
0.000741178
0.00069888
0.000664422
0.00063617
0.000612911
0.000593536
0.000577313
0.000563557
0.000551847
0.000541757
0.000533042
0.000525433
0.000518776
0.000512901
0.000507703
0.000503077
0.000498941
0.000495236
0.000491891
0.000488883
0.000486138
0.000483665
0.000481387
0.000479332
0.000477419
0.000475695
0.000474074
0.000472617
0.000471231
0.000469991
0.000468798
0.000467738
0.000466704
0.00046579
0.000464889
0.000464098
0.00046331
0.000462623
0.00046193
0.000461334
0.000460721
0.0004602
0.000459658
0.000459203
0.000458722
0.000458323
0.000457893
0.000457543
0.000457156
0.000456855
0.000456506
0.000456244
0.000455934
0.000455702
0.000455426
0.000455222
0.000454978
0.000454794
0.000454578
0.000454417
0.000454219
0.000454084
0.000453907
0.000453784
0.000453621
0.000453513
0.00045337
0.00045328
0.00045316
0.000453086
0.000452977
0.000452906
0.000452801
0.000452736
0.000452638
0.000452579
0.000452491
0.00045244
0.000452362
0.00045232
0.000452253
0.00045222
0.000452159
0.000452134
0.000452104
0.000452087
0.000452032
0.000452078
0.000452364
0.000464891
0.000485914
0.00111064
0.00102404
0.000932105
0.000856027
0.000792948
0.000741145
0.000698794
0.000664275
0.000635959
0.000612638
0.000593206
0.00057693
0.000563126
0.000551372
0.000541243
0.000532493
0.000524852
0.000518166
0.000512266
0.000507044
0.000502398
0.000498242
0.00049452
0.000491158
0.000488136
0.000485377
0.000482892
0.000480602
0.000478536
0.000476614
0.00047488
0.000473251
0.000471786
0.000470393
0.000469146
0.000467946
0.000466879
0.00046584
0.000464921
0.000464014
0.000463219
0.000462427
0.000461736
0.000461038
0.000460438
0.000459822
0.000459298
0.000458752
0.000458294
0.000457809
0.000457408
0.000456975
0.000456623
0.000456233
0.00045593
0.000455579
0.000455314
0.000455002
0.000454768
0.00045449
0.000454284
0.000454038
0.000453853
0.000453635
0.000453473
0.000453273
0.000453136
0.000452958
0.000452834
0.000452669
0.000452561
0.000452416
0.000452325
0.000452203
0.000452129
0.000452018
0.000451947
0.000451841
0.000451774
0.000451676
0.000451616
0.000451526
0.000451474
0.000451395
0.000451352
0.000451283
0.000451249
0.000451187
0.000451162
0.00045113
0.000451112
0.000451053
0.0004511
0.000451398
0.000464396
0.000485099
0.00109478
0.00102404
0.000932111
0.00085604
0.00079295
0.000741111
0.000698705
0.000664122
0.00063574
0.000612354
0.00059286
0.000576529
0.000562674
0.000550874
0.000540704
0.000531916
0.000524243
0.000517526
0.000511599
0.000506353
0.000501683
0.000497507
0.000493767
0.000490388
0.00048735
0.000484577
0.000482078
0.000479776
0.000477699
0.000475766
0.000474023
0.000472385
0.000470912
0.00046951
0.000468256
0.000467049
0.000465976
0.000464931
0.000464006
0.000463094
0.000462294
0.000461497
0.000460801
0.000460099
0.000459496
0.000458875
0.000458347
0.000457798
0.000457337
0.000456849
0.000456445
0.000456008
0.000455654
0.000455261
0.000454956
0.000454602
0.000454335
0.00045402
0.000453785
0.000453505
0.000453297
0.000453049
0.000452862
0.000452642
0.000452479
0.000452277
0.000452139
0.000451959
0.000451834
0.000451668
0.000451558
0.000451411
0.000451319
0.000451196
0.000451121
0.000451009
0.000450937
0.000450829
0.000450762
0.000450662
0.000450601
0.00045051
0.000450457
0.000450376
0.000450332
0.000450262
0.000450227
0.000450164
0.000450137
0.000450104
0.000450084
0.000450022
0.000450069
0.00045038
0.000463849
0.000484229
0.00107808
0.00102403
0.000932116
0.000856054
0.000792952
0.000741076
0.000698614
0.000663963
0.000635511
0.000612057
0.0005925
0.000576109
0.000562201
0.000550353
0.00054014
0.000531313
0.000523604
0.000516856
0.0005109
0.000505628
0.000500935
0.000496737
0.000492976
0.00048958
0.000486525
0.000483737
0.000481225
0.000478909
0.00047682
0.000474877
0.000473123
0.000471475
0.000469993
0.000468584
0.000467322
0.000466108
0.000465028
0.000463976
0.000463045
0.000462127
0.000461322
0.000460519
0.000459819
0.000459112
0.000458505
0.00045788
0.000457349
0.000456795
0.000456331
0.000455839
0.000455433
0.000454993
0.000454636
0.00045424
0.000453932
0.000453576
0.000453306
0.000452989