/*--------------------------------*- C++ -*----------------------------------*\
| =========                 |                                                 |
| \\      /  F ield         | OpenFOAM: The Open Source CFD Toolbox           |
|  \\    /   O peration     | Version:  v2012                                 |
|   \\  /    A nd           | Website:  www.openfoam.com                      |
|    \\/     M anipulation  |                                                 |
\*---------------------------------------------------------------------------*/
FoamFile
{
    version     2.0;
    format      ascii;
    class       volVectorField;
    location    "48.5";
    object      wallShearStress;
}
// * * * * * * * * * * * * * * * * * * * * * * * * * * * * * * * * * * * * * //

dimensions      [0 2 -2 0 0 0 0];


internalField   uniform (0 0 0);

boundaryField
{
    inlet
    {
        type            calculated;
        value           uniform (0 0 0);
    }
    outlet
    {
        type            calculated;
        value           uniform (0 0 0);
    }
    topWall
    {
        type            calculated;
        value           nonuniform List<vector> 
545
(
(3.6746e-08 -2.5866e-08 0)
(3.67347e-08 -7.23573e-08 0)
(3.67146e-08 -1.20703e-07 0)
(3.66861e-08 -1.6765e-07 0)
(3.66503e-08 -2.12598e-07 0)
(3.66081e-08 -2.56127e-07 0)
(3.65597e-08 -2.98604e-07 0)
(3.65058e-08 -3.40012e-07 0)
(3.64468e-08 -3.80258e-07 0)
(3.63832e-08 -4.19343e-07 0)
(3.63153e-08 -4.57318e-07 0)
(3.62436e-08 -4.94226e-07 0)
(3.61685e-08 -5.30093e-07 0)
(3.60904e-08 -5.64941e-07 0)
(3.60095e-08 -5.98792e-07 0)
(3.59262e-08 -6.31675e-07 0)
(3.58407e-08 -6.63616e-07 0)
(3.57534e-08 -6.9464e-07 0)
(3.56646e-08 -7.24772e-07 0)
(3.55743e-08 -7.54035e-07 0)
(3.5483e-08 -7.82453e-07 0)
(3.53907e-08 -8.10051e-07 0)
(3.52977e-08 -8.3685e-07 0)
(3.52042e-08 -8.62874e-07 0)
(3.51103e-08 -8.88145e-07 0)
(3.50162e-08 -9.12683e-07 0)
(3.49221e-08 -9.3651e-07 0)
(3.4828e-08 -9.59646e-07 0)
(3.47341e-08 -9.82111e-07 0)
(3.46405e-08 -1.00392e-06 0)
(3.45474e-08 -1.02511e-06 0)
(3.44548e-08 -1.04567e-06 0)
(3.43627e-08 -1.06565e-06 0)
(3.42714e-08 -1.08504e-06 0)
(3.41808e-08 -1.10387e-06 0)
(3.40911e-08 -1.12216e-06 0)
(3.40023e-08 -1.13992e-06 0)
(3.39144e-08 -1.15716e-06 0)
(3.38275e-08 -1.17391e-06 0)
(3.37417e-08 -1.19017e-06 0)
(3.36569e-08 -1.20597e-06 0)
(3.35733e-08 -1.22131e-06 0)
(3.34908e-08 -1.2362e-06 0)
(3.34095e-08 -1.25068e-06 0)
(3.33294e-08 -1.26473e-06 0)
(3.32506e-08 -1.27838e-06 0)
(3.31729e-08 -1.29164e-06 0)
(3.30966e-08 -1.30452e-06 0)
(3.30215e-08 -1.31704e-06 0)
(3.29476e-08 -1.32919e-06 0)
(3.28751e-08 -1.341e-06 0)
(3.28038e-08 -1.35247e-06 0)
(3.27338e-08 -1.36362e-06 0)
(3.2665e-08 -1.37444e-06 0)
(3.25976e-08 -1.38497e-06 0)
(3.25314e-08 -1.39519e-06 0)
(3.24665e-08 -1.40512e-06 0)
(3.24029e-08 -1.41477e-06 0)
(3.23405e-08 -1.42415e-06 0)
(3.22794e-08 -1.43327e-06 0)
(3.22194e-08 -1.44212e-06 0)
(3.21607e-08 -1.45073e-06 0)
(3.21033e-08 -1.4591e-06 0)
(3.2047e-08 -1.46723e-06 0)
(3.19918e-08 -1.47513e-06 0)
(3.19379e-08 -1.48281e-06 0)
(3.18851e-08 -1.49028e-06 0)
(3.18334e-08 -1.49754e-06 0)
(3.17829e-08 -1.50459e-06 0)
(3.17335e-08 -1.51145e-06 0)
(3.16851e-08 -1.51812e-06 0)
(3.16381e-08 -1.52459e-06 0)
(3.15924e-08 -1.53082e-06 0)
(3.15474e-08 -1.53687e-06 0)
(3.15028e-08 -1.54284e-06 0)
(3.14584e-08 -1.5488e-06 0)
(3.1414e-08 -1.55472e-06 0)
(3.13697e-08 -1.56061e-06 0)
(3.13254e-08 -1.56646e-06 0)
(3.12812e-08 -1.57228e-06 0)
(3.1237e-08 -1.57806e-06 0)
(3.11928e-08 -1.58381e-06 0)
(3.11487e-08 -1.58952e-06 0)
(3.11046e-08 -1.5952e-06 0)
(3.10606e-08 -1.60085e-06 0)
(3.10166e-08 -1.60646e-06 0)
(3.09727e-08 -1.61204e-06 0)
(3.09288e-08 -1.61758e-06 0)
(3.0885e-08 -1.62309e-06 0)
(3.08412e-08 -1.62857e-06 0)
(3.07975e-08 -1.63402e-06 0)
(3.07539e-08 -1.63943e-06 0)
(3.07103e-08 -1.64481e-06 0)
(3.06669e-08 -1.65015e-06 0)
(3.0623e-08 -1.65548e-06 0)
(3.05814e-08 -1.66072e-06 0)
(3.05429e-08 -1.66552e-06 0)
(3.05056e-08 -1.66986e-06 0)
(3.04697e-08 -1.67409e-06 0)
(3.04339e-08 -1.67835e-06 0)
(3.0398e-08 -1.68264e-06 0)
(3.03619e-08 -1.68694e-06 0)
(3.03257e-08 -1.69124e-06 0)
(3.02893e-08 -1.69554e-06 0)
(3.02527e-08 -1.69985e-06 0)
(3.0216e-08 -1.70416e-06 0)
(3.01791e-08 -1.70848e-06 0)
(3.0142e-08 -1.7128e-06 0)
(3.01047e-08 -1.71712e-06 0)
(3.00673e-08 -1.72146e-06 0)
(3.00296e-08 -1.72579e-06 0)
(2.99918e-08 -1.73013e-06 0)
(2.99539e-08 -1.73448e-06 0)
(2.99157e-08 -1.73883e-06 0)
(2.98774e-08 -1.74319e-06 0)
(2.98388e-08 -1.74755e-06 0)
(2.98001e-08 -1.75191e-06 0)
(2.97613e-08 -1.75628e-06 0)
(2.97222e-08 -1.76065e-06 0)
(2.96829e-08 -1.76503e-06 0)
(2.96435e-08 -1.76941e-06 0)
(2.96039e-08 -1.7738e-06 0)
(2.95641e-08 -1.77819e-06 0)
(2.95241e-08 -1.78259e-06 0)
(2.9484e-08 -1.78699e-06 0)
(2.94436e-08 -1.7914e-06 0)
(2.94031e-08 -1.79581e-06 0)
(2.93624e-08 -1.80022e-06 0)
(2.93214e-08 -1.80464e-06 0)
(2.92803e-08 -1.80906e-06 0)
(2.92391e-08 -1.81349e-06 0)
(2.91976e-08 -1.81792e-06 0)
(2.91559e-08 -1.82235e-06 0)
(2.91141e-08 -1.82679e-06 0)
(2.9072e-08 -1.83123e-06 0)
(2.90298e-08 -1.83568e-06 0)
(2.89874e-08 -1.84013e-06 0)
(2.89448e-08 -1.84459e-06 0)
(2.8902e-08 -1.84904e-06 0)
(2.8859e-08 -1.85351e-06 0)
(2.88158e-08 -1.85797e-06 0)
(2.87724e-08 -1.86244e-06 0)
(2.87288e-08 -1.86692e-06 0)
(2.8685e-08 -1.8714e-06 0)
(2.86411e-08 -1.87588e-06 0)
(2.85969e-08 -1.88036e-06 0)
(2.85525e-08 -1.88485e-06 0)
(2.8508e-08 -1.88934e-06 0)
(2.84632e-08 -1.89384e-06 0)
(2.84183e-08 -1.89834e-06 0)
(2.83732e-08 -1.90284e-06 0)
(2.83278e-08 -1.90735e-06 0)
(2.82823e-08 -1.91186e-06 0)
(2.82365e-08 -1.91637e-06 0)
(2.81906e-08 -1.92089e-06 0)
(2.81445e-08 -1.92541e-06 0)
(2.80981e-08 -1.92993e-06 0)
(2.80516e-08 -1.93446e-06 0)
(2.80048e-08 -1.93899e-06 0)
(2.79579e-08 -1.94352e-06 0)
(2.79108e-08 -1.94805e-06 0)
(2.78634e-08 -1.95259e-06 0)
(2.78159e-08 -1.95713e-06 0)
(2.77681e-08 -1.96168e-06 0)
(2.77202e-08 -1.96622e-06 0)
(2.7672e-08 -1.97077e-06 0)
(2.76237e-08 -1.97533e-06 0)
(2.75751e-08 -1.97988e-06 0)
(2.75264e-08 -1.98444e-06 0)
(2.74774e-08 -1.989e-06 0)
(2.74282e-08 -1.99357e-06 0)
(2.73789e-08 -1.99813e-06 0)
(2.73293e-08 -2.0027e-06 0)
(2.72795e-08 -2.00727e-06 0)
(2.72295e-08 -2.01184e-06 0)
(2.71793e-08 -2.01642e-06 0)
(2.71289e-08 -2.021e-06 0)
(2.70783e-08 -2.02558e-06 0)
(2.70275e-08 -2.03016e-06 0)
(2.69764e-08 -2.03475e-06 0)
(2.69252e-08 -2.03933e-06 0)
(2.68738e-08 -2.04392e-06 0)
(2.68221e-08 -2.04851e-06 0)
(2.67703e-08 -2.0531e-06 0)
(2.67182e-08 -2.0577e-06 0)
(2.66659e-08 -2.0623e-06 0)
(2.66134e-08 -2.06689e-06 0)
(2.65608e-08 -2.07149e-06 0)
(2.65079e-08 -2.0761e-06 0)
(2.64547e-08 -2.0807e-06 0)
(2.64014e-08 -2.0853e-06 0)
(2.63479e-08 -2.08991e-06 0)
(2.62942e-08 -2.09452e-06 0)
(2.62402e-08 -2.09913e-06 0)
(2.6186e-08 -2.10374e-06 0)
(2.61317e-08 -2.10835e-06 0)
(2.60771e-08 -2.11296e-06 0)
(2.60223e-08 -2.11758e-06 0)
(2.59673e-08 -2.12219e-06 0)
(2.59121e-08 -2.12681e-06 0)
(2.58567e-08 -2.13143e-06 0)
(2.5801e-08 -2.13605e-06 0)
(2.57452e-08 -2.14067e-06 0)
(2.56891e-08 -2.14529e-06 0)
(2.56329e-08 -2.14991e-06 0)
(2.55764e-08 -2.15453e-06 0)
(2.55197e-08 -2.15915e-06 0)
(2.54628e-08 -2.16378e-06 0)
(2.54057e-08 -2.1684e-06 0)
(2.53484e-08 -2.17302e-06 0)
(2.52909e-08 -2.17765e-06 0)
(2.52331e-08 -2.18227e-06 0)
(2.51752e-08 -2.1869e-06 0)
(2.5117e-08 -2.19153e-06 0)
(2.50586e-08 -2.19615e-06 0)
(2.50001e-08 -2.20078e-06 0)
(2.49413e-08 -2.2054e-06 0)
(2.48823e-08 -2.21003e-06 0)
(2.4823e-08 -2.21465e-06 0)
(2.47636e-08 -2.21928e-06 0)
(2.4704e-08 -2.2239e-06 0)
(2.46441e-08 -2.22853e-06 0)
(2.45841e-08 -2.23315e-06 0)
(2.45238e-08 -2.23778e-06 0)
(2.44633e-08 -2.2424e-06 0)
(2.44027e-08 -2.24702e-06 0)
(2.43418e-08 -2.25165e-06 0)
(2.42807e-08 -2.25627e-06 0)
(2.42194e-08 -2.26089e-06 0)
(2.41578e-08 -2.26551e-06 0)
(2.40961e-08 -2.27013e-06 0)
(2.40342e-08 -2.27475e-06 0)
(2.3972e-08 -2.27937e-06 0)
(2.39097e-08 -2.28398e-06 0)
(2.38471e-08 -2.2886e-06 0)
(2.37844e-08 -2.29321e-06 0)
(2.37214e-08 -2.29782e-06 0)
(2.36582e-08 -2.30243e-06 0)
(2.35949e-08 -2.30704e-06 0)
(2.35313e-08 -2.31165e-06 0)
(2.34675e-08 -2.31626e-06 0)
(2.34035e-08 -2.32086e-06 0)
(2.33393e-08 -2.32546e-06 0)
(2.32749e-08 -2.33007e-06 0)
(2.32103e-08 -2.33466e-06 0)
(2.31455e-08 -2.33926e-06 0)
(2.30805e-08 -2.34386e-06 0)
(2.30153e-08 -2.34845e-06 0)
(2.29498e-08 -2.35304e-06 0)
(2.28842e-08 -2.35763e-06 0)
(2.28184e-08 -2.36221e-06 0)
(2.27524e-08 -2.3668e-06 0)
(2.26862e-08 -2.37138e-06 0)
(2.26198e-08 -2.37596e-06 0)
(2.25532e-08 -2.38053e-06 0)
(2.24864e-08 -2.38511e-06 0)
(2.24194e-08 -2.38968e-06 0)
(2.23522e-08 -2.39424e-06 0)
(2.22848e-08 -2.39881e-06 0)
(2.22172e-08 -2.40337e-06 0)
(2.21494e-08 -2.40793e-06 0)
(2.20814e-08 -2.41248e-06 0)
(2.20132e-08 -2.41703e-06 0)
(2.19449e-08 -2.42158e-06 0)
(2.18763e-08 -2.42612e-06 0)
(2.18076e-08 -2.43067e-06 0)
(2.17387e-08 -2.4352e-06 0)
(2.16692e-08 -2.43974e-06 0)
(2.16016e-08 -2.44424e-06 0)
(2.15367e-08 -2.44853e-06 0)
(2.14727e-08 -2.45261e-06 0)
(2.14094e-08 -2.45665e-06 0)
(2.13457e-08 -2.46074e-06 0)
(2.12814e-08 -2.46487e-06 0)
(2.12164e-08 -2.46904e-06 0)
(2.11507e-08 -2.47324e-06 0)
(2.10843e-08 -2.47747e-06 0)
(2.10171e-08 -2.48173e-06 0)
(2.09492e-08 -2.48602e-06 0)
(2.08806e-08 -2.49035e-06 0)
(2.08112e-08 -2.49471e-06 0)
(2.0741e-08 -2.4991e-06 0)
(2.06701e-08 -2.50352e-06 0)
(2.05983e-08 -2.50798e-06 0)
(2.05258e-08 -2.51247e-06 0)
(2.04525e-08 -2.51699e-06 0)
(2.03785e-08 -2.52155e-06 0)
(2.03036e-08 -2.52613e-06 0)
(2.02278e-08 -2.53075e-06 0)
(2.01513e-08 -2.53541e-06 0)
(2.0074e-08 -2.54009e-06 0)
(1.99958e-08 -2.54481e-06 0)
(1.99167e-08 -2.54956e-06 0)
(1.98369e-08 -2.55435e-06 0)
(1.97561e-08 -2.55916e-06 0)
(1.96745e-08 -2.56401e-06 0)
(1.95921e-08 -2.56889e-06 0)
(1.95088e-08 -2.5738e-06 0)
(1.94245e-08 -2.57875e-06 0)
(1.93394e-08 -2.58372e-06 0)
(1.92534e-08 -2.58873e-06 0)
(1.91665e-08 -2.59377e-06 0)
(1.90787e-08 -2.59884e-06 0)
(1.899e-08 -2.60395e-06 0)
(1.89004e-08 -2.60908e-06 0)
(1.88098e-08 -2.61425e-06 0)
(1.87183e-08 -2.61944e-06 0)
(1.86259e-08 -2.62467e-06 0)
(1.85325e-08 -2.62993e-06 0)
(1.84381e-08 -2.63522e-06 0)
(1.83428e-08 -2.64053e-06 0)
(1.82466e-08 -2.64588e-06 0)
(1.81494e-08 -2.65126e-06 0)
(1.80512e-08 -2.65667e-06 0)
(1.7952e-08 -2.6621e-06 0)
(1.78518e-08 -2.66756e-06 0)
(1.77507e-08 -2.67306e-06 0)
(1.76485e-08 -2.67858e-06 0)
(1.75454e-08 -2.68412e-06 0)
(1.74413e-08 -2.6897e-06 0)
(1.73361e-08 -2.6953e-06 0)
(1.723e-08 -2.70093e-06 0)
(1.71228e-08 -2.70658e-06 0)
(1.70146e-08 -2.71226e-06 0)
(1.69054e-08 -2.71797e-06 0)
(1.67952e-08 -2.7237e-06 0)
(1.66839e-08 -2.72945e-06 0)
(1.65717e-08 -2.73523e-06 0)
(1.64584e-08 -2.74103e-06 0)
(1.6344e-08 -2.74685e-06 0)
(1.62286e-08 -2.7527e-06 0)
(1.61122e-08 -2.75857e-06 0)
(1.59948e-08 -2.76445e-06 0)
(1.58763e-08 -2.77036e-06 0)
(1.57568e-08 -2.77629e-06 0)
(1.56362e-08 -2.78223e-06 0)
(1.55146e-08 -2.7882e-06 0)
(1.5392e-08 -2.79418e-06 0)
(1.52683e-08 -2.80018e-06 0)
(1.51436e-08 -2.80619e-06 0)
(1.50179e-08 -2.81222e-06 0)
(1.48911e-08 -2.81827e-06 0)
(1.47633e-08 -2.82433e-06 0)
(1.46345e-08 -2.8304e-06 0)
(1.45047e-08 -2.83648e-06 0)
(1.43739e-08 -2.84257e-06 0)
(1.4242e-08 -2.84868e-06 0)
(1.41092e-08 -2.85479e-06 0)
(1.39754e-08 -2.86091e-06 0)
(1.38405e-08 -2.86704e-06 0)
(1.37047e-08 -2.87317e-06 0)
(1.35679e-08 -2.87931e-06 0)
(1.34302e-08 -2.88546e-06 0)
(1.32914e-08 -2.8916e-06 0)
(1.31518e-08 -2.89775e-06 0)
(1.30112e-08 -2.9039e-06 0)
(1.28697e-08 -2.91005e-06 0)
(1.27272e-08 -2.9162e-06 0)
(1.25839e-08 -2.92235e-06 0)
(1.24396e-08 -2.92849e-06 0)
(1.22945e-08 -2.93462e-06 0)
(1.21485e-08 -2.94075e-06 0)
(1.20017e-08 -2.94688e-06 0)
(1.1854e-08 -2.95299e-06 0)
(1.17056e-08 -2.95909e-06 0)
(1.15563e-08 -2.96518e-06 0)
(1.14062e-08 -2.97126e-06 0)
(1.12554e-08 -2.97732e-06 0)
(1.11038e-08 -2.98337e-06 0)
(1.09515e-08 -2.9894e-06 0)
(1.07985e-08 -2.99541e-06 0)
(1.06449e-08 -3.0014e-06 0)
(1.04906e-08 -3.00737e-06 0)
(1.03356e-08 -3.01332e-06 0)
(1.018e-08 -3.01923e-06 0)
(1.00239e-08 -3.02513e-06 0)
(9.86717e-09 -3.03099e-06 0)
(9.70993e-09 -3.03683e-06 0)
(9.55219e-09 -3.04263e-06 0)
(9.39397e-09 -3.0484e-06 0)
(9.23532e-09 -3.05413e-06 0)
(9.07624e-09 -3.05983e-06 0)
(8.91679e-09 -3.06549e-06 0)
(8.75698e-09 -3.07111e-06 0)
(8.59686e-09 -3.07669e-06 0)
(8.43646e-09 -3.08222e-06 0)
(8.2758e-09 -3.08771e-06 0)
(8.11493e-09 -3.09315e-06 0)
(7.95389e-09 -3.09854e-06 0)
(7.79271e-09 -3.10388e-06 0)
(7.63142e-09 -3.10917e-06 0)
(7.47007e-09 -3.1144e-06 0)
(7.3087e-09 -3.11958e-06 0)
(7.14734e-09 -3.1247e-06 0)
(6.98604e-09 -3.12975e-06 0)
(6.82484e-09 -3.13475e-06 0)
(6.66378e-09 -3.13968e-06 0)
(6.50291e-09 -3.14455e-06 0)
(6.34226e-09 -3.14935e-06 0)
(6.18189e-09 -3.15408e-06 0)
(6.02183e-09 -3.15874e-06 0)
(5.86214e-09 -3.16332e-06 0)
(5.70286e-09 -3.16783e-06 0)
(5.54403e-09 -3.17227e-06 0)
(5.38571e-09 -3.17662e-06 0)
(5.22794e-09 -3.1809e-06 0)
(5.07076e-09 -3.18509e-06 0)
(4.91424e-09 -3.1892e-06 0)
(4.75841e-09 -3.19322e-06 0)
(4.60332e-09 -3.19716e-06 0)
(4.44903e-09 -3.20101e-06 0)
(4.29558e-09 -3.20476e-06 0)
(4.14303e-09 -3.20842e-06 0)
(3.99141e-09 -3.21199e-06 0)
(3.8408e-09 -3.21547e-06 0)
(3.69122e-09 -3.21884e-06 0)
(3.54274e-09 -3.22212e-06 0)
(3.3954e-09 -3.2253e-06 0)
(3.24925e-09 -3.22837e-06 0)
(3.10434e-09 -3.23134e-06 0)
(2.96073e-09 -3.23421e-06 0)
(2.81845e-09 -3.23697e-06 0)
(2.67757e-09 -3.23962e-06 0)
(2.53812e-09 -3.24217e-06 0)
(2.40016e-09 -3.2446e-06 0)
(2.26373e-09 -3.24692e-06 0)
(2.12888e-09 -3.24914e-06 0)
(1.99565e-09 -3.25123e-06 0)
(1.8641e-09 -3.25322e-06 0)
(1.73426e-09 -3.25509e-06 0)
(1.60619e-09 -3.25684e-06 0)
(1.47992e-09 -3.25847e-06 0)
(1.35549e-09 -3.25999e-06 0)
(1.23295e-09 -3.26139e-06 0)
(1.11233e-09 -3.26267e-06 0)
(9.93689e-10 -3.26383e-06 0)
(8.77049e-10 -3.26487e-06 0)
(7.62452e-10 -3.26579e-06 0)
(6.49933e-10 -3.26659e-06 0)
(5.39529e-10 -3.26726e-06 0)
(4.31272e-10 -3.26782e-06 0)
(3.25196e-10 -3.26825e-06 0)
(2.21332e-10 -3.26856e-06 0)
(1.19709e-10 -3.26875e-06 0)
(2.03605e-11 -3.26882e-06 0)
(-7.67036e-11 -3.26877e-06 0)
(-1.71383e-10 -3.26859e-06 0)
(-2.63974e-10 -3.2683e-06 0)
(-3.53153e-10 -3.26788e-06 0)
(-4.44611e-10 -3.26734e-06 0)
(-5.40514e-10 -3.26661e-06 0)
(-6.36384e-10 -3.26565e-06 0)
(-7.30629e-10 -3.26452e-06 0)
(-8.20683e-10 -3.26324e-06 0)
(-9.06349e-10 -3.26182e-06 0)
(-9.87666e-10 -3.26027e-06 0)
(-1.06472e-09 -3.25859e-06 0)
(-1.13763e-09 -3.25678e-06 0)
(-1.20649e-09 -3.25487e-06 0)
(-1.27145e-09 -3.25284e-06 0)
(-1.33263e-09 -3.25072e-06 0)
(-1.39015e-09 -3.24849e-06 0)
(-1.44412e-09 -3.24618e-06 0)
(-1.49465e-09 -3.24379e-06 0)
(-1.54185e-09 -3.24131e-06 0)
(-1.58583e-09 -3.23876e-06 0)
(-1.62669e-09 -3.23615e-06 0)
(-1.66453e-09 -3.23347e-06 0)
(-1.69944e-09 -3.23073e-06 0)
(-1.73152e-09 -3.22794e-06 0)
(-1.76086e-09 -3.2251e-06 0)
(-1.78755e-09 -3.22221e-06 0)
(-1.81167e-09 -3.21928e-06 0)
(-1.83331e-09 -3.21632e-06 0)
(-1.85253e-09 -3.21332e-06 0)
(-1.86942e-09 -3.21029e-06 0)
(-1.88405e-09 -3.20724e-06 0)
(-1.8965e-09 -3.20417e-06 0)
(-1.90683e-09 -3.20108e-06 0)
(-1.9151e-09 -3.19797e-06 0)
(-1.92138e-09 -3.19485e-06 0)
(-1.92573e-09 -3.19172e-06 0)
(-1.92821e-09 -3.18859e-06 0)
(-1.92888e-09 -3.18546e-06 0)
(-1.92779e-09 -3.18232e-06 0)
(-1.92499e-09 -3.17919e-06 0)
(-1.92054e-09 -3.17607e-06 0)
(-1.91448e-09 -3.17295e-06 0)
(-1.90687e-09 -3.16985e-06 0)
(-1.89774e-09 -3.16676e-06 0)
(-1.88714e-09 -3.16368e-06 0)
(-1.87511e-09 -3.16063e-06 0)
(-1.8617e-09 -3.15759e-06 0)
(-1.84694e-09 -3.15458e-06 0)
(-1.83087e-09 -3.15159e-06 0)
(-1.81353e-09 -3.14863e-06 0)
(-1.79496e-09 -3.1457e-06 0)
(-1.77518e-09 -3.1428e-06 0)
(-1.75423e-09 -3.13993e-06 0)
(-1.73215e-09 -3.1371e-06 0)
(-1.70897e-09 -3.13431e-06 0)
(-1.68471e-09 -3.13155e-06 0)
(-1.65941e-09 -3.12883e-06 0)
(-1.6331e-09 -3.12616e-06 0)
(-1.60579e-09 -3.12353e-06 0)
(-1.57754e-09 -3.12094e-06 0)
(-1.54834e-09 -3.1184e-06 0)
(-1.51825e-09 -3.11591e-06 0)
(-1.48727e-09 -3.11347e-06 0)
(-1.45545e-09 -3.11108e-06 0)
(-1.42279e-09 -3.10873e-06 0)
(-1.38933e-09 -3.10645e-06 0)
(-1.3551e-09 -3.10422e-06 0)
(-1.32011e-09 -3.10205e-06 0)
(-1.28439e-09 -3.09993e-06 0)
(-1.24796e-09 -3.09787e-06 0)
(-1.21085e-09 -3.09587e-06 0)
(-1.17308e-09 -3.09393e-06 0)
(-1.13467e-09 -3.09205e-06 0)
(-1.09565e-09 -3.09024e-06 0)
(-1.05604e-09 -3.08849e-06 0)
(-1.01586e-09 -3.0868e-06 0)
(-9.75137e-10 -3.08518e-06 0)
(-9.33893e-10 -3.08363e-06 0)
(-8.92149e-10 -3.08214e-06 0)
(-8.49929e-10 -3.08072e-06 0)
(-8.07255e-10 -3.07937e-06 0)
(-7.64151e-10 -3.07809e-06 0)
(-7.20638e-10 -3.07688e-06 0)
(-6.7674e-10 -3.07574e-06 0)
(-6.32478e-10 -3.07467e-06 0)
(-5.87877e-10 -3.07368e-06 0)
(-5.42958e-10 -3.07275e-06 0)
(-4.97744e-10 -3.07191e-06 0)
(-4.52259e-10 -3.07112e-06 0)
(-4.06524e-10 -3.07044e-06 0)
(-3.60561e-10 -3.06974e-06 0)
(-3.14399e-10 -3.0694e-06 0)
(-2.68038e-10 -3.06821e-06 0)
(-2.21566e-10 -3.07013e-06 0)
(-1.74826e-10 -3.06182e-06 0)
(-1.28354e-10 -3.0865e-06 0)
(-8.12175e-11 -2.99392e-06 0)
(-3.47419e-11 -3.23973e-06 0)
(-6.21761e-12 -2.82958e-06 0)
)
;
    }
    bottomWall
    {
        type            calculated;
        value           nonuniform List<vector> 
449
(
(-48.4876 -0.963471 0)
(-19.7375 -0.00514938 0)
(-14.3383 -0.0011324 0)
(-12.0367 -0.00054271 0)
(-10.6415 -0.000347134 0)
(-9.66649 -0.000247951 0)
(-8.94448 -0.00018211 0)
(-8.41712 -0.000123636 0)
(-8.09459 -5.09637e-05 0)
(-8.0674 7.51809e-05 0)
(-8.61839 0.000257949 0)
(-9.85751 0.00033462 0)
(-10.9389 0.000253614 0)
(-11.6183 0.000151718 0)
(-11.9955 8.34619e-05 0)
(-12.2013 4.39402e-05 0)
(-12.3031 1.94976e-05 0)
(-12.338 2.83204e-06 0)
(-12.323 -8.08628e-06 0)
(-12.2809 -1.45506e-05 0)
(-12.22 -1.88557e-05 0)
(-12.1472 -2.13212e-05 0)
(-12.0685 -2.24587e-05 0)
(-11.9872 -2.28188e-05 0)
(-11.9056 -2.27197e-05 0)
(-11.8246 -2.23669e-05 0)
(-11.7451 -2.18532e-05 0)
(-11.6675 -2.122e-05 0)
(-11.5921 -2.05347e-05 0)
(-11.5191 -1.98316e-05 0)
(-11.4485 -1.91304e-05 0)
(-11.3803 -1.84427e-05 0)
(-11.3143 -1.77767e-05 0)
(-11.2506 -1.71352e-05 0)
(-11.189 -1.65291e-05 0)
(-11.1295 -1.59608e-05 0)
(-11.0718 -1.54137e-05 0)
(-11.016 -1.48839e-05 0)
(-10.962 -1.43793e-05 0)
(-10.9096 -1.39003e-05 0)
(-10.8589 -1.34456e-05 0)
(-10.8097 -1.30144e-05 0)
(-10.7619 -1.26069e-05 0)
(-10.7155 -1.22196e-05 0)
(-10.6705 -1.18507e-05 0)
(-10.6266 -1.14996e-05 0)
(-10.584 -1.1168e-05 0)
(-10.5424 -1.08502e-05 0)
(-10.502 -1.05551e-05 0)
(-10.4625 -1.02956e-05 0)
(-10.4238 -1.00625e-05 0)
(-10.3859 -9.84314e-06 0)
(-10.3487 -9.63066e-06 0)
(-10.3123 -9.42171e-06 0)
(-10.2765 -9.21641e-06 0)
(-10.2415 -9.01334e-06 0)
(-10.2071 -8.81485e-06 0)
(-10.1734 -8.62256e-06 0)
(-10.1404 -8.43494e-06 0)
(-10.108 -8.25269e-06 0)
(-10.0763 -8.07682e-06 0)
(-10.0451 -7.90797e-06 0)
(-10.0145 -7.74369e-06 0)
(-9.98447 -7.58358e-06 0)
(-9.95499 -7.42811e-06 0)
(-9.92604 -7.27929e-06 0)
(-9.8976 -7.13554e-06 0)
(-9.86965 -6.99635e-06 0)
(-9.84218 -6.86016e-06 0)
(-9.81518 -6.73194e-06 0)
(-9.7886 -6.60982e-06 0)
(-9.76245 -6.48764e-06 0)
(-9.73672 -6.3677e-06 0)
(-9.71141 -6.25208e-06 0)
(-9.68649 -6.14048e-06 0)
(-9.66196 -6.03048e-06 0)
(-9.63781 -5.92365e-06 0)
(-9.61403 -5.81932e-06 0)
(-9.59062 -5.71792e-06 0)
(-9.56755 -5.6196e-06 0)
(-9.54482 -5.52392e-06 0)
(-9.52243 -5.43088e-06 0)
(-9.50036 -5.34054e-06 0)
(-9.4786 -5.2523e-06 0)
(-9.45716 -5.16634e-06 0)
(-9.436 -5.08314e-06 0)
(-9.41515 -5.00185e-06 0)
(-9.39457 -4.92401e-06 0)
(-9.37426 -4.84762e-06 0)
(-9.35422 -4.77257e-06 0)
(-9.33444 -4.69989e-06 0)
(-9.31491 -4.6282e-06 0)
(-9.29564 -4.55868e-06 0)
(-9.27661 -4.49076e-06 0)
(-9.25782 -4.42362e-06 0)
(-9.23927 -4.35937e-06 0)
(-9.22093 -4.29597e-06 0)
(-9.20283 -4.23381e-06 0)
(-9.18494 -4.17404e-06 0)
(-9.16726 -4.11459e-06 0)
(-9.14979 -4.05938e-06 0)
(-9.1325 -4.00674e-06 0)
(-9.1154 -3.9525e-06 0)
(-9.0985 -3.89934e-06 0)
(-9.08178 -3.84657e-06 0)
(-9.06525 -3.79449e-06 0)
(-9.0489 -3.74468e-06 0)
(-9.03273 -3.69531e-06 0)
(-9.01674 -3.64639e-06 0)
(-9.00091 -3.59965e-06 0)
(-8.98526 -3.55331e-06 0)
(-8.96976 -3.5072e-06 0)
(-8.95444 -3.46336e-06 0)
(-8.93926 -3.41992e-06 0)
(-8.92424 -3.37654e-06 0)
(-8.90938 -3.33516e-06 0)
(-8.89466 -3.29445e-06 0)
(-8.88009 -3.2536e-06 0)
(-8.86566 -3.21428e-06 0)
(-8.85137 -3.17614e-06 0)
(-8.83722 -3.13776e-06 0)
(-8.82321 -3.10035e-06 0)
(-8.80933 -3.06461e-06 0)
(-8.79557 -3.02862e-06 0)
(-8.78195 -2.99287e-06 0)
(-8.76845 -2.95884e-06 0)
(-8.75508 -2.92524e-06 0)
(-8.74182 -2.89155e-06 0)
(-8.72869 -2.85888e-06 0)
(-8.71568 -2.82738e-06 0)
(-8.70277 -2.79574e-06 0)
(-8.68998 -2.76428e-06 0)
(-8.67731 -2.73426e-06 0)
(-8.66474 -2.70474e-06 0)
(-8.65228 -2.67498e-06 0)
(-8.63992 -2.64597e-06 0)
(-8.62767 -2.61823e-06 0)
(-8.61552 -2.59034e-06 0)
(-8.60347 -2.56234e-06 0)
(-8.59152 -2.53561e-06 0)
(-8.57967 -2.50966e-06 0)
(-8.56791 -2.48335e-06 0)
(-8.55625 -2.45728e-06 0)
(-8.54468 -2.43243e-06 0)
(-8.5332 -2.40802e-06 0)
(-8.52181 -2.38325e-06 0)
(-8.51051 -2.35951e-06 0)
(-8.49929 -2.3379e-06 0)
(-8.48815 -2.31623e-06 0)
(-8.47708 -2.29329e-06 0)
(-8.46611 -2.27058e-06 0)
(-8.45521 -2.2487e-06 0)
(-8.44439 -2.22706e-06 0)
(-8.43365 -2.20525e-06 0)
(-8.423 -2.18379e-06 0)
(-8.41242 -2.16314e-06 0)
(-8.40191 -2.14284e-06 0)
(-8.39148 -2.12235e-06 0)
(-8.38113 -2.10204e-06 0)
(-8.37085 -2.08253e-06 0)
(-8.36063 -2.06352e-06 0)
(-8.35049 -2.04427e-06 0)
(-8.34042 -2.02499e-06 0)
(-8.33043 -2.00649e-06 0)
(-8.32049 -1.98863e-06 0)
(-8.31063 -1.97057e-06 0)
(-8.30083 -1.95238e-06 0)
(-8.29109 -1.93474e-06 0)
(-8.28143 -1.91791e-06 0)
(-8.27182 -1.90092e-06 0)
(-8.26227 -1.88411e-06 0)
(-8.25279 -1.86711e-06 0)
(-8.24338 -1.84869e-06 0)
(-8.23455 -1.83534e-06 0)
(-8.22624 -1.82378e-06 0)
(-8.2179 -1.80769e-06 0)
(-8.20955 -1.79272e-06 0)
(-8.20116 -1.77899e-06 0)
(-8.19276 -1.76515e-06 0)
(-8.18433 -1.75112e-06 0)
(-8.17588 -1.73677e-06 0)
(-8.1674 -1.7229e-06 0)
(-8.1589 -1.70933e-06 0)
(-8.15038 -1.69587e-06 0)
(-8.14183 -1.68198e-06 0)
(-8.13326 -1.66795e-06 0)
(-8.12467 -1.65442e-06 0)
(-8.11606 -1.64114e-06 0)
(-8.10742 -1.62781e-06 0)
(-8.09876 -1.61419e-06 0)
(-8.09008 -1.60058e-06 0)
(-8.08138 -1.5874e-06 0)
(-8.07266 -1.57439e-06 0)
(-8.06391 -1.56121e-06 0)
(-8.05514 -1.54786e-06 0)
(-8.04636 -1.5347e-06 0)
(-8.03755 -1.52184e-06 0)
(-8.02873 -1.50914e-06 0)
(-8.01988 -1.49616e-06 0)
(-8.01101 -1.48306e-06 0)
(-8.00213 -1.47037e-06 0)
(-7.99322 -1.45789e-06 0)
(-7.9843 -1.44534e-06 0)
(-7.97536 -1.43262e-06 0)
(-7.9664 -1.42001e-06 0)
(-7.95742 -1.40769e-06 0)
(-7.94842 -1.39556e-06 0)
(-7.9394 -1.38319e-06 0)
(-7.93037 -1.37071e-06 0)
(-7.92132 -1.35859e-06 0)
(-7.91225 -1.34672e-06 0)
(-7.90317 -1.3347e-06 0)
(-7.89407 -1.3233e-06 0)
(-7.88494 -1.31242e-06 0)
(-7.87579 -1.30106e-06 0)
(-7.86663 -1.28944e-06 0)
(-7.85744 -1.27762e-06 0)
(-7.84825 -1.26584e-06 0)
(-7.83904 -1.25438e-06 0)
(-7.82981 -1.24308e-06 0)
(-7.82057 -1.23158e-06 0)
(-7.81132 -1.22002e-06 0)
(-7.80205 -1.2088e-06 0)
(-7.79277 -1.19783e-06 0)
(-7.78347 -1.18663e-06 0)
(-7.77416 -1.17533e-06 0)
(-7.76483 -1.16437e-06 0)
(-7.7555 -1.15367e-06 0)
(-7.74615 -1.14279e-06 0)
(-7.73678 -1.1318e-06 0)
(-7.72741 -1.1211e-06 0)
(-7.71802 -1.11066e-06 0)
(-7.70862 -1.10008e-06 0)
(-7.69921 -1.0894e-06 0)
(-7.68979 -1.07897e-06 0)
(-7.68036 -1.06881e-06 0)
(-7.67091 -1.05852e-06 0)
(-7.66146 -1.04812e-06 0)
(-7.652 -1.03799e-06 0)
(-7.64252 -1.0281e-06 0)
(-7.63304 -1.01809e-06 0)
(-7.62354 -1.00798e-06 0)
(-7.61404 -9.98151e-07 0)
(-7.60453 -9.88543e-07 0)
(-7.595 -9.78796e-07 0)
(-7.58547 -9.6898e-07 0)
(-7.57593 -9.59461e-07 0)
(-7.56638 -9.50136e-07 0)
(-7.55683 -9.40647e-07 0)
(-7.54726 -9.31124e-07 0)
(-7.53769 -9.21913e-07 0)
(-7.52811 -9.1283e-07 0)
(-7.51852 -9.036e-07 0)
(-7.50893 -8.94406e-07 0)
(-7.49933 -8.85478e-07 0)
(-7.48973 -8.76622e-07 0)
(-7.48011 -8.67662e-07 0)
(-7.47049 -8.588e-07 0)
(-7.46087 -8.50165e-07 0)
(-7.45124 -8.41534e-07 0)
(-7.4416 -8.32837e-07 0)
(-7.43196 -8.24297e-07 0)
(-7.42232 -8.15948e-07 0)
(-7.41267 -8.07536e-07 0)
(-7.40301 -7.99101e-07 0)
(-7.39336 -7.90877e-07 0)
(-7.38369 -7.82779e-07 0)
(-7.37402 -7.74597e-07 0)
(-7.36436 -7.66466e-07 0)
(-7.35468 -7.5854e-07 0)
(-7.34501 -7.5065e-07 0)
(-7.33533 -7.42711e-07 0)
(-7.32565 -7.34976e-07 0)
(-7.31596 -7.27856e-07 0)
(-7.30626 -7.20658e-07 0)
(-7.29656 -7.1304e-07 0)
(-7.28685 -7.05583e-07 0)
(-7.27714 -6.98185e-07 0)
(-7.26743 -6.90724e-07 0)
(-7.25772 -6.83324e-07 0)
(-7.24801 -6.76091e-07 0)
(-7.2383 -6.6886e-07 0)
(-7.22859 -6.61603e-07 0)
(-7.21887 -6.54489e-07 0)
(-7.20916 -6.47501e-07 0)
(-7.19945 -6.40465e-07 0)
(-7.18974 -6.33462e-07 0)
(-7.18003 -6.26637e-07 0)
(-7.17032 -6.19846e-07 0)
(-7.16061 -6.13023e-07 0)
(-7.15091 -6.06322e-07 0)
(-7.14121 -5.99752e-07 0)
(-7.1315 -5.93146e-07 0)
(-7.1218 -5.86559e-07 0)
(-7.11211 -5.80141e-07 0)
(-7.10241 -5.73758e-07 0)
(-7.09272 -5.67352e-07 0)
(-7.08304 -5.61056e-07 0)
(-7.07335 -5.54882e-07 0)
(-7.06367 -5.48676e-07 0)
(-7.05399 -5.42499e-07 0)
(-7.04432 -5.36476e-07 0)
(-7.03465 -5.30482e-07 0)
(-7.02499 -5.24472e-07 0)
(-7.01533 -5.18573e-07 0)
(-7.00568 -5.12769e-07 0)
(-6.99603 -5.06944e-07 0)
(-6.98639 -5.01166e-07 0)
(-6.97675 -4.95531e-07 0)
(-6.96712 -4.89897e-07 0)
(-6.95749 -4.84262e-07 0)
(-6.94787 -4.78751e-07 0)
(-6.93826 -4.73308e-07 0)
(-6.92866 -4.67845e-07 0)
(-6.91906 -4.62453e-07 0)
(-6.90947 -4.57178e-07 0)
(-6.89988 -4.51893e-07 0)
(-6.89031 -4.46622e-07 0)
(-6.88074 -4.41489e-07 0)
(-6.87118 -4.36378e-07 0)
(-6.86163 -4.31262e-07 0)
(-6.85209 -4.26248e-07 0)
(-6.84256 -4.21308e-07 0)
(-6.83303 -4.16352e-07 0)
(-6.82352 -4.11456e-07 0)
(-6.81401 -4.06673e-07 0)
(-6.80451 -4.0188e-07 0)
(-6.79503 -3.97105e-07 0)
(-6.78555 -3.92446e-07 0)
(-6.77608 -3.88058e-07 0)
(-6.76662 -3.83711e-07 0)
(-6.75716 -3.79198e-07 0)
(-6.74771 -3.74709e-07 0)
(-6.73827 -3.70212e-07 0)
(-6.72885 -3.65786e-07 0)
(-6.71943 -3.61446e-07 0)
(-6.71003 -3.57109e-07 0)
(-6.70064 -3.5283e-07 0)
(-6.69126 -3.48674e-07 0)
(-6.68188 -3.44484e-07 0)
(-6.67253 -3.40285e-07 0)
(-6.66318 -3.36194e-07 0)
(-6.65385 -3.32132e-07 0)
(-6.64453 -3.28067e-07 0)
(-6.63523 -3.24092e-07 0)
(-6.62594 -3.20161e-07 0)
(-6.61666 -3.16235e-07 0)
(-6.60739 -3.12362e-07 0)
(-6.59814 -3.08567e-07 0)
(-6.5889 -3.04749e-07 0)
(-6.57969 -3.01011e-07 0)
(-6.57047 -2.97248e-07 0)
(-6.56129 -2.93639e-07 0)
(-6.5521 -2.90155e-07 0)
(-6.54191 -2.85987e-07 0)
(-6.53081 -2.81523e-07 0)
(-6.51988 -2.77468e-07 0)
(-6.5091 -2.73496e-07 0)
(-6.49849 -2.69523e-07 0)
(-6.48802 -2.65683e-07 0)
(-6.4777 -2.6192e-07 0)
(-6.46753 -2.5823e-07 0)
(-6.4575 -2.54655e-07 0)
(-6.44761 -2.51144e-07 0)
(-6.43786 -2.47705e-07 0)
(-6.42823 -2.44374e-07 0)
(-6.41874 -2.41104e-07 0)
(-6.40937 -2.3789e-07 0)
(-6.40013 -2.34788e-07 0)
(-6.391 -2.31736e-07 0)
(-6.382 -2.28739e-07 0)
(-6.37311 -2.25837e-07 0)
(-6.36434 -2.22991e-07 0)
(-6.35567 -2.20183e-07 0)
(-6.34711 -2.17462e-07 0)
(-6.33866 -2.14798e-07 0)
(-6.33031 -2.12172e-07 0)
(-6.32206 -2.0961e-07 0)
(-6.31391 -2.07121e-07 0)
(-6.30586 -2.04656e-07 0)
(-6.2979 -2.0224e-07 0)
(-6.29004 -1.99899e-07 0)
(-6.28227 -1.97598e-07 0)
(-6.27458 -1.95335e-07 0)
(-6.26699 -1.93223e-07 0)
(-6.25946 -1.91165e-07 0)
(-6.25203 -1.89059e-07 0)
(-6.24468 -1.86977e-07 0)
(-6.23741 -1.84955e-07 0)
(-6.23021 -1.82952e-07 0)
(-6.2231 -1.80966e-07 0)
(-6.21605 -1.7902e-07 0)
(-6.20909 -1.77134e-07 0)
(-6.2022 -1.75265e-07 0)
(-6.19538 -1.7342e-07 0)
(-6.18863 -1.71617e-07 0)
(-6.18196 -1.69871e-07 0)
(-6.17534 -1.68131e-07 0)
(-6.16881 -1.66418e-07 0)
(-6.16233 -1.64742e-07 0)
(-6.15592 -1.63121e-07 0)
(-6.14957 -1.615e-07 0)
(-6.14329 -1.5991e-07 0)
(-6.13706 -1.58344e-07 0)
(-6.1309 -1.56836e-07 0)
(-6.12479 -1.55324e-07 0)
(-6.11875 -1.53846e-07 0)
(-6.11276 -1.52374e-07 0)
(-6.10684 -1.5097e-07 0)
(-6.10095 -1.49558e-07 0)
(-6.09514 -1.48187e-07 0)
(-6.08936 -1.46798e-07 0)
(-6.08365 -1.45491e-07 0)
(-6.07798 -1.4417e-07 0)
(-6.07238 -1.42903e-07 0)
(-6.0668 -1.41587e-07 0)
(-6.0613 -1.40372e-07 0)
(-6.05582 -1.3912e-07 0)
(-6.05042 -1.37962e-07 0)
(-6.04503 -1.36721e-07 0)
(-6.03973 -1.35595e-07 0)
(-6.03442 -1.34397e-07 0)
(-6.02921 -1.33342e-07 0)
(-6.02399 -1.32168e-07 0)
(-6.01888 -1.3114e-07 0)
(-6.01373 -1.29982e-07 0)
(-6.00871 -1.29024e-07 0)
(-6.00364 -1.27908e-07 0)
(-5.9987 -1.26999e-07 0)
(-5.99371 -1.25876e-07 0)
(-5.98886 -1.2502e-07 0)
(-5.98393 -1.23936e-07 0)
(-5.97916 -1.2316e-07 0)
(-5.97429 -1.22089e-07 0)
(-5.96962 -1.2136e-07 0)
(-5.9648 -1.20318e-07 0)
(-5.9602 -1.19665e-07 0)
(-5.95544 -1.18732e-07 0)
(-5.95092 -1.18038e-07 0)
(-5.94621 -1.17479e-07 0)
(-5.94173 -1.16165e-07 0)
(-5.93713 -1.17351e-07 0)
(-5.93254 -1.12921e-07 0)
(-5.92831 -1.20948e-07 0)
(-5.92306 -1.03637e-07 0)
(-5.92024 -1.34309e-07 0)
(-5.91247 -8.16459e-08 0)
(-5.91401 -1.12687e-07 0)
(-5.90338 -1.4105e-07 0)
)
;
    }
    symmetry
    {
        type            symmetryPlane;
    }
    frontAndBack
    {
        type            empty;
    }
}


// ************************************************************************* //
