/*--------------------------------*- C++ -*----------------------------------*\
| =========                 |                                                 |
| \\      /  F ield         | OpenFOAM: The Open Source CFD Toolbox           |
|  \\    /   O peration     | Version:  v2012                                 |
|   \\  /    A nd           | Website:  www.openfoam.com                      |
|    \\/     M anipulation  |                                                 |
\*---------------------------------------------------------------------------*/
FoamFile
{
    version     2.0;
    format      ascii;
    class       volScalarField;
    location    "48.5";
    object      yPlus;
}
// * * * * * * * * * * * * * * * * * * * * * * * * * * * * * * * * * * * * * //

dimensions      [0 0 0 0 0 0 0];


internalField   uniform 0;

boundaryField
{
    inlet
    {
        type            calculated;
        value           uniform 0;
    }
    outlet
    {
        type            calculated;
        value           uniform 0;
    }
    topWall
    {
        type            calculated;
        value           nonuniform List<scalar> 
545
(
0.111338
0.19198
0.246293
0.289516
0.32611
0.358131
0.386734
0.412647
0.436364
0.458242
0.478547
0.497485
0.515219
0.531883
0.547586
0.562421
0.576465
0.589786
0.602441
0.614483
0.625955
0.636898
0.647348
0.657336
0.666892
0.676042
0.684809
0.693217
0.701284
0.709029
0.71647
0.723621
0.730499
0.737116
0.743485
0.749618
0.755526
0.761219
0.766708
0.772
0.777106
0.782033
0.786788
0.79138
0.795814
0.800097
0.804236
0.808236
0.812103
0.815842
0.819458
0.822956
0.82634
0.829614
0.832783
0.835851
0.838821
0.841697
0.844482
0.84718
0.849794
0.852327
0.854781
0.857159
0.859464
0.861699
0.863866
0.865967
0.868004
0.86998
0.871897
0.873756
0.875536
0.877259
0.878968
0.880664
0.882346
0.884015
0.885671
0.887314
0.888944
0.890561
0.892166
0.893758
0.895338
0.896906
0.898462
0.900006
0.901538
0.903058
0.904566
0.906063
0.907549
0.909023
0.910487
0.911939
0.913247
0.914418
0.915588
0.916758
0.917928
0.919098
0.920268
0.921438
0.922608
0.923777
0.924947
0.926116
0.927285
0.928454
0.929623
0.930791
0.931959
0.933128
0.934296
0.935463
0.936631
0.937798
0.938965
0.940132
0.941298
0.942465
0.943631
0.944797
0.945962
0.947127
0.948292
0.949457
0.950621
0.951785
0.952949
0.954112
0.955276
0.956438
0.957601
0.958763
0.959924
0.961086
0.962247
0.963407
0.964567
0.965727
0.966886
0.968045
0.969204
0.970362
0.971519
0.972676
0.973833
0.974989
0.976145
0.9773
0.978455
0.979609
0.980763
0.981916
0.983068
0.984221
0.985372
0.986523
0.987674
0.988823
0.989973
0.991121
0.992269
0.993417
0.994564
0.99571
0.996856
0.998001
0.999145
1.00029
1.00143
1.00257
1.00372
1.00486
1.006
1.00714
1.00827
1.00941
1.01055
1.01169
1.01282
1.01396
1.01509
1.01622
1.01736
1.01849
1.01962
1.02075
1.02188
1.023
1.02413
1.02526
1.02638
1.02751
1.02863
1.02975
1.03088
1.032
1.03312
1.03424
1.03535
1.03647
1.03759
1.0387
1.03981
1.04093
1.04204
1.04315
1.04426
1.04537
1.04647
1.04758
1.04869
1.04979
1.05089
1.05199
1.05309
1.05419
1.05529
1.05639
1.05748
1.05858
1.05967
1.06076
1.06185
1.06294
1.06403
1.06512
1.0662
1.06729
1.06837
1.06945
1.07053
1.07161
1.07269
1.07376
1.07484
1.07591
1.07698
1.07805
1.07912
1.08019
1.08125
1.08232
1.08338
1.08444
1.0855
1.08656
1.08762
1.08867
1.08972
1.09078
1.09183
1.09287
1.09392
1.09497
1.09601
1.09705
1.09809
1.09913
1.10017
1.1012
1.10223
1.10326
1.10429
1.10532
1.10635
1.10731
1.10823
1.10914
1.11007
1.111
1.11194
1.11288
1.11384
1.11479
1.11576
1.11673
1.11771
1.11869
1.11968
1.12068
1.12168
1.12269
1.1237
1.12472
1.12575
1.12679
1.12783
1.12888
1.12993
1.13099
1.13205
1.13313
1.1342
1.13529
1.13638
1.13748
1.13858
1.13969
1.1408
1.14192
1.14304
1.14418
1.14531
1.14646
1.1476
1.14876
1.14992
1.15108
1.15225
1.15342
1.1546
1.15579
1.15698
1.15817
1.15937
1.16057
1.16178
1.163
1.16421
1.16543
1.16666
1.16789
1.16912
1.17036
1.1716
1.17284
1.17409
1.17534
1.1766
1.17785
1.17911
1.18037
1.18164
1.18291
1.18418
1.18545
1.18672
1.188
1.18927
1.19055
1.19183
1.19311
1.19439
1.19567
1.19695
1.19824
1.19952
1.2008
1.20208
1.20336
1.20464
1.20592
1.20719
1.20847
1.20974
1.21101
1.21228
1.21355
1.21481
1.21607
1.21733
1.21858
1.21983
1.22107
1.22231
1.22355
1.22478
1.226
1.22722
1.22844
1.22964
1.23084
1.23204
1.23322
1.2344
1.23557
1.23673
1.23789
1.23903
1.24017
1.24129
1.24241
1.24352
1.24461
1.2457
1.24677
1.24783
1.24888
1.24992
1.25095
1.25196
1.25296
1.25395
1.25492
1.25588
1.25682
1.25775
1.25866
1.25956
1.26044
1.26131
1.26216
1.26299
1.2638
1.2646
1.26538
1.26614
1.26689
1.26761
1.26832
1.269
1.26967
1.27032
1.27095
1.27155
1.27214
1.2727
1.27325
1.27377
1.27427
1.27475
1.27521
1.27564
1.27605
1.27644
1.27681
1.27716
1.27748
1.27778
1.27805
1.2783
1.27853
1.27873
1.27891
1.27907
1.27921
1.27931
1.2794
1.27946
1.2795
1.27951
1.2795
1.27947
1.27941
1.27933
1.27923
1.27909
1.2789
1.27868
1.27843
1.27815
1.27785
1.27752
1.27717
1.27679
1.27639
1.27598
1.27554
1.27509
1.27462
1.27413
1.27363
1.27312
1.27259
1.27205
1.2715
1.27094
1.27038
1.2698
1.26921
1.26862
1.26803
1.26742
1.26682
1.26621
1.26559
1.26497
1.26436
1.26374
1.26311
1.26249
1.26187
1.26125
1.26063
1.26002
1.2594
1.25879
1.25818
1.25758
1.25698
1.25639
1.2558
1.25521
1.25463
1.25406
1.25349
1.25294
1.25239
1.25184
1.25131
1.25078
1.25026
1.24975
1.24925
1.24877
1.24829
1.24782
1.24736
1.24691
1.24647
1.24605
1.24563
1.24523
1.24484
1.24446
1.2441
1.24375
1.24341
1.24308
1.24277
1.24247
1.24218
1.24191
1.24165
1.24141
1.24118
1.24096
1.24076
1.24058
1.2404
1.24025
1.24011
1.23998
1.23987
1.23977
1.23969
1.23962
1.23957
1.23953
1.23952
1.2395
)
;
    }
    bottomWall
    {
        type            calculated;
        value           nonuniform List<scalar> 
449
(
0.139389
0.0889302
0.0757968
0.0694473
0.0652985
0.0622352
0.0598659
0.0580743
0.0569507
0.056855
0.0587645
0.0628471
0.0662047
0.0682298
0.0693284
0.0699205
0.0702118
0.0703113
0.0702683
0.0701484
0.0699742
0.0697655
0.069539
0.0693046
0.069068
0.0688329
0.068601
0.068374
0.0681528
0.0679379
0.0677293
0.0675271
0.0673312
0.0671414
0.0669574
0.0667789
0.0666057
0.0664376
0.0662745
0.0661161
0.0659621
0.0658125
0.065667
0.0655253
0.0653873
0.0652529
0.0651218
0.0649939
0.0648691
0.064747
0.0646272
0.0645096
0.064394
0.0642805
0.064169
0.0640594
0.0639519
0.0638463
0.0637426
0.0636407
0.0635407
0.0634423
0.0633456
0.0632506
0.0631571
0.0630652
0.0629748
0.0628858
0.0627983
0.0627121
0.0626271
0.0625434
0.0624609
0.0623797
0.0622996
0.0622207
0.0621429
0.0620661
0.0619905
0.0619159
0.0618424
0.0617698
0.0616981
0.0616274
0.0615577
0.0614888
0.0614208
0.0613537
0.0612873
0.0612218
0.061157
0.061093
0.0610298
0.0609673
0.0609055
0.0608444
0.060784
0.0607243
0.0606653
0.0606069
0.0605491
0.0604919
0.0604352
0.0603791
0.0603236
0.0602687
0.0602144
0.0601605
0.0601072
0.0600545
0.0600022
0.0599505
0.0598992
0.0598484
0.0597981
0.0597483
0.0596989
0.05965
0.0596016
0.0595535
0.0595059
0.0594587
0.0594119
0.0593655
0.0593195
0.0592739
0.0592287
0.0591838
0.0591394
0.0590952
0.0590515
0.0590081
0.058965
0.0589223
0.0588799
0.0588379
0.0587961
0.0587547
0.0587136
0.0586728
0.0586324
0.0585922
0.0585523
0.0585127
0.0584734
0.0584343
0.0583956
0.0583571
0.0583188
0.0582808
0.058243
0.0582055
0.0581683
0.0581313
0.0580945
0.0580581
0.0580218
0.0579858
0.05795
0.0579144
0.0578791
0.057844
0.0578091
0.0577744
0.05774
0.0577057
0.0576717
0.0576379
0.0576043
0.0575708
0.0575376
0.0575046
0.0574718
0.057441
0.057412
0.0573829
0.0573537
0.0573244
0.0572951
0.0572656
0.057236
0.0572063
0.0571765
0.0571467
0.0571167
0.0570866
0.0570565
0.0570262
0.0569959
0.0569654
0.0569349
0.0569043
0.0568735
0.0568427
0.0568118
0.0567808
0.0567498
0.0567186
0.0566873
0.056656
0.0566246
0.056593
0.0565614
0.0565297
0.056498
0.0564661
0.0564342
0.0564022
0.0563701
0.0563379
0.0563057
0.0562733
0.0562409
0.0562084
0.0561758
0.0561431
0.0561103
0.0560775
0.0560446
0.0560116
0.0559785
0.0559454
0.0559122
0.0558789
0.0558455
0.0558121
0.0557787
0.0557451
0.0557115
0.0556778
0.0556441
0.0556103
0.0555764
0.0555425
0.0555085
0.0554744
0.0554403
0.0554061
0.0553719
0.0553376
0.0553033
0.0552688
0.0552344
0.0551999
0.0551653
0.0551307
0.055096
0.0550613
0.0550265
0.0549917
0.0549568
0.0549218
0.0548869
0.0548518
0.0548168
0.0547816
0.0547465
0.0547113
0.054676
0.0546407
0.0546054
0.05457
0.0545346
0.0544991
0.0544636
0.0544281
0.0543925
0.0543569
0.0543212
0.0542855
0.0542498
0.054214
0.0541783
0.0541424
0.0541065
0.0540706
0.0540346
0.0539986
0.0539626
0.0539265
0.0538904
0.0538543
0.0538181
0.053782
0.0537458
0.0537096
0.0536733
0.0536371
0.0536008
0.0535645
0.0535282
0.0534919
0.0534555
0.0534192
0.0533828
0.0533464
0.05331
0.0532736
0.0532371
0.0532007
0.0531642
0.0531278
0.0530913
0.0530548
0.0530183
0.0529818
0.0529453
0.0529088
0.0528723
0.0528358
0.0527993
0.0527628
0.0527263
0.0526898
0.0526533
0.0526168
0.0525803
0.0525438
0.0525073
0.0524708
0.0524343
0.0523979
0.0523614
0.0523249
0.0522885
0.0522521
0.0522156
0.0521792
0.0521428
0.0521064
0.05207
0.0520336
0.0519972
0.0519608
0.0519245
0.0518882
0.0518518
0.0518155
0.0517793
0.051743
0.0517068
0.0516705
0.0516343
0.0515982
0.051562
0.0515259
0.0514898
0.0514538
0.0514177
0.0513817
0.0513458
0.0513098
0.0512739
0.051238
0.0511981
0.0511547
0.0511119
0.0510696
0.051028
0.0509868
0.0509463
0.0509063
0.0508668
0.0508278
0.0507894
0.0507514
0.0507139
0.0506769
0.0506403
0.0506042
0.0505686
0.0505333
0.0504985
0.0504641
0.0504301
0.0503965
0.0503633
0.0503305
0.0502981
0.050266
0.0502343
0.0502029
0.0501719
0.0501412
0.0501108
0.0500807
0.050051
0.0500215
0.0499924
0.0499636
0.049935
0.0499068
0.0498788
0.0498511
0.0498237
0.0497966
0.0497697
0.0497431
0.0497167
0.0496906
0.0496648
0.0496391
0.0496138
0.0495886
0.0495638
0.049539
0.0495146
0.0494904
0.0494664
0.0494425
0.049419
0.0493955
0.0493724
0.0493494
0.0493266
0.049304
0.0492816
0.0492593
0.0492374
0.0492154
0.0491938
0.0491722
0.049151
0.0491297
0.0491088
0.0490879
0.0490674
0.0490467
0.0490265
0.0490061
0.0489862
0.0489661
0.0489466
0.0489266
0.0489075
0.0488878
0.0488689
0.0488494
0.0488308
0.0488115
0.0487931
0.0487742
0.0487554
0.048738
0.0487164
0.0487048
0.0486728
0.0486792
0.0486354
)
;
    }
    symmetry
    {
        type            symmetryPlane;
    }
    frontAndBack
    {
        type            empty;
    }
}


// ************************************************************************* //
