/*--------------------------------*- C++ -*----------------------------------*\
| =========                 |                                                 |
| \\      /  F ield         | OpenFOAM: The Open Source CFD Toolbox           |
|  \\    /   O peration     | Version:  v2012                                 |
|   \\  /    A nd           | Website:  www.openfoam.com                      |
|    \\/     M anipulation  |                                                 |
\*---------------------------------------------------------------------------*/
FoamFile
{
    version     2.0;
    format      ascii;
    class       volScalarField;
    location    "55";
    object      nut;
}
// * * * * * * * * * * * * * * * * * * * * * * * * * * * * * * * * * * * * * //

dimensions      [0 2 -1 0 0 0 0];


internalField   nonuniform List<scalar> 
209825
(
1.23936e-07
1.23154e-07
1.22368e-07
1.2127e-07
1.19857e-07
1.18225e-07
1.16549e-07
1.14904e-07
1.1338e-07
1.1197e-07
1.10712e-07
1.09568e-07
1.08559e-07
1.07642e-07
1.06836e-07
1.061e-07
1.05452e-07
1.04857e-07
1.04332e-07
1.03845e-07
1.03416e-07
1.03015e-07
1.0266e-07
1.02327e-07
1.0203e-07
1.01751e-07
1.01501e-07
1.01265e-07
1.01052e-07
1.00851e-07
1.00669e-07
1.00497e-07
1.00339e-07
1.00191e-07
1.00054e-07
9.99248e-08
9.98048e-08
9.96924e-08
9.95867e-08
9.94885e-08
9.93942e-08
9.93081e-08
9.92243e-08
9.91482e-08
9.90728e-08
9.90059e-08
9.89378e-08
9.88795e-08
9.88172e-08
9.87657e-08
9.87083e-08
9.86624e-08
9.86074e-08
9.85682e-08
9.85185e-08
9.84828e-08
9.84376e-08
9.84056e-08
9.83653e-08
9.83359e-08
9.82976e-08
9.82698e-08
9.82352e-08
9.82095e-08
9.81765e-08
9.81527e-08
9.81235e-08
9.8102e-08
9.80745e-08
9.80531e-08
9.80267e-08
9.80066e-08
9.79829e-08
9.79657e-08
9.79444e-08
9.79296e-08
9.79097e-08
9.78953e-08
9.78754e-08
9.78608e-08
9.7841e-08
9.78265e-08
9.78074e-08
9.77931e-08
9.77748e-08
9.77581e-08
9.77375e-08
9.77179e-08
9.76976e-08
9.76786e-08
9.76536e-08
9.76195e-08
9.76277e-08
9.85461e-08
1.01001e-07
9.54551e-09
1.23936e-07
1.23154e-07
1.22368e-07
1.2127e-07
1.19857e-07
1.18225e-07
1.1655e-07
1.14904e-07
1.13381e-07
1.11971e-07
1.10713e-07
1.09569e-07
1.0856e-07
1.07643e-07
1.06837e-07
1.06101e-07
1.05453e-07
1.04857e-07
1.04332e-07
1.03846e-07
1.03417e-07
1.03016e-07
1.0266e-07
1.02328e-07
1.02031e-07
1.01752e-07
1.01501e-07
1.01265e-07
1.01053e-07
1.00852e-07
1.0067e-07
1.00497e-07
1.0034e-07
1.00191e-07
1.00054e-07
9.99254e-08
9.98054e-08
9.9693e-08
9.95872e-08
9.94891e-08
9.93947e-08
9.93086e-08
9.92248e-08
9.91487e-08
9.90733e-08
9.90064e-08
9.89383e-08
9.88801e-08
9.88177e-08
9.87662e-08
9.87088e-08
9.86629e-08
9.86079e-08
9.85687e-08
9.8519e-08
9.84833e-08
9.84381e-08
9.84061e-08
9.83658e-08
9.83364e-08
9.82981e-08
9.82703e-08
9.82357e-08
9.82099e-08
9.8177e-08
9.81532e-08
9.81239e-08
9.81025e-08
9.80749e-08
9.80536e-08
9.80271e-08
9.80071e-08
9.79833e-08
9.79661e-08
9.79448e-08
9.79301e-08
9.79102e-08
9.78958e-08
9.78759e-08
9.78613e-08
9.78415e-08
9.7827e-08
9.78078e-08
9.77935e-08
9.77752e-08
9.77585e-08
9.7738e-08
9.77184e-08
9.76981e-08
9.76791e-08
9.76541e-08
9.762e-08
9.76282e-08
9.85483e-08
1.01002e-07
9.83784e-09
1.23936e-07
1.23154e-07
1.22368e-07
1.2127e-07
1.19858e-07
1.18227e-07
1.16551e-07
1.14906e-07
1.13382e-07
1.11973e-07
1.10715e-07
1.09571e-07
1.08562e-07
1.07645e-07
1.06838e-07
1.06102e-07
1.05454e-07
1.04859e-07
1.04334e-07
1.03847e-07
1.03418e-07
1.03017e-07
1.02661e-07
1.02328e-07
1.02032e-07
1.01752e-07
1.01502e-07
1.01266e-07
1.01054e-07
1.00852e-07
1.0067e-07
1.00498e-07
1.0034e-07
1.00191e-07
1.00055e-07
9.99256e-08
9.98056e-08
9.96932e-08
9.95874e-08
9.94892e-08
9.93948e-08
9.93087e-08
9.92249e-08
9.91488e-08
9.90734e-08
9.90064e-08
9.89383e-08
9.888e-08
9.88177e-08
9.87662e-08
9.87087e-08
9.86628e-08
9.86078e-08
9.85685e-08
9.85188e-08
9.84831e-08
9.84379e-08
9.84059e-08
9.83656e-08
9.83362e-08
9.82979e-08
9.827e-08
9.82354e-08
9.82097e-08
9.81767e-08
9.81529e-08
9.81237e-08
9.81022e-08
9.80746e-08
9.80533e-08
9.80268e-08
9.80068e-08
9.7983e-08
9.79658e-08
9.79445e-08
9.79297e-08
9.79098e-08
9.78954e-08
9.78755e-08
9.78609e-08
9.78411e-08
9.78266e-08
9.78075e-08
9.77931e-08
9.77748e-08
9.77582e-08
9.77376e-08
9.7718e-08
9.76977e-08
9.76787e-08
9.76537e-08
9.76196e-08
9.76279e-08
9.85516e-08
1.01002e-07
1.02009e-08
1.23936e-07
1.23154e-07
1.22368e-07
1.21271e-07
1.19859e-07
1.18229e-07
1.16554e-07
1.14909e-07
1.13386e-07
1.11977e-07
1.10719e-07
1.09574e-07
1.08565e-07
1.07648e-07
1.06841e-07
1.06105e-07
1.05457e-07
1.04861e-07
1.04336e-07
1.0385e-07
1.0342e-07
1.03019e-07
1.02663e-07
1.0233e-07
1.02033e-07
1.01754e-07
1.01503e-07
1.01267e-07
1.01055e-07
1.00853e-07
1.00671e-07
1.00499e-07
1.00341e-07
1.00192e-07
1.00055e-07
9.99264e-08
9.98063e-08
9.96938e-08
9.9588e-08
9.94898e-08
9.93954e-08
9.93092e-08
9.92254e-08
9.91492e-08
9.90737e-08
9.90067e-08
9.89386e-08
9.88803e-08
9.88179e-08
9.87664e-08
9.87089e-08
9.8663e-08
9.86079e-08
9.85686e-08
9.85189e-08
9.84832e-08
9.8438e-08
9.84059e-08
9.83656e-08
9.83361e-08
9.82979e-08
9.827e-08
9.82354e-08
9.82096e-08
9.81766e-08
9.81528e-08
9.81235e-08
9.81021e-08
9.80745e-08
9.80531e-08
9.80267e-08
9.80066e-08
9.79828e-08
9.79656e-08
9.79443e-08
9.79295e-08
9.79096e-08
9.78952e-08
9.78752e-08
9.78606e-08
9.78408e-08
9.78263e-08
9.78072e-08
9.77928e-08
9.77744e-08
9.77578e-08
9.77373e-08
9.77177e-08
9.76974e-08
9.76785e-08
9.76534e-08
9.76194e-08
9.76278e-08
9.85571e-08
1.01004e-07
1.06054e-08
1.23936e-07
1.23154e-07
1.22368e-07
1.21272e-07
1.19862e-07
1.18232e-07
1.16558e-07
1.14914e-07
1.13391e-07
1.11982e-07
1.10724e-07
1.09579e-07
1.0857e-07
1.07653e-07
1.06846e-07
1.06109e-07
1.05461e-07
1.04865e-07
1.0434e-07
1.03853e-07
1.03423e-07
1.03022e-07
1.02666e-07
1.02333e-07
1.02036e-07
1.01756e-07
1.01506e-07
1.01269e-07
1.01057e-07
1.00855e-07
1.00673e-07
1.005e-07
1.00343e-07
1.00194e-07
1.00057e-07
9.99277e-08
9.98076e-08
9.9695e-08
9.95891e-08
9.94909e-08
9.93963e-08
9.93101e-08
9.92262e-08
9.915e-08
9.90745e-08
9.90074e-08
9.89393e-08
9.88809e-08
9.88185e-08
9.87669e-08
9.87094e-08
9.86635e-08
9.86083e-08
9.8569e-08
9.85193e-08
9.84835e-08
9.84383e-08
9.84062e-08
9.83658e-08
9.83364e-08
9.82981e-08
9.82702e-08
9.82355e-08
9.82098e-08
9.81767e-08
9.81529e-08
9.81236e-08
9.81021e-08
9.80745e-08
9.80532e-08
9.80267e-08
9.80066e-08
9.79828e-08
9.79656e-08
9.79442e-08
9.79294e-08
9.79095e-08
9.7895e-08
9.78751e-08
9.78605e-08
9.78407e-08
9.78261e-08
9.7807e-08
9.77926e-08
9.77742e-08
9.77577e-08
9.77371e-08
9.77176e-08
9.76972e-08
9.76783e-08
9.76533e-08
9.76193e-08
9.76278e-08
9.85649e-08
1.01006e-07
1.10444e-08
1.23936e-07
1.23153e-07
1.22368e-07
1.21273e-07
1.19864e-07
1.18236e-07
1.16563e-07
1.1492e-07
1.13397e-07
1.11988e-07
1.1073e-07
1.09586e-07
1.08576e-07
1.07659e-07
1.06852e-07
1.06115e-07
1.05466e-07
1.0487e-07
1.04344e-07
1.03858e-07
1.03427e-07
1.03026e-07
1.0267e-07
1.02337e-07
1.02039e-07
1.0176e-07
1.01509e-07
1.01272e-07
1.0106e-07
1.00858e-07
1.00675e-07
1.00503e-07
1.00345e-07
1.00196e-07
1.00059e-07
9.99297e-08
9.98094e-08
9.96968e-08
9.95908e-08
9.94924e-08
9.93978e-08
9.93115e-08
9.92276e-08
9.91513e-08
9.90757e-08
9.90086e-08
9.89404e-08
9.88819e-08
9.88194e-08
9.87678e-08
9.87103e-08
9.86643e-08
9.86091e-08
9.85698e-08
9.852e-08
9.84842e-08
9.84389e-08
9.84068e-08
9.83664e-08
9.83369e-08
9.82985e-08
9.82706e-08
9.8236e-08
9.82101e-08
9.81771e-08
9.81533e-08
9.81239e-08
9.81024e-08
9.80748e-08
9.80534e-08
9.80269e-08
9.80068e-08
9.7983e-08
9.79657e-08
9.79444e-08
9.79295e-08
9.79096e-08
9.78951e-08
9.78752e-08
9.78605e-08
9.78407e-08
9.78262e-08
9.7807e-08
9.77926e-08
9.77741e-08
9.77576e-08
9.77371e-08
9.77176e-08
9.76972e-08
9.76784e-08
9.76533e-08
9.76193e-08
9.76281e-08
9.85753e-08
1.01009e-07
1.15167e-08
1.23936e-07
1.23153e-07
1.22368e-07
1.21275e-07
1.19868e-07
1.18242e-07
1.1657e-07
1.14928e-07
1.13405e-07
1.11996e-07
1.10739e-07
1.09594e-07
1.08584e-07
1.07666e-07
1.06859e-07
1.06122e-07
1.05473e-07
1.04877e-07
1.04351e-07
1.03863e-07
1.03433e-07
1.03031e-07
1.02675e-07
1.02341e-07
1.02044e-07
1.01764e-07
1.01513e-07
1.01276e-07
1.01063e-07
1.00861e-07
1.00679e-07
1.00506e-07
1.00348e-07
1.00199e-07
1.00062e-07
9.99322e-08
9.98118e-08
9.9699e-08
9.9593e-08
9.94945e-08
9.93998e-08
9.93134e-08
9.92293e-08
9.9153e-08
9.90773e-08
9.90101e-08
9.89418e-08
9.88833e-08
9.88208e-08
9.87691e-08
9.87115e-08
9.86655e-08
9.86102e-08
9.85708e-08
9.8521e-08
9.84851e-08
9.84398e-08
9.84076e-08
9.83672e-08
9.83377e-08
9.82993e-08
9.82713e-08
9.82366e-08
9.82108e-08
9.81777e-08
9.81539e-08
9.81245e-08
9.81029e-08
9.80753e-08
9.80539e-08
9.80273e-08
9.80072e-08
9.79834e-08
9.79661e-08
9.79447e-08
9.79298e-08
9.79098e-08
9.78954e-08
9.78754e-08
9.78607e-08
9.78409e-08
9.78263e-08
9.78071e-08
9.77927e-08
9.77741e-08
9.77578e-08
9.77373e-08
9.77179e-08
9.76973e-08
9.76786e-08
9.76536e-08
9.76196e-08
9.76286e-08
9.85884e-08
1.01013e-07
1.20227e-08
1.23936e-07
1.23152e-07
1.22368e-07
1.21276e-07
1.19872e-07
1.18248e-07
1.16578e-07
1.14937e-07
1.13415e-07
1.12006e-07
1.10749e-07
1.09604e-07
1.08594e-07
1.07676e-07
1.06868e-07
1.0613e-07
1.05481e-07
1.04884e-07
1.04358e-07
1.0387e-07
1.0344e-07
1.03038e-07
1.02681e-07
1.02347e-07
1.02049e-07
1.01769e-07
1.01518e-07
1.01281e-07
1.01068e-07
1.00866e-07
1.00683e-07
1.0051e-07
1.00352e-07
1.00202e-07
1.00065e-07
9.99353e-08
9.98148e-08
9.97019e-08
9.95957e-08
9.94971e-08
9.94023e-08
9.93158e-08
9.92316e-08
9.91552e-08
9.90794e-08
9.90121e-08
9.89437e-08
9.88852e-08
9.88225e-08
9.87708e-08
9.87131e-08
9.8667e-08
9.86117e-08
9.85722e-08
9.85223e-08
9.84864e-08
9.8441e-08
9.84088e-08
9.83683e-08
9.83387e-08
9.83003e-08
9.82723e-08
9.82376e-08
9.82117e-08
9.81786e-08
9.81547e-08
9.81253e-08
9.81037e-08
9.8076e-08
9.80546e-08
9.8028e-08
9.80079e-08
9.7984e-08
9.79667e-08
9.79452e-08
9.79303e-08
9.79103e-08
9.78958e-08
9.78758e-08
9.78612e-08
9.78412e-08
9.78267e-08
9.78074e-08
9.7793e-08
9.77743e-08
9.77581e-08
9.77377e-08
9.77183e-08
9.76976e-08
9.76791e-08
9.7654e-08
9.76201e-08
9.76293e-08
9.86045e-08
1.01017e-07
1.25629e-08
1.23936e-07
1.23152e-07
1.22368e-07
1.21278e-07
1.19877e-07
1.18255e-07
1.16587e-07
1.14947e-07
1.13426e-07
1.12018e-07
1.1076e-07
1.09615e-07
1.08605e-07
1.07687e-07
1.06879e-07
1.0614e-07
1.05491e-07
1.04893e-07
1.04367e-07
1.03879e-07
1.03447e-07
1.03045e-07
1.02688e-07
1.02354e-07
1.02056e-07
1.01775e-07
1.01524e-07
1.01286e-07
1.01073e-07
1.00871e-07
1.00688e-07
1.00514e-07
1.00356e-07
1.00206e-07
1.00069e-07
9.99391e-08
9.98185e-08
9.97054e-08
9.9599e-08
9.95003e-08
9.94053e-08
9.93187e-08
9.92344e-08
9.91578e-08
9.9082e-08
9.90146e-08
9.89461e-08
9.88874e-08
9.88247e-08
9.87729e-08
9.87151e-08
9.86689e-08
9.86135e-08
9.8574e-08
9.8524e-08
9.84881e-08
9.84426e-08
9.84103e-08
9.83697e-08
9.83401e-08
9.83016e-08
9.82736e-08
9.82388e-08
9.82129e-08
9.81797e-08
9.81558e-08
9.81263e-08
9.81047e-08
9.8077e-08
9.80556e-08
9.8029e-08
9.80088e-08
9.79848e-08
9.79675e-08
9.7946e-08
9.79311e-08
9.7911e-08
9.78965e-08
9.78764e-08
9.78618e-08
9.78418e-08
9.78272e-08
9.78079e-08
9.77935e-08
9.77747e-08
9.77586e-08
9.77382e-08
9.77189e-08
9.76981e-08
9.76797e-08
9.76546e-08
9.76207e-08
9.76303e-08
9.86236e-08
1.01022e-07
1.31378e-08
1.23936e-07
1.23151e-07
1.22368e-07
1.21281e-07
1.19882e-07
1.18263e-07
1.16598e-07
1.14959e-07
1.13439e-07
1.12031e-07
1.10774e-07
1.09629e-07
1.08618e-07
1.07699e-07
1.06891e-07
1.06152e-07
1.05502e-07
1.04904e-07
1.04377e-07
1.03888e-07
1.03457e-07
1.03054e-07
1.02696e-07
1.02362e-07
1.02063e-07
1.01782e-07
1.0153e-07
1.01293e-07
1.01079e-07
1.00877e-07
1.00693e-07
1.0052e-07
1.00361e-07
1.00211e-07
1.00074e-07
9.99436e-08
9.98228e-08
9.97095e-08
9.9603e-08
9.95041e-08
9.9409e-08
9.93222e-08
9.92377e-08
9.9161e-08
9.9085e-08
9.90175e-08
9.89489e-08
9.88901e-08
9.88273e-08
9.87754e-08
9.87175e-08
9.86713e-08
9.86158e-08
9.85762e-08
9.85261e-08
9.84901e-08
9.84445e-08
9.84121e-08
9.83715e-08
9.83418e-08
9.83033e-08
9.82752e-08
9.82403e-08
9.82144e-08
9.81812e-08
9.81572e-08
9.81277e-08
9.8106e-08
9.80783e-08
9.80568e-08
9.80301e-08
9.801e-08
9.79859e-08
9.79686e-08
9.7947e-08
9.7932e-08
9.79119e-08
9.78974e-08
9.78772e-08
9.78626e-08
9.78426e-08
9.7828e-08
9.78087e-08
9.77942e-08
9.77753e-08
9.77592e-08
9.7739e-08
9.77197e-08
9.76988e-08
9.76805e-08
9.76554e-08
9.76216e-08
9.76317e-08
9.8646e-08
1.01028e-07
1.37475e-08
1.23936e-07
1.2315e-07
1.22368e-07
1.21283e-07
1.19888e-07
1.18273e-07
1.16609e-07
1.14973e-07
1.13454e-07
1.12046e-07
1.10789e-07
1.09644e-07
1.08633e-07
1.07713e-07
1.06904e-07
1.06165e-07
1.05515e-07
1.04916e-07
1.04388e-07
1.03899e-07
1.03467e-07
1.03064e-07
1.02706e-07
1.02371e-07
1.02072e-07
1.0179e-07
1.01538e-07
1.013e-07
1.01086e-07
1.00883e-07
1.007e-07
1.00526e-07
1.00367e-07
1.00217e-07
1.00079e-07
9.99488e-08
9.98277e-08
9.97142e-08
9.96075e-08
9.95084e-08
9.94131e-08
9.93262e-08
9.92416e-08
9.91647e-08
9.90886e-08
9.9021e-08
9.89522e-08
9.88933e-08
9.88303e-08
9.87783e-08
9.87203e-08
9.8674e-08
9.86184e-08
9.85787e-08
9.85285e-08
9.84924e-08
9.84468e-08
9.84143e-08
9.83736e-08
9.83439e-08
9.83053e-08
9.82771e-08
9.82422e-08
9.82162e-08
9.81829e-08
9.81589e-08
9.81293e-08
9.81076e-08
9.80798e-08
9.80583e-08
9.80316e-08
9.80114e-08
9.79873e-08
9.79699e-08
9.79482e-08
9.79332e-08
9.7913e-08
9.78985e-08
9.78783e-08
9.78636e-08
9.78436e-08
9.78289e-08
9.78096e-08
9.77951e-08
9.77761e-08
9.77601e-08
9.77399e-08
9.77207e-08
9.76996e-08
9.76816e-08
9.76564e-08
9.76228e-08
9.76333e-08
9.86718e-08
1.01034e-07
1.43913e-08
1.23936e-07
1.2315e-07
1.22368e-07
1.21286e-07
1.19895e-07
1.18283e-07
1.16623e-07
1.14988e-07
1.1347e-07
1.12063e-07
1.10806e-07
1.0966e-07
1.08649e-07
1.07729e-07
1.0692e-07
1.0618e-07
1.05529e-07
1.0493e-07
1.04401e-07
1.03912e-07
1.03479e-07
1.03075e-07
1.02717e-07
1.02381e-07
1.02082e-07
1.018e-07
1.01547e-07
1.01309e-07
1.01094e-07
1.00891e-07
1.00707e-07
1.00533e-07
1.00374e-07
1.00223e-07
1.00085e-07
9.99547e-08
9.98334e-08
9.97197e-08
9.96127e-08
9.95134e-08
9.94179e-08
9.93308e-08
9.9246e-08
9.9169e-08
9.90927e-08
9.90249e-08
9.8956e-08
9.8897e-08
9.88338e-08
9.87817e-08
9.87236e-08
9.86772e-08
9.86215e-08
9.85816e-08
9.85314e-08
9.84952e-08
9.84495e-08
9.84169e-08
9.83761e-08
9.83463e-08
9.83076e-08
9.82794e-08
9.82444e-08
9.82183e-08
9.8185e-08
9.81609e-08
9.81312e-08
9.81095e-08
9.80816e-08
9.80601e-08
9.80333e-08
9.80131e-08
9.79889e-08
9.79715e-08
9.79497e-08
9.79347e-08
9.79144e-08
9.78998e-08
9.78796e-08
9.78649e-08
9.78448e-08
9.78301e-08
9.78107e-08
9.77962e-08
9.77771e-08
9.77611e-08
9.7741e-08
9.77219e-08
9.77007e-08
9.76828e-08
9.76576e-08
9.76241e-08
9.76352e-08
9.87013e-08
1.01041e-07
1.50688e-08
1.23936e-07
1.23149e-07
1.22368e-07
1.2129e-07
1.19902e-07
1.18294e-07
1.16637e-07
1.15005e-07
1.13488e-07
1.12082e-07
1.10825e-07
1.09679e-07
1.08668e-07
1.07747e-07
1.06937e-07
1.06196e-07
1.05545e-07
1.04945e-07
1.04416e-07
1.03925e-07
1.03492e-07
1.03087e-07
1.02729e-07
1.02392e-07
1.02092e-07
1.0181e-07
1.01557e-07
1.01318e-07
1.01103e-07
1.009e-07
1.00715e-07
1.00541e-07
1.00381e-07
1.00231e-07
1.00092e-07
9.99613e-08
9.98397e-08
9.97258e-08
9.96186e-08
9.9519e-08
9.94233e-08
9.9336e-08
9.9251e-08
9.91738e-08
9.90973e-08
9.90294e-08
9.89603e-08
9.89011e-08
9.88378e-08
9.87856e-08
9.87273e-08
9.86808e-08
9.8625e-08
9.8585e-08
9.85347e-08
9.84983e-08
9.84525e-08
9.84198e-08
9.83789e-08
9.8349e-08
9.83103e-08
9.8282e-08
9.82469e-08
9.82208e-08
9.81874e-08
9.81632e-08
9.81334e-08
9.81116e-08
9.80837e-08
9.80621e-08
9.80353e-08
9.8015e-08
9.79908e-08
9.79733e-08
9.79515e-08
9.79364e-08
9.7916e-08
9.79014e-08
9.78811e-08
9.78663e-08
9.78462e-08
9.78315e-08
9.7812e-08
9.77975e-08
9.77783e-08
9.77624e-08
9.77424e-08
9.77234e-08
9.7702e-08
9.76843e-08
9.76591e-08
9.76257e-08
9.76374e-08
9.87345e-08
1.01047e-07
1.57818e-08
1.23936e-07
1.23148e-07
1.22368e-07
1.21293e-07
1.1991e-07
1.18307e-07
1.16653e-07
1.15023e-07
1.13508e-07
1.12103e-07
1.10846e-07
1.097e-07
1.08688e-07
1.07767e-07
1.06956e-07
1.06215e-07
1.05562e-07
1.04961e-07
1.04432e-07
1.03941e-07
1.03506e-07
1.03101e-07
1.02742e-07
1.02405e-07
1.02104e-07
1.01821e-07
1.01568e-07
1.01328e-07
1.01113e-07
1.00909e-07
1.00724e-07
1.00549e-07
1.0039e-07
1.00239e-07
1.001e-07
9.99687e-08
9.98468e-08
9.97326e-08
9.96251e-08
9.95253e-08
9.94294e-08
9.93419e-08
9.92566e-08
9.91792e-08
9.91025e-08
9.90344e-08
9.89651e-08
9.89058e-08
9.88423e-08
9.879e-08
9.87315e-08
9.86849e-08
9.86289e-08
9.85888e-08
9.85383e-08
9.85019e-08
9.8456e-08
9.84232e-08
9.83821e-08
9.83522e-08
9.83133e-08
9.82849e-08
9.82497e-08
9.82236e-08
9.81901e-08
9.81658e-08
9.8136e-08
9.81141e-08
9.80861e-08
9.80645e-08
9.80376e-08
9.80173e-08
9.7993e-08
9.79754e-08
9.79535e-08
9.79383e-08
9.79179e-08
9.79032e-08
9.78829e-08
9.78681e-08
9.78479e-08
9.78332e-08
9.78136e-08
9.7799e-08
9.77797e-08
9.77639e-08
9.7744e-08
9.77251e-08
9.77035e-08
9.76861e-08
9.76608e-08
9.76276e-08
9.764e-08
9.87716e-08
1.01054e-07
1.65328e-08
1.23936e-07
1.23146e-07
1.22368e-07
1.21297e-07
1.19919e-07
1.1832e-07
1.16671e-07
1.15043e-07
1.1353e-07
1.12125e-07
1.10868e-07
1.09722e-07
1.0871e-07
1.07788e-07
1.06977e-07
1.06235e-07
1.05581e-07
1.0498e-07
1.04449e-07
1.03957e-07
1.03522e-07
1.03116e-07
1.02756e-07
1.02419e-07
1.02118e-07
1.01834e-07
1.0158e-07
1.0134e-07
1.01124e-07
1.0092e-07
1.00734e-07
1.00559e-07
1.00399e-07
1.00247e-07
1.00108e-07
9.99769e-08
9.98546e-08
9.97401e-08
9.96323e-08
9.95323e-08
9.94361e-08
9.93483e-08
9.92628e-08
9.91852e-08
9.91083e-08
9.904e-08
9.89705e-08
9.8911e-08
9.88473e-08
9.87948e-08
9.87362e-08
9.86895e-08
9.86333e-08
9.85931e-08
9.85425e-08
9.85059e-08
9.84598e-08
9.84269e-08
9.83858e-08
9.83557e-08
9.83167e-08
9.82883e-08
9.8253e-08
9.82267e-08
9.81932e-08
9.81688e-08
9.81388e-08
9.81169e-08
9.80889e-08
9.80672e-08
9.80403e-08
9.80199e-08
9.79955e-08
9.79779e-08
9.79558e-08
9.79406e-08
9.79201e-08
9.79053e-08
9.78849e-08
9.78701e-08
9.78498e-08
9.78351e-08
9.78154e-08
9.78008e-08
9.77814e-08
9.77656e-08
9.77458e-08
9.7727e-08
9.77053e-08
9.7688e-08
9.76628e-08
9.76297e-08
9.76429e-08
9.88128e-08
1.0106e-07
1.73241e-08
1.23935e-07
1.23145e-07
1.22368e-07
1.21301e-07
1.19929e-07
1.18335e-07
1.16689e-07
1.15065e-07
1.13553e-07
1.12149e-07
1.10893e-07
1.09747e-07
1.08734e-07
1.07811e-07
1.06999e-07
1.06256e-07
1.05602e-07
1.05e-07
1.04468e-07
1.03975e-07
1.0354e-07
1.03133e-07
1.02772e-07
1.02434e-07
1.02132e-07
1.01848e-07
1.01593e-07
1.01353e-07
1.01136e-07
1.00931e-07
1.00745e-07
1.0057e-07
1.00409e-07
1.00257e-07
1.00118e-07
9.99858e-08
9.98633e-08
9.97484e-08
9.96403e-08
9.954e-08
9.94435e-08
9.93555e-08
9.92697e-08
9.91919e-08
9.91147e-08
9.90462e-08
9.89764e-08
9.89168e-08
9.88529e-08
9.88002e-08
9.87413e-08
9.86945e-08
9.86382e-08
9.85978e-08
9.8547e-08
9.85103e-08
9.84641e-08
9.84311e-08
9.83898e-08
9.83596e-08
9.83206e-08
9.8292e-08
9.82566e-08
9.82303e-08
9.81966e-08
9.81722e-08
9.81421e-08
9.81201e-08
9.80919e-08
9.80703e-08
9.80432e-08
9.80228e-08
9.79983e-08
9.79806e-08
9.79585e-08
9.79431e-08
9.79225e-08
9.79077e-08
9.78872e-08
9.78724e-08
9.7852e-08
9.78373e-08
9.78175e-08
9.78029e-08
9.77833e-08
9.77676e-08
9.77479e-08
9.77291e-08
9.77073e-08
9.76902e-08
9.7665e-08
9.76321e-08
9.76462e-08
9.88582e-08
1.01066e-07
1.81584e-08
1.23935e-07
1.23144e-07
1.22368e-07
1.21305e-07
1.19939e-07
1.18351e-07
1.1671e-07
1.15088e-07
1.13578e-07
1.12176e-07
1.10919e-07
1.09773e-07
1.0876e-07
1.07837e-07
1.07024e-07
1.0628e-07
1.05625e-07
1.05021e-07
1.04489e-07
1.03995e-07
1.03559e-07
1.03151e-07
1.02789e-07
1.0245e-07
1.02148e-07
1.01863e-07
1.01608e-07
1.01366e-07
1.0115e-07
1.00944e-07
1.00758e-07
1.00581e-07
1.0042e-07
1.00268e-07
1.00128e-07
9.99956e-08
9.98727e-08
9.97575e-08
9.9649e-08
9.95484e-08
9.94516e-08
9.93633e-08
9.92772e-08
9.91992e-08
9.91217e-08
9.9053e-08
9.89829e-08
9.89231e-08
9.8859e-08
9.88061e-08
9.87471e-08
9.87001e-08
9.86436e-08
9.8603e-08
9.85521e-08
9.85152e-08
9.84689e-08
9.84357e-08
9.83942e-08
9.8364e-08
9.83248e-08
9.82961e-08
9.82606e-08
9.82342e-08
9.82004e-08
9.81759e-08
9.81457e-08
9.81236e-08
9.80953e-08
9.80736e-08
9.80465e-08
9.8026e-08
9.80014e-08
9.79837e-08
9.79614e-08
9.7946e-08
9.79252e-08
9.79104e-08
9.78898e-08
9.78749e-08
9.78545e-08
9.78397e-08
9.78198e-08
9.78052e-08
9.77855e-08
9.77698e-08
9.77502e-08
9.77316e-08
9.77095e-08
9.76927e-08
9.76675e-08
9.76348e-08
9.76498e-08
9.89078e-08
9.60606e-08
1.90383e-08
1.23935e-07
1.23143e-07
1.22368e-07
1.21309e-07
1.19949e-07
1.18368e-07
1.16731e-07
1.15113e-07
1.13606e-07
1.12204e-07
1.10948e-07
1.09801e-07
1.08788e-07
1.07864e-07
1.0705e-07
1.06305e-07
1.05649e-07
1.05044e-07
1.04511e-07
1.04017e-07
1.03579e-07
1.03171e-07
1.02808e-07
1.02468e-07
1.02165e-07
1.01879e-07
1.01623e-07
1.01381e-07
1.01164e-07
1.00957e-07
1.00771e-07
1.00594e-07
1.00432e-07
1.00279e-07
1.00139e-07
1.00006e-07
9.9883e-08
9.97674e-08
9.96586e-08
9.95576e-08
9.94604e-08
9.93718e-08
9.92854e-08
9.92071e-08
9.91293e-08
9.90604e-08
9.89901e-08
9.893e-08
9.88656e-08
9.88126e-08
9.87533e-08
9.87062e-08
9.86495e-08
9.86088e-08
9.85577e-08
9.85206e-08
9.84741e-08
9.84408e-08
9.83991e-08
9.83687e-08
9.83295e-08
9.83007e-08
9.8265e-08
9.82385e-08
9.82046e-08
9.818e-08
9.81496e-08
9.81275e-08
9.80991e-08
9.80774e-08
9.80501e-08
9.80296e-08
9.80049e-08
9.79871e-08
9.79646e-08
9.79491e-08
9.79283e-08
9.79134e-08
9.78927e-08
9.78778e-08
9.78572e-08
9.78424e-08
9.78225e-08
9.78077e-08
9.77879e-08
9.77722e-08
9.77527e-08
9.77342e-08
9.7712e-08
9.76954e-08
9.76703e-08
9.76378e-08
9.76539e-08
9.89618e-08
9.06623e-08
1.99667e-08
1.23935e-07
1.23141e-07
1.22368e-07
1.21314e-07
1.19961e-07
1.18385e-07
1.16754e-07
1.1514e-07
1.13635e-07
1.12234e-07
1.10979e-07
1.09832e-07
1.08818e-07
1.07893e-07
1.07078e-07
1.06332e-07
1.05675e-07
1.0507e-07
1.04535e-07
1.0404e-07
1.03601e-07
1.03192e-07
1.02828e-07
1.02487e-07
1.02183e-07
1.01897e-07
1.0164e-07
1.01397e-07
1.01179e-07
1.00972e-07
1.00785e-07
1.00607e-07
1.00445e-07
1.00292e-07
1.00151e-07
1.00018e-07
9.98941e-08
9.97781e-08
9.96689e-08
9.95675e-08
9.947e-08
9.9381e-08
9.92944e-08
9.92157e-08
9.91377e-08
9.90685e-08
9.89978e-08
9.89375e-08
9.88729e-08
9.88197e-08
9.87601e-08
9.87128e-08
9.8656e-08
9.8615e-08
9.85637e-08
9.85265e-08
9.84798e-08
9.84463e-08
9.84045e-08
9.8374e-08
9.83345e-08
9.83056e-08
9.82698e-08
9.82432e-08
9.82092e-08
9.81845e-08
9.8154e-08
9.81317e-08
9.81033e-08
9.80815e-08
9.80541e-08
9.80335e-08
9.80087e-08
9.79908e-08
9.79682e-08
9.79527e-08
9.79317e-08
9.79167e-08
9.78959e-08
9.78809e-08
9.78603e-08
9.78454e-08
9.78254e-08
9.78106e-08
9.77907e-08
9.7775e-08
9.77555e-08
9.77372e-08
9.77148e-08
9.76984e-08
9.76733e-08
9.76411e-08
9.76583e-08
9.90203e-08
8.58495e-08
2.09466e-08
1.23935e-07
1.2314e-07
1.22368e-07
1.21319e-07
1.19973e-07
1.18404e-07
1.16779e-07
1.15168e-07
1.13665e-07
1.12266e-07
1.11011e-07
1.09864e-07
1.0885e-07
1.07924e-07
1.07109e-07
1.06362e-07
1.05703e-07
1.05097e-07
1.04561e-07
1.04064e-07
1.03625e-07
1.03214e-07
1.0285e-07
1.02508e-07
1.02203e-07
1.01915e-07
1.01658e-07
1.01415e-07
1.01196e-07
1.00988e-07
1.008e-07
1.00622e-07
1.00459e-07
1.00305e-07
1.00164e-07
1.0003e-07
9.99061e-08
9.97897e-08
9.968e-08
9.95783e-08
9.94804e-08
9.9391e-08
9.9304e-08
9.92251e-08
9.91467e-08
9.90772e-08
9.90063e-08
9.89457e-08
9.88808e-08
9.88273e-08
9.87675e-08
9.87201e-08
9.8663e-08
9.86218e-08
9.85703e-08
9.85329e-08
9.8486e-08
9.84523e-08
9.84104e-08
9.83797e-08
9.83401e-08
9.83111e-08
9.82751e-08
9.82484e-08
9.82142e-08
9.81894e-08
9.81588e-08
9.81364e-08
9.81078e-08
9.8086e-08
9.80585e-08
9.80379e-08
9.80129e-08
9.79949e-08
9.79722e-08
9.79565e-08
9.79354e-08
9.79204e-08
9.78995e-08
9.78844e-08
9.78637e-08
9.78488e-08
9.78286e-08
9.78138e-08
9.77937e-08
9.7778e-08
9.77586e-08
9.77404e-08
9.77178e-08
9.77017e-08
9.76766e-08
9.76447e-08
9.76632e-08
9.90833e-08
8.15532e-08
2.1981e-08
1.23935e-07
1.23138e-07
1.22368e-07
1.21324e-07
1.19985e-07
1.18424e-07
1.16805e-07
1.15198e-07
1.13698e-07
1.123e-07
1.11046e-07
1.09899e-07
1.08884e-07
1.07958e-07
1.07141e-07
1.06393e-07
1.05733e-07
1.05125e-07
1.04589e-07
1.04091e-07
1.0365e-07
1.03238e-07
1.02873e-07
1.0253e-07
1.02224e-07
1.01936e-07
1.01677e-07
1.01433e-07
1.01214e-07
1.01005e-07
1.00816e-07
1.00638e-07
1.00474e-07
1.0032e-07
1.00178e-07
1.00044e-07
9.99191e-08
9.98021e-08
9.9692e-08
9.95899e-08
9.94916e-08
9.94018e-08
9.93144e-08
9.92352e-08
9.91564e-08
9.90866e-08
9.90154e-08
9.89545e-08
9.88893e-08
9.88356e-08
9.87756e-08
9.87279e-08
9.86706e-08
9.86291e-08
9.85774e-08
9.85398e-08
9.84928e-08
9.84589e-08
9.84167e-08
9.83859e-08
9.83461e-08
9.8317e-08
9.82808e-08
9.8254e-08
9.82197e-08
9.81948e-08
9.8164e-08
9.81415e-08
9.81128e-08
9.80909e-08
9.80633e-08
9.80426e-08
9.80175e-08
9.79994e-08
9.79765e-08
9.79607e-08
9.79395e-08
9.79244e-08
9.79033e-08
9.78882e-08
9.78674e-08
9.78524e-08
9.78321e-08
9.78173e-08
9.7797e-08
9.77814e-08
9.77619e-08
9.77439e-08
9.77212e-08
9.77053e-08
9.76803e-08
9.76486e-08
9.76685e-08
9.91505e-08
7.77136e-08
2.30729e-08
1.23935e-07
1.23136e-07
1.22367e-07
1.2133e-07
1.19999e-07
1.18445e-07
1.16832e-07
1.1523e-07
1.13733e-07
1.12337e-07
1.11083e-07
1.09936e-07
1.0892e-07
1.07993e-07
1.07175e-07
1.06426e-07
1.05765e-07
1.05156e-07
1.04618e-07
1.04119e-07
1.03677e-07
1.03264e-07
1.02898e-07
1.02554e-07
1.02247e-07
1.01957e-07
1.01698e-07
1.01453e-07
1.01233e-07
1.01023e-07
1.00834e-07
1.00654e-07
1.00491e-07
1.00336e-07
1.00193e-07
1.00058e-07
9.9933e-08
9.98155e-08
9.97049e-08
9.96023e-08
9.95036e-08
9.94135e-08
9.93256e-08
9.9246e-08
9.91669e-08
9.90968e-08
9.90252e-08
9.8964e-08
9.88985e-08
9.88445e-08
9.87842e-08
9.87363e-08
9.86787e-08
9.86371e-08
9.85852e-08
9.85474e-08
9.85001e-08
9.8466e-08
9.84236e-08
9.83926e-08
9.83527e-08
9.83234e-08
9.8287e-08
9.82601e-08
9.82257e-08
9.82006e-08
9.81696e-08
9.8147e-08
9.81182e-08
9.80962e-08
9.80685e-08
9.80477e-08
9.80224e-08
9.80043e-08
9.79812e-08
9.79653e-08
9.79439e-08
9.79287e-08
9.79076e-08
9.78924e-08
9.78714e-08
9.78564e-08
9.7836e-08
9.78211e-08
9.78007e-08
9.77851e-08
9.77655e-08
9.77477e-08
9.77248e-08
9.77091e-08
9.76843e-08
9.76529e-08
9.76743e-08
9.92216e-08
7.42797e-08
2.42254e-08
1.23935e-07
1.23135e-07
1.22367e-07
1.21335e-07
1.20013e-07
1.18467e-07
1.16861e-07
1.15264e-07
1.1377e-07
1.12375e-07
1.11122e-07
1.09975e-07
1.08959e-07
1.08031e-07
1.07212e-07
1.06461e-07
1.05799e-07
1.05189e-07
1.0465e-07
1.04149e-07
1.03706e-07
1.03292e-07
1.02924e-07
1.02579e-07
1.02271e-07
1.01981e-07
1.0172e-07
1.01474e-07
1.01253e-07
1.01043e-07
1.00853e-07
1.00672e-07
1.00508e-07
1.00352e-07
1.00209e-07
1.00074e-07
9.99479e-08
9.98298e-08
9.97188e-08
9.96157e-08
9.95165e-08
9.94259e-08
9.93377e-08
9.92576e-08
9.91781e-08
9.91077e-08
9.90357e-08
9.89743e-08
9.89084e-08
9.88542e-08
9.87935e-08
9.87454e-08
9.86876e-08
9.86456e-08
9.85935e-08
9.85554e-08
9.85079e-08
9.84736e-08
9.8431e-08
9.83998e-08
9.83597e-08
9.83303e-08
9.82937e-08
9.82667e-08
9.82321e-08
9.82069e-08
9.81757e-08
9.8153e-08
9.8124e-08
9.81019e-08
9.80741e-08
9.80532e-08
9.80278e-08
9.80096e-08
9.79863e-08
9.79703e-08
9.79487e-08
9.79335e-08
9.79122e-08
9.7897e-08
9.78758e-08
9.78608e-08
9.78402e-08
9.78253e-08
9.78047e-08
9.77891e-08
9.77695e-08
9.77519e-08
9.77287e-08
9.77133e-08
9.76886e-08
9.76575e-08
9.76805e-08
9.92959e-08
7.12082e-08
2.54411e-08
1.23935e-07
1.23133e-07
1.22367e-07
1.21341e-07
1.20027e-07
1.1849e-07
1.16891e-07
1.15299e-07
1.13809e-07
1.12416e-07
1.11164e-07
1.10016e-07
1.09e-07
1.08071e-07
1.07251e-07
1.06499e-07
1.05836e-07
1.05223e-07
1.04683e-07
1.04181e-07
1.03737e-07
1.03321e-07
1.02952e-07
1.02606e-07
1.02297e-07
1.02005e-07
1.01744e-07
1.01497e-07
1.01275e-07
1.01064e-07
1.00873e-07
1.00692e-07
1.00527e-07
1.0037e-07
1.00226e-07
1.0009e-07
9.99638e-08
9.98452e-08
9.97335e-08
9.96299e-08
9.95303e-08
9.94392e-08
9.93505e-08
9.92701e-08
9.91902e-08
9.91194e-08
9.9047e-08
9.89852e-08
9.8919e-08
9.88645e-08
9.88035e-08
9.87551e-08
9.8697e-08
9.86548e-08
9.86024e-08
9.85641e-08
9.85164e-08
9.84818e-08
9.8439e-08
9.84076e-08
9.83673e-08
9.83377e-08
9.83009e-08
9.82738e-08
9.8239e-08
9.82137e-08
9.81823e-08
9.81595e-08
9.81303e-08
9.81082e-08
9.80802e-08
9.80592e-08
9.80337e-08
9.80153e-08
9.79919e-08
9.79757e-08
9.7954e-08
9.79386e-08
9.79172e-08
9.79019e-08
9.78806e-08
9.78655e-08
9.78448e-08
9.78298e-08
9.78091e-08
9.77934e-08
9.77737e-08
9.77563e-08
9.7733e-08
9.77179e-08
9.76932e-08
9.76625e-08
9.76872e-08
9.93727e-08
6.84621e-08
2.67225e-08
1.23935e-07
1.23131e-07
1.22366e-07
1.21347e-07
1.20042e-07
1.18514e-07
1.16923e-07
1.15336e-07
1.13849e-07
1.12459e-07
1.11208e-07
1.1006e-07
1.09043e-07
1.08113e-07
1.07292e-07
1.06538e-07
1.05874e-07
1.0526e-07
1.04718e-07
1.04215e-07
1.03769e-07
1.03352e-07
1.02982e-07
1.02634e-07
1.02324e-07
1.02031e-07
1.01769e-07
1.01521e-07
1.01298e-07
1.01086e-07
1.00894e-07
1.00712e-07
1.00546e-07
1.00389e-07
1.00244e-07
1.00108e-07
9.99807e-08
9.98615e-08
9.97493e-08
9.96452e-08
9.9545e-08
9.94534e-08
9.93643e-08
9.92834e-08
9.9203e-08
9.91319e-08
9.9059e-08
9.89969e-08
9.89303e-08
9.88755e-08
9.88142e-08
9.87656e-08
9.87072e-08
9.86647e-08
9.8612e-08
9.85734e-08
9.85254e-08
9.84906e-08
9.84475e-08
9.8416e-08
9.83755e-08
9.83457e-08
9.83087e-08
9.82814e-08
9.82464e-08
9.82209e-08
9.81894e-08
9.81664e-08
9.81371e-08
9.81149e-08
9.80867e-08
9.80657e-08
9.804e-08
9.80215e-08
9.79979e-08
9.79816e-08
9.79596e-08
9.79442e-08
9.79226e-08
9.79072e-08
9.78858e-08
9.78706e-08
9.78497e-08
9.78347e-08
9.78138e-08
9.77981e-08
9.77782e-08
9.77611e-08
9.77376e-08
9.77228e-08
9.76982e-08
9.76679e-08
9.76943e-08
9.94509e-08
6.60099e-08
2.80715e-08
1.23935e-07
1.23129e-07
1.22366e-07
1.21353e-07
1.20058e-07
1.18539e-07
1.16956e-07
1.15375e-07
1.13892e-07
1.12503e-07
1.11253e-07
1.10106e-07
1.09088e-07
1.08157e-07
1.07335e-07
1.0658e-07
1.05914e-07
1.05299e-07
1.04756e-07
1.04251e-07
1.03804e-07
1.03385e-07
1.03014e-07
1.02664e-07
1.02353e-07
1.02059e-07
1.01796e-07
1.01547e-07
1.01323e-07
1.0111e-07
1.00917e-07
1.00734e-07
1.00567e-07
1.00409e-07
1.00264e-07
1.00126e-07
9.99987e-08
9.98789e-08
9.97661e-08
9.96614e-08
9.95607e-08
9.94686e-08
9.93789e-08
9.92976e-08
9.92168e-08
9.91452e-08
9.90719e-08
9.90095e-08
9.89424e-08
9.88873e-08
9.88256e-08