/*--------------------------------*- C++ -*----------------------------------*\
| =========                 |                                                 |
| \\      /  F ield         | OpenFOAM: The Open Source CFD Toolbox           |
|  \\    /   O peration     | Version:  v2012                                 |
|   \\  /    A nd           | Website:  www.openfoam.com                      |
|    \\/     M anipulation  |                                                 |
\*---------------------------------------------------------------------------*/
FoamFile
{
    version     2.0;
    format      ascii;
    class       volScalarField;
    location    "55";
    object      omega;
}
// * * * * * * * * * * * * * * * * * * * * * * * * * * * * * * * * * * * * * //

dimensions      [0 0 -1 0 0 0 0];


internalField   nonuniform List<scalar> 
209825
(
8261.78
7570.05
6999.48
6539.53
6174.17
5885.43
5655.34
5470.53
5319.6
5195.41
5091.35
5003.93
4929.05
4865.14
4809.36
4761.19
4718.46
4681.24
4647.74
4618.4
4591.62
4568.09
4546.33
4527.19
4509.26
4493.5
4478.55
4465.44
4452.83
4441.83
4431.11
4421.8
4412.62
4404.69
4396.76
4389.98
4383.11
4377.27
4371.27
4366.22
4360.99
4356.61
4351.99
4348.19
4344.14
4340.82
4337.24
4334.3
4331.16
4328.59
4325.83
4323.6
4321.24
4319.22
4317.12
4315.36
4313.5
4311.96
4310.28
4308.95
4307.53
4306.44
4305.14
4304.24
4303.13
4302.36
4301.34
4300.7
4299.83
4299.34
4298.6
4298.21
4297.59
4297.25
4296.65
4296.29
4295.71
4295.39
4294.88
4294.61
4294.17
4293.96
4293.57
4293.43
4293.1
4293.11
4293.04
4293.23
4293.23
4293.56
4293.56
4294.22
4294.95
4323.07
4431.37
113080
8261.78
7570.05
6999.48
6539.53
6174.16
5885.41
5655.31
5470.49
5319.55
5195.35
5091.28
5003.86
4928.97
4865.06
4809.28
4761.1
4718.37
4681.15
4647.64
4618.3
4591.51
4567.98
4546.22
4527.07
4509.14
4493.38
4478.44
4465.32
4452.71
4441.71
4430.99
4421.68
4412.5
4404.57
4396.64
4389.85
4382.98
4377.15
4371.15
4366.09
4360.87
4356.48
4351.86
4348.06
4344.01
4340.69
4337.11
4334.17
4331.03
4328.46
4325.7
4323.47
4321.11
4319.09
4316.98
4315.23
4313.37
4311.83
4310.15
4308.81
4307.4
4306.3
4305
4304.1
4302.99
4302.22
4301.2
4300.56
4299.69
4299.2
4298.47
4298.07
4297.45
4297.11
4296.52
4296.15
4295.57
4295.25
4294.74
4294.48
4294.03
4293.82
4293.43
4293.29
4292.96
4292.97
4292.9
4293.09
4293.09
4293.42
4293.42
4294.08
4294.81
4322.98
4431.27
109781
8261.78
7570.06
6999.49
6539.51
6174.11
5885.32
5655.19
5470.34
5319.37
5195.14
5091.05
5003.61
4928.71
4864.77
4808.98
4760.79
4718.05
4680.82
4647.3
4617.95
4591.16
4567.62
4545.86
4526.7
4508.76
4493
4478.05
4464.93
4452.32
4441.31
4430.59
4421.28
4412.09
4404.16
4396.22
4389.44
4382.56
4376.73
4370.73
4365.67
4360.44
4356.05
4351.43
4347.63
4343.58
4340.26
4336.67
4333.73
4330.6
4328.02
4325.26
4323.03
4320.67
4318.65
4316.54
4314.79
4312.92
4311.38
4309.7
4308.37
4306.95
4305.86
4304.55
4303.65
4302.54
4301.78
4300.76
4300.11
4299.24
4298.75
4298.02
4297.62
4297
4296.66
4296.06
4295.7
4295.12
4294.8
4294.28
4294.02
4293.58
4293.37
4292.98
4292.83
4292.5
4292.52
4292.44
4292.63
4292.63
4292.96
4292.96
4293.61
4294.36
4322.61
4430.9
105994
8261.78
7570.07
6999.49
6539.49
6174.03
5885.18
5654.99
5470.08
5319.06
5194.79
5090.66
5003.18
4928.25
4864.29
4808.47
4760.26
4717.5
4680.25
4646.72
4617.35
4590.55
4567
4545.23
4526.06
4508.12
4492.34
4477.39
4464.26
4451.64
4440.63
4429.9
4420.59
4411.39
4403.46
4395.52
4388.73
4381.85
4376.01
4370.01
4364.94
4359.72
4355.33
4350.7
4346.9
4342.84
4339.52
4335.93
4332.99
4329.85
4327.28
4324.52
4322.29
4319.92
4317.9
4315.79
4314.03
4312.17
4310.63
4308.95
4307.61
4306.19
4305.09
4303.79
4302.89
4301.78
4301.01
4299.99
4299.34
4298.47
4297.98
4297.25
4296.85
4296.23
4295.89
4295.29
4294.92
4294.34
4294.02
4293.51
4293.24
4292.8
4292.59
4292.2
4292.05
4291.73
4291.74
4291.66
4291.84
4291.84
4292.17
4292.17
4292.83
4293.57
4321.98
4430.24
102100
8261.78
7570.09
6999.5
6539.44
6173.91
5884.98
5654.7
5469.71
5318.61
5194.28
5090.09
5002.57
4927.59
4863.59
4807.74
4759.5
4716.71
4679.44
4645.89
4616.5
4589.68
4566.12
4544.33
4525.15
4507.19
4491.41
4476.44
4463.3
4450.68
4439.66
4428.92
4419.6
4410.4
4402.46
4394.51
4387.72
4380.83
4374.99
4368.98
4363.91
4358.68
4354.29
4349.66
4345.86
4341.8
4338.47
4334.88
4331.94
4328.79
4326.22
4323.45
4321.22
4318.85
4316.83
4314.71
4312.96
4311.09
4309.55
4307.86
4306.53
4305.11
4304.01
4302.7
4301.8
4300.69
4299.92
4298.89
4298.25
4297.37
4296.88
4296.15
4295.75
4295.13
4294.79
4294.19
4293.82
4293.24
4292.92
4292.4
4292.14
4291.69
4291.48
4291.09
4290.94
4290.62
4290.62
4290.54
4290.72
4290.72
4291.05
4291.05
4291.7
4292.45
4321.07
4429.3
98202.6
8261.78
7570.11
6999.51
6539.39
6173.75
5884.71
5654.32
5469.22
5318.04
5193.62
5089.36
5001.77
4926.74
4862.69
4806.79
4758.51
4715.69
4678.39
4644.81
4615.39
4588.55
4564.96
4543.16
4523.96
4505.99
4490.19
4475.21
4462.06
4449.42
4438.39
4427.64
4418.31
4409.1
4401.16
4393.2
4386.4
4379.51
4373.66
4367.64
4362.57
4357.33
4352.94
4348.3
4344.49
4340.43
4337.1
4333.51
4330.56
4327.41
4324.83
4322.06
4319.83
4317.45
4315.43
4313.31
4311.56
4309.69
4308.14
4306.46
4305.12
4303.69
4302.59
4301.29
4300.38
4299.26
4298.49
4297.47
4296.82
4295.95
4295.45
4294.72
4294.32
4293.69
4293.35
4292.75
4292.38
4291.8
4291.48
4290.96
4290.7
4290.25
4290.04
4289.64
4289.5
4289.17
4289.17
4289.08
4289.26
4289.26
4289.58
4289.58
4290.23
4290.99
4319.89
4428.09
94342.5
8261.78
7570.13
6999.52
6539.32
6173.56
5884.38
5653.85
5468.63
5317.32
5192.8
5088.45
5000.78
4925.68
4861.57
4805.62
4757.29
4714.42
4677.08
4643.47
4614.02
4587.15
4563.54
4541.71
4522.49
4504.5
4488.68
4473.68
4460.51
4447.86
4436.82
4426.06
4416.72
4407.5
4399.54
4391.58
4384.77
4377.87
4372.01
4365.99
4360.91
4355.66
4351.26
4346.62
4342.81
4338.74
4335.4
4331.8
4328.85
4325.7
4323.12
4320.34
4318.1
4315.73
4313.7
4311.58
4309.82
4307.95
4306.4
4304.71
4303.37
4301.94
4300.84
4299.53
4298.62
4297.5
4296.73
4295.7
4295.05
4294.18
4293.68
4292.94
4292.54
4291.91
4291.57
4290.97
4290.6
4290.02
4289.69
4289.18
4288.91
4288.46
4288.25
4287.85
4287.7
4287.38
4287.37
4287.28
4287.46
4287.46
4287.77
4287.77
4288.42
4289.19
4318.42
4426.58
90538.5
8261.78
7570.17
6999.53
6539.24
6173.34
5883.99
5653.29
5467.91
5316.47
5191.82
5087.37
4999.6
4924.42
4860.23
4804.21
4755.83
4712.91
4675.52
4641.86
4612.38
4585.48
4561.83
4539.97
4520.73
4502.71
4486.87
4471.85
4458.67
4446
4434.94
4424.17
4414.81
4405.58
4397.61
4389.63
4382.81
4375.9
4370.04
4364.01
4358.92
4353.67
4349.26
4344.61
4340.79
4336.71
4333.37
4329.77
4326.81
4323.65
4321.07
4318.29
4316.04
4313.66
4311.63
4309.51
4307.74
4305.86
4304.31
4302.62
4301.28
4299.85
4298.74
4297.43
4296.52
4295.4
4294.62
4293.59
4292.94
4292.06
4291.56
4290.82
4290.42
4289.79
4289.45
4288.84
4288.47
4287.89
4287.56
4287.04
4286.77
4286.32
4286.11
4285.71
4285.56
4285.23
4285.22
4285.12
4285.29
4285.29
4285.6
4285.6
4286.24
4287.03
4316.67
4424.8
86799.3
8261.78
7570.2
6999.55
6539.15
6173.08
5883.53
5652.64
5467.08
5315.47
5190.69
5086.1
4998.23
4922.94
4858.67
4802.58
4754.13
4711.14
4673.7
4640
4610.47
4583.52
4559.84
4537.95
4518.68
4500.63
4484.77
4469.72
4456.52
4443.83
4432.75
4421.96
4412.59
4403.34
4395.36
4387.37
4380.54
4373.61
4367.74
4361.69
4356.6
4351.33
4346.92
4342.26
4338.43
4334.35
4331
4327.39
4324.43
4321.26
4318.67
4315.89
4313.64
4311.25
4309.22
4307.09
4305.32
4303.43
4301.88
4300.18
4298.84
4297.4
4296.29
4294.98
4294.06
4292.94
4292.16
4291.13
4290.47
4289.59
4289.09
4288.34
4287.94
4287.31
4286.96
4286.36
4285.98
4285.4
4285.07
4284.55
4284.27
4283.82
4283.6
4283.2
4283.05
4282.73
4282.71
4282.6
4282.77
4282.77
4283.07
4283.07
4283.71
4284.5
4314.62
4422.73
83127.7
8261.78
7570.25
6999.57
6539.05
6172.78
5883.01
5651.89
5466.13
5314.34
5189.39
5084.66
4996.65
4921.26
4856.89
4800.71
4752.18
4709.12
4671.62
4637.86
4608.28
4581.29
4557.56
4535.63
4516.33
4498.25
4482.35
4467.28
4454.05
4441.34
4430.24
4419.43
4410.04
4400.77
4392.78
4384.77
4377.92
4370.99
4365.1
4359.04
4353.94
4348.66
4344.23
4339.57
4335.73
4331.64
4328.28
4324.67
4321.7
4318.52
4315.93
4313.13
4310.88
4308.49
4306.45
4304.31
4302.54
4300.65
4299.09
4297.39
4296.04
4294.6
4293.49
4292.16
4291.25
4290.12
4289.34
4288.3
4287.64
4286.75
4286.25
4285.5
4285.1
4284.46
4284.12
4283.51
4283.13
4282.54
4282.21
4281.69
4281.41
4280.96
4280.74
4280.33
4280.18
4279.86
4279.83
4279.71
4279.88
4279.88
4280.17
4280.17
4280.8
4281.61
4312.29
4420.38
79522.1
8261.78
7570.29
6999.59
6538.93
6172.44
5882.42
5651.06
5465.06
5313.06
5187.92
5083.03
4994.88
4919.36
4854.88
4798.59
4749.98
4706.84
4669.27
4635.44
4605.81
4578.76
4554.99
4533.02
4513.67
4495.55
4479.63
4464.53
4451.27
4438.53
4427.41
4416.57
4407.16
4397.87
4389.86
4381.83
4374.97
4368.02
4362.12
4356.05
4350.93
4345.64
4341.21
4336.53
4332.68
4328.58
4325.21
4321.59
4318.61
4315.43
4312.82
4310.02
4307.76
4305.36
4303.32
4301.17
4299.4
4297.5
4295.94
4294.23
4292.88
4291.43
4290.31
4288.99
4288.07
4286.93
4286.15
4285.11
4284.45
4283.55
4283.05
4282.29
4281.88
4281.25
4280.9
4280.29
4279.91
4279.32
4278.98
4278.46
4278.18
4277.72
4277.5
4277.09
4276.94
4276.61
4276.58
4276.45
4276.61
4276.61
4276.89
4276.89
4277.52
4278.35
4309.66
4417.74
75976.5
8261.77
7570.35
6999.62
6538.8
6172.07
5881.77
5650.13
5463.87
5311.63
5186.29
5081.21
4992.9
4917.24
4852.63
4796.24
4747.52
4704.3
4666.64
4632.74
4603.05
4575.94
4552.12
4530.09
4510.7
4492.55
4476.58
4461.45
4448.16
4435.39
4424.24
4413.38
4403.94
4394.63
4386.6
4378.56
4371.68
4364.71
4358.79
4352.71
4347.57
4342.27
4337.82
4333.13
4329.28
4325.16
4321.79
4318.15
4315.16
4311.97
4309.36
4306.55
4304.28
4301.87
4299.82
4297.67
4295.89
4293.99
4292.42
4290.71
4289.34
4287.89
4286.77
4285.44
4284.51
4283.37
4282.58
4281.54
4280.87
4279.98
4279.47
4278.71
4278.29
4277.66
4277.3
4276.69
4276.31
4275.72
4275.38
4274.85
4274.57
4274.1
4273.88
4273.47
4273.31
4272.98
4272.94
4272.81
4272.96
4272.95
4273.22
4273.22
4273.84
4274.7
4306.73
4414.83
72487.4
8261.77
7570.41
6999.65
6538.66
6171.66
5881.05
5649.1
5462.56
5310.06
5184.49
5079.21
4990.72
4914.89
4850.15
4793.63
4744.81
4701.48
4663.74
4629.76
4599.99
4572.82
4548.94
4526.86
4507.42
4489.22
4473.22
4458.04
4444.72
4431.92
4420.74
4409.85
4400.39
4391.05
4383
4374.93
4368.03
4361.04
4355.11
4349
4343.86
4338.54
4334.08
4329.37
4325.51
4321.38
4317.99
4314.34
4311.35
4308.15
4305.52
4302.71
4300.43
4298.01
4295.95
4293.79
4292
4290.1
4288.52
4286.8
4285.43
4283.97
4282.85
4281.51
4280.58
4279.43
4278.64
4277.59
4276.92
4276.02
4275.5
4274.74
4274.32
4273.68
4273.32
4272.71
4272.33
4271.73
4271.39
4270.85
4270.57
4270.1
4269.87
4269.46
4269.3
4268.97
4268.92
4268.77
4268.92
4268.91
4269.17
4269.16
4269.78
4270.66
4303.49
4411.64
69061.1
8261.77
7570.47
6999.68
6538.51
6171.22
5880.27
5647.99
5461.12
5308.34
5182.52
5077.01
4988.33
4912.33
4847.43
4790.78
4741.83
4698.4
4660.56
4626.49
4596.65
4569.4
4545.46
4523.32
4503.83
4485.57
4469.52
4454.3
4440.94
4428.1
4416.89
4405.97
4396.48
4387.12
4379.04
4370.95
4364.03
4357.02
4351.06
4344.94
4339.78
4334.44
4329.96
4325.24
4321.36
4317.22
4313.82
4310.16
4307.16
4303.95
4301.31
4298.48
4296.2
4293.77
4291.7
4289.54
4287.74
4285.82
4284.24
4282.51
4281.14
4279.67
4278.54
4277.19
4276.26
4275.1
4274.31
4273.25
4272.58
4271.67
4271.15
4270.38
4269.96
4269.31
4268.95
4268.33
4267.95
4267.35
4267
4266.46
4266.18
4265.7
4265.47
4265.05
4264.89
4264.56
4264.5
4264.34
4264.48
4264.47
4264.72
4264.71
4265.32
4266.22
4299.93
4408.18
65703.8
8261.77
7570.54
6999.72
6538.35
6170.74
5879.43
5646.77
5459.57
5306.47
5180.37
5074.62
4985.73
4909.54
4844.47
4787.67
4738.59
4695.04
4657.09
4622.93
4593
4565.67
4541.66
4519.45
4499.9
4481.59
4465.49
4450.23
4436.83
4423.95
4412.7
4401.74
4392.22
4382.83
4374.72
4366.6
4359.66
4352.63
4346.65
4340.51
4335.33
4329.97
4325.48
4320.74
4316.85
4312.69
4309.28
4305.61
4302.59
4299.36
4296.72
4293.88
4291.58
4289.14
4287.07
4284.89
4283.08
4281.16
4279.57
4277.83
4276.46
4274.97
4273.84
4272.48
4271.54
4270.38
4269.58
4268.52
4267.84
4266.92
4266.4
4265.63
4265.2
4264.55
4264.18
4263.56
4263.17
4262.57
4262.22
4261.67
4261.38
4260.9
4260.67
4260.25
4260.08
4259.74
4259.68
4259.51
4259.63
4259.62
4259.86
4259.85
4260.45
4261.38
4296.05
4404.45
62421
8261.76
7570.61
6999.76
6538.18
6170.23
5878.52
5645.46
5457.89
5304.46
5178.06
5072.04
4982.91
4906.51
4841.27
4784.3
4735.08
4691.4
4653.34
4619.07
4589.04
4561.63
4537.54
4515.26
4495.65
4477.28
4461.13
4445.81
4432.36
4419.44
4408.15
4397.16
4387.6
4378.18
4370.04
4361.89
4354.92
4347.86
4341.87
4335.7
4330.5
4325.13
4320.61
4315.86
4311.95
4307.77
4304.35
4300.66
4297.63
4294.39
4291.73
4288.88
4286.57
4284.12
4282.04
4279.85
4278.04
4276.1
4274.51
4272.76
4271.37
4269.88
4268.74
4267.38
4266.43
4265.26
4264.45
4263.38
4262.7
4261.78
4261.25
4260.47
4260.03
4259.38
4259.01
4258.38
4257.99
4257.38
4257.03
4256.48
4256.18
4255.7
4255.46
4255.03
4254.86
4254.52
4254.45
4254.26
4254.38
4254.36
4254.59
4254.57
4255.16
4256.13
4291.85
4400.45
59218
8261.76
7570.69
6999.8
6538
6169.68
5877.55
5644.06
5456.09
5302.29
5175.57
5069.26
4979.88
4903.26
4837.82
4780.67
4731.3
4687.47
4649.29
4614.91
4584.78
4557.28
4533.1
4510.75
4491.06
4472.63
4456.42
4441.04
4427.55
4414.57
4403.24
4392.21
4382.62
4373.16
4364.99
4356.81
4349.81
4342.72
4336.7
4330.51
4325.29
4319.89
4315.36
4310.59
4306.66
4302.47
4299.02
4295.32
4292.28
4289.02
4286.35
4283.49
4281.16
4278.7
4276.61
4274.41
4272.59
4270.64
4269.04
4267.28
4265.88
4264.38
4263.23
4261.86
4260.91
4259.73
4258.92
4257.84
4257.15
4256.22
4255.68
4254.89
4254.46
4253.79
4253.42
4252.79
4252.4
4251.78
4251.42
4250.87
4250.57
4250.08
4249.84
4249.4
4249.22
4248.88
4248.8
4248.6
4248.71
4248.69
4248.9
4248.87
4249.46
4250.46
4287.3
4396.19
56099.7
8261.76
7570.77
6999.85
6537.8
6169.1
5876.51
5642.57
5454.16
5299.97
5172.9
5066.29
4976.64
4899.77
4834.12
4776.78
4727.24
4683.26
4644.95
4610.44
4580.2
4552.6
4528.33
4505.9
4486.14
4467.63
4451.36
4435.92
4422.37
4409.35
4397.97
4386.89
4377.27
4367.76
4359.56
4351.35
4344.32
4337.2
4331.15
4324.94
4319.69
4314.27
4309.72
4304.92
4300.97
4296.76
4293.3
4289.58
4286.52
4283.25
4280.57
4277.69
4275.35
4272.88
4270.77
4268.56
4266.73
4264.77
4263.16
4261.39
4259.99
4258.47
4257.32
4255.93
4254.97
4253.78
4252.96
4251.88
4251.18
4250.24
4249.7
4248.9
4248.46
4247.79
4247.42
4246.78
4246.38
4245.76
4245.4
4244.83
4244.53
4244.03
4243.79
4243.35
4243.16
4242.81
4242.73
4242.51
4242.61
4242.59
4242.78
4242.75
4243.33
4244.37
4282.4
4391.66
53070.5
8261.75
7570.86
6999.9
6537.6
6168.48
5875.41
5640.98
5452.11
5297.5
5170.06
5063.11
4973.17
4896.05
4830.17
4772.63
4722.9
4678.76
4640.3
4605.66
4575.31
4547.6
4523.24
4500.71
4480.87
4462.29
4445.94
4430.45
4416.84
4403.76
4392.33
4381.21
4371.54
4361.99
4353.75
4345.5
4338.44
4331.29
4325.22
4318.97
4313.7
4308.25
4303.68
4298.86
4294.89
4290.65
4287.18
4283.44
4280.36
4277.07
4274.38
4271.48
4269.13
4266.64
4264.53
4262.3
4260.45
4258.48
4256.86
4255.08
4253.67
4252.14
4250.98
4249.58
4248.61
4247.41
4246.59
4245.49
4244.79
4243.84
4243.29
4242.49
4242.04
4241.36
4240.98
4240.34
4239.94
4239.31
4238.94
4238.38
4238.07
4237.56
4237.31
4236.86
4236.67
4236.32
4236.23
4236
4236.08
4236.05
4236.23
4236.19
4236.76
4237.85
4277.13
4386.84
50134.6
8261.75
7570.96
6999.96
6537.39
6167.83
5874.25
5639.29
5449.93
5294.88
5167.04
5059.74
4969.49
4892.09
4825.96
4768.2
4718.29
4673.97
4635.36
4600.58
4570.1
4542.27
4517.8
4495.18
4475.25
4456.59
4440.17
4424.61
4410.94
4397.8
4386.32
4375.14
4365.42
4355.83
4347.56
4339.27
4332.17
4324.99
4318.88
4312.6
4307.3
4301.83
4297.23
4292.39
4288.39
4284.14
4280.64
4276.88
4273.79
4270.48
4267.77
4264.86
4262.49
4259.98
4257.86
4255.61
4253.76
4251.77
4250.14
4248.35
4246.93
4245.39
4244.22
4242.81
4241.83
4240.62
4239.79
4238.68
4237.97
4237.01
4236.46
4235.64
4235.19
4234.5
4234.12
4233.47
4233.06
4232.43
4232.06
4231.48
4231.17
4230.65
4230.4
4229.94
4229.75
4229.39
4229.29
4229.04
4229.12
4229.08
4229.24
4229.19
4229.75
4230.88
4271.48
4381.7
47295.7
8261.74
7571.06
7000.02
6537.17
6167.15
5873.02
5637.51
5447.63
5292.11
5163.84
5056.17
4965.58
4887.89
4821.5
4763.51
4713.39
4668.89
4630.11
4595.17
4564.56
4536.61
4512.03
4489.3
4469.28
4450.53
4434.04
4418.4
4404.66
4391.46
4379.93
4368.69
4358.93
4349.29
4340.97
4332.64
4325.51
4318.28
4312.14
4305.83
4300.5
4295
4290.37
4285.5
4281.49
4277.21
4273.69
4269.91
4266.8
4263.47
4260.75
4257.81
4255.43
4252.9
4250.77
4248.5
4246.64
4244.63
4243
4241.19
4239.76
4238.2
4237.02
4235.6
4234.61
4233.39
4232.55
4231.43
4230.72
4229.75
4229.18
4228.36
4227.9
4227.21
4226.82
4226.16
4225.75
4225.1
4224.73
4224.14
4223.82
4223.31
4223.04
4222.58
4222.38
4222.01
4221.9
4221.64
4221.71
4221.66
4221.81
4221.75
4222.3
4223.47
4265.43
4376.22
44557.3
8261.73
7571.16
7000.09
6536.95
6166.44
5871.74
5635.64
5445.21
5289.18
5160.47
5052.39
4961.45
4883.45
4816.79
4758.54
4708.2
4663.5
4624.55
4589.45
4558.7
4530.61
4505.92
4483.07
4462.96
4444.11
4427.54
4411.82
4398.01
4384.74
4373.15
4361.85
4352.04
4342.35
4333.98
4325.61
4318.43
4311.17
4305
4298.65
4293.29
4287.75
4283.1
4278.2
4274.16
4269.86
4266.32
4262.52
4259.38
4256.04
4253.29
4250.34
4247.94
4245.39
4243.24
4240.96
4239.08
4237.06
4235.41
4233.59
4232.15
4230.58
4229.39
4227.95
4226.96
4225.72
4224.87
4223.75
4223.02
4222.04
4221.47
4220.63
4220.16
4219.46
4219.07
4218.4
4217.98
4217.33
4216.95
4216.36
4216.03
4215.51
4215.24
4214.77
4214.56
4214.18
4214.07
4213.79
4213.84
4213.79
4213.92
4213.85
4214.39
4215.61
4258.96
4370.36
41922.5
8261.72
7571.27
7000.16
6536.71
6165.7
5870.39
5633.68
5442.67
5286.1
5156.91
5048.42
4957.1
4878.76
4811.81
4753.3
4702.73
4657.82
4618.68
4583.41
4552.5
4524.27
4499.45
4476.49
4456.28
4437.33
4420.67
4404.86
4390.98
4377.64
4365.98
4354.62
4344.75
4335.01
4326.59
4318.17
4310.96
4303.65
4297.44
4291.06
4285.66
4280.09
4275.41
4270.48
4266.42
4262.08
4258.52
4254.69
4251.54
4248.17
4245.4
4242.43
4240.01
4237.44
4235.28
4232.98
4231.09
4229.05
4227.39
4225.55
4224.1
4222.51
4221.31
4219.86
4218.85
4217.6
4216.75
4215.61
4214.87
4213.88
4213.3
4212.46
4211.98
4211.27
4210.86
4210.19
4209.77
4209.11
4208.72
4208.12
4207.79
4207.25
4206.98
4206.5
4206.28
4205.9
4205.77
4205.49
4205.52
4205.45
4205.57
4205.49
4206.02
4207.29
4252.05
4364.11
39393.9
8261.71
7571.38
7000.23
6536.48
6164.92
5868.99
5631.63
5440
5282.88
5153.18
5044.24
4952.53
4873.84
4806.57
4747.79
4696.97
4651.83
4612.49
4577.04
4545.97
4517.59
4492.64
4469.56
4449.23
4430.18
4413.42
4397.53
4383.57
4370.15
4358.42
4347
4337.07
4327.26
4318.8
4310.32
4303.07
4295.71
4289.46
4283.04
4277.61
4272
4267.29
4262.33
4258.24
4253.88
4250.29
4246.43
4243.26
4239.86
4237.08
4234.08
4231.64
4229.05
4226.87
4224.56
4222.65
4220.59
4218.92
4217.06
4215.6
4213.99
4212.78
4211.32
4210.3
4209.03
4208.17
4207.02
4206.27
4205.27
4204.68
4203.82
4203.33
4202.61
4202.2
4201.52
4201.1
4200.43
4200.03
4199.42
4199.08
4198.54
4198.25
4197.76
4197.54
4197.15
4197.02
4196.72
4196.74
4196.66
4196.76
4196.66
4197.18
4198.51
4244.66
4357.42
36974
8261.7
7571.5
7000.32
6536.23
6164.12
5867.53
5629.49
5437.22
5279.5
5149.28
5039.86
4947.73
4868.67
4801.07
4742
4690.91
4645.54
4605.99
4570.35
4539.11
4510.57
4485.48
4462.26
4441.81
4422.65
4405.8
4389.81
4375.76
4362.26
4350.46
4338.97
4328.98
4319.11
4310.59
4302.06
4294.76
4287.36
4281.06
4274.6
4269.13
4263.49
4258.74
4253.75
4249.62
4245.23
4241.62
4237.73
4234.54
4231.11
4228.31
4225.28
4222.83
4220.22
4218.02
4215.68
4213.76
4211.68
4210
4208.12
4206.64
4205.02
4203.8
4202.32
4201.28
4200
4199.13
4197.96
4197.21
4196.19
4195.59
4194.72
4194.23
4193.5
4193.08
4192.39
4191.96
4191.28
4190.88
4190.26
4189.91
4189.35
4189.06
4188.56
4188.33
4187.93
4187.79
4187.48
4187.48
4187.39
4187.47
4187.35
4187.86
4189.25
4236.78
4350.27
34664.8
8261.69
7571.62
7000.41
6535.98
6163.3
5866.01
5627.26
5434.31
5275.97
5145.19
5035.28
4942.71
4863.25
4795.31
4735.92
4684.56
4638.94
4599.17
4563.33
4531.9
4503.2
4477.96
4454.6
4434.03
4414.75
4397.79
4381.7
4367.57
4353.98
4342.1
4330.53
4320.48
4310.55
4301.97
4293.38
4286.03
4278.57
4272.24
4265.73
4260.22
4254.53
4249.76
4244.72
4240.57
4236.14
4232.5
4228.59
4225.37
4221.92
4219.09
4216.04
4213.56
4210.93
4208.71
4206.35
4204.41
4202.31
4200.61
4198.72
4197.23
4195.58
4194.35
4192.85
4191.81
4190.51
4189.62
4188.45
4187.68
4186.65
4186.04
4185.16
4184.65
4183.91
4183.48
4182.78
4182.35
4181.66
4181.25
4180.62
4180.27
4179.7
4179.4
4178.89
4178.65
4178.24
4178.09
4177.77
4177.75
4177.65
4177.71
4177.57
4178.07
4179.52
4228.36
4342.61
32468.2
8261.68
7571.75
7000.5
6535.73
6162.45
5864.44
5624.95
5431.29
5272.3
5140.93
5030.49
4937.47
4857.59
4789.29
4729.57
4677.92
4632.04
4592.03
4555.97
4524.36
4495.48
4470.08
4446.57
4425.87
4406.47
4389.4
4373.2
4358.97
4345.29
4333.34
4321.69
4311.56
4301.56
4292.93
4284.28
4276.87
4269.36
4262.98
4256.42
4250.88
4245.14
4240.33
4235.26
4231.07
4226.61
4222.94
4219
4215.75
4212.27
4209.41
4206.34
4203.84
4201.18
4198.94
4196.56
4194.6
4192.48
4190.77
4188.86
4187.35
4185.68
4184.43
4182.92
4181.86
4180.55
4179.65
4178.46
4177.68
4176.64
4176.01
4175.12
4174.6
4173.85
4173.41
4172.7
4172.26
4171.56
4171.14
4170.5
4170.14
4169.56
4169.25
4168.73
4168.49
4168.07
4167.91
4167.58
4167.54
4167.42
4167.46
4167.3
4167.8
4169.3
4219.36
4334.41
30385.6
8261.67
7571.88
7000.6
6535.47
6161.57
5862.82
5622.55
5428.15
5268.47
5136.5
5025.51
4932
4851.69
4783.01
4722.94
4670.99
4624.83
4584.57
4548.29
4516.47
4487.41
4461.84
4438.18
4417.34
4397.8
4380.62
4364.31
4349.98
4336.21
4324.17
4312.43
4302.23
4292.16
4283.46
4274.75
4267.28
4259.72
4253.29
4246.68
4241.09
4235.31
4230.46
4225.35
4221.12
4216.63
4212.92
4208.95
4205.67
4202.16
4199.28
4196.18
4193.65
4190.96
4188.71
4186.3
4184.33
4182.19
4180.45
4178.52
4177
4175.31
4174.05
4172.52
4171.44
4170.11
4169.2
4167.99
4167.2
4166.14
4165.51
4164.6
4164.07
4163.3
4162.86
4162.14
4161.69
4160.98
4160.56
4159.9
4159.53
4158.94
4158.62
4158.09
4157.83
4157.4
4157.23
4156.89
4156.84
4156.7
4156.73
4156.54
4157.03
4158.59
4209.76
4325.63
28418.4
8261.65
7572.01
7000.71
6535.21
6160.67
5861.14
5620.06
5424.9
5264.51
5131.89
5020.33
4926.31
4845.55
4776.46
4716.03
4663.76
4617.3
4576.79
4540.27
4508.24
4478.98
4453.24
4429.41
4408.43
4388.75
4371.44
4355.02
4340.59
4326.71
4314.58
4302.76
4292.48
4282.33
4273.56
4264.78
4257.26
4249.64
4243.15
4236.49
4230.86
4225.03
4220.14
4214.98
4210.72
4206.19
4202.45
4198.44
4195.13
4191.59
4188.68
4185.55
4183
4180.28
4178.01
4175.57
4173.58
4171.41
4169.67
4167.71
4166.17
4164.46
4163.18
4161.63
4160.54
4159.19
4158.27
4157.04
4156.24
4155.17
4154.52
4153.59
4153.05
4152.27
4151.82
4151.09
4150.63
4149.91
4149.48
4148.81
4148.43
4147.83
4147.5
4146.96
4146.69
4146.25
4146.07
4145.71
4145.65
4145.5
4145.5
4145.29
4145.76
4147.39
4199.53
4316.24
26567.8
8261.64
7572.15
7000.82
6534.95
6159.75
5859.42
5617.5
5421.53
5260.4
5127.12
5014.95
4920.4
4839.16
4769.65
4708.84
4656.23
4609.47
4568.69
4531.91
4499.67
4470.2
4444.27
4420.28
4399.14
4379.32
4361.88
4345.33
4330.79
4316.8
4304.58
4292.67
4282.31
4272.08
4263.24
4254.39
4246.8
4239.11
4232.57
4225.86
4220.17
4214.3
4209.36
4204.16
4199.86
4195.28
4191.51
4187.47
4184.13
4180.55
4177.62
4174.45
4171.88
4169.13
4166.84
4164.37
4162.36
4160.16
4158.4
4156.42
4154.87
4153.13
4151.84
4150.26
4149.16
4147.79
4146.85
4145.61
4144.8
4143.7
4143.04
4142.1
4141.55
4140.75
4140.29
4139.55
4139.08
4138.35
4137.91
4137.23
4136.84
4136.22
4135.89
4135.33
4135.05
4134.59
4134.4
4134.04
4133.96
4133.79
4133.77
4133.53
4134
4135.68
4188.7
4306.19
24835
8261.62
7572.29
7000.94
6534.69
6158.81
5857.65
5614.86
5418.06
5256.15
5122.17
5009.37
4914.27
4832.53
4762.58
4701.37
4648.41
4601.33
4560.26
4523.22
4490.74
4461.06
4434.94
4410.76
4389.46
4369.49
4351.92
4335.24
4320.58
4306.48
4294.16
4282.15
4271.7
4261.39
4252.48
4243.55
4235.9
4228.15
4221.55
4214.77
4209.04
4203.11
4198.13
4192.88
4188.54
4183.92
4180.11
4176.03
4172.66
4169.04
4166.08
4162.88
4160.28
4157.5
4155.18
4152.69
4150.65
4148.43
4146.65
4144.65
4143.07
4141.31
4140
4138.41
4137.29
4135.89
4134.94
4133.68
4132.86
4131.74
4131.07
4130.11
4129.55
4128.74
4128.27
4127.51
4127.03
4126.29
4125.83
4125.14
4124.74
4124.11
4123.77
4123.2
4122.91
4122.44
4122.24
4121.86
4121.76
4121.58
4121.54
4121.27
4121.73
4123.47
4177.24
4295.44
23220.8
8261.6
7572.43
7001.06
6534.43
6157.85
5855.83
5612.15
5414.48
5251.76
5117.05
5003.61
4907.92
4825.66
4755.24
4693.62
4640.29
4592.87
4551.51
4514.2
4481.48
4451.56
4425.24
4400.88
4379.41
4359.28
4341.56
4324.74
4309.96
4295.75
4283.32
4271.21
4260.67
4250.27
4241.28
4232.27
4224.56
4216.73
4210.07
4203.24
4197.45
4191.46
4186.44
4181.14
4176.75
4172.09
4168.24
4164.12
4160.71
4157.06
4154.07
4150.83
4148.2
4145.39
4143.05
4140.52
4138.47
4136.22
4134.41
4132.38
4130.79
4129
4127.68
4126.06
4124.92
4123.51
4122.54
4121.26
4120.42
4119.29
4118.6
4117.62
4117.04
4116.22
4115.74
4114.97
4114.48
4113.72
4113.26
4112.56
4112.14
4111.5
4111.14
4110.56
4110.26
4109.77
4109.56
4109.17
4109.05
4108.86
4108.8
4108.49
4108.94
4110.74
4165.16
4283.97
21721
8261.58
7572.57
7001.2
6534.17
6156.88
5853.98
5609.36
5410.79
5247.24
5111.78
4997.65
4901.35
4818.55
4747.65
4685.6
4631.88
4584.11
4542.43
4504.84
4471.86
4441.71
4415.18
4390.61
4368.97
4348.67
4330.8
4313.84
4298.94
4284.6
4272.06
4259.84
4249.21
4238.71
4229.64
4220.56
4212.76
4204.87
4198.15
4191.24
4185.4
4179.35
4174.28
4168.93
4164.5
4159.79
4155.9
4151.73
4148.29
4144.6
4141.57
4138.3
4135.64
4132.79
4130.43
4127.87
4125.79
4123.51
4121.68
4119.63
4118.02
4116.2
4114.86
4113.21
4112.06
4110.62
4109.64
4108.34
4107.48
4106.33
4105.62
4104.63
4104.04
4103.2
4102.7
4101.92
4101.42
4100.65
4100.18
4099.46
4099.04
4098.38
4098.01
4097.41
4097.1
4096.6
4096.37
4095.96
4095.84
4095.63
4095.54
4095.2
4095.65
4097.49
4152.45
4271.74
20330.8
8261.56
7572.72
7001.33
6533.91
6155.89
5852.08
5606.51
5407
5242.59
5106.34
4991.5
4894.57
4811.2
4739.81
4677.3
4623.17
4575.04
4533.04
4495.14
4461.9
4431.5
4404.75
4379.97
4358.14
4337.67
4319.64
4302.53
4287.5
4273.03
4260.38
4248.05
4237.32
4226.72
4217.56
4208.39
4200.52
4192.55
4185.76
4178.79
4172.89
4166.78
4161.65
4156.25
4151.77
4147.01
4143.08
4138.87
4135.39
4131.65
4128.59
4125.29
4122.59
4119.71
4117.32
4114.72
4112.62
4110.31
4108.46
4106.38
4104.75
4102.9
4101.54
4099.87
4098.69
4097.23
4096.23
4094.91
4094.04
4092.87
4092.14
4091.13
4090.53
4089.67
4089.16
4088.36
4087.85
4087.07
4086.58
4085.85
4085.42
4084.74
4084.36
4083.75
4083.42
4082.91
4082.67
4082.24
4082.1
4081.88
4081.77
4081.39
4081.83
4083.72
4139.12
4258.7
19045.3
8261.54
7572.87
7001.48
6533.66
6154.89
5850.15
5603.59
5403.12
5237.8
5100.74
4985.16
4887.58
4803.62
4731.7
4668.72
4614.18
4565.66
4523.32
4485.11
4451.59
4420.93
4393.95
4368.96
4346.93
4326.27
4308.09
4290.82
4275.64
4261.04
4248.27
4235.82
4224.99
4214.29
4205.04
4195.78
4187.83
4179.78
4172.92
4165.88
4159.92
4153.74
4148.56
4143.1
4138.57
4133.76
4129.78
4125.52
4122
4118.23
4115.13
4111.78
4109.05
4106.13
4103.71
4101.09
4098.96
4096.61
4094.74
4092.63
4090.98
4089.1
4087.71
4086.02
4084.83
4083.34
4082.32
4080.98
4080.09
4078.9
4078.16
4077.12
4076.5
4075.63
4075.11
4074.29
4073.77
4072.97
4072.48
4071.72
4071.28
4070.59
4070.2
4069.57
4069.23
4068.7
4068.45
4068
4067.84
4067.6
4067.48
4067.06
4067.49
4069.43
4125.17
4244.84
17859.3
8261.51
7573.02
7001.63
6533.41
6153.88
5848.19
5600.6
5399.14
5232.9
5094.99
4978.65
4880.39
4795.81
4723.35
4659.87
4604.9
4555.98
4513.28
4474.75
4440.93
4410
4382.78
4357.56
4335.34
4314.49
4296.13
4278.69
4263.38
4248.63
4235.74
4223.16
4212.22
4201.42
4192.07
4182.72
4174.69
4166.55
4159.62
4152.5
4146.48
4140.23
4135
4129.47
4124.9
4120.02
4116.01
4111.69
4108.14
4104.31
4101.18
4097.79
4095.03
4092.06
4089.62
4086.95
4084.8
4082.42
4080.52
4078.38
4076.7
4074.8
4073.39
4071.67
4070.45
4068.94
4067.9
4066.53
4065.63
4064.41
4063.66
4062.6
4061.96
4061.07
4060.54
4059.7
4059.17
4058.35
4057.85
4057.08
4056.62
4055.91
4055.51
4054.86
4054.51
4053.96
4053.7
4053.24
4053.06
4052.8
4052.66
4052.2
4052.62
4054.6
4110.58
4230.12
16767.3
8261.49
7573.18
7001.79
6533.16
6152.86
5846.19
5597.56
5395.08
5227.87
5089.09
4971.95
4872.99
4787.77
4714.75
4650.76
4595.33
4546
4502.93
4464.05
4429.93
4398.72
4371.25
4345.79
4323.36
4302.31
4283.77
4266.16
4250.69
4235.8
4222.78
4210.08
4199.02
4188.1
4178.66
4169.21
4161.09
4152.87
4145.86
4138.66
4132.57
4126.26
4120.96
4115.37
4110.74
4105.81
4101.75
4097.38
4093.78
4089.91
4086.74
4083.31
4080.51
4077.5
4075.02
4072.32
4070.13
4067.72
4065.8
4063.62
4061.92
4059.98
4058.55
4056.8
4055.57
4054.02
4052.97
4051.58
4050.65
4049.41
4048.64
4047.56
4046.91
4045.99
4045.45
4044.59
4044.05
4043.22
4042.7
4041.91
4041.44
4040.72
4040.3
4039.63
4039.27
4038.7
4038.42
4037.95
4037.75
4037.47
4037.32
4036.81
4037.23
4039.23
4095.37
4214.5
15763.5
8261.46
7573.33
7001.96
6532.92
6151.84
5844.17
5594.46
5390.93
5222.73
5083.04
4965.09
4865.39
4779.51
4705.9
4641.38
4585.47
4535.71
4492.26
4453.03
4418.59
4387.08
4359.35
4333.65
4310.99
4289.73
4271.01
4253.23
4237.6
4222.55
4209.39
4196.56
4185.39
4174.35
4164.81
4155.25
4147.04
4138.72
4131.64
4124.36
4118.2
4111.81
4106.45
4100.8
4096.11
4091.12
4087
4082.59
4078.94
4075.02
4071.81
4068.33
4065.49
4062.44
4059.93
4057.18
4054.97
4052.52
4050.57
4048.36
4046.64
4044.66
4043.21
4041.43
4040.17
4038.6
4037.52
4036.1
4035.16
4033.9
4033.11
4032.01
4031.33
4030.4
4029.83
4028.96
4028.41
4027.56
4027.03
4026.22
4025.74
4024.99
4024.56
4023.88
4023.5
4022.91
4022.62
4022.12
4021.91
4021.61
4021.44
4020.9
4021.3
4023.33
4079.52
4197.98
14842.1
8261.43
7573.49
7002.13
6532.69
6150.81
5842.12
5591.31
5386.7
5217.47
5076.85
4958.05
4857.59
4771.03
4696.81
4631.74
4575.34
4525.13
4481.27
4441.67
4406.91
4375.1
4347.09
4321.13
4298.25
4276.77
4257.86
4239.89
4224.09
4208.88
4195.58
4182.61
4171.31
4160.15
4150.5
4140.84
4132.54
4124.12
4116.95
4109.59
4103.35
4096.89
4091.46
4085.74
4081
4075.95
4071.78
4067.3
4063.61
4059.64
4056.38
4052.85
4049.98
4046.88