/*--------------------------------*- C++ -*----------------------------------*\
| =========                 |                                                 |
| \\      /  F ield         | OpenFOAM: The Open Source CFD Toolbox           |
|  \\    /   O peration     | Version:  v2012                                 |
|   \\  /    A nd           | Website:  www.openfoam.com                      |
|    \\/     M anipulation  |                                                 |
\*---------------------------------------------------------------------------*/
FoamFile
{
    version     2.0;
    format      ascii;
    class       volScalarField;
    location    "9";
    object      yPlus;
}
// * * * * * * * * * * * * * * * * * * * * * * * * * * * * * * * * * * * * * //

dimensions      [0 0 0 0 0 0 0];


internalField   uniform 0;

boundaryField
{
    inlet
    {
        type            calculated;
        value           uniform 0;
    }
    outlet
    {
        type            calculated;
        value           uniform 0;
    }
    topWall
    {
        type            calculated;
        value           nonuniform List<scalar> 
545
(
0.0627146
0.108326
0.138906
0.163219
0.183785
0.201762
0.217802
0.232313
0.245574
0.257786
0.269098
0.279627
0.289467
0.298692
0.307365
0.315538
0.323257
0.330559
0.337478
0.344044
0.350282
0.356216
0.361867
0.367252
0.37239
0.377295
0.381981
0.386462
0.390748
0.394851
0.398781
0.402547
0.406158
0.409622
0.412947
0.416138
0.419203
0.422149
0.424979
0.427701
0.43032
0.432839
0.435263
0.437598
0.439845
0.442011
0.444097
0.446108
0.448047
0.449916
0.451719
0.453458
0.455136
0.456755
0.458319
0.459828
0.461286
0.462694
0.464054
0.465368
0.466638
0.467865
0.469051
0.470198
0.471307
0.47238
0.473417
0.474421
0.475392
0.476331
0.47724
0.478121
0.478961
0.479772
0.480576
0.481372
0.48216
0.48294
0.483713
0.484479
0.485237
0.485988
0.486731
0.487468
0.488197
0.48892
0.489636
0.490344
0.491046
0.491742
0.49243
0.493113
0.493788
0.494458
0.495121
0.495778
0.496365
0.49689
0.497413
0.497936
0.498458
0.498979
0.4995
0.500019
0.500538
0.501056
0.501572
0.502089
0.502604
0.503118
0.503632
0.504144
0.504656
0.505167
0.505677
0.506186
0.506694
0.507201
0.507707
0.508213
0.508717
0.50922
0.509723
0.510224
0.510725
0.511224
0.511723
0.51222
0.512717
0.513212
0.513706
0.5142
0.514692
0.515183
0.515674
0.516163
0.516651
0.517138
0.517624
0.518108
0.518592
0.519075
0.519556
0.520036
0.520515
0.520993
0.52147
0.521946
0.52242
0.522893
0.523365
0.523836
0.524306
0.524774
0.525241
0.525707
0.526172
0.526636
0.527098
0.527559
0.528018
0.528476
0.528933
0.529389
0.529843
0.530296
0.530748
0.531198
0.531647
0.532095
0.532541
0.532986
0.533429
0.533871
0.534312
0.534751
0.535189
0.535625
0.53606
0.536493
0.536925
0.537356
0.537785
0.538212
0.538638
0.539062
0.539485
0.539907
0.540326
0.540745
0.541161
0.541576
0.54199
0.542402
0.542812
0.54322
0.543627
0.544033
0.544436
0.544838
0.545239
0.545638
0.546035
0.54643
0.546823
0.547215
0.547605
0.547994
0.54838
0.548765
0.549148
0.54953
0.549909
0.550287
0.550663
0.551037
0.551409
0.551779
0.552148
0.552515
0.552879
0.553242
0.553603
0.553962
0.55432
0.554675
0.555028
0.55538
0.555729
0.556076
0.556422
0.556765
0.557107
0.557446
0.557784
0.558119
0.558452
0.558784
0.559113
0.55944
0.559765
0.560088
0.560409
0.560728
0.561044
0.561359
0.561671
0.561981
0.562289
0.562595
0.562899
0.5632
0.563499
0.563796
0.564091
0.564383
0.564674
0.564961
0.565247
0.565531
0.565812
0.56609
0.566367
0.566641
0.566913
0.567182
0.567449
0.567714
0.567977
0.56822
0.568448
0.568676
0.568904
0.569132
0.569361
0.569589
0.569817
0.570046
0.570274
0.570502
0.57073
0.570958
0.571185
0.571412
0.571638
0.571864
0.57209
0.572315
0.572539
0.572762
0.572985
0.573206
0.573427
0.573647
0.573865
0.574082
0.574298
0.574513
0.574726
0.574938
0.575148
0.575356
0.575563
0.575767
0.57597
0.576171
0.576369
0.576565
0.576759
0.57695
0.577138
0.577324
0.577507
0.577687
0.577864
0.578038
0.578208
0.578376
0.578539
0.578699
0.578855
0.579007
0.579155
0.579299
0.579438
0.579573
0.579703
0.579829
0.579949
0.580065
0.580175
0.58028
0.580379
0.580473
0.58056
0.580642
0.580718
0.580787
0.580849
0.580905
0.580954
0.580995
0.58103
0.581057
0.581076
0.581088
0.581092
0.581087
0.581074
0.581052
0.581022
0.580983
0.580934
0.580876
0.580808
0.580731
0.580644
0.580546
0.580438
0.580319
0.58019
0.580049
0.579897
0.579734
0.579559
0.579371
0.579172
0.578961
0.578736
0.578499
0.578249
0.577986
0.577709
0.577419
0.577114
0.576796
0.576463
0.576115
0.575753
0.575376
0.574983
0.574575
0.574152
0.573713
0.573257
0.572786
0.572298
0.571793
0.571271
0.570733
0.570177
0.569604
0.569013
0.568404
0.567778
0.567133
0.56647
0.565789
0.565089
0.564371
0.563634
0.562877
0.562102
0.561307
0.560493
0.559659
0.558806
0.557934
0.557041
0.556129
0.555197
0.554245
0.553273
0.552281
0.551269
0.550236
0.549184
0.548112
0.547019
0.545907
0.544774
0.543622
0.542449
0.541257
0.540045
0.538813
0.537561
0.53629
0.535
0.53369
0.532361
0.531013
0.529647
0.528262
0.526858
0.525437
0.523997
0.52254
0.521065
0.519573
0.518064
0.516538
0.514997
0.513439
0.511865
0.510276
0.508672
0.507053
0.505421
0.503773
0.501931
0.499902
0.497882
0.495871
0.493869
0.491878
0.489898
0.487929
0.485973
0.48403
0.482099
0.480183
0.478281
0.476394
0.474523
0.472666
0.470826
0.469003
0.467196
0.465406
0.463634
0.461879
0.460143
0.458424
0.456725
0.455044
0.453382
0.451739
0.450115
0.448512
0.446928
0.445364
0.44382
0.442296
0.440793
0.439311
0.43785
0.436409
0.43499
0.433591
0.432214
0.430859
0.429525
0.428213
0.426923
0.425655
0.424409
0.423185
0.421984
0.420805
0.419649
0.418516
0.417405
0.416317
0.415253
0.414211
0.413193
0.412199
0.411228
0.41028
0.409357
0.408457
0.407581
0.40673
0.405903
0.4051
0.404322
0.403568
0.402839
0.402135
0.401456
0.400802
0.400174
0.39957
0.398992
0.398439
0.397912
0.397411
0.396935
0.396486
0.396062
0.395664
0.395293
0.394947
0.394628
0.394335
0.394069
0.393829
0.393615
0.393428
0.393267
0.393133
0.393023
0.392949
0.392864
)
;
    }
    bottomWall
    {
        type            calculated;
        value           nonuniform List<scalar> 
449
(
0.139694
0.0891033
0.0759341
0.0695548
0.0653699
0.0622464
0.0597593
0.057709
0.0559772
0.0544862
0.0531834
0.0520322
0.0510054
0.0500823
0.0492465
0.0484853
0.0477883
0.0471471
0.0465547
0.0460052
0.045494
0.0450167
0.0445699
0.0441506
0.043756
0.043384
0.0430326
0.0426999
0.0423843
0.0420846
0.0417995
0.0415279
0.0412687
0.0410211
0.0407844
0.0405577
0.0403403
0.0401318
0.0399315
0.0397389
0.0395536
0.0393752
0.0392032
0.0390373
0.0388772
0.0387225
0.038573
0.0384283
0.0382884
0.0381528
0.0380215
0.0378941
0.0377706
0.0376507
0.0375343
0.0374212
0.0373113
0.0372044
0.0371005
0.0369993
0.0369008
0.0368049
0.0367114
0.0366203
0.0365315
0.0364448
0.0363603
0.0362778
0.0361972
0.0361186
0.0360417
0.0359666
0.0358932
0.0358214
0.0357512
0.0356826
0.0356154
0.0355496
0.0354852
0.0354222
0.0353604
0.0352999
0.0352407
0.0351826
0.0351256
0.0350697
0.035015
0.0349612
0.0349085
0.0348568
0.0348061
0.0347562
0.0347073
0.0346593
0.0346121
0.0345657
0.0345202
0.0344754
0.0344315
0.0343882
0.0343457
0.0343039
0.0342629
0.0342224
0.0341827
0.0341436
0.0341051
0.0340672
0.03403
0.0339933
0.0339572
0.0339216
0.0338866
0.0338522
0.0338182
0.0337848
0.0337518
0.0337194
0.0336874
0.0336558
0.0336248
0.0335942
0.033564
0.0335342
0.0335049
0.033476
0.0334474
0.0334193
0.0333915
0.0333642
0.0333371
0.0333105
0.0332842
0.0332583
0.0332326
0.0332074
0.0331824
0.0331578
0.0331335
0.0331095
0.0330858
0.0330624
0.0330393
0.0330165
0.0329939
0.0329717
0.0329497
0.032928
0.0329065
0.0328853
0.0328643
0.0328436
0.0328232
0.0328029
0.032783
0.0327632
0.0327437
0.0327244
0.0327053
0.0326864
0.0326678
0.0326493
0.0326311
0.0326131
0.0325952
0.0325776
0.0325602
0.0325429
0.0325259
0.032509
0.0324924
0.032476
0.0324597
0.0324442
0.0324298
0.0324157
0.0324017
0.0323877
0.0323737
0.0323598
0.0323458
0.0323318
0.0323178
0.0323037
0.0322897
0.0322756
0.0322614
0.0322473
0.0322331
0.0322189
0.0322047
0.0321905
0.0321762
0.032162
0.0321477
0.0321335
0.0321192
0.0321049
0.0320906
0.0320763
0.032062
0.0320477
0.0320334
0.0320192
0.0320049
0.0319906
0.0319764
0.0319621
0.0319479
0.0319336
0.0319194
0.0319052
0.031891
0.0318769
0.0318627
0.0318486
0.0318345
0.0318204
0.0318063
0.0317923
0.0317783
0.0317643
0.0317504
0.0317364
0.0317225
0.0317087
0.0316949
0.0316811
0.0316673
0.0316536
0.0316399
0.0316262
0.0316126
0.031599
0.0315855
0.031572
0.0315585
0.0315451
0.0315317
0.0315184
0.0315051
0.0314919
0.0314787
0.0314656
0.0314525
0.0314394
0.0314264
0.0314135
0.0314006
0.0313877
0.0313749
0.0313622
0.0313495
0.0313369
0.0313243
0.0313118
0.0312993
0.0312869
0.0312745
0.0312622
0.03125
0.0312378
0.0312257
0.0312136
0.0312016
0.0311896
0.0311777
0.0311659
0.0311541
0.0311424
0.0311308
0.0311192
0.0311077
0.0310962
0.0310848
0.0310735
0.0310622
0.031051
0.0310399
0.0310288
0.0310178
0.0310068
0.0309959
0.0309851
0.0309743
0.0309637
0.030953
0.0309425
0.030932
0.0309215
0.0309112
0.0309009
0.0308907
0.0308805
0.0308704
0.0308604
0.0308504
0.0308405
0.0308307
0.0308209
0.0308112
0.0308016
0.030792
0.0307825
0.0307731
0.0307638
0.0307545
0.0307452
0.0307361
0.030727
0.030718
0.030709
0.0307001
0.0306913
0.0306825
0.0306738
0.0306652
0.0306566
0.0306481
0.0306397
0.0306313
0.030623
0.0306148
0.0306066
0.0305985
0.0305905
0.0305825
0.0305746
0.0305667
0.030559
0.0305512
0.0305436
0.030536
0.0305285
0.030521
0.0305136
0.0305063
0.030499
0.0304918
0.0304846
0.0304775
0.0304705
0.0304635
0.0304566
0.0304498
0.030443
0.0304362
0.0304296
0.030423
0.0304164
0.0304099
0.0304034
0.030397
0.0303907
0.0303832
0.030375
0.030367
0.0303592
0.0303517
0.0303446
0.0303377
0.030331
0.0303245
0.0303182
0.0303122
0.0303063
0.0303005
0.0302949
0.0302895
0.0302842
0.0302791
0.0302741
0.0302692
0.0302644
0.0302598
0.0302553
0.0302508
0.0302465
0.0302423
0.0302382
0.0302342
0.0302302
0.0302264
0.0302226
0.0302189
0.0302153
0.0302118
0.0302083
0.0302049
0.0302016
0.0301984
0.0301952
0.0301921
0.0301891
0.0301861
0.0301831
0.0301803
0.0301774
0.0301747
0.030172
0.0301693
0.0301667
0.0301641
0.0301616
0.0301592
0.0301567
0.0301544
0.030152
0.0301497
0.0301475
0.0301452
0.0301431
0.0301409
0.0301388
0.0301368
0.0301347
0.0301327
0.0301308
0.0301288
0.0301269
0.0301251
0.0301232
0.0301214
0.0301196
0.0301179
0.0301162
0.0301145
0.0301128
0.0301111
0.0301095
0.0301079
0.0301063
0.0301048
0.0301033
0.0301018
0.0301003
0.0300988
0.0300974
0.030096
0.0300946
0.0300932
0.0300918
0.0300904
0.0300891
0.0300877
0.0300865
0.0300839
0.0300864
0.0300817
)
;
    }
    symmetry
    {
        type            symmetryPlane;
    }
    frontAndBack
    {
        type            empty;
    }
}


// ************************************************************************* //
