/*--------------------------------*- C++ -*----------------------------------*\
| =========                 |                                                 |
| \\      /  F ield         | OpenFOAM: The Open Source CFD Toolbox           |
|  \\    /   O peration     | Version:  v2012                                 |
|   \\  /    A nd           | Website:  www.openfoam.com                      |
|    \\/     M anipulation  |                                                 |
\*---------------------------------------------------------------------------*/
FoamFile
{
    version     2.0;
    format      ascii;
    class       volScalarField;
    location    "27.5";
    object      nut;
}
// * * * * * * * * * * * * * * * * * * * * * * * * * * * * * * * * * * * * * //

dimensions      [0 2 -1 0 0 0 0];


internalField   nonuniform List<scalar> 
209825
(
1.23833e-07
1.23025e-07
1.22914e-07
1.23226e-07
1.23708e-07
1.24213e-07
1.24696e-07
1.25129e-07
1.25523e-07
1.25868e-07
1.26183e-07
1.26457e-07
1.2671e-07
1.2693e-07
1.27135e-07
1.27313e-07
1.27483e-07
1.27629e-07
1.27769e-07
1.27891e-07
1.2801e-07
1.28111e-07
1.28212e-07
1.28298e-07
1.28385e-07
1.28458e-07
1.28532e-07
1.28596e-07
1.2866e-07
1.28715e-07
1.28771e-07
1.28819e-07
1.28871e-07
1.28912e-07
1.28956e-07
1.28991e-07
1.29032e-07
1.29065e-07
1.29101e-07
1.29129e-07
1.29164e-07
1.29191e-07
1.29216e-07
1.29241e-07
1.2927e-07
1.29287e-07
1.29311e-07
1.29328e-07
1.29351e-07
1.2937e-07
1.29388e-07
1.29402e-07
1.29423e-07
1.29438e-07
1.2945e-07
1.29464e-07
1.29479e-07
1.29481e-07
1.29489e-07
1.295e-07
1.29505e-07
1.29521e-07
1.29529e-07
1.2956e-07
1.29579e-07
1.29605e-07
1.29624e-07
1.29657e-07
1.29673e-07
1.29701e-07
1.29718e-07
1.29739e-07
1.29756e-07
1.29779e-07
1.29795e-07
1.29813e-07
1.29831e-07
1.29848e-07
1.29868e-07
1.29883e-07
1.29904e-07
1.29925e-07
1.29943e-07
1.29966e-07
1.29984e-07
1.30012e-07
1.30031e-07
1.30065e-07
1.30088e-07
1.30131e-07
1.30158e-07
1.30218e-07
1.30255e-07
1.31402e-07
1.35569e-07
1.56591e-08
1.23833e-07
1.23025e-07
1.22914e-07
1.23225e-07
1.23708e-07
1.24212e-07
1.24696e-07
1.25129e-07
1.25523e-07
1.25868e-07
1.26183e-07
1.26457e-07
1.2671e-07
1.26929e-07
1.27135e-07
1.27313e-07
1.27483e-07
1.27629e-07
1.27769e-07
1.27891e-07
1.28009e-07
1.28111e-07
1.28212e-07
1.28298e-07
1.28385e-07
1.28458e-07
1.28532e-07
1.28596e-07
1.2866e-07
1.28715e-07
1.28771e-07
1.28819e-07
1.28871e-07
1.28912e-07
1.28956e-07
1.28991e-07
1.29032e-07
1.29065e-07
1.29101e-07
1.29129e-07
1.29164e-07
1.29191e-07
1.29216e-07
1.29242e-07
1.2927e-07
1.29288e-07
1.29311e-07
1.29328e-07
1.29351e-07
1.2937e-07
1.29388e-07
1.29402e-07
1.29423e-07
1.29439e-07
1.2945e-07
1.29464e-07
1.29479e-07
1.29481e-07
1.29489e-07
1.295e-07
1.29505e-07
1.29521e-07
1.29529e-07
1.2956e-07
1.29579e-07
1.29605e-07
1.29624e-07
1.29657e-07
1.29673e-07
1.29701e-07
1.29718e-07
1.29739e-07
1.29756e-07
1.29779e-07
1.29795e-07
1.29813e-07
1.29831e-07
1.29848e-07
1.29868e-07
1.29883e-07
1.29904e-07
1.29925e-07
1.29943e-07
1.29967e-07
1.29984e-07
1.30012e-07
1.30032e-07
1.30065e-07
1.30089e-07
1.30131e-07
1.30158e-07
1.30218e-07
1.30255e-07
1.31404e-07
1.3557e-07
1.61353e-08
1.23833e-07
1.23025e-07
1.22913e-07
1.23224e-07
1.23706e-07
1.2421e-07
1.24693e-07
1.25126e-07
1.2552e-07
1.25865e-07
1.2618e-07
1.26454e-07
1.26707e-07
1.26926e-07
1.27132e-07
1.2731e-07
1.2748e-07
1.27626e-07
1.27766e-07
1.27888e-07
1.28007e-07
1.28108e-07
1.28209e-07
1.28296e-07
1.28382e-07
1.28455e-07
1.28529e-07
1.28593e-07
1.28657e-07
1.28713e-07
1.28769e-07
1.28817e-07
1.28868e-07
1.2891e-07
1.28953e-07
1.28988e-07
1.29029e-07
1.29063e-07
1.29098e-07
1.29126e-07
1.29161e-07
1.29188e-07
1.29213e-07
1.29239e-07
1.29268e-07
1.29285e-07
1.29309e-07
1.29326e-07
1.29348e-07
1.29367e-07
1.29385e-07
1.294e-07
1.29421e-07
1.29436e-07
1.29448e-07
1.29461e-07
1.29476e-07
1.29479e-07
1.29487e-07
1.29498e-07
1.29502e-07
1.29519e-07
1.29526e-07
1.29557e-07
1.29577e-07
1.29603e-07
1.29621e-07
1.29654e-07
1.29671e-07
1.29699e-07
1.29716e-07
1.29736e-07
1.29753e-07
1.29776e-07
1.29793e-07
1.29811e-07
1.29829e-07
1.29846e-07
1.29865e-07
1.29881e-07
1.29902e-07
1.29922e-07
1.29941e-07
1.29964e-07
1.29982e-07
1.30009e-07
1.30029e-07
1.30062e-07
1.30086e-07
1.30129e-07
1.30155e-07
1.30216e-07
1.30252e-07
1.31406e-07
1.35571e-07
1.67264e-08
1.23833e-07
1.23024e-07
1.22912e-07
1.23222e-07
1.23703e-07
1.24207e-07
1.24689e-07
1.25122e-07
1.25516e-07
1.25861e-07
1.26176e-07
1.2645e-07
1.26702e-07
1.26922e-07
1.27128e-07
1.27306e-07
1.27475e-07
1.27621e-07
1.27762e-07
1.27883e-07
1.28002e-07
1.28104e-07
1.28205e-07
1.28291e-07
1.28378e-07
1.28451e-07
1.28525e-07
1.28589e-07
1.28653e-07
1.28709e-07
1.28765e-07
1.28813e-07
1.28864e-07
1.28906e-07
1.28949e-07
1.28984e-07
1.29025e-07
1.29059e-07
1.29094e-07
1.29123e-07
1.29157e-07
1.29184e-07
1.29209e-07
1.29235e-07
1.29264e-07
1.29281e-07
1.29305e-07
1.29322e-07
1.29345e-07
1.29364e-07
1.29382e-07
1.29396e-07
1.29417e-07
1.29432e-07
1.29444e-07
1.29458e-07
1.29473e-07
1.29475e-07
1.29483e-07
1.29494e-07
1.29499e-07
1.29515e-07
1.29523e-07
1.29554e-07
1.29573e-07
1.29599e-07
1.29618e-07
1.2965e-07
1.29667e-07
1.29695e-07
1.29712e-07
1.29733e-07
1.2975e-07
1.29773e-07
1.29789e-07
1.29807e-07
1.29825e-07
1.29842e-07
1.29862e-07
1.29877e-07
1.29898e-07
1.29919e-07
1.29937e-07
1.2996e-07
1.29978e-07
1.30006e-07
1.30025e-07
1.30059e-07
1.30082e-07
1.30125e-07
1.30151e-07
1.30212e-07
1.30249e-07
1.3141e-07
1.35571e-07
1.73821e-08
1.23833e-07
1.23024e-07
1.2291e-07
1.23218e-07
1.23699e-07
1.24202e-07
1.24684e-07
1.25116e-07
1.2551e-07
1.25855e-07
1.2617e-07
1.26444e-07
1.26696e-07
1.26916e-07
1.27122e-07
1.273e-07
1.27469e-07
1.27616e-07
1.27756e-07
1.27878e-07
1.27997e-07
1.28099e-07
1.28199e-07
1.28286e-07
1.28372e-07
1.28446e-07
1.2852e-07
1.28583e-07
1.28648e-07
1.28703e-07
1.28759e-07
1.28807e-07
1.28859e-07
1.289e-07
1.28944e-07
1.28979e-07
1.2902e-07
1.29054e-07
1.29089e-07
1.29117e-07
1.29152e-07
1.29179e-07
1.29204e-07
1.2923e-07
1.29259e-07
1.29276e-07
1.293e-07
1.29317e-07
1.2934e-07
1.29359e-07
1.29377e-07
1.29391e-07
1.29412e-07
1.29427e-07
1.29439e-07
1.29453e-07
1.29468e-07
1.2947e-07
1.29478e-07
1.29489e-07
1.29494e-07
1.2951e-07
1.29518e-07
1.29549e-07
1.29568e-07
1.29594e-07
1.29613e-07
1.29645e-07
1.29662e-07
1.2969e-07
1.29707e-07
1.29728e-07
1.29745e-07
1.29768e-07
1.29784e-07
1.29802e-07
1.2982e-07
1.29837e-07
1.29857e-07
1.29872e-07
1.29893e-07
1.29914e-07
1.29932e-07
1.29956e-07
1.29973e-07
1.30001e-07
1.30021e-07
1.30054e-07
1.30078e-07
1.3012e-07
1.30146e-07
1.30207e-07
1.30244e-07
1.31415e-07
1.35573e-07
1.80929e-08
1.23834e-07
1.23023e-07
1.22907e-07
1.23214e-07
1.23693e-07
1.24195e-07
1.24677e-07
1.25109e-07
1.25503e-07
1.25848e-07
1.26162e-07
1.26436e-07
1.26689e-07
1.26909e-07
1.27114e-07
1.27292e-07
1.27462e-07
1.27608e-07
1.27749e-07
1.2787e-07
1.27989e-07
1.28091e-07
1.28192e-07
1.28279e-07
1.28365e-07
1.28439e-07
1.28513e-07
1.28576e-07
1.28641e-07
1.28696e-07
1.28753e-07
1.288e-07
1.28852e-07
1.28894e-07
1.28937e-07
1.28973e-07
1.29014e-07
1.29047e-07
1.29082e-07
1.29111e-07
1.29145e-07
1.29173e-07
1.29198e-07
1.29224e-07
1.29252e-07
1.2927e-07
1.29294e-07
1.2931e-07
1.29333e-07
1.29352e-07
1.2937e-07
1.29385e-07
1.29406e-07
1.29421e-07
1.29433e-07
1.29447e-07
1.29462e-07
1.29464e-07
1.29472e-07
1.29483e-07
1.29488e-07
1.29504e-07
1.29512e-07
1.29543e-07
1.29562e-07
1.29588e-07
1.29607e-07
1.29639e-07
1.29656e-07
1.29684e-07
1.29701e-07
1.29722e-07
1.29739e-07
1.29762e-07
1.29778e-07
1.29796e-07
1.29814e-07
1.29831e-07
1.29851e-07
1.29866e-07
1.29887e-07
1.29908e-07
1.29926e-07
1.2995e-07
1.29968e-07
1.29995e-07
1.30015e-07
1.30048e-07
1.30072e-07
1.30114e-07
1.3014e-07
1.30201e-07
1.30238e-07
1.31421e-07
1.35574e-07
1.88571e-08
1.23834e-07
1.23022e-07
1.22904e-07
1.23209e-07
1.23686e-07
1.24188e-07
1.24669e-07
1.251e-07
1.25494e-07
1.25839e-07
1.26153e-07
1.26427e-07
1.2668e-07
1.26899e-07
1.27105e-07
1.27283e-07
1.27453e-07
1.27599e-07
1.2774e-07
1.27862e-07
1.27981e-07
1.28083e-07
1.28184e-07
1.2827e-07
1.28357e-07
1.2843e-07
1.28505e-07
1.28568e-07
1.28633e-07
1.28688e-07
1.28744e-07
1.28792e-07
1.28845e-07
1.28886e-07
1.28929e-07
1.28965e-07
1.29006e-07
1.29039e-07
1.29075e-07
1.29103e-07
1.29138e-07
1.29165e-07
1.2919e-07
1.29216e-07
1.29245e-07
1.29262e-07
1.29286e-07
1.29303e-07
1.29326e-07
1.29345e-07
1.29363e-07
1.29378e-07
1.29398e-07
1.29414e-07
1.29426e-07
1.29439e-07
1.29454e-07
1.29457e-07
1.29465e-07
1.29476e-07
1.29481e-07
1.29497e-07
1.29505e-07
1.29535e-07
1.29554e-07
1.29581e-07
1.29599e-07
1.29632e-07
1.29649e-07
1.29676e-07
1.29694e-07
1.29714e-07
1.29731e-07
1.29755e-07
1.29771e-07
1.29789e-07
1.29807e-07
1.29824e-07
1.29844e-07
1.29859e-07
1.2988e-07
1.29901e-07
1.29919e-07
1.29943e-07
1.29961e-07
1.29988e-07
1.30008e-07
1.30041e-07
1.30064e-07
1.30107e-07
1.30133e-07
1.30194e-07
1.3023e-07
1.3143e-07
1.35577e-07
1.96749e-08
1.23835e-07
1.23022e-07
1.22901e-07
1.23203e-07
1.23678e-07
1.24178e-07
1.24659e-07
1.2509e-07
1.25484e-07
1.25828e-07
1.26142e-07
1.26416e-07
1.26669e-07
1.26889e-07
1.27095e-07
1.27273e-07
1.27443e-07
1.27589e-07
1.2773e-07
1.27852e-07
1.27971e-07
1.28073e-07
1.28174e-07
1.2826e-07
1.28347e-07
1.28421e-07
1.28495e-07
1.28559e-07
1.28623e-07
1.28679e-07
1.28735e-07
1.28783e-07
1.28835e-07
1.28877e-07
1.2892e-07
1.28956e-07
1.28997e-07
1.2903e-07
1.29066e-07
1.29094e-07
1.29129e-07
1.29156e-07
1.29181e-07
1.29207e-07
1.29236e-07
1.29254e-07
1.29277e-07
1.29294e-07
1.29317e-07
1.29336e-07
1.29355e-07
1.29369e-07
1.2939e-07
1.29405e-07
1.29417e-07
1.29431e-07
1.29446e-07
1.29449e-07
1.29457e-07
1.29468e-07
1.29472e-07
1.29489e-07
1.29496e-07
1.29527e-07
1.29546e-07
1.29572e-07
1.29591e-07
1.29624e-07
1.2964e-07
1.29668e-07
1.29685e-07
1.29706e-07
1.29723e-07
1.29746e-07
1.29762e-07
1.29781e-07
1.29799e-07
1.29816e-07
1.29835e-07
1.29851e-07
1.29872e-07
1.29893e-07
1.29911e-07
1.29934e-07
1.29952e-07
1.2998e-07
1.29999e-07
1.30033e-07
1.30056e-07
1.30098e-07
1.30125e-07
1.30185e-07
1.30222e-07
1.31441e-07
1.3558e-07
2.05471e-08
1.23835e-07
1.23021e-07
1.22896e-07
1.23196e-07
1.23669e-07
1.24168e-07
1.24648e-07
1.25078e-07
1.25471e-07
1.25815e-07
1.2613e-07
1.26404e-07
1.26657e-07
1.26876e-07
1.27082e-07
1.27261e-07
1.27431e-07
1.27577e-07
1.27718e-07
1.2784e-07
1.27959e-07
1.28061e-07
1.28162e-07
1.28249e-07
1.28336e-07
1.28409e-07
1.28484e-07
1.28548e-07
1.28612e-07
1.28668e-07
1.28724e-07
1.28772e-07
1.28825e-07
1.28866e-07
1.28909e-07
1.28945e-07
1.28986e-07
1.2902e-07
1.29055e-07
1.29084e-07
1.29119e-07
1.29146e-07
1.29171e-07
1.29197e-07
1.29226e-07
1.29244e-07
1.29267e-07
1.29284e-07
1.29307e-07
1.29326e-07
1.29345e-07
1.29359e-07
1.2938e-07
1.29396e-07
1.29408e-07
1.29421e-07
1.29437e-07
1.29439e-07
1.29447e-07
1.29458e-07
1.29463e-07
1.29479e-07
1.29487e-07
1.29517e-07
1.29536e-07
1.29562e-07
1.29581e-07
1.29614e-07
1.2963e-07
1.29658e-07
1.29675e-07
1.29696e-07
1.29713e-07
1.29737e-07
1.29753e-07
1.29771e-07
1.29789e-07
1.29807e-07
1.29826e-07
1.29842e-07
1.29863e-07
1.29883e-07
1.29902e-07
1.29925e-07
1.29943e-07
1.2997e-07
1.2999e-07
1.30023e-07
1.30047e-07
1.30089e-07
1.30115e-07
1.30176e-07
1.30212e-07
1.31454e-07
1.35585e-07
2.14744e-08
1.23836e-07
1.23019e-07
1.22892e-07
1.23188e-07
1.23659e-07
1.24156e-07
1.24635e-07
1.25065e-07
1.25457e-07
1.25801e-07
1.26116e-07
1.26389e-07
1.26643e-07
1.26862e-07
1.27068e-07
1.27247e-07
1.27417e-07
1.27563e-07
1.27705e-07
1.27826e-07
1.27946e-07
1.28048e-07
1.28149e-07
1.28236e-07
1.28323e-07
1.28397e-07
1.28471e-07
1.28535e-07
1.286e-07
1.28656e-07
1.28712e-07
1.2876e-07
1.28812e-07
1.28854e-07
1.28898e-07
1.28933e-07
1.28975e-07
1.29008e-07
1.29044e-07
1.29072e-07
1.29107e-07
1.29134e-07
1.2916e-07
1.29186e-07
1.29215e-07
1.29232e-07
1.29256e-07
1.29273e-07
1.29296e-07
1.29315e-07
1.29334e-07
1.29348e-07
1.29369e-07
1.29385e-07
1.29397e-07
1.2941e-07
1.29426e-07
1.29428e-07
1.29437e-07
1.29448e-07
1.29452e-07
1.29468e-07
1.29476e-07
1.29506e-07
1.29525e-07
1.29551e-07
1.2957e-07
1.29603e-07
1.29619e-07
1.29647e-07
1.29664e-07
1.29685e-07
1.29702e-07
1.29726e-07
1.29742e-07
1.29761e-07
1.29778e-07
1.29796e-07
1.29815e-07
1.29831e-07
1.29852e-07
1.29873e-07
1.29891e-07
1.29914e-07
1.29932e-07
1.2996e-07
1.29979e-07
1.30012e-07
1.30036e-07
1.30078e-07
1.30104e-07
1.30165e-07
1.30202e-07
1.31469e-07
1.3559e-07
2.24567e-08
1.23837e-07
1.23018e-07
1.22886e-07
1.23179e-07
1.23647e-07
1.24142e-07
1.2462e-07
1.25049e-07
1.25442e-07
1.25786e-07
1.261e-07
1.26374e-07
1.26627e-07
1.26847e-07
1.27053e-07
1.27231e-07
1.27401e-07
1.27548e-07
1.27689e-07
1.27811e-07
1.27931e-07
1.28033e-07
1.28135e-07
1.28222e-07
1.28309e-07
1.28382e-07
1.28457e-07
1.28521e-07
1.28586e-07
1.28642e-07
1.28698e-07
1.28747e-07
1.28799e-07
1.28841e-07
1.28884e-07
1.2892e-07
1.28961e-07
1.28995e-07
1.29031e-07
1.29059e-07
1.29094e-07
1.29122e-07
1.29147e-07
1.29173e-07
1.29202e-07
1.2922e-07
1.29244e-07
1.29261e-07
1.29284e-07
1.29303e-07
1.29321e-07
1.29336e-07
1.29357e-07
1.29372e-07
1.29385e-07
1.29398e-07
1.29414e-07
1.29417e-07
1.29425e-07
1.29436e-07
1.2944e-07
1.29456e-07
1.29464e-07
1.29494e-07
1.29513e-07
1.29539e-07
1.29558e-07
1.29591e-07
1.29607e-07
1.29635e-07
1.29652e-07
1.29673e-07
1.2969e-07
1.29714e-07
1.2973e-07
1.29749e-07
1.29766e-07
1.29784e-07
1.29803e-07
1.29819e-07
1.2984e-07
1.29861e-07
1.29879e-07
1.29902e-07
1.29921e-07
1.29948e-07
1.29967e-07
1.3e-07
1.30024e-07
1.30066e-07
1.30092e-07
1.30153e-07
1.30189e-07
1.31487e-07
1.35596e-07
2.34925e-08
1.23837e-07
1.23017e-07
1.22881e-07
1.23169e-07
1.23634e-07
1.24127e-07
1.24604e-07
1.25033e-07
1.25425e-07
1.25768e-07
1.26082e-07
1.26356e-07
1.26609e-07
1.26829e-07
1.27035e-07
1.27214e-07
1.27384e-07
1.27531e-07
1.27673e-07
1.27795e-07
1.27914e-07
1.28017e-07
1.28119e-07
1.28206e-07
1.28293e-07
1.28367e-07
1.28442e-07
1.28506e-07
1.28571e-07
1.28627e-07
1.28683e-07
1.28731e-07
1.28784e-07
1.28826e-07
1.28869e-07
1.28905e-07
1.28947e-07
1.2898e-07
1.29016e-07
1.29045e-07
1.2908e-07
1.29107e-07
1.29133e-07
1.29159e-07
1.29188e-07
1.29206e-07
1.2923e-07
1.29247e-07
1.2927e-07
1.29289e-07
1.29308e-07
1.29322e-07
1.29343e-07
1.29359e-07
1.29371e-07
1.29385e-07
1.294e-07
1.29403e-07
1.29411e-07
1.29423e-07
1.29427e-07
1.29443e-07
1.2945e-07
1.29481e-07
1.29499e-07
1.29526e-07
1.29545e-07
1.29577e-07
1.29593e-07
1.29621e-07
1.29638e-07
1.2966e-07
1.29677e-07
1.29701e-07
1.29717e-07
1.29735e-07
1.29753e-07
1.29771e-07
1.2979e-07
1.29806e-07
1.29827e-07
1.29848e-07
1.29866e-07
1.29889e-07
1.29907e-07
1.29935e-07
1.29954e-07
1.29987e-07
1.30011e-07
1.30053e-07
1.30079e-07
1.30139e-07
1.30176e-07
1.31508e-07
1.35604e-07
2.45804e-08
1.23838e-07
1.23015e-07
1.22874e-07
1.23158e-07
1.2362e-07
1.24111e-07
1.24586e-07
1.25014e-07
1.25405e-07
1.25749e-07
1.26063e-07
1.26336e-07
1.2659e-07
1.2681e-07
1.27016e-07
1.27195e-07
1.27366e-07
1.27513e-07
1.27654e-07
1.27776e-07
1.27896e-07
1.27999e-07
1.28101e-07
1.28188e-07
1.28275e-07
1.28349e-07
1.28424e-07
1.28488e-07
1.28554e-07
1.2861e-07
1.28666e-07
1.28715e-07
1.28767e-07
1.28809e-07
1.28853e-07
1.28889e-07
1.28931e-07
1.28964e-07
1.29e-07
1.29029e-07
1.29064e-07
1.29092e-07
1.29117e-07
1.29143e-07
1.29172e-07
1.2919e-07
1.29214e-07
1.29232e-07
1.29255e-07
1.29274e-07
1.29292e-07
1.29307e-07
1.29328e-07
1.29344e-07
1.29356e-07
1.2937e-07
1.29386e-07
1.29389e-07
1.29397e-07
1.29408e-07
1.29413e-07
1.29428e-07
1.29436e-07
1.29466e-07
1.29484e-07
1.29511e-07
1.2953e-07
1.29562e-07
1.29578e-07
1.29606e-07
1.29623e-07
1.29645e-07
1.29662e-07
1.29686e-07
1.29702e-07
1.29721e-07
1.29739e-07
1.29756e-07
1.29776e-07
1.29792e-07
1.29813e-07
1.29833e-07
1.29852e-07
1.29875e-07
1.29893e-07
1.2992e-07
1.2994e-07
1.29973e-07
1.29996e-07
1.30038e-07
1.30064e-07
1.30125e-07
1.30162e-07
1.31532e-07
1.35612e-07
2.57232e-08
1.23839e-07
1.23013e-07
1.22867e-07
1.23146e-07
1.23604e-07
1.24093e-07
1.24567e-07
1.24993e-07
1.25385e-07
1.25727e-07
1.26042e-07
1.26315e-07
1.26569e-07
1.26789e-07
1.26995e-07
1.27174e-07
1.27345e-07
1.27492e-07
1.27634e-07
1.27756e-07
1.27877e-07
1.27979e-07
1.28081e-07
1.28168e-07
1.28256e-07
1.2833e-07
1.28405e-07
1.2847e-07
1.28535e-07
1.28591e-07
1.28648e-07
1.28697e-07
1.28749e-07
1.28791e-07
1.28835e-07
1.28871e-07
1.28913e-07
1.28947e-07
1.28983e-07
1.29012e-07
1.29047e-07
1.29074e-07
1.291e-07
1.29126e-07
1.29155e-07
1.29173e-07
1.29198e-07
1.29215e-07
1.29238e-07
1.29257e-07
1.29276e-07
1.29291e-07
1.29312e-07
1.29328e-07
1.2934e-07
1.29354e-07
1.29369e-07
1.29373e-07
1.29381e-07
1.29392e-07
1.29397e-07
1.29412e-07
1.2942e-07
1.2945e-07
1.29468e-07
1.29494e-07
1.29514e-07
1.29546e-07
1.29562e-07
1.2959e-07
1.29607e-07
1.29628e-07
1.29646e-07
1.2967e-07
1.29686e-07
1.29705e-07
1.29723e-07
1.29741e-07
1.2976e-07
1.29776e-07
1.29797e-07
1.29817e-07
1.29836e-07
1.29859e-07
1.29877e-07
1.29905e-07
1.29924e-07
1.29957e-07
1.2998e-07
1.30022e-07
1.30048e-07
1.30108e-07
1.30146e-07
1.31558e-07
1.35621e-07
2.69241e-08
1.2384e-07
1.23012e-07
1.2286e-07
1.23133e-07
1.23587e-07
1.24073e-07
1.24545e-07
1.24971e-07
1.25362e-07
1.25704e-07
1.26018e-07
1.26292e-07
1.26545e-07
1.26766e-07
1.26972e-07
1.27152e-07
1.27323e-07
1.2747e-07
1.27612e-07
1.27735e-07
1.27855e-07
1.27958e-07
1.2806e-07
1.28147e-07
1.28235e-07
1.2831e-07
1.28385e-07
1.28449e-07
1.28515e-07
1.28571e-07
1.28628e-07
1.28677e-07
1.2873e-07
1.28772e-07
1.28816e-07
1.28852e-07
1.28894e-07
1.28928e-07
1.28964e-07
1.28993e-07
1.29028e-07
1.29056e-07
1.29082e-07
1.29108e-07
1.29137e-07
1.29155e-07
1.29179e-07
1.29197e-07
1.2922e-07
1.29239e-07
1.29258e-07
1.29273e-07
1.29294e-07
1.2931e-07
1.29322e-07
1.29336e-07
1.29352e-07
1.29356e-07
1.29364e-07
1.29375e-07
1.2938e-07
1.29395e-07
1.29402e-07
1.29432e-07
1.2945e-07
1.29477e-07
1.29496e-07
1.29528e-07
1.29544e-07
1.29572e-07
1.29589e-07
1.29611e-07
1.29628e-07
1.29653e-07
1.29668e-07
1.29688e-07
1.29705e-07
1.29724e-07
1.29743e-07
1.29759e-07
1.2978e-07
1.298e-07
1.29819e-07
1.29842e-07
1.2986e-07
1.29887e-07
1.29907e-07
1.2994e-07
1.29963e-07
1.30005e-07
1.3003e-07
1.30091e-07
1.30128e-07
1.31588e-07
1.35632e-07
2.81866e-08
1.23841e-07
1.2301e-07
1.22852e-07
1.23119e-07
1.23569e-07
1.24052e-07
1.24522e-07
1.24947e-07
1.25337e-07
1.25679e-07
1.25993e-07
1.26267e-07
1.2652e-07
1.26741e-07
1.26948e-07
1.27127e-07
1.27298e-07
1.27446e-07
1.27588e-07
1.27711e-07
1.27832e-07
1.27935e-07
1.28037e-07
1.28125e-07
1.28213e-07
1.28287e-07
1.28363e-07
1.28427e-07
1.28493e-07
1.28549e-07
1.28607e-07
1.28655e-07
1.28708e-07
1.28751e-07
1.28795e-07
1.28831e-07
1.28873e-07
1.28907e-07
1.28943e-07
1.28972e-07
1.29008e-07
1.29036e-07
1.29062e-07
1.29087e-07
1.29117e-07
1.29135e-07
1.2916e-07
1.29177e-07
1.292e-07
1.2922e-07
1.29239e-07
1.29254e-07
1.29275e-07
1.29291e-07
1.29303e-07
1.29317e-07
1.29333e-07
1.29337e-07
1.29345e-07
1.29356e-07
1.29361e-07
1.29376e-07
1.29384e-07
1.29413e-07
1.29431e-07
1.29458e-07
1.29477e-07
1.29509e-07
1.29525e-07
1.29553e-07
1.2957e-07
1.29592e-07
1.29609e-07
1.29634e-07
1.29649e-07
1.29669e-07
1.29687e-07
1.29705e-07
1.29724e-07
1.2974e-07
1.29761e-07
1.29782e-07
1.29801e-07
1.29823e-07
1.29842e-07
1.29869e-07
1.29889e-07
1.29921e-07
1.29944e-07
1.29986e-07
1.30012e-07
1.30072e-07
1.3011e-07
1.31621e-07
1.35643e-07
2.95145e-08
1.23843e-07
1.23008e-07
1.22843e-07
1.23104e-07
1.23549e-07
1.2403e-07
1.24498e-07
1.24921e-07
1.25311e-07
1.25653e-07
1.25966e-07
1.2624e-07
1.26493e-07
1.26714e-07
1.26921e-07
1.27101e-07
1.27272e-07
1.2742e-07
1.27562e-07
1.27685e-07
1.27806e-07
1.2791e-07
1.28012e-07
1.281e-07
1.28189e-07
1.28263e-07
1.28339e-07
1.28404e-07
1.2847e-07
1.28526e-07
1.28584e-07
1.28632e-07
1.28686e-07
1.28728e-07
1.28772e-07
1.28809e-07
1.28851e-07
1.28885e-07
1.28921e-07
1.2895e-07
1.28986e-07
1.29014e-07
1.2904e-07
1.29066e-07
1.29096e-07
1.29114e-07
1.29138e-07
1.29156e-07
1.29179e-07
1.29199e-07
1.29218e-07
1.29233e-07
1.29254e-07
1.2927e-07
1.29283e-07
1.29297e-07
1.29313e-07
1.29317e-07
1.29325e-07
1.29336e-07
1.29341e-07
1.29356e-07
1.29363e-07
1.29393e-07
1.29411e-07
1.29437e-07
1.29457e-07
1.29489e-07
1.29504e-07
1.29532e-07
1.29549e-07
1.29571e-07
1.29589e-07
1.29614e-07
1.29629e-07
1.29649e-07
1.29666e-07
1.29685e-07
1.29704e-07
1.2972e-07
1.29741e-07
1.29762e-07
1.29781e-07
1.29804e-07
1.29822e-07
1.29849e-07
1.29869e-07
1.29901e-07
1.29924e-07
1.29966e-07
1.29991e-07
1.30052e-07
1.3009e-07
1.31657e-07
1.35655e-07
3.09114e-08
1.23844e-07
1.23006e-07
1.22834e-07
1.23088e-07
1.23528e-07
1.24005e-07
1.24471e-07
1.24894e-07
1.25282e-07
1.25624e-07
1.25937e-07
1.26211e-07
1.26465e-07
1.26685e-07
1.26893e-07
1.27072e-07
1.27244e-07
1.27392e-07
1.27535e-07
1.27658e-07
1.27779e-07
1.27883e-07
1.27986e-07
1.28074e-07
1.28162e-07
1.28237e-07
1.28313e-07
1.28378e-07
1.28444e-07
1.28501e-07
1.28559e-07
1.28608e-07
1.28661e-07
1.28704e-07
1.28748e-07
1.28785e-07
1.28827e-07
1.28861e-07
1.28898e-07
1.28927e-07
1.28962e-07
1.2899e-07
1.29017e-07
1.29043e-07
1.29073e-07
1.29091e-07
1.29116e-07
1.29133e-07
1.29157e-07
1.29176e-07
1.29195e-07
1.2921e-07
1.29231e-07
1.29248e-07
1.29261e-07
1.29275e-07
1.29291e-07
1.29295e-07
1.29303e-07
1.29315e-07
1.2932e-07
1.29335e-07
1.29342e-07
1.29371e-07
1.29388e-07
1.29415e-07
1.29435e-07
1.29466e-07
1.29482e-07
1.29509e-07
1.29527e-07
1.29549e-07
1.29567e-07
1.29592e-07
1.29607e-07
1.29627e-07
1.29645e-07
1.29663e-07
1.29682e-07
1.29699e-07
1.2972e-07
1.2974e-07
1.29759e-07
1.29782e-07
1.29801e-07
1.29828e-07
1.29847e-07
1.2988e-07
1.29903e-07
1.29944e-07
1.29969e-07
1.3003e-07
1.30068e-07
1.31696e-07
1.35667e-07
3.23813e-08
1.23845e-07
1.23004e-07
1.22824e-07
1.23071e-07
1.23506e-07
1.23979e-07
1.24443e-07
1.24864e-07
1.25252e-07
1.25593e-07
1.25906e-07
1.2618e-07
1.26434e-07
1.26654e-07
1.26862e-07
1.27042e-07
1.27214e-07
1.27362e-07
1.27505e-07
1.27629e-07
1.2775e-07
1.27854e-07
1.27957e-07
1.28045e-07
1.28134e-07
1.28209e-07
1.28286e-07
1.28351e-07
1.28417e-07
1.28474e-07
1.28532e-07
1.28581e-07
1.28635e-07
1.28677e-07
1.28722e-07
1.28759e-07
1.28801e-07
1.28836e-07
1.28872e-07
1.28902e-07
1.28937e-07
1.28965e-07
1.28992e-07
1.29018e-07
1.29048e-07
1.29067e-07
1.29091e-07
1.29109e-07
1.29132e-07
1.29152e-07
1.29171e-07
1.29186e-07
1.29208e-07
1.29224e-07
1.29237e-07
1.29251e-07
1.29268e-07
1.29272e-07
1.2928e-07
1.29292e-07
1.29297e-07
1.29312e-07
1.29318e-07
1.29347e-07
1.29365e-07
1.29391e-07
1.29411e-07
1.29443e-07
1.29458e-07
1.29486e-07
1.29503e-07
1.29525e-07
1.29543e-07
1.29568e-07
1.29584e-07
1.29604e-07
1.29621e-07
1.2964e-07
1.29659e-07
1.29676e-07
1.29697e-07
1.29717e-07
1.29737e-07
1.29759e-07
1.29778e-07
1.29805e-07
1.29825e-07
1.29857e-07
1.2988e-07
1.29921e-07
1.29946e-07
1.30006e-07
1.30045e-07
1.31739e-07
1.3568e-07
3.39284e-08
1.23847e-07
1.23001e-07
1.22814e-07
1.23053e-07
1.23482e-07
1.23952e-07
1.24413e-07
1.24833e-07
1.2522e-07
1.2556e-07
1.25873e-07
1.26146e-07
1.264e-07
1.26621e-07
1.26829e-07
1.27009e-07
1.27182e-07
1.2733e-07
1.27474e-07
1.27597e-07
1.27719e-07
1.27823e-07
1.27927e-07
1.28015e-07
1.28105e-07
1.2818e-07
1.28256e-07
1.28322e-07
1.28388e-07
1.28445e-07
1.28504e-07
1.28553e-07
1.28607e-07
1.28649e-07
1.28695e-07
1.28731e-07
1.28774e-07
1.28808e-07
1.28845e-07
1.28875e-07
1.2891e-07
1.28939e-07
1.28965e-07
1.28991e-07
1.29022e-07
1.2904e-07
1.29065e-07
1.29083e-07
1.29107e-07
1.29126e-07
1.29146e-07
1.29161e-07
1.29182e-07
1.29199e-07
1.29212e-07
1.29226e-07
1.29243e-07
1.29247e-07
1.29256e-07
1.29267e-07
1.29272e-07
1.29287e-07
1.29294e-07
1.29322e-07
1.2934e-07
1.29366e-07
1.29386e-07
1.29418e-07
1.29432e-07
1.2946e-07
1.29477e-07
1.295e-07
1.29518e-07
1.29544e-07
1.29559e-07
1.2958e-07
1.29597e-07
1.29616e-07
1.29635e-07
1.29652e-07
1.29672e-07
1.29693e-07
1.29712e-07
1.29735e-07
1.29754e-07
1.2978e-07
1.298e-07
1.29832e-07
1.29855e-07
1.29896e-07
1.29921e-07
1.29982e-07
1.30021e-07
1.31784e-07
1.35693e-07
3.55565e-08
1.23848e-07
1.22999e-07
1.22803e-07
1.23034e-07
1.23457e-07
1.23923e-07
1.24382e-07
1.24799e-07
1.25185e-07
1.25525e-07
1.25838e-07
1.26111e-07
1.26365e-07
1.26586e-07
1.26794e-07
1.26975e-07
1.27148e-07
1.27296e-07
1.2744e-07
1.27564e-07
1.27686e-07
1.27791e-07
1.27895e-07
1.27983e-07
1.28073e-07
1.28148e-07
1.28225e-07
1.28291e-07
1.28358e-07
1.28415e-07
1.28473e-07
1.28523e-07
1.28577e-07
1.2862e-07
1.28665e-07
1.28702e-07
1.28744e-07
1.28779e-07
1.28816e-07
1.28846e-07
1.28882e-07
1.2891e-07
1.28937e-07
1.28963e-07
1.28994e-07
1.29013e-07
1.29038e-07
1.29056e-07
1.29079e-07
1.29099e-07
1.29119e-07
1.29134e-07
1.29155e-07
1.29172e-07
1.29185e-07
1.29199e-07
1.29216e-07
1.29221e-07
1.29229e-07
1.29241e-07
1.29247e-07
1.29261e-07
1.29267e-07
1.29296e-07
1.29313e-07
1.29339e-07
1.2936e-07
1.29391e-07
1.29405e-07
1.29433e-07
1.2945e-07
1.29473e-07
1.29491e-07
1.29517e-07
1.29532e-07
1.29553e-07
1.2957e-07
1.2959e-07
1.29608e-07
1.29626e-07
1.29646e-07
1.29666e-07
1.29686e-07
1.29709e-07
1.29728e-07
1.29754e-07
1.29774e-07
1.29806e-07
1.29829e-07
1.2987e-07
1.29895e-07
1.29955e-07
1.29995e-07
1.31833e-07
1.35705e-07
3.72698e-08
1.2385e-07
1.22997e-07
1.22792e-07
1.23014e-07
1.23431e-07
1.23892e-07
1.24348e-07
1.24764e-07
1.25149e-07
1.25488e-07
1.25801e-07
1.26074e-07
1.26328e-07
1.26549e-07
1.26758e-07
1.26938e-07
1.27111e-07
1.2726e-07
1.27405e-07
1.27529e-07
1.27651e-07
1.27756e-07
1.2786e-07
1.27949e-07
1.28039e-07
1.28115e-07
1.28192e-07
1.28258e-07
1.28325e-07
1.28382e-07
1.28441e-07
1.28491e-07
1.28545e-07
1.28588e-07
1.28634e-07
1.28671e-07
1.28714e-07
1.28748e-07
1.28786e-07
1.28816e-07
1.28851e-07
1.2888e-07
1.28907e-07
1.28933e-07
1.28964e-07
1.28983e-07
1.29008e-07
1.29026e-07
1.2905e-07
1.2907e-07
1.2909e-07
1.29105e-07
1.29126e-07
1.29143e-07
1.29157e-07
1.29171e-07
1.29188e-07
1.29193e-07
1.29202e-07
1.29214e-07
1.29219e-07
1.29233e-07
1.29239e-07
1.29267e-07
1.29284e-07
1.29311e-07
1.29332e-07
1.29362e-07
1.29377e-07
1.29404e-07
1.29421e-07
1.29445e-07
1.29463e-07
1.29489e-07
1.29504e-07
1.29525e-07
1.29542e-07
1.29562e-07
1.29581e-07
1.29598e-07
1.29619e-07
1.29639e-07
1.29659e-07
1.29681e-07
1.297e-07
1.29727e-07
1.29747e-07
1.29778e-07
1.29801e-07
1.29842e-07
1.29867e-07
1.29927e-07
1.29968e-07
1.31884e-07
1.35715e-07
3.9072e-08
1.23852e-07
1.22994e-07
1.22781e-07
1.22993e-07
1.23403e-07
1.23859e-07
1.24312e-07
1.24726e-07
1.2511e-07
1.25449e-07
1.25761e-07
1.26034e-07
1.26288e-07
1.2651e-07
1.26718e-07
1.26899e-07
1.27073e-07
1.27222e-07
1.27367e-07
1.27491e-07
1.27614e-07
1.27719e-07
1.27824e-07
1.27913e-07
1.28003e-07
1.28079e-07
1.28157e-07
1.28223e-07
1.2829e-07
1.28348e-07
1.28407e-07
1.28457e-07
1.28511e-07
1.28555e-07
1.28601e-07
1.28638e-07
1.28681e-07
1.28716e-07
1.28753e-07
1.28783e-07
1.28819e-07
1.28848e-07
1.28876e-07
1.28902e-07
1.28932e-07
1.28952e-07
1.28977e-07
1.28995e-07
1.29019e-07
1.29039e-07
1.29059e-07
1.29075e-07
1.29096e-07
1.29113e-07
1.29127e-07
1.29141e-07
1.29158e-07
1.29164e-07
1.29172e-07
1.29184e-07
1.2919e-07
1.29204e-07
1.2921e-07
1.29237e-07
1.29254e-07
1.29281e-07
1.29302e-07
1.29332e-07
1.29346e-07
1.29374e-07
1.2939e-07
1.29414e-07
1.29433e-07
1.29459e-07
1.29474e-07
1.29496e-07
1.29513e-07
1.29533e-07
1.29551e-07
1.29569e-07
1.29589e-07
1.29609e-07
1.2963e-07
1.29652e-07
1.29671e-07
1.29698e-07
1.29718e-07
1.29749e-07
1.29772e-07
1.29813e-07
1.29837e-07
1.29897e-07
1.29939e-07
1.31938e-07
1.35724e-07
4.09665e-08
1.23853e-07
1.22992e-07
1.22768e-07
1.22971e-07
1.23374e-07
1.23825e-07
1.24275e-07
1.24687e-07
1.2507e-07
1.25407e-07
1.25719e-07
1.25992e-07
1.26247e-07
1.26468e-07
1.26677e-07
1.26858e-07
1.27032e-07
1.27182e-07
1.27327e-07
1.27452e-07
1.27575e-07
1.2768e-07
1.27785e-07
1.27875e-07
1.27965e-07
1.28042e-07
1.28119e-07
1.28186e-07
1.28254e-07
1.28311e-07
1.28371e-07
1.28421e-07
1.28476e-07
1.28519e-07
1.28565e-07
1.28603e-07
1.28646e-07
1.28681e-07
1.28719e-07
1.28749e-07
1.28785e-07
1.28814e-07
1.28842e-07
1.28868e-07
1.28899e-07
1.28919e-07
1.28944e-07
1.28963e-07
1.28986e-07
1.29007e-07
1.29027e-07
1.29042e-07
1.29064e-07
1.29081e-07
1.29095e-07
1.29109e-07
1.29126e-07
1.29132e-07
1.29141e-07
1.29153e-07
1.29159e-07
1.29173e-07
1.29179e-07
1.29206e-07
1.29222e-07
1.29249e-07
1.2927e-07
1.293e-07
1.29314e-07
1.29342e-07
1.29358e-07
1.29382e-07
1.29401e-07
1.29427e-07
1.29443e-07
1.29465e-07
1.29481e-07
1.29502e-07
1.2952e-07
1.29538e-07
1.29558e-07
1.29578e-07
1.29599e-07
1.29621e-07
1.29641e-07
1.29667e-07
1.29687e-07
1.29718e-07
1.29741e-07
1.29781e-07
1.29806e-07
1.29866e-07
1.29908e-07
1.31995e-07
1.35731e-07
4.2956e-08
1.23855e-07
1.22989e-07
1.22756e-07
1.22949e-07
1.23344e-07
1.23789e-07
1.24236e-07
1.24646e-07
1.25027e-07
1.25364e-07
1.25676e-07
1.25948e-07
1.26203e-07
1.26424e-07
1.26634e-07
1.26815e-07
1.26989e-07
1.27139e-07
1.27285e-07
1.2741e-07
1.27533e-07
1.27639e-07
1.27745e-07
1.27834e-07
1.27925e-07
1.28002e-07
1.2808e-07
1.28147e-07
1.28215e-07
1.28273e-07
1.28333e-07
1.28383e-07
1.28438e-07
1.28482e-07
1.28528e-07
1.28566e-07
1.28609e-07
1.28645e-07
1.28683e-07
1.28713e-07
1.28749e-07
1.28779e-07
1.28807e-07
1.28833e-07
1.28864e-07
1.28884e-07
1.28909e-07
1.28928e-07
1.28952e-07
1.28972e-07
1.28992e-07
1.29008e-07
1.2903e-07
1.29047e-07
1.29061e-07
1.29075e-07
1.29093e-07
1.29099e-07
1.29108e-07
1.2912e-07
1.29126e-07
1.2914e-07
1.29146e-07
1.29172e-07
1.29189e-07
1.29215e-07
1.29237e-07
1.29267e-07
1.29281e-07
1.29308e-07
1.29324e-07
1.29348e-07
1.29368e-07
1.29394e-07
1.29409e-07
1.29432e-07
1.29448e-07
1.29469e-07
1.29487e-07
1.29505e-07
1.29526e-07
1.29546e-07
1.29566e-07
1.29588e-07
1.29608e-07
1.29634e-07
1.29654e-07
1.29685e-07
1.29708e-07
1.29748e-07
1.29772e-07
1.29832e-07
1.29876e-07
1.32053e-07
1.35735e-07
4.50424e-08
1.23857e-07
1.22987e-07
1.22743e-07
1.22925e-07
1.23312e-07
1.23752e-07
1.24195e-07
1.24602e-07
1.24982e-07
1.25318e-07
1.25629e-07
1.25902e-07
1.26156e-07
1.26378e-07
1.26588e-07
1.26769e-07
1.26944e-07
1.27094e-07
1.2724e-07
1.27366e-07
1.2749e-07
1.27596e-07
1.27702e-07
1.27792e-07
1.27883e-07
1.2796e-07
1.28039e-07
1.28105e-07
1.28174e-07
1.28233e-07
1.28293e-07
1.28343e-07
1.28398e-07
1.28442e-07
1.28489e-07
1.28527e-07
1.28571e-07
1.28606e-07
1.28644e-07
1.28675e-07
1.28711e-07
1.28741e-07
1.28769e-07
1.28796e-07
1.28827e-07
1.28847e-07
1.28873e-07
1.28891e-07