/*--------------------------------*- C++ -*----------------------------------*\
| =========                 |                                                 |
| \\      /  F ield         | OpenFOAM: The Open Source CFD Toolbox           |
|  \\    /   O peration     | Version:  v2012                                 |
|   \\  /    A nd           | Website:  www.openfoam.com                      |
|    \\/     M anipulation  |                                                 |
\*---------------------------------------------------------------------------*/
FoamFile
{
    version     2.0;
    format      ascii;
    class       volScalarField;
    location    "27.5";
    object      omega;
}
// * * * * * * * * * * * * * * * * * * * * * * * * * * * * * * * * * * * * * //

dimensions      [0 0 -1 0 0 0 0];


internalField   nonuniform List<scalar> 
209825
(
8255.76
7557.85
7020.43
6622.29
6327.93
6107.13
5937.31
5804.15
5697.2
5610.27
5538.09
5477.92
5426.69
5383.19
5345.4
5312.91
5284.18
5259.26
5236.88
5217.36
5199.58
5184.02
5169.65
5157.06
5145.3
5135.01
5125.24
5116.71
5108.54
5101.45
5094.53
5088.58
5082.68
5077.65
5072.61
5068.38
5064.03
5060.4
5056.64
5053.6
5050.32
5047.65
5044.9
5042.63
5040.12
5038.18
5036.02
5034.45
5032.64
5031.32
5029.85
5028.61
5027.15
5026.18
5025.08
5024.06
5023.17
5022.45
5021.93
5021.35
5020.74
5020.28
5019.98
5019.4
5019.01
5018.85
5018.71
5018.58
5018.31
5018.17
5017.82
5017.98
5017.98
5018.37
5018.37
5019.01
5019.01
5019.81
5019.81
5020.8
5020.85
5021.87
5022.14
5023.24
5023.62
5024.81
5025.27
5026.61
5027.09
5028.69
5029.08
5031.42
5032
5067.01
5199.21
113920
8255.77
7557.86
7020.42
6622.27
6327.89
6107.07
5937.24
5804.07
5697.1
5610.16
5537.98
5477.8
5426.56
5383.06
5345.27
5312.77
5284.04
5259.11
5236.74
5217.21
5199.43
5183.87
5169.49
5156.9
5145.14
5134.85
5125.08
5116.55
5108.38
5101.28
5094.36
5088.41
5082.51
5077.48
5072.44
5068.21
5063.85
5060.23
5056.47
5053.43
5050.14
5047.48
5044.72
5042.45
5039.95
5038
5035.85
5034.27
5032.46
5031.14
5029.67
5028.43
5026.97
5026
5024.9
5023.88
5022.99
5022.27
5021.75
5021.17
5020.56
5020.1
5019.79
5019.21
5018.83
5018.67
5018.53
5018.4
5018.13
5017.99
5017.64
5017.8
5017.79
5018.19
5018.19
5018.83
5018.83
5019.63
5019.63
5020.62
5020.67
5021.69
5021.95
5023.06
5023.44
5024.62
5025.09
5026.42
5026.9
5028.5
5028.9
5031.24
5031.82
5066.9
5199.05
110623
8255.77
7557.86
7020.39
6622.18
6327.74
6106.87
5936.98
5803.77
5696.77
5609.8
5537.6
5477.4
5426.14
5382.62
5344.81
5312.3
5283.56
5258.62
5236.24
5216.7
5198.92
5183.35
5168.97
5156.37
5144.61
5134.31
5124.54
5116
5107.83
5100.73
5093.81
5087.85
5081.95
5076.91
5071.88
5067.64
5063.28
5059.65
5055.9
5052.85
5049.57
5046.9
5044.14
5041.87
5039.37
5037.42
5035.26
5033.68
5031.88
5030.55
5029.09
5027.84
5026.38
5025.41
5024.31
5023.29
5022.4
5021.68
5021.16
5020.57
5019.96
5019.51
5019.2
5018.62
5018.24
5018.07
5017.93
5017.8
5017.53
5017.39
5017.04
5017.19
5017.19
5017.59
5017.59
5018.23
5018.23
5019.03
5019.03
5020.01
5020.06
5021.08
5021.35
5022.45
5022.83
5024.01
5024.48
5025.81
5026.29
5027.89
5028.29
5030.63
5031.21
5066.42
5198.49
106838
8255.79
7557.87
7020.34
6622.02
6327.48
6106.51
5936.54
5803.26
5696.2
5609.18
5536.93
5476.7
5425.41
5381.87
5344.03
5311.5
5282.74
5257.79
5235.39
5215.84
5198.04
5182.46
5168.07
5155.46
5143.69
5133.39
5123.61
5115.06
5106.89
5099.78
5092.85
5086.89
5080.99
5075.95
5070.91
5066.67
5062.31
5058.68
5054.91
5051.87
5048.58
5045.91
5043.15
5040.88
5038.37
5036.42
5034.26
5032.68
5030.87
5029.55
5028.08
5026.83
5025.37
5024.4
5023.3
5022.28
5021.39
5020.66
5020.14
5019.55
5018.95
5018.49
5018.18
5017.6
5017.21
5017.05
5016.91
5016.78
5016.5
5016.36
5016.01
5016.17
5016.16
5016.56
5016.56
5017.19
5017.19
5017.99
5017.99
5018.97
5019.03
5020.04
5020.31
5021.41
5021.78
5022.97
5023.43
5024.77
5025.24
5026.85
5027.24
5029.58
5030.16
5065.58
5197.51
102946
8255.81
7557.89
7020.26
6621.8
6327.1
6106
5935.91
5802.53
5695.39
5608.3
5535.99
5475.7
5424.37
5380.79
5342.92
5310.35
5281.57
5256.59
5234.17
5214.6
5196.79
5181.2
5166.79
5154.17
5142.39
5132.07
5122.28
5113.73
5105.54
5098.43
5091.5
5085.53
5079.62
5074.57
5069.53
5065.28
5060.92
5057.28
5053.52
5050.46
5047.17
5044.5
5041.74
5039.46
5036.95
5035
5032.84
5031.26
5029.44
5028.11
5026.64
5025.4
5023.93
5022.96
5021.86
5020.83
5019.94
5019.21
5018.69
5018.1
5017.49
5017.04
5016.72
5016.14
5015.76
5015.59
5015.45
5015.32
5015.04
5014.9
5014.55
5014.7
5014.7
5015.09
5015.09
5015.72
5015.72
5016.51
5016.52
5017.5
5017.55
5018.56
5018.82
5019.93
5020.3
5021.48
5021.95
5023.28
5023.76
5025.35
5025.75
5028.09
5028.66
5064.37
5196.11
99052.4
8255.83
7557.91
7020.16
6621.51
6326.61
6105.33
5935.09
5801.58
5694.33
5607.15
5534.76
5474.4
5423.01
5379.38
5341.46
5308.86
5280.04
5255.03
5232.58
5212.99
5195.16
5179.54
5165.12
5152.48
5140.68
5130.36
5120.55
5111.99
5103.79
5096.67
5089.73
5083.75
5077.83
5072.78
5067.72
5063.48
5059.1
5055.46
5051.69
5048.63
5045.34
5042.66
5039.89
5037.61
5035.1
5033.15
5030.98
5029.39
5027.58
5026.25
5024.77
5023.52
5022.06
5021.08
5019.98
5018.95
5018.06
5017.33
5016.8
5016.21
5015.6
5015.14
5014.83
5014.25
5013.86
5013.69
5013.54
5013.41
5013.14
5013
5012.64
5012.79
5012.78
5013.17
5013.17
5013.8
5013.8
5014.59
5014.59
5015.57
5015.62
5016.63
5016.89
5017.99
5018.36
5019.55
5020.01
5021.34
5021.81
5023.41
5023.8
5026.14
5026.71
5062.8
5194.29
95196
8255.86
7557.94
7020.03
6621.15
6326.01
6104.51
5934.08
5800.41
5693.02
5605.72
5533.23
5472.79
5421.33
5377.63
5339.66
5307.02
5278.15
5253.11
5230.62
5211
5193.14
5177.5
5163.05
5150.39
5138.58
5128.23
5118.41
5109.84
5101.63
5094.49
5087.53
5081.55
5075.62
5070.56
5065.49
5061.24
5056.86
5053.21
5049.43
5046.37
5043.07
5040.38
5037.61
5035.33
5032.81
5030.85
5028.68
5027.09
5025.27
5023.93
5022.46
5021.21
5019.74
5018.76
5017.65
5016.62
5015.72
5014.99
5014.46
5013.87
5013.26
5012.79
5012.48
5011.9
5011.51
5011.34
5011.19
5011.05
5010.78
5010.64
5010.28
5010.42
5010.42
5010.8
5010.8
5011.42
5011.42
5012.21
5012.21
5013.18
5013.23
5014.24
5014.5
5015.6
5015.97
5017.15
5017.61
5018.94
5019.41
5021
5021.39
5023.73
5024.3
5060.85
5192.04
91396.2
8255.9
7557.97
7019.88
6620.73
6325.29
6103.52
5932.87
5799
5691.45
5604.02
5531.41
5470.87
5419.32
5375.55
5337.51
5304.81
5275.89
5250.8
5228.28
5208.62
5190.72
5175.05
5160.58
5147.9
5136.06
5125.69
5115.85
5107.26
5099.03
5091.88
5084.91
5078.91
5072.97
5067.9
5062.83
5058.56
5054.17
5050.52
5046.73
5043.66
5040.35
5037.66
5034.88
5032.59
5030.07
5028.1
5025.93
5024.33
5022.51
5021.17
5019.69
5018.43
5016.96
5015.97
5014.87
5013.83
5012.93
5012.2
5011.66
5011.07
5010.45
5009.99
5009.67
5009.09
5008.69
5008.52
5008.37
5008.23
5007.96
5007.81
5007.45
5007.59
5007.58
5007.96
5007.96
5008.58
5008.58
5009.36
5009.36
5010.33
5010.38
5011.38
5011.64
5012.73
5013.1
5014.28
5014.73
5016.06
5016.53
5018.12
5018.51
5020.85
5021.41
5058.53
5189.36
87661.7
8255.94
7558.01
7019.71
6620.23
6324.46
6102.38
5931.46
5797.37
5689.62
5602.03
5529.29
5468.63
5416.97
5373.12
5335.01
5302.23
5273.25
5248.11
5225.54
5205.84
5187.9
5172.2
5157.69
5144.98
5133.12
5122.73
5112.87
5104.25
5096.01
5088.84
5081.85
5075.84
5069.88
5064.8
5059.71
5055.44
5051.04
5047.37
5043.57
5040.5
5037.18
5034.48
5031.69
5029.4
5026.87
5024.9
5022.71
5021.11
5019.28
5017.94
5016.45
5015.19
5013.72
5012.73
5011.61
5010.58
5009.67
5008.93
5008.39
5007.8
5007.18
5006.71
5006.39
5005.81
5005.41
5005.23
5005.08
5004.94
5004.67
5004.52
5004.16
5004.29
5004.28
5004.65
5004.65
5005.26
5005.26
5006.03
5006.03
5007
5007.04
5008.04
5008.3
5009.39
5009.75
5010.93
5011.38
5012.7
5013.17
5014.76
5015.14
5017.48
5018.05
5055.82
5186.23
83995.3
8255.99
7558.05
7019.51
6619.67
6323.51
6101.07
5929.84
5795.5
5687.54
5599.76
5526.86
5466.07
5414.29
5370.34
5332.13
5299.28
5270.23
5245.03
5222.41
5202.65
5184.67
5168.93
5154.39
5141.65
5129.75
5119.33
5109.45
5100.81
5092.54
5085.36
5078.35
5072.32
5066.35
5061.25
5056.15
5051.86
5047.44
5043.77
5039.96
5036.87
5033.55
5030.84
5028.04
5025.74
5023.2
5021.22
5019.03
5017.43
5015.59
5014.24
5012.74
5011.48
5010
5009.01
5007.89
5006.85
5005.94
5005.19
5004.65
5004.05
5003.43
5002.96
5002.63
5002.05
5001.65
5001.47
5001.31
5001.17
5000.89
5000.74
5000.38
5000.5
5000.49
5000.85
5000.85
5001.45
5001.45
5002.22
5002.22
5003.18
5003.22
5004.22
5004.47
5005.56
5005.92
5007.09
5007.54
5008.86
5009.32
5010.91
5011.28
5013.62
5014.19
5052.73
5182.66
80395.1
8256.04
7558.1
7019.29
6619.03
6322.44
6099.6
5928.03
5793.39
5685.18
5597.19
5524.12
5463.17
5411.27
5367.2
5328.89
5295.95
5266.83
5241.56
5218.87
5199.06
5181.03
5165.24
5150.66
5137.88
5125.95
5115.5
5105.58
5096.92
5088.63
5081.42
5074.39
5068.34
5062.35
5057.24
5052.12
5047.81
5043.39
5039.7
5035.88
5032.78
5029.44
5026.72
5023.92
5021.61
5019.06
5017.07
5014.87
5013.26
5011.41
5010.05
5008.56
5007.29
5005.8
5004.8
5003.68
5002.64
5001.72
5000.97
5000.42
4999.82
4999.19
4998.71
4998.38
4997.8
4997.39
4997.21
4997.05
4996.91
4996.63
4996.48
4996.11
4996.23
4996.21
4996.56
4996.56
4997.15
4997.15
4997.91
4997.91
4998.86
4998.9
4999.9
5000.14
5001.23
5001.58
5002.75
5003.2
5004.51
5004.97
5006.55
5006.93
5009.27
5009.83
5049.25
5178.64
76855.5
8256.1
7558.16
7019.05
6618.33
6321.25
6097.97
5926.01
5791.04
5682.56
5594.34
5521.06
5459.95
5407.89
5363.69
5325.28
5292.24
5263.03
5237.68
5214.92
5195.05
5176.96
5161.12
5146.49
5133.67
5121.7
5111.22
5101.27
5092.58
5084.25
5077.02
5069.97
5063.9
5057.89
5052.75
5047.62
5043.3
5038.85
5035.15
5031.32
5028.2
5024.85
5022.12
5019.31
5016.99
5014.43
5012.44
5010.23
5008.6
5006.75
5005.38
5003.88
5002.61
5001.11
5000.1
4998.98
4997.93
4997.01
4996.25
4995.69
4995.09
4994.46
4993.97
4993.64
4993.06
4992.64
4992.45
4992.28
4992.15
4991.86
4991.71
4991.34
4991.45
4991.42
4991.76
4991.77
4992.35
4992.35
4993.1
4993.1
4994.04
4994.08
4995.07
4995.31
4996.39
4996.74
4997.9
4998.35
4999.65
5000.11
5001.69
5002.06
5004.4
5004.95
5045.38
5174.16
73371.1
8256.17
7558.22
7018.79
6617.56
6319.94
6096.17
5923.78
5788.46
5679.67
5591.19
5517.69
5456.38
5404.17
5359.82
5321.28
5288.14
5258.82
5233.39
5210.55
5190.61
5172.46
5156.57
5141.88
5129.02
5117
5106.48
5096.49
5087.77
5079.42
5072.16
5065.08
5058.98
5052.95
5047.8
5042.64
5038.3
5033.84
5030.12
5026.27
5023.14
5019.78
5017.04
5014.21
5011.88
5009.31
5007.31
5005.09
5003.45
5001.59
5000.21
4998.7
4997.42
4995.93
4994.91
4993.77
4992.72
4991.79
4991.03
4990.46
4989.85
4989.22
4988.73
4988.39
4987.81
4987.39
4987.19
4987.02
4986.88
4986.59
4986.44
4986.06
4986.16
4986.13
4986.46
4986.46
4987.04
4987.04
4987.77
4987.77
4988.71
4988.74
4989.73
4989.96
4991.03
4991.38
4992.54
4992.98
4994.28
4994.74
4996.3
4996.67
4999.01
4999.56
5041.1
5169.22
69948.4
8256.24
7558.29
7018.51
6616.72
6318.52
6094.2
5921.35
5785.62
5676.5
5587.73
5513.99
5452.48
5400.08
5355.58
5316.9
5283.63
5254.21
5228.68
5205.76
5185.74
5167.52
5151.57
5136.83
5123.91
5111.84
5101.28
5091.25
5082.5
5074.11
5066.82
5059.71
5053.59
5047.53
5042.35
5037.17
5032.82
5028.33
5024.6
5020.73
5017.59
5014.21
5011.45
5008.61
5006.27
5003.69
5001.67
4999.44
4997.8
4995.93
4994.54
4993.01
4991.73
4990.23
4989.2
4988.06
4987
4986.06
4985.29
4984.72
4984.11
4983.46
4982.97
4982.62
4982.04
4981.61
4981.41
4981.23
4981.09
4980.8
4980.64
4980.26
4980.35
4980.31
4980.64
4980.64
4981.2
4981.2
4981.92
4981.92
4982.85
4982.88
4983.86
4984.08
4985.15
4985.49
4986.65
4987.08
4988.38
4988.83
4990.39
4990.75
4993.09
4993.64
5036.42
5163.81
66593.6
8256.31
7558.37
7018.2
6615.82
6316.97
6092.07
5918.7
5782.55
5673.05
5583.97
5509.97
5448.23
5395.63
5350.96
5312.13
5278.73
5249.19
5223.55
5200.53
5180.44
5162.14
5146.12
5131.31
5118.34
5106.22
5095.61
5085.54
5076.74
5068.32
5061
5053.85
5047.7
5041.62
5036.42
5031.21
5026.83
5022.33
5018.57
5014.69
5011.53
5008.13
5005.36
5002.5
5000.15
4997.55
4995.53
4993.29
4991.63
4989.74
4988.35
4986.81
4985.52
4984.01
4982.97
4981.83
4980.76
4979.81
4979.03
4978.45
4977.83
4977.19
4976.68
4976.33
4975.75
4975.31
4975.11
4974.92
4974.77
4974.48
4974.32
4973.93
4974.02
4973.97
4974.28
4974.28
4974.83
4974.83
4975.54
4975.54
4976.46
4976.48
4977.46
4977.67
4978.74
4979.07
4980.22
4980.65
4981.94
4982.39
4983.94
4984.29
4986.63
4987.19
5031.32
5157.92
63312.2
8256.39
7558.46
7017.88
6614.85
6315.31
6089.77
5915.85
5779.22
5669.33
5579.91
5505.61
5443.62
5390.81
5345.95
5306.96
5273.41
5243.74
5218
5194.87
5174.69
5156.31
5140.21
5125.34
5112.3
5100.13
5089.47
5079.35
5070.51
5062.04
5054.68
5047.51
5041.32
5035.2
5029.98
5024.75
5020.34
5015.82
5012.04
5008.13
5004.95
5001.54
4998.76
4995.88
4993.51
4990.9
4988.86
4986.61
4984.94
4983.04
4981.63
4980.09
4978.79
4977.27
4976.22
4975.06
4974
4973.04
4972.25
4971.65
4971.03
4970.38
4969.87
4969.51
4968.92
4968.48
4968.27
4968.07
4967.92
4967.63
4967.47
4967.07
4967.15
4967.09
4967.39
4967.39
4967.92
4967.92
4968.62
4968.62
4969.52
4969.54
4970.51
4970.72
4971.78
4972.11
4973.25
4973.67
4974.95
4975.4
4976.94
4977.29
4979.63
4980.18
5025.81
5151.55
60109.5
8256.48
7558.55
7017.54
6613.81
6313.53
6087.3
5912.78
5775.64
5665.32
5575.54
5500.92
5438.67
5385.62
5340.56
5301.39
5267.68
5237.88
5212.01
5188.77
5168.49
5150.02
5133.84
5118.89
5105.79
5093.56
5082.84
5072.67
5063.78
5055.27
5047.87
5040.65
5034.44
5028.29
5023.03
5017.77
5013.34
5008.79
5004.99
5001.06
4997.86
4994.43
4991.63
4988.73
4986.35
4983.72
4981.67
4979.4
4977.72
4975.81
4974.38
4972.83
4971.52
4969.99
4968.93
4967.77
4966.69
4965.72
4964.92
4964.31
4963.69
4963.03
4962.51
4962.14
4961.56
4961.1
4960.88
4960.68
4960.53
4960.23
4960.06
4959.67
4959.73
4959.66
4959.95
4959.95
4960.47
4960.46
4961.15
4961.15
4962.04
4962.06
4963.02
4963.21
4964.27
4964.59
4965.72
4966.13
4967.41
4967.85
4969.39
4969.73
4972.07
4972.62
5019.86
5144.69
56990.3
8256.57
7558.65
7017.17
6612.71
6311.63
6084.67
5909.5
5771.82
5661.03
5570.85
5495.9
5433.35
5380.05
5334.77
5295.41
5261.54
5231.58
5205.58
5182.22
5161.83
5143.26
5127
5111.97
5098.8
5086.5
5075.72
5065.49
5056.56
5048
5040.55
5033.3
5027.04
5020.86
5015.57
5010.27
5005.82
5001.24
4997.42
4993.46
4990.24
4986.79
4983.96
4981.05
4978.65
4976.01
4973.94
4971.65
4969.95
4968.03
4966.59
4965.02
4963.71
4962.17
4961.1
4959.92
4958.84
4957.86
4957.05
4956.43
4955.8
4955.13
4954.6
4954.23
4953.64
4953.18
4952.95
4952.73
4952.58
4952.28
4952.11
4951.71
4951.76
4951.68
4951.95
4951.95
4952.45
4952.45
4953.12
4953.12
4953.99
4954.01
4954.96
4955.15
4956.19
4956.5
4957.63
4958.04
4959.31
4959.74
4961.27
4961.6
4963.94
4964.5
5013.48
5137.32
53959.1
8256.67
7558.76
7016.79
6611.54
6309.61
6081.86
5906.01
5767.74
5656.45
5565.85
5490.54
5427.68
5374.11
5328.59
5289.02
5254.97
5224.85
5198.7
5175.22
5154.71
5136.04
5119.68
5104.57
5091.32
5078.94
5068.1
5057.82
5048.82
5040.21
5032.72
5025.42
5019.13
5012.9
5007.58
5002.25
4997.77
4993.16
4989.31
4985.33
4982.08
4978.61
4975.76
4972.82
4970.41
4967.75
4965.67
4963.36
4961.65
4959.71
4958.26
4956.67
4955.35
4953.79
4952.71
4951.52
4950.43
4949.44
4948.62
4947.99
4947.35
4946.67
4946.13
4945.75
4945.16
4944.69
4944.45
4944.23
4944.07
4943.76
4943.59
4943.19
4943.23
4943.14
4943.39
4943.39
4943.87
4943.87
4944.52
4944.52
4945.38
4945.39
4946.33
4946.51
4947.55
4947.85
4948.97
4949.37
4950.63
4951.05
4952.58
4952.9
4955.24
4955.8
5006.65
5129.44
51020.1
8256.77
7558.87
7016.4
6610.32
6307.48
6078.89
5902.31
5763.41
5651.59
5560.53
5484.83
5421.64
5367.78
5322.01
5282.22
5247.97
5217.68
5191.38
5167.76
5147.13
5128.34
5111.88
5096.68
5083.34
5070.89
5059.98
5049.63
5040.58
5031.91
5024.37
5017.02
5010.69
5004.42
4999.06
4993.7
4989.18
4984.54
4980.66
4976.65
4973.38
4969.88
4967.02
4964.05
4961.62
4958.94
4956.84
4954.52
4952.78
4950.83
4949.36
4947.76
4946.43
4944.86
4943.76
4942.57
4941.46
4940.46
4939.63
4938.98
4938.33
4937.65
4937.1
4936.71
4936.12
4935.63
4935.39
4935.15
4934.99
4934.68
4934.5
4934.1
4934.12
4934.02
4934.25
4934.25
4934.71
4934.71
4935.34
4935.34
4936.19
4936.19
4937.13
4937.29
4938.33
4938.62
4939.73
4940.12
4941.37
4941.79
4943.3
4943.61
4945.95
4946.52
4999.37
5121.04
48176.9
8256.87
7559
7015.99
6609.03
6305.24
6075.76
5898.39
5758.83
5646.43
5554.9
5478.78
5415.23
5361.06
5315.03
5274.99
5240.54
5210.06
5183.6
5159.83
5139.07
5120.16
5103.6
5088.29
5074.87
5062.33
5051.35
5040.93
5031.82
5023.09
5015.5
5008.1
5001.72
4995.4
4990
4984.6
4980.05
4975.37
4971.47
4967.42
4964.13
4960.6
4957.71
4954.72
4952.27
4949.57
4947.45
4945.11
4943.36
4941.38
4939.9
4938.28
4936.94
4935.36
4934.24
4933.04
4931.93
4930.91
4930.06
4929.4
4928.74
4928.05
4927.49
4927.09
4926.5
4926
4925.74
4925.5
4925.33
4925.01
4924.84
4924.44
4924.44
4924.32
4924.54
4924.53
4924.97
4924.97
4925.58
4925.58
4926.41
4926.41
4927.34
4927.49
4928.51
4928.79
4929.9
4930.28
4931.52
4931.93
4933.44
4933.73
4936.08
4936.65
4991.61
5112.1
45433.1
8256.98
7559.14
7015.56
6607.68
6302.88
6072.46
5894.27
5753.99
5640.99
5548.94
5472.38
5408.46
5353.95
5307.64
5267.35
5232.67
5201.99
5175.36
5151.43
5130.53
5111.49
5094.82
5079.4
5065.89
5053.26
5042.2
5031.71
5022.53
5013.73
5006.09
4998.63
4992.2
4985.84
4980.4
4974.96
4970.37
4965.65
4961.72
4957.64
4954.32
4950.76
4947.85
4944.83
4942.36
4939.63
4937.5
4935.13
4933.36
4931.37
4929.86
4928.23
4926.87
4925.28
4924.15
4922.93
4921.81
4920.77
4919.91
4919.24
4918.57
4917.87
4917.3
4916.88
4916.29
4915.78
4915.51
4915.25
4915.09
4914.76
4914.58
4914.18
4914.16
4914.03
4914.23
4914.22
4914.64
4914.64
4915.23
4915.23
4916.04
4916.04
4916.95
4917.09
4918.1
4918.37
4919.47
4919.84
4921.07
4921.47
4922.97
4923.26
4925.6
4926.18
4983.37
5102.6
42791.6
8257.1
7559.28
7015.12
6606.27
6300.41
6069
5889.93
5748.9
5635.26
5542.67
5465.64
5401.31
5346.46
5299.83
5259.28
5224.37
5193.48
5166.65
5142.56
5121.51
5102.33
5085.54
5070.01
5056.4
5043.68
5032.53
5021.95
5012.71
5003.84
4996.14
4988.62
4982.14
4975.73
4970.25
4964.75
4960.13
4955.38
4951.4
4947.29
4943.94
4940.36
4937.41
4934.37
4931.87
4929.12
4926.96
4924.58
4922.79
4920.77
4919.25
4917.59
4916.22
4914.62
4913.47
4912.24
4911.1
4910.05
4909.18
4908.48
4907.81
4907.1
4906.52
4906.09
4905.49
4904.97
4904.69
4904.42
4904.25
4903.91
4903.73
4903.33
4903.3
4903.14
4903.33
4903.32
4903.71
4903.71
4904.28
4904.28
4905.06
4905.06
4905.96
4906.09
4907.09
4907.35
4908.43
4908.79
4910.01
4910.41
4911.89
4912.17
4914.51
4915.11
4974.62
5092.54
40255.3
8257.22
7559.44
7014.67
6604.81
6297.83
6065.37
5885.38
5743.56
5629.24
5536.07
5458.55
5393.79
5338.56
5291.62
5250.78
5215.62
5184.5
5157.48
5133.21
5112
5092.68
5075.75
5060.11
5046.39
5033.57
5022.33
5011.67
5002.35
4993.41
4985.64
4978.07
4971.53
4965.06
4959.53
4953.99
4949.32
4944.53
4940.52
4936.37
4932.99
4929.37
4926.4
4923.32
4920.8
4918.03
4915.85
4913.44
4911.62
4909.59
4908.05
4906.37
4904.99
4903.36
4902.2
4900.95
4899.8
4898.74
4897.85
4897.14
4896.45
4895.73
4895.13
4894.69
4894.09
4893.56
4893.27
4892.98
4892.81
4892.46
4892.28
4891.88
4891.83
4891.65
4891.82
4891.8
4892.18
4892.17
4892.71
4892.72
4893.48
4893.48
4894.36
4894.47
4895.47
4895.71
4896.78
4897.13
4898.34
4898.73
4900.2
4900.47
4902.81
4903.41
4965.36
5081.89
37826.4
8257.34
7559.6
7014.21
6603.29
6295.15
6061.59
5880.62
5737.97
5622.94
5529.15
5451.1
5385.89
5330.28
5282.99
5241.84
5206.42
5175.07
5147.84
5123.37
5102
5082.53
5065.46
5049.69
5035.86
5022.93
5011.6
5000.85
4991.45
4982.43
4974.6
4966.95
4960.36
4953.84
4948.25
4942.66
4937.95
4933.11
4929.07
4924.88
4921.46
4917.81
4914.81
4911.7
4909.15
4906.35
4904.14
4901.71
4899.87
4897.81
4896.25
4894.55
4893.15
4891.51
4890.33
4889.06
4887.91
4886.82
4885.92
4885.18
4884.49
4883.75
4883.14
4882.69
4882.09
4881.54
4881.24
4880.93
4880.75
4880.4
4880.21
4879.81
4879.74
4879.55
4879.71
4879.67
4880.02
4880.02
4880.54
4880.54
4881.27
4881.27
4882.14
4882.24
4883.22
4883.45
4884.51
4884.85
4886.05
4886.42
4887.88
4888.14
4890.48
4891.1
4955.55
5070.64
35507
8257.46
7559.78
7013.74
6601.72
6292.36
6057.65
5875.66
5732.12
5616.34
5521.91
5443.31
5377.62
5321.59
5273.94
5232.48
5196.77
5165.17
5137.72
5113.06
5091.5
5071.87
5054.66
5038.75
5024.8
5011.76
5000.33
4989.48
4979.99
4970.9
4962.99
4955.28
4948.62
4942.04
4936.4
4930.76
4926
4921.12
4917.03
4912.8
4909.34
4905.66
4902.62
4899.48
4896.9
4894.08
4891.84
4889.38
4887.52
4885.44
4883.85
4882.13
4880.71
4879.05
4877.85
4876.57
4875.4
4874.3
4873.38
4872.62
4871.92
4871.16
4870.54
4870.07
4869.46
4868.9
4868.59
4868.27
4868.08
4867.72
4867.53
4867.12
4867.04
4866.83
4866.97
4866.93
4867.25
4867.25
4867.73
4867.74
4868.44
4868.44
4869.29
4869.38
4870.35
4870.56
4871.61
4871.94
4873.12
4873.49
4874.93
4875.18
4877.52
4878.15
4945.16
5058.79
33298.9
8257.59
7559.96
7013.26
6600.1
6289.47
6053.55
5870.49
5726.03
5609.45
5514.35
5435.16
5368.98
5312.51
5264.48
5222.67
5186.68
5154.81
5127.13
5102.25
5080.51
5060.7
5043.34
5027.29
5013.21
5000.05
4988.51
4977.57
4967.99
4958.81
4950.82
4943.04
4936.32
4929.67
4923.98
4918.28
4913.46
4908.53
4904.4
4900.13
4896.63
4892.91
4889.84
4886.66
4884.06
4881.2
4878.94
4876.45
4874.56
4872.45
4870.84
4869.09
4867.66
4865.98
4864.76
4863.46
4862.27
4861.15
4860.22
4859.44
4858.72
4857.95
4857.32
4856.83
4856.22
4855.64
4855.32
4854.98
4854.78
4854.41
4854.22
4853.81
4853.72
4853.48
4853.6
4853.55
4853.84
4853.84
4854.3
4854.3
4854.98
4854.98
4855.81
4855.88
4856.84
4857.04
4858.08
4858.39
4859.56
4859.91
4861.35
4861.58
4863.92
4864.57
4934.14
5046.33
31203.6
8257.72
7560.16
7012.78
6598.44
6286.48
6049.3
5865.12
5719.69
5602.28
5506.47
5426.67
5359.96
5303.02
5254.59
5212.43
5176.13
5143.98
5116.05
5090.95
5069.01
5049.02
5031.5
5015.3
5001.08
4987.8
4976.15
4965.1
4955.43
4946.16
4938.09
4930.23
4923.44
4916.72
4910.97
4905.21
4900.34
4895.36
4891.18
4886.86
4883.32
4879.56
4876.46
4873.24
4870.6
4867.71
4865.43
4862.91
4860.99
4858.85
4857.21
4855.44
4853.99
4852.3
4851.05
4849.73
4848.53
4847.39
4846.43
4845.63
4844.9
4844.12
4843.47
4842.96
4842.35
4841.75
4841.41
4841.06
4840.86
4840.47
4840.27
4839.86
4839.76
4839.5
4839.6
4839.54
4839.81
4839.8
4840.23
4840.23
4840.88
4840.88
4841.68
4841.75
4842.69
4842.87
4843.9
4844.19
4845.35
4845.69
4847.11
4847.33
4849.67
4850.34
4922.45
5033.23
29222.2
8257.85
7560.36
7012.29
6596.73
6283.4
6044.9
5859.55
5713.11
5594.83
5498.27
5417.82
5350.56
5293.14
5244.28
5201.75
5165.12
5132.68
5104.49
5079.15
5057.01
5036.82
5019.13
5002.77
4988.42
4975
4963.24
4952.07
4942.3
4932.94
4924.79
4916.84
4909.98
4903.19
4897.37
4891.55
4886.63
4881.59
4877.37
4873
4869.41
4865.61
4862.47
4859.21
4856.54
4853.62
4851.3
4848.75
4846.8
4844.63
4842.97
4841.17
4839.7
4837.98
4836.71
4835.37
4834.16
4832.99
4832.02
4831.19
4830.45
4829.65
4828.99
4828.46
4827.84
4827.23
4826.87
4826.5
4826.29
4825.9
4825.69
4825.27
4825.16
4824.88
4824.96
4824.88
4825.13
4825.12
4825.52
4825.52
4826.13
4826.13
4826.91
4826.96
4827.89
4828.06
4829.07
4829.35
4830.49
4830.82
4832.22
4832.43
4834.77
4835.46
4910.04
5019.45
27355.9
8257.98
7560.58
7011.79
6594.98
6280.22
6040.36
5853.78
5706.29
5587.09
5489.75
5408.63
5340.78
5282.85
5233.56
5190.63
5153.66
5120.91
5092.45
5066.86
5044.5
5024.11
5006.24
4989.72
4975.21
4961.65
4949.77
4938.49
4928.61
4919.14
4910.9
4902.87
4895.93
4889.07
4883.18
4877.29
4872.32
4867.22
4862.95
4858.52
4854.9
4851.05
4847.86
4844.56
4841.86
4838.9
4836.55
4833.96
4831.99
4829.79
4828.1
4826.27
4824.78
4823.04
4821.74
4820.38
4819.15
4817.97
4816.97
4816.12
4815.36
4814.54
4813.86
4813.31
4812.69
4812.06
4811.69
4811.3
4811.08
4810.67
4810.46
4810.04
4809.91
4809.62
4809.68
4809.58
4809.8
4809.78
4810.15
4810.15
4810.73
4810.73
4811.49
4811.53
4812.43
4812.58
4813.58
4813.84
4814.97
4815.29
4816.68
4816.87
4819.21
4819.92
4896.87
5004.94
25605.7
8258.12
7560.81
7011.3
6593.19
6276.96
6035.68
5847.83
5699.23
5579.08
5480.92
5399.09
5330.63
5272.17
5222.41
5179.08
5141.74
5108.66
5079.92
5054.07
5031.48
5010.88
4992.82
4976.12
4961.46
4947.76
4935.74
4924.33
4914.35
4904.78
4896.44
4888.31
4881.3
4874.35
4868.4
4862.44
4857.4
4852.25
4847.92
4843.44
4839.76
4835.87
4832.64
4829.3
4826.56
4823.56
4821.18
4818.56
4816.55
4814.32
4812.6
4810.74
4809.22
4807.46
4806.14
4804.75
4803.51
4802.3
4801.28
4800.4
4799.63
4798.79
4798.1
4797.52
4796.9
4796.25
4795.86
4795.45
4795.22
4794.8
4794.58
4794.15
4794.01
4793.7
4793.74
4793.63
4793.82
4793.8
4794.13
4794.13
4794.67
4794.67
4795.4
4795.43
4796.31
4796.45
4797.43
4797.68
4798.79
4799.1
4800.46
4800.64
4802.98
4803.71
4882.87
4989.67
23972.4
8258.25
7561.05
7010.8
6591.37
6273.61
6030.85
5841.68
5691.93
5570.79
5471.78
5389.21
5320.11
5261.09
5210.84
5167.08
5129.36
5095.94
5066.9
5040.78
5017.95
4997.12
4978.87
4961.99
4947.16
4933.3
4921.15
4909.62
4899.52
4889.83
4881.4
4873.17
4866.07
4859.04
4853.02
4846.98
4841.88
4836.66
4832.28
4827.74
4824.01
4820.07
4816.8
4813.41
4810.63
4807.59
4805.17
4802.52
4800.47
4798.21
4796.46
4794.57
4793.03
4791.24
4789.89
4788.48
4787.22
4785.98
4784.95
4784.04
4783.25
4782.39
4781.68
4781.08
4780.45
4779.78
4779.38
4778.95
4778.7
4778.27
4778.05
4777.6
4777.46
4777.14
4777.15
4777.02
4777.18
4777.15
4777.45
4777.45
4777.95
4777.95
4778.65
4778.67
4779.53
4779.65
4780.61
4780.84
4781.94
4782.23
4783.58
4783.74
4786.07
4786.82
4868
4973.59
22453.8
8258.39
7561.3
7010.31
6589.51
6270.18
6025.9
5835.35
5684.4
5562.22
5462.32
5378.98
5309.22
5249.61
5198.86
5154.64
5116.52
5082.75
5053.4
5026.99
5003.9
4982.85
4964.39
4947.31
4932.32
4918.3
4906
4894.33
4884.11
4874.3
4865.77
4857.44
4850.25
4843.14
4837.03
4830.92
4825.75
4820.46
4816.02
4811.42
4807.64
4803.65
4800.33
4796.89
4794.07
4790.99
4788.54
4785.84
4783.76
4781.46
4779.68
4777.75
4776.19
4774.38
4773
4771.56
4770.28
4769.02
4767.96
4767.02
4766.21
4765.34
4764.6
4763.98
4763.34
4762.65
4762.24
4761.78
4761.53
4761.08
4760.85
4760.39
4760.24
4759.91
4759.89
4759.74
4759.88
4759.83
4760.1
4760.09
4760.56
4760.56
4761.23
4761.24
4762.08
4762.18
4763.12
4763.33
4764.41
4764.69
4766.02
4766.17
4768.49
4769.26
4852.24
4956.65
21045.1
8258.53
7561.56
7009.82
6587.63
6266.67
6020.82
5828.85
5676.65
5553.39
5452.57
5368.42
5297.96
5237.74
5186.46
5141.76
5103.24
5069.09
5039.41
5012.7
4989.35
4968.05
4949.37
4932.09
4916.92
4902.73
4890.28
4878.47
4868.12
4858.19
4849.55
4841.12
4833.83
4826.63
4820.44
4814.25
4809.01
4803.65
4799.14
4794.49
4790.65
4786.6
4783.23
4779.74
4776.88
4773.75
4771.26
4768.52
4766.41
4764.07
4762.25
4760.29
4758.7
4756.86
4755.46
4753.99
4752.68
4751.4
4750.32
4749.35
4748.52
4747.62
4746.87
4746.23
4745.57
4744.86
4744.43
4743.95
4743.69
4743.22
4742.98
4742.52
4742.35
4742.01
4741.97
4741.79
4741.9
4741.85
4742.08
4742.07
4742.5
4742.5
4743.13
4743.13
4743.94
4744.03
4744.95
4745.15
4746.2
4746.47
4747.78
4747.91
4750.23
4751.02
4835.58
4938.83
19741.4
8258.67
7561.84
7009.34
6585.72
6263.1
6015.62
5822.17
5668.68
5544.3
5442.51
5357.52
5286.33
5225.48
5173.64
5128.45
5089.49
5054.96
5024.93
4997.91
4974.28
4952.73
4933.82
4916.33
4900.97
4886.6
4874
4862.03
4851.55
4841.5
4832.74
4824.2
4816.82
4809.51
4803.24
4796.97
4791.65
4786.22
4781.65
4776.92
4773.03
4768.92
4765.5
4761.95
4759.05
4755.88
4753.35
4750.56
4748.41
4746.03
4744.18
4742.18
4740.56
4738.69
4737.26
4735.76
4734.44
4733.12
4732.01
4731.01
4730.17
4729.24
4728.47
4727.8
4727.14
4726.41
4725.96
4725.46
4725.18
4724.7
4724.45
4723.97
4723.79
4723.44
4723.38
4723.17
4723.26
4723.19
4723.39
4723.37
4723.76
4723.76
4724.35
4724.35
4725.13
4725.2
4726.1
4726.27
4727.31
4727.56
4728.85
4728.96
4731.28
4732.08
4818.02
4920.07
18537.7
8258.8
7562.12
7008.86
6583.79
6259.46
6010.3
5815.33
5660.5
5534.95
5432.15
5346.29
5274.35
5212.83
5160.41
5114.71
5075.3
5040.36
5009.97
4982.63
4958.71
4936.88
4917.74
4900.03
4884.47
4869.92
4857.15
4845.03
4834.41
4824.22
4815.34
4806.68
4799.2
4791.79
4785.44
4779.07
4773.67
4768.16
4763.53
4758.73
4754.78
4750.61
4747.14
4743.53
4740.58
4737.36
4734.79
4731.96
4729.76
4727.35
4725.45
4723.42
4721.77
4719.87
4718.4
4716.88
4715.53
4714.18
4713.05
4712.01
4711.15
4710.2
4709.41
4708.71
4708.04
4707.28
4706.82
4706.29
4705.99
4705.49
4705.24
4704.75
4704.56
4704.19
4704.11
4703.88
4703.94
4703.85
4704.03
4703.99
4704.34
4704.34
4704.88
4704.88
4705.63
4705.68
4706.56
4706.72
4707.73
4707.97
4709.23
4709.33
4711.64
4712.46
4799.53
4900.33
17428.3
8258.94
7562.42
7008.39
6581.84
6255.76
6004.88
5808.32
5652.1
5525.35
5421.51
5334.74
5262.01
5199.8
5146.78
5100.54
5060.66
5025.29
4994.53
4966.84
4942.62
4920.52
4901.13
4883.19
4867.42
4852.67
4839.73
4827.45
4816.68
4806.35
4797.35
4788.57
4780.98
4773.47
4767.02
4760.56
4755.08
4749.49
4744.78
4739.91
4735.89
4731.66
4728.14
4724.47
4721.47
4718.2
4715.58
4712.71
4710.47
4708.01
4706.07
4704
4702.32
4700.39
4698.89
4697.33
4695.96
4694.58
4693.42
4692.35
4691.46
4690.49
4689.68
4688.95
4688.26
4687.49
4687
4686.44
4686.13
4685.62
4685.35
4684.84
4684.64
4684.26
4684.16
4683.91
4683.95
4683.84
4683.98
4683.93
4684.23
4684.23
4684.73
4684.73
4685.44
4685.48
4686.33
4686.47
4687.46
4687.68
4688.91
4689
4691.3
4692.13
4780.12
4879.6
16407.8
8259.07
7562.72
7007.93
6579.88
6252.01
5999.35
5801.16
5643.51
5515.5
5410.58
5322.86
5249.32
5186.39
5132.74
5085.94
5045.57
5009.76
4978.61
4950.56
4926.03
4903.63
4883.98
4865.8
4849.83
4834.87
4821.75
4809.29
4798.37
4787.89
4778.76
4769.86
4762.15
4754.53
4747.99
4741.43
4735.87
4730.19
4725.41
4720.46
4716.38
4712.08
4708.5
4704.77
4701.71
4698.39
4695.72
4692.8
4690.52
4688.02
4686.04
4683.92
4682.21
4680.25
4678.71
4677.12
4675.72
4674.31
4673.13
4672.02
4671.1
4670.1
4669.27
4668.51
4667.81
4667.01
4666.51
4665.92
4665.59
4665.06
4664.78
4664.26
4664.04
4663.65
4663.53
4663.27
4663.27
4663.14
4663.25
4663.18
4663.45
4663.44
4663.89
4663.89
4664.56
4664.59
4665.41
4665.53
4666.5
4666.7
4667.9
4667.98
4670.27
4671.1
4759.77
4857.82
15470.3
8259.21
7563.04
7007.49
6577.91
6248.21
5993.72
5793.86
5634.72
5505.42
5399.37
5310.68
5236.28
5172.6
5118.3
5070.93
5030.04
4993.77
4962.21
4933.8
4908.93
4886.23
4866.31
4847.88
4831.68
4816.51
4803.2
4790.57
4779.49
4768.86
4759.59
4750.55
4742.73
4734.99
4728.35
4721.69
4716.04
4710.27
4705.41
4700.39
4696.23
4691.86
4688.22
4684.42
4681.31
4677.94
4675.22
4672.25
4669.92