/*--------------------------------*- C++ -*----------------------------------*\
| =========                 |                                                 |
| \\      /  F ield         | OpenFOAM: The Open Source CFD Toolbox           |
|  \\    /   O peration     | Version:  v2012                                 |
|   \\  /    A nd           | Website:  www.openfoam.com                      |
|    \\/     M anipulation  |                                                 |
\*---------------------------------------------------------------------------*/
FoamFile
{
    version     2.0;
    format      ascii;
    class       volVectorField;
    location    "42";
    object      wallShearStress;
}
// * * * * * * * * * * * * * * * * * * * * * * * * * * * * * * * * * * * * * //

dimensions      [0 2 -2 0 0 0 0];


internalField   uniform (0 0 0);

boundaryField
{
    inlet
    {
        type            calculated;
        value           uniform (0 0 0);
    }
    outlet
    {
        type            calculated;
        value           uniform (0 0 0);
    }
    topWall
    {
        type            calculated;
        value           nonuniform List<vector> 
545
(
(6.73467e-08 -4.74021e-08 0)
(6.73332e-08 -1.32629e-07 0)
(6.72835e-08 -2.21236e-07 0)
(6.72181e-08 -3.07265e-07 0)
(6.71406e-08 -3.89617e-07 0)
(6.70497e-08 -4.69349e-07 0)
(6.69462e-08 -5.47142e-07 0)
(6.68309e-08 -6.22956e-07 0)
(6.67048e-08 -6.96626e-07 0)
(6.6569e-08 -7.6815e-07 0)
(6.64242e-08 -8.37622e-07 0)
(6.62714e-08 -9.05121e-07 0)
(6.61114e-08 -9.70694e-07 0)
(6.5945e-08 -1.03438e-06 0)
(6.57729e-08 -1.09622e-06 0)
(6.55956e-08 -1.15628e-06 0)
(6.5414e-08 -1.21459e-06 0)
(6.52285e-08 -1.2712e-06 0)
(6.50397e-08 -1.32616e-06 0)
(6.48481e-08 -1.37952e-06 0)
(6.46542e-08 -1.43131e-06 0)
(6.44584e-08 -1.48159e-06 0)
(6.42612e-08 -1.53039e-06 0)
(6.4063e-08 -1.57776e-06 0)
(6.3864e-08 -1.62373e-06 0)
(6.36647e-08 -1.66836e-06 0)
(6.34653e-08 -1.71167e-06 0)
(6.32662e-08 -1.75371e-06 0)
(6.30675e-08 -1.79451e-06 0)
(6.28696e-08 -1.83411e-06 0)
(6.26726e-08 -1.87254e-06 0)
(6.24768e-08 -1.90985e-06 0)
(6.22823e-08 -1.94606e-06 0)
(6.20893e-08 -1.9812e-06 0)
(6.1898e-08 -2.01531e-06 0)
(6.17086e-08 -2.04842e-06 0)
(6.1521e-08 -2.08056e-06 0)
(6.13355e-08 -2.11175e-06 0)
(6.11521e-08 -2.14203e-06 0)
(6.0971e-08 -2.17143e-06 0)
(6.07922e-08 -2.19996e-06 0)
(6.06158e-08 -2.22767e-06 0)
(6.04418e-08 -2.25456e-06 0)
(6.02704e-08 -2.28067e-06 0)
(6.01015e-08 -2.30602e-06 0)
(5.99352e-08 -2.33063e-06 0)
(5.97715e-08 -2.35453e-06 0)
(5.96104e-08 -2.37774e-06 0)
(5.9452e-08 -2.40027e-06 0)
(5.92963e-08 -2.42215e-06 0)
(5.91433e-08 -2.4434e-06 0)
(5.89929e-08 -2.46403e-06 0)
(5.88453e-08 -2.48407e-06 0)
(5.87003e-08 -2.50354e-06 0)
(5.85579e-08 -2.52244e-06 0)
(5.84183e-08 -2.5408e-06 0)
(5.82813e-08 -2.55863e-06 0)
(5.81469e-08 -2.57596e-06 0)
(5.80151e-08 -2.59279e-06 0)
(5.78858e-08 -2.60913e-06 0)
(5.77592e-08 -2.62502e-06 0)
(5.7635e-08 -2.64044e-06 0)
(5.75134e-08 -2.65543e-06 0)
(5.73942e-08 -2.67e-06 0)
(5.72774e-08 -2.68415e-06 0)
(5.71631e-08 -2.6979e-06 0)
(5.70511e-08 -2.71126e-06 0)
(5.69415e-08 -2.72425e-06 0)
(5.68341e-08 -2.73687e-06 0)
(5.6729e-08 -2.74913e-06 0)
(5.66263e-08 -2.76105e-06 0)
(5.6525e-08 -2.77261e-06 0)
(5.64269e-08 -2.78374e-06 0)
(5.63328e-08 -2.79454e-06 0)
(5.62395e-08 -2.80521e-06 0)
(5.61464e-08 -2.81583e-06 0)
(5.60535e-08 -2.8264e-06 0)
(5.59606e-08 -2.83691e-06 0)
(5.58679e-08 -2.84735e-06 0)
(5.57753e-08 -2.85772e-06 0)
(5.56827e-08 -2.86803e-06 0)
(5.55903e-08 -2.87828e-06 0)
(5.54979e-08 -2.88846e-06 0)
(5.54057e-08 -2.89858e-06 0)
(5.53136e-08 -2.90863e-06 0)
(5.52216e-08 -2.91862e-06 0)
(5.51297e-08 -2.92855e-06 0)
(5.50379e-08 -2.93842e-06 0)
(5.49463e-08 -2.94823e-06 0)
(5.48548e-08 -2.95797e-06 0)
(5.47634e-08 -2.96766e-06 0)
(5.46721e-08 -2.97728e-06 0)
(5.45811e-08 -2.98685e-06 0)
(5.44898e-08 -2.99634e-06 0)
(5.44006e-08 -3.00582e-06 0)
(5.43038e-08 -3.01511e-06 0)
(5.42095e-08 -3.02359e-06 0)
(5.41313e-08 -3.03135e-06 0)
(5.40567e-08 -3.03886e-06 0)
(5.39825e-08 -3.04639e-06 0)
(5.39081e-08 -3.054e-06 0)
(5.38335e-08 -3.06163e-06 0)
(5.37585e-08 -3.06925e-06 0)
(5.36831e-08 -3.07688e-06 0)
(5.36074e-08 -3.08451e-06 0)
(5.35313e-08 -3.09215e-06 0)
(5.34549e-08 -3.0998e-06 0)
(5.33781e-08 -3.10745e-06 0)
(5.3301e-08 -3.11511e-06 0)
(5.32235e-08 -3.12278e-06 0)
(5.31457e-08 -3.13046e-06 0)
(5.30675e-08 -3.13814e-06 0)
(5.2989e-08 -3.14583e-06 0)
(5.29101e-08 -3.15352e-06 0)
(5.28308e-08 -3.16122e-06 0)
(5.27512e-08 -3.16893e-06 0)
(5.26712e-08 -3.17665e-06 0)
(5.25908e-08 -3.18437e-06 0)
(5.25101e-08 -3.1921e-06 0)
(5.2429e-08 -3.19983e-06 0)
(5.23476e-08 -3.20757e-06 0)
(5.22658e-08 -3.21532e-06 0)
(5.21836e-08 -3.22307e-06 0)
(5.2101e-08 -3.23083e-06 0)
(5.20181e-08 -3.2386e-06 0)
(5.19348e-08 -3.24637e-06 0)
(5.18512e-08 -3.25415e-06 0)
(5.17671e-08 -3.26193e-06 0)
(5.16827e-08 -3.26972e-06 0)
(5.15979e-08 -3.27751e-06 0)
(5.15128e-08 -3.28531e-06 0)
(5.14273e-08 -3.29311e-06 0)
(5.13414e-08 -3.30092e-06 0)
(5.12551e-08 -3.30874e-06 0)
(5.11684e-08 -3.31656e-06 0)
(5.10814e-08 -3.32439e-06 0)
(5.0994e-08 -3.33222e-06 0)
(5.09062e-08 -3.34005e-06 0)
(5.0818e-08 -3.34789e-06 0)
(5.07294e-08 -3.35574e-06 0)
(5.06405e-08 -3.36359e-06 0)
(5.05511e-08 -3.37145e-06 0)
(5.04614e-08 -3.3793e-06 0)
(5.03713e-08 -3.38717e-06 0)
(5.02808e-08 -3.39504e-06 0)
(5.019e-08 -3.40291e-06 0)
(5.00987e-08 -3.41079e-06 0)
(5.00071e-08 -3.41867e-06 0)
(4.9915e-08 -3.42655e-06 0)
(4.98226e-08 -3.43444e-06 0)
(4.97298e-08 -3.44234e-06 0)
(4.96366e-08 -3.45023e-06 0)
(4.9543e-08 -3.45814e-06 0)
(4.9449e-08 -3.46604e-06 0)
(4.93546e-08 -3.47395e-06 0)
(4.92598e-08 -3.48186e-06 0)
(4.91646e-08 -3.48978e-06 0)
(4.90691e-08 -3.49769e-06 0)
(4.89731e-08 -3.50561e-06 0)
(4.88768e-08 -3.51354e-06 0)
(4.878e-08 -3.52147e-06 0)
(4.86828e-08 -3.5294e-06 0)
(4.85853e-08 -3.53733e-06 0)
(4.84873e-08 -3.54527e-06 0)
(4.8389e-08 -3.55321e-06 0)
(4.82902e-08 -3.56115e-06 0)
(4.81911e-08 -3.56909e-06 0)
(4.80915e-08 -3.57704e-06 0)
(4.79916e-08 -3.58499e-06 0)
(4.78912e-08 -3.59294e-06 0)
(4.77905e-08 -3.60089e-06 0)
(4.76893e-08 -3.60884e-06 0)
(4.75878e-08 -3.6168e-06 0)
(4.74858e-08 -3.62476e-06 0)
(4.73834e-08 -3.63272e-06 0)
(4.72807e-08 -3.64068e-06 0)
(4.71775e-08 -3.64864e-06 0)
(4.70739e-08 -3.6566e-06 0)
(4.69699e-08 -3.66457e-06 0)
(4.68655e-08 -3.67253e-06 0)
(4.67607e-08 -3.6805e-06 0)
(4.66555e-08 -3.68847e-06 0)
(4.65499e-08 -3.69644e-06 0)
(4.64439e-08 -3.70441e-06 0)
(4.63375e-08 -3.71238e-06 0)
(4.62307e-08 -3.72035e-06 0)
(4.61234e-08 -3.72832e-06 0)
(4.60158e-08 -3.73629e-06 0)
(4.59077e-08 -3.74426e-06 0)
(4.57993e-08 -3.75223e-06 0)
(4.56904e-08 -3.7602e-06 0)
(4.55811e-08 -3.76817e-06 0)
(4.54714e-08 -3.77614e-06 0)
(4.53613e-08 -3.78411e-06 0)
(4.52508e-08 -3.79208e-06 0)
(4.51399e-08 -3.80005e-06 0)
(4.50286e-08 -3.80802e-06 0)
(4.49169e-08 -3.81598e-06 0)
(4.48048e-08 -3.82395e-06 0)
(4.46922e-08 -3.83191e-06 0)
(4.45793e-08 -3.83987e-06 0)
(4.44659e-08 -3.84784e-06 0)
(4.43522e-08 -3.8558e-06 0)
(4.4238e-08 -3.86375e-06 0)
(4.41234e-08 -3.87171e-06 0)
(4.40084e-08 -3.87966e-06 0)
(4.3893e-08 -3.88762e-06 0)
(4.37772e-08 -3.89557e-06 0)
(4.3661e-08 -3.90351e-06 0)
(4.35444e-08 -3.91146e-06 0)
(4.34274e-08 -3.9194e-06 0)
(4.331e-08 -3.92734e-06 0)
(4.31922e-08 -3.93528e-06 0)
(4.30739e-08 -3.94321e-06 0)
(4.29553e-08 -3.95114e-06 0)
(4.28363e-08 -3.95907e-06 0)
(4.27168e-08 -3.96699e-06 0)
(4.2597e-08 -3.97491e-06 0)
(4.24767e-08 -3.98283e-06 0)
(4.23561e-08 -3.99074e-06 0)
(4.2235e-08 -3.99865e-06 0)
(4.21135e-08 -4.00656e-06 0)
(4.19917e-08 -4.01446e-06 0)
(4.18694e-08 -4.02235e-06 0)
(4.17468e-08 -4.03025e-06 0)
(4.16237e-08 -4.03813e-06 0)
(4.15003e-08 -4.04602e-06 0)
(4.13764e-08 -4.05389e-06 0)
(4.12522e-08 -4.06177e-06 0)
(4.11275e-08 -4.06963e-06 0)
(4.10025e-08 -4.07749e-06 0)
(4.08771e-08 -4.08535e-06 0)
(4.07512e-08 -4.0932e-06 0)
(4.0625e-08 -4.10105e-06 0)
(4.04984e-08 -4.10889e-06 0)
(4.03714e-08 -4.11672e-06 0)
(4.0244e-08 -4.12455e-06 0)
(4.01163e-08 -4.13237e-06 0)
(3.99881e-08 -4.14018e-06 0)
(3.98595e-08 -4.14799e-06 0)
(3.97306e-08 -4.15579e-06 0)
(3.96013e-08 -4.16358e-06 0)
(3.94716e-08 -4.17137e-06 0)
(3.93415e-08 -4.17914e-06 0)
(3.9211e-08 -4.18692e-06 0)
(3.90802e-08 -4.19468e-06 0)
(3.8949e-08 -4.20244e-06 0)
(3.88174e-08 -4.21018e-06 0)
(3.86854e-08 -4.21792e-06 0)
(3.8553e-08 -4.22566e-06 0)
(3.84203e-08 -4.23338e-06 0)
(3.82872e-08 -4.24109e-06 0)
(3.81538e-08 -4.2488e-06 0)
(3.80199e-08 -4.2565e-06 0)
(3.78857e-08 -4.26418e-06 0)
(3.77512e-08 -4.27186e-06 0)
(3.76162e-08 -4.27953e-06 0)
(3.74809e-08 -4.28719e-06 0)
(3.73453e-08 -4.29484e-06 0)
(3.72093e-08 -4.30249e-06 0)
(3.70729e-08 -4.31012e-06 0)
(3.69362e-08 -4.31774e-06 0)
(3.67991e-08 -4.32535e-06 0)
(3.66616e-08 -4.33295e-06 0)
(3.65238e-08 -4.34053e-06 0)
(3.63858e-08 -4.34812e-06 0)
(3.62471e-08 -4.35567e-06 0)
(3.61096e-08 -4.36326e-06 0)
(3.59684e-08 -4.37074e-06 0)
(3.58272e-08 -4.37784e-06 0)
(3.5697e-08 -4.38467e-06 0)
(3.55717e-08 -4.3914e-06 0)
(3.54452e-08 -4.39816e-06 0)
(3.53176e-08 -4.40502e-06 0)
(3.51886e-08 -4.41194e-06 0)
(3.50583e-08 -4.4189e-06 0)
(3.49264e-08 -4.42591e-06 0)
(3.47931e-08 -4.43296e-06 0)
(3.46583e-08 -4.44007e-06 0)
(3.45221e-08 -4.44722e-06 0)
(3.43843e-08 -4.45443e-06 0)
(3.4245e-08 -4.46168e-06 0)
(3.41042e-08 -4.46898e-06 0)
(3.39619e-08 -4.47633e-06 0)
(3.38181e-08 -4.48373e-06 0)
(3.36727e-08 -4.49118e-06 0)
(3.35257e-08 -4.49867e-06 0)
(3.33772e-08 -4.50622e-06 0)
(3.3227e-08 -4.51381e-06 0)
(3.30753e-08 -4.52145e-06 0)
(3.29219e-08 -4.52913e-06 0)
(3.27669e-08 -4.53687e-06 0)
(3.26102e-08 -4.54465e-06 0)
(3.2452e-08 -4.55248e-06 0)
(3.2292e-08 -4.56035e-06 0)
(3.21304e-08 -4.56827e-06 0)
(3.1967e-08 -4.57624e-06 0)
(3.1802e-08 -4.58425e-06 0)
(3.16353e-08 -4.5923e-06 0)
(3.14668e-08 -4.6004e-06 0)
(3.12966e-08 -4.60855e-06 0)
(3.11247e-08 -4.61674e-06 0)
(3.0951e-08 -4.62497e-06 0)
(3.07756e-08 -4.63324e-06 0)
(3.05983e-08 -4.64155e-06 0)
(3.04193e-08 -4.64991e-06 0)
(3.02385e-08 -4.65831e-06 0)
(3.00558e-08 -4.66675e-06 0)
(2.98714e-08 -4.67523e-06 0)
(2.96851e-08 -4.68374e-06 0)
(2.9497e-08 -4.6923e-06 0)
(2.9307e-08 -4.70089e-06 0)
(2.91152e-08 -4.70952e-06 0)
(2.89216e-08 -4.71819e-06 0)
(2.8726e-08 -4.72689e-06 0)
(2.85286e-08 -4.73563e-06 0)
(2.83293e-08 -4.7444e-06 0)
(2.81281e-08 -4.7532e-06 0)
(2.79251e-08 -4.76203e-06 0)
(2.77201e-08 -4.7709e-06 0)
(2.75132e-08 -4.77979e-06 0)
(2.73044e-08 -4.78872e-06 0)
(2.70937e-08 -4.79767e-06 0)
(2.68811e-08 -4.80665e-06 0)
(2.66666e-08 -4.81565e-06 0)
(2.64501e-08 -4.82468e-06 0)
(2.62317e-08 -4.83374e-06 0)
(2.60114e-08 -4.84281e-06 0)
(2.57892e-08 -4.8519e-06 0)
(2.5565e-08 -4.86102e-06 0)
(2.53389e-08 -4.87015e-06 0)
(2.51109e-08 -4.8793e-06 0)
(2.4881e-08 -4.88847e-06 0)
(2.46491e-08 -4.89765e-06 0)
(2.44154e-08 -4.90684e-06 0)
(2.41797e-08 -4.91604e-06 0)
(2.39421e-08 -4.92525e-06 0)
(2.37026e-08 -4.93447e-06 0)
(2.34612e-08 -4.9437e-06 0)
(2.3218e-08 -4.95293e-06 0)
(2.29728e-08 -4.96216e-06 0)
(2.27258e-08 -4.97139e-06 0)
(2.2477e-08 -4.98062e-06 0)
(2.22263e-08 -4.98985e-06 0)
(2.19737e-08 -4.99907e-06 0)
(2.17194e-08 -5.00829e-06 0)
(2.14632e-08 -5.0175e-06 0)
(2.12053e-08 -5.0267e-06 0)
(2.09456e-08 -5.03588e-06 0)
(2.06841e-08 -5.04505e-06 0)
(2.04209e-08 -5.0542e-06 0)
(2.0156e-08 -5.06333e-06 0)
(1.98894e-08 -5.07244e-06 0)
(1.96212e-08 -5.08153e-06 0)
(1.93513e-08 -5.09059e-06 0)
(1.90798e-08 -5.09962e-06 0)
(1.88066e-08 -5.10861e-06 0)
(1.8532e-08 -5.11758e-06 0)
(1.82558e-08 -5.12651e-06 0)
(1.79781e-08 -5.1354e-06 0)
(1.7699e-08 -5.14424e-06 0)
(1.74184e-08 -5.15305e-06 0)
(1.71364e-08 -5.1618e-06 0)
(1.68531e-08 -5.17051e-06 0)
(1.65685e-08 -5.17916e-06 0)
(1.62826e-08 -5.18776e-06 0)
(1.59954e-08 -5.1963e-06 0)
(1.57071e-08 -5.20478e-06 0)
(1.54176e-08 -5.21319e-06 0)
(1.5127e-08 -5.22154e-06 0)
(1.48354e-08 -5.22981e-06 0)
(1.45427e-08 -5.23802e-06 0)
(1.42491e-08 -5.24614e-06 0)
(1.39547e-08 -5.25419e-06 0)
(1.36594e-08 -5.26214e-06 0)
(1.33633e-08 -5.27002e-06 0)
(1.30664e-08 -5.27781e-06 0)
(1.2769e-08 -5.28551e-06 0)
(1.24709e-08 -5.2931e-06 0)
(1.21723e-08 -5.3006e-06 0)
(1.18732e-08 -5.30799e-06 0)
(1.15737e-08 -5.31528e-06 0)
(1.12739e-08 -5.32246e-06 0)
(1.09738e-08 -5.32953e-06 0)
(1.06735e-08 -5.33648e-06 0)
(1.03731e-08 -5.34331e-06 0)
(1.00726e-08 -5.35001e-06 0)
(9.77223e-09 -5.3566e-06 0)
(9.47191e-09 -5.36304e-06 0)
(9.17181e-09 -5.36936e-06 0)
(8.87195e-09 -5.37553e-06 0)
(8.57247e-09 -5.38157e-06 0)
(8.27341e-09 -5.38746e-06 0)
(7.97489e-09 -5.39321e-06 0)
(7.67696e-09 -5.39879e-06 0)
(7.37975e-09 -5.40424e-06 0)
(7.08331e-09 -5.40951e-06 0)
(6.78776e-09 -5.41463e-06 0)
(6.49317e-09 -5.41958e-06 0)
(6.19966e-09 -5.42437e-06 0)
(5.90728e-09 -5.42897e-06 0)
(5.61617e-09 -5.43341e-06 0)
(5.32639e-09 -5.43766e-06 0)
(5.03807e-09 -5.44174e-06 0)
(4.75128e-09 -5.44562e-06 0)
(4.46614e-09 -5.44933e-06 0)
(4.18272e-09 -5.45283e-06 0)
(3.90115e-09 -5.45615e-06 0)
(3.6215e-09 -5.45925e-06 0)
(3.34391e-09 -5.46217e-06 0)
(3.06844e-09 -5.46487e-06 0)
(2.79522e-09 -5.46738e-06 0)
(2.52433e-09 -5.46966e-06 0)
(2.25589e-09 -5.47175e-06 0)
(1.98999e-09 -5.4736e-06 0)
(1.72673e-09 -5.47526e-06 0)
(1.46622e-09 -5.47667e-06 0)
(1.20856e-09 -5.47789e-06 0)
(9.53843e-10 -5.47885e-06 0)
(7.02173e-10 -5.47961e-06 0)
(4.53645e-10 -5.48012e-06 0)
(2.08359e-10 -5.48042e-06 0)
(-3.3589e-11 -5.48047e-06 0)
(-2.72105e-10 -5.4803e-06 0)
(-5.07096e-10 -5.47987e-06 0)
(-7.38472e-10 -5.47923e-06 0)
(-9.66139e-10 -5.47832e-06 0)
(-1.19002e-09 -5.4772e-06 0)
(-1.41001e-09 -5.47581e-06 0)
(-1.62606e-09 -5.4742e-06 0)
(-1.83805e-09 -5.47232e-06 0)
(-2.04593e-09 -5.47022e-06 0)
(-2.24961e-09 -5.46786e-06 0)
(-2.44903e-09 -5.46527e-06 0)
(-2.6441e-09 -5.46241e-06 0)
(-2.83478e-09 -5.45933e-06 0)
(-3.02097e-09 -5.45598e-06 0)
(-3.20264e-09 -5.4524e-06 0)
(-3.3797e-09 -5.44856e-06 0)
(-3.55212e-09 -5.44449e-06 0)
(-3.71981e-09 -5.44016e-06 0)
(-3.88275e-09 -5.43561e-06 0)
(-4.04085e-09 -5.43079e-06 0)
(-4.1941e-09 -5.42575e-06 0)
(-4.3424e-09 -5.42044e-06 0)
(-4.48575e-09 -5.41493e-06 0)
(-4.62402e-09 -5.40914e-06 0)
(-4.75736e-09 -5.40317e-06 0)
(-4.8853e-09 -5.39687e-06 0)
(-5.01071e-09 -5.39042e-06 0)
(-5.13825e-09 -5.38304e-06 0)
(-5.26806e-09 -5.3746e-06 0)
(-5.39405e-09 -5.36588e-06 0)
(-5.51164e-09 -5.35705e-06 0)
(-5.62088e-09 -5.34799e-06 0)
(-5.72197e-09 -5.3388e-06 0)
(-5.81504e-09 -5.32941e-06 0)
(-5.90038e-09 -5.31993e-06 0)
(-5.97816e-09 -5.31026e-06 0)
(-6.04872e-09 -5.30052e-06 0)
(-6.11223e-09 -5.29063e-06 0)
(-6.16902e-09 -5.28069e-06 0)
(-6.21923e-09 -5.27062e-06 0)
(-6.26319e-09 -5.26051e-06 0)
(-6.30101e-09 -5.2503e-06 0)
(-6.33303e-09 -5.24007e-06 0)
(-6.35934e-09 -5.22975e-06 0)
(-6.38026e-09 -5.21944e-06 0)
(-6.39586e-09 -5.20906e-06 0)
(-6.40645e-09 -5.1987e-06 0)
(-6.41209e-09 -5.18828e-06 0)
(-6.41307e-09 -5.1779e-06 0)
(-6.40945e-09 -5.16748e-06 0)
(-6.4015e-09 -5.15711e-06 0)
(-6.38925e-09 -5.14672e-06 0)
(-6.37296e-09 -5.13639e-06 0)
(-6.35267e-09 -5.12605e-06 0)
(-6.32862e-09 -5.11579e-06 0)
(-6.30083e-09 -5.10553e-06 0)
(-6.26953e-09 -5.09536e-06 0)
(-6.23473e-09 -5.0852e-06 0)
(-6.19667e-09 -5.07515e-06 0)
(-6.15532e-09 -5.06511e-06 0)
(-6.11092e-09 -5.05519e-06 0)
(-6.06345e-09 -5.04529e-06 0)
(-6.01312e-09 -5.03553e-06 0)
(-5.95991e-09 -5.0258e-06 0)
(-5.90402e-09 -5.0162e-06 0)
(-5.84543e-09 -5.00666e-06 0)
(-5.78432e-09 -4.99725e-06 0)
(-5.72067e-09 -4.9879e-06 0)
(-5.65465e-09 -4.9787e-06 0)
(-5.58624e-09 -4.96957e-06 0)
(-5.51561e-09 -4.96059e-06 0)
(-5.44273e-09 -4.95168e-06 0)
(-5.36774e-09 -4.94294e-06 0)
(-5.29063e-09 -4.93428e-06 0)
(-5.21154e-09 -4.92579e-06 0)
(-5.13044e-09 -4.91738e-06 0)
(-5.04747e-09 -4.90915e-06 0)
(-4.96259e-09 -4.90102e-06 0)
(-4.87595e-09 -4.89306e-06 0)
(-4.7875e-09 -4.88521e-06 0)
(-4.69737e-09 -4.87754e-06 0)
(-4.60554e-09 -4.86997e-06 0)
(-4.51212e-09 -4.8626e-06 0)
(-4.41707e-09 -4.85534e-06 0)
(-4.32052e-09 -4.84828e-06 0)
(-4.22244e-09 -4.84133e-06 0)
(-4.12292e-09 -4.83458e-06 0)
(-4.02195e-09 -4.82796e-06 0)
(-3.91963e-09 -4.82154e-06 0)
(-3.81593e-09 -4.81525e-06 0)
(-3.71096e-09 -4.80916e-06 0)
(-3.60468e-09 -4.80321e-06 0)
(-3.4972e-09 -4.79747e-06 0)
(-3.3885e-09 -4.79187e-06 0)
(-3.27866e-09 -4.78647e-06 0)
(-3.16768e-09 -4.78123e-06 0)
(-3.05563e-09 -4.77619e-06 0)
(-2.94252e-09 -4.77131e-06 0)
(-2.8284e-09 -4.76664e-06 0)
(-2.7133e-09 -4.76213e-06 0)
(-2.59727e-09 -4.75783e-06 0)
(-2.48032e-09 -4.7537e-06 0)
(-2.36252e-09 -4.74978e-06 0)
(-2.24387e-09 -4.74603e-06 0)
(-2.12442e-09 -4.74249e-06 0)
(-2.00421e-09 -4.73913e-06 0)
(-1.88328e-09 -4.73597e-06 0)
(-1.76164e-09 -4.733e-06 0)
(-1.63936e-09 -4.73025e-06 0)
(-1.51645e-09 -4.72767e-06 0)
(-1.39297e-09 -4.72531e-06 0)
(-1.26896e-09 -4.72313e-06 0)
(-1.14449e-09 -4.7212e-06 0)
(-1.01964e-09 -4.71933e-06 0)
(-8.94524e-10 -4.7181e-06 0)
(-7.69196e-10 -4.71564e-06 0)
(-6.44037e-10 -4.71807e-06 0)
(-5.18363e-10 -4.70486e-06 0)
(-3.94574e-10 -4.7424e-06 0)
(-2.64922e-10 -4.5999e-06 0)
(-1.52434e-10 -4.97736e-06 0)
(-5.45235e-11 -4.34709e-06 0)
)
;
    }
    bottomWall
    {
        type            calculated;
        value           nonuniform List<vector> 
449
(
(-52.7259 -0.95581 0)
(-34.7516 -0.00279973 0)
(-34.3603 -0.000255046 0)
(-32.9969 -0.000363677 0)
(-31.8705 -0.000315414 0)
(-30.8336 -0.000284423 0)
(-29.9158 -0.000249459 0)
(-29.1154 -0.000217519 0)
(-28.4143 -0.000190929 0)
(-27.7946 -0.000169139 0)
(-27.2416 -0.000151109 0)
(-26.7446 -0.000135994 0)
(-26.2945 -0.000123328 0)
(-25.8837 -0.000112631 0)
(-25.5065 -0.000103403 0)
(-25.1586 -9.5392e-05 0)
(-24.836 -8.83978e-05 0)
(-24.5358 -8.226e-05 0)
(-24.2552 -7.68511e-05 0)
(-23.992 -7.20263e-05 0)
(-23.7443 -6.76957e-05 0)
(-23.5106 -6.37998e-05 0)
(-23.2896 -6.02858e-05 0)
(-23.08 -5.70967e-05 0)
(-22.8808 -5.41953e-05 0)
(-22.6911 -5.15363e-05 0)
(-22.5101 -4.90987e-05 0)
(-22.3372 -4.68593e-05 0)
(-22.1715 -4.47954e-05 0)
(-22.0127 -4.28817e-05 0)
(-21.8602 -4.11065e-05 0)
(-21.7136 -3.94549e-05 0)
(-21.5724 -3.79177e-05 0)
(-21.4364 -3.64798e-05 0)
(-21.3051 -3.51343e-05 0)
(-21.1783 -3.3874e-05 0)
(-21.0557 -3.26905e-05 0)
(-20.9371 -3.15795e-05 0)
(-20.8221 -3.05365e-05 0)
(-20.7107 -2.955e-05 0)
(-20.6025 -2.8617e-05 0)
(-20.4975 -2.77351e-05 0)
(-20.3954 -2.69031e-05 0)
(-20.2962 -2.6106e-05 0)
(-20.1996 -2.53436e-05 0)
(-20.1056 -2.46191e-05 0)
(-20.014 -2.39252e-05 0)
(-19.9249 -2.32622e-05 0)
(-19.8379 -2.26279e-05 0)
(-19.7531 -2.20235e-05 0)
(-19.6704 -2.14451e-05 0)
(-19.5896 -2.08913e-05 0)
(-19.5107 -2.03651e-05 0)
(-19.4336 -1.98594e-05 0)
(-19.3582 -1.93769e-05 0)
(-19.2844 -1.89155e-05 0)
(-19.2122 -1.84725e-05 0)
(-19.1416 -1.80494e-05 0)
(-19.0723 -1.76419e-05 0)
(-19.0045 -1.72512e-05 0)
(-18.938 -1.68756e-05 0)
(-18.8728 -1.6514e-05 0)
(-18.8088 -1.61668e-05 0)
(-18.746 -1.58312e-05 0)
(-18.6843 -1.55096e-05 0)
(-18.6238 -1.51971e-05 0)
(-18.5643 -1.48975e-05 0)
(-18.5058 -1.4606e-05 0)
(-18.4484 -1.43258e-05 0)
(-18.3919 -1.40534e-05 0)
(-18.3363 -1.37901e-05 0)
(-18.2817 -1.35355e-05 0)
(-18.2279 -1.32873e-05 0)
(-18.175 -1.30485e-05 0)
(-18.1229 -1.28147e-05 0)
(-18.0716 -1.25898e-05 0)
(-18.0211 -1.237e-05 0)
(-17.9713 -1.2157e-05 0)
(-17.9223 -1.19504e-05 0)
(-17.874 -1.17485e-05 0)
(-17.8264 -1.15534e-05 0)
(-17.7795 -1.13625e-05 0)
(-17.7332 -1.11774e-05 0)
(-17.6876 -1.09972e-05 0)
(-17.6426 -1.08212e-05 0)
(-17.5982 -1.06505e-05 0)
(-17.5544 -1.04836e-05 0)
(-17.5112 -1.03211e-05 0)
(-17.4686 -1.01629e-05 0)
(-17.4265 -1.00083e-05 0)
(-17.3849 -9.8579e-06 0)
(-17.3439 -9.71098e-06 0)
(-17.3034 -9.56758e-06 0)
(-17.2634 -9.42773e-06 0)
(-17.2239 -9.29111e-06 0)
(-17.1848 -9.15771e-06 0)
(-17.1463 -9.02763e-06 0)
(-17.1081 -8.90022e-06 0)
(-17.0705 -8.77613e-06 0)
(-17.0332 -8.65461e-06 0)
(-16.9964 -8.5358e-06 0)
(-16.96 -8.41965e-06 0)
(-16.924 -8.30618e-06 0)
(-16.8885 -8.19487e-06 0)
(-16.8533 -8.08632e-06 0)
(-16.8185 -7.97995e-06 0)
(-16.784 -7.8757e-06 0)
(-16.75 -7.77392e-06 0)
(-16.7163 -7.67414e-06 0)
(-16.6829 -7.57631e-06 0)
(-16.6499 -7.48065e-06 0)
(-16.6172 -7.38688e-06 0)
(-16.5849 -7.29478e-06 0)
(-16.5529 -7.20467e-06 0)
(-16.5212 -7.1164e-06 0)
(-16.4898 -7.02971e-06 0)
(-16.4587 -6.94476e-06 0)
(-16.428 -6.86168e-06 0)
(-16.3975 -6.78002e-06 0)
(-16.3673 -6.69984e-06 0)
(-16.3374 -6.62121e-06 0)
(-16.3078 -6.54409e-06 0)
(-16.2784 -6.46821e-06 0)
(-16.2494 -6.39387e-06 0)
(-16.2206 -6.3208e-06 0)
(-16.192 -6.24906e-06 0)
(-16.1637 -6.17846e-06 0)
(-16.1357 -6.1094e-06 0)
(-16.1079 -6.04131e-06 0)
(-16.0803 -5.97466e-06 0)
(-16.053 -5.90899e-06 0)
(-16.026 -5.84464e-06 0)
(-15.9991 -5.7812e-06 0)
(-15.9725 -5.71892e-06 0)
(-15.9461 -5.65755e-06 0)
(-15.92 -5.59725e-06 0)
(-15.894 -5.53792e-06 0)
(-15.8683 -5.47965e-06 0)
(-15.8427 -5.42226e-06 0)
(-15.8174 -5.36587e-06 0)
(-15.7923 -5.31043e-06 0)
(-15.7674 -5.25586e-06 0)
(-15.7426 -5.20219e-06 0)
(-15.7181 -5.14924e-06 0)
(-15.6938 -5.09737e-06 0)
(-15.6697 -5.04601e-06 0)
(-15.6457 -4.99573e-06 0)
(-15.6219 -4.94579e-06 0)
(-15.5983 -4.8971e-06 0)
(-15.5749 -4.84856e-06 0)
(-15.5516 -4.80133e-06 0)
(-15.5286 -4.7542e-06 0)
(-15.5057 -4.70843e-06 0)
(-15.4829 -4.6628e-06 0)
(-15.4604 -4.61835e-06 0)
(-15.438 -4.57398e-06 0)
(-15.4157 -4.53082e-06 0)
(-15.3936 -4.48793e-06 0)
(-15.3717 -4.44596e-06 0)
(-15.3499 -4.40416e-06 0)
(-15.3283 -4.36339e-06 0)
(-15.3068 -4.32288e-06 0)
(-15.2855 -4.28322e-06 0)
(-15.2643 -4.2438e-06 0)
(-15.2433 -4.20509e-06 0)
(-15.2224 -4.16677e-06 0)
(-15.2017 -4.12921e-06 0)
(-15.1811 -4.09197e-06 0)
(-15.1606 -4.05543e-06 0)
(-15.1403 -4.01918e-06 0)
(-15.1201 -3.98377e-06 0)
(-15.1 -3.94835e-06 0)
(-15.08 -3.91261e-06 0)
(-15.0613 -3.88373e-06 0)
(-15.0437 -3.85666e-06 0)
(-15.0261 -3.82485e-06 0)
(-15.0084 -3.79351e-06 0)
(-14.9906 -3.76293e-06 0)
(-14.9728 -3.73215e-06 0)
(-14.955 -3.70194e-06 0)
(-14.9371 -3.67177e-06 0)
(-14.9191 -3.64194e-06 0)
(-14.9012 -3.612e-06 0)
(-14.8831 -3.58243e-06 0)
(-14.8651 -3.55279e-06 0)
(-14.8469 -3.52355e-06 0)
(-14.8288 -3.49412e-06 0)
(-14.8105 -3.46512e-06 0)
(-14.7923 -3.43594e-06 0)
(-14.774 -3.40735e-06 0)
(-14.7556 -3.37851e-06 0)
(-14.7373 -3.34992e-06 0)
(-14.7188 -3.32131e-06 0)
(-14.7004 -3.29301e-06 0)
(-14.6819 -3.26474e-06 0)
(-14.6633 -3.23666e-06 0)
(-14.6447 -3.2087e-06 0)
(-14.6261 -3.1809e-06 0)
(-14.6074 -3.15324e-06 0)
(-14.5887 -3.12572e-06 0)
(-14.57 -3.09827e-06 0)
(-14.5512 -3.07093e-06 0)
(-14.5324 -3.04373e-06 0)
(-14.5135 -3.01672e-06 0)
(-14.4946 -2.98977e-06 0)
(-14.4757 -2.96304e-06 0)
(-14.4567 -2.93636e-06 0)
(-14.4377 -2.90986e-06 0)
(-14.4187 -2.88344e-06 0)
(-14.3997 -2.85725e-06 0)
(-14.3806 -2.83124e-06 0)
(-14.3615 -2.80529e-06 0)
(-14.3423 -2.77955e-06 0)
(-14.3231 -2.75391e-06 0)
(-14.3039 -2.72854e-06 0)
(-14.2847 -2.70305e-06 0)
(-14.2654 -2.67791e-06 0)
(-14.2461 -2.65261e-06 0)
(-14.2268 -2.62784e-06 0)
(-14.2075 -2.60289e-06 0)
(-14.1881 -2.57834e-06 0)
(-14.1687 -2.55369e-06 0)
(-14.1493 -2.52937e-06 0)
(-14.1298 -2.50508e-06 0)
(-14.1104 -2.4811e-06 0)
(-14.0909 -2.45699e-06 0)
(-14.0714 -2.43349e-06 0)
(-14.0519 -2.40963e-06 0)
(-14.0323 -2.38635e-06 0)
(-14.0127 -2.36287e-06 0)
(-13.9932 -2.33978e-06 0)
(-13.9736 -2.31664e-06 0)
(-13.954 -2.29384e-06 0)
(-13.9343 -2.27098e-06 0)
(-13.9147 -2.24845e-06 0)
(-13.895 -2.22591e-06 0)
(-13.8753 -2.20372e-06 0)
(-13.8556 -2.18147e-06 0)
(-13.8359 -2.1596e-06 0)
(-13.8161 -2.13781e-06 0)
(-13.7964 -2.11622e-06 0)
(-13.7767 -2.09468e-06 0)
(-13.7569 -2.07337e-06 0)
(-13.7371 -2.05213e-06 0)
(-13.7174 -2.03101e-06 0)
(-13.6975 -2.01016e-06 0)
(-13.6778 -1.98929e-06 0)
(-13.6579 -1.96874e-06 0)
(-13.6381 -1.94825e-06 0)
(-13.6183 -1.9281e-06 0)
(-13.5985 -1.90783e-06 0)
(-13.5786 -1.88798e-06 0)
(-13.5588 -1.86797e-06 0)
(-13.5389 -1.84849e-06 0)
(-13.5191 -1.82872e-06 0)
(-13.4992 -1.80958e-06 0)
(-13.4794 -1.79007e-06 0)
(-13.4595 -1.77122e-06 0)
(-13.4397 -1.75201e-06 0)
(-13.4198 -1.73346e-06 0)
(-13.4 -1.71464e-06 0)
(-13.3801 -1.69638e-06 0)
(-13.3602 -1.67778e-06 0)
(-13.3404 -1.65977e-06 0)
(-13.3205 -1.6416e-06 0)
(-13.3007 -1.62389e-06 0)
(-13.2808 -1.60597e-06 0)
(-13.261 -1.58861e-06 0)
(-13.2411 -1.57108e-06 0)
(-13.2213 -1.55391e-06 0)
(-13.2015 -1.53655e-06 0)
(-13.1817 -1.51974e-06 0)
(-13.1618 -1.5028e-06 0)
(-13.142 -1.48631e-06 0)
(-13.1222 -1.46948e-06 0)
(-13.1024 -1.45319e-06 0)
(-13.0826 -1.43683e-06 0)
(-13.0629 -1.42075e-06 0)
(-13.0431 -1.4047e-06 0)
(-13.0234 -1.38896e-06 0)
(-13.0036 -1.37328e-06 0)
(-12.9839 -1.35771e-06 0)
(-12.9641 -1.34224e-06 0)
(-12.9444 -1.32703e-06 0)
(-12.9247 -1.31188e-06 0)
(-12.9051 -1.29689e-06 0)
(-12.8853 -1.28196e-06 0)
(-12.8657 -1.26729e-06 0)
(-12.846 -1.25274e-06 0)
(-12.8265 -1.23832e-06 0)
(-12.8068 -1.22409e-06 0)
(-12.7872 -1.20985e-06 0)
(-12.7676 -1.19578e-06 0)
(-12.7481 -1.18191e-06 0)
(-12.7285 -1.16814e-06 0)
(-12.709 -1.15447e-06 0)
(-12.6895 -1.14105e-06 0)
(-12.67 -1.12755e-06 0)
(-12.6505 -1.11444e-06 0)
(-12.6311 -1.10124e-06 0)
(-12.6117 -1.08827e-06 0)
(-12.5923 -1.07539e-06 0)
(-12.5729 -1.06268e-06 0)
(-12.5535 -1.04989e-06 0)
(-12.5342 -1.03741e-06 0)
(-12.5149 -1.02497e-06 0)
(-12.4955 -1.01297e-06 0)
(-12.4763 -1.00068e-06 0)
(-12.457 -9.88789e-07 0)
(-12.4378 -9.76732e-07 0)
(-12.4186 -9.6508e-07 0)
(-12.3995 -9.53317e-07 0)
(-12.3803 -9.41922e-07 0)
(-12.3612 -9.30297e-07 0)
(-12.3421 -9.19153e-07 0)
(-12.323 -9.07878e-07 0)
(-12.304 -8.96965e-07 0)
(-12.285 -8.85942e-07 0)
(-12.266 -8.75262e-07 0)
(-12.247 -8.64468e-07 0)
(-12.2281 -8.54043e-07 0)
(-12.2092 -8.43442e-07 0)
(-12.1903 -8.33141e-07 0)
(-12.1715 -8.22775e-07 0)
(-12.1527 -8.12772e-07 0)
(-12.1339 -8.02622e-07 0)
(-12.1152 -7.92733e-07 0)
(-12.0964 -7.82788e-07 0)
(-12.0778 -7.73161e-07 0)
(-12.0591 -7.63477e-07 0)
(-12.0405 -7.53985e-07 0)
(-12.0219 -7.44488e-07 0)
(-12.0034 -7.35299e-07 0)
(-11.9848 -7.26036e-07 0)
(-11.9663 -7.16958e-07 0)
(-11.9478 -7.07933e-07 0)
(-11.9295 -6.99117e-07 0)
(-11.911 -6.90349e-07 0)
(-11.8927 -6.81636e-07 0)
(-11.8744 -6.73093e-07 0)
(-11.8561 -6.64542e-07 0)
(-11.8378 -6.56136e-07 0)
(-11.8196 -6.47765e-07 0)
(-11.8014 -6.3961e-07 0)
(-11.7833 -6.31401e-07 0)
(-11.7652 -6.23438e-07 0)
(-11.7471 -6.15421e-07 0)
(-11.7291 -6.07587e-07 0)
(-11.7111 -5.99788e-07 0)
(-11.6931 -5.92047e-07 0)
(-11.6752 -5.84453e-07 0)
(-11.6573 -5.76853e-07 0)
(-11.6395 -5.69474e-07 0)
(-11.6217 -5.61779e-07 0)
(-11.602 -5.52699e-07 0)
(-11.5805 -5.43626e-07 0)
(-11.5594 -5.35605e-07 0)
(-11.5386 -5.27782e-07 0)
(-11.5181 -5.19945e-07 0)
(-11.4979 -5.12389e-07 0)
(-11.478 -5.04934e-07 0)
(-11.4584 -4.97644e-07 0)
(-11.4391 -4.90608e-07 0)
(-11.42 -4.83637e-07 0)
(-11.4012 -4.76847e-07 0)
(-11.3826 -4.70219e-07 0)
(-11.3644 -4.63781e-07 0)
(-11.3463 -4.57415e-07 0)
(-11.3286 -4.51303e-07 0)
(-11.311 -4.45262e-07 0)
(-11.2938 -4.39364e-07 0)
(-11.2766 -4.33608e-07 0)
(-11.2598 -4.27945e-07 0)
(-11.2431 -4.22487e-07 0)
(-11.2268 -4.17051e-07 0)
(-11.2105 -4.11806e-07 0)
(-11.1945 -4.06565e-07 0)
(-11.1787 -4.01596e-07 0)
(-11.1631 -3.96584e-07 0)
(-11.1476 -3.91859e-07 0)
(-11.1324 -3.87085e-07 0)
(-11.1173 -3.82443e-07 0)
(-11.1025 -3.7791e-07 0)
(-11.0878 -3.73462e-07 0)
(-11.0733 -3.69063e-07 0)
(-11.0589 -3.64833e-07 0)
(-11.0447 -3.60681e-07 0)
(-11.0307 -3.56626e-07 0)
(-11.0168 -3.52629e-07 0)
(-11.0031 -3.48661e-07 0)
(-10.9895 -3.44794e-07 0)
(-10.9761 -3.40994e-07 0)
(-10.9628 -3.37277e-07 0)
(-10.9497 -3.33618e-07 0)
(-10.9367 -3.30012e-07 0)
(-10.9239 -3.2651e-07 0)
(-10.9112 -3.23084e-07 0)
(-10.8986 -3.19664e-07 0)
(-10.8862 -3.1637e-07 0)
(-10.8738 -3.13099e-07 0)
(-10.8617 -3.09935e-07 0)
(-10.8496 -3.06802e-07 0)
(-10.8376 -3.03734e-07 0)
(-10.8258 -3.00709e-07 0)
(-10.8141 -2.9779e-07 0)
(-10.8025 -2.94896e-07 0)
(-10.791 -2.92005e-07 0)
(-10.7796 -2.89217e-07 0)
(-10.7684 -2.86468e-07 0)
(-10.7572 -2.83726e-07 0)
(-10.7462 -2.81094e-07 0)
(-10.7352 -2.78428e-07 0)
(-10.7244 -2.75863e-07 0)
(-10.7136 -2.73318e-07 0)
(-10.703 -2.70873e-07 0)
(-10.6924 -2.68356e-07 0)
(-10.682 -2.65975e-07 0)
(-10.6716 -2.63523e-07 0)
(-10.6614 -2.6127e-07 0)
(-10.6512 -2.58868e-07 0)
(-10.6411 -2.567e-07 0)
(-10.6311 -2.5439e-07 0)
(-10.6212 -2.52337e-07 0)
(-10.6114 -2.50007e-07 0)
(-10.6017 -2.48154e-07 0)
(-10.5919 -2.45904e-07 0)
(-10.5824 -2.4414e-07 0)
(-10.5728 -2.41907e-07 0)
(-10.5635 -2.40267e-07 0)
(-10.554 -2.38099e-07 0)
(-10.5449 -2.36617e-07 0)
(-10.5355 -2.34415e-07 0)
(-10.5265 -2.33013e-07 0)
(-10.5173 -2.30856e-07 0)
(-10.5085 -2.29566e-07 0)
(-10.4993 -2.27627e-07 0)
(-10.4907 -2.26266e-07 0)
(-10.4816 -2.24753e-07 0)
(-10.4731 -2.22912e-07 0)
(-10.4642 -2.22719e-07 0)
(-10.4556 -2.18927e-07 0)
(-10.447 -2.22853e-07 0)
(-10.4382 -2.12043e-07 0)
(-10.4305 -2.2894e-07 0)
(-10.4202 -1.96037e-07 0)
(-10.4152 -2.472e-07 0)
(-10.4007 -1.64623e-07 0)
(-10.4026 -2.21312e-07 0)
(-10.383 -2.56454e-07 0)
)
;
    }
    symmetry
    {
        type            symmetryPlane;
    }
    frontAndBack
    {
        type            empty;
    }
}


// ************************************************************************* //
