/*--------------------------------*- C++ -*----------------------------------*\
| =========                 |                                                 |
| \\      /  F ield         | OpenFOAM: The Open Source CFD Toolbox           |
|  \\    /   O peration     | Version:  v2012                                 |
|   \\  /    A nd           | Website:  www.openfoam.com                      |
|    \\/     M anipulation  |                                                 |
\*---------------------------------------------------------------------------*/
FoamFile
{
    version     2.0;
    format      ascii;
    class       volScalarField;
    location    "42";
    object      yPlus;
}
// * * * * * * * * * * * * * * * * * * * * * * * * * * * * * * * * * * * * * //

dimensions      [0 0 0 0 0 0 0];


internalField   uniform 0;

boundaryField
{
    inlet
    {
        type            calculated;
        value           uniform 0;
    }
    outlet
    {
        type            calculated;
        value           uniform 0;
    }
    topWall
    {
        type            calculated;
        value           nonuniform List<scalar> 
545
(
0.150715
0.259908
0.333436
0.391939
0.441462
0.484791
0.523487
0.558538
0.590612
0.620191
0.647637
0.673229
0.697187
0.719693
0.740896
0.760919
0.779869
0.797837
0.814901
0.831133
0.846591
0.861332
0.875402
0.888846
0.901704
0.914011
0.925799
0.937098
0.947936
0.958339
0.968328
0.977925
0.987152
0.996025
1.00456
1.01278
1.02069
1.02832
1.03566
1.04275
1.04958
1.05616
1.06252
1.06865
1.07458
1.0803
1.08582
1.09116
1.09632
1.1013
1.10612
1.11078
1.11529
1.11965
1.12387
1.12795
1.1319
1.13573
1.13943
1.14302
1.14649
1.14986
1.15312
1.15628
1.15934
1.1623
1.16518
1.16796
1.17066
1.17328
1.17582
1.17829
1.18065
1.18293
1.18519
1.18744
1.18966
1.19187
1.19406
1.19623
1.19839
1.20053
1.20265
1.20475
1.20684
1.20891
1.21097
1.21301
1.21503
1.21703
1.21903
1.221
1.22296
1.2249
1.22683
1.22875
1.23047
1.23201
1.23355
1.2351
1.23664
1.23818
1.23972
1.24126
1.24279
1.24433
1.24587
1.24741
1.24894
1.25048
1.25202
1.25355
1.25509
1.25662
1.25815
1.25969
1.26122
1.26275
1.26428
1.26581
1.26734
1.26887
1.2704
1.27193
1.27346
1.27499
1.27651
1.27804
1.27956
1.28109
1.28261
1.28413
1.28565
1.28718
1.2887
1.29022
1.29173
1.29325
1.29477
1.29629
1.2978
1.29932
1.30083
1.30234
1.30385
1.30537
1.30688
1.30838
1.30989
1.3114
1.31291
1.31441
1.31592
1.31742
1.31892
1.32042
1.32192
1.32342
1.32492
1.32642
1.32791
1.32941
1.3309
1.33239
1.33388
1.33537
1.33686
1.33835
1.33983
1.34132
1.3428
1.34429
1.34577
1.34725
1.34872
1.3502
1.35168
1.35315
1.35462
1.3561
1.35757
1.35904
1.3605
1.36197
1.36343
1.3649
1.36636
1.36782
1.36928
1.37073
1.37219
1.37364
1.37509
1.37654
1.37799
1.37944
1.38089
1.38233
1.38377
1.38521
1.38665
1.38809
1.38952
1.39096
1.39239
1.39382
1.39524
1.39667
1.39809
1.39952
1.40094
1.40236
1.40377
1.40519
1.4066
1.40801
1.40942
1.41082
1.41223
1.41363
1.41503
1.41643
1.41783
1.41922
1.42061
1.422
1.42339
1.42477
1.42616
1.42754
1.42892
1.43029
1.43167
1.43304
1.43441
1.43577
1.43714
1.4385
1.43986
1.44122
1.44257
1.44392
1.44527
1.44662
1.44796
1.44931
1.45065
1.45198
1.45332
1.45465
1.45598
1.4573
1.45863
1.45995
1.46127
1.46258
1.46389
1.4652
1.46651
1.46781
1.46912
1.47041
1.47171
1.473
1.47429
1.47558
1.47686
1.47814
1.47942
1.48062
1.48176
1.4829
1.48405
1.48521
1.48637
1.48754
1.48872
1.48991
1.4911
1.4923
1.49351
1.49473
1.49595
1.49718
1.49842
1.49966
1.50091
1.50217
1.50344
1.50471
1.50599
1.50727
1.50857
1.50986
1.51117
1.51248
1.5138
1.51513
1.51646
1.51779
1.51914
1.52049
1.52184
1.5232
1.52457
1.52594
1.52732
1.5287
1.53009
1.53148
1.53288
1.53429
1.53569
1.53711
1.53852
1.53995
1.54137
1.5428
1.54423
1.54567
1.54711
1.54856
1.55
1.55145
1.55291
1.55436
1.55582
1.55728
1.55874
1.56021
1.56167
1.56314
1.56461
1.56608
1.56755
1.56902
1.57049
1.57196
1.57342
1.57489
1.57636
1.57783
1.57929
1.58076
1.58222
1.58368
1.58513
1.58658
1.58803
1.58948
1.59092
1.59236
1.59379
1.59522
1.59664
1.59806
1.59947
1.60087
1.60227
1.60366
1.60504
1.60641
1.60778
1.60913
1.61048
1.61182
1.61314
1.61446
1.61577
1.61706
1.61834
1.61961
1.62087
1.62211
1.62334
1.62456
1.62576
1.62694
1.62811
1.62927
1.6304
1.63152
1.63263
1.63371
1.63478
1.63582
1.63685
1.63786
1.63884
1.63981
1.64075
1.64168
1.64258
1.64345
1.64431
1.64514
1.64594
1.64672
1.64747
1.6482
1.6489
1.64958
1.65022
1.65084
1.65143
1.652
1.65253
1.65303
1.6535
1.65395
1.65436
1.65474
1.65508
1.6554
1.65568
1.65593
1.65615
1.65633
1.65648
1.6566
1.65668
1.65672
1.65673
1.65671
1.65664
1.65655
1.65641
1.65624
1.65603
1.65579
1.65551
1.65519
1.65484
1.65445
1.65401
1.65355
1.65304
1.6525
1.65192
1.65131
1.65065
1.64996
1.64923
1.64847
1.64766
1.64682
1.64595
1.64504
1.64408
1.6431
1.64197
1.64068
1.63936
1.63801
1.63662
1.63522
1.63378
1.63232
1.63084
1.62935
1.62783
1.6263
1.62475
1.62319
1.62161
1.62003
1.61844
1.61684
1.61523
1.61363
1.61201
1.6104
1.60878
1.60716
1.60554
1.60393
1.60232
1.60072
1.59911
1.59752
1.59592
1.59435
1.59277
1.59121
1.58965
1.58811
1.58658
1.58506
1.58355
1.58207
1.58059
1.57913
1.57768
1.57625
1.57484
1.57345
1.57207
1.57072
1.56938
1.56806
1.56676
1.56549
1.56423
1.56301
1.56179
1.56061
1.55945
1.55831
1.5572
1.55611
1.55504
1.55401
1.553
1.55201
1.55105
1.55013
1.54922
1.54835
1.5475
1.54669
1.5459
1.54514
1.54441
1.54371
1.54304
1.5424
1.54179
1.54122
1.54067
1.54016
1.53968
1.53923
1.53881
1.53843
1.53807
1.53775
1.53747
1.53721
1.53699
1.5368
1.53665
1.53653
1.53643
1.53639
1.53634
)
;
    }
    bottomWall
    {
        type            calculated;
        value           nonuniform List<scalar> 
449
(
0.00273863
0.0048021
0.00537592
0.00532861
0.00525756
0.00516153
0.00506407
0.00497285
0.00488913
0.00481264
0.00474265
0.00467849
0.00461943
0.00456476
0.00451396
0.00446663
0.00442234
0.0043808
0.00434167
0.00430472
0.00426975
0.00423658
0.00420504
0.004175
0.00414631
0.00411889
0.00409262
0.00406743
0.00404322
0.00401993
0.0039975
0.00397587
0.00395499
0.00393482
0.0039153
0.0038964
0.00387808
0.00386032
0.00384307
0.00382632
0.00381003
0.00379418
0.00377874
0.00376371
0.00374906
0.00373478
0.00372084
0.00370725
0.00369398
0.00368102
0.00366835
0.00365598
0.00364387
0.00363202
0.00362042
0.00360906
0.00359792
0.00358701
0.0035763
0.0035658
0.00355549
0.00354537
0.00353543
0.00352566
0.00351606
0.00350663
0.00349735
0.00348822
0.00347924
0.0034704
0.0034617
0.00345313
0.0034447
0.00343639
0.0034282
0.00342013
0.00341218
0.00340434
0.00339661
0.00338899
0.00338147
0.00337405
0.00336673
0.00335951
0.00335238
0.00334535
0.0033384
0.00333154
0.00332477
0.00331808
0.00331146
0.00330493
0.00329848
0.0032921
0.00328579
0.00327956
0.0032734
0.00326731
0.00326128
0.00325532
0.00324942
0.00324359
0.00323782
0.00323212
0.00322646
0.00322087
0.00321534
0.00320986
0.00320444
0.00319907
0.00319375
0.00318848
0.00318327
0.0031781
0.00317299
0.00316792
0.0031629
0.00315792
0.00315299
0.0031481
0.00314326
0.00313846
0.00313371
0.00312899
0.00312431
0.00311968
0.00311509
0.00311053
0.00310601
0.00310153
0.00309709
0.00309268
0.00308831
0.00308397
0.00307967
0.0030754
0.00307116
0.00306696
0.00306279
0.00305866
0.00305455
0.00305048
0.00304643
0.00304242
0.00303843
0.00303448
0.00303055
0.00302665
0.00302278
0.00301894
0.00301512
0.00301134
0.00300757
0.00300384
0.00300013
0.00299645
0.00299279
0.00298915
0.00298554
0.00298195
0.00297839
0.00297485
0.00297134
0.00296784
0.00296437
0.00296092
0.0029575
0.00295409
0.00295071
0.00294735
0.00294401
0.00294069
0.00293739
0.00293429
0.00293138
0.00292845
0.00292552
0.00292258
0.00291963
0.00291667
0.0029137
0.00291073
0.00290774
0.00290475
0.00290175
0.00289874
0.00289572
0.00289269
0.00288966
0.00288661
0.00288356
0.0028805
0.00287743
0.00287436
0.00287127
0.00286818
0.00286508
0.00286197
0.00285886
0.00285574
0.00285261
0.00284947
0.00284633
0.00284318
0.00284002
0.00283686
0.00283369
0.00283051
0.00282732
0.00282413
0.00282094
0.00281773
0.00281452
0.00281131
0.00280809
0.00280486
0.00280162
0.00279838
0.00279514
0.00279189
0.00278863
0.00278537
0.00278211
0.00277884
0.00277556
0.00277228
0.002769
0.0027657
0.00276241
0.00275911
0.00275581
0.0027525
0.00274919
0.00274587
0.00274255
0.00273923
0.0027359
0.00273257
0.00272924
0.0027259
0.00272256
0.00271921
0.00271587
0.00271251
0.00270917
0.0027058
0.00270245
0.00269908
0.00269573
0.00269235
0.00268899
0.00268562
0.00268225
0.00267887
0.0026755
0.00267212
0.00266874
0.00266536
0.00266198
0.00265859
0.00265521
0.00265182
0.00264843
0.00264505
0.00264166
0.00263827
0.00263488
0.00263149
0.00262809
0.0026247
0.00262131
0.00261792
0.00261453
0.00261114
0.00260774
0.00260436
0.00260096
0.00259757
0.00259418
0.00259079
0.0025874
0.00258402
0.00258062
0.00257724
0.00257385
0.00257047
0.00256708
0.00256371
0.00256032
0.00255695
0.00255356
0.00255019
0.00254681
0.00254345
0.00254007
0.00253671
0.00253333
0.00252998
0.0025266
0.00252325
0.00251989
0.00251654
0.00251318
0.00250984
0.00250648
0.00250315
0.0024998
0.00249647
0.00249313
0.0024898
0.00248647
0.00248315
0.00247982
0.00247651
0.00247319
0.00246988
0.00246657
0.00246327
0.00245997
0.00245667
0.00245338
0.00245009
0.00244681
0.00244352
0.00244025
0.00243697
0.00243371
0.00243044
0.00242719
0.00242393
0.00242068
0.00241743
0.0024142
0.00241096
0.00240773
0.0024045
0.00240129
0.00239806
0.00239486
0.00239164
0.00238845
0.00238524
0.00238206
0.00237886
0.00237569
0.00237251
0.00236934
0.00236617
0.00236302
0.00235986
0.00235672
0.00235357
0.00235044
0.0023473
0.00234384
0.00234006
0.00233635
0.00233268
0.00232907
0.00232551
0.002322
0.00231854
0.00231513
0.00231176
0.00230845
0.00230517
0.00230195
0.00229876
0.00229563
0.00229252
0.00228946
0.00228643
0.00228346
0.00228051
0.00227761
0.00227473
0.0022719
0.00226909
0.00226633
0.00226359
0.00226089
0.00225821
0.00225558
0.00225296
0.00225039
0.00224784
0.00224532
0.00224282
0.00224036
0.00223791
0.00223551
0.00223312
0.00223076
0.00222842
0.00222611
0.00222382
0.00222157
0.00221932
0.00221711
0.00221491
0.00221275
0.00221059
0.00220847
0.00220636
0.00220427
0.0022022
0.00220016
0.00219812
0.00219612
0.00219412
0.00219215
0.00219019
0.00218826
0.00218634
0.00218444
0.00218255
0.00218069
0.00217883
0.002177
0.00217517
0.00217338
0.00217158
0.00216982
0.00216805
0.00216632
0.00216457
0.00216287
0.00216115
0.00215948
0.00215778
0.00215614
0.00215446
0.00215286
0.0021512
0.00214962
0.00214797
0.00214643
0.0021448
0.00214328
0.00214167
0.00214016
0.00213858
0.00213705
0.00213557
0.0021339
0.00213274
0.00213055
0.00213027
0.00212728
)
;
    }
    symmetry
    {
        type            symmetryPlane;
    }
    frontAndBack
    {
        type            empty;
    }
}


// ************************************************************************* //
