/*--------------------------------*- C++ -*----------------------------------*\
| =========                 |                                                 |
| \\      /  F ield         | OpenFOAM: The Open Source CFD Toolbox           |
|  \\    /   O peration     | Version:  v2012                                 |
|   \\  /    A nd           | Website:  www.openfoam.com                      |
|    \\/     M anipulation  |                                                 |
\*---------------------------------------------------------------------------*/
FoamFile
{
    version     2.0;
    format      ascii;
    class       volScalarField;
    location    "8";
    object      epsilon;
}
// * * * * * * * * * * * * * * * * * * * * * * * * * * * * * * * * * * * * * //

dimensions      [0 2 -3 0 0 0 0];


internalField   nonuniform List<scalar> 
209825
(
0.787824
0.764702
0.757807
0.754892
0.753334
0.752415
0.751807
0.751396
0.751087
0.750868
0.750684
0.750553
0.750427
0.750341
0.75027
0.750216
0.750161
0.750123
0.75008
0.750054
0.750016
0.750001
0.749984
0.749972
0.749948
0.749949
0.749942
0.749943
0.749933
0.749948
0.749948
0.749959
0.749957
0.749973
0.749973
0.749989
0.749988
0.750025
0.750025
0.750045
0.750044
0.750069
0.750069
0.750109
0.750109
0.750147
0.750147
0.750183
0.750182
0.750219
0.750219
0.750286
0.750286
0.750286
0.750303
0.750303
0.750396
0.750411
0.75046
0.750459
0.750463
0.750463
0.75058
0.750621
0.750621
0.750621
0.750763
0.750805
0.750805
0.750948
0.750977
0.750977
0.751125
0.751146
0.751302
0.751466
0.75155
0.75167
0.751869
0.75191
0.752135
0.752324
0.752537
0.752877
0.753208
0.753645
0.754149
0.754788
0.755706
0.756669
0.758319
0.760413
0.762806
0.779286
1.14562
222.543
0.787815
0.764677
0.757774
0.754855
0.753294
0.752373
0.751764
0.751353
0.751043
0.750824
0.75064
0.750508
0.750381
0.750295
0.750224
0.75017
0.750115
0.750077
0.750034
0.750008
0.74997
0.749955
0.749937
0.749926
0.749902
0.749902
0.749895
0.749897
0.749886
0.749901
0.749901
0.749912
0.74991
0.749926
0.749926
0.749942
0.749941
0.749978
0.749978
0.749998
0.749998
0.750022
0.750022
0.750062
0.750062
0.750101
0.750101
0.750136
0.750136
0.750173
0.750173
0.750239
0.750239
0.750239
0.750257
0.750257
0.750349
0.750365
0.750413
0.750413
0.750417
0.750417
0.750534
0.750575
0.750575
0.750575
0.750717
0.750759
0.750759
0.750902
0.750931
0.750931
0.75108
0.7511
0.751256
0.75142
0.751505
0.751625
0.751824
0.751865
0.75209
0.75228
0.752492
0.752833
0.753165
0.753602
0.754106
0.754745
0.755665
0.756628
0.758279
0.760376
0.762767
0.779282
1.14663
219.473
0.787763
0.764559
0.757625
0.754689
0.753119
0.752192
0.751579
0.751164
0.750853
0.750631
0.750446
0.750313
0.750186
0.750099
0.750027
0.749972
0.749917
0.749879
0.749836
0.749809
0.749771
0.749756
0.749738
0.749726
0.749702
0.749702
0.749696
0.749697
0.749686
0.749701
0.749701
0.749712
0.74971
0.749726
0.749726
0.749742
0.74974
0.749777
0.749777
0.749797
0.749797
0.749822
0.749821
0.749862
0.749861
0.7499
0.7499
0.749936
0.749936
0.749972
0.749972
0.750039
0.750039
0.750039
0.750057
0.750057
0.75015
0.750166
0.750214
0.750214
0.750217
0.750217
0.750335
0.750376
0.750376
0.750376
0.750518
0.750561
0.750561
0.750705
0.750734
0.750734
0.750882
0.750904
0.75106
0.751224
0.75131
0.75143
0.75163
0.751671
0.751897
0.752087
0.7523
0.752642
0.752974
0.753413
0.753918
0.754559
0.75548
0.756446
0.758098
0.760204
0.762584
0.779183
1.14911
216.083
0.787674
0.764357
0.757371
0.754408
0.752822
0.751885
0.751265
0.750845
0.75053
0.750306
0.750118
0.749984
0.749855
0.749767
0.749694
0.749638
0.749582
0.749544
0.7495
0.749473
0.749434
0.749419
0.749401
0.749389
0.749365
0.749364
0.749358
0.749358
0.749347
0.749362
0.749362
0.749373
0.749371
0.749387
0.749387
0.749403
0.749401
0.749438
0.749438
0.749458
0.749458
0.749482
0.749482
0.749522
0.749522
0.749561
0.749561
0.749597
0.749597
0.749634
0.749634
0.749701
0.749701
0.749701
0.749718
0.749718
0.749812
0.749828
0.749876
0.749876
0.74988
0.74988
0.749998
0.75004
0.75004
0.75004
0.750182
0.750226
0.750226
0.75037
0.7504
0.7504
0.750549
0.750571
0.750727
0.750892
0.750979
0.751099
0.7513
0.751343
0.751569
0.751761
0.751975
0.752317
0.752652
0.753093
0.7536
0.754243
0.755167
0.756137
0.757789
0.759912
0.762273
0.779002
1.1531
213.104
0.787547
0.764071
0.757011
0.75401
0.752402
0.75145
0.75082
0.750394
0.750074
0.749845
0.749655
0.749518
0.749387
0.749298
0.749223
0.749166
0.749109
0.74907
0.749025
0.748997
0.748958
0.748942
0.748924
0.748912
0.748887
0.748887
0.74888
0.74888
0.748869
0.748883
0.748883
0.748894
0.748891
0.748907
0.748907
0.748923
0.748922
0.748959
0.748959
0.748979
0.748979
0.749003
0.749003
0.749043
0.749043
0.749082
0.749082
0.749118
0.749118
0.749155
0.749155
0.749222
0.749222
0.749222
0.74924
0.74924
0.749334
0.749351
0.749399
0.749399
0.749403
0.749403
0.749521
0.749564
0.749564
0.749564
0.749707
0.749752
0.749752
0.749896
0.749928
0.749928
0.750077
0.750101
0.750257
0.750423
0.750511
0.750632
0.750834
0.750878
0.751105
0.751299
0.751515
0.751859
0.752195
0.752639
0.753148
0.753796
0.754722
0.755699
0.75735
0.759496
0.761831
0.778739
1.15869
210.828
0.787382
0.763701
0.756546
0.753495
0.751857
0.750887
0.750244
0.749809
0.749481
0.749248
0.749053
0.748913
0.74878
0.748688
0.748612
0.748554
0.748495
0.748455
0.748409
0.748381
0.748341
0.748324
0.748305
0.748293
0.748268
0.748267
0.748259
0.748259
0.748247
0.748262
0.748262
0.748272
0.748269
0.748285
0.748285
0.748301
0.748299
0.748336
0.748336
0.748356
0.748356
0.74838
0.74838
0.748421
0.748421
0.74846
0.74846
0.748496
0.748496
0.748533
0.748533
0.748601
0.748601
0.748601
0.748619
0.748619
0.748714
0.748732
0.74878
0.74878
0.748784
0.748784
0.748903
0.748947
0.748947
0.748947
0.74909
0.749137
0.749137
0.749282
0.749314
0.749314
0.749465
0.74949
0.749646
0.749814
0.749903
0.750025
0.750229
0.750275
0.750503
0.750699
0.750917
0.751263
0.751602
0.752049
0.752562
0.753214
0.754144
0.755129
0.75678
0.758954
0.761255
0.778392
1.16599
209.369
0.787181
0.763246
0.755972
0.75286
0.751186
0.750192
0.749534
0.749087
0.748751
0.748512
0.748312
0.748168
0.748031
0.747937
0.747858
0.747798
0.747738
0.747696
0.74765
0.74762
0.747579
0.747562
0.747542
0.747529
0.747504
0.747502
0.747495
0.747494
0.747481
0.747496
0.747496
0.747506
0.747503
0.747518
0.747518
0.747534
0.747532
0.747569
0.747569
0.747589
0.747589
0.747613
0.747613
0.747653
0.747653
0.747693
0.747693
0.74773
0.74773
0.747766
0.747766
0.747835
0.747835
0.747835
0.747854
0.747854
0.747949
0.747969
0.748016
0.748016
0.748021
0.748021
0.74814
0.748186
0.748186
0.748185
0.748329
0.748378
0.748378
0.748524
0.748558
0.748558
0.748709
0.748737
0.748893
0.749062
0.749153
0.749276
0.749482
0.74953
0.74976
0.749959
0.750179
0.750527
0.750869
0.751321
0.751838
0.752495
0.75343
0.754425
0.756075
0.758284
0.760543
0.777959
1.17512
208.734
0.786942
0.762705
0.75529
0.752104
0.750386
0.749365
0.748687
0.748227
0.747882
0.747634
0.747428
0.74728
0.747139
0.747041
0.74696
0.746898
0.746836
0.746792
0.746744
0.746713
0.746671
0.746653
0.746632
0.746619
0.746593
0.746591
0.746583
0.746581
0.746568
0.746582
0.746582
0.746591
0.746588
0.746604
0.746604
0.746619
0.746617
0.746654
0.746654
0.746674
0.746674
0.746698
0.746698
0.746738
0.746738
0.746778
0.746778
0.746816
0.746815
0.746852
0.746852
0.746922
0.746922
0.746922
0.746941
0.746941
0.747037
0.747059
0.747106
0.747106
0.74711
0.74711
0.747231
0.747278
0.747278
0.747278
0.747422
0.747473
0.747472
0.74762
0.747656
0.747656
0.747808
0.747838
0.747995
0.748166
0.748259
0.748382
0.748591
0.748642
0.748873
0.749077
0.749298
0.74965
0.749996
0.750452
0.750974
0.751637
0.752577
0.753584
0.755233
0.757483
0.759692
0.777438
1.18619
208.866
0.786667
0.762078
0.754498
0.751226
0.749457
0.748403
0.747703
0.747227
0.746869
0.746613
0.7464
0.746246
0.7461
0.745999
0.745914
0.74585
0.745785
0.74574
0.74569
0.745658
0.745615
0.745595
0.745573
0.745559
0.745533
0.74553
0.745521
0.745519
0.745505
0.745518
0.745518
0.745527
0.745524
0.745539
0.745539
0.745554
0.745551
0.745589
0.745588
0.745609
0.745608
0.745633
0.745632
0.745673
0.745673
0.745714
0.745714
0.745751
0.745751
0.745788
0.745788
0.745859
0.745859
0.745859
0.745878
0.745878
0.745975
0.745999
0.746046
0.746046
0.746051
0.74605
0.746172
0.746221
0.746221
0.746221
0.746366
0.746419
0.746419
0.746567
0.746606
0.746606
0.746759
0.746792
0.74695
0.747122
0.747218
0.747342
0.747554
0.747608
0.747841
0.748049
0.748273
0.748628
0.748978
0.74944
0.749967
0.750638
0.751583
0.752603
0.75425
0.756548
0.7587
0.776828
1.19931
209.665
0.786356
0.761364
0.753595
0.750223
0.748396
0.747305
0.746579
0.746085
0.745713
0.745447
0.745225
0.745065
0.744914
0.744808
0.744719
0.744652
0.744585
0.744537
0.744485
0.744452
0.744407
0.744386
0.744363
0.744348
0.744321
0.744317
0.744308
0.744305
0.744289
0.744303
0.744303
0.744311
0.744307
0.744322
0.744322
0.744336
0.744334
0.744371
0.744371
0.744391
0.744391
0.744415
0.744415
0.744456
0.744456
0.744496
0.744496
0.744535
0.744535
0.744572
0.744572
0.744643
0.744644
0.744644
0.744663
0.744663
0.744761
0.744787
0.744834
0.744834
0.744839
0.744839
0.744961
0.745013
0.745013
0.745012
0.745158
0.745214
0.745214
0.745364
0.745405
0.745405
0.745559
0.745596
0.745754
0.745929
0.746027
0.746153
0.746368
0.746425
0.746661
0.746873
0.7471
0.747458
0.747813
0.748281
0.748815
0.749494
0.750446
0.75148
0.753125
0.755476
0.757562
0.776124
1.21461
211.004
0.786009
0.760565
0.752581
0.749096
0.747202
0.746068
0.745312
0.744797
0.74441
0.744132
0.743901
0.743733
0.743576
0.743466
0.743373
0.743302
0.743231
0.743181
0.743127
0.743092
0.743045
0.743023
0.742999
0.742983
0.742954
0.74295
0.742939
0.742936
0.742919
0.742932
0.742932
0.74294
0.742935
0.74295
0.74295
0.742964
0.742961
0.742998
0.742998
0.743018
0.743018
0.743042
0.743042
0.743083
0.743083
0.743124
0.743124
0.743163
0.743163
0.7432
0.7432
0.743272
0.743273
0.743273
0.743293
0.743293
0.743393
0.743421
0.743467
0.743467
0.743473
0.743473
0.743596
0.74365
0.74365
0.74365
0.743796
0.743855
0.743855
0.744007
0.744051
0.744051
0.744207
0.744247
0.744406
0.744583
0.744685
0.744812
0.74503
0.745091
0.745329
0.745547
0.745777
0.746139
0.7465
0.746974
0.747515
0.748202
0.749161
0.750212
0.751853
0.754264
0.756276
0.775325
1.2322
212.734
0.785627
0.759678
0.751454
0.747842
0.745873
0.74469
0.743902
0.743364
0.742959
0.742668
0.742426
0.74225
0.742086
0.74197
0.741872
0.741797
0.741723
0.741671
0.741614
0.741576
0.741528
0.741504
0.741478
0.741461
0.741431
0.741426
0.741415
0.74141
0.741392
0.741405
0.741404
0.741412
0.741406
0.741421
0.741421
0.741434
0.74143
0.741467
0.741467
0.741488
0.741487
0.741511
0.741511
0.741553
0.741553
0.741594
0.741594
0.741634
0.741634
0.741672
0.741671
0.741744
0.741746
0.741746
0.741766
0.741766
0.741867
0.741898
0.741944
0.741944
0.74195
0.74195
0.742074
0.742131
0.742131
0.742131
0.742278
0.742341
0.742341
0.742494
0.742541
0.742541
0.742698
0.742743
0.742902
0.743082
0.743187
0.743316
0.743538
0.743603
0.743844
0.744067
0.744301
0.744668
0.745034
0.745516
0.746063
0.74676
0.747726
0.748795
0.750433
0.752909
0.75484
0.774425
1.25217
214.703
0.78521
0.758705
0.750214
0.746461
0.744408
0.743172
0.742346
0.741782
0.741357
0.741051
0.740798
0.740612
0.74044
0.740318
0.740215
0.740135
0.740058
0.740002
0.739942
0.739902
0.739852
0.739826
0.739798
0.73978
0.739749
0.739742
0.73973
0.739725
0.739706
0.739717
0.739717
0.739723
0.739717
0.739732
0.739732
0.739744
0.73974
0.739777
0.739777
0.739797
0.739797
0.73982
0.73982
0.739862
0.739862
0.739904
0.739904
0.739945
0.739945
0.739982
0.739982
0.740056
0.740058
0.740058
0.740079
0.740079
0.740181
0.740215
0.740261
0.740261
0.740267
0.740267
0.740393
0.740453
0.740453
0.740453
0.740601
0.740667
0.740667
0.740822
0.740873
0.740873
0.741032
0.741081
0.741241
0.741424
0.741533
0.741663
0.741889
0.741959
0.742202
0.742432
0.74267
0.743041
0.743413
0.743903
0.744459
0.745166
0.746139
0.747228
0.74886
0.751407
0.75325
0.773422
1.27465
216.755
0.78476
0.757645
0.748861
0.744951
0.742805
0.741509
0.740643
0.740049
0.739603
0.73928
0.739014
0.738818
0.738637
0.738508
0.738398
0.738314
0.738232
0.738173
0.73811
0.738068
0.738015
0.737987
0.737957
0.737937
0.737905
0.737897
0.737884
0.737877
0.737857
0.737868
0.737867
0.737873
0.737866
0.73788
0.73788
0.737892
0.737886
0.737924
0.737924
0.737944
0.737944
0.737967
0.737967
0.738009
0.738009
0.738052
0.738052
0.738094
0.738094
0.738131
0.738131
0.738205
0.738208
0.738208
0.738229
0.738229
0.738333
0.73837
0.738416
0.738416
0.738422
0.738422
0.738549
0.738613
0.738613
0.738613
0.738761
0.738832
0.738832
0.738989
0.739044
0.739044
0.739204
0.739258
0.73942
0.739605
0.739718
0.73985
0.740081
0.740156
0.740402
0.740638
0.740881
0.741256
0.741635
0.742134
0.742697
0.743415
0.744396
0.745506
0.747133
0.749755
0.751502
0.77231
1.2997
218.744
0.784278
0.7565
0.747393
0.743312
0.741064
0.739702
0.73879
0.738164
0.737694
0.737353
0.737072
0.736865
0.736675
0.736537
0.736421
0.736332
0.736245
0.736182
0.736116
0.73607
0.736014
0.735984
0.735952
0.735931
0.735897
0.735888
0.735873
0.735866
0.735843
0.735853
0.735853
0.735857
0.73585
0.735863
0.735863
0.735874
0.735868
0.735905
0.735905
0.735926
0.735925
0.735948
0.735948
0.735991
0.735991
0.736034
0.736034
0.736077
0.736077
0.736114
0.736114
0.73619
0.736193
0.736193
0.736215
0.736215
0.73632
0.73636
0.736407
0.736407
0.736413
0.736413
0.736541
0.736609
0.736609
0.736608
0.736758
0.736833
0.736834
0.736992
0.737052
0.737052
0.737213
0.737273
0.737435
0.737623
0.737741
0.737875
0.738111
0.738191
0.73844
0.738683
0.73893
0.739311
0.739696
0.740204
0.740776
0.741506
0.742495
0.743627
0.745247
0.747949
0.749595
0.771085
1.32742
220.533
0.783763
0.755269
0.745811
0.741543
0.739182
0.737748
0.736787
0.736126
0.735628
0.735268
0.73497
0.734751
0.73455
0.734404
0.734281
0.734186
0.734094
0.734026
0.733956
0.733907
0.733848
0.733816
0.733781
0.733758
0.733723
0.733712
0.733696
0.733687
0.733663
0.733672
0.733671
0.733675
0.733667
0.733679
0.733679
0.73369
0.733682
0.733719
0.733719
0.73374
0.73374
0.733762
0.733762
0.733805
0.733804
0.733849
0.733849
0.733893
0.733893
0.73393
0.73393
0.734006
0.73401
0.73401
0.734033
0.734033
0.73414
0.734183
0.734231
0.734231
0.734236
0.734236
0.734366
0.734437
0.734437
0.734437
0.734588
0.734668
0.734668
0.734829
0.734893
0.734893
0.735056
0.735122
0.735285
0.735476
0.735599
0.735734
0.735975
0.736061
0.736314
0.736564
0.736816
0.737203
0.737595
0.738112
0.738693
0.739436
0.740432
0.741588
0.7432
0.745986
0.747524
0.76974
1.35783
221.997
0.783219
0.753953
0.744115
0.739642
0.737159
0.735646
0.734631
0.733931
0.733405
0.733022
0.732707
0.732474
0.732262
0.732106
0.731975
0.731873
0.731776
0.731704
0.731629
0.731577
0.731514
0.731479
0.731442
0.731417
0.73138
0.731367
0.731349
0.73134
0.731314
0.731321
0.731321
0.731323
0.731313
0.731325
0.731325
0.731335
0.731327
0.731363
0.731363
0.731384
0.731384
0.731406
0.731406
0.731448
0.731448
0.731493
0.731493
0.731539
0.731539
0.731575
0.731576
0.731653
0.731658
0.731658
0.731681
0.731681
0.73179
0.731837
0.731885
0.731885
0.73189
0.73189
0.732022
0.732097
0.732097
0.732097
0.732248
0.732334
0.732334
0.732497
0.732566
0.732566
0.732731
0.732802
0.732967
0.733161
0.733289
0.733427
0.733673
0.733765
0.734021
0.734279
0.734536
0.734928
0.735327
0.735855
0.736445
0.7372
0.738204
0.739385
0.740988
0.743863
0.745286
0.768269
1.39097
223.031
0.782645
0.752552
0.742304
0.73761
0.734994
0.733396
0.732321
0.731579
0.731021
0.730614
0.73028
0.730032
0.729808
0.729642
0.729502
0.729393
0.729289
0.729212
0.729132
0.729076
0.72901
0.728972
0.728932
0.728905
0.728865
0.728851
0.728831
0.72882
0.728792
0.728799
0.728798
0.728799
0.728788
0.7288
0.728799
0.728808
0.728798
0.728835
0.728835
0.728855
0.728855
0.728877
0.728877
0.728919
0.728919
0.728965
0.728965
0.729012
0.729012
0.729049
0.729049
0.729127
0.729133
0.729133
0.729157
0.729156
0.729267
0.729318
0.729367
0.729367
0.729372
0.729372
0.729505
0.729585
0.729585
0.729585
0.729736
0.729828
0.729828
0.729993
0.730068
0.730068
0.730234
0.730312
0.730478
0.730676
0.730809
0.730949
0.7312
0.731298
0.731558
0.731825
0.732087
0.732485
0.732891
0.733429
0.734028
0.734798
0.735809
0.737015
0.738609
0.741574
0.742879
0.766666
1.42681
223.546
0.782043
0.751069
0.740379
0.735445
0.732686
0.730994
0.729855
0.729068
0.728475
0.728042
0.727688
0.727423
0.727185
0.727008
0.726858
0.726742
0.726631
0.726548
0.726463
0.726403
0.726333
0.726292
0.726249
0.726219
0.726177
0.726161
0.72614
0.726127
0.726097
0.726102
0.726101
0.726101
0.726088
0.726099
0.726099
0.726106
0.726096
0.726132
0.726132
0.726152
0.726152
0.726173
0.726173
0.726216
0.726216
0.726262
0.726262
0.72631
0.72631
0.726347
0.726347
0.726426
0.726433
0.726433
0.726457
0.726457
0.72657
0.726624
0.726674
0.726675
0.726679
0.726679
0.726814
0.726898
0.726898
0.726898
0.727051
0.727149
0.727149
0.727316
0.727396
0.727396
0.727564
0.727649
0.727816
0.728017
0.728156
0.728298
0.728555
0.72866
0.728924
0.729198
0.729466
0.72987
0.730284
0.730833
0.731441
0.732224
0.733243
0.734476
0.736059
0.739117
0.7403
0.764922
1.4653
223.472
0.781415
0.749503
0.73834
0.733149
0.730234
0.728442
0.727233
0.726396
0.725766
0.725305
0.724928
0.724645
0.724393
0.724204
0.724043
0.723919
0.7238
0.723711
0.723621
0.723556
0.723482
0.723437
0.72339
0.723358
0.723314
0.723295
0.723272
0.723258
0.723226
0.723229
0.723228
0.723226
0.723212
0.723222
0.723222
0.723228
0.723216
0.723251
0.723251
0.723272
0.723271
0.723292
0.723292
0.723335
0.723335
0.723381
0.723381
0.723431
0.723431
0.723468
0.723468
0.723548
0.723556
0.723555
0.723581
0.72358
0.723695
0.723754
0.723804
0.723806
0.723809
0.723809
0.723945
0.724035
0.724035
0.724035
0.724188
0.724292
0.724293
0.724462
0.724548
0.724548
0.724718
0.724809
0.724979
0.725183
0.725328
0.725472
0.725735
0.725847
0.726114
0.726397
0.726671
0.727082
0.727503
0.728062
0.72868
0.729478
0.730503
0.731764
0.733336
0.736487
0.737544
0.763031
1.50633
222.76
0.780762
0.747857
0.736187
0.730719
0.727637
0.725737
0.724453
0.723562
0.722892
0.722401
0.721999
0.721697
0.721428
0.721226
0.721055
0.720921
0.720794
0.720699
0.720602
0.720533
0.720454
0.720405
0.720354
0.72032
0.720272
0.720252
0.720226
0.72021
0.720176
0.720178
0.720175
0.720172
0.720157
0.720166
0.720166
0.72017
0.720156
0.720192
0.720191
0.720212
0.720211
0.720232
0.720231
0.720274
0.720274
0.720321
0.720321
0.720373
0.720373
0.720409
0.720409
0.72049
0.720499
0.720499
0.720525
0.720524
0.720641
0.720704
0.720755
0.720758
0.72076
0.72076
0.720897
0.720993
0.720993
0.720993
0.721146
0.721258
0.721258
0.721429
0.721522
0.721522
0.721693
0.721792
0.721963
0.72217
0.722321
0.722469
0.722737
0.722856
0.723127
0.723419
0.723699
0.724116
0.724545
0.725115
0.725743
0.726555
0.727587
0.728876
0.730436
0.733681
0.734609
0.760983
1.54971
221.367
0.780085
0.746132
0.733922
0.728158
0.724896
0.722879
0.721514
0.720566
0.719852
0.719327
0.718899
0.718577
0.718291
0.718074
0.717891
0.717747
0.717612
0.717509
0.717406
0.717331
0.717247
0.717193
0.717139
0.717102
0.717051
0.717028
0.716999
0.716982
0.716945
0.716946
0.716942
0.716938
0.71692
0.716929
0.716928
0.716931
0.716915
0.71695
0.71695
0.71697
0.71697
0.71699
0.716989
0.717031
0.717031
0.717079
0.717079
0.717132
0.717132
0.717168
0.717168
0.71725
0.71726
0.71726
0.717287
0.717286
0.717405
0.717472
0.717524
0.717528
0.717529
0.717529
0.717668
0.717769
0.717769
0.717769
0.717923
0.718042
0.718042
0.718215
0.718315
0.718315
0.718487
0.718593
0.718767
0.718978
0.719135
0.719285
0.719558
0.719686
0.719961
0.720262
0.720548
0.720971
0.721408
0.721989
0.722626
0.723453
0.724491
0.725809
0.727356
0.730695
0.731492
0.758769
1.59522
219.28
0.779386
0.744329
0.731545
0.725464
0.72201
0.719867
0.718416
0.717405
0.716644
0.716084
0.715627
0.715282
0.714978
0.714746
0.714549
0.714395
0.71425
0.71414
0.71403
0.713949
0.71386
0.713801
0.713743
0.713702
0.713648
0.713622
0.713591
0.713571
0.713533
0.713531
0.713526
0.71352
0.713501
0.713508
0.713508
0.713509
0.713491
0.713525
0.713525
0.713545
0.713545
0.713564
0.713563
0.713605
0.713605
0.713653
0.713653
0.713708
0.713708
0.713744
0.713744
0.713826
0.713837
0.713837
0.713865
0.713864
0.713985
0.714057
0.71411
0.714114
0.714115
0.714115
0.714255
0.714362
0.714362
0.714362
0.714516
0.714642
0.714642
0.714817
0.714924
0.714924
0.715098
0.715212
0.715388
0.715602
0.715766
0.715918
0.716198
0.716333
0.716612
0.716922
0.717215
0.717645
0.718088
0.718681
0.719327
0.72017
0.721212
0.722559
0.724093
0.727524
0.72819
0.756379
1.64251
216.497
0.778668
0.74245
0.729057
0.722638
0.718978
0.716701
0.715156
0.714078
0.713267
0.712669
0.712181
0.711813
0.711488
0.71124
0.711029
0.710863
0.710708
0.71059
0.710472
0.710385
0.71029
0.710226
0.710163
0.710118
0.710061
0.710032
0.709998
0.709976
0.709935
0.709931
0.709925
0.709918
0.709897
0.709903
0.709902
0.709902
0.709881
0.709914
0.709914
0.709934
0.709934
0.709952
0.709951
0.709992
0.709992
0.710041
0.710041
0.710098
0.710098
0.710133
0.710133
0.710216
0.710229
0.710229
0.710257
0.710256
0.710379
0.710455
0.710509
0.710514
0.710514
0.710514
0.710656
0.710769
0.710769
0.710769
0.710923
0.711057
0.711057
0.711234
0.711349
0.711349
0.711524
0.711646
0.711824
0.712041
0.712212
0.712367
0.712652
0.712796
0.713078
0.713398
0.713697
0.714134
0.714585
0.715189
0.715844
0.716702
0.717748
0.719125
0.720644
0.724165
0.7247
0.753803
1.69119
213.03
0.777932
0.740497
0.72646
0.719681
0.715801
0.71338
0.711735
0.710586
0.709721
0.709081
0.708561
0.708167
0.70782
0.707554
0.707328
0.70715
0.706984
0.706857
0.70673
0.706637
0.706535
0.706466
0.706398
0.70635
0.706288
0.706256
0.706219
0.706195
0.706151
0.706145
0.706137
0.706128
0.706105
0.70611
0.706109
0.706107
0.706084
0.706116
0.706116
0.706135
0.706135
0.706152
0.706151
0.706192
0.706192
0.706241
0.706241
0.7063
0.706299
0.706335
0.706334
0.706418
0.706432
0.706432
0.706461
0.70646
0.706585
0.706666
0.70672
0.706726
0.706726
0.706726
0.706869
0.706988
0.706989
0.706989
0.707143
0.707284
0.707285
0.707464
0.707586
0.707586
0.707762
0.707892
0.708073
0.708293
0.708471
0.708629
0.70892
0.709072
0.709358
0.709687
0.709993
0.710436
0.710894
0.71151
0.712173
0.713046
0.714096
0.715502
0.717007
0.720615
0.721018
0.75103
1.74073
208.904
0.77718
0.738474
0.723755
0.716593
0.712479
0.709905
0.708153
0.706927
0.706004
0.70532
0.704765
0.704343
0.703973
0.703688
0.703446
0.703254
0.703077
0.702939
0.702804
0.702704
0.702595
0.702521
0.702447
0.702394
0.702329
0.702292
0.702252
0.702226
0.702179
0.702171
0.702161
0.702151
0.702126
0.702129
0.702127
0.702123
0.702097
0.702129
0.702128
0.702147
0.702147
0.702163
0.702161
0.702202
0.702202
0.702252
0.702251
0.702311
0.702311
0.702346
0.702346
0.70243
0.702445
0.702445
0.702475
0.702474
0.702601
0.702686
0.702742
0.702748
0.702747
0.702747
0.702892
0.703018
0.703018
0.703018
0.703172
0.703322
0.703323
0.703503
0.703634
0.703634
0.703811
0.703948
0.704133
0.704356
0.70454
0.704702
0.704998
0.705159
0.705448
0.705787
0.706099
0.70655
0.707014
0.707641
0.708312
0.709201
0.710253
0.711688
0.713177
0.716869
0.717143
0.748048
1.79055
204.154
0.776414
0.736381
0.720943
0.713376
0.709013
0.706275
0.704409
0.703101
0.702116
0.701385
0.700792
0.70034
0.699946
0.69964
0.69938
0.699175
0.698984
0.698837
0.698692
0.698584
0.698468
0.698387
0.698308
0.69825
0.69818
0.69814
0.698096
0.698067
0.698017
0.698006
0.697994
0.697983
0.697956
0.697957
0.697955
0.697949
0.69792
0.69795
0.69795
0.697968
0.697968
0.697983
0.69798
0.69802
0.69802
0.69807
0.69807
0.698132
0.698132
0.698166
0.698166
0.69825
0.698267
0.698267
0.698297
0.698296
0.698425
0.698515
0.698572
0.698578
0.698578
0.698577
0.698723
0.698856
0.698856
0.698856
0.69901
0.699168
0.699169
0.699351
0.69949
0.69949
0.699668
0.699814
0.700002
0.700227
0.700419
0.700584
0.700885
0.701055
0.701347
0.701695
0.702015
0.702472
0.702943
0.703581
0.70426
0.705164
0.706216
0.707681
0.709153
0.712925
0.713072
0.744846
1.83991
198.823
0.775636
0.734222
0.718028
0.710031
0.705403
0.70249
0.700503
0.699107
0.698056
0.697275
0.696641
0.696157
0.695737
0.69541
0.695131
0.69491
0.694706
0.694547
0.694393
0.694276
0.694152
0.694065
0.693979
0.693916
0.693842
0.693797
0.693749
0.693718
0.693665
0.693651
0.693636
0.693623
0.693594
0.693594
0.69359
0.693582
0.69355
0.693579
0.693579
0.693596
0.693596
0.693611
0.693607
0.693646
0.693645
0.693696
0.693696
0.693759
0.693759
0.693793
0.693793
0.693877
0.693896
0.693895
0.693926
0.693925
0.694056
0.694151
0.694208
0.694215
0.694215
0.694214
0.694361
0.6945
0.694501
0.694501
0.694654
0.694822
0.694822
0.695006
0.695153
0.695153
0.695332
0.695486
0.695677
0.695905
0.696104
0.696272
0.696579
0.696757
0.697053
0.697411
0.697737
0.698202
0.698678
0.699327
0.700013
0.700932
0.701984
0.703478
0.704932
0.708777
0.708802
0.741411
1.88802
192.962
0.774849
0.732
0.715011
0.70656
0.70165
0.698552
0.696435
0.694946
0.693824
0.692989
0.692312
0.691794
0.691346
0.690995
0.690696
0.690459
0.690241
0.69007
0.689904
0.689779
0.689647
0.689552
0.689459
0.689392
0.689312
0.689263
0.689211
0.689176
0.689119
0.689102
0.689085
0.689071
0.68904
0.689037
0.689032
0.689023
0.688987
0.689014
0.689014
0.68903
0.68903
0.689044
0.689039
0.689076
0.689076
0.689127
0.689127
0.689191
0.689192
0.689225
0.689225
0.689309
0.689329
0.689329
0.68936
0.68936
0.689492
0.689591
0.689649
0.689657
0.689657
0.689656
0.689803
0.68995
0.689951
0.689951
0.690104
0.69028
0.690281
0.690466
0.690622
0.690622
0.690802
0.690963
0.691159
0.691389
0.691595
0.691766
0.692078
0.692266
0.692565
0.692931
0.693264
0.693736
0.694217
0.694877
0.695569
0.696503
0.697553
0.699076
0.700512
0.704424
0.70433
0.737731
1.93397
186.624
0.774054
0.729718
0.711894
0.702964
0.697756
0.694461
0.692207
0.690618
0.68942
0.688528
0.687805
0.687251
0.686772
0.686397
0.686076
0.685822
0.685588
0.685404
0.685227
0.685092
0.684951
0.684848
0.684749
0.684675
0.684589
0.684536
0.684479
0.684441
0.684381
0.68436
0.684341
0.684324
0.684291
0.684286
0.68428
0.684268
0.684229
0.684254
0.684254
0.68427
0.684269
0.684282
0.684276
0.684312
0.684312
0.684362
0.684362
0.684428
0.684428
0.684461
0.684461
0.684545
0.684567
0.684567
0.684598
0.684598
0.684731
0.684836
0.684894
0.684903
0.684903
0.684902
0.68505
0.685204
0.685205
0.685205
0.685357
0.685543
0.685543
0.685729
0.685895
0.685895
0.686075
0.686244
0.686444
0.686676
0.686889
0.687064
0.687381
0.687577
0.687879
0.688255
0.688595
0.689073
0.689559
0.690229
0.690927
0.691876
0.692923
0.694472
0.695889
0.699863
0.699654
0.733793
1.97676
179.868
0.773254
0.727379
0.708681
0.699245
0.693722
0.690218
0.687817
0.686122
0.684845
0.683891
0.68312
0.682526
0.682015
0.681614
0.68127
0.680997
0.680747
0.68055
0.68036
0.680214
0.680063
0.679953
0.679845
0.679766
0.679674
0.679615
0.679554
0.679512
0.679448
0.679423
0.679401
0.679382
0.679347
0.67934
0.679332
0.679318
0.679275
0.679299
0.679298
0.679313
0.679312
0.679323
0.679317
0.679351
0.67935
0.6794
0.6794
0.679468
0.679468
0.679501
0.6795
0.679584
0.679608
0.679608
0.679639
0.679639
0.679774
0.679883
0.679942
0.679951
0.679952
0.679951
0.680099
0.680261
0.680262
0.680262
0.680413
0.680608
0.680608
0.680795
0.68097
0.68097
0.681151
0.681327
0.681532
0.681766
0.681986
0.682164
0.682485
0.682691
0.682996
0.68338
0.683727
0.684212
0.684703
0.685382
0.686084
0.687047
0.68809
0.689666
0.691063
0.695092
0.694773
0.729583
2.01534
172.753
0.772451
0.724987
0.705374
0.695406
0.68955
0.685824
0.683268
0.681461
0.680098
0.679079
0.678256
0.677621
0.677076
0.676645
0.676278
0.675985
0.675717
0.675505
0.675302
0.675145
0.674984
0.674865
0.674749
0.674663
0.674565
0.674501
0.674434
0.674388
0.67432
0.674292
0.674266
0.674245
0.674207
0.674198
0.674188
0.674172
0.674125
0.674147
0.674145
0.674159
0.674159
0.674168
0.67416
0.674193
0.674192
0.674241
0.674241
0.67431
0.674311
0.674342
0.674342
0.674425
0.674451
0.67445
0.674482
0.674481
0.674618
0.674732
0.674791
0.674802
0.674803
0.674801
0.67495
0.675119
0.675121
0.67512
0.67527
0.675474
0.675474
0.675662
0.675847
0.675847
0.676028
0.676212
0.676421
0.676657
0.676884
0.677066
0.677391
0.677606
0.677913
0.678306
0.678659
0.67915
0.679645
0.680334
0.68104
0.682017
0.683054
0.684655
0.686031
0.690108
0.689685
0.72509
2.04862
165.341
0.771648
0.722545
0.701978
0.691449
0.685241
0.681281
0.67856
0.676634
0.67518
0.674092
0.673213
0.672535
0.671953
0.671493
0.671099
0.670785
0.670498
0.670271
0.670053
0.669885
0.669713
0.669584
0.66946
0.669367
0.669262
0.669192
0.669119
0.669069
0.668996
0.668964
0.668935
0.668911
0.66887
0.668859
0.668846
0.668829
0.668778
0.668797
0.668795
0.668807
0.668807
0.668815
0.668806
0.668836
0.668835
0.668884
0.668883
0.668954
0.668954
0.668986
0.668985
0.669067
0.669095
0.669094
0.669126
0.669126
0.669264
0.669382
0.669441
0.669453
0.669454
0.669453
0.669602
0.669778
0.66978
0.669779
0.669928
0.670141
0.670141
0.67033
0.670524
0.670525
0.670706
0.670897
0.67111
0.671349
0.671582
0.671767
0.672096
0.672321
0.672629
0.673031
0.67339
0.673888
0.674386
0.675084
0.675793
0.676782
0.677812
0.679436
0.680791
0.684909
0.684388
0.720299
2.07547
157.693
0.770847
0.720057
0.698494
0.687378
0.680799
0.676591
0.673695
0.671642
0.670093
0.668932
0.667994
0.667268
0.666648
0.666155
0.665734
0.665398
0.665091
0.664847
0.664614
0.664433
0.66425
0.664111
0.663977
0.663877
0.663764
0.663688
0.663609
0.663554
0.663477
0.66344
0.663407
0.663381
0.663337
0.663323
0.663308
0.663288
0.663234
0.663251
0.663247
0.663258
0.663258
0.663265
0.663253
0.663282
0.66328
0.663327
0.663327
0.663399
0.663399
0.66343
0.663429
0.663511
0.66354
0.663539
0.663571
0.66357
0.66371
0.663833
0.663892
0.663906
0.663906
0.663905
0.664054
0.664237
0.66424
0.664239
0.664386
0.664609
0.664609
0.664797
0.665002
0.665002
0.665183
0.665381
0.6656
0.66584
0.666079
0.666268
0.6666
0.666835
0.667145
0.667554
0.667919
0.668424
0.668924
0.669631
0.670341
0.671343
0.672364
0.67401
0.675342
0.679493
0.678882
0.7152
2.09483
149.867
0.77005
0.717528
0.694928
0.683195
0.676225
0.671756
0.668676
0.666488
0.664837
0.663598
0.662597
0.661822
0.661161
0.660634
0.660184
0.659823
0.659495
0.659233
0.658985
0.65879