/*--------------------------------*- C++ -*----------------------------------*\
| =========                 |                                                 |
| \\      /  F ield         | OpenFOAM: The Open Source CFD Toolbox           |
|  \\    /   O peration     | Version:  v2012                                 |
|   \\  /    A nd           | Website:  www.openfoam.com                      |
|    \\/     M anipulation  |                                                 |
\*---------------------------------------------------------------------------*/
FoamFile
{
    version     2.0;
    format      ascii;
    class       volScalarField;
    location    "8";
    object      k;
}
// * * * * * * * * * * * * * * * * * * * * * * * * * * * * * * * * * * * * * //

dimensions      [0 2 -2 0 0 0 0];


internalField   nonuniform List<scalar> 
209825
(
0.00102675
0.000987047
0.00096957
0.000959966
0.000953779
0.000949511
0.000946332
0.000943947
0.000942026
0.000940535
0.000939253
0.000938253
0.00093734
0.00093662
0.000935989
0.000935483
0.000934999
0.000934622
0.000934239
0.000933956
0.000933646
0.000933432
0.000933215
0.000933065
0.000932873
0.000932772
0.000932648
0.000932578
0.00093244
0.000932443
0.00093243
0.000932398
0.00093235
0.000932315
0.000932244
0.000932239
0.000932232
0.000932221
0.000932201
0.000932172
0.000932108
0.000932095
0.000932086
0.000932069
0.000932034
0.000932022
0.000932002
0.000931949
0.000931963
0.000931962
0.000931932
0.000932005
0.000932005
0.000932004
0.000931971
0.000932077
0.000932076
0.000932076
0.000932062
0.000932137
0.000932137
0.000932135
0.000932317
0.000932449
0.000932449
0.000932448
0.000932642
0.000932785
0.000932786
0.000932785
0.000932964
0.000933178
0.0009334
0.000933596
0.000933707
0.000933707
0.000933901
0.000934156
0.000934505
0.000934754
0.000935125
0.000935385
0.000935626
0.000936067
0.000936644
0.000937263
0.000938007
0.000938923
0.000940091
0.000941453
0.000943168
0.000946638
0.000948392
0.000964825
0.00198815
0.00109456
0.00102675
0.000987035
0.000969551
0.000959942
0.000953751
0.00094948
0.000946299
0.000943912
0.00094199
0.000940498
0.000939214
0.000938214
0.0009373
0.000936579
0.000935948
0.000935441
0.000934957
0.00093458
0.000934197
0.000933913
0.000933602
0.000933388
0.000933171
0.000933021
0.000932829
0.000932727
0.000932604
0.000932534
0.000932396
0.000932398
0.000932384
0.000932353
0.000932305
0.00093227
0.000932198
0.000932193
0.000932186
0.000932175
0.000932156
0.000932126
0.000932062
0.00093205
0.00093204
0.000932024
0.000931988
0.000931976
0.000931957
0.000931903
0.000931917
0.000931916
0.000931886
0.000931959
0.000931959
0.000931958
0.000931925
0.00093203
0.00093203
0.00093203
0.000932015
0.000932091
0.000932091
0.000932089
0.000932271
0.000932403
0.000932403
0.000932402
0.000932596
0.000932739
0.00093274
0.000932739
0.000932919
0.000933132
0.000933354
0.00093355
0.000933661
0.000933661
0.000933856
0.000934111
0.00093446
0.000934709
0.00093508
0.00093534
0.000935582
0.000936023
0.0009366
0.00093722
0.000937963
0.00093888
0.000940049
0.000941412
0.000943127
0.000946599
0.000948351
0.000964816
0.00198985
0.00109866
0.00102673
0.000986976
0.000969461
0.000959833
0.000953629
0.000949347
0.000946158
0.000943765
0.000941837
0.000940342
0.000939054
0.000938051
0.000937134
0.000936411
0.000935778
0.000935269
0.000934783
0.000934406
0.000934021
0.000933736
0.000933425
0.000933209
0.000932991
0.000932841
0.000932648
0.000932546
0.000932422
0.000932351
0.000932213
0.000932214
0.000932201
0.000932169
0.00093212
0.000932085
0.000932014
0.000932008
0.000932001
0.000931989
0.00093197
0.000931941
0.000931876
0.000931864
0.000931853
0.000931837
0.000931802
0.000931789
0.00093177
0.000931716
0.00093173
0.000931729
0.000931699
0.000931772
0.000931772
0.00093177
0.000931737
0.000931843
0.000931843
0.000931843
0.000931828
0.000931904
0.000931904
0.000931901
0.000932083
0.000932216
0.000932216
0.000932215
0.000932409
0.000932553
0.000932553
0.000932552
0.000932732
0.000932946
0.000933168
0.000933365
0.000933476
0.000933476
0.000933671
0.000933926
0.000934276
0.000934525
0.000934897
0.000935157
0.0009354
0.000935841
0.000936419
0.00093704
0.000937784
0.000938702
0.000939872
0.000941237
0.000942952
0.000946431
0.000948177
0.000964705
0.00199425
0.0011075
0.0010267
0.000986874
0.00096931
0.00095965
0.000953422
0.000949123
0.000945921
0.000943518
0.000941581
0.000940078
0.000938785
0.000937777
0.000936856
0.000936129
0.000935492
0.000934981
0.000934492
0.000934112
0.000933726
0.000933439
0.000933126
0.000932909
0.00093269
0.000932538
0.000932344
0.000932241
0.000932116
0.000932045
0.000931906
0.000931906
0.000931892
0.00093186
0.00093181
0.000931775
0.000931703
0.000931697
0.000931689
0.000931678
0.000931658
0.000931628
0.000931563
0.000931551
0.00093154
0.000931524
0.000931489
0.000931476
0.000931456
0.000931402
0.000931416
0.000931415
0.000931385
0.000931457
0.000931457
0.000931456
0.000931423
0.000931528
0.000931528
0.000931528
0.000931513
0.000931589
0.000931589
0.000931587
0.000931768
0.000931901
0.000931901
0.0009319
0.000932094
0.000932239
0.000932239
0.000932239
0.000932418
0.000932633
0.000932855
0.000933052
0.000933165
0.000933165
0.00093336
0.000933616
0.000933966
0.000934216
0.000934588
0.000934851
0.000935094
0.000935536
0.000936115
0.000936737
0.000937483
0.000938403
0.000939573
0.000940943
0.000942657
0.000946147
0.00094788
0.000964507
0.00200136
0.00112107
0.00102667
0.000986731
0.000969097
0.00095939
0.00095313
0.000948808
0.000945587
0.000943168
0.00094122
0.000939707
0.000938405
0.00093739
0.000936463
0.000935731
0.000935089
0.000934574
0.000934082
0.000933698
0.000933309
0.00093302
0.000932704
0.000932486
0.000932264
0.000932111
0.000931916
0.000931811
0.000931684
0.000931612
0.000931472
0.000931471
0.000931456
0.000931423
0.000931373
0.000931337
0.000931265
0.000931258
0.00093125
0.000931238
0.000931217
0.000931188
0.000931122
0.000931109
0.000931099
0.000931082
0.000931046
0.000931034
0.000931014
0.00093096
0.000930973
0.000930972
0.000930941
0.000931013
0.000931013
0.000931012
0.000930978
0.000931084
0.000931084
0.000931083
0.000931069
0.000931145
0.000931145
0.000931142
0.000931324
0.000931457
0.000931457
0.000931457
0.00093165
0.000931796
0.000931797
0.000931796
0.000931976
0.000932191
0.000932414
0.000932612
0.000932727
0.000932727
0.000932922
0.000933178
0.000933528
0.00093378
0.000934153
0.000934417
0.000934662
0.000935105
0.000935685
0.000936309
0.000937057
0.00093798
0.000939152
0.000940527
0.00094224
0.000945743
0.000947461
0.000964222
0.00201133
0.00113939
0.00102662
0.000986545
0.00096882
0.000959054
0.000952752
0.000948398
0.000945153
0.000942716
0.000940752
0.000939226
0.000937913
0.000936888
0.000935954
0.000935215
0.000934567
0.000934046
0.000933549
0.000933162
0.000932769
0.000932477
0.000932158
0.000931937
0.000931713
0.000931557
0.00093136
0.000931253
0.000931125
0.000931051
0.00093091
0.000930908
0.000930891
0.000930857
0.000930806
0.00093077
0.000930696
0.000930689
0.00093068
0.000930667
0.000930646
0.000930616
0.000930551
0.000930537
0.000930526
0.00093051
0.000930473
0.00093046
0.00093044
0.000930386
0.000930398
0.000930397
0.000930366
0.000930438
0.000930438
0.000930436
0.000930403
0.000930508
0.000930508
0.000930508
0.000930493
0.000930569
0.000930569
0.000930566
0.000930748
0.000930882
0.000930882
0.000930881
0.000931075
0.000931223
0.000931223
0.000931222
0.000931402
0.000931618
0.000931842
0.00093204
0.000932158
0.000932158
0.000932353
0.00093261
0.000932961
0.000933214
0.000933588
0.000933855
0.000934102
0.000934546
0.000935127
0.000935754
0.000936504
0.00093743
0.000938604
0.000939986
0.000941698
0.000945219
0.000946915
0.000963849
0.00202431
0.00116242
0.00102656
0.000986317
0.000968481
0.000958641
0.000952287
0.000947895
0.00094462
0.000942158
0.000940175
0.000938633
0.000937307
0.000936271
0.000935326
0.000934578
0.000933923
0.000933396
0.000932893
0.000932501
0.000932103
0.000931807
0.000931485
0.00093126
0.000931033
0.000930874
0.000930675
0.000930566
0.000930436
0.00093036
0.000930218
0.000930213
0.000930195
0.00093016
0.000930108
0.00093007
0.000929996
0.000929988
0.000929978
0.000929964
0.000929943
0.000929912
0.000929846
0.000929832
0.000929821
0.000929803
0.000929767
0.000929753
0.000929733
0.000929678
0.00092969
0.000929689
0.000929657
0.000929728
0.000929728
0.000929727
0.000929693
0.000929798
0.000929798
0.000929798
0.000929783
0.000929859
0.000929859
0.000929857
0.000930038
0.000930173
0.000930173
0.000930172
0.000930365
0.000930515
0.000930515
0.000930515
0.000930694
0.000930911
0.000931136
0.000931335
0.000931456
0.000931456
0.000931652
0.00093191
0.000932262
0.000932516
0.000932891
0.000933162
0.000933411
0.000933857
0.000934439
0.00093507
0.000935821
0.000936752
0.000937928
0.000939319
0.000941028
0.000944572
0.00094624
0.000963385
0.00204047
0.00119007
0.00102649
0.000986047
0.000968077
0.000958149
0.000951734
0.000947295
0.000943984
0.000941494
0.000939487
0.000937927
0.000936584
0.000935534
0.000934578
0.00093382
0.000933156
0.000932621
0.000932112
0.000931713
0.00093131
0.000931009
0.000930682
0.000930453
0.000930223
0.000930061
0.000929858
0.000929747
0.000929614
0.000929536
0.000929392
0.000929385
0.000929365
0.000929328
0.000929275
0.000929236
0.000929161
0.000929151
0.000929141
0.000929126
0.000929104
0.000929073
0.000929006
0.000928991
0.000928979
0.000928962
0.000928925
0.000928911
0.00092889
0.000928835
0.000928846
0.000928845
0.000928811
0.000928882
0.000928882
0.000928881
0.000928846
0.000928951
0.000928952
0.000928951
0.000928936
0.000929012
0.000929012
0.00092901
0.000929192
0.000929327
0.000929327
0.000929326
0.000929519
0.000929671
0.000929671
0.000929671
0.00092985
0.000930068
0.000930295
0.000930495
0.000930619
0.000930619
0.000930816
0.000931074
0.000931427
0.000931684
0.000932061
0.000932335
0.000932586
0.000933034
0.000933618
0.000934252
0.000935007
0.000935943
0.000937121
0.000938522
0.000940228
0.000943797
0.000945434
0.000962829
0.00205999
0.0012222
0.00102641
0.000985734
0.000967609
0.000957579
0.00095109
0.000946598
0.000943245
0.000940722
0.000938688
0.000937105
0.000935744
0.000934678
0.000933708
0.000932938
0.000932264
0.00093172
0.000931202
0.000930796
0.000930386
0.00093008
0.000929748
0.000929515
0.000929279
0.000929114
0.000928908
0.000928793
0.000928657
0.000928577
0.000928431
0.000928421
0.000928399
0.00092836
0.000928305
0.000928265
0.000928189
0.000928178
0.000928166
0.00092815
0.000928127
0.000928095
0.000928028
0.000928012
0.000927999
0.000927982
0.000927944
0.000927929
0.000927908
0.000927852
0.000927863
0.000927861
0.000927827
0.000927897
0.000927897
0.000927895
0.000927861
0.000927966
0.000927966
0.000927965
0.000927951
0.000928027
0.000928027
0.000928024
0.000928206
0.000928342
0.000928342
0.000928341
0.000928534
0.000928689
0.000928689
0.000928688
0.000928867
0.000929087
0.000929315
0.000929516
0.000929644
0.000929645
0.000929842
0.000930101
0.000930455
0.000930714
0.000931093
0.000931371
0.000931625
0.000932075
0.000932661
0.0009333
0.000934057
0.000934999
0.00093618
0.000937592
0.000939295
0.000942893
0.000944493
0.000962179
0.00208302
0.00125864
0.00102632
0.000985378
0.000967075
0.000956928
0.000950357
0.000945803
0.000942402
0.000939841
0.000937775
0.000936167
0.000934784
0.000933699
0.000932714
0.00093193
0.000931243
0.000930689
0.000930162
0.000929748
0.000929331
0.000929018
0.00092868
0.000928441
0.000928201
0.000928031
0.000927821
0.000927703
0.000927563
0.00092748
0.000927331
0.000927319
0.000927294
0.000927253
0.000927196
0.000927155
0.000927077
0.000927064
0.000927051
0.000927034
0.000927009
0.000926977
0.000926909
0.000926893
0.000926879
0.000926861
0.000926822
0.000926807
0.000926786
0.000926729
0.000926739
0.000926737
0.000926701
0.000926771
0.000926771
0.000926769
0.000926734
0.000926839
0.000926839
0.000926838
0.000926823
0.000926899
0.000926899
0.000926897
0.000927079
0.000927215
0.000927215
0.000927214
0.000927407
0.000927565
0.000927565
0.000927564
0.000927743
0.000927964
0.000928194
0.000928396
0.000928529
0.00092853
0.000928727
0.000928988
0.000929343
0.000929605
0.000929985
0.000930268
0.000930526
0.000930978
0.000931566
0.00093221
0.00093297
0.000933919
0.000935102
0.000936527
0.000938226
0.000941857
0.000943415
0.000961433
0.00210974
0.00129916
0.00102622
0.00098498
0.000966477
0.000956197
0.000949532
0.000944907
0.000941452
0.000938848
0.000936747
0.000935109
0.000933702
0.000932597
0.000931593
0.000930794
0.000930094
0.000929527
0.00092899
0.000928567
0.000928141
0.00092782
0.000927476
0.000927231
0.000926985
0.000926811
0.000926596
0.000926473
0.000926329
0.000926243
0.000926092
0.000926076
0.000926047
0.000926004
0.000925945
0.000925902
0.000925823
0.000925809
0.000925793
0.000925775
0.000925749
0.000925717
0.000925647
0.00092563
0.000925615
0.000925596
0.000925557
0.000925541
0.000925519
0.000925462
0.000925471
0.000925468
0.000925431
0.0009255
0.0009255
0.000925498
0.000925462
0.000925567
0.000925567
0.000925566
0.000925551
0.000925628
0.000925627
0.000925625
0.000925807
0.000925944
0.000925944
0.000925943
0.000926136
0.000926297
0.000926297
0.000926296
0.000926475
0.000926698
0.000926929
0.000927133
0.00092727
0.000927272
0.00092747
0.000927732
0.000928088
0.000928353
0.000928735
0.000929024
0.000929285
0.00092974
0.00093033
0.00093098
0.000931743
0.000932699
0.000933885
0.000935324
0.000937018
0.000940685
0.000942195
0.000960586
0.0021403
0.00134352
0.00102611
0.00098454
0.000965812
0.000955384
0.000948614
0.000943911
0.000940395
0.000937743
0.000935602
0.000933932
0.000932496
0.000931368
0.000930345
0.000929528
0.000928812
0.000928233
0.000927683
0.00092725
0.000926815
0.000926486
0.000926134
0.000925882
0.000925629
0.000925449
0.000925229
0.000925102
0.000924954
0.000924864
0.000924709
0.00092469
0.000924658
0.000924612
0.000924551
0.000924506
0.000924425
0.000924408
0.000924391
0.000924371
0.000924344
0.00092431
0.00092424
0.000924221
0.000924206
0.000924186
0.000924146
0.000924129
0.000924107
0.000924049
0.000924057
0.000924054
0.000924015
0.000924082
0.000924082
0.000924081
0.000924044
0.000924149
0.000924149
0.000924148
0.000924133
0.000924209
0.000924209
0.000924206
0.000924388
0.000924526
0.000924526
0.000924525
0.000924718
0.000924882
0.000924882
0.000924882
0.00092506
0.000925285
0.000925518
0.000925723
0.000925866
0.000925868
0.000926067
0.00092633
0.000926688
0.000926956
0.00092734
0.000927635
0.0009279
0.000928357
0.00092895
0.000929606
0.000930373
0.000931337
0.000932525
0.000933979
0.000935669
0.000939374
0.000940832
0.000959638
0.00217485
0.00139145
0.00102599
0.000984057
0.000965082
0.00095449
0.000947603
0.000942814
0.000939229
0.000936523
0.000934339
0.000932632
0.000931166
0.000930012
0.000928966
0.000928131
0.000927397
0.000926803
0.00092624
0.000925795
0.000925349
0.000925011
0.000924651
0.000924391
0.000924132
0.000923946
0.00092372
0.000923587
0.000923434
0.00092334
0.000923182
0.000923158
0.000923122
0.000923074
0.00092301
0.000922963
0.00092288
0.000922861
0.000922841
0.00092282
0.000922791
0.000922756
0.000922685
0.000922665
0.000922648
0.000922628
0.000922587
0.000922569
0.000922546
0.000922488
0.000922494
0.00092249
0.000922449
0.000922516
0.000922516
0.000922514
0.000922477
0.000922581
0.000922581
0.00092258
0.000922565
0.000922641
0.000922641
0.000922638
0.00092282
0.000922959
0.000922959
0.000922958
0.00092315
0.000923318
0.000923318
0.000923318
0.000923496
0.000923722
0.000923958
0.000924165
0.000924313
0.000924317
0.000924517
0.00092478
0.00092514
0.000925411
0.000925798
0.000926099
0.000926368
0.000926829
0.000927423
0.000928086
0.000928857
0.000929829
0.00093102
0.000932491
0.000934175
0.000937922
0.000939322
0.000958583
0.00221353
0.00144268
0.00102586
0.000983532
0.000964287
0.000953513
0.000946498
0.000941613
0.000937954
0.000935189
0.000932955
0.000931209
0.000929709
0.000928526
0.000927456
0.000926599
0.000925846
0.000925236
0.000924658
0.000924201
0.000923743
0.000923395
0.000923025
0.000922757
0.00092249
0.000922297
0.000922065
0.000921926
0.000921768
0.000921669
0.000921507
0.000921478
0.000921438
0.000921387
0.00092132
0.00092127
0.000921185
0.000921164
0.000921142
0.000921118
0.000921088
0.000921052
0.000920979
0.000920958
0.000920939
0.000920918
0.000920876
0.000920858
0.000920834
0.000920775
0.00092078
0.000920775
0.000920733
0.000920798
0.000920798
0.000920796
0.000920758
0.000920862
0.000920861
0.000920861
0.000920845
0.000920921
0.000920921
0.000920918
0.0009211
0.00092124
0.00092124
0.000921239
0.00092143
0.000921603
0.000921603
0.000921603
0.000921781
0.000922009
0.000922246
0.000922455
0.000922609
0.000922615
0.000922815
0.00092308
0.000923441
0.000923716
0.000924105
0.000924413
0.000924686
0.00092515
0.000925748
0.000926417
0.000927192
0.000928174
0.000929367
0.000930855
0.000932533
0.000936324
0.000937661
0.000957418
0.00225644
0.0014969
0.00102573
0.000982966
0.000963425
0.000952454
0.000945298
0.000940308
0.000936568
0.000933737
0.000931451
0.000929661
0.000928124
0.00092691
0.000925812
0.000924932
0.000924158
0.00092353
0.000922936
0.000922464
0.000921994
0.000921635
0.000921255
0.000920978
0.000920702
0.000920501
0.000920262
0.000920117
0.000919953
0.000919849
0.000919682
0.000919648
0.000919604
0.000919549
0.000919478
0.000919427
0.000919339
0.000919314
0.00091929
0.000919265
0.000919232
0.000919195
0.000919121
0.000919098
0.000919078
0.000919056
0.000919013
0.000918993
0.000918969
0.000918909
0.000918913
0.000918907
0.000918862
0.000918925
0.000918925
0.000918923
0.000918884
0.000918988
0.000918987
0.000918987
0.000918971
0.000919047
0.000919046
0.000919043
0.000919225
0.000919366
0.000919366
0.000919365
0.000919556
0.000919733
0.000919733
0.000919733
0.000919911
0.00092014
0.000920381
0.000920591
0.000920751
0.000920759
0.00092096
0.000921226
0.000921589
0.000921868
0.000922259
0.000922574
0.000922853
0.00092332
0.00092392
0.000924597
0.000925376
0.000926367
0.000927563
0.00092907
0.00093074
0.000934577
0.000935848
0.000956139
0.00230366
0.00155385
0.00102559
0.000982358
0.000962497
0.000951312
0.000944003
0.000938899
0.00093507
0.000932168
0.000929824
0.000927986
0.000926408
0.00092516
0.000924033
0.000923127
0.000922331
0.000921683
0.000921071
0.000920585
0.000920101
0.000919729
0.000919338
0.000919051
0.000918765
0.000918556
0.00091831
0.000918158
0.000917986
0.000917878
0.000917705
0.000917666
0.000917617
0.000917558
0.000917484
0.000917429
0.000917338
0.000917311
0.000917284
0.000917256
0.000917221
0.000917183
0.000917107
0.000917082
0.00091706
0.000917038
0.000916993
0.000916972
0.000916947
0.000916888
0.000916889
0.000916882
0.000916835
0.000916897
0.000916897
0.000916894
0.000916854
0.000916957
0.000916957
0.000916956
0.00091694
0.000917015
0.000917015
0.000917012
0.000917193
0.000917335
0.000917335
0.000917335
0.000917525
0.000917707
0.000917706
0.000917707
0.000917884
0.000918116
0.000918359
0.000918571
0.000918737
0.000918747
0.000918949
0.000919216
0.000919581
0.000919864
0.000920258
0.00092058
0.000920864
0.000921335
0.000921938
0.000922623
0.000923406
0.000924407
0.000925605
0.000927131
0.000928794
0.000932679
0.000933877
0.000954741
0.00235522
0.00161325
0.00102543
0.00098171
0.000961504
0.000950086
0.000942613
0.000937385
0.000933459
0.000930481
0.000928073
0.000926183
0.000924561
0.000923276
0.000922117
0.000921183
0.000920362
0.000919693
0.000919062
0.000918559
0.00091806
0.000917675
0.000917272
0.000916974
0.000916677
0.00091646
0.000916205
0.000916045
0.000915867
0.000915752
0.000915574
0.000915529
0.000915474
0.000915411
0.000915333
0.000915275
0.000915182
0.000915151
0.00091512
0.00091509
0.000915053
0.000915013
0.000914936
0.000914909
0.000914885
0.000914861
0.000914816
0.000914793
0.000914767
0.000914708
0.000914707
0.000914698
0.000914649
0.000914709
0.000914709
0.000914706
0.000914665
0.000914767
0.000914767
0.000914766
0.000914749
0.000914824
0.000914824
0.000914821
0.000915002
0.000915145
0.000915145
0.000915145
0.000915334
0.000915521
0.000915521
0.000915521
0.000915697
0.000915931
0.000916177
0.000916391
0.000916564
0.000916577
0.00091678
0.000917048
0.000917414
0.000917701
0.000918098
0.000918428
0.000918718
0.000919193
0.000919798
0.000920491
0.000921278
0.00092229
0.000923489
0.000925036
0.00092669
0.000930625
0.000931748
0.000953219
0.00241112
0.00167486
0.00102528
0.000981022
0.000960445
0.000948778
0.000941126
0.000935764
0.000931734
0.000928673
0.000926197
0.000924251
0.000922582
0.000921256
0.000920063
0.000919099
0.000918251
0.000917559
0.000916907
0.000916386
0.000915871
0.000915471
0.000915055
0.000914745
0.000914437
0.00091421
0.000913946
0.000913779
0.000913592
0.000913471
0.000913287
0.000913235
0.000913175
0.000913107
0.000913025
0.000912963
0.000912866
0.000912832
0.000912798
0.000912765
0.000912725
0.000912684
0.000912605
0.000912575
0.00091255
0.000912525
0.000912477
0.000912453
0.000912426
0.000912367
0.000912364
0.000912354
0.000912301
0.00091236
0.000912359
0.000912357
0.000912314
0.000912415
0.000912415
0.000912414
0.000912397
0.000912472
0.000912472
0.000912468
0.000912649
0.000912793
0.000912793
0.000912793
0.000912981
0.000913173
0.000913173
0.000913173
0.000913349
0.000913585
0.000913834
0.00091405
0.000914229
0.000914246
0.000914449
0.000914719
0.000915087
0.000915378
0.000915778
0.000916116
0.000916411
0.000916891
0.000917498
0.000918199
0.000918991
0.000920013
0.000921214
0.000922782
0.000924427
0.000928412
0.000929456
0.000951567
0.0024713
0.00173842
0.00102511
0.000980295
0.000959321
0.000947386
0.000939542
0.000934037
0.000929895
0.000926745
0.000924195
0.000922189
0.000920468
0.0009191
0.000917868
0.000916872
0.000915995
0.000915279
0.000914605
0.000914064
0.000913531
0.000913116
0.000912685
0.000912362
0.000912043
0.000911805
0.000911531
0.000911355
0.00091116
0.000911032
0.000910841
0.000910782
0.000910716
0.000910643
0.000910556
0.000910491
0.00091039
0.000910352
0.000910314
0.000910279
0.000910235
0.000910193
0.000910111
0.00091008
0.000910052
0.000910025
0.000909976
0.00090995
0.000909923
0.000909863
0.000909858
0.000909846
0.000909791
0.000909847
0.000909846
0.000909844
0.0009098
0.0009099
0.000909899
0.000909898
0.000909881
0.000909955
0.000909955
0.000909951
0.000910132
0.000910277
0.000910277
0.000910276
0.000910464
0.000910661
0.000910661
0.000910661
0.000910837
0.000911075
0.000911327
0.000911545
0.000911731
0.000911752
0.000911956
0.000912226
0.000912596
0.000912892
0.000913294
0.00091364
0.000913942
0.000914425
0.000915035
0.000915745
0.00091654
0.000917574
0.000918775
0.000920366
0.000922001
0.000926037
0.000926997
0.000949779
0.00253561
0.00180372
0.00102494
0.000979529
0.000958133
0.000945911
0.000937862
0.000932203
0.00092794
0.000924695
0.000922067
0.000919995
0.00091822
0.000916804
0.000915533
0.000914502
0.000913594
0.000912851
0.000912153
0.000911591
0.000911039
0.000910607
0.000910161
0.000909824
0.000909492
0.000909243
0.000908959
0.000908772
0.000908568
0.000908433
0.000908235
0.000908168
0.000908095
0.000908017
0.000907925
0.000907856
0.000907751
0.000907708
0.000907667
0.000907628
0.000907582
0.000907537
0.000907453
0.000907419
0.000907389
0.000907361
0.00090731
0.000907283
0.000907254
0.000907193
0.000907187
0.000907173
0.000907114
0.000907168
0.000907168
0.000907165
0.000907119
0.000907218
0.000907217
0.000907216
0.000907199
0.000907272
0.000907272
0.000907268
0.000907448
0.000907594
0.000907593
0.000907593
0.00090778
0.000907983
0.000907983
0.000907983
0.000908158
0.000908398
0.000908653
0.000908873
0.000909066
0.000909091
0.000909296
0.000909568
0.000909938
0.000910239
0.000910643
0.000910999
0.000911307
0.000911795
0.000912407
0.000913126
0.000913925
0.00091497
0.000916171
0.000917785
0.000919409
0.000923497
0.000924371
0.000947848
0.00260383
0.00187056
0.00102476
0.000978725
0.000956881
0.000944354
0.000936086
0.000930262
0.000925871
0.000922522
0.00091981
0.000917669
0.000915835
0.000914369
0.000913055
0.000911987
0.000911045
0.000910273
0.000909549
0.000908966
0.000908393
0.000907943
0.00090748
0.000907129
0.000906782
0.000906522
0.000906226
0.000906029
0.000905815
0.000905672
0.000905466
0.000905391
0.000905311
0.000905227
0.000905129
0.000905056
0.000904947
0.0009049
0.000904854
0.000904812
0.000904762
0.000904715
0.000904629
0.000904592
0.000904559
0.00090453
0.000904477
0.000904447
0.000904417
0.000904356
0.000904347
0.000904331
0.00090427
0.000904321
0.000904321
0.000904318
0.00090427
0.000904367
0.000904367
0.000904366
0.000904347
0.00090442
0.00090442
0.000904416
0.000904596
0.000904742
0.000904741
0.000904741
0.000904927
0.000905135
0.000905135
0.000905136
0.00090531
0.000905552
0.00090581
0.000906033
0.000906232
0.000906263
0.000906467
0.00090674
0.000907112
0.000907418
0.000907825
0.000908189
0.000908503
0.000908996
0.00090961
0.000910338
0.000911141
0.000912197
0.000913398
0.000915035
0.000916647
0.000920787
0.000921572
0.000945766
0.00267564
0.00193876
0.00102458
0.000977885
0.000955565
0.000942714
0.000934213
0.000928214
0.000923685
0.000920227
0.000917425
0.00091521
0.000913312
0.000911794
0.000910433
0.000909325
0.000908348
0.000907545
0.000906794
0.000906186
0.000905591
0.000905122
0.000904642
0.000904274
0.000903913
0.000903639
0.000903331
0.000903124
0.000902899
0.000902747
0.000902533
0.000902449
0.000902361
0.000902272
0.000902168
0.000902089
0.000901976
0.000901924
0.000901873
0.000901827
0.000901774
0.000901725
0.000901636
0.000901596
0.00090156
0.000901529
0.000901474
0.000901442
0.000901411
0.000901349
0.000901338
0.00090132
0.000901256
0.000901304
0.000901303
0.0009013
0.00090125
0.000901346
0.000901346
0.000901345
0.000901326
0.000901398
0.000901398
0.000901393
0.000901572
0.000901718
0.000901718
0.000901718
0.000901903
0.000902116
0.000902117
0.000902117
0.00090229
0.000902535
0.000902796
0.000903021
0.000903227
0.000903263
0.000903468
0.000903742
0.000904115
0.000904426
0.000904835
0.000905209
0.000905529
0.000906027
0.000906643
0.00090738
0.000908186
0.000909254
0.000910454
0.000912114
0.000913714
0.000917904
0.000918598
0.000943527
0.00275063
0.00200814
0.0010244
0.00097701
0.000954188
0.000940993
0.000932243
0.000926058
0.000921383
0.000917809
0.00091491
0.000912616
0.000910652
0.000909076
0.000907666
0.000906516
0.000905501
0.000904665
0.000903884
0.000903251
0.000902632
0.000902143
0.000901644
0.000901259
0.000900882
0.000900595
0.000900274
0.000900054
0.000899819
0.000899656
0.000899434
0.00089934
0.000899244
0.000899148
0.000899038
0.000898954
0.000898836
0.000898778
0.000898723
0.000898673
0.000898616
0.000898564
0.000898472
0.000898429
0.00089839
0.000898357
0.0008983
0.000898266
0.000898233
0.00089817
0.000898157
0.000898137
0.000898069
0.000898115
0.000898114
0.00089811
0.000898058
0.000898152
0.000898152
0.00089815
0.000898131
0.000898202
0.000898202
0.000898196
0.000898375
0.000898521
0.000898522
0.000898521
0.000898705
0.000898924
0.000898925
0.000898925
0.000899097
0.000899344
0.000899608
0.000899835
0.000900048
0.00090009
0.000900296
0.000900571
0.000900945
0.000901261
0.000901672
0.000902055
0.000902382
0.000902885
0.000903503
0.000904249
0.000905057
0.000906138
0.000907335
0.000909019
0.000910606
0.000914845
0.000915447
0.00094112
0.00282824
0.00207856
0.00102421
0.0009761
0.000952749
0.00093919
0.000930178
0.000923795
0.000918965
0.000915267
0.000912266
0.000909888
0.000907852
0.000906216
0.000904754
0.000903558
0.000902502
0.000901632
0.00090082
0.000900159
0.000899515
0.000899004
0.000898485
0.000898082
0.000897687
0.000897386
0.000897051
0.000896819
0.000896571
0.000896399
0.000896167
0.000896063
0.000895958
0.000895855
0.000895738
0.000895649
0.000895525
0.000895462
0.000895401
0.000895347
0.000895285
0.00089523
0.000895136
0.00089509
0.000895047
0.000895012
0.000894953
0.000894916
0.000894882
0.000894817
0.000894802
0.00089478
0.000894709
0.000894751
0.00089475
0.000894746
0.000894691
0.000894783
0.000894783
0.000894781
0.000894761
0.000894831
0.000894831
0.000894825
0.000895003
0.000895149
0.00089515
0.000895149
0.000895331
0.000895556
0.000895557
0.000895557
0.000895729
0.000895977
0.000896245
0.000896474
0.000896693
0.000896742
0.000896949
0.000897224
0.000897599
0.00089792
0.000898333
0.000898726
0.00089906
0.000899568
0.000900187
0.000900941
0.000901752
0.000902845
0.00090404
0.000905747
0.000907319
0.000911606
0.000912115
0.000938539
0.00290781
0.00214986
0.00102402
0.000975157
0.000951251
0.000937307
0.000928017
0.000921425
0.00091643
0.000912601
0.000909492
0.000907025
0.000904913
0.000903212
0.000901695
0.00090045
0.000899352
0.000898445
0.000897599
0.000896909
0.000896239
0.000895704
0.000895163
0.000894742
0.000894329
0.000894011
0.000893662
0.000893416
0.000893156
0.000892972
0.00089273
0.000892616
0.000892502
0.000892391
0.000892266
0.000892171
0.000892042
0.000891972
0.000891906
0.000891848
0.000891781
0.000891723
0.000891625
0.000891575
0.000891529
0.000891492
0.00089143
0.000891391
0.000891355
0.000891289
0.000891271
0.000891247
0.000891172
0.000891211
0.00089121
0.000891205
0.000891148
0.000891237
0.000891237
0.000891236
0.000891214
0.000891283
0.000891283
0.000891276
0.000891453
0.000891599
0.0008916
0.000891599
0.00089178
0.000892011
0.000892012
0.000892012
0.000892183
0.000892432
0.000892703
0.000892934
0.000893161
0.000893217
0.000893424
0.0008937
0.000894076
0.000894401
0.000894817
0.000895218
0.000895559
0.000896072
0.000896692
0.000897456
0.000898269
0.000899373
0.000900564
0.000902295
0.000903852
0.000908184
0.000908599
0.000935772
0.0029885
0.00222188
0.00102383
0.000974183
0.000949693
0.000935345
0.000925762
0.000918948
0.000913779
0.000909811
0.000906588
0.000904026
0.000901833
0.000900065
0.000898488
0.000897193
0.000896049
0.000895102
0.000894221
0.0008935
0.000892802
0.000892242
0.000891678
0.000891236
0.000890804
0.000890469
0.000890104
0.000889845
0.00088957
0.000889376
0.000889123
0.000888997
0.000888873
0.000888754
0.000888621
0.00088852
0.000888384
0.000888308
0.000888236
0.000888173
0.000888101
0.00088804
0.000887938
0.000887885
0.000887835
0.000887795
0.00088773
0.000887689
0.00088765
0.000887583
0.000887562
0.000887536
0.000887458
0.000887493
0.000887492
0.000887486
0.000887426
0.000887513