/*--------------------------------*- C++ -*----------------------------------*\
| =========                 |                                                 |
| \\      /  F ield         | OpenFOAM: The Open Source CFD Toolbox           |
|  \\    /   O peration     | Version:  v2012                                 |
|   \\  /    A nd           | Website:  www.openfoam.com                      |
|    \\/     M anipulation  |                                                 |
\*---------------------------------------------------------------------------*/
FoamFile
{
    version     2.0;
    format      ascii;
    class       volScalarField;
    location    "8";
    object      nut;
}
// * * * * * * * * * * * * * * * * * * * * * * * * * * * * * * * * * * * * * //

dimensions      [0 2 -1 0 0 0 0];


internalField   nonuniform List<scalar> 
209825
(
1.20432e-07
1.14664e-07
1.11646e-07
1.09868e-07
1.0868e-07
1.07841e-07
1.07207e-07
1.06726e-07
1.06335e-07
1.0603e-07
1.05767e-07
1.0556e-07
1.05373e-07
1.05223e-07
1.05091e-07
1.04985e-07
1.04884e-07
1.04805e-07
1.04725e-07
1.04665e-07
1.04601e-07
1.04555e-07
1.04509e-07
1.04477e-07
1.04437e-07
1.04415e-07
1.04388e-07
1.04372e-07
1.04343e-07
1.04341e-07
1.04338e-07
1.0433e-07
1.04319e-07
1.04309e-07
1.04293e-07
1.0429e-07
1.04288e-07
1.04281e-07
1.04277e-07
1.04267e-07
1.04253e-07
1.04247e-07
1.04244e-07
1.04235e-07
1.04227e-07
1.04219e-07
1.04215e-07
1.04198e-07
1.04201e-07
1.04196e-07
1.04189e-07
1.04196e-07
1.04196e-07
1.04196e-07
1.04186e-07
1.0421e-07
1.04197e-07
1.04195e-07
1.04185e-07
1.04202e-07
1.04201e-07
1.04201e-07
1.04225e-07
1.04249e-07
1.04249e-07
1.04249e-07
1.04272e-07
1.04299e-07
1.04299e-07
1.04279e-07
1.04315e-07
1.04363e-07
1.04392e-07
1.04433e-07
1.04436e-07
1.04413e-07
1.04445e-07
1.04485e-07
1.04535e-07
1.04585e-07
1.04637e-07
1.04669e-07
1.04694e-07
1.04745e-07
1.04828e-07
1.04906e-07
1.05002e-07
1.05118e-07
1.05252e-07
1.05423e-07
1.05577e-07
1.06062e-07
1.06122e-07
1.07509e-07
3.10527e-07
4.84518e-10
1.20433e-07
1.14665e-07
1.11646e-07
1.09867e-07
1.0868e-07
1.0784e-07
1.07206e-07
1.06724e-07
1.06333e-07
1.06028e-07
1.05765e-07
1.05558e-07
1.0537e-07
1.0522e-07
1.05088e-07
1.04982e-07
1.04881e-07
1.04802e-07
1.04722e-07
1.04662e-07
1.04598e-07
1.04552e-07
1.04506e-07
1.04474e-07
1.04434e-07
1.04411e-07
1.04385e-07
1.04369e-07
1.04339e-07
1.04338e-07
1.04335e-07
1.04326e-07
1.04316e-07
1.04306e-07
1.0429e-07
1.04286e-07
1.04285e-07
1.04277e-07
1.04273e-07
1.04263e-07
1.04249e-07
1.04243e-07
1.04241e-07
1.04232e-07
1.04224e-07
1.04216e-07
1.04211e-07
1.04194e-07
1.04197e-07
1.04192e-07
1.04185e-07
1.04192e-07
1.04192e-07
1.04192e-07
1.04182e-07
1.04206e-07
1.04193e-07
1.04191e-07
1.04181e-07
1.04198e-07
1.04197e-07
1.04197e-07
1.04221e-07
1.04245e-07
1.04245e-07
1.04245e-07
1.04268e-07
1.04295e-07
1.04295e-07
1.04275e-07
1.04311e-07
1.04359e-07
1.04388e-07
1.04429e-07
1.04432e-07
1.04409e-07
1.04441e-07
1.04481e-07
1.04532e-07
1.04582e-07
1.04633e-07
1.04665e-07
1.0469e-07
1.04741e-07
1.04824e-07
1.04902e-07
1.04998e-07
1.05114e-07
1.05248e-07
1.05419e-07
1.05573e-07
1.06059e-07
1.06118e-07
1.07507e-07
3.10784e-07
4.94982e-10
1.20437e-07
1.14669e-07
1.11648e-07
1.09867e-07
1.08677e-07
1.07836e-07
1.072e-07
1.06717e-07
1.06326e-07
1.0602e-07
1.05756e-07
1.05549e-07
1.0536e-07
1.0521e-07
1.05078e-07
1.04971e-07
1.0487e-07
1.04791e-07
1.0471e-07
1.0465e-07
1.04586e-07
1.0454e-07
1.04493e-07
1.04461e-07
1.04421e-07
1.04398e-07
1.04372e-07
1.04356e-07
1.04326e-07
1.04324e-07
1.04321e-07
1.04313e-07
1.04302e-07
1.04292e-07
1.04276e-07
1.04273e-07
1.04271e-07
1.04263e-07
1.04259e-07
1.0425e-07
1.04235e-07
1.04229e-07
1.04227e-07
1.04218e-07
1.0421e-07
1.04202e-07
1.04197e-07
1.0418e-07
1.04183e-07
1.04178e-07
1.04171e-07
1.04178e-07
1.04178e-07
1.04178e-07
1.04168e-07
1.04192e-07
1.04179e-07
1.04177e-07
1.04167e-07
1.04184e-07
1.04183e-07
1.04183e-07
1.04207e-07
1.04231e-07
1.04231e-07
1.04231e-07
1.04254e-07
1.0428e-07
1.04281e-07
1.04261e-07
1.04297e-07
1.04344e-07
1.04373e-07
1.04415e-07
1.04418e-07
1.04395e-07
1.04427e-07
1.04467e-07
1.04517e-07
1.04567e-07
1.04619e-07
1.04651e-07
1.04676e-07
1.04727e-07
1.0481e-07
1.04888e-07
1.04984e-07
1.05101e-07
1.05234e-07
1.05405e-07
1.05559e-07
1.06045e-07
1.06104e-07
1.07496e-07
3.11488e-07
5.1087e-10
1.20445e-07
1.14675e-07
1.1165e-07
1.09866e-07
1.08673e-07
1.07829e-07
1.07191e-07
1.06707e-07
1.06314e-07
1.06006e-07
1.05741e-07
1.05533e-07
1.05344e-07
1.05193e-07
1.0506e-07
1.04953e-07
1.04852e-07
1.04772e-07
1.04691e-07
1.04631e-07
1.04566e-07
1.04519e-07
1.04473e-07
1.0444e-07
1.044e-07
1.04377e-07
1.0435e-07
1.04334e-07
1.04305e-07
1.04303e-07
1.04299e-07
1.04291e-07
1.0428e-07
1.0427e-07
1.04254e-07
1.0425e-07
1.04249e-07
1.04241e-07
1.04236e-07
1.04227e-07
1.04213e-07
1.04206e-07
1.04204e-07
1.04195e-07
1.04187e-07
1.04179e-07
1.04174e-07
1.04157e-07
1.0416e-07
1.04155e-07
1.04148e-07
1.04155e-07
1.04155e-07
1.04155e-07
1.04145e-07
1.04168e-07
1.04156e-07
1.04153e-07
1.04143e-07
1.0416e-07
1.0416e-07
1.04159e-07
1.04183e-07
1.04207e-07
1.04207e-07
1.04207e-07
1.04231e-07
1.04257e-07
1.04257e-07
1.04237e-07
1.04273e-07
1.04321e-07
1.0435e-07
1.04391e-07
1.04395e-07
1.04372e-07
1.04403e-07
1.04444e-07
1.04494e-07
1.04544e-07
1.04596e-07
1.04628e-07
1.04653e-07
1.04704e-07
1.04787e-07
1.04865e-07
1.04961e-07
1.05077e-07
1.05211e-07
1.05383e-07
1.05536e-07
1.06022e-07
1.06081e-07
1.07477e-07
3.12629e-07
5.30786e-10
1.20455e-07
1.14685e-07
1.11654e-07
1.09864e-07
1.08667e-07
1.0782e-07
1.07179e-07
1.06692e-07
1.06297e-07
1.05988e-07
1.05721e-07
1.05512e-07
1.05322e-07
1.0517e-07
1.05036e-07
1.04928e-07
1.04826e-07
1.04745e-07
1.04664e-07
1.04603e-07
1.04538e-07
1.04491e-07
1.04444e-07
1.04411e-07
1.04371e-07
1.04347e-07
1.0432e-07
1.04304e-07
1.04274e-07
1.04272e-07
1.04268e-07
1.0426e-07
1.04249e-07
1.04238e-07
1.04222e-07
1.04219e-07
1.04217e-07
1.04209e-07
1.04205e-07
1.04195e-07
1.04181e-07
1.04174e-07
1.04172e-07
1.04163e-07
1.04155e-07
1.04146e-07
1.04142e-07
1.04125e-07
1.04128e-07
1.04122e-07
1.04115e-07
1.04122e-07
1.04122e-07
1.04122e-07
1.04112e-07
1.04136e-07
1.04123e-07
1.0412e-07
1.0411e-07
1.04127e-07
1.04127e-07
1.04126e-07
1.0415e-07
1.04174e-07
1.04174e-07
1.04174e-07
1.04197e-07
1.04224e-07
1.04224e-07
1.04204e-07
1.04239e-07
1.04288e-07
1.04317e-07
1.04358e-07
1.04362e-07
1.04339e-07
1.0437e-07
1.04411e-07
1.04461e-07
1.04511e-07
1.04563e-07
1.04595e-07
1.0462e-07
1.04671e-07
1.04754e-07
1.04832e-07
1.04929e-07
1.05045e-07
1.05179e-07
1.0535e-07
1.05504e-07
1.0599e-07
1.06049e-07
1.0745e-07
3.14226e-07
5.5419e-10
1.20469e-07
1.14697e-07
1.11659e-07
1.09862e-07
1.08659e-07
1.07808e-07
1.07163e-07
1.06673e-07
1.06275e-07
1.05964e-07
1.05695e-07
1.05484e-07
1.05292e-07
1.05139e-07
1.05004e-07
1.04895e-07
1.04792e-07
1.04711e-07
1.04629e-07
1.04567e-07
1.04501e-07
1.04454e-07
1.04407e-07
1.04373e-07
1.04333e-07
1.04309e-07
1.04281e-07
1.04265e-07
1.04235e-07
1.04232e-07
1.04229e-07
1.04219e-07
1.04208e-07
1.04198e-07
1.04182e-07
1.04178e-07
1.04176e-07
1.04168e-07
1.04163e-07
1.04154e-07
1.04139e-07
1.04133e-07
1.0413e-07
1.04121e-07
1.04113e-07
1.04105e-07
1.041e-07
1.04083e-07
1.04086e-07
1.0408e-07
1.04073e-07
1.0408e-07
1.0408e-07
1.04079e-07
1.04069e-07
1.04093e-07
1.0408e-07
1.04077e-07
1.04067e-07
1.04084e-07
1.04084e-07
1.04083e-07
1.04107e-07
1.04131e-07
1.04131e-07
1.04131e-07
1.04154e-07
1.04181e-07
1.04181e-07
1.04161e-07
1.04196e-07
1.04245e-07
1.04274e-07
1.04315e-07
1.04319e-07
1.04296e-07
1.04327e-07
1.04368e-07
1.04418e-07
1.04468e-07
1.0452e-07
1.04553e-07
1.04578e-07
1.04629e-07
1.04712e-07
1.0479e-07
1.04886e-07
1.05003e-07
1.05136e-07
1.05309e-07
1.05462e-07
1.05948e-07
1.06007e-07
1.07414e-07
3.16301e-07
5.80837e-10
1.20486e-07
1.14713e-07
1.11665e-07
1.0986e-07
1.0865e-07
1.07793e-07
1.07143e-07
1.06649e-07
1.06248e-07
1.05934e-07
1.05663e-07
1.0545e-07
1.05256e-07
1.05102e-07
1.04965e-07
1.04855e-07
1.04751e-07
1.04669e-07
1.04586e-07
1.04523e-07
1.04457e-07
1.04409e-07
1.04361e-07
1.04327e-07
1.04286e-07
1.04262e-07
1.04233e-07
1.04217e-07
1.04186e-07
1.04184e-07
1.04179e-07
1.0417e-07
1.04159e-07
1.04148e-07
1.04132e-07
1.04128e-07
1.04126e-07
1.04117e-07
1.04113e-07
1.04103e-07
1.04088e-07
1.04082e-07
1.04079e-07
1.0407e-07
1.04062e-07
1.04053e-07
1.04049e-07
1.04031e-07
1.04034e-07
1.04028e-07
1.04021e-07
1.04028e-07
1.04028e-07
1.04027e-07
1.04017e-07
1.04041e-07
1.04027e-07
1.04025e-07
1.04015e-07
1.04032e-07
1.04031e-07
1.04031e-07
1.04055e-07
1.04078e-07
1.04078e-07
1.04078e-07
1.04101e-07
1.04128e-07
1.04128e-07
1.04108e-07
1.04143e-07
1.04192e-07
1.04221e-07
1.04262e-07
1.04267e-07
1.04244e-07
1.04275e-07
1.04315e-07
1.04365e-07
1.04416e-07
1.04468e-07
1.04501e-07
1.04526e-07
1.04577e-07
1.0466e-07
1.04738e-07
1.04834e-07
1.04951e-07
1.05085e-07
1.05257e-07
1.0541e-07
1.05896e-07
1.05955e-07
1.07371e-07
3.18876e-07
6.10649e-10
1.20506e-07
1.14731e-07
1.11673e-07
1.09858e-07
1.0864e-07
1.07775e-07
1.0712e-07
1.06621e-07
1.06216e-07
1.05899e-07
1.05625e-07
1.05409e-07
1.05214e-07
1.05057e-07
1.04919e-07
1.04807e-07
1.04702e-07
1.04618e-07
1.04534e-07
1.04471e-07
1.04404e-07
1.04355e-07
1.04306e-07
1.04272e-07
1.0423e-07
1.04205e-07
1.04176e-07
1.04159e-07
1.04129e-07
1.04125e-07
1.04121e-07
1.04111e-07
1.041e-07
1.04089e-07
1.04072e-07
1.04068e-07
1.04066e-07
1.04057e-07
1.04052e-07
1.04043e-07
1.04028e-07
1.04021e-07
1.04018e-07
1.04009e-07
1.04e-07
1.03992e-07
1.03987e-07
1.03969e-07
1.03972e-07
1.03967e-07
1.03959e-07
1.03965e-07
1.03965e-07
1.03965e-07
1.03955e-07
1.03978e-07
1.03965e-07
1.03962e-07
1.03952e-07
1.03969e-07
1.03968e-07
1.03968e-07
1.03992e-07
1.04015e-07
1.04015e-07
1.04015e-07
1.04038e-07
1.04065e-07
1.04065e-07
1.04045e-07
1.0408e-07
1.04129e-07
1.04158e-07
1.04199e-07
1.04205e-07
1.04181e-07
1.04212e-07
1.04253e-07
1.04303e-07
1.04353e-07
1.04405e-07
1.04438e-07
1.04464e-07
1.04515e-07
1.04598e-07
1.04676e-07
1.04772e-07
1.0489e-07
1.05023e-07
1.05196e-07
1.05348e-07
1.05834e-07
1.05893e-07
1.07319e-07
3.21971e-07
6.43662e-10
1.2053e-07
1.14753e-07
1.11682e-07
1.09855e-07
1.08627e-07
1.07755e-07
1.07093e-07
1.06589e-07
1.06179e-07
1.05858e-07
1.05581e-07
1.05362e-07
1.05164e-07
1.05005e-07
1.04865e-07
1.04752e-07
1.04644e-07
1.0456e-07
1.04475e-07
1.0441e-07
1.04342e-07
1.04292e-07
1.04242e-07
1.04207e-07
1.04165e-07
1.0414e-07
1.0411e-07
1.04093e-07
1.04062e-07
1.04058e-07
1.04053e-07
1.04043e-07
1.04031e-07
1.0402e-07
1.04003e-07
1.03998e-07
1.03996e-07
1.03987e-07
1.03982e-07
1.03972e-07
1.03957e-07
1.0395e-07
1.03947e-07
1.03938e-07
1.03929e-07
1.0392e-07
1.03916e-07
1.03898e-07
1.039e-07
1.03895e-07
1.03887e-07
1.03893e-07
1.03893e-07
1.03892e-07
1.03882e-07
1.03906e-07
1.03892e-07
1.03889e-07
1.03879e-07
1.03896e-07
1.03895e-07
1.03895e-07
1.03918e-07
1.03942e-07
1.03942e-07
1.03942e-07
1.03965e-07
1.03992e-07
1.03992e-07
1.03971e-07
1.04006e-07
1.04055e-07
1.04085e-07
1.04125e-07
1.04132e-07
1.04108e-07
1.04139e-07
1.0418e-07
1.04229e-07
1.0428e-07
1.04332e-07
1.04366e-07
1.04391e-07
1.04443e-07
1.04525e-07
1.04604e-07
1.047e-07
1.04818e-07
1.0495e-07
1.05125e-07
1.05276e-07
1.05762e-07
1.05821e-07
1.07258e-07
3.25609e-07
6.80012e-10
1.20556e-07
1.14777e-07
1.11693e-07
1.09853e-07
1.08614e-07
1.07732e-07
1.07063e-07
1.06552e-07
1.06137e-07
1.05811e-07
1.0553e-07
1.05308e-07
1.05107e-07
1.04946e-07
1.04804e-07
1.04688e-07
1.04579e-07
1.04493e-07
1.04406e-07
1.04341e-07
1.04271e-07
1.0422e-07
1.0417e-07
1.04134e-07
1.0409e-07
1.04064e-07
1.04034e-07
1.04016e-07
1.03985e-07
1.0398e-07
1.03975e-07
1.03964e-07
1.03952e-07
1.03941e-07
1.03923e-07
1.03919e-07
1.03916e-07
1.03907e-07
1.03901e-07
1.03891e-07
1.03876e-07
1.03869e-07
1.03866e-07
1.03856e-07
1.03848e-07
1.03839e-07
1.03834e-07
1.03816e-07
1.03818e-07
1.03812e-07
1.03804e-07
1.0381e-07
1.0381e-07
1.03809e-07
1.03799e-07
1.03822e-07
1.03809e-07
1.03805e-07
1.03795e-07
1.03812e-07
1.03811e-07
1.03811e-07
1.03835e-07
1.03858e-07
1.03858e-07
1.03858e-07
1.03881e-07
1.03908e-07
1.03908e-07
1.03887e-07
1.03922e-07
1.03971e-07
1.04001e-07
1.04041e-07
1.04049e-07
1.04025e-07
1.04055e-07
1.04096e-07
1.04146e-07
1.04196e-07
1.04249e-07
1.04283e-07
1.04309e-07
1.0436e-07
1.04442e-07
1.04521e-07
1.04617e-07
1.04735e-07
1.04868e-07
1.05043e-07
1.05194e-07
1.0568e-07
1.05738e-07
1.07189e-07
3.29808e-07
7.19909e-10
1.20586e-07
1.14805e-07
1.11705e-07
1.0985e-07
1.08598e-07
1.07707e-07
1.07029e-07
1.06511e-07
1.0609e-07
1.05759e-07
1.05474e-07
1.05248e-07
1.05044e-07
1.04879e-07
1.04734e-07
1.04617e-07
1.04506e-07
1.04418e-07
1.0433e-07
1.04262e-07
1.04192e-07
1.0414e-07
1.04088e-07
1.04051e-07
1.04007e-07
1.0398e-07
1.03949e-07
1.0393e-07
1.03898e-07
1.03893e-07
1.03887e-07
1.03876e-07
1.03863e-07
1.03852e-07
1.03834e-07
1.03829e-07
1.03826e-07
1.03816e-07
1.03811e-07
1.038e-07
1.03785e-07
1.03778e-07
1.03774e-07
1.03764e-07
1.03756e-07
1.03746e-07
1.03741e-07
1.03723e-07
1.03725e-07
1.03719e-07
1.03711e-07
1.03716e-07
1.03716e-07
1.03716e-07
1.03705e-07
1.03729e-07
1.03715e-07
1.03711e-07
1.03701e-07
1.03718e-07
1.03717e-07
1.03716e-07
1.0374e-07
1.03763e-07
1.03763e-07
1.03763e-07
1.03786e-07
1.03814e-07
1.03814e-07
1.03792e-07
1.03826e-07
1.03876e-07
1.03906e-07
1.03946e-07
1.03955e-07
1.03931e-07
1.03961e-07
1.04002e-07
1.04051e-07
1.04102e-07
1.04155e-07
1.04189e-07
1.04215e-07
1.04267e-07
1.04349e-07
1.04428e-07
1.04524e-07
1.04642e-07
1.04774e-07
1.0495e-07
1.05101e-07
1.05586e-07
1.05644e-07
1.0711e-07
3.34589e-07
7.63651e-10
1.20619e-07
1.14836e-07
1.11719e-07
1.09847e-07
1.08582e-07
1.07679e-07
1.06991e-07
1.06465e-07
1.06038e-07
1.05701e-07
1.0541e-07
1.0518e-07
1.04973e-07
1.04805e-07
1.04657e-07
1.04537e-07
1.04424e-07
1.04334e-07
1.04244e-07
1.04175e-07
1.04103e-07
1.0405e-07
1.03996e-07
1.03958e-07
1.03913e-07
1.03885e-07
1.03854e-07
1.03834e-07
1.03802e-07
1.03796e-07
1.03789e-07
1.03777e-07
1.03764e-07
1.03752e-07
1.03734e-07
1.03728e-07
1.03725e-07
1.03715e-07
1.03709e-07
1.03699e-07
1.03683e-07
1.03676e-07
1.03672e-07
1.03662e-07
1.03653e-07
1.03643e-07
1.03638e-07
1.0362e-07
1.03622e-07
1.03616e-07
1.03607e-07
1.03612e-07
1.03612e-07
1.03611e-07
1.036e-07
1.03624e-07
1.0361e-07
1.03605e-07
1.03595e-07
1.03612e-07
1.03612e-07
1.03611e-07
1.03634e-07
1.03657e-07
1.03657e-07
1.03657e-07
1.0368e-07
1.03708e-07
1.03708e-07
1.03687e-07
1.0372e-07
1.0377e-07
1.03801e-07
1.0384e-07
1.0385e-07
1.03826e-07
1.03855e-07
1.03896e-07
1.03946e-07
1.03997e-07
1.04049e-07
1.04084e-07
1.04111e-07
1.04162e-07
1.04244e-07
1.04324e-07
1.04419e-07
1.04538e-07
1.0467e-07
1.04846e-07
1.04997e-07
1.05482e-07
1.05539e-07
1.07023e-07
3.39968e-07
8.11602e-10
1.20655e-07
1.14871e-07
1.11734e-07
1.09844e-07
1.08564e-07
1.07648e-07
1.0695e-07
1.06415e-07
1.0598e-07
1.05637e-07
1.05341e-07
1.05106e-07
1.04894e-07
1.04723e-07
1.04572e-07
1.04449e-07
1.04333e-07
1.04241e-07
1.04149e-07
1.04079e-07
1.04005e-07
1.0395e-07
1.03896e-07
1.03856e-07
1.0381e-07
1.03781e-07
1.03748e-07
1.03728e-07
1.03695e-07
1.03688e-07
1.0368e-07
1.03668e-07
1.03655e-07
1.03642e-07
1.03624e-07
1.03618e-07
1.03614e-07
1.03604e-07
1.03597e-07
1.03587e-07
1.03571e-07
1.03563e-07
1.03559e-07
1.03549e-07
1.0354e-07
1.0353e-07
1.03524e-07
1.03506e-07
1.03507e-07
1.03501e-07
1.03492e-07
1.03496e-07
1.03496e-07
1.03496e-07
1.03485e-07
1.03508e-07
1.03494e-07
1.03489e-07
1.03479e-07
1.03496e-07
1.03495e-07
1.03494e-07
1.03518e-07
1.0354e-07
1.0354e-07
1.0354e-07
1.03563e-07
1.03591e-07
1.03591e-07
1.03569e-07
1.03602e-07
1.03653e-07
1.03684e-07
1.03723e-07
1.03734e-07
1.03709e-07
1.03739e-07
1.0378e-07
1.03829e-07
1.0388e-07
1.03933e-07
1.03968e-07
1.03995e-07
1.04047e-07
1.04128e-07
1.04208e-07
1.04304e-07
1.04423e-07
1.04554e-07
1.04732e-07
1.04881e-07
1.05366e-07
1.05422e-07
1.06926e-07
3.45958e-07
8.64191e-10
1.20694e-07
1.14909e-07
1.11752e-07
1.09842e-07
1.08544e-07
1.07614e-07
1.06905e-07
1.0636e-07
1.05917e-07
1.05567e-07
1.05265e-07
1.05025e-07
1.04809e-07
1.04634e-07
1.04479e-07
1.04353e-07
1.04235e-07
1.0414e-07
1.04046e-07
1.03973e-07
1.03897e-07
1.03841e-07
1.03785e-07
1.03744e-07
1.03697e-07
1.03667e-07
1.03633e-07
1.03612e-07
1.03578e-07
1.0357e-07
1.03561e-07
1.03549e-07
1.03535e-07
1.03522e-07
1.03502e-07
1.03496e-07
1.03492e-07
1.03481e-07
1.03474e-07
1.03464e-07
1.03447e-07
1.03439e-07
1.03435e-07
1.03424e-07
1.03415e-07
1.03405e-07
1.034e-07
1.0338e-07
1.03382e-07
1.03375e-07
1.03366e-07
1.0337e-07
1.03369e-07
1.03369e-07
1.03357e-07
1.03381e-07
1.03366e-07
1.03361e-07
1.03351e-07
1.03368e-07
1.03367e-07
1.03366e-07
1.03389e-07
1.03412e-07
1.03412e-07
1.03412e-07
1.03434e-07
1.03463e-07
1.03463e-07
1.03441e-07
1.03473e-07
1.03524e-07
1.03555e-07
1.03595e-07
1.03606e-07
1.03582e-07
1.03611e-07
1.03652e-07
1.03701e-07
1.03752e-07
1.03805e-07
1.03841e-07
1.03868e-07
1.0392e-07
1.04001e-07
1.04082e-07
1.04177e-07
1.04296e-07
1.04427e-07
1.04606e-07
1.04755e-07
1.05239e-07
1.05294e-07
1.0682e-07
3.5257e-07
9.21917e-10
1.20736e-07
1.1495e-07
1.11771e-07
1.0984e-07
1.08524e-07
1.07579e-07
1.06856e-07
1.06301e-07
1.05849e-07
1.05491e-07
1.05183e-07
1.04937e-07
1.04716e-07
1.04536e-07
1.04378e-07
1.04249e-07
1.04127e-07
1.0403e-07
1.03933e-07
1.03858e-07
1.03781e-07
1.03722e-07
1.03665e-07
1.03623e-07
1.03573e-07
1.03542e-07
1.03507e-07
1.03485e-07
1.0345e-07
1.03441e-07
1.03432e-07
1.03419e-07
1.03404e-07
1.0339e-07
1.03371e-07
1.03363e-07
1.03359e-07
1.03348e-07
1.03341e-07
1.03329e-07
1.03313e-07
1.03304e-07
1.033e-07
1.03289e-07
1.03279e-07
1.03269e-07
1.03263e-07
1.03244e-07
1.03245e-07
1.03238e-07
1.03228e-07
1.03232e-07
1.03231e-07
1.03231e-07
1.03219e-07
1.03242e-07
1.03227e-07
1.03222e-07
1.03211e-07
1.03229e-07
1.03228e-07
1.03227e-07
1.0325e-07
1.03272e-07
1.03272e-07
1.03272e-07
1.03294e-07
1.03323e-07
1.03323e-07
1.03301e-07
1.03332e-07
1.03384e-07
1.03415e-07
1.03454e-07
1.03467e-07
1.03443e-07
1.03471e-07
1.03512e-07
1.03561e-07
1.03612e-07
1.03665e-07
1.03702e-07
1.0373e-07
1.03782e-07
1.03862e-07
1.03943e-07
1.04038e-07
1.04158e-07
1.04288e-07
1.04468e-07
1.04616e-07
1.051e-07
1.05154e-07
1.06705e-07
3.59808e-07
9.85345e-10
1.20782e-07
1.14996e-07
1.11792e-07
1.09838e-07
1.08502e-07
1.07541e-07
1.06804e-07
1.06238e-07
1.05776e-07
1.05409e-07
1.05094e-07
1.04842e-07
1.04615e-07
1.04431e-07
1.04269e-07
1.04136e-07
1.04011e-07
1.0391e-07
1.03811e-07
1.03734e-07
1.03654e-07
1.03594e-07
1.03534e-07
1.03491e-07
1.0344e-07
1.03407e-07
1.03371e-07
1.03348e-07
1.03312e-07
1.03302e-07
1.03291e-07
1.03278e-07
1.03262e-07
1.03248e-07
1.03228e-07
1.0322e-07
1.03215e-07
1.03203e-07
1.03195e-07
1.03184e-07
1.03167e-07
1.03158e-07
1.03153e-07
1.03142e-07
1.03132e-07
1.03121e-07
1.03116e-07
1.03096e-07
1.03096e-07
1.0309e-07
1.03079e-07
1.03082e-07
1.03082e-07
1.03081e-07
1.03069e-07
1.03092e-07
1.03077e-07
1.03071e-07
1.0306e-07
1.03077e-07
1.03076e-07
1.03076e-07
1.03098e-07
1.0312e-07
1.0312e-07
1.0312e-07
1.03142e-07
1.03171e-07
1.03171e-07
1.03149e-07
1.0318e-07
1.03232e-07
1.03263e-07
1.03302e-07
1.03316e-07
1.03292e-07
1.0332e-07
1.03361e-07
1.03409e-07
1.03461e-07
1.03514e-07
1.03551e-07
1.0358e-07
1.03631e-07
1.03712e-07
1.03793e-07
1.03888e-07
1.04008e-07
1.04138e-07
1.04319e-07
1.04466e-07
1.04948e-07
1.05002e-07
1.06579e-07
3.67672e-07
1.05512e-09
1.2083e-07
1.15044e-07
1.11816e-07
1.09837e-07
1.0848e-07
1.075e-07
1.06749e-07
1.0617e-07
1.05697e-07
1.05322e-07
1.04999e-07
1.0474e-07
1.04508e-07
1.04318e-07
1.04151e-07
1.04014e-07
1.03885e-07
1.03782e-07
1.0368e-07
1.036e-07
1.03518e-07
1.03456e-07
1.03394e-07
1.03349e-07
1.03296e-07
1.03262e-07
1.03224e-07
1.032e-07
1.03163e-07
1.03152e-07
1.0314e-07
1.03125e-07
1.03109e-07
1.03094e-07
1.03073e-07
1.03065e-07
1.03059e-07
1.03047e-07
1.03039e-07
1.03027e-07
1.0301e-07
1.03001e-07
1.02995e-07
1.02984e-07
1.02974e-07
1.02962e-07
1.02956e-07
1.02937e-07
1.02936e-07
1.02929e-07
1.02918e-07
1.02921e-07
1.0292e-07
1.0292e-07
1.02907e-07
1.0293e-07
1.02915e-07
1.02908e-07
1.02897e-07
1.02914e-07
1.02913e-07
1.02913e-07
1.02935e-07
1.02957e-07
1.02957e-07
1.02956e-07
1.02978e-07
1.03008e-07
1.03008e-07
1.02985e-07
1.03015e-07
1.03067e-07
1.031e-07
1.03138e-07
1.03153e-07
1.03129e-07
1.03157e-07
1.03198e-07
1.03246e-07
1.03297e-07
1.0335e-07
1.03388e-07
1.03417e-07
1.03469e-07
1.03549e-07
1.03631e-07
1.03725e-07
1.03846e-07
1.03975e-07
1.04157e-07
1.04304e-07
1.04785e-07
1.04837e-07
1.06442e-07
3.76153e-07
1.13196e-09
1.20881e-07
1.15097e-07
1.11842e-07
1.09836e-07
1.08456e-07
1.07458e-07
1.0669e-07
1.06098e-07
1.05614e-07
1.05229e-07
1.04897e-07
1.04631e-07
1.04392e-07
1.04198e-07
1.04025e-07
1.03884e-07
1.03751e-07
1.03644e-07
1.03539e-07
1.03457e-07
1.03372e-07
1.03307e-07
1.03244e-07
1.03196e-07
1.03142e-07
1.03106e-07
1.03067e-07
1.03041e-07
1.03004e-07
1.02991e-07
1.02978e-07
1.02962e-07
1.02945e-07
1.0293e-07
1.02908e-07
1.02899e-07
1.02893e-07
1.0288e-07
1.02871e-07
1.02859e-07
1.02841e-07
1.02831e-07
1.02826e-07
1.02814e-07
1.02803e-07
1.02791e-07
1.02785e-07
1.02765e-07
1.02765e-07
1.02757e-07
1.02745e-07
1.02748e-07
1.02747e-07
1.02746e-07
1.02733e-07
1.02756e-07
1.0274e-07
1.02733e-07
1.02722e-07
1.02739e-07
1.02738e-07
1.02738e-07
1.0276e-07
1.02781e-07
1.02781e-07
1.02781e-07
1.02802e-07
1.02832e-07
1.02832e-07
1.02809e-07
1.02838e-07
1.02891e-07
1.02924e-07
1.02961e-07
1.02978e-07
1.02954e-07
1.02981e-07
1.03022e-07
1.0307e-07
1.03121e-07
1.03175e-07
1.03213e-07
1.03243e-07
1.03295e-07
1.03374e-07
1.03457e-07
1.0355e-07
1.03672e-07
1.038e-07
1.03984e-07
1.04129e-07
1.04609e-07
1.0466e-07
1.06296e-07
3.85236e-07
1.2167e-09
1.20935e-07
1.15153e-07
1.11871e-07
1.09836e-07
1.08432e-07
1.07413e-07
1.06628e-07
1.06022e-07
1.05525e-07
1.0513e-07
1.04789e-07
1.04515e-07
1.0427e-07
1.04069e-07
1.03891e-07
1.03745e-07
1.03609e-07
1.03498e-07
1.03389e-07
1.03304e-07
1.03216e-07
1.03149e-07
1.03083e-07
1.03034e-07
1.02978e-07
1.0294e-07
1.02899e-07
1.02872e-07
1.02833e-07
1.02819e-07
1.02804e-07
1.02788e-07
1.0277e-07
1.02754e-07
1.02731e-07
1.02721e-07
1.02714e-07
1.02701e-07
1.02692e-07
1.02679e-07
1.02661e-07
1.0265e-07
1.02644e-07
1.02632e-07
1.02621e-07
1.02609e-07
1.02603e-07
1.02582e-07
1.02581e-07
1.02573e-07
1.02561e-07
1.02562e-07
1.02561e-07
1.02561e-07
1.02547e-07
1.0257e-07
1.02554e-07
1.02546e-07
1.02535e-07
1.02552e-07
1.02551e-07
1.0255e-07
1.02572e-07
1.02593e-07
1.02592e-07
1.02592e-07
1.02613e-07
1.02644e-07
1.02644e-07
1.0262e-07
1.02649e-07
1.02702e-07
1.02735e-07
1.02773e-07
1.02791e-07
1.02767e-07
1.02793e-07
1.02834e-07
1.02881e-07
1.02933e-07
1.02987e-07
1.03026e-07
1.03056e-07
1.03108e-07
1.03187e-07
1.0327e-07
1.03363e-07
1.03486e-07
1.03613e-07
1.03797e-07
1.03942e-07
1.04421e-07
1.0447e-07
1.06138e-07
3.94892e-07
1.31026e-09
1.20992e-07
1.15213e-07
1.11902e-07
1.09838e-07
1.08407e-07
1.07367e-07
1.06564e-07
1.05941e-07
1.05431e-07
1.05025e-07
1.04675e-07
1.04393e-07
1.0414e-07
1.03932e-07
1.03749e-07
1.03598e-07
1.03457e-07
1.03342e-07
1.0323e-07
1.03141e-07
1.03051e-07
1.02981e-07
1.02912e-07
1.02861e-07
1.02803e-07
1.02763e-07
1.0272e-07
1.02692e-07
1.02651e-07
1.02636e-07
1.0262e-07
1.02602e-07
1.02583e-07
1.02566e-07
1.02543e-07
1.02532e-07
1.02524e-07
1.02511e-07
1.025e-07
1.02487e-07
1.02468e-07
1.02458e-07
1.02451e-07
1.02439e-07
1.02427e-07
1.02414e-07
1.02408e-07
1.02387e-07
1.02386e-07
1.02377e-07
1.02364e-07
1.02365e-07
1.02364e-07
1.02363e-07
1.02349e-07
1.02371e-07
1.02355e-07
1.02347e-07
1.02335e-07
1.02352e-07
1.02351e-07
1.0235e-07
1.02372e-07
1.02392e-07
1.02392e-07
1.02392e-07
1.02412e-07
1.02443e-07
1.02443e-07
1.02419e-07
1.02447e-07
1.02501e-07
1.02534e-07
1.02571e-07
1.02591e-07
1.02568e-07
1.02593e-07
1.02634e-07
1.02681e-07
1.02733e-07
1.02786e-07
1.02826e-07
1.02857e-07
1.02909e-07
1.02988e-07
1.03071e-07
1.03164e-07
1.03287e-07
1.03413e-07
1.03598e-07
1.03742e-07
1.04219e-07
1.04267e-07
1.05969e-07
4.05086e-07
1.41367e-09
1.21052e-07
1.15278e-07
1.11936e-07
1.0984e-07
1.08382e-07
1.07318e-07
1.06496e-07
1.05857e-07
1.05333e-07
1.04915e-07
1.04554e-07
1.04263e-07
1.04002e-07
1.03788e-07
1.03599e-07
1.03442e-07
1.03296e-07
1.03177e-07
1.03061e-07
1.02969e-07
1.02875e-07
1.02803e-07
1.02731e-07
1.02677e-07
1.02617e-07
1.02575e-07
1.02531e-07
1.025e-07
1.02459e-07
1.02441e-07
1.02424e-07
1.02405e-07
1.02385e-07
1.02367e-07
1.02343e-07
1.02331e-07
1.02323e-07
1.02308e-07
1.02297e-07
1.02284e-07
1.02264e-07
1.02253e-07
1.02246e-07
1.02233e-07
1.02221e-07
1.02207e-07
1.02201e-07
1.0218e-07
1.02178e-07
1.02169e-07
1.02155e-07
1.02155e-07
1.02154e-07
1.02153e-07
1.02139e-07
1.02161e-07
1.02144e-07
1.02135e-07
1.02123e-07
1.0214e-07
1.02139e-07
1.02138e-07
1.02159e-07
1.02179e-07
1.02179e-07
1.02179e-07
1.02199e-07
1.0223e-07
1.0223e-07
1.02206e-07
1.02232e-07
1.02287e-07
1.02321e-07
1.02357e-07
1.02378e-07
1.02355e-07
1.0238e-07
1.02421e-07
1.02467e-07
1.02519e-07
1.02573e-07
1.02614e-07
1.02645e-07
1.02697e-07
1.02775e-07
1.02859e-07
1.02951e-07
1.03075e-07
1.032e-07
1.03387e-07
1.0353e-07
1.04005e-07
1.04051e-07
1.05788e-07
4.15764e-07
1.52818e-09
1.21115e-07
1.15346e-07
1.11973e-07
1.09844e-07
1.08357e-07
1.07269e-07
1.06425e-07
1.05769e-07
1.0523e-07
1.04799e-07
1.04427e-07
1.04127e-07
1.03858e-07
1.03636e-07
1.0344e-07
1.03278e-07
1.03126e-07
1.03003e-07
1.02883e-07
1.02787e-07
1.0269e-07
1.02614e-07
1.0254e-07
1.02483e-07
1.0242e-07
1.02377e-07
1.0233e-07
1.02298e-07
1.02255e-07
1.02235e-07
1.02216e-07
1.02196e-07
1.02175e-07
1.02156e-07
1.02131e-07
1.02118e-07
1.02109e-07
1.02094e-07
1.02082e-07
1.02068e-07
1.02048e-07
1.02036e-07
1.02028e-07
1.02015e-07
1.02003e-07
1.01989e-07
1.01981e-07
1.0196e-07
1.01957e-07
1.01948e-07
1.01934e-07
1.01933e-07
1.01931e-07
1.01931e-07
1.01916e-07
1.01937e-07
1.0192e-07
1.01911e-07
1.01899e-07
1.01915e-07
1.01914e-07
1.01913e-07
1.01934e-07
1.01953e-07
1.01953e-07
1.01953e-07
1.01973e-07
1.02004e-07
1.02004e-07
1.0198e-07
1.02005e-07
1.0206e-07
1.02095e-07
1.0213e-07
1.02152e-07
1.02131e-07
1.02155e-07
1.02195e-07
1.02241e-07
1.02293e-07
1.02346e-07
1.02388e-07
1.0242e-07
1.02472e-07
1.0255e-07
1.02634e-07
1.02725e-07
1.0285e-07
1.02974e-07
1.03162e-07
1.03304e-07
1.03777e-07
1.03821e-07
1.05594e-07
4.26862e-07
1.65513e-09
1.2118e-07
1.15419e-07
1.12013e-07
1.0985e-07
1.08332e-07
1.07218e-07
1.06352e-07
1.05678e-07
1.05123e-07
1.04678e-07
1.04294e-07
1.03984e-07
1.03706e-07
1.03476e-07
1.03273e-07
1.03105e-07
1.02948e-07
1.0282e-07
1.02695e-07
1.02595e-07
1.02494e-07
1.02415e-07
1.02338e-07
1.02278e-07
1.02213e-07
1.02167e-07
1.02118e-07
1.02084e-07
1.02039e-07
1.02018e-07
1.01997e-07
1.01976e-07
1.01954e-07
1.01934e-07
1.01907e-07
1.01894e-07
1.01884e-07
1.01868e-07
1.01855e-07
1.0184e-07
1.01819e-07
1.01807e-07
1.01798e-07
1.01785e-07
1.01772e-07
1.01757e-07
1.0175e-07
1.01728e-07
1.01725e-07
1.01715e-07
1.017e-07
1.01698e-07
1.01696e-07
1.01696e-07
1.0168e-07
1.01701e-07
1.01684e-07
1.01674e-07
1.01662e-07
1.01677e-07
1.01677e-07
1.01676e-07
1.01696e-07
1.01714e-07
1.01714e-07
1.01714e-07
1.01734e-07
1.01765e-07
1.01765e-07
1.01741e-07
1.01764e-07
1.0182e-07
1.01855e-07
1.0189e-07
1.01914e-07
1.01893e-07
1.01916e-07
1.01956e-07
1.02001e-07
1.02054e-07
1.02107e-07
1.0215e-07
1.02182e-07
1.02235e-07
1.02311e-07
1.02396e-07
1.02487e-07
1.02611e-07
1.02734e-07
1.02924e-07
1.03064e-07
1.03536e-07
1.03577e-07
1.05389e-07
4.38296e-07
1.79605e-09
1.21247e-07
1.15495e-07
1.12057e-07
1.09857e-07
1.08308e-07
1.07166e-07
1.06277e-07
1.05583e-07
1.05011e-07
1.04552e-07
1.04155e-07
1.03834e-07
1.03547e-07
1.03309e-07
1.03098e-07
1.02924e-07
1.02761e-07
1.02627e-07
1.02497e-07
1.02393e-07
1.02289e-07
1.02206e-07
1.02126e-07
1.02063e-07
1.01995e-07
1.01947e-07
1.01895e-07
1.01859e-07
1.01813e-07
1.0179e-07
1.01767e-07
1.01744e-07
1.01721e-07
1.017e-07
1.01672e-07
1.01657e-07
1.01646e-07
1.01629e-07
1.01615e-07
1.016e-07
1.01579e-07
1.01566e-07
1.01556e-07
1.01542e-07
1.01529e-07
1.01513e-07
1.01506e-07
1.01483e-07
1.01479e-07
1.01469e-07
1.01453e-07
1.01451e-07
1.01449e-07
1.01448e-07
1.01432e-07
1.01453e-07
1.01435e-07
1.01424e-07
1.01411e-07
1.01427e-07
1.01427e-07
1.01425e-07
1.01445e-07
1.01462e-07
1.01462e-07
1.01462e-07
1.01482e-07
1.01514e-07
1.01514e-07
1.01488e-07
1.01511e-07
1.01567e-07
1.01603e-07
1.01637e-07
1.01662e-07
1.01642e-07
1.01664e-07
1.01705e-07
1.01749e-07
1.01801e-07
1.01855e-07
1.01898e-07
1.01931e-07
1.01984e-07
1.0206e-07
1.02144e-07
1.02235e-07
1.0236e-07
1.02482e-07
1.02672e-07
1.02812e-07
1.03281e-07
1.0332e-07
1.05169e-07
4.49968e-07
1.95265e-09
1.21317e-07
1.15576e-07
1.12104e-07
1.09867e-07
1.08283e-07
1.07113e-07
1.062e-07
1.05484e-07
1.04895e-07
1.0442e-07
1.04011e-07
1.03678e-07
1.0338e-07
1.03134e-07
1.02916e-07
1.02734e-07
1.02565e-07
1.02425e-07
1.02291e-07
1.02182e-07
1.02074e-07
1.01987e-07
1.01903e-07
1.01838e-07
1.01767e-07
1.01716e-07
1.01662e-07
1.01623e-07
1.01575e-07
1.01549e-07
1.01525e-07
1.01501e-07
1.01476e-07
1.01453e-07
1.01424e-07
1.01409e-07
1.01397e-07
1.01379e-07
1.01364e-07
1.01348e-07
1.01326e-07
1.01312e-07
1.01302e-07
1.01287e-07
1.01273e-07
1.01257e-07
1.01249e-07
1.01226e-07
1.01222e-07
1.01211e-07
1.01194e-07
1.01191e-07
1.01189e-07
1.01188e-07
1.01171e-07
1.01191e-07
1.01173e-07
1.01161e-07
1.01148e-07
1.01163e-07
1.01163e-07
1.01162e-07
1.01181e-07
1.01197e-07
1.01198e-07
1.01197e-07
1.01216e-07
1.01249e-07
1.01249e-07
1.01223e-07
1.01244e-07
1.01301e-07
1.01337e-07
1.01371e-07
1.01397e-07
1.01378e-07
1.01399e-07
1.01439e-07
1.01483e-07
1.01535e-07
1.01589e-07
1.01633e-07
1.01666e-07
1.01719e-07
1.01795e-07
1.0188e-07
1.01969e-07
1.02095e-07
1.02215e-07
1.02407e-07
1.02545e-07
1.03012e-07
1.03048e-07
1.04936e-07
4.61759e-07
2.12686e-09
1.21389e-07
1.15661e-07
1.12155e-07
1.09879e-07
1.0826e-07
1.07059e-07
1.0612e-07
1.05383e-07
1.04775e-07
1.04284e-07
1.03861e-07
1.03516e-07
1.03207e-07
1.02952e-07
1.02725e-07
1.02536e-07
1.0236e-07
1.02215e-07
1.02075e-07
1.01961e-07
1.01848e-07
1.01758e-07
1.0167e-07
1.01601e-07
1.01528e-07
1.01474e-07
1.01417e-07
1.01376e-07
1.01325e-07
1.01298e-07
1.01271e-07
1.01245e-07
1.01219e-07
1.01195e-07
1.01165e-07
1.01148e-07
1.01135e-07
1.01116e-07
1.011e-07
1.01083e-07
1.0106e-07
1.01046e-07
1.01035e-07
1.0102e-07
1.01005e-07
1.00988e-07
1.0098e-07
1.00956e-07
1.00951e-07
1.0094e-07
1.00922e-07