/*--------------------------------*- C++ -*----------------------------------*\
| =========                 |                                                 |
| \\      /  F ield         | OpenFOAM: The Open Source CFD Toolbox           |
|  \\    /   O peration     | Version:  v2012                                 |
|   \\  /    A nd           | Website:  www.openfoam.com                      |
|    \\/     M anipulation  |                                                 |
\*---------------------------------------------------------------------------*/
FoamFile
{
    version     2.0;
    format      ascii;
    class       volVectorField;
    location    "14.5";
    object      wallShearStress;
}
// * * * * * * * * * * * * * * * * * * * * * * * * * * * * * * * * * * * * * //

dimensions      [0 2 -2 0 0 0 0];


internalField   uniform (0 0 0);

boundaryField
{
    inlet
    {
        type            calculated;
        value           uniform (0 0 0);
    }
    outlet
    {
        type            calculated;
        value           uniform (0 0 0);
    }
    topWall
    {
        type            calculated;
        value           nonuniform List<vector> 
545
(
(1.39262e-08 -9.79843e-09 0)
(1.39227e-08 -2.74308e-08 0)
(1.39012e-08 -4.57483e-08 0)
(1.38787e-08 -6.35253e-08 0)
(1.38519e-08 -8.05302e-08 0)
(1.38204e-08 -9.69799e-08 0)
(1.37843e-08 -1.13013e-07 0)
(1.37439e-08 -1.28622e-07 0)
(1.36995e-08 -1.43771e-07 0)
(1.36517e-08 -1.58457e-07 0)
(1.36007e-08 -1.72701e-07 0)
(1.35469e-08 -1.86518e-07 0)
(1.34906e-08 -1.99918e-07 0)
(1.3432e-08 -2.12909e-07 0)
(1.33715e-08 -2.25501e-07 0)
(1.33093e-08 -2.37705e-07 0)
(1.32457e-08 -2.49531e-07 0)
(1.31808e-08 -2.60989e-07 0)
(1.31148e-08 -2.72091e-07 0)
(1.3048e-08 -2.82844e-07 0)
(1.29806e-08 -2.93261e-07 0)
(1.29126e-08 -3.0335e-07 0)
(1.28442e-08 -3.13121e-07 0)
(1.27756e-08 -3.22584e-07 0)
(1.2707e-08 -3.31748e-07 0)
(1.26383e-08 -3.40622e-07 0)
(1.25698e-08 -3.49216e-07 0)
(1.25014e-08 -3.57537e-07 0)
(1.24334e-08 -3.65595e-07 0)
(1.23658e-08 -3.73398e-07 0)
(1.22986e-08 -3.80954e-07 0)
(1.2232e-08 -3.8827e-07 0)
(1.2166e-08 -3.95356e-07 0)
(1.21006e-08 -4.02217e-07 0)
(1.20359e-08 -4.08861e-07 0)
(1.19719e-08 -4.15296e-07 0)
(1.19087e-08 -4.21528e-07 0)
(1.18463e-08 -4.27564e-07 0)
(1.17847e-08 -4.33409e-07 0)
(1.1724e-08 -4.39072e-07 0)
(1.16642e-08 -4.44556e-07 0)
(1.16052e-08 -4.49869e-07 0)
(1.15472e-08 -4.55016e-07 0)
(1.14901e-08 -4.60002e-07 0)
(1.1434e-08 -4.64833e-07 0)
(1.13788e-08 -4.69514e-07 0)
(1.13245e-08 -4.74049e-07 0)
(1.12712e-08 -4.78444e-07 0)
(1.12188e-08 -4.82703e-07 0)
(1.11674e-08 -4.8683e-07 0)
(1.11169e-08 -4.90831e-07 0)
(1.10674e-08 -4.94708e-07 0)
(1.10188e-08 -4.98467e-07 0)
(1.09712e-08 -5.0211e-07 0)
(1.09244e-08 -5.05642e-07 0)
(1.08786e-08 -5.09067e-07 0)
(1.08337e-08 -5.12387e-07 0)
(1.07897e-08 -5.15607e-07 0)
(1.07466e-08 -5.18729e-07 0)
(1.07043e-08 -5.21756e-07 0)
(1.06629e-08 -5.24692e-07 0)
(1.06224e-08 -5.2754e-07 0)
(1.05826e-08 -5.30303e-07 0)
(1.05437e-08 -5.32982e-07 0)
(1.05057e-08 -5.35582e-07 0)
(1.04684e-08 -5.38103e-07 0)
(1.04318e-08 -5.4055e-07 0)
(1.03961e-08 -5.42924e-07 0)
(1.03611e-08 -5.45228e-07 0)
(1.03268e-08 -5.47462e-07 0)
(1.02934e-08 -5.49634e-07 0)
(1.02599e-08 -5.51732e-07 0)
(1.02277e-08 -5.53751e-07 0)
(1.01976e-08 -5.55714e-07 0)
(1.01678e-08 -5.57644e-07 0)
(1.0138e-08 -5.59563e-07 0)
(1.01084e-08 -5.61472e-07 0)
(1.00788e-08 -5.63368e-07 0)
(1.00492e-08 -5.65248e-07 0)
(1.00197e-08 -5.67114e-07 0)
(9.99027e-09 -5.68966e-07 0)
(9.96089e-09 -5.70804e-07 0)
(9.93157e-09 -5.72628e-07 0)
(9.90231e-09 -5.74439e-07 0)
(9.87311e-09 -5.76236e-07 0)
(9.84397e-09 -5.78019e-07 0)
(9.81489e-09 -5.79789e-07 0)
(9.78588e-09 -5.81546e-07 0)
(9.75693e-09 -5.8329e-07 0)
(9.72805e-09 -5.8502e-07 0)
(9.69924e-09 -5.86738e-07 0)
(9.67048e-09 -5.88442e-07 0)
(9.64186e-09 -5.90135e-07 0)
(9.61295e-09 -5.91809e-07 0)
(9.58568e-09 -5.93499e-07 0)
(9.55183e-09 -5.95109e-07 0)
(9.51775e-09 -5.96591e-07 0)
(9.49315e-09 -5.97989e-07 0)
(9.46985e-09 -5.993e-07 0)
(9.44679e-09 -6.00609e-07 0)
(9.42373e-09 -6.01939e-07 0)
(9.40059e-09 -6.03276e-07 0)
(9.37737e-09 -6.04609e-07 0)
(9.35405e-09 -6.05938e-07 0)
(9.33065e-09 -6.07267e-07 0)
(9.30716e-09 -6.08597e-07 0)
(9.28358e-09 -6.09927e-07 0)
(9.25991e-09 -6.11257e-07 0)
(9.23615e-09 -6.12586e-07 0)
(9.2123e-09 -6.13915e-07 0)
(9.18835e-09 -6.15244e-07 0)
(9.16432e-09 -6.16572e-07 0)
(9.1402e-09 -6.179e-07 0)
(9.11599e-09 -6.19228e-07 0)
(9.09168e-09 -6.20555e-07 0)
(9.06729e-09 -6.21881e-07 0)
(9.0428e-09 -6.23208e-07 0)
(9.01823e-09 -6.24534e-07 0)
(8.99356e-09 -6.25859e-07 0)
(8.9688e-09 -6.27184e-07 0)
(8.94395e-09 -6.28508e-07 0)
(8.91902e-09 -6.29832e-07 0)
(8.89399e-09 -6.31155e-07 0)
(8.86887e-09 -6.32477e-07 0)
(8.84365e-09 -6.33799e-07 0)
(8.81835e-09 -6.3512e-07 0)
(8.79296e-09 -6.36441e-07 0)
(8.76747e-09 -6.3776e-07 0)
(8.7419e-09 -6.39079e-07 0)
(8.71623e-09 -6.40398e-07 0)
(8.69047e-09 -6.41715e-07 0)
(8.66462e-09 -6.43032e-07 0)
(8.63868e-09 -6.44348e-07 0)
(8.61265e-09 -6.45663e-07 0)
(8.58653e-09 -6.46977e-07 0)
(8.56032e-09 -6.4829e-07 0)
(8.53401e-09 -6.49602e-07 0)
(8.50762e-09 -6.50914e-07 0)
(8.48113e-09 -6.52224e-07 0)
(8.45455e-09 -6.53533e-07 0)
(8.42789e-09 -6.54842e-07 0)
(8.40113e-09 -6.56149e-07 0)
(8.37428e-09 -6.57455e-07 0)
(8.34734e-09 -6.5876e-07 0)
(8.32031e-09 -6.60064e-07 0)
(8.29319e-09 -6.61366e-07 0)
(8.26598e-09 -6.62668e-07 0)
(8.23867e-09 -6.63968e-07 0)
(8.21128e-09 -6.65267e-07 0)
(8.1838e-09 -6.66565e-07 0)
(8.15623e-09 -6.67861e-07 0)
(8.12856e-09 -6.69156e-07 0)
(8.10081e-09 -6.7045e-07 0)
(8.07297e-09 -6.71743e-07 0)
(8.04503e-09 -6.73033e-07 0)
(8.01701e-09 -6.74323e-07 0)
(7.9889e-09 -6.75611e-07 0)
(7.9607e-09 -6.76897e-07 0)
(7.93241e-09 -6.78182e-07 0)
(7.90403e-09 -6.79466e-07 0)
(7.87556e-09 -6.80747e-07 0)
(7.847e-09 -6.82028e-07 0)
(7.81836e-09 -6.83306e-07 0)
(7.78962e-09 -6.84583e-07 0)
(7.7608e-09 -6.85858e-07 0)
(7.73189e-09 -6.87132e-07 0)
(7.70289e-09 -6.88403e-07 0)
(7.6738e-09 -6.89673e-07 0)
(7.64462e-09 -6.90941e-07 0)
(7.61536e-09 -6.92207e-07 0)
(7.58601e-09 -6.93471e-07 0)
(7.55657e-09 -6.94734e-07 0)
(7.52705e-09 -6.95994e-07 0)
(7.49744e-09 -6.97252e-07 0)
(7.46774e-09 -6.98509e-07 0)
(7.43796e-09 -6.99763e-07 0)
(7.40809e-09 -7.01015e-07 0)
(7.37813e-09 -7.02266e-07 0)
(7.34809e-09 -7.03514e-07 0)
(7.31796e-09 -7.04759e-07 0)
(7.28775e-09 -7.06003e-07 0)
(7.25745e-09 -7.07244e-07 0)
(7.22707e-09 -7.08484e-07 0)
(7.19661e-09 -7.0972e-07 0)
(7.16606e-09 -7.10955e-07 0)
(7.13542e-09 -7.12187e-07 0)
(7.10471e-09 -7.13417e-07 0)
(7.07391e-09 -7.14644e-07 0)
(7.04303e-09 -7.15869e-07 0)
(7.01206e-09 -7.17091e-07 0)
(6.98101e-09 -7.18311e-07 0)
(6.94988e-09 -7.19529e-07 0)
(6.91867e-09 -7.20743e-07 0)
(6.88738e-09 -7.21955e-07 0)
(6.85601e-09 -7.23165e-07 0)
(6.82456e-09 -7.24372e-07 0)
(6.79302e-09 -7.25576e-07 0)
(6.76141e-09 -7.26777e-07 0)
(6.72972e-09 -7.27975e-07 0)
(6.69795e-09 -7.29171e-07 0)
(6.6661e-09 -7.30364e-07 0)
(6.63417e-09 -7.31554e-07 0)
(6.60216e-09 -7.32741e-07 0)
(6.57008e-09 -7.33925e-07 0)
(6.53792e-09 -7.35106e-07 0)
(6.50568e-09 -7.36283e-07 0)
(6.47337e-09 -7.37458e-07 0)
(6.44098e-09 -7.3863e-07 0)
(6.40852e-09 -7.39799e-07 0)
(6.37598e-09 -7.40964e-07 0)
(6.34337e-09 -7.42127e-07 0)
(6.31068e-09 -7.43286e-07 0)
(6.27792e-09 -7.44441e-07 0)
(6.24509e-09 -7.45594e-07 0)
(6.21218e-09 -7.46743e-07 0)
(6.1792e-09 -7.47889e-07 0)
(6.14615e-09 -7.49031e-07 0)
(6.11303e-09 -7.5017e-07 0)
(6.07984e-09 -7.51305e-07 0)
(6.04658e-09 -7.52437e-07 0)
(6.01326e-09 -7.53565e-07 0)
(5.97986e-09 -7.5469e-07 0)
(5.94639e-09 -7.55811e-07 0)
(5.91286e-09 -7.56928e-07 0)
(5.87926e-09 -7.58042e-07 0)
(5.84559e-09 -7.59151e-07 0)
(5.81186e-09 -7.60258e-07 0)
(5.77806e-09 -7.6136e-07 0)
(5.7442e-09 -7.62458e-07 0)
(5.71027e-09 -7.63553e-07 0)
(5.67628e-09 -7.64643e-07 0)
(5.64223e-09 -7.6573e-07 0)
(5.60811e-09 -7.66813e-07 0)
(5.57393e-09 -7.67891e-07 0)
(5.53969e-09 -7.68966e-07 0)
(5.5054e-09 -7.70036e-07 0)
(5.47104e-09 -7.71103e-07 0)
(5.43662e-09 -7.72165e-07 0)
(5.40215e-09 -7.73222e-07 0)
(5.36761e-09 -7.74276e-07 0)
(5.33302e-09 -7.75325e-07 0)
(5.29838e-09 -7.7637e-07 0)
(5.26368e-09 -7.77411e-07 0)
(5.22892e-09 -7.78447e-07 0)
(5.19411e-09 -7.79479e-07 0)
(5.15925e-09 -7.80506e-07 0)
(5.12433e-09 -7.81529e-07 0)
(5.08937e-09 -7.82547e-07 0)
(5.05435e-09 -7.83561e-07 0)
(5.01928e-09 -7.8457e-07 0)
(4.98416e-09 -7.85574e-07 0)
(4.949e-09 -7.86573e-07 0)
(4.91378e-09 -7.87568e-07 0)
(4.87852e-09 -7.88558e-07 0)
(4.84321e-09 -7.89543e-07 0)
(4.80786e-09 -7.90524e-07 0)
(4.77246e-09 -7.91499e-07 0)
(4.73702e-09 -7.9247e-07 0)
(4.70154e-09 -7.93435e-07 0)
(4.66601e-09 -7.94396e-07 0)
(4.63045e-09 -7.95351e-07 0)
(4.59484e-09 -7.96302e-07 0)
(4.55919e-09 -7.97247e-07 0)
(4.52351e-09 -7.98187e-07 0)
(4.48777e-09 -7.99122e-07 0)
(4.45206e-09 -8.00053e-07 0)
(4.41607e-09 -8.00973e-07 0)
(4.38105e-09 -8.01915e-07 0)
(4.34176e-09 -8.02793e-07 0)
(4.30234e-09 -8.03634e-07 0)
(4.26931e-09 -8.04493e-07 0)
(4.23733e-09 -8.05291e-07 0)
(4.20536e-09 -8.06085e-07 0)
(4.17314e-09 -8.06895e-07 0)
(4.14062e-09 -8.07714e-07 0)
(4.10779e-09 -8.08533e-07 0)
(4.07464e-09 -8.09353e-07 0)
(4.04116e-09 -8.10174e-07 0)
(4.00736e-09 -8.10997e-07 0)
(3.97323e-09 -8.11823e-07 0)
(3.93877e-09 -8.12651e-07 0)
(3.90399e-09 -8.1348e-07 0)
(3.86887e-09 -8.14311e-07 0)
(3.83343e-09 -8.15143e-07 0)
(3.79764e-09 -8.15976e-07 0)
(3.76153e-09 -8.16811e-07 0)
(3.72508e-09 -8.17646e-07 0)
(3.68829e-09 -8.18483e-07 0)
(3.65117e-09 -8.19319e-07 0)
(3.6137e-09 -8.20157e-07 0)
(3.5759e-09 -8.20995e-07 0)
(3.53776e-09 -8.21833e-07 0)
(3.49928e-09 -8.2267e-07 0)
(3.46045e-09 -8.23508e-07 0)
(3.42129e-09 -8.24345e-07 0)
(3.38178e-09 -8.25182e-07 0)
(3.34192e-09 -8.26018e-07 0)
(3.30173e-09 -8.26853e-07 0)
(3.26119e-09 -8.27687e-07 0)
(3.2203e-09 -8.28519e-07 0)
(3.17908e-09 -8.2935e-07 0)
(3.13751e-09 -8.30178e-07 0)
(3.09559e-09 -8.31005e-07 0)
(3.05333e-09 -8.3183e-07 0)
(3.01073e-09 -8.32651e-07 0)
(2.96779e-09 -8.33471e-07 0)
(2.9245e-09 -8.34287e-07 0)
(2.88087e-09 -8.35099e-07 0)
(2.8369e-09 -8.35908e-07 0)
(2.7926e-09 -8.36714e-07 0)
(2.74795e-09 -8.37515e-07 0)
(2.70297e-09 -8.38312e-07 0)
(2.65765e-09 -8.39104e-07 0)
(2.612e-09 -8.39891e-07 0)
(2.56601e-09 -8.40672e-07 0)
(2.51969e-09 -8.41449e-07 0)
(2.47305e-09 -8.42219e-07 0)
(2.42608e-09 -8.42983e-07 0)
(2.37878e-09 -8.4374e-07 0)
(2.33117e-09 -8.44491e-07 0)
(2.28323e-09 -8.45234e-07 0)
(2.23498e-09 -8.45969e-07 0)
(2.18641e-09 -8.46697e-07 0)
(2.13754e-09 -8.47416e-07 0)
(2.08836e-09 -8.48127e-07 0)
(2.03887e-09 -8.48829e-07 0)
(1.98909e-09 -8.49521e-07 0)
(1.93902e-09 -8.50203e-07 0)
(1.88865e-09 -8.50875e-07 0)
(1.838e-09 -8.51536e-07 0)
(1.78706e-09 -8.52186e-07 0)
(1.73585e-09 -8.52825e-07 0)
(1.68437e-09 -8.53452e-07 0)
(1.63263e-09 -8.54066e-07 0)
(1.58062e-09 -8.54668e-07 0)
(1.52837e-09 -8.55257e-07 0)
(1.47586e-09 -8.55831e-07 0)
(1.42311e-09 -8.56392e-07 0)
(1.37013e-09 -8.56938e-07 0)
(1.31692e-09 -8.57469e-07 0)
(1.2635e-09 -8.57984e-07 0)
(1.20986e-09 -8.58483e-07 0)
(1.15601e-09 -8.58966e-07 0)
(1.10197e-09 -8.59432e-07 0)
(1.04775e-09 -8.5988e-07 0)
(9.93339e-10 -8.6031e-07 0)
(9.38762e-10 -8.60721e-07 0)
(8.84025e-10 -8.61113e-07 0)
(8.29137e-10 -8.61486e-07 0)
(7.74107e-10 -8.61838e-07 0)
(7.18947e-10 -8.62169e-07 0)
(6.63667e-10 -8.6248e-07 0)
(6.08277e-10 -8.62768e-07 0)
(5.5279e-10 -8.63034e-07 0)
(4.97216e-10 -8.63277e-07 0)
(4.41567e-10 -8.63497e-07 0)
(3.85855e-10 -8.63692e-07 0)
(3.30094e-10 -8.63863e-07 0)
(2.74296e-10 -8.64008e-07 0)
(2.18473e-10 -8.64127e-07 0)
(1.6264e-10 -8.64221e-07 0)
(1.0681e-10 -8.64287e-07 0)
(5.09978e-11 -8.64325e-07 0)
(-4.7827e-12 -8.64335e-07 0)
(-6.05166e-11 -8.64316e-07 0)
(-1.16189e-10 -8.64268e-07 0)
(-1.71784e-10 -8.6419e-07 0)
(-2.27286e-10 -8.64082e-07 0)
(-2.8268e-10 -8.63942e-07 0)
(-3.37948e-10 -8.6377e-07 0)
(-3.93074e-10 -8.63566e-07 0)
(-4.48042e-10 -8.63328e-07 0)
(-5.02834e-10 -8.63057e-07 0)
(-5.57433e-10 -8.62752e-07 0)
(-6.1182e-10 -8.62412e-07 0)
(-6.65978e-10 -8.62037e-07 0)
(-7.19889e-10 -8.61626e-07 0)
(-7.73533e-10 -8.61178e-07 0)
(-8.26893e-10 -8.60693e-07 0)
(-8.79949e-10 -8.6017e-07 0)
(-9.32682e-10 -8.59609e-07 0)
(-9.85073e-10 -8.59009e-07 0)
(-1.0371e-09 -8.58369e-07 0)
(-1.08875e-09 -8.5769e-07 0)
(-1.13999e-09 -8.5697e-07 0)
(-1.19082e-09 -8.56209e-07 0)
(-1.2412e-09 -8.55406e-07 0)
(-1.29112e-09 -8.54562e-07 0)
(-1.34055e-09 -8.53674e-07 0)
(-1.38948e-09 -8.52744e-07 0)
(-1.43789e-09 -8.5177e-07 0)
(-1.48576e-09 -8.50752e-07 0)
(-1.53305e-09 -8.4969e-07 0)
(-1.57976e-09 -8.48583e-07 0)
(-1.62587e-09 -8.4743e-07 0)
(-1.67135e-09 -8.46232e-07 0)
(-1.71618e-09 -8.44987e-07 0)
(-1.76034e-09 -8.43696e-07 0)
(-1.80381e-09 -8.42359e-07 0)
(-1.84657e-09 -8.40974e-07 0)
(-1.8886e-09 -8.39541e-07 0)
(-1.92989e-09 -8.38061e-07 0)
(-1.9704e-09 -8.36533e-07 0)
(-2.01013e-09 -8.34956e-07 0)
(-2.04905e-09 -8.33331e-07 0)
(-2.08714e-09 -8.31657e-07 0)
(-2.12438e-09 -8.29934e-07 0)
(-2.16076e-09 -8.28162e-07 0)
(-2.19626e-09 -8.2634e-07 0)
(-2.23086e-09 -8.2447e-07 0)
(-2.26454e-09 -8.2255e-07 0)
(-2.29729e-09 -8.2058e-07 0)
(-2.32909e-09 -8.18561e-07 0)
(-2.35992e-09 -8.16492e-07 0)
(-2.38978e-09 -8.14374e-07 0)
(-2.41863e-09 -8.12207e-07 0)
(-2.44648e-09 -8.0999e-07 0)
(-2.4733e-09 -8.07724e-07 0)
(-2.49908e-09 -8.05409e-07 0)
(-2.52382e-09 -8.03045e-07 0)
(-2.54749e-09 -8.00632e-07 0)
(-2.57009e-09 -7.98171e-07 0)
(-2.59161e-09 -7.95662e-07 0)
(-2.61204e-09 -7.93105e-07 0)
(-2.63137e-09 -7.905e-07 0)
(-2.64958e-09 -7.87848e-07 0)
(-2.66669e-09 -7.8515e-07 0)
(-2.68267e-09 -7.82405e-07 0)
(-2.69752e-09 -7.79615e-07 0)
(-2.71123e-09 -7.76779e-07 0)
(-2.72381e-09 -7.73899e-07 0)
(-2.73525e-09 -7.70975e-07 0)
(-2.74555e-09 -7.68007e-07 0)
(-2.7547e-09 -7.64996e-07 0)
(-2.76271e-09 -7.61943e-07 0)
(-2.76958e-09 -7.58849e-07 0)
(-2.7753e-09 -7.55714e-07 0)
(-2.77988e-09 -7.52539e-07 0)
(-2.78332e-09 -7.49324e-07 0)
(-2.78563e-09 -7.46072e-07 0)
(-2.78681e-09 -7.42782e-07 0)
(-2.78686e-09 -7.39456e-07 0)
(-2.7858e-09 -7.36095e-07 0)
(-2.78362e-09 -7.32699e-07 0)
(-2.78034e-09 -7.29269e-07 0)
(-2.77597e-09 -7.25807e-07 0)
(-2.77053e-09 -7.22312e-07 0)
(-2.76391e-09 -7.18792e-07 0)
(-2.75672e-09 -7.15211e-07 0)
(-2.74639e-09 -7.1164e-07 0)
(-2.73341e-09 -7.07674e-07 0)
(-2.72038e-09 -7.03247e-07 0)
(-2.70603e-09 -6.98842e-07 0)
(-2.69045e-09 -6.94474e-07 0)
(-2.67372e-09 -6.90137e-07 0)
(-2.65594e-09 -6.85827e-07 0)
(-2.63717e-09 -6.81544e-07 0)
(-2.61745e-09 -6.77293e-07 0)
(-2.59685e-09 -6.73075e-07 0)
(-2.57544e-09 -6.6889e-07 0)
(-2.55325e-09 -6.64742e-07 0)
(-2.53036e-09 -6.60629e-07 0)
(-2.5068e-09 -6.56554e-07 0)
(-2.48263e-09 -6.52518e-07 0)
(-2.45788e-09 -6.48522e-07 0)
(-2.4326e-09 -6.44566e-07 0)
(-2.40683e-09 -6.40651e-07 0)
(-2.3806e-09 -6.36779e-07 0)
(-2.35396e-09 -6.32949e-07 0)
(-2.32693e-09 -6.29163e-07 0)
(-2.29955e-09 -6.25421e-07 0)
(-2.27184e-09 -6.21723e-07 0)
(-2.24383e-09 -6.1807e-07 0)
(-2.21555e-09 -6.14463e-07 0)
(-2.18702e-09 -6.10902e-07 0)
(-2.15826e-09 -6.07388e-07 0)
(-2.1293e-09 -6.0392e-07 0)
(-2.10015e-09 -6.00499e-07 0)
(-2.07084e-09 -5.97125e-07 0)
(-2.04137e-09 -5.93799e-07 0)
(-2.01176e-09 -5.90521e-07 0)
(-1.98203e-09 -5.87291e-07 0)
(-1.95218e-09 -5.84109e-07 0)
(-1.92224e-09 -5.80975e-07 0)
(-1.89221e-09 -5.7789e-07 0)
(-1.8621e-09 -5.74854e-07 0)
(-1.83192e-09 -5.71866e-07 0)
(-1.80167e-09 -5.68927e-07 0)
(-1.77137e-09 -5.66037e-07 0)
(-1.74102e-09 -5.63197e-07 0)
(-1.71062e-09 -5.60405e-07 0)
(-1.68019e-09 -5.57662e-07 0)
(-1.64972e-09 -5.54969e-07 0)
(-1.61921e-09 -5.52325e-07 0)
(-1.58868e-09 -5.49731e-07 0)
(-1.55811e-09 -5.47186e-07 0)
(-1.52753e-09 -5.4469e-07 0)
(-1.49692e-09 -5.42244e-07 0)
(-1.46628e-09 -5.39848e-07 0)
(-1.43563e-09 -5.37501e-07 0)
(-1.40495e-09 -5.35203e-07 0)
(-1.37425e-09 -5.32955e-07 0)
(-1.34353e-09 -5.30757e-07 0)
(-1.31279e-09 -5.28609e-07 0)
(-1.28202e-09 -5.2651e-07 0)
(-1.25124e-09 -5.24461e-07 0)
(-1.22042e-09 -5.22462e-07 0)
(-1.18959e-09 -5.20513e-07 0)
(-1.15872e-09 -5.18614e-07 0)
(-1.12783e-09 -5.16765e-07 0)
(-1.09691e-09 -5.14965e-07 0)
(-1.06596e-09 -5.13216e-07 0)
(-1.03498e-09 -5.11517e-07 0)
(-1.00397e-09 -5.09868e-07 0)
(-9.72928e-10 -5.08269e-07 0)
(-9.41849e-10 -5.0672e-07 0)
(-9.10736e-10 -5.05222e-07 0)
(-8.79587e-10 -5.03774e-07 0)
(-8.48402e-10 -5.02376e-07 0)
(-8.17179e-10 -5.01029e-07 0)
(-7.85919e-10 -4.99732e-07 0)
(-7.54621e-10 -4.98486e-07 0)
(-7.23286e-10 -4.97291e-07 0)
(-6.91912e-10 -4.96146e-07 0)
(-6.60501e-10 -4.95053e-07 0)
(-6.29052e-10 -4.9401e-07 0)
(-5.97566e-10 -4.93018e-07 0)
(-5.66044e-10 -4.92076e-07 0)
(-5.34487e-10 -4.91186e-07 0)
(-5.02896e-10 -4.90347e-07 0)
(-4.71273e-10 -4.89559e-07 0)
(-4.39618e-10 -4.88823e-07 0)
(-4.07934e-10 -4.88137e-07 0)
(-3.76222e-10 -4.87503e-07 0)
(-3.44484e-10 -4.86919e-07 0)
(-3.12721e-10 -4.86391e-07 0)
(-2.80933e-10 -4.859e-07 0)
(-2.49128e-10 -4.85505e-07 0)
(-2.17276e-10 -4.85015e-07 0)
(-1.85479e-10 -4.85057e-07 0)
(-1.53382e-10 -4.83524e-07 0)
(-1.2226e-10 -4.87233e-07 0)
(-8.76737e-11 -4.72487e-07 0)
(-6.61871e-11 -5.1116e-07 0)
(-3.22069e-11 -4.46383e-07 0)
)
;
    }
    bottomWall
    {
        type            calculated;
        value           nonuniform List<vector> 
449
(
(-48.6145 -0.965256 0)
(-19.7816 -0.00516446 0)
(-14.3654 -0.00113667 0)
(-12.0518 -0.000546426 0)
(-10.6433 -0.000352105 0)
(-9.64772 -0.000256434 0)
(-8.88836 -0.00019882 0)
(-8.28385 -0.000160075 0)
(-7.78764 -0.000132528 0)
(-7.37039 -0.000112136 0)
(-7.01292 -9.64968e-05 0)
(-6.70215 -8.4156e-05 0)
(-6.42876 -7.42073e-05 0)
(-6.18583 -6.60508e-05 0)
(-5.96811 -5.92665e-05 0)
(-5.77153 -5.3551e-05 0)
(-5.59289 -4.86817e-05 0)
(-5.42963 -4.44929e-05 0)
(-5.27967 -4.08586e-05 0)
(-5.14132 -3.76813e-05 0)
(-5.01316 -3.48845e-05 0)
(-4.89401 -3.24074e-05 0)
(-4.78288 -3.02012e-05 0)
(-4.67891 -2.82263e-05 0)
(-4.58137 -2.64502e-05 0)
(-4.48963 -2.48461e-05 0)
(-4.40316 -2.33918e-05 0)
(-4.32146 -2.20684e-05 0)
(-4.24413 -2.08601e-05 0)
(-4.17079 -1.97534e-05 0)
(-4.10112 -1.87369e-05 0)
(-4.03482 -1.78007e-05 0)
(-3.97164 -1.69363e-05 0)
(-3.91135 -1.61362e-05 0)
(-3.85372 -1.53941e-05 0)
(-3.79859 -1.47042e-05 0)
(-3.74577 -1.40616e-05 0)
(-3.69511 -1.34619e-05 0)
(-3.64647 -1.29013e-05 0)
(-3.59972 -1.23764e-05 0)
(-3.55475 -1.18841e-05 0)
(-3.51145 -1.14216e-05 0)
(-3.46971 -1.09865e-05 0)
(-3.42945 -1.05767e-05 0)
(-3.39059 -1.01901e-05 0)
(-3.35305 -9.825e-06 0)
(-3.31676 -9.47978e-06 0)
(-3.28164 -9.15296e-06 0)
(-3.24765 -8.84324e-06 0)
(-3.21471 -8.5494e-06 0)
(-3.18279 -8.27034e-06 0)
(-3.15183 -8.00506e-06 0)
(-3.12178 -7.75265e-06 0)
(-3.0926 -7.51227e-06 0)
(-3.06426 -7.28313e-06 0)
(-3.0367 -7.06454e-06 0)
(-3.00991 -6.85583e-06 0)
(-2.98384 -6.65641e-06 0)
(-2.95846 -6.46572e-06 0)
(-2.93375 -6.28324e-06 0)
(-2.90967 -6.1085e-06 0)
(-2.8862 -5.94105e-06 0)
(-2.86332 -5.78049e-06 0)
(-2.841 -5.62643e-06 0)
(-2.81922 -5.47851e-06 0)
(-2.79795 -5.33642e-06 0)
(-2.77719 -5.19984e-06 0)
(-2.75691 -5.06848e-06 0)
(-2.73709 -4.94207e-06 0)
(-2.71771 -4.82036e-06 0)
(-2.69877 -4.70312e-06 0)
(-2.68024 -4.59013e-06 0)
(-2.66211 -4.48117e-06 0)
(-2.64437 -4.37606e-06 0)
(-2.627 -4.27461e-06 0)
(-2.60999 -4.17665e-06 0)
(-2.59333 -4.08202e-06 0)
(-2.577 -3.99057e-06 0)
(-2.56101 -3.90215e-06 0)
(-2.54532 -3.81663e-06 0)
(-2.52995 -3.73388e-06 0)
(-2.51487 -3.65378e-06 0)
(-2.50007 -3.57621e-06 0)
(-2.48556 -3.50107e-06 0)
(-2.47132 -3.42826e-06 0)
(-2.45733 -3.35768e-06 0)
(-2.44361 -3.28924e-06 0)
(-2.43013 -3.22284e-06 0)
(-2.41688 -3.15842e-06 0)
(-2.40388 -3.09588e-06 0)
(-2.39109 -3.03516e-06 0)
(-2.37853 -2.97619e-06 0)
(-2.36619 -2.91889e-06 0)
(-2.35405 -2.8632e-06 0)
(-2.34211 -2.80907e-06 0)
(-2.33037 -2.75643e-06 0)
(-2.31882 -2.70524e-06 0)
(-2.30746 -2.65543e-06 0)
(-2.29628 -2.60695e-06 0)
(-2.28528 -2.55976e-06 0)
(-2.27445 -2.51382e-06 0)
(-2.26379 -2.46907e-06 0)
(-2.2533 -2.42549e-06 0)
(-2.24296 -2.38301e-06 0)
(-2.23278 -2.34162e-06 0)
(-2.22276 -2.30127e-06 0)
(-2.21288 -2.26192e-06 0)
(-2.20315 -2.22355e-06 0)
(-2.19356 -2.18612e-06 0)
(-2.18411 -2.1496e-06 0)
(-2.17479 -2.11396e-06 0)
(-2.16561 -2.07917e-06 0)
(-2.15656 -2.04521e-06 0)
(-2.14763 -2.01204e-06 0)
(-2.13882 -1.97965e-06 0)
(-2.13014 -1.94801e-06 0)
(-2.12158 -1.9171e-06 0)
(-2.11313 -1.88689e-06 0)
(-2.10479 -1.85736e-06 0)
(-2.09657 -1.82849e-06 0)
(-2.08845 -1.80027e-06 0)
(-2.08044 -1.77267e-06 0)
(-2.07253 -1.74568e-06 0)
(-2.06473 -1.71927e-06 0)
(-2.05702 -1.69344e-06 0)
(-2.04941 -1.66815e-06 0)
(-2.0419 -1.64341e-06 0)
(-2.03448 -1.61919e-06 0)
(-2.02715 -1.59548e-06 0)
(-2.01992 -1.57226e-06 0)
(-2.01277 -1.54952e-06 0)
(-2.00571 -1.52725e-06 0)
(-1.99873 -1.50543e-06 0)
(-1.99184 -1.48406e-06 0)
(-1.98502 -1.46311e-06 0)
(-1.97829 -1.44258e-06 0)
(-1.97164 -1.42247e-06 0)
(-1.96506 -1.40274e-06 0)
(-1.95856 -1.38341e-06 0)
(-1.95213 -1.36445e-06 0)
(-1.94578 -1.34586e-06 0)
(-1.9395 -1.32762e-06 0)
(-1.93328 -1.30973e-06 0)
(-1.92714 -1.29218e-06 0)
(-1.92107 -1.27497e-06 0)
(-1.91506 -1.25807e-06 0)
(-1.90911 -1.24149e-06 0)
(-1.90324 -1.22522e-06 0)
(-1.89742 -1.20924e-06 0)
(-1.89167 -1.19356e-06 0)
(-1.88598 -1.17816e-06 0)
(-1.88034 -1.16304e-06 0)
(-1.87477 -1.14819e-06 0)
(-1.86926 -1.1336e-06 0)
(-1.8638 -1.11928e-06 0)
(-1.8584 -1.1052e-06 0)
(-1.85305 -1.09137e-06 0)
(-1.84776 -1.07778e-06 0)
(-1.84252 -1.06443e-06 0)
(-1.83733 -1.0513e-06 0)
(-1.8322 -1.0384e-06 0)
(-1.82711 -1.02572e-06 0)
(-1.82208 -1.01324e-06 0)
(-1.8171 -1.00097e-06 0)
(-1.81216 -9.88906e-07 0)
(-1.80727 -9.77032e-07 0)
(-1.80243 -9.65345e-07 0)
(-1.79764 -9.53844e-07 0)
(-1.79289 -9.4249e-07 0)
(-1.78819 -9.31347e-07 0)
(-1.78353 -9.20314e-07 0)
(-1.77892 -9.09245e-07 0)
(-1.77435 -8.99003e-07 0)
(-1.77007 -8.90843e-07 0)
(-1.76605 -8.82102e-07 0)
(-1.76204 -8.7138e-07 0)
(-1.75803 -8.61298e-07 0)
(-1.75402 -8.51999e-07 0)
(-1.75001 -8.42862e-07 0)
(-1.746 -8.33934e-07 0)
(-1.74199 -8.25149e-07 0)
(-1.73798 -8.16486e-07 0)
(-1.73397 -8.07926e-07 0)
(-1.72995 -7.99456e-07 0)
(-1.72594 -7.91067e-07 0)
(-1.72192 -7.82753e-07 0)
(-1.71791 -7.74508e-07 0)
(-1.71389 -7.66327e-07 0)
(-1.70987 -7.58208e-07 0)
(-1.70585 -7.50149e-07 0)
(-1.70183 -7.42146e-07 0)
(-1.69781 -7.34199e-07 0)
(-1.6938 -7.26306e-07 0)
(-1.68978 -7.18467e-07 0)
(-1.68576 -7.1068e-07 0)
(-1.68174 -7.02946e-07 0)
(-1.67772 -6.95263e-07 0)
(-1.67371 -6.87633e-07 0)
(-1.66969 -6.80053e-07 0)
(-1.66567 -6.72526e-07 0)
(-1.66166 -6.65049e-07 0)
(-1.65765 -6.57625e-07 0)
(-1.65364 -6.50251e-07 0)
(-1.64963 -6.4293e-07 0)
(-1.64563 -6.3566e-07 0)
(-1.64162 -6.28442e-07 0)
(-1.63762 -6.21276e-07 0)
(-1.63362 -6.14162e-07 0)
(-1.62963 -6.071e-07 0)
(-1.62564 -6.00091e-07 0)
(-1.62165 -5.93134e-07 0)
(-1.61766 -5.86229e-07 0)
(-1.61368 -5.79378e-07 0)
(-1.6097 -5.72579e-07 0)
(-1.60573 -5.65833e-07 0)
(-1.60176 -5.59139e-07 0)
(-1.5978 -5.52499e-07 0)
(-1.59384 -5.45912e-07 0)
(-1.58988 -5.39379e-07 0)
(-1.58593 -5.32898e-07 0)
(-1.58199 -5.26471e-07 0)
(-1.57805 -5.20097e-07 0)
(-1.57411 -5.13776e-07 0)
(-1.57018 -5.07509e-07 0)
(-1.56626 -5.01295e-07 0)
(-1.56234 -4.95134e-07 0)
(-1.55843 -4.89027e-07 0)
(-1.55453 -4.82973e-07 0)
(-1.55063 -4.76972e-07 0)
(-1.54674 -4.71024e-07 0)
(-1.54286 -4.6513e-07 0)
(-1.53898 -4.59289e-07 0)
(-1.53511 -4.53501e-07 0)
(-1.53125 -4.47766e-07 0)
(-1.52739 -4.42083e-07 0)
(-1.52354 -4.36454e-07 0)
(-1.5197 -4.30877e-07 0)
(-1.51587 -4.25353e-07 0)
(-1.51205 -4.19881e-07 0)
(-1.50823 -4.14462e-07 0)
(-1.50443 -4.09095e-07 0)
(-1.50063 -4.0378e-07 0)
(-1.49684 -3.98517e-07 0)
(-1.49306 -3.93305e-07 0)
(-1.48929 -3.88146e-07 0)
(-1.48552 -3.83038e-07 0)
(-1.48177 -3.77981e-07 0)
(-1.47803 -3.72975e-07 0)
(-1.47429 -3.6802e-07 0)
(-1.47057 -3.63115e-07 0)
(-1.46685 -3.58262e-07 0)
(-1.46315 -3.53458e-07 0)
(-1.45945 -3.48705e-07 0)
(-1.45577 -3.44001e-07 0)
(-1.4521 -3.39347e-07 0)
(-1.44843 -3.34743e-07 0)
(-1.44478 -3.30187e-07 0)
(-1.44114 -3.25681e-07 0)
(-1.4375 -3.21223e-07 0)
(-1.43388 -3.16814e-07 0)
(-1.43027 -3.12452e-07 0)
(-1.42667 -3.08139e-07 0)
(-1.42309 -3.03873e-07 0)
(-1.41951 -2.99655e-07 0)
(-1.41594 -2.95484e-07 0)
(-1.41239 -2.91359e-07 0)
(-1.40885 -2.87281e-07 0)
(-1.40532 -2.83249e-07 0)
(-1.4018 -2.79264e-07 0)
(-1.39829 -2.75324e-07 0)
(-1.3948 -2.71429e-07 0)
(-1.39132 -2.67579e-07 0)
(-1.38785 -2.63774e-07 0)
(-1.38439 -2.60014e-07 0)
(-1.38094 -2.56297e-07 0)
(-1.37751 -2.52625e-07 0)
(-1.37409 -2.48996e-07 0)
(-1.37068 -2.4541e-07 0)
(-1.36729 -2.41867e-07 0)
(-1.3639 -2.38367e-07 0)
(-1.36054 -2.34909e-07 0)
(-1.35718 -2.31493e-07 0)
(-1.35383 -2.28118e-07 0)
(-1.3505 -2.24785e-07 0)
(-1.34719 -2.21492e-07 0)
(-1.34388 -2.18241e-07 0)
(-1.34059 -2.15029e-07 0)
(-1.33731 -2.11857e-07 0)
(-1.33405 -2.08725e-07 0)
(-1.3308 -2.05633e-07 0)
(-1.32756 -2.02579e-07 0)
(-1.32433 -1.99564e-07 0)
(-1.32112 -1.96587e-07 0)
(-1.31793 -1.93648e-07 0)
(-1.31474 -1.90747e-07 0)
(-1.31157 -1.87883e-07 0)
(-1.30842 -1.85055e-07 0)
(-1.30527 -1.82265e-07 0)
(-1.30215 -1.7951e-07 0)
(-1.29903 -1.76792e-07 0)
(-1.29593 -1.74109e-07 0)
(-1.29284 -1.71461e-07 0)
(-1.28977 -1.68848e-07 0)
(-1.28671 -1.6627e-07 0)
(-1.28367 -1.63726e-07 0)
(-1.28064 -1.61216e-07 0)
(-1.27762 -1.58739e-07 0)
(-1.27462 -1.56296e-07 0)
(-1.27163 -1.53885e-07 0)
(-1.26866 -1.51507e-07 0)
(-1.2657 -1.49161e-07 0)
(-1.26275 -1.46847e-07 0)
(-1.25982 -1.44565e-07 0)
(-1.2569 -1.42314e-07 0)
(-1.254 -1.40093e-07 0)
(-1.25111 -1.37904e-07 0)
(-1.24824 -1.35744e-07 0)
(-1.24538 -1.33615e-07 0)
(-1.24253 -1.31514e-07 0)
(-1.2397 -1.29444e-07 0)
(-1.23689 -1.27402e-07 0)
(-1.23408 -1.25388e-07 0)
(-1.2313 -1.23404e-07 0)
(-1.22852 -1.21447e-07 0)
(-1.22576 -1.19517e-07 0)
(-1.22302 -1.17615e-07 0)
(-1.22029 -1.1574e-07 0)
(-1.21757 -1.13892e-07 0)
(-1.21487 -1.12071e-07 0)
(-1.21219 -1.10275e-07 0)
(-1.20951 -1.08505e-07 0)
(-1.20686 -1.06761e-07 0)
(-1.20421 -1.05042e-07 0)
(-1.20158 -1.03348e-07 0)
(-1.19897 -1.01679e-07 0)
(-1.19637 -1.00034e-07 0)
(-1.19378 -9.84128e-08 0)
(-1.19121 -9.68157e-08 0)
(-1.18865 -9.52422e-08 0)
(-1.18611 -9.36919e-08 0)
(-1.18358 -9.21647e-08 0)
(-1.18106 -9.06603e-08 0)
(-1.17856 -8.91785e-08 0)
(-1.17608 -8.77191e-08 0)
(-1.1736 -8.62821e-08 0)
(-1.17115 -8.48673e-08 0)
(-1.1687 -8.34749e-08 0)
(-1.16627 -8.21053e-08 0)
(-1.16385 -8.07594e-08 0)
(-1.16145 -7.9438e-08 0)
(-1.15906 -7.81448e-08 0)
(-1.15669 -7.69137e-08 0)
(-1.15432 -7.56302e-08 0)
(-1.15198 -7.44696e-08 0)
(-1.14937 -7.33459e-08 0)
(-1.14654 -7.20892e-08 0)
(-1.14375 -7.08219e-08 0)
(-1.14102 -6.94355e-08 0)
(-1.13835 -6.79968e-08 0)
(-1.13572 -6.65825e-08 0)
(-1.13316 -6.52118e-08 0)
(-1.13065 -6.38864e-08 0)
(-1.12818 -6.26046e-08 0)
(-1.12577 -6.13647e-08 0)
(-1.1234 -6.01648e-08 0)
(-1.12108 -5.90031e-08 0)
(-1.11881 -5.78775e-08 0)
(-1.11658 -5.67862e-08 0)
(-1.11439 -5.57277e-08 0)
(-1.11224 -5.47004e-08 0)
(-1.11013 -5.3703e-08 0)
(-1.10806 -5.27341e-08 0)
(-1.10602 -5.17927e-08 0)
(-1.10402 -5.08775e-08 0)
(-1.10206 -4.99875e-08 0)
(-1.10013 -4.91217e-08 0)
(-1.09824 -4.82792e-08 0)
(-1.09637 -4.74591e-08 0)
(-1.09454 -4.66606e-08 0)
(-1.09274 -4.58828e-08 0)
(-1.09097 -4.51251e-08 0)
(-1.08923 -4.43866e-08 0)
(-1.08752 -4.36668e-08 0)
(-1.08583 -4.29649e-08 0)
(-1.08417 -4.22804e-08 0)
(-1.08254 -4.16127e-08 0)
(-1.08093 -4.09611e-08 0)
(-1.07935 -4.03252e-08 0)
(-1.0778 -3.97045e-08 0)
(-1.07626 -3.90984e-08 0)
(-1.07475 -3.85065e-08 0)
(-1.07327 -3.79283e-08 0)
(-1.0718 -3.73634e-08 0)
(-1.07036 -3.68114e-08 0)
(-1.06894 -3.62718e-08 0)
(-1.06754 -3.57444e-08 0)
(-1.06616 -3.52287e-08 0)
(-1.06479 -3.47243e-08 0)
(-1.06345 -3.4231e-08 0)
(-1.06213 -3.37485e-08 0)
(-1.06083 -3.32763e-08 0)
(-1.05954 -3.28142e-08 0)
(-1.05827 -3.23619e-08 0)
(-1.05702 -3.19192e-08 0)
(-1.05579 -3.14858e-08 0)
(-1.05458 -3.10613e-08 0)
(-1.05338 -3.06456e-08 0)
(-1.05219 -3.02385e-08 0)
(-1.05102 -2.98396e-08 0)
(-1.04987 -2.94488e-08 0)
(-1.04873 -2.90658e-08 0)
(-1.04761 -2.86906e-08 0)
(-1.0465 -2.83227e-08 0)
(-1.04541 -2.79622e-08 0)
(-1.04433 -2.76087e-08 0)
(-1.04326 -2.72621e-08 0)
(-1.04221 -2.69223e-08 0)
(-1.04117 -2.6589e-08 0)
(-1.04014 -2.62622e-08 0)
(-1.03912 -2.59417e-08 0)
(-1.03812 -2.56273e-08 0)
(-1.03713 -2.5319e-08 0)
(-1.03615 -2.50165e-08 0)
(-1.03518 -2.47198e-08 0)
(-1.03423 -2.44288e-08 0)
(-1.03328 -2.41434e-08 0)
(-1.03235 -2.38634e-08 0)
(-1.03143 -2.3589e-08 0)
(-1.03052 -2.33199e-08 0)
(-1.02962 -2.30561e-08 0)
(-1.02872 -2.27978e-08 0)
(-1.02784 -2.25448e-08 0)
(-1.02697 -2.22974e-08 0)
(-1.02611 -2.20557e-08 0)
(-1.02526 -2.182e-08 0)
(-1.02441 -2.15906e-08 0)
(-1.02358 -2.13684e-08 0)
(-1.02275 -2.11544e-08 0)
(-1.02193 -2.09499e-08 0)
(-1.02112 -2.07595e-08 0)
(-1.02032 -2.05832e-08 0)
(-1.01952 -2.04338e-08 0)
(-1.01873 -2.03536e-08 0)
(-1.01794 -2.03003e-08 0)
(-1.01715 -1.96604e-08 0)
(-1.01641 -2.57367e-08 0)
(-1.01515 -6.69473e-09 0)
(-1.0159 -1.86429e-08 0)
(-1.01367 -2.94006e-08 0)
)
;
    }
    symmetry
    {
        type            symmetryPlane;
    }
    frontAndBack
    {
        type            empty;
    }
}


// ************************************************************************* //
