/*--------------------------------*- C++ -*----------------------------------*\
| =========                 |                                                 |
| \\      /  F ield         | OpenFOAM: The Open Source CFD Toolbox           |
|  \\    /   O peration     | Version:  v2012                                 |
|   \\  /    A nd           | Website:  www.openfoam.com                      |
|    \\/     M anipulation  |                                                 |
\*---------------------------------------------------------------------------*/
FoamFile
{
    version     2.0;
    format      ascii;
    class       volScalarField;
    location    "14.5";
    object      yPlus;
}
// * * * * * * * * * * * * * * * * * * * * * * * * * * * * * * * * * * * * * //

dimensions      [0 0 0 0 0 0 0];


internalField   uniform 0;

boundaryField
{
    inlet
    {
        type            calculated;
        value           uniform 0;
    }
    outlet
    {
        type            calculated;
        value           uniform 0;
    }
    topWall
    {
        type            calculated;
        value           nonuniform List<scalar> 
545
(
0.0685205
0.118202
0.151622
0.178202
0.20069
0.220352
0.237898
0.253776
0.268291
0.281661
0.294051
0.305588
0.316374
0.326491
0.336007
0.344979
0.353456
0.361481
0.369088
0.376311
0.383178
0.389713
0.39594
0.401878
0.407546
0.412961
0.418138
0.423091
0.427832
0.432373
0.436726
0.4409
0.444905
0.448749
0.45244
0.455987
0.459395
0.462672
0.465825
0.468858
0.471777
0.474588
0.477295
0.479903
0.482417
0.484839
0.487176
0.489429
0.491602
0.4937
0.495724
0.497678
0.499565
0.501388
0.503148
0.504849
0.506493
0.508082
0.509618
0.511103
0.512539
0.513928
0.515272
0.516572
0.517831
0.519048
0.520227
0.521368
0.522473
0.523543
0.524579
0.525583
0.526543
0.52747
0.528389
0.529299
0.530201
0.531095
0.53198
0.532857
0.533727
0.534588
0.535442
0.536288
0.537126
0.537957
0.53878
0.539596
0.540404
0.541205
0.541999
0.542786
0.543566
0.544338
0.545104
0.545863
0.546546
0.547155
0.547764
0.548372
0.548979
0.549586
0.550191
0.550796
0.551401
0.552004
0.552607
0.553209
0.55381
0.554411
0.555011
0.555609
0.556208
0.556805
0.557401
0.557997
0.558592
0.559186
0.559779
0.560371
0.560962
0.561553
0.562142
0.562731
0.563319
0.563906
0.564492
0.565077
0.565661
0.566244
0.566826
0.567408
0.567988
0.568567
0.569146
0.569723
0.5703
0.570875
0.571449
0.572023
0.572595
0.573166
0.573737
0.574306
0.574874
0.575441
0.576007
0.576572
0.577136
0.577699
0.57826
0.578821
0.57938
0.579939
0.580496
0.581052
0.581606
0.58216
0.582712
0.583263
0.583813
0.584362
0.58491
0.585456
0.586001
0.586545
0.587088
0.587629
0.588169
0.588708
0.589245
0.589782
0.590316
0.59085
0.591382
0.591913
0.592443
0.592971
0.593497
0.594023
0.594547
0.59507
0.595591
0.596111
0.596629
0.597146
0.597661
0.598175
0.598688
0.599199
0.599708
0.600217
0.600723
0.601228
0.601732
0.602234
0.602734
0.603233
0.60373
0.604226
0.60472
0.605213
0.605704
0.606193
0.606681
0.607167
0.607651
0.608134
0.608615
0.609094
0.609572
0.610048
0.610522
0.610995
0.611466
0.611935
0.612402
0.612867
0.613331
0.613793
0.614253
0.614712
0.615168
0.615623
0.616076
0.616527
0.616976
0.617423
0.617869
0.618312
0.618754
0.619194
0.619631
0.620067
0.620501
0.620933
0.621363
0.621791
0.622217
0.622641
0.623063
0.623483
0.623901
0.624316
0.62473
0.625142
0.625552
0.625959
0.626365
0.626768
0.627169
0.627568
0.627965
0.62836
0.628753
0.629143
0.629531
0.629917
0.630301
0.630683
0.631062
0.631439
0.631814
0.632187
0.632557
0.632925
0.633291
0.633655
0.634016
0.634354
0.634672
0.63499
0.63531
0.63563
0.635951
0.636273
0.636596
0.636919
0.637243
0.637568
0.637893
0.638218
0.638545
0.638871
0.639198
0.639525
0.639852
0.640179
0.640507
0.640834
0.641162
0.641489
0.641816
0.642143
0.64247
0.642796
0.643122
0.643447
0.643772
0.644096
0.644419
0.644741
0.645062
0.645383
0.645702
0.64602
0.646336
0.646651
0.646965
0.647277
0.647587
0.647895
0.648202
0.648506
0.648808
0.649108
0.649405
0.6497
0.649992
0.650282
0.650568
0.650851
0.651132
0.651409
0.651682
0.651952
0.652218
0.652481
0.652739
0.652993
0.653243
0.653488
0.653728
0.653964
0.654195
0.654421
0.654641
0.654856
0.655065
0.655268
0.655466
0.655657
0.655842
0.65602
0.656192
0.656356
0.656514
0.656664
0.656806
0.656941
0.657068
0.657187
0.657297
0.657399
0.657492
0.657576
0.657651
0.657717
0.657773
0.657819
0.657855
0.657881
0.657896
0.657901
0.657894
0.657877
0.657848
0.657807
0.657754
0.657689
0.657612
0.657523
0.65742
0.657305
0.657176
0.657034
0.656878
0.656708
0.656523
0.656325
0.656111
0.655883
0.655639
0.655381
0.655106
0.654816
0.65451
0.654187
0.653848
0.653493
0.65312
0.652731
0.652324
0.651899
0.651457
0.650997
0.650519
0.650023
0.649508
0.648975
0.648423
0.647851
0.647261
0.646652
0.646023
0.645374
0.644706
0.644018
0.643311
0.642583
0.641835
0.641067
0.640278
0.639469
0.63864
0.637791
0.63692
0.636029
0.635118
0.634186
0.633233
0.63226
0.631266
0.630252
0.629217
0.628161
0.627085
0.625989
0.624872
0.623735
0.622579
0.621402
0.620205
0.618989
0.617753
0.616498
0.615224
0.613931
0.612619
0.611288
0.60994
0.608573
0.607189
0.605787
0.604368
0.602932
0.60148
0.600011
0.598527
0.597027
0.595344
0.593485
0.59163
0.58978
0.587935
0.586096
0.584263
0.582439
0.580623
0.578815
0.577018
0.575231
0.573454
0.571689
0.569936
0.568195
0.566468
0.564753
0.563053
0.561366
0.559694
0.558038
0.556396
0.55477
0.553161
0.551567
0.549991
0.548431
0.546888
0.545363
0.543856
0.542366
0.540895
0.539443
0.538008
0.536593
0.535197
0.53382
0.532463
0.531125
0.529807
0.528509
0.527232
0.525974
0.524738
0.523522
0.522326
0.521152
0.519999
0.518868
0.517758
0.51667
0.515603
0.514559
0.513536
0.512536
0.511558
0.510603
0.509671
0.508762
0.507875
0.507012
0.506172
0.505355
0.504562
0.503793
0.503048
0.502326
0.501629
0.500956
0.500308
0.499684
0.499084
0.49851
0.49796
0.497435
0.496935
0.496461
0.496012
0.495588
0.495189
0.494817
0.49447
0.494148
0.493853
0.493583
0.49334
0.493122
0.49293
0.492765
0.492625
0.492513
0.492424
0.492368
0.492315
)
;
    }
    bottomWall
    {
        type            calculated;
        value           nonuniform List<scalar> 
449
(
0.139571
0.0890295
0.0758683
0.0694908
0.0653039
0.0621748
0.0596778
0.0576127
0.0558605
0.0543435
0.0530092
0.0518214
0.0507535
0.0497853
0.0489013
0.0480892
0.0473391
0.0466431
0.0459945
0.0453878
0.0448186
0.0442828
0.0437771
0.0432986
0.0428449
0.0424138
0.0420034
0.0416119
0.0412379
0.04088
0.0405371
0.0402082
0.0398921
0.0395881
0.0392955
0.0390133
0.0387411
0.0384783
0.0382242
0.0379784
0.0377404
0.0375098
0.0372862
0.0370693
0.0368587
0.0366541
0.0364551
0.0362616
0.0360733
0.03589
0.0357113
0.0355372
0.0353674
0.0352017
0.03504
0.0348822
0.0347279
0.0345772
0.0344298
0.0342857
0.0341447
0.0340068
0.0338717
0.0337394
0.0336098
0.0334828
0.0333584
0.0332363
0.0331167
0.0329992
0.032884
0.0327709
0.0326599
0.0325509
0.0324438
0.0323386
0.0322352
0.0321336
0.0320337
0.0319355
0.0318389
0.0317438
0.0316504
0.0315583
0.0314678
0.0313786
0.0312909
0.0312044
0.0311193
0.0310355
0.0309528
0.0308714
0.0307912
0.0307121
0.0306341
0.0305573
0.0304815
0.0304067
0.0303329
0.0302602
0.0301884
0.0301176
0.0300477
0.0299787
0.0299106
0.0298434
0.029777
0.0297115
0.0296467
0.0295828
0.0295196
0.0294572
0.0293956
0.0293347
0.0292745
0.029215
0.0291562
0.0290981
0.0290407
0.0289839
0.0289277
0.0288722
0.0288173
0.0287629
0.0287092
0.0286561
0.0286035
0.0285515
0.0285
0.0284491
0.0283987
0.0283489
0.0282995
0.0282507
0.0282023
0.0281545
0.0281071
0.0280601
0.0280137
0.0279677
0.0279221
0.027877
0.0278323
0.0277881
0.0277443
0.0277008
0.0276578
0.0276152
0.027573
0.0275312
0.0274897
0.0274486
0.0274079
0.0273676
0.0273276
0.027288
0.0272487
0.0272097
0.0271711
0.0271329
0.0270949
0.0270573
0.02702
0.026983
0.0269464
0.02691
0.026874
0.0268382
0.0268027
0.0267676
0.0267327
0.0266981
0.0266638
0.0266316
0.0266014
0.0265711
0.0265408
0.0265106
0.0264802
0.0264499
0.0264195
0.0263891
0.0263586
0.0263281
0.0262975
0.0262669
0.0262362
0.0262056
0.0261748
0.026144
0.0261132
0.0260824
0.0260515
0.0260206
0.0259896
0.0259586
0.0259276
0.0258965
0.0258654
0.0258343
0.0258032
0.025772
0.0257408
0.0257096
0.0256784
0.0256471
0.0256159
0.0255846
0.0255533
0.025522
0.0254906
0.0254593
0.0254279
0.0253966
0.0253652
0.0253338
0.0253025
0.0252711
0.0252397
0.0252083
0.025177
0.0251456
0.0251142
0.0250829
0.0250515
0.0250202
0.0249888
0.0249575
0.0249262
0.0248949
0.0248636
0.0248324
0.0248011
0.0247699
0.0247387
0.0247075
0.0246764
0.0246453
0.0246142
0.0245831
0.024552
0.024521
0.02449
0.0244591
0.0244282
0.0243973
0.0243665
0.0243357
0.0243049
0.0242742
0.0242435
0.0242129
0.0241823
0.0241517
0.0241212
0.0240908
0.0240604
0.02403
0.0239997
0.0239695
0.0239393
0.0239092
0.0238791
0.0238491
0.0238191
0.0237892
0.0237593
0.0237295
0.0236998
0.0236702
0.0236406
0.023611
0.0235816
0.0235522
0.0235229
0.0234936
0.0234644
0.0234353
0.0234063
0.0233773
0.0233484
0.0233196
0.0232908
0.0232622
0.0232336
0.0232051
0.0231766
0.0231483
0.02312
0.0230918
0.0230637
0.0230357
0.0230077
0.0229799
0.0229521
0.0229244
0.0228968
0.0228693
0.0228419
0.0228145
0.0227873
0.0227601
0.0227331
0.0227061
0.0226792
0.0226524
0.0226258
0.0225992
0.0225726
0.0225462
0.0225199
0.0224937
0.0224676
0.0224416
0.0224156
0.0223898
0.0223641
0.0223384
0.0223129
0.0222875
0.0222621
0.0222369
0.0222118
0.0221868
0.0221618
0.022137
0.0221123
0.0220877
0.0220631
0.0220387
0.0220144
0.0219902
0.0219661
0.0219421
0.0219182
0.0218945
0.0218708
0.0218472
0.0218237
0.0218004
0.0217771
0.021754
0.0217309
0.021708
0.0216852
0.0216624
0.0216398
0.0216173
0.0215949
0.0215726
0.0215504
0.0215283
0.0215063
0.0214844
0.0214601
0.0214337
0.0214076
0.021382
0.0213569
0.0213323
0.0213082
0.0212846
0.0212614
0.0212386
0.0212163
0.0211944
0.0211729
0.0211518
0.021131
0.0211106
0.0210906
0.0210709
0.0210515
0.0210325
0.0210138
0.0209954
0.0209773
0.0209595
0.020942
0.0209248
0.0209078
0.0208911
0.0208747
0.0208585
0.0208426
0.0208269
0.0208114
0.0207962
0.0207812
0.0207664
0.0207518
0.0207375
0.0207233
0.0207094
0.0206956
0.020682
0.0206687
0.0206555
0.0206425
0.0206296
0.020617
0.0206045
0.0205921
0.02058
0.020568
0.0205561
0.0205444
0.0205329
0.0205215
0.0205102
0.0204991
0.0204881
0.0204773
0.0204665
0.020456
0.0204455
0.0204352
0.020425
0.0204149
0.0204049
0.0203951
0.0203854
0.0203757
0.0203662
0.0203568
0.0203475
0.0203384
0.0203293
0.0203203
0.0203114
0.0203026
0.0202939
0.0202853
0.0202768
0.0202683
0.02026
0.0202517
0.0202436
0.0202355
0.0202274
0.0202195
0.0202116
0.0202037
0.0201959
0.0201881
0.0201807
0.0201682
0.0201757
0.0201535
)
;
    }
    symmetry
    {
        type            symmetryPlane;
    }
    frontAndBack
    {
        type            empty;
    }
}


// ************************************************************************* //
