/*--------------------------------*- C++ -*----------------------------------*\
| =========                 |                                                 |
| \\      /  F ield         | OpenFOAM: The Open Source CFD Toolbox           |
|  \\    /   O peration     | Version:  v2012                                 |
|   \\  /    A nd           | Website:  www.openfoam.com                      |
|    \\/     M anipulation  |                                                 |
\*---------------------------------------------------------------------------*/
FoamFile
{
    version     2.0;
    format      ascii;
    class       volScalarField;
    location    "39.5";
    object      epsilon;
}
// * * * * * * * * * * * * * * * * * * * * * * * * * * * * * * * * * * * * * //

dimensions      [0 2 -3 0 0 0 0];


internalField   nonuniform List<scalar> 
209825
(
0.757477
0.635388
0.555187
0.502784
0.467405
0.442541
0.424336
0.410603
0.399913
0.391446
0.384562
0.378922
0.374187
0.37021
0.366782
0.363856
0.361282
0.359057
0.357063
0.355325
0.353743
0.352356
0.351074
0.349949
0.348896
0.347971
0.347094
0.346325
0.345589
0.344945
0.344318
0.343775
0.343243
0.342786
0.342327
0.34194
0.34155
0.341218
0.340878
0.340595
0.3403
0.340063
0.339815
0.339612
0.339389
0.339221
0.339038
0.338888
0.338723
0.338611
0.338474
0.338354
0.338248
0.338158
0.338093
0.337987
0.337914
0.337874
0.337791
0.337778
0.337765
0.337727
0.337749
0.337748
0.337788
0.33781
0.337859
0.337933
0.337933
0.338015
0.338055
0.338156
0.338203
0.338324
0.338382
0.338521
0.338593
0.338748
0.338829
0.339008
0.339105
0.339315
0.339431
0.339678
0.339815
0.340105
0.340266
0.340609
0.340797
0.34122
0.341429
0.342068
0.342271
0.346547
3.00871
557.018
0.757477
0.635387
0.555184
0.502777
0.467395
0.442529
0.424322
0.410588
0.399896
0.391428
0.384544
0.378903
0.374167
0.370189
0.366762
0.363835
0.36126
0.359035
0.357041
0.355303
0.35372
0.352334
0.351051
0.349926
0.348873
0.347948
0.34707
0.346301
0.345566
0.344922
0.344294
0.343752
0.34322
0.342762
0.342303
0.341916
0.341526
0.341194
0.340854
0.340571
0.340276
0.340039
0.339791
0.339588
0.339365
0.339197
0.339013
0.338864
0.338698
0.338586
0.338449
0.338329
0.338223
0.338133
0.338069
0.337963
0.337889
0.33785
0.337767
0.337753
0.33774
0.337702
0.337724
0.337723
0.337764
0.337785
0.337834
0.337908
0.337908
0.33799
0.338031
0.338131
0.338178
0.338299
0.338357
0.338496
0.338568
0.338723
0.338804
0.338982
0.33908
0.339289
0.339405
0.339653
0.33979
0.34008
0.340241
0.340583
0.340772
0.341195
0.341403
0.342043
0.342245
0.346529
3.01383
553.703
0.75748
0.635384
0.555167
0.502746
0.467351
0.442476
0.424261
0.410521
0.399824
0.391353
0.384465
0.378822
0.374083
0.370104
0.366675
0.363747
0.36117
0.358944
0.356949
0.35521
0.353627
0.352239
0.350956
0.349831
0.348777
0.347852
0.346974
0.346204
0.345468
0.344824
0.344196
0.343653
0.343121
0.342663
0.342204
0.341817
0.341426
0.341094
0.340753
0.340471
0.340175
0.339938
0.33969
0.339486
0.339264
0.339095
0.338912
0.338762
0.338597
0.338484
0.338347
0.338227
0.338121
0.338031
0.337966
0.33786
0.337786
0.337747
0.337664
0.337651
0.337637
0.337599
0.337621
0.33762
0.33766
0.337681
0.33773
0.337804
0.337804
0.337886
0.337926
0.338027
0.338074
0.338195
0.338252
0.338392
0.338463
0.338618
0.338699
0.338877
0.338974
0.339184
0.3393
0.339547
0.339684
0.339974
0.340135
0.340477
0.340665
0.341088
0.341296
0.341936
0.342138
0.346434
3.02454
549.772
0.757484
0.635377
0.555137
0.502692
0.467277
0.442385
0.424158
0.410408
0.399703
0.391225
0.384332
0.378684
0.373942
0.369959
0.366527
0.363597
0.361019
0.358791
0.356794
0.355053
0.353469
0.35208
0.350796
0.34967
0.348615
0.347689
0.34681
0.34604
0.345303
0.344658
0.34403
0.343487
0.342954
0.342496
0.342036
0.341648
0.341257
0.340925
0.340584
0.340301
0.340005
0.339768
0.339519
0.339316
0.339093
0.338924
0.33874
0.33859
0.338425
0.338312
0.338175
0.338055
0.337948
0.337858
0.337793
0.337687
0.337613
0.337574
0.337491
0.337477
0.337463
0.337425
0.337447
0.337445
0.337486
0.337506
0.337555
0.337629
0.337629
0.337711
0.337751
0.337851
0.337898
0.338018
0.338076
0.338215
0.338286
0.338442
0.338522
0.3387
0.338797
0.339006
0.339122
0.339369
0.339506
0.339795
0.339956
0.340298
0.340485
0.340908
0.341116
0.341755
0.341956
0.346273
3.04128
546.004
0.757491
0.635368
0.555095
0.502616
0.467172
0.442257
0.424012
0.410248
0.399532
0.391044
0.384144
0.37849
0.373742
0.369755
0.366319
0.363386
0.360804
0.358574
0.356574
0.354832
0.353246
0.351856
0.35057
0.349442
0.348386
0.347459
0.346579
0.345808
0.34507
0.344424
0.343795
0.343251
0.342718
0.342259
0.341799
0.341411
0.341019
0.340686
0.340345
0.340062
0.339765
0.339528
0.339278
0.339074
0.338851
0.338682
0.338498
0.338348
0.338182
0.338069
0.337932
0.337811
0.337704
0.337614
0.337549
0.337443
0.337368
0.337329
0.337246
0.337231
0.337218
0.337179
0.3372
0.337199
0.337239
0.337259
0.337308
0.337381
0.337381
0.337463
0.337503
0.337603
0.337649
0.33777
0.337827
0.337966
0.338037
0.338192
0.338272
0.33845
0.338546
0.338755
0.338871
0.339117
0.339254
0.339543
0.339703
0.340044
0.340232
0.340654
0.340861
0.341499
0.341699
0.346044
3.06453
542.745
0.757499
0.635357
0.555041
0.502517
0.467036
0.442092
0.423823
0.41004
0.39931
0.39081
0.3839
0.378238
0.373484
0.369491
0.366049
0.363112
0.360526
0.358292
0.35629
0.354545
0.352956
0.351564
0.350276
0.349147
0.348089
0.347161
0.346279
0.345507
0.344768
0.344121
0.343491
0.342946
0.342412
0.341952
0.341491
0.341102
0.34071
0.340376
0.340034
0.339751
0.339454
0.339216
0.338966
0.338762
0.338538
0.338368
0.338184
0.338033
0.337867
0.337754
0.337616
0.337495
0.337388
0.337298
0.337232
0.337126
0.337051
0.337011
0.336928
0.336913
0.336899
0.336861
0.336881
0.336879
0.336919
0.336939
0.336988
0.33706
0.33706
0.337141
0.337181
0.33728
0.337327
0.337447
0.337504
0.337642
0.337713
0.337868
0.337948
0.338125
0.338221
0.33843
0.338545
0.338791
0.338927
0.339215
0.339375
0.339715
0.339902
0.340323
0.34053
0.341167
0.341366
0.345747
3.09474
540.16
0.757509
0.635343
0.554974
0.502396
0.466869
0.441888
0.42359
0.409785
0.399036
0.390522
0.3836
0.377927
0.373165
0.369164
0.365717
0.362774
0.360184
0.357946
0.35594
0.354192
0.3526
0.351205
0.349915
0.348783
0.347724
0.346793
0.34591
0.345136
0.344396
0.343748
0.343116
0.34257
0.342035
0.341574
0.341112
0.340722
0.340329
0.339995
0.339652
0.339368
0.33907
0.338831
0.338581
0.338376
0.338152
0.337982
0.337797
0.337646
0.337479
0.337365
0.337227
0.337106
0.336999
0.336908
0.336841
0.336736
0.33666
0.33662
0.336536
0.336521
0.336507
0.336468
0.336487
0.336485
0.336525
0.336544
0.336593
0.336664
0.336664
0.336745
0.336784
0.336883
0.336929
0.337049
0.337106
0.337244
0.337314
0.337468
0.337548
0.337725
0.337821
0.338028
0.338143
0.338388
0.338524
0.338811
0.338971
0.33931
0.339497
0.339916
0.340122
0.340759
0.340956
0.345382
3.13238
538.309
0.757521
0.635326
0.554895
0.502252
0.46667
0.441645
0.423313
0.409481
0.39871
0.390179
0.383242
0.377557
0.372785
0.368776
0.365321
0.362372
0.359776
0.357533
0.355522
0.35377
0.352175
0.350777
0.349484
0.34835
0.347288
0.346355
0.34547
0.344694
0.343952
0.343303
0.34267
0.342122
0.341585
0.341124
0.340661
0.34027
0.339876
0.33954
0.339197
0.338911
0.338613
0.338374
0.338122
0.337917
0.337692
0.337521
0.337335
0.337184
0.337017
0.336902
0.336764
0.336642
0.336534
0.336443
0.336376
0.33627
0.336194
0.336154
0.33607
0.336054
0.336039
0.335999
0.336018
0.336016
0.336055
0.336073
0.336122
0.336192
0.336192
0.336273
0.336311
0.33641
0.336456
0.336575
0.336631
0.336769
0.336839
0.336992
0.337071
0.337247
0.337343
0.33755
0.337664
0.337909
0.338044
0.33833
0.338489
0.338827
0.339013
0.339432
0.339636
0.340272
0.340467
0.344947
3.17793
537.182
0.757535
0.635307
0.554804
0.502086
0.466439
0.441363
0.422992
0.409128
0.398332
0.38978
0.382826
0.377127
0.372343
0.368324
0.364861
0.361904
0.359301
0.357053
0.355037
0.353281
0.351681
0.350279
0.348983
0.347846
0.346781
0.345846
0.344958
0.344181
0.343437
0.342785
0.34215
0.341601
0.341063
0.3406
0.340135
0.339743
0.339348
0.339011
0.338667
0.338381
0.338081
0.337841
0.337589
0.337382
0.337157
0.336985
0.336799
0.336647
0.336479
0.336364
0.336225
0.336103
0.335994
0.335902
0.335835
0.335729
0.335652
0.335611
0.335527
0.33551
0.335495
0.335455
0.335473
0.33547
0.335508
0.335526
0.335574
0.335643
0.335643
0.335724
0.335761
0.33586
0.335905
0.336023
0.33608
0.336216
0.336286
0.336439
0.336517
0.336693
0.336788
0.336994
0.337108
0.337351
0.337486
0.337771
0.337929
0.338266
0.338451
0.338868
0.339072
0.339705
0.339899
0.344442
3.23185
536.719
0.757551
0.635286
0.5547
0.501896
0.466176
0.441042
0.422625
0.408725
0.3979
0.389324
0.382352
0.376637
0.371839
0.367808
0.364335
0.36137
0.35876
0.356504
0.354483
0.352721
0.351117
0.349711
0.348411
0.34727
0.346202
0.345264
0.344374
0.343594
0.342848
0.342194
0.341557
0.341007
0.340466
0.340002
0.339535
0.339142
0.338745
0.338408
0.338062
0.337774
0.337474
0.337233
0.336979
0.336772
0.336546
0.336373
0.336186
0.336033
0.335865
0.335749
0.335609
0.335487
0.335377
0.335285
0.335217
0.335111
0.335033
0.334992
0.334907
0.334889
0.334874
0.334833
0.33485
0.334846
0.334884
0.3349
0.334949
0.335017
0.335017
0.335097
0.335133
0.335232
0.335276
0.335394
0.335449
0.335585
0.335654
0.335806
0.335885
0.336059
0.336154
0.336359
0.336472
0.336714
0.336848
0.337132
0.337289
0.337624
0.337809
0.338224
0.338426
0.339059
0.339249
0.343867
3.29456
536.825
0.757569
0.635262
0.554584
0.501683
0.465881
0.440682
0.422213
0.408272
0.397414
0.388812
0.381818
0.376085
0.371271
0.367228
0.363744
0.360768
0.35815
0.355887
0.353859
0.352091
0.350482
0.349071
0.347767
0.346622
0.345551
0.344609
0.343716
0.342933
0.342184
0.341528
0.340889
0.340337
0.339794
0.339328
0.33886
0.338465
0.338067
0.337728
0.33738
0.337092
0.33679
0.336548
0.336293
0.336085
0.335857
0.335684
0.335496
0.335343
0.335173
0.335056
0.334916
0.334793
0.334683
0.334589
0.334521
0.334414
0.334336
0.334294
0.334209
0.33419
0.334174
0.334132
0.334148
0.334144
0.334181
0.334196
0.334245
0.334311
0.334311
0.33439
0.334426
0.334524
0.334567
0.334684
0.33474
0.334874
0.334943
0.335094
0.335172
0.335345
0.335439
0.335643
0.335756
0.335996
0.33613
0.336412
0.336568
0.336902
0.337085
0.337499
0.3377
0.33833
0.338519
0.34322
3.36646
537.377
0.757589
0.635236
0.554456
0.501448
0.465554
0.440281
0.421755
0.407768
0.396874
0.388242
0.381223
0.37547
0.37064
0.366582
0.363085
0.360099
0.357471
0.3552
0.353165
0.35139
0.349775
0.348359
0.34705
0.345901
0.344825
0.34388
0.342984
0.342198
0.341446
0.340787
0.340146
0.339591
0.339046
0.338578
0.338108
0.337711
0.337311
0.33697
0.336622
0.336332
0.336029
0.335785
0.335529
0.33532
0.335091
0.334917
0.334727
0.334573
0.334403
0.334285
0.334144
0.33402
0.333909
0.333815
0.333746
0.333639
0.333559
0.333517
0.333432
0.333412
0.333395
0.333352
0.333367
0.333362
0.333398
0.333412
0.33346
0.333525
0.333525
0.333604
0.333639
0.333736
0.333778
0.333895
0.333949
0.334083
0.334151
0.334302
0.334379
0.334551
0.334644
0.334847
0.334958
0.335197
0.33533
0.335611
0.335766
0.336098
0.33628
0.336691
0.336891
0.33752
0.337705
0.342502
3.44792
538.244
0.757611
0.635208
0.554316
0.501189
0.465194
0.43984
0.42125
0.407213
0.396279
0.387615
0.380569
0.374793
0.369944
0.36587
0.362359
0.359361
0.356723
0.354442
0.352399
0.350617
0.348995
0.347574
0.346259
0.345105
0.344025
0.343076
0.342176
0.341386
0.340631
0.33997
0.339325
0.338768
0.338221
0.33775
0.337278
0.33688
0.336477
0.336135
0.335785
0.335493
0.335189
0.334943
0.334686
0.334476
0.334246
0.33407
0.33388
0.333725
0.333553
0.333435
0.333293
0.333168
0.333056
0.332961
0.332891
0.332784
0.332703
0.33266
0.332574
0.332553
0.332536
0.332492
0.332506
0.3325
0.332535
0.332548
0.332595
0.332658
0.332658
0.332736
0.33277
0.332867
0.332908
0.333024
0.333077
0.33321
0.333278
0.333427
0.333503
0.333674
0.333767
0.333968
0.334079
0.334316
0.334448
0.334727
0.334881
0.335211
0.335392
0.335801
0.335999
0.336625
0.336807
0.34171
3.53921
539.284
0.757634
0.635178
0.554164
0.500908
0.464802
0.43936
0.420699
0.406607
0.395629
0.386928
0.379853
0.374052
0.369182
0.365091
0.361565
0.358554
0.355904
0.353613
0.351561
0.349771
0.348142
0.346714
0.345393
0.344234
0.34315
0.342196
0.341292
0.340498
0.33974
0.339075
0.338428
0.337867
0.337318
0.336845
0.33637
0.33597
0.335565
0.335221
0.334869
0.334576
0.33427
0.334023
0.333764
0.333552
0.333321
0.333144
0.332952
0.332796
0.332623
0.332504
0.332361
0.332235
0.332122
0.332026
0.331955
0.331848
0.331766
0.331722
0.331636
0.331614
0.331595
0.331551
0.331563
0.331556
0.33159
0.331601
0.331649
0.331709
0.331709
0.331787
0.331819
0.331915
0.331956
0.33207
0.332123
0.332255
0.332322
0.33247
0.332545
0.332715
0.332807
0.333006
0.333116
0.333352
0.333482
0.333759
0.333913
0.33424
0.33442
0.334826
0.335022
0.335646
0.335825
0.340846
3.64056
540.353
0.75766
0.635147
0.554
0.500603
0.464377
0.438838
0.420102
0.405949
0.394923
0.386183
0.379075
0.373248
0.368355
0.364244
0.360702
0.357676
0.355014
0.352712
0.35065
0.348852
0.347215
0.34578
0.344453
0.343288
0.342198
0.341239
0.340331
0.339533
0.338771
0.338102
0.337452
0.336889
0.336336
0.33586
0.335383
0.33498
0.334574
0.334228
0.333873
0.333578
0.33327
0.333022
0.332761
0.332548
0.332315
0.332137
0.331944
0.331787
0.331612
0.331491
0.331348
0.331221
0.331107
0.33101
0.330937
0.33083
0.330747
0.330702
0.330615
0.330592
0.330573
0.330527
0.330538
0.33053
0.330563
0.330572
0.330619
0.330678
0.330678
0.330754
0.330785
0.33088
0.33092
0.331034
0.331086
0.331216
0.331282
0.331429
0.331504
0.331672
0.331763
0.33196
0.332069
0.332303
0.332433
0.332707
0.33286
0.333184
0.333363
0.333766
0.333961
0.334582
0.334758
0.339908
3.75207
541.316
0.757688
0.635113
0.553824
0.500276
0.46392
0.438277
0.419458
0.40524
0.394161
0.385378
0.378235
0.372379
0.367462
0.36333
0.35977
0.356728
0.354052
0.351739
0.349666
0.347858
0.346213
0.34477
0.343436
0.342265
0.341169
0.340206
0.339292
0.33849
0.337723
0.337051
0.336397
0.33583
0.335275
0.334796
0.334316
0.333911
0.333502
0.333153
0.332797
0.3325
0.33219
0.331939
0.331677
0.331462
0.331228
0.331048
0.330853
0.330695
0.330519
0.330397
0.330252
0.330125
0.330009
0.329911
0.329837
0.32973
0.329645
0.3296
0.329512
0.329487
0.329467
0.329421
0.329429
0.32942
0.329452
0.32946
0.329506
0.329563
0.329563
0.329638
0.329668
0.329762
0.3298
0.329913
0.329964
0.330093
0.330158
0.330304
0.330378
0.330544
0.330634
0.33083
0.330938
0.331169
0.331298
0.33157
0.331721
0.332043
0.33222
0.332621
0.332813
0.333432
0.333604
0.338895
3.87374
542.045
0.757717
0.635078
0.553637
0.499927
0.463431
0.437675
0.418767
0.404478
0.393342
0.384514
0.377333
0.371445
0.366502
0.362347
0.358767
0.355709
0.353019
0.350692
0.348608
0.34679
0.345135
0.343684
0.342343
0.341165
0.340063
0.339094
0.338174
0.337368
0.336597
0.335921
0.335263
0.334692
0.334133
0.333652
0.333169
0.33276
0.332349
0.331998
0.331639
0.33134
0.331028
0.330775
0.330511
0.330295
0.330058
0.329877
0.329681
0.329521
0.329344
0.32922
0.329074
0.328946
0.328829
0.328729
0.328654
0.328546
0.32846
0.328414
0.328326
0.328299
0.328278
0.32823
0.328237
0.328227
0.328257
0.328263
0.328309
0.328363
0.328363
0.328437
0.328466
0.328559
0.328596
0.328707
0.328758
0.328885
0.32895
0.329093
0.329167
0.329331
0.32942
0.329614
0.329721
0.32995
0.330077
0.330347
0.330497
0.330816
0.330991
0.331388
0.331579
0.332195
0.332363
0.337806
4.0054
542.423
0.757749
0.635041
0.553439
0.499555
0.462909
0.437032
0.418029
0.403664
0.392468
0.38359
0.376368
0.370447
0.365474
0.361296
0.357695
0.354619
0.351912
0.349572
0.347475
0.345646
0.343981
0.342521
0.341172
0.339987
0.338878
0.337903
0.336978
0.336167
0.335391
0.33471
0.334048
0.333474
0.332911
0.332426
0.33194
0.331529
0.331114
0.330761
0.330399
0.330098
0.329783
0.329529
0.329262
0.329044
0.328806
0.328623
0.328425
0.328264
0.328085
0.32796
0.327812
0.327683
0.327564
0.327463
0.327387
0.327279
0.327191
0.327144
0.327055
0.327026
0.327005
0.326956
0.326961
0.326949
0.326977
0.326982
0.327027
0.327079
0.327078
0.327151
0.327178
0.327271
0.327306
0.327416
0.327466
0.327592
0.327655
0.327797
0.327869
0.328032
0.32812
0.328312
0.328417
0.328644
0.32877
0.329037
0.329185
0.329502
0.329675
0.330069
0.330257
0.330871
0.331035
0.336641
4.14673
542.35
0.757782
0.635003
0.55323
0.499162
0.462356
0.43635
0.417244
0.402798
0.391536
0.382605
0.375341
0.369382
0.364379
0.360175
0.356551
0.353456
0.350732
0.348377
0.346267
0.344426
0.342751
0.341282
0.339924
0.338731
0.337615
0.336633
0.335702
0.334885
0.334104
0.333419
0.332752
0.332174
0.331607
0.331119
0.330629
0.330215
0.329797
0.329441
0.329077
0.328773
0.328456
0.328199
0.32793
0.32771
0.32747
0.327285
0.327085
0.326923
0.326742
0.326615
0.326466
0.326336
0.326216
0.326113
0.326035
0.325927
0.325837
0.325789
0.325699
0.325669
0.325646
0.325596
0.325599
0.325586
0.325612
0.325615
0.32566
0.325708
0.325708
0.32578
0.325805
0.325896
0.325931
0.326039
0.326087
0.326212
0.326274
0.326415
0.326486
0.326646
0.326733
0.326922
0.327027
0.327251
0.327376
0.32764
0.327787
0.3281
0.328271
0.328662
0.328847
0.329458
0.329618
0.335398
4.29719
541.739
0.757818
0.634964
0.553011
0.498747
0.461771
0.435627
0.416413
0.40188
0.390548
0.381561
0.374249
0.368252
0.363217
0.358984
0.355337
0.352221
0.349479
0.347108
0.344984
0.34313
0.341444
0.339965
0.338597
0.337396
0.336272
0.335284
0.334347
0.333524
0.332737
0.332047
0.331375
0.330793
0.330222
0.32973
0.329236
0.328818
0.328397
0.328039
0.327671
0.327365
0.327045
0.326786
0.326515
0.326293
0.32605
0.325863
0.325661
0.325497
0.325315
0.325186
0.325036
0.324904
0.324782
0.324678
0.324599
0.32449
0.324398
0.324349
0.324258
0.324226
0.324202
0.324151
0.324152
0.324137
0.324161
0.324162
0.324206
0.324252
0.324252
0.324322
0.324345
0.324435
0.324468
0.324575
0.324622
0.324745
0.324806
0.324945
0.325015
0.325173
0.325259
0.325446
0.325549
0.325771
0.325894
0.326155
0.3263
0.32661
0.326779
0.327166
0.327348
0.327956
0.328112
0.334076
4.45604
540.51
0.757855
0.634924
0.552781
0.498311
0.461154
0.434865
0.415534
0.400909
0.389504
0.380456
0.373095
0.367057
0.361986
0.357724
0.354051
0.350913
0.348152
0.345764
0.343625
0.341758
0.34006
0.338569
0.337192
0.335982
0.33485
0.333855
0.332911
0.332081
0.331289
0.330593
0.329917
0.32933
0.328754
0.328258
0.327761
0.327339
0.326914
0.326553
0.326182
0.325873
0.325551
0.325289
0.325015
0.324791
0.324546
0.324357
0.324153
0.323987
0.323802
0.323672
0.32352
0.323387
0.323263
0.323158
0.323076
0.322967
0.322874
0.322823
0.322731
0.322697
0.322672
0.322621
0.322619
0.322601
0.322623
0.322623
0.322666
0.322708
0.322708
0.322777
0.322799
0.322887
0.322919
0.323024
0.32307
0.323191
0.323251
0.323388
0.323456
0.323613
0.323697
0.323881
0.323983
0.324202
0.324323
0.324581
0.324724
0.325031
0.325198
0.325581
0.325761
0.326365
0.326517
0.332675
4.62226
538.609
0.757894
0.634883
0.552542
0.497853
0.460507
0.434063
0.41461
0.399887
0.388403
0.379291
0.371877
0.365795
0.360687
0.356394
0.352694
0.349532
0.346751
0.344345
0.342189
0.340309
0.338598
0.337096
0.335709
0.334489
0.333349
0.332345
0.331394
0.330558
0.329759
0.329058
0.328376
0.327784
0.327203
0.326703
0.326202
0.325776
0.325348
0.324983
0.324609
0.324297
0.323972
0.323707
0.32343
0.323204
0.322957
0.322765
0.322559
0.322391
0.322205
0.322072
0.321919
0.321784
0.321659
0.321551
0.321468
0.321358
0.321263
0.321211
0.321118
0.321082
0.321055
0.321003
0.320999
0.320979
0.320998
0.320997
0.321039
0.321078
0.321078
0.321145
0.321164
0.321252
0.321282
0.321385
0.321429
0.321549
0.321607
0.321742
0.32181
0.321964
0.322046
0.322228
0.322328
0.322544
0.322664
0.322919
0.32306
0.323363
0.323528
0.323906
0.324083
0.324684
0.324833
0.331193
4.79456
535.988
0.757935
0.634841
0.552293
0.497376
0.459829
0.433222
0.413639
0.398813
0.387245
0.378066
0.370596
0.364467
0.359321
0.354994
0.351266
0.348079
0.345276
0.342851
0.340678
0.338783
0.337058
0.335544
0.334146
0.332916
0.331767
0.330755
0.329796
0.328953
0.328147
0.32744
0.326753
0.326156
0.32557
0.325065
0.324559
0.32413
0.323698
0.323329
0.322952
0.322637
0.322308
0.322041
0.321761
0.321532
0.321282
0.321088
0.32088
0.32071
0.320521
0.320386
0.320232
0.320095
0.319968
0.319859
0.319773
0.319663
0.319566
0.319512
0.319419
0.31938
0.319352
0.319299
0.319292
0.31927
0.319287
0.319283
0.319325
0.31936
0.31936
0.319425
0.319443
0.319528
0.319557
0.319659
0.319701
0.319818
0.319876
0.320009
0.320074
0.320226
0.320307
0.320487
0.320585
0.320798
0.320916
0.321167
0.321306
0.321605
0.321768
0.322142
0.322316
0.322914
0.323058
0.329628
4.97136
532.613
0.757977
0.6348
0.552034
0.496879
0.459121
0.432342
0.412622
0.397687
0.386032
0.376781
0.369252
0.363074
0.357886
0.353524
0.349765
0.346552
0.343726
0.341281
0.339091
0.337179
0.33544
0.333914
0.332504
0.331264
0.330104
0.329084
0.328117
0.327266
0.326454
0.32574
0.325047
0.324444
0.323853
0.323344
0.322833
0.3224
0.321963
0.321591
0.32121
0.320892
0.32056
0.320289
0.320006
0.319775
0.319523
0.319326
0.319115
0.318943
0.318752
0.318615
0.318458
0.31832
0.318191
0.31808
0.317992
0.317881
0.317782
0.317727
0.317632
0.317591
0.317561
0.317507
0.317498
0.317474
0.317488
0.317483
0.317523
0.317555
0.317554
0.317617
0.317633
0.317717
0.317743
0.317844
0.317885
0.318
0.318055
0.318186
0.318251
0.3184
0.31848
0.318656
0.318753
0.318962
0.319078
0.319326
0.319463
0.319758
0.319919
0.320288
0.320459
0.321053
0.321193
0.327978
5.15072
528.457
0.758022
0.634757
0.551768
0.496362
0.458383
0.431425
0.411561
0.39651
0.384762
0.375435
0.367845
0.361615
0.356383
0.351984
0.348193
0.344953
0.342102
0.339636
0.337427
0.335498
0.333744
0.332204
0.330782
0.329531
0.328362
0.327332
0.326356
0.325498
0.324678
0.323958
0.323258
0.32265
0.322054
0.321539
0.321024
0.320586
0.320145
0.319769
0.319384
0.319062
0.318726
0.318453
0.318166
0.317932
0.317677
0.317478
0.317264
0.31709
0.316897
0.316757
0.316598
0.316458
0.316327
0.316214
0.316124
0.316013
0.315911
0.315855
0.315758
0.315715
0.315684
0.315629
0.315617
0.315591
0.315602
0.315594
0.315633
0.315661
0.31566
0.315721
0.315735
0.315817
0.315842
0.31594
0.31598
0.316092
0.316147
0.316275
0.316338
0.316485
0.316563
0.316736
0.316831
0.317037
0.317151
0.317395
0.31753
0.317821
0.317979
0.318344
0.318511
0.319101
0.319237
0.326244
5.33041
523.499
0.758068
0.634715
0.551493
0.495827
0.457617
0.430469
0.410454
0.395283
0.383437
0.374031
0.366375
0.360091
0.354812
0.350374
0.34655
0.34328
0.340405
0.337916
0.335687
0.333741
0.331971
0.330417
0.328982
0.327719
0.326539
0.325499
0.324515
0.323648
0.322821
0.322094
0.321387
0.320773
0.32017
0.31965
0.31913
0.318687
0.318242
0.317862
0.317472
0.317147
0.316808
0.316531
0.316241
0.316004
0.315746
0.315544
0.315327
0.315151
0.314955
0.314813
0.314652
0.31451
0.314377
0.314262
0.31417
0.314057
0.313953
0.313895
0.313798
0.313751
0.313719
0.313662
0.313649
0.31362
0.313628
0.313618
0.313655
0.31368
0.313679
0.313737
0.313749
0.313829
0.313852
0.313948
0.313986
0.314097
0.314149
0.314275
0.314337
0.31448
0.314557
0.314727
0.31482
0.315022
0.315135
0.315374
0.315508
0.315794
0.31595
0.316309
0.316473
0.317059
0.317192
0.324421
5.50784
517.722
0.758115
0.634673
0.551211
0.495274
0.456823
0.429477
0.409303
0.394005
0.382057
0.372568
0.364843
0.358501
0.353174
0.348695
0.344836
0.341535
0.338633
0.33612
0.33387
0.331906
0.330119
0.328551
0.327102
0.325827
0.324636
0.323586
0.322592
0.321717
0.320881
0.320147
0.319433
0.318813
0.318204
0.317678
0.317153
0.316705
0.316255
0.31587
0.315477
0.315148
0.314804
0.314524
0.314231
0.313991
0.313729
0.313524
0.313304
0.313126
0.312928
0.312783
0.31262
0.312476
0.31234
0.312223
0.312128
0.312015
0.311908
0.311848
0.31175
0.311701
0.311666
0.311609
0.311593
0.311562
0.311567
0.311555
0.31159
0.311611
0.311609
0.311665
0.311675
0.311753
0.311774
0.311868
0.311904
0.312012
0.312063
0.312186
0.312246
0.312387
0.312462
0.312628
0.31272
0.312918
0.313029
0.313264
0.313395
0.313676
0.31383
0.314184
0.314345
0.314927
0.315055
0.322509
5.68007
511.11
0.758164
0.634632
0.550921
0.494703
0.456001
0.428449
0.408109
0.392678
0.380623
0.371046
0.363249
0.356847
0.351469
0.346947
0.34305
0.339718
0.336787
0.33425
0.331978
0.329995
0.328191
0.326606
0.325143
0.323856
0.322652
0.321592
0.320588
0.319704
0.31886
0.318118
0.317397
0.31677
0.316155
0.315623
0.315092
0.314639
0.314183
0.313795
0.313397
0.313064
0.312716
0.312432
0.312135
0.311892
0.311627
0.311419
0.311196
0.311015
0.310814
0.310666
0.310501
0.310355
0.310217
0.310097
0.31
0.309886
0.309777
0.309715
0.309615
0.309563
0.309527
0.309468
0.309449
0.309417
0.309419
0.309403
0.309436
0.309455
0.309452
0.309505
0.309512
0.309589
0.309607
0.309699
0.309733
0.309839
0.309888
0.310009
0.310067
0.310204
0.310277
0.310441
0.31053
0.310725
0.310833
0.311064
0.311193
0.311469
0.31162
0.311969
0.312126
0.312704
0.312829
0.320505
5.84389
503.647
0.758215
0.634591
0.550626
0.494116
0.455153
0.427385
0.406872
0.391302
0.379134
0.369466
0.361593
0.355128
0.349698
0.34513
0.341195
0.337829
0.334869
0.332306
0.330011
0.328007
0.326185
0.324584
0.323106
0.321805
0.320589
0.319518
0.318503
0.31761
0.316757
0.316007
0.315278
0.314644
0.314022
0.313485
0.312948
0.312489
0.312029
0.311635
0.311232
0.310895
0.310544
0.310255
0.309954
0.309708
0.30944
0.309229
0.309002
0.308819
0.308615
0.308464
0.308296
0.308149
0.308007
0.307885
0.307785
0.307671
0.307559
0.307495
0.307394
0.307339
0.3073
0.30724
0.307219
0.307185
0.307183
0.307165
0.307196
0.307211
0.307206
0.307257
0.307262
0.307336
0.307352
0.307442
0.307474
0.307577
0.307624
0.307742
0.307799
0.307933
0.308005
0.308164
0.308252
0.308442
0.308548
0.308775
0.308901
0.309173
0.309321
0.309665
0.309818
0.31039
0.310512
0.318407
5.99576
495.311
0.758267
0.634551
0.550324
0.493514
0.454279
0.426287
0.405593
0.389878
0.377593
0.367829
0.359877
0.353346
0.34786
0.343245
0.339269
0.335868
0.332877
0.330287
0.327969
0.325943
0.324102
0.322484
0.320991
0.319676
0.318447
0.317364
0.316339
0.315435
0.314573
0.313815
0.313078
0.312436
0.311808
0.311264
0.310721
0.310256
0.30979
0.309392
0.308984
0.308642
0.308286
0.307994
0.307689
0.307439
0.307168
0.306953
0.306723
0.306537
0.30633
0.306176
0.306006
0.305856
0.305712
0.305588
0.305485
0.305369
0.305254
0.305188
0.305085
0.305028
0.304987
0.304925
0.304902
0.304865
0.304861
0.304839
0.304868
0.30488
0.304874
0.304921
0.304925
0.304996
0.30501
0.305097
0.305127
0.305228
0.305272
0.305388
0.305442
0.305574
0.305643
0.305799
0.305885
0.306071
0.306175
0.306397
0.306521
0.306787
0.306932
0.30727
0.30742
0.307987
0.308106
0.316213
6.13193
486.078
0.75832
0.634512
0.550017
0.492896
0.453381
0.425155
0.404274
0.388407
0.376
0.366136
0.358101
0.351502
0.345958
0.341293
0.337274
0.333836
0.330813
0.328195
0.325852
0.323804
0.321943
0.320307
0.318798
0.317468
0.316226
0.315131
0.314094
0.313181
0.312308
0.311541
0.310796
0.310147
0.309511
0.308961
0.308411
0.307941
0.307469
0.307065
0.306652
0.306306
0.305946
0.305649
0.30534
0.305086
0.304811
0.304593
0.304359
0.30417
0.30396
0.303803
0.30363
0.303478
0.303331
0.303204
0.303098
0.302982
0.302864
0.302796
0.302691
0.302631
0.302587
0.302524
0.302498
0.30246
0.302452
0.302427
0.302453
0.302462
0.302455
0.302498
0.3025
0.302568
0.30258
0.302665
0.302692
0.30279
0.302833
0.302946
0.302998
0.303126
0.303193
0.303346
0.303429
0.303611
0.303713
0.30393
0.304051
0.304312
0.304454
0.304787
0.304932
0.305495
0.30561
0.31392
6.2485
475.92
0.758374
0.634475
0.549705
0.492265
0.452459
0.423991
0.402914
0.38689
0.374356
0.364387
0.356267
0.349595
0.34399
0.339274
0.335211
0.331735
0.328678
0.326031
0.323661
0.32159
0.319708
0.318054
0.316527
0.315183
0.313927
0.312819
0.31177
0.310846
0.309963
0.309187
0.308434
0.307777
0.307133
0.306576
0.306019
0.305543
0.305065
0.304656
0.304238
0.303887
0.303522
0.303221
0.302907
0.302649
0.30237
0.302149
0.301912
0.301719
0.301506
0.301346
0.30117
0.301015
0.300865
0.300736
0.300627
0.300509
0.300389
0.300318
0.300212
0.300148
0.300102
0.300038
0.300008
0.299968
0.299958
0.299929
0.299952
0.299958
0.299949
0.299988
0.299989
0.300054
0.300064
0.300146
0.300171
0.300266
0.300307
0.300416
0.300466
0.300592
0.300656
0.300805
0.300886
0.301064
0.301163
0.301375
0.301494
0.301749
0.301888
0.302215
0.302356
0.302914
0.303026
0.311526
6.34146
464.807
0.75843
0.634439
0.54939
0.491621
0.451514
0.422796
0.401516
0.385328
0.372661
0.362584
0.354374
0.347627
0.341959
0.33719
0.333081
0.329564
0.326473
0.323794
0.321398
0.319303
0.317399
0.315725
0.314181
0.31282
0.31155
0.310428
0.309368
0.308433
0.307539
0.306754
0.305991
0.305326
0.304674
0.30411
0.303546
0.303064
0.302579
0.302165
0.301741
0.301385
0.301015
0.30071
0.300391
0.30013
0.299846
0.299621
0.29938
0.299185
0.298968
0.298804
0.298625
0.298468
0.298316
0.298183
0.298071
0.297952
0.297829
0.297755
0.297647
0.297581
0.297532
0.297466
0.297433
0.297391
0.297378
0.297346
0.297365
0.297369
0.297358
0.297393
0.297393
0.297454
0.297462
0.297541
0.297563
0.297656
0.297694
0.2978
0.297848
0.29797
0.298032
0.298177
0.298256
0.298429
0.298525
0.298733
0.298849
0.299099
0.299235
0.299555
0.299692
0.300244
0.300353
0.309028
6.40686
452.704
0.758486
0.634405
0.549071
0.490964
0.450548
0.421571
0.400081
0.383722
0.370918
0.360727
0.352424
0.3456
0.339866
0.33504
0.330883
0.327325
0.324197
0.321487
0.319062
0.316942
0.315015
0.313322
0.311759
0.310382
0.309096
0.307961
0.306888
0.305941
0.305037
0.304242
0.30347
0.302796
0.302136
0.301564
0.300993
0.300504
0.300013
0.299593
0.299163
0.298802
0.298427
0.298117
0.297793
0.297528
0.29724
0.297011
0.296766
0.296567
0.296347
0.29618
0.295998
0.295838
0.295682
0.295547
0.295431
0.295311
0.295185
0.295108
0.294999
0.294929
0.294877
0.29481
0.294774
0.29473
0.294714
0.294678
0.294693
0.294695
0.294682
0.294712
0.294711
0.294768
0.294774
0.29485
0.29487
0.29496
0.294995
0.295099
0.295144
0.295262
0.295322
0.295463
0.295539
0.295708
0.295802
0.296004
0.296117
0.296361
0.296494
0.296808
0.296941
0.297487
0.297593
0.306424
6.44081
439.581
0.758544
0.634372
0.54875
0.490298
0.449563
0.420317
0.398609
0.382074
0.369126
0.358819
0.350419
0.343513
0.337711
0.332827
0.32862
0.325019
0.321853
0.31911
0.316655
0.314509