/*--------------------------------*- C++ -*----------------------------------*\
| =========                 |                                                 |
| \\      /  F ield         | OpenFOAM: The Open Source CFD Toolbox           |
|  \\    /   O peration     | Version:  v2012                                 |
|   \\  /    A nd           | Website:  www.openfoam.com                      |
|    \\/     M anipulation  |                                                 |
\*---------------------------------------------------------------------------*/
FoamFile
{
    version     2.0;
    format      ascii;
    class       volScalarField;
    location    "39.5";
    object      k;
}
// * * * * * * * * * * * * * * * * * * * * * * * * * * * * * * * * * * * * * //

dimensions      [0 2 -2 0 0 0 0];


internalField   nonuniform List<scalar> 
209825
(
0.00102465
0.000932252
0.000853838
0.000788363
0.000734606
0.000690943
0.000655265
0.000625997
0.000601585
0.000581134
0.000563673
0.000548764
0.000535769
0.000524515
0.000514527
0.000505783
0.000497905
0.000490958
0.000484614
0.000478993
0.000473793
0.000469174
0.000464852
0.000461005
0.000457366
0.000454128
0.000451036
0.000448286
0.000445629
0.000443281
0.000440986
0.000438963
0.000436964
0.000435216
0.000433467
0.000431952
0.000430417
0.000429097
0.000427741
0.000426586
0.000425382
0.00042437
0.000423298
0.000422412
0.000421456
0.000420675
0.000419822
0.000419132
0.000418368
0.000417763
0.000417079
0.000416545
0.000415934
0.000415467
0.00041492
0.000414506
0.000414019
0.00041366
0.00041322
0.000412907
0.000412515
0.000412244
0.000411886
0.00041166
0.000411342
0.000411143
0.000410857
0.000410684
0.000410433
0.000410282
0.00041006
0.00040992
0.000409729
0.000409609
0.000409438
0.000409337
0.00040919
0.00040911
0.000408987
0.00040893
0.000408829
0.000408795
0.000408719
0.000408729
0.000408718
0.000408783
0.000408787
0.000408884
0.000408916
0.000409057
0.000409089
0.000409332
0.000409349
0.00041352
0.0106441
0.0117518
0.00102465
0.000932252
0.000853839
0.000788364
0.000734606
0.000690942
0.000655263
0.000625993
0.000601581
0.000581128
0.000563667
0.000548757
0.000535761
0.000524506
0.000514517
0.000505773
0.000497895
0.000490947
0.000484603
0.000478981
0.000473781
0.000469162
0.00046484
0.000460992
0.000457353
0.000454114
0.000451022
0.000448272
0.000445615
0.000443267
0.000440971
0.000438948
0.000436949
0.000435201
0.000433451
0.000431937
0.000430402
0.000429082
0.000427725
0.00042657
0.000425366
0.000424354
0.000423282
0.000422396
0.00042144
0.000420659
0.000419805
0.000419116
0.000418352
0.000417747
0.000417062
0.000416528
0.000415918
0.00041545
0.000414903
0.000414489
0.000414002
0.000413643
0.000413203
0.00041289
0.000412498
0.000412227
0.000411869
0.000411643
0.000411325
0.000411125
0.00041084
0.000410667
0.000410415
0.000410264
0.000410042
0.000409903
0.000409711
0.000409592
0.000409421
0.000409319
0.000409172
0.000409093
0.000408969
0.000408912
0.000408811
0.000408777
0.000408701
0.000408711
0.000408701
0.000408765
0.000408769
0.000408866
0.000408898
0.000409039
0.000409071
0.000409314
0.000409331
0.000413508
0.0106544
0.011764
0.00102465
0.000932253
0.000853841
0.000788365
0.000734603
0.000690935
0.000655251
0.000625976
0.000601559
0.000581102
0.000563637
0.000548724
0.000535724
0.000524467
0.000514476
0.000505729
0.000497849
0.000490899
0.000484553
0.00047893
0.000473729
0.000469109
0.000464785
0.000460936
0.000457296
0.000454056
0.000450963
0.000448213
0.000445555
0.000443206
0.00044091
0.000438886
0.000436886
0.000435138
0.000433388
0.000431873
0.000430337
0.000429017
0.00042766
0.000426504
0.0004253
0.000424288
0.000423215
0.000422329
0.000421372
0.000420591
0.000419737
0.000419048
0.000418283
0.000417678
0.000416993
0.000416459
0.000415848
0.000415381
0.000414833
0.000414419
0.000413932
0.000413573
0.000413132
0.000412819
0.000412427
0.000412156
0.000411798
0.000411572
0.000411253
0.000411054
0.000410768
0.000410595
0.000410343
0.000410192
0.00040997
0.000409831
0.000409639
0.000409519
0.000409348
0.000409247
0.000409099
0.00040902
0.000408896
0.000408839
0.000408738
0.000408704
0.000408628
0.000408637
0.000408626
0.00040869
0.000408694
0.000408791
0.000408823
0.000408963
0.000408996
0.000409238
0.000409255
0.000413444
0.0106768
0.0117893
0.00102465
0.000932255
0.000853845
0.000788367
0.000734599
0.000690922
0.00065523
0.000625947
0.000601522
0.000581058
0.000563586
0.000548667
0.000535663
0.000524401
0.000514405
0.000505655
0.000497771
0.000490819
0.00048447
0.000478844
0.000473641
0.000469018
0.000464693
0.000460842
0.0004572
0.000453959
0.000450865
0.000448113
0.000445454
0.000443104
0.000440806
0.000438782
0.000436781
0.000435031
0.000433281
0.000431765
0.000430229
0.000428907
0.00042755
0.000426394
0.000425188
0.000424176
0.000423103
0.000422216
0.000421259
0.000420477
0.000419623
0.000418933
0.000418168
0.000417562
0.000416877
0.000416343
0.000415731
0.000415264
0.000414716
0.000414301
0.000413813
0.000413455
0.000413013
0.0004127
0.000412308
0.000412037
0.000411678
0.000411452
0.000411133
0.000410933
0.000410647
0.000410474
0.000410222
0.000410071
0.000409849
0.000409709
0.000409517
0.000409397
0.000409226
0.000409124
0.000408976
0.000408897
0.000408773
0.000408716
0.000408615
0.00040858
0.000408504
0.000408512
0.000408502
0.000408565
0.000408568
0.000408665
0.000408697
0.000408837
0.000408869
0.000409111
0.000409127
0.000413335
0.010712
0.0118288
0.00102465
0.000932258
0.000853851
0.000788369
0.000734593
0.000690905
0.0006552
0.000625905
0.000601469
0.000580995
0.000563514
0.000548587
0.000535575
0.000524307
0.000514306
0.000505551
0.000497662
0.000490705
0.000484353
0.000478723
0.000473517
0.000468891
0.000464563
0.00046071
0.000457065
0.000453822
0.000450725
0.000447972
0.000445311
0.000442959
0.00044066
0.000438635
0.000436632
0.000434881
0.000433129
0.000431613
0.000430075
0.000428753
0.000427394
0.000426237
0.000425031
0.000424018
0.000422944
0.000422056
0.000421099
0.000420317
0.000419461
0.000418771
0.000418005
0.000417399
0.000416713
0.000416178
0.000415566
0.000415098
0.00041455
0.000414135
0.000413647
0.000413287
0.000412846
0.000412532
0.00041214
0.000411868
0.000411509
0.000411282
0.000410963
0.000410763
0.000410477
0.000410303
0.000410051
0.0004099
0.000409677
0.000409537
0.000409345
0.000409225
0.000409054
0.000408952
0.000408803
0.000408724
0.0004086
0.000408542
0.00040844
0.000408405
0.000408329
0.000408337
0.000408325
0.000408388
0.000408391
0.000408487
0.000408519
0.000408658
0.00040869
0.000408932
0.000408947
0.00041318
0.0107608
0.0118832
0.00102465
0.000932262
0.000853858
0.000788372
0.000734585
0.000690882
0.000655161
0.000625851
0.000601401
0.000580914
0.000563421
0.000548484
0.000535463
0.000524186
0.000514177
0.000505415
0.00049752
0.000490558
0.0004842
0.000478566
0.000473355
0.000468726
0.000464394
0.000460538
0.00045689
0.000453644
0.000450545
0.000447789
0.000445126
0.000442772
0.000440471
0.000438444
0.000436439
0.000434687
0.000432933
0.000431415
0.000429876
0.000428553
0.000427193
0.000426035
0.000424827
0.000423813
0.000422738
0.00042185
0.000420891
0.000420108
0.000419252
0.000418561
0.000417794
0.000417187
0.000416501
0.000415965
0.000415353
0.000414884
0.000414335
0.000413919
0.00041343
0.000413071
0.000412629
0.000412315
0.000411921
0.000411649
0.00041129
0.000411063
0.000410743
0.000410543
0.000410256
0.000410082
0.00040983
0.000409678
0.000409455
0.000409315
0.000409122
0.000409002
0.00040883
0.000408728
0.000408579
0.000408499
0.000408375
0.000408317
0.000408214
0.000408179
0.000408102
0.000408109
0.000408097
0.000408159
0.000408162
0.000408257
0.000408288
0.000408427
0.000408458
0.000408699
0.000408714
0.00041298
0.0108241
0.0119537
0.00102464
0.000932267
0.000853868
0.000788377
0.000734576
0.000690855
0.000655114
0.000625785
0.000601317
0.000580814
0.000563307
0.000548356
0.000535324
0.000524036
0.000514019
0.000505248
0.000497346
0.000490376
0.000484013
0.000478373
0.000473157
0.000468523
0.000464186
0.000460326
0.000456675
0.000453425
0.000450323
0.000447564
0.000444898
0.000442542
0.000440238
0.000438208
0.000436202
0.000434448
0.000432692
0.000431172
0.000429632
0.000428306
0.000426945
0.000425785
0.000424576
0.000423561
0.000422485
0.000421595
0.000420635
0.000419851
0.000418994
0.000418302
0.000417534
0.000416927
0.000416239
0.000415703
0.000415089
0.00041462
0.00041407
0.000413654
0.000413164
0.000412804
0.000412361
0.000412047
0.000411653
0.00041138
0.00041102
0.000410792
0.000410472
0.000410271
0.000409984
0.000409809
0.000409557
0.000409404
0.000409181
0.000409041
0.000408848
0.000408727
0.000408555
0.000408452
0.000408303
0.000408222
0.000408097
0.000408039
0.000407936
0.0004079
0.000407823
0.000407829
0.000407816
0.000407876
0.000407879
0.000407973
0.000408004
0.000408141
0.000408172
0.000408412
0.000408426
0.000412733
0.0109025
0.0120409
0.00102464
0.000932273
0.000853879
0.000788382
0.000734565
0.000690822
0.000655058
0.000625706
0.000601217
0.000580695
0.000563171
0.000548205
0.000535159
0.000523859
0.00051383
0.00050505
0.000497138
0.000490161
0.00048379
0.000478143
0.000472921
0.000468281
0.000463939
0.000460074
0.000456419
0.000453165
0.000450059
0.000447296
0.000444626
0.000442267
0.000439961
0.000437928
0.000435919
0.000434163
0.000432405
0.000430883
0.00042934
0.000428013
0.000426649
0.000425488
0.000424278
0.000423261
0.000422183
0.000421292
0.00042033
0.000419545
0.000418687
0.000417993
0.000417225
0.000416616
0.000415927
0.00041539
0.000414776
0.000414305
0.000413755
0.000413337
0.000412847
0.000412486
0.000412042
0.000411727
0.000411332
0.000411059
0.000410698
0.00041047
0.000410149
0.000409948
0.00040966
0.000409485
0.000409232
0.000409079
0.000408855
0.000408714
0.000408521
0.0004084
0.000408227
0.000408123
0.000407974
0.000407892
0.000407767
0.000407708
0.000407605
0.000407568
0.00040749
0.000407495
0.00040748
0.00040754
0.000407542
0.000407635
0.000407665
0.000407802
0.000407831
0.00040807
0.000408083
0.00041244
0.0109969
0.0121458
0.00102464
0.000932279
0.000853892
0.000788387
0.000734552
0.000690784
0.000654994
0.000625615
0.000601102
0.000580557
0.000563013
0.00054803
0.000534967
0.000523653
0.000513611
0.000504819
0.000496897
0.00048991
0.00048353
0.000477876
0.000472646
0.000468
0.000463652
0.000459781
0.00045612
0.000452862
0.000449751
0.000446984
0.000444311
0.000441948
0.000439638
0.000437603
0.00043559
0.000433831
0.00043207
0.000430546
0.000429
0.000427671
0.000426305
0.000425143
0.00042393
0.000422911
0.000421832
0.000420939
0.000419976
0.000419189
0.000418329
0.000417635
0.000416864
0.000416255
0.000415564
0.000415026
0.000414411
0.000413939
0.000413387
0.000412969
0.000412478
0.000412116
0.000411671
0.000411356
0.00041096
0.000410686
0.000410324
0.000410095
0.000409773
0.000409571
0.000409283
0.000409107
0.000408853
0.0004087
0.000408475
0.000408334
0.00040814
0.000408018
0.000407845
0.000407741
0.000407591
0.000407509
0.000407383
0.000407323
0.000407219
0.000407182
0.000407103
0.000407106
0.00040709
0.000407148
0.000407149
0.000407242
0.000407271
0.000407406
0.000407435
0.000407673
0.000407685
0.000412099
0.0111078
0.0122691
0.00102464
0.000932287
0.000853906
0.000788394
0.000734538
0.000690742
0.000654921
0.000625512
0.000600971
0.000580401
0.000562834
0.00054783
0.000534749
0.000523418
0.000513362
0.000504556
0.000496622
0.000489624
0.000483234
0.000477571
0.000472333
0.000467679
0.000463324
0.000459447
0.00045578
0.000452516
0.0004494
0.000446628
0.00044395
0.000441584
0.00043927
0.000437231
0.000435215
0.000433452
0.000431688
0.000430161
0.000428613
0.000427281
0.000425913
0.000424748
0.000423533
0.000422512
0.00042143
0.000420536
0.000419571
0.000418783
0.000417921
0.000417225
0.000416453
0.000415842
0.00041515
0.000414611
0.000413994
0.000413521
0.000412968
0.000412549
0.000412056
0.000411693
0.000411248
0.000410931
0.000410534
0.000410259
0.000409896
0.000409667
0.000409344
0.000409141
0.000408852
0.000408675
0.000408421
0.000408267
0.000408042
0.0004079
0.000407705
0.000407583
0.000407409
0.000407304
0.000407153
0.00040707
0.000406943
0.000406883
0.000406778
0.00040674
0.00040666
0.000406662
0.000406645
0.0004067
0.000406701
0.000406793
0.00040682
0.000406954
0.000406982
0.000407219
0.000407229
0.000411711
0.0112357
0.0124118
0.00102463
0.000932295
0.000853923
0.000788403
0.000734522
0.000690694
0.000654839
0.000625397
0.000600824
0.000580225
0.000562632
0.000547605
0.000534504
0.000523155
0.000513081
0.000504261
0.000496313
0.000489303
0.000482902
0.000477228
0.000471981
0.000467318
0.000462955
0.000459071
0.000455397
0.000452127
0.000449005
0.000446228
0.000443545
0.000441173
0.000438855
0.000436812
0.000434792
0.000433026
0.000431258
0.000429728
0.000428176
0.000426842
0.000425471
0.000424303
0.000423085
0.000422063
0.000420978
0.000420082
0.000419115
0.000418325
0.000417461
0.000416763
0.000415989
0.000415377
0.000414683
0.000414143
0.000413524
0.00041305
0.000412495
0.000412075
0.000411581
0.000411217
0.00041077
0.000410452
0.000410054
0.000409779
0.000409415
0.000409184
0.00040886
0.000408657
0.000408367
0.000408189
0.000407934
0.000407779
0.000407553
0.00040741
0.000407215
0.000407092
0.000406917
0.000406812
0.00040666
0.000406576
0.000406448
0.000406387
0.000406281
0.000406243
0.000406162
0.000406162
0.000406143
0.000406196
0.000406196
0.000406286
0.000406313
0.000406445
0.000406472
0.000406707
0.000406716
0.000411275
0.011381
0.0125745
0.00102463
0.000932304
0.000853941
0.000788412
0.000734506
0.000690643
0.000654749
0.000625269
0.000600661
0.000580031
0.000562409
0.000547356
0.000534231
0.000522861
0.000512769
0.000503932
0.000495969
0.000488945
0.000482531
0.000476846
0.000471588
0.000466916
0.000462544
0.000458652
0.000454971
0.000451693
0.000448565
0.000445782
0.000443093
0.000440716
0.000438393
0.000436345
0.000434321
0.000432551
0.000430779
0.000429245
0.00042769
0.000426352
0.000424978
0.000423808
0.000422587
0.000421562
0.000420475
0.000419576
0.000418607
0.000417814
0.000416948
0.000416249
0.000415473
0.000414859
0.000414163
0.000413621
0.000413001
0.000412525
0.000411969
0.000411548
0.000411052
0.000410687
0.000410238
0.000409919
0.000409519
0.000409243
0.000408878
0.000408646
0.000408321
0.000408117
0.000407826
0.000407647
0.000407391
0.000407235
0.000407008
0.000406865
0.000406669
0.000406545
0.000406369
0.000406263
0.00040611
0.000406026
0.000405897
0.000405835
0.000405727
0.000405688
0.000405607
0.000405605
0.000405583
0.000405634
0.000405634
0.000405722
0.000405747
0.000405878
0.000405903
0.000406136
0.000406144
0.00041079
0.0115438
0.0127579
0.00102463
0.000932314
0.000853962
0.000788423
0.000734488
0.000690586
0.00065465
0.000625129
0.000600483
0.000579817
0.000562164
0.000547082
0.000533932
0.000522539
0.000512426
0.00050357
0.000495591
0.000488551
0.000482123
0.000476425
0.000471156
0.000466473
0.000462092
0.00045819
0.0004545
0.000451216
0.00044808
0.00044529
0.000442595
0.000440212
0.000437883
0.000435831
0.000433801
0.000432027
0.000430251
0.000428713
0.000427154
0.000425813
0.000424435
0.000423261
0.000422037
0.000421009
0.000419919
0.000419018
0.000418046
0.000417251
0.000416383
0.000415681
0.000414903
0.000414287
0.000413589
0.000413046
0.000412423
0.000411946
0.000411388
0.000410965
0.000410467
0.000410101
0.000409651
0.000409331
0.000408929
0.000408652
0.000408285
0.000408052
0.000407726
0.000407521
0.000407228
0.000407049
0.000406791
0.000406635
0.000406407
0.000406263
0.000406066
0.000405942
0.000405765
0.000405658
0.000405503
0.000405418
0.000405288
0.000405225
0.000405116
0.000405076
0.000404994
0.000404989
0.000404965
0.000405013
0.000405013
0.000405099
0.000405123
0.000405251
0.000405276
0.000405506
0.000405513
0.000410256
0.0117243
0.0129628
0.00102462
0.000932325
0.000853984
0.000788435
0.00073447
0.000690525
0.000654544
0.000624977
0.000600289
0.000579584
0.000561896
0.000546783
0.000533605
0.000522187
0.000512051
0.000503175
0.000495177
0.000488121
0.000481678
0.000475966
0.000470684
0.000465989
0.000461596
0.000457685
0.000453986
0.000450693
0.000447549
0.000444752
0.00044205
0.000439661
0.000437326
0.000435267
0.000433233
0.000431453
0.000429672
0.00042813
0.000426567
0.000425222
0.00042384
0.000422663
0.000421435
0.000420404
0.000419311
0.000418407
0.000417432
0.000416635
0.000415763
0.00041506
0.000414279
0.000413661
0.000412961
0.000412415
0.00041179
0.000411312
0.000410751
0.000410327
0.000409827
0.00040946
0.000409008
0.000408686
0.000408283
0.000408005
0.000407636
0.000407402
0.000407074
0.000406868
0.000406574
0.000406394
0.000406135
0.000405977
0.000405748
0.000405603
0.000405405
0.00040528
0.000405102
0.000404994
0.000404839
0.000404752
0.000404621
0.000404556
0.000404447
0.000404405
0.000404322
0.000404316
0.000404289
0.000404334
0.000404332
0.000404417
0.000404439
0.000404565
0.000404588
0.000404817
0.000404822
0.000409672
0.0119219
0.0131897
0.00102462
0.000932337
0.000854009
0.000788448
0.00073445
0.00069046
0.000654429
0.000624813
0.000600079
0.000579333
0.000561606
0.00054646
0.000533251
0.000521805
0.000511645
0.000502746
0.000494728
0.000487653
0.000481193
0.000475466
0.00047017
0.000465462
0.000461058
0.000457136
0.000453427
0.000450124
0.000446972
0.000444167
0.000441457
0.000439061
0.000436719
0.000434655
0.000432614
0.000430829
0.000429043
0.000427496
0.000425928
0.000424579
0.000423193
0.000422012
0.000420781
0.000419746
0.000418649
0.000417742
0.000416764
0.000415964
0.00041509
0.000414383
0.0004136
0.000412979
0.000412277
0.000411729
0.000411102
0.000410621
0.000410059
0.000409633
0.000409131
0.000408762
0.000408308
0.000407985
0.00040758
0.0004073
0.00040693
0.000406694
0.000406365
0.000406157
0.000405862
0.00040568
0.00040542
0.000405261
0.000405032
0.000404886
0.000404686
0.000404561
0.000404381
0.000404272
0.000404115
0.000404028
0.000403895
0.000403829
0.000403718
0.000403675
0.000403591
0.000403582
0.000403552
0.000403594
0.000403592
0.000403674
0.000403695
0.000403818
0.00040384
0.000404066
0.00040407
0.000409038
0.0121363
0.0134392
0.00102461
0.000932349
0.000854035
0.000788463
0.00073443
0.000690391
0.000654306
0.000624638
0.000599854
0.000579062
0.000561295
0.000546111
0.000532869
0.000521393
0.000511206
0.000502283
0.000494243
0.000487148
0.000480671
0.000474927
0.000469616
0.000464894
0.000460477
0.000456543
0.000452823
0.00044951
0.000446348
0.000443535
0.000440816
0.000438413
0.000436064
0.000433993
0.000431946
0.000430155
0.000428363
0.000426811
0.000425238
0.000423883
0.000422493
0.000421308
0.000420072
0.000419034
0.000417933
0.000417023
0.000416041
0.000415238
0.000414361
0.000413652
0.000412865
0.000412242
0.000411537
0.000410987
0.000410357
0.000409875
0.00040931
0.000408882
0.000408377
0.000408006
0.00040755
0.000407226
0.000406819
0.000406537
0.000406165
0.000405928
0.000405598
0.000405388
0.000405092
0.000404909
0.000404647
0.000404487
0.000404256
0.000404109
0.000403908
0.000403782
0.000403601
0.000403491
0.000403332
0.000403244
0.000403109
0.000403042
0.000402929
0.000402885
0.000402799
0.000402789
0.000402756
0.000402794
0.000402791
0.00040287
0.000402889
0.00040301
0.00040303
0.000403253
0.000403256
0.000408352
0.0123664
0.0137117
0.00102461
0.000932362
0.000854063
0.00078848
0.00073441
0.000690319
0.000654176
0.000624451
0.000599613
0.000578772
0.000560961
0.000545737
0.000532459
0.000520952
0.000510736
0.000501787
0.000493723
0.000486607
0.000480109
0.000474347
0.00046902
0.000464283
0.000459852
0.000455905
0.000452173
0.00044885
0.000445677
0.000442854
0.000440127
0.000437716
0.000435358
0.00043328
0.000431226
0.000429429
0.000427631
0.000426073
0.000424494
0.000423135
0.000421739
0.00042055
0.00041931
0.000418268
0.000417163
0.000416249
0.000415263
0.000414457
0.000413576
0.000412864
0.000412074
0.000411449
0.000410741
0.000410188
0.000409555
0.00040907
0.000408503
0.000408073
0.000407566
0.000407193
0.000406735
0.000406409
0.000405999
0.000405717
0.000405342
0.000405104
0.000404771
0.000404561
0.000404262
0.000404078
0.000403814
0.000403653
0.000403421
0.000403273
0.000403071
0.000402943
0.000402761
0.000402649
0.000402489
0.000402399
0.000402263
0.000402194
0.00040208
0.000402034
0.000401947
0.000401934
0.000401898
0.000401933
0.000401928
0.000402005
0.000402022
0.00040214
0.000402158
0.000402378
0.000402379
0.000407615
0.012611
0.0140077
0.0010246
0.000932376
0.000854094
0.000788499
0.000734389
0.000690242
0.000654039
0.000624252
0.000599358
0.000578464
0.000560605
0.000545339
0.000532022
0.00052048
0.000510233
0.000501256
0.000493166
0.000486027
0.000479508
0.000473727
0.000468382
0.000463629
0.000459183
0.000455223
0.000451478
0.000448143
0.000444959
0.000442126
0.000439389
0.000436969
0.000434603
0.000432517
0.000430456
0.000428652
0.000426847
0.000425283
0.000423698
0.000422334
0.000420932
0.000419738
0.000418493
0.000417447
0.000416337
0.000415419
0.000414429
0.00041362
0.000412735
0.00041202
0.000411227
0.000410598
0.000409887
0.000409332
0.000408696
0.000408209
0.000407638
0.000407206
0.000406696
0.000406322
0.000405861
0.000405533
0.000405121
0.000404836
0.00040446
0.000404219
0.000403885
0.000403673
0.000403373
0.000403187
0.000402922
0.000402759
0.000402525
0.000402376
0.000402172
0.000402044
0.00040186
0.000401747
0.000401585
0.000401494
0.000401356
0.000401286
0.000401169
0.000401122
0.000401033
0.000401018
0.000400978
0.00040101
0.000401003
0.000401077
0.000401092
0.000401206
0.000401223
0.000401439
0.00040144
0.000406824
0.0128683
0.0143272
0.0010246
0.000932391
0.000854127
0.000788519
0.000734368
0.000690162
0.000653894
0.000624043
0.000599087
0.000578138
0.000560228
0.000544916
0.000531558
0.000519979
0.000509698
0.000500691
0.000492574
0.00048541
0.000478869
0.000473067
0.000467703
0.000462932
0.00045847
0.000454495
0.000450737
0.000447389
0.000444193
0.000441349
0.000438602
0.000436172
0.000433797
0.000431703
0.000429634
0.000427823
0.00042601
0.00042444
0.000422848
0.000421478
0.000420071
0.000418872
0.000417621
0.00041657
0.000415456
0.000414534
0.000413539
0.000412726
0.000411837
0.000411119
0.000410322
0.00040969
0.000408975
0.000408417
0.000407778
0.000407288
0.000406715
0.00040628
0.000405768
0.000405391
0.000404927
0.000404597
0.000404183
0.000403897
0.000403518
0.000403275
0.000402939
0.000402725
0.000402423
0.000402235
0.000401968
0.000401804
0.000401568
0.000401418
0.000401213
0.000401083
0.000400898
0.000400784
0.00040062
0.000400527
0.000400387
0.000400315
0.000400197
0.000400148
0.000400057
0.00040004
0.000399996
0.000400024
0.000400015
0.000400086
0.000400099
0.00040021
0.000400224
0.000400437
0.000400437
0.00040598
0.0131363
0.0146702
0.00102459
0.000932406
0.000854162
0.000788542
0.000734347
0.00069008
0.000653742
0.000623822
0.000598802
0.000577793
0.000559829
0.000544468
0.000531066
0.000519447
0.000509131
0.000500092
0.000491946
0.000484755
0.00047819
0.000472366
0.000466981
0.000462192
0.000457713
0.000453722
0.000449949
0.000446588
0.000443379
0.000440524
0.000437766
0.000435325
0.000432941
0.000430838
0.000428759
0.000426941
0.000425121
0.000423543
0.000421945
0.000420568
0.000419155
0.00041795
0.000416694
0.000415638
0.000414519
0.000413592
0.000412593
0.000411776
0.000410882
0.00041016
0.000409359
0.000408724
0.000408005
0.000407444
0.000406802
0.000406309
0.000405732
0.000405295
0.00040478
0.0004044
0.000403934
0.000403602
0.000403184
0.000402896
0.000402515
0.000402271
0.000401932
0.000401716
0.000401412
0.000401222
0.000400954
0.000400788
0.00040055
0.000400399
0.000400192
0.000400061
0.000399873
0.000399758
0.000399592
0.000399498
0.000399355
0.000399282
0.000399162
0.000399111
0.000399018
0.000398998
0.000398951
0.000398975
0.000398964
0.000399031
0.000399042
0.000399149
0.000399161
0.000399371
0.000399369
0.000405081
0.0134123
0.0150365
0.00102458
0.000932422
0.000854199
0.000788566
0.000734327
0.000689994
0.000653584
0.000623591
0.000598502
0.00057743
0.000559408
0.000543996
0.000530547
0.000518886
0.000508532
0.000499459
0.000491281
0.000484063
0.000477471
0.000471624
0.000466218
0.000461409
0.000456912
0.000452904
0.000449115
0.000445739
0.000442517
0.000439649
0.000436879
0.000434428
0.000432033
0.000429921
0.000427833
0.000426006
0.000424178
0.000422593
0.000420987
0.000419604
0.000418183
0.000416973
0.000415711
0.000414649
0.000413524
0.000412593
0.000411589
0.000410767
0.000409869
0.000409143
0.000408338
0.000407699
0.000406977
0.000406412
0.000405766
0.00040527
0.00040469
0.000404251
0.000403732
0.00040335
0.00040288
0.000402546
0.000402125
0.000401835
0.000401451
0.000401205
0.000400863
0.000400646
0.000400339
0.000400148
0.000399877
0.00039971
0.00039947
0.000399317
0.000399109
0.000398976
0.000398787
0.00039867
0.000398502
0.000398406
0.000398261
0.000398186
0.000398063
0.000398011
0.000397916
0.000397894
0.000397842
0.000397862
0.000397849
0.000397912
0.000397921
0.000398023
0.000398033
0.000398239
0.000398236
0.000404125
0.0136931
0.0154254
0.00102458
0.000932438
0.000854238
0.000788593
0.000734307
0.000689906
0.000653419
0.00062335
0.000598188
0.000577049
0.000558967
0.000543499
0.000530002
0.000518296
0.000507902
0.000498792
0.000490581
0.000483332
0.000476714
0.000470841
0.000465412
0.000460582
0.000456065
0.00045204
0.000448234
0.000444843
0.000441606
0.000438726
0.000435943
0.00043348
0.000431074
0.000428952
0.000426854
0.000425018
0.000423181
0.000421588
0.000419974
0.000418584
0.000417157
0.00041594
0.000414671
0.000413604
0.000412473
0.000411537
0.000410527
0.000409701
0.000408798
0.000408068
0.000407258
0.000406616
0.000405889
0.000405321
0.000404671
0.000404172
0.000403588
0.000403146
0.000402623
0.000402239
0.000401766
0.000401429
0.000401005
0.000400713
0.000400326
0.000400077
0.000399733
0.000399514
0.000399205
0.000399012
0.000398739
0.000398569
0.000398328
0.000398173
0.000397963
0.000397828
0.000397637
0.000397518
0.000397349
0.00039725
0.000397103
0.000397026
0.000396901
0.000396846
0.000396749
0.000396725
0.000396669
0.000396685
0.000396669
0.000396728
0.000396734
0.000396832
0.000396841
0.000397043
0.000397038
0.000403112
0.013975
0.0158359
0.00102457
0.000932455
0.000854279
0.000788623
0.000734288
0.000689815
0.000653249
0.000623099
0.000597861
0.000576651
0.000558505
0.000542979
0.000529429
0.000517676
0.000507239
0.000498091
0.000489845
0.000482565
0.000475917
0.000470018
0.000464564
0.000459712
0.000455175
0.00045113
0.000447307
0.000443899
0.000440647
0.000437752
0.000434956
0.000432481
0.000430063
0.00042793
0.000425822
0.000423977
0.00042213
0.000420529
0.000418907
0.000417509
0.000416074
0.000414851
0.000413575
0.000412502
0.000411365
0.000410423
0.000409408
0.000408577
0.000407669
0.000406934
0.000406119
0.000405473
0.000404741
0.00040417
0.000403515
0.000403013
0.000402425
0.00040198
0.000401453
0.000401066
0.00040059
0.00040025
0.000399823
0.000399529
0.000399139
0.000398888
0.000398541
0.000398319
0.000398008
0.000397812
0.000397537
0.000397365
0.000397122
0.000396965
0.000396753
0.000396617
0.000396424
0.000396304
0.000396131
0.000396031
0.000395882
0.000395802
0.000395675
0.000395618
0.000395518
0.000395491
0.000395432
0.000395443
0.000395424
0.000395479
0.000395483
0.000395576
0.000395582
0.00039578
0.000395774
0.00040204
0.0142537
0.0162666
0.00102456
0.000932473
0.000854322
0.000788655
0.00073427
0.000689723
0.000653073
0.000622838
0.00059752
0.000576236
0.000558022
0.000542435
0.00052883
0.000517027
0.000506545
0.000497356
0.000489074
0.000481759
0.000475081
0.000469154
0.000463674
0.000458799
0.000454239
0.000450174
0.000446332
0.000442908
0.000439639
0.00043673
0.000433919
0.000431431
0.000429001
0.000426857
0.000424738
0.000422882
0.000421026
0.000419415
0.000417784
0.000416379
0.000414936
0.000413705
0.000412422
0.000411343
0.000410199
0.000409252
0.00040823
0.000407394
0.00040648
0.000405741
0.000404921
0.00040427
0.000403534
0.000402959
0.000402299
0.000401794
0.000401202
0.000400753
0.000400223
0.000399832
0.000399352
0.00039901
0.00039858
0.000398283
0.000397889
0.000397636
0.000397286
0.000397062
0.000396747
0.00039655
0.000396272
0.000396098
0.000395853
0.000395694
0.00039548
0.000395343
0.000395147
0.000395025
0.00039485
0.000394748
0.000394595
0.000394514
0.000394384
0.000394325
0.000394222
0.000394192
0.000394129
0.000394137
0.000394113
0.000394163
0.000394165
0.000394253
0.000394257
0.000394451
0.000394443
0.000400907
0.0145244
0.0167153
0.00102455
0.00093249
0.000854368
0.000788689
0.000734253
0.000689629
0.000652892
0.000622569
0.000597166
0.000575804
0.000557519
0.000541868
0.000528205
0.000516349
0.00050582
0.000496588
0.000488267
0.000480917
0.000474206
0.000468249
0.000462742
0.000457842
0.000453259
0.000449173
0.000445311
0.000441868
0.000438583
0.000435657
0.000432832
0.00043033
0.000427887
0.000425731
0.0004236
0.000421734
0.000419867
0.000418247
0.000416606
0.000415193
0.000413741
0.000412503
0.000411212
0.000410127
0.000408976
0.000408022
0.000406994
0.000406153
0.000405233
0.000404489
0.000403663
0.000403008
0.000402267
0.000401687
0.000401023
0.000400514
0.000399917
0.000399465
0.00039893
0.000398537
0.000398053
0.000397708
0.000397273
0.000396974
0.000396577
0.000396321
0.000395968
0.000395741
0.000395424
0.000395224
0.000394944
0.000394768
0.00039452
0.00039436
0.000394143
0.000394004
0.000393806
0.000393681
0.000393504
0.000393399
0.000393245
0.000393161
0.000393028
0.000392966
0.000392861
0.000392828
0.000392762
0.000392764
0.000392737
0.000392782
0.000392781
0.000392863
0.000392865
0.000393056
0.000393046
0.000399712
0.0147818
0.0171794
0.00102454
0.000932509
0.000854416
0.000788726
0.000734237
0.000689534
0.000652706
0.000622291
0.0005968
0.000575356
0.000556997
0.000541278
0.000527554
0.000515643
0.000505064
0.000495787
0.000487424
0.000480037
0.000473292
0.000467304
0.000461769
0.000456841
0.000452234
0.000448126
0.000444243
0.000440781
0.000437478
0.000434536
0.000431694
0.000429178
0.000426721
0.000424552
0.000422409
0.000420531
0.000418653
0.000417024
0.000415373
0.00041395
0.00041249
0.000411244
0.000409945
0.000408852
0.000407694
0.000406734
0.000405699
0.000404852
0.000403926
0.000403177
0.000402345
0.000401685
0.000400938
0.000400355
0.000399685
0.000399172
0.000398571
0.000398115
0.000397576
0.000397179
0.000396691