/*--------------------------------*- C++ -*----------------------------------*\
| =========                 |                                                 |
| \\      /  F ield         | OpenFOAM: The Open Source CFD Toolbox           |
|  \\    /   O peration     | Version:  v2012                                 |
|   \\  /    A nd           | Website:  www.openfoam.com                      |
|    \\/     M anipulation  |                                                 |
\*---------------------------------------------------------------------------*/
FoamFile
{
    version     2.0;
    format      ascii;
    class       volScalarField;
    location    "59";
    object      nut;
}
// * * * * * * * * * * * * * * * * * * * * * * * * * * * * * * * * * * * * * //

dimensions      [0 2 -1 0 0 0 0];


internalField   nonuniform List<scalar> 
209825
(
1.23929e-07
1.23151e-07
1.22402e-07
1.21325e-07
1.19865e-07
1.18103e-07
1.16228e-07
1.14338e-07
1.12547e-07
1.10866e-07
1.09342e-07
1.07944e-07
1.06698e-07
1.05559e-07
1.04549e-07
1.03624e-07
1.02803e-07
1.02048e-07
1.01377e-07
1.00756e-07
1.00202e-07
9.96877e-08
9.92265e-08
9.87965e-08
9.84093e-08
9.80468e-08
9.77186e-08
9.7411e-08
9.71309e-08
9.68679e-08
9.66265e-08
9.64004e-08
9.61911e-08
9.59955e-08
9.58128e-08
9.56426e-08
9.54818e-08
9.53331e-08
9.51909e-08
9.50608e-08
9.49336e-08
9.48192e-08
9.47058e-08
9.46044e-08
9.45021e-08
9.44127e-08
9.43201e-08
9.42416e-08
9.41569e-08
9.40873e-08
9.40094e-08
9.39473e-08
9.38741e-08
9.38195e-08
9.37531e-08
9.37035e-08
9.36428e-08
9.35981e-08
9.35432e-08
9.35028e-08
9.34507e-08
9.3413e-08
9.33657e-08
9.33306e-08
9.32863e-08
9.32541e-08
9.32139e-08
9.31845e-08
9.31471e-08
9.3119e-08
9.30837e-08
9.30576e-08
9.30251e-08
9.3002e-08
9.2972e-08
9.29511e-08
9.29227e-08
9.29027e-08
9.28747e-08
9.2855e-08
9.28273e-08
9.28077e-08
9.27806e-08
9.27611e-08
9.27346e-08
9.27142e-08
9.26849e-08
9.26629e-08
9.26326e-08
9.26081e-08
9.25902e-08
9.25394e-08
9.25432e-08
9.3404e-08
9.57026e-08
8.9785e-09
1.23929e-07
1.23151e-07
1.22402e-07
1.21325e-07
1.19866e-07
1.18104e-07
1.16229e-07
1.14338e-07
1.12548e-07
1.10866e-07
1.09343e-07
1.07945e-07
1.06699e-07
1.0556e-07
1.0455e-07
1.03625e-07
1.02804e-07
1.02049e-07
1.01378e-07
1.00757e-07
1.00203e-07
9.96886e-08
9.92273e-08
9.87974e-08
9.84101e-08
9.80476e-08
9.77194e-08
9.74117e-08
9.71316e-08
9.68686e-08
9.66273e-08
9.64011e-08
9.61918e-08
9.59962e-08
9.58135e-08
9.56433e-08
9.54824e-08
9.53338e-08
9.51916e-08
9.50615e-08
9.49342e-08
9.48198e-08
9.47065e-08
9.4605e-08
9.45027e-08
9.44133e-08
9.43207e-08
9.42422e-08
9.41574e-08
9.40879e-08
9.401e-08
9.39479e-08
9.38747e-08
9.38201e-08
9.37537e-08
9.37041e-08
9.36434e-08
9.35987e-08
9.35438e-08
9.35033e-08
9.34512e-08
9.34135e-08
9.33662e-08
9.33312e-08
9.32868e-08
9.32547e-08
9.32145e-08
9.3185e-08
9.31476e-08
9.31196e-08
9.30842e-08
9.30581e-08
9.30257e-08
9.30025e-08
9.29725e-08
9.29516e-08
9.29232e-08
9.29032e-08
9.28752e-08
9.28555e-08
9.28278e-08
9.28082e-08
9.27811e-08
9.27616e-08
9.2735e-08
9.27147e-08
9.26854e-08
9.26634e-08
9.26331e-08
9.26086e-08
9.25907e-08
9.25399e-08
9.25437e-08
9.34062e-08
9.57036e-08
9.2535e-09
1.23929e-07
1.23151e-07
1.22402e-07
1.21325e-07
1.19867e-07
1.18105e-07
1.1623e-07
1.1434e-07
1.1255e-07
1.10869e-07
1.09346e-07
1.07948e-07
1.06701e-07
1.05563e-07
1.04552e-07
1.03627e-07
1.02806e-07
1.02051e-07
1.0138e-07
1.00759e-07
1.00205e-07
9.96902e-08
9.92289e-08
9.87988e-08
9.84115e-08
9.80489e-08
9.77206e-08
9.74129e-08
9.71327e-08
9.68697e-08
9.66283e-08
9.64021e-08
9.61927e-08
9.5997e-08
9.58142e-08
9.5644e-08
9.54831e-08
9.53344e-08
9.51922e-08
9.50621e-08
9.49348e-08
9.48203e-08
9.4707e-08
9.46055e-08
9.45032e-08
9.44137e-08
9.43211e-08
9.42426e-08
9.41578e-08
9.40882e-08
9.40103e-08
9.39482e-08
9.38749e-08
9.38203e-08
9.37539e-08
9.37043e-08
9.36436e-08
9.35989e-08
9.35439e-08
9.35035e-08
9.34513e-08
9.34136e-08
9.33663e-08
9.33313e-08
9.32869e-08
9.32548e-08
9.32145e-08
9.31851e-08
9.31476e-08
9.31196e-08
9.30843e-08
9.30581e-08
9.30257e-08
9.30025e-08
9.29725e-08
9.29516e-08
9.29232e-08
9.29032e-08
9.28752e-08
9.28555e-08
9.28277e-08
9.28082e-08
9.2781e-08
9.27616e-08
9.2735e-08
9.27146e-08
9.26853e-08
9.26633e-08
9.2633e-08
9.26085e-08
9.25906e-08
9.25398e-08
9.25437e-08
9.34096e-08
9.57046e-08
9.595e-09
1.23929e-07
1.23151e-07
1.22402e-07
1.21326e-07
1.19868e-07
1.18108e-07
1.16234e-07
1.14344e-07
1.12555e-07
1.10873e-07
1.0935e-07
1.07952e-07
1.06705e-07
1.05567e-07
1.04556e-07
1.03631e-07
1.0281e-07
1.02055e-07
1.01383e-07
1.00762e-07
1.00208e-07
9.96932e-08
9.92317e-08
9.88015e-08
9.84141e-08
9.80514e-08
9.7723e-08
9.74152e-08
9.71349e-08
9.68717e-08
9.66302e-08
9.64039e-08
9.61945e-08
9.59987e-08
9.58159e-08
9.56456e-08
9.54846e-08
9.53358e-08
9.51936e-08
9.50634e-08
9.4936e-08
9.48215e-08
9.47081e-08
9.46066e-08
9.45042e-08
9.44147e-08
9.4322e-08
9.42435e-08
9.41587e-08
9.40891e-08
9.40111e-08
9.39489e-08
9.38757e-08
9.3821e-08
9.37546e-08
9.3705e-08
9.36442e-08
9.35995e-08
9.35445e-08
9.3504e-08
9.34519e-08
9.34142e-08
9.33668e-08
9.33318e-08
9.32874e-08
9.32552e-08
9.3215e-08
9.31855e-08
9.31481e-08
9.312e-08
9.30846e-08
9.30585e-08
9.3026e-08
9.30028e-08
9.29728e-08
9.29519e-08
9.29234e-08
9.29035e-08
9.28754e-08
9.28557e-08
9.28279e-08
9.28084e-08
9.27812e-08
9.27618e-08
9.27351e-08
9.27148e-08
9.26855e-08
9.26635e-08
9.26332e-08
9.26087e-08
9.25908e-08
9.25401e-08
9.25441e-08
9.34153e-08
9.57064e-08
9.97594e-09
1.23929e-07
1.2315e-07
1.22402e-07
1.21327e-07
1.1987e-07
1.18111e-07
1.16238e-07
1.1435e-07
1.12561e-07
1.1088e-07
1.09356e-07
1.07959e-07
1.06712e-07
1.05573e-07
1.04562e-07
1.03637e-07
1.02815e-07
1.0206e-07
1.01388e-07
1.00767e-07
1.00213e-07
9.96977e-08
9.9236e-08
9.88056e-08
9.8418e-08
9.80551e-08
9.77265e-08
9.74185e-08
9.71381e-08
9.68748e-08
9.66332e-08
9.64068e-08
9.61972e-08
9.60013e-08
9.58184e-08
9.5648e-08
9.5487e-08
9.53381e-08
9.51957e-08
9.50654e-08
9.4938e-08
9.48234e-08
9.471e-08
9.46084e-08
9.45059e-08
9.44164e-08
9.43236e-08
9.42451e-08
9.41602e-08
9.40905e-08
9.40125e-08
9.39503e-08
9.3877e-08
9.38223e-08
9.37558e-08
9.37062e-08
9.36454e-08
9.36006e-08
9.35456e-08
9.35051e-08
9.34529e-08
9.34152e-08
9.33678e-08
9.33327e-08
9.32883e-08
9.32561e-08
9.32158e-08
9.31863e-08
9.31489e-08
9.31208e-08
9.30854e-08
9.30592e-08
9.30267e-08
9.30035e-08
9.29735e-08
9.29526e-08
9.29241e-08
9.29041e-08
9.2876e-08
9.28563e-08
9.28285e-08
9.28089e-08
9.27818e-08
9.27623e-08
9.27356e-08
9.27153e-08
9.26861e-08
9.26641e-08
9.26337e-08
9.26092e-08
9.25913e-08
9.25406e-08
9.25448e-08
9.34234e-08
9.57091e-08
1.03893e-08
1.23929e-07
1.2315e-07
1.22402e-07
1.21328e-07
1.19873e-07
1.18116e-07
1.16245e-07
1.14357e-07
1.12568e-07
1.10888e-07
1.09365e-07
1.07967e-07
1.0672e-07
1.05581e-07
1.0457e-07
1.03645e-07
1.02823e-07
1.02067e-07
1.01395e-07
1.00774e-07
1.00219e-07
9.97036e-08
9.92417e-08
9.8811e-08
9.84232e-08
9.80601e-08
9.77313e-08
9.74231e-08
9.71425e-08
9.6879e-08
9.66372e-08
9.64106e-08
9.62009e-08
9.60049e-08
9.58218e-08
9.56513e-08
9.54901e-08
9.53412e-08
9.51987e-08
9.50683e-08
9.49408e-08
9.48261e-08
9.47125e-08
9.46109e-08
9.45083e-08
9.44187e-08
9.43259e-08
9.42473e-08
9.41623e-08
9.40926e-08
9.40145e-08
9.39522e-08
9.38789e-08
9.38241e-08
9.37576e-08
9.37079e-08
9.3647e-08
9.36022e-08
9.35472e-08
9.35066e-08
9.34544e-08
9.34166e-08
9.33692e-08
9.33341e-08
9.32897e-08
9.32574e-08
9.32171e-08
9.31876e-08
9.31501e-08
9.3122e-08
9.30866e-08
9.30604e-08
9.30279e-08
9.30046e-08
9.29745e-08
9.29536e-08
9.29251e-08
9.29051e-08
9.2877e-08
9.28573e-08
9.28294e-08
9.28099e-08
9.27827e-08
9.27632e-08
9.27365e-08
9.27161e-08
9.2687e-08
9.2665e-08
9.26346e-08
9.26101e-08
9.25922e-08
9.25416e-08
9.25459e-08
9.34341e-08
9.57127e-08
1.08341e-08
1.23929e-07
1.2315e-07
1.22402e-07
1.21329e-07
1.19877e-07
1.18122e-07
1.16252e-07
1.14366e-07
1.12578e-07
1.10898e-07
1.09375e-07
1.07977e-07
1.0673e-07
1.05591e-07
1.0458e-07
1.03654e-07
1.02832e-07
1.02076e-07
1.01403e-07
1.00782e-07
1.00227e-07
9.9711e-08
9.92488e-08
9.88179e-08
9.84297e-08
9.80664e-08
9.77373e-08
9.74289e-08
9.71481e-08
9.68844e-08
9.66424e-08
9.64156e-08
9.62057e-08
9.60095e-08
9.58262e-08
9.56555e-08
9.54942e-08
9.53451e-08
9.52025e-08
9.5072e-08
9.49443e-08
9.48296e-08
9.47159e-08
9.46141e-08
9.45115e-08
9.44217e-08
9.43288e-08
9.42501e-08
9.4165e-08
9.40953e-08
9.40171e-08
9.39548e-08
9.38813e-08
9.38265e-08
9.376e-08
9.37102e-08
9.36493e-08
9.36044e-08
9.35493e-08
9.35087e-08
9.34564e-08
9.34186e-08
9.33711e-08
9.3336e-08
9.32915e-08
9.32592e-08
9.32189e-08
9.31893e-08
9.31518e-08
9.31237e-08
9.30882e-08
9.3062e-08
9.30294e-08
9.30062e-08
9.2976e-08
9.29551e-08
9.29265e-08
9.29065e-08
9.28784e-08
9.28586e-08
9.28307e-08
9.28111e-08
9.27839e-08
9.27644e-08
9.27377e-08
9.27173e-08
9.26882e-08
9.26663e-08
9.26358e-08
9.26114e-08
9.25935e-08
9.25429e-08
9.25475e-08
9.34476e-08
9.57172e-08
1.13107e-08
1.23929e-07
1.23149e-07
1.22402e-07
1.21331e-07
1.19881e-07
1.18129e-07
1.16261e-07
1.14377e-07
1.1259e-07
1.1091e-07
1.09388e-07
1.0799e-07
1.06743e-07
1.05603e-07
1.04592e-07
1.03665e-07
1.02843e-07
1.02087e-07
1.01414e-07
1.00791e-07
1.00236e-07
9.972e-08
9.92574e-08
9.88261e-08
9.84377e-08
9.8074e-08
9.77446e-08
9.74359e-08
9.71548e-08
9.68909e-08
9.66486e-08
9.64216e-08
9.62115e-08
9.60151e-08
9.58316e-08
9.56607e-08
9.54993e-08
9.535e-08
9.52072e-08
9.50765e-08
9.49487e-08
9.48338e-08
9.472e-08
9.46181e-08
9.45153e-08
9.44255e-08
9.43325e-08
9.42537e-08
9.41685e-08
9.40987e-08
9.40204e-08
9.3958e-08
9.38844e-08
9.38296e-08
9.37629e-08
9.37131e-08
9.36521e-08
9.36071e-08
9.35519e-08
9.35113e-08
9.3459e-08
9.34211e-08
9.33736e-08
9.33384e-08
9.32939e-08
9.32615e-08
9.32211e-08
9.31915e-08
9.31539e-08
9.31258e-08
9.30903e-08
9.3064e-08
9.30314e-08
9.30081e-08
9.29779e-08
9.2957e-08
9.29283e-08
9.29083e-08
9.28801e-08
9.28603e-08
9.28324e-08
9.28128e-08
9.27856e-08
9.2766e-08
9.27392e-08
9.27189e-08
9.26898e-08
9.2668e-08
9.26374e-08
9.2613e-08
9.25951e-08
9.25446e-08
9.25495e-08
9.34641e-08
9.57226e-08
1.18195e-08
1.23929e-07
1.23148e-07
1.22402e-07
1.21333e-07
1.19886e-07
1.18137e-07
1.16272e-07
1.14389e-07
1.12604e-07
1.10925e-07
1.09403e-07
1.08005e-07
1.06757e-07
1.05618e-07
1.04605e-07
1.03679e-07
1.02856e-07
1.02099e-07
1.01426e-07
1.00803e-07
1.00247e-07
9.97306e-08
9.92676e-08
9.88359e-08
9.84471e-08
9.8083e-08
9.77533e-08
9.74442e-08
9.71628e-08
9.68986e-08
9.6656e-08
9.64287e-08
9.62184e-08
9.60217e-08
9.5838e-08
9.56669e-08
9.55052e-08
9.53557e-08
9.52128e-08
9.50819e-08
9.4954e-08
9.48389e-08
9.47249e-08
9.46229e-08
9.452e-08
9.443e-08
9.43369e-08
9.4258e-08
9.41726e-08
9.41027e-08
9.40243e-08
9.39618e-08
9.38882e-08
9.38332e-08
9.37665e-08
9.37165e-08
9.36554e-08
9.36104e-08
9.35552e-08
9.35145e-08
9.34621e-08
9.34241e-08
9.33765e-08
9.33413e-08
9.32967e-08
9.32643e-08
9.32238e-08
9.31942e-08
9.31566e-08
9.31284e-08
9.30928e-08
9.30666e-08
9.30339e-08
9.30106e-08
9.29803e-08
9.29593e-08
9.29306e-08
9.29105e-08
9.28823e-08
9.28625e-08
9.28346e-08
9.28149e-08
9.27876e-08
9.2768e-08
9.27412e-08
9.27209e-08
9.26919e-08
9.267e-08
9.26394e-08
9.26151e-08
9.25971e-08
9.25467e-08
9.2552e-08
9.34838e-08
9.57288e-08
1.2361e-08
1.23929e-07
1.23148e-07
1.22402e-07
1.21335e-07
1.19892e-07
1.18146e-07
1.16284e-07
1.14403e-07
1.12619e-07
1.10941e-07
1.09419e-07
1.08022e-07
1.06774e-07
1.05634e-07
1.04621e-07
1.03694e-07
1.02871e-07
1.02113e-07
1.01439e-07
1.00816e-07
1.0026e-07
9.97429e-08
9.92794e-08
9.88472e-08
9.84579e-08
9.80934e-08
9.77633e-08
9.74539e-08
9.71721e-08
9.69075e-08
9.66646e-08
9.6437e-08
9.62264e-08
9.60294e-08
9.58455e-08
9.56741e-08
9.55122e-08
9.53625e-08
9.52193e-08
9.50883e-08
9.49601e-08
9.48449e-08
9.47307e-08
9.46285e-08
9.45254e-08
9.44353e-08
9.4342e-08
9.4263e-08
9.41775e-08
9.41074e-08
9.40289e-08
9.39664e-08
9.38926e-08
9.38375e-08
9.37707e-08
9.37206e-08
9.36594e-08
9.36144e-08
9.3559e-08
9.35182e-08
9.34657e-08
9.34277e-08
9.33801e-08
9.33448e-08
9.33001e-08
9.32677e-08
9.32271e-08
9.31974e-08
9.31597e-08
9.31315e-08
9.30959e-08
9.30696e-08
9.30368e-08
9.30135e-08
9.29831e-08
9.29621e-08
9.29333e-08
9.29132e-08
9.28849e-08
9.28651e-08
9.28371e-08
9.28174e-08
9.27901e-08
9.27705e-08
9.27435e-08
9.27233e-08
9.26943e-08
9.26725e-08
9.26419e-08
9.26175e-08
9.25996e-08
9.25493e-08
9.2555e-08
9.35067e-08
9.57359e-08
1.29354e-08
1.23929e-07
1.23147e-07
1.22401e-07
1.21338e-07
1.19898e-07
1.18156e-07
1.16298e-07
1.14419e-07
1.12637e-07
1.1096e-07
1.09438e-07
1.08041e-07
1.06793e-07
1.05653e-07
1.0464e-07
1.03712e-07
1.02888e-07
1.0213e-07
1.01455e-07
1.00831e-07
1.00274e-07
9.97568e-08
9.92928e-08
9.88601e-08
9.84703e-08
9.81053e-08
9.77748e-08
9.74649e-08
9.71827e-08
9.69177e-08
9.66745e-08
9.64465e-08
9.62355e-08
9.60383e-08
9.5854e-08
9.56824e-08
9.55202e-08
9.53702e-08
9.52268e-08
9.50955e-08
9.49672e-08
9.48517e-08
9.47373e-08
9.4635e-08
9.45317e-08
9.44414e-08
9.43479e-08
9.42687e-08
9.41831e-08
9.41129e-08
9.40343e-08
9.39716e-08
9.38977e-08
9.38425e-08
9.37755e-08
9.37254e-08
9.36641e-08
9.36189e-08
9.35634e-08
9.35226e-08
9.347e-08
9.34319e-08
9.33841e-08
9.33488e-08
9.33041e-08
9.32716e-08
9.32309e-08
9.32012e-08
9.31634e-08
9.31351e-08
9.30994e-08
9.30731e-08
9.30403e-08
9.30169e-08
9.29864e-08
9.29653e-08
9.29365e-08
9.29163e-08
9.2888e-08
9.28681e-08
9.28401e-08
9.28204e-08
9.27929e-08
9.27733e-08
9.27463e-08
9.27261e-08
9.26972e-08
9.26754e-08
9.26447e-08
9.26204e-08
9.26024e-08
9.25523e-08
9.25585e-08
9.35332e-08
9.57436e-08
1.35419e-08
1.23929e-07
1.23146e-07
1.22401e-07
1.2134e-07
1.19906e-07
1.18168e-07
1.16313e-07
1.14437e-07
1.12657e-07
1.10981e-07
1.0946e-07
1.08062e-07
1.06814e-07
1.05673e-07
1.0466e-07
1.03731e-07
1.02907e-07
1.02148e-07
1.01473e-07
1.00848e-07
1.00291e-07
9.97725e-08
9.93079e-08
9.88745e-08
9.84843e-08
9.81187e-08
9.77877e-08
9.74773e-08
9.71947e-08
9.69292e-08
9.66856e-08
9.64572e-08
9.62459e-08
9.60482e-08
9.58637e-08
9.56917e-08
9.55292e-08
9.5379e-08
9.52353e-08
9.51038e-08
9.49751e-08
9.48594e-08
9.47448e-08
9.46423e-08
9.45388e-08
9.44483e-08
9.43546e-08
9.42753e-08
9.41895e-08
9.41192e-08
9.40403e-08
9.39775e-08
9.39035e-08
9.38481e-08
9.3781e-08
9.37308e-08
9.36694e-08
9.36241e-08
9.35685e-08
9.35275e-08
9.34749e-08
9.34367e-08
9.33888e-08
9.33534e-08
9.33086e-08
9.3276e-08
9.32352e-08
9.32054e-08
9.31676e-08
9.31393e-08
9.31035e-08
9.30771e-08
9.30442e-08
9.30208e-08
9.29902e-08
9.29691e-08
9.29402e-08
9.292e-08
9.28915e-08
9.28717e-08
9.28435e-08
9.28238e-08
9.27963e-08
9.27767e-08
9.27495e-08
9.27293e-08
9.27005e-08
9.26787e-08
9.2648e-08
9.26237e-08
9.26057e-08
9.25557e-08
9.25625e-08
9.35633e-08
9.57518e-08
1.41803e-08
1.23929e-07
1.23145e-07
1.22401e-07
1.21344e-07
1.19913e-07
1.1818e-07
1.1633e-07
1.14457e-07
1.12679e-07
1.11004e-07
1.09483e-07
1.08086e-07
1.06838e-07
1.05696e-07
1.04682e-07
1.03753e-07
1.02928e-07
1.02168e-07
1.01492e-07
1.00867e-07
1.00309e-07
9.97899e-08
9.93247e-08
9.88907e-08
9.84998e-08
9.81336e-08
9.7802e-08
9.74911e-08
9.7208e-08
9.6942e-08
9.6698e-08
9.64692e-08
9.62574e-08
9.60594e-08
9.58745e-08
9.57022e-08
9.55393e-08
9.53888e-08
9.52448e-08
9.5113e-08
9.49841e-08
9.48681e-08
9.47533e-08
9.46505e-08
9.45468e-08
9.44561e-08
9.43622e-08
9.42827e-08
9.41967e-08
9.41262e-08
9.40471e-08
9.39842e-08
9.391e-08
9.38545e-08
9.37873e-08
9.37369e-08
9.36753e-08
9.36299e-08
9.35742e-08
9.35331e-08
9.34804e-08
9.34421e-08
9.33941e-08
9.33586e-08
9.33137e-08
9.3281e-08
9.32402e-08
9.32103e-08
9.31723e-08
9.3144e-08
9.31081e-08
9.30817e-08
9.30487e-08
9.30252e-08
9.29946e-08
9.29733e-08
9.29443e-08
9.29241e-08
9.28956e-08
9.28756e-08
9.28474e-08
9.28277e-08
9.28001e-08
9.27804e-08
9.27532e-08
9.2733e-08
9.27042e-08
9.26825e-08
9.26517e-08
9.26274e-08
9.26095e-08
9.25597e-08
9.25671e-08
9.35972e-08
9.57604e-08
1.48522e-08
1.23929e-07
1.23144e-07
1.22401e-07
1.21347e-07
1.19922e-07
1.18194e-07
1.16348e-07
1.14479e-07
1.12703e-07
1.11029e-07
1.09509e-07
1.08112e-07
1.06863e-07
1.05722e-07
1.04707e-07
1.03777e-07
1.02951e-07
1.02191e-07
1.01514e-07
1.00888e-07
1.00329e-07
9.98092e-08
9.93432e-08
9.89085e-08
9.85169e-08
9.81501e-08
9.7818e-08
9.75064e-08
9.72228e-08
9.69563e-08
9.67117e-08
9.64824e-08
9.62702e-08
9.60718e-08
9.58865e-08
9.57138e-08
9.55506e-08
9.53997e-08
9.52553e-08
9.51232e-08
9.4994e-08
9.48778e-08
9.47626e-08
9.46596e-08
9.45556e-08
9.44648e-08
9.43706e-08
9.42909e-08
9.42047e-08
9.4134e-08
9.40548e-08
9.39917e-08
9.39173e-08
9.38616e-08
9.37942e-08
9.37437e-08
9.3682e-08
9.36364e-08
9.35805e-08
9.35394e-08
9.34865e-08
9.34481e-08
9.34e-08
9.33645e-08
9.33194e-08
9.32867e-08
9.32457e-08
9.32157e-08
9.31777e-08
9.31493e-08
9.31133e-08
9.30868e-08
9.30537e-08
9.30302e-08
9.29994e-08
9.29781e-08
9.2949e-08
9.29287e-08
9.29001e-08
9.28801e-08
9.28518e-08
9.2832e-08
9.28043e-08
9.27847e-08
9.27573e-08
9.27371e-08
9.27084e-08
9.26867e-08
9.26559e-08
9.26317e-08
9.26137e-08
9.25641e-08
9.25723e-08
9.3635e-08
9.57692e-08
1.556e-08
1.23929e-07
1.23143e-07
1.224e-07
1.2135e-07
1.19931e-07
1.18209e-07
1.16368e-07
1.14502e-07
1.12729e-07
1.11056e-07
1.09538e-07
1.0814e-07
1.06892e-07
1.05749e-07
1.04734e-07
1.03804e-07
1.02977e-07
1.02215e-07
1.01538e-07
1.00911e-07
1.00351e-07
9.98304e-08
9.93636e-08
9.89281e-08
9.85358e-08
9.81683e-08
9.78354e-08
9.75232e-08
9.7239e-08
9.69719e-08
9.67268e-08
9.6497e-08
9.62843e-08
9.60854e-08
9.58996e-08
9.57265e-08
9.55629e-08
9.54116e-08
9.52669e-08
9.51345e-08
9.5005e-08
9.48884e-08
9.4773e-08
9.46697e-08
9.45654e-08
9.44743e-08
9.43799e-08
9.43e-08
9.42135e-08
9.41426e-08
9.40632e-08
9.39999e-08
9.39254e-08
9.38695e-08
9.38019e-08
9.37513e-08
9.36894e-08
9.36437e-08
9.35876e-08
9.35463e-08
9.34933e-08
9.34548e-08
9.34066e-08
9.33709e-08
9.33257e-08
9.32929e-08
9.32518e-08
9.32218e-08
9.31836e-08
9.31551e-08
9.31191e-08
9.30925e-08
9.30593e-08
9.30357e-08
9.30048e-08
9.29834e-08
9.29542e-08
9.29339e-08
9.29051e-08
9.28851e-08
9.28567e-08
9.28369e-08
9.28091e-08
9.27894e-08
9.27619e-08
9.27418e-08
9.27131e-08
9.26915e-08
9.26606e-08
9.26364e-08
9.26184e-08
9.2569e-08
9.2578e-08
9.3677e-08
9.57778e-08
1.63058e-08
1.23929e-07
1.23141e-07
1.224e-07
1.21354e-07
1.19941e-07
1.18225e-07
1.1639e-07
1.14528e-07
1.12757e-07
1.11086e-07
1.09568e-07
1.08171e-07
1.06922e-07
1.0578e-07
1.04764e-07
1.03832e-07
1.03004e-07
1.02242e-07
1.01564e-07
1.00936e-07
1.00375e-07
9.98534e-08
9.93858e-08
9.89494e-08
9.85564e-08
9.81881e-08
9.78545e-08
9.75416e-08
9.72567e-08
9.6989e-08
9.67433e-08
9.65129e-08
9.62997e-08
9.61003e-08
9.59141e-08
9.57405e-08
9.55765e-08
9.54248e-08
9.52797e-08
9.51469e-08
9.5017e-08
9.49001e-08
9.47843e-08
9.46808e-08
9.45762e-08
9.44848e-08
9.43901e-08
9.43099e-08
9.42232e-08
9.41521e-08
9.40724e-08
9.4009e-08
9.39342e-08
9.38782e-08
9.38104e-08
9.37596e-08
9.36975e-08
9.36516e-08
9.35954e-08
9.3554e-08
9.35008e-08
9.34622e-08
9.34138e-08
9.33781e-08
9.33327e-08
9.32998e-08
9.32586e-08
9.32284e-08
9.31901e-08
9.31616e-08
9.31254e-08
9.30988e-08
9.30655e-08
9.30418e-08
9.30108e-08
9.29893e-08
9.296e-08
9.29396e-08
9.29107e-08
9.28907e-08
9.28622e-08
9.28423e-08
9.28144e-08
9.27947e-08
9.2767e-08
9.27469e-08
9.27182e-08
9.26967e-08
9.26658e-08
9.26415e-08
9.26236e-08
9.25744e-08
9.25844e-08
9.37232e-08
9.56096e-08
1.70923e-08
1.23929e-07
1.2314e-07
1.224e-07
1.21358e-07
1.19952e-07
1.18243e-07
1.16413e-07
1.14555e-07
1.12787e-07
1.11119e-07
1.09601e-07
1.08204e-07
1.06956e-07
1.05812e-07
1.04796e-07
1.03863e-07
1.03035e-07
1.02271e-07
1.01592e-07
1.00963e-07
1.00401e-07
9.98785e-08
9.941e-08
9.89726e-08
9.85788e-08
9.82096e-08
9.78753e-08
9.75616e-08
9.7276e-08
9.70076e-08
9.67613e-08
9.65303e-08
9.63165e-08
9.61166e-08
9.59298e-08
9.57557e-08
9.55913e-08
9.54391e-08
9.52936e-08
9.51604e-08
9.50301e-08
9.49129e-08
9.47967e-08
9.46928e-08
9.45879e-08
9.44963e-08
9.44012e-08
9.43208e-08
9.42338e-08
9.41625e-08
9.40826e-08
9.40189e-08
9.39439e-08
9.38877e-08
9.38197e-08
9.37687e-08
9.37064e-08
9.36604e-08
9.36039e-08
9.35624e-08
9.35091e-08
9.34703e-08
9.34218e-08
9.33859e-08
9.33404e-08
9.33074e-08
9.3266e-08
9.32358e-08
9.31973e-08
9.31687e-08
9.31324e-08
9.31057e-08
9.30723e-08
9.30485e-08
9.30173e-08
9.29958e-08
9.29663e-08
9.29458e-08
9.29169e-08
9.28968e-08
9.28681e-08
9.28483e-08
9.28202e-08
9.28005e-08
9.27727e-08
9.27526e-08
9.27239e-08
9.27024e-08
9.26714e-08
9.26472e-08
9.26293e-08
9.25804e-08
9.25914e-08
9.37737e-08
8.99459e-08
1.79219e-08
1.23929e-07
1.23138e-07
1.22399e-07
1.21362e-07
1.19963e-07
1.18261e-07
1.16438e-07
1.14585e-07
1.1282e-07
1.11153e-07
1.09637e-07
1.0824e-07
1.06991e-07
1.05847e-07
1.0483e-07
1.03897e-07
1.03067e-07
1.02303e-07
1.01622e-07
1.00992e-07
1.00429e-07
9.99055e-08
9.94361e-08
9.89977e-08
9.86029e-08
9.82329e-08
9.78978e-08
9.75832e-08
9.72969e-08
9.70278e-08
9.67808e-08
9.65491e-08
9.63347e-08
9.61342e-08
9.59469e-08
9.57723e-08
9.56073e-08
9.54547e-08
9.53087e-08
9.5175e-08
9.50443e-08
9.49267e-08
9.48102e-08
9.4706e-08
9.46007e-08
9.45088e-08
9.44134e-08
9.43327e-08
9.42454e-08
9.41738e-08
9.40936e-08
9.40297e-08
9.39545e-08
9.3898e-08
9.38298e-08
9.37786e-08
9.37161e-08
9.36699e-08
9.36132e-08
9.35715e-08
9.35181e-08
9.34792e-08
9.34304e-08
9.33944e-08
9.33488e-08
9.33156e-08
9.32741e-08
9.32437e-08
9.32052e-08
9.31765e-08
9.314e-08
9.31133e-08
9.30797e-08
9.30558e-08
9.30245e-08
9.30029e-08
9.29732e-08
9.29527e-08
9.29236e-08
9.29034e-08
9.28747e-08
9.28548e-08
9.28266e-08
9.28068e-08
9.27789e-08
9.27587e-08
9.27301e-08
9.27087e-08
9.26776e-08
9.26535e-08
9.26356e-08
9.25869e-08
9.2599e-08
9.38286e-08
8.48988e-08
1.87974e-08
1.23929e-07
1.23137e-07
1.22399e-07
1.21367e-07
1.19975e-07
1.18281e-07
1.16464e-07
1.14616e-07
1.12855e-07
1.1119e-07
1.09675e-07
1.08279e-07
1.0703e-07
1.05885e-07
1.04867e-07
1.03933e-07
1.03102e-07
1.02336e-07
1.01655e-07
1.01023e-07
1.00459e-07
9.99347e-08
9.94642e-08
9.90248e-08
9.8629e-08
9.8258e-08
9.7922e-08
9.76066e-08
9.73195e-08
9.70495e-08
9.68018e-08
9.65694e-08
9.63544e-08
9.61532e-08
9.59653e-08
9.57901e-08
9.56246e-08
9.54715e-08
9.5325e-08
9.51909e-08
9.50597e-08
9.49417e-08
9.48248e-08
9.47202e-08
9.46145e-08
9.45223e-08
9.44265e-08
9.43455e-08
9.42579e-08
9.4186e-08
9.41055e-08
9.40415e-08
9.39659e-08
9.39092e-08
9.38408e-08
9.37893e-08
9.37266e-08
9.36802e-08
9.36233e-08
9.35815e-08
9.35278e-08
9.34887e-08
9.34398e-08
9.34037e-08
9.33579e-08
9.33246e-08
9.32829e-08
9.32524e-08
9.32137e-08
9.31849e-08
9.31483e-08
9.31215e-08
9.30878e-08
9.30638e-08
9.30323e-08
9.30106e-08
9.29808e-08
9.29602e-08
9.29309e-08
9.29107e-08
9.28818e-08
9.28618e-08
9.28335e-08
9.28137e-08
9.27856e-08
9.27655e-08
9.27368e-08
9.27155e-08
9.26844e-08
9.26602e-08
9.26424e-08
9.2594e-08
9.26073e-08
9.3888e-08
8.04005e-08
1.97215e-08
1.23929e-07
1.23135e-07
1.22398e-07
1.21371e-07
1.19987e-07
1.18302e-07
1.16492e-07
1.1465e-07
1.12892e-07
1.1123e-07
1.09716e-07
1.0832e-07
1.07071e-07
1.05926e-07
1.04906e-07
1.03971e-07
1.03139e-07
1.02372e-07
1.0169e-07
1.01057e-07
1.00492e-07
9.9966e-08
9.94943e-08
9.90538e-08
9.8657e-08
9.82849e-08
9.7948e-08
9.76317e-08
9.73437e-08
9.70729e-08
9.68245e-08
9.65913e-08
9.63756e-08
9.61737e-08
9.59851e-08
9.58094e-08
9.56432e-08
9.54896e-08
9.53425e-08
9.5208e-08
9.50763e-08
9.49579e-08
9.48405e-08
9.47355e-08
9.46294e-08
9.45368e-08
9.44407e-08
9.43594e-08
9.42714e-08
9.41993e-08
9.41184e-08
9.40541e-08
9.39783e-08
9.39214e-08
9.38526e-08
9.3801e-08
9.3738e-08
9.36914e-08
9.36342e-08
9.35922e-08
9.35384e-08
9.34991e-08
9.345e-08
9.34138e-08
9.33678e-08
9.33343e-08
9.32924e-08
9.32618e-08
9.32229e-08
9.31941e-08
9.31573e-08
9.31304e-08
9.30965e-08
9.30725e-08
9.30408e-08
9.3019e-08
9.2989e-08
9.29683e-08
9.29389e-08
9.29186e-08
9.28896e-08
9.28695e-08
9.28411e-08
9.28212e-08
9.27929e-08
9.27728e-08
9.27441e-08
9.27228e-08
9.26917e-08
9.26676e-08
9.26497e-08
9.26017e-08
9.26163e-08
9.39519e-08
7.63852e-08
2.06972e-08
1.23929e-07
1.23134e-07
1.22397e-07
1.21376e-07
1.20001e-07
1.18324e-07
1.16522e-07
1.14685e-07
1.12932e-07
1.11272e-07
1.09759e-07
1.08364e-07
1.07114e-07
1.05969e-07
1.04949e-07
1.04012e-07
1.03179e-07
1.02411e-07
1.01727e-07
1.01093e-07
1.00527e-07
9.99994e-08
9.95266e-08
9.90849e-08
9.8687e-08
9.83138e-08
9.79759e-08
9.76586e-08
9.73697e-08
9.7098e-08
9.68487e-08
9.66147e-08
9.63983e-08
9.61956e-08
9.60064e-08
9.583e-08
9.56633e-08
9.5509e-08
9.53614e-08
9.52263e-08
9.50942e-08
9.49752e-08
9.48574e-08
9.4752e-08
9.46455e-08
9.45525e-08
9.44559e-08
9.43743e-08
9.42859e-08
9.42135e-08
9.41323e-08
9.40677e-08
9.39916e-08
9.39344e-08
9.38654e-08
9.38135e-08
9.37503e-08
9.37034e-08
9.3646e-08
9.36038e-08
9.35497e-08
9.35103e-08
9.3461e-08
9.34246e-08
9.33784e-08
9.33448e-08
9.33027e-08
9.3272e-08
9.32329e-08
9.3204e-08
9.3167e-08
9.314e-08
9.3106e-08
9.30818e-08
9.305e-08
9.3028e-08
9.29979e-08
9.29771e-08
9.29475e-08
9.29272e-08
9.2898e-08
9.28779e-08
9.28493e-08
9.28294e-08
9.28009e-08
9.27808e-08
9.2752e-08
9.27307e-08
9.26996e-08
9.26755e-08
9.26577e-08
9.261e-08
9.2626e-08
9.40202e-08
7.27968e-08
2.17273e-08
1.23929e-07
1.23132e-07
1.22397e-07
1.21381e-07
1.20015e-07
1.18347e-07
1.16553e-07
1.14723e-07
1.12974e-07
1.11316e-07
1.09805e-07
1.0841e-07
1.07161e-07
1.06014e-07
1.04994e-07
1.04056e-07
1.03222e-07
1.02452e-07
1.01767e-07
1.01131e-07
1.00564e-07
1.00035e-07
9.95611e-08
9.91181e-08
9.8719e-08
9.83447e-08
9.80057e-08
9.76873e-08
9.73975e-08
9.71248e-08
9.68747e-08
9.66398e-08
9.64226e-08
9.62191e-08
9.60292e-08
9.58521e-08
9.56847e-08
9.55298e-08
9.53816e-08
9.5246e-08
9.51133e-08
9.49938e-08
9.48755e-08
9.47697e-08
9.46627e-08
9.45693e-08
9.44723e-08
9.43903e-08
9.43015e-08
9.42288e-08
9.41472e-08
9.40824e-08
9.40059e-08
9.39484e-08
9.38791e-08
9.3827e-08
9.37634e-08
9.37163e-08
9.36587e-08
9.36162e-08
9.3562e-08
9.35224e-08
9.34728e-08
9.34362e-08
9.33899e-08
9.33561e-08
9.33138e-08
9.32829e-08
9.32437e-08
9.32146e-08
9.31775e-08
9.31504e-08
9.31161e-08
9.30919e-08
9.30599e-08
9.30378e-08
9.30074e-08
9.29865e-08
9.29568e-08
9.29364e-08
9.2907e-08
9.28869e-08
9.28581e-08
9.28381e-08
9.28095e-08
9.27893e-08
9.27604e-08
9.27393e-08
9.27082e-08
9.2684e-08
9.26663e-08
9.26189e-08
9.26365e-08
9.40925e-08
6.95878e-08
2.28148e-08
1.23929e-07
1.2313e-07
1.22396e-07
1.21387e-07
1.20029e-07
1.18371e-07
1.16586e-07
1.14762e-07
1.13018e-07
1.11363e-07
1.09854e-07
1.0846e-07
1.0721e-07
1.06063e-07
1.05041e-07
1.04102e-07
1.03267e-07
1.02496e-07
1.01809e-07
1.01172e-07
1.00603e-07
1.00073e-07
9.95978e-08
9.91534e-08
9.87532e-08
9.83776e-08
9.80375e-08
9.7718e-08
9.74271e-08
9.71534e-08
9.69023e-08
9.66666e-08
9.64485e-08
9.62443e-08
9.60536e-08
9.58757e-08
9.57076e-08
9.55521e-08
9.54032e-08
9.5267e-08
9.51338e-08
9.50137e-08
9.48948e-08
9.47886e-08
9.46811e-08
9.45873e-08
9.44898e-08
9.44074e-08
9.43182e-08
9.42451e-08
9.41632e-08
9.4098e-08
9.40213e-08
9.39634e-08
9.38938e-08
9.38414e-08
9.37776e-08
9.37302e-08
9.36722e-08
9.36296e-08
9.35751e-08
9.35353e-08
9.34855e-08
9.34487e-08
9.34021e-08
9.33682e-08
9.33257e-08
9.32947e-08
9.32552e-08
9.3226e-08
9.31887e-08
9.31615e-08
9.31271e-08
9.31027e-08
9.30705e-08
9.30483e-08
9.30177e-08
9.29967e-08
9.29668e-08
9.29463e-08
9.29167e-08
9.28965e-08
9.28676e-08
9.28476e-08
9.28187e-08
9.27985e-08
9.27694e-08
9.27484e-08
9.27173e-08
9.26932e-08
9.26755e-08
9.26285e-08
9.26477e-08
9.41681e-08
6.67179e-08
2.39621e-08
1.23929e-07
1.23128e-07
1.22395e-07
1.21392e-07
1.20044e-07
1.18397e-07
1.1662e-07
1.14804e-07
1.13064e-07
1.11413e-07
1.09906e-07
1.08512e-07
1.07262e-07
1.06114e-07
1.05092e-07
1.04151e-07
1.03315e-07
1.02542e-07
1.01854e-07
1.01215e-07
1.00645e-07
1.00113e-07
9.96367e-08
9.9191e-08
9.87895e-08
9.84126e-08
9.80713e-08
9.77506e-08
9.74586e-08
9.71839e-08
9.69318e-08
9.66951e-08
9.64761e-08
9.6271e-08
9.60795e-08
9.59009e-08
9.57321e-08
9.55758e-08
9.54263e-08
9.52894e-08
9.51556e-08
9.5035e-08
9.49155e-08
9.48087e-08
9.47007e-08
9.46065e-08
9.45085e-08
9.44257e-08
9.4336e-08
9.42626e-08
9.41802e-08
9.41148e-08
9.40377e-08
9.39795e-08
9.39095e-08
9.38568e-08
9.37927e-08
9.3745e-08
9.36867e-08
9.36439e-08
9.35891e-08
9.35491e-08
9.3499e-08
9.34621e-08
9.34153e-08
9.33812e-08
9.33384e-08
9.33073e-08
9.32675e-08
9.32383e-08
9.32008e-08
9.31735e-08
9.31388e-08
9.31143e-08
9.30819e-08
9.30595e-08
9.30287e-08
9.30076e-08
9.29775e-08
9.29569e-08
9.29272e-08
9.29069e-08
9.28777e-08
9.28577e-08
9.28286e-08
9.28084e-08
9.27791e-08
9.27582e-08
9.27271e-08
9.2703e-08
9.26854e-08
9.26387e-08
9.26597e-08
9.42463e-08
6.41523e-08
2.51718e-08
1.23929e-07
1.23126e-07
1.22394e-07
1.21397e-07
1.2006e-07
1.18423e-07
1.16657e-07
1.14847e-07
1.13113e-07
1.11465e-07
1.0996e-07
1.08566e-07
1.07317e-07
1.06168e-07
1.05145e-07
1.04203e-07
1.03365e-07
1.02591e-07
1.01901e-07
1.01261e-07
1.00689e-07
1.00156e-07
9.96781e-08
9.92308e-08
9.8828e-08
9.84497e-08
9.81072e-08
9.77852e-08
9.74921e-08
9.72162e-08
9.69632e-08
9.67254e-08
9.65055e-08
9.62994e-08
9.61071e-08
9.59276e-08
9.5758e-08
9.5601e-08
9.54508e-08
9.53133e-08
9.51788e-08
9.50576e-08
9.49375e-08
9.48302e-08
9.47216e-08
9.46269e-08
9.45284e-08
9.44452e-08
9.4355e-08
9.42812e-08
9.41984e-08
9.41326e-08
9.40551e-08
9.39966e-08
9.39263e-08
9.38733e-08
9.38088e-08
9.37609e-08
9.37023e-08
9.36592e-08
9.36041e-08
9.35639e-08
9.35135e-08
9.34764e-08
9.34293e-08
9.33951e-08
9.3352e-08
9.33207e-08
9.32808e-08
9.32514e-08
9.32136e-08
9.31862e-08
9.31513e-08
9.31268e-08
9.3094e-08
9.30716e-08
9.30405e-08
9.30193e-08
9.2989e-08
9.29683e-08
9.29384e-08
9.2918e-08
9.28886e-08
9.28685e-08
9.28393e-08
9.2819e-08
9.27895e-08
9.27687e-08
9.27376e-08
9.27135e-08
9.26959e-08
9.26497e-08
9.26724e-08
9.43262e-08
6.18616e-08
2.64455e-08
1.23929e-07
1.23124e-07
1.22393e-07
1.21403e-07
1.20076e-07
1.18451e-07
1.16694e-07
1.14893e-07
1.13164e-07
1.1152e-07
1.10017e-07
1.08624e-07
1.07375e-07
1.06226e-07
1.05201e-07
1.04258e-07
1.03419e-07
1.02643e-07
1.01952e-07
1.0131e-07
1.00736e-07
1.00202e-07
9.97219e-08
9.9273e-08
9.88687e-08
9.8489e-08
9.81452e-08
9.78219e-08
9.75276e-08
9.72506e-08
9.69964e-08
9.67576e-08
9.65366e-08
9.63296e-08
9.61364e-08
9.5956e-08
9.57856e-08
9.56279e-08
9.54769e-08
9.53386e-08
9.52035e-08
9.50816e-08
9.49609e-08
9.48531e-08
9.47439e-08
9.46487e-08
9.45496e-08
9.44659e-08
9.43753e-08
9.4301e-08
9.42178e-08