/*--------------------------------*- C++ -*----------------------------------*\
| =========                 |                                                 |
| \\      /  F ield         | OpenFOAM: The Open Source CFD Toolbox           |
|  \\    /   O peration     | Version:  v2012                                 |
|   \\  /    A nd           | Website:  www.openfoam.com                      |
|    \\/     M anipulation  |                                                 |
\*---------------------------------------------------------------------------*/
FoamFile
{
    version     2.0;
    format      ascii;
    class       volScalarField;
    location    "8";
    object      p;
}
// * * * * * * * * * * * * * * * * * * * * * * * * * * * * * * * * * * * * * //

dimensions      [0 2 -2 0 0 0 0];


internalField   nonuniform List<scalar> 
209825
(
6.99677
6.99953
7.00638
7.0167
7.02994
7.04589
7.06445
7.08555
7.10904
7.13484
7.16285
7.19301
7.22524
7.2595
7.29573
7.3339
7.37398
7.41593
7.45973
7.50536
7.55282
7.60209
7.65316
7.70605
7.76074
7.81725
7.87558
7.93575
7.99777
8.06167
8.12746
8.19518
8.26484
8.33648
8.41014
8.48586
8.56367
8.64362
8.72577
8.81015
8.89684
8.98589
9.07737
9.17134
9.26788
9.36707
9.469
9.57376
9.68144
9.79216
9.90601
10.0231
10.1436
10.2676
10.3953
10.5269
10.6624
10.8021
10.9462
11.0948
11.2483
11.4068
11.5707
11.7401
11.9155
12.0972
12.2855
12.4808
12.6836
12.8944
13.1137
13.3421
13.5771
13.8216
14.0824
14.3618
14.6622
14.9864
15.3376
15.7198
16.138
16.598
17.1075
17.676
18.3157
19.0433
19.8803
20.8586
22.0198
23.4398
25.1957
27.5688
30.5811
36.1461
42.4361
75.1937
6.99677
6.99953
7.00638
7.0167
7.02994
7.04589
7.06445
7.08555
7.10904
7.13484
7.16285
7.19301
7.22524
7.2595
7.29573
7.3339
7.37398
7.41593
7.45973
7.50536
7.55282
7.60209
7.65316
7.70605
7.76074
7.81725
7.87558
7.93575
7.99777
8.06167
8.12746
8.19518
8.26484
8.33648
8.41014
8.48586
8.56367
8.64362
8.72577
8.81015
8.89684
8.98589
9.07737
9.17134
9.26788
9.36707
9.469
9.57376
9.68144
9.79216
9.90601
10.0231
10.1436
10.2676
10.3953
10.5269
10.6624
10.8021
10.9462
11.0948
11.2483
11.4068
11.5707
11.7401
11.9155
12.0972
12.2855
12.4808
12.6836
12.8944
13.1137
13.3421
13.5771
13.8216
14.0824
14.3618
14.6622
14.9864
15.3376
15.7198
16.138
16.598
17.1075
17.6759
18.3157
19.0432
19.8803
20.8586
22.0197
23.4397
25.1956
27.5685
30.5807
36.1436
42.4153
74.5567
6.99677
6.99953
7.00638
7.0167
7.02994
7.04589
7.06445
7.08555
7.10904
7.13484
7.16285
7.19301
7.22524
7.2595
7.29573
7.3339
7.37398
7.41593
7.45973
7.50536
7.55282
7.60209
7.65316
7.70605
7.76074
7.81725
7.87558
7.93575
7.99777
8.06167
8.12746
8.19518
8.26484
8.33648
8.41014
8.48586
8.56367
8.64362
8.72577
8.81015
8.89684
8.98589
9.07736
9.17134
9.26788
9.36707
9.469
9.57376
9.68144
9.79216
9.90601
10.0231
10.1436
10.2676
10.3953
10.5269
10.6624
10.8021
10.9462
11.0948
11.2483
11.4068
11.5707
11.7401
11.9155
12.0972
12.2855
12.4808
12.6836
12.8944
13.1137
13.342
13.5771
13.8216
14.0824
14.3618
14.6622
14.9863
15.3376
15.7198
16.1379
16.598
17.1075
17.6759
18.3157
19.0432
19.8802
20.8585
22.0196
23.4395
25.1953
27.568
30.5799
36.1396
42.393
73.7868
6.99677
6.99953
7.00638
7.0167
7.02994
7.04589
7.06445
7.08555
7.10904
7.13484
7.16285
7.19301
7.22524
7.2595
7.29573
7.3339
7.37398
7.41593
7.45973
7.50536
7.55282
7.60209
7.65316
7.70605
7.76074
7.81725
7.87558
7.93575
7.99777
8.06167
8.12746
8.19518
8.26484
8.33648
8.41014
8.48586
8.56367
8.64362
8.72576
8.81015
8.89684
8.98589
9.07736
9.17134
9.26788
9.36707
9.469
9.57376
9.68144
9.79215
9.90601
10.0231
10.1436
10.2676
10.3953
10.5269
10.6624
10.8021
10.9462
11.0948
11.2483
11.4068
11.5707
11.7401
11.9155
12.0972
12.2855
12.4808
12.6836
12.8944
13.1137
13.342
13.5771
13.8216
14.0824
14.3618
14.6622
14.9863
15.3375
15.7198
16.1379
16.598
17.1074
17.6759
18.3156
19.0431
19.8801
20.8584
22.0194
23.4392
25.1949
27.5672
30.5787
36.1338
42.3729
73.0249
6.99677
6.99953
7.00638
7.0167
7.02994
7.04589
7.06445
7.08555
7.10904
7.13484
7.16285
7.19301
7.22524
7.2595
7.29573
7.3339
7.37398
7.41593
7.45973
7.50536
7.55282
7.60209
7.65316
7.70605
7.76074
7.81725
7.87558
7.93575
7.99777
8.06167
8.12746
8.19518
8.26484
8.33648
8.41014
8.48586
8.56367
8.64362
8.72576
8.81015
8.89684
8.98589
9.07736
9.17133
9.26788
9.36707
9.469
9.57376
9.68144
9.79215
9.90601
10.0231
10.1436
10.2676
10.3953
10.5269
10.6624
10.8021
10.9462
11.0948
11.2483
11.4068
11.5707
11.7401
11.9155
12.0972
12.2855
12.4808
12.6836
12.8944
13.1137
13.342
13.5771
13.8215
14.0824
14.3618
14.6621
14.9863
15.3375
15.7197
16.1379
16.5979
17.1074
17.6758
18.3155
19.043
19.88
20.8582
22.0191
23.4388
25.1943
27.5661
30.5771
36.1262
42.3532
72.2758
6.99677
6.99953
7.00638
7.0167
7.02994
7.04589
7.06445
7.08555
7.10904
7.13484
7.16285
7.19301
7.22524
7.2595
7.29573
7.3339
7.37398
7.41592
7.45973
7.50536
7.55282
7.60209
7.65316
7.70605
7.76074
7.81725
7.87558
7.93575
7.99777
8.06167
8.12746
8.19518
8.26484
8.33648
8.41014
8.48586
8.56367
8.64362
8.72576
8.81015
8.89684
8.98589
9.07736
9.17133
9.26788
9.36707
9.469
9.57376
9.68144
9.79215
9.906
10.0231
10.1436
10.2676
10.3953
10.5269
10.6624
10.8021
10.9462
11.0948
11.2483
11.4068
11.5707
11.7401
11.9155
12.0972
12.2854
12.4808
12.6836
12.8944
13.1136
13.342
13.5771
13.8215
14.0824
14.3617
14.6621
14.9863
15.3375
15.7197
16.1378
16.5978
17.1073
17.6757
18.3154
19.0428
19.8798
20.8579
22.0188
23.4383
25.1936
27.5647
30.575
36.1168
42.3311
71.5302
6.99677
6.99953
7.00638
7.0167
7.02994
7.04589
7.06445
7.08554
7.10904
7.13484
7.16285
7.19301
7.22524
7.2595
7.29573
7.3339
7.37398
7.41592
7.45973
7.50536
7.55282
7.60209
7.65316
7.70604
7.76074
7.81724
7.87558
7.93575
7.99777
8.06167
8.12746
8.19517
8.26484
8.33648
8.41014
8.48585
8.56367
8.64362
8.72576
8.81015
8.89684
8.98589
9.07736
9.17133
9.26787
9.36707
9.469
9.57375
9.68144
9.79215
9.906
10.0231
10.1436
10.2676
10.3953
10.5269
10.6624
10.8021
10.9462
11.0948
11.2483
11.4068
11.5707
11.7401
11.9155
12.0971
12.2854
12.4808
12.6836
12.8943
13.1136
13.342
13.5771
13.8215
14.0823
14.3617
14.6621
14.9862
15.3374
15.7196
16.1378
16.5978
17.1072
17.6756
18.3153
19.0427
19.8796
20.8576
22.0184
23.4377
25.1927
27.5631
30.5725
36.1053
42.3055
70.7856
6.99677
6.99953
7.00638
7.0167
7.02994
7.04589
7.06445
7.08554
7.10904
7.13484
7.16285
7.193
7.22524
7.2595
7.29573
7.3339
7.37398
7.41592
7.45973
7.50536
7.55282
7.60209
7.65316
7.70604
7.76074
7.81724
7.87558
7.93575
7.99777
8.06167
8.12746
8.19517
8.26484
8.33648
8.41014
8.48585
8.56366
8.64362
8.72576
8.81015
8.89684
8.98588
9.07736
9.17133
9.26787
9.36707
9.469
9.57375
9.68143
9.79215
9.906
10.0231
10.1436
10.2676
10.3953
10.5269
10.6624
10.8021
10.9461
11.0948
11.2483
11.4068
11.5706
11.7401
11.9155
12.0971
12.2854
12.4807
12.6835
12.8943
13.1136
13.342
13.577
13.8215
14.0823
14.3617
14.662
14.9862
15.3374
15.7196
16.1377
16.5977
17.1071
17.6755
18.3151
19.0425
19.8793
20.8572
22.0179
23.437
25.1916
27.561
30.5695
36.0918
42.2762
70.0412
6.99677
6.99953
7.00638
7.0167
7.02994
7.04589
7.06445
7.08554
7.10904
7.13484
7.16285
7.193
7.22524
7.2595
7.29573
7.3339
7.37398
7.41592
7.45972
7.50536
7.55282
7.60208
7.65316
7.70604
7.76074
7.81724
7.87558
7.93575
7.99777
8.06167
8.12746
8.19517
8.26484
8.33648
8.41014
8.48585
8.56366
8.64362
8.72576
8.81015
8.89683
8.98588
9.07736
9.17133
9.26787
9.36706
9.46899
9.57375
9.68143
9.79214
9.90599
10.0231
10.1436
10.2676
10.3953
10.5268
10.6624
10.8021
10.9461
11.0948
11.2483
11.4068
11.5706
11.7401
11.9155
12.0971
12.2854
12.4807
12.6835
12.8943
13.1136
13.3419
13.577
13.8214
14.0823
14.3616
14.662
14.9861
15.3373
15.7195
16.1376
16.5976
17.107
17.6753
18.3149
19.0422
19.879
20.8568
22.0173
23.4361
25.1903
27.5587
30.5659
36.0762
42.2433
69.2969
6.99677
6.99953
7.00638
7.0167
7.02994
7.04589
7.06445
7.08554
7.10904
7.13484
7.16285
7.193
7.22524
7.2595
7.29573
7.3339
7.37398
7.41592
7.45972
7.50536
7.55282
7.60208
7.65316
7.70604
7.76074
7.81724
7.87558
7.93575
7.99777
8.06167
8.12746
8.19517
8.26483
8.33648
8.41014
8.48585
8.56366
8.64362
8.72576
8.81015
8.89683
8.98588
9.07736
9.17133
9.26787
9.36706
9.46899
9.57375
9.68143
9.79214
9.90599
10.0231
10.1436
10.2676
10.3953
10.5268
10.6624
10.8021
10.9461
11.0948
11.2483
11.4068
11.5706
11.7401
11.9155
12.0971
12.2854
12.4807
12.6835
12.8943
13.1136
13.3419
13.577
13.8214
14.0822
14.3616
14.6619
14.986
15.3372
15.7194
16.1375
16.5974
17.1068
17.6751
18.3147
19.0419
19.8786
20.8563
22.0166
23.4351
25.1888
27.5559
30.5618
36.0584
42.2066
68.5529
6.99677
6.99953
7.00638
7.0167
7.02994
7.04589
7.06445
7.08554
7.10904
7.13484
7.16285
7.193
7.22524
7.2595
7.29573
7.3339
7.37397
7.41592
7.45972
7.50536
7.55282
7.60208
7.65316
7.70604
7.76074
7.81724
7.87558
7.93575
7.99777
8.06167
8.12746
8.19517
8.26483
8.33648
8.41014
8.48585
8.56366
8.64361
8.72576
8.81014
8.89683
8.98588
9.07735
9.17132
9.26787
9.36706
9.46899
9.57374
9.68142
9.79213
9.90599
10.0231
10.1436
10.2676
10.3953
10.5268
10.6624
10.802
10.9461
11.0948
11.2482
11.4068
11.5706
11.7401
11.9154
12.0971
12.2854
12.4807
12.6835
12.8942
13.1135
13.3419
13.5769
13.8213
14.0822
14.3615
14.6619
14.986
15.3371
15.7193
16.1374
16.5973
17.1066
17.6749
18.3144
19.0416
19.8782
20.8558
22.0158
23.434
25.1872
27.5528
30.5571
36.0384
42.1662
67.8094
6.99677
6.99953
7.00638
7.0167
7.02994
7.04589
7.06445
7.08554
7.10904
7.13484
7.16285
7.193
7.22524
7.2595
7.29573
7.3339
7.37397
7.41592
7.45972
7.50536
7.55281
7.60208
7.65316
7.70604
7.76073
7.81724
7.87557
7.93574
7.99777
8.06167
8.12746
8.19517
8.26483
8.33648
8.41013
8.48585
8.56366
8.64361
8.72575
8.81014
8.89683
8.98588
9.07735
9.17132
9.26786
9.36705
9.46898
9.57374
9.68142
9.79213
9.90598
10.0231
10.1436
10.2676
10.3953
10.5268
10.6623
10.802
10.9461
11.0948
11.2482
11.4068
11.5706
11.74
11.9154
12.0971
12.2853
12.4807
12.6834
12.8942
13.1135
13.3418
13.5769
13.8213
14.0821
14.3614
14.6618
14.9859
15.337
15.7192
16.1372
16.5971
17.1064
17.6747
18.3141
19.0412
19.8777
20.8551
22.0149
23.4327
25.1853
27.5493
30.5517
36.0161
42.1218
67.0668
6.99677
6.99953
7.00638
7.0167
7.02994
7.04589
7.06445
7.08554
7.10904
7.13484
7.16285
7.193
7.22524
7.25949
7.29573
7.3339
7.37397
7.41592
7.45972
7.50536
7.55281
7.60208
7.65316
7.70604
7.76073
7.81724
7.87557
7.93574
7.99777
8.06166
8.12746
8.19517
8.26483
8.33647
8.41013
8.48585
8.56366
8.64361
8.72575
8.81014
8.89683
8.98587
9.07735
9.17132
9.26786
9.36705
9.46898
9.57373
9.68141
9.79212
9.90597
10.0231
10.1436
10.2676
10.3953
10.5268
10.6623
10.802
10.9461
11.0947
11.2482
11.4067
11.5706
11.74
11.9154
12.097
12.2853
12.4806
12.6834
12.8942
13.1134
13.3418
13.5768
13.8212
14.082
14.3614
14.6617
14.9858
15.3369
15.7191
16.1371
16.597
17.1062
17.6744
18.3138
19.0408
19.8772
20.8544
22.014
23.4312
25.1832
27.5453
30.5458
35.9915
42.0734
66.3253
6.99677
6.99953
7.00637
7.0167
7.02994
7.04589
7.06445
7.08554
7.10904
7.13484
7.16285
7.193
7.22524
7.25949
7.29573
7.3339
7.37397
7.41592
7.45972
7.50536
7.55281
7.60208
7.65316
7.70604
7.76073
7.81724
7.87557
7.93574
7.99777
8.06166
8.12745
8.19517
8.26483
8.33647
8.41013
8.48585
8.56366
8.64361
8.72575
8.81014
8.89682
8.98587
9.07734
9.17131
9.26785
9.36705
9.46897
9.57373
9.68141
9.79212
9.90597
10.0231
10.1436
10.2676
10.3953
10.5268
10.6623
10.802
10.9461
11.0947
11.2482
11.4067
11.5706
11.74
11.9154
12.097
12.2853
12.4806
12.6834
12.8941
13.1134
13.3417
13.5768
13.8212
14.082
14.3613
14.6616
14.9857
15.3368
15.7189
16.1369
16.5968
17.106
17.6741
18.3134
19.0403
19.8766
20.8536
22.0129
23.4296
25.1808
27.541
30.5391
35.9645
42.0209
65.5851
6.99677
6.99953
7.00637
7.0167
7.02994
7.04589
7.06445
7.08554
7.10904
7.13484
7.16285
7.193
7.22524
7.25949
7.29573
7.3339
7.37397
7.41592
7.45972
7.50536
7.55281
7.60208
7.65316
7.70604
7.76073
7.81724
7.87557
7.93574
7.99777
8.06166
8.12745
8.19517
8.26483
8.33647
8.41013
8.48584
8.56365
8.6436
8.72575
8.81013
8.89682
8.98587
9.07734
9.17131
9.26785
9.36704
9.46897
9.57372
9.6814
9.79211
9.90596
10.0231
10.1436
10.2676
10.3953
10.5268
10.6623
10.802
10.9461
11.0947
11.2482
11.4067
11.5705
11.74
11.9154
12.097
12.2852
12.4806
12.6833
12.8941
13.1133
13.3417
13.5767
13.8211
14.0819
14.3612
14.6615
14.9856
15.3367
15.7188
16.1367
16.5965
17.1057
17.6738
18.313
19.0398
19.8759
20.8527
22.0117
23.4279
25.1782
27.5361
30.5317
35.9352
41.9642
64.8467
6.99677
6.99953
7.00637
7.0167
7.02994
7.04589
7.06445
7.08554
7.10904
7.13484
7.16285
7.193
7.22524
7.25949
7.29573
7.3339
7.37397
7.41592
7.45972
7.50536
7.55281
7.60208
7.65316
7.70604
7.76073
7.81724
7.87557
7.93574
7.99776
8.06166
8.12745
8.19516
8.26483
8.33647
8.41013
8.48584
8.56365
8.6436
8.72574
8.81013
8.89682
8.98586
9.07734
9.17131
9.26785
9.36704
9.46896
9.57372
9.6814
9.7921
9.90595
10.0231
10.1436
10.2676
10.3953
10.5268
10.6623
10.802
10.9461
11.0947
11.2482
11.4067
11.5705
11.74
11.9153
12.097
12.2852
12.4805
12.6833
12.894
13.1133
13.3416
13.5766
13.821
14.0818
14.3611
14.6614
14.9854
15.3365
15.7186
16.1365
16.5963
17.1054
17.6734
18.3126
19.0393
19.8752
20.8518
22.0103
23.4259
25.1753
27.5308
30.5235
35.9034
41.9031
64.1102
6.99677
6.99953
7.00637
7.0167
7.02994
7.04589
7.06445
7.08554
7.10904
7.13484
7.16285
7.193
7.22524
7.25949
7.29573
7.3339
7.37397
7.41592
7.45972
7.50536
7.55281
7.60208
7.65316
7.70604
7.76073
7.81724
7.87557
7.93574
7.99776
8.06166
8.12745
8.19516
8.26482
8.33647
8.41012
8.48584
8.56365
8.6436
8.72574
8.81013
8.89681
8.98586
9.07733
9.1713
9.26784
9.36703
9.46896
9.57371
9.68139
9.7921
9.90594
10.0231
10.1435
10.2676
10.3953
10.5268
10.6623
10.802
10.946
11.0947
11.2481
11.4066
11.5705
11.7399
11.9153
12.0969
12.2852
12.4805
12.6832
12.894
13.1132
13.3415
13.5766
13.8209
14.0817
14.361
14.6613
14.9853
15.3363
15.7184
16.1363
16.596
17.1051
17.673
18.3121
19.0386
19.8744
20.8507
22.0089
23.4238
25.1722
27.525
30.5146
35.8691
41.8376
63.3759
6.99677
6.99953
7.00637
7.0167
7.02994
7.04589
7.06445
7.08554
7.10904
7.13484
7.16285
7.193
7.22523
7.25949
7.29573
7.3339
7.37397
7.41592
7.45972
7.50535
7.55281
7.60208
7.65315
7.70604
7.76073
7.81724
7.87557
7.93574
7.99776
8.06166
8.12745
8.19516
8.26482
8.33646
8.41012
8.48584
8.56364
8.6436
8.72574
8.81012
8.89681
8.98585
9.07733
9.1713
9.26783
9.36702
9.46895
9.5737
9.68138
9.79209
9.90593
10.023
10.1435
10.2676
10.3952
10.5268
10.6623
10.802
10.946
11.0947
11.2481
11.4066
11.5705
11.7399
11.9153
12.0969
12.2851
12.4804
12.6832
12.8939
13.1132
13.3415
13.5765
13.8208
14.0816
14.3609
14.6611
14.9851
15.3362
15.7182
16.136
16.5957
17.1047
17.6726
18.3116
19.038
19.8735
20.8495
22.0073
23.4214
25.1688
27.5187
30.5048
35.8323
41.7676
62.6441
6.99677
6.99953
7.00637
7.0167
7.02994
7.04588
7.06445
7.08554
7.10904
7.13484
7.16285
7.193
7.22523
7.25949
7.29573
7.3339
7.37397
7.41592
7.45972
7.50535
7.55281
7.60208
7.65315
7.70604
7.76073
7.81723
7.87557
7.93574
7.99776
8.06165
8.12745
8.19516
8.26482
8.33646
8.41012
8.48583
8.56364
8.64359
8.72573
8.81012
8.8968
8.98585
9.07732
9.17129
9.26783
9.36702
9.46894
9.57369
9.68137
9.79208
9.90592
10.023
10.1435
10.2675
10.3952
10.5267
10.6622
10.8019
10.946
11.0946
11.2481
11.4066
11.5704
11.7399
11.9152
12.0968
12.2851
12.4804
12.6831
12.8939
13.1131
13.3414
13.5764
13.8207
14.0815
14.3607
14.661
14.985
15.336
15.7179
16.1358
16.5954
17.1043
17.6721
18.311
19.0372
19.8726
20.8483
22.0056
23.4189
25.165
27.5118
30.4942
35.793
41.693
61.915
6.99677
6.99953
7.00637
7.0167
7.02994
7.04588
7.06445
7.08554
7.10904
7.13483
7.16285
7.193
7.22523
7.25949
7.29573
7.3339
7.37397
7.41592
7.45972
7.50535
7.55281
7.60208
7.65315
7.70603
7.76073
7.81723
7.87556
7.93573
7.99776
8.06165
8.12744
8.19516
8.26482
8.33646
8.41012
8.48583
8.56364
8.64359
8.72573
8.81011
8.8968
8.98584
9.07732
9.17128
9.26782
9.36701
9.46893
9.57369
9.68136
9.79207
9.90591
10.023
10.1435
10.2675
10.3952
10.5267
10.6622
10.8019
10.946
11.0946
11.2481
11.4066
11.5704
11.7398
11.9152
12.0968
12.285
12.4803
12.6831
12.8938
13.113
13.3413
13.5763
13.8206
14.0814
14.3606
14.6608
14.9848
15.3358
15.7177
16.1355
16.5951
17.1039
17.6716
18.3103
19.0364
19.8715
20.8469
22.0037
23.4162
25.161
27.5044
30.4826
35.751
41.6137
61.1889
6.99677
6.99953
7.00637
7.0167
7.02994
7.04588
7.06445
7.08554
7.10904
7.13483
7.16285
7.193
7.22523
7.25949
7.29572
7.3339
7.37397
7.41592
7.45972
7.50535
7.55281
7.60207
7.65315
7.70603
7.76072
7.81723
7.87556
7.93573
7.99775
8.06165
8.12744
8.19515
8.26481
8.33645
8.41011
8.48583
8.56363
8.64358
8.72572
8.81011
8.89679
8.98584
9.07731
9.17128
9.26781
9.367
9.46893
9.57368
9.68135
9.79206
9.9059
10.023
10.1435
10.2675
10.3952
10.5267
10.6622
10.8019
10.9459
11.0946
11.248
11.4065
11.5704
11.7398
11.9151
12.0967
12.285
12.4802
12.683
12.8937
13.1129
13.3412
13.5762
13.8205
14.0812
14.3604
14.6606
14.9846
15.3355
15.7174
16.1352
16.5947
17.1035
17.6711
18.3097
19.0356
19.8704
20.8454
22.0017
23.4132
25.1566
27.4964
30.4701
35.7064
41.5297
60.466
6.99676
6.99953
7.00637
7.0167
7.02994
7.04588
7.06445
7.08554
7.10904
7.13483
7.16284
7.193
7.22523
7.25949
7.29572
7.33389
7.37397
7.41592
7.45972
7.50535
7.55281
7.60207
7.65315
7.70603
7.76072
7.81723
7.87556
7.93573
7.99775
8.06165
8.12744
8.19515
8.26481
8.33645
8.41011
8.48582
8.56363
8.64358
8.72572
8.8101
8.89679
8.98583
9.0773
9.17127
9.26781
9.36699
9.46892
9.57367
9.68134
9.79204
9.90589
10.023
10.1435
10.2675
10.3952
10.5267
10.6622
10.8019
10.9459
11.0946
11.248
11.4065
11.5703
11.7397
11.9151
12.0967
12.2849
12.4802
12.6829
12.8936
13.1128
13.3411
13.5761
13.8204
14.0811
14.3603
14.6604
14.9844
15.3353
15.7171
16.1348
16.5943
17.103
17.6705
18.3089
19.0347
19.8692
20.8438
21.9995
23.41
25.1519
27.4878
30.4566
35.6591
41.4408
59.7466
6.99676
6.99953
7.00637
7.0167
7.02994
7.04588
7.06445
7.08554
7.10904
7.13483
7.16284
7.193
7.22523
7.25949
7.29572
7.33389
7.37397
7.41591
7.45971
7.50535
7.5528
7.60207
7.65315
7.70603
7.76072
7.81723
7.87556
7.93573
7.99775
8.06165
8.12744
8.19515
8.26481
8.33645
8.41011
8.48582
8.56362
8.64357
8.72571
8.8101
8.89678
8.98583
9.0773
9.17126
9.2678
9.36698
9.46891
9.57365
9.68133
9.79203
9.90587
10.023
10.1435
10.2675
10.3951
10.5267
10.6622
10.8018
10.9459
11.0945
11.248
11.4065
11.5703
11.7397
11.915
12.0966
12.2848
12.4801
12.6828
12.8935
13.1127
13.341
13.576
13.8202
14.0809
14.3601
14.6602
14.9841
15.335
15.7168
16.1344
16.5938
17.1025
17.6698
18.3081
19.0337
19.8679
20.8421
21.9971
23.4066
25.1468
27.4786
30.442
35.6091
41.3471
59.0309
6.99676
6.99953
7.00637
7.0167
7.02994
7.04588
7.06445
7.08554
7.10903
7.13483
7.16284
7.193
7.22523
7.25949
7.29572
7.33389
7.37397
7.41591
7.45971
7.50535
7.5528
7.60207
7.65315
7.70603
7.76072
7.81722
7.87556
7.93572
7.99775
8.06164
8.12743
8.19514
8.2648
8.33644
8.4101
8.48581
8.56362
8.64357
8.72571
8.81009
8.89677
8.98582
9.07729
9.17125
9.26779
9.36697
9.46889
9.57364
9.68132
9.79202
9.90586
10.023
10.1434
10.2674
10.3951
10.5266
10.6621
10.8018
10.9459
11.0945
11.2479
11.4064
11.5702
11.7396
11.915
12.0966
12.2848
12.48
12.6828
12.8934
13.1126
13.3409
13.5758
13.8201
14.0807
14.3599
14.66
14.9839
15.3347
15.7165
16.1341
16.5934
17.1019
17.6691
18.3073
19.0326
19.8665
20.8403
21.9946
23.4029
25.1414
27.4687
30.4264
35.5564
41.2484
58.3192
6.99676
6.99953
7.00637
7.0167
7.02994
7.04588
7.06445
7.08554
7.10903
7.13483
7.16284
7.193
7.22523
7.25949
7.29572
7.33389
7.37396
7.41591
7.45971
7.50535
7.5528
7.60207
7.65314
7.70603
7.76072
7.81722
7.87555
7.93572
7.99774
8.06164
8.12743
8.19514
8.2648
8.33644
8.4101
8.48581
8.56361
8.64356
8.7257
8.81009
8.89677
8.98581
9.07728
9.17124
9.26778
9.36696
9.46888
9.57363
9.6813
9.792
9.90584
10.0229
10.1434
10.2674
10.3951
10.5266
10.6621
10.8018
10.9458
11.0944
11.2479
11.4064
11.5702
11.7396
11.9149
12.0965
12.2847
12.4799
12.6827
12.8933
13.1125
13.3407
13.5757
13.8199
14.0806
14.3597
14.6598
14.9836
15.3344
15.7161
16.1336
16.5929
17.1013
17.6684
18.3064
19.0314
19.8651
20.8383
21.9919
23.3989
25.1356
27.4581
30.4096
35.5008
41.1447
57.6117
6.99676
6.99953
7.00637
7.01669
7.02994
7.04588
7.06445
7.08554
7.10903
7.13483
7.16284
7.19299
7.22523
7.25949
7.29572
7.33389
7.37396
7.41591
7.45971
7.50534
7.5528
7.60207
7.65314
7.70602
7.76071
7.81722
7.87555
7.93572
7.99774
8.06164
8.12743
8.19514
8.2648
8.33644
8.41009
8.4858
8.56361
8.64356
8.7257
8.81008
8.89676
8.9858
9.07727
9.17123
9.26777
9.36695
9.46887
9.57362
9.68129
9.79198
9.90582
10.0229
10.1434
10.2674
10.3951
10.5266
10.6621
10.8017
10.9458
11.0944
11.2478
11.4063
11.5701
11.7395
11.9148
12.0964
12.2846
12.4799
12.6826
12.8932
13.1124
13.3406
13.5755
13.8198
14.0804
14.3595
14.6595
14.9833
15.3341
15.7157
16.1332
16.5923
17.1007
17.6676
18.3054
19.0302
19.8635
20.8362
21.989
23.3947
25.1293
27.4468
30.3916
35.4425
41.0359
56.9086
6.99676
6.99953
7.00637
7.01669
7.02994
7.04588
7.06445
7.08554
7.10903
7.13483
7.16284
7.19299
7.22523
7.25948
7.29572
7.33389
7.37396
7.41591
7.45971
7.50534
7.5528
7.60206
7.65314
7.70602
7.76071
7.81722
7.87555
7.93572
7.99774
8.06163
8.12742
8.19513
8.26479
8.33643
8.41009
8.4858
8.5636
8.64355
8.72569
8.81007
8.89675
8.98579
9.07726
9.17122
9.26776
9.36694
9.46886
9.5736
9.68127
9.79197
9.9058
10.0229
10.1434
10.2674
10.3951
10.5265
10.662
10.8017
10.9457
11.0944
11.2478
11.4063
11.5701
11.7395
11.9148
12.0963
12.2845
12.4798
12.6825
12.8931
13.1123
13.3405
13.5754
13.8196
14.0802
14.3592
14.6593
14.983
15.3337
15.7153
16.1327
16.5918
17.1
17.6668
18.3044
19.0289
19.8618
20.8339
21.9859
23.3902
25.1227
27.4348
30.3725
35.3812
40.9221
56.2101
6.99676
6.99953
7.00637
7.01669
7.02993
7.04588
7.06444
7.08553
7.10903
7.13483
7.16284
7.19299
7.22523
7.25948
7.29572
7.33389
7.37396
7.41591
7.45971
7.50534
7.5528
7.60206
7.65314
7.70602
7.76071
7.81721
7.87555
7.93571
7.99773
8.06163
8.12742
8.19513
8.26479
8.33643
8.41008
8.48579
8.5636
8.64354
8.72568
8.81006
8.89674
8.98578
9.07725
9.17121
9.26774
9.36693
9.46884
9.57359
9.68125
9.79195
9.90578
10.0229
10.1434
10.2674
10.395
10.5265
10.662
10.8017
10.9457
11.0943
11.2477
11.4062
11.57
11.7394
11.9147
12.0963
12.2845
12.4797
12.6823
12.893
13.1121
13.3403
13.5752
13.8194
14.0799
14.359
14.659
14.9827
15.3333
15.7149
16.1322
16.5911
17.0992
17.6659
18.3032
19.0275
19.86
20.8315
21.9826
23.3854
25.1156
27.4221
30.352
35.3171
40.8031
55.5166
6.99676
6.99953
7.00637
7.01669
7.02993
7.04588
7.06444
7.08553
7.10903
7.13483
7.16284
7.19299
7.22522
7.25948
7.29572
7.33389
7.37396
7.41591
7.4597
7.50534
7.55279
7.60206
7.65313
7.70602
7.76071
7.81721
7.87554
7.93571
7.99773
8.06162
8.12741
8.19512
8.26478
8.33642
8.41008
8.48578
8.56359
8.64354
8.72567
8.81005
8.89673
8.98577
9.07724
9.1712
9.26773
9.36691
9.46883
9.57357
9.68124
9.79193
9.90576
10.0229
10.1433
10.2673
10.395
10.5265
10.662
10.8016
10.9457
11.0943
11.2477
11.4062
11.5699
11.7393
11.9146
12.0962
12.2844
12.4796
12.6822
12.8929
13.112
13.3401
13.575
13.8192
14.0797
14.3587
14.6587
14.9823
15.3329
15.7144
16.1316
16.5905
17.0984
17.6649
18.3021
19.026
19.858
20.8289
21.9791
23.3803
25.108
27.4085
30.3302
35.2501
40.6789
54.828
6.99676
6.99952
7.00636
7.01669
7.02993
7.04588
7.06444
7.08553
7.10903
7.13483
7.16284
7.19299
7.22522
7.25948
7.29571
7.33388
7.37396
7.4159
7.4597
7.50534
7.55279
7.60206
7.65313
7.70601
7.7607
7.81721
7.87554
7.93571
7.99773
8.06162
8.12741
8.19512
8.26478
8.33641
8.41007
8.48578
8.56358
8.64353
8.72567
8.81004
8.89672
8.98576
9.07723
9.17119
9.26772
9.3669
9.46881
9.57355
9.68122
9.79191
9.90574
10.0228
10.1433
10.2673
10.395
10.5264
10.6619
10.8016
10.9456
11.0942
11.2476
11.4061
11.5699
11.7392
11.9145
12.0961
12.2843
12.4794
12.6821
12.8927
13.1118
13.34
13.5748
13.8189
14.0795
14.3584
14.6584
14.982
15.3325
15.7139
16.131
16.5898
17.0976
17.6639
18.3008
19.0244
19.856
20.8262
21.9754
23.3748
25.1
27.3942
30.307
35.1801
40.5496
54.1448
6.99676
6.99952
7.00636
7.01669
7.02993
7.04588
7.06444
7.08553
7.10903
7.13482
7.16284
7.19299
7.22522
7.25948
7.29571
7.33388
7.37395
7.4159
7.4597
7.50533
7.55279
7.60206
7.65313
7.70601
7.7607
7.81721
7.87553
7.9357
7.99772
8.06162
8.1274
8.19511
8.26477
8.33641
8.41006
8.48577
8.56358
8.64352
8.72566
8.81003
8.89671
8.98575
9.07721
9.17117
9.2677
9.36688
9.46879
9.57353
9.6812
9.79189
9.90571
10.0228
10.1433
10.2673
10.3949
10.5264
10.6619
10.8015
10.9456
11.0942
11.2476
11.406
11.5698
11.7392
11.9144
12.096
12.2841
12.4793
12.682
12.8926
13.1116
13.3398
13.5746
13.8187
14.0792
14.3581
14.658
14.9816
15.3321
15.7134
16.1304
16.589
17.0967
17.6628
18.2995
19.0227
19.8538
20.8233
21.9714
23.369
25.0914
27.379
30.2824
35.1072
40.415
53.467
6.99676
6.99952
7.00636
7.01669
7.02993
7.04587
7.06444
7.08553
7.10903
7.13482
7.16283
7.19299
7.22522
7.25948
7.29571
7.33388
7.37395
7.4159
7.4597
7.50533
7.55279
7.60205
7.65313
7.70601
7.7607
7.8172
7.87553
7.9357
7.99772
8.06161
8.1274
8.19511
8.26476
8.3364
8.41006
8.48576
8.56357
8.64351
8.72565
8.81002
8.8967
8.98574
9.0772
9.17116
9.26769
9.36686
9.46878
9.57351
9.68117
9.79186
9.90569
10.0228
10.1432
10.2672
10.3949
10.5264
10.6618
10.8015
10.9455
11.0941
11.2475
11.406
11.5697
11.7391
11.9144
12.0959
12.284
12.4792
12.6818
12.8924
13.1115
13.3396
13.5744
13.8185
14.0789
14.3578
14.6577
14.9812
15.3316
15.7128
16.1298
16.5883
17.0958
17.6617
18.298
19.0209
19.8515
20.8202
21.9672
23.3629
25.0824
27.3629
30.2564
35.0312
40.2752
52.7948
6.99676
6.99952
7.00636
7.01669
7.02993
7.04587
7.06444
7.08553
7.10903
7.13482
7.16283
7.19299
7.22522
7.25948
7.29571
7.33388
7.37395
7.4159
7.4597
7.50533
7.55278
7.60205
7.65312
7.706
7.76069
7.8172
7.87553
7.93569
7.99771
8.06161
8.12739
8.1951
8.26476
8.3364
8.41005
8.48576
8.56356
8.6435
8.72564
8.81001
8.89669
8.98573
9.07719
9.17114
9.26767
9.36685
9.46876
9.57349
9.68115
9.79184
9.90566
10.0227
10.1432
10.2672
10.3949
10.5263
10.6618
10.8014
10.9455
11.094
11.2474
11.4059
11.5696
11.739
11.9143
12.0958
12.2839
12.4791
12.6817
12.8922
13.1113
13.3394
13.5741
13.8182
14.0786
14.3575
14.6573
14.9807
15.3311
15.7122
16.1291
16.5874
17.0948
17.6604
18.2965
19.019
19.849
20.8169
21.9627
23.3564
25.0728
27.3459
30.2288
34.9523
40.1302
52.1285
6.99675
6.99952
7.00636
7.01669
7.02993
7.04587
7.06444
7.08553
7.10902
7.13482
7.16283
7.19298
7.22522
7.25947
7.29571
7.33388
7.37395
7.41589
7.45969
7.50533
7.55278
7.60205
7.65312
7.706
7.76069
7.81719
7.87552
7.93569
7.99771
8.0616
8.12739
8.19509
8.26475
8.33639
8.41004
8.48575
8.56355
8.64349
8.72563
8.81
8.89668
8.98571
9.07717
9.17113
9.26765
9.36683
9.46874
9.57347
9.68113
9.79181
9.90563
10.0227
10.1432
10.2672
10.3948
10.5263
10.6617
10.8014
10.9454
11.094
11.2474
11.4058
11.5695
11.7389
11.9141
12.0956
12.2838
12.4789
12.6815
12.8921
13.1111
13.3391
13.5739
13.8179
14.0783
14.3571
14.6569
14.9802
15.3305
15.7116
16.1283
16.5865
17.0937
17.6591
18.2949
19.017
19.8464
20.8135
21.958
23.3496
25.0626
27.328
30.1996
34.8703
39.9799
51.4682
6.99675
6.99952
7.00636
7.01668
7.02993
7.04587
7.06444
7.08553
7.10902
7.13482
7.16283
7.19298
7.22521
7.25947
7.2957
7.33387
7.37395
7.41589
7.45969
7.50532
7.55278
7.60204
7.65312
7.706
7.76069
7.81719
7.87552
7.93568
7.9977
8.06159
8.12738
8.19509
8.26474
8.33638
8.41003
8.48574
8.56354
8.64348
8.72561
8.80999
8.89666
8.9857
9.07716
9.17111
9.26763
9.36681
9.46871
9.57345
9.6811
9.79178
9.9056
10.0227
10.1431
10.2671
10.3948
10.5262
10.6617
10.8013
10.9453
11.0939
11.2473
11.4057
11.5695
11.7388
11.914
12.0955
12.2836
12.4788
12.6813
12.8919
13.1109
13.3389
13.5736
13.8176
14.078
14.3567
14.6564
14.9797
15.3299
15.7109
16.1275
16.5856
17.0926
17.6578
18.2932
19.0148
19.8437
20.8098
21.953
23.3423
25.0519
27.3091
30.1688
34.7852
39.8244
50.814
6.99675
6.99952
7.00636
7.01668
7.02993
7.04587
7.06443
7.08552
7.10902
7.13482
7.16283
7.19298
7.22521
7.25947
7.2957
7.33387
7.37394
7.41589
7.45969
7.50532
7.55277
7.60204
7.65311
7.70599
7.76068
7.81718
7.87551
7.93568
7.9977
8.06159
8.12737
8.19508
8.26474
8.33637
8.41002
8.48573
8.56353
8.64347
8.7256
8.80998
8.89665
8.98568
9.07714
9.17109
9.26761
9.36679
9.46869
9.57342
9.68107
9.79175
9.90557
10.0226
10.1431
10.2671
10.3947
10.5262
10.6616
10.8013
10.9453
11.0938
11.2472
11.4056
11.5694
11.7387
11.9139
12.0954
12.2835
12.4786
12.6812
12.8917
13.1106
13.3386
13.5733
13.8173
14.0776
14.3563
14.656
14.9792
15.3293
15.7102
16.1267
16.5846
17.0914
17.6563
18.2914
19.0126
19.8407
20.8059
21.9477
23.3346
25.0405
27.2893
30.1363
34.6971
39.6638
50.1661
6.99675
6.99952
7.00636
7.01668
7.02992
7.04587
7.06443
7.08552
7.10902
7.13482
7.16283
7.19298
7.22521
7.25947
7.2957
7.33387
7.37394
7.41589
7.45969
7.50532
7.55277
7.60204
7.65311
7.70599
7.76068
7.81718
7.87551
7.93567
7.99769
8.06158
8.12737
8.19507
8.26473
8.33636
8.41001
8.48572
8.56352
8.64346
8.72559
8.80996
8.89663
8.98567
9.07712
9.17107
9.26759
9.36676
9.46867
9.57339
9.68104
9.79172
9.90553
10.0226
10.1431
10.267
10.3947
10.5261
10.6616
10.8012
10.9452
11.0938
11.2471
11.4055
11.5693
11.7386
11.9138
12.0953
12.2833
12.4784
12.681
12.8914
13.1104
13.3384
13.573
13.817
14.0772
14.3559
14.6555
14.9787
15.3287
15.7095
16.1258
16.5836
17.0901
17.6548
18.2895
19.0102
19.8377
20.8018
21.9421
23.3265
25.0286
27.2684
30.1021
34.6059
39.4979
49.5246
6.99675
6.99952
7.00635
7.01668
7.02992
7.04587
7.06443
7.08552
7.10902
7.13481
7.16282
7.19298
7.22521
7.25946
7.2957
7.33387
7.37394
7.41588
7.45968
7.50531
7.55277
7.60203
7.65311
7.70598
7.76067
7.81718
7.8755
7.93567
7.99769
8.06158
8.12736
8.19507
8.26472
8.33635
8.41
8.48571
8.56351
8.64345
8.72558
8.80995
8.89662
8.98565
9.0771
9.17105
9.26757
9.36674
9.46864
9.57337
9.68101
9.79169
9.9055
10.0226
10.143
10.267
10.3946
10.5261
10.6615
10.8011
10.9451
11.0937
11.247
11.4054
11.5691
11.7384
11.9137
12.0951
12.2832
12.4782
12.6808
12.8912
13.1101
13.3381
13.5727
13.8166
14.0768
14.3555
14.655
14.9781
15.328
15.7087
16.1249
16.5825
17.0888
17.6532
18.2875
19.0077
19.8344
20.7975
21.9362
23.318
25.0159
27.2464
30.066
34.5116
39.3269
48.8898
6.99675
6.99951
7.00635
7.01668
7.02992
7.04586
7.06443
7.08552
7.10902
7.13481
7.16282
7.19297
7.22521
7.25946
7.29569
7.33386
7.37393
7.41588
7.45968
7.50531
7.55276
7.60203
7.6531
7.70598
7.76067
7.81717
7.8755
7.93566
7.99768
8.06157
8.12735
8.19506
8.26471
8.33634
8.40999
8.4857
8.56349
8.64343
8.72556
8.80993
8.8966
8.98563
9.07708
9.17103
9.26755