/*--------------------------------*- C++ -*----------------------------------*\
| =========                 |                                                 |
| \\      /  F ield         | OpenFOAM: The Open Source CFD Toolbox           |
|  \\    /   O peration     | Version:  v2012                                 |
|   \\  /    A nd           | Website:  www.openfoam.com                      |
|    \\/     M anipulation  |                                                 |
\*---------------------------------------------------------------------------*/
FoamFile
{
    version     2.0;
    format      ascii;
    class       volVectorField;
    location    "8";
    object      wallShearStress;
}
// * * * * * * * * * * * * * * * * * * * * * * * * * * * * * * * * * * * * * //

dimensions      [0 2 -2 0 0 0 0];


internalField   uniform (0 0 0);

boundaryField
{
    inlet
    {
        type            calculated;
        value           uniform (0 0 0);
    }
    outlet
    {
        type            calculated;
        value           uniform (0 0 0);
    }
    topWall
    {
        type            calculated;
        value           nonuniform List<vector> 
545
(
(9.4798e-09 -1.0466e-08 0)
(9.4755e-09 -2.9277e-08 0)
(9.46678e-09 -4.8834e-08 0)
(9.45382e-09 -6.7817e-08 0)
(9.43718e-09 -8.59799e-08 0)
(9.4173e-09 -1.03554e-07 0)
(9.39444e-09 -1.20686e-07 0)
(9.36882e-09 -1.37368e-07 0)
(9.3407e-09 -1.53561e-07 0)
(9.31033e-09 -1.69263e-07 0)
(9.27794e-09 -1.84497e-07 0)
(9.24374e-09 -1.99277e-07 0)
(9.20793e-09 -2.13616e-07 0)
(9.1707e-09 -2.27522e-07 0)
(9.13222e-09 -2.41004e-07 0)
(9.09264e-09 -2.54074e-07 0)
(9.05214e-09 -2.66744e-07 0)
(9.01083e-09 -2.79025e-07 0)
(8.96886e-09 -2.90926e-07 0)
(8.92634e-09 -3.02459e-07 0)
(8.88339e-09 -3.13635e-07 0)
(8.84011e-09 -3.24463e-07 0)
(8.79659e-09 -3.34954e-07 0)
(8.75293e-09 -3.45117e-07 0)
(8.7092e-09 -3.54964e-07 0)
(8.66549e-09 -3.64503e-07 0)
(8.62185e-09 -3.73743e-07 0)
(8.57835e-09 -3.82695e-07 0)
(8.53505e-09 -3.91366e-07 0)
(8.492e-09 -3.99767e-07 0)
(8.44925e-09 -4.07904e-07 0)
(8.40684e-09 -4.15787e-07 0)
(8.36481e-09 -4.23424e-07 0)
(8.3232e-09 -4.30823e-07 0)
(8.28203e-09 -4.3799e-07 0)
(8.24134e-09 -4.44935e-07 0)
(8.20114e-09 -4.51663e-07 0)
(8.16147e-09 -4.58181e-07 0)
(8.12234e-09 -4.64498e-07 0)
(8.08376e-09 -4.70618e-07 0)
(8.04576e-09 -4.76549e-07 0)
(8.00834e-09 -4.82297e-07 0)
(7.97151e-09 -4.87867e-07 0)
(7.93529e-09 -4.93265e-07 0)
(7.89967e-09 -4.98498e-07 0)
(7.86467e-09 -5.03569e-07 0)
(7.83029e-09 -5.08485e-07 0)
(7.79653e-09 -5.13251e-07 0)
(7.76339e-09 -5.17872e-07 0)
(7.73087e-09 -5.22351e-07 0)
(7.69897e-09 -5.26694e-07 0)
(7.66769e-09 -5.30906e-07 0)
(7.63702e-09 -5.34989e-07 0)
(7.60697e-09 -5.3895e-07 0)
(7.57753e-09 -5.42791e-07 0)
(7.54869e-09 -5.46516e-07 0)
(7.52044e-09 -5.50129e-07 0)
(7.49279e-09 -5.53635e-07 0)
(7.46573e-09 -5.57035e-07 0)
(7.43924e-09 -5.60333e-07 0)
(7.41333e-09 -5.63534e-07 0)
(7.38798e-09 -5.66639e-07 0)
(7.36318e-09 -5.69652e-07 0)
(7.33894e-09 -5.72576e-07 0)
(7.31523e-09 -5.75414e-07 0)
(7.29206e-09 -5.78168e-07 0)
(7.26941e-09 -5.80841e-07 0)
(7.24727e-09 -5.83435e-07 0)
(7.22564e-09 -5.85954e-07 0)
(7.20452e-09 -5.88398e-07 0)
(7.18385e-09 -5.90772e-07 0)
(7.16382e-09 -5.93073e-07 0)
(7.14436e-09 -5.95285e-07 0)
(7.12521e-09 -5.97429e-07 0)
(7.10627e-09 -5.99546e-07 0)
(7.0874e-09 -6.01651e-07 0)
(7.06858e-09 -6.03744e-07 0)
(7.0498e-09 -6.05823e-07 0)
(7.03105e-09 -6.07885e-07 0)
(7.01234e-09 -6.09932e-07 0)
(6.99367e-09 -6.11965e-07 0)
(6.97503e-09 -6.13983e-07 0)
(6.95644e-09 -6.15986e-07 0)
(6.93788e-09 -6.17975e-07 0)
(6.91936e-09 -6.1995e-07 0)
(6.90088e-09 -6.2191e-07 0)
(6.88244e-09 -6.23856e-07 0)
(6.86404e-09 -6.25788e-07 0)
(6.84569e-09 -6.27706e-07 0)
(6.82737e-09 -6.2961e-07 0)
(6.8091e-09 -6.31501e-07 0)
(6.79088e-09 -6.33377e-07 0)
(6.77268e-09 -6.35241e-07 0)
(6.75459e-09 -6.37089e-07 0)
(6.73632e-09 -6.38929e-07 0)
(6.71901e-09 -6.40735e-07 0)
(6.70301e-09 -6.42389e-07 0)
(6.68756e-09 -6.43884e-07 0)
(6.67263e-09 -6.45339e-07 0)
(6.65779e-09 -6.468e-07 0)
(6.64292e-09 -6.48272e-07 0)
(6.628e-09 -6.49746e-07 0)
(6.61302e-09 -6.51219e-07 0)
(6.59799e-09 -6.52689e-07 0)
(6.58289e-09 -6.5416e-07 0)
(6.56774e-09 -6.55632e-07 0)
(6.55252e-09 -6.57104e-07 0)
(6.53725e-09 -6.58575e-07 0)
(6.52192e-09 -6.60047e-07 0)
(6.50652e-09 -6.61519e-07 0)
(6.49107e-09 -6.6299e-07 0)
(6.47556e-09 -6.64462e-07 0)
(6.45999e-09 -6.65934e-07 0)
(6.44436e-09 -6.67405e-07 0)
(6.42866e-09 -6.68876e-07 0)
(6.41291e-09 -6.70348e-07 0)
(6.3971e-09 -6.71819e-07 0)
(6.38123e-09 -6.7329e-07 0)
(6.3653e-09 -6.74761e-07 0)
(6.34931e-09 -6.76231e-07 0)
(6.33326e-09 -6.77701e-07 0)
(6.31714e-09 -6.79171e-07 0)
(6.30097e-09 -6.80641e-07 0)
(6.28474e-09 -6.8211e-07 0)
(6.26845e-09 -6.83579e-07 0)
(6.25209e-09 -6.85048e-07 0)
(6.23568e-09 -6.86516e-07 0)
(6.21921e-09 -6.87984e-07 0)
(6.20267e-09 -6.89452e-07 0)
(6.18608e-09 -6.90919e-07 0)
(6.16942e-09 -6.92385e-07 0)
(6.15271e-09 -6.93851e-07 0)
(6.13593e-09 -6.95317e-07 0)
(6.1191e-09 -6.96782e-07 0)
(6.1022e-09 -6.98246e-07 0)
(6.08524e-09 -6.9971e-07 0)
(6.06822e-09 -7.01173e-07 0)
(6.05115e-09 -7.02635e-07 0)
(6.03401e-09 -7.04097e-07 0)
(6.01681e-09 -7.05558e-07 0)
(5.99955e-09 -7.07018e-07 0)
(5.98223e-09 -7.08478e-07 0)
(5.96485e-09 -7.09936e-07 0)
(5.94741e-09 -7.11394e-07 0)
(5.92991e-09 -7.12851e-07 0)
(5.91235e-09 -7.14307e-07 0)
(5.89472e-09 -7.15763e-07 0)
(5.87704e-09 -7.17217e-07 0)
(5.8593e-09 -7.1867e-07 0)
(5.8415e-09 -7.20123e-07 0)
(5.82363e-09 -7.21574e-07 0)
(5.80571e-09 -7.23024e-07 0)
(5.78773e-09 -7.24474e-07 0)
(5.76968e-09 -7.25922e-07 0)
(5.75158e-09 -7.27369e-07 0)
(5.73342e-09 -7.28815e-07 0)
(5.71519e-09 -7.3026e-07 0)
(5.69691e-09 -7.31703e-07 0)
(5.67857e-09 -7.33145e-07 0)
(5.66016e-09 -7.34586e-07 0)
(5.6417e-09 -7.36026e-07 0)
(5.62318e-09 -7.37465e-07 0)
(5.6046e-09 -7.38902e-07 0)
(5.58595e-09 -7.40337e-07 0)
(5.56725e-09 -7.41771e-07 0)
(5.54849e-09 -7.43204e-07 0)
(5.52967e-09 -7.44636e-07 0)
(5.5108e-09 -7.46065e-07 0)
(5.49186e-09 -7.47494e-07 0)
(5.47286e-09 -7.4892e-07 0)
(5.45381e-09 -7.50345e-07 0)
(5.4347e-09 -7.51769e-07 0)
(5.41552e-09 -7.53191e-07 0)
(5.39629e-09 -7.54611e-07 0)
(5.377e-09 -7.56029e-07 0)
(5.35766e-09 -7.57446e-07 0)
(5.33825e-09 -7.58861e-07 0)
(5.31879e-09 -7.60274e-07 0)
(5.29927e-09 -7.61685e-07 0)
(5.27969e-09 -7.63094e-07 0)
(5.26005e-09 -7.64502e-07 0)
(5.24036e-09 -7.65907e-07 0)
(5.22061e-09 -7.67311e-07 0)
(5.2008e-09 -7.68712e-07 0)
(5.18094e-09 -7.70112e-07 0)
(5.16101e-09 -7.71509e-07 0)
(5.14104e-09 -7.72904e-07 0)
(5.121e-09 -7.74298e-07 0)
(5.10091e-09 -7.75689e-07 0)
(5.08076e-09 -7.77077e-07 0)
(5.06056e-09 -7.78464e-07 0)
(5.0403e-09 -7.79848e-07 0)
(5.01999e-09 -7.8123e-07 0)
(4.99962e-09 -7.8261e-07 0)
(4.97919e-09 -7.83987e-07 0)
(4.95871e-09 -7.85362e-07 0)
(4.93818e-09 -7.86734e-07 0)
(4.91759e-09 -7.88104e-07 0)
(4.89695e-09 -7.89471e-07 0)
(4.87625e-09 -7.90836e-07 0)
(4.8555e-09 -7.92198e-07 0)
(4.8347e-09 -7.93558e-07 0)
(4.81384e-09 -7.94915e-07 0)
(4.79293e-09 -7.96269e-07 0)
(4.77196e-09 -7.97621e-07 0)
(4.75095e-09 -7.98969e-07 0)
(4.72988e-09 -8.00315e-07 0)
(4.70876e-09 -8.01659e-07 0)
(4.68759e-09 -8.02999e-07 0)
(4.66636e-09 -8.04336e-07 0)
(4.64509e-09 -8.05671e-07 0)
(4.62376e-09 -8.07002e-07 0)
(4.60238e-09 -8.08331e-07 0)
(4.58096e-09 -8.09656e-07 0)
(4.55948e-09 -8.10979e-07 0)
(4.53795e-09 -8.12298e-07 0)
(4.51637e-09 -8.13614e-07 0)
(4.49475e-09 -8.14927e-07 0)
(4.47307e-09 -8.16237e-07 0)
(4.45135e-09 -8.17543e-07 0)
(4.42958e-09 -8.18846e-07 0)
(4.40776e-09 -8.20146e-07 0)
(4.38589e-09 -8.21442e-07 0)
(4.36397e-09 -8.22735e-07 0)
(4.34201e-09 -8.24025e-07 0)
(4.32e-09 -8.25311e-07 0)
(4.29795e-09 -8.26593e-07 0)
(4.27585e-09 -8.27872e-07 0)
(4.2537e-09 -8.29148e-07 0)
(4.23151e-09 -8.30419e-07 0)
(4.20928e-09 -8.31687e-07 0)
(4.187e-09 -8.32952e-07 0)
(4.16467e-09 -8.34212e-07 0)
(4.1423e-09 -8.35469e-07 0)
(4.11989e-09 -8.36722e-07 0)
(4.09744e-09 -8.37971e-07 0)
(4.07494e-09 -8.39216e-07 0)
(4.0524e-09 -8.40458e-07 0)
(4.02982e-09 -8.41695e-07 0)
(4.0072e-09 -8.42928e-07 0)
(3.98454e-09 -8.44158e-07 0)
(3.96184e-09 -8.45383e-07 0)
(3.9391e-09 -8.46604e-07 0)
(3.91632e-09 -8.4782e-07 0)
(3.8935e-09 -8.49033e-07 0)
(3.87064e-09 -8.50241e-07 0)
(3.84774e-09 -8.51445e-07 0)
(3.82481e-09 -8.52645e-07 0)
(3.80183e-09 -8.53841e-07 0)
(3.77883e-09 -8.55031e-07 0)
(3.75578e-09 -8.56218e-07 0)
(3.7327e-09 -8.574e-07 0)
(3.70959e-09 -8.58578e-07 0)
(3.68644e-09 -8.59751e-07 0)
(3.66325e-09 -8.60919e-07 0)
(3.64003e-09 -8.62083e-07 0)
(3.61678e-09 -8.63242e-07 0)
(3.5935e-09 -8.64396e-07 0)
(3.57018e-09 -8.65545e-07 0)
(3.54683e-09 -8.6669e-07 0)
(3.52346e-09 -8.6783e-07 0)
(3.50005e-09 -8.68965e-07 0)
(3.47661e-09 -8.70095e-07 0)
(3.45314e-09 -8.71221e-07 0)
(3.42964e-09 -8.72341e-07 0)
(3.40611e-09 -8.73456e-07 0)
(3.38259e-09 -8.74566e-07 0)
(3.35887e-09 -8.75672e-07 0)
(3.33584e-09 -8.76766e-07 0)
(3.31378e-09 -8.77803e-07 0)
(3.29205e-09 -8.78785e-07 0)
(3.27058e-09 -8.79757e-07 0)
(3.24903e-09 -8.80734e-07 0)
(3.22729e-09 -8.8172e-07 0)
(3.20535e-09 -8.8271e-07 0)
(3.1832e-09 -8.83704e-07 0)
(3.16084e-09 -8.847e-07 0)
(3.13827e-09 -8.85701e-07 0)
(3.11548e-09 -8.86705e-07 0)
(3.09248e-09 -8.87713e-07 0)
(3.06927e-09 -8.88724e-07 0)
(3.04584e-09 -8.89738e-07 0)
(3.02219e-09 -8.90756e-07 0)
(2.99832e-09 -8.91776e-07 0)
(2.97423e-09 -8.928e-07 0)
(2.94992e-09 -8.93826e-07 0)
(2.92539e-09 -8.94854e-07 0)
(2.90063e-09 -8.95885e-07 0)
(2.87566e-09 -8.96919e-07 0)
(2.85045e-09 -8.97954e-07 0)
(2.82503e-09 -8.98992e-07 0)
(2.79937e-09 -9.00031e-07 0)
(2.77349e-09 -9.01073e-07 0)
(2.74738e-09 -9.02115e-07 0)
(2.72105e-09 -9.03159e-07 0)
(2.69448e-09 -9.04204e-07 0)
(2.66769e-09 -9.0525e-07 0)
(2.64067e-09 -9.06297e-07 0)
(2.61341e-09 -9.07344e-07 0)
(2.58593e-09 -9.08392e-07 0)
(2.55821e-09 -9.09439e-07 0)
(2.53027e-09 -9.10487e-07 0)
(2.50209e-09 -9.11534e-07 0)
(2.47368e-09 -9.12581e-07 0)
(2.44504e-09 -9.13627e-07 0)
(2.41617e-09 -9.14673e-07 0)
(2.38706e-09 -9.15716e-07 0)
(2.35773e-09 -9.16759e-07 0)
(2.32816e-09 -9.17799e-07 0)
(2.29837e-09 -9.18838e-07 0)
(2.26834e-09 -9.19874e-07 0)
(2.23809e-09 -9.20908e-07 0)
(2.2076e-09 -9.21939e-07 0)
(2.17689e-09 -9.22967e-07 0)
(2.14595e-09 -9.23991e-07 0)
(2.11478e-09 -9.25011e-07 0)
(2.08339e-09 -9.26028e-07 0)
(2.05178e-09 -9.2704e-07 0)
(2.01994e-09 -9.28047e-07 0)
(1.98787e-09 -9.2905e-07 0)
(1.95559e-09 -9.30047e-07 0)
(1.92309e-09 -9.31038e-07 0)
(1.89037e-09 -9.32023e-07 0)
(1.85744e-09 -9.33002e-07 0)
(1.82429e-09 -9.33974e-07 0)
(1.79093e-09 -9.34938e-07 0)
(1.75736e-09 -9.35895e-07 0)
(1.72358e-09 -9.36844e-07 0)
(1.6896e-09 -9.37785e-07 0)
(1.65542e-09 -9.38717e-07 0)
(1.62104e-09 -9.3964e-07 0)
(1.58646e-09 -9.40553e-07 0)
(1.55169e-09 -9.41456e-07 0)
(1.51672e-09 -9.42349e-07 0)
(1.48157e-09 -9.43231e-07 0)
(1.44624e-09 -9.44101e-07 0)
(1.41073e-09 -9.4496e-07 0)
(1.37504e-09 -9.45806e-07 0)
(1.33918e-09 -9.46639e-07 0)
(1.30315e-09 -9.47459e-07 0)
(1.26696e-09 -9.48266e-07 0)
(1.23061e-09 -9.49058e-07 0)
(1.19411e-09 -9.49835e-07 0)
(1.15746e-09 -9.50597e-07 0)
(1.12066e-09 -9.51344e-07 0)
(1.08372e-09 -9.52074e-07 0)
(1.04666e-09 -9.52787e-07 0)
(1.00946e-09 -9.53482e-07 0)
(9.72144e-10 -9.5416e-07 0)
(9.34711e-10 -9.54819e-07 0)
(8.9717e-10 -9.55459e-07 0)
(8.59526e-10 -9.5608e-07 0)
(8.21786e-10 -9.5668e-07 0)
(7.83957e-10 -9.5726e-07 0)
(7.46046e-10 -9.57818e-07 0)
(7.08061e-10 -9.58354e-07 0)
(6.70009e-10 -9.58868e-07 0)
(6.31899e-10 -9.59359e-07 0)
(5.93737e-10 -9.59825e-07 0)
(5.55532e-10 -9.60268e-07 0)
(5.17293e-10 -9.60685e-07 0)
(4.79028e-10 -9.61077e-07 0)
(4.40746e-10 -9.61443e-07 0)
(4.02457e-10 -9.61781e-07 0)
(3.64169e-10 -9.62093e-07 0)
(3.25892e-10 -9.62376e-07 0)
(2.87636e-10 -9.6263e-07 0)
(2.4941e-10 -9.62855e-07 0)
(2.11226e-10 -9.6305e-07 0)
(1.73093e-10 -9.63215e-07 0)
(1.35022e-10 -9.63348e-07 0)
(9.70232e-11 -9.63449e-07 0)
(5.91083e-11 -9.63517e-07 0)
(2.12882e-11 -9.63553e-07 0)
(-1.64258e-11 -9.63554e-07 0)
(-5.40221e-11 -9.63521e-07 0)
(-9.14888e-11 -9.63453e-07 0)
(-1.28814e-10 -9.63349e-07 0)
(-1.65986e-10 -9.63208e-07 0)
(-2.02992e-10 -9.63031e-07 0)
(-2.39821e-10 -9.62816e-07 0)
(-2.76458e-10 -9.62562e-07 0)
(-3.12892e-10 -9.6227e-07 0)
(-3.4911e-10 -9.61939e-07 0)
(-3.85098e-10 -9.61567e-07 0)
(-4.20845e-10 -9.61154e-07 0)
(-4.56335e-10 -9.60701e-07 0)
(-4.91557e-10 -9.60205e-07 0)
(-5.26497e-10 -9.59667e-07 0)
(-5.61141e-10 -9.59086e-07 0)
(-5.95476e-10 -9.58462e-07 0)
(-6.29488e-10 -9.57794e-07 0)
(-6.63163e-10 -9.57081e-07 0)
(-6.96489e-10 -9.56323e-07 0)
(-7.2945e-10 -9.55519e-07 0)
(-7.62034e-10 -9.5467e-07 0)
(-7.94227e-10 -9.53774e-07 0)
(-8.26015e-10 -9.52831e-07 0)
(-8.57384e-10 -9.5184e-07 0)
(-8.88322e-10 -9.50802e-07 0)
(-9.18813e-10 -9.49716e-07 0)
(-9.48846e-10 -9.48581e-07 0)
(-9.78406e-10 -9.47398e-07 0)
(-1.00748e-09 -9.46165e-07 0)
(-1.03606e-09 -9.44882e-07 0)
(-1.06412e-09 -9.4355e-07 0)
(-1.09166e-09 -9.42168e-07 0)
(-1.11866e-09 -9.40735e-07 0)
(-1.14512e-09 -9.39251e-07 0)
(-1.17101e-09 -9.37717e-07 0)
(-1.19633e-09 -9.36132e-07 0)
(-1.22106e-09 -9.34496e-07 0)
(-1.2452e-09 -9.32809e-07 0)
(-1.26873e-09 -9.3107e-07 0)
(-1.29164e-09 -9.29281e-07 0)
(-1.31392e-09 -9.27439e-07 0)
(-1.33556e-09 -9.25547e-07 0)
(-1.35656e-09 -9.23603e-07 0)
(-1.37689e-09 -9.21608e-07 0)
(-1.39656e-09 -9.19561e-07 0)
(-1.41555e-09 -9.17464e-07 0)
(-1.43385e-09 -9.15316e-07 0)
(-1.45147e-09 -9.13117e-07 0)
(-1.46838e-09 -9.10867e-07 0)
(-1.48459e-09 -9.08567e-07 0)
(-1.50008e-09 -9.06218e-07 0)
(-1.51486e-09 -9.03819e-07 0)
(-1.52891e-09 -9.0137e-07 0)
(-1.54223e-09 -8.98873e-07 0)
(-1.55482e-09 -8.96327e-07 0)
(-1.56666e-09 -8.93733e-07 0)
(-1.57777e-09 -8.91092e-07 0)
(-1.58813e-09 -8.88404e-07 0)
(-1.59775e-09 -8.8567e-07 0)
(-1.60662e-09 -8.8289e-07 0)
(-1.61474e-09 -8.80065e-07 0)
(-1.6221e-09 -8.77195e-07 0)
(-1.62872e-09 -8.74282e-07 0)
(-1.63459e-09 -8.71325e-07 0)
(-1.63971e-09 -8.68327e-07 0)
(-1.64408e-09 -8.65287e-07 0)
(-1.64771e-09 -8.62207e-07 0)
(-1.65059e-09 -8.59087e-07 0)
(-1.65273e-09 -8.55928e-07 0)
(-1.65414e-09 -8.52732e-07 0)
(-1.65482e-09 -8.49499e-07 0)
(-1.65477e-09 -8.46231e-07 0)
(-1.65399e-09 -8.42925e-07 0)
(-1.65254e-09 -8.39592e-07 0)
(-1.65022e-09 -8.36186e-07 0)
(-1.64688e-09 -8.32425e-07 0)
(-1.64251e-09 -8.28307e-07 0)
(-1.63709e-09 -8.24115e-07 0)
(-1.63073e-09 -8.19948e-07 0)
(-1.62353e-09 -8.15821e-07 0)
(-1.61555e-09 -8.11718e-07 0)
(-1.60683e-09 -8.07632e-07 0)
(-1.59741e-09 -8.03565e-07 0)
(-1.58732e-09 -7.99524e-07 0)
(-1.57662e-09 -7.9551e-07 0)
(-1.56533e-09 -7.91524e-07 0)
(-1.55349e-09 -7.87568e-07 0)
(-1.54114e-09 -7.83642e-07 0)
(-1.5283e-09 -7.79748e-07 0)
(-1.51501e-09 -7.75887e-07 0)
(-1.50129e-09 -7.7206e-07 0)
(-1.48717e-09 -7.68269e-07 0)
(-1.47268e-09 -7.64515e-07 0)
(-1.45784e-09 -7.60797e-07 0)
(-1.44268e-09 -7.57117e-07 0)
(-1.42722e-09 -7.53477e-07 0)
(-1.41147e-09 -7.49876e-07 0)
(-1.39545e-09 -7.46315e-07 0)
(-1.3792e-09 -7.42795e-07 0)
(-1.36271e-09 -7.39317e-07 0)
(-1.34601e-09 -7.35881e-07 0)
(-1.32911e-09 -7.32487e-07 0)
(-1.31203e-09 -7.29137e-07 0)
(-1.29478e-09 -7.2583e-07 0)
(-1.27737e-09 -7.22567e-07 0)
(-1.25981e-09 -7.19349e-07 0)
(-1.24212e-09 -7.16175e-07 0)
(-1.22429e-09 -7.13047e-07 0)
(-1.20635e-09 -7.09963e-07 0)
(-1.1883e-09 -7.06926e-07 0)
(-1.17014e-09 -7.03934e-07 0)
(-1.15189e-09 -7.00989e-07 0)
(-1.13355e-09 -6.9809e-07 0)
(-1.11512e-09 -6.95237e-07 0)
(-1.09662e-09 -6.92432e-07 0)
(-1.07804e-09 -6.89673e-07 0)
(-1.05939e-09 -6.86962e-07 0)
(-1.04068e-09 -6.84298e-07 0)
(-1.0219e-09 -6.81682e-07 0)
(-1.00306e-09 -6.79113e-07 0)
(-9.84172e-10 -6.76592e-07 0)
(-9.65223e-10 -6.7412e-07 0)
(-9.46223e-10 -6.71695e-07 0)
(-9.27171e-10 -6.69319e-07 0)
(-9.08071e-10 -6.66991e-07 0)
(-8.88922e-10 -6.64711e-07 0)
(-8.69727e-10 -6.6248e-07 0)
(-8.50485e-10 -6.60298e-07 0)
(-8.31198e-10 -6.58165e-07 0)
(-8.11867e-10 -6.56081e-07 0)
(-7.92492e-10 -6.54046e-07 0)
(-7.73073e-10 -6.5206e-07 0)
(-7.5361e-10 -6.50124e-07 0)
(-7.34104e-10 -6.48236e-07 0)
(-7.14555e-10 -6.46399e-07 0)
(-6.94964e-10 -6.44611e-07 0)
(-6.75329e-10 -6.42873e-07 0)
(-6.55652e-10 -6.41184e-07 0)
(-6.35932e-10 -6.39546e-07 0)
(-6.1617e-10 -6.37958e-07 0)
(-5.96366e-10 -6.3642e-07 0)
(-5.7652e-10 -6.34932e-07 0)
(-5.56632e-10 -6.33494e-07 0)
(-5.36703e-10 -6.32108e-07 0)
(-5.16733e-10 -6.30771e-07 0)
(-4.96722e-10 -6.29486e-07 0)
(-4.76671e-10 -6.28251e-07 0)
(-4.56581e-10 -6.27067e-07 0)
(-4.36453e-10 -6.25934e-07 0)
(-4.16286e-10 -6.24853e-07 0)
(-3.96083e-10 -6.23822e-07 0)
(-3.75843e-10 -6.22843e-07 0)
(-3.55569e-10 -6.21915e-07 0)
(-3.35261e-10 -6.21039e-07 0)
(-3.1492e-10 -6.20214e-07 0)
(-2.94549e-10 -6.19441e-07 0)
(-2.74148e-10 -6.1872e-07 0)
(-2.5372e-10 -6.1805e-07 0)
(-2.33265e-10 -6.17433e-07 0)
(-2.12786e-10 -6.16866e-07 0)
(-1.92284e-10 -6.16356e-07 0)
(-1.71761e-10 -6.15881e-07 0)
(-1.51223e-10 -6.15514e-07 0)
(-1.30655e-10 -6.15013e-07 0)
(-1.10115e-10 -6.15175e-07 0)
(-8.94264e-11 -6.13324e-07 0)
(-6.91779e-11 -6.18113e-07 0)
(-4.74998e-11 -5.99468e-07 0)
(-3.07778e-11 -6.48598e-07 0)
(-1.29647e-11 -5.66448e-07 0)
)
;
    }
    bottomWall
    {
        type            calculated;
        value           nonuniform List<vector> 
449
(
(-46.5204 -0.879898 0)
(-20.1271 -0.221957 0)
(-14.2545 -0.0269333 0)
(-11.9383 -0.0146398 0)
(-10.5736 -0.0106566 0)
(-9.62755 -0.00804003 0)
(-8.88493 -0.00643988 0)
(-8.28397 -0.00521281 0)
(-7.79075 -0.00431859 0)
(-7.37627 -0.0036734 0)
(-7.02031 -0.00317917 0)
(-6.71008 -0.00278282 0)
(-6.43676 -0.00245981 0)
(-6.19364 -0.0021941 0)
(-5.97554 -0.00197273 0)
(-5.77841 -0.00178579 0)
(-5.59908 -0.00162613 0)
(-5.43504 -0.00148854 0)
(-5.28421 -0.00136901 0)
(-5.14492 -0.0012644 0)
(-5.01575 -0.00117223 0)
(-4.89554 -0.00109054 0)
(-4.78329 -0.00101772 0)
(-4.67816 -0.000952506 0)
(-4.57942 -0.000893823 0)
(-4.48645 -0.000840796 0)
(-4.3987 -0.000792694 0)
(-4.31571 -0.000748903 0)
(-4.23704 -0.000708903 0)
(-4.16234 -0.000672251 0)
(-4.09129 -0.000638571 0)
(-4.02359 -0.000607537 0)
(-3.95899 -0.000578868 0)
(-3.89725 -0.000552322 0)
(-3.83817 -0.000527684 0)
(-3.78156 -0.000504771 0)
(-3.72726 -0.000483418 0)
(-3.6751 -0.000463481 0)
(-3.62495 -0.000444834 0)
(-3.57669 -0.000427363 0)
(-3.53019 -0.000410967 0)
(-3.48536 -0.000395556 0)
(-3.44209 -0.000381051 0)
(-3.40029 -0.000367379 0)
(-3.35988 -0.000354474 0)
(-3.32078 -0.000342279 0)
(-3.28294 -0.00033074 0)
(-3.24626 -0.00031981 0)
(-3.21071 -0.000309444 0)
(-3.17622 -0.000299603 0)
(-3.14274 -0.00029025 0)
(-3.11022 -0.000281353 0)
(-3.07861 -0.000272882 0)
(-3.04787 -0.000264809 0)
(-3.01797 -0.000257107 0)
(-2.98886 -0.000249755 0)
(-2.96051 -0.00024273 0)
(-2.93289 -0.000236012 0)
(-2.90596 -0.000229584 0)
(-2.8797 -0.000223428 0)
(-2.85408 -0.000217528 0)
(-2.82908 -0.00021187 0)
(-2.80466 -0.00020644 0)
(-2.7808 -0.000201227 0)
(-2.75749 -0.000196217 0)
(-2.73471 -0.0001914 0)
(-2.71243 -0.000186767 0)
(-2.69063 -0.000182307 0)
(-2.6693 -0.000178011 0)
(-2.64842 -0.000173872 0)
(-2.62797 -0.000169882 0)
(-2.60794 -0.000166033 0)
(-2.58832 -0.000162318 0)
(-2.56909 -0.000158732 0)
(-2.55024 -0.000155268 0)
(-2.53176 -0.000151919 0)
(-2.51362 -0.000148682 0)
(-2.49583 -0.000145551 0)
(-2.47838 -0.000142522 0)
(-2.46124 -0.000139589 0)
(-2.44441 -0.000136748 0)
(-2.42789 -0.000133997 0)
(-2.41166 -0.00013133 0)
(-2.39571 -0.000128744 0)
(-2.38004 -0.000126236 0)
(-2.36464 -0.000123803 0)
(-2.34949 -0.000121442 0)
(-2.3346 -0.000119149 0)
(-2.31995 -0.000116923 0)
(-2.30555 -0.000114759 0)
(-2.29137 -0.000112657 0)
(-2.27742 -0.000110614 0)
(-2.26369 -0.000108626 0)
(-2.25017 -0.000106694 0)
(-2.23687 -0.000104813 0)
(-2.22376 -0.000102983 0)
(-2.21085 -0.000101201 0)
(-2.19814 -9.94657e-05 0)
(-2.18561 -9.77756e-05 0)
(-2.17326 -9.61291e-05 0)
(-2.1611 -9.45245e-05 0)
(-2.1491 -9.29604e-05 0)
(-2.13728 -9.14354e-05 0)
(-2.12562 -8.99482e-05 0)
(-2.11413 -8.84974e-05 0)
(-2.10279 -8.7082e-05 0)
(-2.09161 -8.57006e-05 0)
(-2.08058 -8.43522e-05 0)
(-2.06969 -8.30358e-05 0)
(-2.05895 -8.17502e-05 0)
(-2.04835 -8.04945e-05 0)
(-2.03789 -7.92678e-05 0)
(-2.02756 -7.80691e-05 0)
(-2.01737 -7.68976e-05 0)
(-2.0073 -7.57524e-05 0)
(-1.99736 -7.46328e-05 0)
(-1.98754 -7.35379e-05 0)
(-1.97784 -7.2467e-05 0)
(-1.96826 -7.14194e-05 0)
(-1.9588 -7.03944e-05 0)
(-1.94945 -6.93914e-05 0)
(-1.94021 -6.84096e-05 0)
(-1.93108 -6.74486e-05 0)
(-1.92206 -6.65076e-05 0)
(-1.91314 -6.55862e-05 0)
(-1.90432 -6.46837e-05 0)
(-1.89561 -6.37997e-05 0)
(-1.88699 -6.29336e-05 0)
(-1.87847 -6.20849e-05 0)
(-1.87004 -6.12532e-05 0)
(-1.86171 -6.0438e-05 0)
(-1.85347 -5.96389e-05 0)
(-1.84531 -5.88553e-05 0)
(-1.83725 -5.8087e-05 0)
(-1.82927 -5.73335e-05 0)
(-1.82138 -5.65944e-05 0)
(-1.81357 -5.58694e-05 0)
(-1.80584 -5.51581e-05 0)
(-1.79819 -5.44601e-05 0)
(-1.79062 -5.37751e-05 0)
(-1.78312 -5.31027e-05 0)
(-1.77571 -5.24427e-05 0)
(-1.76836 -5.17948e-05 0)
(-1.7611 -5.11586e-05 0)
(-1.7539 -5.05338e-05 0)
(-1.74677 -4.99203e-05 0)
(-1.73972 -4.93176e-05 0)
(-1.73273 -4.87256e-05 0)
(-1.72581 -4.8144e-05 0)
(-1.71895 -4.75725e-05 0)
(-1.71216 -4.70109e-05 0)
(-1.70544 -4.6459e-05 0)
(-1.69878 -4.59166e-05 0)
(-1.69218 -4.53834e-05 0)
(-1.68564 -4.48591e-05 0)
(-1.67916 -4.43438e-05 0)
(-1.67274 -4.3837e-05 0)
(-1.66638 -4.33386e-05 0)
(-1.66007 -4.28485e-05 0)
(-1.65383 -4.23664e-05 0)
(-1.64763 -4.18922e-05 0)
(-1.6415 -4.14256e-05 0)
(-1.63541 -4.09666e-05 0)
(-1.62938 -4.0515e-05 0)
(-1.62341 -4.00706e-05 0)
(-1.61748 -3.96334e-05 0)
(-1.6116 -3.9203e-05 0)
(-1.60578 -3.87794e-05 0)
(-1.6 -3.83633e-05 0)
(-1.59427 -3.79504e-05 0)
(-1.58859 -3.75525e-05 0)
(-1.58295 -3.7159e-05 0)
(-1.57737 -3.66928e-05 0)
(-1.57215 -3.6353e-05 0)
(-1.56724 -3.61106e-05 0)
(-1.56231 -3.57427e-05 0)
(-1.55739 -3.53826e-05 0)
(-1.55246 -3.50447e-05 0)
(-1.54752 -3.47094e-05 0)
(-1.54258 -3.43758e-05 0)
(-1.53763 -3.40448e-05 0)
(-1.53268 -3.3716e-05 0)
(-1.52772 -3.33892e-05 0)
(-1.52276 -3.30644e-05 0)
(-1.51779 -3.27415e-05 0)
(-1.51282 -3.24204e-05 0)
(-1.50784 -3.21013e-05 0)
(-1.50286 -3.17839e-05 0)
(-1.49787 -3.14684e-05 0)
(-1.49288 -3.11548e-05 0)
(-1.48789 -3.0843e-05 0)
(-1.48289 -3.05331e-05 0)
(-1.47789 -3.02251e-05 0)
(-1.47288 -2.99189e-05 0)
(-1.46787 -2.96146e-05 0)
(-1.46286 -2.93123e-05 0)
(-1.45785 -2.90118e-05 0)
(-1.45283 -2.87132e-05 0)
(-1.44782 -2.84166e-05 0)
(-1.4428 -2.81219e-05 0)
(-1.43777 -2.78291e-05 0)
(-1.43275 -2.75383e-05 0)
(-1.42773 -2.72494e-05 0)
(-1.4227 -2.69625e-05 0)
(-1.41767 -2.66775e-05 0)
(-1.41265 -2.63945e-05 0)
(-1.40762 -2.61135e-05 0)
(-1.40259 -2.58345e-05 0)
(-1.39756 -2.55574e-05 0)
(-1.39253 -2.52823e-05 0)
(-1.3875 -2.50092e-05 0)
(-1.38247 -2.47381e-05 0)
(-1.37744 -2.44689e-05 0)
(-1.37242 -2.42018e-05 0)
(-1.36739 -2.39367e-05 0)
(-1.36237 -2.36735e-05 0)
(-1.35734 -2.34124e-05 0)
(-1.35232 -2.31533e-05 0)
(-1.3473 -2.28961e-05 0)
(-1.34228 -2.2641e-05 0)
(-1.33726 -2.23879e-05 0)
(-1.33225 -2.21368e-05 0)
(-1.32724 -2.18877e-05 0)
(-1.32223 -2.16406e-05 0)
(-1.31722 -2.13955e-05 0)
(-1.31222 -2.11524e-05 0)
(-1.30722 -2.09112e-05 0)
(-1.30222 -2.06721e-05 0)
(-1.29723 -2.0435e-05 0)
(-1.29224 -2.01999e-05 0)
(-1.28725 -1.99668e-05 0)
(-1.28227 -1.97356e-05 0)
(-1.27729 -1.95064e-05 0)
(-1.27232 -1.92793e-05 0)
(-1.26735 -1.90541e-05 0)
(-1.26239 -1.88308e-05 0)
(-1.25743 -1.86095e-05 0)
(-1.25248 -1.83902e-05 0)
(-1.24753 -1.81729e-05 0)
(-1.24259 -1.79575e-05 0)
(-1.23765 -1.7744e-05 0)
(-1.23272 -1.75325e-05 0)
(-1.22779 -1.73229e-05 0)
(-1.22287 -1.71153e-05 0)
(-1.21796 -1.69096e-05 0)
(-1.21305 -1.67058e-05 0)
(-1.20815 -1.65039e-05 0)
(-1.20326 -1.63039e-05 0)
(-1.19837 -1.61058e-05 0)
(-1.19349 -1.59096e-05 0)
(-1.18862 -1.57153e-05 0)
(-1.18376 -1.55228e-05 0)
(-1.1789 -1.53322e-05 0)
(-1.17405 -1.51435e-05 0)
(-1.1692 -1.49566e-05 0)
(-1.16437 -1.47716e-05 0)
(-1.15954 -1.45884e-05 0)
(-1.15472 -1.4407e-05 0)
(-1.14991 -1.42274e-05 0)
(-1.14511 -1.40497e-05 0)
(-1.14032 -1.38737e-05 0)
(-1.13553 -1.36995e-05 0)
(-1.13076 -1.35271e-05 0)
(-1.12599 -1.33565e-05 0)
(-1.12123 -1.31876e-05 0)
(-1.11648 -1.30205e-05 0)
(-1.11175 -1.28551e-05 0)
(-1.10702 -1.26915e-05 0)
(-1.10229 -1.25296e-05 0)
(-1.09758 -1.23693e-05 0)
(-1.09288 -1.22108e-05 0)
(-1.08819 -1.2054e-05 0)
(-1.08351 -1.18988e-05 0)
(-1.07884 -1.17453e-05 0)
(-1.07418 -1.15934e-05 0)
(-1.06953 -1.14433e-05 0)
(-1.06489 -1.12947e-05 0)
(-1.06026 -1.11477e-05 0)
(-1.05564 -1.10024e-05 0)
(-1.05103 -1.08587e-05 0)
(-1.04643 -1.07165e-05 0)
(-1.04185 -1.0576e-05 0)
(-1.03727 -1.0437e-05 0)
(-1.03271 -1.02995e-05 0)
(-1.02815 -1.01636e-05 0)
(-1.02361 -1.00293e-05 0)
(-1.01908 -9.89642e-06 0)
(-1.01456 -9.76508e-06 0)
(-1.01006 -9.63524e-06 0)
(-1.00556 -9.50689e-06 0)
(-1.00108 -9.38001e-06 0)
(-0.996604 -9.25459e-06 0)
(-0.992144 -9.13062e-06 0)
(-0.987696 -9.00809e-06 0)
(-0.98326 -8.88699e-06 0)
(-0.978836 -8.76731e-06 0)
(-0.974424 -8.64902e-06 0)
(-0.970024 -8.53213e-06 0)
(-0.965637 -8.41662e-06 0)
(-0.961262 -8.30248e-06 0)
(-0.9569 -8.18969e-06 0)
(-0.95255 -8.07825e-06 0)
(-0.948213 -7.96814e-06 0)
(-0.943888 -7.85936e-06 0)
(-0.939577 -7.75188e-06 0)
(-0.935278 -7.6457e-06 0)
(-0.930992 -7.5408e-06 0)
(-0.926718 -7.43718e-06 0)
(-0.922458 -7.33483e-06 0)
(-0.918211 -7.23372e-06 0)
(-0.913977 -7.13385e-06 0)
(-0.909755 -7.03521e-06 0)
(-0.905548 -6.93778e-06 0)
(-0.901353 -6.84156e-06 0)
(-0.897171 -6.74653e-06 0)
(-0.893003 -6.65269e-06 0)
(-0.888849 -6.56001e-06 0)
(-0.884707 -6.46849e-06 0)
(-0.880579 -6.37812e-06 0)
(-0.876465 -6.28888e-06 0)
(-0.872364 -6.20077e-06 0)
(-0.868277 -6.11377e-06 0)
(-0.864203 -6.02787e-06 0)
(-0.860143 -5.94307e-06 0)
(-0.856096 -5.85934e-06 0)
(-0.852063 -5.77668e-06 0)
(-0.848044 -5.69508e-06 0)
(-0.844039 -5.61453e-06 0)
(-0.840047 -5.53501e-06 0)
(-0.836069 -5.45651e-06 0)
(-0.832105 -5.37903e-06 0)
(-0.828155 -5.30255e-06 0)
(-0.824219 -5.22707e-06 0)
(-0.820297 -5.15256e-06 0)
(-0.816388 -5.07903e-06 0)
(-0.812494 -5.00646e-06 0)
(-0.808613 -4.93484e-06 0)
(-0.804747 -4.86416e-06 0)
(-0.800894 -4.7944e-06 0)
(-0.797056 -4.72557e-06 0)
(-0.793231 -4.65764e-06 0)
(-0.789421 -4.59062e-06 0)
(-0.785624 -4.52448e-06 0)
(-0.781842 -4.45921e-06 0)
(-0.778074 -4.39481e-06 0)
(-0.77432 -4.33127e-06 0)
(-0.77058 -4.26857e-06 0)
(-0.766854 -4.20669e-06 0)
(-0.763142 -4.14559e-06 0)
(-0.759444 -4.08538e-06 0)
(-0.75576 -4.02587e-06 0)
(-0.752091 -3.96577e-06 0)
(-0.748439 -3.91041e-06 0)
(-0.744793 -3.85771e-06 0)
(-0.740756 -3.78969e-06 0)
(-0.736377 -3.71776e-06 0)
(-0.732078 -3.65514e-06 0)
(-0.727848 -3.59476e-06 0)
(-0.723689 -3.53398e-06 0)
(-0.719601 -3.47441e-06 0)
(-0.715582 -3.41638e-06 0)
(-0.711629 -3.35991e-06 0)
(-0.707741 -3.30495e-06 0)
(-0.703917 -3.25146e-06 0)
(-0.700154 -3.19938e-06 0)
(-0.696451 -3.14868e-06 0)
(-0.692806 -3.09931e-06 0)
(-0.689218 -3.05121e-06 0)
(-0.685686 -3.00435e-06 0)
(-0.682208 -2.95867e-06 0)
(-0.678782 -2.91415e-06 0)
(-0.675407 -2.87073e-06 0)
(-0.672083 -2.82838e-06 0)
(-0.668807 -2.78706e-06 0)
(-0.665579 -2.74674e-06 0)
(-0.662398 -2.70739e-06 0)
(-0.659262 -2.66896e-06 0)
(-0.65617 -2.63144e-06 0)
(-0.653121 -2.5948e-06 0)
(-0.650115 -2.55899e-06 0)
(-0.64715 -2.52401e-06 0)
(-0.644225 -2.48981e-06 0)
(-0.64134 -2.45639e-06 0)
(-0.638493 -2.4237e-06 0)
(-0.635684 -2.39174e-06 0)
(-0.632912 -2.36047e-06 0)
(-0.630176 -2.32988e-06 0)
(-0.627475 -2.29995e-06 0)
(-0.624809 -2.27066e-06 0)
(-0.622177 -2.24198e-06 0)
(-0.619577 -2.2139e-06 0)
(-0.61701 -2.18641e-06 0)
(-0.614475 -2.15948e-06 0)
(-0.611971 -2.13311e-06 0)
(-0.609498 -2.10727e-06 0)
(-0.607054 -2.08194e-06 0)
(-0.60464 -2.05713e-06 0)
(-0.602254 -2.0328e-06 0)
(-0.599896 -2.00895e-06 0)
(-0.597566 -1.98557e-06 0)
(-0.595263 -1.96264e-06 0)
(-0.592986 -1.94015e-06 0)
(-0.590736 -1.91809e-06 0)
(-0.588511 -1.89645e-06 0)
(-0.586311 -1.87522e-06 0)
(-0.584135 -1.85438e-06 0)
(-0.581983 -1.83393e-06 0)
(-0.579856 -1.81386e-06 0)
(-0.577751 -1.79415e-06 0)
(-0.575669 -1.77481e-06 0)
(-0.57361 -1.75581e-06 0)
(-0.571572 -1.73716e-06 0)
(-0.569556 -1.71884e-06 0)
(-0.567562 -1.70085e-06 0)
(-0.565588 -1.68317e-06 0)
(-0.563634 -1.66581e-06 0)
(-0.561701 -1.64876e-06 0)
(-0.559787 -1.632e-06 0)
(-0.557893 -1.61554e-06 0)
(-0.556018 -1.59937e-06 0)
(-0.554161 -1.58348e-06 0)
(-0.552323 -1.56786e-06 0)
(-0.550503 -1.55252e-06 0)
(-0.548701 -1.53745e-06 0)
(-0.546916 -1.52265e-06 0)
(-0.545148 -1.50811e-06 0)
(-0.543397 -1.49383e-06 0)
(-0.541663 -1.47982e-06 0)
(-0.539945 -1.46606e-06 0)
(-0.538242 -1.45258e-06 0)
(-0.536556 -1.43936e-06 0)
(-0.534884 -1.42642e-06 0)
(-0.533228 -1.41377e-06 0)
(-0.531586 -1.40142e-06 0)
(-0.529959 -1.38939e-06 0)
(-0.528345 -1.37773e-06 0)
(-0.526745 -1.36648e-06 0)
(-0.525157 -1.3557e-06 0)
(-0.523582 -1.34547e-06 0)
(-0.522019 -1.33627e-06 0)
(-0.520466 -1.32727e-06 0)
(-0.518924 -1.31943e-06 0)
(-0.517388 -1.32238e-06 0)
(-0.515842 -1.3053e-06 0)
(-0.514351 -1.25667e-06 0)
(-0.512898 -1.68275e-06 0)
(-0.510399 -6.44257e-07 0)
(-0.511814 -5.92718e-07 0)
(-0.507525 -2.89614e-06 0)
)
;
    }
    symmetry
    {
        type            symmetryPlane;
    }
    frontAndBack
    {
        type            empty;
    }
}


// ************************************************************************* //
