/*--------------------------------*- C++ -*----------------------------------*\
| =========                 |                                                 |
| \\      /  F ield         | OpenFOAM: The Open Source CFD Toolbox           |
|  \\    /   O peration     | Version:  v2012                                 |
|   \\  /    A nd           | Website:  www.openfoam.com                      |
|    \\/     M anipulation  |                                                 |
\*---------------------------------------------------------------------------*/
FoamFile
{
    version     2.0;
    format      ascii;
    class       volScalarField;
    location    "8";
    object      yPlus;
}
// * * * * * * * * * * * * * * * * * * * * * * * * * * * * * * * * * * * * * //

dimensions      [0 0 0 0 0 0 0];


internalField   uniform 0;

boundaryField
{
    inlet
    {
        type            calculated;
        value           uniform 0;
    }
    outlet
    {
        type            calculated;
        value           uniform 0;
    }
    topWall
    {
        type            calculated;
        value           nonuniform List<scalar> 
545
(
0.0451572
0.0778643
0.0998888
0.11741
0.132235
0.145198
0.156768
0.167239
0.176813
0.185633
0.193809
0.201424
0.208544
0.215224
0.221509
0.227437
0.233038
0.238342
0.243372
0.248149
0.252692
0.257017
0.261139
0.265072
0.268826
0.272414
0.275846
0.27913
0.282274
0.285288
0.288177
0.290948
0.293608
0.296162
0.298615
0.300973
0.30324
0.305421
0.307519
0.309538
0.311483
0.313356
0.31516
0.316899
0.318575
0.320192
0.321751
0.323255
0.324707
0.326108
0.327461
0.328768
0.33003
0.331249
0.332427
0.333566
0.334667
0.335732
0.336761
0.337757
0.33872
0.339652
0.340554
0.341427
0.342272
0.34309
0.343882
0.344649
0.345392
0.346112
0.346809
0.347485
0.348131
0.348756
0.349375
0.349989
0.350597
0.3512
0.351797
0.352389
0.352976
0.353557
0.354133
0.354705
0.355271
0.355832
0.356389
0.35694
0.357487
0.358028
0.358565
0.359098
0.359626
0.360149
0.360668
0.361182
0.361645
0.362058
0.362472
0.362884
0.363297
0.363709
0.36412
0.364531
0.364942
0.365352
0.365762
0.366172
0.366581
0.366989
0.367397
0.367805
0.368212
0.368618
0.369024
0.36943
0.369835
0.37024
0.370644
0.371048
0.371451
0.371854
0.372256
0.372657
0.373058
0.373459
0.373859
0.374258
0.374657
0.375056
0.375454
0.375851
0.376248
0.376644
0.377039
0.377434
0.377829
0.378223
0.378616
0.379009
0.379401
0.379792
0.380183
0.380573
0.380963
0.381351
0.38174
0.382127
0.382514
0.382901
0.383286
0.383671
0.384056
0.38444
0.384823
0.385205
0.385586
0.385967
0.386348
0.386727
0.387106
0.387484
0.387861
0.388238
0.388614
0.388989
0.389364
0.389737
0.39011
0.390482
0.390854
0.391224
0.391594
0.391963
0.392331
0.392699
0.393065
0.393431
0.393796
0.39416
0.394524
0.394886
0.395248
0.395609
0.395969
0.396328
0.396686
0.397044
0.3974
0.397756
0.39811
0.398464
0.398817
0.399169
0.39952
0.39987
0.40022
0.400568
0.400915
0.401262
0.401607
0.401952
0.402295
0.402638
0.40298
0.40332
0.40366
0.403998
0.404336
0.404673
0.405008
0.405343
0.405676
0.406009
0.40634
0.406671
0.407
0.407328
0.407656
0.407982
0.408307
0.408631
0.408954
0.409276
0.409596
0.409916
0.410234
0.410551
0.410868
0.411183
0.411496
0.411809
0.412121
0.412431
0.41274
0.413048
0.413355
0.413661
0.413965
0.414268
0.41457
0.414871
0.415171
0.415469
0.415766
0.416062
0.416356
0.41665
0.416942
0.417232
0.417522
0.41781
0.418097
0.418382
0.418667
0.41895
0.419231
0.419511
0.41979
0.420068
0.420344
0.420619
0.420892
0.421165
0.421435
0.421705
0.421973
0.422239
0.422504
0.422753
0.422988
0.423223
0.423459
0.423696
0.423933
0.424172
0.424411
0.424651
0.424892
0.425133
0.425375
0.425618
0.425861
0.426105
0.42635
0.426595
0.42684
0.427086
0.427332
0.427579
0.427826
0.428074
0.428321
0.428569
0.428817
0.429065
0.429313
0.429561
0.42981
0.430058
0.430306
0.430554
0.430801
0.431049
0.431296
0.431542
0.431789
0.432034
0.43228
0.432524
0.432768
0.433011
0.433254
0.433495
0.433736
0.433975
0.434214
0.434451
0.434687
0.434922
0.435155
0.435387
0.435618
0.435846
0.436073
0.436299
0.436522
0.436744
0.436963
0.43718
0.437395
0.437608
0.437818
0.438025
0.43823
0.438433
0.438632
0.438829
0.439022
0.439212
0.439399
0.439583
0.439763
0.439939
0.440112
0.440281
0.440446
0.440607
0.440764
0.440916
0.441064
0.441207
0.441346
0.44148
0.441609
0.441733
0.441851
0.441964
0.442072
0.442174
0.44227
0.442361
0.442445
0.442523
0.442595
0.44266
0.442719
0.442771
0.442816
0.442854
0.442884
0.442908
0.442924
0.442932
0.442932
0.442925
0.442909
0.442886
0.442854
0.442813
0.442764
0.442706
0.442639
0.442563
0.442477
0.442383
0.442278
0.442164
0.442041
0.441907
0.441763
0.44161
0.441445
0.441271
0.441086
0.44089
0.440683
0.440465
0.440236
0.439996
0.439745
0.439483
0.439209
0.438923
0.438625
0.438316
0.437995
0.437662
0.437317
0.43696
0.436591
0.436209
0.435816
0.43541
0.434991
0.43456
0.434117
0.433661
0.433192
0.432711
0.432218
0.431711
0.431193
0.430661
0.430118
0.429561
0.428992
0.428411
0.427817
0.427211
0.426593
0.425962
0.42532
0.424665
0.423998
0.423319
0.422628
0.421926
0.421212
0.420487
0.419751
0.419003
0.418244
0.417475
0.416695
0.415904
0.415103
0.414293
0.413472
0.412641
0.411707
0.410674
0.409641
0.408609
0.407579
0.406552
0.405527
0.404505
0.403487
0.402473
0.401463
0.400459
0.399459
0.398466
0.397478
0.396497
0.395522
0.394555
0.393594
0.392641
0.391696
0.390759
0.38983
0.38891
0.387999
0.387096
0.386202
0.385318
0.384443
0.383578
0.382723
0.381878
0.381043
0.380218
0.379404
0.3786
0.377808
0.377026
0.376255
0.375495
0.374746
0.374009
0.373283
0.372569
0.371866
0.371175
0.370496
0.369829
0.369175
0.368532
0.367902
0.367284
0.366679
0.366086
0.365506
0.364939
0.364384
0.363843
0.363314
0.362799
0.362297
0.361808
0.361333
0.360871
0.360422
0.359988
0.359567
0.359159
0.358766
0.358387
0.358021
0.35767
0.357333
0.35701
0.356701
0.356407
0.356127
0.355862
0.355611
0.355375
0.355153
0.354947
0.354754
0.354577
0.354415
0.354267
0.354134
0.354016
0.353914
0.353826
0.353753
0.353695
0.353652
0.353626
0.353607
)
;
    }
    bottomWall
    {
        type            calculated;
        value           nonuniform List<scalar> 
449
(
4.58185
3.01384
2.53621
2.321
2.18431
2.08431
2.00231
1.93341
1.87497
1.82441
1.77984
1.74007
1.70427
1.67177
1.64207
1.61476
1.58951
1.56605
1.54416
1.52368
1.50443
1.48629
1.46915
1.45292
1.4375
1.42284
1.40885
1.3955
1.38272
1.37048
1.35873
1.34744
1.33658
1.32612
1.31603
1.30629
1.29688
1.28777
1.27895
1.27041
1.26213
1.25409
1.24628
1.23869
1.2313
1.22412
1.21712
1.21031
1.20366
1.19718
1.19085
1.18467
1.17864
1.17274
1.16697
1.16133
1.15581
1.15041
1.14511
1.13993
1.13485
1.12986
1.12498
1.12018
1.11548
1.11086
1.10632
1.10187
1.09749
1.09319
1.08896
1.08481
1.08072
1.0767
1.07274
1.06884
1.06501
1.06123
1.05752
1.05385
1.05025
1.04669
1.04319
1.03973
1.03632
1.03297
1.02965
1.02638
1.02316
1.01998
1.01684
1.01374
1.01068
1.00765
1.00467
1.00172
0.998811
0.995935
0.993093
0.990284
0.987508
0.984764
0.982052
0.97937
0.976718
0.974096
0.971503
0.968937
0.966399
0.963888
0.961404
0.958946
0.956513
0.954105
0.951721
0.949361
0.947025
0.944712
0.942422
0.940154
0.937907
0.935682
0.933478
0.931294
0.929131
0.926988
0.924864
0.922759
0.920674
0.918606
0.916557
0.914526
0.912513
0.910516
0.908537
0.906575
0.904629
0.902699
0.900785
0.898887
0.897004
0.895137
0.893284
0.891446
0.889623
0.887814
0.886018
0.884237
0.88247
0.880715
0.878974
0.877247
0.875531
0.873829
0.872139
0.870461
0.868796
0.867142
0.865501
0.86387
0.862252
0.860644
0.859048
0.857463
0.855888
0.854324
0.852771
0.851228
0.849696
0.848173
0.846661
0.845158
0.843666
0.842268
0.840952
0.83963
0.838305
0.836978
0.835646
0.834311
0.832972
0.831629
0.830283
0.828933
0.827579
0.826222
0.824862
0.823498
0.822131
0.82076
0.819386
0.818008
0.816628
0.815244
0.813857
0.812466
0.811073
0.809677
0.808277
0.806875
0.805469
0.804061
0.80265
0.801236
0.799819
0.798399
0.796977
0.795552
0.794125
0.792694
0.791262
0.789827
0.788389
0.786949
0.785507
0.784062
0.782615
0.781166
0.779714
0.778261
0.776805
0.775347
0.773888
0.772426
0.770962
0.769497
0.768029
0.76656
0.765089
0.763616
0.762141
0.760665
0.759188
0.757708
0.756227
0.754745
0.753261
0.751776
0.75029
0.748802
0.747313
0.745822
0.744331
0.742838
0.741345
0.73985
0.738354
0.736857
0.735359
0.733861
0.732361
0.730861
0.729359
0.727857
0.726355
0.724851
0.723348
0.721843
0.720338
0.718832
0.717326
0.71582
0.714313
0.712806
0.711298
0.70979
0.708282
0.706774
0.705265
0.703757
0.702248
0.700739
0.69923
0.697721
0.696213
0.694704
0.693195
0.691687
0.690178
0.68867
0.687163
0.685655
0.684148
0.682641
0.681134
0.679628
0.678123
0.676617
0.675113
0.673609
0.672105
0.670602
0.6691
0.667598
0.666097
0.664597
0.663098
0.661599
0.660101
0.658604
0.657108
0.655613
0.654119
0.652625
0.651133
0.649642
0.648151
0.646662
0.645174
0.643687
0.642201
0.640717
0.639233
0.637751
0.63627
0.63479
0.633312
0.631835
0.630359
0.628884
0.627411
0.62594
0.62447
0.623001
0.621534
0.620068
0.618604
0.617142
0.615681
0.614221
0.612763
0.611307
0.609853
0.6084
0.606949
0.605499
0.604052
0.602606
0.601162
0.599719
0.598279
0.59684
0.595403
0.593968
0.592535
0.591104
0.589674
0.588247
0.586822
0.585398
0.583977
0.582558
0.581141
0.579724
0.578151
0.576439
0.574754
0.573091
0.571452
0.569836
0.568242
0.56667
0.56512
0.563591
0.562083
0.560594
0.559126
0.557676
0.556245
0.554833
0.553438
0.55206
0.5507
0.549356
0.548029
0.546718
0.545422
0.544141
0.542876
0.541625
0.540388
0.539166
0.537957
0.536762
0.53558
0.534411
0.533254
0.532111
0.530979
0.529859
0.528751
0.527655
0.52657
0.525496
0.524433
0.52338
0.522338
0.521307
0.520285
0.519274
0.518272
0.51728
0.516298
0.515324
0.51436
0.513405
0.512459
0.511521
0.510592
0.509671
0.508759
0.507854
0.506958
0.506069
0.505189
0.504315
0.50345
0.502591
0.50174
0.500896
0.500059
0.499229
0.498406
0.49759
0.49678
0.495976
0.495179
0.494388
0.493604
0.492825
0.492052
0.491285
0.490524
0.489768
0.489018
0.488273
0.487533
0.486798
0.486067
0.485341
0.484618
0.4839
0.483183
0.482461
0.481763
0.481082
0.479909
0.480573
0.478555
)
;
    }
    symmetry
    {
        type            symmetryPlane;
    }
    frontAndBack
    {
        type            empty;
    }
}


// ************************************************************************* //
