/*--------------------------------*- C++ -*----------------------------------*\
| =========                 |                                                 |
| \\      /  F ield         | OpenFOAM: The Open Source CFD Toolbox           |
|  \\    /   O peration     | Version:  v2012                                 |
|   \\  /    A nd           | Website:  www.openfoam.com                      |
|    \\/     M anipulation  |                                                 |
\*---------------------------------------------------------------------------*/
FoamFile
{
    version     2.0;
    format      ascii;
    class       volScalarField;
    location    "2.5";
    object      k;
}
// * * * * * * * * * * * * * * * * * * * * * * * * * * * * * * * * * * * * * //

dimensions      [0 2 -2 0 0 0 0];


internalField   nonuniform List<scalar> 
209825
(
0.00105993
0.00105638
0.00105584
0.0010557
0.00105564
0.00105562
0.0010556
0.00105559
0.00105558
0.00105558
0.00105557
0.00105557
0.00105557
0.00105558
0.00105558
0.00105558
0.00105558
0.00105559
0.00105559
0.0010556
0.0010556
0.00105561
0.00105561
0.00105562
0.00105562
0.00105564
0.00105564
0.00105565
0.00105565
0.00105567
0.00105567
0.00105569
0.00105569
0.00105571
0.00105571
0.00105572
0.00105572
0.00105571
0.00105571
0.00105572
0.00105572
0.00105573
0.00105573
0.00105573
0.00105572
0.00105574
0.00105574
0.00105574
0.00105575
0.00105575
0.00105576
0.00105576
0.00105576
0.00105576
0.00105576
0.00105576
0.00105575
0.00105576
0.00105576
0.00105576
0.00105577
0.00105577
0.00105578
0.0010558
0.0010558
0.0010558
0.0010558
0.00105579
0.0010558
0.0010558
0.00105583
0.00105583
0.00105585
0.00105584
0.00105584
0.00105584
0.00105584
0.00105584
0.00105589
0.0010559
0.00105591
0.00105591
0.00105595
0.00105595
0.00105602
0.00105608
0.00105616
0.00105618
0.00105636
0.00105659
0.00105711
0.0010573
0.00106155
0.00106072
0.0015602
0.000955806
0.00105993
0.00105636
0.00105582
0.00105569
0.00105562
0.0010556
0.00105558
0.00105557
0.00105556
0.00105556
0.00105555
0.00105555
0.00105555
0.00105556
0.00105556
0.00105556
0.00105556
0.00105557
0.00105557
0.00105558
0.00105558
0.00105559
0.00105559
0.0010556
0.0010556
0.00105562
0.00105562
0.00105563
0.00105563
0.00105565
0.00105565
0.00105567
0.00105567
0.00105569
0.00105569
0.0010557
0.0010557
0.0010557
0.00105569
0.0010557
0.0010557
0.00105571
0.00105571
0.00105571
0.0010557
0.00105572
0.00105572
0.00105572
0.00105573
0.00105573
0.00105574
0.00105574
0.00105574
0.00105574
0.00105574
0.00105574
0.00105573
0.00105574
0.00105574
0.00105574
0.00105576
0.00105576
0.00105576
0.00105578
0.00105578
0.00105578
0.00105578
0.00105577
0.00105578
0.00105578
0.00105581
0.00105581
0.00105583
0.00105583
0.00105582
0.00105582
0.00105582
0.00105582
0.00105587
0.00105588
0.00105589
0.00105589
0.00105593
0.00105593
0.001056
0.00105606
0.00105615
0.00105617
0.00105634
0.00105658
0.00105709
0.00105729
0.00106154
0.00106071
0.00156035
0.000959452
0.00105987
0.00105628
0.00105573
0.00105559
0.00105553
0.0010555
0.00105548
0.00105548
0.00105547
0.00105546
0.00105545
0.00105545
0.00105545
0.00105546
0.00105546
0.00105546
0.00105546
0.00105547
0.00105547
0.00105548
0.00105548
0.00105549
0.00105549
0.0010555
0.0010555
0.00105552
0.00105552
0.00105554
0.00105554
0.00105555
0.00105555
0.00105557
0.00105557
0.0010556
0.0010556
0.0010556
0.0010556
0.0010556
0.00105559
0.00105561
0.00105561
0.00105561
0.00105561
0.00105561
0.0010556
0.00105563
0.00105563
0.00105562
0.00105564
0.00105564
0.00105564
0.00105564
0.00105564
0.00105564
0.00105564
0.00105564
0.00105563
0.00105565
0.00105565
0.00105565
0.00105566
0.00105566
0.00105566
0.00105568
0.00105569
0.00105569
0.00105569
0.00105567
0.00105569
0.00105568
0.00105572
0.00105572
0.00105573
0.00105573
0.00105573
0.00105572
0.00105573
0.00105573
0.00105577
0.00105579
0.00105579
0.00105579
0.00105584
0.00105584
0.00105591
0.00105597
0.00105605
0.00105607
0.00105625
0.00105649
0.00105701
0.0010572
0.00106148
0.00106063
0.00155941
0.00096723
0.00105978
0.00105614
0.00105557
0.00105543
0.00105536
0.00105534
0.00105532
0.00105531
0.0010553
0.0010553
0.00105529
0.00105529
0.00105529
0.00105529
0.00105529
0.0010553
0.0010553
0.0010553
0.0010553
0.00105531
0.00105531
0.00105533
0.00105533
0.00105534
0.00105534
0.00105536
0.00105535
0.00105537
0.00105537
0.00105539
0.00105539
0.00105541
0.00105541
0.00105543
0.00105543
0.00105544
0.00105544
0.00105544
0.00105543
0.00105544
0.00105544
0.00105545
0.00105545
0.00105545
0.00105544
0.00105546
0.00105546
0.00105546
0.00105547
0.00105547
0.00105548
0.00105548
0.00105548
0.00105548
0.00105548
0.00105548
0.00105547
0.00105548
0.00105548
0.00105548
0.0010555
0.0010555
0.0010555
0.00105552
0.00105553
0.00105552
0.00105552
0.00105551
0.00105552
0.00105552
0.00105555
0.00105555
0.00105557
0.00105557
0.00105557
0.00105556
0.00105557
0.00105557
0.00105561
0.00105563
0.00105563
0.00105563
0.00105568
0.00105568
0.00105575
0.00105581
0.0010559
0.00105592
0.0010561
0.00105634
0.00105687
0.00105706
0.00106138
0.0010605
0.00155733
0.00097902
0.00105965
0.00105594
0.00105535
0.0010552
0.00105513
0.00105511
0.00105509
0.00105508
0.00105507
0.00105506
0.00105505
0.00105505
0.00105505
0.00105506
0.00105506
0.00105506
0.00105506
0.00105507
0.00105507
0.00105508
0.00105508
0.00105509
0.00105509
0.00105511
0.00105511
0.00105512
0.00105512
0.00105514
0.00105514
0.00105516
0.00105516
0.00105518
0.00105518
0.0010552
0.0010552
0.0010552
0.0010552
0.0010552
0.0010552
0.00105521
0.00105521
0.00105522
0.00105522
0.00105522
0.00105521
0.00105523
0.00105523
0.00105523
0.00105524
0.00105524
0.00105525
0.00105525
0.00105525
0.00105525
0.00105525
0.00105525
0.00105524
0.00105525
0.00105525
0.00105525
0.00105527
0.00105527
0.00105527
0.00105529
0.0010553
0.00105529
0.00105529
0.00105528
0.00105529
0.00105529
0.00105532
0.00105532
0.00105534
0.00105534
0.00105534
0.00105533
0.00105534
0.00105534
0.00105538
0.0010554
0.00105541
0.00105541
0.00105545
0.00105545
0.00105552
0.00105559
0.00105568
0.0010557
0.00105588
0.00105612
0.00105666
0.00105686
0.00106122
0.00106031
0.00155401
0.000994714
0.00105948
0.00105568
0.00105506
0.00105491
0.00105483
0.00105481
0.00105478
0.00105477
0.00105476
0.00105476
0.00105475
0.00105475
0.00105474
0.00105475
0.00105475
0.00105476
0.00105476
0.00105477
0.00105477
0.00105478
0.00105478
0.00105479
0.00105479
0.0010548
0.0010548
0.00105482
0.00105482
0.00105484
0.00105484
0.00105486
0.00105486
0.00105488
0.00105488
0.0010549
0.0010549
0.0010549
0.0010549
0.0010549
0.0010549
0.00105491
0.00105491
0.00105492
0.00105492
0.00105491
0.00105491
0.00105493
0.00105493
0.00105493
0.00105494
0.00105494
0.00105495
0.00105495
0.00105495
0.00105495
0.00105495
0.00105495
0.00105494
0.00105495
0.00105495
0.00105495
0.00105497
0.00105497
0.00105497
0.00105499
0.001055
0.001055
0.001055
0.00105498
0.00105499
0.00105499
0.00105503
0.00105503
0.00105504
0.00105504
0.00105504
0.00105503
0.00105504
0.00105504
0.00105509
0.0010551
0.00105511
0.00105511
0.00105516
0.00105516
0.00105523
0.0010553
0.00105539
0.00105541
0.0010556
0.00105584
0.00105639
0.00105659
0.00106101
0.00106006
0.00154942
0.00101414
0.00105928
0.00105536
0.00105471
0.00105455
0.00105447
0.00105443
0.00105441
0.0010544
0.00105439
0.00105438
0.00105437
0.00105437
0.00105437
0.00105438
0.00105438
0.00105438
0.00105438
0.00105439
0.00105439
0.0010544
0.0010544
0.00105441
0.00105441
0.00105443
0.00105443
0.00105444
0.00105444
0.00105446
0.00105446
0.00105448
0.00105448
0.0010545
0.0010545
0.00105453
0.00105453
0.00105453
0.00105453
0.00105453
0.00105452
0.00105454
0.00105454
0.00105454
0.00105454
0.00105454
0.00105454
0.00105456
0.00105456
0.00105456
0.00105457
0.00105457
0.00105457
0.00105458
0.00105458
0.00105458
0.00105458
0.00105457
0.00105457
0.00105458
0.00105458
0.00105458
0.0010546
0.0010546
0.0010546
0.00105462
0.00105463
0.00105463
0.00105463
0.00105461
0.00105463
0.00105463
0.00105466
0.00105466
0.00105468
0.00105468
0.00105468
0.00105467
0.00105468
0.00105468
0.00105472
0.00105474
0.00105474
0.00105474
0.0010548
0.0010548
0.00105487
0.00105494
0.00105503
0.00105506
0.00105525
0.0010555
0.00105606
0.00105626
0.00106074
0.00105975
0.0015435
0.00103708
0.00105903
0.00105497
0.00105429
0.00105411
0.00105403
0.00105399
0.00105397
0.00105395
0.00105394
0.00105393
0.00105392
0.00105392
0.00105392
0.00105393
0.00105393
0.00105393
0.00105393
0.00105394
0.00105394
0.00105395
0.00105395
0.00105397
0.00105397
0.00105398
0.00105398
0.001054
0.001054
0.00105402
0.00105402
0.00105404
0.00105404
0.00105406
0.00105406
0.00105408
0.00105408
0.00105409
0.00105409
0.00105409
0.00105408
0.00105409
0.00105409
0.0010541
0.0010541
0.0010541
0.00105409
0.00105412
0.00105412
0.00105412
0.00105413
0.00105413
0.00105413
0.00105414
0.00105414
0.00105414
0.00105414
0.00105413
0.00105413
0.00105414
0.00105414
0.00105414
0.00105416
0.00105416
0.00105416
0.00105418
0.00105419
0.00105419
0.00105419
0.00105418
0.00105419
0.00105419
0.00105422
0.00105422
0.00105424
0.00105424
0.00105424
0.00105423
0.00105424
0.00105424
0.00105429
0.0010543
0.00105431
0.00105431
0.00105436
0.00105436
0.00105444
0.00105451
0.00105461
0.00105463
0.00105483
0.00105508
0.00105566
0.00105587
0.00106041
0.00105938
0.00153624
0.00106322
0.00105875
0.00105453
0.0010538
0.00105361
0.00105351
0.00105348
0.00105345
0.00105343
0.00105342
0.00105341
0.0010534
0.0010534
0.00105339
0.00105341
0.00105341
0.00105341
0.00105341
0.00105342
0.00105342
0.00105343
0.00105343
0.00105344
0.00105344
0.00105346
0.00105346
0.00105348
0.00105348
0.0010535
0.0010535
0.00105352
0.00105352
0.00105354
0.00105354
0.00105357
0.00105357
0.00105357
0.00105357
0.00105357
0.00105356
0.00105358
0.00105358
0.00105359
0.00105359
0.00105358
0.00105358
0.0010536
0.0010536
0.0010536
0.00105361
0.00105361
0.00105362
0.00105362
0.00105362
0.00105362
0.00105362
0.00105362
0.00105361
0.00105362
0.00105363
0.00105363
0.00105364
0.00105364
0.00105365
0.00105366
0.00105367
0.00105367
0.00105368
0.00105366
0.00105367
0.00105367
0.00105371
0.00105371
0.00105373
0.00105373
0.00105373
0.00105372
0.00105373
0.00105373
0.00105378
0.00105379
0.0010538
0.0010538
0.00105386
0.00105386
0.00105394
0.00105401
0.00105411
0.00105414
0.00105434
0.0010546
0.00105519
0.00105541
0.00106002
0.00105894
0.00152764
0.00109222
0.00105843
0.00105402
0.00105324
0.00105303
0.00105293
0.00105288
0.00105285
0.00105284
0.00105282
0.00105281
0.0010528
0.0010528
0.00105279
0.00105281
0.00105281
0.00105281
0.00105281
0.00105282
0.00105282
0.00105283
0.00105283
0.00105284
0.00105284
0.00105286
0.00105286
0.00105288
0.00105288
0.0010529
0.0010529
0.00105293
0.00105293
0.00105295
0.00105295
0.00105298
0.00105298
0.00105298
0.00105298
0.00105298
0.00105297
0.00105299
0.00105299
0.00105299
0.00105299
0.00105299
0.00105298
0.00105301
0.00105301
0.00105301
0.00105302
0.00105302
0.00105302
0.00105304
0.00105303
0.00105303
0.00105303
0.00105303
0.00105303
0.00105303
0.00105304
0.00105304
0.00105305
0.00105305
0.00105306
0.00105308
0.00105309
0.00105309
0.00105309
0.00105308
0.00105309
0.00105309
0.00105312
0.00105312
0.00105315
0.00105315
0.00105314
0.00105313
0.00105314
0.00105314
0.0010532
0.00105321
0.00105322
0.00105322
0.00105328
0.00105328
0.00105336
0.00105344
0.00105354
0.00105357
0.00105378
0.00105405
0.00105466
0.00105488
0.00105956
0.00105845
0.00151774
0.00112368
0.00105808
0.00105346
0.00105261
0.00105238
0.00105226
0.00105222
0.00105218
0.00105217
0.00105215
0.00105214
0.00105212
0.00105212
0.00105212
0.00105213
0.00105213
0.00105213
0.00105213
0.00105214
0.00105214
0.00105215
0.00105215
0.00105217
0.00105217
0.00105219
0.00105219
0.00105221
0.00105221
0.00105223
0.00105223
0.00105226
0.00105225
0.00105228
0.00105228
0.00105231
0.00105231
0.00105231
0.00105231
0.00105231
0.0010523
0.00105232
0.00105232
0.00105233
0.00105233
0.00105233
0.00105232
0.00105234
0.00105234
0.00105234
0.00105235
0.00105236
0.00105236
0.00105237
0.00105237
0.00105237
0.00105237
0.00105236
0.00105236
0.00105237
0.00105237
0.00105237
0.00105239
0.00105239
0.0010524
0.00105241
0.00105242
0.00105242
0.00105243
0.00105241
0.00105242
0.00105242
0.00105246
0.00105246
0.00105249
0.00105249
0.00105248
0.00105247
0.00105248
0.00105248
0.00105254
0.00105255
0.00105256
0.00105256
0.00105263
0.00105263
0.00105271
0.00105279
0.0010529
0.00105293
0.00105314
0.00105342
0.00105405
0.00105428
0.00105903
0.00105789
0.00150658
0.00115714
0.00105768
0.00105282
0.00105191
0.00105165
0.00105152
0.00105147
0.00105143
0.00105141
0.00105139
0.00105138
0.00105137
0.00105137
0.00105136
0.00105137
0.00105137
0.00105137
0.00105137
0.00105138
0.00105138
0.0010514
0.0010514
0.00105141
0.00105141
0.00105143
0.00105143
0.00105145
0.00105145
0.00105148
0.00105148
0.00105151
0.0010515
0.00105153
0.00105153
0.00105156
0.00105156
0.00105157
0.00105157
0.00105157
0.00105155
0.00105157
0.00105157
0.00105158
0.00105158
0.00105158
0.00105157
0.0010516
0.0010516
0.0010516
0.00105161
0.00105161
0.00105161
0.00105162
0.00105162
0.00105162
0.00105162
0.00105161
0.00105162
0.00105162
0.00105163
0.00105163
0.00105164
0.00105164
0.00105166
0.00105167
0.00105168
0.00105168
0.00105168
0.00105167
0.00105168
0.00105168
0.00105172
0.00105172
0.00105175
0.00105175
0.00105175
0.00105173
0.00105175
0.00105175
0.0010518
0.00105181
0.00105183
0.00105183
0.0010519
0.00105191
0.00105198
0.00105207
0.00105218
0.00105222
0.00105243
0.00105272
0.00105337
0.00105361
0.00105843
0.00105726
0.00149427
0.00119214
0.00105725
0.00105212
0.00105114
0.00105084
0.0010507
0.00105064
0.0010506
0.00105058
0.00105056
0.00105055
0.00105053
0.00105053
0.00105052
0.00105053
0.00105053
0.00105053
0.00105053
0.00105054
0.00105054
0.00105056
0.00105056
0.00105058
0.00105058
0.0010506
0.0010506
0.00105062
0.00105062
0.00105065
0.00105065
0.00105067
0.00105067
0.0010507
0.0010507
0.00105073
0.00105073
0.00105074
0.00105074
0.00105074
0.00105073
0.00105074
0.00105074
0.00105075
0.00105075
0.00105075
0.00105074
0.00105077
0.00105077
0.00105077
0.00105078
0.00105078
0.00105078
0.0010508
0.0010508
0.0010508
0.0010508
0.00105079
0.00105079
0.00105079
0.0010508
0.0010508
0.00105082
0.00105082
0.00105083
0.00105084
0.00105086
0.00105086
0.00105086
0.00105085
0.00105086
0.00105086
0.0010509
0.0010509
0.00105093
0.00105093
0.00105093
0.00105091
0.00105093
0.00105093
0.00105099
0.001051
0.00105101
0.00105101
0.00105109
0.0010511
0.00105117
0.00105127
0.00105139
0.00105142
0.00105164
0.00105194
0.00105262
0.00105287
0.00105775
0.00105658
0.00148091
0.0012282
0.00105678
0.00105136
0.00105028
0.00104996
0.0010498
0.00104974
0.00104969
0.00104966
0.00104964
0.00104963
0.00104961
0.0010496
0.00104959
0.00104961
0.00104961
0.00104961
0.00104961
0.00104962
0.00104962
0.00104963
0.00104963
0.00104965
0.00104965
0.00104968
0.00104968
0.0010497
0.0010497
0.00104973
0.00104973
0.00104976
0.00104976
0.00104979
0.00104979
0.00104982
0.00104982
0.00104983
0.00104983
0.00104983
0.00104981
0.00104983
0.00104983
0.00104984
0.00104984
0.00104984
0.00104983
0.00104986
0.00104986
0.00104986
0.00104987
0.00104987
0.00104987
0.00104989
0.00104989
0.00104989
0.00104989
0.00104988
0.00104988
0.00104988
0.0010499
0.0010499
0.00104991
0.00104991
0.00104993
0.00104994
0.00104996
0.00104996
0.00104996
0.00104995
0.00104996
0.00104996
0.00105
0.00105
0.00105003
0.00105003
0.00105003
0.00105001
0.00105003
0.00105003
0.00105009
0.0010501
0.00105012
0.00105012
0.0010502
0.00105021
0.00105029
0.00105039
0.00105051
0.00105055
0.00105077
0.00105108
0.00105179
0.00105204
0.00105698
0.00105582
0.00146664
0.00126483
0.00105628
0.00105053
0.00104936
0.001049
0.00104882
0.00104874
0.00104869
0.00104866
0.00104863
0.00104862
0.0010486
0.00104859
0.00104858
0.0010486
0.0010486
0.0010486
0.0010486
0.00104861
0.00104861
0.00104862
0.00104862
0.00104865
0.00104865
0.00104867
0.00104867
0.0010487
0.0010487
0.00104873
0.00104873
0.00104876
0.00104876
0.00104879
0.00104879
0.00104882
0.00104882
0.00104883
0.00104883
0.00104883
0.00104882
0.00104884
0.00104884
0.00104885
0.00104885
0.00104884
0.00104883
0.00104887
0.00104887
0.00104887
0.00104887
0.00104888
0.00104888
0.0010489
0.0010489
0.0010489
0.0010489
0.00104888
0.00104889
0.00104889
0.0010489
0.0010489
0.00104892
0.00104892
0.00104894
0.00104895
0.00104897
0.00104897
0.00104897
0.00104896
0.00104897
0.00104897
0.00104902
0.00104902
0.00104905
0.00104905
0.00104905
0.00104903
0.00104905
0.00104905
0.00104911
0.00104912
0.00104914
0.00104914
0.00104923
0.00104924
0.00104931
0.00104942
0.00104955
0.00104959
0.00104983
0.00105014
0.00105087
0.00105114
0.00105613
0.00105501
0.00145161
0.00130154
0.00105574
0.00104964
0.00104835
0.00104795
0.00104775
0.00104766
0.0010476
0.00104757
0.00104754
0.00104753
0.0010475
0.00104749
0.00104748
0.0010475
0.0010475
0.0010475
0.0010475
0.00104751
0.00104751
0.00104753
0.00104753
0.00104755
0.00104755
0.00104757
0.00104757
0.00104761
0.00104761
0.00104764
0.00104764
0.00104767
0.00104767
0.00104771
0.00104771
0.00104774
0.00104774
0.00104775
0.00104775
0.00104775
0.00104773
0.00104775
0.00104775
0.00104776
0.00104776
0.00104776
0.00104775
0.00104778
0.00104778
0.00104778
0.00104779
0.0010478
0.0010478
0.00104782
0.00104782
0.00104782
0.00104782
0.0010478
0.00104781
0.00104781
0.00104782
0.00104782
0.00104784
0.00104784
0.00104786
0.00104787
0.00104789
0.00104789
0.0010479
0.00104789
0.0010479
0.00104789
0.00104795
0.00104795
0.00104798
0.00104798
0.00104798
0.00104796
0.00104798
0.00104798
0.00104804
0.00104805
0.00104807
0.00104807
0.00104817
0.00104819
0.00104826
0.00104837
0.00104851
0.00104855
0.00104879
0.00104912
0.00104988
0.00105016
0.00105519
0.00105413
0.00143601
0.00133788
0.00105516
0.00104867
0.00104726
0.00104681
0.0010466
0.0010465
0.00104643
0.00104639
0.00104636
0.00104634
0.00104631
0.0010463
0.00104629
0.0010463
0.0010463
0.00104631
0.0010463
0.00104632
0.00104632
0.00104634
0.00104634
0.00104636
0.00104636
0.00104639
0.00104639
0.00104642
0.00104642
0.00104645
0.00104645
0.00104649
0.00104649
0.00104653
0.00104653
0.00104656
0.00104656
0.00104657
0.00104657
0.00104657
0.00104656
0.00104658
0.00104658
0.00104659
0.00104659
0.00104659
0.00104657
0.00104661
0.00104661
0.00104661
0.00104662
0.00104662
0.00104662
0.00104665
0.00104665
0.00104665
0.00104665
0.00104663
0.00104664
0.00104664
0.00104665
0.00104665
0.00104667
0.00104667
0.0010467
0.0010467
0.00104673
0.00104673
0.00104674
0.00104673
0.00104673
0.00104673
0.00104678
0.00104678
0.00104682
0.00104682
0.00104682
0.0010468
0.00104682
0.00104682
0.00104688
0.00104689
0.00104692
0.00104692
0.00104702
0.00104704
0.00104711
0.00104723
0.00104738
0.00104743
0.00104767
0.00104801
0.00104879
0.00104909
0.00105415
0.00105318
0.00142002
0.00137339
0.00105455
0.00104764
0.0010461
0.0010456
0.00104535
0.00104524
0.00104516
0.00104512
0.00104508
0.00104506
0.00104503
0.00104502
0.001045
0.00104502
0.00104502
0.00104502
0.00104502
0.00104503
0.00104503
0.00104505
0.00104505
0.00104508
0.00104508
0.00104511
0.00104511
0.00104514
0.00104514
0.00104518
0.00104518
0.00104522
0.00104522
0.00104526
0.00104526
0.00104529
0.00104529
0.0010453
0.0010453
0.0010453
0.00104529
0.00104531
0.00104531
0.00104532
0.00104532
0.00104532
0.0010453
0.00104535
0.00104535
0.00104534
0.00104535
0.00104536
0.00104536
0.00104538
0.00104538
0.00104538
0.00104538
0.00104536
0.00104537
0.00104537
0.00104539
0.00104539
0.00104541
0.00104541
0.00104544
0.00104544
0.00104547
0.00104547
0.00104548
0.00104547
0.00104548
0.00104547
0.00104553
0.00104553
0.00104557
0.00104557
0.00104557
0.00104555
0.00104557
0.00104557
0.00104564
0.00104564
0.00104567
0.00104567
0.00104578
0.00104581
0.00104588
0.001046
0.00104616
0.00104621
0.00104646
0.00104681
0.00104762
0.00104793
0.00105301
0.00105217
0.00140384
0.00140767
0.00105391
0.00104654
0.00104485
0.00104429
0.00104401
0.00104388
0.00104379
0.00104375
0.0010437
0.00104368
0.00104365
0.00104364
0.00104361
0.00104363
0.00104363
0.00104364
0.00104363
0.00104365
0.00104364
0.00104367
0.00104367
0.0010437
0.0010437
0.00104373
0.00104373
0.00104377
0.00104377
0.00104381
0.00104381
0.00104385
0.00104385
0.00104389
0.00104389
0.00104393
0.00104393
0.00104394
0.00104394
0.00104394
0.00104392
0.00104394
0.00104394
0.00104396
0.00104396
0.00104396
0.00104394
0.00104398
0.00104398
0.00104398
0.00104399
0.001044
0.001044
0.00104403
0.00104403
0.00104403
0.00104402
0.001044
0.00104401
0.00104401
0.00104403
0.00104403
0.00104405
0.00104405
0.00104409
0.00104409
0.00104411
0.00104411
0.00104413
0.00104412
0.00104413
0.00104412
0.00104418
0.00104418
0.00104422
0.00104422
0.00104422
0.0010442
0.00104422
0.00104422
0.00104429
0.0010443
0.00104433
0.00104433
0.00104445
0.00104448
0.00104455
0.00104468
0.00104485
0.0010449
0.00104516
0.00104551
0.00104636
0.00104668
0.00105176
0.0010511
0.00138766
0.00144033
0.00105324
0.00104537
0.00104351
0.00104289
0.00104258
0.00104243
0.00104233
0.00104228
0.00104223
0.00104221
0.00104217
0.00104216
0.00104213
0.00104215
0.00104215
0.00104215
0.00104215
0.00104216
0.00104216
0.00104218
0.00104218
0.00104222
0.00104222
0.00104225
0.00104225
0.00104229
0.00104229
0.00104233
0.00104233
0.00104238
0.00104238
0.00104243
0.00104243
0.00104247
0.00104246
0.00104248
0.00104248
0.00104247
0.00104246
0.00104248
0.00104248
0.0010425
0.0010425
0.00104249
0.00104248
0.00104252
0.00104252
0.00104252
0.00104252
0.00104254
0.00104254
0.00104257
0.00104257
0.00104257
0.00104256
0.00104255
0.00104256
0.00104256
0.00104258
0.00104258
0.0010426
0.0010426
0.00104263
0.00104263
0.00104266
0.00104266
0.00104268
0.00104268
0.00104268
0.00104267
0.00104274
0.00104274
0.00104278
0.00104278
0.00104278
0.00104275
0.00104278
0.00104278
0.00104285
0.00104286
0.00104289
0.00104289
0.00104302
0.00104306
0.00104312
0.00104326
0.00104344
0.00104349
0.00104376
0.00104413
0.001045
0.00104534
0.0010504
0.00104997
0.00137176
0.00147106
0.00105253
0.00104414
0.00104209
0.0010414
0.00104105
0.00104089
0.00104077
0.00104071
0.00104065
0.00104063
0.00104058
0.00104057
0.00104054
0.00104056
0.00104056
0.00104056
0.00104056
0.00104057
0.00104057
0.0010406
0.0010406
0.00104063
0.00104063
0.00104067
0.00104067
0.00104071
0.00104071
0.00104076
0.00104076
0.00104081
0.00104081
0.00104086
0.00104086
0.0010409
0.0010409
0.00104091
0.00104091
0.00104091
0.00104089
0.00104091
0.00104091
0.00104093
0.00104093
0.00104093
0.00104091
0.00104096
0.00104096
0.00104096
0.00104096
0.00104097
0.00104097
0.00104101
0.00104101
0.00104101
0.001041
0.00104099
0.001041
0.00104099
0.00104102
0.00104102
0.00104104
0.00104104
0.00104108
0.00104108
0.00104111
0.00104111
0.00104113
0.00104113
0.00104113
0.00104112
0.00104119
0.00104119
0.00104123
0.00104123
0.00104123
0.00104121
0.00104124
0.00104124
0.00104131
0.00104131
0.00104135
0.00104135
0.00104149
0.00104153
0.00104159
0.00104174
0.00104193
0.00104198
0.00104226
0.00104264
0.00104354
0.0010439
0.00104893
0.00104877
0.00135641
0.00149961
0.0010518
0.00104283
0.00104059
0.00103981
0.00103942
0.00103923
0.0010391
0.00103904
0.00103897
0.00103894
0.00103889
0.00103888
0.00103884
0.00103886
0.00103886
0.00103887
0.00103886
0.00103887
0.00103887
0.0010389
0.0010389
0.00103894
0.00103894
0.00103898
0.00103898
0.00103903
0.00103903
0.00103908
0.00103908
0.00103913
0.00103913
0.00103918
0.00103918
0.00103923
0.00103923
0.00103924
0.00103924
0.00103924
0.00103922
0.00103924
0.00103924
0.00103926
0.00103926
0.00103926
0.00103924
0.00103929
0.00103929
0.00103929
0.00103929
0.0010393
0.0010393
0.00103934
0.00103934
0.00103934
0.00103934
0.00103932
0.00103933
0.00103933
0.00103935
0.00103935
0.00103938
0.00103938
0.00103942
0.00103942
0.00103945
0.00103945
0.00103948
0.00103948
0.00103948
0.00103946
0.00103954
0.00103954
0.00103959
0.00103959
0.00103958
0.00103956
0.00103959
0.00103959
0.00103967
0.00103967
0.00103971
0.00103971
0.00103986
0.0010399
0.00103996
0.00104012
0.00104032
0.00104037
0.00104066
0.00104105
0.00104198
0.00104236
0.00104734
0.00104751
0.00134188
0.00152577
0.00105103
0.00104145
0.00103899
0.00103812
0.00103769
0.00103748
0.00103733
0.00103725
0.00103718
0.00103715
0.00103709
0.00103708
0.00103703
0.00103706
0.00103706
0.00103706
0.00103705
0.00103706
0.00103706
0.00103709
0.00103709
0.00103714
0.00103714
0.00103718
0.00103718
0.00103723
0.00103723
0.00103729
0.00103729
0.00103735
0.00103735
0.0010374
0.0010374
0.00103744
0.00103744
0.00103746
0.00103746
0.00103746
0.00103744
0.00103746
0.00103746
0.00103748
0.00103748
0.00103748
0.00103746
0.00103751
0.00103751
0.00103751
0.00103751
0.00103753
0.00103753
0.00103757
0.00103757
0.00103757
0.00103756
0.00103754
0.00103756
0.00103756
0.00103758
0.00103758
0.0010376
0.0010376
0.00103765
0.00103766
0.00103769
0.00103769
0.00103772
0.00103772
0.00103771
0.0010377
0.00103778
0.00103778
0.00103783
0.00103783
0.00103783
0.0010378
0.00103784
0.00103784
0.00103792
0.00103792
0.00103796
0.00103796
0.00103812
0.00103817
0.00103822
0.00103839
0.00103861
0.00103866
0.00103895
0.00103935
0.00104031
0.00104072
0.00104562
0.00104619
0.0013284
0.00154942
0.00105024
0.00104
0.00103731
0.00103634
0.00103585
0.00103561
0.00103545
0.00103536
0.00103528
0.00103524
0.00103518
0.00103516
0.00103511
0.00103513
0.00103513
0.00103513
0.00103513
0.00103514
0.00103514
0.00103517
0.00103517
0.00103522
0.00103522
0.00103526
0.00103526
0.00103532
0.00103532
0.00103538
0.00103538
0.00103545
0.00103544
0.0010355
0.0010355
0.00103555
0.00103555
0.00103556
0.00103556
0.00103556
0.00103554
0.00103557
0.00103557
0.00103559
0.00103559
0.00103558
0.00103556
0.00103562
0.00103562
0.00103562
0.00103562
0.00103564
0.00103564
0.00103568
0.00103568
0.00103568
0.00103568
0.00103566
0.00103567
0.00103567
0.0010357
0.0010357
0.00103572
0.00103572
0.00103578
0.00103578
0.00103581
0.00103581
0.00103584
0.00103584
0.00103584
0.00103582
0.00103591
0.00103591
0.00103596
0.00103596
0.00103596
0.00103594
0.00103597
0.00103597
0.00103606
0.00103606
0.0010361
0.0010361
0.00103627
0.00103633
0.00103637
0.00103655
0.00103678
0.00103684
0.00103713
0.00103755
0.00103853
0.00103896
0.00104376
0.00104479
0.00131621
0.00157045
0.00104942
0.00103848
0.00103553
0.00103445
0.00103391
0.00103364
0.00103345
0.00103335
0.00103326
0.00103321
0.00103315
0.00103312
0.00103307
0.00103309
0.00103309
0.00103309
0.00103308
0.0010331
0.0010331
0.00103313
0.00103313
0.00103318
0.00103318
0.00103323
0.00103323
0.00103329
0.00103329
0.00103336
0.00103336
0.00103343
0.00103343
0.00103349
0.00103349
0.00103354
0.00103354
0.00103355
0.00103355
0.00103355
0.00103353
0.00103356
0.00103355
0.00103358
0.00103358
0.00103357
0.00103355
0.00103361
0.00103361
0.00103361
0.00103361
0.00103363
0.00103363
0.00103367
0.00103367
0.00103367
0.00103367
0.00103365
0.00103367
0.00103367
0.00103369
0.00103369
0.00103372
0.00103372
0.00103378
0.00103379
0.00103382
0.00103382
0.00103385
0.00103386
0.00103385
0.00103383
0.00103392
0.00103392
0.00103398
0.00103398
0.00103398
0.00103395
0.00103399
0.00103399
0.00103408
0.00103408
0.00103413
0.00103413
0.0010343
0.00103437
0.00103441
0.0010346
0.00103484
0.0010349
0.0010352
0.00103563
0.00103664
0.00103709
0.00104178
0.00104333
0.00130547
0.00158882
0.00104857
0.00103689
0.00103366
0.00103246
0.00103185
0.00103155
0.00103134
0.00103123
0.00103112
0.00103107
0.001031
0.00103097
0.0010309
0.00103093
0.00103093
0.00103093
0.00103092
0.00103093
0.00103093
0.00103097
0.00103097
0.00103102
0.00103102
0.00103107
0.00103107
0.00103115
0.00103114
0.00103121
0.00103121
0.00103129
0.00103129
0.00103135
0.00103135
0.0010314
0.0010314
0.00103142
0.00103142
0.00103142
0.00103139
0.00103142
0.00103142
0.00103144
0.00103144
0.00103144
0.00103142
0.00103148
0.00103148
0.00103148
0.00103149
0.0010315
0.0010315
0.00103155
0.00103155
0.00103155
0.00103155
0.00103153
0.00103155
0.00103155
0.00103157
0.00103157
0.0010316
0.0010316
0.00103167
0.00103168
0.00103171
0.00103171
0.00103175
0.00103175
0.00103175
0.00103172
0.00103182
0.00103182
0.00103188
0.00103188
0.00103188
0.00103185
0.0010319
0.0010319
0.00103199
0.00103198
0.00103204
0.00103204
0.00103222
0.00103229
0.00103233
0.00103253
0.00103278
0.00103284
0.00103316
0.00103359
0.00103463
0.00103511
0.00103965
0.0010418
0.00129635
0.00160456
0.00104771
0.00103523
0.0010317
0.00103036
0.00102969
0.00102934
0.00102911
0.00102898
0.00102886
0.0010288
0.00102872
0.00102869
0.00102861
0.00102864
0.00102864
0.00102864
0.00102862
0.00102864
0.00102864
0.00102867
0.00102867
0.00102873
0.00102873
0.00102879
0.00102879
0.00102887
0.00102887
0.00102894
0.00102894
0.00102902
0.00102902
0.00102909
0.00102909
0.00102914
0.00102914
0.00102916
0.00102916
0.00102916
0.00102913
0.00102917
0.00102916
0.00102919
0.00102919
0.00102918
0.00102916
0.00102922
0.00102922
0.00102922
0.00102924
0.00102925
0.00102925
0.0010293
0.0010293
0.0010293
0.0010293
0.00102928
0.0010293
0.0010293
0.00102933
0.00102933
0.00102935
0.00102935
0.00102943
0.00102945
0.00102947
0.00102947
0.00102952
0.00102952
0.00102951
0.00102949
0.00102959
0.00102959
0.00102966
0.00102966
0.00102965
0.00102963
0.00102968
0.00102968
0.00102977
0.00102977
0.00102983
0.00102983
0.00103002
0.0010301
0.00103013
0.00103033
0.00103061
0.00103067
0.00103099
0.00103143
0.00103249
0.001033
0.00103739
0.00104019
0.00128892
0.0016177
0.00104682
0.0010335
0.00102964
0.00102816
0.0010274
0.00102701
0.00102675
0.0010266
0.00102647
0.0010264
0.00102631
0.00102628
0.00102619
0.00102622
0.00102622
0.00102622
0.0010262
0.00102622
0.00102621
0.00102625
0.00102625
0.00102632
0.00102632
0.00102638
0.00102638
0.00102646
0.00102646
0.00102654
0.00102654
0.00102663
0.00102663
0.0010267
0.0010267
0.00102676
0.00102675
0.00102678
0.00102678
0.00102677
0.00102675
0.00102678
0.00102678
0.0010268
0.0010268
0.0010268
0.00102677
0.00102684
0.00102684
0.00102683
0.00102685
0.00102687
0.00102687
0.00102692
0.00102692
0.00102692
0.00102692
0.00102691
0.00102692
0.00102693
0.00102695
0.00102695
0.00102698
0.00102698
0.00102706
0.00102708
0.00102711
0.00102711
0.00102716
0.00102716
0.00102716
0.00102713
0.00102723
0.00102723
0.00102731
0.0010273
0.0010273
0.00102728
0.00102733
0.00102733
0.00102743
0.00102743
0.00102749
0.00102749
0.00102769