/*--------------------------------*- C++ -*----------------------------------*\
| =========                 |                                                 |
| \\      /  F ield         | OpenFOAM: The Open Source CFD Toolbox           |
|  \\    /   O peration     | Version:  v2012                                 |
|   \\  /    A nd           | Website:  www.openfoam.com                      |
|    \\/     M anipulation  |                                                 |
\*---------------------------------------------------------------------------*/
FoamFile
{
    version     2.0;
    format      ascii;
    class       volVectorField;
    location    "2.5";
    object      wallShearStress;
}
// * * * * * * * * * * * * * * * * * * * * * * * * * * * * * * * * * * * * * //

dimensions      [0 2 -2 0 0 0 0];


internalField   uniform (0 0 0);

boundaryField
{
    inlet
    {
        type            calculated;
        value           uniform (0 0 0);
    }
    outlet
    {
        type            calculated;
        value           uniform (0 0 0);
    }
    topWall
    {
        type            calculated;
        value           nonuniform List<vector> 
545
(
(3.30907e-09 -2.3091e-09 0)
(3.33197e-09 -6.59369e-09 0)
(3.26057e-09 -1.09087e-08 0)
(3.23307e-09 -1.50651e-08 0)
(3.21503e-09 -1.90195e-08 0)
(3.19817e-09 -2.28288e-08 0)
(3.1805e-09 -2.65304e-08 0)
(3.16151e-09 -3.01239e-08 0)
(3.14124e-09 -3.36015e-08 0)
(3.11978e-09 -3.69622e-08 0)
(3.09723e-09 -4.02101e-08 0)
(3.07372e-09 -4.33494e-08 0)
(3.04931e-09 -4.63823e-08 0)
(3.02415e-09 -4.93119e-08 0)
(2.99827e-09 -5.21394e-08 0)
(2.97185e-09 -5.48692e-08 0)
(2.94486e-09 -5.75023e-08 0)
(2.9175e-09 -6.00434e-08 0)
(2.88972e-09 -6.24931e-08 0)
(2.86172e-09 -6.48566e-08 0)
(2.83341e-09 -6.71337e-08 0)
(2.805e-09 -6.93302e-08 0)
(2.7764e-09 -7.14456e-08 0)
(2.74778e-09 -7.34857e-08 0)
(2.71907e-09 -7.54497e-08 0)
(2.69042e-09 -7.73435e-08 0)
(2.66175e-09 -7.91662e-08 0)
(2.6332e-09 -8.09235e-08 0)
(2.6047e-09 -8.26144e-08 0)
(2.57637e-09 -8.42443e-08 0)
(2.54814e-09 -8.58125e-08 0)
(2.52012e-09 -8.73239e-08 0)
(2.49223e-09 -8.8778e-08 0)
(2.46458e-09 -9.01792e-08 0)
(2.4371e-09 -9.15271e-08 0)
(2.40986e-09 -9.28259e-08 0)
(2.38283e-09 -9.40753e-08 0)
(2.35605e-09 -9.52789e-08 0)
(2.32949e-09 -9.64369e-08 0)
(2.30318e-09 -9.75522e-08 0)
(2.27711e-09 -9.86254e-08 0)
(2.25129e-09 -9.96587e-08 0)
(2.2257e-09 -1.00653e-07 0)
(2.20037e-09 -1.0161e-07 0)
(2.17527e-09 -1.02532e-07 0)
(2.15041e-09 -1.03419e-07 0)
(2.12579e-09 -1.04272e-07 0)
(2.10139e-09 -1.05094e-07 0)
(2.07722e-09 -1.05885e-07 0)
(2.05327e-09 -1.06645e-07 0)
(2.02953e-09 -1.07378e-07 0)
(2.00599e-09 -1.08082e-07 0)
(1.98265e-09 -1.08761e-07 0)
(1.9595e-09 -1.09413e-07 0)
(1.93653e-09 -1.10041e-07 0)
(1.91372e-09 -1.10645e-07 0)
(1.89108e-09 -1.11227e-07 0)
(1.86859e-09 -1.11786e-07 0)
(1.84625e-09 -1.12324e-07 0)
(1.82403e-09 -1.12841e-07 0)
(1.80193e-09 -1.13339e-07 0)
(1.77995e-09 -1.13818e-07 0)
(1.75806e-09 -1.14278e-07 0)
(1.73626e-09 -1.14721e-07 0)
(1.71453e-09 -1.15147e-07 0)
(1.69288e-09 -1.15556e-07 0)
(1.67127e-09 -1.15949e-07 0)
(1.64969e-09 -1.16327e-07 0)
(1.62821e-09 -1.16692e-07 0)
(1.60641e-09 -1.17037e-07 0)
(1.58609e-09 -1.1739e-07 0)
(1.55939e-09 -1.17679e-07 0)
(1.53492e-09 -1.17978e-07 0)
(1.52129e-09 -1.1832e-07 0)
(1.50801e-09 -1.18591e-07 0)
(1.49486e-09 -1.1886e-07 0)
(1.48173e-09 -1.1914e-07 0)
(1.46864e-09 -1.19421e-07 0)
(1.45557e-09 -1.19695e-07 0)
(1.44252e-09 -1.19964e-07 0)
(1.42949e-09 -1.20229e-07 0)
(1.41648e-09 -1.20491e-07 0)
(1.40349e-09 -1.20749e-07 0)
(1.39053e-09 -1.21004e-07 0)
(1.37759e-09 -1.21255e-07 0)
(1.36467e-09 -1.21503e-07 0)
(1.35177e-09 -1.21747e-07 0)
(1.3389e-09 -1.21989e-07 0)
(1.32605e-09 -1.22226e-07 0)
(1.31322e-09 -1.2246e-07 0)
(1.30044e-09 -1.22691e-07 0)
(1.28754e-09 -1.22916e-07 0)
(1.27531e-09 -1.23152e-07 0)
(1.26034e-09 -1.23341e-07 0)
(1.25716e-09 -1.23714e-07 0)
(1.20387e-09 -1.23713e-07 0)
(1.13429e-09 -1.23769e-07 0)
(1.11876e-09 -1.24253e-07 0)
(1.10917e-09 -1.2437e-07 0)
(1.10106e-09 -1.24437e-07 0)
(1.09327e-09 -1.24574e-07 0)
(1.08555e-09 -1.24747e-07 0)
(1.07783e-09 -1.24911e-07 0)
(1.07009e-09 -1.25062e-07 0)
(1.06233e-09 -1.2521e-07 0)
(1.05455e-09 -1.2536e-07 0)
(1.04676e-09 -1.25511e-07 0)
(1.03895e-09 -1.25661e-07 0)
(1.03111e-09 -1.25809e-07 0)
(1.02327e-09 -1.25957e-07 0)
(1.0154e-09 -1.26104e-07 0)
(1.00751e-09 -1.2625e-07 0)
(9.99605e-10 -1.26395e-07 0)
(9.91683e-10 -1.2654e-07 0)
(9.8374e-10 -1.26684e-07 0)
(9.75782e-10 -1.26827e-07 0)
(9.67803e-10 -1.26969e-07 0)
(9.59809e-10 -1.2711e-07 0)
(9.51795e-10 -1.2725e-07 0)
(9.43765e-10 -1.2739e-07 0)
(9.35715e-10 -1.27529e-07 0)
(9.2765e-10 -1.27667e-07 0)
(9.19566e-10 -1.27803e-07 0)
(9.11466e-10 -1.2794e-07 0)
(9.03347e-10 -1.28075e-07 0)
(8.95212e-10 -1.28209e-07 0)
(8.8706e-10 -1.28342e-07 0)
(8.78891e-10 -1.28475e-07 0)
(8.70705e-10 -1.28606e-07 0)
(8.62502e-10 -1.28737e-07 0)
(8.54284e-10 -1.28867e-07 0)
(8.46048e-10 -1.28995e-07 0)
(8.37796e-10 -1.29123e-07 0)
(8.29527e-10 -1.2925e-07 0)
(8.21244e-10 -1.29376e-07 0)
(8.12943e-10 -1.29501e-07 0)
(8.04628e-10 -1.29625e-07 0)
(7.96296e-10 -1.29747e-07 0)
(7.87949e-10 -1.2987e-07 0)
(7.79586e-10 -1.2999e-07 0)
(7.71209e-10 -1.3011e-07 0)
(7.62815e-10 -1.30229e-07 0)
(7.54407e-10 -1.30347e-07 0)
(7.45984e-10 -1.30464e-07 0)
(7.37547e-10 -1.3058e-07 0)
(7.29094e-10 -1.30694e-07 0)
(7.20628e-10 -1.30808e-07 0)
(7.12147e-10 -1.30921e-07 0)
(7.03652e-10 -1.31032e-07 0)
(6.95143e-10 -1.31143e-07 0)
(6.8662e-10 -1.31253e-07 0)
(6.78085e-10 -1.31361e-07 0)
(6.69535e-10 -1.31468e-07 0)
(6.60973e-10 -1.31575e-07 0)
(6.52397e-10 -1.3168e-07 0)
(6.43809e-10 -1.31784e-07 0)
(6.35208e-10 -1.31888e-07 0)
(6.26596e-10 -1.3199e-07 0)
(6.1797e-10 -1.32091e-07 0)
(6.09333e-10 -1.32191e-07 0)
(6.00684e-10 -1.3229e-07 0)
(5.92024e-10 -1.32388e-07 0)
(5.83351e-10 -1.32485e-07 0)
(5.74668e-10 -1.32581e-07 0)
(5.65974e-10 -1.32676e-07 0)
(5.57268e-10 -1.3277e-07 0)
(5.48552e-10 -1.32862e-07 0)
(5.39825e-10 -1.32954e-07 0)
(5.31088e-10 -1.33045e-07 0)
(5.2234e-10 -1.33134e-07 0)
(5.13581e-10 -1.33223e-07 0)
(5.04813e-10 -1.3331e-07 0)
(4.96034e-10 -1.33396e-07 0)
(4.87245e-10 -1.33481e-07 0)
(4.78446e-10 -1.33564e-07 0)
(4.69637e-10 -1.33646e-07 0)
(4.60818e-10 -1.33727e-07 0)
(4.51989e-10 -1.33806e-07 0)
(4.43151e-10 -1.33884e-07 0)
(4.34302e-10 -1.3396e-07 0)
(4.25445e-10 -1.34035e-07 0)
(4.16576e-10 -1.34107e-07 0)
(4.077e-10 -1.34179e-07 0)
(3.98812e-10 -1.34248e-07 0)
(3.89918e-10 -1.34315e-07 0)
(3.81012e-10 -1.3438e-07 0)
(3.721e-10 -1.34444e-07 0)
(3.63177e-10 -1.34505e-07 0)
(3.54248e-10 -1.34565e-07 0)
(3.45309e-10 -1.34622e-07 0)
(3.36364e-10 -1.34677e-07 0)
(3.27411e-10 -1.34729e-07 0)
(3.18451e-10 -1.3478e-07 0)
(3.09485e-10 -1.34828e-07 0)
(3.00512e-10 -1.34874e-07 0)
(2.91534e-10 -1.34918e-07 0)
(2.8255e-10 -1.34959e-07 0)
(2.73563e-10 -1.34999e-07 0)
(2.6457e-10 -1.35036e-07 0)
(2.55574e-10 -1.35071e-07 0)
(2.46573e-10 -1.35104e-07 0)
(2.37571e-10 -1.35135e-07 0)
(2.28565e-10 -1.35163e-07 0)
(2.19558e-10 -1.3519e-07 0)
(2.10549e-10 -1.35214e-07 0)
(2.0154e-10 -1.35238e-07 0)
(1.92528e-10 -1.35258e-07 0)
(1.83518e-10 -1.35277e-07 0)
(1.74506e-10 -1.35294e-07 0)
(1.65496e-10 -1.3531e-07 0)
(1.56486e-10 -1.35323e-07 0)
(1.47477e-10 -1.35335e-07 0)
(1.3847e-10 -1.35346e-07 0)
(1.29465e-10 -1.35354e-07 0)
(1.20462e-10 -1.35361e-07 0)
(1.11461e-10 -1.35367e-07 0)
(1.02463e-10 -1.3537e-07 0)
(9.34687e-11 -1.35373e-07 0)
(8.44777e-11 -1.35374e-07 0)
(7.54901e-11 -1.35373e-07 0)
(6.65068e-11 -1.35371e-07 0)
(5.75275e-11 -1.35367e-07 0)
(4.85529e-11 -1.35363e-07 0)
(3.9583e-11 -1.35356e-07 0)
(3.06182e-11 -1.35349e-07 0)
(2.16586e-11 -1.35339e-07 0)
(1.27046e-11 -1.35329e-07 0)
(3.75639e-12 -1.35317e-07 0)
(-5.18582e-12 -1.35304e-07 0)
(-1.41217e-11 -1.3529e-07 0)
(-2.30512e-11 -1.35274e-07 0)
(-3.19738e-11 -1.35256e-07 0)
(-4.08895e-11 -1.35238e-07 0)
(-4.97979e-11 -1.35218e-07 0)
(-5.86988e-11 -1.35197e-07 0)
(-6.75919e-11 -1.35174e-07 0)
(-7.64771e-11 -1.3515e-07 0)
(-8.53538e-11 -1.35124e-07 0)
(-9.42222e-11 -1.35097e-07 0)
(-1.03082e-10 -1.35069e-07 0)
(-1.11932e-10 -1.35039e-07 0)
(-1.20773e-10 -1.35007e-07 0)
(-1.29604e-10 -1.34975e-07 0)
(-1.38426e-10 -1.3494e-07 0)
(-1.47237e-10 -1.34905e-07 0)
(-1.56038e-10 -1.34867e-07 0)
(-1.64828e-10 -1.34828e-07 0)
(-1.73607e-10 -1.34788e-07 0)
(-1.82375e-10 -1.34746e-07 0)
(-1.9113e-10 -1.34702e-07 0)
(-1.99875e-10 -1.34657e-07 0)
(-2.08606e-10 -1.3461e-07 0)
(-2.17325e-10 -1.34562e-07 0)
(-2.2603e-10 -1.34511e-07 0)
(-2.34723e-10 -1.3446e-07 0)
(-2.43402e-10 -1.34406e-07 0)
(-2.52066e-10 -1.34351e-07 0)
(-2.60717e-10 -1.34294e-07 0)
(-2.69352e-10 -1.34235e-07 0)
(-2.77973e-10 -1.34174e-07 0)
(-2.86578e-10 -1.34112e-07 0)
(-2.95167e-10 -1.34048e-07 0)
(-3.03743e-10 -1.33981e-07 0)
(-3.12287e-10 -1.33915e-07 0)
(-3.20882e-10 -1.33842e-07 0)
(-3.2917e-10 -1.33781e-07 0)
(-3.38675e-10 -1.3368e-07 0)
(-3.42916e-10 -1.33743e-07 0)
(-3.6946e-10 -1.33481e-07 0)
(-4.05332e-10 -1.33278e-07 0)
(-4.16619e-10 -1.33477e-07 0)
(-4.22067e-10 -1.33378e-07 0)
(-4.26186e-10 -1.33217e-07 0)
(-4.30061e-10 -1.3311e-07 0)
(-4.33957e-10 -1.33036e-07 0)
(-4.37935e-10 -1.32957e-07 0)
(-4.42006e-10 -1.32866e-07 0)
(-4.46168e-10 -1.3277e-07 0)
(-4.50424e-10 -1.32675e-07 0)
(-4.54771e-10 -1.32579e-07 0)
(-4.5921e-10 -1.32481e-07 0)
(-4.63739e-10 -1.32381e-07 0)
(-4.68356e-10 -1.32279e-07 0)
(-4.73063e-10 -1.32175e-07 0)
(-4.77855e-10 -1.32069e-07 0)
(-4.82734e-10 -1.31961e-07 0)
(-4.87696e-10 -1.31851e-07 0)
(-4.92744e-10 -1.31738e-07 0)
(-4.97871e-10 -1.31623e-07 0)
(-5.03081e-10 -1.31506e-07 0)
(-5.08368e-10 -1.31386e-07 0)
(-5.13736e-10 -1.31264e-07 0)
(-5.19178e-10 -1.31139e-07 0)
(-5.24698e-10 -1.31012e-07 0)
(-5.30289e-10 -1.30881e-07 0)
(-5.35955e-10 -1.30748e-07 0)
(-5.41691e-10 -1.30612e-07 0)
(-5.47497e-10 -1.30474e-07 0)
(-5.5337e-10 -1.30332e-07 0)
(-5.59312e-10 -1.30187e-07 0)
(-5.65316e-10 -1.30039e-07 0)
(-5.71387e-10 -1.29889e-07 0)
(-5.77517e-10 -1.29734e-07 0)
(-5.8371e-10 -1.29577e-07 0)
(-5.89959e-10 -1.29416e-07 0)
(-5.96266e-10 -1.29252e-07 0)
(-6.02628e-10 -1.29085e-07 0)
(-6.09041e-10 -1.28914e-07 0)
(-6.15505e-10 -1.28738e-07 0)
(-6.22021e-10 -1.2856e-07 0)
(-6.28583e-10 -1.28378e-07 0)
(-6.3519e-10 -1.28192e-07 0)
(-6.4184e-10 -1.28002e-07 0)
(-6.48528e-10 -1.27807e-07 0)
(-6.55263e-10 -1.2761e-07 0)
(-6.62029e-10 -1.27407e-07 0)
(-6.68827e-10 -1.272e-07 0)
(-6.75661e-10 -1.2699e-07 0)
(-6.82525e-10 -1.26775e-07 0)
(-6.89405e-10 -1.26553e-07 0)
(-6.96302e-10 -1.26325e-07 0)
(-7.03227e-10 -1.26094e-07 0)
(-7.10176e-10 -1.25859e-07 0)
(-7.17149e-10 -1.2562e-07 0)
(-7.24133e-10 -1.25376e-07 0)
(-7.31134e-10 -1.25128e-07 0)
(-7.38136e-10 -1.24873e-07 0)
(-7.45149e-10 -1.24614e-07 0)
(-7.52161e-10 -1.24349e-07 0)
(-7.59179e-10 -1.2408e-07 0)
(-7.66188e-10 -1.23804e-07 0)
(-7.73193e-10 -1.23523e-07 0)
(-7.80181e-10 -1.23235e-07 0)
(-7.87166e-10 -1.22943e-07 0)
(-7.94134e-10 -1.22645e-07 0)
(-8.01087e-10 -1.22342e-07 0)
(-8.0802e-10 -1.22033e-07 0)
(-8.14931e-10 -1.21718e-07 0)
(-8.21811e-10 -1.21397e-07 0)
(-8.28659e-10 -1.21069e-07 0)
(-8.35472e-10 -1.20736e-07 0)
(-8.42246e-10 -1.20396e-07 0)
(-8.48979e-10 -1.2005e-07 0)
(-8.55668e-10 -1.19697e-07 0)
(-8.62305e-10 -1.19338e-07 0)
(-8.68872e-10 -1.1897e-07 0)
(-8.7537e-10 -1.18594e-07 0)
(-8.8182e-10 -1.18212e-07 0)
(-8.88208e-10 -1.17824e-07 0)
(-8.94532e-10 -1.1743e-07 0)
(-9.00783e-10 -1.17029e-07 0)
(-9.06961e-10 -1.16621e-07 0)
(-9.1306e-10 -1.16207e-07 0)
(-9.19062e-10 -1.15783e-07 0)
(-9.2496e-10 -1.15351e-07 0)
(-9.30768e-10 -1.14912e-07 0)
(-9.36471e-10 -1.14464e-07 0)
(-9.42083e-10 -1.1401e-07 0)
(-9.47594e-10 -1.13549e-07 0)
(-9.52996e-10 -1.13081e-07 0)
(-9.58279e-10 -1.12605e-07 0)
(-9.63448e-10 -1.12121e-07 0)
(-9.68485e-10 -1.11629e-07 0)
(-9.73412e-10 -1.11131e-07 0)
(-9.78188e-10 -1.10623e-07 0)
(-9.82822e-10 -1.10107e-07 0)
(-9.87327e-10 -1.09583e-07 0)
(-9.91668e-10 -1.0905e-07 0)
(-9.95845e-10 -1.08507e-07 0)
(-9.99888e-10 -1.07958e-07 0)
(-1.00377e-09 -1.07402e-07 0)
(-1.0075e-09 -1.06838e-07 0)
(-1.01106e-09 -1.06265e-07 0)
(-1.01446e-09 -1.05685e-07 0)
(-1.01768e-09 -1.05096e-07 0)
(-1.02071e-09 -1.04499e-07 0)
(-1.02356e-09 -1.03893e-07 0)
(-1.02621e-09 -1.03279e-07 0)
(-1.02867e-09 -1.02657e-07 0)
(-1.03094e-09 -1.02026e-07 0)
(-1.03301e-09 -1.01387e-07 0)
(-1.03488e-09 -1.00741e-07 0)
(-1.03654e-09 -1.00086e-07 0)
(-1.03799e-09 -9.94242e-08 0)
(-1.03923e-09 -9.87541e-08 0)
(-1.04025e-09 -9.80754e-08 0)
(-1.04106e-09 -9.73896e-08 0)
(-1.04165e-09 -9.66962e-08 0)
(-1.04199e-09 -9.59939e-08 0)
(-1.04211e-09 -9.52839e-08 0)
(-1.042e-09 -9.45668e-08 0)
(-1.04166e-09 -9.38425e-08 0)
(-1.04106e-09 -9.31087e-08 0)
(-1.04022e-09 -9.23667e-08 0)
(-1.03913e-09 -9.16179e-08 0)
(-1.03782e-09 -9.08635e-08 0)
(-1.03626e-09 -9.01015e-08 0)
(-1.03446e-09 -8.93333e-08 0)
(-1.03242e-09 -8.85583e-08 0)
(-1.03012e-09 -8.77767e-08 0)
(-1.02757e-09 -8.69882e-08 0)
(-1.02477e-09 -8.61932e-08 0)
(-1.02173e-09 -8.53929e-08 0)
(-1.01842e-09 -8.45851e-08 0)
(-1.01486e-09 -8.37717e-08 0)
(-1.01105e-09 -8.29528e-08 0)
(-1.00697e-09 -8.21267e-08 0)
(-1.00262e-09 -8.1294e-08 0)
(-9.98036e-10 -8.04572e-08 0)
(-9.93208e-10 -7.96159e-08 0)
(-9.88132e-10 -7.877e-08 0)
(-9.82811e-10 -7.79197e-08 0)
(-9.77238e-10 -7.70646e-08 0)
(-9.71424e-10 -7.62056e-08 0)
(-9.65364e-10 -7.53424e-08 0)
(-9.59066e-10 -7.44758e-08 0)
(-9.52528e-10 -7.36055e-08 0)
(-9.45756e-10 -7.27323e-08 0)
(-9.38746e-10 -7.18557e-08 0)
(-9.31476e-10 -7.09742e-08 0)
(-9.24e-10 -7.00919e-08 0)
(-9.16275e-10 -6.92055e-08 0)
(-9.08336e-10 -6.83177e-08 0)
(-9.00197e-10 -6.74296e-08 0)
(-8.91836e-10 -6.65394e-08 0)
(-8.83265e-10 -6.5648e-08 0)
(-8.74493e-10 -6.47559e-08 0)
(-8.65526e-10 -6.38635e-08 0)
(-8.56353e-10 -6.29698e-08 0)
(-8.46983e-10 -6.20753e-08 0)
(-8.37444e-10 -6.11819e-08 0)
(-8.27726e-10 -6.02888e-08 0)
(-8.17861e-10 -5.93979e-08 0)
(-8.07836e-10 -5.85083e-08 0)
(-7.97667e-10 -5.76208e-08 0)
(-7.87363e-10 -5.67358e-08 0)
(-7.76925e-10 -5.58531e-08 0)
(-7.66335e-10 -5.49713e-08 0)
(-7.55619e-10 -5.4092e-08 0)
(-7.44786e-10 -5.32157e-08 0)
(-7.33835e-10 -5.23419e-08 0)
(-7.22797e-10 -5.14727e-08 0)
(-7.11668e-10 -5.06075e-08 0)
(-7.00457e-10 -4.97468e-08 0)
(-6.89171e-10 -4.88902e-08 0)
(-6.77819e-10 -4.80409e-08 0)
(-6.6639e-10 -4.7188e-08 0)
(-6.54947e-10 -4.63643e-08 0)
(-6.43263e-10 -4.54442e-08 0)
(-6.32308e-10 -4.47204e-08 0)
(-6.17607e-10 -4.38791e-08 0)
(-6.00215e-10 -4.27352e-08 0)
(-5.8542e-10 -4.17854e-08 0)
(-5.71407e-10 -4.0892e-08 0)
(-5.5774e-10 -3.99903e-08 0)
(-5.44314e-10 -3.90918e-08 0)
(-5.31088e-10 -3.82165e-08 0)
(-5.18063e-10 -3.73683e-08 0)
(-5.05236e-10 -3.65419e-08 0)
(-4.92617e-10 -3.57346e-08 0)
(-4.80218e-10 -3.4947e-08 0)
(-4.68041e-10 -3.41795e-08 0)
(-4.56088e-10 -3.34319e-08 0)
(-4.44365e-10 -3.2704e-08 0)
(-4.3287e-10 -3.19952e-08 0)
(-4.21604e-10 -3.13051e-08 0)
(-4.1055e-10 -3.06321e-08 0)
(-3.99722e-10 -2.99769e-08 0)
(-3.89116e-10 -2.93389e-08 0)
(-3.78729e-10 -2.87176e-08 0)
(-3.68564e-10 -2.8113e-08 0)
(-3.58625e-10 -2.75251e-08 0)
(-3.48899e-10 -2.69529e-08 0)
(-3.39391e-10 -2.63966e-08 0)
(-3.30091e-10 -2.5855e-08 0)
(-3.21003e-10 -2.53287e-08 0)
(-3.12119e-10 -2.48168e-08 0)
(-3.03432e-10 -2.43188e-08 0)
(-2.94949e-10 -2.38349e-08 0)
(-2.86659e-10 -2.33645e-08 0)
(-2.78567e-10 -2.29079e-08 0)
(-2.70663e-10 -2.24642e-08 0)
(-2.62947e-10 -2.20335e-08 0)
(-2.55402e-10 -2.16143e-08 0)
(-2.48037e-10 -2.12075e-08 0)
(-2.40852e-10 -2.0813e-08 0)
(-2.3383e-10 -2.04293e-08 0)
(-2.26978e-10 -2.00573e-08 0)
(-2.20282e-10 -1.96956e-08 0)
(-2.13761e-10 -1.93461e-08 0)
(-2.07378e-10 -1.90053e-08 0)
(-2.01158e-10 -1.86757e-08 0)
(-1.95083e-10 -1.83558e-08 0)
(-1.89152e-10 -1.80454e-08 0)
(-1.83364e-10 -1.77445e-08 0)
(-1.77713e-10 -1.74527e-08 0)
(-1.72196e-10 -1.71697e-08 0)
(-1.66814e-10 -1.68959e-08 0)
(-1.61557e-10 -1.66302e-08 0)
(-1.56426e-10 -1.6373e-08 0)
(-1.51416e-10 -1.61238e-08 0)
(-1.46529e-10 -1.5883e-08 0)
(-1.41755e-10 -1.56499e-08 0)
(-1.37096e-10 -1.54246e-08 0)
(-1.32547e-10 -1.52068e-08 0)
(-1.28104e-10 -1.49963e-08 0)
(-1.23761e-10 -1.47928e-08 0)
(-1.19517e-10 -1.4596e-08 0)
(-1.15371e-10 -1.44063e-08 0)
(-1.11318e-10 -1.42233e-08 0)
(-1.07354e-10 -1.40465e-08 0)
(-1.03478e-10 -1.38763e-08 0)
(-9.96856e-11 -1.37123e-08 0)
(-9.5977e-11 -1.35548e-08 0)
(-9.23431e-11 -1.34028e-08 0)
(-8.87845e-11 -1.32566e-08 0)
(-8.52986e-11 -1.31163e-08 0)
(-8.18819e-11 -1.29814e-08 0)
(-7.85319e-11 -1.28521e-08 0)
(-7.52474e-11 -1.27284e-08 0)
(-7.20226e-11 -1.26097e-08 0)
(-6.88539e-11 -1.24958e-08 0)
(-6.57402e-11 -1.23867e-08 0)
(-6.26798e-11 -1.22827e-08 0)
(-5.96703e-11 -1.21837e-08 0)
(-5.67084e-11 -1.20896e-08 0)
(-5.37908e-11 -1.20002e-08 0)
(-5.09146e-11 -1.19155e-08 0)
(-4.80768e-11 -1.18354e-08 0)
(-4.52737e-11 -1.17598e-08 0)
(-4.25025e-11 -1.16888e-08 0)
(-3.976e-11 -1.16222e-08 0)
(-3.70434e-11 -1.156e-08 0)
(-3.43504e-11 -1.15021e-08 0)
(-3.16809e-11 -1.14487e-08 0)
(-2.90351e-11 -1.13996e-08 0)
(-2.64171e-11 -1.13544e-08 0)
(-2.38363e-11 -1.13145e-08 0)
(-2.12986e-11 -1.12753e-08 0)
(-1.88351e-11 -1.12512e-08 0)
(-1.63851e-11 -1.11938e-08 0)
(-1.4169e-11 -1.12594e-08 0)
(-1.12003e-11 -1.09032e-08 0)
(-1.10067e-11 -1.17795e-08 0)
(-6.40503e-12 -1.02735e-08 0)
)
;
    }
    bottomWall
    {
        type            calculated;
        value           nonuniform List<vector> 
449
(
(-54.4116 -0.955063 0)
(-36.908 -0.00282159 0)
(-36.1895 -0.000292441 0)
(-34.9616 -0.000375219 0)
(-33.6637 -0.000336623 0)
(-32.6742 -0.000259187 0)
(-31.9046 -0.000201792 0)
(-31.3068 -0.000158285 0)
(-30.8391 -0.000116423 0)
(-30.5326 -8.37366e-05 0)
(-30.2861 -6.64998e-05 0)
(-30.0913 -5.6659e-05 0)
(-29.9081 -5.1724e-05 0)
(-29.747 -3.76918e-05 0)
(-29.6616 -2.33013e-05 0)
(-29.5976 -2.07703e-05 0)
(-29.5273 -1.67642e-05 0)
(-29.4891 -1.12982e-05 0)
(-29.4544 -1.40218e-05 0)
(-29.3959 -1.34625e-05 0)
(-29.3647 -1.0061e-05 0)
(-29.3294 -8.06718e-06 0)
(-29.3112 -7.43268e-06 0)
(-29.279 -1.07154e-05 0)
(-29.2382 -1.13217e-05 0)
(-29.2031 -6.86832e-06 0)
(-29.1936 -3.84482e-06 0)
(-29.1784 -3.26674e-06 0)
(-29.1718 -3.36954e-06 0)
(-29.1549 -5.65108e-06 0)
(-29.1322 -4.89242e-06 0)
(-29.1223 2.00683e-07 0)
(-29.1374 3.11374e-06 0)
(-29.1473 3.53962e-07 0)
(-29.1395 -2.67195e-06 0)
(-29.1279 -1.90908e-06 0)
(-29.1277 -5.95919e-07 0)
(-29.1248 -3.40578e-06 0)
(-29.1025 -5.38191e-06 0)
(-29.0868 -2.67538e-06 0)
(-29.0859 -4.07761e-07 0)
(-29.0854 -1.42012e-06 0)
(-29.0751 -1.77562e-06 0)
(-29.0726 5.40456e-07 0)
(-29.0815 2.05205e-06 0)
(-29.0894 3.43638e-06 0)
(-29.1078 2.79827e-06 0)
(-29.1105 -1.74867e-06 0)
(-29.0928 -3.73534e-06 0)
(-29.0817 -3.09761e-07 0)
(-29.0926 2.51987e-06 0)
(-29.1017 -1.7296e-07 0)
(-29.09 -2.90276e-06 0)
(-29.0794 -1.42933e-08 0)
(-29.0926 1.77017e-06 0)
(-29.0952 -9.11096e-07 0)
(-29.0848 -4.19149e-06 0)
(-29.0606 -4.36868e-06 0)
(-29.0506 -7.15859e-07 0)
(-29.057 1.59582e-06 0)
(-29.0639 2.79013e-06 0)
(-29.079 1.88258e-06 0)
(-29.0788 1.19431e-07 0)
(-29.079 -2.72517e-07 0)
(-29.0751 -1.77076e-06 0)
(-29.0638 -3.11498e-06 0)
(-29.0504 -1.70154e-06 0)
(-29.0523 1.06685e-06 0)
(-29.0614 9.11791e-07 0)
(-29.0601 -2.1853e-06 0)
(-29.0434 -2.75812e-06 0)
(-29.0394 5.77602e-08 0)
(-29.046 1.19234e-06 0)
(-29.0493 5.30155e-07 0)
(-29.0499 4.35338e-07 0)
(-29.0524 1.94238e-06 0)
(-29.0657 2.30136e-06 0)
(-29.0707 -8.97882e-08 0)
(-29.0628 -2.27213e-06 0)
(-29.051 -2.03702e-06 0)
(-29.0479 1.35584e-06 0)
(-29.0649 3.99182e-06 0)
(-29.0809 9.1375e-07 0)
(-29.0702 -3.472e-06 0)
(-29.0505 -3.90371e-06 0)
(-29.0377 -9.79324e-08 0)
(-29.0521 4.30233e-06 0)
(-29.0753 3.56863e-06 0)
(-29.0799 2.69198e-07 0)
(-29.0754 -1.49435e-06 0)
(-29.0671 -3.41745e-07 0)
(-29.0733 8.55228e-07 0)
(-29.0742 -1.52339e-06 0)
(-29.0583 -2.98247e-06 0)
(-29.0481 -1.36243e-06 0)
(-29.0487 2.07419e-06 0)
(-29.0683 3.12149e-06 0)
(-29.0755 -1.49369e-08 0)
(-29.0668 4.64888e-07 0)
(-29.08 2.969e-06 0)
(-29.0927 9.91493e-07 0)
(-29.0874 -8.45939e-07 0)
(-29.0848 -1.23038e-06 0)
(-29.0763 -2.06889e-06 0)
(-29.0661 -3.37254e-06 0)
(-29.0469 -3.09069e-06 0)
(-29.0409 5.68429e-07 0)
(-29.0552 2.10049e-06 0)
(-29.061 1.42149e-06 0)
(-29.0675 1.33141e-06 0)
(-29.072 1.68236e-06 0)
(-29.0807 1.57793e-06 0)
(-29.0846 -5.96138e-07 0)
(-29.0742 -3.38869e-06 0)
(-29.0539 -1.80345e-06 0)
(-29.0593 1.01249e-06 0)
(-29.0636 -9.9054e-07 0)
(-29.0493 -3.246e-06 0)
(-29.0341 -3.56294e-07 0)
(-29.048 1.60765e-06 0)
(-29.0493 -1.10728e-06 0)
(-29.0372 -1.06461e-06 0)
(-29.041 9.47113e-07 0)
(-29.0472 1.86056e-06 0)
(-29.0583 1.84864e-06 0)
(-29.065 5.97485e-07 0)
(-29.0637 -9.59022e-07 0)
(-29.0555 -5.81351e-07 0)
(-29.059 2.70832e-06 0)
(-29.0812 3.25433e-06 0)
(-29.0882 5.7129e-07 0)
(-29.0852 -1.13845e-06 0)
(-29.077 2.02926e-07 0)
(-29.0873 2.02156e-06 0)
(-29.0952 -1.75128e-07 0)
(-29.0841 -1.72725e-06 0)
(-29.0786 -1.15132e-06 0)
(-29.0735 -4.89177e-07 0)
(-29.0745 -8.66214e-07 0)
(-29.0649 -2.68684e-06 0)
(-29.0483 -1.13808e-06 0)
(-29.0555 8.88107e-07 0)
(-29.0584 7.87593e-07 0)
(-29.0636 6.02599e-07 0)
(-29.0638 3.86356e-07 0)
(-29.0668 6.69404e-07 0)
(-29.0699 -8.71294e-07 0)
(-29.0571 -1.97685e-06 0)
(-29.0504 9.43347e-08 0)
(-29.059 3.13385e-06 0)
(-29.0817 3.91432e-06 0)
(-29.0975 1.41067e-06 0)
(-29.0942 -1.26029e-06 0)
(-29.0836 -2.71995e-07 0)
(-29.092 1.58202e-06 0)
(-29.0992 -3.86223e-07 0)
(-29.0871 -1.20922e-06 0)
(-29.0869 -1.23185e-06 0)
(-29.0746 -2.09685e-06 0)
(-29.0666 -7.67829e-07 0)
(-29.0683 1.08139e-06 0)
(-29.0784 9.6318e-07 0)
(-29.0774 -6.59315e-07 0)
(-29.0709 -3.28252e-07 0)
(-29.0752 4.12668e-07 0)
(-29.0752 -1.84297e-07 0)
(-29.0726 -3.90648e-07 0)
(-29.0719 -3.30853e-07 0)
(-29.0701 -5.01166e-07 0)
(-29.0668 -1.76542e-06 0)
(-29.0516 -1.78705e-06 0)
(-29.0491 1.88416e-06 0)
(-29.0725 3.01584e-06 0)
(-29.0793 -1.25497e-07 0)
(-29.0703 -1.83161e-06 0)
(-29.0631 -1.84133e-07 0)
(-29.0706 8.75126e-07 0)
(-29.0719 1.0377e-06 0)
(-29.0799 1.09419e-06 0)
(-29.0813 -5.36599e-07 0)
(-29.0735 -9.01022e-07 0)
(-29.0727 9.04331e-07 0)
(-29.0828 6.43905e-07 0)
(-29.0772 -1.54808e-06 0)
(-29.0656 -6.66413e-07 0)
(-29.0713 1.7065e-06 0)
(-29.0852 9.79131e-07 0)
(-29.0827 8.85341e-07 0)
(-29.0945 3.16216e-07 0)
(-29.0839 -2.58458e-06 0)
(-29.0644 -2.03466e-06 0)
(-29.062 7.48357e-07 0)
(-29.0736 8.9772e-07 0)
(-29.072 -8.94651e-07 0)
(-29.0633 -1.52674e-06 0)
(-29.0554 7.51668e-08 0)
(-29.0659 1.26016e-06 0)
(-29.0704 1.10513e-06 0)
(-29.0787 1.99325e-06 0)
(-29.0946 8.29464e-07 0)
(-29.0878 -5.78893e-07 0)
(-29.0868 -7.70864e-08 0)
(-29.0866 -9.8424e-07 0)
(-29.0737 -1.4714e-06 0)
(-29.0688 6.73029e-07 0)
(-29.0844 2.74544e-06 0)
(-29.1042 1.52196e-06 0)
(-29.1021 -4.40144e-07 0)
(-29.0966 -1.8741e-07 0)
(-29.0983 -6.91477e-07 0)
(-29.0864 -1.17537e-06 0)
(-29.0831 2.25673e-07 0)
(-29.0908 3.0419e-07 0)
(-29.0874 6.32292e-07 0)
(-29.1 1.35574e-06 0)
(-29.1068 2.29134e-09 0)
(-29.0998 -3.11594e-08 0)
(-29.1069 9.18603e-07 0)
(-29.1131 -5.13312e-07 0)
(-29.0984 -8.75052e-07 0)
(-29.1003 6.40069e-07 0)
(-29.1088 -7.18232e-08 0)
(-29.0993 -8.21695e-07 0)
(-29.0963 -4.4488e-07 0)
(-29.0924 -1.93679e-07 0)
(-29.0926 -8.03518e-07 0)
(-29.0785 -1.2476e-06 0)
(-29.0726 -6.72574e-07 0)
(-29.0683 -2.45734e-08 0)
(-29.0732 5.25727e-07 0)
(-29.078 2.02657e-07 0)
(-29.077 4.33591e-07 0)
(-29.0865 8.73108e-07 0)
(-29.0921 7.22769e-07 0)
(-29.0975 3.23323e-07 0)
(-29.0968 -4.04574e-07 0)
(-29.0898 -1.19011e-06 0)
(-29.0751 -6.35737e-07 0)
(-29.0792 3.6598e-08 0)
(-29.0766 1.69009e-07 0)
(-29.0824 1.14164e-06 0)
(-29.0975 2.19374e-07 0)
(-29.0855 -7.51439e-07 0)
(-29.0833 -7.9945e-07 0)
(-29.07 -6.17801e-07 0)
(-29.0708 7.13417e-07 0)
(-29.0846 6.4235e-08 0)
(-29.0718 -1.13135e-06 0)
(-29.0616 6.41878e-07 0)
(-29.0865 1.11635e-06 0)
(-29.085 -1.92393e-07 0)
(-29.0817 3.37862e-08 0)
(-29.0848 1.4979e-07 0)
(-29.084 -3.59542e-08 0)
(-29.0848 -6.6845e-07 0)
(-29.0702 -8.75183e-07 0)
(-29.0659 7.76518e-07 0)
(-29.0885 1.76306e-06 0)
(-29.105 7.18372e-07 0)
(-29.1034 -8.00485e-07 0)
(-29.086 -1.0694e-06 0)
(-29.0791 4.67535e-08 0)
(-29.088 2.83467e-07 0)
(-29.086 -1.78645e-07 0)
(-29.0837 1.92992e-07 0)
(-29.0905 1.28395e-07 0)
(-29.0867 -2.21567e-07 0)
(-29.0851 -7.35579e-08 0)
(-29.0847 -4.32039e-08 0)
(-29.0838 -1.10227e-08 0)
(-29.0844 6.05624e-09 0)
(-29.0837 -2.70403e-07 0)
(-29.0772 -2.90409e-07 0)
(-29.0766 4.07174e-07 0)
(-29.0883 6.65837e-07 0)
(-29.0939 1.99535e-08 0)
(-29.0883 -1.626e-07 0)
(-29.0892 -3.70751e-07 0)
(-29.078 -4.53648e-07 0)
(-29.0774 3.51297e-07 0)
(-29.0888 5.8078e-07 0)
(-29.0937 5.03434e-08 0)
(-29.0892 -5.50016e-07 0)
(-29.0768 -6.00289e-07 0)
(-29.0719 -2.87388e-08 0)
(-29.0768 1.82858e-07 0)
(-29.0778 -1.00384e-07 0)
(-29.0741 2.85584e-07 0)
(-29.0868 2.45125e-07 0)
(-29.0807 -3.62435e-07 0)
(-29.0748 1.07854e-07 0)
(-29.0852 5.7417e-07 0)
(-29.0938 2.23501e-07 0)
(-29.0923 3.23918e-09 0)
(-29.0938 1.34813e-07 0)
(-29.0963 6.255e-08 0)
(-29.0956 -2.1491e-08 0)
(-29.0956 -3.67412e-08 0)
(-29.0942 -1.84276e-07 0)
(-29.0891 -8.24895e-09 0)
(-29.0939 1.6436e-07 0)
(-29.0945 -1.68922e-07 0)
(-29.0876 -1.43502e-07 0)
(-29.0894 -3.41335e-08 0)
(-29.0863 -2.29042e-07 0)
(-29.0811 -1.79266e-08 0)
(-29.0859 1.47319e-07 0)
(-29.0866 2.12292e-08 0)
(-29.0868 -1.48598e-08 0)
(-29.0862 5.7751e-09 0)
(-29.0868 -2.72908e-08 0)
(-29.0848 -1.07268e-07 0)
(-29.0825 -1.31049e-08 0)
(-29.0841 -2.26835e-07 0)
(-29.0726 -3.1354e-07 0)
(-29.0715 2.41882e-07 0)
(-29.084 7.46783e-08 0)
(-29.075 -1.4593e-07 0)
(-29.0779 3.30287e-07 0)
(-29.0894 2.14172e-07 0)
(-29.0869 -4.03269e-08 0)
(-29.0874 7.30336e-08 0)
(-29.0896 5.73465e-08 0)
(-29.0893 -2.52705e-07 0)
(-29.0781 -2.31453e-07 0)
(-29.0793 6.00805e-08 0)
(-29.0812 1.02473e-07 0)
(-29.0841 5.73635e-08 0)
(-29.0836 1.93688e-08 0)
(-29.0847 1.05178e-07 0)
(-29.0888 6.85316e-08 0)
(-29.0881 -1.82616e-07 0)
(-29.0795 -3.28697e-07 0)
(-29.072 -2.28562e-08 0)
(-29.0791 1.33655e-07 0)
(-29.0786 5.27739e-08 0)
(-29.0813 -9.35569e-08 0)
(-29.0736 -1.39057e-07 0)
(-29.0746 1.87599e-07 0)
(-29.084 1.4387e-07 0)
(-29.0823 9.23541e-09 0)
(-29.0845 -1.04827e-08 0)
(-29.0813 7.48546e-09 0)
(-29.0847 7.20053e-08 0)
(-29.085 -9.05593e-08 0)
(-29.0793 2.67855e-08 0)
(-29.0867 1.87885e-07 0)
(-29.0899 -3.89903e-08 0)
(-29.0841 -1.63792e-07 0)
(-29.0805 -7.40779e-08 0)
(-29.0802 -9.74834e-08 0)
(-29.0748 -1.62545e-08 0)
(-29.0792 2.13759e-07 0)
(-29.0877 4.35382e-08 0)
(-29.0808 -9.21209e-08 0)
(-29.0812 4.74036e-08 0)
(-29.0844 -3.24904e-08 0)
(-29.0786 -6.62704e-08 0)
(-29.0796 1.14928e-07 0)
(-29.0879 1.19837e-07 0)
(-29.0888 -7.49303e-10 0)
(-29.0877 -3.5134e-08 0)
(-29.086 -5.50497e-08 0)
(-29.0832 -6.72236e-08 0)
(-29.0806 -7.28407e-08 0)
(-29.078 -5.84609e-08 0)
(-29.0763 -4.77728e-08 0)
(-29.0744 2.11716e-08 0)
(-29.0783 2.21521e-08 0)
(-29.0758 -1.67438e-08 0)
(-29.0767 6.0388e-09 0)
(-29.0763 -2.00012e-08 0)
(-29.0752 6.52862e-08 0)
(-29.0814 9.79256e-09 0)
(-29.0759 -6.13111e-08 0)
(-29.0767 5.19531e-08 0)
(-29.08 2.829e-08 0)
(-29.0789 -3.36221e-08 0)
(-29.0772 -1.10106e-08 0)
(-29.0779 2.34847e-08 0)
(-29.0792 -7.45639e-09 0)
(-29.0773 8.95698e-09 0)
(-29.0798 4.72187e-08 0)
(-29.081 3.3905e-08 0)
(-29.0823 -3.74294e-09 0)
(-29.0806 -5.5959e-08 0)
(-29.0782 -1.17037e-08 0)
(-29.08 -4.69862e-08 0)
(-29.0747 -5.5985e-08 0)
(-29.0758 1.02762e-07 0)
(-29.0825 4.8073e-08 0)
(-29.0793 -3.20598e-08 0)
(-29.0801 -1.65965e-08 0)
(-29.078 -2.31019e-08 0)
(-29.0782 -8.62061e-09 0)
(-29.0771 -4.88994e-09 0)
(-29.0777 2.41603e-08 0)
(-29.0793 3.1193e-08 0)
(-29.0803 1.03557e-08 0)
(-29.0803 -6.66078e-09 0)
(-29.0799 -2.83584e-08 0)
(-29.078 -1.74324e-09 0)
(-29.0798 -5.4188e-08 0)
(-29.0738 -6.00719e-08 0)
(-29.0753 3.48375e-08 0)
(-29.0764 1.94994e-08 0)
(-29.0765 3.31754e-08 0)
(-29.0788 1.23734e-08 0)
(-29.0775 7.27583e-09 0)
(-29.0795 3.27636e-08 0)
(-29.0798 -3.777e-09 0)
(-29.0792 7.74789e-09 0)
(-29.0806 3.59285e-08 0)
(-29.0819 1.95519e-08 0)
(-29.0821 -3.42959e-09 0)
(-29.0816 -2.9753e-08 0)
(-29.0799 2.79035e-08 0)
(-29.0838 6.08235e-08 0)
(-29.0843 -7.39743e-08 0)
(-29.0779 -8.60555e-08 0)
(-29.0779 3.46776e-08 0)
(-29.081 -4.19351e-08 0)
(-29.0747 -7.05683e-08 0)
(-29.0755 8.90986e-10 0)
(-29.0749 6.14709e-09 0)
(-29.076 8.6391e-08 0)
(-29.0813 5.4532e-08 0)
(-29.0801 -2.07199e-08 0)
(-29.0798 4.09113e-08 0)
(-29.083 -5.63299e-09 0)
(-29.0791 -6.25013e-08 0)
(-29.0783 1.25106e-08 0)
(-29.0802 -1.13907e-08 0)
(-29.0774 -1.32257e-08 0)
(-29.0792 -3.31855e-08 0)
(-29.075 -4.2345e-08 0)
(-29.0763 6.5799e-08 0)
(-29.0799 5.63768e-08 0)
(-29.0803 2.46775e-08 0)
(-29.0819 -2.4422e-08 0)
(-29.0786 -2.89329e-08 0)
(-29.0799 -2.61385e-09 0)
(-29.0784 5.0964e-09 0)
(-29.0802 3.22385e-08 0)
(-29.0807 -1.38092e-08 0)
(-29.079 -2.81478e-08 0)
(-29.0787 5.75409e-09 0)
(-29.0796 3.72976e-08 0)
(-29.0814 2.59282e-08 0)
)
;
    }
    symmetry
    {
        type            symmetryPlane;
    }
    frontAndBack
    {
        type            empty;
    }
}


// ************************************************************************* //
