/*--------------------------------*- C++ -*----------------------------------*\
| =========                 |                                                 |
| \\      /  F ield         | OpenFOAM: The Open Source CFD Toolbox           |
|  \\    /   O peration     | Version:  v2012                                 |
|   \\  /    A nd           | Website:  www.openfoam.com                      |
|    \\/     M anipulation  |                                                 |
\*---------------------------------------------------------------------------*/
FoamFile
{
    version     2.0;
    format      ascii;
    class       volScalarField;
    location    "45";
    object      k;
}
// * * * * * * * * * * * * * * * * * * * * * * * * * * * * * * * * * * * * * //

dimensions      [0 2 -2 0 0 0 0];


internalField   nonuniform List<scalar> 
209825
(
0.00102413
0.000931725
0.000855513
0.000793385
0.000743521
0.000703689
0.000671857
0.000646162
0.000625261
0.000608018
0.000593687
0.000581612
0.000571382
0.000562608
0.000555056
0.000548486
0.000542752
0.000537708
0.000533254
0.0005293
0.00052577
0.000522617
0.000519774
0.000517222
0.000514897
0.000512807
0.000510883
0.000509152
0.000507541
0.000506093
0.000504733
0.000503513
0.000502353
0.000501319
0.000500325
0.000499444
0.000498584
0.000497827
0.000497081
0.00049643
0.00049578
0.000495215
0.000494649
0.000494162
0.000493662
0.000493239
0.000492801
0.000492433
0.000492046
0.000491724
0.00049138
0.000491099
0.000490797
0.000490558
0.000490284
0.000490084
0.000489839
0.000489665
0.000489449
0.000489298
0.000489107
0.000488972
0.000488808
0.000488685
0.000488546
0.000488443
0.000488304
0.00048821
0.000488091
0.000488023
0.000487926
0.000487874
0.000487793
0.00048775
0.000487673
0.00048763
0.000487562
0.000487529
0.000487471
0.000487447
0.000487401
0.000487389
0.000487359
0.000487369
0.000487367
0.000487401
0.000487401
0.000487463
0.000487468
0.000487543
0.000487547
0.000487617
0.000487808
0.000495753
0.000521335
0.00127064
0.00102413
0.000931725
0.000855513
0.000793385
0.000743521
0.000703688
0.000671854
0.000646159
0.000625257
0.000608013
0.000593681
0.000581605
0.000571374
0.0005626
0.000555048
0.000548476
0.000542743
0.000537698
0.000533244
0.000529289
0.000525759
0.000522606
0.000519762
0.000517211
0.000514885
0.000512795
0.000510871
0.000509139
0.000507529
0.00050608
0.00050472
0.000503501
0.000502341
0.000501306
0.000500312
0.000499431
0.000498571
0.000497814
0.000497068
0.000496417
0.000495767
0.000495202
0.000494635
0.000494148
0.000493648
0.000493226
0.000492787
0.000492419
0.000492032
0.00049171
0.000491366
0.000491085
0.000490783
0.000490544
0.00049027
0.00049007
0.000489825
0.00048965
0.000489435
0.000489284
0.000489093
0.000488957
0.000488794
0.00048867
0.000488531
0.000488429
0.00048829
0.000488196
0.000488077
0.000488009
0.000487912
0.000487859
0.000487779
0.000487735
0.000487658
0.000487616
0.000487547
0.000487514
0.000487456
0.000487432
0.000487386
0.000487374
0.000487344
0.000487354
0.000487352
0.000487386
0.000487386
0.000487448
0.000487453
0.000487528
0.000487533
0.000487602
0.000487793
0.000495753
0.000521328
0.00127136
0.00102413
0.000931725
0.000855514
0.000793384
0.000743516
0.000703679
0.000671841
0.000646142
0.000625236
0.000607989
0.000593654
0.000581574
0.000571342
0.000562565
0.000555011
0.000548438
0.000542703
0.000537657
0.000533201
0.000529246
0.000525715
0.00052256
0.000519716
0.000517164
0.000514837
0.000512747
0.000510822
0.00050909
0.000507479
0.00050603
0.00050467
0.00050345
0.000502289
0.000501254
0.00050026
0.000499378
0.000498518
0.000497761
0.000497014
0.000496363
0.000495713
0.000495148
0.000494581
0.000494094
0.000493594
0.000493171
0.000492732
0.000492364
0.000491977
0.000491655
0.00049131
0.000491029
0.000490727
0.000490488
0.000490214
0.000490014
0.000489769
0.000489594
0.000489379
0.000489227
0.000489037
0.000488901
0.000488738
0.000488614
0.000488474
0.000488372
0.000488233
0.000488139
0.00048802
0.000487952
0.000487855
0.000487802
0.000487721
0.000487678
0.000487601
0.000487558
0.00048749
0.000487457
0.000487399
0.000487375
0.000487329
0.000487316
0.000487287
0.000487296
0.000487294
0.000487328
0.000487328
0.00048739
0.000487395
0.000487469
0.000487474
0.000487543
0.000487735
0.000495724
0.000521283
0.00127281
0.00102413
0.000931727
0.000855515
0.000793383
0.000743509
0.000703665
0.000671819
0.000646113
0.000625201
0.000607947
0.000593607
0.000581524
0.000571287
0.000562507
0.000554949
0.000548374
0.000542636
0.000537588
0.00053313
0.000529173
0.00052564
0.000522484
0.000519639
0.000517085
0.000514758
0.000512666
0.00051074
0.000509007
0.000507395
0.000505945
0.000504585
0.000503364
0.000502203
0.000501167
0.000500172
0.000499291
0.00049843
0.000497672
0.000496925
0.000496274
0.000495623
0.000495057
0.000494491
0.000494003
0.000493502
0.000493079
0.00049264
0.000492272
0.000491884
0.000491562
0.000491217
0.000490936
0.000490634
0.000490395
0.000490121
0.00048992
0.000489675
0.0004895
0.000489285
0.000489133
0.000488942
0.000488806
0.000488643
0.000488519
0.000488379
0.000488277
0.000488138
0.000488044
0.000487924
0.000487856
0.000487759
0.000487706
0.000487625
0.000487582
0.000487505
0.000487462
0.000487394
0.00048736
0.000487302
0.000487278
0.000487232
0.000487219
0.00048719
0.000487199
0.000487196
0.00048723
0.00048723
0.000487292
0.000487297
0.000487371
0.000487375
0.000487445
0.000487637
0.000495672
0.000521206
0.00127457
0.00102413
0.000931728
0.000855517
0.00079338
0.000743499
0.000703645
0.000671789
0.000646072
0.000625151
0.00060789
0.000593542
0.000581452
0.00057121
0.000562425
0.000554863
0.000548283
0.000542542
0.00053749
0.00053303
0.00052907
0.000525535
0.000522377
0.000519529
0.000516974
0.000514645
0.000512552
0.000510624
0.00050889
0.000507277
0.000505826
0.000504465
0.000503243
0.000502081
0.000501045
0.000500049
0.000499166
0.000498305
0.000497547
0.000496799
0.000496147
0.000495496
0.00049493
0.000494363
0.000493875
0.000493373
0.00049295
0.000492511
0.000492142
0.000491754
0.000491432
0.000491086
0.000490805
0.000490502
0.000490263
0.000489988
0.000489788
0.000489542
0.000489367
0.000489152
0.000489
0.000488809
0.000488673
0.000488509
0.000488385
0.000488245
0.000488143
0.000488003
0.000487909
0.00048779
0.000487721
0.000487624
0.000487571
0.00048749
0.000487446
0.00048737
0.000487327
0.000487258
0.000487224
0.000487166
0.000487142
0.000487096
0.000487083
0.000487053
0.000487062
0.000487059
0.000487092
0.000487092
0.000487154
0.000487158
0.000487232
0.000487237
0.000487306
0.0004875
0.000495598
0.000521096
0.00127655
0.00102413
0.00093173
0.000855519
0.000793377
0.000743485
0.000703618
0.000671749
0.00064602
0.000625086
0.000607815
0.000593458
0.000581359
0.00057111
0.000562318
0.00055475
0.000548165
0.000542419
0.000537364
0.000532899
0.000528936
0.000525398
0.000522238
0.000519387
0.00051683
0.000514499
0.000512403
0.000510474
0.000508739
0.000507124
0.000505672
0.000504309
0.000503086
0.000501923
0.000500886
0.000499889
0.000499006
0.000498143
0.000497384
0.000496636
0.000495983
0.000495331
0.000494765
0.000494197
0.000493708
0.000493206
0.000492783
0.000492343
0.000491974
0.000491585
0.000491263
0.000490917
0.000490635
0.000490332
0.000490092
0.000489817
0.000489616
0.00048937
0.000489195
0.000488979
0.000488827
0.000488636
0.0004885
0.000488336
0.000488211
0.000488071
0.000487969
0.000487829
0.000487735
0.000487615
0.000487546
0.000487449
0.000487396
0.000487315
0.000487271
0.000487194
0.000487151
0.000487082
0.000487048
0.00048699
0.000486966
0.000486919
0.000486906
0.000486875
0.000486884
0.000486881
0.000486913
0.000486913
0.000486975
0.000486979
0.000487053
0.000487057
0.000487127
0.000487322
0.000495501
0.000520954
0.00127871
0.00102413
0.000931733
0.000855522
0.000793373
0.000743469
0.000703586
0.0006717
0.000645955
0.000625007
0.000607722
0.000593354
0.000581245
0.000570986
0.000562186
0.000554611
0.00054802
0.000542269
0.000537208
0.000532739
0.000528772
0.00052523
0.000522066
0.000519213
0.000516652
0.000514319
0.000512221
0.00051029
0.000508552
0.000506936
0.000505482
0.000504117
0.000502893
0.000501728
0.00050069
0.000499692
0.000498807
0.000497944
0.000497184
0.000496434
0.000495781
0.000495128
0.000494561
0.000493992
0.000493503
0.000493001
0.000492576
0.000492136
0.000491766
0.000491377
0.000491054
0.000490707
0.000490425
0.000490122
0.000489882
0.000489606
0.000489405
0.000489158
0.000488983
0.000488767
0.000488614
0.000488423
0.000488286
0.000488122
0.000487997
0.000487857
0.000487754
0.000487614
0.00048752
0.0004874
0.000487331
0.000487233
0.00048718
0.000487099
0.000487055
0.000486977
0.000486934
0.000486865
0.000486831
0.000486772
0.000486748
0.000486701
0.000486688
0.000486657
0.000486665
0.000486661
0.000486693
0.000486693
0.000486754
0.000486758
0.000486831
0.000486835
0.000486905
0.000487102
0.000495383
0.000520779
0.00128095
0.00102413
0.000931736
0.000855525
0.000793369
0.000743449
0.000703548
0.000671642
0.000645878
0.000624913
0.000607612
0.00059323
0.000581109
0.000570839
0.00056203
0.000554446
0.000547847
0.000542089
0.000537022
0.000532548
0.000528576
0.00052503
0.000521861
0.000519004
0.000516441
0.000514104
0.000512003
0.00051007
0.00050833
0.000506711
0.000505255
0.000503888
0.000502662
0.000501496
0.000500456
0.000499457
0.000498571
0.000497706
0.000496945
0.000496194
0.00049554
0.000494886
0.000494318
0.000493748
0.000493258
0.000492755
0.00049233
0.000491888
0.000491519
0.000491129
0.000490805
0.000490458
0.000490175
0.000489871
0.000489631
0.000489355
0.000489153
0.000488906
0.00048873
0.000488513
0.00048836
0.000488168
0.000488031
0.000487867
0.000487742
0.000487601
0.000487498
0.000487358
0.000487263
0.000487143
0.000487074
0.000486976
0.000486922
0.000486841
0.000486796
0.000486719
0.000486675
0.000486606
0.000486572
0.000486513
0.000486488
0.000486441
0.000486427
0.000486396
0.000486404
0.000486399
0.00048643
0.00048643
0.000486491
0.000486494
0.000486567
0.00048657
0.000486641
0.00048684
0.000495244
0.000520571
0.0012831
0.00102413
0.000931739
0.000855529
0.000793363
0.000743427
0.000703503
0.000671575
0.000645789
0.000624803
0.000607484
0.000593086
0.00058095
0.000570668
0.000561847
0.000554254
0.000547646
0.00054188
0.000536806
0.000532326
0.000528348
0.000524796
0.000521623
0.000518762
0.000516194
0.000513854
0.00051175
0.000509813
0.000508071
0.000506449
0.000504991
0.000503622
0.000502394
0.000501226
0.000500184
0.000499183
0.000498295
0.00049743
0.000496667
0.000495915
0.000495259
0.000494604
0.000494035
0.000493464
0.000492973
0.000492469
0.000492043
0.000491601
0.00049123
0.000490839
0.000490515
0.000490167
0.000489884
0.000489579
0.000489338
0.000489061
0.000488859
0.000488611
0.000488435
0.000488218
0.000488065
0.000487872
0.000487735
0.00048757
0.000487445
0.000487303
0.0004872
0.00048706
0.000486965
0.000486844
0.000486774
0.000486676
0.000486622
0.00048654
0.000486496
0.000486418
0.000486374
0.000486304
0.00048627
0.000486211
0.000486186
0.000486138
0.000486124
0.000486092
0.000486099
0.000486094
0.000486124
0.000486124
0.000486184
0.000486187
0.000486259
0.000486262
0.000486333
0.000486535
0.000495085
0.00052033
0.00128494
0.00102413
0.000931743
0.000855534
0.000793357
0.000743401
0.000703453
0.000671499
0.000645687
0.000624679
0.000607339
0.000592922
0.00058077
0.000570473
0.000561639
0.000554035
0.000547417
0.000541641
0.000536559
0.000532071
0.000528087
0.000524529
0.000521351
0.000518485
0.000515913
0.000513568
0.000511461
0.00050952
0.000507774
0.00050615
0.000504689
0.000503317
0.000502087
0.000500917
0.000499873
0.00049887
0.00049798
0.000497113
0.000496348
0.000495595
0.000494938
0.000494282
0.000493711
0.000493139
0.000492647
0.000492142
0.000491715
0.000491272
0.0004909
0.000490508
0.000490183
0.000489835
0.000489551
0.000489245
0.000489003
0.000488726
0.000488523
0.000488275
0.000488098
0.00048788
0.000487726
0.000487533
0.000487395
0.00048723
0.000487104
0.000486962
0.000486859
0.000486718
0.000486623
0.000486502
0.000486431
0.000486333
0.000486278
0.000486196
0.000486151
0.000486073
0.000486029
0.000485959
0.000485924
0.000485865
0.000485839
0.000485792
0.000485777
0.000485745
0.000485751
0.000485745
0.000485774
0.000485774
0.000485833
0.000485836
0.000485907
0.00048591
0.00048598
0.000486186
0.000494904
0.000520055
0.00128613
0.00102413
0.000931748
0.000855539
0.000793351
0.000743372
0.000703396
0.000671413
0.000645573
0.000624538
0.000607175
0.000592737
0.000580566
0.000570253
0.000561405
0.000553787
0.000547158
0.000541372
0.000536281
0.000531785
0.000527793
0.000524228
0.000521044
0.000518172
0.000515595
0.000513246
0.000511134
0.00050919
0.00050744
0.000505812
0.000504348
0.000502974
0.000501741
0.000500568
0.000499522
0.000498516
0.000497625
0.000496755
0.000495989
0.000495234
0.000494576
0.000493918
0.000493346
0.000492772
0.000492279
0.000491773
0.000491344
0.0004909
0.000490528
0.000490135
0.000489809
0.000489459
0.000489174
0.000488868
0.000488625
0.000488347
0.000488143
0.000487895
0.000487717
0.000487499
0.000487344
0.000487151
0.000487012
0.000486846
0.00048672
0.000486578
0.000486474
0.000486333
0.000486237
0.000486115
0.000486045
0.000485945
0.000485891
0.000485808
0.000485763
0.000485685
0.00048564
0.00048557
0.000485535
0.000485475
0.000485449
0.0004854
0.000485386
0.000485352
0.000485358
0.000485351
0.000485379
0.000485379
0.000485437
0.000485439
0.000485509
0.000485512
0.000485583
0.000485792
0.000494704
0.000519747
0.0012862
0.00102413
0.000931753
0.000855545
0.000793344
0.000743341
0.000703334
0.000671317
0.000645446
0.000624382
0.000606992
0.000592531
0.00058034
0.000570008
0.000561144
0.000553512
0.00054687
0.000541073
0.000535971
0.000531465
0.000527465
0.000523893
0.000520702
0.000517824
0.000515241
0.000512886
0.00051077
0.000508821
0.000507067
0.000505436
0.000503968
0.000502591
0.000501354
0.000500179
0.00049913
0.000498122
0.000497229
0.000496357
0.000495589
0.000494832
0.000494171
0.000493512
0.000492938
0.000492363
0.000491869
0.000491361
0.000490931
0.000490486
0.000490112
0.000489718
0.000489391
0.000489041
0.000488755
0.000488447
0.000488204
0.000487925
0.00048772
0.000487471
0.000487293
0.000487073
0.000486918
0.000486724
0.000486585
0.000486418
0.000486292
0.000486148
0.000486044
0.000485903
0.000485807
0.000485684
0.000485613
0.000485513
0.000485458
0.000485375
0.00048533
0.000485251
0.000485206
0.000485135
0.0004851
0.000485039
0.000485013
0.000484964
0.000484949
0.000484915
0.000484919
0.000484912
0.000484938
0.000484937
0.000484994
0.000484997
0.000485065
0.000485068
0.000485139
0.000485353
0.000494483
0.000519403
0.00128477
0.00102412
0.000931758
0.000855551
0.000793336
0.000743306
0.000703265
0.000671213
0.000645306
0.00062421
0.000606792
0.000592305
0.00058009
0.000569738
0.000560856
0.000553208
0.000546551
0.000540741
0.000535628
0.000531113
0.000527103
0.000523523
0.000520324
0.000517439
0.000514849
0.000512489
0.000510367
0.000508413
0.000506655
0.00050502
0.000503548
0.000502167
0.000500927
0.000499749
0.000498697
0.000497686
0.00049679
0.000495916
0.000495146
0.000494387
0.000493724
0.000493063
0.000492488
0.000491911
0.000491415
0.000490905
0.000490474
0.000490027
0.000489653
0.000489257
0.000488929
0.000488577
0.000488291
0.000487982
0.000487738
0.000487458
0.000487252
0.000487002
0.000486823
0.000486603
0.000486447
0.000486252
0.000486112
0.000485945
0.000485818
0.000485674
0.000485569
0.000485427
0.00048533
0.000485208
0.000485136
0.000485035
0.00048498
0.000484896
0.00048485
0.000484771
0.000484726
0.000484655
0.000484618
0.000484558
0.000484531
0.000484481
0.000484466
0.000484431
0.000484434
0.000484426
0.000484451
0.00048445
0.000484505
0.000484507
0.000484575
0.000484577
0.000484648
0.000484867
0.000494243
0.000519025
0.00128182
0.00102412
0.000931764
0.000855558
0.000793328
0.000743269
0.00070319
0.000671098
0.000645154
0.000624023
0.000606572
0.000592057
0.000579817
0.000569443
0.000560541
0.000552875
0.000546203
0.000540379
0.000535253
0.000530726
0.000526706
0.000523117
0.000519909
0.000517017
0.00051442
0.000512053
0.000509926
0.000507967
0.000506204
0.000504563
0.000503087
0.000501702
0.000500459
0.000499277
0.000498222
0.000497208
0.00049631
0.000495433
0.00049466
0.000493899
0.000493234
0.00049257
0.000491993
0.000491415
0.000490917
0.000490405
0.000489973
0.000489525
0.000489148
0.000488752
0.000488422
0.000488069
0.000487782
0.000487471
0.000487226
0.000486945
0.000486739
0.000486487
0.000486308
0.000486086
0.00048593
0.000485734
0.000485594
0.000485425
0.000485298
0.000485153
0.000485048
0.000484905
0.000484808
0.000484684
0.000484612
0.000484511
0.000484455
0.000484371
0.000484324
0.000484245
0.000484199
0.000484127
0.00048409
0.000484029
0.000484001
0.000483951
0.000483935
0.0004839
0.000483902
0.000483892
0.000483916
0.000483914
0.000483969
0.00048397
0.000484036
0.000484038
0.000484109
0.000484334
0.000493982
0.00051861
0.00127738
0.00102412
0.000931771
0.000855566
0.000793319
0.000743228
0.000703109
0.000670975
0.000644988
0.000623819
0.000606333
0.000591787
0.00057952
0.000569122
0.000560198
0.000552513
0.000545823
0.000539984
0.000534845
0.000530305
0.000526274
0.000522674
0.000519458
0.000516557
0.000513953
0.000511579
0.000509445
0.00050748
0.000505711
0.000504066
0.000502586
0.000501196
0.000499949
0.000498763
0.000497705
0.000496688
0.000495786
0.000494906
0.000494131
0.000493366
0.0004927
0.000492033
0.000491454
0.000490874
0.000490374
0.000489861
0.000489427
0.000488976
0.000488599
0.0004882
0.00048787
0.000487515
0.000487226
0.000486915
0.000486669
0.000486386
0.000486179
0.000485926
0.000485746
0.000485523
0.000485366
0.000485169
0.000485028
0.000484859
0.000484731
0.000484585
0.000484479
0.000484336
0.000484238
0.000484114
0.000484041
0.000483939
0.000483882
0.000483797
0.000483751
0.00048367
0.000483624
0.000483552
0.000483515
0.000483452
0.000483424
0.000483374
0.000483357
0.000483321
0.000483322
0.000483311
0.000483333
0.000483331
0.000483384
0.000483385
0.000483449
0.00048345
0.000483522
0.000483754
0.0004937
0.000518158
0.00127149
0.00102412
0.000931777
0.000855574
0.00079331
0.000743185
0.000703022
0.000670842
0.00064481
0.000623599
0.000606076
0.000591496
0.000579199
0.000568774
0.000559827
0.000552121
0.000545413
0.000539557
0.000534402
0.000529849
0.000525806
0.000522196
0.000518969
0.000516059
0.000513446
0.000511065
0.000508924
0.000506952
0.000505178
0.000503527
0.000502042
0.000500647
0.000499396
0.000498206
0.000497144
0.000496123
0.000495218
0.000494335
0.000493557
0.00049279
0.00049212
0.000491452
0.00049087
0.000490287
0.000489786
0.00048927
0.000488834
0.000488382
0.000488003
0.000487603
0.000487271
0.000486915
0.000486625
0.000486311
0.000486064
0.00048578
0.000485572
0.000485318
0.000485136
0.000484913
0.000484755
0.000484557
0.000484415
0.000484245
0.000484116
0.000483969
0.000483863
0.000483719
0.000483621
0.000483495
0.000483422
0.000483319
0.000483262
0.000483176
0.000483129
0.000483048
0.000483001
0.000482928
0.00048289
0.000482827
0.000482799
0.000482747
0.00048273
0.000482694
0.000482693
0.00048268
0.000482701
0.000482698
0.000482749
0.00048275
0.000482812
0.000482813
0.000482886
0.000483124
0.000493398
0.000517666
0.00126417
0.00102412
0.000931785
0.000855583
0.0007933
0.000743139
0.00070293
0.000670699
0.000644619
0.000623363
0.000605799
0.000591183
0.000578854
0.0005684
0.000559427
0.000551699
0.000544971
0.000539097
0.000533926
0.000529359
0.000525302
0.00052168
0.000518442
0.000515522
0.000512901
0.000510511
0.000508362
0.000506384
0.000504603
0.000502946
0.000501455
0.000500056
0.000498799
0.000497605
0.000496539
0.000495514
0.000494605
0.000493719
0.000492938
0.000492167
0.000491495
0.000490824
0.00049024
0.000489654
0.000489151
0.000488633
0.000488195
0.000487741
0.00048736
0.000486958
0.000486625
0.000486267
0.000485975
0.00048566
0.000485412
0.000485127
0.000484917
0.000484662
0.000484479
0.000484254
0.000484095
0.000483896
0.000483753
0.000483582
0.000483452
0.000483304
0.000483198
0.000483053
0.000482954
0.000482828
0.000482754
0.00048265
0.000482592
0.000482505
0.000482458
0.000482376
0.000482329
0.000482255
0.000482217
0.000482153
0.000482124
0.000482071
0.000482053
0.000482016
0.000482014
0.000482
0.000482018
0.000482015
0.000482064
0.000482065
0.000482125
0.000482126
0.000482199
0.000482445
0.000493073
0.000517134
0.00125546
0.00102412
0.000931792
0.000855592
0.00079329
0.00074309
0.000702831
0.000670547
0.000644415
0.000623111
0.000605503
0.000590848
0.000578484
0.000568
0.000559
0.000551247
0.000544497
0.000538604
0.000533415
0.000528832
0.000524761
0.000521126
0.000517877
0.000514946
0.000512315
0.000509917
0.00050776
0.000505773
0.000503986
0.000502322
0.000500826
0.00049942
0.000498159
0.00049696
0.000495889
0.00049486
0.000493948
0.000493057
0.000492273
0.000491499
0.000490824
0.00049015
0.000489563
0.000488975
0.000488469
0.000487949
0.000487509
0.000487052
0.00048667
0.000486266
0.000485931
0.000485571
0.000485278
0.000484961
0.000484711
0.000484424
0.000484213
0.000483957
0.000483773
0.000483547
0.000483386
0.000483187
0.000483042
0.00048287
0.00048274
0.00048259
0.000482483
0.000482337
0.000482238
0.000482111
0.000482036
0.000481931
0.000481872
0.000481785
0.000481736
0.000481654
0.000481607
0.000481532
0.000481493
0.000481428
0.000481398
0.000481345
0.000481326
0.000481289
0.000481285
0.000481269
0.000481286
0.000481282
0.000481329
0.000481329
0.000481387
0.000481387
0.00048146
0.000481715
0.000492726
0.00051656
0.0012454
0.00102412
0.000931801
0.000855603
0.00079328
0.000743039
0.000702726
0.000670386
0.000644198
0.000622843
0.000605188
0.000590492
0.00057809
0.000567573
0.000558543
0.000550764
0.000543991
0.000538077
0.00053287
0.00052827
0.000524184
0.000520535
0.000517273
0.000514331
0.000511689
0.000509281
0.000507115
0.000505121
0.000503326
0.000501655
0.000500152
0.000498741
0.000497474
0.000496269
0.000495194
0.000494161
0.000493244
0.00049235
0.000491561
0.000490784
0.000490106
0.000489428
0.000488839
0.000488248
0.000487739
0.000487217
0.000486775
0.000486315
0.000485931
0.000485525
0.000485188
0.000484826
0.000484531
0.000484213
0.000483962
0.000483673
0.00048346
0.000483202
0.000483017
0.00048279
0.000482628
0.000482427
0.000482282
0.000482108
0.000481977
0.000481826
0.000481718
0.000481571
0.000481472
0.000481343
0.000481267
0.000481161
0.000481102
0.000481014
0.000480965
0.000480882
0.000480833
0.000480758
0.000480718
0.000480652
0.000480621
0.000480568
0.000480548
0.00048051
0.000480505
0.000480487
0.000480502
0.000480496
0.000480541
0.000480541
0.000480597
0.000480597
0.00048067
0.000480935
0.000492354
0.000515939
0.00123405
0.00102411
0.000931809
0.000855614
0.000793269
0.000742985
0.000702616
0.000670215
0.000643969
0.000622558
0.000604854
0.000590113
0.000577671
0.000567119
0.000558058
0.000550251
0.000543452
0.000537516
0.000532289
0.000527671
0.000523568
0.000519904
0.000516629
0.000513675
0.000511022
0.000508603
0.000506428
0.000504425
0.000502622
0.000500944
0.000499434
0.000498017
0.000496744
0.000495534
0.000494453
0.000493415
0.000492494
0.000491595
0.000490803
0.000490022
0.00048934
0.000488659
0.000488067
0.000487472
0.000486961
0.000486436
0.000485991
0.00048553
0.000485143
0.000484734
0.000484395
0.000484032
0.000483735
0.000483414
0.000483162
0.000482871
0.000482657
0.000482397
0.000482211
0.000481982
0.000481819
0.000481616
0.00048147
0.000481295
0.000481163
0.000481011
0.000480902
0.000480755
0.000480654
0.000480524
0.000480447
0.00048034
0.00048028
0.000480191
0.000480141
0.000480057
0.000480008
0.000479932
0.000479891
0.000479825
0.000479793
0.000479738
0.000479718
0.000479678
0.000479672
0.000479652
0.000479665
0.000479659
0.000479701
0.000479701
0.000479754
0.000479753
0.000479828
0.000480102
0.000491956
0.00051527
0.00122147
0.00102411
0.000931818
0.000855625
0.000793258
0.000742928
0.0007025
0.000670035
0.000643726
0.000622258
0.0006045
0.000589711
0.000577228
0.000566638
0.000557543
0.000549707
0.000542881
0.000536921
0.000531673
0.000527035
0.000522915
0.000519235
0.000515946
0.000512978
0.000510313
0.000507884
0.000505699
0.000503686
0.000501875
0.000500189
0.000498671
0.000497247
0.000495968
0.000494752
0.000493666
0.000492622
0.000491696
0.000490793
0.000489997
0.000489212
0.000488526
0.000487841
0.000487246
0.000486648
0.000486134
0.000485605
0.000485158
0.000484694
0.000484305
0.000483894
0.000483553
0.000483187
0.000482888
0.000482565
0.000482311
0.000482018
0.000481803
0.000481542
0.000481353
0.000481123
0.000480958
0.000480755
0.000480607
0.000480431
0.000480297
0.000480144
0.000480034
0.000479886
0.000479784
0.000479653
0.000479575
0.000479467
0.000479406
0.000479316
0.000479265
0.000479181
0.000479131
0.000479053
0.000479012
0.000478944
0.000478912
0.000478856
0.000478835
0.000478794
0.000478787
0.000478765
0.000478776
0.000478768
0.000478807
0.000478808
0.000478857
0.000478857
0.000478931
0.000479216
0.000491529
0.000514549
0.00120771
0.00102411
0.000931827
0.000855638
0.000793247
0.000742869
0.000702378
0.000669847
0.000643471
0.000621941
0.000604127
0.000589288
0.000576759
0.00056613
0.000556999
0.000549131
0.000542277
0.000536292
0.00053102
0.000526362
0.000522224
0.000518527
0.000515222
0.00051224
0.000509563
0.000507122
0.000504926
0.000502903
0.000501083
0.000499388
0.000497863
0.000496431
0.000495146
0.000493923
0.000492831
0.000491782
0.000490851
0.000489943
0.000489142
0.000488353
0.000487663
0.000486975
0.000486376
0.000485774
0.000485257
0.000484725
0.000484275
0.000483808
0.000483416
0.000483002
0.000482659
0.000482291
0.000481991
0.000481665
0.000481409
0.000481114
0.000480897
0.000480634
0.000480444
0.000480212
0.000480046
0.000479841
0.000479692
0.000479514
0.000479379
0.000479224
0.000479114
0.000478964
0.000478862
0.00047873
0.00047865
0.000478541
0.000478479
0.000478388
0.000478336
0.000478251
0.0004782
0.000478122
0.000478079
0.000478011
0.000477977
0.00047792
0.000477898
0.000477857
0.000477848
0.000477824
0.000477833
0.000477823
0.00047786
0.00047786
0.000477907
0.000477905
0.000477981
0.000478277
0.000491068
0.000513775
0.00119283
0.00102411
0.000931837
0.000855651
0.000793236
0.000742808
0.000702251
0.000669649
0.000643203
0.000621608
0.000603735
0.000588842
0.000576266
0.000565594
0.000556426
0.000548524
0.00054164
0.000535628
0.000530332
0.000525652
0.000521494
0.000517779
0.000514458
0.000511461
0.00050877
0.000506317
0.000504109
0.000502076
0.000500246
0.000498542
0.000497009
0.000495569
0.000494276
0.000493047
0.000491949
0.000490894
0.000489957
0.000489044
0.000488238
0.000487444
0.00048675
0.000486058
0.000485455
0.00048485
0.000484329
0.000483794
0.000483341
0.000482871
0.000482476
0.00048206
0.000481715
0.000481343
0.000481041
0.000480713
0.000480455
0.000480158
0.000479939
0.000479674
0.000479482
0.000479248
0.000479081
0.000478874
0.000478723
0.000478544
0.000478408
0.000478251
0.00047814
0.000477989
0.000477886
0.000477753
0.000477672
0.000477561
0.000477498
0.000477406
0.000477353
0.000477267
0.000477216
0.000477136
0.000477093
0.000477023
0.000476988
0.00047693
0.000476907
0.000476864
0.000476854
0.000476828
0.000476835
0.000476824
0.000476858
0.000476858
0.000476901
0.000476899
0.000476975
0.000477284
0.000490567
0.000512944
0.00117691
0.00102411
0.000931847
0.000855665
0.000793225
0.000742744
0.000702119
0.000669442
0.000642923
0.000621259
0.000603323
0.000588375
0.000575748
0.000565031
0.000555823
0.000547885
0.00054097
0.000534929
0.000529607
0.000524904
0.000520725
0.000516991
0.000513652
0.00051064
0.000507935
0.000505468
0.000503248
0.000501204
0.000499363
0.00049765
0.000496108
0.00049466
0.00049336
0.000492123
0.000491019
0.000489957
0.000489015
0.000488096
0.000487285
0.000486486
0.000485788
0.000485091
0.000484484
0.000483874
0.000483351
0.000482812
0.000482356
0.000481882
0.000481485
0.000481065
0.000480717
0.000480343
0.000480039
0.000479708
0.000479448
0.000479149
0.000478928
0.00047866
0.000478467
0.000478231
0.000478062
0.000477853
0.000477701
0.00047752
0.000477383
0.000477225
0.000477112
0.00047696
0.000476856
0.000476721
0.00047664
0.000476527
0.000476463
0.000476369
0.000476316
0.000476229
0.000476176
0.000476096
0.000476051
0.00047598
0.000475945
0.000475885
0.000475861
0.000475817
0.000475805
0.000475778
0.000475782
0.000475769
0.0004758
0.0004758
0.00047584
0.000475837
0.000475914
0.000476235
0.000490019
0.000512056
0.00116002
0.0010241
0.000931857
0.000855679
0.000793213
0.000742679
0.000701981
0.000669227
0.000642631
0.000620894
0.000602892
0.000587884
0.000575205
0.00056444
0.00055519
0.000547215
0.000540265
0.000534194
0.000528845
0.000524118
0.000519917
0.000516163
0.000512806
0.000509777
0.000507056
0.000504575
0.000502343
0.000500287
0.000498435
0.000496712
0.00049516
0.000493703
0.000492395
0.000491151
0.000490039
0.000488971
0.000488022
0.000487098
0.000486282
0.000485477
0.000484774
0.000484072
0.000483462
0.000482848
0.00048232
0.000481778
0.000481318
0.000480841
0.000480441
0.000480018
0.000479667
0.000479291
0.000478984
0.00047865
0.000478388
0.000478086
0.000477863
0.000477593
0.000477398
0.00047716
0.000476989
0.000476778
0.000476625
0.000476442
0.000476304
0.000476143
0.00047603
0.000475876
0.000475771
0.000475635
0.000475552
0.000475438
0.000475372
0.000475278
0.000475223
0.000475135
0.000475082
0.000475
0.000474954
0.000474882
0.000474845
0.000474785
0.000474759
0.000474714
0.000474701
0.000474671
0.000474674
0.000474659
0.000474686
0.000474685
0.000474723
0.000474719
0.000474796
0.000475131
0.000489415
0.000511106
0.00114223
0.0010241
0.000931868
0.000855694
0.000793202
0.000742611
0.000701839
0.000669003
0.000642326
0.000620514
0.000602442
0.000587372
0.000574636
0.000563823
0.000554527
0.000546513
0.000539528
0.000533425
0.000528047
0.000523294
0.000519069
0.000515294
0.000511918
0.000508871
0.000506134
0.000503638
0.000501392
0.000499324
0.00049746
0.000495726
0.000494165
0.000492699
0.000491382
0.000490129
0.000489011
0.000487935
0.00048698
0.000486049
0.000485227
0.000484417
0.000483709
0.000483003
0.000482387
0.000481769
0.000481237
0.000480691
0.000480228
0.000479747
0.000479343
0.000478917
0.000478564
0.000478184
0.000477875
0.000477538
0.000477274
0.000476969