/*--------------------------------*- C++ -*----------------------------------*\
| =========                 |                                                 |
| \\      /  F ield         | OpenFOAM: The Open Source CFD Toolbox           |
|  \\    /   O peration     | Version:  v2012                                 |
|   \\  /    A nd           | Website:  www.openfoam.com                      |
|    \\/     M anipulation  |                                                 |
\*---------------------------------------------------------------------------*/
FoamFile
{
    version     2.0;
    format      ascii;
    class       volScalarField;
    location    "45";
    object      nut;
}
// * * * * * * * * * * * * * * * * * * * * * * * * * * * * * * * * * * * * * //

dimensions      [0 2 -1 0 0 0 0];


internalField   nonuniform List<scalar> 
209825
(
1.23962e-07
1.23102e-07
1.22227e-07
1.21246e-07
1.20233e-07
1.1924e-07
1.18342e-07
1.17533e-07
1.1684e-07
1.16229e-07
1.15715e-07
1.15257e-07
1.14875e-07
1.1453e-07
1.14243e-07
1.1398e-07
1.13761e-07
1.13556e-07
1.13388e-07
1.13226e-07
1.13094e-07
1.12966e-07
1.12861e-07
1.12757e-07
1.12673e-07
1.12589e-07
1.12521e-07
1.12451e-07
1.12396e-07
1.12337e-07
1.12292e-07
1.12243e-07
1.12205e-07
1.12164e-07
1.12132e-07
1.12098e-07
1.1207e-07
1.1204e-07
1.12017e-07
1.11992e-07
1.11971e-07
1.1195e-07
1.11933e-07
1.11915e-07
1.11899e-07
1.11884e-07
1.11871e-07
1.11858e-07
1.11846e-07
1.11835e-07
1.11823e-07
1.11812e-07
1.118e-07
1.11795e-07
1.11783e-07
1.11779e-07
1.11768e-07
1.11765e-07
1.11756e-07
1.11753e-07
1.11743e-07
1.11738e-07
1.11731e-07
1.11724e-07
1.11718e-07
1.11713e-07
1.11705e-07
1.11698e-07
1.11691e-07
1.11686e-07
1.11681e-07
1.11678e-07
1.11674e-07
1.11672e-07
1.11669e-07
1.11667e-07
1.11665e-07
1.11664e-07
1.11662e-07
1.11662e-07
1.11661e-07
1.11662e-07
1.11664e-07
1.11666e-07
1.11668e-07
1.11672e-07
1.11672e-07
1.11677e-07
1.11678e-07
1.11681e-07
1.11683e-07
1.11677e-07
1.11703e-07
1.12778e-07
1.15698e-07
1.12288e-08
1.23962e-07
1.23102e-07
1.22227e-07
1.21247e-07
1.20233e-07
1.1924e-07
1.18342e-07
1.17533e-07
1.16841e-07
1.16229e-07
1.15715e-07
1.15258e-07
1.14876e-07
1.14531e-07
1.14244e-07
1.1398e-07
1.13761e-07
1.13557e-07
1.13388e-07
1.13227e-07
1.13095e-07
1.12966e-07
1.12861e-07
1.12758e-07
1.12674e-07
1.12589e-07
1.12521e-07
1.12452e-07
1.12396e-07
1.12338e-07
1.12292e-07
1.12244e-07
1.12205e-07
1.12164e-07
1.12132e-07
1.12098e-07
1.1207e-07
1.12041e-07
1.12017e-07
1.11992e-07
1.11972e-07
1.1195e-07
1.11934e-07
1.11915e-07
1.119e-07
1.11884e-07
1.11871e-07
1.11859e-07
1.11846e-07
1.11835e-07
1.11823e-07
1.11812e-07
1.11801e-07
1.11795e-07
1.11783e-07
1.1178e-07
1.11768e-07
1.11766e-07
1.11757e-07
1.11754e-07
1.11743e-07
1.11738e-07
1.11732e-07
1.11724e-07
1.11718e-07
1.11713e-07
1.11705e-07
1.11699e-07
1.11691e-07
1.11687e-07
1.11681e-07
1.11678e-07
1.11674e-07
1.11672e-07
1.11669e-07
1.11667e-07
1.11665e-07
1.11664e-07
1.11662e-07
1.11662e-07
1.11661e-07
1.11662e-07
1.11664e-07
1.11667e-07
1.11668e-07
1.11672e-07
1.11672e-07
1.11677e-07
1.11678e-07
1.11682e-07
1.11683e-07
1.11678e-07
1.11703e-07
1.1278e-07
1.15699e-07
1.15725e-08
1.23962e-07
1.23102e-07
1.22227e-07
1.21247e-07
1.20233e-07
1.1924e-07
1.18342e-07
1.17533e-07
1.16841e-07
1.1623e-07
1.15715e-07
1.15258e-07
1.14876e-07
1.14531e-07
1.14243e-07
1.1398e-07
1.13761e-07
1.13556e-07
1.13387e-07
1.13226e-07
1.13094e-07
1.12965e-07
1.12861e-07
1.12757e-07
1.12673e-07
1.12588e-07
1.1252e-07
1.12451e-07
1.12395e-07
1.12337e-07
1.12291e-07
1.12243e-07
1.12204e-07
1.12163e-07
1.12131e-07
1.12097e-07
1.12069e-07
1.1204e-07
1.12016e-07
1.11991e-07
1.11971e-07
1.11949e-07
1.11933e-07
1.11914e-07
1.11899e-07
1.11883e-07
1.1187e-07
1.11857e-07
1.11845e-07
1.11834e-07
1.11822e-07
1.11811e-07
1.11799e-07
1.11794e-07
1.11782e-07
1.11778e-07
1.11767e-07
1.11765e-07
1.11755e-07
1.11752e-07
1.11742e-07
1.11737e-07
1.1173e-07
1.11723e-07
1.11717e-07
1.11712e-07
1.11704e-07
1.11698e-07
1.1169e-07
1.11685e-07
1.1168e-07
1.11677e-07
1.11673e-07
1.11671e-07
1.11668e-07
1.11666e-07
1.11664e-07
1.11663e-07
1.11661e-07
1.11661e-07
1.1166e-07
1.11661e-07
1.11663e-07
1.11665e-07
1.11667e-07
1.11671e-07
1.11671e-07
1.11676e-07
1.11677e-07
1.1168e-07
1.11682e-07
1.11676e-07
1.11702e-07
1.12783e-07
1.15699e-07
1.19992e-08
1.23962e-07
1.23102e-07
1.22227e-07
1.21247e-07
1.20234e-07
1.19241e-07
1.18343e-07
1.17534e-07
1.16842e-07
1.1623e-07
1.15716e-07
1.15258e-07
1.14876e-07
1.14531e-07
1.14243e-07
1.13979e-07
1.13761e-07
1.13556e-07
1.13387e-07
1.13226e-07
1.13093e-07
1.12965e-07
1.1286e-07
1.12756e-07
1.12672e-07
1.12588e-07
1.12519e-07
1.1245e-07
1.12394e-07
1.12336e-07
1.1229e-07
1.12241e-07
1.12203e-07
1.12162e-07
1.1213e-07
1.12096e-07
1.12068e-07
1.12038e-07
1.12015e-07
1.1199e-07
1.11969e-07
1.11948e-07
1.11931e-07
1.11912e-07
1.11897e-07
1.11881e-07
1.11869e-07
1.11856e-07
1.11844e-07
1.11832e-07
1.1182e-07
1.1181e-07
1.11798e-07
1.11792e-07
1.1178e-07
1.11777e-07
1.11765e-07
1.11763e-07
1.11754e-07
1.11751e-07
1.1174e-07
1.11736e-07
1.11729e-07
1.11721e-07
1.11716e-07
1.11711e-07
1.11703e-07
1.11696e-07
1.11689e-07
1.11684e-07
1.11679e-07
1.11675e-07
1.11671e-07
1.11669e-07
1.11666e-07
1.11665e-07
1.11662e-07
1.11661e-07
1.1166e-07
1.11659e-07
1.11658e-07
1.11659e-07
1.11661e-07
1.11664e-07
1.11665e-07
1.11669e-07
1.11669e-07
1.11674e-07
1.11675e-07
1.11679e-07
1.1168e-07
1.11675e-07
1.11701e-07
1.12788e-07
1.157e-07
1.24737e-08
1.23961e-07
1.23101e-07
1.22227e-07
1.21248e-07
1.20235e-07
1.19242e-07
1.18344e-07
1.17535e-07
1.16843e-07
1.16231e-07
1.15716e-07
1.15259e-07
1.14876e-07
1.14531e-07
1.14244e-07
1.13979e-07
1.1376e-07
1.13555e-07
1.13386e-07
1.13225e-07
1.13093e-07
1.12964e-07
1.12859e-07
1.12755e-07
1.12671e-07
1.12586e-07
1.12518e-07
1.12449e-07
1.12393e-07
1.12335e-07
1.12289e-07
1.1224e-07
1.12202e-07
1.12161e-07
1.12129e-07
1.12094e-07
1.12067e-07
1.12037e-07
1.12013e-07
1.11988e-07
1.11968e-07
1.11946e-07
1.1193e-07
1.11911e-07
1.11895e-07
1.1188e-07
1.11867e-07
1.11854e-07
1.11842e-07
1.11831e-07
1.11819e-07
1.11808e-07
1.11796e-07
1.1179e-07
1.11778e-07
1.11775e-07
1.11764e-07
1.11761e-07
1.11752e-07
1.11749e-07
1.11738e-07
1.11734e-07
1.11727e-07
1.1172e-07
1.11714e-07
1.11709e-07
1.11701e-07
1.11694e-07
1.11687e-07
1.11682e-07
1.11677e-07
1.11673e-07
1.1167e-07
1.11667e-07
1.11664e-07
1.11663e-07
1.1166e-07
1.11659e-07
1.11658e-07
1.11657e-07
1.11656e-07
1.11657e-07
1.11659e-07
1.11662e-07
1.11663e-07
1.11667e-07
1.11667e-07
1.11672e-07
1.11673e-07
1.11677e-07
1.11678e-07
1.11672e-07
1.11699e-07
1.12795e-07
1.15701e-07
1.29884e-08
1.23961e-07
1.23101e-07
1.22227e-07
1.21249e-07
1.20236e-07
1.19244e-07
1.18346e-07
1.17537e-07
1.16844e-07
1.16232e-07
1.15717e-07
1.1526e-07
1.14877e-07
1.14531e-07
1.14244e-07
1.13979e-07
1.1376e-07
1.13555e-07
1.13386e-07
1.13224e-07
1.13092e-07
1.12963e-07
1.12858e-07
1.12754e-07
1.1267e-07
1.12585e-07
1.12517e-07
1.12447e-07
1.12392e-07
1.12333e-07
1.12287e-07
1.12238e-07
1.122e-07
1.12159e-07
1.12127e-07
1.12092e-07
1.12065e-07
1.12035e-07
1.12012e-07
1.11987e-07
1.11966e-07
1.11944e-07
1.11928e-07
1.11909e-07
1.11893e-07
1.11878e-07
1.11865e-07
1.11852e-07
1.1184e-07
1.11829e-07
1.11816e-07
1.11806e-07
1.11794e-07
1.11788e-07
1.11776e-07
1.11773e-07
1.11761e-07
1.11759e-07
1.1175e-07
1.11747e-07
1.11736e-07
1.11732e-07
1.11725e-07
1.11717e-07
1.11712e-07
1.11706e-07
1.11699e-07
1.11692e-07
1.11684e-07
1.1168e-07
1.11674e-07
1.11671e-07
1.11667e-07
1.11665e-07
1.11662e-07
1.1166e-07
1.11658e-07
1.11657e-07
1.11655e-07
1.11655e-07
1.11654e-07
1.11655e-07
1.11657e-07
1.11659e-07
1.11661e-07
1.11665e-07
1.11665e-07
1.1167e-07
1.11671e-07
1.11674e-07
1.11675e-07
1.1167e-07
1.11696e-07
1.12805e-07
1.15702e-07
1.35422e-08
1.23961e-07
1.23101e-07
1.22228e-07
1.2125e-07
1.20238e-07
1.19246e-07
1.18348e-07
1.17539e-07
1.16846e-07
1.16234e-07
1.15719e-07
1.15261e-07
1.14878e-07
1.14532e-07
1.14244e-07
1.1398e-07
1.1376e-07
1.13555e-07
1.13386e-07
1.13224e-07
1.13091e-07
1.12962e-07
1.12857e-07
1.12753e-07
1.12669e-07
1.12584e-07
1.12516e-07
1.12446e-07
1.1239e-07
1.12331e-07
1.12286e-07
1.12237e-07
1.12198e-07
1.12157e-07
1.12125e-07
1.1209e-07
1.12063e-07
1.12033e-07
1.12009e-07
1.11984e-07
1.11964e-07
1.11942e-07
1.11925e-07
1.11906e-07
1.11891e-07
1.11875e-07
1.11862e-07
1.1185e-07
1.11837e-07
1.11826e-07
1.11814e-07
1.11803e-07
1.11791e-07
1.11786e-07
1.11774e-07
1.1177e-07
1.11759e-07
1.11756e-07
1.11747e-07
1.11744e-07
1.11734e-07
1.11729e-07
1.11722e-07
1.11715e-07
1.11709e-07
1.11704e-07
1.11696e-07
1.11689e-07
1.11682e-07
1.11677e-07
1.11672e-07
1.11668e-07
1.11665e-07
1.11662e-07
1.11659e-07
1.11658e-07
1.11655e-07
1.11654e-07
1.11652e-07
1.11652e-07
1.11651e-07
1.11652e-07
1.11654e-07
1.11656e-07
1.11658e-07
1.11662e-07
1.11662e-07
1.11667e-07
1.11668e-07
1.11671e-07
1.11672e-07
1.11667e-07
1.11694e-07
1.12817e-07
1.15704e-07
1.41352e-08
1.23961e-07
1.23101e-07
1.22228e-07
1.21251e-07
1.2024e-07
1.19249e-07
1.18351e-07
1.17542e-07
1.16849e-07
1.16236e-07
1.15721e-07
1.15262e-07
1.14879e-07
1.14533e-07
1.14245e-07
1.1398e-07
1.1376e-07
1.13555e-07
1.13385e-07
1.13223e-07
1.13091e-07
1.12961e-07
1.12856e-07
1.12752e-07
1.12668e-07
1.12583e-07
1.12514e-07
1.12444e-07
1.12388e-07
1.1233e-07
1.12284e-07
1.12235e-07
1.12196e-07
1.12155e-07
1.12123e-07
1.12088e-07
1.1206e-07
1.1203e-07
1.12007e-07
1.11982e-07
1.11961e-07
1.11939e-07
1.11923e-07
1.11904e-07
1.11888e-07
1.11873e-07
1.1186e-07
1.11847e-07
1.11835e-07
1.11823e-07
1.11811e-07
1.118e-07
1.11789e-07
1.11783e-07
1.11771e-07
1.11767e-07
1.11756e-07
1.11753e-07
1.11744e-07
1.11741e-07
1.11731e-07
1.11726e-07
1.11719e-07
1.11712e-07
1.11706e-07
1.11701e-07
1.11693e-07
1.11686e-07
1.11679e-07
1.11674e-07
1.11669e-07
1.11665e-07
1.11661e-07
1.11659e-07
1.11656e-07
1.11655e-07
1.11652e-07
1.11651e-07
1.11649e-07
1.11649e-07
1.11648e-07
1.11649e-07
1.1165e-07
1.11653e-07
1.11654e-07
1.11658e-07
1.11659e-07
1.11663e-07
1.11664e-07
1.11668e-07
1.11669e-07
1.11664e-07
1.11691e-07
1.12832e-07
1.15706e-07
1.47683e-08
1.23961e-07
1.23101e-07
1.22228e-07
1.21252e-07
1.20242e-07
1.19251e-07
1.18354e-07
1.17545e-07
1.16852e-07
1.16239e-07
1.15723e-07
1.15264e-07
1.14881e-07
1.14534e-07
1.14246e-07
1.13981e-07
1.13761e-07
1.13555e-07
1.13385e-07
1.13223e-07
1.1309e-07
1.1296e-07
1.12855e-07
1.12751e-07
1.12666e-07
1.12581e-07
1.12512e-07
1.12442e-07
1.12386e-07
1.12328e-07
1.12282e-07
1.12233e-07
1.12194e-07
1.12153e-07
1.12121e-07
1.12086e-07
1.12058e-07
1.12028e-07
1.12004e-07
1.11979e-07
1.11958e-07
1.11937e-07
1.1192e-07
1.11901e-07
1.11886e-07
1.1187e-07
1.11857e-07
1.11844e-07
1.11832e-07
1.1182e-07
1.11808e-07
1.11797e-07
1.11785e-07
1.1178e-07
1.11768e-07
1.11764e-07
1.11753e-07
1.1175e-07
1.11741e-07
1.11738e-07
1.11728e-07
1.11723e-07
1.11716e-07
1.11709e-07
1.11703e-07
1.11698e-07
1.1169e-07
1.11683e-07
1.11676e-07
1.11671e-07
1.11665e-07
1.11662e-07
1.11658e-07
1.11656e-07
1.11653e-07
1.11651e-07
1.11649e-07
1.11648e-07
1.11646e-07
1.11646e-07
1.11645e-07
1.11645e-07
1.11647e-07
1.11649e-07
1.11651e-07
1.11655e-07
1.11655e-07
1.1166e-07
1.11661e-07
1.11664e-07
1.11665e-07
1.1166e-07
1.11687e-07
1.1285e-07
1.15708e-07
1.54419e-08
1.23961e-07
1.23101e-07
1.22229e-07
1.21254e-07
1.20245e-07
1.19255e-07
1.18358e-07
1.17548e-07
1.16855e-07
1.16242e-07
1.15726e-07
1.15266e-07
1.14882e-07
1.14536e-07
1.14247e-07
1.13981e-07
1.13761e-07
1.13555e-07
1.13385e-07
1.13222e-07
1.13089e-07
1.12959e-07
1.12854e-07
1.12749e-07
1.12665e-07
1.12579e-07
1.12511e-07
1.1244e-07
1.12384e-07
1.12325e-07
1.12279e-07
1.1223e-07
1.12191e-07
1.1215e-07
1.12118e-07
1.12083e-07
1.12055e-07
1.12025e-07
1.12002e-07
1.11976e-07
1.11955e-07
1.11934e-07
1.11917e-07
1.11898e-07
1.11882e-07
1.11867e-07
1.11854e-07
1.11841e-07
1.11828e-07
1.11817e-07
1.11805e-07
1.11794e-07
1.11782e-07
1.11776e-07
1.11764e-07
1.11761e-07
1.11749e-07
1.11747e-07
1.11737e-07
1.11734e-07
1.11724e-07
1.11719e-07
1.11712e-07
1.11705e-07
1.11699e-07
1.11694e-07
1.11686e-07
1.11679e-07
1.11672e-07
1.11667e-07
1.11662e-07
1.11658e-07
1.11654e-07
1.11652e-07
1.11649e-07
1.11647e-07
1.11645e-07
1.11644e-07
1.11642e-07
1.11642e-07
1.11641e-07
1.11641e-07
1.11643e-07
1.11645e-07
1.11647e-07
1.1165e-07
1.11651e-07
1.11656e-07
1.11656e-07
1.1166e-07
1.11661e-07
1.11656e-07
1.11684e-07
1.1287e-07
1.15711e-07
1.61561e-08
1.23961e-07
1.231e-07
1.22229e-07
1.21255e-07
1.20248e-07
1.19258e-07
1.18362e-07
1.17552e-07
1.16859e-07
1.16245e-07
1.15729e-07
1.15269e-07
1.14885e-07
1.14537e-07
1.14248e-07
1.13982e-07
1.13762e-07
1.13555e-07
1.13385e-07
1.13222e-07
1.13089e-07
1.12958e-07
1.12853e-07
1.12748e-07
1.12663e-07
1.12578e-07
1.12509e-07
1.12438e-07
1.12382e-07
1.12323e-07
1.12277e-07
1.12228e-07
1.12189e-07
1.12147e-07
1.12115e-07
1.1208e-07
1.12052e-07
1.12022e-07
1.11998e-07
1.11973e-07
1.11952e-07
1.1193e-07
1.11914e-07
1.11894e-07
1.11879e-07
1.11863e-07
1.1185e-07
1.11837e-07
1.11825e-07
1.11813e-07
1.11801e-07
1.1179e-07
1.11778e-07
1.11773e-07
1.1176e-07
1.11757e-07
1.11745e-07
1.11743e-07
1.11733e-07
1.1173e-07
1.1172e-07
1.11715e-07
1.11708e-07
1.11701e-07
1.11695e-07
1.1169e-07
1.11682e-07
1.11675e-07
1.11668e-07
1.11663e-07
1.11658e-07
1.11654e-07
1.1165e-07
1.11648e-07
1.11645e-07
1.11643e-07
1.11641e-07
1.1164e-07
1.11638e-07
1.11637e-07
1.11636e-07
1.11637e-07
1.11638e-07
1.11641e-07
1.11642e-07
1.11646e-07
1.11646e-07
1.11651e-07
1.11652e-07
1.11655e-07
1.11656e-07
1.11652e-07
1.1168e-07
1.12895e-07
1.15714e-07
1.691e-08
1.23961e-07
1.231e-07
1.2223e-07
1.21257e-07
1.20251e-07
1.19262e-07
1.18366e-07
1.17557e-07
1.16863e-07
1.16249e-07
1.15732e-07
1.15272e-07
1.14887e-07
1.14539e-07
1.1425e-07
1.13983e-07
1.13762e-07
1.13555e-07
1.13385e-07
1.13222e-07
1.13088e-07
1.12958e-07
1.12852e-07
1.12747e-07
1.12662e-07
1.12576e-07
1.12507e-07
1.12436e-07
1.1238e-07
1.12321e-07
1.12274e-07
1.12225e-07
1.12186e-07
1.12144e-07
1.12112e-07
1.12077e-07
1.12049e-07
1.12019e-07
1.11995e-07
1.1197e-07
1.11949e-07
1.11927e-07
1.1191e-07
1.11891e-07
1.11875e-07
1.11859e-07
1.11846e-07
1.11833e-07
1.11821e-07
1.11809e-07
1.11797e-07
1.11786e-07
1.11774e-07
1.11768e-07
1.11756e-07
1.11753e-07
1.11741e-07
1.11738e-07
1.11729e-07
1.11726e-07
1.11716e-07
1.11711e-07
1.11704e-07
1.11697e-07
1.11691e-07
1.11685e-07
1.11678e-07
1.11671e-07
1.11664e-07
1.11659e-07
1.11653e-07
1.1165e-07
1.11646e-07
1.11643e-07
1.1164e-07
1.11639e-07
1.11636e-07
1.11635e-07
1.11633e-07
1.11633e-07
1.11632e-07
1.11632e-07
1.11633e-07
1.11636e-07
1.11638e-07
1.11641e-07
1.11641e-07
1.11646e-07
1.11647e-07
1.1165e-07
1.11651e-07
1.11647e-07
1.11676e-07
1.12922e-07
1.15717e-07
1.77031e-08
1.23961e-07
1.231e-07
1.2223e-07
1.2126e-07
1.20255e-07
1.19267e-07
1.18371e-07
1.17562e-07
1.16868e-07
1.16254e-07
1.15736e-07
1.15275e-07
1.1489e-07
1.14541e-07
1.14251e-07
1.13984e-07
1.13763e-07
1.13556e-07
1.13385e-07
1.13221e-07
1.13087e-07
1.12957e-07
1.1285e-07
1.12745e-07
1.1266e-07
1.12574e-07
1.12505e-07
1.12434e-07
1.12377e-07
1.12318e-07
1.12271e-07
1.12222e-07
1.12183e-07
1.12141e-07
1.12109e-07
1.12074e-07
1.12045e-07
1.12015e-07
1.11991e-07
1.11966e-07
1.11945e-07
1.11923e-07
1.11906e-07
1.11887e-07
1.11871e-07
1.11855e-07
1.11842e-07
1.11829e-07
1.11816e-07
1.11805e-07
1.11793e-07
1.11782e-07
1.1177e-07
1.11764e-07
1.11752e-07
1.11748e-07
1.11737e-07
1.11734e-07
1.11724e-07
1.11721e-07
1.11711e-07
1.11706e-07
1.11699e-07
1.11692e-07
1.11686e-07
1.11681e-07
1.11673e-07
1.11666e-07
1.11659e-07
1.11654e-07
1.11648e-07
1.11645e-07
1.11641e-07
1.11639e-07
1.11635e-07
1.11634e-07
1.11631e-07
1.1163e-07
1.11628e-07
1.11628e-07
1.11627e-07
1.11627e-07
1.11628e-07
1.1163e-07
1.11632e-07
1.11635e-07
1.11636e-07
1.11641e-07
1.11641e-07
1.11645e-07
1.11645e-07
1.11641e-07
1.11671e-07
1.12953e-07
1.1572e-07
1.85375e-08
1.2396e-07
1.23099e-07
1.22231e-07
1.21262e-07
1.20259e-07
1.19272e-07
1.18377e-07
1.17568e-07
1.16873e-07
1.16258e-07
1.1574e-07
1.15279e-07
1.14893e-07
1.14544e-07
1.14253e-07
1.13986e-07
1.13764e-07
1.13556e-07
1.13385e-07
1.13221e-07
1.13087e-07
1.12956e-07
1.12849e-07
1.12743e-07
1.12658e-07
1.12572e-07
1.12502e-07
1.12431e-07
1.12375e-07
1.12315e-07
1.12268e-07
1.12219e-07
1.12179e-07
1.12138e-07
1.12105e-07
1.1207e-07
1.12042e-07
1.12011e-07
1.11987e-07
1.11962e-07
1.11941e-07
1.11918e-07
1.11902e-07
1.11882e-07
1.11867e-07
1.11851e-07
1.11837e-07
1.11824e-07
1.11812e-07
1.118e-07
1.11788e-07
1.11777e-07
1.11765e-07
1.11759e-07
1.11747e-07
1.11743e-07
1.11732e-07
1.11729e-07
1.11719e-07
1.11716e-07
1.11706e-07
1.11701e-07
1.11694e-07
1.11687e-07
1.11681e-07
1.11676e-07
1.11668e-07
1.11661e-07
1.11654e-07
1.11649e-07
1.11643e-07
1.1164e-07
1.11636e-07
1.11633e-07
1.1163e-07
1.11628e-07
1.11626e-07
1.11625e-07
1.11623e-07
1.11622e-07
1.11621e-07
1.11622e-07
1.11623e-07
1.11625e-07
1.11627e-07
1.1163e-07
1.1163e-07
1.11635e-07
1.11635e-07
1.11639e-07
1.11639e-07
1.11636e-07
1.11666e-07
1.12989e-07
1.15722e-07
1.9416e-08
1.2396e-07
1.23099e-07
1.22232e-07
1.21264e-07
1.20263e-07
1.19277e-07
1.18383e-07
1.17574e-07
1.16879e-07
1.16264e-07
1.15745e-07
1.15283e-07
1.14896e-07
1.14547e-07
1.14256e-07
1.13988e-07
1.13765e-07
1.13557e-07
1.13385e-07
1.13221e-07
1.13086e-07
1.12955e-07
1.12848e-07
1.12742e-07
1.12656e-07
1.1257e-07
1.125e-07
1.12429e-07
1.12372e-07
1.12312e-07
1.12265e-07
1.12215e-07
1.12176e-07
1.12134e-07
1.12101e-07
1.12066e-07
1.12038e-07
1.12007e-07
1.11983e-07
1.11958e-07
1.11936e-07
1.11914e-07
1.11897e-07
1.11878e-07
1.11862e-07
1.11846e-07
1.11832e-07
1.11819e-07
1.11807e-07
1.11795e-07
1.11783e-07
1.11772e-07
1.1176e-07
1.11754e-07
1.11742e-07
1.11738e-07
1.11726e-07
1.11723e-07
1.11714e-07
1.11711e-07
1.11701e-07
1.11696e-07
1.11689e-07
1.11681e-07
1.11675e-07
1.1167e-07
1.11662e-07
1.11656e-07
1.11648e-07
1.11643e-07
1.11638e-07
1.11634e-07
1.1163e-07
1.11628e-07
1.11624e-07
1.11622e-07
1.1162e-07
1.11619e-07
1.11617e-07
1.11616e-07
1.11615e-07
1.11616e-07
1.11617e-07
1.11618e-07
1.1162e-07
1.11623e-07
1.11624e-07
1.11629e-07
1.11629e-07
1.11633e-07
1.11633e-07
1.11629e-07
1.11661e-07
1.13028e-07
1.15724e-07
2.03414e-08
1.2396e-07
1.23098e-07
1.22232e-07
1.21267e-07
1.20268e-07
1.19283e-07
1.18389e-07
1.1758e-07
1.16886e-07
1.1627e-07
1.1575e-07
1.15288e-07
1.149e-07
1.1455e-07
1.14258e-07
1.13989e-07
1.13767e-07
1.13558e-07
1.13385e-07
1.1322e-07
1.13085e-07
1.12954e-07
1.12846e-07
1.1274e-07
1.12654e-07
1.12567e-07
1.12497e-07
1.12426e-07
1.12369e-07
1.12309e-07
1.12262e-07
1.12212e-07
1.12172e-07
1.1213e-07
1.12097e-07
1.12062e-07
1.12033e-07
1.12003e-07
1.11979e-07
1.11953e-07
1.11932e-07
1.11909e-07
1.11892e-07
1.11873e-07
1.11857e-07
1.11841e-07
1.11827e-07
1.11814e-07
1.11801e-07
1.1179e-07
1.11778e-07
1.11767e-07
1.11754e-07
1.11748e-07
1.11736e-07
1.11732e-07
1.11721e-07
1.11718e-07
1.11708e-07
1.11705e-07
1.11695e-07
1.1169e-07
1.11683e-07
1.11675e-07
1.11669e-07
1.11664e-07
1.11656e-07
1.1165e-07
1.11642e-07
1.11637e-07
1.11632e-07
1.11628e-07
1.11624e-07
1.11621e-07
1.11618e-07
1.11616e-07
1.11614e-07
1.11613e-07
1.1161e-07
1.1161e-07
1.11609e-07
1.11609e-07
1.1161e-07
1.11612e-07
1.11614e-07
1.11617e-07
1.11617e-07
1.11622e-07
1.11622e-07
1.11626e-07
1.11626e-07
1.11623e-07
1.11655e-07
1.13071e-07
1.15724e-07
2.13165e-08
1.2396e-07
1.23098e-07
1.22233e-07
1.2127e-07
1.20273e-07
1.1929e-07
1.18396e-07
1.17587e-07
1.16892e-07
1.16276e-07
1.15756e-07
1.15293e-07
1.14904e-07
1.14553e-07
1.14261e-07
1.13992e-07
1.13768e-07
1.13559e-07
1.13386e-07
1.1322e-07
1.13085e-07
1.12953e-07
1.12845e-07
1.12738e-07
1.12652e-07
1.12565e-07
1.12495e-07
1.12423e-07
1.12366e-07
1.12305e-07
1.12258e-07
1.12208e-07
1.12168e-07
1.12126e-07
1.12093e-07
1.12057e-07
1.12029e-07
1.11998e-07
1.11974e-07
1.11948e-07
1.11927e-07
1.11904e-07
1.11887e-07
1.11867e-07
1.11851e-07
1.11835e-07
1.11822e-07
1.11809e-07
1.11796e-07
1.11784e-07
1.11772e-07
1.11761e-07
1.11748e-07
1.11742e-07
1.1173e-07
1.11726e-07
1.11714e-07
1.11711e-07
1.11702e-07
1.11699e-07
1.11689e-07
1.11683e-07
1.11677e-07
1.11669e-07
1.11663e-07
1.11658e-07
1.1165e-07
1.11643e-07
1.11636e-07
1.11631e-07
1.11625e-07
1.11622e-07
1.11617e-07
1.11615e-07
1.11611e-07
1.1161e-07
1.11607e-07
1.11606e-07
1.11604e-07
1.11603e-07
1.11602e-07
1.11603e-07
1.11603e-07
1.11605e-07
1.11607e-07
1.11609e-07
1.1161e-07
1.11615e-07
1.11615e-07
1.11619e-07
1.11619e-07
1.11616e-07
1.11649e-07
1.13118e-07
1.15723e-07
2.23446e-08
1.2396e-07
1.23097e-07
1.22234e-07
1.21273e-07
1.20278e-07
1.19297e-07
1.18404e-07
1.17595e-07
1.169e-07
1.16283e-07
1.15762e-07
1.15298e-07
1.14909e-07
1.14557e-07
1.14264e-07
1.13994e-07
1.1377e-07
1.1356e-07
1.13386e-07
1.1322e-07
1.13084e-07
1.12952e-07
1.12844e-07
1.12737e-07
1.1265e-07
1.12562e-07
1.12492e-07
1.1242e-07
1.12362e-07
1.12302e-07
1.12255e-07
1.12204e-07
1.12164e-07
1.12122e-07
1.12089e-07
1.12053e-07
1.12024e-07
1.11993e-07
1.11969e-07
1.11943e-07
1.11921e-07
1.11899e-07
1.11881e-07
1.11862e-07
1.11846e-07
1.11829e-07
1.11816e-07
1.11803e-07
1.1179e-07
1.11778e-07
1.11766e-07
1.11755e-07
1.11742e-07
1.11736e-07
1.11724e-07
1.1172e-07
1.11708e-07
1.11705e-07
1.11696e-07
1.11692e-07
1.11682e-07
1.11677e-07
1.1167e-07
1.11663e-07
1.11656e-07
1.11651e-07
1.11643e-07
1.11637e-07
1.11629e-07
1.11624e-07
1.11618e-07
1.11615e-07
1.11611e-07
1.11608e-07
1.11604e-07
1.11603e-07
1.116e-07
1.11599e-07
1.11597e-07
1.11596e-07
1.11595e-07
1.11595e-07
1.11596e-07
1.11597e-07
1.11599e-07
1.11602e-07
1.11602e-07
1.11607e-07
1.11607e-07
1.11611e-07
1.11611e-07
1.11608e-07
1.11642e-07
1.1317e-07
1.09285e-07
2.34288e-08
1.2396e-07
1.23097e-07
1.22235e-07
1.21276e-07
1.20283e-07
1.19304e-07
1.18412e-07
1.17603e-07
1.16908e-07
1.1629e-07
1.15769e-07
1.15304e-07
1.14914e-07
1.14561e-07
1.14267e-07
1.13996e-07
1.13772e-07
1.13561e-07
1.13387e-07
1.1322e-07
1.13084e-07
1.12951e-07
1.12842e-07
1.12735e-07
1.12648e-07
1.1256e-07
1.12489e-07
1.12417e-07
1.12359e-07
1.12298e-07
1.12251e-07
1.122e-07
1.1216e-07
1.12117e-07
1.12084e-07
1.12048e-07
1.12019e-07
1.11988e-07
1.11963e-07
1.11937e-07
1.11916e-07
1.11893e-07
1.11875e-07
1.11856e-07
1.1184e-07
1.11823e-07
1.11809e-07
1.11796e-07
1.11783e-07
1.11772e-07
1.11759e-07
1.11748e-07
1.11735e-07
1.11729e-07
1.11717e-07
1.11713e-07
1.11701e-07
1.11698e-07
1.11689e-07
1.11685e-07
1.11675e-07
1.1167e-07
1.11663e-07
1.11655e-07
1.11649e-07
1.11644e-07
1.11636e-07
1.1163e-07
1.11622e-07
1.11617e-07
1.11611e-07
1.11607e-07
1.11603e-07
1.11601e-07
1.11597e-07
1.11595e-07
1.11592e-07
1.11591e-07
1.11589e-07
1.11588e-07
1.11587e-07
1.11588e-07
1.11588e-07
1.1159e-07
1.11591e-07
1.11594e-07
1.11594e-07
1.11599e-07
1.11599e-07
1.11602e-07
1.11602e-07
1.116e-07
1.11636e-07
1.13225e-07
1.03449e-07
2.45726e-08
1.23959e-07
1.23096e-07
1.22236e-07
1.2128e-07
1.20289e-07
1.19312e-07
1.18421e-07
1.17612e-07
1.16916e-07
1.16298e-07
1.15776e-07
1.1531e-07
1.14919e-07
1.14566e-07
1.14271e-07
1.13999e-07
1.13774e-07
1.13562e-07
1.13388e-07
1.1322e-07
1.13083e-07
1.1295e-07
1.12841e-07
1.12733e-07
1.12645e-07
1.12557e-07
1.12486e-07
1.12413e-07
1.12355e-07
1.12294e-07
1.12246e-07
1.12195e-07
1.12155e-07
1.12112e-07
1.12079e-07
1.12042e-07
1.12014e-07
1.11982e-07
1.11958e-07
1.11931e-07
1.1191e-07
1.11887e-07
1.11869e-07
1.1185e-07
1.11833e-07
1.11817e-07
1.11803e-07
1.1179e-07
1.11776e-07
1.11765e-07
1.11752e-07
1.11741e-07
1.11728e-07
1.11722e-07
1.1171e-07
1.11706e-07
1.11694e-07
1.11691e-07
1.11681e-07
1.11678e-07
1.11668e-07
1.11662e-07
1.11655e-07
1.11648e-07
1.11642e-07
1.11636e-07
1.11629e-07
1.11622e-07
1.11614e-07
1.11609e-07
1.11603e-07
1.116e-07
1.11595e-07
1.11593e-07
1.11589e-07
1.11587e-07
1.11584e-07
1.11583e-07
1.11581e-07
1.1158e-07
1.11579e-07
1.11579e-07
1.1158e-07
1.11581e-07
1.11583e-07
1.11585e-07
1.11586e-07
1.1159e-07
1.1159e-07
1.11594e-07
1.11594e-07
1.11592e-07
1.11629e-07
1.13286e-07
9.8239e-08
2.57794e-08
1.23959e-07
1.23096e-07
1.22237e-07
1.21283e-07
1.20296e-07
1.1932e-07
1.1843e-07
1.17622e-07
1.16925e-07
1.16306e-07
1.15784e-07
1.15317e-07
1.14925e-07
1.14571e-07
1.14275e-07
1.14002e-07
1.13776e-07
1.13564e-07
1.13388e-07
1.13221e-07
1.13083e-07
1.12949e-07
1.12839e-07
1.12731e-07
1.12643e-07
1.12554e-07
1.12483e-07
1.1241e-07
1.12351e-07
1.1229e-07
1.12242e-07
1.12191e-07
1.1215e-07
1.12107e-07
1.12073e-07
1.12037e-07
1.12008e-07
1.11976e-07
1.11952e-07
1.11925e-07
1.11903e-07
1.1188e-07
1.11863e-07
1.11843e-07
1.11826e-07
1.1181e-07
1.11796e-07
1.11782e-07
1.11769e-07
1.11757e-07
1.11745e-07
1.11734e-07
1.11721e-07
1.11715e-07
1.11702e-07
1.11698e-07
1.11686e-07
1.11683e-07
1.11673e-07
1.1167e-07
1.1166e-07
1.11654e-07
1.11647e-07
1.1164e-07
1.11634e-07
1.11628e-07
1.11621e-07
1.11614e-07
1.11606e-07
1.11601e-07
1.11595e-07
1.11592e-07
1.11587e-07
1.11585e-07
1.11581e-07
1.11579e-07
1.11576e-07
1.11575e-07
1.11573e-07
1.11572e-07
1.11571e-07
1.11571e-07
1.11571e-07
1.11572e-07
1.11574e-07
1.11576e-07
1.11577e-07
1.11581e-07
1.11581e-07
1.11584e-07
1.11584e-07
1.11583e-07
1.11621e-07
1.1335e-07
9.35819e-08
2.70526e-08
1.23959e-07
1.23095e-07
1.22237e-07
1.21287e-07
1.20302e-07
1.19328e-07
1.1844e-07
1.17631e-07
1.16935e-07
1.16315e-07
1.15792e-07
1.15324e-07
1.14931e-07
1.14576e-07
1.14279e-07
1.14006e-07
1.13779e-07
1.13565e-07
1.13389e-07
1.13221e-07
1.13083e-07
1.12948e-07
1.12838e-07
1.12729e-07
1.12641e-07
1.12551e-07
1.1248e-07
1.12406e-07
1.12348e-07
1.12286e-07
1.12237e-07
1.12186e-07
1.12145e-07
1.12102e-07
1.12068e-07
1.12031e-07
1.12002e-07
1.1197e-07
1.11945e-07
1.11919e-07
1.11897e-07
1.11874e-07
1.11856e-07
1.11836e-07
1.11819e-07
1.11803e-07
1.11789e-07
1.11775e-07
1.11762e-07
1.1175e-07
1.11737e-07
1.11726e-07
1.11713e-07
1.11707e-07
1.11694e-07
1.1169e-07
1.11678e-07
1.11675e-07
1.11665e-07
1.11662e-07
1.11651e-07
1.11646e-07
1.11639e-07
1.11632e-07
1.11625e-07
1.1162e-07
1.11612e-07
1.11606e-07
1.11598e-07
1.11593e-07
1.11587e-07
1.11583e-07
1.11579e-07
1.11576e-07
1.11572e-07
1.1157e-07
1.11567e-07
1.11566e-07
1.11564e-07
1.11563e-07
1.11561e-07
1.11562e-07
1.11562e-07
1.11563e-07
1.11564e-07
1.11566e-07
1.11567e-07
1.11571e-07
1.11571e-07
1.11574e-07
1.11574e-07
1.11573e-07
1.11613e-07
1.13418e-07
8.94164e-08
2.83957e-08
1.23959e-07
1.23094e-07
1.22238e-07
1.21291e-07
1.20309e-07
1.19338e-07
1.1845e-07
1.17642e-07
1.16945e-07
1.16325e-07
1.15801e-07
1.15331e-07
1.14938e-07
1.14581e-07
1.14284e-07
1.14009e-07
1.13781e-07
1.13567e-07
1.13391e-07
1.13221e-07
1.13082e-07
1.12947e-07
1.12836e-07
1.12727e-07
1.12638e-07
1.12548e-07
1.12476e-07
1.12402e-07
1.12343e-07
1.12281e-07
1.12233e-07
1.12181e-07
1.1214e-07
1.12096e-07
1.12062e-07
1.12025e-07
1.11996e-07
1.11964e-07
1.11939e-07
1.11912e-07
1.1189e-07
1.11866e-07
1.11849e-07
1.11828e-07
1.11812e-07
1.11795e-07
1.11781e-07
1.11767e-07
1.11754e-07
1.11742e-07
1.11729e-07
1.11718e-07
1.11705e-07
1.11699e-07
1.11686e-07
1.11681e-07
1.1167e-07
1.11666e-07
1.11656e-07
1.11653e-07
1.11643e-07
1.11637e-07
1.1163e-07
1.11623e-07
1.11616e-07
1.11611e-07
1.11603e-07
1.11597e-07
1.11589e-07
1.11584e-07
1.11578e-07
1.11574e-07
1.11569e-07
1.11567e-07
1.11563e-07
1.11561e-07
1.11558e-07
1.11556e-07
1.11554e-07
1.11553e-07
1.11552e-07
1.11552e-07
1.11552e-07
1.11553e-07
1.11554e-07
1.11556e-07
1.11557e-07
1.11561e-07
1.11561e-07
1.11564e-07
1.11564e-07
1.11563e-07
1.11605e-07
1.13489e-07
8.56896e-08
2.98116e-08
1.23958e-07
1.23094e-07
1.22239e-07
1.21295e-07
1.20317e-07
1.19347e-07
1.18461e-07
1.17653e-07
1.16956e-07
1.16335e-07
1.1581e-07
1.1534e-07
1.14945e-07
1.14587e-07
1.14289e-07
1.14013e-07
1.13784e-07
1.13569e-07
1.13392e-07
1.13222e-07
1.13082e-07
1.12946e-07
1.12835e-07
1.12725e-07
1.12636e-07
1.12545e-07
1.12473e-07
1.12398e-07
1.12339e-07
1.12277e-07
1.12228e-07
1.12175e-07
1.12134e-07
1.1209e-07
1.12056e-07
1.12019e-07
1.11989e-07
1.11957e-07
1.11932e-07
1.11905e-07
1.11883e-07
1.11859e-07
1.11841e-07
1.11821e-07
1.11804e-07
1.11787e-07
1.11773e-07
1.11759e-07
1.11746e-07
1.11733e-07
1.11721e-07
1.11709e-07
1.11696e-07
1.1169e-07
1.11677e-07
1.11672e-07
1.11661e-07
1.11657e-07
1.11647e-07
1.11644e-07
1.11634e-07
1.11628e-07
1.11621e-07
1.11613e-07
1.11607e-07
1.11602e-07
1.11594e-07
1.11587e-07
1.1158e-07
1.11574e-07
1.11568e-07
1.11564e-07
1.1156e-07
1.11557e-07
1.11553e-07
1.11551e-07
1.11548e-07
1.11547e-07
1.11544e-07
1.11543e-07
1.11542e-07
1.11542e-07
1.11542e-07
1.11543e-07
1.11544e-07
1.11546e-07
1.11547e-07
1.1155e-07
1.1155e-07
1.11553e-07
1.11553e-07
1.11553e-07
1.11596e-07
1.13562e-07
8.23566e-08
3.13032e-08
1.23958e-07
1.23093e-07
1.2224e-07
1.21299e-07
1.20324e-07
1.19357e-07
1.18472e-07
1.17665e-07
1.16968e-07
1.16346e-07
1.1582e-07
1.15348e-07
1.14953e-07
1.14594e-07
1.14294e-07
1.14017e-07
1.13788e-07
1.13572e-07
1.13393e-07
1.13222e-07
1.13082e-07
1.12945e-07
1.12834e-07
1.12723e-07
1.12633e-07
1.12542e-07
1.12469e-07
1.12394e-07
1.12335e-07
1.12272e-07
1.12223e-07
1.1217e-07
1.12128e-07
1.12084e-07
1.1205e-07
1.12012e-07
1.11982e-07
1.1195e-07
1.11925e-07
1.11897e-07
1.11875e-07
1.11851e-07
1.11833e-07
1.11813e-07
1.11796e-07
1.11779e-07
1.11764e-07
1.1175e-07
1.11737e-07
1.11725e-07
1.11712e-07
1.117e-07
1.11687e-07
1.11681e-07
1.11668e-07
1.11663e-07
1.11651e-07
1.11647e-07
1.11638e-07
1.11634e-07
1.11624e-07
1.11618e-07
1.11611e-07
1.11604e-07
1.11597e-07
1.11592e-07
1.11584e-07
1.11577e-07
1.1157e-07
1.11564e-07
1.11558e-07
1.11554e-07
1.1155e-07
1.11547e-07
1.11543e-07
1.11541e-07
1.11538e-07
1.11536e-07
1.11534e-07
1.11533e-07
1.11531e-07
1.11531e-07
1.11531e-07
1.11532e-07
1.11533e-07
1.11534e-07
1.11536e-07
1.11539e-07
1.11539e-07
1.11542e-07
1.11542e-07
1.11542e-07
1.11587e-07
1.13635e-07
7.9379e-08
3.28723e-08
1.23958e-07
1.23092e-07
1.22241e-07
1.21304e-07
1.20332e-07
1.19368e-07
1.18484e-07
1.17677e-07
1.1698e-07
1.16357e-07
1.1583e-07
1.15357e-07
1.14961e-07
1.14601e-07
1.143e-07
1.14022e-07
1.13791e-07
1.13574e-07
1.13395e-07
1.13223e-07
1.13082e-07
1.12944e-07
1.12832e-07
1.12721e-07
1.1263e-07
1.12539e-07
1.12466e-07
1.1239e-07
1.1233e-07
1.12267e-07
1.12217e-07
1.12164e-07
1.12122e-07
1.12078e-07
1.12043e-07
1.12005e-07
1.11975e-07
1.11943e-07
1.11917e-07
1.1189e-07
1.11867e-07
1.11843e-07
1.11825e-07
1.11804e-07
1.11787e-07
1.1177e-07
1.11755e-07
1.11741e-07
1.11728e-07
1.11715e-07