/*--------------------------------*- C++ -*----------------------------------*\
| =========                 |                                                 |
| \\      /  F ield         | OpenFOAM: The Open Source CFD Toolbox           |
|  \\    /   O peration     | Version:  v2012                                 |
|   \\  /    A nd           | Website:  www.openfoam.com                      |
|    \\/     M anipulation  |                                                 |
\*---------------------------------------------------------------------------*/
FoamFile
{
    version     2.0;
    format      ascii;
    class       volScalarField;
    location    "45";
    object      omega;
}
// * * * * * * * * * * * * * * * * * * * * * * * * * * * * * * * * * * * * * //

dimensions      [0 0 -1 0 0 0 0];


internalField   nonuniform List<scalar> 
209825
(
8261.68
7568.74
6999.39
6543.57
6184.01
5901.46
5677.26
5497.72
5351.41
5231.21
5130.62
5046.2
4973.94
4912.3
4858.54
4812.14
4770.99
4735.17
4702.93
4674.71
4648.96
4626.34
4605.43
4587.04
4569.82
4554.68
4540.34
4527.75
4515.66
4505.11
4494.83
4485.91
4477.11
4469.52
4461.92
4455.44
4448.86
4443.29
4437.55
4432.72
4427.73
4423.55
4419.14
4415.53
4411.66
4408.5
4405.09
4402.3
4399.32
4396.88
4394.27
4392.18
4389.95
4388.03
4386.05
4384.39
4382.65
4381.18
4379.62
4378.37
4377.08
4376.05
4374.86
4374.04
4373.02
4372.3
4371.36
4370.79
4370.01
4369.59
4368.93
4368.58
4368.01
4367.71
4367.15
4366.82
4366.3
4366.03
4365.59
4365.39
4365.01
4364.86
4364.51
4364.51
4364.44
4364.57
4364.57
4364.94
4364.94
4365.48
4365.48
4366.31
4367
4395.83
4506.01
113159
8261.68
7568.74
6999.39
6543.57
6183.99
5901.44
5677.23
5497.68
5351.36
5231.15
5130.55
5046.12
4973.86
4912.22
4858.45
4812.04
4770.89
4735.06
4702.83
4674.6
4648.85
4626.23
4605.32
4586.92
4569.7
4554.57
4540.22
4527.63
4515.54
4504.99
4494.71
4485.79
4476.99
4469.4
4461.79
4455.31
4448.73
4443.16
4437.41
4432.59
4427.6
4423.41
4419
4415.39
4411.53
4408.37
4404.95
4402.16
4399.18
4396.75
4394.14
4392.05
4389.81
4387.89
4385.91
4384.25
4382.51
4381.04
4379.48
4378.24
4376.94
4375.91
4374.72
4373.9
4372.88
4372.16
4371.22
4370.65
4369.87
4369.45
4368.78
4368.44
4367.87
4367.57
4367.01
4366.68
4366.16
4365.89
4365.45
4365.24
4364.87
4364.72
4364.37
4364.37
4364.29
4364.43
4364.43
4364.8
4364.8
4365.33
4365.33
4366.16
4366.86
4395.74
4505.91
109861
8261.68
7568.75
6999.39
6543.55
6183.94
5901.35
5677.1
5497.51
5351.16
5230.93
5130.31
5045.86
4973.57
4911.92
4858.14
4811.72
4770.56
4734.72
4702.47
4674.24
4648.48
4625.85
4604.94
4586.53
4569.3
4554.17
4539.82
4527.22
4515.13
4504.57
4494.29
4485.37
4476.56
4468.97
4461.37
4454.88
4448.3
4442.72
4436.98
4432.15
4427.16
4422.97
4418.56
4414.95
4411.08
4407.92
4404.5
4401.71
4398.73
4396.3
4393.68
4391.59
4389.36
4387.44
4385.46
4383.8
4382.05
4380.59
4379.02
4377.78
4376.48
4375.45
4374.26
4373.44
4372.42
4371.7
4370.76
4370.18
4369.4
4368.98
4368.32
4367.98
4367.4
4367.1
4366.54
4366.21
4365.69
4365.42
4364.98
4364.77
4364.4
4364.25
4363.9
4363.9
4363.82
4363.96
4363.95
4364.32
4364.32
4364.86
4364.86
4365.69
4366.39
4395.36
4505.51
106074
8261.68
7568.77
6999.4
6543.51
6183.84
5901.19
5676.88
5497.23
5350.83
5230.55
5129.89
5045.4
4973.09
4911.41
4857.61
4811.16
4769.98
4734.13
4701.87
4673.62
4647.84
4625.21
4604.28
4585.87
4568.63
4553.49
4539.13
4526.53
4514.43
4503.87
4493.58
4484.65
4475.84
4468.24
4460.64
4454.15
4447.56
4441.98
4436.24
4431.41
4426.41
4422.22
4417.81
4414.19
4410.32
4407.16
4403.74
4400.95
4397.96
4395.53
4392.91
4390.82
4388.58
4386.66
4384.68
4383.02
4381.27
4379.8
4378.24
4376.99
4375.7
4374.66
4373.47
4372.65
4371.63
4370.91
4369.97
4369.39
4368.61
4368.19
4367.52
4367.18
4366.61
4366.3
4365.74
4365.41
4364.89
4364.63
4364.18
4363.97
4363.6
4363.44
4363.1
4363.1
4363.01
4363.15
4363.15
4363.51
4363.51
4364.04
4364.04
4364.87
4365.58
4394.71
4504.82
102181
8261.68
7568.78
6999.4
6543.46
6183.71
5900.96
5676.56
5496.83
5350.35
5230.01
5129.29
5044.75
4972.4
4910.68
4856.84
4810.37
4769.16
4733.28
4701
4672.73
4646.94
4624.29
4603.35
4584.92
4567.67
4552.52
4538.15
4525.54
4513.43
4502.86
4492.56
4483.63
4474.81
4467.21
4459.6
4453.1
4446.51
4440.93
4435.17
4430.34
4425.34
4421.15
4416.73
4413.11
4409.24
4406.07
4402.65
4399.86
4396.87
4394.43
4391.81
4389.72
4387.48
4385.55
4383.57
4381.91
4380.16
4378.69
4377.12
4375.88
4374.58
4373.54
4372.35
4371.52
4370.5
4369.78
4368.84
4368.26
4367.48
4367.06
4366.39
4366.05
4365.47
4365.17
4364.61
4364.28
4363.76
4363.49
4363.04
4362.83
4362.45
4362.3
4361.96
4361.95
4361.87
4362
4361.99
4362.36
4362.36
4362.89
4362.89
4363.71
4364.42
4393.77
4503.84
98283.8
8261.69
7568.81
6999.41
6543.39
6183.53
5900.66
5676.14
5496.3
5349.73
5229.3
5128.51
5043.91
4971.5
4909.73
4855.85
4809.33
4768.09
4732.18
4699.87
4671.57
4645.76
4623.09
4602.13
4583.68
4566.42
4551.25
4536.87
4524.25
4512.12
4501.54
4491.24
4482.3
4473.47
4465.86
4458.24
4451.73
4445.14
4439.55
4433.79
4428.95
4423.95
4419.75
4415.33
4411.71
4407.83
4404.66
4401.23
4398.43
4395.44
4393
4390.38
4388.28
4386.04
4384.11
4382.12
4380.46
4378.71
4377.24
4375.67
4374.42
4373.12
4372.08
4370.88
4370.06
4369.03
4368.32
4367.37
4366.79
4366.01
4365.58
4364.91
4364.57
4363.99
4363.69
4363.12
4362.79
4362.27
4362
4361.55
4361.35
4360.96
4360.81
4360.47
4360.46
4360.37
4360.5
4360.49
4360.85
4360.85
4361.38
4361.38
4362.2
4362.92
4392.55
4502.55
94424.3
8261.69
7568.84
6999.41
6543.3
6183.31
5900.29
5675.62
5495.65
5348.96
5228.43
5127.54
5042.86
4970.38
4908.55
4854.61
4808.05
4766.76
4730.82
4698.47
4670.14
4644.3
4621.6
4600.62
4582.15
4564.87
4549.68
4535.28
4522.65
4510.51
4499.92
4489.6
4480.64
4471.81
4464.19
4456.56
4450.04
4443.44
4437.84
4432.08
4427.23
4422.22
4418.02
4413.59
4409.96
4406.08
4402.9
4399.47
4396.67
4393.67
4391.23
4388.6
4386.5
4384.25
4382.32
4380.33
4378.67
4376.91
4375.44
4373.86
4372.61
4371.31
4370.27
4369.07
4368.24
4367.22
4366.5
4365.55
4364.97
4364.18
4363.75
4363.09
4362.74
4362.16
4361.85
4361.29
4360.96
4360.43
4360.16
4359.71
4359.5
4359.12
4358.97
4358.63
4358.61
4358.51
4358.64
4358.63
4358.99
4358.99
4359.51
4359.51
4360.33
4361.05
4391.04
4500.97
90620.9
8261.69
7568.87
6999.42
6543.2
6183.04
5899.85
5675.01
5494.88
5348.04
5227.39
5126.39
5041.62
4969.05
4907.14
4853.14
4806.52
4765.18
4729.19
4696.8
4668.43
4642.56
4619.83
4598.81
4580.32
4563.02
4547.81
4533.39
4520.73
4508.58
4497.97
4487.64
4478.67
4469.82
4462.19
4454.55
4448.02
4441.41
4435.8
4430.03
4425.17
4420.16
4415.94
4411.51
4407.88
4403.98
4400.81
4397.37
4394.56
4391.56
4389.11
4386.48
4384.37
4382.12
4380.19
4378.19
4376.52
4374.76
4373.29
4371.71
4370.46
4369.15
4368.11
4366.9
4366.07
4365.04
4364.32
4363.37
4362.79
4362
4361.57
4360.9
4360.55
4359.97
4359.66
4359.09
4358.76
4358.24
4357.96
4357.51
4357.3
4356.91
4356.76
4356.42
4356.39
4356.29
4356.42
4356.41
4356.76
4356.76
4357.27
4357.27
4358.09
4358.82
4389.23
4499.09
86882.4
8261.69
7568.91
6999.43
6543.09
6182.74
5899.33
5674.29
5493.98
5346.97
5226.17
5125.05
5040.16
4967.49
4905.5
4851.42
4804.73
4763.33
4727.29
4694.85
4666.44
4640.52
4617.76
4596.71
4578.19
4560.85
4545.62
4531.18
4518.5
4506.32
4495.7
4485.35
4476.36
4467.5
4459.85
4452.2
4445.66
4439.04
4433.42
4427.64
4422.77
4417.75
4413.52
4409.08
4405.44
4401.54
4398.36
4394.91
4392.1
4389.09
4386.63
4384
4381.89
4379.63
4377.69
4375.69
4374.02
4372.26
4370.78
4369.19
4367.94
4366.62
4365.58
4364.37
4363.54
4362.5
4361.78
4360.83
4360.24
4359.45
4359.02
4358.34
4357.99
4357.41
4357.1
4356.53
4356.2
4355.67
4355.39
4354.94
4354.73
4354.34
4354.18
4353.84
4353.81
4353.7
4353.82
4353.81
4354.15
4354.16
4354.66
4354.66
4355.47
4356.22
4387.12
4496.9
83211.5
8261.69
7568.96
6999.44
6542.95
6182.39
5898.75
5673.47
5492.95
5345.75
5224.78
5123.51
5038.5
4965.71
4903.62
4849.45
4802.69
4761.22
4725.11
4692.61
4664.16
4638.19
4615.38
4594.3
4575.74
4558.37
4543.11
4528.64
4515.94
4503.74
4493.09
4482.73
4473.72
4464.84
4457.18
4449.51
4442.96
4436.32
4430.69
4424.89
4420.02
4414.98
4410.75
4406.3
4402.65
4398.74
4395.55
4392.1
4389.28
4386.26
4383.8
4381.16
4379.04
4376.77
4374.83
4372.83
4371.15
4369.38
4367.9
4366.31
4365.05
4363.73
4362.68
4361.47
4360.63
4359.59
4358.87
4357.91
4357.32
4356.53
4356.09
4355.41
4355.06
4354.48
4354.16
4353.59
4353.26
4352.73
4352.45
4351.99
4351.78
4351.39
4351.23
4350.89
4350.85
4350.73
4350.85
4350.83
4351.17
4351.17
4351.67
4351.66
4352.48
4353.24
4384.71
4494.42
79606.5
8261.69
7569.01
6999.46
6542.81
6182
5898.09
5672.55
5491.79
5344.38
5223.22
5121.78
5036.62
4963.71
4901.5
4847.24
4800.38
4758.83
4722.65
4690.09
4661.58
4635.56
4612.7
4591.58
4572.98
4555.58
4540.28
4525.78
4513.05
4500.83
4490.15
4479.76
4470.74
4461.84
4454.16
4446.47
4439.91
4433.25
4427.61
4421.8
4416.91
4411.86
4407.62
4403.15
4399.5
4395.58
4392.38
4388.92
4386.09
4383.07
4380.6
4377.95
4375.82
4373.55
4371.6
4369.59
4367.91
4366.13
4364.65
4363.05
4361.79
4360.46
4359.41
4358.19
4357.35
4356.31
4355.58
4354.62
4354.02
4353.22
4352.78
4352.1
4351.75
4351.16
4350.85
4350.27
4349.94
4349.4
4349.12
4348.66
4348.44
4348.05
4347.89
4347.55
4347.51
4347.38
4347.49
4347.47
4347.8
4347.8
4348.28
4348.28
4349.09
4349.86
4382
4491.64
76061.6
8261.69
7569.07
6999.47
6542.64
6181.57
5897.36
5671.53
5490.49
5342.84
5221.47
5119.85
5034.53
4961.47
4899.14
4844.76
4797.81
4756.17
4719.91
4687.27
4658.7
4632.62
4609.71
4588.54
4569.9
4552.45
4537.12
4522.58
4509.83
4497.57
4486.87
4476.45
4467.41
4458.48
4450.78
4443.08
4436.49
4429.82
4424.16
4418.34
4413.44
4408.37
4404.12
4399.64
4395.97
4392.05
4388.83
4385.36
4382.53
4379.5
4377.02
4374.36
4372.23
4369.95
4367.99
4365.97
4364.29
4362.5
4361.01
4359.41
4358.14
4356.81
4355.75
4354.53
4353.69
4352.63
4351.9
4350.94
4350.34
4349.53
4349.09
4348.41
4348.04
4347.46
4347.14
4346.57
4346.22
4345.69
4345.4
4344.94
4344.72
4344.32
4344.16
4343.82
4343.77
4343.63
4343.73
4343.71
4344.03
4344.03
4344.5
4344.5
4345.3
4346.1
4378.97
4488.56
72572.9
8261.69
7569.14
6999.49
6542.46
6181.1
5896.56
5670.41
5489.07
5341.15
5219.55
5117.72
5032.21
4959
4896.53
4842.02
4794.96
4753.22
4716.87
4684.16
4655.51
4629.37
4606.41
4585.18
4566.49
4549
4533.62
4519.05
4506.26
4493.97
4483.24
4472.79
4463.72
4454.77
4447.05
4439.32
4432.72
4426.03
4420.35
4414.51
4409.59
4404.51
4400.25
4395.76
4392.08
4388.14
4384.91
4381.43
4378.58
4375.54
4373.06
4370.39
4368.25
4365.96
4364
4361.97
4360.28
4358.48
4356.99
4355.38
4354.1
4352.77
4351.71
4350.47
4349.63
4348.57
4347.83
4346.86
4346.26
4345.45
4345
4344.31
4343.95
4343.36
4343.04
4342.46
4342.12
4341.58
4341.29
4340.82
4340.6
4340.2
4340.03
4339.68
4339.63
4339.48
4339.58
4339.55
4339.86
4339.86
4340.32
4340.32
4341.12
4341.93
4375.63
4485.17
69147
8261.7
7569.21
6999.51
6542.27
6180.58
5895.68
5669.18
5487.51
5339.31
5217.44
5115.38
5029.68
4956.29
4893.67
4839.03
4791.84
4749.99
4713.55
4680.75
4652.02
4625.81
4602.78
4581.49
4562.75
4545.2
4529.79
4515.17
4502.34
4490.01
4479.25
4468.77
4459.68
4450.7
4442.95
4435.2
4428.58
4421.86
4416.17
4410.31
4405.37
4400.28
4396
4391.49
4387.8
4383.84
4380.61
4377.11
4374.26
4371.2
4368.71
4366.03
4363.88
4361.58
4359.61
4357.57
4355.87
4354.07
4352.57
4350.95
4349.67
4348.33
4347.26
4346.02
4345.17
4344.1
4343.36
4342.39
4341.78
4340.96
4340.51
4339.82
4339.45
4338.85
4338.53
4337.95
4337.6
4337.06
4336.77
4336.3
4336.07
4335.66
4335.49
4335.15
4335.08
4334.92
4335.01
4334.98
4335.28
4335.28
4335.73
4335.73
4336.51
4337.35
4371.96
4481.5
65790
8261.7
7569.28
6999.54
6542.06
6180.03
5894.74
5667.84
5485.83
5337.3
5215.15
5112.85
5026.93
4953.35
4890.55
4835.76
4788.44
4746.47
4709.93
4677.03
4648.22
4621.92
4598.82
4577.47
4558.67
4541.07
4525.6
4510.94
4498.07
4485.7
4474.9
4464.39
4455.26
4446.25
4438.48
4430.7
4424.06
4417.32
4411.6
4405.72
4400.77
4395.66
4391.36
4386.84
4383.13
4379.16
4375.91
4372.4
4369.53
4366.47
4363.96
4361.27
4359.11
4356.8
4354.83
4352.78
4351.07
4349.26
4347.75
4346.13
4344.84
4343.48
4342.41
4341.16
4340.3
4339.23
4338.49
4337.51
4336.89
4336.07
4335.61
4334.91
4334.54
4333.94
4333.61
4333.03
4332.68
4332.13
4331.84
4331.36
4331.13
4330.72
4330.54
4330.19
4330.13
4329.95
4330.04
4329.99
4330.28
4330.28
4330.71
4330.71
4331.49
4332.36
4367.96
4477.53
62507.4
8261.7
7569.37
6999.56
6541.84
6179.43
5893.72
5666.4
5484
5335.13
5212.68
5110.1
5023.95
4950.16
4887.18
4832.22
4784.76
4742.66
4706
4673
4644.09
4617.71
4594.53
4573.11
4554.25
4536.59
4521.07
4506.35
4493.43
4481.02
4470.19
4459.64
4450.48
4441.43
4433.63
4425.82
4419.15
4412.39
4406.65
4400.75
4395.78
4390.64
4386.33
4381.79
4378.06
4374.08
4370.81
4367.29
4364.41
4361.33
4358.81
4356.11
4353.94
4351.61
4349.63
4347.57
4345.86
4344.04
4342.52
4340.89
4339.59
4338.22
4337.15
4335.89
4335.03
4333.95
4333.2
4332.21
4331.59
4330.76
4330.3
4329.59
4329.21
4328.61
4328.28
4327.69
4327.34
4326.78
4326.49
4326
4325.77
4325.35
4325.17
4324.82
4324.74
4324.56
4324.63
4324.58
4324.86
4324.86
4325.27
4325.27
4326.05
4326.94
4363.62
4473.27
59304.6
8261.7
7569.45
6999.59
6541.61
6178.79
5892.62
5664.86
5482.04
5332.79
5210.01
5107.15
5020.74
4946.72
4883.55
4828.41
4780.8
4738.56
4701.77
4668.65
4639.64
4613.17
4589.91
4568.41
4549.48
4531.75
4516.17
4501.4
4488.44
4475.98
4465.1
4454.51
4445.31
4436.23
4428.4
4420.56
4413.86
4407.07
4401.31
4395.38
4390.39
4385.23
4380.9
4376.34
4372.59
4368.59
4365.31
4361.78
4358.88
4355.79
4353.25
4350.54
4348.35
4346.02
4344.03
4341.96
4340.23
4338.4
4336.88
4335.23
4333.93
4332.55
4331.47
4330.2
4329.33
4328.24
4327.49
4326.49
4325.87
4325.02
4324.56
4323.84
4323.46
4322.85
4322.52
4321.92
4321.57
4321.01
4320.71
4320.22
4319.98
4319.56
4319.37
4319.02
4318.93
4318.74
4318.8
4318.74
4319
4319
4319.4
4319.4
4320.17
4321.09
4358.93
4468.73
56186.2
8261.7
7569.55
6999.63
6541.36
6178.11
5891.46
5663.21
5479.95
5330.3
5207.16
5103.98
5017.3
4943.04
4879.65
4824.33
4776.54
4734.15
4697.23
4663.99
4634.87
4608.3
4584.95
4563.36
4544.36
4526.56
4510.92
4496.09
4483.07
4470.56
4459.64
4449
4439.76
4430.65
4422.78
4414.91
4408.18
4401.36
4395.57
4389.61
4384.6
4379.42
4375.06
4370.48
4366.72
4362.7
4359.4
4355.85
4352.94
4349.83
4347.28
4344.55
4342.35
4340
4338
4335.92
4334.18
4332.34
4330.81
4329.15
4327.84
4326.45
4325.36
4324.08
4323.2
4322.11
4321.35
4320.34
4319.71
4318.86
4318.39
4317.67
4317.28
4316.66
4316.33
4315.73
4315.37
4314.8
4314.5
4314
4313.75
4313.33
4313.14
4312.78
4312.69
4312.48
4312.53
4312.46
4312.71
4312.71
4313.09
4313.09
4313.85
4314.8
4353.87
4463.9
53156.9
8261.7
7569.65
6999.66
6541.1
6177.4
5890.22
5661.46
5477.72
5327.64
5204.13
5100.61
5013.63
4939.11
4875.49
4819.96
4772
4729.44
4692.37
4659
4629.77
4603.09
4579.64
4557.96
4538.88
4521.01
4505.3
4490.4
4477.32
4464.76
4453.79
4443.11
4433.83
4424.67
4416.77
4408.85
4402.09
4395.24
4389.42
4383.44
4378.4
4373.19
4368.82
4364.21
4360.43
4356.38
4353.07
4349.5
4346.57
4343.45
4340.89
4338.14
4335.93
4333.56
4331.55
4329.45
4327.71
4325.85
4324.31
4322.64
4321.32
4319.92
4318.82
4317.53
4316.64
4315.54
4314.77
4313.76
4313.12
4312.26
4311.78
4311.05
4310.66
4310.03
4309.69
4309.09
4308.73
4308.16
4307.84
4307.34
4307.09
4306.65
4306.46
4306.1
4306
4305.78
4305.82
4305.74
4305.97
4305.97
4306.33
4306.33
4307.08
4308.07
4348.44
4458.78
50220.8
8261.7
7569.75
6999.7
6540.83
6176.64
5888.92
5659.61
5475.36
5324.82
5200.9
5097.02
5009.73
4934.93
4871.07
4815.32
4767.16
4724.43
4687.2
4653.69
4624.33
4597.53
4573.98
4552.21
4533.04
4515.08
4499.3
4484.34
4471.2
4458.58
4447.55
4436.82
4427.49
4418.29
4410.35
4402.4
4395.6
4388.71
4382.87
4376.85
4371.79
4366.55
4362.15
4357.52
4353.72
4349.65
4346.32
4342.73
4339.78
4336.64
4334.06
4331.3
4329.07
4326.69
4324.67
4322.55
4320.8
4318.93
4317.38
4315.7
4314.36
4312.95
4311.84
4310.54
4309.64
4308.53
4307.75
4306.73
4306.09
4305.22
4304.73
4303.99
4303.59
4302.96
4302.62
4302.01
4301.64
4301.06
4300.74
4300.24
4299.98
4299.53
4299.34
4298.97
4298.86
4298.63
4298.66
4298.56
4298.78
4298.77
4299.12
4299.11
4299.85
4300.89
4342.62
4453.33
47381.6
8261.7
7569.86
6999.75
6540.54
6175.84
5887.54
5657.65
5472.86
5321.83
5197.48
5093.22
5005.59
4930.49
4866.37
4810.38
4762.02
4719.1
4681.71
4648.05
4618.55
4591.63
4567.97
4546.09
4526.83
4508.79
4492.93
4477.89
4464.69
4452
4440.92
4430.13
4420.76
4411.51
4403.53
4395.53
4388.7
4381.77
4375.9
4369.85
4364.75
4359.49
4355.06
4350.41
4346.58
4342.49
4339.14
4335.53
4332.56
4329.4
4326.8
4324.02
4321.78
4319.38
4317.34
4315.21
4313.44
4311.56
4310
4308.31
4306.96
4305.53
4304.42
4303.11
4302.2
4301.07
4300.29
4299.25
4298.6
4297.72
4297.23
4296.48
4296.07
4295.44
4295.09
4294.47
4294.1
4293.51
4293.19
4292.67
4292.41
4291.96
4291.76
4291.38
4291.27
4291.02
4291.03
4290.93
4291.13
4291.12
4291.44
4291.44
4292.17
4293.24
4336.39
4447.53
44642.8
8261.69
7569.98
6999.8
6540.25
6175.01
5886.09
5655.59
5470.23
5318.68
5193.87
5089.2
5001.22
4925.8
4861.4
4805.17
4756.58
4713.46
4675.9
4642.07
4612.44
4585.38
4561.6
4539.61
4520.25
4502.12
4486.18
4471.06
4457.79
4445.03
4433.9
4423.05
4413.62
4404.32
4396.29
4388.25
4381.38
4374.42
4368.5
4362.42
4357.29
4352
4347.55
4342.86
4339.01
4334.89
4331.52
4327.88
4324.9
4321.71
4319.1
4316.3
4314.04
4311.63
4309.58
4307.43
4305.65
4303.75
4302.18
4300.46
4299.11
4297.67
4296.54
4295.22
4294.3
4293.16
4292.37
4291.32
4290.66
4289.77
4289.27
4288.51
4288.1
4287.45
4287.1
4286.47
4286.1
4285.5
4285.17
4284.65
4284.38
4283.92
4283.71
4283.33
4283.21
4282.95
4282.95
4282.83
4283.01
4283
4283.3
4283.29
4284.01
4285.14
4329.72
4441.35
42007.5
8261.69
7570.1
6999.85
6539.95
6174.15
5884.58
5653.43
5467.46
5315.37
5190.07
5084.97
4996.61
4920.86
4856.16
4799.66
4750.84
4707.51
4669.76
4635.76
4605.97
4578.78
4554.87
4532.77
4513.3
4495.07
4479.04
4463.84
4450.49
4437.67
4426.46
4415.55
4406.07
4396.72
4388.64
4380.55
4373.64
4366.63
4360.68
4354.56
4349.4
4344.07
4339.59
4334.88
4331
4326.86
4323.46
4319.8
4316.8
4313.59
4310.96
4308.13
4305.85
4303.42
4301.36
4299.19
4297.39
4295.48
4293.9
4292.17
4290.8
4289.34
4288.21
4286.87
4285.94
4284.78
4283.99
4282.93
4282.26
4281.36
4280.85
4280.08
4279.66
4279
4278.64
4278.01
4277.63
4277.03
4276.69
4276.16
4275.88
4275.41
4275.2
4274.8
4274.68
4274.41
4274.39
4274.25
4274.42
4274.41
4274.69
4274.67
4275.38
4276.55
4322.6
4434.77
39478.2
8261.69
7570.23
6999.91
6539.64
6173.25
5883
5651.17
5464.56
5311.89
5186.08
5080.53
4991.76
4915.65
4850.64
4793.86
4744.8
4701.24
4663.29
4629.11
4599.16
4571.82
4547.78
4525.55
4505.97
4487.64
4471.52
4456.22
4442.8
4429.89
4418.63
4407.65
4398.11
4388.69
4380.57
4372.43
4365.47
4358.42
4352.43
4346.27
4341.08
4335.71
4331.2
4326.45
4322.55
4318.38
4314.96
4311.27
4308.24
4305.01
4302.36
4299.51
4297.21
4294.76
4292.68
4290.49
4288.68
4286.75
4285.15
4283.41
4282.03
4280.55
4279.41
4278.05
4277.11
4275.94
4275.14
4274.07
4273.39
4272.48
4271.95
4271.17
4270.74
4270.08
4269.71
4269.08
4268.69
4268.08
4267.73
4267.19
4266.91
4266.43
4266.21
4265.81
4265.67
4265.4
4265.36
4265.2
4265.35
4265.34
4265.6
4265.57
4266.27
4267.49
4315
4427.74
37057.6
8261.68
7570.36
6999.98
6539.31
6172.31
5881.36
5648.81
5461.53
5308.25
5181.9
5075.86
4986.68
4910.19
4844.85
4787.78
4738.45
4694.66
4656.49
4622.12
4592
4564.49
4540.32
4517.95
4498.26
4479.82
4463.6
4448.21
4434.7
4421.71
4410.37
4399.32
4389.72
4380.25
4372.07
4363.88
4356.87
4349.77
4343.74
4337.54
4332.31
4326.9
4322.36
4317.58
4313.64
4309.44
4306
4302.28
4299.23
4295.97
4293.3
4290.43
4288.11
4285.63
4283.54
4281.33
4279.51
4277.55
4275.94
4274.18
4272.79
4271.29
4270.14
4268.77
4267.81
4266.63
4265.81
4264.73
4264.04
4263.12
4262.58
4261.79
4261.35
4260.68
4260.31
4259.66
4259.26
4258.65
4258.3
4257.75
4257.45
4256.97
4256.73
4256.32
4256.18
4255.9
4255.85
4255.67
4255.8
4255.78
4256.02
4255.98
4256.67
4257.95
4306.89
4420.24
34747.6
8261.68
7570.5
7000.05
6538.99
6171.34
5879.65
5646.35
5458.37
5304.45
5177.53
5070.99
4981.36
4904.48
4838.79
4781.39
4731.79
4687.75
4649.36
4614.79
4584.48
4556.81
4532.49
4509.98
4490.17
4471.6
4455.28
4439.79
4426.19
4413.12
4401.71
4390.58
4380.92
4371.38
4363.14
4354.89
4347.84
4340.68
4334.61
4328.36
4323.09
4317.65
4313.07
4308.25
4304.29
4300.05
4296.58
4292.83
4289.76
4286.47
4283.78
4280.88
4278.54
4276.04
4273.93
4271.7
4269.86
4267.88
4266.26
4264.48
4263.08
4261.56
4260.39
4259
4258.04
4256.84
4256.01
4254.92
4254.22
4253.28
4252.73
4251.93
4251.48
4250.8
4250.41
4249.76
4249.36
4248.73
4248.37
4247.81
4247.51
4247.01
4246.77
4246.35
4246.2
4245.9
4245.84
4245.64
4245.76
4245.73
4245.94
4245.9
4246.58
4247.91
4298.23
4412.23
32549.9
8261.67
7570.64
7000.12
6538.65
6170.35
5877.88
5643.79
5455.08
5300.49
5172.97
5065.9
4975.8
4898.5
4832.44
4774.72
4724.82
4680.52
4641.9
4607.11
4576.61
4548.76
4524.28
4501.63
4481.68
4463
4446.56
4430.97
4417.28
4404.11
4392.62
4381.42
4371.68
4362.07
4353.77
4345.47
4338.36
4331.15
4325.03
4318.74
4313.43
4307.94
4303.33
4298.47
4294.47
4290.2
4286.7
4282.92
4279.82
4276.5
4273.79
4270.86
4268.5
4265.98
4263.85
4261.59
4259.73
4257.74
4256.1
4254.3
4252.88
4251.34
4250.16
4248.76
4247.78
4246.56
4245.72
4244.61
4243.9
4242.95
4242.39
4241.57
4241.12
4240.42
4240.03
4239.37
4238.96
4238.32
4237.96
4237.38
4237.07
4236.57
4236.32
4235.89
4235.72
4235.42
4235.34
4235.12
4235.22
4235.18
4235.37
4235.31
4235.98
4237.37
4288.99
4403.67
30466.2
8261.67
7570.79
7000.21
6538.31
6169.32
5876.05
5641.15
5451.66
5296.37
5168.22
5060.59
4970
4892.26
4825.82
4767.75
4717.55
4672.96
4634.1
4599.08
4568.38
4540.35
4515.7
4492.89
4472.81
4453.99
4437.44
4421.74
4407.95
4394.69
4383.1
4371.82
4362.01
4352.33
4343.97
4335.6
4328.43
4321.17
4315
4308.66
4303.31
4297.77
4293.12
4288.22
4284.19
4279.88
4276.35
4272.54
4269.41
4266.06
4263.32
4260.37
4257.98
4255.43
4253.28
4251
4249.13
4247.11
4245.46
4243.64
4242.2
4240.64
4239.45
4238.02
4237.03
4235.79
4234.94
4233.82
4233.1
4232.13
4231.56
4230.73
4230.26
4229.55
4229.15
4228.48
4228.06
4227.42
4227.04
4226.46
4226.14
4225.62
4225.36
4224.92
4224.75
4224.43
4224.34
4224.1
4224.18
4224.13
4224.3
4224.22
4224.88
4226.32
4279.13
4394.53
28497.8
8261.66
7570.94
7000.29
6537.97
6168.26
5874.16
5638.41
5448.12
5292.09
5163.29
5055.07
4963.97
4885.77
4818.92
4760.48
4709.96
4665.08
4625.96
4590.7
4559.8
4531.56
4506.74
4483.77
4463.54
4444.58
4427.91
4412.09
4398.2
4384.84
4373.17
4361.79
4351.91
4342.15
4333.72
4325.28
4318.06
4310.74
4304.52
4298.12
4292.72
4287.14
4282.45
4277.51
4273.44
4269.09
4265.53
4261.69
4258.53
4255.15
4252.38
4249.4
4246.98
4244.41
4242.24
4239.93
4238.04
4235.99
4234.33
4232.48
4231.03
4229.45
4228.24
4226.79
4225.78
4224.53
4223.67
4222.53
4221.79
4220.81
4220.22
4219.38
4218.9
4218.18
4217.77
4217.09
4216.67
4216.01
4215.62
4215.03
4214.7
4214.17
4213.9
4213.45
4213.26
4212.93
4212.83
4212.57
4212.63
4212.57
4212.72
4212.62
4213.27
4214.77
4268.63
4384.76
26645.9
8261.65
7571.09
7000.39
6537.62
6167.18
5872.21
5635.58
5444.46
5287.66
5158.18
5049.35
4957.7
4879.02
4811.74
4752.92
4702.06
4656.88
4617.48
4581.97
4550.85
4522.41
4497.4
4474.26
4453.88
4434.78
4417.97
4402.03
4388.03
4374.56
4362.79
4351.33
4341.36
4331.52
4323.03
4314.52
4307.23
4299.85
4293.57
4287.12
4281.67
4276.04
4271.31
4266.32
4262.21
4257.83
4254.23
4250.35
4247.16
4243.75
4240.95
4237.94
4235.5
4232.89
4230.7
4228.37
4226.45
4224.38
4222.7
4220.83
4219.37
4217.75
4216.53
4215.07
4214.04
4212.77
4211.89
4210.73
4209.99
4208.98
4208.39
4207.53
4207.04
4206.3
4205.89
4205.19
4204.76
4204.09
4203.7
4203.09
4202.75
4202.2
4201.93
4201.46
4201.27
4200.92
4200.8
4200.53
4200.57
4200.49
4200.62
4200.51
4201.14
4202.69
4257.49
4374.32
24911.5
8261.64
7571.25
7000.49
6537.27
6166.08
5870.21
5632.66
5440.67
5283.08
5152.88
5043.41
4951.19
4872.01
4804.29
4745.07
4693.85
4648.35
4608.66
4572.89
4541.54
4512.88
4487.68
4464.36
4443.82
4424.56
4407.62
4391.55
4377.43
4363.85
4351.99
4340.43
4330.38
4320.45
4311.88
4303.3
4295.95
4288.5
4282.17
4275.66
4270.16
4264.47
4259.7
4254.66
4250.51
4246.09
4242.45
4238.53
4235.31
4231.86
4229.04
4225.99
4223.52
4220.88
4218.67
4216.31
4214.37
4212.28
4210.57
4208.68
4207.2
4205.56
4204.32
4202.84
4201.79
4200.5
4199.61
4198.43
4197.67
4196.65
4196.04
4195.17
4194.66
4193.92
4193.49
4192.78
4192.34
4191.66
4191.26
4190.63
4190.29
4189.73
4189.44
4188.96
4188.75
4188.39
4188.26
4187.97
4187.99
4187.9
4188
4187.87
4188.49
4190.1
4245.72
4363.18
23295.7
8261.63
7571.41
7000.6
6536.92
6164.95
5868.16
5629.66
5436.77
5278.34
5147.4
5037.26
4944.46
4864.75
4796.56
4736.92
4685.33
4639.49
4599.51
4563.47
4531.86
4502.98
4477.58
4454.07
4433.36
4413.94
4396.86
4380.65
4366.41
4352.72
4340.75
4329.09
4318.95
4308.94
4300.29
4291.63
4284.21
4276.69
4270.3
4263.72
4258.17
4252.43
4247.61
4242.52
4238.33
4233.86
4230.18
4226.23
4222.97
4219.49
4216.63
4213.55
4211.05
4208.38
4206.14
4203.75
4201.79
4199.67
4197.95
4196.03
4194.53
4192.86
4191.61
4190.1
4189.04
4187.72
4186.82
4185.62
4184.85
4183.81
4183.18
4182.29
4181.77
4181.01
4180.57
4179.86
4179.41
4178.71
4178.3
4177.66
4177.3
4176.73
4176.43
4175.94
4175.72
4175.34
4175.2
4174.89
4174.89
4174.78
4174.86
4174.7
4175.32
4176.97
4233.31
4351.3
21794.1
8261.61
7571.58
7000.71
6536.57
6163.8
5866.07
5626.58
5432.75
5273.46
5141.74
5030.91
4937.49
4857.23
4788.56
4728.48
4676.51
4630.31
4590.01
4553.68
4521.82
4492.71
4467.09
4443.38
4422.5
4402.92
4385.69
4369.33
4354.97
4341.15
4329.08
4317.31
4307.07
4296.97
4288.24
4279.49
4272
4264.41
4257.96
4251.32
4245.71
4239.91
4235.04
4229.9
4225.67
4221.15
4217.43
4213.43
4210.14
4206.62
4203.73
4200.61
4198.08
4195.38
4193.11
4190.69
4188.71
4186.56
4184.81
4182.87
4181.35
4179.66
4178.38
4176.85
4175.77
4174.43
4173.51
4172.3
4171.51
4170.45
4169.81
4168.89
4168.36
4167.59
4167.14
4166.41
4165.95
4165.24
4164.81
4164.16
4163.79
4163.2
4162.89
4162.39
4162.15
4161.76
4161.61
4161.29
4161.26
4161.13
4161.19
4161
4161.61
4163.31
4220.26
4338.64
20402.1
8261.6
7571.75
7000.84
6536.22
6162.64
5863.92
5623.42
5428.62
5268.44
5135.91
5024.36
4930.3
4849.46
4780.28
4719.75
4667.37
4620.8
4580.18
4543.55
4511.43
4482.06
4456.23
4432.31
4411.24
4391.48
4374.1
4357.59
4343.1
4329.15
4316.96
4305.08
4294.75
4284.54
4275.73
4266.9
4259.33
4251.66
4245.14
4238.44
4232.77
4226.91
4221.99
4216.8
4212.51
4207.95
4204.19
4200.15
4196.82
4193.25
4190.33
4187.17
4184.61
4181.87
4179.58
4177.12
4175.12
4172.93
4171.17
4169.2
4167.65
4165.94
4164.64
4163.08
4161.99
4160.62
4159.69
4158.45
4157.65
4156.56
4155.91
4154.98
4154.43
4153.64
4153.18
4152.43
4151.96
4151.24
4150.8
4150.14
4149.76
4149.15
4148.83
4148.31
4148.06
4147.65
4147.49
4147.15
4147.1
4146.96
4146.98
4146.77
4147.37
4149.12
4206.57
4325.17
19114.8
8261.58
7571.92
7000.97
6535.87
6161.46
5861.74
5620.19
5424.39
5263.27
5129.91
5017.61
4922.88
4841.45
4771.74
4710.73
4657.93
4610.98
4570.02
4533.07
4500.66
4471.04
4444.97
4420.84
4399.58
4379.64
4362.09
4345.43
4330.79
4316.71
4304.4
4292.4
4281.97
4271.66
4262.76
4253.84
4246.2
4238.45
4231.86
4225.08
4219.36
4213.43
4208.45
4203.21
4198.87
4194.25
4190.45
4186.36
4183
4179.38
4176.43
4173.23
4170.64
4167.86
4165.54
4163.05
4161.02
4158.8
4157.01
4155.01
4153.45
4151.7
4150.39
4148.8
4147.68
4146.29
4145.34
4144.08
4143.26
4142.16
4141.49
4140.53
4139.97
4139.16
4138.69
4137.93
4137.45
4136.71
4136.26
4135.58
4135.19
4134.57
4134.23
4133.69
4133.43
4133.01
4132.83
4132.48
4132.41
4132.24
4132.25
4132
4132.59
4134.37
4192.23
4310.86
17927.1
8261.56
7572.1
7001.1
6535.52
6160.27
5859.51
5616.89
5420.05
5257.97
5123.75
5010.66
4915.24
4833.19
4762.93
4701.42
4648.18
4600.83
4559.51
4522.24
4489.54
4459.64
4433.34
4408.98
4387.51
4367.38
4349.66
4332.84
4318.06
4303.84
4291.4
4279.28
4268.74
4258.33
4249.33
4240.32
4232.59
4224.76
4218.1
4211.25
4205.46
4199.46
4194.43
4189.12
4184.74
4180.06
4176.22
4172.08
4168.67
4165.01
4162.02
4158.78
4156.15
4153.33
4150.99
4148.46
4146.4
4144.15
4142.34
4140.31
4138.72
4136.94
4135.61
4133.99
4132.86
4131.44
4130.47
4129.19
4128.35
4127.22
4126.54
4125.56
4124.99
4124.16
4123.67
4122.89
4122.4
4121.65
4121.19
4120.49
4120.08
4119.45
4119.1
4118.54
4118.27
4117.82
4117.63
4117.26
4117.17
4117
4116.97
4116.69
4117.27
4119.09
4177.26
4295.67
16833.3
8261.54
7572.27
7001.25
6535.18
6159.06
5857.25
5613.52
5415.61
5252.54
5117.42
5003.52
4907.39
4824.69
4753.86
4691.83
4638.13
4590.36
4548.68
4511.06
4478.06
4447.88
4421.32
4396.73
4375.05
4354.72
4336.82
4319.83
4304.9
4290.53
4277.96
4265.72
4255.06
4244.54
4235.44
4226.33
4218.52
4210.6
4203.86
4196.93
4191.08
4185.01
4179.92
4174.55
4170.11
4165.38
4161.48
4157.29
4153.85
4150.14
4147.11
4143.83
4141.16
4138.3
4135.92
4133.36
4131.27
4128.98
4127.15
4125.09
4123.48
4121.66
4120.31
4118.66
4117.5
4116.06
4115.07
4113.77
4112.91
4111.76
4111.05
4110.06
4109.47
4108.62
4108.12
4107.32
4106.82
4106.05
4105.58
4104.86
4104.44
4103.79
4103.42
4102.85
4102.56
4102.1
4101.89
4101.5
4101.4
4101.2
4101.15
4100.82
4101.4
4103.25
4161.64
4279.57
15827.9
8261.52
7572.45
7001.4
6534.84
6157.85
5854.96
5610.08
5411.08
5246.98
5110.93
4996.2
4899.32
4815.95
4744.52
4681.96
4627.79
4579.58
4537.51
4499.54
4466.22
4435.75
4408.93
4384.08
4362.19
4341.65
4323.57
4306.39
4291.3
4276.78
4264.08
4251.7
4240.93
4230.29
4221.09
4211.87
4203.97
4195.96
4189.15
4182.14
4176.21
4170.07
4164.92
4159.48
4154.99
4150.2
4146.25
4142.01
4138.52
4134.76
4131.69
4128.36
4125.66
4122.75
4120.35
4117.74
4115.63
4113.3
4111.44
4109.34
4107.71
4105.86
4104.48
4102.8
4101.62
4100.15
4099.14
4097.81
4096.94
4095.76
4095.04
4094.02
4093.41
4092.54
4092.03
4091.22
4090.7
4089.91
4089.43
4088.69
4088.26
4087.58
4087.21
4086.62
4086.31
4085.83
4085.61
4085.2
4085.07
4084.86
4084.78
4084.42
4084.98
4086.85
4145.38
4262.54
14904.8
8261.49
7572.63
7001.56
6534.51
6156.63
5852.63
5606.59
5406.45
5241.3
5104.29
4988.69
4891.04
4806.97
4734.93
4671.82
4617.14
4568.49
4526.01
4487.67
4454.03
4423.24
4396.15
4371.05
4348.93
4328.17
4309.9
4292.54
4277.28
4262.6
4249.76
4237.24
4226.34
4215.58
4206.28
4196.95
4188.96
4180.85
4173.95
4166.86
4160.86
4154.64
4149.43
4143.92
4139.37
4134.52
4130.52
4126.22
4122.68
4118.87
4115.76
4112.38
4109.64
4106.69
4104.25