/*--------------------------------*- C++ -*----------------------------------*\
| =========                 |                                                 |
| \\      /  F ield         | OpenFOAM: The Open Source CFD Toolbox           |
|  \\    /   O peration     | Version:  v2012                                 |
|   \\  /    A nd           | Website:  www.openfoam.com                      |
|    \\/     M anipulation  |                                                 |
\*---------------------------------------------------------------------------*/
FoamFile
{
    version     2.0;
    format      ascii;
    class       volScalarField;
    location    "45";
    object      yPlus;
}
// * * * * * * * * * * * * * * * * * * * * * * * * * * * * * * * * * * * * * //

dimensions      [0 0 0 0 0 0 0];


internalField   uniform 0;

boundaryField
{
    inlet
    {
        type            calculated;
        value           uniform 0;
    }
    outlet
    {
        type            calculated;
        value           uniform 0;
    }
    topWall
    {
        type            calculated;
        value           nonuniform List<scalar> 
545
(
0.111339
0.191981
0.246295
0.289519
0.326113
0.358134
0.386737
0.41265
0.436367
0.458245
0.47855
0.497487
0.515221
0.531885
0.547589
0.562423
0.576467
0.589787
0.602442
0.614484
0.625955
0.636898
0.647347
0.657335
0.666891
0.67604
0.684807
0.693214
0.70128
0.709025
0.716465
0.723617
0.730494
0.73711
0.743479
0.749611
0.755518
0.761211
0.766699
0.771991
0.777097
0.782023
0.786778
0.791369
0.795802
0.800085
0.804224
0.808223
0.81209
0.815828
0.819443
0.82294
0.826324
0.829598
0.832766
0.835834
0.838803
0.841679
0.844464
0.847161
0.849775
0.852307
0.85476
0.857138
0.859443
0.861678
0.863844
0.865944
0.867981
0.869957
0.871873
0.873732
0.875512
0.877234
0.878943
0.880638
0.88232
0.883989
0.885644
0.887287
0.888916
0.890533
0.892138
0.89373
0.89531
0.896877
0.898432
0.899976
0.901507
0.903027
0.904535
0.906032
0.907517
0.908991
0.910454
0.911906
0.913214
0.914384
0.915554
0.916724
0.917894
0.919064
0.920233
0.921403
0.922572
0.923741
0.92491
0.926079
0.927248
0.928416
0.929585
0.930753
0.931921
0.933088
0.934256
0.935423
0.936591
0.937757
0.938924
0.940091
0.941257
0.942423
0.943588
0.944754
0.945919
0.947084
0.948248
0.949413
0.950576
0.95174
0.952903
0.954066
0.955229
0.956391
0.957553
0.958715
0.959876
0.961037
0.962197
0.963358
0.964517
0.965676
0.966835
0.967994
0.969152
0.970309
0.971466
0.972623
0.973779
0.974935
0.97609
0.977245
0.978399
0.979553
0.980706
0.981859
0.983011
0.984163
0.985314
0.986464
0.987614
0.988763
0.989912
0.99106
0.992208
0.993355
0.994501
0.995647
0.996792
0.997936
0.99908
1.00022
1.00137
1.00251
1.00365
1.00479
1.00593
1.00707
1.0082
1.00934
1.01048
1.01161
1.01275
1.01388
1.01502
1.01615
1.01728
1.01841
1.01954
1.02067
1.0218
1.02293
1.02405
1.02518
1.0263
1.02743
1.02855
1.02967
1.03079
1.03191
1.03303
1.03415
1.03527
1.03638
1.0375
1.03861
1.03973
1.04084
1.04195
1.04306
1.04417
1.04528
1.04638
1.04749
1.04859
1.0497
1.0508
1.0519
1.053
1.0541
1.05519
1.05629
1.05738
1.05848
1.05957
1.06066
1.06175
1.06284
1.06393
1.06501
1.0661
1.06718
1.06826
1.06934
1.07042
1.0715
1.07258
1.07365
1.07472
1.0758
1.07687
1.07794
1.079
1.08007
1.08113
1.0822
1.08326
1.08432
1.08538
1.08643
1.08749
1.08854
1.0896
1.09065
1.09169
1.09274
1.09379
1.09483
1.09587
1.09691
1.09795
1.09899
1.10003
1.10106
1.10209
1.10312
1.10415
1.10518
1.1062
1.10717
1.10808
1.10899
1.10992
1.11085
1.11179
1.11273
1.11368
1.11464
1.1156
1.11657
1.11754
1.11853
1.11952
1.12051
1.12151
1.12252
1.12353
1.12455
1.12558
1.12661
1.12765
1.1287
1.12975
1.13081
1.13187
1.13294
1.13402
1.1351
1.13619
1.13729
1.13839
1.13949
1.14061
1.14172
1.14285
1.14398
1.14511
1.14625
1.1474
1.14855
1.14971
1.15087
1.15203
1.15321
1.15438
1.15557
1.15675
1.15795
1.15914
1.16034
1.16155
1.16276
1.16397
1.16519
1.16642
1.16764
1.16887
1.17011
1.17135
1.17259
1.17383
1.17508
1.17633
1.17758
1.17884
1.1801
1.18136
1.18262
1.18389
1.18516
1.18643
1.1877
1.18897
1.19025
1.19152
1.1928
1.19407
1.19535
1.19663
1.19791
1.19918
1.20046
1.20174
1.20301
1.20429
1.20556
1.20683
1.2081
1.20937
1.21064
1.2119
1.21316
1.21442
1.21567
1.21692
1.21817
1.21941
1.22065
1.22189
1.22311
1.22434
1.22556
1.22677
1.22797
1.22917
1.23037
1.23155
1.23273
1.2339
1.23506
1.23622
1.23736
1.2385
1.23963
1.24075
1.24185
1.24295
1.24404
1.24511
1.24618
1.24723
1.24827
1.2493
1.25031
1.25132
1.2523
1.25328
1.25424
1.25519
1.25612
1.25704
1.25794
1.25882
1.25969
1.26054
1.26138
1.2622
1.263
1.26378
1.26455
1.26529
1.26602
1.26673
1.26742
1.26809
1.26874
1.26937
1.26998
1.27057
1.27114
1.27169
1.27221
1.27271
1.2732
1.27366
1.27409
1.27451
1.2749
1.27527
1.27561
1.27594
1.27623
1.27651
1.27676
1.27699
1.27719
1.27737
1.27753
1.27766
1.27776
1.27785
1.27791
1.27794
1.27795
1.27793
1.2779
1.27783
1.27775
1.27763
1.2775
1.27732
1.27709
1.27683
1.27654
1.27623
1.27588
1.27551
1.27512
1.27471
1.27427
1.27381
1.27333
1.27284
1.27233
1.2718
1.27126
1.27071
1.27014
1.26956
1.26897
1.26837
1.26776
1.26714
1.26651
1.26588
1.26524
1.2646
1.26395
1.2633
1.26265
1.26199
1.26133
1.26067
1.26001
1.25935
1.25869
1.25803
1.25738
1.25672
1.25607
1.25542
1.25478
1.25414
1.2535
1.25287
1.25224
1.25162
1.25101
1.2504
1.24981
1.24921
1.24863
1.24805
1.24749
1.24693
1.24638
1.24584
1.24531
1.2448
1.24429
1.24379
1.24331
1.24283
1.24237
1.24192
1.24148
1.24105
1.24064
1.24024
1.23985
1.23948
1.23912
1.23877
1.23844
1.23813
1.23782
1.23753
1.23726
1.237
1.23676
1.23653
1.23631
1.23612
1.23593
1.23577
1.23562
1.23548
1.23536
1.23526
1.23517
1.2351
1.23504
1.235
1.23498
1.23497
)
;
    }
    bottomWall
    {
        type            calculated;
        value           nonuniform List<scalar> 
449
(
0.139394
0.0889332
0.0757996
0.0694502
0.065302
0.0622404
0.059875
0.058094
0.0569942
0.0569466
0.059024
0.0631035
0.0663767
0.0683327
0.0693917
0.0699608
0.0702373
0.0703264
0.0702764
0.0701518
0.069974
0.0697631
0.0695351
0.0692997
0.0690625
0.0688269
0.0685947
0.0683676
0.0681464
0.0679314
0.0677229
0.0675208
0.067325
0.0671352
0.0669514
0.0667731
0.0666
0.066432
0.066269
0.0661108
0.065957
0.0658075
0.0656621
0.0655205
0.0653827
0.0652483
0.0651173
0.0649895
0.0648648
0.0647428
0.0646231
0.0645056
0.0643901
0.0642766
0.0641652
0.0640557
0.0639483
0.0638427
0.0637391
0.0636373
0.0635373
0.063439
0.0633424
0.0632474
0.063154
0.0630622
0.0629718
0.0628829
0.0627953
0.0627092
0.0626243
0.0625406
0.0624582
0.062377
0.0622969
0.062218
0.0621403
0.0620636
0.061988
0.0619134
0.0618399
0.0617674
0.0616958
0.0616251
0.0615554
0.0614865
0.0614186
0.0613515
0.0612851
0.0612196
0.0611549
0.0610909
0.0610278
0.0609653
0.0609035
0.0608425
0.0607821
0.0607225
0.0606635
0.0606051
0.0605474
0.0604902
0.0604335
0.0603775
0.060322
0.0602672
0.0602128
0.060159
0.0601058
0.0600531
0.0600008
0.0599491
0.0598979
0.0598472
0.0597969
0.0597471
0.0596978
0.0596489
0.0596005
0.0595525
0.0595049
0.0594577
0.059411
0.0593646
0.0593187
0.0592731
0.0592279
0.0591831
0.0591387
0.0590946
0.0590508
0.0590075
0.0589645
0.0589218
0.0588794
0.0588374
0.0587957
0.0587543
0.0587132
0.0586725
0.058632
0.0585919
0.058552
0.0585124
0.0584731
0.0584341
0.0583954
0.0583569
0.0583187
0.0582807
0.0582429
0.0582055
0.0581683
0.0581313
0.0580946
0.0580581
0.0580218
0.0579858
0.0579501
0.0579145
0.0578792
0.0578441
0.0578092
0.0577746
0.0577401
0.0577059
0.0576719
0.0576381
0.0576045
0.057571
0.0575378
0.0575048
0.057472
0.0574412
0.0574122
0.0573831
0.0573539
0.0573247
0.0572953
0.0572658
0.0572362
0.0572065
0.0571768
0.0571469
0.0571169
0.0570868
0.0570567
0.0570264
0.0569961
0.0569656
0.0569351
0.0569044
0.0568737
0.0568428
0.0568119
0.0567809
0.0567498
0.0567186
0.0566874
0.056656
0.0566246
0.056593
0.0565614
0.0565297
0.0564979
0.056466
0.056434
0.056402
0.0563699
0.0563377
0.0563054
0.056273
0.0562405
0.056208
0.0561753
0.0561426
0.0561098
0.0560769
0.0560439
0.0560109
0.0559778
0.0559446
0.0559113
0.055878
0.0558446
0.0558111
0.0557776
0.055744
0.0557103
0.0556765
0.0556427
0.0556089
0.0555749
0.0555409
0.0555069
0.0554727
0.0554385
0.0554043
0.05537
0.0553356
0.0553012
0.0552667
0.0552321
0.0551975
0.0551629
0.0551281
0.0550934
0.0550586
0.0550237
0.0549887
0.0549538
0.0549187
0.0548836
0.0548485
0.0548134
0.0547781
0.0547429
0.0547075
0.0546722
0.0546368
0.0546013
0.0545658
0.0545303
0.0544947
0.0544591
0.0544235
0.0543878
0.054352
0.0543163
0.0542805
0.0542447
0.0542088
0.0541729
0.0541369
0.0541009
0.0540649
0.0540288
0.0539927
0.0539565
0.0539204
0.0538842
0.0538479
0.0538117
0.0537754
0.0537391
0.0537028
0.0536665
0.0536301
0.0535938
0.0535574
0.053521
0.0534846
0.0534481
0.0534117
0.0533752
0.0533387
0.0533023
0.0532658
0.0532293
0.0531928
0.0531563
0.0531197
0.0530832
0.0530467
0.0530102
0.0529736
0.0529371
0.0529006
0.052864
0.0528275
0.052791
0.0527545
0.0527179
0.0526814
0.0526449
0.0526084
0.0525719
0.0525355
0.052499
0.0524625
0.0524261
0.0523897
0.0523532
0.0523168
0.0522804
0.0522441
0.0522077
0.0521714
0.0521351
0.0520988
0.0520624
0.0520261
0.0519899
0.0519536
0.0519174
0.0518811
0.051845
0.0518088
0.0517727
0.0517365
0.0517005
0.0516644
0.0516284
0.0515924
0.0515565
0.0515205
0.0514847
0.0514488
0.051413
0.0513772
0.0513415
0.0513058
0.0512702
0.0512345
0.0511949
0.0511518
0.0511093
0.0510674
0.0510261
0.0509853
0.0509452
0.0509055
0.0508664
0.0508278
0.0507897
0.0507521
0.050715
0.0506784
0.0506423
0.0506065
0.0505713
0.0505364
0.0505021
0.0504681
0.0504345
0.0504013
0.0503685
0.0503361
0.0503041
0.0502724
0.0502411
0.0502102
0.0501796
0.0501493
0.0501194
0.0500897
0.0500604
0.0500314
0.0500027
0.0499743
0.0499462
0.0499184
0.0498909
0.0498636
0.0498366
0.0498099
0.0497835
0.0497573
0.0497314
0.0497057
0.0496803
0.0496551
0.0496302
0.0496054
0.049581
0.0495567
0.0495327
0.0495089
0.0494853
0.0494619
0.0494388
0.0494157
0.049393
0.0493704
0.0493481
0.0493258
0.0493039
0.049282
0.0492605
0.049239
0.0492178
0.0491966
0.0491758
0.0491549
0.0491345
0.0491139
0.0490938
0.0490735
0.0490537
0.0490337
0.0490142
0.0489945
0.0489754
0.0489558
0.0489371
0.0489177
0.0488993
0.0488801
0.0488619
0.048843
0.048825
0.0488065
0.048788
0.048771
0.0487498
0.0487386
0.0487071
0.0487135
0.0486705
)
;
    }
    symmetry
    {
        type            symmetryPlane;
    }
    frontAndBack
    {
        type            empty;
    }
}


// ************************************************************************* //
