/*--------------------------------*- C++ -*----------------------------------*\
| =========                 |                                                 |
| \\      /  F ield         | OpenFOAM: The Open Source CFD Toolbox           |
|  \\    /   O peration     | Version:  v2012                                 |
|   \\  /    A nd           | Website:  www.openfoam.com                      |
|    \\/     M anipulation  |                                                 |
\*---------------------------------------------------------------------------*/
FoamFile
{
    version     2.0;
    format      ascii;
    class       volScalarField;
    location    "40.5";
    object      k;
}
// * * * * * * * * * * * * * * * * * * * * * * * * * * * * * * * * * * * * * //

dimensions      [0 2 -2 0 0 0 0];


internalField   nonuniform List<scalar> 
209825
(
0.0010246
0.000932456
0.000854158
0.000788407
0.000734067
0.000689679
0.000653256
0.000623281
0.00059823
0.000577206
0.000559239
0.000543882
0.000530489
0.000518882
0.000508579
0.000499554
0.000491422
0.000484246
0.000477695
0.000471885
0.000466514
0.000461739
0.000457272
0.000453293
0.000449532
0.000446181
0.000442983
0.000440137
0.000437389
0.000434957
0.000432581
0.000430486
0.000428416
0.000426604
0.000424791
0.00042322
0.000421628
0.000420257
0.00041885
0.000417651
0.0004164
0.000415349
0.000414234
0.000413312
0.000412317
0.000411504
0.000410615
0.000409896
0.000409099
0.000408467
0.000407752
0.000407194
0.000406554
0.000406064
0.000405491
0.000405056
0.000404543
0.000404166
0.000403702
0.000403371
0.000402956
0.00040267
0.00040229
0.000402047
0.000401711
0.000401496
0.000401194
0.000401005
0.000400739
0.000400573
0.000400338
0.000400187
0.000399983
0.000399851
0.000399665
0.000399548
0.000399383
0.000399287
0.000399144
0.00039907
0.00039895
0.000398897
0.000398799
0.000398772
0.000398712
0.000398732
0.000398727
0.000398798
0.000398806
0.000398915
0.000398927
0.000399123
0.000399131
0.000403225
0.0110771
0.0120433
0.0010246
0.000932456
0.000854158
0.000788407
0.000734067
0.000689678
0.000653254
0.000623279
0.000598226
0.000577202
0.000559233
0.000543876
0.000530482
0.000518874
0.00050857
0.000499545
0.000491412
0.000484236
0.000477684
0.000471874
0.000466503
0.000461727
0.00045726
0.000453281
0.000449519
0.000446168
0.00044297
0.000440124
0.000437375
0.000434943
0.000432567
0.000430472
0.000428402
0.00042659
0.000424777
0.000423205
0.000421613
0.000420243
0.000418835
0.000417635
0.000416385
0.000415333
0.000414219
0.000413296
0.000412302
0.000411488
0.000410599
0.00040988
0.000409083
0.000408451
0.000407736
0.000407178
0.000406538
0.000406048
0.000405474
0.00040504
0.000404526
0.000404149
0.000403685
0.000403355
0.00040294
0.000402654
0.000402274
0.000402031
0.000401694
0.00040148
0.000401177
0.000400989
0.000400722
0.000400556
0.000400322
0.00040017
0.000399966
0.000399834
0.000399648
0.000399531
0.000399366
0.00039927
0.000399127
0.000399053
0.000398933
0.00039888
0.000398782
0.000398755
0.000398695
0.000398714
0.00039871
0.00039878
0.000398789
0.000398897
0.000398909
0.000399105
0.000399114
0.000403213
0.0110882
0.0120565
0.0010246
0.000932457
0.000854161
0.000788409
0.000734065
0.000689672
0.000653243
0.000623263
0.000598206
0.000577178
0.000559206
0.000543844
0.000530448
0.000518837
0.000508531
0.000499503
0.000491369
0.000484191
0.000477637
0.000471826
0.000466453
0.000461676
0.000457208
0.000453227
0.000449465
0.000446113
0.000442914
0.000440067
0.000437317
0.000434885
0.000432509
0.000430413
0.000428341
0.000426529
0.000424715
0.000423144
0.000421551
0.00042018
0.000418772
0.000417572
0.000416321
0.000415269
0.000414154
0.000413231
0.000412237
0.000411423
0.000410533
0.000409815
0.000409017
0.000408385
0.000407669
0.000407111
0.000406471
0.000405981
0.000405407
0.000404972
0.000404458
0.000404081
0.000403617
0.000403286
0.000402871
0.000402585
0.000402205
0.000401962
0.000401625
0.00040141
0.000401108
0.000400919
0.000400652
0.000400487
0.000400252
0.0004001
0.000399896
0.000399764
0.000399577
0.000399461
0.000399295
0.000399199
0.000399056
0.000398982
0.000398862
0.000398808
0.00039871
0.000398683
0.000398623
0.000398643
0.000398637
0.000398708
0.000398716
0.000398824
0.000398836
0.000399032
0.00039904
0.000403151
0.0111131
0.0120858
0.0010246
0.000932459
0.000854165
0.000788411
0.000734063
0.000689662
0.000653225
0.000623237
0.000598172
0.000577137
0.000559158
0.000543792
0.00053039
0.000518775
0.000508465
0.000499433
0.000491295
0.000484114
0.000477558
0.000471744
0.000466369
0.000461589
0.00045712
0.000453137
0.000449373
0.000446019
0.000442819
0.000439971
0.00043722
0.000434787
0.000432409
0.000430312
0.00042824
0.000426427
0.000424612
0.00042304
0.000421446
0.000420075
0.000418666
0.000417465
0.000416214
0.000415161
0.000414046
0.000413122
0.000412127
0.000411313
0.000410423
0.000409704
0.000408906
0.000408273
0.000407557
0.000406998
0.000406358
0.000405867
0.000405293
0.000404858
0.000404344
0.000403967
0.000403502
0.000403171
0.000402756
0.00040247
0.000402089
0.000401846
0.000401508
0.000401294
0.000400991
0.000400802
0.000400535
0.000400369
0.000400134
0.000399983
0.000399778
0.000399646
0.000399459
0.000399342
0.000399176
0.00039908
0.000398937
0.000398863
0.000398742
0.000398689
0.000398591
0.000398563
0.000398502
0.000398522
0.000398516
0.000398586
0.000398594
0.000398702
0.000398714
0.000398909
0.000398917
0.000403046
0.0111524
0.012132
0.0010246
0.000932461
0.00085417
0.000788415
0.000734059
0.000689648
0.000653199
0.0006232
0.000598124
0.000577079
0.000559092
0.000543717
0.000530308
0.000518687
0.000508371
0.000499334
0.000491192
0.000484006
0.000477446
0.000471629
0.00046625
0.000461468
0.000456995
0.000453011
0.000449244
0.000445888
0.000442686
0.000439836
0.000437083
0.000434648
0.000432269
0.000430171
0.000428097
0.000426282
0.000424467
0.000422893
0.000421299
0.000419926
0.000418516
0.000417315
0.000416062
0.000415009
0.000413893
0.000412969
0.000411973
0.000411158
0.000410267
0.000409547
0.000408749
0.000408115
0.000407399
0.00040684
0.000406199
0.000405708
0.000405133
0.000404697
0.000404183
0.000403805
0.00040334
0.000403009
0.000402593
0.000402307
0.000401926
0.000401682
0.000401344
0.00040113
0.000400826
0.000400637
0.00040037
0.000400204
0.000399968
0.000399817
0.000399611
0.00039948
0.000399292
0.000399175
0.000399009
0.000398913
0.000398769
0.000398695
0.000398573
0.00039852
0.000398421
0.000398393
0.000398332
0.000398351
0.000398345
0.000398414
0.000398422
0.000398529
0.000398541
0.000398735
0.000398743
0.000402897
0.011207
0.012196
0.00102459
0.000932465
0.000854178
0.000788419
0.000734054
0.000689629
0.000653166
0.000623152
0.000598062
0.000577004
0.000559006
0.000543621
0.000530203
0.000518573
0.000508249
0.000499206
0.000491057
0.000483866
0.000477301
0.000471479
0.000466097
0.00046131
0.000456834
0.000452846
0.000449076
0.000445718
0.000442513
0.000439661
0.000436906
0.000434468
0.000432087
0.000429987
0.000427912
0.000426096
0.000424278
0.000422703
0.000421107
0.000419733
0.000418322
0.00041712
0.000415866
0.000414812
0.000413694
0.000412769
0.000411772
0.000410957
0.000410065
0.000409344
0.000408545
0.000407911
0.000407194
0.000406634
0.000405992
0.000405501
0.000404926
0.000404489
0.000403974
0.000403596
0.000403131
0.000402799
0.000402382
0.000402095
0.000401714
0.00040147
0.000401132
0.000400916
0.000400613
0.000400423
0.000400155
0.000399989
0.000399753
0.000399601
0.000399396
0.000399264
0.000399076
0.000398959
0.000398792
0.000398695
0.000398552
0.000398477
0.000398355
0.000398301
0.000398202
0.000398174
0.000398112
0.000398129
0.000398123
0.000398192
0.000398199
0.000398305
0.000398316
0.00039851
0.000398517
0.000402704
0.0112777
0.0122788
0.00102459
0.000932469
0.000854187
0.000788425
0.000734048
0.000689607
0.000653125
0.000623092
0.000597986
0.000576913
0.0005589
0.000543502
0.000530073
0.000518432
0.0005081
0.000499048
0.000490892
0.000483694
0.000477123
0.000471295
0.000465907
0.000461116
0.000456636
0.000452644
0.00044887
0.000445508
0.0004423
0.000439445
0.000436687
0.000434247
0.000431863
0.000429761
0.000427683
0.000425865
0.000424046
0.000422469
0.000420871
0.000419496
0.000418083
0.000416879
0.000415624
0.000414569
0.00041345
0.000412524
0.000411526
0.000410709
0.000409816
0.000409095
0.000408294
0.000407659
0.000406941
0.00040638
0.000405738
0.000405246
0.00040467
0.000404233
0.000403717
0.000403338
0.000402872
0.00040254
0.000402122
0.000401835
0.000401453
0.000401208
0.00040087
0.000400654
0.00040035
0.00040016
0.000399891
0.000399725
0.000399488
0.000399336
0.00039913
0.000398998
0.00039881
0.000398692
0.000398525
0.000398428
0.000398284
0.000398208
0.000398086
0.000398031
0.000397932
0.000397903
0.00039784
0.000397857
0.000397849
0.000397917
0.000397924
0.000398029
0.00039804
0.000398233
0.000398239
0.000402466
0.0113652
0.0123814
0.00102459
0.000932474
0.000854198
0.000788432
0.000734041
0.00068958
0.000653076
0.000623022
0.000597896
0.000576804
0.000558774
0.000543361
0.000529918
0.000518265
0.000507922
0.00049886
0.000490695
0.000483489
0.000476911
0.000471076
0.000465682
0.000460885
0.000456399
0.000452403
0.000448624
0.000445258
0.000442046
0.000439188
0.000436426
0.000433983
0.000431597
0.000429492
0.000427412
0.000425591
0.000423769
0.00042219
0.000420591
0.000419213
0.000417798
0.000416593
0.000415336
0.000414279
0.000413159
0.000412231
0.000411232
0.000410414
0.00040952
0.000408797
0.000407995
0.00040736
0.00040664
0.000406079
0.000405435
0.000404942
0.000404365
0.000403927
0.000403411
0.000403031
0.000402564
0.000402231
0.000401813
0.000401525
0.000401142
0.000400897
0.000400557
0.000400341
0.000400036
0.000399846
0.000399577
0.00039941
0.000399173
0.00039902
0.000398814
0.000398681
0.000398492
0.000398374
0.000398206
0.000398109
0.000397964
0.000397888
0.000397765
0.00039771
0.00039761
0.00039758
0.000397516
0.000397532
0.000397524
0.00039759
0.000397596
0.0003977
0.00039771
0.000397902
0.000397908
0.000402183
0.0114701
0.0125046
0.00102459
0.000932479
0.000854211
0.00078844
0.000734033
0.00068955
0.000653021
0.000622941
0.000597791
0.000576677
0.000558628
0.000543198
0.000529739
0.000518072
0.000507716
0.000498642
0.000490467
0.000483251
0.000476664
0.000470821
0.00046542
0.000460617
0.000456125
0.000452122
0.000448339
0.000444968
0.000441752
0.000438889
0.000436124
0.000433677
0.000431287
0.000429179
0.000427095
0.000425272
0.000423448
0.000421866
0.000420264
0.000418884
0.000417467
0.00041626
0.000415001
0.000413942
0.00041282
0.000411891
0.00041089
0.00041007
0.000409175
0.000408451
0.000407648
0.000407011
0.00040629
0.000405727
0.000405083
0.000404589
0.00040401
0.000403572
0.000403054
0.000402674
0.000402206
0.000401872
0.000401453
0.000401164
0.00040078
0.000400534
0.000400194
0.000399977
0.000399672
0.000399481
0.000399211
0.000399043
0.000398806
0.000398653
0.000398445
0.000398312
0.000398123
0.000398004
0.000397836
0.000397737
0.000397592
0.000397515
0.000397392
0.000397336
0.000397235
0.000397205
0.000397139
0.000397154
0.000397145
0.00039721
0.000397215
0.000397317
0.000397327
0.000397517
0.000397522
0.000401855
0.0115932
0.0126494
0.00102459
0.000932485
0.000854225
0.00078845
0.000734025
0.000689515
0.000652957
0.00062285
0.000597672
0.000576534
0.000558462
0.000543011
0.000529534
0.000517851
0.00050748
0.000498393
0.000490206
0.00048298
0.000476383
0.000470531
0.000465121
0.00046031
0.000455811
0.000451803
0.000448013
0.000444637
0.000441415
0.000438548
0.000435778
0.000433327
0.000430933
0.000428821
0.000426734
0.000424908
0.00042308
0.000421496
0.000419891
0.000418509
0.000417089
0.00041588
0.000414618
0.000413558
0.000412433
0.000411503
0.000410499
0.000409678
0.000408781
0.000408056
0.000407251
0.000406612
0.00040589
0.000405326
0.00040468
0.000404185
0.000403605
0.000403166
0.000402647
0.000402265
0.000401796
0.000401462
0.000401041
0.000400752
0.000400367
0.00040012
0.000399779
0.000399562
0.000399255
0.000399063
0.000398793
0.000398624
0.000398386
0.000398232
0.000398025
0.000397891
0.000397701
0.000397582
0.000397412
0.000397313
0.000397167
0.00039709
0.000396965
0.000396909
0.000396807
0.000396776
0.000396709
0.000396722
0.000396711
0.000396775
0.00039678
0.00039688
0.000396889
0.000397078
0.000397082
0.000401481
0.0117348
0.0128167
0.00102458
0.000932492
0.000854242
0.000788461
0.000734016
0.000689477
0.000652887
0.000622747
0.000597539
0.000576372
0.000558276
0.000542802
0.000529305
0.000517603
0.000507216
0.000498114
0.000489913
0.000482674
0.000476066
0.000470204
0.000464785
0.000459966
0.000455459
0.000451443
0.000447647
0.000444264
0.000441036
0.000438163
0.000435388
0.000432933
0.000430534
0.000428419
0.000426328
0.000424498
0.000422667
0.000421079
0.000419471
0.000418086
0.000416663
0.000415451
0.000414187
0.000413124
0.000411998
0.000411065
0.000410059
0.000409236
0.000408337
0.00040761
0.000406803
0.000406164
0.00040544
0.000404874
0.000404227
0.00040373
0.000403149
0.000402708
0.000402188
0.000401805
0.000401335
0.000400999
0.000400578
0.000400287
0.000399902
0.000399654
0.000399311
0.000399093
0.000398786
0.000398593
0.000398322
0.000398153
0.000397914
0.000397759
0.000397551
0.000397416
0.000397225
0.000397106
0.000396935
0.000396836
0.000396688
0.00039661
0.000396485
0.000396427
0.000396324
0.000396293
0.000396224
0.000396236
0.000396223
0.000396285
0.000396289
0.000396388
0.000396395
0.000396583
0.000396586
0.00040106
0.0118952
0.0130073
0.00102458
0.0009325
0.00085426
0.000788473
0.000734006
0.000689435
0.000652809
0.000622633
0.000597392
0.000576194
0.000558069
0.00054257
0.00052905
0.000517328
0.000506922
0.000497803
0.000489588
0.000482335
0.000475714
0.000469841
0.000464411
0.000459582
0.000455066
0.000451042
0.000447238
0.000443849
0.000440615
0.000437736
0.000434955
0.000432494
0.000430091
0.000427971
0.000425875
0.000424041
0.000422206
0.000420615
0.000419003
0.000417615
0.000416189
0.000414974
0.000413707
0.000412642
0.000411512
0.000410577
0.000409569
0.000408744
0.000407843
0.000407114
0.000406305
0.000405664
0.000404938
0.000404371
0.000403721
0.000403223
0.000402641
0.000402199
0.000401677
0.000401293
0.000400821
0.000400484
0.000400061
0.00039977
0.000399383
0.000399134
0.00039879
0.000398571
0.000398263
0.000398069
0.000397797
0.000397627
0.000397387
0.000397232
0.000397022
0.000396887
0.000396696
0.000396575
0.000396404
0.000396303
0.000396155
0.000396076
0.000395949
0.000395891
0.000395787
0.000395754
0.000395684
0.000395694
0.00039568
0.000395739
0.000395742
0.000395839
0.000395846
0.000396031
0.000396033
0.000400593
0.0120745
0.013222
0.00102458
0.000932508
0.00085428
0.000788488
0.000733996
0.00068939
0.000652724
0.000622509
0.00059723
0.000575998
0.000557842
0.000542315
0.00052877
0.000517025
0.000506598
0.000497461
0.000489229
0.000481961
0.000475326
0.00046944
0.000463999
0.000459159
0.000454634
0.000450601
0.000446788
0.000443391
0.00044015
0.000437264
0.000434477
0.000432011
0.000429601
0.000427476
0.000425376
0.000423537
0.000421698
0.000420103
0.000418487
0.000417095
0.000415666
0.000414448
0.000413177
0.000412109
0.000410977
0.000410039
0.000409029
0.000408201
0.000407297
0.000406566
0.000405755
0.000405112
0.000404384
0.000403815
0.000403164
0.000402664
0.00040208
0.000401636
0.000401112
0.000400727
0.000400254
0.000399916
0.000399491
0.000399199
0.00039881
0.00039856
0.000398215
0.000397995
0.000397685
0.000397491
0.000397217
0.000397046
0.000396805
0.000396649
0.000396439
0.000396303
0.000396111
0.000395989
0.000395817
0.000395715
0.000395566
0.000395486
0.000395358
0.000395299
0.000395193
0.000395159
0.000395088
0.000395095
0.00039508
0.000395137
0.000395139
0.000395233
0.000395239
0.000395422
0.000395423
0.000400078
0.0122726
0.0134618
0.00102457
0.000932517
0.000854302
0.000788503
0.000733985
0.000689341
0.000652633
0.000622374
0.000597055
0.000575785
0.000557595
0.000542037
0.000528464
0.000516694
0.000506245
0.000497088
0.000488837
0.000481552
0.000474902
0.000469003
0.000463549
0.000458697
0.000454161
0.000450118
0.000446296
0.00044289
0.000439641
0.000436748
0.000433954
0.000431481
0.000429066
0.000426935
0.000424829
0.000422986
0.000421141
0.000419542
0.000417921
0.000416526
0.000415093
0.000413871
0.000412597
0.000411526
0.000410391
0.00040945
0.000408436
0.000407607
0.0004067
0.000405967
0.000405153
0.000404508
0.000403777
0.000403207
0.000402553
0.000402052
0.000401465
0.00040102
0.000400494
0.000400108
0.000399632
0.000399293
0.000398866
0.000398573
0.000398183
0.000397931
0.000397585
0.000397364
0.000397053
0.000396857
0.000396583
0.00039641
0.000396168
0.000396012
0.0003958
0.000395664
0.00039547
0.000395348
0.000395174
0.000395071
0.000394921
0.000394839
0.00039471
0.00039465
0.000394543
0.000394508
0.000394435
0.00039444
0.000394422
0.000394476
0.000394478
0.000394569
0.000394574
0.000394754
0.000394755
0.000399515
0.012489
0.0137271
0.00102457
0.000932527
0.000854327
0.000788521
0.000733975
0.000689289
0.000652534
0.000622228
0.000596865
0.000575554
0.000557327
0.000541736
0.000528132
0.000516335
0.000505862
0.000496683
0.000488412
0.000481109
0.000474442
0.000468527
0.000463059
0.000458195
0.000453647
0.000449593
0.000445761
0.000442346
0.000439088
0.000436187
0.000433386
0.000430906
0.000428484
0.000426347
0.000424235
0.000422386
0.000420536
0.000418932
0.000417307
0.000415907
0.00041447
0.000413244
0.000411967
0.000410892
0.000409753
0.000408809
0.000407792
0.00040696
0.00040605
0.000405314
0.000404498
0.00040385
0.000403117
0.000402545
0.000401888
0.000401385
0.000400796
0.00040035
0.000399821
0.000399433
0.000398956
0.000398615
0.000398187
0.000397892
0.0003975
0.000397247
0.0003969
0.000396677
0.000396365
0.000396168
0.000395892
0.000395719
0.000395475
0.000395318
0.000395105
0.000394968
0.000394773
0.000394649
0.000394474
0.000394371
0.000394218
0.000394136
0.000394005
0.000393944
0.000393836
0.000393799
0.000393725
0.000393727
0.000393707
0.000393758
0.000393758
0.000393846
0.00039385
0.000394028
0.000394028
0.000398903
0.012723
0.0140188
0.00102456
0.000932537
0.000854353
0.00078854
0.000733964
0.000689234
0.000652429
0.000622073
0.000596661
0.000575306
0.000557039
0.000541411
0.000527775
0.000515949
0.000505449
0.000496245
0.000487953
0.00048063
0.000473945
0.000468014
0.000462531
0.000457653
0.000453091
0.000449026
0.000445183
0.000441758
0.00043849
0.000435581
0.000432771
0.000430283
0.000427854
0.000425711
0.000423592
0.000421738
0.000419882
0.000418273
0.000416642
0.000415238
0.000413796
0.000412566
0.000411284
0.000410206
0.000409063
0.000408116
0.000407096
0.00040626
0.000405347
0.000404609
0.000403789
0.000403139
0.000402403
0.000401828
0.00040117
0.000400664
0.000400073
0.000399624
0.000399094
0.000398704
0.000398224
0.000397882
0.000397452
0.000397155
0.000396762
0.000396507
0.000396158
0.000395934
0.00039562
0.000395422
0.000395144
0.00039497
0.000394725
0.000394566
0.000394353
0.000394214
0.000394018
0.000393893
0.000393717
0.000393612
0.000393458
0.000393375
0.000393243
0.00039318
0.00039307
0.000393032
0.000392956
0.000392956
0.000392932
0.00039298
0.00039298
0.000393064
0.000393067
0.000393242
0.000393241
0.000398242
0.0129735
0.0143374
0.00102456
0.000932548
0.000854381
0.000788561
0.000733954
0.000689176
0.000652317
0.000621907
0.000596444
0.000575041
0.000556731
0.000541064
0.000527392
0.000515534
0.000505006
0.000495776
0.00048746
0.000480116
0.000473412
0.000467462
0.000461963
0.00045707
0.000452495
0.000448416
0.000444562
0.000441126
0.000437848
0.000434929
0.00043211
0.000429614
0.000427177
0.000425026
0.000422901
0.00042104
0.000419178
0.000417563
0.000415927
0.000414518
0.000413071
0.000411837
0.00041055
0.000409468
0.000408321
0.00040737
0.000406346
0.000405507
0.00040459
0.000403849
0.000403026
0.000402373
0.000401635
0.000401057
0.000400396
0.000399888
0.000399294
0.000398844
0.00039831
0.000397919
0.000397437
0.000397093
0.00039666
0.000396362
0.000395966
0.000395711
0.000395359
0.000395134
0.000394818
0.000394618
0.000394339
0.000394164
0.000393917
0.000393758
0.000393542
0.000393403
0.000393205
0.00039308
0.000392902
0.000392796
0.00039264
0.000392555
0.000392421
0.000392357
0.000392246
0.000392206
0.000392128
0.000392125
0.000392099
0.000392143
0.000392142
0.000392222
0.000392224
0.000392396
0.000392394
0.000397531
0.013239
0.0146833
0.00102455
0.00093256
0.000854411
0.000788585
0.000733944
0.000689115
0.0006522
0.000621731
0.000596213
0.000574759
0.000556402
0.000540694
0.000526984
0.000515092
0.000504532
0.000495275
0.000486933
0.000479566
0.000472841
0.000466872
0.000461355
0.000456446
0.000451856
0.000447764
0.000443897
0.000440449
0.00043716
0.000434231
0.000431402
0.000428898
0.000426452
0.000424293
0.000422161
0.000420293
0.000418424
0.000416803
0.000415161
0.000413746
0.000412294
0.000411055
0.000409763
0.000408677
0.000407525
0.00040657
0.000405542
0.0004047
0.000403779
0.000403035
0.000402209
0.000401553
0.000400811
0.000400231
0.000399566
0.000399056
0.000398459
0.000398007
0.000397471
0.000397077
0.000396593
0.000396247
0.000395811
0.000395512
0.000395114
0.000394856
0.000394503
0.000394276
0.000393958
0.000393757
0.000393476
0.000393299
0.000393052
0.000392891
0.000392674
0.000392533
0.000392334
0.000392207
0.000392028
0.00039192
0.000391763
0.000391676
0.000391541
0.000391475
0.000391361
0.00039132
0.000391241
0.000391235
0.000391205
0.000391246
0.000391243
0.00039132
0.00039132
0.000391489
0.000391486
0.000396769
0.0135176
0.0150567
0.00102454
0.000932572
0.000854443
0.00078861
0.000733934
0.000689053
0.000652076
0.000621546
0.000595969
0.000574461
0.000556054
0.0005403
0.00052655
0.000514621
0.000504029
0.000494742
0.000486373
0.000478981
0.000472233
0.000466244
0.000460708
0.000455781
0.000451176
0.000447069
0.000443188
0.000439727
0.000436426
0.000433486
0.000430647
0.000428133
0.000425678
0.000423512
0.000421371
0.000419496
0.00041762
0.000415992
0.000414344
0.000412923
0.000411464
0.000410221
0.000408924
0.000407832
0.000406676
0.000405717
0.000404684
0.000403838
0.000402914
0.000402166
0.000401336
0.000400677
0.000399932
0.000399349
0.00039868
0.000398168
0.000397568
0.000397113
0.000396574
0.000396178
0.000395691
0.000395343
0.000394905
0.000394604
0.000394204
0.000393944
0.000393589
0.00039336
0.00039304
0.000392838
0.000392555
0.000392376
0.000392127
0.000391964
0.000391746
0.000391605
0.000391404
0.000391275
0.000391094
0.000390985
0.000390826
0.000390738
0.0003906
0.000390532
0.000390417
0.000390374
0.000390293
0.000390284
0.000390251
0.000390287
0.000390284
0.000390355
0.000390355
0.000390521
0.000390516
0.000395954
0.0138068
0.0154576
0.00102454
0.000932584
0.000854477
0.000788638
0.000733925
0.000688988
0.000651947
0.000621351
0.000595712
0.000574145
0.000555686
0.000539884
0.000526091
0.000514123
0.000503495
0.000494176
0.000485778
0.00047836
0.000471588
0.000465577
0.000460021
0.000455076
0.000450453
0.00044633
0.000442435
0.000438961
0.000435647
0.000432695
0.000429845
0.000427321
0.000424856
0.000422681
0.000420531
0.000418648
0.000416765
0.00041513
0.000413474
0.000412047
0.000410583
0.000409333
0.000408031
0.000406934
0.000405773
0.000404809
0.000403772
0.000402922
0.000401993
0.000401241
0.000400407
0.000399745
0.000398996
0.00039841
0.000397738
0.000397223
0.00039662
0.000396162
0.00039562
0.000395222
0.000394732
0.000394382
0.000393941
0.000393638
0.000393235
0.000392973
0.000392616
0.000392385
0.000392063
0.000391859
0.000391574
0.000391394
0.000391143
0.000390979
0.000390759
0.000390616
0.000390413
0.000390284
0.0003901
0.00038999
0.000389828
0.000389739
0.000389599
0.00038953
0.000389412
0.000389367
0.000389284
0.000389273
0.000389235
0.000389268
0.000389263
0.00038933
0.000389327
0.000389491
0.000389485
0.000395087
0.0141038
0.0158858
0.00102453
0.000932597
0.000854513
0.000788668
0.000733917
0.000688921
0.000651812
0.000621147
0.000595442
0.000573814
0.000555298
0.000539446
0.000525607
0.000513597
0.000502932
0.000493579
0.00048515
0.000477704
0.000470906
0.000464872
0.000459294
0.000454329
0.000449688
0.000445548
0.000441637
0.000438149
0.000434821
0.000431857
0.000428995
0.00042646
0.000423985
0.0004218
0.000419641
0.00041775
0.000415858
0.000414216
0.000412553
0.000411119
0.000409648
0.000408393
0.000407084
0.000405982
0.000404815
0.000403847
0.000402804
0.00040195
0.000401016
0.000400261
0.000399423
0.000398757
0.000398004
0.000397414
0.000396739
0.00039622
0.000395614
0.000395154
0.000394608
0.000394207
0.000393714
0.000393362
0.000392918
0.000392613
0.000392208
0.000391944
0.000391583
0.000391351
0.000391027
0.000390821
0.000390534
0.000390352
0.000390098
0.000389933
0.000389711
0.000389567
0.000389363
0.000389232
0.000389046
0.000388934
0.00038877
0.000388679
0.000388537
0.000388466
0.000388346
0.000388299
0.000388214
0.000388199
0.000388158
0.000388187
0.000388179
0.000388241
0.000388238
0.000388398
0.00038839
0.000394165
0.014405
0.0163406
0.00102452
0.00093261
0.000854551
0.0007887
0.00073391
0.000688852
0.000651672
0.000620934
0.000595159
0.000573467
0.000554892
0.000538985
0.000525097
0.000513044
0.000502339
0.000492949
0.000484488
0.000477012
0.000470187
0.000464127
0.000458527
0.000453541
0.00044888
0.000444723
0.000440795
0.000437291
0.000433949
0.000430972
0.000428098
0.000425551
0.000423065
0.00042087
0.000418701
0.000416801
0.0004149
0.00041325
0.000411579
0.000410139
0.00040866
0.000407398
0.000406083
0.000404976
0.000403803
0.00040283
0.000401781
0.000400922
0.000399984
0.000399224
0.000398381
0.000397712
0.000396954
0.000396362
0.000395682
0.00039516
0.00039455
0.000394087
0.000393538
0.000393135
0.000392638
0.000392283
0.000391837
0.000391529
0.000391121
0.000390855
0.000390492
0.000390257
0.000389931
0.000389722
0.000389433
0.000389249
0.000388994
0.000388827
0.000388603
0.000388458
0.000388251
0.000388119
0.000387931
0.000387817
0.000387651
0.000387558
0.000387413
0.00038734
0.000387218
0.000387169
0.000387081
0.000387064
0.000387018
0.000387043
0.000387033
0.000387091
0.000387085
0.000387242
0.000387232
0.000393188
0.0147064
0.0168209
0.00102451
0.000932624
0.000854591
0.000788735
0.000733905
0.000688782
0.000651528
0.000620713
0.000594865
0.000573103
0.000554466
0.000538503
0.000524563
0.000512463
0.000501716
0.000492288
0.000483792
0.000476284
0.000469431
0.000463345
0.00045772
0.000452711
0.00044803
0.000443854
0.000439908
0.000436388
0.000433031
0.00043004
0.000427152
0.000424593
0.000422095
0.000419889
0.00041771
0.0004158
0.00041389
0.000412232
0.000410552
0.000409104
0.000407618
0.00040635
0.000405028
0.000403915
0.000402735
0.000401757
0.000400703
0.000399839
0.000398895
0.000398131
0.000397283
0.000396609
0.000395847
0.000395251
0.000394567
0.000394042
0.000393428
0.000392962
0.000392409
0.000392003
0.000391503
0.000391146
0.000390695
0.000390385
0.000389974
0.000389706
0.00038934
0.000389103
0.000388774
0.000388564
0.000388272
0.000388086
0.000387828
0.00038766
0.000387434
0.000387287
0.000387079
0.000386944
0.000386754
0.000386638
0.00038647
0.000386375
0.000386228
0.000386152
0.000386028
0.000385976
0.000385886
0.000385866
0.000385816
0.000385836
0.000385824
0.000385876
0.000385868
0.000386022
0.000386011
0.000392154
0.0150035
0.0173251
0.00102451
0.000932638
0.000854633
0.000788773
0.0007339
0.000688711
0.000651379
0.000620484
0.000594558
0.000572725
0.000554022
0.000537998
0.000524005
0.000511855
0.000501063
0.000491596
0.000483063
0.000475522
0.000468637
0.000462523
0.000456873
0.000451841
0.000447138
0.000442941
0.000438977
0.00043544
0.000432066
0.00042906
0.000426158
0.000423586
0.000421076
0.000418859
0.000416668
0.000414749
0.000412829
0.000411161
0.000409473
0.000408017
0.000406523
0.000405247
0.000403918
0.000402799
0.000401612
0.000400628
0.000399568
0.000398699
0.00039775
0.000396981
0.000396128
0.00039545
0.000394683
0.000394083
0.000393394
0.000392866
0.000392247
0.000391778
0.000391221
0.000390812
0.000390308
0.000389948
0.000389494
0.000389182
0.000388767
0.000388496
0.000388127
0.000387888
0.000387557
0.000387344
0.00038705
0.000386862
0.000386602
0.000386432
0.000386204
0.000386055
0.000385844
0.000385708
0.000385515
0.000385398
0.000385227
0.000385129
0.00038498
0.000384902
0.000384775
0.000384721
0.000384628
0.000384605
0.000384551
0.000384567
0.000384552
0.000384599
0.000384587
0.000384739
0.000384725
0.000391061
0.015291
0.0178509
0.0010245
0.000932652
0.000854677
0.000788813
0.000733898
0.00068864
0.000651226
0.000620248
0.000594241
0.000572332
0.000553559
0.000537473
0.000523422
0.00051122
0.000500382
0.000490871
0.0004823
0.000474724
0.000467807
0.000461664
0.000455986
0.000450929
0.000446203
0.000441985
0.000438001
0.000434446
0.000431055
0.000428033
0.000425116
0.000422531
0.000420007
0.000417778
0.000415576
0.000413646
0.000411715
0.000410038
0.00040834
0.000406876
0.000405373
0.000404091
0.000402753
0.000401627
0.000400434
0.000399444
0.000398377
0.000397503
0.000396547
0.000395774
0.000394915
0.000394232
0.000393461
0.000392856
0.000392163
0.000391631
0.000391008
0.000390535
0.000389974
0.000389561
0.000389054
0.000388691
0.000388233
0.000387918
0.0003875
0.000387226
0.000386854
0.000386613
0.000386278
0.000386063
0.000385766
0.000385576
0.000385313
0.000385141
0.000384911
0.000384761
0.000384547
0.000384409
0.000384214
0.000384095
0.000383921
0.000383821
0.000383669
0.000383589
0.000383459
0.000383403
0.000383306
0.00038328
0.000383222
0.000383233
0.000383215
0.000383257
0.000383243
0.000383391
0.000383375
0.000389907
0.0155634
0.018395
0.00102449
0.000932667
0.000854723
0.000788856
0.000733898
0.000688568
0.00065107
0.000620004
0.000593913
0.000571924
0.000553079
0.000536926
0.000522815
0.000510559
0.000499672
0.000490116
0.000481504
0.000473891
0.00046694
0.000460766
0.000455059
0.000449976
0.000445226
0.000440986
0.000436981
0.000433406
0.000429997
0.000426959
0.000424026
0.000421426
0.000418889
0.000416647
0.000414433
0.000412491
0.00041055
0.000408862
0.000407155
0.000405682
0.00040417
0.000402879
0.000401534
0.000400401
0.0003992
0.000398203
0.00039713
0.000396249
0.000395288
0.000394509
0.000393644
0.000392957
0.00039218
0.000391571
0.000390873
0.000390337
0.000389709
0.000389232
0.000388667
0.000388251
0.000387739
0.000387373
0.000386912
0.000386594