/*--------------------------------*- C++ -*----------------------------------*\
| =========                 |                                                 |
| \\      /  F ield         | OpenFOAM: The Open Source CFD Toolbox           |
|  \\    /   O peration     | Version:  v2012                                 |
|   \\  /    A nd           | Website:  www.openfoam.com                      |
|    \\/     M anipulation  |                                                 |
\*---------------------------------------------------------------------------*/
FoamFile
{
    version     2.0;
    format      ascii;
    class       volScalarField;
    location    "40.5";
    object      yPlus;
}
// * * * * * * * * * * * * * * * * * * * * * * * * * * * * * * * * * * * * * //

dimensions      [0 0 0 0 0 0 0];


internalField   uniform 0;

boundaryField
{
    inlet
    {
        type            calculated;
        value           uniform 0;
    }
    outlet
    {
        type            calculated;
        value           uniform 0;
    }
    topWall
    {
        type            calculated;
        value           nonuniform List<scalar> 
545
(
0.150151
0.258941
0.332195
0.39048
0.439817
0.482982
0.521533
0.55645
0.588402
0.617868
0.645208
0.6707
0.694566
0.716984
0.738102
0.758046
0.77692
0.794816
0.811812
0.827977
0.843372
0.858051
0.872063
0.885452
0.898255
0.910509
0.922247
0.933498
0.944289
0.954646
0.964591
0.974146
0.983331
0.992165
1.00066
1.00884
1.01672
1.02431
1.03162
1.03867
1.04547
1.05203
1.05835
1.06446
1.07035
1.07604
1.08154
1.08685
1.09198
1.09695
1.10174
1.10638
1.11086
1.1152
1.1194
1.12346
1.12739
1.1312
1.13488
1.13845
1.14191
1.14525
1.1485
1.15164
1.15468
1.15763
1.16049
1.16326
1.16595
1.16856
1.17108
1.17353
1.17588
1.17815
1.1804
1.18263
1.18484
1.18704
1.18922
1.19138
1.19352
1.19565
1.19776
1.19985
1.20192
1.20398
1.20603
1.20805
1.21006
1.21206
1.21404
1.216
1.21795
1.21988
1.2218
1.2237
1.22542
1.22695
1.22848
1.23001
1.23154
1.23307
1.23461
1.23614
1.23766
1.23919
1.24072
1.24225
1.24378
1.2453
1.24683
1.24836
1.24988
1.25141
1.25293
1.25445
1.25598
1.2575
1.25902
1.26054
1.26206
1.26358
1.2651
1.26662
1.26814
1.26966
1.27117
1.27269
1.2742
1.27572
1.27723
1.27874
1.28025
1.28177
1.28328
1.28479
1.28629
1.2878
1.28931
1.29082
1.29232
1.29383
1.29533
1.29683
1.29833
1.29983
1.30133
1.30283
1.30433
1.30583
1.30732
1.30882
1.31031
1.3118
1.3133
1.31479
1.31628
1.31777
1.31925
1.32074
1.32222
1.32371
1.32519
1.32667
1.32815
1.32963
1.33111
1.33259
1.33406
1.33554
1.33701
1.33848
1.33995
1.34142
1.34289
1.34435
1.34582
1.34728
1.34874
1.3502
1.35166
1.35312
1.35458
1.35603
1.35749
1.35894
1.36039
1.36184
1.36328
1.36473
1.36617
1.36762
1.36906
1.3705
1.37193
1.37337
1.3748
1.37624
1.37767
1.3791
1.38052
1.38195
1.38337
1.38479
1.38621
1.38763
1.38905
1.39046
1.39187
1.39328
1.39469
1.3961
1.3975
1.39891
1.40031
1.40171
1.4031
1.4045
1.40589
1.40728
1.40867
1.41005
1.41144
1.41282
1.4142
1.41558
1.41695
1.41832
1.4197
1.42106
1.42243
1.42379
1.42515
1.42651
1.42787
1.42923
1.43058
1.43193
1.43327
1.43462
1.43596
1.4373
1.43864
1.43997
1.4413
1.44263
1.44396
1.44528
1.4466
1.44792
1.44924
1.45055
1.45186
1.45317
1.45448
1.45578
1.45708
1.45837
1.45967
1.46096
1.46225
1.46353
1.46481
1.46609
1.46737
1.46864
1.46991
1.47118
1.47245
1.47364
1.47476
1.47589
1.47703
1.47817
1.47932
1.48048
1.48165
1.48282
1.484
1.48519
1.48638
1.48759
1.4888
1.49001
1.49123
1.49247
1.4937
1.49495
1.4962
1.49745
1.49872
1.49999
1.50127
1.50255
1.50384
1.50514
1.50644
1.50775
1.50906
1.51038
1.51171
1.51304
1.51438
1.51572
1.51707
1.51843
1.51979
1.52115
1.52252
1.5239
1.52528
1.52666
1.52805
1.52945
1.53085
1.53225
1.53365
1.53506
1.53648
1.5379
1.53932
1.54074
1.54217
1.5436
1.54503
1.54646
1.5479
1.54934
1.55078
1.55222
1.55366
1.55511
1.55655
1.558
1.55944
1.56089
1.56233
1.56378
1.56523
1.56667
1.56811
1.56955
1.57099
1.57243
1.57387
1.5753
1.57673
1.57815
1.57958
1.581
1.58241
1.58382
1.58522
1.58662
1.58802
1.5894
1.59078
1.59216
1.59353
1.59489
1.59624
1.59758
1.59891
1.60024
1.60155
1.60286
1.60415
1.60544
1.60671
1.60797
1.60922
1.61046
1.61168
1.61289
1.61408
1.61526
1.61643
1.61758
1.61871
1.61983
1.62093
1.62201
1.62308
1.62413
1.62515
1.62616
1.62715
1.62812
1.62907
1.62999
1.6309
1.63178
1.63264
1.63347
1.63428
1.63507
1.63583
1.63657
1.63728
1.63797
1.63863
1.63926
1.63986
1.64044
1.64098
1.6415
1.64199
1.64244
1.64287
1.64327
1.64363
1.64397
1.64427
1.64453
1.64477
1.64497
1.64514
1.64528
1.64537
1.64544
1.64547
1.64547
1.64542
1.64535
1.64524
1.64509
1.6449
1.64468
1.64442
1.64413
1.64379
1.64342
1.64301
1.64257
1.64209
1.64157
1.64101
1.64041
1.63978
1.63911
1.6384
1.63766
1.63687
1.63605
1.63519
1.6343
1.63337
1.6324
1.6314
1.63036
1.62916
1.62781
1.62642
1.625
1.62356
1.62209
1.62059
1.61907
1.61753
1.61597
1.61439
1.6128
1.61119
1.60958
1.60794
1.60631
1.60466
1.60301
1.60135
1.59969
1.59802
1.59635
1.59468
1.59302
1.59135
1.58969
1.58803
1.58638
1.58472
1.58308
1.58145
1.57982
1.5782
1.5766
1.575
1.57342
1.57184
1.57029
1.56874
1.56721
1.5657
1.5642
1.56271
1.56125
1.5598
1.55838
1.55696
1.55558
1.5542
1.55286
1.55153
1.55022
1.54894
1.54768
1.54644
1.54523
1.54403
1.54287
1.54173
1.54062
1.53953
1.53847
1.53743
1.53642
1.53544
1.53449
1.53356
1.53267
1.5318
1.53097
1.53016
1.52939
1.52864
1.52792
1.52724
1.52659
1.52596
1.52537
1.52481
1.52429
1.52379
1.52333
1.52291
1.52251
1.52215
1.52182
1.52153
1.52126
1.52104
1.52084
1.52068
1.52055
1.52046
1.52041
1.52036
)
;
    }
    bottomWall
    {
        type            calculated;
        value           nonuniform List<scalar> 
449
(
0.00273809
0.00480226
0.00537659
0.00532922
0.00525802
0.00516187
0.00506435
0.0049731
0.00488936
0.00481285
0.00474283
0.00467865
0.00461957
0.0045649
0.00451408
0.00446674
0.00442243
0.00438088
0.00434174
0.00430479
0.00426981
0.00423665
0.0042051
0.00417505
0.00414637
0.00411893
0.00409266
0.00406745
0.00404323
0.00401992
0.00399748
0.00397584
0.00395494
0.00393475
0.00391522
0.00389631
0.00387798
0.00386021
0.00384295
0.00382619
0.00380989
0.00379403
0.00377859
0.00376355
0.00374889
0.0037346
0.00372066
0.00370706
0.00369378
0.00368082
0.00366814
0.00365576
0.00364364
0.00363178
0.00362016
0.00360879
0.00359764
0.00358672
0.003576
0.00356549
0.00355516
0.00354503
0.00353507
0.0035253
0.00351568
0.00350624
0.00349694
0.0034878
0.0034788
0.00346995
0.00346124
0.00345266
0.0034442
0.00343588
0.00342768
0.0034196
0.00341163
0.00340377
0.00339603
0.00338839
0.00338085
0.00337342
0.00336608
0.00335885
0.0033517
0.00334465
0.00333768
0.00333081
0.00332401
0.0033173
0.00331067
0.00330412
0.00329765
0.00329125
0.00328493
0.00327868
0.0032725
0.00326639
0.00326034
0.00325437
0.00324845
0.0032426
0.00323681
0.00323109
0.00322542
0.00321981
0.00321426
0.00320876
0.00320332
0.00319793
0.00319259
0.00318731
0.00318208
0.0031769
0.00317176
0.00316668
0.00316164
0.00315664
0.0031517
0.00314679
0.00314193
0.00313712
0.00313235
0.00312762
0.00312292
0.00311827
0.00311366
0.00310909
0.00310456
0.00310006
0.0030956
0.00309118
0.00308679
0.00308244
0.00307812
0.00307384
0.00306959
0.00306538
0.00306119
0.00305704
0.00305292
0.00304884
0.00304477
0.00304075
0.00303675
0.00303279
0.00302884
0.00302494
0.00302105
0.0030172
0.00301337
0.00300957
0.0030058
0.00300205
0.00299833
0.00299463
0.00299096
0.00298732
0.0029837
0.0029801
0.00297653
0.00297298
0.00296945
0.00296595
0.00296247
0.00295901
0.00295558
0.00295216
0.00294877
0.0029454
0.00294205
0.00293872
0.00293542
0.00293231
0.00292939
0.00292645
0.00292352
0.00292057
0.00291761
0.00291464
0.00291167
0.00290869
0.0029057
0.0029027
0.00289969
0.00289667
0.00289365
0.00289061
0.00288758
0.00288452
0.00288147
0.0028784
0.00287533
0.00287225
0.00286916
0.00286606
0.00286296
0.00285985
0.00285673
0.0028536
0.00285047
0.00284733
0.00284418
0.00284103
0.00283787
0.0028347
0.00283152
0.00282834
0.00282515
0.00282196
0.00281876
0.00281556
0.00281234
0.00280913
0.0028059
0.00280267
0.00279943
0.0027962
0.00279295
0.0027897
0.00278644
0.00278318
0.00277991
0.00277664
0.00277336
0.00277008
0.0027668
0.00276351
0.00276021
0.00275691
0.00275361
0.00275031
0.002747
0.00274368
0.00274037
0.00273704
0.00273372
0.00273039
0.00272706
0.00272372
0.00272039
0.00271704
0.0027137
0.00271035
0.002707
0.00270365
0.0027003
0.00269693
0.00269358
0.00269021
0.00268686
0.00268348
0.00268013
0.00267675
0.00267339
0.00267001
0.00266664
0.00266326
0.00265989
0.00265651
0.00265313
0.00264975
0.00264638
0.00264299
0.00263961
0.00263623
0.00263285
0.00262947
0.00262608
0.0026227
0.00261932
0.00261594
0.00261255
0.00260917
0.00260579
0.00260241
0.00259902
0.00259565
0.00259226
0.00258889
0.00258551
0.00258213
0.00257875
0.00257538
0.002572
0.00256864
0.00256526
0.0025619
0.00255852
0.00255516
0.00255179
0.00254844
0.00254507
0.00254172
0.00253835
0.002535
0.00253164
0.0025283
0.00252494
0.00252161
0.00251825
0.00251492
0.00251158
0.00250825
0.00250491
0.0025016
0.00249826
0.00249495
0.00249162
0.00248832
0.002485
0.0024817
0.00247839
0.00247509
0.00247179
0.0024685
0.00246521
0.00246193
0.00245864
0.00245537
0.00245209
0.00244882
0.00244556
0.0024423
0.00243904
0.00243579
0.00243254
0.0024293
0.00242606
0.00242282
0.0024196
0.00241637
0.00241316
0.00240994
0.00240673
0.00240352
0.00240033
0.00239713
0.00239394
0.00239075
0.00238758
0.0023844
0.00238124
0.00237806
0.00237491
0.00237175
0.00236861
0.00236546
0.00236233
0.0023592
0.00235608
0.00235296
0.00234985
0.00234674
0.0023433
0.00233955
0.00233587
0.00233223
0.00232866
0.00232512
0.00232164
0.00231821
0.00231483
0.00231149
0.00230821
0.00230496
0.00230176
0.0022986
0.00229549
0.00229241
0.00228939
0.00228638
0.00228343
0.00228051
0.00227763
0.00227478
0.00227198
0.00226919
0.00226646
0.00226374
0.00226107
0.00225842
0.00225581
0.00225322
0.00225067
0.00224814
0.00224564
0.00224317
0.00224073
0.00223831
0.00223593
0.00223356
0.00223122
0.00222891
0.00222663
0.00222436
0.00222212
0.0022199
0.00221771
0.00221554
0.00221339
0.00221126
0.00220916
0.00220706
0.002205
0.00220295
0.00220093
0.00219891
0.00219693
0.00219495
0.00219301
0.00219107
0.00218916
0.00218725
0.00218538
0.0021835
0.00218166
0.00217982
0.00217801
0.0021762
0.00217443
0.00217265
0.00217091
0.00216915
0.00216744
0.00216571
0.00216403
0.00216233
0.00216068
0.002159
0.00215738
0.00215572
0.00215413
0.00215249
0.00215092
0.0021493
0.00214777
0.00214616
0.00214465
0.00214307
0.00214157
0.00214002
0.0021385
0.00213705
0.00213538
0.00213424
0.00213208
0.0021318
0.00212885
)
;
    }
    symmetry
    {
        type            symmetryPlane;
    }
    frontAndBack
    {
        type            empty;
    }
}


// ************************************************************************* //
