/*--------------------------------*- C++ -*----------------------------------*\
| =========                 |                                                 |
| \\      /  F ield         | OpenFOAM: The Open Source CFD Toolbox           |
|  \\    /   O peration     | Version:  v2012                                 |
|   \\  /    A nd           | Website:  www.openfoam.com                      |
|    \\/     M anipulation  |                                                 |
\*---------------------------------------------------------------------------*/
FoamFile
{
    version     2.0;
    format      ascii;
    class       volVectorField;
    location    "20.5";
    object      wallShearStress;
}
// * * * * * * * * * * * * * * * * * * * * * * * * * * * * * * * * * * * * * //

dimensions      [0 2 -2 0 0 0 0];


internalField   uniform (0 0 0);

boundaryField
{
    inlet
    {
        type            calculated;
        value           uniform (0 0 0);
    }
    outlet
    {
        type            calculated;
        value           uniform (0 0 0);
    }
    topWall
    {
        type            calculated;
        value           nonuniform List<vector> 
545
(
(4.88273e-08 -3.43322e-08 0)
(4.88986e-08 -9.62563e-08 0)
(4.88142e-08 -1.60588e-07 0)
(4.87139e-08 -2.22961e-07 0)
(4.86339e-08 -2.82634e-07 0)
(4.85402e-08 -3.40376e-07 0)
(4.8435e-08 -3.96677e-07 0)
(4.83192e-08 -4.51514e-07 0)
(4.81932e-08 -5.04763e-07 0)
(4.80581e-08 -5.56422e-07 0)
(4.79146e-08 -6.06559e-07 0)
(4.77636e-08 -6.55231e-07 0)
(4.76059e-08 -7.02474e-07 0)
(4.74421e-08 -7.48315e-07 0)
(4.7273e-08 -7.92789e-07 0)
(4.70993e-08 -8.35932e-07 0)
(4.69215e-08 -8.7778e-07 0)
(4.67401e-08 -9.1837e-07 0)
(4.65558e-08 -9.57735e-07 0)
(4.6369e-08 -9.95909e-07 0)
(4.61801e-08 -1.03293e-06 0)
(4.59897e-08 -1.06882e-06 0)
(4.5798e-08 -1.10362e-06 0)
(4.56055e-08 -1.13736e-06 0)
(4.54125e-08 -1.17007e-06 0)
(4.52193e-08 -1.20179e-06 0)
(4.50262e-08 -1.23254e-06 0)
(4.48335e-08 -1.26235e-06 0)
(4.46413e-08 -1.29124e-06 0)
(4.445e-08 -1.31926e-06 0)
(4.42597e-08 -1.34642e-06 0)
(4.40707e-08 -1.37275e-06 0)
(4.3883e-08 -1.39828e-06 0)
(4.36968e-08 -1.42302e-06 0)
(4.35123e-08 -1.44702e-06 0)
(4.33297e-08 -1.47028e-06 0)
(4.31489e-08 -1.49283e-06 0)
(4.29701e-08 -1.5147e-06 0)
(4.27934e-08 -1.5359e-06 0)
(4.26188e-08 -1.55646e-06 0)
(4.24465e-08 -1.5764e-06 0)
(4.22764e-08 -1.59573e-06 0)
(4.21087e-08 -1.61448e-06 0)
(4.19434e-08 -1.63266e-06 0)
(4.17804e-08 -1.65029e-06 0)
(4.16199e-08 -1.66739e-06 0)
(4.14618e-08 -1.68398e-06 0)
(4.13061e-08 -1.70007e-06 0)
(4.11529e-08 -1.71567e-06 0)
(4.10022e-08 -1.73081e-06 0)
(4.08539e-08 -1.7455e-06 0)
(4.07081e-08 -1.75974e-06 0)
(4.05647e-08 -1.77356e-06 0)
(4.04237e-08 -1.78697e-06 0)
(4.02851e-08 -1.79999e-06 0)
(4.0149e-08 -1.81261e-06 0)
(4.00151e-08 -1.82486e-06 0)
(3.98836e-08 -1.83675e-06 0)
(3.97544e-08 -1.84829e-06 0)
(3.96274e-08 -1.85948e-06 0)
(3.95027e-08 -1.87035e-06 0)
(3.93802e-08 -1.8809e-06 0)
(3.92598e-08 -1.89114e-06 0)
(3.91416e-08 -1.90107e-06 0)
(3.90254e-08 -1.91072e-06 0)
(3.89113e-08 -1.92008e-06 0)
(3.87992e-08 -1.92917e-06 0)
(3.8689e-08 -1.938e-06 0)
(3.85809e-08 -1.94657e-06 0)
(3.84742e-08 -1.95488e-06 0)
(3.83709e-08 -1.96298e-06 0)
(3.8262e-08 -1.97081e-06 0)
(3.8159e-08 -1.97831e-06 0)
(3.80705e-08 -1.98563e-06 0)
(3.79817e-08 -1.99286e-06 0)
(3.78933e-08 -2e-06 0)
(3.7805e-08 -2.00714e-06 0)
(3.77167e-08 -2.01423e-06 0)
(3.76286e-08 -2.02126e-06 0)
(3.75406e-08 -2.02825e-06 0)
(3.74527e-08 -2.03518e-06 0)
(3.7365e-08 -2.04207e-06 0)
(3.72773e-08 -2.04891e-06 0)
(3.71898e-08 -2.0557e-06 0)
(3.71024e-08 -2.06245e-06 0)
(3.70151e-08 -2.06915e-06 0)
(3.6928e-08 -2.0758e-06 0)
(3.6841e-08 -2.08241e-06 0)
(3.67541e-08 -2.08897e-06 0)
(3.66674e-08 -2.09549e-06 0)
(3.65808e-08 -2.10196e-06 0)
(3.64942e-08 -2.10839e-06 0)
(3.64086e-08 -2.11479e-06 0)
(3.63197e-08 -2.12104e-06 0)
(3.62447e-08 -2.12746e-06 0)
(3.61087e-08 -2.13368e-06 0)
(3.59635e-08 -2.13907e-06 0)
(3.58902e-08 -2.14438e-06 0)
(3.58204e-08 -2.14947e-06 0)
(3.57526e-08 -2.15432e-06 0)
(3.56848e-08 -2.15936e-06 0)
(3.56168e-08 -2.16443e-06 0)
(3.55485e-08 -2.16948e-06 0)
(3.548e-08 -2.17452e-06 0)
(3.54111e-08 -2.17956e-06 0)
(3.5342e-08 -2.1846e-06 0)
(3.52726e-08 -2.18965e-06 0)
(3.52029e-08 -2.1947e-06 0)
(3.5133e-08 -2.19975e-06 0)
(3.50627e-08 -2.2048e-06 0)
(3.49921e-08 -2.20986e-06 0)
(3.49213e-08 -2.21492e-06 0)
(3.48501e-08 -2.21997e-06 0)
(3.47787e-08 -2.22503e-06 0)
(3.4707e-08 -2.2301e-06 0)
(3.46349e-08 -2.23516e-06 0)
(3.45626e-08 -2.24022e-06 0)
(3.449e-08 -2.24529e-06 0)
(3.44171e-08 -2.25035e-06 0)
(3.43438e-08 -2.25542e-06 0)
(3.42703e-08 -2.26049e-06 0)
(3.41965e-08 -2.26556e-06 0)
(3.41224e-08 -2.27063e-06 0)
(3.40479e-08 -2.2757e-06 0)
(3.39732e-08 -2.28078e-06 0)
(3.38982e-08 -2.28585e-06 0)
(3.38228e-08 -2.29093e-06 0)
(3.37472e-08 -2.296e-06 0)
(3.36713e-08 -2.30108e-06 0)
(3.3595e-08 -2.30615e-06 0)
(3.35185e-08 -2.31123e-06 0)
(3.34416e-08 -2.3163e-06 0)
(3.33645e-08 -2.32138e-06 0)
(3.3287e-08 -2.32646e-06 0)
(3.32092e-08 -2.33154e-06 0)
(3.31312e-08 -2.33661e-06 0)
(3.30528e-08 -2.34169e-06 0)
(3.29741e-08 -2.34677e-06 0)
(3.28951e-08 -2.35184e-06 0)
(3.28158e-08 -2.35692e-06 0)
(3.27362e-08 -2.362e-06 0)
(3.26562e-08 -2.36707e-06 0)
(3.2576e-08 -2.37215e-06 0)
(3.24955e-08 -2.37722e-06 0)
(3.24146e-08 -2.3823e-06 0)
(3.23335e-08 -2.38737e-06 0)
(3.2252e-08 -2.39244e-06 0)
(3.21702e-08 -2.39751e-06 0)
(3.20882e-08 -2.40259e-06 0)
(3.20058e-08 -2.40766e-06 0)
(3.19231e-08 -2.41272e-06 0)
(3.184e-08 -2.41779e-06 0)
(3.17567e-08 -2.42286e-06 0)
(3.16731e-08 -2.42792e-06 0)
(3.15891e-08 -2.43299e-06 0)
(3.15049e-08 -2.43805e-06 0)
(3.14203e-08 -2.44311e-06 0)
(3.13354e-08 -2.44817e-06 0)
(3.12502e-08 -2.45322e-06 0)
(3.11647e-08 -2.45828e-06 0)
(3.10789e-08 -2.46333e-06 0)
(3.09928e-08 -2.46838e-06 0)
(3.09064e-08 -2.47343e-06 0)
(3.08196e-08 -2.47847e-06 0)
(3.07326e-08 -2.48352e-06 0)
(3.06452e-08 -2.48856e-06 0)
(3.05575e-08 -2.4936e-06 0)
(3.04695e-08 -2.49863e-06 0)
(3.03812e-08 -2.50367e-06 0)
(3.02926e-08 -2.5087e-06 0)
(3.02037e-08 -2.51372e-06 0)
(3.01144e-08 -2.51875e-06 0)
(3.00249e-08 -2.52377e-06 0)
(2.9935e-08 -2.52879e-06 0)
(2.98449e-08 -2.5338e-06 0)
(2.97544e-08 -2.53882e-06 0)
(2.96636e-08 -2.54382e-06 0)
(2.95725e-08 -2.54883e-06 0)
(2.94811e-08 -2.55383e-06 0)
(2.93894e-08 -2.55883e-06 0)
(2.92973e-08 -2.56382e-06 0)
(2.9205e-08 -2.56881e-06 0)
(2.91124e-08 -2.5738e-06 0)
(2.90194e-08 -2.57878e-06 0)
(2.89261e-08 -2.58375e-06 0)
(2.88326e-08 -2.58873e-06 0)
(2.87387e-08 -2.5937e-06 0)
(2.86445e-08 -2.59866e-06 0)
(2.855e-08 -2.60362e-06 0)
(2.84552e-08 -2.60857e-06 0)
(2.83601e-08 -2.61352e-06 0)
(2.82647e-08 -2.61847e-06 0)
(2.8169e-08 -2.62341e-06 0)
(2.8073e-08 -2.62834e-06 0)
(2.79767e-08 -2.63327e-06 0)
(2.78801e-08 -2.63819e-06 0)
(2.77831e-08 -2.64311e-06 0)
(2.76859e-08 -2.64802e-06 0)
(2.75884e-08 -2.65293e-06 0)
(2.74905e-08 -2.65783e-06 0)
(2.73924e-08 -2.66272e-06 0)
(2.7294e-08 -2.66761e-06 0)
(2.71952e-08 -2.6725e-06 0)
(2.70962e-08 -2.67737e-06 0)
(2.69969e-08 -2.68224e-06 0)
(2.68973e-08 -2.68711e-06 0)
(2.67973e-08 -2.69196e-06 0)
(2.66971e-08 -2.69681e-06 0)
(2.65966e-08 -2.70166e-06 0)
(2.64958e-08 -2.70649e-06 0)
(2.63947e-08 -2.71132e-06 0)
(2.62933e-08 -2.71614e-06 0)
(2.61917e-08 -2.72096e-06 0)
(2.60897e-08 -2.72577e-06 0)
(2.59874e-08 -2.73057e-06 0)
(2.58849e-08 -2.73536e-06 0)
(2.5782e-08 -2.74014e-06 0)
(2.56789e-08 -2.74492e-06 0)
(2.55755e-08 -2.74969e-06 0)
(2.54718e-08 -2.75445e-06 0)
(2.53679e-08 -2.7592e-06 0)
(2.52636e-08 -2.76395e-06 0)
(2.51591e-08 -2.76868e-06 0)
(2.50542e-08 -2.77341e-06 0)
(2.49491e-08 -2.77813e-06 0)
(2.48438e-08 -2.78284e-06 0)
(2.47381e-08 -2.78754e-06 0)
(2.46322e-08 -2.79223e-06 0)
(2.4526e-08 -2.79692e-06 0)
(2.44195e-08 -2.80159e-06 0)
(2.43128e-08 -2.80625e-06 0)
(2.42058e-08 -2.81091e-06 0)
(2.40985e-08 -2.81555e-06 0)
(2.39909e-08 -2.82019e-06 0)
(2.38831e-08 -2.82481e-06 0)
(2.3775e-08 -2.82943e-06 0)
(2.36667e-08 -2.83403e-06 0)
(2.35581e-08 -2.83863e-06 0)
(2.34492e-08 -2.84321e-06 0)
(2.33401e-08 -2.84779e-06 0)
(2.32307e-08 -2.85235e-06 0)
(2.31211e-08 -2.8569e-06 0)
(2.30112e-08 -2.86144e-06 0)
(2.2901e-08 -2.86597e-06 0)
(2.27906e-08 -2.87049e-06 0)
(2.268e-08 -2.875e-06 0)
(2.25691e-08 -2.8795e-06 0)
(2.2458e-08 -2.88398e-06 0)
(2.23466e-08 -2.88846e-06 0)
(2.2235e-08 -2.89292e-06 0)
(2.21231e-08 -2.89737e-06 0)
(2.2011e-08 -2.9018e-06 0)
(2.18987e-08 -2.90623e-06 0)
(2.17861e-08 -2.91064e-06 0)
(2.16733e-08 -2.91504e-06 0)
(2.15603e-08 -2.91943e-06 0)
(2.1447e-08 -2.92381e-06 0)
(2.13336e-08 -2.92817e-06 0)
(2.12199e-08 -2.93252e-06 0)
(2.11059e-08 -2.93686e-06 0)
(2.09918e-08 -2.94118e-06 0)
(2.08774e-08 -2.94549e-06 0)
(2.07628e-08 -2.94979e-06 0)
(2.06481e-08 -2.95407e-06 0)
(2.05329e-08 -2.95834e-06 0)
(2.04181e-08 -2.96261e-06 0)
(2.03007e-08 -2.96678e-06 0)
(2.01922e-08 -2.97116e-06 0)
(2.00493e-08 -2.97527e-06 0)
(1.98958e-08 -2.97902e-06 0)
(1.9785e-08 -2.98303e-06 0)
(1.96837e-08 -2.98682e-06 0)
(1.95839e-08 -2.99043e-06 0)
(1.94829e-08 -2.99421e-06 0)
(1.93809e-08 -2.99804e-06 0)
(1.92778e-08 -3.00188e-06 0)
(1.91736e-08 -3.00573e-06 0)
(1.90682e-08 -3.00959e-06 0)
(1.89616e-08 -3.01348e-06 0)
(1.88538e-08 -3.01739e-06 0)
(1.87449e-08 -3.02132e-06 0)
(1.86347e-08 -3.02527e-06 0)
(1.85233e-08 -3.02924e-06 0)
(1.84107e-08 -3.03322e-06 0)
(1.82969e-08 -3.03723e-06 0)
(1.81819e-08 -3.04125e-06 0)
(1.80656e-08 -3.04529e-06 0)
(1.79481e-08 -3.04935e-06 0)
(1.78293e-08 -3.05343e-06 0)
(1.77092e-08 -3.05752e-06 0)
(1.75879e-08 -3.06163e-06 0)
(1.74653e-08 -3.06576e-06 0)
(1.73415e-08 -3.0699e-06 0)
(1.72164e-08 -3.07405e-06 0)
(1.70899e-08 -3.07822e-06 0)
(1.69622e-08 -3.08241e-06 0)
(1.68332e-08 -3.08661e-06 0)
(1.67029e-08 -3.09082e-06 0)
(1.65712e-08 -3.09504e-06 0)
(1.64383e-08 -3.09928e-06 0)
(1.6304e-08 -3.10352e-06 0)
(1.61685e-08 -3.10778e-06 0)
(1.60316e-08 -3.11205e-06 0)
(1.58933e-08 -3.11632e-06 0)
(1.57538e-08 -3.12061e-06 0)
(1.56129e-08 -3.1249e-06 0)
(1.54706e-08 -3.1292e-06 0)
(1.5327e-08 -3.13351e-06 0)
(1.51821e-08 -3.13783e-06 0)
(1.50359e-08 -3.14215e-06 0)
(1.48882e-08 -3.14647e-06 0)
(1.47393e-08 -3.1508e-06 0)
(1.45889e-08 -3.15512e-06 0)
(1.44373e-08 -3.15946e-06 0)
(1.42843e-08 -3.16379e-06 0)
(1.41299e-08 -3.16812e-06 0)
(1.39742e-08 -3.17245e-06 0)
(1.38171e-08 -3.17679e-06 0)
(1.36587e-08 -3.18111e-06 0)
(1.3499e-08 -3.18544e-06 0)
(1.33379e-08 -3.18975e-06 0)
(1.31755e-08 -3.19407e-06 0)
(1.30117e-08 -3.19837e-06 0)
(1.28466e-08 -3.20267e-06 0)
(1.26802e-08 -3.20696e-06 0)
(1.25125e-08 -3.21124e-06 0)
(1.23434e-08 -3.21551e-06 0)
(1.21731e-08 -3.21976e-06 0)
(1.20014e-08 -3.224e-06 0)
(1.18285e-08 -3.22823e-06 0)
(1.16542e-08 -3.23244e-06 0)
(1.14788e-08 -3.23663e-06 0)
(1.1302e-08 -3.2408e-06 0)
(1.1124e-08 -3.24496e-06 0)
(1.09447e-08 -3.24909e-06 0)
(1.07642e-08 -3.25319e-06 0)
(1.05825e-08 -3.25727e-06 0)
(1.03996e-08 -3.26133e-06 0)
(1.02155e-08 -3.26536e-06 0)
(1.00302e-08 -3.26936e-06 0)
(9.84379e-09 -3.27332e-06 0)
(9.65623e-09 -3.27726e-06 0)
(9.46754e-09 -3.28116e-06 0)
(9.27775e-09 -3.28503e-06 0)
(9.08687e-09 -3.28885e-06 0)
(8.89494e-09 -3.29264e-06 0)
(8.70197e-09 -3.29639e-06 0)
(8.50798e-09 -3.30009e-06 0)
(8.31299e-09 -3.30375e-06 0)
(8.11704e-09 -3.30736e-06 0)
(7.92014e-09 -3.31093e-06 0)
(7.72234e-09 -3.31444e-06 0)
(7.52364e-09 -3.3179e-06 0)
(7.32409e-09 -3.32131e-06 0)
(7.1237e-09 -3.32466e-06 0)
(6.92252e-09 -3.32796e-06 0)
(6.72058e-09 -3.33119e-06 0)
(6.51791e-09 -3.33437e-06 0)
(6.31454e-09 -3.33747e-06 0)
(6.11051e-09 -3.34051e-06 0)
(5.90586e-09 -3.34349e-06 0)
(5.70063e-09 -3.34639e-06 0)
(5.49485e-09 -3.34922e-06 0)
(5.28858e-09 -3.35197e-06 0)
(5.08183e-09 -3.35465e-06 0)
(4.87468e-09 -3.35725e-06 0)
(4.66714e-09 -3.35976e-06 0)
(4.45928e-09 -3.3622e-06 0)
(4.25114e-09 -3.36454e-06 0)
(4.04277e-09 -3.3668e-06 0)
(3.8342e-09 -3.36896e-06 0)
(3.62552e-09 -3.37104e-06 0)
(3.41674e-09 -3.37301e-06 0)
(3.20794e-09 -3.37489e-06 0)
(2.99917e-09 -3.37667e-06 0)
(2.79048e-09 -3.37835e-06 0)
(2.58192e-09 -3.37992e-06 0)
(2.37356e-09 -3.38139e-06 0)
(2.16545e-09 -3.38274e-06 0)
(1.95766e-09 -3.38398e-06 0)
(1.75024e-09 -3.38511e-06 0)
(1.54326e-09 -3.38612e-06 0)
(1.33678e-09 -3.38701e-06 0)
(1.13087e-09 -3.38778e-06 0)
(9.25579e-10 -3.38843e-06 0)
(7.20987e-10 -3.38895e-06 0)
(5.17154e-10 -3.38934e-06 0)
(3.14151e-10 -3.3896e-06 0)
(1.12045e-10 -3.38972e-06 0)
(-8.90959e-11 -3.38972e-06 0)
(-2.89201e-10 -3.38957e-06 0)
(-4.882e-10 -3.38928e-06 0)
(-6.86022e-10 -3.38885e-06 0)
(-8.82597e-10 -3.38828e-06 0)
(-1.07785e-09 -3.38756e-06 0)
(-1.27171e-09 -3.38669e-06 0)
(-1.46411e-09 -3.38567e-06 0)
(-1.65496e-09 -3.3845e-06 0)
(-1.84421e-09 -3.38316e-06 0)
(-2.03177e-09 -3.38168e-06 0)
(-2.21756e-09 -3.38003e-06 0)
(-2.40152e-09 -3.37823e-06 0)
(-2.58357e-09 -3.37626e-06 0)
(-2.76364e-09 -3.37413e-06 0)
(-2.94164e-09 -3.37183e-06 0)
(-3.11752e-09 -3.36936e-06 0)
(-3.29118e-09 -3.36672e-06 0)
(-3.46255e-09 -3.36392e-06 0)
(-3.63156e-09 -3.36093e-06 0)
(-3.79814e-09 -3.35778e-06 0)
(-3.9622e-09 -3.35445e-06 0)
(-4.12369e-09 -3.35095e-06 0)
(-4.2825e-09 -3.34726e-06 0)
(-4.43859e-09 -3.3434e-06 0)
(-4.59186e-09 -3.33936e-06 0)
(-4.74226e-09 -3.33514e-06 0)
(-4.88969e-09 -3.33073e-06 0)
(-5.03411e-09 -3.32615e-06 0)
(-5.17543e-09 -3.32137e-06 0)
(-5.3136e-09 -3.31643e-06 0)
(-5.44852e-09 -3.31129e-06 0)
(-5.58017e-09 -3.30597e-06 0)
(-5.70844e-09 -3.30046e-06 0)
(-5.83333e-09 -3.29478e-06 0)
(-5.95472e-09 -3.28891e-06 0)
(-6.07261e-09 -3.28286e-06 0)
(-6.1869e-09 -3.27661e-06 0)
(-6.2976e-09 -3.2702e-06 0)
(-6.4046e-09 -3.26359e-06 0)
(-6.50793e-09 -3.25681e-06 0)
(-6.60748e-09 -3.24984e-06 0)
(-6.70329e-09 -3.2427e-06 0)
(-6.79527e-09 -3.23537e-06 0)
(-6.88344e-09 -3.22787e-06 0)
(-6.96772e-09 -3.22019e-06 0)
(-7.04816e-09 -3.21234e-06 0)
(-7.12467e-09 -3.2043e-06 0)
(-7.1973e-09 -3.19611e-06 0)
(-7.26597e-09 -3.18773e-06 0)
(-7.33073e-09 -3.1792e-06 0)
(-7.39149e-09 -3.17049e-06 0)
(-7.44832e-09 -3.16162e-06 0)
(-7.50112e-09 -3.15258e-06 0)
(-7.54995e-09 -3.1434e-06 0)
(-7.59469e-09 -3.13404e-06 0)
(-7.63536e-09 -3.12454e-06 0)
(-7.67205e-09 -3.11486e-06 0)
(-7.70439e-09 -3.10513e-06 0)
(-7.73663e-09 -3.09497e-06 0)
(-7.75491e-09 -3.08498e-06 0)
(-7.75711e-09 -3.07389e-06 0)
(-7.76977e-09 -3.06106e-06 0)
(-7.78631e-09 -3.04839e-06 0)
(-7.79476e-09 -3.0359e-06 0)
(-7.79858e-09 -3.02326e-06 0)
(-7.79751e-09 -3.01062e-06 0)
(-7.79146e-09 -2.99797e-06 0)
(-7.78078e-09 -2.98537e-06 0)
(-7.76551e-09 -2.97277e-06 0)
(-7.74599e-09 -2.96022e-06 0)
(-7.72226e-09 -2.94768e-06 0)
(-7.69464e-09 -2.9352e-06 0)
(-7.6632e-09 -2.92275e-06 0)
(-7.62823e-09 -2.91038e-06 0)
(-7.58978e-09 -2.89804e-06 0)
(-7.54816e-09 -2.88579e-06 0)
(-7.50339e-09 -2.87359e-06 0)
(-7.45575e-09 -2.86149e-06 0)
(-7.40526e-09 -2.84944e-06 0)
(-7.35219e-09 -2.8375e-06 0)
(-7.29654e-09 -2.82562e-06 0)
(-7.23856e-09 -2.81386e-06 0)
(-7.17823e-09 -2.80218e-06 0)
(-7.1158e-09 -2.79061e-06 0)
(-7.05123e-09 -2.77913e-06 0)
(-6.98475e-09 -2.76777e-06 0)
(-6.91633e-09 -2.7565e-06 0)
(-6.84617e-09 -2.74537e-06 0)
(-6.77423e-09 -2.73433e-06 0)
(-6.70071e-09 -2.72343e-06 0)
(-6.62556e-09 -2.71263e-06 0)
(-6.54896e-09 -2.70197e-06 0)
(-6.47087e-09 -2.69141e-06 0)
(-6.39145e-09 -2.68101e-06 0)
(-6.31066e-09 -2.67071e-06 0)
(-6.22865e-09 -2.66057e-06 0)
(-6.14538e-09 -2.65054e-06 0)
(-6.061e-09 -2.64067e-06 0)
(-5.97545e-09 -2.63091e-06 0)
(-5.88887e-09 -2.62131e-06 0)
(-5.80122e-09 -2.61183e-06 0)
(-5.71262e-09 -2.60252e-06 0)
(-5.62302e-09 -2.59333e-06 0)
(-5.53255e-09 -2.58431e-06 0)
(-5.44115e-09 -2.57541e-06 0)
(-5.34894e-09 -2.56669e-06 0)
(-5.25586e-09 -2.55809e-06 0)
(-5.16202e-09 -2.54967e-06 0)
(-5.06737e-09 -2.54137e-06 0)
(-4.97201e-09 -2.53325e-06 0)
(-4.87589e-09 -2.52527e-06 0)
(-4.77909e-09 -2.51746e-06 0)
(-4.68156e-09 -2.50979e-06 0)
(-4.5834e-09 -2.5023e-06 0)
(-4.48455e-09 -2.49495e-06 0)
(-4.38509e-09 -2.48778e-06 0)
(-4.28496e-09 -2.48075e-06 0)
(-4.18426e-09 -2.4739e-06 0)
(-4.08292e-09 -2.46719e-06 0)
(-3.98102e-09 -2.46067e-06 0)
(-3.87851e-09 -2.4543e-06 0)
(-3.77547e-09 -2.44811e-06 0)
(-3.67184e-09 -2.44207e-06 0)
(-3.56769e-09 -2.43621e-06 0)
(-3.46299e-09 -2.43051e-06 0)
(-3.35779e-09 -2.425e-06 0)
(-3.25207e-09 -2.41964e-06 0)
(-3.14586e-09 -2.41446e-06 0)
(-3.03915e-09 -2.40944e-06 0)
(-2.93198e-09 -2.40461e-06 0)
(-2.82433e-09 -2.39994e-06 0)
(-2.71625e-09 -2.39546e-06 0)
(-2.60771e-09 -2.39114e-06 0)
(-2.49875e-09 -2.38701e-06 0)
(-2.38936e-09 -2.38304e-06 0)
(-2.27956e-09 -2.37926e-06 0)
(-2.16934e-09 -2.37565e-06 0)
(-2.05873e-09 -2.37223e-06 0)
(-1.9477e-09 -2.36898e-06 0)
(-1.83629e-09 -2.36591e-06 0)
(-1.72448e-09 -2.36302e-06 0)
(-1.61228e-09 -2.36031e-06 0)
(-1.49971e-09 -2.35779e-06 0)
(-1.3868e-09 -2.35545e-06 0)
(-1.27358e-09 -2.35328e-06 0)
(-1.16015e-09 -2.35132e-06 0)
(-1.04663e-09 -2.34948e-06 0)
(-9.33252e-10 -2.34804e-06 0)
(-8.20168e-10 -2.34607e-06 0)
(-7.08113e-10 -2.34661e-06 0)
(-5.95716e-10 -2.33946e-06 0)
(-4.88131e-10 -2.3576e-06 0)
(-3.63285e-10 -2.28636e-06 0)
(-2.96583e-10 -2.47359e-06 0)
(-1.51969e-10 -2.16007e-06 0)
)
;
    }
    bottomWall
    {
        type            calculated;
        value           nonuniform List<vector> 
449
(
(-52.9122 -0.958068 0)
(-34.8799 -0.0028101 0)
(-34.4781 -0.000258732 0)
(-33.0995 -0.00036806 0)
(-31.958 -0.000318948 0)
(-30.9121 -0.00028603 0)
(-29.9925 -0.000250268 0)
(-29.1882 -0.000219232 0)
(-28.4787 -0.000193621 0)
(-27.8484 -0.000171842 0)
(-27.2873 -0.000152857 0)
(-26.7865 -0.00013661 0)
(-26.3362 -0.000123087 0)
(-25.9276 -0.000111968 0)
(-25.553 -0.000102761 0)
(-25.207 -9.50181e-05 0)
(-24.8851 -8.84104e-05 0)
(-24.584 -8.27009e-05 0)
(-24.3009 -7.77071e-05 0)
(-24.0337 -7.32737e-05 0)
(-23.7808 -6.92936e-05 0)
(-23.5407 -6.56906e-05 0)
(-23.3123 -6.23885e-05 0)
(-23.0948 -5.93681e-05 0)
(-22.887 -5.6603e-05 0)
(-22.6883 -5.40289e-05 0)
(-22.4981 -5.16337e-05 0)
(-22.3158 -4.94119e-05 0)
(-22.1408 -4.73275e-05 0)
(-21.9729 -4.53987e-05 0)
(-21.8111 -4.36036e-05 0)
(-21.6554 -4.19046e-05 0)
(-21.5053 -4.03007e-05 0)
(-21.3607 -3.87902e-05 0)
(-21.2209 -3.73656e-05 0)
(-21.0861 -3.60542e-05 0)
(-20.9554 -3.47995e-05 0)
(-20.8293 -3.36231e-05 0)
(-20.7067 -3.24933e-05 0)
(-20.5883 -3.143e-05 0)
(-20.4731 -3.04085e-05 0)
(-20.3618 -2.94359e-05 0)
(-20.2533 -2.85031e-05 0)
(-20.1485 -2.7626e-05 0)
(-20.0461 -2.67827e-05 0)
(-19.9472 -2.59845e-05 0)
(-19.8503 -2.52225e-05 0)
(-19.7567 -2.4493e-05 0)
(-19.6649 -2.38051e-05 0)
(-19.576 -2.31416e-05 0)
(-19.4888 -2.251e-05 0)
(-19.4044 -2.18863e-05 0)
(-19.3216 -2.13126e-05 0)
(-19.2412 -2.07592e-05 0)
(-19.1622 -2.02281e-05 0)
(-19.0855 -1.97101e-05 0)
(-19.0102 -1.92173e-05 0)
(-18.937 -1.87515e-05 0)
(-18.8649 -1.83001e-05 0)
(-18.7948 -1.78646e-05 0)
(-18.7259 -1.74471e-05 0)
(-18.6587 -1.70405e-05 0)
(-18.5926 -1.66571e-05 0)
(-18.5281 -1.62883e-05 0)
(-18.4646 -1.59232e-05 0)
(-18.4027 -1.55627e-05 0)
(-18.3418 -1.52219e-05 0)
(-18.2823 -1.4895e-05 0)
(-18.2236 -1.45738e-05 0)
(-18.1665 -1.42632e-05 0)
(-18.11 -1.39736e-05 0)
(-18.0549 -1.3698e-05 0)
(-18.0003 -1.34184e-05 0)
(-17.9472 -1.31422e-05 0)
(-17.8946 -1.28841e-05 0)
(-17.8433 -1.26276e-05 0)
(-17.7926 -1.23861e-05 0)
(-17.743 -1.21504e-05 0)
(-17.694 -1.19298e-05 0)
(-17.6459 -1.17111e-05 0)
(-17.5984 -1.14878e-05 0)
(-17.552 -1.1268e-05 0)
(-17.5061 -1.10571e-05 0)
(-17.4612 -1.08586e-05 0)
(-17.4167 -1.06709e-05 0)
(-17.3732 -1.04915e-05 0)
(-17.3299 -1.0308e-05 0)
(-17.2877 -1.01125e-05 0)
(-17.2459 -9.93296e-06 0)
(-17.205 -9.76496e-06 0)
(-17.1644 -9.60646e-06 0)
(-17.1246 -9.45436e-06 0)
(-17.0851 -9.29819e-06 0)
(-17.0464 -9.14672e-06 0)
(-17.008 -9.003e-06 0)
(-16.9703 -8.85374e-06 0)
(-16.933 -8.70435e-06 0)
(-16.8965 -8.56317e-06 0)
(-16.8602 -8.42953e-06 0)
(-16.8246 -8.30295e-06 0)
(-16.7892 -8.17927e-06 0)
(-16.7545 -8.04934e-06 0)
(-16.7201 -7.9313e-06 0)
(-16.6862 -7.81621e-06 0)
(-16.6526 -7.69867e-06 0)
(-16.6197 -7.5774e-06 0)
(-16.587 -7.47013e-06 0)
(-16.5548 -7.34627e-06 0)
(-16.523 -7.24405e-06 0)
(-16.4915 -7.13599e-06 0)
(-16.4606 -7.0443e-06 0)
(-16.4298 -6.95359e-06 0)
(-16.3994 -6.86191e-06 0)
(-16.3693 -6.7722e-06 0)
(-16.3396 -6.6817e-06 0)
(-16.3101 -6.58586e-06 0)
(-16.2812 -6.48304e-06 0)
(-16.2525 -6.39095e-06 0)
(-16.2242 -6.30928e-06 0)
(-16.1961 -6.22427e-06 0)
(-16.1684 -6.13074e-06 0)
(-16.141 -6.05267e-06 0)
(-16.114 -5.9777e-06 0)
(-16.0871 -5.90616e-06 0)
(-16.0606 -5.83871e-06 0)
(-16.0342 -5.77326e-06 0)
(-16.0081 -5.70216e-06 0)
(-15.9823 -5.6293e-06 0)
(-15.9567 -5.55436e-06 0)
(-15.9314 -5.47513e-06 0)
(-15.9065 -5.403e-06 0)
(-15.8818 -5.33063e-06 0)
(-15.8574 -5.27205e-06 0)
(-15.8331 -5.21311e-06 0)
(-15.8091 -5.15183e-06 0)
(-15.7853 -5.0974e-06 0)
(-15.7617 -5.04425e-06 0)
(-15.7383 -4.98865e-06 0)
(-15.7151 -4.93375e-06 0)
(-15.692 -4.87192e-06 0)
(-15.6694 -4.82056e-06 0)
(-15.6467 -4.76116e-06 0)
(-15.6245 -4.69994e-06 0)
(-15.6022 -4.63589e-06 0)
(-15.5805 -4.57569e-06 0)
(-15.5588 -4.51748e-06 0)
(-15.5375 -4.45934e-06 0)
(-15.5162 -4.4149e-06 0)
(-15.4953 -4.36711e-06 0)
(-15.4744 -4.32287e-06 0)
(-15.4537 -4.27369e-06 0)
(-15.4332 -4.23941e-06 0)
(-15.4128 -4.1906e-06 0)
(-15.3926 -4.1495e-06 0)
(-15.3725 -4.10979e-06 0)
(-15.3527 -4.06511e-06 0)
(-15.3329 -4.01902e-06 0)
(-15.3134 -3.97481e-06 0)
(-15.294 -3.93387e-06 0)
(-15.2748 -3.88231e-06 0)
(-15.2558 -3.84157e-06 0)
(-15.2369 -3.80161e-06 0)
(-15.2182 -3.75928e-06 0)
(-15.1996 -3.72882e-06 0)
(-15.1812 -3.70245e-06 0)
(-15.1628 -3.66128e-06 0)
(-15.1446 -3.61766e-06 0)
(-15.1266 -3.58164e-06 0)
(-15.1087 -3.5406e-06 0)
(-15.091 -3.50025e-06 0)
(-15.0735 -3.4636e-06 0)
(-15.056 -3.4201e-06 0)
(-15.0389 -3.39661e-06 0)
(-15.0226 -3.38169e-06 0)
(-15.0073 -3.35404e-06 0)
(-14.9919 -3.32453e-06 0)
(-14.9766 -3.28993e-06 0)
(-14.9612 -3.25879e-06 0)
(-14.9459 -3.2356e-06 0)
(-14.9304 -3.19606e-06 0)
(-14.9151 -3.15745e-06 0)
(-14.8996 -3.12723e-06 0)
(-14.8843 -3.0906e-06 0)
(-14.8688 -3.05924e-06 0)
(-14.8535 -3.03636e-06 0)
(-14.8379 -3.01292e-06 0)
(-14.8225 -2.98082e-06 0)
(-14.807 -2.94023e-06 0)
(-14.7916 -2.90324e-06 0)
(-14.7761 -2.87305e-06 0)
(-14.7608 -2.85449e-06 0)
(-14.7451 -2.82343e-06 0)
(-14.7298 -2.79038e-06 0)
(-14.7142 -2.77594e-06 0)
(-14.6986 -2.7503e-06 0)
(-14.683 -2.71936e-06 0)
(-14.6675 -2.68263e-06 0)
(-14.652 -2.6533e-06 0)
(-14.6364 -2.62196e-06 0)
(-14.6209 -2.59337e-06 0)
(-14.6054 -2.56617e-06 0)
(-14.5899 -2.53755e-06 0)
(-14.5744 -2.50825e-06 0)
(-14.5589 -2.48486e-06 0)
(-14.5434 -2.46135e-06 0)
(-14.5278 -2.43535e-06 0)
(-14.5123 -2.41993e-06 0)
(-14.4966 -2.40653e-06 0)
(-14.4809 -2.38707e-06 0)
(-14.4651 -2.36633e-06 0)
(-14.4494 -2.3445e-06 0)
(-14.4336 -2.32323e-06 0)
(-14.4177 -2.29143e-06 0)
(-14.402 -2.25621e-06 0)
(-14.3863 -2.22938e-06 0)
(-14.3707 -2.20517e-06 0)
(-14.355 -2.17716e-06 0)
(-14.3394 -2.14775e-06 0)
(-14.3238 -2.11395e-06 0)
(-14.3083 -2.0884e-06 0)
(-14.2928 -2.06629e-06 0)
(-14.2773 -2.04211e-06 0)
(-14.2618 -2.02478e-06 0)
(-14.2463 -2.0008e-06 0)
(-14.2308 -1.98337e-06 0)
(-14.2152 -1.96038e-06 0)
(-14.1997 -1.92912e-06 0)
(-14.1843 -1.91508e-06 0)
(-14.1687 -1.88886e-06 0)
(-14.1534 -1.85941e-06 0)
(-14.138 -1.84182e-06 0)
(-14.1226 -1.8117e-06 0)
(-14.1074 -1.79363e-06 0)
(-14.092 -1.7771e-06 0)
(-14.0767 -1.75959e-06 0)
(-14.0613 -1.74549e-06 0)
(-14.0459 -1.73296e-06 0)
(-14.0303 -1.7228e-06 0)
(-14.0148 -1.70067e-06 0)
(-13.9993 -1.67678e-06 0)
(-13.9839 -1.65605e-06 0)
(-13.9685 -1.63041e-06 0)
(-13.9532 -1.60536e-06 0)
(-13.9379 -1.58735e-06 0)
(-13.9227 -1.56792e-06 0)
(-13.9075 -1.54485e-06 0)
(-13.8923 -1.5311e-06 0)
(-13.877 -1.51816e-06 0)
(-13.8618 -1.49713e-06 0)
(-13.8466 -1.47811e-06 0)
(-13.8315 -1.45576e-06 0)
(-13.8164 -1.43987e-06 0)
(-13.8013 -1.42585e-06 0)
(-13.7862 -1.40716e-06 0)
(-13.7711 -1.38685e-06 0)
(-13.7561 -1.37026e-06 0)
(-13.7411 -1.36011e-06 0)
(-13.726 -1.34332e-06 0)
(-13.711 -1.32537e-06 0)
(-13.696 -1.31349e-06 0)
(-13.681 -1.29484e-06 0)
(-13.6661 -1.27765e-06 0)
(-13.6511 -1.26324e-06 0)
(-13.6362 -1.25253e-06 0)
(-13.6212 -1.23901e-06 0)
(-13.6063 -1.22292e-06 0)
(-13.5913 -1.20926e-06 0)
(-13.5765 -1.18794e-06 0)
(-13.5617 -1.17198e-06 0)
(-13.5469 -1.16261e-06 0)
(-13.5321 -1.15609e-06 0)
(-13.5171 -1.14508e-06 0)
(-13.5023 -1.12782e-06 0)
(-13.4875 -1.1064e-06 0)
(-13.4728 -1.09698e-06 0)
(-13.458 -1.08679e-06 0)
(-13.4433 -1.07197e-06 0)
(-13.4285 -1.06214e-06 0)
(-13.4138 -1.04894e-06 0)
(-13.399 -1.03241e-06 0)
(-13.3845 -1.01476e-06 0)
(-13.3699 -9.99378e-07 0)
(-13.3555 -9.91451e-07 0)
(-13.3408 -9.77796e-07 0)
(-13.3265 -9.64369e-07 0)
(-13.3119 -9.51815e-07 0)
(-13.2977 -9.48172e-07 0)
(-13.2829 -9.43776e-07 0)
(-13.2684 -9.29547e-07 0)
(-13.2538 -9.1473e-07 0)
(-13.2395 -8.96816e-07 0)
(-13.2251 -8.86499e-07 0)
(-13.2109 -8.76939e-07 0)
(-13.1965 -8.62873e-07 0)
(-13.1824 -8.53184e-07 0)
(-13.168 -8.4575e-07 0)
(-13.1538 -8.29307e-07 0)
(-13.1397 -8.19621e-07 0)
(-13.1255 -8.0671e-07 0)
(-13.1116 -7.9156e-07 0)
(-13.0977 -7.82648e-07 0)
(-13.0837 -7.63837e-07 0)
(-13.0702 -7.51622e-07 0)
(-13.0564 -7.48813e-07 0)
(-13.0426 -7.50568e-07 0)
(-13.0284 -7.47672e-07 0)
(-13.0145 -7.3085e-07 0)
(-13.0006 -7.17863e-07 0)
(-12.9869 -7.06682e-07 0)
(-12.9732 -6.95105e-07 0)
(-12.9596 -6.87061e-07 0)
(-12.9459 -6.76202e-07 0)
(-12.9325 -6.67171e-07 0)
(-12.9189 -6.66037e-07 0)
(-12.9052 -6.62228e-07 0)
(-12.8914 -6.52257e-07 0)
(-12.8779 -6.40842e-07 0)
(-12.8643 -6.32589e-07 0)
(-12.8508 -6.23861e-07 0)
(-12.8373 -6.14421e-07 0)
(-12.8239 -6.02159e-07 0)
(-12.8107 -5.94327e-07 0)
(-12.7973 -5.89616e-07 0)
(-12.784 -5.81553e-07 0)
(-12.7708 -5.70631e-07 0)
(-12.7577 -5.59823e-07 0)
(-12.7446 -5.52735e-07 0)
(-12.7316 -5.46898e-07 0)
(-12.7186 -5.41513e-07 0)
(-12.7055 -5.32386e-07 0)
(-12.6926 -5.2585e-07 0)
(-12.6796 -5.24797e-07 0)
(-12.6665 -5.14119e-07 0)
(-12.6537 -5.0315e-07 0)
(-12.6409 -4.97883e-07 0)
(-12.6281 -4.98653e-07 0)
(-12.6149 -4.94009e-07 0)
(-12.6021 -4.84218e-07 0)
(-12.5892 -4.77956e-07 0)
(-12.5764 -4.69804e-07 0)
(-12.5637 -4.6071e-07 0)
(-12.5511 -4.55538e-07 0)
(-12.5384 -4.50904e-07 0)
(-12.5259 -4.44535e-07 0)
(-12.5132 -4.38895e-07 0)
(-12.5007 -4.30137e-07 0)
(-12.4883 -4.21403e-07 0)
(-12.476 -4.15915e-07 0)
(-12.4637 -4.09168e-07 0)
(-12.4516 -4.01776e-07 0)
(-12.4394 -3.97701e-07 0)
(-12.4272 -3.92171e-07 0)
(-12.4151 -3.88494e-07 0)
(-12.403 -3.82295e-07 0)
(-12.3896 -3.72747e-07 0)
(-12.3752 -3.66534e-07 0)
(-12.361 -3.60898e-07 0)
(-12.347 -3.54598e-07 0)
(-12.3333 -3.49631e-07 0)
(-12.3197 -3.44302e-07 0)
(-12.3064 -3.40105e-07 0)
(-12.2932 -3.37262e-07 0)
(-12.28 -3.3062e-07 0)
(-12.2673 -3.25759e-07 0)
(-12.2546 -3.23715e-07 0)
(-12.242 -3.21018e-07 0)
(-12.2295 -3.16776e-07 0)
(-12.2173 -3.12405e-07 0)
(-12.2051 -3.07052e-07 0)
(-12.1933 -2.99617e-07 0)
(-12.1817 -2.96929e-07 0)
(-12.1701 -2.92641e-07 0)
(-12.1588 -2.89996e-07 0)
(-12.1474 -2.8608e-07 0)
(-12.1365 -2.77793e-07 0)
(-12.1258 -2.72087e-07 0)
(-12.1152 -2.71795e-07 0)
(-12.1045 -2.70602e-07 0)
(-12.0941 -2.67496e-07 0)
(-12.0836 -2.6271e-07 0)
(-12.0736 -2.54202e-07 0)
(-12.0638 -2.53986e-07 0)
(-12.0538 -2.49619e-07 0)
(-12.0443 -2.43959e-07 0)
(-12.0347 -2.46764e-07 0)
(-12.025 -2.49826e-07 0)
(-12.0152 -2.45421e-07 0)
(-12.0059 -2.39054e-07 0)
(-11.9965 -2.32446e-07 0)
(-11.9877 -2.26927e-07 0)
(-11.9788 -2.23644e-07 0)
(-11.9703 -2.20443e-07 0)
(-11.9616 -2.19677e-07 0)
(-11.9531 -2.1703e-07 0)
(-11.9447 -2.14528e-07 0)
(-11.9363 -2.11595e-07 0)
(-11.9281 -2.07742e-07 0)
(-11.9201 -2.06698e-07 0)
(-11.912 -2.04284e-07 0)
(-11.9042 -2.02089e-07 0)
(-11.8962 -2.02337e-07 0)
(-11.8884 -1.99741e-07 0)
(-11.8806 -1.98129e-07 0)
(-11.8729 -1.96636e-07 0)
(-11.8652 -1.95806e-07 0)
(-11.8576 -1.90893e-07 0)
(-11.8504 -1.88325e-07 0)
(-11.8429 -1.86633e-07 0)
(-11.8358 -1.82273e-07 0)
(-11.8287 -1.8138e-07 0)
(-11.8216 -1.79785e-07 0)
(-11.8146 -1.78586e-07 0)
(-11.8077 -1.78778e-07 0)
(-11.8007 -1.77824e-07 0)
(-11.7938 -1.75477e-07 0)
(-11.787 -1.73395e-07 0)
(-11.7802 -1.715e-07 0)
(-11.7736 -1.68593e-07 0)
(-11.7671 -1.65383e-07 0)
(-11.7607 -1.62835e-07 0)
(-11.7544 -1.6433e-07 0)
(-11.7478 -1.61532e-07 0)
(-11.7418 -1.54197e-07 0)
(-11.7358 -1.54609e-07 0)
(-11.7297 -1.56154e-07 0)
(-11.7236 -1.55238e-07 0)
(-11.7176 -1.54274e-07 0)
(-11.7116 -1.51162e-07 0)
(-11.7058 -1.49804e-07 0)
(-11.6999 -1.48007e-07 0)
(-11.6942 -1.44689e-07 0)
(-11.6886 -1.43678e-07 0)
(-11.683 -1.41001e-07 0)
(-11.6776 -1.39933e-07 0)
(-11.6721 -1.4013e-07 0)
(-11.6666 -1.38352e-07 0)
(-11.6613 -1.37967e-07 0)
(-11.6559 -1.34878e-07 0)
(-11.6508 -1.36199e-07 0)
(-11.6452 -1.36359e-07 0)
(-11.6401 -1.37867e-07 0)
(-11.6345 -1.38491e-07 0)
(-11.6293 -1.36962e-07 0)
(-11.6237 -1.4662e-07 0)
(-11.6178 -1.29633e-07 0)
(-11.6136 -1.59451e-07 0)
(-11.6053 -1.1172e-07 0)
(-11.605 -1.43192e-07 0)
(-11.5939 -1.45391e-07 0)
)
;
    }
    symmetry
    {
        type            symmetryPlane;
    }
    frontAndBack
    {
        type            empty;
    }
}


// ************************************************************************* //
