/*--------------------------------*- C++ -*----------------------------------*\
| =========                 |                                                 |
| \\      /  F ield         | OpenFOAM: The Open Source CFD Toolbox           |
|  \\    /   O peration     | Version:  v2012                                 |
|   \\  /    A nd           | Website:  www.openfoam.com                      |
|    \\/     M anipulation  |                                                 |
\*---------------------------------------------------------------------------*/
FoamFile
{
    version     2.0;
    format      ascii;
    class       volScalarField;
    location    "20.5";
    object      yPlus;
}
// * * * * * * * * * * * * * * * * * * * * * * * * * * * * * * * * * * * * * //

dimensions      [0 0 0 0 0 0 0];


internalField   uniform 0;

boundaryField
{
    inlet
    {
        type            calculated;
        value           uniform 0;
    }
    outlet
    {
        type            calculated;
        value           uniform 0;
    }
    topWall
    {
        type            calculated;
        value           nonuniform List<scalar> 
545
(
0.128215
0.221371
0.284049
0.333834
0.375965
0.41281
0.445702
0.475478
0.502712
0.527812
0.551086
0.572773
0.593062
0.612107
0.630034
0.646951
0.662947
0.678102
0.692483
0.706149
0.719153
0.731542
0.743356
0.754635
0.765411
0.775715
0.785576
0.795018
0.804067
0.812743
0.821067
0.829056
0.836729
0.844102
0.851188
0.858003
0.864559
0.870868
0.876942
0.882792
0.888428
0.893859
0.899095
0.904143
0.909013
0.91371
0.918244
0.92262
0.926845
0.930925
0.934866
0.938674
0.942353
0.945909
0.949346
0.95267
0.955884
0.958993
0.962
0.96491
0.967725
0.97045
0.973088
0.975641
0.978114
0.980508
0.982826
0.985072
0.987247
0.989355
0.991397
0.993377
0.995269
0.997098
0.998912
1.00071
1.00249
1.00426
1.00601
1.00775
1.00947
1.01118
1.01287
1.01455
1.01621
1.01786
1.0195
1.02112
1.02272
1.02432
1.0259
1.02747
1.02902
1.03056
1.03209
1.0336
1.03496
1.03618
1.03739
1.03861
1.03982
1.04103
1.04224
1.04345
1.04466
1.04587
1.04708
1.04829
1.04949
1.0507
1.0519
1.0531
1.05431
1.05551
1.05671
1.05791
1.0591
1.0603
1.0615
1.06269
1.06388
1.06508
1.06627
1.06746
1.06865
1.06984
1.07102
1.07221
1.07339
1.07458
1.07576
1.07694
1.07812
1.0793
1.08047
1.08165
1.08283
1.084
1.08517
1.08634
1.08751
1.08868
1.08985
1.09101
1.09217
1.09334
1.0945
1.09566
1.09682
1.09797
1.09913
1.10028
1.10143
1.10258
1.10373
1.10488
1.10603
1.10717
1.10831
1.10946
1.1106
1.11173
1.11287
1.114
1.11514
1.11627
1.1174
1.11853
1.11965
1.12078
1.1219
1.12302
1.12414
1.12526
1.12637
1.12749
1.1286
1.12971
1.13082
1.13192
1.13303
1.13413
1.13523
1.13633
1.13742
1.13852
1.13961
1.1407
1.14179
1.14287
1.14396
1.14504
1.14612
1.14719
1.14827
1.14934
1.15041
1.15148
1.15255
1.15361
1.15468
1.15574
1.15679
1.15785
1.1589
1.15995
1.161
1.16204
1.16309
1.16413
1.16517
1.1662
1.16724
1.16827
1.1693
1.17032
1.17134
1.17237
1.17338
1.1744
1.17541
1.17642
1.17743
1.17844
1.17944
1.18044
1.18143
1.18243
1.18342
1.18441
1.18539
1.18638
1.18736
1.18833
1.18931
1.19028
1.19125
1.19221
1.19318
1.19414
1.19509
1.19605
1.197
1.19794
1.19889
1.19983
1.20077
1.2017
1.20263
1.20356
1.20449
1.20541
1.20633
1.20725
1.20816
1.20907
1.20997
1.21088
1.21178
1.21267
1.21356
1.21445
1.21534
1.21622
1.2171
1.21798
1.21885
1.21972
1.22058
1.22139
1.22215
1.22292
1.22369
1.22447
1.22524
1.22603
1.22681
1.2276
1.2284
1.22919
1.22999
1.2308
1.2316
1.23241
1.23323
1.23405
1.23487
1.23569
1.23651
1.23734
1.23817
1.23901
1.23985
1.24069
1.24153
1.24237
1.24322
1.24407
1.24492
1.24577
1.24662
1.24748
1.24833
1.24919
1.25005
1.25091
1.25177
1.25263
1.2535
1.25436
1.25522
1.25608
1.25695
1.25781
1.25867
1.25954
1.2604
1.26126
1.26212
1.26298
1.26383
1.26469
1.26554
1.26639
1.26724
1.26808
1.26893
1.26977
1.2706
1.27144
1.27227
1.27309
1.27391
1.27473
1.27554
1.27635
1.27715
1.27794
1.27873
1.27952
1.28029
1.28106
1.28183
1.28258
1.28333
1.28407
1.2848
1.28552
1.28624
1.28694
1.28764
1.28832
1.28899
1.28966
1.29031
1.29095
1.29157
1.29219
1.29279
1.29338
1.29396
1.29452
1.29507
1.2956
1.29612
1.29662
1.29711
1.29758
1.29804
1.29847
1.29889
1.29929
1.29967
1.30004
1.30038
1.3007
1.30101
1.30129
1.30155
1.30179
1.30201
1.30221
1.30238
1.30253
1.30265
1.30275
1.30283
1.30288
1.30291
1.30291
1.30288
1.30283
1.30274
1.30264
1.3025
1.30233
1.30214
1.30191
1.30166
1.30137
1.30106
1.30071
1.30033
1.29992
1.29948
1.29901
1.2985
1.29796
1.29739
1.29678
1.29614
1.29546
1.29475
1.294
1.29322
1.29241
1.29155
1.29067
1.28974
1.28878
1.28778
1.28675
1.28568
1.28457
1.28343
1.28225
1.28103
1.27978
1.27848
1.27716
1.27579
1.27439
1.27295
1.27148
1.26996
1.26841
1.26683
1.26521
1.26355
1.26186
1.26013
1.25837
1.25657
1.25474
1.25287
1.25097
1.24904
1.24707
1.24507
1.24304
1.24075
1.23821
1.23566
1.2331
1.23053
1.22796
1.22538
1.2228
1.22022
1.21764
1.21506
1.21249
1.20991
1.20735
1.20479
1.20224
1.1997
1.19717
1.19465
1.19214
1.18964
1.18717
1.1847
1.18225
1.17982
1.17741
1.17501
1.17263
1.17027
1.16794
1.16562
1.16333
1.16106
1.15881
1.15658
1.15438
1.15221
1.15006
1.14793
1.14584
1.14377
1.14172
1.13971
1.13772
1.13576
1.13384
1.13194
1.13007
1.12823
1.12643
1.12465
1.12291
1.1212
1.11953
1.11788
1.11627
1.11469
1.11316
1.11165
1.11018
1.10874
1.10734
1.10597
1.10465
1.10335
1.1021
1.10088
1.0997
1.09856
1.09746
1.09639
1.09537
1.09438
1.09343
1.09252
1.09166
1.09083
1.09004
1.0893
1.08859
1.08793
1.0873
1.08672
1.08618
1.08568
1.08523
1.08482
1.08444
1.08412
1.08383
1.08358
1.08338
1.08321
1.08311
1.08298
)
;
    }
    bottomWall
    {
        type            calculated;
        value           nonuniform List<scalar> 
449
(
0.00274808
0.0048181
0.00539116
0.00534185
0.00526837
0.00517099
0.00507342
0.00498146
0.00489603
0.00481733
0.00474556
0.0046804
0.00462098
0.00456636
0.00451566
0.00446826
0.00442363
0.00438143
0.00434131
0.00430308
0.00426655
0.00423158
0.00419804
0.00416588
0.00413494
0.00410519
0.00407653
0.00404893
0.0040223
0.00399663
0.00397179
0.0039478
0.00392457
0.00390213
0.00388036
0.00385931
0.00383881
0.003819
0.00379967
0.00378099
0.00376273
0.00374509
0.00372782
0.00371114
0.00369477
0.00367897
0.00366342
0.00364842
0.00363363
0.00361935
0.00360526
0.00359165
0.00357823
0.00356522
0.00355239
0.00353995
0.00352769
0.00351577
0.00350401
0.00349259
0.0034813
0.00347033
0.00345948
0.00344893
0.00343849
0.00342834
0.0034183
0.00340852
0.00339885
0.00338943
0.0033801
0.00337101
0.00336198
0.0033532
0.00334449
0.003336
0.00332758
0.00331936
0.0033112
0.00330322
0.00329532
0.0032876
0.00327994
0.00327247
0.00326504
0.00325777
0.00325054
0.00324349
0.0032365
0.00322966
0.00322286
0.00321619
0.00320956
0.00320308
0.00319663
0.00319031
0.00318403
0.0031779
0.00317179
0.0031658
0.00315984
0.003154
0.00314819
0.00314248
0.0031368
0.00313124
0.00312571
0.00312027
0.0031149
0.00310958
0.00310434
0.00309912
0.00309398
0.00308886
0.00308383
0.00307882
0.00307391
0.00306904
0.00306424
0.00305946
0.00305477
0.00305011
0.0030455
0.00304093
0.00303641
0.00303191
0.00302746
0.00302305
0.00301869
0.00301438
0.00301012
0.0030059
0.00300173
0.00299757
0.00299348
0.00298939
0.00298536
0.00298133
0.00297736
0.0029734
0.00296951
0.00296561
0.0029618
0.00295798
0.00295426
0.00295052
0.00294687
0.00294321
0.00293962
0.00293601
0.00293247
0.00292892
0.00292541
0.00292193
0.00291847
0.00291504
0.00291163
0.00290826
0.00290491
0.00290159
0.00289832
0.00289505
0.00289183
0.00288861
0.00288542
0.00288223
0.00287909
0.00287597
0.00287288
0.00286981
0.00286678
0.00286376
0.0028608
0.00285797
0.00285533
0.00285267
0.00285002
0.00284736
0.00284469
0.002842
0.00283935
0.00283667
0.002834
0.00283132
0.00282866
0.00282595
0.00282327
0.00282057
0.0028179
0.00281521
0.00281254
0.00280982
0.00280715
0.00280443
0.00280173
0.002799
0.0027963
0.0027936
0.0027909
0.00278821
0.00278551
0.00278281
0.00278012
0.00277742
0.00277471
0.00277201
0.0027693
0.00276656
0.0027638
0.00276104
0.00275827
0.0027555
0.00275272
0.00274997
0.00274722
0.00274448
0.00274173
0.00273901
0.00273629
0.00273359
0.00273088
0.00272818
0.00272547
0.00272275
0.00272005
0.00271731
0.00271461
0.00271191
0.00270919
0.00270651
0.00270381
0.00270113
0.00269847
0.00269577
0.0026931
0.00269039
0.00268768
0.00268494
0.0026822
0.00267947
0.00267676
0.00267404
0.00267136
0.00266867
0.00266599
0.00266331
0.00266065
0.00265796
0.00265528
0.0026526
0.00264994
0.00264729
0.00264462
0.00264196
0.0026393
0.00263667
0.00263401
0.00263135
0.0026287
0.00262606
0.0026234
0.00262077
0.00261812
0.00261549
0.00261282
0.00261018
0.00260753
0.0026049
0.00260229
0.00259967
0.00259703
0.00259437
0.00259173
0.0025891
0.0025865
0.00258385
0.00258124
0.0025786
0.00257598
0.00257335
0.00257076
0.00256817
0.00256561
0.00256299
0.00256045
0.00255785
0.00255531
0.00255265
0.00255006
0.00254743
0.00254488
0.00254231
0.00253976
0.00253718
0.00253466
0.00253208
0.00252954
0.00252702
0.00252448
0.00252199
0.00251951
0.00251702
0.00251462
0.00251216
0.00250969
0.00250713
0.00250462
0.00250214
0.00249968
0.00249722
0.0024948
0.00249234
0.00248994
0.00248749
0.00248501
0.00248252
0.00248007
0.00247762
0.00247519
0.00247276
0.00247035
0.00246797
0.00246557
0.00246317
0.00246079
0.00245844
0.0024561
0.00245376
0.00245142
0.00244906
0.00244675
0.00244439
0.00244202
0.00243972
0.00243741
0.0024351
0.0024327
0.00243038
0.00242803
0.00242572
0.00242341
0.00242114
0.00241882
0.00241654
0.00241424
0.00241197
0.00240972
0.0024075
0.00240526
0.00240307
0.00240087
0.00239867
0.00239648
0.00239426
0.00239183
0.00238921
0.00238662
0.00238408
0.00238159
0.00237913
0.00237672
0.00237431
0.00237193
0.00236963
0.00236731
0.00236501
0.00236271
0.00236048
0.00235824
0.00235609
0.00235397
0.00235185
0.00234979
0.00234769
0.00234569
0.00234373
0.00234182
0.00233984
0.00233794
0.002336
0.00233418
0.00233239
0.00233055
0.00232883
0.00232707
0.00232526
0.00232342
0.00232169
0.00231996
0.00231835
0.00231672
0.00231515
0.00231357
0.00231201
0.00231047
0.00230895
0.00230746
0.002306
0.00230451
0.00230309
0.00230163
0.00230019
0.00229877
0.00229735
0.00229594
0.00229452
0.0022932
0.00229182
0.00229052
0.00228922
0.00228792
0.00228664
0.00228536
0.00228406
0.00228279
0.00228152
0.00228028
0.00227905
0.00227785
0.00227667
0.00227552
0.00227431
0.0022732
0.00227212
0.002271
0.00226987
0.00226875
0.00226763
0.00226657
0.00226548
0.00226445
0.00226341
0.00226239
0.00226139
0.00226039
0.00225938
0.00225839
0.00225739
0.00225645
0.00225543
0.0022545
0.00225345
0.00225252
0.00225146
0.00225041
0.00224957
0.00224816
0.00224787
0.00224603
)
;
    }
    symmetry
    {
        type            symmetryPlane;
    }
    frontAndBack
    {
        type            empty;
    }
}


// ************************************************************************* //
