/*--------------------------------*- C++ -*----------------------------------*\
| =========                 |                                                 |
| \\      /  F ield         | OpenFOAM: The Open Source CFD Toolbox           |
|  \\    /   O peration     | Version:  v2012                                 |
|   \\  /    A nd           | Website:  www.openfoam.com                      |
|    \\/     M anipulation  |                                                 |
\*---------------------------------------------------------------------------*/
FoamFile
{
    version     2.0;
    format      ascii;
    class       volScalarField;
    location    "58.5";
    object      nut;
}
// * * * * * * * * * * * * * * * * * * * * * * * * * * * * * * * * * * * * * //

dimensions      [0 2 -1 0 0 0 0];


internalField   nonuniform List<scalar> 
209825
(
1.24117e-07
1.23464e-07
1.22346e-07
1.19771e-07
1.15615e-07
1.1033e-07
1.04508e-07
9.86147e-08
9.29475e-08
8.76607e-08
8.28137e-08
7.84197e-08
7.44508e-08
7.08832e-08
6.76681e-08
6.47805e-08
6.21695e-08
5.98197e-08
5.76827e-08
5.57545e-08
5.39892e-08
5.23922e-08
5.09194e-08
4.95849e-08
4.83442e-08
4.72193e-08
4.61639e-08
4.52081e-08
4.43032e-08
4.34847e-08
4.27022e-08
4.19972e-08
4.13159e-08
4.07048e-08
4.01073e-08
3.95749e-08
3.90477e-08
3.85815e-08
3.81138e-08
3.77042e-08
3.72873e-08
3.69262e-08
3.65529e-08
3.62331e-08
3.58967e-08
3.5613e-08
3.53092e-08
3.50568e-08
3.47805e-08
3.45564e-08
3.43046e-08
3.41041e-08
3.38743e-08
3.36946e-08
3.34856e-08
3.33236e-08
3.31306e-08
3.29868e-08
3.28086e-08
3.26792e-08
3.25163e-08
3.23988e-08
3.22484e-08
3.21413e-08
3.20035e-08
3.19047e-08
3.17786e-08
3.16887e-08
3.15711e-08
3.14885e-08
3.13791e-08
3.13044e-08
3.12043e-08
3.11377e-08
3.10426e-08
3.09788e-08
3.08856e-08
3.08242e-08
3.07324e-08
3.06731e-08
3.05826e-08
3.05255e-08
3.0436e-08
3.03812e-08
3.02911e-08
3.02379e-08
3.01474e-08
3.00948e-08
3.00067e-08
2.99553e-08
2.98678e-08
2.98159e-08
2.97191e-08
2.99743e-08
2.96712e-06
1.77373e-08
1.24117e-07
1.23464e-07
1.22346e-07
1.19772e-07
1.15616e-07
1.10331e-07
1.0451e-07
9.86168e-08
9.29499e-08
8.76632e-08
8.28162e-08
7.84222e-08
7.44533e-08
7.08856e-08
6.76704e-08
6.47827e-08
6.21716e-08
5.98216e-08
5.76846e-08
5.57563e-08
5.39909e-08
5.23938e-08
5.09209e-08
4.95864e-08
4.83455e-08
4.72206e-08
4.61652e-08
4.52093e-08
4.43043e-08
4.34858e-08
4.27032e-08
4.19981e-08
4.13168e-08
4.07056e-08
4.01081e-08
3.95757e-08
3.90484e-08
3.85822e-08
3.81145e-08
3.77049e-08
3.7288e-08
3.69268e-08
3.65535e-08
3.62336e-08
3.58972e-08
3.56135e-08
3.53097e-08
3.50573e-08
3.47809e-08
3.45569e-08
3.4305e-08
3.41045e-08
3.38746e-08
3.3695e-08
3.34859e-08
3.33239e-08
3.31309e-08
3.29871e-08
3.28089e-08
3.26795e-08
3.25165e-08
3.2399e-08
3.22487e-08
3.21415e-08
3.20037e-08
3.1905e-08
3.17788e-08
3.16889e-08
3.15713e-08
3.14887e-08
3.13793e-08
3.13046e-08
3.12045e-08
3.11378e-08
3.10427e-08
3.09789e-08
3.08857e-08
3.08243e-08
3.07325e-08
3.06732e-08
3.05827e-08
3.05256e-08
3.04361e-08
3.03813e-08
3.02912e-08
3.0238e-08
3.01475e-08
3.00949e-08
3.00068e-08
2.99553e-08
2.98678e-08
2.9816e-08
2.97191e-08
2.99747e-08
2.96913e-06
1.78864e-08
1.24116e-07
1.23464e-07
1.22347e-07
1.19774e-07
1.1562e-07
1.10337e-07
1.04518e-07
9.86259e-08
9.29596e-08
8.76732e-08
8.28262e-08
7.8432e-08
7.44628e-08
7.08947e-08
6.76792e-08
6.4791e-08
6.21795e-08
5.98292e-08
5.76917e-08
5.5763e-08
5.39973e-08
5.23998e-08
5.09266e-08
4.95918e-08
4.83507e-08
4.72255e-08
4.61698e-08
4.52136e-08
4.43084e-08
4.34897e-08
4.2707e-08
4.20017e-08
4.13202e-08
4.07089e-08
4.01112e-08
3.95786e-08
3.90512e-08
3.85848e-08
3.8117e-08
3.77073e-08
3.72903e-08
3.6929e-08
3.65556e-08
3.62356e-08
3.58991e-08
3.56154e-08
3.53114e-08
3.5059e-08
3.47825e-08
3.45584e-08
3.43065e-08
3.41059e-08
3.3876e-08
3.36963e-08
3.34872e-08
3.33251e-08
3.3132e-08
3.29882e-08
3.28099e-08
3.26805e-08
3.25175e-08
3.23999e-08
3.22495e-08
3.21424e-08
3.20045e-08
3.19057e-08
3.17796e-08
3.16896e-08
3.15719e-08
3.14893e-08
3.13799e-08
3.13051e-08
3.1205e-08
3.11383e-08
3.10432e-08
3.09794e-08
3.08861e-08
3.08247e-08
3.07329e-08
3.06736e-08
3.05831e-08
3.0526e-08
3.04364e-08
3.03816e-08
3.02915e-08
3.02382e-08
3.01477e-08
3.00951e-08
3.0007e-08
2.99555e-08
2.9868e-08
2.98162e-08
2.97193e-08
2.99755e-08
2.97605e-06
1.81039e-08
1.24116e-07
1.23463e-07
1.22347e-07
1.19777e-07
1.15627e-07
1.10348e-07
1.04531e-07
9.86412e-08
9.2976e-08
8.769e-08
8.2843e-08
7.84485e-08
7.44789e-08
7.09102e-08
6.7694e-08
6.48051e-08
6.21929e-08
5.98419e-08
5.77038e-08
5.57744e-08
5.4008e-08
5.241e-08
5.09363e-08
4.96009e-08
4.83593e-08
4.72336e-08
4.61775e-08
4.5221e-08
4.43154e-08
4.34964e-08
4.27133e-08
4.20077e-08
4.13259e-08
4.07143e-08
4.01163e-08
3.95835e-08
3.90559e-08
3.85893e-08
3.81213e-08
3.77113e-08
3.72941e-08
3.69327e-08
3.65591e-08
3.6239e-08
3.59023e-08
3.56185e-08
3.53144e-08
3.50618e-08
3.47852e-08
3.4561e-08
3.43089e-08
3.41082e-08
3.38782e-08
3.36984e-08
3.34892e-08
3.33271e-08
3.31339e-08
3.299e-08
3.28117e-08
3.26822e-08
3.2519e-08
3.24014e-08
3.2251e-08
3.21438e-08
3.20058e-08
3.1907e-08
3.17808e-08
3.16908e-08
3.1573e-08
3.14904e-08
3.13809e-08
3.13061e-08
3.12059e-08
3.11392e-08
3.1044e-08
3.09802e-08
3.08869e-08
3.08255e-08
3.07336e-08
3.06742e-08
3.05836e-08
3.05265e-08
3.04369e-08
3.03821e-08
3.02919e-08
3.02387e-08
3.01481e-08
3.00956e-08
3.00074e-08
2.99559e-08
2.98683e-08
2.98164e-08
2.97195e-08
2.99767e-08
2.9875e-06
1.83682e-08
1.24116e-07
1.23463e-07
1.22348e-07
1.19782e-07
1.15637e-07
1.10363e-07
1.0455e-07
9.86629e-08
9.29992e-08
8.77138e-08
8.28668e-08
7.84719e-08
7.45016e-08
7.0932e-08
6.77148e-08
6.4825e-08
6.22118e-08
5.98598e-08
5.77207e-08
5.57904e-08
5.40232e-08
5.24244e-08
5.09499e-08
4.96138e-08
4.83715e-08
4.72452e-08
4.61885e-08
4.52314e-08
4.43253e-08
4.35057e-08
4.27222e-08
4.20161e-08
4.1334e-08
4.07219e-08
4.01236e-08
3.95904e-08
3.90625e-08
3.85956e-08
3.81273e-08
3.77171e-08
3.72996e-08
3.69379e-08
3.65641e-08
3.62438e-08
3.59069e-08
3.56229e-08
3.53185e-08
3.50658e-08
3.47891e-08
3.45647e-08
3.43125e-08
3.41116e-08
3.38815e-08
3.37015e-08
3.34922e-08
3.33299e-08
3.31366e-08
3.29926e-08
3.28141e-08
3.26845e-08
3.25213e-08
3.24036e-08
3.22531e-08
3.21457e-08
3.20077e-08
3.19088e-08
3.17825e-08
3.16924e-08
3.15746e-08
3.14919e-08
3.13823e-08
3.13075e-08
3.12072e-08
3.11405e-08
3.10452e-08
3.09813e-08
3.0888e-08
3.08265e-08
3.07346e-08
3.06752e-08
3.05845e-08
3.05274e-08
3.04377e-08
3.03828e-08
3.02926e-08
3.02394e-08
3.01487e-08
3.00962e-08
3.00079e-08
2.99564e-08
2.98687e-08
2.98169e-08
2.97199e-08
2.99786e-08
3.00358e-06
1.86719e-08
1.24116e-07
1.23462e-07
1.22349e-07
1.19788e-07
1.1565e-07
1.10383e-07
1.04575e-07
9.86909e-08
9.30292e-08
8.77446e-08
8.28977e-08
7.85022e-08
7.4531e-08
7.09603e-08
6.7742e-08
6.48508e-08
6.22364e-08
5.98831e-08
5.77428e-08
5.58113e-08
5.4043e-08
5.24431e-08
5.09676e-08
4.96305e-08
4.83874e-08
4.72602e-08
4.62028e-08
4.52449e-08
4.43381e-08
4.35179e-08
4.27338e-08
4.20272e-08
4.13445e-08
4.07319e-08
4.01332e-08
3.95995e-08
3.90712e-08
3.86039e-08
3.81352e-08
3.77246e-08
3.73068e-08
3.69448e-08
3.65707e-08
3.62501e-08
3.59129e-08
3.56286e-08
3.5324e-08
3.50711e-08
3.47941e-08
3.45695e-08
3.43171e-08
3.4116e-08
3.38857e-08
3.37056e-08
3.3496e-08
3.33336e-08
3.31402e-08
3.2996e-08
3.28174e-08
3.26877e-08
3.25243e-08
3.24065e-08
3.22558e-08
3.21484e-08
3.20102e-08
3.19112e-08
3.17848e-08
3.16946e-08
3.15767e-08
3.14939e-08
3.13842e-08
3.13093e-08
3.1209e-08
3.11421e-08
3.10468e-08
3.09828e-08
3.08894e-08
3.08279e-08
3.07358e-08
3.06764e-08
3.05857e-08
3.05285e-08
3.04387e-08
3.03838e-08
3.02936e-08
3.02403e-08
3.01495e-08
3.0097e-08
3.00086e-08
2.99571e-08
2.98693e-08
2.98175e-08
2.97204e-08
2.99809e-08
3.02438e-06
1.90132e-08
1.24116e-07
1.2346e-07
1.22351e-07
1.19796e-07
1.15667e-07
1.10407e-07
1.04605e-07
9.87255e-08
9.30663e-08
8.77827e-08
8.29359e-08
7.85397e-08
7.45674e-08
7.09953e-08
6.77755e-08
6.48828e-08
6.22667e-08
5.99118e-08
5.77701e-08
5.58371e-08
5.40675e-08
5.24662e-08
5.09895e-08
4.96513e-08
4.8407e-08
4.72789e-08
4.62204e-08
4.52617e-08
4.43541e-08
4.3533e-08
4.27481e-08
4.20408e-08
4.13575e-08
4.07443e-08
4.01449e-08
3.96107e-08
3.90819e-08
3.86141e-08
3.81449e-08
3.77339e-08
3.73157e-08
3.69533e-08
3.65788e-08
3.62578e-08
3.59203e-08
3.56357e-08
3.53308e-08
3.50776e-08
3.48003e-08
3.45755e-08
3.43228e-08
3.41215e-08
3.38909e-08
3.37106e-08
3.35008e-08
3.33382e-08
3.31446e-08
3.30003e-08
3.28214e-08
3.26915e-08
3.2528e-08
3.241e-08
3.22592e-08
3.21516e-08
3.20133e-08
3.19142e-08
3.17876e-08
3.16974e-08
3.15793e-08
3.14964e-08
3.13866e-08
3.13116e-08
3.12112e-08
3.11443e-08
3.10488e-08
3.09848e-08
3.08912e-08
3.08296e-08
3.07375e-08
3.0678e-08
3.05871e-08
3.05299e-08
3.044e-08
3.03851e-08
3.02947e-08
3.02415e-08
3.01506e-08
3.00981e-08
3.00095e-08
2.9958e-08
2.98701e-08
2.98183e-08
2.97212e-08
2.99839e-08
3.05002e-06
1.93939e-08
1.24115e-07
1.23459e-07
1.22352e-07
1.19806e-07
1.15686e-07
1.10436e-07
1.04641e-07
9.87668e-08
9.31105e-08
8.78281e-08
8.29814e-08
7.85844e-08
7.46109e-08
7.10372e-08
6.78156e-08
6.49209e-08
6.2303e-08
5.99462e-08
5.78027e-08
5.5868e-08
5.40967e-08
5.24939e-08
5.10157e-08
4.96761e-08
4.84306e-08
4.73011e-08
4.62416e-08
4.52817e-08
4.43731e-08
4.35511e-08
4.27654e-08
4.20572e-08
4.13731e-08
4.07591e-08
4.01591e-08
3.96242e-08
3.90947e-08
3.86263e-08
3.81566e-08
3.77451e-08
3.73264e-08
3.69635e-08
3.65885e-08
3.62672e-08
3.59293e-08
3.56442e-08
3.5339e-08
3.50854e-08
3.48078e-08
3.45826e-08
3.43296e-08
3.41281e-08
3.38972e-08
3.37167e-08
3.35066e-08
3.33438e-08
3.31499e-08
3.30054e-08
3.28263e-08
3.26962e-08
3.25325e-08
3.24143e-08
3.22633e-08
3.21556e-08
3.20171e-08
3.19178e-08
3.17911e-08
3.17007e-08
3.15825e-08
3.14995e-08
3.13895e-08
3.13144e-08
3.12138e-08
3.11468e-08
3.10512e-08
3.09871e-08
3.08934e-08
3.08317e-08
3.07395e-08
3.06799e-08
3.05889e-08
3.05316e-08
3.04416e-08
3.03866e-08
3.02962e-08
3.02429e-08
3.01519e-08
3.00994e-08
3.00106e-08
2.99591e-08
2.98711e-08
2.98193e-08
2.9722e-08
2.99876e-08
3.08055e-06
1.98186e-08
1.24115e-07
1.23457e-07
1.22354e-07
1.19816e-07
1.15708e-07
1.10469e-07
1.04684e-07
9.88148e-08
9.31619e-08
8.7881e-08
8.30344e-08
7.86366e-08
7.46616e-08
7.1086e-08
6.78623e-08
6.49655e-08
6.23454e-08
5.99864e-08
5.78408e-08
5.59041e-08
5.41309e-08
5.25262e-08
5.10464e-08
4.97051e-08
4.84581e-08
4.73272e-08
4.62663e-08
4.53052e-08
4.43954e-08
4.35723e-08
4.27855e-08
4.20763e-08
4.13913e-08
4.07765e-08
4.01756e-08
3.964e-08
3.91098e-08
3.86407e-08
3.81704e-08
3.77582e-08
3.73389e-08
3.69755e-08
3.66e-08
3.62781e-08
3.59397e-08
3.56543e-08
3.53486e-08
3.50946e-08
3.48166e-08
3.45911e-08
3.43377e-08
3.41359e-08
3.39046e-08
3.37238e-08
3.35134e-08
3.33503e-08
3.31562e-08
3.30114e-08
3.28321e-08
3.27018e-08
3.25378e-08
3.24194e-08
3.22682e-08
3.21603e-08
3.20216e-08
3.19221e-08
3.17952e-08
3.17047e-08
3.15862e-08
3.15031e-08
3.1393e-08
3.13178e-08
3.1217e-08
3.11499e-08
3.10541e-08
3.09899e-08
3.0896e-08
3.08343e-08
3.07418e-08
3.06822e-08
3.0591e-08
3.05337e-08
3.04435e-08
3.03885e-08
3.02979e-08
3.02446e-08
3.01534e-08
3.0101e-08
3.0012e-08
2.99605e-08
2.98723e-08
2.98204e-08
2.97231e-08
2.99919e-08
3.11604e-06
2.02938e-08
1.24114e-07
1.23455e-07
1.22356e-07
1.19829e-07
1.15734e-07
1.10507e-07
1.04732e-07
9.88696e-08
9.32208e-08
8.79416e-08
8.30952e-08
7.86963e-08
7.47197e-08
7.11419e-08
6.79159e-08
6.50165e-08
6.2394e-08
6.00325e-08
5.78846e-08
5.59455e-08
5.41701e-08
5.25633e-08
5.10816e-08
4.97384e-08
4.84897e-08
4.73571e-08
4.62947e-08
4.53321e-08
4.4421e-08
4.35966e-08
4.28087e-08
4.20984e-08
4.14123e-08
4.07965e-08
4.01947e-08
3.96581e-08
3.91271e-08
3.86572e-08
3.81861e-08
3.77733e-08
3.73533e-08
3.69892e-08
3.66131e-08
3.62907e-08
3.59518e-08
3.56658e-08
3.53596e-08
3.51052e-08
3.48267e-08
3.46008e-08
3.4347e-08
3.41448e-08
3.39132e-08
3.3732e-08
3.35213e-08
3.33579e-08
3.31634e-08
3.30183e-08
3.28387e-08
3.27081e-08
3.25439e-08
3.24253e-08
3.22738e-08
3.21657e-08
3.20267e-08
3.19271e-08
3.17999e-08
3.17092e-08
3.15905e-08
3.15073e-08
3.1397e-08
3.13216e-08
3.12206e-08
3.11534e-08
3.10574e-08
3.09931e-08
3.0899e-08
3.08372e-08
3.07446e-08
3.06849e-08
3.05935e-08
3.05361e-08
3.04457e-08
3.03906e-08
3.02999e-08
3.02466e-08
3.01553e-08
3.01029e-08
3.00136e-08
2.99621e-08
2.98737e-08
2.98218e-08
2.97244e-08
2.9997e-08
3.15653e-06
2.0828e-08
1.24114e-07
1.23453e-07
1.22358e-07
1.19842e-07
1.15763e-07
1.1055e-07
1.04786e-07
9.89315e-08
9.32872e-08
8.80099e-08
8.31637e-08
7.87638e-08
7.47853e-08
7.12051e-08
6.79765e-08
6.50743e-08
6.2449e-08
6.00847e-08
5.79341e-08
5.59924e-08
5.42146e-08
5.26054e-08
5.11214e-08
4.97761e-08
4.85255e-08
4.73911e-08
4.6327e-08
4.53627e-08
4.44501e-08
4.36242e-08
4.28349e-08
4.21233e-08
4.14361e-08
4.08191e-08
4.02163e-08
3.96787e-08
3.91468e-08
3.8676e-08
3.82041e-08
3.77904e-08
3.73697e-08
3.70049e-08
3.66281e-08
3.6305e-08
3.59655e-08
3.56789e-08
3.53722e-08
3.51173e-08
3.48383e-08
3.46118e-08
3.43576e-08
3.4155e-08
3.39229e-08
3.37413e-08
3.35302e-08
3.33665e-08
3.31716e-08
3.30262e-08
3.28463e-08
3.27154e-08
3.25508e-08
3.2432e-08
3.22802e-08
3.21718e-08
3.20326e-08
3.19328e-08
3.18053e-08
3.17144e-08
3.15955e-08
3.15121e-08
3.14015e-08
3.1326e-08
3.12248e-08
3.11574e-08
3.10612e-08
3.09968e-08
3.09025e-08
3.08406e-08
3.07477e-08
3.0688e-08
3.05964e-08
3.05389e-08
3.04482e-08
3.03931e-08
3.03022e-08
3.02489e-08
3.01574e-08
3.0105e-08
3.00155e-08
2.9964e-08
2.98753e-08
2.98234e-08
2.97259e-08
3.00028e-08
3.20199e-06
2.14316e-08
1.24113e-07
1.23451e-07
1.22361e-07
1.19857e-07
1.15794e-07
1.10598e-07
1.04846e-07
9.90003e-08
9.33612e-08
8.80862e-08
8.32403e-08
7.88391e-08
7.48587e-08
7.12758e-08
6.80443e-08
6.5139e-08
6.25106e-08
6.01431e-08
5.79895e-08
5.60449e-08
5.42644e-08
5.26525e-08
5.11661e-08
4.98184e-08
4.85656e-08
4.74291e-08
4.63631e-08
4.5397e-08
4.44827e-08
4.36552e-08
4.28644e-08
4.21513e-08
4.14628e-08
4.08445e-08
4.02405e-08
3.97018e-08
3.91688e-08
3.86971e-08
3.82242e-08
3.78096e-08
3.73881e-08
3.70225e-08
3.66449e-08
3.63212e-08
3.59809e-08
3.56937e-08
3.53863e-08
3.51308e-08
3.48512e-08
3.46243e-08
3.43695e-08
3.41664e-08
3.39339e-08
3.37519e-08
3.35403e-08
3.33762e-08
3.31809e-08
3.30351e-08
3.28548e-08
3.27236e-08
3.25587e-08
3.24395e-08
3.22874e-08
3.21788e-08
3.20393e-08
3.19392e-08
3.18114e-08
3.17203e-08
3.16011e-08
3.15176e-08
3.14067e-08
3.1331e-08
3.12295e-08
3.1162e-08
3.10656e-08
3.1001e-08
3.09065e-08
3.08444e-08
3.07514e-08
3.06915e-08
3.05997e-08
3.0542e-08
3.04512e-08
3.0396e-08
3.03049e-08
3.02515e-08
3.01598e-08
3.01074e-08
3.00176e-08
2.99661e-08
2.98772e-08
2.98253e-08
2.97276e-08
3.00095e-08
3.25239e-06
2.21163e-08
1.24113e-07
1.23448e-07
1.22363e-07
1.19874e-07
1.15829e-07
1.1065e-07
1.04913e-07
9.90763e-08
9.3443e-08
8.81705e-08
8.33251e-08
7.89226e-08
7.494e-08
7.13542e-08
6.81195e-08
6.52106e-08
6.25788e-08
6.02079e-08
5.80511e-08
5.61031e-08
5.43196e-08
5.27048e-08
5.12157e-08
4.98654e-08
4.86102e-08
4.74714e-08
4.64032e-08
4.54351e-08
4.45189e-08
4.36896e-08
4.28971e-08
4.21825e-08
4.14925e-08
4.08728e-08
4.02675e-08
3.97276e-08
3.91934e-08
3.87205e-08
3.82466e-08
3.78311e-08
3.74085e-08
3.70421e-08
3.66637e-08
3.63391e-08
3.59981e-08
3.57102e-08
3.54021e-08
3.51459e-08
3.48657e-08
3.46382e-08
3.43828e-08
3.41792e-08
3.39461e-08
3.37636e-08
3.35516e-08
3.33871e-08
3.31913e-08
3.30451e-08
3.28644e-08
3.27328e-08
3.25675e-08
3.2448e-08
3.22955e-08
3.21866e-08
3.20467e-08
3.19464e-08
3.18182e-08
3.1727e-08
3.16075e-08
3.15237e-08
3.14125e-08
3.13367e-08
3.12349e-08
3.11672e-08
3.10704e-08
3.10057e-08
3.0911e-08
3.08488e-08
3.07554e-08
3.06954e-08
3.06034e-08
3.05456e-08
3.04545e-08
3.03992e-08
3.03079e-08
3.02545e-08
3.01626e-08
3.01102e-08
3.00201e-08
2.99686e-08
2.98793e-08
2.98275e-08
2.97296e-08
3.00169e-08
3.30763e-06
2.28953e-08
1.24112e-07
1.23445e-07
1.22366e-07
1.19892e-07
1.15867e-07
1.10707e-07
1.04985e-07
9.91596e-08
9.35327e-08
8.82631e-08
8.34181e-08
7.90143e-08
7.50294e-08
7.14403e-08
6.82022e-08
6.52896e-08
6.2654e-08
6.02793e-08
5.81188e-08
5.61673e-08
5.43805e-08
5.27625e-08
5.12704e-08
4.99173e-08
4.86594e-08
4.7518e-08
4.64475e-08
4.54771e-08
4.45589e-08
4.37276e-08
4.29333e-08
4.22169e-08
4.15253e-08
4.09041e-08
4.02973e-08
3.9756e-08
3.92206e-08
3.87465e-08
3.82714e-08
3.78547e-08
3.74312e-08
3.70637e-08
3.66844e-08
3.6359e-08
3.60171e-08
3.57284e-08
3.54195e-08
3.51627e-08
3.48818e-08
3.46536e-08
3.43976e-08
3.41934e-08
3.39597e-08
3.37767e-08
3.35641e-08
3.33991e-08
3.32028e-08
3.30562e-08
3.2875e-08
3.2743e-08
3.25772e-08
3.24574e-08
3.23045e-08
3.21953e-08
3.2055e-08
3.19544e-08
3.18259e-08
3.17344e-08
3.16145e-08
3.15305e-08
3.1419e-08
3.13429e-08
3.12408e-08
3.1173e-08
3.10759e-08
3.10111e-08
3.0916e-08
3.08536e-08
3.076e-08
3.06999e-08
3.06075e-08
3.05497e-08
3.04582e-08
3.04029e-08
3.03113e-08
3.02579e-08
3.01657e-08
3.01134e-08
3.00228e-08
2.99714e-08
2.98818e-08
2.98299e-08
2.97319e-08
3.00253e-08
3.36753e-06
2.37832e-08
1.24112e-07
1.23442e-07
1.22369e-07
1.19911e-07
1.15908e-07
1.10769e-07
1.05064e-07
9.92503e-08
9.36304e-08
8.8364e-08
8.35197e-08
7.91145e-08
7.5127e-08
7.15345e-08
6.82926e-08
6.53759e-08
6.27363e-08
6.03574e-08
5.81931e-08
5.62377e-08
5.44473e-08
5.28257e-08
5.13304e-08
4.99741e-08
4.87133e-08
4.75691e-08
4.64961e-08
4.55233e-08
4.46028e-08
4.37693e-08
4.2973e-08
4.22547e-08
4.15613e-08
4.09384e-08
4.03301e-08
3.97873e-08
3.92504e-08
3.8775e-08
3.82986e-08
3.78808e-08
3.74561e-08
3.70876e-08
3.67072e-08
3.63808e-08
3.6038e-08
3.57485e-08
3.54387e-08
3.51811e-08
3.48994e-08
3.46706e-08
3.44139e-08
3.4209e-08
3.39747e-08
3.37911e-08
3.35779e-08
3.34124e-08
3.32155e-08
3.30685e-08
3.28867e-08
3.27543e-08
3.2588e-08
3.24678e-08
3.23145e-08
3.22049e-08
3.20642e-08
3.19633e-08
3.18344e-08
3.17426e-08
3.16223e-08
3.15381e-08
3.14262e-08
3.13499e-08
3.12475e-08
3.11794e-08
3.1082e-08
3.1017e-08
3.09216e-08
3.08591e-08
3.07651e-08
3.07049e-08
3.06122e-08
3.05542e-08
3.04624e-08
3.0407e-08
3.03151e-08
3.02617e-08
3.01692e-08
3.01169e-08
3.0026e-08
2.99745e-08
2.98845e-08
2.98327e-08
2.97345e-08
3.00346e-08
3.43188e-06
2.47963e-08
1.24111e-07
1.23438e-07
1.22372e-07
1.19932e-07
1.15953e-07
1.10836e-07
1.0515e-07
9.93483e-08
9.37362e-08
8.84734e-08
8.36299e-08
7.92232e-08
7.52331e-08
7.16369e-08
6.8391e-08
6.54698e-08
6.28258e-08
6.04425e-08
5.82739e-08
5.63143e-08
5.452e-08
5.28946e-08
5.13958e-08
5.0036e-08
4.87721e-08
4.76249e-08
4.65492e-08
4.55736e-08
4.46507e-08
4.38149e-08
4.30164e-08
4.2296e-08
4.16006e-08
4.09759e-08
4.03659e-08
3.98214e-08
3.9283e-08
3.88061e-08
3.83284e-08
3.79093e-08
3.74834e-08
3.71137e-08
3.67322e-08
3.64048e-08
3.60609e-08
3.57705e-08
3.54598e-08
3.52014e-08
3.49188e-08
3.46892e-08
3.44317e-08
3.42262e-08
3.39911e-08
3.38069e-08
3.3593e-08
3.3427e-08
3.32295e-08
3.30819e-08
3.28996e-08
3.27667e-08
3.25999e-08
3.24793e-08
3.23255e-08
3.22155e-08
3.20744e-08
3.19731e-08
3.18437e-08
3.17516e-08
3.1631e-08
3.15465e-08
3.14342e-08
3.13577e-08
3.12548e-08
3.11865e-08
3.10888e-08
3.10236e-08
3.09278e-08
3.08651e-08
3.07708e-08
3.07104e-08
3.06174e-08
3.05593e-08
3.04671e-08
3.04115e-08
3.03194e-08
3.02659e-08
3.01731e-08
3.01208e-08
3.00295e-08
2.9978e-08
2.98876e-08
2.98358e-08
2.97375e-08
3.00448e-08
3.50035e-06
2.59522e-08
1.2411e-07
1.23434e-07
1.22375e-07
1.19954e-07
1.16e-07
1.10908e-07
1.05241e-07
9.94539e-08
9.38504e-08
8.85915e-08
8.37489e-08
7.93408e-08
7.53478e-08
7.17477e-08
6.84975e-08
6.55715e-08
6.29229e-08
6.05347e-08
5.83615e-08
5.63974e-08
5.45988e-08
5.29693e-08
5.14667e-08
5.01033e-08
4.8836e-08
4.76855e-08
4.66067e-08
4.56283e-08
4.47027e-08
4.38643e-08
4.30636e-08
4.23409e-08
4.16435e-08
4.10167e-08
4.04048e-08
3.98586e-08
3.93186e-08
3.88401e-08
3.83609e-08
3.79403e-08
3.75131e-08
3.71421e-08
3.67594e-08
3.64309e-08
3.60859e-08
3.57944e-08
3.54828e-08
3.52234e-08
3.49399e-08
3.47095e-08
3.44512e-08
3.42449e-08
3.40091e-08
3.38242e-08
3.36096e-08
3.3443e-08
3.32448e-08
3.30967e-08
3.29138e-08
3.27803e-08
3.2613e-08
3.24919e-08
3.23376e-08
3.22271e-08
3.20855e-08
3.19838e-08
3.1854e-08
3.17616e-08
3.16405e-08
3.15557e-08
3.1443e-08
3.13662e-08
3.12629e-08
3.11944e-08
3.10963e-08
3.10308e-08
3.09347e-08
3.08718e-08
3.07771e-08
3.07165e-08
3.06231e-08
3.05649e-08
3.04724e-08
3.04166e-08
3.03241e-08
3.02706e-08
3.01775e-08
3.01252e-08
3.00335e-08
2.9982e-08
2.98912e-08
2.98393e-08
2.97408e-08
3.0056e-08
3.57257e-06
2.72701e-08
1.24109e-07
1.2343e-07
1.22378e-07
1.19977e-07
1.1605e-07
1.10985e-07
1.0534e-07
9.95672e-08
9.39729e-08
8.87184e-08
8.3877e-08
7.94673e-08
7.54714e-08
7.18671e-08
6.86123e-08
6.56812e-08
6.30276e-08
6.06342e-08
5.84562e-08
5.64871e-08
5.46841e-08
5.30501e-08
5.15434e-08
5.0176e-08
4.89051e-08
4.77511e-08
4.66691e-08
4.56875e-08
4.47591e-08
4.39179e-08
4.31146e-08
4.23895e-08
4.16898e-08
4.10609e-08
4.0447e-08
3.98989e-08
3.93571e-08
3.88769e-08
3.83961e-08
3.7974e-08
3.75453e-08
3.7173e-08
3.6789e-08
3.64592e-08
3.61131e-08
3.58205e-08
3.55077e-08
3.52474e-08
3.49629e-08
3.47316e-08
3.44724e-08
3.42653e-08
3.40287e-08
3.3843e-08
3.36276e-08
3.34604e-08
3.32614e-08
3.31127e-08
3.29292e-08
3.27952e-08
3.26272e-08
3.25056e-08
3.23507e-08
3.22398e-08
3.20977e-08
3.19956e-08
3.18652e-08
3.17725e-08
3.16509e-08
3.15658e-08
3.14526e-08
3.13755e-08
3.12719e-08
3.12031e-08
3.11045e-08
3.10388e-08
3.09422e-08
3.08792e-08
3.07841e-08
3.07233e-08
3.06295e-08
3.05711e-08
3.04782e-08
3.04223e-08
3.03293e-08
3.02758e-08
3.01824e-08
3.01301e-08
3.00379e-08
2.99865e-08
2.98951e-08
2.98432e-08
2.97446e-08
3.00682e-08
3.64802e-06
2.87715e-08
1.24109e-07
1.23426e-07
1.22382e-07
1.20002e-07
1.16104e-07
1.11067e-07
1.05445e-07
9.96881e-08
9.41039e-08
8.88543e-08
8.40142e-08
7.9603e-08
7.56041e-08
7.19954e-08
6.87356e-08
6.57992e-08
6.31401e-08
6.07412e-08
5.8558e-08
5.65837e-08
5.47758e-08
5.31371e-08
5.1626e-08
5.02543e-08
4.89795e-08
4.78217e-08
4.67363e-08
4.57514e-08
4.48199e-08
4.39758e-08
4.31697e-08
4.2442e-08
4.17399e-08
4.11087e-08
4.04927e-08
3.99425e-08
3.93987e-08
3.89167e-08
3.84342e-08
3.80104e-08
3.75802e-08
3.72064e-08
3.6821e-08
3.64899e-08
3.61425e-08
3.58487e-08
3.55348e-08
3.52734e-08
3.49879e-08
3.47556e-08
3.44954e-08
3.42874e-08
3.40499e-08
3.38634e-08
3.36472e-08
3.34793e-08
3.32796e-08
3.31302e-08
3.2946e-08
3.28114e-08
3.26428e-08
3.25206e-08
3.23651e-08
3.22537e-08
3.2111e-08
3.20085e-08
3.18775e-08
3.17844e-08
3.16623e-08
3.15769e-08
3.14632e-08
3.13858e-08
3.12816e-08
3.12126e-08
3.11136e-08
3.10476e-08
3.09506e-08
3.08873e-08
3.07918e-08
3.07308e-08
3.06365e-08
3.0578e-08
3.04846e-08
3.04285e-08
3.03352e-08
3.02816e-08
3.01878e-08
3.01354e-08
3.00428e-08
2.99914e-08
2.98995e-08
2.98476e-08
2.97488e-08
3.00814e-08
3.72612e-06
3.04794e-08
1.24108e-07
1.23422e-07
1.22385e-07
1.20028e-07
1.16161e-07
1.11153e-07
1.05556e-07
9.98167e-08
9.42435e-08
8.89993e-08
8.41607e-08
7.9748e-08
7.57459e-08
7.21326e-08
6.88678e-08
6.59255e-08
6.32608e-08
6.08561e-08
5.86673e-08
5.66874e-08
5.48744e-08
5.32306e-08
5.17148e-08
5.03385e-08
4.90596e-08
4.78977e-08
4.68086e-08
4.582e-08
4.48853e-08
4.4038e-08
4.32291e-08
4.24985e-08
4.17939e-08
4.11602e-08
4.05418e-08
3.99894e-08
3.94436e-08
3.89596e-08
3.84752e-08
3.80497e-08
3.76178e-08
3.72424e-08
3.68555e-08
3.6523e-08
3.61743e-08
3.58792e-08
3.55641e-08
3.53016e-08
3.50149e-08
3.47815e-08
3.45203e-08
3.43114e-08
3.40729e-08
3.38856e-08
3.36685e-08
3.34998e-08
3.32993e-08
3.31492e-08
3.29642e-08
3.28289e-08
3.26596e-08
3.25369e-08
3.23807e-08
3.22688e-08
3.21255e-08
3.20225e-08
3.1891e-08
3.17974e-08
3.16748e-08
3.1589e-08
3.14748e-08
3.1397e-08
3.12923e-08
3.1223e-08
3.11235e-08
3.10572e-08
3.09597e-08
3.08962e-08
3.08002e-08
3.0739e-08
3.06443e-08
3.05855e-08
3.04917e-08
3.04355e-08
3.03416e-08
3.0288e-08
3.01938e-08
3.01414e-08
3.00483e-08
2.99969e-08
2.99044e-08
2.98526e-08
2.97535e-08
3.00957e-08
3.80616e-06
3.24185e-08
1.24107e-07
1.23417e-07
1.22389e-07
1.20055e-07
1.1622e-07
1.11245e-07
1.05674e-07
9.99533e-08
9.43919e-08
8.91535e-08
8.43168e-08
7.99026e-08
7.58973e-08
7.22791e-08
6.90089e-08
6.60606e-08
6.33899e-08
6.09789e-08
5.87842e-08
5.67984e-08
5.49799e-08
5.33307e-08
5.18099e-08
5.04288e-08
4.91454e-08
4.79792e-08
4.68861e-08
4.58937e-08
4.49555e-08
4.41048e-08
4.32928e-08
4.25592e-08
4.18518e-08
4.12154e-08
4.05946e-08
4.00399e-08
3.94919e-08
3.90057e-08
3.85194e-08
3.8092e-08
3.76583e-08
3.72813e-08
3.68927e-08
3.65588e-08
3.62085e-08
3.59121e-08
3.55956e-08
3.53319e-08
3.5044e-08
3.48095e-08
3.45472e-08
3.43373e-08
3.40978e-08
3.39095e-08
3.36915e-08
3.3522e-08
3.33206e-08
3.31698e-08
3.2984e-08
3.2848e-08
3.26779e-08
3.25545e-08
3.23977e-08
3.22852e-08
3.21413e-08
3.20377e-08
3.19055e-08
3.18116e-08
3.16883e-08
3.16022e-08
3.14874e-08
3.14093e-08
3.1304e-08
3.12344e-08
3.11343e-08
3.10678e-08
3.09698e-08
3.0906e-08
3.08095e-08
3.07481e-08
3.06528e-08
3.05939e-08
3.04995e-08
3.04431e-08
3.03488e-08
3.0295e-08
3.02004e-08
3.0148e-08
3.00543e-08
3.00031e-08
2.99099e-08
2.9858e-08
2.97588e-08
3.01111e-08
3.88732e-06
3.4616e-08
1.24106e-07
1.23412e-07
1.22392e-07
1.20084e-07
1.16283e-07
1.11341e-07
1.05798e-07
1.00098e-07
9.45491e-08
8.93171e-08
8.44825e-08
8.0067e-08
7.60583e-08
7.24351e-08
6.91592e-08
6.62045e-08
6.35275e-08
6.11099e-08
5.89089e-08
5.69169e-08
5.50926e-08
5.34376e-08
5.19116e-08
5.05253e-08
4.92371e-08
4.80664e-08
4.69691e-08
4.59726e-08
4.50306e-08
4.41764e-08
4.3361e-08
4.26243e-08
4.19139e-08
4.12747e-08
4.06513e-08
4.0094e-08
3.95437e-08
3.90553e-08
3.85668e-08
3.81375e-08
3.77018e-08
3.7323e-08
3.69327e-08
3.65972e-08
3.62454e-08
3.59475e-08
3.56296e-08
3.53646e-08
3.50753e-08
3.48397e-08
3.45762e-08
3.43652e-08
3.41246e-08
3.39354e-08
3.37163e-08
3.3546e-08
3.33436e-08
3.3192e-08
3.30053e-08
3.28686e-08
3.26977e-08
3.25737e-08
3.24161e-08
3.2303e-08
3.21583e-08
3.20543e-08
3.19214e-08
3.18269e-08
3.17031e-08
3.16165e-08
3.15011e-08
3.14226e-08
3.13168e-08
3.12468e-08
3.11462e-08
3.10793e-08
3.09808e-08
3.09167e-08
3.08197e-08
3.0758e-08
3.06622e-08
3.0603e-08
3.05081e-08
3.04515e-08
3.03567e-08
3.03028e-08
3.02078e-08
3.01553e-08
3.00611e-08
3.00098e-08
2.9916e-08
2.98641e-08
2.97647e-08
3.01275e-08
3.96866e-06
3.71003e-08
1.24105e-07
1.23406e-07
1.22396e-07
1.20113e-07
1.16348e-07
1.11442e-07
1.05929e-07
1.0025e-07
9.47152e-08
8.94903e-08
8.46581e-08
8.02413e-08
7.62292e-08
7.26008e-08
6.93189e-08
6.63576e-08
6.36739e-08
6.12494e-08
5.90418e-08
5.70432e-08
5.52127e-08
5.35516e-08
5.202e-08
5.06282e-08
4.93351e-08
4.81594e-08
4.70577e-08
4.60569e-08
4.5111e-08
4.42529e-08
4.3434e-08
4.26938e-08
4.19804e-08
4.13381e-08
4.07119e-08
4.01519e-08
3.95991e-08
3.91084e-08
3.86177e-08
3.81861e-08
3.77485e-08
3.73677e-08
3.69757e-08
3.66384e-08
3.62849e-08
3.59855e-08
3.56661e-08
3.53997e-08
3.5109e-08
3.48722e-08
3.46074e-08
3.43953e-08
3.41535e-08
3.39632e-08
3.37431e-08
3.35718e-08
3.33684e-08
3.32159e-08
3.30284e-08
3.28908e-08
3.27191e-08
3.25944e-08
3.2436e-08
3.23222e-08
3.21768e-08
3.20722e-08
3.19386e-08
3.18436e-08
3.17191e-08
3.16321e-08
3.1516e-08
3.14371e-08
3.13307e-08
3.12603e-08
3.11591e-08
3.10919e-08
3.09928e-08
3.09284e-08
3.08308e-08
3.07689e-08
3.06725e-08
3.06131e-08
3.05176e-08
3.04608e-08
3.03654e-08
3.03113e-08
3.02159e-08
3.01633e-08
3.00685e-08
3.00173e-08
2.99228e-08
2.98709e-08
2.97712e-08
3.0145e-08
4.04912e-06
3.99017e-08
1.24104e-07
1.23401e-07
1.22399e-07
1.20144e-07
1.16416e-07
1.11548e-07
1.06067e-07
1.0041e-07
9.48904e-08
8.96731e-08
8.48438e-08
8.04257e-08
7.64102e-08
7.27764e-08
6.94884e-08
6.652e-08
6.38294e-08
6.13975e-08
5.91831e-08
5.71774e-08
5.53404e-08
5.3673e-08
5.21354e-08
5.07379e-08
4.94394e-08
4.82586e-08
4.71521e-08
4.61467e-08
4.51966e-08
4.43344e-08
4.35119e-08
4.27681e-08
4.20513e-08
4.14059e-08
4.07767e-08
4.02139e-08
3.96584e-08
3.91651e-08
3.8672e-08
3.82382e-08
3.77985e-08
3.74156e-08
3.70216e-08
3.66825e-08
3.63273e-08
3.60263e-08
3.57052e-08
3.54373e-08
3.51452e-08
3.4907e-08
3.46409e-08
3.44275e-08
3.41846e-08
3.39932e-08
3.37718e-08
3.35996e-08
3.33951e-08
3.32418e-08
3.30532e-08
3.29148e-08
3.27422e-08
3.26167e-08
3.24575e-08
3.2343e-08
3.21968e-08
3.20916e-08
3.19572e-08
3.18617e-08
3.17364e-08
3.1649e-08
3.15322e-08
3.14529e-08
3.13458e-08
3.1275e-08
3.11731e-08
3.11056e-08
3.10058e-08
3.09412e-08
3.08429e-08
3.07807e-08
3.06838e-08
3.06241e-08
3.0528e-08
3.0471e-08
3.03749e-08
3.03207e-08
3.02248e-08
3.01722e-08
3.00768e-08
3.00255e-08
2.99303e-08
2.98784e-08
2.97785e-08
3.01635e-08
4.12753e-06
4.30512e-08
1.24103e-07
1.23395e-07
1.22403e-07
1.20175e-07
1.16487e-07
1.11659e-07
1.06211e-07
1.00579e-07
9.50747e-08
8.98658e-08
8.50396e-08
8.06205e-08
7.66015e-08
7.29622e-08
6.96678e-08
6.66921e-08
6.39942e-08
6.15547e-08
5.93329e-08
5.732e-08
5.54761e-08
5.38019e-08
5.22581e-08
5.08544e-08
4.95504e-08
4.83641e-08
4.72527e-08
4.62424e-08
4.52878e-08
4.44214e-08
4.35949e-08
4.28472e-08
4.21269e-08
4.14781e-08
4.08458e-08
4.028e-08
3.97217e-08
3.92257e-08
3.87301e-08
3.82939e-08
3.78519e-08
3.74669e-08
3.70708e-08
3.67297e-08
3.63727e-08
3.60699e-08
3.57471e-08
3.54777e-08
3.5184e-08
3.49444e-08
3.46768e-08
3.44622e-08
3.42179e-08
3.40253e-08
3.38028e-08
3.36296e-08
3.34239e-08
3.32696e-08
3.308e-08
3.29407e-08
3.27671e-08
3.26408e-08
3.24807e-08
3.23654e-08
3.22184e-08
3.21126e-08
3.19773e-08
3.18813e-08
3.17552e-08
3.16673e-08
3.15497e-08
3.147e-08
3.13622e-08
3.1291e-08
3.11885e-08
3.11206e-08
3.10201e-08
3.09551e-08
3.08562e-08
3.07937e-08
3.06961e-08
3.06362e-08
3.05394e-08
3.04822e-08
3.03855e-08
3.03311e-08
3.02346e-08
3.01819e-08
3.00858e-08
3.00346e-08
2.99387e-08
2.98867e-08
2.97865e-08
3.0183e-08
4.20261e-06
4.65805e-08
1.24103e-07
1.23389e-07
1.22406e-07
1.20208e-07
1.16561e-07
1.11774e-07
1.06362e-07
1.00755e-07
9.52682e-08
9.00684e-08
8.52459e-08
8.08258e-08
7.68035e-08
7.31584e-08
6.98575e-08
6.68742e-08
6.41686e-08
6.17211e-08
5.94917e-08
5.7471e-08
5.562e-08
5.39386e-08
5.23883e-08
5.09782e-08
4.96682e-08
4.84761e-08
4.73595e-08
4.63441e-08
4.53848e-08
4.45138e-08
4.36832e-08
4.29315e-08
4.22075e-08
4.1555e-08
4.09195e-08
4.03504e-08
3.97892e-08
3.92903e-08
3.87921e-08
3.83533e-08
3.79089e-08
3.75216e-08
3.71233e-08
3.67802e-08
3.64211e-08
3.61165e-08
3.57919e-08
3.55209e-08
3.52255e-08