/*--------------------------------*- C++ -*----------------------------------*\
| =========                 |                                                 |
| \\      /  F ield         | OpenFOAM: The Open Source CFD Toolbox           |
|  \\    /   O peration     | Version:  v2012                                 |
|   \\  /    A nd           | Website:  www.openfoam.com                      |
|    \\/     M anipulation  |                                                 |
\*---------------------------------------------------------------------------*/
FoamFile
{
    version     2.0;
    format      ascii;
    class       volVectorField;
    location    "58.5";
    object      wallShearStress;
}
// * * * * * * * * * * * * * * * * * * * * * * * * * * * * * * * * * * * * * //

dimensions      [0 2 -2 0 0 0 0];


internalField   uniform (0 0 0);

boundaryField
{
    inlet
    {
        type            calculated;
        value           uniform (0 0 0);
    }
    outlet
    {
        type            calculated;
        value           uniform (0 0 0);
    }
    topWall
    {
        type            calculated;
        value           nonuniform List<vector> 
545
(
(7.00365e-08 -4.93001e-08 0)
(7.00124e-08 -1.37913e-07 0)
(6.99684e-08 -2.30049e-07 0)
(6.99091e-08 -3.19515e-07 0)
(6.98346e-08 -4.05166e-07 0)
(6.97467e-08 -4.88101e-07 0)
(6.96466e-08 -5.69025e-07 0)
(6.95348e-08 -6.47902e-07 0)
(6.94125e-08 -7.24556e-07 0)
(6.92807e-08 -7.98987e-07 0)
(6.91402e-08 -8.71293e-07 0)
(6.89919e-08 -9.41557e-07 0)
(6.88365e-08 -1.00983e-06 0)
(6.86748e-08 -1.07614e-06 0)
(6.85075e-08 -1.14055e-06 0)
(6.83352e-08 -1.2031e-06 0)
(6.81586e-08 -1.26385e-06 0)
(6.79782e-08 -1.32285e-06 0)
(6.77945e-08 -1.38013e-06 0)
(6.76082e-08 -1.43575e-06 0)
(6.74195e-08 -1.48975e-06 0)
(6.7229e-08 -1.54218e-06 0)
(6.70371e-08 -1.59309e-06 0)
(6.68441e-08 -1.64251e-06 0)
(6.66504e-08 -1.69048e-06 0)
(6.64563e-08 -1.73706e-06 0)
(6.62621e-08 -1.78228e-06 0)
(6.60682e-08 -1.82617e-06 0)
(6.58747e-08 -1.86878e-06 0)
(6.56818e-08 -1.91015e-06 0)
(6.54899e-08 -1.95031e-06 0)
(6.52991e-08 -1.98929e-06 0)
(6.51096e-08 -2.02714e-06 0)
(6.49216e-08 -2.06388e-06 0)
(6.47352e-08 -2.09955e-06 0)
(6.45505e-08 -2.13418e-06 0)
(6.43677e-08 -2.1678e-06 0)
(6.41869e-08 -2.20044e-06 0)
(6.40082e-08 -2.23214e-06 0)
(6.38317e-08 -2.26291e-06 0)
(6.36574e-08 -2.29278e-06 0)
(6.34855e-08 -2.3218e-06 0)
(6.3316e-08 -2.34997e-06 0)
(6.31489e-08 -2.37732e-06 0)
(6.29844e-08 -2.40388e-06 0)
(6.28223e-08 -2.42968e-06 0)
(6.26629e-08 -2.45473e-06 0)
(6.2506e-08 -2.47906e-06 0)
(6.23517e-08 -2.50269e-06 0)
(6.22001e-08 -2.52564e-06 0)
(6.20511e-08 -2.54793e-06 0)
(6.19047e-08 -2.56958e-06 0)
(6.1761e-08 -2.59061e-06 0)
(6.16199e-08 -2.61104e-06 0)
(6.14815e-08 -2.63088e-06 0)
(6.13457e-08 -2.65016e-06 0)
(6.12124e-08 -2.66889e-06 0)
(6.10818e-08 -2.68709e-06 0)
(6.09538e-08 -2.70477e-06 0)
(6.08283e-08 -2.72195e-06 0)
(6.07053e-08 -2.73864e-06 0)
(6.05848e-08 -2.75485e-06 0)
(6.04668e-08 -2.77061e-06 0)
(6.03513e-08 -2.78593e-06 0)
(6.02381e-08 -2.80081e-06 0)
(6.01274e-08 -2.81527e-06 0)
(6.0019e-08 -2.82933e-06 0)
(5.99129e-08 -2.84299e-06 0)
(5.98091e-08 -2.85626e-06 0)
(5.97076e-08 -2.86917e-06 0)
(5.96083e-08 -2.88171e-06 0)
(5.95115e-08 -2.89389e-06 0)
(5.94175e-08 -2.90561e-06 0)
(5.93255e-08 -2.91697e-06 0)
(5.92343e-08 -2.92822e-06 0)
(5.91435e-08 -2.93941e-06 0)
(5.90527e-08 -2.95054e-06 0)
(5.8962e-08 -2.96162e-06 0)
(5.88714e-08 -2.97262e-06 0)
(5.8781e-08 -2.98355e-06 0)
(5.86906e-08 -2.99441e-06 0)
(5.86003e-08 -3.00521e-06 0)
(5.85101e-08 -3.01594e-06 0)
(5.842e-08 -3.02661e-06 0)
(5.833e-08 -3.03721e-06 0)
(5.82401e-08 -3.04775e-06 0)
(5.81503e-08 -3.05822e-06 0)
(5.80607e-08 -3.06863e-06 0)
(5.79712e-08 -3.07898e-06 0)
(5.78818e-08 -3.08926e-06 0)
(5.77925e-08 -3.09948e-06 0)
(5.77033e-08 -3.10963e-06 0)
(5.76143e-08 -3.11973e-06 0)
(5.75255e-08 -3.12976e-06 0)
(5.74364e-08 -3.13975e-06 0)
(5.73488e-08 -3.14957e-06 0)
(5.72672e-08 -3.15856e-06 0)
(5.71916e-08 -3.16672e-06 0)
(5.71183e-08 -3.17465e-06 0)
(5.70453e-08 -3.18262e-06 0)
(5.69722e-08 -3.19066e-06 0)
(5.68987e-08 -3.19873e-06 0)
(5.6825e-08 -3.20678e-06 0)
(5.67508e-08 -3.21484e-06 0)
(5.66763e-08 -3.22291e-06 0)
(5.66015e-08 -3.23099e-06 0)
(5.65263e-08 -3.23907e-06 0)
(5.64508e-08 -3.24717e-06 0)
(5.63749e-08 -3.25527e-06 0)
(5.62987e-08 -3.26338e-06 0)
(5.62221e-08 -3.2715e-06 0)
(5.61451e-08 -3.27963e-06 0)
(5.60678e-08 -3.28776e-06 0)
(5.59902e-08 -3.29591e-06 0)
(5.59121e-08 -3.30406e-06 0)
(5.58338e-08 -3.31222e-06 0)
(5.5755e-08 -3.32038e-06 0)
(5.56759e-08 -3.32856e-06 0)
(5.55964e-08 -3.33674e-06 0)
(5.55166e-08 -3.34493e-06 0)
(5.54364e-08 -3.35313e-06 0)
(5.53559e-08 -3.36133e-06 0)
(5.52749e-08 -3.36954e-06 0)
(5.51936e-08 -3.37776e-06 0)
(5.5112e-08 -3.38599e-06 0)
(5.50299e-08 -3.39422e-06 0)
(5.49475e-08 -3.40246e-06 0)
(5.48647e-08 -3.41071e-06 0)
(5.47816e-08 -3.41897e-06 0)
(5.46981e-08 -3.42723e-06 0)
(5.46142e-08 -3.4355e-06 0)
(5.45299e-08 -3.44377e-06 0)
(5.44452e-08 -3.45205e-06 0)
(5.43602e-08 -3.46034e-06 0)
(5.42748e-08 -3.46864e-06 0)
(5.4189e-08 -3.47694e-06 0)
(5.41029e-08 -3.48525e-06 0)
(5.40163e-08 -3.49356e-06 0)
(5.39294e-08 -3.50188e-06 0)
(5.38421e-08 -3.51021e-06 0)
(5.37544e-08 -3.51854e-06 0)
(5.36663e-08 -3.52688e-06 0)
(5.35778e-08 -3.53522e-06 0)
(5.3489e-08 -3.54357e-06 0)
(5.33997e-08 -3.55193e-06 0)
(5.33101e-08 -3.56029e-06 0)
(5.32201e-08 -3.56866e-06 0)
(5.31297e-08 -3.57703e-06 0)
(5.30389e-08 -3.58541e-06 0)
(5.29477e-08 -3.59379e-06 0)
(5.28561e-08 -3.60218e-06 0)
(5.27642e-08 -3.61058e-06 0)
(5.26718e-08 -3.61898e-06 0)
(5.25791e-08 -3.62738e-06 0)
(5.24859e-08 -3.63579e-06 0)
(5.23924e-08 -3.6442e-06 0)
(5.22984e-08 -3.65262e-06 0)
(5.22041e-08 -3.66105e-06 0)
(5.21094e-08 -3.66948e-06 0)
(5.20142e-08 -3.67791e-06 0)
(5.19187e-08 -3.68635e-06 0)
(5.18228e-08 -3.69479e-06 0)
(5.17264e-08 -3.70323e-06 0)
(5.16297e-08 -3.71168e-06 0)
(5.15326e-08 -3.72014e-06 0)
(5.1435e-08 -3.72859e-06 0)
(5.13371e-08 -3.73706e-06 0)
(5.12388e-08 -3.74552e-06 0)
(5.114e-08 -3.75399e-06 0)
(5.10409e-08 -3.76246e-06 0)
(5.09413e-08 -3.77094e-06 0)
(5.08414e-08 -3.77942e-06 0)
(5.0741e-08 -3.7879e-06 0)
(5.06402e-08 -3.79639e-06 0)
(5.05391e-08 -3.80488e-06 0)
(5.04375e-08 -3.81337e-06 0)
(5.03355e-08 -3.82186e-06 0)
(5.02331e-08 -3.83036e-06 0)
(5.01303e-08 -3.83886e-06 0)
(5.00271e-08 -3.84736e-06 0)
(4.99235e-08 -3.85587e-06 0)
(4.98194e-08 -3.86438e-06 0)
(4.9715e-08 -3.87289e-06 0)
(4.96101e-08 -3.8814e-06 0)
(4.95049e-08 -3.88991e-06 0)
(4.93992e-08 -3.89843e-06 0)
(4.92931e-08 -3.90695e-06 0)
(4.91866e-08 -3.91547e-06 0)
(4.90797e-08 -3.92399e-06 0)
(4.89724e-08 -3.93251e-06 0)
(4.88647e-08 -3.94103e-06 0)
(4.87566e-08 -3.94956e-06 0)
(4.8648e-08 -3.95808e-06 0)
(4.8539e-08 -3.96661e-06 0)
(4.84297e-08 -3.97514e-06 0)
(4.83199e-08 -3.98367e-06 0)
(4.82097e-08 -3.9922e-06 0)
(4.80991e-08 -4.00073e-06 0)
(4.79881e-08 -4.00926e-06 0)
(4.78766e-08 -4.01779e-06 0)
(4.77648e-08 -4.02632e-06 0)
(4.76525e-08 -4.03485e-06 0)
(4.75398e-08 -4.04338e-06 0)
(4.74268e-08 -4.05191e-06 0)
(4.73133e-08 -4.06044e-06 0)
(4.71993e-08 -4.06897e-06 0)
(4.7085e-08 -4.0775e-06 0)
(4.69703e-08 -4.08603e-06 0)
(4.68551e-08 -4.09456e-06 0)
(4.67396e-08 -4.10309e-06 0)
(4.66236e-08 -4.11161e-06 0)
(4.65072e-08 -4.12014e-06 0)
(4.63904e-08 -4.12866e-06 0)
(4.62732e-08 -4.13719e-06 0)
(4.61556e-08 -4.14571e-06 0)
(4.60376e-08 -4.15423e-06 0)
(4.59192e-08 -4.16274e-06 0)
(4.58003e-08 -4.17126e-06 0)
(4.56811e-08 -4.17977e-06 0)
(4.55614e-08 -4.18828e-06 0)
(4.54413e-08 -4.19679e-06 0)
(4.53209e-08 -4.2053e-06 0)
(4.52e-08 -4.2138e-06 0)
(4.50787e-08 -4.2223e-06 0)
(4.4957e-08 -4.2308e-06 0)
(4.48349e-08 -4.23929e-06 0)
(4.47124e-08 -4.24779e-06 0)
(4.45894e-08 -4.25627e-06 0)
(4.44661e-08 -4.26476e-06 0)
(4.43424e-08 -4.27324e-06 0)
(4.42183e-08 -4.28172e-06 0)
(4.40937e-08 -4.29019e-06 0)
(4.39688e-08 -4.29866e-06 0)
(4.38435e-08 -4.30713e-06 0)
(4.37177e-08 -4.31559e-06 0)
(4.35916e-08 -4.32405e-06 0)
(4.34651e-08 -4.3325e-06 0)
(4.33382e-08 -4.34094e-06 0)
(4.32108e-08 -4.34939e-06 0)
(4.30831e-08 -4.35782e-06 0)
(4.2955e-08 -4.36626e-06 0)
(4.28265e-08 -4.37468e-06 0)
(4.26976e-08 -4.38311e-06 0)
(4.25683e-08 -4.39152e-06 0)
(4.24386e-08 -4.39993e-06 0)
(4.23086e-08 -4.40834e-06 0)
(4.21781e-08 -4.41673e-06 0)
(4.20473e-08 -4.42513e-06 0)
(4.1916e-08 -4.43351e-06 0)
(4.17844e-08 -4.44189e-06 0)
(4.16524e-08 -4.45026e-06 0)
(4.152e-08 -4.45863e-06 0)
(4.13873e-08 -4.46698e-06 0)
(4.12541e-08 -4.47534e-06 0)
(4.11206e-08 -4.48368e-06 0)
(4.09867e-08 -4.49202e-06 0)
(4.08524e-08 -4.50034e-06 0)
(4.07178e-08 -4.50867e-06 0)
(4.05828e-08 -4.51698e-06 0)
(4.04474e-08 -4.52528e-06 0)
(4.03116e-08 -4.53358e-06 0)
(4.01755e-08 -4.54187e-06 0)
(4.0039e-08 -4.55015e-06 0)
(3.99021e-08 -4.55842e-06 0)
(3.97649e-08 -4.56668e-06 0)
(3.96273e-08 -4.57493e-06 0)
(3.94895e-08 -4.58317e-06 0)
(3.93505e-08 -4.59142e-06 0)
(3.92131e-08 -4.59959e-06 0)
(3.90818e-08 -4.60737e-06 0)
(3.89545e-08 -4.61477e-06 0)
(3.88278e-08 -4.62211e-06 0)
(3.87007e-08 -4.62951e-06 0)
(3.85724e-08 -4.637e-06 0)
(3.84428e-08 -4.64456e-06 0)
(3.83117e-08 -4.65217e-06 0)
(3.81792e-08 -4.65982e-06 0)
(3.80453e-08 -4.66754e-06 0)
(3.79098e-08 -4.67531e-06 0)
(3.7773e-08 -4.68314e-06 0)
(3.76346e-08 -4.69102e-06 0)
(3.74947e-08 -4.69896e-06 0)
(3.73534e-08 -4.70695e-06 0)
(3.72104e-08 -4.71501e-06 0)
(3.7066e-08 -4.72312e-06 0)
(3.692e-08 -4.73128e-06 0)
(3.67724e-08 -4.7395e-06 0)
(3.66232e-08 -4.74778e-06 0)
(3.64725e-08 -4.75611e-06 0)
(3.63201e-08 -4.7645e-06 0)
(3.61661e-08 -4.77294e-06 0)
(3.60105e-08 -4.78144e-06 0)
(3.58532e-08 -4.78999e-06 0)
(3.56942e-08 -4.7986e-06 0)
(3.55336e-08 -4.80726e-06 0)
(3.53713e-08 -4.81598e-06 0)
(3.52073e-08 -4.82475e-06 0)
(3.50415e-08 -4.83358e-06 0)
(3.48741e-08 -4.84246e-06 0)
(3.47049e-08 -4.85139e-06 0)
(3.45339e-08 -4.86037e-06 0)
(3.43612e-08 -4.86941e-06 0)
(3.41868e-08 -4.8785e-06 0)
(3.40105e-08 -4.88764e-06 0)
(3.38324e-08 -4.89683e-06 0)
(3.36525e-08 -4.90608e-06 0)
(3.34708e-08 -4.91537e-06 0)
(3.32873e-08 -4.92472e-06 0)
(3.3102e-08 -4.93411e-06 0)
(3.29147e-08 -4.94355e-06 0)
(3.27257e-08 -4.95304e-06 0)
(3.25347e-08 -4.96258e-06 0)
(3.23419e-08 -4.97216e-06 0)
(3.21472e-08 -4.98179e-06 0)
(3.19505e-08 -4.99147e-06 0)
(3.1752e-08 -5.00119e-06 0)
(3.15515e-08 -5.01095e-06 0)
(3.13492e-08 -5.02076e-06 0)
(3.11449e-08 -5.03061e-06 0)
(3.09387e-08 -5.04051e-06 0)
(3.07305e-08 -5.05044e-06 0)
(3.05204e-08 -5.06041e-06 0)
(3.03083e-08 -5.07042e-06 0)
(3.00942e-08 -5.08047e-06 0)
(2.98782e-08 -5.09055e-06 0)
(2.96603e-08 -5.10068e-06 0)
(2.94403e-08 -5.11083e-06 0)
(2.92184e-08 -5.12102e-06 0)
(2.89945e-08 -5.13124e-06 0)
(2.87686e-08 -5.1415e-06 0)
(2.85407e-08 -5.15178e-06 0)
(2.83109e-08 -5.1621e-06 0)
(2.80791e-08 -5.17243e-06 0)
(2.78453e-08 -5.1828e-06 0)
(2.76095e-08 -5.19319e-06 0)
(2.73718e-08 -5.2036e-06 0)
(2.7132e-08 -5.21403e-06 0)
(2.68904e-08 -5.22449e-06 0)
(2.66467e-08 -5.23496e-06 0)
(2.64011e-08 -5.24545e-06 0)
(2.61536e-08 -5.25596e-06 0)
(2.59041e-08 -5.26648e-06 0)
(2.56526e-08 -5.27701e-06 0)
(2.53993e-08 -5.28755e-06 0)
(2.5144e-08 -5.2981e-06 0)
(2.48869e-08 -5.30865e-06 0)
(2.46278e-08 -5.31921e-06 0)
(2.43669e-08 -5.32978e-06 0)
(2.41041e-08 -5.34034e-06 0)
(2.38395e-08 -5.3509e-06 0)
(2.3573e-08 -5.36146e-06 0)
(2.33048e-08 -5.37201e-06 0)
(2.30347e-08 -5.38255e-06 0)
(2.27629e-08 -5.39309e-06 0)
(2.24893e-08 -5.40361e-06 0)
(2.22141e-08 -5.41412e-06 0)
(2.19371e-08 -5.4246e-06 0)
(2.16584e-08 -5.43507e-06 0)
(2.13781e-08 -5.44552e-06 0)
(2.10962e-08 -5.45594e-06 0)
(2.08127e-08 -5.46634e-06 0)
(2.05276e-08 -5.4767e-06 0)
(2.02411e-08 -5.48703e-06 0)
(1.9953e-08 -5.49733e-06 0)
(1.96635e-08 -5.50759e-06 0)
(1.93726e-08 -5.51781e-06 0)
(1.90803e-08 -5.52799e-06 0)
(1.87867e-08 -5.53812e-06 0)
(1.84918e-08 -5.54819e-06 0)
(1.81956e-08 -5.55823e-06 0)
(1.78982e-08 -5.56819e-06 0)
(1.75997e-08 -5.57811e-06 0)
(1.73001e-08 -5.58796e-06 0)
(1.69995e-08 -5.59775e-06 0)
(1.66978e-08 -5.60747e-06 0)
(1.63952e-08 -5.61712e-06 0)
(1.60917e-08 -5.62669e-06 0)
(1.57874e-08 -5.63619e-06 0)
(1.54823e-08 -5.64561e-06 0)
(1.51765e-08 -5.65494e-06 0)
(1.487e-08 -5.66418e-06 0)
(1.45629e-08 -5.67334e-06 0)
(1.42553e-08 -5.6824e-06 0)
(1.39473e-08 -5.69137e-06 0)
(1.36389e-08 -5.70022e-06 0)
(1.33302e-08 -5.70899e-06 0)
(1.30212e-08 -5.71763e-06 0)
(1.27121e-08 -5.72617e-06 0)
(1.24028e-08 -5.73459e-06 0)
(1.20936e-08 -5.7429e-06 0)
(1.17844e-08 -5.75107e-06 0)
(1.14754e-08 -5.75913e-06 0)
(1.11666e-08 -5.76705e-06 0)
(1.08581e-08 -5.77485e-06 0)
(1.05499e-08 -5.7825e-06 0)
(1.02423e-08 -5.79003e-06 0)
(9.93522e-09 -5.79739e-06 0)
(9.62881e-09 -5.80463e-06 0)
(9.32312e-09 -5.8117e-06 0)
(9.01828e-09 -5.81862e-06 0)
(8.71435e-09 -5.82538e-06 0)
(8.41146e-09 -5.83199e-06 0)
(8.10965e-09 -5.83842e-06 0)
(7.80908e-09 -5.84469e-06 0)
(7.50978e-09 -5.85078e-06 0)
(7.2119e-09 -5.85671e-06 0)
(6.9155e-09 -5.86245e-06 0)
(6.62071e-09 -5.86802e-06 0)
(6.32759e-09 -5.87339e-06 0)
(6.03628e-09 -5.87859e-06 0)
(5.74685e-09 -5.88358e-06 0)
(5.45942e-09 -5.88839e-06 0)
(5.17407e-09 -5.89299e-06 0)
(4.89092e-09 -5.8974e-06 0)
(4.61005e-09 -5.9016e-06 0)
(4.33158e-09 -5.9056e-06 0)
(4.05559e-09 -5.90938e-06 0)
(3.78221e-09 -5.91297e-06 0)
(3.5115e-09 -5.91632e-06 0)
(3.2436e-09 -5.91947e-06 0)
(2.97856e-09 -5.92239e-06 0)
(2.71652e-09 -5.92511e-06 0)
(2.45756e-09 -5.92758e-06 0)
(2.20177e-09 -5.92985e-06 0)
(1.94924e-09 -5.93186e-06 0)
(1.70008e-09 -5.93367e-06 0)
(1.45437e-09 -5.93523e-06 0)
(1.21219e-09 -5.93658e-06 0)
(9.73644e-10 -5.93767e-06 0)
(7.38808e-10 -5.93855e-06 0)
(5.07763e-10 -5.93916e-06 0)
(2.80597e-10 -5.93956e-06 0)
(5.73846e-11 -5.9397e-06 0)
(-1.61795e-10 -5.93963e-06 0)
(-3.76867e-10 -5.93928e-06 0)
(-5.87761e-10 -5.93872e-06 0)
(-7.94401e-10 -5.9379e-06 0)
(-9.96727e-10 -5.93686e-06 0)
(-1.19466e-09 -5.93554e-06 0)
(-1.38816e-09 -5.93402e-06 0)
(-1.57714e-09 -5.93222e-06 0)
(-1.76155e-09 -5.93021e-06 0)
(-1.94134e-09 -5.92793e-06 0)
(-2.11646e-09 -5.92544e-06 0)
(-2.28683e-09 -5.92268e-06 0)
(-2.45245e-09 -5.91971e-06 0)
(-2.61315e-09 -5.91647e-06 0)
(-2.76933e-09 -5.91303e-06 0)
(-2.91881e-09 -5.90931e-06 0)
(-3.0701e-09 -5.90539e-06 0)
(-3.22847e-09 -5.90076e-06 0)
(-3.38626e-09 -5.89542e-06 0)
(-3.53914e-09 -5.88974e-06 0)
(-3.68418e-09 -5.88387e-06 0)
(-3.82071e-09 -5.87774e-06 0)
(-3.94888e-09 -5.87144e-06 0)
(-4.06882e-09 -5.8649e-06 0)
(-4.18083e-09 -5.85821e-06 0)
(-4.28506e-09 -5.8513e-06 0)
(-4.38187e-09 -5.84428e-06 0)
(-4.47142e-09 -5.83706e-06 0)
(-4.55403e-09 -5.82975e-06 0)
(-4.62986e-09 -5.82226e-06 0)
(-4.69919e-09 -5.81471e-06 0)
(-4.76219e-09 -5.807e-06 0)
(-4.81913e-09 -5.79924e-06 0)
(-4.87014e-09 -5.79134e-06 0)
(-4.91551e-09 -5.78342e-06 0)
(-4.95534e-09 -5.77538e-06 0)
(-4.98991e-09 -5.76733e-06 0)
(-5.0193e-09 -5.75918e-06 0)
(-5.04378e-09 -5.75103e-06 0)
(-5.06342e-09 -5.74281e-06 0)
(-5.07848e-09 -5.7346e-06 0)
(-5.08902e-09 -5.72632e-06 0)
(-5.09527e-09 -5.71808e-06 0)
(-5.09729e-09 -5.70978e-06 0)
(-5.09531e-09 -5.70153e-06 0)
(-5.08937e-09 -5.69325e-06 0)
(-5.07969e-09 -5.68502e-06 0)
(-5.0663e-09 -5.67676e-06 0)
(-5.0494e-09 -5.66858e-06 0)
(-5.02902e-09 -5.66037e-06 0)
(-5.00536e-09 -5.65226e-06 0)
(-4.97844e-09 -5.64413e-06 0)
(-4.94844e-09 -5.6361e-06 0)
(-4.91537e-09 -5.62807e-06 0)
(-4.87941e-09 -5.62015e-06 0)
(-4.84057e-09 -5.61224e-06 0)
(-4.79901e-09 -5.60444e-06 0)
(-4.75474e-09 -5.59667e-06 0)
(-4.70792e-09 -5.58902e-06 0)
(-4.65855e-09 -5.58139e-06 0)
(-4.60677e-09 -5.5739e-06 0)
(-4.55259e-09 -5.56645e-06 0)
(-4.49614e-09 -5.55913e-06 0)
(-4.43742e-09 -5.55186e-06 0)
(-4.37657e-09 -5.54473e-06 0)
(-4.31357e-09 -5.53766e-06 0)
(-4.24855e-09 -5.53073e-06 0)
(-4.18151e-09 -5.52387e-06 0)
(-4.11256e-09 -5.51716e-06 0)
(-4.0417e-09 -5.51053e-06 0)
(-3.96904e-09 -5.50405e-06 0)
(-3.89456e-09 -5.49765e-06 0)
(-3.81839e-09 -5.49141e-06 0)
(-3.7405e-09 -5.48525e-06 0)
(-3.66101e-09 -5.47927e-06 0)
(-3.5799e-09 -5.47337e-06 0)
(-3.49727e-09 -5.46765e-06 0)
(-3.41311e-09 -5.46202e-06 0)
(-3.32752e-09 -5.45657e-06 0)
(-3.24049e-09 -5.45122e-06 0)
(-3.15212e-09 -5.44605e-06 0)
(-3.06239e-09 -5.44099e-06 0)
(-2.97139e-09 -5.4361e-06 0)
(-2.87913e-09 -5.43134e-06 0)
(-2.78568e-09 -5.42675e-06 0)
(-2.69105e-09 -5.42229e-06 0)
(-2.59532e-09 -5.41801e-06 0)
(-2.49848e-09 -5.41386e-06 0)
(-2.40061e-09 -5.40989e-06 0)
(-2.30173e-09 -5.40606e-06 0)
(-2.20189e-09 -5.40241e-06 0)
(-2.10112e-09 -5.3989e-06 0)
(-1.99947e-09 -5.39558e-06 0)
(-1.89697e-09 -5.3924e-06 0)
(-1.79367e-09 -5.38941e-06 0)
(-1.68959e-09 -5.38657e-06 0)
(-1.58479e-09 -5.38391e-06 0)
(-1.47928e-09 -5.38141e-06 0)
(-1.37313e-09 -5.37909e-06 0)
(-1.26637e-09 -5.37693e-06 0)
(-1.15904e-09 -5.37496e-06 0)
(-1.05119e-09 -5.37314e-06 0)
(-9.4289e-10 -5.37155e-06 0)
(-8.34207e-10 -5.36998e-06 0)
(-7.25251e-10 -5.36908e-06 0)
(-6.1609e-10 -5.36673e-06 0)
(-5.06967e-10 -5.36989e-06 0)
(-3.97649e-10 -5.35518e-06 0)
(-2.88716e-10 -5.3982e-06 0)
(-1.79702e-10 -5.23621e-06 0)
(-6.54613e-11 -5.66609e-06 0)
(-3.06305e-12 -4.94875e-06 0)
)
;
    }
    bottomWall
    {
        type            calculated;
        value           nonuniform List<vector> 
449
(
(-52.6696 -0.955208 0)
(-34.7161 -0.00279472 0)
(-34.3377 -0.000252649 0)
(-32.9773 -0.000363027 0)
(-31.8522 -0.000315062 0)
(-30.8164 -0.000284004 0)
(-29.9004 -0.000248949 0)
(-29.1019 -0.000217038 0)
(-28.4023 -0.000190531 0)
(-27.7838 -0.000168808 0)
(-27.2319 -0.000150823 0)
(-26.7358 -0.000135749 0)
(-26.2865 -0.000123118 0)
(-25.8764 -0.000112456 0)
(-25.4997 -0.000103258 0)
(-25.1523 -9.52649e-05 0)
(-24.8301 -8.82838e-05 0)
(-24.5303 -8.21566e-05 0)
(-24.25 -7.67579e-05 0)
(-23.9871 -7.1944e-05 0)
(-23.7397 -6.76254e-05 0)
(-23.5063 -6.3741e-05 0)
(-23.2855 -6.02363e-05 0)
(-23.0761 -5.70562e-05 0)
(-22.877 -5.41611e-05 0)
(-22.6874 -5.15045e-05 0)
(-22.5065 -4.90704e-05 0)
(-22.3336 -4.68319e-05 0)
(-22.1681 -4.47671e-05 0)
(-22.0094 -4.28517e-05 0)
(-21.857 -4.1076e-05 0)
(-21.7105 -3.94237e-05 0)
(-21.5694 -3.78865e-05 0)
(-21.4335 -3.64461e-05 0)
(-21.3024 -3.51015e-05 0)
(-21.1757 -3.38371e-05 0)
(-21.0532 -3.26544e-05 0)
(-20.9347 -3.15444e-05 0)
(-20.8199 -3.04979e-05 0)
(-20.7086 -2.95118e-05 0)
(-20.6006 -2.85809e-05 0)
(-20.4957 -2.77022e-05 0)
(-20.3938 -2.68673e-05 0)
(-20.2946 -2.60721e-05 0)
(-20.1982 -2.53169e-05 0)
(-20.1043 -2.45909e-05 0)
(-20.0129 -2.38996e-05 0)
(-19.9237 -2.32418e-05 0)
(-19.8369 -2.26042e-05 0)
(-19.7522 -2.2004e-05 0)
(-19.6695 -2.1423e-05 0)
(-19.5888 -2.08718e-05 0)
(-19.51 -2.03454e-05 0)
(-19.433 -1.98391e-05 0)
(-19.3576 -1.93576e-05 0)
(-19.284 -1.88946e-05 0)
(-19.2118 -1.84528e-05 0)
(-19.1413 -1.80283e-05 0)
(-19.0721 -1.76214e-05 0)
(-19.0043 -1.723e-05 0)
(-18.9379 -1.68538e-05 0)
(-18.8728 -1.64921e-05 0)
(-18.8089 -1.61433e-05 0)
(-18.7462 -1.58078e-05 0)
(-18.6846 -1.54843e-05 0)
(-18.6242 -1.51715e-05 0)
(-18.5648 -1.48709e-05 0)
(-18.5064 -1.45779e-05 0)
(-18.4491 -1.42977e-05 0)
(-18.3927 -1.40233e-05 0)
(-18.3373 -1.37602e-05 0)
(-18.2827 -1.35037e-05 0)
(-18.2291 -1.32556e-05 0)
(-18.1763 -1.30155e-05 0)
(-18.1243 -1.27808e-05 0)
(-18.0732 -1.25554e-05 0)
(-18.0228 -1.23347e-05 0)
(-17.9732 -1.21208e-05 0)
(-17.9244 -1.19138e-05 0)
(-17.8762 -1.1711e-05 0)
(-17.8288 -1.15153e-05 0)
(-17.782 -1.13243e-05 0)
(-17.7359 -1.11376e-05 0)
(-17.6904 -1.09575e-05 0)
(-17.6456 -1.07806e-05 0)
(-17.6014 -1.06088e-05 0)
(-17.5578 -1.04424e-05 0)
(-17.5148 -1.02787e-05 0)
(-17.4723 -1.01199e-05 0)
(-17.4304 -9.96554e-06 0)
(-17.389 -9.81376e-06 0)
(-17.3482 -9.66656e-06 0)
(-17.3079 -9.5234e-06 0)
(-17.268 -9.38248e-06 0)
(-17.2287 -9.24565e-06 0)
(-17.1899 -9.11253e-06 0)
(-17.1515 -8.9814e-06 0)
(-17.1136 -8.85382e-06 0)
(-17.0761 -8.72987e-06 0)
(-17.0391 -8.60757e-06 0)
(-17.0024 -8.48841e-06 0)
(-16.9663 -8.37274e-06 0)
(-16.9305 -8.25859e-06 0)
(-16.8951 -8.14704e-06 0)
(-16.8601 -8.03874e-06 0)
(-16.8255 -7.93219e-06 0)
(-16.7913 -7.82757e-06 0)
(-16.7574 -7.72577e-06 0)
(-16.7239 -7.62628e-06 0)
(-16.6908 -7.52805e-06 0)
(-16.658 -7.4322e-06 0)
(-16.6255 -7.33893e-06 0)
(-16.5934 -7.24672e-06 0)
(-16.5616 -7.15645e-06 0)
(-16.5301 -7.06844e-06 0)
(-16.499 -6.98217e-06 0)
(-16.4681 -6.89695e-06 0)
(-16.4376 -6.81376e-06 0)
(-16.4073 -6.73255e-06 0)
(-16.3773 -6.65247e-06 0)
(-16.3476 -6.57372e-06 0)
(-16.3182 -6.49684e-06 0)
(-16.2891 -6.42156e-06 0)
(-16.2603 -6.34714e-06 0)
(-16.2317 -6.27418e-06 0)
(-16.2033 -6.20289e-06 0)
(-16.1752 -6.13284e-06 0)
(-16.1474 -6.06368e-06 0)
(-16.1198 -5.99591e-06 0)
(-16.0925 -5.92961e-06 0)
(-16.0654 -5.86433e-06 0)
(-16.0385 -5.79996e-06 0)
(-16.0119 -5.73683e-06 0)
(-15.9855 -5.675e-06 0)
(-15.9593 -5.61407e-06 0)
(-15.9333 -5.55402e-06 0)
(-15.9076 -5.49505e-06 0)
(-15.882 -5.43728e-06 0)
(-15.8567 -5.38031e-06 0)
(-15.8316 -5.32418e-06 0)
(-15.8067 -5.269e-06 0)
(-15.7819 -5.2149e-06 0)
(-15.7574 -5.16159e-06 0)
(-15.7331 -5.109e-06 0)
(-15.7089 -5.0573e-06 0)
(-15.685 -5.00652e-06 0)
(-15.6612 -4.95656e-06 0)
(-15.6376 -4.9072e-06 0)
(-15.6142 -4.85868e-06 0)
(-15.591 -4.81091e-06 0)
(-15.5679 -4.764e-06 0)
(-15.545 -4.71764e-06 0)
(-15.5223 -4.67197e-06 0)
(-15.4997 -4.62704e-06 0)
(-15.4774 -4.58284e-06 0)
(-15.4551 -4.53928e-06 0)
(-15.433 -4.49625e-06 0)
(-15.4111 -4.45392e-06 0)
(-15.3894 -4.41222e-06 0)
(-15.3678 -4.37117e-06 0)
(-15.3463 -4.33064e-06 0)
(-15.325 -4.29065e-06 0)
(-15.3038 -4.25132e-06 0)
(-15.2828 -4.2125e-06 0)
(-15.2619 -4.17431e-06 0)
(-15.2412 -4.13651e-06 0)
(-15.2206 -4.09936e-06 0)
(-15.2001 -4.06262e-06 0)
(-15.1798 -4.02661e-06 0)
(-15.1596 -3.99077e-06 0)
(-15.1395 -3.95571e-06 0)
(-15.1196 -3.92087e-06 0)
(-15.0998 -3.88426e-06 0)
(-15.0812 -3.85408e-06 0)
(-15.0638 -3.82736e-06 0)
(-15.0462 -3.79642e-06 0)
(-15.0287 -3.76614e-06 0)
(-15.0111 -3.73649e-06 0)
(-14.9934 -3.70672e-06 0)
(-14.9757 -3.67732e-06 0)
(-14.9579 -3.64793e-06 0)
(-14.9401 -3.61874e-06 0)
(-14.9222 -3.58967e-06 0)
(-14.9043 -3.56073e-06 0)
(-14.8863 -3.53189e-06 0)
(-14.8683 -3.50317e-06 0)
(-14.8502 -3.47454e-06 0)
(-14.8321 -3.44608e-06 0)
(-14.8139 -3.41771e-06 0)
(-14.7957 -3.38948e-06 0)
(-14.7775 -3.36134e-06 0)
(-14.7592 -3.33333e-06 0)
(-14.7409 -3.30545e-06 0)
(-14.7225 -3.2777e-06 0)
(-14.704 -3.25007e-06 0)
(-14.6856 -3.22256e-06 0)
(-14.6671 -3.19515e-06 0)
(-14.6485 -3.16791e-06 0)
(-14.6299 -3.14078e-06 0)
(-14.6113 -3.11379e-06 0)
(-14.5926 -3.08691e-06 0)
(-14.5739 -3.06017e-06 0)
(-14.5551 -3.03356e-06 0)
(-14.5364 -3.00709e-06 0)
(-14.5175 -2.98075e-06 0)
(-14.4987 -2.95454e-06 0)
(-14.4797 -2.92845e-06 0)
(-14.4608 -2.90254e-06 0)
(-14.4418 -2.87672e-06 0)
(-14.4228 -2.85107e-06 0)
(-14.4038 -2.82553e-06 0)
(-14.3847 -2.80015e-06 0)
(-14.3656 -2.7749e-06 0)
(-14.3464 -2.7498e-06 0)
(-14.3272 -2.72483e-06 0)
(-14.308 -2.69998e-06 0)
(-14.2888 -2.67532e-06 0)
(-14.2695 -2.65075e-06 0)
(-14.2502 -2.62636e-06 0)
(-14.2309 -2.60208e-06 0)
(-14.2115 -2.57797e-06 0)
(-14.1921 -2.55398e-06 0)
(-14.1727 -2.53017e-06 0)
(-14.1532 -2.50646e-06 0)
(-14.1337 -2.48293e-06 0)
(-14.1142 -2.45952e-06 0)
(-14.0947 -2.43629e-06 0)
(-14.0752 -2.41316e-06 0)
(-14.0556 -2.39022e-06 0)
(-14.036 -2.36738e-06 0)
(-14.0163 -2.34473e-06 0)
(-13.9967 -2.32219e-06 0)
(-13.977 -2.29984e-06 0)
(-13.9573 -2.27759e-06 0)
(-13.9376 -2.25552e-06 0)
(-13.9179 -2.23357e-06 0)
(-13.8981 -2.21181e-06 0)
(-13.8783 -2.19014e-06 0)
(-13.8585 -2.16867e-06 0)
(-13.8387 -2.14731e-06 0)
(-13.8189 -2.12615e-06 0)
(-13.7991 -2.10507e-06 0)
(-13.7792 -2.0842e-06 0)
(-13.7593 -2.06341e-06 0)
(-13.7394 -2.04284e-06 0)
(-13.7195 -2.02236e-06 0)
(-13.6996 -2.00207e-06 0)
(-13.6796 -1.98188e-06 0)
(-13.6597 -1.9619e-06 0)
(-13.6397 -1.94201e-06 0)
(-13.6197 -1.92231e-06 0)
(-13.5997 -1.90271e-06 0)
(-13.5797 -1.88332e-06 0)
(-13.5597 -1.86402e-06 0)
(-13.5397 -1.8449e-06 0)
(-13.5197 -1.8259e-06 0)
(-13.4996 -1.80708e-06 0)
(-13.4796 -1.78837e-06 0)
(-13.4595 -1.76983e-06 0)
(-13.4394 -1.75141e-06 0)
(-13.4194 -1.73317e-06 0)
(-13.3993 -1.71505e-06 0)
(-13.3792 -1.69708e-06 0)
(-13.3591 -1.67925e-06 0)
(-13.339 -1.66158e-06 0)
(-13.3189 -1.64404e-06 0)
(-13.2988 -1.62663e-06 0)
(-13.2787 -1.60938e-06 0)
(-13.2586 -1.59227e-06 0)
(-13.2385 -1.5753e-06 0)
(-13.2184 -1.55845e-06 0)
(-13.1983 -1.54178e-06 0)
(-13.1782 -1.52522e-06 0)
(-13.158 -1.50883e-06 0)
(-13.1379 -1.49253e-06 0)
(-13.1178 -1.47642e-06 0)
(-13.0977 -1.46041e-06 0)
(-13.0776 -1.44456e-06 0)
(-13.0575 -1.42882e-06 0)
(-13.0374 -1.41326e-06 0)
(-13.0173 -1.39779e-06 0)
(-12.9972 -1.38249e-06 0)
(-12.9771 -1.36728e-06 0)
(-12.957 -1.35227e-06 0)
(-12.9369 -1.33733e-06 0)
(-12.9169 -1.32257e-06 0)
(-12.8968 -1.3079e-06 0)
(-12.8767 -1.29342e-06 0)
(-12.8567 -1.279e-06 0)
(-12.8366 -1.26477e-06 0)
(-12.8166 -1.25063e-06 0)
(-12.7966 -1.23666e-06 0)
(-12.7765 -1.22275e-06 0)
(-12.7565 -1.20904e-06 0)
(-12.7365 -1.19541e-06 0)
(-12.7165 -1.18194e-06 0)
(-12.6966 -1.16855e-06 0)
(-12.6766 -1.15534e-06 0)
(-12.6566 -1.14222e-06 0)
(-12.6367 -1.12924e-06 0)
(-12.6168 -1.11635e-06 0)
(-12.5968 -1.10363e-06 0)
(-12.5769 -1.09099e-06 0)
(-12.5571 -1.0785e-06 0)
(-12.5372 -1.0661e-06 0)
(-12.5173 -1.05386e-06 0)
(-12.4975 -1.0417e-06 0)
(-12.4776 -1.02968e-06 0)
(-12.4578 -1.01776e-06 0)
(-12.438 -1.00598e-06 0)
(-12.4182 -9.94287e-07 0)
(-12.3985 -9.82734e-07 0)
(-12.3787 -9.71282e-07 0)
(-12.359 -9.59942e-07 0)
(-12.3393 -9.48714e-07 0)
(-12.3196 -9.3761e-07 0)
(-12.3 -9.26606e-07 0)
(-12.2803 -9.15711e-07 0)
(-12.2607 -9.04931e-07 0)
(-12.2411 -8.9426e-07 0)
(-12.2215 -8.83694e-07 0)
(-12.2019 -8.73232e-07 0)
(-12.1824 -8.62887e-07 0)
(-12.1628 -8.52635e-07 0)
(-12.1433 -8.425e-07 0)
(-12.1239 -8.32456e-07 0)
(-12.1044 -8.2253e-07 0)
(-12.085 -8.12685e-07 0)
(-12.0656 -8.02968e-07 0)
(-12.0462 -7.93331e-07 0)
(-12.0268 -7.83811e-07 0)
(-12.0075 -7.74368e-07 0)
(-11.9882 -7.65057e-07 0)
(-11.9689 -7.55809e-07 0)
(-11.9496 -7.46686e-07 0)
(-11.9304 -7.37633e-07 0)
(-11.9112 -7.2871e-07 0)
(-11.892 -7.19844e-07 0)
(-11.8729 -7.11109e-07 0)
(-11.8538 -7.02435e-07 0)
(-11.8347 -6.93881e-07 0)
(-11.8156 -6.85389e-07 0)
(-11.7966 -6.7702e-07 0)
(-11.7776 -6.68711e-07 0)
(-11.7586 -6.60516e-07 0)
(-11.7396 -6.52391e-07 0)
(-11.7207 -6.44374e-07 0)
(-11.7018 -6.36412e-07 0)
(-11.683 -6.28579e-07 0)
(-11.6641 -6.20757e-07 0)
(-11.6453 -6.13123e-07 0)
(-11.6265 -6.05377e-07 0)
(-11.6078 -5.9796e-07 0)
(-11.5891 -5.90741e-07 0)
(-11.5683 -5.82054e-07 0)
(-11.5457 -5.72817e-07 0)
(-11.5235 -5.64527e-07 0)
(-11.5015 -5.56412e-07 0)
(-11.4799 -5.4836e-07 0)
(-11.4586 -5.40518e-07 0)
(-11.4376 -5.3285e-07 0)
(-11.4169 -5.25355e-07 0)
(-11.3965 -5.18052e-07 0)
(-11.3763 -5.10897e-07 0)
(-11.3565 -5.03936e-07 0)
(-11.3369 -4.97116e-07 0)
(-11.3176 -4.90476e-07 0)
(-11.2985 -4.83967e-07 0)
(-11.2797 -4.77627e-07 0)
(-11.2611 -4.71411e-07 0)
(-11.2428 -4.65357e-07 0)
(-11.2247 -4.59412e-07 0)
(-11.2068 -4.53622e-07 0)
(-11.1892 -4.47941e-07 0)
(-11.1717 -4.42394e-07 0)
(-11.1545 -4.36951e-07 0)
(-11.1375 -4.31643e-07 0)
(-11.1207 -4.26432e-07 0)
(-11.1042 -4.21334e-07 0)
(-11.0877 -4.16342e-07 0)
(-11.0716 -4.11456e-07 0)
(-11.0555 -4.06662e-07 0)
(-11.0397 -4.01974e-07 0)
(-11.0241 -3.97372e-07 0)
(-11.0086 -3.9287e-07 0)
(-10.9933 -3.88447e-07 0)
(-10.9782 -3.84122e-07 0)
(-10.9632 -3.79874e-07 0)
(-10.9485 -3.75715e-07 0)
(-10.9338 -3.71624e-07 0)
(-10.9194 -3.67626e-07 0)
(-10.9051 -3.63693e-07 0)
(-10.8909 -3.59842e-07 0)
(-10.8769 -3.56054e-07 0)
(-10.863 -3.52347e-07 0)
(-10.8493 -3.48701e-07 0)
(-10.8357 -3.45128e-07 0)
(-10.8223 -3.41611e-07 0)
(-10.809 -3.38171e-07 0)
(-10.7958 -3.34779e-07 0)
(-10.7828 -3.3146e-07 0)
(-10.7699 -3.2819e-07 0)
(-10.7571 -3.24985e-07 0)
(-10.7444 -3.21829e-07 0)
(-10.7319 -3.18741e-07 0)
(-10.7195 -3.15698e-07 0)
(-10.7072 -3.12702e-07 0)
(-10.695 -3.09765e-07 0)
(-10.683 -3.06881e-07 0)
(-10.671 -3.04045e-07 0)
(-10.6592 -3.0125e-07 0)
(-10.6474 -2.98506e-07 0)
(-10.6358 -2.95816e-07 0)
(-10.6242 -2.93161e-07 0)
(-10.6128 -2.9056e-07 0)
(-10.6015 -2.87988e-07 0)
(-10.5903 -2.85487e-07 0)
(-10.5791 -2.82986e-07 0)
(-10.5681 -2.80593e-07 0)
(-10.5572 -2.78143e-07 0)
(-10.5464 -2.75858e-07 0)
(-10.5356 -2.73459e-07 0)
(-10.525 -2.71312e-07 0)
(-10.5143 -2.68917e-07 0)
(-10.5039 -2.66932e-07 0)
(-10.4935 -2.64532e-07 0)
(-10.4832 -2.62728e-07 0)
(-10.4729 -2.60284e-07 0)
(-10.4628 -2.58702e-07 0)
(-10.4526 -2.56174e-07 0)
(-10.4428 -2.54857e-07 0)
(-10.4327 -2.52233e-07 0)
(-10.423 -2.51195e-07 0)
(-10.413 -2.48474e-07 0)
(-10.4036 -2.477e-07 0)
(-10.3936 -2.44978e-07 0)
(-10.3844 -2.4431e-07 0)
(-10.3745 -2.41954e-07 0)
(-10.3655 -2.40805e-07 0)
(-10.3557 -2.39927e-07 0)
(-10.3467 -2.36434e-07 0)
(-10.3372 -2.40466e-07 0)
(-10.3278 -2.28582e-07 0)
(-10.3193 -2.48421e-07 0)
(-10.3083 -2.10747e-07 0)
(-10.3029 -2.67569e-07 0)
(-10.2872 -1.74658e-07 0)
(-10.2895 -2.43162e-07 0)
(-10.2677 -2.86136e-07 0)
)
;
    }
    symmetry
    {
        type            symmetryPlane;
    }
    frontAndBack
    {
        type            empty;
    }
}


// ************************************************************************* //
