/*--------------------------------*- C++ -*----------------------------------*\
| =========                 |                                                 |
| \\      /  F ield         | OpenFOAM: The Open Source CFD Toolbox           |
|  \\    /   O peration     | Version:  v2012                                 |
|   \\  /    A nd           | Website:  www.openfoam.com                      |
|    \\/     M anipulation  |                                                 |
\*---------------------------------------------------------------------------*/
FoamFile
{
    version     2.0;
    format      ascii;
    class       volScalarField;
    location    "58.5";
    object      yPlus;
}
// * * * * * * * * * * * * * * * * * * * * * * * * * * * * * * * * * * * * * //

dimensions      [0 0 0 0 0 0 0];


internalField   uniform 0;

boundaryField
{
    inlet
    {
        type            calculated;
        value           uniform 0;
    }
    outlet
    {
        type            calculated;
        value           uniform 0;
    }
    topWall
    {
        type            calculated;
        value           nonuniform List<scalar> 
545
(
0.153708
0.26504
0.340016
0.39968
0.450191
0.494385
0.533859
0.569616
0.60234
0.632523
0.660532
0.686651
0.711107
0.734084
0.755733
0.77618
0.795535
0.813889
0.831324
0.84791
0.863709
0.878777
0.893162
0.906909
0.920059
0.932647
0.944708
0.95627
0.967362
0.97801
0.988237
0.998065
1.00751
1.0166
1.02535
1.03377
1.04188
1.0497
1.05723
1.06449
1.0715
1.07825
1.08478
1.09107
1.09715
1.10302
1.10869
1.11417
1.11947
1.12459
1.12954
1.13433
1.13896
1.14345
1.14778
1.15198
1.15604
1.15998
1.16379
1.16748
1.17105
1.17451
1.17787
1.18112
1.18427
1.18732
1.19028
1.19315
1.19594
1.19863
1.20125
1.20379
1.20622
1.20857
1.21091
1.21322
1.21552
1.21779
1.22005
1.22229
1.22452
1.22672
1.22891
1.23108
1.23324
1.23537
1.23749
1.2396
1.24169
1.24376
1.24581
1.24785
1.24988
1.25189
1.25388
1.25586
1.25764
1.25923
1.26082
1.26242
1.26401
1.2656
1.26719
1.26879
1.27038
1.27197
1.27356
1.27515
1.27674
1.27833
1.27992
1.28151
1.2831
1.28469
1.28627
1.28786
1.28945
1.29103
1.29262
1.2942
1.29579
1.29737
1.29896
1.30054
1.30212
1.30371
1.30529
1.30687
1.30845
1.31003
1.31161
1.31319
1.31476
1.31634
1.31792
1.3195
1.32107
1.32265
1.32422
1.32579
1.32737
1.32894
1.33051
1.33208
1.33365
1.33522
1.33679
1.33835
1.33992
1.34149
1.34305
1.34462
1.34618
1.34774
1.3493
1.35086
1.35242
1.35398
1.35554
1.3571
1.35865
1.36021
1.36176
1.36331
1.36486
1.36641
1.36796
1.36951
1.37106
1.37261
1.37415
1.3757
1.37724
1.37878
1.38032
1.38186
1.3834
1.38494
1.38647
1.38801
1.38954
1.39107
1.3926
1.39413
1.39566
1.39719
1.39871
1.40024
1.40176
1.40328
1.4048
1.40632
1.40784
1.40936
1.41087
1.41238
1.41389
1.4154
1.41691
1.41842
1.41992
1.42143
1.42293
1.42443
1.42593
1.42743
1.42892
1.43042
1.43191
1.4334
1.43489
1.43637
1.43786
1.43934
1.44082
1.4423
1.44378
1.44526
1.44673
1.4482
1.44967
1.45114
1.45261
1.45407
1.45554
1.457
1.45846
1.45991
1.46137
1.46282
1.46427
1.46572
1.46717
1.46861
1.47005
1.47149
1.47293
1.47436
1.4758
1.47723
1.47866
1.48008
1.48151
1.48293
1.48435
1.48577
1.48718
1.48859
1.49
1.49141
1.49282
1.49422
1.49562
1.49702
1.49841
1.4998
1.50119
1.50258
1.50397
1.50535
1.50673
1.5081
1.50948
1.51085
1.51222
1.51358
1.51495
1.51631
1.51767
1.51894
1.52015
1.52137
1.52259
1.52382
1.52506
1.52631
1.52756
1.52883
1.5301
1.53138
1.53267
1.53397
1.53527
1.53659
1.53791
1.53924
1.54057
1.54192
1.54327
1.54463
1.546
1.54737
1.54876
1.55015
1.55155
1.55295
1.55437
1.55579
1.55722
1.55865
1.5601
1.56155
1.563
1.56447
1.56594
1.56742
1.5689
1.57039
1.57189
1.57339
1.5749
1.57642
1.57794
1.57947
1.581
1.58254
1.58409
1.58564
1.58719
1.58875
1.59032
1.59189
1.59346
1.59504
1.59662
1.59821
1.5998
1.6014
1.60299
1.60459
1.6062
1.60781
1.60942
1.61103
1.61264
1.61426
1.61588
1.6175
1.61912
1.62074
1.62236
1.62399
1.62561
1.62723
1.62886
1.63048
1.6321
1.63372
1.63534
1.63696
1.63857
1.64018
1.64179
1.6434
1.645
1.6466
1.6482
1.64979
1.65137
1.65295
1.65453
1.6561
1.65766
1.65922
1.66076
1.6623
1.66384
1.66536
1.66688
1.66838
1.66988
1.67137
1.67284
1.67431
1.67576
1.67721
1.67864
1.68005
1.68146
1.68285
1.68422
1.68559
1.68693
1.68826
1.68958
1.69088
1.69216
1.69342
1.69467
1.69589
1.6971
1.69829
1.69946
1.70061
1.70174
1.70285
1.70393
1.70499
1.70603
1.70705
1.70804
1.70901
1.70996
1.71088
1.71177
1.71264
1.71348
1.71429
1.71508
1.71584
1.71657
1.71727
1.71794
1.71858
1.7192
1.71978
1.72033
1.72086
1.72134
1.72181
1.72223
1.72263
1.72299
1.72332
1.72361
1.72388
1.7241
1.7243
1.72446
1.72459
1.72468
1.72474
1.72476
1.72475
1.7247
1.72462
1.7245
1.72435
1.72416
1.72394
1.72368
1.72339
1.72306
1.7227
1.7223
1.72187
1.7214
1.7209
1.72036
1.71979
1.71912
1.71834
1.71751
1.71666
1.71576
1.71485
1.71389
1.71291
1.7119
1.71088
1.70982
1.70875
1.70765
1.70655
1.70542
1.70428
1.70312
1.70195
1.70077
1.69959
1.69838
1.69718
1.69597
1.69476
1.69354
1.69232
1.69109
1.68987
1.68864
1.68742
1.68619
1.68498
1.68376
1.68255
1.68134
1.68015
1.67895
1.67777
1.67659
1.67542
1.67426
1.67312
1.67198
1.67085
1.66974
1.66864
1.66755
1.66648
1.66541
1.66437
1.66334
1.66233
1.66133
1.66035
1.65939
1.65845
1.65752
1.65661
1.65572
1.65485
1.654
1.65318
1.65237
1.65158
1.65082
1.65008
1.64935
1.64866
1.64798
1.64733
1.6467
1.64609
1.64551
1.64496
1.64442
1.64391
1.64343
1.64297
1.64254
1.64214
1.64175
1.6414
1.64107
1.64077
1.6405
1.64025
1.64003
1.63983
1.63966
1.63952
1.63941
1.63932
1.63926
1.63923
1.63921
)
;
    }
    bottomWall
    {
        type            calculated;
        value           nonuniform List<scalar> 
449
(
0.00273308
0.00479699
0.00537315
0.00532618
0.00525523
0.0051593
0.00506209
0.00497113
0.00488762
0.0048113
0.00474147
0.00467743
0.00461849
0.00456392
0.00451319
0.00446593
0.00442171
0.00438023
0.00434115
0.00430425
0.00426933
0.0042362
0.0042047
0.00417468
0.00414602
0.00411862
0.00409238
0.00406721
0.00404303
0.00401976
0.00399737
0.00397577
0.00395493
0.00393478
0.0039153
0.00389644
0.00387817
0.00386044
0.00384324
0.00382652
0.00381028
0.00379446
0.00377907
0.00376408
0.00374947
0.00373522
0.00372133
0.00370776
0.00369453
0.00368161
0.00366897
0.00365663
0.00364455
0.00363274
0.00362117
0.00360985
0.00359875
0.00358787
0.0035772
0.00356674
0.00355646
0.00354639
0.00353648
0.00352676
0.0035172
0.00350781
0.00349857
0.00348949
0.00348055
0.00347176
0.00346311
0.00345459
0.00344621
0.00343794
0.00342981
0.00342179
0.00341389
0.00340611
0.00339843
0.00339086
0.0033834
0.00337604
0.00336878
0.00336161
0.00335454
0.00334756
0.00334068
0.00333388
0.00332716
0.00332053
0.00331398
0.00330751
0.00330112
0.0032948
0.00328856
0.00328239
0.0032763
0.00327027
0.00326431
0.00325841
0.00325259
0.00324682
0.00324112
0.00323548
0.00322989
0.00322437
0.0032189
0.00321349
0.00320814
0.00320284
0.00319759
0.00319239
0.00318725
0.00318215
0.00317711
0.00317211
0.00316715
0.00316225
0.00315739
0.00315257
0.0031478
0.00314307
0.00313839
0.00313374
0.00312914
0.00312457
0.00312005
0.00311556
0.00311111
0.0031067
0.00310233
0.00309799
0.00309368
0.00308942
0.00308518
0.00308098
0.00307682
0.00307268
0.00306858
0.00306451
0.00306048
0.00305647
0.00305249
0.00304855
0.00304463
0.00304074
0.00303688
0.00303305
0.00302924
0.00302547
0.00302172
0.00301799
0.0030143
0.00301063
0.00300698
0.00300336
0.00299976
0.00299619
0.00299264
0.00298912
0.00298562
0.00298214
0.00297869
0.00297526
0.00297185
0.00296846
0.00296509
0.00296175
0.00295842
0.00295512
0.00295184
0.00294858
0.00294533
0.00294229
0.00293943
0.00293656
0.00293368
0.00293079
0.00292789
0.00292499
0.00292207
0.00291914
0.00291621
0.00291327
0.00291032
0.00290736
0.00290439
0.00290141
0.00289843
0.00289543
0.00289243
0.00288942
0.0028864
0.00288338
0.00288034
0.0028773
0.00287425
0.00287119
0.00286812
0.00286505
0.00286197
0.00285888
0.00285579
0.00285268
0.00284957
0.00284646
0.00284333
0.0028402
0.00283706
0.00283392
0.00283077
0.00282761
0.00282444
0.00282127
0.0028181
0.00281491
0.00281172
0.00280853
0.00280533
0.00280212
0.0027989
0.00279569
0.00279246
0.00278923
0.00278599
0.00278275
0.00277951
0.00277625
0.002773
0.00276974
0.00276647
0.0027632
0.00275992
0.00275664
0.00275335
0.00275006
0.00274677
0.00274347
0.00274017
0.00273686
0.00273355
0.00273023
0.00272692
0.00272359
0.00272027
0.00271694
0.0027136
0.00271027
0.00270693
0.00270358
0.00270024
0.00269689
0.00269354
0.00269018
0.00268682
0.00268346
0.0026801
0.00267673
0.00267336
0.00266999
0.00266662
0.00266324
0.00265987
0.00265649
0.00265311
0.00264972
0.00264634
0.00264295
0.00263957
0.00263618
0.00263279
0.00262939
0.002626
0.00262261
0.00261921
0.00261582
0.00261242
0.00260902
0.00260562
0.00260222
0.00259883
0.00259542
0.00259202
0.00258862
0.00258522
0.00258182
0.00257842
0.00257502
0.00257162
0.00256822
0.00256482
0.00256142
0.00255802
0.00255462
0.00255122
0.00254782
0.00254442
0.00254103
0.00253763
0.00253424
0.00253084
0.00252745
0.00252406
0.00252067
0.00251728
0.00251389
0.00251051
0.00250712
0.00250374
0.00250036
0.00249698
0.00249361
0.00249023
0.00248686
0.00248349
0.00248012
0.00247675
0.00247339
0.00247002
0.00246666
0.0024633
0.00245995
0.0024566
0.00245325
0.0024499
0.00244656
0.00244322
0.00243988
0.00243654
0.00243321
0.00242988
0.00242656
0.00242323
0.00241991
0.0024166
0.00241328
0.00240998
0.00240667
0.00240337
0.00240007
0.00239677
0.00239348
0.0023902
0.00238691
0.00238363
0.00238036
0.00237709
0.00237382
0.00237056
0.0023673
0.00236404
0.00236079
0.00235755
0.0023543
0.00235071
0.00234679
0.00234292
0.00233911
0.00233536
0.00233166
0.00232801
0.00232441
0.00232086
0.00231736
0.0023139
0.00231049
0.00230713
0.0023038
0.00230053
0.00229729
0.00229409
0.00229093
0.00228782
0.00228474
0.0022817
0.00227869
0.00227572
0.00227279
0.00226989
0.00226702
0.00226419
0.00226139
0.00225862
0.00225588
0.00225318
0.0022505
0.00224785
0.00224523
0.00224264
0.00224007
0.00223754
0.00223503
0.00223255
0.00223008
0.00222765
0.00222524
0.00222286
0.0022205
0.00221816
0.00221585
0.00221356
0.00221129
0.00220904
0.00220681
0.00220461
0.00220242
0.00220026
0.00219811
0.00219599
0.00219388
0.0021918
0.00218973
0.00218769
0.00218565
0.00218364
0.00218164
0.00217967
0.0021777
0.00217576
0.00217382
0.00217192
0.00217001
0.00216814
0.00216626
0.00216442
0.00216257
0.00216076
0.00215894
0.00215716
0.00215536
0.00215362
0.00215183
0.00215013
0.00214835
0.00214669
0.00214492
0.0021433
0.00214154
0.00213996
0.00213819
0.00213665
0.0021349
0.00213335
0.00213169
0.00212998
0.00212867
0.00212642
0.00212607
0.00212284
)
;
    }
    symmetry
    {
        type            symmetryPlane;
    }
    frontAndBack
    {
        type            empty;
    }
}


// ************************************************************************* //
