/*--------------------------------*- C++ -*----------------------------------*\
| =========                 |                                                 |
| \\      /  F ield         | OpenFOAM: The Open Source CFD Toolbox           |
|  \\    /   O peration     | Version:  v2012                                 |
|   \\  /    A nd           | Website:  www.openfoam.com                      |
|    \\/     M anipulation  |                                                 |
\*---------------------------------------------------------------------------*/
FoamFile
{
    version     2.0;
    format      ascii;
    class       volVectorField;
    location    "2.5";
    object      wallShearStress;
}
// * * * * * * * * * * * * * * * * * * * * * * * * * * * * * * * * * * * * * //

dimensions      [0 2 -2 0 0 0 0];


internalField   uniform (0 0 0);

boundaryField
{
    inlet
    {
        type            calculated;
        value           uniform (0 0 0);
    }
    outlet
    {
        type            calculated;
        value           uniform (0 0 0);
    }
    topWall
    {
        type            calculated;
        value           nonuniform List<vector> 
545
(
(3.45129e-09 -2.39814e-09 0)
(3.47482e-09 -6.85223e-09 0)
(3.40644e-09 -1.13552e-08 0)
(3.3812e-09 -1.5703e-08 0)
(3.36484e-09 -1.98439e-08 0)
(3.3493e-09 -2.38349e-08 0)
(3.33265e-09 -2.77146e-08 0)
(3.31453e-09 -3.14834e-08 0)
(3.29496e-09 -3.51325e-08 0)
(3.27406e-09 -3.86608e-08 0)
(3.25197e-09 -4.20723e-08 0)
(3.2288e-09 -4.53712e-08 0)
(3.20467e-09 -4.85601e-08 0)
(3.17969e-09 -5.16412e-08 0)
(3.15397e-09 -5.46172e-08 0)
(3.1276e-09 -5.74908e-08 0)
(3.10068e-09 -6.02648e-08 0)
(3.07328e-09 -6.29422e-08 0)
(3.04549e-09 -6.55256e-08 0)
(3.01737e-09 -6.80179e-08 0)
(2.98899e-09 -7.04218e-08 0)
(2.96041e-09 -7.27402e-08 0)
(2.93168e-09 -7.49757e-08 0)
(2.90285e-09 -7.71309e-08 0)
(2.87397e-09 -7.92086e-08 0)
(2.84508e-09 -8.12112e-08 0)
(2.81622e-09 -8.31414e-08 0)
(2.78741e-09 -8.50015e-08 0)
(2.75869e-09 -8.67939e-08 0)
(2.73008e-09 -8.85211e-08 0)
(2.7016e-09 -9.01852e-08 0)
(2.67329e-09 -9.17884e-08 0)
(2.64514e-09 -9.33331e-08 0)
(2.61718e-09 -9.48211e-08 0)
(2.58943e-09 -9.62545e-08 0)
(2.56188e-09 -9.76353e-08 0)
(2.53456e-09 -9.89654e-08 0)
(2.50747e-09 -1.00247e-07 0)
(2.48061e-09 -1.01481e-07 0)
(2.45399e-09 -1.02669e-07 0)
(2.42761e-09 -1.03814e-07 0)
(2.40147e-09 -1.04917e-07 0)
(2.37557e-09 -1.05979e-07 0)
(2.34991e-09 -1.07002e-07 0)
(2.32449e-09 -1.07987e-07 0)
(2.29931e-09 -1.08935e-07 0)
(2.27436e-09 -1.09849e-07 0)
(2.24964e-09 -1.10729e-07 0)
(2.22514e-09 -1.11577e-07 0)
(2.20086e-09 -1.12393e-07 0)
(2.17678e-09 -1.13179e-07 0)
(2.15291e-09 -1.13935e-07 0)
(2.12923e-09 -1.14664e-07 0)
(2.10574e-09 -1.15366e-07 0)
(2.08243e-09 -1.16041e-07 0)
(2.05929e-09 -1.16692e-07 0)
(2.0363e-09 -1.17318e-07 0)
(2.01347e-09 -1.17921e-07 0)
(1.99077e-09 -1.18502e-07 0)
(1.96821e-09 -1.19061e-07 0)
(1.94576e-09 -1.19598e-07 0)
(1.92342e-09 -1.20116e-07 0)
(1.90117e-09 -1.20614e-07 0)
(1.87901e-09 -1.21094e-07 0)
(1.85693e-09 -1.21555e-07 0)
(1.8349e-09 -1.21999e-07 0)
(1.81293e-09 -1.22426e-07 0)
(1.79097e-09 -1.22836e-07 0)
(1.76912e-09 -1.23233e-07 0)
(1.74693e-09 -1.23609e-07 0)
(1.72626e-09 -1.23992e-07 0)
(1.69906e-09 -1.2431e-07 0)
(1.67418e-09 -1.24637e-07 0)
(1.66032e-09 -1.25005e-07 0)
(1.64677e-09 -1.25303e-07 0)
(1.6333e-09 -1.25598e-07 0)
(1.61988e-09 -1.25905e-07 0)
(1.60647e-09 -1.26212e-07 0)
(1.59309e-09 -1.26513e-07 0)
(1.57972e-09 -1.26807e-07 0)
(1.56638e-09 -1.27098e-07 0)
(1.55306e-09 -1.27385e-07 0)
(1.53975e-09 -1.27669e-07 0)
(1.52647e-09 -1.27949e-07 0)
(1.51321e-09 -1.28225e-07 0)
(1.49996e-09 -1.28497e-07 0)
(1.48674e-09 -1.28766e-07 0)
(1.47355e-09 -1.29032e-07 0)
(1.46037e-09 -1.29293e-07 0)
(1.44721e-09 -1.29551e-07 0)
(1.4341e-09 -1.29807e-07 0)
(1.42086e-09 -1.30055e-07 0)
(1.40832e-09 -1.30315e-07 0)
(1.39294e-09 -1.30527e-07 0)
(1.38971e-09 -1.30923e-07 0)
(1.33495e-09 -1.30946e-07 0)
(1.26382e-09 -1.31024e-07 0)
(1.24829e-09 -1.31524e-07 0)
(1.23852e-09 -1.3166e-07 0)
(1.23015e-09 -1.31745e-07 0)
(1.2221e-09 -1.319e-07 0)
(1.21411e-09 -1.32092e-07 0)
(1.20611e-09 -1.32275e-07 0)
(1.19809e-09 -1.32445e-07 0)
(1.19006e-09 -1.32611e-07 0)
(1.182e-09 -1.32779e-07 0)
(1.17393e-09 -1.32948e-07 0)
(1.16583e-09 -1.33117e-07 0)
(1.15772e-09 -1.33283e-07 0)
(1.14958e-09 -1.33449e-07 0)
(1.14143e-09 -1.33615e-07 0)
(1.13326e-09 -1.33779e-07 0)
(1.12506e-09 -1.33943e-07 0)
(1.11685e-09 -1.34106e-07 0)
(1.10862e-09 -1.34268e-07 0)
(1.10037e-09 -1.3443e-07 0)
(1.0921e-09 -1.3459e-07 0)
(1.08381e-09 -1.3475e-07 0)
(1.0755e-09 -1.34909e-07 0)
(1.06717e-09 -1.35067e-07 0)
(1.05882e-09 -1.35224e-07 0)
(1.05046e-09 -1.3538e-07 0)
(1.04208e-09 -1.35536e-07 0)
(1.03367e-09 -1.3569e-07 0)
(1.02525e-09 -1.35844e-07 0)
(1.01681e-09 -1.35996e-07 0)
(1.00836e-09 -1.36148e-07 0)
(9.99879e-10 -1.36299e-07 0)
(9.91385e-10 -1.36449e-07 0)
(9.82873e-10 -1.36598e-07 0)
(9.74344e-10 -1.36746e-07 0)
(9.65796e-10 -1.36893e-07 0)
(9.57231e-10 -1.3704e-07 0)
(9.48648e-10 -1.37185e-07 0)
(9.40048e-10 -1.37329e-07 0)
(9.3143e-10 -1.37472e-07 0)
(9.22796e-10 -1.37615e-07 0)
(9.14144e-10 -1.37756e-07 0)
(9.05475e-10 -1.37896e-07 0)
(8.96789e-10 -1.38036e-07 0)
(8.88087e-10 -1.38174e-07 0)
(8.79368e-10 -1.38311e-07 0)
(8.70632e-10 -1.38447e-07 0)
(8.6188e-10 -1.38582e-07 0)
(8.53112e-10 -1.38716e-07 0)
(8.44328e-10 -1.38849e-07 0)
(8.35528e-10 -1.38981e-07 0)
(8.26712e-10 -1.39112e-07 0)
(8.1788e-10 -1.39242e-07 0)
(8.09033e-10 -1.39371e-07 0)
(8.00171e-10 -1.39498e-07 0)
(7.91293e-10 -1.39625e-07 0)
(7.824e-10 -1.3975e-07 0)
(7.73492e-10 -1.39875e-07 0)
(7.64569e-10 -1.39998e-07 0)
(7.55631e-10 -1.4012e-07 0)
(7.46679e-10 -1.40241e-07 0)
(7.37713e-10 -1.4036e-07 0)
(7.28732e-10 -1.40479e-07 0)
(7.19738e-10 -1.40596e-07 0)
(7.10729e-10 -1.40712e-07 0)
(7.01707e-10 -1.40827e-07 0)
(6.92671e-10 -1.40941e-07 0)
(6.83622e-10 -1.41053e-07 0)
(6.7456e-10 -1.41165e-07 0)
(6.65484e-10 -1.41275e-07 0)
(6.56396e-10 -1.41383e-07 0)
(6.47295e-10 -1.41491e-07 0)
(6.38181e-10 -1.41597e-07 0)
(6.29055e-10 -1.41702e-07 0)
(6.19917e-10 -1.41806e-07 0)
(6.10767e-10 -1.41909e-07 0)
(6.01606e-10 -1.4201e-07 0)
(5.92432e-10 -1.4211e-07 0)
(5.83248e-10 -1.42208e-07 0)
(5.74052e-10 -1.42306e-07 0)
(5.64845e-10 -1.42402e-07 0)
(5.55627e-10 -1.42496e-07 0)
(5.46399e-10 -1.4259e-07 0)
(5.3716e-10 -1.42682e-07 0)
(5.27911e-10 -1.42772e-07 0)
(5.18652e-10 -1.42861e-07 0)
(5.09384e-10 -1.42949e-07 0)
(5.00106e-10 -1.43036e-07 0)
(4.90818e-10 -1.43121e-07 0)
(4.81521e-10 -1.43204e-07 0)
(4.72216e-10 -1.43287e-07 0)
(4.62902e-10 -1.43368e-07 0)
(4.53579e-10 -1.43447e-07 0)
(4.44248e-10 -1.43525e-07 0)
(4.34909e-10 -1.43601e-07 0)
(4.25563e-10 -1.43677e-07 0)
(4.16209e-10 -1.4375e-07 0)
(4.06847e-10 -1.43822e-07 0)
(3.97479e-10 -1.43893e-07 0)
(3.88103e-10 -1.43962e-07 0)
(3.78721e-10 -1.4403e-07 0)
(3.69333e-10 -1.44096e-07 0)
(3.59939e-10 -1.44161e-07 0)
(3.50539e-10 -1.44224e-07 0)
(3.41133e-10 -1.44285e-07 0)
(3.31722e-10 -1.44345e-07 0)
(3.22306e-10 -1.44404e-07 0)
(3.12885e-10 -1.44461e-07 0)
(3.0346e-10 -1.44516e-07 0)
(2.9403e-10 -1.4457e-07 0)
(2.84596e-10 -1.44622e-07 0)
(2.75159e-10 -1.44673e-07 0)
(2.65718e-10 -1.44722e-07 0)
(2.56274e-10 -1.4477e-07 0)
(2.46827e-10 -1.44815e-07 0)
(2.37377e-10 -1.4486e-07 0)
(2.27925e-10 -1.44902e-07 0)
(2.1847e-10 -1.44943e-07 0)
(2.09014e-10 -1.44982e-07 0)
(1.99557e-10 -1.4502e-07 0)
(1.90098e-10 -1.45056e-07 0)
(1.80638e-10 -1.4509e-07 0)
(1.71177e-10 -1.45123e-07 0)
(1.61716e-10 -1.45154e-07 0)
(1.52255e-10 -1.45183e-07 0)
(1.42794e-10 -1.45211e-07 0)
(1.33334e-10 -1.45236e-07 0)
(1.23874e-10 -1.4526e-07 0)
(1.14416e-10 -1.45283e-07 0)
(1.04959e-10 -1.45303e-07 0)
(9.55036e-11 -1.45322e-07 0)
(8.60503e-11 -1.45339e-07 0)
(7.65994e-11 -1.45355e-07 0)
(6.71511e-11 -1.45368e-07 0)
(5.77057e-11 -1.4538e-07 0)
(4.82637e-11 -1.4539e-07 0)
(3.88252e-11 -1.45398e-07 0)
(2.93906e-11 -1.45405e-07 0)
(1.99603e-11 -1.45409e-07 0)
(1.05346e-11 -1.45412e-07 0)
(1.11375e-12 -1.45413e-07 0)
(-8.30185e-12 -1.45412e-07 0)
(-1.77119e-11 -1.45409e-07 0)
(-2.71161e-11 -1.45405e-07 0)
(-3.65141e-11 -1.45398e-07 0)
(-4.59055e-11 -1.4539e-07 0)
(-5.529e-11 -1.4538e-07 0)
(-6.46673e-11 -1.45368e-07 0)
(-7.4037e-11 -1.45354e-07 0)
(-8.33988e-11 -1.45338e-07 0)
(-9.27524e-11 -1.4532e-07 0)
(-1.02097e-10 -1.45301e-07 0)
(-1.11433e-10 -1.45279e-07 0)
(-1.2076e-10 -1.45256e-07 0)
(-1.30077e-10 -1.4523e-07 0)
(-1.39384e-10 -1.45203e-07 0)
(-1.48681e-10 -1.45174e-07 0)
(-1.57966e-10 -1.45142e-07 0)
(-1.67241e-10 -1.45109e-07 0)
(-1.76505e-10 -1.45074e-07 0)
(-1.85756e-10 -1.45037e-07 0)
(-1.94996e-10 -1.44998e-07 0)
(-2.04223e-10 -1.44957e-07 0)
(-2.13437e-10 -1.44914e-07 0)
(-2.22638e-10 -1.44869e-07 0)
(-2.31824e-10 -1.44822e-07 0)
(-2.41e-10 -1.44772e-07 0)
(-2.50144e-10 -1.44722e-07 0)
(-2.5935e-10 -1.44666e-07 0)
(-2.68216e-10 -1.44622e-07 0)
(-2.78447e-10 -1.44535e-07 0)
(-2.82804e-10 -1.44619e-07 0)
(-3.1204e-10 -1.44367e-07 0)
(-3.51081e-10 -1.44175e-07 0)
(-3.6262e-10 -1.44398e-07 0)
(-3.68302e-10 -1.4431e-07 0)
(-3.72655e-10 -1.44159e-07 0)
(-3.76771e-10 -1.44064e-07 0)
(-3.80917e-10 -1.44005e-07 0)
(-3.85153e-10 -1.4394e-07 0)
(-3.89489e-10 -1.43862e-07 0)
(-3.93925e-10 -1.43779e-07 0)
(-3.98463e-10 -1.43697e-07 0)
(-4.03102e-10 -1.43614e-07 0)
(-4.0784e-10 -1.43529e-07 0)
(-4.12678e-10 -1.43442e-07 0)
(-4.17613e-10 -1.43353e-07 0)
(-4.22645e-10 -1.43262e-07 0)
(-4.27772e-10 -1.43169e-07 0)
(-4.32994e-10 -1.43074e-07 0)
(-4.3831e-10 -1.42976e-07 0)
(-4.43718e-10 -1.42876e-07 0)
(-4.49217e-10 -1.42774e-07 0)
(-4.54806e-10 -1.4267e-07 0)
(-4.60484e-10 -1.42563e-07 0)
(-4.66249e-10 -1.42453e-07 0)
(-4.72101e-10 -1.42341e-07 0)
(-4.78037e-10 -1.42226e-07 0)
(-4.84058e-10 -1.42109e-07 0)
(-4.9016e-10 -1.41989e-07 0)
(-4.96343e-10 -1.41866e-07 0)
(-5.02606e-10 -1.4174e-07 0)
(-5.08947e-10 -1.41611e-07 0)
(-5.15364e-10 -1.41479e-07 0)
(-5.21856e-10 -1.41344e-07 0)
(-5.28421e-10 -1.41206e-07 0)
(-5.35058e-10 -1.41064e-07 0)
(-5.41766e-10 -1.40919e-07 0)
(-5.48541e-10 -1.40771e-07 0)
(-5.55383e-10 -1.40619e-07 0)
(-5.6229e-10 -1.40464e-07 0)
(-5.6926e-10 -1.40305e-07 0)
(-5.76291e-10 -1.40143e-07 0)
(-5.83382e-10 -1.39976e-07 0)
(-5.90529e-10 -1.39806e-07 0)
(-5.97732e-10 -1.39632e-07 0)
(-6.04989e-10 -1.39454e-07 0)
(-6.12296e-10 -1.39271e-07 0)
(-6.19653e-10 -1.39085e-07 0)
(-6.27056e-10 -1.38894e-07 0)
(-6.34504e-10 -1.38699e-07 0)
(-6.41994e-10 -1.38499e-07 0)
(-6.49524e-10 -1.38295e-07 0)
(-6.57092e-10 -1.38086e-07 0)
(-6.64695e-10 -1.37872e-07 0)
(-6.7233e-10 -1.37654e-07 0)
(-6.79995e-10 -1.37431e-07 0)
(-6.87688e-10 -1.37203e-07 0)
(-6.95405e-10 -1.36969e-07 0)
(-7.03145e-10 -1.36731e-07 0)
(-7.10903e-10 -1.36487e-07 0)
(-7.18678e-10 -1.36238e-07 0)
(-7.26467e-10 -1.35983e-07 0)
(-7.34266e-10 -1.35723e-07 0)
(-7.42072e-10 -1.35458e-07 0)
(-7.49883e-10 -1.35186e-07 0)
(-7.57695e-10 -1.34909e-07 0)
(-7.65505e-10 -1.34626e-07 0)
(-7.7331e-10 -1.34337e-07 0)
(-7.81107e-10 -1.34041e-07 0)
(-7.88891e-10 -1.3374e-07 0)
(-7.96661e-10 -1.33432e-07 0)
(-8.04411e-10 -1.33118e-07 0)
(-8.12139e-10 -1.32797e-07 0)
(-8.19841e-10 -1.3247e-07 0)
(-8.27514e-10 -1.32136e-07 0)
(-8.35153e-10 -1.31796e-07 0)
(-8.42755e-10 -1.31448e-07 0)
(-8.50316e-10 -1.31094e-07 0)
(-8.57832e-10 -1.30733e-07 0)
(-8.65299e-10 -1.30364e-07 0)
(-8.72714e-10 -1.29988e-07 0)
(-8.80071e-10 -1.29605e-07 0)
(-8.87368e-10 -1.29215e-07 0)
(-8.94599e-10 -1.28817e-07 0)
(-9.01761e-10 -1.28411e-07 0)
(-9.08849e-10 -1.27998e-07 0)
(-9.1586e-10 -1.27577e-07 0)
(-9.22788e-10 -1.27148e-07 0)
(-9.2963e-10 -1.26712e-07 0)
(-9.36381e-10 -1.26267e-07 0)
(-9.43036e-10 -1.25814e-07 0)
(-9.49591e-10 -1.25354e-07 0)
(-9.56042e-10 -1.24885e-07 0)
(-9.62384e-10 -1.24407e-07 0)
(-9.68612e-10 -1.23922e-07 0)
(-9.74722e-10 -1.23428e-07 0)
(-9.80709e-10 -1.22925e-07 0)
(-9.86569e-10 -1.22414e-07 0)
(-9.92297e-10 -1.21895e-07 0)
(-9.97888e-10 -1.21366e-07 0)
(-1.00334e-09 -1.20829e-07 0)
(-1.00864e-09 -1.20284e-07 0)
(-1.01379e-09 -1.19729e-07 0)
(-1.01879e-09 -1.19166e-07 0)
(-1.02363e-09 -1.18594e-07 0)
(-1.0283e-09 -1.18013e-07 0)
(-1.03281e-09 -1.17423e-07 0)
(-1.03714e-09 -1.16824e-07 0)
(-1.04129e-09 -1.16216e-07 0)
(-1.04526e-09 -1.15599e-07 0)
(-1.04904e-09 -1.14973e-07 0)
(-1.05264e-09 -1.14338e-07 0)
(-1.05603e-09 -1.13694e-07 0)
(-1.05923e-09 -1.13041e-07 0)
(-1.06222e-09 -1.12379e-07 0)
(-1.065e-09 -1.11707e-07 0)
(-1.06757e-09 -1.11027e-07 0)
(-1.06992e-09 -1.10338e-07 0)
(-1.07205e-09 -1.0964e-07 0)
(-1.07396e-09 -1.08933e-07 0)
(-1.07564e-09 -1.08218e-07 0)
(-1.07709e-09 -1.07493e-07 0)
(-1.07831e-09 -1.0676e-07 0)
(-1.07928e-09 -1.06018e-07 0)
(-1.08002e-09 -1.05267e-07 0)
(-1.08051e-09 -1.04508e-07 0)
(-1.08075e-09 -1.0374e-07 0)
(-1.08075e-09 -1.02964e-07 0)
(-1.08049e-09 -1.02179e-07 0)
(-1.07998e-09 -1.01386e-07 0)
(-1.0792e-09 -1.00586e-07 0)
(-1.07817e-09 -9.97766e-08 0)
(-1.07688e-09 -9.89598e-08 0)
(-1.07533e-09 -9.81352e-08 0)
(-1.07351e-09 -9.7303e-08 0)
(-1.07142e-09 -9.64633e-08 0)
(-1.06907e-09 -9.56162e-08 0)
(-1.06646e-09 -9.47619e-08 0)
(-1.06357e-09 -9.39005e-08 0)
(-1.06041e-09 -9.30323e-08 0)
(-1.05699e-09 -9.21574e-08 0)
(-1.0533e-09 -9.12759e-08 0)
(-1.04933e-09 -9.03881e-08 0)
(-1.0451e-09 -8.94942e-08 0)
(-1.04061e-09 -8.85943e-08 0)
(-1.03584e-09 -8.76887e-08 0)
(-1.03081e-09 -8.67776e-08 0)
(-1.02552e-09 -8.58612e-08 0)
(-1.01996e-09 -8.49397e-08 0)
(-1.01415e-09 -8.40134e-08 0)
(-1.00807e-09 -8.30825e-08 0)
(-1.00174e-09 -8.21473e-08 0)
(-9.95156e-10 -8.1208e-08 0)
(-9.88322e-10 -8.02648e-08 0)
(-9.81242e-10 -7.93182e-08 0)
(-9.73917e-10 -7.83682e-08 0)
(-9.66353e-10 -7.74152e-08 0)
(-9.58553e-10 -7.64596e-08 0)
(-9.50521e-10 -7.55015e-08 0)
(-9.42262e-10 -7.45412e-08 0)
(-9.33782e-10 -7.35791e-08 0)
(-9.25084e-10 -7.26155e-08 0)
(-9.16174e-10 -7.16507e-08 0)
(-9.07057e-10 -7.06849e-08 0)
(-8.9774e-10 -6.97185e-08 0)
(-8.88228e-10 -6.87518e-08 0)
(-8.78528e-10 -6.77852e-08 0)
(-8.68644e-10 -6.68189e-08 0)
(-8.58585e-10 -6.58532e-08 0)
(-8.48357e-10 -6.48885e-08 0)
(-8.37965e-10 -6.39252e-08 0)
(-8.27418e-10 -6.29634e-08 0)
(-8.16722e-10 -6.20037e-08 0)
(-8.05885e-10 -6.10462e-08 0)
(-7.94913e-10 -6.00913e-08 0)
(-7.83814e-10 -5.91394e-08 0)
(-7.72595e-10 -5.81909e-08 0)
(-7.61264e-10 -5.72452e-08 0)
(-7.49829e-10 -5.63061e-08 0)
(-7.38293e-10 -5.53615e-08 0)
(-7.26683e-10 -5.44496e-08 0)
(-7.1491e-10 -5.3421e-08 0)
(-7.03379e-10 -5.26265e-08 0)
(-6.87585e-10 -5.16929e-08 0)
(-6.69466e-10 -5.04039e-08 0)
(-6.54277e-10 -4.93507e-08 0)
(-6.39918e-10 -4.83557e-08 0)
(-6.25895e-10 -4.73446e-08 0)
(-6.12073e-10 -4.63335e-08 0)
(-5.98418e-10 -4.53476e-08 0)
(-5.84935e-10 -4.43909e-08 0)
(-5.7163e-10 -4.34578e-08 0)
(-5.58512e-10 -4.25447e-08 0)
(-5.45583e-10 -4.16517e-08 0)
(-5.32849e-10 -4.07794e-08 0)
(-5.20312e-10 -3.99278e-08 0)
(-5.07976e-10 -3.90965e-08 0)
(-4.95843e-10 -3.82849e-08 0)
(-4.83915e-10 -3.74928e-08 0)
(-4.72194e-10 -3.67197e-08 0)
(-4.6068e-10 -3.59655e-08 0)
(-4.49375e-10 -3.52297e-08 0)
(-4.38277e-10 -3.45121e-08 0)
(-4.27387e-10 -3.38122e-08 0)
(-4.16704e-10 -3.31298e-08 0)
(-4.06226e-10 -3.24645e-08 0)
(-3.95954e-10 -3.18159e-08 0)
(-3.85884e-10 -3.11838e-08 0)
(-3.76016e-10 -3.05679e-08 0)
(-3.66348e-10 -2.99677e-08 0)
(-3.56876e-10 -2.9383e-08 0)
(-3.47599e-10 -2.88135e-08 0)
(-3.38514e-10 -2.82588e-08 0)
(-3.29618e-10 -2.77187e-08 0)
(-3.20909e-10 -2.71928e-08 0)
(-3.12384e-10 -2.66808e-08 0)
(-3.0404e-10 -2.61825e-08 0)
(-2.95873e-10 -2.56975e-08 0)
(-2.87881e-10 -2.52256e-08 0)
(-2.8006e-10 -2.47665e-08 0)
(-2.72407e-10 -2.43199e-08 0)
(-2.64919e-10 -2.38855e-08 0)
(-2.57592e-10 -2.34631e-08 0)
(-2.50424e-10 -2.30524e-08 0)
(-2.43411e-10 -2.26533e-08 0)
(-2.36549e-10 -2.22653e-08 0)
(-2.29835e-10 -2.18883e-08 0)
(-2.23266e-10 -2.1522e-08 0)
(-2.16838e-10 -2.11663e-08 0)
(-2.10549e-10 -2.08208e-08 0)
(-2.04394e-10 -2.04854e-08 0)
(-1.9837e-10 -2.01598e-08 0)
(-1.92474e-10 -1.98439e-08 0)
(-1.86703e-10 -1.95374e-08 0)
(-1.81053e-10 -1.92401e-08 0)
(-1.75521e-10 -1.89519e-08 0)
(-1.70104e-10 -1.86725e-08 0)
(-1.64798e-10 -1.84018e-08 0)
(-1.596e-10 -1.81396e-08 0)
(-1.54507e-10 -1.78857e-08 0)
(-1.49516e-10 -1.764e-08 0)
(-1.44623e-10 -1.74022e-08 0)
(-1.39826e-10 -1.71723e-08 0)
(-1.35121e-10 -1.69501e-08 0)
(-1.30505e-10 -1.67354e-08 0)
(-1.25975e-10 -1.6528e-08 0)
(-1.21528e-10 -1.6328e-08 0)
(-1.17162e-10 -1.6135e-08 0)
(-1.12873e-10 -1.59491e-08 0)
(-1.08658e-10 -1.577e-08 0)
(-1.04515e-10 -1.55977e-08 0)
(-1.0044e-10 -1.5432e-08 0)
(-9.64316e-11 -1.52729e-08 0)
(-9.24864e-11 -1.51202e-08 0)
(-8.86017e-11 -1.49738e-08 0)
(-8.4775e-11 -1.48336e-08 0)
(-8.10036e-11 -1.46996e-08 0)
(-7.7285e-11 -1.45717e-08 0)
(-7.36166e-11 -1.44497e-08 0)
(-6.99961e-11 -1.43336e-08 0)
(-6.64212e-11 -1.42234e-08 0)
(-6.28894e-11 -1.41188e-08 0)
(-5.93988e-11 -1.402e-08 0)
(-5.5947e-11 -1.39268e-08 0)
(-5.25322e-11 -1.38391e-08 0)
(-4.91523e-11 -1.37569e-08 0)
(-4.58052e-11 -1.36802e-08 0)
(-4.24884e-11 -1.36088e-08 0)
(-3.91992e-11 -1.35428e-08 0)
(-3.59333e-11 -1.34818e-08 0)
(-3.26874e-11 -1.34272e-08 0)
(-2.9449e-11 -1.33739e-08 0)
(-2.62347e-11 -1.33388e-08 0)
(-2.29522e-11 -1.32649e-08 0)
(-1.99462e-11 -1.33369e-08 0)
(-1.59191e-11 -1.29112e-08 0)
(-1.61453e-11 -1.3944e-08 0)
(-9.54064e-12 -1.21558e-08 0)
)
;
    }
    bottomWall
    {
        type            calculated;
        value           nonuniform List<vector> 
449
(
(-48.2246 -0.958038 0)
(-20.1614 -0.00494554 0)
(-15.5784 -0.00089826 0)
(-14.1647 -0.000306888 0)
(-13.5707 -0.000141842 0)
(-13.2494 -8.29087e-05 0)
(-13.0366 -5.67328e-05 0)
(-12.8825 -4.15331e-05 0)
(-12.7675 -3.12323e-05 0)
(-12.6803 -2.38778e-05 0)
(-12.6131 -1.85154e-05 0)
(-12.5608 -1.4542e-05 0)
(-12.5194 -1.15593e-05 0)
(-12.4864 -9.29427e-06 0)
(-12.4597 -7.5528e-06 0)
(-12.438 -6.19595e-06 0)
(-12.4201 -5.12548e-06 0)
(-12.4052 -4.2718e-06 0)
(-12.3928 -3.58462e-06 0)
(-12.3823 -3.02679e-06 0)
(-12.3735 -2.57042e-06 0)
(-12.366 -2.19439e-06 0)
(-12.3595 -1.88254e-06 0)
(-12.354 -1.62237e-06 0)
(-12.3492 -1.40412e-06 0)
(-12.3451 -1.2201e-06 0)
(-12.3415 -1.0642e-06 0)
(-12.3383 -9.31535e-07 0)
(-12.3355 -8.18186e-07 0)
(-12.3331 -7.20959e-07 0)
(-12.331 -6.37266e-07 0)
(-12.3291 -5.64977e-07 0)
(-12.3274 -5.02338e-07 0)
(-12.3259 -4.47896e-07 0)
(-12.3245 -4.00443e-07 0)
(-12.3233 -3.5897e-07 0)
(-12.3223 -3.22629e-07 0)
(-12.3213 -2.90709e-07 0)
(-12.3204 -2.62605e-07 0)
(-12.3196 -2.37807e-07 0)
(-12.3189 -2.1588e-07 0)
(-12.3182 -1.9645e-07 0)
(-12.3176 -1.79203e-07 0)
(-12.3171 -1.63861e-07 0)
(-12.3166 -1.50192e-07 0)
(-12.3161 -1.37991e-07 0)
(-12.3157 -1.27084e-07 0)
(-12.3153 -1.17319e-07 0)
(-12.3149 -1.08563e-07 0)
(-12.3146 -1.007e-07 0)
(-12.3143 -9.36288e-08 0)
(-12.314 -8.72602e-08 0)
(-12.3137 -8.15163e-08 0)
(-12.3134 -7.63286e-08 0)
(-12.3132 -7.16377e-08 0)
(-12.313 -6.73907e-08 0)
(-12.3127 -6.35413e-08 0)
(-12.3125 -6.00483e-08 0)
(-12.3123 -5.68749e-08 0)
(-12.3121 -5.39887e-08 0)
(-12.312 -5.13604e-08 0)
(-12.3118 -4.89644e-08 0)
(-12.3116 -4.67777e-08 0)
(-12.3115 -4.47797e-08 0)
(-12.3113 -4.29522e-08 0)
(-12.3112 -4.12786e-08 0)
(-12.311 -3.97444e-08 0)
(-12.3109 -3.83364e-08 0)
(-12.3107 -3.70429e-08 0)
(-12.3106 -3.58534e-08 0)
(-12.3105 -3.47585e-08 0)
(-12.3104 -3.37497e-08 0)
(-12.3102 -3.2819e-08 0)
(-12.3101 -3.19597e-08 0)
(-12.31 -3.11651e-08 0)
(-12.3099 -3.04296e-08 0)
(-12.3098 -2.97481e-08 0)
(-12.3097 -2.9116e-08 0)
(-12.3096 -2.85291e-08 0)
(-12.3095 -2.79836e-08 0)
(-12.3093 -2.74756e-08 0)
(-12.3092 -2.70024e-08 0)
(-12.3091 -2.65603e-08 0)
(-12.309 -2.61474e-08 0)
(-12.3089 -2.57604e-08 0)
(-12.3088 -2.53981e-08 0)
(-12.3087 -2.50577e-08 0)
(-12.3086 -2.47382e-08 0)
(-12.3085 -2.44371e-08 0)
(-12.3084 -2.41537e-08 0)
(-12.3083 -2.38859e-08 0)
(-12.3083 -2.36329e-08 0)
(-12.3082 -2.33928e-08 0)
(-12.3081 -2.31651e-08 0)
(-12.308 -2.29484e-08 0)
(-12.3079 -2.27423e-08 0)
(-12.3078 -2.25459e-08 0)
(-12.3077 -2.23584e-08 0)
(-12.3076 -2.21795e-08 0)
(-12.3075 -2.2008e-08 0)
(-12.3074 -2.18437e-08 0)
(-12.3073 -2.16858e-08 0)
(-12.3072 -2.15338e-08 0)
(-12.3071 -2.13875e-08 0)
(-12.3071 -2.12463e-08 0)
(-12.307 -2.111e-08 0)
(-12.3069 -2.09782e-08 0)
(-12.3068 -2.08505e-08 0)
(-12.3067 -2.07266e-08 0)
(-12.3066 -2.06063e-08 0)
(-12.3065 -2.04892e-08 0)
(-12.3064 -2.03751e-08 0)
(-12.3064 -2.02637e-08 0)
(-12.3063 -2.01547e-08 0)
(-12.3062 -2.0048e-08 0)
(-12.3061 -1.99435e-08 0)
(-12.306 -1.98412e-08 0)
(-12.3059 -1.97409e-08 0)
(-12.3058 -1.96427e-08 0)
(-12.3057 -1.95464e-08 0)
(-12.3057 -1.94519e-08 0)
(-12.3056 -1.9359e-08 0)
(-12.3055 -1.92672e-08 0)
(-12.3054 -1.91768e-08 0)
(-12.3053 -1.90874e-08 0)
(-12.3052 -1.89992e-08 0)
(-12.3051 -1.89121e-08 0)
(-12.3051 -1.8826e-08 0)
(-12.305 -1.87409e-08 0)
(-12.3049 -1.86567e-08 0)
(-12.3048 -1.85733e-08 0)
(-12.3047 -1.84907e-08 0)
(-12.3046 -1.84088e-08 0)
(-12.3046 -1.83275e-08 0)
(-12.3045 -1.82469e-08 0)
(-12.3044 -1.81669e-08 0)
(-12.3043 -1.80874e-08 0)
(-12.3042 -1.80085e-08 0)
(-12.3041 -1.79301e-08 0)
(-12.3041 -1.78521e-08 0)
(-12.304 -1.77743e-08 0)
(-12.3039 -1.76967e-08 0)
(-12.3038 -1.76193e-08 0)
(-12.3037 -1.7542e-08 0)
(-12.3037 -1.74651e-08 0)
(-12.3036 -1.73886e-08 0)
(-12.3035 -1.73124e-08 0)
(-12.3034 -1.72364e-08 0)
(-12.3033 -1.71605e-08 0)
(-12.3032 -1.70847e-08 0)
(-12.3032 -1.70086e-08 0)
(-12.3031 -1.69323e-08 0)
(-12.303 -1.68556e-08 0)
(-12.3029 -1.67782e-08 0)
(-12.3028 -1.67001e-08 0)
(-12.3028 -1.66209e-08 0)
(-12.3027 -1.65402e-08 0)
(-12.3026 -1.64573e-08 0)
(-12.3025 -1.63714e-08 0)
(-12.3024 -1.62813e-08 0)
(-12.3024 -1.61854e-08 0)
(-12.3023 -1.60808e-08 0)
(-12.3022 -1.59636e-08 0)
(-12.3021 -1.5828e-08 0)
(-12.3021 -1.56611e-08 0)
(-12.302 -1.54505e-08 0)
(-12.3019 -1.51404e-08 0)
(-12.3018 -1.47183e-08 0)
(-12.3018 -1.37938e-08 0)
(-12.3017 -1.28759e-08 0)
(-12.3016 -5.74483e-09 0)
(-12.3016 -1.22638e-08 0)
(-12.3015 2.5831e-08 0)
(-12.3019 9.19978e-08 0)
(-12.3024 1.07471e-07 0)
(-12.3029 8.49257e-08 0)
(-12.3032 4.21726e-08 0)
(-12.3033 9.02227e-09 0)
(-12.3033 -1.28897e-08 0)
(-12.3031 -2.72756e-08 0)
(-12.303 -3.70877e-08 0)
(-12.3028 -4.40114e-08 0)
(-12.3025 -4.8981e-08 0)
(-12.3023 -5.25584e-08 0)
(-12.302 -5.51143e-08 0)
(-12.3017 -5.69034e-08 0)
(-12.3014 -5.81046e-08 0)
(-12.3011 -5.88495e-08 0)
(-12.3008 -5.92366e-08 0)
(-12.3005 -5.93418e-08 0)
(-12.3001 -5.92232e-08 0)
(-12.2998 -5.89264e-08 0)
(-12.2995 -5.84872e-08 0)
(-12.2992 -5.7934e-08 0)
(-12.2989 -5.729e-08 0)
(-12.2985 -5.65731e-08 0)
(-12.2982 -5.5799e-08 0)
(-12.2979 -5.49795e-08 0)
(-12.2976 -5.41252e-08 0)
(-12.2973 -5.32445e-08 0)
(-12.2969 -5.23443e-08 0)
(-12.2966 -5.14309e-08 0)
(-12.2963 -5.05087e-08 0)
(-12.296 -4.95821e-08 0)
(-12.2957 -4.86545e-08 0)
(-12.2954 -4.77282e-08 0)
(-12.2951 -4.6806e-08 0)
(-12.2948 -4.58894e-08 0)
(-12.2945 -4.49803e-08 0)
(-12.2942 -4.40799e-08 0)
(-12.2939 -4.31897e-08 0)
(-12.2936 -4.23106e-08 0)
(-12.2934 -4.14435e-08 0)
(-12.2931 -4.05888e-08 0)
(-12.2928 -3.9747e-08 0)
(-12.2925 -3.89186e-08 0)
(-12.2923 -3.81035e-08 0)
(-12.292 -3.73023e-08 0)
(-12.2917 -3.65147e-08 0)
(-12.2915 -3.57411e-08 0)
(-12.2912 -3.49816e-08 0)
(-12.2909 -3.42361e-08 0)
(-12.2907 -3.3505e-08 0)
(-12.2904 -3.27878e-08 0)
(-12.2902 -3.20848e-08 0)
(-12.2899 -3.13957e-08 0)
(-12.2897 -3.07201e-08 0)
(-12.2895 -3.00583e-08 0)
(-12.2892 -2.94095e-08 0)
(-12.289 -2.87739e-08 0)
(-12.2888 -2.81513e-08 0)
(-12.2885 -2.75413e-08 0)
(-12.2883 -2.69443e-08 0)
(-12.2881 -2.63596e-08 0)
(-12.2878 -2.57874e-08 0)
(-12.2876 -2.52275e-08 0)
(-12.2874 -2.46794e-08 0)
(-12.2872 -2.41431e-08 0)
(-12.287 -2.36181e-08 0)
(-12.2868 -2.31043e-08 0)
(-12.2866 -2.26013e-08 0)
(-12.2864 -2.21092e-08 0)
(-12.2861 -2.16274e-08 0)
(-12.2859 -2.11562e-08 0)
(-12.2857 -2.06952e-08 0)
(-12.2856 -2.02441e-08 0)
(-12.2854 -1.98031e-08 0)
(-12.2852 -1.93714e-08 0)
(-12.285 -1.89493e-08 0)
(-12.2848 -1.85362e-08 0)
(-12.2846 -1.8132e-08 0)
(-12.2844 -1.77365e-08 0)
(-12.2842 -1.73496e-08 0)
(-12.284 -1.69712e-08 0)
(-12.2839 -1.66011e-08 0)
(-12.2837 -1.62391e-08 0)
(-12.2835 -1.58852e-08 0)
(-12.2833 -1.55389e-08 0)
(-12.2832 -1.52003e-08 0)
(-12.283 -1.48689e-08 0)
(-12.2828 -1.45448e-08 0)
(-12.2827 -1.42278e-08 0)
(-12.2825 -1.39177e-08 0)
(-12.2824 -1.36144e-08 0)
(-12.2822 -1.33178e-08 0)
(-12.282 -1.30278e-08 0)
(-12.2819 -1.27441e-08 0)
(-12.2817 -1.24667e-08 0)
(-12.2816 -1.21954e-08 0)
(-12.2814 -1.193e-08 0)
(-12.2813 -1.16702e-08 0)
(-12.2811 -1.14162e-08 0)
(-12.281 -1.11677e-08 0)
(-12.2808 -1.09246e-08 0)
(-12.2807 -1.06869e-08 0)
(-12.2806 -1.04544e-08 0)
(-12.2804 -1.02271e-08 0)
(-12.2803 -1.00048e-08 0)
(-12.2801 -9.78739e-09 0)
(-12.28 -9.57478e-09 0)
(-12.2799 -9.36673e-09 0)
(-12.2797 -9.1632e-09 0)
(-12.2796 -8.96412e-09 0)
(-12.2795 -8.76932e-09 0)
(-12.2794 -8.57886e-09 0)
(-12.2792 -8.39256e-09 0)
(-12.2791 -8.2104e-09 0)
(-12.279 -8.03227e-09 0)
(-12.2789 -7.85801e-09 0)
(-12.2787 -7.68761e-09 0)
(-12.2786 -7.52085e-09 0)
(-12.2785 -7.35775e-09 0)
(-12.2784 -7.19814e-09 0)
(-12.2783 -7.04202e-09 0)
(-12.2782 -6.88927e-09 0)
(-12.278 -6.73989e-09 0)
(-12.2779 -6.59379e-09 0)
(-12.2778 -6.45091e-09 0)
(-12.2777 -6.3112e-09 0)
(-12.2776 -6.1745e-09 0)
(-12.2775 -6.04083e-09 0)
(-12.2774 -5.91e-09 0)
(-12.2773 -5.78202e-09 0)
(-12.2772 -5.65682e-09 0)
(-12.2771 -5.53431e-09 0)
(-12.277 -5.41452e-09 0)
(-12.2769 -5.29733e-09 0)
(-12.2768 -5.18274e-09 0)
(-12.2767 -5.07068e-09 0)
(-12.2766 -4.96104e-09 0)
(-12.2765 -4.85382e-09 0)
(-12.2764 -4.74889e-09 0)
(-12.2763 -4.64624e-09 0)
(-12.2762 -4.54578e-09 0)
(-12.2761 -4.44751e-09 0)
(-12.276 -4.35134e-09 0)
(-12.2759 -4.25728e-09 0)
(-12.2758 -4.16529e-09 0)
(-12.2758 -4.07531e-09 0)
(-12.2757 -3.98732e-09 0)
(-12.2756 -3.90123e-09 0)
(-12.2755 -3.81704e-09 0)
(-12.2754 -3.73464e-09 0)
(-12.2753 -3.65402e-09 0)
(-12.2753 -3.57515e-09 0)
(-12.2752 -3.49797e-09 0)
(-12.2751 -3.42248e-09 0)
(-12.275 -3.34863e-09 0)
(-12.2749 -3.27641e-09 0)
(-12.2749 -3.20576e-09 0)
(-12.2748 -3.13664e-09 0)
(-12.2747 -3.06903e-09 0)
(-12.2746 -3.00286e-09 0)
(-12.2746 -2.93813e-09 0)
(-12.2745 -2.87481e-09 0)
(-12.2744 -2.81287e-09 0)
(-12.2743 -2.75229e-09 0)
(-12.2743 -2.69304e-09 0)
(-12.2742 -2.63509e-09 0)
(-12.2741 -2.57844e-09 0)
(-12.2741 -2.52304e-09 0)
(-12.274 -2.46887e-09 0)
(-12.2739 -2.41594e-09 0)
(-12.2739 -2.36422e-09 0)
(-12.2738 -2.31374e-09 0)
(-12.2737 -2.26456e-09 0)
(-12.2737 -2.21674e-09 0)
(-12.2736 -2.17065e-09 0)
(-12.2735 -2.12638e-09 0)
(-12.2735 -2.08727e-09 0)
(-12.2734 -2.04634e-09 0)
(-12.2733 -2.10899e-09 0)
(-12.2733 -1.53279e-09 0)
(-12.2733 -9.69578e-09 0)
(-12.2726 -1.33452e-08 0)
(-12.2723 -5.31309e-09 0)
(-12.2722 -1.56967e-09 0)
(-12.2722 -4.56799e-10 0)
(-12.2722 -1.80242e-10 0)
(-12.2722 -1.00506e-10 0)
(-12.2722 -6.48536e-11 0)
(-12.2722 -4.23597e-11 0)
(-12.2722 -2.73384e-11 0)
(-12.2722 -1.77549e-11 0)
(-12.2722 -1.17147e-11 0)
(-12.2722 -7.75321e-12 0)
(-12.2722 -5.03752e-12 0)
(-12.2722 -3.13721e-12 0)
(-12.2722 -1.79273e-12 0)
(-12.2722 -8.35594e-13 0)
(-12.2722 -1.52168e-13 0)
(-12.2722 3.38739e-13 0)
(-12.2722 6.99219e-13 0)
(-12.2722 9.62666e-13 0)
(-12.2722 1.14733e-12 0)
(-12.2722 1.27404e-12 0)
(-12.2722 1.36511e-12 0)
(-12.2722 1.42785e-12 0)
(-12.2722 1.46192e-12 0)
(-12.2722 1.47474e-12 0)
(-12.2722 1.47938e-12 0)
(-12.2722 1.47608e-12 0)
(-12.2722 1.45979e-12 0)
(-12.2722 1.43406e-12 0)
(-12.2722 1.40932e-12 0)
(-12.2722 1.3837e-12 0)
(-12.2722 1.35065e-12 0)
(-12.2722 1.31242e-12 0)
(-12.2722 1.27862e-12 0)
(-12.2722 1.24666e-12 0)
(-12.2722 1.20911e-12 0)
(-12.2722 1.17172e-12 0)
(-12.2722 1.13201e-12 0)
(-12.2722 1.09709e-12 0)
(-12.2722 1.06571e-12 0)
(-12.2722 1.02915e-12 0)
(-12.2722 9.90638e-13 0)
(-12.2722 9.57614e-13 0)
(-12.2722 9.28666e-13 0)
(-12.2722 8.94729e-13 0)
(-12.2722 8.59028e-13 0)
(-12.2722 8.2891e-13 0)
(-12.2722 8.02933e-13 0)
(-12.2722 7.72009e-13 0)
(-12.2722 7.39279e-13 0)
(-12.2722 7.12157e-13 0)
(-12.2722 6.89095e-13 0)
(-12.2722 6.61081e-13 0)
(-12.2722 6.31163e-13 0)
(-12.2722 6.06827e-13 0)
(-12.2722 5.86445e-13 0)
(-12.2722 5.61112e-13 0)
(-12.2722 5.33737e-13 0)
(-12.2722 5.11987e-13 0)
(-12.2722 4.93986e-13 0)
(-12.2722 4.71114e-13 0)
(-12.2722 4.45821e-13 0)
(-12.2722 4.26315e-13 0)
(-12.2722 4.09979e-13 0)
(-12.2722 3.88727e-13 0)
(-12.2722 3.67959e-13 0)
(-12.2722 3.45101e-13 0)
(-12.2722 3.26786e-13 0)
(-12.2722 3.11952e-13 0)
(-12.2722 2.9165e-13 0)
(-12.2722 2.68902e-13 0)
(-12.2722 2.51619e-13 0)
(-12.2722 2.37523e-13 0)
(-12.2722 2.18551e-13 0)
(-12.2722 1.96475e-13 0)
(-12.2722 1.79894e-13 0)
(-12.2722 1.65923e-13 0)
(-12.2722 1.46144e-13 0)
(-12.2722 1.23398e-13 0)
(-12.2722 1.03886e-13 0)
(-12.2722 8.84615e-14 0)
(-12.2722 6.32645e-14 0)
(-12.2722 3.80824e-14 0)
(-12.2722 1.04935e-14 0)
(-12.2722 -1.13829e-14 0)
(-12.2722 -4.71753e-14 0)
(-12.2722 -1.09394e-13 0)
(-12.2722 -1.32646e-13 0)
(-12.2722 -4.48266e-13 0)
(-12.2722 -7.04094e-14 0)
(-12.2722 -3.44071e-12 0)
(-12.2722 6.57154e-12 0)
(-12.2722 3.91483e-12 0)
(-12.2722 -1.2727e-11 0)
)
;
    }
    symmetry
    {
        type            symmetryPlane;
    }
    frontAndBack
    {
        type            empty;
    }
}


// ************************************************************************* //
