/*--------------------------------*- C++ -*----------------------------------*\
| =========                 |                                                 |
| \\      /  F ield         | OpenFOAM: The Open Source CFD Toolbox           |
|  \\    /   O peration     | Version:  v2012                                 |
|   \\  /    A nd           | Website:  www.openfoam.com                      |
|    \\/     M anipulation  |                                                 |
\*---------------------------------------------------------------------------*/
FoamFile
{
    version     2.0;
    format      ascii;
    class       volScalarField;
    location    "2.5";
    object      yPlus;
}
// * * * * * * * * * * * * * * * * * * * * * * * * * * * * * * * * * * * * * //

dimensions      [0 0 0 0 0 0 0];


internalField   uniform 0;

boundaryField
{
    inlet
    {
        type            calculated;
        value           uniform 0;
    }
    outlet
    {
        type            calculated;
        value           uniform 0;
    }
    topWall
    {
        type            calculated;
        value           nonuniform List<scalar> 
545
(
0.0337457
0.0590484
0.0755346
0.0885716
0.0995852
0.109205
0.11778
0.125528
0.132598
0.139098
0.145109
0.150692
0.155899
0.160769
0.165337
0.169632
0.173677
0.177494
0.1811
0.184513
0.187745
0.190811
0.193722
0.196487
0.199116
0.201618
0.204
0.206269
0.208433
0.210497
0.212467
0.214347
0.216144
0.21786
0.219501
0.22107
0.222571
0.224007
0.225382
0.226698
0.227959
0.229166
0.230323
0.231432
0.232496
0.233515
0.234492
0.23543
0.236329
0.237192
0.23802
0.238815
0.239577
0.240309
0.241012
0.241687
0.242335
0.242957
0.243554
0.244128
0.244679
0.245208
0.245716
0.246204
0.246673
0.247123
0.247555
0.24797
0.248369
0.248751
0.249119
0.249472
0.249804
0.250123
0.250438
0.250748
0.251054
0.251356
0.251653
0.251946
0.252236
0.252521
0.252802
0.253079
0.253352
0.253621
0.253886
0.254148
0.254406
0.25466
0.25491
0.255156
0.255399
0.255639
0.255874
0.25611
0.256305
0.256476
0.256646
0.256816
0.256984
0.257152
0.257319
0.257485
0.25765
0.257815
0.257978
0.258141
0.258303
0.258464
0.258624
0.258783
0.258942
0.259099
0.259256
0.259412
0.259567
0.259721
0.259874
0.260026
0.260178
0.260328
0.260477
0.260626
0.260773
0.26092
0.261066
0.26121
0.261354
0.261497
0.261639
0.26178
0.261919
0.262058
0.262196
0.262333
0.262469
0.262603
0.262737
0.26287
0.263002
0.263132
0.263262
0.263391
0.263518
0.263645
0.26377
0.263894
0.264017
0.264139
0.26426
0.26438
0.264499
0.264617
0.264733
0.264849
0.264963
0.265076
0.265188
0.265299
0.265409
0.265517
0.265624
0.26573
0.265835
0.265939
0.266042
0.266143
0.266243
0.266342
0.266439
0.266536
0.266631
0.266725
0.266818
0.266909
0.266999
0.267088
0.267175
0.267262
0.267347
0.26743
0.267513
0.267594
0.267673
0.267752
0.267829
0.267904
0.267979
0.268052
0.268123
0.268193
0.268262
0.26833
0.268396
0.26846
0.268524
0.268586
0.268646
0.268705
0.268762
0.268818
0.268873
0.268926
0.268978
0.269028
0.269077
0.269124
0.26917
0.269214
0.269257
0.269298
0.269338
0.269376
0.269413
0.269448
0.269482
0.269514
0.269544
0.269573
0.2696
0.269626
0.26965
0.269672
0.269693
0.269713
0.26973
0.269746
0.269761
0.269773
0.269785
0.269794
0.269802
0.269808
0.269812
0.269815
0.269816
0.269815
0.269813
0.269809
0.269803
0.269796
0.269786
0.269775
0.269763
0.269748
0.269732
0.269714
0.269694
0.269673
0.269649
0.269624
0.269597
0.269568
0.269537
0.269505
0.269471
0.269435
0.269397
0.269357
0.269315
0.269272
0.269226
0.269179
0.26913
0.269079
0.269026
0.26897
0.268915
0.268852
0.268789
0.268725
0.268658
0.26859
0.268521
0.26845
0.268378
0.268304
0.268228
0.268151
0.268071
0.26799
0.267907
0.267822
0.267736
0.267647
0.267556
0.267462
0.267367
0.267269
0.267169
0.267067
0.266962
0.266855
0.266745
0.266632
0.266517
0.266399
0.266278
0.266154
0.266027
0.265898
0.265765
0.265628
0.265489
0.265346
0.2652
0.26505
0.264897
0.26474
0.264579
0.264414
0.264246
0.264073
0.263897
0.263716
0.263531
0.263342
0.263148
0.262949
0.262746
0.262538
0.262326
0.262108
0.261886
0.261658
0.261425
0.261187
0.260943
0.260694
0.260439
0.260178
0.259912
0.259639
0.259361
0.259076
0.258785
0.258487
0.258183
0.257872
0.257555
0.257231
0.256899
0.256561
0.256215
0.255862
0.255502
0.255134
0.254758
0.254374
0.253983
0.253583
0.253175
0.252759
0.252335
0.251902
0.25146
0.251009
0.250549
0.250081
0.249603
0.249116
0.248619
0.248113
0.247598
0.247072
0.246537
0.245991
0.245436
0.24487
0.244294
0.243707
0.24311
0.242502
0.241883
0.241253
0.240613
0.239961
0.239298
0.238623
0.237938
0.23724
0.236532
0.235811
0.235079
0.234335
0.233578
0.23281
0.23203
0.231238
0.230434
0.229617
0.228788
0.227946
0.227093
0.226226
0.225347
0.224456
0.223552
0.222636
0.221707
0.220766
0.219811
0.218845
0.217865
0.216873
0.215869
0.214852
0.213823
0.212781
0.211726
0.21066
0.209581
0.20849
0.207386
0.206271
0.205144
0.204005
0.202854
0.201691
0.200517
0.199332
0.198135
0.196927
0.195708
0.194479
0.193238
0.191988
0.190727
0.189456
0.188175
0.186885
0.185585
0.184277
0.182959
0.181632
0.180297
0.178954
0.177604
0.176245
0.174879
0.173507
0.172127
0.170741
0.16935
0.167952
0.166549
0.165141
0.163729
0.162312
0.16073
0.159013
0.157319
0.155644
0.153988
0.152351
0.150734
0.149135
0.147556
0.145997
0.144457
0.142937
0.141437
0.139957
0.138497
0.137057
0.135637
0.134237
0.132857
0.131497
0.130157
0.128837
0.127537
0.126256
0.124996
0.123755
0.122535
0.121333
0.120152
0.11899
0.117847
0.116724
0.11562
0.114535
0.11347
0.112423
0.111395
0.110386
0.109396
0.108425
0.107472
0.106537
0.105621
0.104723
0.103843
0.102981
0.102137
0.101311
0.100503
0.0997122
0.0989391
0.0981835
0.0974453
0.0967243
0.0960206
0.095334
0.0946644
0.0940118
0.0933761
0.0927571
0.0921549
0.0915694
0.0910004
0.0904479
0.0899119
0.0893923
0.0888891
0.0884021
0.0879314
0.0874768
0.0870383
0.086616
0.0862097
0.0858194
0.0854451
0.0850867
0.0847442
0.0844176
0.0841068
0.0838119
0.0835327
0.0832693
0.0830216
0.0827897
0.0825734
0.0823729
0.0821879
0.0820187
0.0818651
0.0817273
0.0816051
0.0814994
0.0814068
0.081341
0.081246
)
;
    }
    bottomWall
    {
        type            calculated;
        value           nonuniform List<scalar> 
449
(
0.13901
0.0898801
0.0790065
0.0753364
0.0737399
0.0728617
0.0722744
0.071846
0.0715245
0.0712797
0.0710908
0.0709431
0.0708262
0.0707328
0.0706572
0.0705955
0.0705446
0.0705024
0.0704671
0.0704374
0.0704122
0.0703908
0.0703725
0.0703567
0.0703431
0.0703313
0.070321
0.0703121
0.0703042
0.0702973
0.0702912
0.0702857
0.0702809
0.0702767
0.0702728
0.0702694
0.0702663
0.0702635
0.070261
0.0702588
0.0702567
0.0702548
0.0702531
0.0702516
0.0702501
0.0702488
0.0702476
0.0702465
0.0702454
0.0702444
0.0702435
0.0702427
0.0702419
0.0702412
0.0702405
0.0702398
0.0702392
0.0702386
0.070238
0.0702375
0.070237
0.0702365
0.070236
0.0702355
0.0702351
0.0702347
0.0702343
0.0702339
0.0702335
0.0702331
0.0702327
0.0702324
0.070232
0.0702317
0.0702314
0.070231
0.0702307
0.0702304
0.0702301
0.0702298
0.0702295
0.0702292
0.0702289
0.0702286
0.0702283
0.070228
0.0702277
0.0702275
0.0702272
0.0702269
0.0702266
0.0702264
0.0702261
0.0702258
0.0702256
0.0702253
0.070225
0.0702248
0.0702245
0.0702242
0.070224
0.0702237
0.0702235
0.0702232
0.070223
0.0702227
0.0702225
0.0702222
0.0702219
0.0702217
0.0702214
0.0702212
0.0702209
0.0702207
0.0702205
0.0702202
0.07022
0.0702197
0.0702195
0.0702192
0.070219
0.0702187
0.0702185
0.0702182
0.070218
0.0702178
0.0702175
0.0702173
0.070217
0.0702168
0.0702166
0.0702163
0.0702161
0.0702158
0.0702156
0.0702154
0.0702151
0.0702149
0.0702146
0.0702144
0.0702142
0.0702139
0.0702137
0.0702135
0.0702132
0.070213
0.0702128
0.0702125
0.0702123
0.0702121
0.0702118
0.0702116
0.0702114
0.0702112
0.0702109
0.0702107
0.0702105
0.0702102
0.07021
0.0702098
0.0702096
0.0702093
0.0702091
0.0702089
0.0702087
0.0702085
0.0702082
0.070208
0.0702078
0.0702076
0.0702075
0.0702075
0.0702071
0.0702083
0.0702097
0.0702111
0.0702119
0.0702122
0.0702121
0.0702118
0.0702113
0.0702107
0.07021
0.0702093
0.0702085
0.0702077
0.0702068
0.0702059
0.0702051
0.0702041
0.0702032
0.0702023
0.0702014
0.0702005
0.0701996
0.0701986
0.0701977
0.0701968
0.0701959
0.070195
0.0701941
0.0701932
0.0701923
0.0701914
0.0701906
0.0701897
0.0701889
0.070188
0.0701872
0.0701863
0.0701855
0.0701847
0.0701839
0.0701831
0.0701823
0.0701815
0.0701807
0.07018
0.0701792
0.0701785
0.0701777
0.070177
0.0701763
0.0701755
0.0701748
0.0701741
0.0701734
0.0701727
0.0701721
0.0701714
0.0701707
0.0701701
0.0701694
0.0701688
0.0701681
0.0701675
0.0701669
0.0701663
0.0701657
0.0701651
0.0701645
0.0701639
0.0701633
0.0701627
0.0701621
0.0701616
0.070161
0.0701605
0.0701599
0.0701594
0.0701589
0.0701583
0.0701578
0.0701573
0.0701568
0.0701563
0.0701558
0.0701553
0.0701548
0.0701543
0.0701538
0.0701534
0.0701529
0.0701524
0.070152
0.0701515
0.0701511
0.0701507
0.0701502
0.0701498
0.0701494
0.0701489
0.0701485
0.0701481
0.0701477
0.0701473
0.0701469
0.0701465
0.0701461
0.0701457
0.0701454
0.070145
0.0701446
0.0701442
0.0701439
0.0701435
0.0701432
0.0701428
0.0701425
0.0701421
0.0701418
0.0701414
0.0701411
0.0701408
0.0701405
0.0701401
0.0701398
0.0701395
0.0701392
0.0701389
0.0701386
0.0701383
0.070138
0.0701377
0.0701374
0.0701371
0.0701368
0.0701365
0.0701362
0.070136
0.0701357
0.0701354
0.0701352
0.0701349
0.0701346
0.0701344
0.0701341
0.0701339
0.0701336
0.0701334
0.0701331
0.0701329
0.0701326
0.0701324
0.0701322
0.0701319
0.0701317
0.0701315
0.0701313
0.070131
0.0701308
0.0701306
0.0701304
0.0701302
0.07013
0.0701298
0.0701296
0.0701294
0.0701292
0.070129
0.0701288
0.0701286
0.0701284
0.0701282
0.070128
0.0701278
0.0701276
0.0701274
0.0701273
0.0701271
0.0701269
0.0701267
0.0701265
0.0701265
0.0701246
0.0701237
0.0701234
0.0701234
0.0701233
0.0701233
0.0701233
0.0701233
0.0701233
0.0701233
0.0701233
0.0701233
0.0701233
0.0701233
0.0701233
0.0701233
0.0701233
0.0701233
0.0701233
0.0701233
0.0701233
0.0701233
0.0701233
0.0701233
0.0701233
0.0701233
0.0701233
0.0701233
0.0701233
0.0701233
0.0701233
0.0701233
0.0701233
0.0701233
0.0701233
0.0701233
0.0701233
0.0701233
0.0701233
0.0701233
0.0701233
0.0701233
0.0701233
0.0701233
0.0701233
0.0701233
0.0701233
0.0701233
0.0701233
0.0701233
0.0701233
0.0701233
0.0701233
0.0701233
0.0701233
0.0701233
0.0701233
0.0701233
0.0701233
0.0701233
0.0701233
0.0701233
0.0701233
0.0701233
0.0701233
0.0701233
0.0701233
0.0701233
0.0701233
0.0701233
0.0701233
0.0701233
0.0701233
0.0701233
0.0701233
0.0701233
0.0701233
0.0701233
0.0701233
0.0701233
0.0701233
0.0701233
0.0701233
0.0701233
0.0701233
0.0701233
0.0701233
0.0701233
0.0701233
0.0701233
0.0701233
0.0701233
0.0701233
0.0701233
0.0701233
)
;
    }
    symmetry
    {
        type            symmetryPlane;
    }
    frontAndBack
    {
        type            empty;
    }
}


// ************************************************************************* //
