/*--------------------------------*- C++ -*----------------------------------*\
| =========                 |                                                 |
| \\      /  F ield         | OpenFOAM: The Open Source CFD Toolbox           |
|  \\    /   O peration     | Version:  v2012                                 |
|   \\  /    A nd           | Website:  www.openfoam.com                      |
|    \\/     M anipulation  |                                                 |
\*---------------------------------------------------------------------------*/
FoamFile
{
    version     2.0;
    format      ascii;
    class       volScalarField;
    location    "45.5";
    object      k;
}
// * * * * * * * * * * * * * * * * * * * * * * * * * * * * * * * * * * * * * //

dimensions      [0 2 -2 0 0 0 0];


internalField   nonuniform List<scalar> 
209825
(
0.00102412
0.000931779
0.000855561
0.000793289
0.000743175
0.000703044
0.000670909
0.000644931
0.000623775
0.000606306
0.000591779
0.00057953
0.00056915
0.000560244
0.000552576
0.000545902
0.000540077
0.000534951
0.000530424
0.000526404
0.000522816
0.000519609
0.000516717
0.000514122
0.000511756
0.000509629
0.000507671
0.000505909
0.000504269
0.000502794
0.00050141
0.000500168
0.000498986
0.000497933
0.00049692
0.000496022
0.000495145
0.000494373
0.000493612
0.000492949
0.000492286
0.000491709
0.000491131
0.000490634
0.000490123
0.000489691
0.000489243
0.000488867
0.000488471
0.000488142
0.000487789
0.000487501
0.000487191
0.000486947
0.000486666
0.00048646
0.000486209
0.000486029
0.000485808
0.000485652
0.000485456
0.000485316
0.000485148
0.00048502
0.000484875
0.000484771
0.000484629
0.000484532
0.000484408
0.000484335
0.000484234
0.000484178
0.000484094
0.000484048
0.000483969
0.000483923
0.000483851
0.000483814
0.000483752
0.000483724
0.000483674
0.000483656
0.000483615
0.000483614
0.000483605
0.000483626
0.000483626
0.000483682
0.000483682
0.00048375
0.00048375
0.000483816
0.000484004
0.000491884
0.000517233
0.00125985
0.00102412
0.000931779
0.000855561
0.000793289
0.000743174
0.000703042
0.000670906
0.000644927
0.00062377
0.000606301
0.000591772
0.000579523
0.000569143
0.000560236
0.000552567
0.000545893
0.000540067
0.000534941
0.000530414
0.000526394
0.000522805
0.000519598
0.000516706
0.00051411
0.000511744
0.000509617
0.000507659
0.000505897
0.000504257
0.000502782
0.000501398
0.000500155
0.000498974
0.00049792
0.000496907
0.000496009
0.000495132
0.00049436
0.000493599
0.000492935
0.000492272
0.000491696
0.000491117
0.00049062
0.000490109
0.000489677
0.000489229
0.000488853
0.000488457
0.000488128
0.000487775
0.000487488
0.000487177
0.000486933
0.000486652
0.000486446
0.000486195
0.000486015
0.000485794
0.000485638
0.000485442
0.000485302
0.000485134
0.000485006
0.000484861
0.000484757
0.000484615
0.000484518
0.000484394
0.000484321
0.00048422
0.000484164
0.00048408
0.000484034
0.000483954
0.000483909
0.000483837
0.0004838
0.000483738
0.00048371
0.000483659
0.000483641
0.000483601
0.000483599
0.00048359
0.000483612
0.000483612
0.000483667
0.000483667
0.000483735
0.000483735
0.000483801
0.000483989
0.000491884
0.000517226
0.00126056
0.00102412
0.00093178
0.000855562
0.000793288
0.00074317
0.000703034
0.000670894
0.000644911
0.00062375
0.000606277
0.000591746
0.000579494
0.000569111
0.000560202
0.000552531
0.000545855
0.000540028
0.000534901
0.000530372
0.000526351
0.000522761
0.000519553
0.00051666
0.000514064
0.000511697
0.00050957
0.000507611
0.000505848
0.000504208
0.000502733
0.000501348
0.000500105
0.000498923
0.000497869
0.000496855
0.000495957
0.00049508
0.000494308
0.000493547
0.000492883
0.000492219
0.000491642
0.000491064
0.000490567
0.000490055
0.000489623
0.000489175
0.000488799
0.000488402
0.000488073
0.000487721
0.000487433
0.000487123
0.000486878
0.000486597
0.00048639
0.000486139
0.000485959
0.000485738
0.000485582
0.000485387
0.000485246
0.000485078
0.00048495
0.000484805
0.000484701
0.000484559
0.000484462
0.000484338
0.000484265
0.000484163
0.000484107
0.000484023
0.000483977
0.000483898
0.000483852
0.00048378
0.000483743
0.000483681
0.000483653
0.000483602
0.000483584
0.000483544
0.000483542
0.000483533
0.000483554
0.000483554
0.00048361
0.00048361
0.000483677
0.000483677
0.000483743
0.000483932
0.000491855
0.000517182
0.001262
0.00102412
0.000931781
0.000855563
0.000793286
0.000743163
0.000703021
0.000670873
0.000644883
0.000623716
0.000606238
0.000591701
0.000579444
0.000569057
0.000560145
0.000552471
0.000545792
0.000539963
0.000534833
0.000530302
0.000526279
0.000522688
0.000519478
0.000516584
0.000513986
0.000511619
0.00050949
0.00050753
0.000505766
0.000504126
0.000502649
0.000501264
0.00050002
0.000498838
0.000497783
0.000496769
0.00049587
0.000494993
0.00049422
0.000493459
0.000492794
0.00049213
0.000491553
0.000490974
0.000490477
0.000489965
0.000489533
0.000489084
0.000488708
0.000488311
0.000487982
0.000487629
0.000487341
0.00048703
0.000486786
0.000486504
0.000486298
0.000486046
0.000485866
0.000485645
0.000485489
0.000485293
0.000485152
0.000484984
0.000484856
0.000484711
0.000484607
0.000484465
0.000484367
0.000484243
0.00048417
0.000484069
0.000484012
0.000483928
0.000483882
0.000483803
0.000483757
0.000483685
0.000483647
0.000483585
0.000483557
0.000483507
0.000483489
0.000483448
0.000483446
0.000483437
0.000483458
0.000483458
0.000483513
0.000483513
0.00048358
0.00048358
0.000483646
0.000483836
0.000491804
0.000517106
0.00126375
0.00102412
0.000931782
0.000855565
0.000793284
0.000743154
0.000703002
0.000670844
0.000644844
0.000623668
0.000606181
0.000591637
0.000579375
0.000568982
0.000560064
0.000552386
0.000545703
0.00053987
0.000534737
0.000530203
0.000526178
0.000522584
0.000519372
0.000516476
0.000513877
0.000511507
0.000509377
0.000507416
0.000505651
0.000504009
0.000502532
0.000501145
0.000499901
0.000498718
0.000497662
0.000496647
0.000495748
0.00049487
0.000494097
0.000493334
0.000492669
0.000492005
0.000491427
0.000490848
0.00049035
0.000489838
0.000489405
0.000488956
0.000488579
0.000488182
0.000487853
0.0004875
0.000487211
0.0004869
0.000486656
0.000486374
0.000486167
0.000485915
0.000485735
0.000485514
0.000485357
0.000485161
0.00048502
0.000484852
0.000484724
0.000484579
0.000484474
0.000484332
0.000484234
0.00048411
0.000484037
0.000483935
0.000483879
0.000483795
0.000483748
0.000483669
0.000483623
0.00048355
0.000483513
0.000483451
0.000483423
0.000483372
0.000483354
0.000483313
0.000483311
0.000483301
0.000483322
0.000483321
0.000483376
0.000483376
0.000483443
0.000483443
0.000483509
0.0004837
0.000491731
0.000516997
0.00126572
0.00102412
0.000931784
0.000855567
0.000793282
0.000743141
0.000702977
0.000670806
0.000644793
0.000623606
0.000606108
0.000591555
0.000579284
0.000568884
0.00055996
0.000552275
0.000545587
0.00053975
0.000534613
0.000530076
0.000526047
0.00052245
0.000519235
0.000516337
0.000513735
0.000511364
0.000509232
0.000507268
0.000505502
0.000503859
0.00050238
0.000500992
0.000499746
0.000498562
0.000497505
0.000496489
0.000495589
0.00049471
0.000493936
0.000493173
0.000492507
0.000491842
0.000491264
0.000490684
0.000490185
0.000489673
0.00048924
0.00048879
0.000488413
0.000488016
0.000487686
0.000487332
0.000487043
0.000486732
0.000486487
0.000486205
0.000485998
0.000485746
0.000485565
0.000485343
0.000485186
0.00048499
0.000484849
0.000484681
0.000484552
0.000484407
0.000484302
0.000484159
0.000484062
0.000483937
0.000483864
0.000483762
0.000483706
0.000483621
0.000483575
0.000483495
0.000483449
0.000483376
0.000483339
0.000483277
0.000483248
0.000483197
0.000483179
0.000483138
0.000483136
0.000483125
0.000483145
0.000483145
0.000483199
0.000483199
0.000483265
0.000483265
0.000483331
0.000483524
0.000491636
0.000516857
0.00126787
0.00102412
0.000931787
0.00085557
0.000793278
0.000743126
0.000702946
0.000670759
0.000644731
0.000623529
0.000606019
0.000591454
0.000579172
0.000568763
0.000559831
0.00055214
0.000545445
0.000539602
0.00053446
0.000529918
0.000525885
0.000522284
0.000519067
0.000516165
0.00051356
0.000511186
0.000509052
0.000507086
0.000505318
0.000503673
0.000502192
0.000500803
0.000499556
0.00049837
0.000497312
0.000496295
0.000495393
0.000494514
0.000493738
0.000492974
0.000492308
0.000491642
0.000491063
0.000490482
0.000489983
0.00048947
0.000489036
0.000488585
0.000488208
0.00048781
0.00048748
0.000487125
0.000486836
0.000486524
0.000486279
0.000485996
0.000485789
0.000485536
0.000485356
0.000485133
0.000484976
0.00048478
0.000484638
0.000484469
0.000484341
0.000484195
0.00048409
0.000483947
0.00048385
0.000483725
0.000483651
0.000483549
0.000483492
0.000483407
0.000483361
0.000483281
0.000483235
0.000483162
0.000483124
0.000483062
0.000483033
0.000482982
0.000482963
0.000482923
0.00048292
0.000482908
0.000482928
0.000482927
0.00048298
0.00048298
0.000483046
0.000483046
0.000483112
0.000483307
0.000491519
0.000516684
0.00127009
0.00102412
0.00093179
0.000855574
0.000793275
0.000743108
0.00070291
0.000670704
0.000644657
0.000623438
0.000605912
0.000591333
0.00057904
0.00056862
0.000559678
0.000551978
0.000545276
0.000539426
0.000534277
0.00052973
0.000525692
0.000522087
0.000518865
0.00051596
0.000513352
0.000510975
0.000508837
0.00050687
0.000505099
0.000503451
0.000501969
0.000500577
0.000499328
0.000498141
0.000497081
0.000496063
0.00049516
0.000494279
0.000493503
0.000492737
0.00049207
0.000491403
0.000490823
0.000490241
0.000489741
0.000489227
0.000488792
0.000488341
0.000487963
0.000487564
0.000487234
0.000486879
0.000486589
0.000486277
0.000486031
0.000485747
0.000485539
0.000485287
0.000485105
0.000484883
0.000484725
0.000484528
0.000484386
0.000484217
0.000484089
0.000483942
0.000483837
0.000483694
0.000483596
0.000483471
0.000483397
0.000483294
0.000483237
0.000483152
0.000483106
0.000483025
0.000482979
0.000482906
0.000482868
0.000482805
0.000482776
0.000482725
0.000482706
0.000482665
0.000482662
0.000482649
0.000482668
0.000482667
0.00048272
0.00048272
0.000482784
0.000482784
0.000482851
0.000483048
0.000491382
0.000516479
0.00127223
0.00102412
0.000931793
0.000855578
0.00079327
0.000743087
0.000702868
0.000670639
0.000644571
0.000623332
0.000605788
0.000591193
0.000578885
0.000568453
0.000559499
0.00055179
0.000545079
0.000539221
0.000534065
0.000529512
0.000525468
0.000521857
0.000518631
0.000515721
0.000513109
0.000510728
0.000508588
0.000506617
0.000504843
0.000503193
0.000501708
0.000500314
0.000499064
0.000497874
0.000496813
0.000495793
0.000494888
0.000494006
0.000493228
0.000492461
0.000491792
0.000491124
0.000490544
0.000489961
0.00048946
0.000488945
0.000488509
0.000488057
0.000487678
0.000487279
0.000486947
0.000486591
0.000486301
0.000485988
0.000485741
0.000485458
0.000485249
0.000484996
0.000484814
0.000484591
0.000484433
0.000484236
0.000484093
0.000483924
0.000483795
0.000483648
0.000483542
0.000483399
0.000483301
0.000483175
0.000483101
0.000482998
0.000482941
0.000482855
0.000482808
0.000482728
0.000482681
0.000482608
0.000482569
0.000482506
0.000482477
0.000482425
0.000482406
0.000482365
0.000482361
0.000482348
0.000482366
0.000482365
0.000482416
0.000482416
0.00048248
0.00048248
0.000482546
0.000482746
0.000491225
0.000516241
0.00127406
0.00102412
0.000931797
0.000855582
0.000793265
0.000743064
0.00070282
0.000670566
0.000644473
0.000623211
0.000605646
0.000591033
0.000578709
0.000568262
0.000559296
0.000551574
0.000544853
0.000538987
0.000533823
0.000529262
0.000525212
0.000521595
0.000518363
0.000515448
0.000512832
0.000510447
0.000508302
0.000506328
0.000504551
0.000502898
0.00050141
0.000500014
0.000498761
0.000497569
0.000496506
0.000495483
0.000494577
0.000493693
0.000492914
0.000492146
0.000491475
0.000490806
0.000490224
0.00048964
0.000489138
0.000488621
0.000488185
0.000487732
0.000487352
0.000486952
0.000486619
0.000486263
0.000485972
0.000485658
0.000485411
0.000485126
0.000484917
0.000484663
0.000484481
0.000484257
0.000484098
0.000483901
0.000483758
0.000483588
0.000483458
0.000483311
0.000483205
0.000483061
0.000482963
0.000482837
0.000482762
0.000482659
0.000482601
0.000482515
0.000482468
0.000482387
0.00048234
0.000482266
0.000482228
0.000482164
0.000482135
0.000482083
0.000482063
0.000482022
0.000482017
0.000482003
0.00048202
0.000482019
0.000482069
0.000482069
0.000482131
0.000482131
0.000482198
0.000482401
0.000491047
0.00051597
0.00127525
0.00102412
0.000931801
0.000855587
0.00079326
0.000743037
0.000702767
0.000670484
0.000644363
0.000623075
0.000605487
0.000590853
0.00057851
0.000568047
0.000559066
0.000551332
0.0005446
0.000538723
0.000533549
0.00052898
0.000524922
0.000521299
0.000518061
0.000515141
0.000512519
0.000510129
0.000507981
0.000506002
0.000504222
0.000502565
0.000501074
0.000499675
0.000498419
0.000497225
0.000496159
0.000495135
0.000494227
0.00049334
0.000492559
0.00049179
0.000491118
0.000490447
0.000489863
0.000489278
0.000488774
0.000488257
0.000487819
0.000487365
0.000486984
0.000486583
0.00048625
0.000485892
0.0004856
0.000485285
0.000485038
0.000484752
0.000484542
0.000484288
0.000484105
0.00048388
0.000483721
0.000483523
0.000483379
0.000483209
0.000483079
0.00048293
0.000482825
0.00048268
0.000482582
0.000482455
0.00048238
0.000482276
0.000482218
0.000482132
0.000482084
0.000482003
0.000481956
0.000481881
0.000481843
0.000481779
0.000481749
0.000481696
0.000481676
0.000481635
0.000481629
0.000481614
0.00048163
0.000481628
0.000481677
0.000481677
0.000481738
0.000481738
0.000481805
0.000482012
0.00049085
0.000515665
0.00127532
0.00102412
0.000931805
0.000855593
0.000793254
0.000743008
0.000702708
0.000670393
0.000644241
0.000622924
0.00060531
0.000590653
0.000578289
0.000567808
0.000558811
0.000551062
0.000544317
0.000538428
0.000533245
0.000528666
0.0005246
0.000520969
0.000517724
0.000514797
0.00051217
0.000509775
0.000507622
0.000505639
0.000503854
0.000502194
0.0005007
0.000499297
0.000498038
0.000496841
0.000495773
0.000494746
0.000493835
0.000492947
0.000492164
0.000491392
0.000490718
0.000490046
0.000489461
0.000488874
0.000488369
0.00048785
0.000487411
0.000486956
0.000486574
0.000486171
0.000485837
0.000485478
0.000485186
0.00048487
0.000484621
0.000484335
0.000484124
0.000483869
0.000483685
0.00048346
0.0004833
0.000483101
0.000482957
0.000482785
0.000482655
0.000482506
0.0004824
0.000482255
0.000482156
0.000482029
0.000481953
0.000481849
0.00048179
0.000481704
0.000481656
0.000481574
0.000481526
0.000481452
0.000481412
0.000481348
0.000481318
0.000481264
0.000481244
0.000481203
0.000481196
0.000481179
0.000481195
0.000481192
0.00048124
0.00048124
0.000481299
0.000481299
0.000481366
0.000481578
0.000490632
0.000515326
0.0012739
0.00102412
0.00093181
0.0008556
0.000793248
0.000742976
0.000702643
0.000670293
0.000644106
0.000622758
0.000605115
0.000590432
0.000578046
0.000567544
0.000558529
0.000550765
0.000544005
0.000538104
0.000532909
0.00052832
0.000524244
0.000520605
0.000517352
0.000514419
0.000511785
0.000509384
0.000507225
0.000505237
0.000503448
0.000501784
0.000500286
0.000498879
0.000497617
0.000496417
0.000495346
0.000494316
0.000493403
0.000492512
0.000491727
0.000490953
0.000490277
0.000489603
0.000489016
0.000488427
0.000487921
0.0004874
0.00048696
0.000486503
0.00048612
0.000485716
0.000485381
0.000485021
0.000484727
0.00048441
0.000484161
0.000483873
0.000483662
0.000483405
0.000483221
0.000482995
0.000482834
0.000482634
0.00048249
0.000482318
0.000482187
0.000482037
0.00048193
0.000481785
0.000481685
0.000481558
0.000481482
0.000481376
0.000481317
0.00048123
0.000481182
0.0004811
0.000481052
0.000480976
0.000480937
0.000480872
0.000480841
0.000480787
0.000480766
0.000480724
0.000480718
0.000480699
0.000480714
0.00048071
0.000480756
0.000480756
0.000480814
0.000480814
0.000480881
0.000481098
0.000490395
0.000514952
0.00127099
0.00102412
0.000931816
0.000855607
0.000793241
0.000742941
0.000702572
0.000670184
0.000643959
0.000622576
0.000604902
0.000590191
0.000577779
0.000567255
0.00055822
0.000550438
0.000543663
0.000537748
0.00053254
0.00052794
0.000523854
0.000520206
0.000516944
0.000514003
0.000511362
0.000508955
0.00050679
0.000504797
0.000503003
0.000501334
0.000499831
0.000498421
0.000497155
0.000495951
0.000494877
0.000493844
0.000492928
0.000492035
0.000491247
0.000490471
0.000489793
0.000489116
0.000488528
0.000487937
0.000487429
0.000486907
0.000486465
0.000486006
0.000485622
0.000485216
0.00048488
0.000484519
0.000484224
0.000483906
0.000483655
0.000483366
0.000483154
0.000482897
0.000482711
0.000482484
0.000482323
0.000482122
0.000481977
0.000481804
0.000481673
0.000481522
0.000481415
0.000481269
0.000481169
0.00048104
0.000480964
0.000480858
0.000480798
0.00048071
0.000480662
0.000480579
0.000480531
0.000480455
0.000480415
0.000480349
0.000480318
0.000480263
0.000480242
0.0004802
0.000480192
0.000480172
0.000480185
0.000480181
0.000480226
0.000480226
0.000480281
0.000480281
0.000480349
0.000480571
0.000490138
0.000514543
0.0012666
0.00102412
0.000931822
0.000855615
0.000793233
0.000742904
0.000702495
0.000670066
0.0006438
0.000622379
0.00060467
0.000589929
0.00057749
0.000566941
0.000557885
0.000550084
0.000543291
0.00053736
0.000532139
0.000527526
0.000523429
0.000519771
0.0005165
0.00051355
0.000510902
0.000508488
0.000506317
0.000504317
0.000502518
0.000500843
0.000499336
0.000497922
0.000496652
0.000495444
0.000494366
0.00049333
0.000492411
0.000491515
0.000490725
0.000489946
0.000489265
0.000488586
0.000487996
0.000487402
0.000486893
0.000486369
0.000485925
0.000485465
0.000485079
0.000484672
0.000484334
0.000483972
0.000483676
0.000483356
0.000483104
0.000482814
0.000482601
0.000482342
0.000482156
0.000481928
0.000481766
0.000481564
0.000481418
0.000481244
0.000481112
0.000480961
0.000480853
0.000480706
0.000480606
0.000480476
0.000480399
0.000480292
0.000480232
0.000480144
0.000480095
0.000480012
0.000479963
0.000479886
0.000479845
0.000479779
0.000479747
0.000479692
0.00047967
0.000479627
0.000479619
0.000479598
0.00047961
0.000479604
0.000479647
0.000479647
0.000479701
0.000479701
0.000479768
0.000479997
0.000489861
0.000514096
0.00126076
0.00102411
0.000931828
0.000855623
0.000793226
0.000742864
0.000702413
0.000669938
0.000643629
0.000622167
0.00060442
0.000589645
0.000577177
0.000566602
0.000557522
0.0005497
0.000542888
0.000536941
0.000531705
0.000527079
0.00052297
0.0005193
0.000516019
0.00051306
0.000510404
0.000507982
0.000505804
0.000503798
0.000501992
0.000500312
0.0004988
0.000497381
0.000496107
0.000494895
0.000493813
0.000492773
0.000491851
0.000490951
0.000490158
0.000489376
0.000488694
0.000488012
0.000487419
0.000486823
0.000486312
0.000485785
0.00048534
0.000484878
0.000484491
0.000484082
0.000483743
0.000483378
0.000483081
0.00048276
0.000482507
0.000482216
0.000482001
0.000481741
0.000481554
0.000481325
0.000481161
0.000480959
0.000480812
0.000480637
0.000480505
0.000480352
0.000480243
0.000480096
0.000479995
0.000479865
0.000479787
0.000479679
0.000479619
0.00047953
0.00047948
0.000479396
0.000479347
0.00047927
0.000479228
0.000479161
0.000479129
0.000479073
0.00047905
0.000479007
0.000478998
0.000478975
0.000478985
0.000478979
0.00047902
0.00047902
0.000479071
0.000479071
0.000479139
0.000479375
0.000489563
0.000513611
0.00125351
0.00102411
0.000931835
0.000855632
0.000793218
0.000742821
0.000702326
0.000669802
0.000643445
0.000621938
0.000604152
0.000589341
0.00057684
0.000566237
0.000557131
0.000549287
0.000542455
0.00053649
0.000531237
0.000526597
0.000522474
0.000518792
0.000515501
0.000512532
0.000509866
0.000507436
0.00050525
0.000503238
0.000501426
0.00049974
0.000498222
0.000496797
0.000495518
0.000494302
0.000493216
0.000492172
0.000491247
0.000490344
0.000489547
0.000488762
0.000488077
0.000487392
0.000486797
0.000486199
0.000485685
0.000485156
0.000484709
0.000484245
0.000483856
0.000483445
0.000483104
0.000482738
0.00048244
0.000482117
0.000481863
0.00048157
0.000481354
0.000481093
0.000480904
0.000480674
0.00048051
0.000480306
0.000480158
0.000479982
0.000479849
0.000479695
0.000479586
0.000479438
0.000479336
0.000479205
0.000479127
0.000479018
0.000478956
0.000478867
0.000478816
0.000478732
0.000478682
0.000478604
0.000478562
0.000478494
0.000478461
0.000478405
0.000478381
0.000478337
0.000478327
0.000478303
0.000478312
0.000478304
0.000478343
0.000478343
0.000478392
0.000478392
0.00047846
0.000478704
0.000489244
0.000513086
0.00124488
0.00102411
0.000931842
0.000855642
0.00079321
0.000742776
0.000702232
0.000669657
0.000643249
0.000621695
0.000603865
0.000589015
0.00057648
0.000565846
0.000556713
0.000548844
0.000541991
0.000536006
0.000530736
0.000526079
0.000521943
0.000518248
0.000514945
0.000511965
0.00050929
0.000506851
0.000504657
0.000502636
0.000500817
0.000499125
0.000497601
0.000496171
0.000494887
0.000493666
0.000492575
0.000491527
0.000490598
0.000489691
0.000488891
0.000488103
0.000487414
0.000486727
0.000486128
0.000485528
0.000485011
0.000484481
0.000484031
0.000483565
0.000483174
0.000482761
0.000482418
0.000482051
0.000481751
0.000481426
0.00048117
0.000480876
0.000480659
0.000480396
0.000480207
0.000479975
0.000479809
0.000479605
0.000479456
0.000479279
0.000479144
0.000478989
0.00047888
0.000478731
0.000478629
0.000478496
0.000478417
0.000478307
0.000478245
0.000478154
0.000478103
0.000478018
0.000477968
0.000477889
0.000477846
0.000477778
0.000477744
0.000477686
0.000477663
0.000477618
0.000477607
0.000477581
0.000477588
0.000477579
0.000477616
0.000477616
0.000477662
0.000477662
0.000477731
0.000477983
0.000488902
0.000512518
0.00123492
0.00102411
0.00093185
0.000855652
0.000793201
0.000742729
0.000702134
0.000669503
0.00064304
0.000621435
0.000603559
0.000588668
0.000576095
0.000565428
0.000556266
0.000548371
0.000541495
0.000535489
0.0005302
0.000525527
0.000521375
0.000517666
0.000514351
0.000511359
0.000508674
0.000506225
0.000504022
0.000501993
0.000500167
0.000498467
0.000496937
0.000495501
0.000494211
0.000492985
0.00049189
0.000490837
0.000489903
0.000488992
0.000488189
0.000487397
0.000486705
0.000486014
0.000485413
0.00048481
0.000484291
0.000483757
0.000483306
0.000482837
0.000482444
0.000482029
0.000481685
0.000481315
0.000481013
0.000480686
0.000480429
0.000480133
0.000479915
0.000479651
0.00047946
0.000479227
0.00047906
0.000478854
0.000478704
0.000478526
0.00047839
0.000478234
0.000478123
0.000477974
0.000477871
0.000477738
0.000477657
0.000477547
0.000477484
0.000477392
0.00047734
0.000477254
0.000477203
0.000477124
0.00047708
0.000477011
0.000476976
0.000476918
0.000476893
0.000476848
0.000476836
0.000476808
0.000476814
0.000476803
0.000476837
0.000476837
0.000476881
0.00047688
0.00047695
0.000477211
0.000488536
0.000511906
0.00122368
0.00102411
0.000931858
0.000855663
0.000793193
0.000742679
0.000702029
0.00066934
0.000642819
0.00062116
0.000603235
0.000588299
0.000575687
0.000564985
0.000555792
0.000547869
0.000540967
0.000534939
0.00052963
0.000524938
0.00052077
0.000517047
0.000513717
0.000510714
0.000508017
0.000505558
0.000503345
0.000501308
0.000499473
0.000497766
0.00049623
0.000494787
0.000493491
0.000492259
0.000491159
0.000490101
0.000489163
0.000488248
0.00048744
0.000486644
0.000485949
0.000485255
0.000484651
0.000484044
0.000483523
0.000482986
0.000482532
0.000482061
0.000481665
0.000481248
0.000480902
0.00048053
0.000480227
0.000479897
0.000479639
0.000479341
0.000479121
0.000478855
0.000478663
0.000478428
0.00047826
0.000478053
0.000477902
0.000477722
0.000477586
0.000477428
0.000477317
0.000477166
0.000477062
0.000476928
0.000476847
0.000476735
0.000476671
0.000476579
0.000476526
0.000476439
0.000476388
0.000476307
0.000476263
0.000476193
0.000476157
0.000476098
0.000476072
0.000476026
0.000476013
0.000475984
0.000475988
0.000475976
0.000476007
0.000476007
0.000476049
0.000476047
0.000476117
0.000476388
0.000488144
0.000511245
0.00121121
0.0010241
0.000931866
0.000855675
0.000793184
0.000742627
0.00070192
0.000669168
0.000642586
0.000620869
0.000602891
0.000587909
0.000575254
0.000564515
0.000555288
0.000547336
0.000540407
0.000534355
0.000529025
0.000524314
0.000520128
0.000516389
0.000513045
0.000510029
0.000507319
0.000504849
0.000502626
0.00050058
0.000498737
0.000497022
0.000495478
0.000494028
0.000492726
0.000491488
0.000490382
0.000489319
0.000488376
0.000487456
0.000486645
0.000485845
0.000485146
0.000484448
0.00048384
0.00048323
0.000482706
0.000482166
0.00048171
0.000481235
0.000480838
0.000480418
0.00048007
0.000479695
0.00047939
0.000479059
0.000478799
0.000478499
0.000478277
0.00047801
0.000477816
0.000477579
0.00047741
0.000477201
0.000477049
0.000476868
0.000476731
0.000476571
0.000476459
0.000476307
0.000476203
0.000476067
0.000475985
0.000475872
0.000475807
0.000475714
0.00047566
0.000475573
0.00047552
0.000475439
0.000475394
0.000475323
0.000475286
0.000475226
0.000475199
0.000475152
0.000475138
0.000475107
0.000475109
0.000475096
0.000475124
0.000475124
0.000475163
0.00047516
0.000475231
0.000475513
0.000487723
0.000510533
0.00119757
0.0010241
0.000931874
0.000855687
0.000793175
0.000742573
0.000701805
0.000668988
0.00064234
0.000620563
0.000602529
0.000587497
0.000574798
0.000564019
0.000554756
0.000546772
0.000539815
0.000533738
0.000528384
0.000523653
0.000519449
0.000515692
0.000512333
0.000509303
0.000506581
0.000504099
0.000501865
0.000499808
0.000497956
0.000496233
0.000494681
0.000493224
0.000491915
0.00049067
0.000489559
0.00048849
0.000487542
0.000486617
0.000485801
0.000484997
0.000484294
0.000483592
0.000482981
0.000482367
0.00048184
0.000481297
0.000480838
0.00048036
0.00047996
0.000479537
0.000479187
0.00047881
0.000478503
0.000478169
0.000477908
0.000477606
0.000477382
0.000477113
0.000476917
0.000476679
0.000476508
0.000476298
0.000476144
0.000475962
0.000475823
0.000475662
0.000475549
0.000475396
0.000475291
0.000475154
0.000475071
0.000474957
0.000474891
0.000474796
0.000474742
0.000474654
0.0004746
0.000474518
0.000474472
0.000474399
0.000474362
0.000474301
0.000474273
0.000474225
0.00047421
0.000474178
0.000474178
0.000474162
0.000474188
0.000474188
0.000474224
0.00047422
0.000474291
0.000474585
0.000487269
0.000509769
0.00118283
0.0010241
0.000931883
0.000855701
0.000793166
0.000742516
0.000701685
0.000668799
0.000642083
0.000620242
0.000602149
0.000587063
0.000574317
0.000563496
0.000554195
0.000546178
0.000539191
0.000533086
0.000527709
0.000522955
0.000518731
0.000514957
0.000511582
0.000508536
0.0005058
0.000503306
0.000501061
0.000498993
0.000497131
0.000495399
0.000493839
0.000492373
0.000491058
0.000489806
0.000488689
0.000487614
0.00048666
0.00048573
0.000484909
0.0004841
0.000483393
0.000482687
0.000482072
0.000481455
0.000480924
0.000480378
0.000479915
0.000479435
0.000479032
0.000478606
0.000478254
0.000477874
0.000477565
0.000477229
0.000476965
0.000476661
0.000476435
0.000476164
0.000475967
0.000475727
0.000475554
0.000475343
0.000475187
0.000475003
0.000474864
0.000474701
0.000474587
0.000474433
0.000474327
0.000474189
0.000474104
0.000473988
0.000473921
0.000473825
0.00047377
0.000473681
0.000473627
0.000473543
0.000473497
0.000473423
0.000473385
0.000473322
0.000473293
0.000473244
0.000473228
0.000473195
0.000473193
0.000473175
0.000473198
0.000473197
0.000473231
0.000473226
0.000473297
0.000473603
0.000486775
0.000508948
0.00116706
0.0010241
0.000931893
0.000855714
0.000793157
0.000742458
0.000701561
0.000668602
0.000641813
0.000619904
0.000601749
0.000586608
0.000573812
0.000562946
0.000553606
0.000545552
0.000538533
0.000532401
0.000526997
0.000522221
0.000517975
0.000514182
0.000510789
0.000507728
0.000504978
0.00050247
0.000500213
0.000498134
0.000496262
0.00049452
0.00049295
0.000491477
0.000490154
0.000488895
0.000487771
0.00048669
0.00048573
0.000484794
0.000483968
0.000483154
0.000482443
0.000481732
0.000481114
0.000480492
0.000479957
0.000479408
0.000478942
0.000478458
0.000478053
0.000477624
0.000477269
0.000476887
0.000476575
0.000476236
0.00047597
0.000475664
0.000475436
0.000475163
0.000474964
0.000474722
0.000474548
0.000474334
0.000474177
0.000473991
0.000473851
0.000473686
0.000473571
0.000473416
0.000473308
0.000473169
0.000473083
0.000472966
0.000472898
0.000472801
0.000472745
0.000472654
0.000472599
0.000472515
0.000472467
0.000472392
0.000472353
0.000472289
0.000472259
0.000472208
0.000472191
0.000472157
0.000472153
0.000472132
0.000472153
0.000472151
0.000472183
0.000472176
0.000472248
0.000472567
0.000486235
0.000508071
0.00115032
0.00102409
0.000931902
0.000855729
0.000793148
0.000742398
0.000701431
0.000668396
0.000641532
0.000619552
0.000601332
0.000586132
0.000573282
0.000562369
0.000552987
0.000544896
0.000537843
0.000531681
0.00052625
0.000521449
0.000517181
0.000513368
0.000509957
0.000506878
0.000504113
0.000501591
0.000499321
0.00049723
0.000495347
0.000493595
0.000492016
0.000490534
0.000489202
0.000487936
0.000486805
0.000485717
0.000484751
0.000483809
0.000482978
0.000482159
0.000481442
0.000480727
0.000480104
0.000479478
0.00047894
0.000478386
0.000477917
0.00047743
0.000477021
0.00047659
0.000476232
0.000475847
0.000475533
0.000475191
0.000474923
0.000474614
0.000474384
0.000474109
0.000473908
0.000473664
0.000473488
0.000473272
0.000473114
0.000472926
0.000472784
0.000472617
0.000472501
0.000472344
0.000472236
0.000472095
0.000472008
0.00047189
0.00047182
0.000471722
0.000471665
0.000471573
0.000471517
0.000471431
0.000471383
0.000471306
0.000471266
0.000471201
0.00047117
0.000471118
0.000471099
0.000471064
0.000471058
0.000471035
0.000471053
0.00047105
0.000471079
0.000471071
0.000471143
0.000471475
0.000485639
0.000507133
0.00113269
0.00102409
0.000931912
0.000855744
0.000793139
0.000742336
0.000701297
0.000668183
0.000641239
0.000619184
0.000600895
0.000585633
0.000572728
0.000561766
0.000552339
0.000544209
0.00053712
0.000530926
0.000525466
0.000520639
0.000516348
0.000512514
0.000509083
0.000505987
0.000503205
0.000500669
0.000498385
0.000496282
0.000494387
0.000492623
0.000491035
0.000489543
0.000488203
0.000486929
0.00048579
0.000484695
0.000483723
0.000482775
0.000481938
0.000481113
0.000480391
0.000479671
0.000479044
0.000478413
0.000477871
0.000477313
0.000476841
0.00047635
0.000475938
0.000475502
0.000475142
0.000474754
0.000474437
0.000474092
0.000473822
0.00047351