/*--------------------------------*- C++ -*----------------------------------*\
| =========                 |                                                 |
| \\      /  F ield         | OpenFOAM: The Open Source CFD Toolbox           |
|  \\    /   O peration     | Version:  v2012                                 |
|   \\  /    A nd           | Website:  www.openfoam.com                      |
|    \\/     M anipulation  |                                                 |
\*---------------------------------------------------------------------------*/
FoamFile
{
    version     2.0;
    format      ascii;
    class       volScalarField;
    location    "45.5";
    object      nut;
}
// * * * * * * * * * * * * * * * * * * * * * * * * * * * * * * * * * * * * * //

dimensions      [0 2 -1 0 0 0 0];


internalField   nonuniform List<scalar> 
209825
(
1.23961e-07
1.23107e-07
1.22234e-07
1.21237e-07
1.20191e-07
1.19154e-07
1.18207e-07
1.1735e-07
1.16612e-07
1.15958e-07
1.15405e-07
1.14913e-07
1.14499e-07
1.14126e-07
1.13814e-07
1.13527e-07
1.13288e-07
1.13064e-07
1.12878e-07
1.12702e-07
1.12556e-07
1.12414e-07
1.12298e-07
1.12184e-07
1.1209e-07
1.11996e-07
1.1192e-07
1.11843e-07
1.1178e-07
1.11715e-07
1.11663e-07
1.11609e-07
1.11565e-07
1.11519e-07
1.11482e-07
1.11444e-07
1.11412e-07
1.11378e-07
1.11351e-07
1.11323e-07
1.11299e-07
1.11275e-07
1.11255e-07
1.11234e-07
1.11216e-07
1.11198e-07
1.11182e-07
1.11168e-07
1.11153e-07
1.1114e-07
1.11126e-07
1.11114e-07
1.111e-07
1.11093e-07
1.11079e-07
1.11074e-07
1.11062e-07
1.11058e-07
1.11047e-07
1.11043e-07
1.11032e-07
1.11026e-07
1.11018e-07
1.1101e-07
1.11002e-07
1.10997e-07
1.10988e-07
1.10981e-07
1.10972e-07
1.10967e-07
1.1096e-07
1.10956e-07
1.10952e-07
1.10949e-07
1.10945e-07
1.10943e-07
1.1094e-07
1.10938e-07
1.10935e-07
1.10934e-07
1.10932e-07
1.10932e-07
1.10932e-07
1.10932e-07
1.10932e-07
1.10934e-07
1.10934e-07
1.10938e-07
1.10938e-07
1.1094e-07
1.1094e-07
1.10934e-07
1.10959e-07
1.12027e-07
1.1492e-07
1.1134e-08
1.23961e-07
1.23107e-07
1.22234e-07
1.21237e-07
1.20191e-07
1.19154e-07
1.18208e-07
1.1735e-07
1.16612e-07
1.15958e-07
1.15405e-07
1.14913e-07
1.14499e-07
1.14126e-07
1.13814e-07
1.13527e-07
1.13288e-07
1.13065e-07
1.12879e-07
1.12702e-07
1.12556e-07
1.12415e-07
1.12298e-07
1.12184e-07
1.1209e-07
1.11997e-07
1.1192e-07
1.11843e-07
1.1178e-07
1.11715e-07
1.11663e-07
1.11609e-07
1.11565e-07
1.11519e-07
1.11483e-07
1.11444e-07
1.11412e-07
1.11379e-07
1.11352e-07
1.11324e-07
1.113e-07
1.11275e-07
1.11255e-07
1.11234e-07
1.11216e-07
1.11198e-07
1.11183e-07
1.11168e-07
1.11154e-07
1.11141e-07
1.11127e-07
1.11114e-07
1.111e-07
1.11093e-07
1.1108e-07
1.11075e-07
1.11062e-07
1.11058e-07
1.11048e-07
1.11043e-07
1.11032e-07
1.11026e-07
1.11018e-07
1.1101e-07
1.11003e-07
1.10997e-07
1.10989e-07
1.10981e-07
1.10973e-07
1.10967e-07
1.10961e-07
1.10957e-07
1.10952e-07
1.10949e-07
1.10945e-07
1.10943e-07
1.1094e-07
1.10938e-07
1.10936e-07
1.10935e-07
1.10933e-07
1.10933e-07
1.10932e-07
1.10932e-07
1.10932e-07
1.10934e-07
1.10934e-07
1.10938e-07
1.10938e-07
1.1094e-07
1.1094e-07
1.10934e-07
1.1096e-07
1.12029e-07
1.14921e-07
1.14748e-08
1.23961e-07
1.23107e-07
1.22234e-07
1.21238e-07
1.20191e-07
1.19155e-07
1.18208e-07
1.17351e-07
1.16613e-07
1.15959e-07
1.15405e-07
1.14913e-07
1.145e-07
1.14126e-07
1.13814e-07
1.13527e-07
1.13288e-07
1.13064e-07
1.12878e-07
1.12702e-07
1.12556e-07
1.12414e-07
1.12298e-07
1.12183e-07
1.1209e-07
1.11996e-07
1.11919e-07
1.11842e-07
1.11779e-07
1.11714e-07
1.11663e-07
1.11608e-07
1.11564e-07
1.11518e-07
1.11482e-07
1.11443e-07
1.11411e-07
1.11378e-07
1.11351e-07
1.11323e-07
1.11299e-07
1.11274e-07
1.11254e-07
1.11233e-07
1.11215e-07
1.11197e-07
1.11182e-07
1.11167e-07
1.11153e-07
1.11139e-07
1.11125e-07
1.11113e-07
1.11099e-07
1.11092e-07
1.11079e-07
1.11074e-07
1.11061e-07
1.11057e-07
1.11046e-07
1.11042e-07
1.11031e-07
1.11025e-07
1.11017e-07
1.11009e-07
1.11002e-07
1.10996e-07
1.10987e-07
1.1098e-07
1.10972e-07
1.10966e-07
1.10959e-07
1.10955e-07
1.10951e-07
1.10948e-07
1.10944e-07
1.10942e-07
1.10939e-07
1.10937e-07
1.10934e-07
1.10933e-07
1.10932e-07
1.10931e-07
1.10931e-07
1.10931e-07
1.10931e-07
1.10933e-07
1.10933e-07
1.10937e-07
1.10937e-07
1.10939e-07
1.10939e-07
1.10933e-07
1.10959e-07
1.12032e-07
1.14921e-07
1.18979e-08
1.23961e-07
1.23107e-07
1.22234e-07
1.21238e-07
1.20192e-07
1.19155e-07
1.18209e-07
1.17352e-07
1.16613e-07
1.15959e-07
1.15406e-07
1.14914e-07
1.145e-07
1.14127e-07
1.13814e-07
1.13527e-07
1.13288e-07
1.13064e-07
1.12878e-07
1.12701e-07
1.12555e-07
1.12414e-07
1.12297e-07
1.12183e-07
1.12089e-07
1.11995e-07
1.11918e-07
1.11841e-07
1.11778e-07
1.11713e-07
1.11661e-07
1.11607e-07
1.11563e-07
1.11517e-07
1.11481e-07
1.11442e-07
1.1141e-07
1.11377e-07
1.1135e-07
1.11321e-07
1.11297e-07
1.11273e-07
1.11253e-07
1.11232e-07
1.11214e-07
1.11196e-07
1.1118e-07
1.11166e-07
1.11151e-07
1.11138e-07
1.11124e-07
1.11112e-07
1.11098e-07
1.11091e-07
1.11077e-07
1.11072e-07
1.11059e-07
1.11056e-07
1.11045e-07
1.11041e-07
1.11029e-07
1.11023e-07
1.11016e-07
1.11007e-07
1.11e-07
1.10995e-07
1.10986e-07
1.10979e-07
1.1097e-07
1.10964e-07
1.10958e-07
1.10954e-07
1.10949e-07
1.10946e-07
1.10943e-07
1.10941e-07
1.10937e-07
1.10936e-07
1.10933e-07
1.10932e-07
1.1093e-07
1.1093e-07
1.10929e-07
1.10929e-07
1.1093e-07
1.10931e-07
1.10931e-07
1.10935e-07
1.10935e-07
1.10937e-07
1.10937e-07
1.10932e-07
1.10957e-07
1.12037e-07
1.14922e-07
1.23685e-08
1.2396e-07
1.23107e-07
1.22234e-07
1.21239e-07
1.20193e-07
1.19157e-07
1.18211e-07
1.17353e-07
1.16615e-07
1.1596e-07
1.15407e-07
1.14915e-07
1.14501e-07
1.14127e-07
1.13814e-07
1.13527e-07
1.13288e-07
1.13064e-07
1.12878e-07
1.12701e-07
1.12555e-07
1.12413e-07
1.12296e-07
1.12182e-07
1.12088e-07
1.11994e-07
1.11918e-07
1.1184e-07
1.11777e-07
1.11712e-07
1.1166e-07
1.11606e-07
1.11562e-07
1.11516e-07
1.11479e-07
1.11441e-07
1.11409e-07
1.11375e-07
1.11348e-07
1.1132e-07
1.11296e-07
1.11271e-07
1.11252e-07
1.1123e-07
1.11212e-07
1.11194e-07
1.11179e-07
1.11164e-07
1.11149e-07
1.11136e-07
1.11122e-07
1.1111e-07
1.11096e-07
1.11089e-07
1.11075e-07
1.1107e-07
1.11058e-07
1.11054e-07
1.11043e-07
1.11039e-07
1.11027e-07
1.11022e-07
1.11014e-07
1.11005e-07
1.10998e-07
1.10993e-07
1.10984e-07
1.10977e-07
1.10968e-07
1.10962e-07
1.10956e-07
1.10952e-07
1.10947e-07
1.10945e-07
1.10941e-07
1.10939e-07
1.10935e-07
1.10934e-07
1.10931e-07
1.1093e-07
1.10928e-07
1.10928e-07
1.10927e-07
1.10927e-07
1.10928e-07
1.10929e-07
1.10929e-07
1.10933e-07
1.10933e-07
1.10935e-07
1.10935e-07
1.1093e-07
1.10955e-07
1.12044e-07
1.14923e-07
1.2879e-08
1.2396e-07
1.23107e-07
1.22234e-07
1.2124e-07
1.20195e-07
1.19159e-07
1.18212e-07
1.17355e-07
1.16617e-07
1.15962e-07
1.15409e-07
1.14916e-07
1.14502e-07
1.14128e-07
1.13815e-07
1.13528e-07
1.13288e-07
1.13064e-07
1.12878e-07
1.12701e-07
1.12554e-07
1.12412e-07
1.12296e-07
1.12181e-07
1.12087e-07
1.11993e-07
1.11916e-07
1.11839e-07
1.11776e-07
1.11711e-07
1.11659e-07
1.11605e-07
1.11561e-07
1.11515e-07
1.11478e-07
1.11439e-07
1.11407e-07
1.11373e-07
1.11346e-07
1.11318e-07
1.11294e-07
1.11269e-07
1.1125e-07
1.11228e-07
1.1121e-07
1.11192e-07
1.11177e-07
1.11162e-07
1.11148e-07
1.11134e-07
1.1112e-07
1.11108e-07
1.11094e-07
1.11087e-07
1.11073e-07
1.11068e-07
1.11055e-07
1.11052e-07
1.11041e-07
1.11037e-07
1.11025e-07
1.1102e-07
1.11012e-07
1.11003e-07
1.10996e-07
1.10991e-07
1.10982e-07
1.10975e-07
1.10966e-07
1.1096e-07
1.10954e-07
1.1095e-07
1.10945e-07
1.10942e-07
1.10939e-07
1.10936e-07
1.10933e-07
1.10932e-07
1.10929e-07
1.10928e-07
1.10926e-07
1.10926e-07
1.10925e-07
1.10925e-07
1.10925e-07
1.10927e-07
1.10927e-07
1.10931e-07
1.10931e-07
1.10933e-07
1.10933e-07
1.10927e-07
1.10953e-07
1.12054e-07
1.14924e-07
1.34281e-08
1.2396e-07
1.23107e-07
1.22235e-07
1.21241e-07
1.20197e-07
1.19161e-07
1.18215e-07
1.17358e-07
1.16619e-07
1.15964e-07
1.1541e-07
1.14917e-07
1.14503e-07
1.14129e-07
1.13816e-07
1.13528e-07
1.13288e-07
1.13064e-07
1.12878e-07
1.12701e-07
1.12554e-07
1.12412e-07
1.12295e-07
1.1218e-07
1.12086e-07
1.11992e-07
1.11915e-07
1.11838e-07
1.11775e-07
1.1171e-07
1.11658e-07
1.11603e-07
1.11559e-07
1.11513e-07
1.11476e-07
1.11437e-07
1.11405e-07
1.11372e-07
1.11345e-07
1.11316e-07
1.11292e-07
1.11267e-07
1.11248e-07
1.11226e-07
1.11208e-07
1.1119e-07
1.11175e-07
1.1116e-07
1.11145e-07
1.11132e-07
1.11118e-07
1.11106e-07
1.11092e-07
1.11085e-07
1.11071e-07
1.11066e-07
1.11053e-07
1.11049e-07
1.11039e-07
1.11035e-07
1.11023e-07
1.11017e-07
1.11009e-07
1.11001e-07
1.10994e-07
1.10988e-07
1.1098e-07
1.10972e-07
1.10964e-07
1.10958e-07
1.10951e-07
1.10947e-07
1.10943e-07
1.1094e-07
1.10936e-07
1.10934e-07
1.10931e-07
1.10929e-07
1.10926e-07
1.10925e-07
1.10923e-07
1.10923e-07
1.10922e-07
1.10923e-07
1.10923e-07
1.10924e-07
1.10924e-07
1.10928e-07
1.10928e-07
1.1093e-07
1.1093e-07
1.10925e-07
1.10951e-07
1.12066e-07
1.14926e-07
1.40163e-08
1.2396e-07
1.23107e-07
1.22235e-07
1.21242e-07
1.20199e-07
1.19164e-07
1.18218e-07
1.17361e-07
1.16622e-07
1.15967e-07
1.15413e-07
1.14919e-07
1.14505e-07
1.1413e-07
1.13817e-07
1.13529e-07
1.13289e-07
1.13064e-07
1.12878e-07
1.127e-07
1.12554e-07
1.12411e-07
1.12294e-07
1.1218e-07
1.12085e-07
1.11991e-07
1.11914e-07
1.11837e-07
1.11773e-07
1.11708e-07
1.11656e-07
1.11601e-07
1.11557e-07
1.11511e-07
1.11474e-07
1.11435e-07
1.11403e-07
1.1137e-07
1.11342e-07
1.11314e-07
1.1129e-07
1.11265e-07
1.11245e-07
1.11224e-07
1.11206e-07
1.11188e-07
1.11172e-07
1.11157e-07
1.11143e-07
1.1113e-07
1.11116e-07
1.11103e-07
1.11089e-07
1.11082e-07
1.11068e-07
1.11063e-07
1.1105e-07
1.11047e-07
1.11036e-07
1.11032e-07
1.1102e-07
1.11014e-07
1.11007e-07
1.10998e-07
1.10991e-07
1.10985e-07
1.10977e-07
1.10969e-07
1.10961e-07
1.10955e-07
1.10949e-07
1.10945e-07
1.1094e-07
1.10937e-07
1.10933e-07
1.10931e-07
1.10928e-07
1.10926e-07
1.10923e-07
1.10922e-07
1.1092e-07
1.1092e-07
1.10919e-07
1.1092e-07
1.1092e-07
1.10921e-07
1.10921e-07
1.10925e-07
1.10925e-07
1.10927e-07
1.10927e-07
1.10921e-07
1.10948e-07
1.12081e-07
1.14929e-07
1.46441e-08
1.2396e-07
1.23106e-07
1.22235e-07
1.21243e-07
1.20201e-07
1.19167e-07
1.18221e-07
1.17364e-07
1.16625e-07
1.1597e-07
1.15416e-07
1.14922e-07
1.14507e-07
1.14132e-07
1.13818e-07
1.1353e-07
1.13289e-07
1.13065e-07
1.12878e-07
1.127e-07
1.12553e-07
1.12411e-07
1.12294e-07
1.12179e-07
1.12084e-07
1.1199e-07
1.11913e-07
1.11835e-07
1.11772e-07
1.11707e-07
1.11654e-07
1.116e-07
1.11555e-07
1.11509e-07
1.11472e-07
1.11433e-07
1.11401e-07
1.11367e-07
1.1134e-07
1.11312e-07
1.11287e-07
1.11263e-07
1.11243e-07
1.11221e-07
1.11203e-07
1.11185e-07
1.1117e-07
1.11155e-07
1.1114e-07
1.11127e-07
1.11113e-07
1.111e-07
1.11086e-07
1.11079e-07
1.11065e-07
1.1106e-07
1.11048e-07
1.11044e-07
1.11033e-07
1.11029e-07
1.11017e-07
1.11011e-07
1.11003e-07
1.10995e-07
1.10988e-07
1.10982e-07
1.10974e-07
1.10966e-07
1.10958e-07
1.10952e-07
1.10946e-07
1.10941e-07
1.10937e-07
1.10934e-07
1.1093e-07
1.10928e-07
1.10924e-07
1.10923e-07
1.1092e-07
1.10919e-07
1.10917e-07
1.10917e-07
1.10916e-07
1.10916e-07
1.10916e-07
1.10918e-07
1.10918e-07
1.10921e-07
1.10921e-07
1.10923e-07
1.10923e-07
1.10918e-07
1.10945e-07
1.12099e-07
1.14931e-07
1.53122e-08
1.2396e-07
1.23106e-07
1.22236e-07
1.21245e-07
1.20204e-07
1.1917e-07
1.18225e-07
1.17368e-07
1.16629e-07
1.15974e-07
1.15419e-07
1.14925e-07
1.14509e-07
1.14134e-07
1.1382e-07
1.13531e-07
1.1329e-07
1.13065e-07
1.12878e-07
1.127e-07
1.12553e-07
1.1241e-07
1.12293e-07
1.12178e-07
1.12083e-07
1.11989e-07
1.11912e-07
1.11834e-07
1.1177e-07
1.11705e-07
1.11652e-07
1.11598e-07
1.11553e-07
1.11507e-07
1.1147e-07
1.11431e-07
1.11399e-07
1.11365e-07
1.11338e-07
1.11309e-07
1.11285e-07
1.1126e-07
1.1124e-07
1.11219e-07
1.112e-07
1.11182e-07
1.11167e-07
1.11152e-07
1.11137e-07
1.11124e-07
1.1111e-07
1.11097e-07
1.11083e-07
1.11076e-07
1.11062e-07
1.11057e-07
1.11044e-07
1.1104e-07
1.1103e-07
1.11026e-07
1.11014e-07
1.11008e-07
1.11e-07
1.10992e-07
1.10985e-07
1.10979e-07
1.1097e-07
1.10963e-07
1.10954e-07
1.10949e-07
1.10942e-07
1.10938e-07
1.10933e-07
1.1093e-07
1.10926e-07
1.10924e-07
1.10921e-07
1.10919e-07
1.10916e-07
1.10915e-07
1.10913e-07
1.10913e-07
1.10912e-07
1.10912e-07
1.10913e-07
1.10914e-07
1.10914e-07
1.10917e-07
1.10917e-07
1.10919e-07
1.10919e-07
1.10914e-07
1.10941e-07
1.1212e-07
1.14934e-07
1.60206e-08
1.2396e-07
1.23106e-07
1.22236e-07
1.21247e-07
1.20207e-07
1.19174e-07
1.1823e-07
1.17373e-07
1.16634e-07
1.15978e-07
1.15423e-07
1.14928e-07
1.14512e-07
1.14136e-07
1.13822e-07
1.13533e-07
1.13292e-07
1.13066e-07
1.12879e-07
1.12701e-07
1.12553e-07
1.1241e-07
1.12293e-07
1.12177e-07
1.12082e-07
1.11988e-07
1.1191e-07
1.11832e-07
1.11769e-07
1.11703e-07
1.1165e-07
1.11595e-07
1.11551e-07
1.11505e-07
1.11468e-07
1.11428e-07
1.11396e-07
1.11362e-07
1.11335e-07
1.11306e-07
1.11282e-07
1.11257e-07
1.11237e-07
1.11215e-07
1.11197e-07
1.11179e-07
1.11163e-07
1.11148e-07
1.11134e-07
1.11121e-07
1.11106e-07
1.11094e-07
1.1108e-07
1.11073e-07
1.11059e-07
1.11054e-07
1.11041e-07
1.11037e-07
1.11026e-07
1.11022e-07
1.1101e-07
1.11004e-07
1.10996e-07
1.10988e-07
1.10981e-07
1.10975e-07
1.10967e-07
1.10959e-07
1.10951e-07
1.10945e-07
1.10938e-07
1.10934e-07
1.10929e-07
1.10926e-07
1.10923e-07
1.1092e-07
1.10917e-07
1.10915e-07
1.10912e-07
1.10911e-07
1.10909e-07
1.10909e-07
1.10908e-07
1.10908e-07
1.10908e-07
1.1091e-07
1.1091e-07
1.10913e-07
1.10913e-07
1.10915e-07
1.10915e-07
1.1091e-07
1.10938e-07
1.12144e-07
1.14937e-07
1.67683e-08
1.2396e-07
1.23105e-07
1.22237e-07
1.21249e-07
1.20211e-07
1.19179e-07
1.18235e-07
1.17378e-07
1.16639e-07
1.15982e-07
1.15427e-07
1.14932e-07
1.14515e-07
1.14139e-07
1.13824e-07
1.13535e-07
1.13293e-07
1.13067e-07
1.12879e-07
1.12701e-07
1.12553e-07
1.1241e-07
1.12292e-07
1.12176e-07
1.12081e-07
1.11986e-07
1.11909e-07
1.1183e-07
1.11767e-07
1.11701e-07
1.11648e-07
1.11593e-07
1.11549e-07
1.11502e-07
1.11465e-07
1.11426e-07
1.11393e-07
1.11359e-07
1.11332e-07
1.11303e-07
1.11279e-07
1.11254e-07
1.11234e-07
1.11212e-07
1.11194e-07
1.11175e-07
1.1116e-07
1.11145e-07
1.1113e-07
1.11117e-07
1.11103e-07
1.1109e-07
1.11076e-07
1.11069e-07
1.11055e-07
1.1105e-07
1.11037e-07
1.11033e-07
1.11022e-07
1.11018e-07
1.11006e-07
1.11e-07
1.10992e-07
1.10984e-07
1.10977e-07
1.10971e-07
1.10963e-07
1.10955e-07
1.10947e-07
1.10941e-07
1.10934e-07
1.1093e-07
1.10925e-07
1.10922e-07
1.10918e-07
1.10916e-07
1.10913e-07
1.10911e-07
1.10908e-07
1.10907e-07
1.10905e-07
1.10905e-07
1.10904e-07
1.10904e-07
1.10904e-07
1.10905e-07
1.10905e-07
1.10908e-07
1.10908e-07
1.1091e-07
1.1091e-07
1.10905e-07
1.10934e-07
1.12172e-07
1.14941e-07
1.75549e-08
1.2396e-07
1.23105e-07
1.22237e-07
1.21251e-07
1.20215e-07
1.19184e-07
1.18241e-07
1.17384e-07
1.16644e-07
1.15988e-07
1.15432e-07
1.14936e-07
1.14519e-07
1.14142e-07
1.13827e-07
1.13537e-07
1.13295e-07
1.13068e-07
1.1288e-07
1.12701e-07
1.12553e-07
1.12409e-07
1.12291e-07
1.12175e-07
1.1208e-07
1.11985e-07
1.11907e-07
1.11829e-07
1.11765e-07
1.11699e-07
1.11646e-07
1.11591e-07
1.11546e-07
1.11499e-07
1.11462e-07
1.11423e-07
1.1139e-07
1.11356e-07
1.11329e-07
1.113e-07
1.11275e-07
1.1125e-07
1.1123e-07
1.11209e-07
1.1119e-07
1.11172e-07
1.11156e-07
1.11141e-07
1.11126e-07
1.11113e-07
1.11099e-07
1.11086e-07
1.11072e-07
1.11065e-07
1.11051e-07
1.11046e-07
1.11033e-07
1.11029e-07
1.11018e-07
1.11014e-07
1.11002e-07
1.10996e-07
1.10988e-07
1.1098e-07
1.10972e-07
1.10967e-07
1.10958e-07
1.10951e-07
1.10942e-07
1.10936e-07
1.1093e-07
1.10926e-07
1.10921e-07
1.10918e-07
1.10914e-07
1.10911e-07
1.10908e-07
1.10906e-07
1.10903e-07
1.10902e-07
1.109e-07
1.109e-07
1.10899e-07
1.10899e-07
1.10899e-07
1.109e-07
1.109e-07
1.10903e-07
1.10903e-07
1.10905e-07
1.10905e-07
1.10901e-07
1.1093e-07
1.12203e-07
1.14944e-07
1.83825e-08
1.23959e-07
1.23105e-07
1.22238e-07
1.21254e-07
1.20219e-07
1.1919e-07
1.18247e-07
1.1739e-07
1.1665e-07
1.15993e-07
1.15437e-07
1.1494e-07
1.14523e-07
1.14146e-07
1.1383e-07
1.13539e-07
1.13296e-07
1.1307e-07
1.12881e-07
1.12702e-07
1.12553e-07
1.12409e-07
1.12291e-07
1.12175e-07
1.12079e-07
1.11984e-07
1.11906e-07
1.11827e-07
1.11763e-07
1.11697e-07
1.11644e-07
1.11588e-07
1.11543e-07
1.11497e-07
1.11459e-07
1.1142e-07
1.11387e-07
1.11353e-07
1.11325e-07
1.11296e-07
1.11272e-07
1.11247e-07
1.11227e-07
1.11205e-07
1.11186e-07
1.11168e-07
1.11152e-07
1.11137e-07
1.11122e-07
1.11109e-07
1.11095e-07
1.11082e-07
1.11068e-07
1.1106e-07
1.11046e-07
1.11041e-07
1.11028e-07
1.11024e-07
1.11013e-07
1.11009e-07
1.10997e-07
1.10991e-07
1.10983e-07
1.10975e-07
1.10968e-07
1.10962e-07
1.10953e-07
1.10946e-07
1.10938e-07
1.10931e-07
1.10925e-07
1.10921e-07
1.10916e-07
1.10913e-07
1.10909e-07
1.10907e-07
1.10903e-07
1.10901e-07
1.10898e-07
1.10897e-07
1.10895e-07
1.10895e-07
1.10894e-07
1.10894e-07
1.10894e-07
1.10895e-07
1.10895e-07
1.10898e-07
1.10898e-07
1.10899e-07
1.10899e-07
1.10895e-07
1.10925e-07
1.12238e-07
1.14946e-07
1.92539e-08
1.23959e-07
1.23104e-07
1.22239e-07
1.21256e-07
1.20224e-07
1.19196e-07
1.18254e-07
1.17397e-07
1.16657e-07
1.16e-07
1.15443e-07
1.14946e-07
1.14527e-07
1.14149e-07
1.13833e-07
1.13542e-07
1.13299e-07
1.13071e-07
1.12882e-07
1.12702e-07
1.12553e-07
1.12409e-07
1.1229e-07
1.12174e-07
1.12078e-07
1.11982e-07
1.11904e-07
1.11825e-07
1.11761e-07
1.11694e-07
1.11641e-07
1.11586e-07
1.11541e-07
1.11494e-07
1.11456e-07
1.11416e-07
1.11384e-07
1.11349e-07
1.11322e-07
1.11293e-07
1.11268e-07
1.11243e-07
1.11223e-07
1.11201e-07
1.11182e-07
1.11164e-07
1.11148e-07
1.11133e-07
1.11118e-07
1.11104e-07
1.1109e-07
1.11077e-07
1.11063e-07
1.11056e-07
1.11042e-07
1.11036e-07
1.11023e-07
1.11019e-07
1.11008e-07
1.11004e-07
1.10993e-07
1.10986e-07
1.10978e-07
1.1097e-07
1.10963e-07
1.10957e-07
1.10948e-07
1.10941e-07
1.10932e-07
1.10926e-07
1.1092e-07
1.10916e-07
1.10911e-07
1.10908e-07
1.10903e-07
1.10901e-07
1.10898e-07
1.10896e-07
1.10893e-07
1.10892e-07
1.1089e-07
1.10889e-07
1.10888e-07
1.10888e-07
1.10888e-07
1.10889e-07
1.10889e-07
1.10892e-07
1.10892e-07
1.10893e-07
1.10893e-07
1.10889e-07
1.1092e-07
1.12277e-07
1.14948e-07
2.01717e-08
1.23959e-07
1.23104e-07
1.22239e-07
1.21259e-07
1.20229e-07
1.19202e-07
1.18261e-07
1.17405e-07
1.16665e-07
1.16006e-07
1.15449e-07
1.14951e-07
1.14532e-07
1.14154e-07
1.13836e-07
1.13545e-07
1.13301e-07
1.13073e-07
1.12884e-07
1.12703e-07
1.12554e-07
1.12409e-07
1.1229e-07
1.12173e-07
1.12077e-07
1.11981e-07
1.11902e-07
1.11823e-07
1.11759e-07
1.11692e-07
1.11639e-07
1.11583e-07
1.11538e-07
1.1149e-07
1.11453e-07
1.11413e-07
1.1138e-07
1.11346e-07
1.11318e-07
1.11289e-07
1.11264e-07
1.11238e-07
1.11218e-07
1.11196e-07
1.11178e-07
1.11159e-07
1.11143e-07
1.11128e-07
1.11113e-07
1.11099e-07
1.11085e-07
1.11072e-07
1.11058e-07
1.11051e-07
1.11037e-07
1.11031e-07
1.11018e-07
1.11014e-07
1.11003e-07
1.10999e-07
1.10987e-07
1.10981e-07
1.10973e-07
1.10965e-07
1.10957e-07
1.10951e-07
1.10943e-07
1.10936e-07
1.10927e-07
1.10921e-07
1.10914e-07
1.1091e-07
1.10905e-07
1.10902e-07
1.10898e-07
1.10895e-07
1.10892e-07
1.1089e-07
1.10887e-07
1.10886e-07
1.10884e-07
1.10883e-07
1.10882e-07
1.10882e-07
1.10882e-07
1.10883e-07
1.10883e-07
1.10886e-07
1.10886e-07
1.10887e-07
1.10887e-07
1.10883e-07
1.10915e-07
1.12321e-07
1.14948e-07
2.11389e-08
1.23959e-07
1.23103e-07
1.2224e-07
1.21262e-07
1.20234e-07
1.19209e-07
1.18269e-07
1.17413e-07
1.16673e-07
1.16014e-07
1.15456e-07
1.14957e-07
1.14538e-07
1.14158e-07
1.1384e-07
1.13548e-07
1.13304e-07
1.13075e-07
1.12885e-07
1.12704e-07
1.12554e-07
1.12409e-07
1.1229e-07
1.12172e-07
1.12076e-07
1.11979e-07
1.119e-07
1.11821e-07
1.11756e-07
1.11689e-07
1.11636e-07
1.1158e-07
1.11534e-07
1.11487e-07
1.11449e-07
1.11409e-07
1.11376e-07
1.11342e-07
1.11314e-07
1.11284e-07
1.1126e-07
1.11234e-07
1.11214e-07
1.11192e-07
1.11173e-07
1.11154e-07
1.11138e-07
1.11123e-07
1.11108e-07
1.11094e-07
1.1108e-07
1.11067e-07
1.11053e-07
1.11045e-07
1.11031e-07
1.11026e-07
1.11013e-07
1.11008e-07
1.10997e-07
1.10993e-07
1.10982e-07
1.10975e-07
1.10967e-07
1.10959e-07
1.10951e-07
1.10946e-07
1.10937e-07
1.1093e-07
1.10921e-07
1.10915e-07
1.10908e-07
1.10904e-07
1.10899e-07
1.10896e-07
1.10892e-07
1.10889e-07
1.10886e-07
1.10884e-07
1.10881e-07
1.1088e-07
1.10877e-07
1.10877e-07
1.10876e-07
1.10876e-07
1.10876e-07
1.10876e-07
1.10876e-07
1.10879e-07
1.10879e-07
1.1088e-07
1.1088e-07
1.10877e-07
1.10909e-07
1.12368e-07
1.14634e-07
2.21587e-08
1.23959e-07
1.23103e-07
1.22241e-07
1.21266e-07
1.2024e-07
1.19217e-07
1.18278e-07
1.17422e-07
1.16681e-07
1.16022e-07
1.15463e-07
1.14964e-07
1.14544e-07
1.14163e-07
1.13845e-07
1.13551e-07
1.13306e-07
1.13077e-07
1.12887e-07
1.12705e-07
1.12555e-07
1.12409e-07
1.12289e-07
1.12171e-07
1.12075e-07
1.11978e-07
1.11899e-07
1.11819e-07
1.11754e-07
1.11687e-07
1.11633e-07
1.11577e-07
1.11531e-07
1.11483e-07
1.11445e-07
1.11405e-07
1.11372e-07
1.11337e-07
1.11309e-07
1.1128e-07
1.11255e-07
1.11229e-07
1.11209e-07
1.11187e-07
1.11168e-07
1.11149e-07
1.11133e-07
1.11118e-07
1.11102e-07
1.11089e-07
1.11074e-07
1.11062e-07
1.11047e-07
1.1104e-07
1.11025e-07
1.1102e-07
1.11007e-07
1.11002e-07
1.10991e-07
1.10987e-07
1.10976e-07
1.10969e-07
1.10961e-07
1.10953e-07
1.10945e-07
1.10939e-07
1.10931e-07
1.10924e-07
1.10915e-07
1.10909e-07
1.10902e-07
1.10898e-07
1.10893e-07
1.10889e-07
1.10885e-07
1.10883e-07
1.10879e-07
1.10877e-07
1.10874e-07
1.10873e-07
1.10871e-07
1.1087e-07
1.10869e-07
1.10869e-07
1.10869e-07
1.10869e-07
1.10869e-07
1.10872e-07
1.10872e-07
1.10873e-07
1.10873e-07
1.1087e-07
1.10903e-07
1.1242e-07
1.08168e-07
2.32342e-08
1.23958e-07
1.23102e-07
1.22242e-07
1.21269e-07
1.20246e-07
1.19225e-07
1.18287e-07
1.17431e-07
1.1669e-07
1.16031e-07
1.15471e-07
1.14971e-07
1.1455e-07
1.14169e-07
1.13849e-07
1.13555e-07
1.1331e-07
1.1308e-07
1.12889e-07
1.12706e-07
1.12556e-07
1.12409e-07
1.12289e-07
1.12171e-07
1.12073e-07
1.11976e-07
1.11897e-07
1.11816e-07
1.11751e-07
1.11684e-07
1.1163e-07
1.11573e-07
1.11528e-07
1.1148e-07
1.11442e-07
1.11401e-07
1.11368e-07
1.11333e-07
1.11305e-07
1.11275e-07
1.1125e-07
1.11224e-07
1.11204e-07
1.11181e-07
1.11163e-07
1.11144e-07
1.11127e-07
1.11112e-07
1.11097e-07
1.11083e-07
1.11069e-07
1.11056e-07
1.11041e-07
1.11034e-07
1.11019e-07
1.11014e-07
1.11001e-07
1.10996e-07
1.10985e-07
1.10981e-07
1.10969e-07
1.10963e-07
1.10955e-07
1.10946e-07
1.10939e-07
1.10933e-07
1.10924e-07
1.10917e-07
1.10908e-07
1.10902e-07
1.10895e-07
1.10891e-07
1.10886e-07
1.10883e-07
1.10878e-07
1.10876e-07
1.10872e-07
1.1087e-07
1.10867e-07
1.10866e-07
1.10864e-07
1.10863e-07
1.10862e-07
1.10862e-07
1.10861e-07
1.10862e-07
1.10862e-07
1.10864e-07
1.10864e-07
1.10865e-07
1.10865e-07
1.10862e-07
1.10897e-07
1.12476e-07
1.02393e-07
2.43689e-08
1.23958e-07
1.23101e-07
1.22243e-07
1.21273e-07
1.20253e-07
1.19233e-07
1.18297e-07
1.17441e-07
1.167e-07
1.1604e-07
1.1548e-07
1.14979e-07
1.14557e-07
1.14175e-07
1.13854e-07
1.13559e-07
1.13313e-07
1.13082e-07
1.12891e-07
1.12708e-07
1.12556e-07
1.12409e-07
1.12289e-07
1.1217e-07
1.12072e-07
1.11975e-07
1.11895e-07
1.11814e-07
1.11749e-07
1.11681e-07
1.11627e-07
1.1157e-07
1.11524e-07
1.11476e-07
1.11437e-07
1.11397e-07
1.11364e-07
1.11328e-07
1.113e-07
1.1127e-07
1.11245e-07
1.11219e-07
1.11198e-07
1.11176e-07
1.11157e-07
1.11138e-07
1.11121e-07
1.11106e-07
1.11091e-07
1.11077e-07
1.11062e-07
1.1105e-07
1.11035e-07
1.11027e-07
1.11013e-07
1.11007e-07
1.10994e-07
1.10989e-07
1.10978e-07
1.10974e-07
1.10962e-07
1.10956e-07
1.10948e-07
1.1094e-07
1.10932e-07
1.10926e-07
1.10918e-07
1.1091e-07
1.10901e-07
1.10895e-07
1.10888e-07
1.10884e-07
1.10879e-07
1.10875e-07
1.10871e-07
1.10869e-07
1.10865e-07
1.10863e-07
1.1086e-07
1.10858e-07
1.10856e-07
1.10855e-07
1.10854e-07
1.10854e-07
1.10854e-07
1.10854e-07
1.10854e-07
1.10856e-07
1.10856e-07
1.10857e-07
1.10857e-07
1.10854e-07
1.10891e-07
1.12536e-07
9.72383e-08
2.5566e-08
1.23958e-07
1.23101e-07
1.22243e-07
1.21277e-07
1.20259e-07
1.19243e-07
1.18307e-07
1.17452e-07
1.16711e-07
1.1605e-07
1.15489e-07
1.14987e-07
1.14564e-07
1.14181e-07
1.1386e-07
1.13564e-07
1.13317e-07
1.13085e-07
1.12893e-07
1.12709e-07
1.12557e-07
1.1241e-07
1.12289e-07
1.12169e-07
1.12071e-07
1.11973e-07
1.11893e-07
1.11812e-07
1.11746e-07
1.11678e-07
1.11623e-07
1.11566e-07
1.1152e-07
1.11472e-07
1.11433e-07
1.11392e-07
1.11359e-07
1.11323e-07
1.11295e-07
1.11265e-07
1.1124e-07
1.11213e-07
1.11193e-07
1.1117e-07
1.11151e-07
1.11132e-07
1.11115e-07
1.111e-07
1.11084e-07
1.11071e-07
1.11056e-07
1.11043e-07
1.11028e-07
1.11021e-07
1.11006e-07
1.11e-07
1.10987e-07
1.10982e-07
1.10971e-07
1.10967e-07
1.10955e-07
1.10949e-07
1.10941e-07
1.10932e-07
1.10924e-07
1.10919e-07
1.1091e-07
1.10903e-07
1.10894e-07
1.10888e-07
1.10881e-07
1.10876e-07
1.10871e-07
1.10868e-07
1.10863e-07
1.10861e-07
1.10857e-07
1.10855e-07
1.10852e-07
1.1085e-07
1.10848e-07
1.10847e-07
1.10846e-07
1.10846e-07
1.10845e-07
1.10846e-07
1.10846e-07
1.10847e-07
1.10848e-07
1.10849e-07
1.10848e-07
1.10846e-07
1.10884e-07
1.12601e-07
9.26306e-08
2.68292e-08
1.23958e-07
1.231e-07
1.22244e-07
1.21281e-07
1.20267e-07
1.19252e-07
1.18318e-07
1.17463e-07
1.16722e-07
1.16061e-07
1.15499e-07
1.14996e-07
1.14572e-07
1.14188e-07
1.13866e-07
1.13569e-07
1.13321e-07
1.13089e-07
1.12895e-07
1.12711e-07
1.12559e-07
1.1241e-07
1.12289e-07
1.12168e-07
1.1207e-07
1.11971e-07
1.11891e-07
1.11809e-07
1.11743e-07
1.11675e-07
1.1162e-07
1.11562e-07
1.11516e-07
1.11467e-07
1.11429e-07
1.11387e-07
1.11354e-07
1.11318e-07
1.11289e-07
1.11259e-07
1.11234e-07
1.11208e-07
1.11187e-07
1.11164e-07
1.11145e-07
1.11125e-07
1.11109e-07
1.11093e-07
1.11078e-07
1.11064e-07
1.11049e-07
1.11036e-07
1.11021e-07
1.11013e-07
1.10999e-07
1.10993e-07
1.1098e-07
1.10975e-07
1.10964e-07
1.10959e-07
1.10948e-07
1.10941e-07
1.10933e-07
1.10925e-07
1.10917e-07
1.10911e-07
1.10902e-07
1.10895e-07
1.10886e-07
1.1088e-07
1.10873e-07
1.10869e-07
1.10863e-07
1.1086e-07
1.10855e-07
1.10853e-07
1.10849e-07
1.10847e-07
1.10844e-07
1.10842e-07
1.1084e-07
1.10839e-07
1.10838e-07
1.10837e-07
1.10837e-07
1.10837e-07
1.10837e-07
1.10839e-07
1.10839e-07
1.1084e-07
1.10839e-07
1.10837e-07
1.10877e-07
1.12669e-07
8.85092e-08
2.81616e-08
1.23958e-07
1.23099e-07
1.22245e-07
1.21285e-07
1.20274e-07
1.19262e-07
1.18329e-07
1.17475e-07
1.16734e-07
1.16072e-07
1.15509e-07
1.15005e-07
1.14581e-07
1.14195e-07
1.13872e-07
1.13574e-07
1.13325e-07
1.13092e-07
1.12898e-07
1.12713e-07
1.1256e-07
1.12411e-07
1.12289e-07
1.12168e-07
1.12069e-07
1.1197e-07
1.11889e-07
1.11807e-07
1.1174e-07
1.11671e-07
1.11616e-07
1.11559e-07
1.11512e-07
1.11463e-07
1.11424e-07
1.11382e-07
1.11349e-07
1.11313e-07
1.11284e-07
1.11254e-07
1.11228e-07
1.11202e-07
1.1118e-07
1.11158e-07
1.11138e-07
1.11119e-07
1.11102e-07
1.11086e-07
1.11071e-07
1.11057e-07
1.11042e-07
1.11029e-07
1.11014e-07
1.11006e-07
1.10991e-07
1.10985e-07
1.10972e-07
1.10967e-07
1.10956e-07
1.10951e-07
1.1094e-07
1.10933e-07
1.10925e-07
1.10917e-07
1.10909e-07
1.10903e-07
1.10894e-07
1.10887e-07
1.10878e-07
1.10872e-07
1.10865e-07
1.1086e-07
1.10855e-07
1.10851e-07
1.10847e-07
1.10844e-07
1.1084e-07
1.10838e-07
1.10835e-07
1.10833e-07
1.10831e-07
1.1083e-07
1.10829e-07
1.10828e-07
1.10828e-07
1.10828e-07
1.10828e-07
1.10829e-07
1.10829e-07
1.1083e-07
1.1083e-07
1.10828e-07
1.10869e-07
1.1274e-07
8.48219e-08
2.95664e-08
1.23957e-07
1.23098e-07
1.22246e-07
1.21289e-07
1.20282e-07
1.19273e-07
1.18341e-07
1.17488e-07
1.16747e-07
1.16084e-07
1.1552e-07
1.15015e-07
1.1459e-07
1.14203e-07
1.13879e-07
1.1358e-07
1.1333e-07
1.13096e-07
1.12901e-07
1.12715e-07
1.12561e-07
1.12411e-07
1.12289e-07
1.12167e-07
1.12068e-07
1.11968e-07
1.11887e-07
1.11804e-07
1.11738e-07
1.11668e-07
1.11613e-07
1.11554e-07
1.11508e-07
1.11458e-07
1.11419e-07
1.11377e-07
1.11343e-07
1.11307e-07
1.11278e-07
1.11248e-07
1.11222e-07
1.11195e-07
1.11174e-07
1.11151e-07
1.11131e-07
1.11112e-07
1.11095e-07
1.11079e-07
1.11063e-07
1.11049e-07
1.11034e-07
1.11021e-07
1.11006e-07
1.10998e-07
1.10983e-07
1.10977e-07
1.10964e-07
1.10959e-07
1.10948e-07
1.10943e-07
1.10932e-07
1.10925e-07
1.10917e-07
1.10908e-07
1.109e-07
1.10894e-07
1.10886e-07
1.10878e-07
1.1087e-07
1.10863e-07
1.10856e-07
1.10851e-07
1.10846e-07
1.10843e-07
1.10838e-07
1.10835e-07
1.10831e-07
1.10829e-07
1.10826e-07
1.10824e-07
1.10822e-07
1.10821e-07
1.10819e-07
1.10819e-07
1.10818e-07
1.10818e-07
1.10818e-07
1.10819e-07
1.10819e-07
1.1082e-07
1.10819e-07
1.10818e-07
1.10861e-07
1.12813e-07
8.15243e-08
3.10463e-08
1.23957e-07
1.23097e-07
1.22247e-07
1.21294e-07
1.2029e-07
1.19284e-07
1.18354e-07
1.17501e-07
1.1676e-07
1.16096e-07
1.15532e-07
1.15026e-07
1.14599e-07
1.14212e-07
1.13886e-07
1.13586e-07
1.13335e-07
1.131e-07
1.12904e-07
1.12717e-07
1.12563e-07
1.12412e-07
1.12289e-07
1.12167e-07
1.12067e-07
1.11966e-07
1.11885e-07
1.11802e-07
1.11735e-07
1.11665e-07
1.11609e-07
1.1155e-07
1.11503e-07
1.11454e-07
1.11414e-07
1.11372e-07
1.11338e-07
1.11301e-07
1.11272e-07
1.11241e-07
1.11215e-07
1.11189e-07
1.11167e-07
1.11144e-07
1.11124e-07
1.11105e-07
1.11087e-07
1.11071e-07
1.11056e-07
1.11041e-07
1.11026e-07
1.11013e-07
1.10998e-07
1.1099e-07
1.10975e-07
1.10969e-07
1.10955e-07
1.1095e-07
1.10939e-07
1.10934e-07
1.10923e-07
1.10916e-07
1.10908e-07
1.10899e-07
1.10891e-07
1.10885e-07
1.10877e-07
1.10869e-07
1.10861e-07
1.10854e-07
1.10847e-07
1.10842e-07
1.10837e-07
1.10833e-07
1.10829e-07
1.10826e-07
1.10822e-07
1.1082e-07
1.10816e-07
1.10814e-07
1.10812e-07
1.10811e-07
1.10809e-07
1.10809e-07
1.10808e-07
1.10808e-07
1.10808e-07
1.10809e-07
1.10809e-07
1.1081e-07
1.10809e-07
1.10808e-07
1.10853e-07
1.12887e-07
7.85783e-08
3.26032e-08
1.23957e-07
1.23097e-07
1.22248e-07
1.21298e-07
1.20299e-07
1.19295e-07
1.18368e-07
1.17515e-07
1.16774e-07
1.1611e-07
1.15544e-07
1.15037e-07
1.14609e-07
1.1422e-07
1.13894e-07
1.13593e-07
1.13341e-07
1.13104e-07
1.12908e-07
1.1272e-07
1.12565e-07
1.12413e-07
1.12289e-07
1.12166e-07
1.12066e-07
1.11965e-07
1.11883e-07
1.11799e-07
1.11731e-07
1.11661e-07
1.11605e-07
1.11546e-07
1.11499e-07
1.11449e-07
1.11409e-07
1.11366e-07
1.11332e-07
1.11295e-07
1.11266e-07
1.11235e-07
1.11209e-07
1.11182e-07
1.1116e-07
1.11137e-07
1.11117e-07
1.11097e-07
1.1108e-07
1.11064e-07
1.11047e-07
1.11033e-07
1.11018e-07
1.11005e-07