/*--------------------------------*- C++ -*----------------------------------*\
| =========                 |                                                 |
| \\      /  F ield         | OpenFOAM: The Open Source CFD Toolbox           |
|  \\    /   O peration     | Version:  v2012                                 |
|   \\  /    A nd           | Website:  www.openfoam.com                      |
|    \\/     M anipulation  |                                                 |
\*---------------------------------------------------------------------------*/
FoamFile
{
    version     2.0;
    format      ascii;
    class       volScalarField;
    location    "13";
    object      k;
}
// * * * * * * * * * * * * * * * * * * * * * * * * * * * * * * * * * * * * * //

dimensions      [0 2 -2 0 0 0 0];


internalField   nonuniform List<scalar> 
209825
(
0.00102021
0.000960007
0.000929779
0.000912621
0.000901681
0.0008942
0.000888782
0.000884751
0.00088164
0.000879215
0.000877267
0.000875702
0.000874409
0.000873348
0.000872453
0.000871709
0.000871063
0.00087052
0.000870051
0.000869657
0.000869297
0.000868994
0.000868724
0.000868502
0.000868276
0.000868093
0.000867932
0.000867803
0.000867664
0.000867558
0.000867463
0.000867391
0.000867264
0.000867208
0.000867168
0.000867132
0.000867065
0.000867038
0.000867017
0.000866988
0.000866906
0.000866916
0.000866916
0.000866911
0.000866856
0.000866972
0.000866983
0.000866983
0.000866982
0.000866984
0.000866974
0.000867124
0.000867124
0.000867124
0.000867122
0.000867265
0.000867345
0.000867376
0.000867528
0.000867529
0.000867528
0.000867637
0.000867862
0.000867994
0.000868004
0.000868103
0.000868247
0.000868457
0.00086865
0.000868829
0.00086891
0.000869089
0.000869286
0.000869488
0.000869638
0.000869915
0.00087014
0.000870372
0.000870557
0.000870866
0.000871147
0.000871525
0.000871858
0.000872342
0.000872706
0.000873298
0.000873751
0.000874559
0.000875071
0.000876233
0.000876873
0.000879075
0.000879399
0.000892594
0.000953975
0.00242566
0.00102021
0.00096
0.000929766
0.000912603
0.00090166
0.000894177
0.000888757
0.000884724
0.000881612
0.000879185
0.000877237
0.000875671
0.000874378
0.000873316
0.00087242
0.000871676
0.00087103
0.000870486
0.000870017
0.000869623
0.000869263
0.000868959
0.000868689
0.000868468
0.000868241
0.000868058
0.000867898
0.000867768
0.000867629
0.000867523
0.000867428
0.000867356
0.000867228
0.000867173
0.000867133
0.000867097
0.00086703
0.000867002
0.000866982
0.000866952
0.00086687
0.000866881
0.000866881
0.000866875
0.000866821
0.000866937
0.000866947
0.000866947
0.000866946
0.000866948
0.000866938
0.000867089
0.000867089
0.000867089
0.000867086
0.000867229
0.00086731
0.00086734
0.000867493
0.000867493
0.000867493
0.000867602
0.000867826
0.000867959
0.000867968
0.000868067
0.000868211
0.000868422
0.000868614
0.000868793
0.000868875
0.000869053
0.00086925
0.000869453
0.000869602
0.00086988
0.000870105
0.000870337
0.000870522
0.00087083
0.000871112
0.00087149
0.000871823
0.000872307
0.000872671
0.000873263
0.000873716
0.000874525
0.000875036
0.000876198
0.000876838
0.000879041
0.000879363
0.000892584
0.000953996
0.00242719
0.0010202
0.000959966
0.000929706
0.000912526
0.00090157
0.000894078
0.00088865
0.000884612
0.000881495
0.000879065
0.000877114
0.000875545
0.00087425
0.000873187
0.000872289
0.000871544
0.000870897
0.000870352
0.000869882
0.000869487
0.000869126
0.000868822
0.000868551
0.000868329
0.000868102
0.000867918
0.000867758
0.000867628
0.000867489
0.000867382
0.000867287
0.000867215
0.000867087
0.000867031
0.000866991
0.000866955
0.000866888
0.00086686
0.00086684
0.00086681
0.000866728
0.000866738
0.000866738
0.000866733
0.000866678
0.000866794
0.000866804
0.000866804
0.000866803
0.000866806
0.000866795
0.000866945
0.000866945
0.000866945
0.000866943
0.000867086
0.000867167
0.000867197
0.00086735
0.00086735
0.00086735
0.000867459
0.000867683
0.000867816
0.000867826
0.000867925
0.000868069
0.000868279
0.000868471
0.000868651
0.000868732
0.000868911
0.000869108
0.00086931
0.00086946
0.000869737
0.000869963
0.000870195
0.00087038
0.000870689
0.00087097
0.000871349
0.000871681
0.000872166
0.00087253
0.000873122
0.000873575
0.000874383
0.000874895
0.000876057
0.000876696
0.0008789
0.000879219
0.000892492
0.00095396
0.00243017
0.0010202
0.000959909
0.000929606
0.000912395
0.000901418
0.00089391
0.000888471
0.000884423
0.000881299
0.000878863
0.000876906
0.000875334
0.000874035
0.000872969
0.000872069
0.000871321
0.000870672
0.000870126
0.000869654
0.000869258
0.000868896
0.000868591
0.000868319
0.000868096
0.000867869
0.000867684
0.000867523
0.000867392
0.000867253
0.000867146
0.00086705
0.000866978
0.00086685
0.000866794
0.000866753
0.000866717
0.000866649
0.000866621
0.000866601
0.000866571
0.000866489
0.000866499
0.000866499
0.000866493
0.000866438
0.000866554
0.000866565
0.000866565
0.000866563
0.000866566
0.000866555
0.000866705
0.000866705
0.000866705
0.000866703
0.000866846
0.000866927
0.000866957
0.00086711
0.00086711
0.00086711
0.000867218
0.000867443
0.000867576
0.000867587
0.000867685
0.000867829
0.000868039
0.000868232
0.000868411
0.000868493
0.000868672
0.000868869
0.000869072
0.000869221
0.000869499
0.000869724
0.000869957
0.000870142
0.000870451
0.000870732
0.000871111
0.000871443
0.000871928
0.000872292
0.000872885
0.000873337
0.000874146
0.000874657
0.000875819
0.000876458
0.000878662
0.000878976
0.000892328
0.000953877
0.00243378
0.00102019
0.000959827
0.000929464
0.000912211
0.000901204
0.000893673
0.000888217
0.000884157
0.000881022
0.000878577
0.000876614
0.000875036
0.000873732
0.000872661
0.000871758
0.000871007
0.000870355
0.000869806
0.000869333
0.000868935
0.000868571
0.000868264
0.000867992
0.000867768
0.000867539
0.000867354
0.000867192
0.00086706
0.00086692
0.000866813
0.000866716
0.000866644
0.000866515
0.000866458
0.000866417
0.000866381
0.000866313
0.000866285
0.000866264
0.000866234
0.000866152
0.000866162
0.000866161
0.000866155
0.0008661
0.000866216
0.000866226
0.000866226
0.000866225
0.000866227
0.000866217
0.000866366
0.000866366
0.000866366
0.000866364
0.000866507
0.000866588
0.000866618
0.000866771
0.000866771
0.000866771
0.00086688
0.000867104
0.000867237
0.000867249
0.000867347
0.000867491
0.000867701
0.000867893
0.000868074
0.000868156
0.000868335
0.000868531
0.000868735
0.000868885
0.000869162
0.000869388
0.000869621
0.000869806
0.000870115
0.000870396
0.000870775
0.000871107
0.000871593
0.000871957
0.00087255
0.000873002
0.000873811
0.000874322
0.000875484
0.000876122
0.000878326
0.000878634
0.000892095
0.000953741
0.002438
0.00102018
0.000959722
0.00092928
0.000911972
0.000900926
0.000893367
0.000887889
0.000883812
0.000880663
0.000878208
0.000876235
0.000874649
0.000873339
0.000872263
0.000871355
0.0008706
0.000869945
0.000869393
0.000868916
0.000868516
0.000868151
0.000867842
0.000867567
0.000867342
0.000867112
0.000866926
0.000866762
0.00086663
0.000866489
0.000866381
0.000866284
0.00086621
0.000866081
0.000866024
0.000865982
0.000865946
0.000865877
0.000865849
0.000865827
0.000865797
0.000865715
0.000865724
0.000865724
0.000865718
0.000865662
0.000865777
0.000865788
0.000865788
0.000865786
0.000865788
0.000865778
0.000865927
0.000865927
0.000865927
0.000865925
0.000866067
0.000866149
0.000866178
0.000866331
0.000866332
0.000866332
0.00086644
0.000866664
0.000866799
0.000866812
0.00086691
0.000867052
0.000867262
0.000867455
0.000867636
0.000867719
0.000867898
0.000868094
0.000868298
0.000868448
0.000868725
0.000868951
0.000869185
0.00086937
0.000869679
0.000869961
0.00087034
0.000870672
0.000871158
0.000871522
0.000872115
0.000872567
0.000873377
0.000873887
0.000875049
0.000875686
0.000877891
0.000878191
0.000891792
0.000953537
0.00244275
0.00102017
0.000959593
0.000929054
0.000911678
0.000900584
0.00089299
0.000887485
0.000883387
0.000880221
0.000877752
0.000875768
0.000874173
0.000872855
0.000871772
0.000870858
0.000870098
0.000869439
0.000868883
0.000868403
0.000868
0.000867632
0.000867321
0.000867044
0.000866817
0.000866586
0.000866398
0.000866233
0.0008661
0.000865958
0.000865848
0.00086575
0.000865676
0.000865546
0.000865488
0.000865446
0.000865409
0.00086534
0.000865311
0.000865289
0.000865259
0.000865176
0.000865185
0.000865185
0.000865178
0.000865121
0.000865236
0.000865247
0.000865247
0.000865246
0.000865248
0.000865236
0.000865385
0.000865386
0.000865386
0.000865383
0.000865526
0.000865608
0.000865636
0.00086579
0.000865791
0.00086579
0.000865899
0.000866123
0.000866258
0.000866272
0.00086637
0.000866512
0.000866721
0.000866914
0.000867096
0.00086718
0.000867359
0.000867555
0.00086776
0.00086791
0.000868187
0.000868413
0.000868648
0.000868833
0.000869143
0.000869424
0.000869804
0.000870135
0.000870622
0.000870986
0.00087158
0.000872031
0.000872841
0.000873351
0.000874512
0.000875149
0.000877353
0.000877644
0.000891418
0.000953243
0.00244785
0.00102015
0.000959439
0.000928785
0.000911328
0.000900177
0.000892541
0.000887004
0.00088288
0.000879695
0.000877209
0.000875212
0.000873605
0.000872278
0.000871187
0.000870266
0.0008695
0.000868836
0.000868275
0.000867792
0.000867385
0.000867014
0.0008667
0.000866421
0.000866191
0.000865958
0.000865768
0.000865602
0.000865467
0.000865324
0.000865213
0.000865114
0.000865039
0.000864909
0.00086485
0.000864806
0.000864769
0.0008647
0.00086467
0.000864648
0.000864617
0.000864534
0.000864542
0.000864542
0.000864535
0.000864477
0.000864592
0.000864602
0.000864602
0.000864601
0.000864603
0.000864591
0.00086474
0.00086474
0.00086474
0.000864737
0.00086488
0.000864962
0.00086499
0.000865144
0.000865145
0.000865145
0.000865253
0.000865477
0.000865613
0.000865629
0.000865726
0.000865867
0.000866077
0.00086627
0.000866453
0.000866537
0.000866716
0.000866912
0.000867117
0.000867268
0.000867544
0.000867771
0.000868007
0.000868193
0.000868502
0.000868783
0.000869164
0.000869495
0.000869982
0.000870346
0.000870941
0.000871391
0.000872202
0.000872712
0.000873872
0.000874507
0.000876712
0.000876992
0.000890974
0.000952851
0.00245302
0.00102013
0.000959262
0.000928473
0.000910922
0.000899704
0.000892018
0.000886444
0.000882291
0.000879082
0.000876578
0.000874565
0.000872945
0.000871606
0.000870506
0.000869577
0.000868804
0.000868134
0.000867568
0.00086708
0.000866669
0.000866294
0.000865977
0.000865695
0.000865463
0.000865228
0.000865036
0.000864867
0.000864731
0.000864586
0.000864474
0.000864374
0.000864298
0.000864166
0.000864106
0.000864062
0.000864024
0.000863954
0.000863923
0.000863901
0.00086387
0.000863787
0.000863794
0.000863793
0.000863786
0.000863727
0.000863841
0.000863852
0.000863852
0.000863851
0.000863852
0.00086384
0.000863988
0.000863988
0.000863988
0.000863985
0.000864128
0.000864211
0.000864237
0.000864392
0.000864393
0.000864393
0.000864501
0.000864725
0.000864862
0.00086488
0.000864976
0.000865117
0.000865326
0.000865519
0.000865703
0.000865788
0.000865967
0.000866164
0.00086637
0.00086652
0.000866797
0.000867024
0.000867261
0.000867447
0.000867757
0.000868037
0.000868419
0.00086875
0.000869237
0.000869601
0.000870197
0.000870646
0.000871458
0.000871967
0.000873126
0.00087376
0.000875966
0.000876232
0.000890458
0.000952358
0.00245782
0.00102012
0.000959061
0.000928119
0.000910459
0.000899164
0.000891422
0.000885805
0.000881619
0.000878383
0.000875856
0.000873825
0.00087219
0.000870839
0.000869728
0.00086879
0.000868009
0.000867331
0.00086676
0.000866266
0.00086585
0.000865471
0.000865151
0.000864865
0.00086463
0.000864392
0.000864198
0.000864027
0.000863889
0.000863742
0.000863629
0.000863527
0.00086345
0.000863318
0.000863256
0.000863211
0.000863172
0.000863101
0.00086307
0.000863046
0.000863015
0.000862932
0.000862938
0.000862937
0.000862929
0.000862869
0.000862983
0.000862993
0.000862993
0.000862992
0.000862993
0.00086298
0.000863128
0.000863128
0.000863128
0.000863126
0.000863268
0.000863351
0.000863377
0.000863532
0.000863533
0.000863533
0.000863642
0.000863865
0.000864003
0.000864024
0.000864119
0.000864258
0.000864467
0.00086466
0.000864845
0.000864932
0.000865111
0.000865307
0.000865514
0.000865665
0.000865941
0.000866169
0.000866407
0.000866593
0.000866904
0.000867184
0.000867566
0.000867897
0.000868385
0.000868749
0.000869345
0.000869794
0.000870606
0.000871115
0.000872273
0.000872906
0.000875112
0.000875363
0.00088987
0.000951765
0.00246164
0.0010201
0.000958835
0.00092772
0.000909938
0.000898557
0.000890752
0.000885086
0.000880861
0.000877594
0.000875043
0.000872991
0.00087134
0.000869974
0.00086885
0.000867902
0.000867112
0.000866426
0.000865848
0.000865348
0.000864927
0.000864543
0.000864219
0.000863929
0.000863691
0.00086345
0.000863253
0.00086308
0.000862939
0.000862791
0.000862676
0.000862572
0.000862493
0.00086236
0.000862297
0.00086225
0.000862211
0.000862139
0.000862107
0.000862082
0.000862051
0.000861967
0.000861973
0.000861972
0.000861962
0.000861902
0.000862014
0.000862025
0.000862025
0.000862024
0.000862024
0.000862011
0.000862158
0.000862158
0.000862158
0.000862156
0.000862298
0.000862382
0.000862406
0.000862562
0.000862564
0.000862563
0.000862672
0.000862894
0.000863034
0.000863057
0.000863151
0.00086329
0.000863499
0.000863692
0.000863878
0.000863966
0.000864145
0.000864341
0.000864549
0.0008647
0.000864976
0.000865204
0.000865444
0.000865631
0.000865941
0.000866221
0.000866604
0.000866934
0.000867424
0.000867787
0.000868384
0.000868832
0.000869645
0.000870153
0.00087131
0.000871941
0.000874148
0.000874382
0.00088921
0.00095107
0.00246363
0.00102007
0.000958586
0.000927279
0.00090936
0.000897882
0.000890005
0.000884285
0.000880017
0.000876716
0.000874137
0.000872063
0.000870392
0.00086901
0.000867872
0.000866912
0.000866112
0.000865418
0.000864831
0.000864325
0.000863898
0.000863509
0.000863179
0.000862886
0.000862644
0.0008624
0.000862199
0.000862024
0.000861881
0.00086173
0.000861613
0.000861507
0.000861427
0.000861292
0.000861228
0.000861179
0.000861139
0.000861067
0.000861033
0.000861008
0.000860976
0.000860892
0.000860896
0.000860895
0.000860885
0.000860823
0.000860934
0.000860945
0.000860945
0.000860944
0.000860944
0.00086093
0.000861076
0.000861076
0.000861077
0.000861074
0.000861215
0.0008613
0.000861323
0.00086148
0.000861482
0.000861482
0.00086159
0.000861812
0.000861953
0.000861979
0.000862072
0.000862209
0.000862418
0.000862611
0.000862799
0.000862888
0.000863068
0.000863263
0.000863472
0.000863623
0.0008639
0.000864128
0.000864369
0.000864556
0.000864867
0.000865147
0.000865531
0.000865861
0.000866351
0.000866715
0.000867313
0.000867759
0.000868573
0.000869081
0.000870236
0.000870865
0.000873072
0.000873288
0.000888476
0.000950271
0.0024627
0.00102005
0.000958313
0.000926793
0.000908724
0.000897139
0.000889182
0.000883401
0.000879086
0.000875747
0.000873137
0.000871037
0.000869345
0.000867945
0.000866792
0.000865819
0.000865007
0.000864303
0.000863708
0.000863194
0.00086276
0.000862366
0.000862031
0.000861733
0.000861487
0.000861239
0.000861035
0.000860856
0.00086071
0.000860557
0.000860438
0.00086033
0.000860248
0.000860112
0.000860046
0.000859996
0.000859954
0.000859881
0.000859846
0.00085982
0.000859787
0.000859703
0.000859706
0.000859704
0.000859693
0.00085963
0.000859741
0.000859751
0.000859751
0.000859751
0.00085975
0.000859735
0.000859881
0.000859881
0.000859881
0.000859878
0.000860019
0.000860105
0.000860126
0.000860284
0.000860286
0.000860286
0.000860394
0.000860616
0.000860758
0.000860788
0.000860879
0.000861015
0.000861223
0.000861417
0.000861606
0.000861697
0.000861877
0.000862072
0.000862282
0.000862434
0.000862709
0.000862938
0.000863181
0.000863369
0.00086368
0.00086396
0.000864344
0.000864674
0.000865165
0.000865528
0.000866127
0.000866573
0.000867387
0.000867894
0.000869048
0.000869675
0.000871883
0.000872079
0.000887667
0.000949368
0.00245886
0.00102003
0.000958017
0.000926264
0.000908029
0.000896326
0.000888281
0.000882434
0.000878067
0.000874686
0.000872042
0.000869914
0.000868198
0.000866778
0.000865609
0.000864621
0.000863797
0.000863082
0.000862478
0.000861955
0.000861514
0.000861113
0.000860772
0.000860469
0.000860218
0.000859966
0.000859759
0.000859576
0.000859427
0.000859272
0.000859149
0.000859039
0.000858956
0.000858818
0.00085875
0.000858698
0.000858655
0.000858581
0.000858545
0.000858517
0.000858484
0.0008584
0.000858402
0.000858399
0.000858387
0.000858322
0.000858432
0.000858442
0.000858442
0.000858442
0.000858441
0.000858424
0.000858569
0.000858569
0.000858569
0.000858566
0.000858707
0.000858794
0.000858813
0.000858971
0.000858975
0.000858974
0.000859082
0.000859304
0.000859448
0.00085948
0.000859571
0.000859705
0.000859913
0.000860107
0.000860298
0.00086039
0.00086057
0.000860765
0.000860976
0.000861128
0.000861404
0.000861633
0.000861878
0.000862066
0.000862378
0.000862658
0.000863043
0.000863371
0.000863864
0.000864227
0.000864827
0.000865271
0.000866087
0.000866593
0.000867745
0.000868369
0.000870578
0.000870752
0.000886782
0.000948358
0.00245211
0.00102
0.000957697
0.000925691
0.000907275
0.000895443
0.000887303
0.000881383
0.000876958
0.000873532
0.00087085
0.000868691
0.000866949
0.000865508
0.00086432
0.000863316
0.000862479
0.000861752
0.000861137
0.000860605
0.000860156
0.000859748
0.000859401
0.000859092
0.000858836
0.00085858
0.000858368
0.000858182
0.00085803
0.000857871
0.000857746
0.000857633
0.000857547
0.000857408
0.000857337
0.000857284
0.000857239
0.000857164
0.000857127
0.000857098
0.000857064
0.00085698
0.00085698
0.000856976
0.000856964
0.000856897
0.000857005
0.000857015
0.000857015
0.000857015
0.000857014
0.000856996
0.00085714
0.00085714
0.00085714
0.000857137
0.000857278
0.000857365
0.000857382
0.000857542
0.000857545
0.000857545
0.000857652
0.000857874
0.000858019
0.000858056
0.000858145
0.000858278
0.000858485
0.000858679
0.000858872
0.000858966
0.000859146
0.000859341
0.000859553
0.000859706
0.000859981
0.00086021
0.000860458
0.000860646
0.000860959
0.000861238
0.000861624
0.000861952
0.000862446
0.000862808
0.00086341
0.000863853
0.000864668
0.000865174
0.000866324
0.000866946
0.000869155
0.000869306
0.000885819
0.000947239
0.00244251
0.00101997
0.000957355
0.000925075
0.000906462
0.00089449
0.000886246
0.000880246
0.000875759
0.000872283
0.00086956
0.000867368
0.000865598
0.000864133
0.000862925
0.000861904
0.000861051
0.000860311
0.000859685
0.000859143
0.000858685
0.000858269
0.000857915
0.0008576
0.000857339
0.000857078
0.000856862
0.000856671
0.000856515
0.000856353
0.000856225
0.000856109
0.000856022
0.00085588
0.000855808
0.000855752
0.000855706
0.000855629
0.00085559
0.00085556
0.000855525
0.000855441
0.00085544
0.000855435
0.000855421
0.000855353
0.00085546
0.000855469
0.000855469
0.000855469
0.000855468
0.000855449
0.000855592
0.000855592
0.000855592
0.000855589
0.000855729
0.000855816
0.000855832
0.000855992
0.000855997
0.000855996
0.000856103
0.000856324
0.000856471
0.000856512
0.000856599
0.000856731
0.000856938
0.000857132
0.000857326
0.000857422
0.000857602
0.000857797
0.000858011
0.000858164
0.000858439
0.000858669
0.000858918
0.000859107
0.00085942
0.000859699
0.000860086
0.000860413
0.000860908
0.000861271
0.000861873
0.000862314
0.000863131
0.000863635
0.000864783
0.000865402
0.000867612
0.000867739
0.000884775
0.000946011
0.00243011
0.00101995
0.00095699
0.000924415
0.000905591
0.000893466
0.000885109
0.000879024
0.000874469
0.000870938
0.000868172
0.000865943
0.000864143
0.000862652
0.000861422
0.000860382
0.000859513
0.000858759
0.000858121
0.000857568
0.0008571
0.000856676
0.000856314
0.000855992
0.000855725
0.000855459
0.000855238
0.000855042
0.000854883
0.000854717
0.000854586
0.000854467
0.000854377
0.000854233
0.000854158
0.0008541
0.000854052
0.000853974
0.000853933
0.000853901
0.000853867
0.000853782
0.000853779
0.000853773
0.000853758
0.000853688
0.000853793
0.000853803
0.000853803
0.000853802
0.0008538
0.00085378
0.000853922
0.000853922
0.000853922
0.000853919
0.000854058
0.000854146
0.000854161
0.000854321
0.000854326
0.000854326
0.000854433
0.000854653
0.000854802
0.000854847
0.000854933
0.000855063
0.000855269
0.000855463
0.000855659
0.000855757
0.000855938
0.000856132
0.000856347
0.0008565
0.000856775
0.000857006
0.000857257
0.000857447
0.000857761
0.000858039
0.000858427
0.000858754
0.00085925
0.000859612
0.000860215
0.000860655
0.000861472
0.000861976
0.000863122
0.000863737
0.000865947
0.000866049
0.00088365
0.00094467
0.00241497
0.00101992
0.000956603
0.000923712
0.000904659
0.000892371
0.000883893
0.000877715
0.000873086
0.000869498
0.000866683
0.000864415
0.000862582
0.000861064
0.00085981
0.000858749
0.000857863
0.000857094
0.000856442
0.000855877
0.000855399
0.000854966
0.000854596
0.000854267
0.000853993
0.000853721
0.000853495
0.000853294
0.00085313
0.000852961
0.000852826
0.000852704
0.000852611
0.000852466
0.000852387
0.000852326
0.000852277
0.000852197
0.000852155
0.000852121
0.000852086
0.000852001
0.000851996
0.000851989
0.000851973
0.0008519
0.000852004
0.000852013
0.000852013
0.000852013
0.000852011
0.000851989
0.000852129
0.000852129
0.000852129
0.000852126
0.000852265
0.000852353
0.000852366
0.000852527
0.000852533
0.000852533
0.000852639
0.000852858
0.000853009
0.000853058
0.000853143
0.000853271
0.000853477
0.000853671
0.000853869
0.000853969
0.00085415
0.000854344
0.000854561
0.000854714
0.000854989
0.00085522
0.000855473
0.000855664
0.000855978
0.000856256
0.000856645
0.000856971
0.000857468
0.00085783
0.000858435
0.000858873
0.000859691
0.000860193
0.000861337
0.000861949
0.000864158
0.000864234
0.000882439
0.000943214
0.00239716
0.00101989
0.000956194
0.000922966
0.000903669
0.000891205
0.000882597
0.000876318
0.000871611
0.00086796
0.000865094
0.000862784
0.000860915
0.000859367
0.000858087
0.000857005
0.000856099
0.000855314
0.000854648
0.00085407
0.000853581
0.000853138
0.000852759
0.000852422
0.000852141
0.000851863
0.000851631
0.000851425
0.000851257
0.000851083
0.000850945
0.000850818
0.000850723
0.000850575
0.000850494
0.00085043
0.000850379
0.000850297
0.000850253
0.000850217
0.000850181
0.000850096
0.000850089
0.000850081
0.000850063
0.000849989
0.00085009
0.000850099
0.000850099
0.000850099
0.000850096
0.000850073
0.000850212
0.000850212
0.000850212
0.000850208
0.000850346
0.000850435
0.000850446
0.000850608
0.000850615
0.000850615
0.000850721
0.000850939
0.000851091
0.000851145
0.000851228
0.000851355
0.00085156
0.000851754
0.000851954
0.000852056
0.000852238
0.000852431
0.000852649
0.000852803
0.000853078
0.000853309
0.000853565
0.000853757
0.000854071
0.000854348
0.000854739
0.000855063
0.000855562
0.000855923
0.000856529
0.000856965
0.000857784
0.000858285
0.000859426
0.000860034
0.000862243
0.000862292
0.00088114
0.00094164
0.00237677
0.00101986
0.000955764
0.000922177
0.00090262
0.000889968
0.000881219
0.000874834
0.000870043
0.000866324
0.000863403
0.000861047
0.00085914
0.00085756
0.000856253
0.000855147
0.000854221
0.000853418
0.000852736
0.000852145
0.000851644
0.00085119
0.000850802
0.000850456
0.000850168
0.000849883
0.000849645
0.000849434
0.00084926
0.000849082
0.000848939
0.000848809
0.00084871
0.00084856
0.000848475
0.000848409
0.000848356
0.000848272
0.000848226
0.000848188
0.000848151
0.000848065
0.000848056
0.000848047
0.000848028
0.000847951
0.00084805
0.000848058
0.000848059
0.000848058
0.000848056
0.00084803
0.000848168
0.000848168
0.000848168
0.000848164
0.000848301
0.000848391
0.0008484
0.000848562
0.00084857
0.00084857
0.000848675
0.000848893
0.000849047
0.000849105
0.000849187
0.000849312
0.000849516
0.00084971
0.000849912
0.000850016
0.000850199
0.000850391
0.000850611
0.000850766
0.00085104
0.000851271
0.00085153
0.000851722
0.000852037
0.000852314
0.000852706
0.000853029
0.000853529
0.00085389
0.000854497
0.000854931
0.00085575
0.00085625
0.000857388
0.000857992
0.0008602
0.000860222
0.000879748
0.000939944
0.00235389
0.00101984
0.000955313
0.000921346
0.000901511
0.000888659
0.000879761
0.000873262
0.00086838
0.000864589
0.000861609
0.000859205
0.000857257
0.000855642
0.000854306
0.000853175
0.000852227
0.000851405
0.000850707
0.000850101
0.000849587
0.000849122
0.000848724
0.000848368
0.000848072
0.00084778
0.000847535
0.000847318
0.000847139
0.000846956
0.000846809
0.000846674
0.000846572
0.000846419
0.000846331
0.000846261
0.000846206
0.00084612
0.000846071
0.000846032
0.000845993
0.000845907
0.000845896
0.000845886
0.000845865
0.000845786
0.000845883
0.00084589
0.000845891
0.00084589
0.000845887
0.00084586
0.000845995
0.000845995
0.000845995
0.000845991
0.000846128
0.000846217
0.000846225
0.000846387
0.000846396
0.000846396
0.000846501
0.000846718
0.000846874
0.000846937
0.000847017
0.00084714
0.000847344
0.000847537
0.000847742
0.000847848
0.000848031
0.000848223
0.000848445
0.0008486
0.000848873
0.000849105
0.000849366
0.00084956
0.000849875
0.000850151
0.000850544
0.000850867
0.000851368
0.000851728
0.000852336
0.000852768
0.000853588
0.000854086
0.000855221
0.000855821
0.000858027
0.000858021
0.000878261
0.000938123
0.00232863
0.00101981
0.000954843
0.000920474
0.000900344
0.000887279
0.000878222
0.000871601
0.000866623
0.000862755
0.000859712
0.000857256
0.000855264
0.000853613
0.000852245
0.000851087
0.000850116
0.000849274
0.000848558
0.000847936
0.000847408
0.000846931
0.000846522
0.000846157
0.000845851
0.000845552
0.0008453
0.000845077
0.000844892
0.000844704
0.000844552
0.000844413
0.000844307
0.000844151
0.000844059
0.000843986
0.000843928
0.00084384
0.000843789
0.000843747
0.000843707
0.00084362
0.000843607
0.000843595
0.000843573
0.000843491
0.000843586
0.000843593
0.000843593
0.000843592
0.000843589
0.00084356
0.000843693
0.000843693
0.000843693
0.000843689
0.000843825
0.000843914
0.00084392
0.000844083
0.000844093
0.000844093
0.000844198
0.000844413
0.000844571
0.000844639
0.000844717
0.000844838
0.000845041
0.000845234
0.000845441
0.00084555
0.000845733
0.000845925
0.000846148
0.000846304
0.000846577
0.000846809
0.000847073
0.000847267
0.000847583
0.000847858
0.000848253
0.000848574
0.000849076
0.000849435
0.000850045
0.000850475
0.000851295
0.000851791
0.000852924
0.000853519
0.000855723
0.000855688
0.000876672
0.000936172
0.0023011
0.00101979
0.000954353
0.000919561
0.000899119
0.000885828
0.000876602
0.000869851
0.000864771
0.000860821
0.000857711
0.000855199
0.000853161
0.000851471
0.000850069
0.000848883
0.000847887
0.000847023
0.000846288
0.00084565
0.000845107
0.000844617
0.000844196
0.000843821
0.000843506
0.000843198
0.000842939
0.000842708
0.000842517
0.000842324
0.000842167
0.000842023
0.000841913
0.000841754
0.000841658
0.000841581
0.00084152
0.00084143
0.000841377
0.000841332
0.000841291
0.000841203
0.000841188
0.000841174
0.00084115
0.000841066
0.000841158
0.000841164
0.000841165
0.000841164
0.00084116
0.000841129
0.00084126
0.00084126
0.00084126
0.000841255
0.000841391
0.000841479
0.000841484
0.000841647
0.000841658
0.000841658
0.000841762
0.000841976
0.000842136
0.000842209
0.000842286
0.000842405
0.000842607
0.0008428
0.000843009
0.00084312
0.000843304
0.000843495
0.00084372
0.000843877
0.000844149
0.000844381
0.000844648
0.000844843
0.00084516
0.000845434
0.00084583
0.000846149
0.000846653
0.000847011
0.000847622
0.000848049
0.000848869
0.000849364
0.000850493
0.000851083
0.000853286
0.000853221
0.000874977
0.000934086
0.00227143
0.00101976
0.000953845
0.000918608
0.000897836
0.000884306
0.000874901
0.000868012
0.000862823
0.000858786
0.000855605
0.000853034
0.000850947
0.000849215
0.000847778
0.000846561
0.000845538
0.000844652
0.000843897
0.000843241
0.000842682
0.000842178
0.000841745
0.000841358
0.000841033
0.000840717
0.00084045
0.000840212
0.000840014
0.000839815
0.000839653
0.000839503
0.000839389
0.000839226
0.000839126
0.000839046
0.000838982
0.000838889
0.000838833
0.000838786
0.000838744
0.000838654
0.000838637
0.000838621
0.000838596
0.000838509
0.000838598
0.000838604
0.000838604
0.000838603
0.000838599
0.000838565
0.000838694
0.000838694
0.000838694
0.000838689
0.000838823
0.000838911
0.000838914
0.000839078
0.000839089
0.000839089
0.000839194
0.000839407
0.000839567
0.000839646
0.000839721
0.000839838
0.00084004
0.000840232
0.000840443
0.000840557
0.000840742
0.000840932
0.000841158
0.000841316
0.000841588
0.000841819
0.000842089
0.000842285
0.000842603
0.000842876
0.000843273
0.000843591
0.000844096
0.000844453
0.000845065
0.00084549
0.000846309
0.000846803
0.000847928
0.000848513
0.000850713
0.000850619
0.000873169
0.000931859
0.00223975
0.00101974
0.000953319
0.000917615
0.000896497
0.000882713
0.000873118
0.000866084
0.00086078
0.000856651
0.000853394
0.000850761
0.000848621
0.000846845
0.00084537
0.00084412
0.00084307
0.000842159
0.000841382
0.000840707
0.000840132
0.000839614
0.000839167
0.000838769
0.000838433
0.000838108
0.000837832
0.000837586
0.000837381
0.000837176
0.000837008
0.000836852
0.000836734
0.000836567
0.000836463
0.000836378
0.000836312
0.000836216
0.000836157
0.000836107
0.000836063
0.000835973
0.000835952
0.000835935
0.000835908
0.000835818
0.000835904
0.000835909
0.00083591
0.000835908
0.000835903
0.000835867
0.000835993
0.000835994
0.000835994
0.000835988
0.000836121
0.000836208
0.00083621
0.000836374
0.000836386
0.000836387
0.000836491
0.000836702
0.000836864
0.000836948
0.000837022
0.000837136
0.000837337
0.000837529
0.000837742
0.000837859
0.000838044
0.000838234
0.000838462
0.00083862
0.000838891
0.000839123
0.000839395
0.000839592
0.000839911
0.000840182
0.000840581
0.000840897
0.000841403
0.000841759
0.000842373
0.000842795
0.000843614
0.000844106
0.000845227
0.000845807
0.000848004
0.000847879
0.000871243
0.000929485
0.00220618
0.00101972
0.000952777
0.000916583
0.0008951
0.00088105
0.000871255
0.000864066
0.000858641
0.000854414
0.000851077
0.000848378
0.000846182
0.000844359
0.000842844
0.000841561
0.00084048
0.000839544
0.000838744
0.000838049
0.000837456
0.000836922
0.000836462
0.00083605
0.000835704
0.000835369
0.000835084
0.000834829
0.000834617
0.000834405
0.000834231
0.000834069
0.000833946
0.000833776
0.000833667
0.000833577
0.000833507
0.000833409
0.000833347
0.000833293
0.000833248
0.000833156
0.000833133
0.000833114
0.000833086
0.000832993
0.000833075
0.000833079
0.00083308
0.000833079
0.000833073
0.000833034
0.000833158
0.000833158
0.000833158
0.000833151