/*--------------------------------*- C++ -*----------------------------------*\
| =========                 |                                                 |
| \\      /  F ield         | OpenFOAM: The Open Source CFD Toolbox           |
|  \\    /   O peration     | Version:  v2012                                 |
|   \\  /    A nd           | Website:  www.openfoam.com                      |
|    \\/     M anipulation  |                                                 |
\*---------------------------------------------------------------------------*/
FoamFile
{
    version     2.0;
    format      ascii;
    class       volScalarField;
    location    "13";
    object      nut;
}
// * * * * * * * * * * * * * * * * * * * * * * * * * * * * * * * * * * * * * //

dimensions      [0 2 -1 0 0 0 0];


internalField   nonuniform List<scalar> 
209825
(
1.24049e-07
1.24649e-07
1.25405e-07
1.26005e-07
1.26463e-07
1.26821e-07
1.27108e-07
1.27344e-07
1.27541e-07
1.27707e-07
1.27849e-07
1.27971e-07
1.28078e-07
1.28171e-07
1.28254e-07
1.28326e-07
1.2839e-07
1.28446e-07
1.28499e-07
1.28545e-07
1.28588e-07
1.28625e-07
1.28659e-07
1.28689e-07
1.28717e-07
1.28742e-07
1.28767e-07
1.28787e-07
1.28807e-07
1.28825e-07
1.28843e-07
1.28859e-07
1.28866e-07
1.28877e-07
1.28895e-07
1.28908e-07
1.28914e-07
1.28922e-07
1.28937e-07
1.28943e-07
1.2894e-07
1.2895e-07
1.28972e-07
1.28969e-07
1.28961e-07
1.28978e-07
1.28981e-07
1.28985e-07
1.28994e-07
1.28993e-07
1.28994e-07
1.28999e-07
1.28991e-07
1.28991e-07
1.2899e-07
1.28993e-07
1.28988e-07
1.28988e-07
1.29011e-07
1.29011e-07
1.28994e-07
1.28996e-07
1.29029e-07
1.29036e-07
1.2901e-07
1.29025e-07
1.29046e-07
1.29056e-07
1.29085e-07
1.2909e-07
1.29075e-07
1.29079e-07
1.29082e-07
1.29083e-07
1.29105e-07
1.29124e-07
1.2913e-07
1.29145e-07
1.29139e-07
1.29154e-07
1.29179e-07
1.29198e-07
1.29224e-07
1.2926e-07
1.29283e-07
1.29322e-07
1.29356e-07
1.29412e-07
1.29452e-07
1.29536e-07
1.29588e-07
1.2976e-07
1.29793e-07
1.30864e-07
1.35816e-07
2.09082e-08
1.24049e-07
1.24649e-07
1.25405e-07
1.26005e-07
1.26463e-07
1.2682e-07
1.27108e-07
1.27344e-07
1.27541e-07
1.27707e-07
1.27849e-07
1.27971e-07
1.28078e-07
1.28171e-07
1.28254e-07
1.28326e-07
1.2839e-07
1.28446e-07
1.28499e-07
1.28546e-07
1.28588e-07
1.28625e-07
1.2866e-07
1.2869e-07
1.28717e-07
1.28742e-07
1.28767e-07
1.28787e-07
1.28808e-07
1.28825e-07
1.28843e-07
1.28859e-07
1.28866e-07
1.28878e-07
1.28895e-07
1.28908e-07
1.28914e-07
1.28922e-07
1.28937e-07
1.28944e-07
1.28941e-07
1.28951e-07
1.28972e-07
1.28969e-07
1.28961e-07
1.28979e-07
1.28982e-07
1.28985e-07
1.28995e-07
1.28993e-07
1.28994e-07
1.28999e-07
1.28991e-07
1.28991e-07
1.28991e-07
1.28993e-07
1.28988e-07
1.28989e-07
1.29011e-07
1.29012e-07
1.28994e-07
1.28996e-07
1.2903e-07
1.29037e-07
1.2901e-07
1.29025e-07
1.29047e-07
1.29057e-07
1.29085e-07
1.29091e-07
1.29076e-07
1.29079e-07
1.29082e-07
1.29083e-07
1.29105e-07
1.29124e-07
1.29131e-07
1.29145e-07
1.2914e-07
1.29155e-07
1.29179e-07
1.29199e-07
1.29224e-07
1.2926e-07
1.29283e-07
1.29322e-07
1.29357e-07
1.29412e-07
1.29452e-07
1.29537e-07
1.29589e-07
1.29761e-07
1.29794e-07
1.30866e-07
1.35822e-07
2.15329e-08
1.24049e-07
1.24647e-07
1.25403e-07
1.26002e-07
1.2646e-07
1.26818e-07
1.27105e-07
1.27341e-07
1.27538e-07
1.27704e-07
1.27846e-07
1.27968e-07
1.28076e-07
1.28168e-07
1.28251e-07
1.28323e-07
1.28388e-07
1.28444e-07
1.28497e-07
1.28543e-07
1.28585e-07
1.28622e-07
1.28657e-07
1.28687e-07
1.28715e-07
1.2874e-07
1.28764e-07
1.28785e-07
1.28805e-07
1.28823e-07
1.28841e-07
1.28856e-07
1.28863e-07
1.28875e-07
1.28893e-07
1.28905e-07
1.28912e-07
1.28919e-07
1.28934e-07
1.28941e-07
1.28938e-07
1.28948e-07
1.2897e-07
1.28967e-07
1.28958e-07
1.28976e-07
1.28979e-07
1.28983e-07
1.28992e-07
1.28991e-07
1.28992e-07
1.28996e-07
1.28989e-07
1.28989e-07
1.28988e-07
1.2899e-07
1.28986e-07
1.28986e-07
1.29009e-07
1.29009e-07
1.28992e-07
1.28994e-07
1.29027e-07
1.29034e-07
1.29008e-07
1.29023e-07
1.29044e-07
1.29054e-07
1.29083e-07
1.29088e-07
1.29073e-07
1.29077e-07
1.2908e-07
1.29081e-07
1.29103e-07
1.29122e-07
1.29129e-07
1.29143e-07
1.29138e-07
1.29153e-07
1.29177e-07
1.29197e-07
1.29222e-07
1.29258e-07
1.29281e-07
1.2932e-07
1.29355e-07
1.2941e-07
1.2945e-07
1.29535e-07
1.29587e-07
1.29759e-07
1.29791e-07
1.30868e-07
1.35829e-07
2.23076e-08
1.24048e-07
1.24644e-07
1.25399e-07
1.25998e-07
1.26455e-07
1.26813e-07
1.27101e-07
1.27336e-07
1.27533e-07
1.27699e-07
1.27842e-07
1.27964e-07
1.28071e-07
1.28164e-07
1.28246e-07
1.28319e-07
1.28383e-07
1.28439e-07
1.28492e-07
1.28539e-07
1.28581e-07
1.28618e-07
1.28653e-07
1.28683e-07
1.28711e-07
1.28736e-07
1.2876e-07
1.28781e-07
1.28801e-07
1.28819e-07
1.28837e-07
1.28853e-07
1.2886e-07
1.28871e-07
1.28889e-07
1.28901e-07
1.28908e-07
1.28916e-07
1.28931e-07
1.28937e-07
1.28934e-07
1.28944e-07
1.28966e-07
1.28963e-07
1.28955e-07
1.28972e-07
1.28976e-07
1.28979e-07
1.28989e-07
1.28987e-07
1.28988e-07
1.28993e-07
1.28985e-07
1.28985e-07
1.28985e-07
1.28987e-07
1.28982e-07
1.28983e-07
1.29006e-07
1.29006e-07
1.28989e-07
1.28991e-07
1.29024e-07
1.29031e-07
1.29005e-07
1.2902e-07
1.29041e-07
1.29051e-07
1.2908e-07
1.29085e-07
1.2907e-07
1.29074e-07
1.29077e-07
1.29078e-07
1.291e-07
1.29119e-07
1.29126e-07
1.2914e-07
1.29135e-07
1.2915e-07
1.29174e-07
1.29194e-07
1.29219e-07
1.29255e-07
1.29278e-07
1.29317e-07
1.29352e-07
1.29407e-07
1.29447e-07
1.29532e-07
1.29584e-07
1.29756e-07
1.29788e-07
1.30872e-07
1.35841e-07
2.31671e-08
1.24047e-07
1.24641e-07
1.25394e-07
1.25992e-07
1.2645e-07
1.26807e-07
1.27095e-07
1.2733e-07
1.27527e-07
1.27693e-07
1.27836e-07
1.27958e-07
1.28065e-07
1.28158e-07
1.28241e-07
1.28313e-07
1.28378e-07
1.28434e-07
1.28487e-07
1.28533e-07
1.28576e-07
1.28613e-07
1.28648e-07
1.28678e-07
1.28706e-07
1.28731e-07
1.28755e-07
1.28776e-07
1.28796e-07
1.28814e-07
1.28832e-07
1.28848e-07
1.28855e-07
1.28866e-07
1.28884e-07
1.28897e-07
1.28903e-07
1.28911e-07
1.28926e-07
1.28933e-07
1.2893e-07
1.2894e-07
1.28961e-07
1.28958e-07
1.2895e-07
1.28968e-07
1.28971e-07
1.28975e-07
1.28984e-07
1.28983e-07
1.28984e-07
1.28988e-07
1.28981e-07
1.28981e-07
1.2898e-07
1.28983e-07
1.28978e-07
1.28979e-07
1.29001e-07
1.29001e-07
1.28984e-07
1.28986e-07
1.2902e-07
1.29027e-07
1.29001e-07
1.29015e-07
1.29037e-07
1.29047e-07
1.29076e-07
1.29081e-07
1.29066e-07
1.2907e-07
1.29073e-07
1.29074e-07
1.29096e-07
1.29115e-07
1.29122e-07
1.29136e-07
1.29131e-07
1.29146e-07
1.2917e-07
1.2919e-07
1.29215e-07
1.29252e-07
1.29275e-07
1.29314e-07
1.29348e-07
1.29404e-07
1.29444e-07
1.29528e-07
1.2958e-07
1.29753e-07
1.29784e-07
1.30877e-07
1.35857e-07
2.40991e-08
1.24046e-07
1.24636e-07
1.25387e-07
1.25985e-07
1.26442e-07
1.26799e-07
1.27087e-07
1.27322e-07
1.2752e-07
1.27686e-07
1.27829e-07
1.27951e-07
1.28058e-07
1.28151e-07
1.28234e-07
1.28306e-07
1.28371e-07
1.28427e-07
1.2848e-07
1.28527e-07
1.28569e-07
1.28606e-07
1.28641e-07
1.28671e-07
1.28699e-07
1.28724e-07
1.28749e-07
1.2877e-07
1.2879e-07
1.28808e-07
1.28826e-07
1.28842e-07
1.28849e-07
1.2886e-07
1.28878e-07
1.28891e-07
1.28898e-07
1.28905e-07
1.2892e-07
1.28927e-07
1.28924e-07
1.28934e-07
1.28956e-07
1.28953e-07
1.28945e-07
1.28962e-07
1.28965e-07
1.28969e-07
1.28979e-07
1.28977e-07
1.28978e-07
1.28983e-07
1.28975e-07
1.28975e-07
1.28975e-07
1.28977e-07
1.28973e-07
1.28973e-07
1.28996e-07
1.28996e-07
1.28979e-07
1.28981e-07
1.29014e-07
1.29022e-07
1.28996e-07
1.29011e-07
1.29032e-07
1.29042e-07
1.29071e-07
1.29076e-07
1.29062e-07
1.29065e-07
1.29068e-07
1.29069e-07
1.29092e-07
1.2911e-07
1.29117e-07
1.29132e-07
1.29127e-07
1.29142e-07
1.29166e-07
1.29186e-07
1.29211e-07
1.29247e-07
1.2927e-07
1.29309e-07
1.29344e-07
1.294e-07
1.2944e-07
1.29524e-07
1.29576e-07
1.29749e-07
1.2978e-07
1.30884e-07
1.35875e-07
2.5101e-08
1.24044e-07
1.2463e-07
1.25379e-07
1.25976e-07
1.26433e-07
1.2679e-07
1.27078e-07
1.27313e-07
1.27511e-07
1.27677e-07
1.2782e-07
1.27942e-07
1.2805e-07
1.28142e-07
1.28225e-07
1.28298e-07
1.28363e-07
1.28419e-07
1.28472e-07
1.28519e-07
1.28561e-07
1.28598e-07
1.28634e-07
1.28664e-07
1.28692e-07
1.28717e-07
1.28742e-07
1.28762e-07
1.28783e-07
1.28801e-07
1.28819e-07
1.28835e-07
1.28842e-07
1.28853e-07
1.28871e-07
1.28884e-07
1.28891e-07
1.28898e-07
1.28913e-07
1.2892e-07
1.28917e-07
1.28927e-07
1.28949e-07
1.28946e-07
1.28938e-07
1.28956e-07
1.28959e-07
1.28962e-07
1.28972e-07
1.28971e-07
1.28972e-07
1.28977e-07
1.28969e-07
1.28969e-07
1.28969e-07
1.28971e-07
1.28967e-07
1.28967e-07
1.2899e-07
1.2899e-07
1.28973e-07
1.28975e-07
1.29008e-07
1.29016e-07
1.2899e-07
1.29005e-07
1.29026e-07
1.29036e-07
1.29065e-07
1.2907e-07
1.29056e-07
1.29059e-07
1.29063e-07
1.29064e-07
1.29086e-07
1.29105e-07
1.29112e-07
1.29127e-07
1.29122e-07
1.29136e-07
1.29161e-07
1.29181e-07
1.29206e-07
1.29242e-07
1.29265e-07
1.29304e-07
1.29339e-07
1.29395e-07
1.29435e-07
1.29519e-07
1.29571e-07
1.29744e-07
1.29774e-07
1.30893e-07
1.35894e-07
2.61729e-08
1.24042e-07
1.24623e-07
1.25369e-07
1.25965e-07
1.26422e-07
1.26779e-07
1.27067e-07
1.27303e-07
1.275e-07
1.27666e-07
1.2781e-07
1.27932e-07
1.2804e-07
1.28132e-07
1.28216e-07
1.28288e-07
1.28353e-07
1.2841e-07
1.28463e-07
1.2851e-07
1.28552e-07
1.28589e-07
1.28625e-07
1.28655e-07
1.28683e-07
1.28708e-07
1.28733e-07
1.28754e-07
1.28774e-07
1.28792e-07
1.28811e-07
1.28826e-07
1.28834e-07
1.28845e-07
1.28863e-07
1.28876e-07
1.28883e-07
1.2889e-07
1.28906e-07
1.28912e-07
1.2891e-07
1.2892e-07
1.28941e-07
1.28939e-07
1.2893e-07
1.28948e-07
1.28951e-07
1.28955e-07
1.28964e-07
1.28963e-07
1.28965e-07
1.28969e-07
1.28962e-07
1.28962e-07
1.28962e-07
1.28964e-07
1.28959e-07
1.2896e-07
1.28983e-07
1.28983e-07
1.28966e-07
1.28968e-07
1.29001e-07
1.29009e-07
1.28984e-07
1.28998e-07
1.29019e-07
1.29029e-07
1.29058e-07
1.29064e-07
1.2905e-07
1.29053e-07
1.29056e-07
1.29058e-07
1.2908e-07
1.29099e-07
1.29106e-07
1.2912e-07
1.29116e-07
1.29131e-07
1.29155e-07
1.29175e-07
1.292e-07
1.29237e-07
1.29259e-07
1.29299e-07
1.29334e-07
1.29389e-07
1.29429e-07
1.29514e-07
1.29566e-07
1.29739e-07
1.29768e-07
1.30904e-07
1.35914e-07
2.73158e-08
1.2404e-07
1.24615e-07
1.25358e-07
1.25953e-07
1.2641e-07
1.26767e-07
1.27055e-07
1.2729e-07
1.27488e-07
1.27654e-07
1.27798e-07
1.2792e-07
1.28028e-07
1.28121e-07
1.28205e-07
1.28277e-07
1.28343e-07
1.28399e-07
1.28453e-07
1.28499e-07
1.28542e-07
1.28579e-07
1.28615e-07
1.28645e-07
1.28673e-07
1.28698e-07
1.28723e-07
1.28744e-07
1.28765e-07
1.28783e-07
1.28801e-07
1.28817e-07
1.28824e-07
1.28836e-07
1.28854e-07
1.28867e-07
1.28874e-07
1.28881e-07
1.28897e-07
1.28903e-07
1.28901e-07
1.28911e-07
1.28933e-07
1.2893e-07
1.28921e-07
1.28939e-07
1.28943e-07
1.28946e-07
1.28956e-07
1.28955e-07
1.28956e-07
1.28961e-07
1.28954e-07
1.28954e-07
1.28953e-07
1.28956e-07
1.28951e-07
1.28952e-07
1.28975e-07
1.28975e-07
1.28958e-07
1.2896e-07
1.28994e-07
1.29002e-07
1.28976e-07
1.28991e-07
1.29012e-07
1.29022e-07
1.29051e-07
1.29057e-07
1.29043e-07
1.29046e-07
1.29049e-07
1.29051e-07
1.29073e-07
1.29092e-07
1.29099e-07
1.29114e-07
1.29109e-07
1.29124e-07
1.29148e-07
1.29168e-07
1.29193e-07
1.2923e-07
1.29253e-07
1.29292e-07
1.29327e-07
1.29383e-07
1.29423e-07
1.29508e-07
1.29559e-07
1.29733e-07
1.29761e-07
1.30917e-07
1.35935e-07
2.85305e-08
1.24038e-07
1.24605e-07
1.25346e-07
1.2594e-07
1.26396e-07
1.26753e-07
1.27041e-07
1.27277e-07
1.27474e-07
1.27641e-07
1.27785e-07
1.27907e-07
1.28015e-07
1.28108e-07
1.28192e-07
1.28265e-07
1.2833e-07
1.28387e-07
1.28441e-07
1.28487e-07
1.2853e-07
1.28568e-07
1.28603e-07
1.28634e-07
1.28662e-07
1.28687e-07
1.28712e-07
1.28733e-07
1.28754e-07
1.28772e-07
1.2879e-07
1.28807e-07
1.28814e-07
1.28826e-07
1.28844e-07
1.28857e-07
1.28864e-07
1.28871e-07
1.28887e-07
1.28894e-07
1.28891e-07
1.28901e-07
1.28923e-07
1.2892e-07
1.28912e-07
1.28929e-07
1.28933e-07
1.28937e-07
1.28946e-07
1.28946e-07
1.28947e-07
1.28952e-07
1.28944e-07
1.28944e-07
1.28944e-07
1.28947e-07
1.28942e-07
1.28943e-07
1.28966e-07
1.28966e-07
1.28949e-07
1.28951e-07
1.28985e-07
1.28993e-07
1.28968e-07
1.28982e-07
1.29003e-07
1.29013e-07
1.29042e-07
1.29048e-07
1.29035e-07
1.29038e-07
1.29041e-07
1.29043e-07
1.29065e-07
1.29084e-07
1.29091e-07
1.29106e-07
1.29102e-07
1.29116e-07
1.29141e-07
1.29161e-07
1.29186e-07
1.29223e-07
1.29246e-07
1.29285e-07
1.2932e-07
1.29376e-07
1.29416e-07
1.29501e-07
1.29552e-07
1.29726e-07
1.29753e-07
1.30932e-07
1.35957e-07
2.98167e-08
1.24035e-07
1.24595e-07
1.25332e-07
1.25925e-07
1.2638e-07
1.26737e-07
1.27025e-07
1.27261e-07
1.27459e-07
1.27626e-07
1.2777e-07
1.27893e-07
1.28001e-07
1.28094e-07
1.28178e-07
1.28251e-07
1.28317e-07
1.28374e-07
1.28427e-07
1.28474e-07
1.28517e-07
1.28555e-07
1.2859e-07
1.28621e-07
1.2865e-07
1.28675e-07
1.287e-07
1.28721e-07
1.28742e-07
1.2876e-07
1.28779e-07
1.28795e-07
1.28802e-07
1.28814e-07
1.28832e-07
1.28845e-07
1.28852e-07
1.2886e-07
1.28875e-07
1.28882e-07
1.2888e-07
1.2889e-07
1.28912e-07
1.28909e-07
1.28901e-07
1.28919e-07
1.28922e-07
1.28926e-07
1.28936e-07
1.28935e-07
1.28937e-07
1.28941e-07
1.28934e-07
1.28934e-07
1.28934e-07
1.28936e-07
1.28932e-07
1.28933e-07
1.28956e-07
1.28956e-07
1.28939e-07
1.28942e-07
1.28975e-07
1.28983e-07
1.28959e-07
1.28973e-07
1.28994e-07
1.29004e-07
1.29033e-07
1.29039e-07
1.29026e-07
1.29029e-07
1.29033e-07
1.29034e-07
1.29056e-07
1.29075e-07
1.29082e-07
1.29098e-07
1.29093e-07
1.29108e-07
1.29132e-07
1.29153e-07
1.29178e-07
1.29215e-07
1.29238e-07
1.29277e-07
1.29312e-07
1.29368e-07
1.29408e-07
1.29493e-07
1.29544e-07
1.29719e-07
1.29744e-07
1.3095e-07
1.35979e-07
3.11721e-08
1.24032e-07
1.24584e-07
1.25317e-07
1.25908e-07
1.26363e-07
1.2672e-07
1.27008e-07
1.27244e-07
1.27442e-07
1.27609e-07
1.27753e-07
1.27876e-07
1.27985e-07
1.28078e-07
1.28163e-07
1.28236e-07
1.28302e-07
1.28359e-07
1.28413e-07
1.2846e-07
1.28503e-07
1.28541e-07
1.28576e-07
1.28607e-07
1.28636e-07
1.28661e-07
1.28687e-07
1.28708e-07
1.28729e-07
1.28747e-07
1.28766e-07
1.28782e-07
1.2879e-07
1.28801e-07
1.28819e-07
1.28833e-07
1.2884e-07
1.28848e-07
1.28863e-07
1.2887e-07
1.28868e-07
1.28878e-07
1.289e-07
1.28897e-07
1.28889e-07
1.28907e-07
1.2891e-07
1.28914e-07
1.28924e-07
1.28923e-07
1.28925e-07
1.2893e-07
1.28923e-07
1.28923e-07
1.28923e-07
1.28925e-07
1.28921e-07
1.28922e-07
1.28945e-07
1.28945e-07
1.28928e-07
1.28931e-07
1.28964e-07
1.28973e-07
1.28949e-07
1.28963e-07
1.28983e-07
1.28993e-07
1.29022e-07
1.29029e-07
1.29016e-07
1.29019e-07
1.29023e-07
1.29024e-07
1.29047e-07
1.29066e-07
1.29073e-07
1.29088e-07
1.29084e-07
1.29099e-07
1.29123e-07
1.29144e-07
1.29168e-07
1.29206e-07
1.29229e-07
1.29269e-07
1.29303e-07
1.2936e-07
1.294e-07
1.29484e-07
1.29536e-07
1.29711e-07
1.29734e-07
1.30971e-07
1.36002e-07
3.25927e-08
1.24029e-07
1.24571e-07
1.253e-07
1.25889e-07
1.26344e-07
1.26701e-07
1.26989e-07
1.27225e-07
1.27423e-07
1.27591e-07
1.27735e-07
1.27858e-07
1.27967e-07
1.28061e-07
1.28145e-07
1.28219e-07
1.28285e-07
1.28342e-07
1.28397e-07
1.28444e-07
1.28487e-07
1.28525e-07
1.28561e-07
1.28592e-07
1.28621e-07
1.28646e-07
1.28672e-07
1.28693e-07
1.28714e-07
1.28733e-07
1.28751e-07
1.28768e-07
1.28776e-07
1.28787e-07
1.28806e-07
1.28819e-07
1.28826e-07
1.28834e-07
1.28849e-07
1.28857e-07
1.28855e-07
1.28864e-07
1.28886e-07
1.28884e-07
1.28876e-07
1.28893e-07
1.28897e-07
1.28901e-07
1.28911e-07
1.28911e-07
1.28912e-07
1.28917e-07
1.28911e-07
1.28911e-07
1.28911e-07
1.28913e-07
1.28909e-07
1.28909e-07
1.28933e-07
1.28934e-07
1.28916e-07
1.28919e-07
1.28952e-07
1.28961e-07
1.28938e-07
1.28951e-07
1.28972e-07
1.28982e-07
1.29011e-07
1.29018e-07
1.29005e-07
1.29008e-07
1.29012e-07
1.29014e-07
1.29036e-07
1.29055e-07
1.29062e-07
1.29078e-07
1.29074e-07
1.29089e-07
1.29113e-07
1.29134e-07
1.29159e-07
1.29196e-07
1.29219e-07
1.29259e-07
1.29294e-07
1.2935e-07
1.2939e-07
1.29475e-07
1.29526e-07
1.29702e-07
1.29724e-07
1.30994e-07
1.36027e-07
3.40818e-08
1.24025e-07
1.24557e-07
1.25281e-07
1.25869e-07
1.26323e-07
1.26679e-07
1.26968e-07
1.27204e-07
1.27403e-07
1.27571e-07
1.27715e-07
1.27839e-07
1.27948e-07
1.28042e-07
1.28127e-07
1.282e-07
1.28267e-07
1.28324e-07
1.28379e-07
1.28426e-07
1.2847e-07
1.28508e-07
1.28544e-07
1.28575e-07
1.28604e-07
1.2863e-07
1.28656e-07
1.28677e-07
1.28698e-07
1.28717e-07
1.28736e-07
1.28752e-07
1.2876e-07
1.28772e-07
1.2879e-07
1.28804e-07
1.28811e-07
1.28819e-07
1.28835e-07
1.28842e-07
1.28841e-07
1.2885e-07
1.28872e-07
1.2887e-07
1.28861e-07
1.28879e-07
1.28883e-07
1.28887e-07
1.28897e-07
1.28897e-07
1.28899e-07
1.28903e-07
1.28897e-07
1.28897e-07
1.28897e-07
1.289e-07
1.28896e-07
1.28896e-07
1.2892e-07
1.28921e-07
1.28903e-07
1.28906e-07
1.28939e-07
1.28949e-07
1.28926e-07
1.28939e-07
1.28959e-07
1.2897e-07
1.28999e-07
1.29006e-07
1.28994e-07
1.28997e-07
1.29001e-07
1.29002e-07
1.29025e-07
1.29044e-07
1.29051e-07
1.29067e-07
1.29064e-07
1.29078e-07
1.29102e-07
1.29123e-07
1.29148e-07
1.29185e-07
1.29209e-07
1.29249e-07
1.29283e-07
1.2934e-07
1.2938e-07
1.29465e-07
1.29516e-07
1.29692e-07
1.29712e-07
1.31019e-07
1.36052e-07
3.56429e-08
1.24022e-07
1.24543e-07
1.25261e-07
1.25847e-07
1.263e-07
1.26657e-07
1.26945e-07
1.27182e-07
1.27381e-07
1.27549e-07
1.27694e-07
1.27818e-07
1.27927e-07
1.28022e-07
1.28107e-07
1.28181e-07
1.28247e-07
1.28305e-07
1.2836e-07
1.28407e-07
1.28451e-07
1.2849e-07
1.28526e-07
1.28557e-07
1.28586e-07
1.28612e-07
1.28638e-07
1.2866e-07
1.28681e-07
1.287e-07
1.28719e-07
1.28736e-07
1.28744e-07
1.28756e-07
1.28774e-07
1.28787e-07
1.28795e-07
1.28803e-07
1.28819e-07
1.28826e-07
1.28825e-07
1.28834e-07
1.28856e-07
1.28855e-07
1.28846e-07
1.28864e-07
1.28868e-07
1.28872e-07
1.28882e-07
1.28882e-07
1.28884e-07
1.28889e-07
1.28883e-07
1.28883e-07
1.28883e-07
1.28885e-07
1.28882e-07
1.28882e-07
1.28906e-07
1.28906e-07
1.28889e-07
1.28892e-07
1.28925e-07
1.28935e-07
1.28913e-07
1.28926e-07
1.28946e-07
1.28956e-07
1.28985e-07
1.28993e-07
1.28981e-07
1.28984e-07
1.28989e-07
1.2899e-07
1.29013e-07
1.29032e-07
1.29039e-07
1.29055e-07
1.29052e-07
1.29066e-07
1.2909e-07
1.29111e-07
1.29136e-07
1.29174e-07
1.29197e-07
1.29238e-07
1.29272e-07
1.29329e-07
1.29369e-07
1.29454e-07
1.29505e-07
1.29681e-07
1.29699e-07
1.31047e-07
1.36078e-07
3.72798e-08
1.24018e-07
1.24527e-07
1.2524e-07
1.25823e-07
1.26276e-07
1.26632e-07
1.2692e-07
1.27157e-07
1.27357e-07
1.27525e-07
1.2767e-07
1.27795e-07
1.27905e-07
1.27999e-07
1.28085e-07
1.28159e-07
1.28226e-07
1.28284e-07
1.28339e-07
1.28387e-07
1.28431e-07
1.2847e-07
1.28506e-07
1.28538e-07
1.28567e-07
1.28593e-07
1.28619e-07
1.28641e-07
1.28662e-07
1.28681e-07
1.287e-07
1.28717e-07
1.28726e-07
1.28738e-07
1.28756e-07
1.2877e-07
1.28778e-07
1.28786e-07
1.28802e-07
1.28809e-07
1.28808e-07
1.28818e-07
1.28839e-07
1.28838e-07
1.28829e-07
1.28847e-07
1.28851e-07
1.28856e-07
1.28865e-07
1.28866e-07
1.28868e-07
1.28873e-07
1.28867e-07
1.28867e-07
1.28867e-07
1.2887e-07
1.28867e-07
1.28866e-07
1.2889e-07
1.28891e-07
1.28874e-07
1.28877e-07
1.2891e-07
1.2892e-07
1.28898e-07
1.28912e-07
1.28931e-07
1.28942e-07
1.28971e-07
1.28979e-07
1.28967e-07
1.2897e-07
1.28975e-07
1.28976e-07
1.28999e-07
1.29018e-07
1.29026e-07
1.29042e-07
1.29039e-07
1.29054e-07
1.29078e-07
1.29099e-07
1.29123e-07
1.29161e-07
1.29185e-07
1.29226e-07
1.2926e-07
1.29317e-07
1.29357e-07
1.29442e-07
1.29493e-07
1.2967e-07
1.29686e-07
1.31077e-07
1.36105e-07
3.89965e-08
1.24014e-07
1.2451e-07
1.25217e-07
1.25798e-07
1.26249e-07
1.26605e-07
1.26894e-07
1.27131e-07
1.27331e-07
1.27499e-07
1.27645e-07
1.2777e-07
1.2788e-07
1.27975e-07
1.28061e-07
1.28136e-07
1.28203e-07
1.28261e-07
1.28317e-07
1.28365e-07
1.28409e-07
1.28448e-07
1.28485e-07
1.28517e-07
1.28546e-07
1.28573e-07
1.28599e-07
1.28621e-07
1.28642e-07
1.28661e-07
1.28681e-07
1.28698e-07
1.28707e-07
1.28719e-07
1.28737e-07
1.28751e-07
1.28759e-07
1.28767e-07
1.28783e-07
1.28791e-07
1.2879e-07
1.28799e-07
1.28821e-07
1.2882e-07
1.28811e-07
1.28829e-07
1.28834e-07
1.28838e-07
1.28848e-07
1.28848e-07
1.28851e-07
1.28856e-07
1.2885e-07
1.2885e-07
1.2885e-07
1.28853e-07
1.2885e-07
1.2885e-07
1.28874e-07
1.28875e-07
1.28857e-07
1.28861e-07
1.28894e-07
1.28904e-07
1.28883e-07
1.28896e-07
1.28916e-07
1.28926e-07
1.28955e-07
1.28963e-07
1.28953e-07
1.28956e-07
1.28961e-07
1.28962e-07
1.28985e-07
1.29004e-07
1.29011e-07
1.29028e-07
1.29026e-07
1.2904e-07
1.29064e-07
1.29085e-07
1.2911e-07
1.29148e-07
1.29172e-07
1.29213e-07
1.29247e-07
1.29305e-07
1.29345e-07
1.29429e-07
1.2948e-07
1.29658e-07
1.29671e-07
1.3111e-07
1.36133e-07
4.0797e-08
1.24009e-07
1.24492e-07
1.25192e-07
1.2577e-07
1.26221e-07
1.26577e-07
1.26866e-07
1.27103e-07
1.27303e-07
1.27472e-07
1.27618e-07
1.27744e-07
1.27854e-07
1.2795e-07
1.28036e-07
1.28111e-07
1.28179e-07
1.28237e-07
1.28293e-07
1.28341e-07
1.28386e-07
1.28425e-07
1.28462e-07
1.28494e-07
1.28524e-07
1.28551e-07
1.28577e-07
1.28599e-07
1.28621e-07
1.2864e-07
1.2866e-07
1.28677e-07
1.28686e-07
1.28698e-07
1.28717e-07
1.28731e-07
1.28739e-07
1.28747e-07
1.28763e-07
1.28771e-07
1.28771e-07
1.2878e-07
1.28802e-07
1.28801e-07
1.28792e-07
1.2881e-07
1.28815e-07
1.28819e-07
1.28829e-07
1.2883e-07
1.28832e-07
1.28837e-07
1.28832e-07
1.28832e-07
1.28832e-07
1.28835e-07
1.28833e-07
1.28832e-07
1.28856e-07
1.28857e-07
1.2884e-07
1.28844e-07
1.28877e-07
1.28887e-07
1.28867e-07
1.2888e-07
1.28899e-07
1.28909e-07
1.28939e-07
1.28947e-07
1.28937e-07
1.2894e-07
1.28945e-07
1.28946e-07
1.2897e-07
1.28989e-07
1.28996e-07
1.29013e-07
1.29011e-07
1.29025e-07
1.29049e-07
1.29071e-07
1.29095e-07
1.29134e-07
1.29158e-07
1.29199e-07
1.29233e-07
1.29291e-07
1.29331e-07
1.29415e-07
1.29466e-07
1.29644e-07
1.29656e-07
1.31146e-07
1.36163e-07
4.26854e-08
1.24005e-07
1.24473e-07
1.25166e-07
1.25741e-07
1.26191e-07
1.26547e-07
1.26835e-07
1.27073e-07
1.27274e-07
1.27443e-07
1.2759e-07
1.27715e-07
1.27826e-07
1.27922e-07
1.28009e-07
1.28084e-07
1.28152e-07
1.28211e-07
1.28267e-07
1.28316e-07
1.28361e-07
1.284e-07
1.28438e-07
1.2847e-07
1.285e-07
1.28527e-07
1.28554e-07
1.28576e-07
1.28598e-07
1.28618e-07
1.28637e-07
1.28655e-07
1.28664e-07
1.28676e-07
1.28695e-07
1.28709e-07
1.28718e-07
1.28726e-07
1.28742e-07
1.2875e-07
1.2875e-07
1.28759e-07
1.28781e-07
1.28781e-07
1.28771e-07
1.28789e-07
1.28794e-07
1.28799e-07
1.28809e-07
1.2881e-07
1.28813e-07
1.28817e-07
1.28813e-07
1.28813e-07
1.28813e-07
1.28816e-07
1.28814e-07
1.28813e-07
1.28837e-07
1.28839e-07
1.28821e-07
1.28825e-07
1.28858e-07
1.28869e-07
1.2885e-07
1.28862e-07
1.28881e-07
1.28892e-07
1.28921e-07
1.2893e-07
1.2892e-07
1.28923e-07
1.28929e-07
1.2893e-07
1.28953e-07
1.28972e-07
1.2898e-07
1.28997e-07
1.28996e-07
1.2901e-07
1.29033e-07
1.29056e-07
1.2908e-07
1.29118e-07
1.29143e-07
1.29184e-07
1.29218e-07
1.29276e-07
1.29316e-07
1.29401e-07
1.29451e-07
1.2963e-07
1.29639e-07
1.31183e-07
1.36192e-07
4.46657e-08
1.24e-07
1.24453e-07
1.25138e-07
1.2571e-07
1.26159e-07
1.26514e-07
1.26803e-07
1.27041e-07
1.27242e-07
1.27412e-07
1.27559e-07
1.27685e-07
1.27797e-07
1.27893e-07
1.2798e-07
1.28056e-07
1.28124e-07
1.28184e-07
1.2824e-07
1.28289e-07
1.28334e-07
1.28374e-07
1.28412e-07
1.28444e-07
1.28475e-07
1.28502e-07
1.28529e-07
1.28551e-07
1.28574e-07
1.28593e-07
1.28613e-07
1.28631e-07
1.28641e-07
1.28653e-07
1.28672e-07
1.28686e-07
1.28695e-07
1.28703e-07
1.28719e-07
1.28728e-07
1.28728e-07
1.28737e-07
1.28759e-07
1.28759e-07
1.2875e-07
1.28767e-07
1.28773e-07
1.28777e-07
1.28787e-07
1.28789e-07
1.28792e-07
1.28797e-07
1.28792e-07
1.28792e-07
1.28792e-07
1.28796e-07
1.28794e-07
1.28793e-07
1.28817e-07
1.28819e-07
1.28801e-07
1.28805e-07
1.28839e-07
1.2885e-07
1.28831e-07
1.28843e-07
1.28862e-07
1.28873e-07
1.28902e-07
1.28911e-07
1.28902e-07
1.28905e-07
1.28911e-07
1.28912e-07
1.28936e-07
1.28955e-07
1.28963e-07
1.2898e-07
1.28979e-07
1.28993e-07
1.29017e-07
1.29039e-07
1.29063e-07
1.29102e-07
1.29126e-07
1.29168e-07
1.29202e-07
1.2926e-07
1.293e-07
1.29385e-07
1.29435e-07
1.29615e-07
1.29621e-07
1.31223e-07
1.36223e-07
4.67421e-08
1.23995e-07
1.24432e-07
1.25109e-07
1.25678e-07
1.26125e-07
1.2648e-07
1.26769e-07
1.27007e-07
1.27208e-07
1.27378e-07
1.27526e-07
1.27653e-07
1.27765e-07
1.27862e-07
1.27949e-07
1.28025e-07
1.28094e-07
1.28154e-07
1.28211e-07
1.2826e-07
1.28306e-07
1.28346e-07
1.28384e-07
1.28417e-07
1.28448e-07
1.28475e-07
1.28502e-07
1.28525e-07
1.28548e-07
1.28568e-07
1.28588e-07
1.28606e-07
1.28616e-07
1.28628e-07
1.28647e-07
1.28661e-07
1.28671e-07
1.28679e-07
1.28695e-07
1.28704e-07
1.28705e-07
1.28714e-07
1.28735e-07
1.28736e-07
1.28726e-07
1.28744e-07
1.2875e-07
1.28754e-07
1.28764e-07
1.28766e-07
1.2877e-07
1.28774e-07
1.2877e-07
1.2877e-07
1.28771e-07
1.28774e-07
1.28772e-07
1.28771e-07
1.28796e-07
1.28798e-07
1.2878e-07
1.28785e-07
1.28818e-07
1.28829e-07
1.28811e-07
1.28823e-07
1.28842e-07
1.28852e-07
1.28882e-07
1.28891e-07
1.28883e-07
1.28886e-07
1.28892e-07
1.28894e-07
1.28917e-07
1.28936e-07
1.28944e-07
1.28962e-07
1.28961e-07
1.28976e-07
1.28999e-07
1.29022e-07
1.29046e-07
1.29084e-07
1.29109e-07
1.29151e-07
1.29185e-07
1.29244e-07
1.29283e-07
1.29368e-07
1.29418e-07
1.29599e-07
1.29602e-07
1.31265e-07
1.36254e-07
4.89182e-08
1.2399e-07
1.2441e-07
1.25078e-07
1.25643e-07
1.26089e-07
1.26443e-07
1.26732e-07
1.26971e-07
1.27173e-07
1.27343e-07
1.27492e-07
1.27619e-07
1.27731e-07
1.27829e-07
1.27917e-07
1.27993e-07
1.28063e-07
1.28123e-07
1.2818e-07
1.2823e-07
1.28276e-07
1.28317e-07
1.28355e-07
1.28388e-07
1.28419e-07
1.28447e-07
1.28474e-07
1.28497e-07
1.2852e-07
1.2854e-07
1.2856e-07
1.28579e-07
1.28589e-07
1.28602e-07
1.28621e-07
1.28635e-07
1.28645e-07
1.28654e-07
1.2867e-07
1.28679e-07
1.2868e-07
1.28689e-07
1.2871e-07
1.28711e-07
1.28702e-07
1.2872e-07
1.28725e-07
1.2873e-07
1.2874e-07
1.28742e-07
1.28746e-07
1.28751e-07
1.28747e-07
1.28747e-07
1.28748e-07
1.28751e-07
1.28749e-07
1.28748e-07
1.28773e-07
1.28775e-07
1.28758e-07
1.28762e-07
1.28795e-07
1.28808e-07
1.2879e-07
1.28802e-07
1.2882e-07
1.28831e-07
1.28861e-07
1.2887e-07
1.28863e-07
1.28866e-07
1.28873e-07
1.28874e-07
1.28897e-07
1.28917e-07
1.28925e-07
1.28943e-07
1.28943e-07
1.28957e-07
1.2898e-07
1.29003e-07
1.29027e-07
1.29066e-07
1.29091e-07
1.29133e-07
1.29167e-07
1.29226e-07
1.29266e-07
1.2935e-07
1.294e-07
1.29581e-07
1.29582e-07
1.31308e-07
1.36286e-07
5.11974e-08
1.23985e-07
1.24387e-07
1.25045e-07
1.25606e-07
1.26051e-07
1.26405e-07
1.26694e-07
1.26933e-07
1.27135e-07
1.27306e-07
1.27455e-07
1.27582e-07
1.27696e-07
1.27794e-07
1.27882e-07
1.27959e-07
1.28029e-07
1.2809e-07
1.28148e-07
1.28198e-07
1.28244e-07
1.28285e-07
1.28324e-07
1.28357e-07
1.28389e-07
1.28417e-07
1.28445e-07
1.28468e-07
1.28491e-07
1.28511e-07
1.28532e-07
1.2855e-07
1.28561e-07
1.28574e-07
1.28593e-07
1.28608e-07
1.28618e-07
1.28626e-07
1.28643e-07
1.28652e-07
1.28654e-07
1.28662e-07
1.28684e-07
1.28685e-07
1.28676e-07
1.28693e-07
1.28699e-07
1.28704e-07
1.28715e-07
1.28717e-07
1.28721e-07
1.28726e-07
1.28722e-07
1.28722e-07
1.28723e-07
1.28726e-07
1.28725e-07
1.28724e-07
1.28749e-07
1.28751e-07
1.28734e-07
1.28739e-07
1.28772e-07
1.28784e-07
1.28768e-07
1.2878e-07
1.28798e-07
1.28808e-07
1.28838e-07
1.28848e-07
1.28841e-07
1.28844e-07
1.28851e-07
1.28853e-07
1.28877e-07
1.28896e-07
1.28904e-07
1.28922e-07
1.28923e-07
1.28937e-07
1.2896e-07
1.28983e-07
1.29007e-07
1.29046e-07
1.29071e-07
1.29113e-07
1.29147e-07
1.29207e-07
1.29247e-07
1.29331e-07
1.29381e-07
1.29562e-07
1.29561e-07
1.31352e-07
1.36317e-07
5.35826e-08
1.23979e-07
1.24363e-07
1.25011e-07
1.25568e-07
1.26011e-07
1.26364e-07
1.26653e-07
1.26892e-07
1.27095e-07
1.27267e-07
1.27416e-07
1.27544e-07
1.27658e-07
1.27756e-07
1.27846e-07
1.27923e-07
1.27994e-07
1.28055e-07
1.28113e-07
1.28164e-07
1.28211e-07
1.28252e-07
1.28291e-07
1.28325e-07
1.28357e-07
1.28385e-07
1.28413e-07
1.28437e-07
1.2846e-07
1.28481e-07
1.28501e-07
1.2852e-07
1.28531e-07
1.28544e-07
1.28563e-07
1.28579e-07
1.28589e-07
1.28598e-07
1.28614e-07
1.28624e-07
1.28626e-07
1.28634e-07
1.28656e-07
1.28657e-07
1.28648e-07
1.28666e-07
1.28672e-07
1.28677e-07
1.28688e-07
1.2869e-07
1.28695e-07
1.28699e-07
1.28696e-07
1.28696e-07
1.28697e-07
1.28701e-07
1.287e-07
1.28699e-07
1.28724e-07
1.28726e-07
1.28709e-07
1.28714e-07
1.28747e-07
1.2876e-07
1.28744e-07
1.28756e-07
1.28774e-07
1.28784e-07
1.28814e-07
1.28824e-07
1.28819e-07
1.28821e-07
1.28829e-07
1.2883e-07
1.28854e-07
1.28873e-07
1.28882e-07
1.28901e-07
1.28902e-07
1.28916e-07
1.28939e-07
1.28962e-07
1.28986e-07
1.29025e-07
1.2905e-07
1.29093e-07
1.29127e-07
1.29186e-07
1.29226e-07
1.29311e-07
1.29361e-07
1.29542e-07
1.29539e-07
1.31398e-07
1.36349e-07
5.60757e-08
1.23974e-07
1.24338e-07
1.24975e-07
1.25528e-07
1.25969e-07
1.26322e-07
1.26611e-07
1.2685e-07
1.27053e-07
1.27225e-07
1.27375e-07
1.27504e-07
1.27618e-07
1.27717e-07
1.27807e-07
1.27885e-07
1.27956e-07
1.28018e-07
1.28077e-07
1.28128e-07
1.28175e-07
1.28217e-07
1.28256e-07
1.28291e-07
1.28323e-07
1.28351e-07
1.2838e-07
1.28404e-07
1.28428e-07
1.28448e-07
1.28469e-07
1.28489e-07
1.285e-07
1.28513e-07
1.28532e-07
1.28548e-07
1.28558e-07
1.28567e-07
1.28584e-07
1.28594e-07
1.28596e-07
1.28605e-07
1.28627e-07
1.28628e-07
1.28619e-07
1.28637e-07
1.28643e-07
1.28649e-07
1.28659e-07
1.28662e-07
1.28667e-07
1.28671e-07
1.28669e-07
1.28669e-07
1.2867e-07
1.28674e-07
1.28673e-07
1.28672e-07
1.28697e-07
1.287e-07
1.28682e-07
1.28688e-07
1.2872e-07
1.28734e-07
1.2872e-07
1.28731e-07
1.28748e-07
1.28759e-07
1.28789e-07
1.288e-07
1.28795e-07
1.28797e-07
1.28806e-07
1.28807e-07
1.28831e-07
1.2885e-07
1.28859e-07
1.28878e-07
1.28879e-07
1.28893e-07
1.28916e-07
1.2894e-07
1.28964e-07
1.29003e-07
1.29028e-07
1.29071e-07
1.29105e-07
1.29165e-07
1.29205e-07
1.2929e-07
1.29339e-07
1.29521e-07
1.29515e-07
1.31444e-07
1.36379e-07
5.86776e-08
1.23968e-07
1.24312e-07
1.24938e-07
1.25486e-07
1.25925e-07
1.26277e-07
1.26566e-07
1.26805e-07
1.27009e-07
1.27182e-07
1.27332e-07
1.27461e-07
1.27577e-07
1.27676e-07
1.27767e-07
1.27845e-07
1.27917e-07
1.27979e-07
1.28038e-07
1.2809e-07
1.28138e-07
1.2818e-07
1.2822e-07
1.28255e-07
1.28287e-07
1.28316e-07
1.28345e-07
1.28369e-07
1.28393e-07
1.28414e-07
1.28436e-07
1.28455e-07
1.28467e-07
1.2848e-07
1.285e-07
1.28515e-07
1.28526e-07
1.28536e-07
1.28552e-07
1.28563e-07
1.28565e-07
1.28574e-07
1.28596e-07
1.28598e-07
1.28589e-07
1.28606e-07
1.28613e-07
1.28618e-07
1.28629e-07
1.28632e-07
1.28637e-07