/*--------------------------------*- C++ -*----------------------------------*\
| =========                 |                                                 |
| \\      /  F ield         | OpenFOAM: The Open Source CFD Toolbox           |
|  \\    /   O peration     | Version:  v2012                                 |
|   \\  /    A nd           | Website:  www.openfoam.com                      |
|    \\/     M anipulation  |                                                 |
\*---------------------------------------------------------------------------*/
FoamFile
{
    version     2.0;
    format      ascii;
    class       volScalarField;
    location    "13";
    object      omega;
}
// * * * * * * * * * * * * * * * * * * * * * * * * * * * * * * * * * * * * * //

dimensions      [0 0 -1 0 0 0 0];


internalField   nonuniform List<scalar> 
209825
(
8224.19
7701.67
7414.2
7242.75
7130
7050.91
6992.33
6947.75
6912.61
6884.65
6861.72
6842.96
6827.14
6813.94
6802.56
6792.95
6784.49
6777.3
6770.86
6765.37
6760.35
6756.05
6752.12
6748.82
6745.61
6742.88
6740.35
6738.27
6736.14
6734.39
6732.7
6731.33
6729.98
6728.95
6727.71
6726.78
6725.91
6725.3
6724.36
6723.79
6723.31
6722.87
6721.74
6721.86
6721.86
6721.85
6721.77
6721.59
6721.08
6721.17
6721.04
6721.97
6722.38
6722.38
6722.37
6723.37
6724.25
6724.45
6724.45
6724.44
6725.34
6726.08
6726.08
6726.74
6728.19
6728.19
6728.19
6729.29
6729.29
6730.41
6731.82
6733.02
6734.39
6735.89
6735.89
6737.06
6738.46
6739.51
6741.22
6742.82
6743.73
6745.64
6746.89
6748.74
6750.37
6752.92
6754.6
6757.96
6759.82
6764.39
6766.62
6774.6
6775.38
6820.8
7024.01
116015
8224.19
7701.63
7414.11
7242.62
7129.85
7050.73
6992.13
6947.54
6912.39
6884.42
6861.49
6842.72
6826.89
6813.69
6802.3
6792.69
6784.23
6777.04
6770.59
6765.1
6760.08
6755.77
6751.84
6748.54
6745.33
6742.6
6740.07
6737.99
6735.86
6734.1
6732.42
6731.04
6729.69
6728.66
6727.42
6726.49
6725.62
6725.01
6724.07
6723.5
6723.02
6722.58
6721.45
6721.57
6721.57
6721.55
6721.48
6721.29
6720.79
6720.88
6720.75
6721.67
6722.08
6722.08
6722.08
6723.08
6723.95
6724.15
6724.15
6724.15
6725.05
6725.79
6725.79
6726.44
6727.89
6727.9
6727.89
6728.99
6728.99
6730.11
6731.52
6732.73
6734.09
6735.6
6735.6
6736.76
6738.17
6739.21
6740.92
6742.53
6743.43
6745.34
6746.59
6748.44
6750.08
6752.63
6754.3
6757.67
6759.53
6764.1
6766.32
6774.31
6775.09
6820.59
7023.88
112720
8224.19
7701.46
7413.78
7242.16
7129.3
7050.11
6991.46
6946.82
6911.64
6883.64
6860.68
6841.9
6826.05
6812.84
6801.44
6791.81
6783.34
6776.14
6769.68
6764.19
6759.16
6754.85
6750.91
6747.61
6744.39
6741.66
6739.12
6737.04
6734.91
6733.15
6731.46
6730.09
6728.73
6727.7
6726.46
6725.53
6724.65
6724.05
6723.1
6722.53
6722.05
6721.61
6720.48
6720.6
6720.6
6720.58
6720.5
6720.32
6719.81
6719.9
6719.77
6720.69
6721.1
6721.1
6721.1
6722.09
6722.97
6723.17
6723.17
6723.17
6724.06
6724.8
6724.8
6725.46
6726.91
6726.91
6726.91
6728.01
6728.01
6729.13
6730.53
6731.74
6733.11
6734.61
6734.61
6735.78
6737.18
6738.22
6739.94
6741.54
6742.45
6744.36
6745.61
6747.46
6749.09
6751.64
6753.32
6756.68
6758.54
6763.11
6765.34
6773.32
6774.09
6819.77
7023.22
108939
8224.2
7701.17
7413.2
7241.37
7128.34
7049.04
6990.3
6945.59
6910.34
6882.29
6859.3
6840.48
6824.61
6811.37
6799.94
6790.3
6781.81
6774.6
6768.13
6762.62
6757.58
6753.26
6749.32
6746.01
6742.79
6740.05
6737.5
6735.42
6733.28
6731.52
6729.83
6728.44
6727.09
6726.05
6724.81
6723.87
6723
6722.39
6721.44
6720.87
6720.38
6719.95
6718.81
6718.93
6718.93
6718.91
6718.83
6718.64
6718.14
6718.22
6718.09
6719.01
6719.42
6719.42
6719.41
6720.41
6721.29
6721.48
6721.48
6721.48
6722.38
6723.12
6723.12
6723.77
6725.22
6725.22
6725.22
6726.32
6726.32
6727.44
6728.84
6730.05
6731.42
6732.92
6732.92
6734.09
6735.49
6736.54
6738.25
6739.85
6740.76
6742.67
6743.92
6745.77
6747.41
6749.96
6751.63
6754.99
6756.85
6761.42
6763.65
6771.63
6772.39
6818.35
7022
105053
8224.2
7700.76
7412.37
7240.23
7126.98
7047.51
6988.64
6943.82
6908.5
6880.38
6857.33
6838.46
6822.55
6809.27
6797.82
6788.15
6779.64
6772.4
6765.92
6760.39
6755.34
6751.01
6747.05
6743.73
6740.5
6737.75
6735.2
6733.1
6730.96
6729.19
6727.49
6726.11
6724.74
6723.7
6722.46
6721.52
6720.64
6720.02
6719.08
6718.5
6718.01
6717.57
6716.44
6716.55
6716.55
6716.52
6716.44
6716.26
6715.75
6715.83
6715.7
6716.62
6717.02
6717.02
6717.02
6718.01
6718.89
6719.08
6719.08
6719.08
6719.98
6720.71
6720.71
6721.36
6722.81
6722.82
6722.82
6723.91
6723.92
6725.03
6726.44
6727.65
6729
6730.51
6730.52
6731.68
6733.09
6734.13
6735.84
6737.45
6738.35
6740.26
6741.51
6743.37
6745
6747.55
6749.22
6752.59
6754.45
6759.01
6761.24
6769.22
6769.95
6816.3
7020.2
101166
8224.2
7700.22
7411.3
7238.75
7125.21
7045.52
6986.47
6941.53
6906.09
6877.88
6854.76
6835.83
6819.86
6806.54
6795.05
6785.34
6776.8
6769.54
6763.03
6757.48
6752.41
6748.06
6744.09
6740.75
6737.51
6734.75
6732.19
6730.08
6727.93
6726.15
6724.45
6723.06
6721.69
6720.64
6719.39
6718.45
6717.56
6716.94
6715.99
6715.41
6714.92
6714.48
6713.34
6713.45
6713.44
6713.42
6713.33
6713.15
6712.64
6712.72
6712.58
6713.5
6713.89
6713.89
6713.89
6714.88
6715.75
6715.95
6715.95
6715.94
6716.84
6717.58
6717.58
6718.23
6719.68
6719.68
6719.68
6720.78
6720.78
6721.89
6723.29
6724.51
6725.86
6727.37
6727.38
6728.54
6729.95
6730.99
6732.69
6734.31
6735.21
6737.13
6738.37
6740.23
6741.86
6744.41
6746.09
6749.45
6751.31
6755.87
6758.09
6766.07
6766.78
6813.62
7017.76
97317
8224.2
7699.55
7409.97
7236.93
7123.02
7043.05
6983.8
6938.68
6903.11
6874.79
6851.58
6832.57
6816.53
6803.15
6791.61
6781.86
6773.29
6765.99
6759.45
6753.88
6748.78
6744.41
6740.42
6737.07
6733.81
6731.03
6728.46
6726.35
6724.18
6722.4
6720.68
6719.28
6717.9
6716.85
6715.59
6714.64
6713.75
6713.13
6712.17
6711.59
6711.09
6710.65
6709.51
6709.61
6709.6
6709.57
6709.48
6709.3
6708.79
6708.86
6708.71
6709.63
6710.02
6710.02
6710.01
6711.01
6711.88
6712.07
6712.07
6712.06
6712.96
6713.69
6713.69
6714.34
6715.79
6715.8
6715.8
6716.89
6716.89
6718.01
6719.4
6720.62
6721.97
6723.49
6723.49
6724.65
6726.06
6727.11
6728.8
6730.42
6731.33
6733.24
6734.49
6736.35
6737.97
6740.53
6742.2
6745.56
6747.42
6751.98
6754.2
6762.17
6762.85
6810.29
7014.6
93526.2
8224.21
7698.75
7408.39
7234.75
7120.4
7040.11
6980.6
6935.28
6899.55
6871.1
6847.77
6828.67
6812.56
6799.11
6787.51
6777.71
6769.09
6761.75
6755.18
6749.57
6744.45
6740.05
6736.04
6732.67
6729.39
6726.6
6724
6721.88
6719.7
6717.9
6716.18
6714.76
6713.38
6712.32
6711.05
6710.09
6709.19
6708.56
6707.61
6707.02
6706.51
6706.06
6704.92
6705.01
6705
6704.97
6704.88
6704.69
6704.18
6704.25
6704.09
6705.01
6705.39
6705.39
6705.38
6706.37
6707.24
6707.43
6707.43
6707.42
6708.32
6709.05
6709.05
6709.7
6711.15
6711.15
6711.15
6712.24
6712.25
6713.36
6714.75
6715.97
6717.31
6718.84
6718.84
6720
6721.41
6722.46
6724.15
6725.77
6726.68
6728.59
6729.84
6731.7
6733.33
6735.88
6737.55
6740.91
6742.77
6747.33
6749.54
6757.51
6758.15
6806.33
7010.67
89802
8224.22
7697.83
7406.55
7232.21
7117.35
7036.68
6976.87
6931.32
6895.4
6866.8
6843.34
6824.13
6807.92
6794.4
6782.73
6772.86
6764.19
6756.81
6750.19
6744.55
6739.39
6734.97
6730.93
6727.53
6724.23
6721.42
6718.81
6716.66
6714.47
6712.66
6710.92
6709.5
6708.1
6707.03
6705.75
6704.78
6703.88
6703.24
6702.28
6701.68
6701.16
6700.72
6699.57
6699.65
6699.64
6699.6
6699.5
6699.31
6698.81
6698.86
6698.7
6699.61
6699.99
6699.99
6699.98
6700.96
6701.83
6702.02
6702.02
6702.01
6702.91
6703.63
6703.63
6704.28
6705.73
6705.73
6705.73
6706.82
6706.82
6707.94
6709.32
6710.54
6711.88
6713.41
6713.41
6714.57
6715.98
6717.03
6718.72
6720.35
6721.26
6723.17
6724.42
6726.28
6727.9
6730.46
6732.12
6735.49
6737.34
6741.89
6744.1
6752.07
6752.67
6801.7
7005.98
86147
8224.23
7696.79
7404.45
7229.31
7113.87
7032.75
6972.61
6926.79
6890.65
6861.87
6838.27
6818.93
6802.61
6789
6777.25
6767.32
6758.58
6751.15
6744.48
6738.8
6733.6
6729.14
6725.07
6721.65
6718.32
6715.48
6712.85
6710.69
6708.48
6706.65
6704.9
6703.46
6702.05
6700.96
6699.68
6698.7
6697.79
6697.14
6696.17
6695.57
6695.04
6694.59
6693.45
6693.51
6693.5
6693.45
6693.35
6693.16
6692.65
6692.69
6692.52
6693.43
6693.8
6693.8
6693.79
6694.77
6695.63
6695.81
6695.82
6695.81
6696.71
6697.42
6697.42
6698.07
6699.52
6699.52
6699.52
6700.61
6700.61
6701.72
6703.1
6704.33
6705.65
6707.19
6707.2
6708.36
6709.76
6710.82
6712.49
6714.13
6715.04
6716.95
6718.21
6720.07
6721.68
6724.24
6725.91
6729.27
6731.12
6735.67
6737.87
6745.84
6746.39
6796.41
7000.51
82559.3
8224.25
7695.62
7402.09
7226.06
7109.95
7028.34
6967.81
6921.68
6885.3
6856.31
6832.54
6813.06
6796.62
6782.9
6771.06
6761.05
6752.25
6744.75
6738.03
6732.3
6727.06
6722.57
6718.46
6715
6711.65
6708.79
6706.13
6703.94
6701.71
6699.87
6698.1
6696.64
6695.22
6694.12
6692.82
6691.84
6690.91
6690.25
6689.27
6688.66
6688.13
6687.67
6686.52
6686.58
6686.56
6686.51
6686.39
6686.2
6685.69
6685.73
6685.55
6686.45
6686.81
6686.81
6686.79
6687.77
6688.63
6688.81
6688.81
6688.8
6689.7
6690.41
6690.41
6691.05
6692.5
6692.5
6692.5
6693.59
6693.59
6694.71
6696.08
6697.31
6698.62
6700.17
6700.17
6701.33
6702.74
6703.8
6705.46
6707.11
6708.02
6709.93
6711.18
6713.05
6714.66
6717.22
6718.88
6722.24
6724.09
6728.64
6730.83
6738.79
6739.29
6790.43
6994.24
79033.3
8224.27
7694.32
7399.48
7222.43
7105.59
7023.41
6962.45
6915.99
6879.33
6850.12
6826.15
6806.51
6789.94
6776.1
6764.16
6754.06
6745.18
6737.62
6730.84
6725.05
6719.76
6715.22
6711.07
6707.58
6704.2
6701.31
6698.62
6696.41
6694.16
6692.29
6690.5
6689.03
6687.59
6686.48
6685.17
6684.17
6683.23
6682.56
6681.57
6680.95
6680.41
6679.94
6678.8
6678.83
6678.81
6678.75
6678.63
6678.43
6677.93
6677.95
6677.76
6678.65
6679
6679
6678.99
6679.96
6680.81
6680.98
6680.99
6680.98
6681.88
6682.58
6682.58
6683.22
6684.67
6684.67
6684.67
6685.75
6685.75
6686.87
6688.23
6689.46
6690.77
6692.33
6692.33
6693.49
6694.89
6695.95
6697.61
6699.26
6700.18
6702.09
6703.34
6705.21
6706.82
6709.38
6711.04
6714.4
6716.25
6720.78
6722.97
6730.93
6731.36
6783.77
6987.17
75559.9
8224.3
7692.9
7396.6
7218.44
7100.77
7017.98
6956.54
6909.7
6872.73
6843.27
6819.09
6799.28
6782.55
6768.59
6756.53
6746.34
6737.37
6729.73
6722.88
6717.03
6711.69
6707.1
6702.91
6699.38
6695.96
6693.04
6690.32
6688.08
6685.81
6683.92
6682.11
6680.62
6679.15
6678.03
6676.7
6675.69
6674.73
6674.06
6673.06
6672.42
6671.87
6671.4
6670.25
6670.27
6670.24
6670.17
6670.04
6669.84
6669.34
6669.34
6669.14
6670.03
6670.37
6670.37
6670.35
6671.31
6672.17
6672.33
6672.33
6672.32
6673.22
6673.92
6673.91
6674.55
6676
6676
6676
6677.08
6677.08
6678.2
6679.55
6680.79
6682.08
6683.65
6683.65
6684.81
6686.21
6687.28
6688.93
6690.58
6691.5
6693.41
6694.67
6696.54
6698.14
6700.71
6702.36
6705.72
6707.56
6712.09
6714.27
6722.22
6722.59
6776.42
6979.28
72145.7
8224.33
7691.36
7393.47
7214.08
7095.51
7012.04
6950.07
6902.81
6865.5
6835.76
6811.36
6791.34
6774.45
6760.34
6748.16
6737.86
6728.8
6721.07
6714.15
6708.24
6702.84
6698.2
6693.95
6690.38
6686.92
6683.96
6681.21
6678.94
6676.64
6674.73
6672.89
6671.38
6669.89
6668.75
6667.41
6666.38
6665.41
6664.72
6663.71
6663.06
6662.49
6662.02
6660.87
6660.87
6660.83
6660.75
6660.61
6660.41
6659.91
6659.9
6659.68
6660.56
6660.89
6660.89
6660.86
6661.83
6662.67
6662.83
6662.83
6662.82
6663.72
6664.41
6664.4
6665.04
6666.48
6666.49
6666.49
6667.57
6667.57
6668.68
6670.03
6671.26
6672.55
6674.12
6674.12
6675.28
6676.68
6677.76
6679.39
6681.06
6681.98
6683.88
6685.15
6687.02
6688.61
6691.18
6692.83
6696.19
6698.03
6702.55
6704.72
6712.66
6712.97
6768.35
6970.56
68796.6
8224.37
7689.71
7390.08
7209.36
7089.79
7005.58
6943.03
6895.31
6857.64
6827.59
6802.93
6782.7
6765.63
6751.36
6739.05
6728.62
6719.46
6711.64
6704.63
6698.65
6693.19
6688.49
6684.19
6680.57
6677.06
6674.07
6671.28
6668.98
6666.65
6664.71
6662.84
6661.31
6659.8
6658.64
6657.28
6656.23
6655.24
6654.54
6653.52
6652.86
6652.27
6651.79
6650.64
6650.62
6650.56
6650.48
6650.33
6650.13
6649.63
6649.6
6649.36
6650.24
6650.55
6650.55
6650.53
6651.48
6652.32
6652.47
6652.47
6652.46
6653.36
6654.04
6654.03
6654.67
6656.11
6656.11
6656.11
6657.19
6657.19
6658.3
6659.63
6660.88
6662.15
6663.73
6663.74
6664.89
6666.29
6667.37
6668.99
6670.67
6671.59
6673.49
6674.76
6676.64
6678.22
6680.79
6682.43
6685.79
6687.63
6692.14
6694.3
6702.23
6702.47
6759.55
6961
65518.4
8224.42
7687.93
7386.43
7204.26
7083.62
6998.59
6935.42
6887.2
6849.12
6818.75
6793.81
6773.35
6756.07
6741.64
6729.17
6718.62
6709.34
6701.42
6694.33
6688.26
6682.73
6677.96
6673.61
6669.93
6666.38
6663.34
6660.52
6658.18
6655.81
6653.84
6651.95
6650.39
6648.86
6647.67
6646.29
6645.23
6644.22
6643.5
6642.47
6641.79
6641.19
6640.7
6639.55
6639.51
6639.44
6639.35
6639.19
6638.98
6638.48
6638.44
6638.18
6639.05
6639.35
6639.35
6639.32
6640.26
6641.1
6641.24
6641.24
6641.23
6642.13
6642.79
6642.79
6643.42
6644.86
6644.86
6644.86
6645.94
6645.93
6647.05
6648.37
6649.62
6650.87
6652.47
6652.47
6653.62
6655.02
6656.11
6657.72
6659.4
6660.33
6662.23
6663.49
6665.38
6666.95
6669.53
6671.16
6674.52
6676.35
6680.86
6683
6690.92
6691.08
6750.02
6950.58
62316.1
8224.48
7686.04
7382.52
7198.79
7076.99
6991.08
6927.23
6878.48
6839.96
6809.22
6783.98
6763.27
6745.78
6731.15
6718.53
6707.84
6698.43
6690.4
6683.21
6677.06
6671.45
6666.62
6662.2
6658.47
6654.86
6651.78
6648.91
6646.53
6644.13
6642.13
6640.2
6638.62
6637.06
6635.85
6634.45
6633.36
6632.33
6631.6
6630.55
6629.86
6629.24
6628.74
6627.58
6627.52
6627.44
6627.33
6627.17
6626.95
6626.45
6626.39
6626.11
6626.97
6627.26
6627.26
6627.22
6628.16
6628.99
6629.13
6629.12
6629.11
6630.01
6630.66
6630.66
6631.28
6632.72
6632.72
6632.73
6633.79
6633.79
6634.9
6636.21
6637.47
6638.7
6640.31
6640.31
6641.47
6642.86
6643.95
6645.55
6647.24
6648.17
6650.07
6651.34
6653.22
6654.79
6657.37
6659
6662.35
6664.18
6668.68
6670.81
6678.72
6678.8
6739.74
6939.29
59194.8
8224.55
7684.03
7378.36
7192.95
7069.9
6983.05
6918.46
6869.12
6830.13
6799
6773.44
6752.45
6734.73
6719.9
6707.1
6696.26
6686.72
6678.58
6671.28
6665.04
6659.34
6654.43
6649.95
6646.15
6642.5
6639.36
6636.44
6634.03
6631.58
6629.55
6627.59
6625.97
6624.38
6623.15
6621.72
6620.62
6619.56
6618.81
6617.74
6617.04
6616.4
6615.9
6614.73
6614.64
6614.55
6614.43
6614.25
6614.04
6613.53
6613.46
6613.15
6614
6614.27
6614.27
6614.23
6615.16
6615.98
6616.11
6616.11
6616.09
6616.99
6617.63
6617.63
6618.25
6619.68
6619.68
6619.69
6620.75
6620.75
6621.86
6623.15
6624.41
6625.63
6627.25
6627.25
6628.4
6629.8
6630.9
6632.48
6634.18
6635.11
6637.01
6638.28
6640.17
6641.72
6644.3
6645.93
6649.28
6651.11
6655.59
6657.71
6665.6
6665.6
6728.69
6927.12
56158.8
8224.63
7681.92
7373.95
7186.74
7062.35
6974.48
6909.11
6859.14
6819.64
6788.09
6762.18
6740.9
6722.92
6707.88
6694.89
6683.89
6674.2
6665.93
6658.52
6652.18
6646.39
6641.41
6636.84
6632.99
6629.27
6626.08
6623.11
6620.65
6618.16
6616.09
6614.09
6612.44
6610.82
6609.56
6608.11
6606.98
6605.9
6605.13
6604.05
6603.32
6602.66
6602.15
6600.98
6600.87
6600.75
6600.63
6600.43
6600.21
6599.71
6599.62
6599.29
6600.13
6600.38
6600.38
6600.33
6601.25
6602.06
6602.18
6602.18
6602.16
6603.06
6603.68
6603.68
6604.3
6605.73
6605.73
6605.73
6606.79
6606.79
6607.9
6609.18
6610.44
6611.64
6613.28
6613.28
6614.43
6615.82
6616.92
6618.49
6620.2
6621.13
6623.03
6624.3
6626.19
6627.74
6630.32
6631.94
6635.28
6637.11
6641.58
6643.69
6651.56
6651.48
6716.85
6914.04
53212.3
8224.73
7679.7
7369.28
7180.16
7054.34
6965.38
6899.16
6848.52
6808.48
6776.48
6750.19
6728.6
6710.35
6695.08
6681.89
6670.71
6660.87
6652.46
6644.93
6638.48
6632.59
6627.52
6622.88
6618.95
6615.17
6611.92
6608.89
6606.38
6603.86
6601.74
6599.71
6598.02
6596.37
6595.08
6593.6
6592.45
6591.34
6590.55
6589.44
6588.7
6588.02
6587.5
6586.32
6586.18
6586.04
6585.91
6585.7
6585.47
6584.96
6584.86
6584.5
6585.33
6585.57
6585.56
6585.51
6586.42
6587.21
6587.33
6587.33
6587.31
6588.21
6588.81
6588.81
6589.42
6590.84
6590.85
6590.85
6591.9
6591.9
6593.01
6594.27
6595.54
6596.72
6598.37
6598.37
6599.52
6600.91
6602.02
6603.57
6605.29
6606.23
6608.12
6609.39
6611.29
6612.82
6615.41
6617.02
6620.36
6622.18
6626.64
6628.73
6636.58
6636.42
6704.22
6900.04
50359.1
8224.84
7677.38
7364.38
7173.21
7045.86
6955.75
6888.63
6837.27
6796.64
6764.16
6737.47
6715.54
6697
6681.48
6668.08
6656.71
6646.7
6638.15
6630.49
6623.92
6617.93
6612.77
6608.04
6604.04
6600.18
6596.88
6593.79
6591.23
6588.65
6586.49
6584.42
6582.7
6581
6579.68
6578.18
6577
6575.86
6575.04
6573.92
6573.15
6572.45
6571.92
6570.73
6570.56
6570.41
6570.26
6570.04
6569.81
6569.29
6569.17
6568.78
6569.6
6569.82
6569.82
6569.75
6570.65
6571.43
6571.54
6571.54
6571.52
6572.41
6573
6573
6573.6
6575.02
6575.03
6575.03
6576.08
6576.08
6577.18
6578.43
6579.7
6580.86
6582.52
6582.52
6583.67
6585.05
6586.17
6587.7
6589.43
6590.37
6592.26
6593.53
6595.44
6596.96
6599.55
6601.15
6604.49
6606.3
6610.75
6612.82
6620.66
6620.4
6690.76
6885.1
47602.5
8224.96
7674.96
7359.23
7165.9
7036.93
6945.58
6877.5
6825.37
6784.12
6751.14
6724.02
6701.72
6682.88
6667.09
6653.45
6641.88
6631.7
6623
6615.19
6608.51
6602.4
6597.14
6592.32
6588.24
6584.31
6580.94
6577.79
6575.17
6572.54
6570.33
6568.21
6566.45
6564.72
6563.36
6561.83
6560.62
6559.45
6558.61
6557.47
6556.68
6555.95
6555.41
6554.21
6554.01
6553.84
6553.67
6553.44
6553.2
6552.68
6552.54
6552.12
6552.92
6553.12
6553.12
6553.04
6553.94
6554.71
6554.8
6554.8
6554.78
6555.67
6556.24
6556.24
6556.84
6558.25
6558.26
6558.26
6559.3
6559.3
6560.4
6561.63
6562.91
6564.04
6565.72
6565.72
6566.86
6568.24
6569.37
6570.88
6572.62
6573.57
6575.45
6576.72
6578.63
6580.14
6582.73
6584.33
6587.66
6589.47
6593.9
6595.95
6603.77
6603.42
6676.46
6869.19
44945.7
8225.11
7672.44
7353.84
7158.23
7027.54
6934.88
6865.77
6812.83
6770.92
6737.39
6709.82
6687.14
6667.96
6651.9
6638.01
6626.23
6615.86
6606.99
6599.03
6592.22
6586
6580.63
6575.71
6571.54
6567.53
6564.09
6560.87
6558.19
6555.51
6553.26
6551.09
6549.28
6547.51
6546.12
6544.55
6543.31
6542.11
6541.24
6540.07
6539.26
6538.51
6537.95
6536.74
6536.51
6536.31
6536.14
6535.88
6535.64
6535.11
6534.96
6534.51
6535.29
6535.47
6535.47
6535.38
6536.27
6537.02
6537.1
6537.1
6537.08
6537.97
6538.52
6538.52
6539.11
6540.51
6540.52
6540.52
6541.55
6541.55
6542.66
6543.86
6545.15
6546.26
6547.95
6547.95
6549.09
6550.47
6551.6
6553.09
6554.84
6555.79
6557.67
6558.94
6560.86
6562.36
6564.94
6566.53
6569.85
6571.66
6576.08
6578.11
6585.91
6585.46
6661.29
6852.3
42391.2
8225.27
7669.84
7348.22
7150.2
7017.69
6923.64
6853.45
6799.65
6757.04
6722.93
6694.87
6671.78
6652.26
6635.89
6621.74
6609.73
6599.16
6590.11
6582
6575.05
6568.7
6563.22
6558.2
6553.93
6549.85
6546.33
6543.04
6540.3
6537.56
6535.25
6533.03
6531.18
6529.36
6527.93
6526.32
6525.05
6523.81
6522.92
6521.73
6520.89
6520.11
6519.54
6518.32
6518.06
6517.83
6517.64
6517.37
6517.12
6516.58
6516.41
6515.93
6516.7
6516.86
6516.86
6516.75
6517.62
6518.36
6518.44
6518.43
6518.4
6519.29
6519.83
6519.83
6520.41
6521.8
6521.81
6521.81
6522.84
6522.83
6523.94
6525.12
6526.42
6527.5
6529.2
6529.2
6530.34
6531.71
6532.86
6534.32
6536.08
6537.03
6538.91
6540.18
6542.1
6543.59
6546.18
6547.76
6551.07
6552.87
6557.28
6559.28
6567.07
6566.51
6645.23
6834.39
39941.5
8225.44
7667.15
7342.38
7141.82
7007.39
6911.87
6840.53
6785.82
6742.46
6707.74
6679.17
6655.64
6635.75
6619.07
6604.64
6592.39
6581.61
6572.37
6564.1
6556.99
6550.51
6544.91
6539.78
6535.42
6531.24
6527.64
6524.28
6521.47
6518.66
6516.3
6514.02
6512.13
6510.26
6508.79
6507.15
6505.84
6504.56
6503.64
6502.42
6501.56
6500.75
6500.16
6498.93
6498.63
6498.38
6498.17
6497.88
6497.62
6497.08
6496.89
6496.38
6497.12
6497.26
6497.26
6497.14
6498
6498.72
6498.79
6498.78
6498.75
6499.63
6500.15
6500.15
6500.72
6502.11
6502.11
6502.12
6503.13
6503.13
6504.23
6505.39
6506.69
6507.75
6509.46
6509.46
6510.6
6511.96
6513.12
6514.56
6516.32
6517.28
6519.16
6520.43
6522.35
6523.82
6526.41
6527.98
6531.29
6533.08
6537.47
6539.46
6547.23
6546.57
6628.27
6815.44
37598.4
8225.64
7664.38
7336.31
7133.09
6996.64
6899.57
6827.02
6771.34
6727.2
6691.83
6662.71
6638.73
6618.45
6601.42
6586.71
6574.2
6563.19
6553.76
6545.3
6538.04
6531.42
6525.69
6520.44
6515.98
6511.71
6508.02
6504.58
6501.7
6498.83
6496.4
6494.07
6492.12
6490.2
6488.69
6487.01
6485.66
6484.35
6483.4
6482.15
6481.26
6480.41
6479.81
6478.56
6478.23
6477.95
6477.73
6477.41
6477.15
6476.59
6476.39
6475.84
6476.56
6476.68
6476.68
6476.54
6477.39
6478.08
6478.14
6478.14
6478.1
6478.98
6479.48
6479.47
6480.04
6481.41
6481.42
6481.43
6482.43
6482.43
6483.53
6484.66
6485.97
6486.99
6488.72
6488.72
6489.86
6491.21
6492.38
6493.8
6495.57
6496.53
6498.4
6499.67
6501.6
6503.06
6505.65
6507.21
6510.5
6512.29
6516.66
6518.63
6526.38
6525.61
6610.36
6795.42
35363.6
8225.86
7661.54
7330.03
7124.03
6985.44
6886.74
6812.92
6756.22
6711.24
6675.19
6645.5
6621.03
6600.33
6582.95
6567.93
6555.15
6543.9
6534.26
6525.62
6518.19
6511.41
6505.56
6500.18
6495.61
6491.24
6487.46
6483.93
6480.98
6478.04
6475.55
6473.15
6471.15
6469.18
6467.62
6465.9
6464.51
6463.16
6462.17
6460.89
6459.97
6459.09
6458.47
6457.2
6456.84
6456.53
6456.29
6455.95
6455.68
6455.11
6454.89
6454.31
6455
6455.1
6455.1
6454.95
6455.78
6456.45
6456.5
6456.5
6456.45
6457.33
6457.8
6457.8
6458.35
6459.71
6459.72
6459.73
6460.72
6460.72
6461.82
6462.92
6464.24
6465.23
6466.97
6466.97
6468.11
6469.45
6470.63
6472.03
6473.8
6474.77
6476.63
6477.9
6479.83
6481.28
6483.86
6485.41
6488.7
6490.47
6494.83
6496.77
6504.51
6503.63
6591.49
6774.28
33238.4
8226.11
7658.63
7323.55
7114.62
6973.81
6873.39
6798.22
6740.45
6694.6
6657.82
6627.53
6602.55
6581.41
6563.66
6548.3
6535.24
6523.74
6513.87
6505.03
6497.43
6490.5
6484.5
6478.99
6474.3
6469.83
6465.96
6462.34
6459.3
6456.29
6453.73
6451.27
6449.21
6447.18
6445.58
6443.81
6442.38
6440.98
6439.96
6438.65
6437.7
6436.78
6436.14
6434.86
6434.46
6434.12
6433.85
6433.49
6433.21
6432.63
6432.39
6431.77
6432.44
6432.52
6432.52
6432.34
6433.16
6433.81
6433.84
6433.84
6433.79
6434.66
6435.11
6435.11
6435.65
6437
6437.01
6437.01
6438
6437.99
6439.09
6440.16
6441.49
6442.45
6444.2
6444.2
6445.34
6446.67
6447.86
6449.23
6451.01
6451.98
6453.84
6455.1
6457.04
6458.47
6461.05
6462.59
6465.86
6467.64
6471.97
6473.89
6481.61
6480.61
6571.62
6751.99
31224
8226.37
7655.66
7316.86
7104.89
6961.74
6859.52
6782.94
6724.03
6677.26
6639.73
6608.79
6583.28
6561.68
6543.53
6527.83
6514.47
6502.69
6492.6
6483.55
6475.76
6468.66
6462.51
6456.87
6452.06
6447.47
6443.5
6439.78
6436.66
6433.57
6430.94
6428.41
6426.3
6424.21
6422.55
6420.73
6419.26
6417.82
6416.76
6415.41
6414.43
6413.47
6412.81
6411.51
6411.07
6410.7
6410.41
6410.03
6409.73
6409.13
6408.88
6408.23
6408.86
6408.92
6408.92
6408.72
6409.52
6410.14
6410.17
6410.17
6410.11
6410.97
6411.4
6411.4
6411.92
6413.26
6413.27
6413.27
6414.25
6414.24
6415.34
6416.38
6417.71
6418.64
6420.4
6420.4
6421.54
6422.86
6424.06
6425.41
6427.19
6428.16
6430.01
6431.27
6433.22
6434.63
6437.21
6438.74
6442
6443.76
6448.08
6449.96
6457.66
6456.56
6550.74
6728.5
29321
8226.66
7652.63
7309.99
7094.84
6949.24
6845.14
6767.07
6706.98
6659.24
6620.9
6589.3
6563.22
6541.13
6522.57
6506.5
6492.82
6480.77
6470.43
6461.16
6453.17
6445.9
6439.59
6433.8
6428.86
6424.16
6420.08
6416.26
6413.05
6409.88
6407.18
6404.58
6402.39
6400.24
6398.53
6396.66
6395.15
6393.65
6392.55
6391.17
6390.15
6389.15
6388.47
6387.15
6386.67
6386.26
6385.95
6385.54
6385.23
6384.62
6384.35
6383.66
6384.26
6384.3
6384.3
6384.07
6384.86
6385.45
6385.47
6385.47
6385.4
6386.26
6386.66
6386.66
6387.16
6388.49
6388.5
6388.5
6389.46
6389.46
6390.56
6391.56
6392.9
6393.8
6395.56
6395.56
6396.7
6398.01
6399.22
6400.54
6402.32
6403.3
6405.15
6406.4
6408.35
6409.75
6412.32
6413.84
6417.08
6418.83
6423.13
6424.99
6432.67
6431.46
6528.79
6703.8
27530.3
8226.98
7649.56
7302.94
7084.48
6936.33
6830.25
6750.63
6689.29
6640.54
6601.36
6569.05
6542.37
6519.78
6500.77
6484.32
6470.31
6457.96
6447.36
6437.86
6429.67
6422.2
6415.74
6409.79
6404.72
6399.89
6395.7
6391.78
6388.47
6385.21
6382.43
6379.75
6377.5
6375.29
6373.51
6371.59
6370.03
6368.48
6367.34
6365.92
6364.87
6363.82
6363.11
6361.77
6361.25
6360.81
6360.47
6360.04
6359.71
6359.09
6358.8
6358.08
6358.63
6358.66
6358.65
6358.4
6359.16
6359.72
6359.74
6359.74
6359.65
6360.51
6360.88
6360.88
6361.37
6362.68
6362.69
6362.69
6363.64
6363.63
6364.73
6365.7
6367.04
6367.9
6369.68
6369.68
6370.81
6372.11
6373.34
6374.63
6376.41
6377.39
6379.23
6380.48
6382.43
6383.81
6386.38
6387.89
6391.11
6392.85
6397.13
6398.96
6406.62
6405.31
6505.71
6677.86
25852.2
8227.32
7646.44
7295.71
7073.82
6923
6814.86
6733.61
6670.97
6621.15
6581.09
6548.04
6520.74
6497.6
6478.14
6461.29
6446.92
6434.27
6423.39
6413.65
6405.24
6397.58
6390.94
6384.84
6379.61
6374.66
6370.35
6366.31
6362.91
6359.56
6356.69
6353.94
6351.62
6349.33
6347.5
6345.52
6343.91
6342.31
6341.12
6339.66
6338.56
6337.48
6336.74
6335.38
6334.81
6334.33
6333.97
6333.5
6333.16
6332.52
6332.22
6331.45
6331.97
6331.98
6331.97
6331.68
6332.43
6332.96
6332.97
6332.97
6332.87
6333.71
6334.06
6334.06
6334.53
6335.82
6335.84
6335.84
6336.77
6336.76
6337.85
6338.79
6340.14
6340.96
6342.73
6342.75
6343.88
6345.16
6346.39
6347.66
6349.44
6350.42
6352.26
6353.5
6355.45
6356.82
6359.38
6360.88
6364.08
6365.81
6370.06
6371.87
6379.5
6378.09
6481.44
6650.64
24287.2
8227.69
7643.29
7288.32
7062.87
6909.28
6798.98
6716.03
6652.02
6601.08
6560.1
6526.28
6498.32
6474.62
6454.67
6437.4
6422.67
6409.69
6398.53
6388.52
6379.89
6372.02
6365.2
6358.93
6353.55
6348.46
6344.03
6339.88
6336.37
6332.92
6329.97
6327.13
6324.73
6322.37
6320.48
6318.44
6316.77
6315.11
6313.88
6312.38
6311.24
6310.11
6309.34
6307.95
6307.35
6306.82
6306.43
6305.94
6305.58
6304.92
6304.6
6303.8
6304.26
6304.26
6304.24
6303.93
6304.65
6305.14
6305.15
6305.15
6305.03
6305.87
6306.19
6306.19
6306.64
6307.92
6307.93
6307.93
6308.84
6308.83
6309.93
6310.82
6312.17
6312.96
6314.74
6314.75
6315.88
6317.15
6318.39
6319.63
6321.41
6322.39
6324.22
6325.46
6327.41
6328.76
6331.31
6332.79
6335.98
6337.7
6341.93
6343.7
6351.3
6349.79
6455.93
6622.13
22833.5
8228.09
7640.11
7280.79
7051.64
6895.16
6782.61
6697.89
6632.45
6580.35
6538.4
6503.76
6475.12
6450.83
6430.37
6412.66
6397.54
6384.22
6372.76
6362.48
6353.61
6345.53
6338.51
6332.07
6326.54
6321.29
6316.74
6312.46
6308.84
6305.29
6302.25
6299.32
6296.85
6294.41
6292.44
6290.35
6288.62
6286.9
6285.62
6284.07
6282.89
6281.71
6280.91
6279.5
6278.84
6278.28
6277.86
6277.33
6276.96
6276.27
6275.93
6275.1
6275.51
6275.51
6275.47
6275.12
6275.83
6276.28
6276.28
6276.28
6276.15
6276.97
6277.26
6277.26
6277.69
6278.95
6278.96
6278.96
6279.85
6279.85
6280.94
6281.79
6283.15
6283.9
6285.68
6285.69
6286.82
6288.07
6289.33
6290.53
6292.31
6293.29
6295.11
6296.34
6298.3
6299.63
6302.17
6303.64
6306.8
6308.51
6312.71
6314.46
6322.03
6320.43
6429.11
6592.3
21486
8228.51
7636.91
7273.12
7040.15
6880.67
6765.78
6679.2
6612.27
6558.95
6515.99
6480.5
6451.14
6426.23
6405.24
6387.06
6371.55
6357.86
6346.09
6335.53
6326.41
6318.1
6310.89
6304.25
6298.55
6293.16
6288.47
6284.06
6280.33
6276.67
6273.53
6270.51
6267.96
6265.44
6263.4
6261.24
6259.45
6257.67
6256.34
6254.74
6253.52
6252.28
6251.45
6250.01
6249.31
6248.7
6248.25
6247.68
6247.29
6246.58
6246.23
6245.36
6245.71
6245.71
6245.65
6245.26
6245.95
6246.36
6246.36
6246.36
6246.21
6247.01
6247.28
6247.28
6247.69
6248.92
6248.93
6248.93
6249.8
6249.8
6250.88
6251.7
6253.05
6253.76
6255.55
6255.56
6256.69
6257.92
6259.19
6260.36
6262.14
6263.12
6264.93
6266.15
6268.11
6269.42
6271.95
6273.4
6276.55
6278.24
6282.41
6284.13
6291.66
6289.97
6400.93
6561.11
20239.4
8228.96
7633.71
7265.32
7028.4
6865.81
6748.48
6659.97
6591.49
6536.89
6492.88
6456.5
6426.39
6400.84
6379.29
6360.62
6344.68
6330.63
6318.52
6307.67
6298.29
6289.74
6282.31
6275.48
6269.61
6264.06
6259.23
6254.68
6250.83
6247.06
6243.82
6240.7
6238.06
6235.46
6233.35
6231.11
6229.27
6227.42
6226.03
6224.38
6223.11
6221.82
6220.95
6219.48
6218.73
6218.07
6217.59
6216.99
6216.58
6215.84
6215.47
6214.57
6214.86
6214.85
6214.78
6214.35
6215.01
6215.38
6215.38
6215.38
6215.2
6215.99
6216.23
6216.23
6216.62
6217.82
6217.83
6217.83
6218.68
6218.69
6219.76
6220.53
6221.89
6222.56
6224.35
6224.35
6225.48
6226.7
6227.97
6229.12
6230.89
6231.86
6233.67
6234.88
6236.83
6238.13
6240.64
6242.09
6245.2
6246.88
6251.02
6252.71
6260.2
6258.44
6371.32
6528.55
19088.4
8229.45
7630.49
7257.41
7016.41
6850.6
6730.74
6640.22
6570.11
6514.19
6469.07
6431.77
6400.87
6374.64
6352.52
6333.34
6316.96
6302.51
6290.06
6278.9
6269.24
6260.45
6252.8
6245.76
6239.71
6233.99
6229.01
6224.32
6220.34
6216.45
6213.11
6209.89
6207.16
6204.47
6202.28
6199.97
6198.06
6196.14
6194.69
6192.99
6191.67
6190.33
6189.42
6187.92
6187.12
6186.41
6185.89
6185.25
6184.82
6184.06
6183.66
6182.73
6182.96
6182.95
6182.85
6182.39
6183.02
6183.34
6183.35
6183.34
6183.14
6183.91
6184.12
6184.12
6184.48
6185.66
6185.67
6185.66
6186.49
6186.5
6187.57
6188.29
6189.65
6190.28
6192.07
6192.07
6193.2
6194.39
6195.68
6196.79
6198.55
6199.53
6201.32
6202.52
6204.48
6205.75
6208.25
6209.68
6212.77
6214.43
6218.54
6220.2
6227.65
6225.81
6340.23
6494.57
18027.6
8229.96
7627.29
7249.39
7004.21
6835.05
6712.56
6619.95
6548.16
6490.85
6444.58
6406.31
6374.59
6347.66
6324.93
6305.22
6288.38
6273.51
6260.71
6249.22
6239.28
6230.22
6222.34
6215.09
6208.85
6202.96
6197.82
6192.99
6188.87
6184.86
6181.41
6178.07
6175.25
6172.46
6170.19
6167.81
6165.83
6163.84
6162.33
6160.57
6159.2
6157.8
6156.85
6155.31
6154.46
6153.7
6153.15
6152.47
6152.01
6151.22
6150.81
6149.84
6150.01
6149.99
6149.86
6149.36
6149.96
6150.25
6150.25
6150.23
6150.01
6150.76
6150.95
6150.94
6151.27
6152.42
6152.43
6152.43
6153.23
6153.24
6154.3
6154.97
6156.34
6156.93
6158.71
6158.71
6159.84
6161.01
6162.3
6163.38
6165.13
6166.1
6167.89
6169.08
6171.03
6172.28
6174.77
6176.18
6179.25
6180.89
6184.97
6186.59
6193.99
6192.09
6307.61
6459.16
17051.1
8230.51
7624.09
7241.3
6991.79
6819.18
6693.97
6599.19
6525.64
6466.89
6419.42
6380.14
6347.57
6319.9
6296.53
6276.27
6258.94
6243.65
6230.47
6218.64
6208.4
6199.07
6190.95
6183.48
6177.04
6170.96
6165.66
6160.67
6156.41
6152.27
6148.71
6145.26
6142.34
6139.45
6137.1
6134.63
6132.58
6130.52
6128.94
6127.12
6125.7
6124.23
6123.24
6121.67
6120.76
6119.95
6119.36
6118.63
6118.15
6117.33
6116.9