/*--------------------------------*- C++ -*----------------------------------*\
| =========                 |                                                 |
| \\      /  F ield         | OpenFOAM: The Open Source CFD Toolbox           |
|  \\    /   O peration     | Version:  v2012                                 |
|   \\  /    A nd           | Website:  www.openfoam.com                      |
|    \\/     M anipulation  |                                                 |
\*---------------------------------------------------------------------------*/
FoamFile
{
    version     2.0;
    format      ascii;
    class       volVectorField;
    location    "13";
    object      wallShearStress;
}
// * * * * * * * * * * * * * * * * * * * * * * * * * * * * * * * * * * * * * //

dimensions      [0 2 -2 0 0 0 0];


internalField   uniform (0 0 0);

boundaryField
{
    inlet
    {
        type            calculated;
        value           uniform (0 0 0);
    }
    outlet
    {
        type            calculated;
        value           uniform (0 0 0);
    }
    topWall
    {
        type            calculated;
        value           nonuniform List<vector> 
545
(
(2.76341e-08 -1.94134e-08 0)
(2.77341e-08 -5.45167e-08 0)
(2.76905e-08 -9.10268e-08 0)
(2.76067e-08 -1.26386e-07 0)
(2.75541e-08 -1.60198e-07 0)
(2.74974e-08 -1.9291e-07 0)
(2.74337e-08 -2.24802e-07 0)
(2.73641e-08 -2.55859e-07 0)
(2.7289e-08 -2.86014e-07 0)
(2.72086e-08 -3.15264e-07 0)
(2.71236e-08 -3.43647e-07 0)
(2.70344e-08 -3.71199e-07 0)
(2.69414e-08 -3.97936e-07 0)
(2.6845e-08 -4.23878e-07 0)
(2.67456e-08 -4.49041e-07 0)
(2.66436e-08 -4.73449e-07 0)
(2.65393e-08 -4.97121e-07 0)
(2.64331e-08 -5.20077e-07 0)
(2.63251e-08 -5.42337e-07 0)
(2.62158e-08 -5.63921e-07 0)
(2.61053e-08 -5.84848e-07 0)
(2.59939e-08 -6.05137e-07 0)
(2.58819e-08 -6.24805e-07 0)
(2.57694e-08 -6.43872e-07 0)
(2.56566e-08 -6.62355e-07 0)
(2.55437e-08 -6.80272e-07 0)
(2.54308e-08 -6.97639e-07 0)
(2.53182e-08 -7.14473e-07 0)
(2.52059e-08 -7.30791e-07 0)
(2.5094e-08 -7.46608e-07 0)
(2.49828e-08 -7.61939e-07 0)
(2.48722e-08 -7.768e-07 0)
(2.47623e-08 -7.91205e-07 0)
(2.46534e-08 -8.05169e-07 0)
(2.45453e-08 -8.18704e-07 0)
(2.44383e-08 -8.31825e-07 0)
(2.43323e-08 -8.44545e-07 0)
(2.42274e-08 -8.56875e-07 0)
(2.41237e-08 -8.68829e-07 0)
(2.40211e-08 -8.80418e-07 0)
(2.39198e-08 -8.91653e-07 0)
(2.38198e-08 -9.02546e-07 0)
(2.3721e-08 -9.13108e-07 0)
(2.36235e-08 -9.23349e-07 0)
(2.35273e-08 -9.33279e-07 0)
(2.34324e-08 -9.42907e-07 0)
(2.33389e-08 -9.52245e-07 0)
(2.32467e-08 -9.613e-07 0)
(2.31558e-08 -9.70081e-07 0)
(2.30662e-08 -9.78598e-07 0)
(2.2978e-08 -9.86858e-07 0)
(2.28911e-08 -9.9487e-07 0)
(2.28055e-08 -1.00264e-06 0)
(2.27212e-08 -1.01018e-06 0)
(2.26382e-08 -1.01749e-06 0)
(2.25564e-08 -1.02459e-06 0)
(2.24759e-08 -1.03147e-06 0)
(2.23966e-08 -1.03814e-06 0)
(2.23186e-08 -1.04462e-06 0)
(2.22417e-08 -1.05091e-06 0)
(2.2166e-08 -1.05701e-06 0)
(2.20914e-08 -1.06292e-06 0)
(2.2018e-08 -1.06867e-06 0)
(2.19457e-08 -1.07424e-06 0)
(2.18744e-08 -1.07965e-06 0)
(2.18042e-08 -1.08489e-06 0)
(2.1735e-08 -1.08999e-06 0)
(2.16668e-08 -1.09493e-06 0)
(2.15996e-08 -1.09973e-06 0)
(2.1533e-08 -1.10438e-06 0)
(2.14689e-08 -1.10891e-06 0)
(2.13977e-08 -1.11331e-06 0)
(2.13325e-08 -1.11748e-06 0)
(2.12809e-08 -1.12158e-06 0)
(2.12277e-08 -1.12563e-06 0)
(2.11747e-08 -1.12961e-06 0)
(2.11218e-08 -1.1336e-06 0)
(2.1069e-08 -1.13756e-06 0)
(2.10162e-08 -1.14149e-06 0)
(2.09635e-08 -1.14539e-06 0)
(2.09108e-08 -1.14926e-06 0)
(2.08582e-08 -1.15311e-06 0)
(2.08057e-08 -1.15693e-06 0)
(2.07532e-08 -1.16072e-06 0)
(2.07008e-08 -1.16448e-06 0)
(2.06485e-08 -1.16822e-06 0)
(2.05963e-08 -1.17193e-06 0)
(2.05441e-08 -1.17561e-06 0)
(2.0492e-08 -1.17927e-06 0)
(2.044e-08 -1.18291e-06 0)
(2.03882e-08 -1.18651e-06 0)
(2.03362e-08 -1.19009e-06 0)
(2.0285e-08 -1.19367e-06 0)
(2.02307e-08 -1.19711e-06 0)
(2.01893e-08 -1.20072e-06 0)
(2.00821e-08 -1.20425e-06 0)
(1.99718e-08 -1.20712e-06 0)
(1.99341e-08 -1.2101e-06 0)
(1.98916e-08 -1.21301e-06 0)
(1.98517e-08 -1.21564e-06 0)
(1.98119e-08 -1.21843e-06 0)
(1.97722e-08 -1.22126e-06 0)
(1.97324e-08 -1.22407e-06 0)
(1.96923e-08 -1.22686e-06 0)
(1.96522e-08 -1.22966e-06 0)
(1.96119e-08 -1.23245e-06 0)
(1.95714e-08 -1.23526e-06 0)
(1.95308e-08 -1.23806e-06 0)
(1.94901e-08 -1.24086e-06 0)
(1.94491e-08 -1.24366e-06 0)
(1.9408e-08 -1.24647e-06 0)
(1.93668e-08 -1.24927e-06 0)
(1.93254e-08 -1.25208e-06 0)
(1.92838e-08 -1.25488e-06 0)
(1.9242e-08 -1.25769e-06 0)
(1.92001e-08 -1.2605e-06 0)
(1.9158e-08 -1.2633e-06 0)
(1.91158e-08 -1.26611e-06 0)
(1.90734e-08 -1.26892e-06 0)
(1.90308e-08 -1.27173e-06 0)
(1.8988e-08 -1.27454e-06 0)
(1.8945e-08 -1.27734e-06 0)
(1.89019e-08 -1.28015e-06 0)
(1.88586e-08 -1.28296e-06 0)
(1.88151e-08 -1.28577e-06 0)
(1.87715e-08 -1.28858e-06 0)
(1.87276e-08 -1.29139e-06 0)
(1.86836e-08 -1.2942e-06 0)
(1.86394e-08 -1.29701e-06 0)
(1.85951e-08 -1.29982e-06 0)
(1.85505e-08 -1.30263e-06 0)
(1.85058e-08 -1.30544e-06 0)
(1.84608e-08 -1.30825e-06 0)
(1.84157e-08 -1.31106e-06 0)
(1.83705e-08 -1.31387e-06 0)
(1.8325e-08 -1.31668e-06 0)
(1.82794e-08 -1.31948e-06 0)
(1.82335e-08 -1.32229e-06 0)
(1.81875e-08 -1.3251e-06 0)
(1.81413e-08 -1.3279e-06 0)
(1.8095e-08 -1.33071e-06 0)
(1.80484e-08 -1.33352e-06 0)
(1.80017e-08 -1.33632e-06 0)
(1.79548e-08 -1.33913e-06 0)
(1.79077e-08 -1.34193e-06 0)
(1.78604e-08 -1.34473e-06 0)
(1.78129e-08 -1.34753e-06 0)
(1.77653e-08 -1.35033e-06 0)
(1.77174e-08 -1.35313e-06 0)
(1.76694e-08 -1.35593e-06 0)
(1.76212e-08 -1.35873e-06 0)
(1.75728e-08 -1.36153e-06 0)
(1.75243e-08 -1.36432e-06 0)
(1.74755e-08 -1.36712e-06 0)
(1.74266e-08 -1.36991e-06 0)
(1.73775e-08 -1.3727e-06 0)
(1.73282e-08 -1.37549e-06 0)
(1.72787e-08 -1.37828e-06 0)
(1.7229e-08 -1.38107e-06 0)
(1.71792e-08 -1.38386e-06 0)
(1.71292e-08 -1.38664e-06 0)
(1.7079e-08 -1.38943e-06 0)
(1.70286e-08 -1.39221e-06 0)
(1.6978e-08 -1.39499e-06 0)
(1.69273e-08 -1.39777e-06 0)
(1.68763e-08 -1.40054e-06 0)
(1.68252e-08 -1.40332e-06 0)
(1.67739e-08 -1.40609e-06 0)
(1.67224e-08 -1.40886e-06 0)
(1.66708e-08 -1.41163e-06 0)
(1.66189e-08 -1.4144e-06 0)
(1.65669e-08 -1.41716e-06 0)
(1.65147e-08 -1.41992e-06 0)
(1.64623e-08 -1.42268e-06 0)
(1.64097e-08 -1.42544e-06 0)
(1.6357e-08 -1.4282e-06 0)
(1.6304e-08 -1.43095e-06 0)
(1.62509e-08 -1.4337e-06 0)
(1.61976e-08 -1.43645e-06 0)
(1.61441e-08 -1.43919e-06 0)
(1.60905e-08 -1.44193e-06 0)
(1.60366e-08 -1.44467e-06 0)
(1.59826e-08 -1.44741e-06 0)
(1.59284e-08 -1.45015e-06 0)
(1.5874e-08 -1.45288e-06 0)
(1.58195e-08 -1.45561e-06 0)
(1.57647e-08 -1.45833e-06 0)
(1.57098e-08 -1.46105e-06 0)
(1.56547e-08 -1.46377e-06 0)
(1.55994e-08 -1.46649e-06 0)
(1.5544e-08 -1.4692e-06 0)
(1.54883e-08 -1.47191e-06 0)
(1.54325e-08 -1.47462e-06 0)
(1.53765e-08 -1.47732e-06 0)
(1.53203e-08 -1.48002e-06 0)
(1.5264e-08 -1.48272e-06 0)
(1.52074e-08 -1.48541e-06 0)
(1.51507e-08 -1.4881e-06 0)
(1.50939e-08 -1.49078e-06 0)
(1.50368e-08 -1.49346e-06 0)
(1.49795e-08 -1.49614e-06 0)
(1.49221e-08 -1.49881e-06 0)
(1.48645e-08 -1.50148e-06 0)
(1.48068e-08 -1.50415e-06 0)
(1.47488e-08 -1.50681e-06 0)
(1.46907e-08 -1.50947e-06 0)
(1.46324e-08 -1.51212e-06 0)
(1.4574e-08 -1.51477e-06 0)
(1.45153e-08 -1.51741e-06 0)
(1.44565e-08 -1.52005e-06 0)
(1.43975e-08 -1.52268e-06 0)
(1.43384e-08 -1.52531e-06 0)
(1.4279e-08 -1.52794e-06 0)
(1.42195e-08 -1.53056e-06 0)
(1.41599e-08 -1.53317e-06 0)
(1.41e-08 -1.53579e-06 0)
(1.404e-08 -1.53839e-06 0)
(1.39798e-08 -1.54099e-06 0)
(1.39195e-08 -1.54359e-06 0)
(1.3859e-08 -1.54618e-06 0)
(1.37983e-08 -1.54876e-06 0)
(1.37374e-08 -1.55134e-06 0)
(1.36764e-08 -1.55392e-06 0)
(1.36152e-08 -1.55649e-06 0)
(1.35539e-08 -1.55905e-06 0)
(1.34924e-08 -1.56161e-06 0)
(1.34307e-08 -1.56416e-06 0)
(1.33689e-08 -1.56671e-06 0)
(1.33069e-08 -1.56925e-06 0)
(1.32447e-08 -1.57179e-06 0)
(1.31824e-08 -1.57432e-06 0)
(1.31199e-08 -1.57684e-06 0)
(1.30573e-08 -1.57936e-06 0)
(1.29945e-08 -1.58187e-06 0)
(1.29315e-08 -1.58437e-06 0)
(1.28684e-08 -1.58687e-06 0)
(1.28052e-08 -1.58936e-06 0)
(1.27418e-08 -1.59185e-06 0)
(1.26782e-08 -1.59433e-06 0)
(1.26145e-08 -1.5968e-06 0)
(1.25506e-08 -1.59926e-06 0)
(1.24865e-08 -1.60172e-06 0)
(1.24224e-08 -1.60417e-06 0)
(1.2358e-08 -1.60662e-06 0)
(1.22936e-08 -1.60906e-06 0)
(1.22289e-08 -1.61149e-06 0)
(1.21642e-08 -1.61391e-06 0)
(1.20993e-08 -1.61633e-06 0)
(1.20342e-08 -1.61874e-06 0)
(1.1969e-08 -1.62114e-06 0)
(1.19037e-08 -1.62354e-06 0)
(1.18382e-08 -1.62592e-06 0)
(1.17725e-08 -1.6283e-06 0)
(1.17068e-08 -1.63067e-06 0)
(1.16409e-08 -1.63304e-06 0)
(1.15748e-08 -1.63539e-06 0)
(1.15087e-08 -1.63774e-06 0)
(1.14424e-08 -1.64008e-06 0)
(1.13759e-08 -1.64242e-06 0)
(1.13094e-08 -1.64474e-06 0)
(1.12427e-08 -1.64706e-06 0)
(1.11758e-08 -1.64936e-06 0)
(1.11089e-08 -1.65166e-06 0)
(1.10418e-08 -1.65395e-06 0)
(1.09745e-08 -1.65623e-06 0)
(1.09076e-08 -1.65853e-06 0)
(1.08384e-08 -1.66073e-06 0)
(1.07769e-08 -1.66311e-06 0)
(1.06739e-08 -1.66529e-06 0)
(1.05694e-08 -1.66719e-06 0)
(1.05115e-08 -1.66941e-06 0)
(1.04526e-08 -1.67146e-06 0)
(1.03961e-08 -1.67332e-06 0)
(1.03393e-08 -1.67532e-06 0)
(1.0282e-08 -1.67736e-06 0)
(1.0224e-08 -1.67941e-06 0)
(1.01653e-08 -1.68144e-06 0)
(1.0106e-08 -1.68349e-06 0)
(1.00459e-08 -1.68555e-06 0)
(9.98519e-09 -1.68762e-06 0)
(9.92373e-09 -1.6897e-06 0)
(9.86157e-09 -1.69179e-06 0)
(9.79869e-09 -1.69389e-06 0)
(9.73509e-09 -1.696e-06 0)
(9.67076e-09 -1.69812e-06 0)
(9.60571e-09 -1.70024e-06 0)
(9.53992e-09 -1.70238e-06 0)
(9.47339e-09 -1.70452e-06 0)
(9.40612e-09 -1.70667e-06 0)
(9.3381e-09 -1.70883e-06 0)
(9.26932e-09 -1.71099e-06 0)
(9.1998e-09 -1.71317e-06 0)
(9.12951e-09 -1.71535e-06 0)
(9.05845e-09 -1.71753e-06 0)
(8.98663e-09 -1.71973e-06 0)
(8.91404e-09 -1.72193e-06 0)
(8.84068e-09 -1.72413e-06 0)
(8.76653e-09 -1.72634e-06 0)
(8.69161e-09 -1.72856e-06 0)
(8.61589e-09 -1.73078e-06 0)
(8.5394e-09 -1.733e-06 0)
(8.46211e-09 -1.73523e-06 0)
(8.38402e-09 -1.73746e-06 0)
(8.30515e-09 -1.7397e-06 0)
(8.22547e-09 -1.74194e-06 0)
(8.145e-09 -1.74418e-06 0)
(8.06372e-09 -1.74642e-06 0)
(7.98164e-09 -1.74866e-06 0)
(7.89876e-09 -1.75091e-06 0)
(7.81507e-09 -1.75316e-06 0)
(7.73058e-09 -1.7554e-06 0)
(7.64528e-09 -1.75765e-06 0)
(7.55917e-09 -1.75989e-06 0)
(7.47225e-09 -1.76213e-06 0)
(7.38453e-09 -1.76437e-06 0)
(7.296e-09 -1.76661e-06 0)
(7.20667e-09 -1.76885e-06 0)
(7.11653e-09 -1.77108e-06 0)
(7.02558e-09 -1.7733e-06 0)
(6.93384e-09 -1.77553e-06 0)
(6.84129e-09 -1.77774e-06 0)
(6.74795e-09 -1.77995e-06 0)
(6.65381e-09 -1.78216e-06 0)
(6.55887e-09 -1.78435e-06 0)
(6.46315e-09 -1.78654e-06 0)
(6.36664e-09 -1.78872e-06 0)
(6.26935e-09 -1.79089e-06 0)
(6.17129e-09 -1.79305e-06 0)
(6.07244e-09 -1.79519e-06 0)
(5.97284e-09 -1.79733e-06 0)
(5.87247e-09 -1.79945e-06 0)
(5.77134e-09 -1.80156e-06 0)
(5.66946e-09 -1.80366e-06 0)
(5.56684e-09 -1.80574e-06 0)
(5.46349e-09 -1.8078e-06 0)
(5.3594e-09 -1.80985e-06 0)
(5.2546e-09 -1.81187e-06 0)
(5.14908e-09 -1.81388e-06 0)
(5.04286e-09 -1.81587e-06 0)
(4.93595e-09 -1.81784e-06 0)
(4.82836e-09 -1.81979e-06 0)
(4.7201e-09 -1.82172e-06 0)
(4.61117e-09 -1.82362e-06 0)
(4.5016e-09 -1.8255e-06 0)
(4.39139e-09 -1.82735e-06 0)
(4.28056e-09 -1.82918e-06 0)
(4.16912e-09 -1.83098e-06 0)
(4.05708e-09 -1.83275e-06 0)
(3.94446e-09 -1.83448e-06 0)
(3.83128e-09 -1.83619e-06 0)
(3.71754e-09 -1.83787e-06 0)
(3.60328e-09 -1.83951e-06 0)
(3.4885e-09 -1.84112e-06 0)
(3.37322e-09 -1.8427e-06 0)
(3.25747e-09 -1.84423e-06 0)
(3.14125e-09 -1.84573e-06 0)
(3.0246e-09 -1.84719e-06 0)
(2.90752e-09 -1.84861e-06 0)
(2.79005e-09 -1.84999e-06 0)
(2.67221e-09 -1.85133e-06 0)
(2.55401e-09 -1.85262e-06 0)
(2.43549e-09 -1.85386e-06 0)
(2.31666e-09 -1.85506e-06 0)
(2.19755e-09 -1.85621e-06 0)
(2.07819e-09 -1.85731e-06 0)
(1.9586e-09 -1.85836e-06 0)
(1.83882e-09 -1.85936e-06 0)
(1.71886e-09 -1.86031e-06 0)
(1.59876e-09 -1.8612e-06 0)
(1.47855e-09 -1.86203e-06 0)
(1.35825e-09 -1.86281e-06 0)
(1.23791e-09 -1.86353e-06 0)
(1.11754e-09 -1.86419e-06 0)
(9.9719e-10 -1.86478e-06 0)
(8.76885e-10 -1.86532e-06 0)
(7.56659e-10 -1.86578e-06 0)
(6.36548e-10 -1.86619e-06 0)
(5.16588e-10 -1.86652e-06 0)
(3.96814e-10 -1.86679e-06 0)
(2.77262e-10 -1.86699e-06 0)
(1.57971e-10 -1.86711e-06 0)
(3.8978e-11 -1.86716e-06 0)
(-7.96785e-11 -1.86714e-06 0)
(-1.97959e-10 -1.86704e-06 0)
(-3.15825e-10 -1.86687e-06 0)
(-4.33235e-10 -1.86662e-06 0)
(-5.50149e-10 -1.86628e-06 0)
(-6.66526e-10 -1.86587e-06 0)
(-7.82324e-10 -1.86537e-06 0)
(-8.97501e-10 -1.86479e-06 0)
(-1.01202e-09 -1.86413e-06 0)
(-1.12582e-09 -1.86337e-06 0)
(-1.23888e-09 -1.86253e-06 0)
(-1.35115e-09 -1.86161e-06 0)
(-1.46258e-09 -1.86059e-06 0)
(-1.57313e-09 -1.85947e-06 0)
(-1.68276e-09 -1.85827e-06 0)
(-1.79142e-09 -1.85697e-06 0)
(-1.89906e-09 -1.85558e-06 0)
(-2.00565e-09 -1.85409e-06 0)
(-2.11113e-09 -1.85251e-06 0)
(-2.21546e-09 -1.85082e-06 0)
(-2.3186e-09 -1.84904e-06 0)
(-2.42049e-09 -1.84715e-06 0)
(-2.5211e-09 -1.84517e-06 0)
(-2.62038e-09 -1.84308e-06 0)
(-2.71827e-09 -1.84089e-06 0)
(-2.81474e-09 -1.83859e-06 0)
(-2.90973e-09 -1.83619e-06 0)
(-3.0032e-09 -1.83368e-06 0)
(-3.09511e-09 -1.83107e-06 0)
(-3.1854e-09 -1.82835e-06 0)
(-3.27404e-09 -1.82553e-06 0)
(-3.36096e-09 -1.82259e-06 0)
(-3.44614e-09 -1.81955e-06 0)
(-3.52951e-09 -1.8164e-06 0)
(-3.61105e-09 -1.81314e-06 0)
(-3.69069e-09 -1.80976e-06 0)
(-3.76841e-09 -1.80628e-06 0)
(-3.84416e-09 -1.80269e-06 0)
(-3.9179e-09 -1.79899e-06 0)
(-3.98958e-09 -1.79518e-06 0)
(-4.05918e-09 -1.79126e-06 0)
(-4.12665e-09 -1.78723e-06 0)
(-4.19196e-09 -1.78309e-06 0)
(-4.25509e-09 -1.77884e-06 0)
(-4.31599e-09 -1.77448e-06 0)
(-4.37465e-09 -1.77002e-06 0)
(-4.43105e-09 -1.76544e-06 0)
(-4.48515e-09 -1.76076e-06 0)
(-4.53695e-09 -1.75597e-06 0)
(-4.58641e-09 -1.75108e-06 0)
(-4.63354e-09 -1.74608e-06 0)
(-4.67831e-09 -1.74097e-06 0)
(-4.72072e-09 -1.73576e-06 0)
(-4.76075e-09 -1.73045e-06 0)
(-4.79841e-09 -1.72504e-06 0)
(-4.83368e-09 -1.71953e-06 0)
(-4.86655e-09 -1.71391e-06 0)
(-4.89703e-09 -1.7082e-06 0)
(-4.9251e-09 -1.7024e-06 0)
(-4.95076e-09 -1.6965e-06 0)
(-4.97398e-09 -1.6905e-06 0)
(-4.99475e-09 -1.68441e-06 0)
(-5.01306e-09 -1.67824e-06 0)
(-5.02879e-09 -1.67197e-06 0)
(-5.04208e-09 -1.6656e-06 0)
(-5.05226e-09 -1.65923e-06 0)
(-5.06553e-09 -1.65253e-06 0)
(-5.07214e-09 -1.64604e-06 0)
(-5.05211e-09 -1.63887e-06 0)
(-5.03775e-09 -1.63041e-06 0)
(-5.03973e-09 -1.62221e-06 0)
(-5.03567e-09 -1.6142e-06 0)
(-5.02857e-09 -1.60605e-06 0)
(-5.01884e-09 -1.59789e-06 0)
(-5.00635e-09 -1.58976e-06 0)
(-4.99115e-09 -1.58166e-06 0)
(-4.97337e-09 -1.5736e-06 0)
(-4.9531e-09 -1.56556e-06 0)
(-4.93046e-09 -1.55756e-06 0)
(-4.90556e-09 -1.54959e-06 0)
(-4.87851e-09 -1.54167e-06 0)
(-4.84942e-09 -1.53379e-06 0)
(-4.8184e-09 -1.52596e-06 0)
(-4.78556e-09 -1.51818e-06 0)
(-4.75099e-09 -1.51046e-06 0)
(-4.7148e-09 -1.5028e-06 0)
(-4.67707e-09 -1.49519e-06 0)
(-4.63789e-09 -1.48765e-06 0)
(-4.59734e-09 -1.48017e-06 0)
(-4.55549e-09 -1.47276e-06 0)
(-4.51243e-09 -1.46542e-06 0)
(-4.4682e-09 -1.45814e-06 0)
(-4.42288e-09 -1.45095e-06 0)
(-4.37652e-09 -1.44382e-06 0)
(-4.32917e-09 -1.43677e-06 0)
(-4.28089e-09 -1.4298e-06 0)
(-4.23173e-09 -1.42291e-06 0)
(-4.18172e-09 -1.41609e-06 0)
(-4.13092e-09 -1.40936e-06 0)
(-4.07936e-09 -1.40272e-06 0)
(-4.02708e-09 -1.39615e-06 0)
(-3.97412e-09 -1.38968e-06 0)
(-3.9205e-09 -1.38328e-06 0)
(-3.86627e-09 -1.37698e-06 0)
(-3.81146e-09 -1.37076e-06 0)
(-3.7561e-09 -1.36464e-06 0)
(-3.7002e-09 -1.3586e-06 0)
(-3.64381e-09 -1.35266e-06 0)
(-3.58695e-09 -1.3468e-06 0)
(-3.52964e-09 -1.34104e-06 0)
(-3.4719e-09 -1.33537e-06 0)
(-3.41376e-09 -1.3298e-06 0)
(-3.35523e-09 -1.32432e-06 0)
(-3.29634e-09 -1.31894e-06 0)
(-3.2371e-09 -1.31365e-06 0)
(-3.17753e-09 -1.30846e-06 0)
(-3.11764e-09 -1.30336e-06 0)
(-3.05745e-09 -1.29836e-06 0)
(-2.99696e-09 -1.29346e-06 0)
(-2.93619e-09 -1.28866e-06 0)
(-2.87514e-09 -1.28395e-06 0)
(-2.81383e-09 -1.27935e-06 0)
(-2.75226e-09 -1.27484e-06 0)
(-2.69045e-09 -1.27044e-06 0)
(-2.62838e-09 -1.26613e-06 0)
(-2.56608e-09 -1.26193e-06 0)
(-2.50354e-09 -1.25782e-06 0)
(-2.44077e-09 -1.25382e-06 0)
(-2.37778e-09 -1.24992e-06 0)
(-2.31456e-09 -1.24612e-06 0)
(-2.25113e-09 -1.24242e-06 0)
(-2.18748e-09 -1.23883e-06 0)
(-2.12363e-09 -1.23534e-06 0)
(-2.05956e-09 -1.23195e-06 0)
(-1.9953e-09 -1.22867e-06 0)
(-1.93083e-09 -1.22549e-06 0)
(-1.86617e-09 -1.22242e-06 0)
(-1.80132e-09 -1.21945e-06 0)
(-1.73628e-09 -1.21658e-06 0)
(-1.67105e-09 -1.21382e-06 0)
(-1.60564e-09 -1.21117e-06 0)
(-1.54005e-09 -1.20862e-06 0)
(-1.47428e-09 -1.20617e-06 0)
(-1.40832e-09 -1.20384e-06 0)
(-1.34218e-09 -1.20161e-06 0)
(-1.27585e-09 -1.19949e-06 0)
(-1.20933e-09 -1.19747e-06 0)
(-1.14262e-09 -1.19557e-06 0)
(-1.0757e-09 -1.19377e-06 0)
(-1.00859e-09 -1.19208e-06 0)
(-9.41268e-10 -1.19049e-06 0)
(-8.73763e-10 -1.18902e-06 0)
(-8.06098e-10 -1.18766e-06 0)
(-7.3833e-10 -1.18641e-06 0)
(-6.70545e-10 -1.18525e-06 0)
(-6.02913e-10 -1.1843e-06 0)
(-5.35554e-10 -1.1831e-06 0)
(-4.69033e-10 -1.18318e-06 0)
(-4.02264e-10 -1.1794e-06 0)
(-3.39682e-10 -1.18839e-06 0)
(-2.62315e-10 -1.15234e-06 0)
(-2.35047e-10 -1.24657e-06 0)
(-1.28208e-10 -1.08846e-06 0)
)
;
    }
    bottomWall
    {
        type            calculated;
        value           nonuniform List<vector> 
449
(
(-48.6239 -0.965373 0)
(-19.7888 -0.00516426 0)
(-14.3761 -0.00113511 0)
(-12.0694 -0.000543587 0)
(-10.6732 -0.000346682 0)
(-9.70224 -0.00024543 0)
(-8.99338 -0.000174655 0)
(-8.50404 -0.000104041 0)
(-8.27836 -1.08012e-05 0)
(-8.43146 0.0001667 0)
(-9.43403 0.000320437 0)
(-10.6502 0.000296555 0)
(-11.4885 0.000187594 0)
(-11.9534 0.000102343 0)
(-12.2018 5.40502e-05 0)
(-12.3312 2.6124e-05 0)
(-12.3848 7.76233e-06 0)
(-12.3857 -5.08369e-06 0)
(-12.3489 -1.34443e-05 0)
(-12.2906 -1.85784e-05 0)
(-12.2171 -2.18936e-05 0)
(-12.1349 -2.37382e-05 0)
(-12.0479 -2.46936e-05 0)
(-11.9584 -2.5119e-05 0)
(-11.868 -2.51991e-05 0)
(-11.7774 -2.50198e-05 0)
(-11.6878 -2.46825e-05 0)
(-11.5993 -2.42439e-05 0)
(-11.5124 -2.37311e-05 0)
(-11.4272 -2.31723e-05 0)
(-11.344 -2.2584e-05 0)
(-11.2627 -2.19955e-05 0)
(-11.1835 -2.13937e-05 0)
(-11.1063 -2.07683e-05 0)
(-11.0312 -2.01454e-05 0)
(-10.9583 -1.95318e-05 0)
(-10.8875 -1.89312e-05 0)
(-10.8186 -1.83416e-05 0)
(-10.7518 -1.77761e-05 0)
(-10.6869 -1.72162e-05 0)
(-10.624 -1.66884e-05 0)
(-10.5627 -1.61711e-05 0)
(-10.5034 -1.56887e-05 0)
(-10.4454 -1.52166e-05 0)
(-10.3894 -1.47588e-05 0)
(-10.3346 -1.43128e-05 0)
(-10.2816 -1.38867e-05 0)
(-10.2298 -1.34775e-05 0)
(-10.1798 -1.30811e-05 0)
(-10.1307 -1.27059e-05 0)
(-10.0833 -1.23393e-05 0)
(-10.0368 -1.19912e-05 0)
(-9.99178 -1.16538e-05 0)
(-9.94767 -1.13355e-05 0)
(-9.90491 -1.1023e-05 0)
(-9.863 -1.07285e-05 0)
(-9.82232 -1.04439e-05 0)
(-9.78241 -1.01673e-05 0)
(-9.74368 -9.90781e-06 0)
(-9.7056 -9.65839e-06 0)
(-9.66864 -9.41542e-06 0)
(-9.63228 -9.17864e-06 0)
(-9.597 -8.94903e-06 0)
(-9.56227 -8.73198e-06 0)
(-9.52852 -8.51824e-06 0)
(-9.49531 -8.31803e-06 0)
(-9.46299 -8.11789e-06 0)
(-9.43121 -7.9335e-06 0)
(-9.4002 -7.74534e-06 0)
(-9.36977 -7.57145e-06 0)
(-9.33999 -7.39742e-06 0)
(-9.31081 -7.23112e-06 0)
(-9.28223 -7.0702e-06 0)
(-9.2542 -6.91635e-06 0)
(-9.22672 -6.76446e-06 0)
(-9.19979 -6.62209e-06 0)
(-9.17333 -6.47696e-06 0)
(-9.14744 -6.34306e-06 0)
(-9.12195 -6.21194e-06 0)
(-9.09701 -6.08229e-06 0)
(-9.07245 -5.96152e-06 0)
(-9.04838 -5.83827e-06 0)
(-9.02471 -5.72495e-06 0)
(-9.00146 -5.60037e-06 0)
(-8.97871 -5.49797e-06 0)
(-8.95619 -5.38952e-06 0)
(-8.93424 -5.29026e-06 0)
(-8.91243 -5.18653e-06 0)
(-8.89124 -5.09094e-06 0)
(-8.87012 -4.99796e-06 0)
(-8.84961 -4.90147e-06 0)
(-8.8292 -4.81431e-06 0)
(-8.80932 -4.721e-06 0)
(-8.7896 -4.64464e-06 0)
(-8.77026 -4.55964e-06 0)
(-8.75117 -4.48072e-06 0)
(-8.73241 -4.39801e-06 0)
(-8.71393 -4.32728e-06 0)
(-8.69569 -4.25001e-06 0)
(-8.67778 -4.1761e-06 0)
(-8.66008 -4.10711e-06 0)
(-8.64268 -4.03946e-06 0)
(-8.62547 -3.96394e-06 0)
(-8.60864 -3.89351e-06 0)
(-8.59196 -3.82545e-06 0)
(-8.57564 -3.76136e-06 0)
(-8.55944 -3.70385e-06 0)
(-8.54354 -3.63819e-06 0)
(-8.52784 -3.58199e-06 0)
(-8.51235 -3.52709e-06 0)
(-8.49705 -3.4695e-06 0)
(-8.482 -3.4117e-06 0)
(-8.46713 -3.3586e-06 0)
(-8.45248 -3.30761e-06 0)
(-8.43799 -3.2548e-06 0)
(-8.42374 -3.20457e-06 0)
(-8.40963 -3.15787e-06 0)
(-8.39572 -3.10173e-06 0)
(-8.38205 -3.04774e-06 0)
(-8.36856 -2.99812e-06 0)
(-8.35527 -2.94699e-06 0)
(-8.34218 -2.89932e-06 0)
(-8.32925 -2.86061e-06 0)
(-8.31645 -2.81711e-06 0)
(-8.30385 -2.77371e-06 0)
(-8.29138 -2.73568e-06 0)
(-8.27907 -2.69832e-06 0)
(-8.26688 -2.65929e-06 0)
(-8.25486 -2.62119e-06 0)
(-8.24296 -2.58131e-06 0)
(-8.23126 -2.54885e-06 0)
(-8.2196 -2.50898e-06 0)
(-8.20821 -2.46962e-06 0)
(-8.19686 -2.4333e-06 0)
(-8.18576 -2.38987e-06 0)
(-8.17476 -2.35589e-06 0)
(-8.16391 -2.32084e-06 0)
(-8.15319 -2.28785e-06 0)
(-8.1426 -2.25683e-06 0)
(-8.13212 -2.23208e-06 0)
(-8.12171 -2.19933e-06 0)
(-8.11148 -2.17788e-06 0)
(-8.10123 -2.14794e-06 0)
(-8.09123 -2.12689e-06 0)
(-8.08113 -2.10573e-06 0)
(-8.07129 -2.07852e-06 0)
(-8.06139 -2.05354e-06 0)
(-8.05174 -2.03159e-06 0)
(-8.04201 -2.0152e-06 0)
(-8.03247 -1.99469e-06 0)
(-8.02288 -1.97835e-06 0)
(-8.01346 -1.94616e-06 0)
(-8.00415 -1.91442e-06 0)
(-7.99498 -1.87599e-06 0)
(-7.98601 -1.83718e-06 0)
(-7.97719 -1.79825e-06 0)
(-7.96855 -1.76405e-06 0)
(-7.96002 -1.74004e-06 0)
(-7.95157 -1.71772e-06 0)
(-7.94322 -1.69992e-06 0)
(-7.9349 -1.68757e-06 0)
(-7.92663 -1.67058e-06 0)
(-7.91844 -1.64674e-06 0)
(-7.91036 -1.63302e-06 0)
(-7.90227 -1.60617e-06 0)
(-7.89443 -1.57286e-06 0)
(-7.88663 -1.55568e-06 0)
(-7.87892 -1.5368e-06 0)
(-7.87128 -1.52224e-06 0)
(-7.86367 -1.51527e-06 0)
(-7.85606 -1.51388e-06 0)
(-7.84843 -1.49795e-06 0)
(-7.84095 -1.47836e-06 0)
(-7.83389 -1.47853e-06 0)
(-7.82718 -1.46914e-06 0)
(-7.82052 -1.45701e-06 0)
(-7.81378 -1.44034e-06 0)
(-7.80713 -1.41005e-06 0)
(-7.80053 -1.38921e-06 0)
(-7.79393 -1.36914e-06 0)
(-7.78738 -1.35737e-06 0)
(-7.78075 -1.35538e-06 0)
(-7.77407 -1.34048e-06 0)
(-7.76744 -1.31665e-06 0)
(-7.76086 -1.28861e-06 0)
(-7.75438 -1.25055e-06 0)
(-7.74806 -1.21943e-06 0)
(-7.74176 -1.19749e-06 0)
(-7.73553 -1.16978e-06 0)
(-7.72939 -1.14822e-06 0)
(-7.72325 -1.13286e-06 0)
(-7.71715 -1.11207e-06 0)
(-7.7111 -1.0981e-06 0)
(-7.70502 -1.08732e-06 0)
(-7.69896 -1.06932e-06 0)
(-7.69295 -1.05637e-06 0)
(-7.68691 -1.04572e-06 0)
(-7.68089 -1.0295e-06 0)
(-7.67491 -1.01909e-06 0)
(-7.66888 -1.00882e-06 0)
(-7.66289 -9.92697e-07 0)
(-7.65693 -9.81618e-07 0)
(-7.65095 -9.71562e-07 0)
(-7.64498 -9.54061e-07 0)
(-7.63909 -9.4494e-07 0)
(-7.6331 -9.29632e-07 0)
(-7.62728 -9.15509e-07 0)
(-7.62134 -9.06845e-07 0)
(-7.6155 -8.94388e-07 0)
(-7.60961 -8.93939e-07 0)
(-7.60364 -8.85536e-07 0)
(-7.59773 -8.69802e-07 0)
(-7.59185 -8.60128e-07 0)
(-7.58594 -8.34394e-07 0)
(-7.5803 -8.11364e-07 0)
(-7.57458 -8.07958e-07 0)
(-7.56886 -7.89076e-07 0)
(-7.5633 -7.90284e-07 0)
(-7.55742 -7.9443e-07 0)
(-7.55168 -7.7479e-07 0)
(-7.54597 -7.61896e-07 0)
(-7.5403 -7.4277e-07 0)
(-7.53476 -7.27252e-07 0)
(-7.5292 -7.07773e-07 0)
(-7.52386 -6.81518e-07 0)
(-7.51859 -6.66164e-07 0)
(-7.51336 -6.51913e-07 0)
(-7.5082 -6.4158e-07 0)
(-7.50303 -6.36065e-07 0)
(-7.49785 -6.18e-07 0)
(-7.49287 -6.07915e-07 0)
(-7.48774 -6.10041e-07 0)
(-7.48261 -6.07433e-07 0)
(-7.47741 -6.06929e-07 0)
(-7.47217 -6.07831e-07 0)
(-7.46684 -5.91396e-07 0)
(-7.46179 -5.68776e-07 0)
(-7.45675 -5.57448e-07 0)
(-7.45179 -5.35676e-07 0)
(-7.44705 -5.34413e-07 0)
(-7.44199 -5.33101e-07 0)
(-7.43716 -5.13913e-07 0)
(-7.43236 -4.99634e-07 0)
(-7.42771 -4.9016e-07 0)
(-7.42299 -4.77781e-07 0)
(-7.41847 -4.64735e-07 0)
(-7.4139 -4.65058e-07 0)
(-7.40927 -4.57262e-07 0)
(-7.40476 -4.50544e-07 0)
(-7.40016 -4.40883e-07 0)
(-7.39575 -4.32586e-07 0)
(-7.39123 -4.19647e-07 0)
(-7.387 -4.04382e-07 0)
(-7.38271 -4.06742e-07 0)
(-7.37833 -3.9703e-07 0)
(-7.37416 -3.80642e-07 0)
(-7.37004 -3.69453e-07 0)
(-7.36602 -3.65851e-07 0)
(-7.36189 -3.61633e-07 0)
(-7.35788 -3.60492e-07 0)
(-7.35368 -3.64354e-07 0)
(-7.34949 -3.63198e-07 0)
(-7.34523 -3.68674e-07 0)
(-7.34081 -3.56208e-07 0)
(-7.33676 -3.37096e-07 0)
(-7.33272 -3.32555e-07 0)
(-7.32869 -3.23429e-07 0)
(-7.32478 -3.16996e-07 0)
(-7.32082 -3.17627e-07 0)
(-7.3168 -3.15756e-07 0)
(-7.3128 -3.15211e-07 0)
(-7.30871 -3.08562e-07 0)
(-7.30479 -2.89476e-07 0)
(-7.30112 -2.78187e-07 0)
(-7.29742 -2.85055e-07 0)
(-7.29347 -2.80667e-07 0)
(-7.28982 -2.70291e-07 0)
(-7.28607 -2.8296e-07 0)
(-7.28197 -2.81474e-07 0)
(-7.27819 -2.63548e-07 0)
(-7.27452 -2.65757e-07 0)
(-7.27058 -2.64211e-07 0)
(-7.26688 -2.52851e-07 0)
(-7.2632 -2.55302e-07 0)
(-7.25933 -2.51289e-07 0)
(-7.25569 -2.45071e-07 0)
(-7.25192 -2.49497e-07 0)
(-7.24807 -2.43832e-07 0)
(-7.2444 -2.41773e-07 0)
(-7.24052 -2.42785e-07 0)
(-7.23674 -2.32829e-07 0)
(-7.23309 -2.34138e-07 0)
(-7.22918 -2.3036e-07 0)
(-7.22558 -2.18979e-07 0)
(-7.22196 -2.1947e-07 0)
(-7.21826 -2.21789e-07 0)
(-7.21449 -2.13633e-07 0)
(-7.211 -2.10273e-07 0)
(-7.20725 -2.22355e-07 0)
(-7.20325 -2.19407e-07 0)
(-7.19954 -2.04844e-07 0)
(-7.19597 -2.07686e-07 0)
(-7.19206 -2.0763e-07 0)
(-7.18842 -2.01905e-07 0)
(-7.18465 -2.01479e-07 0)
(-7.18095 -1.95532e-07 0)
(-7.17731 -2.00825e-07 0)
(-7.17332 -1.99589e-07 0)
(-7.16966 -1.85458e-07 0)
(-7.16614 -1.86976e-07 0)
(-7.16233 -1.85422e-07 0)
(-7.1588 -1.76273e-07 0)
(-7.15527 -1.81978e-07 0)
(-7.15142 -1.80926e-07 0)
(-7.14787 -1.71407e-07 0)
(-7.14433 -1.75894e-07 0)
(-7.14051 -1.73067e-07 0)
(-7.13702 -1.62248e-07 0)
(-7.13358 -1.65529e-07 0)
(-7.12986 -1.63513e-07 0)
(-7.12644 -1.54912e-07 0)
(-7.12303 -1.59219e-07 0)
(-7.11933 -1.57607e-07 0)
(-7.11592 -1.49671e-07 0)
(-7.11251 -1.53923e-07 0)
(-7.10882 -1.51903e-07 0)
(-7.10544 -1.44231e-07 0)
(-7.10203 -1.48464e-07 0)
(-7.09836 -1.4626e-07 0)
(-7.095 -1.38976e-07 0)
(-7.0916 -1.43307e-07 0)
(-7.08794 -1.40715e-07 0)
(-7.08461 -1.33784e-07 0)
(-7.08122 -1.37725e-07 0)
(-7.07761 -1.35124e-07 0)
(-7.07429 -1.286e-07 0)
(-7.07094 -1.3117e-07 0)
(-7.0674 -1.31229e-07 0)
(-7.06398 -1.25332e-07 0)
(-7.06069 -1.25171e-07 0)
(-7.05719 -1.23203e-07 0)
(-7.05394 -1.21447e-07 0)
(-7.05046 -1.21906e-07 0)
(-7.04711 -1.22905e-07 0)
(-7.0435 -1.27554e-07 0)
(-7.03981 -1.18516e-07 0)
(-7.03667 -1.0744e-07 0)
(-7.03354 -1.10585e-07 0)
(-7.03013 -1.06658e-07 0)
(-7.02718 -1.03607e-07 0)
(-7.02387 -1.04486e-07 0)
(-7.0208 -1.02447e-07 0)
(-7.01755 -1.02683e-07 0)
(-7.01439 -9.78648e-08 0)
(-7.01104 -9.43939e-08 0)
(-7.00739 -8.85656e-08 0)
(-7.00414 -8.58162e-08 0)
(-7.0007 -8.65707e-08 0)
(-6.99739 -9.08757e-08 0)
(-6.99361 -9.41299e-08 0)
(-6.99005 -9.08725e-08 0)
(-6.98653 -8.96991e-08 0)
(-6.98306 -8.67458e-08 0)
(-6.97978 -7.99396e-08 0)
(-6.97684 -7.79458e-08 0)
(-6.97369 -8.34117e-08 0)
(-6.97032 -8.33063e-08 0)
(-6.9672 -7.85185e-08 0)
(-6.9642 -8.05926e-08 0)
(-6.96091 -7.99085e-08 0)
(-6.95797 -7.73987e-08 0)
(-6.95488 -7.68391e-08 0)
(-6.95199 -7.11349e-08 0)
(-6.94934 -6.97603e-08 0)
(-6.94655 -6.70216e-08 0)
(-6.94412 -6.45012e-08 0)
(-6.94153 -6.47205e-08 0)
(-6.93908 -6.44442e-08 0)
(-6.9365 -6.773e-08 0)
(-6.93379 -6.98108e-08 0)
(-6.93106 -6.50083e-08 0)
(-6.92873 -6.12857e-08 0)
(-6.92628 -6.38843e-08 0)
(-6.92375 -5.99029e-08 0)
(-6.92162 -5.84383e-08 0)
(-6.9192 -6.00099e-08 0)
(-6.91694 -5.95073e-08 0)
(-6.91456 -5.81747e-08 0)
(-6.91241 -5.6372e-08 0)
(-6.91016 -5.79639e-08 0)
(-6.90789 -5.33699e-08 0)
(-6.90601 -5.30871e-08 0)
(-6.90376 -5.46192e-08 0)
(-6.90175 -5.50823e-08 0)
(-6.89946 -5.61262e-08 0)
(-6.89737 -5.15599e-08 0)
(-6.89544 -5.24079e-08 0)
(-6.89329 -5.1235e-08 0)
(-6.89145 -4.90882e-08 0)
(-6.88946 -5.00873e-08 0)
(-6.88754 -5.15536e-08 0)
(-6.88544 -5.47867e-08 0)
(-6.88328 -5.07192e-08 0)
(-6.8815 -4.91836e-08 0)
(-6.87945 -5.04764e-08 0)
(-6.87757 -4.92778e-08 0)
(-6.87561 -5.08634e-08 0)
(-6.87361 -4.63191e-08 0)
(-6.87201 -4.45952e-08 0)
(-6.87014 -4.58883e-08 0)
(-6.86844 -4.52638e-08 0)
(-6.86662 -4.36104e-08 0)
(-6.86504 -4.24721e-08 0)
(-6.86331 -4.46359e-08 0)
(-6.86158 -4.02945e-08 0)
(-6.86018 -3.88556e-08 0)
(-6.85855 -4.24426e-08 0)
(-6.85688 -3.94015e-08 0)
(-6.85549 -4.04666e-08 0)
(-6.85372 -4.39579e-08 0)
(-6.85206 -3.98249e-08 0)
(-6.85063 -4.01337e-08 0)
(-6.84893 -4.14332e-08 0)
(-6.8474 -3.80244e-08 0)
(-6.84598 -3.92162e-08 0)
(-6.84435 -3.94728e-08 0)
(-6.84291 -3.55167e-08 0)
(-6.84159 -3.70127e-08 0)
(-6.84003 -3.64962e-08 0)
(-6.83875 -3.60822e-08 0)
(-6.83722 -3.54516e-08 0)
(-6.83599 -3.28578e-08 0)
(-6.83467 -3.22403e-08 0)
(-6.83349 -2.92585e-08 0)
(-6.83239 -3.27828e-08 0)
(-6.83093 -3.61932e-08 0)
(-6.82958 -3.27701e-08 0)
(-6.82839 -3.40345e-08 0)
(-6.82693 -3.5595e-08 0)
(-6.82563 -3.20936e-08 0)
(-6.82444 -3.28225e-08 0)
(-6.82307 -3.34138e-08 0)
(-6.82185 -2.83653e-08 0)
(-6.82087 -3.26733e-08 0)
(-6.8193 -3.07695e-08 0)
(-6.81848 -3.6116e-08 0)
(-6.81647 -1.69622e-08 0)
(-6.81721 -3.27228e-08 0)
(-6.81383 -4.50601e-08 0)
)
;
    }
    symmetry
    {
        type            symmetryPlane;
    }
    frontAndBack
    {
        type            empty;
    }
}


// ************************************************************************* //
