/*--------------------------------*- C++ -*----------------------------------*\
| =========                 |                                                 |
| \\      /  F ield         | OpenFOAM: The Open Source CFD Toolbox           |
|  \\    /   O peration     | Version:  v2012                                 |
|   \\  /    A nd           | Website:  www.openfoam.com                      |
|    \\/     M anipulation  |                                                 |
\*---------------------------------------------------------------------------*/
FoamFile
{
    version     2.0;
    format      ascii;
    class       volScalarField;
    location    "38";
    object      yPlus;
}
// * * * * * * * * * * * * * * * * * * * * * * * * * * * * * * * * * * * * * //

dimensions      [0 0 0 0 0 0 0];


internalField   uniform 0;

boundaryField
{
    inlet
    {
        type            calculated;
        value           uniform 0;
    }
    outlet
    {
        type            calculated;
        value           uniform 0;
    }
    topWall
    {
        type            calculated;
        value           nonuniform List<scalar> 
545
(
0.0708254
0.122124
0.156667
0.184147
0.207398
0.22773
0.245876
0.262299
0.277314
0.291147
0.303969
0.315912
0.327079
0.337555
0.347412
0.356708
0.365494
0.373812
0.381701
0.389192
0.396317
0.403099
0.409564
0.415731
0.421619
0.427246
0.432627
0.437777
0.442709
0.447434
0.451965
0.456311
0.460482
0.464487
0.468334
0.472032
0.475587
0.479006
0.482296
0.485463
0.488511
0.491448
0.494277
0.497004
0.499633
0.502167
0.504612
0.506971
0.509247
0.511445
0.513566
0.515615
0.517594
0.519506
0.521353
0.523139
0.524865
0.526534
0.528148
0.529709
0.531219
0.53268
0.534094
0.535463
0.536788
0.538071
0.539313
0.540515
0.54168
0.542809
0.543902
0.544962
0.545975
0.546954
0.547925
0.548887
0.54984
0.550785
0.551721
0.552649
0.553569
0.554481
0.555384
0.55628
0.557168
0.558048
0.55892
0.559784
0.560641
0.561491
0.562333
0.563167
0.563995
0.564815
0.565628
0.566434
0.567159
0.567808
0.568456
0.569103
0.569749
0.570395
0.57104
0.571685
0.572329
0.572972
0.573614
0.574256
0.574897
0.575537
0.576177
0.576816
0.577454
0.578091
0.578728
0.579363
0.579999
0.580633
0.581266
0.581899
0.582531
0.583162
0.583793
0.584422
0.585051
0.585679
0.586306
0.586932
0.587557
0.588182
0.588805
0.589428
0.59005
0.590671
0.591291
0.59191
0.592528
0.593145
0.593761
0.594377
0.594991
0.595605
0.596217
0.596829
0.597439
0.598049
0.598657
0.599265
0.599871
0.600477
0.601081
0.601685
0.602287
0.602889
0.603489
0.604088
0.604686
0.605283
0.605879
0.606474
0.607067
0.60766
0.608251
0.608841
0.609431
0.610018
0.610605
0.611191
0.611775
0.612358
0.61294
0.613521
0.6141
0.614679
0.615256
0.615831
0.616406
0.616979
0.617551
0.618122
0.618691
0.619259
0.619826
0.620391
0.620955
0.621518
0.622079
0.622639
0.623198
0.623755
0.624311
0.624865
0.625418
0.62597
0.62652
0.627068
0.627615
0.628161
0.628705
0.629248
0.629789
0.630329
0.630867
0.631404
0.631939
0.632473
0.633005
0.633535
0.634064
0.634591
0.635117
0.635641
0.636164
0.636685
0.637204
0.637721
0.638237
0.638752
0.639264
0.639775
0.640284
0.640792
0.641297
0.641801
0.642303
0.642804
0.643303
0.6438
0.644295
0.644788
0.64528
0.645769
0.646257
0.646743
0.647228
0.64771
0.648191
0.648669
0.649146
0.649621
0.650094
0.650565
0.651034
0.651501
0.651966
0.652429
0.65289
0.65335
0.653807
0.654262
0.654715
0.655166
0.655615
0.656063
0.656508
0.65695
0.657391
0.65783
0.658267
0.658701
0.659134
0.659564
0.659992
0.660418
0.660842
0.661263
0.661683
0.6621
0.662515
0.662905
0.663272
0.66364
0.664009
0.66438
0.664752
0.665125
0.665499
0.665875
0.666252
0.666629
0.667008
0.667388
0.667769
0.668151
0.668533
0.668917
0.669301
0.669685
0.670071
0.670457
0.670843
0.67123
0.671618
0.672005
0.672393
0.672781
0.673169
0.673558
0.673946
0.674334
0.674722
0.67511
0.675497
0.675884
0.67627
0.676656
0.677041
0.677426
0.677809
0.678191
0.678573
0.678953
0.679332
0.679709
0.680086
0.68046
0.680833
0.681204
0.681573
0.68194
0.682304
0.682667
0.683027
0.683384
0.683739
0.684091
0.68444
0.684785
0.685128
0.685467
0.685803
0.686135
0.686463
0.686787
0.687107
0.687423
0.687734
0.68804
0.688342
0.688639
0.688931
0.689217
0.689498
0.689773
0.690042
0.690306
0.690563
0.690813
0.691057
0.691295
0.691525
0.691748
0.691964
0.692172
0.692372
0.692564
0.692748
0.692924
0.693091
0.693249
0.693398
0.693538
0.693668
0.693788
0.693899
0.693999
0.694089
0.694169
0.694237
0.694295
0.694341
0.694376
0.694398
0.694409
0.694408
0.694394
0.694368
0.694328
0.694276
0.69421
0.694131
0.694037
0.69393
0.693808
0.693672
0.693521
0.693356
0.693175
0.692979
0.692767
0.692539
0.692295
0.692036
0.691759
0.691466
0.691157
0.69083
0.690486
0.690125
0.689747
0.68935
0.688936
0.688504
0.688053
0.687584
0.687097
0.686591
0.686066
0.685523
0.68496
0.684378
0.683778
0.683158
0.682518
0.681859
0.681181
0.680483
0.679765
0.679028
0.678271
0.677494
0.676697
0.675881
0.675045
0.67419
0.673315
0.67242
0.671505
0.670572
0.669618
0.668646
0.667654
0.666643
0.665613
0.664565
0.663497
0.662411
0.661307
0.660185
0.659044
0.657886
0.656711
0.655518
0.654308
0.653082
0.651839
0.65058
0.649305
0.648015
0.646709
0.645241
0.643616
0.641993
0.640371
0.638752
0.637137
0.635525
0.633919
0.632319
0.630725
0.629138
0.627559
0.625988
0.624426
0.622873
0.621331
0.619799
0.618277
0.616768
0.61527
0.613784
0.612311
0.610851
0.609404
0.607971
0.606552
0.605147
0.603757
0.602382
0.601022
0.599677
0.598348
0.597035
0.595739
0.594459
0.593195
0.591948
0.590719
0.589507
0.588312
0.587135
0.585975
0.584834
0.583711
0.582606
0.58152
0.580452
0.579404
0.578374
0.577364
0.576373
0.575401
0.574449
0.573517
0.572605
0.571712
0.570841
0.569989
0.569158
0.568348
0.567558
0.566789
0.566042
0.565315
0.56461
0.563926
0.563264
0.562624
0.562005
0.561408
0.560834
0.560281
0.559751
0.559243
0.558758
0.558295
0.557855
0.557437
0.557043
0.556671
0.556323
0.555998
0.555695
0.555416
0.555161
0.554929
0.55472
0.554535
0.554373
0.554235
0.55412
0.554029
0.553961
0.55392
0.553891
)
;
    }
    bottomWall
    {
        type            calculated;
        value           nonuniform List<scalar> 
449
(
0.139453
0.0889615
0.0758109
0.069439
0.0652558
0.0621294
0.0596345
0.057571
0.0558201
0.0543039
0.0529703
0.0517827
0.0507147
0.0497462
0.0488615
0.0480483
0.0472968
0.046599
0.0459482
0.045339
0.0447669
0.0442278
0.0437185
0.0432362
0.0427782
0.0423425
0.0419271
0.0415304
0.0411509
0.0407873
0.0404384
0.0401031
0.0397806
0.0394699
0.0391702
0.0388809
0.0386014
0.0383309
0.0380691
0.0378154
0.0375694
0.0373306
0.0370987
0.0368732
0.036654
0.0364406
0.0362328
0.0360303
0.0358329
0.0356404
0.0354524
0.0352689
0.0350897
0.0349145
0.0347431
0.0345756
0.0344115
0.034251
0.0340937
0.0339397
0.0337887
0.0336406
0.0334955
0.033353
0.0332132
0.033076
0.0329412
0.0328089
0.0326788
0.032551
0.0324254
0.0323019
0.0321804
0.0320608
0.0319432
0.0318275
0.0317135
0.0316013
0.0314908
0.0313819
0.0312747
0.031169
0.0310648
0.0309622
0.0308609
0.0307611
0.0306626
0.0305654
0.0304696
0.030375
0.0302816
0.0301895
0.0300985
0.0300087
0.0299199
0.0298323
0.0297458
0.0296602
0.0295758
0.0294923
0.0294097
0.0293281
0.0292475
0.0291678
0.0290889
0.029011
0.0289338
0.0288576
0.0287821
0.0287075
0.0286336
0.0285605
0.0284881
0.0284165
0.0283457
0.0282755
0.028206
0.0281372
0.0280691
0.0280017
0.0279349
0.0278687
0.0278032
0.0277382
0.0276739
0.0276102
0.027547
0.0274844
0.0274224
0.0273609
0.0273
0.0272396
0.0271797
0.0271203
0.0270615
0.0270031
0.0269452
0.0268878
0.0268309
0.0267745
0.0267185
0.0266629
0.0266078
0.0265532
0.0264989
0.0264451
0.0263917
0.0263388
0.0262862
0.026234
0.0261822
0.0261309
0.0260798
0.0260292
0.0259789
0.0259291
0.0258795
0.0258303
0.0257815
0.025733
0.0256849
0.0256371
0.0255896
0.0255424
0.0254956
0.0254491
0.0254029
0.025357
0.0253114
0.0252662
0.0252212
0.0251765
0.0251321
0.0250905
0.0250514
0.025012
0.0249727
0.0249332
0.0248936
0.0248538
0.024814
0.0247741
0.0247341
0.0246939
0.0246537
0.0246133
0.0245728
0.0245323
0.0244916
0.0244508
0.02441
0.024369
0.0243279
0.0242868
0.0242455
0.0242042
0.0241627
0.0241212
0.0240796
0.0240379
0.0239961
0.0239542
0.0239122
0.0238702
0.023828
0.0237858
0.0237435
0.0237012
0.0236587
0.0236162
0.0235736
0.0235309
0.0234881
0.0234453
0.0234024
0.0233595
0.0233164
0.0232733
0.0232302
0.023187
0.0231437
0.0231003
0.0230569
0.0230135
0.0229699
0.0229264
0.0228827
0.022839
0.0227953
0.0227515
0.0227077
0.0226638
0.0226198
0.0225759
0.0225318
0.0224878
0.0224437
0.0223995
0.0223553
0.0223111
0.0222668
0.0222225
0.0221782
0.0221338
0.0220894
0.022045
0.0220005
0.021956
0.0219115
0.0218669
0.0218224
0.0217778
0.0217331
0.0216885
0.0216438
0.0215992
0.0215545
0.0215098
0.021465
0.0214203
0.0213755
0.0213308
0.021286
0.0212412
0.0211964
0.0211516
0.0211068
0.021062
0.0210172
0.0209723
0.0209275
0.0208827
0.0208379
0.020793
0.0207482
0.0207034
0.0206586
0.0206138
0.020569
0.0205242
0.0204794
0.0204346
0.0203899
0.0203451
0.0203004
0.0202556
0.0202109
0.0201662
0.0201216
0.0200769
0.0200323
0.0199876
0.019943
0.0198985
0.0198539
0.0198094
0.0197649
0.0197204
0.0196759
0.0196315
0.0195871
0.0195427
0.0194984
0.0194541
0.0194098
0.0193655
0.0193213
0.0192771
0.019233
0.0191889
0.0191448
0.0191007
0.0190567
0.0190128
0.0189689
0.018925
0.0188811
0.0188373
0.0187936
0.0187498
0.0187062
0.0186625
0.018619
0.0185754
0.0185319
0.0184885
0.0184451
0.0184018
0.0183585
0.0183152
0.018272
0.0182289
0.0181858
0.0181427
0.0180998
0.0180568
0.0180139
0.0179711
0.0179284
0.0178856
0.017843
0.0178004
0.0177578
0.0177154
0.0176729
0.0176306
0.0175883
0.017546
0.0175039
0.0174617
0.0174197
0.0173777
0.0173358
0.0172939
0.0172473
0.0171967
0.0171469
0.0170977
0.0170492
0.0170014
0.0169543
0.0169079
0.0168621
0.0168169
0.0167723
0.0167283
0.016685
0.0166421
0.0165999
0.0165582
0.016517
0.0164763
0.0164361
0.0163965
0.0163573
0.0163186
0.0162804
0.0162426
0.0162052
0.0161683
0.0161319
0.0160958
0.0160602
0.0160249
0.0159901
0.0159556
0.0159215
0.0158878
0.0158545
0.0158215
0.0157888
0.0157565
0.0157246
0.0156929
0.0156616
0.0156306
0.0155999
0.0155696
0.0155395
0.0155097
0.0154802
0.0154511
0.0154221
0.0153935
0.0153651
0.015337
0.0153092
0.0152816
0.0152543
0.0152272
0.0152004
0.0151738
0.0151474
0.0151213
0.0150954
0.0150697
0.0150443
0.0150191
0.0149941
0.0149693
0.0149447
0.0149203
0.0148961
0.0148721
0.0148483
0.0148247
0.0148013
0.0147781
0.014755
0.0147322
0.0147095
0.0146869
0.0146646
0.0146424
0.0146204
0.0145985
0.0145768
0.0145552
0.0145338
0.0145124
0.0144912
0.0144702
0.0144491
0.0144279
0.0144076
0.0143873
0.0143537
0.0143724
0.0143132
)
;
    }
    symmetry
    {
        type            symmetryPlane;
    }
    frontAndBack
    {
        type            empty;
    }
}


// ************************************************************************* //
