/*--------------------------------*- C++ -*----------------------------------*\
| =========                 |                                                 |
| \\      /  F ield         | OpenFOAM: The Open Source CFD Toolbox           |
|  \\    /   O peration     | Version:  v2012                                 |
|   \\  /    A nd           | Website:  www.openfoam.com                      |
|    \\/     M anipulation  |                                                 |
\*---------------------------------------------------------------------------*/
FoamFile
{
    version     2.0;
    format      ascii;
    class       volVectorField;
    location    "5.5";
    object      wallShearStress;
}
// * * * * * * * * * * * * * * * * * * * * * * * * * * * * * * * * * * * * * //

dimensions      [0 2 -2 0 0 0 0];


internalField   uniform (0 0 0);

boundaryField
{
    inlet
    {
        type            calculated;
        value           uniform (0 0 0);
    }
    outlet
    {
        type            calculated;
        value           uniform (0 0 0);
    }
    topWall
    {
        type            calculated;
        value           nonuniform List<vector> 
545
(
(8.28033e-09 -5.8015e-09 0)
(8.29484e-09 -1.63461e-08 0)
(8.23362e-09 -2.7207e-08 0)
(8.20481e-09 -3.77304e-08 0)
(8.18019e-09 -4.77819e-08 0)
(8.15403e-09 -5.74921e-08 0)
(8.12485e-09 -6.69468e-08 0)
(8.09252e-09 -7.61427e-08 0)
(8.05727e-09 -8.50583e-08 0)
(8.01937e-09 -9.36921e-08 0)
(7.97911e-09 -1.02055e-07 0)
(7.93672e-09 -1.10156e-07 0)
(7.89245e-09 -1.18002e-07 0)
(7.8465e-09 -1.25598e-07 0)
(7.7991e-09 -1.32949e-07 0)
(7.75042e-09 -1.40062e-07 0)
(7.70065e-09 -1.46943e-07 0)
(7.64995e-09 -1.536e-07 0)
(7.59848e-09 -1.60038e-07 0)
(7.54638e-09 -1.66263e-07 0)
(7.49378e-09 -1.72283e-07 0)
(7.44079e-09 -1.78102e-07 0)
(7.38753e-09 -1.83728e-07 0)
(7.33411e-09 -1.89166e-07 0)
(7.28061e-09 -1.94423e-07 0)
(7.22711e-09 -1.99503e-07 0)
(7.1737e-09 -2.04412e-07 0)
(7.12044e-09 -2.09157e-07 0)
(7.0674e-09 -2.13743e-07 0)
(7.01463e-09 -2.18174e-07 0)
(6.96218e-09 -2.22456e-07 0)
(6.91011e-09 -2.26594e-07 0)
(6.85845e-09 -2.30592e-07 0)
(6.80723e-09 -2.34456e-07 0)
(6.75649e-09 -2.38191e-07 0)
(6.70626e-09 -2.41799e-07 0)
(6.65656e-09 -2.45287e-07 0)
(6.60741e-09 -2.48657e-07 0)
(6.55882e-09 -2.51914e-07 0)
(6.51082e-09 -2.55063e-07 0)
(6.46341e-09 -2.58105e-07 0)
(6.4166e-09 -2.61046e-07 0)
(6.3704e-09 -2.63889e-07 0)
(6.32481e-09 -2.66637e-07 0)
(6.27984e-09 -2.69293e-07 0)
(6.23548e-09 -2.71861e-07 0)
(6.19174e-09 -2.74344e-07 0)
(6.14861e-09 -2.76744e-07 0)
(6.10609e-09 -2.79065e-07 0)
(6.06417e-09 -2.81309e-07 0)
(6.02285e-09 -2.83479e-07 0)
(5.98211e-09 -2.85577e-07 0)
(5.94195e-09 -2.87607e-07 0)
(5.90237e-09 -2.89569e-07 0)
(5.86334e-09 -2.91467e-07 0)
(5.82486e-09 -2.93303e-07 0)
(5.78692e-09 -2.95079e-07 0)
(5.7495e-09 -2.96797e-07 0)
(5.71259e-09 -2.98458e-07 0)
(5.67618e-09 -3.00066e-07 0)
(5.64025e-09 -3.01621e-07 0)
(5.60479e-09 -3.03126e-07 0)
(5.56978e-09 -3.04581e-07 0)
(5.53521e-09 -3.0599e-07 0)
(5.50106e-09 -3.07353e-07 0)
(5.46732e-09 -3.08672e-07 0)
(5.43397e-09 -3.09948e-07 0)
(5.40099e-09 -3.11183e-07 0)
(5.36843e-09 -3.12379e-07 0)
(5.33591e-09 -3.13532e-07 0)
(5.30498e-09 -3.14666e-07 0)
(5.26892e-09 -3.15721e-07 0)
(5.23537e-09 -3.16753e-07 0)
(5.21134e-09 -3.17793e-07 0)
(5.18743e-09 -3.18767e-07 0)
(5.1636e-09 -3.19733e-07 0)
(5.13981e-09 -3.20705e-07 0)
(5.11607e-09 -3.21672e-07 0)
(5.09237e-09 -3.22627e-07 0)
(5.06872e-09 -3.23571e-07 0)
(5.0451e-09 -3.24506e-07 0)
(5.02153e-09 -3.25434e-07 0)
(4.998e-09 -3.26353e-07 0)
(4.97451e-09 -3.27263e-07 0)
(4.95107e-09 -3.28165e-07 0)
(4.92767e-09 -3.29059e-07 0)
(4.90431e-09 -3.29944e-07 0)
(4.881e-09 -3.30821e-07 0)
(4.85774e-09 -3.3169e-07 0)
(4.83452e-09 -3.3255e-07 0)
(4.81138e-09 -3.33404e-07 0)
(4.78815e-09 -3.34246e-07 0)
(4.76553e-09 -3.35093e-07 0)
(4.74053e-09 -3.35896e-07 0)
(4.72589e-09 -3.36844e-07 0)
(4.66724e-09 -3.37474e-07 0)
(4.59672e-09 -3.38104e-07 0)
(4.57488e-09 -3.3902e-07 0)
(4.55697e-09 -3.3962e-07 0)
(4.54011e-09 -3.40184e-07 0)
(4.52343e-09 -3.4081e-07 0)
(4.50677e-09 -3.41467e-07 0)
(4.49006e-09 -3.42114e-07 0)
(4.4733e-09 -3.42749e-07 0)
(4.45648e-09 -3.43381e-07 0)
(4.43962e-09 -3.44015e-07 0)
(4.4227e-09 -3.4465e-07 0)
(4.40572e-09 -3.45283e-07 0)
(4.38869e-09 -3.45915e-07 0)
(4.3716e-09 -3.46546e-07 0)
(4.35446e-09 -3.47176e-07 0)
(4.33727e-09 -3.47805e-07 0)
(4.32002e-09 -3.48433e-07 0)
(4.30271e-09 -3.4906e-07 0)
(4.28535e-09 -3.49686e-07 0)
(4.26794e-09 -3.50311e-07 0)
(4.25047e-09 -3.50935e-07 0)
(4.23294e-09 -3.51558e-07 0)
(4.21537e-09 -3.52179e-07 0)
(4.19774e-09 -3.528e-07 0)
(4.18005e-09 -3.53419e-07 0)
(4.16231e-09 -3.54037e-07 0)
(4.14451e-09 -3.54654e-07 0)
(4.12666e-09 -3.5527e-07 0)
(4.10876e-09 -3.55885e-07 0)
(4.09081e-09 -3.56498e-07 0)
(4.07279e-09 -3.5711e-07 0)
(4.05473e-09 -3.57721e-07 0)
(4.03661e-09 -3.58331e-07 0)
(4.01844e-09 -3.58939e-07 0)
(4.00022e-09 -3.59546e-07 0)
(3.98194e-09 -3.60151e-07 0)
(3.9636e-09 -3.60755e-07 0)
(3.94522e-09 -3.61358e-07 0)
(3.92678e-09 -3.6196e-07 0)
(3.90829e-09 -3.6256e-07 0)
(3.88975e-09 -3.63158e-07 0)
(3.87115e-09 -3.63756e-07 0)
(3.8525e-09 -3.64351e-07 0)
(3.8338e-09 -3.64945e-07 0)
(3.81505e-09 -3.65538e-07 0)
(3.79624e-09 -3.66129e-07 0)
(3.77738e-09 -3.66719e-07 0)
(3.75847e-09 -3.67307e-07 0)
(3.73951e-09 -3.67894e-07 0)
(3.7205e-09 -3.68478e-07 0)
(3.70143e-09 -3.69062e-07 0)
(3.68232e-09 -3.69643e-07 0)
(3.66315e-09 -3.70223e-07 0)
(3.64393e-09 -3.70802e-07 0)
(3.62466e-09 -3.71378e-07 0)
(3.60534e-09 -3.71953e-07 0)
(3.58597e-09 -3.72527e-07 0)
(3.56655e-09 -3.73098e-07 0)
(3.54708e-09 -3.73668e-07 0)
(3.52756e-09 -3.74236e-07 0)
(3.50799e-09 -3.74802e-07 0)
(3.48837e-09 -3.75366e-07 0)
(3.46871e-09 -3.75928e-07 0)
(3.44899e-09 -3.76489e-07 0)
(3.42922e-09 -3.77048e-07 0)
(3.40941e-09 -3.77604e-07 0)
(3.38955e-09 -3.78159e-07 0)
(3.36963e-09 -3.78712e-07 0)
(3.34968e-09 -3.79263e-07 0)
(3.32967e-09 -3.79812e-07 0)
(3.30961e-09 -3.80359e-07 0)
(3.28951e-09 -3.80904e-07 0)
(3.26937e-09 -3.81447e-07 0)
(3.24917e-09 -3.81987e-07 0)
(3.22893e-09 -3.82526e-07 0)
(3.20864e-09 -3.83063e-07 0)
(3.18831e-09 -3.83597e-07 0)
(3.16793e-09 -3.84129e-07 0)
(3.14751e-09 -3.8466e-07 0)
(3.12704e-09 -3.85188e-07 0)
(3.10652e-09 -3.85713e-07 0)
(3.08596e-09 -3.86237e-07 0)
(3.06536e-09 -3.86758e-07 0)
(3.04471e-09 -3.87277e-07 0)
(3.02402e-09 -3.87794e-07 0)
(3.00329e-09 -3.88308e-07 0)
(2.98251e-09 -3.8882e-07 0)
(2.96169e-09 -3.8933e-07 0)
(2.94083e-09 -3.89837e-07 0)
(2.91993e-09 -3.90342e-07 0)
(2.89898e-09 -3.90844e-07 0)
(2.878e-09 -3.91344e-07 0)
(2.85697e-09 -3.91842e-07 0)
(2.8359e-09 -3.92337e-07 0)
(2.81479e-09 -3.92829e-07 0)
(2.79365e-09 -3.93319e-07 0)
(2.77246e-09 -3.93806e-07 0)
(2.75123e-09 -3.94291e-07 0)
(2.72996e-09 -3.94774e-07 0)
(2.70866e-09 -3.95253e-07 0)
(2.68732e-09 -3.9573e-07 0)
(2.66594e-09 -3.96205e-07 0)
(2.64452e-09 -3.96676e-07 0)
(2.62306e-09 -3.97145e-07 0)
(2.60157e-09 -3.97611e-07 0)
(2.58005e-09 -3.98075e-07 0)
(2.55848e-09 -3.98535e-07 0)
(2.53688e-09 -3.98993e-07 0)
(2.51525e-09 -3.99448e-07 0)
(2.49358e-09 -3.99901e-07 0)
(2.47188e-09 -4.0035e-07 0)
(2.45015e-09 -4.00796e-07 0)
(2.42838e-09 -4.0124e-07 0)
(2.40658e-09 -4.01681e-07 0)
(2.38474e-09 -4.02118e-07 0)
(2.36288e-09 -4.02553e-07 0)
(2.34098e-09 -4.02985e-07 0)
(2.31906e-09 -4.03413e-07 0)
(2.2971e-09 -4.03839e-07 0)
(2.27511e-09 -4.04262e-07 0)
(2.25309e-09 -4.04681e-07 0)
(2.23105e-09 -4.05098e-07 0)
(2.20897e-09 -4.05511e-07 0)
(2.18687e-09 -4.05921e-07 0)
(2.16474e-09 -4.06328e-07 0)
(2.14259e-09 -4.06732e-07 0)
(2.1204e-09 -4.07132e-07 0)
(2.09819e-09 -4.0753e-07 0)
(2.07596e-09 -4.07924e-07 0)
(2.0537e-09 -4.08314e-07 0)
(2.03142e-09 -4.08702e-07 0)
(2.00911e-09 -4.09086e-07 0)
(1.98678e-09 -4.09467e-07 0)
(1.96443e-09 -4.09844e-07 0)
(1.94205e-09 -4.10218e-07 0)
(1.91965e-09 -4.10589e-07 0)
(1.89724e-09 -4.10956e-07 0)
(1.8748e-09 -4.11319e-07 0)
(1.85234e-09 -4.1168e-07 0)
(1.82986e-09 -4.12036e-07 0)
(1.80737e-09 -4.12389e-07 0)
(1.78485e-09 -4.12739e-07 0)
(1.76232e-09 -4.13085e-07 0)
(1.73977e-09 -4.13427e-07 0)
(1.71721e-09 -4.13766e-07 0)
(1.69463e-09 -4.14101e-07 0)
(1.67203e-09 -4.14433e-07 0)
(1.64942e-09 -4.14761e-07 0)
(1.6268e-09 -4.15085e-07 0)
(1.60416e-09 -4.15405e-07 0)
(1.58151e-09 -4.15722e-07 0)
(1.55885e-09 -4.16035e-07 0)
(1.53618e-09 -4.16344e-07 0)
(1.5135e-09 -4.16649e-07 0)
(1.49081e-09 -4.1695e-07 0)
(1.4681e-09 -4.17248e-07 0)
(1.44539e-09 -4.17541e-07 0)
(1.42268e-09 -4.17831e-07 0)
(1.39995e-09 -4.18117e-07 0)
(1.37722e-09 -4.18399e-07 0)
(1.35448e-09 -4.18677e-07 0)
(1.33174e-09 -4.18951e-07 0)
(1.30899e-09 -4.19221e-07 0)
(1.28624e-09 -4.19486e-07 0)
(1.26349e-09 -4.19748e-07 0)
(1.24073e-09 -4.20006e-07 0)
(1.21797e-09 -4.20259e-07 0)
(1.19523e-09 -4.2051e-07 0)
(1.1724e-09 -4.20753e-07 0)
(1.14991e-09 -4.21003e-07 0)
(1.126e-09 -4.21215e-07 0)
(1.10803e-09 -4.21573e-07 0)
(1.06467e-09 -4.2163e-07 0)
(1.01351e-09 -4.21731e-07 0)
(9.912e-10 -4.22178e-07 0)
(9.7328e-10 -4.22341e-07 0)
(9.5641e-10 -4.22453e-07 0)
(9.39583e-10 -4.2262e-07 0)
(9.22605e-10 -4.22817e-07 0)
(9.05424e-10 -4.23008e-07 0)
(8.88029e-10 -4.23187e-07 0)
(8.7042e-10 -4.23361e-07 0)
(8.52594e-10 -4.23537e-07 0)
(8.34553e-10 -4.23711e-07 0)
(8.16295e-10 -4.23884e-07 0)
(7.97821e-10 -4.24055e-07 0)
(7.79132e-10 -4.24223e-07 0)
(7.60228e-10 -4.24389e-07 0)
(7.41109e-10 -4.24552e-07 0)
(7.21776e-10 -4.24713e-07 0)
(7.02229e-10 -4.24872e-07 0)
(6.82469e-10 -4.25028e-07 0)
(6.62496e-10 -4.25181e-07 0)
(6.42312e-10 -4.25331e-07 0)
(6.21916e-10 -4.25478e-07 0)
(6.0131e-10 -4.25622e-07 0)
(5.80495e-10 -4.25762e-07 0)
(5.59472e-10 -4.25899e-07 0)
(5.38241e-10 -4.26032e-07 0)
(5.16804e-10 -4.26161e-07 0)
(4.95161e-10 -4.26287e-07 0)
(4.73315e-10 -4.26408e-07 0)
(4.51266e-10 -4.26525e-07 0)
(4.29016e-10 -4.26637e-07 0)
(4.06566e-10 -4.26745e-07 0)
(3.83917e-10 -4.26849e-07 0)
(3.61072e-10 -4.26947e-07 0)
(3.38032e-10 -4.2704e-07 0)
(3.14799e-10 -4.27128e-07 0)
(2.91374e-10 -4.27211e-07 0)
(2.6776e-10 -4.27288e-07 0)
(2.43958e-10 -4.27359e-07 0)
(2.19971e-10 -4.27424e-07 0)
(1.95801e-10 -4.27483e-07 0)
(1.7145e-10 -4.27535e-07 0)
(1.46922e-10 -4.27581e-07 0)
(1.22217e-10 -4.2762e-07 0)
(9.73397e-11 -4.27653e-07 0)
(7.2292e-11 -4.27677e-07 0)
(4.7077e-11 -4.27695e-07 0)
(2.16977e-11 -4.27705e-07 0)
(-3.84283e-12 -4.27707e-07 0)
(-2.95413e-11 -4.27701e-07 0)
(-5.53943e-11 -4.27687e-07 0)
(-8.13983e-11 -4.27664e-07 0)
(-1.0755e-10 -4.27632e-07 0)
(-1.33845e-10 -4.27592e-07 0)
(-1.6028e-10 -4.27542e-07 0)
(-1.8685e-10 -4.27483e-07 0)
(-2.13552e-10 -4.27414e-07 0)
(-2.40382e-10 -4.27335e-07 0)
(-2.67334e-10 -4.27246e-07 0)
(-2.94404e-10 -4.27146e-07 0)
(-3.21587e-10 -4.27036e-07 0)
(-3.48879e-10 -4.26915e-07 0)
(-3.76274e-10 -4.26782e-07 0)
(-4.03767e-10 -4.26638e-07 0)
(-4.31353e-10 -4.26482e-07 0)
(-4.59026e-10 -4.26314e-07 0)
(-4.8678e-10 -4.26134e-07 0)
(-5.1461e-10 -4.25941e-07 0)
(-5.42509e-10 -4.25735e-07 0)
(-5.70471e-10 -4.25516e-07 0)
(-5.98491e-10 -4.25284e-07 0)
(-6.2656e-10 -4.25038e-07 0)
(-6.54673e-10 -4.24777e-07 0)
(-6.82822e-10 -4.24503e-07 0)
(-7.11001e-10 -4.24214e-07 0)
(-7.39203e-10 -4.23909e-07 0)
(-7.67418e-10 -4.2359e-07 0)
(-7.95641e-10 -4.23255e-07 0)
(-8.23864e-10 -4.22904e-07 0)
(-8.52077e-10 -4.22538e-07 0)
(-8.80274e-10 -4.22154e-07 0)
(-9.08445e-10 -4.21754e-07 0)
(-9.36583e-10 -4.21337e-07 0)
(-9.64679e-10 -4.20903e-07 0)
(-9.92723e-10 -4.20451e-07 0)
(-1.02071e-09 -4.19981e-07 0)
(-1.04862e-09 -4.19492e-07 0)
(-1.07646e-09 -4.18986e-07 0)
(-1.1042e-09 -4.1846e-07 0)
(-1.13185e-09 -4.17915e-07 0)
(-1.15939e-09 -4.1735e-07 0)
(-1.18681e-09 -4.16766e-07 0)
(-1.21411e-09 -4.16162e-07 0)
(-1.24126e-09 -4.15537e-07 0)
(-1.26827e-09 -4.14892e-07 0)
(-1.29511e-09 -4.14226e-07 0)
(-1.32179e-09 -4.13538e-07 0)
(-1.34828e-09 -4.12829e-07 0)
(-1.37458e-09 -4.12098e-07 0)
(-1.40067e-09 -4.11344e-07 0)
(-1.42655e-09 -4.10569e-07 0)
(-1.45221e-09 -4.0977e-07 0)
(-1.47762e-09 -4.08949e-07 0)
(-1.50279e-09 -4.08105e-07 0)
(-1.52769e-09 -4.07237e-07 0)
(-1.55232e-09 -4.06345e-07 0)
(-1.57666e-09 -4.05429e-07 0)
(-1.60071e-09 -4.04489e-07 0)
(-1.62444e-09 -4.03525e-07 0)
(-1.64786e-09 -4.02536e-07 0)
(-1.67094e-09 -4.01522e-07 0)
(-1.69367e-09 -4.00482e-07 0)
(-1.71605e-09 -3.99418e-07 0)
(-1.73805e-09 -3.98328e-07 0)
(-1.75968e-09 -3.97212e-07 0)
(-1.78091e-09 -3.9607e-07 0)
(-1.80173e-09 -3.94902e-07 0)
(-1.82213e-09 -3.93708e-07 0)
(-1.84211e-09 -3.92487e-07 0)
(-1.86164e-09 -3.9124e-07 0)
(-1.88071e-09 -3.89967e-07 0)
(-1.89932e-09 -3.88666e-07 0)
(-1.91745e-09 -3.87339e-07 0)
(-1.9351e-09 -3.85984e-07 0)
(-1.95224e-09 -3.84603e-07 0)
(-1.96887e-09 -3.83194e-07 0)
(-1.98498e-09 -3.81759e-07 0)
(-2.00055e-09 -3.80296e-07 0)
(-2.01558e-09 -3.78806e-07 0)
(-2.03006e-09 -3.77288e-07 0)
(-2.04397e-09 -3.75744e-07 0)
(-2.05731e-09 -3.74172e-07 0)
(-2.07007e-09 -3.72573e-07 0)
(-2.08223e-09 -3.70947e-07 0)
(-2.09379e-09 -3.69294e-07 0)
(-2.10474e-09 -3.67613e-07 0)
(-2.11507e-09 -3.65907e-07 0)
(-2.12477e-09 -3.64173e-07 0)
(-2.13384e-09 -3.62413e-07 0)
(-2.14227e-09 -3.60626e-07 0)
(-2.15005e-09 -3.58813e-07 0)
(-2.15718e-09 -3.56974e-07 0)
(-2.16364e-09 -3.5511e-07 0)
(-2.16944e-09 -3.53219e-07 0)
(-2.17457e-09 -3.51304e-07 0)
(-2.17903e-09 -3.49363e-07 0)
(-2.1828e-09 -3.47398e-07 0)
(-2.18589e-09 -3.45408e-07 0)
(-2.1883e-09 -3.43394e-07 0)
(-2.19001e-09 -3.41356e-07 0)
(-2.19104e-09 -3.39295e-07 0)
(-2.19138e-09 -3.3721e-07 0)
(-2.19102e-09 -3.35103e-07 0)
(-2.18997e-09 -3.32974e-07 0)
(-2.18822e-09 -3.30824e-07 0)
(-2.18579e-09 -3.28652e-07 0)
(-2.18266e-09 -3.26459e-07 0)
(-2.17885e-09 -3.24246e-07 0)
(-2.17435e-09 -3.22013e-07 0)
(-2.16917e-09 -3.19761e-07 0)
(-2.16332e-09 -3.1749e-07 0)
(-2.15678e-09 -3.15201e-07 0)
(-2.14959e-09 -3.12895e-07 0)
(-2.14172e-09 -3.10571e-07 0)
(-2.13321e-09 -3.08232e-07 0)
(-2.12404e-09 -3.05877e-07 0)
(-2.11423e-09 -3.03507e-07 0)
(-2.10379e-09 -3.01122e-07 0)
(-2.09272e-09 -2.98724e-07 0)
(-2.08104e-09 -2.96313e-07 0)
(-2.06875e-09 -2.9389e-07 0)
(-2.05586e-09 -2.91456e-07 0)
(-2.04239e-09 -2.89011e-07 0)
(-2.02834e-09 -2.86556e-07 0)
(-2.01373e-09 -2.84092e-07 0)
(-1.99857e-09 -2.81618e-07 0)
(-1.98286e-09 -2.79141e-07 0)
(-1.96668e-09 -2.76643e-07 0)
(-1.94976e-09 -2.74176e-07 0)
(-1.93322e-09 -2.71547e-07 0)
(-1.91239e-09 -2.69209e-07 0)
(-1.88606e-09 -2.66534e-07 0)
(-1.86092e-09 -2.63259e-07 0)
(-1.83756e-09 -2.60301e-07 0)
(-1.81448e-09 -2.57412e-07 0)
(-1.79129e-09 -2.54506e-07 0)
(-1.76791e-09 -2.51611e-07 0)
(-1.74435e-09 -2.48762e-07 0)
(-1.72063e-09 -2.45961e-07 0)
(-1.69679e-09 -2.432e-07 0)
(-1.67286e-09 -2.40475e-07 0)
(-1.64886e-09 -2.37788e-07 0)
(-1.62481e-09 -2.3514e-07 0)
(-1.60075e-09 -2.32531e-07 0)
(-1.57669e-09 -2.29961e-07 0)
(-1.55266e-09 -2.2743e-07 0)
(-1.52866e-09 -2.24938e-07 0)
(-1.50472e-09 -2.22485e-07 0)
(-1.48085e-09 -2.2007e-07 0)
(-1.45708e-09 -2.17694e-07 0)
(-1.4334e-09 -2.15357e-07 0)
(-1.40983e-09 -2.13057e-07 0)
(-1.38638e-09 -2.10796e-07 0)
(-1.36307e-09 -2.08573e-07 0)
(-1.3399e-09 -2.06387e-07 0)
(-1.31687e-09 -2.04238e-07 0)
(-1.294e-09 -2.02127e-07 0)
(-1.27128e-09 -2.00052e-07 0)
(-1.24873e-09 -1.98014e-07 0)
(-1.22635e-09 -1.96013e-07 0)
(-1.20415e-09 -1.94047e-07 0)
(-1.18211e-09 -1.92118e-07 0)
(-1.16026e-09 -1.90223e-07 0)
(-1.13858e-09 -1.88364e-07 0)
(-1.11708e-09 -1.8654e-07 0)
(-1.09576e-09 -1.84751e-07 0)
(-1.07463e-09 -1.82996e-07 0)
(-1.05367e-09 -1.81275e-07 0)
(-1.03289e-09 -1.79587e-07 0)
(-1.01229e-09 -1.77933e-07 0)
(-9.91861e-10 -1.76313e-07 0)
(-9.71611e-10 -1.74725e-07 0)
(-9.51533e-10 -1.7317e-07 0)
(-9.31625e-10 -1.71647e-07 0)
(-9.11884e-10 -1.70156e-07 0)
(-8.92308e-10 -1.68697e-07 0)
(-8.72894e-10 -1.6727e-07 0)
(-8.53638e-10 -1.65874e-07 0)
(-8.34537e-10 -1.64509e-07 0)
(-8.15588e-10 -1.63174e-07 0)
(-7.96787e-10 -1.6187e-07 0)
(-7.7813e-10 -1.60597e-07 0)
(-7.59613e-10 -1.59353e-07 0)
(-7.41233e-10 -1.5814e-07 0)
(-7.22986e-10 -1.56956e-07 0)
(-7.04866e-10 -1.55801e-07 0)
(-6.86871e-10 -1.54676e-07 0)
(-6.68997e-10 -1.53579e-07 0)
(-6.51238e-10 -1.52512e-07 0)
(-6.33591e-10 -1.51473e-07 0)
(-6.16052e-10 -1.50462e-07 0)
(-5.98617e-10 -1.4948e-07 0)
(-5.81281e-10 -1.48526e-07 0)
(-5.64041e-10 -1.476e-07 0)
(-5.46892e-10 -1.46701e-07 0)
(-5.2983e-10 -1.4583e-07 0)
(-5.12852e-10 -1.44987e-07 0)
(-4.95953e-10 -1.44171e-07 0)
(-4.7913e-10 -1.43383e-07 0)
(-4.62379e-10 -1.42621e-07 0)
(-4.45696e-10 -1.41887e-07 0)
(-4.29078e-10 -1.4118e-07 0)
(-4.12522e-10 -1.40499e-07 0)
(-3.96024e-10 -1.39845e-07 0)
(-3.79581e-10 -1.39218e-07 0)
(-3.6319e-10 -1.38617e-07 0)
(-3.46848e-10 -1.38043e-07 0)
(-3.30553e-10 -1.37495e-07 0)
(-3.14301e-10 -1.36974e-07 0)
(-2.98092e-10 -1.36479e-07 0)
(-2.81922e-10 -1.3601e-07 0)
(-2.6579e-10 -1.35567e-07 0)
(-2.49694e-10 -1.3515e-07 0)
(-2.33633e-10 -1.34759e-07 0)
(-2.17604e-10 -1.34394e-07 0)
(-2.01603e-10 -1.34055e-07 0)
(-1.85626e-10 -1.33743e-07 0)
(-1.69664e-10 -1.33453e-07 0)
(-1.5371e-10 -1.332e-07 0)
(-1.37724e-10 -1.32934e-07 0)
(-1.21783e-10 -1.32824e-07 0)
(-1.05518e-10 -1.32297e-07 0)
(-9.03505e-11 -1.3321e-07 0)
(-7.08979e-11 -1.291e-07 0)
(-6.86143e-11 -1.39587e-07 0)
(-3.94754e-11 -1.21824e-07 0)
)
;
    }
    bottomWall
    {
        type            calculated;
        value           nonuniform List<vector> 
449
(
(-48.8084 -0.967948 0)
(-19.8604 -0.00518291 0)
(-14.4391 -0.00113486 0)
(-12.1454 -0.000538255 0)
(-10.7771 -0.00033872 0)
(-9.83859 -0.000238911 0)
(-9.14856 -0.000178521 0)
(-8.62045 -0.000138336 0)
(-8.2034 -0.000110388 0)
(-7.86508 -9.02729e-05 0)
(-7.5846 -7.52877e-05 0)
(-7.34805 -6.37749e-05 0)
(-7.1458 -5.4713e-05 0)
(-6.97087 -4.74436e-05 0)
(-6.8181 -4.15189e-05 0)
(-6.68355 -3.66238e-05 0)
(-6.56415 -3.25313e-05 0)
(-6.45753 -2.90748e-05 0)
(-6.36175 -2.61291e-05 0)
(-6.27527 -2.35984e-05 0)
(-6.19682 -2.14084e-05 0)
(-6.12535 -1.95006e-05 0)
(-6.05998 -1.78287e-05 0)
(-5.99999 -1.63555e-05 0)
(-5.94474 -1.50508e-05 0)
(-5.89373 -1.38901e-05 0)
(-5.84648 -1.28531e-05 0)
(-5.80261 -1.19228e-05 0)
(-5.76179 -1.10854e-05 0)
(-5.72371 -1.03288e-05 0)
(-5.68811 -9.64327e-06 0)
(-5.65478 -9.02015e-06 0)
(-5.62351 -8.4522e-06 0)
(-5.59412 -7.93319e-06 0)
(-5.56645 -7.45774e-06 0)
(-5.54037 -7.02117e-06 0)
(-5.51575 -6.61944e-06 0)
(-5.49247 -6.24899e-06 0)
(-5.47043 -5.90671e-06 0)
(-5.44954 -5.58988e-06 0)
(-5.42972 -5.29609e-06 0)
(-5.4109 -5.0232e-06 0)
(-5.39299 -4.76931e-06 0)
(-5.37595 -4.53275e-06 0)
(-5.3597 -4.31201e-06 0)
(-5.34421 -4.10575e-06 0)
(-5.32942 -3.91276e-06 0)
(-5.3153 -3.73195e-06 0)
(-5.30179 -3.56235e-06 0)
(-5.28886 -3.40308e-06 0)
(-5.27648 -3.25334e-06 0)
(-5.26461 -3.11241e-06 0)
(-5.25323 -2.97963e-06 0)
(-5.24231 -2.85441e-06 0)
(-5.23182 -2.73619e-06 0)
(-5.22174 -2.6245e-06 0)
(-5.21205 -2.51886e-06 0)
(-5.20273 -2.41887e-06 0)
(-5.19375 -2.32415e-06 0)
(-5.18511 -2.23434e-06 0)
(-5.17678 -2.14913e-06 0)
(-5.16874 -2.06821e-06 0)
(-5.16099 -1.99133e-06 0)
(-5.15352 -1.91821e-06 0)
(-5.1463 -1.84864e-06 0)
(-5.13932 -1.78239e-06 0)
(-5.13258 -1.71927e-06 0)
(-5.12606 -1.65909e-06 0)
(-5.11975 -1.60168e-06 0)
(-5.11365 -1.54688e-06 0)
(-5.10775 -1.49454e-06 0)
(-5.10203 -1.44452e-06 0)
(-5.09649 -1.39669e-06 0)
(-5.09111 -1.35094e-06 0)
(-5.08591 -1.30715e-06 0)
(-5.08086 -1.26521e-06 0)
(-5.07596 -1.22504e-06 0)
(-5.0712 -1.18652e-06 0)
(-5.06659 -1.14959e-06 0)
(-5.0621 -1.11416e-06 0)
(-5.05775 -1.08015e-06 0)
(-5.05352 -1.0475e-06 0)
(-5.0494 -1.01613e-06 0)
(-5.0454 -9.8598e-07 0)
(-5.04151 -9.56996e-07 0)
(-5.03773 -9.2912e-07 0)
(-5.03404 -9.02299e-07 0)
(-5.03046 -8.76483e-07 0)
(-5.02697 -8.51626e-07 0)
(-5.02357 -8.27684e-07 0)
(-5.02026 -8.04615e-07 0)
(-5.01703 -7.8238e-07 0)
(-5.01389 -7.60941e-07 0)
(-5.01082 -7.40263e-07 0)
(-5.00783 -7.20313e-07 0)
(-5.00491 -7.0106e-07 0)
(-5.00207 -6.82472e-07 0)
(-4.99929 -6.64523e-07 0)
(-4.99659 -6.47185e-07 0)
(-4.99394 -6.30432e-07 0)
(-4.99136 -6.1424e-07 0)
(-4.98884 -5.98586e-07 0)
(-4.98638 -5.83447e-07 0)
(-4.98397 -5.68803e-07 0)
(-4.98162 -5.54634e-07 0)
(-4.97932 -5.40921e-07 0)
(-4.97708 -5.27646e-07 0)
(-4.97488 -5.14792e-07 0)
(-4.97273 -5.02342e-07 0)
(-4.97063 -4.90281e-07 0)
(-4.96858 -4.78594e-07 0)
(-4.96657 -4.67267e-07 0)
(-4.9646 -4.56287e-07 0)
(-4.96267 -4.4564e-07 0)
(-4.96079 -4.35314e-07 0)
(-4.95894 -4.25297e-07 0)
(-4.95714 -4.15578e-07 0)
(-4.95537 -4.06146e-07 0)
(-4.95363 -3.9699e-07 0)
(-4.95193 -3.88101e-07 0)
(-4.95027 -3.79469e-07 0)
(-4.94864 -3.71085e-07 0)
(-4.94704 -3.6294e-07 0)
(-4.94547 -3.55027e-07 0)
(-4.94393 -3.47336e-07 0)
(-4.94243 -3.39861e-07 0)
(-4.94095 -3.32594e-07 0)
(-4.9395 -3.25529e-07 0)
(-4.93808 -3.18658e-07 0)
(-4.93668 -3.11974e-07 0)
(-4.93531 -3.05472e-07 0)
(-4.93397 -2.99146e-07 0)
(-4.93265 -2.92989e-07 0)
(-4.93135 -2.86997e-07 0)
(-4.93008 -2.81163e-07 0)
(-4.92883 -2.75483e-07 0)
(-4.92761 -2.69952e-07 0)
(-4.9264 -2.64565e-07 0)
(-4.92522 -2.59317e-07 0)
(-4.92406 -2.54205e-07 0)
(-4.92291 -2.49223e-07 0)
(-4.92179 -2.44368e-07 0)
(-4.92069 -2.39635e-07 0)
(-4.9196 -2.35022e-07 0)
(-4.91854 -2.30524e-07 0)
(-4.91749 -2.26138e-07 0)
(-4.91646 -2.21861e-07 0)
(-4.91544 -2.17688e-07 0)
(-4.91445 -2.13617e-07 0)
(-4.91347 -2.09644e-07 0)
(-4.9125 -2.05766e-07 0)
(-4.91155 -2.01981e-07 0)
(-4.91062 -1.98285e-07 0)
(-4.9097 -1.94675e-07 0)
(-4.9088 -1.91149e-07 0)
(-4.90791 -1.87703e-07 0)
(-4.90703 -1.84335e-07 0)
(-4.90617 -1.8104e-07 0)
(-4.90532 -1.77815e-07 0)
(-4.90449 -1.74657e-07 0)
(-4.90366 -1.7156e-07 0)
(-4.90285 -1.68518e-07 0)
(-4.90206 -1.65524e-07 0)
(-4.90127 -1.62566e-07 0)
(-4.9005 -1.59629e-07 0)
(-4.89974 -1.56689e-07 0)
(-4.89899 -1.53703e-07 0)
(-4.89826 -1.50619e-07 0)
(-4.89754 -1.47158e-07 0)
(-4.89683 -1.44026e-07 0)
(-4.89614 -1.36297e-07 0)
(-4.89551 -1.357e-07 0)
(-4.89481 -1.42618e-07 0)
(-4.89416 -1.35097e-07 0)
(-4.89361 -1.11377e-07 0)
(-4.89319 -9.49977e-08 0)
(-4.89278 -9.47425e-08 0)
(-4.89236 -9.78394e-08 0)
(-4.89191 -1.01946e-07 0)
(-4.89143 -1.06143e-07 0)
(-4.89093 -1.10039e-07 0)
(-4.8904 -1.13462e-07 0)
(-4.88985 -1.16376e-07 0)
(-4.88928 -1.18812e-07 0)
(-4.8887 -1.20826e-07 0)
(-4.88809 -1.2247e-07 0)
(-4.88748 -1.23791e-07 0)
(-4.88684 -1.24828e-07 0)
(-4.8862 -1.25614e-07 0)
(-4.88555 -1.26177e-07 0)
(-4.88488 -1.26541e-07 0)
(-4.88421 -1.26728e-07 0)
(-4.88353 -1.26756e-07 0)
(-4.88284 -1.26639e-07 0)
(-4.88215 -1.26393e-07 0)
(-4.88145 -1.2603e-07 0)
(-4.88074 -1.2556e-07 0)
(-4.88003 -1.24995e-07 0)
(-4.87931 -1.24342e-07 0)
(-4.87859 -1.2361e-07 0)
(-4.87787 -1.22806e-07 0)
(-4.87714 -1.21936e-07 0)
(-4.87641 -1.21008e-07 0)
(-4.87568 -1.20025e-07 0)
(-4.87495 -1.18994e-07 0)
(-4.87421 -1.17918e-07 0)
(-4.87348 -1.16802e-07 0)
(-4.87274 -1.15651e-07 0)
(-4.872 -1.14467e-07 0)
(-4.87126 -1.13255e-07 0)
(-4.87053 -1.12017e-07 0)
(-4.86979 -1.10756e-07 0)
(-4.86905 -1.09474e-07 0)
(-4.86832 -1.08175e-07 0)
(-4.86758 -1.06861e-07 0)
(-4.86685 -1.05534e-07 0)
(-4.86611 -1.04195e-07 0)
(-4.86538 -1.02847e-07 0)
(-4.86465 -1.01491e-07 0)
(-4.86392 -1.0013e-07 0)
(-4.8632 -9.87644e-08 0)
(-4.86248 -9.73959e-08 0)
(-4.86175 -9.60258e-08 0)
(-4.86104 -9.46554e-08 0)
(-4.86032 -9.32859e-08 0)
(-4.85961 -9.19182e-08 0)
(-4.8589 -9.05535e-08 0)
(-4.85819 -8.91927e-08 0)
(-4.85748 -8.78367e-08 0)
(-4.85678 -8.64863e-08 0)
(-4.85609 -8.51423e-08 0)
(-4.85539 -8.38055e-08 0)
(-4.8547 -8.24764e-08 0)
(-4.85401 -8.11558e-08 0)
(-4.85333 -7.98441e-08 0)
(-4.85265 -7.85419e-08 0)
(-4.85198 -7.72498e-08 0)
(-4.8513 -7.5968e-08 0)
(-4.85064 -7.46972e-08 0)
(-4.84997 -7.34376e-08 0)
(-4.84931 -7.21898e-08 0)
(-4.84866 -7.09539e-08 0)
(-4.84801 -6.97303e-08 0)
(-4.84736 -6.85193e-08 0)
(-4.84672 -6.73211e-08 0)
(-4.84608 -6.61359e-08 0)
(-4.84545 -6.49639e-08 0)
(-4.84482 -6.38053e-08 0)
(-4.8442 -6.26603e-08 0)
(-4.84358 -6.1529e-08 0)
(-4.84296 -6.04115e-08 0)
(-4.84235 -5.93079e-08 0)
(-4.84175 -5.82185e-08 0)
(-4.84115 -5.71431e-08 0)
(-4.84055 -5.60819e-08 0)
(-4.83996 -5.50349e-08 0)
(-4.83938 -5.40021e-08 0)
(-4.83879 -5.29835e-08 0)
(-4.83822 -5.19793e-08 0)
(-4.83765 -5.09893e-08 0)
(-4.83708 -5.00135e-08 0)
(-4.83652 -4.9052e-08 0)
(-4.83596 -4.81048e-08 0)
(-4.83541 -4.71717e-08 0)
(-4.83486 -4.62527e-08 0)
(-4.83432 -4.53477e-08 0)
(-4.83378 -4.44567e-08 0)
(-4.83325 -4.35797e-08 0)
(-4.83272 -4.27164e-08 0)
(-4.8322 -4.18669e-08 0)
(-4.83168 -4.10311e-08 0)
(-4.83117 -4.02088e-08 0)
(-4.83066 -3.94e-08 0)
(-4.83016 -3.86045e-08 0)
(-4.82966 -3.78223e-08 0)
(-4.82916 -3.70533e-08 0)
(-4.82868 -3.62973e-08 0)
(-4.82819 -3.55542e-08 0)
(-4.82771 -3.48238e-08 0)
(-4.82724 -3.41061e-08 0)
(-4.82677 -3.34009e-08 0)
(-4.8263 -3.27081e-08 0)
(-4.82584 -3.20275e-08 0)
(-4.82539 -3.13591e-08 0)
(-4.82494 -3.07027e-08 0)
(-4.82449 -3.0058e-08 0)
(-4.82405 -2.94251e-08 0)
(-4.82361 -2.88038e-08 0)
(-4.82318 -2.81939e-08 0)
(-4.82275 -2.75952e-08 0)
(-4.82233 -2.70077e-08 0)
(-4.82191 -2.64311e-08 0)
(-4.8215 -2.58653e-08 0)
(-4.82109 -2.53102e-08 0)
(-4.82068 -2.47657e-08 0)
(-4.82028 -2.42315e-08 0)
(-4.81989 -2.37076e-08 0)
(-4.8195 -2.31938e-08 0)
(-4.81911 -2.269e-08 0)
(-4.81873 -2.21959e-08 0)
(-4.81835 -2.17115e-08 0)
(-4.81797 -2.12366e-08 0)
(-4.8176 -2.07711e-08 0)
(-4.81724 -2.03148e-08 0)
(-4.81687 -1.98675e-08 0)
(-4.81652 -1.94292e-08 0)
(-4.81616 -1.89997e-08 0)
(-4.81581 -1.85788e-08 0)
(-4.81547 -1.81664e-08 0)
(-4.81513 -1.77625e-08 0)
(-4.81479 -1.73667e-08 0)
(-4.81446 -1.69791e-08 0)
(-4.81413 -1.65993e-08 0)
(-4.8138 -1.62274e-08 0)
(-4.81348 -1.58632e-08 0)
(-4.81316 -1.55066e-08 0)
(-4.81285 -1.51573e-08 0)
(-4.81254 -1.48154e-08 0)
(-4.81223 -1.44806e-08 0)
(-4.81193 -1.41529e-08 0)
(-4.81163 -1.38321e-08 0)
(-4.81133 -1.3518e-08 0)
(-4.81104 -1.32107e-08 0)
(-4.81075 -1.29099e-08 0)
(-4.81047 -1.26155e-08 0)
(-4.81018 -1.23274e-08 0)
(-4.80991 -1.20455e-08 0)
(-4.80963 -1.17696e-08 0)
(-4.80936 -1.14998e-08 0)
(-4.80909 -1.12358e-08 0)
(-4.80883 -1.09775e-08 0)
(-4.80857 -1.07249e-08 0)
(-4.80831 -1.04778e-08 0)
(-4.80805 -1.02362e-08 0)
(-4.8078 -9.99984e-09 0)
(-4.80755 -9.76875e-09 0)
(-4.80731 -9.54281e-09 0)
(-4.80706 -9.32193e-09 0)
(-4.80683 -9.10603e-09 0)
(-4.80659 -8.89504e-09 0)
(-4.80636 -8.68889e-09 0)
(-4.80613 -8.48754e-09 0)
(-4.8059 -8.29097e-09 0)
(-4.80567 -8.09921e-09 0)
(-4.80545 -7.91233e-09 0)
(-4.80523 -7.73056e-09 0)
(-4.80502 -7.55428e-09 0)
(-4.8048 -7.38455e-09 0)
(-4.80459 -7.22273e-09 0)
(-4.80438 -7.07595e-09 0)
(-4.80417 -6.94005e-09 0)
(-4.80397 -6.98603e-09 0)
(-4.80375 -6.43227e-09 0)
(-4.80358 -9.42833e-09 0)
(-4.80312 -1.2782e-08 0)
(-4.80263 -1.15527e-08 0)
(-4.80222 -9.62808e-09 0)
(-4.80189 -7.87684e-09 0)
(-4.80162 -6.63518e-09 0)
(-4.80139 -5.77532e-09 0)
(-4.80119 -5.1413e-09 0)
(-4.801 -4.64016e-09 0)
(-4.80084 -4.22763e-09 0)
(-4.80069 -3.88093e-09 0)
(-4.80055 -3.58489e-09 0)
(-4.80042 -3.3283e-09 0)
(-4.8003 -3.10305e-09 0)
(-4.80019 -2.90334e-09 0)
(-4.80008 -2.72484e-09 0)
(-4.79998 -2.56421e-09 0)
(-4.79989 -2.41877e-09 0)
(-4.7998 -2.28638e-09 0)
(-4.79972 -2.1653e-09 0)
(-4.79964 -2.05411e-09 0)
(-4.79957 -1.95163e-09 0)
(-4.7995 -1.85686e-09 0)
(-4.79943 -1.76897e-09 0)
(-4.79937 -1.68722e-09 0)
(-4.79931 -1.61101e-09 0)
(-4.79925 -1.53981e-09 0)
(-4.79919 -1.47314e-09 0)
(-4.79914 -1.4106e-09 0)
(-4.79909 -1.35184e-09 0)
(-4.79904 -1.29653e-09 0)
(-4.799 -1.2444e-09 0)
(-4.79895 -1.19519e-09 0)
(-4.79891 -1.14867e-09 0)
(-4.79887 -1.10466e-09 0)
(-4.79883 -1.06296e-09 0)
(-4.79879 -1.02341e-09 0)
(-4.79875 -9.85866e-10 0)
(-4.79872 -9.50188e-10 0)
(-4.79868 -9.16253e-10 0)
(-4.79865 -8.83949e-10 0)
(-4.79862 -8.53168e-10 0)
(-4.79859 -8.23823e-10 0)
(-4.79856 -7.95822e-10 0)
(-4.79853 -7.69087e-10 0)
(-4.7985 -7.43539e-10 0)
(-4.79847 -7.19116e-10 0)
(-4.79845 -6.95751e-10 0)
(-4.79842 -6.73387e-10 0)
(-4.7984 -6.51965e-10 0)
(-4.79838 -6.31439e-10 0)
(-4.79835 -6.11761e-10 0)
(-4.79833 -5.92886e-10 0)
(-4.79831 -5.7477e-10 0)
(-4.79829 -5.57379e-10 0)
(-4.79827 -5.40676e-10 0)
(-4.79825 -5.24628e-10 0)
(-4.79823 -5.09198e-10 0)
(-4.79821 -4.94364e-10 0)
(-4.7982 -4.80095e-10 0)
(-4.79818 -4.66366e-10 0)
(-4.79816 -4.53148e-10 0)
(-4.79815 -4.40424e-10 0)
(-4.79813 -4.28171e-10 0)
(-4.79812 -4.16369e-10 0)
(-4.7981 -4.04995e-10 0)
(-4.79809 -3.94037e-10 0)
(-4.79807 -3.83475e-10 0)
(-4.79806 -3.73298e-10 0)
(-4.79805 -3.63487e-10 0)
(-4.79803 -3.54029e-10 0)
(-4.79802 -3.44913e-10 0)
(-4.79801 -3.36131e-10 0)
(-4.798 -3.27668e-10 0)
(-4.79798 -3.19518e-10 0)
(-4.79797 -3.11673e-10 0)
(-4.79796 -3.04133e-10 0)
(-4.79795 -2.96888e-10 0)
(-4.79794 -2.89943e-10 0)
(-4.79793 -2.83296e-10 0)
(-4.79792 -2.76969e-10 0)
(-4.79791 -2.70955e-10 0)
(-4.7979 -2.65307e-10 0)
(-4.79789 -2.60029e-10 0)
(-4.79788 -2.55256e-10 0)
(-4.79787 -2.50982e-10 0)
(-4.79786 -2.4768e-10 0)
(-4.79785 -2.44971e-10 0)
(-4.79785 -2.46033e-10 0)
(-4.79784 -2.43879e-10 0)
(-4.79783 -2.75221e-10 0)
(-4.79782 -2.19155e-10 0)
(-4.79781 -6.84594e-10 0)
(-4.79777 6.65087e-10 0)
(-4.79787 1.77544e-10 0)
(-4.79777 -1.39673e-09 0)
)
;
    }
    symmetry
    {
        type            symmetryPlane;
    }
    frontAndBack
    {
        type            empty;
    }
}


// ************************************************************************* //
