/*--------------------------------*- C++ -*----------------------------------*\
| =========                 |                                                 |
| \\      /  F ield         | OpenFOAM: The Open Source CFD Toolbox           |
|  \\    /   O peration     | Version:  v2012                                 |
|   \\  /    A nd           | Website:  www.openfoam.com                      |
|    \\/     M anipulation  |                                                 |
\*---------------------------------------------------------------------------*/
FoamFile
{
    version     2.0;
    format      ascii;
    class       volScalarField;
    location    "5.5";
    object      yPlus;
}
// * * * * * * * * * * * * * * * * * * * * * * * * * * * * * * * * * * * * * //

dimensions      [0 0 0 0 0 0 0];


internalField   uniform 0;

boundaryField
{
    inlet
    {
        type            calculated;
        value           uniform 0;
    }
    outlet
    {
        type            calculated;
        value           uniform 0;
    }
    topWall
    {
        type            calculated;
        value           nonuniform List<scalar> 
545
(
0.0526613
0.0912432
0.116932
0.137328
0.154574
0.169646
0.183089
0.195245
0.206349
0.216568
0.22603
0.234831
0.243049
0.250749
0.257983
0.264794
0.271221
0.277297
0.283048
0.288501
0.293677
0.298596
0.303276
0.307731
0.311977
0.316027
0.319892
0.323584
0.327111
0.330485
0.333712
0.336802
0.339761
0.342596
0.345313
0.347919
0.35042
0.352819
0.355122
0.357335
0.35946
0.361502
0.363465
0.365353
0.367168
0.368915
0.370596
0.372213
0.373771
0.375271
0.376716
0.378107
0.379448
0.380741
0.381987
0.383188
0.384347
0.385464
0.386541
0.387581
0.388584
0.389552
0.390487
0.391389
0.392259
0.3931
0.393912
0.394696
0.395453
0.396185
0.396892
0.397575
0.398224
0.398852
0.399472
0.400086
0.400693
0.401294
0.401888
0.402477
0.403058
0.403634
0.404204
0.404767
0.405324
0.405876
0.406422
0.406962
0.407496
0.408024
0.408547
0.409065
0.409576
0.410083
0.410584
0.411081
0.411519
0.41191
0.412299
0.412688
0.413075
0.413462
0.413848
0.414233
0.414617
0.415
0.415382
0.415764
0.416144
0.416523
0.416902
0.41728
0.417656
0.418032
0.418407
0.418781
0.419153
0.419525
0.419896
0.420266
0.420635
0.421002
0.421369
0.421735
0.4221
0.422463
0.422826
0.423187
0.423548
0.423907
0.424266
0.424623
0.424979
0.425334
0.425688
0.426041
0.426392
0.426743
0.427092
0.427441
0.427788
0.428133
0.428478
0.428822
0.429164
0.429505
0.429845
0.430184
0.430521
0.430858
0.431193
0.431526
0.431859
0.43219
0.43252
0.432849
0.433176
0.433502
0.433827
0.43415
0.434472
0.434793
0.435113
0.435431
0.435747
0.436063
0.436377
0.436689
0.437001
0.43731
0.437619
0.437926
0.438231
0.438535
0.438838
0.439139
0.439439
0.439737
0.440034
0.440329
0.440623
0.440915
0.441206
0.441495
0.441783
0.442069
0.442353
0.442636
0.442918
0.443198
0.443476
0.443753
0.444028
0.444301
0.444573
0.444843
0.445111
0.445378
0.445643
0.445907
0.446169
0.446429
0.446687
0.446944
0.447199
0.447452
0.447704
0.447953
0.448201
0.448447
0.448692
0.448935
0.449175
0.449414
0.449652
0.449887
0.450121
0.450352
0.450582
0.45081
0.451036
0.45126
0.451483
0.451703
0.451922
0.452138
0.452353
0.452566
0.452776
0.452985
0.453192
0.453397
0.4536
0.453801
0.453999
0.454196
0.454391
0.454584
0.454775
0.454963
0.45515
0.455334
0.455517
0.455697
0.455875
0.456051
0.456225
0.456397
0.456567
0.456734
0.4569
0.457063
0.457224
0.457383
0.457539
0.457694
0.457846
0.457996
0.458144
0.458289
0.458432
0.458573
0.458712
0.458849
0.458983
0.459114
0.459244
0.459371
0.459497
0.459608
0.45971
0.459812
0.459912
0.460013
0.460112
0.460211
0.460308
0.460405
0.460501
0.460596
0.46069
0.460783
0.460875
0.460965
0.461054
0.461142
0.461228
0.461313
0.461396
0.461478
0.461558
0.461636
0.461713
0.461787
0.46186
0.46193
0.461998
0.462064
0.462128
0.462189
0.462248
0.462304
0.462358
0.462409
0.462457
0.462502
0.462544
0.462582
0.462618
0.46265
0.462679
0.462704
0.462726
0.462744
0.462757
0.462767
0.462773
0.462775
0.462772
0.462764
0.462752
0.462736
0.462714
0.462688
0.462656
0.462619
0.462577
0.462529
0.462476
0.462416
0.462351
0.46228
0.462202
0.462118
0.462028
0.461931
0.461827
0.461715
0.461597
0.461472
0.461338
0.461198
0.461049
0.460893
0.460728
0.460555
0.460373
0.460183
0.459984
0.459776
0.459558
0.459332
0.459095
0.458849
0.458593
0.458327
0.458051
0.457764
0.457467
0.457158
0.456839
0.456508
0.456166
0.455812
0.455446
0.455069
0.454679
0.454277
0.453862
0.453435
0.452994
0.452541
0.452074
0.451594
0.4511
0.450592
0.45007
0.449534
0.448983
0.448418
0.447838
0.447243
0.446633
0.446007
0.445367
0.44471
0.444038
0.44335
0.442646
0.441925
0.441188
0.440435
0.439665
0.438878
0.438075
0.437254
0.436416
0.435561
0.434688
0.433798
0.432891
0.431965
0.431022
0.430062
0.429083
0.428086
0.427072
0.426039
0.424988
0.423919
0.422832
0.421727
0.420604
0.419463
0.418303
0.417125
0.41593
0.414716
0.413484
0.412234
0.410967
0.409682
0.408379
0.407058
0.40572
0.404365
0.402993
0.401603
0.400197
0.398774
0.397335
0.395879
0.394407
0.392919
0.391416
0.389897
0.388363
0.386814
0.38525
0.383672
0.38208
0.380475
0.378856
0.377224
0.375579
0.373922
0.372252
0.370572
0.36888
0.367176
0.365276
0.363193
0.361125
0.359071
0.357031
0.355006
0.352997
0.351003
0.349026
0.347065
0.345121
0.343194
0.341285
0.339394
0.337522
0.335667
0.333832
0.332016
0.330219
0.328441
0.326683
0.324945
0.323227
0.321529
0.319851
0.318193
0.316556
0.31494
0.313344
0.311769
0.310215
0.308682
0.30717
0.305679
0.304209
0.302761
0.301334
0.299928
0.298544
0.297181
0.29584
0.294521
0.293223
0.291947
0.290692
0.28946
0.288249
0.287061
0.285894
0.28475
0.283627
0.282527
0.281449
0.280394
0.27936
0.27835
0.277361
0.276396
0.275452
0.274532
0.273635
0.27276
0.271908
0.271079
0.270274
0.269491
0.268732
0.267996
0.267284
0.266595
0.265929
0.265288
0.26467
0.264075
0.263505
0.262959
0.262437
0.261938
0.261464
0.261015
0.260589
0.260189
0.259812
0.25946
0.259133
0.25883
0.258552
0.258298
0.258069
0.257866
0.257687
0.257534
0.257403
0.257311
0.257187
)
;
    }
    bottomWall
    {
        type            calculated;
        value           nonuniform List<scalar> 
449
(
0.139849
0.0892065
0.0760627
0.0697604
0.0657131
0.0627868
0.060545
0.0587715
0.0573322
0.0561376
0.0551275
0.054261
0.0535091
0.0528501
0.0522677
0.0517494
0.0512851
0.0508669
0.0504883
0.0501439
0.0498295
0.0495413
0.0492762
0.0490317
0.0488055
0.0485956
0.0484004
0.0482185
0.0480486
0.0478895
0.0477404
0.0476003
0.0474685
0.0473443
0.0472271
0.0471163
0.0470115
0.0469122
0.046818
0.0467285
0.0466435
0.0465625
0.0464854
0.0464119
0.0463417
0.0462747
0.0462107
0.0461494
0.0460907
0.0460345
0.0459805
0.0459288
0.0458791
0.0458314
0.0457855
0.0457414
0.045699
0.0456581
0.0456187
0.0455807
0.0455441
0.0455087
0.0454746
0.0454416
0.0454098
0.045379
0.0453492
0.0453204
0.0452925
0.0452655
0.0452394
0.045214
0.0451895
0.0451657
0.0451426
0.0451201
0.0450984
0.0450773
0.0450567
0.0450368
0.0450174
0.0449986
0.0449803
0.0449624
0.0449451
0.0449282
0.0449118
0.0448958
0.0448802
0.0448651
0.0448503
0.0448358
0.0448218
0.0448081
0.0447947
0.0447817
0.044769
0.0447565
0.0447444
0.0447326
0.044721
0.0447097
0.0446987
0.0446879
0.0446773
0.044667
0.044657
0.0446471
0.0446375
0.044628
0.0446188
0.0446098
0.044601
0.0445923
0.0445838
0.0445755
0.0445674
0.0445595
0.0445517
0.044544
0.0445365
0.0445292
0.044522
0.0445149
0.044508
0.0445012
0.0444946
0.0444881
0.0444817
0.0444754
0.0444692
0.0444631
0.0444572
0.0444514
0.0444456
0.04444
0.0444345
0.044429
0.0444237
0.0444185
0.0444133
0.0444082
0.0444033
0.0443984
0.0443936
0.0443888
0.0443842
0.0443796
0.0443751
0.0443707
0.0443663
0.044362
0.0443578
0.0443537
0.0443496
0.0443456
0.0443416
0.0443377
0.0443339
0.0443301
0.0443264
0.0443227
0.0443191
0.0443156
0.0443121
0.0443087
0.0443053
0.044302
0.0442987
0.0442955
0.0442924
0.0442895
0.0442864
0.0442834
0.0442809
0.044279
0.0442772
0.0442753
0.0442732
0.0442711
0.0442688
0.0442664
0.0442639
0.0442613
0.0442587
0.044256
0.0442532
0.0442503
0.0442474
0.0442444
0.0442414
0.0442384
0.0442353
0.0442322
0.044229
0.0442259
0.0442227
0.0442194
0.0442162
0.0442129
0.0442096
0.0442064
0.044203
0.0441997
0.0441964
0.0441931
0.0441897
0.0441864
0.0441831
0.0441797
0.0441764
0.044173
0.0441697
0.0441663
0.044163
0.0441597
0.0441563
0.044153
0.0441497
0.0441464
0.0441431
0.0441398
0.0441366
0.0441333
0.04413
0.0441268
0.0441236
0.0441204
0.0441172
0.044114
0.0441108
0.0441077
0.0441045
0.0441014
0.0440983
0.0440952
0.0440922
0.0440891
0.0440861
0.0440831
0.0440801
0.0440771
0.0440741
0.0440712
0.0440683
0.0440654
0.0440625
0.0440596
0.0440568
0.044054
0.0440512
0.0440484
0.0440457
0.0440429
0.0440402
0.0440375
0.0440349
0.0440322
0.0440296
0.044027
0.0440244
0.0440219
0.0440193
0.0440168
0.0440143
0.0440119
0.0440094
0.044007
0.0440046
0.0440022
0.0439998
0.0439975
0.0439952
0.0439929
0.0439906
0.0439884
0.0439862
0.043984
0.0439818
0.0439796
0.0439775
0.0439754
0.0439733
0.0439712
0.0439691
0.0439671
0.0439651
0.0439631
0.0439611
0.0439592
0.0439572
0.0439553
0.0439535
0.0439516
0.0439497
0.0439479
0.0439461
0.0439443
0.0439426
0.0439408
0.0439391
0.0439374
0.0439357
0.043934
0.0439324
0.0439307
0.0439291
0.0439275
0.043926
0.0439244
0.0439229
0.0439213
0.0439198
0.0439184
0.0439169
0.0439154
0.043914
0.0439126
0.0439112
0.0439098
0.0439084
0.0439071
0.0439058
0.0439044
0.0439031
0.0439019
0.0439006
0.0438993
0.0438981
0.0438969
0.0438957
0.0438945
0.0438933
0.0438921
0.043891
0.0438898
0.0438887
0.0438876
0.0438865
0.0438854
0.0438844
0.0438833
0.0438823
0.0438813
0.0438803
0.0438793
0.0438783
0.0438773
0.0438763
0.0438754
0.0438744
0.0438735
0.0438725
0.0438717
0.0438696
0.0438674
0.0438655
0.043864
0.0438628
0.0438617
0.0438608
0.0438599
0.0438592
0.0438585
0.0438579
0.0438573
0.0438567
0.0438562
0.0438557
0.0438553
0.0438549
0.0438545
0.0438541
0.0438537
0.0438534
0.0438531
0.0438528
0.0438525
0.0438522
0.0438519
0.0438517
0.0438514
0.0438512
0.043851
0.0438508
0.0438506
0.0438504
0.0438502
0.04385
0.0438498
0.0438497
0.0438495
0.0438493
0.0438492
0.043849
0.0438489
0.0438488
0.0438486
0.0438485
0.0438484
0.0438483
0.0438482
0.043848
0.0438479
0.0438478
0.0438477
0.0438476
0.0438475
0.0438475
0.0438474
0.0438473
0.0438472
0.0438471
0.043847
0.043847
0.0438469
0.0438468
0.0438467
0.0438467
0.0438466
0.0438466
0.0438465
0.0438464
0.0438464
0.0438463
0.0438463
0.0438462
0.0438461
0.0438461
0.043846
0.043846
0.0438459
0.0438459
0.0438459
0.0438458
0.0438458
0.0438457
0.0438457
0.0438456
0.0438456
0.0438456
0.0438455
0.0438455
0.0438454
0.0438454
0.0438454
0.0438451
0.0438456
0.0438452
)
;
    }
    symmetry
    {
        type            symmetryPlane;
    }
    frontAndBack
    {
        type            empty;
    }
}


// ************************************************************************* //
