/*--------------------------------*- C++ -*----------------------------------*\
| =========                 |                                                 |
| \\      /  F ield         | OpenFOAM: The Open Source CFD Toolbox           |
|  \\    /   O peration     | Version:  v2012                                 |
|   \\  /    A nd           | Website:  www.openfoam.com                      |
|    \\/     M anipulation  |                                                 |
\*---------------------------------------------------------------------------*/
FoamFile
{
    version     2.0;
    format      ascii;
    class       volScalarField;
    location    "41.5";
    object      omega;
}
// * * * * * * * * * * * * * * * * * * * * * * * * * * * * * * * * * * * * * //

dimensions      [0 0 -1 0 0 0 0];


internalField   nonuniform List<scalar> 
209825
(
8261.57
7567.86
6999.51
6546.63
6191.03
5912.62
5692.3
5516.19
5372.87
5255.24
5156.88
5074.37
5003.79
4943.61
4891.13
4845.85
4805.71
4770.77
4739.34
4711.83
4686.73
4664.69
4644.32
4626.4
4609.63
4594.9
4580.93
4568.68
4556.91
4546.65
4536.65
4527.98
4519.42
4512.04
4504.65
4498.35
4491.96
4486.55
4480.97
4476.3
4471.46
4467.39
4463.12
4459.63
4455.88
4452.82
4449.51
4446.82
4443.94
4441.59
4439.07
4437.07
4434.91
4433.05
4431.16
4429.56
4427.89
4426.47
4424.98
4423.8
4422.58
4421.58
4420.46
4419.69
4418.73
4418.04
4417.16
4416.63
4415.91
4415.53
4414.91
4414.59
4414.05
4413.76
4413.23
4412.92
4412.45
4412.22
4411.82
4411.65
4411.31
4411.22
4411.01
4411.1
4411.09
4411.34
4411.34
4411.84
4411.84
4412.5
4412.5
4413.44
4414.12
4443.42
4554.9
113212
8261.57
7567.86
6999.51
6546.63
6191.01
5912.59
5692.26
5516.14
5372.81
5255.17
5156.8
5074.29
5003.7
4943.52
4891.04
4845.75
4805.61
4770.67
4739.23
4711.72
4686.62
4664.58
4644.2
4626.28
4609.51
4594.78
4580.81
4568.56
4556.79
4546.52
4536.52
4527.85
4519.29
4511.91
4504.52
4498.22
4491.83
4486.42
4480.84
4476.16
4471.32
4467.26
4462.98
4459.49
4455.74
4452.69
4449.37
4446.68
4443.8
4441.45
4438.93
4436.93
4434.77
4432.91
4431.02
4429.42
4427.74
4426.33
4424.83
4423.65
4422.44
4421.44
4420.32
4419.55
4418.58
4417.9
4417.02
4416.48
4415.76
4415.38
4414.76
4414.45
4413.9
4413.62
4413.08
4412.78
4412.3
4412.07
4411.67
4411.5
4411.17
4411.08
4410.86
4410.96
4410.94
4411.2
4411.2
4411.69
4411.69
4412.35
4412.35
4413.29
4413.97
4443.33
4554.79
109914
8261.57
7567.87
6999.51
6546.6
6190.95
5912.49
5692.12
5515.97
5372.61
5254.95
5156.55
5074.02
5003.41
4943.21
4890.72
4845.42
4805.26
4770.31
4738.87
4711.35
4686.24
4664.19
4643.81
4625.88
4609.11
4594.37
4580.4
4568.14
4556.37
4546.1
4536.1
4527.42
4518.86
4511.48
4504.08
4497.78
4491.39
4485.98
4480.4
4475.72
4470.88
4466.81
4462.53
4459.04
4455.29
4452.23
4448.92
4446.22
4443.34
4440.99
4438.47
4436.47
4434.3
4432.45
4430.55
4428.95
4427.28
4425.86
4424.37
4423.19
4421.97
4420.97
4419.85
4419.08
4418.11
4417.43
4416.54
4416.01
4415.29
4414.91
4414.29
4413.97
4413.43
4413.15
4412.61
4412.3
4411.83
4411.59
4411.19
4411.02
4410.69
4410.6
4410.38
4410.48
4410.46
4410.71
4410.71
4411.21
4411.21
4411.87
4411.87
4412.81
4413.49
4442.95
4554.39
106127
8261.57
7567.88
6999.51
6546.56
6190.85
5912.32
5691.88
5515.67
5372.26
5254.55
5156.11
5073.55
5002.91
4942.68
4890.16
4844.84
4804.67
4769.7
4738.25
4710.71
4685.59
4663.53
4643.14
4625.2
4608.42
4593.67
4579.69
4567.43
4555.65
4545.37
4535.37
4526.69
4518.12
4510.73
4503.34
4497.03
4490.64
4485.22
4479.64
4474.95
4470.11
4466.04
4461.76
4458.27
4454.51
4451.45
4448.13
4445.44
4442.55
4440.2
4437.68
4435.68
4433.51
4431.66
4429.76
4428.16
4426.48
4425.06
4423.57
4422.39
4421.17
4420.17
4419.05
4418.28
4417.31
4416.62
4415.74
4415.2
4414.48
4414.1
4413.48
4413.16
4412.62
4412.33
4411.79
4411.49
4411.01
4410.78
4410.38
4410.21
4409.87
4409.78
4409.56
4409.66
4409.64
4409.89
4409.89
4410.38
4410.38
4411.04
4411.04
4411.98
4412.66
4442.28
4553.67
102234
8261.57
7567.9
6999.51
6546.5
6190.7
5912.07
5691.54
5515.25
5371.76
5253.99
5155.49
5072.88
5002.19
4941.93
4889.38
4844.03
4803.83
4768.83
4737.35
4709.8
4684.66
4662.58
4642.18
4624.23
4607.43
4592.68
4578.69
4566.41
4554.63
4544.34
4534.33
4525.64
4517.06
4509.67
4502.27
4495.96
4489.56
4484.14
4478.55
4473.86
4469.02
4464.94
4460.66
4457.16
4453.4
4450.34
4447.02
4444.32
4441.44
4439.08
4436.56
4434.55
4432.39
4430.53
4428.63
4427.02
4425.35
4423.93
4422.43
4421.25
4420.03
4419.03
4417.9
4417.13
4416.16
4415.47
4414.59
4414.05
4413.33
4412.94
4412.32
4412
4411.46
4411.17
4410.63
4410.33
4409.85
4409.62
4409.22
4409.04
4408.71
4408.62
4408.4
4408.49
4408.47
4408.72
4408.71
4409.21
4409.21
4409.86
4409.86
4410.79
4411.48
4441.33
4552.66
98337.3
8261.58
7567.93
6999.51
6546.42
6190.5
5911.75
5691.1
5514.69
5371.11
5253.25
5154.68
5072
5001.26
4940.94
4888.35
4842.96
4802.72
4767.7
4736.19
4708.61
4683.45
4661.35
4640.93
4622.96
4606.15
4591.38
4577.38
4565.09
4553.29
4543
4532.97
4524.28
4515.69
4508.29
4500.88
4494.57
4488.16
4482.73
4477.14
4472.45
4467.59
4463.51
4459.23
4455.72
4451.96
4448.9
4445.57
4442.87
4439.98
4437.62
4435.1
4433.09
4430.92
4429.05
4427.15
4425.55
4423.87
4422.44
4420.94
4419.76
4418.54
4417.53
4416.41
4415.63
4414.66
4413.98
4413.09
4412.55
4411.82
4411.44
4410.81
4410.5
4409.95
4409.66
4409.12
4408.82
4408.34
4408.1
4407.7
4407.53
4407.19
4407.1
4406.87
4406.96
4406.94
4407.18
4407.18
4407.67
4407.67
4408.32
4408.32
4409.25
4409.95
4440.08
4551.33
94478.1
8261.58
7567.96
6999.52
6546.32
6190.26
5911.36
5690.55
5514.01
5370.3
5252.34
5153.68
5070.92
5000.11
4939.73
4887.08
4841.64
4801.36
4766.3
4734.76
4707.14
4681.95
4659.83
4639.39
4621.4
4604.56
4589.77
4575.75
4563.45
4551.64
4541.33
4531.29
4522.59
4513.99
4506.58
4499.16
4492.84
4486.42
4480.99
4475.39
4470.69
4465.83
4461.74
4457.45
4453.94
4450.18
4447.1
4443.78
4441.07
4438.17
4435.81
4433.28
4431.27
4429.1
4427.23
4425.32
4423.72
4422.03
4420.61
4419.11
4417.92
4416.69
4415.69
4414.56
4413.78
4412.81
4412.12
4411.23
4410.69
4409.96
4409.58
4408.95
4408.63
4408.08
4407.79
4407.25
4406.95
4406.46
4406.23
4405.82
4405.65
4405.31
4405.21
4404.99
4405.07
4405.05
4405.29
4405.29
4405.77
4405.77
4406.41
4406.41
4407.34
4408.04
4438.53
4549.7
90675.1
8261.58
7568
6999.52
6546.2
6189.97
5910.88
5689.9
5513.19
5369.34
5251.25
5152.48
5069.62
4998.73
4938.27
4885.56
4840.06
4799.73
4764.62
4733.04
4705.38
4680.16
4658.01
4637.53
4619.52
4602.66
4587.85
4573.81
4561.49
4549.66
4539.34
4529.29
4520.57
4511.96
4504.54
4497.11
4490.77
4484.35
4478.9
4473.29
4468.59
4463.72
4459.63
4455.33
4451.81
4448.04
4444.96
4441.63
4438.91
4436.01
4433.65
4431.12
4429.1
4426.92
4425.05
4423.14
4421.53
4419.84
4418.41
4416.91
4415.72
4414.49
4413.48
4412.35
4411.57
4410.59
4409.9
4409
4408.46
4407.73
4407.35
4406.72
4406.39
4405.84
4405.56
4405.01
4404.71
4404.22
4403.98
4403.58
4403.4
4403.06
4402.96
4402.73
4402.81
4402.78
4403.02
4403.02
4403.49
4403.49
4404.13
4404.13
4405.06
4405.77
4436.69
4547.76
86936.9
8261.58
7568.04
6999.52
6546.07
6189.64
5910.33
5689.14
5512.25
5368.22
5249.99
5151.09
5068.11
4997.12
4936.58
4883.79
4838.22
4797.83
4762.67
4731.03
4703.34
4678.07
4655.88
4635.38
4617.33
4600.45
4585.61
4571.55
4559.21
4547.35
4537.02
4526.95
4518.21
4509.58
4502.15
4494.71
4488.36
4481.92
4476.47
4470.85
4466.13
4461.25
4457.16
4452.85
4449.32
4445.54
4442.46
4439.12
4436.4
4433.49
4431.12
4428.58
4426.56
4424.38
4422.5
4420.59
4418.97
4417.28
4415.85
4414.34
4413.14
4411.91
4410.9
4409.76
4408.98
4408
4407.31
4406.41
4405.87
4405.13
4404.74
4404.11
4403.79
4403.23
4402.95
4402.4
4402.09
4401.6
4401.37
4400.95
4400.78
4400.43
4400.33
4400.1
4400.17
4400.14
4400.37
4400.37
4400.84
4400.84
4401.47
4401.46
4402.39
4403.11
4434.54
4545.5
83266.4
8261.59
7568.09
6999.53
6545.92
6189.26
5909.71
5688.27
5511.16
5366.95
5248.54
5149.49
5066.39
4995.28
4934.64
4881.76
4836.12
4795.65
4760.43
4728.74
4700.99
4675.68
4653.45
4632.9
4614.83
4597.91
4583.04
4568.95
4556.59
4544.71
4534.35
4524.26
4515.51
4506.86
4499.42
4491.96
4485.6
4479.14
4473.68
4468.04
4463.32
4458.43
4454.32
4450
4446.47
4442.68
4439.59
4436.24
4433.52
4430.61
4428.23
4425.68
4423.65
4421.46
4419.58
4417.66
4416.04
4414.35
4412.91
4411.4
4410.2
4408.96
4407.95
4406.8
4406.02
4405.03
4404.34
4403.44
4402.89
4402.15
4401.76
4401.12
4400.8
4400.24
4399.95
4399.4
4399.09
4398.6
4398.36
4397.95
4397.77
4397.42
4397.32
4397.08
4397.15
4397.11
4397.33
4397.33
4397.79
4397.79
4398.41
4398.41
4399.34
4400.07
4432.08
4542.94
79661.7
8261.59
7568.15
6999.53
6545.74
6188.83
5909
5687.3
5509.94
5365.51
5246.91
5147.69
5064.44
4993.2
4932.45
4879.47
4833.74
4793.19
4757.9
4726.14
4698.34
4672.98
4650.7
4630.11
4611.99
4595.04
4580.14
4566.02
4553.63
4541.73
4531.34
4521.23
4512.45
4503.79
4496.33
4488.85
4482.47
4476.01
4470.53
4464.88
4460.14
4455.24
4451.12
4446.79
4443.25
4439.45
4436.35
4433
4430.26
4427.34
4424.96
4422.4
4420.37
4418.17
4416.29
4414.36
4412.73
4411.03
4409.59
4408.07
4406.87
4405.62
4404.61
4403.46
4402.67
4401.68
4400.98
4400.07
4399.53
4398.78
4398.39
4397.75
4397.42
4396.86
4396.57
4396.02
4395.71
4395.21
4394.97
4394.55
4394.37
4394.02
4393.92
4393.67
4393.73
4393.69
4393.9
4393.9
4394.35
4394.35
4394.96
4394.96
4395.88
4396.63
4429.31
4540.06
76117.2
8261.6
7568.21
6999.54
6545.56
6188.36
5908.22
5686.21
5508.58
5363.9
5245.09
5145.68
5062.27
4990.89
4930.01
4876.91
4831.08
4790.45
4755.08
4723.25
4695.38
4669.96
4647.63
4626.99
4608.83
4591.84
4576.9
4562.75
4550.32
4538.39
4527.98
4517.84
4509.05
4500.36
4492.88
4485.38
4478.99
4472.5
4467.01
4461.34
4456.59
4451.68
4447.55
4443.21
4439.65
4435.84
4432.74
4429.37
4426.63
4423.7
4421.3
4418.74
4416.7
4414.49
4412.6
4410.67
4409.04
4407.33
4405.88
4404.35
4403.15
4401.89
4400.88
4399.72
4398.93
4397.93
4397.23
4396.32
4395.77
4395.02
4394.62
4393.97
4393.64
4393.08
4392.79
4392.24
4391.92
4391.43
4391.18
4390.76
4390.57
4390.22
4390.11
4389.86
4389.91
4389.86
4390.07
4390.07
4390.51
4390.51
4391.11
4391.11
4392.02
4392.78
4426.23
4536.87
72628.9
8261.6
7568.28
6999.55
6545.35
6187.84
5907.35
5685.02
5507.08
5362.13
5243.08
5143.47
5059.88
4988.33
4927.31
4874.09
4828.15
4787.42
4751.96
4720.05
4692.11
4666.62
4644.24
4623.55
4605.34
4588.3
4573.32
4559.13
4546.67
4534.7
4524.27
4514.1
4505.27
4496.57
4489.06
4481.54
4475.13
4468.62
4463.11
4457.43
4452.67
4447.73
4443.59
4439.24
4435.67
4431.85
4428.73
4425.35
4422.6
4419.66
4417.26
4414.69
4412.63
4410.42
4408.53
4406.58
4404.94
4403.23
4401.78
4400.24
4399.03
4397.77
4396.75
4395.58
4394.79
4393.78
4393.08
4392.16
4391.61
4390.85
4390.45
4389.8
4389.46
4388.9
4388.6
4388.05
4387.73
4387.23
4386.98
4386.56
4386.37
4386.01
4385.9
4385.64
4385.69
4385.63
4385.83
4385.82
4386.25
4386.25
4386.84
4386.84
4387.75
4388.53
4422.82
4533.37
69203.2
8261.6
7568.35
6999.56
6545.13
6187.27
5906.41
5683.71
5505.44
5360.2
5240.89
5141.04
5057.25
4985.53
4924.36
4871
4824.94
4784.1
4748.54
4716.54
4688.53
4662.97
4640.52
4619.76
4601.5
4584.41
4569.39
4555.15
4542.66
4530.66
4520.19
4509.99
4501.13
4492.4
4484.87
4477.32
4470.89
4464.36
4458.83
4453.14
4448.35
4443.41
4439.25
4434.88
4431.3
4427.46
4424.33
4420.94
4418.18
4415.23
4412.82
4410.23
4408.17
4405.95
4404.05
4402.09
4400.45
4398.72
4397.27
4395.73
4394.51
4393.24
4392.21
4391.04
4390.24
4389.23
4388.52
4387.6
4387.04
4386.28
4385.87
4385.21
4384.88
4384.31
4384.01
4383.45
4383.13
4382.63
4382.37
4381.94
4381.75
4381.39
4381.27
4381.01
4381.05
4380.98
4381.17
4381.16
4381.58
4381.58
4382.15
4382.16
4383.06
4383.86
4419.08
4529.56
65846.4
8261.61
7568.43
6999.58
6544.89
6186.66
5905.4
5682.3
5503.66
5358.09
5238.5
5138.41
5054.4
4982.48
4921.14
4867.63
4821.44
4780.47
4744.81
4712.72
4684.62
4658.98
4636.46
4615.64
4597.32
4580.17
4565.11
4550.82
4538.28
4526.24
4515.74
4505.5
4496.62
4487.85
4480.3
4472.73
4466.27
4459.72
4454.17
4448.45
4443.65
4438.68
4434.51
4430.12
4426.53
4422.68
4419.54
4416.13
4413.36
4410.39
4407.97
4405.38
4403.3
4401.07
4399.16
4397.2
4395.55
4393.81
4392.35
4390.8
4389.57
4388.29
4387.26
4386.08
4385.27
4384.26
4383.55
4382.62
4382.05
4381.28
4380.87
4380.21
4379.87
4379.3
4378.99
4378.43
4378.11
4377.6
4377.34
4376.91
4376.71
4376.35
4376.23
4375.96
4375.98
4375.91
4376.08
4376.07
4376.48
4376.48
4377.04
4377.04
4377.94
4378.76
4415
4525.44
62563.9
8261.61
7568.52
6999.59
6544.63
6186.01
5904.3
5680.77
5501.74
5355.82
5235.92
5135.55
5051.3
4979.18
4917.66
4863.98
4817.64
4776.55
4740.77
4708.58
4680.38
4654.65
4632.06
4611.17
4592.79
4575.58
4560.46
4546.12
4533.54
4521.46
4510.91
4500.64
4491.72
4482.92
4475.34
4467.74
4461.26
4454.68
4449.11
4443.37
4438.55
4433.56
4429.37
4424.96
4421.36
4417.49
4414.33
4410.91
4408.13
4405.15
4402.72
4400.11
4398.02
4395.78
4393.86
4391.88
4390.23
4388.48
4387.02
4385.45
4384.22
4382.93
4381.89
4380.7
4379.89
4378.87
4378.15
4377.21
4376.64
4375.86
4375.45
4374.78
4374.43
4373.86
4373.55
4372.99
4372.66
4372.15
4371.88
4371.45
4371.25
4370.87
4370.75
4370.48
4370.49
4370.41
4370.57
4370.56
4370.95
4370.95
4371.49
4371.49
4372.39
4373.24
4410.58
4521.02
59361.1
8261.62
7568.61
6999.61
6544.36
6185.31
5903.13
5679.13
5499.68
5353.38
5233.14
5132.48
5047.98
4975.63
4913.9
4860.05
4813.56
4772.32
4736.42
4704.11
4675.81
4649.99
4627.32
4606.35
4587.9
4570.62
4555.45
4541.05
4528.42
4516.29
4505.7
4495.39
4486.44
4477.6
4469.99
4462.36
4455.85
4449.25
4443.65
4437.88
4433.04
4428.03
4423.82
4419.4
4415.77
4411.89
4408.72
4405.28
4402.48
4399.49
4397.04
4394.42
4392.32
4390.07
4388.14
4386.15
4384.49
4382.73
4381.25
4379.68
4378.44
4377.14
4376.09
4374.9
4374.08
4373.04
4372.32
4371.38
4370.8
4370.02
4369.59
4368.92
4368.57
4367.99
4367.68
4367.11
4366.78
4366.26
4365.99
4365.55
4365.34
4364.97
4364.84
4364.56
4364.56
4364.46
4364.62
4364.6
4364.97
4364.97
4365.5
4365.5
4366.39
4367.27
4405.79
4516.3
56242.7
8261.62
7568.71
6999.63
6544.07
6184.56
5901.87
5677.39
5497.48
5350.77
5230.17
5129.19
5044.41
4971.82
4909.88
4855.84
4809.17
4767.79
4731.75
4699.32
4670.91
4644.99
4622.22
4601.17
4582.65
4565.3
4550.06
4535.61
4522.93
4510.74
4500.11
4489.75
4480.76
4471.89
4464.24
4456.58
4450.04
4443.4
4437.78
4431.99
4427.12
4422.09
4417.86
4413.41
4409.77
4405.87
4402.68
4399.23
4396.41
4393.4
4390.94
4388.31
4386.2
4383.93
4381.99
4379.99
4378.31
4376.54
4375.06
4373.48
4372.23
4370.91
4369.86
4368.66
4367.83
4366.79
4366.06
4365.11
4364.52
4363.73
4363.3
4362.62
4362.26
4361.68
4361.36
4360.79
4360.46
4359.93
4359.66
4359.21
4359
4358.62
4358.48
4358.2
4358.19
4358.08
4358.22
4358.19
4358.55
4358.55
4359.06
4359.07
4359.94
4360.85
4400.64
4511.27
53213.3
8261.62
7568.82
6999.66
6543.77
6183.77
5900.54
5675.53
5495.13
5347.98
5227
5125.69
5040.61
4967.75
4905.58
4851.33
4804.49
4762.94
4726.76
4694.19
4665.67
4639.64
4616.78
4595.63
4577.03
4559.61
4544.3
4529.79
4517.05
4504.81
4494.13
4483.72
4474.69
4465.77
4458.09
4450.39
4443.82
4437.15
4431.5
4425.68
4420.79
4415.73
4411.48
4407.01
4403.35
4399.42
4396.22
4392.75
4389.92
4386.89
4384.41
4381.76
4379.64
4377.35
4375.4
4373.39
4371.7
4369.92
4368.43
4366.83
4365.57
4364.25
4363.19
4361.97
4361.13
4360.08
4359.35
4358.39
4357.8
4357
4356.56
4355.87
4355.51
4354.92
4354.6
4354.02
4353.68
4353.15
4352.87
4352.42
4352.2
4351.81
4351.67
4351.39
4351.36
4351.24
4351.37
4351.34
4351.68
4351.68
4352.17
4352.17
4353.04
4353.99
4395.11
4505.95
50277
8261.63
7568.93
6999.68
6543.45
6182.94
5899.14
5673.56
5492.64
5345.03
5223.63
5121.96
5036.56
4963.42
4901.01
4846.54
4799.5
4757.78
4721.44
4688.73
4660.08
4633.94
4610.97
4589.73
4571.04
4553.54
4538.16
4523.58
4510.78
4498.48
4487.74
4477.29
4468.21
4459.25
4451.53
4443.79
4437.18
4430.48
4424.8
4418.95
4414.03
4408.95
4404.67
4400.18
4396.49
4392.55
4389.32
4385.83
4382.98
4379.94
4377.45
4374.78
4372.64
4370.34
4368.38
4366.35
4364.65
4362.86
4361.36
4359.75
4358.47
4357.14
4356.07
4354.84
4353.99
4352.93
4352.19
4351.22
4350.62
4349.81
4349.37
4348.67
4348.3
4347.71
4347.38
4346.8
4346.46
4345.92
4345.63
4345.17
4344.95
4344.55
4344.41
4344.11
4344.08
4343.94
4344.06
4344.02
4344.34
4344.34
4344.81
4344.81
4345.68
4346.66
4389.17
4500.29
47437.6
8261.63
7569.05
6999.72
6543.12
6182.07
5897.66
5671.48
5490.01
5341.9
5220.07
5118
5032.27
4958.83
4896.16
4841.45
4794.21
4752.29
4715.79
4682.93
4654.15
4627.88
4604.8
4583.46
4564.68
4547.09
4531.63
4516.98
4504.11
4491.75
4480.96
4470.45
4461.32
4452.32
4444.55
4436.77
4430.13
4423.39
4417.68
4411.79
4406.85
4401.73
4397.43
4392.91
4389.2
4385.23
4381.99
4378.48
4375.61
4372.54
4370.04
4367.35
4365.19
4362.88
4360.9
4358.86
4357.15
4355.34
4353.83
4352.2
4350.92
4349.57
4348.5
4347.25
4346.4
4345.32
4344.58
4343.6
4342.99
4342.17
4341.71
4341.01
4340.64
4340.03
4339.7
4339.11
4338.77
4338.22
4337.93
4337.46
4337.23
4336.83
4336.68
4336.38
4336.33
4336.17
4336.28
4336.23
4336.54
4336.54
4336.98
4336.98
4337.84
4338.86
4382.82
4494.29
44698.5
8261.63
7569.17
6999.75
6542.78
6181.15
5896.1
5669.29
5487.24
5338.6
5216.3
5113.83
5027.74
4953.98
4891.02
4836.07
4788.6
4746.49
4709.81
4676.79
4647.86
4621.46
4598.27
4576.82
4557.94
4540.26
4524.72
4509.98
4497.04
4484.62
4473.77
4463.2
4454.02
4444.96
4437.15
4429.33
4422.64
4415.87
4410.12
4404.2
4399.22
4394.08
4389.75
4385.2
4381.47
4377.47
4374.21
4370.67
4367.79
4364.7
4362.18
4359.47
4357.29
4354.96
4352.97
4350.91
4349.19
4347.36
4345.84
4344.2
4342.91
4341.54
4340.46
4339.2
4338.34
4337.25
4336.5
4335.51
4334.89
4334.06
4333.6
4332.88
4332.5
4331.89
4331.56
4330.96
4330.61
4330.05
4329.76
4329.28
4329.04
4328.63
4328.48
4328.17
4328.11
4327.94
4328.03
4327.97
4328.25
4328.26
4328.68
4328.68
4329.52
4330.59
4376.04
4487.9
42062.7
8261.63
7569.3
6999.79
6542.42
6180.2
5894.48
5666.99
5484.32
5335.13
5212.34
5109.43
5022.95
4948.86
4885.61
4830.38
4782.69
4740.36
4703.5
4670.3
4641.23
4614.68
4591.36
4569.79
4550.81
4533.03
4517.4
4502.58
4489.57
4477.07
4466.16
4455.53
4446.3
4437.19
4429.33
4421.45
4414.73
4407.91
4402.13
4396.17
4391.16
4385.98
4381.63
4377.05
4373.29
4369.27
4365.98
4362.42
4359.51
4356.4
4353.86
4351.13
4348.94
4346.59
4344.59
4342.5
4340.77
4338.93
4337.39
4335.74
4334.43
4333.05
4331.96
4330.69
4329.81
4328.71
4327.95
4326.94
4326.32
4325.47
4325
4324.28
4323.89
4323.27
4322.93
4322.33
4321.97
4321.41
4321.11
4320.62
4320.38
4319.96
4319.8
4319.48
4319.41
4319.22
4319.29
4319.22
4319.49
4319.49
4319.89
4319.89
4320.72
4321.83
4368.79
4481.1
39533.1
8261.63
7569.44
6999.84
6542.06
6179.21
5892.78
5664.59
5481.27
5331.48
5208.18
5104.8
5017.93
4943.48
4879.91
4824.4
4776.46
4733.91
4696.84
4663.47
4634.23
4607.54
4584.08
4562.39
4543.3
4525.41
4509.69
4494.78
4481.7
4469.12
4458.14
4447.44
4438.15
4428.98
4421.07
4413.15
4406.38
4399.52
4393.69
4387.7
4382.65
4377.44
4373.05
4368.44
4364.66
4360.6
4357.29
4353.71
4350.78
4347.64
4345.08
4342.33
4340.12
4337.75
4335.73
4333.63
4331.88
4330.02
4328.47
4326.8
4325.48
4324.08
4322.98
4321.69
4320.8
4319.69
4318.92
4317.9
4317.27
4316.41
4315.93
4315.2
4314.8
4314.17
4313.83
4313.22
4312.85
4312.28
4311.98
4311.48
4311.23
4310.8
4310.63
4310.3
4310.22
4310.02
4310.08
4309.99
4310.24
4310.24
4310.61
4310.61
4311.43
4312.59
4361.06
4473.85
37111.9
8261.63
7569.58
6999.89
6541.68
6178.18
5891
5662.08
5478.07
5327.67
5203.82
5099.96
5012.65
4937.82
4873.92
4818.12
4769.91
4727.12
4689.85
4656.28
4626.87
4600.02
4576.42
4554.6
4535.39
4517.4
4501.58
4486.57
4473.4
4460.74
4449.69
4438.93
4429.57
4420.34
4412.38
4404.4
4397.59
4390.68
4384.81
4378.78
4373.69
4368.44
4364.03
4359.38
4355.56
4351.48
4348.14
4344.53
4341.58
4338.42
4335.83
4333.06
4330.83
4328.43
4326.4
4324.28
4322.51
4320.63
4319.08
4317.39
4316.06
4314.63
4313.52
4312.22
4311.32
4310.19
4309.41
4308.38
4307.74
4306.87
4306.38
4305.63
4305.23
4304.59
4304.24
4303.62
4303.25
4302.67
4302.35
4301.84
4301.59
4301.15
4300.97
4300.63
4300.54
4300.32
4300.36
4300.27
4300.49
4300.49
4300.84
4300.83
4301.64
4302.85
4352.81
4466.13
34801.2
8261.63
7569.72
6999.94
6541.3
6177.11
5889.16
5659.47
5474.74
5323.68
5199.25
5094.88
5007.13
4931.9
4867.65
4811.53
4763.05
4720.01
4682.51
4648.74
4619.15
4592.13
4568.39
4546.43
4527.09
4508.98
4493.06
4477.95
4464.69
4451.95
4440.82
4429.98
4420.56
4411.27
4403.25
4395.21
4388.35
4381.39
4375.48
4369.4
4364.28
4358.98
4354.54
4349.85
4346
4341.89
4338.52
4334.88
4331.91
4328.72
4326.11
4323.31
4321.06
4318.64
4316.59
4314.45
4312.67
4310.77
4309.2
4307.49
4306.14
4304.7
4303.58
4302.26
4301.34
4300.2
4299.41
4298.37
4297.71
4296.83
4296.33
4295.57
4295.16
4294.51
4294.15
4293.52
4293.15
4292.56
4292.23
4291.71
4291.45
4291
4290.81
4290.47
4290.37
4290.13
4290.15
4290.04
4290.25
4290.24
4290.56
4290.55
4291.35
4292.61
4344.01
4457.89
32602.9
8261.63
7569.88
7000
6540.9
6176.01
5887.26
5656.75
5471.27
5319.53
5194.5
5089.59
5001.36
4925.71
4861.09
4804.64
4755.87
4712.56
4674.83
4640.84
4611.06
4583.87
4559.97
4537.86
4518.39
4500.16
4484.12
4468.92
4455.56
4442.73
4431.52
4420.6
4411.12
4401.75
4393.67
4385.58
4378.66
4371.64
4365.69
4359.56
4354.4
4349.06
4344.58
4339.86
4335.98
4331.83
4328.43
4324.76
4321.76
4318.54
4315.91
4313.08
4310.81
4308.37
4306.3
4304.13
4302.34
4300.41
4298.83
4297.1
4295.74
4294.28
4293.14
4291.8
4290.88
4289.72
4288.92
4287.86
4287.19
4286.29
4285.78
4285.01
4284.59
4283.93
4283.56
4282.93
4282.54
4281.95
4281.61
4281.08
4280.81
4280.35
4280.15
4279.8
4279.69
4279.44
4279.44
4279.31
4279.49
4279.48
4279.78
4279.76
4280.55
4281.86
4334.63
4449.09
30518.5
8261.63
7570.03
7000.07
6540.5
6174.88
5885.29
5653.93
5467.67
5315.21
5189.54
5084.07
4995.35
4919.26
4854.25
4797.45
4748.36
4704.78
4666.8
4632.59
4602.61
4575.23
4551.16
4528.9
4509.29
4490.93
4474.78
4459.46
4446.01
4433.08
4421.79
4410.78
4401.22
4391.79
4383.64
4375.49
4368.51
4361.44
4355.44
4349.26
4344.06
4338.67
4334.15
4329.39
4325.48
4321.29
4317.86
4314.16
4311.13
4307.88
4305.23
4302.37
4300.07
4297.61
4295.52
4293.33
4291.51
4289.57
4287.97
4286.22
4284.84
4283.36
4282.21
4280.85
4279.91
4278.74
4277.92
4276.85
4276.17
4275.26
4274.73
4273.95
4273.51
4272.84
4272.47
4271.83
4271.43
4270.83
4270.48
4269.94
4269.66
4269.19
4268.98
4268.62
4268.49
4268.23
4268.21
4268.06
4268.23
4268.21
4268.48
4268.45
4269.23
4270.6
4324.61
4439.7
28549.3
8261.63
7570.2
7000.14
6540.1
6173.72
5883.25
5651.02
5463.93
5310.73
5184.39
5078.33
4989.09
4912.53
4847.11
4789.95
4740.54
4696.67
4658.43
4623.98
4593.78
4566.21
4541.97
4519.54
4499.79
4481.29
4465.02
4449.58
4436.02
4422.99
4411.61
4400.52
4390.89
4381.37
4373.16
4364.94
4357.91
4350.78
4344.72
4338.49
4333.24
4327.81
4323.25
4318.45
4314.5
4310.27
4306.81
4303.08
4300.02
4296.74
4294.06
4291.17
4288.85
4286.35
4284.25
4282.03
4280.19
4278.22
4276.61
4274.84
4273.45
4271.94
4270.77
4269.4
4268.44
4267.25
4266.42
4265.33
4264.64
4263.71
4263.17
4262.38
4261.93
4261.25
4260.87
4260.21
4259.81
4259.19
4258.84
4258.29
4258
4257.52
4257.3
4256.92
4256.78
4256.51
4256.47
4256.3
4256.44
4256.42
4256.66
4256.62
4257.39
4258.81
4313.95
4429.68
26696.4
8261.62
7570.36
7000.22
6539.68
6172.52
5881.15
5648.01
5460.06
5306.08
5179.05
5072.37
4982.58
4905.54
4839.7
4782.15
4732.4
4688.22
4649.7
4615
4584.59
4556.81
4532.38
4509.78
4489.88
4471.23
4454.83
4439.27
4425.61
4412.47
4401
4389.82
4380.1
4370.51
4362.23
4353.93
4346.84
4339.65
4333.54
4327.26
4321.96
4316.47
4311.87
4307.02
4303.03
4298.77
4295.27
4291.5
4288.41
4285.1
4282.39
4279.47
4277.12
4274.6
4272.47
4270.22
4268.37
4266.38
4264.75
4262.95
4261.54
4260.01
4258.83
4257.43
4256.46
4255.25
4254.41
4253.3
4252.6
4251.65
4251.1
4250.29
4249.83
4249.14
4248.75
4248.08
4247.67
4247.04
4246.68
4246.12
4245.81
4245.32
4245.09
4244.7
4244.55
4244.27
4244.21
4244.01
4244.14
4244.1
4244.32
4244.27
4245.02
4246.5
4302.65
4418.99
24961
8261.62
7570.53
7000.31
6539.27
6171.3
5879
5644.91
5456.07
5301.27
5173.52
5066.19
4975.83
4898.28
4831.99
4774.04
4723.94
4679.43
4640.63
4605.67
4575.02
4547.02
4522.41
4499.63
4479.56
4460.76
4444.23
4428.54
4414.76
4401.51
4389.94
4378.66
4368.86
4359.19
4350.83
4342.46
4335.31
4328.05
4321.88
4315.54
4310.19
4304.66
4300.01
4295.11
4291.08
4286.78
4283.25
4279.44
4276.31
4272.97
4270.23
4267.28
4264.9
4262.34
4260.19
4257.92
4256.05
4254.03
4252.37
4250.56
4249.13
4247.57
4246.38
4244.96
4243.97
4242.73
4241.88
4240.76
4240.04
4239.07
4238.51
4237.68
4237.21
4236.5
4236.1
4235.43
4235.01
4234.37
4234
4233.42
4233.11
4232.6
4232.36
4231.95
4231.79
4231.49
4231.42
4231.2
4231.3
4231.26
4231.45
4231.38
4232.13
4233.65
4290.69
4407.58
23343.9
8261.61
7570.71
7000.4
6538.85
6170.06
5876.79
5641.71
5451.95
5296.31
5167.8
5059.79
4968.84
4890.76
4824
4765.63
4715.15
4670.31
4631.21
4595.97
4565.08
4536.86
4512.04
4489.07
4468.84
4449.88
4433.2
4417.38
4403.48
4390.11
4378.44
4367.06
4357.17
4347.4
4338.97
4330.53
4323.3
4315.97
4309.75
4303.35
4297.94
4292.35
4287.66
4282.71
4278.64
4274.29
4270.72
4266.87
4263.72
4260.33
4257.56
4254.58
4252.17
4249.58
4247.41
4245.1
4243.21
4241.16
4239.49
4237.65
4236.2
4234.62
4233.4
4231.96
4230.95
4229.7
4228.83
4227.69
4226.96
4225.97
4225.4
4224.55
4224.07
4223.35
4222.94
4222.25
4221.82
4221.16
4220.78
4220.19
4219.87
4219.35
4219.1
4218.67
4218.5
4218.19
4218.1
4217.86
4217.93
4217.88
4218.05
4217.96
4218.69
4220.27
4278.09
4395.43
21841.2
8261.6
7570.89
7000.5
6538.43
6168.79
5874.52
5638.43
5447.71
5291.19
5161.89
5053.18
4961.61
4882.98
4815.73
4756.92
4706.05
4660.85
4621.44
4585.92
4554.77
4526.3
4501.28
4478.11
4457.7
4438.58
4421.75
4405.78
4391.76
4378.27
4366.49
4355
4345.02
4335.16
4326.65
4318.12
4310.82
4303.42
4297.14
4290.67
4285.21
4279.56
4274.82
4269.82
4265.71
4261.31
4257.7
4253.81
4250.62
4247.19
4244.39
4241.37
4238.93
4236.31
4234.11
4231.78
4229.86
4227.78
4226.09
4224.22
4222.75
4221.14
4219.91
4218.44
4217.42
4216.14
4215.26
4214.1
4213.35
4212.35
4211.75
4210.89
4210.4
4209.66
4209.24
4208.53
4208.1
4207.43
4207.04
4206.43
4206.1
4205.56
4205.3
4204.86
4204.68
4204.34
4204.24
4203.98
4204.03
4203.96
4204.1
4203.99
4204.71
4206.34
4264.84
4382.49
20448
8261.59
7571.07
7000.61
6538.01
6167.5
5872.21
5635.07
5443.35
5285.92
5155.8
5046.36
4954.15
4874.93
4807.17
4747.9
4696.63
4651.06
4611.32
4575.5
4544.08
4515.37
4490.12
4466.75
4446.16
4426.85
4409.87
4393.76
4379.6
4365.98
4354.09
4342.49
4332.41
4322.45
4313.86
4305.24
4297.87
4290.4
4284.04
4277.51
4271.99
4266.28
4261.49
4256.44
4252.27
4247.83
4244.18
4240.24
4237.01
4233.55
4230.71
4227.65
4225.18
4222.53
4220.3
4217.93
4215.99
4213.88
4212.17
4210.27
4208.78
4207.14
4205.9
4204.4
4203.36
4202.06
4201.16
4199.98
4199.22
4198.19
4197.58
4196.7
4196.19
4195.44
4195
4194.29
4193.84
4193.16
4192.75
4192.13
4191.78
4191.23
4190.96
4190.5
4190.31
4189.96
4189.84
4189.56
4189.59
4189.5
4189.62
4189.48
4190.19
4191.86
4250.95
4368.72
19159.6
8261.58
7571.26
7000.72
6537.59
6166.2
5869.85
5631.63
5438.88
5280.5
5149.53
5039.33
4946.44
4866.63
4798.34
4738.59
4686.89
4640.94
4600.86
4564.72
4533.02
4504.05
4478.57
4454.98
4434.2
4414.71
4397.57
4381.3
4367
4353.25
4341.24
4329.52
4319.34
4309.28
4300.6
4291.89
4284.44
4276.89
4270.46
4263.86
4258.28
4252.51
4247.66
4242.55
4238.34
4233.84
4230.15
4226.17
4222.9
4219.39
4216.52
4213.42
4210.92
4208.23
4205.97
4203.57
4201.6
4199.46
4197.73
4195.8
4194.29
4192.62
4191.35
4189.83
4188.77
4187.44
4186.53
4185.32
4184.54
4183.5
4182.87
4181.97
4181.44
4180.67
4180.23
4179.5
4179.05
4178.34
4177.93
4177.29
4176.93
4176.36
4176.08
4175.6
4175.39
4175.03
4174.89
4174.59
4174.6
4174.49
4174.58
4174.42
4175.12
4176.83
4236.4
4354.09
17970.7
8261.57
7571.45
7000.85
6537.18
6164.87
5867.44
5628.11
5434.3
5274.93
5143.09
5032.1
4938.51
4858.07
4789.23
4728.98
4676.84
4630.49
4590.05
4553.58
4521.59
4492.35
4466.63
4442.81
4421.83
4402.15
4384.84
4368.4
4353.96
4340.07
4327.93
4316.1
4305.81
4295.64
4286.86
4278.07
4270.53
4262.9
4256.4
4249.72
4244.08
4238.24
4233.34
4228.17
4223.91
4219.36
4215.61
4211.59
4208.28
4204.72
4201.82
4198.67
4196.13
4193.4
4191.12
4188.68
4186.69
4184.51
4182.76
4180.8
4179.26
4177.56
4176.28
4174.73
4173.64
4172.29
4171.36
4170.13
4169.34
4168.27
4167.62
4166.7
4166.16
4165.37
4164.92
4164.17
4163.71
4162.99
4162.56
4161.91
4161.53
4160.95
4160.65
4160.16
4159.93
4159.55
4159.4
4159.08
4159.06
4158.94
4159
4158.81
4159.5
4161.24
4221.21
4338.57
16875.9
8261.55
7571.64
7000.98
6536.77
6163.54
5865
5624.51
5429.61
5269.23
5136.48
5024.67
4930.36
4849.26
4779.84
4719.08
4666.48
4619.7
4578.9
4542.08
4509.79
4480.27
4454.29
4430.24
4409.05
4389.17
4371.68
4355.07
4340.48
4326.45
4314.18
4302.21
4291.81
4281.54
4272.66
4263.77
4256.15
4248.42
4241.85
4235.09
4229.39
4223.48
4218.52
4213.29
4208.97
4204.36
4200.57
4196.49
4193.14
4189.54
4186.59
4183.41
4180.83
4178.06
4175.75
4173.27
4171.25
4169.04
4167.26
4165.27
4163.71
4161.97
4160.67
4159.09
4157.98
4156.61
4155.66
4154.4
4153.59
4152.49
4151.83
4150.89
4150.33
4149.53
4149.06
4148.3
4147.82
4147.09
4146.65
4145.97
4145.59
4144.98
4144.67
4144.16
4143.92
4143.51
4143.35
4143.02
4142.97
4142.83
4142.86
4142.64
4143.32
4145.09
4205.36
4322.14
15869.3
8261.53
7571.83
7001.12
6536.36
6162.19
5862.52
5620.85
5424.82
5263.4
5129.7
5017.04
4921.97
4840.21
4770.19
4708.88
4655.81
4608.6
4567.4
4530.23
4497.62
4467.81
4441.57
4417.27
4395.86
4375.77
4358.1
4341.31
4326.56
4312.37
4299.97
4287.87
4277.35
4266.96
4257.98
4248.99
4241.28
4233.46
4226.81
4219.98
4214.2
4208.22
4203.19
4197.9
4193.52
4188.86
4185.02
4180.89
4177.49
4173.84
4170.85
4167.62
4165.01
4162.19
4159.85
4157.33
4155.28
4153.03
4151.23
4149.2
4147.62
4145.85
4144.52
4142.91
4141.79
4140.38
4139.41
4138.13
4137.3
4136.18
4135.5
4134.53
4133.96
4133.14
4132.65
4131.87
4131.38
4130.63
4130.18
4129.49
4129.09
4128.47
4128.14
4127.61
4127.36
4126.93
4126.75
4126.4
4126.33
4126.17
4126.17
4125.91
4126.59
4128.37
4188.86
4304.76
14945.2
8261.51
7572.03
7001.26
6535.96
6160.84
5860.01
5617.13
5419.93
5257.43
5122.76
5009.22
4913.38
4830.91
4760.27
4698.4
4644.83
4597.17
4555.57
4518.03
4485.09
4454.97
4428.46
4403.9
4382.26
4361.96
4344.09
4327.12
4312.21
4297.85
4285.31
4273.07
4262.43
4251.92
4242.83
4233.73
4225.93
4218.02
4211.29
4204.37
4198.52
4192.46
4187.37
4182.01
4177.57
4172.85
4168.96
4164.77