/*--------------------------------*- C++ -*----------------------------------*\
| =========                 |                                                 |
| \\      /  F ield         | OpenFOAM: The Open Source CFD Toolbox           |
|  \\    /   O peration     | Version:  v2012                                 |
|   \\  /    A nd           | Website:  www.openfoam.com                      |
|    \\/     M anipulation  |                                                 |
\*---------------------------------------------------------------------------*/
FoamFile
{
    version     2.0;
    format      ascii;
    class       volVectorField;
    location    "41.5";
    object      wallShearStress;
}
// * * * * * * * * * * * * * * * * * * * * * * * * * * * * * * * * * * * * * //

dimensions      [0 2 -2 0 0 0 0];


internalField   uniform (0 0 0);

boundaryField
{
    inlet
    {
        type            calculated;
        value           uniform (0 0 0);
    }
    outlet
    {
        type            calculated;
        value           uniform (0 0 0);
    }
    topWall
    {
        type            calculated;
        value           nonuniform List<vector> 
545
(
(3.67432e-08 -2.5864e-08 0)
(3.67319e-08 -7.23519e-08 0)
(3.67116e-08 -1.20693e-07 0)
(3.6683e-08 -1.67636e-07 0)
(3.66471e-08 -2.12581e-07 0)
(3.66046e-08 -2.56106e-07 0)
(3.65561e-08 -2.98579e-07 0)
(3.6502e-08 -3.39983e-07 0)
(3.64427e-08 -3.80225e-07 0)
(3.63788e-08 -4.19305e-07 0)
(3.63107e-08 -4.57275e-07 0)
(3.62387e-08 -4.94179e-07 0)
(3.61633e-08 -5.30041e-07 0)
(3.60848e-08 -5.64883e-07 0)
(3.60036e-08 -5.98729e-07 0)
(3.592e-08 -6.31607e-07 0)
(3.58342e-08 -6.63542e-07 0)
(3.57465e-08 -6.94561e-07 0)
(3.56573e-08 -7.24686e-07 0)
(3.55667e-08 -7.53943e-07 0)
(3.5475e-08 -7.82355e-07 0)
(3.53823e-08 -8.09946e-07 0)
(3.52889e-08 -8.3674e-07 0)
(3.5195e-08 -8.62757e-07 0)
(3.51007e-08 -8.88021e-07 0)
(3.50063e-08 -9.12552e-07 0)
(3.49117e-08 -9.36372e-07 0)
(3.48172e-08 -9.59501e-07 0)
(3.47229e-08 -9.81959e-07 0)
(3.4629e-08 -1.00377e-06 0)
(3.45354e-08 -1.02494e-06 0)
(3.44424e-08 -1.0455e-06 0)
(3.435e-08 -1.06546e-06 0)
(3.42582e-08 -1.08485e-06 0)
(3.41673e-08 -1.10368e-06 0)
(3.40771e-08 -1.12195e-06 0)
(3.39879e-08 -1.13971e-06 0)
(3.38996e-08 -1.15694e-06 0)
(3.38124e-08 -1.17368e-06 0)
(3.37262e-08 -1.18994e-06 0)
(3.3641e-08 -1.20573e-06 0)
(3.3557e-08 -1.22106e-06 0)
(3.34742e-08 -1.23595e-06 0)
(3.33925e-08 -1.25041e-06 0)
(3.33121e-08 -1.26446e-06 0)
(3.32329e-08 -1.27811e-06 0)
(3.31549e-08 -1.29136e-06 0)
(3.30782e-08 -1.30423e-06 0)
(3.30027e-08 -1.31674e-06 0)
(3.29285e-08 -1.32889e-06 0)
(3.28556e-08 -1.34069e-06 0)
(3.2784e-08 -1.35215e-06 0)
(3.27137e-08 -1.36329e-06 0)
(3.26446e-08 -1.37411e-06 0)
(3.25769e-08 -1.38463e-06 0)
(3.25104e-08 -1.39484e-06 0)
(3.24452e-08 -1.40477e-06 0)
(3.23812e-08 -1.41442e-06 0)
(3.23185e-08 -1.42379e-06 0)
(3.22571e-08 -1.4329e-06 0)
(3.21969e-08 -1.44175e-06 0)
(3.21379e-08 -1.45035e-06 0)
(3.20801e-08 -1.45871e-06 0)
(3.20236e-08 -1.46684e-06 0)
(3.19682e-08 -1.47473e-06 0)
(3.1914e-08 -1.48241e-06 0)
(3.18609e-08 -1.48987e-06 0)
(3.1809e-08 -1.49712e-06 0)
(3.17582e-08 -1.50417e-06 0)
(3.17085e-08 -1.51102e-06 0)
(3.16599e-08 -1.51769e-06 0)
(3.16126e-08 -1.52415e-06 0)
(3.15667e-08 -1.53038e-06 0)
(3.15215e-08 -1.53642e-06 0)
(3.14767e-08 -1.54239e-06 0)
(3.14321e-08 -1.54834e-06 0)
(3.13875e-08 -1.55426e-06 0)
(3.13429e-08 -1.56014e-06 0)
(3.12984e-08 -1.56599e-06 0)
(3.1254e-08 -1.5718e-06 0)
(3.12095e-08 -1.57758e-06 0)
(3.11652e-08 -1.58332e-06 0)
(3.11208e-08 -1.58903e-06 0)
(3.10765e-08 -1.5947e-06 0)
(3.10323e-08 -1.60034e-06 0)
(3.09881e-08 -1.60595e-06 0)
(3.0944e-08 -1.61152e-06 0)
(3.08999e-08 -1.61706e-06 0)
(3.08558e-08 -1.62257e-06 0)
(3.08119e-08 -1.62804e-06 0)
(3.07679e-08 -1.63348e-06 0)
(3.07241e-08 -1.63889e-06 0)
(3.06803e-08 -1.64427e-06 0)
(3.06366e-08 -1.6496e-06 0)
(3.05926e-08 -1.65493e-06 0)
(3.05506e-08 -1.66016e-06 0)
(3.05117e-08 -1.66495e-06 0)
(3.04743e-08 -1.66929e-06 0)
(3.04382e-08 -1.67352e-06 0)
(3.04022e-08 -1.67777e-06 0)
(3.03661e-08 -1.68205e-06 0)
(3.03299e-08 -1.68635e-06 0)
(3.02935e-08 -1.69065e-06 0)
(3.02569e-08 -1.69494e-06 0)
(3.02202e-08 -1.69924e-06 0)
(3.01833e-08 -1.70355e-06 0)
(3.01462e-08 -1.70786e-06 0)
(3.01089e-08 -1.71218e-06 0)
(3.00715e-08 -1.7165e-06 0)
(3.00338e-08 -1.72083e-06 0)
(2.9996e-08 -1.72516e-06 0)
(2.9958e-08 -1.7295e-06 0)
(2.99199e-08 -1.73384e-06 0)
(2.98815e-08 -1.73819e-06 0)
(2.9843e-08 -1.74254e-06 0)
(2.98043e-08 -1.74689e-06 0)
(2.97654e-08 -1.75125e-06 0)
(2.97263e-08 -1.75562e-06 0)
(2.96871e-08 -1.75998e-06 0)
(2.96476e-08 -1.76436e-06 0)
(2.9608e-08 -1.76874e-06 0)
(2.95682e-08 -1.77312e-06 0)
(2.95282e-08 -1.7775e-06 0)
(2.9488e-08 -1.78189e-06 0)
(2.94477e-08 -1.78629e-06 0)
(2.94071e-08 -1.79069e-06 0)
(2.93664e-08 -1.79509e-06 0)
(2.93255e-08 -1.7995e-06 0)
(2.92844e-08 -1.80391e-06 0)
(2.92431e-08 -1.80833e-06 0)
(2.92016e-08 -1.81275e-06 0)
(2.91599e-08 -1.81718e-06 0)
(2.9118e-08 -1.82161e-06 0)
(2.90759e-08 -1.82604e-06 0)
(2.90337e-08 -1.83048e-06 0)
(2.89912e-08 -1.83492e-06 0)
(2.89486e-08 -1.83936e-06 0)
(2.89058e-08 -1.84381e-06 0)
(2.88628e-08 -1.84826e-06 0)
(2.88195e-08 -1.85272e-06 0)
(2.87761e-08 -1.85718e-06 0)
(2.87325e-08 -1.86164e-06 0)
(2.86887e-08 -1.86611e-06 0)
(2.86447e-08 -1.87058e-06 0)
(2.86005e-08 -1.87506e-06 0)
(2.85561e-08 -1.87954e-06 0)
(2.85116e-08 -1.88402e-06 0)
(2.84668e-08 -1.88851e-06 0)
(2.84218e-08 -1.893e-06 0)
(2.83766e-08 -1.89749e-06 0)
(2.83312e-08 -1.90198e-06 0)
(2.82857e-08 -1.90648e-06 0)
(2.82399e-08 -1.91099e-06 0)
(2.81939e-08 -1.91549e-06 0)
(2.81477e-08 -1.92e-06 0)
(2.81014e-08 -1.92452e-06 0)
(2.80548e-08 -1.92903e-06 0)
(2.8008e-08 -1.93355e-06 0)
(2.7961e-08 -1.93807e-06 0)
(2.79138e-08 -1.9426e-06 0)
(2.78664e-08 -1.94713e-06 0)
(2.78189e-08 -1.95166e-06 0)
(2.77711e-08 -1.95619e-06 0)
(2.77231e-08 -1.96073e-06 0)
(2.76749e-08 -1.96527e-06 0)
(2.76265e-08 -1.96981e-06 0)
(2.75778e-08 -1.97436e-06 0)
(2.7529e-08 -1.9789e-06 0)
(2.748e-08 -1.98346e-06 0)
(2.74308e-08 -1.98801e-06 0)
(2.73814e-08 -1.99256e-06 0)
(2.73317e-08 -1.99712e-06 0)
(2.72819e-08 -2.00168e-06 0)
(2.72318e-08 -2.00625e-06 0)
(2.71816e-08 -2.01081e-06 0)
(2.71311e-08 -2.01538e-06 0)
(2.70804e-08 -2.01995e-06 0)
(2.70295e-08 -2.02452e-06 0)
(2.69784e-08 -2.02909e-06 0)
(2.69271e-08 -2.03367e-06 0)
(2.68756e-08 -2.03825e-06 0)
(2.68239e-08 -2.04283e-06 0)
(2.6772e-08 -2.04741e-06 0)
(2.67198e-08 -2.052e-06 0)
(2.66675e-08 -2.05658e-06 0)
(2.66149e-08 -2.06117e-06 0)
(2.65621e-08 -2.06576e-06 0)
(2.65092e-08 -2.07035e-06 0)
(2.6456e-08 -2.07494e-06 0)
(2.64026e-08 -2.07954e-06 0)
(2.6349e-08 -2.08413e-06 0)
(2.62951e-08 -2.08873e-06 0)
(2.62411e-08 -2.09333e-06 0)
(2.61869e-08 -2.09793e-06 0)
(2.61324e-08 -2.10253e-06 0)
(2.60777e-08 -2.10713e-06 0)
(2.60228e-08 -2.11174e-06 0)
(2.59677e-08 -2.11634e-06 0)
(2.59124e-08 -2.12095e-06 0)
(2.58569e-08 -2.12556e-06 0)
(2.58012e-08 -2.13016e-06 0)
(2.57452e-08 -2.13477e-06 0)
(2.56891e-08 -2.13938e-06 0)
(2.56327e-08 -2.14399e-06 0)
(2.55761e-08 -2.1486e-06 0)
(2.55193e-08 -2.15321e-06 0)
(2.54623e-08 -2.15783e-06 0)
(2.54051e-08 -2.16244e-06 0)
(2.53477e-08 -2.16705e-06 0)
(2.529e-08 -2.17167e-06 0)
(2.52322e-08 -2.17628e-06 0)
(2.51741e-08 -2.18089e-06 0)
(2.51158e-08 -2.18551e-06 0)
(2.50573e-08 -2.19012e-06 0)
(2.49986e-08 -2.19474e-06 0)
(2.49397e-08 -2.19935e-06 0)
(2.48805e-08 -2.20397e-06 0)
(2.48212e-08 -2.20858e-06 0)
(2.47616e-08 -2.2132e-06 0)
(2.47019e-08 -2.21781e-06 0)
(2.46419e-08 -2.22242e-06 0)
(2.45817e-08 -2.22704e-06 0)
(2.45213e-08 -2.23165e-06 0)
(2.44607e-08 -2.23626e-06 0)
(2.43998e-08 -2.24087e-06 0)
(2.43388e-08 -2.24548e-06 0)
(2.42775e-08 -2.2501e-06 0)
(2.42161e-08 -2.2547e-06 0)
(2.41544e-08 -2.25931e-06 0)
(2.40925e-08 -2.26392e-06 0)
(2.40304e-08 -2.26853e-06 0)
(2.39681e-08 -2.27313e-06 0)
(2.39056e-08 -2.27774e-06 0)
(2.38429e-08 -2.28234e-06 0)
(2.378e-08 -2.28694e-06 0)
(2.37168e-08 -2.29154e-06 0)
(2.36535e-08 -2.29614e-06 0)
(2.35899e-08 -2.30074e-06 0)
(2.35261e-08 -2.30534e-06 0)
(2.34622e-08 -2.30993e-06 0)
(2.3398e-08 -2.31452e-06 0)
(2.33336e-08 -2.31912e-06 0)
(2.3269e-08 -2.3237e-06 0)
(2.32042e-08 -2.32829e-06 0)
(2.31392e-08 -2.33288e-06 0)
(2.3074e-08 -2.33746e-06 0)
(2.30086e-08 -2.34204e-06 0)
(2.2943e-08 -2.34662e-06 0)
(2.28772e-08 -2.35119e-06 0)
(2.28111e-08 -2.35577e-06 0)
(2.27449e-08 -2.36034e-06 0)
(2.26785e-08 -2.36491e-06 0)
(2.26119e-08 -2.36947e-06 0)
(2.2545e-08 -2.37404e-06 0)
(2.2478e-08 -2.3786e-06 0)
(2.24108e-08 -2.38316e-06 0)
(2.23433e-08 -2.38771e-06 0)
(2.22757e-08 -2.39226e-06 0)
(2.22079e-08 -2.39681e-06 0)
(2.21399e-08 -2.40136e-06 0)
(2.20717e-08 -2.4059e-06 0)
(2.20033e-08 -2.41044e-06 0)
(2.19346e-08 -2.41497e-06 0)
(2.18658e-08 -2.4195e-06 0)
(2.17969e-08 -2.42403e-06 0)
(2.17276e-08 -2.42856e-06 0)
(2.16583e-08 -2.43307e-06 0)
(2.15884e-08 -2.4376e-06 0)
(2.15202e-08 -2.44208e-06 0)
(2.14546e-08 -2.44636e-06 0)
(2.13902e-08 -2.45042e-06 0)
(2.13266e-08 -2.45445e-06 0)
(2.12625e-08 -2.45851e-06 0)
(2.11978e-08 -2.46263e-06 0)
(2.11324e-08 -2.46678e-06 0)
(2.10663e-08 -2.47097e-06 0)
(2.09995e-08 -2.47518e-06 0)
(2.09319e-08 -2.47942e-06 0)
(2.08636e-08 -2.4837e-06 0)
(2.07945e-08 -2.48801e-06 0)
(2.07246e-08 -2.49235e-06 0)
(2.0654e-08 -2.49672e-06 0)
(2.05826e-08 -2.50113e-06 0)
(2.05104e-08 -2.50556e-06 0)
(2.04375e-08 -2.51003e-06 0)
(2.03637e-08 -2.51454e-06 0)
(2.02891e-08 -2.51907e-06 0)
(2.02137e-08 -2.52364e-06 0)
(2.01375e-08 -2.52824e-06 0)
(2.00605e-08 -2.53287e-06 0)
(1.99826e-08 -2.53754e-06 0)
(1.99039e-08 -2.54223e-06 0)
(1.98244e-08 -2.54696e-06 0)
(1.9744e-08 -2.55172e-06 0)
(1.96627e-08 -2.55651e-06 0)
(1.95806e-08 -2.56134e-06 0)
(1.94975e-08 -2.5662e-06 0)
(1.94136e-08 -2.57109e-06 0)
(1.93289e-08 -2.57601e-06 0)
(1.92432e-08 -2.58096e-06 0)
(1.91566e-08 -2.58594e-06 0)
(1.90691e-08 -2.59096e-06 0)
(1.89807e-08 -2.596e-06 0)
(1.88913e-08 -2.60108e-06 0)
(1.88011e-08 -2.60619e-06 0)
(1.87099e-08 -2.61132e-06 0)
(1.86177e-08 -2.61649e-06 0)
(1.85246e-08 -2.62169e-06 0)
(1.84306e-08 -2.62692e-06 0)
(1.83356e-08 -2.63218e-06 0)
(1.82396e-08 -2.63747e-06 0)
(1.81426e-08 -2.64278e-06 0)
(1.80447e-08 -2.64813e-06 0)
(1.79458e-08 -2.65351e-06 0)
(1.78459e-08 -2.65891e-06 0)
(1.7745e-08 -2.66434e-06 0)
(1.76431e-08 -2.6698e-06 0)
(1.75402e-08 -2.67529e-06 0)
(1.74363e-08 -2.6808e-06 0)
(1.73314e-08 -2.68634e-06 0)
(1.72255e-08 -2.69191e-06 0)
(1.71186e-08 -2.6975e-06 0)
(1.70106e-08 -2.70312e-06 0)
(1.69016e-08 -2.70876e-06 0)
(1.67915e-08 -2.71443e-06 0)
(1.66805e-08 -2.72012e-06 0)
(1.65684e-08 -2.72583e-06 0)
(1.64552e-08 -2.73157e-06 0)
(1.6341e-08 -2.73733e-06 0)
(1.62258e-08 -2.74311e-06 0)
(1.61095e-08 -2.74891e-06 0)
(1.59922e-08 -2.75473e-06 0)
(1.58738e-08 -2.76058e-06 0)
(1.57544e-08 -2.76644e-06 0)
(1.56339e-08 -2.77232e-06 0)
(1.55124e-08 -2.77822e-06 0)
(1.53898e-08 -2.78414e-06 0)
(1.52662e-08 -2.79007e-06 0)
(1.51415e-08 -2.79602e-06 0)
(1.50158e-08 -2.80198e-06 0)
(1.4889e-08 -2.80796e-06 0)
(1.47612e-08 -2.81395e-06 0)
(1.46324e-08 -2.81996e-06 0)
(1.45025e-08 -2.82598e-06 0)
(1.43716e-08 -2.832e-06 0)
(1.42396e-08 -2.83804e-06 0)
(1.41067e-08 -2.84409e-06 0)
(1.39727e-08 -2.85014e-06 0)
(1.38377e-08 -2.8562e-06 0)
(1.37017e-08 -2.86227e-06 0)
(1.35647e-08 -2.86834e-06 0)
(1.34267e-08 -2.87442e-06 0)
(1.32877e-08 -2.8805e-06 0)
(1.31478e-08 -2.88658e-06 0)
(1.30069e-08 -2.89266e-06 0)
(1.2865e-08 -2.89874e-06 0)
(1.27222e-08 -2.90482e-06 0)
(1.25785e-08 -2.9109e-06 0)
(1.24338e-08 -2.91697e-06 0)
(1.22882e-08 -2.92304e-06 0)
(1.21418e-08 -2.9291e-06 0)
(1.19945e-08 -2.93515e-06 0)
(1.18462e-08 -2.9412e-06 0)
(1.16972e-08 -2.94723e-06 0)
(1.15473e-08 -2.95325e-06 0)
(1.13966e-08 -2.95926e-06 0)
(1.12451e-08 -2.96525e-06 0)
(1.10928e-08 -2.97123e-06 0)
(1.09398e-08 -2.97719e-06 0)
(1.0786e-08 -2.98312e-06 0)
(1.06315e-08 -2.98904e-06 0)
(1.04763e-08 -2.99494e-06 0)
(1.03205e-08 -3.00081e-06 0)
(1.01639e-08 -3.00666e-06 0)
(1.00068e-08 -3.01248e-06 0)
(9.84906e-09 -3.01827e-06 0)
(9.69075e-09 -3.02403e-06 0)
(9.53189e-09 -3.02976e-06 0)
(9.37251e-09 -3.03545e-06 0)
(9.21264e-09 -3.04111e-06 0)
(9.05231e-09 -3.04674e-06 0)
(8.89155e-09 -3.05232e-06 0)
(8.7304e-09 -3.05786e-06 0)
(8.56887e-09 -3.06336e-06 0)
(8.40702e-09 -3.06882e-06 0)
(8.24486e-09 -3.07423e-06 0)
(8.08245e-09 -3.07959e-06 0)
(7.9198e-09 -3.0849e-06 0)
(7.75696e-09 -3.09016e-06 0)
(7.59397e-09 -3.09536e-06 0)
(7.43086e-09 -3.10051e-06 0)
(7.26768e-09 -3.10561e-06 0)
(7.10446e-09 -3.11064e-06 0)
(6.94124e-09 -3.11561e-06 0)
(6.77806e-09 -3.12052e-06 0)
(6.61498e-09 -3.12537e-06 0)
(6.45202e-09 -3.13015e-06 0)
(6.28924e-09 -3.13486e-06 0)
(6.12667e-09 -3.13949e-06 0)
(5.96437e-09 -3.14406e-06 0)
(5.80237e-09 -3.14855e-06 0)
(5.64073e-09 -3.15297e-06 0)
(5.47949e-09 -3.1573e-06 0)
(5.31869e-09 -3.16156e-06 0)
(5.1584e-09 -3.16573e-06 0)
(4.99864e-09 -3.16982e-06 0)
(4.83948e-09 -3.17383e-06 0)
(4.68097e-09 -3.17775e-06 0)
(4.52314e-09 -3.18157e-06 0)
(4.36605e-09 -3.18531e-06 0)
(4.20976e-09 -3.18895e-06 0)
(4.05431e-09 -3.1925e-06 0)
(3.89975e-09 -3.19595e-06 0)
(3.74614e-09 -3.19931e-06 0)
(3.59352e-09 -3.20256e-06 0)
(3.44195e-09 -3.20571e-06 0)
(3.29148e-09 -3.20876e-06 0)
(3.14215e-09 -3.21171e-06 0)
(2.99403e-09 -3.21455e-06 0)
(2.84716e-09 -3.21728e-06 0)
(2.70159e-09 -3.2199e-06 0)
(2.55737e-09 -3.22241e-06 0)
(2.41455e-09 -3.22481e-06 0)
(2.27319e-09 -3.22709e-06 0)
(2.13333e-09 -3.22926e-06 0)
(1.99503e-09 -3.23132e-06 0)
(1.85832e-09 -3.23325e-06 0)
(1.72326e-09 -3.23507e-06 0)
(1.5899e-09 -3.23677e-06 0)
(1.45827e-09 -3.23835e-06 0)
(1.32844e-09 -3.23981e-06 0)
(1.20043e-09 -3.24115e-06 0)
(1.0743e-09 -3.24236e-06 0)
(9.50095e-10 -3.24345e-06 0)
(8.27847e-10 -3.24442e-06 0)
(7.07601e-10 -3.24526e-06 0)
(5.89397e-10 -3.24598e-06 0)
(4.73276e-10 -3.24657e-06 0)
(3.59273e-10 -3.24703e-06 0)
(2.47428e-10 -3.24737e-06 0)
(1.37775e-10 -3.24758e-06 0)
(3.03483e-11 -3.24766e-06 0)
(-7.48178e-11 -3.24761e-06 0)
(-1.77692e-10 -3.24744e-06 0)
(-2.78241e-10 -3.24714e-06 0)
(-3.76451e-10 -3.24672e-06 0)
(-4.72226e-10 -3.24617e-06 0)
(-5.6582e-10 -3.24549e-06 0)
(-6.5603e-10 -3.24468e-06 0)
(-7.47806e-10 -3.24375e-06 0)
(-8.44371e-10 -3.24257e-06 0)
(-9.41562e-10 -3.24111e-06 0)
(-1.03663e-09 -3.23949e-06 0)
(-1.12741e-09 -3.23772e-06 0)
(-1.21368e-09 -3.2358e-06 0)
(-1.29548e-09 -3.23375e-06 0)
(-1.37291e-09 -3.23157e-06 0)
(-1.44606e-09 -3.22927e-06 0)
(-1.51507e-09 -3.22686e-06 0)
(-1.58006e-09 -3.22433e-06 0)
(-1.64117e-09 -3.22171e-06 0)
(-1.6985e-09 -3.21899e-06 0)
(-1.75217e-09 -3.21618e-06 0)
(-1.8023e-09 -3.21328e-06 0)
(-1.84899e-09 -3.21031e-06 0)
(-1.89235e-09 -3.20727e-06 0)
(-1.93249e-09 -3.20415e-06 0)
(-1.96951e-09 -3.20098e-06 0)
(-2.0035e-09 -3.19775e-06 0)
(-2.03455e-09 -3.19447e-06 0)
(-2.06277e-09 -3.19113e-06 0)
(-2.08823e-09 -3.18776e-06 0)
(-2.11102e-09 -3.18435e-06 0)
(-2.13123e-09 -3.1809e-06 0)
(-2.14893e-09 -3.17742e-06 0)
(-2.16421e-09 -3.17392e-06 0)
(-2.17713e-09 -3.17039e-06 0)
(-2.18777e-09 -3.16684e-06 0)
(-2.19619e-09 -3.16328e-06 0)
(-2.20247e-09 -3.15971e-06 0)
(-2.20667e-09 -3.15613e-06 0)
(-2.20885e-09 -3.15254e-06 0)
(-2.20907e-09 -3.14895e-06 0)
(-2.20738e-09 -3.14537e-06 0)
(-2.20385e-09 -3.14179e-06 0)
(-2.19853e-09 -3.13821e-06 0)
(-2.19147e-09 -3.13465e-06 0)
(-2.18271e-09 -3.13109e-06 0)
(-2.17231e-09 -3.12756e-06 0)
(-2.16032e-09 -3.12404e-06 0)
(-2.14678e-09 -3.12054e-06 0)
(-2.13172e-09 -3.11707e-06 0)
(-2.11521e-09 -3.11362e-06 0)
(-2.09726e-09 -3.1102e-06 0)
(-2.07793e-09 -3.10681e-06 0)
(-2.05726e-09 -3.10345e-06 0)
(-2.03527e-09 -3.10013e-06 0)
(-2.012e-09 -3.09685e-06 0)
(-1.98749e-09 -3.0936e-06 0)
(-1.96178e-09 -3.09039e-06 0)
(-1.93489e-09 -3.08723e-06 0)
(-1.90685e-09 -3.08411e-06 0)
(-1.8777e-09 -3.08104e-06 0)
(-1.84747e-09 -3.07801e-06 0)
(-1.81618e-09 -3.07504e-06 0)
(-1.78386e-09 -3.07211e-06 0)
(-1.75055e-09 -3.06924e-06 0)
(-1.71627e-09 -3.06643e-06 0)
(-1.68104e-09 -3.06367e-06 0)
(-1.64489e-09 -3.06097e-06 0)
(-1.60786e-09 -3.05833e-06 0)
(-1.56996e-09 -3.05575e-06 0)
(-1.53122e-09 -3.05323e-06 0)
(-1.49166e-09 -3.05077e-06 0)
(-1.45131e-09 -3.04838e-06 0)
(-1.41021e-09 -3.04606e-06 0)
(-1.36835e-09 -3.0438e-06 0)
(-1.32579e-09 -3.04161e-06 0)
(-1.28253e-09 -3.03949e-06 0)
(-1.23861e-09 -3.03744e-06 0)
(-1.19404e-09 -3.03546e-06 0)
(-1.14886e-09 -3.03356e-06 0)
(-1.10308e-09 -3.03172e-06 0)
(-1.05673e-09 -3.02997e-06 0)
(-1.00984e-09 -3.02829e-06 0)
(-9.62425e-10 -3.02668e-06 0)
(-9.1451e-10 -3.02515e-06 0)
(-8.66123e-10 -3.0237e-06 0)
(-8.17283e-10 -3.02233e-06 0)
(-7.68018e-10 -3.02104e-06 0)
(-7.18348e-10 -3.01983e-06 0)
(-6.68301e-10 -3.0187e-06 0)
(-6.17898e-10 -3.01765e-06 0)
(-5.67167e-10 -3.01668e-06 0)
(-5.16133e-10 -3.01579e-06 0)
(-4.64829e-10 -3.01501e-06 0)
(-4.13284e-10 -3.01423e-06 0)
(-3.61548e-10 -3.0138e-06 0)
(-3.09635e-10 -3.01255e-06 0)
(-2.57681e-10 -3.01437e-06 0)
(-2.05448e-10 -3.00615e-06 0)
(-1.53742e-10 -3.03032e-06 0)
(-1.004e-10 -2.93939e-06 0)
(-5.10153e-11 -3.1807e-06 0)
(-1.47741e-11 -2.778e-06 0)
)
;
    }
    bottomWall
    {
        type            calculated;
        value           nonuniform List<vector> 
449
(
(-48.4952 -0.963575 0)
(-19.7405 -0.00515018 0)
(-14.3406 -0.00113251 0)
(-12.0389 -0.000542684 0)
(-10.644 -0.000346954 0)
(-9.66993 -0.000247481 0)
(-8.9502 -0.00018087 0)
(-8.42911 -0.000120707 0)
(-8.12053 -4.48634e-05 0)
(-8.12173 9.40554e-05 0)
(-8.77535 0.000273856 0)
(-10.0216 0.000328807 0)
(-11.0549 0.000240325 0)
(-11.6901 0.000141547 0)
(-12.0406 7.73818e-05 0)
(-12.2305 4.01826e-05 0)
(-12.3219 1.69326e-05 0)
(-12.3492 1.05686e-06 0)
(-12.3292 -9.2646e-06 0)
(-12.2837 -1.54079e-05 0)
(-12.2202 -1.94544e-05 0)
(-12.1458 -2.16927e-05 0)
(-12.066 -2.27032e-05 0)
(-11.9841 -2.29806e-05 0)
(-11.9019 -2.28258e-05 0)
(-11.8207 -2.24344e-05 0)
(-11.7409 -2.18929e-05 0)
(-11.6633 -2.12402e-05 0)
(-11.5878 -2.05404e-05 0)
(-11.5148 -1.98265e-05 0)
(-11.4443 -1.91174e-05 0)
(-11.3761 -1.84247e-05 0)
(-11.3102 -1.77553e-05 0)
(-11.2466 -1.71112e-05 0)
(-11.1851 -1.65044e-05 0)
(-11.1256 -1.59357e-05 0)
(-11.068 -1.53873e-05 0)
(-11.0123 -1.48576e-05 0)
(-10.9584 -1.43538e-05 0)
(-10.9061 -1.38757e-05 0)
(-10.8555 -1.34215e-05 0)
(-10.8064 -1.2991e-05 0)
(-10.7587 -1.25844e-05 0)
(-10.7124 -1.21979e-05 0)
(-10.6674 -1.18299e-05 0)
(-10.6237 -1.14797e-05 0)
(-10.5811 -1.11485e-05 0)
(-10.5396 -1.08311e-05 0)
(-10.4992 -1.0538e-05 0)
(-10.4598 -1.02805e-05 0)
(-10.4212 -1.00478e-05 0)
(-10.3833 -9.82914e-06 0)
(-10.3462 -9.61696e-06 0)
(-10.3098 -9.40815e-06 0)
(-10.2741 -9.20326e-06 0)
(-10.2391 -9.00055e-06 0)
(-10.2048 -8.80245e-06 0)
(-10.1712 -8.61067e-06 0)
(-10.1382 -8.42327e-06 0)
(-10.1058 -8.24154e-06 0)
(-10.0741 -8.0663e-06 0)
(-10.043 -7.89784e-06 0)
(-10.0124 -7.73396e-06 0)
(-9.98243 -7.57412e-06 0)
(-9.95299 -7.41915e-06 0)
(-9.92408 -7.27059e-06 0)
(-9.89567 -7.12705e-06 0)
(-9.86775 -6.98796e-06 0)
(-9.84032 -6.85206e-06 0)
(-9.81335 -6.7245e-06 0)
(-9.7868 -6.60259e-06 0)
(-9.76068 -6.48031e-06 0)
(-9.73498 -6.36046e-06 0)
(-9.7097 -6.24502e-06 0)
(-9.68481 -6.13347e-06 0)
(-9.6603 -6.02355e-06 0)
(-9.63618 -5.91683e-06 0)
(-9.61243 -5.81255e-06 0)
(-9.58904 -5.71125e-06 0)
(-9.566 -5.61296e-06 0)
(-9.5433 -5.51726e-06 0)
(-9.52093 -5.42425e-06 0)
(-9.49889 -5.33395e-06 0)
(-9.47716 -5.24563e-06 0)
(-9.45574 -5.15968e-06 0)
(-9.43462 -5.07649e-06 0)
(-9.41379 -4.99519e-06 0)
(-9.39324 -4.9173e-06 0)
(-9.37296 -4.84093e-06 0)
(-9.35294 -4.76596e-06 0)
(-9.33319 -4.69317e-06 0)
(-9.3137 -4.62139e-06 0)
(-9.29446 -4.5519e-06 0)
(-9.27545 -4.48388e-06 0)
(-9.25669 -4.4167e-06 0)
(-9.23817 -4.35243e-06 0)
(-9.21986 -4.28901e-06 0)
(-9.20179 -4.2269e-06 0)
(-9.18393 -4.16706e-06 0)
(-9.16628 -4.10757e-06 0)
(-9.14884 -4.05257e-06 0)
(-9.13158 -4e-06 0)
(-9.11451 -3.94561e-06 0)
(-9.09764 -3.89247e-06 0)
(-9.08095 -3.83971e-06 0)
(-9.06445 -3.78758e-06 0)
(-9.04813 -3.73786e-06 0)
(-9.03199 -3.68851e-06 0)
(-9.01602 -3.63957e-06 0)
(-9.00023 -3.59296e-06 0)
(-8.9846 -3.54661e-06 0)
(-8.96914 -3.50055e-06 0)
(-8.95384 -3.4568e-06 0)
(-8.93869 -3.41342e-06 0)
(-8.92371 -3.37008e-06 0)
(-8.90887 -3.32882e-06 0)
(-8.89418 -3.28816e-06 0)
(-8.87963 -3.24736e-06 0)
(-8.86524 -3.20819e-06 0)
(-8.85098 -3.17008e-06 0)
(-8.83685 -3.13182e-06 0)
(-8.82287 -3.09456e-06 0)
(-8.80901 -3.05889e-06 0)
(-8.79528 -3.02299e-06 0)
(-8.78168 -2.9874e-06 0)
(-8.76821 -2.9535e-06 0)
(-8.75486 -2.91997e-06 0)
(-8.74163 -2.8864e-06 0)
(-8.72852 -2.8539e-06 0)
(-8.71553 -2.82251e-06 0)
(-8.70265 -2.79097e-06 0)
(-8.68988 -2.7597e-06 0)
(-8.67722 -2.72984e-06 0)
(-8.66467 -2.70042e-06 0)
(-8.65223 -2.67078e-06 0)
(-8.6399 -2.64196e-06 0)
(-8.62767 -2.6144e-06 0)
(-8.61553 -2.58662e-06 0)
(-8.6035 -2.55874e-06 0)
(-8.59157 -2.53219e-06 0)
(-8.57973 -2.50639e-06 0)
(-8.56799 -2.48019e-06 0)
(-8.55634 -2.4543e-06 0)
(-8.54478 -2.42961e-06 0)
(-8.53332 -2.40536e-06 0)
(-8.52194 -2.38067e-06 0)
(-8.51065 -2.35742e-06 0)
(-8.49944 -2.33622e-06 0)
(-8.4883 -2.31441e-06 0)
(-8.47725 -2.29151e-06 0)
(-8.46628 -2.2689e-06 0)
(-8.45539 -2.24716e-06 0)
(-8.44458 -2.22564e-06 0)
(-8.43385 -2.20398e-06 0)
(-8.4232 -2.18269e-06 0)
(-8.41262 -2.16219e-06 0)
(-8.40212 -2.14202e-06 0)
(-8.39169 -2.12166e-06 0)
(-8.38134 -2.10153e-06 0)
(-8.37106 -2.08215e-06 0)
(-8.36085 -2.06328e-06 0)
(-8.35071 -2.04415e-06 0)
(-8.34064 -2.02504e-06 0)
(-8.33064 -2.00669e-06 0)
(-8.32071 -1.98898e-06 0)
(-8.31084 -1.97104e-06 0)
(-8.30104 -1.95297e-06 0)
(-8.2913 -1.9355e-06 0)
(-8.28163 -1.91882e-06 0)
(-8.27201 -1.90195e-06 0)
(-8.26247 -1.88524e-06 0)
(-8.25298 -1.86841e-06 0)
(-8.24355 -1.85011e-06 0)
(-8.23472 -1.83684e-06 0)
(-8.2264 -1.82532e-06 0)
(-8.21805 -1.80932e-06 0)
(-8.20969 -1.79449e-06 0)
(-8.2013 -1.78089e-06 0)
(-8.19289 -1.76718e-06 0)
(-8.18445 -1.75326e-06 0)
(-8.17599 -1.73902e-06 0)
(-8.1675 -1.72529e-06 0)
(-8.15899 -1.71185e-06 0)
(-8.15045 -1.69849e-06 0)
(-8.14189 -1.68472e-06 0)
(-8.1333 -1.67081e-06 0)
(-8.1247 -1.6574e-06 0)
(-8.11607 -1.64423e-06 0)
(-8.10741 -1.63101e-06 0)
(-8.09874 -1.61749e-06 0)
(-8.09004 -1.604e-06 0)
(-8.08132 -1.59094e-06 0)
(-8.07257 -1.57805e-06 0)
(-8.06381 -1.56496e-06 0)
(-8.05502 -1.55172e-06 0)
(-8.04621 -1.53868e-06 0)
(-8.03738 -1.52594e-06 0)
(-8.02853 -1.51333e-06 0)
(-8.01966 -1.50045e-06 0)
(-8.01077 -1.48745e-06 0)
(-8.00185 -1.47486e-06 0)
(-7.99292 -1.46248e-06 0)
(-7.98397 -1.45001e-06 0)
(-7.97499 -1.4374e-06 0)
(-7.966 -1.42487e-06 0)
(-7.95699 -1.41267e-06 0)
(-7.94796 -1.40062e-06 0)
(-7.93891 -1.38833e-06 0)
(-7.92984 -1.37594e-06 0)
(-7.92076 -1.36394e-06 0)
(-7.91165 -1.35216e-06 0)
(-7.90253 -1.34078e-06 0)
(-7.89338 -1.32978e-06 0)
(-7.88421 -1.31847e-06 0)
(-7.87502 -1.30691e-06 0)
(-7.86582 -1.29531e-06 0)
(-7.85659 -1.28354e-06 0)
(-7.84735 -1.27183e-06 0)
(-7.8381 -1.26046e-06 0)
(-7.82883 -1.24921e-06 0)
(-7.81954 -1.23775e-06 0)
(-7.81024 -1.22625e-06 0)
(-7.80092 -1.21511e-06 0)
(-7.79159 -1.2042e-06 0)
(-7.78224 -1.19305e-06 0)
(-7.77288 -1.18178e-06 0)
(-7.7635 -1.17089e-06 0)
(-7.75411 -1.16025e-06 0)
(-7.7447 -1.1494e-06 0)
(-7.73529 -1.13843e-06 0)
(-7.72586 -1.12778e-06 0)
(-7.71641 -1.1174e-06 0)
(-7.70696 -1.10685e-06 0)
(-7.69749 -1.09616e-06 0)
(-7.68801 -1.08578e-06 0)
(-7.67851 -1.07566e-06 0)
(-7.66901 -1.06538e-06 0)
(-7.65949 -1.05498e-06 0)
(-7.64996 -1.04488e-06 0)
(-7.64043 -1.03502e-06 0)
(-7.63087 -1.025e-06 0)
(-7.62131 -1.01488e-06 0)
(-7.61175 -1.00506e-06 0)
(-7.60217 -9.95459e-07 0)
(-7.59257 -9.85687e-07 0)
(-7.58298 -9.75847e-07 0)
(-7.57337 -9.66318e-07 0)
(-7.56375 -9.56966e-07 0)
(-7.55412 -9.47434e-07 0)
(-7.54449 -9.37892e-07 0)
(-7.53485 -9.28654e-07 0)
(-7.5252 -9.19526e-07 0)
(-7.51554 -9.10246e-07 0)
(-7.50588 -9.01022e-07 0)
(-7.49621 -8.92061e-07 0)
(-7.48653 -8.8314e-07 0)
(-7.47684 -8.74106e-07 0)
(-7.46715 -8.65196e-07 0)
(-7.45745 -8.56505e-07 0)
(-7.44775 -8.47787e-07 0)
(-7.43804 -8.39005e-07 0)
(-7.42833 -8.30407e-07 0)
(-7.41861 -8.21989e-07 0)
(-7.40889 -8.13481e-07 0)
(-7.39917 -8.04952e-07 0)
(-7.38944 -7.96652e-07 0)
(-7.3797 -7.88447e-07 0)
(-7.36997 -7.8016e-07 0)
(-7.36023 -7.71934e-07 0)
(-7.35049 -7.63912e-07 0)
(-7.34074 -7.55898e-07 0)
(-7.33099 -7.47928e-07 0)
(-7.32124 -7.40539e-07 0)
(-7.31148 -7.33262e-07 0)
(-7.30171 -7.25477e-07 0)
(-7.29195 -7.17626e-07 0)
(-7.28218 -7.09977e-07 0)
(-7.27241 -7.02416e-07 0)
(-7.26264 -6.94886e-07 0)
(-7.25287 -6.87442e-07 0)
(-7.2431 -6.80084e-07 0)
(-7.23333 -6.72698e-07 0)
(-7.22357 -6.65284e-07 0)
(-7.2138 -6.58012e-07 0)
(-7.20404 -6.50868e-07 0)
(-7.19428 -6.43675e-07 0)
(-7.18452 -6.36518e-07 0)
(-7.17476 -6.29536e-07 0)
(-7.16501 -6.2259e-07 0)
(-7.15526 -6.156e-07 0)
(-7.14552 -6.08736e-07 0)
(-7.13578 -6.02003e-07 0)
(-7.12604 -5.9523e-07 0)
(-7.11631 -5.88473e-07 0)
(-7.10658 -5.81901e-07 0)
(-7.09686 -5.75349e-07 0)
(-7.08714 -5.68766e-07 0)
(-7.07743 -5.62305e-07 0)
(-7.06773 -5.5597e-07 0)
(-7.05803 -5.49584e-07 0)
(-7.04834 -5.43241e-07 0)
(-7.03866 -5.37066e-07 0)
(-7.02898 -5.30898e-07 0)
(-7.01931 -5.24703e-07 0)
(-7.00965 -5.18654e-07 0)
(-6.99999 -5.12684e-07 0)
(-6.99035 -5.0668e-07 0)
(-6.98072 -5.00742e-07 0)
(-6.97109 -4.94962e-07 0)
(-6.96147 -4.89148e-07 0)
(-6.95186 -4.83338e-07 0)
(-6.94227 -4.77687e-07 0)
(-6.93268 -4.72076e-07 0)
(-6.9231 -4.66436e-07 0)
(-6.91353 -4.60906e-07 0)
(-6.90398 -4.55472e-07 0)
(-6.89443 -4.50017e-07 0)
(-6.8849 -4.44605e-07 0)
(-6.87538 -4.3934e-07 0)
(-6.86587 -4.34065e-07 0)
(-6.85637 -4.28797e-07 0)
(-6.84689 -4.23662e-07 0)
(-6.83741 -4.1857e-07 0)
(-6.82795 -4.13464e-07 0)
(-6.81851 -4.08456e-07 0)
(-6.80907 -4.03532e-07 0)
(-6.79965 -3.98597e-07 0)
(-6.79025 -3.93712e-07 0)
(-6.78086 -3.8895e-07 0)
(-6.77148 -3.84405e-07 0)
(-6.7621 -3.79915e-07 0)
(-6.75274 -3.75333e-07 0)
(-6.74339 -3.70761e-07 0)
(-6.73405 -3.66175e-07 0)
(-6.72474 -3.61663e-07 0)
(-6.71543 -3.57198e-07 0)
(-6.70614 -3.52734e-07 0)
(-6.69687 -3.48333e-07 0)
(-6.68761 -3.44022e-07 0)
(-6.67837 -3.39705e-07 0)
(-6.66915 -3.35428e-07 0)
(-6.65994 -3.31251e-07 0)
(-6.65075 -3.27088e-07 0)
(-6.64158 -3.22938e-07 0)
(-6.63242 -3.18886e-07 0)
(-6.62328 -3.14862e-07 0)
(-6.61416 -3.10854e-07 0)
(-6.60506 -3.06914e-07 0)
(-6.59597 -3.03034e-07 0)
(-6.5869 -2.99139e-07 0)
(-6.57786 -2.9534e-07 0)
(-6.56882 -2.91498e-07 0)
(-6.55982 -2.87825e-07 0)
(-6.55082 -2.84275e-07 0)
(-6.54084 -2.79991e-07 0)
(-6.52998 -2.75426e-07 0)
(-6.5193 -2.71302e-07 0)
(-6.50876 -2.67268e-07 0)
(-6.49839 -2.63243e-07 0)
(-6.48817 -2.59358e-07 0)
(-6.47811 -2.55547e-07 0)
(-6.46818 -2.5182e-07 0)
(-6.45841 -2.48205e-07 0)
(-6.44877 -2.44658e-07 0)
(-6.43928 -2.41185e-07 0)
(-6.42991 -2.37821e-07 0)
(-6.42068 -2.34518e-07 0)
(-6.41157 -2.31279e-07 0)
(-6.40259 -2.2815e-07 0)
(-6.39372 -2.25077e-07 0)
(-6.38499 -2.22061e-07 0)
(-6.37636 -2.19145e-07 0)
(-6.36785 -2.16284e-07 0)
(-6.35944 -2.13472e-07 0)
(-6.35116 -2.10747e-07 0)
(-6.34296 -2.08084e-07 0)
(-6.33488 -2.05467e-07 0)
(-6.32689 -2.02911e-07 0)
(-6.31901 -2.00414e-07 0)
(-6.31122 -1.97948e-07 0)
(-6.30353 -1.95531e-07 0)
(-6.29593 -1.93188e-07 0)
(-6.28843 -1.90886e-07 0)
(-6.281 -1.88612e-07 0)
(-6.27368 -1.86403e-07 0)
(-6.26642 -1.84247e-07 0)
(-6.25927 -1.82152e-07 0)
(-6.25218 -1.80134e-07 0)
(-6.24518 -1.78165e-07 0)
(-6.23825 -1.76195e-07 0)
(-6.2314 -1.74243e-07 0)
(-6.22462 -1.7232e-07 0)
(-6.21793 -1.70453e-07 0)
(-6.21129 -1.68605e-07 0)
(-6.20474 -1.66786e-07 0)
(-6.19825 -1.65002e-07 0)
(-6.19184 -1.63275e-07 0)
(-6.18548 -1.61557e-07 0)
(-6.1792 -1.59872e-07 0)
(-6.17298 -1.58216e-07 0)
(-6.16683 -1.56617e-07 0)
(-6.16073 -1.5502e-07 0)
(-6.15471 -1.5346e-07 0)
(-6.14873 -1.51916e-07 0)
(-6.14283 -1.50431e-07 0)
(-6.13697 -1.48941e-07 0)
(-6.13118 -1.47494e-07 0)
(-6.12543 -1.46043e-07 0)
(-6.11976 -1.44663e-07 0)
(-6.11412 -1.43272e-07 0)
(-6.10856 -1.41934e-07 0)
(-6.10302 -1.40567e-07 0)
(-6.09757 -1.39286e-07 0)
(-6.09213 -1.37985e-07 0)
(-6.08678 -1.36753e-07 0)
(-6.08144 -1.35466e-07 0)
(-6.07618 -1.34284e-07 0)
(-6.07094 -1.33055e-07 0)
(-6.06578 -1.31932e-07 0)
(-6.06062 -1.30726e-07 0)
(-6.05556 -1.29631e-07 0)
(-6.05048 -1.28461e-07 0)
(-6.04551 -1.27432e-07 0)
(-6.04052 -1.26295e-07 0)
(-6.03564 -1.25299e-07 0)
(-6.03072 -1.2418e-07 0)
(-6.02593 -1.2324e-07 0)
(-6.02108 -1.22165e-07 0)
(-6.01637 -1.21274e-07 0)
(-6.0116 -1.20213e-07 0)
(-6.00697 -1.19358e-07 0)
(-6.00227 -1.18334e-07 0)
(-5.99772 -1.17545e-07 0)
(-5.99307 -1.16556e-07 0)
(-5.98861 -1.1581e-07 0)
(-5.98402 -1.14864e-07 0)
(-5.97962 -1.14165e-07 0)
(-5.97509 -1.13347e-07 0)
(-5.97076 -1.12595e-07 0)
(-5.96629 -1.12169e-07 0)
(-5.96199 -1.108e-07 0)
(-5.95763 -1.12027e-07 0)
(-5.95322 -1.07696e-07 0)
(-5.94922 -1.15478e-07 0)
(-5.94417 -9.88274e-08 0)
(-5.94153 -1.28345e-07 0)
(-5.93405 -7.77472e-08 0)
(-5.9356 -1.06973e-07 0)
(-5.92542 -1.35132e-07 0)
)
;
    }
    symmetry
    {
        type            symmetryPlane;
    }
    frontAndBack
    {
        type            empty;
    }
}


// ************************************************************************* //
