/*--------------------------------*- C++ -*----------------------------------*\
| =========                 |                                                 |
| \\      /  F ield         | OpenFOAM: The Open Source CFD Toolbox           |
|  \\    /   O peration     | Version:  v2012                                 |
|   \\  /    A nd           | Website:  www.openfoam.com                      |
|    \\/     M anipulation  |                                                 |
\*---------------------------------------------------------------------------*/
FoamFile
{
    version     2.0;
    format      ascii;
    class       volScalarField;
    location    "22.5";
    object      k;
}
// * * * * * * * * * * * * * * * * * * * * * * * * * * * * * * * * * * * * * //

dimensions      [0 2 -2 0 0 0 0];


internalField   nonuniform List<scalar> 
209825
(
0.00102059
0.00093266
0.000874744
0.000836782
0.000810892
0.00079241
0.000778673
0.000768144
0.000759866
0.000753232
0.000747826
0.000743361
0.000739628
0.000736479
0.000733794
0.000731493
0.000729501
0.00072777
0.00072625
0.000724924
0.000723745
0.000722706
0.000721769
0.00072095
0.000720202
0.000719537
0.000718923
0.000718391
0.000717892
0.000717458
0.000717038
0.000716694
0.000716353
0.000716049
0.000715757
0.000715524
0.000715293
0.000715096
0.000714895
0.00071475
0.000714587
0.000714447
0.000714307
0.000714224
0.00071408
0.000713976
0.000713901
0.000713852
0.000713809
0.000713769
0.000713684
0.000713643
0.000713622
0.000713592
0.000713504
0.000713529
0.000713529
0.000713515
0.000713616
0.000713616
0.000713616
0.000713705
0.000713777
0.000713913
0.000714029
0.000714193
0.000714294
0.000714453
0.000714535
0.000714678
0.000714786
0.000714982
0.000715102
0.0007153
0.000715425
0.00071565
0.000715775
0.000716023
0.000716165
0.000716457
0.000716608
0.000716921
0.000717091
0.000717445
0.000717643
0.000718059
0.000718294
0.000718791
0.000719062
0.000719679
0.000719965
0.000720958
0.000721234
0.000732216
0.000777822
0.00199745
0.00102059
0.000932659
0.00087474
0.000836775
0.000810882
0.000792397
0.000778658
0.000768127
0.000759849
0.000753213
0.000747806
0.00074334
0.000739607
0.000736457
0.000733772
0.00073147
0.000729478
0.000727746
0.000726226
0.0007249
0.000723721
0.000722682
0.000721745
0.000720925
0.000720177
0.000719512
0.000718898
0.000718366
0.000717867
0.000717433
0.000717012
0.000716669
0.000716327
0.000716023
0.000715731
0.000715499
0.000715267
0.000715071
0.000714869
0.000714724
0.000714561
0.000714421
0.000714281
0.000714198
0.000714054
0.00071395
0.000713875
0.000713826
0.000713782
0.000713743
0.000713658
0.000713616
0.000713596
0.000713565
0.000713477
0.000713503
0.000713503
0.000713489
0.000713589
0.00071359
0.00071359
0.000713678
0.00071375
0.000713886
0.000714003
0.000714167
0.000714267
0.000714426
0.000714509
0.000714651
0.00071476
0.000714955
0.000715075
0.000715273
0.000715399
0.000715624
0.000715748
0.000715997
0.000716139
0.00071643
0.000716582
0.000716894
0.000717064
0.000717419
0.000717616
0.000718032
0.000718267
0.000718764
0.000719035
0.000719652
0.000719938
0.000720931
0.000721207
0.00073221
0.000777815
0.00199866
0.0010206
0.000932654
0.00087472
0.00083674
0.000810835
0.000792342
0.000778595
0.000768058
0.000759775
0.000753136
0.000747726
0.000743257
0.000739522
0.000736369
0.000733682
0.000731379
0.000729386
0.000727653
0.000726131
0.000724804
0.000723624
0.000722585
0.000721647
0.000720827
0.000720078
0.000719413
0.000718799
0.000718266
0.000717766
0.000717332
0.000716911
0.000716567
0.000716225
0.000715921
0.000715629
0.000715396
0.000715165
0.000714968
0.000714766
0.000714621
0.000714457
0.000714317
0.000714178
0.000714094
0.00071395
0.000713846
0.000713771
0.000713722
0.000713678
0.000713638
0.000713554
0.000713512
0.000713491
0.000713461
0.000713373
0.000713398
0.000713398
0.000713384
0.000713484
0.000713484
0.000713484
0.000713573
0.000713645
0.000713781
0.000713897
0.000714061
0.000714161
0.000714321
0.000714403
0.000714545
0.000714654
0.000714849
0.000714969
0.000715167
0.000715293
0.000715517
0.000715642
0.00071589
0.000716032
0.000716324
0.000716475
0.000716788
0.000716957
0.000717312
0.000717509
0.000717925
0.00071816
0.000718657
0.000718927
0.000719544
0.000719831
0.000720823
0.000721099
0.000732144
0.000777741
0.00200103
0.0010206
0.000932644
0.000874685
0.000836682
0.000810757
0.000792248
0.00077849
0.000767943
0.000759652
0.000753006
0.00074759
0.000743117
0.000739378
0.000736222
0.000733532
0.000731227
0.000729231
0.000727496
0.000725973
0.000724644
0.000723463
0.000722422
0.000721483
0.000720662
0.000719912
0.000719246
0.000718631
0.000718098
0.000717598
0.000717163
0.000716741
0.000716397
0.000716055
0.00071575
0.000715457
0.000715224
0.000714992
0.000714795
0.000714593
0.000714448
0.000714284
0.000714143
0.000714004
0.00071392
0.000713776
0.000713671
0.000713596
0.000713547
0.000713503
0.000713463
0.000713378
0.000713337
0.000713316
0.000713285
0.000713197
0.000713222
0.000713222
0.000713208
0.000713308
0.000713308
0.000713308
0.000713397
0.000713468
0.000713604
0.00071372
0.000713884
0.000713984
0.000714143
0.000714225
0.000714368
0.000714476
0.000714671
0.000714792
0.000714989
0.000715115
0.000715339
0.000715464
0.000715712
0.000715854
0.000716145
0.000716297
0.000716609
0.000716779
0.000717133
0.00071733
0.000717746
0.00071798
0.000718477
0.000718747
0.000719364
0.00071965
0.000720643
0.000720917
0.000732029
0.000777602
0.0020038
0.00102061
0.000932631
0.000874636
0.000836599
0.000810647
0.000792116
0.00077834
0.000767779
0.000759477
0.000752822
0.000747399
0.000742919
0.000739174
0.000736014
0.00073332
0.000731011
0.000729012
0.000727274
0.000725749
0.000724418
0.000723235
0.000722193
0.000721252
0.000720429
0.000719678
0.000719011
0.000718395
0.000717861
0.00071736
0.000716924
0.000716502
0.000716156
0.000715814
0.000715508
0.000715215
0.000714981
0.000714749
0.000714551
0.000714349
0.000714203
0.000714039
0.000713898
0.000713758
0.000713674
0.00071353
0.000713425
0.00071335
0.0007133
0.000713256
0.000713216
0.000713131
0.000713089
0.000713068
0.000713038
0.00071295
0.000712974
0.000712974
0.000712959
0.000713059
0.000713059
0.000713059
0.000713148
0.000713219
0.000713354
0.00071347
0.000713634
0.000713734
0.000713893
0.000713975
0.000714118
0.000714226
0.000714421
0.000714541
0.000714738
0.000714864
0.000715088
0.000715213
0.000715461
0.000715603
0.000715894
0.000716045
0.000716357
0.000716526
0.000716881
0.000717077
0.000717493
0.000717727
0.000718223
0.000718493
0.000719109
0.000719395
0.000720387
0.00072066
0.000731865
0.0007774
0.00200695
0.00102062
0.000932613
0.000874573
0.000836493
0.000810504
0.000791945
0.000778146
0.000767568
0.000759251
0.000752584
0.000747151
0.000742663
0.000738911
0.000735745
0.000733045
0.000730731
0.000728728
0.000726987
0.000725459
0.000724125
0.000722939
0.000721895
0.000720952
0.000720127
0.000719375
0.000718706
0.000718089
0.000717553
0.000717051
0.000716614
0.000716191
0.000715845
0.000715501
0.000715195
0.000714901
0.000714667
0.000714434
0.000714236
0.000714033
0.000713887
0.000713722
0.000713581
0.00071344
0.000713356
0.000713212
0.000713106
0.00071303
0.000712981
0.000712936
0.000712896
0.000712811
0.000712769
0.000712747
0.000712717
0.000712628
0.000712652
0.000712652
0.000712637
0.000712736
0.000712736
0.000712736
0.000712825
0.000712895
0.000713031
0.000713146
0.00071331
0.00071341
0.000713569
0.000713651
0.000713794
0.000713901
0.000714096
0.000714216
0.000714413
0.000714538
0.000714763
0.000714887
0.000715135
0.000715277
0.000715567
0.000715718
0.00071603
0.0007162
0.000716553
0.00071675
0.000717165
0.000717399
0.000717894
0.000718164
0.000718779
0.000719064
0.000720057
0.000720327
0.000731652
0.000777133
0.00201038
0.00102063
0.000932592
0.000874496
0.000836361
0.000810328
0.000791734
0.000777908
0.000767307
0.000758973
0.000752291
0.000746845
0.000742347
0.000738586
0.000735412
0.000732706
0.000730387
0.000728379
0.000726634
0.000725101
0.000723764
0.000722575
0.000721528
0.000720583
0.000719756
0.000719001
0.00071833
0.000717711
0.000717174
0.000716671
0.000716233
0.000715808
0.000715461
0.000715116
0.00071481
0.000714515
0.000714279
0.000714045
0.000713847
0.000713643
0.000713496
0.000713331
0.000713189
0.000713048
0.000712963
0.000712819
0.000712713
0.000712637
0.000712587
0.000712541
0.000712501
0.000712416
0.000712374
0.000712352
0.000712321
0.000712233
0.000712256
0.000712256
0.00071224
0.000712339
0.000712339
0.000712338
0.000712427
0.000712497
0.000712632
0.000712747
0.00071291
0.000713011
0.00071317
0.000713251
0.000713394
0.000713501
0.000713695
0.000713815
0.000714012
0.000714137
0.000714362
0.000714486
0.000714733
0.000714875
0.000715165
0.000715316
0.000715627
0.000715797
0.00071615
0.000716346
0.00071676
0.000716994
0.000717489
0.000717758
0.000718373
0.000718656
0.000719649
0.000719917
0.000731391
0.000776801
0.00201398
0.00102064
0.000932567
0.000874404
0.000836205
0.000810119
0.000791483
0.000777624
0.000766997
0.000758641
0.000751942
0.000746481
0.000741971
0.000738199
0.000735017
0.000732303
0.000729977
0.000727963
0.000726212
0.000724675
0.000723334
0.000722141
0.00072109
0.000720142
0.000719312
0.000718556
0.000717883
0.000717261
0.000716722
0.000716217
0.000715777
0.000715351
0.000715003
0.000714657
0.000714349
0.000714053
0.000713817
0.000713582
0.000713383
0.000713178
0.00071303
0.000712865
0.000712722
0.000712581
0.000712495
0.00071235
0.000712244
0.000712167
0.000712117
0.000712071
0.000712031
0.000711946
0.000711902
0.00071188
0.000711849
0.000711761
0.000711783
0.000711783
0.000711767
0.000711864
0.000711864
0.000711864
0.000711952
0.000712022
0.000712156
0.000712271
0.000712434
0.000712534
0.000712693
0.000712775
0.000712917
0.000713023
0.000713217
0.000713337
0.000713534
0.000713659
0.000713883
0.000714007
0.000714254
0.000714395
0.000714685
0.000714836
0.000715147
0.000715316
0.000715668
0.000715864
0.000716278
0.000716511
0.000717005
0.000717274
0.000717887
0.00071817
0.000719162
0.000719427
0.000731081
0.000776405
0.00201748
0.00102065
0.000932537
0.000874298
0.000836024
0.000809877
0.000791191
0.000777294
0.000766636
0.000758255
0.000751535
0.000746058
0.000741533
0.000737749
0.000734556
0.000731833
0.000729499
0.000727478
0.000725721
0.000724178
0.000722832
0.000721635
0.000720581
0.000719629
0.000718796
0.000718037
0.000717361
0.000716738
0.000716196
0.000715689
0.000715248
0.00071482
0.00071447
0.000714122
0.000713813
0.000713516
0.000713278
0.000713043
0.000712842
0.000712637
0.000712488
0.000712322
0.000712179
0.000712036
0.00071195
0.000711805
0.000711698
0.00071162
0.000711569
0.000711523
0.000711482
0.000711397
0.000711354
0.000711331
0.0007113
0.000711211
0.000711232
0.000711232
0.000711215
0.000711312
0.000711312
0.000711311
0.000711399
0.000711468
0.000711602
0.000711716
0.000711879
0.000711979
0.000712138
0.000712219
0.000712361
0.000712467
0.000712661
0.000712781
0.000712977
0.000713102
0.000713326
0.000713449
0.000713696
0.000713837
0.000714126
0.000714277
0.000714587
0.000714756
0.000715108
0.000715303
0.000715716
0.000715949
0.000716441
0.00071671
0.000717322
0.000717604
0.000718596
0.000718858
0.000730722
0.000775943
0.00202053
0.00102067
0.000932505
0.000874178
0.000835818
0.0008096
0.000790859
0.000776918
0.000766224
0.000757815
0.000751071
0.000745574
0.000741032
0.000737235
0.000734029
0.000731296
0.000728953
0.000726924
0.00072516
0.000723611
0.000722259
0.000721057
0.000719998
0.000719042
0.000718206
0.000717443
0.000716764
0.000716138
0.000715594
0.000715085
0.000714641
0.000714212
0.00071386
0.000713511
0.0007132
0.000712902
0.000712663
0.000712425
0.000712224
0.000712017
0.000711868
0.0007117
0.000711557
0.000711413
0.000711326
0.000711181
0.000711073
0.000710995
0.000710943
0.000710896
0.000710855
0.00071077
0.000710726
0.000710702
0.000710671
0.000710582
0.000710602
0.000710602
0.000710585
0.00071068
0.00071068
0.000710679
0.000710767
0.000710835
0.000710968
0.000711082
0.000711244
0.000711344
0.000711503
0.000711584
0.000711725
0.000711831
0.000712024
0.000712144
0.00071234
0.000712464
0.000712688
0.000712811
0.000713058
0.000713198
0.000713486
0.000713637
0.000713947
0.000714115
0.000714466
0.000714662
0.000715073
0.000715305
0.000715797
0.000716065
0.000716675
0.000716956
0.000717948
0.000718206
0.000730316
0.000775414
0.00202263
0.00102069
0.000932468
0.000874043
0.000835586
0.000809289
0.000790485
0.000776494
0.000765761
0.000757319
0.000750548
0.000745029
0.000740468
0.000736655
0.000733436
0.00073069
0.000728337
0.000726299
0.000724527
0.000722971
0.000721613
0.000720405
0.000719341
0.000718381
0.00071754
0.000716774
0.000716092
0.000715462
0.000714916
0.000714403
0.000713958
0.000713526
0.000713171
0.000712821
0.000712509
0.000712208
0.000711968
0.000711729
0.000711526
0.000711319
0.000711168
0.000710999
0.000710855
0.00071071
0.000710623
0.000710477
0.000710369
0.000710289
0.000710236
0.000710189
0.000710148
0.000710062
0.000710017
0.000709993
0.000709962
0.000709873
0.000709891
0.000709891
0.000709873
0.000709967
0.000709967
0.000709966
0.000710054
0.00071012
0.000710253
0.000710366
0.000710528
0.000710628
0.000710787
0.000710867
0.000711008
0.000711113
0.000711306
0.000711425
0.000711621
0.000711745
0.000711968
0.000712091
0.000712337
0.000712477
0.000712765
0.000712915
0.000713224
0.000713392
0.000713743
0.000713937
0.000714348
0.000714579
0.00071507
0.000715336
0.000715946
0.000716225
0.000717216
0.000717471
0.000729861
0.000774819
0.00202305
0.00102071
0.000932428
0.000873893
0.000835329
0.000808943
0.000790069
0.000776022
0.000765244
0.000756766
0.000749966
0.000744422
0.00073984
0.000736009
0.000732774
0.000730015
0.00072765
0.000725602
0.000723821
0.000722257
0.000720892
0.000719678
0.000718609
0.000717643
0.000716798
0.000716027
0.000715341
0.000714708
0.000714159
0.000713643
0.000713195
0.00071276
0.000712404
0.000712051
0.000711737
0.000711435
0.000711193
0.000710953
0.000710748
0.000710539
0.000710387
0.000710218
0.000710072
0.000709926
0.000709838
0.000709691
0.000709582
0.000709502
0.000709448
0.000709399
0.000709358
0.000709272
0.000709227
0.000709202
0.000709171
0.000709081
0.000709098
0.000709098
0.000709079
0.000709171
0.000709171
0.00070917
0.000709257
0.000709323
0.000709455
0.000709567
0.000709729
0.000709828
0.000709987
0.000710068
0.000710208
0.000710312
0.000710505
0.000710623
0.000710819
0.000710942
0.000711165
0.000711288
0.000711533
0.000711672
0.00071196
0.000712109
0.000712418
0.000712586
0.000712935
0.000713129
0.000713538
0.000713769
0.000714258
0.000714524
0.000715132
0.000715409
0.0007164
0.000716651
0.000729358
0.000774156
0.00202103
0.00102073
0.000932385
0.000873729
0.000835047
0.000808563
0.000789611
0.000775502
0.000764675
0.000756156
0.000749323
0.000743751
0.000739146
0.000735295
0.000732043
0.00072927
0.000726892
0.000724832
0.000723042
0.000721469
0.000720096
0.000718875
0.000717799
0.000716828
0.000715977
0.000715202
0.000714512
0.000713875
0.000713322
0.000712803
0.000712352
0.000711915
0.000711555
0.000711201
0.000710885
0.00071058
0.000710336
0.000710094
0.000709888
0.000709678
0.000709524
0.000709353
0.000709207
0.00070906
0.00070897
0.000708823
0.000708713
0.000708631
0.000708577
0.000708527
0.000708485
0.000708399
0.000708353
0.000708328
0.000708296
0.000708206
0.000708222
0.000708221
0.000708201
0.000708291
0.000708291
0.00070829
0.000708377
0.000708441
0.000708572
0.000708684
0.000708845
0.000708944
0.000709104
0.000709183
0.000709323
0.000709427
0.000709618
0.000709737
0.000709932
0.000710055
0.000710277
0.000710399
0.000710644
0.000710783
0.000711069
0.000711219
0.000711527
0.000711694
0.000712042
0.000712236
0.000712644
0.000712874
0.000713361
0.000713626
0.000714231
0.000714507
0.000715498
0.000715744
0.000728805
0.000773426
0.00201658
0.00102075
0.000932338
0.000873551
0.00083474
0.000808148
0.00078911
0.000774933
0.000764052
0.000755489
0.000748619
0.000743017
0.000738386
0.000734513
0.000731242
0.000728453
0.00072606
0.000723989
0.000722187
0.000720604
0.000719223
0.000717994
0.000716911
0.000715934
0.000715077
0.000714297
0.000713602
0.000712961
0.000712404
0.000711882
0.000711427
0.000710987
0.000710625
0.000710267
0.000709949
0.000709643
0.000709396
0.000709152
0.000708945
0.000708732
0.000708577
0.000708405
0.000708257
0.000708109
0.000708018
0.000707871
0.000707759
0.000707676
0.000707621
0.00070757
0.000707528
0.000707441
0.000707394
0.000707368
0.000707336
0.000707246
0.00070726
0.000707259
0.000707238
0.000707326
0.000707326
0.000707325
0.000707412
0.000707474
0.000707604
0.000707715
0.000707875
0.000707975
0.000708134
0.000708213
0.000708352
0.000708455
0.000708646
0.000708764
0.000708959
0.000709081
0.000709303
0.000709425
0.000709669
0.000709807
0.000710092
0.000710242
0.000710549
0.000710715
0.000711063
0.000711255
0.000711662
0.000711891
0.000712376
0.00071264
0.000713244
0.000713517
0.000714508
0.00071475
0.000728204
0.000772625
0.00200973
0.00102078
0.000932288
0.000873359
0.000834407
0.000807698
0.000788566
0.000774316
0.000763374
0.000754763
0.000747853
0.000742218
0.000737559
0.000733662
0.00073037
0.000727563
0.000725155
0.00072307
0.000721256
0.000719663
0.000718272
0.000717034
0.000715944
0.000714959
0.000714097
0.000713311
0.000712611
0.000711965
0.000711404
0.000710878
0.000710419
0.000709976
0.000709611
0.00070925
0.00070893
0.000708621
0.000708372
0.000708126
0.000707917
0.000707702
0.000707545
0.000707372
0.000707223
0.000707072
0.00070698
0.000706832
0.00070672
0.000706635
0.000706579
0.000706527
0.000706484
0.000706397
0.000706349
0.000706322
0.00070629
0.000706199
0.000706212
0.000706211
0.000706188
0.000706274
0.000706275
0.000706273
0.000706359
0.00070642
0.000706549
0.000706659
0.000706819
0.000706917
0.000707077
0.000707155
0.000707294
0.000707396
0.000707586
0.000707704
0.000707898
0.00070802
0.000708241
0.000708362
0.000708606
0.000708743
0.000709027
0.000709176
0.000709482
0.000709648
0.000709994
0.000710187
0.000710591
0.00071082
0.000711303
0.000711565
0.000712167
0.000712438
0.000713429
0.000713667
0.000727553
0.000771754
0.00200052
0.00102081
0.000932235
0.000873153
0.000834048
0.000807212
0.000787979
0.000773648
0.000762642
0.000753978
0.000747025
0.000741353
0.000736663
0.00073274
0.000729426
0.000726599
0.000724175
0.000722074
0.000720248
0.000718643
0.000717241
0.000715995
0.000714896
0.000713904
0.000713035
0.000712242
0.000711537
0.000710886
0.00071032
0.00070979
0.000709328
0.00070888
0.000708512
0.000708148
0.000707825
0.000707513
0.000707262
0.000707013
0.000706802
0.000706586
0.000706427
0.000706251
0.000706101
0.000705949
0.000705856
0.000705707
0.000705593
0.000705507
0.000705449
0.000705396
0.000705353
0.000705266
0.000705217
0.000705188
0.000705155
0.000705065
0.000705076
0.000705074
0.00070505
0.000705134
0.000705134
0.000705132
0.000705218
0.000705277
0.000705405
0.000705514
0.000705673
0.000705771
0.000705931
0.000706008
0.000706147
0.000706248
0.000706437
0.000706554
0.000706748
0.000706869
0.00070709
0.00070721
0.000707453
0.00070759
0.000707873
0.000708021
0.000708326
0.000708492
0.000708837
0.000709028
0.000709431
0.000709658
0.000710139
0.000710401
0.000711
0.000711269
0.00071226
0.000712493
0.000726851
0.000770811
0.00198899
0.00102084
0.000932179
0.000872933
0.000833665
0.000806692
0.000787349
0.000772931
0.000761854
0.000753134
0.000746133
0.000740422
0.000735699
0.000731748
0.000728409
0.000725561
0.000723118
0.000721002
0.000719161
0.000717544
0.000716131
0.000714874
0.000713766
0.000712766
0.00071189
0.00071109
0.000710379
0.000709723
0.000709152
0.000708616
0.00070815
0.000707699
0.000707326
0.00070696
0.000706634
0.000706319
0.000706065
0.000705814
0.0007056
0.000705381
0.00070522
0.000705043
0.000704892
0.000704738
0.000704643
0.000704493
0.000704378
0.00070429
0.000704231
0.000704176
0.000704133
0.000704045
0.000703995
0.000703965
0.000703932
0.000703842
0.000703851
0.000703848
0.000703822
0.000703904
0.000703904
0.000703902
0.000703987
0.000704044
0.000704171
0.000704279
0.000704437
0.000704535
0.000704694
0.000704771
0.000704909
0.000705009
0.000705197
0.000705314
0.000705508
0.000705628
0.000705847
0.000705968
0.000706209
0.000706345
0.000706627
0.000706775
0.000707079
0.000707244
0.000707587
0.000707778
0.000708179
0.000708405
0.000708884
0.000709144
0.000709741
0.000710007
0.000710998
0.000711227
0.000726098
0.000769794
0.00197522
0.00102087
0.00093212
0.000872699
0.000833256
0.000806136
0.000786675
0.000772163
0.000761011
0.000752229
0.000745177
0.000739424
0.000734665
0.000730683
0.000727319
0.000724448
0.000721985
0.000719851
0.000717995
0.000716364
0.000714939
0.000713671
0.000712554
0.000711545
0.00071066
0.000709854
0.000709136
0.000708474
0.000707897
0.000707357
0.000706886
0.00070643
0.000706054
0.000705684
0.000705354
0.000705036
0.000704779
0.000704525
0.00070431
0.000704088
0.000703925
0.000703746
0.000703593
0.000703437
0.00070334
0.000703189
0.000703073
0.000702983
0.000702922
0.000702866
0.000702822
0.000702733
0.000702683
0.000702652
0.000702618
0.000702528
0.000702535
0.000702532
0.000702504
0.000702584
0.000702583
0.000702581
0.000702665
0.00070272
0.000702846
0.000702953
0.00070311
0.000703207
0.000703366
0.000703443
0.000703579
0.000703678
0.000703866
0.000703982
0.000704175
0.000704294
0.000704513
0.000704633
0.000704874
0.000705009
0.000705289
0.000705437
0.00070574
0.000705904
0.000706246
0.000706435
0.000706834
0.000707059
0.000707535
0.000707794
0.000708388
0.000708652
0.000709643
0.000709867
0.000725291
0.000768701
0.00195925
0.00102091
0.000932058
0.000872452
0.000832822
0.000805544
0.000785957
0.000771345
0.000760112
0.000751263
0.000744157
0.000738358
0.00073356
0.000729546
0.000726153
0.000723258
0.000720774
0.000718621
0.000716748
0.000715103
0.000713664
0.000712385
0.000711257
0.000710239
0.000709346
0.000708531
0.000707807
0.000707138
0.000706555
0.000706009
0.000705534
0.000705074
0.000704692
0.000704318
0.000703986
0.000703664
0.000703404
0.000703147
0.000702929
0.000702705
0.000702539
0.000702358
0.000702203
0.000702045
0.000701946
0.000701794
0.000701676
0.000701585
0.000701522
0.000701464
0.00070142
0.000701331
0.000701279
0.000701246
0.000701212
0.000701122
0.000701127
0.000701123
0.000701093
0.00070117
0.00070117
0.000701167
0.00070125
0.000701303
0.000701428
0.000701533
0.000701689
0.000701787
0.000701945
0.000702021
0.000702157
0.000702255
0.000702441
0.000702556
0.000702749
0.000702867
0.000703085
0.000703204
0.000703444
0.000703578
0.000703857
0.000704005
0.000704306
0.000704469
0.00070481
0.000704998
0.000705395
0.000705619
0.000706092
0.00070635
0.000706941
0.000707202
0.000708193
0.000708412
0.00072443
0.000767529
0.00194118
0.00102094
0.000931995
0.000872192
0.000832363
0.000804918
0.000785196
0.000770476
0.000759156
0.000750237
0.000743072
0.000737224
0.000732385
0.000728335
0.000724912
0.000721991
0.000719483
0.000717311
0.00071542
0.000713759
0.000712306
0.000711015
0.000709876
0.000708847
0.000707944
0.000707122
0.00070639
0.000705714
0.000705125
0.000704573
0.000704092
0.000703627
0.000703241
0.000702863
0.000702527
0.000702202
0.000701938
0.000701678
0.000701457
0.00070123
0.000701061
0.000700878
0.000700721
0.00070056
0.00070046
0.000700307
0.000700187
0.000700094
0.00070003
0.00069997
0.000699924
0.000699834
0.000699781
0.000699748
0.000699713
0.000699623
0.000699626
0.000699621
0.000699589
0.000699663
0.000699663
0.000699659
0.000699741
0.000699792
0.000699916
0.00070002
0.000700174
0.000700271
0.00070043
0.000700504
0.000700639
0.000700736
0.000700921
0.000701036
0.000701228
0.000701345
0.000701563
0.000701681
0.00070192
0.000702053
0.00070233
0.000702477
0.000702777
0.00070294
0.000703278
0.000703466
0.00070386
0.000704083
0.000704553
0.000704809
0.000705397
0.000705655
0.000706646
0.000706862
0.000723512
0.000766274
0.00192109
0.00102098
0.000931929
0.00087192
0.00083188
0.000804257
0.000784391
0.000769556
0.000758143
0.000749149
0.000741921
0.000736021
0.000731138
0.000727051
0.000723595
0.000720646
0.000718113
0.000715919
0.00071401
0.000712332
0.000710864
0.000709559
0.000708408
0.000707368
0.000706456
0.000705624
0.000704884
0.000704201
0.000703605
0.000703047
0.00070256
0.00070209
0.000701699
0.000701316
0.000700976
0.000700647
0.000700379
0.000700116
0.000699892
0.000699662
0.000699491
0.000699305
0.000699146
0.000698983
0.00069888
0.000698726
0.000698605
0.000698508
0.000698443
0.000698381
0.000698335
0.000698244
0.00069819
0.000698154
0.000698119
0.00069803
0.00069803
0.000698024
0.00069799
0.000698061
0.000698061
0.000698056
0.000698137
0.000698186
0.000698308
0.00069841
0.000698564
0.00069866
0.000698818
0.000698892
0.000699026
0.000699122
0.000699306
0.000699419
0.000699611
0.000699727
0.000699944
0.000700061
0.000700299
0.000700431
0.000700707
0.000700853
0.000701151
0.000701313
0.00070165
0.000701836
0.000702228
0.000702449
0.000702917
0.000703171
0.000703756
0.000704011
0.000705002
0.000705213
0.000722535
0.000764934
0.00189906
0.00102102
0.000931861
0.000871635
0.000831372
0.00080356
0.000783542
0.000768585
0.000757074
0.000747999
0.000740705
0.000734749
0.000729819
0.000725691
0.000722201
0.000719221
0.000716663
0.000714446
0.000712516
0.00071082
0.000709337
0.000708017
0.000706853
0.000705802
0.000704879
0.000704038
0.000703289
0.000702598
0.000701994
0.000701429
0.000700937
0.000700461
0.000700065
0.000699677
0.000699333
0.000698999
0.000698728
0.00069846
0.000698233
0.000698
0.000697826
0.000697637
0.000697476
0.00069731
0.000697206
0.00069705
0.000696927
0.000696828
0.000696761
0.000696697
0.000696649
0.000696558
0.000696502
0.000696465
0.00069643
0.000696341
0.000696339
0.000696331
0.000696294
0.000696362
0.000696362
0.000696357
0.000696437
0.000696483
0.000696603
0.000696704
0.000696856
0.000696952
0.00069711
0.000697182
0.000697315
0.00069741
0.000697593
0.000697706
0.000697896
0.000698011
0.000698227
0.000698344
0.00069858
0.000698711
0.000698985
0.00069913
0.000699428
0.000699588
0.000699923
0.000700109
0.000700498
0.000700717
0.000701182
0.000701434
0.000702016
0.000702267
0.000703258
0.000703466
0.000721496
0.000763503
0.00187521
0.00102107
0.000931792
0.000871337
0.000830841
0.000802829
0.00078265
0.000767564
0.000755947
0.000746787
0.000739422
0.000733407
0.000728426
0.000724256
0.000720729
0.000717718
0.000715132
0.00071289
0.000710939
0.000709223
0.000707723
0.000706388
0.00070521
0.000704146
0.000703212
0.000702361
0.000701603
0.000700903
0.000700292
0.00069972
0.000699221
0.000698739
0.000698337
0.000697944
0.000697595
0.000697257
0.000696981
0.00069671
0.00069648
0.000696243
0.000696065
0.000695874
0.000695711
0.000695542
0.000695435
0.000695278
0.000695153
0.000695052
0.000694982
0.000694916
0.000694867
0.000694775
0.000694718
0.000694679
0.000694643
0.000694554
0.00069455
0.000694541
0.000694502
0.000694566
0.000694566
0.00069456
0.000694639
0.000694682
0.000694801
0.0006949
0.00069505
0.000695146
0.000695303
0.000695374
0.000695506
0.000695599
0.000695781
0.000695893
0.000696083
0.000696197
0.000696411
0.000696527
0.000696762
0.000696892
0.000697164
0.000697309
0.000697604
0.000697764
0.000698097
0.000698281
0.000698668
0.000698886
0.000699347
0.000699597
0.000700175
0.000700423
0.000701414
0.000701619
0.000720392
0.000761975
0.00184964
0.00102111
0.000931721
0.000871029
0.000830286
0.000802064
0.000781714
0.000766491
0.000754764
0.000745513
0.000738073
0.000731995
0.000726961
0.000722745
0.000719179
0.000716134
0.000713518
0.000711251
0.000709276
0.00070754
0.000706022
0.00070467
0.000703478
0.000702401
0.000701455
0.000700593
0.000699825
0.000699116
0.000698497
0.000697917
0.000697411
0.000696923
0.000696515
0.000696117
0.000695763
0.00069542
0.00069514
0.000694864
0.00069463
0.00069439
0.000694209
0.000694014
0.000693848
0.000693677
0.000693567
0.000693408
0.000693281
0.000693177
0.000693105
0.000693037
0.000692987
0.000692894
0.000692835
0.000692794
0.000692758
0.00069267
0.000692663
0.000692652
0.00069261
0.000692671
0.000692671
0.000692664
0.000692741
0.000692782
0.000692899
0.000692996
0.000693145
0.00069324
0.000693397
0.000693466
0.000693598
0.000693689
0.000693869
0.00069398
0.000694169
0.000694282
0.000694495
0.000694611
0.000694844
0.000694973
0.000695243
0.000695387
0.00069568
0.000695839
0.00069617
0.000696353
0.000696737
0.000696953
0.000697411
0.000697659
0.000698233
0.000698478
0.000699468
0.00069967
0.000719219
0.000760346
0.00182246
0.00102116
0.000931649
0.000870708
0.000829708
0.000801265
0.000780735
0.000765367
0.000753523
0.000744176
0.000736657
0.000730512
0.000725422
0.000721158
0.00071755
0.000714469
0.000711822
0.000709527
0.000707528
0.000705771
0.000704233
0.000702864
0.000701656
0.000700566
0.000699606
0.000698733
0.000697955
0.000697236
0.000696608
0.00069602
0.000695507
0.000695012
0.000694597
0.000694194
0.000693835
0.000693487
0.000693201
0.000692922
0.000692683
0.000692439
0.000692254
0.000692057
0.000691888
0.000691714
0.000691601
0.000691441
0.000691311
0.000691204
0.00069113
0.000691059
0.000691008
0.000690914
0.000690853
0.000690811
0.000690773
0.000690685
0.000690676
0.000690663
0.000690619
0.000690677
0.000690676
0.000690668
0.000690744
0.000690781
0.000690896
0.000690992
0.000691139
0.000691233
0.00069139
0.000691457
0.000691588
0.000691678
0.000691856
0.000691966
0.000692154
0.000692266
0.000692478
0.000692592
0.000692824
0.000692952
0.00069322
0.000693363
0.000693655
0.000693813
0.00069414
0.000694322
0.000694703
0.000694917
0.000695372
0.000695618
0.000696188
0.000696429
0.000697419
0.000697619
0.000717974
0.000758607
0.00179379
0.00102121
0.000931576
0.000870378
0.000829108
0.000800433
0.000779713
0.000764193
0.000752225
0.000742777
0.000735173
0.000728959
0.000723809
0.000719494
0.000715842
0.000712723
0.000710043
0.000707718
0.000705694
0.000703914
0.000702355
0.000700968
0.000699744
0.000698638
0.000697666
0.00069678
0.000695991
0.000695262
0.000694625
0.000694028
0.000693507
0.000693005
0.000692583
0.000692174
0.000691809
0.000691456
0.000691166
0.000690881
0.000690639
0.000690391
0.000690202
0.000690001
0.000689829
0.000689651
0.000689535
0.000689373
0.000689241
0.000689132
0.000689055
0.000688981
0.000688929
0.000688833