/*--------------------------------*- C++ -*----------------------------------*\
| =========                 |                                                 |
| \\      /  F ield         | OpenFOAM: The Open Source CFD Toolbox           |
|  \\    /   O peration     | Version:  v2012                                 |
|   \\  /    A nd           | Website:  www.openfoam.com                      |
|    \\/     M anipulation  |                                                 |
\*---------------------------------------------------------------------------*/
FoamFile
{
    version     2.0;
    format      ascii;
    class       volScalarField;
    location    "22.5";
    object      nut;
}
// * * * * * * * * * * * * * * * * * * * * * * * * * * * * * * * * * * * * * //

dimensions      [0 2 -1 0 0 0 0];


internalField   nonuniform List<scalar> 
209825
(
1.23785e-07
1.23331e-07
1.23608e-07
1.24148e-07
1.24715e-07
1.25225e-07
1.25673e-07
1.26056e-07
1.26392e-07
1.26681e-07
1.26938e-07
1.27159e-07
1.2736e-07
1.27534e-07
1.27695e-07
1.27833e-07
1.27964e-07
1.28076e-07
1.28183e-07
1.28276e-07
1.28365e-07
1.28442e-07
1.28518e-07
1.28583e-07
1.28646e-07
1.28701e-07
1.28755e-07
1.28803e-07
1.2885e-07
1.2889e-07
1.28931e-07
1.28968e-07
1.29005e-07
1.29033e-07
1.29063e-07
1.2909e-07
1.29121e-07
1.29144e-07
1.29168e-07
1.29191e-07
1.29217e-07
1.29231e-07
1.2925e-07
1.29274e-07
1.29287e-07
1.29297e-07
1.29315e-07
1.29326e-07
1.29345e-07
1.29355e-07
1.29366e-07
1.2938e-07
1.29394e-07
1.29399e-07
1.29405e-07
1.29419e-07
1.29423e-07
1.29423e-07
1.29447e-07
1.29462e-07
1.2946e-07
1.29477e-07
1.2949e-07
1.29522e-07
1.2953e-07
1.2956e-07
1.29578e-07
1.296e-07
1.29615e-07
1.29628e-07
1.29647e-07
1.2966e-07
1.29682e-07
1.29693e-07
1.29702e-07
1.29713e-07
1.29735e-07
1.29753e-07
1.29765e-07
1.29788e-07
1.29803e-07
1.29826e-07
1.29841e-07
1.29869e-07
1.29887e-07
1.29923e-07
1.29946e-07
1.29992e-07
1.3002e-07
1.30076e-07
1.30108e-07
1.30201e-07
1.30239e-07
1.31333e-07
1.358e-07
1.74427e-08
1.23785e-07
1.23331e-07
1.23608e-07
1.24148e-07
1.24715e-07
1.25225e-07
1.25673e-07
1.26056e-07
1.26392e-07
1.26681e-07
1.26938e-07
1.27159e-07
1.2736e-07
1.27534e-07
1.27694e-07
1.27833e-07
1.27964e-07
1.28076e-07
1.28183e-07
1.28276e-07
1.28365e-07
1.28442e-07
1.28518e-07
1.28583e-07
1.28647e-07
1.28701e-07
1.28755e-07
1.28803e-07
1.2885e-07
1.28891e-07
1.28931e-07
1.28968e-07
1.29005e-07
1.29033e-07
1.29063e-07
1.29091e-07
1.29122e-07
1.29144e-07
1.29169e-07
1.29192e-07
1.29217e-07
1.29231e-07
1.2925e-07
1.29274e-07
1.29287e-07
1.29297e-07
1.29315e-07
1.29327e-07
1.29346e-07
1.29355e-07
1.29366e-07
1.2938e-07
1.29394e-07
1.29399e-07
1.29405e-07
1.29419e-07
1.29423e-07
1.29424e-07
1.29447e-07
1.29462e-07
1.29461e-07
1.29477e-07
1.29491e-07
1.29522e-07
1.29531e-07
1.2956e-07
1.29579e-07
1.296e-07
1.29615e-07
1.29628e-07
1.29647e-07
1.2966e-07
1.29682e-07
1.29694e-07
1.29703e-07
1.29713e-07
1.29735e-07
1.29753e-07
1.29766e-07
1.29789e-07
1.29803e-07
1.29826e-07
1.29841e-07
1.2987e-07
1.29887e-07
1.29923e-07
1.29947e-07
1.29992e-07
1.3002e-07
1.30077e-07
1.30109e-07
1.30201e-07
1.3024e-07
1.31335e-07
1.35803e-07
1.79705e-08
1.23785e-07
1.2333e-07
1.23607e-07
1.24146e-07
1.24712e-07
1.25222e-07
1.2567e-07
1.26053e-07
1.26389e-07
1.26678e-07
1.26935e-07
1.27156e-07
1.27357e-07
1.27531e-07
1.27692e-07
1.27831e-07
1.27961e-07
1.28073e-07
1.2818e-07
1.28273e-07
1.28362e-07
1.28439e-07
1.28515e-07
1.2858e-07
1.28644e-07
1.28698e-07
1.28753e-07
1.288e-07
1.28847e-07
1.28888e-07
1.28928e-07
1.28965e-07
1.29002e-07
1.2903e-07
1.2906e-07
1.29088e-07
1.29119e-07
1.29141e-07
1.29166e-07
1.29189e-07
1.29214e-07
1.29229e-07
1.29248e-07
1.29271e-07
1.29285e-07
1.29294e-07
1.29312e-07
1.29324e-07
1.29343e-07
1.29352e-07
1.29364e-07
1.29378e-07
1.29392e-07
1.29397e-07
1.29403e-07
1.29416e-07
1.2942e-07
1.29421e-07
1.29445e-07
1.29459e-07
1.29458e-07
1.29474e-07
1.29488e-07
1.2952e-07
1.29528e-07
1.29558e-07
1.29576e-07
1.29598e-07
1.29613e-07
1.29625e-07
1.29645e-07
1.29658e-07
1.2968e-07
1.29691e-07
1.297e-07
1.2971e-07
1.29733e-07
1.2975e-07
1.29763e-07
1.29786e-07
1.29801e-07
1.29824e-07
1.29839e-07
1.29867e-07
1.29885e-07
1.2992e-07
1.29944e-07
1.2999e-07
1.30018e-07
1.30074e-07
1.30106e-07
1.30199e-07
1.30237e-07
1.31337e-07
1.35804e-07
1.86256e-08
1.23785e-07
1.23329e-07
1.23605e-07
1.24143e-07
1.24709e-07
1.25218e-07
1.25666e-07
1.26049e-07
1.26385e-07
1.26673e-07
1.2693e-07
1.27152e-07
1.27353e-07
1.27527e-07
1.27687e-07
1.27826e-07
1.27957e-07
1.28069e-07
1.28176e-07
1.28269e-07
1.28358e-07
1.28435e-07
1.28511e-07
1.28576e-07
1.2864e-07
1.28694e-07
1.28749e-07
1.28796e-07
1.28843e-07
1.28884e-07
1.28924e-07
1.28961e-07
1.28998e-07
1.29026e-07
1.29056e-07
1.29084e-07
1.29115e-07
1.29138e-07
1.29162e-07
1.29185e-07
1.2921e-07
1.29225e-07
1.29244e-07
1.29267e-07
1.29281e-07
1.2929e-07
1.29309e-07
1.2932e-07
1.29339e-07
1.29348e-07
1.2936e-07
1.29374e-07
1.29388e-07
1.29393e-07
1.29399e-07
1.29412e-07
1.29417e-07
1.29417e-07
1.29441e-07
1.29455e-07
1.29454e-07
1.2947e-07
1.29484e-07
1.29516e-07
1.29524e-07
1.29554e-07
1.29572e-07
1.29594e-07
1.29609e-07
1.29622e-07
1.29641e-07
1.29654e-07
1.29676e-07
1.29688e-07
1.29697e-07
1.29707e-07
1.29729e-07
1.29747e-07
1.29759e-07
1.29783e-07
1.29797e-07
1.2982e-07
1.29835e-07
1.29863e-07
1.29881e-07
1.29917e-07
1.29941e-07
1.29986e-07
1.30014e-07
1.3007e-07
1.30102e-07
1.30195e-07
1.30233e-07
1.3134e-07
1.35807e-07
1.9352e-08
1.23786e-07
1.23328e-07
1.23601e-07
1.24138e-07
1.24703e-07
1.25213e-07
1.2566e-07
1.26043e-07
1.26379e-07
1.26667e-07
1.26924e-07
1.27146e-07
1.27347e-07
1.27521e-07
1.27681e-07
1.2782e-07
1.27951e-07
1.28063e-07
1.2817e-07
1.28263e-07
1.28353e-07
1.2843e-07
1.28505e-07
1.2857e-07
1.28634e-07
1.28688e-07
1.28743e-07
1.2879e-07
1.28837e-07
1.28878e-07
1.28919e-07
1.28956e-07
1.28993e-07
1.29021e-07
1.29051e-07
1.29079e-07
1.2911e-07
1.29132e-07
1.29157e-07
1.2918e-07
1.29205e-07
1.2922e-07
1.29239e-07
1.29262e-07
1.29276e-07
1.29285e-07
1.29304e-07
1.29315e-07
1.29334e-07
1.29343e-07
1.29355e-07
1.29369e-07
1.29383e-07
1.29388e-07
1.29394e-07
1.29408e-07
1.29412e-07
1.29412e-07
1.29436e-07
1.2945e-07
1.29449e-07
1.29466e-07
1.29479e-07
1.29511e-07
1.2952e-07
1.29549e-07
1.29568e-07
1.29589e-07
1.29604e-07
1.29617e-07
1.29636e-07
1.29649e-07
1.29671e-07
1.29683e-07
1.29692e-07
1.29702e-07
1.29725e-07
1.29742e-07
1.29755e-07
1.29778e-07
1.29793e-07
1.29816e-07
1.29831e-07
1.29859e-07
1.29877e-07
1.29912e-07
1.29936e-07
1.29981e-07
1.30009e-07
1.30065e-07
1.30098e-07
1.3019e-07
1.30228e-07
1.31345e-07
1.3581e-07
2.01394e-08
1.23786e-07
1.23326e-07
1.23597e-07
1.24133e-07
1.24697e-07
1.25205e-07
1.25653e-07
1.26035e-07
1.26371e-07
1.2666e-07
1.26917e-07
1.27138e-07
1.2734e-07
1.27513e-07
1.27674e-07
1.27813e-07
1.27943e-07
1.28056e-07
1.28163e-07
1.28256e-07
1.28346e-07
1.28423e-07
1.28498e-07
1.28563e-07
1.28627e-07
1.28681e-07
1.28736e-07
1.28784e-07
1.28831e-07
1.28872e-07
1.28912e-07
1.28949e-07
1.28986e-07
1.29014e-07
1.29045e-07
1.29072e-07
1.29103e-07
1.29126e-07
1.2915e-07
1.29173e-07
1.29199e-07
1.29213e-07
1.29233e-07
1.29256e-07
1.2927e-07
1.29279e-07
1.29297e-07
1.29309e-07
1.29328e-07
1.29337e-07
1.29349e-07
1.29363e-07
1.29377e-07
1.29382e-07
1.29388e-07
1.29401e-07
1.29406e-07
1.29406e-07
1.2943e-07
1.29444e-07
1.29443e-07
1.2946e-07
1.29473e-07
1.29505e-07
1.29514e-07
1.29543e-07
1.29562e-07
1.29584e-07
1.29599e-07
1.29611e-07
1.29631e-07
1.29643e-07
1.29665e-07
1.29677e-07
1.29686e-07
1.29696e-07
1.29719e-07
1.29736e-07
1.29749e-07
1.29772e-07
1.29787e-07
1.2981e-07
1.29825e-07
1.29853e-07
1.29871e-07
1.29906e-07
1.2993e-07
1.29975e-07
1.30004e-07
1.3006e-07
1.30092e-07
1.30184e-07
1.30222e-07
1.31351e-07
1.35814e-07
2.09855e-08
1.23786e-07
1.23324e-07
1.23593e-07
1.24126e-07
1.24689e-07
1.25197e-07
1.25644e-07
1.26026e-07
1.26362e-07
1.2665e-07
1.26908e-07
1.27129e-07
1.2733e-07
1.27504e-07
1.27665e-07
1.27804e-07
1.27935e-07
1.28047e-07
1.28154e-07
1.28247e-07
1.28337e-07
1.28414e-07
1.2849e-07
1.28555e-07
1.28619e-07
1.28673e-07
1.28728e-07
1.28775e-07
1.28823e-07
1.28864e-07
1.28904e-07
1.28941e-07
1.28979e-07
1.29006e-07
1.29037e-07
1.29065e-07
1.29096e-07
1.29118e-07
1.29143e-07
1.29166e-07
1.29191e-07
1.29206e-07
1.29225e-07
1.29248e-07
1.29262e-07
1.29272e-07
1.2929e-07
1.29302e-07
1.29321e-07
1.2933e-07
1.29342e-07
1.29356e-07
1.2937e-07
1.29375e-07
1.29381e-07
1.29394e-07
1.29399e-07
1.29399e-07
1.29423e-07
1.29437e-07
1.29436e-07
1.29452e-07
1.29466e-07
1.29498e-07
1.29507e-07
1.29536e-07
1.29555e-07
1.29577e-07
1.29592e-07
1.29604e-07
1.29624e-07
1.29637e-07
1.29658e-07
1.2967e-07
1.29679e-07
1.2969e-07
1.29712e-07
1.2973e-07
1.29742e-07
1.29765e-07
1.2978e-07
1.29803e-07
1.29818e-07
1.29846e-07
1.29864e-07
1.299e-07
1.29923e-07
1.29968e-07
1.29997e-07
1.30053e-07
1.30085e-07
1.30177e-07
1.30215e-07
1.31359e-07
1.35819e-07
2.18907e-08
1.23786e-07
1.23322e-07
1.23587e-07
1.24118e-07
1.2468e-07
1.25187e-07
1.25633e-07
1.26016e-07
1.26351e-07
1.2664e-07
1.26897e-07
1.27118e-07
1.2732e-07
1.27494e-07
1.27654e-07
1.27794e-07
1.27924e-07
1.28037e-07
1.28144e-07
1.28237e-07
1.28327e-07
1.28404e-07
1.2848e-07
1.28545e-07
1.28609e-07
1.28664e-07
1.28719e-07
1.28766e-07
1.28813e-07
1.28854e-07
1.28895e-07
1.28932e-07
1.28969e-07
1.28997e-07
1.29028e-07
1.29056e-07
1.29087e-07
1.29109e-07
1.29134e-07
1.29157e-07
1.29183e-07
1.29197e-07
1.29216e-07
1.2924e-07
1.29254e-07
1.29263e-07
1.29282e-07
1.29293e-07
1.29312e-07
1.29322e-07
1.29333e-07
1.29347e-07
1.29361e-07
1.29367e-07
1.29373e-07
1.29386e-07
1.29391e-07
1.29391e-07
1.29414e-07
1.29429e-07
1.29428e-07
1.29444e-07
1.29458e-07
1.2949e-07
1.29498e-07
1.29528e-07
1.29546e-07
1.29569e-07
1.29583e-07
1.29596e-07
1.29615e-07
1.29629e-07
1.2965e-07
1.29662e-07
1.29671e-07
1.29682e-07
1.29704e-07
1.29722e-07
1.29734e-07
1.29757e-07
1.29772e-07
1.29795e-07
1.2981e-07
1.29838e-07
1.29856e-07
1.29892e-07
1.29915e-07
1.2996e-07
1.29989e-07
1.30045e-07
1.30077e-07
1.30169e-07
1.30206e-07
1.31369e-07
1.35825e-07
2.28558e-08
1.23787e-07
1.23319e-07
1.2358e-07
1.24109e-07
1.24669e-07
1.25175e-07
1.25621e-07
1.26003e-07
1.26339e-07
1.26627e-07
1.26884e-07
1.27106e-07
1.27308e-07
1.27482e-07
1.27642e-07
1.27782e-07
1.27913e-07
1.28025e-07
1.28133e-07
1.28226e-07
1.28316e-07
1.28393e-07
1.28469e-07
1.28534e-07
1.28598e-07
1.28653e-07
1.28708e-07
1.28755e-07
1.28803e-07
1.28844e-07
1.28884e-07
1.28922e-07
1.28959e-07
1.28987e-07
1.29018e-07
1.29045e-07
1.29076e-07
1.29099e-07
1.29124e-07
1.29147e-07
1.29173e-07
1.29187e-07
1.29206e-07
1.2923e-07
1.29244e-07
1.29254e-07
1.29272e-07
1.29283e-07
1.29303e-07
1.29312e-07
1.29324e-07
1.29338e-07
1.29352e-07
1.29357e-07
1.29363e-07
1.29376e-07
1.29381e-07
1.29382e-07
1.29405e-07
1.29419e-07
1.29419e-07
1.29435e-07
1.29448e-07
1.2948e-07
1.29489e-07
1.29519e-07
1.29537e-07
1.29559e-07
1.29574e-07
1.29587e-07
1.29606e-07
1.29619e-07
1.29641e-07
1.29653e-07
1.29662e-07
1.29673e-07
1.29695e-07
1.29713e-07
1.29725e-07
1.29748e-07
1.29763e-07
1.29786e-07
1.29801e-07
1.29829e-07
1.29847e-07
1.29883e-07
1.29906e-07
1.29951e-07
1.29979e-07
1.30035e-07
1.30067e-07
1.3016e-07
1.30197e-07
1.31381e-07
1.35832e-07
2.38815e-08
1.23787e-07
1.23316e-07
1.23573e-07
1.24098e-07
1.24656e-07
1.25162e-07
1.25607e-07
1.25989e-07
1.26325e-07
1.26613e-07
1.2687e-07
1.27092e-07
1.27294e-07
1.27468e-07
1.27629e-07
1.27768e-07
1.27899e-07
1.28012e-07
1.28119e-07
1.28213e-07
1.28303e-07
1.2838e-07
1.28456e-07
1.28521e-07
1.28586e-07
1.2864e-07
1.28696e-07
1.28743e-07
1.28791e-07
1.28832e-07
1.28872e-07
1.2891e-07
1.28947e-07
1.28975e-07
1.29006e-07
1.29034e-07
1.29065e-07
1.29088e-07
1.29113e-07
1.29136e-07
1.29161e-07
1.29176e-07
1.29195e-07
1.29219e-07
1.29233e-07
1.29243e-07
1.29261e-07
1.29273e-07
1.29292e-07
1.29301e-07
1.29313e-07
1.29327e-07
1.29341e-07
1.29346e-07
1.29352e-07
1.29366e-07
1.29371e-07
1.29371e-07
1.29394e-07
1.29408e-07
1.29408e-07
1.29424e-07
1.29438e-07
1.2947e-07
1.29479e-07
1.29508e-07
1.29526e-07
1.29549e-07
1.29564e-07
1.29576e-07
1.29596e-07
1.29609e-07
1.29631e-07
1.29643e-07
1.29652e-07
1.29663e-07
1.29685e-07
1.29702e-07
1.29715e-07
1.29738e-07
1.29753e-07
1.29776e-07
1.29791e-07
1.29819e-07
1.29837e-07
1.29872e-07
1.29896e-07
1.29941e-07
1.29969e-07
1.30025e-07
1.30057e-07
1.30149e-07
1.30186e-07
1.31395e-07
1.3584e-07
2.49675e-08
1.23788e-07
1.23312e-07
1.23564e-07
1.24086e-07
1.24643e-07
1.25147e-07
1.25592e-07
1.25973e-07
1.26309e-07
1.26597e-07
1.26854e-07
1.27076e-07
1.27278e-07
1.27452e-07
1.27614e-07
1.27753e-07
1.27884e-07
1.27997e-07
1.28105e-07
1.28198e-07
1.28288e-07
1.28366e-07
1.28442e-07
1.28507e-07
1.28572e-07
1.28627e-07
1.28682e-07
1.2873e-07
1.28777e-07
1.28818e-07
1.28859e-07
1.28896e-07
1.28934e-07
1.28962e-07
1.28993e-07
1.29021e-07
1.29052e-07
1.29075e-07
1.291e-07
1.29123e-07
1.29149e-07
1.29163e-07
1.29183e-07
1.29206e-07
1.29221e-07
1.2923e-07
1.29249e-07
1.2926e-07
1.29279e-07
1.29289e-07
1.29301e-07
1.29315e-07
1.29329e-07
1.29334e-07
1.29341e-07
1.29354e-07
1.29359e-07
1.29359e-07
1.29382e-07
1.29396e-07
1.29396e-07
1.29412e-07
1.29426e-07
1.29458e-07
1.29467e-07
1.29496e-07
1.29515e-07
1.29537e-07
1.29552e-07
1.29565e-07
1.29584e-07
1.29598e-07
1.29619e-07
1.29631e-07
1.29641e-07
1.29651e-07
1.29674e-07
1.29691e-07
1.29704e-07
1.29727e-07
1.29742e-07
1.29765e-07
1.2978e-07
1.29808e-07
1.29826e-07
1.29861e-07
1.29885e-07
1.29929e-07
1.29958e-07
1.30013e-07
1.30045e-07
1.30138e-07
1.30174e-07
1.31411e-07
1.35849e-07
2.61123e-08
1.23789e-07
1.23308e-07
1.23555e-07
1.24073e-07
1.24627e-07
1.2513e-07
1.25574e-07
1.25956e-07
1.26291e-07
1.26579e-07
1.26837e-07
1.27059e-07
1.27261e-07
1.27435e-07
1.27597e-07
1.27736e-07
1.27868e-07
1.27981e-07
1.28088e-07
1.28182e-07
1.28272e-07
1.2835e-07
1.28426e-07
1.28492e-07
1.28557e-07
1.28611e-07
1.28667e-07
1.28714e-07
1.28762e-07
1.28804e-07
1.28844e-07
1.28882e-07
1.28919e-07
1.28948e-07
1.28979e-07
1.29006e-07
1.29038e-07
1.29061e-07
1.29086e-07
1.29109e-07
1.29135e-07
1.29149e-07
1.29169e-07
1.29192e-07
1.29207e-07
1.29217e-07
1.29235e-07
1.29247e-07
1.29266e-07
1.29276e-07
1.29287e-07
1.29301e-07
1.29316e-07
1.29321e-07
1.29327e-07
1.29341e-07
1.29346e-07
1.29346e-07
1.29368e-07
1.29383e-07
1.29383e-07
1.29399e-07
1.29413e-07
1.29445e-07
1.29454e-07
1.29483e-07
1.29501e-07
1.29524e-07
1.29539e-07
1.29552e-07
1.29571e-07
1.29585e-07
1.29606e-07
1.29618e-07
1.29628e-07
1.29639e-07
1.29661e-07
1.29679e-07
1.29691e-07
1.29714e-07
1.29729e-07
1.29752e-07
1.29768e-07
1.29796e-07
1.29813e-07
1.29849e-07
1.29872e-07
1.29917e-07
1.29945e-07
1.3e-07
1.30032e-07
1.30125e-07
1.30161e-07
1.3143e-07
1.3586e-07
2.73135e-08
1.23789e-07
1.23304e-07
1.23545e-07
1.24059e-07
1.2461e-07
1.25112e-07
1.25555e-07
1.25936e-07
1.26272e-07
1.2656e-07
1.26817e-07
1.2704e-07
1.27242e-07
1.27416e-07
1.27578e-07
1.27718e-07
1.27849e-07
1.27962e-07
1.28071e-07
1.28164e-07
1.28255e-07
1.28333e-07
1.28409e-07
1.28475e-07
1.2854e-07
1.28594e-07
1.2865e-07
1.28698e-07
1.28746e-07
1.28787e-07
1.28828e-07
1.28866e-07
1.28903e-07
1.28932e-07
1.28963e-07
1.28991e-07
1.29022e-07
1.29045e-07
1.2907e-07
1.29093e-07
1.29119e-07
1.29134e-07
1.29154e-07
1.29177e-07
1.29192e-07
1.29202e-07
1.2922e-07
1.29232e-07
1.29251e-07
1.29261e-07
1.29273e-07
1.29287e-07
1.29301e-07
1.29307e-07
1.29313e-07
1.29326e-07
1.29331e-07
1.29332e-07
1.29354e-07
1.29368e-07
1.29368e-07
1.29385e-07
1.29398e-07
1.2943e-07
1.2944e-07
1.29469e-07
1.29487e-07
1.2951e-07
1.29525e-07
1.29538e-07
1.29557e-07
1.29571e-07
1.29592e-07
1.29604e-07
1.29614e-07
1.29625e-07
1.29647e-07
1.29665e-07
1.29678e-07
1.297e-07
1.29716e-07
1.29739e-07
1.29754e-07
1.29782e-07
1.298e-07
1.29835e-07
1.29858e-07
1.29903e-07
1.29931e-07
1.29986e-07
1.30018e-07
1.30111e-07
1.30146e-07
1.31452e-07
1.35873e-07
2.85741e-08
1.2379e-07
1.233e-07
1.23534e-07
1.24043e-07
1.24592e-07
1.25092e-07
1.25535e-07
1.25915e-07
1.2625e-07
1.26539e-07
1.26796e-07
1.27019e-07
1.27221e-07
1.27396e-07
1.27557e-07
1.27698e-07
1.27829e-07
1.27943e-07
1.28051e-07
1.28145e-07
1.28236e-07
1.28314e-07
1.2839e-07
1.28456e-07
1.28521e-07
1.28576e-07
1.28632e-07
1.2868e-07
1.28728e-07
1.28769e-07
1.2881e-07
1.28848e-07
1.28886e-07
1.28914e-07
1.28945e-07
1.28973e-07
1.29005e-07
1.29028e-07
1.29053e-07
1.29076e-07
1.29102e-07
1.29118e-07
1.29137e-07
1.2916e-07
1.29175e-07
1.29185e-07
1.29204e-07
1.29216e-07
1.29235e-07
1.29245e-07
1.29257e-07
1.29271e-07
1.29285e-07
1.29291e-07
1.29297e-07
1.2931e-07
1.29316e-07
1.29316e-07
1.29338e-07
1.29352e-07
1.29353e-07
1.29369e-07
1.29383e-07
1.29415e-07
1.29424e-07
1.29453e-07
1.29472e-07
1.29495e-07
1.29509e-07
1.29523e-07
1.29542e-07
1.29556e-07
1.29577e-07
1.29589e-07
1.29599e-07
1.2961e-07
1.29632e-07
1.2965e-07
1.29663e-07
1.29685e-07
1.29701e-07
1.29724e-07
1.29739e-07
1.29767e-07
1.29785e-07
1.2982e-07
1.29843e-07
1.29888e-07
1.29916e-07
1.29971e-07
1.30002e-07
1.30095e-07
1.30131e-07
1.31476e-07
1.35886e-07
2.98974e-08
1.23791e-07
1.23295e-07
1.23522e-07
1.24026e-07
1.24572e-07
1.2507e-07
1.25512e-07
1.25892e-07
1.26227e-07
1.26515e-07
1.26773e-07
1.26996e-07
1.27198e-07
1.27373e-07
1.27535e-07
1.27675e-07
1.27808e-07
1.27921e-07
1.2803e-07
1.28124e-07
1.28215e-07
1.28293e-07
1.2837e-07
1.28436e-07
1.28501e-07
1.28556e-07
1.28612e-07
1.2866e-07
1.28708e-07
1.2875e-07
1.28791e-07
1.28829e-07
1.28867e-07
1.28895e-07
1.28927e-07
1.28955e-07
1.28986e-07
1.2901e-07
1.29035e-07
1.29058e-07
1.29084e-07
1.29099e-07
1.29119e-07
1.29142e-07
1.29158e-07
1.29168e-07
1.29186e-07
1.29198e-07
1.29217e-07
1.29227e-07
1.29239e-07
1.29253e-07
1.29268e-07
1.29274e-07
1.2928e-07
1.29293e-07
1.29299e-07
1.29299e-07
1.29321e-07
1.29335e-07
1.29335e-07
1.29352e-07
1.29365e-07
1.29398e-07
1.29407e-07
1.29436e-07
1.29455e-07
1.29478e-07
1.29493e-07
1.29506e-07
1.29525e-07
1.29539e-07
1.29561e-07
1.29573e-07
1.29583e-07
1.29594e-07
1.29616e-07
1.29633e-07
1.29647e-07
1.29669e-07
1.29685e-07
1.29708e-07
1.29723e-07
1.29751e-07
1.29768e-07
1.29803e-07
1.29827e-07
1.29871e-07
1.29899e-07
1.29954e-07
1.29986e-07
1.30078e-07
1.30114e-07
1.31504e-07
1.35901e-07
3.12872e-08
1.23792e-07
1.23289e-07
1.23509e-07
1.24008e-07
1.2455e-07
1.25047e-07
1.25488e-07
1.25867e-07
1.26202e-07
1.2649e-07
1.26748e-07
1.26971e-07
1.27174e-07
1.27349e-07
1.27511e-07
1.27652e-07
1.27784e-07
1.27898e-07
1.28006e-07
1.28101e-07
1.28192e-07
1.2827e-07
1.28347e-07
1.28414e-07
1.28479e-07
1.28534e-07
1.2859e-07
1.28639e-07
1.28687e-07
1.28729e-07
1.2877e-07
1.28808e-07
1.28846e-07
1.28875e-07
1.28906e-07
1.28934e-07
1.28966e-07
1.2899e-07
1.29015e-07
1.29038e-07
1.29064e-07
1.2908e-07
1.29099e-07
1.29123e-07
1.29138e-07
1.29148e-07
1.29167e-07
1.29179e-07
1.29198e-07
1.29209e-07
1.29221e-07
1.29235e-07
1.29249e-07
1.29255e-07
1.29262e-07
1.29275e-07
1.2928e-07
1.29281e-07
1.29302e-07
1.29316e-07
1.29317e-07
1.29334e-07
1.29347e-07
1.29379e-07
1.29389e-07
1.29418e-07
1.29436e-07
1.2946e-07
1.29474e-07
1.29488e-07
1.29507e-07
1.29521e-07
1.29543e-07
1.29555e-07
1.29565e-07
1.29576e-07
1.29598e-07
1.29616e-07
1.29629e-07
1.29651e-07
1.29667e-07
1.2969e-07
1.29705e-07
1.29733e-07
1.29751e-07
1.29786e-07
1.29809e-07
1.29853e-07
1.29881e-07
1.29936e-07
1.29967e-07
1.3006e-07
1.30095e-07
1.31533e-07
1.35918e-07
3.27471e-08
1.23793e-07
1.23284e-07
1.23495e-07
1.23988e-07
1.24527e-07
1.25022e-07
1.25461e-07
1.2584e-07
1.26175e-07
1.26463e-07
1.26721e-07
1.26944e-07
1.27147e-07
1.27323e-07
1.27485e-07
1.27626e-07
1.27759e-07
1.27873e-07
1.27982e-07
1.28076e-07
1.28168e-07
1.28246e-07
1.28323e-07
1.2839e-07
1.28456e-07
1.28511e-07
1.28567e-07
1.28616e-07
1.28664e-07
1.28706e-07
1.28748e-07
1.28786e-07
1.28824e-07
1.28853e-07
1.28884e-07
1.28913e-07
1.28944e-07
1.28968e-07
1.28993e-07
1.29017e-07
1.29043e-07
1.29059e-07
1.29078e-07
1.29102e-07
1.29118e-07
1.29128e-07
1.29146e-07
1.29158e-07
1.29178e-07
1.29188e-07
1.292e-07
1.29214e-07
1.29229e-07
1.29235e-07
1.29242e-07
1.29255e-07
1.29261e-07
1.29261e-07
1.29282e-07
1.29296e-07
1.29297e-07
1.29314e-07
1.29327e-07
1.2936e-07
1.29369e-07
1.29398e-07
1.29416e-07
1.29441e-07
1.29455e-07
1.29469e-07
1.29487e-07
1.29502e-07
1.29523e-07
1.29536e-07
1.29546e-07
1.29557e-07
1.29579e-07
1.29597e-07
1.2961e-07
1.29633e-07
1.29648e-07
1.29671e-07
1.29687e-07
1.29714e-07
1.29732e-07
1.29767e-07
1.2979e-07
1.29834e-07
1.29862e-07
1.29917e-07
1.29948e-07
1.30041e-07
1.30075e-07
1.31566e-07
1.35936e-07
3.42811e-08
1.23794e-07
1.23278e-07
1.2348e-07
1.23967e-07
1.24502e-07
1.24995e-07
1.25433e-07
1.25812e-07
1.26146e-07
1.26434e-07
1.26693e-07
1.26915e-07
1.27119e-07
1.27294e-07
1.27457e-07
1.27598e-07
1.27731e-07
1.27846e-07
1.27955e-07
1.2805e-07
1.28142e-07
1.2822e-07
1.28298e-07
1.28364e-07
1.2843e-07
1.28486e-07
1.28542e-07
1.28591e-07
1.2864e-07
1.28682e-07
1.28724e-07
1.28762e-07
1.288e-07
1.28829e-07
1.28861e-07
1.28889e-07
1.28921e-07
1.28945e-07
1.2897e-07
1.28994e-07
1.2902e-07
1.29036e-07
1.29056e-07
1.29079e-07
1.29095e-07
1.29106e-07
1.29124e-07
1.29136e-07
1.29156e-07
1.29167e-07
1.29179e-07
1.29193e-07
1.29208e-07
1.29214e-07
1.2922e-07
1.29233e-07
1.2924e-07
1.2924e-07
1.2926e-07
1.29274e-07
1.29276e-07
1.29293e-07
1.29306e-07
1.29338e-07
1.29348e-07
1.29377e-07
1.29395e-07
1.2942e-07
1.29434e-07
1.29448e-07
1.29466e-07
1.29481e-07
1.29503e-07
1.29515e-07
1.29526e-07
1.29537e-07
1.29559e-07
1.29577e-07
1.2959e-07
1.29612e-07
1.29628e-07
1.29651e-07
1.29666e-07
1.29694e-07
1.29712e-07
1.29747e-07
1.2977e-07
1.29814e-07
1.29842e-07
1.29896e-07
1.29927e-07
1.3002e-07
1.30054e-07
1.31602e-07
1.35956e-07
3.58932e-08
1.23795e-07
1.23271e-07
1.23465e-07
1.23944e-07
1.24476e-07
1.24966e-07
1.25403e-07
1.25781e-07
1.26115e-07
1.26403e-07
1.26662e-07
1.26885e-07
1.27088e-07
1.27264e-07
1.27427e-07
1.27569e-07
1.27702e-07
1.27817e-07
1.27926e-07
1.28021e-07
1.28113e-07
1.28193e-07
1.2827e-07
1.28337e-07
1.28403e-07
1.28459e-07
1.28516e-07
1.28565e-07
1.28614e-07
1.28656e-07
1.28698e-07
1.28736e-07
1.28775e-07
1.28804e-07
1.28836e-07
1.28864e-07
1.28896e-07
1.2892e-07
1.28946e-07
1.28969e-07
1.28996e-07
1.29012e-07
1.29032e-07
1.29055e-07
1.29071e-07
1.29082e-07
1.29101e-07
1.29113e-07
1.29132e-07
1.29143e-07
1.29155e-07
1.2917e-07
1.29185e-07
1.29191e-07
1.29198e-07
1.29211e-07
1.29217e-07
1.29217e-07
1.29237e-07
1.29251e-07
1.29253e-07
1.2927e-07
1.29283e-07
1.29316e-07
1.29325e-07
1.29354e-07
1.29372e-07
1.29397e-07
1.29411e-07
1.29426e-07
1.29444e-07
1.29459e-07
1.2948e-07
1.29493e-07
1.29504e-07
1.29515e-07
1.29537e-07
1.29555e-07
1.29568e-07
1.2959e-07
1.29606e-07
1.2963e-07
1.29645e-07
1.29673e-07
1.2969e-07
1.29725e-07
1.29748e-07
1.29792e-07
1.2982e-07
1.29874e-07
1.29905e-07
1.29998e-07
1.30032e-07
1.3164e-07
1.35976e-07
3.75874e-08
1.23796e-07
1.23265e-07
1.23448e-07
1.23921e-07
1.24447e-07
1.24935e-07
1.25371e-07
1.25748e-07
1.26082e-07
1.2637e-07
1.26629e-07
1.26852e-07
1.27056e-07
1.27232e-07
1.27396e-07
1.27537e-07
1.27671e-07
1.27786e-07
1.27896e-07
1.27991e-07
1.28084e-07
1.28163e-07
1.28241e-07
1.28308e-07
1.28374e-07
1.2843e-07
1.28488e-07
1.28536e-07
1.28586e-07
1.28628e-07
1.2867e-07
1.28708e-07
1.28748e-07
1.28777e-07
1.28809e-07
1.28837e-07
1.2887e-07
1.28894e-07
1.2892e-07
1.28943e-07
1.2897e-07
1.28986e-07
1.29006e-07
1.2903e-07
1.29046e-07
1.29057e-07
1.29075e-07
1.29088e-07
1.29107e-07
1.29118e-07
1.29131e-07
1.29145e-07
1.2916e-07
1.29166e-07
1.29173e-07
1.29186e-07
1.29193e-07
1.29193e-07
1.29213e-07
1.29227e-07
1.29229e-07
1.29246e-07
1.29258e-07
1.29291e-07
1.29301e-07
1.2933e-07
1.29348e-07
1.29373e-07
1.29387e-07
1.29402e-07
1.2942e-07
1.29436e-07
1.29457e-07
1.29469e-07
1.29481e-07
1.29492e-07
1.29514e-07
1.29532e-07
1.29545e-07
1.29567e-07
1.29583e-07
1.29607e-07
1.29622e-07
1.2965e-07
1.29667e-07
1.29702e-07
1.29725e-07
1.29768e-07
1.29796e-07
1.29851e-07
1.29881e-07
1.29974e-07
1.30008e-07
1.31681e-07
1.35998e-07
3.93678e-08
1.23797e-07
1.23258e-07
1.23431e-07
1.23895e-07
1.24418e-07
1.24902e-07
1.25337e-07
1.25713e-07
1.26047e-07
1.26335e-07
1.26594e-07
1.26817e-07
1.27021e-07
1.27198e-07
1.27362e-07
1.27504e-07
1.27638e-07
1.27753e-07
1.27863e-07
1.27959e-07
1.28052e-07
1.28131e-07
1.2821e-07
1.28277e-07
1.28344e-07
1.284e-07
1.28457e-07
1.28506e-07
1.28556e-07
1.28599e-07
1.28641e-07
1.28679e-07
1.28719e-07
1.28748e-07
1.2878e-07
1.28809e-07
1.28841e-07
1.28866e-07
1.28892e-07
1.28915e-07
1.28942e-07
1.28959e-07
1.28979e-07
1.29002e-07
1.29019e-07
1.2903e-07
1.29049e-07
1.29061e-07
1.29081e-07
1.29092e-07
1.29104e-07
1.29119e-07
1.29134e-07
1.2914e-07
1.29148e-07
1.29161e-07
1.29167e-07
1.29167e-07
1.29187e-07
1.29201e-07
1.29203e-07
1.2922e-07
1.29232e-07
1.29265e-07
1.29276e-07
1.29304e-07
1.29322e-07
1.29348e-07
1.29362e-07
1.29377e-07
1.29395e-07
1.2941e-07
1.29431e-07
1.29444e-07
1.29456e-07
1.29467e-07
1.29489e-07
1.29507e-07
1.29521e-07
1.29542e-07
1.29559e-07
1.29582e-07
1.29597e-07
1.29625e-07
1.29643e-07
1.29677e-07
1.297e-07
1.29744e-07
1.29771e-07
1.29825e-07
1.29855e-07
1.29949e-07
1.29982e-07
1.31725e-07
1.36021e-07
4.12384e-08
1.23799e-07
1.23251e-07
1.23413e-07
1.23869e-07
1.24386e-07
1.24868e-07
1.25301e-07
1.25677e-07
1.2601e-07
1.26298e-07
1.26557e-07
1.2678e-07
1.26985e-07
1.27162e-07
1.27326e-07
1.27468e-07
1.27603e-07
1.27718e-07
1.27829e-07
1.27925e-07
1.28018e-07
1.28098e-07
1.28176e-07
1.28244e-07
1.28311e-07
1.28368e-07
1.28425e-07
1.28475e-07
1.28524e-07
1.28567e-07
1.2861e-07
1.28648e-07
1.28688e-07
1.28718e-07
1.2875e-07
1.28779e-07
1.28811e-07
1.28836e-07
1.28862e-07
1.28886e-07
1.28913e-07
1.2893e-07
1.2895e-07
1.28973e-07
1.2899e-07
1.29001e-07
1.2902e-07
1.29033e-07
1.29052e-07
1.29064e-07
1.29076e-07
1.29091e-07
1.29106e-07
1.29113e-07
1.2912e-07
1.29133e-07
1.2914e-07
1.2914e-07
1.29159e-07
1.29173e-07
1.29176e-07
1.29193e-07
1.29205e-07
1.29238e-07
1.29249e-07
1.29277e-07
1.29295e-07
1.29321e-07
1.29335e-07
1.2935e-07
1.29368e-07
1.29384e-07
1.29405e-07
1.29417e-07
1.2943e-07
1.29441e-07
1.29463e-07
1.29481e-07
1.29495e-07
1.29516e-07
1.29533e-07
1.29556e-07
1.29571e-07
1.29599e-07
1.29617e-07
1.29651e-07
1.29674e-07
1.29717e-07
1.29745e-07
1.29799e-07
1.29828e-07
1.29922e-07
1.29955e-07
1.31771e-07
1.36044e-07
4.32028e-08
1.238e-07
1.23243e-07
1.23394e-07
1.23841e-07
1.24353e-07
1.24832e-07
1.25263e-07
1.25638e-07
1.25971e-07
1.26258e-07
1.26517e-07
1.26741e-07
1.26946e-07
1.27123e-07
1.27288e-07
1.2743e-07
1.27565e-07
1.27681e-07
1.27792e-07
1.27889e-07
1.27982e-07
1.28062e-07
1.28141e-07
1.28209e-07
1.28277e-07
1.28333e-07
1.28391e-07
1.28441e-07
1.28491e-07
1.28534e-07
1.28577e-07
1.28616e-07
1.28655e-07
1.28686e-07
1.28718e-07
1.28747e-07
1.2878e-07
1.28804e-07
1.28831e-07
1.28855e-07
1.28882e-07
1.28899e-07
1.28919e-07
1.28943e-07
1.2896e-07
1.28971e-07
1.2899e-07
1.29003e-07
1.29023e-07
1.29034e-07
1.29047e-07
1.29061e-07
1.29077e-07
1.29084e-07
1.29092e-07
1.29104e-07
1.29112e-07
1.29111e-07
1.2913e-07
1.29144e-07
1.29147e-07
1.29164e-07
1.29176e-07
1.29209e-07
1.2922e-07
1.29248e-07
1.29266e-07
1.29292e-07
1.29306e-07
1.29322e-07
1.29339e-07
1.29356e-07
1.29376e-07
1.29389e-07
1.29402e-07
1.29414e-07
1.29435e-07
1.29453e-07
1.29467e-07
1.29489e-07
1.29505e-07
1.29528e-07
1.29544e-07
1.29572e-07
1.29589e-07
1.29623e-07
1.29646e-07
1.29689e-07
1.29717e-07
1.2977e-07
1.298e-07
1.29893e-07
1.29927e-07
1.31819e-07
1.36067e-07
4.52643e-08
1.23802e-07
1.23236e-07
1.23374e-07
1.23812e-07
1.24318e-07
1.24794e-07
1.25223e-07
1.25597e-07
1.25929e-07
1.26217e-07
1.26476e-07
1.267e-07
1.26905e-07
1.27082e-07
1.27247e-07
1.2739e-07
1.27526e-07
1.27642e-07
1.27754e-07
1.2785e-07
1.27944e-07
1.28025e-07
1.28104e-07
1.28172e-07
1.2824e-07
1.28297e-07
1.28355e-07
1.28405e-07
1.28456e-07
1.28499e-07
1.28542e-07
1.28581e-07
1.28621e-07
1.28651e-07
1.28684e-07
1.28713e-07
1.28746e-07
1.28771e-07
1.28798e-07
1.28821e-07
1.28849e-07
1.28866e-07
1.28886e-07
1.2891e-07
1.28928e-07
1.28939e-07
1.28958e-07
1.28971e-07
1.28991e-07
1.29003e-07
1.29015e-07
1.2903e-07
1.29046e-07
1.29053e-07
1.29061e-07
1.29074e-07
1.29081e-07
1.29081e-07
1.29099e-07
1.29113e-07
1.29116e-07
1.29133e-07
1.29145e-07
1.29178e-07
1.29189e-07
1.29217e-07
1.29235e-07
1.29262e-07
1.29276e-07
1.29292e-07
1.29309e-07
1.29326e-07
1.29346e-07
1.29359e-07
1.29372e-07
1.29384e-07
1.29406e-07
1.29423e-07
1.29438e-07
1.29459e-07
1.29476e-07
1.29499e-07
1.29515e-07
1.29542e-07
1.2956e-07
1.29594e-07
1.29617e-07
1.2966e-07
1.29687e-07
1.29741e-07
1.2977e-07
1.29863e-07
1.29897e-07
1.31869e-07
1.3609e-07
4.74254e-08
1.23804e-07
1.23228e-07
1.23353e-07
1.23782e-07
1.24282e-07
1.24753e-07
1.25181e-07
1.25553e-07
1.25886e-07
1.26173e-07
1.26432e-07
1.26656e-07
1.26862e-07
1.27039e-07
1.27205e-07
1.27348e-07
1.27484e-07
1.27601e-07
1.27713e-07
1.2781e-07
1.27904e-07
1.27985e-07
1.28065e-07
1.28133e-07
1.28202e-07
1.28259e-07
1.28318e-07
1.28368e-07
1.28418e-07
1.28462e-07
1.28505e-07
1.28544e-07
1.28585e-07
1.28615e-07
1.28648e-07
1.28677e-07
1.28711e-07
1.28736e-07
1.28763e-07
1.28787e-07
1.28814e-07
1.28832e-07
1.28852e-07
1.28876e-07
1.28894e-07
1.28905e-07
1.28925e-07
1.28937e-07
1.28957e-07
1.2897e-07
1.28982e-07
1.28997e-07
1.29013e-07
1.2902e-07
1.29029e-07
1.29042e-07
1.29049e-07
1.29048e-07
1.29066e-07
1.29081e-07
1.29084e-07
1.29101e-07
1.29112e-07
1.29146e-07
1.29157e-07
1.29185e-07
1.29203e-07
1.2923e-07
1.29244e-07
1.2926e-07
1.29277e-07
1.29294e-07
1.29315e-07
1.29328e-07
1.29341e-07
1.29353e-07
1.29375e-07
1.29392e-07
1.29407e-07
1.29428e-07
1.29445e-07
1.29468e-07
1.29484e-07
1.29512e-07
1.29529e-07
1.29563e-07
1.29586e-07
1.29628e-07
1.29656e-07
1.29709e-07
1.29738e-07
1.29832e-07
1.29865e-07
1.31921e-07
1.36112e-07
4.96874e-08
1.23805e-07
1.2322e-07
1.23332e-07
1.2375e-07
1.24244e-07
1.24711e-07
1.25137e-07
1.25508e-07
1.2584e-07
1.26126e-07
1.26386e-07
1.2661e-07
1.26816e-07
1.26994e-07
1.2716e-07
1.27304e-07
1.2744e-07
1.27557e-07
1.2767e-07
1.27767e-07
1.27862e-07
1.27943e-07
1.28024e-07
1.28092e-07
1.28161e-07
1.28219e-07
1.28278e-07
1.28328e-07
1.28379e-07
1.28423e-07
1.28466e-07
1.28506e-07
1.28546e-07
1.28577e-07
1.28611e-07
1.2864e-07
1.28673e-07
1.28699e-07
1.28726e-07
1.2875e-07
1.28778e-07
1.28795e-07
1.28816e-07
1.2884e-07
1.28858e-07
1.2887e-07
1.28889e-07
1.28902e-07
1.28922e-07
1.28935e-07