/*--------------------------------*- C++ -*----------------------------------*\
| =========                 |                                                 |
| \\      /  F ield         | OpenFOAM: The Open Source CFD Toolbox           |
|  \\    /   O peration     | Version:  v2012                                 |
|   \\  /    A nd           | Website:  www.openfoam.com                      |
|    \\/     M anipulation  |                                                 |
\*---------------------------------------------------------------------------*/
FoamFile
{
    version     2.0;
    format      ascii;
    class       volVectorField;
    location    "22.5";
    object      wallShearStress;
}
// * * * * * * * * * * * * * * * * * * * * * * * * * * * * * * * * * * * * * //

dimensions      [0 2 -2 0 0 0 0];


internalField   uniform (0 0 0);

boundaryField
{
    inlet
    {
        type            calculated;
        value           uniform (0 0 0);
    }
    outlet
    {
        type            calculated;
        value           uniform (0 0 0);
    }
    topWall
    {
        type            calculated;
        value           nonuniform List<vector> 
545
(
(3.55534e-08 -2.50221e-08 0)
(3.55515e-08 -7.00223e-08 0)
(3.55243e-08 -1.16806e-07 0)
(3.54887e-08 -1.62227e-07 0)
(3.54483e-08 -2.05707e-07 0)
(3.54009e-08 -2.47805e-07 0)
(3.53471e-08 -2.88879e-07 0)
(3.52872e-08 -3.28909e-07 0)
(3.52216e-08 -3.67809e-07 0)
(3.51509e-08 -4.05576e-07 0)
(3.50756e-08 -4.42261e-07 0)
(3.49961e-08 -4.77905e-07 0)
(3.49129e-08 -5.12533e-07 0)
(3.48263e-08 -5.46166e-07 0)
(3.47367e-08 -5.78827e-07 0)
(3.46444e-08 -6.10544e-07 0)
(3.45498e-08 -6.41341e-07 0)
(3.44532e-08 -6.71242e-07 0)
(3.43548e-08 -7.00273e-07 0)
(3.4255e-08 -7.28457e-07 0)
(3.41539e-08 -7.55817e-07 0)
(3.40518e-08 -7.82377e-07 0)
(3.39489e-08 -8.08158e-07 0)
(3.38455e-08 -8.33183e-07 0)
(3.37416e-08 -8.57474e-07 0)
(3.36375e-08 -8.81051e-07 0)
(3.35334e-08 -9.03936e-07 0)
(3.34293e-08 -9.26148e-07 0)
(3.33255e-08 -9.47707e-07 0)
(3.3222e-08 -9.68632e-07 0)
(3.3119e-08 -9.88943e-07 0)
(3.30165e-08 -1.00866e-06 0)
(3.29147e-08 -1.02779e-06 0)
(3.28136e-08 -1.04636e-06 0)
(3.27134e-08 -1.06439e-06 0)
(3.26141e-08 -1.08189e-06 0)
(3.25158e-08 -1.09887e-06 0)
(3.24185e-08 -1.11536e-06 0)
(3.23223e-08 -1.13137e-06 0)
(3.22273e-08 -1.14691e-06 0)
(3.21334e-08 -1.16199e-06 0)
(3.20407e-08 -1.17663e-06 0)
(3.19493e-08 -1.19085e-06 0)
(3.18592e-08 -1.20465e-06 0)
(3.17704e-08 -1.21805e-06 0)
(3.16829e-08 -1.23106e-06 0)
(3.15967e-08 -1.24369e-06 0)
(3.15119e-08 -1.25596e-06 0)
(3.14284e-08 -1.26787e-06 0)
(3.13464e-08 -1.27944e-06 0)
(3.12657e-08 -1.29067e-06 0)
(3.11863e-08 -1.30158e-06 0)
(3.11084e-08 -1.31217e-06 0)
(3.10318e-08 -1.32246e-06 0)
(3.09566e-08 -1.33246e-06 0)
(3.08828e-08 -1.34216e-06 0)
(3.08103e-08 -1.35159e-06 0)
(3.07391e-08 -1.36075e-06 0)
(3.06693e-08 -1.36965e-06 0)
(3.06008e-08 -1.37829e-06 0)
(3.05337e-08 -1.38668e-06 0)
(3.04678e-08 -1.39484e-06 0)
(3.04032e-08 -1.40276e-06 0)
(3.03399e-08 -1.41046e-06 0)
(3.02778e-08 -1.41794e-06 0)
(3.0217e-08 -1.42521e-06 0)
(3.01573e-08 -1.43228e-06 0)
(3.00989e-08 -1.43914e-06 0)
(3.00416e-08 -1.44581e-06 0)
(2.99855e-08 -1.45229e-06 0)
(2.99307e-08 -1.45859e-06 0)
(2.9876e-08 -1.4647e-06 0)
(2.98232e-08 -1.47058e-06 0)
(2.97736e-08 -1.47629e-06 0)
(2.97243e-08 -1.48193e-06 0)
(2.9675e-08 -1.48755e-06 0)
(2.96259e-08 -1.49313e-06 0)
(2.95767e-08 -1.49869e-06 0)
(2.95276e-08 -1.50421e-06 0)
(2.94786e-08 -1.50969e-06 0)
(2.94296e-08 -1.51514e-06 0)
(2.93807e-08 -1.52055e-06 0)
(2.93318e-08 -1.52593e-06 0)
(2.92829e-08 -1.53128e-06 0)
(2.92341e-08 -1.53659e-06 0)
(2.91853e-08 -1.54187e-06 0)
(2.91367e-08 -1.54712e-06 0)
(2.9088e-08 -1.55234e-06 0)
(2.90394e-08 -1.55752e-06 0)
(2.89909e-08 -1.56267e-06 0)
(2.89425e-08 -1.56779e-06 0)
(2.8894e-08 -1.57287e-06 0)
(2.88458e-08 -1.57793e-06 0)
(2.87971e-08 -1.58294e-06 0)
(2.87508e-08 -1.58796e-06 0)
(2.86953e-08 -1.59287e-06 0)
(2.86397e-08 -1.59734e-06 0)
(2.85983e-08 -1.60145e-06 0)
(2.8559e-08 -1.60543e-06 0)
(2.85198e-08 -1.60939e-06 0)
(2.84806e-08 -1.61341e-06 0)
(2.84412e-08 -1.61744e-06 0)
(2.84016e-08 -1.62147e-06 0)
(2.83618e-08 -1.6255e-06 0)
(2.83219e-08 -1.62953e-06 0)
(2.82817e-08 -1.63357e-06 0)
(2.82414e-08 -1.63761e-06 0)
(2.82008e-08 -1.64165e-06 0)
(2.81601e-08 -1.6457e-06 0)
(2.81192e-08 -1.64975e-06 0)
(2.80781e-08 -1.65381e-06 0)
(2.80368e-08 -1.65787e-06 0)
(2.79953e-08 -1.66193e-06 0)
(2.79536e-08 -1.66599e-06 0)
(2.79117e-08 -1.67006e-06 0)
(2.78696e-08 -1.67414e-06 0)
(2.78274e-08 -1.67821e-06 0)
(2.77849e-08 -1.68229e-06 0)
(2.77423e-08 -1.68638e-06 0)
(2.76994e-08 -1.69046e-06 0)
(2.76563e-08 -1.69455e-06 0)
(2.76131e-08 -1.69864e-06 0)
(2.75696e-08 -1.70274e-06 0)
(2.7526e-08 -1.70684e-06 0)
(2.74821e-08 -1.71094e-06 0)
(2.74381e-08 -1.71505e-06 0)
(2.73938e-08 -1.71916e-06 0)
(2.73494e-08 -1.72327e-06 0)
(2.73047e-08 -1.72738e-06 0)
(2.72599e-08 -1.7315e-06 0)
(2.72148e-08 -1.73562e-06 0)
(2.71696e-08 -1.73974e-06 0)
(2.71241e-08 -1.74387e-06 0)
(2.70784e-08 -1.748e-06 0)
(2.70326e-08 -1.75213e-06 0)
(2.69865e-08 -1.75627e-06 0)
(2.69402e-08 -1.7604e-06 0)
(2.68937e-08 -1.76454e-06 0)
(2.6847e-08 -1.76868e-06 0)
(2.68001e-08 -1.77283e-06 0)
(2.6753e-08 -1.77698e-06 0)
(2.67057e-08 -1.78113e-06 0)
(2.66582e-08 -1.78528e-06 0)
(2.66104e-08 -1.78943e-06 0)
(2.65625e-08 -1.79359e-06 0)
(2.65143e-08 -1.79775e-06 0)
(2.6466e-08 -1.80191e-06 0)
(2.64174e-08 -1.80607e-06 0)
(2.63686e-08 -1.81024e-06 0)
(2.63196e-08 -1.81441e-06 0)
(2.62704e-08 -1.81858e-06 0)
(2.6221e-08 -1.82275e-06 0)
(2.61713e-08 -1.82692e-06 0)
(2.61215e-08 -1.8311e-06 0)
(2.60714e-08 -1.83528e-06 0)
(2.60212e-08 -1.83946e-06 0)
(2.59707e-08 -1.84364e-06 0)
(2.592e-08 -1.84782e-06 0)
(2.5869e-08 -1.852e-06 0)
(2.58179e-08 -1.85619e-06 0)
(2.57665e-08 -1.86038e-06 0)
(2.5715e-08 -1.86457e-06 0)
(2.56632e-08 -1.86876e-06 0)
(2.56112e-08 -1.87295e-06 0)
(2.5559e-08 -1.87714e-06 0)
(2.55065e-08 -1.88134e-06 0)
(2.54539e-08 -1.88553e-06 0)
(2.5401e-08 -1.88973e-06 0)
(2.53479e-08 -1.89393e-06 0)
(2.52946e-08 -1.89813e-06 0)
(2.5241e-08 -1.90233e-06 0)
(2.51873e-08 -1.90653e-06 0)
(2.51333e-08 -1.91073e-06 0)
(2.50791e-08 -1.91493e-06 0)
(2.50247e-08 -1.91914e-06 0)
(2.49701e-08 -1.92334e-06 0)
(2.49152e-08 -1.92755e-06 0)
(2.48601e-08 -1.93175e-06 0)
(2.48048e-08 -1.93596e-06 0)
(2.47493e-08 -1.94017e-06 0)
(2.46936e-08 -1.94437e-06 0)
(2.46376e-08 -1.94858e-06 0)
(2.45814e-08 -1.95279e-06 0)
(2.4525e-08 -1.957e-06 0)
(2.44684e-08 -1.96121e-06 0)
(2.44115e-08 -1.96541e-06 0)
(2.43545e-08 -1.96962e-06 0)
(2.42972e-08 -1.97383e-06 0)
(2.42396e-08 -1.97804e-06 0)
(2.41819e-08 -1.98225e-06 0)
(2.41239e-08 -1.98646e-06 0)
(2.40657e-08 -1.99067e-06 0)
(2.40073e-08 -1.99487e-06 0)
(2.39486e-08 -1.99908e-06 0)
(2.38898e-08 -2.00329e-06 0)
(2.38307e-08 -2.0075e-06 0)
(2.37714e-08 -2.0117e-06 0)
(2.37118e-08 -2.01591e-06 0)
(2.3652e-08 -2.02011e-06 0)
(2.35921e-08 -2.02432e-06 0)
(2.35318e-08 -2.02852e-06 0)
(2.34714e-08 -2.03272e-06 0)
(2.34107e-08 -2.03692e-06 0)
(2.33498e-08 -2.04113e-06 0)
(2.32887e-08 -2.04532e-06 0)
(2.32274e-08 -2.04952e-06 0)
(2.31658e-08 -2.05372e-06 0)
(2.3104e-08 -2.05792e-06 0)
(2.3042e-08 -2.06211e-06 0)
(2.29798e-08 -2.0663e-06 0)
(2.29173e-08 -2.07049e-06 0)
(2.28546e-08 -2.07468e-06 0)
(2.27917e-08 -2.07887e-06 0)
(2.27286e-08 -2.08306e-06 0)
(2.26652e-08 -2.08724e-06 0)
(2.26017e-08 -2.09143e-06 0)
(2.25378e-08 -2.09561e-06 0)
(2.24738e-08 -2.09979e-06 0)
(2.24096e-08 -2.10396e-06 0)
(2.23451e-08 -2.10814e-06 0)
(2.22804e-08 -2.11231e-06 0)
(2.22155e-08 -2.11648e-06 0)
(2.21503e-08 -2.12065e-06 0)
(2.2085e-08 -2.12481e-06 0)
(2.20194e-08 -2.12898e-06 0)
(2.19536e-08 -2.13314e-06 0)
(2.18875e-08 -2.13729e-06 0)
(2.18213e-08 -2.14145e-06 0)
(2.17548e-08 -2.1456e-06 0)
(2.16881e-08 -2.14975e-06 0)
(2.16212e-08 -2.15389e-06 0)
(2.15541e-08 -2.15804e-06 0)
(2.14867e-08 -2.16218e-06 0)
(2.14192e-08 -2.16631e-06 0)
(2.13514e-08 -2.17045e-06 0)
(2.12834e-08 -2.17458e-06 0)
(2.12151e-08 -2.1787e-06 0)
(2.11467e-08 -2.18282e-06 0)
(2.1078e-08 -2.18694e-06 0)
(2.10092e-08 -2.19106e-06 0)
(2.09401e-08 -2.19517e-06 0)
(2.08708e-08 -2.19928e-06 0)
(2.08013e-08 -2.20338e-06 0)
(2.07315e-08 -2.20748e-06 0)
(2.06616e-08 -2.21157e-06 0)
(2.05914e-08 -2.21567e-06 0)
(2.0521e-08 -2.21975e-06 0)
(2.04505e-08 -2.22383e-06 0)
(2.03797e-08 -2.22791e-06 0)
(2.03087e-08 -2.23198e-06 0)
(2.02374e-08 -2.23605e-06 0)
(2.0166e-08 -2.24012e-06 0)
(2.00944e-08 -2.24418e-06 0)
(2.00225e-08 -2.24823e-06 0)
(1.99505e-08 -2.25228e-06 0)
(1.98782e-08 -2.25632e-06 0)
(1.98058e-08 -2.26036e-06 0)
(1.97331e-08 -2.26439e-06 0)
(1.96602e-08 -2.26842e-06 0)
(1.95872e-08 -2.27244e-06 0)
(1.95139e-08 -2.27646e-06 0)
(1.94404e-08 -2.28047e-06 0)
(1.93667e-08 -2.28448e-06 0)
(1.92928e-08 -2.28848e-06 0)
(1.92187e-08 -2.29247e-06 0)
(1.91446e-08 -2.29646e-06 0)
(1.90699e-08 -2.30043e-06 0)
(1.89971e-08 -2.30443e-06 0)
(1.89187e-08 -2.30836e-06 0)
(1.8837e-08 -2.31208e-06 0)
(1.87658e-08 -2.31569e-06 0)
(1.86995e-08 -2.31923e-06 0)
(1.8632e-08 -2.32278e-06 0)
(1.8564e-08 -2.32638e-06 0)
(1.84952e-08 -2.33002e-06 0)
(1.84257e-08 -2.33368e-06 0)
(1.83553e-08 -2.33736e-06 0)
(1.82841e-08 -2.34107e-06 0)
(1.82121e-08 -2.3448e-06 0)
(1.81393e-08 -2.34856e-06 0)
(1.80657e-08 -2.35235e-06 0)
(1.79912e-08 -2.35616e-06 0)
(1.79159e-08 -2.35999e-06 0)
(1.78398e-08 -2.36385e-06 0)
(1.77628e-08 -2.36774e-06 0)
(1.7685e-08 -2.37165e-06 0)
(1.76063e-08 -2.37559e-06 0)
(1.75267e-08 -2.37955e-06 0)
(1.74462e-08 -2.38354e-06 0)
(1.73649e-08 -2.38755e-06 0)
(1.72826e-08 -2.39158e-06 0)
(1.71995e-08 -2.39564e-06 0)
(1.71155e-08 -2.39973e-06 0)
(1.70305e-08 -2.40384e-06 0)
(1.69447e-08 -2.40797e-06 0)
(1.68579e-08 -2.41212e-06 0)
(1.67702e-08 -2.4163e-06 0)
(1.66815e-08 -2.4205e-06 0)
(1.65919e-08 -2.42473e-06 0)
(1.65013e-08 -2.42898e-06 0)
(1.64098e-08 -2.43325e-06 0)
(1.63173e-08 -2.43754e-06 0)
(1.62239e-08 -2.44186e-06 0)
(1.61295e-08 -2.44619e-06 0)
(1.60341e-08 -2.45055e-06 0)
(1.59377e-08 -2.45493e-06 0)
(1.58403e-08 -2.45933e-06 0)
(1.57419e-08 -2.46375e-06 0)
(1.56425e-08 -2.46819e-06 0)
(1.55421e-08 -2.47265e-06 0)
(1.54406e-08 -2.47713e-06 0)
(1.53382e-08 -2.48163e-06 0)
(1.52347e-08 -2.48614e-06 0)
(1.51302e-08 -2.49068e-06 0)
(1.50246e-08 -2.49523e-06 0)
(1.4918e-08 -2.4998e-06 0)
(1.48104e-08 -2.50438e-06 0)
(1.47017e-08 -2.50898e-06 0)
(1.45919e-08 -2.5136e-06 0)
(1.44811e-08 -2.51823e-06 0)
(1.43693e-08 -2.52288e-06 0)
(1.42563e-08 -2.52754e-06 0)
(1.41424e-08 -2.53221e-06 0)
(1.40273e-08 -2.5369e-06 0)
(1.39112e-08 -2.5416e-06 0)
(1.37939e-08 -2.54631e-06 0)
(1.36757e-08 -2.55103e-06 0)
(1.35563e-08 -2.55576e-06 0)
(1.34359e-08 -2.56049e-06 0)
(1.33143e-08 -2.56524e-06 0)
(1.31917e-08 -2.57e-06 0)
(1.30681e-08 -2.57476e-06 0)
(1.29433e-08 -2.57953e-06 0)
(1.28175e-08 -2.5843e-06 0)
(1.26906e-08 -2.58908e-06 0)
(1.25626e-08 -2.59386e-06 0)
(1.24335e-08 -2.59865e-06 0)
(1.23034e-08 -2.60343e-06 0)
(1.21722e-08 -2.60822e-06 0)
(1.20399e-08 -2.61301e-06 0)
(1.19066e-08 -2.6178e-06 0)
(1.17723e-08 -2.62258e-06 0)
(1.16368e-08 -2.62736e-06 0)
(1.15004e-08 -2.63214e-06 0)
(1.13629e-08 -2.63691e-06 0)
(1.12243e-08 -2.64167e-06 0)
(1.10848e-08 -2.64643e-06 0)
(1.09442e-08 -2.65118e-06 0)
(1.08026e-08 -2.65591e-06 0)
(1.06601e-08 -2.66064e-06 0)
(1.05165e-08 -2.66536e-06 0)
(1.03719e-08 -2.67006e-06 0)
(1.02264e-08 -2.67474e-06 0)
(1.008e-08 -2.67941e-06 0)
(9.93259e-09 -2.68406e-06 0)
(9.78426e-09 -2.6887e-06 0)
(9.63502e-09 -2.69331e-06 0)
(9.48489e-09 -2.6979e-06 0)
(9.33387e-09 -2.70247e-06 0)
(9.18199e-09 -2.70701e-06 0)
(9.02926e-09 -2.71152e-06 0)
(8.8757e-09 -2.71601e-06 0)
(8.72133e-09 -2.72047e-06 0)
(8.56617e-09 -2.7249e-06 0)
(8.41024e-09 -2.72929e-06 0)
(8.25356e-09 -2.73365e-06 0)
(8.09616e-09 -2.73798e-06 0)
(7.93806e-09 -2.74227e-06 0)
(7.77928e-09 -2.74651e-06 0)
(7.61985e-09 -2.75072e-06 0)
(7.4598e-09 -2.75489e-06 0)
(7.29915e-09 -2.75901e-06 0)
(7.13792e-09 -2.76308e-06 0)
(6.97616e-09 -2.7671e-06 0)
(6.81389e-09 -2.77108e-06 0)
(6.65114e-09 -2.775e-06 0)
(6.48795e-09 -2.77887e-06 0)
(6.32434e-09 -2.78269e-06 0)
(6.16035e-09 -2.78645e-06 0)
(5.99602e-09 -2.79014e-06 0)
(5.83138e-09 -2.79378e-06 0)
(5.66646e-09 -2.79735e-06 0)
(5.50132e-09 -2.80086e-06 0)
(5.33598e-09 -2.8043e-06 0)
(5.17049e-09 -2.80768e-06 0)
(5.00489e-09 -2.81098e-06 0)
(4.83921e-09 -2.81421e-06 0)
(4.67351e-09 -2.81736e-06 0)
(4.50782e-09 -2.82043e-06 0)
(4.34219e-09 -2.82343e-06 0)
(4.17666e-09 -2.82634e-06 0)
(4.01129e-09 -2.82918e-06 0)
(3.84612e-09 -2.83192e-06 0)
(3.68119e-09 -2.83458e-06 0)
(3.51656e-09 -2.83715e-06 0)
(3.35227e-09 -2.83963e-06 0)
(3.18838e-09 -2.84202e-06 0)
(3.02493e-09 -2.84431e-06 0)
(2.86199e-09 -2.8465e-06 0)
(2.69959e-09 -2.84859e-06 0)
(2.5378e-09 -2.85058e-06 0)
(2.37667e-09 -2.85247e-06 0)
(2.21625e-09 -2.85426e-06 0)
(2.0566e-09 -2.85593e-06 0)
(1.89778e-09 -2.8575e-06 0)
(1.73984e-09 -2.85895e-06 0)
(1.58283e-09 -2.8603e-06 0)
(1.42682e-09 -2.86153e-06 0)
(1.27186e-09 -2.86264e-06 0)
(1.11802e-09 -2.86363e-06 0)
(9.65344e-10 -2.86451e-06 0)
(8.13902e-10 -2.86526e-06 0)
(6.63751e-10 -2.86589e-06 0)
(5.1495e-10 -2.86639e-06 0)
(3.6756e-10 -2.86677e-06 0)
(2.21642e-10 -2.86702e-06 0)
(7.72558e-11 -2.86714e-06 0)
(-6.55386e-11 -2.86713e-06 0)
(-2.06681e-10 -2.86699e-06 0)
(-3.46111e-10 -2.86671e-06 0)
(-4.8377e-10 -2.8663e-06 0)
(-6.19599e-10 -2.86576e-06 0)
(-7.53541e-10 -2.86508e-06 0)
(-8.85537e-10 -2.86425e-06 0)
(-1.01553e-09 -2.86329e-06 0)
(-1.14347e-09 -2.8622e-06 0)
(-1.2693e-09 -2.86096e-06 0)
(-1.39297e-09 -2.85957e-06 0)
(-1.51442e-09 -2.85805e-06 0)
(-1.63361e-09 -2.85639e-06 0)
(-1.75049e-09 -2.85458e-06 0)
(-1.86501e-09 -2.85263e-06 0)
(-1.97713e-09 -2.85053e-06 0)
(-2.08681e-09 -2.84829e-06 0)
(-2.194e-09 -2.84591e-06 0)
(-2.29865e-09 -2.84338e-06 0)
(-2.40075e-09 -2.84071e-06 0)
(-2.50023e-09 -2.83789e-06 0)
(-2.59708e-09 -2.83493e-06 0)
(-2.69124e-09 -2.83183e-06 0)
(-2.7827e-09 -2.82858e-06 0)
(-2.8714e-09 -2.82519e-06 0)
(-2.95733e-09 -2.82166e-06 0)
(-3.04043e-09 -2.81799e-06 0)
(-3.12069e-09 -2.81417e-06 0)
(-3.19803e-09 -2.81022e-06 0)
(-3.27249e-09 -2.80613e-06 0)
(-3.34386e-09 -2.80192e-06 0)
(-3.41315e-09 -2.7975e-06 0)
(-3.47763e-09 -2.79302e-06 0)
(-3.54113e-09 -2.78796e-06 0)
(-3.60947e-09 -2.78209e-06 0)
(-3.67631e-09 -2.77616e-06 0)
(-3.73792e-09 -2.77018e-06 0)
(-3.79484e-09 -2.76407e-06 0)
(-3.84706e-09 -2.75786e-06 0)
(-3.89471e-09 -2.75158e-06 0)
(-3.93791e-09 -2.74523e-06 0)
(-3.9768e-09 -2.73881e-06 0)
(-4.01152e-09 -2.73233e-06 0)
(-4.04221e-09 -2.7258e-06 0)
(-4.06901e-09 -2.71922e-06 0)
(-4.09206e-09 -2.7126e-06 0)
(-4.11147e-09 -2.70595e-06 0)
(-4.12739e-09 -2.69927e-06 0)
(-4.13994e-09 -2.69257e-06 0)
(-4.14924e-09 -2.68585e-06 0)
(-4.15541e-09 -2.67912e-06 0)
(-4.15856e-09 -2.67238e-06 0)
(-4.15879e-09 -2.66564e-06 0)
(-4.15622e-09 -2.6589e-06 0)
(-4.15094e-09 -2.65216e-06 0)
(-4.14304e-09 -2.64544e-06 0)
(-4.13263e-09 -2.63873e-06 0)
(-4.11978e-09 -2.63204e-06 0)
(-4.10458e-09 -2.62538e-06 0)
(-4.08712e-09 -2.61874e-06 0)
(-4.06746e-09 -2.61213e-06 0)
(-4.04569e-09 -2.60555e-06 0)
(-4.02188e-09 -2.59902e-06 0)
(-3.99609e-09 -2.59252e-06 0)
(-3.96838e-09 -2.58606e-06 0)
(-3.93883e-09 -2.57965e-06 0)
(-3.9075e-09 -2.5733e-06 0)
(-3.87443e-09 -2.56699e-06 0)
(-3.8397e-09 -2.56074e-06 0)
(-3.80334e-09 -2.55455e-06 0)
(-3.76542e-09 -2.54841e-06 0)
(-3.72598e-09 -2.54234e-06 0)
(-3.68508e-09 -2.53634e-06 0)
(-3.64274e-09 -2.5304e-06 0)
(-3.59904e-09 -2.52453e-06 0)
(-3.55399e-09 -2.51873e-06 0)
(-3.50765e-09 -2.51301e-06 0)
(-3.46005e-09 -2.50736e-06 0)
(-3.41123e-09 -2.5018e-06 0)
(-3.36123e-09 -2.49631e-06 0)
(-3.31008e-09 -2.4909e-06 0)
(-3.25782e-09 -2.48558e-06 0)
(-3.20447e-09 -2.48035e-06 0)
(-3.15006e-09 -2.4752e-06 0)
(-3.09463e-09 -2.47014e-06 0)
(-3.03819e-09 -2.46517e-06 0)
(-2.98079e-09 -2.46029e-06 0)
(-2.92244e-09 -2.4555e-06 0)
(-2.86317e-09 -2.45082e-06 0)
(-2.80301e-09 -2.44622e-06 0)
(-2.74197e-09 -2.44173e-06 0)
(-2.68008e-09 -2.43734e-06 0)
(-2.61736e-09 -2.43304e-06 0)
(-2.55384e-09 -2.42885e-06 0)
(-2.48953e-09 -2.42477e-06 0)
(-2.42446e-09 -2.42078e-06 0)
(-2.35865e-09 -2.41691e-06 0)
(-2.29212e-09 -2.41314e-06 0)
(-2.22489e-09 -2.40948e-06 0)
(-2.15698e-09 -2.40592e-06 0)
(-2.08841e-09 -2.40248e-06 0)
(-2.01921e-09 -2.39915e-06 0)
(-1.94938e-09 -2.39593e-06 0)
(-1.87896e-09 -2.39283e-06 0)
(-1.80796e-09 -2.38984e-06 0)
(-1.73641e-09 -2.38696e-06 0)
(-1.66431e-09 -2.38421e-06 0)
(-1.5917e-09 -2.38156e-06 0)
(-1.51858e-09 -2.37904e-06 0)
(-1.44498e-09 -2.37664e-06 0)
(-1.37091e-09 -2.37435e-06 0)
(-1.29639e-09 -2.37219e-06 0)
(-1.22144e-09 -2.37014e-06 0)
(-1.14606e-09 -2.36822e-06 0)
(-1.07029e-09 -2.36642e-06 0)
(-9.94141e-10 -2.36474e-06 0)
(-9.17642e-10 -2.36319e-06 0)
(-8.4083e-10 -2.36175e-06 0)
(-7.63767e-10 -2.36047e-06 0)
(-6.86526e-10 -2.35923e-06 0)
(-6.09246e-10 -2.35835e-06 0)
(-5.32004e-10 -2.35687e-06 0)
(-4.55214e-10 -2.35785e-06 0)
(-3.781e-10 -2.35105e-06 0)
(-3.03513e-10 -2.36962e-06 0)
(-2.20064e-10 -2.29827e-06 0)
(-1.67012e-10 -2.48671e-06 0)
(-8.08762e-11 -2.17171e-06 0)
)
;
    }
    bottomWall
    {
        type            calculated;
        value           nonuniform List<vector> 
449
(
(-48.5461 -0.964284 0)
(-19.7599 -0.00515568 0)
(-14.3552 -0.00113343 0)
(-12.0519 -0.000542842 0)
(-10.6574 -0.000346429 0)
(-9.68654 -0.000245767 0)
(-8.97537 -0.000176119 0)
(-8.47843 -0.000108982 0)
(-8.22663 -2.11471e-05 0)
(-8.33528 0.00015229 0)
(-9.28466 0.000317008 0)
(-10.5321 0.000308235 0)
(-11.4201 0.000199992 0)
(-11.9206 0.000110262 0)
(-12.1879 5.81626e-05 0)
(-12.3268 2.8223e-05 0)
(-12.3854 8.81975e-06 0)
(-12.3885 -4.43444e-06 0)
(-12.3541 -1.28595e-05 0)
(-12.2977 -1.80629e-05 0)
(-12.2263 -2.12843e-05 0)
(-12.1468 -2.28838e-05 0)
(-12.0636 -2.35007e-05 0)
(-11.9794 -2.35192e-05 0)
(-11.8957 -2.31835e-05 0)
(-11.8135 -2.26615e-05 0)
(-11.7331 -2.20233e-05 0)
(-11.6551 -2.12983e-05 0)
(-11.5796 -2.05417e-05 0)
(-11.5067 -1.97813e-05 0)
(-11.4364 -1.9034e-05 0)
(-11.3686 -1.83079e-05 0)
(-11.3032 -1.76095e-05 0)
(-11.2402 -1.69371e-05 0)
(-11.1794 -1.63069e-05 0)
(-11.1207 -1.5718e-05 0)
(-11.064 -1.51494e-05 0)
(-11.0092 -1.46025e-05 0)
(-10.9562 -1.40852e-05 0)
(-10.905 -1.35979e-05 0)
(-10.8554 -1.31384e-05 0)
(-10.8074 -1.2706e-05 0)
(-10.7608 -1.2299e-05 0)
(-10.7155 -1.19187e-05 0)
(-10.6716 -1.15611e-05 0)
(-10.6288 -1.12182e-05 0)
(-10.5872 -1.09053e-05 0)
(-10.5466 -1.06462e-05 0)
(-10.5067 -1.04316e-05 0)
(-10.4675 -1.02281e-05 0)
(-10.429 -1.00229e-05 0)
(-10.3912 -9.81899e-06 0)
(-10.3541 -9.61638e-06 0)
(-10.3176 -9.41817e-06 0)
(-10.2819 -9.2255e-06 0)
(-10.2467 -9.03807e-06 0)
(-10.2122 -8.85585e-06 0)
(-10.1783 -8.67943e-06 0)
(-10.145 -8.5079e-06 0)
(-10.1123 -8.34247e-06 0)
(-10.0801 -8.18149e-06 0)
(-10.0485 -8.02608e-06 0)
(-10.0174 -7.87422e-06 0)
(-9.9868 -7.7265e-06 0)
(-9.95671 -7.58385e-06 0)
(-9.9271 -7.447e-06 0)
(-9.89795 -7.31804e-06 0)
(-9.86922 -7.19531e-06 0)
(-9.84091 -7.0725e-06 0)
(-9.81302 -6.94852e-06 0)
(-9.78556 -6.82702e-06 0)
(-9.75851 -6.70936e-06 0)
(-9.73187 -6.5951e-06 0)
(-9.70561 -6.48377e-06 0)
(-9.67973 -6.37609e-06 0)
(-9.65422 -6.27122e-06 0)
(-9.62907 -6.16958e-06 0)
(-9.60426 -6.07022e-06 0)
(-9.5798 -5.97379e-06 0)
(-9.55566 -5.8791e-06 0)
(-9.53185 -5.78679e-06 0)
(-9.50835 -5.69643e-06 0)
(-9.48518 -5.60838e-06 0)
(-9.46229 -5.5224e-06 0)
(-9.43972 -5.43852e-06 0)
(-9.41742 -5.35674e-06 0)
(-9.39541 -5.27626e-06 0)
(-9.37367 -5.19849e-06 0)
(-9.35221 -5.12189e-06 0)
(-9.33101 -5.04769e-06 0)
(-9.31007 -4.97482e-06 0)
(-9.28938 -4.90344e-06 0)
(-9.26894 -4.8352e-06 0)
(-9.24872 -4.76861e-06 0)
(-9.22875 -4.70507e-06 0)
(-9.20897 -4.64197e-06 0)
(-9.18944 -4.57737e-06 0)
(-9.17012 -4.51481e-06 0)
(-9.15103 -4.45293e-06 0)
(-9.13215 -4.39201e-06 0)
(-9.11349 -4.3335e-06 0)
(-9.09503 -4.2754e-06 0)
(-9.07678 -4.21831e-06 0)
(-9.05872 -4.16337e-06 0)
(-9.04085 -4.1082e-06 0)
(-9.02319 -4.05494e-06 0)
(-9.0057 -4.0027e-06 0)
(-8.98841 -3.95083e-06 0)
(-8.97129 -3.90049e-06 0)
(-8.95436 -3.85148e-06 0)
(-8.93759 -3.80222e-06 0)
(-8.92101 -3.75498e-06 0)
(-8.90458 -3.70851e-06 0)
(-8.88833 -3.66231e-06 0)
(-8.87223 -3.6173e-06 0)
(-8.85631 -3.57369e-06 0)
(-8.84052 -3.52986e-06 0)
(-8.82491 -3.4872e-06 0)
(-8.80943 -3.44593e-06 0)
(-8.79411 -3.40467e-06 0)
(-8.77893 -3.36381e-06 0)
(-8.76391 -3.32492e-06 0)
(-8.74901 -3.28592e-06 0)
(-8.73427 -3.24704e-06 0)
(-8.71964 -3.20983e-06 0)
(-8.70517 -3.17339e-06 0)
(-8.69081 -3.13645e-06 0)
(-8.67661 -3.10089e-06 0)
(-8.66251 -3.06637e-06 0)
(-8.64856 -3.03164e-06 0)
(-8.63471 -2.99711e-06 0)
(-8.62101 -2.96445e-06 0)
(-8.6074 -2.93205e-06 0)
(-8.59393 -2.89966e-06 0)
(-8.58055 -2.86854e-06 0)
(-8.56731 -2.83895e-06 0)
(-8.55415 -2.80907e-06 0)
(-8.54112 -2.77836e-06 0)
(-8.52819 -2.74878e-06 0)
(-8.51538 -2.71946e-06 0)
(-8.50266 -2.69017e-06 0)
(-8.49006 -2.66114e-06 0)
(-8.47755 -2.63364e-06 0)
(-8.46516 -2.60593e-06 0)
(-8.45286 -2.57826e-06 0)
(-8.44067 -2.5511e-06 0)
(-8.42857 -2.52519e-06 0)
(-8.41657 -2.49894e-06 0)
(-8.40466 -2.47273e-06 0)
(-8.39286 -2.44724e-06 0)
(-8.38114 -2.4228e-06 0)
(-8.36952 -2.39789e-06 0)
(-8.35799 -2.37317e-06 0)
(-8.34655 -2.34906e-06 0)
(-8.3352 -2.32597e-06 0)
(-8.32394 -2.30239e-06 0)
(-8.31276 -2.27906e-06 0)
(-8.30167 -2.25623e-06 0)
(-8.29066 -2.23453e-06 0)
(-8.27973 -2.21243e-06 0)
(-8.26889 -2.19072e-06 0)
(-8.25813 -2.16927e-06 0)
(-8.24745 -2.14889e-06 0)
(-8.23683 -2.12845e-06 0)
(-8.22631 -2.1079e-06 0)
(-8.21585 -2.08761e-06 0)
(-8.20548 -2.06807e-06 0)
(-8.19516 -2.04882e-06 0)
(-8.18494 -2.02936e-06 0)
(-8.17477 -2.00974e-06 0)
(-8.16469 -1.99148e-06 0)
(-8.15466 -1.973e-06 0)
(-8.14473 -1.95208e-06 0)
(-8.13541 -1.93732e-06 0)
(-8.12664 -1.9258e-06 0)
(-8.11783 -1.90961e-06 0)
(-8.10901 -1.8937e-06 0)
(-8.10015 -1.87807e-06 0)
(-8.09129 -1.86164e-06 0)
(-8.0824 -1.84554e-06 0)
(-8.0735 -1.82961e-06 0)
(-8.06458 -1.81385e-06 0)
(-8.05564 -1.79771e-06 0)
(-8.04668 -1.7814e-06 0)
(-8.03771 -1.76554e-06 0)
(-8.02872 -1.74985e-06 0)
(-8.01971 -1.73427e-06 0)
(-8.01069 -1.71829e-06 0)
(-8.00166 -1.70211e-06 0)
(-7.99261 -1.68647e-06 0)
(-7.98355 -1.67104e-06 0)
(-7.97447 -1.65561e-06 0)
(-7.96538 -1.63996e-06 0)
(-7.95628 -1.62452e-06 0)
(-7.94717 -1.6093e-06 0)
(-7.93804 -1.5945e-06 0)
(-7.9289 -1.57925e-06 0)
(-7.91975 -1.56393e-06 0)
(-7.91059 -1.54875e-06 0)
(-7.90142 -1.53412e-06 0)
(-7.89224 -1.51997e-06 0)
(-7.88304 -1.50572e-06 0)
(-7.87384 -1.49057e-06 0)
(-7.86462 -1.47565e-06 0)
(-7.85541 -1.46079e-06 0)
(-7.84618 -1.44572e-06 0)
(-7.83696 -1.43055e-06 0)
(-7.82773 -1.41547e-06 0)
(-7.8185 -1.40084e-06 0)
(-7.80926 -1.38601e-06 0)
(-7.80003 -1.37101e-06 0)
(-7.79079 -1.35611e-06 0)
(-7.78157 -1.34158e-06 0)
(-7.77233 -1.32691e-06 0)
(-7.7631 -1.31238e-06 0)
(-7.75387 -1.29742e-06 0)
(-7.74466 -1.28313e-06 0)
(-7.73544 -1.26906e-06 0)
(-7.72623 -1.25474e-06 0)
(-7.71701 -1.24056e-06 0)
(-7.70781 -1.22646e-06 0)
(-7.69861 -1.2128e-06 0)
(-7.68942 -1.19884e-06 0)
(-7.68023 -1.1849e-06 0)
(-7.67106 -1.17111e-06 0)
(-7.66188 -1.15771e-06 0)
(-7.65272 -1.14422e-06 0)
(-7.64357 -1.13089e-06 0)
(-7.63442 -1.11749e-06 0)
(-7.62529 -1.10455e-06 0)
(-7.61616 -1.0917e-06 0)
(-7.60704 -1.07866e-06 0)
(-7.59794 -1.06568e-06 0)
(-7.58884 -1.05301e-06 0)
(-7.57976 -1.04031e-06 0)
(-7.57069 -1.02744e-06 0)
(-7.56163 -1.01462e-06 0)
(-7.55259 -1.00187e-06 0)
(-7.54357 -9.89521e-07 0)
(-7.53456 -9.77081e-07 0)
(-7.52558 -9.6469e-07 0)
(-7.5166 -9.52774e-07 0)
(-7.50765 -9.40945e-07 0)
(-7.4987 -9.28996e-07 0)
(-7.48978 -9.17058e-07 0)
(-7.48088 -9.0554e-07 0)
(-7.47199 -8.94002e-07 0)
(-7.46312 -8.82543e-07 0)
(-7.45427 -8.70888e-07 0)
(-7.44544 -8.59732e-07 0)
(-7.43663 -8.48409e-07 0)
(-7.42785 -8.37135e-07 0)
(-7.41908 -8.25956e-07 0)
(-7.41035 -8.15121e-07 0)
(-7.40162 -8.04384e-07 0)
(-7.39293 -7.93613e-07 0)
(-7.38425 -7.83074e-07 0)
(-7.3756 -7.7258e-07 0)
(-7.36697 -7.62226e-07 0)
(-7.35837 -7.51757e-07 0)
(-7.34979 -7.4141e-07 0)
(-7.34124 -7.31351e-07 0)
(-7.33271 -7.2108e-07 0)
(-7.32422 -7.1082e-07 0)
(-7.31575 -7.00981e-07 0)
(-7.30731 -6.91088e-07 0)
(-7.2989 -6.81544e-07 0)
(-7.29052 -6.72095e-07 0)
(-7.28216 -6.6289e-07 0)
(-7.27382 -6.53843e-07 0)
(-7.26551 -6.44758e-07 0)
(-7.25723 -6.35676e-07 0)
(-7.24897 -6.26766e-07 0)
(-7.24075 -6.18007e-07 0)
(-7.23255 -6.09372e-07 0)
(-7.22438 -6.00987e-07 0)
(-7.21623 -5.93004e-07 0)
(-7.2081 -5.84596e-07 0)
(-7.2 -5.76296e-07 0)
(-7.19193 -5.68217e-07 0)
(-7.18389 -5.59937e-07 0)
(-7.17588 -5.51918e-07 0)
(-7.1679 -5.4409e-07 0)
(-7.15994 -5.36312e-07 0)
(-7.15202 -5.28834e-07 0)
(-7.14411 -5.21371e-07 0)
(-7.13624 -5.13801e-07 0)
(-7.1284 -5.06619e-07 0)
(-7.12058 -4.99282e-07 0)
(-7.1128 -4.92013e-07 0)
(-7.10504 -4.85034e-07 0)
(-7.09731 -4.77946e-07 0)
(-7.08961 -4.71035e-07 0)
(-7.08194 -4.6414e-07 0)
(-7.0743 -4.57511e-07 0)
(-7.06669 -4.50878e-07 0)
(-7.0591 -4.444e-07 0)
(-7.05154 -4.3806e-07 0)
(-7.04402 -4.31736e-07 0)
(-7.03651 -4.25595e-07 0)
(-7.02904 -4.19347e-07 0)
(-7.0216 -4.13298e-07 0)
(-7.01418 -4.07434e-07 0)
(-7.00679 -4.01575e-07 0)
(-6.99942 -3.95792e-07 0)
(-6.99208 -3.90308e-07 0)
(-6.98477 -3.84658e-07 0)
(-6.97748 -3.79221e-07 0)
(-6.97022 -3.73922e-07 0)
(-6.96298 -3.68574e-07 0)
(-6.95576 -3.63297e-07 0)
(-6.94858 -3.58173e-07 0)
(-6.94141 -3.52954e-07 0)
(-6.93429 -3.47904e-07 0)
(-6.92717 -3.42847e-07 0)
(-6.9201 -3.37838e-07 0)
(-6.91304 -3.32983e-07 0)
(-6.90602 -3.28185e-07 0)
(-6.89901 -3.23337e-07 0)
(-6.89205 -3.18707e-07 0)
(-6.88509 -3.14094e-07 0)
(-6.87818 -3.09445e-07 0)
(-6.87128 -3.04924e-07 0)
(-6.86442 -3.00467e-07 0)
(-6.85757 -2.95935e-07 0)
(-6.85078 -2.91565e-07 0)
(-6.84399 -2.87314e-07 0)
(-6.83724 -2.83028e-07 0)
(-6.83051 -2.78903e-07 0)
(-6.82382 -2.74843e-07 0)
(-6.81713 -2.70801e-07 0)
(-6.8105 -2.66892e-07 0)
(-6.80386 -2.62972e-07 0)
(-6.79728 -2.5915e-07 0)
(-6.79069 -2.55386e-07 0)
(-6.78416 -2.51689e-07 0)
(-6.77763 -2.48022e-07 0)
(-6.77114 -2.44473e-07 0)
(-6.76465 -2.40931e-07 0)
(-6.75822 -2.37428e-07 0)
(-6.75178 -2.34063e-07 0)
(-6.74539 -2.30635e-07 0)
(-6.739 -2.27358e-07 0)
(-6.73266 -2.24101e-07 0)
(-6.72632 -2.2083e-07 0)
(-6.72002 -2.17658e-07 0)
(-6.71372 -2.14721e-07 0)
(-6.70747 -2.11676e-07 0)
(-6.70121 -2.08861e-07 0)
(-6.69498 -2.05736e-07 0)
(-6.68878 -2.02894e-07 0)
(-6.68259 -1.99656e-07 0)
(-6.67646 -1.9686e-07 0)
(-6.67031 -1.9378e-07 0)
(-6.66355 -1.89441e-07 0)
(-6.65625 -1.85046e-07 0)
(-6.64912 -1.81419e-07 0)
(-6.6421 -1.78107e-07 0)
(-6.63523 -1.7479e-07 0)
(-6.62846 -1.71672e-07 0)
(-6.62184 -1.68748e-07 0)
(-6.6153 -1.66044e-07 0)
(-6.60888 -1.63462e-07 0)
(-6.60255 -1.61104e-07 0)
(-6.59632 -1.58766e-07 0)
(-6.59016 -1.56367e-07 0)
(-6.58412 -1.53993e-07 0)
(-6.57815 -1.51738e-07 0)
(-6.57228 -1.49506e-07 0)
(-6.56648 -1.47407e-07 0)
(-6.56078 -1.45251e-07 0)
(-6.55515 -1.43204e-07 0)
(-6.54961 -1.41308e-07 0)
(-6.54413 -1.39387e-07 0)
(-6.53873 -1.37634e-07 0)
(-6.53339 -1.35841e-07 0)
(-6.52813 -1.34107e-07 0)
(-6.52293 -1.3236e-07 0)
(-6.51781 -1.30633e-07 0)
(-6.51274 -1.28883e-07 0)
(-6.50775 -1.2726e-07 0)
(-6.50281 -1.25713e-07 0)
(-6.49795 -1.24103e-07 0)
(-6.49313 -1.22619e-07 0)
(-6.48838 -1.21018e-07 0)
(-6.48369 -1.19549e-07 0)
(-6.47905 -1.18007e-07 0)
(-6.47448 -1.16617e-07 0)
(-6.46996 -1.15279e-07 0)
(-6.46549 -1.13913e-07 0)
(-6.46107 -1.12755e-07 0)
(-6.45669 -1.11438e-07 0)
(-6.45238 -1.10259e-07 0)
(-6.44809 -1.08962e-07 0)
(-6.44388 -1.07703e-07 0)
(-6.43969 -1.06492e-07 0)
(-6.43557 -1.05213e-07 0)
(-6.43148 -1.04034e-07 0)
(-6.42745 -1.02826e-07 0)
(-6.42346 -1.01668e-07 0)
(-6.41952 -1.00613e-07 0)
(-6.41561 -9.94617e-08 0)
(-6.41176 -9.86593e-08 0)
(-6.40791 -9.77532e-08 0)
(-6.40414 -9.70124e-08 0)
(-6.40034 -9.62062e-08 0)
(-6.39663 -9.53262e-08 0)
(-6.39291 -9.46447e-08 0)
(-6.38925 -9.38297e-08 0)
(-6.38559 -9.31311e-08 0)
(-6.38198 -9.22975e-08 0)
(-6.37838 -9.16188e-08 0)
(-6.37483 -9.08122e-08 0)
(-6.3713 -8.99795e-08 0)
(-6.36781 -8.90846e-08 0)
(-6.36435 -8.81725e-08 0)
(-6.36093 -8.72099e-08 0)
(-6.35754 -8.64637e-08 0)
(-6.35419 -8.56961e-08 0)
(-6.35086 -8.49678e-08 0)
(-6.34756 -8.41591e-08 0)
(-6.34429 -8.33914e-08 0)
(-6.34105 -8.26088e-08 0)
(-6.33785 -8.19057e-08 0)
(-6.33466 -8.1098e-08 0)
(-6.33152 -8.03453e-08 0)
(-6.32839 -7.97928e-08 0)
(-6.3253 -7.90903e-08 0)
(-6.32222 -7.86625e-08 0)
(-6.31916 -7.80113e-08 0)
(-6.31614 -7.7608e-08 0)
(-6.3131 -7.69852e-08 0)
(-6.31013 -7.65887e-08 0)
(-6.30713 -7.61024e-08 0)
(-6.30419 -7.57359e-08 0)
(-6.30122 -7.50831e-08 0)
(-6.29833 -7.47161e-08 0)
(-6.29539 -7.417e-08 0)
(-6.29255 -7.37466e-08 0)
(-6.28963 -7.34564e-08 0)
(-6.28681 -7.25436e-08 0)
(-6.28398 -7.34226e-08 0)
(-6.28108 -7.05528e-08 0)
(-6.27848 -7.59818e-08 0)
(-6.27514 -6.42859e-08 0)
(-6.27349 -8.49886e-08 0)
(-6.26846 -4.91262e-08 0)
(-6.26976 -6.62732e-08 0)
(-6.26309 -8.90552e-08 0)
)
;
    }
    symmetry
    {
        type            symmetryPlane;
    }
    frontAndBack
    {
        type            empty;
    }
}


// ************************************************************************* //
