/*--------------------------------*- C++ -*----------------------------------*\
| =========                 |                                                 |
| \\      /  F ield         | OpenFOAM: The Open Source CFD Toolbox           |
|  \\    /   O peration     | Version:  v2012                                 |
|   \\  /    A nd           | Website:  www.openfoam.com                      |
|    \\/     M anipulation  |                                                 |
\*---------------------------------------------------------------------------*/
FoamFile
{
    version     2.0;
    format      ascii;
    class       volScalarField;
    location    "17";
    object      yPlus;
}
// * * * * * * * * * * * * * * * * * * * * * * * * * * * * * * * * * * * * * //

dimensions      [0 0 0 0 0 0 0];


internalField   uniform 0;

boundaryField
{
    inlet
    {
        type            calculated;
        value           uniform 0;
    }
    outlet
    {
        type            calculated;
        value           uniform 0;
    }
    topWall
    {
        type            calculated;
        value           nonuniform List<scalar> 
545
(
0.0695348
0.119928
0.153842
0.180818
0.203642
0.223598
0.241408
0.257525
0.272259
0.285832
0.298412
0.310127
0.321079
0.331354
0.341019
0.350132
0.358744
0.366896
0.374626
0.381966
0.388944
0.395587
0.401917
0.407955
0.413718
0.419225
0.42449
0.429528
0.434351
0.438972
0.443401
0.447649
0.451725
0.455639
0.459397
0.463008
0.46648
0.469818
0.473029
0.476119
0.479094
0.481958
0.484718
0.487376
0.489939
0.492409
0.494792
0.49709
0.499307
0.501447
0.503512
0.505507
0.507433
0.509293
0.51109
0.512827
0.514506
0.516128
0.517697
0.519215
0.520682
0.522102
0.523475
0.524804
0.52609
0.527336
0.528541
0.529708
0.530838
0.531933
0.532993
0.53402
0.535002
0.535952
0.536892
0.537824
0.538748
0.539663
0.540569
0.541468
0.542359
0.543241
0.544116
0.544982
0.545841
0.546693
0.547536
0.548372
0.549201
0.550022
0.550836
0.551643
0.552443
0.553235
0.554021
0.5548
0.5555
0.556126
0.556751
0.557375
0.557999
0.558622
0.559244
0.559865
0.560486
0.561106
0.561726
0.562344
0.562962
0.563579
0.564195
0.564811
0.565425
0.566039
0.566652
0.567265
0.567876
0.568487
0.569097
0.569706
0.570314
0.570921
0.571528
0.572134
0.572738
0.573342
0.573945
0.574547
0.575148
0.575749
0.576348
0.576946
0.577544
0.57814
0.578736
0.579331
0.579924
0.580517
0.581109
0.581699
0.582289
0.582878
0.583465
0.584052
0.584638
0.585222
0.585806
0.586388
0.58697
0.58755
0.588129
0.588707
0.589284
0.58986
0.590435
0.591009
0.591581
0.592153
0.592723
0.593292
0.59386
0.594427
0.594992
0.595556
0.59612
0.596681
0.597242
0.597801
0.59836
0.598916
0.599472
0.600026
0.60058
0.601131
0.601682
0.602231
0.602779
0.603325
0.603871
0.604414
0.604957
0.605498
0.606038
0.606576
0.607113
0.607648
0.608182
0.608715
0.609246
0.609776
0.610304
0.610831
0.611357
0.61188
0.612403
0.612924
0.613443
0.613961
0.614477
0.614992
0.615505
0.616016
0.616527
0.617035
0.617542
0.618047
0.618551
0.619052
0.619553
0.620051
0.620548
0.621044
0.621537
0.622029
0.62252
0.623008
0.623495
0.62398
0.624463
0.624945
0.625425
0.625903
0.626379
0.626853
0.627326
0.627797
0.628266
0.628733
0.629198
0.629662
0.630123
0.630583
0.63104
0.631496
0.63195
0.632402
0.632852
0.6333
0.633746
0.634191
0.634633
0.635073
0.635511
0.635947
0.636382
0.636814
0.637244
0.637672
0.638098
0.638521
0.638943
0.639363
0.63978
0.640196
0.640609
0.64102
0.641429
0.641836
0.642241
0.642643
0.643043
0.643441
0.643837
0.644231
0.644622
0.645011
0.645398
0.645783
0.646165
0.646523
0.64686
0.647198
0.647537
0.647877
0.648218
0.64856
0.648903
0.649247
0.649591
0.649937
0.650283
0.65063
0.650977
0.651325
0.651673
0.652022
0.652372
0.652721
0.653071
0.653421
0.653772
0.654122
0.654472
0.654823
0.655173
0.655523
0.655873
0.656223
0.656572
0.65692
0.657269
0.657616
0.657963
0.658308
0.658653
0.658997
0.65934
0.659681
0.660022
0.660361
0.660698
0.661034
0.661368
0.6617
0.66203
0.662358
0.662684
0.663008
0.663329
0.663648
0.663964
0.664277
0.664588
0.664895
0.665199
0.6655
0.665797
0.666091
0.666381
0.666667
0.666949
0.667226
0.6675
0.667769
0.668033
0.668292
0.668546
0.668795
0.669039
0.669277
0.669509
0.669735
0.669956
0.67017
0.670377
0.670578
0.670772
0.670959
0.671139
0.671312
0.671476
0.671633
0.671782
0.671923
0.672055
0.672178
0.672293
0.672398
0.672494
0.672581
0.672658
0.672725
0.672781
0.672828
0.672863
0.672888
0.672901
0.672903
0.672894
0.672873
0.67284
0.672794
0.672736
0.672665
0.672581
0.672484
0.672374
0.67225
0.672111
0.671959
0.671793
0.671611
0.671415
0.671204
0.670978
0.670736
0.670478
0.670204
0.669914
0.669608
0.669285
0.668945
0.668589
0.668215
0.667823
0.667414
0.666987
0.666542
0.666079
0.665597
0.665097
0.664579
0.664041
0.663484
0.662909
0.662313
0.661699
0.661065
0.660411
0.659737
0.659043
0.65833
0.657596
0.656842
0.656067
0.655273
0.654458
0.653622
0.652767
0.65189
0.650993
0.650076
0.649138
0.64818
0.647201
0.646202
0.645182
0.644142
0.643082
0.642002
0.640902
0.639782
0.638642
0.637482
0.636303
0.635105
0.633887
0.632651
0.631396
0.630122
0.62883
0.62752
0.626192
0.624846
0.623483
0.622104
0.620708
0.619295
0.617867
0.616422
0.6148
0.613008
0.611218
0.609432
0.607649
0.605872
0.604101
0.602337
0.600579
0.59883
0.59709
0.595358
0.593637
0.591926
0.590227
0.588538
0.586862
0.585198
0.583548
0.58191
0.580286
0.578677
0.577082
0.575502
0.573937
0.572388
0.570855
0.569338
0.567837
0.566353
0.564887
0.563437
0.562005
0.560591
0.559194
0.557816
0.556456
0.555115
0.553793
0.55249
0.551206
0.549941
0.548696
0.547471
0.546266
0.54508
0.543916
0.542771
0.541647
0.540544
0.539462
0.538402
0.537362
0.536344
0.535347
0.534372
0.533419
0.532488
0.531579
0.530693
0.529829
0.528988
0.528169
0.527374
0.526601
0.525852
0.525126
0.524424
0.523745
0.52309
0.522458
0.521851
0.521268
0.520709
0.520174
0.519664
0.519179
0.518718
0.518282
0.517871
0.517485
0.517124
0.516788
0.516477
0.516191
0.515931
0.515697
0.515487
0.515304
0.515146
0.515013
0.514907
0.514824
0.514773
0.514728
)
;
    }
    bottomWall
    {
        type            calculated;
        value           nonuniform List<scalar> 
449
(
0.139542
0.0890124
0.0758537
0.0694775
0.0652914
0.0621629
0.0596662
0.0576012
0.0558491
0.054332
0.0529975
0.0518092
0.0507406
0.0497717
0.0488866
0.0480732
0.0473216
0.0466238
0.0459732
0.0453643
0.0447926
0.044254
0.0437454
0.0432638
0.0428067
0.0423721
0.0419579
0.0415625
0.0411844
0.0408223
0.0404751
0.0401416
0.039821
0.0395123
0.0392148
0.0389278
0.0386506
0.0383826
0.0381233
0.0378723
0.037629
0.0373931
0.0371641
0.0369417
0.0367256
0.0365154
0.0363109
0.0361118
0.0359179
0.0357288
0.0355445
0.0353646
0.0351891
0.0350177
0.0348502
0.0346866
0.0345265
0.03437
0.0342169
0.0340669
0.0339201
0.0337764
0.0336355
0.0334974
0.033362
0.0332292
0.0330989
0.0329711
0.0328456
0.0327224
0.0326014
0.0324826
0.0323658
0.032251
0.0321382
0.0320272
0.0319181
0.0318108
0.0317052
0.0316013
0.031499
0.0313983
0.0312992
0.0312015
0.0311053
0.0310106
0.0309172
0.0308252
0.0307345
0.0306451
0.030557
0.03047
0.0303843
0.0302997
0.0302163
0.030134
0.0300527
0.0299725
0.0298934
0.0298152
0.0297381
0.0296619
0.0295867
0.0295124
0.0294389
0.0293664
0.0292948
0.029224
0.029154
0.0290848
0.0290164
0.0289489
0.028882
0.028816
0.0287506
0.028686
0.0286221
0.0285589
0.0284964
0.0284345
0.0283733
0.0283127
0.0282528
0.0281935
0.0281348
0.0280767
0.0280192
0.0279622
0.0279058
0.02785
0.0277947
0.02774
0.0276858
0.0276321
0.0275789
0.0275262
0.0274741
0.0274224
0.0273711
0.0273204
0.0272701
0.0272203
0.0271709
0.0271219
0.0270734
0.0270253
0.0269777
0.0269304
0.0268836
0.0268372
0.0267911
0.0267455
0.0267002
0.0266553
0.0266108
0.0265666
0.0265228
0.0264794
0.0264363
0.0263936
0.0263512
0.0263091
0.0262674
0.026226
0.026185
0.0261442
0.0261038
0.0260637
0.0260238
0.0259843
0.0259451
0.0259062
0.0258676
0.0258314
0.0257974
0.0257633
0.0257291
0.0256949
0.0256607
0.0256264
0.025592
0.0255576
0.025523
0.0254885
0.0254539
0.0254192
0.0253844
0.0253496
0.0253147
0.0252798
0.0252448
0.0252098
0.0251747
0.0251395
0.0251043
0.0250691
0.0250338
0.0249985
0.0249631
0.0249276
0.0248921
0.0248566
0.024821
0.0247854
0.0247498
0.0247141
0.0246784
0.0246426
0.0246069
0.024571
0.0245352
0.0244993
0.0244634
0.0244275
0.0243915
0.0243556
0.0243196
0.0242836
0.0242475
0.0242115
0.0241754
0.0241393
0.0241032
0.0240671
0.024031
0.0239949
0.0239588
0.0239226
0.0238865
0.0238503
0.0238142
0.0237781
0.0237419
0.0237058
0.0236697
0.0236335
0.0235974
0.0235613
0.0235252
0.0234891
0.023453
0.023417
0.0233809
0.0233449
0.0233089
0.0232729
0.0232369
0.0232009
0.023165
0.0231291
0.0230932
0.0230574
0.0230216
0.0229858
0.02295
0.0229143
0.0228786
0.0228429
0.0228073
0.0227717
0.0227362
0.0227007
0.0226652
0.0226298
0.0225944
0.0225591
0.0225238
0.0224886
0.0224534
0.0224182
0.0223831
0.0223481
0.0223131
0.0222782
0.0222433
0.0222085
0.0221737
0.022139
0.0221044
0.0220698
0.0220353
0.0220008
0.0219664
0.0219321
0.0218978
0.0218636
0.0218295
0.0217954
0.0217614
0.0217275
0.0216936
0.0216599
0.0216262
0.0215925
0.021559
0.0215255
0.0214921
0.0214588
0.0214255
0.0213923
0.0213593
0.0213263
0.0212933
0.0212605
0.0212277
0.0211951
0.0211625
0.02113
0.0210976
0.0210652
0.021033
0.0210008
0.0209688
0.0209368
0.0209049
0.0208731
0.0208414
0.0208098
0.0207783
0.0207469
0.0207156
0.0206843
0.0206532
0.0206222
0.0205912
0.0205604
0.0205297
0.020499
0.0204685
0.020438
0.0204077
0.0203774
0.0203473
0.0203172
0.0202873
0.0202575
0.0202277
0.0201981
0.0201686
0.0201391
0.0201098
0.0200806
0.0200515
0.0200225
0.0199936
0.0199648
0.0199361
0.0199075
0.0198791
0.0198507
0.0198224
0.0197943
0.0197662
0.0197382
0.0197072
0.0196735
0.0196403
0.0196077
0.0195756
0.0195441
0.0195131
0.0194827
0.0194528
0.0194234
0.0193945
0.0193661
0.0193382
0.0193107
0.0192837
0.0192571
0.0192309
0.0192051
0.0191798
0.0191548
0.0191302
0.019106
0.0190821
0.0190586
0.0190355
0.0190127
0.0189902
0.018968
0.0189462
0.0189246
0.0189034
0.0188824
0.0188618
0.0188414
0.0188213
0.0188015
0.0187819
0.0187626
0.0187436
0.0187247
0.0187062
0.0186879
0.0186698
0.0186519
0.0186343
0.0186168
0.0185996
0.0185826
0.0185659
0.0185493
0.0185329
0.0185167
0.0185007
0.0184849
0.0184692
0.0184538
0.0184385
0.0184234
0.0184085
0.0183937
0.0183792
0.0183647
0.0183505
0.0183363
0.0183224
0.0183086
0.0182949
0.0182814
0.018268
0.0182548
0.0182417
0.0182287
0.0182159
0.0182032
0.0181906
0.0181782
0.0181659
0.0181537
0.0181416
0.0181296
0.0181178
0.018106
0.0180944
0.0180828
0.0180714
0.0180601
0.0180488
0.0180376
0.0180265
0.0180154
0.0180044
0.0179939
0.0179763
0.0179864
0.0179552
)
;
    }
    symmetry
    {
        type            symmetryPlane;
    }
    frontAndBack
    {
        type            empty;
    }
}


// ************************************************************************* //
