/*--------------------------------*- C++ -*----------------------------------*\
| =========                 |                                                 |
| \\      /  F ield         | OpenFOAM: The Open Source CFD Toolbox           |
|  \\    /   O peration     | Version:  v2012                                 |
|   \\  /    A nd           | Website:  www.openfoam.com                      |
|    \\/     M anipulation  |                                                 |
\*---------------------------------------------------------------------------*/
FoamFile
{
    version     2.0;
    format      ascii;
    class       volVectorField;
    location    "32.5";
    object      wallShearStress;
}
// * * * * * * * * * * * * * * * * * * * * * * * * * * * * * * * * * * * * * //

dimensions      [0 2 -2 0 0 0 0];


internalField   uniform (0 0 0);

boundaryField
{
    inlet
    {
        type            calculated;
        value           uniform (0 0 0);
    }
    outlet
    {
        type            calculated;
        value           uniform (0 0 0);
    }
    topWall
    {
        type            calculated;
        value           nonuniform List<vector> 
545
(
(1.48584e-08 -1.04589e-08 0)
(1.48516e-08 -2.92605e-08 0)
(1.48377e-08 -4.88096e-08 0)
(1.48173e-08 -6.77852e-08 0)
(1.47911e-08 -8.59405e-08 0)
(1.47598e-08 -1.03506e-07 0)
(1.47238e-08 -1.20631e-07 0)
(1.46836e-08 -1.37305e-07 0)
(1.46394e-08 -1.53491e-07 0)
(1.45916e-08 -1.69186e-07 0)
(1.45407e-08 -1.84412e-07 0)
(1.4487e-08 -1.99185e-07 0)
(1.44307e-08 -2.13517e-07 0)
(1.43722e-08 -2.27415e-07 0)
(1.43118e-08 -2.4089e-07 0)
(1.42496e-08 -2.53954e-07 0)
(1.4186e-08 -2.66617e-07 0)
(1.41211e-08 -2.78891e-07 0)
(1.40551e-08 -2.90786e-07 0)
(1.39883e-08 -3.02312e-07 0)
(1.39209e-08 -3.13481e-07 0)
(1.38529e-08 -3.24302e-07 0)
(1.37845e-08 -3.34787e-07 0)
(1.37159e-08 -3.44944e-07 0)
(1.36472e-08 -3.54784e-07 0)
(1.35785e-08 -3.64317e-07 0)
(1.351e-08 -3.73551e-07 0)
(1.34416e-08 -3.82496e-07 0)
(1.33736e-08 -3.91162e-07 0)
(1.3306e-08 -3.99556e-07 0)
(1.32388e-08 -4.07688e-07 0)
(1.31722e-08 -4.15565e-07 0)
(1.31061e-08 -4.23196e-07 0)
(1.30407e-08 -4.30589e-07 0)
(1.29761e-08 -4.37751e-07 0)
(1.29121e-08 -4.44689e-07 0)
(1.2849e-08 -4.51412e-07 0)
(1.27866e-08 -4.57925e-07 0)
(1.27252e-08 -4.64236e-07 0)
(1.26645e-08 -4.70352e-07 0)
(1.26048e-08 -4.76277e-07 0)
(1.2546e-08 -4.8202e-07 0)
(1.24882e-08 -4.87585e-07 0)
(1.24313e-08 -4.92978e-07 0)
(1.23753e-08 -4.98206e-07 0)
(1.23203e-08 -5.03273e-07 0)
(1.22663e-08 -5.08184e-07 0)
(1.22132e-08 -5.12945e-07 0)
(1.21611e-08 -5.17561e-07 0)
(1.211e-08 -5.22036e-07 0)
(1.20599e-08 -5.26375e-07 0)
(1.20108e-08 -5.30582e-07 0)
(1.19626e-08 -5.34661e-07 0)
(1.19153e-08 -5.38617e-07 0)
(1.18691e-08 -5.42454e-07 0)
(1.18237e-08 -5.46175e-07 0)
(1.17794e-08 -5.49785e-07 0)
(1.17359e-08 -5.53286e-07 0)
(1.16934e-08 -5.56682e-07 0)
(1.16517e-08 -5.59977e-07 0)
(1.1611e-08 -5.63174e-07 0)
(1.15712e-08 -5.66276e-07 0)
(1.15322e-08 -5.69285e-07 0)
(1.14941e-08 -5.72206e-07 0)
(1.14568e-08 -5.7504e-07 0)
(1.14204e-08 -5.7779e-07 0)
(1.13848e-08 -5.8046e-07 0)
(1.135e-08 -5.83051e-07 0)
(1.1316e-08 -5.85566e-07 0)
(1.12828e-08 -5.88008e-07 0)
(1.12503e-08 -5.90379e-07 0)
(1.12188e-08 -5.92677e-07 0)
(1.11882e-08 -5.94886e-07 0)
(1.11581e-08 -5.97027e-07 0)
(1.11283e-08 -5.99141e-07 0)
(1.10987e-08 -6.01243e-07 0)
(1.10691e-08 -6.03334e-07 0)
(1.10396e-08 -6.05409e-07 0)
(1.10101e-08 -6.07469e-07 0)
(1.09807e-08 -6.09513e-07 0)
(1.09514e-08 -6.11543e-07 0)
(1.09221e-08 -6.13558e-07 0)
(1.08929e-08 -6.15559e-07 0)
(1.08637e-08 -6.17545e-07 0)
(1.08346e-08 -6.19516e-07 0)
(1.08056e-08 -6.21474e-07 0)
(1.07766e-08 -6.23417e-07 0)
(1.07477e-08 -6.25346e-07 0)
(1.07189e-08 -6.27262e-07 0)
(1.06901e-08 -6.29163e-07 0)
(1.06614e-08 -6.3105e-07 0)
(1.06327e-08 -6.32924e-07 0)
(1.06041e-08 -6.34785e-07 0)
(1.05757e-08 -6.3663e-07 0)
(1.0547e-08 -6.38468e-07 0)
(1.05197e-08 -6.40271e-07 0)
(1.04944e-08 -6.41921e-07 0)
(1.04701e-08 -6.43415e-07 0)
(1.04467e-08 -6.44868e-07 0)
(1.04234e-08 -6.46326e-07 0)
(1.04e-08 -6.47795e-07 0)
(1.03766e-08 -6.49268e-07 0)
(1.0353e-08 -6.50737e-07 0)
(1.03294e-08 -6.52206e-07 0)
(1.03057e-08 -6.53674e-07 0)
(1.02819e-08 -6.55143e-07 0)
(1.0258e-08 -6.56613e-07 0)
(1.0234e-08 -6.58082e-07 0)
(1.02099e-08 -6.59551e-07 0)
(1.01857e-08 -6.6102e-07 0)
(1.01615e-08 -6.62489e-07 0)
(1.01371e-08 -6.63959e-07 0)
(1.01126e-08 -6.65428e-07 0)
(1.00881e-08 -6.66897e-07 0)
(1.00634e-08 -6.68365e-07 0)
(1.00387e-08 -6.69834e-07 0)
(1.00138e-08 -6.71303e-07 0)
(9.9889e-09 -6.72771e-07 0)
(9.96387e-09 -6.74239e-07 0)
(9.93875e-09 -6.75707e-07 0)
(9.91354e-09 -6.77175e-07 0)
(9.88823e-09 -6.78642e-07 0)
(9.86282e-09 -6.80109e-07 0)
(9.83732e-09 -6.81576e-07 0)
(9.81173e-09 -6.83042e-07 0)
(9.78604e-09 -6.84508e-07 0)
(9.76026e-09 -6.85973e-07 0)
(9.73438e-09 -6.87439e-07 0)
(9.7084e-09 -6.88903e-07 0)
(9.68234e-09 -6.90367e-07 0)
(9.65617e-09 -6.91831e-07 0)
(9.62992e-09 -6.93294e-07 0)
(9.60356e-09 -6.94757e-07 0)
(9.57712e-09 -6.96219e-07 0)
(9.55057e-09 -6.97681e-07 0)
(9.52393e-09 -6.99141e-07 0)
(9.4972e-09 -7.00602e-07 0)
(9.47038e-09 -7.02061e-07 0)
(9.44345e-09 -7.0352e-07 0)
(9.41644e-09 -7.04978e-07 0)
(9.38932e-09 -7.06435e-07 0)
(9.36212e-09 -7.07892e-07 0)
(9.33481e-09 -7.09348e-07 0)
(9.30742e-09 -7.10802e-07 0)
(9.27993e-09 -7.12256e-07 0)
(9.25234e-09 -7.1371e-07 0)
(9.22466e-09 -7.15162e-07 0)
(9.19688e-09 -7.16613e-07 0)
(9.16901e-09 -7.18063e-07 0)
(9.14105e-09 -7.19513e-07 0)
(9.11299e-09 -7.20961e-07 0)
(9.08483e-09 -7.22408e-07 0)
(9.05659e-09 -7.23854e-07 0)
(9.02824e-09 -7.25299e-07 0)
(8.99981e-09 -7.26743e-07 0)
(8.97128e-09 -7.28186e-07 0)
(8.94265e-09 -7.29627e-07 0)
(8.91393e-09 -7.31068e-07 0)
(8.88512e-09 -7.32507e-07 0)
(8.85621e-09 -7.33945e-07 0)
(8.82721e-09 -7.35381e-07 0)
(8.79812e-09 -7.36816e-07 0)
(8.76893e-09 -7.3825e-07 0)
(8.73965e-09 -7.39682e-07 0)
(8.71028e-09 -7.41113e-07 0)
(8.68081e-09 -7.42542e-07 0)
(8.65125e-09 -7.4397e-07 0)
(8.6216e-09 -7.45397e-07 0)
(8.59185e-09 -7.46822e-07 0)
(8.56202e-09 -7.48245e-07 0)
(8.53209e-09 -7.49667e-07 0)
(8.50207e-09 -7.51087e-07 0)
(8.47195e-09 -7.52505e-07 0)
(8.44175e-09 -7.53922e-07 0)
(8.41145e-09 -7.55336e-07 0)
(8.38107e-09 -7.5675e-07 0)
(8.35059e-09 -7.58161e-07 0)
(8.32002e-09 -7.5957e-07 0)
(8.28936e-09 -7.60978e-07 0)
(8.25861e-09 -7.62384e-07 0)
(8.22776e-09 -7.63788e-07 0)
(8.19683e-09 -7.65189e-07 0)
(8.16581e-09 -7.66589e-07 0)
(8.1347e-09 -7.67987e-07 0)
(8.1035e-09 -7.69383e-07 0)
(8.07221e-09 -7.70776e-07 0)
(8.04084e-09 -7.72168e-07 0)
(8.00937e-09 -7.73557e-07 0)
(7.97782e-09 -7.74944e-07 0)
(7.94618e-09 -7.76329e-07 0)
(7.91445e-09 -7.77712e-07 0)
(7.88263e-09 -7.79092e-07 0)
(7.85073e-09 -7.80471e-07 0)
(7.81874e-09 -7.81846e-07 0)
(7.78666e-09 -7.8322e-07 0)
(7.7545e-09 -7.8459e-07 0)
(7.72225e-09 -7.85959e-07 0)
(7.68991e-09 -7.87325e-07 0)
(7.65749e-09 -7.88688e-07 0)
(7.62499e-09 -7.90049e-07 0)
(7.5924e-09 -7.91407e-07 0)
(7.55973e-09 -7.92763e-07 0)
(7.52697e-09 -7.94116e-07 0)
(7.49414e-09 -7.95466e-07 0)
(7.46121e-09 -7.96813e-07 0)
(7.42821e-09 -7.98158e-07 0)
(7.39512e-09 -7.995e-07 0)
(7.36196e-09 -8.00839e-07 0)
(7.32871e-09 -8.02175e-07 0)
(7.29538e-09 -8.03508e-07 0)
(7.26197e-09 -8.04838e-07 0)
(7.22848e-09 -8.06166e-07 0)
(7.19491e-09 -8.0749e-07 0)
(7.16126e-09 -8.08811e-07 0)
(7.12753e-09 -8.10129e-07 0)
(7.09373e-09 -8.11444e-07 0)
(7.05985e-09 -8.12756e-07 0)
(7.02589e-09 -8.14064e-07 0)
(6.99185e-09 -8.1537e-07 0)
(6.95774e-09 -8.16672e-07 0)
(6.92355e-09 -8.1797e-07 0)
(6.88929e-09 -8.19266e-07 0)
(6.85495e-09 -8.20558e-07 0)
(6.82054e-09 -8.21846e-07 0)
(6.78606e-09 -8.23131e-07 0)
(6.7515e-09 -8.24413e-07 0)
(6.71687e-09 -8.25691e-07 0)
(6.68217e-09 -8.26965e-07 0)
(6.6474e-09 -8.28236e-07 0)
(6.61255e-09 -8.29503e-07 0)
(6.57764e-09 -8.30766e-07 0)
(6.54266e-09 -8.32026e-07 0)
(6.50761e-09 -8.33282e-07 0)
(6.47249e-09 -8.34534e-07 0)
(6.4373e-09 -8.35782e-07 0)
(6.40205e-09 -8.37027e-07 0)
(6.36672e-09 -8.38267e-07 0)
(6.33134e-09 -8.39503e-07 0)
(6.29589e-09 -8.40736e-07 0)
(6.26037e-09 -8.41964e-07 0)
(6.22479e-09 -8.43189e-07 0)
(6.18915e-09 -8.44409e-07 0)
(6.15345e-09 -8.45625e-07 0)
(6.11768e-09 -8.46837e-07 0)
(6.08185e-09 -8.48045e-07 0)
(6.04597e-09 -8.49248e-07 0)
(6.01002e-09 -8.50447e-07 0)
(5.97402e-09 -8.51642e-07 0)
(5.93795e-09 -8.52832e-07 0)
(5.90183e-09 -8.54018e-07 0)
(5.86565e-09 -8.55199e-07 0)
(5.82942e-09 -8.56376e-07 0)
(5.79313e-09 -8.57549e-07 0)
(5.75679e-09 -8.58717e-07 0)
(5.7204e-09 -8.5988e-07 0)
(5.68395e-09 -8.61038e-07 0)
(5.64745e-09 -8.62192e-07 0)
(5.6109e-09 -8.63341e-07 0)
(5.5743e-09 -8.64485e-07 0)
(5.53765e-09 -8.65625e-07 0)
(5.50095e-09 -8.6676e-07 0)
(5.46421e-09 -8.67889e-07 0)
(5.42741e-09 -8.69014e-07 0)
(5.39057e-09 -8.70134e-07 0)
(5.35369e-09 -8.71249e-07 0)
(5.31676e-09 -8.72359e-07 0)
(5.27983e-09 -8.73463e-07 0)
(5.24262e-09 -8.74564e-07 0)
(5.20639e-09 -8.75652e-07 0)
(5.17165e-09 -8.76684e-07 0)
(5.13755e-09 -8.77662e-07 0)
(5.10388e-09 -8.78628e-07 0)
(5.07006e-09 -8.796e-07 0)
(5.03595e-09 -8.80581e-07 0)
(5.00153e-09 -8.81566e-07 0)
(4.96678e-09 -8.82554e-07 0)
(4.9317e-09 -8.83545e-07 0)
(4.89629e-09 -8.84541e-07 0)
(4.86054e-09 -8.85539e-07 0)
(4.82446e-09 -8.86542e-07 0)
(4.78804e-09 -8.87547e-07 0)
(4.75128e-09 -8.88556e-07 0)
(4.71418e-09 -8.89568e-07 0)
(4.67673e-09 -8.90582e-07 0)
(4.63894e-09 -8.916e-07 0)
(4.60081e-09 -8.9262e-07 0)
(4.56232e-09 -8.93643e-07 0)
(4.52349e-09 -8.94668e-07 0)
(4.48431e-09 -8.95695e-07 0)
(4.44477e-09 -8.96724e-07 0)
(4.40488e-09 -8.97756e-07 0)
(4.36464e-09 -8.98789e-07 0)
(4.32404e-09 -8.99823e-07 0)
(4.28308e-09 -9.00859e-07 0)
(4.24177e-09 -9.01897e-07 0)
(4.20009e-09 -9.02935e-07 0)
(4.15806e-09 -9.03974e-07 0)
(4.11567e-09 -9.05014e-07 0)
(4.07292e-09 -9.06055e-07 0)
(4.02981e-09 -9.07095e-07 0)
(3.98633e-09 -9.08136e-07 0)
(3.94249e-09 -9.09177e-07 0)
(3.89829e-09 -9.10217e-07 0)
(3.85373e-09 -9.11256e-07 0)
(3.80881e-09 -9.12295e-07 0)
(3.76352e-09 -9.13333e-07 0)
(3.71787e-09 -9.14369e-07 0)
(3.67186e-09 -9.15404e-07 0)
(3.62549e-09 -9.16437e-07 0)
(3.57876e-09 -9.17467e-07 0)
(3.53166e-09 -9.18496e-07 0)
(3.48421e-09 -9.19522e-07 0)
(3.4364e-09 -9.20544e-07 0)
(3.38823e-09 -9.21564e-07 0)
(3.3397e-09 -9.2258e-07 0)
(3.29082e-09 -9.23592e-07 0)
(3.24159e-09 -9.246e-07 0)
(3.192e-09 -9.25604e-07 0)
(3.14207e-09 -9.26602e-07 0)
(3.09179e-09 -9.27596e-07 0)
(3.04116e-09 -9.28584e-07 0)
(2.99019e-09 -9.29566e-07 0)
(2.93888e-09 -9.30542e-07 0)
(2.88724e-09 -9.31512e-07 0)
(2.83526e-09 -9.32474e-07 0)
(2.78295e-09 -9.3343e-07 0)
(2.73031e-09 -9.34377e-07 0)
(2.67734e-09 -9.35317e-07 0)
(2.62406e-09 -9.36248e-07 0)
(2.57046e-09 -9.3717e-07 0)
(2.51655e-09 -9.38083e-07 0)
(2.46233e-09 -9.38986e-07 0)
(2.40781e-09 -9.3988e-07 0)
(2.353e-09 -9.40762e-07 0)
(2.29789e-09 -9.41633e-07 0)
(2.24249e-09 -9.42493e-07 0)
(2.18682e-09 -9.43341e-07 0)
(2.13087e-09 -9.44177e-07 0)
(2.07465e-09 -9.45e-07 0)
(2.01817e-09 -9.45809e-07 0)
(1.96143e-09 -9.46604e-07 0)
(1.90445e-09 -9.47385e-07 0)
(1.84723e-09 -9.48151e-07 0)
(1.78977e-09 -9.48902e-07 0)
(1.7321e-09 -9.49637e-07 0)
(1.6742e-09 -9.50355e-07 0)
(1.6161e-09 -9.51057e-07 0)
(1.5578e-09 -9.51741e-07 0)
(1.49931e-09 -9.52407e-07 0)
(1.44064e-09 -9.53054e-07 0)
(1.3818e-09 -9.53682e-07 0)
(1.3228e-09 -9.5429e-07 0)
(1.26366e-09 -9.54878e-07 0)
(1.20438e-09 -9.55445e-07 0)
(1.14496e-09 -9.55991e-07 0)
(1.08544e-09 -9.56514e-07 0)
(1.02581e-09 -9.57015e-07 0)
(9.66092e-10 -9.57493e-07 0)
(9.06294e-10 -9.57947e-07 0)
(8.46431e-10 -9.58376e-07 0)
(7.86516e-10 -9.5878e-07 0)
(7.26562e-10 -9.59158e-07 0)
(6.66584e-10 -9.5951e-07 0)
(6.06595e-10 -9.59836e-07 0)
(5.46611e-10 -9.60133e-07 0)
(4.86646e-10 -9.60402e-07 0)
(4.26715e-10 -9.60643e-07 0)
(3.66834e-10 -9.60854e-07 0)
(3.0702e-10 -9.61034e-07 0)
(2.47288e-10 -9.61184e-07 0)
(1.87654e-10 -9.61303e-07 0)
(1.28137e-10 -9.61389e-07 0)
(6.87523e-11 -9.61443e-07 0)
(9.51831e-12 -9.61464e-07 0)
(-4.95473e-11 -9.6145e-07 0)
(-1.08426e-10 -9.61402e-07 0)
(-1.67101e-10 -9.61319e-07 0)
(-2.25551e-10 -9.612e-07 0)
(-2.8376e-10 -9.61044e-07 0)
(-3.41706e-10 -9.60851e-07 0)
(-3.99372e-10 -9.6062e-07 0)
(-4.56736e-10 -9.60351e-07 0)
(-5.1378e-10 -9.60043e-07 0)
(-5.70483e-10 -9.59696e-07 0)
(-6.26824e-10 -9.59308e-07 0)
(-6.82784e-10 -9.5888e-07 0)
(-7.38342e-10 -9.5841e-07 0)
(-7.93476e-10 -9.57898e-07 0)
(-8.48167e-10 -9.57344e-07 0)
(-9.02392e-10 -9.56746e-07 0)
(-9.5613e-10 -9.56105e-07 0)
(-1.00936e-09 -9.5542e-07 0)
(-1.06206e-09 -9.54691e-07 0)
(-1.11421e-09 -9.53916e-07 0)
(-1.16579e-09 -9.53095e-07 0)
(-1.21678e-09 -9.52229e-07 0)
(-1.26715e-09 -9.51316e-07 0)
(-1.31688e-09 -9.50355e-07 0)
(-1.36596e-09 -9.49348e-07 0)
(-1.41436e-09 -9.48292e-07 0)
(-1.46205e-09 -9.47189e-07 0)
(-1.50903e-09 -9.46036e-07 0)
(-1.55527e-09 -9.44835e-07 0)
(-1.60074e-09 -9.43585e-07 0)
(-1.64543e-09 -9.42284e-07 0)
(-1.68931e-09 -9.40934e-07 0)
(-1.73238e-09 -9.39534e-07 0)
(-1.7746e-09 -9.38083e-07 0)
(-1.81596e-09 -9.36582e-07 0)
(-1.85643e-09 -9.3503e-07 0)
(-1.89601e-09 -9.33426e-07 0)
(-1.93467e-09 -9.31772e-07 0)
(-1.97239e-09 -9.30066e-07 0)
(-2.00916e-09 -9.2831e-07 0)
(-2.04495e-09 -9.26501e-07 0)
(-2.07976e-09 -9.24642e-07 0)
(-2.11357e-09 -9.2273e-07 0)
(-2.14636e-09 -9.20768e-07 0)
(-2.17812e-09 -9.18754e-07 0)
(-2.20883e-09 -9.16689e-07 0)
(-2.23848e-09 -9.14573e-07 0)
(-2.26705e-09 -9.12406e-07 0)
(-2.29454e-09 -9.10188e-07 0)
(-2.32093e-09 -9.07919e-07 0)
(-2.34621e-09 -9.05601e-07 0)
(-2.37038e-09 -9.03232e-07 0)
(-2.39341e-09 -9.00814e-07 0)
(-2.41531e-09 -8.98346e-07 0)
(-2.43607e-09 -8.9583e-07 0)
(-2.45567e-09 -8.93265e-07 0)
(-2.47412e-09 -8.90652e-07 0)
(-2.49141e-09 -8.87992e-07 0)
(-2.50752e-09 -8.85285e-07 0)
(-2.52247e-09 -8.82531e-07 0)
(-2.53625e-09 -8.79732e-07 0)
(-2.54884e-09 -8.76887e-07 0)
(-2.56027e-09 -8.73998e-07 0)
(-2.57051e-09 -8.71066e-07 0)
(-2.57958e-09 -8.6809e-07 0)
(-2.58748e-09 -8.65072e-07 0)
(-2.5942e-09 -8.62013e-07 0)
(-2.59976e-09 -8.58913e-07 0)
(-2.60415e-09 -8.55773e-07 0)
(-2.60738e-09 -8.52595e-07 0)
(-2.60946e-09 -8.49379e-07 0)
(-2.61039e-09 -8.46127e-07 0)
(-2.61018e-09 -8.42839e-07 0)
(-2.60883e-09 -8.39513e-07 0)
(-2.60643e-09 -8.3616e-07 0)
(-2.60261e-09 -8.32735e-07 0)
(-2.59717e-09 -8.28953e-07 0)
(-2.59016e-09 -8.2481e-07 0)
(-2.5815e-09 -8.20595e-07 0)
(-2.57138e-09 -8.16405e-07 0)
(-2.55994e-09 -8.12255e-07 0)
(-2.54728e-09 -8.0813e-07 0)
(-2.53346e-09 -8.04021e-07 0)
(-2.51854e-09 -7.99933e-07 0)
(-2.50258e-09 -7.95869e-07 0)
(-2.48565e-09 -7.91834e-07 0)
(-2.4678e-09 -7.87827e-07 0)
(-2.4491e-09 -7.83849e-07 0)
(-2.42958e-09 -7.79902e-07 0)
(-2.40931e-09 -7.75988e-07 0)
(-2.38833e-09 -7.72107e-07 0)
(-2.36668e-09 -7.6826e-07 0)
(-2.3444e-09 -7.64449e-07 0)
(-2.32154e-09 -7.60675e-07 0)
(-2.29814e-09 -7.56938e-07 0)
(-2.27423e-09 -7.53239e-07 0)
(-2.24984e-09 -7.49579e-07 0)
(-2.22501e-09 -7.4596e-07 0)
(-2.19976e-09 -7.42381e-07 0)
(-2.17413e-09 -7.38843e-07 0)
(-2.14814e-09 -7.35346e-07 0)
(-2.12182e-09 -7.31893e-07 0)
(-2.09519e-09 -7.28482e-07 0)
(-2.06826e-09 -7.25114e-07 0)
(-2.04108e-09 -7.2179e-07 0)
(-2.01364e-09 -7.1851e-07 0)
(-1.98597e-09 -7.15275e-07 0)
(-1.95808e-09 -7.12085e-07 0)
(-1.93e-09 -7.0894e-07 0)
(-1.90173e-09 -7.05841e-07 0)
(-1.87328e-09 -7.02788e-07 0)
(-1.84467e-09 -6.99781e-07 0)
(-1.81592e-09 -6.9682e-07 0)
(-1.78702e-09 -6.93906e-07 0)
(-1.75799e-09 -6.91039e-07 0)
(-1.72883e-09 -6.88218e-07 0)
(-1.69956e-09 -6.85445e-07 0)
(-1.67018e-09 -6.8272e-07 0)
(-1.64069e-09 -6.80042e-07 0)
(-1.61111e-09 -6.77412e-07 0)
(-1.58143e-09 -6.7483e-07 0)
(-1.55166e-09 -6.72296e-07 0)
(-1.52181e-09 -6.6981e-07 0)
(-1.49187e-09 -6.67372e-07 0)
(-1.46185e-09 -6.64983e-07 0)
(-1.43176e-09 -6.62643e-07 0)
(-1.40159e-09 -6.60351e-07 0)
(-1.37134e-09 -6.58109e-07 0)
(-1.34102e-09 -6.55915e-07 0)
(-1.31063e-09 -6.5377e-07 0)
(-1.28017e-09 -6.51675e-07 0)
(-1.24964e-09 -6.49629e-07 0)
(-1.21904e-09 -6.47632e-07 0)
(-1.18837e-09 -6.45685e-07 0)
(-1.15763e-09 -6.43787e-07 0)
(-1.12683e-09 -6.4194e-07 0)
(-1.09596e-09 -6.40142e-07 0)
(-1.06501e-09 -6.38394e-07 0)
(-1.034e-09 -6.36696e-07 0)
(-1.00293e-09 -6.35049e-07 0)
(-9.71781e-10 -6.33452e-07 0)
(-9.40569e-10 -6.31905e-07 0)
(-9.0929e-10 -6.30409e-07 0)
(-8.77945e-10 -6.28963e-07 0)
(-8.46534e-10 -6.27568e-07 0)
(-8.15057e-10 -6.26224e-07 0)
(-7.83516e-10 -6.24931e-07 0)
(-7.51911e-10 -6.2369e-07 0)
(-7.20244e-10 -6.22499e-07 0)
(-6.88515e-10 -6.21359e-07 0)
(-6.56725e-10 -6.20271e-07 0)
(-6.24877e-10 -6.19235e-07 0)
(-5.92971e-10 -6.1825e-07 0)
(-5.61009e-10 -6.17316e-07 0)
(-5.28994e-10 -6.16435e-07 0)
(-4.96928e-10 -6.15605e-07 0)
(-4.64812e-10 -6.14827e-07 0)
(-4.32649e-10 -6.14101e-07 0)
(-4.00441e-10 -6.13427e-07 0)
(-3.68192e-10 -6.12806e-07 0)
(-3.35904e-10 -6.12235e-07 0)
(-3.0358e-10 -6.11722e-07 0)
(-2.71221e-10 -6.11244e-07 0)
(-2.38839e-10 -6.10874e-07 0)
(-2.0641e-10 -6.10372e-07 0)
(-1.74022e-10 -6.10527e-07 0)
(-1.41404e-10 -6.08686e-07 0)
(-1.09475e-10 -6.13435e-07 0)
(-7.52905e-11 -5.9493e-07 0)
(-4.9018e-11 -6.43684e-07 0)
(-2.07328e-11 -5.62159e-07 0)
)
;
    }
    bottomWall
    {
        type            calculated;
        value           nonuniform List<vector> 
449
(
(-48.5398 -0.964208 0)
(-19.7542 -0.00515618 0)
(-14.3456 -0.00113504 0)
(-12.0354 -0.000545624 0)
(-10.629 -0.000351595 0)
(-9.63487 -0.000256068 0)
(-8.87658 -0.000198544 0)
(-8.27289 -0.000159863 0)
(-7.77732 -0.000132365 0)
(-7.36056 -0.000112012 0)
(-7.00345 -9.64068e-05 0)
(-6.69293 -8.40962e-05 0)
(-6.41969 -7.41754e-05 0)
(-6.17683 -6.60453e-05 0)
(-5.95907 -5.92863e-05 0)
(-5.76236 -5.35952e-05 0)
(-5.58351 -4.87494e-05 0)
(-5.41995 -4.45833e-05 0)
(-5.26962 -4.09707e-05 0)
(-5.13082 -3.78141e-05 0)
(-5.00213 -3.5037e-05 0)
(-4.88238 -3.25785e-05 0)
(-4.77059 -3.03898e-05 0)
(-4.66589 -2.84313e-05 0)
(-4.56756 -2.66705e-05 0)
(-4.47498 -2.50808e-05 0)
(-4.38762 -2.36396e-05 0)
(-4.30498 -2.23284e-05 0)
(-4.22666 -2.11314e-05 0)
(-4.15229 -2.00352e-05 0)
(-4.08155 -1.90283e-05 0)
(-4.01415 -1.81009e-05 0)
(-3.94983 -1.72445e-05 0)
(-3.88837 -1.64517e-05 0)
(-3.82955 -1.57162e-05 0)
(-3.77319 -1.50324e-05 0)
(-3.71912 -1.43952e-05 0)
(-3.6672 -1.38005e-05 0)
(-3.61727 -1.32444e-05 0)
(-3.56921 -1.27234e-05 0)
(-3.52292 -1.22346e-05 0)
(-3.47827 -1.17753e-05 0)
(-3.43519 -1.1343e-05 0)
(-3.39356 -1.09356e-05 0)
(-3.35333 -1.05511e-05 0)
(-3.3144 -1.01878e-05 0)
(-3.2767 -9.84406e-06 0)
(-3.24018 -9.51849e-06 0)
(-3.20477 -9.20977e-06 0)
(-3.17042 -8.9167e-06 0)
(-3.13708 -8.63821e-06 0)
(-3.10468 -8.37331e-06 0)
(-3.0732 -8.12109e-06 0)
(-3.04259 -7.88072e-06 0)
(-3.0128 -7.65146e-06 0)
(-2.98381 -7.43259e-06 0)
(-2.95557 -7.22347e-06 0)
(-2.92805 -7.02352e-06 0)
(-2.90123 -6.83218e-06 0)
(-2.87506 -6.64894e-06 0)
(-2.84954 -6.47335e-06 0)
(-2.82463 -6.30495e-06 0)
(-2.8003 -6.14336e-06 0)
(-2.77653 -5.98819e-06 0)
(-2.75331 -5.8391e-06 0)
(-2.7306 -5.69577e-06 0)
(-2.7084 -5.55788e-06 0)
(-2.68668 -5.42515e-06 0)
(-2.66542 -5.29733e-06 0)
(-2.64462 -5.17416e-06 0)
(-2.62424 -5.05542e-06 0)
(-2.60429 -4.94088e-06 0)
(-2.58473 -4.83034e-06 0)
(-2.56557 -4.72361e-06 0)
(-2.54678 -4.62052e-06 0)
(-2.52836 -4.52089e-06 0)
(-2.51029 -4.42457e-06 0)
(-2.49256 -4.33139e-06 0)
(-2.47516 -4.24124e-06 0)
(-2.45808 -4.15396e-06 0)
(-2.44131 -4.06944e-06 0)
(-2.42484 -3.98755e-06 0)
(-2.40866 -3.90819e-06 0)
(-2.39277 -3.83125e-06 0)
(-2.37715 -3.75662e-06 0)
(-2.36179 -3.68421e-06 0)
(-2.3467 -3.61394e-06 0)
(-2.33185 -3.54571e-06 0)
(-2.31725 -3.47944e-06 0)
(-2.30289 -3.41507e-06 0)
(-2.28876 -3.35251e-06 0)
(-2.27485 -3.29169e-06 0)
(-2.26117 -3.23255e-06 0)
(-2.24769 -3.17502e-06 0)
(-2.23443 -3.11905e-06 0)
(-2.22136 -3.06457e-06 0)
(-2.20849 -3.01154e-06 0)
(-2.19582 -2.9599e-06 0)
(-2.18333 -2.9096e-06 0)
(-2.17102 -2.86059e-06 0)
(-2.15889 -2.81283e-06 0)
(-2.14694 -2.76628e-06 0)
(-2.13515 -2.72088e-06 0)
(-2.12353 -2.67661e-06 0)
(-2.11207 -2.63343e-06 0)
(-2.10077 -2.5913e-06 0)
(-2.08962 -2.55018e-06 0)
(-2.07862 -2.51004e-06 0)
(-2.06777 -2.47085e-06 0)
(-2.05706 -2.43258e-06 0)
(-2.0465 -2.3952e-06 0)
(-2.03607 -2.35868e-06 0)
(-2.02577 -2.323e-06 0)
(-2.01561 -2.28812e-06 0)
(-2.00557 -2.25403e-06 0)
(-1.99566 -2.2207e-06 0)
(-1.98587 -2.1881e-06 0)
(-1.9762 -2.15622e-06 0)
(-1.96665 -2.12503e-06 0)
(-1.95722 -2.09451e-06 0)
(-1.9479 -2.06465e-06 0)
(-1.93869 -2.03542e-06 0)
(-1.92959 -2.0068e-06 0)
(-1.92059 -1.97878e-06 0)
(-1.9117 -1.95135e-06 0)
(-1.90291 -1.92447e-06 0)
(-1.89422 -1.89815e-06 0)
(-1.88563 -1.87236e-06 0)
(-1.87713 -1.84709e-06 0)
(-1.86873 -1.82232e-06 0)
(-1.86043 -1.79805e-06 0)
(-1.85221 -1.77425e-06 0)
(-1.84408 -1.75092e-06 0)
(-1.83604 -1.72804e-06 0)
(-1.82809 -1.7056e-06 0)
(-1.82022 -1.68359e-06 0)
(-1.81244 -1.66199e-06 0)
(-1.80473 -1.64081e-06 0)
(-1.79711 -1.62002e-06 0)
(-1.78956 -1.59962e-06 0)
(-1.78209 -1.5796e-06 0)
(-1.7747 -1.55994e-06 0)
(-1.76738 -1.54064e-06 0)
(-1.76013 -1.52169e-06 0)
(-1.75296 -1.50309e-06 0)
(-1.74586 -1.48481e-06 0)
(-1.73882 -1.46686e-06 0)
(-1.73186 -1.44923e-06 0)
(-1.72496 -1.4319e-06 0)
(-1.71813 -1.41488e-06 0)
(-1.71136 -1.39815e-06 0)
(-1.70466 -1.38171e-06 0)
(-1.69802 -1.36555e-06 0)
(-1.69144 -1.34967e-06 0)
(-1.68493 -1.33405e-06 0)
(-1.67847 -1.3187e-06 0)
(-1.67207 -1.3036e-06 0)
(-1.66573 -1.28876e-06 0)
(-1.65945 -1.27416e-06 0)
(-1.65323 -1.2598e-06 0)
(-1.64706 -1.24567e-06 0)
(-1.64094 -1.23177e-06 0)
(-1.63488 -1.2181e-06 0)
(-1.62887 -1.20464e-06 0)
(-1.62291 -1.1914e-06 0)
(-1.61701 -1.17837e-06 0)
(-1.61115 -1.16555e-06 0)
(-1.60535 -1.15293e-06 0)
(-1.59959 -1.14053e-06 0)
(-1.59388 -1.12819e-06 0)
(-1.58823 -1.11649e-06 0)
(-1.58261 -1.10438e-06 0)
(-1.57705 -1.09123e-06 0)
(-1.57185 -1.08105e-06 0)
(-1.56695 -1.07281e-06 0)
(-1.56205 -1.06244e-06 0)
(-1.55714 -1.05174e-06 0)
(-1.55223 -1.04172e-06 0)
(-1.54731 -1.03167e-06 0)
(-1.54239 -1.02174e-06 0)
(-1.53746 -1.01188e-06 0)
(-1.53253 -1.00208e-06 0)
(-1.52759 -9.92341e-07 0)
(-1.52265 -9.82661e-07 0)
(-1.5177 -9.73037e-07 0)
(-1.51275 -9.6347e-07 0)
(-1.50779 -9.53957e-07 0)
(-1.50283 -9.445e-07 0)
(-1.49786 -9.35099e-07 0)
(-1.49289 -9.25752e-07 0)
(-1.48792 -9.16462e-07 0)
(-1.48294 -9.07226e-07 0)
(-1.47796 -8.98047e-07 0)
(-1.47297 -8.88924e-07 0)
(-1.46799 -8.79858e-07 0)
(-1.463 -8.70847e-07 0)
(-1.45801 -8.61894e-07 0)
(-1.45301 -8.52998e-07 0)
(-1.44802 -8.44159e-07 0)
(-1.44302 -8.35378e-07 0)
(-1.43802 -8.26655e-07 0)
(-1.43302 -8.17989e-07 0)
(-1.42802 -8.09381e-07 0)
(-1.42301 -8.00832e-07 0)
(-1.41801 -7.92341e-07 0)
(-1.413 -7.83909e-07 0)
(-1.408 -7.75536e-07 0)
(-1.40299 -7.67221e-07 0)
(-1.39799 -7.58966e-07 0)
(-1.39298 -7.5077e-07 0)
(-1.38798 -7.42633e-07 0)
(-1.38297 -7.34555e-07 0)
(-1.37797 -7.26537e-07 0)
(-1.37296 -7.18578e-07 0)
(-1.36796 -7.10679e-07 0)
(-1.36296 -7.02839e-07 0)
(-1.35796 -6.9506e-07 0)
(-1.35296 -6.87339e-07 0)
(-1.34797 -6.79679e-07 0)
(-1.34298 -6.72078e-07 0)
(-1.33798 -6.64538e-07 0)
(-1.333 -6.57057e-07 0)
(-1.32801 -6.49635e-07 0)
(-1.32303 -6.42274e-07 0)
(-1.31805 -6.34972e-07 0)
(-1.31307 -6.27729e-07 0)
(-1.3081 -6.20547e-07 0)
(-1.30313 -6.13424e-07 0)
(-1.29816 -6.0636e-07 0)
(-1.2932 -5.99356e-07 0)
(-1.28824 -5.92411e-07 0)
(-1.28328 -5.85526e-07 0)
(-1.27834 -5.78699e-07 0)
(-1.27339 -5.71932e-07 0)
(-1.26845 -5.65223e-07 0)
(-1.26352 -5.58574e-07 0)
(-1.25859 -5.51983e-07 0)
(-1.25366 -5.4545e-07 0)
(-1.24874 -5.38976e-07 0)
(-1.24383 -5.3256e-07 0)
(-1.23892 -5.26202e-07 0)
(-1.23402 -5.19903e-07 0)
(-1.22912 -5.1366e-07 0)
(-1.22423 -5.07476e-07 0)
(-1.21935 -5.01349e-07 0)
(-1.21447 -4.95279e-07 0)
(-1.2096 -4.89266e-07 0)
(-1.20474 -4.83309e-07 0)
(-1.19989 -4.7741e-07 0)
(-1.19504 -4.71566e-07 0)
(-1.1902 -4.65779e-07 0)
(-1.18536 -4.60047e-07 0)
(-1.18054 -4.54372e-07 0)
(-1.17572 -4.48751e-07 0)
(-1.17091 -4.43186e-07 0)
(-1.16611 -4.37676e-07 0)
(-1.16131 -4.32221e-07 0)
(-1.15653 -4.26819e-07 0)
(-1.15175 -4.21472e-07 0)
(-1.14698 -4.16179e-07 0)
(-1.14222 -4.1094e-07 0)
(-1.13747 -4.05754e-07 0)
(-1.13273 -4.0062e-07 0)
(-1.128 -3.9554e-07 0)
(-1.12328 -3.90512e-07 0)
(-1.11856 -3.85536e-07 0)
(-1.11386 -3.80612e-07 0)
(-1.10917 -3.7574e-07 0)
(-1.10448 -3.70919e-07 0)
(-1.09981 -3.66149e-07 0)
(-1.09514 -3.6143e-07 0)
(-1.09049 -3.56761e-07 0)
(-1.08584 -3.52142e-07 0)
(-1.08121 -3.47572e-07 0)
(-1.07659 -3.43052e-07 0)
(-1.07198 -3.38582e-07 0)
(-1.06737 -3.34159e-07 0)
(-1.06278 -3.29786e-07 0)
(-1.0582 -3.2546e-07 0)
(-1.05363 -3.21182e-07 0)
(-1.04907 -3.16952e-07 0)
(-1.04453 -3.12768e-07 0)
(-1.03999 -3.08632e-07 0)
(-1.03547 -3.04542e-07 0)
(-1.03096 -3.00497e-07 0)
(-1.02645 -2.96499e-07 0)
(-1.02197 -2.92546e-07 0)
(-1.01749 -2.88638e-07 0)
(-1.01302 -2.84774e-07 0)
(-1.00857 -2.80955e-07 0)
(-1.00413 -2.7718e-07 0)
(-0.999697 -2.73449e-07 0)
(-0.995279 -2.69761e-07 0)
(-0.990874 -2.66116e-07 0)
(-0.986481 -2.62513e-07 0)
(-0.982101 -2.58953e-07 0)
(-0.977733 -2.55434e-07 0)
(-0.973378 -2.51957e-07 0)
(-0.969035 -2.48522e-07 0)
(-0.964705 -2.45127e-07 0)
(-0.960388 -2.41772e-07 0)
(-0.956084 -2.38458e-07 0)
(-0.951792 -2.35184e-07 0)
(-0.947514 -2.31949e-07 0)
(-0.943249 -2.28753e-07 0)
(-0.938996 -2.25595e-07 0)
(-0.934757 -2.22476e-07 0)
(-0.930531 -2.19396e-07 0)
(-0.926319 -2.16352e-07 0)
(-0.92212 -2.13347e-07 0)
(-0.917934 -2.10378e-07 0)
(-0.913761 -2.07445e-07 0)
(-0.909602 -2.0455e-07 0)
(-0.905457 -2.0169e-07 0)
(-0.901325 -1.98865e-07 0)
(-0.897207 -1.96076e-07 0)
(-0.893102 -1.93322e-07 0)
(-0.889012 -1.90602e-07 0)
(-0.884935 -1.87917e-07 0)
(-0.880871 -1.85265e-07 0)
(-0.876822 -1.82647e-07 0)
(-0.872786 -1.80062e-07 0)
(-0.868765 -1.77511e-07 0)
(-0.864757 -1.74991e-07 0)
(-0.860763 -1.72504e-07 0)
(-0.856784 -1.70049e-07 0)
(-0.852818 -1.67625e-07 0)
(-0.848867 -1.65233e-07 0)
(-0.844929 -1.62871e-07 0)
(-0.841006 -1.6054e-07 0)
(-0.837097 -1.5824e-07 0)
(-0.833202 -1.55969e-07 0)
(-0.829321 -1.53728e-07 0)
(-0.825454 -1.51516e-07 0)
(-0.821602 -1.49333e-07 0)
(-0.817764 -1.47179e-07 0)
(-0.81394 -1.45053e-07 0)
(-0.810131 -1.42956e-07 0)
(-0.806336 -1.40886e-07 0)
(-0.802555 -1.38843e-07 0)
(-0.798789 -1.36828e-07 0)
(-0.795037 -1.34839e-07 0)
(-0.791299 -1.32877e-07 0)
(-0.787576 -1.30941e-07 0)
(-0.783867 -1.29031e-07 0)
(-0.780173 -1.27146e-07 0)
(-0.776493 -1.25287e-07 0)
(-0.772827 -1.23452e-07 0)
(-0.769176 -1.21641e-07 0)
(-0.765539 -1.19857e-07 0)
(-0.761917 -1.18091e-07 0)
(-0.75831 -1.16315e-07 0)
(-0.754719 -1.14685e-07 0)
(-0.751135 -1.13066e-07 0)
(-0.747168 -1.11093e-07 0)
(-0.742866 -1.09001e-07 0)
(-0.738642 -1.07117e-07 0)
(-0.734487 -1.05331e-07 0)
(-0.730403 -1.03531e-07 0)
(-0.726389 -1.01767e-07 0)
(-0.722442 -1.00047e-07 0)
(-0.718563 -9.83729e-08 0)
(-0.714748 -9.6744e-08 0)
(-0.710995 -9.51584e-08 0)
(-0.707304 -9.36149e-08 0)
(-0.703673 -9.21122e-08 0)
(-0.700099 -9.06489e-08 0)
(-0.696582 -8.92237e-08 0)
(-0.69312 -8.7835e-08 0)
(-0.689712 -8.64818e-08 0)
(-0.686356 -8.51626e-08 0)
(-0.683051 -8.38764e-08 0)
(-0.679795 -8.2622e-08 0)
(-0.676588 -8.13983e-08 0)
(-0.673428 -8.02042e-08 0)
(-0.670314 -7.90389e-08 0)
(-0.667246 -7.79013e-08 0)
(-0.664221 -7.67906e-08 0)
(-0.661239 -7.57058e-08 0)
(-0.6583 -7.46461e-08 0)
(-0.655401 -7.36107e-08 0)
(-0.652542 -7.25989e-08 0)
(-0.649722 -7.16099e-08 0)
(-0.646941 -7.0643e-08 0)
(-0.644197 -6.96975e-08 0)
(-0.641489 -6.87728e-08 0)
(-0.638817 -6.78682e-08 0)
(-0.636181 -6.69832e-08 0)
(-0.633578 -6.61171e-08 0)
(-0.631009 -6.52695e-08 0)
(-0.628473 -6.44397e-08 0)
(-0.625969 -6.36272e-08 0)
(-0.623496 -6.28316e-08 0)
(-0.621055 -6.20523e-08 0)
(-0.618643 -6.1289e-08 0)
(-0.616261 -6.05411e-08 0)
(-0.613908 -5.98083e-08 0)
(-0.611583 -5.90901e-08 0)
(-0.609286 -5.83861e-08 0)
(-0.607016 -5.76959e-08 0)
(-0.604773 -5.70193e-08 0)
(-0.602556 -5.63557e-08 0)
(-0.600365 -5.5705e-08 0)
(-0.598199 -5.50666e-08 0)
(-0.596058 -5.44405e-08 0)
(-0.593941 -5.38261e-08 0)
(-0.591848 -5.32232e-08 0)
(-0.589778 -5.26316e-08 0)
(-0.587732 -5.20509e-08 0)
(-0.585707 -5.1481e-08 0)
(-0.583705 -5.09214e-08 0)
(-0.581725 -5.03721e-08 0)
(-0.579765 -4.98327e-08 0)
(-0.577827 -4.93031e-08 0)
(-0.575909 -4.87829e-08 0)
(-0.574011 -4.82721e-08 0)
(-0.572134 -4.77703e-08 0)
(-0.570275 -4.72775e-08 0)
(-0.568436 -4.67934e-08 0)
(-0.566615 -4.63179e-08 0)
(-0.564813 -4.58508e-08 0)
(-0.563029 -4.53919e-08 0)
(-0.561263 -4.49412e-08 0)
(-0.559514 -4.44985e-08 0)
(-0.557783 -4.40637e-08 0)
(-0.556068 -4.36367e-08 0)
(-0.55437 -4.32175e-08 0)
(-0.552688 -4.28061e-08 0)
(-0.551022 -4.24024e-08 0)
(-0.549371 -4.20065e-08 0)
(-0.547736 -4.16184e-08 0)
(-0.546116 -4.12385e-08 0)
(-0.544511 -4.08669e-08 0)
(-0.54292 -4.05041e-08 0)
(-0.541343 -4.01506e-08 0)
(-0.53978 -3.98074e-08 0)
(-0.53823 -3.94758e-08 0)
(-0.536692 -3.91572e-08 0)
(-0.535167 -3.88545e-08 0)
(-0.533654 -3.85797e-08 0)
(-0.53215 -3.83057e-08 0)
(-0.530658 -3.80863e-08 0)
(-0.529171 -3.81337e-08 0)
(-0.527675 -3.75001e-08 0)
(-0.526238 -3.66321e-08 0)
(-0.52481 -4.84649e-08 0)
(-0.522448 -1.33596e-08 0)
(-0.523776 -3.56478e-08 0)
(-0.519617 -5.41053e-08 0)
)
;
    }
    symmetry
    {
        type            symmetryPlane;
    }
    frontAndBack
    {
        type            empty;
    }
}


// ************************************************************************* //
