/*--------------------------------*- C++ -*----------------------------------*\
| =========                 |                                                 |
| \\      /  F ield         | OpenFOAM: The Open Source CFD Toolbox           |
|  \\    /   O peration     | Version:  v2012                                 |
|   \\  /    A nd           | Website:  www.openfoam.com                      |
|    \\/     M anipulation  |                                                 |
\*---------------------------------------------------------------------------*/
FoamFile
{
    version     2.0;
    format      ascii;
    class       volScalarField;
    location    "32.5";
    object      yPlus;
}
// * * * * * * * * * * * * * * * * * * * * * * * * * * * * * * * * * * * * * //

dimensions      [0 0 0 0 0 0 0];


internalField   uniform 0;

boundaryField
{
    inlet
    {
        type            calculated;
        value           uniform 0;
    }
    outlet
    {
        type            calculated;
        value           uniform 0;
    }
    topWall
    {
        type            calculated;
        value           nonuniform List<scalar> 
545
(
0.0708002
0.122081
0.156612
0.184082
0.207325
0.227649
0.245788
0.262205
0.277215
0.291043
0.303861
0.315798
0.326961
0.337434
0.347287
0.356579
0.365361
0.373676
0.381562
0.38905
0.396172
0.402952
0.409413
0.415578
0.421463
0.427088
0.432467
0.437614
0.442544
0.447267
0.451795
0.456139
0.460308
0.464311
0.468157
0.471853
0.475406
0.478823
0.482112
0.485277
0.488324
0.491259
0.494087
0.496812
0.499439
0.501973
0.504416
0.506774
0.509049
0.511245
0.513365
0.515412
0.51739
0.519301
0.521147
0.522932
0.524657
0.526325
0.527938
0.529498
0.531007
0.532468
0.533881
0.535249
0.536573
0.537854
0.539096
0.540298
0.541462
0.54259
0.543682
0.544741
0.545753
0.546732
0.547702
0.548663
0.549616
0.55056
0.551496
0.552423
0.553342
0.554253
0.555156
0.556051
0.556938
0.557818
0.558689
0.559553
0.560409
0.561258
0.562099
0.562933
0.56376
0.56458
0.565392
0.566198
0.566923
0.567571
0.568218
0.568864
0.56951
0.570156
0.5708
0.571444
0.572088
0.57273
0.573372
0.574013
0.574654
0.575293
0.575932
0.576571
0.577208
0.577845
0.578481
0.579117
0.579751
0.580385
0.581018
0.58165
0.582281
0.582912
0.583542
0.584171
0.584799
0.585426
0.586053
0.586678
0.587303
0.587927
0.58855
0.589172
0.589793
0.590414
0.591033
0.591652
0.592269
0.592886
0.593502
0.594116
0.59473
0.595343
0.595955
0.596566
0.597176
0.597785
0.598393
0.599
0.599606
0.600211
0.600814
0.601417
0.602019
0.60262
0.603219
0.603818
0.604415
0.605012
0.605607
0.606201
0.606794
0.607386
0.607977
0.608567
0.609155
0.609742
0.610328
0.610913
0.611497
0.61208
0.612661
0.613241
0.61382
0.614397
0.614974
0.615549
0.616123
0.616695
0.617267
0.617837
0.618405
0.618973
0.619539
0.620103
0.620667
0.621229
0.621789
0.622349
0.622907
0.623463
0.624018
0.624572
0.625124
0.625675
0.626224
0.626772
0.627319
0.627864
0.628407
0.628949
0.62949
0.630029
0.630566
0.631102
0.631637
0.63217
0.632701
0.633231
0.633759
0.634286
0.634811
0.635334
0.635856
0.636376
0.636894
0.637411
0.637926
0.63844
0.638952
0.639462
0.63997
0.640477
0.640982
0.641485
0.641986
0.642486
0.642984
0.64348
0.643975
0.644467
0.644958
0.645447
0.645934
0.646419
0.646903
0.647385
0.647864
0.648342
0.648818
0.649292
0.649764
0.650234
0.650703
0.651169
0.651633
0.652096
0.652556
0.653014
0.653471
0.653925
0.654377
0.654828
0.655276
0.655722
0.656166
0.656609
0.657049
0.657486
0.657922
0.658356
0.658787
0.659217
0.659644
0.660069
0.660492
0.660913
0.661331
0.661748
0.662162
0.662551
0.662917
0.663284
0.663652
0.664022
0.664393
0.664766
0.665139
0.665514
0.66589
0.666267
0.666645
0.667024
0.667404
0.667785
0.668166
0.668549
0.668932
0.669315
0.6697
0.670085
0.67047
0.670856
0.671243
0.671629
0.672016
0.672403
0.67279
0.673177
0.673564
0.673951
0.674338
0.674725
0.675111
0.675497
0.675882
0.676266
0.67665
0.677033
0.677416
0.677797
0.678177
0.678556
0.678933
0.67931
0.679684
0.680058
0.680429
0.680798
0.681166
0.681531
0.681895
0.682256
0.682614
0.68297
0.683323
0.683674
0.684021
0.684365
0.684706
0.685044
0.685378
0.685708
0.686035
0.686357
0.686675
0.686989
0.687299
0.687604
0.687904
0.688199
0.688488
0.688773
0.689052
0.689325
0.689592
0.689854
0.690109
0.690358
0.6906
0.690835
0.691063
0.691284
0.691497
0.691703
0.691901
0.692091
0.692273
0.692446
0.692611
0.692767
0.692913
0.693051
0.693178
0.693297
0.693405
0.693502
0.69359
0.693667
0.693733
0.693787
0.693831
0.693863
0.693883
0.693891
0.693887
0.69387
0.693841
0.693798
0.693743
0.693674
0.693591
0.693495
0.693384
0.69326
0.69312
0.692966
0.692797
0.692613
0.692413
0.692198
0.691967
0.69172
0.691456
0.691176
0.69088
0.690566
0.690236
0.689888
0.689523
0.68914
0.68874
0.688322
0.687885
0.687431
0.686958
0.686466
0.685956
0.685427
0.684879
0.684312
0.683726
0.68312
0.682495
0.681851
0.681188
0.680504
0.679801
0.679079
0.678336
0.677574
0.676793
0.675991
0.67517
0.674328
0.673468
0.672587
0.671687
0.670767
0.669827
0.668868
0.66789
0.666892
0.665876
0.66484
0.663785
0.662712
0.66162
0.660509
0.659381
0.658234
0.65707
0.655888
0.654689
0.653472
0.652239
0.65099
0.649724
0.648442
0.647145
0.645833
0.644356
0.642723
0.641091
0.639461
0.637833
0.636209
0.63459
0.632975
0.631366
0.629764
0.628169
0.626581
0.625002
0.623432
0.621871
0.62032
0.61878
0.617251
0.615733
0.614227
0.612733
0.611252
0.609784
0.60833
0.606889
0.605462
0.60405
0.602652
0.60127
0.599902
0.59855
0.597214
0.595894
0.59459
0.593303
0.592032
0.590779
0.589542
0.588323
0.587121
0.585937
0.584771
0.583623
0.582494
0.581383
0.58029
0.579216
0.578162
0.577126
0.576109
0.575113
0.574135
0.573177
0.57224
0.571322
0.570424
0.569547
0.56869
0.567854
0.567039
0.566244
0.565471
0.564718
0.563987
0.563278
0.56259
0.561923
0.561279
0.560656
0.560056
0.559477
0.558921
0.558387
0.557876
0.557387
0.556922
0.556478
0.556058
0.555661
0.555287
0.554936
0.554608
0.554304
0.554023
0.553766
0.553532
0.553321
0.553135
0.552972
0.552832
0.552717
0.552625
0.552556
0.552515
0.552484
)
;
    }
    bottomWall
    {
        type            calculated;
        value           nonuniform List<scalar> 
449
(
0.139464
0.0889676
0.075816
0.0694436
0.0652601
0.0621334
0.0596383
0.0575746
0.0558235
0.0543072
0.0529734
0.0517857
0.0507177
0.049749
0.0488643
0.048051
0.0472994
0.0466015
0.0459507
0.0453414
0.0447692
0.0442301
0.0437208
0.0432383
0.0427803
0.0423446
0.0419292
0.0415324
0.0411529
0.0407893
0.0404403
0.040105
0.0397824
0.0394717
0.039172
0.0388827
0.0386031
0.0383327
0.0380708
0.0378171
0.037571
0.0373322
0.0371003
0.0368748
0.0366556
0.0364422
0.0362344
0.0360319
0.0358344
0.0356419
0.0354539
0.0352704
0.0350911
0.0349159
0.0347446
0.034577
0.034413
0.0342524
0.0340952
0.0339411
0.0337901
0.033642
0.0334969
0.0333544
0.0332146
0.0330774
0.0329426
0.0328103
0.0326802
0.0325524
0.0324268
0.0323033
0.0321818
0.0320622
0.0319446
0.0318289
0.0317149
0.0316027
0.0314922
0.0313834
0.0312762
0.0311705
0.0310663
0.0309637
0.0308624
0.0307626
0.0306641
0.030567
0.0304711
0.0303766
0.0302832
0.0301911
0.0301001
0.0300103
0.0299216
0.029834
0.0297475
0.029662
0.0295775
0.029494
0.0294115
0.02933
0.0292494
0.0291697
0.0290908
0.0290129
0.0289358
0.0288596
0.0287841
0.0287095
0.0286357
0.0285626
0.0284903
0.0284187
0.0283479
0.0282778
0.0282083
0.0281396
0.0280715
0.0280041
0.0279373
0.0278712
0.0278057
0.0277408
0.0276765
0.0276128
0.0275497
0.0274872
0.0274252
0.0273638
0.0273029
0.0272425
0.0271827
0.0271234
0.0270646
0.0270062
0.0269484
0.0268911
0.0268342
0.0267778
0.0267219
0.0266664
0.0266114
0.0265567
0.0265026
0.0264488
0.0263955
0.0263426
0.0262901
0.026238
0.0261862
0.0261349
0.026084
0.0260334
0.0259832
0.0259334
0.0258839
0.0258348
0.025786
0.0257376
0.0256895
0.0256418
0.0255944
0.0255473
0.0255006
0.0254541
0.025408
0.0253622
0.0253167
0.0252715
0.0252266
0.0251819
0.0251376
0.0250961
0.025057
0.0250178
0.0249785
0.0249391
0.0248995
0.0248599
0.0248202
0.0247803
0.0247403
0.0247003
0.0246601
0.0246198
0.0245795
0.024539
0.0244984
0.0244577
0.0244169
0.0243761
0.0243351
0.024294
0.0242529
0.0242116
0.0241703
0.0241289
0.0240873
0.0240457
0.024004
0.0239623
0.0239204
0.0238785
0.0238364
0.0237943
0.0237522
0.0237099
0.0236676
0.0236251
0.0235827
0.0235401
0.0234975
0.0234548
0.023412
0.0233692
0.0233263
0.0232833
0.0232403
0.0231972
0.0231541
0.0231109
0.0230676
0.0230243
0.0229809
0.0229375
0.022894
0.0228505
0.0228069
0.0227633
0.0227196
0.0226758
0.0226321
0.0225883
0.0225444
0.0225005
0.0224566
0.0224126
0.0223686
0.0223245
0.0222804
0.0222363
0.0221922
0.022148
0.0221038
0.0220595
0.0220153
0.021971
0.0219266
0.0218823
0.0218379
0.0217935
0.0217491
0.0217047
0.0216603
0.0216158
0.0215713
0.0215268
0.0214823
0.0214378
0.0213933
0.0213488
0.0213042
0.0212597
0.0212151
0.0211706
0.021126
0.0210814
0.0210369
0.0209923
0.0209478
0.0209032
0.0208586
0.0208141
0.0207695
0.020725
0.0206805
0.0206359
0.0205914
0.0205469
0.0205024
0.0204579
0.0204135
0.020369
0.0203246
0.0202802
0.0202358
0.0201914
0.020147
0.0201027
0.0200584
0.0200141
0.0199698
0.0199256
0.0198814
0.0198372
0.019793
0.0197489
0.0197048
0.0196607
0.0196167
0.0195727
0.0195287
0.0194848
0.0194408
0.019397
0.0193531
0.0193093
0.0192656
0.0192219
0.0191782
0.0191346
0.019091
0.0190474
0.0190039
0.0189604
0.018917
0.0188736
0.0188303
0.018787
0.0187438
0.0187006
0.0186575
0.0186144
0.0185714
0.0185284
0.0184855
0.0184426
0.0183998
0.018357
0.0183143
0.0182716
0.018229
0.0181865
0.018144
0.0181016
0.0180592
0.0180169
0.0179746
0.0179324
0.0178903
0.0178483
0.0178062
0.0177643
0.0177224
0.0176806
0.0176389
0.0175972
0.0175556
0.017514
0.0174725
0.0174311
0.0173898
0.0173485
0.0173026
0.0172527
0.0172036
0.0171551
0.0171074
0.0170603
0.0170139
0.0169681
0.016923
0.0168786
0.0168347
0.0167914
0.0167487
0.0167066
0.016665
0.016624
0.0165835
0.0165435
0.0165041
0.0164651
0.0164266
0.0163886
0.016351
0.0163139
0.0162773
0.016241
0.0162052
0.0161699
0.0161349
0.0161003
0.0160661
0.0160323
0.0159989
0.0159659
0.0159332
0.0159008
0.0158688
0.0158372
0.0158059
0.0157749
0.0157443
0.0157139
0.0156839
0.0156542
0.0156247
0.0155956
0.0155668
0.0155382
0.0155099
0.0154819
0.0154542
0.0154267
0.0153995
0.0153726
0.0153459
0.0153194
0.0152932
0.0152672
0.0152415
0.015216
0.0151907
0.0151657
0.0151409
0.0151163
0.0150919
0.0150677
0.0150437
0.0150199
0.0149963
0.014973
0.0149498
0.0149268
0.014904
0.0148813
0.0148589
0.0148366
0.0148145
0.0147926
0.0147708
0.0147493
0.0147278
0.0147065
0.0146854
0.0146644
0.0146436
0.0146228
0.0146022
0.0145817
0.0145613
0.0145407
0.0145209
0.0145012
0.0144685
0.0144869
0.0144292
)
;
    }
    symmetry
    {
        type            symmetryPlane;
    }
    frontAndBack
    {
        type            empty;
    }
}


// ************************************************************************* //
