/*--------------------------------*- C++ -*----------------------------------*\
| =========                 |                                                 |
| \\      /  F ield         | OpenFOAM: The Open Source CFD Toolbox           |
|  \\    /   O peration     | Version:  v2012                                 |
|   \\  /    A nd           | Website:  www.openfoam.com                      |
|    \\/     M anipulation  |                                                 |
\*---------------------------------------------------------------------------*/
FoamFile
{
    version     2.0;
    format      ascii;
    class       volVectorField;
    location    "10.5";
    object      wallShearStress;
}
// * * * * * * * * * * * * * * * * * * * * * * * * * * * * * * * * * * * * * //

dimensions      [0 2 -2 0 0 0 0];


internalField   uniform (0 0 0);

boundaryField
{
    inlet
    {
        type            calculated;
        value           uniform (0 0 0);
    }
    outlet
    {
        type            calculated;
        value           uniform (0 0 0);
    }
    topWall
    {
        type            calculated;
        value           nonuniform List<vector> 
545
(
(1.25688e-08 -8.83724e-09 0)
(1.25697e-08 -2.47661e-08 0)
(1.25378e-08 -4.12902e-08 0)
(1.25133e-08 -5.73224e-08 0)
(1.24864e-08 -7.26539e-08 0)
(1.24554e-08 -8.74807e-08 0)
(1.24201e-08 -1.01929e-07 0)
(1.23807e-08 -1.15992e-07 0)
(1.23376e-08 -1.29636e-07 0)
(1.2291e-08 -1.42861e-07 0)
(1.22415e-08 -1.55684e-07 0)
(1.21892e-08 -1.68119e-07 0)
(1.21344e-08 -1.80174e-07 0)
(1.20776e-08 -1.91858e-07 0)
(1.20188e-08 -2.03178e-07 0)
(1.19585e-08 -2.14146e-07 0)
(1.18967e-08 -2.2477e-07 0)
(1.18337e-08 -2.35059e-07 0)
(1.17697e-08 -2.45024e-07 0)
(1.1705e-08 -2.54673e-07 0)
(1.16395e-08 -2.64016e-07 0)
(1.15736e-08 -2.73061e-07 0)
(1.15073e-08 -2.81817e-07 0)
(1.14408e-08 -2.90293e-07 0)
(1.13743e-08 -2.98498e-07 0)
(1.13077e-08 -3.0644e-07 0)
(1.12412e-08 -3.14127e-07 0)
(1.1175e-08 -3.21568e-07 0)
(1.1109e-08 -3.28769e-07 0)
(1.10435e-08 -3.35739e-07 0)
(1.09783e-08 -3.42486e-07 0)
(1.09137e-08 -3.49016e-07 0)
(1.08497e-08 -3.55336e-07 0)
(1.07862e-08 -3.61453e-07 0)
(1.07234e-08 -3.67375e-07 0)
(1.06613e-08 -3.73107e-07 0)
(1.05999e-08 -3.78655e-07 0)
(1.05393e-08 -3.84026e-07 0)
(1.04795e-08 -3.89226e-07 0)
(1.04205e-08 -3.9426e-07 0)
(1.03623e-08 -3.99134e-07 0)
(1.0305e-08 -4.03853e-07 0)
(1.02485e-08 -4.08422e-07 0)
(1.01929e-08 -4.12846e-07 0)
(1.01382e-08 -4.17131e-07 0)
(1.00843e-08 -4.2128e-07 0)
(1.00314e-08 -4.25298e-07 0)
(9.97933e-09 -4.29191e-07 0)
(9.92816e-09 -4.32961e-07 0)
(9.87787e-09 -4.36612e-07 0)
(9.82846e-09 -4.4015e-07 0)
(9.77993e-09 -4.43577e-07 0)
(9.73227e-09 -4.46898e-07 0)
(9.68547e-09 -4.50115e-07 0)
(9.63952e-09 -4.53232e-07 0)
(9.59442e-09 -4.56253e-07 0)
(9.55015e-09 -4.59181e-07 0)
(9.5067e-09 -4.62019e-07 0)
(9.46407e-09 -4.64769e-07 0)
(9.42223e-09 -4.67434e-07 0)
(9.38118e-09 -4.70018e-07 0)
(9.3409e-09 -4.72523e-07 0)
(9.30137e-09 -4.74952e-07 0)
(9.26259e-09 -4.77306e-07 0)
(9.22453e-09 -4.79589e-07 0)
(9.18719e-09 -4.81803e-07 0)
(9.15055e-09 -4.8395e-07 0)
(9.11458e-09 -4.86032e-07 0)
(9.07931e-09 -4.88051e-07 0)
(9.04457e-09 -4.90008e-07 0)
(9.01095e-09 -4.91913e-07 0)
(8.97592e-09 -4.93743e-07 0)
(8.9425e-09 -4.95508e-07 0)
(8.91319e-09 -4.97234e-07 0)
(8.88414e-09 -4.98917e-07 0)
(8.85519e-09 -5.0059e-07 0)
(8.8263e-09 -5.02258e-07 0)
(8.79747e-09 -5.03914e-07 0)
(8.76869e-09 -5.05555e-07 0)
(8.73996e-09 -5.07182e-07 0)
(8.71129e-09 -5.08797e-07 0)
(8.68267e-09 -5.104e-07 0)
(8.65411e-09 -5.1199e-07 0)
(8.62561e-09 -5.13567e-07 0)
(8.59716e-09 -5.15132e-07 0)
(8.56878e-09 -5.16685e-07 0)
(8.54045e-09 -5.18226e-07 0)
(8.51219e-09 -5.19754e-07 0)
(8.48399e-09 -5.2127e-07 0)
(8.45584e-09 -5.22775e-07 0)
(8.42777e-09 -5.24268e-07 0)
(8.39972e-09 -5.25747e-07 0)
(8.37194e-09 -5.27221e-07 0)
(8.3433e-09 -5.28667e-07 0)
(8.3187e-09 -5.30164e-07 0)
(8.27731e-09 -5.31519e-07 0)
(8.23255e-09 -5.32778e-07 0)
(8.20807e-09 -5.3405e-07 0)
(8.18563e-09 -5.35176e-07 0)
(8.16362e-09 -5.3629e-07 0)
(8.14165e-09 -5.37435e-07 0)
(8.11962e-09 -5.38594e-07 0)
(8.09752e-09 -5.39748e-07 0)
(8.07533e-09 -5.40895e-07 0)
(8.05306e-09 -5.42042e-07 0)
(8.03071e-09 -5.43189e-07 0)
(8.00828e-09 -5.44337e-07 0)
(7.98577e-09 -5.45484e-07 0)
(7.96317e-09 -5.4663e-07 0)
(7.94049e-09 -5.47776e-07 0)
(7.91772e-09 -5.48921e-07 0)
(7.89487e-09 -5.50065e-07 0)
(7.87194e-09 -5.51209e-07 0)
(7.84893e-09 -5.52352e-07 0)
(7.82583e-09 -5.53495e-07 0)
(7.80266e-09 -5.54637e-07 0)
(7.77939e-09 -5.55778e-07 0)
(7.75605e-09 -5.56918e-07 0)
(7.73262e-09 -5.58058e-07 0)
(7.70911e-09 -5.59197e-07 0)
(7.68551e-09 -5.60335e-07 0)
(7.66183e-09 -5.61472e-07 0)
(7.63807e-09 -5.62608e-07 0)
(7.61423e-09 -5.63744e-07 0)
(7.5903e-09 -5.64879e-07 0)
(7.56629e-09 -5.66012e-07 0)
(7.5422e-09 -5.67145e-07 0)
(7.51802e-09 -5.68277e-07 0)
(7.49376e-09 -5.69408e-07 0)
(7.46942e-09 -5.70538e-07 0)
(7.44499e-09 -5.71667e-07 0)
(7.42048e-09 -5.72795e-07 0)
(7.39589e-09 -5.73921e-07 0)
(7.37121e-09 -5.75047e-07 0)
(7.34646e-09 -5.76171e-07 0)
(7.32161e-09 -5.77295e-07 0)
(7.29669e-09 -5.78417e-07 0)
(7.27169e-09 -5.79538e-07 0)
(7.2466e-09 -5.80658e-07 0)
(7.22143e-09 -5.81776e-07 0)
(7.19617e-09 -5.82894e-07 0)
(7.17084e-09 -5.8401e-07 0)
(7.14542e-09 -5.85124e-07 0)
(7.11992e-09 -5.86237e-07 0)
(7.09433e-09 -5.87349e-07 0)
(7.06867e-09 -5.8846e-07 0)
(7.04292e-09 -5.89569e-07 0)
(7.01709e-09 -5.90677e-07 0)
(6.99118e-09 -5.91783e-07 0)
(6.96519e-09 -5.92888e-07 0)
(6.93912e-09 -5.93991e-07 0)
(6.91296e-09 -5.95092e-07 0)
(6.88673e-09 -5.96192e-07 0)
(6.86041e-09 -5.97291e-07 0)
(6.83401e-09 -5.98388e-07 0)
(6.80753e-09 -5.99483e-07 0)
(6.78097e-09 -6.00576e-07 0)
(6.75433e-09 -6.01668e-07 0)
(6.72761e-09 -6.02758e-07 0)
(6.70081e-09 -6.03846e-07 0)
(6.67393e-09 -6.04933e-07 0)
(6.64697e-09 -6.06017e-07 0)
(6.61993e-09 -6.071e-07 0)
(6.59281e-09 -6.08181e-07 0)
(6.56561e-09 -6.0926e-07 0)
(6.53833e-09 -6.10337e-07 0)
(6.51098e-09 -6.11412e-07 0)
(6.48354e-09 -6.12485e-07 0)
(6.45602e-09 -6.13556e-07 0)
(6.42843e-09 -6.14625e-07 0)
(6.40076e-09 -6.15692e-07 0)
(6.37301e-09 -6.16757e-07 0)
(6.34519e-09 -6.17819e-07 0)
(6.31728e-09 -6.1888e-07 0)
(6.2893e-09 -6.19938e-07 0)
(6.26124e-09 -6.20995e-07 0)
(6.23311e-09 -6.22048e-07 0)
(6.2049e-09 -6.231e-07 0)
(6.17661e-09 -6.24149e-07 0)
(6.14825e-09 -6.25196e-07 0)
(6.11981e-09 -6.26241e-07 0)
(6.0913e-09 -6.27283e-07 0)
(6.06271e-09 -6.28323e-07 0)
(6.03405e-09 -6.2936e-07 0)
(6.00531e-09 -6.30395e-07 0)
(5.9765e-09 -6.31427e-07 0)
(5.94762e-09 -6.32457e-07 0)
(5.91866e-09 -6.33484e-07 0)
(5.88963e-09 -6.34508e-07 0)
(5.86053e-09 -6.3553e-07 0)
(5.83135e-09 -6.3655e-07 0)
(5.8021e-09 -6.37566e-07 0)
(5.77278e-09 -6.3858e-07 0)
(5.74339e-09 -6.39591e-07 0)
(5.71393e-09 -6.40599e-07 0)
(5.6844e-09 -6.41605e-07 0)
(5.6548e-09 -6.42607e-07 0)
(5.62512e-09 -6.43607e-07 0)
(5.59538e-09 -6.44603e-07 0)
(5.56557e-09 -6.45597e-07 0)
(5.53569e-09 -6.46588e-07 0)
(5.50575e-09 -6.47576e-07 0)
(5.47573e-09 -6.4856e-07 0)
(5.44565e-09 -6.49542e-07 0)
(5.4155e-09 -6.50521e-07 0)
(5.38529e-09 -6.51496e-07 0)
(5.35501e-09 -6.52468e-07 0)
(5.32466e-09 -6.53437e-07 0)
(5.29425e-09 -6.54403e-07 0)
(5.26377e-09 -6.55365e-07 0)
(5.23323e-09 -6.56324e-07 0)
(5.20263e-09 -6.5728e-07 0)
(5.17196e-09 -6.58233e-07 0)
(5.14124e-09 -6.59182e-07 0)
(5.11044e-09 -6.60127e-07 0)
(5.07959e-09 -6.61069e-07 0)
(5.04868e-09 -6.62008e-07 0)
(5.01771e-09 -6.62943e-07 0)
(4.98667e-09 -6.63875e-07 0)
(4.95558e-09 -6.64803e-07 0)
(4.92443e-09 -6.65727e-07 0)
(4.89322e-09 -6.66647e-07 0)
(4.86195e-09 -6.67564e-07 0)
(4.83062e-09 -6.68477e-07 0)
(4.79924e-09 -6.69387e-07 0)
(4.76781e-09 -6.70292e-07 0)
(4.73631e-09 -6.71194e-07 0)
(4.70477e-09 -6.72092e-07 0)
(4.67317e-09 -6.72986e-07 0)
(4.64151e-09 -6.73876e-07 0)
(4.6098e-09 -6.74762e-07 0)
(4.57804e-09 -6.75644e-07 0)
(4.54623e-09 -6.76522e-07 0)
(4.51437e-09 -6.77396e-07 0)
(4.48246e-09 -6.78266e-07 0)
(4.45049e-09 -6.79131e-07 0)
(4.41848e-09 -6.79993e-07 0)
(4.38642e-09 -6.8085e-07 0)
(4.35432e-09 -6.81703e-07 0)
(4.32216e-09 -6.82552e-07 0)
(4.28996e-09 -6.83396e-07 0)
(4.25772e-09 -6.84236e-07 0)
(4.22543e-09 -6.85072e-07 0)
(4.19309e-09 -6.85903e-07 0)
(4.16071e-09 -6.8673e-07 0)
(4.12829e-09 -6.87553e-07 0)
(4.09583e-09 -6.88371e-07 0)
(4.06333e-09 -6.89184e-07 0)
(4.03079e-09 -6.89993e-07 0)
(3.9982e-09 -6.90797e-07 0)
(3.96558e-09 -6.91596e-07 0)
(3.93292e-09 -6.92391e-07 0)
(3.90023e-09 -6.93181e-07 0)
(3.8675e-09 -6.93966e-07 0)
(3.83473e-09 -6.94747e-07 0)
(3.80193e-09 -6.95522e-07 0)
(3.76909e-09 -6.96293e-07 0)
(3.73622e-09 -6.97059e-07 0)
(3.70332e-09 -6.9782e-07 0)
(3.67038e-09 -6.98576e-07 0)
(3.63742e-09 -6.99327e-07 0)
(3.60443e-09 -7.00073e-07 0)
(3.57141e-09 -7.00814e-07 0)
(3.53836e-09 -7.0155e-07 0)
(3.50526e-09 -7.02279e-07 0)
(3.47227e-09 -7.03009e-07 0)
(3.43866e-09 -7.03718e-07 0)
(3.4075e-09 -7.04485e-07 0)
(3.36576e-09 -7.05122e-07 0)
(3.32188e-09 -7.05744e-07 0)
(3.29117e-09 -7.06475e-07 0)
(3.2623e-09 -7.07085e-07 0)
(3.2337e-09 -7.07676e-07 0)
(3.20492e-09 -7.08293e-07 0)
(3.17588e-09 -7.08926e-07 0)
(3.14654e-09 -7.09557e-07 0)
(3.11691e-09 -7.10184e-07 0)
(3.08698e-09 -7.1081e-07 0)
(3.05675e-09 -7.11439e-07 0)
(3.02621e-09 -7.12068e-07 0)
(2.99537e-09 -7.12698e-07 0)
(2.96422e-09 -7.13328e-07 0)
(2.93277e-09 -7.13958e-07 0)
(2.90101e-09 -7.14588e-07 0)
(2.86894e-09 -7.15218e-07 0)
(2.83657e-09 -7.15848e-07 0)
(2.80389e-09 -7.16477e-07 0)
(2.7709e-09 -7.17106e-07 0)
(2.7376e-09 -7.17734e-07 0)
(2.70398e-09 -7.18361e-07 0)
(2.67006e-09 -7.18987e-07 0)
(2.63583e-09 -7.19612e-07 0)
(2.60128e-09 -7.20236e-07 0)
(2.56643e-09 -7.20857e-07 0)
(2.53126e-09 -7.21477e-07 0)
(2.49578e-09 -7.22096e-07 0)
(2.45999e-09 -7.22712e-07 0)
(2.42389e-09 -7.23325e-07 0)
(2.38748e-09 -7.23936e-07 0)
(2.35075e-09 -7.24544e-07 0)
(2.31372e-09 -7.2515e-07 0)
(2.27637e-09 -7.25752e-07 0)
(2.23872e-09 -7.26351e-07 0)
(2.20076e-09 -7.26946e-07 0)
(2.16249e-09 -7.27537e-07 0)
(2.12391e-09 -7.28124e-07 0)
(2.08503e-09 -7.28707e-07 0)
(2.04585e-09 -7.29285e-07 0)
(2.00636e-09 -7.29858e-07 0)
(1.96657e-09 -7.30426e-07 0)
(1.92648e-09 -7.30989e-07 0)
(1.88609e-09 -7.31546e-07 0)
(1.8454e-09 -7.32097e-07 0)
(1.80442e-09 -7.32642e-07 0)
(1.76315e-09 -7.3318e-07 0)
(1.72159e-09 -7.33712e-07 0)
(1.67974e-09 -7.34236e-07 0)
(1.6376e-09 -7.34753e-07 0)
(1.59519e-09 -7.35262e-07 0)
(1.55249e-09 -7.35764e-07 0)
(1.50952e-09 -7.36257e-07 0)
(1.46627e-09 -7.36741e-07 0)
(1.42276e-09 -7.37216e-07 0)
(1.37898e-09 -7.37682e-07 0)
(1.33494e-09 -7.38138e-07 0)
(1.29064e-09 -7.38584e-07 0)
(1.24608e-09 -7.39019e-07 0)
(1.20128e-09 -7.39444e-07 0)
(1.15623e-09 -7.39857e-07 0)
(1.11095e-09 -7.40259e-07 0)
(1.06543e-09 -7.40649e-07 0)
(1.01968e-09 -7.41027e-07 0)
(9.73702e-10 -7.41392e-07 0)
(9.27509e-10 -7.41744e-07 0)
(8.81105e-10 -7.42082e-07 0)
(8.34495e-10 -7.42406e-07 0)
(7.87686e-10 -7.42716e-07 0)
(7.40685e-10 -7.43011e-07 0)
(6.93497e-10 -7.43291e-07 0)
(6.46132e-10 -7.43555e-07 0)
(5.98595e-10 -7.43803e-07 0)
(5.50895e-10 -7.44034e-07 0)
(5.0304e-10 -7.44248e-07 0)
(4.55038e-10 -7.44445e-07 0)
(4.06897e-10 -7.44624e-07 0)
(3.58627e-10 -7.44785e-07 0)
(3.10236e-10 -7.44926e-07 0)
(2.61734e-10 -7.45048e-07 0)
(2.1313e-10 -7.45151e-07 0)
(1.64435e-10 -7.45232e-07 0)
(1.15658e-10 -7.45294e-07 0)
(6.68101e-11 -7.45333e-07 0)
(1.7902e-11 -7.45351e-07 0)
(-3.10553e-11 -7.45347e-07 0)
(-8.00504e-11 -7.45319e-07 0)
(-1.29072e-10 -7.45269e-07 0)
(-1.78107e-10 -7.45194e-07 0)
(-2.27145e-10 -7.45095e-07 0)
(-2.76172e-10 -7.44971e-07 0)
(-3.25175e-10 -7.44822e-07 0)
(-3.74142e-10 -7.44646e-07 0)
(-4.2306e-10 -7.44444e-07 0)
(-4.71914e-10 -7.44216e-07 0)
(-5.2069e-10 -7.43959e-07 0)
(-5.69375e-10 -7.43675e-07 0)
(-6.17954e-10 -7.43362e-07 0)
(-6.66412e-10 -7.43019e-07 0)
(-7.14733e-10 -7.42647e-07 0)
(-7.62904e-10 -7.42245e-07 0)
(-8.10907e-10 -7.41813e-07 0)
(-8.58728e-10 -7.41349e-07 0)
(-9.0635e-10 -7.40853e-07 0)
(-9.53756e-10 -7.40325e-07 0)
(-1.00093e-09 -7.39764e-07 0)
(-1.04786e-09 -7.3917e-07 0)
(-1.09452e-09 -7.38542e-07 0)
(-1.1409e-09 -7.3788e-07 0)
(-1.18697e-09 -7.37183e-07 0)
(-1.23273e-09 -7.3645e-07 0)
(-1.27816e-09 -7.35682e-07 0)
(-1.32323e-09 -7.34878e-07 0)
(-1.36793e-09 -7.34037e-07 0)
(-1.41224e-09 -7.33159e-07 0)
(-1.45614e-09 -7.32243e-07 0)
(-1.49962e-09 -7.31289e-07 0)
(-1.54265e-09 -7.30296e-07 0)
(-1.58522e-09 -7.29265e-07 0)
(-1.6273e-09 -7.28194e-07 0)
(-1.66888e-09 -7.27083e-07 0)
(-1.70995e-09 -7.25933e-07 0)
(-1.75047e-09 -7.24741e-07 0)
(-1.79044e-09 -7.23509e-07 0)
(-1.82983e-09 -7.22236e-07 0)
(-1.86863e-09 -7.20921e-07 0)
(-1.90681e-09 -7.19564e-07 0)
(-1.94436e-09 -7.18165e-07 0)
(-1.98126e-09 -7.16723e-07 0)
(-2.01749e-09 -7.15239e-07 0)
(-2.05304e-09 -7.13711e-07 0)
(-2.08787e-09 -7.12141e-07 0)
(-2.12199e-09 -7.10527e-07 0)
(-2.15537e-09 -7.08869e-07 0)
(-2.18799e-09 -7.07167e-07 0)
(-2.21983e-09 -7.05422e-07 0)
(-2.25088e-09 -7.03632e-07 0)
(-2.28113e-09 -7.01799e-07 0)
(-2.31055e-09 -6.9992e-07 0)
(-2.33913e-09 -6.97998e-07 0)
(-2.36685e-09 -6.96031e-07 0)
(-2.39371e-09 -6.9402e-07 0)
(-2.41968e-09 -6.91965e-07 0)
(-2.44475e-09 -6.89865e-07 0)
(-2.46891e-09 -6.87721e-07 0)
(-2.49215e-09 -6.85532e-07 0)
(-2.51444e-09 -6.833e-07 0)
(-2.53579e-09 -6.81024e-07 0)
(-2.55617e-09 -6.78704e-07 0)
(-2.57559e-09 -6.7634e-07 0)
(-2.59402e-09 -6.73934e-07 0)
(-2.61146e-09 -6.71484e-07 0)
(-2.6279e-09 -6.68992e-07 0)
(-2.64333e-09 -6.66457e-07 0)
(-2.65774e-09 -6.6388e-07 0)
(-2.67114e-09 -6.61262e-07 0)
(-2.6835e-09 -6.58602e-07 0)
(-2.69483e-09 -6.55902e-07 0)
(-2.70512e-09 -6.53161e-07 0)
(-2.71437e-09 -6.50381e-07 0)
(-2.72257e-09 -6.47562e-07 0)
(-2.72973e-09 -6.44703e-07 0)
(-2.73584e-09 -6.41807e-07 0)
(-2.74091e-09 -6.38873e-07 0)
(-2.74492e-09 -6.35903e-07 0)
(-2.74789e-09 -6.32896e-07 0)
(-2.74982e-09 -6.29855e-07 0)
(-2.7507e-09 -6.26778e-07 0)
(-2.75055e-09 -6.23668e-07 0)
(-2.74937e-09 -6.20525e-07 0)
(-2.74716e-09 -6.17349e-07 0)
(-2.74392e-09 -6.14143e-07 0)
(-2.73968e-09 -6.10906e-07 0)
(-2.73443e-09 -6.07639e-07 0)
(-2.72818e-09 -6.04344e-07 0)
(-2.72094e-09 -6.01022e-07 0)
(-2.71273e-09 -5.97672e-07 0)
(-2.70354e-09 -5.94299e-07 0)
(-2.69344e-09 -5.90895e-07 0)
(-2.68221e-09 -5.87484e-07 0)
(-2.67081e-09 -5.83977e-07 0)
(-2.65529e-09 -5.8057e-07 0)
(-2.63607e-09 -5.76764e-07 0)
(-2.61766e-09 -5.72425e-07 0)
(-2.59872e-09 -5.68206e-07 0)
(-2.57893e-09 -5.64036e-07 0)
(-2.55828e-09 -5.59885e-07 0)
(-2.53682e-09 -5.55759e-07 0)
(-2.5146e-09 -5.5167e-07 0)
(-2.49166e-09 -5.47621e-07 0)
(-2.46807e-09 -5.43609e-07 0)
(-2.44386e-09 -5.39636e-07 0)
(-2.41911e-09 -5.35702e-07 0)
(-2.39384e-09 -5.31809e-07 0)
(-2.3681e-09 -5.27957e-07 0)
(-2.34193e-09 -5.24147e-07 0)
(-2.31537e-09 -5.2038e-07 0)
(-2.28846e-09 -5.16656e-07 0)
(-2.26123e-09 -5.12976e-07 0)
(-2.23372e-09 -5.0934e-07 0)
(-2.20594e-09 -5.05749e-07 0)
(-2.17794e-09 -5.02203e-07 0)
(-2.14973e-09 -4.98703e-07 0)
(-2.12135e-09 -4.95248e-07 0)
(-2.0928e-09 -4.9184e-07 0)
(-2.06412e-09 -4.88478e-07 0)
(-2.03533e-09 -4.85162e-07 0)
(-2.00643e-09 -4.81893e-07 0)
(-1.97746e-09 -4.78671e-07 0)
(-1.94842e-09 -4.75496e-07 0)
(-1.91932e-09 -4.72368e-07 0)
(-1.89019e-09 -4.69286e-07 0)
(-1.86102e-09 -4.66252e-07 0)
(-1.83184e-09 -4.63266e-07 0)
(-1.80265e-09 -4.60326e-07 0)
(-1.77346e-09 -4.57434e-07 0)
(-1.74428e-09 -4.54589e-07 0)
(-1.71511e-09 -4.51791e-07 0)
(-1.68596e-09 -4.4904e-07 0)
(-1.65684e-09 -4.46337e-07 0)
(-1.62774e-09 -4.4368e-07 0)
(-1.59868e-09 -4.41071e-07 0)
(-1.56966e-09 -4.38509e-07 0)
(-1.54067e-09 -4.35993e-07 0)
(-1.51172e-09 -4.33524e-07 0)
(-1.48282e-09 -4.31103e-07 0)
(-1.45396e-09 -4.28727e-07 0)
(-1.42514e-09 -4.26399e-07 0)
(-1.39636e-09 -4.24117e-07 0)
(-1.36763e-09 -4.21882e-07 0)
(-1.33894e-09 -4.19693e-07 0)
(-1.31029e-09 -4.1755e-07 0)
(-1.28169e-09 -4.15454e-07 0)
(-1.25312e-09 -4.13404e-07 0)
(-1.22459e-09 -4.114e-07 0)
(-1.19609e-09 -4.09442e-07 0)
(-1.16763e-09 -4.07531e-07 0)
(-1.1392e-09 -4.05665e-07 0)
(-1.1108e-09 -4.03845e-07 0)
(-1.08243e-09 -4.02071e-07 0)
(-1.05408e-09 -4.00343e-07 0)
(-1.02576e-09 -3.98661e-07 0)
(-9.97454e-10 -3.97025e-07 0)
(-9.69168e-10 -3.95435e-07 0)
(-9.40896e-10 -3.9389e-07 0)
(-9.12639e-10 -3.92391e-07 0)
(-8.84392e-10 -3.90937e-07 0)
(-8.56154e-10 -3.8953e-07 0)
(-8.27923e-10 -3.88168e-07 0)
(-7.99697e-10 -3.86851e-07 0)
(-7.71473e-10 -3.85581e-07 0)
(-7.43251e-10 -3.84356e-07 0)
(-7.15028e-10 -3.83176e-07 0)
(-6.86803e-10 -3.82042e-07 0)
(-6.58574e-10 -3.80954e-07 0)
(-6.3034e-10 -3.79912e-07 0)
(-6.02101e-10 -3.78915e-07 0)
(-5.73854e-10 -3.77964e-07 0)
(-5.45599e-10 -3.77059e-07 0)
(-5.17336e-10 -3.76199e-07 0)
(-4.89062e-10 -3.75385e-07 0)
(-4.60779e-10 -3.74617e-07 0)
(-4.32485e-10 -3.73894e-07 0)
(-4.0418e-10 -3.73218e-07 0)
(-3.75865e-10 -3.72587e-07 0)
(-3.4754e-10 -3.72002e-07 0)
(-3.19206e-10 -3.71462e-07 0)
(-2.90866e-10 -3.70971e-07 0)
(-2.62523e-10 -3.70515e-07 0)
(-2.34192e-10 -3.70139e-07 0)
(-2.05851e-10 -3.69698e-07 0)
(-1.77617e-10 -3.69668e-07 0)
(-1.491e-10 -3.68445e-07 0)
(-1.21722e-10 -3.7122e-07 0)
(-9.01595e-11 -3.59946e-07 0)
(-7.46153e-11 -3.89368e-07 0)
(-3.88609e-11 -3.3999e-07 0)
)
;
    }
    bottomWall
    {
        type            calculated;
        value           nonuniform List<vector> 
449
(
(-48.6679 -0.966002 0)
(-19.8018 -0.00517024 0)
(-14.3804 -0.00113771 0)
(-12.0648 -0.000546856 0)
(-10.6554 -0.000352291 0)
(-9.65955 -0.000256463 0)
(-8.90036 -0.00019871 0)
(-8.29651 -0.000159826 0)
(-7.80146 -0.000132136 0)
(-7.3859 -0.000111598 0)
(-7.03064 -9.58151e-05 0)
(-6.72259 -8.33375e-05 0)
(-6.4524 -7.32633e-05 0)
(-6.21311 -6.49957e-05 0)
(-5.99939 -5.8116e-05 0)
(-5.80713 -5.23206e-05 0)
(-5.63308 -4.73863e-05 0)
(-5.47462 -4.31459e-05 0)
(-5.32963 -3.94718e-05 0)
(-5.19638 -3.6265e-05 0)
(-5.07342 -3.34474e-05 0)
(-4.95954 -3.09569e-05 0)
(-4.85371 -2.87435e-05 0)
(-4.75508 -2.67666e-05 0)
(-4.66288 -2.49928e-05 0)
(-4.57648 -2.33947e-05 0)
(-4.49532 -2.19491e-05 0)
(-4.41892 -2.0637e-05 0)
(-4.34684 -1.9442e-05 0)
(-4.27872 -1.83502e-05 0)
(-4.21421 -1.73499e-05 0)
(-4.15302 -1.64309e-05 0)
(-4.0949 -1.55845e-05 0)
(-4.0396 -1.4803e-05 0)
(-3.98692 -1.40799e-05 0)
(-3.93666 -1.34093e-05 0)
(-3.88865 -1.27863e-05 0)
(-3.84274 -1.22062e-05 0)
(-3.79879 -1.16653e-05 0)
(-3.75667 -1.116e-05 0)
(-3.71625 -1.06871e-05 0)
(-3.67744 -1.02439e-05 0)
(-3.64014 -9.828e-06 0)
(-3.60425 -9.43707e-06 0)
(-3.5697 -9.06915e-06 0)
(-3.5364 -8.72244e-06 0)
(-3.50429 -8.39531e-06 0)
(-3.4733 -8.08629e-06 0)
(-3.44337 -7.79405e-06 0)
(-3.41444 -7.51738e-06 0)
(-3.38647 -7.25518e-06 0)
(-3.3594 -7.00643e-06 0)
(-3.33319 -6.77023e-06 0)
(-3.3078 -6.54573e-06 0)
(-3.28319 -6.33216e-06 0)
(-3.25932 -6.12881e-06 0)
(-3.23615 -5.93504e-06 0)
(-3.21366 -5.75024e-06 0)
(-3.19182 -5.57386e-06 0)
(-3.17059 -5.40539e-06 0)
(-3.14995 -5.24436e-06 0)
(-3.12987 -5.09033e-06 0)
(-3.11034 -4.94291e-06 0)
(-3.09132 -4.8017e-06 0)
(-3.0728 -4.66637e-06 0)
(-3.05475 -4.53659e-06 0)
(-3.03716 -4.41206e-06 0)
(-3.02002 -4.29249e-06 0)
(-3.00329 -4.17762e-06 0)
(-2.98697 -4.06721e-06 0)
(-2.97105 -3.96103e-06 0)
(-2.9555 -3.85886e-06 0)
(-2.94031 -3.76051e-06 0)
(-2.92548 -3.66577e-06 0)
(-2.91098 -3.57448e-06 0)
(-2.89681 -3.48648e-06 0)
(-2.88295 -3.40159e-06 0)
(-2.8694 -3.31968e-06 0)
(-2.85614 -3.24061e-06 0)
(-2.84317 -3.16425e-06 0)
(-2.83047 -3.09047e-06 0)
(-2.81803 -3.01917e-06 0)
(-2.80585 -2.95022e-06 0)
(-2.79393 -2.88352e-06 0)
(-2.78224 -2.81899e-06 0)
(-2.77078 -2.75652e-06 0)
(-2.75956 -2.69603e-06 0)
(-2.74855 -2.63744e-06 0)
(-2.73775 -2.58066e-06 0)
(-2.72717 -2.52563e-06 0)
(-2.71678 -2.47227e-06 0)
(-2.70659 -2.42051e-06 0)
(-2.69658 -2.3703e-06 0)
(-2.68676 -2.32156e-06 0)
(-2.67712 -2.27425e-06 0)
(-2.66765 -2.2283e-06 0)
(-2.65836 -2.18367e-06 0)
(-2.64922 -2.14031e-06 0)
(-2.64025 -2.09817e-06 0)
(-2.63143 -2.0572e-06 0)
(-2.62276 -2.01735e-06 0)
(-2.61424 -1.9786e-06 0)
(-2.60586 -1.9409e-06 0)
(-2.59762 -1.90421e-06 0)
(-2.58952 -1.8685e-06 0)
(-2.58155 -1.83373e-06 0)
(-2.57372 -1.79987e-06 0)
(-2.566 -1.76689e-06 0)
(-2.55841 -1.73476e-06 0)
(-2.55094 -1.70344e-06 0)
(-2.54359 -1.67292e-06 0)
(-2.53635 -1.64317e-06 0)
(-2.52923 -1.61415e-06 0)
(-2.52221 -1.58586e-06 0)
(-2.5153 -1.55825e-06 0)
(-2.50849 -1.53132e-06 0)
(-2.50179 -1.50503e-06 0)
(-2.49518 -1.47938e-06 0)
(-2.48867 -1.45433e-06 0)
(-2.48226 -1.42987e-06 0)
(-2.47594 -1.40599e-06 0)
(-2.46971 -1.38266e-06 0)
(-2.46357 -1.35987e-06 0)
(-2.45751 -1.3376e-06 0)
(-2.45154 -1.31583e-06 0)
(-2.44566 -1.29456e-06 0)
(-2.43985 -1.27376e-06 0)
(-2.43413 -1.25342e-06 0)
(-2.42848 -1.23354e-06 0)
(-2.42291 -1.21409e-06 0)
(-2.41741 -1.19506e-06 0)
(-2.41199 -1.17644e-06 0)
(-2.40663 -1.15822e-06 0)
(-2.40135 -1.1404e-06 0)
(-2.39614 -1.12295e-06 0)
(-2.391 -1.10586e-06 0)
(-2.38592 -1.08914e-06 0)
(-2.3809 -1.07276e-06 0)
(-2.37595 -1.05672e-06 0)
(-2.37107 -1.04101e-06 0)
(-2.36624 -1.02561e-06 0)
(-2.36147 -1.01053e-06 0)
(-2.35677 -9.95757e-07 0)
(-2.35212 -9.81276e-07 0)
(-2.34752 -9.67082e-07 0)
(-2.34299 -9.53168e-07 0)
(-2.3385 -9.39527e-07 0)
(-2.33407 -9.26152e-07 0)
(-2.3297 -9.13036e-07 0)
(-2.32537 -9.00172e-07 0)
(-2.3211 -8.87554e-07 0)
(-2.31688 -8.75176e-07 0)
(-2.3127 -8.63032e-07 0)
(-2.30857 -8.51115e-07 0)
(-2.3045 -8.3942e-07 0)
(-2.30046 -8.27941e-07 0)
(-2.29648 -8.16673e-07 0)
(-2.29253 -8.05609e-07 0)
(-2.28864 -7.94744e-07 0)
(-2.28478 -7.84073e-07 0)
(-2.28097 -7.73589e-07 0)
(-2.2772 -7.63287e-07 0)
(-2.27347 -7.5316e-07 0)
(-2.26978 -7.432e-07 0)
(-2.26614 -7.33399e-07 0)
(-2.26253 -7.23745e-07 0)
(-2.25896 -7.14232e-07 0)
(-2.25543 -7.04837e-07 0)
(-2.25194 -6.95462e-07 0)
(-2.24849 -6.86492e-07 0)
(-2.24507 -6.76525e-07 0)
(-2.2417 -6.67631e-07 0)
(-2.23836 -6.62966e-07 0)
(-2.2352 -6.57931e-07 0)
(-2.23225 -6.47243e-07 0)
(-2.22933 -6.35275e-07 0)
(-2.22643 -6.26367e-07 0)
(-2.22353 -6.18609e-07 0)
(-2.22063 -6.11423e-07 0)
(-2.21774 -6.04649e-07 0)
(-2.21484 -5.98164e-07 0)
(-2.21195 -5.9188e-07 0)
(-2.20905 -5.8574e-07 0)
(-2.20615 -5.79702e-07 0)
(-2.20326 -5.7374e-07 0)
(-2.20036 -5.67834e-07 0)
(-2.19746 -5.61972e-07 0)
(-2.19455 -5.56144e-07 0)
(-2.19165 -5.50344e-07 0)
(-2.18874 -5.44569e-07 0)
(-2.18584 -5.38817e-07 0)
(-2.18293 -5.33086e-07 0)
(-2.18003 -5.27377e-07 0)
(-2.17712 -5.21688e-07 0)
(-2.17422 -5.1602e-07 0)
(-2.17131 -5.10375e-07 0)
(-2.16841 -5.04752e-07 0)
(-2.1655 -4.99153e-07 0)
(-2.1626 -4.93578e-07 0)
(-2.1597 -4.88028e-07 0)
(-2.1568 -4.82504e-07 0)
(-2.1539 -4.77007e-07 0)
(-2.151 -4.71537e-07 0)
(-2.14811 -4.66096e-07 0)
(-2.14522 -4.60683e-07 0)
(-2.14233 -4.55301e-07 0)
(-2.13945 -4.49949e-07 0)
(-2.13656 -4.44629e-07 0)
(-2.13368 -4.39341e-07 0)
(-2.13081 -4.34085e-07 0)
(-2.12793 -4.28862e-07 0)
(-2.12506 -4.23672e-07 0)
(-2.1222 -4.18517e-07 0)
(-2.11934 -4.13397e-07 0)
(-2.11648 -4.08312e-07 0)
(-2.11363 -4.03262e-07 0)
(-2.11079 -3.98249e-07 0)
(-2.10794 -3.93272e-07 0)
(-2.10511 -3.88331e-07 0)
(-2.10228 -3.83429e-07 0)
(-2.09945 -3.78563e-07 0)
(-2.09663 -3.73735e-07 0)
(-2.09382 -3.68946e-07 0)
(-2.09101 -3.64195e-07 0)
(-2.08821 -3.59482e-07 0)
(-2.08541 -3.54809e-07 0)
(-2.08262 -3.50174e-07 0)
(-2.07984 -3.45579e-07 0)
(-2.07706 -3.41023e-07 0)
(-2.07429 -3.36507e-07 0)
(-2.07153 -3.32031e-07 0)
(-2.06878 -3.27595e-07 0)
(-2.06603 -3.23198e-07 0)
(-2.06329 -3.18842e-07 0)
(-2.06056 -3.14526e-07 0)
(-2.05783 -3.1025e-07 0)
(-2.05512 -3.06015e-07 0)
(-2.05241 -3.0182e-07 0)
(-2.04971 -2.97665e-07 0)
(-2.04702 -2.93551e-07 0)
(-2.04433 -2.89477e-07 0)
(-2.04166 -2.85443e-07 0)
(-2.03899 -2.8145e-07 0)
(-2.03634 -2.77498e-07 0)
(-2.03369 -2.73585e-07 0)
(-2.03105 -2.69713e-07 0)
(-2.02842 -2.65881e-07 0)
(-2.0258 -2.6209e-07 0)
(-2.02319 -2.58338e-07 0)
(-2.02059 -2.54626e-07 0)
(-2.01799 -2.50954e-07 0)
(-2.01541 -2.47322e-07 0)
(-2.01284 -2.4373e-07 0)
(-2.01028 -2.40176e-07 0)
(-2.00773 -2.36663e-07 0)
(-2.00518 -2.33188e-07 0)
(-2.00265 -2.29753e-07 0)
(-2.00013 -2.26356e-07 0)
(-1.99762 -2.22999e-07 0)
(-1.99512 -2.19679e-07 0)
(-1.99263 -2.16399e-07 0)
(-1.99015 -2.13156e-07 0)
(-1.98768 -2.09951e-07 0)
(-1.98522 -2.06785e-07 0)
(-1.98277 -2.03655e-07 0)
(-1.98034 -2.00564e-07 0)
(-1.97791 -1.97509e-07 0)
(-1.9755 -1.94492e-07 0)
(-1.9731 -1.91511e-07 0)
(-1.9707 -1.88567e-07 0)
(-1.96832 -1.85659e-07 0)
(-1.96596 -1.82787e-07 0)
(-1.9636 -1.79951e-07 0)
(-1.96125 -1.7715e-07 0)
(-1.95892 -1.74385e-07 0)
(-1.95659 -1.71655e-07 0)
(-1.95428 -1.6896e-07 0)
(-1.95198 -1.66299e-07 0)
(-1.9497 -1.63673e-07 0)
(-1.94742 -1.61081e-07 0)
(-1.94516 -1.58522e-07 0)
(-1.9429 -1.55997e-07 0)
(-1.94066 -1.53506e-07 0)
(-1.93843 -1.51047e-07 0)
(-1.93622 -1.48621e-07 0)
(-1.93401 -1.46227e-07 0)
(-1.93182 -1.43866e-07 0)
(-1.92964 -1.41536e-07 0)
(-1.92747 -1.39238e-07 0)
(-1.92531 -1.36972e-07 0)
(-1.92317 -1.34736e-07 0)
(-1.92104 -1.32531e-07 0)
(-1.91892 -1.30357e-07 0)
(-1.91681 -1.28213e-07 0)
(-1.91472 -1.26098e-07 0)
(-1.91263 -1.24014e-07 0)
(-1.91056 -1.21958e-07 0)
(-1.9085 -1.19932e-07 0)
(-1.90646 -1.17934e-07 0)
(-1.90442 -1.15965e-07 0)
(-1.9024 -1.14024e-07 0)
(-1.90039 -1.12111e-07 0)
(-1.8984 -1.10225e-07 0)
(-1.89641 -1.08367e-07 0)
(-1.89444 -1.06536e-07 0)
(-1.89248 -1.04731e-07 0)
(-1.89053 -1.02953e-07 0)
(-1.8886 -1.01201e-07 0)
(-1.88668 -9.94753e-08 0)
(-1.88476 -9.77747e-08 0)
(-1.88287 -9.60995e-08 0)
(-1.88098 -9.44493e-08 0)
(-1.87911 -9.28238e-08 0)
(-1.87725 -9.12228e-08 0)
(-1.8754 -8.96459e-08 0)
(-1.87356 -8.80929e-08 0)
(-1.87174 -8.65635e-08 0)
(-1.86993 -8.50574e-08 0)
(-1.86813 -8.35744e-08 0)
(-1.86634 -8.21141e-08 0)
(-1.86456 -8.06764e-08 0)
(-1.8628 -7.92608e-08 0)
(-1.86105 -7.78673e-08 0)
(-1.85931 -7.64954e-08 0)
(-1.85759 -7.5145e-08 0)
(-1.85587 -7.38157e-08 0)
(-1.85417 -7.25073e-08 0)
(-1.85248 -7.12195e-08 0)
(-1.8508 -6.99521e-08 0)
(-1.84914 -6.87049e-08 0)
(-1.84748 -6.74775e-08 0)
(-1.84584 -6.62697e-08 0)
(-1.84421 -6.50813e-08 0)
(-1.84259 -6.3912e-08 0)
(-1.84099 -6.27615e-08 0)
(-1.83939 -6.16297e-08 0)
(-1.83781 -6.05164e-08 0)
(-1.83624 -5.94212e-08 0)
(-1.83468 -5.83439e-08 0)
(-1.83314 -5.72844e-08 0)
(-1.8316 -5.62425e-08 0)
(-1.83008 -5.5218e-08 0)
(-1.82856 -5.42108e-08 0)
(-1.82706 -5.32207e-08 0)
(-1.82557 -5.22478e-08 0)
(-1.8241 -5.12923e-08 0)
(-1.82263 -5.03543e-08 0)
(-1.82117 -4.94349e-08 0)
(-1.81973 -4.85362e-08 0)
(-1.8183 -4.766e-08 0)
(-1.81687 -4.6815e-08 0)
(-1.81546 -4.60845e-08 0)
(-1.81405 -4.51167e-08 0)
(-1.81267 -4.4752e-08 0)
(-1.81109 -4.4785e-08 0)
(-1.80937 -4.41927e-08 0)
(-1.80767 -4.3282e-08 0)
(-1.80601 -4.20803e-08 0)
(-1.80441 -4.08495e-08 0)
(-1.80285 -3.9687e-08 0)
(-1.80134 -3.85997e-08 0)
(-1.79986 -3.75754e-08 0)
(-1.79843 -3.66045e-08 0)
(-1.79703 -3.5681e-08 0)
(-1.79567 -3.48002e-08 0)
(-1.79434 -3.3958e-08 0)
(-1.79304 -3.31508e-08 0)
(-1.79178 -3.23759e-08 0)
(-1.79054 -3.16309e-08 0)
(-1.78933 -3.09137e-08 0)
(-1.78815 -3.02226e-08 0)
(-1.78699 -2.95561e-08 0)
(-1.78587 -2.89126e-08 0)
(-1.78476 -2.82909e-08 0)
(-1.78368 -2.76899e-08 0)
(-1.78262 -2.71086e-08 0)
(-1.78158 -2.65458e-08 0)
(-1.78057 -2.60008e-08 0)
(-1.77958 -2.54727e-08 0)
(-1.7786 -2.49608e-08 0)
(-1.77765 -2.44643e-08 0)
(-1.77671 -2.39825e-08 0)
(-1.7758 -2.35149e-08 0)
(-1.7749 -2.30609e-08 0)
(-1.77402 -2.26198e-08 0)
(-1.77315 -2.21912e-08 0)
(-1.7723 -2.17746e-08 0)
(-1.77147 -2.13694e-08 0)
(-1.77065 -2.09754e-08 0)
(-1.76985 -2.0592e-08 0)
(-1.76906 -2.02189e-08 0)
(-1.76829 -1.98556e-08 0)
(-1.76753 -1.95019e-08 0)
(-1.76679 -1.91574e-08 0)
(-1.76605 -1.88217e-08 0)
(-1.76533 -1.84946e-08 0)
(-1.76463 -1.81757e-08 0)
(-1.76393 -1.78648e-08 0)
(-1.76325 -1.75617e-08 0)
(-1.76258 -1.72659e-08 0)
(-1.76192 -1.69774e-08 0)
(-1.76127 -1.66959e-08 0)
(-1.76063 -1.64211e-08 0)
(-1.76 -1.61529e-08 0)
(-1.75938 -1.5891e-08 0)
(-1.75878 -1.56352e-08 0)
(-1.75818 -1.53854e-08 0)
(-1.75759 -1.51413e-08 0)
(-1.75701 -1.49029e-08 0)
(-1.75644 -1.46699e-08 0)
(-1.75588 -1.44421e-08 0)
(-1.75533 -1.42194e-08 0)
(-1.75478 -1.40017e-08 0)
(-1.75425 -1.37889e-08 0)
(-1.75372 -1.35807e-08 0)
(-1.7532 -1.33771e-08 0)
(-1.75269 -1.31779e-08 0)
(-1.75219 -1.2983e-08 0)
(-1.75169 -1.27924e-08 0)
(-1.7512 -1.26058e-08 0)
(-1.75072 -1.24232e-08 0)
(-1.75024 -1.22446e-08 0)
(-1.74978 -1.20697e-08 0)
(-1.74931 -1.18986e-08 0)
(-1.74886 -1.1731e-08 0)
(-1.74841 -1.15671e-08 0)
(-1.74797 -1.14066e-08 0)
(-1.74753 -1.12496e-08 0)
(-1.7471 -1.1096e-08 0)
(-1.74668 -1.09457e-08 0)
(-1.74626 -1.07988e-08 0)
(-1.74585 -1.06552e-08 0)
(-1.74544 -1.0515e-08 0)
(-1.74504 -1.03783e-08 0)
(-1.74464 -1.02451e-08 0)
(-1.74425 -1.01157e-08 0)
(-1.74386 -9.99036e-09 0)
(-1.74348 -9.86984e-09 0)
(-1.7431 -9.75475e-09 0)
(-1.74273 -9.64748e-09 0)
(-1.74236 -9.54864e-09 0)
(-1.74199 -9.46908e-09 0)
(-1.74163 -9.40378e-09 0)
(-1.74127 -9.46228e-09 0)
(-1.7409 -9.05285e-09 0)
(-1.74057 -1.23845e-08 0)
(-1.73995 -1.99209e-09 0)
(-1.74043 -7.88485e-09 0)
(-1.73932 -1.49296e-08 0)
)
;
    }
    symmetry
    {
        type            symmetryPlane;
    }
    frontAndBack
    {
        type            empty;
    }
}


// ************************************************************************* //
