/*--------------------------------*- C++ -*----------------------------------*\
| =========                 |                                                 |
| \\      /  F ield         | OpenFOAM: The Open Source CFD Toolbox           |
|  \\    /   O peration     | Version:  v2012                                 |
|   \\  /    A nd           | Website:  www.openfoam.com                      |
|    \\/     M anipulation  |                                                 |
\*---------------------------------------------------------------------------*/
FoamFile
{
    version     2.0;
    format      ascii;
    class       volScalarField;
    location    "10.5";
    object      yPlus;
}
// * * * * * * * * * * * * * * * * * * * * * * * * * * * * * * * * * * * * * //

dimensions      [0 0 0 0 0 0 0];


internalField   uniform 0;

boundaryField
{
    inlet
    {
        type            calculated;
        value           uniform 0;
    }
    outlet
    {
        type            calculated;
        value           uniform 0;
    }
    topWall
    {
        type            calculated;
        value           nonuniform List<scalar> 
545
(
0.0650602
0.112314
0.144046
0.169276
0.19062
0.209279
0.225928
0.240991
0.254758
0.267437
0.279184
0.29012
0.300341
0.309926
0.318938
0.327433
0.335457
0.343049
0.350245
0.357075
0.363565
0.36974
0.375622
0.381229
0.386579
0.391688
0.39657
0.401239
0.405707
0.409986
0.414084
0.418013
0.421781
0.425396
0.428867
0.432199
0.435401
0.438478
0.441437
0.444283
0.44702
0.449655
0.452192
0.454634
0.456988
0.459255
0.46144
0.463547
0.465578
0.467538
0.469428
0.471252
0.473013
0.474713
0.476354
0.477939
0.47947
0.480949
0.482378
0.48376
0.485095
0.486386
0.487635
0.488842
0.49001
0.491139
0.492232
0.49329
0.494314
0.495304
0.496263
0.497192
0.498079
0.498936
0.499785
0.500626
0.501458
0.502283
0.5031
0.50391
0.504712
0.505506
0.506293
0.507072
0.507844
0.508609
0.509367
0.510118
0.510861
0.511598
0.512328
0.513051
0.513768
0.514477
0.51518
0.515878
0.516502
0.51706
0.517617
0.518173
0.518728
0.519283
0.519836
0.520389
0.520942
0.521493
0.522043
0.522593
0.523142
0.52369
0.524237
0.524783
0.525329
0.525873
0.526417
0.52696
0.527502
0.528043
0.528583
0.529122
0.52966
0.530197
0.530734
0.531269
0.531804
0.532337
0.53287
0.533401
0.533932
0.534461
0.53499
0.535518
0.536044
0.53657
0.537094
0.537618
0.53814
0.538661
0.539181
0.539701
0.540219
0.540736
0.541252
0.541766
0.54228
0.542792
0.543304
0.543814
0.544323
0.544831
0.545338
0.545843
0.546348
0.546851
0.547353
0.547854
0.548353
0.548851
0.549349
0.549844
0.550339
0.550832
0.551324
0.551815
0.552304
0.552792
0.553279
0.553764
0.554249
0.554731
0.555213
0.555693
0.556171
0.556649
0.557125
0.557599
0.558072
0.558544
0.559014
0.559483
0.55995
0.560416
0.56088
0.561343
0.561805
0.562265
0.562723
0.56318
0.563635
0.564089
0.564541
0.564992
0.565441
0.565889
0.566335
0.566779
0.567222
0.567663
0.568103
0.568541
0.568977
0.569412
0.569845
0.570276
0.570705
0.571133
0.571559
0.571984
0.572406
0.572827
0.573247
0.573664
0.57408
0.574493
0.574906
0.575316
0.575724
0.576131
0.576536
0.576939
0.57734
0.577739
0.578136
0.578532
0.578925
0.579317
0.579707
0.580095
0.58048
0.580864
0.581246
0.581626
0.582004
0.58238
0.582754
0.583126
0.583496
0.583864
0.58423
0.584594
0.584955
0.585315
0.585672
0.586028
0.586381
0.586732
0.587081
0.587428
0.587773
0.588116
0.588456
0.588794
0.58913
0.589464
0.589796
0.590125
0.590452
0.590777
0.5911
0.59142
0.591738
0.592054
0.592367
0.592678
0.592987
0.593294
0.593598
0.5939
0.594199
0.594478
0.59474
0.595002
0.595264
0.595527
0.59579
0.596053
0.596317
0.596581
0.596845
0.597109
0.597373
0.597637
0.597901
0.598165
0.598429
0.598693
0.598956
0.599219
0.599482
0.599744
0.600006
0.600267
0.600527
0.600786
0.601045
0.601303
0.601559
0.601815
0.602069
0.602323
0.602575
0.602825
0.603074
0.603321
0.603567
0.603811
0.604053
0.604292
0.60453
0.604766
0.604999
0.60523
0.605458
0.605684
0.605907
0.606127
0.606344
0.606558
0.606768
0.606975
0.607179
0.607379
0.607575
0.607768
0.607956
0.60814
0.60832
0.608495
0.608665
0.608831
0.608992
0.609148
0.609298
0.609443
0.609583
0.609716
0.609844
0.609966
0.610081
0.61019
0.610292
0.610387
0.610476
0.610557
0.610631
0.610697
0.610756
0.610807
0.610849
0.610883
0.610909
0.610926
0.610934
0.610932
0.610922
0.610902
0.610872
0.610832
0.610782
0.610721
0.61065
0.610568
0.610474
0.61037
0.610254
0.610126
0.609986
0.609834
0.60967
0.609493
0.609303
0.6091
0.608883
0.608653
0.608409
0.608152
0.60788
0.607593
0.607292
0.606976
0.606645
0.606298
0.605936
0.605558
0.605165
0.604755
0.604328
0.603885
0.603425
0.602948
0.602454
0.601942
0.601413
0.600866
0.600301
0.599718
0.599117
0.598497
0.597858
0.597201
0.596524
0.595829
0.595114
0.59438
0.593626
0.592853
0.59206
0.591247
0.590414
0.589561
0.588688
0.587795
0.586882
0.585948
0.584994
0.584019
0.583024
0.582009
0.580973
0.579917
0.578841
0.577744
0.576627
0.575489
0.574331
0.573153
0.571955
0.570737
0.5695
0.568242
0.566965
0.565668
0.564352
0.563017
0.561663
0.56029
0.558899
0.557489
0.556062
0.554616
0.553153
0.551673
0.550176
0.548662
0.547131
0.545585
0.544023
0.542446
0.540853
0.539246
0.537446
0.535462
0.533486
0.531516
0.529555
0.527602
0.525659
0.523727
0.521805
0.519895
0.517997
0.516111
0.514239
0.512381
0.510536
0.508706
0.506892
0.505092
0.503309
0.501542
0.499791
0.498057
0.49634
0.494641
0.49296
0.491296
0.489651
0.488024
0.486417
0.484828
0.483258
0.481708
0.480177
0.478666
0.477176
0.475705
0.474255
0.472825
0.471416
0.470028
0.46866
0.467314
0.46599
0.464686
0.463404
0.462144
0.460906
0.45969
0.458496
0.457324
0.456175
0.455048
0.453944
0.452862
0.451804
0.450769
0.449757
0.448768
0.447803
0.446861
0.445943
0.445049
0.444179
0.443333
0.442511
0.441714
0.440941
0.440193
0.439469
0.43877
0.438097
0.437448
0.436825
0.436227
0.435654
0.435107
0.434586
0.43409
0.43362
0.433176
0.432758
0.432367
0.432001
0.431662
0.431349
0.431062
0.430802
0.430569
0.430362
0.430181
0.430027
0.4299
0.429798
0.42973
0.429657
)
;
    }
    bottomWall
    {
        type            calculated;
        value           nonuniform List<scalar> 
449
(
0.139648
0.0890749
0.0759081
0.0695285
0.0653412
0.0622129
0.0597181
0.0576567
0.0559101
0.0544006
0.0530762
0.0519004
0.0508467
0.0498949
0.0490293
0.0482373
0.0475089
0.0468359
0.0462116
0.0456302
0.0450871
0.0445782
0.0441
0.0436496
0.0432244
0.0428221
0.0424407
0.0420785
0.0417339
0.0414056
0.0410923
0.0407929
0.0405064
0.040232
0.0399688
0.039716
0.0394731
0.0392394
0.0390144
0.0387975
0.0385882
0.0383862
0.038191
0.0380023
0.0378197
0.0376429
0.0374716
0.0373055
0.0371444
0.0369881
0.0368363
0.0366888
0.0365454
0.0364059
0.0362702
0.0361381
0.0360095
0.0358841
0.0357619
0.0356428
0.0355266
0.0354132
0.0353025
0.0351944
0.0350888
0.0349856
0.0348848
0.0347862
0.0346897
0.0345953
0.034503
0.0344126
0.0343241
0.0342374
0.0341524
0.0340692
0.0339876
0.0339076
0.0338292
0.0337523
0.0336768
0.0336028
0.0335301
0.0334587
0.0333887
0.0333199
0.0332523
0.0331859
0.0331207
0.0330566
0.0329936
0.0329316
0.0328707
0.0328108
0.0327519
0.0326939
0.0326369
0.0325808
0.0325255
0.0324712
0.0324176
0.0323649
0.032313
0.0322619
0.0322116
0.032162
0.0321131
0.032065
0.0320175
0.0319707
0.0319246
0.0318792
0.0318343
0.0317902
0.0317466
0.0317036
0.0316612
0.0316194
0.0315781
0.0315374
0.0314972
0.0314576
0.0314184
0.0313798
0.0313416
0.031304
0.0312668
0.0312301
0.0311939
0.0311581
0.0311227
0.0310878
0.0310533
0.0310192
0.0309855
0.0309522
0.0309193
0.0308868
0.0308547
0.0308229
0.0307915
0.0307605
0.0307298
0.0306995
0.0306695
0.0306399
0.0306105
0.0305815
0.0305529
0.0305245
0.0304964
0.0304687
0.0304412
0.030414
0.0303871
0.0303605
0.0303342
0.0303082
0.0302824
0.0302569
0.0302316
0.0302067
0.0301819
0.0301574
0.0301332
0.0301092
0.0300854
0.0300619
0.0300386
0.0300156
0.0299928
0.0299703
0.0299479
0.0299268
0.0299071
0.0298875
0.029868
0.0298486
0.0298291
0.0298097
0.0297902
0.0297707
0.0297512
0.0297317
0.0297122
0.0296926
0.029673
0.0296534
0.0296338
0.0296142
0.0295945
0.0295748
0.0295551
0.0295354
0.0295157
0.029496
0.0294763
0.0294565
0.0294368
0.029417
0.0293973
0.0293775
0.0293577
0.029338
0.0293182
0.0292985
0.0292788
0.029259
0.0292393
0.0292196
0.0291999
0.0291802
0.0291605
0.0291409
0.0291212
0.0291016
0.029082
0.0290624
0.0290428
0.0290233
0.0290038
0.0289843
0.0289648
0.0289454
0.028926
0.0289066
0.0288873
0.028868
0.0288487
0.0288295
0.0288103
0.0287911
0.028772
0.0287529
0.0287339
0.0287149
0.0286959
0.028677
0.0286581
0.0286393
0.0286205
0.0286018
0.0285831
0.0285645
0.0285459
0.0285274
0.0285089
0.0284905
0.0284721
0.0284538
0.0284356
0.0284174
0.0283992
0.0283812
0.0283631
0.0283452
0.0283273
0.0283094
0.0282917
0.0282739
0.0282563
0.0282387
0.0282212
0.0282037
0.0281863
0.028169
0.0281518
0.0281346
0.0281175
0.0281004
0.0280834
0.0280665
0.0280497
0.0280329
0.0280163
0.0279996
0.0279831
0.0279666
0.0279502
0.0279339
0.0279177
0.0279015
0.0278854
0.0278694
0.0278535
0.0278376
0.0278218
0.0278061
0.0277905
0.0277749
0.0277595
0.0277441
0.0277288
0.0277135
0.0276984
0.0276833
0.0276683
0.0276534
0.0276386
0.0276238
0.0276092
0.0275946
0.0275801
0.0275657
0.0275513
0.0275371
0.0275229
0.0275088
0.0274948
0.0274809
0.027467
0.0274533
0.0274396
0.027426
0.0274125
0.0273991
0.0273857
0.0273725
0.0273593
0.0273462
0.0273332
0.0273203
0.0273075
0.0272947
0.027282
0.0272694
0.0272569
0.0272445
0.0272322
0.0272199
0.0272077
0.0271956
0.0271836
0.0271717
0.0271599
0.0271481
0.0271364
0.0271248
0.0271133
0.0271019
0.0270905
0.0270792
0.0270681
0.0270569
0.0270459
0.027035
0.0270241
0.0270133
0.0270026
0.026992
0.0269814
0.0269709
0.0269604
0.0269501
0.0269384
0.0269256
0.0269129
0.0269006
0.0268887
0.0268771
0.0268658
0.0268548
0.0268441
0.0268337
0.0268235
0.0268136
0.0268039
0.0267944
0.0267851
0.0267761
0.0267673
0.0267586
0.0267502
0.0267419
0.0267338
0.0267259
0.0267181
0.0267105
0.026703
0.0266957
0.0266886
0.0266815
0.0266746
0.0266679
0.0266613
0.0266548
0.0266484
0.0266421
0.026636
0.02663
0.026624
0.0266182
0.0266125
0.0266069
0.0266014
0.0265959
0.0265906
0.0265854
0.0265802
0.0265752
0.0265702
0.0265653
0.0265605
0.0265557
0.0265511
0.0265465
0.026542
0.0265375
0.0265332
0.0265289
0.0265246
0.0265205
0.0265164
0.0265123
0.0265083
0.0265044
0.0265005
0.0264967
0.026493
0.0264893
0.0264856
0.026482
0.0264785
0.026475
0.0264716
0.0264682
0.0264648
0.0264615
0.0264582
0.026455
0.0264519
0.0264487
0.0264456
0.0264426
0.0264396
0.0264366
0.0264337
0.0264308
0.0264279
0.0264251
0.0264223
0.0264195
0.0264168
0.026414
0.0264113
0.0264088
0.026404
0.0264077
0.0263992
)
;
    }
    symmetry
    {
        type            symmetryPlane;
    }
    frontAndBack
    {
        type            empty;
    }
}


// ************************************************************************* //
