/*--------------------------------*- C++ -*----------------------------------*\
| =========                 |                                                 |
| \\      /  F ield         | OpenFOAM: The Open Source CFD Toolbox           |
|  \\    /   O peration     | Version:  v2012                                 |
|   \\  /    A nd           | Website:  www.openfoam.com                      |
|    \\/     M anipulation  |                                                 |
\*---------------------------------------------------------------------------*/
FoamFile
{
    version     2.0;
    format      ascii;
    class       volVectorField;
    location    "13";
    object      wallShearStress;
}
// * * * * * * * * * * * * * * * * * * * * * * * * * * * * * * * * * * * * * //

dimensions      [0 2 -2 0 0 0 0];


internalField   uniform (0 0 0);

boundaryField
{
    inlet
    {
        type            calculated;
        value           uniform (0 0 0);
    }
    outlet
    {
        type            calculated;
        value           uniform (0 0 0);
    }
    topWall
    {
        type            calculated;
        value           nonuniform List<vector> 
545
(
(1.35473e-08 -9.52969e-09 0)
(1.35449e-08 -2.66871e-08 0)
(1.35196e-08 -4.45029e-08 0)
(1.34966e-08 -6.17915e-08 0)
(1.34697e-08 -7.83282e-08 0)
(1.34383e-08 -9.43236e-08 0)
(1.34023e-08 -1.09913e-07 0)
(1.33621e-08 -1.25089e-07 0)
(1.3318e-08 -1.39816e-07 0)
(1.32704e-08 -1.54093e-07 0)
(1.32197e-08 -1.67939e-07 0)
(1.31662e-08 -1.81368e-07 0)
(1.31102e-08 -1.94391e-07 0)
(1.3052e-08 -2.07016e-07 0)
(1.29918e-08 -2.19251e-07 0)
(1.293e-08 -2.31108e-07 0)
(1.28667e-08 -2.42596e-07 0)
(1.28022e-08 -2.53726e-07 0)
(1.27367e-08 -2.64508e-07 0)
(1.26703e-08 -2.74951e-07 0)
(1.26033e-08 -2.85065e-07 0)
(1.25357e-08 -2.94861e-07 0)
(1.24678e-08 -3.04346e-07 0)
(1.23996e-08 -3.13531e-07 0)
(1.23314e-08 -3.22425e-07 0)
(1.22631e-08 -3.31036e-07 0)
(1.2195e-08 -3.39374e-07 0)
(1.21271e-08 -3.47447e-07 0)
(1.20595e-08 -3.55264e-07 0)
(1.19923e-08 -3.62831e-07 0)
(1.19256e-08 -3.70159e-07 0)
(1.18594e-08 -3.77253e-07 0)
(1.17937e-08 -3.84122e-07 0)
(1.17287e-08 -3.90773e-07 0)
(1.16644e-08 -3.97212e-07 0)
(1.16008e-08 -4.03448e-07 0)
(1.1538e-08 -4.09487e-07 0)
(1.14759e-08 -4.15334e-07 0)
(1.14147e-08 -4.20997e-07 0)
(1.13543e-08 -4.26481e-07 0)
(1.12948e-08 -4.31792e-07 0)
(1.12362e-08 -4.36937e-07 0)
(1.11785e-08 -4.41919e-07 0)
(1.11217e-08 -4.46746e-07 0)
(1.10658e-08 -4.51422e-07 0)
(1.10108e-08 -4.55951e-07 0)
(1.09568e-08 -4.6034e-07 0)
(1.09037e-08 -4.64592e-07 0)
(1.08516e-08 -4.68711e-07 0)
(1.08004e-08 -4.72704e-07 0)
(1.07501e-08 -4.76572e-07 0)
(1.07007e-08 -4.80321e-07 0)
(1.06523e-08 -4.83955e-07 0)
(1.06047e-08 -4.87477e-07 0)
(1.05581e-08 -4.90891e-07 0)
(1.05124e-08 -4.94201e-07 0)
(1.04676e-08 -4.97409e-07 0)
(1.04236e-08 -5.00519e-07 0)
(1.03805e-08 -5.03535e-07 0)
(1.03383e-08 -5.0646e-07 0)
(1.02969e-08 -5.09295e-07 0)
(1.02563e-08 -5.12045e-07 0)
(1.02165e-08 -5.14712e-07 0)
(1.01776e-08 -5.17299e-07 0)
(1.01394e-08 -5.19808e-07 0)
(1.0102e-08 -5.22241e-07 0)
(1.00653e-08 -5.24602e-07 0)
(1.00294e-08 -5.26893e-07 0)
(9.99428e-09 -5.29115e-07 0)
(9.95977e-09 -5.3127e-07 0)
(9.92622e-09 -5.33366e-07 0)
(9.89224e-09 -5.35387e-07 0)
(9.8596e-09 -5.37333e-07 0)
(9.82965e-09 -5.39228e-07 0)
(9.79996e-09 -5.41088e-07 0)
(9.77038e-09 -5.42936e-07 0)
(9.74086e-09 -5.44776e-07 0)
(9.7114e-09 -5.46603e-07 0)
(9.682e-09 -5.48415e-07 0)
(9.65265e-09 -5.50212e-07 0)
(9.62336e-09 -5.51996e-07 0)
(9.59412e-09 -5.53766e-07 0)
(9.56495e-09 -5.55523e-07 0)
(9.53583e-09 -5.57267e-07 0)
(9.50678e-09 -5.58997e-07 0)
(9.47779e-09 -5.60715e-07 0)
(9.44885e-09 -5.62419e-07 0)
(9.41999e-09 -5.6411e-07 0)
(9.39118e-09 -5.65788e-07 0)
(9.36244e-09 -5.67454e-07 0)
(9.33377e-09 -5.69107e-07 0)
(9.30514e-09 -5.70747e-07 0)
(9.2767e-09 -5.72377e-07 0)
(9.24779e-09 -5.73985e-07 0)
(9.22122e-09 -5.7562e-07 0)
(9.1851e-09 -5.77156e-07 0)
(9.14785e-09 -5.78573e-07 0)
(9.12326e-09 -5.79936e-07 0)
(9.10015e-09 -5.81193e-07 0)
(9.07734e-09 -5.82446e-07 0)
(9.05453e-09 -5.83723e-07 0)
(9.03166e-09 -5.85009e-07 0)
(9.0087e-09 -5.8629e-07 0)
(8.98565e-09 -5.87567e-07 0)
(8.96252e-09 -5.88844e-07 0)
(8.9393e-09 -5.90121e-07 0)
(8.91599e-09 -5.91398e-07 0)
(8.89259e-09 -5.92675e-07 0)
(8.86911e-09 -5.93952e-07 0)
(8.84554e-09 -5.95228e-07 0)
(8.82187e-09 -5.96504e-07 0)
(8.79812e-09 -5.97779e-07 0)
(8.77429e-09 -5.99054e-07 0)
(8.75036e-09 -6.00328e-07 0)
(8.72634e-09 -6.01602e-07 0)
(8.70224e-09 -6.02875e-07 0)
(8.67804e-09 -6.04148e-07 0)
(8.65376e-09 -6.0542e-07 0)
(8.62939e-09 -6.06692e-07 0)
(8.60493e-09 -6.07963e-07 0)
(8.58038e-09 -6.09234e-07 0)
(8.55575e-09 -6.10503e-07 0)
(8.53102e-09 -6.11773e-07 0)
(8.5062e-09 -6.13041e-07 0)
(8.4813e-09 -6.14309e-07 0)
(8.45631e-09 -6.15576e-07 0)
(8.43123e-09 -6.16842e-07 0)
(8.40605e-09 -6.18107e-07 0)
(8.38079e-09 -6.19372e-07 0)
(8.35545e-09 -6.20636e-07 0)
(8.33001e-09 -6.21899e-07 0)
(8.30448e-09 -6.23161e-07 0)
(8.27887e-09 -6.24422e-07 0)
(8.25316e-09 -6.25682e-07 0)
(8.22737e-09 -6.26941e-07 0)
(8.20149e-09 -6.28199e-07 0)
(8.17551e-09 -6.29457e-07 0)
(8.14945e-09 -6.30713e-07 0)
(8.12331e-09 -6.31968e-07 0)
(8.09707e-09 -6.33222e-07 0)
(8.07074e-09 -6.34475e-07 0)
(8.04433e-09 -6.35727e-07 0)
(8.01782e-09 -6.36977e-07 0)
(7.99123e-09 -6.38227e-07 0)
(7.96455e-09 -6.39475e-07 0)
(7.93778e-09 -6.40722e-07 0)
(7.91093e-09 -6.41967e-07 0)
(7.88398e-09 -6.43212e-07 0)
(7.85695e-09 -6.44455e-07 0)
(7.82983e-09 -6.45696e-07 0)
(7.80262e-09 -6.46937e-07 0)
(7.77532e-09 -6.48176e-07 0)
(7.74794e-09 -6.49413e-07 0)
(7.72046e-09 -6.50649e-07 0)
(7.6929e-09 -6.51883e-07 0)
(7.66526e-09 -6.53116e-07 0)
(7.63752e-09 -6.54348e-07 0)
(7.6097e-09 -6.55578e-07 0)
(7.58179e-09 -6.56806e-07 0)
(7.5538e-09 -6.58032e-07 0)
(7.52572e-09 -6.59257e-07 0)
(7.49755e-09 -6.6048e-07 0)
(7.46929e-09 -6.61702e-07 0)
(7.44095e-09 -6.62922e-07 0)
(7.41253e-09 -6.6414e-07 0)
(7.38401e-09 -6.65356e-07 0)
(7.35542e-09 -6.6657e-07 0)
(7.32673e-09 -6.67783e-07 0)
(7.29796e-09 -6.68993e-07 0)
(7.26911e-09 -6.70202e-07 0)
(7.24017e-09 -6.71409e-07 0)
(7.21115e-09 -6.72613e-07 0)
(7.18204e-09 -6.73816e-07 0)
(7.15285e-09 -6.75017e-07 0)
(7.12357e-09 -6.76215e-07 0)
(7.09421e-09 -6.77412e-07 0)
(7.06477e-09 -6.78606e-07 0)
(7.03524e-09 -6.79798e-07 0)
(7.00563e-09 -6.80988e-07 0)
(6.97594e-09 -6.82176e-07 0)
(6.94616e-09 -6.83361e-07 0)
(6.91631e-09 -6.84544e-07 0)
(6.88637e-09 -6.85725e-07 0)
(6.85635e-09 -6.86903e-07 0)
(6.82624e-09 -6.88079e-07 0)
(6.79606e-09 -6.89253e-07 0)
(6.7658e-09 -6.90424e-07 0)
(6.73545e-09 -6.91593e-07 0)
(6.70503e-09 -6.92759e-07 0)
(6.67452e-09 -6.93923e-07 0)
(6.64394e-09 -6.95084e-07 0)
(6.61328e-09 -6.96242e-07 0)
(6.58253e-09 -6.97398e-07 0)
(6.55171e-09 -6.98551e-07 0)
(6.52081e-09 -6.99701e-07 0)
(6.48984e-09 -7.00849e-07 0)
(6.45878e-09 -7.01994e-07 0)
(6.42765e-09 -7.03136e-07 0)
(6.39645e-09 -7.04275e-07 0)
(6.36516e-09 -7.05412e-07 0)
(6.3338e-09 -7.06545e-07 0)
(6.30237e-09 -7.07675e-07 0)
(6.27086e-09 -7.08803e-07 0)
(6.23928e-09 -7.09927e-07 0)
(6.20762e-09 -7.11049e-07 0)
(6.17588e-09 -7.12167e-07 0)
(6.14408e-09 -7.13282e-07 0)
(6.1122e-09 -7.14394e-07 0)
(6.08025e-09 -7.15503e-07 0)
(6.04823e-09 -7.16609e-07 0)
(6.01613e-09 -7.17711e-07 0)
(5.98397e-09 -7.1881e-07 0)
(5.95173e-09 -7.19906e-07 0)
(5.91943e-09 -7.20999e-07 0)
(5.88705e-09 -7.22088e-07 0)
(5.85461e-09 -7.23173e-07 0)
(5.82209e-09 -7.24255e-07 0)
(5.78951e-09 -7.25334e-07 0)
(5.75687e-09 -7.26409e-07 0)
(5.72415e-09 -7.27481e-07 0)
(5.69137e-09 -7.28549e-07 0)
(5.65852e-09 -7.29613e-07 0)
(5.62561e-09 -7.30674e-07 0)
(5.59263e-09 -7.31731e-07 0)
(5.55959e-09 -7.32784e-07 0)
(5.52649e-09 -7.33833e-07 0)
(5.49332e-09 -7.34879e-07 0)
(5.46009e-09 -7.3592e-07 0)
(5.4268e-09 -7.36958e-07 0)
(5.39345e-09 -7.37992e-07 0)
(5.36003e-09 -7.39022e-07 0)
(5.32656e-09 -7.40048e-07 0)
(5.29303e-09 -7.4107e-07 0)
(5.25944e-09 -7.42088e-07 0)
(5.22579e-09 -7.43102e-07 0)
(5.19208e-09 -7.44111e-07 0)
(5.15832e-09 -7.45117e-07 0)
(5.1245e-09 -7.46118e-07 0)
(5.09063e-09 -7.47115e-07 0)
(5.0567e-09 -7.48108e-07 0)
(5.02272e-09 -7.49096e-07 0)
(4.98868e-09 -7.5008e-07 0)
(4.95459e-09 -7.5106e-07 0)
(4.92045e-09 -7.52035e-07 0)
(4.88626e-09 -7.53005e-07 0)
(4.85202e-09 -7.53972e-07 0)
(4.81773e-09 -7.54933e-07 0)
(4.78339e-09 -7.5589e-07 0)
(4.74901e-09 -7.56843e-07 0)
(4.71457e-09 -7.57791e-07 0)
(4.68009e-09 -7.58734e-07 0)
(4.64557e-09 -7.59672e-07 0)
(4.611e-09 -7.60606e-07 0)
(4.57638e-09 -7.61535e-07 0)
(4.54173e-09 -7.62459e-07 0)
(4.50703e-09 -7.63378e-07 0)
(4.47229e-09 -7.64292e-07 0)
(4.4375e-09 -7.65201e-07 0)
(4.40268e-09 -7.66106e-07 0)
(4.36782e-09 -7.67005e-07 0)
(4.33292e-09 -7.67899e-07 0)
(4.29799e-09 -7.68788e-07 0)
(4.26301e-09 -7.69672e-07 0)
(4.22801e-09 -7.70551e-07 0)
(4.19295e-09 -7.71424e-07 0)
(4.15794e-09 -7.72295e-07 0)
(4.12255e-09 -7.73152e-07 0)
(4.08857e-09 -7.74041e-07 0)
(4.04846e-09 -7.74847e-07 0)
(4.00765e-09 -7.75623e-07 0)
(3.97522e-09 -7.76443e-07 0)
(3.94405e-09 -7.77184e-07 0)
(3.91298e-09 -7.77917e-07 0)
(3.88169e-09 -7.78669e-07 0)
(3.8501e-09 -7.79432e-07 0)
(3.81821e-09 -7.80194e-07 0)
(3.786e-09 -7.80956e-07 0)
(3.75347e-09 -7.81718e-07 0)
(3.72062e-09 -7.82483e-07 0)
(3.68746e-09 -7.8325e-07 0)
(3.65397e-09 -7.84018e-07 0)
(3.62016e-09 -7.84787e-07 0)
(3.58602e-09 -7.85557e-07 0)
(3.55157e-09 -7.86328e-07 0)
(3.51678e-09 -7.871e-07 0)
(3.48167e-09 -7.87872e-07 0)
(3.44623e-09 -7.88645e-07 0)
(3.41045e-09 -7.89419e-07 0)
(3.37435e-09 -7.90192e-07 0)
(3.33792e-09 -7.90966e-07 0)
(3.30116e-09 -7.9174e-07 0)
(3.26406e-09 -7.92513e-07 0)
(3.22663e-09 -7.93286e-07 0)
(3.18887e-09 -7.94058e-07 0)
(3.15078e-09 -7.94829e-07 0)
(3.11235e-09 -7.95599e-07 0)
(3.07358e-09 -7.96368e-07 0)
(3.03448e-09 -7.97136e-07 0)
(2.99504e-09 -7.97902e-07 0)
(2.95527e-09 -7.98666e-07 0)
(2.91517e-09 -7.99428e-07 0)
(2.87473e-09 -8.00187e-07 0)
(2.83396e-09 -8.00945e-07 0)
(2.79285e-09 -8.01699e-07 0)
(2.75141e-09 -8.0245e-07 0)
(2.70963e-09 -8.03198e-07 0)
(2.66753e-09 -8.03943e-07 0)
(2.62509e-09 -8.04684e-07 0)
(2.58232e-09 -8.05421e-07 0)
(2.53923e-09 -8.06153e-07 0)
(2.4958e-09 -8.06881e-07 0)
(2.45205e-09 -8.07604e-07 0)
(2.40798e-09 -8.08322e-07 0)
(2.36358e-09 -8.09035e-07 0)
(2.31886e-09 -8.09742e-07 0)
(2.27382e-09 -8.10443e-07 0)
(2.22846e-09 -8.11137e-07 0)
(2.18279e-09 -8.11825e-07 0)
(2.1368e-09 -8.12506e-07 0)
(2.09051e-09 -8.13179e-07 0)
(2.04391e-09 -8.13845e-07 0)
(1.997e-09 -8.14503e-07 0)
(1.9498e-09 -8.15152e-07 0)
(1.9023e-09 -8.15793e-07 0)
(1.8545e-09 -8.16425e-07 0)
(1.80641e-09 -8.17047e-07 0)
(1.75804e-09 -8.17659e-07 0)
(1.70939e-09 -8.18261e-07 0)
(1.66046e-09 -8.18853e-07 0)
(1.61125e-09 -8.19433e-07 0)
(1.56178e-09 -8.20002e-07 0)
(1.51205e-09 -8.20559e-07 0)
(1.46205e-09 -8.21104e-07 0)
(1.41181e-09 -8.21637e-07 0)
(1.36132e-09 -8.22156e-07 0)
(1.31059e-09 -8.22661e-07 0)
(1.25963e-09 -8.23153e-07 0)
(1.20844e-09 -8.2363e-07 0)
(1.15703e-09 -8.24092e-07 0)
(1.10541e-09 -8.24539e-07 0)
(1.05358e-09 -8.2497e-07 0)
(1.00156e-09 -8.25384e-07 0)
(9.49342e-10 -8.25782e-07 0)
(8.96945e-10 -8.26163e-07 0)
(8.44374e-10 -8.26525e-07 0)
(7.9164e-10 -8.2687e-07 0)
(7.3875e-10 -8.27195e-07 0)
(6.85713e-10 -8.27501e-07 0)
(6.32541e-10 -8.27788e-07 0)
(5.79242e-10 -8.28054e-07 0)
(5.25828e-10 -8.28299e-07 0)
(4.72308e-10 -8.28522e-07 0)
(4.18693e-10 -8.28724e-07 0)
(3.64995e-10 -8.28903e-07 0)
(3.11226e-10 -8.29059e-07 0)
(2.57396e-10 -8.29191e-07 0)
(2.03519e-10 -8.29299e-07 0)
(1.49607e-10 -8.29383e-07 0)
(9.56718e-11 -8.29441e-07 0)
(4.17275e-11 -8.29473e-07 0)
(-1.22127e-11 -8.29479e-07 0)
(-6.61352e-11 -8.29457e-07 0)
(-1.20026e-10 -8.29409e-07 0)
(-1.7387e-10 -8.29331e-07 0)
(-2.27654e-10 -8.29226e-07 0)
(-2.81361e-10 -8.2909e-07 0)
(-3.34978e-10 -8.28925e-07 0)
(-3.88487e-10 -8.28729e-07 0)
(-4.41875e-10 -8.28503e-07 0)
(-4.95123e-10 -8.28244e-07 0)
(-5.48216e-10 -8.27954e-07 0)
(-6.01137e-10 -8.2763e-07 0)
(-6.53869e-10 -8.27273e-07 0)
(-7.06395e-10 -8.26882e-07 0)
(-7.58697e-10 -8.26457e-07 0)
(-8.10757e-10 -8.25996e-07 0)
(-8.62557e-10 -8.255e-07 0)
(-9.1408e-10 -8.24968e-07 0)
(-9.65306e-10 -8.24398e-07 0)
(-1.01622e-09 -8.23792e-07 0)
(-1.06679e-09 -8.23147e-07 0)
(-1.11702e-09 -8.22464e-07 0)
(-1.16687e-09 -8.21742e-07 0)
(-1.21633e-09 -8.20981e-07 0)
(-1.26538e-09 -8.20179e-07 0)
(-1.31399e-09 -8.19338e-07 0)
(-1.36216e-09 -8.18455e-07 0)
(-1.40985e-09 -8.1753e-07 0)
(-1.45705e-09 -8.16564e-07 0)
(-1.50375e-09 -8.15555e-07 0)
(-1.54991e-09 -8.14504e-07 0)
(-1.59552e-09 -8.13409e-07 0)
(-1.64055e-09 -8.1227e-07 0)
(-1.685e-09 -8.11087e-07 0)
(-1.72883e-09 -8.0986e-07 0)
(-1.77203e-09 -8.08588e-07 0)
(-1.81458e-09 -8.07271e-07 0)
(-1.85646e-09 -8.05908e-07 0)
(-1.89764e-09 -8.04499e-07 0)
(-1.93812e-09 -8.03044e-07 0)
(-1.97786e-09 -8.01542e-07 0)
(-2.01685e-09 -7.99993e-07 0)
(-2.05507e-09 -7.98398e-07 0)
(-2.0925e-09 -7.96755e-07 0)
(-2.12913e-09 -7.95065e-07 0)
(-2.16493e-09 -7.93327e-07 0)
(-2.19989e-09 -7.91542e-07 0)
(-2.23398e-09 -7.89708e-07 0)
(-2.2672e-09 -7.87827e-07 0)
(-2.29952e-09 -7.85897e-07 0)
(-2.33093e-09 -7.8392e-07 0)
(-2.36142e-09 -7.81894e-07 0)
(-2.39096e-09 -7.7982e-07 0)
(-2.41954e-09 -7.77698e-07 0)
(-2.44715e-09 -7.75528e-07 0)
(-2.47377e-09 -7.7331e-07 0)
(-2.49939e-09 -7.71044e-07 0)
(-2.524e-09 -7.6873e-07 0)
(-2.54758e-09 -7.66369e-07 0)
(-2.57012e-09 -7.6396e-07 0)
(-2.59162e-09 -7.61504e-07 0)
(-2.61206e-09 -7.59002e-07 0)
(-2.63143e-09 -7.56453e-07 0)
(-2.64973e-09 -7.53858e-07 0)
(-2.66694e-09 -7.51217e-07 0)
(-2.68306e-09 -7.48531e-07 0)
(-2.69808e-09 -7.458e-07 0)
(-2.712e-09 -7.43024e-07 0)
(-2.72481e-09 -7.40204e-07 0)
(-2.73651e-09 -7.37341e-07 0)
(-2.74709e-09 -7.34435e-07 0)
(-2.75656e-09 -7.31487e-07 0)
(-2.7649e-09 -7.28497e-07 0)
(-2.77213e-09 -7.25466e-07 0)
(-2.77823e-09 -7.22395e-07 0)
(-2.78322e-09 -7.19285e-07 0)
(-2.78709e-09 -7.16135e-07 0)
(-2.78985e-09 -7.12948e-07 0)
(-2.7915e-09 -7.09723e-07 0)
(-2.79204e-09 -7.06463e-07 0)
(-2.79149e-09 -7.03166e-07 0)
(-2.78984e-09 -6.99836e-07 0)
(-2.7871e-09 -6.96472e-07 0)
(-2.78328e-09 -6.93075e-07 0)
(-2.7784e-09 -6.89647e-07 0)
(-2.77245e-09 -6.86189e-07 0)
(-2.76548e-09 -6.82698e-07 0)
(-2.75733e-09 -6.79188e-07 0)
(-2.74874e-09 -6.75606e-07 0)
(-2.73661e-09 -6.72061e-07 0)
(-2.72155e-09 -6.68118e-07 0)
(-2.70679e-09 -6.63689e-07 0)
(-2.69088e-09 -6.59312e-07 0)
(-2.67384e-09 -6.54976e-07 0)
(-2.65575e-09 -6.50668e-07 0)
(-2.63666e-09 -6.46387e-07 0)
(-2.61665e-09 -6.42135e-07 0)
(-2.59576e-09 -6.37918e-07 0)
(-2.57406e-09 -6.33736e-07 0)
(-2.5516e-09 -6.2959e-07 0)
(-2.52844e-09 -6.25481e-07 0)
(-2.50463e-09 -6.21409e-07 0)
(-2.48021e-09 -6.17377e-07 0)
(-2.45522e-09 -6.13384e-07 0)
(-2.42972e-09 -6.09433e-07 0)
(-2.40374e-09 -6.05523e-07 0)
(-2.37733e-09 -6.01656e-07 0)
(-2.3505e-09 -5.97832e-07 0)
(-2.32331e-09 -5.94051e-07 0)
(-2.29578e-09 -5.90315e-07 0)
(-2.26794e-09 -5.86623e-07 0)
(-2.23982e-09 -5.82977e-07 0)
(-2.21145e-09 -5.79377e-07 0)
(-2.18284e-09 -5.75823e-07 0)
(-2.15403e-09 -5.72315e-07 0)
(-2.12503e-09 -5.68854e-07 0)
(-2.09586e-09 -5.6544e-07 0)
(-2.06654e-09 -5.62073e-07 0)
(-2.03709e-09 -5.58754e-07 0)
(-2.00752e-09 -5.55483e-07 0)
(-1.97784e-09 -5.5226e-07 0)
(-1.94808e-09 -5.49084e-07 0)
(-1.91824e-09 -5.45957e-07 0)
(-1.88832e-09 -5.42878e-07 0)
(-1.85835e-09 -5.39848e-07 0)
(-1.82833e-09 -5.36866e-07 0)
(-1.79827e-09 -5.33933e-07 0)
(-1.76817e-09 -5.31049e-07 0)
(-1.73805e-09 -5.28213e-07 0)
(-1.7079e-09 -5.25426e-07 0)
(-1.67773e-09 -5.22688e-07 0)
(-1.64754e-09 -5.19998e-07 0)
(-1.61734e-09 -5.17358e-07 0)
(-1.58714e-09 -5.14766e-07 0)
(-1.55692e-09 -5.12223e-07 0)
(-1.52671e-09 -5.09729e-07 0)
(-1.49649e-09 -5.07284e-07 0)
(-1.46626e-09 -5.04888e-07 0)
(-1.43604e-09 -5.02541e-07 0)
(-1.40581e-09 -5.00242e-07 0)
(-1.37558e-09 -4.97993e-07 0)
(-1.34535e-09 -4.95792e-07 0)
(-1.31511e-09 -4.93641e-07 0)
(-1.28487e-09 -4.91538e-07 0)
(-1.25463e-09 -4.89484e-07 0)
(-1.22438e-09 -4.87479e-07 0)
(-1.19412e-09 -4.85523e-07 0)
(-1.16386e-09 -4.83616e-07 0)
(-1.13358e-09 -4.81758e-07 0)
(-1.10329e-09 -4.79949e-07 0)
(-1.07299e-09 -4.78189e-07 0)
(-1.04268e-09 -4.76477e-07 0)
(-1.01234e-09 -4.74815e-07 0)
(-9.81994e-10 -4.73202e-07 0)
(-9.51624e-10 -4.71638e-07 0)
(-9.21234e-10 -4.70124e-07 0)
(-8.90822e-10 -4.68658e-07 0)
(-8.60387e-10 -4.67242e-07 0)
(-8.29927e-10 -4.65875e-07 0)
(-7.99442e-10 -4.64557e-07 0)
(-7.6893e-10 -4.63288e-07 0)
(-7.38391e-10 -4.62069e-07 0)
(-7.07825e-10 -4.609e-07 0)
(-6.7723e-10 -4.59779e-07 0)
(-6.46608e-10 -4.58709e-07 0)
(-6.15957e-10 -4.57687e-07 0)
(-5.85278e-10 -4.56716e-07 0)
(-5.54571e-10 -4.55794e-07 0)
(-5.23837e-10 -4.54922e-07 0)
(-4.93077e-10 -4.54099e-07 0)
(-4.6229e-10 -4.53327e-07 0)
(-4.3148e-10 -4.52604e-07 0)
(-4.00646e-10 -4.51931e-07 0)
(-3.6979e-10 -4.51308e-07 0)
(-3.38912e-10 -4.50734e-07 0)
(-3.08016e-10 -4.50213e-07 0)
(-2.77097e-10 -4.49731e-07 0)
(-2.46164e-10 -4.49339e-07 0)
(-2.15187e-10 -4.48861e-07 0)
(-1.84268e-10 -4.48878e-07 0)
(-1.53038e-10 -4.47441e-07 0)
(-1.22836e-10 -4.50855e-07 0)
(-8.89073e-11 -4.37197e-07 0)
(-6.9153e-11 -4.72969e-07 0)
(-3.44739e-11 -4.1302e-07 0)
)
;
    }
    bottomWall
    {
        type            calculated;
        value           nonuniform List<vector> 
449
(
(-48.6307 -0.965482 0)
(-19.7877 -0.00516623 0)
(-14.3698 -0.001137 0)
(-12.0555 -0.000546579 0)
(-10.6466 -0.000352192 0)
(-9.65088 -0.000256486 0)
(-8.89139 -0.000198845 0)
(-8.28683 -0.000160079 0)
(-7.79065 -0.00013251 0)
(-7.37351 -0.000112097 0)
(-7.01621 -9.64358e-05 0)
(-6.70571 -8.40723e-05 0)
(-6.43267 -7.41007e-05 0)
(-6.19017 -6.59217e-05 0)
(-5.97296 -5.91155e-05 0)
(-5.77697 -5.33794e-05 0)
(-5.59898 -4.84911e-05 0)
(-5.43645 -4.42851e-05 0)
(-5.28728 -4.06355e-05 0)
(-5.14977 -3.74447e-05 0)
(-5.02249 -3.46362e-05 0)
(-4.90427 -3.21492e-05 0)
(-4.7941 -2.99346e-05 0)
(-4.69112 -2.79527e-05 0)
(-4.59459 -2.61709e-05 0)
(-4.5039 -2.45622e-05 0)
(-4.41847 -2.31043e-05 0)
(-4.33784 -2.17781e-05 0)
(-4.26159 -2.05679e-05 0)
(-4.18934 -1.946e-05 0)
(-4.12075 -1.84429e-05 0)
(-4.05555 -1.75067e-05 0)
(-3.99346 -1.66426e-05 0)
(-3.93426 -1.58433e-05 0)
(-3.87773 -1.51023e-05 0)
(-3.82369 -1.44138e-05 0)
(-3.77195 -1.37729e-05 0)
(-3.72237 -1.31752e-05 0)
(-3.67481 -1.26167e-05 0)
(-3.62914 -1.20941e-05 0)
(-3.58523 -1.16042e-05 0)
(-3.54298 -1.11442e-05 0)
(-3.50229 -1.07118e-05 0)
(-3.46308 -1.03047e-05 0)
(-3.42525 -9.92094e-06 0)
(-3.38873 -9.55869e-06 0)
(-3.35345 -9.21636e-06 0)
(-3.31934 -8.89246e-06 0)
(-3.28634 -8.58568e-06 0)
(-3.2544 -8.29479e-06 0)
(-3.22345 -8.01869e-06 0)
(-3.19346 -7.75637e-06 0)
(-3.16437 -7.50692e-06 0)
(-3.13615 -7.26947e-06 0)
(-3.10874 -7.04326e-06 0)
(-3.08212 -6.82758e-06 0)
(-3.05625 -6.62176e-06 0)
(-3.03109 -6.42521e-06 0)
(-3.00661 -6.23736e-06 0)
(-2.9828 -6.05769e-06 0)
(-2.9596 -5.88573e-06 0)
(-2.93701 -5.72103e-06 0)
(-2.915 -5.56318e-06 0)
(-2.89353 -5.41181e-06 0)
(-2.8726 -5.26655e-06 0)
(-2.85218 -5.12707e-06 0)
(-2.83225 -4.99307e-06 0)
(-2.8128 -4.86425e-06 0)
(-2.79379 -4.74035e-06 0)
(-2.77523 -4.62112e-06 0)
(-2.75708 -4.50632e-06 0)
(-2.73935 -4.39572e-06 0)
(-2.722 -4.28913e-06 0)
(-2.70503 -4.18635e-06 0)
(-2.68843 -4.0872e-06 0)
(-2.67218 -3.9915e-06 0)
(-2.65628 -3.8991e-06 0)
(-2.6407 -3.80983e-06 0)
(-2.62544 -3.72357e-06 0)
(-2.61049 -3.64017e-06 0)
(-2.59584 -3.55951e-06 0)
(-2.58148 -3.48147e-06 0)
(-2.5674 -3.40593e-06 0)
(-2.55359 -3.33278e-06 0)
(-2.54004 -3.26193e-06 0)
(-2.52675 -3.19328e-06 0)
(-2.51371 -3.12674e-06 0)
(-2.50091 -3.06222e-06 0)
(-2.48834 -2.99963e-06 0)
(-2.47599 -2.93891e-06 0)
(-2.46387 -2.87997e-06 0)
(-2.45197 -2.82275e-06 0)
(-2.44027 -2.76718e-06 0)
(-2.42877 -2.7132e-06 0)
(-2.41747 -2.66074e-06 0)
(-2.40636 -2.60975e-06 0)
(-2.39544 -2.56017e-06 0)
(-2.3847 -2.51196e-06 0)
(-2.37413 -2.46506e-06 0)
(-2.36374 -2.41942e-06 0)
(-2.35352 -2.375e-06 0)
(-2.34346 -2.33175e-06 0)
(-2.33355 -2.28964e-06 0)
(-2.32381 -2.24863e-06 0)
(-2.31421 -2.20866e-06 0)
(-2.30477 -2.16972e-06 0)
(-2.29546 -2.13177e-06 0)
(-2.2863 -2.09477e-06 0)
(-2.27728 -2.05869e-06 0)
(-2.26839 -2.02349e-06 0)
(-2.25963 -1.98916e-06 0)
(-2.25099 -1.95566e-06 0)
(-2.24249 -1.92297e-06 0)
(-2.2341 -1.89106e-06 0)
(-2.22583 -1.8599e-06 0)
(-2.21769 -1.82948e-06 0)
(-2.20965 -1.79976e-06 0)
(-2.20173 -1.77073e-06 0)
(-2.19391 -1.74237e-06 0)
(-2.1862 -1.71465e-06 0)
(-2.1786 -1.68756e-06 0)
(-2.1711 -1.66108e-06 0)
(-2.1637 -1.63518e-06 0)
(-2.1564 -1.60986e-06 0)
(-2.14919 -1.58509e-06 0)
(-2.14207 -1.56086e-06 0)
(-2.13505 -1.53716e-06 0)
(-2.12812 -1.51396e-06 0)
(-2.12128 -1.49126e-06 0)
(-2.11452 -1.46904e-06 0)
(-2.10785 -1.44728e-06 0)
(-2.10126 -1.42598e-06 0)
(-2.09475 -1.40512e-06 0)
(-2.08832 -1.38469e-06 0)
(-2.08198 -1.36467e-06 0)
(-2.0757 -1.34506e-06 0)
(-2.06951 -1.32585e-06 0)
(-2.06338 -1.30702e-06 0)
(-2.05733 -1.28857e-06 0)
(-2.05135 -1.27048e-06 0)
(-2.04544 -1.25275e-06 0)
(-2.0396 -1.23536e-06 0)
(-2.03383 -1.21831e-06 0)
(-2.02812 -1.20159e-06 0)
(-2.02248 -1.18519e-06 0)
(-2.0169 -1.1691e-06 0)
(-2.01138 -1.15331e-06 0)
(-2.00593 -1.13782e-06 0)
(-2.00053 -1.12262e-06 0)
(-1.9952 -1.10771e-06 0)
(-1.98992 -1.09306e-06 0)
(-1.9847 -1.07869e-06 0)
(-1.97954 -1.06457e-06 0)
(-1.97443 -1.05072e-06 0)
(-1.96938 -1.03711e-06 0)
(-1.96438 -1.02374e-06 0)
(-1.95943 -1.01061e-06 0)
(-1.95454 -9.97712e-07 0)
(-1.94969 -9.85039e-07 0)
(-1.9449 -9.72586e-07 0)
(-1.94015 -9.60346e-07 0)
(-1.93546 -9.48314e-07 0)
(-1.93081 -9.36485e-07 0)
(-1.92621 -9.24852e-07 0)
(-1.92165 -9.13408e-07 0)
(-1.91715 -9.02146e-07 0)
(-1.91268 -8.91059e-07 0)
(-1.90826 -8.80142e-07 0)
(-1.90389 -8.69336e-07 0)
(-1.89955 -8.58806e-07 0)
(-1.89526 -8.48096e-07 0)
(-1.89102 -8.37596e-07 0)
(-1.88682 -8.28875e-07 0)
(-1.88287 -8.21672e-07 0)
(-1.87917 -8.12536e-07 0)
(-1.87548 -8.01553e-07 0)
(-1.87179 -7.91785e-07 0)
(-1.86811 -7.82874e-07 0)
(-1.86443 -7.74229e-07 0)
(-1.86076 -7.65846e-07 0)
(-1.85708 -7.57647e-07 0)
(-1.8534 -7.49598e-07 0)
(-1.84972 -7.41668e-07 0)
(-1.84604 -7.3384e-07 0)
(-1.84236 -7.26098e-07 0)
(-1.83868 -7.18432e-07 0)
(-1.835 -7.10834e-07 0)
(-1.83131 -7.03298e-07 0)
(-1.82763 -6.95819e-07 0)
(-1.82395 -6.88393e-07 0)
(-1.82026 -6.81018e-07 0)
(-1.81658 -6.73692e-07 0)
(-1.81289 -6.66413e-07 0)
(-1.80921 -6.5918e-07 0)
(-1.80553 -6.51993e-07 0)
(-1.80185 -6.44852e-07 0)
(-1.79816 -6.37755e-07 0)
(-1.79448 -6.30704e-07 0)
(-1.7908 -6.23697e-07 0)
(-1.78713 -6.16735e-07 0)
(-1.78345 -6.09819e-07 0)
(-1.77978 -6.02947e-07 0)
(-1.7761 -5.96122e-07 0)
(-1.77243 -5.89342e-07 0)
(-1.76877 -5.82607e-07 0)
(-1.7651 -5.7592e-07 0)
(-1.76144 -5.69278e-07 0)
(-1.75778 -5.62683e-07 0)
(-1.75412 -5.56135e-07 0)
(-1.75047 -5.49634e-07 0)
(-1.74682 -5.43181e-07 0)
(-1.74318 -5.36775e-07 0)
(-1.73953 -5.30417e-07 0)
(-1.7359 -5.24107e-07 0)
(-1.73226 -5.17845e-07 0)
(-1.72864 -5.11631e-07 0)
(-1.72501 -5.05466e-07 0)
(-1.72139 -4.99349e-07 0)
(-1.71778 -4.93281e-07 0)
(-1.71417 -4.87262e-07 0)
(-1.71057 -4.81292e-07 0)
(-1.70697 -4.75371e-07 0)
(-1.70338 -4.69499e-07 0)
(-1.69979 -4.63677e-07 0)
(-1.69621 -4.57903e-07 0)
(-1.69264 -4.52179e-07 0)
(-1.68907 -4.46505e-07 0)
(-1.68551 -4.4088e-07 0)
(-1.68196 -4.35304e-07 0)
(-1.67841 -4.29778e-07 0)
(-1.67487 -4.24301e-07 0)
(-1.67134 -4.18874e-07 0)
(-1.66781 -4.13496e-07 0)
(-1.6643 -4.08167e-07 0)
(-1.66079 -4.02888e-07 0)
(-1.65728 -3.97658e-07 0)
(-1.65379 -3.92477e-07 0)
(-1.6503 -3.87346e-07 0)
(-1.64683 -3.82263e-07 0)
(-1.64336 -3.7723e-07 0)
(-1.6399 -3.72245e-07 0)
(-1.63645 -3.6731e-07 0)
(-1.633 -3.62422e-07 0)
(-1.62957 -3.57584e-07 0)
(-1.62614 -3.52794e-07 0)
(-1.62273 -3.48052e-07 0)
(-1.61932 -3.43358e-07 0)
(-1.61593 -3.38712e-07 0)
(-1.61254 -3.34114e-07 0)
(-1.60916 -3.29564e-07 0)
(-1.6058 -3.25061e-07 0)
(-1.60244 -3.20605e-07 0)
(-1.59909 -3.16197e-07 0)
(-1.59575 -3.11835e-07 0)
(-1.59243 -3.07521e-07 0)
(-1.58911 -3.03252e-07 0)
(-1.58581 -2.9903e-07 0)
(-1.58251 -2.94854e-07 0)
(-1.57923 -2.90724e-07 0)
(-1.57596 -2.86639e-07 0)
(-1.57269 -2.826e-07 0)
(-1.56944 -2.78605e-07 0)
(-1.5662 -2.74656e-07 0)
(-1.56298 -2.70752e-07 0)
(-1.55976 -2.66891e-07 0)
(-1.55655 -2.63075e-07 0)
(-1.55336 -2.59303e-07 0)
(-1.55018 -2.55574e-07 0)
(-1.54701 -2.51888e-07 0)
(-1.54385 -2.48246e-07 0)
(-1.5407 -2.44646e-07 0)
(-1.53757 -2.41089e-07 0)
(-1.53445 -2.37574e-07 0)
(-1.53134 -2.34101e-07 0)
(-1.52824 -2.3067e-07 0)
(-1.52515 -2.27279e-07 0)
(-1.52208 -2.2393e-07 0)
(-1.51902 -2.20622e-07 0)
(-1.51597 -2.17354e-07 0)
(-1.51294 -2.14126e-07 0)
(-1.50991 -2.10938e-07 0)
(-1.5069 -2.07789e-07 0)
(-1.50391 -2.0468e-07 0)
(-1.50092 -2.01609e-07 0)
(-1.49795 -1.98577e-07 0)
(-1.49499 -1.95583e-07 0)
(-1.49205 -1.92628e-07 0)
(-1.48912 -1.89709e-07 0)
(-1.4862 -1.86829e-07 0)
(-1.48329 -1.83985e-07 0)
(-1.4804 -1.81177e-07 0)
(-1.47752 -1.78406e-07 0)
(-1.47465 -1.75671e-07 0)
(-1.4718 -1.72972e-07 0)
(-1.46896 -1.70308e-07 0)
(-1.46614 -1.6768e-07 0)
(-1.46332 -1.65085e-07 0)
(-1.46052 -1.62526e-07 0)
(-1.45774 -1.6e-07 0)
(-1.45497 -1.57508e-07 0)
(-1.45221 -1.5505e-07 0)
(-1.44947 -1.52624e-07 0)
(-1.44673 -1.50232e-07 0)
(-1.44402 -1.47871e-07 0)
(-1.44131 -1.45543e-07 0)
(-1.43862 -1.43247e-07 0)
(-1.43595 -1.40982e-07 0)
(-1.43329 -1.38749e-07 0)
(-1.43064 -1.36546e-07 0)
(-1.428 -1.34374e-07 0)
(-1.42538 -1.32232e-07 0)
(-1.42278 -1.30119e-07 0)
(-1.42018 -1.28037e-07 0)
(-1.4176 -1.25983e-07 0)
(-1.41504 -1.23959e-07 0)
(-1.41249 -1.21963e-07 0)
(-1.40995 -1.19996e-07 0)
(-1.40743 -1.18056e-07 0)
(-1.40492 -1.16144e-07 0)
(-1.40242 -1.1426e-07 0)
(-1.39994 -1.12402e-07 0)
(-1.39747 -1.10571e-07 0)
(-1.39502 -1.08767e-07 0)
(-1.39258 -1.06989e-07 0)
(-1.39015 -1.05237e-07 0)
(-1.38774 -1.0351e-07 0)
(-1.38534 -1.01809e-07 0)
(-1.38295 -1.00132e-07 0)
(-1.38058 -9.84804e-08 0)
(-1.37823 -9.6853e-08 0)
(-1.37588 -9.52497e-08 0)
(-1.37355 -9.36701e-08 0)
(-1.37124 -9.21141e-08 0)
(-1.36894 -9.05814e-08 0)
(-1.36665 -8.90716e-08 0)
(-1.36437 -8.75845e-08 0)
(-1.36211 -8.61198e-08 0)
(-1.35987 -8.46773e-08 0)
(-1.35763 -8.32567e-08 0)
(-1.35542 -8.18578e-08 0)
(-1.35321 -8.04803e-08 0)
(-1.35102 -7.91241e-08 0)
(-1.34884 -7.77889e-08 0)
(-1.34667 -7.64747e-08 0)
(-1.34452 -7.51812e-08 0)
(-1.34239 -7.39087e-08 0)
(-1.34026 -7.26572e-08 0)
(-1.33815 -7.14274e-08 0)
(-1.33605 -7.02206e-08 0)
(-1.33397 -6.90378e-08 0)
(-1.33189 -6.78849e-08 0)
(-1.32983 -6.68121e-08 0)
(-1.32778 -6.56273e-08 0)
(-1.32575 -6.46712e-08 0)
(-1.32349 -6.38714e-08 0)
(-1.32102 -6.28449e-08 0)
(-1.3186 -6.17185e-08 0)
(-1.31622 -6.04107e-08 0)
(-1.3139 -5.90496e-08 0)
(-1.31163 -5.77206e-08 0)
(-1.30941 -5.64417e-08 0)
(-1.30724 -5.52121e-08 0)
(-1.30512 -5.40282e-08 0)
(-1.30304 -5.28873e-08 0)
(-1.30101 -5.1787e-08 0)
(-1.29902 -5.07246e-08 0)
(-1.29706 -4.96979e-08 0)
(-1.29515 -4.87048e-08 0)
(-1.29328 -4.77434e-08 0)
(-1.29144 -4.68122e-08 0)
(-1.28964 -4.59097e-08 0)
(-1.28787 -4.50345e-08 0)
(-1.28614 -4.41854e-08 0)
(-1.28444 -4.33612e-08 0)
(-1.28277 -4.25608e-08 0)
(-1.28113 -4.17833e-08 0)
(-1.27952 -4.10277e-08 0)
(-1.27794 -4.0293e-08 0)
(-1.27639 -3.95786e-08 0)
(-1.27487 -3.88835e-08 0)
(-1.27337 -3.82071e-08 0)
(-1.2719 -3.75486e-08 0)
(-1.27046 -3.69074e-08 0)
(-1.26903 -3.62828e-08 0)
(-1.26764 -3.56743e-08 0)
(-1.26626 -3.50813e-08 0)
(-1.26491 -3.45032e-08 0)
(-1.26358 -3.39395e-08 0)
(-1.26228 -3.33897e-08 0)
(-1.26099 -3.28534e-08 0)
(-1.25973 -3.23301e-08 0)
(-1.25848 -3.18194e-08 0)
(-1.25725 -3.13208e-08 0)
(-1.25605 -3.0834e-08 0)
(-1.25486 -3.03586e-08 0)
(-1.25369 -2.98942e-08 0)
(-1.25254 -2.94405e-08 0)
(-1.2514 -2.89971e-08 0)
(-1.25029 -2.85638e-08 0)
(-1.24919 -2.81403e-08 0)
(-1.2481 -2.77261e-08 0)
(-1.24703 -2.73211e-08 0)
(-1.24598 -2.6925e-08 0)
(-1.24494 -2.65376e-08 0)
(-1.24392 -2.61585e-08 0)
(-1.24291 -2.57875e-08 0)
(-1.24192 -2.54244e-08 0)
(-1.24094 -2.50691e-08 0)
(-1.23997 -2.47212e-08 0)
(-1.23902 -2.43805e-08 0)
(-1.23808 -2.4047e-08 0)
(-1.23716 -2.37203e-08 0)
(-1.23624 -2.34003e-08 0)
(-1.23534 -2.30868e-08 0)
(-1.23445 -2.27797e-08 0)
(-1.23357 -2.24788e-08 0)
(-1.23271 -2.21839e-08 0)
(-1.23185 -2.18949e-08 0)
(-1.23101 -2.16116e-08 0)
(-1.23017 -2.1334e-08 0)
(-1.22935 -2.10618e-08 0)
(-1.22854 -2.0795e-08 0)
(-1.22774 -2.05334e-08 0)
(-1.22695 -2.0277e-08 0)
(-1.22616 -2.00256e-08 0)
(-1.22539 -1.97792e-08 0)
(-1.22463 -1.95376e-08 0)
(-1.22388 -1.93008e-08 0)
(-1.22313 -1.90688e-08 0)
(-1.2224 -1.88416e-08 0)
(-1.22167 -1.8619e-08 0)
(-1.22095 -1.84013e-08 0)
(-1.22024 -1.81883e-08 0)
(-1.21954 -1.79803e-08 0)
(-1.21885 -1.77774e-08 0)
(-1.21816 -1.75801e-08 0)
(-1.21749 -1.73889e-08 0)
(-1.21682 -1.72047e-08 0)
(-1.21615 -1.70287e-08 0)
(-1.21549 -1.68644e-08 0)
(-1.21484 -1.67128e-08 0)
(-1.2142 -1.65855e-08 0)
(-1.21356 -1.65038e-08 0)
(-1.21292 -1.65048e-08 0)
(-1.21228 -1.59375e-08 0)
(-1.21168 -2.10003e-08 0)
(-1.21065 -5.08836e-09 0)
(-1.2113 -1.48583e-08 0)
(-1.20947 -2.42438e-08 0)
)
;
    }
    symmetry
    {
        type            symmetryPlane;
    }
    frontAndBack
    {
        type            empty;
    }
}


// ************************************************************************* //
