/*--------------------------------*- C++ -*----------------------------------*\
| =========                 |                                                 |
| \\      /  F ield         | OpenFOAM: The Open Source CFD Toolbox           |
|  \\    /   O peration     | Version:  v2012                                 |
|   \\  /    A nd           | Website:  www.openfoam.com                      |
|    \\/     M anipulation  |                                                 |
\*---------------------------------------------------------------------------*/
FoamFile
{
    version     2.0;
    format      ascii;
    class       volScalarField;
    location    "13";
    object      yPlus;
}
// * * * * * * * * * * * * * * * * * * * * * * * * * * * * * * * * * * * * * //

dimensions      [0 0 0 0 0 0 0];


internalField   uniform 0;

boundaryField
{
    inlet
    {
        type            calculated;
        value           uniform 0;
    }
    outlet
    {
        type            calculated;
        value           uniform 0;
    }
    topWall
    {
        type            calculated;
        value           nonuniform List<scalar> 
545
(
0.0675707
0.116589
0.149544
0.175753
0.197927
0.217313
0.234612
0.250266
0.264574
0.277754
0.289967
0.301339
0.311969
0.321939
0.331316
0.340157
0.348509
0.356414
0.363908
0.371022
0.377784
0.38422
0.390351
0.396197
0.401778
0.407108
0.412203
0.417077
0.421742
0.42621
0.430492
0.434598
0.438537
0.442317
0.445947
0.449434
0.452784
0.456006
0.459104
0.462085
0.464953
0.467715
0.470374
0.472936
0.475405
0.477784
0.480078
0.48229
0.484423
0.486482
0.488469
0.490387
0.492238
0.494026
0.495753
0.497421
0.499033
0.500591
0.502097
0.503553
0.504961
0.506323
0.50764
0.508914
0.510146
0.511339
0.512494
0.513611
0.514693
0.515741
0.516755
0.517738
0.518677
0.519584
0.520483
0.521374
0.522257
0.523131
0.523997
0.524855
0.525705
0.526548
0.527383
0.52821
0.529029
0.529841
0.530646
0.531443
0.532233
0.533016
0.533792
0.534561
0.535322
0.536077
0.536825
0.537567
0.538233
0.538828
0.539422
0.540015
0.540608
0.541199
0.54179
0.542381
0.54297
0.543559
0.544147
0.544734
0.54532
0.545906
0.546491
0.547075
0.547658
0.54824
0.548821
0.549402
0.549982
0.550561
0.551139
0.551716
0.552292
0.552867
0.553442
0.554015
0.554588
0.55516
0.55573
0.5563
0.556869
0.557437
0.558004
0.55857
0.559135
0.559699
0.560262
0.560824
0.561385
0.561945
0.562504
0.563062
0.563619
0.564175
0.564729
0.565283
0.565835
0.566387
0.566937
0.567487
0.568035
0.568582
0.569128
0.569673
0.570216
0.570759
0.5713
0.57184
0.572379
0.572917
0.573453
0.573989
0.574523
0.575056
0.575587
0.576118
0.576647
0.577175
0.577701
0.578226
0.57875
0.579273
0.579794
0.580315
0.580833
0.581351
0.581867
0.582381
0.582895
0.583406
0.583917
0.584426
0.584934
0.58544
0.585945
0.586448
0.58695
0.587451
0.58795
0.588447
0.588943
0.589438
0.589931
0.590422
0.590912
0.591401
0.591888
0.592373
0.592857
0.593339
0.59382
0.594299
0.594776
0.595252
0.595726
0.596199
0.596669
0.597139
0.597606
0.598072
0.598536
0.598999
0.599459
0.599918
0.600376
0.600831
0.601285
0.601737
0.602187
0.602636
0.603082
0.603527
0.60397
0.604411
0.60485
0.605288
0.605724
0.606157
0.606589
0.607019
0.607447
0.607873
0.608298
0.60872
0.60914
0.609559
0.609975
0.610389
0.610802
0.611212
0.611621
0.612027
0.612431
0.612834
0.613234
0.613632
0.614028
0.614422
0.614814
0.615204
0.615592
0.615977
0.616361
0.616742
0.617121
0.617498
0.617873
0.618245
0.618615
0.618984
0.619349
0.619713
0.620074
0.620434
0.62079
0.621145
0.621497
0.621847
0.622195
0.62254
0.622883
0.623204
0.623505
0.623807
0.62411
0.624413
0.624717
0.625022
0.625327
0.625633
0.625939
0.626246
0.626553
0.62686
0.627168
0.627476
0.627784
0.628093
0.628401
0.628709
0.629017
0.629326
0.629634
0.629941
0.630249
0.630555
0.630862
0.631168
0.631473
0.631778
0.632081
0.632384
0.632686
0.632987
0.633287
0.633585
0.633882
0.634178
0.634472
0.634765
0.635056
0.635345
0.635632
0.635917
0.6362
0.636481
0.636759
0.637035
0.637308
0.637579
0.637847
0.638111
0.638373
0.638631
0.638886
0.639138
0.639386
0.63963
0.63987
0.640106
0.640337
0.640565
0.640788
0.641006
0.641219
0.641427
0.64163
0.641828
0.64202
0.642207
0.642387
0.642562
0.642731
0.642893
0.643048
0.643197
0.643338
0.643473
0.6436
0.64372
0.643832
0.643936
0.644031
0.644119
0.644198
0.644268
0.644329
0.644381
0.644424
0.644457
0.64448
0.644493
0.644496
0.644488
0.64447
0.644441
0.6444
0.644348
0.644285
0.64421
0.644122
0.644022
0.64391
0.643785
0.643647
0.643495
0.64333
0.643152
0.642959
0.642753
0.642532
0.642296
0.642045
0.64178
0.641499
0.641202
0.64089
0.640562
0.640217
0.639856
0.639479
0.639084
0.638673
0.638244
0.637798
0.637334
0.636853
0.636353
0.635835
0.635299
0.634744
0.634171
0.633578
0.632967
0.632336
0.631686
0.631016
0.630327
0.629618
0.628889
0.628141
0.627372
0.626583
0.625773
0.624943
0.624093
0.623223
0.622332
0.62142
0.620487
0.619535
0.618561
0.617567
0.616552
0.615516
0.61446
0.613384
0.612287
0.61117
0.610032
0.608874
0.607696
0.606498
0.60528
0.604042
0.602785
0.601508
0.600213
0.598898
0.597564
0.596212
0.594841
0.593452
0.592046
0.590622
0.58918
0.587722
0.586247
0.584755
0.583248
0.581725
0.580186
0.578461
0.576557
0.574657
0.572763
0.570875
0.568994
0.567121
0.565256
0.563401
0.561555
0.55972
0.557895
0.556082
0.554282
0.552494
0.550719
0.548958
0.547211
0.545478
0.54376
0.542057
0.54037
0.538699
0.537045
0.535406
0.533785
0.532181
0.530595
0.529026
0.527475
0.525943
0.524429
0.522933
0.521457
0.52
0.518562
0.517143
0.515744
0.514366
0.513007
0.511669
0.510351
0.509053
0.507777
0.506521
0.505286
0.504073
0.502881
0.501711
0.500562
0.499436
0.498331
0.497249
0.496189
0.495151
0.494136
0.493143
0.492174
0.491228
0.490305
0.489405
0.488528
0.487676
0.486847
0.486042
0.48526
0.484504
0.483771
0.483063
0.482379
0.48172
0.481086
0.480477
0.479892
0.479333
0.4788
0.478291
0.477808
0.477351
0.476919
0.476513
0.476133
0.475779
0.475451
0.475149
0.474873
0.474624
0.4744
0.474203
0.474033
0.473888
0.473771
0.473678
0.473619
0.47356
)
;
    }
    bottomWall
    {
        type            calculated;
        value           nonuniform List<scalar> 
449
(
0.139594
0.0890431
0.07588
0.0695016
0.0653143
0.062185
0.059688
0.057623
0.0558713
0.0543549
0.0530217
0.0518352
0.0507689
0.0498028
0.0489212
0.0481118
0.0473649
0.0466723
0.0460276
0.0454251
0.0448603
0.0443291
0.0438284
0.0433551
0.0429067
0.0424811
0.0420764
0.0416907
0.0413226
0.0409708
0.0406341
0.0403113
0.0400016
0.0397039
0.0394177
0.039142
0.0388763
0.03862
0.0383725
0.0381332
0.0379018
0.0376779
0.0374609
0.0372506
0.0370466
0.0368486
0.0366562
0.0364693
0.0362876
0.0361108
0.0359387
0.0357711
0.0356079
0.0354487
0.0352935
0.035142
0.0349942
0.0348499
0.0347089
0.0345711
0.0344365
0.0343048
0.034176
0.0340499
0.0339266
0.0338058
0.0336874
0.0335715
0.0334579
0.0333466
0.0332374
0.0331303
0.0330253
0.0329222
0.032821
0.0327217
0.0326241
0.0325283
0.0324342
0.0323417
0.0322508
0.0321615
0.0320737
0.0319873
0.0319023
0.0318188
0.0317365
0.0316556
0.031576
0.0314976
0.0314204
0.0313443
0.0312695
0.0311957
0.0311231
0.0310515
0.0309809
0.0309114
0.0308429
0.0307753
0.0307086
0.0306429
0.0305781
0.0305142
0.0304512
0.0303889
0.0303275
0.030267
0.0302072
0.0301481
0.0300899
0.0300323
0.0299755
0.0299194
0.029864
0.0298093
0.0297553
0.0297019
0.0296491
0.029597
0.0295455
0.0294946
0.0294442
0.0293945
0.0293453
0.0292967
0.0292487
0.0292012
0.0291542
0.0291077
0.0290618
0.0290163
0.0289713
0.0289268
0.0288828
0.0288393
0.0287962
0.0287536
0.0287114
0.0286696
0.0286283
0.0285874
0.0285469
0.0285068
0.0284671
0.0284279
0.0283889
0.0283504
0.0283123
0.0282745
0.0282371
0.0282
0.0281633
0.028127
0.028091
0.0280553
0.0280199
0.0279849
0.0279502
0.0279158
0.0278818
0.027848
0.0278145
0.0277814
0.0277485
0.0277159
0.0276837
0.0276517
0.0276199
0.0275885
0.0275573
0.0275264
0.0274958
0.0274671
0.0274401
0.0274131
0.0273862
0.0273592
0.0273323
0.0273053
0.0272783
0.0272513
0.0272242
0.0271971
0.02717
0.0271428
0.0271156
0.0270884
0.0270611
0.0270339
0.0270065
0.0269792
0.0269518
0.0269244
0.026897
0.0268696
0.0268421
0.0268146
0.0267871
0.0267596
0.0267321
0.0267045
0.0266769
0.0266494
0.0266218
0.0265942
0.0265666
0.026539
0.0265114
0.0264837
0.0264561
0.0264285
0.0264009
0.0263733
0.0263457
0.0263181
0.0262905
0.0262629
0.0262353
0.0262077
0.0261802
0.0261526
0.0261251
0.0260976
0.0260701
0.0260426
0.0260151
0.0259877
0.0259603
0.0259329
0.0259055
0.0258782
0.0258509
0.0258236
0.0257964
0.0257692
0.025742
0.0257149
0.0256877
0.0256607
0.0256336
0.0256067
0.0255797
0.0255528
0.0255259
0.0254991
0.0254723
0.0254456
0.0254189
0.0253923
0.0253657
0.0253392
0.0253127
0.0252863
0.0252599
0.0252336
0.0252073
0.0251812
0.025155
0.0251289
0.0251029
0.025077
0.0250511
0.0250252
0.0249995
0.0249738
0.0249481
0.0249226
0.0248971
0.0248716
0.0248463
0.024821
0.0247958
0.0247707
0.0247456
0.0247206
0.0246957
0.0246708
0.0246461
0.0246214
0.0245968
0.0245722
0.0245478
0.0245234
0.0244991
0.0244749
0.0244508
0.0244268
0.0244028
0.024379
0.0243552
0.0243315
0.0243079
0.0242844
0.0242609
0.0242376
0.0242143
0.0241911
0.0241681
0.0241451
0.0241222
0.0240994
0.0240767
0.0240541
0.0240315
0.0240091
0.0239868
0.0239645
0.0239424
0.0239203
0.0238983
0.0238765
0.0238547
0.023833
0.0238115
0.02379
0.0237686
0.0237473
0.0237262
0.0237051
0.0236841
0.0236632
0.0236424
0.0236217
0.0236011
0.0235806
0.0235603
0.02354
0.0235198
0.0234997
0.0234797
0.0234598
0.0234401
0.0234204
0.0234008
0.0233813
0.0233619
0.0233427
0.0233235
0.0233044
0.0232854
0.0232666
0.0232478
0.0232292
0.0232106
0.0231921
0.0231738
0.0231555
0.0231374
0.0231193
0.0231013
0.0230835
0.0230656
0.023048
0.0230283
0.0230069
0.0229857
0.022965
0.0229448
0.0229249
0.0229055
0.0228865
0.0228679
0.0228497
0.0228319
0.0228144
0.0227973
0.0227805
0.022764
0.0227478
0.0227319
0.0227164
0.0227011
0.0226861
0.0226713
0.0226568
0.0226426
0.0226286
0.0226149
0.0226014
0.0225881
0.0225751
0.0225622
0.0225496
0.0225372
0.022525
0.0225129
0.0225011
0.0224895
0.022478
0.0224667
0.0224556
0.0224447
0.0224339
0.0224233
0.0224129
0.0224026
0.0223924
0.0223824
0.0223726
0.0223629
0.0223533
0.0223438
0.0223345
0.0223254
0.0223163
0.0223074
0.0222986
0.0222899
0.0222814
0.0222729
0.0222646
0.0222563
0.0222482
0.0222402
0.0222323
0.0222245
0.0222168
0.0222092
0.0222016
0.0221942
0.0221869
0.0221797
0.0221725
0.0221654
0.0221585
0.0221516
0.0221448
0.022138
0.0221314
0.0221248
0.0221183
0.0221119
0.0221055
0.0220992
0.022093
0.0220869
0.0220808
0.0220748
0.0220688
0.0220629
0.022057
0.0220512
0.0220454
0.0220396
0.0220342
0.0220248
0.0220307
0.022014
)
;
    }
    symmetry
    {
        type            symmetryPlane;
    }
    frontAndBack
    {
        type            empty;
    }
}


// ************************************************************************* //
