/*--------------------------------*- C++ -*----------------------------------*\
| =========                 |                                                 |
| \\      /  F ield         | OpenFOAM: The Open Source CFD Toolbox           |
|  \\    /   O peration     | Version:  v2012                                 |
|   \\  /    A nd           | Website:  www.openfoam.com                      |
|    \\/     M anipulation  |                                                 |
\*---------------------------------------------------------------------------*/
FoamFile
{
    version     2.0;
    format      ascii;
    class       volScalarField;
    location    "33";
    object      k;
}
// * * * * * * * * * * * * * * * * * * * * * * * * * * * * * * * * * * * * * //

dimensions      [0 2 -2 0 0 0 0];


internalField   nonuniform List<scalar> 
209825
(
0.00102356
0.000929799
0.000857127
0.00080291
0.000762788
0.000732711
0.000709724
0.000691756
0.000677459
0.000665865
0.000656346
0.000648412
0.000641744
0.000636071
0.000631214
0.000627016
0.00062337
0.000620181
0.000617372
0.000614893
0.000612687
0.000610729
0.000608964
0.00060739
0.000605959
0.000604683
0.000603505
0.000602455
0.000601475
0.000600609
0.000599789
0.000599061
0.000598374
0.000597768
0.00059718
0.000596664
0.000596161
0.000595733
0.000595303
0.000594937
0.000594569
0.000594267
0.000593948
0.000593681
0.000593419
0.000593194
0.000592956
0.000592762
0.000592559
0.000592403
0.000592245
0.000592117
0.00059197
0.000591861
0.000591752
0.000591644
0.000591552
0.000591473
0.00059137
0.000591319
0.000591234
0.000591189
0.0005911
0.000591062
0.000590971
0.000591013
0.000591058
0.000591084
0.000591084
0.000591157
0.000591157
0.000591243
0.00059127
0.000591371
0.000591422
0.000591542
0.000591592
0.000591712
0.000591774
0.000591911
0.00059198
0.000592129
0.000592207
0.000592378
0.000592469
0.000592663
0.000592764
0.000592985
0.000593094
0.000593363
0.000593474
0.000593808
0.000594053
0.000603731
0.000636819
0.00158609
0.00102356
0.000929799
0.000857126
0.000802908
0.000762785
0.000732705
0.000709717
0.000691748
0.000677449
0.000665854
0.000656335
0.0006484
0.000641731
0.000636057
0.0006312
0.000627001
0.000623355
0.000620165
0.000617356
0.000614877
0.00061267
0.000610712
0.000608947
0.000607373
0.000605942
0.000604666
0.000603487
0.000602437
0.000601458
0.000600591
0.000599771
0.000599043
0.000598355
0.00059775
0.000597161
0.000596646
0.000596143
0.000595714
0.000595284
0.000594918
0.000594551
0.000594249
0.000593929
0.000593663
0.0005934
0.000593175
0.000592937
0.000592743
0.00059254
0.000592384
0.000592226
0.000592098
0.000591951
0.000591841
0.000591733
0.000591625
0.000591533
0.000591454
0.000591351
0.0005913
0.000591214
0.00059117
0.000591081
0.000591043
0.000590951
0.000590994
0.000591038
0.000591064
0.000591064
0.000591137
0.000591137
0.000591224
0.00059125
0.000591351
0.000591402
0.000591523
0.000591572
0.000591693
0.000591754
0.000591891
0.00059196
0.000592109
0.000592187
0.000592358
0.000592449
0.000592643
0.000592744
0.000592965
0.000593074
0.000593343
0.000593454
0.000593788
0.000594034
0.000603729
0.000636809
0.001587
0.00102356
0.000929801
0.000857123
0.000802898
0.000762766
0.000732679
0.000709684
0.00069171
0.000677407
0.000665808
0.000656285
0.000648347
0.000641676
0.000636
0.000631141
0.000626941
0.000623293
0.000620102
0.000617292
0.000614812
0.000612604
0.000610645
0.000608879
0.000607305
0.000605873
0.000604596
0.000603417
0.000602367
0.000601387
0.00060052
0.000599699
0.000598971
0.000598283
0.000597678
0.000597089
0.000596573
0.00059607
0.000595641
0.000595211
0.000594844
0.000594477
0.000594174
0.000593855
0.000593588
0.000593325
0.0005931
0.000592862
0.000592668
0.000592465
0.000592309
0.000592151
0.000592022
0.000591875
0.000591766
0.000591657
0.000591549
0.000591457
0.000591378
0.000591275
0.000591223
0.000591138
0.000591094
0.000591004
0.000590967
0.000590875
0.000590917
0.000590962
0.000590987
0.000590987
0.00059106
0.00059106
0.000591146
0.000591173
0.000591274
0.000591325
0.000591445
0.000591494
0.000591615
0.000591676
0.000591813
0.000591882
0.000592031
0.000592109
0.00059228
0.000592371
0.000592565
0.000592665
0.000592886
0.000592996
0.000593264
0.000593375
0.000593709
0.000593955
0.000603687
0.000636746
0.00158883
0.00102356
0.000929803
0.000857117
0.00080288
0.000762735
0.000732635
0.00070963
0.000691646
0.000677335
0.00066573
0.000656202
0.000648259
0.000641584
0.000635904
0.000631042
0.00062684
0.000623189
0.000619996
0.000617184
0.000614703
0.000612494
0.000610533
0.000608766
0.00060719
0.000605758
0.00060448
0.0006033
0.000602249
0.000601268
0.000600401
0.00059958
0.000598851
0.000598162
0.000597556
0.000596967
0.000596451
0.000595947
0.000595517
0.000595087
0.00059472
0.000594352
0.00059405
0.00059373
0.000593463
0.0005932
0.000592975
0.000592736
0.000592543
0.000592339
0.000592183
0.000592024
0.000591896
0.000591748
0.000591639
0.00059153
0.000591422
0.000591329
0.00059125
0.000591147
0.000591096
0.00059101
0.000590966
0.000590877
0.000590839
0.000590746
0.000590789
0.000590833
0.000590858
0.000590858
0.000590931
0.000590931
0.000591017
0.000591043
0.000591144
0.000591195
0.000591315
0.000591364
0.000591485
0.000591546
0.000591683
0.000591751
0.0005919
0.000591979
0.000592149
0.00059224
0.000592433
0.000592534
0.000592755
0.000592864
0.000593132
0.000593243
0.000593577
0.000593823
0.000603612
0.000636639
0.00159094
0.00102356
0.000929805
0.00085711
0.000802854
0.00076269
0.000732573
0.000709553
0.000691556
0.000677235
0.00066562
0.000656084
0.000648135
0.000641454
0.000635769
0.000630903
0.000626697
0.000623043
0.000619847
0.000617032
0.000614549
0.000612337
0.000610375
0.000608606
0.000607029
0.000605595
0.000604316
0.000603135
0.000602083
0.000601101
0.000600232
0.00059941
0.000598681
0.000597991
0.000597385
0.000596795
0.000596278
0.000595774
0.000595344
0.000594913
0.000594546
0.000594177
0.000593874
0.000593554
0.000593287
0.000593024
0.000592798
0.000592559
0.000592365
0.000592161
0.000592005
0.000591846
0.000591717
0.00059157
0.00059146
0.000591351
0.000591243
0.00059115
0.000591071
0.000590967
0.000590916
0.00059083
0.000590786
0.000590696
0.000590658
0.000590566
0.000590608
0.000590652
0.000590676
0.000590676
0.000590748
0.000590748
0.000590834
0.00059086
0.000590961
0.000591012
0.000591132
0.000591181
0.000591301
0.000591362
0.000591499
0.000591567
0.000591716
0.000591794
0.000591964
0.000592055
0.000592248
0.000592349
0.000592569
0.000592678
0.000592946
0.000593056
0.00059339
0.000593637
0.000603504
0.000636486
0.00159333
0.00102357
0.000929809
0.0008571
0.000802822
0.000762633
0.000732493
0.000709453
0.00069144
0.000677104
0.000665478
0.000655932
0.000647974
0.000641286
0.000635595
0.000630723
0.000626512
0.000622854
0.000619654
0.000616836
0.000614349
0.000612135
0.00061017
0.000608399
0.00060682
0.000605384
0.000604103
0.00060292
0.000601867
0.000600884
0.000600014
0.000599191
0.000598461
0.00059777
0.000597163
0.000596572
0.000596054
0.000595549
0.000595119
0.000594687
0.000594319
0.000593951
0.000593647
0.000593326
0.000593058
0.000592795
0.000592569
0.000592329
0.000592135
0.00059193
0.000591774
0.000591615
0.000591486
0.000591338
0.000591228
0.000591119
0.00059101
0.000590917
0.000590838
0.000590734
0.000590683
0.000590597
0.000590552
0.000590463
0.000590424
0.000590331
0.000590373
0.000590416
0.00059044
0.00059044
0.000590512
0.000590512
0.000590598
0.000590623
0.000590724
0.000590775
0.000590894
0.000590943
0.000591063
0.000591124
0.00059126
0.000591329
0.000591477
0.000591555
0.000591724
0.000591815
0.000592008
0.000592108
0.000592328
0.000592437
0.000592705
0.000592815
0.000593148
0.000593396
0.000603365
0.000636289
0.00159593
0.00102357
0.000929813
0.000857087
0.000802781
0.000762563
0.000732395
0.00070933
0.000691297
0.000676944
0.000665303
0.000655744
0.000647776
0.000641078
0.000635379
0.000630501
0.000626283
0.00062262
0.000619415
0.000616593
0.000614103
0.000611885
0.000609917
0.000608144
0.000606562
0.000605124
0.000603841
0.000602656
0.000601601
0.000600616
0.000599745
0.000598921
0.000598189
0.000597497
0.000596889
0.000596297
0.000595779
0.000595273
0.000594841
0.000594409
0.00059404
0.000593671
0.000593367
0.000593045
0.000592777
0.000592513
0.000592286
0.000592046
0.000591852
0.000591646
0.000591489
0.00059133
0.0005912
0.000591052
0.000590942
0.000590832
0.000590724
0.00059063
0.000590551
0.000590447
0.000590395
0.000590309
0.000590264
0.000590174
0.000590136
0.000590042
0.000590084
0.000590127
0.00059015
0.00059015
0.00059022
0.00059022
0.000590306
0.000590331
0.000590431
0.000590482
0.000590601
0.00059065
0.000590769
0.00059083
0.000590966
0.000591034
0.000591182
0.00059126
0.000591429
0.000591519
0.000591712
0.000591812
0.000592032
0.000592141
0.000592407
0.000592517
0.00059285
0.000593099
0.000603194
0.000636046
0.00159863
0.00102357
0.000929819
0.000857073
0.000802734
0.000762479
0.000732278
0.000709184
0.000691126
0.000676753
0.000665094
0.000655521
0.00064754
0.000640831
0.000635123
0.000630236
0.000626011
0.000622342
0.000619131
0.000616304
0.000613809
0.000611588
0.000609616
0.000607839
0.000606254
0.000604814
0.000603528
0.000602341
0.000601284
0.000600297
0.000599425
0.000598598
0.000597865
0.000597172
0.000596562
0.000595969
0.00059545
0.000594943
0.00059451
0.000594077
0.000593708
0.000593337
0.000593032
0.00059271
0.000592441
0.000592176
0.000591949
0.000591708
0.000591513
0.000591308
0.00059115
0.00059099
0.00059086
0.000590712
0.000590601
0.000590491
0.000590382
0.000590288
0.000590208
0.000590104
0.000590052
0.000589965
0.000589921
0.000589831
0.000589792
0.000589698
0.000589738
0.000589781
0.000589803
0.000589803
0.000589873
0.000589873
0.000589958
0.000589983
0.000590082
0.000590132
0.000590252
0.0005903
0.000590419
0.00059048
0.000590615
0.000590683
0.000590831
0.000590908
0.000591077
0.000591167
0.000591359
0.000591459
0.000591678
0.000591786
0.000592052
0.000592162
0.000592494
0.000592744
0.000602992
0.000635757
0.00160122
0.00102358
0.000929825
0.000857056
0.000802678
0.000762382
0.000732142
0.000709015
0.000690928
0.00067653
0.000664851
0.000655261
0.000647265
0.000640544
0.000634824
0.000629928
0.000625695
0.000622017
0.000618801
0.000615968
0.000613467
0.000611241
0.000609265
0.000607485
0.000605896
0.000604453
0.000603164
0.000601975
0.000600915
0.000599926
0.000599051
0.000598223
0.000597488
0.000596793
0.000596182
0.000595587
0.000595067
0.000594558
0.000594125
0.00059369
0.00059332
0.000592948
0.000592642
0.00059232
0.00059205
0.000591784
0.000591556
0.000591315
0.000591119
0.000590913
0.000590755
0.000590594
0.000590464
0.000590315
0.000590203
0.000590093
0.000589984
0.000589889
0.000589809
0.000589705
0.000589652
0.000589565
0.00058952
0.00058943
0.000589391
0.000589296
0.000589336
0.000589378
0.000589399
0.000589399
0.000589468
0.000589468
0.000589553
0.000589577
0.000589676
0.000589726
0.000589844
0.000589892
0.000590011
0.000590071
0.000590206
0.000590274
0.000590421
0.000590498
0.000590666
0.000590756
0.000590948
0.000591047
0.000591266
0.000591374
0.000591639
0.000591748
0.00059208
0.000592332
0.00060276
0.000635422
0.00160341
0.00102358
0.000929832
0.000857037
0.000802616
0.000762272
0.000731987
0.000708821
0.000690702
0.000676276
0.000664574
0.000654964
0.000646951
0.000640215
0.000634483
0.000629575
0.000625333
0.000621647
0.000618423
0.000615583
0.000613076
0.000610845
0.000608864
0.000607079
0.000605487
0.000604039
0.000602748
0.000601555
0.000600493
0.000599501
0.000598624
0.000597794
0.000597057
0.00059636
0.000595747
0.000595151
0.000594628
0.000594119
0.000593684
0.000593248
0.000592876
0.000592504
0.000592197
0.000591873
0.000591602
0.000591335
0.000591107
0.000590865
0.000590668
0.000590461
0.000590302
0.000590141
0.00059001
0.000589861
0.000589748
0.000589637
0.000589528
0.000589433
0.000589353
0.000589248
0.000589195
0.000589107
0.000589062
0.000588972
0.000588932
0.000588837
0.000588876
0.000588917
0.000588937
0.000588936
0.000589004
0.000589004
0.000589089
0.000589112
0.000589211
0.00058926
0.000589378
0.000589426
0.000589544
0.000589604
0.000589739
0.000589806
0.000589953
0.000590029
0.000590197
0.000590286
0.000590477
0.000590576
0.000590794
0.000590901
0.000591166
0.000591274
0.000591605
0.00059186
0.000602497
0.000635041
0.00160479
0.00102359
0.00092984
0.000857016
0.000802546
0.000762148
0.000731813
0.000708604
0.000690447
0.000675991
0.000664262
0.000654629
0.000646597
0.000639845
0.000634098
0.000629178
0.000624925
0.000621229
0.000617996
0.000615149
0.000612636
0.000610398
0.000608412
0.000606622
0.000605025
0.000603573
0.000602278
0.000601082
0.000600016
0.000599022
0.000598142
0.000597309
0.00059657
0.000595871
0.000595256
0.000594658
0.000594134
0.000593622
0.000593186
0.000592749
0.000592376
0.000592002
0.000591694
0.000591369
0.000591097
0.000590829
0.0005906
0.000590357
0.00059016
0.000589952
0.000589792
0.00058963
0.000589498
0.000589348
0.000589235
0.000589124
0.000589014
0.000588918
0.000588837
0.000588732
0.000588678
0.000588591
0.000588545
0.000588455
0.000588415
0.000588318
0.000588356
0.000588396
0.000588415
0.000588415
0.000588481
0.000588481
0.000588565
0.000588588
0.000588686
0.000588735
0.000588852
0.000588899
0.000589017
0.000589077
0.000589211
0.000589278
0.000589424
0.0005895
0.000589667
0.000589756
0.000589946
0.000590044
0.000590261
0.000590368
0.000590632
0.000590739
0.00059107
0.000591327
0.000602203
0.000634613
0.00160478
0.0010236
0.000929849
0.000856993
0.000802468
0.00076201
0.00073162
0.000708362
0.000690164
0.000675673
0.000663914
0.000654256
0.000646203
0.000639432
0.00063367
0.000628736
0.00062447
0.000620764
0.000617521
0.000614665
0.000612144
0.0006099
0.000607907
0.000606112
0.00060451
0.000603053
0.000601754
0.000600554
0.000599485
0.000598487
0.000597604
0.000596769
0.000596027
0.000595325
0.000594708
0.000594108
0.000593582
0.000593069
0.000592631
0.000592192
0.000591818
0.000591442
0.000591133
0.000590806
0.000590533
0.000590264
0.000590034
0.00058979
0.000589592
0.000589383
0.000589222
0.000589059
0.000588927
0.000588776
0.000588662
0.00058855
0.00058844
0.000588343
0.000588263
0.000588156
0.000588102
0.000588014
0.000587969
0.000587877
0.000587837
0.000587739
0.000587777
0.000587816
0.000587833
0.000587832
0.000587897
0.000587898
0.000587981
0.000588003
0.0005881
0.000588148
0.000588265
0.000588312
0.000588429
0.000588488
0.000588622
0.000588688
0.000588833
0.000588909
0.000589075
0.000589164
0.000589353
0.000589451
0.000589667
0.000589774
0.000590036
0.000590143
0.000590473
0.000590733
0.00060188
0.000634137
0.00160286
0.0010236
0.000929859
0.000856968
0.000802383
0.000761859
0.000731408
0.000708096
0.000689852
0.000675322
0.000663531
0.000653845
0.000645768
0.000638977
0.000633196
0.000628247
0.000623967
0.000620249
0.000616996
0.000614131
0.000611601
0.000609349
0.00060735
0.000605548
0.00060394
0.000602479
0.000601175
0.00059997
0.000598897
0.000597896
0.00059701
0.000596171
0.000595426
0.000594722
0.000594102
0.0005935
0.000592972
0.000592457
0.000592017
0.000591576
0.0005912
0.000590823
0.000590512
0.000590185
0.00058991
0.00058964
0.000589409
0.000589163
0.000588964
0.000588754
0.000588593
0.000588428
0.000588295
0.000588144
0.000588029
0.000587916
0.000587805
0.000587707
0.000587627
0.00058752
0.000587465
0.000587377
0.000587331
0.000587239
0.000587198
0.0005871
0.000587136
0.000587174
0.00058719
0.000587188
0.000587252
0.000587252
0.000587335
0.000587356
0.000587453
0.0005875
0.000587616
0.000587662
0.000587779
0.000587837
0.00058797
0.000588036
0.000588181
0.000588256
0.000588421
0.000588509
0.000588697
0.000588795
0.00058901
0.000589116
0.000589378
0.000589483
0.000589812
0.000590076
0.000601526
0.000633612
0.00159904
0.00102361
0.00092987
0.00085694
0.00080229
0.000761695
0.000731176
0.000707805
0.000689511
0.000674938
0.000663111
0.000653395
0.000645291
0.000638478
0.000632678
0.000627711
0.000623417
0.000619685
0.00061642
0.000613544
0.000611006
0.000608745
0.000606738
0.00060493
0.000603316
0.000601849
0.000600539
0.00059933
0.000598253
0.000597247
0.000596357
0.000595516
0.000594768
0.000594061
0.000593438
0.000592833
0.000592303
0.000591785
0.000591343
0.000590901
0.000590523
0.000590144
0.000589831
0.000589502
0.000589226
0.000588954
0.000588722
0.000588476
0.000588275
0.000588064
0.000587901
0.000587736
0.000587602
0.00058745
0.000587334
0.00058722
0.000587109
0.00058701
0.000586929
0.000586821
0.000586766
0.000586677
0.000586631
0.000586539
0.000586497
0.000586397
0.000586432
0.000586469
0.000586483
0.000586482
0.000586544
0.000586544
0.000586625
0.000586646
0.000586742
0.000586788
0.000586904
0.000586949
0.000587065
0.000587123
0.000587255
0.00058732
0.000587464
0.000587539
0.000587703
0.00058779
0.000587978
0.000588075
0.000588289
0.000588394
0.000588655
0.000588759
0.000589087
0.000589355
0.000601142
0.000633037
0.00159335
0.00102362
0.000929882
0.000856911
0.00080219
0.000761517
0.000730924
0.000707489
0.00068914
0.000674522
0.000662655
0.000652905
0.000644773
0.000637935
0.000632113
0.000627128
0.000622817
0.000619071
0.000615793
0.000612906
0.000610357
0.000608087
0.000606072
0.000604256
0.000602635
0.000601162
0.000599847
0.000598633
0.000597551
0.000596541
0.000595647
0.000594801
0.00059405
0.000593339
0.000592714
0.000592106
0.000591573
0.000591053
0.000590609
0.000590164
0.000589784
0.000589403
0.000589089
0.000588758
0.000588481
0.000588207
0.000587974
0.000587726
0.000587524
0.000587312
0.000587148
0.000586981
0.000586846
0.000586693
0.000586576
0.000586461
0.00058635
0.000586249
0.000586168
0.00058606
0.000586004
0.000585914
0.000585867
0.000585775
0.000585733
0.000585632
0.000585666
0.000585701
0.000585713
0.000585711
0.000585771
0.000585771
0.000585852
0.000585871
0.000585967
0.000586013
0.000586127
0.000586172
0.000586287
0.000586344
0.000586475
0.00058654
0.000586683
0.000586757
0.00058692
0.000587007
0.000587193
0.00058729
0.000587502
0.000587607
0.000587866
0.000587969
0.000588297
0.000588569
0.000600727
0.000632412
0.00158582
0.00102363
0.000929896
0.000856881
0.000802083
0.000761325
0.000730653
0.000707149
0.00068874
0.000674071
0.000662162
0.000652376
0.000644212
0.000637347
0.000631502
0.000626497
0.000622168
0.000618406
0.000615114
0.000612215
0.000609654
0.000607375
0.000605351
0.000603526
0.000601898
0.000600418
0.000599097
0.000597877
0.000596789
0.000595775
0.000594876
0.000594027
0.000593272
0.000592558
0.000591929
0.000591318
0.000590782
0.00059026
0.000589812
0.000589366
0.000588984
0.0005886
0.000588284
0.000587952
0.000587673
0.000587397
0.000587162
0.000586913
0.00058671
0.000586496
0.000586331
0.000586163
0.000586027
0.000585872
0.000585755
0.000585639
0.000585526
0.000585425
0.000585343
0.000585234
0.000585177
0.000585086
0.000585039
0.000584946
0.000584904
0.000584802
0.000584834
0.000584867
0.000584879
0.000584876
0.000584934
0.000584934
0.000585014
0.000585032
0.000585127
0.000585171
0.000585285
0.000585329
0.000585443
0.0005855
0.00058563
0.000585694
0.000585836
0.000585909
0.000586071
0.000586157
0.000586342
0.000586438
0.00058665
0.000586753
0.000587012
0.000587113
0.00058744
0.000587717
0.00060028
0.000631733
0.00157648
0.00102364
0.00092991
0.000856848
0.000801969
0.00076112
0.000730362
0.000706783
0.00068831
0.000673587
0.000661631
0.000651806
0.000643608
0.000636714
0.000630844
0.000625817
0.000621468
0.00061769
0.000614382
0.000611469
0.000608897
0.000606607
0.000604573
0.000602739
0.000601103
0.000599616
0.000598288
0.000597062
0.000595969
0.000594949
0.000594046
0.000593191
0.000592432
0.000591714
0.000591082
0.000590468
0.000589929
0.000589403
0.000588954
0.000588504
0.00058812
0.000587734
0.000587416
0.000587082
0.000586801
0.000586523
0.000586287
0.000586036
0.000585832
0.000585616
0.000585449
0.00058528
0.000585143
0.000584987
0.000584868
0.000584751
0.000584638
0.000584535
0.000584453
0.000584343
0.000584285
0.000584194
0.000584146
0.000584053
0.00058401
0.000583906
0.000583937
0.000583968
0.000583978
0.000583975
0.000584031
0.00058403
0.000584109
0.000584126
0.00058422
0.000584263
0.000584376
0.000584419
0.000584533
0.000584588
0.000584717
0.000584781
0.000584922
0.000584995
0.000585155
0.000585241
0.000585424
0.000585519
0.00058573
0.000585832
0.000586089
0.00058619
0.000586515
0.000586798
0.0005998
0.000631
0.00156539
0.00102365
0.000929925
0.000856814
0.000801848
0.000760902
0.000730052
0.000706392
0.00068785
0.000673068
0.000661063
0.000651195
0.000642961
0.000636036
0.000630138
0.000625087
0.000620718
0.000616921
0.000613597
0.00061067
0.000608084
0.000605782
0.000603737
0.000601894
0.00060025
0.000598754
0.000597419
0.000596186
0.000595087
0.000594062
0.000593153
0.000592294
0.000591531
0.000590809
0.000590173
0.000589555
0.000589013
0.000588484
0.000588031
0.000587579
0.000587192
0.000586804
0.000586483
0.000586147
0.000585864
0.000585584
0.000585346
0.000585094
0.000584888
0.000584671
0.000584502
0.000584331
0.000584193
0.000584036
0.000583916
0.000583797
0.000583684
0.000583579
0.000583497
0.000583385
0.000583327
0.000583234
0.000583187
0.000583092
0.000583049
0.000582944
0.000582973
0.000583002
0.000583011
0.000583006
0.00058306
0.00058306
0.000583137
0.000583153
0.000583246
0.000583288
0.0005834
0.000583442
0.000583554
0.000583609
0.000583737
0.0005838
0.00058394
0.000584012
0.000584171
0.000584256
0.000584438
0.000584532
0.000584741
0.000584843
0.000585098
0.000585197
0.000585521
0.000585811
0.000599287
0.000630209
0.00155261
0.00102366
0.000929942
0.000856778
0.000801719
0.00076067
0.000729722
0.000705976
0.00068736
0.000672515
0.000660456
0.000650543
0.000642271
0.000635311
0.000629384
0.000624308
0.000619916
0.000616099
0.000612758
0.000609815
0.000607215
0.0006049
0.000602844
0.000600991
0.000599337
0.000597833
0.00059649
0.00059525
0.000594144
0.000593113
0.000592199
0.000591335
0.000590566
0.00058984
0.000589199
0.000588578
0.000588033
0.0005875
0.000587044
0.000586589
0.000586199
0.000585808
0.000585485
0.000585147
0.000584861
0.000584579
0.00058434
0.000584085
0.000583878
0.000583659
0.000583489
0.000583316
0.000583176
0.000583018
0.000582896
0.000582777
0.000582662
0.000582556
0.000582473
0.00058236
0.000582301
0.000582208
0.000582159
0.000582064
0.00058202
0.000581914
0.000581941
0.000581968
0.000581975
0.00058197
0.000582021
0.000582021
0.000582097
0.000582111
0.000582203
0.000582244
0.000582355
0.000582396
0.000582507
0.000582561
0.000582688
0.00058275
0.000582888
0.00058296
0.000583117
0.000583201
0.000583382
0.000583475
0.000583683
0.000583784
0.000584037
0.000584135
0.000584457
0.000584755
0.000598739
0.000629359
0.00153819
0.00102367
0.00092996
0.000856741
0.000801584
0.000760425
0.000729373
0.000705535
0.000686839
0.000671928
0.000659812
0.00064985
0.000641535
0.00063454
0.000628582
0.000623478
0.000619062
0.000615224
0.000611864
0.000608904
0.000606289
0.000603961
0.000601892
0.000600028
0.000598364
0.000596851
0.000595499
0.000594252
0.000593139
0.000592101
0.000591181
0.000590311
0.000589538
0.000588806
0.000588162
0.000587536
0.000586987
0.000586451
0.000585992
0.000585533
0.000585141
0.000584747
0.000584421
0.00058408
0.000583792
0.000583508
0.000583266
0.00058301
0.0005828
0.00058258
0.000582408
0.000582233
0.000582092
0.000581932
0.000581809
0.000581688
0.000581572
0.000581465
0.000581381
0.000581267
0.000581207
0.000581112
0.000581063
0.000580968
0.000580923
0.000580815
0.00058084
0.000580865
0.000580871
0.000580864
0.000580912
0.000580912
0.000580987
0.000580999
0.00058109
0.00058113
0.00058124
0.00058128
0.00058139
0.000581443
0.000581568
0.00058163
0.000581767
0.000581837
0.000581993
0.000582076
0.000582255
0.000582348
0.000582554
0.000582653
0.000582905
0.000583001
0.000583322
0.000583629
0.000598152
0.000628444
0.00152221
0.00102368
0.000929979
0.000856703
0.000801443
0.000760168
0.000729004
0.000705069
0.000686289
0.000671306
0.000659129
0.000649115
0.000640756
0.000633722
0.00062773
0.000622597
0.000618155
0.000614294
0.000610914
0.000607936
0.000605305
0.000602962
0.000600881
0.000599005
0.00059733
0.000595807
0.000594447
0.000593191
0.000592071
0.000591026
0.000590099
0.000589224
0.000588445
0.000587708
0.000587059
0.000586429
0.000585876
0.000585335
0.000584872
0.000584411
0.000584015
0.000583618
0.000583289
0.000582945
0.000582655
0.000582368
0.000582124
0.000581866
0.000581655
0.000581432
0.000581258
0.000581081
0.000580939
0.000580777
0.000580653
0.00058053
0.000580413
0.000580304
0.000580219
0.000580104
0.000580044
0.000579948
0.000579898
0.000579802
0.000579756
0.000579647
0.000579669
0.000579692
0.000579696
0.000579689
0.000579734
0.000579734
0.000579806
0.000579818
0.000579907
0.000579945
0.000580054
0.000580093
0.000580202
0.000580253
0.000580378
0.000580438
0.000580574
0.000580643
0.000580798
0.00058088
0.000581057
0.000581149
0.000581353
0.000581452
0.000581702
0.000581796
0.000582115
0.000582431
0.000597526
0.000627461
0.00150474
0.00102369
0.000929999
0.000856663
0.000801295
0.000759897
0.000728617
0.000704577
0.000685708
0.000670649
0.000658408
0.000648339
0.000639932
0.000632857
0.000626829
0.000621665
0.000617196
0.000613311
0.000609909
0.000606911
0.000604264
0.000601905
0.00059981
0.000597921
0.000596235
0.000594701
0.000593331
0.000592067
0.000590939
0.000589886
0.000588953
0.000588071
0.000587286
0.000586544
0.000585889
0.000585255
0.000584697
0.000584153
0.000583686
0.00058322
0.000582821
0.000582421
0.000582089
0.000581742
0.00058145
0.00058116
0.000580914
0.000580653
0.00058044
0.000580215
0.000580039
0.00057986
0.000579716
0.000579553
0.000579426
0.000579302
0.000579184
0.000579073
0.000578988
0.000578871
0.000578809
0.000578712
0.000578662
0.000578565
0.000578518
0.000578408
0.000578428
0.000578448
0.00057845
0.000578442
0.000578484
0.000578483
0.000578554
0.000578564
0.000578652
0.000578689
0.000578796
0.000578834
0.000578942
0.000578992
0.000579115
0.000579174
0.000579309
0.000579377
0.00057953
0.000579611
0.000579787
0.000579877
0.000580079
0.000580177
0.000580425
0.000580517
0.000580835
0.000581161
0.000596857
0.000626405
0.00148586
0.0010237
0.000930021
0.000856623
0.000801141
0.000759614
0.00072821
0.000704061
0.000685097
0.000669958
0.000657647
0.00064752
0.000639062
0.000631944
0.000625878
0.000620681
0.000616182
0.000612271
0.000608847
0.000605829
0.000603163
0.000600788
0.000598678
0.000596776
0.000595077
0.000593532
0.000592152
0.000590878
0.000589742
0.000588681
0.000587741
0.000586852
0.000586061
0.000585313
0.000584653
0.000584013
0.000583451
0.000582902
0.000582431
0.000581962
0.000581559
0.000581155
0.00058082
0.00058047
0.000580175
0.000579882
0.000579633
0.00057937
0.000579155
0.000578928
0.00057875
0.000578568
0.000578422
0.000578257
0.000578129
0.000578003
0.000577884
0.000577771
0.000577685
0.000577567
0.000577504
0.000577405
0.000577354
0.000577256
0.000577209
0.000577098
0.000577114
0.000577132
0.000577133
0.000577123
0.000577161
0.000577161
0.00057723
0.000577238
0.000577325
0.00057736
0.000577465
0.000577502
0.000577608
0.000577658
0.000577779
0.000577837
0.00057797
0.000578037
0.000578188
0.000578268
0.000578442
0.000578532
0.000578732
0.000578828
0.000579074
0.000579165
0.000579481
0.000579817
0.000596139
0.000625273
0.00146566
0.00102371
0.000930044
0.000856581
0.00080098
0.000759318
0.000727784
0.000703519
0.000684456
0.000669232
0.000656848
0.000646659
0.000638148
0.000630983
0.000624877
0.000619645
0.000615115
0.000611177
0.000607728
0.000604688
0.000602003
0.00059961
0.000597484
0.000595568
0.000593856
0.000592299
0.000590909
0.000589625
0.000588479
0.00058741
0.000586462
0.000585566
0.000584769
0.000584014
0.000583348
0.000582703
0.000582136
0.000581582
0.000581107
0.000580633
0.000580227
0.000579819
0.00057948
0.000579128
0.000578829
0.000578533
0.000578282
0.000578016
0.000577799
0.000577569
0.000577389
0.000577204
0.000577057
0.00057689
0.00057676
0.000576632
0.000576512
0.000576397
0.000576309
0.00057619
0.000576126
0.000576026
0.000575974
0.000575875
0.000575827
0.000575715
0.000575728
0.000575742
0.000575743
0.00057573
0.000575766
0.000575765
0.000575832
0.000575839
0.000575924
0.000575957
0.000576061
0.000576096
0.000576201
0.000576249
0.000576369
0.000576426
0.000576557
0.000576623
0.000576772
0.000576851
0.000577023
0.000577112
0.000577309
0.000577405
0.000577649
0.000577737
0.000578051
0.000578399
0.000595362
0.000624062
0.00144423
0.00102372
0.000930068
0.000856539
0.000800814
0.000759011
0.00072734
0.000702954
0.000683785
0.000668471
0.00065601
0.000645755
0.000637188
0.000629974
0.000623826
0.000618556
0.000613993
0.000610026
0.000606551
0.000603489
0.000600783
0.000598372
0.000596229
0.000594297
0.000592572
0.000591002
0.0005896
0.000588306
0.000587151
0.000586073
0.000585116
0.000584213
0.000583408
0.000582647
0.000581975
0.000581324
0.000580752
0.000580193
0.000579713
0.000579235
0.000578825
0.000578413
0.00057807
0.000577714
0.000577412
0.000577113
0.000576859
0.000576591
0.000576371
0.000576138
0.000575956
0.000575768
0.000575619
0.00057545
0.000575318
0.000575188
0.000575067
0.00057495
0.000574861
0.00057474
0.000574674
0.000574573
0.00057452
0.00057442
0.000574371
0.000574258
0.000574268
0.000574279
0.000574278
0.000574264
0.000574297
0.000574295
0.000574359
0.000574365
0.000574448
0.000574479
0.000574582
0.000574615
0.000574719
0.000574765
0.000574883
0.00057494
0.000575069
0.000575134
0.000575281
0.000575359
0.000575528
0.000575616
0.000575811
0.000575905
0.000576147
0.000576233
0.000576545
0.000576906
0.000594519
0.000622769
0.00142167
0.00102374
0.000930093
0.000856496
0.000800643
0.000758691
0.000726877
0.000702363
0.000683084
0.000667675
0.000655134
0.000644809
0.000636182
0.000628917
0.000622723
0.000617414
0.000612817
0.000608819
0.000605317
0.00060223
0.000599502
0.000597071
0.000594911
0.000592963
0.000591223
0.000589641
0.000588226
0.000586921
0.000585755
0.000584668
0.000583702
0.000582791
0.000581979
0.00058121
0.000580532
0.000579875
0.000579298
0.000578733
0.000578249
0.000577766
0.000577351
0.000576935
0.000576588
0.000576229
0.000575924
0.000575621
0.000575364
0.000575092
0.00057487
0.000574635
0.000574449
0.000574259
0.000574108
0.000573937
0.000573803
0.00057367
0.000573548
0.000573428