/*--------------------------------*- C++ -*----------------------------------*\
| =========                 |                                                 |
| \\      /  F ield         | OpenFOAM: The Open Source CFD Toolbox           |
|  \\    /   O peration     | Version:  v2012                                 |
|   \\  /    A nd           | Website:  www.openfoam.com                      |
|    \\/     M anipulation  |                                                 |
\*---------------------------------------------------------------------------*/
FoamFile
{
    version     2.0;
    format      ascii;
    class       volScalarField;
    location    "33";
    object      nut;
}
// * * * * * * * * * * * * * * * * * * * * * * * * * * * * * * * * * * * * * //

dimensions      [0 2 -1 0 0 0 0];


internalField   nonuniform List<scalar> 
209825
(
1.23912e-07
1.22934e-07
1.224e-07
1.22263e-07
1.22382e-07
1.22615e-07
1.22902e-07
1.2319e-07
1.23478e-07
1.23741e-07
1.23996e-07
1.24221e-07
1.24438e-07
1.24628e-07
1.24813e-07
1.24972e-07
1.2513e-07
1.25265e-07
1.25399e-07
1.25513e-07
1.25629e-07
1.25726e-07
1.25826e-07
1.2591e-07
1.25997e-07
1.2607e-07
1.26146e-07
1.26209e-07
1.26275e-07
1.26331e-07
1.2639e-07
1.26438e-07
1.26492e-07
1.26535e-07
1.26582e-07
1.26619e-07
1.26661e-07
1.26695e-07
1.26734e-07
1.26764e-07
1.26798e-07
1.26828e-07
1.26859e-07
1.26882e-07
1.26914e-07
1.26936e-07
1.26962e-07
1.26982e-07
1.27004e-07
1.27024e-07
1.27046e-07
1.27063e-07
1.27082e-07
1.271e-07
1.27119e-07
1.27132e-07
1.27149e-07
1.27165e-07
1.27173e-07
1.27186e-07
1.27193e-07
1.27206e-07
1.27208e-07
1.27216e-07
1.27217e-07
1.2724e-07
1.27266e-07
1.27281e-07
1.27293e-07
1.27316e-07
1.27328e-07
1.27353e-07
1.27372e-07
1.27399e-07
1.27422e-07
1.2745e-07
1.27468e-07
1.27492e-07
1.27506e-07
1.2753e-07
1.27545e-07
1.27566e-07
1.27583e-07
1.27602e-07
1.27622e-07
1.27641e-07
1.27661e-07
1.27683e-07
1.27703e-07
1.2773e-07
1.27751e-07
1.27783e-07
1.2782e-07
1.29022e-07
1.32731e-07
1.39773e-08
1.23912e-07
1.22934e-07
1.224e-07
1.22263e-07
1.22382e-07
1.22614e-07
1.22902e-07
1.23189e-07
1.23478e-07
1.23741e-07
1.23995e-07
1.2422e-07
1.24438e-07
1.24628e-07
1.24813e-07
1.24972e-07
1.2513e-07
1.25264e-07
1.25399e-07
1.25513e-07
1.25629e-07
1.25726e-07
1.25826e-07
1.2591e-07
1.25997e-07
1.2607e-07
1.26146e-07
1.26209e-07
1.26275e-07
1.26331e-07
1.2639e-07
1.26438e-07
1.26492e-07
1.26535e-07
1.26582e-07
1.26619e-07
1.26661e-07
1.26695e-07
1.26734e-07
1.26764e-07
1.26798e-07
1.26829e-07
1.26859e-07
1.26882e-07
1.26914e-07
1.26936e-07
1.26962e-07
1.26982e-07
1.27004e-07
1.27024e-07
1.27046e-07
1.27063e-07
1.27082e-07
1.27101e-07
1.27119e-07
1.27132e-07
1.27149e-07
1.27165e-07
1.27173e-07
1.27186e-07
1.27193e-07
1.27206e-07
1.27208e-07
1.27216e-07
1.27217e-07
1.2724e-07
1.27267e-07
1.27281e-07
1.27293e-07
1.27316e-07
1.27328e-07
1.27354e-07
1.27372e-07
1.27399e-07
1.27422e-07
1.27451e-07
1.27468e-07
1.27492e-07
1.27506e-07
1.2753e-07
1.27545e-07
1.27566e-07
1.27583e-07
1.27602e-07
1.27622e-07
1.27641e-07
1.27661e-07
1.27683e-07
1.27703e-07
1.2773e-07
1.27751e-07
1.27783e-07
1.2782e-07
1.29025e-07
1.32732e-07
1.44039e-08
1.23912e-07
1.22934e-07
1.224e-07
1.22262e-07
1.22381e-07
1.22613e-07
1.229e-07
1.23187e-07
1.23476e-07
1.23739e-07
1.23993e-07
1.24218e-07
1.24436e-07
1.24625e-07
1.2481e-07
1.2497e-07
1.25127e-07
1.25262e-07
1.25396e-07
1.2551e-07
1.25626e-07
1.25724e-07
1.25824e-07
1.25908e-07
1.25995e-07
1.26067e-07
1.26143e-07
1.26206e-07
1.26273e-07
1.26328e-07
1.26388e-07
1.26435e-07
1.26489e-07
1.26532e-07
1.2658e-07
1.26616e-07
1.26658e-07
1.26693e-07
1.26732e-07
1.26762e-07
1.26796e-07
1.26826e-07
1.26857e-07
1.2688e-07
1.26911e-07
1.26934e-07
1.2696e-07
1.26979e-07
1.27002e-07
1.27022e-07
1.27044e-07
1.27061e-07
1.2708e-07
1.27098e-07
1.27116e-07
1.2713e-07
1.27147e-07
1.27163e-07
1.27171e-07
1.27184e-07
1.27191e-07
1.27204e-07
1.27206e-07
1.27213e-07
1.27214e-07
1.27238e-07
1.27264e-07
1.27278e-07
1.27291e-07
1.27313e-07
1.27326e-07
1.27351e-07
1.27369e-07
1.27397e-07
1.2742e-07
1.27448e-07
1.27465e-07
1.27489e-07
1.27504e-07
1.27528e-07
1.27542e-07
1.27563e-07
1.2758e-07
1.276e-07
1.27619e-07
1.27638e-07
1.27659e-07
1.27681e-07
1.277e-07
1.27728e-07
1.27749e-07
1.27781e-07
1.27817e-07
1.29027e-07
1.32732e-07
1.49336e-08
1.23912e-07
1.22934e-07
1.22399e-07
1.22261e-07
1.22379e-07
1.2261e-07
1.22897e-07
1.23184e-07
1.23473e-07
1.23735e-07
1.23989e-07
1.24214e-07
1.24432e-07
1.24622e-07
1.24806e-07
1.24966e-07
1.25123e-07
1.25258e-07
1.25392e-07
1.25507e-07
1.25622e-07
1.2572e-07
1.2582e-07
1.25904e-07
1.25991e-07
1.26064e-07
1.26139e-07
1.26203e-07
1.26269e-07
1.26325e-07
1.26384e-07
1.26432e-07
1.26486e-07
1.26529e-07
1.26576e-07
1.26613e-07
1.26655e-07
1.26689e-07
1.26728e-07
1.26758e-07
1.26793e-07
1.26823e-07
1.26853e-07
1.26877e-07
1.26908e-07
1.2693e-07
1.26956e-07
1.26976e-07
1.26998e-07
1.27018e-07
1.2704e-07
1.27057e-07
1.27076e-07
1.27095e-07
1.27113e-07
1.27127e-07
1.27144e-07
1.27159e-07
1.27168e-07
1.27181e-07
1.27187e-07
1.27201e-07
1.27202e-07
1.2721e-07
1.27211e-07
1.27235e-07
1.27261e-07
1.27275e-07
1.27288e-07
1.2731e-07
1.27323e-07
1.27348e-07
1.27366e-07
1.27393e-07
1.27416e-07
1.27445e-07
1.27462e-07
1.27486e-07
1.275e-07
1.27524e-07
1.27539e-07
1.2756e-07
1.27577e-07
1.27596e-07
1.27616e-07
1.27635e-07
1.27656e-07
1.27677e-07
1.27697e-07
1.27725e-07
1.27746e-07
1.27777e-07
1.27814e-07
1.29031e-07
1.32732e-07
1.55214e-08
1.23912e-07
1.22934e-07
1.22399e-07
1.22259e-07
1.22376e-07
1.22607e-07
1.22893e-07
1.2318e-07
1.23468e-07
1.2373e-07
1.23985e-07
1.24209e-07
1.24427e-07
1.24617e-07
1.24801e-07
1.24961e-07
1.25118e-07
1.25253e-07
1.25387e-07
1.25502e-07
1.25617e-07
1.25715e-07
1.25815e-07
1.25899e-07
1.25986e-07
1.26059e-07
1.26135e-07
1.26198e-07
1.26264e-07
1.2632e-07
1.26379e-07
1.26427e-07
1.26481e-07
1.26524e-07
1.26571e-07
1.26608e-07
1.2665e-07
1.26685e-07
1.26724e-07
1.26753e-07
1.26788e-07
1.26818e-07
1.26849e-07
1.26872e-07
1.26903e-07
1.26926e-07
1.26952e-07
1.26971e-07
1.26994e-07
1.27014e-07
1.27036e-07
1.27053e-07
1.27072e-07
1.2709e-07
1.27109e-07
1.27122e-07
1.27139e-07
1.27155e-07
1.27163e-07
1.27176e-07
1.27183e-07
1.27196e-07
1.27198e-07
1.27206e-07
1.27207e-07
1.2723e-07
1.27256e-07
1.2727e-07
1.27283e-07
1.27305e-07
1.27318e-07
1.27343e-07
1.27362e-07
1.27389e-07
1.27412e-07
1.2744e-07
1.27457e-07
1.27481e-07
1.27496e-07
1.2752e-07
1.27535e-07
1.27556e-07
1.27573e-07
1.27592e-07
1.27612e-07
1.27631e-07
1.27651e-07
1.27673e-07
1.27693e-07
1.2772e-07
1.27741e-07
1.27773e-07
1.2781e-07
1.29037e-07
1.32733e-07
1.61588e-08
1.23912e-07
1.22934e-07
1.22398e-07
1.22257e-07
1.22372e-07
1.22603e-07
1.22888e-07
1.23175e-07
1.23462e-07
1.23724e-07
1.23978e-07
1.24203e-07
1.24421e-07
1.2461e-07
1.24795e-07
1.24954e-07
1.25112e-07
1.25247e-07
1.25381e-07
1.25495e-07
1.25611e-07
1.25709e-07
1.25809e-07
1.25893e-07
1.2598e-07
1.26053e-07
1.26128e-07
1.26192e-07
1.26258e-07
1.26314e-07
1.26373e-07
1.26421e-07
1.26475e-07
1.26518e-07
1.26566e-07
1.26602e-07
1.26644e-07
1.26679e-07
1.26718e-07
1.26748e-07
1.26782e-07
1.26812e-07
1.26843e-07
1.26866e-07
1.26898e-07
1.2692e-07
1.26946e-07
1.26966e-07
1.26988e-07
1.27008e-07
1.2703e-07
1.27047e-07
1.27066e-07
1.27085e-07
1.27103e-07
1.27117e-07
1.27134e-07
1.27149e-07
1.27158e-07
1.27171e-07
1.27178e-07
1.27191e-07
1.27193e-07
1.272e-07
1.27201e-07
1.27225e-07
1.27251e-07
1.27265e-07
1.27278e-07
1.273e-07
1.27313e-07
1.27338e-07
1.27356e-07
1.27383e-07
1.27406e-07
1.27435e-07
1.27452e-07
1.27476e-07
1.2749e-07
1.27514e-07
1.27529e-07
1.2755e-07
1.27567e-07
1.27587e-07
1.27606e-07
1.27625e-07
1.27646e-07
1.27668e-07
1.27687e-07
1.27715e-07
1.27736e-07
1.27767e-07
1.27804e-07
1.29045e-07
1.32733e-07
1.68442e-08
1.23913e-07
1.22934e-07
1.22396e-07
1.22254e-07
1.22368e-07
1.22597e-07
1.22882e-07
1.23168e-07
1.23455e-07
1.23717e-07
1.23971e-07
1.24196e-07
1.24413e-07
1.24602e-07
1.24787e-07
1.24947e-07
1.25104e-07
1.25239e-07
1.25373e-07
1.25488e-07
1.25603e-07
1.25701e-07
1.25801e-07
1.25885e-07
1.25973e-07
1.26045e-07
1.26121e-07
1.26184e-07
1.26251e-07
1.26307e-07
1.26366e-07
1.26414e-07
1.26468e-07
1.26511e-07
1.26558e-07
1.26595e-07
1.26637e-07
1.26672e-07
1.26711e-07
1.26741e-07
1.26775e-07
1.26805e-07
1.26836e-07
1.2686e-07
1.26891e-07
1.26913e-07
1.26939e-07
1.26959e-07
1.26982e-07
1.27001e-07
1.27024e-07
1.27041e-07
1.2706e-07
1.27078e-07
1.27097e-07
1.2711e-07
1.27127e-07
1.27143e-07
1.27152e-07
1.27165e-07
1.27171e-07
1.27185e-07
1.27186e-07
1.27194e-07
1.27195e-07
1.27219e-07
1.27245e-07
1.27258e-07
1.27271e-07
1.27293e-07
1.27306e-07
1.27331e-07
1.27349e-07
1.27377e-07
1.27399e-07
1.27428e-07
1.27445e-07
1.27469e-07
1.27484e-07
1.27508e-07
1.27522e-07
1.27544e-07
1.27561e-07
1.2758e-07
1.276e-07
1.27619e-07
1.27639e-07
1.27661e-07
1.27681e-07
1.27708e-07
1.27729e-07
1.27761e-07
1.27798e-07
1.29055e-07
1.32735e-07
1.75779e-08
1.23913e-07
1.22934e-07
1.22395e-07
1.22251e-07
1.22363e-07
1.22591e-07
1.22875e-07
1.2316e-07
1.23447e-07
1.23708e-07
1.23962e-07
1.24187e-07
1.24404e-07
1.24593e-07
1.24778e-07
1.24938e-07
1.25095e-07
1.2523e-07
1.25364e-07
1.25479e-07
1.25594e-07
1.25692e-07
1.25792e-07
1.25876e-07
1.25964e-07
1.26037e-07
1.26112e-07
1.26176e-07
1.26243e-07
1.26298e-07
1.26358e-07
1.26405e-07
1.26459e-07
1.26503e-07
1.2655e-07
1.26587e-07
1.26629e-07
1.26664e-07
1.26703e-07
1.26733e-07
1.26767e-07
1.26797e-07
1.26828e-07
1.26852e-07
1.26883e-07
1.26905e-07
1.26932e-07
1.26951e-07
1.26974e-07
1.26994e-07
1.27016e-07
1.27033e-07
1.27052e-07
1.27071e-07
1.27089e-07
1.27103e-07
1.2712e-07
1.27135e-07
1.27144e-07
1.27157e-07
1.27164e-07
1.27177e-07
1.27179e-07
1.27187e-07
1.27188e-07
1.27211e-07
1.27237e-07
1.27251e-07
1.27264e-07
1.27285e-07
1.27298e-07
1.27323e-07
1.27341e-07
1.27369e-07
1.27391e-07
1.2742e-07
1.27437e-07
1.27461e-07
1.27476e-07
1.275e-07
1.27515e-07
1.27536e-07
1.27553e-07
1.27573e-07
1.27592e-07
1.27611e-07
1.27632e-07
1.27654e-07
1.27673e-07
1.27701e-07
1.27722e-07
1.27753e-07
1.2779e-07
1.29068e-07
1.32736e-07
1.83608e-08
1.23913e-07
1.22934e-07
1.22393e-07
1.22247e-07
1.22357e-07
1.22584e-07
1.22867e-07
1.23151e-07
1.23437e-07
1.23698e-07
1.23952e-07
1.24176e-07
1.24393e-07
1.24583e-07
1.24768e-07
1.24927e-07
1.25085e-07
1.25219e-07
1.25354e-07
1.25468e-07
1.25584e-07
1.25682e-07
1.25782e-07
1.25866e-07
1.25954e-07
1.26027e-07
1.26103e-07
1.26166e-07
1.26233e-07
1.26288e-07
1.26348e-07
1.26396e-07
1.2645e-07
1.26493e-07
1.26541e-07
1.26578e-07
1.2662e-07
1.26655e-07
1.26693e-07
1.26723e-07
1.26758e-07
1.26788e-07
1.26819e-07
1.26843e-07
1.26874e-07
1.26896e-07
1.26923e-07
1.26942e-07
1.26965e-07
1.26985e-07
1.27007e-07
1.27024e-07
1.27043e-07
1.27062e-07
1.2708e-07
1.27094e-07
1.27111e-07
1.27127e-07
1.27135e-07
1.27149e-07
1.27155e-07
1.27169e-07
1.27171e-07
1.27178e-07
1.27179e-07
1.27203e-07
1.27228e-07
1.27242e-07
1.27255e-07
1.27277e-07
1.2729e-07
1.27315e-07
1.27333e-07
1.2736e-07
1.27382e-07
1.27411e-07
1.27428e-07
1.27453e-07
1.27467e-07
1.27491e-07
1.27506e-07
1.27528e-07
1.27544e-07
1.27564e-07
1.27583e-07
1.27603e-07
1.27623e-07
1.27645e-07
1.27664e-07
1.27692e-07
1.27713e-07
1.27744e-07
1.27782e-07
1.29083e-07
1.32738e-07
1.91934e-08
1.23914e-07
1.22934e-07
1.22391e-07
1.22242e-07
1.22351e-07
1.22575e-07
1.22857e-07
1.23141e-07
1.23426e-07
1.23687e-07
1.2394e-07
1.24164e-07
1.24382e-07
1.24571e-07
1.24756e-07
1.24915e-07
1.25073e-07
1.25208e-07
1.25342e-07
1.25456e-07
1.25573e-07
1.2567e-07
1.25771e-07
1.25855e-07
1.25943e-07
1.26015e-07
1.26091e-07
1.26155e-07
1.26222e-07
1.26277e-07
1.26337e-07
1.26385e-07
1.26439e-07
1.26482e-07
1.2653e-07
1.26567e-07
1.26609e-07
1.26644e-07
1.26683e-07
1.26713e-07
1.26748e-07
1.26778e-07
1.26809e-07
1.26832e-07
1.26864e-07
1.26886e-07
1.26913e-07
1.26932e-07
1.26955e-07
1.26975e-07
1.26997e-07
1.27014e-07
1.27033e-07
1.27052e-07
1.2707e-07
1.27084e-07
1.27101e-07
1.27117e-07
1.27126e-07
1.27139e-07
1.27146e-07
1.27159e-07
1.27161e-07
1.27169e-07
1.27169e-07
1.27193e-07
1.27219e-07
1.27232e-07
1.27245e-07
1.27267e-07
1.2728e-07
1.27305e-07
1.27323e-07
1.2735e-07
1.27372e-07
1.27401e-07
1.27418e-07
1.27443e-07
1.27457e-07
1.27482e-07
1.27496e-07
1.27518e-07
1.27534e-07
1.27554e-07
1.27574e-07
1.27593e-07
1.27614e-07
1.27635e-07
1.27655e-07
1.27682e-07
1.27703e-07
1.27735e-07
1.27772e-07
1.29101e-07
1.32741e-07
2.00758e-08
1.23914e-07
1.22934e-07
1.22389e-07
1.22237e-07
1.22343e-07
1.22566e-07
1.22847e-07
1.23129e-07
1.23414e-07
1.23674e-07
1.23927e-07
1.24151e-07
1.24368e-07
1.24557e-07
1.24742e-07
1.24902e-07
1.25059e-07
1.25194e-07
1.25329e-07
1.25443e-07
1.25559e-07
1.25657e-07
1.25758e-07
1.25842e-07
1.2593e-07
1.26003e-07
1.26079e-07
1.26142e-07
1.26209e-07
1.26265e-07
1.26325e-07
1.26373e-07
1.26427e-07
1.2647e-07
1.26518e-07
1.26555e-07
1.26597e-07
1.26632e-07
1.26671e-07
1.26701e-07
1.26736e-07
1.26766e-07
1.26797e-07
1.26821e-07
1.26852e-07
1.26875e-07
1.26901e-07
1.26921e-07
1.26944e-07
1.26963e-07
1.26986e-07
1.27003e-07
1.27022e-07
1.27041e-07
1.27059e-07
1.27073e-07
1.2709e-07
1.27106e-07
1.27115e-07
1.27128e-07
1.27135e-07
1.27148e-07
1.2715e-07
1.27158e-07
1.27159e-07
1.27182e-07
1.27208e-07
1.27221e-07
1.27234e-07
1.27256e-07
1.27269e-07
1.27294e-07
1.27311e-07
1.27339e-07
1.27361e-07
1.2739e-07
1.27407e-07
1.27431e-07
1.27446e-07
1.27471e-07
1.27485e-07
1.27507e-07
1.27523e-07
1.27543e-07
1.27563e-07
1.27582e-07
1.27603e-07
1.27624e-07
1.27644e-07
1.27671e-07
1.27692e-07
1.27723e-07
1.27762e-07
1.29122e-07
1.32744e-07
2.10066e-08
1.23915e-07
1.22934e-07
1.22387e-07
1.22232e-07
1.22335e-07
1.22556e-07
1.22835e-07
1.23116e-07
1.23401e-07
1.2366e-07
1.23913e-07
1.24137e-07
1.24353e-07
1.24543e-07
1.24727e-07
1.24887e-07
1.25045e-07
1.25179e-07
1.25314e-07
1.25429e-07
1.25545e-07
1.25643e-07
1.25744e-07
1.25828e-07
1.25916e-07
1.25989e-07
1.26065e-07
1.26128e-07
1.26196e-07
1.26251e-07
1.26311e-07
1.26359e-07
1.26413e-07
1.26457e-07
1.26505e-07
1.26542e-07
1.26584e-07
1.26619e-07
1.26658e-07
1.26688e-07
1.26723e-07
1.26753e-07
1.26785e-07
1.26808e-07
1.2684e-07
1.26862e-07
1.26889e-07
1.26909e-07
1.26931e-07
1.26951e-07
1.26974e-07
1.26991e-07
1.2701e-07
1.27029e-07
1.27047e-07
1.27061e-07
1.27078e-07
1.27094e-07
1.27103e-07
1.27116e-07
1.27123e-07
1.27137e-07
1.27139e-07
1.27147e-07
1.27147e-07
1.2717e-07
1.27196e-07
1.27209e-07
1.27222e-07
1.27243e-07
1.27257e-07
1.27281e-07
1.27299e-07
1.27326e-07
1.27348e-07
1.27377e-07
1.27394e-07
1.27419e-07
1.27434e-07
1.27458e-07
1.27473e-07
1.27495e-07
1.27511e-07
1.27531e-07
1.27551e-07
1.2757e-07
1.27591e-07
1.27612e-07
1.27632e-07
1.27659e-07
1.2768e-07
1.27711e-07
1.2775e-07
1.29146e-07
1.32747e-07
2.1985e-08
1.23915e-07
1.22934e-07
1.22384e-07
1.22226e-07
1.22326e-07
1.22545e-07
1.22822e-07
1.23102e-07
1.23386e-07
1.23645e-07
1.23897e-07
1.2412e-07
1.24337e-07
1.24526e-07
1.24711e-07
1.2487e-07
1.25028e-07
1.25163e-07
1.25298e-07
1.25413e-07
1.25529e-07
1.25627e-07
1.25728e-07
1.25812e-07
1.259e-07
1.25973e-07
1.2605e-07
1.26113e-07
1.2618e-07
1.26236e-07
1.26296e-07
1.26344e-07
1.26399e-07
1.26442e-07
1.2649e-07
1.26527e-07
1.2657e-07
1.26605e-07
1.26644e-07
1.26674e-07
1.26709e-07
1.26739e-07
1.26771e-07
1.26794e-07
1.26826e-07
1.26848e-07
1.26875e-07
1.26895e-07
1.26918e-07
1.26937e-07
1.2696e-07
1.26977e-07
1.26996e-07
1.27015e-07
1.27034e-07
1.27047e-07
1.27065e-07
1.27081e-07
1.2709e-07
1.27103e-07
1.2711e-07
1.27124e-07
1.27126e-07
1.27134e-07
1.27134e-07
1.27157e-07
1.27183e-07
1.27196e-07
1.27209e-07
1.2723e-07
1.27243e-07
1.27268e-07
1.27285e-07
1.27312e-07
1.27335e-07
1.27363e-07
1.27381e-07
1.27405e-07
1.2742e-07
1.27445e-07
1.2746e-07
1.27482e-07
1.27498e-07
1.27518e-07
1.27537e-07
1.27557e-07
1.27577e-07
1.27599e-07
1.27619e-07
1.27646e-07
1.27667e-07
1.27698e-07
1.27737e-07
1.29173e-07
1.3275e-07
2.30136e-08
1.23916e-07
1.22934e-07
1.22381e-07
1.22219e-07
1.22317e-07
1.22532e-07
1.22808e-07
1.23086e-07
1.23369e-07
1.23628e-07
1.23879e-07
1.24103e-07
1.24319e-07
1.24508e-07
1.24693e-07
1.24852e-07
1.2501e-07
1.25145e-07
1.2528e-07
1.25395e-07
1.25511e-07
1.2561e-07
1.25711e-07
1.25795e-07
1.25883e-07
1.25956e-07
1.26033e-07
1.26096e-07
1.26164e-07
1.2622e-07
1.2628e-07
1.26328e-07
1.26382e-07
1.26426e-07
1.26474e-07
1.26511e-07
1.26554e-07
1.26589e-07
1.26628e-07
1.26659e-07
1.26693e-07
1.26724e-07
1.26755e-07
1.26779e-07
1.2681e-07
1.26833e-07
1.2686e-07
1.2688e-07
1.26903e-07
1.26922e-07
1.26945e-07
1.26962e-07
1.26982e-07
1.27e-07
1.27019e-07
1.27033e-07
1.2705e-07
1.27066e-07
1.27075e-07
1.27089e-07
1.27096e-07
1.27109e-07
1.27112e-07
1.2712e-07
1.2712e-07
1.27143e-07
1.27168e-07
1.27181e-07
1.27194e-07
1.27215e-07
1.27229e-07
1.27253e-07
1.27271e-07
1.27298e-07
1.2732e-07
1.27348e-07
1.27366e-07
1.27391e-07
1.27406e-07
1.2743e-07
1.27445e-07
1.27467e-07
1.27483e-07
1.27504e-07
1.27523e-07
1.27542e-07
1.27563e-07
1.27585e-07
1.27604e-07
1.27632e-07
1.27652e-07
1.27683e-07
1.27723e-07
1.29204e-07
1.32753e-07
2.40955e-08
1.23916e-07
1.22934e-07
1.22378e-07
1.22212e-07
1.22306e-07
1.22519e-07
1.22792e-07
1.2307e-07
1.23351e-07
1.23609e-07
1.23861e-07
1.24083e-07
1.243e-07
1.24489e-07
1.24674e-07
1.24833e-07
1.24991e-07
1.25126e-07
1.25261e-07
1.25376e-07
1.25492e-07
1.25591e-07
1.25692e-07
1.25776e-07
1.25865e-07
1.25938e-07
1.26015e-07
1.26078e-07
1.26146e-07
1.26202e-07
1.26262e-07
1.2631e-07
1.26365e-07
1.26409e-07
1.26457e-07
1.26494e-07
1.26537e-07
1.26572e-07
1.26611e-07
1.26642e-07
1.26677e-07
1.26707e-07
1.26739e-07
1.26762e-07
1.26794e-07
1.26817e-07
1.26843e-07
1.26863e-07
1.26886e-07
1.26906e-07
1.26929e-07
1.26946e-07
1.26966e-07
1.26984e-07
1.27003e-07
1.27017e-07
1.27034e-07
1.2705e-07
1.2706e-07
1.27073e-07
1.2708e-07
1.27094e-07
1.27096e-07
1.27104e-07
1.27104e-07
1.27127e-07
1.27153e-07
1.27165e-07
1.27179e-07
1.27199e-07
1.27213e-07
1.27237e-07
1.27254e-07
1.27281e-07
1.27304e-07
1.27332e-07
1.27349e-07
1.27374e-07
1.2739e-07
1.27414e-07
1.27429e-07
1.27451e-07
1.27468e-07
1.27488e-07
1.27507e-07
1.27527e-07
1.27547e-07
1.27569e-07
1.27588e-07
1.27616e-07
1.27636e-07
1.27667e-07
1.27708e-07
1.29239e-07
1.32757e-07
2.5234e-08
1.23917e-07
1.22934e-07
1.22375e-07
1.22205e-07
1.22295e-07
1.22504e-07
1.22776e-07
1.23051e-07
1.23332e-07
1.23589e-07
1.2384e-07
1.24062e-07
1.24279e-07
1.24468e-07
1.24652e-07
1.24812e-07
1.2497e-07
1.25105e-07
1.2524e-07
1.25355e-07
1.25472e-07
1.2557e-07
1.25671e-07
1.25756e-07
1.25845e-07
1.25918e-07
1.25995e-07
1.26059e-07
1.26126e-07
1.26183e-07
1.26243e-07
1.26291e-07
1.26346e-07
1.2639e-07
1.26438e-07
1.26475e-07
1.26518e-07
1.26553e-07
1.26593e-07
1.26623e-07
1.26658e-07
1.26689e-07
1.2672e-07
1.26744e-07
1.26776e-07
1.26799e-07
1.26826e-07
1.26846e-07
1.26869e-07
1.26889e-07
1.26911e-07
1.26929e-07
1.26948e-07
1.26967e-07
1.26986e-07
1.27e-07
1.27017e-07
1.27033e-07
1.27043e-07
1.27056e-07
1.27063e-07
1.27077e-07
1.2708e-07
1.27088e-07
1.27088e-07
1.2711e-07
1.27136e-07
1.27148e-07
1.27162e-07
1.27182e-07
1.27195e-07
1.2722e-07
1.27237e-07
1.27264e-07
1.27286e-07
1.27315e-07
1.27332e-07
1.27357e-07
1.27372e-07
1.27397e-07
1.27412e-07
1.27434e-07
1.2745e-07
1.27471e-07
1.2749e-07
1.2751e-07
1.2753e-07
1.27552e-07
1.27572e-07
1.27599e-07
1.27619e-07
1.2765e-07
1.27692e-07
1.29277e-07
1.32759e-07
2.64326e-08
1.23918e-07
1.22934e-07
1.22372e-07
1.22197e-07
1.22282e-07
1.22489e-07
1.22758e-07
1.23032e-07
1.23311e-07
1.23567e-07
1.23818e-07
1.2404e-07
1.24256e-07
1.24445e-07
1.2463e-07
1.24789e-07
1.24947e-07
1.25082e-07
1.25218e-07
1.25333e-07
1.2545e-07
1.25548e-07
1.2565e-07
1.25734e-07
1.25823e-07
1.25896e-07
1.25973e-07
1.26037e-07
1.26105e-07
1.26162e-07
1.26222e-07
1.26271e-07
1.26325e-07
1.26369e-07
1.26418e-07
1.26455e-07
1.26498e-07
1.26533e-07
1.26573e-07
1.26604e-07
1.26639e-07
1.26669e-07
1.26701e-07
1.26725e-07
1.26757e-07
1.2678e-07
1.26806e-07
1.26827e-07
1.2685e-07
1.2687e-07
1.26893e-07
1.2691e-07
1.2693e-07
1.26948e-07
1.26967e-07
1.26981e-07
1.26999e-07
1.27015e-07
1.27024e-07
1.27038e-07
1.27045e-07
1.27059e-07
1.27062e-07
1.2707e-07
1.2707e-07
1.27092e-07
1.27118e-07
1.2713e-07
1.27143e-07
1.27163e-07
1.27177e-07
1.27201e-07
1.27218e-07
1.27245e-07
1.27267e-07
1.27296e-07
1.27313e-07
1.27338e-07
1.27354e-07
1.27379e-07
1.27393e-07
1.27416e-07
1.27432e-07
1.27453e-07
1.27472e-07
1.27491e-07
1.27512e-07
1.27534e-07
1.27553e-07
1.27581e-07
1.27601e-07
1.27631e-07
1.27674e-07
1.29318e-07
1.32761e-07
2.76948e-08
1.23918e-07
1.22934e-07
1.22368e-07
1.22188e-07
1.22269e-07
1.22472e-07
1.22739e-07
1.23011e-07
1.23289e-07
1.23544e-07
1.23794e-07
1.24016e-07
1.24232e-07
1.2442e-07
1.24605e-07
1.24765e-07
1.24923e-07
1.25058e-07
1.25194e-07
1.25309e-07
1.25426e-07
1.25524e-07
1.25626e-07
1.25711e-07
1.258e-07
1.25873e-07
1.25951e-07
1.26015e-07
1.26083e-07
1.26139e-07
1.262e-07
1.26248e-07
1.26303e-07
1.26348e-07
1.26396e-07
1.26434e-07
1.26477e-07
1.26512e-07
1.26552e-07
1.26582e-07
1.26618e-07
1.26648e-07
1.2668e-07
1.26704e-07
1.26736e-07
1.26759e-07
1.26786e-07
1.26806e-07
1.2683e-07
1.26849e-07
1.26872e-07
1.2689e-07
1.2691e-07
1.26928e-07
1.26947e-07
1.26962e-07
1.26979e-07
1.26995e-07
1.27005e-07
1.27019e-07
1.27026e-07
1.2704e-07
1.27043e-07
1.27051e-07
1.27051e-07
1.27073e-07
1.27098e-07
1.2711e-07
1.27124e-07
1.27143e-07
1.27157e-07
1.27181e-07
1.27198e-07
1.27225e-07
1.27247e-07
1.27275e-07
1.27292e-07
1.27318e-07
1.27334e-07
1.27359e-07
1.27373e-07
1.27396e-07
1.27412e-07
1.27433e-07
1.27452e-07
1.27472e-07
1.27492e-07
1.27514e-07
1.27534e-07
1.27561e-07
1.27581e-07
1.27612e-07
1.27655e-07
1.29364e-07
1.32761e-07
2.90246e-08
1.23919e-07
1.22935e-07
1.22364e-07
1.22179e-07
1.22255e-07
1.22454e-07
1.22718e-07
1.22988e-07
1.23265e-07
1.2352e-07
1.23769e-07
1.2399e-07
1.24206e-07
1.24394e-07
1.24579e-07
1.24738e-07
1.24897e-07
1.25032e-07
1.25168e-07
1.25283e-07
1.254e-07
1.25499e-07
1.25601e-07
1.25686e-07
1.25775e-07
1.25849e-07
1.25926e-07
1.2599e-07
1.26059e-07
1.26115e-07
1.26176e-07
1.26225e-07
1.2628e-07
1.26324e-07
1.26373e-07
1.26411e-07
1.26454e-07
1.26489e-07
1.26529e-07
1.2656e-07
1.26595e-07
1.26626e-07
1.26658e-07
1.26682e-07
1.26714e-07
1.26737e-07
1.26764e-07
1.26784e-07
1.26808e-07
1.26828e-07
1.26851e-07
1.26868e-07
1.26888e-07
1.26907e-07
1.26926e-07
1.2694e-07
1.26958e-07
1.26974e-07
1.26984e-07
1.26998e-07
1.27005e-07
1.27019e-07
1.27022e-07
1.2703e-07
1.2703e-07
1.27052e-07
1.27077e-07
1.27089e-07
1.27103e-07
1.27122e-07
1.27136e-07
1.2716e-07
1.27177e-07
1.27203e-07
1.27225e-07
1.27253e-07
1.2727e-07
1.27296e-07
1.27312e-07
1.27337e-07
1.27352e-07
1.27375e-07
1.27391e-07
1.27412e-07
1.27431e-07
1.27451e-07
1.27471e-07
1.27493e-07
1.27513e-07
1.2754e-07
1.2756e-07
1.2759e-07
1.27635e-07
1.29414e-07
1.32759e-07
3.04257e-08
1.2392e-07
1.22935e-07
1.2236e-07
1.2217e-07
1.22241e-07
1.22436e-07
1.22697e-07
1.22965e-07
1.2324e-07
1.23493e-07
1.23742e-07
1.23963e-07
1.24178e-07
1.24366e-07
1.24551e-07
1.2471e-07
1.24869e-07
1.25004e-07
1.2514e-07
1.25255e-07
1.25373e-07
1.25472e-07
1.25574e-07
1.25659e-07
1.25748e-07
1.25822e-07
1.259e-07
1.25964e-07
1.26033e-07
1.26089e-07
1.26151e-07
1.26199e-07
1.26255e-07
1.26299e-07
1.26348e-07
1.26386e-07
1.26429e-07
1.26465e-07
1.26505e-07
1.26536e-07
1.26571e-07
1.26602e-07
1.26634e-07
1.26658e-07
1.2669e-07
1.26713e-07
1.26741e-07
1.26761e-07
1.26785e-07
1.26805e-07
1.26828e-07
1.26845e-07
1.26865e-07
1.26884e-07
1.26903e-07
1.26918e-07
1.26935e-07
1.26952e-07
1.26961e-07
1.26975e-07
1.26983e-07
1.26997e-07
1.27e-07
1.27009e-07
1.27008e-07
1.2703e-07
1.27055e-07
1.27067e-07
1.27081e-07
1.27099e-07
1.27113e-07
1.27137e-07
1.27154e-07
1.2718e-07
1.27202e-07
1.2723e-07
1.27247e-07
1.27273e-07
1.27289e-07
1.27314e-07
1.27329e-07
1.27353e-07
1.27368e-07
1.2739e-07
1.27408e-07
1.27429e-07
1.27449e-07
1.27471e-07
1.2749e-07
1.27518e-07
1.27537e-07
1.27568e-07
1.27613e-07
1.29467e-07
1.32755e-07
3.19021e-08
1.23921e-07
1.22935e-07
1.22356e-07
1.22159e-07
1.22225e-07
1.22416e-07
1.22674e-07
1.22939e-07
1.23213e-07
1.23465e-07
1.23713e-07
1.23933e-07
1.24149e-07
1.24337e-07
1.24521e-07
1.24681e-07
1.24839e-07
1.24975e-07
1.25111e-07
1.25226e-07
1.25344e-07
1.25443e-07
1.25545e-07
1.25631e-07
1.2572e-07
1.25794e-07
1.25872e-07
1.25937e-07
1.26005e-07
1.26062e-07
1.26123e-07
1.26172e-07
1.26228e-07
1.26272e-07
1.26322e-07
1.26359e-07
1.26403e-07
1.26439e-07
1.26479e-07
1.2651e-07
1.26545e-07
1.26576e-07
1.26609e-07
1.26633e-07
1.26665e-07
1.26688e-07
1.26716e-07
1.26736e-07
1.2676e-07
1.2678e-07
1.26803e-07
1.26821e-07
1.26841e-07
1.2686e-07
1.26879e-07
1.26894e-07
1.26911e-07
1.26928e-07
1.26938e-07
1.26952e-07
1.26959e-07
1.26973e-07
1.26977e-07
1.26985e-07
1.26985e-07
1.27006e-07
1.27031e-07
1.27043e-07
1.27057e-07
1.27075e-07
1.27089e-07
1.27113e-07
1.27129e-07
1.27156e-07
1.27177e-07
1.27206e-07
1.27222e-07
1.27248e-07
1.27265e-07
1.2729e-07
1.27305e-07
1.27329e-07
1.27344e-07
1.27366e-07
1.27384e-07
1.27405e-07
1.27425e-07
1.27447e-07
1.27466e-07
1.27494e-07
1.27514e-07
1.27543e-07
1.27591e-07
1.29524e-07
1.29584e-07
3.34578e-08
1.23922e-07
1.22935e-07
1.22352e-07
1.22149e-07
1.22209e-07
1.22395e-07
1.22649e-07
1.22912e-07
1.23185e-07
1.23436e-07
1.23683e-07
1.23902e-07
1.24117e-07
1.24305e-07
1.2449e-07
1.24649e-07
1.24808e-07
1.24943e-07
1.2508e-07
1.25195e-07
1.25313e-07
1.25412e-07
1.25515e-07
1.256e-07
1.2569e-07
1.25764e-07
1.25842e-07
1.25907e-07
1.25976e-07
1.26033e-07
1.26095e-07
1.26144e-07
1.26199e-07
1.26244e-07
1.26293e-07
1.26332e-07
1.26375e-07
1.26411e-07
1.26451e-07
1.26482e-07
1.26518e-07
1.26549e-07
1.26582e-07
1.26606e-07
1.26638e-07
1.26662e-07
1.26689e-07
1.2671e-07
1.26733e-07
1.26754e-07
1.26777e-07
1.26795e-07
1.26815e-07
1.26834e-07
1.26853e-07
1.26868e-07
1.26885e-07
1.26902e-07
1.26912e-07
1.26926e-07
1.26934e-07
1.26949e-07
1.26952e-07
1.26961e-07
1.2696e-07
1.26981e-07
1.27006e-07
1.27018e-07
1.27032e-07
1.27049e-07
1.27064e-07
1.27087e-07
1.27103e-07
1.2713e-07
1.27151e-07
1.27179e-07
1.27196e-07
1.27222e-07
1.27239e-07
1.27264e-07
1.27279e-07
1.27303e-07
1.27319e-07
1.27341e-07
1.27359e-07
1.2738e-07
1.274e-07
1.27421e-07
1.27441e-07
1.27469e-07
1.27488e-07
1.27518e-07
1.27566e-07
1.29585e-07
1.23721e-07
3.50966e-08
1.23923e-07
1.22935e-07
1.22347e-07
1.22138e-07
1.22192e-07
1.22373e-07
1.22624e-07
1.22884e-07
1.23155e-07
1.23404e-07
1.23651e-07
1.2387e-07
1.24084e-07
1.24272e-07
1.24456e-07
1.24616e-07
1.24774e-07
1.2491e-07
1.25047e-07
1.25162e-07
1.2528e-07
1.2538e-07
1.25483e-07
1.25568e-07
1.25658e-07
1.25733e-07
1.25811e-07
1.25876e-07
1.25945e-07
1.26002e-07
1.26064e-07
1.26113e-07
1.26169e-07
1.26214e-07
1.26264e-07
1.26302e-07
1.26346e-07
1.26382e-07
1.26422e-07
1.26453e-07
1.26489e-07
1.2652e-07
1.26553e-07
1.26577e-07
1.2661e-07
1.26633e-07
1.26661e-07
1.26682e-07
1.26706e-07
1.26726e-07
1.26749e-07
1.26767e-07
1.26787e-07
1.26806e-07
1.26826e-07
1.26841e-07
1.26858e-07
1.26875e-07
1.26885e-07
1.269e-07
1.26908e-07
1.26922e-07
1.26926e-07
1.26934e-07
1.26934e-07
1.26955e-07
1.26979e-07
1.26991e-07
1.27005e-07
1.27022e-07
1.27037e-07
1.2706e-07
1.27076e-07
1.27102e-07
1.27123e-07
1.27152e-07
1.27168e-07
1.27194e-07
1.27211e-07
1.27237e-07
1.27252e-07
1.27276e-07
1.27291e-07
1.27314e-07
1.27332e-07
1.27353e-07
1.27373e-07
1.27395e-07
1.27414e-07
1.27442e-07
1.27461e-07
1.2749e-07
1.27541e-07
1.29648e-07
1.18468e-07
3.68217e-08
1.23923e-07
1.22936e-07
1.22342e-07
1.22126e-07
1.22174e-07
1.2235e-07
1.22597e-07
1.22855e-07
1.23123e-07
1.23371e-07
1.23617e-07
1.23835e-07
1.24049e-07
1.24236e-07
1.24421e-07
1.2458e-07
1.24739e-07
1.24875e-07
1.25012e-07
1.25127e-07
1.25246e-07
1.25345e-07
1.25449e-07
1.25534e-07
1.25625e-07
1.25699e-07
1.25778e-07
1.25843e-07
1.25912e-07
1.2597e-07
1.26032e-07
1.26081e-07
1.26137e-07
1.26182e-07
1.26232e-07
1.26271e-07
1.26315e-07
1.2635e-07
1.26391e-07
1.26423e-07
1.26459e-07
1.2649e-07
1.26523e-07
1.26547e-07
1.2658e-07
1.26603e-07
1.26631e-07
1.26652e-07
1.26676e-07
1.26697e-07
1.2672e-07
1.26738e-07
1.26758e-07
1.26777e-07
1.26797e-07
1.26812e-07
1.26829e-07
1.26847e-07
1.26857e-07
1.26872e-07
1.26879e-07
1.26894e-07
1.26898e-07
1.26907e-07
1.26907e-07
1.26927e-07
1.26951e-07
1.26963e-07
1.26977e-07
1.26993e-07
1.27009e-07
1.27031e-07
1.27047e-07
1.27073e-07
1.27094e-07
1.27122e-07
1.27139e-07
1.27165e-07
1.27182e-07
1.27208e-07
1.27223e-07
1.27247e-07
1.27263e-07
1.27286e-07
1.27303e-07
1.27325e-07
1.27344e-07
1.27366e-07
1.27386e-07
1.27414e-07
1.27433e-07
1.27462e-07
1.27514e-07
1.29714e-07
1.13768e-07
3.86362e-08
1.23924e-07
1.22936e-07
1.22338e-07
1.22114e-07
1.22155e-07
1.22326e-07
1.22569e-07
1.22823e-07
1.2309e-07
1.23336e-07
1.23581e-07
1.23798e-07
1.24012e-07
1.24199e-07
1.24384e-07
1.24543e-07
1.24702e-07
1.24838e-07
1.24975e-07
1.25091e-07
1.25209e-07
1.25309e-07
1.25412e-07
1.25498e-07
1.25589e-07
1.25664e-07
1.25743e-07
1.25808e-07
1.25878e-07
1.25935e-07
1.25998e-07
1.26047e-07
1.26104e-07
1.26149e-07
1.26199e-07
1.26237e-07
1.26282e-07
1.26318e-07
1.26359e-07
1.2639e-07
1.26426e-07
1.26458e-07
1.26491e-07
1.26515e-07
1.26548e-07
1.26572e-07
1.266e-07
1.26621e-07
1.26645e-07
1.26665e-07
1.26689e-07
1.26707e-07
1.26728e-07
1.26747e-07
1.26766e-07
1.26782e-07
1.26799e-07
1.26817e-07
1.26827e-07
1.26842e-07
1.2685e-07
1.26864e-07
1.26869e-07
1.26878e-07
1.26878e-07
1.26897e-07
1.26921e-07
1.26933e-07
1.26947e-07
1.26963e-07
1.26978e-07
1.27001e-07
1.27017e-07
1.27042e-07
1.27063e-07
1.27091e-07
1.27108e-07
1.27134e-07
1.27151e-07
1.27177e-07
1.27192e-07
1.27217e-07
1.27232e-07
1.27256e-07
1.27273e-07
1.27295e-07
1.27314e-07
1.27336e-07
1.27356e-07
1.27384e-07
1.27402e-07
1.27431e-07
1.27485e-07
1.2978e-07
1.09566e-07
4.0542e-08
1.23925e-07
1.22936e-07
1.22333e-07
1.22102e-07
1.22136e-07
1.223e-07
1.22539e-07
1.22791e-07
1.23055e-07
1.233e-07
1.23543e-07
1.2376e-07
1.23974e-07
1.2416e-07
1.24345e-07
1.24504e-07
1.24663e-07
1.24799e-07
1.24936e-07
1.25052e-07
1.25171e-07
1.25271e-07
1.25375e-07
1.25461e-07
1.25552e-07
1.25627e-07
1.25706e-07
1.25771e-07
1.25841e-07
1.25899e-07
1.25962e-07
1.26011e-07
1.26068e-07
1.26113e-07
1.26164e-07
1.26202e-07
1.26247e-07
1.26283e-07
1.26324e-07
1.26356e-07
1.26392e-07
1.26424e-07
1.26457e-07
1.26482e-07
1.26514e-07
1.26539e-07
1.26567e-07
1.26588e-07
1.26612e-07
1.26633e-07
1.26656e-07