/*--------------------------------*- C++ -*----------------------------------*\
| =========                 |                                                 |
| \\      /  F ield         | OpenFOAM: The Open Source CFD Toolbox           |
|  \\    /   O peration     | Version:  v2012                                 |
|   \\  /    A nd           | Website:  www.openfoam.com                      |
|    \\/     M anipulation  |                                                 |
\*---------------------------------------------------------------------------*/
FoamFile
{
    version     2.0;
    format      ascii;
    class       volScalarField;
    location    "33";
    object      omega;
}
// * * * * * * * * * * * * * * * * * * * * * * * * * * * * * * * * * * * * * //

dimensions      [0 0 -1 0 0 0 0];


internalField   nonuniform List<scalar> 
209825
(
8260.38
7563.38
7002.64
6567.07
6232.85
5975.72
5774.71
5615.38
5486.47
5381.12
5293.31
5219.85
5157.13
5103.75
5057.28
5017.24
4981.79
4950.97
4923.26
4899.04
4876.97
4857.6
4839.72
4824
4809.3
4796.41
4784.19
4773.48
4763.2
4754.25
4745.54
4737.99
4730.54
4724.14
4717.73
4712.29
4706.75
4702.09
4697.26
4693.27
4689.09
4685.6
4681.95
4678.99
4675.77
4673.18
4670.33
4668.09
4665.66
4663.72
4661.66
4660.03
4658.17
4656.63
4655.12
4653.77
4652.42
4651.23
4650.11
4649.23
4648.32
4647.49
4646.73
4646.15
4645.39
4644.86
4644.26
4643.95
4643.48
4643.24
4642.77
4642.54
4642.08
4641.87
4641.45
4641.35
4641.12
4641.19
4641.15
4641.36
4641.35
4641.76
4641.76
4642.39
4642.39
4643.21
4643.25
4644.19
4644.34
4645.44
4645.54
4647
4647.59
4679.28
4797.83
113476
8260.38
7563.39
7002.64
6567.06
6232.83
5975.69
5774.66
5615.31
5486.39
5381.04
5293.22
5219.75
5157.03
5103.65
5057.17
5017.13
4981.67
4950.85
4923.14
4898.92
4876.84
4857.47
4839.58
4823.86
4809.16
4796.27
4784.05
4773.34
4763.06
4754.11
4745.39
4737.85
4730.4
4723.99
4717.58
4712.14
4706.61
4701.94
4697.11
4693.12
4688.94
4685.45
4681.8
4678.84
4675.62
4673.03
4670.18
4667.94
4665.51
4663.57
4661.5
4659.88
4658.02
4656.48
4654.96
4653.62
4652.26
4651.08
4649.95
4649.08
4648.16
4647.33
4646.58
4645.99
4645.23
4644.7
4644.1
4643.79
4643.32
4643.08
4642.62
4642.38
4641.92
4641.72
4641.29
4641.19
4640.96
4641.03
4640.99
4641.2
4641.19
4641.6
4641.6
4642.23
4642.23
4643.05
4643.09
4644.03
4644.18
4645.28
4645.38
4646.84
4647.43
4679.18
4797.7
110178
8260.39
7563.4
7002.64
6567.02
6232.74
5975.55
5774.48
5615.1
5486.15
5380.76
5292.92
5219.43
5156.69
5103.29
5056.8
5016.74
4981.27
4950.44
4922.73
4898.5
4876.41
4857.04
4839.14
4823.42
4808.71
4795.82
4783.59
4772.87
4762.59
4753.64
4744.92
4737.37
4729.92
4723.51
4717.1
4711.66
4706.12
4701.45
4696.62
4692.62
4688.45
4684.95
4681.3
4678.34
4675.12
4672.52
4669.68
4667.43
4665
4663.06
4661
4659.37
4657.51
4655.97
4654.45
4653.11
4651.75
4650.56
4649.44
4648.56
4647.65
4646.82
4646.06
4645.47
4644.71
4644.18
4643.58
4643.27
4642.8
4642.56
4642.1
4641.86
4641.4
4641.19
4640.77
4640.67
4640.44
4640.51
4640.47
4640.67
4640.67
4641.07
4641.07
4641.7
4641.7
4642.52
4642.56
4643.5
4643.65
4644.75
4644.85
4646.31
4646.9
4678.76
4797.23
106393
8260.39
7563.41
7002.62
6566.94
6232.58
5975.31
5774.17
5614.72
5485.72
5380.29
5292.4
5218.87
5156.1
5102.68
5056.17
5016.09
4980.6
4949.75
4922.02
4897.77
4875.67
4856.29
4838.39
4822.65
4807.94
4795.03
4782.8
4772.08
4761.79
4752.83
4744.11
4736.56
4729.1
4722.69
4716.27
4710.82
4705.28
4700.61
4695.78
4691.78
4687.6
4684.1
4680.45
4677.48
4674.26
4671.66
4668.82
4666.57
4664.14
4662.19
4660.13
4658.5
4656.64
4655.1
4653.58
4652.23
4650.87
4649.68
4648.56
4647.68
4646.77
4645.93
4645.17
4644.59
4643.83
4643.3
4642.69
4642.38
4641.91
4641.67
4641.2
4640.97
4640.51
4640.3
4639.88
4639.78
4639.54
4639.61
4639.57
4639.77
4639.77
4640.17
4640.17
4640.8
4640.8
4641.62
4641.65
4642.6
4642.74
4643.84
4643.94
4645.4
4645.99
4678.03
4796.42
102500
8260.4
7563.43
7002.6
6566.83
6232.36
5974.98
5773.73
5614.19
5485.1
5379.6
5291.66
5218.08
5155.27
5101.8
5055.26
5015.15
4979.63
4948.76
4921.01
4896.74
4874.63
4855.23
4837.31
4821.56
4806.84
4793.92
4781.68
4770.94
4760.65
4751.68
4742.95
4735.39
4727.93
4721.51
4715.08
4709.64
4704.09
4699.41
4694.57
4690.57
4686.39
4682.89
4679.23
4676.26
4673.03
4670.44
4667.59
4665.34
4662.91
4660.96
4658.89
4657.26
4655.39
4653.85
4652.33
4650.98
4649.62
4648.43
4647.31
4646.43
4645.51
4644.67
4643.91
4643.33
4642.57
4642.03
4641.43
4641.11
4640.64
4640.4
4639.94
4639.7
4639.24
4639.03
4638.61
4638.5
4638.27
4638.33
4638.29
4638.49
4638.49
4638.88
4638.88
4639.51
4639.51
4640.33
4640.36
4641.3
4641.45
4642.54
4642.64
4644.1
4644.7
4676.99
4795.25
98604.7
8260.41
7563.46
7002.58
6566.69
6232.07
5974.54
5773.15
5613.5
5484.3
5378.72
5290.69
5217.05
5154.18
5100.66
5054.07
5013.92
4978.37
4947.47
4919.69
4895.4
4873.26
4853.84
4835.9
4820.14
4805.4
4792.47
4780.21
4769.46
4759.16
4750.18
4741.44
4733.87
4726.4
4719.98
4713.54
4708.09
4702.53
4697.85
4693.01
4689
4684.81
4681.3
4677.64
4674.67
4671.44
4668.84
4665.99
4663.73
4661.3
4659.34
4657.27
4655.64
4653.77
4652.23
4650.7
4649.35
4647.99
4646.8
4645.67
4644.79
4643.87
4643.03
4642.27
4641.68
4640.92
4640.38
4639.78
4639.46
4638.99
4638.75
4638.28
4638.04
4637.58
4637.37
4636.95
4636.84
4636.6
4636.67
4636.63
4636.82
4636.82
4637.21
4637.21
4637.83
4637.83
4638.65
4638.68
4639.62
4639.76
4640.85
4640.95
4642.41
4643
4675.62
4793.73
94746.7
8260.42
7563.5
7002.55
6566.51
6231.71
5973.99
5772.44
5612.64
5483.32
5377.62
5289.5
5215.77
5152.83
5099.25
5052.61
5012.41
4976.81
4945.87
4918.06
4893.73
4871.57
4852.12
4834.16
4818.37
4803.61
4790.67
4778.39
4767.63
4757.31
4748.33
4739.57
4731.99
4724.51
4718.08
4711.63
4706.17
4700.61
4695.92
4691.07
4687.05
4682.86
4679.35
4675.68
4672.7
4669.47
4666.86
4664
4661.75
4659.3
4657.35
4655.27
4653.64
4651.77
4650.22
4648.69
4647.34
4645.97
4644.78
4643.65
4642.76
4641.84
4641
4640.24
4639.65
4638.88
4638.34
4637.73
4637.42
4636.94
4636.7
4636.23
4635.99
4635.53
4635.32
4634.9
4634.79
4634.55
4634.6
4634.56
4634.75
4634.75
4635.13
4635.13
4635.75
4635.75
4636.56
4636.59
4637.53
4637.67
4638.76
4638.86
4640.31
4640.91
4673.93
4791.86
90945
8260.43
7563.55
7002.52
6566.3
6231.28
5973.34
5771.59
5611.61
5482.14
5376.31
5288.07
5214.25
5151.22
5097.57
5050.85
5010.6
4974.95
4943.96
4916.1
4891.75
4869.54
4850.07
4832.08
4816.27
4801.48
4788.52
4776.22
4765.45
4755.11
4746.11
4737.33
4729.74
4722.25
4715.8
4709.35
4703.88
4698.3
4693.6
4688.75
4684.72
4680.52
4677
4673.33
4670.35
4667.1
4664.49
4661.63
4659.37
4656.92
4654.96
4652.88
4651.24
4649.37
4647.81
4646.28
4644.93
4643.56
4642.36
4641.22
4640.33
4639.41
4638.57
4637.8
4637.21
4636.44
4635.9
4635.29
4634.97
4634.49
4634.25
4633.78
4633.54
4633.08
4632.87
4632.44
4632.33
4632.08
4632.14
4632.09
4632.27
4632.27
4632.65
4632.65
4633.26
4633.26
4634.07
4634.1
4635.03
4635.17
4636.25
4636.35
4637.8
4638.41
4671.91
4789.62
87208.4
8260.44
7563.6
7002.48
6566.06
6230.78
5972.59
5770.6
5610.41
5480.76
5374.78
5286.41
5212.47
5149.34
5095.6
5048.81
5008.48
4972.77
4941.73
4913.83
4889.42
4867.18
4847.68
4829.65
4813.81
4799
4786.01
4773.69
4762.89
4752.53
4743.51
4734.73
4727.12
4719.61
4713.15
4706.68
4701.2
4695.62
4690.91
4686.04
4682.01
4677.8
4674.27
4670.59
4667.6
4664.35
4661.73
4658.86
4656.59
4654.14
4652.17
4650.08
4648.44
4646.56
4645.01
4643.47
4642.11
4640.74
4639.54
4638.4
4637.5
4636.58
4635.73
4634.96
4634.36
4633.59
4633.05
4632.44
4632.11
4631.63
4631.39
4630.91
4630.68
4630.21
4630
4629.57
4629.46
4629.21
4629.26
4629.21
4629.38
4629.38
4629.75
4629.75
4630.35
4630.36
4631.16
4631.19
4632.11
4632.25
4633.33
4633.42
4634.88
4635.49
4669.56
4787.03
83539.5
8260.46
7563.66
7002.43
6565.78
6230.21
5971.73
5769.47
5609.05
5479.19
5373.03
5284.51
5210.44
5147.19
5093.35
5046.47
5006.06
4970.28
4939.18
4911.22
4886.77
4864.48
4844.93
4826.87
4810.99
4796.15
4783.13
4770.79
4759.97
4749.59
4740.55
4731.74
4724.11
4716.58
4710.11
4703.63
4698.13
4692.53
4687.81
4682.93
4678.89
4674.67
4671.13
4667.44
4664.45
4661.19
4658.56
4655.68
4653.41
4650.95
4648.98
4646.88
4645.23
4643.35
4641.79
4640.25
4638.88
4637.51
4636.3
4635.16
4634.26
4633.33
4632.48
4631.7
4631.1
4630.33
4629.79
4629.17
4628.84
4628.36
4628.11
4627.63
4627.39
4626.93
4626.71
4626.28
4626.17
4625.92
4625.96
4625.9
4626.07
4626.07
4626.43
4626.43
4627.02
4627.03
4627.82
4627.85
4628.77
4628.9
4629.98
4630.07
4631.52
4632.14
4666.87
4784.06
79936.5
8260.48
7563.72
7002.38
6565.47
6229.58
5970.76
5768.2
5607.51
5477.42
5371.06
5282.36
5208.14
5144.76
5090.81
5043.82
5003.33
4967.47
4936.3
4908.28
4883.77
4861.43
4841.83
4823.73
4807.81
4792.94
4779.88
4767.51
4756.66
4746.25
4737.19
4728.36
4720.72
4713.17
4706.68
4700.18
4694.67
4689.05
4684.32
4679.43
4675.37
4671.14
4667.59
4663.89
4660.88
4657.62
4654.98
4652.1
4649.82
4647.35
4645.37
4643.27
4641.61
4639.72
4638.15
4636.6
4635.24
4633.85
4632.65
4631.49
4630.59
4629.65
4628.81
4628.02
4627.42
4626.64
4626.1
4625.47
4625.14
4624.65
4624.4
4623.92
4623.68
4623.21
4623
4622.57
4622.45
4622.19
4622.23
4622.16
4622.33
4622.32
4622.68
4622.68
4623.26
4623.26
4624.05
4624.08
4624.99
4625.12
4626.19
4626.28
4627.73
4628.35
4663.84
4780.73
76393.9
8260.5
7563.8
7002.33
6565.12
6228.87
5969.69
5766.78
5605.8
5475.44
5368.86
5279.97
5205.58
5142.06
5087.97
5040.88
5000.29
4964.34
4933.08
4904.99
4880.42
4858.02
4838.37
4820.22
4804.26
4789.34
4776.26
4763.85
4752.97
4742.53
4733.44
4724.59
4716.92
4709.35
4702.84
4696.32
4690.8
4685.17
4680.42
4675.51
4671.44
4667.2
4663.64
4659.93
4656.91
4653.63
4650.99
4648.09
4645.8
4643.32
4641.34
4639.23
4637.56
4635.67
4634.09
4632.54
4631.17
4629.77
4628.56
4627.4
4626.5
4625.55
4624.7
4623.91
4623.3
4622.52
4621.97
4621.34
4621.01
4620.52
4620.26
4619.78
4619.54
4619.07
4618.85
4618.42
4618.3
4618.04
4618.06
4617.99
4618.15
4618.14
4618.49
4618.49
4619.06
4619.06
4619.84
4619.86
4620.77
4620.9
4621.96
4622.05
4623.5
4624.13
4660.46
4777.04
72907
8260.52
7563.88
7002.27
6564.75
6228.09
5968.5
5765.23
5603.91
5473.27
5366.44
5277.33
5202.76
5139.07
5084.84
5037.62
4996.92
4960.87
4929.53
4901.36
4876.71
4854.25
4834.55
4816.34
4800.34
4785.37
4772.25
4759.8
4748.89
4738.42
4729.3
4720.42
4712.73
4705.13
4698.6
4692.06
4686.51
4680.87
4676.1
4671.18
4667.09
4662.83
4659.26
4655.54
4652.51
4649.22
4646.56
4643.66
4641.36
4638.87
4636.87
4634.75
4633.08
4631.18
4629.6
4628.03
4626.66
4625.26
4624.04
4622.88
4621.96
4621.01
4620.16
4619.35
4618.75
4617.96
4617.41
4616.77
4616.43
4615.94
4615.68
4615.2
4614.95
4614.48
4614.26
4613.82
4613.7
4613.44
4613.45
4613.37
4613.52
4613.51
4613.85
4613.85
4614.41
4614.41
4615.18
4615.2
4616.1
4616.22
4617.28
4617.36
4618.81
4619.45
4656.74
4772.96
69482.5
8260.54
7563.97
7002.21
6564.34
6227.24
5967.21
5763.52
5601.84
5470.89
5363.78
5274.44
5199.66
5135.79
5081.41
5034.05
4993.23
4957.07
4925.63
4897.37
4872.65
4850.12
4830.35
4812.08
4796.03
4781.01
4767.84
4755.35
4744.4
4733.9
4724.75
4715.84
4708.12
4700.5
4693.94
4687.38
4681.81
4676.14
4671.36
4666.42
4662.32
4658.04
4654.46
4650.71
4647.67
4644.37
4641.71
4638.79
4636.48
4633.98
4631.97
4629.84
4628.16
4626.25
4624.67
4623.09
4621.71
4620.3
4619.08
4617.9
4616.98
4616.02
4615.16
4614.36
4613.75
4612.95
4612.4
4611.75
4611.41
4610.91
4610.65
4610.16
4609.91
4609.44
4609.22
4608.78
4608.65
4608.38
4608.39
4608.3
4608.44
4608.43
4608.75
4608.75
4609.3
4609.3
4610.06
4610.07
4610.97
4611.09
4612.14
4612.22
4613.66
4614.31
4652.65
4768.52
66126.4
8260.57
7564.06
7002.15
6563.9
6226.33
5965.81
5761.68
5599.6
5468.3
5360.89
5271.29
5196.29
5132.22
5077.67
5030.16
4989.2
4952.93
4921.39
4893.03
4868.22
4845.61
4825.77
4807.44
4791.33
4776.26
4763.04
4750.51
4739.52
4728.97
4719.79
4710.84
4703.09
4695.44
4688.86
4682.27
4676.68
4670.99
4666.19
4661.23
4657.11
4652.82
4649.22
4645.46
4642.4
4639.08
4636.41
4633.48
4631.15
4628.64
4626.63
4624.48
4622.79
4620.88
4619.28
4617.7
4616.31
4614.89
4613.66
4612.48
4611.55
4610.58
4609.72
4608.9
4608.29
4607.49
4606.93
4606.28
4605.93
4605.42
4605.16
4604.66
4604.41
4603.94
4603.71
4603.27
4603.14
4602.87
4602.86
4602.76
4602.9
4602.88
4603.19
4603.19
4603.72
4603.72
4604.47
4604.48
4605.38
4605.49
4606.53
4606.6
4608.05
4608.71
4648.2
4763.69
62844.4
8260.59
7564.17
7002.08
6563.43
6225.34
5964.3
5759.68
5597.17
5465.5
5357.77
5267.89
5192.64
5128.36
5073.63
5025.95
4984.85
4948.44
4916.78
4888.32
4863.42
4840.73
4820.81
4802.41
4786.24
4771.11
4757.84
4745.25
4734.22
4723.63
4714.41
4705.43
4697.65
4689.96
4683.36
4676.74
4671.12
4665.41
4660.58
4655.6
4651.46
4647.15
4643.53
4639.75
4636.68
4633.35
4630.66
4627.72
4625.38
4622.86
4620.83
4618.67
4616.97
4615.04
4613.44
4611.84
4610.45
4609.02
4607.79
4606.59
4605.66
4604.68
4603.81
4602.98
4602.36
4601.56
4600.99
4600.34
4599.98
4599.47
4599.2
4598.7
4598.45
4597.97
4597.74
4597.3
4597.16
4596.89
4596.87
4596.76
4596.88
4596.86
4597.16
4597.16
4597.68
4597.68
4598.41
4598.42
4599.3
4599.41
4600.44
4600.51
4601.95
4602.63
4643.37
4758.49
59641.7
8260.62
7564.28
7002.01
6562.93
6224.29
5962.69
5757.54
5594.57
5462.49
5354.41
5264.23
5188.72
5124.21
5069.27
5021.41
4980.15
4943.61
4911.82
4883.25
4858.25
4835.46
4815.46
4796.99
4780.74
4765.55
4752.22
4739.58
4728.5
4717.87
4708.61
4699.58
4691.77
4684.05
4677.41
4670.76
4665.12
4659.38
4654.53
4649.52
4645.36
4641.03
4637.39
4633.6
4630.51
4627.16
4624.46
4621.5
4619.15
4616.61
4614.57
4612.4
4610.69
4608.75
4607.13
4605.53
4604.12
4602.69
4601.45
4600.24
4599.29
4598.31
4597.44
4596.6
4595.97
4595.16
4594.59
4593.92
4593.56
4593.04
4592.77
4592.26
4592.01
4591.53
4591.3
4590.85
4590.71
4590.43
4590.4
4590.28
4590.39
4590.36
4590.64
4590.64
4591.15
4591.15
4591.87
4591.87
4592.75
4592.85
4593.87
4593.93
4595.38
4596.07
4638.16
4752.91
56523
8260.65
7564.4
7001.94
6562.39
6223.17
5960.96
5755.26
5591.79
5459.27
5350.81
5260.3
5184.51
5119.75
5064.59
5016.54
4975.12
4938.42
4906.5
4877.8
4852.69
4829.8
4809.72
4791.16
4774.84
4759.58
4746.19
4733.5
4722.36
4711.68
4702.37
4693.3
4685.45
4677.69
4671.02
4664.34
4658.67
4652.9
4648.03
4642.99
4638.81
4634.46
4630.8
4626.98
4623.88
4620.51
4617.79
4614.81
4612.45
4609.9
4607.84
4605.66
4603.93
4601.98
4600.36
4598.74
4597.33
4595.88
4594.63
4593.41
4592.46
4591.46
4590.58
4589.73
4589.1
4588.28
4587.7
4587.03
4586.66
4586.13
4585.86
4585.35
4585.09
4584.6
4584.37
4583.91
4583.77
4583.49
4583.45
4583.31
4583.41
4583.38
4583.64
4583.64
4584.13
4584.13
4584.84
4584.84
4585.7
4585.79
4586.81
4586.86
4588.3
4589.02
4632.56
4746.95
53493
8260.68
7564.53
7001.87
6561.83
6221.98
5959.13
5752.82
5588.82
5455.84
5346.98
5256.11
5180.02
5114.99
5059.6
5011.34
4969.73
4932.87
4900.81
4871.98
4846.75
4823.76
4803.58
4784.93
4768.53
4753.2
4739.74
4726.98
4715.79
4705.06
4695.7
4686.58
4678.69
4670.89
4664.19
4657.47
4651.77
4645.96
4641.07
4636
4631.8
4627.42
4623.74
4619.9
4616.78
4613.39
4610.65
4607.66
4605.28
4602.71
4600.64
4598.44
4596.7
4594.74
4593.1
4591.47
4590.05
4588.59
4587.33
4586.1
4585.13
4584.13
4583.24
4582.38
4581.74
4580.91
4580.33
4579.65
4579.27
4578.73
4578.45
4577.94
4577.68
4577.18
4576.95
4576.49
4576.34
4576.05
4576
4575.85
4575.94
4575.9
4576.15
4576.15
4576.61
4576.61
4577.3
4577.3
4578.16
4578.24
4579.24
4579.29
4580.73
4581.47
4626.55
4740.6
50555.7
8260.71
7564.67
7001.8
6561.24
6220.72
5957.19
5750.24
5585.67
5452.19
5342.9
5251.66
5175.23
5109.92
5054.28
5005.8
4964
4926.96
4894.74
4865.77
4840.42
4817.31
4797.03
4778.29
4761.81
4746.39
4732.86
4720.04
4708.79
4697.99
4688.59
4679.42
4671.48
4663.64
4656.9
4650.14
4644.41
4638.57
4633.64
4628.55
4624.32
4619.91
4616.21
4612.35
4609.2
4605.79
4603.04
4600.02
4597.63
4595.04
4592.96
4590.74
4588.99
4587.01
4585.36
4583.71
4582.28
4580.81
4579.54
4578.3
4577.32
4576.31
4575.41
4574.53
4573.89
4573.05
4572.47
4571.77
4571.39
4570.84
4570.55
4570.03
4569.77
4569.27
4569.03
4568.57
4568.41
4568.12
4568.06
4567.89
4567.97
4567.92
4568.15
4568.15
4568.6
4568.59
4569.26
4569.26
4570.1
4570.18
4571.17
4571.21
4572.65
4573.41
4620.12
4733.87
47714.9
8260.74
7564.81
7001.73
6560.63
6219.4
5955.14
5747.52
5582.34
5448.33
5338.58
5246.94
5170.17
5104.54
5048.64
4999.92
4957.91
4920.68
4888.3
4859.18
4833.7
4810.46
4790.07
4771.23
4754.66
4739.16
4725.55
4712.65
4701.34
4690.48
4681.02
4671.8
4663.82
4655.93
4649.15
4642.35
4636.58
4630.7
4625.74
4620.62
4616.36
4611.92
4608.2
4604.31
4601.14
4597.71
4594.94
4591.91
4589.49
4586.88
4584.78
4582.54
4580.78
4578.79
4577.13
4575.46
4574.02
4572.54
4571.26
4570
4569.01
4567.98
4567.08
4566.19
4565.54
4564.69
4564.1
4563.39
4563
4562.44
4562.15
4561.62
4561.35
4560.85
4560.61
4560.14
4559.97
4559.67
4559.61
4559.42
4559.49
4559.43
4559.64
4559.64
4560.06
4560.06
4560.71
4560.71
4561.54
4561.6
4562.58
4562.62
4564.06
4564.84
4613.25
4726.75
44974.1
8260.77
7564.96
7001.65
6559.98
6218.02
5952.99
5744.65
5578.83
5444.26
5334.02
5241.95
5164.81
5098.86
5042.67
4993.7
4951.47
4914.04
4881.48
4852.2
4826.58
4803.21
4782.7
4763.75
4747.08
4731.49
4717.8
4704.83
4693.45
4682.52
4673
4663.73
4655.69
4647.75
4640.93
4634.09
4628.28
4622.36
4617.37
4612.21
4607.92
4603.46
4599.71
4595.79
4592.6
4589.14
4586.35
4583.29
4580.86
4578.23
4576.11
4573.85
4572.07
4570.07
4568.39
4566.71
4565.26
4563.76
4562.47
4561.19
4560.19
4559.15
4558.24
4557.34
4556.68
4555.82
4555.22
4554.5
4554.1
4553.53
4553.23
4552.69
4552.42
4551.91
4551.67
4551.19
4551.02
4550.72
4550.64
4550.44
4550.5
4550.42
4550.62
4550.61
4551.01
4551.01
4551.64
4551.64
4552.45
4552.51
4553.47
4553.5
4554.94
4555.75
4605.92
4719.23
42336.3
8260.8
7565.13
7001.58
6559.32
6216.57
5950.74
5741.64
5575.14
5439.97
5329.21
5236.69
5159.16
5092.86
5036.37
4987.13
4944.66
4907.03
4874.28
4844.83
4819.05
4795.54
4774.91
4755.84
4739.07
4723.38
4709.61
4696.55
4685.1
4674.11
4664.52
4655.19
4647.1
4639.11
4632.23
4625.35
4619.5
4613.54
4608.51
4603.32
4599
4594.5
4590.72
4586.77
4583.56
4580.08
4577.26
4574.18
4571.73
4569.08
4566.94
4564.66
4562.86
4560.84
4559.15
4557.45
4555.98
4554.47
4553.17
4551.88
4550.87
4549.81
4548.89
4547.97
4547.3
4546.43
4545.82
4545.09
4544.68
4544.1
4543.8
4543.25
4542.97
4542.46
4542.21
4541.73
4541.55
4541.24
4541.15
4540.94
4540.98
4540.89
4541.07
4541.05
4541.44
4541.43
4542.04
4542.04
4542.83
4542.88
4543.82
4543.85
4545.29
4546.13
4598.12
4711.27
39804.3
8260.84
7565.29
7001.51
6558.62
6215.07
5948.38
5738.48
5571.27
5435.47
5324.16
5231.16
5153.21
5086.55
5029.74
4980.22
4937.5
4899.64
4866.69
4837.05
4811.12
4787.46
4766.7
4747.51
4730.63
4714.84
4700.97
4687.83
4676.3
4665.23
4655.58
4646.18
4638.03
4629.99
4623.06
4616.13
4610.23
4604.23
4599.17
4593.94
4589.58
4585.05
4581.24
4577.26
4574.02
4570.51
4567.67
4564.57
4562.09
4559.42
4557.26
4554.96
4553.14
4551.1
4549.39
4547.68
4546.2
4544.67
4543.35
4542.04
4541.02
4539.95
4539.02
4538.08
4537.4
4536.52
4535.9
4535.16
4534.74
4534.15
4533.83
4533.28
4533
4532.48
4532.22
4531.74
4531.55
4531.23
4531.13
4530.91
4530.93
4530.83
4530.99
4530.97
4531.32
4531.32
4531.9
4531.9
4532.68
4532.72
4533.64
4533.67
4535.1
4535.97
4589.82
4702.84
37380.3
8260.87
7565.47
7001.44
6557.91
6213.5
5945.93
5735.19
5567.22
5430.75
5318.87
5225.36
5146.97
5079.93
5022.78
4972.96
4929.97
4891.87
4858.71
4828.88
4802.78
4778.97
4758.06
4738.74
4721.75
4705.84
4691.88
4678.64
4667.03
4655.88
4646.16
4636.69
4628.49
4620.38
4613.41
4606.42
4600.48
4594.43
4589.33
4584.05
4579.66
4575.09
4571.26
4567.24
4563.97
4560.43
4557.57
4554.44
4551.94
4549.24
4547.06
4544.74
4542.9
4540.84
4539.12
4537.38
4535.89
4534.34
4533.01
4531.68
4530.64
4529.56
4528.62
4527.66
4526.97
4526.08
4525.46
4524.7
4524.27
4523.66
4523.34
4522.78
4522.49
4521.96
4521.7
4521.21
4521.01
4520.68
4520.58
4520.34
4520.34
4520.23
4520.37
4520.34
4520.67
4520.67
4521.22
4521.22
4521.98
4522.01
4522.92
4522.94
4524.37
4525.27
4580.99
4693.9
35066.5
8260.9
7565.66
7001.37
6557.17
6211.88
5943.37
5731.75
5562.99
5425.82
5313.33
5219.3
5140.44
5072.99
5015.48
4965.34
4922.08
4883.72
4850.34
4820.31
4794.02
4770.05
4749
4729.53
4712.42
4696.4
4682.34
4669
4657.3
4646.07
4636.27
4626.73
4618.46
4610.29
4603.26
4596.22
4590.23
4584.14
4578.99
4573.67
4569.24
4564.63
4560.76
4556.71
4553.41
4549.84
4546.95
4543.79
4541.27
4538.54
4536.34
4533.99
4532.13
4530.06
4528.32
4526.56
4525.05
4523.48
4522.14
4520.79
4519.74
4518.63
4517.68
4516.71
4516.01
4515.11
4514.47
4513.7
4513.26
4512.64
4512.31
4511.73
4511.44
4510.91
4510.64
4510.14
4509.93
4509.59
4509.48
4509.23
4509.22
4509.09
4509.21
4509.17
4509.47
4509.47
4509.99
4509.99
4510.73
4510.76
4511.64
4511.65
4513.08
4514.02
4571.61
4684.4
32864.6
8260.94
7565.85
7001.31
6556.42
6210.2
5940.72
5728.17
5558.59
5420.69
5307.56
5212.96
5133.61
5065.73
5007.85
4957.37
4913.81
4875.19
4841.58
4811.33
4784.86
4760.7
4739.5
4719.89
4702.64
4686.5
4672.33
4658.89
4647.1
4635.78
4625.91
4616.29
4607.95
4599.71
4592.62
4585.52
4579.48
4573.33
4568.14
4562.78
4558.31
4553.66
4549.75
4545.67
4542.33
4538.73
4535.81
4532.62
4530.07
4527.32
4525.1
4522.72
4520.84
4518.74
4516.98
4515.2
4513.68
4512.09
4510.74
4509.37
4508.3
4507.17
4506.21
4505.22
4504.5
4503.59
4502.94
4502.15
4501.7
4501.07
4500.73
4500.14
4499.84
4499.3
4499.03
4498.52
4498.3
4497.95
4497.83
4497.57
4497.54
4497.39
4497.5
4497.45
4497.72
4497.72
4498.21
4498.21
4498.92
4498.94
4499.8
4499.81
4501.24
4502.21
4561.65
4674.32
30776.2
8260.97
7566.05
7001.25
6555.65
6208.46
5937.98
5724.47
5554.01
5415.34
5301.54
5206.35
5126.49
5058.16
4999.88
4949.05
4905.18
4866.28
4832.42
4801.94
4775.27
4750.93
4729.56
4709.8
4692.42
4676.15
4661.86
4648.31
4636.42
4625.01
4615.05
4605.35
4596.94
4588.64
4581.48
4574.32
4568.22
4562.02
4556.78
4551.37
4546.86
4542.16
4538.23
4534.1
4530.73
4527.09
4524.14
4520.93
4518.35
4515.57
4513.32
4510.91
4509.01
4506.89
4505.11
4503.3
4501.76
4500.15
4498.79
4497.39
4496.31
4495.16
4494.19
4493.18
4492.45
4491.52
4490.86
4490.06
4489.59
4488.94
4488.6
4488
4487.69
4487.14
4486.86
4486.35
4486.12
4485.76
4485.63
4485.36
4485.31
4485.14
4485.23
4485.16
4485.41
4485.41
4485.86
4485.87
4486.55
4486.57
4487.4
4487.41
4488.83
4489.84
4551.04
4663.61
28802.5
8261
7566.26
7001.19
6554.85
6206.68
5935.14
5720.62
5549.26
5409.78
5295.28
5199.47
5119.08
5050.27
4991.57
4940.37
4896.18
4856.98
4822.86
4792.15
4765.26
4740.73
4719.18
4699.26
4681.74
4665.33
4650.92
4637.26
4625.27
4613.75
4603.71
4593.92
4585.44
4577.06
4569.84
4562.61
4556.46
4550.2
4544.91
4539.45
4534.89
4530.15
4526.17
4522
4518.6
4514.93
4511.94
4508.7
4506.09
4503.28
4501
4498.57
4496.64
4494.49
4492.69
4490.86
4489.3
4487.67
4486.29
4484.87
4483.77
4482.6
4481.62
4480.59
4479.85
4478.9
4478.23
4477.41
4476.93
4476.27
4475.91
4475.3
4474.98
4474.43
4474.14
4473.62
4473.38
4473
4472.86
4472.58
4472.51
4472.33
4472.4
4472.31
4472.54
4472.53
4472.95
4472.96
4473.61
4473.62
4474.43
4474.43
4475.85
4476.9
4539.75
4652.24
26944.8
8261.04
7566.47
7001.14
6554.05
6204.85
5932.21
5716.65
5544.34
5404.02
5288.78
5192.33
5111.37
5042.06
4982.93
4931.34
4886.8
4847.29
4812.9
4781.94
4754.83
4730.09
4708.37
4688.27
4670.6
4654.05
4639.52
4625.73
4613.63
4602.01
4591.88
4582
4573.44
4564.98
4557.69
4550.39
4544.18
4537.86
4532.52
4527
4522.4
4517.61
4513.59
4509.38
4505.94
4502.22
4499.21
4495.93
4493.29
4490.44
4488.14
4485.67
4483.72
4481.55
4479.73
4477.87
4476.29
4474.64
4473.24
4471.8
4470.68
4469.49
4468.49
4467.43
4466.68
4465.72
4465.04
4464.2
4463.71
4463.02
4462.65
4462.03
4461.71
4461.14
4460.85
4460.32
4460.07
4459.68
4459.53
4459.23
4459.15
4458.95
4458.99
4458.9
4459.1
4459.08
4459.47
4459.47
4460.1
4460.11
4460.88
4460.88
4462.29
4463.39
4527.75
4640.16
25203.9
8261.07
7566.69
7001.1
6553.23
6202.97
5929.2
5712.55
5539.25
5398.06
5282.05
5184.92
5103.37
5033.54
4973.95
4921.95
4877.06
4837.22
4802.54
4771.32
4743.98
4719.02
4697.11
4676.84
4659
4642.3
4627.64
4613.72
4601.51
4589.78
4579.55
4569.58
4560.93
4552.39
4545.03
4537.66
4531.38
4525
4519.6
4514.03
4509.37
4504.54
4500.48
4496.22
4492.73
4488.98
4485.93
4482.61
4479.94
4477.06
4474.73
4472.23
4470.25
4468.05
4466.21
4464.33
4462.73
4461.05
4459.63
4458.17
4457.03
4455.81
4454.8
4453.72
4452.95
4451.97
4451.28
4450.42
4449.92
4449.22
4448.83
4448.2
4447.87
4447.29
4446.99
4446.45
4446.18
4445.79
4445.62
4445.31
4445.22
4444.99
4445.02
4444.9
4445.08
4445.05
4445.41
4445.41
4446
4446.01
4446.75
4446.75
4448.15
4449.29
4515.03
4627.34
23580.9
8261.1
7566.92
7001.06
6552.4
6201.05
5926.11
5708.33
5534
5391.89
5275.08
5177.25
5095.08
5024.71
4964.64
4912.21
4866.94
4826.77
4791.78
4760.29
4732.7
4707.52
4685.4
4664.95
4646.94
4630.09
4615.28
4601.23
4588.9
4577.06
4566.73
4556.66
4547.92
4539.29
4531.86
4524.41
4518.07
4511.62
4506.16
4500.53
4495.82
4490.93
4486.82
4482.51
4478.99
4475.2
4472.11
4468.75
4466.05
4463.13
4460.77
4458.24
4456.23
4454
4452.14
4450.22
4448.6
4446.9
4445.46
4443.97
4442.81
4441.57
4440.55
4439.44
4438.66
4437.66
4436.95
4436.07
4435.55
4434.83
4434.44
4433.79
4433.45
4432.86
4432.55
4432
4431.72
4431.31
4431.13
4430.81
4430.7
4430.46
4430.46
4430.33
4430.48
4430.44
4430.76
4430.76
4431.32
4431.32
4432.03
4432.03
4433.42
4434.6
4501.58
4613.74
22072.2
8261.13
7567.16
7001.03
6551.56
6199.08
5922.93
5703.99
5528.6
5385.53
5267.89
5169.31
5086.51
5015.56
4955
4902.12
4856.45
4815.92
4780.63
4748.84
4721
4695.58
4673.26
4652.6
4634.42
4617.4
4602.45
4588.26
4575.81
4563.84
4553.4
4543.23
4534.4
4525.68
4518.17
4510.64
4504.23
4497.71
4492.19
4486.49
4481.73
4476.78
4472.63
4468.27
4464.7
4460.86
4457.74
4454.34
4451.6
4448.65
4446.25
4443.68
4441.64
4439.39
4437.5
4435.55
4433.91
4432.18
4430.73
4429.21
4428.02
4426.76
4425.72
4424.59
4423.79
4422.77
4422.05
4421.15
4420.61
4419.87
4419.47
4418.8
4418.45
4417.85
4417.53
4416.97
4416.68
4416.25
4416.06
4415.72
4415.6
4415.35
4415.33
4415.17
4415.29
4415.24
4415.53
4415.52
4416.05
4416.05
4416.72
4416.72
4418.11
4419.31
4487.41
4599.32
20673.3
8261.15
7567.4
7001.01
6550.72
6197.08
5919.69
5699.53
5523.03
5378.98
5260.46
5161.12
5077.65
5006.1
4945.02
4891.68
4845.6
4804.7
4769.07
4736.98
4708.87
4683.21
4660.66
4639.8
4621.44
4604.25
4589.14
4574.8
4562.22
4550.13
4539.58
4529.29
4520.37
4511.56
4503.96
4496.35
4489.86
4483.27
4477.68
4471.92
4467.1
4462.09
4457.89
4453.48
4449.87
4445.98
4442.81
4439.38
4436.6
4433.6
4431.18
4428.57
4426.5
4424.21
4422.29
4420.32
4418.65
4416.89
4415.42
4413.87
4412.66
4411.37
4410.32
4409.16
4408.34
4407.3
4406.57
4405.65
4405.09
4404.33
4403.91
4403.23
4402.87
4402.26
4401.93
4401.35
4401.06
4400.61
4400.41
4400.05
4399.92
4399.65
4399.6
4399.42
4399.52
4399.45
4399.7
4399.69
4400.18
4400.18
4400.81
4400.81
4402.19
4403.43
4472.49
4584.06
19379.2
8261.18
7567.65
7000.99
6549.87
6195.05
5916.37
5694.96
5517.32
5372.24
5252.82
5152.68
5068.51
4996.34
4934.71
4880.88
4834.37
4793.08
4757.11
4724.71
4696.32
4670.4
4647.62
4626.55
4608
4590.62
4575.35
4560.86
4548.14
4535.91
4525.25
4514.85
4505.83
4496.91
4489.23
4481.53
4474.96
4468.29
4462.64
4456.81
4451.93
4446.86
4442.61
4438.14
4434.48
4430.54
4427.33
4423.85
4421.03
4418
4415.54
4412.89
4410.78
4408.46
4406.52
4404.51
4402.82
4401.03
4399.54
4397.96
4396.73
4395.41
4394.33
4393.15
4392.31
4391.25
4390.5
4389.56
4388.99
4388.21
4387.77
4387.07
4386.69
4386.07
4385.73
4385.15
4384.84
4384.38
4384.16
4383.78
4383.64
4383.35
4383.28
4383.08
4383.15
4383.07
4383.29
4383.27
4383.72
4383.72
4384.3
4384.31
4385.67
4386.95
4456.83
4567.9
18184.7
8261.2
7567.9
7000.98
6549.01
6192.99
5912.98
5690.28
5511.46
5365.31
5244.96
5143.99
5059.09
4986.28
4924.08
4869.74
4822.78
4781.09
4744.76
4712.03
4683.35
4657.15
4634.14
4612.83
4594.09
4576.52
4561.08
4546.43
4533.57
4521.2
4510.41
4499.9
4490.77
4481.75
4473.97
4466.18
4459.53
4452.78
4447.06
4441.16
4436.22
4431.08
4426.77
4422.25
4418.54
4414.55
4411.3
4407.77
4404.91
4401.83
4399.33
4396.64
4394.5
4392.15
4390.18
4388.13
4386.42
4384.59
4383.08
4381.46
4380.21
4378.86
4377.77
4376.55
4375.7
4374.61
4373.85
4372.88
4372.3
4371.49
4371.04
4370.32
4369.93
4369.3
4368.95
4368.35
4368.02
4367.55
4367.31
4366.92
4366.76
4366.45
4366.37
4366.14
4366.19
4366.08
4366.27
4366.24
4366.65
4366.65
4367.19
4367.2
4368.55
4369.85
4440.43
4550.82
17084.4
8261.23
7568.16
7000.99
6548.16
6190.9
5909.53
5685.5
5505.45
5358.21
5236.88
5135.05
5049.39
4975.91
4913.12
4858.26
4810.83
4768.71
4732.01
4698.93
4669.95
4643.47
4620.21
4598.67
4579.71
4561.95
4546.33
4531.51
4518.5
4505.99
4495.08
4484.43
4475.19
4466.07
4458.19
4450.31
4443.58
4436.74
4430.94
4424.97
4419.96
4414.76
4410.39
4405.8
4402.04
4398
4394.7
4391.12
4388.22
4385.1
4382.56
4379.83
4377.65
4375.26
4373.26
4371.17
4369.43
4367.58
4366.04
4364.39
4363.11
4361.73
4360.62
4359.37
4358.5
4357.39
4356.61
4355.62
4355.01
4354.18
4353.71
4352.98
4352.58
4351.93
4351.57
4350.95
4350.62
4350.12
4349.87
4349.46
4349.28
4348.96
4348.86
4348.61
4348.62
4348.5
4348.65
4348.61
4348.98
4348.98
4349.48
4349.48
4350.83
4352.14
4423.27
4532.79
16072.6
8261.25
7568.43
7001
6547.3
6188.78
5906.03
5680.63
5499.32
5350.93
5228.59
5125.87
5039.43
4965.25
4901.85
4846.43
4798.52
4755.96
4718.87
4685.44
4656.13
4629.36
4605.83
4584.05
4564.88
4546.9
4531.11
4516.11
4502.94
4490.29
4479.23
4468.46
4459.1
4449.86
4441.89
4433.9
4427.08
4420.16
4414.29
4408.23
4403.15
4397.88
4393.46
4388.8
4384.98
4380.88
4377.54
4373.91
4370.96
4367.79
4365.21
4362.44
4360.22
4357.79
4355.76
4353.64
4351.87
4349.98
4348.41
4346.74
4345.43
4344.02
4342.88
4341.61
4340.71
4339.57
4338.78
4337.76
4337.13
4336.28
4335.8
4335.04
4334.62
4333.96
4333.59
4332.96
4332.61
4332.09
4331.83
4331.4
4331.21
4330.86
4330.74
4330.48
4330.46
4330.31
4330.43
4330.37
4330.7
4330.7
4331.15
4331.15
4332.49
4333.82
4405.35
4513.78
15143.5
8261.27
7568.7
7001.03
6546.45
6186.65
5902.47
5675.66
5493.05
5343.49
5220.11
5116.46
5029.2
4954.3
4890.26
4834.27
4785.86
4742.84
4705.34
4671.53
4641.9
4614.82
4591.02
4568.98
4549.58
4531.39
4515.4
4500.22
4486.89
4474.08
4462.89
4451.98
4442.5
4433.14
4425.06
4416.97
4410.06
4403.04
4397.09
4390.95
4385.8
4380.45
4375.97
4371.25
4367.37
4363.21
4359.81
4356.13
4353.14
4349.92
4347.3
4344.48
4342.22
4339.75
4337.69
4335.52