/*--------------------------------*- C++ -*----------------------------------*\
| =========                 |                                                 |
| \\      /  F ield         | OpenFOAM: The Open Source CFD Toolbox           |
|  \\    /   O peration     | Version:  v2012                                 |
|   \\  /    A nd           | Website:  www.openfoam.com                      |
|    \\/     M anipulation  |                                                 |
\*---------------------------------------------------------------------------*/
FoamFile
{
    version     2.0;
    format      ascii;
    class       volScalarField;
    location    "33";
    object      yPlus;
}
// * * * * * * * * * * * * * * * * * * * * * * * * * * * * * * * * * * * * * //

dimensions      [0 0 0 0 0 0 0];


internalField   uniform 0;

boundaryField
{
    inlet
    {
        type            calculated;
        value           uniform 0;
    }
    outlet
    {
        type            calculated;
        value           uniform 0;
    }
    topWall
    {
        type            calculated;
        value           nonuniform List<scalar> 
545
(
0.1112
0.191746
0.245991
0.28916
0.325707
0.357686
0.386251
0.412128
0.435813
0.457659
0.477934
0.496844
0.514551
0.531188
0.546866
0.561675
0.575695
0.588992
0.601624
0.613643
0.625093
0.636014
0.646442
0.656409
0.665944
0.675073
0.683821
0.692208
0.700255
0.707981
0.715403
0.722536
0.729395
0.735994
0.742345
0.748461
0.754351
0.760028
0.765499
0.770776
0.775865
0.780776
0.785516
0.790092
0.794511
0.798779
0.802904
0.806889
0.810742
0.814467
0.818069
0.821554
0.824924
0.828186
0.831342
0.834398
0.837356
0.84022
0.842993
0.84568
0.848282
0.850804
0.853247
0.855614
0.857909
0.860134
0.862291
0.864382
0.86641
0.868376
0.870283
0.872134
0.873905
0.875619
0.87732
0.879007
0.880681
0.882341
0.883988
0.885623
0.887244
0.888853
0.89045
0.892033
0.893605
0.895164
0.896712
0.898247
0.89977
0.901282
0.902782
0.904271
0.905748
0.907214
0.908668
0.910112
0.911413
0.912576
0.913739
0.914903
0.916066
0.917229
0.918391
0.919554
0.920716
0.921878
0.92304
0.924202
0.925364
0.926525
0.927686
0.928847
0.930008
0.931169
0.932329
0.933489
0.934649
0.935808
0.936967
0.938126
0.939285
0.940443
0.941601
0.942759
0.943916
0.945074
0.94623
0.947387
0.948543
0.949698
0.950854
0.952009
0.953163
0.954318
0.955471
0.956625
0.957778
0.95893
0.960082
0.961234
0.962385
0.963536
0.964687
0.965836
0.966986
0.968135
0.969283
0.970431
0.971578
0.972725
0.973872
0.975017
0.976163
0.977307
0.978452
0.979595
0.980738
0.98188
0.983022
0.984163
0.985304
0.986444
0.987583
0.988721
0.989859
0.990997
0.992133
0.993269
0.994404
0.995539
0.996673
0.997806
0.998938
1.00007
1.0012
1.00233
1.00346
1.00459
1.00572
1.00684
1.00797
1.00909
1.01022
1.01134
1.01246
1.01359
1.01471
1.01583
1.01695
1.01806
1.01918
1.0203
1.02141
1.02253
1.02364
1.02475
1.02586
1.02697
1.02808
1.02919
1.0303
1.0314
1.03251
1.03361
1.03472
1.03582
1.03692
1.03802
1.03912
1.04022
1.04131
1.04241
1.0435
1.04459
1.04568
1.04677
1.04786
1.04895
1.05004
1.05112
1.05221
1.05329
1.05437
1.05545
1.05653
1.05761
1.05868
1.05976
1.06083
1.0619
1.06297
1.06404
1.06511
1.06617
1.06724
1.0683
1.06936
1.07042
1.07148
1.07254
1.0736
1.07465
1.0757
1.07675
1.0778
1.07885
1.0799
1.08094
1.08198
1.08302
1.08406
1.0851
1.08614
1.08717
1.0882
1.08923
1.09026
1.09129
1.09232
1.09334
1.09436
1.09538
1.0964
1.09742
1.09843
1.09944
1.10045
1.10146
1.10247
1.10342
1.10431
1.10521
1.10612
1.10704
1.10796
1.10888
1.10981
1.11075
1.1117
1.11265
1.11361
1.11457
1.11554
1.11652
1.1175
1.11849
1.11948
1.12048
1.12149
1.1225
1.12352
1.12454
1.12557
1.12661
1.12765
1.12869
1.12975
1.13081
1.13187
1.13294
1.13402
1.1351
1.13618
1.13728
1.13837
1.13948
1.14058
1.1417
1.14281
1.14394
1.14507
1.1462
1.14734
1.14848
1.14962
1.15078
1.15193
1.15309
1.15426
1.15542
1.1566
1.15777
1.15895
1.16014
1.16132
1.16251
1.16371
1.1649
1.1661
1.16731
1.16851
1.16972
1.17093
1.17214
1.17336
1.17457
1.17579
1.17701
1.17823
1.17945
1.18068
1.1819
1.18313
1.18435
1.18558
1.1868
1.18803
1.18926
1.19048
1.1917
1.19293
1.19415
1.19537
1.19659
1.1978
1.19902
1.20023
1.20144
1.20264
1.20385
1.20504
1.20624
1.20743
1.20862
1.2098
1.21097
1.21215
1.21331
1.21447
1.21563
1.21677
1.21791
1.21905
1.22017
1.22129
1.2224
1.2235
1.22459
1.22568
1.22675
1.22781
1.22887
1.22991
1.23094
1.23196
1.23297
1.23397
1.23495
1.23592
1.23688
1.23783
1.23876
1.23967
1.24058
1.24146
1.24233
1.24319
1.24403
1.24485
1.24566
1.24645
1.24722
1.24797
1.24871
1.24943
1.25012
1.2508
1.25146
1.2521
1.25272
1.25331
1.25389
1.25444
1.25497
1.25549
1.25597
1.25644
1.25688
1.2573
1.25769
1.25806
1.25841
1.25873
1.25903
1.2593
1.25955
1.25977
1.25997
1.26014
1.26029
1.2604
1.2605
1.26056
1.2606
1.26061
1.2606
1.26056
1.26049
1.26039
1.26027
1.26012
1.25994
1.25974
1.25951
1.25925
1.25896
1.25865
1.25831
1.25794
1.25754
1.25707
1.25652
1.25594
1.25533
1.2547
1.25403
1.25334
1.25263
1.2519
1.25114
1.25037
1.24958
1.24877
1.24795
1.24711
1.24625
1.24539
1.24451
1.24363
1.24273
1.24183
1.24092
1.24001
1.23908
1.23816
1.23723
1.23629
1.23536
1.23442
1.23348
1.23255
1.23161
1.23068
1.22974
1.22881
1.22789
1.22697
1.22605
1.22514
1.22423
1.22333
1.22244
1.22155
1.22067
1.2198
1.21894
1.21809
1.21725
1.21642
1.2156
1.21479
1.21399
1.21321
1.21244
1.21168
1.21093
1.2102
1.20948
1.20878
1.20809
1.20742
1.20676
1.20612
1.20549
1.20488
1.20429
1.20371
1.20315
1.20261
1.20209
1.20158
1.20109
1.20063
1.20018
1.19975
1.19933
1.19894
1.19857
1.19822
1.19789
1.19757
1.19728
1.19701
1.19676
1.19653
1.19632
1.19614
1.19597
1.19582
1.1957
1.1956
1.19552
1.19545
1.19542
1.19539
)
;
    }
    bottomWall
    {
        type            calculated;
        value           nonuniform List<scalar> 
449
(
0.139421
0.08895
0.0758146
0.0694655
0.0653196
0.0622647
0.0599155
0.0581793
0.0571829
0.0573362
0.0600179
0.0640563
0.0670246
0.0687274
0.0696387
0.0701201
0.0703404
0.0703883
0.0703132
0.0701703
0.0699784
0.0697589
0.0695254
0.0692861
0.0690463
0.068809
0.0685757
0.0683478
0.0681262
0.0679111
0.0677026
0.0675006
0.067305
0.0671156
0.0669321
0.0667541
0.0665814
0.0664138
0.0662512
0.0660933
0.0659399
0.0657908
0.0656457
0.0655045
0.0653669
0.0652329
0.0651022
0.0649747
0.0648502
0.0647284
0.064609
0.0644916
0.0643764
0.0642631
0.0641519
0.0640426
0.0639354
0.0638301
0.0637268
0.0636252
0.0635255
0.0634275
0.0633312
0.0632366
0.0631436
0.0630521
0.0629621
0.0628736
0.0627864
0.0627007
0.0626162
0.062533
0.062451
0.0623702
0.0622906
0.0622121
0.0621348
0.0620586
0.0619834
0.0619093
0.0618362
0.0617641
0.0616929
0.0616226
0.0615533
0.0614849
0.0614172
0.0613505
0.0612845
0.0612193
0.0611549
0.0610913
0.0610284
0.0609663
0.0609048
0.0608441
0.060784
0.0607246
0.0606658
0.0606076
0.0605501
0.060493
0.0604366
0.0603807
0.0603253
0.0602706
0.0602163
0.0601626
0.0601094
0.0600568
0.0600046
0.0599529
0.0599017
0.0598509
0.0598006
0.0597508
0.0597014
0.0596524
0.0596039
0.0595558
0.0595081
0.0594607
0.0594138
0.0593673
0.0593212
0.0592754
0.05923
0.0591849
0.0591403
0.0590959
0.0590519
0.0590083
0.058965
0.058922
0.0588793
0.058837
0.0587949
0.0587532
0.0587117
0.0586706
0.0586297
0.0585892
0.0585489
0.0585089
0.0584692
0.0584297
0.0583905
0.0583515
0.0583127
0.0582743
0.058236
0.0581981
0.0581603
0.0581228
0.0580856
0.0580486
0.0580118
0.0579753
0.0579389
0.0579028
0.057867
0.0578313
0.0577958
0.0577606
0.0577256
0.0576908
0.0576561
0.0576217
0.0575875
0.0575535
0.0575197
0.057486
0.0574526
0.0574212
0.0573917
0.057362
0.0573323
0.0573024
0.0572724
0.0572423
0.0572122
0.0571819
0.0571515
0.057121
0.0570903
0.0570596
0.0570288
0.0569979
0.0569669
0.0569357
0.0569045
0.0568732
0.0568418
0.0568102
0.0567786
0.0567469
0.0567151
0.0566832
0.0566512
0.0566191
0.0565869
0.0565546
0.0565222
0.0564897
0.0564572
0.0564245
0.0563918
0.0563589
0.056326
0.056293
0.0562598
0.0562266
0.0561932
0.0561599
0.0561264
0.0560928
0.0560592
0.0560255
0.0559917
0.0559578
0.0559238
0.0558898
0.0558557
0.0558216
0.0557873
0.055753
0.0557186
0.0556842
0.0556497
0.0556151
0.0555805
0.0555458
0.055511
0.0554762
0.0554414
0.0554064
0.0553714
0.0553364
0.0553013
0.0552662
0.055231
0.0551957
0.0551604
0.0551251
0.0550897
0.0550543
0.0550188
0.0549833
0.0549478
0.0549122
0.0548766
0.0548409
0.0548053
0.0547696
0.0547338
0.054698
0.0546622
0.0546264
0.0545906
0.0545547
0.0545188
0.0544829
0.054447
0.054411
0.0543751
0.0543391
0.0543031
0.0542671
0.0542311
0.0541951
0.0541591
0.054123
0.0540869
0.0540509
0.0540148
0.0539787
0.0539427
0.0539066
0.0538705
0.0538345
0.0537985
0.0537625
0.0537264
0.0536905
0.0536545
0.0536185
0.0535826
0.0535467
0.0535108
0.0534749
0.0534391
0.0534032
0.0533674
0.0533317
0.053296
0.0532603
0.0532246
0.053189
0.0531533
0.0531178
0.0530822
0.0530468
0.0530113
0.0529759
0.0529405
0.0529052
0.0528699
0.0528346
0.0527994
0.0527643
0.0527292
0.0526941
0.0526591
0.0526241
0.0525892
0.0525543
0.0525195
0.0524848
0.0524501
0.0524154
0.0523808
0.0523462
0.0523117
0.0522773
0.0522429
0.0522086
0.0521743
0.0521401
0.052106
0.0520719
0.0520379
0.0520039
0.05197
0.0519361
0.0519023
0.0518686
0.0518349
0.0518013
0.0517678
0.0517343
0.0517009
0.0516675
0.0516343
0.051601
0.0515679
0.0515348
0.0515019
0.0514689
0.0514361
0.0514033
0.0513706
0.051338
0.0513054
0.0512729
0.0512369
0.0511977
0.0511591
0.0511211
0.0510838
0.0510469
0.0510106
0.0509749
0.0509397
0.050905
0.0508708
0.0508371
0.0508039
0.0507711
0.0507389
0.050707
0.0506756
0.0506445
0.050614
0.0505837
0.050554
0.0505245
0.0504955
0.0504668
0.0504385
0.0504105
0.0503828
0.0503555
0.0503285
0.0503018
0.0502755
0.0502494
0.0502237
0.0501982
0.0501731
0.0501481
0.0501235
0.0500992
0.0500751
0.0500512
0.0500277
0.0500043
0.0499813
0.0499584
0.0499358
0.0499134
0.0498912
0.0498693
0.0498476
0.049826
0.0498047
0.0497836
0.0497627
0.0497419
0.0497215
0.0497011
0.049681
0.049661
0.0496413
0.0496216
0.0496023
0.0495829
0.0495639
0.0495449
0.0495262
0.0495075
0.0494892
0.0494707
0.0494527
0.0494346
0.0494168
0.049399
0.0493815
0.0493639
0.0493468
0.0493294
0.0493126
0.0492955
0.0492789
0.049262
0.0492457
0.049229
0.0492129
0.0491965
0.0491806
0.0491644
0.0491485
0.0491327
0.0491164
0.049102
0.0490833
0.0490739
0.0490461
0.0490523
0.0490148
)
;
    }
    symmetry
    {
        type            symmetryPlane;
    }
    frontAndBack
    {
        type            empty;
    }
}


// ************************************************************************* //
