/*--------------------------------*- C++ -*----------------------------------*\
| =========                 |                                                 |
| \\      /  F ield         | OpenFOAM: The Open Source CFD Toolbox           |
|  \\    /   O peration     | Version:  v2012                                 |
|   \\  /    A nd           | Website:  www.openfoam.com                      |
|    \\/     M anipulation  |                                                 |
\*---------------------------------------------------------------------------*/
FoamFile
{
    version     2.0;
    format      ascii;
    class       volScalarField;
    location    "11.5";
    object      k;
}
// * * * * * * * * * * * * * * * * * * * * * * * * * * * * * * * * * * * * * //

dimensions      [0 2 -2 0 0 0 0];


internalField   nonuniform List<scalar> 
209825
(
0.00102026
0.000959735
0.000928565
0.000910204
0.000897958
0.000889223
0.000882587
0.000877458
0.000873286
0.000869939
0.000867083
0.000864748
0.000862683
0.000860958
0.00085943
0.000858152
0.000856971
0.000855986
0.000855047
0.000854274
0.000853514
0.000852891
0.000852289
0.000851808
0.000851304
0.000850914
0.000850516
0.000850219
0.000849863
0.000849622
0.000849408
0.000849221
0.000849014
0.000848853
0.000848653
0.00084851
0.000848379
0.000848272
0.000848154
0.000848064
0.000847931
0.000847836
0.000847748
0.000847685
0.000847602
0.000847537
0.000847483
0.000847402
0.00084735
0.000847302
0.000847188
0.000847178
0.000847171
0.000847154
0.000847079
0.000847145
0.000847145
0.000847144
0.000847123
0.0008472
0.0008472
0.000847198
0.00084734
0.000847589
0.000847589
0.000847589
0.000847703
0.00084802
0.000848128
0.000848129
0.000848275
0.000848538
0.000848837
0.000849107
0.000849466
0.000849665
0.000849877
0.000850141
0.000850518
0.000850927
0.000851357
0.000851914
0.000852381
0.000852956
0.000853552
0.000854423
0.000855223
0.000856458
0.000857464
0.000859458
0.000860717
0.000864675
0.000865638
0.000879627
0.00318238
0.0019061
0.00102026
0.000959728
0.000928552
0.000910185
0.000897935
0.000889198
0.000882559
0.000877428
0.000873256
0.000869907
0.00086705
0.000864713
0.000862648
0.000860922
0.000859394
0.000858115
0.000856934
0.000855949
0.000855009
0.000854235
0.000853475
0.000852852
0.00085225
0.000851768
0.000851264
0.000850873
0.000850476
0.000850179
0.000849822
0.000849582
0.000849367
0.00084918
0.000848973
0.000848811
0.000848611
0.000848468
0.000848337
0.00084823
0.000848113
0.000848023
0.000847889
0.000847794
0.000847706
0.000847643
0.00084756
0.000847494
0.00084744
0.00084736
0.000847308
0.00084726
0.000847146
0.000847136
0.000847129
0.000847112
0.000847037
0.000847102
0.000847102
0.000847101
0.000847081
0.000847157
0.000847157
0.000847155
0.000847297
0.000847546
0.000847546
0.000847546
0.00084766
0.000847977
0.000848086
0.000848086
0.000848232
0.000848496
0.000848794
0.000849065
0.000849424
0.000849623
0.000849835
0.000850099
0.000850476
0.000850885
0.000851316
0.000851873
0.00085234
0.000852915
0.000853511
0.000854382
0.000855182
0.000856418
0.000857423
0.000859418
0.000860678
0.000864636
0.000865597
0.000879612
0.0031862
0.0019114
0.00102025
0.000959692
0.000928488
0.000910101
0.000897837
0.000889089
0.000882441
0.000877304
0.000873125
0.000869772
0.000866911
0.000864571
0.000862503
0.000860774
0.000859244
0.000857963
0.00085678
0.000855793
0.000854852
0.000854077
0.000853315
0.000852691
0.000852088
0.000851605
0.0008511
0.000850709
0.000850311
0.000850013
0.000849656
0.000849415
0.000849199
0.000849012
0.000848805
0.000848643
0.000848442
0.000848299
0.000848167
0.00084806
0.000847942
0.000847852
0.000847718
0.000847623
0.000847535
0.000847472
0.000847388
0.000847322
0.000847268
0.000847188
0.000847136
0.000847088
0.000846973
0.000846963
0.000846956
0.000846939
0.000846864
0.00084693
0.000846929
0.000846928
0.000846908
0.000846984
0.000846984
0.000846982
0.000847124
0.000847373
0.000847373
0.000847373
0.000847487
0.000847804
0.000847913
0.000847914
0.00084806
0.000848324
0.000848622
0.000848892
0.000849252
0.000849451
0.000849664
0.000849928
0.000850305
0.000850714
0.000851145
0.000851703
0.00085217
0.000852745
0.000853342
0.000854213
0.000855014
0.00085625
0.000857256
0.000859251
0.000860511
0.000864471
0.000865428
0.000879491
0.00319612
0.00192364
0.00102025
0.000959629
0.000928378
0.000909959
0.00089767
0.000888905
0.000882243
0.000877094
0.000872906
0.000869545
0.000866677
0.000864332
0.000862259
0.000860526
0.000858991
0.000857707
0.000856521
0.000855531
0.000854588
0.00085381
0.000853047
0.000852421
0.000851816
0.000851332
0.000850826
0.000850433
0.000850033
0.000849734
0.000849377
0.000849134
0.000848918
0.00084873
0.000848522
0.000848359
0.000848158
0.000848014
0.000847882
0.000847774
0.000847656
0.000847565
0.000847431
0.000847335
0.000847247
0.000847183
0.0008471
0.000847034
0.000846979
0.000846899
0.000846846
0.000846798
0.000846684
0.000846674
0.000846666
0.000846649
0.000846574
0.000846639
0.000846639
0.000846638
0.000846617
0.000846694
0.000846694
0.000846692
0.000846833
0.000847083
0.000847083
0.000847083
0.000847197
0.000847513
0.000847623
0.000847624
0.00084777
0.000848034
0.000848332
0.000848603
0.000848962
0.000849163
0.000849376
0.00084964
0.000850017
0.000850427
0.000850858
0.000851416
0.000851884
0.00085246
0.000853057
0.000853929
0.00085473
0.000855968
0.000856973
0.00085897
0.00086023
0.000864192
0.000865141
0.00087928
0.00321214
0.00194276
0.00102024
0.000959541
0.000928224
0.000909757
0.000897435
0.000888644
0.000881962
0.000876797
0.000872596
0.000869224
0.000866347
0.000863993
0.000861914
0.000860174
0.000858635
0.000857345
0.000856155
0.000855162
0.000854215
0.000853434
0.000852668
0.00085204
0.000851432
0.000850946
0.000850438
0.000850043
0.000849642
0.000849342
0.000848982
0.000848739
0.000848521
0.000848332
0.000848122
0.000847959
0.000847757
0.000847612
0.000847479
0.000847371
0.000847252
0.00084716
0.000847026
0.00084693
0.000846841
0.000846777
0.000846693
0.000846626
0.000846571
0.000846491
0.000846438
0.00084639
0.000846276
0.000846265
0.000846257
0.00084624
0.000846164
0.000846229
0.000846229
0.000846228
0.000846207
0.000846283
0.000846283
0.000846282
0.000846423
0.000846673
0.000846673
0.000846673
0.000846787
0.000847103
0.000847214
0.000847214
0.000847361
0.000847625
0.000847923
0.000848194
0.000848554
0.000848756
0.000848969
0.000849234
0.000849611
0.000850021
0.000850453
0.000851011
0.00085148
0.000852058
0.000852655
0.000853528
0.000854329
0.000855569
0.000856574
0.000858572
0.000859833
0.000863798
0.000864737
0.000878977
0.00323457
0.00196887
0.00102023
0.000959426
0.000928024
0.000909497
0.000897131
0.000888307
0.000881599
0.000876413
0.000872195
0.000868809
0.000865919
0.000863555
0.000861466
0.000859719
0.000858173
0.000856877
0.000855681
0.000854683
0.000853732
0.000852947
0.000852178
0.000851546
0.000850935
0.000850446
0.000849935
0.000849539
0.000849135
0.000848833
0.000848472
0.000848226
0.000848007
0.000847816
0.000847605
0.000847441
0.000847238
0.000847092
0.000846957
0.000846848
0.000846728
0.000846636
0.000846501
0.000846404
0.000846314
0.00084625
0.000846165
0.000846098
0.000846043
0.000845962
0.000845909
0.00084586
0.000845746
0.000845735
0.000845727
0.000845709
0.000845633
0.000845698
0.000845698
0.000845696
0.000845675
0.000845752
0.000845752
0.00084575
0.000845891
0.000846141
0.000846141
0.000846141
0.000846255
0.000846571
0.000846684
0.000846684
0.00084683
0.000847094
0.000847393
0.000847664
0.000848025
0.000848228
0.000848442
0.000848707
0.000849084
0.000849495
0.000849927
0.000850487
0.000850957
0.000851536
0.000852133
0.000853008
0.000853809
0.000855051
0.000856056
0.000858057
0.000859317
0.000863286
0.000864211
0.000878581
0.00326378
0.00200205
0.00102021
0.000959286
0.000927778
0.000909176
0.000896756
0.000887891
0.000881151
0.00087594
0.000871701
0.000868297
0.000865392
0.000863016
0.000860916
0.000859159
0.000857603
0.0008563
0.000855097
0.000854093
0.000853137
0.000852347
0.000851573
0.000850937
0.000850322
0.00084983
0.000849316
0.000848917
0.00084851
0.000848205
0.000847842
0.000847594
0.000847373
0.00084718
0.000846968
0.000846802
0.000846597
0.00084645
0.000846314
0.000846204
0.000846082
0.00084599
0.000845854
0.000845756
0.000845665
0.0008456
0.000845515
0.000845448
0.000845392
0.000845311
0.000845257
0.000845208
0.000845094
0.000845082
0.000845074
0.000845056
0.000844979
0.000845043
0.000845043
0.000845041
0.00084502
0.000845097
0.000845097
0.000845095
0.000845235
0.000845486
0.000845486
0.000845486
0.0008456
0.000845915
0.00084603
0.00084603
0.000846176
0.00084644
0.00084674
0.000847011
0.000847372
0.000847576
0.000847792
0.000848058
0.000848435
0.000848847
0.000849279
0.00084984
0.000850311
0.000850892
0.00085149
0.000852367
0.000853168
0.000854412
0.000855417
0.00085742
0.00085868
0.000862654
0.000863563
0.000878092
0.00330013
0.00204235
0.0010202
0.000959119
0.000927486
0.000908795
0.00089631
0.000887397
0.000880619
0.000875377
0.000871112
0.000867688
0.000864765
0.000862373
0.000860259
0.000858491
0.000856925
0.000855613
0.000854402
0.000853391
0.000852427
0.000851632
0.000850852
0.000850211
0.000849592
0.000849096
0.000848578
0.000848175
0.000847765
0.000847458
0.000847092
0.000846841
0.000846617
0.000846422
0.000846208
0.00084604
0.000845834
0.000845685
0.000845547
0.000845436
0.000845313
0.000845219
0.000845082
0.000844984
0.000844892
0.000844826
0.00084474
0.000844672
0.000844615
0.000844534
0.000844479
0.00084443
0.000844316
0.000844304
0.000844295
0.000844276
0.000844199
0.000844262
0.000844262
0.000844261
0.000844239
0.000844315
0.000844315
0.000844314
0.000844453
0.000844704
0.000844705
0.000844705
0.000844818
0.000845133
0.00084525
0.00084525
0.000845397
0.000845661
0.00084596
0.000846232
0.000846593
0.0008468
0.000847017
0.000847283
0.000847661
0.000848074
0.000848506
0.000849068
0.000849541
0.000850125
0.000850723
0.000851602
0.000852403
0.00085365
0.000854654
0.00085666
0.000857921
0.000861899
0.000862789
0.000877507
0.00334399
0.00208976
0.00102018
0.000958927
0.000927148
0.000908353
0.000895793
0.000886822
0.00088
0.000874722
0.000870428
0.000866979
0.000864035
0.000861625
0.000859496
0.000857714
0.000856136
0.000854813
0.000853593
0.000852573
0.000851602
0.0008508
0.000850014
0.000849367
0.000848743
0.000848242
0.00084772
0.000847312
0.000846899
0.000846587
0.000846218
0.000845964
0.000845737
0.00084554
0.000845323
0.000845153
0.000844945
0.000844794
0.000844655
0.000844542
0.000844418
0.000844323
0.000844184
0.000844085
0.000843992
0.000843925
0.000843838
0.000843769
0.000843712
0.00084363
0.000843574
0.000843525
0.000843411
0.000843398
0.000843389
0.000843369
0.000843291
0.000843354
0.000843353
0.000843352
0.00084333
0.000843406
0.000843406
0.000843404
0.000843542
0.000843795
0.000843796
0.000843796
0.000843909
0.000844223
0.000844343
0.000844343
0.000844489
0.000844753
0.000845053
0.000845325
0.000845687
0.000845896
0.000846114
0.000846381
0.000846759
0.000847173
0.000847606
0.00084817
0.000848644
0.000849231
0.000849829
0.00085071
0.000851512
0.000852763
0.000853766
0.000855775
0.000857035
0.00086102
0.000861886
0.000876826
0.00339575
0.00214426
0.00102016
0.000958709
0.000926763
0.000907849
0.000895203
0.000886167
0.000879294
0.000873975
0.000869647
0.000866169
0.000863202
0.000860771
0.000858624
0.000856827
0.000855235
0.0008539
0.000852668
0.000851639
0.000850659
0.000849849
0.000849055
0.000848402
0.000847772
0.000847265
0.000846738
0.000846326
0.000845908
0.000845593
0.00084522
0.000844962
0.000844732
0.000844532
0.000844312
0.00084414
0.00084393
0.000843777
0.000843635
0.00084352
0.000843394
0.000843297
0.000843158
0.000843057
0.000842962
0.000842894
0.000842806
0.000842737
0.000842678
0.000842596
0.00084254
0.00084249
0.000842376
0.000842362
0.000842352
0.000842332
0.000842252
0.000842314
0.000842314
0.000842313
0.000842291
0.000842366
0.000842366
0.000842364
0.000842502
0.000842754
0.000842756
0.000842756
0.000842869
0.000843182
0.000843305
0.000843305
0.000843451
0.000843715
0.000844016
0.000844288
0.00084465
0.000844862
0.000845082
0.00084535
0.000845727
0.000846143
0.000846576
0.000847142
0.000847618
0.000848208
0.000848807
0.000849691
0.000850492
0.000851747
0.000852749
0.000854761
0.000856021
0.000860013
0.000860853
0.000876046
0.00345577
0.00220577
0.00102014
0.000958465
0.000926332
0.000907283
0.000894539
0.00088543
0.000878499
0.000873134
0.000868767
0.000865258
0.000862263
0.000859809
0.000857642
0.000855827
0.000854219
0.00085287
0.000851626
0.000850586
0.000849596
0.000848777
0.000847975
0.000847315
0.000846677
0.000846165
0.000845632
0.000845214
0.000844791
0.000844472
0.000844095
0.000843833
0.000843598
0.000843395
0.000843172
0.000842998
0.000842785
0.000842629
0.000842485
0.000842368
0.00084224
0.000842142
0.000842
0.000841898
0.000841802
0.000841733
0.000841643
0.000841573
0.000841513
0.00084143
0.000841373
0.000841323
0.000841209
0.000841194
0.000841184
0.000841163
0.000841082
0.000841143
0.000841143
0.000841141
0.000841118
0.000841193
0.000841194
0.000841192
0.000841328
0.000841581
0.000841584
0.000841584
0.000841696
0.000842008
0.000842134
0.000842134
0.00084228
0.000842545
0.000842845
0.000843118
0.000843481
0.000843696
0.000843917
0.000844187
0.000844564
0.000844981
0.000845414
0.000845982
0.000846461
0.000847054
0.000847653
0.00084854
0.000849342
0.0008506
0.000851602
0.000853617
0.000854877
0.000858876
0.000859687
0.000875166
0.0035244
0.00227422
0.00102011
0.000958195
0.000925853
0.000906655
0.000893802
0.000884611
0.000877615
0.000872197
0.000867788
0.000864243
0.000861217
0.000858737
0.000856548
0.000854713
0.000853087
0.000851723
0.000850465
0.000849413
0.000848412
0.000847583
0.000846772
0.000846103
0.000845458
0.000844938
0.000844398
0.000843975
0.000843546
0.000843222
0.00084284
0.000842574
0.000842335
0.000842128
0.000841902
0.000841724
0.000841508
0.00084135
0.000841202
0.000841084
0.000840953
0.000840853
0.00084071
0.000840606
0.000840508
0.000840437
0.000840347
0.000840275
0.000840214
0.000840131
0.000840072
0.000840022
0.000839908
0.000839891
0.00083988
0.000839859
0.000839776
0.000839836
0.000839836
0.000839835
0.000839811
0.000839886
0.000839886
0.000839884
0.000840019
0.000840273
0.000840276
0.000840276
0.000840388
0.000840698
0.000840828
0.000840828
0.000840975
0.000841239
0.00084154
0.000841813
0.000842177
0.000842395
0.000842618
0.000842889
0.000843266
0.000843685
0.000844119
0.000844689
0.000845169
0.000845766
0.000846366
0.000847256
0.000848058
0.000849321
0.000850321
0.00085234
0.000853599
0.000857606
0.000858385
0.000874183
0.00360197
0.00234952
0.00102009
0.0009579
0.000925328
0.000905964
0.000892991
0.000883708
0.00087664
0.000871165
0.000866708
0.000863123
0.000860064
0.000857555
0.00085534
0.000853484
0.000851839
0.000850457
0.000849184
0.000848117
0.000847104
0.000846264
0.000845443
0.000844765
0.000844111
0.000843583
0.000843037
0.000842607
0.000842172
0.000841842
0.000841455
0.000841184
0.00084094
0.000840729
0.000840499
0.000840317
0.000840098
0.000839937
0.000839786
0.000839665
0.000839531
0.00083943
0.000839285
0.000839179
0.000839079
0.000839007
0.000838914
0.000838841
0.000838779
0.000838695
0.000838635
0.000838584
0.00083847
0.000838452
0.000838441
0.000838418
0.000838334
0.000838393
0.000838393
0.000838391
0.000838367
0.000838441
0.000838442
0.00083844
0.000838573
0.000838828
0.000838831
0.000838831
0.000838942
0.000839252
0.000839386
0.000839386
0.000839532
0.000839797
0.000840098
0.000840371
0.000840735
0.000840958
0.000841182
0.000841455
0.000841831
0.000842253
0.000842687
0.000843259
0.000843742
0.000844342
0.000844943
0.000845836
0.000846638
0.000847906
0.000848905
0.000850927
0.000852186
0.000856201
0.000856945
0.000873094
0.00368879
0.00243157
0.00102006
0.000957581
0.000924756
0.000905211
0.000892104
0.000882721
0.000875574
0.000870036
0.000865527
0.000861898
0.000858802
0.000856261
0.000854018
0.000852137
0.000850471
0.00084907
0.00084778
0.000846698
0.000845671
0.000844819
0.000843987
0.000843298
0.000842635
0.000842099
0.000841544
0.000841107
0.000840665
0.000840329
0.000839937
0.00083966
0.00083941
0.000839195
0.00083896
0.000838775
0.000838553
0.000838388
0.000838234
0.00083811
0.000837973
0.000837869
0.000837722
0.000837614
0.000837512
0.000837438
0.000837344
0.000837269
0.000837206
0.000837121
0.000837059
0.000837008
0.000836894
0.000836874
0.000836862
0.000836838
0.000836753
0.000836811
0.00083681
0.000836809
0.000836784
0.000836857
0.000836858
0.000836856
0.000836987
0.000837243
0.000837247
0.000837247
0.000837358
0.000837665
0.000837804
0.000837804
0.00083795
0.000838215
0.000838517
0.00083879
0.000839155
0.000839381
0.000839608
0.000839882
0.000840258
0.000840681
0.000841116
0.00084169
0.000842176
0.000842781
0.000843381
0.000844279
0.00084508
0.000846353
0.000847351
0.000849376
0.000850634
0.000854659
0.000855364
0.000871898
0.00378508
0.00252029
0.00102003
0.000957236
0.000924138
0.000904394
0.000891143
0.00088165
0.000874417
0.000868809
0.000864242
0.000860566
0.000857428
0.000854853
0.00085258
0.000850673
0.000848982
0.000847561
0.000846252
0.000845154
0.000844112
0.000843246
0.000842402
0.000841702
0.000841028
0.000840483
0.000839919
0.000839475
0.000839025
0.000838682
0.000838284
0.000838
0.000837745
0.000837525
0.000837285
0.000837096
0.00083687
0.000836701
0.000836543
0.000836416
0.000836276
0.00083617
0.00083602
0.00083591
0.000835805
0.00083573
0.000835634
0.000835558
0.000835493
0.000835407
0.000835343
0.000835292
0.000835177
0.000835156
0.000835143
0.000835118
0.000835031
0.000835087
0.000835087
0.000835085
0.000835059
0.000835132
0.000835133
0.000835131
0.00083526
0.000835516
0.000835521
0.000835522
0.000835631
0.000835937
0.00083608
0.00083608
0.000836227
0.000836491
0.000836793
0.000837067
0.000837433
0.000837663
0.000837892
0.000838167
0.000838543
0.000838969
0.000839404
0.00083998
0.000840469
0.000841078
0.000841679
0.00084258
0.000843381
0.000844659
0.000845656
0.000847685
0.000848942
0.000852976
0.000853639
0.000870589
0.00389101
0.00261558
0.00102
0.000956868
0.000923473
0.000903514
0.000890105
0.000880493
0.000873166
0.000867483
0.000862854
0.000859125
0.000855944
0.00085333
0.000851024
0.000849088
0.000847372
0.000845928
0.000844599
0.000843483
0.000842424
0.000841544
0.000840686
0.000839974
0.000839289
0.000838733
0.000838161
0.000837707
0.000837249
0.000836899
0.000836494
0.000836204
0.000835942
0.000835716
0.000835472
0.000835278
0.000835047
0.000834874
0.000834713
0.000834582
0.000834439
0.00083433
0.000834178
0.000834065
0.000833957
0.00083388
0.000833782
0.000833704
0.000833637
0.00083355
0.000833485
0.000833433
0.000833317
0.000833295
0.000833281
0.000833255
0.000833166
0.00083322
0.00083322
0.000833218
0.000833192
0.000833264
0.000833264
0.000833262
0.000833389
0.000833646
0.000833652
0.000833652
0.000833761
0.000834065
0.000834213
0.000834213
0.000834359
0.000834624
0.000834927
0.000835201
0.000835567
0.000835801
0.000836033
0.00083631
0.000836686
0.000837114
0.000837548
0.000838128
0.000838619
0.000839233
0.000839834
0.00084074
0.00084154
0.000842824
0.000843818
0.000845851
0.000847106
0.00085115
0.000851769
0.000869166
0.00400667
0.00271737
0.00101997
0.000956475
0.000922762
0.000902571
0.000888992
0.000879251
0.000871822
0.000866057
0.000861361
0.000857576
0.000854346
0.000851691
0.00084935
0.000847382
0.000845638
0.00084417
0.000842819
0.000841683
0.000840607
0.00083971
0.000838838
0.000838113
0.000837415
0.000836849
0.000836266
0.000835803
0.000835336
0.000834978
0.000834565
0.000834268
0.000833999
0.000833768
0.000833517
0.000833319
0.000833083
0.000832906
0.00083274
0.000832606
0.000832459
0.000832347
0.000832192
0.000832076
0.000831966
0.000831886
0.000831786
0.000831706
0.000831637
0.000831549
0.000831482
0.000831429
0.000831313
0.000831289
0.000831273
0.000831246
0.000831156
0.000831208
0.000831208
0.000831206
0.000831178
0.000831249
0.00083125
0.000831248
0.000831373
0.00083163
0.000831637
0.000831637
0.000831746
0.000832048
0.0008322
0.0008322
0.000832347
0.000832611
0.000832914
0.000833189
0.000833555
0.000833794
0.000834028
0.000834307
0.000834682
0.000835113
0.000835548
0.000836129
0.000836623
0.000837242
0.000837844
0.000838754
0.000839553
0.000840843
0.000841836
0.000843871
0.000845125
0.000849179
0.00084975
0.000867625
0.00413203
0.00282563
0.00101995
0.00095606
0.000922006
0.000901565
0.000887803
0.000877923
0.000870385
0.000864532
0.000859762
0.000855916
0.000852635
0.000849935
0.000847555
0.000845554
0.00084378
0.000842286
0.00084091
0.000839754
0.000838658
0.000837745
0.000836856
0.000836118
0.000835406
0.000834828
0.000834234
0.000833761
0.000833284
0.000832917
0.000832497
0.000832191
0.000831915
0.000831678
0.000831421
0.000831218
0.000830977
0.000830795
0.000830623
0.000830485
0.000830334
0.000830219
0.000830061
0.000829942
0.000829829
0.000829746
0.000829644
0.000829562
0.000829491
0.000829402
0.000829332
0.000829279
0.000829163
0.000829136
0.000829119
0.000829091
0.000828999
0.000829049
0.000829049
0.000829047
0.000829018
0.000829088
0.000829088
0.000829087
0.000829208
0.000829466
0.000829474
0.000829474
0.000829582
0.000829882
0.00083004
0.00083004
0.000830186
0.00083045
0.000830753
0.000831029
0.000831395
0.000831639
0.000831875
0.000832157
0.000832531
0.000832964
0.000833399
0.000833984
0.00083448
0.000835105
0.000835707
0.00083662
0.000837419
0.000838714
0.000839705
0.000841743
0.000842995
0.000847059
0.00084758
0.000865961
0.00426691
0.00294029
0.00101992
0.000955621
0.000921204
0.000900496
0.000886538
0.000876509
0.000868853
0.000862905
0.000858057
0.000854146
0.000850808
0.000848061
0.00084564
0.000843603
0.000841796
0.000840273
0.000838872
0.000837693
0.000836576
0.000835645
0.000834739
0.000833986
0.00083326
0.000832669
0.000832062
0.000831579
0.000831091
0.000830715
0.000830286
0.000829973
0.000829688
0.000829444
0.000829181
0.000828971
0.000828725
0.000828538
0.000828361
0.000828219
0.000828063
0.000827945
0.000827783
0.000827662
0.000827545
0.000827459
0.000827355
0.00082727
0.000827197
0.000827107
0.000827035
0.00082698
0.000826863
0.000826835
0.000826816
0.000826787
0.000826694
0.000826741
0.00082674
0.000826738
0.000826708
0.000826777
0.000826777
0.000826776
0.000826894
0.000827152
0.000827162
0.000827162
0.000827269
0.000827566
0.000827729
0.000827729
0.000827875
0.000828139
0.000828443
0.000828719
0.000829086
0.000829334
0.000829573
0.000829857
0.000830231
0.000830666
0.000831101
0.000831688
0.000832187
0.000832817
0.000833419
0.000834337
0.000835135
0.000836436
0.000837424
0.000839465
0.000840715
0.000844788
0.000845257
0.000864169
0.00441099
0.00306133
0.00101989
0.000955161
0.000920357
0.000899365
0.000885197
0.000875008
0.000867226
0.000861177
0.000856245
0.000852264
0.000848867
0.000846068
0.000843602
0.000841526
0.000839684
0.000838132
0.000836703
0.0008355
0.000834361
0.000833409
0.000832486
0.000831716
0.000830974
0.00083037
0.000829751
0.000829255
0.000828756
0.00082837
0.000827933
0.00082761
0.000827316
0.000827065
0.000826794
0.000826579
0.000826327
0.000826135
0.000825952
0.000825805
0.000825645
0.000825522
0.000825357
0.000825232
0.000825112
0.000825023
0.000824916
0.000824829
0.000824753
0.000824661
0.000824587
0.000824532
0.000824414
0.000824383
0.000824363
0.000824333
0.000824237
0.000824282
0.000824281
0.000824279
0.000824247
0.000824315
0.000824315
0.000824313
0.000824429
0.000824686
0.000824698
0.000824698
0.000824804
0.000825098
0.000825267
0.000825267
0.000825413
0.000825677
0.000825981
0.000826257
0.000826624
0.000826877
0.000827119
0.000827405
0.000827778
0.000828216
0.000828651
0.000829241
0.000829742
0.000830378
0.00083098
0.000831903
0.000832699
0.000834005
0.000834992
0.000837034
0.000838281
0.000842364
0.000842779
0.000862246
0.00456375
0.00318874
0.00101986
0.00095468
0.000919467
0.000898172
0.00088378
0.000873421
0.000865505
0.000859348
0.000854326
0.00085027
0.000846809
0.000843956
0.000841442
0.000839324
0.000837445
0.00083586
0.000834402
0.000833173
0.00083201
0.000831038
0.000830095
0.000829307
0.000828549
0.00082793
0.000827297
0.000826789
0.000826278
0.000825882
0.000825434
0.000825101
0.000824798
0.000824539
0.000824261
0.000824039
0.000823781
0.000823582
0.000823394
0.000823242
0.000823076
0.00082295
0.000822781
0.000822653
0.000822528
0.000822437
0.000822326
0.000822236
0.000822158
0.000822064
0.000821987
0.000821931
0.000821812
0.000821779
0.000821757
0.000821726
0.000821628
0.00082167
0.000821669
0.000821667
0.000821633
0.0008217
0.0008217
0.000821698
0.00082181
0.000822067
0.000822081
0.00082208
0.000822185
0.000822476
0.000822651
0.000822652
0.000822797
0.000823061
0.000823365
0.000823641
0.000824008
0.000824266
0.000824511
0.000824799
0.000825172
0.000825612
0.000826047
0.000826639
0.000827144
0.000827785
0.000828387
0.000829314
0.000830108
0.000831421
0.000832404
0.000834449
0.000835692
0.000839784
0.000840143
0.000860185
0.00472444
0.00332247
0.00101983
0.000954178
0.000918533
0.000896917
0.000882288
0.000871748
0.000863688
0.000857416
0.000852299
0.000848163
0.000844634
0.000841722
0.000839158
0.000836996
0.000835077
0.000833457
0.000831968
0.000830711
0.000829523
0.000828528
0.000827564
0.000826758
0.000825982
0.000825347
0.0008247
0.000824178
0.000823655
0.000823247
0.000822789
0.000822446
0.000822132
0.000821865
0.000821579
0.00082135
0.000821085
0.00082088
0.000820685
0.000820528
0.000820357
0.000820226
0.000820053
0.000819921
0.000819792
0.000819697
0.000819583
0.000819491
0.000819409
0.000819314
0.000819234
0.000819177
0.000819057
0.000819021
0.000818997
0.000818965
0.000818865
0.000818904
0.000818903
0.0008189
0.000818865
0.00081893
0.00081893
0.000818928
0.000819036
0.000819293
0.000819308
0.000819307
0.000819411
0.000819699
0.00081988
0.000819881
0.000820026
0.000820289
0.000820593
0.00082087
0.000821236
0.0008215
0.000821748
0.000822038
0.00082241
0.000822853
0.000823288
0.000823882
0.000824389
0.000825037
0.000825638
0.00082657
0.000827362
0.00082868
0.00082966
0.000831705
0.000832945
0.000837045
0.000837346
0.00085798
0.00489209
0.00346248
0.00101981
0.000953657
0.000917557
0.000895602
0.000880721
0.000869988
0.000861777
0.000855382
0.000850163
0.000845943
0.000842341
0.000839368
0.000836749
0.00083454
0.00083258
0.000830923
0.0008294
0.000828114
0.000826899
0.00082588
0.000824894
0.000824068
0.000823273
0.000822621
0.000821958
0.000821422
0.000820885
0.000820465
0.000819996
0.000819642
0.000819318
0.000819042
0.000818747
0.000818511
0.000818238
0.000818027
0.000817825
0.000817662
0.000817485
0.00081735
0.000817172
0.000817036
0.000816902
0.000816804
0.000816686
0.000816591
0.000816506
0.000816409
0.000816326
0.000816268
0.000816146
0.000816108
0.000816082
0.000816048
0.000815947
0.000815982
0.000815981
0.000815978
0.00081594
0.000816004
0.000816004
0.000816002
0.000816106
0.000816361
0.000816378
0.000816378
0.000816481
0.000816765
0.000816952
0.000816952
0.000817098
0.00081736
0.000817664
0.000817941
0.000818307
0.000818576
0.000818827
0.00081912
0.00081949
0.000819936
0.00082037
0.000820968
0.000821476
0.00082213
0.000822731
0.000823667
0.000824457
0.00082578
0.000826757
0.000828803
0.000830038
0.000834145
0.000834388
0.000855626
0.00506541
0.00360869
0.00101978
0.000953117
0.00091654
0.000894226
0.000879079
0.000868143
0.000859771
0.000853246
0.00084792
0.000843609
0.00083993
0.000836891
0.000834215
0.000831957
0.000829951
0.000828255
0.000826697
0.000825379
0.000824136
0.000823091
0.000822082
0.000821235
0.00082042
0.000819751
0.000819071
0.00081852
0.000817968
0.000817535
0.000817054
0.000816689
0.000816353
0.000816068
0.000815764
0.00081552
0.000815239
0.000815021
0.000814811
0.000814642
0.000814459
0.000814319
0.000814137
0.000813996
0.000813857
0.000813755
0.000813634
0.000813535
0.000813447
0.000813348
0.000813261
0.000813202
0.000813079
0.000813038
0.000813009
0.000812974
0.000812871
0.000812902
0.000812902
0.000812898
0.000812858
0.00081292
0.000812919
0.000812918
0.000813017
0.000813271
0.00081329
0.00081329
0.000813392
0.000813672
0.000813865
0.000813866
0.000814011
0.000814273
0.000814576
0.000814853
0.000815219
0.000815492
0.000815747
0.000816042
0.000816412
0.000816859
0.000817293
0.000817893
0.000818404
0.000819064
0.000819664
0.000820604
0.000821391
0.00082272
0.000823694
0.000825738
0.000826969
0.000831081
0.000831265
0.000853115
0.00524285
0.00376098
0.00101976
0.00095256
0.000915482
0.000892792
0.000877363
0.000866212
0.00085767
0.000851008
0.000845567
0.000841161
0.000837402
0.000834293
0.000831556
0.000829245
0.000827192
0.000825454
0.000823859
0.000822508
0.000821234
0.000820162
0.000819128
0.000818258
0.000817423
0.000816734
0.000816037
0.00081547
0.000814903
0.000814456
0.000813962
0.000813585
0.000813237
0.000812942
0.000812628
0.000812375
0.000812087
0.000811861
0.000811643
0.000811468
0.000811278
0.000811132
0.000810945
0.000810799
0.000810656
0.000810549
0.000810424
0.000810322
0.00081023
0.000810129
0.000810039
0.000809978
0.000809854
0.000809809
0.000809778
0.000809742
0.000809637
0.000809664
0.000809663
0.000809659
0.000809616
0.000809676
0.000809676
0.000809674
0.000809768
0.000810022
0.000810042
0.000810042
0.000810142
0.000810419
0.000810617
0.000810618
0.000810763
0.000811024
0.000811327
0.000811605
0.00081197
0.000812248
0.000812506
0.000812804
0.000813172
0.000813622
0.000814055
0.000814657
0.00081517
0.000815836
0.000816435
0.00081738
0.000818163
0.000819497
0.000820467
0.00082251
0.000823736
0.000827852
0.000827975
0.000850442
0.00542252
0.00391913
0.00101974
0.000951985
0.000914384
0.000891298
0.000875574
0.000864196
0.000855475
0.000848667
0.000843107
0.0008386
0.000834755
0.000831572
0.000828772
0.000826404
0.000824301
0.000822519
0.000820884
0.000819498
0.000818192
0.000817092
0.000816031
0.000815138
0.00081428
0.000813571
0.000812855
0.000812272
0.000811688
0.000811227
0.00081072
0.000810329
0.000809969
0.000809663
0.000809338
0.000809077
0.00080878
0.000808545
0.00080832
0.000808137
0.000807941
0.000807789
0.000807596
0.000807446
0.000807297
0.000807186
0.000807056
0.000806951
0.000806854
0.000806752
0.000806657
0.000806594
0.000806469
0.000806421
0.000806387
0.000806349
0.000806243
0.000806265
0.000806265