/*--------------------------------*- C++ -*----------------------------------*\
| =========                 |                                                 |
| \\      /  F ield         | OpenFOAM: The Open Source CFD Toolbox           |
|  \\    /   O peration     | Version:  v2012                                 |
|   \\  /    A nd           | Website:  www.openfoam.com                      |
|    \\/     M anipulation  |                                                 |
\*---------------------------------------------------------------------------*/
FoamFile
{
    version     2.0;
    format      ascii;
    class       volVectorField;
    location    "11.5";
    object      wallShearStress;
}
// * * * * * * * * * * * * * * * * * * * * * * * * * * * * * * * * * * * * * //

dimensions      [0 2 -2 0 0 0 0];


internalField   uniform (0 0 0);

boundaryField
{
    inlet
    {
        type            calculated;
        value           uniform (0 0 0);
    }
    outlet
    {
        type            calculated;
        value           uniform (0 0 0);
    }
    topWall
    {
        type            calculated;
        value           nonuniform List<vector> 
545
(
(2.80302e-08 -1.96909e-08 0)
(2.81138e-08 -5.53507e-08 0)
(2.80114e-08 -9.2291e-08 0)
(2.79217e-08 -1.28066e-07 0)
(2.78544e-08 -1.6226e-07 0)
(2.77796e-08 -1.95318e-07 0)
(2.76976e-08 -2.27527e-07 0)
(2.76077e-08 -2.58873e-07 0)
(2.75104e-08 -2.89285e-07 0)
(2.74063e-08 -3.18762e-07 0)
(2.72962e-08 -3.47341e-07 0)
(2.71805e-08 -3.75055e-07 0)
(2.70599e-08 -4.01926e-07 0)
(2.69349e-08 -4.27969e-07 0)
(2.6806e-08 -4.53205e-07 0)
(2.66737e-08 -4.77655e-07 0)
(2.65385e-08 -5.01341e-07 0)
(2.64007e-08 -5.24284e-07 0)
(2.62609e-08 -5.46505e-07 0)
(2.61193e-08 -5.68025e-07 0)
(2.59763e-08 -5.88862e-07 0)
(2.58322e-08 -6.09039e-07 0)
(2.56873e-08 -6.28573e-07 0)
(2.55418e-08 -6.47485e-07 0)
(2.53961e-08 -6.65794e-07 0)
(2.52503e-08 -6.83518e-07 0)
(2.51047e-08 -7.00675e-07 0)
(2.49594e-08 -7.17283e-07 0)
(2.48146e-08 -7.3336e-07 0)
(2.46706e-08 -7.48921e-07 0)
(2.45273e-08 -7.63984e-07 0)
(2.43849e-08 -7.78565e-07 0)
(2.42437e-08 -7.92679e-07 0)
(2.41036e-08 -8.06341e-07 0)
(2.39647e-08 -8.19566e-07 0)
(2.38272e-08 -8.32369e-07 0)
(2.36911e-08 -8.44762e-07 0)
(2.35565e-08 -8.5676e-07 0)
(2.34234e-08 -8.68375e-07 0)
(2.32919e-08 -8.7962e-07 0)
(2.3162e-08 -8.90507e-07 0)
(2.30337e-08 -9.01048e-07 0)
(2.29071e-08 -9.11255e-07 0)
(2.27822e-08 -9.21138e-07 0)
(2.2659e-08 -9.30708e-07 0)
(2.25375e-08 -9.39975e-07 0)
(2.24177e-08 -9.4895e-07 0)
(2.22997e-08 -9.57642e-07 0)
(2.21833e-08 -9.66061e-07 0)
(2.20687e-08 -9.74214e-07 0)
(2.19557e-08 -9.82112e-07 0)
(2.18444e-08 -9.89763e-07 0)
(2.17348e-08 -9.97174e-07 0)
(2.16268e-08 -1.00435e-06 0)
(2.15205e-08 -1.01131e-06 0)
(2.14157e-08 -1.01805e-06 0)
(2.13125e-08 -1.02458e-06 0)
(2.12108e-08 -1.0309e-06 0)
(2.11106e-08 -1.03704e-06 0)
(2.10119e-08 -1.04298e-06 0)
(2.09147e-08 -1.04873e-06 0)
(2.08188e-08 -1.05431e-06 0)
(2.07243e-08 -1.05972e-06 0)
(2.06312e-08 -1.06496e-06 0)
(2.05393e-08 -1.07004e-06 0)
(2.04487e-08 -1.07497e-06 0)
(2.03593e-08 -1.07974e-06 0)
(2.02711e-08 -1.08437e-06 0)
(2.01841e-08 -1.08886e-06 0)
(2.00976e-08 -1.09319e-06 0)
(2.00149e-08 -1.09744e-06 0)
(1.99207e-08 -1.1015e-06 0)
(1.98336e-08 -1.10538e-06 0)
(1.97683e-08 -1.10923e-06 0)
(1.97023e-08 -1.11297e-06 0)
(1.96364e-08 -1.11666e-06 0)
(1.95705e-08 -1.12036e-06 0)
(1.95048e-08 -1.12403e-06 0)
(1.94392e-08 -1.12767e-06 0)
(1.93737e-08 -1.13127e-06 0)
(1.93082e-08 -1.13485e-06 0)
(1.92429e-08 -1.1384e-06 0)
(1.91776e-08 -1.14192e-06 0)
(1.91124e-08 -1.14541e-06 0)
(1.90474e-08 -1.14888e-06 0)
(1.89824e-08 -1.15231e-06 0)
(1.89176e-08 -1.15572e-06 0)
(1.88528e-08 -1.15911e-06 0)
(1.87882e-08 -1.16246e-06 0)
(1.87237e-08 -1.16579e-06 0)
(1.86593e-08 -1.1691e-06 0)
(1.85948e-08 -1.17237e-06 0)
(1.85316e-08 -1.17564e-06 0)
(1.84633e-08 -1.17877e-06 0)
(1.8418e-08 -1.18217e-06 0)
(1.82704e-08 -1.18522e-06 0)
(1.8103e-08 -1.18775e-06 0)
(1.80498e-08 -1.19068e-06 0)
(1.80002e-08 -1.19328e-06 0)
(1.7952e-08 -1.19559e-06 0)
(1.79042e-08 -1.19811e-06 0)
(1.78565e-08 -1.20067e-06 0)
(1.78086e-08 -1.20322e-06 0)
(1.77605e-08 -1.20574e-06 0)
(1.77123e-08 -1.20826e-06 0)
(1.76638e-08 -1.21078e-06 0)
(1.76152e-08 -1.2133e-06 0)
(1.75664e-08 -1.21582e-06 0)
(1.75174e-08 -1.21834e-06 0)
(1.74682e-08 -1.22086e-06 0)
(1.74188e-08 -1.22338e-06 0)
(1.73692e-08 -1.22589e-06 0)
(1.73195e-08 -1.22841e-06 0)
(1.72696e-08 -1.23092e-06 0)
(1.72195e-08 -1.23343e-06 0)
(1.71692e-08 -1.23594e-06 0)
(1.71188e-08 -1.23845e-06 0)
(1.70681e-08 -1.24096e-06 0)
(1.70173e-08 -1.24347e-06 0)
(1.69663e-08 -1.24597e-06 0)
(1.69151e-08 -1.24847e-06 0)
(1.68638e-08 -1.25097e-06 0)
(1.68122e-08 -1.25347e-06 0)
(1.67605e-08 -1.25597e-06 0)
(1.67086e-08 -1.25847e-06 0)
(1.66565e-08 -1.26096e-06 0)
(1.66042e-08 -1.26345e-06 0)
(1.65517e-08 -1.26594e-06 0)
(1.64991e-08 -1.26843e-06 0)
(1.64462e-08 -1.27092e-06 0)
(1.63932e-08 -1.2734e-06 0)
(1.634e-08 -1.27588e-06 0)
(1.62867e-08 -1.27836e-06 0)
(1.62331e-08 -1.28084e-06 0)
(1.61794e-08 -1.28331e-06 0)
(1.61254e-08 -1.28578e-06 0)
(1.60713e-08 -1.28825e-06 0)
(1.6017e-08 -1.29072e-06 0)
(1.59626e-08 -1.29318e-06 0)
(1.59079e-08 -1.29565e-06 0)
(1.58531e-08 -1.29811e-06 0)
(1.5798e-08 -1.30056e-06 0)
(1.57428e-08 -1.30302e-06 0)
(1.56875e-08 -1.30547e-06 0)
(1.56319e-08 -1.30791e-06 0)
(1.55761e-08 -1.31036e-06 0)
(1.55202e-08 -1.3128e-06 0)
(1.54641e-08 -1.31524e-06 0)
(1.54078e-08 -1.31768e-06 0)
(1.53513e-08 -1.32011e-06 0)
(1.52946e-08 -1.32254e-06 0)
(1.52378e-08 -1.32496e-06 0)
(1.51808e-08 -1.32739e-06 0)
(1.51236e-08 -1.32981e-06 0)
(1.50662e-08 -1.33222e-06 0)
(1.50086e-08 -1.33463e-06 0)
(1.49509e-08 -1.33704e-06 0)
(1.4893e-08 -1.33945e-06 0)
(1.48349e-08 -1.34185e-06 0)
(1.47766e-08 -1.34425e-06 0)
(1.47181e-08 -1.34664e-06 0)
(1.46595e-08 -1.34903e-06 0)
(1.46007e-08 -1.35142e-06 0)
(1.45417e-08 -1.3538e-06 0)
(1.44825e-08 -1.35618e-06 0)
(1.44232e-08 -1.35855e-06 0)
(1.43636e-08 -1.36092e-06 0)
(1.43039e-08 -1.36329e-06 0)
(1.42441e-08 -1.36565e-06 0)
(1.4184e-08 -1.368e-06 0)
(1.41238e-08 -1.37035e-06 0)
(1.40634e-08 -1.3727e-06 0)
(1.40028e-08 -1.37505e-06 0)
(1.39421e-08 -1.37738e-06 0)
(1.38811e-08 -1.37972e-06 0)
(1.38201e-08 -1.38205e-06 0)
(1.37588e-08 -1.38437e-06 0)
(1.36973e-08 -1.38669e-06 0)
(1.36357e-08 -1.389e-06 0)
(1.3574e-08 -1.39131e-06 0)
(1.3512e-08 -1.39362e-06 0)
(1.34499e-08 -1.39592e-06 0)
(1.33876e-08 -1.39821e-06 0)
(1.33251e-08 -1.4005e-06 0)
(1.32625e-08 -1.40278e-06 0)
(1.31997e-08 -1.40506e-06 0)
(1.31367e-08 -1.40733e-06 0)
(1.30736e-08 -1.4096e-06 0)
(1.30103e-08 -1.41186e-06 0)
(1.29469e-08 -1.41411e-06 0)
(1.28832e-08 -1.41636e-06 0)
(1.28195e-08 -1.41861e-06 0)
(1.27555e-08 -1.42085e-06 0)
(1.26914e-08 -1.42308e-06 0)
(1.26271e-08 -1.4253e-06 0)
(1.25627e-08 -1.42752e-06 0)
(1.24981e-08 -1.42974e-06 0)
(1.24334e-08 -1.43194e-06 0)
(1.23684e-08 -1.43415e-06 0)
(1.23034e-08 -1.43634e-06 0)
(1.22381e-08 -1.43853e-06 0)
(1.21728e-08 -1.44071e-06 0)
(1.21072e-08 -1.44288e-06 0)
(1.20415e-08 -1.44505e-06 0)
(1.19757e-08 -1.44721e-06 0)
(1.19097e-08 -1.44937e-06 0)
(1.18436e-08 -1.45152e-06 0)
(1.17773e-08 -1.45366e-06 0)
(1.17108e-08 -1.45579e-06 0)
(1.16442e-08 -1.45792e-06 0)
(1.15775e-08 -1.46004e-06 0)
(1.15106e-08 -1.46215e-06 0)
(1.14436e-08 -1.46426e-06 0)
(1.13764e-08 -1.46635e-06 0)
(1.1309e-08 -1.46844e-06 0)
(1.12416e-08 -1.47053e-06 0)
(1.1174e-08 -1.4726e-06 0)
(1.11062e-08 -1.47467e-06 0)
(1.10383e-08 -1.47673e-06 0)
(1.09703e-08 -1.47878e-06 0)
(1.09021e-08 -1.48083e-06 0)
(1.08338e-08 -1.48286e-06 0)
(1.07654e-08 -1.48489e-06 0)
(1.06968e-08 -1.48691e-06 0)
(1.06281e-08 -1.48892e-06 0)
(1.05593e-08 -1.49092e-06 0)
(1.04903e-08 -1.49292e-06 0)
(1.04213e-08 -1.49491e-06 0)
(1.0352e-08 -1.49688e-06 0)
(1.02827e-08 -1.49885e-06 0)
(1.02132e-08 -1.50081e-06 0)
(1.01436e-08 -1.50277e-06 0)
(1.00739e-08 -1.50471e-06 0)
(1.00041e-08 -1.50664e-06 0)
(9.93412e-09 -1.50857e-06 0)
(9.86405e-09 -1.51048e-06 0)
(9.79385e-09 -1.51239e-06 0)
(9.72355e-09 -1.51429e-06 0)
(9.65313e-09 -1.51618e-06 0)
(9.58259e-09 -1.51806e-06 0)
(9.51195e-09 -1.51993e-06 0)
(9.44119e-09 -1.52179e-06 0)
(9.37033e-09 -1.52364e-06 0)
(9.29936e-09 -1.52548e-06 0)
(9.22829e-09 -1.52731e-06 0)
(9.15711e-09 -1.52913e-06 0)
(9.08583e-09 -1.53095e-06 0)
(9.01445e-09 -1.53275e-06 0)
(8.94297e-09 -1.53454e-06 0)
(8.8714e-09 -1.53632e-06 0)
(8.79973e-09 -1.53809e-06 0)
(8.72797e-09 -1.53985e-06 0)
(8.65611e-09 -1.54161e-06 0)
(8.58416e-09 -1.54335e-06 0)
(8.51213e-09 -1.54508e-06 0)
(8.44001e-09 -1.5468e-06 0)
(8.3678e-09 -1.5485e-06 0)
(8.29551e-09 -1.5502e-06 0)
(8.22314e-09 -1.55189e-06 0)
(8.15069e-09 -1.55357e-06 0)
(8.07816e-09 -1.55523e-06 0)
(8.00556e-09 -1.55689e-06 0)
(7.93287e-09 -1.55853e-06 0)
(7.86016e-09 -1.56016e-06 0)
(7.78718e-09 -1.56178e-06 0)
(7.71491e-09 -1.56341e-06 0)
(7.63973e-09 -1.56493e-06 0)
(7.57827e-09 -1.56674e-06 0)
(7.45613e-09 -1.56812e-06 0)
(7.31838e-09 -1.56929e-06 0)
(7.25194e-09 -1.5711e-06 0)
(7.19355e-09 -1.57251e-06 0)
(7.13516e-09 -1.5737e-06 0)
(7.07704e-09 -1.57505e-06 0)
(7.01834e-09 -1.57646e-06 0)
(6.95891e-09 -1.57786e-06 0)
(6.89872e-09 -1.57925e-06 0)
(6.83779e-09 -1.58063e-06 0)
(6.77612e-09 -1.58202e-06 0)
(6.7137e-09 -1.58341e-06 0)
(6.65055e-09 -1.58481e-06 0)
(6.58665e-09 -1.5862e-06 0)
(6.52201e-09 -1.5876e-06 0)
(6.45664e-09 -1.589e-06 0)
(6.39052e-09 -1.5904e-06 0)
(6.32366e-09 -1.5918e-06 0)
(6.25606e-09 -1.5932e-06 0)
(6.18772e-09 -1.5946e-06 0)
(6.11863e-09 -1.596e-06 0)
(6.04879e-09 -1.5974e-06 0)
(5.97821e-09 -1.5988e-06 0)
(5.90689e-09 -1.6002e-06 0)
(5.83482e-09 -1.60159e-06 0)
(5.762e-09 -1.60299e-06 0)
(5.68844e-09 -1.60438e-06 0)
(5.61412e-09 -1.60576e-06 0)
(5.53906e-09 -1.60715e-06 0)
(5.46325e-09 -1.60853e-06 0)
(5.3867e-09 -1.6099e-06 0)
(5.3094e-09 -1.61127e-06 0)
(5.23135e-09 -1.61264e-06 0)
(5.15256e-09 -1.614e-06 0)
(5.07302e-09 -1.61535e-06 0)
(4.99274e-09 -1.6167e-06 0)
(4.91172e-09 -1.61804e-06 0)
(4.82996e-09 -1.61937e-06 0)
(4.74747e-09 -1.62069e-06 0)
(4.66424e-09 -1.622e-06 0)
(4.58027e-09 -1.62331e-06 0)
(4.49558e-09 -1.6246e-06 0)
(4.41017e-09 -1.62589e-06 0)
(4.32403e-09 -1.62716e-06 0)
(4.23717e-09 -1.62842e-06 0)
(4.1496e-09 -1.62967e-06 0)
(4.06132e-09 -1.63091e-06 0)
(3.97233e-09 -1.63213e-06 0)
(3.88265e-09 -1.63334e-06 0)
(3.79227e-09 -1.63453e-06 0)
(3.7012e-09 -1.63571e-06 0)
(3.60945e-09 -1.63687e-06 0)
(3.51702e-09 -1.63801e-06 0)
(3.42393e-09 -1.63914e-06 0)
(3.33017e-09 -1.64025e-06 0)
(3.23576e-09 -1.64134e-06 0)
(3.1407e-09 -1.6424e-06 0)
(3.04501e-09 -1.64345e-06 0)
(2.94868e-09 -1.64448e-06 0)
(2.85174e-09 -1.64548e-06 0)
(2.75419e-09 -1.64646e-06 0)
(2.65604e-09 -1.64742e-06 0)
(2.55731e-09 -1.64835e-06 0)
(2.45799e-09 -1.64925e-06 0)
(2.35811e-09 -1.65013e-06 0)
(2.25768e-09 -1.65098e-06 0)
(2.15671e-09 -1.6518e-06 0)
(2.05522e-09 -1.65259e-06 0)
(1.95321e-09 -1.65336e-06 0)
(1.8507e-09 -1.65409e-06 0)
(1.74771e-09 -1.65479e-06 0)
(1.64425e-09 -1.65545e-06 0)
(1.54034e-09 -1.65608e-06 0)
(1.436e-09 -1.65668e-06 0)
(1.33124e-09 -1.65724e-06 0)
(1.22607e-09 -1.65776e-06 0)
(1.12053e-09 -1.65824e-06 0)
(1.01462e-09 -1.65869e-06 0)
(9.08372e-10 -1.65909e-06 0)
(8.018e-10 -1.65946e-06 0)
(6.94924e-10 -1.65977e-06 0)
(5.87769e-10 -1.66005e-06 0)
(4.80354e-10 -1.66028e-06 0)
(3.72705e-10 -1.66047e-06 0)
(2.64843e-10 -1.6606e-06 0)
(1.56792e-10 -1.6607e-06 0)
(4.85788e-11 -1.66073e-06 0)
(-5.97728e-11 -1.66073e-06 0)
(-1.68236e-10 -1.66066e-06 0)
(-2.76785e-10 -1.66055e-06 0)
(-3.85392e-10 -1.66038e-06 0)
(-4.94029e-10 -1.66016e-06 0)
(-6.02667e-10 -1.65988e-06 0)
(-7.11277e-10 -1.65954e-06 0)
(-8.19828e-10 -1.65914e-06 0)
(-9.28291e-10 -1.65869e-06 0)
(-1.03663e-09 -1.65817e-06 0)
(-1.14482e-09 -1.65759e-06 0)
(-1.25283e-09 -1.65694e-06 0)
(-1.36062e-09 -1.65624e-06 0)
(-1.46815e-09 -1.65546e-06 0)
(-1.5754e-09 -1.65462e-06 0)
(-1.68233e-09 -1.65371e-06 0)
(-1.7889e-09 -1.65273e-06 0)
(-1.89508e-09 -1.65168e-06 0)
(-2.00083e-09 -1.65056e-06 0)
(-2.10611e-09 -1.64936e-06 0)
(-2.21089e-09 -1.64809e-06 0)
(-2.31512e-09 -1.64674e-06 0)
(-2.41878e-09 -1.64532e-06 0)
(-2.52181e-09 -1.64382e-06 0)
(-2.62418e-09 -1.64224e-06 0)
(-2.72585e-09 -1.64058e-06 0)
(-2.82678e-09 -1.63884e-06 0)
(-2.92693e-09 -1.63702e-06 0)
(-3.02626e-09 -1.63512e-06 0)
(-3.12472e-09 -1.63312e-06 0)
(-3.22229e-09 -1.63105e-06 0)
(-3.3189e-09 -1.62889e-06 0)
(-3.41453e-09 -1.62664e-06 0)
(-3.50913e-09 -1.6243e-06 0)
(-3.60266e-09 -1.62187e-06 0)
(-3.69507e-09 -1.61936e-06 0)
(-3.78634e-09 -1.61675e-06 0)
(-3.87641e-09 -1.61405e-06 0)
(-3.96525e-09 -1.61126e-06 0)
(-4.0528e-09 -1.60837e-06 0)
(-4.13904e-09 -1.60539e-06 0)
(-4.22392e-09 -1.60231e-06 0)
(-4.3074e-09 -1.59914e-06 0)
(-4.38943e-09 -1.59587e-06 0)
(-4.46999e-09 -1.59251e-06 0)
(-4.54902e-09 -1.58904e-06 0)
(-4.62649e-09 -1.58549e-06 0)
(-4.70235e-09 -1.58182e-06 0)
(-4.77659e-09 -1.57807e-06 0)
(-4.84912e-09 -1.57421e-06 0)
(-4.91995e-09 -1.57025e-06 0)
(-4.98901e-09 -1.56619e-06 0)
(-5.05628e-09 -1.56204e-06 0)
(-5.1217e-09 -1.55778e-06 0)
(-5.18526e-09 -1.55342e-06 0)
(-5.2469e-09 -1.54896e-06 0)
(-5.3066e-09 -1.5444e-06 0)
(-5.36429e-09 -1.53974e-06 0)
(-5.41999e-09 -1.53498e-06 0)
(-5.47361e-09 -1.53011e-06 0)
(-5.52515e-09 -1.52515e-06 0)
(-5.57456e-09 -1.52009e-06 0)
(-5.62182e-09 -1.51493e-06 0)
(-5.66688e-09 -1.50967e-06 0)
(-5.70975e-09 -1.50431e-06 0)
(-5.75035e-09 -1.49885e-06 0)
(-5.7887e-09 -1.4933e-06 0)
(-5.82474e-09 -1.48764e-06 0)
(-5.8585e-09 -1.4819e-06 0)
(-5.8899e-09 -1.47606e-06 0)
(-5.91897e-09 -1.47012e-06 0)
(-5.94567e-09 -1.46409e-06 0)
(-5.97003e-09 -1.45798e-06 0)
(-5.992e-09 -1.45177e-06 0)
(-6.01162e-09 -1.44547e-06 0)
(-6.02883e-09 -1.43908e-06 0)
(-6.04371e-09 -1.43261e-06 0)
(-6.05619e-09 -1.42605e-06 0)
(-6.06635e-09 -1.41941e-06 0)
(-6.07413e-09 -1.41269e-06 0)
(-6.0796e-09 -1.40589e-06 0)
(-6.08272e-09 -1.399e-06 0)
(-6.08357e-09 -1.39205e-06 0)
(-6.08209e-09 -1.38501e-06 0)
(-6.07837e-09 -1.37791e-06 0)
(-6.07235e-09 -1.37072e-06 0)
(-6.06411e-09 -1.36348e-06 0)
(-6.0536e-09 -1.35616e-06 0)
(-6.04087e-09 -1.34878e-06 0)
(-6.02587e-09 -1.34133e-06 0)
(-6.00861e-09 -1.33384e-06 0)
(-5.98915e-09 -1.32625e-06 0)
(-5.96666e-09 -1.31871e-06 0)
(-5.94542e-09 -1.31077e-06 0)
(-5.91556e-09 -1.30327e-06 0)
(-5.86512e-09 -1.29496e-06 0)
(-5.81662e-09 -1.28506e-06 0)
(-5.77779e-09 -1.27566e-06 0)
(-5.73747e-09 -1.26651e-06 0)
(-5.69528e-09 -1.25727e-06 0)
(-5.65133e-09 -1.24806e-06 0)
(-5.60562e-09 -1.23892e-06 0)
(-5.55828e-09 -1.22989e-06 0)
(-5.50929e-09 -1.22094e-06 0)
(-5.45886e-09 -1.21207e-06 0)
(-5.40697e-09 -1.20326e-06 0)
(-5.35383e-09 -1.19456e-06 0)
(-5.29943e-09 -1.18593e-06 0)
(-5.24396e-09 -1.1774e-06 0)
(-5.18744e-09 -1.16895e-06 0)
(-5.13002e-09 -1.16061e-06 0)
(-5.07172e-09 -1.15234e-06 0)
(-5.01269e-09 -1.14419e-06 0)
(-4.95293e-09 -1.13612e-06 0)
(-4.89258e-09 -1.12815e-06 0)
(-4.83164e-09 -1.12028e-06 0)
(-4.77022e-09 -1.11251e-06 0)
(-4.70832e-09 -1.10483e-06 0)
(-4.64605e-09 -1.09726e-06 0)
(-4.58339e-09 -1.08979e-06 0)
(-4.52044e-09 -1.08243e-06 0)
(-4.45717e-09 -1.07515e-06 0)
(-4.3937e-09 -1.068e-06 0)
(-4.32996e-09 -1.06093e-06 0)
(-4.26608e-09 -1.05398e-06 0)
(-4.20199e-09 -1.04712e-06 0)
(-4.1378e-09 -1.04037e-06 0)
(-4.07346e-09 -1.03372e-06 0)
(-4.00906e-09 -1.02719e-06 0)
(-3.94455e-09 -1.02074e-06 0)
(-3.88001e-09 -1.01442e-06 0)
(-3.8154e-09 -1.00818e-06 0)
(-3.75079e-09 -1.00206e-06 0)
(-3.68615e-09 -9.96042e-07 0)
(-3.62153e-09 -9.90133e-07 0)
(-3.55691e-09 -9.84319e-07 0)
(-3.49234e-09 -9.78619e-07 0)
(-3.42778e-09 -9.73015e-07 0)
(-3.36329e-09 -9.67524e-07 0)
(-3.29884e-09 -9.62129e-07 0)
(-3.23447e-09 -9.56846e-07 0)
(-3.17015e-09 -9.5166e-07 0)
(-3.10592e-09 -9.46585e-07 0)
(-3.04175e-09 -9.41607e-07 0)
(-2.97768e-09 -9.3674e-07 0)
(-2.91367e-09 -9.31969e-07 0)
(-2.84977e-09 -9.2731e-07 0)
(-2.78592e-09 -9.22746e-07 0)
(-2.72217e-09 -9.18292e-07 0)
(-2.65848e-09 -9.13935e-07 0)
(-2.59489e-09 -9.09688e-07 0)
(-2.53134e-09 -9.05536e-07 0)
(-2.46787e-09 -9.01494e-07 0)
(-2.40445e-09 -8.97548e-07 0)
(-2.3411e-09 -8.93711e-07 0)
(-2.27778e-09 -8.8997e-07 0)
(-2.21452e-09 -8.86337e-07 0)
(-2.15128e-09 -8.82801e-07 0)
(-2.08809e-09 -8.79372e-07 0)
(-2.0249e-09 -8.7604e-07 0)
(-1.96175e-09 -8.72816e-07 0)
(-1.89859e-09 -8.69689e-07 0)
(-1.83545e-09 -8.66668e-07 0)
(-1.7723e-09 -8.63745e-07 0)
(-1.70916e-09 -8.60929e-07 0)
(-1.646e-09 -8.58211e-07 0)
(-1.58283e-09 -8.55599e-07 0)
(-1.51963e-09 -8.53085e-07 0)
(-1.45642e-09 -8.50677e-07 0)
(-1.39317e-09 -8.48368e-07 0)
(-1.3299e-09 -8.46164e-07 0)
(-1.26658e-09 -8.4406e-07 0)
(-1.20323e-09 -8.42062e-07 0)
(-1.13982e-09 -8.40163e-07 0)
(-1.07637e-09 -8.3837e-07 0)
(-1.01285e-09 -8.36676e-07 0)
(-9.49277e-10 -8.35089e-07 0)
(-8.85616e-10 -8.33601e-07 0)
(-8.21852e-10 -8.32219e-07 0)
(-7.5794e-10 -8.30936e-07 0)
(-6.93818e-10 -8.29764e-07 0)
(-6.29376e-10 -8.28672e-07 0)
(-5.64495e-10 -8.2776e-07 0)
(-4.98925e-10 -8.26703e-07 0)
(-4.32854e-10 -8.26569e-07 0)
(-3.65186e-10 -8.23777e-07 0)
(-3.00564e-10 -8.29921e-07 0)
(-2.2186e-10 -8.0468e-07 0)
(-2.05276e-10 -8.70418e-07 0)
(-1.18687e-10 -7.59936e-07 0)
)
;
    }
    bottomWall
    {
        type            calculated;
        value           nonuniform List<vector> 
449
(
(-53.1248 -0.960479 0)
(-35.063 -0.00282127 0)
(-34.614 -0.000271776 0)
(-33.1927 -0.000373541 0)
(-32.0605 -0.000308404 0)
(-31.0821 -0.000270016 0)
(-30.2045 -0.000245712 0)
(-29.3848 -0.000228878 0)
(-28.6186 -0.000212114 0)
(-27.9124 -0.000194325 0)
(-27.2678 -0.000176619 0)
(-26.683 -0.00015992 0)
(-26.1529 -0.000144936 0)
(-25.6708 -0.000131952 0)
(-25.2296 -0.000120209 0)
(-24.8281 -0.000109811 0)
(-24.4583 -0.000100889 0)
(-24.1179 -9.27274e-05 0)
(-23.8042 -8.56852e-05 0)
(-23.5123 -7.95229e-05 0)
(-23.2409 -7.39405e-05 0)
(-22.9873 -6.90511e-05 0)
(-22.7496 -6.4477e-05 0)
(-22.5276 -6.03111e-05 0)
(-22.3186 -5.68842e-05 0)
(-22.1201 -5.36742e-05 0)
(-21.9332 -5.06008e-05 0)
(-21.756 -4.78268e-05 0)
(-21.5883 -4.50949e-05 0)
(-21.4301 -4.26568e-05 0)
(-21.2793 -4.0735e-05 0)
(-21.1343 -3.88496e-05 0)
(-20.9966 -3.69759e-05 0)
(-20.8647 -3.51853e-05 0)
(-20.7394 -3.34442e-05 0)
(-20.6196 -3.2044e-05 0)
(-20.5041 -3.07613e-05 0)
(-20.3932 -2.9453e-05 0)
(-20.2868 -2.83322e-05 0)
(-20.1836 -2.73018e-05 0)
(-20.0843 -2.63141e-05 0)
(-19.9881 -2.5268e-05 0)
(-19.8962 -2.42535e-05 0)
(-19.8071 -2.34011e-05 0)
(-19.7212 -2.25367e-05 0)
(-19.6382 -2.16753e-05 0)
(-19.5583 -2.09136e-05 0)
(-19.4807 -2.01805e-05 0)
(-19.4059 -1.95245e-05 0)
(-19.3329 -1.90179e-05 0)
(-19.2617 -1.84573e-05 0)
(-19.1926 -1.77826e-05 0)
(-19.1262 -1.72092e-05 0)
(-19.0611 -1.68645e-05 0)
(-18.997 -1.63624e-05 0)
(-18.9356 -1.58526e-05 0)
(-18.8751 -1.53491e-05 0)
(-18.8172 -1.49527e-05 0)
(-18.7596 -1.45754e-05 0)
(-18.7044 -1.41101e-05 0)
(-18.65 -1.37295e-05 0)
(-18.5975 -1.32953e-05 0)
(-18.5464 -1.29814e-05 0)
(-18.4961 -1.2807e-05 0)
(-18.446 -1.25487e-05 0)
(-18.3975 -1.21966e-05 0)
(-18.35 -1.18963e-05 0)
(-18.3036 -1.16788e-05 0)
(-18.2576 -1.13434e-05 0)
(-18.2137 -1.09392e-05 0)
(-18.1707 -1.07089e-05 0)
(-18.1284 -1.05578e-05 0)
(-18.0864 -1.03324e-05 0)
(-18.0458 -9.97198e-06 0)
(-18.0065 -9.71788e-06 0)
(-17.9677 -9.44498e-06 0)
(-17.9305 -9.13255e-06 0)
(-17.8941 -8.92618e-06 0)
(-17.8583 -8.81441e-06 0)
(-17.8225 -8.73378e-06 0)
(-17.7873 -8.55715e-06 0)
(-17.7528 -8.30334e-06 0)
(-17.7195 -8.02719e-06 0)
(-17.6872 -7.84312e-06 0)
(-17.6552 -7.73757e-06 0)
(-17.6235 -7.74014e-06 0)
(-17.5913 -7.72197e-06 0)
(-17.5597 -7.44449e-06 0)
(-17.5297 -7.16111e-06 0)
(-17.5003 -7.01335e-06 0)
(-17.4713 -6.85524e-06 0)
(-17.4431 -6.75217e-06 0)
(-17.4149 -6.64278e-06 0)
(-17.3874 -6.49947e-06 0)
(-17.3602 -6.48239e-06 0)
(-17.3328 -6.43111e-06 0)
(-17.3059 -6.23613e-06 0)
(-17.2801 -6.054e-06 0)
(-17.2546 -5.92897e-06 0)
(-17.2297 -5.82126e-06 0)
(-17.2051 -5.71826e-06 0)
(-17.1809 -5.54753e-06 0)
(-17.1576 -5.46437e-06 0)
(-17.134 -5.47321e-06 0)
(-17.1106 -5.45165e-06 0)
(-17.087 -5.39799e-06 0)
(-17.0639 -5.39761e-06 0)
(-17.0403 -5.22773e-06 0)
(-17.0186 -5.02145e-06 0)
(-16.9966 -4.88429e-06 0)
(-16.976 -4.72025e-06 0)
(-16.9554 -4.70677e-06 0)
(-16.9347 -4.62991e-06 0)
(-16.9147 -4.59998e-06 0)
(-16.8941 -4.67591e-06 0)
(-16.8733 -4.67526e-06 0)
(-16.8527 -4.56184e-06 0)
(-16.8328 -4.43876e-06 0)
(-16.8132 -4.43629e-06 0)
(-16.7932 -4.40119e-06 0)
(-16.7739 -4.18521e-06 0)
(-16.7558 -4.03609e-06 0)
(-16.7378 -3.9351e-06 0)
(-16.7205 -3.82195e-06 0)
(-16.7033 -3.79422e-06 0)
(-16.6861 -3.85996e-06 0)
(-16.6683 -3.87677e-06 0)
(-16.6509 -3.89346e-06 0)
(-16.6328 -3.93243e-06 0)
(-16.6149 -3.84569e-06 0)
(-16.5976 -3.64916e-06 0)
(-16.5816 -3.4223e-06 0)
(-16.5663 -3.3233e-06 0)
(-16.551 -3.28661e-06 0)
(-16.536 -3.16401e-06 0)
(-16.5218 -3.11456e-06 0)
(-16.5071 -3.16103e-06 0)
(-16.4924 -3.16406e-06 0)
(-16.4775 -3.21521e-06 0)
(-16.4622 -3.2235e-06 0)
(-16.4472 -3.32157e-06 0)
(-16.4309 -3.39884e-06 0)
(-16.4151 -3.37709e-06 0)
(-16.3989 -3.37876e-06 0)
(-16.3831 -3.27269e-06 0)
(-16.3679 -3.13464e-06 0)
(-16.3534 -2.98712e-06 0)
(-16.3396 -2.93463e-06 0)
(-16.3255 -2.859e-06 0)
(-16.3123 -2.73606e-06 0)
(-16.2993 -2.62439e-06 0)
(-16.2871 -2.62276e-06 0)
(-16.274 -2.62575e-06 0)
(-16.2617 -2.60668e-06 0)
(-16.2487 -2.76625e-06 0)
(-16.2347 -2.80294e-06 0)
(-16.2213 -2.76588e-06 0)
(-16.2077 -2.7658e-06 0)
(-16.1942 -2.78098e-06 0)
(-16.1804 -2.66751e-06 0)
(-16.1681 -2.50308e-06 0)
(-16.1558 -2.44005e-06 0)
(-16.144 -2.30889e-06 0)
(-16.133 -2.34005e-06 0)
(-16.1207 -2.53315e-06 0)
(-16.1077 -2.58541e-06 0)
(-16.0949 -2.5045e-06 0)
(-16.0827 -2.52049e-06 0)
(-16.0697 -2.5497e-06 0)
(-16.0571 -2.49535e-06 0)
(-16.0446 -2.45652e-06 0)
(-16.0324 -2.36621e-06 0)
(-16.0207 -2.3252e-06 0)
(-16.0095 -2.35321e-06 0)
(-15.9988 -2.27755e-06 0)
(-15.9888 -2.27765e-06 0)
(-15.9778 -2.19095e-06 0)
(-15.9684 -2.10437e-06 0)
(-15.958 -2.23751e-06 0)
(-15.9471 -2.15181e-06 0)
(-15.9374 -2.02203e-06 0)
(-15.9276 -2.09818e-06 0)
(-15.9169 -2.11163e-06 0)
(-15.9067 -2.04928e-06 0)
(-15.8963 -2.07176e-06 0)
(-15.8856 -2.15125e-06 0)
(-15.8742 -2.12639e-06 0)
(-15.8635 -1.98392e-06 0)
(-15.8534 -1.8563e-06 0)
(-15.8439 -1.76508e-06 0)
(-15.8346 -1.80801e-06 0)
(-15.8244 -1.83164e-06 0)
(-15.8146 -1.72715e-06 0)
(-15.8053 -1.82767e-06 0)
(-15.7941 -1.95083e-06 0)
(-15.7832 -1.91959e-06 0)
(-15.7722 -1.91693e-06 0)
(-15.761 -1.95824e-06 0)
(-15.7493 -1.89045e-06 0)
(-15.7388 -1.7491e-06 0)
(-15.7285 -1.71542e-06 0)
(-15.7182 -1.65007e-06 0)
(-15.7085 -1.55443e-06 0)
(-15.6992 -1.52765e-06 0)
(-15.6895 -1.56693e-06 0)
(-15.6794 -1.51476e-06 0)
(-15.6702 -1.48348e-06 0)
(-15.6602 -1.51514e-06 0)
(-15.6504 -1.48975e-06 0)
(-15.6406 -1.46517e-06 0)
(-15.6309 -1.47634e-06 0)
(-15.6208 -1.52769e-06 0)
(-15.6102 -1.58833e-06 0)
(-15.599 -1.51618e-06 0)
(-15.5892 -1.45464e-06 0)
(-15.5786 -1.50216e-06 0)
(-15.5679 -1.51521e-06 0)
(-15.5568 -1.56243e-06 0)
(-15.5452 -1.49866e-06 0)
(-15.5349 -1.38794e-06 0)
(-15.5247 -1.37874e-06 0)
(-15.5143 -1.31536e-06 0)
(-15.5047 -1.32847e-06 0)
(-15.4939 -1.2927e-06 0)
(-15.4848 -1.27213e-06 0)
(-15.474 -1.30714e-06 0)
(-15.4642 -1.19862e-06 0)
(-15.4549 -1.22716e-06 0)
(-15.4443 -1.27065e-06 0)
(-15.4342 -1.18321e-06 0)
(-15.4249 -1.20121e-06 0)
(-15.4142 -1.1669e-06 0)
(-15.4053 -1.17242e-06 0)
(-15.3942 -1.22876e-06 0)
(-15.3841 -1.08213e-06 0)
(-15.3754 -9.49091e-07 0)
(-15.3675 -9.42062e-07 0)
(-15.3587 -1.06739e-06 0)
(-15.3482 -1.15497e-06 0)
(-15.3377 -1.1392e-06 0)
(-15.3273 -1.13424e-06 0)
(-15.3166 -1.09538e-06 0)
(-15.3068 -9.81802e-07 0)
(-15.2982 -9.17188e-07 0)
(-15.2894 -9.56174e-07 0)
(-15.2797 -9.29513e-07 0)
(-15.2712 -9.18921e-07 0)
(-15.2614 -9.88478e-07 0)
(-15.2513 -9.61168e-07 0)
(-15.242 -9.25222e-07 0)
(-15.2324 -8.81573e-07 0)
(-15.2239 -8.175e-07 0)
(-15.2155 -8.31599e-07 0)
(-15.2064 -8.4725e-07 0)
(-15.1974 -8.19925e-07 0)
(-15.1887 -7.64769e-07 0)
(-15.1807 -8.0106e-07 0)
(-15.171 -8.32602e-07 0)
(-15.1622 -7.36132e-07 0)
(-15.1545 -7.20947e-07 0)
(-15.1458 -7.67894e-07 0)
(-15.1368 -7.68353e-07 0)
(-15.1279 -7.2405e-07 0)
(-15.1198 -6.91296e-07 0)
(-15.1115 -6.99562e-07 0)
(-15.103 -6.87671e-07 0)
(-15.0948 -7.52516e-07 0)
(-15.0845 -7.84867e-07 0)
(-15.0753 -6.71816e-07 0)
(-15.0677 -5.93493e-07 0)
(-15.0603 -6.0812e-07 0)
(-15.0521 -6.74669e-07 0)
(-15.0428 -7.05118e-07 0)
(-15.0337 -6.38117e-07 0)
(-15.0261 -5.69827e-07 0)
(-15.0185 -6.00558e-07 0)
(-15.0098 -5.79745e-07 0)
(-15.0027 -5.51622e-07 0)
(-14.9946 -5.86085e-07 0)
(-14.9864 -6.07427e-07 0)
(-14.9775 -5.82976e-07 0)
(-14.9698 -5.13725e-07 0)
(-14.9628 -4.95904e-07 0)
(-14.9553 -5.3046e-07 0)
(-14.9471 -5.20986e-07 0)
(-14.9398 -4.43983e-07 0)
(-14.9338 -3.95373e-07 0)
(-14.9278 -4.72789e-07 0)
(-14.9191 -5.19624e-07 0)
(-14.9116 -4.83991e-07 0)
(-14.904 -4.31675e-07 0)
(-14.8979 -4.24104e-07 0)
(-14.8903 -4.57646e-07 0)
(-14.8831 -4.10355e-07 0)
(-14.8769 -3.79987e-07 0)
(-14.8705 -4.41368e-07 0)
(-14.862 -4.6136e-07 0)
(-14.8548 -4.57802e-07 0)
(-14.8463 -4.9025e-07 0)
(-14.8378 -4.66344e-07 0)
(-14.83 -4.79456e-07 0)
(-14.8209 -4.43425e-07 0)
(-14.8142 -3.39105e-07 0)
(-14.8087 -2.81531e-07 0)
(-14.804 -2.83799e-07 0)
(-14.7982 -3.67745e-07 0)
(-14.7902 -3.96105e-07 0)
(-14.7832 -3.65111e-07 0)
(-14.7762 -3.56857e-07 0)
(-14.7694 -3.43478e-07 0)
(-14.7628 -3.90655e-07 0)
(-14.7539 -4.00067e-07 0)
(-14.7469 -3.23568e-07 0)
(-14.741 -2.77406e-07 0)
(-14.7356 -2.8907e-07 0)
(-14.7291 -2.98079e-07 0)
(-14.7232 -2.76057e-07 0)
(-14.7174 -2.90056e-07 0)
(-14.7108 -3.24264e-07 0)
(-14.7034 -3.48906e-07 0)
(-14.6956 -3.09101e-07 0)
(-14.6899 -2.42265e-07 0)
(-14.6849 -2.52208e-07 0)
(-14.6785 -3.14937e-07 0)
(-14.6705 -3.46706e-07 0)
(-14.6626 -3.14739e-07 0)
(-14.656 -2.6705e-07 0)
(-14.6502 -2.67034e-07 0)
(-14.6434 -2.87867e-07 0)
(-14.6364 -2.53869e-07 0)
(-14.6312 -2.03609e-07 0)
(-14.6265 -2.3797e-07 0)
(-14.6193 -2.7622e-07 0)
(-14.6126 -2.2502e-07 0)
(-14.608 -1.69818e-07 0)
(-14.604 -2.04748e-07 0)
(-14.5973 -2.55164e-07 0)
(-14.5906 -2.35643e-07 0)
(-14.5849 -2.27957e-07 0)
(-14.5784 -2.30702e-07 0)
(-14.5725 -1.88078e-07 0)
(-14.5683 -1.68329e-07 0)
(-14.5632 -1.8614e-07 0)
(-14.5579 -1.7719e-07 0)
(-14.5533 -1.91782e-07 0)
(-14.5469 -2.16997e-07 0)
(-14.5408 -1.86475e-07 0)
(-14.5361 -1.83678e-07 0)
(-14.53 -2.02913e-07 0)
(-14.5241 -1.78919e-07 0)
(-14.5193 -1.79984e-07 0)
(-14.5131 -1.91806e-07 0)
(-14.5075 -1.62536e-07 0)
(-14.5031 -1.53318e-07 0)
(-14.4973 -1.50015e-07 0)
(-14.4921 -1.46453e-07 0)
(-14.4859 -1.62073e-07 0)
(-14.4794 -1.74111e-07 0)
(-14.4724 -1.83088e-07 0)
(-14.4652 -1.82868e-07 0)
(-14.4581 -1.83769e-07 0)
(-14.4508 -2.01926e-07 0)
(-14.4423 -1.96312e-07 0)
(-14.4355 -1.49245e-07 0)
(-14.4307 -1.42015e-07 0)
(-14.4244 -1.58185e-07 0)
(-14.4184 -1.50253e-07 0)
(-14.4127 -1.47624e-07 0)
(-14.407 -1.37297e-07 0)
(-14.4022 -1.19294e-07 0)
(-14.3977 -1.32215e-07 0)
(-14.3918 -1.37677e-07 0)
(-14.387 -1.16637e-07 0)
(-14.3828 -1.30687e-07 0)
(-14.3769 -1.30823e-07 0)
(-14.3727 -9.4889e-08 0)
(-14.3696 -8.4871e-08 0)
(-14.3662 -1.10143e-07 0)
(-14.361 -1.36587e-07 0)
(-14.3555 -1.47936e-07 0)
(-14.3496 -1.2875e-07 0)
(-14.3456 -9.39907e-08 0)
(-14.3423 -9.99493e-08 0)
(-14.3379 -1.00297e-07 0)
(-14.3345 -7.39108e-08 0)
(-14.3321 -8.51798e-08 0)
(-14.3279 -1.02431e-07 0)
(-14.3241 -9.27058e-08 0)
(-14.3207 -1.03296e-07 0)
(-14.3161 -9.93523e-08 0)
(-14.313 -8.55517e-08 0)
(-14.3095 -7.69416e-08 0)
(-14.3071 -8.2677e-08 0)
(-14.3031 -9.5239e-08 0)
(-14.2997 -9.31758e-08 0)
(-14.2959 -1.11393e-07 0)
(-14.291 -1.14066e-07 0)
(-14.287 -1.08545e-07 0)
(-14.2826 -1.16837e-07 0)
(-14.278 -9.50342e-08 0)
(-14.2753 -7.40399e-08 0)
(-14.2723 -7.13986e-08 0)
(-14.2698 -6.37241e-08 0)
(-14.2674 -8.41825e-08 0)
(-14.2633 -9.67628e-08 0)
(-14.2599 -7.84296e-08 0)
(-14.2572 -7.75e-08 0)
(-14.2538 -1.00039e-07 0)
(-14.2494 -9.38895e-08 0)
(-14.2466 -7.38175e-08 0)
(-14.2437 -6.73007e-08 0)
(-14.2414 -6.30869e-08 0)
(-14.2388 -6.56361e-08 0)
(-14.2363 -8.31921e-08 0)
(-14.2324 -8.50622e-08 0)
(-14.2297 -6.90222e-08 0)
(-14.227 -7.07493e-08 0)
(-14.2243 -6.35117e-08 0)
(-14.2222 -4.55783e-08 0)
(-14.2208 -3.94906e-08 0)
(-14.2192 -5.43696e-08 0)
(-14.2166 -7.26964e-08 0)
(-14.2135 -6.52397e-08 0)
(-14.2116 -5.69906e-08 0)
(-14.2092 -5.85339e-08 0)
(-14.2071 -5.05852e-08 0)
(-14.2052 -6.81784e-08 0)
(-14.2017 -7.64129e-08 0)
(-14.1993 -6.26511e-08 0)
(-14.1969 -6.89541e-08 0)
(-14.194 -6.57529e-08 0)
(-14.1919 -4.76927e-08 0)
(-14.1903 -5.21147e-08 0)
(-14.1878 -7.70712e-08 0)
(-14.1843 -7.34413e-08 0)
(-14.1821 -5.86647e-08 0)
(-14.1798 -6.01934e-08 0)
(-14.1775 -5.00743e-08 0)
(-14.176 -4.57513e-08 0)
(-14.1739 -6.22252e-08 0)
(-14.1711 -6.01041e-08 0)
(-14.1693 -4.75127e-08 0)
(-14.1675 -5.28485e-08 0)
(-14.1652 -6.5151e-08 0)
(-14.1624 -5.15357e-08 0)
(-14.1613 -5.01044e-08 0)
(-14.1586 -4.43673e-08 0)
(-14.1579 -5.43362e-08 0)
(-14.1543 -4.70697e-08 0)
)
;
    }
    symmetry
    {
        type            symmetryPlane;
    }
    frontAndBack
    {
        type            empty;
    }
}


// ************************************************************************* //
