/*--------------------------------*- C++ -*----------------------------------*\
| =========                 |                                                 |
| \\      /  F ield         | OpenFOAM: The Open Source CFD Toolbox           |
|  \\    /   O peration     | Version:  v2012                                 |
|   \\  /    A nd           | Website:  www.openfoam.com                      |
|    \\/     M anipulation  |                                                 |
\*---------------------------------------------------------------------------*/
FoamFile
{
    version     2.0;
    format      ascii;
    class       volScalarField;
    location    "37";
    object      k;
}
// * * * * * * * * * * * * * * * * * * * * * * * * * * * * * * * * * * * * * //

dimensions      [0 2 -2 0 0 0 0];


internalField   nonuniform List<scalar> 
209825
(
0.00102473
0.000931622
0.000853125
0.000788684
0.000736706
0.000695097
0.000661447
0.00063405
0.000611309
0.000592332
0.000576168
0.000562399
0.000550411
0.000540048
0.000530852
0.000522816
0.000515574
0.000509199
0.000503374
0.000498222
0.000493452
0.000489224
0.000485261
0.000481742
0.000478408
0.000475449
0.00047262
0.000470108
0.00046768
0.00046554
0.000463444
0.000461601
0.000459779
0.00045819
0.000456599
0.000455227
0.000453833
0.000452637
0.000451407
0.000450362
0.000449273
0.000448361
0.000447395
0.000446598
0.000445737
0.000445037
0.000444271
0.000443654
0.000442972
0.000442434
0.000441824
0.000441352
0.000440813
0.000440402
0.000439919
0.000439556
0.000439134
0.00043882
0.000438438
0.000438171
0.000437834
0.0004376
0.000437299
0.000437113
0.000436839
0.000436675
0.000436433
0.000436297
0.000436083
0.000435965
0.000435771
0.000435662
0.000435503
0.000435419
0.000435291
0.000435232
0.000435132
0.000435098
0.000435023
0.000435029
0.000435016
0.000435079
0.000435079
0.000435174
0.000435213
0.000435341
0.000435404
0.000435572
0.000435656
0.000435886
0.000435973
0.00043635
0.000436394
0.000440916
0.0110188
0.0125162
0.00102473
0.000931622
0.000853125
0.000788685
0.000736705
0.000695096
0.000661444
0.000634045
0.000611303
0.000592326
0.00057616
0.00056239
0.000550401
0.000540037
0.000530841
0.000522805
0.000515562
0.000509186
0.000503361
0.000498209
0.000493439
0.00048921
0.000485247
0.000481727
0.000478393
0.000475434
0.000472604
0.000470092
0.000467664
0.000465524
0.000463428
0.000461585
0.000459762
0.000458173
0.000456582
0.00045521
0.000453816
0.00045262
0.00045139
0.000450345
0.000449256
0.000448344
0.000447377
0.000446581
0.000445719
0.000445019
0.000444253
0.000443636
0.000442954
0.000442416
0.000441806
0.000441334
0.000440795
0.000440383
0.000439901
0.000439538
0.000439116
0.000438802
0.000438419
0.000438152
0.000437816
0.000437581
0.00043728
0.000437094
0.00043682
0.000436656
0.000436414
0.000436278
0.000436064
0.000435946
0.000435752
0.000435643
0.000435484
0.0004354
0.000435272
0.000435213
0.000435113
0.000435079
0.000435004
0.000435009
0.000434997
0.000435059
0.000435059
0.000435155
0.000435194
0.000435321
0.000435385
0.000435552
0.000435636
0.000435866
0.000435953
0.00043633
0.000436374
0.000440903
0.011028
0.0125283
0.00102473
0.000931624
0.000853128
0.000788684
0.0007367
0.000695085
0.000661427
0.000634023
0.000611275
0.000592294
0.000576124
0.000562351
0.000550358
0.000539992
0.000530793
0.000522754
0.00051551
0.000509132
0.000503306
0.000498151
0.00049338
0.00048915
0.000485186
0.000481665
0.00047833
0.00047537
0.00047254
0.000470027
0.000467598
0.000465457
0.00046336
0.000461517
0.000459693
0.000458104
0.000456512
0.00045514
0.000453745
0.000452548
0.000451318
0.000450273
0.000449184
0.000448271
0.000447304
0.000446507
0.000445645
0.000444945
0.000444178
0.000443562
0.000442879
0.000442341
0.00044173
0.000441258
0.000440719
0.000440307
0.000439824
0.000439462
0.000439039
0.000438725
0.000438342
0.000438075
0.000437739
0.000437504
0.000437203
0.000437016
0.000436742
0.000436579
0.000436336
0.0004362
0.000435985
0.000435867
0.000435674
0.000435565
0.000435406
0.000435321
0.000435193
0.000435134
0.000435034
0.000435
0.000434925
0.00043493
0.000434917
0.000434979
0.000434979
0.000435074
0.000435113
0.00043524
0.000435304
0.000435471
0.000435555
0.000435785
0.000435871
0.000436248
0.000436292
0.000440833
0.0110458
0.0125526
0.00102473
0.000931627
0.000853131
0.000788683
0.000736691
0.000695065
0.000661398
0.000633985
0.000611229
0.000592239
0.000576063
0.000562284
0.000550286
0.000539915
0.000530712
0.00052267
0.000515421
0.000509041
0.000503212
0.000498055
0.000493281
0.000489049
0.000485083
0.00048156
0.000478224
0.000475262
0.00047243
0.000469916
0.000467486
0.000465344
0.000463246
0.000461401
0.000459577
0.000457987
0.000456395
0.000455021
0.000453625
0.000452428
0.000451198
0.000450152
0.000449062
0.000448148
0.000447181
0.000446383
0.000445521
0.000444821
0.000444053
0.000443436
0.000442753
0.000442214
0.000441604
0.000441131
0.000440592
0.00044018
0.000439696
0.000439333
0.00043891
0.000438596
0.000438213
0.000437946
0.000437609
0.000437374
0.000437073
0.000436886
0.000436611
0.000436448
0.000436205
0.000436069
0.000435854
0.000435736
0.000435542
0.000435433
0.000435273
0.000435189
0.00043506
0.000435001
0.000434901
0.000434867
0.000434791
0.000434796
0.000434782
0.000434844
0.000434844
0.000434939
0.000434977
0.000435104
0.000435168
0.000435334
0.000435418
0.000435647
0.000435734
0.00043611
0.000436153
0.000440714
0.0110733
0.0125903
0.00102473
0.000931631
0.000853136
0.000788682
0.000736678
0.000695039
0.000661357
0.000633931
0.000611163
0.000592163
0.000575977
0.00056219
0.000550185
0.000539807
0.000530598
0.00052255
0.000515297
0.000508912
0.000503079
0.000497919
0.000493142
0.000488907
0.000484938
0.000481413
0.000478074
0.00047511
0.000472276
0.00046976
0.000467328
0.000465185
0.000463085
0.000461239
0.000459413
0.000457822
0.000456228
0.000454854
0.000453457
0.000452259
0.000451027
0.000449981
0.000448889
0.000447976
0.000447007
0.000446209
0.000445346
0.000444645
0.000443877
0.000443259
0.000442576
0.000442036
0.000441425
0.000440952
0.000440412
0.000439999
0.000439516
0.000439152
0.000438729
0.000438414
0.000438031
0.000437763
0.000437426
0.00043719
0.000436889
0.000436702
0.000436427
0.000436263
0.00043602
0.000435883
0.000435668
0.00043555
0.000435356
0.000435247
0.000435087
0.000435002
0.000434873
0.000434814
0.000434713
0.000434679
0.000434603
0.000434607
0.000434593
0.000434654
0.000434654
0.000434748
0.000434786
0.000434912
0.000434975
0.000435141
0.000435224
0.000435453
0.000435539
0.000435915
0.000435957
0.000440545
0.0111113
0.0126422
0.00102473
0.000931637
0.000853143
0.00078868
0.000736661
0.000695004
0.000661304
0.000633861
0.000611077
0.000592064
0.000575866
0.000562067
0.000550053
0.000539666
0.00053045
0.000522395
0.000515136
0.000508746
0.000502907
0.000497742
0.000492961
0.000488722
0.000484749
0.000481221
0.000477879
0.000474913
0.000472076
0.000469558
0.000467124
0.000464978
0.000462876
0.000461029
0.000459201
0.000457608
0.000456013
0.000454637
0.000453239
0.000452039
0.000450806
0.000449759
0.000448666
0.000447751
0.000446782
0.000445983
0.000445119
0.000444417
0.000443648
0.00044303
0.000442345
0.000441805
0.000441193
0.00044072
0.000440179
0.000439766
0.000439281
0.000438917
0.000438494
0.000438178
0.000437794
0.000437526
0.000437188
0.000436953
0.000436651
0.000436463
0.000436188
0.000436024
0.00043578
0.000435643
0.000435428
0.000435309
0.000435115
0.000435005
0.000434845
0.00043476
0.000434631
0.000434571
0.00043447
0.000434435
0.000434359
0.000434362
0.000434347
0.000434407
0.000434407
0.0004345
0.000434538
0.000434663
0.000434726
0.000434891
0.000434974
0.000435202
0.000435288
0.000435663
0.000435704
0.000440326
0.0111604
0.0127092
0.00102473
0.000931644
0.000853152
0.000788679
0.000736641
0.000694961
0.000661239
0.000633775
0.000610972
0.000591942
0.000575728
0.000561917
0.00054989
0.000539493
0.000530267
0.000522204
0.000514937
0.00050854
0.000502696
0.000497525
0.000492738
0.000488495
0.000484518
0.000480985
0.00047764
0.00047467
0.00047183
0.000469309
0.000466872
0.000464724
0.000462619
0.000460769
0.00045894
0.000457345
0.000455748
0.00045437
0.00045297
0.000451769
0.000450534
0.000449485
0.000448392
0.000447475
0.000446505
0.000445705
0.000444839
0.000444137
0.000443366
0.000442747
0.000442062
0.000441521
0.000440908
0.000440434
0.000439892
0.000439478
0.000438993
0.000438628
0.000438204
0.000437888
0.000437503
0.000437235
0.000436896
0.00043666
0.000436357
0.000436169
0.000435893
0.000435728
0.000435485
0.000435347
0.000435131
0.000435012
0.000434817
0.000434708
0.000434547
0.000434461
0.000434332
0.000434272
0.00043417
0.000434135
0.000434058
0.00043406
0.000434044
0.000434102
0.000434102
0.000434195
0.000434232
0.000434357
0.000434419
0.000434583
0.000434666
0.000434893
0.000434978
0.000435352
0.000435391
0.000440056
0.0112213
0.0127921
0.00102472
0.000931651
0.000853162
0.000788676
0.000736616
0.00069491
0.000661162
0.000633672
0.000610847
0.000591797
0.000575566
0.000561738
0.000549697
0.000539288
0.000530051
0.000521977
0.000514701
0.000508296
0.000502444
0.000497266
0.000492474
0.000488224
0.000484242
0.000480705
0.000477354
0.00047438
0.000471537
0.000469012
0.000466572
0.00046442
0.000462313
0.000460461
0.000458628
0.000457031
0.000455431
0.000454051
0.00045265
0.000451447
0.00045021
0.00044916
0.000448064
0.000447147
0.000446174
0.000445373
0.000444506
0.000443802
0.000443031
0.00044241
0.000441724
0.000441182
0.000440568
0.000440093
0.00043955
0.000439135
0.000438649
0.000438284
0.000437858
0.000437542
0.000437156
0.000436887
0.000436547
0.000436311
0.000436007
0.000435819
0.000435542
0.000435377
0.000435132
0.000434995
0.000434778
0.000434659
0.000434463
0.000434353
0.000434192
0.000434106
0.000433976
0.000433915
0.000433813
0.000433777
0.0004337
0.000433701
0.000433683
0.00043374
0.00043374
0.000433832
0.000433867
0.000433992
0.000434053
0.000434216
0.000434298
0.000434524
0.000434608
0.000434981
0.000435019
0.000439736
0.0112947
0.0128916
0.00102472
0.000931661
0.000853173
0.000788674
0.000736589
0.000694852
0.000661073
0.000633554
0.000610703
0.000591629
0.000575377
0.000561531
0.000549473
0.000539049
0.000529799
0.000521714
0.000514427
0.000508012
0.000502151
0.000496965
0.000492166
0.000487909
0.000483921
0.000480378
0.000477023
0.000474044
0.000471196
0.000468667
0.000466223
0.000464068
0.000461957
0.000460102
0.000458266
0.000456666
0.000455064
0.000453681
0.000452277
0.000451072
0.000449833
0.000448781
0.000447683
0.000446764
0.00044579
0.000444987
0.000444119
0.000443413
0.00044264
0.000442019
0.000441331
0.000440788
0.000440172
0.000439696
0.000439152
0.000438736
0.000438249
0.000437883
0.000437456
0.000437139
0.000436752
0.000436483
0.000436142
0.000435905
0.0004356
0.000435411
0.000435134
0.000434968
0.000434723
0.000434584
0.000434367
0.000434247
0.000434051
0.000433941
0.000433779
0.000433692
0.000433561
0.0004335
0.000433397
0.00043336
0.000433283
0.000433283
0.000433264
0.000433318
0.000433318
0.000433409
0.000433443
0.000433567
0.000433627
0.000433789
0.00043387
0.000434095
0.000434178
0.000434549
0.000434586
0.000439364
0.0113811
0.0130084
0.00102472
0.000931671
0.000853187
0.000788672
0.000736557
0.000694786
0.000660971
0.00063342
0.000610538
0.000591437
0.000575161
0.000561294
0.000549218
0.000538777
0.000529511
0.000521413
0.000514114
0.000507688
0.000501817
0.000496622
0.000491814
0.00048755
0.000483555
0.000480006
0.000476644
0.00047366
0.000470807
0.000468273
0.000465824
0.000463665
0.00046155
0.000459691
0.000457853
0.000456249
0.000454644
0.000453259
0.000451852
0.000450644
0.000449403
0.000448348
0.000447248
0.000446327
0.000445351
0.000444546
0.000443676
0.000442969
0.000442194
0.000441571
0.000440881
0.000440337
0.00043972
0.000439243
0.000438698
0.000438281
0.000437792
0.000437425
0.000436997
0.000436679
0.000436291
0.00043602
0.000435679
0.000435441
0.000435135
0.000434945
0.000434667
0.000434501
0.000434254
0.000434115
0.000433898
0.000433777
0.00043358
0.000433469
0.000433307
0.00043322
0.000433088
0.000433026
0.000432922
0.000432885
0.000432807
0.000432805
0.000432784
0.000432836
0.000432836
0.000432926
0.000432959
0.000433081
0.00043314
0.000433301
0.000433381
0.000433604
0.000433686
0.000434056
0.000434091
0.00043894
0.0114808
0.0131431
0.00102472
0.000931683
0.000853202
0.00078867
0.000736523
0.000694712
0.000660858
0.000633269
0.000610354
0.000591222
0.00057492
0.000561029
0.000548931
0.000538471
0.000529188
0.000521075
0.000513762
0.000507323
0.000501441
0.000496236
0.000491418
0.000487146
0.000483143
0.000479586
0.000476218
0.000473227
0.000470368
0.000467829
0.000465376
0.000463212
0.000461093
0.00045923
0.000457387
0.00045578
0.000454171
0.000452782
0.000451372
0.000450162
0.000448918
0.000447861
0.000446758
0.000445835
0.000444856
0.000444049
0.000443177
0.000442468
0.000441692
0.000441067
0.000440375
0.00043983
0.000439211
0.000438732
0.000438185
0.000437767
0.000437277
0.000436909
0.000436479
0.00043616
0.000435771
0.0004355
0.000435157
0.000434918
0.000434611
0.00043442
0.000434141
0.000433974
0.000433727
0.000433587
0.000433368
0.000433247
0.00043305
0.000432938
0.000432775
0.000432687
0.000432554
0.000432491
0.000432387
0.000432348
0.00043227
0.000432266
0.000432243
0.000432293
0.000432292
0.000432381
0.000432413
0.000432533
0.000432592
0.000432751
0.00043283
0.000433052
0.000433132
0.000433501
0.000433533
0.000438463
0.011594
0.0132963
0.00102472
0.000931696
0.000853219
0.000788668
0.000736485
0.000694631
0.000660733
0.000633102
0.00061015
0.000590984
0.000574651
0.000560733
0.000548612
0.000538131
0.000528829
0.000520698
0.00051337
0.000506918
0.000501023
0.000495806
0.000490978
0.000486696
0.000482684
0.000479119
0.000475744
0.000472746
0.00046988
0.000467335
0.000464876
0.000462707
0.000460583
0.000458715
0.000456868
0.000455257
0.000453644
0.000452252
0.000450838
0.000449625
0.000448378
0.000447318
0.000446212
0.000445286
0.000444305
0.000443496
0.000442621
0.000441911
0.000441132
0.000440505
0.000439811
0.000439264
0.000438644
0.000438163
0.000437615
0.000437195
0.000436704
0.000436334
0.000435903
0.000435583
0.000435192
0.000434919
0.000434575
0.000434335
0.000434027
0.000433835
0.000433555
0.000433387
0.000433139
0.000432998
0.000432779
0.000432656
0.000432459
0.000432346
0.000432182
0.000432093
0.00043196
0.000431896
0.00043179
0.000431751
0.000431672
0.000431666
0.000431641
0.000431688
0.000431687
0.000431774
0.000431804
0.000431923
0.00043198
0.000432139
0.000432216
0.000432436
0.000432515
0.000432882
0.000432912
0.000437933
0.0117209
0.0134685
0.00102471
0.00093171
0.000853238
0.000788666
0.000736444
0.000694543
0.000660596
0.00063292
0.000609925
0.000590722
0.000574356
0.000560409
0.000548261
0.000537756
0.000528434
0.000520284
0.000512939
0.000506471
0.000500562
0.000495333
0.000490493
0.0004862
0.000482178
0.000478605
0.00047522
0.000472215
0.000469342
0.000466791
0.000464325
0.00046215
0.00046002
0.000458148
0.000456295
0.00045468
0.000453063
0.000451667
0.000450249
0.000449032
0.000447782
0.000446718
0.00044561
0.000444681
0.000443697
0.000442885
0.000442008
0.000441295
0.000440514
0.000439885
0.000439189
0.00043864
0.000438017
0.000437535
0.000436985
0.000436564
0.00043607
0.000435699
0.000435266
0.000434945
0.000434553
0.000434279
0.000433933
0.000433692
0.000433382
0.00043319
0.000432908
0.000432739
0.00043249
0.000432348
0.000432127
0.000432004
0.000431806
0.000431692
0.000431528
0.000431438
0.000431303
0.000431238
0.000431131
0.000431091
0.000431011
0.000431004
0.000430976
0.000431021
0.000431019
0.000431104
0.000431132
0.00043125
0.000431306
0.000431462
0.000431539
0.000431756
0.000431834
0.000432198
0.000432225
0.000437349
0.0118612
0.0136601
0.00102471
0.000931726
0.000853259
0.000788665
0.0007364
0.000694447
0.000660447
0.000632721
0.000609681
0.000590437
0.000574034
0.000560054
0.000547878
0.000537347
0.000528002
0.000519831
0.000512467
0.000505982
0.000500058
0.000494815
0.000489962
0.000485658
0.000481625
0.000478041
0.000474648
0.000471634
0.000468753
0.000466194
0.000463721
0.00046154
0.000459404
0.000457526
0.000455669
0.000454049
0.000452426
0.000451026
0.000449604
0.000448383
0.000447129
0.000446062
0.00044495
0.000444018
0.000443031
0.000442216
0.000441336
0.000440621
0.000439837
0.000439206
0.000438507
0.000437956
0.000437331
0.000436847
0.000436294
0.000435872
0.000435376
0.000435004
0.000434569
0.000434246
0.000433852
0.000433577
0.000433229
0.000432987
0.000432676
0.000432482
0.000432199
0.000432029
0.000431778
0.000431636
0.000431414
0.00043129
0.000431091
0.000430976
0.000430811
0.00043072
0.000430584
0.000430518
0.00043041
0.000430368
0.000430288
0.000430278
0.000430247
0.000430289
0.000430287
0.000430369
0.000430396
0.000430512
0.000430566
0.000430721
0.000430796
0.000431011
0.000431087
0.000431449
0.000431474
0.00043671
0.0120147
0.0138713
0.00102471
0.000931742
0.000853282
0.000788664
0.000736353
0.000694344
0.000660287
0.000632506
0.000609416
0.000590128
0.000573685
0.00055967
0.000547462
0.000536903
0.000527533
0.000519339
0.000511955
0.000505452
0.00049951
0.000494252
0.000489385
0.000485068
0.000481023
0.000477429
0.000474025
0.000471002
0.000468112
0.000465546
0.000463065
0.000460877
0.000458735
0.000456851
0.000454987
0.000453362
0.000451734
0.000450329
0.000448902
0.000447677
0.000446418
0.000445348
0.000444232
0.000443297
0.000442306
0.000441489
0.000440605
0.000439887
0.0004391
0.000438467
0.000437766
0.000437212
0.000436585
0.000436099
0.000435543
0.000435119
0.000434621
0.000434247
0.00043381
0.000433486
0.00043309
0.000432813
0.000432464
0.000432221
0.000431907
0.000431712
0.000431428
0.000431256
0.000431004
0.00043086
0.000430638
0.000430513
0.000430312
0.000430197
0.00043003
0.000429938
0.000429801
0.000429734
0.000429624
0.000429581
0.0004295
0.000429488
0.000429455
0.000429494
0.00042949
0.00042957
0.000429595
0.000429709
0.000429762
0.000429914
0.000429988
0.0004302
0.000430275
0.000430634
0.000430656
0.000436016
0.0121805
0.0141025
0.00102471
0.00093176
0.000853307
0.000788664
0.000736304
0.000694234
0.000660115
0.000632275
0.000609132
0.000589795
0.00057331
0.000559256
0.000547014
0.000536425
0.000527026
0.000518809
0.000511402
0.000504879
0.000498919
0.000493644
0.000488762
0.000484431
0.000480373
0.000476767
0.000473352
0.000470319
0.00046742
0.000464845
0.000462356
0.000460161
0.000458011
0.00045612
0.00045425
0.000452619
0.000450985
0.000449575
0.000448143
0.000446914
0.00044565
0.000444576
0.000443456
0.000442517
0.000441522
0.000440701
0.000439815
0.000439093
0.000438303
0.000437667
0.000436963
0.000436407
0.000435777
0.000435289
0.000434731
0.000434304
0.000433804
0.000433428
0.000432989
0.000432663
0.000432265
0.000431986
0.000431635
0.000431391
0.000431075
0.000430879
0.000430593
0.00043042
0.000430167
0.000430021
0.000429797
0.000429671
0.00042947
0.000429353
0.000429186
0.000429092
0.000428954
0.000428885
0.000428774
0.00042873
0.000428647
0.000428633
0.000428596
0.000428632
0.000428627
0.000428705
0.000428728
0.00042884
0.000428891
0.000429041
0.000429113
0.000429323
0.000429395
0.000429752
0.000429771
0.000435266
0.0123577
0.0143537
0.0010247
0.000931779
0.000853335
0.000788665
0.000736252
0.000694117
0.000659932
0.000632029
0.000608828
0.000589439
0.000572907
0.000558812
0.000546533
0.000535911
0.000526483
0.000518239
0.000510808
0.000504263
0.000498284
0.000492991
0.000488092
0.000483746
0.000479674
0.000476055
0.000472629
0.000469585
0.000466675
0.000464091
0.000461593
0.000459389
0.000457232
0.000455334
0.000453457
0.000451819
0.00045018
0.000448764
0.000447326
0.000446092
0.000444823
0.000443744
0.00044262
0.000441677
0.000440678
0.000439854
0.000438963
0.000438239
0.000437445
0.000436806
0.000436099
0.00043554
0.000434907
0.000434417
0.000433856
0.000433427
0.000432925
0.000432546
0.000432105
0.000431777
0.000431377
0.000431096
0.000430743
0.000430497
0.00043018
0.000429981
0.000429694
0.00042952
0.000429265
0.000429118
0.000428892
0.000428765
0.000428562
0.000428445
0.000428276
0.000428181
0.000428041
0.000427971
0.000427858
0.000427813
0.000427728
0.000427713
0.000427672
0.000427705
0.000427698
0.000427774
0.000427794
0.000427904
0.000427953
0.0004281
0.00042817
0.000428378
0.000428448
0.000428801
0.000428818
0.000434459
0.012545
0.0146248
0.0010247
0.000931799
0.000853364
0.000788667
0.000736198
0.000693994
0.000659738
0.000631767
0.000608504
0.00058906
0.000572478
0.000558339
0.00054602
0.000535362
0.000525902
0.00051763
0.000510173
0.000503605
0.000497604
0.000492291
0.000487375
0.000483012
0.000478926
0.000475293
0.000471854
0.000468798
0.000465878
0.000463283
0.000460775
0.000458563
0.000456397
0.000454491
0.000452607
0.000450963
0.000449316
0.000447894
0.000446451
0.000445211
0.000443937
0.000442854
0.000441724
0.000440777
0.000439773
0.000438946
0.000438051
0.000437323
0.000436525
0.000435884
0.000435173
0.000434611
0.000433975
0.000433482
0.000432918
0.000432487
0.000431982
0.000431601
0.000431157
0.000430827
0.000430424
0.000430142
0.000429786
0.000429539
0.000429219
0.000429019
0.00042873
0.000428554
0.000428297
0.000428149
0.000427922
0.000427793
0.000427589
0.000427471
0.0004273
0.000427204
0.000427063
0.000426991
0.000426876
0.000426829
0.000426743
0.000426726
0.000426682
0.000426711
0.000426702
0.000426775
0.000426793
0.0004269
0.000426947
0.000427092
0.00042716
0.000427364
0.000427432
0.000427782
0.000427796
0.000433594
0.0127407
0.0149156
0.00102469
0.000931821
0.000853395
0.000788669
0.000736141
0.000693865
0.000659533
0.000631491
0.000608161
0.000588657
0.000572022
0.000557835
0.000545474
0.000534778
0.000525284
0.000516981
0.000509497
0.000502903
0.000496879
0.000491546
0.000486611
0.000482231
0.000478128
0.000474481
0.000471028
0.000467959
0.000465027
0.000462421
0.000459903
0.000457682
0.000455506
0.000453593
0.0004517
0.000450048
0.000448395
0.000446967
0.000445516
0.000444271
0.000442991
0.000441903
0.000440768
0.000439816
0.000438808
0.000437976
0.000437077
0.000436345
0.000435543
0.000434898
0.000434183
0.000433619
0.000432979
0.000432483
0.000431916
0.000431483
0.000430974
0.000430592
0.000430144
0.000429813
0.000429407
0.000429123
0.000428765
0.000428515
0.000428193
0.000427992
0.0004277
0.000427523
0.000427264
0.000427114
0.000426886
0.000426755
0.00042655
0.00042643
0.000426258
0.000426161
0.000426017
0.000425944
0.000425827
0.000425779
0.000425691
0.000425671
0.000425624
0.000425649
0.000425639
0.000425708
0.000425724
0.000425828
0.000425872
0.000426014
0.000426081
0.000426282
0.000426347
0.000426694
0.000426704
0.00043267
0.0129424
0.0152255
0.00102469
0.000931843
0.000853429
0.000788673
0.000736084
0.00069373
0.000659318
0.000631199
0.000607799
0.000588231
0.000571539
0.000557302
0.000544895
0.000534159
0.000524629
0.000516293
0.000508779
0.000502158
0.00049611
0.000490755
0.000485799
0.0004814
0.00047728
0.000473617
0.000470149
0.000467068
0.000464122
0.000461505
0.000458976
0.000456744
0.000454559
0.000452637
0.000450736
0.000449076
0.000447415
0.00044598
0.000444522
0.000443271
0.000441985
0.000440891
0.00043975
0.000438794
0.00043778
0.000436944
0.00043604
0.000435304
0.000434499
0.00043385
0.000433131
0.000432563
0.00043192
0.000431421
0.00043085
0.000430414
0.000429903
0.000429517
0.000429067
0.000428733
0.000428325
0.000428038
0.000427677
0.000427426
0.000427101
0.000426898
0.000426604
0.000426425
0.000426164
0.000426013
0.000425782
0.00042565
0.000425444
0.000425322
0.000425149
0.00042505
0.000424905
0.000424829
0.000424711
0.00042466
0.00042457
0.000424549
0.000424498
0.000424519
0.000424507
0.000424572
0.000424585
0.000424687
0.000424729
0.000424868
0.000424932
0.00042513
0.000425192
0.000425535
0.000425543
0.000431686
0.0131478
0.0155538
0.00102468
0.000931867
0.000853465
0.000788679
0.000736024
0.000693589
0.000659093
0.000630892
0.000607418
0.000587783
0.000571031
0.000556739
0.000544284
0.000533505
0.000523936
0.000515565
0.000508019
0.00050137
0.000495296
0.000489917
0.000484939
0.000480521
0.000476382
0.000472703
0.000469219
0.000466123
0.000463164
0.000460535
0.000457994
0.000455751
0.000453555
0.000451624
0.000449713
0.000448045
0.000446376
0.000444933
0.000443469
0.000442211
0.000440918
0.000439818
0.000438671
0.00043771
0.000436691
0.00043585
0.000434941
0.000434201
0.00043339
0.000432738
0.000432015
0.000431443
0.000430796
0.000430294
0.00042972
0.00042928
0.000428765
0.000428377
0.000427924
0.000427588
0.000427176
0.000426887
0.000426524
0.000426271
0.000425943
0.000425737
0.000425442
0.000425261
0.000424997
0.000424844
0.000424612
0.000424478
0.00042427
0.000424147
0.000423972
0.000423872
0.000423724
0.000423647
0.000423526
0.000423473
0.000423382
0.000423358
0.000423303
0.000423321
0.000423305
0.000423367
0.000423378
0.000423476
0.000423515
0.000423651
0.000423713
0.000423907
0.000423967
0.000424305
0.00042431
0.00043064
0.0133536
0.0158993
0.00102468
0.000931891
0.000853504
0.000788685
0.000735963
0.000693443
0.000658858
0.000630572
0.000607018
0.000587312
0.000570496
0.000556147
0.000543641
0.000532815
0.000523206
0.000514797
0.000507219
0.000500539
0.000494437
0.000489033
0.000484032
0.000479592
0.000475434
0.000471737
0.000468236
0.000465125
0.000462151
0.000459509
0.000456955
0.000454701
0.000452495
0.000450553
0.000448632
0.000446956
0.000445277
0.000443827
0.000442355
0.00044109
0.00043979
0.000438684
0.000437531
0.000436563
0.000435538
0.000434692
0.000433778
0.000433034
0.000432218
0.000431562
0.000430834
0.000430259
0.000429607
0.000429102
0.000428523
0.000428081
0.000427563
0.000427172
0.000426714
0.000426376
0.000425961
0.00042567
0.000425303
0.000425048
0.000424717
0.00042451
0.000424211
0.000424029
0.000423763
0.000423608
0.000423373
0.000423238
0.000423028
0.000422903
0.000422726
0.000422624
0.000422475
0.000422396
0.000422273
0.000422218
0.000422124
0.000422097
0.000422039
0.000422053
0.000422034
0.000422092
0.0004221
0.000422195
0.000422231
0.000422363
0.000422423
0.000422613
0.00042267
0.000423003
0.000423006
0.000429531
0.0135564
0.0162605
0.00102467
0.000931917
0.000853544
0.000788694
0.000735902
0.000693293
0.000658613
0.000630237
0.000606601
0.000586819
0.000569935
0.000555526
0.000542965
0.000532092
0.000522438
0.000513991
0.000506376
0.000499665
0.000493533
0.000488102
0.000483077
0.000478615
0.000474436
0.000470719
0.000467201
0.000464073
0.000461085
0.000458428
0.000455861
0.000453595
0.000451376
0.000449424
0.000447493
0.000445807
0.000444119
0.000442661
0.00044118
0.000439907
0.0004386
0.000437487
0.000436327
0.000435354
0.000434323
0.000433472
0.000432552
0.000431802
0.000430982
0.000430321
0.000429588
0.000429009
0.000428353
0.000427844
0.000427262
0.000426816
0.000426294
0.0004259
0.000425438
0.000425097
0.000424679
0.000424385
0.000424015
0.000423758
0.000423424
0.000423214
0.000422913
0.000422728
0.00042246
0.000422303
0.000422066
0.000421929
0.000421717
0.00042159
0.000421412
0.000421308
0.000421156
0.000421075
0.000420949
0.000420892
0.000420796
0.000420767
0.000420705
0.000420715
0.000420693
0.000420746
0.000420751
0.000420843
0.000420876
0.000421005
0.000421062
0.000421247
0.000421302
0.00042163
0.00042163
0.000428358
0.0137521
0.0166354
0.00102466
0.000931943
0.000853587
0.000788705
0.00073584
0.000693137
0.00065836
0.000629889
0.000606165
0.000586304
0.000569349
0.000554876
0.000542258
0.000531333
0.000521633
0.000513144
0.000505492
0.000498747
0.000492584
0.000487125
0.000482073
0.000477588
0.000473387
0.00046965
0.000466113
0.000462968
0.000459963
0.000457292
0.000454711
0.000452431
0.000450201
0.000448237
0.000446295
0.000444599
0.000442901
0.000441434
0.000439944
0.000438664
0.000437348
0.000436229
0.000435062
0.000434082
0.000433044
0.000432187
0.000431261
0.000430507
0.000429681
0.000429015
0.000428278
0.000427694
0.000427034
0.000426521
0.000425933
0.000425484
0.000424958
0.000424561
0.000424095
0.000423751
0.00042333
0.000423033
0.00042266
0.0004224
0.000422063
0.00042185
0.000421546
0.000421359
0.000421088
0.000420929
0.00042069
0.000420551
0.000420337
0.000420209
0.000420028
0.000419922
0.000419768
0.000419685
0.000419556
0.000419497
0.000419398
0.000419367
0.000419301
0.000419307
0.000419281
0.000419329
0.000419332
0.000419419
0.000419449
0.000419574
0.000419629
0.00041981
0.000419861
0.000420183
0.000420182
0.000427118
0.0139362
0.0170214
0.00102466
0.00093197
0.000853633
0.000788717
0.000735777
0.000692978
0.000658098
0.000629528
0.000605712
0.000585767
0.000568737
0.000554197
0.000541519
0.00053054
0.000520792
0.000512259
0.000504568
0.000497786
0.000491591
0.000486102
0.000481022
0.000476512
0.000472288
0.00046853
0.000464973
0.00046181
0.000458787
0.000456101
0.000453504
0.000451211
0.000448967
0.000446992
0.000445038
0.000443332
0.000441623
0.000440146
0.000438647
0.000437359
0.000436035
0.000434908
0.000433733
0.000432747
0.000431702
0.000430839
0.000429906
0.000429147
0.000428315
0.000427644
0.000426901
0.000426314
0.000425648
0.000425131
0.000424539
0.000424086
0.000423555
0.000423155
0.000422685
0.000422338
0.000421912
0.000421613
0.000421236
0.000420973
0.000420633
0.000420418
0.000420111
0.000419921
0.000419648
0.000419486
0.000419244
0.000419103
0.000418887
0.000418757
0.000418574
0.000418466
0.00041831
0.000418224
0.000418093
0.000418031
0.00041793
0.000417896
0.000417827
0.000417827
0.000417798
0.000417841
0.000417841
0.000417924
0.00041795
0.000418071
0.000418123
0.000418299
0.000418347
0.000418664
0.000418661
0.00042581
0.0141037
0.0174152
0.00102465
0.000931998
0.000853681
0.000788732
0.000735714
0.000692814
0.000657828
0.000629154
0.000605242
0.00058521
0.000568101
0.00055349
0.000540749
0.000529713
0.000519914
0.000511335
0.000503602
0.000496782
0.000490552
0.000485032
0.000479924
0.000475386
0.000471138
0.000467358
0.00046378
0.000460597
0.000457557
0.000454854
0.000452241
0.000449934
0.000447676
0.000445688
0.000443722
0.000442004
0.000440285
0.000438798
0.000437289
0.000435992
0.000434659
0.000433524
0.000432341
0.000431348
0.000430296
0.000429426
0.000428487
0.000427722
0.000426883
0.000426208
0.000425459
0.000424867
0.000424195
0.000423674
0.000423077
0.00042262
0.000422085
0.000421681
0.000421207
0.000420857
0.000420427
0.000420124