/*--------------------------------*- C++ -*----------------------------------*\
| =========                 |                                                 |
| \\      /  F ield         | OpenFOAM: The Open Source CFD Toolbox           |
|  \\    /   O peration     | Version:  v2012                                 |
|   \\  /    A nd           | Website:  www.openfoam.com                      |
|    \\/     M anipulation  |                                                 |
\*---------------------------------------------------------------------------*/
FoamFile
{
    version     2.0;
    format      ascii;
    class       volVectorField;
    location    "50.5";
    object      wallShearStress;
}
// * * * * * * * * * * * * * * * * * * * * * * * * * * * * * * * * * * * * * //

dimensions      [0 2 -2 0 0 0 0];


internalField   uniform (0 0 0);

boundaryField
{
    inlet
    {
        type            calculated;
        value           uniform (0 0 0);
    }
    outlet
    {
        type            calculated;
        value           uniform (0 0 0);
    }
    topWall
    {
        type            calculated;
        value           nonuniform List<vector> 
545
(
(1.48727e-08 -1.04691e-08 0)
(1.48659e-08 -2.92886e-08 0)
(1.48521e-08 -4.88566e-08 0)
(1.48317e-08 -6.78507e-08 0)
(1.48055e-08 -8.60236e-08 0)
(1.47743e-08 -1.03607e-07 0)
(1.47383e-08 -1.20748e-07 0)
(1.46981e-08 -1.37439e-07 0)
(1.46539e-08 -1.5364e-07 0)
(1.46062e-08 -1.69351e-07 0)
(1.45553e-08 -1.84592e-07 0)
(1.45016e-08 -1.99381e-07 0)
(1.44454e-08 -2.13727e-07 0)
(1.43869e-08 -2.27639e-07 0)
(1.43265e-08 -2.41128e-07 0)
(1.42644e-08 -2.54205e-07 0)
(1.42007e-08 -2.66882e-07 0)
(1.41359e-08 -2.79168e-07 0)
(1.407e-08 -2.91075e-07 0)
(1.40032e-08 -3.02614e-07 0)
(1.39358e-08 -3.13795e-07 0)
(1.38678e-08 -3.24628e-07 0)
(1.37995e-08 -3.35124e-07 0)
(1.37309e-08 -3.45292e-07 0)
(1.36623e-08 -3.55143e-07 0)
(1.35936e-08 -3.64686e-07 0)
(1.35251e-08 -3.73931e-07 0)
(1.34568e-08 -3.82886e-07 0)
(1.33888e-08 -3.91561e-07 0)
(1.33212e-08 -3.99965e-07 0)
(1.32541e-08 -4.08106e-07 0)
(1.31875e-08 -4.15993e-07 0)
(1.31215e-08 -4.23633e-07 0)
(1.30561e-08 -4.31034e-07 0)
(1.29915e-08 -4.38204e-07 0)
(1.29276e-08 -4.45151e-07 0)
(1.28645e-08 -4.51882e-07 0)
(1.28022e-08 -4.58403e-07 0)
(1.27407e-08 -4.64722e-07 0)
(1.26801e-08 -4.70845e-07 0)
(1.26205e-08 -4.76778e-07 0)
(1.25617e-08 -4.82527e-07 0)
(1.25039e-08 -4.88099e-07 0)
(1.2447e-08 -4.93499e-07 0)
(1.23911e-08 -4.98734e-07 0)
(1.23361e-08 -5.03807e-07 0)
(1.22821e-08 -5.08725e-07 0)
(1.22291e-08 -5.13492e-07 0)
(1.2177e-08 -5.18114e-07 0)
(1.2126e-08 -5.22595e-07 0)
(1.20759e-08 -5.26939e-07 0)
(1.20268e-08 -5.31152e-07 0)
(1.19786e-08 -5.35237e-07 0)
(1.19314e-08 -5.39198e-07 0)
(1.18852e-08 -5.4304e-07 0)
(1.18399e-08 -5.46766e-07 0)
(1.17955e-08 -5.50381e-07 0)
(1.17521e-08 -5.53887e-07 0)
(1.17096e-08 -5.57288e-07 0)
(1.1668e-08 -5.60587e-07 0)
(1.16273e-08 -5.63788e-07 0)
(1.15875e-08 -5.66894e-07 0)
(1.15486e-08 -5.69908e-07 0)
(1.15105e-08 -5.72833e-07 0)
(1.14733e-08 -5.75671e-07 0)
(1.14369e-08 -5.78426e-07 0)
(1.14013e-08 -5.81099e-07 0)
(1.13666e-08 -5.83694e-07 0)
(1.13326e-08 -5.86213e-07 0)
(1.12994e-08 -5.88658e-07 0)
(1.1267e-08 -5.91033e-07 0)
(1.12355e-08 -5.93334e-07 0)
(1.1205e-08 -5.95547e-07 0)
(1.11749e-08 -5.9769e-07 0)
(1.11451e-08 -5.99808e-07 0)
(1.11155e-08 -6.01914e-07 0)
(1.1086e-08 -6.04007e-07 0)
(1.10565e-08 -6.06086e-07 0)
(1.1027e-08 -6.08149e-07 0)
(1.09976e-08 -6.10196e-07 0)
(1.09683e-08 -6.12229e-07 0)
(1.09391e-08 -6.14247e-07 0)
(1.09099e-08 -6.16251e-07 0)
(1.08807e-08 -6.1824e-07 0)
(1.08516e-08 -6.20215e-07 0)
(1.08226e-08 -6.22175e-07 0)
(1.07937e-08 -6.24122e-07 0)
(1.07648e-08 -6.26054e-07 0)
(1.07359e-08 -6.27972e-07 0)
(1.07072e-08 -6.29876e-07 0)
(1.06785e-08 -6.31767e-07 0)
(1.06499e-08 -6.33644e-07 0)
(1.06213e-08 -6.35508e-07 0)
(1.05929e-08 -6.37356e-07 0)
(1.05642e-08 -6.39196e-07 0)
(1.0537e-08 -6.41003e-07 0)
(1.05119e-08 -6.42656e-07 0)
(1.04876e-08 -6.44152e-07 0)
(1.04642e-08 -6.45607e-07 0)
(1.04409e-08 -6.47067e-07 0)
(1.04175e-08 -6.4854e-07 0)
(1.03941e-08 -6.50014e-07 0)
(1.03706e-08 -6.51487e-07 0)
(1.0347e-08 -6.52957e-07 0)
(1.03233e-08 -6.54428e-07 0)
(1.02995e-08 -6.559e-07 0)
(1.02756e-08 -6.57372e-07 0)
(1.02516e-08 -6.58844e-07 0)
(1.02275e-08 -6.60315e-07 0)
(1.02034e-08 -6.61787e-07 0)
(1.01791e-08 -6.63259e-07 0)
(1.01547e-08 -6.6473e-07 0)
(1.01303e-08 -6.66202e-07 0)
(1.01057e-08 -6.67674e-07 0)
(1.00811e-08 -6.69145e-07 0)
(1.00564e-08 -6.70616e-07 0)
(1.00315e-08 -6.72087e-07 0)
(1.00066e-08 -6.73558e-07 0)
(9.98158e-09 -6.75029e-07 0)
(9.95647e-09 -6.76499e-07 0)
(9.93127e-09 -6.7797e-07 0)
(9.90597e-09 -6.7944e-07 0)
(9.88057e-09 -6.80909e-07 0)
(9.85508e-09 -6.82379e-07 0)
(9.8295e-09 -6.83848e-07 0)
(9.80382e-09 -6.85316e-07 0)
(9.77805e-09 -6.86784e-07 0)
(9.75218e-09 -6.88252e-07 0)
(9.72622e-09 -6.8972e-07 0)
(9.70016e-09 -6.91187e-07 0)
(9.67401e-09 -6.92653e-07 0)
(9.64776e-09 -6.94119e-07 0)
(9.62142e-09 -6.95584e-07 0)
(9.59498e-09 -6.97049e-07 0)
(9.56845e-09 -6.98513e-07 0)
(9.54182e-09 -6.99977e-07 0)
(9.5151e-09 -7.0144e-07 0)
(9.48828e-09 -7.02902e-07 0)
(9.46137e-09 -7.04364e-07 0)
(9.43436e-09 -7.05824e-07 0)
(9.40726e-09 -7.07284e-07 0)
(9.38007e-09 -7.08744e-07 0)
(9.35277e-09 -7.10202e-07 0)
(9.32539e-09 -7.1166e-07 0)
(9.29791e-09 -7.13117e-07 0)
(9.27033e-09 -7.14573e-07 0)
(9.24266e-09 -7.16028e-07 0)
(9.2149e-09 -7.17482e-07 0)
(9.18704e-09 -7.18935e-07 0)
(9.15908e-09 -7.20387e-07 0)
(9.13103e-09 -7.21838e-07 0)
(9.10289e-09 -7.23288e-07 0)
(9.07465e-09 -7.24738e-07 0)
(9.04632e-09 -7.26185e-07 0)
(9.0179e-09 -7.27632e-07 0)
(8.98938e-09 -7.29078e-07 0)
(8.96076e-09 -7.30522e-07 0)
(8.93205e-09 -7.31965e-07 0)
(8.90325e-09 -7.33407e-07 0)
(8.87436e-09 -7.34848e-07 0)
(8.84537e-09 -7.36288e-07 0)
(8.81629e-09 -7.37726e-07 0)
(8.78711e-09 -7.39162e-07 0)
(8.75784e-09 -7.40598e-07 0)
(8.72848e-09 -7.42031e-07 0)
(8.69902e-09 -7.43464e-07 0)
(8.66947e-09 -7.44895e-07 0)
(8.63983e-09 -7.46324e-07 0)
(8.6101e-09 -7.47752e-07 0)
(8.58027e-09 -7.49178e-07 0)
(8.55036e-09 -7.50603e-07 0)
(8.52035e-09 -7.52026e-07 0)
(8.49025e-09 -7.53448e-07 0)
(8.46005e-09 -7.54867e-07 0)
(8.42977e-09 -7.56285e-07 0)
(8.39939e-09 -7.57701e-07 0)
(8.36892e-09 -7.59116e-07 0)
(8.33836e-09 -7.60528e-07 0)
(8.30772e-09 -7.61939e-07 0)
(8.27698e-09 -7.63348e-07 0)
(8.24615e-09 -7.64755e-07 0)
(8.21523e-09 -7.6616e-07 0)
(8.18422e-09 -7.67563e-07 0)
(8.15312e-09 -7.68964e-07 0)
(8.12193e-09 -7.70363e-07 0)
(8.09065e-09 -7.7176e-07 0)
(8.05929e-09 -7.73154e-07 0)
(8.02783e-09 -7.74547e-07 0)
(7.99629e-09 -7.75937e-07 0)
(7.96466e-09 -7.77325e-07 0)
(7.93294e-09 -7.78711e-07 0)
(7.90114e-09 -7.80095e-07 0)
(7.86925e-09 -7.81476e-07 0)
(7.83727e-09 -7.82855e-07 0)
(7.8052e-09 -7.84232e-07 0)
(7.77305e-09 -7.85606e-07 0)
(7.74081e-09 -7.86978e-07 0)
(7.70849e-09 -7.88347e-07 0)
(7.67608e-09 -7.89713e-07 0)
(7.64359e-09 -7.91078e-07 0)
(7.61102e-09 -7.92439e-07 0)
(7.57836e-09 -7.93798e-07 0)
(7.54561e-09 -7.95154e-07 0)
(7.51279e-09 -7.96508e-07 0)
(7.47988e-09 -7.97859e-07 0)
(7.44688e-09 -7.99207e-07 0)
(7.41381e-09 -8.00552e-07 0)
(7.38065e-09 -8.01894e-07 0)
(7.34742e-09 -8.03234e-07 0)
(7.3141e-09 -8.04571e-07 0)
(7.2807e-09 -8.05904e-07 0)
(7.24722e-09 -8.07235e-07 0)
(7.21367e-09 -8.08563e-07 0)
(7.18003e-09 -8.09887e-07 0)
(7.14631e-09 -8.11209e-07 0)
(7.11252e-09 -8.12527e-07 0)
(7.07865e-09 -8.13842e-07 0)
(7.0447e-09 -8.15154e-07 0)
(7.01068e-09 -8.16463e-07 0)
(6.97658e-09 -8.17769e-07 0)
(6.9424e-09 -8.19071e-07 0)
(6.90815e-09 -8.2037e-07 0)
(6.87383e-09 -8.21665e-07 0)
(6.83943e-09 -8.22957e-07 0)
(6.80496e-09 -8.24246e-07 0)
(6.77041e-09 -8.25531e-07 0)
(6.73579e-09 -8.26813e-07 0)
(6.7011e-09 -8.2809e-07 0)
(6.66634e-09 -8.29365e-07 0)
(6.63151e-09 -8.30636e-07 0)
(6.59661e-09 -8.31903e-07 0)
(6.56164e-09 -8.33166e-07 0)
(6.5266e-09 -8.34426e-07 0)
(6.49149e-09 -8.35681e-07 0)
(6.45632e-09 -8.36933e-07 0)
(6.42107e-09 -8.38181e-07 0)
(6.38577e-09 -8.39425e-07 0)
(6.35039e-09 -8.40666e-07 0)
(6.31495e-09 -8.41902e-07 0)
(6.27945e-09 -8.43134e-07 0)
(6.24388e-09 -8.44362e-07 0)
(6.20825e-09 -8.45586e-07 0)
(6.17256e-09 -8.46806e-07 0)
(6.1368e-09 -8.48021e-07 0)
(6.10099e-09 -8.49233e-07 0)
(6.06511e-09 -8.5044e-07 0)
(6.02918e-09 -8.51643e-07 0)
(5.99319e-09 -8.52842e-07 0)
(5.95713e-09 -8.54036e-07 0)
(5.92103e-09 -8.55225e-07 0)
(5.88486e-09 -8.56411e-07 0)
(5.84864e-09 -8.57592e-07 0)
(5.81236e-09 -8.58768e-07 0)
(5.77603e-09 -8.5994e-07 0)
(5.73965e-09 -8.61107e-07 0)
(5.70321e-09 -8.62269e-07 0)
(5.66673e-09 -8.63427e-07 0)
(5.63019e-09 -8.6458e-07 0)
(5.5936e-09 -8.65728e-07 0)
(5.55696e-09 -8.66872e-07 0)
(5.52027e-09 -8.6801e-07 0)
(5.48354e-09 -8.69144e-07 0)
(5.44676e-09 -8.70273e-07 0)
(5.40993e-09 -8.71396e-07 0)
(5.37306e-09 -8.72515e-07 0)
(5.33613e-09 -8.73629e-07 0)
(5.29923e-09 -8.74737e-07 0)
(5.26201e-09 -8.75842e-07 0)
(5.22587e-09 -8.76935e-07 0)
(5.19126e-09 -8.77971e-07 0)
(5.15716e-09 -8.78952e-07 0)
(5.12348e-09 -8.79922e-07 0)
(5.08966e-09 -8.80898e-07 0)
(5.05555e-09 -8.81882e-07 0)
(5.02112e-09 -8.82871e-07 0)
(4.98637e-09 -8.83863e-07 0)
(4.95129e-09 -8.84859e-07 0)
(4.91587e-09 -8.85858e-07 0)
(4.88012e-09 -8.86861e-07 0)
(4.84404e-09 -8.87867e-07 0)
(4.80761e-09 -8.88877e-07 0)
(4.77085e-09 -8.89889e-07 0)
(4.73375e-09 -8.90905e-07 0)
(4.6963e-09 -8.91924e-07 0)
(4.65851e-09 -8.92946e-07 0)
(4.62037e-09 -8.9397e-07 0)
(4.58188e-09 -8.94997e-07 0)
(4.54305e-09 -8.96027e-07 0)
(4.50386e-09 -8.97059e-07 0)
(4.46432e-09 -8.98093e-07 0)
(4.42443e-09 -8.99128e-07 0)
(4.38419e-09 -9.00166e-07 0)
(4.34359e-09 -9.01205e-07 0)
(4.30263e-09 -9.02246e-07 0)
(4.26132e-09 -9.03288e-07 0)
(4.21964e-09 -9.04332e-07 0)
(4.17761e-09 -9.05376e-07 0)
(4.13522e-09 -9.0642e-07 0)
(4.09247e-09 -9.07466e-07 0)
(4.04936e-09 -9.08512e-07 0)
(4.00588e-09 -9.09557e-07 0)
(3.96204e-09 -9.10603e-07 0)
(3.91785e-09 -9.11648e-07 0)
(3.87329e-09 -9.12693e-07 0)
(3.82836e-09 -9.13737e-07 0)
(3.78308e-09 -9.1478e-07 0)
(3.73743e-09 -9.15822e-07 0)
(3.69142e-09 -9.16862e-07 0)
(3.64505e-09 -9.17901e-07 0)
(3.59831e-09 -9.18937e-07 0)
(3.55122e-09 -9.19971e-07 0)
(3.50377e-09 -9.21002e-07 0)
(3.45596e-09 -9.22031e-07 0)
(3.40779e-09 -9.23056e-07 0)
(3.35927e-09 -9.24078e-07 0)
(3.31039e-09 -9.25096e-07 0)
(3.26116e-09 -9.26111e-07 0)
(3.21158e-09 -9.2712e-07 0)
(3.16165e-09 -9.28125e-07 0)
(3.11137e-09 -9.29125e-07 0)
(3.06074e-09 -9.30119e-07 0)
(3.00978e-09 -9.31108e-07 0)
(2.95847e-09 -9.32091e-07 0)
(2.90683e-09 -9.33067e-07 0)
(2.85485e-09 -9.34036e-07 0)
(2.80254e-09 -9.34998e-07 0)
(2.7499e-09 -9.35952e-07 0)
(2.69694e-09 -9.36899e-07 0)
(2.64366e-09 -9.37837e-07 0)
(2.59006e-09 -9.38766e-07 0)
(2.53616e-09 -9.39686e-07 0)
(2.48194e-09 -9.40596e-07 0)
(2.42742e-09 -9.41496e-07 0)
(2.37261e-09 -9.42386e-07 0)
(2.3175e-09 -9.43265e-07 0)
(2.26211e-09 -9.44132e-07 0)
(2.20644e-09 -9.44988e-07 0)
(2.15049e-09 -9.45831e-07 0)
(2.09427e-09 -9.46661e-07 0)
(2.03779e-09 -9.47478e-07 0)
(1.98106e-09 -9.48281e-07 0)
(1.92408e-09 -9.4907e-07 0)
(1.86686e-09 -9.49845e-07 0)
(1.80941e-09 -9.50604e-07 0)
(1.75173e-09 -9.51347e-07 0)
(1.69384e-09 -9.52073e-07 0)
(1.63574e-09 -9.52783e-07 0)
(1.57744e-09 -9.53475e-07 0)
(1.51895e-09 -9.5415e-07 0)
(1.46028e-09 -9.54806e-07 0)
(1.40144e-09 -9.55443e-07 0)
(1.34244e-09 -9.5606e-07 0)
(1.2833e-09 -9.56657e-07 0)
(1.22401e-09 -9.57233e-07 0)
(1.1646e-09 -9.57788e-07 0)
(1.10508e-09 -9.5832e-07 0)
(1.04545e-09 -9.58831e-07 0)
(9.85726e-10 -9.59318e-07 0)
(9.25927e-10 -9.59781e-07 0)
(8.66062e-10 -9.6022e-07 0)
(8.06144e-10 -9.60634e-07 0)
(7.46187e-10 -9.61022e-07 0)
(6.86206e-10 -9.61384e-07 0)
(6.26214e-10 -9.61719e-07 0)
(5.66225e-10 -9.62027e-07 0)
(5.06256e-10 -9.62306e-07 0)
(4.4632e-10 -9.62557e-07 0)
(3.86434e-10 -9.62779e-07 0)
(3.26614e-10 -9.6297e-07 0)
(2.66875e-10 -9.63131e-07 0)
(2.07235e-10 -9.6326e-07 0)
(1.4771e-10 -9.63358e-07 0)
(8.83181e-11 -9.63423e-07 0)
(2.90757e-11 -9.63454e-07 0)
(-2.99989e-11 -9.63452e-07 0)
(-8.88876e-11 -9.63415e-07 0)
(-1.47572e-10 -9.63344e-07 0)
(-2.06034e-10 -9.63236e-07 0)
(-2.64253e-10 -9.63092e-07 0)
(-3.22212e-10 -9.62911e-07 0)
(-3.7989e-10 -9.62692e-07 0)
(-4.37268e-10 -9.62436e-07 0)
(-4.94327e-10 -9.6214e-07 0)
(-5.51045e-10 -9.61805e-07 0)
(-6.07402e-10 -9.6143e-07 0)
(-6.63379e-10 -9.61014e-07 0)
(-7.18954e-10 -9.60557e-07 0)
(-7.74107e-10 -9.60058e-07 0)
(-8.28816e-10 -9.59516e-07 0)
(-8.83061e-10 -9.58932e-07 0)
(-9.3682e-10 -9.58305e-07 0)
(-9.90073e-10 -9.57633e-07 0)
(-1.0428e-09 -9.56917e-07 0)
(-1.09497e-09 -9.56156e-07 0)
(-1.14658e-09 -9.55349e-07 0)
(-1.19759e-09 -9.54496e-07 0)
(-1.24798e-09 -9.53597e-07 0)
(-1.29775e-09 -9.52651e-07 0)
(-1.34685e-09 -9.51658e-07 0)
(-1.39528e-09 -9.50617e-07 0)
(-1.44301e-09 -9.49528e-07 0)
(-1.49002e-09 -9.4839e-07 0)
(-1.53629e-09 -9.47204e-07 0)
(-1.5818e-09 -9.45968e-07 0)
(-1.62652e-09 -9.44683e-07 0)
(-1.67044e-09 -9.43348e-07 0)
(-1.71355e-09 -9.41964e-07 0)
(-1.75581e-09 -9.40528e-07 0)
(-1.79721e-09 -9.39043e-07 0)
(-1.83772e-09 -9.37506e-07 0)
(-1.87734e-09 -9.35919e-07 0)
(-1.91605e-09 -9.34281e-07 0)
(-1.95382e-09 -9.32591e-07 0)
(-1.99063e-09 -9.30851e-07 0)
(-2.02648e-09 -9.29059e-07 0)
(-2.06134e-09 -9.27216e-07 0)
(-2.0952e-09 -9.25322e-07 0)
(-2.12805e-09 -9.23376e-07 0)
(-2.15986e-09 -9.21379e-07 0)
(-2.19062e-09 -9.19331e-07 0)
(-2.22033e-09 -9.17232e-07 0)
(-2.24896e-09 -9.15083e-07 0)
(-2.27652e-09 -9.12882e-07 0)
(-2.30297e-09 -9.10632e-07 0)
(-2.32832e-09 -9.08331e-07 0)
(-2.35255e-09 -9.0598e-07 0)
(-2.37565e-09 -9.0358e-07 0)
(-2.39762e-09 -9.01131e-07 0)
(-2.41845e-09 -8.98632e-07 0)
(-2.43813e-09 -8.96086e-07 0)
(-2.45665e-09 -8.93492e-07 0)
(-2.47401e-09 -8.9085e-07 0)
(-2.49021e-09 -8.88162e-07 0)
(-2.50523e-09 -8.85427e-07 0)
(-2.51909e-09 -8.82646e-07 0)
(-2.53177e-09 -8.79821e-07 0)
(-2.54328e-09 -8.76951e-07 0)
(-2.55361e-09 -8.74038e-07 0)
(-2.56277e-09 -8.71082e-07 0)
(-2.57075e-09 -8.68083e-07 0)
(-2.57757e-09 -8.65044e-07 0)
(-2.58322e-09 -8.61964e-07 0)
(-2.5877e-09 -8.58844e-07 0)
(-2.59103e-09 -8.55686e-07 0)
(-2.59321e-09 -8.5249e-07 0)
(-2.59424e-09 -8.49258e-07 0)
(-2.59413e-09 -8.4599e-07 0)
(-2.59289e-09 -8.42685e-07 0)
(-2.59058e-09 -8.39353e-07 0)
(-2.58693e-09 -8.35948e-07 0)
(-2.58167e-09 -8.32188e-07 0)
(-2.57479e-09 -8.28071e-07 0)
(-2.56625e-09 -8.23881e-07 0)
(-2.55626e-09 -8.19714e-07 0)
(-2.54495e-09 -8.15589e-07 0)
(-2.53242e-09 -8.11488e-07 0)
(-2.51872e-09 -8.07403e-07 0)
(-2.50394e-09 -8.03338e-07 0)
(-2.48811e-09 -7.99299e-07 0)
(-2.47131e-09 -7.95287e-07 0)
(-2.4536e-09 -7.91303e-07 0)
(-2.43503e-09 -7.87348e-07 0)
(-2.41565e-09 -7.83424e-07 0)
(-2.39551e-09 -7.79531e-07 0)
(-2.37466e-09 -7.75673e-07 0)
(-2.35314e-09 -7.71848e-07 0)
(-2.331e-09 -7.68059e-07 0)
(-2.30828e-09 -7.64306e-07 0)
(-2.28501e-09 -7.6059e-07 0)
(-2.26123e-09 -7.56913e-07 0)
(-2.23698e-09 -7.53274e-07 0)
(-2.21229e-09 -7.49675e-07 0)
(-2.18718e-09 -7.46116e-07 0)
(-2.16169e-09 -7.42599e-07 0)
(-2.13583e-09 -7.39123e-07 0)
(-2.10965e-09 -7.35689e-07 0)
(-2.08316e-09 -7.32297e-07 0)
(-2.05637e-09 -7.28949e-07 0)
(-2.02932e-09 -7.25644e-07 0)
(-2.00202e-09 -7.22383e-07 0)
(-1.97449e-09 -7.19167e-07 0)
(-1.94675e-09 -7.15995e-07 0)
(-1.9188e-09 -7.12869e-07 0)
(-1.89067e-09 -7.09787e-07 0)
(-1.86237e-09 -7.06752e-07 0)
(-1.83391e-09 -7.03762e-07 0)
(-1.80529e-09 -7.00819e-07 0)
(-1.77653e-09 -6.97922e-07 0)
(-1.74765e-09 -6.95071e-07 0)
(-1.71864e-09 -6.92268e-07 0)
(-1.68951e-09 -6.89511e-07 0)
(-1.66027e-09 -6.86802e-07 0)
(-1.63094e-09 -6.8414e-07 0)
(-1.6015e-09 -6.81525e-07 0)
(-1.57197e-09 -6.78959e-07 0)
(-1.54235e-09 -6.7644e-07 0)
(-1.51265e-09 -6.73969e-07 0)
(-1.48286e-09 -6.71546e-07 0)
(-1.45299e-09 -6.69172e-07 0)
(-1.42305e-09 -6.66845e-07 0)
(-1.39303e-09 -6.64568e-07 0)
(-1.36294e-09 -6.62339e-07 0)
(-1.33278e-09 -6.60158e-07 0)
(-1.30255e-09 -6.58027e-07 0)
(-1.27224e-09 -6.55944e-07 0)
(-1.24187e-09 -6.53911e-07 0)
(-1.21143e-09 -6.51927e-07 0)
(-1.18092e-09 -6.49992e-07 0)
(-1.15035e-09 -6.48106e-07 0)
(-1.11971e-09 -6.4627e-07 0)
(-1.089e-09 -6.44484e-07 0)
(-1.05822e-09 -6.42747e-07 0)
(-1.02738e-09 -6.4106e-07 0)
(-9.96468e-10 -6.39423e-07 0)
(-9.65493e-10 -6.37836e-07 0)
(-9.34451e-10 -6.363e-07 0)
(-9.03345e-10 -6.34813e-07 0)
(-8.72173e-10 -6.33377e-07 0)
(-8.40936e-10 -6.31992e-07 0)
(-8.09635e-10 -6.30657e-07 0)
(-7.78271e-10 -6.29372e-07 0)
(-7.46845e-10 -6.28139e-07 0)
(-7.15357e-10 -6.26956e-07 0)
(-6.83808e-10 -6.25824e-07 0)
(-6.522e-10 -6.24744e-07 0)
(-6.20534e-10 -6.23714e-07 0)
(-5.88813e-10 -6.22736e-07 0)
(-5.57036e-10 -6.21809e-07 0)
(-5.25207e-10 -6.20934e-07 0)
(-4.93328e-10 -6.2011e-07 0)
(-4.614e-10 -6.19338e-07 0)
(-4.29425e-10 -6.18618e-07 0)
(-3.97408e-10 -6.17949e-07 0)
(-3.65349e-10 -6.17332e-07 0)
(-3.33252e-10 -6.16766e-07 0)
(-3.0112e-10 -6.16257e-07 0)
(-2.68954e-10 -6.15783e-07 0)
(-2.36764e-10 -6.15416e-07 0)
(-2.04529e-10 -6.14916e-07 0)
(-1.72335e-10 -6.15078e-07 0)
(-1.39916e-10 -6.13228e-07 0)
(-1.08169e-10 -6.18016e-07 0)
(-7.42349e-11 -5.99376e-07 0)
(-4.79332e-11 -6.48496e-07 0)
(-2.00903e-11 -5.66364e-07 0)
)
;
    }
    bottomWall
    {
        type            calculated;
        value           nonuniform List<vector> 
449
(
(-48.5231 -0.963975 0)
(-19.748 -0.00515432 0)
(-14.3412 -0.00113467 0)
(-12.0318 -0.000545438 0)
(-10.6258 -0.000351474 0)
(-9.63207 -0.000255979 0)
(-8.87404 -0.000198474 0)
(-8.27057 -0.000159807 0)
(-7.77517 -0.000132318 0)
(-7.35856 -0.000111972 0)
(-7.00157 -9.63728e-05 0)
(-6.69116 -8.40666e-05 0)
(-6.41802 -7.41493e-05 0)
(-6.17524 -6.60222e-05 0)
(-5.95756 -5.92657e-05 0)
(-5.76092 -5.35766e-05 0)
(-5.58213 -4.87326e-05 0)
(-5.41863 -4.45679e-05 0)
(-5.26835 -4.09567e-05 0)
(-5.12959 -3.78012e-05 0)
(-5.00095 -3.50251e-05 0)
(-4.88125 -3.25675e-05 0)
(-4.76948 -3.03796e-05 0)
(-4.66482 -2.84218e-05 0)
(-4.56653 -2.66616e-05 0)
(-4.47398 -2.50724e-05 0)
(-4.38664 -2.36318e-05 0)
(-4.30403 -2.23211e-05 0)
(-4.22574 -2.11245e-05 0)
(-4.1514 -2.00287e-05 0)
(-4.08068 -1.90221e-05 0)
(-4.0133 -1.8095e-05 0)
(-3.949 -1.72389e-05 0)
(-3.88756 -1.64465e-05 0)
(-3.82876 -1.57112e-05 0)
(-3.77242 -1.50276e-05 0)
(-3.71837 -1.43907e-05 0)
(-3.66646 -1.37962e-05 0)
(-3.61654 -1.32403e-05 0)
(-3.56851 -1.27195e-05 0)
(-3.52222 -1.22309e-05 0)
(-3.47759 -1.17717e-05 0)
(-3.43452 -1.13396e-05 0)
(-3.39291 -1.09323e-05 0)
(-3.35268 -1.0548e-05 0)
(-3.31376 -1.01848e-05 0)
(-3.27608 -9.84123e-06 0)
(-3.23957 -9.51579e-06 0)
(-3.20417 -9.20718e-06 0)
(-3.16983 -8.91422e-06 0)
(-3.13649 -8.63584e-06 0)
(-3.10411 -8.37104e-06 0)
(-3.07264 -8.11892e-06 0)
(-3.04203 -7.87865e-06 0)
(-3.01225 -7.64948e-06 0)
(-2.98326 -7.43069e-06 0)
(-2.95503 -7.22166e-06 0)
(-2.92752 -7.02179e-06 0)
(-2.9007 -6.83053e-06 0)
(-2.87455 -6.64737e-06 0)
(-2.84903 -6.47185e-06 0)
(-2.82412 -6.30353e-06 0)
(-2.7998 -6.14201e-06 0)
(-2.77604 -5.98691e-06 0)
(-2.75282 -5.83788e-06 0)
(-2.73012 -5.69461e-06 0)
(-2.70792 -5.55678e-06 0)
(-2.6862 -5.42412e-06 0)
(-2.66495 -5.29636e-06 0)
(-2.64415 -5.17325e-06 0)
(-2.62378 -5.05456e-06 0)
(-2.60383 -4.94008e-06 0)
(-2.58428 -4.82959e-06 0)
(-2.56512 -4.72292e-06 0)
(-2.54633 -4.61988e-06 0)
(-2.52791 -4.5203e-06 0)
(-2.50984 -4.42403e-06 0)
(-2.49211 -4.3309e-06 0)
(-2.47472 -4.2408e-06 0)
(-2.45764 -4.15357e-06 0)
(-2.44087 -4.06909e-06 0)
(-2.4244 -3.98725e-06 0)
(-2.40822 -3.90793e-06 0)
(-2.39233 -3.83103e-06 0)
(-2.37671 -3.75645e-06 0)
(-2.36136 -3.68408e-06 0)
(-2.34626 -3.61385e-06 0)
(-2.33142 -3.54566e-06 0)
(-2.31682 -3.47944e-06 0)
(-2.30246 -3.4151e-06 0)
(-2.28833 -3.35258e-06 0)
(-2.27442 -3.2918e-06 0)
(-2.26073 -3.23269e-06 0)
(-2.24726 -3.1752e-06 0)
(-2.23399 -3.11927e-06 0)
(-2.22092 -3.06483e-06 0)
(-2.20805 -3.01183e-06 0)
(-2.19538 -2.96023e-06 0)
(-2.18289 -2.90996e-06 0)
(-2.17058 -2.86099e-06 0)
(-2.15845 -2.81326e-06 0)
(-2.14649 -2.76674e-06 0)
(-2.1347 -2.72138e-06 0)
(-2.12308 -2.67714e-06 0)
(-2.11162 -2.63399e-06 0)
(-2.10031 -2.59189e-06 0)
(-2.08916 -2.5508e-06 0)
(-2.07816 -2.51069e-06 0)
(-2.0673 -2.47154e-06 0)
(-2.05659 -2.4333e-06 0)
(-2.04602 -2.39595e-06 0)
(-2.03559 -2.35946e-06 0)
(-2.02529 -2.3238e-06 0)
(-2.01512 -2.28895e-06 0)
(-2.00508 -2.25489e-06 0)
(-1.99517 -2.22158e-06 0)
(-1.98537 -2.18901e-06 0)
(-1.9757 -2.15715e-06 0)
(-1.96615 -2.12599e-06 0)
(-1.95671 -2.0955e-06 0)
(-1.94738 -2.06566e-06 0)
(-1.93817 -2.03645e-06 0)
(-1.92906 -2.00786e-06 0)
(-1.92006 -1.97987e-06 0)
(-1.91117 -1.95246e-06 0)
(-1.90237 -1.92561e-06 0)
(-1.89368 -1.89931e-06 0)
(-1.88508 -1.87354e-06 0)
(-1.87658 -1.8483e-06 0)
(-1.86817 -1.82355e-06 0)
(-1.85986 -1.7993e-06 0)
(-1.85164 -1.77552e-06 0)
(-1.84351 -1.75221e-06 0)
(-1.83546 -1.72935e-06 0)
(-1.8275 -1.70693e-06 0)
(-1.81963 -1.68495e-06 0)
(-1.81183 -1.66337e-06 0)
(-1.80412 -1.64221e-06 0)
(-1.79649 -1.62144e-06 0)
(-1.78894 -1.60106e-06 0)
(-1.78146 -1.58106e-06 0)
(-1.77406 -1.56142e-06 0)
(-1.76673 -1.54214e-06 0)
(-1.75948 -1.52321e-06 0)
(-1.7523 -1.50462e-06 0)
(-1.74519 -1.48636e-06 0)
(-1.73815 -1.46843e-06 0)
(-1.73118 -1.45081e-06 0)
(-1.72427 -1.43351e-06 0)
(-1.71743 -1.4165e-06 0)
(-1.71066 -1.39979e-06 0)
(-1.70395 -1.38337e-06 0)
(-1.6973 -1.36723e-06 0)
(-1.69071 -1.35136e-06 0)
(-1.68419 -1.33576e-06 0)
(-1.67772 -1.32042e-06 0)
(-1.67132 -1.30534e-06 0)
(-1.66497 -1.29051e-06 0)
(-1.65868 -1.27593e-06 0)
(-1.65244 -1.26158e-06 0)
(-1.64627 -1.24747e-06 0)
(-1.64014 -1.23358e-06 0)
(-1.63407 -1.21992e-06 0)
(-1.62805 -1.20648e-06 0)
(-1.62208 -1.19326e-06 0)
(-1.61617 -1.18025e-06 0)
(-1.61031 -1.16743e-06 0)
(-1.60449 -1.15483e-06 0)
(-1.59873 -1.14245e-06 0)
(-1.59301 -1.13012e-06 0)
(-1.58734 -1.11843e-06 0)
(-1.58171 -1.10633e-06 0)
(-1.57614 -1.09319e-06 0)
(-1.57093 -1.08302e-06 0)
(-1.56603 -1.07479e-06 0)
(-1.56111 -1.06444e-06 0)
(-1.5562 -1.05375e-06 0)
(-1.55128 -1.04374e-06 0)
(-1.54635 -1.0337e-06 0)
(-1.54142 -1.02379e-06 0)
(-1.53648 -1.01393e-06 0)
(-1.53154 -1.00415e-06 0)
(-1.52659 -9.94418e-07 0)
(-1.52163 -9.84748e-07 0)
(-1.51667 -9.75134e-07 0)
(-1.51171 -9.65575e-07 0)
(-1.50674 -9.56072e-07 0)
(-1.50177 -9.46624e-07 0)
(-1.49679 -9.37231e-07 0)
(-1.49181 -9.27893e-07 0)
(-1.48682 -9.18611e-07 0)
(-1.48183 -9.09384e-07 0)
(-1.47684 -9.00214e-07 0)
(-1.47184 -8.91099e-07 0)
(-1.46685 -8.8204e-07 0)
(-1.46184 -8.73038e-07 0)
(-1.45684 -8.64092e-07 0)
(-1.45183 -8.55204e-07 0)
(-1.44682 -8.46372e-07 0)
(-1.44181 -8.37598e-07 0)
(-1.4368 -8.28882e-07 0)
(-1.43178 -8.20223e-07 0)
(-1.42677 -8.11622e-07 0)
(-1.42175 -8.0308e-07 0)
(-1.41673 -7.94596e-07 0)
(-1.41171 -7.8617e-07 0)
(-1.40669 -7.77803e-07 0)
(-1.40167 -7.69494e-07 0)
(-1.39665 -7.61245e-07 0)
(-1.39163 -7.53054e-07 0)
(-1.38661 -7.44923e-07 0)
(-1.38159 -7.36851e-07 0)
(-1.37657 -7.28838e-07 0)
(-1.37155 -7.20885e-07 0)
(-1.36653 -7.12991e-07 0)
(-1.36151 -7.05156e-07 0)
(-1.3565 -6.97381e-07 0)
(-1.35148 -6.89666e-07 0)
(-1.34647 -6.8201e-07 0)
(-1.34146 -6.74414e-07 0)
(-1.33645 -6.66878e-07 0)
(-1.33144 -6.59401e-07 0)
(-1.32644 -6.51983e-07 0)
(-1.32144 -6.44626e-07 0)
(-1.31644 -6.37328e-07 0)
(-1.31144 -6.30089e-07 0)
(-1.30645 -6.2291e-07 0)
(-1.30146 -6.1579e-07 0)
(-1.29647 -6.0873e-07 0)
(-1.29149 -6.01729e-07 0)
(-1.28651 -5.94787e-07 0)
(-1.28154 -5.87904e-07 0)
(-1.27657 -5.8108e-07 0)
(-1.2716 -5.74315e-07 0)
(-1.26664 -5.67609e-07 0)
(-1.26169 -5.60962e-07 0)
(-1.25674 -5.54373e-07 0)
(-1.25179 -5.47842e-07 0)
(-1.24685 -5.4137e-07 0)
(-1.24191 -5.34956e-07 0)
(-1.23698 -5.28599e-07 0)
(-1.23206 -5.22301e-07 0)
(-1.22714 -5.1606e-07 0)
(-1.22223 -5.09877e-07 0)
(-1.21732 -5.0375e-07 0)
(-1.21242 -4.97681e-07 0)
(-1.20753 -4.91669e-07 0)
(-1.20264 -4.85713e-07 0)
(-1.19776 -4.79814e-07 0)
(-1.19289 -4.73971e-07 0)
(-1.18802 -4.68184e-07 0)
(-1.18316 -4.62453e-07 0)
(-1.17831 -4.56777e-07 0)
(-1.17346 -4.51156e-07 0)
(-1.16863 -4.45591e-07 0)
(-1.1638 -4.4008e-07 0)
(-1.15898 -4.34624e-07 0)
(-1.15417 -4.29222e-07 0)
(-1.14936 -4.23874e-07 0)
(-1.14457 -4.1858e-07 0)
(-1.13978 -4.13339e-07 0)
(-1.135 -4.08152e-07 0)
(-1.13023 -4.03017e-07 0)
(-1.12547 -3.97936e-07 0)
(-1.12072 -3.92906e-07 0)
(-1.11598 -3.87929e-07 0)
(-1.11124 -3.83003e-07 0)
(-1.10652 -3.78128e-07 0)
(-1.1018 -3.73305e-07 0)
(-1.0971 -3.68533e-07 0)
(-1.0924 -3.63811e-07 0)
(-1.08772 -3.5914e-07 0)
(-1.08304 -3.54518e-07 0)
(-1.07838 -3.49946e-07 0)
(-1.07372 -3.45423e-07 0)
(-1.06907 -3.40949e-07 0)
(-1.06444 -3.36524e-07 0)
(-1.05982 -3.32147e-07 0)
(-1.0552 -3.27818e-07 0)
(-1.0506 -3.23537e-07 0)
(-1.04601 -3.19303e-07 0)
(-1.04143 -3.15116e-07 0)
(-1.03686 -3.10975e-07 0)
(-1.0323 -3.06881e-07 0)
(-1.02775 -3.02833e-07 0)
(-1.02321 -2.9883e-07 0)
(-1.01869 -2.94873e-07 0)
(-1.01417 -2.9096e-07 0)
(-1.00967 -2.87093e-07 0)
(-1.00518 -2.83269e-07 0)
(-1.0007 -2.79489e-07 0)
(-0.996234 -2.75753e-07 0)
(-0.991779 -2.7206e-07 0)
(-0.987336 -2.6841e-07 0)
(-0.982904 -2.64802e-07 0)
(-0.978485 -2.61237e-07 0)
(-0.974078 -2.57713e-07 0)
(-0.969683 -2.5423e-07 0)
(-0.965301 -2.50789e-07 0)
(-0.96093 -2.47389e-07 0)
(-0.956573 -2.44028e-07 0)
(-0.952228 -2.40708e-07 0)
(-0.947895 -2.37428e-07 0)
(-0.943575 -2.34187e-07 0)
(-0.939268 -2.30985e-07 0)
(-0.934973 -2.27821e-07 0)
(-0.930692 -2.24696e-07 0)
(-0.926423 -2.21609e-07 0)
(-0.922167 -2.18559e-07 0)
(-0.917924 -2.15547e-07 0)
(-0.913695 -2.12571e-07 0)
(-0.909478 -2.09632e-07 0)
(-0.905274 -2.06729e-07 0)
(-0.901084 -2.03862e-07 0)
(-0.896907 -2.01031e-07 0)
(-0.892743 -1.98235e-07 0)
(-0.888593 -1.95473e-07 0)
(-0.884456 -1.92747e-07 0)
(-0.880332 -1.90054e-07 0)
(-0.876222 -1.87395e-07 0)
(-0.872125 -1.84769e-07 0)
(-0.868042 -1.82177e-07 0)
(-0.863972 -1.79618e-07 0)
(-0.859916 -1.77091e-07 0)
(-0.855874 -1.74596e-07 0)
(-0.851845 -1.72133e-07 0)
(-0.84783 -1.69701e-07 0)
(-0.843829 -1.67301e-07 0)
(-0.839841 -1.64931e-07 0)
(-0.835867 -1.62592e-07 0)
(-0.831908 -1.60283e-07 0)
(-0.827961 -1.58004e-07 0)
(-0.824029 -1.55755e-07 0)
(-0.820111 -1.53535e-07 0)
(-0.816207 -1.51344e-07 0)
(-0.812316 -1.49181e-07 0)
(-0.808439 -1.47047e-07 0)
(-0.804577 -1.4494e-07 0)
(-0.800728 -1.42862e-07 0)
(-0.796894 -1.4081e-07 0)
(-0.793073 -1.38786e-07 0)
(-0.789266 -1.36789e-07 0)
(-0.785474 -1.34818e-07 0)
(-0.781695 -1.32873e-07 0)
(-0.777931 -1.30954e-07 0)
(-0.774181 -1.2906e-07 0)
(-0.770444 -1.27191e-07 0)
(-0.766722 -1.25347e-07 0)
(-0.763014 -1.23526e-07 0)
(-0.75932 -1.21733e-07 0)
(-0.755641 -1.19957e-07 0)
(-0.751975 -1.1817e-07 0)
(-0.748326 -1.16531e-07 0)
(-0.744684 -1.14904e-07 0)
(-0.740651 -1.12917e-07 0)
(-0.736277 -1.10807e-07 0)
(-0.731982 -1.08906e-07 0)
(-0.727757 -1.07108e-07 0)
(-0.723603 -1.05298e-07 0)
(-0.719519 -1.03523e-07 0)
(-0.715504 -1.01793e-07 0)
(-0.711555 -1.0011e-07 0)
(-0.707672 -9.84724e-08 0)
(-0.703851 -9.68781e-08 0)
(-0.700093 -9.5326e-08 0)
(-0.696394 -9.3815e-08 0)
(-0.692753 -9.23434e-08 0)
(-0.689169 -9.09099e-08 0)
(-0.685641 -8.95132e-08 0)
(-0.682166 -8.81519e-08 0)
(-0.678744 -8.68248e-08 0)
(-0.675374 -8.55307e-08 0)
(-0.672053 -8.42685e-08 0)
(-0.668781 -8.3037e-08 0)
(-0.665557 -8.18354e-08 0)
(-0.662379 -8.06624e-08 0)
(-0.659246 -7.95173e-08 0)
(-0.656158 -7.8399e-08 0)
(-0.653112 -7.73068e-08 0)
(-0.65011 -7.62397e-08 0)
(-0.647148 -7.5197e-08 0)
(-0.644227 -7.41779e-08 0)
(-0.641345 -7.31817e-08 0)
(-0.638501 -7.22076e-08 0)
(-0.635696 -7.12551e-08 0)
(-0.632927 -7.03233e-08 0)
(-0.630194 -6.94117e-08 0)
(-0.627496 -6.85197e-08 0)
(-0.624833 -6.76468e-08 0)
(-0.622204 -6.67922e-08 0)
(-0.619608 -6.59556e-08 0)
(-0.617044 -6.51364e-08 0)
(-0.614512 -6.43341e-08 0)
(-0.612011 -6.35483e-08 0)
(-0.60954 -6.27783e-08 0)
(-0.607099 -6.20239e-08 0)
(-0.604688 -6.12846e-08 0)
(-0.602305 -6.056e-08 0)
(-0.59995 -5.98496e-08 0)
(-0.597623 -5.91532e-08 0)
(-0.595322 -5.84702e-08 0)
(-0.593048 -5.78005e-08 0)
(-0.5908 -5.71435e-08 0)
(-0.588578 -5.64991e-08 0)
(-0.58638 -5.58668e-08 0)
(-0.584207 -5.52464e-08 0)
(-0.582058 -5.46376e-08 0)
(-0.579933 -5.404e-08 0)
(-0.57783 -5.34535e-08 0)
(-0.575751 -5.28777e-08 0)
(-0.573693 -5.23124e-08 0)
(-0.571658 -5.17573e-08 0)
(-0.569644 -5.12122e-08 0)
(-0.567651 -5.06769e-08 0)
(-0.56568 -5.01512e-08 0)
(-0.563728 -4.96348e-08 0)
(-0.561796 -4.91276e-08 0)
(-0.559885 -4.86294e-08 0)
(-0.557992 -4.81399e-08 0)
(-0.556118 -4.76591e-08 0)
(-0.554263 -4.71867e-08 0)
(-0.552427 -4.67226e-08 0)
(-0.550608 -4.62667e-08 0)
(-0.548807 -4.58189e-08 0)
(-0.547024 -4.53791e-08 0)
(-0.545257 -4.49471e-08 0)
(-0.543507 -4.4523e-08 0)
(-0.541774 -4.41067e-08 0)
(-0.540056 -4.36983e-08 0)
(-0.538355 -4.32977e-08 0)
(-0.536669 -4.2905e-08 0)
(-0.534998 -4.25206e-08 0)
(-0.533343 -4.21446e-08 0)
(-0.531701 -4.17775e-08 0)
(-0.530074 -4.14199e-08 0)
(-0.528461 -4.10727e-08 0)
(-0.526861 -4.07374e-08 0)
(-0.525274 -4.04152e-08 0)
(-0.523699 -4.01093e-08 0)
(-0.522136 -3.98321e-08 0)
(-0.520583 -3.95533e-08 0)
(-0.519042 -3.93324e-08 0)
(-0.517506 -3.93935e-08 0)
(-0.51596 -3.87117e-08 0)
(-0.514478 -3.78424e-08 0)
(-0.512999 -5.00087e-08 0)
(-0.510565 -1.40035e-08 0)
(-0.511915 -3.69209e-08 0)
(-0.507633 -5.56593e-08 0)
)
;
    }
    symmetry
    {
        type            symmetryPlane;
    }
    frontAndBack
    {
        type            empty;
    }
}


// ************************************************************************* //
