/*--------------------------------*- C++ -*----------------------------------*\
| =========                 |                                                 |
| \\      /  F ield         | OpenFOAM: The Open Source CFD Toolbox           |
|  \\    /   O peration     | Version:  v2012                                 |
|   \\  /    A nd           | Website:  www.openfoam.com                      |
|    \\/     M anipulation  |                                                 |
\*---------------------------------------------------------------------------*/
FoamFile
{
    version     2.0;
    format      ascii;
    class       volScalarField;
    location    "50.5";
    object      yPlus;
}
// * * * * * * * * * * * * * * * * * * * * * * * * * * * * * * * * * * * * * //

dimensions      [0 0 0 0 0 0 0];


internalField   uniform 0;

boundaryField
{
    inlet
    {
        type            calculated;
        value           uniform 0;
    }
    outlet
    {
        type            calculated;
        value           uniform 0;
    }
    topWall
    {
        type            calculated;
        value           nonuniform List<scalar> 
545
(
0.0708347
0.12214
0.156687
0.184171
0.207426
0.22776
0.245908
0.262333
0.27735
0.291186
0.304009
0.315953
0.327122
0.3376
0.347459
0.356756
0.365543
0.373862
0.381752
0.389245
0.39637
0.403154
0.409619
0.415787
0.421677
0.427305
0.432687
0.437837
0.44277
0.447496
0.452027
0.456374
0.460546
0.464551
0.4684
0.472098
0.475653
0.479073
0.482364
0.485531
0.488581
0.491518
0.494348
0.497075
0.499704
0.502239
0.504685
0.507044
0.509321
0.511518
0.51364
0.515689
0.517669
0.519581
0.521429
0.523215
0.524941
0.526611
0.528225
0.529787
0.531297
0.532759
0.534173
0.535542
0.536867
0.53815
0.539393
0.540596
0.541761
0.54289
0.543983
0.545043
0.546057
0.547036
0.548007
0.548969
0.549923
0.550868
0.551805
0.552733
0.553653
0.554565
0.555469
0.556364
0.557252
0.558132
0.559005
0.55987
0.560727
0.561576
0.562419
0.563253
0.564081
0.564902
0.565715
0.566521
0.567247
0.567896
0.568544
0.569191
0.569838
0.570484
0.571129
0.571774
0.572418
0.573061
0.573704
0.574345
0.574987
0.575627
0.576267
0.576906
0.577544
0.578182
0.578819
0.579455
0.58009
0.580724
0.581358
0.581991
0.582623
0.583255
0.583885
0.584515
0.585144
0.585772
0.586399
0.587025
0.587651
0.588276
0.588899
0.589522
0.590144
0.590766
0.591386
0.592005
0.592623
0.593241
0.593857
0.594473
0.595088
0.595701
0.596314
0.596926
0.597537
0.598146
0.598755
0.599363
0.59997
0.600575
0.60118
0.601784
0.602386
0.602988
0.603588
0.604188
0.604786
0.605383
0.605979
0.606574
0.607168
0.607761
0.608353
0.608943
0.609532
0.610121
0.610708
0.611293
0.611878
0.612461
0.613044
0.613625
0.614204
0.614783
0.61536
0.615936
0.616511
0.617084
0.617656
0.618227
0.618797
0.619365
0.619932
0.620498
0.621062
0.621625
0.622187
0.622747
0.623306
0.623863
0.624419
0.624974
0.625527
0.626079
0.626629
0.627178
0.627725
0.628271
0.628816
0.629359
0.6299
0.63044
0.630979
0.631516
0.632051
0.632585
0.633117
0.633648
0.634177
0.634705
0.635231
0.635755
0.636278
0.636799
0.637319
0.637837
0.638353
0.638867
0.63938
0.639891
0.640401
0.640908
0.641414
0.641919
0.642421
0.642922
0.643421
0.643918
0.644414
0.644907
0.645399
0.645889
0.646377
0.646864
0.647348
0.647831
0.648312
0.648791
0.649268
0.649743
0.650216
0.650687
0.651157
0.651624
0.65209
0.652553
0.653015
0.653474
0.653932
0.654387
0.654841
0.655292
0.655742
0.656189
0.656635
0.657078
0.657519
0.657958
0.658395
0.65883
0.659263
0.659693
0.660122
0.660548
0.660972
0.661394
0.661814
0.662232
0.662647
0.663037
0.663404
0.663772
0.664142
0.664513
0.664885
0.665259
0.665634
0.66601
0.666387
0.666765
0.667144
0.667524
0.667906
0.668288
0.668671
0.669054
0.669439
0.669824
0.67021
0.670596
0.670983
0.67137
0.671758
0.672146
0.672534
0.672923
0.673312
0.6737
0.674089
0.674477
0.674866
0.675254
0.675642
0.676029
0.676416
0.676802
0.677188
0.677573
0.677957
0.67834
0.678721
0.679102
0.679482
0.67986
0.680236
0.680611
0.680985
0.681356
0.681726
0.682093
0.682458
0.682821
0.683182
0.68354
0.683895
0.684248
0.684597
0.684944
0.685287
0.685627
0.685963
0.686296
0.686625
0.68695
0.68727
0.687587
0.687899
0.688206
0.688508
0.688806
0.689098
0.689385
0.689667
0.689943
0.690213
0.690477
0.690735
0.690987
0.691231
0.69147
0.691701
0.691925
0.692141
0.69235
0.692551
0.692744
0.692929
0.693106
0.693274
0.693433
0.693583
0.693724
0.693855
0.693977
0.694088
0.69419
0.694281
0.694361
0.694431
0.69449
0.694537
0.694573
0.694597
0.694609
0.694609
0.694596
0.694571
0.694533
0.694482
0.694417
0.694339
0.694247
0.694141
0.694021
0.693886
0.693737
0.693573
0.693393
0.693199
0.692988
0.692762
0.69252
0.692262
0.691987
0.691696
0.691388
0.691063
0.690721
0.690362
0.689985
0.68959
0.689178
0.688747
0.688299
0.687832
0.687346
0.686842
0.68632
0.685778
0.685218
0.684638
0.684039
0.683421
0.682784
0.682127
0.681451
0.680755
0.68004
0.679305
0.67855
0.677776
0.676982
0.676168
0.675335
0.674482
0.673609
0.672717
0.671805
0.670874
0.669923
0.668954
0.667965
0.666957
0.66593
0.664884
0.663819
0.662736
0.661635
0.660516
0.659379
0.658224
0.657052
0.655862
0.654656
0.653433
0.652193
0.650937
0.649666
0.648379
0.647077
0.645612
0.643992
0.642373
0.640756
0.639141
0.63753
0.635923
0.634321
0.632725
0.631135
0.629553
0.627978
0.626411
0.624854
0.623305
0.621767
0.620239
0.618722
0.617217
0.615723
0.614242
0.612773
0.611317
0.609874
0.608445
0.60703
0.60563
0.604244
0.602873
0.601517
0.600176
0.598851
0.597542
0.59625
0.594974
0.593714
0.592471
0.591245
0.590037
0.588846
0.587672
0.586517
0.585379
0.58426
0.583158
0.582076
0.581012
0.579967
0.57894
0.577933
0.576945
0.575977
0.575028
0.574099
0.57319
0.572301
0.571432
0.570584
0.569756
0.568948
0.568161
0.567395
0.56665
0.565926
0.565224
0.564543
0.563883
0.563245
0.562628
0.562034
0.561461
0.560911
0.560383
0.559877
0.559393
0.558932
0.558494
0.558078
0.557685
0.557315
0.556968
0.556644
0.556343
0.556065
0.555811
0.55558
0.555372
0.555187
0.555026
0.554889
0.554775
0.554684
0.554617
0.554576
0.554547
)
;
    }
    bottomWall
    {
        type            calculated;
        value           nonuniform List<scalar> 
449
(
0.13944
0.0889537
0.0758043
0.0694332
0.0652504
0.0621243
0.0596297
0.0575665
0.0558158
0.0542998
0.0529663
0.0517789
0.0507111
0.0497426
0.0488581
0.048045
0.0472936
0.0465958
0.0459451
0.045336
0.0447639
0.044225
0.0437157
0.0432334
0.0427755
0.0423398
0.0419245
0.0415279
0.0411484
0.0407849
0.040436
0.0401008
0.0397783
0.0394676
0.039168
0.0388787
0.0385992
0.0383288
0.038067
0.0378134
0.0375673
0.0373286
0.0370967
0.0368713
0.036652
0.0364387
0.0362309
0.0360285
0.0358311
0.0356386
0.0354506
0.0352672
0.0350879
0.0349127
0.0347414
0.0345739
0.0344099
0.0342493
0.0340921
0.0339381
0.0337871
0.0336391
0.0334939
0.0333515
0.0332117
0.0330745
0.0329397
0.0328074
0.0326774
0.0325496
0.0324239
0.0323004
0.0321789
0.0320594
0.0319418
0.0318261
0.0317121
0.0315999
0.0314894
0.0313806
0.0312733
0.0311677
0.0310635
0.0309608
0.0308596
0.0307597
0.0306613
0.0305641
0.0304683
0.0303737
0.0302804
0.0301882
0.0300972
0.0300074
0.0299187
0.0298311
0.0297445
0.029659
0.0295745
0.029491
0.0294085
0.0293269
0.0292463
0.0291665
0.0290877
0.0290097
0.0289326
0.0288564
0.0287809
0.0287062
0.0286324
0.0285593
0.0284869
0.0284153
0.0283444
0.0282743
0.0282048
0.028136
0.0280679
0.0280005
0.0279337
0.0278675
0.0278019
0.027737
0.0276727
0.0276089
0.0275458
0.0274832
0.0274211
0.0273597
0.0272987
0.0272383
0.0271784
0.0271191
0.0270602
0.0270018
0.0269439
0.0268865
0.0268296
0.0267732
0.0267172
0.0266616
0.0266065
0.0265518
0.0264976
0.0264438
0.0263904
0.0263374
0.0262848
0.0262326
0.0261808
0.0261294
0.0260784
0.0260278
0.0259775
0.0259276
0.0258781
0.0258289
0.02578
0.0257315
0.0256834
0.0256355
0.0255881
0.0255409
0.025494
0.0254475
0.0254013
0.0253554
0.0253098
0.0252645
0.0252195
0.0251748
0.0251304
0.0250888
0.0250497
0.0250103
0.0249709
0.0249314
0.0248918
0.0248521
0.0248122
0.0247723
0.0247322
0.024692
0.0246518
0.0246114
0.0245709
0.0245303
0.0244896
0.0244489
0.024408
0.024367
0.0243259
0.0242847
0.0242434
0.0242021
0.0241606
0.024119
0.0240774
0.0240357
0.0239938
0.0239519
0.0239099
0.0238679
0.0238257
0.0237835
0.0237411
0.0236987
0.0236562
0.0236137
0.023571
0.0235283
0.0234856
0.0234427
0.0233998
0.0233568
0.0233137
0.0232706
0.0232274
0.0231841
0.0231408
0.0230974
0.023054
0.0230105
0.0229669
0.0229233
0.0228796
0.0228359
0.0227921
0.0227483
0.0227044
0.0226604
0.0226164
0.0225724
0.0225283
0.0224842
0.0224401
0.0223959
0.0223516
0.0223073
0.022263
0.0222186
0.0221742
0.0221298
0.0220853
0.0220409
0.0219963
0.0219518
0.0219072
0.0218626
0.0218179
0.0217733
0.0217286
0.0216839
0.0216392
0.0215944
0.0215496
0.0215048
0.02146
0.0214152
0.0213704
0.0213255
0.0212807
0.0212358
0.0211909
0.0211461
0.0211012
0.0210563
0.0210113
0.0209664
0.0209215
0.0208766
0.0208317
0.0207868
0.0207419
0.0206969
0.020652
0.0206071
0.0205622
0.0205173
0.0204724
0.0204276
0.0203827
0.0203378
0.020293
0.0202481
0.0202033
0.0201585
0.0201137
0.0200689
0.0200242
0.0199794
0.0199347
0.01989
0.0198453
0.0198006
0.019756
0.0197114
0.0196668
0.0196222
0.0195777
0.0195332
0.0194887
0.0194442
0.0193998
0.0193554
0.019311
0.0192667
0.0192224
0.0191781
0.0191339
0.0190897
0.0190455
0.0190014
0.0189573
0.0189132
0.0188692
0.0188252
0.0187813
0.0187374
0.0186935
0.0186497
0.018606
0.0185622
0.0185185
0.0184749
0.0184313
0.0183878
0.0183443
0.0183008
0.0182574
0.0182141
0.0181708
0.0181275
0.0180843
0.0180412
0.0179981
0.017955
0.017912
0.0178691
0.0178262
0.0177834
0.0177406
0.0176979
0.0176552
0.0176126
0.01757
0.0175275
0.0174851
0.0174427
0.0174004
0.0173582
0.017316
0.0172738
0.017227
0.017176
0.0171259
0.0170764
0.0170276
0.0169794
0.016932
0.0168852
0.0168391
0.0167936
0.0167486
0.0167043
0.0166606
0.0166175
0.0165749
0.0165328
0.0164913
0.0164503
0.0164098
0.0163698
0.0163303
0.0162913
0.0162527
0.0162146
0.0161769
0.0161397
0.0161029
0.0160665
0.0160305
0.015995
0.0159598
0.015925
0.0158906
0.0158565
0.0158228
0.0157895
0.0157565
0.0157239
0.0156916
0.0156596
0.015628
0.0155967
0.0155657
0.015535
0.0155046
0.0154745
0.0154447
0.0154151
0.0153859
0.0153569
0.0153282
0.0152998
0.0152716
0.0152437
0.0152161
0.0151887
0.0151615
0.0151346
0.0151079
0.0150814
0.0150552
0.0150292
0.0150035
0.0149779
0.0149526
0.0149275
0.0149025
0.0148778
0.0148533
0.014829
0.0148049
0.014781
0.0147572
0.0147337
0.0147103
0.0146871
0.0146641
0.0146413
0.0146186
0.0145961
0.0145737
0.0145515
0.0145295
0.0145076
0.0144858
0.0144642
0.0144427
0.0144213
0.0143999
0.0143784
0.0143577
0.0143371
0.014303
0.0143219
0.0142619
)
;
    }
    symmetry
    {
        type            symmetryPlane;
    }
    frontAndBack
    {
        type            empty;
    }
}


// ************************************************************************* //
