/*--------------------------------*- C++ -*----------------------------------*\
| =========                 |                                                 |
| \\      /  F ield         | OpenFOAM: The Open Source CFD Toolbox           |
|  \\    /   O peration     | Version:  v2012                                 |
|   \\  /    A nd           | Website:  www.openfoam.com                      |
|    \\/     M anipulation  |                                                 |
\*---------------------------------------------------------------------------*/
FoamFile
{
    version     2.0;
    format      ascii;
    class       volScalarField;
    location    "4.5";
    object      p;
}
// * * * * * * * * * * * * * * * * * * * * * * * * * * * * * * * * * * * * * //

dimensions      [0 2 -2 0 0 0 0];


internalField   nonuniform List<scalar> 
209825
(
6.93553
6.93829
6.94513
6.95546
6.9687
6.98464
7.00321
7.02429
7.04779
7.07358
7.10159
7.13175
7.16398
7.19823
7.23446
7.27263
7.3127
7.35465
7.39844
7.44408
7.49153
7.54079
7.59187
7.64475
7.69944
7.75594
7.81427
7.87444
7.93646
8.00035
8.06614
8.13385
8.20351
8.27515
8.3488
8.42452
8.50232
8.58227
8.66441
8.7488
8.83548
8.92453
9.016
9.10997
9.20651
9.3057
9.40763
9.51238
9.62006
9.73077
9.84462
9.96173
10.0822
10.2063
10.3339
10.4655
10.601
10.7407
10.8848
11.0334
11.1869
11.3454
11.5093
11.6787
11.8541
12.0358
12.224
12.4194
12.6222
12.833
13.0523
13.2806
13.5157
13.7601
14.021
14.3004
14.6007
14.9249
15.2761
15.6584
16.0765
16.5366
17.046
17.6145
18.2543
18.9818
19.8189
20.7972
21.9583
23.3783
25.1342
27.5073
30.5196
36.0846
42.3746
75.1322
6.93553
6.93829
6.94513
6.95546
6.9687
6.98464
7.00321
7.02429
7.04779
7.07358
7.10159
7.13175
7.16398
7.19823
7.23446
7.27263
7.3127
7.35465
7.39844
7.44408
7.49153
7.54079
7.59187
7.64475
7.69944
7.75594
7.81427
7.87444
7.93646
8.00035
8.06614
8.13385
8.20351
8.27515
8.3488
8.42452
8.50232
8.58227
8.66441
8.7488
8.83548
8.92453
9.016
9.10997
9.20651
9.3057
9.40763
9.51238
9.62006
9.73077
9.84462
9.96173
10.0822
10.2063
10.3339
10.4655
10.601
10.7407
10.8848
11.0334
11.1869
11.3454
11.5093
11.6787
11.8541
12.0358
12.224
12.4194
12.6222
12.833
13.0522
13.2806
13.5157
13.7601
14.021
14.3003
14.6007
14.9249
15.2761
15.6584
16.0765
16.5366
17.046
17.6145
18.2543
18.9818
19.8188
20.7971
21.9582
23.3782
25.1341
27.507
30.5192
36.0821
42.3538
74.4952
6.93553
6.93829
6.94513
6.95546
6.9687
6.98464
7.00321
7.02429
7.04779
7.07358
7.10159
7.13175
7.16398
7.19823
7.23446
7.27263
7.3127
7.35465
7.39844
7.44408
7.49153
7.54079
7.59187
7.64475
7.69944
7.75594
7.81427
7.87444
7.93646
8.00035
8.06614
8.13385
8.20351
8.27515
8.3488
8.42452
8.50232
8.58227
8.66441
8.7488
8.83548
8.92453
9.016
9.10997
9.20651
9.3057
9.40763
9.51238
9.62006
9.73077
9.84462
9.96173
10.0822
10.2062
10.3339
10.4655
10.601
10.7407
10.8848
11.0334
11.1869
11.3454
11.5093
11.6787
11.8541
12.0358
12.224
12.4194
12.6222
12.8329
13.0522
13.2806
13.5157
13.7601
14.021
14.3003
14.6007
14.9249
15.2761
15.6584
16.0765
16.5365
17.046
17.6145
18.2542
18.9817
19.8188
20.797
21.9581
23.378
25.1338
27.5065
30.5184
36.0781
42.3315
73.7254
6.93553
6.93829
6.94513
6.95546
6.9687
6.98464
7.00321
7.02429
7.04779
7.07358
7.10159
7.13175
7.16398
7.19823
7.23446
7.27263
7.3127
7.35465
7.39844
7.44408
7.49153
7.54079
7.59187
7.64475
7.69944
7.75594
7.81427
7.87444
7.93646
8.00035
8.06614
8.13385
8.20351
8.27515
8.3488
8.42452
8.50232
8.58227
8.66441
8.7488
8.83548
8.92453
9.016
9.10997
9.20651
9.3057
9.40762
9.51238
9.62006
9.73077
9.84462
9.96173
10.0822
10.2062
10.3339
10.4655
10.601
10.7407
10.8848
11.0334
11.1869
11.3454
11.5093
11.6787
11.8541
12.0357
12.224
12.4194
12.6222
12.8329
13.0522
13.2806
13.5157
13.7601
14.0209
14.3003
14.6007
14.9249
15.2761
15.6583
16.0765
16.5365
17.046
17.6144
18.2542
18.9816
19.8187
20.7969
21.9579
23.3777
25.1334
27.5057
30.5172
36.0723
42.3115
72.9634
6.93553
6.93829
6.94513
6.95546
6.9687
6.98464
7.00321
7.02429
7.04779
7.07358
7.10159
7.13175
7.16398
7.19823
7.23446
7.27263
7.3127
7.35465
7.39844
7.44408
7.49153
7.54079
7.59187
7.64475
7.69944
7.75594
7.81427
7.87444
7.93646
8.00035
8.06614
8.13385
8.20351
8.27515
8.3488
8.42451
8.50232
8.58227
8.66441
8.7488
8.83548
8.92453
9.016
9.10997
9.20651
9.3057
9.40762
9.51238
9.62006
9.73077
9.84462
9.96173
10.0822
10.2062
10.3339
10.4655
10.601
10.7407
10.8848
11.0334
11.1869
11.3454
11.5093
11.6787
11.8541
12.0357
12.224
12.4193
12.6222
12.8329
13.0522
13.2806
13.5157
13.7601
14.0209
14.3003
14.6007
14.9248
15.2761
15.6583
16.0764
16.5365
17.0459
17.6143
18.2541
18.9815
19.8185
20.7967
21.9576
23.3773
25.1328
27.5046
30.5156
36.0647
42.2917
72.2143
6.93553
6.93829
6.94513
6.95546
6.9687
6.98464
7.00321
7.02429
7.04779
7.07358
7.10159
7.13175
7.16398
7.19823
7.23446
7.27263
7.3127
7.35465
7.39844
7.44408
7.49153
7.54079
7.59187
7.64475
7.69944
7.75594
7.81427
7.87444
7.93646
8.00035
8.06614
8.13385
8.20351
8.27515
8.3488
8.42451
8.50232
8.58227
8.66441
8.7488
8.83548
8.92453
9.016
9.10997
9.20651
9.3057
9.40762
9.51238
9.62006
9.73076
9.84461
9.96172
10.0822
10.2062
10.3339
10.4655
10.601
10.7407
10.8847
11.0334
11.1869
11.3454
11.5092
11.6787
11.8541
12.0357
12.224
12.4193
12.6221
12.8329
13.0522
13.2806
13.5157
13.7601
14.0209
14.3003
14.6007
14.9248
15.276
15.6582
16.0764
16.5364
17.0458
17.6142
18.254
18.9814
19.8183
20.7965
21.9573
23.3768
25.1321
27.5033
30.5136
36.0553
42.2696
71.4687
6.93553
6.93829
6.94513
6.95546
6.9687
6.98464
7.00321
7.02429
7.04779
7.07358
7.10159
7.13175
7.16398
7.19823
7.23446
7.27263
7.3127
7.35465
7.39844
7.44408
7.49153
7.54079
7.59187
7.64475
7.69944
7.75594
7.81427
7.87444
7.93646
8.00035
8.06614
8.13385
8.20351
8.27515
8.3488
8.42451
8.50232
8.58227
8.66441
8.74879
8.83548
8.92452
9.016
9.10996
9.2065
9.30569
9.40762
9.51237
9.62005
9.73076
9.84461
9.96172
10.0822
10.2062
10.3339
10.4655
10.601
10.7407
10.8847
11.0334
11.1869
11.3454
11.5092
11.6787
11.8541
12.0357
12.224
12.4193
12.6221
12.8329
13.0522
13.2806
13.5156
13.7601
14.0209
14.3002
14.6006
14.9248
15.276
15.6582
16.0763
16.5363
17.0457
17.6141
18.2538
18.9812
19.8181
20.7961
21.9569
23.3762
25.1312
27.5016
30.511
36.0439
42.244
70.7241
6.93553
6.93829
6.94513
6.95546
6.9687
6.98464
7.00321
7.02429
7.04779
7.07358
7.10159
7.13174
7.16398
7.19823
7.23446
7.27263
7.3127
7.35465
7.39844
7.44408
7.49153
7.54079
7.59187
7.64475
7.69943
7.75594
7.81427
7.87443
7.93646
8.00035
8.06614
8.13385
8.20351
8.27515
8.3488
8.42451
8.50232
8.58227
8.66441
8.74879
8.83548
8.92452
9.01599
9.10996
9.2065
9.30569
9.40762
9.51237
9.62005
9.73076
9.84461
9.96172
10.0822
10.2062
10.3339
10.4654
10.601
10.7407
10.8847
11.0334
11.1869
11.3454
11.5092
11.6787
11.8541
12.0357
12.224
12.4193
12.6221
12.8329
13.0522
13.2805
13.5156
13.76
14.0208
14.3002
14.6006
14.9247
15.2759
15.6581
16.0762
16.5362
17.0456
17.614
18.2536
18.981
19.8178
20.7958
21.9564
23.3755
25.1301
27.4996
30.508
36.0304
42.2148
69.9797
6.93553
6.93829
6.94513
6.95546
6.9687
6.98464
7.00321
7.02429
7.04779
7.07358
7.10159
7.13174
7.16398
7.19823
7.23446
7.27263
7.3127
7.35465
7.39844
7.44408
7.49153
7.54079
7.59187
7.64475
7.69943
7.75594
7.81427
7.87443
7.93645
8.00035
8.06614
8.13385
8.2035
8.27514
8.3488
8.42451
8.50232
8.58227
8.66441
8.74879
8.83548
8.92452
9.01599
9.10996
9.2065
9.30569
9.40762
9.51237
9.62005
9.73076
9.8446
9.96171
10.0822
10.2062
10.3339
10.4654
10.601
10.7407
10.8847
11.0334
11.1868
11.3454
11.5092
11.6787
11.8541
12.0357
12.224
12.4193
12.6221
12.8329
13.0521
13.2805
13.5156
13.76
14.0208
14.3002
14.6005
14.9247
15.2758
15.658
16.0761
16.5361
17.0455
17.6138
18.2535
18.9807
19.8175
20.7954
21.9558
23.3746
25.1288
27.4972
30.5044
36.0147
42.1818
69.2355
6.93553
6.93829
6.94513
6.95546
6.9687
6.98464
7.0032
7.02429
7.04779
7.07358
7.10159
7.13174
7.16398
7.19823
7.23446
7.27263
7.3127
7.35465
7.39844
7.44407
7.49153
7.54079
7.59187
7.64475
7.69943
7.75594
7.81427
7.87443
7.93645
8.00035
8.06614
8.13384
8.2035
8.27514
8.3488
8.42451
8.50232
8.58227
8.66441
8.74879
8.83547
8.92452
9.01599
9.10996
9.2065
9.30569
9.40761
9.51237
9.62004
9.73075
9.8446
9.96171
10.0822
10.2062
10.3339
10.4654
10.601
10.7406
10.8847
11.0334
11.1868
11.3454
11.5092
11.6787
11.854
12.0357
12.224
12.4193
12.6221
12.8328
13.0521
13.2805
13.5155
13.76
14.0208
14.3001
14.6005
14.9246
15.2758
15.658
16.076
16.536
17.0453
17.6136
18.2532
18.9805
19.8171
20.7949
21.9551
23.3736
25.1274
27.4944
30.5003
35.9969
42.1451
68.4914
6.93553
6.93829
6.94513
6.95546
6.9687
6.98464
7.0032
7.02429
7.04779
7.07358
7.10159
7.13174
7.16398
7.19823
7.23446
7.27263
7.3127
7.35465
7.39844
7.44407
7.49153
7.54079
7.59187
7.64474
7.69943
7.75594
7.81427
7.87443
7.93645
8.00035
8.06613
8.13384
8.2035
8.27514
8.3488
8.42451
8.50232
8.58227
8.66441
8.74879
8.83547
8.92452
9.01599
9.10996
9.20649
9.30568
9.40761
9.51236
9.62004
9.73075
9.8446
9.9617
10.0822
10.2062
10.3339
10.4654
10.6009
10.7406
10.8847
11.0334
11.1868
11.3453
11.5092
11.6786
11.854
12.0357
12.2239
12.4192
12.622
12.8328
13.0521
13.2804
13.5155
13.7599
14.0207
14.3001
14.6004
14.9245
15.2757
15.6579
16.0759
16.5358
17.0452
17.6134
18.253
18.9801
19.8167
20.7943
21.9543
23.3725
25.1257
27.4913
30.4956
35.9769
42.1047
67.748
6.93553
6.93829
6.94513
6.95546
6.9687
6.98464
7.0032
7.02429
7.04779
7.07358
7.10159
7.13174
7.16397
7.19823
7.23446
7.27263
7.3127
7.35464
7.39844
7.44407
7.49153
7.54079
7.59186
7.64474
7.69943
7.75594
7.81427
7.87443
7.93645
8.00035
8.06613
8.13384
8.2035
8.27514
8.3488
8.42451
8.50231
8.58226
8.6644
8.74879
8.83547
8.92451
9.01599
9.10995
9.20649
9.30568
9.40761
9.51236
9.62004
9.73074
9.84459
9.9617
10.0822
10.2062
10.3339
10.4654
10.6009
10.7406
10.8847
11.0334
11.1868
11.3453
11.5092
11.6786
11.854
12.0356
12.2239
12.4192
12.622
12.8328
13.052
13.2804
13.5155
13.7599
14.0207
14.3
14.6003
14.9244
15.2756
15.6577
16.0758
16.5357
17.045
17.6132
18.2527
18.9798
19.8162
20.7937
21.9535
23.3712
25.1238
27.4878
30.4903
35.9546
42.0603
67.0053
6.93553
6.93829
6.94513
6.95546
6.9687
6.98464
7.0032
7.02429
7.04779
7.07358
7.10159
7.13174
7.16397
7.19823
7.23446
7.27263
7.3127
7.35464
7.39844
7.44407
7.49153
7.54079
7.59186
7.64474
7.69943
7.75594
7.81426
7.87443
7.93645
8.00034
8.06613
8.13384
8.2035
8.27514
8.3488
8.42451
8.50231
8.58226
8.6644
8.74878
8.83547
8.92451
9.01598
9.10995
9.20649
9.30568
9.4076
9.51235
9.62003
9.73074
9.84458
9.96169
10.0822
10.2062
10.3339
10.4654
10.6009
10.7406
10.8847
11.0333
11.1868
11.3453
11.5092
11.6786
11.854
12.0356
12.2239
12.4192
12.622
12.8327
13.052
13.2803
13.5154
13.7598
14.0206
14.2999
14.6002
14.9243
15.2755
15.6576
16.0756
16.5355
17.0448
17.6129
18.2523
18.9793
19.8157
20.7929
21.9525
23.3698
25.1217
27.4839
30.4843
35.93
42.0119
66.2638
6.93552
6.93829
6.94513
6.95546
6.9687
6.98464
7.0032
7.02429
7.04779
7.07358
7.10159
7.13174
7.16397
7.19823
7.23446
7.27263
7.3127
7.35464
7.39844
7.44407
7.49153
7.54079
7.59186
7.64474
7.69943
7.75593
7.81426
7.87443
7.93645
8.00034
8.06613
8.13384
8.2035
8.27514
8.34879
8.4245
8.50231
8.58226
8.6644
8.74878
8.83546
8.92451
9.01598
9.10995
9.20648
9.30567
9.4076
9.51235
9.62003
9.73073
9.84458
9.96168
10.0822
10.2062
10.3339
10.4654
10.6009
10.7406
10.8847
11.0333
11.1868
11.3453
11.5091
11.6786
11.854
12.0356
12.2239
12.4192
12.6219
12.8327
13.052
13.2803
13.5153
13.7597
14.0205
14.2998
14.6002
14.9242
15.2753
15.6575
16.0754
16.5353
17.0445
17.6126
18.252
18.9789
19.8151
20.7921
21.9514
23.3682
25.1193
27.4795
30.4776
35.903
41.9594
65.5237
6.93552
6.93829
6.94513
6.95546
6.9687
6.98464
7.0032
7.02429
7.04779
7.07358
7.10159
7.13174
7.16397
7.19823
7.23446
7.27263
7.3127
7.35464
7.39844
7.44407
7.49152
7.54079
7.59186
7.64474
7.69943
7.75593
7.81426
7.87443
7.93645
8.00034
8.06613
8.13384
8.2035
8.27514
8.34879
8.4245
8.50231
8.58226
8.6644
8.74878
8.83546
8.92451
9.01598
9.10994
9.20648
9.30567
9.40759
9.51234
9.62002
9.73072
9.84457
9.96168
10.0822
10.2062
10.3339
10.4654
10.6009
10.7406
10.8847
11.0333
11.1868
11.3453
11.5091
11.6786
11.8539
12.0356
12.2238
12.4191
12.6219
12.8327
13.0519
13.2802
13.5153
13.7597
14.0204
14.2997
14.6
14.9241
15.2752
15.6573
16.0753
16.5351
17.0442
17.6123
18.2516
18.9784
19.8144
20.7913
21.9502
23.3664
25.1167
27.4746
30.4702
35.8737
41.9027
64.7852
6.93552
6.93829
6.94513
6.95546
6.9687
6.98464
7.0032
7.02429
7.04779
7.07358
7.10159
7.13174
7.16397
7.19823
7.23446
7.27263
7.3127
7.35464
7.39844
7.44407
7.49152
7.54079
7.59186
7.64474
7.69943
7.75593
7.81426
7.87443
7.93645
8.00034
8.06613
8.13384
8.20349
8.27513
8.34879
8.4245
8.50231
8.58225
8.66439
8.74878
8.83546
8.9245
9.01597
9.10994
9.20647
9.30566
9.40759
9.51234
9.62001
9.73072
9.84456
9.96167
10.0822
10.2062
10.3339
10.4654
10.6009
10.7406
10.8846
11.0333
11.1867
11.3453
11.5091
11.6785
11.8539
12.0355
12.2238
12.4191
12.6219
12.8326
13.0519
13.2802
13.5152
13.7596
14.0203
14.2996
14.5999
14.924
15.2751
15.6571
16.0751
16.5348
17.044
17.612
18.2511
18.9778
19.8137
20.7903
21.9489
23.3644
25.1139
27.4693
30.4621
35.8419
41.8416
64.0487
6.93552
6.93829
6.94513
6.95545
6.9687
6.98464
7.0032
7.02429
7.04779
7.07358
7.10159
7.13174
7.16397
7.19823
7.23446
7.27263
7.3127
7.35464
7.39844
7.44407
7.49152
7.54079
7.59186
7.64474
7.69943
7.75593
7.81426
7.87443
7.93645
8.00034
8.06613
8.13383
8.20349
8.27513
8.34879
8.4245
8.5023
8.58225
8.66439
8.74877
8.83545
8.9245
9.01597
9.10993
9.20647
9.30566
9.40758
9.51233
9.62
9.73071
9.84455
9.96166
10.0821
10.2062
10.3339
10.4654
10.6009
10.7406
10.8846
11.0333
11.1867
11.3452
11.5091
11.6785
11.8539
12.0355
12.2237
12.419
12.6218
12.8325
13.0518
13.2801
13.5151
13.7595
14.0203
14.2995
14.5998
14.9238
15.2749
15.6569
16.0748
16.5346
17.0436
17.6116
18.2506
18.9772
19.8129
20.7892
21.9474
23.3623
25.1107
27.4635
30.4531
35.8076
41.7761
63.3144
6.93552
6.93829
6.94513
6.95545
6.96869
6.98464
7.0032
7.02429
7.04779
7.07358
7.10159
7.13174
7.16397
7.19823
7.23446
7.27263
7.3127
7.35464
7.39844
7.44407
7.49152
7.54079
7.59186
7.64474
7.69943
7.75593
7.81426
7.87442
7.93644
8.00034
8.06612
8.13383
8.20349
8.27513
8.34878
8.42449
8.5023
8.58225
8.66439
8.74877
8.83545
8.92449
9.01596
9.10993
9.20646
9.30565
9.40757
9.51232
9.62
9.7307
9.84454
9.96165
10.0821
10.2062
10.3338
10.4653
10.6009
10.7405
10.8846
11.0332
11.1867
11.3452
11.509
11.6785
11.8538
12.0354
12.2237
12.419
12.6218
12.8325
13.0517
13.28
13.515
13.7594
14.0201
14.2994
14.5997
14.9237
15.2747
15.6567
16.0746
16.5343
17.0433
17.6111
18.2501
18.9765
19.812
20.7881
21.9458
23.36
25.1073
27.4572
30.4434
35.7709
41.7061
62.5826
6.93552
6.93829
6.94513
6.95545
6.96869
6.98464
7.0032
7.02429
7.04779
7.07358
7.10159
7.13174
7.16397
7.19823
7.23446
7.27263
7.3127
7.35464
7.39844
7.44407
7.49152
7.54079
7.59186
7.64474
7.69943
7.75593
7.81426
7.87442
7.93644
8.00033
8.06612
8.13383
8.20349
8.27513
8.34878
8.42449
8.5023
8.58224
8.66438
8.74876
8.83545
8.92449
9.01596
9.10992
9.20646
9.30564
9.40756
9.51231
9.61999
9.73069
9.84453
9.96164
10.0821
10.2061
10.3338
10.4653
10.6008
10.7405
10.8846
11.0332
11.1867
11.3452
11.509
11.6784
11.8538
12.0354
12.2237
12.4189
12.6217
12.8324
13.0517
13.28
13.515
13.7593
14.02
14.2993
14.5995
14.9235
15.2745
15.6565
16.0743
16.5339
17.0429
17.6107
18.2495
18.9758
19.8111
20.7868
21.9441
23.3574
25.1036
27.4504
30.4327
35.7315
41.6315
61.8535
6.93552
6.93829
6.94513
6.95545
6.96869
6.98464
7.0032
7.02429
7.04778
7.07358
7.10159
7.13174
7.16397
7.19823
7.23446
7.27262
7.31269
7.35464
7.39844
7.44407
7.49152
7.54078
7.59186
7.64474
7.69942
7.75593
7.81426
7.87442
7.93644
8.00033
8.06612
8.13383
8.20349
8.27512
8.34878
8.42449
8.50229
8.58224
8.66438
8.74876
8.83544
8.92448
9.01595
9.10991
9.20645
9.30564
9.40756
9.51231
9.61998
9.73068
9.84452
9.96162
10.0821
10.2061
10.3338
10.4653
10.6008
10.7405
10.8846
11.0332
11.1866
11.3451
11.509
11.6784
11.8537
12.0354
12.2236
12.4189
12.6216
12.8324
13.0516
13.2799
13.5149
13.7592
14.0199
14.2991
14.5994
14.9233
15.2743
15.6562
16.074
16.5336
17.0425
17.6101
18.2489
18.975
19.8101
20.7854
21.9422
23.3547
25.0995
27.4429
30.4211
35.6896
41.5522
61.1274
6.93552
6.93829
6.94513
6.95545
6.96869
6.98464
7.0032
7.02429
7.04778
7.07358
7.10159
7.13174
7.16397
7.19822
7.23446
7.27262
7.31269
7.35464
7.39844
7.44407
7.49152
7.54078
7.59186
7.64473
7.69942
7.75593
7.81425
7.87442
7.93644
8.00033
8.06612
8.13383
8.20348
8.27512
8.34877
8.42448
8.50229
8.58224
8.66437
8.74875
8.83543
8.92448
9.01594
9.10991
9.20644
9.30563
9.40755
9.5123
9.61997
9.73067
9.84451
9.96161
10.0821
10.2061
10.3338
10.4653
10.6008
10.7405
10.8845
11.0332
11.1866
11.3451
11.5089
11.6784
11.8537
12.0353
12.2235
12.4188
12.6216
12.8323
13.0515
13.2798
13.5148
13.7591
14.0198
14.299
14.5992
14.9231
15.2741
15.656
16.0737
16.5332
17.042
17.6096
18.2482
18.9741
19.809
20.7839
21.9402
23.3517
25.0952
27.4349
30.4086
35.645
41.4682
60.4045
6.93552
6.93829
6.94513
6.95545
6.96869
6.98464
7.0032
7.02429
7.04778
7.07358
7.10159
7.13174
7.16397
7.19822
7.23445
7.27262
7.31269
7.35464
7.39843
7.44407
7.49152
7.54078
7.59185
7.64473
7.69942
7.75592
7.81425
7.87442
7.93644
8.00033
8.06611
8.13382
8.20348
8.27512
8.34877
8.42448
8.50228
8.58223
8.66437
8.74875
8.83543
8.92447
9.01594
9.1099
9.20643
9.30562
9.40754
9.51229
9.61996
9.73066
9.8445
9.9616
10.0821
10.2061
10.3338
10.4653
10.6008
10.7405
10.8845
11.0331
11.1866
11.3451
11.5089
11.6783
11.8537
12.0353
12.2235
12.4187
12.6215
12.8322
13.0514
13.2797
13.5146
13.7589
14.0196
14.2988
14.599
14.9229
15.2738
15.6557
16.0734
16.5328
17.0415
17.609
18.2475
18.9732
19.8078
20.7824
21.938
23.3485
25.0904
27.4263
30.3951
35.5977
41.3793
59.6851
6.93552
6.93829
6.94513
6.95545
6.96869
6.98464
7.0032
7.02429
7.04778
7.07358
7.10159
7.13174
7.16397
7.19822
7.23445
7.27262
7.31269
7.35464
7.39843
7.44406
7.49152
7.54078
7.59185
7.64473
7.69942
7.75592
7.81425
7.87441
7.93643
8.00033
8.06611
8.13382
8.20348
8.27511
8.34877
8.42448
8.50228
8.58223
8.66436
8.74874
8.83542
8.92446
9.01593
9.10989
9.20643
9.30561
9.40753
9.51227
9.61994
9.73064
9.84448
9.96158
10.0821
10.2061
10.3337
10.4653
10.6008
10.7404
10.8845
11.0331
11.1865
11.345
11.5088
11.6783
11.8536
12.0352
12.2234
12.4187
12.6214
12.8321
13.0513
13.2796
13.5145
13.7588
14.0195
14.2986
14.5988
14.9227
15.2736
15.6554
16.073
16.5324
17.041
17.6084
18.2467
18.9722
19.8065
20.7806
21.9357
23.3451
25.0854
27.4171
30.3806
35.5477
41.2856
58.9695
6.93552
6.93829
6.94513
6.95545
6.96869
6.98463
7.0032
7.02429
7.04778
7.07358
7.10159
7.13174
7.16397
7.19822
7.23445
7.27262
7.31269
7.35463
7.39843
7.44406
7.49151
7.54078
7.59185
7.64473
7.69942
7.75592
7.81425
7.87441
7.93643
8.00032
8.06611
8.13382
8.20347
8.27511
8.34876
8.42447
8.50228
8.58222
8.66436
8.74874
8.83542
8.92446
9.01592
9.10988
9.20642
9.3056
9.40752
9.51226
9.61993
9.73063
9.84447
9.96156
10.082
10.2061
10.3337
10.4652
10.6007
10.7404
10.8844
11.0331
11.1865
11.345
11.5088
11.6782
11.8535
12.0351
12.2234
12.4186
12.6213
12.832
13.0512
13.2794
13.5144
13.7586
14.0193
14.2985
14.5986
14.9224
15.2733
15.655
16.0726
16.5319
17.0404
17.6077
18.2458
18.9711
19.8051
20.7788
21.9331
23.3414
25.0799
27.4072
30.3649
35.4949
41.1869
58.2577
6.93552
6.93829
6.94513
6.95545
6.96869
6.98463
7.0032
7.02429
7.04778
7.07358
7.10158
7.13174
7.16397
7.19822
7.23445
7.27262
7.31269
7.35463
7.39843
7.44406
7.49151
7.54078
7.59185
7.64473
7.69941
7.75592
7.81424
7.87441
7.93643
8.00032
8.06611
8.13381
8.20347
8.27511
8.34876
8.42447
8.50227
8.58222
8.66435
8.74873
8.83541
8.92445
9.01591
9.10988
9.20641
9.30559
9.40751
9.51225
9.61992
9.73061
9.84445
9.96155
10.082
10.206
10.3337
10.4652
10.6007
10.7404
10.8844
11.033
11.1865
11.3449
11.5088
11.6782
11.8535
12.0351
12.2233
12.4185
12.6212
12.8319
13.0511
13.2793
13.5142
13.7585
14.0191
14.2983
14.5983
14.9222
15.273
15.6547
16.0722
16.5314
17.0398
17.6069
18.2449
18.97
19.8036
20.7768
21.9304
23.3375
25.0741
27.3966
30.3481
35.4394
41.0832
57.5502
6.93552
6.93828
6.94512
6.95545
6.96869
6.98463
7.0032
7.02429
7.04778
7.07358
7.10158
7.13173
7.16397
7.19822
7.23445
7.27262
7.31269
7.35463
7.39843
7.44406
7.49151
7.54078
7.59185
7.64472
7.69941
7.75591
7.81424
7.87441
7.93642
8.00032
8.0661
8.13381
8.20346
8.2751
8.34875
8.42446
8.50226
8.58221
8.66434
8.74872
8.8354
8.92444
9.0159
9.10987
9.2064
9.30558
9.40749
9.51224
9.6199
9.7306
9.84443
9.96153
10.082
10.206
10.3337
10.4652
10.6007
10.7403
10.8844
11.033
11.1864
11.3449
11.5087
11.6781
11.8534
12.035
12.2232
12.4184
12.6211
12.8318
13.051
13.2792
13.5141
13.7583
14.0189
14.298
14.5981
14.9219
15.2726
15.6543
16.0717
16.5309
17.0392
17.6062
18.2439
18.9687
19.802
20.7747
21.9275
23.3332
25.0679
27.3854
30.3302
35.381
40.9744
56.8471
6.93552
6.93828
6.94512
6.95545
6.96869
6.98463
7.0032
7.02428
7.04778
7.07357
7.10158
7.13173
7.16396
7.19822
7.23445
7.27262
7.31269
7.35463
7.39843
7.44406
7.49151
7.54077
7.59184
7.64472
7.69941
7.75591
7.81424
7.8744
7.93642
8.00031
8.0661
8.1338
8.20346
8.2751
8.34875
8.42446
8.50226
8.5822
8.66434
8.74872
8.83539
8.92443
9.0159
9.10985
9.20638
9.30556
9.40748
9.51222
9.61989
9.73058
9.84441
9.96151
10.082
10.206
10.3337
10.4651
10.6006
10.7403
10.8843
11.033
11.1864
11.3448
11.5086
11.678
11.8534
12.0349
12.2231
12.4183
12.621
12.8317
13.0508
13.279
13.5139
13.7581
14.0187
14.2978
14.5978
14.9216
15.2723
15.6539
16.0712
16.5303
17.0385
17.6053
18.2429
18.9674
19.8003
20.7724
21.9244
23.3287
25.0612
27.3734
30.311
35.3198
40.8606
56.1487
6.93552
6.93828
6.94512
6.95545
6.96869
6.98463
7.0032
7.02428
7.04778
7.07357
7.10158
7.13173
7.16396
7.19822
7.23445
7.27262
7.31268
7.35463
7.39843
7.44406
7.49151
7.54077
7.59184
7.64472
7.69941
7.75591
7.81424
7.8744
7.93642
8.00031
8.06609
8.1338
8.20346
8.27509
8.34874
8.42445
8.50225
8.5822
8.66433
8.74871
8.83538
8.92442
9.01588
9.10984
9.20637
9.30555
9.40747
9.51221
9.61987
9.73056
9.84439
9.96148
10.082
10.206
10.3336
10.4651
10.6006
10.7403
10.8843
11.0329
11.1863
11.3448
11.5086
11.678
11.8533
12.0348
12.223
12.4182
12.6209
12.8316
13.0507
13.2789
13.5137
13.7579
14.0185
14.2975
14.5975
14.9212
15.2719
15.6534
16.0707
16.5297
17.0378
17.6044
18.2418
18.966
19.7985
20.77
21.9212
23.3239
25.0541
27.3606
30.2905
35.2556
40.7416
55.4551
6.93552
6.93828
6.94512
6.95545
6.96869
6.98463
7.00319
7.02428
7.04778
7.07357
7.10158
7.13173
7.16396
7.19822
7.23445
7.27261
7.31268
7.35463
7.39842
7.44405
7.49151
7.54077
7.59184
7.64472
7.6994
7.75591
7.81423
7.8744
7.93641
8.0003
8.06609
8.1338
8.20345
8.27509
8.34874
8.42444
8.50225
8.58219
8.66432
8.7487
8.83537
8.92441
9.01587
9.10983
9.20636
9.30554
9.40745
9.51219
9.61985
9.73054
9.84437
9.96146
10.0819
10.2059
10.3336
10.4651
10.6006
10.7402
10.8843
11.0329
11.1863
11.3447
11.5085
11.6779
11.8532
12.0347
12.2229
12.4181
12.6208
12.8314
13.0505
13.2787
13.5136
13.7577
14.0183
14.2973
14.5972
14.9209
15.2715
15.653
16.0702
16.529
17.037
17.6035
18.2406
18.9645
19.7966
20.7675
21.9176
23.3188
25.0465
27.3471
30.2687
35.1886
40.6174
54.7665
6.93552
6.93828
6.94512
6.95545
6.96869
6.98463
7.00319
7.02428
7.04778
7.07357
7.10158
7.13173
7.16396
7.19821
7.23444
7.27261
7.31268
7.35463
7.39842
7.44405
7.4915
7.54077
7.59184
7.64471
7.6994
7.7559
7.81423
7.87439
7.93641
8.0003
8.06609
8.13379
8.20345
8.27508
8.34873
8.42444
8.50224
8.58218
8.66431
8.74869
8.83536
8.9244
9.01586
9.10982
9.20635
9.30552
9.40743
9.51217
9.61983
9.73052
9.84435
9.96144
10.0819
10.2059
10.3336
10.465
10.6005
10.7402
10.8842
11.0328
11.1862
11.3447
11.5084
11.6778
11.8531
12.0347
12.2228
12.418
12.6207
12.8313
13.0504
13.2785
13.5134
13.7575
14.018
14.297
14.5969
14.9205
15.2711
15.6525
16.0696
16.5283
17.0361
17.6024
18.2393
18.9629
19.7945
20.7647
21.9139
23.3133
25.0385
27.3327
30.2456
35.1186
40.4881
54.0833
6.93551
6.93828
6.94512
6.95545
6.96869
6.98463
7.00319
7.02428
7.04777
7.07357
7.10158
7.13173
7.16396
7.19821
7.23444
7.27261
7.31268
7.35462
7.39842
7.44405
7.4915
7.54076
7.59183
7.64471
7.6994
7.7559
7.81423
7.87439
7.93641
8.0003
8.06608
8.13379
8.20344
8.27507
8.34872
8.42443
8.50223
8.58217
8.6643
8.74868
8.83535
8.92439
9.01585
9.10981
9.20633
9.30551
9.40742
9.51215
9.61981
9.7305
9.84433
9.96141
10.0819
10.2059
10.3335
10.465
10.6005
10.7401
10.8842
11.0328
11.1862
11.3446
11.5084
11.6777
11.853
12.0346
12.2227
12.4179
12.6205
12.8311
13.0502
13.2783
13.5131
13.7573
14.0178
14.2967
14.5966
14.9201
15.2706
15.6519
16.069
16.5276
17.0353
17.6014
18.238
18.9612
19.7923
20.7618
21.9099
23.3076
25.03
27.3175
30.221
35.0457
40.3535
53.4055
6.93551
6.93828
6.94512
6.95544
6.96868
6.98463
7.00319
7.02428
7.04777
7.07357
7.10158
7.13173
7.16396
7.19821
7.23444
7.27261
7.31268
7.35462
7.39842
7.44405
7.4915
7.54076
7.59183
7.64471
7.69939
7.7559
7.81422
7.87439
7.9364
8.00029
8.06608
8.13378
8.20343
8.27507
8.34872
8.42442
8.50222
8.58216
8.6643
8.74867
8.83534
8.92438
9.01584
9.10979
9.20632
9.30549
9.4074
9.51213
9.61979
9.73048
9.8443
9.96138
10.0818
10.2058
10.3335
10.465
10.6004
10.7401
10.8841
11.0327
11.1861
11.3445
11.5083
11.6777
11.8529
12.0345
12.2226
12.4178
12.6204
12.831
13.05
13.2781
13.5129
13.757
14.0175
14.2964
14.5962
14.9197
15.2701
15.6514
16.0683
16.5268
17.0343
17.6002
18.2366
18.9594
19.79
20.7587
21.9057
23.3014
25.0209
27.3014
30.1949
34.9698
40.2137
52.7333
6.93551
6.93828
6.94512
6.95544
6.96868
6.98463
7.00319
7.02428
7.04777
7.07357
7.10158
7.13173
7.16396
7.19821
7.23444
7.27261
7.31268
7.35462
7.39841
7.44404
7.4915
7.54076
7.59183
7.64471
7.69939
7.75589
7.81422
7.87438
7.9364
8.00029
8.06607
8.13377
8.20343
8.27506
8.34871
8.42441
8.50221
8.58215
8.66428
8.74866
8.83533
8.92436
9.01582
9.10978
9.2063
9.30547
9.40738
9.51211
9.61977
9.73045
9.84427
9.96135
10.0818
10.2058
10.3334
10.4649
10.6004
10.74
10.884
11.0326
11.186
11.3445
11.5082
11.6776
11.8528
12.0343
12.2225
12.4176
12.6202
12.8308
13.0498
13.2779
13.5127
13.7568
14.0172
14.296
14.5958
14.9193
15.2696
15.6508
16.0676
16.526
17.0333
17.599
18.2351
18.9575
19.7876
20.7555
21.9013
23.295
25.0113
27.2844
30.1673
34.8908
40.0687
52.067
6.93551
6.93828
6.94512
6.95544
6.96868
6.98462
7.00319
7.02428
7.04777
7.07357
7.10157
7.13172
7.16395
7.19821
7.23444
7.2726
7.31267
7.35462
7.39841
7.44404
7.49149
7.54076
7.59183
7.6447
7.69939
7.75589
7.81421
7.87438
7.93639
8.00028
8.06606
8.13377
8.20342
8.27505
8.3487
8.42441
8.5022
8.58214
8.66427
8.74865
8.83532
8.92435
9.01581
9.10976
9.20628
9.30545
9.40736
9.51209
9.61974
9.73042
9.84424
9.96132
10.0818
10.2058
10.3334
10.4649
10.6003
10.74
10.884
11.0326
11.1859
11.3444
11.5081
11.6775
11.8527
12.0342
12.2223
12.4175
12.6201
12.8306
13.0496
13.2777
13.5124
13.7565
14.0168
14.2957
14.5954
14.9188
15.2691
15.6502
16.0669
16.5251
17.0322
17.5977
18.2335
18.9555
19.7849
20.752
21.8965
23.2881
25.0011
27.2665
30.1381
34.8088
39.9184
51.4067
6.93551
6.93828
6.94511
6.95544
6.96868
6.98462
7.00319
7.02428
7.04777
7.07356
7.10157
7.13172
7.16395
7.19821
7.23444
7.2726
7.31267
7.35461
7.39841
7.44404
7.49149
7.54075
7.59182
7.6447
7.69938
7.75588
7.81421
7.87437
7.93639
8.00027
8.06606
8.13376
8.20341
8.27505
8.34869
8.4244
8.50219
8.58213
8.66426
8.74863
8.83531
8.92434
9.01579
9.10974
9.20626
9.30543
9.40734
9.51207
9.61972
9.7304
9.84421
9.96129
10.0817
10.2057
10.3334
10.4648
10.6003
10.7399
10.8839
11.0325
11.1859
11.3443
11.508
11.6774
11.8526
12.0341
12.2222
12.4173
12.6199
12.8304
13.0494
13.2775
13.5122
13.7562
14.0165
14.2953
14.595
14.9183
15.2685
15.6495
16.0661
16.5242
17.0311
17.5963
18.2318
18.9534
19.7822
20.7483
21.8915
23.2808
24.9904
27.2477
30.1073
34.7238
39.763
50.7525
6.93551
6.93828
6.94511
6.95544
6.96868
6.98462
7.00319
7.02427
7.04777
7.07356
7.10157
7.13172
7.16395
7.1982
7.23443
7.2726
7.31267
7.35461
7.39841
7.44404
7.49149
7.54075
7.59182
7.64469
7.69938
7.75588
7.8142
7.87437
7.93638
8.00027
8.06605
8.13375
8.20341
8.27504
8.34869
8.42439
8.50218
8.58212
8.66425
8.74862
8.83529
8.92432
9.01578
9.10972
9.20624
9.30541
9.40731
9.51204
9.61969
9.73037
9.84418
9.96125
10.0817
10.2057
10.3333
10.4648
10.6002
10.7399
10.8839
11.0324
11.1858
11.3442
11.5079
11.6773
11.8525
12.034
12.2221
12.4172
12.6197
12.8302
13.0492
13.2772
13.5119
13.7559
14.0162
14.2949
14.5945
14.9178
15.2679
15.6488
16.0652
16.5232
17.0299
17.5949
18.23
18.9511
19.7793
20.7445
21.8862
23.2731
24.9791
27.2278
30.0748
34.6356
39.6023
50.1046
6.93551
6.93827
6.94511
6.95544
6.96868
6.98462
7.00318
7.02427
7.04777
7.07356
7.10157
7.13172
7.16395
7.1982
7.23443
7.2726
7.31267
7.35461
7.3984
7.44403
7.49148
7.54074
7.59181
7.64469
7.69937
7.75587
7.8142
7.87436
7.93638
8.00026
8.06604
8.13375
8.2034
8.27503
8.34868
8.42438
8.50217
8.58211
8.66424
8.74861
8.83528
8.9243
9.01576
9.10971
9.20622
9.30539
9.40729
9.51201
9.61966
9.73033
9.84414
9.96121
10.0817
10.2056
10.3333
10.4647
10.6002
10.7398
10.8838
11.0323
11.1857
11.3441
11.5078
11.6771
11.8524
12.0338
12.2219
12.417
12.6195
12.83
13.049
13.2769
13.5116
13.7555
14.0158
14.2945
14.594
14.9172
15.2672
15.648
16.0643
16.5221
17.0287
17.5933
18.2281
18.9487
19.7762
20.7404
21.8807
23.2651
24.9671
27.2069
30.0406
34.5444
39.4364
49.4632
6.93551
6.93827
6.94511
6.95544
6.96868
6.98462
7.00318
7.02427
7.04776
7.07356
7.10157
7.13172
7.16395
7.1982
7.23443
7.27259
7.31266
7.35461
7.3984
7.44403
7.49148
7.54074
7.59181
7.64469
7.69937
7.75587
7.81419
7.87435
7.93637
8.00026
8.06604
8.13374
8.20339
8.27502
8.34867
8.42437
8.50216
8.5821
8.66422
8.74859
8.83526
8.92429
9.01574
9.10969
9.2062
9.30536
9.40726
9.51199
9.61963
9.7303
9.84411
9.96117
10.0816
10.2056
10.3332
10.4647
10.6001
10.7397
10.8837
11.0323
11.1856
11.344
11.5077
11.677
11.8522
12.0337
12.2217
12.4168
12.6193
12.8298
13.0487
13.2767
13.5113
13.7552
14.0154
14.294
14.5935
14.9166
15.2666
15.6472
16.0634
16.521
17.0273
17.5917
18.2261
18.9462
19.7729
20.7361
21.8748
23.2565
24.9545
27.185
30.0046
34.4501
39.2654
48.8283
6.9355
6.93827
6.94511
6.95543
6.96867
6.98462
7.00318
7.02427
7.04776
7.07356
7.10156
7.13171
7.16394
7.1982
7.23443
7.27259
7.31266
7.3546
7.3984
7.44403
7.49148
7.54074
7.59181
7.64468
7.69936
7.75586
7.81419
7.87435
7.93636
8.00025
8.06603
8.13373
8.20338
8.27501
8.34866
8.42435
8.50215
8.58209
8.66421
8.74858
8.83524
8.92427
9.01572