/*--------------------------------*- C++ -*----------------------------------*\
| =========                 |                                                 |
| \\      /  F ield         | OpenFOAM: The Open Source CFD Toolbox           |
|  \\    /   O peration     | Version:  v2012                                 |
|   \\  /    A nd           | Website:  www.openfoam.com                      |
|    \\/     M anipulation  |                                                 |
\*---------------------------------------------------------------------------*/
FoamFile
{
    version     2.0;
    format      ascii;
    class       volScalarField;
    location    "4.5";
    object      yPlus;
}
// * * * * * * * * * * * * * * * * * * * * * * * * * * * * * * * * * * * * * //

dimensions      [0 0 0 0 0 0 0];


internalField   uniform 0;

boundaryField
{
    inlet
    {
        type            calculated;
        value           uniform 0;
    }
    outlet
    {
        type            calculated;
        value           uniform 0;
    }
    topWall
    {
        type            calculated;
        value           nonuniform List<scalar> 
545
(
0.045141
0.0778388
0.0998555
0.11737
0.13219
0.145148
0.156714
0.167181
0.176751
0.185568
0.19374
0.201352
0.208469
0.215146
0.221429
0.227354
0.232953
0.238255
0.243282
0.248057
0.252598
0.256921
0.26104
0.264971
0.268724
0.27231
0.275739
0.279021
0.282164
0.285176
0.288063
0.290833
0.293491
0.296043
0.298495
0.300852
0.303117
0.305296
0.307393
0.309411
0.311354
0.313225
0.315028
0.316765
0.318441
0.320056
0.321614
0.323117
0.324567
0.325967
0.327319
0.328625
0.329885
0.331104
0.332281
0.333419
0.334518
0.335582
0.33661
0.337605
0.338567
0.339498
0.340399
0.341271
0.342115
0.342932
0.343723
0.34449
0.345232
0.345951
0.346647
0.347322
0.347968
0.348592
0.34921
0.349823
0.35043
0.351032
0.351628
0.352219
0.352805
0.353386
0.353961
0.354532
0.355097
0.355658
0.356213
0.356764
0.35731
0.357851
0.358387
0.358919
0.359446
0.359968
0.360486
0.360999
0.361461
0.361874
0.362287
0.362699
0.36311
0.363522
0.363933
0.364343
0.364753
0.365162
0.365571
0.36598
0.366388
0.366796
0.367203
0.36761
0.368016
0.368422
0.368828
0.369232
0.369637
0.370041
0.370444
0.370847
0.371249
0.371651
0.372053
0.372453
0.372854
0.373253
0.373653
0.374051
0.374449
0.374847
0.375244
0.375641
0.376036
0.376432
0.376826
0.377221
0.377614
0.378007
0.3784
0.378791
0.379183
0.379573
0.379963
0.380352
0.380741
0.381129
0.381516
0.381903
0.382289
0.382675
0.38306
0.383444
0.383827
0.38421
0.384592
0.384973
0.385354
0.385734
0.386114
0.386492
0.38687
0.387247
0.387624
0.387999
0.388374
0.388748
0.389122
0.389495
0.389867
0.390238
0.390608
0.390978
0.391347
0.391715
0.392082
0.392448
0.392814
0.393179
0.393543
0.393906
0.394268
0.39463
0.39499
0.39535
0.395709
0.396067
0.396424
0.396781
0.397136
0.397491
0.397844
0.398197
0.398549
0.3989
0.39925
0.399599
0.399947
0.400294
0.40064
0.400986
0.40133
0.401673
0.402016
0.402357
0.402698
0.403037
0.403376
0.403713
0.404049
0.404385
0.404719
0.405053
0.405385
0.405716
0.406047
0.406376
0.406704
0.407031
0.407357
0.407682
0.408006
0.408328
0.40865
0.40897
0.40929
0.409608
0.409925
0.410241
0.410556
0.41087
0.411182
0.411494
0.411804
0.412113
0.412421
0.412727
0.413033
0.413337
0.41364
0.413942
0.414243
0.414542
0.41484
0.415137
0.415433
0.415727
0.41602
0.416312
0.416602
0.416892
0.41718
0.417466
0.417752
0.418036
0.418318
0.4186
0.41888
0.419159
0.419436
0.419712
0.419987
0.42026
0.420532
0.420802
0.421071
0.421339
0.421605
0.42187
0.422134
0.422381
0.422614
0.422848
0.423082
0.423317
0.423553
0.42379
0.424028
0.424266
0.424505
0.424745
0.424985
0.425226
0.425468
0.42571
0.425953
0.426196
0.426439
0.426683
0.426928
0.427173
0.427418
0.427663
0.427909
0.428154
0.4284
0.428646
0.428892
0.429139
0.429385
0.429631
0.429876
0.430122
0.430367
0.430613
0.430857
0.431102
0.431346
0.431589
0.431832
0.432074
0.432315
0.432556
0.432796
0.433035
0.433273
0.433509
0.433745
0.43398
0.434213
0.434445
0.434675
0.434904
0.435132
0.435358
0.435581
0.435804
0.436024
0.436242
0.436458
0.436672
0.436884
0.437093
0.437299
0.437504
0.437705
0.437904
0.438099
0.438292
0.438481
0.438668
0.438851
0.43903
0.439206
0.439379
0.439547
0.439712
0.439872
0.440029
0.440181
0.440329
0.440472
0.44061
0.440744
0.440873
0.440997
0.441115
0.441229
0.441336
0.441438
0.441535
0.441625
0.44171
0.441788
0.44186
0.441926
0.441985
0.442037
0.442083
0.442121
0.442152
0.442176
0.442192
0.442201
0.442202
0.442194
0.442179
0.442156
0.442124
0.442084
0.442035
0.441977
0.44191
0.441834
0.441749
0.441654
0.44155
0.441436
0.441312
0.441178
0.441034
0.440879
0.440714
0.440539
0.440353
0.440156
0.439948
0.439729
0.439499
0.439257
0.439004
0.438739
0.438463
0.438174
0.437874
0.437562
0.437237
0.436901
0.436552
0.436191
0.435817
0.43543
0.435031
0.434619
0.434195
0.433757
0.433307
0.432843
0.432367
0.431877
0.431375
0.430859
0.43033
0.429789
0.429233
0.428665
0.428084
0.427489
0.426882
0.426261
0.425627
0.42498
0.42432
0.423648
0.422962
0.422264
0.421553
0.420829
0.420092
0.419344
0.418583
0.417809
0.417024
0.416226
0.415417
0.414596
0.413764
0.41292
0.412065
0.411199
0.410322
0.409336
0.408244
0.407152
0.406059
0.404967
0.403876
0.402787
0.4017
0.400615
0.399534
0.398456
0.397382
0.396312
0.395247
0.394186
0.393132
0.392083
0.39104
0.390003
0.388973
0.38795
0.386934
0.385925
0.384924
0.383932
0.382947
0.381971
0.381003
0.380044
0.379095
0.378154
0.377224
0.376302
0.375391
0.37449
0.373599
0.372718
0.371848
0.370989
0.37014
0.369303
0.368477
0.367663
0.36686
0.366068
0.365289
0.364522
0.363767
0.363024
0.362294
0.361577
0.360872
0.360181
0.359503
0.358838
0.358186
0.357548
0.356924
0.356314
0.355718
0.355136
0.354569
0.354016
0.353477
0.352954
0.352446
0.351952
0.351474
0.351011
0.350564
0.350132
0.349717
0.349317
0.348933
0.348565
0.348214
0.347879
0.34756
0.347258
0.346973
0.346704
0.346453
0.346218
0.346
0.3458
0.345617
0.345451
0.345302
0.345171
0.345057
0.34496
0.344882
0.344819
0.344779
0.344739
)
;
    }
    bottomWall
    {
        type            calculated;
        value           nonuniform List<scalar> 
449
(
4.58185
3.01384
2.53621
2.321
2.18431
2.08431
2.00231
1.93341
1.87497
1.82441
1.77984
1.74007
1.70427
1.67177
1.64207
1.61476
1.58951
1.56605
1.54417
1.52368
1.50443
1.48629
1.46915
1.45292
1.4375
1.42284
1.40885
1.3955
1.38272
1.37048
1.35873
1.34744
1.33658
1.32612
1.31603
1.30629
1.29688
1.28777
1.27895
1.27041
1.26213
1.25409
1.24628
1.23869
1.2313
1.22412
1.21712
1.21031
1.20366
1.19718
1.19085
1.18467
1.17864
1.17274
1.16697
1.16133
1.15581
1.15041
1.14511
1.13993
1.13485
1.12986
1.12498
1.12018
1.11548
1.11086
1.10632
1.10187
1.09749
1.09319
1.08897
1.08481
1.08072
1.0767
1.07274
1.06884
1.06501
1.06123
1.05752
1.05385
1.05025
1.04669
1.04319
1.03973
1.03632
1.03297
1.02965
1.02638
1.02316
1.01998
1.01684
1.01374
1.01068
1.00765
1.00467
1.00172
0.998811
0.995935
0.993093
0.990284
0.987508
0.984765
0.982052
0.979371
0.976719
0.974096
0.971503
0.968937
0.9664
0.963889
0.961405
0.958946
0.956513
0.954105
0.951722
0.949362
0.947026
0.944713
0.942422
0.940154
0.937907
0.935682
0.933478
0.931295
0.929132
0.926988
0.924864
0.92276
0.920674
0.918607
0.916558
0.914527
0.912513
0.910517
0.908538
0.906575
0.904629
0.902699
0.900786
0.898887
0.897005
0.895137
0.893284
0.891447
0.889623
0.887814
0.886019
0.884238
0.88247
0.880716
0.878975
0.877247
0.875532
0.87383
0.87214
0.870462
0.868797
0.867143
0.865501
0.863871
0.862252
0.860645
0.859049
0.857463
0.855889
0.854325
0.852772
0.851229
0.849697
0.848174
0.846662
0.845159
0.843667
0.842269
0.840952
0.839631
0.838306
0.836978
0.835647
0.834311
0.832972
0.83163
0.830284
0.828934
0.82758
0.826223
0.824863
0.823499
0.822132
0.820761
0.819387
0.818009
0.816629
0.815245
0.813858
0.812467
0.811074
0.809678
0.808278
0.806876
0.80547
0.804062
0.802651
0.801237
0.79982
0.7984
0.796978
0.795553
0.794126
0.792696
0.791263
0.789828
0.78839
0.78695
0.785508
0.784063
0.782616
0.781167
0.779716
0.778262
0.776807
0.775349
0.773889
0.772427
0.770964
0.769498
0.768031
0.766561
0.76509
0.763618
0.762143
0.760667
0.759189
0.75771
0.756229
0.754747
0.753263
0.751778
0.750292
0.748804
0.747315
0.745824
0.744333
0.74284
0.741347
0.739852
0.738356
0.736859
0.735362
0.733863
0.732363
0.730863
0.729362
0.72786
0.726357
0.724854
0.72335
0.721846
0.720341
0.718835
0.717329
0.715823
0.714316
0.712809
0.711301
0.709793
0.708285
0.706777
0.705269
0.70376
0.702252
0.700743
0.699234
0.697725
0.696217
0.694708
0.6932
0.691691
0.690183
0.688675
0.687167
0.68566
0.684153
0.682646
0.68114
0.679634
0.678129
0.676624
0.675119
0.673615
0.672112
0.670609
0.669107
0.667606
0.666105
0.664605
0.663106
0.661608
0.66011
0.658614
0.657118
0.655623
0.654129
0.652636
0.651145
0.649654
0.648164
0.646676
0.645188
0.643702
0.642217
0.640733
0.63925
0.637769
0.636289
0.63481
0.633333
0.631857
0.630383
0.62891
0.627438
0.625968
0.6245
0.623033
0.621568
0.620104
0.618643
0.617183
0.615724
0.614268
0.612813
0.61136
0.60991
0.608461
0.607014
0.605569
0.604126
0.602685
0.601246
0.59981
0.598376
0.596944
0.595514
0.594086
0.592661
0.591239
0.589819
0.588401
0.586986
0.585574
0.584164
0.582758
0.581354
0.579951
0.578394
0.576702
0.575037
0.573396
0.571778
0.570185
0.568616
0.56707
0.565546
0.564045
0.562566
0.561108
0.55967
0.558253
0.556856
0.555479
0.55412
0.55278
0.551459
0.550155
0.548869
0.547601
0.546349
0.545113
0.543894
0.542691
0.541504
0.540332
0.539174
0.538032
0.536904
0.535791
0.534691
0.533605
0.532533
0.531474
0.530427
0.529394
0.528373
0.527365
0.526368
0.525384
0.524411
0.52345
0.522501
0.521562
0.520634
0.519718
0.518811
0.517916
0.51703
0.516155
0.515289
0.514434
0.513588
0.512752
0.511925
0.511107
0.510298
0.509498
0.508707
0.507924
0.507151
0.506385
0.505628
0.504879
0.504138
0.503404
0.502679
0.501961
0.501251
0.500548
0.499852
0.499164
0.498482
0.497808
0.49714
0.496479
0.495824
0.495176
0.494534
0.493898
0.493268
0.492644
0.492025
0.491411
0.490801
0.490197
0.489595
0.488989
0.488403
0.487838
0.486838
0.487444
0.485734
)
;
    }
    symmetry
    {
        type            symmetryPlane;
    }
    frontAndBack
    {
        type            empty;
    }
}


// ************************************************************************* //
