/*--------------------------------*- C++ -*----------------------------------*\
| =========                 |                                                 |
| \\      /  F ield         | OpenFOAM: The Open Source CFD Toolbox           |
|  \\    /   O peration     | Version:  v2012                                 |
|   \\  /    A nd           | Website:  www.openfoam.com                      |
|    \\/     M anipulation  |                                                 |
\*---------------------------------------------------------------------------*/
FoamFile
{
    version     2.0;
    format      ascii;
    class       volVectorField;
    location    "17.5";
    object      wallShearStress;
}
// * * * * * * * * * * * * * * * * * * * * * * * * * * * * * * * * * * * * * //

dimensions      [0 2 -2 0 0 0 0];


internalField   uniform (0 0 0);

boundaryField
{
    inlet
    {
        type            calculated;
        value           uniform (0 0 0);
    }
    outlet
    {
        type            calculated;
        value           uniform (0 0 0);
    }
    topWall
    {
        type            calculated;
        value           nonuniform List<vector> 
545
(
(1.43954e-08 -1.01308e-08 0)
(1.43902e-08 -2.83517e-08 0)
(1.43724e-08 -4.72889e-08 0)
(1.43508e-08 -6.5669e-08 0)
(1.43242e-08 -8.32526e-08 0)
(1.42927e-08 -1.00264e-07 0)
(1.42565e-08 -1.16846e-07 0)
(1.42161e-08 -1.3299e-07 0)
(1.41716e-08 -1.48659e-07 0)
(1.41237e-08 -1.63853e-07 0)
(1.40725e-08 -1.78589e-07 0)
(1.40185e-08 -1.92886e-07 0)
(1.3962e-08 -2.06754e-07 0)
(1.39033e-08 -2.202e-07 0)
(1.38426e-08 -2.33234e-07 0)
(1.37801e-08 -2.45869e-07 0)
(1.37162e-08 -2.58114e-07 0)
(1.36511e-08 -2.6998e-07 0)
(1.35849e-08 -2.81478e-07 0)
(1.35178e-08 -2.92618e-07 0)
(1.34501e-08 -3.0341e-07 0)
(1.33818e-08 -3.13865e-07 0)
(1.33132e-08 -3.23992e-07 0)
(1.32444e-08 -3.33801e-07 0)
(1.31754e-08 -3.43302e-07 0)
(1.31065e-08 -3.52504e-07 0)
(1.30377e-08 -3.61417e-07 0)
(1.29691e-08 -3.70049e-07 0)
(1.29008e-08 -3.78409e-07 0)
(1.28329e-08 -3.86506e-07 0)
(1.27655e-08 -3.94347e-07 0)
(1.26986e-08 -4.01942e-07 0)
(1.26323e-08 -4.09298e-07 0)
(1.25666e-08 -4.16423e-07 0)
(1.25017e-08 -4.23324e-07 0)
(1.24375e-08 -4.30008e-07 0)
(1.2374e-08 -4.36483e-07 0)
(1.23114e-08 -4.42755e-07 0)
(1.22496e-08 -4.48831e-07 0)
(1.21887e-08 -4.54717e-07 0)
(1.21287e-08 -4.6042e-07 0)
(1.20696e-08 -4.65945e-07 0)
(1.20115e-08 -4.71298e-07 0)
(1.19542e-08 -4.76485e-07 0)
(1.1898e-08 -4.81512e-07 0)
(1.18426e-08 -4.86382e-07 0)
(1.17883e-08 -4.91103e-07 0)
(1.17349e-08 -4.95678e-07 0)
(1.16824e-08 -5.00113e-07 0)
(1.1631e-08 -5.04411e-07 0)
(1.15805e-08 -5.08578e-07 0)
(1.15309e-08 -5.12617e-07 0)
(1.14823e-08 -5.16534e-07 0)
(1.14347e-08 -5.20331e-07 0)
(1.1388e-08 -5.24012e-07 0)
(1.13423e-08 -5.27582e-07 0)
(1.12974e-08 -5.31044e-07 0)
(1.12535e-08 -5.34402e-07 0)
(1.12105e-08 -5.37659e-07 0)
(1.11684e-08 -5.40817e-07 0)
(1.11271e-08 -5.43881e-07 0)
(1.10868e-08 -5.46853e-07 0)
(1.10473e-08 -5.49736e-07 0)
(1.10086e-08 -5.52534e-07 0)
(1.09708e-08 -5.55248e-07 0)
(1.09337e-08 -5.57882e-07 0)
(1.08975e-08 -5.60437e-07 0)
(1.08621e-08 -5.62917e-07 0)
(1.08275e-08 -5.65324e-07 0)
(1.07936e-08 -5.6766e-07 0)
(1.07605e-08 -5.69929e-07 0)
(1.07278e-08 -5.72125e-07 0)
(1.06963e-08 -5.74237e-07 0)
(1.06661e-08 -5.76286e-07 0)
(1.06361e-08 -5.78306e-07 0)
(1.06063e-08 -5.80314e-07 0)
(1.05766e-08 -5.82312e-07 0)
(1.05469e-08 -5.84295e-07 0)
(1.05173e-08 -5.86263e-07 0)
(1.04877e-08 -5.88216e-07 0)
(1.04582e-08 -5.90154e-07 0)
(1.04287e-08 -5.92078e-07 0)
(1.03994e-08 -5.93988e-07 0)
(1.037e-08 -5.95884e-07 0)
(1.03408e-08 -5.97766e-07 0)
(1.03115e-08 -5.99634e-07 0)
(1.02824e-08 -6.01489e-07 0)
(1.02533e-08 -6.03329e-07 0)
(1.02243e-08 -6.05156e-07 0)
(1.01954e-08 -6.0697e-07 0)
(1.01665e-08 -6.0877e-07 0)
(1.01377e-08 -6.10556e-07 0)
(1.01089e-08 -6.12331e-07 0)
(1.00801e-08 -6.14088e-07 0)
(1.00521e-08 -6.1585e-07 0)
(1.00213e-08 -6.17554e-07 0)
(9.99134e-09 -6.19117e-07 0)
(9.96683e-09 -6.20561e-07 0)
(9.94336e-09 -6.21941e-07 0)
(9.92009e-09 -6.23322e-07 0)
(9.89678e-09 -6.2472e-07 0)
(9.8734e-09 -6.26123e-07 0)
(9.84993e-09 -6.27522e-07 0)
(9.82637e-09 -6.28918e-07 0)
(9.80272e-09 -6.30315e-07 0)
(9.77897e-09 -6.31712e-07 0)
(9.75514e-09 -6.3311e-07 0)
(9.73121e-09 -6.34507e-07 0)
(9.70719e-09 -6.35904e-07 0)
(9.68308e-09 -6.37301e-07 0)
(9.65887e-09 -6.38697e-07 0)
(9.63458e-09 -6.40094e-07 0)
(9.61019e-09 -6.4149e-07 0)
(9.5857e-09 -6.42886e-07 0)
(9.56113e-09 -6.44281e-07 0)
(9.53646e-09 -6.45677e-07 0)
(9.5117e-09 -6.47072e-07 0)
(9.48685e-09 -6.48466e-07 0)
(9.4619e-09 -6.49861e-07 0)
(9.43686e-09 -6.51254e-07 0)
(9.41173e-09 -6.52648e-07 0)
(9.3865e-09 -6.54041e-07 0)
(9.36119e-09 -6.55433e-07 0)
(9.33577e-09 -6.56825e-07 0)
(9.31027e-09 -6.58217e-07 0)
(9.28467e-09 -6.59608e-07 0)
(9.25898e-09 -6.60998e-07 0)
(9.23319e-09 -6.62388e-07 0)
(9.20732e-09 -6.63777e-07 0)
(9.18134e-09 -6.65166e-07 0)
(9.15528e-09 -6.66554e-07 0)
(9.12912e-09 -6.67941e-07 0)
(9.10287e-09 -6.69327e-07 0)
(9.07653e-09 -6.70713e-07 0)
(9.05009e-09 -6.72098e-07 0)
(9.02355e-09 -6.73482e-07 0)
(8.99693e-09 -6.74866e-07 0)
(8.97021e-09 -6.76248e-07 0)
(8.9434e-09 -6.7763e-07 0)
(8.91649e-09 -6.7901e-07 0)
(8.8895e-09 -6.8039e-07 0)
(8.8624e-09 -6.81769e-07 0)
(8.83522e-09 -6.83147e-07 0)
(8.80794e-09 -6.84524e-07 0)
(8.78057e-09 -6.859e-07 0)
(8.75311e-09 -6.87275e-07 0)
(8.72555e-09 -6.88649e-07 0)
(8.6979e-09 -6.90021e-07 0)
(8.67016e-09 -6.91393e-07 0)
(8.64232e-09 -6.92763e-07 0)
(8.61439e-09 -6.94132e-07 0)
(8.58637e-09 -6.955e-07 0)
(8.55826e-09 -6.96867e-07 0)
(8.53005e-09 -6.98232e-07 0)
(8.50175e-09 -6.99596e-07 0)
(8.47336e-09 -7.00959e-07 0)
(8.44488e-09 -7.0232e-07 0)
(8.4163e-09 -7.0368e-07 0)
(8.38763e-09 -7.05039e-07 0)
(8.35887e-09 -7.06396e-07 0)
(8.33002e-09 -7.07752e-07 0)
(8.30108e-09 -7.09106e-07 0)
(8.27205e-09 -7.10459e-07 0)
(8.24292e-09 -7.1181e-07 0)
(8.2137e-09 -7.13159e-07 0)
(8.18439e-09 -7.14507e-07 0)
(8.155e-09 -7.15853e-07 0)
(8.12551e-09 -7.17198e-07 0)
(8.09593e-09 -7.1854e-07 0)
(8.06626e-09 -7.19881e-07 0)
(8.0365e-09 -7.2122e-07 0)
(8.00665e-09 -7.22558e-07 0)
(7.97671e-09 -7.23893e-07 0)
(7.94668e-09 -7.25227e-07 0)
(7.91656e-09 -7.26559e-07 0)
(7.88635e-09 -7.27889e-07 0)
(7.85605e-09 -7.29217e-07 0)
(7.82566e-09 -7.30542e-07 0)
(7.79519e-09 -7.31866e-07 0)
(7.76463e-09 -7.33188e-07 0)
(7.73398e-09 -7.34508e-07 0)
(7.70324e-09 -7.35825e-07 0)
(7.67241e-09 -7.37141e-07 0)
(7.6415e-09 -7.38454e-07 0)
(7.6105e-09 -7.39765e-07 0)
(7.57941e-09 -7.41074e-07 0)
(7.54823e-09 -7.4238e-07 0)
(7.51697e-09 -7.43684e-07 0)
(7.48563e-09 -7.44986e-07 0)
(7.4542e-09 -7.46285e-07 0)
(7.42268e-09 -7.47582e-07 0)
(7.39108e-09 -7.48877e-07 0)
(7.35939e-09 -7.50168e-07 0)
(7.32762e-09 -7.51458e-07 0)
(7.29577e-09 -7.52745e-07 0)
(7.26383e-09 -7.54029e-07 0)
(7.2318e-09 -7.55311e-07 0)
(7.1997e-09 -7.5659e-07 0)
(7.16751e-09 -7.57866e-07 0)
(7.13524e-09 -7.5914e-07 0)
(7.10289e-09 -7.6041e-07 0)
(7.07046e-09 -7.61678e-07 0)
(7.03795e-09 -7.62944e-07 0)
(7.00535e-09 -7.64206e-07 0)
(6.97268e-09 -7.65465e-07 0)
(6.93992e-09 -7.66722e-07 0)
(6.90709e-09 -7.67975e-07 0)
(6.87417e-09 -7.69226e-07 0)
(6.84118e-09 -7.70473e-07 0)
(6.80811e-09 -7.71717e-07 0)
(6.77497e-09 -7.72959e-07 0)
(6.74174e-09 -7.74197e-07 0)
(6.70844e-09 -7.75431e-07 0)
(6.67506e-09 -7.76663e-07 0)
(6.64161e-09 -7.77892e-07 0)
(6.60808e-09 -7.79117e-07 0)
(6.57448e-09 -7.80338e-07 0)
(6.5408e-09 -7.81557e-07 0)
(6.50705e-09 -7.82772e-07 0)
(6.47322e-09 -7.83983e-07 0)
(6.43933e-09 -7.85191e-07 0)
(6.40536e-09 -7.86396e-07 0)
(6.37131e-09 -7.87597e-07 0)
(6.3372e-09 -7.88794e-07 0)
(6.30302e-09 -7.89988e-07 0)
(6.26877e-09 -7.91178e-07 0)
(6.23444e-09 -7.92364e-07 0)
(6.20005e-09 -7.93547e-07 0)
(6.16559e-09 -7.94726e-07 0)
(6.13106e-09 -7.95901e-07 0)
(6.09647e-09 -7.97072e-07 0)
(6.06181e-09 -7.98239e-07 0)
(6.02708e-09 -7.99403e-07 0)
(5.99229e-09 -8.00562e-07 0)
(5.95744e-09 -8.01717e-07 0)
(5.92252e-09 -8.02869e-07 0)
(5.88753e-09 -8.04016e-07 0)
(5.85249e-09 -8.05159e-07 0)
(5.81738e-09 -8.06298e-07 0)
(5.78221e-09 -8.07433e-07 0)
(5.74698e-09 -8.08564e-07 0)
(5.71169e-09 -8.0969e-07 0)
(5.67634e-09 -8.10812e-07 0)
(5.64093e-09 -8.1193e-07 0)
(5.60547e-09 -8.13043e-07 0)
(5.56995e-09 -8.14152e-07 0)
(5.53437e-09 -8.15256e-07 0)
(5.49874e-09 -8.16356e-07 0)
(5.46305e-09 -8.17451e-07 0)
(5.42731e-09 -8.18542e-07 0)
(5.39151e-09 -8.19628e-07 0)
(5.35566e-09 -8.2071e-07 0)
(5.31977e-09 -8.21787e-07 0)
(5.28382e-09 -8.22859e-07 0)
(5.24782e-09 -8.23926e-07 0)
(5.21177e-09 -8.24988e-07 0)
(5.17567e-09 -8.26046e-07 0)
(5.13952e-09 -8.27099e-07 0)
(5.10333e-09 -8.28147e-07 0)
(5.06709e-09 -8.2919e-07 0)
(5.03081e-09 -8.30228e-07 0)
(4.99448e-09 -8.3126e-07 0)
(4.95811e-09 -8.32288e-07 0)
(4.9217e-09 -8.33311e-07 0)
(4.88524e-09 -8.34328e-07 0)
(4.84877e-09 -8.35342e-07 0)
(4.81215e-09 -8.36346e-07 0)
(4.77592e-09 -8.3736e-07 0)
(4.73787e-09 -8.38335e-07 0)
(4.7005e-09 -8.39264e-07 0)
(4.66683e-09 -8.40177e-07 0)
(4.63389e-09 -8.41052e-07 0)
(4.60087e-09 -8.41927e-07 0)
(4.56759e-09 -8.42816e-07 0)
(4.534e-09 -8.4371e-07 0)
(4.50009e-09 -8.44607e-07 0)
(4.46585e-09 -8.45505e-07 0)
(4.43128e-09 -8.46405e-07 0)
(4.39638e-09 -8.47309e-07 0)
(4.36114e-09 -8.48215e-07 0)
(4.32558e-09 -8.49124e-07 0)
(4.28967e-09 -8.50035e-07 0)
(4.25343e-09 -8.50948e-07 0)
(4.21685e-09 -8.51863e-07 0)
(4.17993e-09 -8.5278e-07 0)
(4.14266e-09 -8.53699e-07 0)
(4.10505e-09 -8.54619e-07 0)
(4.0671e-09 -8.55541e-07 0)
(4.02881e-09 -8.56464e-07 0)
(3.99016e-09 -8.57389e-07 0)
(3.95117e-09 -8.58314e-07 0)
(3.91183e-09 -8.59241e-07 0)
(3.87214e-09 -8.60167e-07 0)
(3.8321e-09 -8.61095e-07 0)
(3.79171e-09 -8.62022e-07 0)
(3.75097e-09 -8.6295e-07 0)
(3.70987e-09 -8.63878e-07 0)
(3.66842e-09 -8.64805e-07 0)
(3.62661e-09 -8.65732e-07 0)
(3.58446e-09 -8.66658e-07 0)
(3.54194e-09 -8.67583e-07 0)
(3.49908e-09 -8.68507e-07 0)
(3.45586e-09 -8.69429e-07 0)
(3.41228e-09 -8.7035e-07 0)
(3.36835e-09 -8.7127e-07 0)
(3.32407e-09 -8.72187e-07 0)
(3.27943e-09 -8.73101e-07 0)
(3.23444e-09 -8.74013e-07 0)
(3.18909e-09 -8.74922e-07 0)
(3.1434e-09 -8.75828e-07 0)
(3.09735e-09 -8.76731e-07 0)
(3.05096e-09 -8.77629e-07 0)
(3.00421e-09 -8.78524e-07 0)
(2.95712e-09 -8.79415e-07 0)
(2.90968e-09 -8.80301e-07 0)
(2.8619e-09 -8.81181e-07 0)
(2.81378e-09 -8.82057e-07 0)
(2.76532e-09 -8.82927e-07 0)
(2.71651e-09 -8.83791e-07 0)
(2.66738e-09 -8.84649e-07 0)
(2.61791e-09 -8.85501e-07 0)
(2.5681e-09 -8.86345e-07 0)
(2.51798e-09 -8.87183e-07 0)
(2.46752e-09 -8.88012e-07 0)
(2.41675e-09 -8.88833e-07 0)
(2.36565e-09 -8.89647e-07 0)
(2.31424e-09 -8.90451e-07 0)
(2.26253e-09 -8.91246e-07 0)
(2.2105e-09 -8.92031e-07 0)
(2.15818e-09 -8.92807e-07 0)
(2.10555e-09 -8.93572e-07 0)
(2.05264e-09 -8.94326e-07 0)
(1.99943e-09 -8.95069e-07 0)
(1.94595e-09 -8.958e-07 0)
(1.89219e-09 -8.96519e-07 0)
(1.83815e-09 -8.97225e-07 0)
(1.78386e-09 -8.97918e-07 0)
(1.7293e-09 -8.98598e-07 0)
(1.67449e-09 -8.99263e-07 0)
(1.61944e-09 -8.99915e-07 0)
(1.56415e-09 -9.00551e-07 0)
(1.50863e-09 -9.01171e-07 0)
(1.45288e-09 -9.01776e-07 0)
(1.39693e-09 -9.02364e-07 0)
(1.34076e-09 -9.02934e-07 0)
(1.2844e-09 -9.03488e-07 0)
(1.22785e-09 -9.04023e-07 0)
(1.17112e-09 -9.0454e-07 0)
(1.11421e-09 -9.05037e-07 0)
(1.05715e-09 -9.05515e-07 0)
(9.99942e-10 -9.05972e-07 0)
(9.42591e-10 -9.06409e-07 0)
(8.85111e-10 -9.06824e-07 0)
(8.27513e-10 -9.07217e-07 0)
(7.69809e-10 -9.07587e-07 0)
(7.12011e-10 -9.07934e-07 0)
(6.5413e-10 -9.08258e-07 0)
(5.9618e-10 -9.08557e-07 0)
(5.38172e-10 -9.08831e-07 0)
(4.8012e-10 -9.0908e-07 0)
(4.22038e-10 -9.09303e-07 0)
(3.6394e-10 -9.09498e-07 0)
(3.05838e-10 -9.09667e-07 0)
(2.47749e-10 -9.09807e-07 0)
(1.89686e-10 -9.09919e-07 0)
(1.31665e-10 -9.10001e-07 0)
(7.37017e-11 -9.10054e-07 0)
(1.58111e-11 -9.10076e-07 0)
(-4.19903e-11 -9.10067e-07 0)
(-9.96863e-11 -9.10027e-07 0)
(-1.5726e-10 -9.09954e-07 0)
(-2.14694e-10 -9.09848e-07 0)
(-2.71972e-10 -9.09708e-07 0)
(-3.29075e-10 -9.09535e-07 0)
(-3.85987e-10 -9.09326e-07 0)
(-4.42687e-10 -9.09082e-07 0)
(-4.99159e-10 -9.08802e-07 0)
(-5.55384e-10 -9.08485e-07 0)
(-6.11341e-10 -9.0813e-07 0)
(-6.67013e-10 -9.07738e-07 0)
(-7.2238e-10 -9.07308e-07 0)
(-7.77421e-10 -9.06838e-07 0)
(-8.32118e-10 -9.06329e-07 0)
(-8.86449e-10 -9.05779e-07 0)
(-9.40395e-10 -9.05188e-07 0)
(-9.93936e-10 -9.04557e-07 0)
(-1.04705e-09 -9.03883e-07 0)
(-1.09972e-09 -9.03166e-07 0)
(-1.15191e-09 -9.02407e-07 0)
(-1.20362e-09 -9.01604e-07 0)
(-1.25482e-09 -9.00757e-07 0)
(-1.30549e-09 -8.99865e-07 0)
(-1.35561e-09 -8.98928e-07 0)
(-1.40515e-09 -8.97946e-07 0)
(-1.4541e-09 -8.96918e-07 0)
(-1.50243e-09 -8.95843e-07 0)
(-1.55012e-09 -8.94721e-07 0)
(-1.59716e-09 -8.93552e-07 0)
(-1.64352e-09 -8.92336e-07 0)
(-1.68917e-09 -8.91071e-07 0)
(-1.73411e-09 -8.89758e-07 0)
(-1.7783e-09 -8.88396e-07 0)
(-1.82173e-09 -8.86985e-07 0)
(-1.86438e-09 -8.85525e-07 0)
(-1.90623e-09 -8.84015e-07 0)
(-1.94725e-09 -8.82455e-07 0)
(-1.98743e-09 -8.80845e-07 0)
(-2.02675e-09 -8.79185e-07 0)
(-2.06519e-09 -8.77474e-07 0)
(-2.10273e-09 -8.75713e-07 0)
(-2.13936e-09 -8.73901e-07 0)
(-2.17505e-09 -8.72038e-07 0)
(-2.20979e-09 -8.70124e-07 0)
(-2.24356e-09 -8.6816e-07 0)
(-2.27635e-09 -8.66144e-07 0)
(-2.30814e-09 -8.64077e-07 0)
(-2.33891e-09 -8.61959e-07 0)
(-2.36865e-09 -8.59791e-07 0)
(-2.39735e-09 -8.57572e-07 0)
(-2.42499e-09 -8.55302e-07 0)
(-2.45156e-09 -8.52982e-07 0)
(-2.47705e-09 -8.50611e-07 0)
(-2.50144e-09 -8.48191e-07 0)
(-2.52473e-09 -8.45721e-07 0)
(-2.54691e-09 -8.43202e-07 0)
(-2.56796e-09 -8.40633e-07 0)
(-2.58788e-09 -8.38016e-07 0)
(-2.60666e-09 -8.35351e-07 0)
(-2.6243e-09 -8.32638e-07 0)
(-2.64078e-09 -8.29877e-07 0)
(-2.65611e-09 -8.2707e-07 0)
(-2.67027e-09 -8.24217e-07 0)
(-2.68327e-09 -8.21318e-07 0)
(-2.6951e-09 -8.18373e-07 0)
(-2.70577e-09 -8.15385e-07 0)
(-2.71526e-09 -8.12353e-07 0)
(-2.72358e-09 -8.09277e-07 0)
(-2.73074e-09 -8.0616e-07 0)
(-2.73672e-09 -8.03001e-07 0)
(-2.74154e-09 -7.99802e-07 0)
(-2.74521e-09 -7.96562e-07 0)
(-2.74771e-09 -7.93284e-07 0)
(-2.74907e-09 -7.89968e-07 0)
(-2.74928e-09 -7.86615e-07 0)
(-2.74835e-09 -7.83227e-07 0)
(-2.74629e-09 -7.79803e-07 0)
(-2.74312e-09 -7.76344e-07 0)
(-2.73877e-09 -7.72855e-07 0)
(-2.73365e-09 -7.69319e-07 0)
(-2.72601e-09 -7.65756e-07 0)
(-2.71619e-09 -7.61809e-07 0)
(-2.70578e-09 -7.57438e-07 0)
(-2.69382e-09 -7.53048e-07 0)
(-2.68049e-09 -7.48689e-07 0)
(-2.66593e-09 -7.44366e-07 0)
(-2.65022e-09 -7.40069e-07 0)
(-2.63343e-09 -7.35795e-07 0)
(-2.61561e-09 -7.31547e-07 0)
(-2.59684e-09 -7.2733e-07 0)
(-2.57716e-09 -7.23144e-07 0)
(-2.55664e-09 -7.18991e-07 0)
(-2.53533e-09 -7.14872e-07 0)
(-2.51328e-09 -7.10788e-07 0)
(-2.49054e-09 -7.0674e-07 0)
(-2.46716e-09 -7.0273e-07 0)
(-2.44318e-09 -6.98757e-07 0)
(-2.41863e-09 -6.94825e-07 0)
(-2.39357e-09 -6.90932e-07 0)
(-2.36803e-09 -6.8708e-07 0)
(-2.34203e-09 -6.8327e-07 0)
(-2.31562e-09 -6.79503e-07 0)
(-2.28883e-09 -6.75778e-07 0)
(-2.26168e-09 -6.72098e-07 0)
(-2.2342e-09 -6.68461e-07 0)
(-2.20642e-09 -6.64869e-07 0)
(-2.17836e-09 -6.61323e-07 0)
(-2.15004e-09 -6.57822e-07 0)
(-2.12148e-09 -6.54367e-07 0)
(-2.09271e-09 -6.50958e-07 0)
(-2.06374e-09 -6.47596e-07 0)
(-2.03458e-09 -6.44281e-07 0)
(-2.00525e-09 -6.41014e-07 0)
(-1.97576e-09 -6.37794e-07 0)
(-1.94614e-09 -6.34622e-07 0)
(-1.91638e-09 -6.31498e-07 0)
(-1.88651e-09 -6.28422e-07 0)
(-1.85652e-09 -6.25394e-07 0)
(-1.82643e-09 -6.22416e-07 0)
(-1.79625e-09 -6.19486e-07 0)
(-1.76598e-09 -6.16604e-07 0)
(-1.73564e-09 -6.13772e-07 0)
(-1.70521e-09 -6.10989e-07 0)
(-1.67472e-09 -6.08256e-07 0)
(-1.64416e-09 -6.05571e-07 0)
(-1.61354e-09 -6.02937e-07 0)
(-1.58287e-09 -6.00351e-07 0)
(-1.55213e-09 -5.97816e-07 0)
(-1.52135e-09 -5.9533e-07 0)
(-1.49051e-09 -5.92894e-07 0)
(-1.45962e-09 -5.90508e-07 0)
(-1.42868e-09 -5.88172e-07 0)
(-1.3977e-09 -5.85886e-07 0)
(-1.36667e-09 -5.8365e-07 0)
(-1.33559e-09 -5.81465e-07 0)
(-1.30446e-09 -5.79329e-07 0)
(-1.27329e-09 -5.77245e-07 0)
(-1.24206e-09 -5.7521e-07 0)
(-1.2108e-09 -5.73226e-07 0)
(-1.17948e-09 -5.71293e-07 0)
(-1.14811e-09 -5.6941e-07 0)
(-1.1167e-09 -5.67579e-07 0)
(-1.08523e-09 -5.65798e-07 0)
(-1.05372e-09 -5.64068e-07 0)
(-1.02215e-09 -5.62389e-07 0)
(-9.90534e-10 -5.60761e-07 0)
(-9.58865e-10 -5.59184e-07 0)
(-9.27143e-10 -5.57659e-07 0)
(-8.9537e-10 -5.56185e-07 0)
(-8.63543e-10 -5.54762e-07 0)
(-8.31665e-10 -5.53391e-07 0)
(-7.99734e-10 -5.52072e-07 0)
(-7.6775e-10 -5.50804e-07 0)
(-7.35715e-10 -5.49588e-07 0)
(-7.03629e-10 -5.48424e-07 0)
(-6.71492e-10 -5.47311e-07 0)
(-6.39305e-10 -5.46251e-07 0)
(-6.0707e-10 -5.45243e-07 0)
(-5.74788e-10 -5.44287e-07 0)
(-5.4246e-10 -5.43384e-07 0)
(-5.10088e-10 -5.42532e-07 0)
(-4.77674e-10 -5.41733e-07 0)
(-4.4522e-10 -5.40987e-07 0)
(-4.12727e-10 -5.40293e-07 0)
(-3.80199e-10 -5.39652e-07 0)
(-3.47637e-10 -5.39062e-07 0)
(-3.15045e-10 -5.38529e-07 0)
(-2.82421e-10 -5.38035e-07 0)
(-2.49775e-10 -5.37642e-07 0)
(-2.17081e-10 -5.37139e-07 0)
(-1.84437e-10 -5.37222e-07 0)
(-1.51514e-10 -5.35555e-07 0)
(-1.19469e-10 -5.39692e-07 0)
(-8.43787e-11 -5.2338e-07 0)
(-6.05496e-11 -5.6624e-07 0)
(-2.82064e-11 -4.945e-07 0)
)
;
    }
    bottomWall
    {
        type            calculated;
        value           nonuniform List<vector> 
449
(
(-48.5905 -0.964919 0)
(-19.7728 -0.00516182 0)
(-14.3589 -0.00113616 0)
(-12.0464 -0.00054618 0)
(-10.6385 -0.000351953 0)
(-9.64342 -0.000256329 0)
(-8.88435 -0.000198746 0)
(-8.28005 -0.000160024 0)
(-7.78398 -0.000132496 0)
(-7.36681 -0.00011212 0)
(-7.00936 -9.64971e-05 0)
(-6.69856 -8.41718e-05 0)
(-6.42508 -7.42385e-05 0)
(-6.18201 -6.60977e-05 0)
(-5.96409 -5.9329e-05 0)
(-5.76725 -5.36291e-05 0)
(-5.5883 -4.87752e-05 0)
(-5.42466 -4.46014e-05 0)
(-5.27428 -4.09815e-05 0)
(-5.13546 -3.7818e-05 0)
(-5.00677 -3.50341e-05 0)
(-4.88705 -3.2569e-05 0)
(-4.7753 -3.0374e-05 0)
(-4.67068 -2.84094e-05 0)
(-4.57245 -2.66427e-05 0)
(-4.47998 -2.50472e-05 0)
(-4.39275 -2.36005e-05 0)
(-4.31027 -2.2284e-05 0)
(-4.23213 -2.10818e-05 0)
(-4.15796 -1.99806e-05 0)
(-4.08743 -1.89689e-05 0)
(-4.02026 -1.8037e-05 0)
(-3.95619 -1.71762e-05 0)
(-3.89499 -1.63793e-05 0)
(-3.83645 -1.56398e-05 0)
(-3.78039 -1.49521e-05 0)
(-3.72664 -1.43114e-05 0)
(-3.67503 -1.37132e-05 0)
(-3.62544 -1.31538e-05 0)
(-3.57774 -1.26297e-05 0)
(-3.5318 -1.2138e-05 0)
(-3.48753 -1.16758e-05 0)
(-3.44483 -1.12409e-05 0)
(-3.4036 -1.0831e-05 0)
(-3.36377 -1.04441e-05 0)
(-3.32526 -1.00785e-05 0)
(-3.28799 -9.7327e-06 0)
(-3.2519 -9.40513e-06 0)
(-3.21694 -9.09452e-06 0)
(-3.18304 -8.79969e-06 0)
(-3.15015 -8.51953e-06 0)
(-3.11822 -8.25306e-06 0)
(-3.08721 -7.99938e-06 0)
(-3.05707 -7.75764e-06 0)
(-3.02777 -7.52709e-06 0)
(-2.99927 -7.30702e-06 0)
(-2.97152 -7.09678e-06 0)
(-2.94451 -6.89579e-06 0)
(-2.91819 -6.70348e-06 0)
(-2.89254 -6.51935e-06 0)
(-2.86753 -6.34292e-06 0)
(-2.84314 -6.17377e-06 0)
(-2.81934 -6.01147e-06 0)
(-2.7961 -5.85566e-06 0)
(-2.77341 -5.70598e-06 0)
(-2.75124 -5.56211e-06 0)
(-2.72957 -5.42374e-06 0)
(-2.70839 -5.29058e-06 0)
(-2.68768 -5.16237e-06 0)
(-2.66742 -5.03885e-06 0)
(-2.6476 -4.91981e-06 0)
(-2.62819 -4.805e-06 0)
(-2.60919 -4.69424e-06 0)
(-2.59059 -4.58733e-06 0)
(-2.57236 -4.48408e-06 0)
(-2.55449 -4.38434e-06 0)
(-2.53699 -4.28792e-06 0)
(-2.51982 -4.19469e-06 0)
(-2.50298 -4.10451e-06 0)
(-2.48647 -4.01723e-06 0)
(-2.47027 -3.93273e-06 0)
(-2.45437 -3.8509e-06 0)
(-2.43876 -3.77161e-06 0)
(-2.42343 -3.69476e-06 0)
(-2.40838 -3.62025e-06 0)
(-2.3936 -3.54798e-06 0)
(-2.37908 -3.47786e-06 0)
(-2.36481 -3.40981e-06 0)
(-2.35078 -3.34374e-06 0)
(-2.33699 -3.27957e-06 0)
(-2.32344 -3.21724e-06 0)
(-2.31011 -3.15666e-06 0)
(-2.297 -3.09778e-06 0)
(-2.2841 -3.04052e-06 0)
(-2.27141 -2.98483e-06 0)
(-2.25892 -2.93065e-06 0)
(-2.24662 -2.87793e-06 0)
(-2.23452 -2.8266e-06 0)
(-2.22261 -2.77663e-06 0)
(-2.21088 -2.72796e-06 0)
(-2.19932 -2.68055e-06 0)
(-2.18794 -2.63435e-06 0)
(-2.17673 -2.58933e-06 0)
(-2.16569 -2.54543e-06 0)
(-2.1548 -2.50263e-06 0)
(-2.14407 -2.46089e-06 0)
(-2.1335 -2.42017e-06 0)
(-2.12307 -2.38043e-06 0)
(-2.11279 -2.34165e-06 0)
(-2.10266 -2.3038e-06 0)
(-2.09266 -2.26684e-06 0)
(-2.0828 -2.23074e-06 0)
(-2.07307 -2.19549e-06 0)
(-2.06348 -2.16105e-06 0)
(-2.05401 -2.12739e-06 0)
(-2.04467 -2.0945e-06 0)
(-2.03545 -2.06235e-06 0)
(-2.02635 -2.03092e-06 0)
(-2.01736 -2.00018e-06 0)
(-2.00849 -1.97012e-06 0)
(-1.99974 -1.94072e-06 0)
(-1.99109 -1.91195e-06 0)
(-1.98255 -1.88379e-06 0)
(-1.97412 -1.85624e-06 0)
(-1.96579 -1.82927e-06 0)
(-1.95756 -1.80287e-06 0)
(-1.94943 -1.77702e-06 0)
(-1.9414 -1.7517e-06 0)
(-1.93346 -1.7269e-06 0)
(-1.92562 -1.70261e-06 0)
(-1.91787 -1.67881e-06 0)
(-1.9102 -1.65549e-06 0)
(-1.90263 -1.63264e-06 0)
(-1.89515 -1.61023e-06 0)
(-1.88774 -1.58827e-06 0)
(-1.88043 -1.56674e-06 0)
(-1.87319 -1.54563e-06 0)
(-1.86603 -1.52492e-06 0)
(-1.85896 -1.50462e-06 0)
(-1.85196 -1.48469e-06 0)
(-1.84504 -1.46515e-06 0)
(-1.83819 -1.44597e-06 0)
(-1.83141 -1.42715e-06 0)
(-1.82471 -1.40868e-06 0)
(-1.81808 -1.39055e-06 0)
(-1.81152 -1.37275e-06 0)
(-1.80502 -1.35528e-06 0)
(-1.7986 -1.33812e-06 0)
(-1.79224 -1.32127e-06 0)
(-1.78594 -1.30473e-06 0)
(-1.77971 -1.28847e-06 0)
(-1.77354 -1.2725e-06 0)
(-1.76744 -1.25682e-06 0)
(-1.76139 -1.2414e-06 0)
(-1.75541 -1.22626e-06 0)
(-1.74948 -1.21137e-06 0)
(-1.74361 -1.19674e-06 0)
(-1.7378 -1.18236e-06 0)
(-1.73205 -1.16822e-06 0)
(-1.72635 -1.15432e-06 0)
(-1.7207 -1.14065e-06 0)
(-1.71511 -1.1272e-06 0)
(-1.70957 -1.11398e-06 0)
(-1.70408 -1.10098e-06 0)
(-1.69865 -1.08818e-06 0)
(-1.69326 -1.0756e-06 0)
(-1.68792 -1.06321e-06 0)
(-1.68264 -1.05102e-06 0)
(-1.6774 -1.03902e-06 0)
(-1.67221 -1.02715e-06 0)
(-1.66706 -1.01571e-06 0)
(-1.66196 -1.004e-06 0)
(-1.65691 -9.92023e-07 0)
(-1.65219 -9.82686e-07 0)
(-1.64775 -9.74262e-07 0)
(-1.6433 -9.63746e-07 0)
(-1.63886 -9.53283e-07 0)
(-1.63442 -9.43541e-07 0)
(-1.62997 -9.33849e-07 0)
(-1.62552 -9.24314e-07 0)
(-1.62107 -9.14875e-07 0)
(-1.61662 -9.05526e-07 0)
(-1.61216 -8.96256e-07 0)
(-1.6077 -8.87061e-07 0)
(-1.60324 -8.77934e-07 0)
(-1.59878 -8.68874e-07 0)
(-1.59431 -8.59879e-07 0)
(-1.58985 -8.50946e-07 0)
(-1.58538 -8.42075e-07 0)
(-1.58091 -8.33264e-07 0)
(-1.57644 -8.24513e-07 0)
(-1.57197 -8.15821e-07 0)
(-1.5675 -8.07188e-07 0)
(-1.56303 -7.98613e-07 0)
(-1.55855 -7.90096e-07 0)
(-1.55408 -7.81637e-07 0)
(-1.54961 -7.73236e-07 0)
(-1.54513 -7.64892e-07 0)
(-1.54066 -7.56606e-07 0)
(-1.53619 -7.48377e-07 0)
(-1.53172 -7.40205e-07 0)
(-1.52725 -7.32091e-07 0)
(-1.52278 -7.24034e-07 0)
(-1.51831 -7.16035e-07 0)
(-1.51384 -7.08093e-07 0)
(-1.50937 -7.00209e-07 0)
(-1.50491 -6.92383e-07 0)
(-1.50045 -6.84614e-07 0)
(-1.49599 -6.76902e-07 0)
(-1.49153 -6.69249e-07 0)
(-1.48708 -6.61653e-07 0)
(-1.48263 -6.54116e-07 0)
(-1.47818 -6.46636e-07 0)
(-1.47373 -6.39214e-07 0)
(-1.46929 -6.3185e-07 0)
(-1.46485 -6.24544e-07 0)
(-1.46042 -6.17296e-07 0)
(-1.45598 -6.10107e-07 0)
(-1.45156 -6.02975e-07 0)
(-1.44714 -5.95901e-07 0)
(-1.44272 -5.88885e-07 0)
(-1.4383 -5.81928e-07 0)
(-1.4339 -5.75028e-07 0)
(-1.42949 -5.68186e-07 0)
(-1.42509 -5.61402e-07 0)
(-1.4207 -5.54676e-07 0)
(-1.41631 -5.48008e-07 0)
(-1.41193 -5.41397e-07 0)
(-1.40756 -5.34844e-07 0)
(-1.40319 -5.28349e-07 0)
(-1.39882 -5.21911e-07 0)
(-1.39447 -5.15531e-07 0)
(-1.39012 -5.09207e-07 0)
(-1.38577 -5.02941e-07 0)
(-1.38144 -4.96732e-07 0)
(-1.37711 -4.9058e-07 0)
(-1.37279 -4.84485e-07 0)
(-1.36847 -4.78446e-07 0)
(-1.36416 -4.72464e-07 0)
(-1.35986 -4.66538e-07 0)
(-1.35557 -4.60668e-07 0)
(-1.35129 -4.54854e-07 0)
(-1.34701 -4.49096e-07 0)
(-1.34275 -4.43394e-07 0)
(-1.33849 -4.37747e-07 0)
(-1.33424 -4.32155e-07 0)
(-1.33 -4.26618e-07 0)
(-1.32577 -4.21136e-07 0)
(-1.32154 -4.15708e-07 0)
(-1.31733 -4.10335e-07 0)
(-1.31312 -4.05017e-07 0)
(-1.30893 -3.99752e-07 0)
(-1.30474 -3.9454e-07 0)
(-1.30057 -3.89382e-07 0)
(-1.2964 -3.84278e-07 0)
(-1.29225 -3.79226e-07 0)
(-1.2881 -3.74227e-07 0)
(-1.28397 -3.6928e-07 0)
(-1.27984 -3.64385e-07 0)
(-1.27573 -3.59542e-07 0)
(-1.27162 -3.54751e-07 0)
(-1.26753 -3.50011e-07 0)
(-1.26345 -3.45322e-07 0)
(-1.25938 -3.40684e-07 0)
(-1.25532 -3.36096e-07 0)
(-1.25127 -3.31558e-07 0)
(-1.24723 -3.2707e-07 0)
(-1.24321 -3.22632e-07 0)
(-1.23919 -3.18243e-07 0)
(-1.23519 -3.13903e-07 0)
(-1.2312 -3.09611e-07 0)
(-1.22722 -3.05368e-07 0)
(-1.22325 -3.01172e-07 0)
(-1.2193 -2.97024e-07 0)
(-1.21536 -2.92924e-07 0)
(-1.21143 -2.8887e-07 0)
(-1.20751 -2.84863e-07 0)
(-1.2036 -2.80902e-07 0)
(-1.19971 -2.76988e-07 0)
(-1.19583 -2.73119e-07 0)
(-1.19196 -2.69295e-07 0)
(-1.18811 -2.65516e-07 0)
(-1.18426 -2.61782e-07 0)
(-1.18044 -2.58092e-07 0)
(-1.17662 -2.54446e-07 0)
(-1.17282 -2.50843e-07 0)
(-1.16903 -2.47284e-07 0)
(-1.16525 -2.43768e-07 0)
(-1.16149 -2.40294e-07 0)
(-1.15774 -2.36862e-07 0)
(-1.154 -2.33472e-07 0)
(-1.15028 -2.30124e-07 0)
(-1.14657 -2.26817e-07 0)
(-1.14287 -2.2355e-07 0)
(-1.13919 -2.20324e-07 0)
(-1.13552 -2.17138e-07 0)
(-1.13187 -2.13992e-07 0)
(-1.12823 -2.10885e-07 0)
(-1.1246 -2.07817e-07 0)
(-1.12099 -2.04788e-07 0)
(-1.11739 -2.01797e-07 0)
(-1.11381 -1.98844e-07 0)
(-1.11024 -1.95929e-07 0)
(-1.10668 -1.93051e-07 0)
(-1.10314 -1.9021e-07 0)
(-1.09961 -1.87405e-07 0)
(-1.0961 -1.84637e-07 0)
(-1.0926 -1.81904e-07 0)
(-1.08912 -1.79207e-07 0)
(-1.08565 -1.76545e-07 0)
(-1.08219 -1.73918e-07 0)
(-1.07875 -1.71325e-07 0)
(-1.07532 -1.68766e-07 0)
(-1.07191 -1.66241e-07 0)
(-1.06851 -1.6375e-07 0)
(-1.06513 -1.61291e-07 0)
(-1.06176 -1.58866e-07 0)
(-1.05841 -1.56472e-07 0)
(-1.05507 -1.54111e-07 0)
(-1.05175 -1.51781e-07 0)
(-1.04844 -1.49483e-07 0)
(-1.04514 -1.47216e-07 0)
(-1.04186 -1.4498e-07 0)
(-1.0386 -1.42774e-07 0)
(-1.03535 -1.40598e-07 0)
(-1.03211 -1.38451e-07 0)
(-1.02889 -1.36334e-07 0)
(-1.02569 -1.34247e-07 0)
(-1.0225 -1.32187e-07 0)
(-1.01932 -1.30157e-07 0)
(-1.01616 -1.28154e-07 0)
(-1.01301 -1.2618e-07 0)
(-1.00988 -1.24232e-07 0)
(-1.00676 -1.22312e-07 0)
(-1.00366 -1.20419e-07 0)
(-1.00058 -1.18553e-07 0)
(-0.997504 -1.16712e-07 0)
(-0.994447 -1.14898e-07 0)
(-0.991405 -1.13109e-07 0)
(-0.988378 -1.11346e-07 0)
(-0.985366 -1.09608e-07 0)
(-0.982368 -1.07895e-07 0)
(-0.979386 -1.06206e-07 0)
(-0.976418 -1.04542e-07 0)
(-0.973465 -1.02902e-07 0)
(-0.970527 -1.01286e-07 0)
(-0.967603 -9.9694e-08 0)
(-0.964695 -9.81261e-08 0)
(-0.9618 -9.65824e-08 0)
(-0.958921 -9.50641e-08 0)
(-0.956056 -9.35702e-08 0)
(-0.953205 -9.211e-08 0)
(-0.950368 -9.06843e-08 0)
(-0.947545 -8.9292e-08 0)
(-0.944419 -8.77622e-08 0)
(-0.941027 -8.61547e-08 0)
(-0.937694 -8.46492e-08 0)
(-0.93442 -8.31203e-08 0)
(-0.931207 -8.15506e-08 0)
(-0.928055 -8.00028e-08 0)
(-0.924963 -7.84943e-08 0)
(-0.92193 -7.70284e-08 0)
(-0.918952 -7.56047e-08 0)
(-0.916029 -7.42223e-08 0)
(-0.91316 -7.28799e-08 0)
(-0.910342 -7.15762e-08 0)
(-0.907575 -7.03097e-08 0)
(-0.904856 -6.90789e-08 0)
(-0.902184 -6.78822e-08 0)
(-0.899559 -6.67185e-08 0)
(-0.896978 -6.55864e-08 0)
(-0.894441 -6.44846e-08 0)
(-0.891947 -6.34121e-08 0)
(-0.889494 -6.23678e-08 0)
(-0.887081 -6.13506e-08 0)
(-0.884707 -6.03596e-08 0)
(-0.882371 -5.93938e-08 0)
(-0.880073 -5.84523e-08 0)
(-0.877811 -5.75343e-08 0)
(-0.875584 -5.6639e-08 0)
(-0.873392 -5.57656e-08 0)
(-0.871234 -5.49134e-08 0)
(-0.869108 -5.40816e-08 0)
(-0.867015 -5.32696e-08 0)
(-0.864953 -5.24767e-08 0)
(-0.862921 -5.17024e-08 0)
(-0.860919 -5.0946e-08 0)
(-0.858947 -5.0207e-08 0)
(-0.857003 -4.94848e-08 0)
(-0.855087 -4.87788e-08 0)
(-0.853198 -4.80887e-08 0)
(-0.851336 -4.74139e-08 0)
(-0.849499 -4.67539e-08 0)
(-0.847689 -4.61084e-08 0)
(-0.845903 -4.54768e-08 0)
(-0.844142 -4.48588e-08 0)
(-0.842404 -4.4254e-08 0)
(-0.84069 -4.3662e-08 0)
(-0.838999 -4.30824e-08 0)
(-0.83733 -4.25148e-08 0)
(-0.835683 -4.1959e-08 0)
(-0.834057 -4.14147e-08 0)
(-0.832453 -4.08814e-08 0)
(-0.830869 -4.03589e-08 0)
(-0.829305 -3.98469e-08 0)
(-0.827761 -3.93451e-08 0)
(-0.826236 -3.88533e-08 0)
(-0.824731 -3.83712e-08 0)
(-0.823244 -3.78985e-08 0)
(-0.821775 -3.7435e-08 0)
(-0.820324 -3.69805e-08 0)
(-0.818891 -3.65347e-08 0)
(-0.817475 -3.60974e-08 0)
(-0.816076 -3.56685e-08 0)
(-0.814694 -3.52476e-08 0)
(-0.813328 -3.48347e-08 0)
(-0.811977 -3.44296e-08 0)
(-0.810643 -3.4032e-08 0)
(-0.809324 -3.36417e-08 0)
(-0.80802 -3.32588e-08 0)
(-0.80673 -3.28829e-08 0)
(-0.805455 -3.2514e-08 0)
(-0.804195 -3.21518e-08 0)
(-0.802948 -3.17964e-08 0)
(-0.801716 -3.14476e-08 0)
(-0.800496 -3.11053e-08 0)
(-0.79929 -3.07694e-08 0)
(-0.798097 -3.04398e-08 0)
(-0.796917 -3.01166e-08 0)
(-0.795749 -2.97996e-08 0)
(-0.794594 -2.94891e-08 0)
(-0.79345 -2.91849e-08 0)
(-0.792318 -2.88874e-08 0)
(-0.791198 -2.85966e-08 0)
(-0.790089 -2.83131e-08 0)
(-0.78899 -2.80374e-08 0)
(-0.787903 -2.77705e-08 0)
(-0.786825 -2.75137e-08 0)
(-0.785758 -2.72686e-08 0)
(-0.784699 -2.70417e-08 0)
(-0.78365 -2.68294e-08 0)
(-0.782608 -2.66492e-08 0)
(-0.781572 -2.65892e-08 0)
(-0.780535 -2.64002e-08 0)
(-0.779514 -2.56583e-08 0)
(-0.778535 -3.35721e-08 0)
(-0.776896 -9.09821e-09 0)
(-0.777835 -2.46956e-08 0)
(-0.774935 -3.80006e-08 0)
)
;
    }
    symmetry
    {
        type            symmetryPlane;
    }
    frontAndBack
    {
        type            empty;
    }
}


// ************************************************************************* //
