/*--------------------------------*- C++ -*----------------------------------*\
| =========                 |                                                 |
| \\      /  F ield         | OpenFOAM: The Open Source CFD Toolbox           |
|  \\    /   O peration     | Version:  v2012                                 |
|   \\  /    A nd           | Website:  www.openfoam.com                      |
|    \\/     M anipulation  |                                                 |
\*---------------------------------------------------------------------------*/
FoamFile
{
    version     2.0;
    format      ascii;
    class       volScalarField;
    location    "12";
    object      nut;
}
// * * * * * * * * * * * * * * * * * * * * * * * * * * * * * * * * * * * * * //

dimensions      [0 2 -1 0 0 0 0];


internalField   nonuniform List<scalar> 
209825
(
1.24132e-07
1.24838e-07
1.25599e-07
1.26176e-07
1.26608e-07
1.26944e-07
1.27212e-07
1.2743e-07
1.27613e-07
1.27765e-07
1.27896e-07
1.28008e-07
1.28106e-07
1.2819e-07
1.28265e-07
1.2833e-07
1.28388e-07
1.28438e-07
1.28486e-07
1.28527e-07
1.28564e-07
1.28597e-07
1.28628e-07
1.28654e-07
1.28679e-07
1.28701e-07
1.28722e-07
1.2874e-07
1.28757e-07
1.28773e-07
1.28789e-07
1.28801e-07
1.28805e-07
1.28816e-07
1.28832e-07
1.28842e-07
1.28846e-07
1.28853e-07
1.28867e-07
1.28872e-07
1.28869e-07
1.2888e-07
1.28898e-07
1.28889e-07
1.28884e-07
1.28902e-07
1.28905e-07
1.28907e-07
1.28913e-07
1.28909e-07
1.28909e-07
1.28913e-07
1.28901e-07
1.28901e-07
1.28901e-07
1.28902e-07
1.28892e-07
1.28897e-07
1.28916e-07
1.28916e-07
1.289e-07
1.289e-07
1.28932e-07
1.28931e-07
1.28904e-07
1.2892e-07
1.28944e-07
1.28954e-07
1.28979e-07
1.28977e-07
1.28959e-07
1.28965e-07
1.28964e-07
1.28967e-07
1.28989e-07
1.29008e-07
1.29012e-07
1.29021e-07
1.29012e-07
1.29034e-07
1.29058e-07
1.29075e-07
1.29103e-07
1.29135e-07
1.29156e-07
1.29194e-07
1.29231e-07
1.29282e-07
1.29325e-07
1.2941e-07
1.29464e-07
1.29644e-07
1.29677e-07
1.30762e-07
1.35763e-07
2.10804e-08
1.24132e-07
1.24837e-07
1.25599e-07
1.26175e-07
1.26608e-07
1.26944e-07
1.27212e-07
1.2743e-07
1.27613e-07
1.27765e-07
1.27896e-07
1.28008e-07
1.28106e-07
1.2819e-07
1.28265e-07
1.2833e-07
1.28388e-07
1.28438e-07
1.28486e-07
1.28527e-07
1.28565e-07
1.28598e-07
1.28628e-07
1.28655e-07
1.28679e-07
1.28701e-07
1.28722e-07
1.2874e-07
1.28758e-07
1.28773e-07
1.28789e-07
1.28801e-07
1.28805e-07
1.28816e-07
1.28833e-07
1.28843e-07
1.28847e-07
1.28854e-07
1.28867e-07
1.28872e-07
1.28869e-07
1.2888e-07
1.28898e-07
1.2889e-07
1.28884e-07
1.28902e-07
1.28906e-07
1.28907e-07
1.28913e-07
1.28909e-07
1.28909e-07
1.28913e-07
1.28901e-07
1.28901e-07
1.28901e-07
1.28902e-07
1.28892e-07
1.28897e-07
1.28916e-07
1.28916e-07
1.289e-07
1.28901e-07
1.28932e-07
1.28931e-07
1.28904e-07
1.2892e-07
1.28945e-07
1.28954e-07
1.2898e-07
1.28978e-07
1.28959e-07
1.28965e-07
1.28964e-07
1.28967e-07
1.2899e-07
1.29009e-07
1.29012e-07
1.29021e-07
1.29013e-07
1.29035e-07
1.29058e-07
1.29075e-07
1.29104e-07
1.29136e-07
1.29156e-07
1.29195e-07
1.29231e-07
1.29283e-07
1.29326e-07
1.29411e-07
1.29464e-07
1.29645e-07
1.29678e-07
1.30765e-07
1.35769e-07
2.17092e-08
1.24132e-07
1.24836e-07
1.25596e-07
1.26173e-07
1.26605e-07
1.26941e-07
1.27209e-07
1.27427e-07
1.2761e-07
1.27762e-07
1.27893e-07
1.28005e-07
1.28103e-07
1.28187e-07
1.28262e-07
1.28327e-07
1.28385e-07
1.28436e-07
1.28483e-07
1.28524e-07
1.28562e-07
1.28595e-07
1.28626e-07
1.28652e-07
1.28676e-07
1.28698e-07
1.2872e-07
1.28737e-07
1.28755e-07
1.2877e-07
1.28786e-07
1.28799e-07
1.28803e-07
1.28814e-07
1.2883e-07
1.2884e-07
1.28844e-07
1.28851e-07
1.28865e-07
1.2887e-07
1.28867e-07
1.28878e-07
1.28895e-07
1.28887e-07
1.28882e-07
1.289e-07
1.28903e-07
1.28905e-07
1.28911e-07
1.28907e-07
1.28907e-07
1.28911e-07
1.28899e-07
1.28899e-07
1.28899e-07
1.289e-07
1.2889e-07
1.28895e-07
1.28914e-07
1.28914e-07
1.28898e-07
1.28898e-07
1.2893e-07
1.28929e-07
1.28902e-07
1.28918e-07
1.28942e-07
1.28952e-07
1.28978e-07
1.28976e-07
1.28957e-07
1.28963e-07
1.28962e-07
1.28965e-07
1.28988e-07
1.29006e-07
1.2901e-07
1.29019e-07
1.29011e-07
1.29033e-07
1.29056e-07
1.29073e-07
1.29102e-07
1.29134e-07
1.29154e-07
1.29193e-07
1.29229e-07
1.29281e-07
1.29324e-07
1.29409e-07
1.29462e-07
1.29643e-07
1.29676e-07
1.30767e-07
1.35778e-07
2.24892e-08
1.24131e-07
1.24833e-07
1.25592e-07
1.26168e-07
1.26601e-07
1.26936e-07
1.27204e-07
1.27423e-07
1.27605e-07
1.27758e-07
1.27889e-07
1.28001e-07
1.28099e-07
1.28183e-07
1.28258e-07
1.28323e-07
1.28381e-07
1.28432e-07
1.28479e-07
1.2852e-07
1.28558e-07
1.28591e-07
1.28622e-07
1.28648e-07
1.28672e-07
1.28694e-07
1.28716e-07
1.28734e-07
1.28751e-07
1.28767e-07
1.28783e-07
1.28795e-07
1.28799e-07
1.2881e-07
1.28827e-07
1.28836e-07
1.28841e-07
1.28848e-07
1.28861e-07
1.28866e-07
1.28863e-07
1.28874e-07
1.28892e-07
1.28884e-07
1.28878e-07
1.28897e-07
1.289e-07
1.28901e-07
1.28907e-07
1.28904e-07
1.28904e-07
1.28908e-07
1.28896e-07
1.28896e-07
1.28896e-07
1.28896e-07
1.28887e-07
1.28892e-07
1.2891e-07
1.2891e-07
1.28895e-07
1.28895e-07
1.28927e-07
1.28926e-07
1.28899e-07
1.28915e-07
1.28939e-07
1.28949e-07
1.28975e-07
1.28973e-07
1.28954e-07
1.2896e-07
1.28959e-07
1.28962e-07
1.28985e-07
1.29004e-07
1.29007e-07
1.29016e-07
1.29008e-07
1.2903e-07
1.29054e-07
1.2907e-07
1.29099e-07
1.29131e-07
1.29152e-07
1.2919e-07
1.29227e-07
1.29279e-07
1.29321e-07
1.29406e-07
1.2946e-07
1.2964e-07
1.29673e-07
1.30771e-07
1.3579e-07
2.33549e-08
1.2413e-07
1.24828e-07
1.25587e-07
1.26163e-07
1.26595e-07
1.2693e-07
1.27198e-07
1.27417e-07
1.27599e-07
1.27752e-07
1.27883e-07
1.27995e-07
1.28093e-07
1.28177e-07
1.28252e-07
1.28317e-07
1.28376e-07
1.28426e-07
1.28474e-07
1.28515e-07
1.28553e-07
1.28586e-07
1.28617e-07
1.28643e-07
1.28667e-07
1.28689e-07
1.28711e-07
1.28729e-07
1.28746e-07
1.28762e-07
1.28778e-07
1.2879e-07
1.28795e-07
1.28806e-07
1.28822e-07
1.28832e-07
1.28836e-07
1.28843e-07
1.28857e-07
1.28862e-07
1.28859e-07
1.2887e-07
1.28888e-07
1.2888e-07
1.28874e-07
1.28892e-07
1.28895e-07
1.28897e-07
1.28903e-07
1.28899e-07
1.28899e-07
1.28903e-07
1.28892e-07
1.28892e-07
1.28891e-07
1.28892e-07
1.28883e-07
1.28888e-07
1.28906e-07
1.28906e-07
1.28891e-07
1.28891e-07
1.28923e-07
1.28922e-07
1.28895e-07
1.28911e-07
1.28935e-07
1.28945e-07
1.28971e-07
1.28969e-07
1.2895e-07
1.28957e-07
1.28956e-07
1.28958e-07
1.28981e-07
1.29e-07
1.29004e-07
1.29013e-07
1.29005e-07
1.29026e-07
1.2905e-07
1.29067e-07
1.29096e-07
1.29128e-07
1.29148e-07
1.29187e-07
1.29223e-07
1.29275e-07
1.29318e-07
1.29403e-07
1.29457e-07
1.29637e-07
1.29669e-07
1.30777e-07
1.35808e-07
2.42938e-08
1.24128e-07
1.24823e-07
1.2558e-07
1.26155e-07
1.26587e-07
1.26923e-07
1.27191e-07
1.27409e-07
1.27592e-07
1.27745e-07
1.27876e-07
1.27988e-07
1.28086e-07
1.2817e-07
1.28245e-07
1.28311e-07
1.28369e-07
1.2842e-07
1.28468e-07
1.28509e-07
1.28547e-07
1.2858e-07
1.28611e-07
1.28637e-07
1.28661e-07
1.28684e-07
1.28705e-07
1.28723e-07
1.28741e-07
1.28756e-07
1.28772e-07
1.28785e-07
1.28789e-07
1.288e-07
1.28816e-07
1.28826e-07
1.2883e-07
1.28838e-07
1.28852e-07
1.28856e-07
1.28853e-07
1.28864e-07
1.28882e-07
1.28874e-07
1.28869e-07
1.28887e-07
1.2889e-07
1.28892e-07
1.28898e-07
1.28894e-07
1.28894e-07
1.28898e-07
1.28887e-07
1.28887e-07
1.28886e-07
1.28887e-07
1.28878e-07
1.28883e-07
1.28902e-07
1.28902e-07
1.28886e-07
1.28886e-07
1.28918e-07
1.28918e-07
1.28891e-07
1.28906e-07
1.28931e-07
1.2894e-07
1.28966e-07
1.28965e-07
1.28946e-07
1.28952e-07
1.28951e-07
1.28954e-07
1.28977e-07
1.28996e-07
1.29e-07
1.29009e-07
1.29001e-07
1.29022e-07
1.29046e-07
1.29063e-07
1.29092e-07
1.29124e-07
1.29145e-07
1.29183e-07
1.2922e-07
1.29272e-07
1.29314e-07
1.294e-07
1.29453e-07
1.29634e-07
1.29665e-07
1.30784e-07
1.35829e-07
2.53034e-08
1.24126e-07
1.24817e-07
1.25572e-07
1.26146e-07
1.26578e-07
1.26913e-07
1.27182e-07
1.274e-07
1.27583e-07
1.27736e-07
1.27867e-07
1.27979e-07
1.28078e-07
1.28162e-07
1.28237e-07
1.28303e-07
1.28361e-07
1.28412e-07
1.2846e-07
1.28501e-07
1.28539e-07
1.28572e-07
1.28603e-07
1.2863e-07
1.28654e-07
1.28676e-07
1.28698e-07
1.28716e-07
1.28734e-07
1.28749e-07
1.28765e-07
1.28778e-07
1.28782e-07
1.28793e-07
1.2881e-07
1.2882e-07
1.28824e-07
1.28831e-07
1.28845e-07
1.2885e-07
1.28847e-07
1.28858e-07
1.28876e-07
1.28868e-07
1.28862e-07
1.28881e-07
1.28884e-07
1.28886e-07
1.28892e-07
1.28888e-07
1.28888e-07
1.28892e-07
1.28881e-07
1.28881e-07
1.28881e-07
1.28881e-07
1.28872e-07
1.28877e-07
1.28896e-07
1.28896e-07
1.2888e-07
1.28881e-07
1.28912e-07
1.28912e-07
1.28885e-07
1.28901e-07
1.28925e-07
1.28935e-07
1.28961e-07
1.28959e-07
1.28941e-07
1.28947e-07
1.28946e-07
1.28949e-07
1.28972e-07
1.28991e-07
1.28995e-07
1.29004e-07
1.28996e-07
1.29018e-07
1.29041e-07
1.29058e-07
1.29087e-07
1.29119e-07
1.2914e-07
1.29179e-07
1.29215e-07
1.29268e-07
1.2931e-07
1.29396e-07
1.29449e-07
1.2963e-07
1.2966e-07
1.30794e-07
1.35851e-07
2.63839e-08
1.24124e-07
1.24809e-07
1.25562e-07
1.26136e-07
1.26568e-07
1.26903e-07
1.27171e-07
1.2739e-07
1.27573e-07
1.27726e-07
1.27857e-07
1.2797e-07
1.28068e-07
1.28152e-07
1.28228e-07
1.28294e-07
1.28352e-07
1.28403e-07
1.28451e-07
1.28493e-07
1.2853e-07
1.28564e-07
1.28595e-07
1.28621e-07
1.28646e-07
1.28668e-07
1.2869e-07
1.28708e-07
1.28726e-07
1.28741e-07
1.28757e-07
1.2877e-07
1.28775e-07
1.28786e-07
1.28802e-07
1.28812e-07
1.28817e-07
1.28824e-07
1.28838e-07
1.28842e-07
1.2884e-07
1.28851e-07
1.28869e-07
1.28861e-07
1.28855e-07
1.28873e-07
1.28876e-07
1.28879e-07
1.28885e-07
1.28881e-07
1.28881e-07
1.28885e-07
1.28874e-07
1.28874e-07
1.28874e-07
1.28875e-07
1.28866e-07
1.2887e-07
1.28889e-07
1.28889e-07
1.28874e-07
1.28874e-07
1.28906e-07
1.28906e-07
1.28879e-07
1.28895e-07
1.28919e-07
1.28929e-07
1.28955e-07
1.28953e-07
1.28935e-07
1.28941e-07
1.28941e-07
1.28943e-07
1.28966e-07
1.28985e-07
1.28989e-07
1.28999e-07
1.28991e-07
1.29012e-07
1.29036e-07
1.29053e-07
1.29082e-07
1.29114e-07
1.29135e-07
1.29174e-07
1.2921e-07
1.29263e-07
1.29305e-07
1.29391e-07
1.29444e-07
1.29626e-07
1.29655e-07
1.30806e-07
1.35875e-07
2.75363e-08
1.24121e-07
1.248e-07
1.25551e-07
1.26124e-07
1.26555e-07
1.2689e-07
1.27159e-07
1.27378e-07
1.27561e-07
1.27714e-07
1.27846e-07
1.27958e-07
1.28057e-07
1.28141e-07
1.28217e-07
1.28283e-07
1.28342e-07
1.28393e-07
1.28441e-07
1.28482e-07
1.28521e-07
1.28554e-07
1.28585e-07
1.28612e-07
1.28637e-07
1.28659e-07
1.28681e-07
1.28699e-07
1.28717e-07
1.28732e-07
1.28748e-07
1.28761e-07
1.28766e-07
1.28777e-07
1.28794e-07
1.28804e-07
1.28808e-07
1.28815e-07
1.28829e-07
1.28834e-07
1.28831e-07
1.28842e-07
1.2886e-07
1.28853e-07
1.28847e-07
1.28865e-07
1.28868e-07
1.28871e-07
1.28877e-07
1.28873e-07
1.28873e-07
1.28878e-07
1.28866e-07
1.28866e-07
1.28866e-07
1.28867e-07
1.28858e-07
1.28863e-07
1.28882e-07
1.28882e-07
1.28866e-07
1.28867e-07
1.28898e-07
1.28899e-07
1.28873e-07
1.28888e-07
1.28912e-07
1.28922e-07
1.28948e-07
1.28947e-07
1.28929e-07
1.28935e-07
1.28934e-07
1.28937e-07
1.2896e-07
1.28979e-07
1.28983e-07
1.28993e-07
1.28985e-07
1.29006e-07
1.2903e-07
1.29047e-07
1.29076e-07
1.29108e-07
1.29129e-07
1.29168e-07
1.29205e-07
1.29257e-07
1.293e-07
1.29386e-07
1.29439e-07
1.29621e-07
1.29649e-07
1.3082e-07
1.35899e-07
2.87614e-08
1.24118e-07
1.24791e-07
1.25538e-07
1.2611e-07
1.26541e-07
1.26876e-07
1.27145e-07
1.27364e-07
1.27547e-07
1.27701e-07
1.27833e-07
1.27945e-07
1.28044e-07
1.28129e-07
1.28205e-07
1.28271e-07
1.2833e-07
1.28381e-07
1.28429e-07
1.28471e-07
1.28509e-07
1.28543e-07
1.28574e-07
1.28601e-07
1.28626e-07
1.28648e-07
1.2867e-07
1.28688e-07
1.28706e-07
1.28722e-07
1.28738e-07
1.28752e-07
1.28756e-07
1.28767e-07
1.28784e-07
1.28794e-07
1.28799e-07
1.28806e-07
1.2882e-07
1.28825e-07
1.28822e-07
1.28833e-07
1.28851e-07
1.28844e-07
1.28838e-07
1.28856e-07
1.28859e-07
1.28861e-07
1.28868e-07
1.28865e-07
1.28865e-07
1.28869e-07
1.28858e-07
1.28858e-07
1.28858e-07
1.28859e-07
1.2885e-07
1.28854e-07
1.28874e-07
1.28874e-07
1.28858e-07
1.28858e-07
1.2889e-07
1.28891e-07
1.28865e-07
1.2888e-07
1.28904e-07
1.28914e-07
1.2894e-07
1.28939e-07
1.28921e-07
1.28928e-07
1.28927e-07
1.2893e-07
1.28953e-07
1.28972e-07
1.28976e-07
1.28986e-07
1.28978e-07
1.28999e-07
1.29023e-07
1.29041e-07
1.29069e-07
1.29102e-07
1.29123e-07
1.29162e-07
1.29198e-07
1.29251e-07
1.29294e-07
1.2938e-07
1.29433e-07
1.29615e-07
1.29642e-07
1.30837e-07
1.35924e-07
3.00587e-08
1.24114e-07
1.2478e-07
1.25524e-07
1.26095e-07
1.26526e-07
1.26861e-07
1.27129e-07
1.27349e-07
1.27532e-07
1.27686e-07
1.27818e-07
1.27931e-07
1.2803e-07
1.28115e-07
1.28191e-07
1.28258e-07
1.28317e-07
1.28368e-07
1.28417e-07
1.28459e-07
1.28497e-07
1.28531e-07
1.28562e-07
1.28589e-07
1.28614e-07
1.28637e-07
1.28659e-07
1.28677e-07
1.28695e-07
1.28711e-07
1.28727e-07
1.2874e-07
1.28745e-07
1.28756e-07
1.28773e-07
1.28783e-07
1.28788e-07
1.28795e-07
1.28809e-07
1.28814e-07
1.28812e-07
1.28822e-07
1.28841e-07
1.28834e-07
1.28828e-07
1.28846e-07
1.28849e-07
1.28851e-07
1.28858e-07
1.28855e-07
1.28855e-07
1.28859e-07
1.28848e-07
1.28848e-07
1.28848e-07
1.28849e-07
1.28841e-07
1.28845e-07
1.28865e-07
1.28865e-07
1.28849e-07
1.28849e-07
1.28881e-07
1.28883e-07
1.28856e-07
1.28871e-07
1.28895e-07
1.28905e-07
1.28931e-07
1.28931e-07
1.28913e-07
1.28919e-07
1.28919e-07
1.28922e-07
1.28945e-07
1.28964e-07
1.28968e-07
1.28978e-07
1.28971e-07
1.28992e-07
1.29016e-07
1.29033e-07
1.29062e-07
1.29095e-07
1.29116e-07
1.29155e-07
1.29192e-07
1.29245e-07
1.29287e-07
1.29373e-07
1.29426e-07
1.29609e-07
1.29634e-07
1.30856e-07
1.3595e-07
3.14262e-08
1.24111e-07
1.24767e-07
1.25508e-07
1.26078e-07
1.26508e-07
1.26843e-07
1.27112e-07
1.27332e-07
1.27515e-07
1.2767e-07
1.27802e-07
1.27915e-07
1.28014e-07
1.281e-07
1.28176e-07
1.28243e-07
1.28302e-07
1.28354e-07
1.28402e-07
1.28445e-07
1.28483e-07
1.28517e-07
1.28549e-07
1.28576e-07
1.28601e-07
1.28624e-07
1.28646e-07
1.28664e-07
1.28683e-07
1.28699e-07
1.28715e-07
1.28728e-07
1.28733e-07
1.28744e-07
1.28761e-07
1.28772e-07
1.28776e-07
1.28784e-07
1.28798e-07
1.28803e-07
1.288e-07
1.28811e-07
1.2883e-07
1.28823e-07
1.28817e-07
1.28835e-07
1.28838e-07
1.2884e-07
1.28847e-07
1.28844e-07
1.28844e-07
1.28849e-07
1.28838e-07
1.28838e-07
1.28838e-07
1.28839e-07
1.28831e-07
1.28834e-07
1.28855e-07
1.28855e-07
1.28839e-07
1.28839e-07
1.28871e-07
1.28873e-07
1.28847e-07
1.28862e-07
1.28886e-07
1.28895e-07
1.28922e-07
1.28922e-07
1.28904e-07
1.28911e-07
1.28911e-07
1.28913e-07
1.28936e-07
1.28955e-07
1.28959e-07
1.2897e-07
1.28963e-07
1.28983e-07
1.29008e-07
1.29025e-07
1.29054e-07
1.29087e-07
1.29108e-07
1.29148e-07
1.29184e-07
1.29237e-07
1.2928e-07
1.29366e-07
1.29419e-07
1.29602e-07
1.29625e-07
1.30878e-07
1.35977e-07
3.28596e-08
1.24106e-07
1.24754e-07
1.25491e-07
1.26059e-07
1.26489e-07
1.26824e-07
1.27093e-07
1.27313e-07
1.27497e-07
1.27652e-07
1.27784e-07
1.27898e-07
1.27997e-07
1.28083e-07
1.2816e-07
1.28226e-07
1.28286e-07
1.28338e-07
1.28387e-07
1.28429e-07
1.28468e-07
1.28502e-07
1.28534e-07
1.28561e-07
1.28587e-07
1.2861e-07
1.28632e-07
1.2865e-07
1.28669e-07
1.28685e-07
1.28701e-07
1.28715e-07
1.2872e-07
1.28731e-07
1.28748e-07
1.28759e-07
1.28764e-07
1.28771e-07
1.28785e-07
1.28791e-07
1.28788e-07
1.28798e-07
1.28817e-07
1.28811e-07
1.28804e-07
1.28822e-07
1.28826e-07
1.28828e-07
1.28835e-07
1.28832e-07
1.28833e-07
1.28837e-07
1.28826e-07
1.28826e-07
1.28826e-07
1.28828e-07
1.2882e-07
1.28823e-07
1.28844e-07
1.28844e-07
1.28828e-07
1.28828e-07
1.2886e-07
1.28863e-07
1.28837e-07
1.28852e-07
1.28875e-07
1.28885e-07
1.28912e-07
1.28912e-07
1.28895e-07
1.28901e-07
1.28901e-07
1.28903e-07
1.28927e-07
1.28946e-07
1.2895e-07
1.28961e-07
1.28954e-07
1.28975e-07
1.28999e-07
1.29017e-07
1.29045e-07
1.29078e-07
1.291e-07
1.29139e-07
1.29176e-07
1.29229e-07
1.29272e-07
1.29358e-07
1.29411e-07
1.29595e-07
1.29616e-07
1.30902e-07
1.36005e-07
3.43625e-08
1.24102e-07
1.24739e-07
1.25472e-07
1.26038e-07
1.26468e-07
1.26803e-07
1.27072e-07
1.27293e-07
1.27477e-07
1.27632e-07
1.27765e-07
1.27879e-07
1.27979e-07
1.28065e-07
1.28142e-07
1.28209e-07
1.28269e-07
1.28321e-07
1.2837e-07
1.28413e-07
1.28452e-07
1.28486e-07
1.28518e-07
1.28546e-07
1.28571e-07
1.28594e-07
1.28617e-07
1.28635e-07
1.28654e-07
1.2867e-07
1.28687e-07
1.287e-07
1.28706e-07
1.28717e-07
1.28734e-07
1.28745e-07
1.2875e-07
1.28757e-07
1.28771e-07
1.28777e-07
1.28774e-07
1.28785e-07
1.28804e-07
1.28798e-07
1.28791e-07
1.28809e-07
1.28813e-07
1.28815e-07
1.28822e-07
1.28819e-07
1.2882e-07
1.28824e-07
1.28814e-07
1.28814e-07
1.28814e-07
1.28815e-07
1.28808e-07
1.28811e-07
1.28832e-07
1.28832e-07
1.28816e-07
1.28816e-07
1.28848e-07
1.28852e-07
1.28826e-07
1.2884e-07
1.28864e-07
1.28874e-07
1.289e-07
1.28901e-07
1.28884e-07
1.2889e-07
1.28891e-07
1.28893e-07
1.28916e-07
1.28935e-07
1.2894e-07
1.28951e-07
1.28944e-07
1.28965e-07
1.28989e-07
1.29007e-07
1.29035e-07
1.29069e-07
1.29091e-07
1.2913e-07
1.29167e-07
1.29221e-07
1.29263e-07
1.29349e-07
1.29403e-07
1.29587e-07
1.29606e-07
1.30929e-07
1.36033e-07
3.5938e-08
1.24097e-07
1.24724e-07
1.25451e-07
1.26016e-07
1.26446e-07
1.26781e-07
1.2705e-07
1.2727e-07
1.27455e-07
1.2761e-07
1.27744e-07
1.27858e-07
1.27958e-07
1.28045e-07
1.28122e-07
1.28189e-07
1.2825e-07
1.28302e-07
1.28352e-07
1.28395e-07
1.28434e-07
1.28468e-07
1.28501e-07
1.28528e-07
1.28554e-07
1.28577e-07
1.286e-07
1.28619e-07
1.28638e-07
1.28654e-07
1.28671e-07
1.28685e-07
1.2869e-07
1.28701e-07
1.28719e-07
1.28729e-07
1.28735e-07
1.28742e-07
1.28757e-07
1.28762e-07
1.2876e-07
1.2877e-07
1.28789e-07
1.28784e-07
1.28776e-07
1.28794e-07
1.28798e-07
1.28801e-07
1.28808e-07
1.28805e-07
1.28806e-07
1.2881e-07
1.28801e-07
1.28801e-07
1.288e-07
1.28802e-07
1.28795e-07
1.28798e-07
1.28819e-07
1.28819e-07
1.28803e-07
1.28803e-07
1.28835e-07
1.28839e-07
1.28814e-07
1.28828e-07
1.28851e-07
1.28861e-07
1.28888e-07
1.28889e-07
1.28873e-07
1.28879e-07
1.28879e-07
1.28882e-07
1.28905e-07
1.28924e-07
1.28929e-07
1.28941e-07
1.28934e-07
1.28954e-07
1.28978e-07
1.28997e-07
1.29025e-07
1.29059e-07
1.29081e-07
1.29121e-07
1.29157e-07
1.29211e-07
1.29254e-07
1.2934e-07
1.29393e-07
1.29578e-07
1.29595e-07
1.30959e-07
1.36063e-07
3.75903e-08
1.24092e-07
1.24707e-07
1.25429e-07
1.25992e-07
1.26421e-07
1.26756e-07
1.27026e-07
1.27246e-07
1.27431e-07
1.27587e-07
1.27721e-07
1.27836e-07
1.27936e-07
1.28023e-07
1.28101e-07
1.28169e-07
1.28229e-07
1.28282e-07
1.28332e-07
1.28375e-07
1.28415e-07
1.28449e-07
1.28482e-07
1.2851e-07
1.28536e-07
1.28559e-07
1.28582e-07
1.28601e-07
1.2862e-07
1.28637e-07
1.28654e-07
1.28668e-07
1.28673e-07
1.28685e-07
1.28702e-07
1.28713e-07
1.28718e-07
1.28726e-07
1.2874e-07
1.28746e-07
1.28744e-07
1.28754e-07
1.28774e-07
1.28768e-07
1.28761e-07
1.28779e-07
1.28783e-07
1.28786e-07
1.28793e-07
1.28791e-07
1.28791e-07
1.28796e-07
1.28786e-07
1.28786e-07
1.28786e-07
1.28787e-07
1.28781e-07
1.28783e-07
1.28805e-07
1.28805e-07
1.28789e-07
1.28789e-07
1.28822e-07
1.28826e-07
1.28801e-07
1.28815e-07
1.28838e-07
1.28848e-07
1.28875e-07
1.28877e-07
1.28861e-07
1.28866e-07
1.28867e-07
1.2887e-07
1.28893e-07
1.28912e-07
1.28917e-07
1.28929e-07
1.28923e-07
1.28943e-07
1.28967e-07
1.28986e-07
1.29014e-07
1.29048e-07
1.2907e-07
1.2911e-07
1.29147e-07
1.29201e-07
1.29244e-07
1.2933e-07
1.29383e-07
1.29569e-07
1.29583e-07
1.30991e-07
1.36094e-07
3.93233e-08
1.24087e-07
1.24689e-07
1.25405e-07
1.25967e-07
1.26395e-07
1.2673e-07
1.26999e-07
1.27221e-07
1.27406e-07
1.27562e-07
1.27697e-07
1.27812e-07
1.27913e-07
1.28e-07
1.28078e-07
1.28146e-07
1.28207e-07
1.2826e-07
1.2831e-07
1.28354e-07
1.28394e-07
1.28429e-07
1.28462e-07
1.2849e-07
1.28516e-07
1.2854e-07
1.28563e-07
1.28582e-07
1.28601e-07
1.28618e-07
1.28635e-07
1.28649e-07
1.28655e-07
1.28667e-07
1.28684e-07
1.28695e-07
1.28701e-07
1.28709e-07
1.28723e-07
1.28729e-07
1.28727e-07
1.28737e-07
1.28757e-07
1.28752e-07
1.28744e-07
1.28762e-07
1.28766e-07
1.28769e-07
1.28777e-07
1.28774e-07
1.28775e-07
1.2878e-07
1.28771e-07
1.28771e-07
1.2877e-07
1.28772e-07
1.28766e-07
1.28768e-07
1.2879e-07
1.2879e-07
1.28774e-07
1.28775e-07
1.28807e-07
1.28812e-07
1.28787e-07
1.28801e-07
1.28824e-07
1.28834e-07
1.28861e-07
1.28863e-07
1.28847e-07
1.28853e-07
1.28854e-07
1.28857e-07
1.2888e-07
1.28899e-07
1.28905e-07
1.28917e-07
1.28911e-07
1.28931e-07
1.28955e-07
1.28974e-07
1.29002e-07
1.29037e-07
1.29059e-07
1.29099e-07
1.29135e-07
1.2919e-07
1.29233e-07
1.29319e-07
1.29372e-07
1.29559e-07
1.29571e-07
1.31026e-07
1.36126e-07
4.11411e-08
1.24081e-07
1.24669e-07
1.2538e-07
1.25939e-07
1.26367e-07
1.26701e-07
1.26971e-07
1.27193e-07
1.27379e-07
1.27535e-07
1.2767e-07
1.27786e-07
1.27887e-07
1.27975e-07
1.28054e-07
1.28122e-07
1.28184e-07
1.28237e-07
1.28287e-07
1.28331e-07
1.28372e-07
1.28407e-07
1.2844e-07
1.28469e-07
1.28495e-07
1.28519e-07
1.28542e-07
1.28562e-07
1.28581e-07
1.28598e-07
1.28615e-07
1.2863e-07
1.28636e-07
1.28648e-07
1.28665e-07
1.28676e-07
1.28682e-07
1.2869e-07
1.28705e-07
1.28711e-07
1.28709e-07
1.28719e-07
1.28739e-07
1.28734e-07
1.28726e-07
1.28744e-07
1.28749e-07
1.28752e-07
1.28759e-07
1.28757e-07
1.28758e-07
1.28763e-07
1.28754e-07
1.28754e-07
1.28754e-07
1.28755e-07
1.28749e-07
1.28751e-07
1.28773e-07
1.28774e-07
1.28757e-07
1.28759e-07
1.28791e-07
1.28796e-07
1.28773e-07
1.28786e-07
1.28808e-07
1.28819e-07
1.28846e-07
1.28848e-07
1.28833e-07
1.28839e-07
1.28841e-07
1.28843e-07
1.28866e-07
1.28886e-07
1.28891e-07
1.28904e-07
1.28898e-07
1.28918e-07
1.28942e-07
1.28961e-07
1.28989e-07
1.29024e-07
1.29046e-07
1.29087e-07
1.29123e-07
1.29178e-07
1.29221e-07
1.29308e-07
1.2936e-07
1.29548e-07
1.29557e-07
1.31063e-07
1.36159e-07
4.30477e-08
1.24076e-07
1.24649e-07
1.25353e-07
1.2591e-07
1.26336e-07
1.26671e-07
1.26941e-07
1.27163e-07
1.2735e-07
1.27507e-07
1.27642e-07
1.27758e-07
1.2786e-07
1.27948e-07
1.28028e-07
1.28096e-07
1.28158e-07
1.28212e-07
1.28263e-07
1.28307e-07
1.28348e-07
1.28383e-07
1.28417e-07
1.28446e-07
1.28472e-07
1.28496e-07
1.2852e-07
1.2854e-07
1.28559e-07
1.28577e-07
1.28594e-07
1.28609e-07
1.28615e-07
1.28627e-07
1.28644e-07
1.28656e-07
1.28662e-07
1.2867e-07
1.28685e-07
1.28691e-07
1.28689e-07
1.28699e-07
1.28719e-07
1.28715e-07
1.28707e-07
1.28725e-07
1.2873e-07
1.28733e-07
1.28741e-07
1.28739e-07
1.2874e-07
1.28745e-07
1.28736e-07
1.28736e-07
1.28736e-07
1.28738e-07
1.28732e-07
1.28734e-07
1.28756e-07
1.28757e-07
1.2874e-07
1.28741e-07
1.28774e-07
1.2878e-07
1.28757e-07
1.2877e-07
1.28792e-07
1.28802e-07
1.2883e-07
1.28833e-07
1.28818e-07
1.28824e-07
1.28826e-07
1.28828e-07
1.28851e-07
1.28871e-07
1.28877e-07
1.28889e-07
1.28884e-07
1.28904e-07
1.28928e-07
1.28947e-07
1.28975e-07
1.29011e-07
1.29033e-07
1.29074e-07
1.2911e-07
1.29166e-07
1.29208e-07
1.29295e-07
1.29348e-07
1.29536e-07
1.29543e-07
1.31103e-07
1.36193e-07
4.50473e-08
1.24069e-07
1.24627e-07
1.25324e-07
1.25878e-07
1.26304e-07
1.26639e-07
1.26909e-07
1.27132e-07
1.27319e-07
1.27476e-07
1.27612e-07
1.27729e-07
1.27831e-07
1.2792e-07
1.28e-07
1.28069e-07
1.28131e-07
1.28185e-07
1.28237e-07
1.28281e-07
1.28322e-07
1.28358e-07
1.28392e-07
1.28421e-07
1.28448e-07
1.28473e-07
1.28497e-07
1.28517e-07
1.28536e-07
1.28554e-07
1.28571e-07
1.28587e-07
1.28593e-07
1.28605e-07
1.28623e-07
1.28635e-07
1.28641e-07
1.28649e-07
1.28664e-07
1.2867e-07
1.28669e-07
1.28679e-07
1.28699e-07
1.28695e-07
1.28686e-07
1.28705e-07
1.28709e-07
1.28713e-07
1.28721e-07
1.28719e-07
1.2872e-07
1.28725e-07
1.28717e-07
1.28717e-07
1.28717e-07
1.28719e-07
1.28714e-07
1.28715e-07
1.28738e-07
1.28738e-07
1.28722e-07
1.28723e-07
1.28755e-07
1.28763e-07
1.2874e-07
1.28753e-07
1.28774e-07
1.28785e-07
1.28813e-07
1.28816e-07
1.28802e-07
1.28808e-07
1.2881e-07
1.28812e-07
1.28836e-07
1.28855e-07
1.28861e-07
1.28874e-07
1.28869e-07
1.28889e-07
1.28913e-07
1.28933e-07
1.2896e-07
1.28996e-07
1.29019e-07
1.2906e-07
1.29096e-07
1.29152e-07
1.29195e-07
1.29282e-07
1.29334e-07
1.29523e-07
1.29527e-07
1.31145e-07
1.36227e-07
4.71439e-08
1.24063e-07
1.24605e-07
1.25294e-07
1.25845e-07
1.2627e-07
1.26605e-07
1.26875e-07
1.27098e-07
1.27285e-07
1.27444e-07
1.2758e-07
1.27697e-07
1.27801e-07
1.2789e-07
1.2797e-07
1.2804e-07
1.28103e-07
1.28157e-07
1.28209e-07
1.28254e-07
1.28295e-07
1.28332e-07
1.28366e-07
1.28395e-07
1.28423e-07
1.28447e-07
1.28472e-07
1.28492e-07
1.28512e-07
1.28529e-07
1.28547e-07
1.28563e-07
1.2857e-07
1.28582e-07
1.28599e-07
1.28612e-07
1.28618e-07
1.28626e-07
1.28641e-07
1.28648e-07
1.28647e-07
1.28657e-07
1.28677e-07
1.28673e-07
1.28665e-07
1.28683e-07
1.28688e-07
1.28691e-07
1.287e-07
1.28698e-07
1.287e-07
1.28705e-07
1.28697e-07
1.28697e-07
1.28697e-07
1.28699e-07
1.28694e-07
1.28695e-07
1.28718e-07
1.28719e-07
1.28702e-07
1.28704e-07
1.28736e-07
1.28744e-07
1.28722e-07
1.28734e-07
1.28756e-07
1.28766e-07
1.28794e-07
1.28798e-07
1.28785e-07
1.2879e-07
1.28793e-07
1.28795e-07
1.28819e-07
1.28838e-07
1.28845e-07
1.28858e-07
1.28854e-07
1.28873e-07
1.28897e-07
1.28917e-07
1.28945e-07
1.28981e-07
1.29004e-07
1.29045e-07
1.29081e-07
1.29138e-07
1.2918e-07
1.29268e-07
1.2932e-07
1.29509e-07
1.29511e-07
1.31189e-07
1.36262e-07
4.93413e-08
1.24057e-07
1.24581e-07
1.25262e-07
1.2581e-07
1.26234e-07
1.26569e-07
1.26839e-07
1.27062e-07
1.2725e-07
1.27409e-07
1.27546e-07
1.27664e-07
1.27768e-07
1.27858e-07
1.27938e-07
1.28009e-07
1.28072e-07
1.28127e-07
1.28179e-07
1.28225e-07
1.28267e-07
1.28303e-07
1.28338e-07
1.28368e-07
1.28396e-07
1.2842e-07
1.28445e-07
1.28465e-07
1.28486e-07
1.28504e-07
1.28522e-07
1.28538e-07
1.28545e-07
1.28557e-07
1.28575e-07
1.28587e-07
1.28594e-07
1.28602e-07
1.28617e-07
1.28625e-07
1.28623e-07
1.28633e-07
1.28654e-07
1.28651e-07
1.28642e-07
1.2866e-07
1.28665e-07
1.28669e-07
1.28677e-07
1.28676e-07
1.28678e-07
1.28683e-07
1.28675e-07
1.28675e-07
1.28675e-07
1.28678e-07
1.28674e-07
1.28674e-07
1.28697e-07
1.28698e-07
1.28682e-07
1.28683e-07
1.28716e-07
1.28724e-07
1.28703e-07
1.28715e-07
1.28736e-07
1.28747e-07
1.28775e-07
1.28779e-07
1.28767e-07
1.28772e-07
1.28775e-07
1.28777e-07
1.28801e-07
1.28821e-07
1.28827e-07
1.28841e-07
1.28837e-07
1.28856e-07
1.2888e-07
1.28901e-07
1.28928e-07
1.28965e-07
1.28988e-07
1.29029e-07
1.29066e-07
1.29123e-07
1.29165e-07
1.29252e-07
1.29305e-07
1.29495e-07
1.29493e-07
1.31234e-07
1.36297e-07
5.1643e-08
1.2405e-07
1.24556e-07
1.25229e-07
1.25773e-07
1.26196e-07
1.2653e-07
1.26801e-07
1.27025e-07
1.27213e-07
1.27373e-07
1.27511e-07
1.27629e-07
1.27733e-07
1.27824e-07
1.27905e-07
1.27976e-07
1.2804e-07
1.28095e-07
1.28148e-07
1.28194e-07
1.28236e-07
1.28273e-07
1.28308e-07
1.28339e-07
1.28367e-07
1.28392e-07
1.28417e-07
1.28438e-07
1.28458e-07
1.28476e-07
1.28495e-07
1.28511e-07
1.28518e-07
1.28531e-07
1.28549e-07
1.28561e-07
1.28569e-07
1.28577e-07
1.28592e-07
1.286e-07
1.28599e-07
1.28608e-07
1.28629e-07
1.28626e-07
1.28617e-07
1.28636e-07
1.28641e-07
1.28645e-07
1.28653e-07
1.28653e-07
1.28655e-07
1.28659e-07
1.28653e-07
1.28653e-07
1.28653e-07
1.28655e-07
1.28652e-07
1.28652e-07
1.28675e-07
1.28676e-07
1.2866e-07
1.28662e-07
1.28694e-07
1.28703e-07
1.28683e-07
1.28694e-07
1.28715e-07
1.28726e-07
1.28754e-07
1.28759e-07
1.28747e-07
1.28753e-07
1.28756e-07
1.28758e-07
1.28782e-07
1.28802e-07
1.28808e-07
1.28823e-07
1.28819e-07
1.28838e-07
1.28862e-07
1.28883e-07
1.2891e-07
1.28947e-07
1.28971e-07
1.29013e-07
1.29049e-07
1.29106e-07
1.29148e-07
1.29236e-07
1.29288e-07
1.29479e-07
1.29475e-07
1.31281e-07
1.36332e-07
5.40517e-08
1.24043e-07
1.2453e-07
1.25193e-07
1.25735e-07
1.26156e-07
1.2649e-07
1.26761e-07
1.26985e-07
1.27174e-07
1.27334e-07
1.27473e-07
1.27591e-07
1.27697e-07
1.27788e-07
1.2787e-07
1.27941e-07
1.28006e-07
1.28062e-07
1.28115e-07
1.28161e-07
1.28204e-07
1.28242e-07
1.28277e-07
1.28308e-07
1.28336e-07
1.28362e-07
1.28387e-07
1.28408e-07
1.28429e-07
1.28447e-07
1.28466e-07
1.28483e-07
1.28491e-07
1.28503e-07
1.28521e-07
1.28534e-07
1.28542e-07
1.2855e-07
1.28565e-07
1.28573e-07
1.28573e-07
1.28582e-07
1.28603e-07
1.28601e-07
1.28592e-07
1.2861e-07
1.28616e-07
1.28619e-07
1.28628e-07
1.28628e-07
1.2863e-07
1.28635e-07
1.28629e-07
1.28629e-07
1.28629e-07
1.28631e-07
1.28628e-07
1.28628e-07
1.28652e-07
1.28653e-07
1.28637e-07
1.28639e-07
1.28671e-07
1.28681e-07
1.28662e-07
1.28673e-07
1.28693e-07
1.28704e-07
1.28733e-07
1.28738e-07
1.28727e-07
1.28732e-07
1.28736e-07
1.28738e-07
1.28762e-07
1.28782e-07
1.28789e-07
1.28804e-07
1.28801e-07
1.28819e-07
1.28843e-07
1.28865e-07
1.28892e-07
1.28929e-07
1.28953e-07
1.28995e-07
1.29031e-07
1.29089e-07
1.29131e-07
1.29219e-07
1.29271e-07
1.29462e-07
1.29455e-07
1.31328e-07
1.36367e-07
5.65695e-08
1.24036e-07
1.24503e-07
1.25157e-07
1.25694e-07
1.26114e-07
1.26447e-07
1.26719e-07
1.26943e-07
1.27133e-07
1.27293e-07
1.27433e-07
1.27552e-07
1.27658e-07
1.2775e-07
1.27832e-07
1.27904e-07
1.2797e-07
1.28026e-07
1.2808e-07
1.28127e-07
1.2817e-07
1.28208e-07
1.28244e-07
1.28275e-07
1.28304e-07
1.2833e-07
1.28355e-07
1.28377e-07
1.28398e-07
1.28417e-07
1.28436e-07
1.28453e-07
1.28461e-07
1.28473e-07
1.28492e-07
1.28505e-07
1.28513e-07
1.28522e-07
1.28537e-07
1.28545e-07
1.28545e-07
1.28555e-07
1.28576e-07
1.28574e-07
1.28565e-07
1.28583e-07
1.28589e-07
1.28593e-07
1.28602e-07
1.28602e-07
1.28604e-07
1.28609e-07
1.28603e-07
1.28603e-07
1.28604e-07
1.28606e-07
1.28604e-07
1.28603e-07
1.28627e-07
1.28629e-07
1.28612e-07
1.28614e-07
1.28647e-07
1.28658e-07
1.28639e-07
1.28649e-07
1.2867e-07
1.28681e-07
1.28709e-07
1.28715e-07
1.28705e-07
1.2871e-07
1.28715e-07
1.28717e-07
1.28741e-07
1.28761e-07
1.28768e-07
1.28783e-07
1.28781e-07
1.28799e-07
1.28823e-07
1.28845e-07
1.28872e-07
1.28909e-07
1.28933e-07
1.28976e-07
1.29012e-07
1.2907e-07
1.29112e-07
1.292e-07
1.29252e-07
1.29444e-07
1.29434e-07
1.31376e-07
1.36402e-07
5.91971e-08
1.24029e-07
1.24475e-07
1.25118e-07
1.25651e-07
1.2607e-07
1.26403e-07
1.26674e-07
1.26899e-07
1.27089e-07
1.2725e-07
1.2739e-07
1.27511e-07
1.27617e-07
1.2771e-07
1.27793e-07
1.27866e-07
1.27932e-07
1.27989e-07
1.28043e-07
1.28091e-07
1.28134e-07
1.28173e-07
1.28209e-07
1.28241e-07
1.2827e-07
1.28296e-07
1.28322e-07
1.28344e-07
1.28366e-07
1.28385e-07
1.28404e-07
1.28421e-07
1.2843e-07
1.28443e-07
1.28461e-07
1.28475e-07
1.28483e-07
1.28492e-07
1.28507e-07
1.28516e-07
1.28517e-07
1.28526e-07
1.28547e-07
1.28545e-07
1.28536e-07
1.28554e-07
1.2856e-07
1.28564e-07
1.28574e-07
1.28574e-07