/*--------------------------------*- C++ -*----------------------------------*\
| =========                 |                                                 |
| \\      /  F ield         | OpenFOAM: The Open Source CFD Toolbox           |
|  \\    /   O peration     | Version:  v2012                                 |
|   \\  /    A nd           | Website:  www.openfoam.com                      |
|    \\/     M anipulation  |                                                 |
\*---------------------------------------------------------------------------*/
FoamFile
{
    version     2.0;
    format      ascii;
    class       volScalarField;
    location    "12";
    object      omega;
}
// * * * * * * * * * * * * * * * * * * * * * * * * * * * * * * * * * * * * * //

dimensions      [0 0 -1 0 0 0 0];


internalField   nonuniform List<scalar> 
209825
(
8226.71
7737.31
7477.74
7325.58
7226.26
7156.94
7105.77
7066.99
7036.49
7012.32
6992.54
6976.41
6962.82
6951.54
6941.82
6933.64
6926.45
6920.36
6914.9
6910.28
6906.04
6902.44
6899.16
6896.42
6893.71
6891.45
6889.36
6887.67
6885.88
6884.46
6883.09
6881.99
6880.91
6880.09
6879.05
6878.33
6877.68
6877.21
6876.4
6876.01
6875.69
6875.34
6874.4
6874.81
6874.81
6874.81
6874.78
6874.69
6874.36
6874.62
6874.59
6875.59
6876.22
6876.22
6876.21
6877.29
6878.17
6878.45
6878.49
6878.49
6879.32
6880.24
6880.24
6880.88
6882.32
6882.32
6882.32
6883.48
6883.48
6884.65
6886.18
6887.32
6888.87
6890.1
6890.1
6891.32
6892.69
6893.74
6895.66
6896.94
6897.89
6899.85
6901.01
6902.9
6904.71
6907.18
6909.04
6912.38
6914.42
6919.28
6921.67
6930.28
6931.15
6978.24
7188.07
116209
8226.71
7737.26
7477.64
7325.44
7226.09
7156.75
7105.56
7066.76
7036.26
7012.08
6992.29
6976.15
6962.56
6951.28
6941.55
6933.36
6926.17
6920.08
6914.62
6910
6905.76
6902.15
6898.87
6896.13
6893.42
6891.16
6889.07
6887.38
6885.59
6884.16
6882.79
6881.69
6880.61
6879.8
6878.75
6878.03
6877.38
6876.91
6876.1
6875.71
6875.39
6875.04
6874.09
6874.51
6874.51
6874.5
6874.48
6874.38
6874.06
6874.31
6874.29
6875.28
6875.91
6875.91
6875.91
6876.99
6877.87
6878.14
6878.19
6878.19
6879.01
6879.93
6879.93
6880.58
6882.01
6882.01
6882.01
6883.17
6883.17
6884.35
6885.88
6887.01
6888.56
6889.79
6889.79
6891.01
6892.38
6893.43
6895.36
6896.63
6897.59
6899.55
6900.7
6902.59
6904.41
6906.87
6908.74
6912.07
6914.11
6918.98
6921.37
6929.98
6930.85
6978.02
7187.95
112914
8226.7
7737.06
7477.27
7324.94
7225.49
7156.09
7104.85
7066.01
7035.47
7011.25
6991.44
6975.29
6961.68
6950.38
6940.64
6932.45
6925.24
6919.15
6913.68
6909.05
6904.8
6901.19
6897.9
6895.16
6892.45
6890.18
6888.09
6886.39
6884.6
6883.17
6881.8
6880.69
6879.61
6878.8
6877.75
6877.03
6876.38
6875.91
6875.1
6874.7
6874.38
6874.03
6873.09
6873.5
6873.5
6873.49
6873.47
6873.37
6873.05
6873.3
6873.27
6874.27
6874.9
6874.9
6874.89
6875.97
6876.85
6877.12
6877.17
6877.17
6877.99
6878.92
6878.92
6879.56
6880.99
6880.99
6880.99
6882.15
6882.15
6883.33
6884.86
6885.99
6887.54
6888.77
6888.77
6889.99
6891.36
6892.41
6894.34
6895.61
6896.57
6898.53
6899.69
6901.58
6903.39
6905.86
6907.72
6911.06
6913.1
6917.96
6920.35
6928.96
6929.82
6977.18
7187.28
109134
8226.69
7736.72
7476.62
7324.08
7224.47
7154.94
7103.61
7064.7
7034.1
7009.84
6989.99
6973.8
6960.17
6948.84
6939.08
6930.87
6923.65
6917.54
6912.06
6907.42
6903.16
6899.54
6896.24
6893.5
6890.78
6888.5
6886.41
6884.7
6882.91
6881.48
6880.1
6878.99
6877.91
6877.09
6876.04
6875.32
6874.66
6874.19
6873.37
6872.98
6872.66
6872.31
6871.36
6871.77
6871.77
6871.76
6871.73
6871.63
6871.31
6871.56
6871.53
6872.53
6873.15
6873.15
6873.15
6874.22
6875.1
6875.38
6875.42
6875.42
6876.25
6877.17
6877.17
6877.81
6879.24
6879.25
6879.25
6880.41
6880.41
6881.58
6883.11
6884.24
6885.79
6887.03
6887.03
6888.25
6889.61
6890.67
6892.59
6893.87
6894.82
6896.79
6897.94
6899.83
6901.64
6904.11
6905.98
6909.31
6911.36
6916.22
6918.61
6927.21
6928.06
6975.71
7186.06
105248
8226.66
7736.22
7475.7
7322.84
7223.01
7153.31
7101.85
7062.84
7032.16
7007.83
6987.92
6971.69
6958.01
6946.65
6936.86
6928.62
6921.38
6915.25
6909.75
6905.1
6900.82
6897.19
6893.88
6891.12
6888.39
6886.11
6884.01
6882.3
6880.5
6879.06
6877.67
6876.56
6875.47
6874.65
6873.6
6872.87
6872.21
6871.74
6870.92
6870.52
6870.2
6869.85
6868.89
6869.3
6869.3
6869.29
6869.26
6869.16
6868.83
6869.08
6869.05
6870.05
6870.67
6870.67
6870.66
6871.74
6872.62
6872.89
6872.93
6872.93
6873.76
6874.68
6874.68
6875.32
6876.75
6876.76
6876.76
6877.92
6877.92
6879.09
6880.61
6881.75
6883.3
6884.54
6884.54
6885.76
6887.12
6888.18
6890.1
6891.38
6892.34
6894.3
6895.46
6897.35
6899.16
6901.63
6903.49
6906.83
6908.87
6913.73
6916.12
6924.73
6925.55
6973.59
7184.25
101361
8226.63
7735.58
7474.49
7321.23
7221.1
7151.19
7099.56
7060.41
7029.62
7005.21
6985.22
6968.93
6955.2
6943.8
6933.96
6925.69
6918.42
6912.26
6906.74
6902.06
6897.77
6894.12
6890.8
6888.03
6885.29
6882.99
6880.88
6879.16
6877.35
6875.9
6874.51
6873.39
6872.3
6871.47
6870.42
6869.68
6869.02
6868.54
6867.72
6867.32
6866.99
6866.64
6865.68
6866.08
6866.08
6866.07
6866.04
6865.94
6865.61
6865.85
6865.82
6866.81
6867.43
6867.43
6867.42
6868.49
6869.37
6869.64
6869.69
6869.68
6870.51
6871.43
6871.43
6872.07
6873.5
6873.51
6873.51
6874.67
6874.67
6875.84
6877.36
6878.5
6880.04
6881.29
6881.29
6882.51
6883.88
6884.93
6886.85
6888.13
6889.09
6891.05
6892.21
6894.1
6895.91
6898.39
6900.25
6903.59
6905.63
6910.49
6912.87
6921.48
6922.27
6970.82
7181.8
97513.3
8226.6
7734.78
7473.01
7319.23
7218.74
7148.55
7096.71
7057.4
7026.48
7001.96
6981.89
6965.51
6951.72
6940.26
6930.38
6922.06
6914.76
6908.57
6903.02
6898.31
6894
6890.33
6886.99
6884.2
6881.44
6879.13
6877.01
6875.28
6873.46
6872
6870.6
6869.47
6868.37
6867.54
6866.47
6865.74
6865.06
6864.58
6863.76
6863.35
6863.02
6862.66
6861.7
6862.09
6862.09
6862.08
6862.05
6861.94
6861.61
6861.85
6861.81
6862.8
6863.41
6863.41
6863.41
6864.48
6865.36
6865.63
6865.67
6865.66
6866.5
6867.41
6867.41
6868.04
6869.48
6869.49
6869.49
6870.64
6870.64
6871.81
6873.34
6874.48
6876.01
6877.26
6877.27
6878.48
6879.85
6880.91
6882.82
6884.12
6885.07
6887.04
6888.2
6890.09
6891.9
6894.37
6896.23
6899.58
6901.61
6906.47
6908.85
6917.46
6918.22
6967.39
7178.63
93723.3
8226.56
7733.84
7471.23
7316.86
7215.92
7145.41
7093.32
7053.81
7022.73
6998.07
6977.89
6961.43
6947.56
6936.03
6926.09
6917.73
6910.38
6904.15
6898.56
6893.83
6889.49
6885.79
6882.43
6879.62
6876.84
6874.52
6872.38
6870.63
6868.8
6867.33
6865.92
6864.79
6863.67
6862.83
6861.76
6861.02
6860.34
6859.85
6859.02
6858.61
6858.27
6857.91
6856.94
6857.32
6857.32
6857.31
6857.28
6857.17
6856.83
6857.06
6857.02
6858.01
6858.61
6858.61
6858.61
6859.68
6860.55
6860.82
6860.86
6860.86
6861.69
6862.6
6862.6
6863.23
6864.67
6864.68
6864.68
6865.83
6865.83
6867
6868.52
6869.66
6871.2
6872.45
6872.46
6873.67
6875.04
6876.1
6878.01
6879.31
6880.27
6882.23
6883.4
6885.29
6887.09
6889.57
6891.43
6894.78
6896.81
6901.66
6904.04
6912.65
6913.36
6963.29
7174.67
90000
8226.52
7732.74
7469.17
7314.09
7212.64
7141.75
7089.37
7049.63
7018.36
6993.55
6973.24
6956.67
6942.71
6931.1
6921.09
6912.67
6905.26
6898.99
6893.36
6888.59
6884.22
6880.5
6877.1
6874.27
6871.48
6869.13
6866.97
6865.21
6863.37
6861.89
6860.46
6859.31
6858.19
6857.34
6856.26
6855.51
6854.82
6854.32
6853.49
6853.07
6852.72
6852.36
6851.39
6851.76
6851.76
6851.75
6851.71
6851.6
6851.25
6851.48
6851.43
6852.42
6853.01
6853.01
6853.01
6854.07
6854.95
6855.21
6855.25
6855.25
6856.08
6856.99
6856.99
6857.62
6859.05
6859.06
6859.06
6860.22
6860.22
6861.39
6862.9
6864.05
6865.57
6866.84
6866.84
6868.06
6869.43
6870.49
6872.39
6873.7
6874.66
6876.62
6877.79
6879.68
6881.49
6883.97
6885.82
6889.17
6891.2
6896.05
6898.43
6907.03
6907.7
6958.51
7169.91
86345.9
8226.47
7731.49
7466.82
7310.93
7208.9
7137.57
7084.85
7044.84
7013.35
6988.37
6967.91
6951.22
6937.15
6925.45
6915.37
6906.88
6899.41
6893.09
6887.41
6882.6
6878.19
6874.43
6871.01
6868.15
6865.33
6862.97
6860.79
6859.01
6857.14
6855.65
6854.21
6853.05
6851.91
6851.05
6849.96
6849.2
6848.5
6848
6847.16
6846.73
6846.37
6846.01
6845.03
6845.39
6845.38
6845.38
6845.33
6845.21
6844.86
6845.08
6845.03
6846.01
6846.6
6846.6
6846.59
6847.66
6848.52
6848.79
6848.82
6848.82
6849.66
6850.56
6850.56
6851.19
6852.62
6852.63
6852.63
6853.78
6853.79
6854.95
6856.46
6857.61
6859.13
6860.41
6860.41
6861.62
6863
6864.06
6865.95
6867.28
6868.23
6870.2
6871.37
6873.26
6875.06
6877.55
6879.4
6882.75
6884.78
6889.63
6892
6900.6
6901.21
6953.04
7164.35
82759.2
8226.42
7730.09
7464.18
7307.37
7204.68
7132.85
7079.75
7039.44
7007.71
6982.52
6961.9
6945.06
6930.88
6919.08
6908.9
6900.34
6892.8
6886.42
6880.69
6875.84
6871.38
6867.59
6864.13
6861.24
6858.39
6856
6853.8
6852
6850.12
6848.6
6847.15
6845.97
6844.82
6843.94
6842.85
6842.07
6841.36
6840.85
6840
6839.57
6839.2
6838.83
6837.85
6838.19
6838.19
6838.18
6838.13
6838
6837.64
6837.86
6837.8
6838.78
6839.35
6839.35
6839.35
6840.41
6841.27
6841.53
6841.56
6841.56
6842.4
6843.3
6843.3
6843.92
6845.36
6845.37
6845.37
6846.52
6846.52
6847.68
6849.19
6850.34
6851.85
6853.14
6853.14
6854.36
6855.73
6856.79
6858.68
6860.02
6860.97
6862.94
6864.11
6866.01
6867.8
6870.3
6872.14
6875.5
6877.52
6882.37
6884.73
6893.33
6893.88
6946.87
7157.95
79234.1
8226.37
7728.55
7461.25
7303.41
7199.98
7127.6
7074.06
7033.42
7001.41
6976
6955.2
6938.2
6923.88
6911.97
6901.69
6893.04
6885.43
6878.98
6873.19
6868.28
6863.78
6859.95
6856.45
6853.53
6850.65
6848.23
6846
6844.17
6842.27
6840.74
6839.26
6838.07
6836.9
6836.01
6834.9
6834.12
6833.39
6832.87
6832.02
6831.57
6831.2
6830.82
6829.83
6830.15
6830.15
6830.14
6830.08
6829.95
6829.59
6829.79
6829.73
6830.7
6831.26
6831.26
6831.26
6832.31
6833.17
6833.43
6833.46
6833.46
6834.3
6835.19
6835.19
6835.81
6837.24
6837.26
6837.26
6838.41
6838.41
6839.57
6841.07
6842.23
6843.73
6845.03
6845.03
6846.24
6847.62
6848.68
6850.56
6851.91
6852.87
6854.83
6856.01
6857.91
6859.7
6862.2
6864.03
6867.4
6869.42
6874.26
6876.61
6885.21
6885.7
6939.98
7150.72
75761.5
8226.31
7726.85
7458.02
7299.06
7194.8
7121.8
7067.79
7026.77
6994.46
6968.8
6947.79
6930.62
6916.15
6904.11
6893.72
6884.97
6877.28
6870.75
6864.9
6859.93
6855.38
6851.5
6847.96
6844.99
6842.08
6839.63
6837.37
6835.52
6833.59
6832.04
6830.54
6829.33
6828.14
6827.24
6826.12
6825.31
6824.58
6824.05
6823.18
6822.72
6822.34
6821.96
6820.96
6821.26
6821.26
6821.24
6821.18
6821.05
6820.67
6820.87
6820.8
6821.76
6822.31
6822.31
6822.31
6823.35
6824.21
6824.46
6824.49
6824.49
6825.33
6826.22
6826.22
6826.83
6828.27
6828.28
6828.28
6829.43
6829.43
6830.59
6832.09
6833.25
6834.74
6836.05
6836.05
6837.26
6838.64
6839.71
6841.58
6842.94
6843.9
6845.86
6847.05
6848.95
6850.73
6853.23
6855.07
6858.43
6860.45
6865.28
6867.63
6876.22
6876.64
6932.37
7142.65
72347.8
8226.26
7725.01
7454.51
7294.29
7189.13
7115.45
7060.92
7019.48
6986.84
6960.91
6939.66
6922.3
6907.67
6895.49
6884.98
6876.12
6868.34
6861.73
6855.8
6850.77
6846.16
6842.22
6838.64
6835.63
6832.68
6830.2
6827.9
6826.02
6824.07
6822.49
6820.97
6819.74
6818.53
6817.61
6816.47
6815.66
6814.9
6814.36
6813.48
6813.02
6812.62
6812.23
6811.22
6811.5
6811.5
6811.48
6811.41
6811.27
6810.89
6811.08
6810.99
6811.95
6812.49
6812.49
6812.48
6813.53
6814.37
6814.62
6814.65
6814.65
6815.49
6816.38
6816.38
6816.98
6818.42
6818.43
6818.43
6819.58
6819.58
6820.74
6822.22
6823.39
6824.87
6826.2
6826.2
6827.41
6828.79
6829.85
6831.71
6833.09
6834.05
6836.01
6837.2
6839.1
6840.88
6843.39
6845.22
6848.59
6850.6
6855.43
6857.77
6866.36
6866.7
6924.03
7133.71
68999.1
8226.21
7723.03
7450.7
7289.13
7182.97
7108.55
7053.45
7011.56
6978.55
6952.32
6930.82
6913.25
6898.43
6886.1
6875.46
6866.48
6858.59
6851.9
6845.89
6840.78
6836.11
6832.12
6828.48
6825.43
6822.44
6819.91
6817.58
6815.67
6813.69
6812.08
6810.54
6809.28
6808.05
6807.12
6805.96
6805.13
6804.35
6803.8
6802.91
6802.43
6802.02
6801.63
6800.61
6800.87
6800.87
6800.84
6800.76
6800.61
6800.23
6800.4
6800.3
6801.25
6801.78
6801.78
6801.77
6802.81
6803.65
6803.9
6803.92
6803.92
6804.76
6805.64
6805.64
6806.24
6807.67
6807.69
6807.69
6808.83
6808.83
6809.99
6811.47
6812.64
6814.11
6815.45
6815.45
6816.66
6818.04
6819.11
6820.96
6822.35
6823.31
6825.27
6826.47
6828.37
6830.14
6832.66
6834.48
6837.86
6839.87
6844.69
6847.02
6855.59
6855.85
6914.93
7123.89
65720.9
8226.16
7720.9
7446.6
7283.56
7176.33
7101.1
7045.37
7002.98
6969.58
6943.01
6921.24
6903.44
6888.43
6875.92
6865.14
6856.04
6848.04
6841.24
6835.15
6829.97
6825.22
6821.17
6817.47
6814.37
6811.33
6808.77
6806.4
6804.45
6802.44
6800.8
6799.23
6797.95
6796.7
6795.74
6794.56
6793.71
6792.92
6792.35
6791.45
6790.96
6790.53
6790.13
6789.1
6789.34
6789.33
6789.3
6789.21
6789.06
6788.66
6788.82
6788.72
6789.66
6790.17
6790.16
6790.15
6791.19
6792.02
6792.26
6792.29
6792.28
6793.13
6794
6794
6794.59
6796.02
6796.05
6796.05
6797.18
6797.18
6798.34
6799.81
6800.98
6802.44
6803.79
6803.8
6805
6806.38
6807.46
6809.3
6810.71
6811.66
6813.63
6814.83
6816.73
6818.49
6821.02
6822.84
6826.22
6828.22
6833.03
6835.35
6843.92
6844.09
6905.07
7113.18
62518.5
8226.12
7718.63
7442.21
7277.58
7169.18
7093.08
7036.68
6993.75
6959.91
6932.99
6910.93
6892.87
6877.65
6864.96
6854.02
6844.78
6836.66
6829.75
6823.56
6818.3
6813.48
6809.36
6805.6
6802.44
6799.35
6796.75
6794.33
6792.35
6790.3
6788.63
6787.03
6785.73
6784.45
6783.46
6782.27
6781.4
6780.59
6780
6779.09
6778.58
6778.13
6777.73
6776.69
6776.9
6776.9
6776.85
6776.75
6776.6
6776.19
6776.34
6776.21
6777.15
6777.64
6777.64
6777.62
6778.65
6779.47
6779.71
6779.73
6779.73
6780.58
6781.44
6781.44
6782.02
6783.45
6783.48
6783.48
6784.61
6784.61
6785.77
6787.23
6788.41
6789.85
6791.22
6791.22
6792.43
6793.81
6794.89
6796.71
6798.14
6799.1
6801.06
6802.27
6804.18
6805.93
6808.46
6810.27
6813.65
6815.65
6820.46
6822.76
6831.32
6831.41
6894.42
7101.57
59396.8
8226.08
7716.23
7437.54
7271.19
7161.54
7084.5
7027.36
6983.86
6949.55
6922.25
6899.86
6881.54
6866.08
6853.2
6842.08
6832.7
6824.44
6817.42
6811.13
6805.78
6800.87
6796.68
6792.85
6789.64
6786.5
6783.84
6781.38
6779.36
6777.27
6775.57
6773.93
6772.6
6771.29
6770.28
6769.07
6768.17
6767.34
6766.74
6765.81
6765.28
6764.82
6764.41
6763.36
6763.54
6763.53
6763.48
6763.37
6763.21
6762.79
6762.92
6762.79
6763.71
6764.18
6764.18
6764.17
6765.18
6766
6766.23
6766.25
6766.25
6767.1
6767.95
6767.95
6768.52
6769.95
6769.98
6769.98
6771.11
6771.11
6772.27
6773.71
6774.9
6776.32
6777.71
6777.72
6778.92
6780.3
6781.38
6783.19
6784.64
6785.6
6787.56
6788.77
6790.68
6792.42
6794.96
6796.77
6800.15
6802.15
6806.94
6809.24
6817.78
6817.78
6882.98
7089.03
56360.3
8226.05
7713.7
7432.58
7264.4
7153.41
7075.35
7017.43
6973.3
6938.49
6910.77
6888.04
6869.43
6853.72
6840.63
6829.32
6819.78
6811.38
6804.24
6797.84
6792.38
6787.39
6783.12
6779.22
6775.94
6772.74
6770.03
6767.52
6765.46
6763.33
6761.59
6759.92
6758.55
6757.21
6756.18
6754.94
6754.03
6753.17
6752.55
6751.61
6751.06
6750.58
6750.15
6749.09
6749.25
6749.24
6749.18
6749.05
6748.88
6748.46
6748.57
6748.42
6749.33
6749.79
6749.78
6749.76
6750.78
6751.58
6751.81
6751.82
6751.82
6752.67
6753.51
6753.51
6754.08
6755.51
6755.54
6755.54
6756.66
6756.66
6757.82
6759.25
6760.44
6761.85
6763.25
6763.26
6764.46
6765.84
6766.93
6768.72
6770.19
6771.15
6773.11
6774.32
6776.24
6777.97
6780.52
6782.31
6785.7
6787.69
6792.48
6794.76
6803.28
6803.19
6870.73
7075.56
53413
8226.03
7711.03
7427.34
7257.21
7144.77
7065.62
7006.87
6962.07
6926.72
6898.56
6875.46
6856.53
6840.56
6827.24
6815.73
6806.02
6797.47
6790.19
6783.67
6778.11
6773.03
6768.67
6764.69
6761.34
6758.08
6755.32
6752.75
6750.64
6748.47
6746.69
6744.98
6743.58
6742.21
6741.15
6739.88
6738.94
6738.06
6737.42
6736.46
6735.89
6735.39
6734.96
6733.89
6734.02
6734
6733.92
6733.78
6733.61
6733.18
6733.27
6733.1
6734
6734.43
6734.43
6734.41
6735.41
6736.2
6736.42
6736.44
6736.43
6737.29
6738.11
6738.11
6738.68
6740.1
6740.13
6740.13
6741.25
6741.26
6742.4
6743.82
6745.02
6746.41
6747.83
6747.84
6749.04
6750.42
6751.52
6753.29
6754.77
6755.74
6757.69
6758.92
6760.84
6762.56
6765.11
6766.9
6770.29
6772.27
6777.05
6779.32
6787.83
6787.63
6857.64
7061.12
50558.8
8226.02
7708.24
7421.82
7249.61
7135.64
7055.33
6995.67
6950.17
6914.24
6885.6
6862.1
6842.84
6826.59
6813.02
6801.3
6791.4
6782.69
6775.27
6768.62
6762.95
6757.77
6753.32
6749.26
6745.83
6742.51
6739.68
6737.06
6734.89
6732.68
6730.86
6729.11
6727.67
6726.26
6725.17
6723.88
6722.91
6722
6721.34
6720.36
6719.78
6719.25
6718.81
6717.72
6717.83
6717.79
6717.71
6717.55
6717.37
6716.93
6717.01
6716.81
6717.71
6718.12
6718.11
6718.08
6719.08
6719.86
6720.07
6720.08
6720.08
6720.93
6721.75
6721.75
6722.3
6723.72
6723.76
6723.76
6724.87
6724.87
6726.02
6727.42
6728.63
6730
6731.44
6731.45
6732.64
6734.03
6735.13
6736.88
6738.39
6739.35
6741.3
6742.53
6744.46
6746.17
6748.73
6750.51
6753.9
6755.87
6760.64
6762.89
6771.39
6771.08
6843.7
7045.71
47801
8226.02
7705.33
7416.02
7241.61
7126
7044.47
6983.85
6937.59
6901.04
6871.9
6847.97
6828.36
6811.8
6797.97
6786.03
6775.93
6767.04
6759.47
6752.68
6746.89
6741.6
6737.05
6732.9
6729.4
6726
6723.11
6720.43
6718.21
6715.94
6714.08
6712.28
6710.81
6709.36
6708.24
6706.92
6705.93
6704.98
6704.3
6703.3
6702.69
6702.14
6701.69
6700.59
6700.66
6700.62
6700.52
6700.35
6700.17
6699.71
6699.77
6699.55
6700.43
6700.82
6700.82
6700.78
6701.77
6702.53
6702.74
6702.74
6702.74
6703.6
6704.4
6704.4
6704.94
6706.36
6706.4
6706.4
6707.51
6707.51
6708.65
6710.04
6711.25
6712.6
6714.06
6714.07
6715.26
6716.64
6717.75
6719.49
6721.01
6721.97
6723.93
6725.16
6727.09
6728.79
6731.36
6733.12
6736.52
6738.49
6743.24
6745.48
6753.96
6753.54
6828.88
7029.29
45142.7
8226.03
7702.3
7409.96
7233.21
7115.88
7033.03
6971.4
6924.32
6887.12
6857.44
6833.06
6813.07
6796.18
6782.07
6769.89
6759.58
6750.51
6742.78
6735.85
6729.93
6724.52
6719.87
6715.62
6712.04
6708.56
6705.6
6702.85
6700.58
6698.26
6696.34
6694.5
6692.99
6691.5
6690.35
6688.99
6687.97
6686.99
6686.29
6685.27
6684.63
6684.06
6683.59
6682.48
6682.52
6682.46
6682.35
6682.16
6681.97
6681.51
6681.54
6681.3
6682.17
6682.53
6682.53
6682.49
6683.46
6684.21
6684.41
6684.41
6684.41
6685.27
6686.05
6686.05
6686.58
6688
6688.04
6688.04
6689.14
6689.14
6690.29
6691.65
6692.87
6694.2
6695.69
6695.69
6696.88
6698.26
6699.37
6701.09
6702.63
6703.6
6705.55
6706.79
6708.72
6710.4
6712.98
6714.74
6718.14
6720.1
6724.83
6727.05
6735.53
6734.99
6813.16
7011.85
42586.5
8226.06
7699.16
7403.63
7224.42
7105.25
7021.02
6958.31
6910.37
6872.48
6842.22
6817.37
6796.97
6779.74
6765.33
6752.89
6742.36
6733.09
6725.19
6718.1
6712.04
6706.51
6701.75
6697.41
6693.73
6690.18
6687.14
6684.32
6681.98
6679.61
6677.64
6675.75
6674.19
6672.66
6671.47
6670.08
6669.03
6668.02
6667.29
6666.24
6665.58
6664.98
6664.5
6663.39
6663.39
6663.31
6663.18
6662.98
6662.78
6662.32
6662.32
6662.05
6662.9
6663.24
6663.24
6663.19
6664.15
6664.88
6665.07
6665.07
6665.07
6665.93
6666.7
6666.7
6667.22
6668.63
6668.67
6668.67
6669.77
6669.77
6670.91
6672.26
6673.49
6674.79
6676.3
6676.3
6677.48
6678.86
6679.98
6681.68
6683.24
6684.21
6686.16
6687.4
6689.34
6691.01
6693.59
6695.34
6698.74
6700.69
6705.41
6707.61
6716.07
6715.41
6796.52
6993.36
40134.9
8226.11
7695.92
7397.04
7215.24
7094.14
7008.44
6944.58
6895.74
6857.1
6826.24
6800.88
6780.05
6762.46
6747.74
6735.03
6724.26
6714.78
6706.69
6699.44
6693.24
6687.57
6682.7
6678.24
6674.47
6670.83
6667.72
6664.83
6662.42
6659.99
6657.97
6656.02
6654.42
6652.84
6651.61
6650.19
6649.1
6648.05
6647.3
6646.22
6645.54
6644.91
6644.42
6643.29
6643.25
6643.15
6643.01
6642.79
6642.58
6642.11
6642.09
6641.79
6642.63
6642.94
6642.94
6642.88
6643.83
6644.54
6644.72
6644.72
6644.72
6645.58
6646.33
6646.33
6646.84
6648.24
6648.29
6648.29
6649.38
6649.38
6650.52
6651.84
6653.08
6654.36
6655.88
6655.88
6657.07
6658.44
6659.57
6661.24
6662.82
6663.79
6665.74
6666.99
6668.93
6670.59
6673.17
6674.91
6678.31
6680.25
6684.96
6687.14
6695.59
6694.8
6778.92
6973.79
37789.7
8226.17
7692.57
7390.21
7205.68
7082.54
6995.28
6930.22
6880.42
6841
6809.5
6783.6
6762.32
6744.34
6729.29
6716.29
6705.26
6695.56
6687.28
6679.86
6673.5
6667.7
6662.7
6658.13
6654.26
6650.53
6647.33
6644.36
6641.88
6639.39
6637.31
6635.31
6633.65
6632.03
6630.76
6629.29
6628.17
6627.09
6626.3
6625.2
6624.49
6623.83
6623.32
6622.18
6622.1
6621.98
6621.82
6621.58
6621.37
6620.89
6620.84
6620.51
6621.33
6621.61
6621.61
6621.54
6622.48
6623.17
6623.34
6623.34
6623.34
6624.19
6624.93
6624.93
6625.43
6626.82
6626.87
6626.87
6627.95
6627.95
6629.09
6630.39
6631.64
6632.89
6634.44
6634.44
6635.62
6636.99
6638.13
6639.77
6641.37
6642.34
6644.29
6645.54
6647.48
6649.13
6651.72
6653.44
6656.84
6658.77
6663.47
6665.62
6674.06
6673.15
6760.35
6953.1
35552.5
8226.25
7689.13
7383.12
7195.74
7070.45
6981.57
6915.23
6864.41
6824.17
6791.99
6765.52
6743.77
6725.37
6709.97
6696.66
6685.38
6675.44
6666.95
6659.34
6652.82
6646.87
6641.75
6637.06
6633.08
6629.25
6625.97
6622.91
6620.36
6617.8
6615.66
6613.6
6611.89
6610.21
6608.9
6607.39
6606.23
6605.11
6604.29
6603.16
6602.42
6601.72
6601.2
6600.05
6599.93
6599.78
6599.61
6599.35
6599.13
6598.64
6598.56
6598.2
6599
6599.25
6599.26
6599.17
6600.1
6600.77
6600.92
6600.93
6600.92
6601.78
6602.5
6602.49
6602.98
6604.36
6604.42
6604.42
6605.49
6605.49
6606.62
6607.9
6609.15
6610.38
6611.94
6611.94
6613.12
6614.49
6615.64
6617.26
6618.87
6619.85
6621.79
6623.04
6624.99
6626.62
6629.22
6630.93
6634.32
6636.25
6640.92
6643.06
6651.48
6650.44
6740.77
6931.25
33424.8
8226.36
7685.61
7375.8
7185.42
7057.89
6967.29
6899.61
6847.72
6806.62
6773.72
6746.65
6724.39
6705.56
6689.79
6676.16
6664.59
6654.41
6645.7
6637.89
6631.2
6625.1
6619.83
6615.01
6610.92
6606.99
6603.62
6600.47
6597.85
6595.21
6593
6590.88
6589.12
6587.39
6586.02
6584.48
6583.27
6582.11
6581.26
6580.1
6579.33
6578.6
6578.05
6576.89
6576.73
6576.55
6576.36
6576.08
6575.85
6575.35
6575.25
6574.85
6575.63
6575.86
6575.86
6575.76
6576.68
6577.32
6577.46
6577.47
6577.45
6578.31
6579.01
6579.01
6579.48
6580.85
6580.91
6580.91
6581.97
6581.97
6583.1
6584.36
6585.62
6586.81
6588.39
6588.4
6589.57
6590.93
6592.09
6593.69
6595.32
6596.29
6598.23
6599.49
6601.44
6603.05
6605.65
6607.35
6610.74
6612.66
6617.31
6619.42
6627.83
6626.67
6720.16
6908.22
31407.4
8226.48
7682
7368.25
7174.75
7044.86
6952.45
6883.36
6830.35
6788.33
6754.67
6726.98
6704.18
6684.9
6668.73
6654.76
6642.9
6632.45
6623.52
6615.51
6608.64
6602.37
6596.95
6592
6587.79
6583.75
6580.28
6577.04
6574.33
6571.62
6569.34
6567.15
6565.33
6563.54
6562.13
6560.54
6559.29
6558.08
6557.19
6556.01
6555.2
6554.43
6553.87
6552.69
6552.49
6552.28
6552.07
6551.77
6551.52
6551.02
6550.89
6550.45
6551.21
6551.41
6551.41
6551.3
6552.2
6552.82
6552.94
6552.95
6552.94
6553.79
6554.47
6554.47
6554.92
6556.29
6556.34
6556.34
6557.4
6557.39
6558.52
6559.75
6561.02
6562.18
6563.78
6563.79
6564.96
6566.31
6567.48
6569.05
6570.7
6571.67
6573.6
6574.86
6576.82
6578.41
6581.02
6582.71
6586.09
6587.99
6592.63
6594.72
6603.11
6601.82
6698.49
6883.95
29501.3
8226.64
7678.33
7360.49
7163.72
7031.36
6937.06
6866.49
6812.3
6769.31
6734.87
6706.5
6683.15
6663.39
6646.81
6632.48
6620.3
6609.58
6600.4
6592.18
6585.11
6578.67
6573.11
6568.01
6563.67
6559.52
6555.94
6552.6
6549.81
6547.02
6544.67
6542.41
6540.53
6538.68
6537.21
6535.57
6534.28
6533.02
6532.1
6530.87
6530.03
6529.23
6528.65
6527.44
6527.2
6526.96
6526.73
6526.4
6526.15
6525.63
6525.48
6525
6525.73
6525.91
6525.9
6525.78
6526.66
6527.25
6527.36
6527.37
6527.35
6528.2
6528.86
6528.86
6529.29
6530.65
6530.71
6530.71
6531.75
6531.75
6532.88
6534.07
6535.35
6536.48
6538.1
6538.1
6539.27
6540.62
6541.79
6543.34
6545
6545.98
6547.9
6549.16
6551.13
6552.7
6555.31
6556.98
6560.36
6562.25
6566.87
6568.93
6577.3
6575.89
6675.71
6858.41
27707
8226.81
7674.59
7352.51
7152.35
7017.4
6921.12
6849
6793.57
6749.57
6714.29
6685.23
6661.29
6641.02
6624.01
6609.3
6596.8
6585.79
6576.35
6567.9
6560.63
6554.01
6548.28
6543.03
6538.57
6534.29
6530.6
6527.16
6524.28
6521.4
6518.97
6516.64
6514.69
6512.78
6511.26
6509.57
6508.23
6506.92
6505.96
6504.7
6503.82
6502.97
6502.37
6501.15
6500.86
6500.58
6500.33
6499.98
6499.72
6499.18
6499.01
6498.49
6499.19
6499.34
6499.33
6499.19
6500.05
6500.62
6500.72
6500.72
6500.7
6501.55
6502.18
6502.18
6502.6
6503.94
6504
6504
6505.03
6505.03
6506.15
6507.32
6508.6
6509.7
6511.33
6511.34
6512.51
6513.85
6515.03
6516.54
6518.22
6519.2
6521.12
6522.38
6524.34
6525.9
6528.51
6530.17
6533.54
6535.42
6540.01
6542.04
6550.4
6548.86
6651.76
6831.58
26025.1
8227.02
7670.79
7344.33
7140.64
7003
6904.65
6830.9
6774.17
6729.11
6692.96
6663.17
6638.6
6617.8
6600.34
6585.23
6572.38
6561.06
6551.36
6542.67
6535.19
6528.38
6522.48
6517.07
6512.46
6508.06
6504.26
6500.71
6497.73
6494.76
6492.26
6489.85
6487.83
6485.85
6484.27
6482.52
6481.13
6479.77
6478.77
6477.47
6476.55
6475.66
6475.04
6473.79
6473.46
6473.14
6472.87
6472.49
6472.22
6471.66
6471.47
6470.91
6471.58
6471.7
6471.69
6471.52
6472.37
6472.91
6472.99
6473
6472.97
6473.81
6474.42
6474.42
6474.82
6476.15
6476.21
6476.21
6477.23
6477.22
6478.35
6479.48
6480.77
6481.83
6483.48
6483.49
6484.65
6485.98
6487.17
6488.66
6490.35
6491.33
6493.24
6494.5
6496.47
6498.01
6500.62
6502.26
6505.62
6507.49
6512.06
6514.06
6522.39
6520.74
6626.59
6803.43
24455.9
8227.25
7666.94
7335.97
7128.61
6988.16
6887.64
6812.2
6754.1
6707.94
6670.87
6640.3
6615.09
6593.73
6575.79
6560.27
6547.06
6535.42
6525.44
6516.49
6508.79
6501.77
6495.7
6490.12
6485.37
6480.83
6476.91
6473.24
6470.16
6467.1
6464.51
6462.02
6459.93
6457.88
6456.23
6454.43
6452.99
6451.58
6450.52
6449.18
6448.23
6447.29
6446.64
6445.37
6444.99
6444.64
6444.35
6443.94
6443.65
6443.07
6442.86
6442.25
6442.89
6442.98
6442.98
6442.78
6443.61
6444.12
6444.18
6444.19
6444.16
6444.99
6445.57
6445.57
6445.95
6447.27
6447.33
6447.33
6448.33
6448.33
6449.45
6450.55
6451.85
6452.86
6454.53
6454.54
6455.7
6457.02
6458.22
6459.67
6461.38
6462.36
6464.26
6465.52
6467.49
6469.01
6471.62
6473.25
6476.6
6478.45
6483
6484.97
6493.27
6491.51
6600.13
6773.94
22998.2
8227.52
7663.06
7327.43
7116.26
6972.89
6870.12
6792.9
6733.38
6686.05
6648.02
6616.65
6590.75
6568.82
6550.37
6534.41
6520.82
6508.85
6498.57
6489.36
6481.42
6474.19
6467.93
6462.18
6457.27
6452.6
6448.55
6444.76
6441.57
6438.41
6435.73
6433.16
6430.99
6428.86
6427.16
6425.29
6423.79
6422.32
6421.22
6419.84
6418.84
6417.86
6417.18
6415.89
6415.46
6415.06
6414.74
6414.31
6414
6413.41
6413.17
6412.52
6413.12
6413.18
6413.18
6412.96
6413.76
6414.24
6414.29
6414.3
6414.26
6415.08
6415.63
6415.63
6416
6417.3
6417.36
6417.36
6418.34
6418.34
6419.46
6420.52
6421.82
6422.8
6424.48
6424.49
6425.65
6426.96
6428.17
6429.59
6431.3
6432.28
6434.18
6435.44
6437.41
6438.91
6441.52
6443.13
6446.46
6448.3
6452.82
6454.76
6463.03
6461.17
6572.33
6743.07
21646.7
8227.81
7659.14
7318.73
7103.62
6957.21
6852.08
6773.01
6712
6663.46
6624.43
6592.22
6565.61
6543.06
6524.09
6507.67
6493.68
6481.35
6470.77
6461.28
6453.1
6445.64
6439.18
6433.25
6428.18
6423.35
6419.18
6415.26
6411.96
6408.7
6405.92
6403.26
6401.01
6398.8
6397.03
6395.1
6393.55
6392.01
6390.86
6389.44
6388.39
6387.36
6386.65
6385.33
6384.85
6384.41
6384.07
6383.6
6383.27
6382.66
6382.4
6381.71
6382.26
6382.3
6382.3
6382.04
6382.83
6383.27
6383.31
6383.31
6383.26
6384.08
6384.6
6384.6
6384.94
6386.23
6386.28
6386.29
6387.26
6387.25
6388.37
6389.39
6390.7
6391.64
6393.33
6393.34
6394.49
6395.79
6397.01
6398.4
6400.12
6401.1
6402.99
6404.24
6406.22
6407.69
6410.3
6411.89
6415.21
6417.03
6421.52
6423.43
6431.67
6429.71
6543.12
6710.8
20396.3
8228.14
7655.2
7309.88
7090.7
6941.13
6833.55
6752.55
6689.99
6640.18
6600.09
6567
6539.64
6516.46
6496.94
6480.04
6465.63
6452.93
6442.02
6432.24
6423.8
6416.12
6409.45
6403.33
6398.09
6393.11
6388.79
6384.74
6381.32
6377.95
6375.08
6372.32
6369.99
6367.7
6365.85
6363.86
6362.24
6360.64
6359.44
6357.96
6356.88
6355.79
6355.05
6353.7
6353.17
6352.69
6352.31
6351.81
6351.46
6350.83
6350.55
6349.81
6350.32
6350.34
6350.33
6350.04
6350.8
6351.2
6351.24
6351.23
6351.17
6351.98
6352.47
6352.47
6352.79
6354.06
6354.11
6354.11
6355.06
6355.06
6356.17
6357.15
6358.47
6359.36
6361.07
6361.07
6362.23
6363.5
6364.74
6366.09
6367.82
6368.8
6370.68
6371.93
6373.91
6375.36
6377.96
6379.54
6382.83
6384.64
6389.1
6390.98
6399.18
6397.12
6512.45
6677.11
19241.7
8228.5
7651.25
7300.89
7077.51
6924.66
6814.54
6731.52
6667.34
6616.21
6575.03
6541.01
6512.88
6489.02
6468.93
6451.53
6436.68
6423.6
6412.35
6402.26
6393.56
6385.63
6378.74
6372.42
6367
6361.86
6357.39
6353.2
6349.66
6346.18
6343.2
6340.34
6337.92
6335.54
6333.62
6331.56
6329.88
6328.21
6326.95
6325.43
6324.29
6323.15
6322.37
6321
6320.41
6319.88
6319.47
6318.93
6318.57
6317.91
6317.61
6316.83
6317.28
6317.29
6317.27
6316.94
6317.67
6318.04
6318.06
6318.06
6317.98
6318.78
6319.24
6319.24
6319.54
6320.78
6320.83
6320.84
6321.77
6321.76
6322.87
6323.8
6325.12
6325.98
6327.69
6327.7
6328.85
6330.11
6331.35
6332.67
6334.4
6335.38
6337.25
6338.49
6340.48
6341.91
6344.5
6346.06
6349.33
6351.13
6355.55
6357.4
6365.55
6363.41
6480.25
6641.95
18177.3
8228.89
7647.3
7291.79
7064.06
6907.82
6795.05
6709.94
6644.08
6591.56
6549.24
6514.26
6485.31
6460.76
6440.06
6422.14
6406.84
6393.35
6381.74
6371.34
6362.35
6354.16
6347.05
6340.52
6334.91
6329.6
6324.98
6320.65
6316.98
6313.37
6310.29
6307.32
6304.81
6302.34
6300.34
6298.2
6296.46
6294.72
6293.4
6291.82
6290.64
6289.44
6288.62
6287.21
6286.57
6286
6285.55
6284.98
6284.59
6283.91
6283.58
6282.76
6283.15
6283.15
6283.11
6282.75
6283.45
6283.78
6283.79
6283.79
6283.7
6284.48
6284.9
6284.91
6285.18
6286.4
6286.45
6286.45
6287.36
6287.35
6288.46
6289.34
6290.67
6291.48
6293.2
6293.21
6294.35
6295.6
6296.85
6298.13
6299.87
6300.84
6302.71
6303.94
6305.92
6307.33
6309.91
6311.45
6314.7
6316.48
6320.87
6322.69
6330.79
6328.58
6446.47
6605.31
17197.5
8229.32
7643.35
7282.57
7050.37
6890.63
6775.11
6687.82
6620.21
6566.26
6522.74
6486.76
6456.96
6431.68
6410.35
6391.88
6376.1
6362.19
6350.21
6339.48
6330.19
6321.74
6314.39
6307.64
6301.84
6296.34
6291.57
6287.08
6283.27
6279.54
6276.35
6273.27
6270.66
6268.1
6266.01
6263.8
6261.98
6260.17
6258.79
6257.16
6255.92
6254.66
6253.8
6252.36
6251.66
6251.03
6250.55
6249.94
6249.53
6248.82
6248.47
6247.61
6247.93
6247.93
6247.87
6247.46
6248.14