/*--------------------------------*- C++ -*----------------------------------*\
| =========                 |                                                 |
| \\      /  F ield         | OpenFOAM: The Open Source CFD Toolbox           |
|  \\    /   O peration     | Version:  v2012                                 |
|   \\  /    A nd           | Website:  www.openfoam.com                      |
|    \\/     M anipulation  |                                                 |
\*---------------------------------------------------------------------------*/
FoamFile
{
    version     2.0;
    format      ascii;
    class       volScalarField;
    location    "12";
    object      yPlus;
}
// * * * * * * * * * * * * * * * * * * * * * * * * * * * * * * * * * * * * * //

dimensions      [0 0 0 0 0 0 0];


internalField   uniform 0;

boundaryField
{
    inlet
    {
        type            calculated;
        value           uniform 0;
    }
    outlet
    {
        type            calculated;
        value           uniform 0;
    }
    topWall
    {
        type            calculated;
        value           nonuniform List<scalar> 
545
(
0.0932419
0.161225
0.206902
0.243126
0.273779
0.300583
0.324505
0.346159
0.36596
0.384205
0.40112
0.416878
0.431617
0.445448
0.458464
0.470744
0.482352
0.493347
0.503776
0.513685
0.523111
0.532087
0.540646
0.548813
0.556613
0.56407
0.571203
0.578032
0.584573
0.590843
0.596856
0.602625
0.608164
0.613484
0.618596
0.623509
0.628235
0.632781
0.637155
0.641367
0.645423
0.64933
0.653095
0.656723
0.660222
0.663596
0.666851
0.669991
0.673021
0.675947
0.678771
0.681499
0.684133
0.686679
0.689138
0.691515
0.693812
0.696033
0.698181
0.700258
0.702266
0.70421
0.70609
0.707909
0.709669
0.711373
0.713022
0.714619
0.716165
0.717662
0.719112
0.720516
0.721857
0.723154
0.724439
0.725712
0.726974
0.728225
0.729465
0.730693
0.731911
0.733117
0.734314
0.735499
0.736674
0.737839
0.738993
0.740137
0.741271
0.742395
0.74351
0.744614
0.745709
0.746794
0.74787
0.748938
0.749891
0.750743
0.751594
0.752444
0.753294
0.754143
0.754991
0.755838
0.756685
0.757531
0.758376
0.75922
0.760063
0.760906
0.761747
0.762588
0.763428
0.764267
0.765105
0.765943
0.766779
0.767615
0.768449
0.769283
0.770116
0.770948
0.771779
0.772609
0.773437
0.774265
0.775092
0.775918
0.776743
0.777567
0.77839
0.779212
0.780033
0.780853
0.781672
0.782489
0.783306
0.784121
0.784935
0.785749
0.786561
0.787371
0.788181
0.78899
0.789797
0.790603
0.791408
0.792212
0.793015
0.793816
0.794616
0.795415
0.796212
0.797009
0.797804
0.798597
0.79939
0.800181
0.80097
0.801759
0.802546
0.803331
0.804116
0.804898
0.80568
0.80646
0.807238
0.808016
0.808791
0.809565
0.810338
0.811109
0.811879
0.812647
0.813414
0.814179
0.814942
0.815704
0.816465
0.817224
0.817981
0.818736
0.81949
0.820243
0.820993
0.821742
0.822489
0.823235
0.823979
0.824721
0.825461
0.8262
0.826937
0.827672
0.828405
0.829137
0.829866
0.830594
0.83132
0.832044
0.832766
0.833487
0.834205
0.834922
0.835636
0.836349
0.83706
0.837768
0.838475
0.83918
0.839883
0.840583
0.841282
0.841979
0.842673
0.843366
0.844056
0.844744
0.84543
0.846114
0.846796
0.847476
0.848153
0.848828
0.849501
0.850172
0.850841
0.851507
0.852171
0.852833
0.853492
0.854149
0.854804
0.855456
0.856106
0.856754
0.857399
0.858042
0.858682
0.85932
0.859956
0.860589
0.861219
0.861847
0.862473
0.863096
0.863716
0.864334
0.864949
0.865562
0.866172
0.86678
0.867385
0.867987
0.868586
0.869183
0.869777
0.870368
0.870957
0.871543
0.872126
0.872706
0.873284
0.873859
0.874431
0.875
0.875566
0.876129
0.876691
0.877212
0.877703
0.878196
0.878691
0.879189
0.879688
0.88019
0.880694
0.8812
0.881707
0.882217
0.882728
0.883242
0.883757
0.884273
0.884791
0.885311
0.885833
0.886355
0.886879
0.887404
0.887931
0.888458
0.888987
0.889516
0.890047
0.890578
0.89111
0.891642
0.892175
0.892708
0.893241
0.893775
0.894309
0.894842
0.895376
0.895909
0.896441
0.896974
0.897505
0.898036
0.898566
0.899095
0.899623
0.900149
0.900674
0.901197
0.901719
0.902238
0.902756
0.903271
0.903784
0.904294
0.904802
0.905306
0.905808
0.906306
0.906801
0.907292
0.907779
0.908262
0.908741
0.909216
0.909686
0.91015
0.91061
0.911065
0.911514
0.911957
0.912394
0.912825
0.913249
0.913667
0.914078
0.914481
0.914877
0.915266
0.915646
0.916018
0.916381
0.916736
0.917082
0.917418
0.917744
0.918061
0.918367
0.918662
0.918947
0.919221
0.919483
0.919734
0.919972
0.920198
0.920411
0.920611
0.920798
0.920971
0.92113
0.921275
0.921405
0.92152
0.92162
0.921704
0.921772
0.921823
0.921858
0.921876
0.921876
0.921858
0.921823
0.921769
0.921696
0.921604
0.921492
0.921361
0.921209
0.921037
0.920843
0.920629
0.920393
0.920135
0.919855
0.919552
0.919227
0.918878
0.918505
0.918109
0.917688
0.917243
0.916773
0.916278
0.915758
0.915212
0.91464
0.914041
0.913416
0.912765
0.912086
0.91138
0.910646
0.909885
0.909095
0.908278
0.907432
0.906558
0.905655
0.904723
0.903762
0.902772
0.901752
0.900703
0.899625
0.898518
0.897381
0.896214
0.895017
0.893791
0.892536
0.891251
0.889936
0.888592
0.887219
0.885816
0.884384
0.882924
0.881434
0.879916
0.878369
0.876794
0.875191
0.87356
0.871901
0.870215
0.868502
0.866762
0.864996
0.863204
0.861386
0.859543
0.857676
0.855781
0.853654
0.85131
0.848962
0.846612
0.844262
0.841914
0.839567
0.837224
0.834886
0.832553
0.830227
0.827909
0.825599
0.823299
0.821009
0.818731
0.816464
0.814211
0.811972
0.809747
0.807537
0.805343
0.803165
0.801004
0.798861
0.796736
0.79463
0.792543
0.790476
0.788429
0.786403
0.784398
0.782414
0.780453
0.778514
0.776598
0.774706
0.772837
0.770992
0.769171
0.767375
0.765605
0.76386
0.76214
0.760447
0.75878
0.75714
0.755527
0.753941
0.752383
0.750852
0.74935
0.747876
0.746431
0.745014
0.743627
0.742269
0.740941
0.739643
0.738375
0.737137
0.735931
0.734754
0.733609
0.732496
0.731414
0.730363
0.729345
0.728359
0.727405
0.726484
0.725596
0.724741
0.723919
0.723131
0.722376
0.721655
0.720968
0.720315
0.719697
0.719113
0.718564
0.71805
0.717571
0.717127
0.716718
0.716345
0.716008
0.715707
0.715443
0.715214
0.715025
0.714866
0.714765
0.714623
)
;
    }
    bottomWall
    {
        type            calculated;
        value           nonuniform List<scalar> 
449
(
0.139605
0.0890576
0.0759067
0.0695505
0.0654035
0.0623566
0.0600337
0.0583738
0.0575834
0.0580911
0.0614149
0.065241
0.0677594
0.06912
0.0698384
0.0702086
0.0703589
0.0703549
0.0702406
0.0700626
0.0698384
0.0695856
0.0693163
0.0690371
0.0687538
0.0684694
0.0681873
0.0679082
0.0676344
0.0673657
0.0671035
0.0668471
0.0665975
0.0663545
0.0661184
0.0658888
0.0656661
0.0654496
0.0652396
0.0650353
0.0648374
0.0646444
0.0644577
0.064275
0.0640985
0.0639257
0.0637589
0.0635951
0.0634371
0.0632818
0.0631318
0.0629845
0.062842
0.0627019
0.0625662
0.0624329
0.0623035
0.0621764
0.0620529
0.0619314
0.0618135
0.0616972
0.0615844
0.061473
0.0613649
0.0612582
0.0611545
0.0610521
0.0609524
0.0608544
0.0607584
0.0606644
0.060572
0.0604815
0.0603925
0.0603053
0.0602196
0.0601357
0.0600528
0.0599719
0.0598919
0.0598137
0.0597365
0.059661
0.0595867
0.0595133
0.0594417
0.0593705
0.0593013
0.0592321
0.0591652
0.0590983
0.0590333
0.0589685
0.0589051
0.0588423
0.0587807
0.0587198
0.0586597
0.0586007
0.0585422
0.0584847
0.0584279
0.0583725
0.0583175
0.0582638
0.0582101
0.0581577
0.0581057
0.0580544
0.0580037
0.0579539
0.0579046
0.057856
0.057808
0.0577607
0.0577138
0.0576678
0.0576226
0.057578
0.057534
0.0574908
0.0574479
0.0574055
0.0573637
0.0573222
0.0572812
0.0572407
0.0572007
0.0571612
0.0571222
0.0570834
0.0570457
0.0570079
0.0569714
0.0569349
0.0568991
0.0568635
0.0568284
0.0567934
0.0567588
0.0567245
0.0566903
0.0566568
0.0566229
0.05659
0.0565568
0.0565244
0.0564914
0.0564592
0.0564266
0.0563951
0.056364
0.0563337
0.0563043
0.0562753
0.0562471
0.0562188
0.0561908
0.0561629
0.056135
0.0561072
0.05608
0.0560529
0.056026
0.0560001
0.055974
0.0559483
0.0559227
0.055897
0.0558712
0.0558455
0.0558207
0.0557969
0.0557745
0.0557523
0.0557298
0.055708
0.0556861
0.0556641
0.0556421
0.0556194
0.0555967
0.0555744
0.0555523
0.055531
0.0555103
0.0554895
0.0554691
0.055449
0.0554287
0.0554087
0.0553889
0.0553687
0.0553489
0.0553291
0.0553091
0.0552894
0.0552696
0.0552497
0.0552301
0.0552106
0.0551908
0.0551714
0.055152
0.0551324
0.0551135
0.0550939
0.0550749
0.0550553
0.0550356
0.0550163
0.0549968
0.0549777
0.0549596
0.0549407
0.0549222
0.0549038
0.054884
0.0548653
0.0548465
0.0548282
0.0548105
0.0547924
0.0547754
0.0547581
0.0547411
0.0547244
0.0547076
0.0546911
0.0546752
0.0546584
0.0546413
0.0546241
0.0546064
0.0545889
0.0545729
0.0545566
0.0545407
0.054525
0.0545079
0.0544924
0.0544771
0.0544621
0.0544467
0.0544324
0.0544171
0.0544017
0.0543867
0.0543715
0.0543572
0.0543426
0.0543293
0.0543149
0.0543004
0.0542872
0.0542737
0.0542603
0.0542466
0.0542332
0.054219
0.0542049
0.0541901
0.0541753
0.0541623
0.0541487
0.0541352
0.0541221
0.0541087
0.054095
0.0540808
0.0540667
0.0540534
0.0540411
0.0540281
0.0540145
0.0540024
0.0539888
0.0539744
0.0539619
0.053949
0.053935
0.0539226
0.0539097
0.053896
0.0538835
0.0538703
0.0538567
0.0538439
0.0538301
0.0538169
0.0538037
0.0537898
0.0537774
0.0537644
0.053751
0.0537379
0.0537258
0.0537119
0.0536975
0.053685
0.053672
0.0536576
0.053645
0.0536314
0.0536184
0.0536053
0.0535913
0.053579
0.0535662
0.0535524
0.0535403
0.0535274
0.0535136
0.0535014
0.0534884
0.0534746
0.0534628
0.0534502
0.0534368
0.0534251
0.0534126
0.0533993
0.0533877
0.0533752
0.0533619
0.0533504
0.0533379
0.0533247
0.0533132
0.0533008
0.0532876
0.0532763
0.0532638
0.0532509
0.0532394
0.0532272
0.0532143
0.0532027
0.0531909
0.0531781
0.0531667
0.0531542
0.0531423
0.0531294
0.0531168
0.0531061
0.0530946
0.0530825
0.0530722
0.0530602
0.0530491
0.0530375
0.0530263
0.0530142
0.0530013
0.0529901
0.0529778
0.0529658
0.0529522
0.0529399
0.0529275
0.0529155
0.0529044
0.0528939
0.0528821
0.05287
0.0528591
0.0528485
0.0528369
0.0528264
0.0528153
0.0528054
0.052796
0.0527863
0.052778
0.0527687
0.05276
0.0527505
0.0527408
0.0527315
0.0527234
0.0527146
0.0527059
0.0526984
0.0526896
0.0526816
0.0526731
0.0526655
0.0526575
0.0526498
0.0526431
0.0526349
0.0526276
0.0526193
0.0526121
0.0526051
0.0525976
0.0525912
0.0525841
0.052577
0.0525695
0.0525623
0.0525563
0.0525491
0.0525426
0.0525358
0.0525291
0.0525236
0.0525171
0.0525113
0.0525051
0.0524997
0.0524939
0.0524881
0.0524832
0.0524775
0.0524719
0.052467
0.0524605
0.0524549
0.0524499
0.052444
0.052439
0.0524338
0.0524282
0.0524236
0.0524189
0.0524135
0.0524093
0.0524041
0.0523999
0.0523954
0.0523915
0.0523875
0.0523825
0.0523782
0.0523741
0.0523692
0.0523649
0.0523607
0.0523561
0.0523522
0.0523487
0.0523432
0.0523404
0.0523337
0.0523361
0.0523241
)
;
    }
    symmetry
    {
        type            symmetryPlane;
    }
    frontAndBack
    {
        type            empty;
    }
}


// ************************************************************************* //
