/*--------------------------------*- C++ -*----------------------------------*\
| =========                 |                                                 |
| \\      /  F ield         | OpenFOAM: The Open Source CFD Toolbox           |
|  \\    /   O peration     | Version:  v2012                                 |
|   \\  /    A nd           | Website:  www.openfoam.com                      |
|    \\/     M anipulation  |                                                 |
\*---------------------------------------------------------------------------*/
FoamFile
{
    version     2.0;
    format      ascii;
    class       volScalarField;
    location    "36.5";
    object      k;
}
// * * * * * * * * * * * * * * * * * * * * * * * * * * * * * * * * * * * * * //

dimensions      [0 2 -2 0 0 0 0];


internalField   nonuniform List<scalar> 
209825
(
0.00102473
0.000931477
0.000853007
0.000788839
0.000737274
0.000696117
0.000662899
0.000635893
0.000613496
0.000594822
0.000578921
0.000565383
0.000553598
0.000543414
0.000534378
0.000526483
0.000519369
0.000513108
0.000507387
0.000502328
0.000497644
0.000493494
0.000489602
0.000486148
0.000482875
0.000479972
0.000477195
0.000474731
0.000472348
0.00047025
0.000468193
0.000466386
0.000464599
0.000463041
0.000461482
0.000460138
0.000458772
0.000457601
0.000456396
0.000455373
0.000454307
0.000453415
0.000452469
0.00045169
0.000450848
0.000450164
0.000449415
0.000448813
0.000448147
0.000447622
0.000447027
0.000446567
0.000446043
0.000445642
0.000445172
0.000444819
0.00044441
0.000444105
0.000443734
0.000443476
0.00044315
0.000442923
0.000442634
0.000442455
0.000442189
0.000442033
0.000441799
0.00044167
0.000441463
0.000441351
0.000441162
0.00044106
0.000440908
0.000440832
0.000440713
0.000440664
0.000440573
0.000440551
0.000440501
0.000440526
0.000440523
0.000440599
0.000440613
0.00044072
0.00044077
0.000440912
0.000440985
0.000441169
0.000441263
0.000441513
0.000441612
0.000442019
0.00044207
0.000446671
0.0111682
0.0125702
0.00102473
0.000931477
0.000853008
0.000788839
0.000737273
0.000696115
0.000662896
0.000635888
0.00061349
0.000594815
0.000578913
0.000565374
0.000553588
0.000543404
0.000534366
0.000526472
0.000519356
0.000513095
0.000507374
0.000502315
0.00049763
0.000493479
0.000489588
0.000486133
0.00048286
0.000479957
0.00047718
0.000474715
0.000472332
0.000470233
0.000468176
0.000466369
0.000464582
0.000463024
0.000461465
0.000460121
0.000458755
0.000457583
0.000456379
0.000455356
0.00045429
0.000453397
0.000452451
0.000451672
0.00045083
0.000450146
0.000449396
0.000448794
0.000448128
0.000447603
0.000447008
0.000446549
0.000446024
0.000445623
0.000445153
0.000444801
0.000444391
0.000444086
0.000443715
0.000443457
0.000443131
0.000442904
0.000442615
0.000442436
0.00044217
0.000442014
0.00044178
0.000441651
0.000441444
0.000441332
0.000441143
0.000441041
0.000440888
0.000440812
0.000440694
0.000440644
0.000440554
0.000440532
0.000440481
0.000440507
0.000440504
0.00044058
0.000440594
0.0004407
0.00044075
0.000440892
0.000440965
0.000441149
0.000441243
0.000441493
0.000441592
0.000441999
0.000442049
0.000446657
0.0111776
0.0125827
0.00102473
0.000931479
0.00085301
0.000788838
0.000737267
0.000696103
0.000662878
0.000635865
0.000613462
0.000594782
0.000578876
0.000565333
0.000553544
0.000543357
0.000534317
0.00052642
0.000519303
0.00051304
0.000507317
0.000502256
0.000497571
0.000493418
0.000489525
0.00048607
0.000482796
0.000479891
0.000477113
0.000474648
0.000472265
0.000470165
0.000468107
0.0004663
0.000464512
0.000462954
0.000461394
0.000460049
0.000458683
0.000457511
0.000456306
0.000455282
0.000454216
0.000453323
0.000452377
0.000451597
0.000450755
0.000450071
0.000449321
0.000448719
0.000448052
0.000447527
0.000446931
0.000446472
0.000445947
0.000445546
0.000445075
0.000444723
0.000444313
0.000444008
0.000443637
0.000443379
0.000443053
0.000442825
0.000442536
0.000442357
0.000442091
0.000441935
0.000441701
0.000441572
0.000441364
0.000441252
0.000441063
0.000440961
0.000440809
0.000440732
0.000440613
0.000440564
0.000440474
0.000440451
0.000440401
0.000440425
0.000440422
0.000440498
0.000440512
0.000440619
0.000440668
0.00044081
0.000440883
0.000441067
0.000441161
0.000441411
0.000441509
0.000441915
0.000441966
0.000446586
0.0111963
0.0126087
0.00102473
0.000931482
0.000853014
0.000788837
0.000737257
0.000696082
0.000662847
0.000635824
0.000613413
0.000594726
0.000578813
0.000565264
0.00055347
0.000543278
0.000534234
0.000526333
0.000519212
0.000512946
0.000507221
0.000502157
0.000497469
0.000493315
0.00048942
0.000485963
0.000482687
0.000479781
0.000477002
0.000474535
0.000472151
0.00047005
0.000467991
0.000466182
0.000464393
0.000462835
0.000461274
0.000459929
0.000458561
0.000457388
0.000456183
0.000455159
0.000454092
0.000453198
0.000452251
0.000451472
0.000450628
0.000449944
0.000449194
0.000448591
0.000447924
0.000447399
0.000446803
0.000446343
0.000445817
0.000445416
0.000444945
0.000444593
0.000444182
0.000443877
0.000443505
0.000443247
0.000442921
0.000442693
0.000442404
0.000442224
0.000441958
0.000441802
0.000441568
0.000441438
0.00044123
0.000441118
0.000440929
0.000440827
0.000440674
0.000440598
0.000440479
0.000440429
0.000440338
0.000440316
0.000440265
0.000440289
0.000440286
0.000440361
0.000440375
0.000440481
0.000440531
0.000440671
0.000440745
0.000440928
0.000441022
0.000441271
0.000441369
0.000441775
0.000441825
0.000446465
0.0112253
0.0126491
0.00102473
0.000931487
0.000853019
0.000788834
0.000737242
0.000696053
0.000662803
0.000635768
0.000613344
0.000594646
0.000578724
0.000565167
0.000553365
0.000543166
0.000534116
0.00052621
0.000519085
0.000512814
0.000507085
0.000502018
0.000497327
0.000493169
0.000489272
0.000485812
0.000482534
0.000479626
0.000476844
0.000474376
0.00047199
0.000469887
0.000467827
0.000466017
0.000464226
0.000462666
0.000461105
0.000459758
0.000458389
0.000457216
0.000456009
0.000454984
0.000453916
0.000453022
0.000452075
0.000451294
0.00045045
0.000449765
0.000449014
0.000448411
0.000447743
0.000447217
0.000446621
0.00044616
0.000445634
0.000445233
0.000444761
0.000444408
0.000443998
0.000443692
0.00044332
0.000443062
0.000442734
0.000442506
0.000442217
0.000442037
0.000441771
0.000441614
0.000441379
0.00044125
0.000441042
0.000440929
0.00044074
0.000440638
0.000440485
0.000440408
0.000440289
0.000440239
0.000440148
0.000440125
0.000440073
0.000440097
0.000440093
0.000440168
0.000440181
0.000440287
0.000440336
0.000440476
0.000440549
0.000440732
0.000440825
0.000441074
0.000441172
0.000441577
0.000441626
0.000446294
0.0112653
0.0127049
0.00102473
0.000931493
0.000853025
0.000788832
0.000737223
0.000696016
0.000662747
0.000635694
0.000613255
0.000594543
0.000578608
0.000565041
0.000553229
0.000543022
0.000533964
0.000526051
0.00051892
0.000512644
0.000506909
0.000501837
0.000497142
0.000492981
0.00048908
0.000485617
0.000482335
0.000479425
0.00047664
0.000474169
0.000471781
0.000469677
0.000467614
0.000465802
0.00046401
0.000462449
0.000460885
0.000459537
0.000458167
0.000456992
0.000455784
0.000454759
0.000453689
0.000452794
0.000451846
0.000451064
0.000450219
0.000449533
0.000448781
0.000448177
0.000447509
0.000446982
0.000446385
0.000445924
0.000445398
0.000444995
0.000444523
0.00044417
0.000443758
0.000443452
0.000443079
0.000442821
0.000442493
0.000442265
0.000441975
0.000441794
0.000441528
0.00044137
0.000441136
0.000441006
0.000440797
0.000440685
0.000440495
0.000440392
0.000440239
0.000440162
0.000440042
0.000439992
0.0004399
0.000439877
0.000439824
0.000439848
0.000439843
0.000439917
0.00043993
0.000440035
0.000440084
0.000440223
0.000440296
0.000440478
0.000440571
0.000440819
0.000440916
0.00044132
0.000441368
0.000446072
0.0113171
0.012777
0.00102473
0.0009315
0.000853033
0.000788828
0.0007372
0.000695969
0.000662678
0.000635604
0.000613145
0.000594416
0.000578466
0.000564885
0.000553062
0.000542844
0.000533777
0.000525856
0.000518716
0.000512433
0.000506692
0.000501615
0.000496914
0.000492748
0.000488843
0.000485376
0.000482091
0.000479177
0.000476389
0.000473915
0.000471524
0.000469417
0.000467352
0.000465538
0.000463744
0.00046218
0.000460615
0.000459265
0.000457893
0.000456717
0.000455508
0.00045448
0.000453409
0.000452513
0.000451563
0.000450781
0.000449934
0.000449248
0.000448495
0.00044789
0.000447221
0.000446693
0.000446095
0.000445633
0.000445106
0.000444702
0.00044423
0.000443876
0.000443464
0.000443157
0.000442783
0.000442524
0.000442196
0.000441967
0.000441676
0.000441495
0.000441228
0.000441071
0.000440835
0.000440705
0.000440496
0.000440383
0.000440193
0.00044009
0.000439936
0.000439859
0.000439738
0.000439688
0.000439596
0.000439572
0.000439518
0.00043954
0.000439535
0.000439609
0.00043962
0.000439725
0.000439773
0.000439912
0.000439984
0.000440165
0.000440257
0.000440504
0.000440601
0.000441004
0.00044105
0.000445798
0.0113813
0.0128661
0.00102473
0.000931508
0.000853043
0.000788824
0.000737173
0.000695915
0.000662596
0.000635496
0.000613015
0.000594266
0.000578298
0.000564701
0.000552863
0.000542632
0.000533554
0.000525623
0.000518474
0.000512183
0.000506434
0.00050135
0.000496643
0.000492472
0.000488561
0.000485089
0.0004818
0.000478881
0.00047609
0.000473612
0.000471218
0.000469108
0.00046704
0.000465223
0.000463426
0.00046186
0.000460293
0.000458941
0.000457567
0.000456389
0.000455178
0.000454149
0.000453076
0.000452178
0.000451227
0.000450443
0.000449595
0.000448907
0.000448153
0.000447547
0.000446877
0.000446348
0.000445749
0.000445286
0.000444758
0.000444354
0.00044388
0.000443525
0.000443112
0.000442805
0.00044243
0.000442171
0.000441842
0.000441612
0.000441321
0.000441139
0.000440871
0.000440713
0.000440477
0.000440347
0.000440137
0.000440023
0.000439833
0.00043973
0.000439576
0.000439497
0.000439376
0.000439325
0.000439233
0.000439208
0.000439153
0.000439174
0.000439168
0.000439241
0.000439252
0.000439356
0.000439402
0.00043954
0.000439612
0.000439792
0.000439884
0.00044013
0.000440225
0.000440627
0.000440672
0.000445472
0.0114585
0.012973
0.00102473
0.000931518
0.000853054
0.00078882
0.000737141
0.000695852
0.000662502
0.000635372
0.000612864
0.000594091
0.000578102
0.000564486
0.000552632
0.000542387
0.000533295
0.000525352
0.000518193
0.000511892
0.000506135
0.000501043
0.000496328
0.00049215
0.000488233
0.000484756
0.000481461
0.000478538
0.000475742
0.000473261
0.000470862
0.000468748
0.000466677
0.000464857
0.000463057
0.000461489
0.000459918
0.000458564
0.000457187
0.000456007
0.000454794
0.000453763
0.000452688
0.000451789
0.000450836
0.00045005
0.000449201
0.000448512
0.000447756
0.000447149
0.000446477
0.000445947
0.000445346
0.000444883
0.000444353
0.000443948
0.000443473
0.000443118
0.000442703
0.000442395
0.00044202
0.000441759
0.000441429
0.000441199
0.000440907
0.000440725
0.000440456
0.000440297
0.000440061
0.000439929
0.000439719
0.000439605
0.000439415
0.000439311
0.000439156
0.000439077
0.000438955
0.000438903
0.00043881
0.000438785
0.000438729
0.000438749
0.000438742
0.000438813
0.000438823
0.000438926
0.000438971
0.000439108
0.000439179
0.000439358
0.000439449
0.000439693
0.000439788
0.000440189
0.000440231
0.000445095
0.0115493
0.0130985
0.00102473
0.000931529
0.000853067
0.000788815
0.000737106
0.00069578
0.000662394
0.000635231
0.000612693
0.000593892
0.000577879
0.000564242
0.000552369
0.000542107
0.000533
0.000525043
0.000517872
0.00051156
0.000505792
0.000500692
0.000495969
0.000491783
0.000487859
0.000484375
0.000481075
0.000478146
0.000475345
0.000472859
0.000470456
0.000468338
0.000466263
0.000464439
0.000462636
0.000461064
0.00045949
0.000458133
0.000456754
0.000455571
0.000454355
0.000453322
0.000452245
0.000451344
0.000450389
0.000449601
0.00044875
0.000448059
0.000447302
0.000446693
0.00044602
0.000445489
0.000444887
0.000444422
0.00044389
0.000443484
0.000443009
0.000442652
0.000442236
0.000441927
0.000441551
0.000441289
0.000440958
0.000440727
0.000440434
0.000440251
0.000439982
0.000439822
0.000439585
0.000439453
0.000439242
0.000439127
0.000438936
0.000438831
0.000438676
0.000438597
0.000438474
0.000438421
0.000438327
0.000438301
0.000438244
0.000438262
0.000438254
0.000438323
0.000438332
0.000438434
0.000438479
0.000438615
0.000438684
0.000438862
0.000438952
0.000439195
0.000439288
0.000439688
0.000439728
0.000444664
0.0116538
0.0132431
0.00102473
0.000931541
0.000853082
0.000788811
0.000737067
0.000695701
0.000662274
0.000635073
0.0006125
0.000593669
0.000577629
0.000563968
0.000552073
0.000541792
0.000532668
0.000524696
0.000517511
0.000511186
0.000505408
0.000500296
0.000495564
0.00049137
0.000487438
0.000483947
0.000480639
0.000477704
0.000474898
0.000472406
0.000469998
0.000467875
0.000465796
0.000463968
0.000462161
0.000460586
0.000459008
0.000457648
0.000456266
0.00045508
0.000453861
0.000452826
0.000451746
0.000450843
0.000449885
0.000449096
0.000448242
0.00044755
0.00044679
0.00044618
0.000445505
0.000444972
0.000444368
0.000443902
0.000443369
0.000442962
0.000442485
0.000442127
0.00044171
0.0004414
0.000441022
0.00044076
0.000440427
0.000440196
0.000439901
0.000439717
0.000439447
0.000439287
0.000439048
0.000438916
0.000438704
0.000438589
0.000438397
0.000438292
0.000438135
0.000438055
0.000437932
0.000437878
0.000437783
0.000437756
0.000437697
0.000437714
0.000437704
0.000437772
0.00043778
0.00043788
0.000437924
0.000438058
0.000438127
0.000438303
0.000438392
0.000438633
0.000438726
0.000439123
0.000439161
0.000444179
0.0117725
0.0134075
0.00102472
0.000931555
0.000853098
0.000788806
0.000737024
0.000695613
0.000662141
0.000634898
0.000612287
0.000593421
0.000577351
0.000563663
0.000551744
0.000541442
0.000532299
0.00052431
0.000517109
0.000510771
0.000504979
0.000499857
0.000495114
0.00049091
0.000486969
0.00048347
0.000480155
0.000477213
0.0004744
0.000471902
0.000469488
0.000467361
0.000465276
0.000463444
0.000461632
0.000460053
0.000458471
0.000457108
0.000455722
0.000454533
0.000453311
0.000452273
0.000451191
0.000450284
0.000449324
0.000448533
0.000447677
0.000446982
0.00044622
0.000445608
0.000444931
0.000444397
0.000443791
0.000443323
0.000442789
0.00044238
0.000441901
0.000441542
0.000441124
0.000440812
0.000440433
0.00044017
0.000439836
0.000439603
0.000439307
0.000439123
0.000438851
0.00043869
0.000438451
0.000438317
0.000438105
0.000437988
0.000437796
0.00043769
0.000437533
0.000437452
0.000437328
0.000437273
0.000437177
0.000437149
0.000437088
0.000437103
0.000437092
0.000437157
0.000437164
0.000437263
0.000437305
0.000437438
0.000437506
0.00043768
0.000437768
0.000438008
0.000438098
0.000438494
0.000438529
0.000443641
0.0119053
0.0135922
0.00102472
0.00093157
0.000853117
0.000788801
0.000736977
0.000695517
0.000661996
0.000634706
0.000612052
0.000593149
0.000577045
0.000563328
0.000551382
0.000541056
0.000531893
0.000523884
0.000516666
0.000510313
0.000504507
0.000499372
0.000494618
0.000490403
0.000486452
0.000482944
0.00047962
0.000476671
0.00047385
0.000471346
0.000468926
0.000466793
0.000464702
0.000462866
0.000461049
0.000459465
0.000457879
0.000456512
0.000455122
0.00045393
0.000452704
0.000451663
0.000450577
0.000449668
0.000448705
0.000447911
0.000447053
0.000446356
0.000445591
0.000444977
0.000444298
0.000443762
0.000443154
0.000442684
0.000442148
0.000441738
0.000441257
0.000440896
0.000440476
0.000440164
0.000439783
0.000439518
0.000439183
0.000438949
0.000438652
0.000438466
0.000438193
0.000438031
0.000437791
0.000437656
0.000437443
0.000437326
0.000437132
0.000437026
0.000436868
0.000436786
0.00043666
0.000436605
0.000436507
0.000436478
0.000436416
0.000436428
0.000436416
0.000436479
0.000436484
0.000436582
0.000436623
0.000436754
0.00043682
0.000436992
0.000437079
0.000437317
0.000437406
0.000437799
0.000437832
0.000443047
0.0120519
0.0137976
0.00102472
0.000931587
0.000853137
0.000788796
0.000736927
0.000695413
0.000661838
0.000634496
0.000611797
0.000592853
0.000576712
0.000562962
0.000550987
0.000540635
0.000531448
0.000523419
0.000516183
0.000509812
0.000503991
0.000498842
0.000494075
0.000489848
0.000485887
0.000482368
0.000479036
0.000476078
0.000473249
0.000470738
0.00046831
0.000466171
0.000464074
0.000462232
0.00046041
0.000458821
0.000457231
0.000455859
0.000454465
0.000453269
0.000452039
0.000450994
0.000449905
0.000448993
0.000448027
0.00044723
0.000446369
0.000445669
0.000444902
0.000444286
0.000443604
0.000443066
0.000442456
0.000441985
0.000441446
0.000441034
0.000440551
0.000440189
0.000439767
0.000439453
0.000439071
0.000438804
0.000438468
0.000438233
0.000437934
0.000437747
0.000437473
0.00043731
0.000437068
0.000436932
0.000436718
0.0004366
0.000436405
0.000436298
0.000436139
0.000436056
0.000435929
0.000435872
0.000435774
0.000435744
0.000435679
0.00043569
0.000435675
0.000435736
0.00043574
0.000435836
0.000435874
0.000436004
0.000436069
0.000436239
0.000436325
0.000436559
0.000436647
0.000437038
0.000437068
0.000442399
0.012212
0.0140241
0.00102472
0.000931604
0.000853159
0.000788792
0.000736874
0.000695302
0.000661667
0.000634271
0.000611521
0.000592531
0.000576351
0.000562565
0.000550559
0.000540178
0.000530966
0.000522915
0.000515657
0.000509268
0.00050343
0.000498266
0.000493484
0.000489245
0.000485272
0.000481743
0.0004784
0.000475433
0.000472595
0.000470076
0.000467641
0.000465495
0.000463392
0.000461543
0.000459715
0.000458121
0.000456525
0.000455148
0.00045375
0.000452549
0.000451316
0.000450267
0.000449174
0.000448259
0.000447289
0.000446489
0.000445625
0.000444923
0.000444153
0.000443534
0.000442849
0.000442309
0.000441696
0.000441223
0.000440682
0.000440268
0.000439783
0.000439419
0.000438995
0.00043868
0.000438295
0.000438028
0.000437689
0.000437453
0.000437152
0.000436964
0.000436688
0.000436524
0.000436281
0.000436144
0.000435928
0.000435809
0.000435614
0.000435505
0.000435346
0.000435261
0.000435133
0.000435075
0.000434975
0.000434944
0.000434878
0.000434885
0.000434869
0.000434926
0.000434929
0.000435023
0.00043506
0.000435188
0.000435251
0.000435419
0.000435503
0.000435735
0.000435821
0.00043621
0.000436236
0.000441694
0.0123849
0.0142719
0.00102471
0.000931623
0.000853183
0.000788788
0.000736818
0.000695183
0.000661484
0.000634028
0.000611224
0.000592186
0.000575961
0.000562137
0.000550097
0.000539686
0.000530446
0.00052237
0.00051509
0.000508681
0.000502825
0.000497643
0.000492847
0.000488593
0.000484607
0.000481067
0.000477713
0.000474735
0.000471889
0.000469361
0.000466917
0.000464763
0.000462653
0.000460798
0.000458964
0.000457364
0.000455762
0.00045438
0.000452976
0.000451772
0.000450533
0.000449481
0.000448384
0.000447465
0.000446491
0.000445688
0.00044482
0.000444115
0.000443342
0.00044272
0.000442032
0.00044149
0.000440874
0.000440399
0.000439855
0.000439439
0.000438952
0.000438586
0.00043816
0.000437843
0.000437456
0.000437187
0.000436847
0.000436609
0.000436306
0.000436117
0.00043584
0.000435674
0.000435429
0.000435291
0.000435074
0.000434954
0.000434758
0.000434648
0.000434487
0.000434402
0.000434272
0.000434213
0.000434111
0.000434078
0.00043401
0.000434015
0.000433996
0.000434051
0.000434052
0.000434144
0.000434179
0.000434304
0.000434365
0.000434531
0.000434614
0.000434843
0.000434927
0.000435313
0.000435336
0.000440931
0.0125693
0.0145411
0.00102471
0.000931643
0.00085321
0.000788784
0.000736758
0.000695056
0.00066129
0.000633769
0.000610906
0.000591815
0.000575544
0.000561678
0.000549601
0.000539157
0.000529887
0.000521784
0.000514481
0.00050805
0.000502174
0.000496974
0.000492161
0.000487893
0.000483893
0.000480339
0.000476974
0.000473985
0.000471128
0.000468591
0.000466139
0.000463977
0.000461859
0.000459997
0.000458155
0.000456549
0.000454941
0.000453554
0.000452144
0.000450934
0.000449691
0.000448634
0.000447532
0.000446609
0.000445631
0.000444825
0.000443953
0.000443245
0.000442468
0.000441844
0.000441153
0.000440608
0.00043999
0.000439511
0.000438965
0.000438547
0.000438057
0.000437689
0.00043726
0.000436942
0.000436553
0.000436282
0.000435939
0.000435701
0.000435395
0.000435204
0.000434925
0.000434758
0.000434512
0.000434373
0.000434154
0.000434033
0.000433836
0.000433725
0.000433562
0.000433476
0.000433345
0.000433283
0.000433181
0.000433146
0.000433076
0.000433078
0.000433056
0.000433107
0.000433108
0.000433197
0.00043323
0.000433353
0.000433412
0.000433575
0.000433656
0.000433883
0.000433964
0.000434347
0.000434367
0.000440111
0.012764
0.0148316
0.00102471
0.000931665
0.000853238
0.000788782
0.000736696
0.000694923
0.000661083
0.000633493
0.000610568
0.000591421
0.000575099
0.000561188
0.000549071
0.000538591
0.00052929
0.000521159
0.000513829
0.000507375
0.000501477
0.000496259
0.000491428
0.000487143
0.000483128
0.000479561
0.000476182
0.000473182
0.000470314
0.000467767
0.000465305
0.000463134
0.000461007
0.000459138
0.000457289
0.000455676
0.000454061
0.000452668
0.000451252
0.000450037
0.000448788
0.000447727
0.00044662
0.000445693
0.00044471
0.0004439
0.000443024
0.000442313
0.000441532
0.000440905
0.00044021
0.000439662
0.000439041
0.00043856
0.000438011
0.00043759
0.000437098
0.000436728
0.000436296
0.000435975
0.000435584
0.000435311
0.000434966
0.000434726
0.000434418
0.000434226
0.000433945
0.000433777
0.000433528
0.000433388
0.000433168
0.000433045
0.000432846
0.000432734
0.000432571
0.000432483
0.00043235
0.000432287
0.000432183
0.000432146
0.000432075
0.000432074
0.000432049
0.000432096
0.000432095
0.000432181
0.000432212
0.000432332
0.00043239
0.00043255
0.000432629
0.000432853
0.000432932
0.000433311
0.000433328
0.000439232
0.0129672
0.0151432
0.0010247
0.000931687
0.000853269
0.00078878
0.000736632
0.000694782
0.000660865
0.000633202
0.000610209
0.000591002
0.000574626
0.000560668
0.000548508
0.00053799
0.000528655
0.000520492
0.000513135
0.000506655
0.000500735
0.000495496
0.000490646
0.000486343
0.000482312
0.00047873
0.000475338
0.000472326
0.000469445
0.000466887
0.000464415
0.000462235
0.000460099
0.000458221
0.000456364
0.000454744
0.000453122
0.000451722
0.0004503
0.000449079
0.000447825
0.000446758
0.000445646
0.000444714
0.000443727
0.000442913
0.000442033
0.000441317
0.000440533
0.000439902
0.000439204
0.000438653
0.000438028
0.000437544
0.000436991
0.000436569
0.000436073
0.000435701
0.000435266
0.000434944
0.00043455
0.000434275
0.000433927
0.000433685
0.000433375
0.000433181
0.000432898
0.000432728
0.000432478
0.000432335
0.000432114
0.00043199
0.00043179
0.000431676
0.000431511
0.000431422
0.000431287
0.000431223
0.000431116
0.000431079
0.000431005
0.000431001
0.000430973
0.000431015
0.000431013
0.000431097
0.000431124
0.000431242
0.000431298
0.000431455
0.000431532
0.000431752
0.000431829
0.000432205
0.000432218
0.000438293
0.0131764
0.0154754
0.0010247
0.000931711
0.000853302
0.000788779
0.000736565
0.000694635
0.000660636
0.000632895
0.000609831
0.000590559
0.000574126
0.000560116
0.000547911
0.000537352
0.00052798
0.000519785
0.000512398
0.000505892
0.000499947
0.000494685
0.000489815
0.000485494
0.000481446
0.000477848
0.000474441
0.000471415
0.000468522
0.000465953
0.000463469
0.000461279
0.000459133
0.000457247
0.000455381
0.000453753
0.000452123
0.000450716
0.000449287
0.000448061
0.0004468
0.000445728
0.00044461
0.000443673
0.000442681
0.000441862
0.000440977
0.000440258
0.000439469
0.000438835
0.000438133
0.000437578
0.00043695
0.000436463
0.000435907
0.000435482
0.000434983
0.000434608
0.00043417
0.000433845
0.000433449
0.000433172
0.000432821
0.000432578
0.000432265
0.000432069
0.000431784
0.000431612
0.00043136
0.000431216
0.000430992
0.000430867
0.000430665
0.00043055
0.000430384
0.000430293
0.000430156
0.00043009
0.000429982
0.000429942
0.000429866
0.000429859
0.000429827
0.000429866
0.000429862
0.000429942
0.000429967
0.000430082
0.000430135
0.000430289
0.000430364
0.000430581
0.000430655
0.000431027
0.000431037
0.000437292
0.0133892
0.0158273
0.00102469
0.000931736
0.000853337
0.000788779
0.000736497
0.000694482
0.000660396
0.000632572
0.000609432
0.000590092
0.000573598
0.000559534
0.00054728
0.000536678
0.000527268
0.000519037
0.000511619
0.000505084
0.000499113
0.000493827
0.000488935
0.000484595
0.000480528
0.000476913
0.000473491
0.00047045
0.000467544
0.000464962
0.000462466
0.000460265
0.000458109
0.000456213
0.000454338
0.000452702
0.000451064
0.00044965
0.000448213
0.00044698
0.000445713
0.000444635
0.000443511
0.000442569
0.000441571
0.000440748
0.000439858
0.000439134
0.000438341
0.000437703
0.000436997
0.000436439
0.000435806
0.000435316
0.000434756
0.000434328
0.000433826
0.000433448
0.000433007
0.00043268
0.00043228
0.000432001
0.000431648
0.000431402
0.000431087
0.000430889
0.000430601
0.000430428
0.000430173
0.000430027
0.000429802
0.000429675
0.000429472
0.000429356
0.000429187
0.000429094
0.000428956
0.000428888
0.000428777
0.000428735
0.000428658
0.000428648
0.000428612
0.000428646
0.00042864
0.000428717
0.000428739
0.000428851
0.000428901
0.000429052
0.000429125
0.000429338
0.000429409
0.000429777
0.000429784
0.000436229
0.0136022
0.0161979
0.00102469
0.000931762
0.000853374
0.000788781
0.000736426
0.000694323
0.000660145
0.000632234
0.000609014
0.000589601
0.000573044
0.000558922
0.000546616
0.000535968
0.000526516
0.000518249
0.000510797
0.000504231
0.000498233
0.000492922
0.000488007
0.000483645
0.000479558
0.000475926
0.000472487
0.000469431
0.00046651
0.000463915
0.000461407
0.000459194
0.000457027
0.000455121
0.000453236
0.000451591
0.000449945
0.000448523
0.000447078
0.000445838
0.000444563
0.000443479
0.000442349
0.000441402
0.000440398
0.00043957
0.000438674
0.000437946
0.000437148
0.000436506
0.000435795
0.000435233
0.000434597
0.000434103
0.000433539
0.000433108
0.000432602
0.000432222
0.000431777
0.000431448
0.000431045
0.000430763
0.000430407
0.000430159
0.00042984
0.00042964
0.00042935
0.000429175
0.000428918
0.00042877
0.000428543
0.000428414
0.000428209
0.000428091
0.000427921
0.000427827
0.000427686
0.000427616
0.000427503
0.000427459
0.000427379
0.000427366
0.000427326
0.000427356
0.000427348
0.000427421
0.00042744
0.000427548
0.000427596
0.000427744
0.000427814
0.000428023
0.000428091
0.000428453
0.000428458
0.000435102
0.0138118
0.0165854
0.00102468
0.00093179
0.000853414
0.000788784
0.000736355
0.000694158
0.000659885
0.000631881
0.000608577
0.000589088
0.000572462
0.000558279
0.000545919
0.000535223
0.000525727
0.00051742
0.000509932
0.000503334
0.000497306
0.000491969
0.000487029
0.000482645
0.000478537
0.000474886
0.000471429
0.000468357
0.000465421
0.000462812
0.00046029
0.000458065
0.000455887
0.00045397
0.000452075
0.00045042
0.000448764
0.000447334
0.000445881
0.000444634
0.000443351
0.000442261
0.000441124
0.000440171
0.00043916
0.000438327
0.000437426
0.000436693
0.00043589
0.000435243
0.000434527
0.000433961
0.00043332
0.000432823
0.000432255
0.000431821
0.000431311
0.000430928
0.000430479
0.000430147
0.00042974
0.000429456
0.000429097
0.000428847
0.000428525
0.000428322
0.00042803
0.000427853
0.000427593
0.000427443
0.000427214
0.000427083
0.000426877
0.000426757
0.000426585
0.000426488
0.000426346
0.000426273
0.000426158
0.000426112
0.000426029
0.000426013
0.000425969
0.000425994
0.000425983
0.000426053
0.000426068
0.000426174
0.000426218
0.000426362
0.00042643
0.000426635
0.0004267
0.000427057
0.000427059
0.000433909
0.0140139
0.0169879
0.00102468
0.000931818
0.000853456
0.000788789
0.000736282
0.000693989
0.000659614
0.000631513
0.00060812
0.000588551
0.000571853
0.000557607
0.000545189
0.000534441
0.000524899
0.00051655
0.000509025
0.000502393
0.000496334
0.000490968
0.000486002
0.000481594
0.000477465
0.000473794
0.000470317
0.000467228
0.000464276
0.000461652
0.000459116
0.000456878
0.000454687
0.00045276
0.000450853
0.000449189
0.000447523
0.000446083
0.000444622
0.000443366
0.000442076
0.000440979
0.000439835
0.000438875
0.000437858
0.000437019
0.000436112
0.000435374
0.000434565
0.000433914
0.000433193
0.000432623
0.000431977
0.000431476
0.000430904
0.000430466
0.000429952
0.000429565
0.000429113
0.000428778
0.000428368
0.00042808
0.000427718
0.000427466
0.00042714
0.000426935
0.00042664
0.00042646
0.000426198
0.000426046
0.000425814
0.000425682
0.000425473
0.000425352
0.000425178
0.00042508
0.000424934
0.000424859
0.000424742
0.000424693
0.000424608
0.000424589
0.00042454
0.000424561
0.000424547
0.000424612
0.000424625
0.000424726
0.000424768
0.000424908
0.000424973
0.000425173
0.000425235
0.000425586
0.000425586
0.000432648
0.0142038
0.0174025
0.00102467
0.000931847
0.000853501
0.000788795
0.000736208
0.000693814
0.000659334
0.000631132
0.000607646
0.000587993
0.000571219
0.000556904
0.000544426
0.000533624
0.000524033
0.000515641
0.000508075
0.000501408
0.000495315
0.00048992
0.000484926
0.000480493
0.000476341
0.000472648
0.000469152
0.000466045
0.000463075
0.000460435
0.000457885
0.000455633
0.000453429
0.000451489
0.000449571
0.000447896
0.00044622
0.000444771
0.0004433
0.000442036
0.000440738
0.000439633
0.000438481
0.000437515
0.000436491
0.000435646
0.000434732
0.000433989
0.000433174
0.000432519
0.000431792
0.000431217
0.000430567
0.000430062
0.000429484
0.000429043
0.000428525
0.000428135
0.000427678
0.00042734
0.000426926
0.000426636
0.000426269
0.000426015
0.000425686
0.000425478
0.00042518
0.000424998
0.000424733
0.000424579
0.000424344
0.00042421
0.000423999
0.000423876
0.0004237
0.000423599
0.000423451
0.000423374
0.000423254
0.000423203
0.000423115
0.000423093
0.00042304
0.000423056
0.000423039
0.000423099
0.000423108
0.000423206
0.000423244
0.00042338
0.000423442
0.000423637
0.000423696
0.000424042
0.000424039
0.000431318
0.0143765
0.017826
0.00102466
0.000931877
0.000853548
0.000788804
0.000736134
0.000693635
0.000659045
0.000630738
0.000607154
0.000587412
0.000570559
0.000556173
0.000543631
0.000532772
0.000523129
0.000514691
0.000507084
0.000500378
0.000494251
0.000488824
0.000483801
0.000479342
0.000475165
0.00047145
0.000467933
0.000464806
0.000461818
0.000459162
0.000456596
0.00045433
0.000452112
0.000450159
0.000448229
0.000446543
0.000444855
0.000443397
0.000441916
0.000440643
0.000439336
0.000438223
0.000437063
0.00043609
0.000435059
0.000434207
0.000433287
0.000432538
0.000431717
0.000431056
0.000430323
0.000429745
0.000429088
0.000428579
0.000427997
0.000427551
0.000427029
0.000426635
0.000426174
0.000425833