/*--------------------------------*- C++ -*----------------------------------*\
| =========                 |                                                 |
| \\      /  F ield         | OpenFOAM: The Open Source CFD Toolbox           |
|  \\    /   O peration     | Version:  v2012                                 |
|   \\  /    A nd           | Website:  www.openfoam.com                      |
|    \\/     M anipulation  |                                                 |
\*---------------------------------------------------------------------------*/
FoamFile
{
    version     2.0;
    format      ascii;
    class       volScalarField;
    location    "36.5";
    object      yPlus;
}
// * * * * * * * * * * * * * * * * * * * * * * * * * * * * * * * * * * * * * //

dimensions      [0 0 0 0 0 0 0];


internalField   uniform 0;

boundaryField
{
    inlet
    {
        type            calculated;
        value           uniform 0;
    }
    outlet
    {
        type            calculated;
        value           uniform 0;
    }
    topWall
    {
        type            calculated;
        value           nonuniform List<scalar> 
545
(
0.148219
0.255626
0.327943
0.385477
0.434177
0.476783
0.514833
0.549294
0.580828
0.609906
0.636885
0.662038
0.685585
0.707702
0.728535
0.748208
0.766824
0.784473
0.801234
0.817174
0.832353
0.846825
0.860638
0.873835
0.886454
0.898531
0.910097
0.921183
0.931815
0.942017
0.951814
0.961225
0.970271
0.978969
0.987338
0.995392
1.00315
1.01062
1.01781
1.02475
1.03144
1.03789
1.04412
1.05012
1.05592
1.06152
1.06693
1.07215
1.0772
1.08207
1.08679
1.09135
1.09576
1.10002
1.10415
1.10814
1.112
1.11574
1.11936
1.12287
1.12626
1.12955
1.13273
1.13582
1.13881
1.14171
1.14451
1.14723
1.14987
1.15243
1.15491
1.15731
1.15962
1.16184
1.16405
1.16624
1.16841
1.17057
1.1727
1.17482
1.17693
1.17901
1.18108
1.18313
1.18517
1.18719
1.18919
1.19118
1.19315
1.19511
1.19705
1.19897
1.20088
1.20278
1.20466
1.20652
1.2082
1.2097
1.2112
1.2127
1.2142
1.2157
1.2172
1.2187
1.2202
1.2217
1.22319
1.22469
1.22619
1.22768
1.22918
1.23067
1.23216
1.23366
1.23515
1.23664
1.23813
1.23962
1.24111
1.2426
1.24409
1.24557
1.24706
1.24855
1.25003
1.25152
1.253
1.25448
1.25597
1.25745
1.25893
1.26041
1.26189
1.26336
1.26484
1.26632
1.26779
1.26927
1.27074
1.27221
1.27369
1.27516
1.27663
1.2781
1.27956
1.28103
1.2825
1.28396
1.28542
1.28689
1.28835
1.28981
1.29127
1.29273
1.29418
1.29564
1.2971
1.29855
1.3
1.30145
1.3029
1.30435
1.3058
1.30725
1.30869
1.31014
1.31158
1.31302
1.31446
1.3159
1.31733
1.31877
1.32021
1.32164
1.32307
1.3245
1.32593
1.32736
1.32878
1.33021
1.33163
1.33305
1.33447
1.33589
1.33731
1.33872
1.34013
1.34155
1.34296
1.34436
1.34577
1.34718
1.34858
1.34998
1.35138
1.35278
1.35418
1.35557
1.35696
1.35835
1.35974
1.36113
1.36252
1.3639
1.36528
1.36666
1.36804
1.36942
1.37079
1.37216
1.37353
1.3749
1.37626
1.37763
1.37899
1.38035
1.38171
1.38306
1.38441
1.38577
1.38711
1.38846
1.38981
1.39115
1.39249
1.39382
1.39516
1.39649
1.39782
1.39915
1.40048
1.4018
1.40312
1.40444
1.40576
1.40707
1.40838
1.40969
1.41099
1.4123
1.4136
1.4149
1.41619
1.41749
1.41878
1.42006
1.42135
1.42263
1.42391
1.42519
1.42646
1.42773
1.429
1.43027
1.43153
1.43279
1.43404
1.4353
1.43655
1.4378
1.43904
1.44029
1.44152
1.44276
1.44399
1.44522
1.44645
1.44767
1.44889
1.45004
1.45113
1.45222
1.45331
1.45442
1.45553
1.45665
1.45777
1.4589
1.46004
1.46118
1.46234
1.46349
1.46466
1.46583
1.46701
1.46819
1.46938
1.47058
1.47178
1.47299
1.47421
1.47543
1.47666
1.47789
1.47913
1.48038
1.48163
1.48289
1.48415
1.48542
1.48669
1.48797
1.48925
1.49054
1.49184
1.49313
1.49444
1.49575
1.49706
1.49838
1.4997
1.50102
1.50235
1.50369
1.50502
1.50636
1.50771
1.50905
1.5104
1.51176
1.51311
1.51447
1.51583
1.51719
1.51856
1.51992
1.52129
1.52266
1.52403
1.5254
1.52677
1.52814
1.52951
1.53088
1.53225
1.53363
1.53499
1.53636
1.53773
1.5391
1.54046
1.54182
1.54318
1.54454
1.54589
1.54724
1.54858
1.54992
1.55126
1.55259
1.55392
1.55524
1.55656
1.55787
1.55917
1.56047
1.56175
1.56304
1.56431
1.56557
1.56683
1.56807
1.56931
1.57054
1.57175
1.57296
1.57415
1.57533
1.5765
1.57766
1.5788
1.57993
1.58105
1.58215
1.58324
1.58431
1.58536
1.5864
1.58742
1.58843
1.58941
1.59038
1.59133
1.59226
1.59317
1.59406
1.59493
1.59578
1.5966
1.59741
1.59819
1.59894
1.59968
1.60039
1.60107
1.60173
1.60236
1.60297
1.60355
1.6041
1.60463
1.60512
1.60559
1.60603
1.60644
1.60682
1.60717
1.60749
1.60777
1.60803
1.60825
1.60844
1.6086
1.60872
1.60881
1.60887
1.60889
1.60888
1.60883
1.60874
1.60862
1.60847
1.60827
1.60805
1.60778
1.60748
1.60714
1.60676
1.60635
1.6059
1.60541
1.60488
1.60431
1.60371
1.60307
1.60239
1.60167
1.60092
1.60012
1.59929
1.59842
1.59752
1.59657
1.59559
1.59457
1.59351
1.59242
1.59129
1.59012
1.58892
1.58754
1.586
1.58441
1.58281
1.58117
1.57951
1.57783
1.57613
1.57441
1.57267
1.57092
1.56916
1.56738
1.5656
1.5638
1.562
1.56019
1.55839
1.55657
1.55476
1.55294
1.55112
1.54931
1.5475
1.54569
1.54389
1.54209
1.5403
1.53852
1.53675
1.53498
1.53323
1.53149
1.52976
1.52804
1.52634
1.52465
1.52298
1.52132
1.51968
1.51805
1.51645
1.51486
1.5133
1.51175
1.51022
1.50871
1.50723
1.50576
1.50432
1.5029
1.50151
1.50014
1.4988
1.49748
1.49619
1.49492
1.49368
1.49246
1.49128
1.49011
1.48899
1.48788
1.48681
1.48576
1.48475
1.48377
1.48282
1.48189
1.481
1.48014
1.47932
1.47852
1.47776
1.47703
1.47634
1.47567
1.47504
1.47445
1.47389
1.47336
1.47286
1.47241
1.47198
1.47159
1.47124
1.47092
1.47064
1.4704
1.47019
1.47001
1.46987
1.46976
1.46971
1.46964
)
;
    }
    bottomWall
    {
        type            calculated;
        value           nonuniform List<scalar> 
449
(
0.00273989
0.00480467
0.00537811
0.00533046
0.00525913
0.00516288
0.00506529
0.00497393
0.0048901
0.00481349
0.00474342
0.00467918
0.00462006
0.00456532
0.00451445
0.00446705
0.00442272
0.00438116
0.00434201
0.00430505
0.00427006
0.00423687
0.00420528
0.00417518
0.00414643
0.00411894
0.0040926
0.00406732
0.00404304
0.00401968
0.00399719
0.00397551
0.00395458
0.00393435
0.00391479
0.00389585
0.0038775
0.0038597
0.00384242
0.00382563
0.00380931
0.00379343
0.00377797
0.0037629
0.00374821
0.00373389
0.00371991
0.00370627
0.00369295
0.00367993
0.00366721
0.00365477
0.0036426
0.00363069
0.00361903
0.00360761
0.00359642
0.00358543
0.00357467
0.0035641
0.00355373
0.00354353
0.00353352
0.00352368
0.00351401
0.00350449
0.00349514
0.00348593
0.00347686
0.00346794
0.00345916
0.0034505
0.00344198
0.00343358
0.0034253
0.00341714
0.0034091
0.00340117
0.00339334
0.00338563
0.00337802
0.00337051
0.00336309
0.00335578
0.00334855
0.00334142
0.00333438
0.00332743
0.00332056
0.00331377
0.00330707
0.00330044
0.00329389
0.00328742
0.00328102
0.0032747
0.00326845
0.00326226
0.00325615
0.0032501
0.00324412
0.0032382
0.00323234
0.00322654
0.00322081
0.00321513
0.00320952
0.00320395
0.00319845
0.003193
0.0031876
0.00318225
0.00317696
0.00317172
0.00316653
0.00316138
0.00315629
0.00315123
0.00314623
0.00314127
0.00313636
0.00313149
0.00312667
0.00312188
0.00311715
0.00311244
0.00310779
0.00310316
0.00309859
0.00309404
0.00308954
0.00308507
0.00308064
0.00307624
0.00307189
0.00306756
0.00306327
0.00305901
0.00305479
0.0030506
0.00304644
0.00304232
0.00303822
0.00303416
0.00303013
0.00302613
0.00302215
0.00301821
0.0030143
0.00301042
0.00300656
0.00300273
0.00299892
0.00299515
0.0029914
0.00298768
0.00298398
0.00298032
0.00297666
0.00297305
0.00296945
0.00296588
0.00296233
0.00295881
0.0029553
0.00295183
0.00294837
0.00294494
0.00294153
0.00293814
0.00293477
0.00293143
0.0029281
0.00292498
0.00292204
0.0029191
0.00291614
0.00291318
0.00291021
0.00290724
0.00290425
0.00290126
0.00289825
0.00289524
0.00289222
0.0028892
0.00288617
0.00288312
0.00288007
0.00287702
0.00287395
0.00287088
0.0028678
0.00286471
0.00286162
0.00285852
0.00285542
0.0028523
0.00284918
0.00284605
0.00284292
0.00283977
0.00283663
0.00283347
0.00283032
0.00282714
0.00282398
0.00282079
0.00281761
0.00281442
0.00281123
0.00280802
0.00280482
0.0028016
0.00279839
0.00279516
0.00279194
0.0027887
0.00278547
0.00278223
0.00277898
0.00277573
0.00277248
0.00276922
0.00276595
0.00276269
0.00275941
0.00275614
0.00275286
0.00274958
0.00274629
0.00274301
0.00273971
0.00273642
0.00273312
0.00272982
0.00272651
0.00272321
0.00271989
0.00271658
0.00271326
0.00270995
0.00270663
0.00270331
0.00269998
0.00269666
0.00269333
0.00269
0.00268667
0.00268333
0.00268
0.00267666
0.00267333
0.00266999
0.00266665
0.00266331
0.00265998
0.00265663
0.00265329
0.00264995
0.00264661
0.00264326
0.00263993
0.00263658
0.00263324
0.00262989
0.00262656
0.0026232
0.00261987
0.00261652
0.00261319
0.00260984
0.00260651
0.00260316
0.00259983
0.00259648
0.00259316
0.00258981
0.00258649
0.00258315
0.00257982
0.00257649
0.00257317
0.00256984
0.00256652
0.00256319
0.00255987
0.00255655
0.00255324
0.00254992
0.00254661
0.0025433
0.00254
0.00253669
0.00253339
0.00253009
0.00252679
0.00252351
0.00252021
0.00251693
0.00251364
0.00251037
0.00250709
0.00250383
0.00250055
0.00249729
0.00249402
0.00249077
0.00248751
0.00248427
0.00248102
0.00247778
0.00247454
0.00247131
0.00246807
0.00246486
0.00246163
0.00245842
0.0024552
0.002452
0.00244878
0.00244559
0.00244239
0.00243921
0.00243602
0.00243285
0.00242967
0.0024265
0.00242333
0.00242018
0.00241702
0.00241388
0.00241073
0.0024076
0.00240446
0.00240134
0.00239821
0.00239509
0.00239198
0.00238887
0.00238577
0.00238268
0.00237959
0.0023765
0.00237343
0.00237035
0.0023673
0.00236423
0.00236118
0.00235813
0.0023551
0.00235205
0.00234903
0.002346
0.00234266
0.00233901
0.00233543
0.00233189
0.00232842
0.00232498
0.00232161
0.00231827
0.00231499
0.00231175
0.00230856
0.00230541
0.00230231
0.00229924
0.00229623
0.00229324
0.00229031
0.0022874
0.00228454
0.0022817
0.00227892
0.00227615
0.00227344
0.00227074
0.00226809
0.00226545
0.00226287
0.0022603
0.00225778
0.00225527
0.0022528
0.00225035
0.00224794
0.00224554
0.00224318
0.00224084
0.00223854
0.00223625
0.00223399
0.00223175
0.00222955
0.00222735
0.00222519
0.00222305
0.00222093
0.00221883
0.00221675
0.00221469
0.00221266
0.00221064
0.00220865
0.00220666
0.00220471
0.00220276
0.00220086
0.00219894
0.00219707
0.00219519
0.00219335
0.0021915
0.0021897
0.00218788
0.00218612
0.00218433
0.00218259
0.00218084
0.00217913
0.0021774
0.00217573
0.00217402
0.00217238
0.0021707
0.00216909
0.00216743
0.00216585
0.00216422
0.00216267
0.00216106
0.00215953
0.00215795
0.00215644
0.00215489
0.0021534
0.00215187
0.0021504
0.0021489
0.00214743
0.00214597
0.00214447
0.00214311
0.00214147
0.00214041
0.0021383
0.00213804
0.00213523
)
;
    }
    symmetry
    {
        type            symmetryPlane;
    }
    frontAndBack
    {
        type            empty;
    }
}


// ************************************************************************* //
