/*--------------------------------*- C++ -*----------------------------------*\
| =========                 |                                                 |
| \\      /  F ield         | OpenFOAM: The Open Source CFD Toolbox           |
|  \\    /   O peration     | Version:  v2012                                 |
|   \\  /    A nd           | Website:  www.openfoam.com                      |
|    \\/     M anipulation  |                                                 |
\*---------------------------------------------------------------------------*/
FoamFile
{
    version     2.0;
    format      ascii;
    class       volVectorField;
    location    "17";
    object      wallShearStress;
}
// * * * * * * * * * * * * * * * * * * * * * * * * * * * * * * * * * * * * * //

dimensions      [0 2 -2 0 0 0 0];


internalField   uniform (0 0 0);

boundaryField
{
    inlet
    {
        type            calculated;
        value           uniform (0 0 0);
    }
    outlet
    {
        type            calculated;
        value           uniform (0 0 0);
    }
    topWall
    {
        type            calculated;
        value           nonuniform List<vector> 
545
(
(4.20151e-08 -2.96039e-08 0)
(4.19998e-08 -8.27976e-08 0)
(4.19445e-08 -1.38051e-07 0)
(4.18726e-08 -1.9168e-07 0)
(4.17885e-08 -2.4296e-07 0)
(4.17028e-08 -2.92571e-07 0)
(4.16051e-08 -3.40938e-07 0)
(4.14968e-08 -3.88037e-07 0)
(4.13787e-08 -4.33763e-07 0)
(4.12519e-08 -4.78112e-07 0)
(4.1117e-08 -5.21143e-07 0)
(4.0975e-08 -5.62905e-07 0)
(4.08266e-08 -6.03427e-07 0)
(4.06724e-08 -6.42734e-07 0)
(4.05132e-08 -6.80856e-07 0)
(4.03496e-08 -7.17824e-07 0)
(4.01822e-08 -7.53669e-07 0)
(4.00115e-08 -7.88424e-07 0)
(3.9838e-08 -8.22115e-07 0)
(3.96621e-08 -8.54775e-07 0)
(3.94844e-08 -8.86432e-07 0)
(3.93052e-08 -9.17116e-07 0)
(3.91249e-08 -9.46853e-07 0)
(3.89439e-08 -9.75673e-07 0)
(3.87624e-08 -1.0036e-06 0)
(3.85808e-08 -1.03067e-06 0)
(3.83993e-08 -1.0569e-06 0)
(3.82181e-08 -1.08231e-06 0)
(3.80376e-08 -1.10694e-06 0)
(3.78578e-08 -1.13081e-06 0)
(3.7679e-08 -1.15394e-06 0)
(3.75014e-08 -1.17635e-06 0)
(3.73251e-08 -1.19806e-06 0)
(3.71503e-08 -1.21911e-06 0)
(3.6977e-08 -1.23951e-06 0)
(3.68054e-08 -1.25927e-06 0)
(3.66356e-08 -1.27842e-06 0)
(3.64677e-08 -1.29699e-06 0)
(3.63017e-08 -1.31498e-06 0)
(3.61377e-08 -1.33242e-06 0)
(3.59758e-08 -1.34932e-06 0)
(3.5816e-08 -1.3657e-06 0)
(3.56584e-08 -1.38158e-06 0)
(3.5503e-08 -1.39697e-06 0)
(3.53498e-08 -1.41189e-06 0)
(3.51988e-08 -1.42636e-06 0)
(3.50501e-08 -1.44038e-06 0)
(3.49036e-08 -1.45398e-06 0)
(3.47594e-08 -1.46717e-06 0)
(3.46175e-08 -1.47995e-06 0)
(3.44778e-08 -1.49234e-06 0)
(3.43404e-08 -1.50436e-06 0)
(3.42051e-08 -1.51602e-06 0)
(3.40721e-08 -1.52733e-06 0)
(3.39413e-08 -1.53829e-06 0)
(3.38127e-08 -1.54893e-06 0)
(3.36861e-08 -1.55924e-06 0)
(3.35617e-08 -1.56925e-06 0)
(3.34394e-08 -1.57895e-06 0)
(3.33191e-08 -1.58837e-06 0)
(3.32009e-08 -1.59751e-06 0)
(3.30846e-08 -1.60637e-06 0)
(3.29702e-08 -1.61497e-06 0)
(3.28578e-08 -1.62331e-06 0)
(3.27472e-08 -1.63141e-06 0)
(3.26384e-08 -1.63926e-06 0)
(3.25314e-08 -1.64689e-06 0)
(3.24262e-08 -1.65428e-06 0)
(3.23227e-08 -1.66147e-06 0)
(3.22204e-08 -1.66843e-06 0)
(3.21218e-08 -1.6752e-06 0)
(3.20158e-08 -1.68174e-06 0)
(3.19147e-08 -1.68804e-06 0)
(3.1831e-08 -1.69417e-06 0)
(3.17484e-08 -1.70019e-06 0)
(3.16659e-08 -1.70617e-06 0)
(3.15834e-08 -1.71213e-06 0)
(3.15011e-08 -1.71805e-06 0)
(3.14188e-08 -1.72393e-06 0)
(3.13366e-08 -1.72976e-06 0)
(3.12546e-08 -1.73555e-06 0)
(3.11726e-08 -1.74129e-06 0)
(3.10907e-08 -1.747e-06 0)
(3.1009e-08 -1.75266e-06 0)
(3.09273e-08 -1.75829e-06 0)
(3.08458e-08 -1.76387e-06 0)
(3.07644e-08 -1.76942e-06 0)
(3.06831e-08 -1.77492e-06 0)
(3.0602e-08 -1.78038e-06 0)
(3.0521e-08 -1.78581e-06 0)
(3.04401e-08 -1.7912e-06 0)
(3.03592e-08 -1.79653e-06 0)
(3.02794e-08 -1.80186e-06 0)
(3.01956e-08 -1.80711e-06 0)
(3.013e-08 -1.81243e-06 0)
(2.99894e-08 -1.81745e-06 0)
(2.983e-08 -1.82205e-06 0)
(2.97582e-08 -1.82651e-06 0)
(2.9695e-08 -1.83065e-06 0)
(2.96324e-08 -1.8347e-06 0)
(2.95702e-08 -1.83884e-06 0)
(2.95079e-08 -1.84306e-06 0)
(2.94452e-08 -1.84725e-06 0)
(2.93823e-08 -1.85142e-06 0)
(2.93192e-08 -1.85559e-06 0)
(2.92558e-08 -1.85976e-06 0)
(2.91921e-08 -1.86394e-06 0)
(2.91281e-08 -1.86812e-06 0)
(2.90639e-08 -1.8723e-06 0)
(2.89994e-08 -1.87648e-06 0)
(2.89347e-08 -1.88066e-06 0)
(2.88697e-08 -1.88484e-06 0)
(2.88044e-08 -1.88902e-06 0)
(2.87388e-08 -1.8932e-06 0)
(2.8673e-08 -1.89739e-06 0)
(2.8607e-08 -1.90157e-06 0)
(2.85406e-08 -1.90575e-06 0)
(2.84741e-08 -1.90993e-06 0)
(2.84072e-08 -1.91411e-06 0)
(2.83401e-08 -1.9183e-06 0)
(2.82727e-08 -1.92248e-06 0)
(2.82051e-08 -1.92666e-06 0)
(2.81371e-08 -1.93084e-06 0)
(2.8069e-08 -1.93502e-06 0)
(2.80005e-08 -1.93921e-06 0)
(2.79318e-08 -1.94339e-06 0)
(2.78628e-08 -1.94757e-06 0)
(2.77936e-08 -1.95175e-06 0)
(2.77241e-08 -1.95593e-06 0)
(2.76543e-08 -1.9601e-06 0)
(2.75843e-08 -1.96428e-06 0)
(2.7514e-08 -1.96846e-06 0)
(2.74434e-08 -1.97264e-06 0)
(2.73725e-08 -1.97681e-06 0)
(2.73014e-08 -1.98098e-06 0)
(2.723e-08 -1.98516e-06 0)
(2.71584e-08 -1.98933e-06 0)
(2.70865e-08 -1.9935e-06 0)
(2.70143e-08 -1.99767e-06 0)
(2.69418e-08 -2.00184e-06 0)
(2.68691e-08 -2.00601e-06 0)
(2.67961e-08 -2.01017e-06 0)
(2.67228e-08 -2.01433e-06 0)
(2.66493e-08 -2.0185e-06 0)
(2.65755e-08 -2.02266e-06 0)
(2.65014e-08 -2.02682e-06 0)
(2.64271e-08 -2.03097e-06 0)
(2.63524e-08 -2.03513e-06 0)
(2.62776e-08 -2.03928e-06 0)
(2.62024e-08 -2.04343e-06 0)
(2.6127e-08 -2.04758e-06 0)
(2.60513e-08 -2.05173e-06 0)
(2.59753e-08 -2.05587e-06 0)
(2.58991e-08 -2.06001e-06 0)
(2.58226e-08 -2.06415e-06 0)
(2.57458e-08 -2.06829e-06 0)
(2.56687e-08 -2.07242e-06 0)
(2.55914e-08 -2.07655e-06 0)
(2.55138e-08 -2.08068e-06 0)
(2.5436e-08 -2.08481e-06 0)
(2.53578e-08 -2.08893e-06 0)
(2.52794e-08 -2.09305e-06 0)
(2.52008e-08 -2.09717e-06 0)
(2.51218e-08 -2.10128e-06 0)
(2.50426e-08 -2.10539e-06 0)
(2.49632e-08 -2.1095e-06 0)
(2.48834e-08 -2.1136e-06 0)
(2.48034e-08 -2.1177e-06 0)
(2.47231e-08 -2.1218e-06 0)
(2.46425e-08 -2.12589e-06 0)
(2.45617e-08 -2.12998e-06 0)
(2.44806e-08 -2.13407e-06 0)
(2.43993e-08 -2.13815e-06 0)
(2.43177e-08 -2.14222e-06 0)
(2.42358e-08 -2.1463e-06 0)
(2.41536e-08 -2.15037e-06 0)
(2.40712e-08 -2.15443e-06 0)
(2.39885e-08 -2.15849e-06 0)
(2.39055e-08 -2.16255e-06 0)
(2.38223e-08 -2.1666e-06 0)
(2.37388e-08 -2.17064e-06 0)
(2.3655e-08 -2.17469e-06 0)
(2.3571e-08 -2.17872e-06 0)
(2.34867e-08 -2.18276e-06 0)
(2.34022e-08 -2.18678e-06 0)
(2.33174e-08 -2.1908e-06 0)
(2.32323e-08 -2.19482e-06 0)
(2.3147e-08 -2.19883e-06 0)
(2.30614e-08 -2.20284e-06 0)
(2.29755e-08 -2.20684e-06 0)
(2.28894e-08 -2.21083e-06 0)
(2.2803e-08 -2.21482e-06 0)
(2.27164e-08 -2.21881e-06 0)
(2.26295e-08 -2.22279e-06 0)
(2.25423e-08 -2.22676e-06 0)
(2.24549e-08 -2.23072e-06 0)
(2.23672e-08 -2.23468e-06 0)
(2.22793e-08 -2.23864e-06 0)
(2.21911e-08 -2.24258e-06 0)
(2.21027e-08 -2.24652e-06 0)
(2.2014e-08 -2.25046e-06 0)
(2.19251e-08 -2.25439e-06 0)
(2.18359e-08 -2.25831e-06 0)
(2.17464e-08 -2.26222e-06 0)
(2.16567e-08 -2.26613e-06 0)
(2.15668e-08 -2.27003e-06 0)
(2.14766e-08 -2.27392e-06 0)
(2.13861e-08 -2.27781e-06 0)
(2.12954e-08 -2.28169e-06 0)
(2.12045e-08 -2.28556e-06 0)
(2.11133e-08 -2.28942e-06 0)
(2.10219e-08 -2.29328e-06 0)
(2.09302e-08 -2.29713e-06 0)
(2.08383e-08 -2.30097e-06 0)
(2.07461e-08 -2.3048e-06 0)
(2.06537e-08 -2.30862e-06 0)
(2.05611e-08 -2.31244e-06 0)
(2.04682e-08 -2.31625e-06 0)
(2.03751e-08 -2.32005e-06 0)
(2.02817e-08 -2.32384e-06 0)
(2.01882e-08 -2.32762e-06 0)
(2.00943e-08 -2.3314e-06 0)
(2.00003e-08 -2.33516e-06 0)
(1.9906e-08 -2.33892e-06 0)
(1.98115e-08 -2.34267e-06 0)
(1.97167e-08 -2.34641e-06 0)
(1.96218e-08 -2.35013e-06 0)
(1.95266e-08 -2.35386e-06 0)
(1.94311e-08 -2.35757e-06 0)
(1.93355e-08 -2.36127e-06 0)
(1.92396e-08 -2.36496e-06 0)
(1.91435e-08 -2.36864e-06 0)
(1.90472e-08 -2.37231e-06 0)
(1.89507e-08 -2.37597e-06 0)
(1.88539e-08 -2.37963e-06 0)
(1.8757e-08 -2.38327e-06 0)
(1.86598e-08 -2.3869e-06 0)
(1.85624e-08 -2.39052e-06 0)
(1.84648e-08 -2.39413e-06 0)
(1.8367e-08 -2.39773e-06 0)
(1.8269e-08 -2.40132e-06 0)
(1.81708e-08 -2.4049e-06 0)
(1.80724e-08 -2.40847e-06 0)
(1.79737e-08 -2.41202e-06 0)
(1.78749e-08 -2.41557e-06 0)
(1.77759e-08 -2.4191e-06 0)
(1.76767e-08 -2.42262e-06 0)
(1.75772e-08 -2.42614e-06 0)
(1.74776e-08 -2.42963e-06 0)
(1.73778e-08 -2.43312e-06 0)
(1.72778e-08 -2.4366e-06 0)
(1.71776e-08 -2.44006e-06 0)
(1.70773e-08 -2.44351e-06 0)
(1.69767e-08 -2.44695e-06 0)
(1.6876e-08 -2.45038e-06 0)
(1.67751e-08 -2.4538e-06 0)
(1.6674e-08 -2.4572e-06 0)
(1.65727e-08 -2.46059e-06 0)
(1.64712e-08 -2.46397e-06 0)
(1.63696e-08 -2.46733e-06 0)
(1.62678e-08 -2.47068e-06 0)
(1.61659e-08 -2.47402e-06 0)
(1.60637e-08 -2.47734e-06 0)
(1.59615e-08 -2.48066e-06 0)
(1.58589e-08 -2.48395e-06 0)
(1.57569e-08 -2.48725e-06 0)
(1.56521e-08 -2.49049e-06 0)
(1.55574e-08 -2.49391e-06 0)
(1.54116e-08 -2.4969e-06 0)
(1.52619e-08 -2.49981e-06 0)
(1.51723e-08 -2.50304e-06 0)
(1.50834e-08 -2.50588e-06 0)
(1.49959e-08 -2.50864e-06 0)
(1.49081e-08 -2.5115e-06 0)
(1.48194e-08 -2.51445e-06 0)
(1.47297e-08 -2.51739e-06 0)
(1.4639e-08 -2.52033e-06 0)
(1.45472e-08 -2.52327e-06 0)
(1.44544e-08 -2.52624e-06 0)
(1.43606e-08 -2.52921e-06 0)
(1.42657e-08 -2.53221e-06 0)
(1.41698e-08 -2.53521e-06 0)
(1.40728e-08 -2.53822e-06 0)
(1.39748e-08 -2.54125e-06 0)
(1.38757e-08 -2.54429e-06 0)
(1.37755e-08 -2.54734e-06 0)
(1.36742e-08 -2.5504e-06 0)
(1.35719e-08 -2.55347e-06 0)
(1.34684e-08 -2.55655e-06 0)
(1.33639e-08 -2.55964e-06 0)
(1.32583e-08 -2.56274e-06 0)
(1.31515e-08 -2.56584e-06 0)
(1.30437e-08 -2.56896e-06 0)
(1.29347e-08 -2.57208e-06 0)
(1.28247e-08 -2.57521e-06 0)
(1.27135e-08 -2.57835e-06 0)
(1.26012e-08 -2.58149e-06 0)
(1.24878e-08 -2.58464e-06 0)
(1.23732e-08 -2.5878e-06 0)
(1.22575e-08 -2.59096e-06 0)
(1.21407e-08 -2.59412e-06 0)
(1.20228e-08 -2.59729e-06 0)
(1.19037e-08 -2.60045e-06 0)
(1.17834e-08 -2.60363e-06 0)
(1.16621e-08 -2.6068e-06 0)
(1.15396e-08 -2.60998e-06 0)
(1.14159e-08 -2.61315e-06 0)
(1.12911e-08 -2.61633e-06 0)
(1.11652e-08 -2.6195e-06 0)
(1.10381e-08 -2.62267e-06 0)
(1.09098e-08 -2.62584e-06 0)
(1.07805e-08 -2.62901e-06 0)
(1.065e-08 -2.63217e-06 0)
(1.05183e-08 -2.63533e-06 0)
(1.03855e-08 -2.63848e-06 0)
(1.02516e-08 -2.64163e-06 0)
(1.01165e-08 -2.64476e-06 0)
(9.98034e-09 -2.6479e-06 0)
(9.84302e-09 -2.65102e-06 0)
(9.70458e-09 -2.65413e-06 0)
(9.56502e-09 -2.65723e-06 0)
(9.42435e-09 -2.66031e-06 0)
(9.28256e-09 -2.66339e-06 0)
(9.13968e-09 -2.66645e-06 0)
(8.9957e-09 -2.66949e-06 0)
(8.85064e-09 -2.67253e-06 0)
(8.70448e-09 -2.67554e-06 0)
(8.55727e-09 -2.67853e-06 0)
(8.40898e-09 -2.68151e-06 0)
(8.25964e-09 -2.68446e-06 0)
(8.10925e-09 -2.68739e-06 0)
(7.95784e-09 -2.6903e-06 0)
(7.80539e-09 -2.69319e-06 0)
(7.65194e-09 -2.69605e-06 0)
(7.49749e-09 -2.69888e-06 0)
(7.34205e-09 -2.70169e-06 0)
(7.18564e-09 -2.70446e-06 0)
(7.02828e-09 -2.70721e-06 0)
(6.86998e-09 -2.70992e-06 0)
(6.71075e-09 -2.7126e-06 0)
(6.55061e-09 -2.71525e-06 0)
(6.38959e-09 -2.71786e-06 0)
(6.22769e-09 -2.72043e-06 0)
(6.06494e-09 -2.72296e-06 0)
(5.90136e-09 -2.72545e-06 0)
(5.73697e-09 -2.7279e-06 0)
(5.57179e-09 -2.7303e-06 0)
(5.40585e-09 -2.73267e-06 0)
(5.23917e-09 -2.73498e-06 0)
(5.07177e-09 -2.73724e-06 0)
(4.90368e-09 -2.73946e-06 0)
(4.73493e-09 -2.74162e-06 0)
(4.56554e-09 -2.74373e-06 0)
(4.39555e-09 -2.74578e-06 0)
(4.22497e-09 -2.74778e-06 0)
(4.05385e-09 -2.74972e-06 0)
(3.88221e-09 -2.75159e-06 0)
(3.71009e-09 -2.75341e-06 0)
(3.53752e-09 -2.75516e-06 0)
(3.36454e-09 -2.75685e-06 0)
(3.19117e-09 -2.75846e-06 0)
(3.01747e-09 -2.76001e-06 0)
(2.84345e-09 -2.76149e-06 0)
(2.66917e-09 -2.76289e-06 0)
(2.49467e-09 -2.76422e-06 0)
(2.31998e-09 -2.76547e-06 0)
(2.14514e-09 -2.76664e-06 0)
(1.9702e-09 -2.76773e-06 0)
(1.79521e-09 -2.76874e-06 0)
(1.6202e-09 -2.76966e-06 0)
(1.44523e-09 -2.7705e-06 0)
(1.27033e-09 -2.77125e-06 0)
(1.09557e-09 -2.7719e-06 0)
(9.20978e-10 -2.77247e-06 0)
(7.46615e-10 -2.77294e-06 0)
(5.72531e-10 -2.77331e-06 0)
(3.98775e-10 -2.77358e-06 0)
(2.25402e-10 -2.77376e-06 0)
(5.24623e-11 -2.77383e-06 0)
(-1.19988e-10 -2.77379e-06 0)
(-2.91893e-10 -2.77365e-06 0)
(-4.632e-10 -2.7734e-06 0)
(-6.33849e-10 -2.77304e-06 0)
(-8.03787e-10 -2.77257e-06 0)
(-9.72952e-10 -2.77199e-06 0)
(-1.14129e-09 -2.77129e-06 0)
(-1.30874e-09 -2.77046e-06 0)
(-1.47524e-09 -2.76953e-06 0)
(-1.64074e-09 -2.76846e-06 0)
(-1.80517e-09 -2.76728e-06 0)
(-1.96847e-09 -2.76596e-06 0)
(-2.13058e-09 -2.76453e-06 0)
(-2.29144e-09 -2.76296e-06 0)
(-2.451e-09 -2.76126e-06 0)
(-2.60918e-09 -2.75943e-06 0)
(-2.76593e-09 -2.75747e-06 0)
(-2.92118e-09 -2.75537e-06 0)
(-3.07487e-09 -2.75314e-06 0)
(-3.22694e-09 -2.75076e-06 0)
(-3.37733e-09 -2.74824e-06 0)
(-3.52597e-09 -2.74558e-06 0)
(-3.6728e-09 -2.74279e-06 0)
(-3.81775e-09 -2.73984e-06 0)
(-3.96077e-09 -2.73675e-06 0)
(-4.10178e-09 -2.73351e-06 0)
(-4.24073e-09 -2.73013e-06 0)
(-4.37754e-09 -2.72659e-06 0)
(-4.51215e-09 -2.72291e-06 0)
(-4.6445e-09 -2.71907e-06 0)
(-4.77452e-09 -2.71508e-06 0)
(-4.90214e-09 -2.71093e-06 0)
(-5.02731e-09 -2.70664e-06 0)
(-5.14994e-09 -2.70218e-06 0)
(-5.26999e-09 -2.69758e-06 0)
(-5.38737e-09 -2.69281e-06 0)
(-5.50205e-09 -2.6879e-06 0)
(-5.61393e-09 -2.68282e-06 0)
(-5.72298e-09 -2.67759e-06 0)
(-5.8291e-09 -2.6722e-06 0)
(-5.93228e-09 -2.66665e-06 0)
(-6.03242e-09 -2.66094e-06 0)
(-6.12951e-09 -2.65509e-06 0)
(-6.22344e-09 -2.64907e-06 0)
(-6.31423e-09 -2.6429e-06 0)
(-6.40178e-09 -2.63656e-06 0)
(-6.48611e-09 -2.63009e-06 0)
(-6.56712e-09 -2.62344e-06 0)
(-6.64484e-09 -2.61666e-06 0)
(-6.71919e-09 -2.60971e-06 0)
(-6.79021e-09 -2.60262e-06 0)
(-6.85782e-09 -2.59537e-06 0)
(-6.92207e-09 -2.58798e-06 0)
(-6.98289e-09 -2.58043e-06 0)
(-7.04032e-09 -2.57275e-06 0)
(-7.09431e-09 -2.56491e-06 0)
(-7.14492e-09 -2.55694e-06 0)
(-7.19207e-09 -2.54882e-06 0)
(-7.23585e-09 -2.54056e-06 0)
(-7.27617e-09 -2.53216e-06 0)
(-7.31312e-09 -2.52364e-06 0)
(-7.34662e-09 -2.51496e-06 0)
(-7.37674e-09 -2.50617e-06 0)
(-7.40339e-09 -2.49724e-06 0)
(-7.42664e-09 -2.48819e-06 0)
(-7.44639e-09 -2.479e-06 0)
(-7.46263e-09 -2.46971e-06 0)
(-7.47535e-09 -2.46026e-06 0)
(-7.48346e-09 -2.45077e-06 0)
(-7.49086e-09 -2.44087e-06 0)
(-7.49016e-09 -2.43144e-06 0)
(-7.47336e-09 -2.42067e-06 0)
(-7.45601e-09 -2.40815e-06 0)
(-7.44471e-09 -2.39614e-06 0)
(-7.43167e-09 -2.38421e-06 0)
(-7.41388e-09 -2.3722e-06 0)
(-7.39256e-09 -2.36019e-06 0)
(-7.36753e-09 -2.34822e-06 0)
(-7.33898e-09 -2.33632e-06 0)
(-7.30697e-09 -2.32446e-06 0)
(-7.27176e-09 -2.31267e-06 0)
(-7.23338e-09 -2.30091e-06 0)
(-7.19211e-09 -2.28924e-06 0)
(-7.14796e-09 -2.27762e-06 0)
(-7.10121e-09 -2.26609e-06 0)
(-7.05189e-09 -2.25462e-06 0)
(-7.00025e-09 -2.24326e-06 0)
(-6.9463e-09 -2.23195e-06 0)
(-6.8903e-09 -2.22076e-06 0)
(-6.83224e-09 -2.20964e-06 0)
(-6.77234e-09 -2.19863e-06 0)
(-6.7106e-09 -2.18771e-06 0)
(-6.64722e-09 -2.1769e-06 0)
(-6.58219e-09 -2.16618e-06 0)
(-6.51569e-09 -2.15558e-06 0)
(-6.44769e-09 -2.14508e-06 0)
(-6.37838e-09 -2.1347e-06 0)
(-6.30771e-09 -2.12442e-06 0)
(-6.23585e-09 -2.11427e-06 0)
(-6.16275e-09 -2.10422e-06 0)
(-6.08858e-09 -2.09431e-06 0)
(-6.01327e-09 -2.08451e-06 0)
(-5.93699e-09 -2.07484e-06 0)
(-5.85968e-09 -2.06528e-06 0)
(-5.78148e-09 -2.05586e-06 0)
(-5.70234e-09 -2.04655e-06 0)
(-5.62239e-09 -2.03739e-06 0)
(-5.54159e-09 -2.02834e-06 0)
(-5.46007e-09 -2.01944e-06 0)
(-5.37776e-09 -2.01066e-06 0)
(-5.29481e-09 -2.00203e-06 0)
(-5.21115e-09 -1.99351e-06 0)
(-5.12691e-09 -1.98515e-06 0)
(-5.04203e-09 -1.97691e-06 0)
(-4.95662e-09 -1.96883e-06 0)
(-4.87064e-09 -1.96086e-06 0)
(-4.78419e-09 -1.95305e-06 0)
(-4.69722e-09 -1.94537e-06 0)
(-4.60982e-09 -1.93784e-06 0)
(-4.52195e-09 -1.93044e-06 0)
(-4.43369e-09 -1.9232e-06 0)
(-4.34498e-09 -1.91609e-06 0)
(-4.25592e-09 -1.90913e-06 0)
(-4.16644e-09 -1.90231e-06 0)
(-4.07663e-09 -1.89565e-06 0)
(-3.98642e-09 -1.88911e-06 0)
(-3.8959e-09 -1.88274e-06 0)
(-3.805e-09 -1.8765e-06 0)
(-3.7138e-09 -1.87042e-06 0)
(-3.62223e-09 -1.86447e-06 0)
(-3.53036e-09 -1.85869e-06 0)
(-3.43815e-09 -1.85304e-06 0)
(-3.34564e-09 -1.84756e-06 0)
(-3.25279e-09 -1.84221e-06 0)
(-3.15966e-09 -1.83703e-06 0)
(-3.06619e-09 -1.83198e-06 0)
(-2.97244e-09 -1.8271e-06 0)
(-2.87838e-09 -1.82235e-06 0)
(-2.78404e-09 -1.81777e-06 0)
(-2.68938e-09 -1.81334e-06 0)
(-2.59446e-09 -1.80906e-06 0)
(-2.49924e-09 -1.80493e-06 0)
(-2.40375e-09 -1.80097e-06 0)
(-2.30797e-09 -1.79715e-06 0)
(-2.21192e-09 -1.79349e-06 0)
(-2.11558e-09 -1.78998e-06 0)
(-2.01897e-09 -1.78663e-06 0)
(-1.92206e-09 -1.78344e-06 0)
(-1.82487e-09 -1.7804e-06 0)
(-1.72737e-09 -1.77752e-06 0)
(-1.62957e-09 -1.7748e-06 0)
(-1.53144e-09 -1.77223e-06 0)
(-1.43299e-09 -1.76983e-06 0)
(-1.33422e-09 -1.76758e-06 0)
(-1.23516e-09 -1.7655e-06 0)
(-1.13585e-09 -1.76357e-06 0)
(-1.0364e-09 -1.76182e-06 0)
(-9.36961e-10 -1.76018e-06 0)
(-8.37846e-10 -1.75887e-06 0)
(-7.39282e-10 -1.75718e-06 0)
(-6.4209e-10 -1.75739e-06 0)
(-5.45025e-10 -1.75187e-06 0)
(-4.53273e-10 -1.7653e-06 0)
(-3.44963e-10 -1.71184e-06 0)
(-2.98824e-10 -1.85188e-06 0)
(-1.59121e-10 -1.61704e-06 0)
)
;
    }
    bottomWall
    {
        type            calculated;
        value           nonuniform List<vector> 
449
(
(-52.9815 -0.95885 0)
(-34.9291 -0.00281532 0)
(-34.5125 -0.000260837 0)
(-33.135 -0.000366507 0)
(-32.0036 -0.000317565 0)
(-30.9563 -0.000289194 0)
(-30.0149 -0.000255871 0)
(-29.1937 -0.000221479 0)
(-28.487 -0.000191033 0)
(-27.8733 -0.000166952 0)
(-27.3302 -0.000148701 0)
(-26.8401 -0.000134755 0)
(-26.3912 -0.000123734 0)
(-25.9756 -0.000114551 0)
(-25.5888 -0.000106631 0)
(-25.2269 -9.96392e-05 0)
(-24.8876 -9.33322e-05 0)
(-24.5686 -8.76688e-05 0)
(-24.2679 -8.24852e-05 0)
(-23.9843 -7.7743e-05 0)
(-23.716 -7.34166e-05 0)
(-23.4619 -6.94018e-05 0)
(-23.221 -6.57413e-05 0)
(-22.992 -6.23699e-05 0)
(-22.7743 -5.92053e-05 0)
(-22.567 -5.627e-05 0)
(-22.3695 -5.35865e-05 0)
(-22.1806 -5.1073e-05 0)
(-22.0004 -4.87853e-05 0)
(-21.8272 -4.66491e-05 0)
(-21.6617 -4.45947e-05 0)
(-21.5028 -4.26639e-05 0)
(-21.3506 -4.08887e-05 0)
(-21.2039 -3.92323e-05 0)
(-21.0632 -3.77117e-05 0)
(-20.927 -3.62529e-05 0)
(-20.7964 -3.48503e-05 0)
(-20.67 -3.35662e-05 0)
(-20.5483 -3.23297e-05 0)
(-20.4305 -3.11863e-05 0)
(-20.3167 -3.00722e-05 0)
(-20.2066 -2.90626e-05 0)
(-20.0998 -2.80969e-05 0)
(-19.9965 -2.71857e-05 0)
(-19.8961 -2.62945e-05 0)
(-19.799 -2.5479e-05 0)
(-19.7042 -2.46735e-05 0)
(-19.6128 -2.39206e-05 0)
(-19.5233 -2.3191e-05 0)
(-19.4369 -2.24874e-05 0)
(-19.3524 -2.18061e-05 0)
(-19.2708 -2.11952e-05 0)
(-19.1906 -2.0615e-05 0)
(-19.1131 -2.00152e-05 0)
(-19.037 -1.94649e-05 0)
(-18.9634 -1.89388e-05 0)
(-18.8911 -1.84622e-05 0)
(-18.8208 -1.7977e-05 0)
(-18.7519 -1.75142e-05 0)
(-18.6849 -1.70761e-05 0)
(-18.6191 -1.66548e-05 0)
(-18.5551 -1.62562e-05 0)
(-18.4921 -1.58724e-05 0)
(-18.4308 -1.54693e-05 0)
(-18.3706 -1.50871e-05 0)
(-18.3121 -1.47419e-05 0)
(-18.2543 -1.4417e-05 0)
(-18.1981 -1.40847e-05 0)
(-18.1427 -1.37765e-05 0)
(-18.0886 -1.34981e-05 0)
(-18.0353 -1.32192e-05 0)
(-17.9831 -1.29157e-05 0)
(-17.9319 -1.26294e-05 0)
(-17.8819 -1.23824e-05 0)
(-17.8324 -1.21367e-05 0)
(-17.7841 -1.18978e-05 0)
(-17.7364 -1.16728e-05 0)
(-17.6896 -1.14479e-05 0)
(-17.6435 -1.12127e-05 0)
(-17.5985 -1.0962e-05 0)
(-17.5541 -1.07398e-05 0)
(-17.5107 -1.05411e-05 0)
(-17.4678 -1.03677e-05 0)
(-17.4256 -1.01894e-05 0)
(-17.384 -1.0002e-05 0)
(-17.3431 -9.80257e-06 0)
(-17.303 -9.5858e-06 0)
(-17.2637 -9.42553e-06 0)
(-17.2247 -9.29096e-06 0)
(-17.1864 -9.13585e-06 0)
(-17.1485 -8.98611e-06 0)
(-17.1112 -8.81971e-06 0)
(-17.0745 -8.66058e-06 0)
(-17.0385 -8.51485e-06 0)
(-17.0028 -8.35833e-06 0)
(-16.9679 -8.20145e-06 0)
(-16.9334 -8.07923e-06 0)
(-16.8994 -7.96288e-06 0)
(-16.8657 -7.84078e-06 0)
(-16.8326 -7.71334e-06 0)
(-16.7999 -7.57931e-06 0)
(-16.7677 -7.46598e-06 0)
(-16.7358 -7.35418e-06 0)
(-16.7044 -7.22695e-06 0)
(-16.6735 -7.09947e-06 0)
(-16.6431 -6.9959e-06 0)
(-16.6129 -6.87577e-06 0)
(-16.5834 -6.78497e-06 0)
(-16.5539 -6.70373e-06 0)
(-16.5249 -6.61403e-06 0)
(-16.496 -6.53806e-06 0)
(-16.4676 -6.42847e-06 0)
(-16.4396 -6.32855e-06 0)
(-16.4119 -6.22353e-06 0)
(-16.3846 -6.11414e-06 0)
(-16.3578 -6.00458e-06 0)
(-16.3314 -5.9285e-06 0)
(-16.3051 -5.86386e-06 0)
(-16.2792 -5.77549e-06 0)
(-16.2536 -5.68141e-06 0)
(-16.2283 -5.62303e-06 0)
(-16.2031 -5.57115e-06 0)
(-16.1782 -5.49965e-06 0)
(-16.1536 -5.43631e-06 0)
(-16.1291 -5.36079e-06 0)
(-16.105 -5.2741e-06 0)
(-16.0812 -5.1861e-06 0)
(-16.0578 -5.10538e-06 0)
(-16.0347 -5.02475e-06 0)
(-16.0119 -4.96518e-06 0)
(-15.9892 -4.91738e-06 0)
(-15.9668 -4.88282e-06 0)
(-15.9442 -4.8367e-06 0)
(-15.9221 -4.7749e-06 0)
(-15.9001 -4.72732e-06 0)
(-15.8783 -4.6784e-06 0)
(-15.8566 -4.60771e-06 0)
(-15.8354 -4.54282e-06 0)
(-15.8142 -4.47089e-06 0)
(-15.7936 -4.40783e-06 0)
(-15.7729 -4.3388e-06 0)
(-15.7528 -4.25519e-06 0)
(-15.7328 -4.19892e-06 0)
(-15.7131 -4.14275e-06 0)
(-15.6936 -4.10052e-06 0)
(-15.6742 -4.05219e-06 0)
(-15.655 -4.03338e-06 0)
(-15.6358 -3.98881e-06 0)
(-15.6169 -3.93728e-06 0)
(-15.5981 -3.89022e-06 0)
(-15.5796 -3.86082e-06 0)
(-15.5609 -3.81805e-06 0)
(-15.5427 -3.76224e-06 0)
(-15.5245 -3.72917e-06 0)
(-15.5066 -3.66047e-06 0)
(-15.489 -3.60879e-06 0)
(-15.4715 -3.56291e-06 0)
(-15.4542 -3.52437e-06 0)
(-15.437 -3.47035e-06 0)
(-15.4202 -3.43757e-06 0)
(-15.4032 -3.41582e-06 0)
(-15.3865 -3.38034e-06 0)
(-15.3699 -3.36602e-06 0)
(-15.3532 -3.34069e-06 0)
(-15.3367 -3.27705e-06 0)
(-15.3207 -3.21619e-06 0)
(-15.3047 -3.18371e-06 0)
(-15.2889 -3.13879e-06 0)
(-15.2732 -3.09249e-06 0)
(-15.2578 -3.06079e-06 0)
(-15.2425 -3.02566e-06 0)
(-15.2273 -3.0036e-06 0)
(-15.2121 -2.99982e-06 0)
(-15.1978 -3.00188e-06 0)
(-15.1841 -2.99333e-06 0)
(-15.1704 -2.96184e-06 0)
(-15.1568 -2.92773e-06 0)
(-15.1432 -2.90871e-06 0)
(-15.1294 -2.85706e-06 0)
(-15.1159 -2.81707e-06 0)
(-15.1022 -2.81197e-06 0)
(-15.0886 -2.77723e-06 0)
(-15.0749 -2.74334e-06 0)
(-15.0613 -2.71849e-06 0)
(-15.0476 -2.67419e-06 0)
(-15.0341 -2.62109e-06 0)
(-15.0207 -2.5723e-06 0)
(-15.0074 -2.55141e-06 0)
(-14.9939 -2.54775e-06 0)
(-14.9804 -2.54576e-06 0)
(-14.9666 -2.51469e-06 0)
(-14.9531 -2.47305e-06 0)
(-14.9394 -2.4735e-06 0)
(-14.9257 -2.43312e-06 0)
(-14.9122 -2.38206e-06 0)
(-14.8987 -2.3471e-06 0)
(-14.8853 -2.32612e-06 0)
(-14.8718 -2.30148e-06 0)
(-14.8584 -2.27348e-06 0)
(-14.8449 -2.25683e-06 0)
(-14.8314 -2.23524e-06 0)
(-14.8179 -2.21638e-06 0)
(-14.8044 -2.20462e-06 0)
(-14.7907 -2.18988e-06 0)
(-14.777 -2.16643e-06 0)
(-14.7633 -2.15956e-06 0)
(-14.7495 -2.1512e-06 0)
(-14.7356 -2.11709e-06 0)
(-14.7219 -2.08495e-06 0)
(-14.7081 -2.05041e-06 0)
(-14.6946 -2.01674e-06 0)
(-14.681 -1.97425e-06 0)
(-14.6678 -1.92958e-06 0)
(-14.6545 -1.90958e-06 0)
(-14.6412 -1.89346e-06 0)
(-14.6279 -1.86146e-06 0)
(-14.6148 -1.83249e-06 0)
(-14.6016 -1.8054e-06 0)
(-14.5886 -1.79449e-06 0)
(-14.5753 -1.79642e-06 0)
(-14.5619 -1.78046e-06 0)
(-14.5486 -1.77763e-06 0)
(-14.535 -1.76364e-06 0)
(-14.5215 -1.74605e-06 0)
(-14.5079 -1.73732e-06 0)
(-14.4943 -1.70315e-06 0)
(-14.4809 -1.69898e-06 0)
(-14.4671 -1.67972e-06 0)
(-14.4538 -1.64055e-06 0)
(-14.4402 -1.63999e-06 0)
(-14.4266 -1.61601e-06 0)
(-14.4132 -1.60106e-06 0)
(-14.3996 -1.6e-06 0)
(-14.3859 -1.57296e-06 0)
(-14.3724 -1.56356e-06 0)
(-14.3586 -1.55984e-06 0)
(-14.3449 -1.54829e-06 0)
(-14.331 -1.51098e-06 0)
(-14.3176 -1.46621e-06 0)
(-14.3043 -1.43679e-06 0)
(-14.2912 -1.40182e-06 0)
(-14.2782 -1.37576e-06 0)
(-14.2653 -1.36936e-06 0)
(-14.2521 -1.36535e-06 0)
(-14.2391 -1.34456e-06 0)
(-14.226 -1.34408e-06 0)
(-14.2126 -1.34266e-06 0)
(-14.1993 -1.31485e-06 0)
(-14.1862 -1.30038e-06 0)
(-14.1729 -1.28925e-06 0)
(-14.1598 -1.27699e-06 0)
(-14.1464 -1.27179e-06 0)
(-14.1331 -1.24993e-06 0)
(-14.1199 -1.22541e-06 0)
(-14.1068 -1.21506e-06 0)
(-14.0936 -1.20984e-06 0)
(-14.0803 -1.19782e-06 0)
(-14.067 -1.17426e-06 0)
(-14.054 -1.16467e-06 0)
(-14.0407 -1.14784e-06 0)
(-14.0278 -1.12881e-06 0)
(-14.0146 -1.12881e-06 0)
(-14.0014 -1.12175e-06 0)
(-13.9881 -1.11004e-06 0)
(-13.9749 -1.08589e-06 0)
(-13.9619 -1.07181e-06 0)
(-13.9488 -1.04524e-06 0)
(-13.9361 -1.02495e-06 0)
(-13.9232 -1.02718e-06 0)
(-13.9102 -1.02809e-06 0)
(-13.897 -1.01722e-06 0)
(-13.8841 -9.89126e-07 0)
(-13.8713 -9.64341e-07 0)
(-13.8587 -9.55799e-07 0)
(-13.8459 -9.50955e-07 0)
(-13.8332 -9.31878e-07 0)
(-13.8206 -9.2339e-07 0)
(-13.8078 -9.09391e-07 0)
(-13.7953 -8.80932e-07 0)
(-13.7831 -8.62185e-07 0)
(-13.7709 -8.48602e-07 0)
(-13.7588 -8.56122e-07 0)
(-13.7461 -8.50819e-07 0)
(-13.7338 -8.37786e-07 0)
(-13.7212 -8.31502e-07 0)
(-13.7089 -8.31674e-07 0)
(-13.696 -8.32311e-07 0)
(-13.6834 -8.05574e-07 0)
(-13.6712 -7.83367e-07 0)
(-13.659 -7.61771e-07 0)
(-13.6471 -7.60737e-07 0)
(-13.6347 -7.64731e-07 0)
(-13.6224 -7.50377e-07 0)
(-13.6102 -7.43043e-07 0)
(-13.5979 -7.43455e-07 0)
(-13.5854 -7.19994e-07 0)
(-13.5736 -7.04632e-07 0)
(-13.5613 -6.98296e-07 0)
(-13.5496 -6.73683e-07 0)
(-13.5379 -6.71482e-07 0)
(-13.5259 -6.55143e-07 0)
(-13.5146 -6.4297e-07 0)
(-13.5027 -6.64021e-07 0)
(-13.4904 -6.77657e-07 0)
(-13.4778 -6.72173e-07 0)
(-13.4654 -6.40056e-07 0)
(-13.4538 -6.15831e-07 0)
(-13.442 -6.10286e-07 0)
(-13.4303 -6.03399e-07 0)
(-13.4186 -6.04199e-07 0)
(-13.4066 -5.95502e-07 0)
(-13.395 -5.78962e-07 0)
(-13.3834 -5.79883e-07 0)
(-13.3715 -5.75282e-07 0)
(-13.3599 -5.59119e-07 0)
(-13.3484 -5.42291e-07 0)
(-13.3372 -5.39566e-07 0)
(-13.3255 -5.3514e-07 0)
(-13.3143 -5.2504e-07 0)
(-13.3028 -5.14248e-07 0)
(-13.2919 -5.07505e-07 0)
(-13.2804 -5.12843e-07 0)
(-13.269 -5.07812e-07 0)
(-13.2575 -4.97846e-07 0)
(-13.2462 -4.85667e-07 0)
(-13.2351 -4.799e-07 0)
(-13.2238 -4.75549e-07 0)
(-13.2127 -4.7186e-07 0)
(-13.2013 -4.62316e-07 0)
(-13.1904 -4.54521e-07 0)
(-13.1792 -4.60553e-07 0)
(-13.1677 -4.50062e-07 0)
(-13.1568 -4.3545e-07 0)
(-13.1458 -4.37025e-07 0)
(-13.1346 -4.44919e-07 0)
(-13.1229 -4.37537e-07 0)
(-13.1119 -4.13448e-07 0)
(-13.1012 -4.03235e-07 0)
(-13.0905 -3.94728e-07 0)
(-13.0801 -3.81783e-07 0)
(-13.0698 -3.8142e-07 0)
(-13.0592 -3.83583e-07 0)
(-13.0485 -3.76914e-07 0)
(-13.0381 -3.72761e-07 0)
(-13.0274 -3.661e-07 0)
(-13.0171 -3.56682e-07 0)
(-13.0068 -3.56727e-07 0)
(-12.9962 -3.54269e-07 0)
(-12.9858 -3.46102e-07 0)
(-12.9755 -3.45832e-07 0)
(-12.9649 -3.41741e-07 0)
(-12.9546 -3.33856e-07 0)
(-12.9443 -3.3355e-07 0)
(-12.9338 -3.26673e-07 0)
(-12.9226 -3.16098e-07 0)
(-12.9104 -3.10792e-07 0)
(-12.8983 -3.04387e-07 0)
(-12.8866 -3.01643e-07 0)
(-12.8748 -2.97003e-07 0)
(-12.8634 -2.88952e-07 0)
(-12.8522 -2.84748e-07 0)
(-12.8412 -2.76975e-07 0)
(-12.8306 -2.70736e-07 0)
(-12.8201 -2.739e-07 0)
(-12.8093 -2.74262e-07 0)
(-12.7987 -2.65894e-07 0)
(-12.7886 -2.57912e-07 0)
(-12.7786 -2.51109e-07 0)
(-12.769 -2.42057e-07 0)
(-12.7598 -2.43486e-07 0)
(-12.75 -2.42489e-07 0)
(-12.7409 -2.37076e-07 0)
(-12.7315 -2.36185e-07 0)
(-12.7224 -2.29273e-07 0)
(-12.7136 -2.24897e-07 0)
(-12.7049 -2.33154e-07 0)
(-12.6954 -2.36662e-07 0)
(-12.6864 -2.25232e-07 0)
(-12.6779 -2.14767e-07 0)
(-12.6697 -2.01277e-07 0)
(-12.6622 -2.02775e-07 0)
(-12.6539 -2.05584e-07 0)
(-12.6461 -2.0162e-07 0)
(-12.6381 -2.03949e-07 0)
(-12.6302 -1.99362e-07 0)
(-12.6226 -1.84585e-07 0)
(-12.6159 -1.71365e-07 0)
(-12.6093 -1.71596e-07 0)
(-12.6025 -1.74377e-07 0)
(-12.5957 -1.81389e-07 0)
(-12.5884 -1.86841e-07 0)
(-12.5811 -1.90195e-07 0)
(-12.5735 -1.89999e-07 0)
(-12.5663 -1.85755e-07 0)
(-12.559 -1.86771e-07 0)
(-12.5517 -1.81346e-07 0)
(-12.5448 -1.77453e-07 0)
(-12.5378 -1.75175e-07 0)
(-12.5312 -1.67909e-07 0)
(-12.5247 -1.68649e-07 0)
(-12.518 -1.70437e-07 0)
(-12.5114 -1.69317e-07 0)
(-12.5048 -1.67881e-07 0)
(-12.4983 -1.61175e-07 0)
(-12.4922 -1.49008e-07 0)
(-12.4867 -1.45094e-07 0)
(-12.4809 -1.5349e-07 0)
(-12.4747 -1.47829e-07 0)
(-12.4694 -1.47862e-07 0)
(-12.4632 -1.50418e-07 0)
(-12.4577 -1.51199e-07 0)
(-12.4514 -1.52457e-07 0)
(-12.4458 -1.48578e-07 0)
(-12.4398 -1.42768e-07 0)
(-12.4346 -1.35242e-07 0)
(-12.4293 -1.35649e-07 0)
(-12.4241 -1.36342e-07 0)
(-12.4187 -1.36821e-07 0)
(-12.4134 -1.38631e-07 0)
(-12.4078 -1.43946e-07 0)
(-12.4021 -1.39713e-07 0)
(-12.3969 -1.26765e-07 0)
(-12.3922 -1.30564e-07 0)
(-12.3867 -1.33424e-07 0)
(-12.3818 -1.19302e-07 0)
(-12.3774 -1.17834e-07 0)
(-12.3726 -1.18913e-07 0)
(-12.3682 -1.17095e-07 0)
(-12.3635 -1.19356e-07 0)
(-12.3589 -1.17195e-07 0)
(-12.3544 -1.20389e-07 0)
(-12.3495 -1.22657e-07 0)
(-12.3448 -1.27482e-07 0)
(-12.3395 -1.27129e-07 0)
(-12.3349 -1.1152e-07 0)
(-12.3308 -1.05598e-07 0)
(-12.3267 -1.04633e-07 0)
(-12.3227 -1.07324e-07 0)
(-12.3183 -1.17415e-07 0)
(-12.3135 -1.20302e-07 0)
(-12.3089 -1.18787e-07 0)
(-12.3042 -1.21681e-07 0)
(-12.2994 -1.24479e-07 0)
(-12.2945 -1.2281e-07 0)
(-12.2899 -1.09813e-07 0)
(-12.286 -1.31627e-07 0)
(-12.2795 -9.25864e-08 0)
(-12.2789 -1.23159e-07 0)
(-12.2698 -1.18405e-07 0)
)
;
    }
    symmetry
    {
        type            symmetryPlane;
    }
    frontAndBack
    {
        type            empty;
    }
}


// ************************************************************************* //
