/*--------------------------------*- C++ -*----------------------------------*\
| =========                 |                                                 |
| \\      /  F ield         | OpenFOAM: The Open Source CFD Toolbox           |
|  \\    /   O peration     | Version:  v2012                                 |
|   \\  /    A nd           | Website:  www.openfoam.com                      |
|    \\/     M anipulation  |                                                 |
\*---------------------------------------------------------------------------*/
FoamFile
{
    version     2.0;
    format      ascii;
    class       volScalarField;
    location    "17";
    object      yPlus;
}
// * * * * * * * * * * * * * * * * * * * * * * * * * * * * * * * * * * * * * //

dimensions      [0 0 0 0 0 0 0];


internalField   uniform 0;

boundaryField
{
    inlet
    {
        type            calculated;
        value           uniform 0;
    }
    outlet
    {
        type            calculated;
        value           uniform 0;
    }
    topWall
    {
        type            calculated;
        value           nonuniform List<scalar> 
545
(
0.11903
0.205295
0.263342
0.309513
0.348562
0.382709
0.413188
0.440776
0.466003
0.489249
0.5108
0.530875
0.549652
0.567272
0.583853
0.599495
0.614282
0.628286
0.641571
0.654191
0.666196
0.677628
0.688527
0.698927
0.70886
0.718356
0.727439
0.736134
0.744463
0.752446
0.760101
0.767447
0.774499
0.781272
0.78778
0.794036
0.800053
0.80584
0.81141
0.816773
0.821937
0.826912
0.831705
0.836326
0.840781
0.845077
0.849222
0.853221
0.857081
0.860807
0.864404
0.867879
0.871235
0.874478
0.877611
0.88064
0.883568
0.886399
0.889136
0.891783
0.894344
0.896822
0.899219
0.901539
0.903785
0.905959
0.908063
0.910101
0.912074
0.913985
0.915836
0.917629
0.919343
0.920999
0.922641
0.924268
0.92588
0.927478
0.929062
0.930632
0.932188
0.933731
0.935259
0.936775
0.938277
0.939765
0.941241
0.942704
0.944154
0.945591
0.947016
0.948429
0.949829
0.951217
0.952593
0.953959
0.955181
0.956273
0.957365
0.958455
0.959544
0.960632
0.96172
0.962806
0.963891
0.964976
0.966059
0.967142
0.968223
0.969303
0.970382
0.97146
0.972537
0.973613
0.974688
0.975762
0.976834
0.977905
0.978976
0.980045
0.981113
0.982179
0.983245
0.984309
0.985372
0.986434
0.987494
0.988554
0.989611
0.990668
0.991723
0.992778
0.99383
0.994882
0.995932
0.99698
0.998027
0.999073
1.00012
1.00116
1.0022
1.00324
1.00428
1.00532
1.00635
1.00739
1.00842
1.00945
1.01048
1.01151
1.01254
1.01356
1.01458
1.01561
1.01663
1.01764
1.01866
1.01968
1.02069
1.0217
1.02271
1.02372
1.02473
1.02573
1.02673
1.02773
1.02873
1.02973
1.03073
1.03172
1.03271
1.0337
1.03469
1.03568
1.03666
1.03764
1.03862
1.0396
1.04058
1.04155
1.04252
1.04349
1.04446
1.04543
1.04639
1.04736
1.04832
1.04927
1.05023
1.05118
1.05213
1.05308
1.05403
1.05497
1.05592
1.05686
1.05779
1.05873
1.05966
1.06059
1.06152
1.06245
1.06337
1.06429
1.06521
1.06613
1.06704
1.06795
1.06886
1.06977
1.07067
1.07158
1.07247
1.07337
1.07426
1.07516
1.07604
1.07693
1.07781
1.07869
1.07957
1.08045
1.08132
1.08219
1.08306
1.08392
1.08478
1.08564
1.0865
1.08735
1.0882
1.08905
1.08989
1.09073
1.09157
1.0924
1.09324
1.09407
1.09489
1.09571
1.09653
1.09735
1.09817
1.09898
1.09978
1.10059
1.10139
1.10219
1.10298
1.10377
1.10456
1.10535
1.10613
1.10691
1.10768
1.10846
1.10922
1.10999
1.11075
1.11151
1.11226
1.11302
1.11376
1.11451
1.11525
1.11599
1.11672
1.11745
1.11818
1.11886
1.1195
1.12014
1.12078
1.12143
1.12208
1.12273
1.12339
1.12405
1.12471
1.12537
1.12603
1.1267
1.12737
1.12805
1.12872
1.1294
1.13007
1.13076
1.13144
1.13212
1.13281
1.13349
1.13418
1.13487
1.13556
1.13625
1.13695
1.13764
1.13834
1.13903
1.13973
1.14042
1.14112
1.14182
1.14251
1.14321
1.1439
1.1446
1.14529
1.14599
1.14668
1.14737
1.14806
1.14875
1.14944
1.15012
1.15081
1.15149
1.15217
1.15284
1.15352
1.15419
1.15486
1.15552
1.15618
1.15684
1.15749
1.15814
1.15878
1.15942
1.16005
1.16068
1.1613
1.16192
1.16253
1.16314
1.16374
1.16433
1.16491
1.16549
1.16606
1.16662
1.16717
1.16771
1.16825
1.16878
1.16929
1.1698
1.17029
1.17078
1.17125
1.17172
1.17217
1.17261
1.17303
1.17345
1.17385
1.17424
1.17461
1.17497
1.17532
1.17565
1.17596
1.17626
1.17655
1.17681
1.17706
1.1773
1.17751
1.17771
1.17789
1.17805
1.17819
1.17831
1.17841
1.17849
1.17855
1.17859
1.1786
1.1786
1.17857
1.17852
1.17844
1.17834
1.17822
1.17807
1.1779
1.1777
1.17747
1.17722
1.17695
1.17664
1.17631
1.17595
1.17556
1.17514
1.1747
1.17422
1.17371
1.17318
1.17261
1.17201
1.17139
1.17073
1.17003
1.16931
1.16855
1.16777
1.16694
1.16609
1.1652
1.16428
1.16332
1.16233
1.1613
1.16024
1.15915
1.15802
1.15685
1.15565
1.15442
1.15315
1.15184
1.1505
1.14912
1.14771
1.14626
1.14478
1.14326
1.14171
1.14012
1.13849
1.13683
1.13514
1.13341
1.13165
1.12985
1.12802
1.12616
1.12426
1.12233
1.12037
1.11837
1.11634
1.11428
1.11219
1.11007
1.10792
1.10573
1.10352
1.10103
1.09828
1.09553
1.09277
1.09001
1.08726
1.0845
1.08175
1.079
1.07625
1.07352
1.07079
1.06807
1.06536
1.06267
1.05998
1.05731
1.05466
1.05201
1.04939
1.04678
1.04419
1.04162
1.03907
1.03653
1.03402
1.03153
1.02907
1.02662
1.0242
1.0218
1.01943
1.01708
1.01476
1.01246
1.01019
1.00794
1.00573
1.00354
1.00139
0.999254
0.997157
0.995085
0.993048
0.991038
0.989063
0.987116
0.985205
0.983322
0.981476
0.979659
0.977879
0.976129
0.974418
0.972737
0.971094
0.969483
0.967911
0.966372
0.964872
0.963404
0.961977
0.960584
0.959231
0.957912
0.956634
0.955392
0.954191
0.953025
0.951901
0.950814
0.949769
0.948761
0.947795
0.946868
0.945982
0.945136
0.944332
0.943568
0.942846
0.942165
0.941526
0.940929
0.940375
0.939862
0.939393
0.938966
0.938582
0.93824
0.937941
0.937683
0.937467
0.937288
0.93717
0.937021
)
;
    }
    bottomWall
    {
        type            calculated;
        value           nonuniform List<scalar> 
449
(
0.00275288
0.00482455
0.00539486
0.00534587
0.00527437
0.00517643
0.0050742
0.00497872
0.00489352
0.00481756
0.00474866
0.00468494
0.00462514
0.00456854
0.00451483
0.00446368
0.00441502
0.00436866
0.00432446
0.00428237
0.00424219
0.00420385
0.00416727
0.00413224
0.00409877
0.00406674
0.00403608
0.00400663
0.00397843
0.00395121
0.00392513
0.00389999
0.00387587
0.00385253
0.0038301
0.00380831
0.0037874
0.00376708
0.0037475
0.00372849
0.00371012
0.0036923
0.00367499
0.00365821
0.00364187
0.00362605
0.00361058
0.00359565
0.00358099
0.00356686
0.00355298
0.00353962
0.00352639
0.00351367
0.00350112
0.003489
0.00347704
0.00346544
0.00345403
0.00344294
0.00343202
0.00342141
0.00341093
0.00340075
0.00339074
0.00338099
0.00337137
0.00336198
0.00335274
0.0033437
0.00333476
0.00332604
0.00331746
0.00330907
0.00330077
0.00329266
0.00328463
0.00327678
0.003269
0.00326143
0.00325396
0.00324665
0.00323941
0.00323228
0.00322523
0.00321833
0.00321153
0.0032049
0.00319828
0.00319179
0.00318535
0.00317903
0.0031728
0.00316667
0.00316061
0.00315468
0.00314882
0.00314302
0.00313729
0.00313163
0.00312606
0.00312057
0.00311512
0.00310976
0.00310448
0.00309928
0.00309411
0.00308907
0.003084
0.00307905
0.00307409
0.00306922
0.0030644
0.00305966
0.00305499
0.0030504
0.00304588
0.00304137
0.00303691
0.00303252
0.00302818
0.00302384
0.00301955
0.0030153
0.00301108
0.00300693
0.00300283
0.00299881
0.00299482
0.0029909
0.00298698
0.0029831
0.0029792
0.00297537
0.00297154
0.00296776
0.00296399
0.00296031
0.00295662
0.00295305
0.00294946
0.002946
0.00294254
0.00293915
0.00293576
0.00293242
0.00292909
0.00292574
0.00292247
0.0029192
0.00291599
0.00291273
0.00290958
0.00290641
0.00290329
0.00290023
0.00289719
0.00289419
0.00289121
0.00288829
0.00288534
0.00288244
0.00287952
0.00287662
0.00287374
0.00287095
0.00286817
0.00286543
0.00286272
0.00286005
0.00285739
0.00285476
0.00285211
0.00284963
0.00284724
0.00284486
0.00284248
0.0028401
0.00283768
0.00283535
0.00283294
0.00283055
0.00282815
0.00282576
0.00282336
0.00282101
0.00281867
0.00281638
0.00281401
0.00281165
0.00280922
0.00280687
0.00280447
0.00280205
0.00279969
0.00279734
0.00279501
0.00279265
0.00279032
0.00278797
0.00278562
0.00278325
0.00278088
0.00277848
0.00277609
0.00277368
0.00277123
0.00276878
0.00276636
0.00276394
0.00276155
0.00275916
0.00275685
0.00275453
0.00275222
0.00274989
0.00274761
0.00274532
0.00274306
0.00274073
0.0027384
0.00273606
0.00273367
0.0027313
0.0027289
0.0027265
0.00272415
0.0027217
0.00271937
0.00271699
0.00271459
0.00271223
0.00270981
0.00270739
0.00270501
0.00270255
0.0027001
0.00269761
0.00269525
0.00269288
0.00269059
0.00268831
0.00268606
0.00268373
0.00268142
0.00267911
0.00267674
0.00267437
0.00267205
0.00266968
0.00266735
0.00266496
0.00266259
0.00266026
0.00265794
0.00265557
0.00265321
0.00265084
0.00264853
0.00264614
0.00264385
0.00264149
0.00263912
0.00263673
0.00263436
0.00263203
0.00262968
0.00262745
0.00262514
0.00262282
0.00262043
0.0026181
0.00261582
0.00261357
0.00261127
0.00260898
0.00260673
0.00260442
0.0026022
0.00260001
0.00259785
0.00259569
0.0025934
0.0025912
0.00258893
0.00258672
0.00258437
0.00258207
0.00257985
0.00257767
0.00257554
0.00257329
0.00257107
0.00256887
0.00256664
0.00256436
0.00256226
0.00256003
0.00255792
0.00255584
0.00255368
0.00255168
0.00254956
0.00254729
0.00254496
0.00254268
0.00254059
0.00253848
0.00253638
0.00253426
0.00253208
0.00252999
0.00252791
0.00252572
0.0025236
0.0025215
0.00251948
0.00251735
0.00251532
0.00251323
0.00251126
0.00250918
0.00250709
0.00250499
0.00250295
0.00250094
0.00249891
0.00249688
0.00249482
0.00249284
0.0024908
0.00248868
0.00248671
0.0024847
0.00248264
0.00248047
0.00247844
0.00247651
0.00247455
0.00247266
0.0024708
0.00246884
0.00246689
0.00246496
0.00246299
0.00246111
0.00245923
0.00245728
0.00245538
0.0024535
0.00245154
0.00244966
0.00244776
0.00244582
0.00244374
0.00244149
0.00243927
0.00243713
0.00243496
0.0024329
0.00243088
0.00242888
0.00242697
0.00242506
0.00242305
0.00242111
0.00241924
0.00241742
0.00241566
0.00241398
0.00241218
0.0024105
0.00240878
0.00240709
0.00240549
0.00240388
0.0024021
0.00240041
0.00239884
0.00239735
0.00239601
0.00239448
0.00239305
0.00239157
0.0023901
0.00238866
0.00238742
0.00238622
0.00238497
0.00238372
0.00238235
0.002381
0.00237957
0.00237823
0.00237688
0.00237552
0.00237428
0.00237298
0.00237177
0.0023706
0.00236935
0.00236812
0.00236688
0.00236566
0.00236453
0.00236354
0.00236246
0.0023613
0.00236034
0.00235919
0.00235817
0.00235699
0.00235594
0.00235482
0.00235387
0.00235288
0.00235191
0.00235089
0.00234991
0.00234886
0.00234778
0.00234681
0.00234596
0.00234492
0.00234401
0.0023432
0.0023423
0.00234148
0.00234063
0.00233977
0.00233895
0.00233804
0.00233717
0.00233616
0.00233532
0.00233457
0.0023338
0.00233307
0.00233225
0.00233134
0.00233049
0.00232962
0.00232872
0.00232779
0.00232696
0.00232619
0.00232507
0.00232477
0.00232322
)
;
    }
    symmetry
    {
        type            symmetryPlane;
    }
    frontAndBack
    {
        type            empty;
    }
}


// ************************************************************************* //
