/*--------------------------------*- C++ -*----------------------------------*\
| =========                 |                                                 |
| \\      /  F ield         | OpenFOAM: The Open Source CFD Toolbox           |
|  \\    /   O peration     | Version:  v2012                                 |
|   \\  /    A nd           | Website:  www.openfoam.com                      |
|    \\/     M anipulation  |                                                 |
\*---------------------------------------------------------------------------*/
FoamFile
{
    version     2.0;
    format      ascii;
    class       volScalarField;
    location    "53";
    object      k;
}
// * * * * * * * * * * * * * * * * * * * * * * * * * * * * * * * * * * * * * //

dimensions      [0 2 -2 0 0 0 0];


internalField   nonuniform List<scalar> 
209825
(
0.00102397
0.000932246
0.000856341
0.000792949
0.000740286
0.000696698
0.000660784
0.000631065
0.000606423
0.000585782
0.000568426
0.00055366
0.000541055
0.000530171
0.000520752
0.000512516
0.000505299
0.000498924
0.000493275
0.000488245
0.000483741
0.000479705
0.000476057
0.000472774
0.000469777
0.000467074
0.000464582
0.000462332
0.000460239
0.000458349
0.000456571
0.000454972
0.000453451
0.000452088
0.000450775
0.000449607
0.000448469
0.000447461
0.000446467
0.000445594
0.000444722
0.000443963
0.000443193
0.000442532
0.000441852
0.000441273
0.000440668
0.000440162
0.000439623
0.000439179
0.000438696
0.000438306
0.000437869
0.000437529
0.000437138
0.000436837
0.000436488
0.000436222
0.00043591
0.000435673
0.000435395
0.000435185
0.000434934
0.000434752
0.000434522
0.000434361
0.000434156
0.000434016
0.00043383
0.000433703
0.000433534
0.000433422
0.000433277
0.000433183
0.00043305
0.000432963
0.000432837
0.000432755
0.000432635
0.000432558
0.000432445
0.000432374
0.000432271
0.000432207
0.000432113
0.000432058
0.000431978
0.000431923
0.000431859
0.000431814
0.000431691
0.000431673
0.000431797
0.000438746
0.000461018
0.00111392
0.00102397
0.000932246
0.000856341
0.000792949
0.000740286
0.000696697
0.000660783
0.000631063
0.00060642
0.000585779
0.000568422
0.000553655
0.00054105
0.000530166
0.000520746
0.000512509
0.000505292
0.000498916
0.000493268
0.000488237
0.000483733
0.000479697
0.000476048
0.000472766
0.000469768
0.000467065
0.000464573
0.000462323
0.000460229
0.000458339
0.000456561
0.000454962
0.000453441
0.000452077
0.000450765
0.000449597
0.000448458
0.000447451
0.000446456
0.000445583
0.000444712
0.000443952
0.000443182
0.000442521
0.000441841
0.000441262
0.000440657
0.00044015
0.000439611
0.000439167
0.000438684
0.000438295
0.000437858
0.000437518
0.000437126
0.000436826
0.000436476
0.00043621
0.000435898
0.000435661
0.000435383
0.000435174
0.000434922
0.00043474
0.00043451
0.000434349
0.000434145
0.000434004
0.000433818
0.000433691
0.000433522
0.00043341
0.000433265
0.000433171
0.000433038
0.000432951
0.000432825
0.000432743
0.000432623
0.000432546
0.000432433
0.000432362
0.000432259
0.000432195
0.000432101
0.000432046
0.000431966
0.00043191
0.000431846
0.000431802
0.000431679
0.000431661
0.000431785
0.000438747
0.000461012
0.00111455
0.00102397
0.000932246
0.000856341
0.000792949
0.000740285
0.000696694
0.000660777
0.000631054
0.000606408
0.000585764
0.000568405
0.000553635
0.000541028
0.000530142
0.00052072
0.000512482
0.000505263
0.000498886
0.000493236
0.000488204
0.000483699
0.000479662
0.000476013
0.000472729
0.000469731
0.000467027
0.000464534
0.000462284
0.000460189
0.000458299
0.000456521
0.000454921
0.000453399
0.000452035
0.000450723
0.000449554
0.000448416
0.000447408
0.000446413
0.00044554
0.000444668
0.000443908
0.000443138
0.000442477
0.000441796
0.000441217
0.000440612
0.000440105
0.000439566
0.000439122
0.000438638
0.000438249
0.000437812
0.000437472
0.00043708
0.000436779
0.00043643
0.000436163
0.000435851
0.000435615
0.000435336
0.000435127
0.000434875
0.000434693
0.000434463
0.000434302
0.000434097
0.000433957
0.00043377
0.000433643
0.000433474
0.000433363
0.000433217
0.000433123
0.00043299
0.000432903
0.000432777
0.000432695
0.000432575
0.000432497
0.000432385
0.000432314
0.00043221
0.000432147
0.000432053
0.000431997
0.000431917
0.000431862
0.000431798
0.000431753
0.00043163
0.000431612
0.000431737
0.000438724
0.000460976
0.00111581
0.00102397
0.000932246
0.000856342
0.00079295
0.000740283
0.000696689
0.000660767
0.000631039
0.000606388
0.00058574
0.000568376
0.000553602
0.000540991
0.000530101
0.000520676
0.000512435
0.000505214
0.000498835
0.000493183
0.000488149
0.000483642
0.000479604
0.000475953
0.000472668
0.000469669
0.000466963
0.000464469
0.000462218
0.000460123
0.000458231
0.000456452
0.000454852
0.00045333
0.000451965
0.000450652
0.000449483
0.000448344
0.000447336
0.000446341
0.000445466
0.000444594
0.000443834
0.000443064
0.000442402
0.000441721
0.000441142
0.000440536
0.00044003
0.00043949
0.000439046
0.000438562
0.000438172
0.000437735
0.000437394
0.000437002
0.000436702
0.000436352
0.000436085
0.000435773
0.000435536
0.000435258
0.000435048
0.000434796
0.000434614
0.000434384
0.000434223
0.000434018
0.000433877
0.000433691
0.000433564
0.000433395
0.000433283
0.000433137
0.000433043
0.00043291
0.000432823
0.000432697
0.000432614
0.000432494
0.000432417
0.000432304
0.000432233
0.000432129
0.000432066
0.000431971
0.000431916
0.000431836
0.00043178
0.000431716
0.000431672
0.000431548
0.00043153
0.000431656
0.000438683
0.000460913
0.00111742
0.00102397
0.000932246
0.000856344
0.000792951
0.000740281
0.000696682
0.000660754
0.000631018
0.00060636
0.000585705
0.000568334
0.000553555
0.000540938
0.000530044
0.000520615
0.00051237
0.000505145
0.000498762
0.000493107
0.000488071
0.000483562
0.000479521
0.000475868
0.000472581
0.00046958
0.000466873
0.000464378
0.000462126
0.000460029
0.000458136
0.000456356
0.000454755
0.000453232
0.000451867
0.000450553
0.000449383
0.000448243
0.000447234
0.000446238
0.000445363
0.000444491
0.00044373
0.000442959
0.000442297
0.000441615
0.000441036
0.00044043
0.000439923
0.000439383
0.000438938
0.000438454
0.000438064
0.000437626
0.000437286
0.000436893
0.000436592
0.000436242
0.000435975
0.000435663
0.000435426
0.000435147
0.000434937
0.000434685
0.000434502
0.000434272
0.000434111
0.000433906
0.000433765
0.000433579
0.000433451
0.000433282
0.00043317
0.000433024
0.00043293
0.000432797
0.00043271
0.000432583
0.000432501
0.000432381
0.000432303
0.00043219
0.000432119
0.000432015
0.000431951
0.000431857
0.000431801
0.000431721
0.000431665
0.000431601
0.000431556
0.000431433
0.000431415
0.000431542
0.000438624
0.000460823
0.00111924
0.00102397
0.000932247
0.000856346
0.000792952
0.000740279
0.000696672
0.000660736
0.000630991
0.000606324
0.000585659
0.000568281
0.000553494
0.00054087
0.000529969
0.000520535
0.000512285
0.000505055
0.000498668
0.00049301
0.00048797
0.000483458
0.000479414
0.000475759
0.000472469
0.000469466
0.000466757
0.00046426
0.000462006
0.000459907
0.000458013
0.000456232
0.00045463
0.000453105
0.000451738
0.000450423
0.000449252
0.000448112
0.000447102
0.000446105
0.00044523
0.000444356
0.000443595
0.000442823
0.000442161
0.000441478
0.000440898
0.000440292
0.000439784
0.000439243
0.000438798
0.000438314
0.000437924
0.000437485
0.000437144
0.000436752
0.00043645
0.0004361
0.000435833
0.00043552
0.000435282
0.000435004
0.000434793
0.000434541
0.000434358
0.000434128
0.000433966
0.000433761
0.00043362
0.000433433
0.000433306
0.000433136
0.000433024
0.000432878
0.000432784
0.00043265
0.000432563
0.000432436
0.000432354
0.000432233
0.000432155
0.000432042
0.000431971
0.000431867
0.000431803
0.000431708
0.000431653
0.000431572
0.000431516
0.000431452
0.000431407
0.000431283
0.000431265
0.000431394
0.000438547
0.000460707
0.00112121
0.00102397
0.000932247
0.000856348
0.000792953
0.000740275
0.000696661
0.000660714
0.000630958
0.000606279
0.000585603
0.000568215
0.000553418
0.000540786
0.000529878
0.000520436
0.00051218
0.000504945
0.000498553
0.00049289
0.000487845
0.000483329
0.000479282
0.000475623
0.000472331
0.000469325
0.000466614
0.000464114
0.000461858
0.000459757
0.000457862
0.000456079
0.000454475
0.000452948
0.000451581
0.000450264
0.000449092
0.00044795
0.000446939
0.000445941
0.000445065
0.000444191
0.000443429
0.000442656
0.000441993
0.00044131
0.000440729
0.000440122
0.000439613
0.000439072
0.000438626
0.000438141
0.000437751
0.000437312
0.00043697
0.000436577
0.000436275
0.000435924
0.000435657
0.000435344
0.000435106
0.000434827
0.000434616
0.000434363
0.00043418
0.000433949
0.000433788
0.000433582
0.000433441
0.000433254
0.000433126
0.000432956
0.000432844
0.000432698
0.000432603
0.000432469
0.000432382
0.000432255
0.000432172
0.000432051
0.000431974
0.00043186
0.000431789
0.000431684
0.00043162
0.000431525
0.00043147
0.000431389
0.000431333
0.000431268
0.000431223
0.000431099
0.000431081
0.000431211
0.000438454
0.000460565
0.00112325
0.00102397
0.000932248
0.00085635
0.000792955
0.000740271
0.000696647
0.000660687
0.000630918
0.000606225
0.000585537
0.000568136
0.000553328
0.000540686
0.000529769
0.000520319
0.000512055
0.000504813
0.000498415
0.000492746
0.000487697
0.000483176
0.000479125
0.000475462
0.000472167
0.000469157
0.000466443
0.000463941
0.000461682
0.000459579
0.000457681
0.000455896
0.00045429
0.000452762
0.000451392
0.000450074
0.000448901
0.000447757
0.000446745
0.000445746
0.000444869
0.000443993
0.00044323
0.000442457
0.000441792
0.000441108
0.000440527
0.000439919
0.00043941
0.000438867
0.000438421
0.000437935
0.000437544
0.000437105
0.000436763
0.000436369
0.000436067
0.000435715
0.000435447
0.000435133
0.000434895
0.000434615
0.000434405
0.000434151
0.000433968
0.000433737
0.000433575
0.000433369
0.000433227
0.00043304
0.000432912
0.000432742
0.000432629
0.000432482
0.000432388
0.000432254
0.000432166
0.000432039
0.000431956
0.000431835
0.000431757
0.000431643
0.000431571
0.000431467
0.000431402
0.000431307
0.000431251
0.00043117
0.000431114
0.000431048
0.000431003
0.000430879
0.000430861
0.000430994
0.000438343
0.000460395
0.00112522
0.00102397
0.000932248
0.000856353
0.000792957
0.000740267
0.000696631
0.000660657
0.000630872
0.000606163
0.00058546
0.000568045
0.000553224
0.00054057
0.000529642
0.000520183
0.00051191
0.00050466
0.000498255
0.00049258
0.000487524
0.000482998
0.000478942
0.000475275
0.000471975
0.000468962
0.000466244
0.000463739
0.000461476
0.000459371
0.00045747
0.000455683
0.000454075
0.000452544
0.000451173
0.000449853
0.000448678
0.000447533
0.000446519
0.000445519
0.00044464
0.000443763
0.000442999
0.000442224
0.000441559
0.000440874
0.000440291
0.000439682
0.000439172
0.000438629
0.000438182
0.000437696
0.000437304
0.000436864
0.000436521
0.000436126
0.000435824
0.000435471
0.000435203
0.000434889
0.00043465
0.00043437
0.000434158
0.000433904
0.000433721
0.000433489
0.000433327
0.00043312
0.000432978
0.00043279
0.000432662
0.000432492
0.000432379
0.000432232
0.000432137
0.000432002
0.000431914
0.000431787
0.000431704
0.000431582
0.000431504
0.00043139
0.000431318
0.000431213
0.000431149
0.000431053
0.000430996
0.000430915
0.000430859
0.000430793
0.000430748
0.000430623
0.000430605
0.00043074
0.000438217
0.000460198
0.00112692
0.00102397
0.000932249
0.000856357
0.00079296
0.000740262
0.000696613
0.000660623
0.000630819
0.000606093
0.000585372
0.000567941
0.000553105
0.000540438
0.000529497
0.000520027
0.000511744
0.000504486
0.000498072
0.000492389
0.000487327
0.000482795
0.000478733
0.000475061
0.000471756
0.000468739
0.000466017
0.000463508
0.000461242
0.000459133
0.00045723
0.000455439
0.000453829
0.000452296
0.000450922
0.0004496
0.000448423
0.000447276
0.000446261
0.000445259
0.000444378
0.0004435
0.000442734
0.000441958
0.000441292
0.000440606
0.000440022
0.000439412
0.000438901
0.000438357
0.000437909
0.000437421
0.000437029
0.000436588
0.000436244
0.000435849
0.000435545
0.000435193
0.000434924
0.000434609
0.000434369
0.000434088
0.000433877
0.000433622
0.000433438
0.000433206
0.000433043
0.000432836
0.000432694
0.000432505
0.000432377
0.000432206
0.000432093
0.000431945
0.00043185
0.000431715
0.000431627
0.000431499
0.000431415
0.000431293
0.000431215
0.0004311
0.000431028
0.000430923
0.000430858
0.000430762
0.000430705
0.000430623
0.000430567
0.0004305
0.000430455
0.00043033
0.000430312
0.000430451
0.000438075
0.000459975
0.00112805
0.00102397
0.00093225
0.000856361
0.000792962
0.000740257
0.000696593
0.000660584
0.000630761
0.000606014
0.000585273
0.000567824
0.000552972
0.000540289
0.000529335
0.000519852
0.000511558
0.000504289
0.000497866
0.000492175
0.000487105
0.000482566
0.000478497
0.000474819
0.000471509
0.000468487
0.00046576
0.000463247
0.000460977
0.000458865
0.000456958
0.000455165
0.000453551
0.000452016
0.00045064
0.000449315
0.000448136
0.000446987
0.000445969
0.000444965
0.000444083
0.000443203
0.000442436
0.000441659
0.000440991
0.000440303
0.000439718
0.000439107
0.000438595
0.000438049
0.000437601
0.000437112
0.000436719
0.000436276
0.000435932
0.000435536
0.000435232
0.000434878
0.000434608
0.000434292
0.000434053
0.000433771
0.000433559
0.000433303
0.000433119
0.000432886
0.000432723
0.000432515
0.000432372
0.000432183
0.000432054
0.000431883
0.00043177
0.000431621
0.000431526
0.00043139
0.000431302
0.000431174
0.00043109
0.000430967
0.000430888
0.000430774
0.000430701
0.000430595
0.00043053
0.000430434
0.000430376
0.000430294
0.000430237
0.00043017
0.000430125
0.000429999
0.000429981
0.000430124
0.000437917
0.000459723
0.0011282
0.00102397
0.00093225
0.000856365
0.000792965
0.000740251
0.000696571
0.000660541
0.000630695
0.000605926
0.000585163
0.000567694
0.000552823
0.000540123
0.000529153
0.000519656
0.00051135
0.00050407
0.000497636
0.000491936
0.000486857
0.00048231
0.000478235
0.00047455
0.000471234
0.000468206
0.000465475
0.000462956
0.000460683
0.000458566
0.000456656
0.000454858
0.000453242
0.000451703
0.000450324
0.000448997
0.000447815
0.000446664
0.000445644
0.000444638
0.000443754
0.000442872
0.000442103
0.000441324
0.000440655
0.000439965
0.000439379
0.000438766
0.000438253
0.000437707
0.000437257
0.000436767
0.000436372
0.000435929
0.000435584
0.000435187
0.000434882
0.000434527
0.000434257
0.00043394
0.000433699
0.000433417
0.000433204
0.000432948
0.000432763
0.000432529
0.000432365
0.000432157
0.000432014
0.000431824
0.000431695
0.000431523
0.000431409
0.00043126
0.000431164
0.000431028
0.000430939
0.000430811
0.000430726
0.000430604
0.000430524
0.000430409
0.000430336
0.00043023
0.000430164
0.000430067
0.00043001
0.000429927
0.00042987
0.000429802
0.000429756
0.00042963
0.000429612
0.000429759
0.000437744
0.000459444
0.00112703
0.00102397
0.000932251
0.00085637
0.000792969
0.000740244
0.000696547
0.000660495
0.000630623
0.000605829
0.000585043
0.000567551
0.000552659
0.00053994
0.000528954
0.000519441
0.000511121
0.000503828
0.000497383
0.000491672
0.000486584
0.000482028
0.000477945
0.000474253
0.00047093
0.000467896
0.000465159
0.000462635
0.000460357
0.000458236
0.000456321
0.00045452
0.0004529
0.000451358
0.000449976
0.000448646
0.000447461
0.000446307
0.000445285
0.000444277
0.00044339
0.000442506
0.000441736
0.000440954
0.000440283
0.000439592
0.000439005
0.00043839
0.000437876
0.000437327
0.000436876
0.000436385
0.00043599
0.000435545
0.000435199
0.000434801
0.000434495
0.000434139
0.000433868
0.00043355
0.000433309
0.000433025
0.000432812
0.000432555
0.000432369
0.000432134
0.00043197
0.000431761
0.000431617
0.000431427
0.000431297
0.000431125
0.00043101
0.000430861
0.000430765
0.000430628
0.000430539
0.000430409
0.000430325
0.000430201
0.000430122
0.000430006
0.000429933
0.000429825
0.00042976
0.000429662
0.000429604
0.000429521
0.000429463
0.000429395
0.000429349
0.000429222
0.000429204
0.000429356
0.000437555
0.000459135
0.00112455
0.00102396
0.000932252
0.000856375
0.000792972
0.000740237
0.00069652
0.000660444
0.000630545
0.000605724
0.000584911
0.000567394
0.00055248
0.000539741
0.000528735
0.000519206
0.00051087
0.000503563
0.000497105
0.000491383
0.000486284
0.000481719
0.000477627
0.000473927
0.000470597
0.000467556
0.000464813
0.000462284
0.00046
0.000457874
0.000455955
0.000454149
0.000452525
0.000450979
0.000449594
0.00044826
0.000447072
0.000445915
0.000444891
0.00044388
0.000442991
0.000442105
0.000441332
0.000440549
0.000439876
0.000439183
0.000438594
0.000437977
0.000437461
0.000436912
0.000436459
0.000435966
0.00043557
0.000435124
0.000434777
0.000434377
0.00043407
0.000433713
0.000433441
0.000433122
0.00043288
0.000432595
0.000432381
0.000432123
0.000431937
0.000431702
0.000431537
0.000431327
0.000431182
0.000430992
0.000430861
0.000430688
0.000430573
0.000430423
0.000430326
0.000430189
0.000430099
0.000429969
0.000429884
0.00042976
0.00042968
0.000429563
0.00042949
0.000429382
0.000429316
0.000429217
0.000429159
0.000429075
0.000429017
0.000428948
0.000428902
0.000428774
0.000428756
0.000428914
0.000437351
0.000458798
0.00112076
0.00102396
0.000932253
0.000856381
0.000792977
0.00074023
0.000696492
0.000660389
0.000630461
0.000605609
0.000584768
0.000567224
0.000552285
0.000539524
0.000528497
0.000518949
0.000510597
0.000503275
0.000496803
0.000491068
0.000485958
0.000481383
0.000477281
0.000473572
0.000470234
0.000467186
0.000464436
0.0004619
0.000459611
0.000457479
0.000455555
0.000453745
0.000452116
0.000450566
0.000449177
0.00044784
0.000446649
0.000445489
0.000444461
0.000443448
0.000442557
0.000441667
0.000440893
0.000440107
0.000439432
0.000438737
0.000438146
0.000437527
0.00043701
0.000436458
0.000436005
0.00043551
0.000435112
0.000434665
0.000434316
0.000433915
0.000433607
0.000433249
0.000432976
0.000432656
0.000432413
0.000432127
0.000431912
0.000431653
0.000431466
0.00043123
0.000431064
0.000430853
0.000430708
0.000430517
0.000430386
0.000430212
0.000430096
0.000429945
0.000429848
0.00042971
0.00042962
0.000429489
0.000429403
0.000429279
0.000429198
0.000429081
0.000429007
0.000428898
0.000428832
0.000428733
0.000428674
0.000428589
0.000428531
0.000428461
0.000428414
0.000428286
0.000428268
0.000428432
0.000437131
0.000458429
0.0011157
0.00102396
0.000932254
0.000856387
0.000792981
0.000740222
0.000696462
0.00066033
0.00063037
0.000605486
0.000584613
0.000567041
0.000552075
0.000539289
0.000528241
0.000518673
0.000510302
0.000502963
0.000496477
0.000490728
0.000485606
0.000481019
0.000476907
0.000473189
0.000469842
0.000466786
0.000464028
0.000461485
0.000459189
0.000457052
0.000455122
0.000453307
0.000451674
0.000450119
0.000448726
0.000447385
0.000446191
0.000445027
0.000443996
0.000442979
0.000442085
0.000441193
0.000440416
0.000439628
0.000438951
0.000438253
0.00043766
0.00043704
0.00043652
0.000435967
0.000435512
0.000435015
0.000434616
0.000434167
0.000433817
0.000433415
0.000433105
0.000432746
0.000432472
0.00043215
0.000431906
0.000431619
0.000431403
0.000431143
0.000430955
0.000430718
0.000430552
0.00043034
0.000430194
0.000430002
0.00042987
0.000429695
0.000429579
0.000429428
0.000429329
0.000429191
0.0004291
0.000428968
0.000428882
0.000428757
0.000428676
0.000428558
0.000428483
0.000428374
0.000428307
0.000428207
0.000428148
0.000428062
0.000428004
0.000427933
0.000427886
0.000427756
0.000427739
0.000427909
0.000436896
0.000458029
0.00110939
0.00102396
0.000932255
0.000856393
0.000792986
0.000740214
0.00069643
0.000660266
0.000630272
0.000605354
0.000584448
0.000566844
0.000551849
0.000539037
0.000527965
0.000518375
0.000509984
0.000502628
0.000496125
0.000490362
0.000485226
0.000480627
0.000476503
0.000472775
0.000469419
0.000466354
0.000463588
0.000461038
0.000458735
0.000456592
0.000454656
0.000452835
0.000451197
0.000449638
0.00044824
0.000446895
0.000445696
0.000444528
0.000443494
0.000442474
0.000441577
0.000440682
0.000439902
0.000439111
0.000438432
0.000437731
0.000437136
0.000436514
0.000435993
0.000435437
0.00043498
0.000434482
0.000434081
0.00043363
0.000433279
0.000432875
0.000432564
0.000432203
0.000431928
0.000431605
0.00043136
0.000431072
0.000430855
0.000430593
0.000430404
0.000430166
0.000429999
0.000429786
0.000429639
0.000429446
0.000429314
0.000429138
0.000429021
0.000428869
0.00042877
0.000428631
0.000428539
0.000428407
0.00042832
0.000428194
0.000428112
0.000427994
0.000427919
0.000427808
0.000427741
0.00042764
0.00042758
0.000427494
0.000427435
0.000427363
0.000427315
0.000427185
0.000427167
0.000427346
0.000436643
0.000457596
0.00110187
0.00102396
0.000932256
0.0008564
0.000792991
0.000740205
0.000696396
0.000660199
0.000630169
0.000605214
0.000584271
0.000566634
0.000551608
0.000538767
0.000527669
0.000518056
0.000509644
0.000502268
0.000495748
0.000489969
0.000484819
0.000480206
0.000476071
0.000472331
0.000468965
0.000465891
0.000463116
0.000460558
0.000458248
0.000456097
0.000454156
0.000452329
0.000450685
0.00044912
0.000447718
0.000446368
0.000445165
0.000443993
0.000442956
0.000441932
0.000441032
0.000440133
0.00043935
0.000438556
0.000437874
0.000437171
0.000436574
0.000435949
0.000435426
0.000434868
0.000434409
0.000433909
0.000433506
0.000433054
0.000432701
0.000432295
0.000431983
0.00043162
0.000431344
0.000431019
0.000430773
0.000430483
0.000430265
0.000430003
0.000429813
0.000429573
0.000429405
0.000429191
0.000429044
0.000428849
0.000428716
0.00042854
0.000428422
0.000428269
0.000428169
0.000428029
0.000427937
0.000427803
0.000427716
0.000427589
0.000427507
0.000427387
0.000427312
0.000427201
0.000427132
0.000427031
0.00042697
0.000426883
0.000426823
0.00042675
0.000426703
0.000426571
0.000426554
0.000426741
0.000436372
0.000457128
0.00109317
0.00102396
0.000932257
0.000856407
0.000792997
0.000740197
0.00069636
0.000660128
0.000630059
0.000605064
0.000584083
0.00056641
0.000551351
0.00053848
0.000527354
0.000517716
0.000509281
0.000501885
0.000495346
0.00048955
0.000484384
0.000479757
0.000475609
0.000471857
0.00046848
0.000465396
0.000462612
0.000460045
0.000457727
0.000455569
0.00045362
0.000451787
0.000450137
0.000448567
0.00044716
0.000445804
0.000444597
0.000443421
0.000442379
0.000441351
0.000440448
0.000439546
0.00043876
0.000437963
0.000437278
0.000436572
0.000435972
0.000435345
0.000434819
0.000434259
0.000433798
0.000433295
0.000432891
0.000432437
0.000432082
0.000431674
0.000431361
0.000430996
0.000430718
0.000430392
0.000430145
0.000429854
0.000429635
0.00042937
0.000429179
0.000428939
0.000428769
0.000428554
0.000428406
0.00042821
0.000428077
0.000427899
0.000427781
0.000427626
0.000427526
0.000427385
0.000427292
0.000427158
0.00042707
0.000426942
0.000426859
0.000426738
0.000426662
0.00042655
0.000426481
0.000426379
0.000426317
0.000426229
0.000426169
0.000426095
0.000426047
0.000425914
0.000425897
0.000426093
0.000436083
0.000456622
0.00108335
0.00102396
0.000932258
0.000856414
0.000793003
0.000740187
0.000696322
0.000660054
0.000629943
0.000604906
0.000583884
0.000566173
0.000551078
0.000538175
0.00052702
0.000517355
0.000508895
0.000501477
0.000494918
0.000489104
0.000483921
0.000479279
0.000475117
0.000471353
0.000467964
0.000464868
0.000462075
0.000459499
0.000457172
0.000455006
0.00045305
0.00045121
0.000449554
0.000447978
0.000446565
0.000445204
0.000443992
0.000442811
0.000441765
0.000440733
0.000439826
0.00043892
0.000438131
0.00043733
0.000436642
0.000435933
0.000435331
0.0004347
0.000434172
0.000433609
0.000433146
0.000432641
0.000432235
0.000431779
0.000431422
0.000431013
0.000430697
0.000430331
0.000430052
0.000429724
0.000429475
0.000429182
0.000428962
0.000428696
0.000428504
0.000428262
0.000428092
0.000427875
0.000427726
0.000427529
0.000427395
0.000427216
0.000427097
0.000426941
0.00042684
0.000426698
0.000426604
0.000426469
0.00042638
0.000426251
0.000426168
0.000426046
0.000425969
0.000425856
0.000425787
0.000425683
0.000425621
0.000425532
0.000425471
0.000425396
0.000425347
0.000425213
0.000425197
0.000425402
0.000435773
0.000456076
0.00107244
0.00102395
0.000932259
0.000856422
0.00079301
0.000740178
0.000696283
0.000659975
0.00062982
0.000604739
0.000583674
0.000565922
0.00055079
0.000537852
0.000526665
0.000516972
0.000508487
0.000501045
0.000494465
0.00048863
0.00048343
0.000478772
0.000474595
0.000470817
0.000467416
0.000464309
0.000461504
0.000458919
0.000456583
0.000454408
0.000452445
0.000450597
0.000448934
0.000447351
0.000445932
0.000444566
0.000443349
0.000442163
0.000441112
0.000440076
0.000439164
0.000438254
0.000437462
0.000436657
0.000435966
0.000435254
0.000434649
0.000434015
0.000433485
0.000432919
0.000432454
0.000431946
0.000431538
0.000431079
0.000430721
0.000430309
0.000429992
0.000429624
0.000429343
0.000429013
0.000428763
0.000428468
0.000428247
0.000427979
0.000427786
0.000427542
0.000427371
0.000427153
0.000427003
0.000426805
0.000426669
0.000426489
0.000426369
0.000426213
0.000426111
0.000425967
0.000425873
0.000425736
0.000425647
0.000425517
0.000425433
0.00042531
0.000425232
0.000425118
0.000425048
0.000424943
0.00042488
0.00042479
0.000424729
0.000424652
0.000424603
0.000424468
0.000424452
0.000424668
0.000435439
0.000455487
0.0010605
0.00102395
0.00093226
0.000856431
0.000793017
0.000740169
0.000696242
0.000659893
0.000629692
0.000604564
0.000583453
0.000565658
0.000550486
0.000537511
0.000526291
0.000516567
0.000508055
0.000500588
0.000493985
0.00048813
0.000482911
0.000478236
0.000474043
0.00047025
0.000466835
0.000463716
0.000460901
0.000458304
0.000455959
0.000453775
0.000451803
0.000449947
0.000448277
0.000446688
0.000445262
0.00044389
0.000442667
0.000441476
0.000440421
0.000439379
0.000438464
0.000437549
0.000436753
0.000435945
0.00043525
0.000434534
0.000433926
0.000433289
0.000432756
0.000432187
0.00043172
0.000431209
0.000430799
0.000430337
0.000429977
0.000429563
0.000429244
0.000428874
0.000428591
0.000428259
0.000428008
0.000427711
0.000427488
0.000427219
0.000427024
0.000426779
0.000426607
0.000426387
0.000426236
0.000426036
0.0004259
0.000425719
0.000425598
0.00042544
0.000425337
0.000425192
0.000425097
0.00042496
0.000424869
0.000424738
0.000424653
0.00042453
0.000424451
0.000424336
0.000424265
0.000424159
0.000424095
0.000424004
0.000423942
0.000423864
0.000423814
0.000423678
0.000423663
0.000423889
0.000435078
0.000454854
0.00104759
0.00102395
0.00093226
0.000856439
0.000793024
0.000740159
0.000696199
0.000659807
0.000629557
0.00060438
0.000583221
0.00056538
0.000550165
0.000537153
0.000525897
0.000516141
0.000507599
0.000500106
0.000493479
0.000487602
0.000482363
0.000477669
0.00047346
0.000469652
0.000466223
0.00046309
0.000460263
0.000457655
0.0004553
0.000453106
0.000451125
0.000449261
0.000447583
0.000445986
0.000444555
0.000443176
0.000441947
0.00044075
0.00043969
0.000438643
0.000437723
0.000436804
0.000436003
0.000435191
0.000434493
0.000433773
0.000433162
0.000432521
0.000431985
0.000431414
0.000430943
0.00043043
0.000430017
0.000429553
0.000429191
0.000428774
0.000428453
0.000428081
0.000427796
0.000427462
0.000427209
0.00042691
0.000426686
0.000426415
0.000426219
0.000425972
0.000425798
0.000425577
0.000425425
0.000425224
0.000425086
0.000424904
0.000424782
0.000424623
0.000424519
0.000424373
0.000424277
0.000424138
0.000424047
0.000423915
0.000423829
0.000423704
0.000423625
0.000423508
0.000423436
0.000423329
0.000423264
0.000423172
0.000423109
0.00042303
0.000422979
0.000422842
0.000422827
0.000423066
0.000434684
0.000454175
0.00103376
0.00102395
0.000932261
0.000856448
0.000793032
0.000740149
0.000696155
0.000659718
0.000629417
0.000604187
0.000582977
0.000565089
0.00054983
0.000536776
0.000525483
0.000515693
0.00050712
0.000499599
0.000492947
0.000487047
0.000481786
0.000477073
0.000472846
0.000469021
0.000465577
0.000462431
0.000459591
0.000456972
0.000454605
0.000452401
0.000450411
0.000448538
0.000446852
0.000445247
0.000443808
0.000442423
0.000441188
0.000439985
0.000438919
0.000437866
0.000436942
0.000436018
0.000435213
0.000434396
0.000433694
0.000432971
0.000432356
0.000431712
0.000431173
0.000430597
0.000430124
0.000429608
0.000429193
0.000428726
0.000428361
0.000427942
0.000427619
0.000427244
0.000426957
0.000426621
0.000426366
0.000426065
0.00042584
0.000425566
0.000425369
0.00042512
0.000424945
0.000424722
0.000424569
0.000424366
0.000424228
0.000424044
0.000423921
0.00042376
0.000423656
0.000423508
0.000423411
0.000423271
0.000423179
0.000423045
0.000422959
0.000422832
0.000422752
0.000422634
0.000422562
0.000422453
0.000422388
0.000422293
0.000422231
0.000422149
0.000422099
0.00042196
0.000421946
0.000422196
0.000434251
0.000453447
0.00101909
0.00102395
0.000932262
0.000856458
0.000793041
0.000740139
0.000696109
0.000659625
0.000629271
0.000603987
0.000582723
0.000564785
0.000549478
0.000536382
0.000525049
0.000515224
0.000506618
0.000499068
0.000492388
0.000486463
0.00048118
0.000476447
0.000472201
0.000468359
0.000464899
0.000461738
0.000458884
0.000456253
0.000453874
0.00045166
0.00044966
0.000447777
0.000446083
0.00044447
0.000443023
0.00044163
0.000440389
0.000439179
0.000438107
0.000437049
0.000436119
0.00043519
0.000434381
0.000433559
0.000432853
0.000432126
0.000431507
0.000430859
0.000430317
0.000429738
0.000429262
0.000428742
0.000428325
0.000427855
0.000427487
0.000427066
0.00042674
0.000426363
0.000426074
0.000425736
0.000425479
0.000425176
0.000424948
0.000424673
0.000424474
0.000424224
0.000424047
0.000423822
0.000423667
0.000423463
0.000423324
0.000423138
0.000423014
0.000422852
0.000422746
0.000422597
0.000422499
0.000422358
0.000422265
0.00042213
0.000422042
0.000421915
0.000421834
0.000421714
0.000421641
0.000421531
0.000421464
0.000421369
0.000421305
0.000421222
0.000421171
0.000421031
0.000421017
0.00042128
0.000433771
0.000452669
0.00100363
0.00102394
0.000932263
0.000856468
0.00079305
0.000740129
0.000696063
0.000659529
0.00062912
0.000603778
0.000582459
0.000564467
0.000549111
0.00053597
0.000524596
0.000514733
0.000506093
0.000498511
0.000491803
0.000485852
0.000480546
0.00047579
0.000471524
0.000467664
0.000464188
0.000461011
0.000458143
0.000455498
0.000453108
0.000450882
0.000448871
0.000446979
0.000445275
0.000443653
0.000442199
0.000440798
0.00043955
0.000438333
0.000437255
0.000436191
0.000435256
0.000434321
0.000433507
0.000432681
0.00043197
0.000431238
0.000430616
0.000429964
0.000429418
0.000428835
0.000428356
0.000427833
0.000427413
0.00042694