/*--------------------------------*- C++ -*----------------------------------*\
| =========                 |                                                 |
| \\      /  F ield         | OpenFOAM: The Open Source CFD Toolbox           |
|  \\    /   O peration     | Version:  v2012                                 |
|   \\  /    A nd           | Website:  www.openfoam.com                      |
|    \\/     M anipulation  |                                                 |
\*---------------------------------------------------------------------------*/
FoamFile
{
    version     2.0;
    format      ascii;
    class       volScalarField;
    location    "53";
    object      omega;
}
// * * * * * * * * * * * * * * * * * * * * * * * * * * * * * * * * * * * * * //

dimensions      [0 0 -1 0 0 0 0];


internalField   nonuniform List<scalar> 
209825
(
8261.77
7569.86
6999.45
6540.07
6175.53
5887.68
5658.44
5474.4
5324.14
5200.53
5096.98
5010
4935.51
4871.93
4816.45
4768.54
4726.04
4689.03
4655.71
4626.53
4599.91
4576.51
4554.88
4535.84
4518.02
4502.35
4487.5
4474.46
4461.93
4450.99
4440.34
4431.09
4421.96
4414.09
4406.2
4399.46
4392.63
4386.84
4380.88
4375.86
4370.67
4366.31
4361.72
4357.96
4353.93
4350.63
4347.08
4344.16
4341.04
4338.5
4335.76
4333.55
4331.21
4329.2
4327.11
4325.38
4323.53
4322
4320.34
4319.02
4317.62
4316.53
4315.25
4314.36
4313.27
4312.51
4311.5
4310.87
4310.01
4309.53
4308.81
4308.42
4307.81
4307.48
4306.88
4306.52
4305.95
4305.64
4305.14
4304.88
4304.45
4304.25
4303.87
4303.74
4303.43
4303.47
4303.42
4303.63
4303.63
4303.99
4303.99
4304.68
4305.41
4333.62
4442.19
113091
8261.77
7569.87
6999.45
6540.07
6175.52
5887.66
5658.41
5474.35
5324.09
5200.47
5096.91
5009.93
4935.43
4871.85
4816.36
4768.45
4725.94
4688.93
4655.61
4626.43
4599.8
4576.4
4554.77
4535.73
4517.9
4502.23
4487.38
4474.34
4461.81
4450.87
4440.22
4430.97
4421.84
4413.96
4406.08
4399.34
4392.51
4386.71
4380.75
4375.73
4370.54
4366.18
4361.59
4357.82
4353.8
4350.5
4346.94
4344.03
4340.91
4338.36
4335.62
4333.42
4331.07
4329.07
4326.98
4325.24
4323.4
4321.87
4320.2
4318.88
4317.49
4316.4
4315.11
4314.23
4313.13
4312.37
4311.36
4310.73
4309.87
4309.39
4308.67
4308.28
4307.67
4307.34
4306.75
4306.38
4305.82
4305.5
4305
4304.75
4304.31
4304.11
4303.73
4303.6
4303.3
4303.34
4303.28
4303.49
4303.49
4303.85
4303.85
4304.54
4305.27
4333.53
4442.09
109793
8261.77
7569.87
6999.45
6540.05
6175.47
5887.57
5658.29
5474.2
5323.9
5200.26
5096.68
5009.68
4935.16
4871.56
4816.06
4768.13
4725.62
4688.6
4655.27
4626.08
4599.44
4576.04
4554.4
4535.36
4517.52
4501.85
4486.99
4473.95
4461.41
4450.47
4439.82
4430.56
4421.43
4413.55
4405.66
4398.92
4392.09
4386.29
4380.33
4375.3
4370.11
4365.76
4361.16
4357.39
4353.37
4350.07
4346.51
4343.59
4340.48
4337.92
4335.19
4332.98
4330.63
4328.63
4326.54
4324.8
4322.95
4321.42
4319.76
4318.44
4317.04
4315.95
4314.67
4313.78
4312.68
4311.92
4310.91
4310.28
4309.42
4308.94
4308.22
4307.83
4307.22
4306.88
4306.29
4305.93
4305.36
4305.05
4304.54
4304.29
4303.85
4303.66
4303.27
4303.14
4302.84
4302.88
4302.82
4303.03
4303.03
4303.39
4303.39
4304.07
4304.81
4333.17
4441.71
106005
8261.77
7569.88
6999.46
6540.02
6175.39
5887.43
5658.09
5473.94
5323.59
5199.9
5096.28
5009.24
4934.69
4871.07
4815.55
4767.6
4725.07
4688.03
4654.68
4625.48
4598.83
4575.41
4553.77
4534.71
4516.87
4501.19
4486.32
4473.27
4460.73
4449.79
4439.12
4429.87
4420.73
4412.85
4404.95
4398.21
4391.37
4385.57
4379.61
4374.58
4369.38
4365.02
4360.43
4356.66
4352.63
4349.33
4345.77
4342.85
4339.73
4337.18
4334.43
4332.23
4329.88
4327.87
4325.78
4324.04
4322.19
4320.66
4319
4317.67
4316.27
4315.19
4313.9
4313.01
4311.91
4311.15
4310.14
4309.51
4308.65
4308.17
4307.44
4307.05
4306.44
4306.11
4305.51
4305.15
4304.58
4304.27
4303.77
4303.51
4303.07
4302.87
4302.49
4302.36
4302.05
4302.09
4302.03
4302.24
4302.24
4302.6
4302.6
4303.28
4304.02
4332.53
4441.05
102111
8261.77
7569.9
6999.47
6539.98
6175.26
5887.22
5657.79
5473.56
5323.14
5199.39
5095.71
5008.63
4934.03
4870.37
4814.82
4766.84
4724.28
4687.21
4653.85
4624.63
4597.96
4574.53
4552.86
4533.8
4515.94
4500.25
4485.37
4472.31
4459.76
4448.81
4438.14
4428.87
4419.73
4411.84
4403.94
4397.19
4390.35
4384.55
4378.57
4373.54
4368.34
4363.98
4359.38
4355.61
4351.57
4348.27
4344.71
4341.79
4338.66
4336.11
4333.36
4331.15
4328.8
4326.8
4324.7
4322.96
4321.11
4319.58
4317.91
4316.59
4315.18
4314.1
4312.81
4311.92
4310.82
4310.06
4309.04
4308.41
4307.55
4307.07
4306.34
4305.95
4305.34
4305
4304.41
4304.05
4303.47
4303.16
4302.65
4302.4
4301.96
4301.76
4301.38
4301.24
4300.94
4300.97
4300.91
4301.12
4301.12
4301.47
4301.47
4302.15
4302.9
4331.62
4440.11
98214.3
8261.77
7569.92
6999.47
6539.92
6175.11
5886.95
5657.4
5473.07
5322.56
5198.72
5094.97
5007.82
4933.17
4869.46
4813.86
4765.84
4723.25
4686.15
4652.76
4623.51
4596.82
4573.37
4551.69
4532.6
4514.73
4499.02
4484.13
4471.06
4458.5
4447.53
4436.85
4427.58
4418.43
4410.53
4402.62
4395.87
4389.02
4383.21
4377.23
4372.19
4366.99
4362.62
4358.02
4354.24
4350.2
4346.89
4343.33
4340.4
4337.28
4334.72
4331.97
4329.76
4327.4
4325.39
4323.29
4321.55
4319.7
4318.16
4316.5
4315.17
4313.76
4312.67
4311.38
4310.49
4309.39
4308.62
4307.61
4306.97
4306.11
4305.63
4304.9
4304.51
4303.89
4303.56
4302.96
4302.6
4302.03
4301.71
4301.21
4300.95
4300.51
4300.31
4299.92
4299.79
4299.48
4299.51
4299.44
4299.65
4299.65
4300
4300
4300.68
4301.43
4330.43
4438.88
94354.3
8261.77
7569.95
6999.49
6539.85
6174.91
5886.61
5656.93
5472.47
5321.84
5197.9
5094.06
5006.83
4932.11
4868.33
4812.68
4764.61
4721.97
4684.84
4651.41
4622.13
4595.41
4571.93
4550.23
4531.12
4513.23
4497.51
4482.6
4469.51
4456.93
4445.96
4435.26
4425.98
4416.81
4408.91
4400.99
4394.23
4387.37
4381.55
4375.57
4370.52
4365.31
4360.94
4356.33
4352.54
4348.5
4345.19
4341.62
4338.69
4335.56
4332.99
4330.24
4328.02
4325.67
4323.65
4321.55
4319.81
4317.95
4316.41
4314.74
4313.41
4312
4310.91
4309.62
4308.72
4307.62
4306.85
4305.84
4305.2
4304.33
4303.85
4303.12
4302.73
4302.11
4301.77
4301.18
4300.81
4300.24
4299.92
4299.41
4299.15
4298.71
4298.51
4298.12
4297.99
4297.68
4297.7
4297.63
4297.84
4297.83
4298.18
4298.18
4298.85
4299.61
4328.95
4437.36
90550.4
8261.77
7569.98
6999.5
6539.77
6174.68
5886.21
5656.36
5471.74
5320.97
5196.91
5092.96
5005.64
4930.83
4866.99
4811.26
4763.14
4720.45
4683.27
4649.8
4620.48
4593.73
4570.22
4548.48
4529.35
4511.44
4495.69
4480.76
4467.65
4455.06
4444.07
4433.36
4424.06
4414.88
4406.97
4399.04
4392.26
4385.4
4379.57
4373.57
4368.52
4363.3
4358.92
4354.31
4350.52
4346.47
4343.15
4339.57
4336.63
4333.5
4330.93
4328.18
4325.95
4323.59
4321.57
4319.47
4317.72
4315.86
4314.32
4312.64
4311.31
4309.9
4308.8
4307.51
4306.61
4305.5
4304.73
4303.72
4303.07
4302.21
4301.72
4300.99
4300.59
4299.97
4299.64
4299.04
4298.67
4298.1
4297.78
4297.27
4297.01
4296.56
4296.36
4295.97
4295.83
4295.52
4295.54
4295.47
4295.66
4295.66
4296
4296
4296.67
4297.44
4327.19
4435.56
86811.3
8261.77
7570.02
6999.52
6539.68
6174.41
5885.74
5655.7
5470.9
5319.97
5195.76
5091.69
5004.25
4929.35
4865.42
4809.62
4761.42
4718.67
4681.44
4647.92
4618.56
4591.76
4568.22
4546.45
4527.29
4509.34
4493.57
4478.62
4465.49
4452.88
4441.87
4431.14
4421.83
4412.63
4404.7
4396.76
4389.97
4383.09
4377.26
4371.25
4366.19
4360.96
4356.57
4351.95
4348.15
4344.09
4340.77
4337.18
4334.24
4331.1
4328.53
4325.76
4323.54
4321.17
4319.15
4317.04
4315.28
4313.42
4311.87
4310.19
4308.86
4307.44
4306.34
4305.04
4304.14
4303.03
4302.26
4301.24
4300.6
4299.72
4299.23
4298.5
4298.1
4297.48
4297.14
4296.54
4296.17
4295.6
4295.27
4294.76
4294.5
4294.05
4293.85
4293.46
4293.32
4293.01
4293.02
4292.94
4293.13
4293.13
4293.46
4293.46
4294.12
4294.91
4325.14
4433.48
83139.9
8261.77
7570.06
6999.53
6539.57
6174.11
5885.21
5654.95
5469.94
5318.82
5194.45
5090.23
5002.66
4927.65
4863.62
4807.73
4759.46
4716.64
4679.34
4645.76
4616.35
4589.51
4565.92
4544.12
4524.92
4506.95
4491.15
4476.16
4463.01
4450.38
4439.34
4428.6
4419.26
4410.05
4402.11
4394.15
4387.35
4380.46
4374.61
4368.59
4363.52
4358.28
4353.88
4349.24
4345.44
4341.37
4338.04
4334.44
4331.5
4328.35
4325.77
4323
4320.76
4318.39
4316.37
4314.25
4312.49
4310.62
4309.07
4307.39
4306.05
4304.63
4303.52
4302.22
4301.32
4300.2
4299.43
4298.4
4297.75
4296.88
4296.39
4295.65
4295.25
4294.62
4294.28
4293.68
4293.31
4292.73
4292.4
4291.89
4291.63
4291.18
4290.97
4290.57
4290.43
4290.12
4290.13
4290.04
4290.22
4290.22
4290.54
4290.54
4291.2
4292.01
4322.8
4431.11
79534.3
8261.77
7570.11
6999.56
6539.45
6173.76
5884.62
5654.1
5468.86
5317.53
5192.97
5088.58
5000.87
4925.73
4861.59
4805.6
4757.24
4714.34
4676.97
4643.33
4613.86
4586.97
4563.34
4541.48
4522.25
4504.24
4488.4
4473.39
4460.21
4447.55
4436.49
4425.72
4416.37
4407.14
4399.17
4391.2
4384.38
4377.47
4371.61
4365.58
4360.5
4355.24
4350.83
4346.19
4342.37
4338.29
4334.95
4331.35
4328.4
4325.24
4322.65
4319.87
4317.63
4315.25
4313.22
4311.1
4309.33
4307.46
4305.91
4304.22
4302.87
4301.44
4300.34
4299.03
4298.12
4297
4296.22
4295.19
4294.54
4293.66
4293.17
4292.42
4292.02
4291.39
4291.05
4290.44
4290.07
4289.49
4289.16
4288.65
4288.38
4287.93
4287.71
4287.32
4287.17
4286.86
4286.86
4286.76
4286.94
4286.94
4287.25
4287.25
4287.9
4288.72
4320.16
4428.45
75988.9
8261.77
7570.17
6999.58
6539.32
6173.38
5883.96
5653.15
5467.65
5316.09
5191.32
5086.75
4998.88
4923.6
4859.33
4803.23
4754.77
4711.78
4674.33
4640.62
4611.09
4584.13
4560.45
4538.55
4519.27
4501.21
4485.34
4470.3
4457.09
4444.39
4433.31
4422.51
4413.14
4403.88
4395.9
4387.9
4381.07
4374.14
4368.27
4362.22
4357.12
4351.85
4347.43
4342.77
4338.95
4334.86
4331.51
4327.9
4324.93
4321.76
4319.17
4316.38
4314.14
4311.75
4309.71
4307.58
4305.81
4303.93
4302.37
4300.67
4299.32
4297.89
4296.78
4295.46
4294.55
4293.42
4292.64
4291.61
4290.95
4290.07
4289.57
4288.82
4288.42
4287.78
4287.44
4286.83
4286.46
4285.87
4285.54
4285.02
4284.75
4284.29
4284.08
4283.68
4283.53
4283.22
4283.21
4283.1
4283.27
4283.27
4283.57
4283.56
4284.21
4285.06
4317.21
4425.51
72499.8
8261.77
7570.23
6999.61
6539.17
6172.97
5883.23
5652.12
5466.33
5314.5
5189.5
5084.73
4996.68
4921.24
4856.83
4800.6
4752.04
4708.95
4671.41
4637.62
4608.01
4580.99
4557.25
4535.3
4515.97
4497.87
4481.96
4466.87
4453.63
4440.9
4429.79
4418.96
4409.56
4400.28
4392.28
4384.26
4377.41
4370.46
4364.56
4358.5
4353.39
4348.1
4343.67
4339
4335.16
4331.06
4327.69
4324.07
4321.1
4317.92
4315.32
4312.52
4310.26
4307.87
4305.82
4303.68
4301.91
4300.02
4298.45
4296.75
4295.4
4293.95
4292.84
4291.51
4290.6
4289.46
4288.68
4287.64
4286.98
4286.09
4285.59
4284.84
4284.43
4283.79
4283.44
4282.83
4282.46
4281.86
4281.53
4281.01
4280.73
4280.27
4280.06
4279.65
4279.5
4279.19
4279.16
4279.04
4279.21
4279.2
4279.49
4279.49
4280.13
4281
4313.95
4422.3
69073.6
8261.76
7570.29
6999.64
6539.01
6172.51
5882.44
5650.98
5464.88
5312.76
5187.51
5082.51
4994.27
4918.65
4854.09
4797.73
4749.04
4705.84
4668.21
4634.33
4604.65
4577.55
4553.74
4531.73
4512.35
4494.2
4478.24
4463.11
4449.83
4437.07
4425.92
4415.07
4405.63
4396.33
4388.3
4380.26
4373.38
4366.41
4360.5
4354.42
4349.29
4343.99
4339.54
4334.85
4331
4326.88
4323.51
4319.87
4316.89
4313.7
4311.09
4308.28
4306.01
4303.6
4301.55
4299.4
4297.62
4295.72
4294.15
4292.44
4291.08
4289.63
4288.51
4287.18
4286.26
4285.11
4284.33
4283.28
4282.62
4281.72
4281.21
4280.46
4280.04
4279.4
4279.05
4278.44
4278.06
4277.46
4277.13
4276.6
4276.32
4275.86
4275.64
4275.23
4275.07
4274.76
4274.72
4274.59
4274.75
4274.74
4275.02
4275.01
4275.65
4276.54
4310.38
4418.8
65716.3
8261.76
7570.36
6999.67
6538.85
6172.02
5881.58
5649.75
5463.3
5310.87
5185.35
5080.1
4991.64
4915.84
4851.11
4794.59
4745.78
4702.46
4664.72
4630.74
4600.97
4573.8
4549.92
4527.84
4508.4
4490.2
4474.19
4459.02
4445.69
4432.89
4421.7
4410.81
4401.35
4392.02
4383.96
4375.89
4368.99
4362
4356.07
4349.96
4344.81
4339.49
4335.03
4330.32
4326.46
4322.33
4318.94
4315.29
4312.29
4309.09
4306.47
4303.65
4301.37
4298.95
4296.9
4294.74
4292.95
4291.04
4289.46
4287.74
4286.38
4284.91
4283.79
4282.45
4281.52
4280.37
4279.58
4278.53
4277.86
4276.96
4276.44
4275.68
4275.26
4274.62
4274.26
4273.64
4273.26
4272.66
4272.32
4271.79
4271.51
4271.04
4270.81
4270.4
4270.24
4269.92
4269.88
4269.73
4269.88
4269.88
4270.14
4270.13
4270.76
4271.68
4306.49
4415.04
62433.5
8261.76
7570.44
6999.71
6538.67
6171.5
5880.65
5648.42
5461.6
5308.83
5183.01
5077.5
4988.8
4912.79
4847.88
4791.2
4742.24
4698.79
4660.94
4626.86
4597
4569.74
4545.78
4523.63
4504.13
4485.86
4469.8
4454.57
4441.2
4428.35
4417.13
4406.21
4396.71
4387.34
4379.25
4371.16
4364.23
4357.21
4351.26
4345.13
4339.96
4334.62
4330.14
4325.42
4321.53
4317.39
4313.99
4310.32
4307.31
4304.1
4301.46
4298.63
4296.34
4293.91
4291.84
4289.67
4287.87
4285.95
4284.37
4282.64
4281.27
4279.8
4278.66
4277.32
4276.38
4275.22
4274.43
4273.37
4272.7
4271.79
4271.27
4270.5
4270.07
4269.42
4269.06
4268.44
4268.06
4267.45
4267.11
4266.57
4266.28
4265.81
4265.58
4265.16
4265
4264.68
4264.63
4264.47
4264.6
4264.59
4264.84
4264.83
4265.45
4266.41
4302.26
4411
59230.6
8261.76
7570.52
6999.75
6538.48
6170.94
5879.66
5647
5459.78
5306.64
5180.49
5074.69
4985.75
4909.51
4844.4
4787.55
4738.43
4694.84
4656.87
4622.67
4592.71
4565.35
4541.31
4519.08
4499.51
4481.18
4465.06
4449.78
4436.36
4423.46
4412.2
4401.23
4391.7
4382.29
4374.18
4366.05
4359.09
4352.05
4346.07
4339.92
4334.73
4329.36
4324.86
4320.12
4316.22
4312.05
4308.64
4304.96
4301.93
4298.7
4296.06
4293.21
4290.91
4288.47
4286.39
4284.21
4282.4
4280.47
4278.88
4277.14
4275.76
4274.27
4273.13
4271.78
4270.83
4269.67
4268.87
4267.8
4267.12
4266.2
4265.68
4264.9
4264.47
4263.81
4263.45
4262.82
4262.44
4261.83
4261.48
4260.93
4260.64
4260.16
4259.93
4259.5
4259.34
4259.01
4258.95
4258.78
4258.91
4258.89
4259.13
4259.11
4259.72
4260.71
4297.69
4406.7
56112.3
8261.75
7570.6
6999.8
6538.28
6170.34
5878.61
5645.48
5457.82
5304.3
5177.8
5071.69
4982.47
4905.99
4840.67
4783.63
4734.35
4690.6
4652.49
4618.17
4588.1
4560.65
4536.52
4514.21
4494.56
4476.16
4459.98
4444.63
4431.16
4418.21
4406.9
4395.89
4386.32
4376.87
4368.72
4360.56
4353.58
4346.5
4340.49
4334.31
4329.1
4323.71
4319.19
4314.43
4310.51
4306.32
4302.89
4299.19
4296.15
4292.91
4290.25
4287.39
4285.07
4282.61
4280.53
4278.33
4276.51
4274.57
4272.97
4271.22
4269.83
4268.33
4267.19
4265.82
4264.87
4263.69
4262.89
4261.81
4261.13
4260.2
4259.67
4258.88
4258.45
4257.79
4257.42
4256.78
4256.39
4255.78
4255.43
4254.87
4254.58
4254.09
4253.85
4253.42
4253.25
4252.92
4252.85
4252.66
4252.78
4252.76
4252.98
4252.96
4253.56
4254.59
4292.77
4402.13
53083.1
8261.75
7570.69
6999.85
6538.07
6169.71
5877.49
5643.87
5455.75
5301.8
5174.93
5068.49
4978.98
4902.24
4836.69
4779.45
4729.98
4686.08
4647.82
4613.37
4583.18
4555.62
4531.39
4508.99
4489.26
4470.78
4454.53
4439.12
4425.59
4412.59
4401.23
4390.17
4380.56
4371.07
4362.88
4354.68
4347.67
4340.56
4334.52
4328.31
4323.08
4317.66
4313.12
4308.33
4304.39
4300.19
4296.73
4293.02
4289.96
4286.7
4284.03
4281.15
4278.82
4276.35
4274.25
4272.04
4270.21
4268.25
4266.65
4264.88
4263.48
4261.97
4260.82
4259.44
4258.48
4257.3
4256.48
4255.4
4254.71
4253.77
4253.23
4252.44
4252
4251.33
4250.96
4250.32
4249.92
4249.3
4248.94
4248.39
4248.08
4247.59
4247.35
4246.91
4246.73
4246.4
4246.32
4246.11
4246.22
4246.2
4246.4
4246.37
4246.97
4248.04
4287.48
4397.26
50147.1
8261.74
7570.79
6999.91
6537.85
6169.05
5876.3
5642.16
5453.55
5299.15
5171.88
5065.09
4975.27
4898.25
4832.46
4774.99
4725.33
4681.25
4642.84
4608.25
4577.93
4550.25
4525.93
4503.42
4483.61
4465.05
4448.73
4433.25
4419.66
4406.6
4395.19
4384.07
4374.41
4364.88
4356.65
4348.41
4341.36
4334.22
4328.15
4321.92
4316.65
4311.21
4306.64
4301.83
4297.87
4293.64
4290.17
4286.43
4283.36
4280.08
4277.39
4274.49
4272.15
4269.66
4267.55
4265.32
4263.48
4261.51
4259.9
4258.12
4256.71
4255.19
4254.03
4252.64
4251.67
4250.47
4249.65
4248.56
4247.86
4246.91
4246.36
4245.56
4245.12
4244.44
4244.06
4243.42
4243.02
4242.39
4242.03
4241.46
4241.15
4240.65
4240.4
4239.96
4239.78
4239.43
4239.35
4239.13
4239.22
4239.19
4239.38
4239.34
4239.93
4241.04
4281.8
4392.08
47308.2
8261.74
7570.89
6999.97
6537.62
6168.35
5875.06
5640.36
5451.22
5296.35
5168.65
5061.48
4971.33
4894.01
4827.96
4770.26
4720.4
4676.13
4637.56
4602.81
4572.36
4544.56
4520.12
4497.51
4477.61
4458.96
4442.56
4427.01
4413.35
4400.23
4388.76
4377.59
4367.88
4358.3
4350.03
4341.75
4334.66
4327.48
4321.38
4315.11
4309.82
4304.35
4299.75
4294.91
4290.93
4286.68
4283.18
4279.43
4276.34
4273.03
4270.33
4267.41
4265.05
4262.55
4260.42
4258.18
4256.33
4254.34
4252.72
4250.93
4249.51
4247.97
4246.8
4245.4
4244.42
4243.21
4242.38
4241.28
4240.57
4239.61
4239.06
4238.25
4237.79
4237.11
4236.72
4236.07
4235.67
4235.03
4234.67
4234.09
4233.78
4233.27
4233.01
4232.56
4232.37
4232.03
4231.93
4231.69
4231.78
4231.74
4231.91
4231.86
4232.44
4233.6
4275.73
4386.55
44569.8
8261.73
7570.99
7000.03
6537.39
6167.62
5873.75
5638.46
5448.77
5293.39
5165.24
5057.67
4967.16
4889.54
4823.21
4765.26
4715.18
4670.71
4631.96
4597.05
4566.46
4538.52
4513.97
4491.25
4471.25
4452.51
4436.03
4420.39
4406.67
4393.47
4381.95
4370.72
4360.96
4351.33
4343.01
4334.68
4327.56
4320.34
4314.2
4307.89
4302.57
4297.07
4292.45
4287.58
4283.57
4279.29
4275.78
4272
4268.89
4265.56
4262.84
4259.9
4257.53
4255
4252.86
4250.6
4248.74
4246.74
4245.1
4243.29
4241.86
4240.31
4239.13
4237.71
4236.73
4235.5
4234.67
4233.55
4232.84
4231.87
4231.31
4230.48
4230.02
4229.33
4228.94
4228.28
4227.87
4227.23
4226.85
4226.27
4225.95
4225.44
4225.17
4224.71
4224.52
4224.16
4224.06
4223.81
4223.88
4223.83
4223.99
4223.93
4224.49
4225.7
4269.23
4380.65
41934.9
8261.72
7571.1
7000.1
6537.14
6166.86
5872.38
5636.47
5446.19
5290.28
5161.66
5053.66
4962.78
4884.81
4818.19
4759.98
4709.66
4664.99
4626.05
4590.97
4560.23
4532.15
4507.47
4484.63
4464.52
4445.69
4429.12
4413.4
4399.6
4386.33
4374.74
4363.45
4353.63
4343.95
4335.58
4327.21
4320.04
4312.78
4306.61
4300.26
4294.9
4289.37
4284.72
4279.82
4275.78
4271.48
4267.94
4264.13
4261
4257.66
4254.91
4251.96
4249.56
4247.02
4244.86
4242.59
4240.71
4238.69
4237.04
4235.22
4233.78
4232.21
4231.02
4229.59
4228.59
4227.35
4226.5
4225.38
4224.65
4223.67
4223.1
4222.27
4221.8
4221.1
4220.7
4220.04
4219.62
4218.97
4218.59
4218
4217.67
4217.15
4216.88
4216.41
4216.21
4215.84
4215.73
4215.46
4215.52
4215.46
4215.6
4215.53
4216.08
4217.35
4262.28
4374.35
39406.2
8261.71
7571.22
7000.17
6536.89
6166.07
5870.95
5634.39
5443.49
5287.01
5157.89
5049.44
4958.16
4879.85
4812.92
4754.43
4703.86
4658.96
4619.82
4584.56
4553.66
4525.43
4500.61
4477.65
4457.44
4438.49
4421.83
4406.02
4392.14
4378.8
4367.14
4355.78
4345.91
4336.16
4327.75
4319.32
4312.11
4304.8
4298.59
4292.2
4286.81
4281.24
4276.56
4271.63
4267.56
4263.23
4259.67
4255.84
4252.68
4249.31
4246.55
4243.57
4241.15
4238.59
4236.42
4234.12
4232.23
4230.19
4228.53
4226.69
4225.24
4223.65
4222.45
4221
4219.99
4218.74
4217.88
4216.75
4216.01
4215.02
4214.44
4213.6
4213.12
4212.41
4212
4211.33
4210.91
4210.25
4209.86
4209.26
4208.93
4208.39
4208.12
4207.64
4207.43
4207.06
4206.93
4206.65
4206.69
4206.62
4206.75
4206.66
4207.2
4208.52
4254.87
4367.61
36986.2
8261.71
7571.34
7000.25
6536.64
6165.25
5869.46
5632.22
5440.67
5283.6
5153.94
5045.02
4953.32
4874.64
4807.37
4748.59
4697.76
4652.63
4613.28
4577.83
4546.75
4518.36
4493.41
4470.32
4449.98
4430.92
4414.16
4398.26
4384.3
4370.87
4359.14
4347.71
4337.78
4327.97
4319.5
4311.02
4303.76
4296.4
4290.15
4283.72
4278.29
4272.68
4267.97
4263
4258.91
4254.54
4250.95
4247.1
4243.92
4240.52
4237.73
4234.73
4232.3
4229.71
4227.53
4225.2
4223.3
4221.24
4219.56
4217.71
4216.24
4214.63
4213.42
4211.96
4210.94
4209.67
4208.81
4207.65
4206.91
4205.91
4205.31
4204.46
4203.97
4203.25
4202.84
4202.15
4201.73
4201.06
4200.66
4200.05
4199.72
4199.17
4198.89
4198.4
4198.18
4197.8
4197.67
4197.37
4197.39
4197.31
4197.42
4197.31
4197.85
4199.22
4246.95
4360.4
34676.9
8261.7
7571.46
7000.34
6536.38
6164.41
5867.92
5629.96
5437.73
5280.03
5149.82
5040.39
4948.26
4869.18
4801.57
4742.47
4691.37
4645.98
4606.42
4570.76
4539.5
4510.95
4485.84
4462.61
4442.15
4422.98
4406.11
4390.11
4376.05
4362.54
4350.74
4339.23
4329.23
4319.36
4310.83
4302.3
4294.98
4287.58
4281.28
4274.81
4269.34
4263.68
4258.94
4253.94
4249.81
4245.41
4241.8
4237.91
4234.71
4231.28
4228.47
4225.44
4222.99
4220.37
4218.17
4215.83
4213.91
4211.83
4210.14
4208.26
4206.78
4205.16
4203.93
4202.45
4201.42
4200.14
4199.26
4198.09
4197.34
4196.32
4195.72
4194.85
4194.35
4193.62
4193.2
4192.51
4192.07
4191.4
4190.99
4190.37
4190.03
4189.47
4189.18
4188.68
4188.45
4188.06
4187.92
4187.61
4187.62
4187.53
4187.61
4187.49
4188.02
4189.44
4238.49
4352.7
32480.1
8261.68
7571.59
7000.43
6536.11
6163.54
5866.32
5627.61
5434.67
5276.32
5145.52
5035.57
4942.97
4863.47
4795.5
4736.08
4684.68
4639.03
4599.23
4563.36
4531.91
4503.18
4477.92
4454.54
4433.95
4414.65
4397.67
4381.56
4367.42
4353.81
4341.92
4330.34
4320.27
4310.33
4301.74
4293.14
4285.78
4278.32
4271.97
4265.46
4259.95
4254.25
4249.47
4244.42
4240.27
4235.83
4232.19
4228.27
4225.04
4221.58
4218.75
4215.7
4213.22
4210.58
4208.36
4205.99
4204.05
4201.95
4200.25
4198.35
4196.86
4195.21
4193.97
4192.48
4191.43
4190.13
4189.24
4188.06
4187.29
4186.26
4185.64
4184.76
4184.26
4183.51
4183.08
4182.38
4181.94
4181.25
4180.84
4180.21
4179.86
4179.29
4178.99
4178.48
4178.24
4177.84
4177.69
4177.38
4177.36
4177.25
4177.32
4177.18
4177.69
4179.18
4229.46
4344.44
30397.4
8261.67
7571.72
7000.53
6535.85
6162.64
5864.67
5625.17
5431.49
5272.45
5141.04
5030.54
4937.45
4857.52
4789.17
4729.4
4677.7
4631.77
4591.72
4555.62
4523.97
4495.06
4469.63
4446.09
4425.36
4405.93
4388.84
4372.62
4358.37
4344.67
4332.7
4321.03
4310.89
4300.88
4292.23
4283.56
4276.14
4268.63
4262.23
4255.66
4250.11
4244.37
4239.55
4234.46
4230.27
4225.8
4222.12
4218.17
4214.91
4211.43
4208.57
4205.49
4202.98
4200.32
4198.08
4195.69
4193.73
4191.61
4189.89
4187.97
4186.46
4184.79
4183.54
4182.02
4180.96
4179.64
4178.74
4177.54
4176.77
4175.72
4175.09
4174.2
4173.68
4172.92
4172.48
4171.77
4171.32
4170.62
4170.21
4169.56
4169.2
4168.62
4168.31
4167.79
4167.54
4167.13
4166.97
4166.64
4166.61
4166.49
4166.53
4166.37
4166.88
4168.42
4219.82
4335.61
28430
8261.66
7571.86
7000.63
6535.58
6161.72
5862.96
5622.65
5428.19
5268.44
5136.38
5025.31
4931.71
4851.33
4782.57
4722.43
4670.42
4624.2
4583.89
4547.55
4515.69
4486.58
4460.97
4437.28
4416.4
4396.83
4379.62
4363.28
4348.93
4335.13
4323.06
4311.31
4301.09
4291
4282.28
4273.55
4266.07
4258.49
4252.05
4245.42
4239.83
4234.03
4229.17
4224.05
4219.82
4215.31
4211.6
4207.61
4204.33
4200.81
4197.92
4194.81
4192.28
4189.59
4187.33
4184.91
4182.93
4180.78
4179.05
4177.11
4175.58
4173.89
4172.62
4171.09
4170.01
4168.67
4167.76
4166.55
4165.76
4164.69
4164.05
4163.14
4162.61
4161.84
4161.4
4160.67
4160.22
4159.51
4159.08
4158.43
4158.05
4157.46
4157.14
4156.61
4156.35
4155.93
4155.76
4155.42
4155.37
4155.23
4155.25
4155.06
4155.56
4157.17
4209.55
4326.16
26579.2
8261.64
7572
7000.74
6535.3
6160.77
5861.21
5620.05
5424.79
5264.28
5131.56
5019.88
4925.75
4844.89
4775.7
4715.19
4662.84
4616.31
4575.73
4539.14
4507.06
4477.74
4451.95
4428.08
4407.06
4387.34
4370
4353.54
4339.08
4325.17
4313.01
4301.16
4290.86
4280.69
4271.9
4263.1
4255.56
4247.92
4241.42
4234.74
4229.09
4223.25
4218.35
4213.18
4208.9
4204.36
4200.61
4196.59
4193.27
4189.72
4186.8
4183.66
4181.11
4178.38
4176.1
4173.66
4171.66
4169.48
4167.73
4165.77
4164.23
4162.51
4161.22
4159.67
4158.58
4157.22
4156.29
4155.06
4154.26
4153.18
4152.52
4151.6
4151.05
4150.27
4149.81
4149.08
4148.61
4147.89
4147.46
4146.79
4146.41
4145.8
4145.47
4144.93
4144.66
4144.22
4144.04
4143.69
4143.62
4143.47
4143.47
4143.25
4143.74
4145.41
4198.67
4316.06
24846.2
8261.63
7572.14
7000.86
6535.03
6159.81
5859.41
5617.38
5421.27
5259.99
5126.56
5014.25
4919.57
4838.2
4768.58
4707.67
4654.96
4608.11
4567.24
4530.4
4498.08
4468.55
4442.57
4418.52
4397.33
4377.46
4359.98
4343.39
4328.81
4314.79
4302.54
4290.59
4280.2
4269.95
4261.09
4252.21
4244.6
4236.9
4230.34
4223.6
4217.9
4212.01
4207.06
4201.84
4197.53
4192.94
4189.15
4185.09
4181.74
4178.15
4175.21
4172.04
4169.45
4166.7
4164.39
4161.92
4159.9
4157.7
4155.92
4153.94
4152.38
4150.64
4149.34
4147.76
4146.65
4145.27
4144.33
4143.08
4142.26
4141.16
4140.5
4139.55
4139
4138.2
4137.73
4136.98
4136.51
4135.78
4135.33
4134.65
4134.26
4133.64
4133.3
4132.74
4132.46
4132.01
4131.82
4131.45
4131.37
4131.21
4131.18
4130.94
4131.42
4133.14
4187.16
4305.25
23231.8
8261.61
7572.29
7000.98
6534.76
6158.83
5857.56
5614.62
5417.64
5255.55
5121.39
5008.43
4913.16
4831.27
4761.19
4699.86
4646.78
4599.6
4558.43
4521.31
4488.75
4458.99
4432.81
4408.57
4387.21
4367.19
4349.56
4332.83
4318.14
4304
4291.64
4279.59
4269.12
4258.77
4249.83
4240.88
4233.2
4225.42
4218.8
4212.01
4206.25
4200.3
4195.31
4190.04
4185.68
4181.05
4177.23
4173.12
4169.74
4166.11
4163.14
4159.93
4157.32
4154.53
4152.2
4149.7
4147.66
4145.42
4143.63
4141.62
4140.04
4138.27
4136.95
4135.35
4134.23
4132.83
4131.87
4130.6
4129.77
4128.65
4127.97
4127.01
4126.44
4125.63
4125.15
4124.39
4123.9
4123.16
4122.7
4122.01
4121.6
4120.97
4120.62
4120.05
4119.76
4119.29
4119.09
4118.71
4118.61
4118.43
4118.38
4118.1
4118.58
4120.35
4175.03
4293.72
21731.7
8261.59
7572.43
7001.11
6534.48
6157.83
5855.67
5611.79
5413.91
5250.98
5116.06
5002.41
4906.54
4824.11
4753.54
4691.77
4638.31
4590.78
4549.3
4511.89
4479.08
4449.08
4422.68
4398.25
4376.71
4356.52
4338.75
4321.87
4307.05
4292.79
4280.32
4268.17
4257.6
4247.15
4238.13
4229.1
4221.35
4213.5
4206.82
4199.95
4194.14
4188.13
4183.09
4177.77
4173.37
4168.68
4164.82
4160.68
4157.26
4153.59
4150.59
4147.34
4144.7
4141.87
4139.52
4136.98
4134.92
4132.66
4130.84
4128.81
4127.21
4125.41
4124.08
4122.45
4121.3
4119.88
4118.91
4117.62
4116.77
4115.64
4114.94
4113.96
4113.38
4112.55
4112.06
4111.28
4110.79
4110.03
4109.56
4108.85
4108.44
4107.79
4107.43
4106.84
4106.54
4106.06
4105.84
4105.45
4105.33
4105.14
4105.07
4104.75
4105.22
4107.05
4162.28
4281.43
20341.3
8261.57
7572.59
7001.25
6534.21
6156.82
5853.74
5608.89
5410.07
5246.27
5110.56
4996.2
4899.7
4816.7
4745.63
4683.41
4629.54
4581.64
4539.84
4502.13
4469.05
4438.8
4412.19
4387.54
4365.82
4345.45
4327.53
4310.5
4295.55
4281.16
4268.57
4256.31
4245.64
4235.1
4225.99
4216.87
4209.05
4201.12
4194.37
4187.44
4181.57
4175.5
4170.4
4165.03
4160.58
4155.85
4151.94
4147.75
4144.3
4140.59
4137.55
4134.26
4131.59
4128.73
4126.35
4123.78
4121.69
4119.4
4117.56
4115.49
4113.88
4112.05
4110.69
4109.04
4107.88
4106.43
4105.44
4104.13
4103.27
4102.11
4101.4
4100.4
4099.8
4098.96
4098.46
4097.66
4097.16
4096.38
4095.91
4095.18
4094.76
4094.09
4093.72
4093.12
4092.8
4092.3
4092.08
4091.67
4091.54
4091.32
4091.24
4090.88
4091.34
4093.21
4148.89
4268.33
19055.5
8261.55
7572.74
7001.4
6533.95
6155.8
5851.77
5605.93
5406.14
5241.43
5104.91
4989.81
4892.65
4809.06
4737.46
4674.77
4620.49
4572.2
4530.06
4492.04
4458.68
4428.17
4401.32
4376.46
4354.55
4333.99
4315.9
4298.72
4283.63
4269.1
4256.4
4244.02
4233.24
4222.6
4213.41
4204.19
4196.29
4188.28
4181.47
4174.46
4168.53
4162.4
4157.25
4151.81
4147.32
4142.53
4138.58
4134.35
4130.85
4127.1
4124.02
4120.7
4117.99
4115.09
4112.68
4110.08
4107.96
4105.64
4103.78
4101.68
4100.04
4098.19
4096.81
4095.13
4093.95
4092.48
4091.47
4090.14
4089.26
4088.08
4087.35
4086.33
4085.72
4084.85
4084.34
4083.53
4083.02
4082.22
4081.74
4081
4080.56
4079.88
4079.49
4078.87
4078.55
4078.03
4077.79
4077.36
4077.21
4076.99
4076.88
4076.49
4076.94
4078.85
4134.88
4254.4
17869.3
8261.52
7572.89
7001.55
6533.68
6154.76
5849.77
5602.9
5402.11
5236.47
5099.1
4983.23
4885.39
4801.18
4729.04
4665.86
4611.13
4562.45
4519.95
4481.6
4447.95
4417.18
4390.09
4365
4342.89
4322.14
4303.88
4286.53
4271.29
4256.63
4243.8
4231.29
4220.41
4209.66
4200.37
4191.07
4183.08
4174.99
4168.1
4161.02
4155.03
4148.82
4143.62
4138.12
4133.58
4128.73
4124.74
4120.45
4116.92
4113.12
4110.01
4106.64
4103.9
4100.96
4098.52
4095.88
4093.74
4091.38
4089.49
4087.36
4085.7
4083.82
4082.42
4080.71
4079.51
4078.01
4076.98
4075.63
4074.73
4073.53
4072.78
4071.74
4071.11
4070.23
4069.7
4068.88
4068.35
4067.54
4067.05
4066.29
4065.84
4065.14
4064.74
4064.11
4063.77
4063.23
4062.98
4062.53
4062.37
4062.12
4062
4061.56
4062.01
4063.96
4120.23
4239.61
16777
8261.5
7573.05
7001.7
6533.42
6153.72
5847.74
5599.81
5397.99
5231.38
5093.14
4976.47
4877.92
4793.08
4720.37
4656.67
4601.5
4552.39
4509.53
4470.84
4436.88
4405.82
4378.49
4353.16
4330.84
4309.89
4291.45
4273.93
4258.54
4243.73
4230.77
4218.14
4207.14
4196.28
4186.89
4177.49
4169.42
4161.24
4154.27
4147.11
4141.05
4134.78
4129.51
4123.95
4119.35
4114.45
4110.41
4106.07
4102.5
4098.65
4095.5
4092.09
4089.31
4086.32
4083.86
4081.18
4079.01
4076.61
4074.7
4072.54
4070.86
4068.94
4067.52
4065.78
4064.56
4063.03
4061.98
4060.6
4059.69
4058.46
4057.7
4056.64
4055.99
4055.09
4054.55
4053.7
4053.17
4052.34
4051.83
4051.05
4050.59
4049.87
4049.46
4048.81
4048.46
4047.9
4047.64
4047.17
4046.99
4046.72
4046.58
4046.11
4046.54
4048.52
4104.96
4223.93
15772.9
8261.47
7573.21
7001.87
6533.17
6152.67
5845.68
5596.66
5393.79
5226.18
5087.03
4969.54
4870.25
4784.75
4711.45
4647.22
4591.57
4542.04
4498.79
4459.74
4425.47
4394.12
4366.52
4340.94
4318.4
4297.25
4278.62
4260.92
4245.38
4230.41
4217.31
4204.55
4193.43
4182.46
4172.96
4163.45
4155.29
4147.02
4139.98
4132.74
4126.61
4120.26
4114.93
4109.31
4104.65
4099.69
4095.6
4091.21
4087.58
4083.69
4080.5
4077.04
4074.22
4071.19
4068.7
4065.97
4063.77
4061.34
4059.41
4057.21
4055.5
4053.55
4052.1
4050.34
4049.09
4047.53
4046.47
4045.06
4044.13
4042.88
4042.1
4041.01
4040.35
4039.42
4038.86
4038
4037.45
4036.61
4036.09
4035.29
4034.82
4034.08
4033.66
4032.99
4032.62
4032.04
4031.76
4031.28
4031.08
4030.79
4030.63
4030.12
4030.55
4032.55
4089.05
4207.34
14851.3
8261.44
7573.37
7002.04
6532.93
6151.61
5843.59
5593.47
5389.5
5220.87
5080.77
4962.44
4862.39
4776.2
4702.29
4637.51
4581.36
4531.38
4487.73
4448.32
4413.72
4382.06
4354.18
4328.35
4305.58
4284.21
4265.39
4247.51
4231.79
4216.66
4203.43
4190.52
4179.29
4168.19
4158.59
4148.97
4140.72
4132.35
4125.22
4117.9
4111.69
4105.27
4099.87
4094.18
4089.46
4084.44
4080.3
4075.85
4072.18