/*--------------------------------*- C++ -*----------------------------------*\
| =========                 |                                                 |
| \\      /  F ield         | OpenFOAM: The Open Source CFD Toolbox           |
|  \\    /   O peration     | Version:  v2012                                 |
|   \\  /    A nd           | Website:  www.openfoam.com                      |
|    \\/     M anipulation  |                                                 |
\*---------------------------------------------------------------------------*/
FoamFile
{
    version     2.0;
    format      ascii;
    class       volVectorField;
    location    "53";
    object      wallShearStress;
}
// * * * * * * * * * * * * * * * * * * * * * * * * * * * * * * * * * * * * * //

dimensions      [0 2 -2 0 0 0 0];


internalField   uniform (0 0 0);

boundaryField
{
    inlet
    {
        type            calculated;
        value           uniform (0 0 0);
    }
    outlet
    {
        type            calculated;
        value           uniform (0 0 0);
    }
    topWall
    {
        type            calculated;
        value           nonuniform List<vector> 
545
(
(3.67434e-08 -2.58642e-08 0)
(3.67321e-08 -7.23521e-08 0)
(3.67122e-08 -1.20694e-07 0)
(3.66837e-08 -1.67638e-07 0)
(3.6648e-08 -2.12584e-07 0)
(3.66057e-08 -2.56109e-07 0)
(3.65575e-08 -2.98584e-07 0)
(3.65036e-08 -3.39989e-07 0)
(3.64447e-08 -3.80233e-07 0)
(3.63811e-08 -4.19316e-07 0)
(3.63133e-08 -4.57289e-07 0)
(3.62417e-08 -4.94195e-07 0)
(3.61666e-08 -5.3006e-07 0)
(3.60886e-08 -5.64905e-07 0)
(3.60077e-08 -5.98755e-07 0)
(3.59245e-08 -6.31637e-07 0)
(3.58392e-08 -6.63577e-07 0)
(3.57519e-08 -6.94599e-07 0)
(3.56632e-08 -7.24729e-07 0)
(3.5573e-08 -7.53991e-07 0)
(3.54818e-08 -7.82409e-07 0)
(3.53896e-08 -8.10006e-07 0)
(3.52967e-08 -8.36804e-07 0)
(3.52032e-08 -8.62828e-07 0)
(3.51095e-08 -8.88097e-07 0)
(3.50154e-08 -9.12635e-07 0)
(3.49214e-08 -9.36461e-07 0)
(3.48274e-08 -9.59597e-07 0)
(3.47336e-08 -9.82062e-07 0)
(3.46401e-08 -1.00388e-06 0)
(3.4547e-08 -1.02506e-06 0)
(3.44545e-08 -1.04562e-06 0)
(3.43626e-08 -1.0656e-06 0)
(3.42713e-08 -1.08499e-06 0)
(3.41808e-08 -1.10382e-06 0)
(3.40912e-08 -1.12211e-06 0)
(3.40025e-08 -1.13987e-06 0)
(3.39147e-08 -1.15711e-06 0)
(3.38279e-08 -1.17386e-06 0)
(3.37421e-08 -1.19012e-06 0)
(3.36574e-08 -1.20592e-06 0)
(3.35739e-08 -1.22126e-06 0)
(3.34915e-08 -1.23616e-06 0)
(3.34103e-08 -1.25063e-06 0)
(3.33303e-08 -1.26468e-06 0)
(3.32515e-08 -1.27833e-06 0)
(3.3174e-08 -1.29159e-06 0)
(3.30977e-08 -1.30448e-06 0)
(3.30226e-08 -1.31699e-06 0)
(3.29489e-08 -1.32914e-06 0)
(3.28764e-08 -1.34095e-06 0)
(3.28052e-08 -1.35243e-06 0)
(3.27352e-08 -1.36357e-06 0)
(3.26666e-08 -1.3744e-06 0)
(3.25992e-08 -1.38492e-06 0)
(3.25331e-08 -1.39514e-06 0)
(3.24683e-08 -1.40508e-06 0)
(3.24047e-08 -1.41473e-06 0)
(3.23424e-08 -1.42411e-06 0)
(3.22813e-08 -1.43323e-06 0)
(3.22215e-08 -1.44208e-06 0)
(3.21628e-08 -1.45069e-06 0)
(3.21054e-08 -1.45906e-06 0)
(3.20492e-08 -1.46719e-06 0)
(3.19941e-08 -1.47509e-06 0)
(3.19403e-08 -1.48278e-06 0)
(3.18875e-08 -1.49024e-06 0)
(3.18359e-08 -1.4975e-06 0)
(3.17854e-08 -1.50456e-06 0)
(3.17361e-08 -1.51141e-06 0)
(3.16877e-08 -1.51808e-06 0)
(3.16408e-08 -1.52456e-06 0)
(3.15952e-08 -1.53079e-06 0)
(3.15502e-08 -1.53683e-06 0)
(3.15057e-08 -1.54281e-06 0)
(3.14613e-08 -1.54876e-06 0)
(3.1417e-08 -1.55469e-06 0)
(3.13727e-08 -1.56058e-06 0)
(3.13285e-08 -1.56643e-06 0)
(3.12843e-08 -1.57225e-06 0)
(3.12402e-08 -1.57803e-06 0)
(3.11961e-08 -1.58378e-06 0)
(3.1152e-08 -1.58949e-06 0)
(3.1108e-08 -1.59517e-06 0)
(3.1064e-08 -1.60082e-06 0)
(3.10201e-08 -1.60643e-06 0)
(3.09762e-08 -1.61201e-06 0)
(3.09324e-08 -1.61755e-06 0)
(3.08887e-08 -1.62307e-06 0)
(3.0845e-08 -1.62855e-06 0)
(3.08013e-08 -1.63399e-06 0)
(3.07577e-08 -1.63941e-06 0)
(3.07142e-08 -1.64479e-06 0)
(3.06708e-08 -1.65013e-06 0)
(3.0627e-08 -1.65546e-06 0)
(3.05856e-08 -1.6607e-06 0)
(3.05471e-08 -1.6655e-06 0)
(3.05098e-08 -1.66984e-06 0)
(3.04739e-08 -1.67407e-06 0)
(3.04381e-08 -1.67833e-06 0)
(3.04023e-08 -1.68262e-06 0)
(3.03663e-08 -1.68692e-06 0)
(3.03301e-08 -1.69122e-06 0)
(3.02937e-08 -1.69552e-06 0)
(3.02572e-08 -1.69983e-06 0)
(3.02205e-08 -1.70414e-06 0)
(3.01836e-08 -1.70846e-06 0)
(3.01466e-08 -1.71278e-06 0)
(3.01094e-08 -1.71711e-06 0)
(3.0072e-08 -1.72144e-06 0)
(3.00344e-08 -1.72578e-06 0)
(2.99966e-08 -1.73012e-06 0)
(2.99587e-08 -1.73447e-06 0)
(2.99206e-08 -1.73882e-06 0)
(2.98823e-08 -1.74318e-06 0)
(2.98438e-08 -1.74754e-06 0)
(2.98052e-08 -1.7519e-06 0)
(2.97663e-08 -1.75627e-06 0)
(2.97273e-08 -1.76065e-06 0)
(2.96881e-08 -1.76503e-06 0)
(2.96487e-08 -1.76941e-06 0)
(2.96092e-08 -1.7738e-06 0)
(2.95694e-08 -1.77819e-06 0)
(2.95295e-08 -1.78259e-06 0)
(2.94894e-08 -1.78699e-06 0)
(2.94491e-08 -1.7914e-06 0)
(2.94086e-08 -1.79581e-06 0)
(2.93679e-08 -1.80022e-06 0)
(2.9327e-08 -1.80464e-06 0)
(2.9286e-08 -1.80906e-06 0)
(2.92448e-08 -1.81349e-06 0)
(2.92033e-08 -1.81792e-06 0)
(2.91617e-08 -1.82236e-06 0)
(2.91199e-08 -1.8268e-06 0)
(2.90779e-08 -1.83124e-06 0)
(2.90357e-08 -1.83569e-06 0)
(2.89934e-08 -1.84014e-06 0)
(2.89508e-08 -1.8446e-06 0)
(2.89081e-08 -1.84906e-06 0)
(2.88651e-08 -1.85352e-06 0)
(2.8822e-08 -1.85799e-06 0)
(2.87786e-08 -1.86246e-06 0)
(2.87351e-08 -1.86693e-06 0)
(2.86914e-08 -1.87141e-06 0)
(2.86475e-08 -1.8759e-06 0)
(2.86034e-08 -1.88038e-06 0)
(2.85591e-08 -1.88487e-06 0)
(2.85146e-08 -1.88936e-06 0)
(2.84699e-08 -1.89386e-06 0)
(2.8425e-08 -1.89836e-06 0)
(2.83799e-08 -1.90287e-06 0)
(2.83346e-08 -1.90737e-06 0)
(2.82891e-08 -1.91188e-06 0)
(2.82435e-08 -1.9164e-06 0)
(2.81976e-08 -1.92092e-06 0)
(2.81515e-08 -1.92544e-06 0)
(2.81052e-08 -1.92996e-06 0)
(2.80588e-08 -1.93449e-06 0)
(2.80121e-08 -1.93902e-06 0)
(2.79652e-08 -1.94355e-06 0)
(2.79181e-08 -1.94809e-06 0)
(2.78708e-08 -1.95263e-06 0)
(2.78234e-08 -1.95717e-06 0)
(2.77757e-08 -1.96172e-06 0)
(2.77278e-08 -1.96626e-06 0)
(2.76797e-08 -1.97082e-06 0)
(2.76314e-08 -1.97537e-06 0)
(2.75829e-08 -1.97993e-06 0)
(2.75342e-08 -1.98449e-06 0)
(2.74853e-08 -1.98905e-06 0)
(2.74362e-08 -1.99361e-06 0)
(2.73869e-08 -1.99818e-06 0)
(2.73374e-08 -2.00275e-06 0)
(2.72877e-08 -2.00732e-06 0)
(2.72378e-08 -2.0119e-06 0)
(2.71876e-08 -2.01647e-06 0)
(2.71373e-08 -2.02105e-06 0)
(2.70867e-08 -2.02564e-06 0)
(2.7036e-08 -2.03022e-06 0)
(2.6985e-08 -2.03481e-06 0)
(2.69339e-08 -2.03939e-06 0)
(2.68825e-08 -2.04398e-06 0)
(2.68309e-08 -2.04858e-06 0)
(2.67791e-08 -2.05317e-06 0)
(2.67271e-08 -2.05777e-06 0)
(2.66749e-08 -2.06237e-06 0)
(2.66225e-08 -2.06697e-06 0)
(2.65699e-08 -2.07157e-06 0)
(2.65171e-08 -2.07617e-06 0)
(2.6464e-08 -2.08078e-06 0)
(2.64108e-08 -2.08538e-06 0)
(2.63574e-08 -2.08999e-06 0)
(2.63037e-08 -2.0946e-06 0)
(2.62498e-08 -2.09921e-06 0)
(2.61957e-08 -2.10382e-06 0)
(2.61414e-08 -2.10844e-06 0)
(2.60869e-08 -2.11305e-06 0)
(2.60322e-08 -2.11767e-06 0)
(2.59773e-08 -2.12229e-06 0)
(2.59222e-08 -2.1269e-06 0)
(2.58668e-08 -2.13152e-06 0)
(2.58113e-08 -2.13614e-06 0)
(2.57555e-08 -2.14077e-06 0)
(2.56995e-08 -2.14539e-06 0)
(2.56434e-08 -2.15001e-06 0)
(2.5587e-08 -2.15463e-06 0)
(2.55304e-08 -2.15926e-06 0)
(2.54736e-08 -2.16388e-06 0)
(2.54165e-08 -2.16851e-06 0)
(2.53593e-08 -2.17314e-06 0)
(2.53018e-08 -2.17776e-06 0)
(2.52442e-08 -2.18239e-06 0)
(2.51863e-08 -2.18702e-06 0)
(2.51283e-08 -2.19164e-06 0)
(2.507e-08 -2.19627e-06 0)
(2.50115e-08 -2.2009e-06 0)
(2.49528e-08 -2.20553e-06 0)
(2.48938e-08 -2.21016e-06 0)
(2.48347e-08 -2.21478e-06 0)
(2.47754e-08 -2.21941e-06 0)
(2.47158e-08 -2.22404e-06 0)
(2.46561e-08 -2.22867e-06 0)
(2.45961e-08 -2.23329e-06 0)
(2.45359e-08 -2.23792e-06 0)
(2.44756e-08 -2.24255e-06 0)
(2.4415e-08 -2.24717e-06 0)
(2.43542e-08 -2.2518e-06 0)
(2.42932e-08 -2.25642e-06 0)
(2.4232e-08 -2.26104e-06 0)
(2.41705e-08 -2.26567e-06 0)
(2.41089e-08 -2.27029e-06 0)
(2.40471e-08 -2.27491e-06 0)
(2.3985e-08 -2.27953e-06 0)
(2.39228e-08 -2.28415e-06 0)
(2.38603e-08 -2.28876e-06 0)
(2.37977e-08 -2.29338e-06 0)
(2.37348e-08 -2.298e-06 0)
(2.36717e-08 -2.30261e-06 0)
(2.36084e-08 -2.30722e-06 0)
(2.35449e-08 -2.31183e-06 0)
(2.34813e-08 -2.31644e-06 0)
(2.34174e-08 -2.32105e-06 0)
(2.33533e-08 -2.32565e-06 0)
(2.3289e-08 -2.33026e-06 0)
(2.32245e-08 -2.33486e-06 0)
(2.31598e-08 -2.33946e-06 0)
(2.30949e-08 -2.34406e-06 0)
(2.30298e-08 -2.34865e-06 0)
(2.29645e-08 -2.35325e-06 0)
(2.2899e-08 -2.35784e-06 0)
(2.28333e-08 -2.36243e-06 0)
(2.27673e-08 -2.36701e-06 0)
(2.27012e-08 -2.3716e-06 0)
(2.26349e-08 -2.37618e-06 0)
(2.25684e-08 -2.38076e-06 0)
(2.25018e-08 -2.38533e-06 0)
(2.24349e-08 -2.38991e-06 0)
(2.23678e-08 -2.39448e-06 0)
(2.23005e-08 -2.39904e-06 0)
(2.2233e-08 -2.40361e-06 0)
(2.21654e-08 -2.40817e-06 0)
(2.20975e-08 -2.41273e-06 0)
(2.20294e-08 -2.41728e-06 0)
(2.19612e-08 -2.42183e-06 0)
(2.18928e-08 -2.42638e-06 0)
(2.18241e-08 -2.43093e-06 0)
(2.17554e-08 -2.43547e-06 0)
(2.1686e-08 -2.44001e-06 0)
(2.16185e-08 -2.44452e-06 0)
(2.15537e-08 -2.44881e-06 0)
(2.14899e-08 -2.45289e-06 0)
(2.14267e-08 -2.45693e-06 0)
(2.13632e-08 -2.46102e-06 0)
(2.1299e-08 -2.46516e-06 0)
(2.12341e-08 -2.46933e-06 0)
(2.11685e-08 -2.47353e-06 0)
(2.11022e-08 -2.47776e-06 0)
(2.10352e-08 -2.48203e-06 0)
(2.09674e-08 -2.48633e-06 0)
(2.08988e-08 -2.49066e-06 0)
(2.08295e-08 -2.49502e-06 0)
(2.07595e-08 -2.49942e-06 0)
(2.06887e-08 -2.50384e-06 0)
(2.06171e-08 -2.5083e-06 0)
(2.05447e-08 -2.5128e-06 0)
(2.04715e-08 -2.51732e-06 0)
(2.03976e-08 -2.52188e-06 0)
(2.03228e-08 -2.52648e-06 0)
(2.02472e-08 -2.5311e-06 0)
(2.01708e-08 -2.53576e-06 0)
(2.00936e-08 -2.54045e-06 0)
(2.00156e-08 -2.54517e-06 0)
(1.99367e-08 -2.54993e-06 0)
(1.98569e-08 -2.55471e-06 0)
(1.97763e-08 -2.55954e-06 0)
(1.96949e-08 -2.56439e-06 0)
(1.96126e-08 -2.56927e-06 0)
(1.95294e-08 -2.57419e-06 0)
(1.94454e-08 -2.57914e-06 0)
(1.93604e-08 -2.58412e-06 0)
(1.92746e-08 -2.58914e-06 0)
(1.91878e-08 -2.59418e-06 0)
(1.91002e-08 -2.59926e-06 0)
(1.90117e-08 -2.60437e-06 0)
(1.89222e-08 -2.60951e-06 0)
(1.88318e-08 -2.61468e-06 0)
(1.87405e-08 -2.61988e-06 0)
(1.86482e-08 -2.62512e-06 0)
(1.8555e-08 -2.63038e-06 0)
(1.84609e-08 -2.63568e-06 0)
(1.83658e-08 -2.641e-06 0)
(1.82697e-08 -2.64635e-06 0)
(1.81727e-08 -2.65174e-06 0)
(1.80747e-08 -2.65715e-06 0)
(1.79757e-08 -2.66259e-06 0)
(1.78758e-08 -2.66807e-06 0)
(1.77748e-08 -2.67357e-06 0)
(1.76729e-08 -2.67909e-06 0)
(1.757e-08 -2.68465e-06 0)
(1.74661e-08 -2.69023e-06 0)
(1.73611e-08 -2.69584e-06 0)
(1.72552e-08 -2.70148e-06 0)
(1.71483e-08 -2.70714e-06 0)
(1.70403e-08 -2.71283e-06 0)
(1.69314e-08 -2.71854e-06 0)
(1.68214e-08 -2.72428e-06 0)
(1.67104e-08 -2.73004e-06 0)
(1.65983e-08 -2.73583e-06 0)
(1.64853e-08 -2.74164e-06 0)
(1.63712e-08 -2.74747e-06 0)
(1.62561e-08 -2.75333e-06 0)
(1.61399e-08 -2.75921e-06 0)
(1.60227e-08 -2.7651e-06 0)
(1.59045e-08 -2.77102e-06 0)
(1.57853e-08 -2.77696e-06 0)
(1.5665e-08 -2.78292e-06 0)
(1.55437e-08 -2.78889e-06 0)
(1.54213e-08 -2.79488e-06 0)
(1.5298e-08 -2.80089e-06 0)
(1.51736e-08 -2.80692e-06 0)
(1.50481e-08 -2.81296e-06 0)
(1.49217e-08 -2.81902e-06 0)
(1.47942e-08 -2.82509e-06 0)
(1.46657e-08 -2.83117e-06 0)
(1.45362e-08 -2.83727e-06 0)
(1.44057e-08 -2.84338e-06 0)
(1.42742e-08 -2.84949e-06 0)
(1.41417e-08 -2.85562e-06 0)
(1.40082e-08 -2.86176e-06 0)
(1.38737e-08 -2.8679e-06 0)
(1.37383e-08 -2.87405e-06 0)
(1.36018e-08 -2.8802e-06 0)
(1.34645e-08 -2.88636e-06 0)
(1.33261e-08 -2.89253e-06 0)
(1.31868e-08 -2.89869e-06 0)
(1.30466e-08 -2.90486e-06 0)
(1.29055e-08 -2.91102e-06 0)
(1.27634e-08 -2.91719e-06 0)
(1.26204e-08 -2.92335e-06 0)
(1.24766e-08 -2.92951e-06 0)
(1.23319e-08 -2.93567e-06 0)
(1.21863e-08 -2.94182e-06 0)
(1.20399e-08 -2.94796e-06 0)
(1.18927e-08 -2.95409e-06 0)
(1.17446e-08 -2.96021e-06 0)
(1.15958e-08 -2.96632e-06 0)
(1.14462e-08 -2.97242e-06 0)
(1.12958e-08 -2.97851e-06 0)
(1.11447e-08 -2.98458e-06 0)
(1.09929e-08 -2.99063e-06 0)
(1.08404e-08 -2.99666e-06 0)
(1.06872e-08 -3.00268e-06 0)
(1.05334e-08 -3.00867e-06 0)
(1.03789e-08 -3.01464e-06 0)
(1.02238e-08 -3.02058e-06 0)
(1.00682e-08 -3.0265e-06 0)
(9.91198e-09 -3.03239e-06 0)
(9.75527e-09 -3.03825e-06 0)
(9.59805e-09 -3.04408e-06 0)
(9.44038e-09 -3.04988e-06 0)
(9.28226e-09 -3.05565e-06 0)
(9.12374e-09 -3.06137e-06 0)
(8.96484e-09 -3.06706e-06 0)
(8.8056e-09 -3.07271e-06 0)
(8.64605e-09 -3.07832e-06 0)
(8.48622e-09 -3.08389e-06 0)
(8.32616e-09 -3.08941e-06 0)
(8.16588e-09 -3.09488e-06 0)
(8.00544e-09 -3.10031e-06 0)
(7.84486e-09 -3.10568e-06 0)
(7.68419e-09 -3.11101e-06 0)
(7.52346e-09 -3.11628e-06 0)
(7.36272e-09 -3.12149e-06 0)
(7.202e-09 -3.12665e-06 0)
(7.04135e-09 -3.13175e-06 0)
(6.8808e-09 -3.13678e-06 0)
(6.7204e-09 -3.14176e-06 0)
(6.56019e-09 -3.14666e-06 0)
(6.40022e-09 -3.15151e-06 0)
(6.24053e-09 -3.15628e-06 0)
(6.08116e-09 -3.16099e-06 0)
(5.92216e-09 -3.16562e-06 0)
(5.76358e-09 -3.17018e-06 0)
(5.60546e-09 -3.17466e-06 0)
(5.44786e-09 -3.17906e-06 0)
(5.2908e-09 -3.18339e-06 0)
(5.13436e-09 -3.18763e-06 0)
(4.97857e-09 -3.19179e-06 0)
(4.82347e-09 -3.19587e-06 0)
(4.66913e-09 -3.19986e-06 0)
(4.51559e-09 -3.20376e-06 0)
(4.3629e-09 -3.20758e-06 0)
(4.21111e-09 -3.2113e-06 0)
(4.06027e-09 -3.21493e-06 0)
(3.91042e-09 -3.21847e-06 0)
(3.76162e-09 -3.2219e-06 0)
(3.61392e-09 -3.22525e-06 0)
(3.46737e-09 -3.22849e-06 0)
(3.32201e-09 -3.23163e-06 0)
(3.1779e-09 -3.23467e-06 0)
(3.03508e-09 -3.23761e-06 0)
(2.8936e-09 -3.24044e-06 0)
(2.75352e-09 -3.24317e-06 0)
(2.61487e-09 -3.24579e-06 0)
(2.47772e-09 -3.2483e-06 0)
(2.34209e-09 -3.2507e-06 0)
(2.20805e-09 -3.25299e-06 0)
(2.07563e-09 -3.25517e-06 0)
(1.94488e-09 -3.25724e-06 0)
(1.81585e-09 -3.25919e-06 0)
(1.68858e-09 -3.26103e-06 0)
(1.5631e-09 -3.26275e-06 0)
(1.43947e-09 -3.26436e-06 0)
(1.31773e-09 -3.26585e-06 0)
(1.1979e-09 -3.26722e-06 0)
(1.08004e-09 -3.26848e-06 0)
(9.64181e-10 -3.26962e-06 0)
(8.50356e-10 -3.27064e-06 0)
(7.38603e-10 -3.27154e-06 0)
(6.28956e-10 -3.27232e-06 0)
(5.21449e-10 -3.27298e-06 0)
(4.16112e-10 -3.27352e-06 0)
(3.12978e-10 -3.27394e-06 0)
(2.12074e-10 -3.27425e-06 0)
(1.13432e-10 -3.27443e-06 0)
(1.70602e-11 -3.27449e-06 0)
(-7.69418e-11 -3.27444e-06 0)
(-1.68868e-10 -3.27426e-06 0)
(-2.5728e-10 -3.27397e-06 0)
(-3.48018e-10 -3.27356e-06 0)
(-4.43602e-10 -3.27296e-06 0)
(-5.38942e-10 -3.27215e-06 0)
(-6.32341e-10 -3.27118e-06 0)
(-7.2172e-10 -3.27006e-06 0)
(-8.06751e-10 -3.26881e-06 0)
(-8.87469e-10 -3.26741e-06 0)
(-9.63967e-10 -3.2659e-06 0)
(-1.03635e-09 -3.26426e-06 0)
(-1.10473e-09 -3.26251e-06 0)
(-1.16926e-09 -3.26065e-06 0)
(-1.23004e-09 -3.25869e-06 0)
(-1.2872e-09 -3.25663e-06 0)
(-1.34085e-09 -3.25449e-06 0)
(-1.39111e-09 -3.25226e-06 0)
(-1.43808e-09 -3.24995e-06 0)
(-1.48186e-09 -3.24757e-06 0)
(-1.52257e-09 -3.24512e-06 0)
(-1.5603e-09 -3.24261e-06 0)
(-1.59514e-09 -3.24004e-06 0)
(-1.6272e-09 -3.23742e-06 0)
(-1.65656e-09 -3.23474e-06 0)
(-1.6833e-09 -3.23203e-06 0)
(-1.70752e-09 -3.22927e-06 0)
(-1.72929e-09 -3.22647e-06 0)
(-1.74869e-09 -3.22364e-06 0)
(-1.7658e-09 -3.22078e-06 0)
(-1.78069e-09 -3.2179e-06 0)
(-1.79344e-09 -3.21499e-06 0)
(-1.8041e-09 -3.21207e-06 0)
(-1.81276e-09 -3.20913e-06 0)
(-1.81946e-09 -3.20617e-06 0)
(-1.82427e-09 -3.20321e-06 0)
(-1.82725e-09 -3.20024e-06 0)
(-1.82846e-09 -3.19727e-06 0)
(-1.82795e-09 -3.1943e-06 0)
(-1.82578e-09 -3.19133e-06 0)
(-1.82199e-09 -3.18837e-06 0)
(-1.81663e-09 -3.18541e-06 0)
(-1.80976e-09 -3.18246e-06 0)
(-1.80141e-09 -3.17953e-06 0)
(-1.79163e-09 -3.17661e-06 0)
(-1.78046e-09 -3.17371e-06 0)
(-1.76795e-09 -3.17082e-06 0)
(-1.75413e-09 -3.16796e-06 0)
(-1.73904e-09 -3.16512e-06 0)
(-1.72271e-09 -3.16231e-06 0)
(-1.70519e-09 -3.15952e-06 0)
(-1.68651e-09 -3.15677e-06 0)
(-1.66669e-09 -3.15404e-06 0)
(-1.64578e-09 -3.15135e-06 0)
(-1.6238e-09 -3.1487e-06 0)
(-1.60079e-09 -3.14608e-06 0)
(-1.57677e-09 -3.14349e-06 0)
(-1.55177e-09 -3.14095e-06 0)
(-1.52583e-09 -3.13845e-06 0)
(-1.49896e-09 -3.13599e-06 0)
(-1.47119e-09 -3.13358e-06 0)
(-1.44256e-09 -3.13121e-06 0)
(-1.41308e-09 -3.12889e-06 0)
(-1.38278e-09 -3.12662e-06 0)
(-1.35169e-09 -3.12439e-06 0)
(-1.31983e-09 -3.12222e-06 0)
(-1.28723e-09 -3.1201e-06 0)
(-1.2539e-09 -3.11804e-06 0)
(-1.21987e-09 -3.11602e-06 0)
(-1.18517e-09 -3.11407e-06 0)
(-1.14982e-09 -3.11217e-06 0)
(-1.11384e-09 -3.11033e-06 0)
(-1.07725e-09 -3.10855e-06 0)
(-1.04007e-09 -3.10682e-06 0)
(-1.00233e-09 -3.10516e-06 0)
(-9.64055e-10 -3.10356e-06 0)
(-9.25258e-10 -3.10202e-06 0)
(-8.85967e-10 -3.10055e-06 0)
(-8.462e-10 -3.09914e-06 0)
(-8.05981e-10 -3.09779e-06 0)
(-7.65331e-10 -3.09651e-06 0)
(-7.24273e-10 -3.0953e-06 0)
(-6.82826e-10 -3.09415e-06 0)
(-6.41015e-10 -3.09307e-06 0)
(-5.98859e-10 -3.09205e-06 0)
(-5.56382e-10 -3.09111e-06 0)
(-5.13604e-10 -3.09024e-06 0)
(-4.70548e-10 -3.08943e-06 0)
(-4.27237e-10 -3.08869e-06 0)
(-3.83694e-10 -3.08805e-06 0)
(-3.39943e-10 -3.08739e-06 0)
(-2.96016e-10 -3.08708e-06 0)
(-2.51921e-10 -3.08591e-06 0)
(-2.07745e-10 -3.08787e-06 0)
(-1.63357e-10 -3.07953e-06 0)
(-1.19162e-10 -3.10437e-06 0)
(-7.45924e-11 -3.01127e-06 0)
(-2.92657e-11 -3.25852e-06 0)
(-3.30813e-12 -2.846e-06 0)
)
;
    }
    bottomWall
    {
        type            calculated;
        value           nonuniform List<vector> 
449
(
(-48.4841 -0.963424 0)
(-19.7362 -0.00514903 0)
(-14.3372 -0.00113235 0)
(-12.0356 -0.000542735 0)
(-10.6402 -0.000347243 0)
(-9.66467 -0.000248223 0)
(-8.94136 -0.000182818 0)
(-8.41044 -0.000125292 0)
(-8.08008 -5.43957e-05 0)
(-8.03696 6.4042e-05 0)
(-8.52675 0.000247655 0)
(-9.75625 0.000337468 0)
(-10.8674 0.000261902 0)
(-11.5745 0.000158099 0)
(-11.9683 8.72597e-05 0)
(-12.1839 4.62784e-05 0)
(-12.2923 2.10639e-05 0)
(-12.3317 3.93726e-06 0)
(-12.3199 -7.33472e-06 0)
(-12.2799 -1.4053e-05 0)
(-12.2205 -1.85e-05 0)
(-12.1487 -2.1088e-05 0)
(-12.0706 -2.23064e-05 0)
(-11.9898 -2.27223e-05 0)
(-11.9083 -2.26607e-05 0)
(-11.8276 -2.23331e-05 0)
(-11.7481 -2.1838e-05 0)
(-11.6706 -2.12172e-05 0)
(-11.5952 -2.054e-05 0)
(-11.5222 -1.98429e-05 0)
(-11.4515 -1.91459e-05 0)
(-11.3832 -1.84607e-05 0)
(-11.3172 -1.77962e-05 0)
(-11.2534 -1.71555e-05 0)
(-11.1917 -1.65491e-05 0)
(-11.1321 -1.59807e-05 0)
(-11.0744 -1.5434e-05 0)
(-11.0185 -1.49039e-05 0)
(-10.9644 -1.43984e-05 0)
(-10.912 -1.39186e-05 0)
(-10.8612 -1.34633e-05 0)
(-10.8119 -1.30314e-05 0)
(-10.7641 -1.26232e-05 0)
(-10.7176 -1.22353e-05 0)
(-10.6725 -1.18656e-05 0)
(-10.6286 -1.1514e-05 0)
(-10.5859 -1.11821e-05 0)
(-10.5443 -1.08639e-05 0)
(-10.5038 -1.05674e-05 0)
(-10.4643 -1.03067e-05 0)
(-10.4256 -1.00733e-05 0)
(-10.3876 -9.85339e-06 0)
(-10.3504 -9.64068e-06 0)
(-10.3139 -9.43161e-06 0)
(-10.2781 -9.22599e-06 0)
(-10.243 -9.02269e-06 0)
(-10.2086 -8.82398e-06 0)
(-10.1749 -8.63129e-06 0)
(-10.1419 -8.44345e-06 0)
(-10.1094 -8.26082e-06 0)
(-10.0776 -8.08453e-06 0)
(-10.0464 -7.91539e-06 0)
(-10.0158 -7.75084e-06 0)
(-9.98576 -7.59051e-06 0)
(-9.95626 -7.4347e-06 0)
(-9.92728 -7.28557e-06 0)
(-9.89882 -7.14169e-06 0)
(-9.87084 -7.00243e-06 0)
(-9.84335 -6.866e-06 0)
(-9.81632 -6.73731e-06 0)
(-9.78973 -6.61498e-06 0)
(-9.76355 -6.49274e-06 0)
(-9.73781 -6.37266e-06 0)
(-9.71247 -6.25693e-06 0)
(-9.68754 -6.1452e-06 0)
(-9.66299 -6.03507e-06 0)
(-9.63882 -5.92813e-06 0)
(-9.61502 -5.82365e-06 0)
(-9.59159 -5.7221e-06 0)
(-9.5685 -5.62363e-06 0)
(-9.54576 -5.52787e-06 0)
(-9.52335 -5.43472e-06 0)
(-9.50127 -5.34424e-06 0)
(-9.4795 -5.25595e-06 0)
(-9.45803 -5.1699e-06 0)
(-9.43687 -5.0866e-06 0)
(-9.416 -5.00517e-06 0)
(-9.3954 -4.92724e-06 0)
(-9.37508 -4.8508e-06 0)
(-9.35503 -4.77566e-06 0)
(-9.33524 -4.70295e-06 0)
(-9.3157 -4.63123e-06 0)
(-9.29642 -4.5616e-06 0)
(-9.27737 -4.49364e-06 0)
(-9.25857 -4.42647e-06 0)
(-9.24 -4.36216e-06 0)
(-9.22166 -4.29873e-06 0)
(-9.20354 -4.2365e-06 0)
(-9.18564 -4.1767e-06 0)
(-9.16795 -4.11725e-06 0)
(-9.15047 -4.06185e-06 0)
(-9.13317 -4.00916e-06 0)
(-9.11606 -3.95501e-06 0)
(-9.09914 -3.9018e-06 0)
(-9.08242 -3.84904e-06 0)
(-9.06588 -3.79694e-06 0)
(-9.04952 -3.74708e-06 0)
(-9.03334 -3.69771e-06 0)
(-9.01733 -3.64876e-06 0)
(-9.0015 -3.60198e-06 0)
(-8.98583 -3.55564e-06 0)
(-8.97033 -3.50953e-06 0)
(-8.95499 -3.46563e-06 0)
(-8.9398 -3.4222e-06 0)
(-8.92478 -3.3788e-06 0)
(-8.9099 -3.33738e-06 0)
(-8.89517 -3.29667e-06 0)
(-8.88059 -3.25581e-06 0)
(-8.86616 -3.21645e-06 0)
(-8.85186 -3.17832e-06 0)
(-8.8377 -3.13992e-06 0)
(-8.82367 -3.10247e-06 0)
(-8.80978 -3.06671e-06 0)
(-8.79602 -3.03073e-06 0)
(-8.78239 -2.99495e-06 0)
(-8.76888 -2.96089e-06 0)
(-8.7555 -2.92729e-06 0)
(-8.74223 -2.89359e-06 0)
(-8.72909 -2.86088e-06 0)
(-8.71607 -2.82937e-06 0)
(-8.70315 -2.79774e-06 0)
(-8.69036 -2.76624e-06 0)
(-8.67767 -2.73618e-06 0)
(-8.66509 -2.70666e-06 0)
(-8.65262 -2.67689e-06 0)
(-8.64026 -2.64785e-06 0)
(-8.628 -2.62008e-06 0)
(-8.61584 -2.59218e-06 0)
(-8.60378 -2.56417e-06 0)
(-8.59183 -2.5374e-06 0)
(-8.57996 -2.51144e-06 0)
(-8.5682 -2.48512e-06 0)
(-8.55653 -2.45901e-06 0)
(-8.54495 -2.43414e-06 0)
(-8.53346 -2.40971e-06 0)
(-8.52206 -2.38493e-06 0)
(-8.51075 -2.36109e-06 0)
(-8.49953 -2.33941e-06 0)
(-8.48838 -2.31777e-06 0)
(-8.47731 -2.29484e-06 0)
(-8.46632 -2.27209e-06 0)
(-8.45542 -2.25019e-06 0)
(-8.44459 -2.22853e-06 0)
(-8.43385 -2.2067e-06 0)
(-8.42318 -2.18521e-06 0)
(-8.4126 -2.16453e-06 0)
(-8.40209 -2.14422e-06 0)
(-8.39165 -2.1237e-06 0)
(-8.38129 -2.10335e-06 0)
(-8.371 -2.08381e-06 0)
(-8.36078 -2.06479e-06 0)
(-8.35063 -2.04552e-06 0)
(-8.34056 -2.02618e-06 0)
(-8.33055 -2.00766e-06 0)
(-8.32062 -1.98977e-06 0)
(-8.31074 -1.97169e-06 0)
(-8.30094 -1.95347e-06 0)
(-8.2912 -1.93578e-06 0)
(-8.28153 -1.91892e-06 0)
(-8.27191 -1.90192e-06 0)
(-8.26237 -1.88508e-06 0)
(-8.25288 -1.86803e-06 0)
(-8.24346 -1.84958e-06 0)
(-8.23463 -1.83622e-06 0)
(-8.22631 -1.82466e-06 0)
(-8.21797 -1.80855e-06 0)
(-8.20961 -1.79354e-06 0)
(-8.20123 -1.77976e-06 0)
(-8.19282 -1.76589e-06 0)
(-8.18439 -1.75184e-06 0)
(-8.17593 -1.73745e-06 0)
(-8.16745 -1.72355e-06 0)
(-8.15895 -1.70994e-06 0)
(-8.15042 -1.69645e-06 0)
(-8.14187 -1.68254e-06 0)
(-8.1333 -1.66847e-06 0)
(-8.12471 -1.65491e-06 0)
(-8.11609 -1.64159e-06 0)
(-8.10745 -1.62823e-06 0)
(-8.09879 -1.61459e-06 0)
(-8.09011 -1.60094e-06 0)
(-8.0814 -1.58773e-06 0)
(-8.07268 -1.57468e-06 0)
(-8.06393 -1.56146e-06 0)
(-8.05516 -1.54809e-06 0)
(-8.04638 -1.5349e-06 0)
(-8.03757 -1.522e-06 0)
(-8.02874 -1.50927e-06 0)
(-8.0199 -1.49625e-06 0)
(-8.01103 -1.48313e-06 0)
(-8.00214 -1.4704e-06 0)
(-7.99324 -1.45788e-06 0)
(-7.98431 -1.4453e-06 0)
(-7.97537 -1.43255e-06 0)
(-7.96641 -1.4199e-06 0)
(-7.95743 -1.40755e-06 0)
(-7.94844 -1.39539e-06 0)
(-7.93942 -1.38298e-06 0)
(-7.93039 -1.37046e-06 0)
(-7.92134 -1.35831e-06 0)
(-7.91228 -1.3464e-06 0)
(-7.90319 -1.33434e-06 0)
(-7.8941 -1.32278e-06 0)
(-7.88497 -1.31183e-06 0)
(-7.87583 -1.30055e-06 0)
(-7.86667 -1.28893e-06 0)
(-7.85749 -1.27709e-06 0)
(-7.8483 -1.26527e-06 0)
(-7.83909 -1.25377e-06 0)
(-7.82987 -1.24245e-06 0)
(-7.82064 -1.23092e-06 0)
(-7.81139 -1.21932e-06 0)
(-7.80212 -1.20807e-06 0)
(-7.79285 -1.19706e-06 0)
(-7.78355 -1.18584e-06 0)
(-7.77425 -1.1745e-06 0)
(-7.76493 -1.16351e-06 0)
(-7.7556 -1.15278e-06 0)
(-7.74626 -1.14187e-06 0)
(-7.73691 -1.13085e-06 0)
(-7.72754 -1.12012e-06 0)
(-7.71816 -1.10965e-06 0)
(-7.70877 -1.09904e-06 0)
(-7.69937 -1.08833e-06 0)
(-7.68996 -1.07788e-06 0)
(-7.68054 -1.06768e-06 0)
(-7.6711 -1.05736e-06 0)
(-7.66166 -1.04694e-06 0)
(-7.65221 -1.03678e-06 0)
(-7.64274 -1.02687e-06 0)
(-7.63327 -1.01682e-06 0)
(-7.62379 -1.0067e-06 0)
(-7.6143 -9.96842e-07 0)
(-7.60479 -9.87206e-07 0)
(-7.59528 -9.77432e-07 0)
(-7.58577 -9.67597e-07 0)
(-7.57624 -9.58055e-07 0)
(-7.56671 -9.4871e-07 0)
(-7.55716 -9.39194e-07 0)
(-7.54762 -9.2965e-07 0)
(-7.53806 -9.20422e-07 0)
(-7.5285 -9.11324e-07 0)
(-7.51893 -9.02072e-07 0)
(-7.50935 -8.92861e-07 0)
(-7.49977 -8.8392e-07 0)
(-7.49018 -8.75052e-07 0)
(-7.48058 -8.66076e-07 0)
(-7.47098 -8.57199e-07 0)
(-7.46138 -8.48555e-07 0)
(-7.45176 -8.39916e-07 0)
(-7.44215 -8.31205e-07 0)
(-7.43253 -8.22653e-07 0)
(-7.4229 -8.14301e-07 0)
(-7.41327 -8.05886e-07 0)
(-7.40363 -7.97442e-07 0)
(-7.394 -7.89208e-07 0)
(-7.38435 -7.81112e-07 0)
(-7.37471 -7.72931e-07 0)
(-7.36506 -7.64791e-07 0)
(-7.35541 -7.56866e-07 0)
(-7.34575 -7.48981e-07 0)
(-7.3361 -7.41048e-07 0)
(-7.32644 -7.33233e-07 0)
(-7.31678 -7.26086e-07 0)
(-7.3071 -7.19048e-07 0)
(-7.29741 -7.11488e-07 0)
(-7.28773 -7.03981e-07 0)
(-7.27805 -6.96568e-07 0)
(-7.26836 -6.89109e-07 0)
(-7.25867 -6.81707e-07 0)
(-7.24898 -6.74489e-07 0)
(-7.23929 -6.67282e-07 0)
(-7.2296 -6.60044e-07 0)
(-7.21992 -6.52946e-07 0)
(-7.21023 -6.45983e-07 0)
(-7.20054 -6.38969e-07 0)
(-7.19085 -6.31977e-07 0)
(-7.18116 -6.25176e-07 0)
(-7.17148 -6.18415e-07 0)
(-7.16179 -6.11615e-07 0)
(-7.15211 -6.04937e-07 0)
(-7.14243 -5.98405e-07 0)
(-7.13275 -5.91826e-07 0)
(-7.12307 -5.85259e-07 0)
(-7.11339 -5.78873e-07 0)
(-7.10372 -5.7253e-07 0)
(-7.09405 -5.6615e-07 0)
(-7.08438 -5.59882e-07 0)
(-7.07472 -5.53753e-07 0)
(-7.06506 -5.47584e-07 0)
(-7.0554 -5.41436e-07 0)
(-7.04575 -5.35454e-07 0)
(-7.0361 -5.29504e-07 0)
(-7.02645 -5.23525e-07 0)
(-7.01681 -5.17663e-07 0)
(-7.00717 -5.11911e-07 0)
(-6.99754 -5.06126e-07 0)
(-6.98791 -5.00382e-07 0)
(-6.97829 -4.94793e-07 0)
(-6.96867 -4.89208e-07 0)
(-6.95906 -4.83612e-07 0)
(-6.94946 -4.78144e-07 0)
(-6.93985 -4.72749e-07 0)
(-6.93026 -4.67328e-07 0)
(-6.92067 -4.61978e-07 0)
(-6.91109 -4.56755e-07 0)
(-6.90152 -4.51514e-07 0)
(-6.89195 -4.46285e-07 0)
(-6.88239 -4.412e-07 0)
(-6.87283 -4.36142e-07 0)
(-6.86329 -4.31071e-07 0)
(-6.85375 -4.26102e-07 0)
(-6.84422 -4.21212e-07 0)
(-6.83469 -4.16303e-07 0)
(-6.82518 -4.1145e-07 0)
(-6.81567 -4.06714e-07 0)
(-6.80617 -4.01968e-07 0)
(-6.79668 -3.97238e-07 0)
(-6.78721 -3.92624e-07 0)
(-6.77773 -3.88252e-07 0)
(-6.76826 -3.83956e-07 0)
(-6.75879 -3.79523e-07 0)
(-6.74934 -3.75082e-07 0)
(-6.73989 -3.70632e-07 0)
(-6.73045 -3.66247e-07 0)
(-6.72102 -3.61952e-07 0)
(-6.71161 -3.57653e-07 0)
(-6.7022 -3.53381e-07 0)
(-6.69281 -3.49247e-07 0)
(-6.68342 -3.45141e-07 0)
(-6.67404 -3.41018e-07 0)
(-6.66468 -3.36966e-07 0)
(-6.65532 -3.32945e-07 0)
(-6.64598 -3.28925e-07 0)
(-6.63665 -3.24987e-07 0)
(-6.62733 -3.21097e-07 0)
(-6.61802 -3.17215e-07 0)
(-6.60873 -3.13378e-07 0)
(-6.59945 -3.09624e-07 0)
(-6.59018 -3.05848e-07 0)
(-6.58092 -3.02145e-07 0)
(-6.57168 -2.98422e-07 0)
(-6.56245 -2.9485e-07 0)
(-6.55323 -2.91401e-07 0)
(-6.54299 -2.87287e-07 0)
(-6.53184 -2.82875e-07 0)
(-6.52086 -2.78858e-07 0)
(-6.51002 -2.74925e-07 0)
(-6.49935 -2.70988e-07 0)
(-6.48882 -2.67178e-07 0)
(-6.47845 -2.63449e-07 0)
(-6.46821 -2.59789e-07 0)
(-6.45812 -2.56242e-07 0)
(-6.44817 -2.52765e-07 0)
(-6.43835 -2.49357e-07 0)
(-6.42866 -2.46054e-07 0)
(-6.4191 -2.42815e-07 0)
(-6.40966 -2.39628e-07 0)
(-6.40036 -2.36549e-07 0)
(-6.39116 -2.33523e-07 0)
(-6.38209 -2.30548e-07 0)
(-6.37312 -2.27664e-07 0)
(-6.36428 -2.2484e-07 0)
(-6.35553 -2.22052e-07 0)
(-6.34691 -2.19347e-07 0)
(-6.33837 -2.16704e-07 0)
(-6.32995 -2.14095e-07 0)
(-6.32162 -2.11545e-07 0)
(-6.3134 -2.09073e-07 0)
(-6.30527 -2.06626e-07 0)
(-6.29724 -2.04221e-07 0)
(-6.28929 -2.0189e-07 0)
(-6.28145 -1.99602e-07 0)
(-6.27368 -1.9742e-07 0)
(-6.266 -1.95342e-07 0)
(-6.2584 -1.9324e-07 0)
(-6.25089 -1.91121e-07 0)
(-6.24345 -1.89023e-07 0)
(-6.2361 -1.86993e-07 0)
(-6.22882 -1.84999e-07 0)
(-6.22163 -1.83029e-07 0)
(-6.2145 -1.81108e-07 0)
(-6.20746 -1.79246e-07 0)
(-6.20048 -1.77389e-07 0)
(-6.19358 -1.7555e-07 0)
(-6.18675 -1.7375e-07 0)
(-6.17999 -1.72007e-07 0)
(-6.17329 -1.70273e-07 0)
(-6.16667 -1.68562e-07 0)
(-6.1601 -1.66888e-07 0)
(-6.15362 -1.65267e-07 0)
(-6.14718 -1.63651e-07 0)
(-6.14081 -1.6206e-07 0)
(-6.1345 -1.60496e-07 0)
(-6.12826 -1.58987e-07 0)
(-6.12206 -1.57479e-07 0)
(-6.11594 -1.55999e-07 0)
(-6.10986 -1.54529e-07 0)
(-6.10385 -1.53122e-07 0)
(-6.09788 -1.51713e-07 0)
(-6.09199 -1.50339e-07 0)
(-6.08612 -1.4895e-07 0)
(-6.08033 -1.47638e-07 0)
(-6.07457 -1.4632e-07 0)
(-6.06889 -1.45048e-07 0)
(-6.06323 -1.43732e-07 0)
(-6.05764 -1.4251e-07 0)
(-6.05208 -1.41259e-07 0)
(-6.04659 -1.40094e-07 0)
(-6.04112 -1.38853e-07 0)
(-6.03573 -1.37719e-07 0)
(-6.03035 -1.36518e-07 0)
(-6.02505 -1.35458e-07 0)
(-6.01975 -1.34281e-07 0)
(-6.01455 -1.33248e-07 0)
(-6.00933 -1.32085e-07 0)
(-6.00422 -1.31122e-07 0)
(-5.99907 -1.3e-07 0)
(-5.99405 -1.29088e-07 0)
(-5.98897 -1.27955e-07 0)
(-5.98404 -1.27099e-07 0)
(-5.97903 -1.25999e-07 0)
(-5.97418 -1.25229e-07 0)
(-5.96923 -1.24137e-07 0)
(-5.96447 -1.23418e-07 0)
(-5.95958 -1.22348e-07 0)
(-5.9549 -1.21714e-07 0)
(-5.95006 -1.20744e-07 0)
(-5.94546 -1.20078e-07 0)
(-5.94067 -1.19473e-07 0)
(-5.93611 -1.18197e-07 0)
(-5.93142 -1.1932e-07 0)
(-5.92677 -1.14952e-07 0)
(-5.92244 -1.23047e-07 0)
(-5.91713 -1.05444e-07 0)
(-5.91424 -1.3651e-07 0)
(-5.90636 -8.31004e-08 0)
(-5.9079 -1.14903e-07 0)
(-5.89709 -1.43278e-07 0)
)
;
    }
    symmetry
    {
        type            symmetryPlane;
    }
    frontAndBack
    {
        type            empty;
    }
}


// ************************************************************************* //
