/*--------------------------------*- C++ -*----------------------------------*\
| =========                 |                                                 |
| \\      /  F ield         | OpenFOAM: The Open Source CFD Toolbox           |
|  \\    /   O peration     | Version:  v2012                                 |
|   \\  /    A nd           | Website:  www.openfoam.com                      |
|    \\/     M anipulation  |                                                 |
\*---------------------------------------------------------------------------*/
FoamFile
{
    version     2.0;
    format      ascii;
    class       volScalarField;
    location    "53";
    object      yPlus;
}
// * * * * * * * * * * * * * * * * * * * * * * * * * * * * * * * * * * * * * //

dimensions      [0 0 0 0 0 0 0];


internalField   uniform 0;

boundaryField
{
    inlet
    {
        type            calculated;
        value           uniform 0;
    }
    outlet
    {
        type            calculated;
        value           uniform 0;
    }
    topWall
    {
        type            calculated;
        value           nonuniform List<scalar> 
545
(
0.111334
0.191973
0.246284
0.289506
0.326099
0.358119
0.386721
0.412633
0.43635
0.458227
0.478531
0.497469
0.515203
0.531867
0.54757
0.562404
0.576448
0.589769
0.602424
0.614465
0.625937
0.636881
0.64733
0.657318
0.666874
0.676024
0.684792
0.693199
0.701266
0.709011
0.716452
0.723604
0.730482
0.737099
0.743468
0.749601
0.755509
0.761203
0.766691
0.771984
0.77709
0.782017
0.786773
0.791364
0.795799
0.800082
0.804222
0.808222
0.812089
0.815828
0.819444
0.822942
0.826326
0.829601
0.83277
0.835838
0.838808
0.841685
0.84447
0.847168
0.849782
0.852315
0.854769
0.857148
0.859453
0.861688
0.863855
0.865956
0.867994
0.86997
0.871887
0.873746
0.875527
0.877249
0.878959
0.880654
0.882337
0.884006
0.885662
0.887305
0.888935
0.890553
0.892158
0.893751
0.895331
0.896899
0.898455
0.899999
0.901531
0.903051
0.90456
0.906057
0.907543
0.909018
0.910481
0.911933
0.913242
0.914413
0.915583
0.916754
0.917924
0.919094
0.920264
0.921434
0.922604
0.923774
0.924943
0.926113
0.927282
0.928451
0.92962
0.930789
0.931957
0.933125
0.934294
0.935461
0.936629
0.937797
0.938964
0.940131
0.941298
0.942464
0.94363
0.944796
0.945962
0.947128
0.948293
0.949458
0.950622
0.951787
0.95295
0.954114
0.955277
0.95644
0.957603
0.958765
0.959927
0.961089
0.96225
0.963411
0.964571
0.965731
0.96689
0.96805
0.969208
0.970367
0.971524
0.972682
0.973839
0.974995
0.976151
0.977307
0.978462
0.979616
0.98077
0.981923
0.983076
0.984229
0.985381
0.986532
0.987683
0.988833
0.989982
0.991131
0.99228
0.993428
0.994575
0.995721
0.996867
0.998012
0.999157
1.0003
1.00144
1.00259
1.00373
1.00487
1.00601
1.00715
1.00829
1.00943
1.01056
1.0117
1.01284
1.01397
1.01511
1.01624
1.01737
1.0185
1.01964
1.02077
1.0219
1.02302
1.02415
1.02528
1.0264
1.02753
1.02865
1.02978
1.0309
1.03202
1.03314
1.03426
1.03538
1.03649
1.03761
1.03873
1.03984
1.04095
1.04207
1.04318
1.04429
1.0454
1.0465
1.04761
1.04872
1.04982
1.05092
1.05203
1.05313
1.05423
1.05532
1.05642
1.05752
1.05861
1.05971
1.0608
1.06189
1.06298
1.06407
1.06516
1.06624
1.06733
1.06841
1.06949
1.07057
1.07165
1.07273
1.07381
1.07488
1.07595
1.07703
1.0781
1.07917
1.08023
1.0813
1.08236
1.08343
1.08449
1.08555
1.08661
1.08767
1.08872
1.08977
1.09083
1.09188
1.09293
1.09397
1.09502
1.09606
1.09711
1.09815
1.09919
1.10022
1.10126
1.10229
1.10332
1.10435
1.10538
1.10641
1.10738
1.10829
1.10921
1.11013
1.11107
1.11201
1.11295
1.1139
1.11486
1.11583
1.1168
1.11778
1.11876
1.11975
1.12075
1.12175
1.12276
1.12378
1.1248
1.12583
1.12687
1.12791
1.12896
1.13001
1.13107
1.13214
1.13321
1.13429
1.13538
1.13647
1.13756
1.13867
1.13978
1.14089
1.14201
1.14314
1.14427
1.14541
1.14655
1.1477
1.14886
1.15002
1.15118
1.15235
1.15353
1.15471
1.1559
1.15709
1.15828
1.15948
1.16069
1.1619
1.16311
1.16433
1.16556
1.16678
1.16801
1.16925
1.17049
1.17173
1.17298
1.17423
1.17548
1.17673
1.17799
1.17926
1.18052
1.18179
1.18306
1.18433
1.1856
1.18688
1.18816
1.18943
1.19071
1.192
1.19328
1.19456
1.19585
1.19713
1.19842
1.1997
1.20098
1.20227
1.20355
1.20483
1.20612
1.2074
1.20867
1.20995
1.21123
1.2125
1.21377
1.21503
1.2163
1.21756
1.21882
1.22007
1.22132
1.22256
1.2238
1.22504
1.22626
1.22749
1.22871
1.22992
1.23112
1.23232
1.23351
1.2347
1.23587
1.23704
1.2382
1.23935
1.24049
1.24162
1.24275
1.24386
1.24496
1.24605
1.24713
1.2482
1.24926
1.25031
1.25134
1.25236
1.25337
1.25436
1.25534
1.25631
1.25726
1.2582
1.25912
1.26003
1.26092
1.26179
1.26265
1.26349
1.26432
1.26513
1.26592
1.26669
1.26744
1.26818
1.2689
1.2696
1.27028
1.27093
1.27157
1.27219
1.27279
1.27337
1.27393
1.27447
1.27498
1.27548
1.27595
1.2764
1.27683
1.27723
1.27762
1.27798
1.27832
1.27863
1.27892
1.27919
1.27944
1.27966
1.27986
1.28004
1.28019
1.28032
1.28043
1.28051
1.28057
1.28061
1.28062
1.28061
1.28058
1.28052
1.28045
1.28033
1.28017
1.27998
1.27976
1.27952
1.27925
1.27895
1.27863
1.27829
1.27792
1.27754
1.27714
1.27672
1.27628
1.27583
1.27536
1.27488
1.27439
1.27388
1.27337
1.27284
1.27231
1.27177
1.27122
1.27066
1.2701
1.26953
1.26895
1.26838
1.2678
1.26721
1.26663
1.26604
1.26545
1.26487
1.26428
1.26369
1.26311
1.26252
1.26194
1.26136
1.26078
1.26021
1.25964
1.25908
1.25852
1.25797
1.25742
1.25687
1.25634
1.25581
1.25529
1.25477
1.25426
1.25376
1.25327
1.25279
1.25232
1.25185
1.2514
1.25095
1.25052
1.2501
1.24968
1.24928
1.24889
1.24851
1.24814
1.24778
1.24743
1.2471
1.24678
1.24647
1.24617
1.24589
1.24562
1.24536
1.24512
1.24489
1.24467
1.24447
1.24428
1.2441
1.24394
1.24379
1.24366
1.24354
1.24343
1.24334
1.24326
1.2432
1.24315
1.24312
1.24311
1.24309
)
;
    }
    bottomWall
    {
        type            calculated;
        value           nonuniform List<scalar> 
449
(
0.139384
0.0889271
0.0757939
0.0694442
0.0652946
0.0622294
0.0598555
0.0580512
0.0568997
0.0567477
0.0584512
0.0625235
0.0659879
0.068101
0.0692497
0.0698708
0.0701808
0.0702932
0.0702596
0.0701453
0.0699755
0.0697697
0.0695451
0.0693119
0.0690761
0.0688415
0.0686098
0.068383
0.0681618
0.0679468
0.0677381
0.0675358
0.0673397
0.0671496
0.0669655
0.0667868
0.0666134
0.0664451
0.0662817
0.0661231
0.065969
0.0658192
0.0656735
0.0655317
0.0653935
0.0652589
0.0651277
0.0649996
0.0648747
0.0647525
0.0646326
0.0645148
0.0643992
0.0642855
0.0641739
0.0640643
0.0639567
0.0638509
0.0637471
0.0636451
0.063545
0.0634465
0.0633498
0.0632547
0.0631612
0.0630692
0.0629787
0.0628896
0.062802
0.0627157
0.0626307
0.0625469
0.0624644
0.0623831
0.062303
0.062224
0.0621461
0.0620693
0.0619937
0.061919
0.0618454
0.0617728
0.0617011
0.0616304
0.0615605
0.0614916
0.0614236
0.0613564
0.06129
0.0612244
0.0611596
0.0610956
0.0610323
0.0609698
0.0609079
0.0608468
0.0607864
0.0607267
0.0606676
0.0606091
0.0605513
0.0604941
0.0604374
0.0603813
0.0603257
0.0602708
0.0602164
0.0601625
0.0601092
0.0600564
0.0600041
0.0599523
0.0599011
0.0598503
0.0597999
0.0597501
0.0597007
0.0596517
0.0596032
0.0595551
0.0595075
0.0594603
0.0594134
0.059367
0.059321
0.0592754
0.0592301
0.0591852
0.0591407
0.0590966
0.0590528
0.0590093
0.0589663
0.0589235
0.0588811
0.058839
0.0587973
0.0587558
0.0587147
0.0586739
0.0586334
0.0585931
0.0585532
0.0585136
0.0584742
0.0584352
0.0583964
0.0583579
0.0583196
0.0582815
0.0582438
0.0582062
0.058169
0.058132
0.0580952
0.0580587
0.0580224
0.0579863
0.0579505
0.0579149
0.0578796
0.0578445
0.0578096
0.0577749
0.0577404
0.0577061
0.0576721
0.0576382
0.0576046
0.0575712
0.0575379
0.0575049
0.0574721
0.0574413
0.0574123
0.0573831
0.057354
0.0573247
0.0572953
0.0572658
0.0572362
0.0572065
0.0571767
0.0571468
0.0571168
0.0570868
0.0570566
0.0570263
0.056996
0.0569655
0.056935
0.0569043
0.0568736
0.0568428
0.0568119
0.0567809
0.0567498
0.0567186
0.0566874
0.056656
0.0566246
0.0565931
0.0565615
0.0565298
0.056498
0.0564662
0.0564343
0.0564023
0.0563702
0.056338
0.0563058
0.0562734
0.056241
0.0562085
0.0561759
0.0561432
0.0561105
0.0560777
0.0560448
0.0560118
0.0559787
0.0559456
0.0559124
0.0558792
0.0558459
0.0558125
0.055779
0.0557455
0.0557119
0.0556783
0.0556446
0.0556108
0.0555769
0.055543
0.0555091
0.0554751
0.055441
0.0554068
0.0553727
0.0553384
0.0553041
0.0552697
0.0552353
0.0552009
0.0551663
0.0551317
0.0550971
0.0550624
0.0550277
0.0549929
0.0549581
0.0549232
0.0548883
0.0548534
0.0548183
0.0547833
0.0547482
0.054713
0.0546779
0.0546426
0.0546074
0.054572
0.0545367
0.0545013
0.0544659
0.0544304
0.0543949
0.0543594
0.0543238
0.0542882
0.0542526
0.0542169
0.0541812
0.0541454
0.0541096
0.0540738
0.0540379
0.0540019
0.053966
0.05393
0.053894
0.053858
0.0538219
0.0537859
0.0537498
0.0537136
0.0536775
0.0536413
0.0536051
0.0535689
0.0535327
0.0534964
0.0534602
0.0534239
0.0533876
0.0533513
0.053315
0.0532786
0.0532423
0.0532059
0.0531695
0.0531332
0.0530967
0.0530603
0.0530239
0.0529875
0.0529511
0.0529146
0.0528782
0.0528417
0.0528053
0.0527688
0.0527324
0.0526959
0.0526594
0.052623
0.0525865
0.05255
0.0525136
0.0524771
0.0524407
0.0524042
0.0523678
0.0523313
0.0522949
0.0522584
0.052222
0.0521856
0.0521492
0.0521128
0.0520764
0.0520399
0.0520035
0.0519671
0.0519307
0.0518943
0.0518579
0.0518216
0.0517853
0.0517489
0.0517126
0.0516763
0.05164
0.0516038
0.0515676
0.0515313
0.0514951
0.051459
0.0514228
0.0513867
0.0513506
0.0513145
0.0512785
0.0512424
0.0512024
0.0511587
0.0511157
0.0510732
0.0510313
0.05099
0.0509492
0.050909
0.0508692
0.05083
0.0507913
0.0507531
0.0507153
0.050678
0.0506412
0.0506048
0.0505689
0.0505334
0.0504983
0.0504636
0.0504293
0.0503954
0.0503619
0.0503288
0.050296
0.0502636
0.0502316
0.0501999
0.0501686
0.0501376
0.0501069
0.0500765
0.0500464
0.0500166
0.0499872
0.049958
0.0499291
0.0499005
0.0498723
0.0498442
0.0498165
0.049789
0.0497618
0.0497348
0.0497081
0.0496817
0.0496555
0.0496295
0.0496038
0.0495783
0.0495531
0.049528
0.0495032
0.0494786
0.0494543
0.0494301
0.0494062
0.0493824
0.0493589
0.0493355
0.0493125
0.0492894
0.0492668
0.0492441
0.0492218
0.0491995
0.0491776
0.0491556
0.049134
0.0491124
0.0490912
0.0490699
0.049049
0.049028
0.0490075
0.0489867
0.0489665
0.048946
0.0489262
0.0489059
0.0488864
0.0488663
0.0488472
0.0488273
0.0488084
0.0487887
0.04877
0.0487508
0.0487317
0.0487139
0.048692
0.0486801
0.0486477
0.048654
0.0486095
)
;
    }
    symmetry
    {
        type            symmetryPlane;
    }
    frontAndBack
    {
        type            empty;
    }
}


// ************************************************************************* //
