/*--------------------------------*- C++ -*----------------------------------*\
| =========                 |                                                 |
| \\      /  F ield         | OpenFOAM: The Open Source CFD Toolbox           |
|  \\    /   O peration     | Version:  v2012                                 |
|   \\  /    A nd           | Website:  www.openfoam.com                      |
|    \\/     M anipulation  |                                                 |
\*---------------------------------------------------------------------------*/
FoamFile
{
    version     2.0;
    format      ascii;
    class       volScalarField;
    location    "51.5";
    object      k;
}
// * * * * * * * * * * * * * * * * * * * * * * * * * * * * * * * * * * * * * //

dimensions      [0 2 -2 0 0 0 0];


internalField   nonuniform List<scalar> 
209825
(
0.001024
0.000932198
0.000856197
0.000792905
0.000740593
0.000697549
0.000662276
0.000633223
0.000609222
0.00058918
0.000572366
0.000558089
0.000545921
0.000535429
0.000526359
0.000518435
0.000511499
0.000505376
0.000499955
0.00049513
0.000490813
0.000486946
0.000483453
0.000480311
0.000477444
0.000474859
0.000472477
0.000470328
0.000468328
0.000466524
0.000464828
0.000463303
0.000461852
0.000460553
0.000459303
0.00045819
0.000457107
0.000456148
0.000455203
0.000454373
0.000453545
0.000452824
0.000452093
0.000451467
0.000450822
0.000450273
0.000449701
0.000449222
0.000448713
0.000448293
0.000447837
0.000447469
0.000447058
0.000446738
0.000446369
0.000446088
0.000445759
0.000445511
0.000445218
0.000444998
0.000444739
0.000444542
0.000444309
0.000444139
0.000443925
0.000443777
0.000443588
0.000443458
0.000443284
0.000443166
0.00044301
0.000442909
0.000442776
0.000442692
0.000442572
0.000442494
0.00044238
0.000442305
0.000442197
0.000442128
0.000442028
0.000441966
0.000441875
0.000441822
0.000441741
0.000441697
0.000441627
0.000441582
0.000441534
0.000441499
0.000441394
0.000441405
0.000441546
0.000448675
0.000471511
0.00114093
0.001024
0.000932198
0.000856197
0.000792905
0.000740592
0.000697548
0.000662275
0.000633221
0.00060922
0.000589176
0.000572362
0.000558084
0.000545916
0.000535423
0.000526352
0.000518428
0.000511491
0.000505368
0.000499947
0.000495121
0.000490804
0.000486937
0.000483444
0.000480302
0.000477434
0.000474849
0.000472467
0.000470318
0.000468318
0.000466514
0.000464817
0.000463292
0.000461841
0.000460542
0.000459292
0.000458179
0.000457096
0.000456137
0.000455192
0.000454361
0.000453534
0.000452812
0.000452082
0.000451455
0.00045081
0.000450262
0.000449689
0.00044921
0.000448701
0.000448281
0.000447825
0.000447457
0.000447046
0.000446726
0.000446357
0.000446076
0.000445747
0.000445499
0.000445206
0.000444986
0.000444726
0.00044453
0.000444297
0.000444127
0.000443913
0.000443765
0.000443575
0.000443445
0.000443271
0.000443154
0.000442998
0.000442896
0.000442764
0.00044268
0.00044256
0.000442482
0.000442367
0.000442293
0.000442184
0.000442116
0.000442015
0.000441954
0.000441863
0.000441809
0.000441728
0.000441684
0.000441614
0.00044157
0.000441521
0.000441486
0.000441382
0.000441393
0.000441533
0.000448675
0.000471505
0.00114157
0.001024
0.000932198
0.000856198
0.000792905
0.000740591
0.000697544
0.000662268
0.000633211
0.000609206
0.00058916
0.000572343
0.000558063
0.000545892
0.000535397
0.000526324
0.000518399
0.000511461
0.000505336
0.000499913
0.000495086
0.000490768
0.000486901
0.000483406
0.000480263
0.000477395
0.000474809
0.000472427
0.000470277
0.000468276
0.000466472
0.000464775
0.000463249
0.000461798
0.000460498
0.000459248
0.000458135
0.000457051
0.000456092
0.000455147
0.000454316
0.000453488
0.000452766
0.000452036
0.000451409
0.000450764
0.000450215
0.000449643
0.000449163
0.000448654
0.000448234
0.000447778
0.00044741
0.000446998
0.000446679
0.000446309
0.000446028
0.000445699
0.000445451
0.000445158
0.000444937
0.000444678
0.000444482
0.000444248
0.000444078
0.000443864
0.000443716
0.000443526
0.000443396
0.000443222
0.000443105
0.000442948
0.000442847
0.000442715
0.000442631
0.00044251
0.000442432
0.000442318
0.000442243
0.000442135
0.000442066
0.000441966
0.000441904
0.000441813
0.000441759
0.000441678
0.000441634
0.000441564
0.000441519
0.000441471
0.000441436
0.000441331
0.000441342
0.000441483
0.000448651
0.000471467
0.00114287
0.001024
0.000932199
0.000856199
0.000792906
0.000740589
0.000697538
0.000662256
0.000633194
0.000609184
0.000589133
0.000572311
0.000558026
0.000545852
0.000535353
0.000526278
0.000518349
0.000511408
0.000505281
0.000499857
0.000495028
0.000490708
0.000486839
0.000483343
0.000480199
0.00047733
0.000474743
0.000472359
0.000470208
0.000468207
0.000466401
0.000464704
0.000463178
0.000461726
0.000460425
0.000459174
0.000458061
0.000456977
0.000456017
0.000455071
0.00045424
0.000453412
0.00045269
0.000451959
0.000451332
0.000450686
0.000450137
0.000449564
0.000449085
0.000448575
0.000448155
0.000447699
0.00044733
0.000446918
0.000446598
0.000446229
0.000445948
0.000445619
0.00044537
0.000445077
0.000444856
0.000444597
0.0004444
0.000444167
0.000443996
0.000443782
0.000443634
0.000443444
0.000443314
0.00044314
0.000443022
0.000442866
0.000442764
0.000442632
0.000442548
0.000442427
0.000442349
0.000442234
0.00044216
0.000442051
0.000441983
0.000441882
0.00044182
0.000441729
0.000441675
0.000441594
0.00044155
0.00044148
0.000441435
0.000441387
0.000441352
0.000441247
0.000441258
0.000441399
0.000448608
0.000471402
0.00114451
0.001024
0.000932199
0.0008562
0.000792906
0.000740586
0.000697529
0.00066224
0.00063317
0.000609152
0.000589094
0.000572266
0.000557975
0.000545795
0.000535292
0.000526212
0.000518279
0.000511335
0.000505205
0.000499777
0.000494946
0.000490624
0.000486752
0.000483254
0.000480108
0.000477237
0.000474649
0.000472264
0.000470112
0.000468109
0.000466302
0.000464604
0.000463077
0.000461624
0.000460322
0.000459071
0.000457957
0.000456872
0.000455912
0.000454964
0.000454133
0.000453304
0.000452581
0.00045185
0.000451222
0.000450576
0.000450027
0.000449454
0.000448974
0.000448464
0.000448043
0.000447587
0.000447218
0.000446806
0.000446486
0.000446116
0.000445834
0.000445505
0.000445256
0.000444963
0.000444742
0.000444482
0.000444285
0.000444052
0.000443881
0.000443667
0.000443518
0.000443328
0.000443198
0.000443024
0.000442906
0.000442749
0.000442648
0.000442515
0.000442431
0.00044231
0.000442232
0.000442117
0.000442043
0.000441934
0.000441865
0.000441764
0.000441702
0.000441611
0.000441557
0.000441476
0.000441432
0.000441361
0.000441316
0.000441268
0.000441232
0.000441127
0.000441138
0.000441281
0.000448547
0.000471309
0.00114635
0.001024
0.0009322
0.000856202
0.000792907
0.000740582
0.000697517
0.000662219
0.000633139
0.000609111
0.000589044
0.000572207
0.000557909
0.000545722
0.000535212
0.000526126
0.000518189
0.00051124
0.000505105
0.000499674
0.000494839
0.000490514
0.000486639
0.000483139
0.000479991
0.000477117
0.000474527
0.00047214
0.000469986
0.000467982
0.000466174
0.000464474
0.000462945
0.000461491
0.000460189
0.000458936
0.000457821
0.000456735
0.000455774
0.000454826
0.000453994
0.000453164
0.000452441
0.000451709
0.000451081
0.000450434
0.000449884
0.000449311
0.00044883
0.000448319
0.000447899
0.000447442
0.000447072
0.00044666
0.000446339
0.000445969
0.000445687
0.000445358
0.000445108
0.000444815
0.000444594
0.000444333
0.000444136
0.000443902
0.000443731
0.000443517
0.000443368
0.000443178
0.000443048
0.000442873
0.000442755
0.000442598
0.000442497
0.000442364
0.000442279
0.000442159
0.00044208
0.000441965
0.00044189
0.000441781
0.000441712
0.000441612
0.000441549
0.000441458
0.000441404
0.000441322
0.000441278
0.000441207
0.000441162
0.000441114
0.000441078
0.000440972
0.000440983
0.000441128
0.000448467
0.000471188
0.00114835
0.001024
0.0009322
0.000856205
0.000792908
0.000740577
0.000697503
0.000662193
0.0006331
0.000609061
0.000588982
0.000572135
0.000557827
0.000545631
0.000535114
0.000526021
0.000518077
0.000511122
0.000504983
0.000499547
0.000494708
0.000490379
0.000486501
0.000482997
0.000479846
0.00047697
0.000474377
0.000471988
0.000469832
0.000467826
0.000466016
0.000464314
0.000462784
0.000461328
0.000460025
0.00045877
0.000457654
0.000456567
0.000455605
0.000454656
0.000453823
0.000452992
0.000452268
0.000451535
0.000450906
0.000450259
0.000449708
0.000449134
0.000448653
0.000448142
0.00044772
0.000447263
0.000446893
0.00044648
0.000446159
0.000445788
0.000445506
0.000445176
0.000444926
0.000444632
0.000444411
0.00044415
0.000443953
0.000443718
0.000443547
0.000443332
0.000443184
0.000442993
0.000442862
0.000442687
0.000442569
0.000442412
0.00044231
0.000442177
0.000442093
0.000441971
0.000441893
0.000441778
0.000441703
0.000441594
0.000441524
0.000441423
0.000441361
0.000441269
0.000441215
0.000441133
0.000441088
0.000441018
0.000440973
0.000440923
0.000440888
0.000440781
0.000440793
0.000440939
0.000448369
0.00047104
0.00115043
0.001024
0.000932201
0.000856208
0.000792909
0.000740571
0.000697486
0.000662162
0.000633055
0.000609001
0.000588908
0.000572049
0.000557729
0.000545523
0.000534997
0.000525895
0.000517944
0.000510983
0.000504837
0.000499395
0.000494551
0.000490218
0.000486335
0.000482828
0.000479673
0.000476794
0.000474198
0.000471806
0.000469647
0.000467639
0.000465827
0.000464123
0.000462591
0.000461134
0.000459828
0.000458573
0.000457455
0.000456366
0.000455403
0.000454453
0.000453619
0.000452787
0.000452062
0.000451328
0.000450698
0.00045005
0.000449499
0.000448923
0.000448441
0.000447929
0.000447507
0.000447049
0.000446679
0.000446265
0.000445944
0.000445572
0.00044529
0.000444959
0.000444709
0.000444415
0.000444193
0.000443931
0.000443734
0.000443499
0.000443328
0.000443112
0.000442963
0.000442772
0.000442641
0.000442466
0.000442348
0.00044219
0.000442088
0.000441954
0.00044187
0.000441748
0.00044167
0.000441554
0.000441479
0.000441369
0.0004413
0.000441199
0.000441136
0.000441044
0.000440989
0.000440907
0.000440862
0.000440791
0.000440746
0.000440697
0.000440661
0.000440554
0.000440565
0.000440714
0.000448254
0.000470864
0.00115243
0.001024
0.000932202
0.000856211
0.000792911
0.000740565
0.000697466
0.000662127
0.000633002
0.000608932
0.000588823
0.000571949
0.000557616
0.000545398
0.000534861
0.00052575
0.00051779
0.00051082
0.000504667
0.000499219
0.000494369
0.00049003
0.000486143
0.000482631
0.000479472
0.000476589
0.00047399
0.000471594
0.000469433
0.000467422
0.000465607
0.000463901
0.000462367
0.000460907
0.0004596
0.000458342
0.000457223
0.000456133
0.000455168
0.000454217
0.000453381
0.000452548
0.000451822
0.000451087
0.000450456
0.000449806
0.000449254
0.000448678
0.000448195
0.000447682
0.00044726
0.000446801
0.00044643
0.000446015
0.000445693
0.000445321
0.000445038
0.000444707
0.000444456
0.000444161
0.000443939
0.000443677
0.000443479
0.000443243
0.000443072
0.000442856
0.000442706
0.000442515
0.000442384
0.000442208
0.000442089
0.000441932
0.000441829
0.000441695
0.00044161
0.000441488
0.000441409
0.000441293
0.000441218
0.000441108
0.000441039
0.000440937
0.000440874
0.000440782
0.000440727
0.000440644
0.000440599
0.000440528
0.000440482
0.000440432
0.000440396
0.000440289
0.0004403
0.000440451
0.000448122
0.000470659
0.00115415
0.001024
0.000932203
0.000856215
0.000792913
0.000740557
0.000697444
0.000662086
0.000632942
0.000608853
0.000588726
0.000571835
0.000557487
0.000545255
0.000534705
0.000525583
0.000517613
0.000510635
0.000504473
0.000499018
0.000494161
0.000489816
0.000485923
0.000482406
0.000479242
0.000476355
0.000473752
0.000471353
0.000469188
0.000467173
0.000465356
0.000463647
0.00046211
0.000460648
0.000459339
0.000458079
0.000456958
0.000455866
0.0004549
0.000453946
0.000453109
0.000452275
0.000451547
0.000450811
0.000450179
0.000449528
0.000448975
0.000448397
0.000447914
0.0004474
0.000446976
0.000446516
0.000446145
0.000445729
0.000445407
0.000445034
0.00044475
0.000444418
0.000444167
0.000443871
0.000443648
0.000443386
0.000443187
0.000442951
0.000442779
0.000442563
0.000442413
0.000442221
0.000442089
0.000441913
0.000441794
0.000441636
0.000441533
0.000441399
0.000441313
0.000441191
0.000441112
0.000440995
0.00044092
0.00044081
0.00044074
0.000440637
0.000440574
0.000440482
0.000440426
0.000440343
0.000440298
0.000440226
0.00044018
0.00044013
0.000440094
0.000439985
0.000439996
0.000440151
0.000447973
0.000470427
0.00115529
0.001024
0.000932204
0.00085622
0.000792915
0.000740549
0.000697419
0.00066204
0.000632875
0.000608764
0.000588617
0.000571707
0.000557342
0.000545095
0.000534531
0.000525396
0.000517414
0.000510425
0.000504255
0.000498791
0.000493927
0.000489574
0.000485675
0.000482152
0.000478983
0.000476091
0.000473483
0.00047108
0.000468911
0.000466893
0.000465072
0.00046336
0.000461821
0.000460356
0.000459044
0.000457782
0.000456659
0.000455565
0.000454596
0.000453641
0.000452803
0.000451966
0.000451237
0.000450499
0.000449866
0.000449214
0.00044866
0.000448081
0.000447596
0.000447081
0.000446657
0.000446195
0.000445823
0.000445406
0.000445083
0.000444709
0.000444425
0.000444092
0.00044384
0.000443544
0.00044332
0.000443057
0.000442858
0.000442621
0.000442448
0.000442232
0.000442081
0.000441889
0.000441757
0.00044158
0.000441461
0.000441302
0.000441199
0.000441064
0.000440978
0.000440855
0.000440776
0.000440659
0.000440583
0.000440472
0.000440402
0.0004403
0.000440236
0.000440143
0.000440087
0.000440004
0.000439958
0.000439886
0.00043984
0.000439789
0.000439752
0.000439643
0.000439654
0.000439813
0.000447808
0.000470165
0.00115543
0.001024
0.000932206
0.000856225
0.000792917
0.00074054
0.000697391
0.00066199
0.0006328
0.000608665
0.000588495
0.000571564
0.00055718
0.000544916
0.000534336
0.000525187
0.000517193
0.000510192
0.000504011
0.000498538
0.000493665
0.000489305
0.000485399
0.000481869
0.000478695
0.000475797
0.000473184
0.000470776
0.000468603
0.000466581
0.000464756
0.000463041
0.000461498
0.00046003
0.000458716
0.000457451
0.000456325
0.000455229
0.000454258
0.000453301
0.00045246
0.000451622
0.000450892
0.000450152
0.000449517
0.000448863
0.000448308
0.000447728
0.000447242
0.000446725
0.0004463
0.000445837
0.000445464
0.000445046
0.000444722
0.000444347
0.000444062
0.000443728
0.000443476
0.000443178
0.000442954
0.00044269
0.000442491
0.000442253
0.00044208
0.000441862
0.000441711
0.000441518
0.000441386
0.000441208
0.000441089
0.00044093
0.000440826
0.00044069
0.000440604
0.000440481
0.000440401
0.000440284
0.000440207
0.000440096
0.000440026
0.000439922
0.000439859
0.000439765
0.000439709
0.000439625
0.000439579
0.000439506
0.00043946
0.000439408
0.000439371
0.000439261
0.000439272
0.000439435
0.000447626
0.000469875
0.00115422
0.001024
0.000932207
0.00085623
0.000792919
0.00074053
0.000697361
0.000661935
0.000632718
0.000608557
0.000588361
0.000571407
0.000557002
0.000544718
0.000534121
0.000524957
0.000516948
0.000509935
0.000503743
0.000498259
0.000493377
0.000489008
0.000485094
0.000481557
0.000478376
0.000475472
0.000472853
0.00047044
0.000468262
0.000466236
0.000464407
0.000462688
0.000461141
0.00045967
0.000458353
0.000457085
0.000455956
0.000454857
0.000453884
0.000452925
0.000452082
0.000451242
0.000450509
0.000449768
0.000449131
0.000448476
0.000447919
0.000447337
0.00044685
0.000446332
0.000445905
0.000445442
0.000445067
0.000444648
0.000444323
0.000443947
0.000443661
0.000443326
0.000443073
0.000442774
0.000442549
0.000442285
0.000442084
0.000441846
0.000441672
0.000441454
0.000441302
0.000441108
0.000440975
0.000440798
0.000440677
0.000440518
0.000440414
0.000440277
0.000440191
0.000440067
0.000439987
0.000439869
0.000439792
0.00043968
0.000439609
0.000439506
0.000439441
0.000439347
0.000439291
0.000439206
0.00043916
0.000439086
0.000439039
0.000438987
0.00043895
0.000438838
0.00043885
0.000439018
0.000447428
0.000469554
0.00115165
0.00102399
0.000932209
0.000856236
0.000792922
0.00074052
0.000697328
0.000661874
0.000632628
0.000608438
0.000588215
0.000571236
0.000556807
0.000544502
0.000533886
0.000524705
0.000516681
0.000509654
0.000503448
0.000497953
0.00049306
0.000488682
0.000484759
0.000481215
0.000478026
0.000475115
0.000472491
0.000470072
0.000467889
0.000465857
0.000464024
0.0004623
0.00046075
0.000459276
0.000457955
0.000456683
0.000455552
0.00045445
0.000453475
0.000452512
0.000451667
0.000450825
0.00045009
0.000449347
0.000448708
0.000448051
0.000447492
0.000446909
0.00044642
0.000445901
0.000445473
0.000445008
0.000444632
0.000444212
0.000443885
0.000443508
0.000443221
0.000442885
0.000442631
0.000442331
0.000442105
0.00044184
0.000441639
0.000441399
0.000441225
0.000441006
0.000440854
0.000440659
0.000440525
0.000440347
0.000440226
0.000440066
0.000439961
0.000439824
0.000439737
0.000439613
0.000439532
0.000439413
0.000439336
0.000439224
0.000439152
0.000439048
0.000438983
0.000438888
0.000438832
0.000438746
0.000438699
0.000438626
0.000438578
0.000438525
0.000438487
0.000438375
0.000438386
0.00043856
0.000447215
0.000469203
0.00114775
0.00102399
0.00093221
0.000856242
0.000792925
0.000740508
0.000697292
0.000661809
0.000632531
0.00060831
0.000588057
0.00057105
0.000556596
0.000544268
0.000533631
0.000524431
0.00051639
0.000509347
0.000503128
0.000497621
0.000492716
0.000488328
0.000484395
0.000480842
0.000477645
0.000474727
0.000472096
0.000469671
0.000467482
0.000465445
0.000463607
0.000461879
0.000460324
0.000458845
0.000457521
0.000456246
0.000455111
0.000454006
0.000453028
0.000452063
0.000451215
0.00045037
0.000449633
0.000448887
0.000448247
0.000447588
0.000447027
0.000446442
0.000445952
0.00044543
0.000445001
0.000444534
0.000444158
0.000443736
0.000443408
0.00044303
0.000442741
0.000442404
0.000442149
0.000441848
0.000441621
0.000441355
0.000441153
0.000440912
0.000440737
0.000440517
0.000440364
0.000440169
0.000440034
0.000439855
0.000439734
0.000439573
0.000439468
0.00043933
0.000439242
0.000439117
0.000439036
0.000438916
0.000438839
0.000438726
0.000438654
0.000438549
0.000438484
0.000438388
0.000438331
0.000438245
0.000438197
0.000438123
0.000438075
0.000438021
0.000437983
0.000437869
0.000437881
0.000438061
0.000446984
0.00046882
0.00114255
0.00102399
0.000932212
0.000856249
0.000792929
0.000740496
0.000697254
0.000661739
0.000632427
0.000608171
0.000587886
0.000570849
0.000556367
0.000544015
0.000533355
0.000524134
0.000516075
0.000509016
0.000502782
0.000497261
0.000492344
0.000487944
0.000484001
0.000480438
0.000477233
0.000474307
0.000471668
0.000469236
0.000467041
0.000464999
0.000463155
0.000461422
0.000459863
0.000458379
0.000457051
0.000455772
0.000454634
0.000453525
0.000452544
0.000451575
0.000450725
0.000449877
0.000449138
0.00044839
0.000447747
0.000447086
0.000446523
0.000445936
0.000445444
0.000444921
0.00044449
0.000444021
0.000443643
0.00044322
0.000442891
0.000442511
0.000442221
0.000441883
0.000441626
0.000441325
0.000441097
0.000440829
0.000440626
0.000440385
0.000440209
0.000439987
0.000439834
0.000439637
0.000439502
0.000439322
0.0004392
0.000439038
0.000438933
0.000438794
0.000438706
0.00043858
0.000438498
0.000438378
0.0004383
0.000438186
0.000438114
0.000438008
0.000437943
0.000437846
0.000437788
0.000437702
0.000437653
0.000437578
0.00043753
0.000437475
0.000437437
0.000437321
0.000437333
0.00043752
0.000446737
0.000468404
0.00113607
0.00102399
0.000932214
0.000856256
0.000792933
0.000740484
0.000697214
0.000661665
0.000632315
0.000608023
0.000587703
0.000570633
0.000556122
0.000543742
0.000533058
0.000523816
0.000515737
0.00050866
0.000502409
0.000496873
0.000491943
0.000487531
0.000483577
0.000480004
0.000476789
0.000473854
0.000471207
0.000468768
0.000466566
0.000464517
0.000462668
0.000460929
0.000459365
0.000457877
0.000456544
0.000455261
0.000454119
0.000453006
0.000452022
0.00045105
0.000450197
0.000449346
0.000448604
0.000447853
0.000447208
0.000446544
0.000445979
0.00044539
0.000444896
0.000444371
0.000443938
0.000443468
0.000443088
0.000442663
0.000442333
0.000441951
0.00044166
0.00044132
0.000441063
0.00044076
0.000440531
0.000440261
0.000440058
0.000439815
0.000439638
0.000439416
0.000439261
0.000439064
0.000438928
0.000438747
0.000438625
0.000438462
0.000438355
0.000438216
0.000438127
0.000438
0.000437918
0.000437797
0.000437719
0.000437604
0.000437531
0.000437425
0.000437358
0.000437261
0.000437203
0.000437115
0.000437066
0.00043699
0.000436942
0.000436886
0.000436847
0.00043673
0.000436742
0.000436937
0.000446472
0.000467954
0.00112834
0.00102399
0.000932216
0.000856264
0.000792937
0.00074047
0.000697171
0.000661585
0.000632196
0.000607865
0.000587507
0.000570403
0.000555859
0.000543451
0.000532741
0.000523474
0.000515374
0.000508278
0.000502009
0.000496457
0.000491513
0.000487087
0.000483121
0.000479537
0.000476312
0.000473368
0.000470713
0.000468266
0.000466057
0.000464001
0.000462145
0.0004604
0.000458831
0.000457337
0.000455999
0.000454712
0.000453566
0.000452449
0.000451461
0.000450486
0.00044963
0.000448775
0.000448031
0.000447277
0.000446629
0.000445962
0.000445396
0.000444804
0.000444308
0.00044378
0.000443346
0.000442873
0.000442492
0.000442065
0.000441733
0.00044135
0.000441058
0.000440716
0.000440457
0.000440153
0.000439923
0.000439652
0.000439447
0.000439203
0.000439026
0.000438802
0.000438647
0.000438448
0.000438311
0.00043813
0.000438006
0.000437842
0.000437735
0.000437595
0.000437505
0.000437378
0.000437295
0.000437173
0.000437094
0.000436978
0.000436905
0.000436797
0.000436731
0.000436632
0.000436574
0.000436485
0.000436435
0.000436359
0.000436309
0.000436252
0.000436213
0.000436094
0.000436107
0.00043631
0.000446188
0.000467467
0.00111941
0.00102399
0.000932217
0.000856272
0.000792942
0.000740457
0.000697126
0.000661501
0.00063207
0.000607696
0.000587299
0.000570157
0.00055558
0.00054314
0.000532402
0.00052311
0.000514987
0.00050787
0.000501583
0.000496014
0.000491053
0.000486614
0.000482635
0.000479039
0.000475803
0.000472849
0.000470184
0.000467729
0.000465512
0.000463448
0.000461586
0.000459835
0.000458259
0.00045676
0.000455417
0.000454125
0.000452974
0.000451854
0.000450861
0.000449882
0.000449023
0.000448165
0.000447417
0.00044666
0.00044601
0.00044534
0.000444771
0.000444176
0.000443678
0.000443148
0.000442712
0.000442237
0.000441854
0.000441425
0.000441092
0.000440707
0.000440413
0.00044007
0.00043981
0.000439503
0.000439272
0.000439
0.000438794
0.000438548
0.00043837
0.000438145
0.000437989
0.000437789
0.000437651
0.000437468
0.000437344
0.00043718
0.000437072
0.00043693
0.00043684
0.000436711
0.000436627
0.000436505
0.000436425
0.000436309
0.000436235
0.000436126
0.000436059
0.00043596
0.0004359
0.000435811
0.00043576
0.000435683
0.000435633
0.000435575
0.000435535
0.000435414
0.000435427
0.000435639
0.000445884
0.000466941
0.00110932
0.00102398
0.000932219
0.000856281
0.000792947
0.000740442
0.000697078
0.000661412
0.000631937
0.000607518
0.000587078
0.000569897
0.000555283
0.00054281
0.000532042
0.000522723
0.000514575
0.000507436
0.000501129
0.000495541
0.000490564
0.00048611
0.000482117
0.000478508
0.000475261
0.000472296
0.000469621
0.000467157
0.000464931
0.00046286
0.00046099
0.000459232
0.00045765
0.000456146
0.000454797
0.000453499
0.000452344
0.000451219
0.000450222
0.000449239
0.000448376
0.000447514
0.000446763
0.000446002
0.000445349
0.000444677
0.000444105
0.000443507
0.000443007
0.000442474
0.000442036
0.000441559
0.000441174
0.000440743
0.000440408
0.000440021
0.000439725
0.00043938
0.000439119
0.000438811
0.000438578
0.000438304
0.000438097
0.00043785
0.00043767
0.000437444
0.000437287
0.000437086
0.000436947
0.000436763
0.000436638
0.000436472
0.000436364
0.000436221
0.00043613
0.000436
0.000435916
0.000435792
0.000435712
0.000435595
0.00043552
0.00043541
0.000435342
0.000435242
0.000435182
0.000435091
0.00043504
0.000434962
0.000434911
0.000434852
0.000434811
0.000434689
0.000434702
0.000434924
0.000445559
0.000466373
0.00109813
0.00102398
0.000932221
0.00085629
0.000792952
0.000740427
0.000697028
0.000661319
0.000631796
0.00060733
0.000586845
0.000569621
0.000554969
0.000542461
0.000531661
0.000522313
0.000514139
0.000506976
0.000500647
0.00049504
0.000490046
0.000485575
0.000481567
0.000477945
0.000474685
0.000471709
0.000469024
0.000466549
0.000464314
0.000462235
0.000460357
0.000458592
0.000457004
0.000455492
0.000454138
0.000452835
0.000451674
0.000450544
0.000449543
0.000448555
0.000447688
0.000446822
0.000446068
0.000445304
0.000444647
0.000443971
0.000443397
0.000442796
0.000442293
0.000441758
0.000441317
0.000440838
0.000440451
0.000440018
0.00043968
0.000439292
0.000438994
0.000438647
0.000438384
0.000438074
0.00043784
0.000437564
0.000437356
0.000437108
0.000436927
0.000436699
0.000436541
0.000436338
0.000436199
0.000436013
0.000435888
0.000435721
0.000435611
0.000435467
0.000435375
0.000435244
0.000435159
0.000435034
0.000434953
0.000434835
0.00043476
0.000434649
0.00043458
0.000434479
0.000434418
0.000434326
0.000434274
0.000434195
0.000434143
0.000434083
0.000434042
0.000433918
0.000433931
0.000434164
0.000445209
0.000465761
0.00108587
0.00102398
0.000932223
0.0008563
0.000792958
0.000740412
0.000696977
0.000661222
0.000631648
0.000607133
0.000586599
0.000569331
0.000554637
0.000542092
0.000531258
0.000521879
0.000513677
0.000506489
0.000500138
0.00049451
0.000489497
0.000485009
0.000480985
0.000477348
0.000474075
0.000471087
0.000468391
0.000465905
0.000463661
0.000461573
0.000459687
0.000457914
0.000456318
0.0004548
0.00045344
0.00045213
0.000450964
0.000449829
0.000448823
0.000447831
0.000446959
0.000446089
0.000445331
0.000444563
0.000443903
0.000443224
0.000442646
0.000442042
0.000441537
0.000440999
0.000440556
0.000440073
0.000439685
0.000439249
0.000438909
0.000438518
0.000438219
0.00043787
0.000437605
0.000437293
0.000437058
0.00043678
0.000436571
0.00043632
0.000436138
0.000435909
0.000435749
0.000435545
0.000435405
0.000435218
0.000435092
0.000434923
0.000434813
0.000434668
0.000434575
0.000434443
0.000434357
0.000434231
0.000434149
0.00043403
0.000433953
0.000433841
0.000433772
0.000433669
0.000433608
0.000433515
0.000433462
0.000433382
0.000433329
0.000433267
0.000433226
0.0004331
0.000433114
0.000433357
0.000444831
0.000465104
0.00107262
0.00102398
0.000932226
0.00085631
0.000792964
0.000740396
0.000696923
0.000661119
0.000631494
0.000606925
0.000586341
0.000569026
0.000554288
0.000541704
0.000530834
0.000521423
0.000513191
0.000505977
0.000499601
0.000493951
0.000488918
0.000484411
0.000480371
0.000476719
0.000473432
0.00047043
0.000467722
0.000465226
0.000462971
0.000460873
0.000458979
0.000457197
0.000455594
0.000454069
0.000452702
0.000451386
0.000450214
0.000449073
0.000448062
0.000447064
0.000446188
0.000445314
0.000444552
0.00044378
0.000443116
0.000442433
0.000441852
0.000441245
0.000440737
0.000440196
0.00043975
0.000439265
0.000438874
0.000438435
0.000438094
0.0004377
0.000437399
0.000437048
0.000436781
0.000436467
0.00043623
0.00043595
0.00043574
0.000435487
0.000435304
0.000435073
0.000434912
0.000434706
0.000434565
0.000434377
0.000434249
0.00043408
0.000433968
0.000433822
0.000433728
0.000433595
0.000433508
0.000433381
0.000433298
0.000433177
0.0004331
0.000432987
0.000432917
0.000432813
0.00043275
0.000432656
0.000432603
0.000432521
0.000432468
0.000432405
0.000432362
0.000432234
0.000432249
0.000432504
0.000444418
0.000464398
0.00105844
0.00102398
0.000932228
0.00085632
0.000792971
0.00074038
0.000696867
0.000661013
0.000631332
0.000606709
0.000586071
0.000568706
0.000553923
0.000541296
0.000530388
0.000520943
0.00051268
0.000505437
0.000499036
0.000493363
0.000488308
0.000483782
0.000479724
0.000476056
0.000472753
0.000469738
0.000467017
0.000464509
0.000462244
0.000460136
0.000458232
0.000456442
0.000454831
0.000453297
0.000451923
0.000450601
0.000449423
0.000448275
0.000447259
0.000446257
0.000445376
0.000444496
0.00044373
0.000442953
0.000442286
0.000441599
0.000441015
0.000440404
0.000439893
0.000439348
0.0004389
0.000438412
0.000438018
0.000437577
0.000437233
0.000436837
0.000436534
0.00043618
0.000435912
0.000435596
0.000435357
0.000435075
0.000434863
0.000434608
0.000434424
0.000434191
0.000434029
0.000433821
0.000433679
0.000433489
0.000433361
0.000433189
0.000433077
0.000432929
0.000432834
0.0004327
0.000432612
0.000432483
0.0004324
0.000432278
0.0004322
0.000432086
0.000432015
0.000431909
0.000431846
0.00043175
0.000431696
0.000431613
0.000431559
0.000431494
0.000431451
0.000431321
0.000431336
0.000431604
0.000443965
0.000463642
0.00104339
0.00102397
0.00093223
0.000856331
0.000792978
0.000740364
0.000696809
0.000660903
0.000631164
0.000606482
0.000585788
0.000568371
0.000553539
0.000540869
0.000529921
0.000520439
0.000512144
0.000504871
0.000498442
0.000492745
0.000487667
0.000483121
0.000479045
0.000475359
0.000472041
0.000469011
0.000466277
0.000463756
0.000461479
0.00045936
0.000457447
0.000455647
0.000454027
0.000452486
0.000451105
0.000449775
0.00044859
0.000447437
0.000446415
0.000445406
0.00044452
0.000443636
0.000442865
0.000442084
0.000441413
0.000440722
0.000440134
0.000439519
0.000439005
0.000438457
0.000438005
0.000437514
0.000437118
0.000436674
0.000436327
0.000435929
0.000435623
0.000435267
0.000434996
0.000434678
0.000434437
0.000434153
0.00043394
0.000433683
0.000433497
0.000433262
0.000433099
0.000432889
0.000432745
0.000432554
0.000432425
0.000432252
0.000432138
0.000431989
0.000431893
0.000431757
0.000431668
0.000431538
0.000431454
0.000431331
0.000431252
0.000431136
0.000431064
0.000430957
0.000430893
0.000430796
0.000430741
0.000430656
0.000430602
0.000430535
0.000430491
0.000430359
0.000430375
0.000430655
0.000443463
0.000462834
0.00102753
0.00102397
0.000932232
0.000856342
0.000792985
0.000740348
0.000696749
0.000660788
0.000630989
0.000606247
0.000585494
0.000568022
0.000553139
0.000540423
0.000529432
0.000519913
0.000511582
0.000504278
0.000497821
0.000492097
0.000486996
0.000482428
0.000478332
0.000474628
0.000471293
0.000468248
0.000465499
0.000462966
0.000460677
0.000458546
0.000456623
0.000454813
0.000453184
0.000451634
0.000450245
0.000448908
0.000447716
0.000446556
0.000445528
0.000444513
0.000443622
0.000442732
0.000441957
0.00044117
0.000440495
0.000439799
0.000439208
0.000438589
0.000438071
0.000437519
0.000437065
0.00043657
0.000436172
0.000435724
0.000435376
0.000434974
0.000434666