/*--------------------------------*- C++ -*----------------------------------*\
| =========                 |                                                 |
| \\      /  F ield         | OpenFOAM: The Open Source CFD Toolbox           |
|  \\    /   O peration     | Version:  v2012                                 |
|   \\  /    A nd           | Website:  www.openfoam.com                      |
|    \\/     M anipulation  |                                                 |
\*---------------------------------------------------------------------------*/
FoamFile
{
    version     2.0;
    format      ascii;
    class       volScalarField;
    location    "51.5";
    object      nut;
}
// * * * * * * * * * * * * * * * * * * * * * * * * * * * * * * * * * * * * * //

dimensions      [0 2 -1 0 0 0 0];


internalField   nonuniform List<scalar> 
209825
(
1.23945e-07
1.23148e-07
1.22324e-07
1.2123e-07
1.19902e-07
1.18439e-07
1.1699e-07
1.15604e-07
1.14348e-07
1.13202e-07
1.12195e-07
1.11286e-07
1.10495e-07
1.09778e-07
1.09154e-07
1.08585e-07
1.0809e-07
1.07635e-07
1.07238e-07
1.06868e-07
1.06546e-07
1.06244e-07
1.0598e-07
1.0573e-07
1.05511e-07
1.05303e-07
1.05119e-07
1.04944e-07
1.04789e-07
1.0464e-07
1.04508e-07
1.04381e-07
1.04268e-07
1.04159e-07
1.04061e-07
1.03967e-07
1.03881e-07
1.03799e-07
1.03724e-07
1.03653e-07
1.03586e-07
1.03524e-07
1.03465e-07
1.0341e-07
1.03357e-07
1.03309e-07
1.03261e-07
1.0322e-07
1.03176e-07
1.0314e-07
1.031e-07
1.03067e-07
1.03027e-07
1.03001e-07
1.02965e-07
1.02941e-07
1.02909e-07
1.02888e-07
1.02859e-07
1.0284e-07
1.02812e-07
1.02793e-07
1.02769e-07
1.0275e-07
1.02727e-07
1.02711e-07
1.0269e-07
1.02675e-07
1.02655e-07
1.02639e-07
1.0262e-07
1.02605e-07
1.02589e-07
1.02577e-07
1.02564e-07
1.02554e-07
1.02541e-07
1.02531e-07
1.02517e-07
1.02507e-07
1.02494e-07
1.02485e-07
1.02472e-07
1.02463e-07
1.02451e-07
1.02439e-07
1.02424e-07
1.02408e-07
1.02397e-07
1.0238e-07
1.02355e-07
1.02341e-07
1.02356e-07
1.03331e-07
1.05937e-07
1.00878e-08
1.23945e-07
1.23148e-07
1.22324e-07
1.2123e-07
1.19902e-07
1.1844e-07
1.16991e-07
1.15604e-07
1.14348e-07
1.13203e-07
1.12196e-07
1.11287e-07
1.10495e-07
1.09778e-07
1.09155e-07
1.08586e-07
1.08091e-07
1.07635e-07
1.07238e-07
1.06869e-07
1.06547e-07
1.06245e-07
1.0598e-07
1.05731e-07
1.05512e-07
1.05303e-07
1.0512e-07
1.04944e-07
1.0479e-07
1.04641e-07
1.04509e-07
1.04382e-07
1.04268e-07
1.04159e-07
1.04061e-07
1.03967e-07
1.03882e-07
1.038e-07
1.03724e-07
1.03653e-07
1.03586e-07
1.03524e-07
1.03465e-07
1.0341e-07
1.03357e-07
1.03309e-07
1.03262e-07
1.0322e-07
1.03177e-07
1.0314e-07
1.031e-07
1.03067e-07
1.03028e-07
1.03001e-07
1.02966e-07
1.02942e-07
1.02909e-07
1.02888e-07
1.0286e-07
1.0284e-07
1.02813e-07
1.02793e-07
1.02769e-07
1.02751e-07
1.02727e-07
1.02711e-07
1.02691e-07
1.02676e-07
1.02655e-07
1.02639e-07
1.0262e-07
1.02606e-07
1.0259e-07
1.02578e-07
1.02564e-07
1.02554e-07
1.02541e-07
1.02531e-07
1.02518e-07
1.02508e-07
1.02495e-07
1.02485e-07
1.02473e-07
1.02463e-07
1.02451e-07
1.02439e-07
1.02424e-07
1.02408e-07
1.02397e-07
1.0238e-07
1.02356e-07
1.02342e-07
1.02357e-07
1.03333e-07
1.05938e-07
1.03967e-08
1.23945e-07
1.23148e-07
1.22324e-07
1.2123e-07
1.19903e-07
1.18441e-07
1.16992e-07
1.15606e-07
1.1435e-07
1.13204e-07
1.12197e-07
1.11288e-07
1.10496e-07
1.09779e-07
1.09156e-07
1.08587e-07
1.08092e-07
1.07636e-07
1.07239e-07
1.0687e-07
1.06547e-07
1.06245e-07
1.05981e-07
1.05731e-07
1.05512e-07
1.05303e-07
1.0512e-07
1.04945e-07
1.0479e-07
1.04641e-07
1.04509e-07
1.04382e-07
1.04268e-07
1.04159e-07
1.04061e-07
1.03967e-07
1.03881e-07
1.03799e-07
1.03724e-07
1.03653e-07
1.03586e-07
1.03524e-07
1.03465e-07
1.0341e-07
1.03357e-07
1.03309e-07
1.03261e-07
1.0322e-07
1.03176e-07
1.0314e-07
1.031e-07
1.03067e-07
1.03027e-07
1.03001e-07
1.02965e-07
1.02941e-07
1.02909e-07
1.02888e-07
1.02859e-07
1.02839e-07
1.02812e-07
1.02793e-07
1.02769e-07
1.0275e-07
1.02727e-07
1.0271e-07
1.0269e-07
1.02675e-07
1.02655e-07
1.02639e-07
1.0262e-07
1.02605e-07
1.02589e-07
1.02577e-07
1.02563e-07
1.02554e-07
1.02541e-07
1.02531e-07
1.02517e-07
1.02507e-07
1.02494e-07
1.02484e-07
1.02472e-07
1.02462e-07
1.0245e-07
1.02439e-07
1.02424e-07
1.02408e-07
1.02397e-07
1.02379e-07
1.02355e-07
1.02341e-07
1.02356e-07
1.03337e-07
1.05938e-07
1.07803e-08
1.23945e-07
1.23148e-07
1.22324e-07
1.21231e-07
1.19904e-07
1.18443e-07
1.16994e-07
1.15608e-07
1.14352e-07
1.13207e-07
1.122e-07
1.11291e-07
1.10499e-07
1.09782e-07
1.09158e-07
1.08589e-07
1.08094e-07
1.07638e-07
1.0724e-07
1.06871e-07
1.06549e-07
1.06246e-07
1.05982e-07
1.05732e-07
1.05513e-07
1.05304e-07
1.0512e-07
1.04945e-07
1.0479e-07
1.04641e-07
1.04509e-07
1.04382e-07
1.04269e-07
1.04159e-07
1.04061e-07
1.03967e-07
1.03881e-07
1.03799e-07
1.03724e-07
1.03653e-07
1.03586e-07
1.03524e-07
1.03465e-07
1.0341e-07
1.03357e-07
1.03309e-07
1.03261e-07
1.0322e-07
1.03176e-07
1.0314e-07
1.03099e-07
1.03066e-07
1.03027e-07
1.03001e-07
1.02965e-07
1.02941e-07
1.02908e-07
1.02887e-07
1.02859e-07
1.02839e-07
1.02812e-07
1.02792e-07
1.02768e-07
1.0275e-07
1.02726e-07
1.0271e-07
1.0269e-07
1.02674e-07
1.02654e-07
1.02638e-07
1.02619e-07
1.02605e-07
1.02588e-07
1.02577e-07
1.02563e-07
1.02553e-07
1.0254e-07
1.0253e-07
1.02516e-07
1.02506e-07
1.02493e-07
1.02484e-07
1.02471e-07
1.02462e-07
1.0245e-07
1.02438e-07
1.02423e-07
1.02407e-07
1.02396e-07
1.02379e-07
1.02354e-07
1.0234e-07
1.02356e-07
1.03342e-07
1.05939e-07
1.12074e-08
1.23945e-07
1.23148e-07
1.22324e-07
1.21232e-07
1.19906e-07
1.18445e-07
1.16998e-07
1.15612e-07
1.14356e-07
1.13211e-07
1.12204e-07
1.11294e-07
1.10502e-07
1.09785e-07
1.09161e-07
1.08592e-07
1.08096e-07
1.0764e-07
1.07243e-07
1.06873e-07
1.0655e-07
1.06248e-07
1.05983e-07
1.05733e-07
1.05514e-07
1.05305e-07
1.05121e-07
1.04946e-07
1.04791e-07
1.04642e-07
1.0451e-07
1.04383e-07
1.04269e-07
1.0416e-07
1.04062e-07
1.03967e-07
1.03882e-07
1.038e-07
1.03724e-07
1.03653e-07
1.03586e-07
1.03524e-07
1.03465e-07
1.0341e-07
1.03357e-07
1.03309e-07
1.03261e-07
1.0322e-07
1.03176e-07
1.03139e-07
1.03099e-07
1.03066e-07
1.03027e-07
1.03e-07
1.02964e-07
1.0294e-07
1.02908e-07
1.02887e-07
1.02858e-07
1.02838e-07
1.02811e-07
1.02791e-07
1.02768e-07
1.02749e-07
1.02726e-07
1.02709e-07
1.02689e-07
1.02674e-07
1.02654e-07
1.02637e-07
1.02618e-07
1.02604e-07
1.02588e-07
1.02576e-07
1.02562e-07
1.02552e-07
1.02539e-07
1.02529e-07
1.02516e-07
1.02506e-07
1.02493e-07
1.02483e-07
1.02471e-07
1.02461e-07
1.02449e-07
1.02437e-07
1.02422e-07
1.02406e-07
1.02395e-07
1.02378e-07
1.02353e-07
1.02339e-07
1.02355e-07
1.03349e-07
1.05941e-07
1.16708e-08
1.23945e-07
1.23148e-07
1.22324e-07
1.21233e-07
1.19909e-07
1.18449e-07
1.17002e-07
1.15617e-07
1.14361e-07
1.13216e-07
1.12208e-07
1.11299e-07
1.10507e-07
1.09789e-07
1.09165e-07
1.08595e-07
1.081e-07
1.07643e-07
1.07246e-07
1.06876e-07
1.06553e-07
1.0625e-07
1.05985e-07
1.05735e-07
1.05516e-07
1.05307e-07
1.05123e-07
1.04948e-07
1.04793e-07
1.04643e-07
1.04511e-07
1.04384e-07
1.0427e-07
1.04161e-07
1.04062e-07
1.03968e-07
1.03882e-07
1.038e-07
1.03725e-07
1.03653e-07
1.03586e-07
1.03524e-07
1.03465e-07
1.0341e-07
1.03357e-07
1.03309e-07
1.03261e-07
1.03219e-07
1.03176e-07
1.03139e-07
1.03099e-07
1.03066e-07
1.03026e-07
1.03e-07
1.02964e-07
1.0294e-07
1.02908e-07
1.02886e-07
1.02858e-07
1.02838e-07
1.02811e-07
1.02791e-07
1.02767e-07
1.02749e-07
1.02725e-07
1.02709e-07
1.02688e-07
1.02673e-07
1.02653e-07
1.02637e-07
1.02618e-07
1.02603e-07
1.02587e-07
1.02575e-07
1.02561e-07
1.02552e-07
1.02538e-07
1.02528e-07
1.02515e-07
1.02505e-07
1.02492e-07
1.02482e-07
1.0247e-07
1.0246e-07
1.02448e-07
1.02436e-07
1.02421e-07
1.02406e-07
1.02394e-07
1.02377e-07
1.02353e-07
1.02339e-07
1.02354e-07
1.0336e-07
1.05943e-07
1.21694e-08
1.23945e-07
1.23147e-07
1.22324e-07
1.21234e-07
1.19912e-07
1.18453e-07
1.17007e-07
1.15623e-07
1.14367e-07
1.13222e-07
1.12215e-07
1.11305e-07
1.10512e-07
1.09794e-07
1.0917e-07
1.086e-07
1.08104e-07
1.07647e-07
1.0725e-07
1.06879e-07
1.06556e-07
1.06253e-07
1.05988e-07
1.05738e-07
1.05518e-07
1.05309e-07
1.05125e-07
1.0495e-07
1.04794e-07
1.04645e-07
1.04513e-07
1.04385e-07
1.04271e-07
1.04162e-07
1.04064e-07
1.03969e-07
1.03883e-07
1.03801e-07
1.03725e-07
1.03654e-07
1.03587e-07
1.03524e-07
1.03465e-07
1.0341e-07
1.03357e-07
1.03309e-07
1.03261e-07
1.0322e-07
1.03176e-07
1.03139e-07
1.03099e-07
1.03066e-07
1.03026e-07
1.03e-07
1.02964e-07
1.0294e-07
1.02907e-07
1.02886e-07
1.02857e-07
1.02838e-07
1.0281e-07
1.02791e-07
1.02767e-07
1.02748e-07
1.02724e-07
1.02708e-07
1.02688e-07
1.02673e-07
1.02652e-07
1.02636e-07
1.02617e-07
1.02603e-07
1.02586e-07
1.02574e-07
1.0256e-07
1.02551e-07
1.02538e-07
1.02528e-07
1.02514e-07
1.02504e-07
1.02491e-07
1.02481e-07
1.02469e-07
1.02459e-07
1.02447e-07
1.02436e-07
1.0242e-07
1.02405e-07
1.02393e-07
1.02376e-07
1.02352e-07
1.02338e-07
1.02354e-07
1.03372e-07
1.05946e-07
1.27035e-08
1.23945e-07
1.23147e-07
1.22325e-07
1.21236e-07
1.19916e-07
1.18459e-07
1.17014e-07
1.1563e-07
1.14375e-07
1.13229e-07
1.12222e-07
1.11312e-07
1.10519e-07
1.09801e-07
1.09176e-07
1.08606e-07
1.0811e-07
1.07653e-07
1.07254e-07
1.06884e-07
1.06561e-07
1.06257e-07
1.05992e-07
1.05741e-07
1.05522e-07
1.05312e-07
1.05128e-07
1.04952e-07
1.04797e-07
1.04647e-07
1.04515e-07
1.04387e-07
1.04273e-07
1.04164e-07
1.04065e-07
1.0397e-07
1.03884e-07
1.03802e-07
1.03726e-07
1.03655e-07
1.03588e-07
1.03525e-07
1.03466e-07
1.03411e-07
1.03358e-07
1.03309e-07
1.03261e-07
1.0322e-07
1.03176e-07
1.03139e-07
1.03099e-07
1.03066e-07
1.03026e-07
1.03e-07
1.02964e-07
1.0294e-07
1.02907e-07
1.02886e-07
1.02857e-07
1.02837e-07
1.0281e-07
1.0279e-07
1.02766e-07
1.02748e-07
1.02724e-07
1.02708e-07
1.02687e-07
1.02672e-07
1.02652e-07
1.02636e-07
1.02616e-07
1.02602e-07
1.02586e-07
1.02574e-07
1.0256e-07
1.0255e-07
1.02537e-07
1.02527e-07
1.02513e-07
1.02503e-07
1.0249e-07
1.0248e-07
1.02468e-07
1.02458e-07
1.02446e-07
1.02435e-07
1.0242e-07
1.02404e-07
1.02393e-07
1.02376e-07
1.02351e-07
1.02337e-07
1.02353e-07
1.03388e-07
1.0595e-07
1.32737e-08
1.23945e-07
1.23146e-07
1.22325e-07
1.21238e-07
1.1992e-07
1.18465e-07
1.17021e-07
1.15638e-07
1.14384e-07
1.13238e-07
1.12231e-07
1.11321e-07
1.10527e-07
1.09809e-07
1.09184e-07
1.08613e-07
1.08116e-07
1.07659e-07
1.0726e-07
1.06889e-07
1.06566e-07
1.06262e-07
1.05996e-07
1.05746e-07
1.05525e-07
1.05316e-07
1.05131e-07
1.04955e-07
1.048e-07
1.0465e-07
1.04517e-07
1.04389e-07
1.04275e-07
1.04165e-07
1.04067e-07
1.03972e-07
1.03886e-07
1.03803e-07
1.03728e-07
1.03656e-07
1.03589e-07
1.03526e-07
1.03467e-07
1.03412e-07
1.03358e-07
1.0331e-07
1.03262e-07
1.0322e-07
1.03176e-07
1.0314e-07
1.03099e-07
1.03066e-07
1.03026e-07
1.03e-07
1.02964e-07
1.0294e-07
1.02907e-07
1.02886e-07
1.02857e-07
1.02837e-07
1.0281e-07
1.0279e-07
1.02766e-07
1.02747e-07
1.02724e-07
1.02707e-07
1.02687e-07
1.02672e-07
1.02651e-07
1.02635e-07
1.02616e-07
1.02601e-07
1.02585e-07
1.02573e-07
1.02559e-07
1.02549e-07
1.02536e-07
1.02526e-07
1.02513e-07
1.02502e-07
1.02489e-07
1.02479e-07
1.02467e-07
1.02457e-07
1.02445e-07
1.02434e-07
1.02419e-07
1.02403e-07
1.02392e-07
1.02375e-07
1.0235e-07
1.02336e-07
1.02353e-07
1.03406e-07
1.05954e-07
1.38805e-08
1.23944e-07
1.23146e-07
1.22325e-07
1.2124e-07
1.19925e-07
1.18472e-07
1.1703e-07
1.15648e-07
1.14394e-07
1.13248e-07
1.12241e-07
1.1133e-07
1.10537e-07
1.09818e-07
1.09192e-07
1.08621e-07
1.08124e-07
1.07666e-07
1.07267e-07
1.06895e-07
1.06571e-07
1.06267e-07
1.06001e-07
1.0575e-07
1.0553e-07
1.0532e-07
1.05135e-07
1.04959e-07
1.04803e-07
1.04653e-07
1.0452e-07
1.04392e-07
1.04278e-07
1.04168e-07
1.04069e-07
1.03974e-07
1.03888e-07
1.03805e-07
1.03729e-07
1.03658e-07
1.0359e-07
1.03527e-07
1.03468e-07
1.03413e-07
1.03359e-07
1.03311e-07
1.03263e-07
1.03221e-07
1.03177e-07
1.0314e-07
1.031e-07
1.03067e-07
1.03027e-07
1.03e-07
1.02964e-07
1.0294e-07
1.02907e-07
1.02886e-07
1.02857e-07
1.02837e-07
1.0281e-07
1.0279e-07
1.02766e-07
1.02747e-07
1.02723e-07
1.02707e-07
1.02686e-07
1.02671e-07
1.02651e-07
1.02635e-07
1.02615e-07
1.02601e-07
1.02584e-07
1.02573e-07
1.02558e-07
1.02549e-07
1.02535e-07
1.02525e-07
1.02512e-07
1.02502e-07
1.02488e-07
1.02479e-07
1.02466e-07
1.02456e-07
1.02444e-07
1.02433e-07
1.02418e-07
1.02403e-07
1.02391e-07
1.02374e-07
1.02349e-07
1.02335e-07
1.02352e-07
1.03428e-07
1.05958e-07
1.45239e-08
1.23944e-07
1.23145e-07
1.22325e-07
1.21243e-07
1.1993e-07
1.1848e-07
1.17039e-07
1.15658e-07
1.14405e-07
1.1326e-07
1.12252e-07
1.11341e-07
1.10547e-07
1.09828e-07
1.09202e-07
1.0863e-07
1.08132e-07
1.07674e-07
1.07274e-07
1.06903e-07
1.06578e-07
1.06274e-07
1.06007e-07
1.05756e-07
1.05535e-07
1.05325e-07
1.0514e-07
1.04963e-07
1.04807e-07
1.04657e-07
1.04523e-07
1.04395e-07
1.04281e-07
1.04171e-07
1.04072e-07
1.03976e-07
1.0389e-07
1.03807e-07
1.03731e-07
1.03659e-07
1.03592e-07
1.03529e-07
1.03469e-07
1.03414e-07
1.0336e-07
1.03312e-07
1.03264e-07
1.03222e-07
1.03178e-07
1.03141e-07
1.031e-07
1.03067e-07
1.03027e-07
1.03e-07
1.02964e-07
1.0294e-07
1.02907e-07
1.02886e-07
1.02857e-07
1.02837e-07
1.0281e-07
1.0279e-07
1.02766e-07
1.02747e-07
1.02723e-07
1.02707e-07
1.02686e-07
1.02671e-07
1.0265e-07
1.02634e-07
1.02615e-07
1.026e-07
1.02584e-07
1.02572e-07
1.02558e-07
1.02548e-07
1.02535e-07
1.02525e-07
1.02511e-07
1.02501e-07
1.02488e-07
1.02478e-07
1.02465e-07
1.02456e-07
1.02443e-07
1.02432e-07
1.02417e-07
1.02402e-07
1.0239e-07
1.02373e-07
1.02348e-07
1.02334e-07
1.02352e-07
1.03454e-07
1.05963e-07
1.52033e-08
1.23944e-07
1.23144e-07
1.22326e-07
1.21246e-07
1.19936e-07
1.18488e-07
1.1705e-07
1.1567e-07
1.14418e-07
1.13273e-07
1.12265e-07
1.11354e-07
1.10559e-07
1.09839e-07
1.09212e-07
1.0864e-07
1.08142e-07
1.07683e-07
1.07283e-07
1.06911e-07
1.06586e-07
1.06281e-07
1.06014e-07
1.05762e-07
1.05541e-07
1.0533e-07
1.05145e-07
1.04968e-07
1.04811e-07
1.04661e-07
1.04527e-07
1.04399e-07
1.04284e-07
1.04174e-07
1.04074e-07
1.03979e-07
1.03893e-07
1.0381e-07
1.03733e-07
1.03661e-07
1.03594e-07
1.03531e-07
1.03471e-07
1.03415e-07
1.03362e-07
1.03313e-07
1.03265e-07
1.03223e-07
1.03179e-07
1.03142e-07
1.03101e-07
1.03068e-07
1.03028e-07
1.03001e-07
1.02965e-07
1.0294e-07
1.02908e-07
1.02886e-07
1.02857e-07
1.02837e-07
1.0281e-07
1.0279e-07
1.02766e-07
1.02747e-07
1.02723e-07
1.02706e-07
1.02686e-07
1.0267e-07
1.0265e-07
1.02634e-07
1.02615e-07
1.026e-07
1.02583e-07
1.02572e-07
1.02557e-07
1.02547e-07
1.02534e-07
1.02524e-07
1.0251e-07
1.025e-07
1.02487e-07
1.02477e-07
1.02464e-07
1.02455e-07
1.02442e-07
1.02431e-07
1.02416e-07
1.02401e-07
1.02389e-07
1.02373e-07
1.02347e-07
1.02334e-07
1.02352e-07
1.03482e-07
1.05968e-07
1.59181e-08
1.23944e-07
1.23144e-07
1.22326e-07
1.21249e-07
1.19943e-07
1.18498e-07
1.17062e-07
1.15684e-07
1.14432e-07
1.13287e-07
1.12279e-07
1.11367e-07
1.10572e-07
1.09852e-07
1.09225e-07
1.08652e-07
1.08153e-07
1.07693e-07
1.07292e-07
1.0692e-07
1.06594e-07
1.06289e-07
1.06021e-07
1.05769e-07
1.05547e-07
1.05336e-07
1.0515e-07
1.04973e-07
1.04816e-07
1.04665e-07
1.04532e-07
1.04403e-07
1.04288e-07
1.04177e-07
1.04078e-07
1.03982e-07
1.03895e-07
1.03812e-07
1.03736e-07
1.03664e-07
1.03596e-07
1.03533e-07
1.03473e-07
1.03417e-07
1.03363e-07
1.03314e-07
1.03266e-07
1.03224e-07
1.0318e-07
1.03143e-07
1.03102e-07
1.03069e-07
1.03028e-07
1.03002e-07
1.02965e-07
1.02941e-07
1.02908e-07
1.02886e-07
1.02857e-07
1.02837e-07
1.0281e-07
1.0279e-07
1.02766e-07
1.02747e-07
1.02723e-07
1.02706e-07
1.02686e-07
1.0267e-07
1.0265e-07
1.02634e-07
1.02614e-07
1.026e-07
1.02583e-07
1.02571e-07
1.02557e-07
1.02547e-07
1.02533e-07
1.02523e-07
1.0251e-07
1.02499e-07
1.02486e-07
1.02476e-07
1.02464e-07
1.02454e-07
1.02441e-07
1.0243e-07
1.02416e-07
1.024e-07
1.02388e-07
1.02372e-07
1.02346e-07
1.02333e-07
1.02352e-07
1.03515e-07
1.05974e-07
1.66704e-08
1.23944e-07
1.23143e-07
1.22326e-07
1.21253e-07
1.1995e-07
1.18509e-07
1.17075e-07
1.15698e-07
1.14447e-07
1.13303e-07
1.12294e-07
1.11383e-07
1.10587e-07
1.09866e-07
1.09238e-07
1.08664e-07
1.08165e-07
1.07704e-07
1.07303e-07
1.06929e-07
1.06604e-07
1.06297e-07
1.0603e-07
1.05777e-07
1.05555e-07
1.05343e-07
1.05157e-07
1.04979e-07
1.04822e-07
1.04671e-07
1.04537e-07
1.04408e-07
1.04292e-07
1.04181e-07
1.04082e-07
1.03986e-07
1.03899e-07
1.03815e-07
1.03739e-07
1.03667e-07
1.03598e-07
1.03535e-07
1.03475e-07
1.03419e-07
1.03365e-07
1.03316e-07
1.03268e-07
1.03226e-07
1.03181e-07
1.03144e-07
1.03103e-07
1.0307e-07
1.03029e-07
1.03002e-07
1.02966e-07
1.02941e-07
1.02909e-07
1.02887e-07
1.02858e-07
1.02837e-07
1.0281e-07
1.0279e-07
1.02766e-07
1.02747e-07
1.02723e-07
1.02706e-07
1.02686e-07
1.0267e-07
1.0265e-07
1.02634e-07
1.02614e-07
1.02599e-07
1.02583e-07
1.02571e-07
1.02556e-07
1.02546e-07
1.02533e-07
1.02523e-07
1.02509e-07
1.02499e-07
1.02485e-07
1.02475e-07
1.02463e-07
1.02453e-07
1.0244e-07
1.02429e-07
1.02415e-07
1.024e-07
1.02387e-07
1.02372e-07
1.02345e-07
1.02332e-07
1.02352e-07
1.03551e-07
1.05978e-07
1.74626e-08
1.23944e-07
1.23142e-07
1.22327e-07
1.21256e-07
1.19958e-07
1.1852e-07
1.1709e-07
1.15714e-07
1.14464e-07
1.1332e-07
1.12311e-07
1.11399e-07
1.10603e-07
1.09881e-07
1.09252e-07
1.08678e-07
1.08178e-07
1.07717e-07
1.07315e-07
1.0694e-07
1.06614e-07
1.06307e-07
1.06039e-07
1.05785e-07
1.05563e-07
1.05351e-07
1.05164e-07
1.04986e-07
1.04828e-07
1.04677e-07
1.04542e-07
1.04413e-07
1.04297e-07
1.04186e-07
1.04086e-07
1.0399e-07
1.03903e-07
1.03819e-07
1.03742e-07
1.0367e-07
1.03601e-07
1.03538e-07
1.03477e-07
1.03421e-07
1.03367e-07
1.03318e-07
1.0327e-07
1.03227e-07
1.03183e-07
1.03145e-07
1.03104e-07
1.03071e-07
1.0303e-07
1.03003e-07
1.02967e-07
1.02942e-07
1.02909e-07
1.02887e-07
1.02858e-07
1.02838e-07
1.0281e-07
1.0279e-07
1.02766e-07
1.02747e-07
1.02723e-07
1.02706e-07
1.02686e-07
1.0267e-07
1.0265e-07
1.02633e-07
1.02614e-07
1.02599e-07
1.02582e-07
1.0257e-07
1.02556e-07
1.02546e-07
1.02532e-07
1.02522e-07
1.02508e-07
1.02498e-07
1.02484e-07
1.02475e-07
1.02462e-07
1.02452e-07
1.02439e-07
1.02429e-07
1.02414e-07
1.02399e-07
1.02387e-07
1.02371e-07
1.02344e-07
1.02332e-07
1.02352e-07
1.03592e-07
1.05983e-07
1.82973e-08
1.23944e-07
1.23141e-07
1.22327e-07
1.2126e-07
1.19966e-07
1.18533e-07
1.17105e-07
1.15732e-07
1.14482e-07
1.13338e-07
1.1233e-07
1.11417e-07
1.10621e-07
1.09898e-07
1.09268e-07
1.08693e-07
1.08192e-07
1.0773e-07
1.07327e-07
1.06952e-07
1.06625e-07
1.06318e-07
1.06049e-07
1.05795e-07
1.05571e-07
1.05359e-07
1.05172e-07
1.04993e-07
1.04835e-07
1.04683e-07
1.04548e-07
1.04419e-07
1.04303e-07
1.04191e-07
1.04091e-07
1.03994e-07
1.03907e-07
1.03823e-07
1.03746e-07
1.03673e-07
1.03605e-07
1.03541e-07
1.0348e-07
1.03424e-07
1.0337e-07
1.0332e-07
1.03272e-07
1.03229e-07
1.03184e-07
1.03147e-07
1.03106e-07
1.03072e-07
1.03032e-07
1.03005e-07
1.02968e-07
1.02943e-07
1.0291e-07
1.02888e-07
1.02859e-07
1.02838e-07
1.02811e-07
1.02791e-07
1.02766e-07
1.02747e-07
1.02723e-07
1.02706e-07
1.02686e-07
1.0267e-07
1.0265e-07
1.02633e-07
1.02614e-07
1.02599e-07
1.02582e-07
1.0257e-07
1.02555e-07
1.02545e-07
1.02532e-07
1.02521e-07
1.02508e-07
1.02497e-07
1.02484e-07
1.02474e-07
1.02461e-07
1.02451e-07
1.02438e-07
1.02428e-07
1.02413e-07
1.02398e-07
1.02386e-07
1.0237e-07
1.02343e-07
1.02331e-07
1.02352e-07
1.03636e-07
1.05986e-07
1.91772e-08
1.23944e-07
1.2314e-07
1.22327e-07
1.21264e-07
1.19975e-07
1.18546e-07
1.17122e-07
1.1575e-07
1.14502e-07
1.13358e-07
1.1235e-07
1.11437e-07
1.10639e-07
1.09916e-07
1.09286e-07
1.08709e-07
1.08208e-07
1.07745e-07
1.07341e-07
1.06965e-07
1.06637e-07
1.06329e-07
1.0606e-07
1.05805e-07
1.05581e-07
1.05368e-07
1.0518e-07
1.05001e-07
1.04843e-07
1.0469e-07
1.04555e-07
1.04425e-07
1.04309e-07
1.04197e-07
1.04096e-07
1.03999e-07
1.03911e-07
1.03827e-07
1.0375e-07
1.03677e-07
1.03608e-07
1.03544e-07
1.03483e-07
1.03427e-07
1.03372e-07
1.03323e-07
1.03274e-07
1.03231e-07
1.03186e-07
1.03149e-07
1.03107e-07
1.03074e-07
1.03033e-07
1.03006e-07
1.02969e-07
1.02944e-07
1.02911e-07
1.02889e-07
1.0286e-07
1.02839e-07
1.02812e-07
1.02791e-07
1.02767e-07
1.02748e-07
1.02724e-07
1.02707e-07
1.02686e-07
1.0267e-07
1.0265e-07
1.02633e-07
1.02614e-07
1.02599e-07
1.02582e-07
1.0257e-07
1.02555e-07
1.02545e-07
1.02531e-07
1.02521e-07
1.02507e-07
1.02497e-07
1.02483e-07
1.02473e-07
1.0246e-07
1.0245e-07
1.02437e-07
1.02427e-07
1.02413e-07
1.02398e-07
1.02385e-07
1.0237e-07
1.02343e-07
1.0233e-07
1.02352e-07
1.03685e-07
1.02121e-07
2.0105e-08
1.23943e-07
1.23139e-07
1.22328e-07
1.21269e-07
1.19985e-07
1.1856e-07
1.17139e-07
1.1577e-07
1.14523e-07
1.1338e-07
1.12371e-07
1.11458e-07
1.1066e-07
1.09935e-07
1.09304e-07
1.08727e-07
1.08224e-07
1.07761e-07
1.07356e-07
1.0698e-07
1.06651e-07
1.06342e-07
1.06071e-07
1.05816e-07
1.05592e-07
1.05378e-07
1.0519e-07
1.0501e-07
1.04851e-07
1.04698e-07
1.04562e-07
1.04432e-07
1.04315e-07
1.04203e-07
1.04102e-07
1.04005e-07
1.03916e-07
1.03832e-07
1.03754e-07
1.03681e-07
1.03612e-07
1.03548e-07
1.03487e-07
1.0343e-07
1.03376e-07
1.03326e-07
1.03277e-07
1.03234e-07
1.03189e-07
1.03151e-07
1.03109e-07
1.03076e-07
1.03035e-07
1.03007e-07
1.02971e-07
1.02946e-07
1.02912e-07
1.0289e-07
1.02861e-07
1.0284e-07
1.02812e-07
1.02792e-07
1.02767e-07
1.02748e-07
1.02724e-07
1.02707e-07
1.02686e-07
1.0267e-07
1.0265e-07
1.02634e-07
1.02614e-07
1.02599e-07
1.02582e-07
1.0257e-07
1.02555e-07
1.02545e-07
1.02531e-07
1.0252e-07
1.02506e-07
1.02496e-07
1.02482e-07
1.02472e-07
1.02459e-07
1.0245e-07
1.02436e-07
1.02426e-07
1.02412e-07
1.02397e-07
1.02384e-07
1.02369e-07
1.02342e-07
1.0233e-07
1.02353e-07
1.03738e-07
9.63742e-08
2.10839e-08
1.23943e-07
1.23137e-07
1.22328e-07
1.21274e-07
1.19995e-07
1.18575e-07
1.17158e-07
1.15792e-07
1.14546e-07
1.13403e-07
1.12394e-07
1.1148e-07
1.10682e-07
1.09956e-07
1.09324e-07
1.08746e-07
1.08243e-07
1.07778e-07
1.07372e-07
1.06995e-07
1.06665e-07
1.06355e-07
1.06084e-07
1.05828e-07
1.05603e-07
1.05389e-07
1.052e-07
1.05019e-07
1.0486e-07
1.04706e-07
1.0457e-07
1.04439e-07
1.04322e-07
1.04209e-07
1.04108e-07
1.04011e-07
1.03922e-07
1.03837e-07
1.03759e-07
1.03686e-07
1.03616e-07
1.03552e-07
1.03491e-07
1.03434e-07
1.03379e-07
1.03329e-07
1.0328e-07
1.03237e-07
1.03191e-07
1.03154e-07
1.03112e-07
1.03078e-07
1.03037e-07
1.03009e-07
1.02972e-07
1.02947e-07
1.02914e-07
1.02891e-07
1.02862e-07
1.02841e-07
1.02813e-07
1.02793e-07
1.02768e-07
1.02749e-07
1.02725e-07
1.02707e-07
1.02686e-07
1.02671e-07
1.0265e-07
1.02634e-07
1.02614e-07
1.02599e-07
1.02582e-07
1.02569e-07
1.02554e-07
1.02544e-07
1.0253e-07
1.0252e-07
1.02506e-07
1.02496e-07
1.02482e-07
1.02472e-07
1.02459e-07
1.02449e-07
1.02435e-07
1.02425e-07
1.02411e-07
1.02397e-07
1.02383e-07
1.02369e-07
1.02341e-07
1.02329e-07
1.02353e-07
1.03796e-07
9.12485e-08
2.21169e-08
1.23943e-07
1.23136e-07
1.22328e-07
1.21279e-07
1.20006e-07
1.18592e-07
1.17178e-07
1.15814e-07
1.1457e-07
1.13428e-07
1.12419e-07
1.11504e-07
1.10705e-07
1.09979e-07
1.09346e-07
1.08767e-07
1.08262e-07
1.07796e-07
1.0739e-07
1.07011e-07
1.06681e-07
1.0637e-07
1.06098e-07
1.05841e-07
1.05615e-07
1.054e-07
1.05211e-07
1.05029e-07
1.0487e-07
1.04715e-07
1.04579e-07
1.04447e-07
1.0433e-07
1.04217e-07
1.04115e-07
1.04017e-07
1.03928e-07
1.03843e-07
1.03765e-07
1.03691e-07
1.03621e-07
1.03556e-07
1.03495e-07
1.03438e-07
1.03383e-07
1.03333e-07
1.03283e-07
1.0324e-07
1.03194e-07
1.03156e-07
1.03114e-07
1.0308e-07
1.03039e-07
1.03011e-07
1.02974e-07
1.02949e-07
1.02915e-07
1.02893e-07
1.02863e-07
1.02842e-07
1.02814e-07
1.02794e-07
1.02769e-07
1.0275e-07
1.02725e-07
1.02708e-07
1.02687e-07
1.02671e-07
1.0265e-07
1.02634e-07
1.02614e-07
1.02599e-07
1.02582e-07
1.02569e-07
1.02554e-07
1.02544e-07
1.0253e-07
1.0252e-07
1.02505e-07
1.02495e-07
1.02481e-07
1.02471e-07
1.02458e-07
1.02448e-07
1.02435e-07
1.02424e-07
1.02411e-07
1.02396e-07
1.02383e-07
1.02368e-07
1.0234e-07
1.02329e-07
1.02354e-07
1.03858e-07
8.66729e-08
2.32072e-08
1.23943e-07
1.23135e-07
1.22328e-07
1.21284e-07
1.20017e-07
1.18609e-07
1.172e-07
1.15838e-07
1.14596e-07
1.13454e-07
1.12445e-07
1.1153e-07
1.1073e-07
1.10003e-07
1.09369e-07
1.08788e-07
1.08283e-07
1.07816e-07
1.07408e-07
1.07029e-07
1.06697e-07
1.06386e-07
1.06113e-07
1.05855e-07
1.05628e-07
1.05412e-07
1.05222e-07
1.0504e-07
1.0488e-07
1.04725e-07
1.04588e-07
1.04456e-07
1.04338e-07
1.04224e-07
1.04122e-07
1.04024e-07
1.03935e-07
1.03849e-07
1.03771e-07
1.03696e-07
1.03626e-07
1.03561e-07
1.03499e-07
1.03442e-07
1.03387e-07
1.03336e-07
1.03286e-07
1.03243e-07
1.03197e-07
1.03159e-07
1.03117e-07
1.03083e-07
1.03042e-07
1.03014e-07
1.02976e-07
1.02951e-07
1.02917e-07
1.02894e-07
1.02865e-07
1.02844e-07
1.02816e-07
1.02795e-07
1.0277e-07
1.02751e-07
1.02726e-07
1.02709e-07
1.02688e-07
1.02672e-07
1.02651e-07
1.02635e-07
1.02615e-07
1.02599e-07
1.02582e-07
1.0257e-07
1.02554e-07
1.02544e-07
1.0253e-07
1.02519e-07
1.02505e-07
1.02495e-07
1.02481e-07
1.02471e-07
1.02457e-07
1.02447e-07
1.02434e-07
1.02423e-07
1.0241e-07
1.02396e-07
1.02382e-07
1.02368e-07
1.02339e-07
1.02328e-07
1.02355e-07
1.03924e-07
8.25834e-08
2.4358e-08
1.23943e-07
1.23133e-07
1.22329e-07
1.21289e-07
1.20029e-07
1.18627e-07
1.17222e-07
1.15864e-07
1.14623e-07
1.13482e-07
1.12473e-07
1.11557e-07
1.10757e-07
1.10028e-07
1.09393e-07
1.08812e-07
1.08305e-07
1.07837e-07
1.07428e-07
1.07048e-07
1.06715e-07
1.06402e-07
1.06129e-07
1.0587e-07
1.05642e-07
1.05426e-07
1.05235e-07
1.05052e-07
1.04891e-07
1.04736e-07
1.04598e-07
1.04465e-07
1.04347e-07
1.04233e-07
1.0413e-07
1.04031e-07
1.03942e-07
1.03856e-07
1.03777e-07
1.03702e-07
1.03632e-07
1.03566e-07
1.03504e-07
1.03447e-07
1.03391e-07
1.03341e-07
1.0329e-07
1.03247e-07
1.03201e-07
1.03162e-07
1.0312e-07
1.03086e-07
1.03044e-07
1.03016e-07
1.02978e-07
1.02953e-07
1.02919e-07
1.02896e-07
1.02866e-07
1.02845e-07
1.02817e-07
1.02796e-07
1.02771e-07
1.02752e-07
1.02727e-07
1.0271e-07
1.02688e-07
1.02672e-07
1.02651e-07
1.02635e-07
1.02615e-07
1.026e-07
1.02582e-07
1.0257e-07
1.02554e-07
1.02544e-07
1.0253e-07
1.02519e-07
1.02505e-07
1.02494e-07
1.0248e-07
1.0247e-07
1.02457e-07
1.02447e-07
1.02433e-07
1.02423e-07
1.02409e-07
1.02395e-07
1.02381e-07
1.02367e-07
1.02339e-07
1.02328e-07
1.02356e-07
1.03994e-07
7.89259e-08
2.55723e-08
1.23943e-07
1.23132e-07
1.22329e-07
1.21295e-07
1.20042e-07
1.18645e-07
1.17246e-07
1.15891e-07
1.14652e-07
1.13511e-07
1.12503e-07
1.11586e-07
1.10785e-07
1.10055e-07
1.09419e-07
1.08837e-07
1.08329e-07
1.07859e-07
1.0745e-07
1.07068e-07
1.06734e-07
1.0642e-07
1.06146e-07
1.05886e-07
1.05658e-07
1.0544e-07
1.05248e-07
1.05065e-07
1.04903e-07
1.04747e-07
1.04609e-07
1.04476e-07
1.04356e-07
1.04242e-07
1.04139e-07
1.04039e-07
1.03949e-07
1.03863e-07
1.03784e-07
1.03709e-07
1.03638e-07
1.03572e-07
1.0351e-07
1.03452e-07
1.03396e-07
1.03345e-07
1.03295e-07
1.03251e-07
1.03204e-07
1.03166e-07
1.03123e-07
1.03089e-07
1.03047e-07
1.03019e-07
1.02981e-07
1.02955e-07
1.02921e-07
1.02898e-07
1.02868e-07
1.02847e-07
1.02819e-07
1.02798e-07
1.02772e-07
1.02753e-07
1.02728e-07
1.02711e-07
1.02689e-07
1.02673e-07
1.02652e-07
1.02636e-07
1.02616e-07
1.026e-07
1.02583e-07
1.0257e-07
1.02555e-07
1.02544e-07
1.02529e-07
1.02519e-07
1.02505e-07
1.02494e-07
1.0248e-07
1.0247e-07
1.02456e-07
1.02446e-07
1.02432e-07
1.02422e-07
1.02409e-07
1.02395e-07
1.02381e-07
1.02367e-07
1.02338e-07
1.02328e-07
1.02358e-07
1.04067e-07
7.56541e-08
2.6853e-08
1.23942e-07
1.2313e-07
1.22329e-07
1.21301e-07
1.20055e-07
1.18665e-07
1.17271e-07
1.15919e-07
1.14682e-07
1.13542e-07
1.12534e-07
1.11617e-07
1.10815e-07
1.10084e-07
1.09447e-07
1.08863e-07
1.08354e-07
1.07883e-07
1.07472e-07
1.07089e-07
1.06754e-07
1.06439e-07
1.06164e-07
1.05903e-07
1.05674e-07
1.05455e-07
1.05263e-07
1.05079e-07
1.04916e-07
1.04759e-07
1.0462e-07
1.04486e-07
1.04367e-07
1.04251e-07
1.04148e-07
1.04048e-07
1.03957e-07
1.03871e-07
1.03791e-07
1.03715e-07
1.03645e-07
1.03578e-07
1.03516e-07
1.03457e-07
1.03401e-07
1.0335e-07
1.03299e-07
1.03255e-07
1.03209e-07
1.0317e-07
1.03127e-07
1.03092e-07
1.0305e-07
1.03022e-07
1.02984e-07
1.02958e-07
1.02924e-07
1.029e-07
1.0287e-07
1.02849e-07
1.0282e-07
1.02799e-07
1.02774e-07
1.02755e-07
1.0273e-07
1.02712e-07
1.0269e-07
1.02674e-07
1.02653e-07
1.02637e-07
1.02616e-07
1.02601e-07
1.02583e-07
1.0257e-07
1.02555e-07
1.02544e-07
1.0253e-07
1.02519e-07
1.02504e-07
1.02494e-07
1.0248e-07
1.02469e-07
1.02456e-07
1.02446e-07
1.02432e-07
1.02421e-07
1.02408e-07
1.02394e-07
1.0238e-07
1.02366e-07
1.02338e-07
1.02327e-07
1.02359e-07
1.04142e-07
7.27286e-08
2.82027e-08
1.23942e-07
1.23128e-07
1.22329e-07
1.21306e-07
1.20069e-07
1.18686e-07
1.17297e-07
1.15949e-07
1.14714e-07
1.13575e-07
1.12567e-07
1.1165e-07
1.10846e-07
1.10115e-07
1.09476e-07
1.08891e-07
1.0838e-07
1.07908e-07
1.07496e-07
1.07111e-07
1.06776e-07
1.06459e-07
1.06183e-07
1.05921e-07
1.05691e-07
1.05471e-07
1.05278e-07
1.05093e-07
1.0493e-07
1.04772e-07
1.04632e-07
1.04498e-07
1.04378e-07
1.04262e-07
1.04158e-07
1.04057e-07
1.03966e-07
1.03879e-07
1.03799e-07
1.03723e-07
1.03652e-07
1.03585e-07
1.03522e-07
1.03463e-07
1.03407e-07
1.03355e-07
1.03304e-07
1.0326e-07
1.03213e-07
1.03174e-07
1.03131e-07
1.03096e-07
1.03054e-07
1.03025e-07
1.02987e-07
1.02961e-07
1.02926e-07
1.02903e-07
1.02872e-07
1.02851e-07
1.02822e-07
1.02801e-07
1.02776e-07
1.02756e-07
1.02731e-07
1.02713e-07
1.02691e-07
1.02675e-07
1.02654e-07
1.02638e-07
1.02617e-07
1.02602e-07
1.02584e-07
1.02571e-07
1.02555e-07
1.02544e-07
1.0253e-07
1.02519e-07
1.02504e-07
1.02494e-07
1.02479e-07
1.02469e-07
1.02455e-07
1.02445e-07
1.02431e-07
1.02421e-07
1.02408e-07
1.02394e-07
1.0238e-07
1.02366e-07
1.02337e-07
1.02327e-07
1.02361e-07
1.04219e-07
7.01156e-08
2.96233e-08
1.23942e-07
1.23126e-07
1.2233e-07
1.21313e-07
1.20083e-07
1.18707e-07
1.17325e-07
1.1598e-07
1.14747e-07
1.1361e-07
1.12602e-07
1.11684e-07
1.1088e-07
1.10147e-07
1.09507e-07
1.0892e-07
1.08408e-07
1.07935e-07
1.07521e-07
1.07135e-07
1.06798e-07
1.06481e-07
1.06203e-07
1.0594e-07
1.05709e-07
1.05488e-07
1.05294e-07
1.05108e-07
1.04944e-07
1.04786e-07
1.04646e-07
1.0451e-07
1.04389e-07
1.04273e-07
1.04168e-07
1.04067e-07
1.03976e-07
1.03888e-07
1.03807e-07
1.03731e-07
1.03659e-07
1.03592e-07
1.03529e-07
1.0347e-07
1.03413e-07
1.03361e-07
1.03309e-07
1.03265e-07
1.03218e-07
1.03179e-07
1.03135e-07
1.031e-07
1.03058e-07
1.03029e-07
1.0299e-07
1.02964e-07
1.02929e-07