/*--------------------------------*- C++ -*----------------------------------*\
| =========                 |                                                 |
| \\      /  F ield         | OpenFOAM: The Open Source CFD Toolbox           |
|  \\    /   O peration     | Version:  v2012                                 |
|   \\  /    A nd           | Website:  www.openfoam.com                      |
|    \\/     M anipulation  |                                                 |
\*---------------------------------------------------------------------------*/
FoamFile
{
    version     2.0;
    format      ascii;
    class       volScalarField;
    location    "51.5";
    object      omega;
}
// * * * * * * * * * * * * * * * * * * * * * * * * * * * * * * * * * * * * * //

dimensions      [0 0 -1 0 0 0 0];


internalField   nonuniform List<scalar> 
209825
(
8261.76
7569.71
6999.43
6540.52
6176.64
5889.5
5660.95
5477.52
5327.8
5204.66
5101.52
5014.89
4940.71
4877.4
4822.15
4774.45
4732.14
4695.29
4662.12
4633.08
4606.57
4583.28
4561.75
4542.8
4525.06
4509.47
4494.69
4481.71
4469.24
4458.36
4447.76
4438.55
4429.47
4421.64
4413.79
4407.09
4400.29
4394.53
4388.6
4383.6
4378.44
4374.11
4369.54
4365.8
4361.8
4358.52
4354.98
4352.08
4348.99
4346.45
4343.73
4341.54
4339.21
4337.22
4335.15
4333.42
4331.59
4330.07
4328.42
4327.11
4325.73
4324.65
4323.38
4322.5
4321.41
4320.66
4319.66
4319.04
4318.19
4317.72
4317.01
4316.62
4316.02
4315.69
4315.1
4314.75
4314.18
4313.88
4313.38
4313.13
4312.71
4312.52
4312.14
4312.02
4311.74
4311.8
4311.76
4311.99
4311.99
4312.38
4312.38
4313.08
4313.81
4342.1
4450.88
113101
8261.76
7569.72
6999.43
6540.52
6176.63
5889.48
5660.92
5477.48
5327.75
5204.6
5101.45
5014.82
4940.63
4877.31
4822.06
4774.36
4732.04
4695.19
4662.02
4632.97
4606.46
4583.17
4561.64
4542.69
4524.95
4509.35
4494.57
4481.59
4469.12
4458.24
4447.64
4438.43
4429.35
4421.51
4413.66
4406.96
4400.17
4394.4
4388.47
4383.47
4378.31
4373.98
4369.41
4365.67
4361.66
4358.39
4354.85
4351.95
4348.85
4346.32
4343.6
4341.41
4339.08
4337.09
4335.01
4333.28
4331.45
4329.93
4328.28
4326.97
4325.59
4324.51
4323.24
4322.36
4321.28
4320.52
4319.52
4318.9
4318.05
4317.58
4316.87
4316.49
4315.88
4315.55
4314.96
4314.61
4314.04
4313.74
4313.24
4313
4312.57
4312.38
4312
4311.88
4311.6
4311.66
4311.62
4311.85
4311.85
4312.24
4312.23
4312.94
4313.67
4342.01
4450.78
109802
8261.76
7569.72
6999.43
6540.5
6176.58
5889.4
5660.8
5477.33
5327.57
5204.39
5101.22
5014.56
4940.36
4877.03
4821.76
4774.04
4731.72
4694.86
4661.68
4632.62
4606.1
4582.81
4561.27
4542.31
4524.57
4508.97
4494.18
4481.19
4468.72
4457.83
4447.23
4438.02
4428.94
4421.1
4413.25
4406.54
4399.74
4393.98
4388.05
4383.05
4377.89
4373.55
4368.98
4365.24
4361.23
4357.95
4354.41
4351.51
4348.41
4345.88
4343.16
4340.97
4338.64
4336.64
4334.57
4332.84
4331.01
4329.49
4327.84
4326.53
4325.14
4324.06
4322.79
4321.91
4320.82
4320.07
4319.07
4318.45
4317.6
4317.13
4316.41
4316.03
4315.42
4315.1
4314.51
4314.15
4313.59
4313.28
4312.79
4312.54
4312.11
4311.92
4311.54
4311.42
4311.14
4311.2
4311.15
4311.39
4311.39
4311.77
4311.77
4312.47
4313.2
4341.65
4450.4
106015
8261.76
7569.73
6999.44
6540.47
6176.49
5889.25
5660.59
5477.06
5327.25
5204.03
5100.82
5014.13
4939.89
4876.53
4821.25
4773.51
4731.16
4694.28
4661.09
4632.02
4605.49
4582.18
4560.63
4541.67
4523.91
4508.3
4493.51
4480.52
4468.04
4457.15
4446.54
4437.32
4428.23
4420.39
4412.54
4405.83
4399.03
4393.26
4387.32
4382.32
4377.15
4372.82
4368.25
4364.5
4360.49
4357.21
4353.67
4350.76
4347.66
4345.13
4342.4
4340.21
4337.88
4335.88
4333.81
4332.08
4330.25
4328.72
4327.07
4325.76
4324.37
4323.29
4322.02
4321.14
4320.05
4319.3
4318.3
4317.67
4316.82
4316.35
4315.64
4315.25
4314.65
4314.32
4313.73
4313.37
4312.81
4312.5
4312
4311.75
4311.33
4311.13
4310.76
4310.64
4310.36
4310.41
4310.36
4310.59
4310.59
4310.98
4310.98
4311.68
4312.41
4341.01
4449.74
102121
8261.76
7569.75
6999.44
6540.42
6176.37
5889.04
5660.29
5476.68
5326.8
5203.52
5100.24
5013.51
4939.22
4875.83
4820.51
4772.74
4730.37
4693.47
4660.25
4631.16
4604.61
4581.29
4559.73
4540.75
4522.98
4507.36
4492.55
4479.55
4467.07
4456.16
4445.55
4436.33
4427.23
4419.38
4411.52
4404.81
4398
4392.23
4386.28
4381.28
4376.11
4371.77
4367.2
4363.44
4359.43
4356.15
4352.6
4349.7
4346.6
4344.06
4341.33
4339.14
4336.8
4334.8
4332.73
4330.99
4329.16
4327.64
4325.98
4324.67
4323.28
4322.2
4320.92
4320.04
4318.95
4318.2
4317.2
4316.57
4315.72
4315.25
4314.53
4314.14
4313.54
4313.21
4312.62
4312.26
4311.69
4311.38
4310.89
4310.64
4310.21
4310.02
4309.64
4309.52
4309.24
4309.29
4309.24
4309.47
4309.47
4309.84
4309.84
4310.54
4311.28
4340.09
4448.79
98223.7
8261.76
7569.77
6999.45
6540.36
6176.21
5888.76
5659.9
5476.19
5326.21
5202.84
5099.5
5012.7
4938.36
4874.91
4819.55
4771.74
4729.33
4692.4
4659.16
4630.04
4603.47
4580.12
4558.54
4539.55
4521.76
4506.13
4491.31
4478.3
4465.8
4454.88
4444.26
4435.03
4425.92
4418.06
4410.2
4403.48
4396.66
4390.88
4384.93
4379.92
4374.75
4370.4
4365.83
4362.07
4358.05
4354.76
4351.22
4348.31
4345.2
4342.66
4339.93
4337.73
4335.39
4333.4
4331.31
4329.58
4327.74
4326.22
4324.56
4323.25
4321.85
4320.77
4319.49
4318.61
4317.52
4316.76
4315.76
4315.13
4314.28
4313.8
4313.08
4312.7
4312.09
4311.76
4311.17
4310.81
4310.24
4309.93
4309.44
4309.18
4308.75
4308.56
4308.18
4308.06
4307.78
4307.82
4307.77
4307.99
4307.99
4308.37
4308.37
4309.07
4309.81
4338.9
4447.55
94363.8
8261.76
7569.8
6999.46
6540.29
6176.01
5888.42
5659.42
5475.57
5325.48
5202.01
5098.58
5011.7
4937.28
4873.78
4818.36
4770.5
4728.05
4691.08
4657.8
4628.65
4602.05
4578.68
4557.08
4538.06
4520.25
4504.6
4489.76
4476.74
4464.22
4453.3
4442.66
4433.42
4424.3
4416.43
4408.56
4401.83
4395.01
4389.22
4383.26
4378.25
4373.06
4368.71
4364.13
4360.37
4356.34
4353.05
4349.5
4346.59
4343.48
4340.93
4338.2
4335.99
4333.65
4331.65
4329.56
4327.83
4325.99
4324.46
4322.8
4321.48
4320.09
4319
4317.72
4316.84
4315.74
4314.99
4313.98
4313.35
4312.49
4312.02
4311.3
4310.91
4310.3
4309.97
4309.37
4309.01
4308.45
4308.13
4307.64
4307.38
4306.95
4306.75
4306.37
4306.25
4305.97
4306.01
4305.95
4306.17
4306.17
4306.54
4306.54
4307.24
4307.99
4337.42
4446.03
90560
8261.76
7569.83
6999.48
6540.21
6175.78
5888.02
5658.85
5474.84
5324.61
5201.02
5097.47
5010.5
4936
4872.42
4816.94
4769.02
4726.52
4689.5
4656.18
4627
4600.36
4576.96
4555.33
4536.28
4518.45
4502.78
4487.92
4474.88
4462.34
4451.4
4440.75
4431.5
4422.36
4414.49
4406.6
4399.86
4393.03
4387.23
4381.26
4376.24
4371.05
4366.69
4362.1
4358.33
4354.3
4351
4347.45
4344.53
4341.41
4338.86
4336.12
4333.91
4331.57
4329.56
4327.47
4325.73
4323.89
4322.36
4320.7
4319.37
4317.98
4316.89
4315.6
4314.72
4313.62
4312.86
4311.85
4311.22
4310.36
4309.88
4309.16
4308.77
4308.15
4307.82
4307.23
4306.87
4306.3
4305.98
4305.48
4305.23
4304.79
4304.6
4304.21
4304.09
4303.8
4303.84
4303.78
4303.99
4303.99
4304.35
4304.35
4305.04
4305.81
4335.65
4444.22
86821
8261.76
7569.87
6999.49
6540.11
6175.5
5887.54
5658.18
5473.99
5323.6
5199.86
5096.19
5009.1
4934.51
4870.84
4815.28
4767.3
4724.73
4687.66
4654.29
4625.06
4598.39
4574.95
4553.28
4534.21
4516.35
4500.65
4485.77
4472.7
4460.15
4449.19
4438.52
4429.25
4420.1
4412.21
4404.31
4397.56
4390.71
4384.91
4378.93
4373.9
4368.7
4364.33
4359.73
4355.95
4351.92
4348.61
4345.05
4342.12
4339
4336.45
4333.7
4331.49
4329.14
4327.13
4325.03
4323.29
4321.44
4319.9
4318.24
4316.91
4315.51
4314.42
4313.13
4312.24
4311.14
4310.38
4309.36
4308.73
4307.87
4307.39
4306.66
4306.27
4305.65
4305.32
4304.72
4304.36
4303.79
4303.47
4302.97
4302.71
4302.27
4302.07
4301.69
4301.56
4301.27
4301.3
4301.24
4301.45
4301.45
4301.8
4301.8
4302.49
4303.27
4333.59
4442.12
83149.6
8261.76
7569.92
6999.51
6540
6175.19
5887.01
5657.42
5473.02
5322.44
5198.54
5094.72
5007.51
4932.8
4869.03
4813.38
4765.32
4722.69
4685.55
4652.12
4622.85
4596.12
4572.65
4550.94
4531.83
4513.94
4498.21
4483.3
4470.21
4457.64
4446.66
4435.97
4426.68
4417.51
4409.61
4401.69
4394.92
4388.06
4382.24
4376.26
4371.21
4366
4361.63
4357.02
4353.23
4349.19
4345.87
4342.3
4339.37
4336.24
4333.68
4330.92
4328.71
4326.35
4324.33
4322.23
4320.49
4318.63
4317.09
4315.42
4314.09
4312.68
4311.59
4310.3
4309.4
4308.3
4307.53
4306.51
4305.88
4305.01
4304.53
4303.8
4303.4
4302.78
4302.45
4301.85
4301.49
4300.91
4300.59
4300.09
4299.83
4299.39
4299.19
4298.8
4298.67
4298.38
4298.4
4298.33
4298.53
4298.53
4298.87
4298.87
4299.56
4300.35
4331.24
4439.73
79544.1
8261.76
7569.97
6999.53
6539.87
6174.84
5886.4
5656.56
5471.93
5321.13
5197.05
5093.06
5005.7
4930.87
4866.99
4811.24
4763.09
4720.38
4683.17
4649.68
4620.34
4593.57
4570.05
4548.29
4529.15
4511.22
4495.46
4480.52
4467.4
4454.8
4443.8
4433.08
4423.77
4414.59
4406.66
4398.73
4391.94
4385.07
4379.24
4373.24
4368.18
4362.96
4358.57
4353.95
4350.15
4346.1
4342.78
4339.2
4336.26
4333.12
4330.55
4327.79
4325.56
4323.2
4321.18
4319.07
4317.32
4315.46
4313.91
4312.24
4310.9
4309.49
4308.39
4307.09
4306.19
4305.08
4304.32
4303.29
4302.65
4301.78
4301.3
4300.56
4300.17
4299.54
4299.2
4298.6
4298.24
4297.66
4297.34
4296.83
4296.57
4296.13
4295.92
4295.53
4295.4
4295.1
4295.12
4295.04
4295.23
4295.23
4295.57
4295.57
4296.25
4297.06
4328.59
4437.06
75998.8
8261.76
7570.02
6999.55
6539.74
6174.46
5885.73
5655.6
5470.71
5319.68
5195.38
5091.22
5003.7
4928.72
4864.72
4808.85
4760.61
4717.8
4680.52
4646.95
4617.55
4590.72
4567.14
4545.34
4526.15
4508.18
4492.39
4477.41
4464.26
4451.63
4440.6
4429.86
4420.53
4411.32
4403.37
4395.42
4388.62
4381.73
4375.88
4369.86
4364.79
4359.55
4355.16
4350.52
4346.72
4342.65
4339.32
4335.73
4332.78
4329.63
4327.05
4324.29
4322.05
4319.68
4317.65
4315.54
4313.78
4311.91
4310.36
4308.68
4307.34
4305.92
4304.82
4303.51
4302.61
4301.49
4300.72
4299.7
4299.05
4298.18
4297.69
4296.95
4296.55
4295.92
4295.58
4294.98
4294.61
4294.03
4293.7
4293.19
4292.93
4292.48
4292.27
4291.88
4291.74
4291.45
4291.45
4291.36
4291.55
4291.55
4291.87
4291.87
4292.54
4293.38
4325.63
4434.1
72509.7
8261.76
7570.08
6999.58
6539.59
6174.03
5884.99
5654.55
5469.37
5318.08
5193.55
5089.18
5001.48
4926.35
4862.2
4806.22
4757.86
4714.95
4677.58
4643.94
4614.47
4587.57
4563.93
4542.08
4522.84
4504.82
4488.99
4473.97
4460.79
4448.12
4437.06
4426.29
4416.93
4407.7
4399.73
4391.76
4384.94
4378.03
4372.16
4366.13
4361.04
4355.79
4351.38
4346.73
4342.91
4338.83
4335.49
4331.89
4328.93
4325.77
4323.19
4320.41
4318.17
4315.78
4313.75
4311.63
4309.86
4307.99
4306.43
4304.74
4303.4
4301.97
4300.86
4299.55
4298.64
4297.52
4296.75
4295.72
4295.06
4294.18
4293.69
4292.95
4292.54
4291.91
4291.57
4290.96
4290.59
4290.01
4289.68
4289.16
4288.9
4288.44
4288.23
4287.84
4287.7
4287.4
4287.4
4287.29
4287.48
4287.47
4287.79
4287.78
4288.45
4289.31
4322.36
4430.86
69083.6
8261.76
7570.15
6999.61
6539.43
6173.57
5884.19
5653.41
5467.91
5316.33
5191.54
5086.95
4999.05
4923.74
4859.45
4803.32
4754.84
4711.83
4674.36
4640.63
4611.08
4584.11
4560.41
4538.49
4519.2
4501.14
4485.25
4470.2
4456.98
4444.27
4433.18
4422.38
4412.99
4403.73
4395.74
4387.74
4380.9
4373.97
4368.08
4362.03
4356.93
4351.66
4347.23
4342.57
4338.73
4334.64
4331.29
4327.67
4324.71
4321.54
4318.94
4316.15
4313.9
4311.51
4309.47
4307.33
4305.56
4303.68
4302.12
4300.42
4299.07
4297.63
4296.52
4295.2
4294.29
4293.16
4292.38
4291.34
4290.69
4289.8
4289.3
4288.55
4288.14
4287.51
4287.16
4286.55
4286.18
4285.59
4285.26
4284.74
4284.47
4284.01
4283.8
4283.4
4283.25
4282.95
4282.94
4282.83
4283
4283
4283.3
4283.29
4283.95
4284.83
4318.78
4427.34
65726.3
8261.76
7570.22
6999.64
6539.25
6173.07
5883.32
5652.16
5466.32
5314.42
5189.36
5084.52
4996.41
4920.91
4856.45
4800.17
4751.56
4708.43
4670.86
4637.03
4607.39
4580.34
4556.57
4534.59
4515.24
4497.12
4481.19
4466.08
4452.82
4440.07
4428.95
4418.11
4408.69
4399.4
4391.38
4383.35
4376.49
4369.53
4363.63
4357.56
4352.44
4347.15
4342.7
4338.02
4334.18
4330.07
4326.7
4323.07
4320.09
4316.91
4314.31
4311.5
4309.24
4306.84
4304.79
4302.65
4300.87
4298.97
4297.41
4295.7
4294.34
4292.9
4291.78
4290.45
4289.53
4288.4
4287.61
4286.57
4285.91
4285.02
4284.51
4283.76
4283.34
4282.71
4282.36
4281.74
4281.36
4280.77
4280.44
4279.91
4279.64
4279.18
4278.96
4278.55
4278.4
4278.1
4278.08
4277.95
4278.12
4278.11
4278.4
4278.39
4279.04
4279.95
4314.87
4423.55
62443.6
8261.75
7570.29
6999.68
6539.07
6172.54
5882.38
5650.82
5464.6
5312.37
5187.01
5081.9
4993.55
4917.84
4853.2
4796.76
4748.01
4704.74
4667.06
4633.12
4603.39
4576.26
4552.41
4530.36
4510.94
4492.76
4476.78
4461.62
4448.31
4435.52
4424.36
4413.48
4404.03
4394.7
4386.66
4378.6
4371.71
4364.73
4358.8
4352.71
4347.57
4342.25
4337.8
4333.1
4329.23
4325.11
4321.73
4318.09
4315.09
4311.9
4309.28
4306.46
4304.19
4301.78
4299.72
4297.56
4295.78
4293.87
4292.3
4290.58
4289.22
4287.76
4286.64
4285.3
4284.38
4283.23
4282.44
4281.39
4280.73
4279.83
4279.31
4278.55
4278.14
4277.49
4277.14
4276.52
4276.14
4275.54
4275.21
4274.67
4274.39
4273.93
4273.71
4273.29
4273.14
4272.84
4272.8
4272.66
4272.82
4272.81
4273.08
4273.07
4273.71
4274.66
4310.63
4419.48
59240.7
8261.75
7570.37
6999.72
6538.87
6171.97
5881.38
5649.38
5462.76
5310.16
5184.47
5079.07
4990.48
4914.54
4849.7
4793.09
4744.18
4700.77
4662.96
4628.91
4599.08
4571.85
4547.92
4525.79
4506.31
4488.06
4472.02
4456.8
4443.45
4430.61
4419.4
4408.48
4399
4389.64
4381.56
4373.47
4366.55
4359.54
4353.59
4347.47
4342.31
4336.98
4332.5
4327.78
4323.9
4319.76
4316.36
4312.7
4309.69
4306.48
4303.85
4301.02
4298.74
4296.31
4294.25
4292.08
4290.28
4288.36
4286.78
4285.06
4283.69
4282.22
4281.09
4279.74
4278.81
4277.65
4276.86
4275.8
4275.13
4274.22
4273.7
4272.94
4272.51
4271.87
4271.51
4270.88
4270.5
4269.9
4269.56
4269.02
4268.73
4268.26
4268.03
4267.62
4267.46
4267.15
4267.11
4266.95
4267.1
4267.09
4267.34
4267.33
4267.96
4268.94
4306.04
4415.15
56122.4
8261.75
7570.46
6999.76
6538.67
6171.36
5880.31
5647.85
5460.79
5307.79
5181.76
5076.05
4987.18
4911.01
4845.95
4789.15
4740.07
4696.51
4658.57
4624.39
4594.46
4567.12
4543.1
4520.89
4501.33
4483.01
4466.91
4451.63
4438.22
4425.34
4414.08
4403.12
4393.59
4384.19
4376.08
4367.96
4361.01
4353.97
4347.99
4341.85
4336.66
4331.3
4326.8
4322.06
4318.16
4314
4310.59
4306.91
4303.89
4300.66
4298.02
4295.18
4292.88
4290.44
4288.36
4286.18
4284.37
4282.44
4280.86
4279.12
4277.74
4276.26
4275.12
4273.76
4272.82
4271.66
4270.86
4269.79
4269.11
4268.2
4267.67
4266.9
4266.47
4265.81
4265.45
4264.82
4264.44
4263.83
4263.48
4262.94
4262.65
4262.17
4261.94
4261.51
4261.35
4261.04
4260.98
4260.81
4260.95
4260.93
4261.18
4261.16
4261.78
4262.8
4301.1
4410.54
53093.2
8261.74
7570.55
6999.81
6538.45
6170.72
5879.17
5646.22
5458.69
5305.27
5178.86
5072.82
4983.66
4907.23
4841.95
4784.94
4735.68
4691.96
4653.87
4619.56
4589.51
4562.07
4537.95
4515.64
4496.01
4477.61
4461.44
4446.1
4432.63
4419.69
4408.39
4397.38
4387.81
4378.37
4370.22
4362.06
4355.08
4348.01
4342
4335.82
4330.61
4325.23
4320.71
4315.94
4312.03
4307.84
4304.41
4300.72
4297.68
4294.43
4291.77
4288.92
4286.6
4284.15
4282.06
4279.86
4278.05
4276.1
4274.51
4272.76
4271.37
4269.87
4268.73
4267.36
4266.41
4265.24
4264.43
4263.36
4262.67
4261.75
4261.22
4260.43
4260
4259.34
4258.97
4258.33
4257.94
4257.33
4256.98
4256.43
4256.13
4255.65
4255.41
4254.98
4254.81
4254.49
4254.43
4254.24
4254.37
4254.35
4254.57
4254.55
4255.16
4256.22
4295.79
4405.64
50157.2
8261.74
7570.65
6999.87
6538.23
6170.04
5877.97
5644.49
5456.47
5302.6
5175.79
5069.39
4979.92
4903.21
4837.68
4780.46
4731
4687.11
4648.86
4614.42
4584.24
4556.68
4532.46
4510.06
4490.33
4471.86
4455.61
4440.2
4426.67
4413.67
4402.32
4391.25
4381.64
4372.15
4363.97
4355.77
4348.75
4341.64
4335.61
4329.4
4324.16
4318.75
4314.21
4309.42
4305.48
4301.27
4297.82
4294.11
4291.05
4287.79
4285.11
4282.23
4279.91
4277.43
4275.34
4273.12
4271.3
4269.34
4267.73
4265.97
4264.57
4263.06
4261.91
4260.53
4259.57
4258.39
4257.57
4256.49
4255.8
4254.86
4254.32
4253.53
4253.09
4252.42
4252.05
4251.41
4251.01
4250.39
4250.03
4249.48
4249.18
4248.68
4248.44
4248
4247.83
4247.5
4247.43
4247.23
4247.34
4247.32
4247.53
4247.49
4248.1
4249.2
4290.09
4400.42
47318.3
8261.73
7570.75
6999.92
6537.99
6169.33
5876.71
5642.66
5454.12
5299.77
5172.54
5065.76
4975.96
4898.95
4833.16
4775.7
4726.04
4681.96
4643.55
4608.95
4578.64
4550.95
4526.62
4504.12
4484.3
4465.74
4449.41
4433.93
4420.34
4407.27
4395.86
4384.74
4375.08
4365.55
4357.32
4349.07
4342.02
4334.88
4328.81
4322.57
4317.3
4311.86
4307.29
4302.47
4298.51
4294.28
4290.81
4287.07
4284
4280.71
4278.02
4275.13
4272.78
4270.29
4268.18
4265.95
4264.12
4262.14
4260.53
4258.75
4257.34
4255.82
4254.66
4253.26
4252.3
4251.1
4250.28
4249.18
4248.48
4247.54
4246.99
4246.19
4245.74
4245.06
4244.68
4244.04
4243.64
4243.01
4242.65
4242.08
4241.78
4241.27
4241.03
4240.58
4240.4
4240.07
4239.99
4239.77
4239.87
4239.83
4240.03
4239.99
4240.58
4241.73
4284
4394.85
44579.8
8261.73
7570.86
6999.99
6537.75
6168.59
5875.38
5640.75
5451.64
5296.79
5169.1
5061.92
4971.77
4894.44
4828.38
4770.67
4720.79
4676.51
4637.92
4603.17
4572.71
4544.89
4520.44
4497.83
4477.91
4459.26
4442.85
4427.29
4413.62
4400.49
4389.02
4377.84
4368.13
4358.54
4350.27
4341.98
4334.89
4327.7
4321.6
4315.32
4310.02
4304.55
4299.95
4295.11
4291.12
4286.87
4283.37
4279.61
4276.52
4273.21
4270.51
4267.59
4265.23
4262.72
4260.59
4258.35
4256.5
4254.51
4252.88
4251.09
4249.67
4248.13
4246.96
4245.55
4244.58
4243.37
4242.53
4241.43
4240.72
4239.76
4239.21
4238.4
4237.94
4237.26
4236.87
4236.22
4235.81
4235.18
4234.81
4234.23
4233.92
4233.41
4233.16
4232.71
4232.52
4232.18
4232.09
4231.85
4231.94
4231.9
4232.07
4232.02
4232.61
4233.81
4277.47
4388.91
41944.8
8261.72
7570.97
7000.06
6537.5
6167.81
5873.99
5638.73
5449.04
5293.65
5165.48
5057.88
4967.35
4889.69
4823.33
4765.36
4715.25
4670.76
4631.98
4597.05
4566.44
4538.48
4513.91
4491.18
4471.16
4452.4
4435.91
4420.26
4406.52
4393.32
4381.78
4370.54
4360.77
4351.13
4342.81
4334.47
4327.34
4320.11
4313.97
4307.66
4302.33
4296.82
4292.19
4287.32
4283.31
4279.02
4275.51
4271.72
4268.61
4265.28
4262.55
4259.61
4257.23
4254.7
4252.57
4250.3
4248.44
4246.43
4244.79
4242.98
4241.55
4240
4238.81
4237.4
4236.41
4235.18
4234.34
4233.22
4232.51
4231.54
4230.98
4230.15
4229.69
4228.99
4228.6
4227.94
4227.53
4226.89
4226.51
4225.93
4225.61
4225.09
4224.83
4224.37
4224.18
4223.83
4223.73
4223.48
4223.55
4223.5
4223.66
4223.59
4224.17
4225.42
4270.51
4382.57
39416.1
8261.71
7571.09
7000.13
6537.24
6167.01
5872.55
5636.63
5446.31
5290.36
5161.69
5053.63
4962.7
4884.69
4818.02
4759.77
4709.41
4664.7
4625.72
4590.61
4559.84
4531.73
4507.02
4484.17
4464.04
4445.18
4428.59
4412.85
4399.04
4385.75
4374.15
4362.84
4353.02
4343.32
4334.94
4326.56
4319.38
4312.1
4305.92
4299.57
4294.21
4288.66
4284
4279.1
4275.05
4270.74
4267.2
4263.39
4260.26
4256.9
4254.15
4251.19
4248.79
4246.24
4244.09
4241.81
4239.93
4237.9
4236.25
4234.42
4232.98
4231.41
4230.21
4228.78
4227.78
4226.54
4225.69
4224.56
4223.84
4222.86
4222.28
4221.45
4220.98
4220.27
4219.87
4219.2
4218.79
4218.14
4217.75
4217.16
4216.84
4216.31
4216.04
4215.57
4215.37
4215.01
4214.9
4214.63
4214.69
4214.63
4214.77
4214.69
4215.26
4216.56
4263.06
4375.8
36996
8261.71
7571.21
7000.21
6536.98
6166.18
5871.04
5634.43
5443.46
5286.91
5157.71
5049.18
4957.83
4879.45
4812.45
4753.9
4703.28
4658.33
4619.14
4583.84
4552.9
4524.63
4499.78
4476.79
4456.55
4437.57
4420.89
4405.06
4391.16
4377.79
4366.11
4354.74
4344.85
4335.09
4326.66
4318.22
4310.99
4303.67
4297.45
4291.05
4285.65
4280.07
4275.38
4270.44
4266.37
4262.02
4258.45
4254.62
4251.46
4248.08
4245.31
4242.32
4239.9
4237.33
4235.16
4232.86
4230.96
4228.92
4227.25
4225.41
4223.95
4222.36
4221.16
4219.71
4218.69
4217.44
4216.58
4215.44
4214.7
4213.71
4213.12
4212.28
4211.8
4211.08
4210.68
4210
4209.57
4208.91
4208.52
4207.92
4207.59
4207.05
4206.77
4206.3
4206.09
4205.72
4205.6
4205.32
4205.35
4205.29
4205.41
4205.32
4205.87
4207.23
4255.12
4368.55
34686.6
8261.7
7571.33
7000.29
6536.71
6165.31
5869.47
5632.14
5440.49
5283.31
5153.55
5044.52
4952.73
4873.95
4806.61
4747.75
4696.85
4651.65
4612.24
4576.74
4545.61
4517.18
4492.18
4469.05
4448.68
4429.59
4412.8
4396.87
4382.88
4369.43
4357.67
4346.22
4336.27
4326.44
4317.96
4309.46
4302.18
4294.81
4288.54
4282.1
4276.66
4271.04
4266.31
4261.34
4257.23
4252.86
4249.26
4245.39
4242.21
4238.8
4236.01
4233
4230.56
4227.96
4225.77
4223.45
4221.54
4219.47
4217.79
4215.93
4214.46
4212.85
4211.63
4210.16
4209.14
4207.87
4207
4205.84
4205.09
4204.09
4203.49
4202.63
4202.14
4201.42
4201
4200.32
4199.89
4199.22
4198.82
4198.21
4197.87
4197.32
4197.03
4196.54
4196.33
4195.95
4195.82
4195.52
4195.54
4195.46
4195.56
4195.45
4196
4197.42
4246.63
4360.8
32489.7
8261.68
7571.46
7000.38
6536.43
6164.42
5867.85
5629.76
5437.4
5279.56
5149.21
5039.66
4947.4
4868.21
4800.5
4741.31
4690.13
4644.66
4605.02
4569.3
4537.98
4509.37
4484.22
4460.94
4440.44
4421.22
4404.32
4388.28
4374.2
4360.66
4348.82
4337.29
4327.27
4317.37
4308.83
4300.27
4292.94
4285.52
4279.2
4272.71
4267.23
4261.56
4256.8
4251.79
4247.65
4243.24
4239.62
4235.72
4232.51
4229.07
4226.25
4223.22
4220.75
4218.13
4215.92
4213.57
4211.64
4209.56
4207.86
4205.98
4204.5
4202.86
4201.63
4200.15
4199.11
4197.82
4196.94
4195.77
4195.01
4193.99
4193.38
4192.51
4192.01
4191.27
4190.85
4190.15
4189.72
4189.04
4188.63
4188.01
4187.66
4187.1
4186.81
4186.31
4186.08
4185.69
4185.55
4185.24
4185.25
4185.15
4185.23
4185.1
4185.64
4187.11
4237.58
4352.51
30406.8
8261.67
7571.6
7000.48
6536.16
6163.51
5866.17
5627.3
5434.19
5275.66
5144.7
5034.59
4941.85
4862.22
4794.13
4734.59
4683.1
4637.36
4597.47
4561.52
4530.01
4501.21
4475.89
4452.46
4431.82
4412.47
4395.45
4379.3
4365.12
4351.48
4339.56
4327.95
4317.85
4307.88
4299.27
4290.65
4283.27
4275.78
4269.42
4262.88
4257.36
4251.64
4246.85
4241.79
4237.62
4233.17
4229.51
4225.58
4222.34
4218.87
4216.03
4212.97
4210.48
4207.83
4205.61
4203.23
4201.28
4199.17
4197.46
4195.56
4194.06
4192.41
4191.16
4189.66
4188.61
4187.3
4186.4
4185.22
4184.45
4183.41
4182.79
4181.91
4181.39
4180.64
4180.21
4179.51
4179.06
4178.37
4177.96
4177.32
4176.97
4176.39
4176.09
4175.58
4175.34
4174.94
4174.79
4174.48
4174.46
4174.35
4174.41
4174.26
4174.79
4176.32
4227.9
4343.63
28439.3
8261.66
7571.74
7000.58
6535.88
6162.57
5864.44
5624.75
5430.86
5271.62
5140.01
5029.32
4936.07
4855.99
4787.49
4727.59
4675.78
4629.74
4589.6
4553.41
4521.68
4492.69
4467.19
4443.6
4422.81
4403.33
4386.19
4369.92
4355.63
4341.89
4329.88
4318.18
4308.01
4297.96
4289.29
4280.6
4273.15
4265.61
4259.2
4252.6
4247.03
4241.27
4236.43
4231.33
4227.12
4222.64
4218.95
4214.98
4211.71
4208.21
4205.35
4202.25
4199.74
4197.06
4194.81
4192.41
4190.45
4188.31
4186.58
4184.66
4183.14
4181.47
4180.21
4178.68
4177.62
4176.29
4175.38
4174.18
4173.4
4172.35
4171.71
4170.81
4170.29
4169.53
4169.09
4168.37
4167.92
4167.21
4166.79
4166.15
4165.78
4165.19
4164.88
4164.36
4164.11
4163.7
4163.54
4163.21
4163.17
4163.05
4163.09
4162.91
4163.43
4165.02
4217.6
4334.14
26588.4
8261.65
7571.88
7000.69
6535.59
6161.61
5862.66
5622.12
5427.42
5267.42
5135.14
5023.85
4930.07
4849.5
4780.58
4720.3
4668.15
4621.81
4581.4
4544.96
4513.01
4483.81
4458.13
4434.36
4413.42
4393.79
4376.52
4360.13
4345.74
4331.89
4319.79
4307.99
4297.74
4287.61
4278.86
4270.1
4262.6
4254.99
4248.52
4241.88
4236.25
4230.44
4225.56
4220.42
4216.17
4211.64
4207.92
4203.91
4200.62
4197.08
4194.19
4191.06
4188.52
4185.81
4183.54
4181.11
4179.13
4176.97
4175.22
4173.27
4171.74
4170.04
4168.77
4167.22
4166.14
4164.79
4163.87
4162.65
4161.86
4160.79
4160.14
4159.22
4158.69
4157.91
4157.46
4156.73
4156.27
4155.56
4155.13
4154.47
4154.09
4153.49
4153.17
4152.64
4152.38
4151.95
4151.78
4151.44
4151.39
4151.24
4151.26
4151.06
4151.57
4153.22
4206.68
4323.99
24855.2
8261.63
7572.02
7000.8
6535.31
6160.63
5860.83
5619.41
5423.86
5263.09
5130.1
5018.18
4923.84
4842.77
4773.41
4712.73
4660.23
4613.57
4572.87
4536.17
4503.98
4474.57
4448.7
4424.75
4403.65
4383.87
4366.46
4349.94
4335.43
4321.47
4309.27
4297.38
4287.04
4276.83
4268
4259.17
4251.6
4243.92
4237.4
4230.69
4225.02
4219.15
4214.23
4209.04
4204.75
4200.18
4196.42
4192.38
4189.05
4185.48
4182.55
4179.39
4176.82
4174.08
4171.79
4169.33
4167.33
4165.14
4163.38
4161.4
4159.85
4158.13
4156.83
4155.27
4154.17
4152.8
4151.87
4150.63
4149.82
4148.73
4148.07
4147.14
4146.59
4145.8
4145.34
4144.6
4144.13
4143.4
4142.96
4142.29
4141.9
4141.29
4140.96
4140.41
4140.14
4139.7
4139.52
4139.16
4139.09
4138.94
4138.93
4138.7
4139.2
4140.9
4195.14
4313.14
23240.6
8261.61
7572.17
7000.92
6535.03
6159.63
5858.96
5616.62
5420.2
5258.61
5124.89
5012.32
4917.39
4835.8
4765.98
4704.88
4652.01
4605.01
4564.01
4527.04
4494.61
4464.97
4438.9
4414.76
4393.49
4373.55
4356
4339.34
4324.71
4310.63
4298.33
4286.33
4275.9
4265.6
4256.7
4247.79
4240.15
4232.41
4225.82
4219.05
4213.33
4207.4
4202.43
4197.19
4192.86
4188.24
4184.44
4180.36
4177
4173.39
4170.43
4167.24
4164.64
4161.87
4159.56
4157.07
4155.04
4152.82
4151.04
4149.04
4147.47
4145.72
4144.41
4142.82
4141.7
4140.31
4139.36
4138.1
4137.28
4136.17
4135.5
4134.55
4133.99
4133.18
4132.71
4131.95
4131.48
4130.73
4130.29
4129.6
4129.2
4128.58
4128.23
4127.67
4127.39
4126.94
4126.74
4126.37
4126.28
4126.12
4126.08
4125.82
4126.32
4128.07
4182.97
4301.56
21740.3
8261.59
7572.32
7001.05
6534.74
6158.61
5857.04
5613.76
5416.43
5254
5119.52
5006.25
4910.72
4828.59
4758.28
4696.75
4643.49
4596.14
4554.83
4517.57
4484.88
4455.01
4428.72
4404.38
4382.94
4362.83
4345.13
4328.33
4313.57
4299.37
4286.96
4274.86
4264.33
4253.94
4244.96
4235.96
4228.25
4220.43
4213.78
4206.95
4201.17
4195.19
4190.17
4184.87
4180.5
4175.84
4172
4167.87
4164.47
4160.82
4157.83
4154.6
4151.98
4149.17
4146.83
4144.31
4142.25
4140.01
4138.2
4136.18
4134.59
4132.81
4131.48
4129.87
4128.73
4127.32
4126.35
4125.08
4124.24
4123.11
4122.42
4121.45
4120.88
4120.05
4119.57
4118.8
4118.31
4117.56
4117.1
4116.4
4115.99
4115.35
4114.99
4114.42
4114.12
4113.65
4113.45
4113.06
4112.96
4112.78
4112.72
4112.43
4112.91
4114.72
4170.17
4289.22
20349.6
8261.57
7572.47
7001.19
6534.46
6157.58
5855.08
5610.83
5412.55
5249.25
5113.98
5000
4903.83
4821.13
4750.32
4688.33
4634.67
4586.95
4545.32
4507.76
4474.81
4444.68
4418.17
4393.63
4372
4351.71
4333.86
4316.91
4302.02
4287.69
4275.16
4262.95
4252.33
4241.83
4232.77
4223.68
4215.9
4208
4201.29
4194.39
4188.55
4182.5
4177.43
4172.08
4167.66
4162.95
4159.07
4154.9
4151.46
4147.77
4144.75
4141.48
4138.82
4135.97
4133.61
4131.05
4128.97
4126.7
4124.87
4122.82
4121.21
4119.4
4118.05
4116.41
4115.26
4113.82
4112.84
4111.54
4110.69
4109.54
4108.83
4107.84
4107.26
4106.41
4105.92
4105.13
4104.64
4103.87
4103.4
4102.68
4102.26
4101.6
4101.24
4100.65
4100.34
4099.85
4099.64
4099.23
4099.11
4098.91
4098.84
4098.51
4098.99
4100.84
4156.74
4276.07
19063.7
8261.55
7572.63
7001.33
6534.19
6156.53
5853.09
5607.83
5408.58
5244.36
5108.27
4993.56
4896.73
4813.44
4742.1
4679.64
4625.56
4577.46
4535.48
4497.61
4464.38
4433.99
4407.26
4382.49
4360.67
4340.2
4322.19
4305.08
4290.05
4275.58
4262.94
4250.61
4239.88
4229.28
4220.13
4210.96
4203.09
4195.12
4188.33
4181.36
4175.46
4169.35
4164.22
4158.82
4154.34
4149.58
4145.65
4141.44
4137.96
4134.23
4131.17
4127.86
4125.17
4122.28
4119.89
4117.3
4115.2
4112.89
4111.04
4108.95
4107.33
4105.48
4104.12
4102.45
4101.28
4099.82
4098.81
4097.49
4096.62
4095.45
4094.73
4093.72
4093.12
4092.26
4091.75
4090.95
4090.44
4089.66
4089.18
4088.44
4088.01
4087.34
4086.96
4086.35
4086.03
4085.53
4085.3
4084.88
4084.74
4084.52
4084.43
4084.06
4084.53
4086.42
4142.68
4262.09
17877.2
8261.53
7572.79
7001.48
6533.91
6155.48
5851.06
5604.76
5404.51
5239.36
5102.42
4986.93
4889.42
4805.51
4733.63
4670.68
4616.16
4567.66
4525.32
4487.12
4453.6
4422.95
4395.97
4370.98
4348.95
4328.29
4310.11
4292.83
4277.66
4263.05
4250.28
4237.83
4226.99
4216.29
4207.04
4197.77
4189.83
4181.77
4174.91
4167.86
4161.9
4155.72
4150.54
4145.07
4140.55
4135.73
4131.76
4127.49
4123.97
4120.19
4117.1
4113.75
4111.02
4108.1
4105.67
4103.05
4100.92
4098.57
4096.7
4094.58
4092.93
4091.06
4089.67
4087.98
4086.78
4085.3
4084.28
4082.93
4082.05
4080.85
4080.11
4079.08
4078.46
4077.58
4077.06
4076.25
4075.73
4074.92
4074.43
4073.68
4073.24
4072.55
4072.16
4071.53
4071.2
4070.68
4070.43
4070
4069.84
4069.61
4069.49
4069.08
4069.55
4071.48
4127.99
4247.25
16784.7
8261.5
7572.95
7001.64
6533.64
6154.41
5848.99
5601.63
5400.35
5234.22
5096.4
4980.12
4881.9
4797.35
4724.9
4661.44
4606.46
4557.55
4514.84
4476.3
4442.48
4411.54
4384.31
4359.08
4336.85
4315.99
4297.62
4280.18
4264.85
4250.1
4237.2
4224.61
4213.67
4202.85
4193.5
4184.14
4176.1
4167.96
4161.02
4153.9
4147.87
4141.62
4136.38
4130.85
4126.27
4121.4
4117.37
4113.06
4109.5
4105.67
4102.53
4099.14
4096.38
4093.41
4090.96
4088.29
4086.13
4083.75
4081.86
4079.71
4078.03
4076.13
4074.72
4072.99
4071.78
4070.26
4069.22
4067.85
4066.95
4065.73
4064.98
4063.92
4063.29
4062.39
4061.85
4061.02
4060.49
4059.67
4059.16
4058.39
4057.94
4057.23
4056.83
4056.18
4055.84
4055.3
4055.04
4054.58
4054.41
4054.16
4054.02
4053.57
4054.03
4055.99
4112.67
4231.51
15780.5
8261.48
7573.11
7001.8
6533.38
6153.34
5846.9
5598.45
5396.1
5228.97
5090.24
4973.14
4874.18
4788.97
4715.93
4651.93
4596.48
4547.13
4504.04
4465.15
4431.01
4399.77
4372.28
4346.81
4324.36
4303.29
4284.73
4267.11
4251.63
4236.72
4223.68
4210.97
4199.9
4188.97
4179.52
4170.05
4161.92
4153.69
4146.67
4139.47
4133.37
4127.05
4121.74
4116.15
4111.51
4106.57
4102.5
4098.13
4094.53
4090.65
4087.47
4084.03
4081.23
4078.22
4075.74
4073.03
4070.84
4068.43
4066.5
4064.32
4062.62
4060.68
4059.25
4057.49
4056.26
4054.71
4053.65
4052.26
4051.33
4050.09
4049.32
4048.24
4047.59
4046.67
4046.12
4045.26
4044.72
4043.88
4043.36
4042.58
4042.11
4041.38
4040.96
4040.3
4039.94
4039.38
4039.11
4038.64
4038.44
4038.17
4038.02
4037.52
4037.97
4039.95
4096.71
4214.86
14858.7
8261.45
7573.27
7001.97
6533.12
6152.26
5844.78
5595.21
5391.77
5223.61
5083.94
4965.98
4866.26
4780.36
4706.71
4642.16
4586.21
4536.41
4492.93
4453.66
4419.19
4387.65
4359.89
4334.16
4311.48
4290.19
4271.44
4253.63
4237.99
4222.92
4209.74
4196.88
4185.7
4174.64
4165.08
4155.51
4147.29
4138.96
4131.86
4124.57
4118.39
4111.99
4106.62
4100.96
4096.27
4091.27
4087.14
4082.72
4079.06
4075.14
4071.92
4068.43