/*--------------------------------*- C++ -*----------------------------------*\
| =========                 |                                                 |
| \\      /  F ield         | OpenFOAM: The Open Source CFD Toolbox           |
|  \\    /   O peration     | Version:  v2012                                 |
|   \\  /    A nd           | Website:  www.openfoam.com                      |
|    \\/     M anipulation  |                                                 |
\*---------------------------------------------------------------------------*/
FoamFile
{
    version     2.0;
    format      ascii;
    class       volVectorField;
    location    "51.5";
    object      wallShearStress;
}
// * * * * * * * * * * * * * * * * * * * * * * * * * * * * * * * * * * * * * //

dimensions      [0 2 -2 0 0 0 0];


internalField   uniform (0 0 0);

boundaryField
{
    inlet
    {
        type            calculated;
        value           uniform (0 0 0);
    }
    outlet
    {
        type            calculated;
        value           uniform (0 0 0);
    }
    topWall
    {
        type            calculated;
        value           nonuniform List<vector> 
545
(
(3.67443e-08 -2.58647e-08 0)
(3.67329e-08 -7.23537e-08 0)
(3.6713e-08 -1.20697e-07 0)
(3.66845e-08 -1.67642e-07 0)
(3.66487e-08 -2.12588e-07 0)
(3.66065e-08 -2.56115e-07 0)
(3.65582e-08 -2.98591e-07 0)
(3.65043e-08 -3.39996e-07 0)
(3.64454e-08 -3.80241e-07 0)
(3.63817e-08 -4.19324e-07 0)
(3.63139e-08 -4.57298e-07 0)
(3.62423e-08 -4.94205e-07 0)
(3.61673e-08 -5.30071e-07 0)
(3.60892e-08 -5.64917e-07 0)
(3.60083e-08 -5.98767e-07 0)
(3.59251e-08 -6.31649e-07 0)
(3.58397e-08 -6.63589e-07 0)
(3.57525e-08 -6.94612e-07 0)
(3.56637e-08 -7.24743e-07 0)
(3.55735e-08 -7.54005e-07 0)
(3.54822e-08 -7.82423e-07 0)
(3.539e-08 -8.1002e-07 0)
(3.52971e-08 -8.36819e-07 0)
(3.52037e-08 -8.62843e-07 0)
(3.51098e-08 -8.88113e-07 0)
(3.50158e-08 -9.1265e-07 0)
(3.49217e-08 -9.36477e-07 0)
(3.48277e-08 -9.59613e-07 0)
(3.47339e-08 -9.82078e-07 0)
(3.46404e-08 -1.00389e-06 0)
(3.45473e-08 -1.02507e-06 0)
(3.44548e-08 -1.04564e-06 0)
(3.43628e-08 -1.06561e-06 0)
(3.42716e-08 -1.08501e-06 0)
(3.41811e-08 -1.10384e-06 0)
(3.40914e-08 -1.12212e-06 0)
(3.40027e-08 -1.13988e-06 0)
(3.39148e-08 -1.15713e-06 0)
(3.3828e-08 -1.17388e-06 0)
(3.37423e-08 -1.19014e-06 0)
(3.36576e-08 -1.20593e-06 0)
(3.3574e-08 -1.22127e-06 0)
(3.34916e-08 -1.23617e-06 0)
(3.34104e-08 -1.25064e-06 0)
(3.33304e-08 -1.2647e-06 0)
(3.32516e-08 -1.27835e-06 0)
(3.3174e-08 -1.29161e-06 0)
(3.30977e-08 -1.30449e-06 0)
(3.30227e-08 -1.31701e-06 0)
(3.29489e-08 -1.32916e-06 0)
(3.28764e-08 -1.34097e-06 0)
(3.28052e-08 -1.35244e-06 0)
(3.27352e-08 -1.36359e-06 0)
(3.26666e-08 -1.37442e-06 0)
(3.25992e-08 -1.38494e-06 0)
(3.25331e-08 -1.39516e-06 0)
(3.24682e-08 -1.4051e-06 0)
(3.24047e-08 -1.41475e-06 0)
(3.23423e-08 -1.42413e-06 0)
(3.22812e-08 -1.43324e-06 0)
(3.22214e-08 -1.4421e-06 0)
(3.21627e-08 -1.45071e-06 0)
(3.21053e-08 -1.45908e-06 0)
(3.2049e-08 -1.46721e-06 0)
(3.1994e-08 -1.47511e-06 0)
(3.19401e-08 -1.48279e-06 0)
(3.18873e-08 -1.49026e-06 0)
(3.18357e-08 -1.49752e-06 0)
(3.17852e-08 -1.50457e-06 0)
(3.17359e-08 -1.51143e-06 0)
(3.16875e-08 -1.5181e-06 0)
(3.16405e-08 -1.52458e-06 0)
(3.15949e-08 -1.53081e-06 0)
(3.155e-08 -1.53685e-06 0)
(3.15055e-08 -1.54283e-06 0)
(3.14611e-08 -1.54878e-06 0)
(3.14167e-08 -1.55471e-06 0)
(3.13724e-08 -1.5606e-06 0)
(3.13282e-08 -1.56645e-06 0)
(3.1284e-08 -1.57227e-06 0)
(3.12398e-08 -1.57805e-06 0)
(3.11956e-08 -1.5838e-06 0)
(3.11516e-08 -1.58951e-06 0)
(3.11075e-08 -1.59519e-06 0)
(3.10635e-08 -1.60084e-06 0)
(3.10196e-08 -1.60645e-06 0)
(3.09757e-08 -1.61203e-06 0)
(3.09318e-08 -1.61757e-06 0)
(3.08881e-08 -1.62308e-06 0)
(3.08443e-08 -1.62856e-06 0)
(3.08007e-08 -1.63401e-06 0)
(3.0757e-08 -1.63942e-06 0)
(3.07135e-08 -1.6448e-06 0)
(3.06701e-08 -1.65015e-06 0)
(3.06263e-08 -1.65548e-06 0)
(3.05845e-08 -1.66071e-06 0)
(3.0546e-08 -1.66551e-06 0)
(3.05091e-08 -1.66986e-06 0)
(3.04732e-08 -1.67409e-06 0)
(3.04374e-08 -1.67834e-06 0)
(3.04015e-08 -1.68264e-06 0)
(3.03655e-08 -1.68694e-06 0)
(3.03293e-08 -1.69124e-06 0)
(3.02929e-08 -1.69554e-06 0)
(3.02564e-08 -1.69985e-06 0)
(3.02197e-08 -1.70416e-06 0)
(3.01828e-08 -1.70848e-06 0)
(3.01457e-08 -1.7128e-06 0)
(3.01085e-08 -1.71713e-06 0)
(3.0071e-08 -1.72146e-06 0)
(3.00334e-08 -1.7258e-06 0)
(2.99957e-08 -1.73014e-06 0)
(2.99577e-08 -1.73448e-06 0)
(2.99196e-08 -1.73884e-06 0)
(2.98813e-08 -1.74319e-06 0)
(2.98428e-08 -1.74755e-06 0)
(2.98041e-08 -1.75192e-06 0)
(2.97652e-08 -1.75629e-06 0)
(2.97262e-08 -1.76066e-06 0)
(2.9687e-08 -1.76504e-06 0)
(2.96476e-08 -1.76942e-06 0)
(2.9608e-08 -1.77381e-06 0)
(2.95683e-08 -1.7782e-06 0)
(2.95283e-08 -1.7826e-06 0)
(2.94882e-08 -1.787e-06 0)
(2.94479e-08 -1.79141e-06 0)
(2.94074e-08 -1.79582e-06 0)
(2.93667e-08 -1.80023e-06 0)
(2.93258e-08 -1.80465e-06 0)
(2.92847e-08 -1.80907e-06 0)
(2.92435e-08 -1.8135e-06 0)
(2.92021e-08 -1.81793e-06 0)
(2.91604e-08 -1.82237e-06 0)
(2.91186e-08 -1.82681e-06 0)
(2.90766e-08 -1.83125e-06 0)
(2.90344e-08 -1.8357e-06 0)
(2.8992e-08 -1.84015e-06 0)
(2.89495e-08 -1.84461e-06 0)
(2.89067e-08 -1.84907e-06 0)
(2.88637e-08 -1.85353e-06 0)
(2.88206e-08 -1.858e-06 0)
(2.87772e-08 -1.86247e-06 0)
(2.87337e-08 -1.86694e-06 0)
(2.869e-08 -1.87142e-06 0)
(2.86461e-08 -1.8759e-06 0)
(2.86019e-08 -1.88039e-06 0)
(2.85576e-08 -1.88488e-06 0)
(2.85131e-08 -1.88937e-06 0)
(2.84684e-08 -1.89387e-06 0)
(2.84235e-08 -1.89837e-06 0)
(2.83784e-08 -1.90287e-06 0)
(2.83331e-08 -1.90738e-06 0)
(2.82876e-08 -1.91189e-06 0)
(2.82419e-08 -1.9164e-06 0)
(2.8196e-08 -1.92092e-06 0)
(2.81499e-08 -1.92544e-06 0)
(2.81037e-08 -1.92997e-06 0)
(2.80572e-08 -1.93449e-06 0)
(2.80105e-08 -1.93902e-06 0)
(2.79636e-08 -1.94356e-06 0)
(2.79165e-08 -1.94809e-06 0)
(2.78692e-08 -1.95263e-06 0)
(2.78217e-08 -1.95717e-06 0)
(2.7774e-08 -1.96172e-06 0)
(2.77261e-08 -1.96627e-06 0)
(2.7678e-08 -1.97082e-06 0)
(2.76297e-08 -1.97537e-06 0)
(2.75812e-08 -1.97993e-06 0)
(2.75325e-08 -1.98449e-06 0)
(2.74836e-08 -1.98905e-06 0)
(2.74345e-08 -1.99361e-06 0)
(2.73851e-08 -1.99818e-06 0)
(2.73356e-08 -2.00275e-06 0)
(2.72859e-08 -2.00732e-06 0)
(2.72359e-08 -2.0119e-06 0)
(2.71858e-08 -2.01647e-06 0)
(2.71354e-08 -2.02105e-06 0)
(2.70849e-08 -2.02563e-06 0)
(2.70341e-08 -2.03022e-06 0)
(2.69831e-08 -2.0348e-06 0)
(2.69319e-08 -2.03939e-06 0)
(2.68806e-08 -2.04398e-06 0)
(2.6829e-08 -2.04857e-06 0)
(2.67772e-08 -2.05317e-06 0)
(2.67251e-08 -2.05776e-06 0)
(2.66729e-08 -2.06236e-06 0)
(2.66205e-08 -2.06696e-06 0)
(2.65679e-08 -2.07156e-06 0)
(2.6515e-08 -2.07617e-06 0)
(2.6462e-08 -2.08077e-06 0)
(2.64087e-08 -2.08538e-06 0)
(2.63552e-08 -2.08998e-06 0)
(2.63015e-08 -2.09459e-06 0)
(2.62477e-08 -2.0992e-06 0)
(2.61936e-08 -2.10382e-06 0)
(2.61392e-08 -2.10843e-06 0)
(2.60847e-08 -2.11304e-06 0)
(2.603e-08 -2.11766e-06 0)
(2.59751e-08 -2.12228e-06 0)
(2.59199e-08 -2.1269e-06 0)
(2.58645e-08 -2.13151e-06 0)
(2.5809e-08 -2.13613e-06 0)
(2.57532e-08 -2.14076e-06 0)
(2.56972e-08 -2.14538e-06 0)
(2.5641e-08 -2.15e-06 0)
(2.55846e-08 -2.15462e-06 0)
(2.55279e-08 -2.15925e-06 0)
(2.54711e-08 -2.16387e-06 0)
(2.54141e-08 -2.1685e-06 0)
(2.53568e-08 -2.17312e-06 0)
(2.52993e-08 -2.17775e-06 0)
(2.52417e-08 -2.18238e-06 0)
(2.51838e-08 -2.187e-06 0)
(2.51257e-08 -2.19163e-06 0)
(2.50674e-08 -2.19626e-06 0)
(2.50089e-08 -2.20088e-06 0)
(2.49501e-08 -2.20551e-06 0)
(2.48912e-08 -2.21014e-06 0)
(2.4832e-08 -2.21477e-06 0)
(2.47727e-08 -2.21939e-06 0)
(2.47131e-08 -2.22402e-06 0)
(2.46533e-08 -2.22865e-06 0)
(2.45933e-08 -2.23327e-06 0)
(2.45331e-08 -2.2379e-06 0)
(2.44727e-08 -2.24253e-06 0)
(2.44121e-08 -2.24715e-06 0)
(2.43513e-08 -2.25177e-06 0)
(2.42903e-08 -2.2564e-06 0)
(2.4229e-08 -2.26102e-06 0)
(2.41676e-08 -2.26564e-06 0)
(2.41059e-08 -2.27026e-06 0)
(2.40441e-08 -2.27488e-06 0)
(2.3982e-08 -2.2795e-06 0)
(2.39197e-08 -2.28412e-06 0)
(2.38572e-08 -2.28874e-06 0)
(2.37946e-08 -2.29335e-06 0)
(2.37317e-08 -2.29797e-06 0)
(2.36686e-08 -2.30258e-06 0)
(2.36053e-08 -2.30719e-06 0)
(2.35417e-08 -2.3118e-06 0)
(2.3478e-08 -2.31641e-06 0)
(2.34141e-08 -2.32102e-06 0)
(2.335e-08 -2.32562e-06 0)
(2.32857e-08 -2.33023e-06 0)
(2.32211e-08 -2.33483e-06 0)
(2.31564e-08 -2.33943e-06 0)
(2.30915e-08 -2.34402e-06 0)
(2.30263e-08 -2.34862e-06 0)
(2.2961e-08 -2.35321e-06 0)
(2.28955e-08 -2.3578e-06 0)
(2.28297e-08 -2.36239e-06 0)
(2.27638e-08 -2.36698e-06 0)
(2.26977e-08 -2.37156e-06 0)
(2.26314e-08 -2.37614e-06 0)
(2.25648e-08 -2.38072e-06 0)
(2.24981e-08 -2.38529e-06 0)
(2.24312e-08 -2.38987e-06 0)
(2.23641e-08 -2.39444e-06 0)
(2.22968e-08 -2.399e-06 0)
(2.22293e-08 -2.40357e-06 0)
(2.21616e-08 -2.40813e-06 0)
(2.20937e-08 -2.41268e-06 0)
(2.20256e-08 -2.41724e-06 0)
(2.19573e-08 -2.42179e-06 0)
(2.18888e-08 -2.42634e-06 0)
(2.18202e-08 -2.43088e-06 0)
(2.17514e-08 -2.43542e-06 0)
(2.1682e-08 -2.43996e-06 0)
(2.16144e-08 -2.44447e-06 0)
(2.15496e-08 -2.44876e-06 0)
(2.14858e-08 -2.45283e-06 0)
(2.14226e-08 -2.45688e-06 0)
(2.1359e-08 -2.46097e-06 0)
(2.12948e-08 -2.4651e-06 0)
(2.12299e-08 -2.46928e-06 0)
(2.11642e-08 -2.47348e-06 0)
(2.10979e-08 -2.47771e-06 0)
(2.10308e-08 -2.48197e-06 0)
(2.0963e-08 -2.48627e-06 0)
(2.08944e-08 -2.4906e-06 0)
(2.08251e-08 -2.49496e-06 0)
(2.0755e-08 -2.49935e-06 0)
(2.06842e-08 -2.50378e-06 0)
(2.06125e-08 -2.50824e-06 0)
(2.05401e-08 -2.51273e-06 0)
(2.04669e-08 -2.51726e-06 0)
(2.03929e-08 -2.52182e-06 0)
(2.03181e-08 -2.52641e-06 0)
(2.02425e-08 -2.53103e-06 0)
(2.01661e-08 -2.53569e-06 0)
(2.00888e-08 -2.54038e-06 0)
(2.00108e-08 -2.5451e-06 0)
(1.99318e-08 -2.54985e-06 0)
(1.98521e-08 -2.55464e-06 0)
(1.97714e-08 -2.55946e-06 0)
(1.969e-08 -2.56431e-06 0)
(1.96076e-08 -2.5692e-06 0)
(1.95244e-08 -2.57411e-06 0)
(1.94403e-08 -2.57906e-06 0)
(1.93553e-08 -2.58404e-06 0)
(1.92694e-08 -2.58905e-06 0)
(1.91827e-08 -2.5941e-06 0)
(1.9095e-08 -2.59917e-06 0)
(1.90064e-08 -2.60428e-06 0)
(1.89169e-08 -2.60942e-06 0)
(1.88264e-08 -2.61459e-06 0)
(1.87351e-08 -2.61979e-06 0)
(1.86428e-08 -2.62502e-06 0)
(1.85495e-08 -2.63029e-06 0)
(1.84553e-08 -2.63558e-06 0)
(1.83601e-08 -2.6409e-06 0)
(1.8264e-08 -2.64626e-06 0)
(1.8167e-08 -2.65164e-06 0)
(1.80689e-08 -2.65705e-06 0)
(1.79699e-08 -2.66249e-06 0)
(1.78699e-08 -2.66796e-06 0)
(1.77689e-08 -2.67346e-06 0)
(1.76669e-08 -2.67898e-06 0)
(1.75639e-08 -2.68454e-06 0)
(1.74599e-08 -2.69012e-06 0)
(1.7355e-08 -2.69573e-06 0)
(1.7249e-08 -2.70136e-06 0)
(1.7142e-08 -2.70702e-06 0)
(1.7034e-08 -2.71271e-06 0)
(1.69249e-08 -2.71842e-06 0)
(1.68149e-08 -2.72416e-06 0)
(1.67038e-08 -2.72992e-06 0)
(1.65917e-08 -2.7357e-06 0)
(1.64786e-08 -2.74151e-06 0)
(1.63644e-08 -2.74734e-06 0)
(1.62492e-08 -2.75319e-06 0)
(1.6133e-08 -2.75907e-06 0)
(1.60158e-08 -2.76496e-06 0)
(1.58975e-08 -2.77088e-06 0)
(1.57782e-08 -2.77681e-06 0)
(1.56578e-08 -2.78277e-06 0)
(1.55364e-08 -2.78874e-06 0)
(1.5414e-08 -2.79473e-06 0)
(1.52906e-08 -2.80074e-06 0)
(1.51661e-08 -2.80676e-06 0)
(1.50406e-08 -2.8128e-06 0)
(1.4914e-08 -2.81885e-06 0)
(1.47865e-08 -2.82492e-06 0)
(1.46579e-08 -2.831e-06 0)
(1.45283e-08 -2.83709e-06 0)
(1.43977e-08 -2.84319e-06 0)
(1.42662e-08 -2.84931e-06 0)
(1.41336e-08 -2.85543e-06 0)
(1.4e-08 -2.86156e-06 0)
(1.38654e-08 -2.8677e-06 0)
(1.37298e-08 -2.87385e-06 0)
(1.35933e-08 -2.88e-06 0)
(1.34558e-08 -2.88616e-06 0)
(1.33174e-08 -2.89231e-06 0)
(1.3178e-08 -2.89848e-06 0)
(1.30377e-08 -2.90464e-06 0)
(1.28964e-08 -2.9108e-06 0)
(1.27543e-08 -2.91696e-06 0)
(1.26112e-08 -2.92312e-06 0)
(1.24673e-08 -2.92927e-06 0)
(1.23224e-08 -2.93543e-06 0)
(1.21768e-08 -2.94157e-06 0)
(1.20302e-08 -2.94771e-06 0)
(1.18829e-08 -2.95383e-06 0)
(1.17347e-08 -2.95995e-06 0)
(1.15858e-08 -2.96606e-06 0)
(1.1436e-08 -2.97215e-06 0)
(1.12855e-08 -2.97823e-06 0)
(1.11343e-08 -2.98429e-06 0)
(1.09824e-08 -2.99034e-06 0)
(1.08297e-08 -2.99637e-06 0)
(1.06764e-08 -3.00238e-06 0)
(1.05224e-08 -3.00836e-06 0)
(1.03678e-08 -3.01433e-06 0)
(1.02126e-08 -3.02026e-06 0)
(1.00569e-08 -3.02618e-06 0)
(9.90053e-09 -3.03206e-06 0)
(9.74367e-09 -3.03792e-06 0)
(9.58631e-09 -3.04374e-06 0)
(9.42849e-09 -3.04953e-06 0)
(9.27022e-09 -3.05528e-06 0)
(9.11155e-09 -3.061e-06 0)
(8.9525e-09 -3.06669e-06 0)
(8.79311e-09 -3.07233e-06 0)
(8.6334e-09 -3.07793e-06 0)
(8.47342e-09 -3.08349e-06 0)
(8.31319e-09 -3.089e-06 0)
(8.15275e-09 -3.09446e-06 0)
(7.99214e-09 -3.09988e-06 0)
(7.8314e-09 -3.10525e-06 0)
(7.67056e-09 -3.11056e-06 0)
(7.50966e-09 -3.11582e-06 0)
(7.34875e-09 -3.12103e-06 0)
(7.18785e-09 -3.12617e-06 0)
(7.02702e-09 -3.13126e-06 0)
(6.86629e-09 -3.13629e-06 0)
(6.70571e-09 -3.14125e-06 0)
(6.54532e-09 -3.14615e-06 0)
(6.38516e-09 -3.15098e-06 0)
(6.22528e-09 -3.15574e-06 0)
(6.06572e-09 -3.16043e-06 0)
(5.90653e-09 -3.16505e-06 0)
(5.74775e-09 -3.1696e-06 0)
(5.58943e-09 -3.17407e-06 0)
(5.43163e-09 -3.17846e-06 0)
(5.27437e-09 -3.18277e-06 0)
(5.11772e-09 -3.187e-06 0)
(4.96173e-09 -3.19115e-06 0)
(4.80643e-09 -3.19522e-06 0)
(4.65188e-09 -3.19919e-06 0)
(4.49813e-09 -3.20308e-06 0)
(4.34522e-09 -3.20688e-06 0)
(4.19321e-09 -3.21059e-06 0)
(4.04215e-09 -3.2142e-06 0)
(3.89209e-09 -3.21772e-06 0)
(3.74307e-09 -3.22114e-06 0)
(3.59515e-09 -3.22446e-06 0)
(3.44837e-09 -3.22769e-06 0)
(3.30278e-09 -3.23081e-06 0)
(3.15845e-09 -3.23384e-06 0)
(3.0154e-09 -3.23675e-06 0)
(2.87369e-09 -3.23957e-06 0)
(2.73338e-09 -3.24227e-06 0)
(2.5945e-09 -3.24487e-06 0)
(2.45711e-09 -3.24736e-06 0)
(2.32126e-09 -3.24975e-06 0)
(2.18698e-09 -3.25202e-06 0)
(2.05433e-09 -3.25417e-06 0)
(1.92334e-09 -3.25622e-06 0)
(1.79407e-09 -3.25815e-06 0)
(1.66656e-09 -3.25996e-06 0)
(1.54086e-09 -3.26166e-06 0)
(1.41699e-09 -3.26325e-06 0)
(1.29501e-09 -3.26471e-06 0)
(1.17495e-09 -3.26606e-06 0)
(1.05685e-09 -3.26729e-06 0)
(9.4076e-10 -3.2684e-06 0)
(8.26703e-10 -3.2694e-06 0)
(7.1472e-10 -3.27027e-06 0)
(6.04845e-10 -3.27102e-06 0)
(4.97111e-10 -3.27165e-06 0)
(3.91551e-10 -3.27217e-06 0)
(2.88195e-10 -3.27256e-06 0)
(1.87072e-10 -3.27283e-06 0)
(8.82147e-11 -3.27298e-06 0)
(-8.36838e-12 -3.27301e-06 0)
(-1.0258e-10 -3.27293e-06 0)
(-1.94708e-10 -3.27272e-06 0)
(-2.83302e-10 -3.27239e-06 0)
(-3.74378e-10 -3.27195e-06 0)
(-4.70181e-10 -3.27131e-06 0)
(-5.65575e-10 -3.27046e-06 0)
(-6.59168e-10 -3.26945e-06 0)
(-7.48756e-10 -3.26829e-06 0)
(-8.3399e-10 -3.26698e-06 0)
(-9.14901e-10 -3.26555e-06 0)
(-9.91579e-10 -3.26399e-06 0)
(-1.06413e-09 -3.2623e-06 0)
(-1.13268e-09 -3.26051e-06 0)
(-1.19735e-09 -3.2586e-06 0)
(-1.25827e-09 -3.2566e-06 0)
(-1.31555e-09 -3.25449e-06 0)
(-1.36932e-09 -3.2523e-06 0)
(-1.41968e-09 -3.25003e-06 0)
(-1.46674e-09 -3.24768e-06 0)
(-1.5106e-09 -3.24525e-06 0)
(-1.55138e-09 -3.24275e-06 0)
(-1.58916e-09 -3.2402e-06 0)
(-1.62405e-09 -3.23758e-06 0)
(-1.65614e-09 -3.23491e-06 0)
(-1.68552e-09 -3.23219e-06 0)
(-1.71227e-09 -3.22942e-06 0)
(-1.73648e-09 -3.22662e-06 0)
(-1.75824e-09 -3.22377e-06 0)
(-1.77761e-09 -3.2209e-06 0)
(-1.79469e-09 -3.21799e-06 0)
(-1.80953e-09 -3.21506e-06 0)
(-1.82221e-09 -3.21211e-06 0)
(-1.8328e-09 -3.20914e-06 0)
(-1.84137e-09 -3.20615e-06 0)
(-1.84797e-09 -3.20315e-06 0)
(-1.85267e-09 -3.20014e-06 0)
(-1.85554e-09 -3.19713e-06 0)
(-1.85661e-09 -3.19411e-06 0)
(-1.85596e-09 -3.1911e-06 0)
(-1.85363e-09 -3.18808e-06 0)
(-1.84967e-09 -3.18507e-06 0)
(-1.84414e-09 -3.18207e-06 0)
(-1.83707e-09 -3.17908e-06 0)
(-1.82852e-09 -3.1761e-06 0)
(-1.81853e-09 -3.17314e-06 0)
(-1.80714e-09 -3.17019e-06 0)
(-1.79439e-09 -3.16726e-06 0)
(-1.78033e-09 -3.16436e-06 0)
(-1.76498e-09 -3.16148e-06 0)
(-1.74839e-09 -3.15863e-06 0)
(-1.73059e-09 -3.1558e-06 0)
(-1.71161e-09 -3.153e-06 0)
(-1.6915e-09 -3.15024e-06 0)
(-1.67027e-09 -3.14751e-06 0)
(-1.64797e-09 -3.14481e-06 0)
(-1.62462e-09 -3.14215e-06 0)
(-1.60026e-09 -3.13953e-06 0)
(-1.5749e-09 -3.13695e-06 0)
(-1.54859e-09 -3.13441e-06 0)
(-1.52134e-09 -3.13192e-06 0)
(-1.49319e-09 -3.12947e-06 0)
(-1.46415e-09 -3.12707e-06 0)
(-1.43426e-09 -3.12471e-06 0)
(-1.40354e-09 -3.1224e-06 0)
(-1.37202e-09 -3.12015e-06 0)
(-1.33972e-09 -3.11794e-06 0)
(-1.30666e-09 -3.11579e-06 0)
(-1.27287e-09 -3.11369e-06 0)
(-1.23837e-09 -3.11165e-06 0)
(-1.20318e-09 -3.10967e-06 0)
(-1.16733e-09 -3.10774e-06 0)
(-1.13085e-09 -3.10587e-06 0)
(-1.09374e-09 -3.10406e-06 0)
(-1.05605e-09 -3.10231e-06 0)
(-1.01778e-09 -3.10062e-06 0)
(-9.7896e-10 -3.099e-06 0)
(-9.39614e-10 -3.09744e-06 0)
(-8.99765e-10 -3.09594e-06 0)
(-8.59433e-10 -3.09451e-06 0)
(-8.18641e-10 -3.09314e-06 0)
(-7.77411e-10 -3.09184e-06 0)
(-7.35765e-10 -3.09061e-06 0)
(-6.93725e-10 -3.08944e-06 0)
(-6.51315e-10 -3.08834e-06 0)
(-6.08554e-10 -3.08731e-06 0)
(-5.65468e-10 -3.08636e-06 0)
(-5.22075e-10 -3.08546e-06 0)
(-4.78402e-10 -3.08465e-06 0)
(-4.34467e-10 -3.08389e-06 0)
(-3.90297e-10 -3.08324e-06 0)
(-3.45909e-10 -3.08257e-06 0)
(-3.01335e-10 -3.08225e-06 0)
(-2.56577e-10 -3.08107e-06 0)
(-2.11719e-10 -3.08303e-06 0)
(-1.6662e-10 -3.0747e-06 0)
(-1.2173e-10 -3.09949e-06 0)
(-7.64165e-11 -3.00653e-06 0)
(-3.06587e-11 -3.25339e-06 0)
(-3.99741e-12 -2.84151e-06 0)
)
;
    }
    bottomWall
    {
        type            calculated;
        value           nonuniform List<vector> 
449
(
(-48.4852 -0.963438 0)
(-19.7366 -0.00514914 0)
(-14.3375 -0.00113237 0)
(-12.0359 -0.000542726 0)
(-10.6406 -0.000347207 0)
(-9.66525 -0.000248135 0)
(-8.94236 -0.000182589 0)
(-8.41259 -0.000124756 0)
(-8.08477 -5.33044e-05 0)
(-8.04669 6.76259e-05 0)
(-8.55632 0.000251074 0)
(-9.78953 0.000336613 0)
(-10.8909 0.000259176 0)
(-11.5889 0.000156003 0)
(-11.9772 8.60186e-05 0)
(-12.1896 4.55164e-05 0)
(-12.2959 2.0554e-05 0)
(-12.3338 3.57523e-06 0)
(-12.3209 -7.58304e-06 0)
(-12.2802 -1.42166e-05 0)
(-12.2203 -1.86186e-05 0)
(-12.1482 -2.11671e-05 0)
(-12.0699 -2.23587e-05 0)
(-11.9889 -2.2756e-05 0)
(-11.9074 -2.26816e-05 0)
(-11.8266 -2.23452e-05 0)
(-11.7471 -2.18436e-05 0)
(-11.6695 -2.12183e-05 0)
(-11.5942 -2.05382e-05 0)
(-11.5211 -1.9839e-05 0)
(-11.4505 -1.91405e-05 0)
(-11.3822 -1.84544e-05 0)
(-11.3162 -1.77893e-05 0)
(-11.2524 -1.71483e-05 0)
(-11.1908 -1.65421e-05 0)
(-11.1312 -1.59737e-05 0)
(-11.0735 -1.54268e-05 0)
(-11.0176 -1.48969e-05 0)
(-10.9636 -1.43918e-05 0)
(-10.9112 -1.39123e-05 0)
(-10.8604 -1.34572e-05 0)
(-10.8111 -1.30255e-05 0)
(-10.7633 -1.26176e-05 0)
(-10.7169 -1.22299e-05 0)
(-10.6718 -1.18605e-05 0)
(-10.6279 -1.1509e-05 0)
(-10.5852 -1.11772e-05 0)
(-10.5437 -1.08592e-05 0)
(-10.5032 -1.05631e-05 0)
(-10.4637 -1.03028e-05 0)
(-10.425 -1.00695e-05 0)
(-10.387 -9.84977e-06 0)
(-10.3498 -9.63715e-06 0)
(-10.3133 -9.42814e-06 0)
(-10.2776 -9.22264e-06 0)
(-10.2425 -9.01944e-06 0)
(-10.2081 -8.82082e-06 0)
(-10.1744 -8.62828e-06 0)
(-10.1414 -8.44054e-06 0)
(-10.109 -8.25807e-06 0)
(-10.0772 -8.08193e-06 0)
(-10.046 -7.9129e-06 0)
(-10.0154 -7.74845e-06 0)
(-9.98533 -7.5882e-06 0)
(-9.95583 -7.43251e-06 0)
(-9.92687 -7.28349e-06 0)
(-9.89841 -7.13965e-06 0)
(-9.87044 -7.00041e-06 0)
(-9.84296 -6.86406e-06 0)
(-9.81594 -6.73552e-06 0)
(-9.78935 -6.61325e-06 0)
(-9.76319 -6.49103e-06 0)
(-9.73745 -6.37099e-06 0)
(-9.71212 -6.2553e-06 0)
(-9.68719 -6.14361e-06 0)
(-9.66265 -6.03351e-06 0)
(-9.63849 -5.92661e-06 0)
(-9.61469 -5.82218e-06 0)
(-9.59127 -5.72068e-06 0)
(-9.56819 -5.62226e-06 0)
(-9.54545 -5.52652e-06 0)
(-9.52305 -5.43341e-06 0)
(-9.50097 -5.34298e-06 0)
(-9.4792 -5.2547e-06 0)
(-9.45774 -5.16869e-06 0)
(-9.43658 -5.08542e-06 0)
(-9.41571 -5.00404e-06 0)
(-9.39513 -4.92615e-06 0)
(-9.37481 -4.84973e-06 0)
(-9.35476 -4.77462e-06 0)
(-9.33497 -4.70192e-06 0)
(-9.31544 -4.63021e-06 0)
(-9.29616 -4.56062e-06 0)
(-9.27712 -4.49268e-06 0)
(-9.25832 -4.42553e-06 0)
(-9.23976 -4.36124e-06 0)
(-9.22142 -4.29782e-06 0)
(-9.20331 -4.23563e-06 0)
(-9.18541 -4.17584e-06 0)
(-9.16772 -4.11639e-06 0)
(-9.15024 -4.06106e-06 0)
(-9.13295 -4.00839e-06 0)
(-9.11584 -3.95421e-06 0)
(-9.09893 -3.90102e-06 0)
(-9.0822 -3.84826e-06 0)
(-9.06567 -3.79618e-06 0)
(-9.04931 -3.74633e-06 0)
(-9.03313 -3.69696e-06 0)
(-9.01713 -3.64803e-06 0)
(-9.0013 -3.60126e-06 0)
(-8.98564 -3.55493e-06 0)
(-8.97014 -3.50882e-06 0)
(-8.9548 -3.46494e-06 0)
(-8.93962 -3.42151e-06 0)
(-8.9246 -3.37812e-06 0)
(-8.90973 -3.33671e-06 0)
(-8.895 -3.296e-06 0)
(-8.88042 -3.25515e-06 0)
(-8.86599 -3.2158e-06 0)
(-8.85169 -3.17767e-06 0)
(-8.83753 -3.13928e-06 0)
(-8.82352 -3.10184e-06 0)
(-8.80963 -3.06609e-06 0)
(-8.79587 -3.03011e-06 0)
(-8.78224 -2.99433e-06 0)
(-8.76873 -2.96029e-06 0)
(-8.75535 -2.92669e-06 0)
(-8.74209 -2.89299e-06 0)
(-8.72895 -2.86029e-06 0)
(-8.71593 -2.82879e-06 0)
(-8.70302 -2.79715e-06 0)
(-8.69022 -2.76567e-06 0)
(-8.67754 -2.73562e-06 0)
(-8.66497 -2.7061e-06 0)
(-8.6525 -2.67633e-06 0)
(-8.64014 -2.6473e-06 0)
(-8.62788 -2.61954e-06 0)
(-8.61572 -2.59164e-06 0)
(-8.60367 -2.56363e-06 0)
(-8.59171 -2.53687e-06 0)
(-8.57985 -2.51092e-06 0)
(-8.56809 -2.4846e-06 0)
(-8.55642 -2.4585e-06 0)
(-8.54485 -2.43363e-06 0)
(-8.53336 -2.40921e-06 0)
(-8.52197 -2.38443e-06 0)
(-8.51066 -2.36062e-06 0)
(-8.49944 -2.33896e-06 0)
(-8.48829 -2.31731e-06 0)
(-8.47722 -2.29438e-06 0)
(-8.46624 -2.27164e-06 0)
(-8.45534 -2.24974e-06 0)
(-8.44451 -2.22809e-06 0)
(-8.43377 -2.20626e-06 0)
(-8.42311 -2.18478e-06 0)
(-8.41252 -2.1641e-06 0)
(-8.40201 -2.14379e-06 0)
(-8.39158 -2.12329e-06 0)
(-8.38122 -2.10294e-06 0)
(-8.37093 -2.08341e-06 0)
(-8.36072 -2.06439e-06 0)
(-8.35057 -2.04512e-06 0)
(-8.3405 -2.0258e-06 0)
(-8.3305 -2.00729e-06 0)
(-8.32056 -1.9894e-06 0)
(-8.31069 -1.97133e-06 0)
(-8.30089 -1.95312e-06 0)
(-8.29115 -1.93544e-06 0)
(-8.28148 -1.91859e-06 0)
(-8.27187 -1.90158e-06 0)
(-8.26232 -1.88475e-06 0)
(-8.25283 -1.86772e-06 0)
(-8.24342 -1.84927e-06 0)
(-8.23459 -1.83592e-06 0)
(-8.22627 -1.82436e-06 0)
(-8.21793 -1.80825e-06 0)
(-8.20957 -1.79325e-06 0)
(-8.20119 -1.77949e-06 0)
(-8.19278 -1.76562e-06 0)
(-8.18435 -1.75158e-06 0)
(-8.1759 -1.7372e-06 0)
(-8.16742 -1.72331e-06 0)
(-8.15892 -1.70971e-06 0)
(-8.15039 -1.69623e-06 0)
(-8.14184 -1.68232e-06 0)
(-8.13327 -1.66826e-06 0)
(-8.12468 -1.6547e-06 0)
(-8.11607 -1.6414e-06 0)
(-8.10743 -1.62805e-06 0)
(-8.09877 -1.6144e-06 0)
(-8.09009 -1.60077e-06 0)
(-8.08138 -1.58757e-06 0)
(-8.07266 -1.57453e-06 0)
(-8.06391 -1.56132e-06 0)
(-8.05515 -1.54795e-06 0)
(-8.04636 -1.53477e-06 0)
(-8.03756 -1.52188e-06 0)
(-8.02873 -1.50915e-06 0)
(-8.01988 -1.49615e-06 0)
(-8.01101 -1.48303e-06 0)
(-8.00213 -1.47031e-06 0)
(-7.99323 -1.4578e-06 0)
(-7.9843 -1.44523e-06 0)
(-7.97536 -1.43249e-06 0)
(-7.9664 -1.41984e-06 0)
(-7.95742 -1.4075e-06 0)
(-7.94843 -1.39535e-06 0)
(-7.93941 -1.38295e-06 0)
(-7.93038 -1.37045e-06 0)
(-7.92133 -1.3583e-06 0)
(-7.91227 -1.34641e-06 0)
(-7.90318 -1.33435e-06 0)
(-7.89408 -1.32283e-06 0)
(-7.88496 -1.3119e-06 0)
(-7.87582 -1.3006e-06 0)
(-7.86666 -1.28898e-06 0)
(-7.85748 -1.27715e-06 0)
(-7.84829 -1.26534e-06 0)
(-7.83908 -1.25385e-06 0)
(-7.82986 -1.24254e-06 0)
(-7.82062 -1.23101e-06 0)
(-7.81137 -1.21942e-06 0)
(-7.80211 -1.20818e-06 0)
(-7.79283 -1.19719e-06 0)
(-7.78353 -1.18597e-06 0)
(-7.77423 -1.17464e-06 0)
(-7.76491 -1.16366e-06 0)
(-7.75558 -1.15293e-06 0)
(-7.74624 -1.14204e-06 0)
(-7.73688 -1.13103e-06 0)
(-7.72751 -1.12031e-06 0)
(-7.71813 -1.10984e-06 0)
(-7.70874 -1.09924e-06 0)
(-7.69934 -1.08854e-06 0)
(-7.68993 -1.0781e-06 0)
(-7.6805 -1.06791e-06 0)
(-7.67106 -1.0576e-06 0)
(-7.66162 -1.04719e-06 0)
(-7.65216 -1.03703e-06 0)
(-7.6427 -1.02713e-06 0)
(-7.63322 -1.01709e-06 0)
(-7.62374 -1.00697e-06 0)
(-7.61424 -9.97124e-07 0)
(-7.60474 -9.87498e-07 0)
(-7.59523 -9.77731e-07 0)
(-7.5857 -9.67902e-07 0)
(-7.57618 -9.58367e-07 0)
(-7.56664 -9.49028e-07 0)
(-7.55709 -9.39521e-07 0)
(-7.54754 -9.29983e-07 0)
(-7.53798 -9.20761e-07 0)
(-7.52842 -9.11669e-07 0)
(-7.51884 -9.02426e-07 0)
(-7.50926 -8.9322e-07 0)
(-7.49967 -8.84284e-07 0)
(-7.49008 -8.75422e-07 0)
(-7.48048 -8.66452e-07 0)
(-7.47088 -8.5758e-07 0)
(-7.46127 -8.4894e-07 0)
(-7.45165 -8.40305e-07 0)
(-7.44203 -8.316e-07 0)
(-7.4324 -8.23053e-07 0)
(-7.42277 -8.14703e-07 0)
(-7.41313 -8.06291e-07 0)
(-7.4035 -7.97852e-07 0)
(-7.39385 -7.89621e-07 0)
(-7.38421 -7.81527e-07 0)
(-7.37455 -7.73348e-07 0)
(-7.3649 -7.65212e-07 0)
(-7.35524 -7.57289e-07 0)
(-7.34558 -7.49404e-07 0)
(-7.33592 -7.41472e-07 0)
(-7.32626 -7.33664e-07 0)
(-7.31659 -7.26521e-07 0)
(-7.3069 -7.19468e-07 0)
(-7.29722 -7.11905e-07 0)
(-7.28753 -7.04406e-07 0)
(-7.27784 -6.96994e-07 0)
(-7.26814 -6.89535e-07 0)
(-7.25845 -6.82135e-07 0)
(-7.24875 -6.74916e-07 0)
(-7.23906 -6.67706e-07 0)
(-7.22936 -6.60463e-07 0)
(-7.21967 -6.53363e-07 0)
(-7.20997 -6.46397e-07 0)
(-7.20028 -6.39378e-07 0)
(-7.19058 -6.32384e-07 0)
(-7.18089 -6.25581e-07 0)
(-7.1712 -6.18813e-07 0)
(-7.16151 -6.12008e-07 0)
(-7.15182 -6.05327e-07 0)
(-7.14213 -5.98788e-07 0)
(-7.13244 -5.92202e-07 0)
(-7.12276 -5.85631e-07 0)
(-7.11308 -5.79241e-07 0)
(-7.1034 -5.72888e-07 0)
(-7.09372 -5.665e-07 0)
(-7.08405 -5.60228e-07 0)
(-7.07438 -5.5409e-07 0)
(-7.06471 -5.47911e-07 0)
(-7.05505 -5.41758e-07 0)
(-7.04539 -5.3577e-07 0)
(-7.03573 -5.29808e-07 0)
(-7.02608 -5.2382e-07 0)
(-7.01644 -5.17952e-07 0)
(-7.00679 -5.12188e-07 0)
(-6.99715 -5.0639e-07 0)
(-6.98752 -5.00638e-07 0)
(-6.9779 -4.95041e-07 0)
(-6.96827 -4.89442e-07 0)
(-6.95866 -4.83836e-07 0)
(-6.94905 -4.78361e-07 0)
(-6.93944 -4.72953e-07 0)
(-6.92984 -4.6752e-07 0)
(-6.92025 -4.62162e-07 0)
(-6.91067 -4.56926e-07 0)
(-6.90109 -4.5167e-07 0)
(-6.89152 -4.46432e-07 0)
(-6.88195 -4.41338e-07 0)
(-6.8724 -4.36262e-07 0)
(-6.86285 -4.31181e-07 0)
(-6.85331 -4.26203e-07 0)
(-6.84377 -4.21298e-07 0)
(-6.83425 -4.16375e-07 0)
(-6.82473 -4.11514e-07 0)
(-6.81522 -4.06765e-07 0)
(-6.80573 -4.02005e-07 0)
(-6.79623 -3.97266e-07 0)
(-6.78675 -3.92638e-07 0)
(-6.77728 -3.88261e-07 0)
(-6.76781 -3.83954e-07 0)
(-6.75834 -3.79499e-07 0)
(-6.74889 -3.75042e-07 0)
(-6.73944 -3.70579e-07 0)
(-6.73001 -3.66186e-07 0)
(-6.72058 -3.61875e-07 0)
(-6.71117 -3.57563e-07 0)
(-6.70176 -3.53284e-07 0)
(-6.69237 -3.49151e-07 0)
(-6.68298 -3.45031e-07 0)
(-6.67361 -3.40883e-07 0)
(-6.66425 -3.36816e-07 0)
(-6.6549 -3.32784e-07 0)
(-6.64556 -3.28752e-07 0)
(-6.63624 -3.24802e-07 0)
(-6.62692 -3.20899e-07 0)
(-6.61762 -3.17006e-07 0)
(-6.60833 -3.13159e-07 0)
(-6.59906 -3.09391e-07 0)
(-6.5898 -3.05604e-07 0)
(-6.58055 -3.01891e-07 0)
(-6.57131 -2.98155e-07 0)
(-6.5621 -2.94573e-07 0)
(-6.55288 -2.91114e-07 0)
(-6.54265 -2.86984e-07 0)
(-6.53151 -2.82558e-07 0)
(-6.52055 -2.78529e-07 0)
(-6.50972 -2.74585e-07 0)
(-6.49907 -2.70637e-07 0)
(-6.48855 -2.66816e-07 0)
(-6.47819 -2.63077e-07 0)
(-6.46797 -2.59408e-07 0)
(-6.4579 -2.55853e-07 0)
(-6.44796 -2.52367e-07 0)
(-6.43816 -2.48949e-07 0)
(-6.42848 -2.45637e-07 0)
(-6.41894 -2.42389e-07 0)
(-6.40952 -2.39192e-07 0)
(-6.40023 -2.36105e-07 0)
(-6.39105 -2.33071e-07 0)
(-6.382 -2.30088e-07 0)
(-6.37305 -2.27198e-07 0)
(-6.36422 -2.24367e-07 0)
(-6.3555 -2.21572e-07 0)
(-6.34689 -2.18862e-07 0)
(-6.33838 -2.16212e-07 0)
(-6.32998 -2.13598e-07 0)
(-6.32167 -2.11044e-07 0)
(-6.31347 -2.08566e-07 0)
(-6.30535 -2.06113e-07 0)
(-6.29734 -2.03703e-07 0)
(-6.28942 -2.01368e-07 0)
(-6.28159 -1.99077e-07 0)
(-6.27384 -1.9687e-07 0)
(-6.26619 -1.94784e-07 0)
(-6.25861 -1.92696e-07 0)
(-6.25112 -1.90576e-07 0)
(-6.2437 -1.88476e-07 0)
(-6.23637 -1.86444e-07 0)
(-6.22911 -1.84451e-07 0)
(-6.22194 -1.82492e-07 0)
(-6.21484 -1.80564e-07 0)
(-6.20782 -1.78684e-07 0)
(-6.20086 -1.7682e-07 0)
(-6.19399 -1.74978e-07 0)
(-6.18717 -1.73176e-07 0)
(-6.18044 -1.71431e-07 0)
(-6.17376 -1.69694e-07 0)
(-6.16717 -1.67982e-07 0)
(-6.16062 -1.66306e-07 0)
(-6.15416 -1.64685e-07 0)
(-6.14774 -1.63067e-07 0)
(-6.1414 -1.61475e-07 0)
(-6.13511 -1.5991e-07 0)
(-6.12889 -1.58401e-07 0)
(-6.12272 -1.56891e-07 0)
(-6.11662 -1.55411e-07 0)
(-6.11056 -1.5394e-07 0)
(-6.10458 -1.52533e-07 0)
(-6.09863 -1.51122e-07 0)
(-6.09276 -1.49748e-07 0)
(-6.08692 -1.48359e-07 0)
(-6.08115 -1.47048e-07 0)
(-6.07541 -1.45728e-07 0)
(-6.06975 -1.44457e-07 0)
(-6.06411 -1.4314e-07 0)
(-6.05856 -1.4192e-07 0)
(-6.05301 -1.40668e-07 0)
(-6.04755 -1.39504e-07 0)
(-6.0421 -1.38262e-07 0)
(-6.03674 -1.3713e-07 0)
(-6.03137 -1.3593e-07 0)
(-6.02611 -1.3487e-07 0)
(-6.02082 -1.33694e-07 0)
(-6.01565 -1.32661e-07 0)
(-6.01045 -1.31499e-07 0)
(-6.00536 -1.30538e-07 0)
(-6.00024 -1.29416e-07 0)
(-5.99524 -1.28505e-07 0)
(-5.99018 -1.27374e-07 0)
(-5.98528 -1.26518e-07 0)
(-5.98029 -1.25421e-07 0)
(-5.97546 -1.2465e-07 0)
(-5.97054 -1.23562e-07 0)
(-5.9658 -1.22841e-07 0)
(-5.96093 -1.21778e-07 0)
(-5.95627 -1.2114e-07 0)
(-5.95145 -1.20179e-07 0)
(-5.94687 -1.19506e-07 0)
(-5.94211 -1.18912e-07 0)
(-5.93757 -1.17625e-07 0)
(-5.93291 -1.18769e-07 0)
(-5.92828 -1.14376e-07 0)
(-5.92397 -1.22444e-07 0)
(-5.91868 -1.04935e-07 0)
(-5.91581 -1.35909e-07 0)
(-5.90796 -8.26948e-08 0)
(-5.9095 -1.14272e-07 0)
(-5.89874 -1.42648e-07 0)
)
;
    }
    symmetry
    {
        type            symmetryPlane;
    }
    frontAndBack
    {
        type            empty;
    }
}


// ************************************************************************* //
