/*--------------------------------*- C++ -*----------------------------------*\
| =========                 |                                                 |
| \\      /  F ield         | OpenFOAM: The Open Source CFD Toolbox           |
|  \\    /   O peration     | Version:  v2012                                 |
|   \\  /    A nd           | Website:  www.openfoam.com                      |
|    \\/     M anipulation  |                                                 |
\*---------------------------------------------------------------------------*/
FoamFile
{
    version     2.0;
    format      ascii;
    class       volScalarField;
    location    "51.5";
    object      yPlus;
}
// * * * * * * * * * * * * * * * * * * * * * * * * * * * * * * * * * * * * * //

dimensions      [0 0 0 0 0 0 0];


internalField   uniform 0;

boundaryField
{
    inlet
    {
        type            calculated;
        value           uniform 0;
    }
    outlet
    {
        type            calculated;
        value           uniform 0;
    }
    topWall
    {
        type            calculated;
        value           nonuniform List<scalar> 
545
(
0.111336
0.191975
0.246287
0.28951
0.326103
0.358123
0.386726
0.412638
0.436355
0.458232
0.478536
0.497474
0.515208
0.531872
0.547575
0.56241
0.576454
0.589774
0.60243
0.614471
0.625943
0.636886
0.647336
0.657324
0.66688
0.67603
0.684798
0.693205
0.701272
0.709017
0.716458
0.72361
0.730488
0.737105
0.743474
0.749607
0.755515
0.761209
0.766697
0.77199
0.777096
0.782023
0.786779
0.79137
0.795805
0.800088
0.804227
0.808228
0.812095
0.815834
0.81945
0.822948
0.826332
0.829606
0.832776
0.835844
0.838814
0.84169
0.844476
0.847174
0.849788
0.85232
0.854775
0.857153
0.859459
0.861694
0.86386
0.865961
0.867999
0.869975
0.871892
0.873751
0.875532
0.877255
0.878964
0.88066
0.882342
0.884011
0.885667
0.88731
0.88894
0.890558
0.892163
0.893755
0.895336
0.896904
0.89846
0.900003
0.901536
0.903056
0.904565
0.906062
0.907548
0.909022
0.910485
0.911938
0.913246
0.914417
0.915587
0.916758
0.917928
0.919098
0.920268
0.921438
0.922608
0.923778
0.924947
0.926117
0.927286
0.928455
0.929624
0.930792
0.931961
0.933129
0.934297
0.935465
0.936633
0.9378
0.938967
0.940134
0.941301
0.942468
0.943634
0.9448
0.945965
0.947131
0.948296
0.949461
0.950625
0.951789
0.952953
0.954117
0.95528
0.956443
0.957606
0.958768
0.95993
0.961091
0.962252
0.963413
0.964573
0.965733
0.966893
0.968052
0.96921
0.970369
0.971526
0.972684
0.97384
0.974997
0.976153
0.977308
0.978463
0.979618
0.980771
0.981925
0.983078
0.98423
0.985382
0.986533
0.987684
0.988834
0.989983
0.991132
0.992281
0.993428
0.994575
0.995722
0.996868
0.998013
0.999157
1.0003
1.00144
1.00259
1.00373
1.00487
1.00601
1.00715
1.00829
1.00943
1.01056
1.0117
1.01284
1.01397
1.01511
1.01624
1.01737
1.0185
1.01963
1.02076
1.02189
1.02302
1.02415
1.02528
1.0264
1.02753
1.02865
1.02977
1.0309
1.03202
1.03314
1.03426
1.03537
1.03649
1.03761
1.03872
1.03984
1.04095
1.04206
1.04317
1.04428
1.04539
1.0465
1.04761
1.04871
1.04982
1.05092
1.05202
1.05312
1.05422
1.05532
1.05642
1.05751
1.05861
1.0597
1.06079
1.06188
1.06297
1.06406
1.06515
1.06624
1.06732
1.0684
1.06949
1.07057
1.07164
1.07272
1.0738
1.07487
1.07595
1.07702
1.07809
1.07916
1.08023
1.08129
1.08236
1.08342
1.08448
1.08554
1.0866
1.08766
1.08871
1.08977
1.09082
1.09187
1.09292
1.09396
1.09501
1.09605
1.0971
1.09814
1.09917
1.10021
1.10125
1.10228
1.10331
1.10434
1.10537
1.1064
1.10736
1.10828
1.1092
1.11012
1.11105
1.11199
1.11294
1.11389
1.11485
1.11581
1.11678
1.11776
1.11875
1.11974
1.12073
1.12174
1.12275
1.12376
1.12479
1.12582
1.12685
1.12789
1.12894
1.12999
1.13105
1.13212
1.13319
1.13427
1.13536
1.13645
1.13755
1.13865
1.13976
1.14087
1.14199
1.14312
1.14425
1.14539
1.14653
1.14768
1.14884
1.15
1.15116
1.15233
1.15351
1.15469
1.15587
1.15706
1.15826
1.15946
1.16066
1.16187
1.16309
1.16431
1.16553
1.16676
1.16799
1.16922
1.17046
1.1717
1.17295
1.1742
1.17545
1.1767
1.17796
1.17922
1.18049
1.18175
1.18302
1.18429
1.18557
1.18684
1.18812
1.1894
1.19068
1.19196
1.19324
1.19452
1.19581
1.19709
1.19837
1.19966
1.20094
1.20223
1.20351
1.20479
1.20607
1.20735
1.20863
1.2099
1.21118
1.21245
1.21372
1.21498
1.21625
1.2175
1.21876
1.22001
1.22126
1.2225
1.22374
1.22498
1.2262
1.22743
1.22864
1.22985
1.23106
1.23225
1.23344
1.23463
1.2358
1.23697
1.23812
1.23927
1.24041
1.24154
1.24267
1.24378
1.24488
1.24597
1.24705
1.24811
1.24917
1.25021
1.25124
1.25226
1.25327
1.25426
1.25524
1.2562
1.25715
1.25809
1.25901
1.25991
1.2608
1.26167
1.26253
1.26337
1.26419
1.265
1.26578
1.26655
1.26731
1.26804
1.26875
1.26945
1.27012
1.27078
1.27142
1.27203
1.27263
1.2732
1.27376
1.27429
1.2748
1.27529
1.27576
1.27621
1.27663
1.27703
1.27741
1.27777
1.2781
1.27841
1.2787
1.27897
1.27921
1.27943
1.27962
1.27979
1.27994
1.28007
1.28017
1.28024
1.2803
1.28033
1.28034
1.28032
1.28028
1.28022
1.28013
1.28001
1.27984
1.27964
1.27942
1.27916
1.27888
1.27858
1.27825
1.2779
1.27752
1.27713
1.27672
1.27629
1.27584
1.27538
1.27491
1.27442
1.27391
1.2734
1.27288
1.27234
1.2718
1.27124
1.27068
1.27012
1.26955
1.26897
1.26839
1.2678
1.26721
1.26662
1.26602
1.26543
1.26483
1.26423
1.26363
1.26304
1.26244
1.26185
1.26126
1.26067
1.26009
1.2595
1.25893
1.25835
1.25779
1.25722
1.25667
1.25612
1.25557
1.25503
1.2545
1.25398
1.25347
1.25296
1.25246
1.25197
1.25149
1.25102
1.25056
1.2501
1.24966
1.24923
1.24881
1.2484
1.248
1.24762
1.24724
1.24688
1.24653
1.24619
1.24586
1.24555
1.24525
1.24496
1.24468
1.24442
1.24417
1.24394
1.24372
1.24351
1.24332
1.24314
1.24297
1.24282
1.24269
1.24257
1.24246
1.24237
1.24229
1.24222
1.24218
1.24214
1.24213
1.24211
)
;
    }
    bottomWall
    {
        type            calculated;
        value           nonuniform List<scalar> 
449
(
0.139385
0.0889281
0.0757948
0.0694452
0.0652958
0.0622312
0.0598588
0.0580586
0.0569162
0.056782
0.0585525
0.0626301
0.0660592
0.0681432
0.0692755
0.0698871
0.070191
0.0702992
0.0702625
0.0701464
0.0699751
0.0697683
0.069543
0.0693094
0.0690733
0.0688386
0.0686068
0.0683799
0.0681587
0.0679438
0.0677351
0.0675328
0.0673368
0.0671468
0.0669627
0.0667841
0.0666108
0.0664425
0.0662793
0.0661207
0.0659667
0.065817
0.0656713
0.0655295
0.0653914
0.0652569
0.0651257
0.0649977
0.0648728
0.0647506
0.0646308
0.0645131
0.0643975
0.0642838
0.0641723
0.0640627
0.0639551
0.0638494
0.0637456
0.0636437
0.0635436
0.0634451
0.0633484
0.0632533
0.0631598
0.0630679
0.0629774
0.0628884
0.0628008
0.0627145
0.0626295
0.0625458
0.0624633
0.062382
0.0623019
0.0622229
0.062145
0.0620683
0.0619926
0.061918
0.0618444
0.0617718
0.0617001
0.0616294
0.0615596
0.0614907
0.0614227
0.0613555
0.0612891
0.0612235
0.0611587
0.0610947
0.0610315
0.0609689
0.0609071
0.060846
0.0607856
0.0607259
0.0606668
0.0606084
0.0605506
0.0604933
0.0604367
0.0603806
0.060325
0.0602701
0.0602157
0.0601619
0.0601086
0.0600558
0.0600035
0.0599517
0.0599005
0.0598496
0.0597993
0.0597495
0.0597001
0.0596511
0.0596027
0.0595546
0.0595069
0.0594597
0.0594129
0.0593665
0.0593205
0.0592749
0.0592296
0.0591847
0.0591402
0.0590961
0.0590523
0.0590089
0.0589658
0.0589231
0.0588807
0.0588386
0.0587969
0.0587554
0.0587143
0.0586735
0.058633
0.0585928
0.0585529
0.0585132
0.0584739
0.0584348
0.0583961
0.0583576
0.0583193
0.0582812
0.0582435
0.058206
0.0581687
0.0581317
0.0580949
0.0580584
0.0580221
0.0579861
0.0579503
0.0579147
0.0578794
0.0578442
0.0578093
0.0577747
0.0577402
0.0577059
0.0576719
0.0576381
0.0576044
0.057571
0.0575378
0.0575047
0.0574719
0.0574411
0.0574121
0.057383
0.0573538
0.0573245
0.0572951
0.0572656
0.0572361
0.0572064
0.0571766
0.0571467
0.0571167
0.0570867
0.0570565
0.0570263
0.0569959
0.0569654
0.0569349
0.0569043
0.0568736
0.0568427
0.0568118
0.0567808
0.0567498
0.0567186
0.0566873
0.056656
0.0566246
0.056593
0.0565614
0.0565298
0.056498
0.0564662
0.0564342
0.0564022
0.0563701
0.056338
0.0563057
0.0562734
0.056241
0.0562085
0.0561759
0.0561432
0.0561104
0.0560776
0.0560447
0.0560117
0.0559787
0.0559456
0.0559124
0.0558791
0.0558458
0.0558124
0.0557789
0.0557454
0.0557118
0.0556782
0.0556445
0.0556107
0.0555768
0.0555429
0.055509
0.0554749
0.0554408
0.0554067
0.0553725
0.0553382
0.0553039
0.0552696
0.0552351
0.0552006
0.0551661
0.0551315
0.0550969
0.0550622
0.0550275
0.0549927
0.0549578
0.0549229
0.054888
0.054853
0.054818
0.0547829
0.0547478
0.0547127
0.0546775
0.0546422
0.0546069
0.0545716
0.0545362
0.0545008
0.0544654
0.0544299
0.0543944
0.0543588
0.0543232
0.0542876
0.0542519
0.0542162
0.0541805
0.0541447
0.0541089
0.054073
0.0540371
0.0540012
0.0539652
0.0539292
0.0538932
0.0538571
0.053821
0.0537849
0.0537488
0.0537127
0.0536765
0.0536403
0.0536041
0.0535679
0.0535316
0.0534953
0.053459
0.0534227
0.0533864
0.0533501
0.0533137
0.0532774
0.053241
0.0532046
0.0531682
0.0531318
0.0530954
0.0530589
0.0530225
0.0529861
0.0529496
0.0529132
0.0528767
0.0528402
0.0528037
0.0527673
0.0527308
0.0526943
0.0526578
0.0526214
0.0525849
0.0525484
0.0525119
0.0524754
0.052439
0.0524025
0.0523661
0.0523296
0.0522932
0.0522567
0.0522203
0.0521839
0.0521475
0.052111
0.0520746
0.0520382
0.0520018
0.0519654
0.051929
0.0518926
0.0518562
0.0518199
0.0517836
0.0517472
0.0517109
0.0516747
0.0516384
0.0516022
0.0515659
0.0515297
0.0514936
0.0514574
0.0514213
0.0513852
0.0513491
0.0513131
0.0512771
0.0512411
0.0512011
0.0511575
0.0511145
0.0510721
0.0510302
0.0509889
0.0509482
0.050908
0.0508683
0.0508292
0.0507905
0.0507524
0.0507147
0.0506774
0.0506407
0.0506044
0.0505685
0.0505331
0.0504981
0.0504634
0.0504292
0.0503954
0.050362
0.0503289
0.0502963
0.050264
0.050232
0.0502004
0.0501692
0.0501382
0.0501076
0.0500773
0.0500473
0.0500176
0.0499883
0.0499592
0.0499304
0.0499019
0.0498737
0.0498457
0.0498181
0.0497907
0.0497636
0.0497367
0.0497101
0.0496837
0.0496577
0.0496318
0.0496062
0.0495808
0.0495556
0.0495307
0.049506
0.0494815
0.0494572
0.0494331
0.0494093
0.0493856
0.0493623
0.049339
0.049316
0.049293
0.0492705
0.0492479
0.0492257
0.0492035
0.0491817
0.0491598
0.0491383
0.0491168
0.0490957
0.0490744
0.0490537
0.0490327
0.0490123
0.0489917
0.0489716
0.0489512
0.0489314
0.0489112
0.0488918
0.0488719
0.0488528
0.048833
0.0488142
0.0487947
0.048776
0.0487569
0.0487378
0.0487201
0.0486984
0.0486866
0.0486543
0.0486606
0.0486163
)
;
    }
    symmetry
    {
        type            symmetryPlane;
    }
    frontAndBack
    {
        type            empty;
    }
}


// ************************************************************************* //
