/*--------------------------------*- C++ -*----------------------------------*\
| =========                 |                                                 |
| \\      /  F ield         | OpenFOAM: The Open Source CFD Toolbox           |
|  \\    /   O peration     | Version:  v2012                                 |
|   \\  /    A nd           | Website:  www.openfoam.com                      |
|    \\/     M anipulation  |                                                 |
\*---------------------------------------------------------------------------*/
FoamFile
{
    version     2.0;
    format      ascii;
    class       volScalarField;
    location    "7.5";
    object      nut;
}
// * * * * * * * * * * * * * * * * * * * * * * * * * * * * * * * * * * * * * //

dimensions      [0 2 -1 0 0 0 0];


internalField   nonuniform List<scalar> 
209825
(
1.20372e-07
1.14973e-07
1.12241e-07
1.10658e-07
1.09612e-07
1.08881e-07
1.08332e-07
1.07919e-07
1.07585e-07
1.07326e-07
1.07103e-07
1.0693e-07
1.06771e-07
1.06646e-07
1.06537e-07
1.0645e-07
1.06366e-07
1.06302e-07
1.06236e-07
1.06188e-07
1.06135e-07
1.06099e-07
1.06062e-07
1.06038e-07
1.06006e-07
1.0599e-07
1.0597e-07
1.05959e-07
1.05936e-07
1.05941e-07
1.0594e-07
1.05935e-07
1.05928e-07
1.0592e-07
1.05908e-07
1.05908e-07
1.05908e-07
1.05902e-07
1.059e-07
1.05892e-07
1.05878e-07
1.05874e-07
1.05873e-07
1.05866e-07
1.05858e-07
1.05852e-07
1.05849e-07
1.05837e-07
1.05842e-07
1.05837e-07
1.05832e-07
1.05842e-07
1.05842e-07
1.05841e-07
1.05833e-07
1.05856e-07
1.05845e-07
1.05844e-07
1.05834e-07
1.0585e-07
1.0585e-07
1.0585e-07
1.05875e-07
1.05898e-07
1.05898e-07
1.05898e-07
1.05922e-07
1.05943e-07
1.05943e-07
1.05925e-07
1.05964e-07
1.06006e-07
1.06032e-07
1.06071e-07
1.06065e-07
1.06045e-07
1.06079e-07
1.06118e-07
1.06167e-07
1.06213e-07
1.0626e-07
1.06282e-07
1.06303e-07
1.06356e-07
1.06438e-07
1.06509e-07
1.06604e-07
1.06713e-07
1.06846e-07
1.07001e-07
1.07184e-07
1.07618e-07
1.07703e-07
1.09198e-07
2.83132e-07
4.35221e-10
1.20373e-07
1.14974e-07
1.12241e-07
1.10658e-07
1.09611e-07
1.0888e-07
1.0833e-07
1.07917e-07
1.07583e-07
1.07324e-07
1.071e-07
1.06927e-07
1.06768e-07
1.06643e-07
1.06534e-07
1.06447e-07
1.06363e-07
1.06299e-07
1.06232e-07
1.06185e-07
1.06131e-07
1.06095e-07
1.06058e-07
1.06034e-07
1.06002e-07
1.05986e-07
1.05966e-07
1.05955e-07
1.05932e-07
1.05937e-07
1.05936e-07
1.05931e-07
1.05924e-07
1.05916e-07
1.05904e-07
1.05904e-07
1.05904e-07
1.05898e-07
1.05896e-07
1.05888e-07
1.05874e-07
1.0587e-07
1.05869e-07
1.05862e-07
1.05854e-07
1.05848e-07
1.05846e-07
1.05833e-07
1.05838e-07
1.05833e-07
1.05828e-07
1.05838e-07
1.05838e-07
1.05837e-07
1.05828e-07
1.05852e-07
1.05841e-07
1.0584e-07
1.0583e-07
1.05846e-07
1.05846e-07
1.05846e-07
1.05871e-07
1.05894e-07
1.05894e-07
1.05894e-07
1.05918e-07
1.05939e-07
1.05939e-07
1.05921e-07
1.0596e-07
1.06002e-07
1.06028e-07
1.06067e-07
1.06061e-07
1.06041e-07
1.06075e-07
1.06114e-07
1.06163e-07
1.06209e-07
1.06256e-07
1.06278e-07
1.063e-07
1.06352e-07
1.06434e-07
1.06505e-07
1.066e-07
1.06709e-07
1.06842e-07
1.06997e-07
1.0718e-07
1.07614e-07
1.07699e-07
1.09196e-07
2.83359e-07
4.45056e-10
1.20377e-07
1.14978e-07
1.12242e-07
1.10656e-07
1.09608e-07
1.08875e-07
1.08324e-07
1.07909e-07
1.07574e-07
1.07315e-07
1.0709e-07
1.06917e-07
1.06757e-07
1.06632e-07
1.06522e-07
1.06435e-07
1.06351e-07
1.06286e-07
1.0622e-07
1.06172e-07
1.06118e-07
1.06082e-07
1.06045e-07
1.06021e-07
1.05988e-07
1.05972e-07
1.05952e-07
1.05941e-07
1.05918e-07
1.05923e-07
1.05922e-07
1.05917e-07
1.0591e-07
1.05902e-07
1.0589e-07
1.0589e-07
1.0589e-07
1.05884e-07
1.05882e-07
1.05874e-07
1.0586e-07
1.05856e-07
1.05855e-07
1.05848e-07
1.0584e-07
1.05833e-07
1.05831e-07
1.05818e-07
1.05824e-07
1.05818e-07
1.05814e-07
1.05823e-07
1.05823e-07
1.05823e-07
1.05814e-07
1.05838e-07
1.05826e-07
1.05825e-07
1.05815e-07
1.05831e-07
1.05831e-07
1.05831e-07
1.05856e-07
1.05879e-07
1.05879e-07
1.05879e-07
1.05903e-07
1.05924e-07
1.05924e-07
1.05906e-07
1.05945e-07
1.05987e-07
1.06014e-07
1.06052e-07
1.06046e-07
1.06027e-07
1.06061e-07
1.06099e-07
1.06148e-07
1.06194e-07
1.06241e-07
1.06264e-07
1.06285e-07
1.06338e-07
1.0642e-07
1.06491e-07
1.06586e-07
1.06695e-07
1.06827e-07
1.06983e-07
1.07166e-07
1.076e-07
1.07685e-07
1.09184e-07
2.83987e-07
4.59991e-10
1.20385e-07
1.14983e-07
1.12243e-07
1.10653e-07
1.09602e-07
1.08866e-07
1.08313e-07
1.07897e-07
1.07561e-07
1.073e-07
1.07074e-07
1.069e-07
1.0674e-07
1.06614e-07
1.06503e-07
1.06416e-07
1.06331e-07
1.06266e-07
1.06199e-07
1.06151e-07
1.06097e-07
1.06061e-07
1.06023e-07
1.05999e-07
1.05966e-07
1.0595e-07
1.0593e-07
1.05918e-07
1.05896e-07
1.059e-07
1.05899e-07
1.05894e-07
1.05886e-07
1.05879e-07
1.05866e-07
1.05866e-07
1.05866e-07
1.0586e-07
1.05858e-07
1.0585e-07
1.05836e-07
1.05832e-07
1.05831e-07
1.05824e-07
1.05816e-07
1.05809e-07
1.05807e-07
1.05794e-07
1.05799e-07
1.05794e-07
1.05789e-07
1.05798e-07
1.05798e-07
1.05798e-07
1.05789e-07
1.05813e-07
1.05802e-07
1.05801e-07
1.0579e-07
1.05807e-07
1.05806e-07
1.05806e-07
1.05831e-07
1.05854e-07
1.05854e-07
1.05854e-07
1.05879e-07
1.059e-07
1.059e-07
1.05881e-07
1.0592e-07
1.05962e-07
1.05989e-07
1.06027e-07
1.06022e-07
1.06002e-07
1.06036e-07
1.06074e-07
1.06124e-07
1.06169e-07
1.06217e-07
1.0624e-07
1.06261e-07
1.06313e-07
1.06396e-07
1.06467e-07
1.06562e-07
1.06671e-07
1.06804e-07
1.06959e-07
1.07142e-07
1.07577e-07
1.07661e-07
1.09164e-07
2.85005e-07
4.78733e-10
1.20395e-07
1.14992e-07
1.12245e-07
1.1065e-07
1.09594e-07
1.08854e-07
1.08299e-07
1.0788e-07
1.07541e-07
1.07279e-07
1.07052e-07
1.06876e-07
1.06715e-07
1.06588e-07
1.06477e-07
1.06388e-07
1.06303e-07
1.06238e-07
1.0617e-07
1.06121e-07
1.06067e-07
1.0603e-07
1.05993e-07
1.05968e-07
1.05935e-07
1.05918e-07
1.05898e-07
1.05886e-07
1.05863e-07
1.05868e-07
1.05867e-07
1.05861e-07
1.05854e-07
1.05846e-07
1.05833e-07
1.05833e-07
1.05833e-07
1.05827e-07
1.05824e-07
1.05816e-07
1.05802e-07
1.05798e-07
1.05797e-07
1.0579e-07
1.05782e-07
1.05776e-07
1.05773e-07
1.0576e-07
1.05765e-07
1.0576e-07
1.05755e-07
1.05764e-07
1.05764e-07
1.05764e-07
1.05755e-07
1.05779e-07
1.05767e-07
1.05766e-07
1.05756e-07
1.05772e-07
1.05772e-07
1.05772e-07
1.05797e-07
1.0582e-07
1.0582e-07
1.05819e-07
1.05844e-07
1.05865e-07
1.05865e-07
1.05846e-07
1.05885e-07
1.05928e-07
1.05954e-07
1.05993e-07
1.05988e-07
1.05968e-07
1.06002e-07
1.0604e-07
1.06089e-07
1.06135e-07
1.06183e-07
1.06205e-07
1.06227e-07
1.0628e-07
1.06362e-07
1.06433e-07
1.06528e-07
1.06637e-07
1.0677e-07
1.06926e-07
1.07108e-07
1.07544e-07
1.07628e-07
1.09135e-07
2.86432e-07
5.00779e-10
1.20409e-07
1.15003e-07
1.12248e-07
1.10645e-07
1.09584e-07
1.08839e-07
1.0828e-07
1.07858e-07
1.07517e-07
1.07252e-07
1.07023e-07
1.06845e-07
1.06683e-07
1.06555e-07
1.06442e-07
1.06353e-07
1.06267e-07
1.06201e-07
1.06133e-07
1.06083e-07
1.06028e-07
1.05991e-07
1.05953e-07
1.05928e-07
1.05894e-07
1.05878e-07
1.05857e-07
1.05845e-07
1.05822e-07
1.05826e-07
1.05825e-07
1.05819e-07
1.05811e-07
1.05803e-07
1.05791e-07
1.0579e-07
1.0579e-07
1.05784e-07
1.05781e-07
1.05773e-07
1.05759e-07
1.05755e-07
1.05754e-07
1.05746e-07
1.05738e-07
1.05732e-07
1.05729e-07
1.05716e-07
1.05721e-07
1.05716e-07
1.05711e-07
1.0572e-07
1.0572e-07
1.05719e-07
1.0571e-07
1.05734e-07
1.05723e-07
1.05721e-07
1.05711e-07
1.05727e-07
1.05727e-07
1.05727e-07
1.05752e-07
1.05775e-07
1.05775e-07
1.05775e-07
1.05799e-07
1.0582e-07
1.0582e-07
1.05802e-07
1.0584e-07
1.05883e-07
1.0591e-07
1.05948e-07
1.05944e-07
1.05923e-07
1.05957e-07
1.05996e-07
1.06045e-07
1.06091e-07
1.06138e-07
1.06161e-07
1.06183e-07
1.06236e-07
1.06318e-07
1.06389e-07
1.06484e-07
1.06594e-07
1.06726e-07
1.06883e-07
1.07064e-07
1.07501e-07
1.07584e-07
1.09098e-07
2.88284e-07
5.25894e-10
1.20426e-07
1.15016e-07
1.12251e-07
1.1064e-07
1.09571e-07
1.08821e-07
1.08257e-07
1.07831e-07
1.07486e-07
1.07219e-07
1.06987e-07
1.06808e-07
1.06643e-07
1.06514e-07
1.064e-07
1.0631e-07
1.06222e-07
1.06155e-07
1.06086e-07
1.06036e-07
1.05981e-07
1.05943e-07
1.05904e-07
1.05878e-07
1.05845e-07
1.05828e-07
1.05806e-07
1.05794e-07
1.0577e-07
1.05774e-07
1.05773e-07
1.05767e-07
1.05759e-07
1.05751e-07
1.05738e-07
1.05737e-07
1.05737e-07
1.05731e-07
1.05728e-07
1.0572e-07
1.05706e-07
1.05701e-07
1.057e-07
1.05693e-07
1.05685e-07
1.05678e-07
1.05675e-07
1.05662e-07
1.05667e-07
1.05662e-07
1.05656e-07
1.05665e-07
1.05665e-07
1.05665e-07
1.05656e-07
1.0568e-07
1.05668e-07
1.05666e-07
1.05656e-07
1.05672e-07
1.05672e-07
1.05672e-07
1.05697e-07
1.0572e-07
1.0572e-07
1.05719e-07
1.05744e-07
1.05765e-07
1.05765e-07
1.05746e-07
1.05785e-07
1.05828e-07
1.05855e-07
1.05893e-07
1.05889e-07
1.05869e-07
1.05902e-07
1.05941e-07
1.0599e-07
1.06036e-07
1.06084e-07
1.06107e-07
1.06129e-07
1.06182e-07
1.06264e-07
1.06335e-07
1.0643e-07
1.0654e-07
1.06672e-07
1.0683e-07
1.0701e-07
1.07449e-07
1.07531e-07
1.09052e-07
2.90582e-07
5.53994e-10
1.20446e-07
1.15032e-07
1.12256e-07
1.10634e-07
1.09556e-07
1.08799e-07
1.08229e-07
1.07799e-07
1.0745e-07
1.07179e-07
1.06945e-07
1.06763e-07
1.06597e-07
1.06465e-07
1.0635e-07
1.06258e-07
1.0617e-07
1.06101e-07
1.06031e-07
1.0598e-07
1.05924e-07
1.05885e-07
1.05846e-07
1.0582e-07
1.05785e-07
1.05768e-07
1.05746e-07
1.05734e-07
1.05709e-07
1.05713e-07
1.05711e-07
1.05705e-07
1.05697e-07
1.05689e-07
1.05675e-07
1.05675e-07
1.05674e-07
1.05668e-07
1.05665e-07
1.05656e-07
1.05642e-07
1.05638e-07
1.05637e-07
1.05629e-07
1.0562e-07
1.05614e-07
1.05611e-07
1.05597e-07
1.05602e-07
1.05597e-07
1.05591e-07
1.056e-07
1.056e-07
1.056e-07
1.0559e-07
1.05614e-07
1.05602e-07
1.05601e-07
1.0559e-07
1.05607e-07
1.05607e-07
1.05606e-07
1.05631e-07
1.05654e-07
1.05654e-07
1.05654e-07
1.05678e-07
1.057e-07
1.057e-07
1.0568e-07
1.05719e-07
1.05762e-07
1.05789e-07
1.05827e-07
1.05824e-07
1.05803e-07
1.05837e-07
1.05875e-07
1.05925e-07
1.05971e-07
1.06019e-07
1.06042e-07
1.06064e-07
1.06117e-07
1.06199e-07
1.06271e-07
1.06365e-07
1.06476e-07
1.06608e-07
1.06766e-07
1.06945e-07
1.07385e-07
1.07466e-07
1.08996e-07
2.93345e-07
5.851e-10
1.20469e-07
1.15051e-07
1.12261e-07
1.10627e-07
1.09539e-07
1.08774e-07
1.08197e-07
1.07761e-07
1.07408e-07
1.07133e-07
1.06896e-07
1.06711e-07
1.06542e-07
1.06409e-07
1.06292e-07
1.06198e-07
1.06108e-07
1.06038e-07
1.05967e-07
1.05915e-07
1.05858e-07
1.05818e-07
1.05778e-07
1.05751e-07
1.05716e-07
1.05698e-07
1.05676e-07
1.05663e-07
1.05638e-07
1.05641e-07
1.05639e-07
1.05632e-07
1.05624e-07
1.05616e-07
1.05602e-07
1.05601e-07
1.05601e-07
1.05594e-07
1.05591e-07
1.05582e-07
1.05568e-07
1.05564e-07
1.05562e-07
1.05554e-07
1.05546e-07
1.05539e-07
1.05536e-07
1.05522e-07
1.05527e-07
1.05521e-07
1.05516e-07
1.05524e-07
1.05524e-07
1.05524e-07
1.05514e-07
1.05538e-07
1.05526e-07
1.05524e-07
1.05514e-07
1.0553e-07
1.0553e-07
1.0553e-07
1.05555e-07
1.05577e-07
1.05577e-07
1.05577e-07
1.05601e-07
1.05623e-07
1.05623e-07
1.05604e-07
1.05642e-07
1.05686e-07
1.05713e-07
1.05751e-07
1.05749e-07
1.05727e-07
1.05761e-07
1.05799e-07
1.05848e-07
1.05895e-07
1.05943e-07
1.05967e-07
1.05989e-07
1.06042e-07
1.06123e-07
1.06196e-07
1.0629e-07
1.06401e-07
1.06533e-07
1.06692e-07
1.0687e-07
1.07312e-07
1.07392e-07
1.08932e-07
2.9659e-07
6.19318e-10
1.20495e-07
1.15073e-07
1.12267e-07
1.10619e-07
1.0952e-07
1.08746e-07
1.08161e-07
1.07719e-07
1.0736e-07
1.07081e-07
1.0684e-07
1.06652e-07
1.0648e-07
1.06344e-07
1.06225e-07
1.06129e-07
1.06038e-07
1.05967e-07
1.05894e-07
1.05841e-07
1.05782e-07
1.05742e-07
1.05701e-07
1.05673e-07
1.05637e-07
1.05619e-07
1.05595e-07
1.05582e-07
1.05557e-07
1.05559e-07
1.05557e-07
1.0555e-07
1.05541e-07
1.05533e-07
1.05519e-07
1.05517e-07
1.05517e-07
1.0551e-07
1.05506e-07
1.05498e-07
1.05483e-07
1.05479e-07
1.05477e-07
1.05469e-07
1.05461e-07
1.05453e-07
1.0545e-07
1.05436e-07
1.0544e-07
1.05435e-07
1.05429e-07
1.05438e-07
1.05437e-07
1.05437e-07
1.05427e-07
1.05451e-07
1.05439e-07
1.05437e-07
1.05426e-07
1.05443e-07
1.05443e-07
1.05442e-07
1.05467e-07
1.05489e-07
1.05489e-07
1.05489e-07
1.05513e-07
1.05535e-07
1.05536e-07
1.05516e-07
1.05554e-07
1.05598e-07
1.05625e-07
1.05663e-07
1.05662e-07
1.0564e-07
1.05673e-07
1.05712e-07
1.05761e-07
1.05808e-07
1.05856e-07
1.05881e-07
1.05903e-07
1.05956e-07
1.06037e-07
1.0611e-07
1.06204e-07
1.06315e-07
1.06447e-07
1.06607e-07
1.06783e-07
1.07228e-07
1.07306e-07
1.08859e-07
3.00336e-07
6.56821e-10
1.20525e-07
1.15097e-07
1.12274e-07
1.10611e-07
1.09499e-07
1.08714e-07
1.0812e-07
1.07671e-07
1.07307e-07
1.07022e-07
1.06777e-07
1.06585e-07
1.0641e-07
1.06272e-07
1.0615e-07
1.06052e-07
1.05958e-07
1.05886e-07
1.05812e-07
1.05757e-07
1.05697e-07
1.05656e-07
1.05614e-07
1.05585e-07
1.05548e-07
1.05529e-07
1.05505e-07
1.05491e-07
1.05466e-07
1.05467e-07
1.05464e-07
1.05457e-07
1.05448e-07
1.05439e-07
1.05425e-07
1.05423e-07
1.05422e-07
1.05415e-07
1.05411e-07
1.05402e-07
1.05388e-07
1.05383e-07
1.05381e-07
1.05373e-07
1.05364e-07
1.05357e-07
1.05353e-07
1.05339e-07
1.05343e-07
1.05338e-07
1.05332e-07
1.0534e-07
1.05339e-07
1.05339e-07
1.05329e-07
1.05353e-07
1.05341e-07
1.05338e-07
1.05328e-07
1.05344e-07
1.05344e-07
1.05344e-07
1.05368e-07
1.05391e-07
1.0539e-07
1.0539e-07
1.05414e-07
1.05437e-07
1.05437e-07
1.05417e-07
1.05454e-07
1.05499e-07
1.05526e-07
1.05564e-07
1.05564e-07
1.05542e-07
1.05575e-07
1.05614e-07
1.05663e-07
1.0571e-07
1.05758e-07
1.05783e-07
1.05806e-07
1.05858e-07
1.0594e-07
1.06013e-07
1.06107e-07
1.06219e-07
1.0635e-07
1.06511e-07
1.06686e-07
1.07132e-07
1.07209e-07
1.08776e-07
3.04599e-07
6.97864e-10
1.20557e-07
1.15125e-07
1.12283e-07
1.10601e-07
1.09475e-07
1.08678e-07
1.08076e-07
1.07618e-07
1.07247e-07
1.06957e-07
1.06707e-07
1.06511e-07
1.06333e-07
1.06191e-07
1.06066e-07
1.05966e-07
1.0587e-07
1.05796e-07
1.0572e-07
1.05664e-07
1.05603e-07
1.0556e-07
1.05516e-07
1.05487e-07
1.05449e-07
1.05429e-07
1.05404e-07
1.0539e-07
1.05363e-07
1.05364e-07
1.05361e-07
1.05353e-07
1.05343e-07
1.05334e-07
1.0532e-07
1.05318e-07
1.05316e-07
1.05309e-07
1.05305e-07
1.05296e-07
1.05281e-07
1.05276e-07
1.05274e-07
1.05265e-07
1.05257e-07
1.05249e-07
1.05246e-07
1.05231e-07
1.05235e-07
1.05229e-07
1.05223e-07
1.0523e-07
1.0523e-07
1.0523e-07
1.0522e-07
1.05244e-07
1.05231e-07
1.05228e-07
1.05218e-07
1.05234e-07
1.05234e-07
1.05233e-07
1.05258e-07
1.0528e-07
1.0528e-07
1.0528e-07
1.05304e-07
1.05326e-07
1.05327e-07
1.05306e-07
1.05343e-07
1.05389e-07
1.05416e-07
1.05454e-07
1.05455e-07
1.05432e-07
1.05465e-07
1.05504e-07
1.05553e-07
1.056e-07
1.05648e-07
1.05674e-07
1.05697e-07
1.0575e-07
1.05831e-07
1.05904e-07
1.05998e-07
1.06111e-07
1.06242e-07
1.06404e-07
1.06577e-07
1.07025e-07
1.071e-07
1.08684e-07
3.09393e-07
7.42754e-10
1.20593e-07
1.15155e-07
1.12292e-07
1.10592e-07
1.09449e-07
1.0864e-07
1.08026e-07
1.0756e-07
1.07181e-07
1.06885e-07
1.0663e-07
1.06429e-07
1.06247e-07
1.06101e-07
1.05974e-07
1.05871e-07
1.05773e-07
1.05696e-07
1.05618e-07
1.0556e-07
1.05498e-07
1.05454e-07
1.05409e-07
1.05378e-07
1.0534e-07
1.05318e-07
1.05292e-07
1.05278e-07
1.0525e-07
1.0525e-07
1.05247e-07
1.05238e-07
1.05228e-07
1.05218e-07
1.05204e-07
1.05201e-07
1.052e-07
1.05191e-07
1.05187e-07
1.05178e-07
1.05163e-07
1.05158e-07
1.05156e-07
1.05147e-07
1.05138e-07
1.0513e-07
1.05126e-07
1.05111e-07
1.05115e-07
1.05109e-07
1.05102e-07
1.0511e-07
1.05109e-07
1.05109e-07
1.05099e-07
1.05122e-07
1.05109e-07
1.05106e-07
1.05096e-07
1.05113e-07
1.05112e-07
1.05112e-07
1.05136e-07
1.05158e-07
1.05158e-07
1.05158e-07
1.05181e-07
1.05204e-07
1.05205e-07
1.05184e-07
1.0522e-07
1.05267e-07
1.05294e-07
1.05332e-07
1.05334e-07
1.05311e-07
1.05343e-07
1.05382e-07
1.05431e-07
1.05478e-07
1.05527e-07
1.05553e-07
1.05577e-07
1.05629e-07
1.0571e-07
1.05784e-07
1.05878e-07
1.05991e-07
1.06122e-07
1.06285e-07
1.06457e-07
1.06907e-07
1.0698e-07
1.08582e-07
3.14731e-07
7.91861e-10
1.20632e-07
1.15189e-07
1.12303e-07
1.10582e-07
1.09422e-07
1.08598e-07
1.07973e-07
1.07497e-07
1.0711e-07
1.06807e-07
1.06545e-07
1.0634e-07
1.06153e-07
1.06004e-07
1.05873e-07
1.05767e-07
1.05666e-07
1.05587e-07
1.05507e-07
1.05447e-07
1.05383e-07
1.05337e-07
1.05291e-07
1.05259e-07
1.05219e-07
1.05197e-07
1.0517e-07
1.05154e-07
1.05127e-07
1.05126e-07
1.05121e-07
1.05112e-07
1.05102e-07
1.05092e-07
1.05076e-07
1.05073e-07
1.05071e-07
1.05063e-07
1.05058e-07
1.05049e-07
1.05034e-07
1.05028e-07
1.05026e-07
1.05016e-07
1.05007e-07
1.04999e-07
1.04995e-07
1.0498e-07
1.04983e-07
1.04977e-07
1.0497e-07
1.04977e-07
1.04977e-07
1.04976e-07
1.04966e-07
1.04989e-07
1.04976e-07
1.04972e-07
1.04962e-07
1.04979e-07
1.04978e-07
1.04978e-07
1.05002e-07
1.05024e-07
1.05024e-07
1.05024e-07
1.05047e-07
1.0507e-07
1.05071e-07
1.0505e-07
1.05086e-07
1.05133e-07
1.0516e-07
1.05198e-07
1.05201e-07
1.05177e-07
1.0521e-07
1.05249e-07
1.05297e-07
1.05345e-07
1.05394e-07
1.05421e-07
1.05445e-07
1.05497e-07
1.05578e-07
1.05652e-07
1.05746e-07
1.0586e-07
1.0599e-07
1.06154e-07
1.06324e-07
1.06776e-07
1.06847e-07
1.08469e-07
3.20622e-07
8.4561e-10
1.20674e-07
1.15225e-07
1.12315e-07
1.10571e-07
1.09392e-07
1.08553e-07
1.07915e-07
1.07428e-07
1.07032e-07
1.06722e-07
1.06454e-07
1.06243e-07
1.06051e-07
1.05898e-07
1.05763e-07
1.05654e-07
1.0555e-07
1.05468e-07
1.05386e-07
1.05324e-07
1.05258e-07
1.05211e-07
1.05163e-07
1.0513e-07
1.05089e-07
1.05065e-07
1.05037e-07
1.0502e-07
1.04992e-07
1.0499e-07
1.04985e-07
1.04975e-07
1.04964e-07
1.04953e-07
1.04938e-07
1.04934e-07
1.04932e-07
1.04923e-07
1.04918e-07
1.04908e-07
1.04893e-07
1.04887e-07
1.04884e-07
1.04874e-07
1.04865e-07
1.04857e-07
1.04853e-07
1.04836e-07
1.04839e-07
1.04834e-07
1.04826e-07
1.04833e-07
1.04832e-07
1.04831e-07
1.04821e-07
1.04845e-07
1.04831e-07
1.04827e-07
1.04817e-07
1.04833e-07
1.04833e-07
1.04832e-07
1.04856e-07
1.04878e-07
1.04878e-07
1.04877e-07
1.04901e-07
1.04924e-07
1.04925e-07
1.04903e-07
1.04939e-07
1.04986e-07
1.05014e-07
1.05051e-07
1.05056e-07
1.05032e-07
1.05064e-07
1.05104e-07
1.05152e-07
1.052e-07
1.05249e-07
1.05276e-07
1.05301e-07
1.05353e-07
1.05434e-07
1.05508e-07
1.05602e-07
1.05716e-07
1.05846e-07
1.06012e-07
1.0618e-07
1.06634e-07
1.06702e-07
1.08347e-07
3.27069e-07
9.04486e-10
1.20719e-07
1.15265e-07
1.12329e-07
1.1056e-07
1.09361e-07
1.08505e-07
1.07852e-07
1.07354e-07
1.06949e-07
1.0663e-07
1.06355e-07
1.06138e-07
1.05941e-07
1.05783e-07
1.05644e-07
1.05531e-07
1.05424e-07
1.0534e-07
1.05255e-07
1.05191e-07
1.05123e-07
1.05074e-07
1.05024e-07
1.04989e-07
1.04947e-07
1.04922e-07
1.04893e-07
1.04875e-07
1.04846e-07
1.04843e-07
1.04836e-07
1.04826e-07
1.04814e-07
1.04804e-07
1.04787e-07
1.04783e-07
1.0478e-07
1.04771e-07
1.04765e-07
1.04755e-07
1.0474e-07
1.04734e-07
1.04731e-07
1.04721e-07
1.04711e-07
1.04702e-07
1.04698e-07
1.04681e-07
1.04684e-07
1.04678e-07
1.0467e-07
1.04676e-07
1.04675e-07
1.04675e-07
1.04664e-07
1.04687e-07
1.04674e-07
1.04669e-07
1.04659e-07
1.04676e-07
1.04675e-07
1.04674e-07
1.04698e-07
1.04719e-07
1.04719e-07
1.04719e-07
1.04742e-07
1.04766e-07
1.04766e-07
1.04744e-07
1.04779e-07
1.04828e-07
1.04856e-07
1.04893e-07
1.04899e-07
1.04875e-07
1.04906e-07
1.04946e-07
1.04994e-07
1.05042e-07
1.05091e-07
1.0512e-07
1.05145e-07
1.05197e-07
1.05277e-07
1.05352e-07
1.05446e-07
1.0556e-07
1.0569e-07
1.05857e-07
1.06023e-07
1.06479e-07
1.06545e-07
1.08214e-07
3.34071e-07
9.69039e-10
1.20767e-07
1.15309e-07
1.12345e-07
1.1055e-07
1.09328e-07
1.08454e-07
1.07786e-07
1.07275e-07
1.06859e-07
1.06532e-07
1.06249e-07
1.06025e-07
1.05823e-07
1.0566e-07
1.05516e-07
1.054e-07
1.05289e-07
1.05202e-07
1.05115e-07
1.05048e-07
1.04978e-07
1.04926e-07
1.04875e-07
1.04838e-07
1.04794e-07
1.04768e-07
1.04737e-07
1.04719e-07
1.04689e-07
1.04684e-07
1.04677e-07
1.04666e-07
1.04653e-07
1.04642e-07
1.04625e-07
1.0462e-07
1.04617e-07
1.04607e-07
1.04601e-07
1.04591e-07
1.04575e-07
1.04568e-07
1.04565e-07
1.04555e-07
1.04545e-07
1.04535e-07
1.04531e-07
1.04514e-07
1.04516e-07
1.0451e-07
1.04502e-07
1.04507e-07
1.04506e-07
1.04506e-07
1.04495e-07
1.04518e-07
1.04504e-07
1.04498e-07
1.04488e-07
1.04505e-07
1.04504e-07
1.04504e-07
1.04527e-07
1.04548e-07
1.04548e-07
1.04548e-07
1.04571e-07
1.04595e-07
1.04595e-07
1.04573e-07
1.04607e-07
1.04657e-07
1.04685e-07
1.04721e-07
1.04729e-07
1.04705e-07
1.04736e-07
1.04776e-07
1.04823e-07
1.04872e-07
1.04921e-07
1.0495e-07
1.04976e-07
1.05028e-07
1.05108e-07
1.05183e-07
1.05277e-07
1.05392e-07
1.05521e-07
1.05689e-07
1.05854e-07
1.06311e-07
1.06375e-07
1.08071e-07
3.41623e-07
1.03989e-09
1.20818e-07
1.15355e-07
1.12362e-07
1.10539e-07
1.09294e-07
1.084e-07
1.07716e-07
1.07192e-07
1.06764e-07
1.06427e-07
1.06136e-07
1.05905e-07
1.05696e-07
1.05528e-07
1.0538e-07
1.05259e-07
1.05145e-07
1.05054e-07
1.04964e-07
1.04895e-07
1.04822e-07
1.04768e-07
1.04715e-07
1.04676e-07
1.04631e-07
1.04603e-07
1.04571e-07
1.04551e-07
1.0452e-07
1.04514e-07
1.04506e-07
1.04494e-07
1.04481e-07
1.04469e-07
1.04451e-07
1.04446e-07
1.04442e-07
1.04431e-07
1.04425e-07
1.04414e-07
1.04398e-07
1.04391e-07
1.04387e-07
1.04377e-07
1.04367e-07
1.04357e-07
1.04352e-07
1.04334e-07
1.04336e-07
1.0433e-07
1.04321e-07
1.04326e-07
1.04325e-07
1.04324e-07
1.04313e-07
1.04336e-07
1.04322e-07
1.04315e-07
1.04306e-07
1.04322e-07
1.04321e-07
1.04321e-07
1.04344e-07
1.04365e-07
1.04365e-07
1.04364e-07
1.04387e-07
1.04412e-07
1.04412e-07
1.04389e-07
1.04423e-07
1.04473e-07
1.04502e-07
1.04538e-07
1.04547e-07
1.04522e-07
1.04553e-07
1.04593e-07
1.0464e-07
1.04689e-07
1.04738e-07
1.04768e-07
1.04795e-07
1.04847e-07
1.04926e-07
1.05002e-07
1.05095e-07
1.05211e-07
1.0534e-07
1.05509e-07
1.05672e-07
1.0613e-07
1.06191e-07
1.07916e-07
3.49709e-07
1.11775e-09
1.20872e-07
1.15406e-07
1.12382e-07
1.10528e-07
1.09258e-07
1.08343e-07
1.07642e-07
1.07103e-07
1.06663e-07
1.06316e-07
1.06016e-07
1.05777e-07
1.05562e-07
1.05388e-07
1.05234e-07
1.05109e-07
1.04991e-07
1.04897e-07
1.04803e-07
1.04731e-07
1.04655e-07
1.04599e-07
1.04544e-07
1.04503e-07
1.04456e-07
1.04426e-07
1.04393e-07
1.04372e-07
1.04339e-07
1.04332e-07
1.04323e-07
1.0431e-07
1.04296e-07
1.04283e-07
1.04265e-07
1.04259e-07
1.04255e-07
1.04243e-07
1.04236e-07
1.04226e-07
1.04209e-07
1.04201e-07
1.04197e-07
1.04186e-07
1.04176e-07
1.04165e-07
1.04161e-07
1.04142e-07
1.04144e-07
1.04137e-07
1.04128e-07
1.04132e-07
1.04131e-07
1.0413e-07
1.04118e-07
1.04141e-07
1.04127e-07
1.0412e-07
1.0411e-07
1.04126e-07
1.04126e-07
1.04125e-07
1.04147e-07
1.04168e-07
1.04168e-07
1.04168e-07
1.0419e-07
1.04215e-07
1.04215e-07
1.04192e-07
1.04225e-07
1.04276e-07
1.04306e-07
1.04341e-07
1.04352e-07
1.04327e-07
1.04357e-07
1.04397e-07
1.04444e-07
1.04493e-07
1.04543e-07
1.04573e-07
1.046e-07
1.04652e-07
1.04731e-07
1.04808e-07
1.049e-07
1.05017e-07
1.05145e-07
1.05316e-07
1.05477e-07
1.05936e-07
1.05995e-07
1.0775e-07
3.58307e-07
1.20341e-09
1.20929e-07
1.1546e-07
1.12403e-07
1.10518e-07
1.09221e-07
1.08283e-07
1.07564e-07
1.07009e-07
1.06556e-07
1.06198e-07
1.05888e-07
1.05642e-07
1.05419e-07
1.05239e-07
1.0508e-07
1.0495e-07
1.04827e-07
1.04729e-07
1.04632e-07
1.04557e-07
1.04478e-07
1.0442e-07
1.04362e-07
1.04319e-07
1.0427e-07
1.04238e-07
1.04203e-07
1.04181e-07
1.04147e-07
1.04139e-07
1.04128e-07
1.04114e-07
1.041e-07
1.04086e-07
1.04067e-07
1.0406e-07
1.04055e-07
1.04043e-07
1.04036e-07
1.04024e-07
1.04007e-07
1.03999e-07
1.03995e-07
1.03983e-07
1.03973e-07
1.03961e-07
1.03956e-07
1.03938e-07
1.03939e-07
1.03932e-07
1.03922e-07
1.03926e-07
1.03924e-07
1.03923e-07
1.03911e-07
1.03934e-07
1.03919e-07
1.03911e-07
1.03901e-07
1.03918e-07
1.03917e-07
1.03916e-07
1.03938e-07
1.03959e-07
1.03959e-07
1.03958e-07
1.03981e-07
1.04006e-07
1.04006e-07
1.03983e-07
1.04015e-07
1.04066e-07
1.04096e-07
1.04131e-07
1.04143e-07
1.04118e-07
1.04148e-07
1.04188e-07
1.04234e-07
1.04284e-07
1.04334e-07
1.04365e-07
1.04393e-07
1.04445e-07
1.04523e-07
1.046e-07
1.04693e-07
1.0481e-07
1.04937e-07
1.0511e-07
1.05269e-07
1.05728e-07
1.05785e-07
1.07572e-07
3.67382e-07
1.29775e-09
1.20989e-07
1.15518e-07
1.12427e-07
1.10509e-07
1.09183e-07
1.08222e-07
1.07482e-07
1.06911e-07
1.06444e-07
1.06073e-07
1.05754e-07
1.05498e-07
1.05268e-07
1.05081e-07
1.04916e-07
1.04781e-07
1.04653e-07
1.04551e-07
1.0445e-07
1.04372e-07
1.04291e-07
1.0423e-07
1.04169e-07
1.04124e-07
1.04073e-07
1.04039e-07
1.04002e-07
1.03978e-07
1.03944e-07
1.03933e-07
1.03921e-07
1.03906e-07
1.03891e-07
1.03876e-07
1.03856e-07
1.03849e-07
1.03843e-07
1.03831e-07
1.03822e-07
1.03811e-07
1.03793e-07
1.03785e-07
1.03779e-07
1.03768e-07
1.03757e-07
1.03745e-07
1.0374e-07
1.0372e-07
1.03721e-07
1.03714e-07
1.03703e-07
1.03706e-07
1.03704e-07
1.03704e-07
1.03691e-07
1.03714e-07
1.03698e-07
1.0369e-07
1.0368e-07
1.03696e-07
1.03695e-07
1.03694e-07
1.03716e-07
1.03736e-07
1.03736e-07
1.03736e-07
1.03758e-07
1.03783e-07
1.03784e-07
1.0376e-07
1.03791e-07
1.03843e-07
1.03874e-07
1.03908e-07
1.03922e-07
1.03897e-07
1.03926e-07
1.03966e-07
1.04012e-07
1.04062e-07
1.04112e-07
1.04144e-07
1.04172e-07
1.04225e-07
1.04302e-07
1.0438e-07
1.04472e-07
1.0459e-07
1.04716e-07
1.0489e-07
1.05047e-07
1.05507e-07
1.05561e-07
1.07381e-07
3.7689e-07
1.40184e-09
1.21051e-07
1.15579e-07
1.12454e-07
1.105e-07
1.09144e-07
1.08157e-07
1.07397e-07
1.06808e-07
1.06326e-07
1.05943e-07
1.05612e-07
1.05348e-07
1.05109e-07
1.04915e-07
1.04744e-07
1.04603e-07
1.0447e-07
1.04364e-07
1.04259e-07
1.04177e-07
1.04092e-07
1.04028e-07
1.03965e-07
1.03918e-07
1.03864e-07
1.03829e-07
1.03789e-07
1.03764e-07
1.03728e-07
1.03716e-07
1.03702e-07
1.03686e-07
1.0367e-07
1.03655e-07
1.03634e-07
1.03625e-07
1.03619e-07
1.03606e-07
1.03596e-07
1.03584e-07
1.03567e-07
1.03557e-07
1.03552e-07
1.03539e-07
1.03528e-07
1.03516e-07
1.0351e-07
1.0349e-07
1.0349e-07
1.03483e-07
1.03471e-07
1.03474e-07
1.03472e-07
1.03471e-07
1.03457e-07
1.0348e-07
1.03464e-07
1.03455e-07
1.03445e-07
1.03461e-07
1.0346e-07
1.03459e-07
1.03481e-07
1.035e-07
1.035e-07
1.035e-07
1.03522e-07
1.03547e-07
1.03548e-07
1.03523e-07
1.03553e-07
1.03607e-07
1.03638e-07
1.03671e-07
1.03687e-07
1.03662e-07
1.03691e-07
1.0373e-07
1.03776e-07
1.03826e-07
1.03876e-07
1.0391e-07
1.03938e-07
1.03991e-07
1.04068e-07
1.04146e-07
1.04237e-07
1.04356e-07
1.04481e-07
1.04657e-07
1.04812e-07
1.05272e-07
1.05323e-07
1.07178e-07
3.86774e-07
1.51683e-09
1.21116e-07
1.15644e-07
1.12483e-07
1.10493e-07
1.09105e-07
1.08091e-07
1.07308e-07
1.06701e-07
1.06203e-07
1.05806e-07
1.05464e-07
1.05189e-07
1.04942e-07
1.04741e-07
1.04562e-07
1.04415e-07
1.04278e-07
1.04166e-07
1.04057e-07
1.03971e-07
1.03883e-07
1.03816e-07
1.0375e-07
1.037e-07
1.03644e-07
1.03606e-07
1.03565e-07
1.03538e-07
1.035e-07
1.03486e-07
1.03471e-07
1.03454e-07
1.03436e-07
1.0342e-07
1.03398e-07
1.03389e-07
1.03382e-07
1.03368e-07
1.03358e-07
1.03345e-07
1.03327e-07
1.03317e-07
1.03311e-07
1.03298e-07
1.03286e-07
1.03273e-07
1.03267e-07
1.03247e-07
1.03246e-07
1.03239e-07
1.03226e-07
1.03228e-07
1.03226e-07
1.03225e-07
1.03211e-07
1.03233e-07
1.03217e-07
1.03208e-07
1.03197e-07
1.03213e-07
1.03212e-07
1.03211e-07
1.03232e-07
1.03251e-07
1.03251e-07
1.03251e-07
1.03272e-07
1.03298e-07
1.03298e-07
1.03273e-07
1.03302e-07
1.03357e-07
1.03388e-07
1.03421e-07
1.03438e-07
1.03414e-07
1.03442e-07
1.03481e-07
1.03526e-07
1.03577e-07
1.03627e-07
1.03661e-07
1.03691e-07
1.03743e-07
1.03819e-07
1.03898e-07
1.03989e-07
1.04109e-07
1.04233e-07
1.0441e-07
1.04563e-07
1.05023e-07
1.05071e-07
1.06962e-07
3.9696e-07
1.64403e-09
1.21183e-07
1.15714e-07
1.12516e-07
1.10487e-07
1.09065e-07
1.08024e-07
1.07217e-07
1.0659e-07
1.06075e-07
1.05664e-07
1.05309e-07
1.05024e-07
1.04768e-07
1.04558e-07
1.04372e-07
1.04219e-07
1.04075e-07
1.03959e-07
1.03845e-07
1.03755e-07
1.03664e-07
1.03593e-07
1.03524e-07
1.03471e-07
1.03412e-07
1.03372e-07
1.03329e-07
1.033e-07
1.0326e-07
1.03245e-07
1.03228e-07
1.0321e-07
1.03191e-07
1.03174e-07
1.03151e-07
1.0314e-07
1.03132e-07
1.03117e-07
1.03107e-07
1.03093e-07
1.03074e-07
1.03064e-07
1.03057e-07
1.03044e-07
1.03031e-07
1.03018e-07
1.03012e-07
1.02991e-07
1.0299e-07
1.02981e-07
1.02968e-07
1.02969e-07
1.02967e-07
1.02966e-07
1.02951e-07
1.02973e-07
1.02957e-07
1.02946e-07
1.02936e-07
1.02951e-07
1.02951e-07
1.02949e-07
1.0297e-07
1.02988e-07
1.02988e-07
1.02988e-07
1.03009e-07
1.03035e-07
1.03035e-07
1.0301e-07
1.03038e-07
1.03093e-07
1.03125e-07
1.03157e-07
1.03176e-07
1.03152e-07
1.03179e-07
1.03219e-07
1.03263e-07
1.03314e-07
1.03364e-07
1.03399e-07
1.03429e-07
1.03482e-07
1.03557e-07
1.03637e-07
1.03727e-07
1.03847e-07
1.0397e-07
1.04149e-07
1.043e-07
1.0476e-07
1.04804e-07
1.06732e-07
4.07362e-07
1.78491e-09
1.21253e-07
1.15787e-07
1.12551e-07
1.10482e-07
1.09025e-07
1.07954e-07
1.07122e-07
1.06474e-07
1.05942e-07
1.05515e-07
1.05148e-07
1.04851e-07
1.04585e-07
1.04366e-07
1.04173e-07
1.04013e-07
1.03864e-07
1.03742e-07
1.03623e-07
1.03529e-07
1.03434e-07
1.03359e-07
1.03286e-07
1.03231e-07
1.03169e-07
1.03127e-07
1.03081e-07
1.0305e-07
1.03009e-07
1.02991e-07
1.02972e-07
1.02953e-07
1.02933e-07
1.02915e-07
1.0289e-07
1.02879e-07
1.0287e-07
1.02854e-07
1.02842e-07
1.02829e-07
1.02809e-07
1.02798e-07
1.0279e-07
1.02777e-07
1.02764e-07
1.02749e-07
1.02743e-07
1.02721e-07
1.0272e-07
1.02711e-07
1.02697e-07
1.02697e-07
1.02694e-07
1.02693e-07
1.02678e-07
1.027e-07
1.02683e-07
1.02672e-07
1.02661e-07
1.02676e-07
1.02676e-07
1.02674e-07
1.02694e-07
1.02712e-07
1.02712e-07
1.02711e-07
1.02732e-07
1.02759e-07
1.02759e-07
1.02733e-07
1.0276e-07
1.02816e-07
1.02848e-07
1.0288e-07
1.029e-07
1.02876e-07
1.02903e-07
1.02942e-07
1.02986e-07
1.03037e-07
1.03087e-07
1.03124e-07
1.03154e-07
1.03207e-07
1.03282e-07
1.03361e-07
1.03451e-07
1.03572e-07
1.03694e-07
1.03873e-07
1.04023e-07
1.04482e-07
1.04523e-07
1.06488e-07
4.17876e-07
1.94113e-09
1.21325e-07
1.15865e-07
1.1259e-07
1.10479e-07
1.08986e-07
1.07883e-07
1.07025e-07
1.06355e-07
1.05804e-07
1.05361e-07
1.0498e-07
1.04671e-07
1.04395e-07
1.04167e-07
1.03965e-07
1.03798e-07
1.03642e-07
1.03515e-07
1.03391e-07
1.03292e-07
1.03193e-07
1.03115e-07
1.03038e-07
1.02979e-07
1.02915e-07
1.0287e-07
1.02822e-07
1.02789e-07
1.02745e-07
1.02725e-07
1.02704e-07
1.02684e-07
1.02662e-07
1.02643e-07
1.02617e-07
1.02604e-07
1.02595e-07
1.02578e-07
1.02565e-07
1.02551e-07
1.02531e-07
1.02519e-07
1.0251e-07
1.02496e-07
1.02483e-07
1.02468e-07
1.02461e-07
1.02439e-07
1.02436e-07
1.02427e-07
1.02412e-07
1.02412e-07
1.02408e-07