/*--------------------------------*- C++ -*----------------------------------*\
| =========                 |                                                 |
| \\      /  F ield         | OpenFOAM: The Open Source CFD Toolbox           |
|  \\    /   O peration     | Version:  v2012                                 |
|   \\  /    A nd           | Website:  www.openfoam.com                      |
|    \\/     M anipulation  |                                                 |
\*---------------------------------------------------------------------------*/
FoamFile
{
    version     2.0;
    format      ascii;
    class       volScalarField;
    location    "7.5";
    object      yPlus;
}
// * * * * * * * * * * * * * * * * * * * * * * * * * * * * * * * * * * * * * //

dimensions      [0 0 0 0 0 0 0];


internalField   uniform 0;

boundaryField
{
    inlet
    {
        type            calculated;
        value           uniform 0;
    }
    outlet
    {
        type            calculated;
        value           uniform 0;
    }
    topWall
    {
        type            calculated;
        value           nonuniform List<scalar> 
545
(
0.073386
0.127249
0.163052
0.19146
0.215476
0.236461
0.255178
0.272104
0.287564
0.301794
0.314968
0.327225
0.338671
0.349396
0.359473
0.368964
0.377919
0.386386
0.394403
0.402005
0.409223
0.416082
0.422609
0.428825
0.434749
0.440401
0.445796
0.450949
0.455875
0.460586
0.465094
0.46941
0.473545
0.477507
0.481305
0.484948
0.488444
0.491799
0.495021
0.498115
0.501089
0.503946
0.506694
0.509336
0.511877
0.514322
0.516676
0.518941
0.521122
0.523223
0.525247
0.527196
0.529075
0.530886
0.532632
0.534315
0.535939
0.537504
0.539015
0.540472
0.541878
0.543235
0.544544
0.545809
0.547029
0.548207
0.549345
0.550444
0.551506
0.552531
0.553521
0.554478
0.555388
0.556267
0.557136
0.557996
0.558847
0.559689
0.560522
0.561347
0.562162
0.562969
0.563768
0.564558
0.565339
0.566113
0.566878
0.567635
0.568384
0.569126
0.569859
0.570585
0.571303
0.572014
0.572716
0.573415
0.574029
0.574575
0.57512
0.575664
0.576207
0.576749
0.577289
0.577828
0.578366
0.578903
0.579439
0.579974
0.580507
0.581039
0.58157
0.582099
0.582627
0.583154
0.58368
0.584204
0.584728
0.585249
0.58577
0.586289
0.586807
0.587323
0.587838
0.588352
0.588864
0.589375
0.589884
0.590392
0.590899
0.591404
0.591908
0.59241
0.592911
0.593411
0.593908
0.594405
0.5949
0.595393
0.595885
0.596375
0.596864
0.597351
0.597837
0.598321
0.598803
0.599284
0.599763
0.60024
0.600716
0.601191
0.601663
0.602134
0.602603
0.603071
0.603537
0.604001
0.604463
0.604924
0.605383
0.60584
0.606296
0.606749
0.607201
0.607651
0.608099
0.608546
0.60899
0.609433
0.609873
0.610312
0.610749
0.611185
0.611618
0.612049
0.612478
0.612906
0.613331
0.613755
0.614176
0.614595
0.615013
0.615428
0.615842
0.616253
0.616662
0.617069
0.617474
0.617877
0.618278
0.618677
0.619074
0.619468
0.61986
0.62025
0.620638
0.621024
0.621408
0.621789
0.622168
0.622545
0.622919
0.623291
0.623661
0.624029
0.624394
0.624757
0.625118
0.625476
0.625832
0.626185
0.626536
0.626885
0.627231
0.627575
0.627916
0.628255
0.628591
0.628925
0.629256
0.629585
0.629912
0.630235
0.630556
0.630875
0.631191
0.631504
0.631815
0.632123
0.632429
0.632732
0.633032
0.633329
0.633624
0.633916
0.634206
0.634492
0.634776
0.635057
0.635336
0.635611
0.635884
0.636154
0.636421
0.636685
0.636946
0.637205
0.63746
0.637713
0.637963
0.63821
0.638454
0.638695
0.638933
0.639168
0.6394
0.639629
0.639855
0.640078
0.640298
0.640515
0.640728
0.640939
0.641147
0.641351
0.641553
0.641751
0.641946
0.642137
0.642328
0.642496
0.642651
0.642805
0.642959
0.643112
0.643264
0.643415
0.643565
0.643714
0.643862
0.644009
0.644155
0.6443
0.644443
0.644585
0.644725
0.644864
0.645001
0.645136
0.645269
0.645401
0.64553
0.645657
0.645782
0.645904
0.646024
0.646141
0.646256
0.646368
0.646477
0.646583
0.646686
0.646785
0.646882
0.646974
0.647063
0.647148
0.64723
0.647307
0.64738
0.647449
0.647513
0.647573
0.647628
0.647678
0.647723
0.647763
0.647797
0.647826
0.647849
0.647866
0.647878
0.647883
0.647881
0.647873
0.647859
0.647837
0.647809
0.647773
0.647729
0.647678
0.647619
0.647552
0.647476
0.647392
0.647299
0.647198
0.647087
0.646967
0.646837
0.646698
0.646548
0.646389
0.646219
0.646038
0.645846
0.645643
0.645428
0.645202
0.644964
0.644714
0.644452
0.644176
0.643888
0.643587
0.643273
0.642944
0.642602
0.642246
0.641875
0.641489
0.641089
0.640673
0.640242
0.639795
0.639332
0.638853
0.638357
0.637845
0.637315
0.636768
0.636204
0.635621
0.635021
0.634401
0.633764
0.633107
0.632432
0.631736
0.631022
0.630287
0.629532
0.628757
0.627961
0.627144
0.626306
0.625446
0.624565
0.623662
0.622738
0.62179
0.620821
0.619829
0.618814
0.617775
0.616715
0.615629
0.614522
0.613389
0.612234
0.611053
0.60985
0.608621
0.607369
0.60609
0.604789
0.603461
0.602111
0.600733
0.599332
0.597905
0.596454
0.594976
0.593475
0.591947
0.590396
0.588818
0.587216
0.585588
0.583937
0.582259
0.580558
0.578831
0.577081
0.575305
0.573507
0.571682
0.569837
0.567965
0.566072
0.564154
0.562216
0.560253
0.55827
0.556263
0.554237
0.552187
0.550118
0.548027
0.545919
0.543788
0.54164
0.539471
0.537286
0.535081
0.532861
0.530621
0.528368
0.526096
0.523812
0.521508
0.518942
0.516128
0.513336
0.51056
0.507806
0.505069
0.502356
0.499662
0.496992
0.494342
0.491718
0.489115
0.486538
0.483983
0.481455
0.478951
0.476474
0.474021
0.471596
0.469195
0.466824
0.464477
0.46216
0.459868
0.457605
0.455368
0.453162
0.450981
0.448831
0.446707
0.444613
0.442547
0.440511
0.438503
0.436525
0.434575
0.432655
0.430764
0.428903
0.427071
0.425269
0.423497
0.421755
0.420042
0.41836
0.416708
0.415086
0.413494
0.411933
0.410401
0.408901
0.40743
0.405991
0.40458
0.403204
0.401854
0.400539
0.39925
0.397997
0.39677
0.395579
0.394414
0.393285
0.392182
0.391115
0.390075
0.389071
0.388093
0.387152
0.386237
0.38536
0.384508
0.383694
0.382906
0.382155
0.381431
0.380744
0.380084
0.379461
0.378866
0.378308
0.377779
0.377286
0.376823
0.376397
0.376
0.375641
0.375311
0.375018
0.374754
0.374524
0.374323
0.374149
0.374029
0.373855
)
;
    }
    bottomWall
    {
        type            calculated;
        value           nonuniform List<scalar> 
449
(
0.00279302
0.00481671
0.00545463
0.00540397
0.00528749
0.00511269
0.00493737
0.00478015
0.00464456
0.00452676
0.00442423
0.00433364
0.004253
0.00418127
0.00411836
0.00405981
0.00400742
0.00395932
0.00391431
0.00387322
0.00383551
0.00379985
0.00376763
0.00373589
0.00370707
0.00368079
0.00365615
0.00363274
0.00361079
0.00358874
0.00356843
0.00355002
0.00353229
0.00351534
0.00349873
0.00348252
0.0034677
0.00345321
0.00343921
0.00342653
0.00341451
0.00340311
0.0033919
0.00338103
0.00337077
0.00336051
0.0033502
0.0033404
0.00333049
0.00332133
0.0033127
0.00330419
0.00329531
0.00328744
0.00328035
0.00327284
0.0032659
0.00325856
0.00325216
0.0032453
0.00323881
0.00323236
0.00322585
0.00322021
0.00321499
0.00320959
0.00320407
0.00319904
0.00319446
0.00318928
0.00318416
0.00317963
0.0031754
0.00317101
0.00316616
0.00316191
0.00315667
0.00315179
0.003147
0.00314281
0.00313883
0.00313498
0.00313082
0.00312657
0.00312252
0.00311887
0.00311614
0.00311343
0.00310947
0.00310576
0.00310172
0.00309775
0.00309412
0.0030903
0.00308686
0.00308437
0.00308152
0.00307838
0.00307508
0.00307175
0.00306861
0.00306547
0.00306219
0.00305973
0.0030576
0.00305558
0.00305385
0.00305233
0.00304979
0.00304718
0.00304426
0.00304111
0.00303852
0.0030355
0.00303339
0.0030316
0.00302985
0.00302752
0.0030254
0.00302404
0.00302245
0.00302017
0.00301803
0.00301564
0.00301284
0.00301035
0.00300859
0.00300665
0.00300529
0.00300394
0.00300243
0.0030005
0.00299852
0.0029971
0.00299508
0.00299305
0.00299142
0.00298955
0.00298811
0.00298651
0.00298469
0.00298334
0.00298248
0.00298135
0.00297983
0.00297881
0.0029776
0.00297606
0.00297462
0.0029731
0.0029712
0.00296969
0.00296803
0.00296618
0.00296498
0.0029639
0.00296251
0.00296132
0.00296065
0.00296002
0.00295892
0.00295797
0.00295684
0.0029552
0.00295431
0.0029535
0.002952
0.00295097
0.00295018
0.00294909
0.00294817
0.00294783
0.00294741
0.00294675
0.00294572
0.00294448
0.00294342
0.00294262
0.00294215
0.00294166
0.00294099
0.00294076
0.00294046
0.00293939
0.00293835
0.00293781
0.00293735
0.00293702
0.00293636
0.00293512
0.00293443
0.00293399
0.00293334
0.00293234
0.00293181
0.00293137
0.00293114
0.00293077
0.00293009
0.00292946
0.00292863
0.00292779
0.00292674
0.00292607
0.0029256
0.0029253
0.00292467
0.00292378
0.00292301
0.00292161
0.0029204
0.00291975
0.00291939
0.00291861
0.00291748
0.0029165
0.00291561
0.00291517
0.00291461
0.00291373
0.00291324
0.0029129
0.00291253
0.00291188
0.00291131
0.0029108
0.00291022
0.00290974
0.00290933
0.00290902
0.00290855
0.00290832
0.00290812
0.00290734
0.0029064
0.00290574
0.00290473
0.00290403
0.00290371
0.00290331
0.00290257
0.00290177
0.00290096
0.0029001
0.00289955
0.00289918
0.00289868
0.00289793
0.00289768
0.00289746
0.00289676
0.00289566
0.0028946
0.0028938
0.00289323
0.00289273
0.00289244
0.00289212
0.00289107
0.00288978
0.00288931
0.00288914
0.00288882
0.00288816
0.0028877
0.00288684
0.00288608
0.00288571
0.00288538
0.00288459
0.00288382
0.00288301
0.00288253
0.00288221
0.00288147
0.00288063
0.00288008
0.0028793
0.00287845
0.00287805
0.00287755
0.00287702
0.00287631
0.00287595
0.00287548
0.00287467
0.00287414
0.00287379
0.00287337
0.00287261
0.00287184
0.00287118
0.00287015
0.00286927
0.00286878
0.00286785
0.00286719
0.00286686
0.00286649
0.00286638
0.00286605
0.00286552
0.00286532
0.00286496
0.0028639
0.00286286
0.00286206
0.00286129
0.00286088
0.00286066
0.00286016
0.00285965
0.00285941
0.00285874
0.00285787
0.00285755
0.0028572
0.00285685
0.00285661
0.00285605
0.00285574
0.00285529
0.00285434
0.00285363
0.00285339
0.0028529
0.00285243
0.00285211
0.00285157
0.0028511
0.00285034
0.00284947
0.00284904
0.00284913
0.00284905
0.00284873
0.00284812
0.00284784
0.0028477
0.00284736
0.0028473
0.00284701
0.00284625
0.00284551
0.00284488
0.00284474
0.00284453
0.00284402
0.00284376
0.00284374
0.00284357
0.00284348
0.00284337
0.00284296
0.00284285
0.00284237
0.00284153
0.00284103
0.00284052
0.00283986
0.00283919
0.00283878
0.00283865
0.00283864
0.00283853
0.0028385
0.0028383
0.00283819
0.002838
0.00283752
0.00283704
0.00283684
0.00283673
0.00283653
0.00283653
0.00283649
0.00283605
0.00283567
0.00283528
0.00283504
0.0028349
0.00283482
0.00283473
0.00283447
0.0028341
0.00283375
0.00283367
0.00283348
0.0028336
0.00283376
0.00283364
0.00283363
0.00283342
0.00283312
0.00283286
0.00283266
0.00283245
0.00283239
0.0028323
0.00283249
0.00283267
0.00283277
0.00283261
0.00283264
0.00283271
0.00283254
0.00283227
0.00283186
0.00283179
0.0028316
0.00283111
0.00283115
0.00283113
0.00283099
0.00283114
0.00283141
0.00283166
0.00283159
0.00283127
0.00283101
0.0028307
0.00283044
0.00283042
0.0028304
0.00283055
0.00283081
0.0028307
0.00283075
0.00283066
0.00283017
0.00282968
0.00282953
0.00282935
0.0028293
0.00282924
0.00282943
0.00282956
0.00282933
0.00282918
0.00282916
0.00282927
0.00282933
0.00282943
0.00282937
0.00282907
0.00282895
0.00282887
0.00282885
0.00282886
)
;
    }
    symmetry
    {
        type            symmetryPlane;
    }
    frontAndBack
    {
        type            empty;
    }
}


// ************************************************************************* //
