/*--------------------------------*- C++ -*----------------------------------*\
| =========                 |                                                 |
| \\      /  F ield         | OpenFOAM: The Open Source CFD Toolbox           |
|  \\    /   O peration     | Version:  v2012                                 |
|   \\  /    A nd           | Website:  www.openfoam.com                      |
|    \\/     M anipulation  |                                                 |
\*---------------------------------------------------------------------------*/
FoamFile
{
    version     2.0;
    format      ascii;
    class       volScalarField;
    location    "15.5";
    object      k;
}
// * * * * * * * * * * * * * * * * * * * * * * * * * * * * * * * * * * * * * //

dimensions      [0 2 -2 0 0 0 0];


internalField   nonuniform List<scalar> 
209825
(
0.00101908
0.000948399
0.00090973
0.000886869
0.000872016
0.000861709
0.000854168
0.000848485
0.000844064
0.000840574
0.000837753
0.000835457
0.000833551
0.000831966
0.000830623
0.000829491
0.000828512
0.000827673
0.000826944
0.000826321
0.000825761
0.000825278
0.000824844
0.000824479
0.00082413
0.000823829
0.000823558
0.000823334
0.000823112
0.000822927
0.000822754
0.000822627
0.000822454
0.000822331
0.000822231
0.000822159
0.000822059
0.000821988
0.00082193
0.000821884
0.000821792
0.000821754
0.000821732
0.000821695
0.000821586
0.000821663
0.000821663
0.000821663
0.000821663
0.000821658
0.000821613
0.000821727
0.000821727
0.000821727
0.000821721
0.000821848
0.000821935
0.000821935
0.000822101
0.000822119
0.000822119
0.000822207
0.000822404
0.000822606
0.000822712
0.000822812
0.0008229
0.000823068
0.000823243
0.000823479
0.000823619
0.000823791
0.00082396
0.000824198
0.000824354
0.0008246
0.000824822
0.000825114
0.000825307
0.000825608
0.000825849
0.000826237
0.000826513
0.000827006
0.000827324
0.00082792
0.00082828
0.000829045
0.000829488
0.000830481
0.000831008
0.000832821
0.000833119
0.000845384
0.000901935
0.00233115
0.00101908
0.000948395
0.00090972
0.000886854
0.000871999
0.000861688
0.000854146
0.000848462
0.000844039
0.000840547
0.000837726
0.000835429
0.000833523
0.000831937
0.000830594
0.000829462
0.000828482
0.000827643
0.000826913
0.00082629
0.00082573
0.000825246
0.000824813
0.000824448
0.000824098
0.000823797
0.000823526
0.000823302
0.00082308
0.000822895
0.000822722
0.000822595
0.000822421
0.000822298
0.000822199
0.000822127
0.000822026
0.000821956
0.000821897
0.000821852
0.000821759
0.000821722
0.000821699
0.000821663
0.000821553
0.00082163
0.00082163
0.00082163
0.00082163
0.000821625
0.00082158
0.000821694
0.000821694
0.000821693
0.000821688
0.000821815
0.000821902
0.000821902
0.000822068
0.000822086
0.000822086
0.000822174
0.000822371
0.000822573
0.000822679
0.000822779
0.000822867
0.000823035
0.00082321
0.000823445
0.000823585
0.000823758
0.000823927
0.000824165
0.000824321
0.000824567
0.000824789
0.000825081
0.000825275
0.000825575
0.000825816
0.000826204
0.00082648
0.000826973
0.000827291
0.000827888
0.000828247
0.000829013
0.000829455
0.000830448
0.000830975
0.000832789
0.000833086
0.000845374
0.000901947
0.0023326
0.00101908
0.000948372
0.000909674
0.000886791
0.000871922
0.000861603
0.000854053
0.000848363
0.000843935
0.00084044
0.000837615
0.000835316
0.000833408
0.00083182
0.000830475
0.000829341
0.00082836
0.00082752
0.00082679
0.000826166
0.000825605
0.000825121
0.000824686
0.000824321
0.000823971
0.000823669
0.000823398
0.000823174
0.000822951
0.000822766
0.000822592
0.000822465
0.000822291
0.000822168
0.000822068
0.000821996
0.000821896
0.000821825
0.000821766
0.000821721
0.000821628
0.00082159
0.000821568
0.000821531
0.000821421
0.000821498
0.000821498
0.000821499
0.000821498
0.000821493
0.000821448
0.000821561
0.000821562
0.000821561
0.000821556
0.000821683
0.00082177
0.00082177
0.000821936
0.000821954
0.000821953
0.000822042
0.000822238
0.00082244
0.000822547
0.000822647
0.000822735
0.000822903
0.000823078
0.000823313
0.000823453
0.000823626
0.000823795
0.000824033
0.000824189
0.000824435
0.000824657
0.000824949
0.000825143
0.000825443
0.000825684
0.000826072
0.000826348
0.000826841
0.000827159
0.000827756
0.000828115
0.00082888
0.000829323
0.000830316
0.000830843
0.000832656
0.000832951
0.000845288
0.000901897
0.00233543
0.00101908
0.000948332
0.000909596
0.000886683
0.000871793
0.000861458
0.000853896
0.000848196
0.000843761
0.00084026
0.00083743
0.000835126
0.000833214
0.000831623
0.000830275
0.00082914
0.000828156
0.000827314
0.000826582
0.000825957
0.000825395
0.00082491
0.000824474
0.000824108
0.000823757
0.000823454
0.000823183
0.000822958
0.000822735
0.000822549
0.000822375
0.000822248
0.000822073
0.00082195
0.00082185
0.000821777
0.000821676
0.000821605
0.000821547
0.000821501
0.000821408
0.00082137
0.000821347
0.00082131
0.000821201
0.000821277
0.000821277
0.000821277
0.000821277
0.000821272
0.000821227
0.00082134
0.00082134
0.00082134
0.000821334
0.000821461
0.000821548
0.000821548
0.000821714
0.000821732
0.000821731
0.00082182
0.000822016
0.000822218
0.000822325
0.000822426
0.000822513
0.000822681
0.000822856
0.000823091
0.000823232
0.000823405
0.000823573
0.000823811
0.000823967
0.000824213
0.000824435
0.000824727
0.000824921
0.000825222
0.000825462
0.00082585
0.000826126
0.000826619
0.000826938
0.000827534
0.000827893
0.000828658
0.0008291
0.000830093
0.00083062
0.000832433
0.000832724
0.000845135
0.000901795
0.00233879
0.00101908
0.000948277
0.000909485
0.000886531
0.000871611
0.000861253
0.000853674
0.000847961
0.000843515
0.000840005
0.000837168
0.000834858
0.000832941
0.000831346
0.000829994
0.000828855
0.000827869
0.000827024
0.00082629
0.000825663
0.000825099
0.000824612
0.000824175
0.000823808
0.000823455
0.000823152
0.000822879
0.000822654
0.00082243
0.000822243
0.000822068
0.00082194
0.000821766
0.000821642
0.000821541
0.000821468
0.000821367
0.000821296
0.000821237
0.00082119
0.000821097
0.000821059
0.000821036
0.000820999
0.000820889
0.000820965
0.000820965
0.000820965
0.000820965
0.00082096
0.000820914
0.000821027
0.000821027
0.000821027
0.000821022
0.000821148
0.000821235
0.000821234
0.0008214
0.000821418
0.000821418
0.000821507
0.000821703
0.000821905
0.000822012
0.000822113
0.000822201
0.000822368
0.000822543
0.000822778
0.000822919
0.000823092
0.00082326
0.000823499
0.000823654
0.0008239
0.000824122
0.000824415
0.000824609
0.000824909
0.00082515
0.000825538
0.000825813
0.000826307
0.000826625
0.000827221
0.00082758
0.000828345
0.000828787
0.000829779
0.000830305
0.000832118
0.000832405
0.000844918
0.000901632
0.00234267
0.00101908
0.000948205
0.000909342
0.000886334
0.000871375
0.000860988
0.000853387
0.000847657
0.000843197
0.000839675
0.000836828
0.000834511
0.000832587
0.000830986
0.000829629
0.000828486
0.000827496
0.000826648
0.000825911
0.000825281
0.000824715
0.000824226
0.000823788
0.000823418
0.000823065
0.00082276
0.000822486
0.000822259
0.000822034
0.000821847
0.000821671
0.000821542
0.000821367
0.000821242
0.000821141
0.000821067
0.000820966
0.000820894
0.000820835
0.000820788
0.000820695
0.000820657
0.000820633
0.000820596
0.000820486
0.000820561
0.000820561
0.000820561
0.000820561
0.000820555
0.00082051
0.000820622
0.000820622
0.000820622
0.000820616
0.000820742
0.000820829
0.000820829
0.000820994
0.000821013
0.000821013
0.000821101
0.000821297
0.000821499
0.000821606
0.000821708
0.000821795
0.000821963
0.000822137
0.000822372
0.000822513
0.000822687
0.000822855
0.000823093
0.000823249
0.000823495
0.000823717
0.000824009
0.000824204
0.000824505
0.000824745
0.000825133
0.000825408
0.000825901
0.000826219
0.000826816
0.000827174
0.000827938
0.00082838
0.000829372
0.000829897
0.00083171
0.00083199
0.000844636
0.000901389
0.00234698
0.00101908
0.000948117
0.000909166
0.000886092
0.000871085
0.000860662
0.000853034
0.000847282
0.000842805
0.000839269
0.00083641
0.000834083
0.00083215
0.000830542
0.00082918
0.000828031
0.000827036
0.000826185
0.000825444
0.000824811
0.000824242
0.00082375
0.00082331
0.000822938
0.000822583
0.000822276
0.000822001
0.000821773
0.000821547
0.000821358
0.000821181
0.000821052
0.000820876
0.00082075
0.000820648
0.000820574
0.000820472
0.000820399
0.000820339
0.000820293
0.000820199
0.00082016
0.000820136
0.000820099
0.000819988
0.000820062
0.000820063
0.000820063
0.000820062
0.000820056
0.00082001
0.000820122
0.000820122
0.000820122
0.000820116
0.000820242
0.000820328
0.000820328
0.000820494
0.000820512
0.000820512
0.000820601
0.000820796
0.000820998
0.000821106
0.000821208
0.000821296
0.000821462
0.000821636
0.000821872
0.000822013
0.000822187
0.000822355
0.000822593
0.00082275
0.000822995
0.000823217
0.00082351
0.000823704
0.000824005
0.000824245
0.000824633
0.000824908
0.000825402
0.000825719
0.000826315
0.000826674
0.000827437
0.000827879
0.00082887
0.000829393
0.000831206
0.000831479
0.000844288
0.000901059
0.00235155
0.00101908
0.000948012
0.000908957
0.000885804
0.00087074
0.000860274
0.000852613
0.000846835
0.000842337
0.000838784
0.000835912
0.000833573
0.00083163
0.000830014
0.000828644
0.000827489
0.000826489
0.000825632
0.000824887
0.00082425
0.000823678
0.000823183
0.00082274
0.000822366
0.000822009
0.0008217
0.000821423
0.000821193
0.000820966
0.000820775
0.000820598
0.000820467
0.00082029
0.000820163
0.00082006
0.000819985
0.000819883
0.000819809
0.000819749
0.000819701
0.000819607
0.000819568
0.000819544
0.000819506
0.000819395
0.000819468
0.000819468
0.000819468
0.000819468
0.000819462
0.000819415
0.000819526
0.000819526
0.000819526
0.00081952
0.000819646
0.000819732
0.000819731
0.000819897
0.000819916
0.000819916
0.000820004
0.000820199
0.000820401
0.00082051
0.000820613
0.0008207
0.000820866
0.000821039
0.000821275
0.000821417
0.000821591
0.000821758
0.000821997
0.000822154
0.0008224
0.00082262
0.000822914
0.000823108
0.00082341
0.000823649
0.000824038
0.000824312
0.000824805
0.000825122
0.000825719
0.000826077
0.00082684
0.000827281
0.000828271
0.000828793
0.000830605
0.00083087
0.000843875
0.000900639
0.00235611
0.00101908
0.000947892
0.000908714
0.000885469
0.000870338
0.000859823
0.000852123
0.000846315
0.000841793
0.000838221
0.000835332
0.000832979
0.000831025
0.000829399
0.00082802
0.000826858
0.000825851
0.000824989
0.000824239
0.000823597
0.000823022
0.000822523
0.000822077
0.0008217
0.00082134
0.000821029
0.00082075
0.000820518
0.000820289
0.000820097
0.000819918
0.000819786
0.000819608
0.00081948
0.000819376
0.0008193
0.000819196
0.000819123
0.000819061
0.000819013
0.000818919
0.000818879
0.000818854
0.000818816
0.000818704
0.000818776
0.000818776
0.000818776
0.000818776
0.000818769
0.000818722
0.000818832
0.000818833
0.000818832
0.000818827
0.000818952
0.000819037
0.000819037
0.000819202
0.000819221
0.000819221
0.000819309
0.000819504
0.000819706
0.000819815
0.000819919
0.000820006
0.000820172
0.000820344
0.00082058
0.000820722
0.000820897
0.000821064
0.000821303
0.00082146
0.000821706
0.000821926
0.00082222
0.000822415
0.000822716
0.000822955
0.000823344
0.000823618
0.000824111
0.000824428
0.000825024
0.000825381
0.000826143
0.000826584
0.000827573
0.000828093
0.000829906
0.000830161
0.000843396
0.000900129
0.00236026
0.00101909
0.000947755
0.000908439
0.000885088
0.000869881
0.000859308
0.000851565
0.000845722
0.000841172
0.000837577
0.000834669
0.000832301
0.000830333
0.000828696
0.000827307
0.000826136
0.000825122
0.000824254
0.000823497
0.000822851
0.000822271
0.000821768
0.000821318
0.000820938
0.000820575
0.000820262
0.00081998
0.000819746
0.000819515
0.000819321
0.00081914
0.000819007
0.000818827
0.000818698
0.000818593
0.000818516
0.000818412
0.000818337
0.000818274
0.000818226
0.000818131
0.00081809
0.000818065
0.000818026
0.000817914
0.000817984
0.000817984
0.000817985
0.000817984
0.000817978
0.00081793
0.000818039
0.000818039
0.000818039
0.000818033
0.000818158
0.000818242
0.000818242
0.000818407
0.000818426
0.000818426
0.000818515
0.000818708
0.00081891
0.000819021
0.000819125
0.000819212
0.000819377
0.000819549
0.000819785
0.000819928
0.000820103
0.00082027
0.000820509
0.000820666
0.000820912
0.000821132
0.000821426
0.000821621
0.000821923
0.000822162
0.00082255
0.000822824
0.000823317
0.000823633
0.000824229
0.000824586
0.000825347
0.000825787
0.000826775
0.000827293
0.000829105
0.00082935
0.000842851
0.000899529
0.00236338
0.00101909
0.000947602
0.000908129
0.00088466
0.000869366
0.000858728
0.000850935
0.000845053
0.000840473
0.000836851
0.000833923
0.000831536
0.000829554
0.000827903
0.000826504
0.000825323
0.000824301
0.000823425
0.000822662
0.00082201
0.000821424
0.000820917
0.000820463
0.000820079
0.000819713
0.000819396
0.000819112
0.000818875
0.000818642
0.000818446
0.000818263
0.000818128
0.000817947
0.000817817
0.00081771
0.000817632
0.000817526
0.000817451
0.000817387
0.000817338
0.000817243
0.000817201
0.000817175
0.000817136
0.000817022
0.000817092
0.000817092
0.000817092
0.000817091
0.000817084
0.000817035
0.000817144
0.000817144
0.000817144
0.000817137
0.000817262
0.000817345
0.000817345
0.00081751
0.00081753
0.000817529
0.000817618
0.000817811
0.000818013
0.000818124
0.00081823
0.000818316
0.000818481
0.000818652
0.000818888
0.000819032
0.000819207
0.000819374
0.000819613
0.00081977
0.000820016
0.000820235
0.00082053
0.000820725
0.000821028
0.000821266
0.000821655
0.000821928
0.000822421
0.000822736
0.000823332
0.000823689
0.000824448
0.000824888
0.000825874
0.000826391
0.000828202
0.000828434
0.000842239
0.000898836
0.00236467
0.00101909
0.000947432
0.000907786
0.000884185
0.000868793
0.000858083
0.000850235
0.000844309
0.000839693
0.000836043
0.000833091
0.000830684
0.000828685
0.00082702
0.000825608
0.000824416
0.000823385
0.0008225
0.00082173
0.000821071
0.00082048
0.000819968
0.000819509
0.000819121
0.000818751
0.000818431
0.000818144
0.000817904
0.000817669
0.000817471
0.000817285
0.000817148
0.000816966
0.000816834
0.000816725
0.000816645
0.000816539
0.000816462
0.000816397
0.000816348
0.000816252
0.000816209
0.000816182
0.000816143
0.000816028
0.000816096
0.000816096
0.000816096
0.000816095
0.000816088
0.000816038
0.000816145
0.000816145
0.000816145
0.000816138
0.000816263
0.000816345
0.000816345
0.00081651
0.00081653
0.000816529
0.000816618
0.00081681
0.000817012
0.000817124
0.000817231
0.000817317
0.000817481
0.000817652
0.000817887
0.000818032
0.000818208
0.000818374
0.000818613
0.000818771
0.000819017
0.000819235
0.000819531
0.000819726
0.000820029
0.000820267
0.000820656
0.000820928
0.000821421
0.000821736
0.000822332
0.000822687
0.000823446
0.000823885
0.000824869
0.000825383
0.000827195
0.000827413
0.00084156
0.000898051
0.00236312
0.0010191
0.000947247
0.000907409
0.000883661
0.000868163
0.000857372
0.000849462
0.000843488
0.000838833
0.000835151
0.000832172
0.000829743
0.000827726
0.000826044
0.000824618
0.000823415
0.000822373
0.000821479
0.000820701
0.000820035
0.000819437
0.000818919
0.000818455
0.000818063
0.000817689
0.000817365
0.000817074
0.000816831
0.000816593
0.000816392
0.000816204
0.000816065
0.000815881
0.000815747
0.000815637
0.000815555
0.000815448
0.00081537
0.000815303
0.000815253
0.000815156
0.000815113
0.000815084
0.000815045
0.000814929
0.000814995
0.000814995
0.000814995
0.000814994
0.000814986
0.000814936
0.000815041
0.000815042
0.000815041
0.000815034
0.000815158
0.00081524
0.00081524
0.000815404
0.000815424
0.000815424
0.000815513
0.000815704
0.000815906
0.000816019
0.000816127
0.000816213
0.000816376
0.000816546
0.000816781
0.000816926
0.000817103
0.000817269
0.000817508
0.000817666
0.000817912
0.00081813
0.000818426
0.000818622
0.000818925
0.000819162
0.000819551
0.000819823
0.000820316
0.00082063
0.000821225
0.000821581
0.000822337
0.000822775
0.000823758
0.00082427
0.000826081
0.000826285
0.000840813
0.000897171
0.00235873
0.0010191
0.000947047
0.000906999
0.00088309
0.000867474
0.000856595
0.000848617
0.000842589
0.000837891
0.000834174
0.000831166
0.000828713
0.000826674
0.000824975
0.000823534
0.000822317
0.000821263
0.00082036
0.000819572
0.000818898
0.000818294
0.00081777
0.0008173
0.000816902
0.000816524
0.000816196
0.000815901
0.000815655
0.000815413
0.00081521
0.000815019
0.000814878
0.000814692
0.000814556
0.000814443
0.00081436
0.000814251
0.000814172
0.000814104
0.000814053
0.000813955
0.00081391
0.000813881
0.000813841
0.000813724
0.000813788
0.000813788
0.000813788
0.000813786
0.000813778
0.000813727
0.000813831
0.000813831
0.000813831
0.000813823
0.000813947
0.000814027
0.000814027
0.000814191
0.000814212
0.000814211
0.0008143
0.000814491
0.000814692
0.000814806
0.000814916
0.000815001
0.000815163
0.000815332
0.000815568
0.000815714
0.000815891
0.000816056
0.000816296
0.000816454
0.0008167
0.000816918
0.000817214
0.00081741
0.000817714
0.00081795
0.00081834
0.00081861
0.000819103
0.000819416
0.000820012
0.000820366
0.000821121
0.000821558
0.000822539
0.000823048
0.000824858
0.000825047
0.000839995
0.000896196
0.00235154
0.00101911
0.000946831
0.000906555
0.000882471
0.000866725
0.00085575
0.000847698
0.000841611
0.000836867
0.000833111
0.000830071
0.000827591
0.000825529
0.000823811
0.000822353
0.000821122
0.000820055
0.00081914
0.000818343
0.000817661
0.000817048
0.000816517
0.000816041
0.000815637
0.000815254
0.000814922
0.000814623
0.000814373
0.000814128
0.000813921
0.000813728
0.000813584
0.000813396
0.000813257
0.000813142
0.000813058
0.000812947
0.000812866
0.000812796
0.000812744
0.000812646
0.0008126
0.000812569
0.000812528
0.000812411
0.000812472
0.000812472
0.000812472
0.000812471
0.000812462
0.000812409
0.000812512
0.000812512
0.000812512
0.000812504
0.000812627
0.000812706
0.000812706
0.000812869
0.00081289
0.00081289
0.000812979
0.000813168
0.000813369
0.000813485
0.000813596
0.000813681
0.000813842
0.00081401
0.000814245
0.000814392
0.00081457
0.000814735
0.000814975
0.000815133
0.000815379
0.000815596
0.000815893
0.000816089
0.000816394
0.000816629
0.000817019
0.000817288
0.000817781
0.000818093
0.000818689
0.000819042
0.000819795
0.000820232
0.000821211
0.000821716
0.000823526
0.000823698
0.000839107
0.000895124
0.00234157
0.00101912
0.0009466
0.000906077
0.000881803
0.000865918
0.000854837
0.000846705
0.000840554
0.000835758
0.000831961
0.000828886
0.000826376
0.00082429
0.000822551
0.000821075
0.000819827
0.000818747
0.00081782
0.000817012
0.00081632
0.000815699
0.00081516
0.000814677
0.000814268
0.000813879
0.000813542
0.000813238
0.000812984
0.000812735
0.000812526
0.000812328
0.000812182
0.000811992
0.000811851
0.000811733
0.000811646
0.000811534
0.000811451
0.00081138
0.000811327
0.000811227
0.00081118
0.000811148
0.000811107
0.000810988
0.000811047
0.000811047
0.000811046
0.000811045
0.000811036
0.000810981
0.000811082
0.000811082
0.000811082
0.000811074
0.000811196
0.000811274
0.000811274
0.000811437
0.000811458
0.000811457
0.000811546
0.000811735
0.000811936
0.000812052
0.000812165
0.00081225
0.00081241
0.000812577
0.000812812
0.00081296
0.000813139
0.000813303
0.000813543
0.000813702
0.000813947
0.000814163
0.000814461
0.000814658
0.000814962
0.000815197
0.000815587
0.000815856
0.000816348
0.000816659
0.000817254
0.000817607
0.000818358
0.000818794
0.00081977
0.000820273
0.000822082
0.000822236
0.000838147
0.000893954
0.0023289
0.00101913
0.000946353
0.000905566
0.000881087
0.000865051
0.000853857
0.000845637
0.000839417
0.000834565
0.000830722
0.00082761
0.000825069
0.000822956
0.000821193
0.000819697
0.000818432
0.000817337
0.000816397
0.000815577
0.000814875
0.000814245
0.000813698
0.000813207
0.000812791
0.000812397
0.000812054
0.000811745
0.000811487
0.000811234
0.000811021
0.00081082
0.00081067
0.000810478
0.000810334
0.000810213
0.000810125
0.000810011
0.000809926
0.000809853
0.000809798
0.000809698
0.000809649
0.000809615
0.000809573
0.000809454
0.000809509
0.000809509
0.000809509
0.000809507
0.000809497
0.000809441
0.000809541
0.000809541
0.00080954
0.000809531
0.000809653
0.000809729
0.00080973
0.000809892
0.000809913
0.000809913
0.000810002
0.000810189
0.000810389
0.000810507
0.000810622
0.000810706
0.000810866
0.000811031
0.000811266
0.000811415
0.000811594
0.000811758
0.000811998
0.000812157
0.000812403
0.000812618
0.000812916
0.000813113
0.000813419
0.000813653
0.000814043
0.00081431
0.000814802
0.000815112
0.000815707
0.000816059
0.000816808
0.000817242
0.000818216
0.000818715
0.000820523
0.00082066
0.000837112
0.000892682
0.00231357
0.00101914
0.000946093
0.000905022
0.000880323
0.000864124
0.000852807
0.000844493
0.000838199
0.000833287
0.000829395
0.000826242
0.000823666
0.000821524
0.000819737
0.000818219
0.000816936
0.000815825
0.00081487
0.000814038
0.000813324
0.000812685
0.000812129
0.00081163
0.000811207
0.000810806
0.000810457
0.000810143
0.00080988
0.000809622
0.000809405
0.000809201
0.000809047
0.000808852
0.000808706
0.000808582
0.000808491
0.000808375
0.000808288
0.000808213
0.000808157
0.000808055
0.000808005
0.00080797
0.000807927
0.000807806
0.000807859
0.000807859
0.000807859
0.000807856
0.000807846
0.000807788
0.000807885
0.000807885
0.000807885
0.000807875
0.000807996
0.000808071
0.000808071
0.000808233
0.000808255
0.000808254
0.000808343
0.000808529
0.000808729
0.000808848
0.000808964
0.000809049
0.000809207
0.000809371
0.000809606
0.000809755
0.000809936
0.000810099
0.000810339
0.000810499
0.000810744
0.000810959
0.000811257
0.000811455
0.000811761
0.000811994
0.000812384
0.00081265
0.000813142
0.000813451
0.000814045
0.000814396
0.000815143
0.000815576
0.000816547
0.000817043
0.000818849
0.000818967
0.000836
0.000891307
0.00229567
0.00101915
0.000945818
0.000904446
0.000879511
0.000863138
0.000851689
0.000843273
0.000836899
0.000831923
0.000827977
0.00082478
0.000822168
0.000819995
0.000818181
0.00081664
0.000815337
0.000814208
0.000813238
0.000812392
0.000811666
0.000811016
0.000810451
0.000809943
0.000809512
0.000809105
0.00080875
0.000808429
0.000808161
0.000807899
0.000807677
0.000807469
0.000807312
0.000807114
0.000806964
0.000806838
0.000806744
0.000806626
0.000806537
0.000806459
0.000806402
0.000806299
0.000806246
0.00080621
0.000806166
0.000806044
0.000806094
0.000806094
0.000806093
0.00080609
0.000806079
0.00080602
0.000806115
0.000806115
0.000806115
0.000806104
0.000806224
0.000806297
0.000806297
0.000806459
0.000806481
0.00080648
0.000806569
0.000806754
0.000806953
0.000807073
0.000807191
0.000807275
0.000807433
0.000807595
0.00080783
0.00080798
0.000808162
0.000808324
0.000808564
0.000808724
0.00080897
0.000809183
0.000809482
0.00080968
0.000809987
0.000810219
0.000810609
0.000810874
0.000811365
0.000811673
0.000812267
0.000812617
0.000813361
0.000813793
0.000814762
0.000815253
0.000817058
0.000817157
0.000834808
0.000889826
0.00227528
0.00101916
0.00094553
0.000903837
0.000878651
0.000862091
0.000850502
0.000841977
0.000835517
0.000830472
0.000826469
0.000823225
0.000820573
0.000818367
0.000816524
0.000814959
0.000813634
0.000812486
0.0008115
0.000810639
0.0008099
0.000809239
0.000808663
0.000808146
0.000807707
0.000807292
0.00080693
0.000806604
0.000806329
0.000806062
0.000805836
0.000805623
0.000805462
0.000805261
0.000805108
0.000804978
0.000804882
0.000804761
0.00080467
0.000804589
0.000804531
0.000804427
0.000804372
0.000804333
0.00080429
0.000804166
0.000804212
0.000804212
0.000804211
0.000804208
0.000804195
0.000804135
0.000804227
0.000804227
0.000804227
0.000804216
0.000804335
0.000804406
0.000804406
0.000804567
0.000804589
0.000804589
0.000804677
0.000804861
0.00080506
0.000805181
0.000805301
0.000805385
0.000805541
0.000805702
0.000805936
0.000806087
0.00080627
0.000806432
0.000806672
0.000806832
0.000807078
0.00080729
0.000807589
0.000807787
0.000808095
0.000808326
0.000808716
0.00080898
0.000809471
0.000809777
0.00081037
0.000810719
0.000811461
0.000811891
0.000812857
0.000813344
0.000815147
0.000815227
0.000833534
0.000888235
0.0022525
0.00101918
0.000945228
0.000903196
0.000877743
0.000860984
0.000849245
0.000840604
0.000834052
0.000828933
0.00082487
0.000821576
0.000818881
0.000816639
0.000814765
0.000813174
0.000811825
0.000810658
0.000809654
0.000808778
0.000808025
0.000807351
0.000806764
0.000806237
0.000805789
0.000805366
0.000804997
0.000804664
0.000804384
0.000804111
0.00080388
0.000803662
0.000803497
0.000803293
0.000803136
0.000803002
0.000802903
0.00080278
0.000802686
0.000802603
0.000802543
0.000802437
0.000802381
0.00080234
0.000802295
0.00080217
0.000802212
0.000802212
0.000802211
0.000802208
0.000802194
0.000802131
0.000802221
0.000802222
0.000802221
0.000802209
0.000802327
0.000802397
0.000802397
0.000802556
0.000802579
0.000802578
0.000802667
0.000802849
0.000803047
0.00080317
0.000803292
0.000803375
0.00080353
0.000803689
0.000803923
0.000804075
0.000804259
0.00080442
0.00080466
0.000804821
0.000805066
0.000805277
0.000805577
0.000805776
0.000806084
0.000806313
0.000806704
0.000806966
0.000807457
0.000807762
0.000808354
0.000808702
0.000809441
0.000809869
0.000810832
0.000811314
0.000813116
0.000813175
0.000832173
0.000886532
0.00222742
0.0010192
0.000944914
0.000902523
0.000876788
0.000859818
0.000847918
0.000839154
0.000832504
0.000827306
0.000823178
0.000819831
0.000817091
0.00081481
0.000812903
0.000811284
0.000809911
0.000808722
0.000807699
0.000806806
0.000806038
0.000805351
0.000804753
0.000804215
0.000803757
0.000803326
0.000802949
0.000802609
0.000802322
0.000802044
0.000801808
0.000801584
0.000801415
0.000801207
0.000801046
0.000800909
0.000800806
0.00080068
0.000800584
0.000800498
0.000800436
0.000800328
0.00080027
0.000800227
0.000800181
0.000800055
0.000800093
0.000800093
0.000800092
0.000800087
0.000800073
0.000800008
0.000800096
0.000800096
0.000800095
0.000800082
0.000800199
0.000800267
0.000800266
0.000800425
0.000800448
0.000800447
0.000800536
0.000800717
0.000800914
0.000801037
0.000801162
0.000801245
0.000801399
0.000801556
0.000801789
0.000801943
0.000802127
0.000802287
0.000802528
0.000802689
0.000802934
0.000803144
0.000803444
0.000803643
0.000803952
0.00080418
0.000804571
0.000804832
0.000805321
0.000805625
0.000806216
0.000806563
0.000807299
0.000807726
0.000808685
0.000809162
0.000810961
0.000811001
0.000830721
0.000884712
0.00220018
0.00101922
0.000944587
0.00090182
0.000875786
0.000858591
0.000846522
0.000837627
0.000830873
0.000825591
0.000821394
0.000817989
0.000815201
0.00081288
0.000810938
0.000809288
0.000807889
0.000806678
0.000805635
0.000804724
0.00080394
0.000803239
0.000802628
0.000802079
0.000801611
0.000801171
0.000800786
0.000800437
0.000800144
0.000799859
0.000799617
0.000799389
0.000799215
0.000799003
0.000798838
0.000798696
0.00079859
0.000798461
0.000798362
0.000798273
0.000798209
0.0007981
0.000798039
0.000797994
0.000797947
0.00079782
0.000797853
0.000797853
0.000797852
0.000797846
0.00079783
0.000797764
0.000797848
0.000797848
0.000797848
0.000797834
0.00079795
0.000798015
0.000798015
0.000798172
0.000798195
0.000798195
0.000798284
0.000798463
0.000798659
0.000798783
0.00079891
0.000798993
0.000799145
0.000799301
0.000799533
0.000799687
0.000799873
0.000800033
0.000800273
0.000800434
0.000800679
0.000800888
0.000801188
0.000801387
0.000801697
0.000801924
0.000802315
0.000802574
0.000803063
0.000803365
0.000803956
0.000804301
0.000805033
0.000805458
0.000806414
0.000806886
0.000808682
0.000808703
0.000829175
0.000882769
0.00217088
0.00101924
0.000944249
0.000901087
0.000874737
0.000857306
0.000845057
0.000836022
0.000829157
0.000823787
0.000819517
0.000816051
0.000813212
0.000810848
0.000808869
0.000807187
0.00080576
0.000804524
0.000803459
0.00080253
0.000801729
0.000801013
0.000800389
0.000799828
0.000799348
0.000798899
0.000798505
0.000798148
0.000797847
0.000797556
0.000797308
0.000797074
0.000796895
0.000796679
0.000796509
0.000796363
0.000796253
0.000796121
0.000796019
0.000795927
0.000795861
0.00079575
0.000795687
0.000795639
0.000795591
0.000795463
0.000795492
0.000795491
0.000795489
0.000795483
0.000795466
0.000795397
0.000795478
0.000795478
0.000795478
0.000795462
0.000795577
0.00079564
0.00079564
0.000795796
0.000795819
0.000795819
0.000795908
0.000796085
0.00079628
0.000796405
0.000796534
0.000796617
0.000796768
0.000796922
0.000797153
0.000797308
0.000797495
0.000797654
0.000797894
0.000798055
0.000798301
0.000798508
0.000798808
0.000799008
0.000799318
0.000799544
0.000799935
0.000800193
0.00080068
0.000800981
0.00080157
0.000801914
0.000802643
0.000803066
0.000804018
0.000804485
0.000806277
0.000806278
0.000827528
0.000880699
0.00213966
0.00101926
0.0009439
0.000900323
0.000873642
0.000855961
0.000843522
0.00083434
0.000827358
0.000821893
0.000817546
0.000814016
0.000811123
0.000808712
0.000806694
0.000804978
0.000803521
0.00080226
0.000801172
0.000800222
0.000799404
0.000798672
0.000798033
0.00079746
0.000796969
0.000796509
0.000796106
0.00079574
0.000795432
0.000795134
0.000794879
0.000794638
0.000794454
0.000794233
0.000794059
0.000793908
0.000793795
0.000793659
0.000793554
0.000793458
0.00079339
0.000793277
0.000793211
0.00079316
0.000793112
0.000792982
0.000793006
0.000793006
0.000793003
0.000792995
0.000792977
0.000792906
0.000792984
0.000792984
0.000792984
0.000792967
0.00079308
0.00079314
0.00079314
0.000793295
0.000793318
0.000793318
0.000793407
0.000793582
0.000793776
0.000793902
0.000794034
0.000794117
0.000794266
0.000794417
0.000794649
0.000794804
0.000794992
0.00079515
0.00079539
0.000795552
0.000795797
0.000796002
0.000796303
0.000796503
0.000796814
0.000797038
0.000797429
0.000797685
0.000798172
0.000798471
0.000799058
0.000799401
0.000800126
0.000800547
0.000801495
0.000801957
0.000803744
0.000803727
0.000825776
0.000878494
0.00210665
0.00101929
0.00094354
0.000899532
0.000872502
0.000854558
0.000841918
0.000832581
0.000825475
0.00081991
0.000815481
0.000811883
0.000808932
0.000806473
0.000804413
0.000802661
0.000801173
0.000799884
0.000798772
0.000797801
0.000796964
0.000796215
0.000795561
0.000794974
0.000794471
0.000794
0.000793587
0.000793213
0.000792896
0.00079259
0.000792329
0.000792081
0.000791891
0.000791666
0.000791487
0.000791331
0.000791213
0.000791074
0.000790965
0.000790866
0.000790795
0.00079068
0.000790611
0.000790558
0.000790508
0.000790377
0.000790397
0.000790396
0.000790392
0.000790383
0.000790363
0.00079029
0.000790365
0.000790365
0.000790364
0.000790346