/*--------------------------------*- C++ -*----------------------------------*\
| =========                 |                                                 |
| \\      /  F ield         | OpenFOAM: The Open Source CFD Toolbox           |
|  \\    /   O peration     | Version:  v2012                                 |
|   \\  /    A nd           | Website:  www.openfoam.com                      |
|    \\/     M anipulation  |                                                 |
\*---------------------------------------------------------------------------*/
FoamFile
{
    version     2.0;
    format      ascii;
    class       volScalarField;
    location    "15.5";
    object      nut;
}
// * * * * * * * * * * * * * * * * * * * * * * * * * * * * * * * * * * * * * //

dimensions      [0 2 -1 0 0 0 0];


internalField   nonuniform List<scalar> 
209825
(
1.239e-07
1.2421e-07
1.24908e-07
1.25544e-07
1.26058e-07
1.26468e-07
1.26804e-07
1.27081e-07
1.27315e-07
1.27513e-07
1.27685e-07
1.27832e-07
1.27963e-07
1.28075e-07
1.28177e-07
1.28266e-07
1.28347e-07
1.28417e-07
1.28483e-07
1.28541e-07
1.28595e-07
1.28642e-07
1.28687e-07
1.28725e-07
1.28762e-07
1.28794e-07
1.28826e-07
1.28853e-07
1.2888e-07
1.28904e-07
1.28927e-07
1.2895e-07
1.28964e-07
1.28978e-07
1.28998e-07
1.29016e-07
1.2903e-07
1.2904e-07
1.29057e-07
1.2907e-07
1.29075e-07
1.29081e-07
1.29103e-07
1.29109e-07
1.29099e-07
1.29116e-07
1.29123e-07
1.29128e-07
1.29139e-07
1.29145e-07
1.29155e-07
1.29159e-07
1.29159e-07
1.29159e-07
1.29161e-07
1.29165e-07
1.29165e-07
1.29165e-07
1.29191e-07
1.29194e-07
1.29175e-07
1.29183e-07
1.29214e-07
1.29234e-07
1.29222e-07
1.29237e-07
1.29251e-07
1.29259e-07
1.29286e-07
1.29301e-07
1.29304e-07
1.29303e-07
1.29315e-07
1.29313e-07
1.29337e-07
1.29353e-07
1.29362e-07
1.29382e-07
1.2939e-07
1.294e-07
1.29417e-07
1.29442e-07
1.29461e-07
1.29499e-07
1.29525e-07
1.29567e-07
1.29596e-07
1.29655e-07
1.29691e-07
1.29768e-07
1.29815e-07
1.29966e-07
1.29999e-07
1.3105e-07
1.35866e-07
2.01721e-08
1.239e-07
1.2421e-07
1.24908e-07
1.25544e-07
1.26058e-07
1.26468e-07
1.26804e-07
1.2708e-07
1.27315e-07
1.27513e-07
1.27685e-07
1.27832e-07
1.27963e-07
1.28075e-07
1.28177e-07
1.28266e-07
1.28347e-07
1.28417e-07
1.28483e-07
1.28541e-07
1.28595e-07
1.28642e-07
1.28687e-07
1.28726e-07
1.28762e-07
1.28794e-07
1.28826e-07
1.28854e-07
1.2888e-07
1.28904e-07
1.28927e-07
1.2895e-07
1.28964e-07
1.28978e-07
1.28998e-07
1.29017e-07
1.2903e-07
1.2904e-07
1.29057e-07
1.2907e-07
1.29075e-07
1.29081e-07
1.29103e-07
1.29109e-07
1.29099e-07
1.29117e-07
1.29123e-07
1.29128e-07
1.29139e-07
1.29145e-07
1.29156e-07
1.2916e-07
1.2916e-07
1.2916e-07
1.29161e-07
1.29165e-07
1.29165e-07
1.29165e-07
1.29191e-07
1.29194e-07
1.29175e-07
1.29183e-07
1.29214e-07
1.29234e-07
1.29222e-07
1.29238e-07
1.29251e-07
1.29259e-07
1.29287e-07
1.29302e-07
1.29305e-07
1.29303e-07
1.29315e-07
1.29313e-07
1.29337e-07
1.29354e-07
1.29362e-07
1.29383e-07
1.29391e-07
1.294e-07
1.29417e-07
1.29443e-07
1.29461e-07
1.29499e-07
1.29525e-07
1.29568e-07
1.29597e-07
1.29655e-07
1.29692e-07
1.29768e-07
1.29815e-07
1.29966e-07
1.3e-07
1.31053e-07
1.3587e-07
2.07771e-08
1.239e-07
1.24209e-07
1.24906e-07
1.25542e-07
1.26055e-07
1.26465e-07
1.26801e-07
1.27077e-07
1.27312e-07
1.2751e-07
1.27682e-07
1.27829e-07
1.2796e-07
1.28072e-07
1.28174e-07
1.28263e-07
1.28344e-07
1.28414e-07
1.2848e-07
1.28538e-07
1.28592e-07
1.28639e-07
1.28684e-07
1.28723e-07
1.28759e-07
1.28791e-07
1.28824e-07
1.28851e-07
1.28878e-07
1.28901e-07
1.28925e-07
1.28947e-07
1.28962e-07
1.28975e-07
1.28996e-07
1.29014e-07
1.29027e-07
1.29037e-07
1.29054e-07
1.29067e-07
1.29072e-07
1.29079e-07
1.291e-07
1.29106e-07
1.29097e-07
1.29114e-07
1.2912e-07
1.29126e-07
1.29137e-07
1.29143e-07
1.29153e-07
1.29157e-07
1.29157e-07
1.29157e-07
1.29159e-07
1.29163e-07
1.29162e-07
1.29162e-07
1.29188e-07
1.29192e-07
1.29172e-07
1.29181e-07
1.29212e-07
1.29231e-07
1.2922e-07
1.29235e-07
1.29249e-07
1.29257e-07
1.29284e-07
1.29299e-07
1.29302e-07
1.29301e-07
1.29313e-07
1.2931e-07
1.29335e-07
1.29351e-07
1.2936e-07
1.2938e-07
1.29388e-07
1.29398e-07
1.29415e-07
1.2944e-07
1.29459e-07
1.29497e-07
1.29523e-07
1.29565e-07
1.29594e-07
1.29653e-07
1.29689e-07
1.29766e-07
1.29813e-07
1.29964e-07
1.29997e-07
1.31055e-07
1.35876e-07
2.15275e-08
1.23899e-07
1.24207e-07
1.24903e-07
1.25538e-07
1.26051e-07
1.26461e-07
1.26796e-07
1.27073e-07
1.27307e-07
1.27505e-07
1.27677e-07
1.27824e-07
1.27955e-07
1.28068e-07
1.2817e-07
1.28259e-07
1.2834e-07
1.2841e-07
1.28476e-07
1.28534e-07
1.28588e-07
1.28635e-07
1.2868e-07
1.28719e-07
1.28755e-07
1.28787e-07
1.2882e-07
1.28847e-07
1.28874e-07
1.28897e-07
1.28921e-07
1.28943e-07
1.28958e-07
1.28971e-07
1.28992e-07
1.2901e-07
1.29024e-07
1.29033e-07
1.2905e-07
1.29063e-07
1.29068e-07
1.29075e-07
1.29097e-07
1.29103e-07
1.29093e-07
1.2911e-07
1.29117e-07
1.29122e-07
1.29133e-07
1.29139e-07
1.29149e-07
1.29153e-07
1.29153e-07
1.29153e-07
1.29155e-07
1.29159e-07
1.29159e-07
1.29159e-07
1.29185e-07
1.29188e-07
1.29169e-07
1.29177e-07
1.29208e-07
1.29228e-07
1.29216e-07
1.29232e-07
1.29246e-07
1.29253e-07
1.29281e-07
1.29296e-07
1.29299e-07
1.29298e-07
1.29309e-07
1.29307e-07
1.29332e-07
1.29348e-07
1.29356e-07
1.29377e-07
1.29385e-07
1.29394e-07
1.29412e-07
1.29437e-07
1.29455e-07
1.29494e-07
1.29519e-07
1.29562e-07
1.29591e-07
1.29649e-07
1.29686e-07
1.29763e-07
1.29809e-07
1.29961e-07
1.29994e-07
1.31058e-07
1.35885e-07
2.23596e-08
1.23899e-07
1.24203e-07
1.24898e-07
1.25532e-07
1.26045e-07
1.26455e-07
1.2679e-07
1.27067e-07
1.27301e-07
1.27499e-07
1.27671e-07
1.27818e-07
1.27949e-07
1.28062e-07
1.28164e-07
1.28253e-07
1.28334e-07
1.28404e-07
1.2847e-07
1.28528e-07
1.28582e-07
1.28629e-07
1.28674e-07
1.28713e-07
1.2875e-07
1.28782e-07
1.28814e-07
1.28842e-07
1.28868e-07
1.28892e-07
1.28915e-07
1.28938e-07
1.28953e-07
1.28966e-07
1.28987e-07
1.29005e-07
1.29019e-07
1.29028e-07
1.29045e-07
1.29058e-07
1.29063e-07
1.2907e-07
1.29092e-07
1.29098e-07
1.29088e-07
1.29105e-07
1.29112e-07
1.29117e-07
1.29128e-07
1.29134e-07
1.29144e-07
1.29149e-07
1.29149e-07
1.29149e-07
1.2915e-07
1.29154e-07
1.29154e-07
1.29154e-07
1.2918e-07
1.29183e-07
1.29164e-07
1.29173e-07
1.29203e-07
1.29223e-07
1.29211e-07
1.29227e-07
1.29241e-07
1.29249e-07
1.29276e-07
1.29291e-07
1.29295e-07
1.29293e-07
1.29305e-07
1.29303e-07
1.29327e-07
1.29344e-07
1.29352e-07
1.29373e-07
1.29381e-07
1.2939e-07
1.29407e-07
1.29433e-07
1.29451e-07
1.29489e-07
1.29515e-07
1.29558e-07
1.29587e-07
1.29645e-07
1.29682e-07
1.29759e-07
1.29805e-07
1.29957e-07
1.29989e-07
1.31062e-07
1.35897e-07
2.32616e-08
1.23898e-07
1.242e-07
1.24892e-07
1.25525e-07
1.26037e-07
1.26447e-07
1.26783e-07
1.27059e-07
1.27294e-07
1.27491e-07
1.27664e-07
1.27811e-07
1.27942e-07
1.28055e-07
1.28157e-07
1.28246e-07
1.28327e-07
1.28397e-07
1.28463e-07
1.28521e-07
1.28575e-07
1.28622e-07
1.28667e-07
1.28707e-07
1.28743e-07
1.28775e-07
1.28808e-07
1.28835e-07
1.28862e-07
1.28885e-07
1.28909e-07
1.28932e-07
1.28946e-07
1.2896e-07
1.2898e-07
1.28999e-07
1.29012e-07
1.29022e-07
1.29039e-07
1.29052e-07
1.29057e-07
1.29064e-07
1.29086e-07
1.29092e-07
1.29082e-07
1.29099e-07
1.29106e-07
1.29111e-07
1.29122e-07
1.29128e-07
1.29139e-07
1.29143e-07
1.29143e-07
1.29143e-07
1.29145e-07
1.29149e-07
1.29148e-07
1.29148e-07
1.29174e-07
1.29178e-07
1.29158e-07
1.29167e-07
1.29198e-07
1.29218e-07
1.29206e-07
1.29222e-07
1.29236e-07
1.29243e-07
1.29271e-07
1.29286e-07
1.29289e-07
1.29288e-07
1.293e-07
1.29298e-07
1.29322e-07
1.29338e-07
1.29347e-07
1.29367e-07
1.29376e-07
1.29385e-07
1.29402e-07
1.29428e-07
1.29446e-07
1.29484e-07
1.2951e-07
1.29553e-07
1.29582e-07
1.2964e-07
1.29677e-07
1.29754e-07
1.298e-07
1.29952e-07
1.29984e-07
1.31068e-07
1.35909e-07
2.42307e-08
1.23897e-07
1.24195e-07
1.24884e-07
1.25517e-07
1.26028e-07
1.26438e-07
1.26773e-07
1.2705e-07
1.27284e-07
1.27482e-07
1.27655e-07
1.27802e-07
1.27933e-07
1.28046e-07
1.28148e-07
1.28237e-07
1.28319e-07
1.28389e-07
1.28455e-07
1.28513e-07
1.28567e-07
1.28614e-07
1.28659e-07
1.28699e-07
1.28735e-07
1.28768e-07
1.288e-07
1.28827e-07
1.28854e-07
1.28878e-07
1.28901e-07
1.28924e-07
1.28939e-07
1.28953e-07
1.28973e-07
1.28991e-07
1.29005e-07
1.29015e-07
1.29032e-07
1.29045e-07
1.2905e-07
1.29057e-07
1.29078e-07
1.29085e-07
1.29075e-07
1.29092e-07
1.29099e-07
1.29104e-07
1.29115e-07
1.29121e-07
1.29132e-07
1.29136e-07
1.29136e-07
1.29136e-07
1.29138e-07
1.29142e-07
1.29142e-07
1.29142e-07
1.29168e-07
1.29171e-07
1.29152e-07
1.2916e-07
1.29191e-07
1.29211e-07
1.292e-07
1.29216e-07
1.29229e-07
1.29237e-07
1.29264e-07
1.29279e-07
1.29283e-07
1.29282e-07
1.29294e-07
1.29292e-07
1.29316e-07
1.29332e-07
1.29341e-07
1.29361e-07
1.2937e-07
1.29379e-07
1.29396e-07
1.29422e-07
1.2944e-07
1.29478e-07
1.29504e-07
1.29547e-07
1.29576e-07
1.29634e-07
1.29671e-07
1.29748e-07
1.29794e-07
1.29946e-07
1.29977e-07
1.31076e-07
1.35923e-07
2.52673e-08
1.23897e-07
1.24189e-07
1.24876e-07
1.25507e-07
1.26018e-07
1.26427e-07
1.26763e-07
1.27039e-07
1.27274e-07
1.27472e-07
1.27644e-07
1.27792e-07
1.27923e-07
1.28036e-07
1.28138e-07
1.28227e-07
1.28309e-07
1.28379e-07
1.28445e-07
1.28504e-07
1.28558e-07
1.28605e-07
1.2865e-07
1.28689e-07
1.28726e-07
1.28758e-07
1.28791e-07
1.28818e-07
1.28845e-07
1.28869e-07
1.28893e-07
1.28915e-07
1.2893e-07
1.28944e-07
1.28964e-07
1.28983e-07
1.28996e-07
1.29006e-07
1.29023e-07
1.29037e-07
1.29042e-07
1.29048e-07
1.2907e-07
1.29076e-07
1.29067e-07
1.29084e-07
1.29091e-07
1.29096e-07
1.29107e-07
1.29113e-07
1.29124e-07
1.29128e-07
1.29128e-07
1.29128e-07
1.2913e-07
1.29134e-07
1.29134e-07
1.29134e-07
1.2916e-07
1.29163e-07
1.29144e-07
1.29153e-07
1.29184e-07
1.29204e-07
1.29192e-07
1.29208e-07
1.29222e-07
1.2923e-07
1.29257e-07
1.29272e-07
1.29276e-07
1.29275e-07
1.29286e-07
1.29284e-07
1.29309e-07
1.29325e-07
1.29334e-07
1.29354e-07
1.29363e-07
1.29372e-07
1.2939e-07
1.29415e-07
1.29433e-07
1.29472e-07
1.29498e-07
1.2954e-07
1.29569e-07
1.29628e-07
1.29664e-07
1.29741e-07
1.29787e-07
1.29939e-07
1.2997e-07
1.31086e-07
1.35937e-07
2.63723e-08
1.23895e-07
1.24182e-07
1.24866e-07
1.25495e-07
1.26006e-07
1.26415e-07
1.2675e-07
1.27027e-07
1.27261e-07
1.2746e-07
1.27632e-07
1.2778e-07
1.27911e-07
1.28024e-07
1.28127e-07
1.28216e-07
1.28297e-07
1.28368e-07
1.28434e-07
1.28493e-07
1.28547e-07
1.28594e-07
1.28639e-07
1.28679e-07
1.28716e-07
1.28748e-07
1.2878e-07
1.28808e-07
1.28835e-07
1.28859e-07
1.28882e-07
1.28905e-07
1.2892e-07
1.28934e-07
1.28954e-07
1.28973e-07
1.28987e-07
1.28997e-07
1.29014e-07
1.29027e-07
1.29032e-07
1.29039e-07
1.29061e-07
1.29067e-07
1.29057e-07
1.29074e-07
1.29081e-07
1.29087e-07
1.29098e-07
1.29104e-07
1.29114e-07
1.29119e-07
1.29119e-07
1.29119e-07
1.29121e-07
1.29125e-07
1.29125e-07
1.29125e-07
1.29151e-07
1.29155e-07
1.29135e-07
1.29144e-07
1.29175e-07
1.29195e-07
1.29184e-07
1.292e-07
1.29214e-07
1.29221e-07
1.29248e-07
1.29264e-07
1.29268e-07
1.29266e-07
1.29278e-07
1.29276e-07
1.29301e-07
1.29317e-07
1.29326e-07
1.29346e-07
1.29355e-07
1.29365e-07
1.29382e-07
1.29407e-07
1.29426e-07
1.29464e-07
1.2949e-07
1.29533e-07
1.29562e-07
1.2962e-07
1.29657e-07
1.29733e-07
1.29779e-07
1.29932e-07
1.29961e-07
1.31097e-07
1.35951e-07
2.75463e-08
1.23894e-07
1.24175e-07
1.24854e-07
1.25482e-07
1.25992e-07
1.26401e-07
1.26736e-07
1.27013e-07
1.27247e-07
1.27446e-07
1.27618e-07
1.27766e-07
1.27898e-07
1.28011e-07
1.28114e-07
1.28203e-07
1.28285e-07
1.28355e-07
1.28422e-07
1.2848e-07
1.28535e-07
1.28582e-07
1.28627e-07
1.28667e-07
1.28704e-07
1.28736e-07
1.28769e-07
1.28796e-07
1.28824e-07
1.28847e-07
1.28871e-07
1.28894e-07
1.28909e-07
1.28923e-07
1.28943e-07
1.28962e-07
1.28976e-07
1.28986e-07
1.29003e-07
1.29016e-07
1.29022e-07
1.29028e-07
1.2905e-07
1.29056e-07
1.29047e-07
1.29064e-07
1.29071e-07
1.29076e-07
1.29088e-07
1.29094e-07
1.29104e-07
1.29109e-07
1.29109e-07
1.29109e-07
1.29111e-07
1.29115e-07
1.29115e-07
1.29115e-07
1.29141e-07
1.29145e-07
1.29126e-07
1.29134e-07
1.29165e-07
1.29185e-07
1.29174e-07
1.29191e-07
1.29204e-07
1.29212e-07
1.29239e-07
1.29254e-07
1.29258e-07
1.29257e-07
1.29269e-07
1.29267e-07
1.29292e-07
1.29308e-07
1.29317e-07
1.29337e-07
1.29346e-07
1.29356e-07
1.29373e-07
1.29399e-07
1.29417e-07
1.29455e-07
1.29481e-07
1.29524e-07
1.29553e-07
1.29611e-07
1.29648e-07
1.29724e-07
1.29771e-07
1.29923e-07
1.29952e-07
1.31111e-07
1.35967e-07
2.87891e-08
1.23893e-07
1.24166e-07
1.24842e-07
1.25467e-07
1.25976e-07
1.26385e-07
1.2672e-07
1.26997e-07
1.27232e-07
1.2743e-07
1.27603e-07
1.27751e-07
1.27883e-07
1.27996e-07
1.28099e-07
1.28189e-07
1.2827e-07
1.28341e-07
1.28408e-07
1.28466e-07
1.28521e-07
1.28568e-07
1.28614e-07
1.28653e-07
1.28691e-07
1.28723e-07
1.28756e-07
1.28783e-07
1.28811e-07
1.28835e-07
1.28858e-07
1.28881e-07
1.28897e-07
1.28911e-07
1.28931e-07
1.28949e-07
1.28964e-07
1.28974e-07
1.28991e-07
1.29004e-07
1.2901e-07
1.29016e-07
1.29038e-07
1.29045e-07
1.29035e-07
1.29052e-07
1.29059e-07
1.29065e-07
1.29076e-07
1.29082e-07
1.29093e-07
1.29097e-07
1.29098e-07
1.29098e-07
1.291e-07
1.29104e-07
1.29104e-07
1.29104e-07
1.2913e-07
1.29134e-07
1.29115e-07
1.29124e-07
1.29154e-07
1.29174e-07
1.29164e-07
1.2918e-07
1.29194e-07
1.29201e-07
1.29228e-07
1.29244e-07
1.29248e-07
1.29247e-07
1.29259e-07
1.29257e-07
1.29282e-07
1.29298e-07
1.29307e-07
1.29328e-07
1.29337e-07
1.29346e-07
1.29363e-07
1.29389e-07
1.29407e-07
1.29446e-07
1.29471e-07
1.29515e-07
1.29543e-07
1.29602e-07
1.29638e-07
1.29715e-07
1.29761e-07
1.29914e-07
1.29941e-07
1.31127e-07
1.35983e-07
3.00985e-08
1.23892e-07
1.24157e-07
1.24828e-07
1.25451e-07
1.25959e-07
1.26368e-07
1.26703e-07
1.26979e-07
1.27214e-07
1.27413e-07
1.27586e-07
1.27734e-07
1.27866e-07
1.2798e-07
1.28083e-07
1.28173e-07
1.28255e-07
1.28325e-07
1.28392e-07
1.28451e-07
1.28506e-07
1.28553e-07
1.28599e-07
1.28639e-07
1.28676e-07
1.28709e-07
1.28741e-07
1.28769e-07
1.28796e-07
1.2882e-07
1.28844e-07
1.28867e-07
1.28883e-07
1.28897e-07
1.28917e-07
1.28936e-07
1.2895e-07
1.2896e-07
1.28977e-07
1.28991e-07
1.28997e-07
1.29003e-07
1.29025e-07
1.29032e-07
1.29022e-07
1.29039e-07
1.29046e-07
1.29052e-07
1.29063e-07
1.29069e-07
1.2908e-07
1.29085e-07
1.29085e-07
1.29085e-07
1.29088e-07
1.29092e-07
1.29092e-07
1.29092e-07
1.29118e-07
1.29122e-07
1.29102e-07
1.29112e-07
1.29142e-07
1.29163e-07
1.29152e-07
1.29169e-07
1.29182e-07
1.2919e-07
1.29217e-07
1.29232e-07
1.29237e-07
1.29236e-07
1.29248e-07
1.29246e-07
1.29271e-07
1.29287e-07
1.29296e-07
1.29317e-07
1.29326e-07
1.29336e-07
1.29353e-07
1.29378e-07
1.29397e-07
1.29435e-07
1.29461e-07
1.29504e-07
1.29533e-07
1.29591e-07
1.29628e-07
1.29704e-07
1.2975e-07
1.29903e-07
1.29929e-07
1.31146e-07
1.36e-07
3.14709e-08
1.2389e-07
1.24147e-07
1.24812e-07
1.25433e-07
1.2594e-07
1.26348e-07
1.26683e-07
1.2696e-07
1.27195e-07
1.27394e-07
1.27567e-07
1.27716e-07
1.27848e-07
1.27962e-07
1.28065e-07
1.28155e-07
1.28237e-07
1.28308e-07
1.28375e-07
1.28434e-07
1.28489e-07
1.28537e-07
1.28583e-07
1.28622e-07
1.2866e-07
1.28693e-07
1.28726e-07
1.28753e-07
1.28781e-07
1.28805e-07
1.28829e-07
1.28852e-07
1.28868e-07
1.28882e-07
1.28902e-07
1.28921e-07
1.28935e-07
1.28945e-07
1.28963e-07
1.28976e-07
1.28982e-07
1.28989e-07
1.29011e-07
1.29017e-07
1.29008e-07
1.29025e-07
1.29032e-07
1.29038e-07
1.29049e-07
1.29056e-07
1.29066e-07
1.29071e-07
1.29071e-07
1.29071e-07
1.29074e-07
1.29078e-07
1.29078e-07
1.29078e-07
1.29104e-07
1.29108e-07
1.29089e-07
1.29099e-07
1.29129e-07
1.2915e-07
1.29139e-07
1.29156e-07
1.2917e-07
1.29177e-07
1.29204e-07
1.29219e-07
1.29225e-07
1.29224e-07
1.29236e-07
1.29234e-07
1.29259e-07
1.29275e-07
1.29284e-07
1.29305e-07
1.29314e-07
1.29324e-07
1.29341e-07
1.29367e-07
1.29385e-07
1.29423e-07
1.29449e-07
1.29493e-07
1.29521e-07
1.2958e-07
1.29616e-07
1.29693e-07
1.29738e-07
1.29892e-07
1.29916e-07
1.31167e-07
1.36019e-07
3.29095e-08
1.23888e-07
1.24136e-07
1.24795e-07
1.25414e-07
1.2592e-07
1.26327e-07
1.26662e-07
1.26939e-07
1.27174e-07
1.27373e-07
1.27547e-07
1.27696e-07
1.27828e-07
1.27942e-07
1.28046e-07
1.28136e-07
1.28218e-07
1.28289e-07
1.28357e-07
1.28416e-07
1.28471e-07
1.28519e-07
1.28565e-07
1.28605e-07
1.28642e-07
1.28675e-07
1.28708e-07
1.28736e-07
1.28764e-07
1.28788e-07
1.28812e-07
1.28835e-07
1.28851e-07
1.28865e-07
1.28886e-07
1.28905e-07
1.28919e-07
1.28929e-07
1.28947e-07
1.2896e-07
1.28966e-07
1.28973e-07
1.28995e-07
1.29002e-07
1.28993e-07
1.29009e-07
1.29017e-07
1.29023e-07
1.29034e-07
1.2904e-07
1.29051e-07
1.29056e-07
1.29056e-07
1.29057e-07
1.29059e-07
1.29064e-07
1.29064e-07
1.29064e-07
1.2909e-07
1.29094e-07
1.29075e-07
1.29084e-07
1.29115e-07
1.29135e-07
1.29125e-07
1.29142e-07
1.29156e-07
1.29163e-07
1.2919e-07
1.29205e-07
1.29211e-07
1.2921e-07
1.29223e-07
1.29221e-07
1.29246e-07
1.29262e-07
1.29271e-07
1.29292e-07
1.29301e-07
1.29312e-07
1.29328e-07
1.29354e-07
1.29372e-07
1.29411e-07
1.29436e-07
1.2948e-07
1.29509e-07
1.29567e-07
1.29604e-07
1.2968e-07
1.29725e-07
1.29879e-07
1.29903e-07
1.3119e-07
1.36038e-07
3.44178e-08
1.23887e-07
1.24124e-07
1.24777e-07
1.25392e-07
1.25897e-07
1.26304e-07
1.26639e-07
1.26916e-07
1.27152e-07
1.27351e-07
1.27525e-07
1.27674e-07
1.27806e-07
1.27921e-07
1.28025e-07
1.28115e-07
1.28198e-07
1.28269e-07
1.28337e-07
1.28396e-07
1.28451e-07
1.28499e-07
1.28545e-07
1.28585e-07
1.28623e-07
1.28656e-07
1.2869e-07
1.28718e-07
1.28745e-07
1.2877e-07
1.28794e-07
1.28817e-07
1.28833e-07
1.28848e-07
1.28868e-07
1.28887e-07
1.28902e-07
1.28912e-07
1.28929e-07
1.28943e-07
1.28949e-07
1.28956e-07
1.28978e-07
1.28985e-07
1.28976e-07
1.28992e-07
1.29e-07
1.29006e-07
1.29018e-07
1.29024e-07
1.29035e-07
1.2904e-07
1.2904e-07
1.2904e-07
1.29044e-07
1.29048e-07
1.29048e-07
1.29048e-07
1.29074e-07
1.29078e-07
1.29059e-07
1.29069e-07
1.29099e-07
1.2912e-07
1.2911e-07
1.29128e-07
1.29141e-07
1.29148e-07
1.29175e-07
1.2919e-07
1.29197e-07
1.29196e-07
1.29209e-07
1.29207e-07
1.29232e-07
1.29248e-07
1.29257e-07
1.29277e-07
1.29287e-07
1.29298e-07
1.29314e-07
1.2934e-07
1.29359e-07
1.29397e-07
1.29423e-07
1.29466e-07
1.29495e-07
1.29553e-07
1.2959e-07
1.29666e-07
1.29712e-07
1.29866e-07
1.29887e-07
1.31216e-07
1.36059e-07
3.59995e-08
1.23885e-07
1.24111e-07
1.24757e-07
1.25369e-07
1.25873e-07
1.2628e-07
1.26614e-07
1.26891e-07
1.27127e-07
1.27327e-07
1.27501e-07
1.2765e-07
1.27783e-07
1.27898e-07
1.28002e-07
1.28092e-07
1.28175e-07
1.28247e-07
1.28315e-07
1.28374e-07
1.2843e-07
1.28478e-07
1.28525e-07
1.28565e-07
1.28603e-07
1.28636e-07
1.28669e-07
1.28698e-07
1.28726e-07
1.2875e-07
1.28774e-07
1.28798e-07
1.28814e-07
1.28828e-07
1.28849e-07
1.28868e-07
1.28883e-07
1.28893e-07
1.28911e-07
1.28925e-07
1.28931e-07
1.28938e-07
1.28959e-07
1.28967e-07
1.28958e-07
1.28974e-07
1.28982e-07
1.28988e-07
1.29e-07
1.29006e-07
1.29017e-07
1.29023e-07
1.29023e-07
1.29023e-07
1.29026e-07
1.29031e-07
1.29031e-07
1.29031e-07
1.29057e-07
1.29061e-07
1.29042e-07
1.29052e-07
1.29082e-07
1.29103e-07
1.29094e-07
1.29112e-07
1.29125e-07
1.29132e-07
1.29159e-07
1.29174e-07
1.29181e-07
1.2918e-07
1.29193e-07
1.29192e-07
1.29216e-07
1.29233e-07
1.29241e-07
1.29262e-07
1.29272e-07
1.29283e-07
1.29299e-07
1.29326e-07
1.29344e-07
1.29382e-07
1.29408e-07
1.29452e-07
1.2948e-07
1.29538e-07
1.29575e-07
1.29651e-07
1.29697e-07
1.29851e-07
1.29871e-07
1.31244e-07
1.3608e-07
3.76585e-08
1.23883e-07
1.24098e-07
1.24736e-07
1.25345e-07
1.25847e-07
1.26253e-07
1.26587e-07
1.26865e-07
1.27101e-07
1.273e-07
1.27475e-07
1.27624e-07
1.27758e-07
1.27873e-07
1.27977e-07
1.28068e-07
1.28151e-07
1.28223e-07
1.28291e-07
1.28351e-07
1.28407e-07
1.28455e-07
1.28502e-07
1.28542e-07
1.28581e-07
1.28614e-07
1.28648e-07
1.28676e-07
1.28704e-07
1.28729e-07
1.28753e-07
1.28777e-07
1.28793e-07
1.28808e-07
1.28828e-07
1.28847e-07
1.28862e-07
1.28873e-07
1.2889e-07
1.28905e-07
1.28911e-07
1.28918e-07
1.2894e-07
1.28947e-07
1.28939e-07
1.28954e-07
1.28963e-07
1.28969e-07
1.28981e-07
1.28987e-07
1.28998e-07
1.29004e-07
1.29004e-07
1.29004e-07
1.29008e-07
1.29012e-07
1.29013e-07
1.29012e-07
1.29038e-07
1.29043e-07
1.29024e-07
1.29034e-07
1.29064e-07
1.29085e-07
1.29076e-07
1.29094e-07
1.29108e-07
1.29115e-07
1.29141e-07
1.29157e-07
1.29164e-07
1.29163e-07
1.29177e-07
1.29175e-07
1.292e-07
1.29216e-07
1.29225e-07
1.29246e-07
1.29256e-07
1.29267e-07
1.29283e-07
1.2931e-07
1.29328e-07
1.29366e-07
1.29392e-07
1.29436e-07
1.29464e-07
1.29523e-07
1.29559e-07
1.29635e-07
1.2968e-07
1.29835e-07
1.29854e-07
1.31274e-07
1.36103e-07
3.93988e-08
1.23881e-07
1.24083e-07
1.24714e-07
1.25318e-07
1.25819e-07
1.26224e-07
1.26559e-07
1.26836e-07
1.27072e-07
1.27272e-07
1.27447e-07
1.27597e-07
1.27731e-07
1.27846e-07
1.27951e-07
1.28042e-07
1.28126e-07
1.28198e-07
1.28266e-07
1.28326e-07
1.28382e-07
1.28431e-07
1.28478e-07
1.28518e-07
1.28557e-07
1.2859e-07
1.28624e-07
1.28653e-07
1.28681e-07
1.28706e-07
1.2873e-07
1.28754e-07
1.28771e-07
1.28785e-07
1.28806e-07
1.28825e-07
1.28841e-07
1.28851e-07
1.28869e-07
1.28883e-07
1.2889e-07
1.28897e-07
1.28918e-07
1.28926e-07
1.28918e-07
1.28933e-07
1.28942e-07
1.28949e-07
1.28961e-07
1.28967e-07
1.28978e-07
1.28984e-07
1.28984e-07
1.28984e-07
1.28988e-07
1.28992e-07
1.28993e-07
1.28993e-07
1.29019e-07
1.29024e-07
1.29005e-07
1.29015e-07
1.29045e-07
1.29066e-07
1.29057e-07
1.29076e-07
1.29089e-07
1.29097e-07
1.29123e-07
1.29138e-07
1.29146e-07
1.29145e-07
1.29159e-07
1.29157e-07
1.29182e-07
1.29199e-07
1.29207e-07
1.29228e-07
1.29239e-07
1.2925e-07
1.29266e-07
1.29293e-07
1.29311e-07
1.29349e-07
1.29375e-07
1.29419e-07
1.29447e-07
1.29505e-07
1.29542e-07
1.29618e-07
1.29663e-07
1.29819e-07
1.29835e-07
1.31307e-07
1.36126e-07
4.12245e-08
1.23879e-07
1.24068e-07
1.2469e-07
1.2529e-07
1.25789e-07
1.26194e-07
1.26528e-07
1.26806e-07
1.27042e-07
1.27242e-07
1.27417e-07
1.27568e-07
1.27702e-07
1.27817e-07
1.27922e-07
1.28014e-07
1.28098e-07
1.2817e-07
1.28239e-07
1.28299e-07
1.28356e-07
1.28405e-07
1.28452e-07
1.28493e-07
1.28531e-07
1.28565e-07
1.28599e-07
1.28628e-07
1.28656e-07
1.28681e-07
1.28706e-07
1.2873e-07
1.28747e-07
1.28762e-07
1.28783e-07
1.28802e-07
1.28817e-07
1.28828e-07
1.28846e-07
1.2886e-07
1.28867e-07
1.28874e-07
1.28896e-07
1.28904e-07
1.28896e-07
1.28911e-07
1.2892e-07
1.28927e-07
1.28939e-07
1.28945e-07
1.28956e-07
1.28962e-07
1.28962e-07
1.28963e-07
1.28967e-07
1.28971e-07
1.28972e-07
1.28972e-07
1.28998e-07
1.29003e-07
1.28984e-07
1.28995e-07
1.29024e-07
1.29046e-07
1.29037e-07
1.29056e-07
1.29069e-07
1.29077e-07
1.29103e-07
1.29118e-07
1.29126e-07
1.29126e-07
1.2914e-07
1.29139e-07
1.29163e-07
1.2918e-07
1.29188e-07
1.29209e-07
1.2922e-07
1.29232e-07
1.29248e-07
1.29274e-07
1.29292e-07
1.2933e-07
1.29356e-07
1.29401e-07
1.29429e-07
1.29487e-07
1.29524e-07
1.296e-07
1.29644e-07
1.29801e-07
1.29815e-07
1.31342e-07
1.36151e-07
4.31395e-08
1.23877e-07
1.24052e-07
1.24664e-07
1.25261e-07
1.25758e-07
1.26161e-07
1.26495e-07
1.26773e-07
1.2701e-07
1.2721e-07
1.27386e-07
1.27536e-07
1.27671e-07
1.27787e-07
1.27892e-07
1.27984e-07
1.28069e-07
1.28141e-07
1.2821e-07
1.28271e-07
1.28328e-07
1.28377e-07
1.28424e-07
1.28465e-07
1.28504e-07
1.28538e-07
1.28572e-07
1.28602e-07
1.2863e-07
1.28655e-07
1.2868e-07
1.28704e-07
1.28722e-07
1.28736e-07
1.28758e-07
1.28777e-07
1.28793e-07
1.28803e-07
1.28821e-07
1.28836e-07
1.28843e-07
1.2885e-07
1.28872e-07
1.2888e-07
1.28872e-07
1.28887e-07
1.28897e-07
1.28903e-07
1.28916e-07
1.28922e-07
1.28933e-07
1.28939e-07
1.28939e-07
1.2894e-07
1.28944e-07
1.28949e-07
1.2895e-07
1.28949e-07
1.28975e-07
1.2898e-07
1.28962e-07
1.28973e-07
1.29002e-07
1.29024e-07
1.29016e-07
1.29035e-07
1.29048e-07
1.29056e-07
1.29081e-07
1.29097e-07
1.29106e-07
1.29105e-07
1.29119e-07
1.29118e-07
1.29143e-07
1.29159e-07
1.29168e-07
1.29189e-07
1.29201e-07
1.29212e-07
1.29228e-07
1.29255e-07
1.29273e-07
1.29311e-07
1.29337e-07
1.29381e-07
1.2941e-07
1.29468e-07
1.29504e-07
1.2958e-07
1.29625e-07
1.29781e-07
1.29794e-07
1.3138e-07
1.36176e-07
4.5148e-08
1.23875e-07
1.24035e-07
1.24637e-07
1.25229e-07
1.25724e-07
1.26127e-07
1.26461e-07
1.26738e-07
1.26975e-07
1.27176e-07
1.27352e-07
1.27503e-07
1.27638e-07
1.27754e-07
1.2786e-07
1.27952e-07
1.28037e-07
1.2811e-07
1.2818e-07
1.28241e-07
1.28298e-07
1.28347e-07
1.28395e-07
1.28436e-07
1.28476e-07
1.2851e-07
1.28544e-07
1.28573e-07
1.28602e-07
1.28628e-07
1.28653e-07
1.28677e-07
1.28695e-07
1.2871e-07
1.28731e-07
1.2875e-07
1.28766e-07
1.28777e-07
1.28795e-07
1.2881e-07
1.28817e-07
1.28824e-07
1.28846e-07
1.28855e-07
1.28847e-07
1.28862e-07
1.28872e-07
1.28878e-07
1.28891e-07
1.28897e-07
1.28908e-07
1.28915e-07
1.28915e-07
1.28916e-07
1.2892e-07
1.28925e-07
1.28926e-07
1.28926e-07
1.28951e-07
1.28957e-07
1.28938e-07
1.2895e-07
1.28979e-07
1.29001e-07
1.28993e-07
1.29013e-07
1.29026e-07
1.29033e-07
1.29059e-07
1.29074e-07
1.29084e-07
1.29083e-07
1.29098e-07
1.29097e-07
1.29121e-07
1.29138e-07
1.29147e-07
1.29168e-07
1.2918e-07
1.29191e-07
1.29207e-07
1.29234e-07
1.29252e-07
1.2929e-07
1.29316e-07
1.29361e-07
1.29389e-07
1.29447e-07
1.29484e-07
1.2956e-07
1.29604e-07
1.29761e-07
1.29772e-07
1.31419e-07
1.36202e-07
4.72537e-08
1.23872e-07
1.24017e-07
1.24609e-07
1.25196e-07
1.25688e-07
1.26091e-07
1.26424e-07
1.26702e-07
1.26939e-07
1.2714e-07
1.27316e-07
1.27468e-07
1.27603e-07
1.2772e-07
1.27826e-07
1.27919e-07
1.28004e-07
1.28078e-07
1.28147e-07
1.28208e-07
1.28266e-07
1.28316e-07
1.28364e-07
1.28405e-07
1.28445e-07
1.28479e-07
1.28514e-07
1.28544e-07
1.28573e-07
1.28598e-07
1.28624e-07
1.28648e-07
1.28666e-07
1.28681e-07
1.28702e-07
1.28722e-07
1.28738e-07
1.28749e-07
1.28767e-07
1.28782e-07
1.2879e-07
1.28797e-07
1.28819e-07
1.28828e-07
1.2882e-07
1.28835e-07
1.28845e-07
1.28852e-07
1.28865e-07
1.28871e-07
1.28882e-07
1.28889e-07
1.28889e-07
1.2889e-07
1.28895e-07
1.28899e-07
1.289e-07
1.289e-07
1.28926e-07
1.28932e-07
1.28914e-07
1.28925e-07
1.28954e-07
1.28976e-07
1.28969e-07
1.28989e-07
1.29002e-07
1.29009e-07
1.29035e-07
1.2905e-07
1.2906e-07
1.2906e-07
1.29075e-07
1.29074e-07
1.29099e-07
1.29115e-07
1.29124e-07
1.29145e-07
1.29157e-07
1.29169e-07
1.29185e-07
1.29212e-07
1.2923e-07
1.29268e-07
1.29294e-07
1.29339e-07
1.29367e-07
1.29425e-07
1.29461e-07
1.29538e-07
1.29581e-07
1.29739e-07
1.29748e-07
1.3146e-07
1.36228e-07
4.94599e-08
1.2387e-07
1.23999e-07
1.2458e-07
1.25161e-07
1.25651e-07
1.26052e-07
1.26385e-07
1.26663e-07
1.269e-07
1.27102e-07
1.27279e-07
1.2743e-07
1.27566e-07
1.27683e-07
1.2779e-07
1.27883e-07
1.27969e-07
1.28043e-07
1.28113e-07
1.28174e-07
1.28232e-07
1.28282e-07
1.28331e-07
1.28373e-07
1.28413e-07
1.28447e-07
1.28482e-07
1.28512e-07
1.28541e-07
1.28567e-07
1.28593e-07
1.28617e-07
1.28635e-07
1.28651e-07
1.28672e-07
1.28692e-07
1.28708e-07
1.2872e-07
1.28738e-07
1.28753e-07
1.28761e-07
1.28768e-07
1.2879e-07
1.28799e-07
1.28792e-07
1.28806e-07
1.28817e-07
1.28824e-07
1.28837e-07
1.28843e-07
1.28854e-07
1.28861e-07
1.28861e-07
1.28863e-07
1.28868e-07
1.28872e-07
1.28874e-07
1.28874e-07
1.28899e-07
1.28905e-07
1.28887e-07
1.28899e-07
1.28928e-07
1.2895e-07
1.28943e-07
1.28963e-07
1.28977e-07
1.28984e-07
1.29009e-07
1.29025e-07
1.29035e-07
1.29036e-07
1.29051e-07
1.2905e-07
1.29074e-07
1.29091e-07
1.291e-07
1.29121e-07
1.29133e-07
1.29146e-07
1.29162e-07
1.29189e-07
1.29206e-07
1.29245e-07
1.2927e-07
1.29315e-07
1.29344e-07
1.29402e-07
1.29438e-07
1.29514e-07
1.29557e-07
1.29715e-07
1.29723e-07
1.31502e-07
1.36254e-07
5.17697e-08
1.23868e-07
1.23979e-07
1.24549e-07
1.25124e-07
1.25611e-07
1.26011e-07
1.26344e-07
1.26622e-07
1.26859e-07
1.27061e-07
1.27239e-07
1.27391e-07
1.27527e-07
1.27645e-07
1.27752e-07
1.27846e-07
1.27932e-07
1.28006e-07
1.28077e-07
1.28138e-07
1.28197e-07
1.28247e-07
1.28296e-07
1.28338e-07
1.28378e-07
1.28413e-07
1.28449e-07
1.28479e-07
1.28508e-07
1.28534e-07
1.2856e-07
1.28585e-07
1.28603e-07
1.28619e-07
1.2864e-07
1.2866e-07
1.28677e-07
1.28689e-07
1.28707e-07
1.28722e-07
1.28731e-07
1.28738e-07
1.28759e-07
1.28769e-07
1.28762e-07
1.28776e-07
1.28787e-07
1.28795e-07
1.28808e-07
1.28814e-07
1.28825e-07
1.28832e-07
1.28832e-07
1.28834e-07
1.28839e-07
1.28844e-07
1.28846e-07
1.28846e-07
1.28871e-07
1.28877e-07
1.28859e-07
1.28871e-07
1.289e-07
1.28922e-07
1.28916e-07
1.28937e-07
1.2895e-07
1.28958e-07
1.28982e-07
1.28998e-07
1.29009e-07
1.2901e-07
1.29025e-07
1.29024e-07
1.29049e-07
1.29066e-07
1.29075e-07
1.29096e-07
1.29108e-07
1.29121e-07
1.29137e-07
1.29164e-07
1.29182e-07
1.2922e-07
1.29245e-07
1.29291e-07
1.29319e-07
1.29377e-07
1.29413e-07
1.29489e-07
1.29532e-07
1.29691e-07
1.29696e-07
1.31545e-07
1.36281e-07
5.41849e-08
1.23866e-07
1.23959e-07
1.24516e-07
1.25085e-07
1.2557e-07
1.25969e-07
1.26301e-07
1.26578e-07
1.26817e-07
1.27019e-07
1.27196e-07
1.27349e-07
1.27486e-07
1.27604e-07
1.27712e-07
1.27806e-07
1.27893e-07
1.27967e-07
1.28038e-07
1.281e-07
1.28159e-07
1.2821e-07
1.28259e-07
1.28302e-07
1.28342e-07
1.28377e-07
1.28413e-07
1.28443e-07
1.28473e-07
1.28499e-07
1.28526e-07
1.28551e-07
1.28569e-07
1.28585e-07
1.28607e-07
1.28627e-07
1.28644e-07
1.28656e-07
1.28674e-07
1.2869e-07
1.28699e-07
1.28706e-07
1.28727e-07
1.28738e-07
1.28731e-07
1.28745e-07
1.28756e-07
1.28764e-07
1.28777e-07
1.28783e-07
1.28794e-07
1.28802e-07
1.28802e-07
1.28803e-07
1.28809e-07
1.28814e-07
1.28816e-07
1.28816e-07
1.28841e-07
1.28848e-07
1.2883e-07
1.28842e-07
1.28871e-07
1.28893e-07
1.28887e-07
1.28909e-07
1.28922e-07
1.2893e-07
1.28954e-07
1.28969e-07
1.28982e-07
1.28982e-07
1.28998e-07
1.28998e-07
1.29022e-07
1.29039e-07
1.29048e-07
1.29069e-07
1.29082e-07
1.29095e-07
1.29111e-07
1.29138e-07
1.29156e-07
1.29194e-07
1.29219e-07
1.29265e-07
1.29293e-07
1.29351e-07
1.29387e-07
1.29463e-07
1.29506e-07
1.29664e-07
1.29668e-07
1.31589e-07
1.36306e-07
5.67064e-08
1.23863e-07
1.23939e-07
1.24483e-07
1.25045e-07
1.25527e-07
1.25924e-07
1.26256e-07
1.26533e-07
1.26771e-07
1.26974e-07
1.27152e-07
1.27305e-07
1.27443e-07
1.27561e-07
1.2767e-07
1.27764e-07
1.27851e-07
1.27926e-07
1.27998e-07
1.2806e-07
1.2812e-07
1.28171e-07
1.2822e-07
1.28263e-07
1.28304e-07
1.2834e-07
1.28376e-07
1.28406e-07
1.28436e-07
1.28463e-07
1.28489e-07
1.28515e-07
1.28534e-07
1.2855e-07
1.28572e-07
1.28592e-07
1.28609e-07
1.28621e-07
1.28639e-07
1.28655e-07
1.28665e-07
1.28672e-07
1.28693e-07
1.28704e-07
1.28698e-07
1.28711e-07
1.28723e-07
1.28731e-07
1.28744e-07