/*--------------------------------*- C++ -*----------------------------------*\
| =========                 |                                                 |
| \\      /  F ield         | OpenFOAM: The Open Source CFD Toolbox           |
|  \\    /   O peration     | Version:  v2012                                 |
|   \\  /    A nd           | Website:  www.openfoam.com                      |
|    \\/     M anipulation  |                                                 |
\*---------------------------------------------------------------------------*/
FoamFile
{
    version     2.0;
    format      ascii;
    class       volVectorField;
    location    "15.5";
    object      wallShearStress;
}
// * * * * * * * * * * * * * * * * * * * * * * * * * * * * * * * * * * * * * //

dimensions      [0 2 -2 0 0 0 0];


internalField   uniform (0 0 0);

boundaryField
{
    inlet
    {
        type            calculated;
        value           uniform (0 0 0);
    }
    outlet
    {
        type            calculated;
        value           uniform (0 0 0);
    }
    topWall
    {
        type            calculated;
        value           nonuniform List<vector> 
545
(
(3.11481e-08 -2.18945e-08 0)
(3.1223e-08 -6.1415e-08 0)
(3.11796e-08 -1.02511e-07 0)
(3.11051e-08 -1.42342e-07 0)
(3.10551e-08 -1.80442e-07 0)
(3.10008e-08 -2.17316e-07 0)
(3.09388e-08 -2.53277e-07 0)
(3.08705e-08 -2.88307e-07 0)
(3.07966e-08 -3.22331e-07 0)
(3.07174e-08 -3.55345e-07 0)
(3.06336e-08 -3.87395e-07 0)
(3.05454e-08 -4.18517e-07 0)
(3.04534e-08 -4.48733e-07 0)
(3.0358e-08 -4.78062e-07 0)
(3.02595e-08 -5.06525e-07 0)
(3.01583e-08 -5.34145e-07 0)
(3.00547e-08 -5.60945e-07 0)
(2.99491e-08 -5.86948e-07 0)
(2.98417e-08 -6.12176e-07 0)
(2.97329e-08 -6.36649e-07 0)
(2.96229e-08 -6.60389e-07 0)
(2.95118e-08 -6.83417e-07 0)
(2.94001e-08 -7.05753e-07 0)
(2.92877e-08 -7.27417e-07 0)
(2.91751e-08 -7.48429e-07 0)
(2.90622e-08 -7.68808e-07 0)
(2.89493e-08 -7.88573e-07 0)
(2.88366e-08 -8.07741e-07 0)
(2.87242e-08 -8.26331e-07 0)
(2.86121e-08 -8.44361e-07 0)
(2.85006e-08 -8.61846e-07 0)
(2.83897e-08 -8.78804e-07 0)
(2.82795e-08 -8.95251e-07 0)
(2.81702e-08 -9.11202e-07 0)
(2.80617e-08 -9.26672e-07 0)
(2.79542e-08 -9.41676e-07 0)
(2.78478e-08 -9.5623e-07 0)
(2.77425e-08 -9.70345e-07 0)
(2.76383e-08 -9.84037e-07 0)
(2.75353e-08 -9.97317e-07 0)
(2.74335e-08 -1.0102e-06 0)
(2.7333e-08 -1.0227e-06 0)
(2.72338e-08 -1.03482e-06 0)
(2.71359e-08 -1.04658e-06 0)
(2.70394e-08 -1.05799e-06 0)
(2.69443e-08 -1.06906e-06 0)
(2.68505e-08 -1.0798e-06 0)
(2.67581e-08 -1.09022e-06 0)
(2.66671e-08 -1.10033e-06 0)
(2.65774e-08 -1.11014e-06 0)
(2.64892e-08 -1.11966e-06 0)
(2.64024e-08 -1.1289e-06 0)
(2.63169e-08 -1.13786e-06 0)
(2.62328e-08 -1.14656e-06 0)
(2.61501e-08 -1.15501e-06 0)
(2.60688e-08 -1.1632e-06 0)
(2.59888e-08 -1.17116e-06 0)
(2.59101e-08 -1.17888e-06 0)
(2.58327e-08 -1.18638e-06 0)
(2.57566e-08 -1.19365e-06 0)
(2.56818e-08 -1.20072e-06 0)
(2.56083e-08 -1.20758e-06 0)
(2.5536e-08 -1.21423e-06 0)
(2.54649e-08 -1.2207e-06 0)
(2.5395e-08 -1.22697e-06 0)
(2.53262e-08 -1.23307e-06 0)
(2.52586e-08 -1.23899e-06 0)
(2.51921e-08 -1.24473e-06 0)
(2.51267e-08 -1.25032e-06 0)
(2.50622e-08 -1.25572e-06 0)
(2.49998e-08 -1.261e-06 0)
(2.49328e-08 -1.26611e-06 0)
(2.48705e-08 -1.27098e-06 0)
(2.48182e-08 -1.27576e-06 0)
(2.4765e-08 -1.28048e-06 0)
(2.47118e-08 -1.28513e-06 0)
(2.46587e-08 -1.28979e-06 0)
(2.46057e-08 -1.29442e-06 0)
(2.45527e-08 -1.29901e-06 0)
(2.44998e-08 -1.30356e-06 0)
(2.44469e-08 -1.30809e-06 0)
(2.43941e-08 -1.31258e-06 0)
(2.43414e-08 -1.31705e-06 0)
(2.42887e-08 -1.32149e-06 0)
(2.4236e-08 -1.32589e-06 0)
(2.41835e-08 -1.33027e-06 0)
(2.4131e-08 -1.33462e-06 0)
(2.40785e-08 -1.33894e-06 0)
(2.40262e-08 -1.34323e-06 0)
(2.39739e-08 -1.34749e-06 0)
(2.39217e-08 -1.35172e-06 0)
(2.38694e-08 -1.35592e-06 0)
(2.38178e-08 -1.36012e-06 0)
(2.37638e-08 -1.36417e-06 0)
(2.37191e-08 -1.3684e-06 0)
(2.36301e-08 -1.37252e-06 0)
(2.35381e-08 -1.37596e-06 0)
(2.34965e-08 -1.37946e-06 0)
(2.34537e-08 -1.38283e-06 0)
(2.34129e-08 -1.38597e-06 0)
(2.33721e-08 -1.38928e-06 0)
(2.33312e-08 -1.3926e-06 0)
(2.329e-08 -1.39591e-06 0)
(2.32488e-08 -1.39921e-06 0)
(2.32074e-08 -1.40251e-06 0)
(2.31658e-08 -1.40582e-06 0)
(2.3124e-08 -1.40913e-06 0)
(2.3082e-08 -1.41244e-06 0)
(2.30399e-08 -1.41575e-06 0)
(2.29976e-08 -1.41907e-06 0)
(2.29552e-08 -1.42238e-06 0)
(2.29125e-08 -1.4257e-06 0)
(2.28697e-08 -1.42902e-06 0)
(2.28266e-08 -1.43234e-06 0)
(2.27834e-08 -1.43566e-06 0)
(2.274e-08 -1.43899e-06 0)
(2.26965e-08 -1.44231e-06 0)
(2.26527e-08 -1.44564e-06 0)
(2.26087e-08 -1.44897e-06 0)
(2.25646e-08 -1.4523e-06 0)
(2.25203e-08 -1.45563e-06 0)
(2.24757e-08 -1.45896e-06 0)
(2.2431e-08 -1.46229e-06 0)
(2.23861e-08 -1.46563e-06 0)
(2.2341e-08 -1.46896e-06 0)
(2.22957e-08 -1.4723e-06 0)
(2.22503e-08 -1.47564e-06 0)
(2.22046e-08 -1.47898e-06 0)
(2.21587e-08 -1.48232e-06 0)
(2.21127e-08 -1.48566e-06 0)
(2.20664e-08 -1.489e-06 0)
(2.202e-08 -1.49234e-06 0)
(2.19733e-08 -1.49568e-06 0)
(2.19265e-08 -1.49903e-06 0)
(2.18794e-08 -1.50237e-06 0)
(2.18322e-08 -1.50572e-06 0)
(2.17848e-08 -1.50906e-06 0)
(2.17371e-08 -1.51241e-06 0)
(2.16893e-08 -1.51576e-06 0)
(2.16413e-08 -1.51911e-06 0)
(2.15931e-08 -1.52245e-06 0)
(2.15446e-08 -1.5258e-06 0)
(2.1496e-08 -1.52915e-06 0)
(2.14472e-08 -1.5325e-06 0)
(2.13982e-08 -1.53585e-06 0)
(2.1349e-08 -1.5392e-06 0)
(2.12996e-08 -1.54255e-06 0)
(2.12499e-08 -1.5459e-06 0)
(2.12001e-08 -1.54925e-06 0)
(2.11501e-08 -1.5526e-06 0)
(2.10999e-08 -1.55595e-06 0)
(2.10495e-08 -1.5593e-06 0)
(2.09988e-08 -1.56265e-06 0)
(2.0948e-08 -1.566e-06 0)
(2.0897e-08 -1.56935e-06 0)
(2.08458e-08 -1.5727e-06 0)
(2.07943e-08 -1.57605e-06 0)
(2.07427e-08 -1.57939e-06 0)
(2.06909e-08 -1.58274e-06 0)
(2.06389e-08 -1.58609e-06 0)
(2.05866e-08 -1.58943e-06 0)
(2.05342e-08 -1.59278e-06 0)
(2.04815e-08 -1.59613e-06 0)
(2.04287e-08 -1.59947e-06 0)
(2.03756e-08 -1.60281e-06 0)
(2.03224e-08 -1.60616e-06 0)
(2.02689e-08 -1.6095e-06 0)
(2.02153e-08 -1.61284e-06 0)
(2.01614e-08 -1.61618e-06 0)
(2.01073e-08 -1.61952e-06 0)
(2.00531e-08 -1.62286e-06 0)
(1.99986e-08 -1.62619e-06 0)
(1.99439e-08 -1.62953e-06 0)
(1.9889e-08 -1.63286e-06 0)
(1.98339e-08 -1.6362e-06 0)
(1.97786e-08 -1.63953e-06 0)
(1.97231e-08 -1.64286e-06 0)
(1.96674e-08 -1.64618e-06 0)
(1.96115e-08 -1.64951e-06 0)
(1.95554e-08 -1.65284e-06 0)
(1.94991e-08 -1.65616e-06 0)
(1.94426e-08 -1.65948e-06 0)
(1.93858e-08 -1.6628e-06 0)
(1.93289e-08 -1.66612e-06 0)
(1.92718e-08 -1.66943e-06 0)
(1.92144e-08 -1.67275e-06 0)
(1.91569e-08 -1.67606e-06 0)
(1.90991e-08 -1.67937e-06 0)
(1.90412e-08 -1.68267e-06 0)
(1.8983e-08 -1.68598e-06 0)
(1.89247e-08 -1.68928e-06 0)
(1.88661e-08 -1.69258e-06 0)
(1.88073e-08 -1.69588e-06 0)
(1.87484e-08 -1.69917e-06 0)
(1.86892e-08 -1.70247e-06 0)
(1.86298e-08 -1.70576e-06 0)
(1.85702e-08 -1.70904e-06 0)
(1.85104e-08 -1.71233e-06 0)
(1.84505e-08 -1.71561e-06 0)
(1.83903e-08 -1.71889e-06 0)
(1.83299e-08 -1.72216e-06 0)
(1.82693e-08 -1.72543e-06 0)
(1.82085e-08 -1.7287e-06 0)
(1.81475e-08 -1.73197e-06 0)
(1.80863e-08 -1.73523e-06 0)
(1.80249e-08 -1.73849e-06 0)
(1.79633e-08 -1.74175e-06 0)
(1.79015e-08 -1.745e-06 0)
(1.78395e-08 -1.74825e-06 0)
(1.77773e-08 -1.75149e-06 0)
(1.77149e-08 -1.75473e-06 0)
(1.76523e-08 -1.75797e-06 0)
(1.75895e-08 -1.7612e-06 0)
(1.75265e-08 -1.76443e-06 0)
(1.74633e-08 -1.76766e-06 0)
(1.73999e-08 -1.77088e-06 0)
(1.73363e-08 -1.7741e-06 0)
(1.72725e-08 -1.77731e-06 0)
(1.72085e-08 -1.78052e-06 0)
(1.71444e-08 -1.78372e-06 0)
(1.708e-08 -1.78692e-06 0)
(1.70154e-08 -1.79012e-06 0)
(1.69507e-08 -1.79331e-06 0)
(1.68857e-08 -1.79649e-06 0)
(1.68205e-08 -1.79967e-06 0)
(1.67552e-08 -1.80285e-06 0)
(1.66897e-08 -1.80602e-06 0)
(1.66239e-08 -1.80919e-06 0)
(1.6558e-08 -1.81235e-06 0)
(1.64919e-08 -1.8155e-06 0)
(1.64256e-08 -1.81865e-06 0)
(1.63591e-08 -1.8218e-06 0)
(1.62924e-08 -1.82494e-06 0)
(1.62256e-08 -1.82807e-06 0)
(1.61585e-08 -1.8312e-06 0)
(1.60913e-08 -1.83433e-06 0)
(1.60239e-08 -1.83744e-06 0)
(1.59563e-08 -1.84056e-06 0)
(1.58885e-08 -1.84366e-06 0)
(1.58205e-08 -1.84676e-06 0)
(1.57523e-08 -1.84986e-06 0)
(1.5684e-08 -1.85294e-06 0)
(1.56155e-08 -1.85602e-06 0)
(1.55468e-08 -1.8591e-06 0)
(1.54779e-08 -1.86217e-06 0)
(1.54088e-08 -1.86523e-06 0)
(1.53396e-08 -1.86829e-06 0)
(1.52702e-08 -1.87134e-06 0)
(1.52006e-08 -1.87438e-06 0)
(1.51308e-08 -1.87742e-06 0)
(1.50609e-08 -1.88044e-06 0)
(1.49908e-08 -1.88347e-06 0)
(1.49205e-08 -1.88648e-06 0)
(1.48501e-08 -1.88949e-06 0)
(1.47794e-08 -1.89249e-06 0)
(1.47087e-08 -1.89548e-06 0)
(1.46377e-08 -1.89847e-06 0)
(1.45666e-08 -1.90145e-06 0)
(1.44953e-08 -1.90442e-06 0)
(1.44238e-08 -1.90738e-06 0)
(1.43522e-08 -1.91034e-06 0)
(1.42804e-08 -1.91328e-06 0)
(1.42085e-08 -1.91622e-06 0)
(1.41364e-08 -1.91916e-06 0)
(1.40641e-08 -1.92208e-06 0)
(1.3992e-08 -1.92501e-06 0)
(1.39176e-08 -1.92786e-06 0)
(1.38492e-08 -1.93086e-06 0)
(1.37556e-08 -1.93372e-06 0)
(1.36573e-08 -1.93624e-06 0)
(1.35881e-08 -1.93901e-06 0)
(1.35228e-08 -1.94163e-06 0)
(1.34607e-08 -1.9441e-06 0)
(1.33976e-08 -1.9467e-06 0)
(1.33338e-08 -1.94934e-06 0)
(1.32693e-08 -1.95198e-06 0)
(1.32041e-08 -1.95463e-06 0)
(1.31382e-08 -1.95729e-06 0)
(1.30715e-08 -1.95997e-06 0)
(1.3004e-08 -1.96267e-06 0)
(1.29358e-08 -1.96538e-06 0)
(1.28668e-08 -1.9681e-06 0)
(1.27969e-08 -1.97085e-06 0)
(1.27263e-08 -1.9736e-06 0)
(1.26549e-08 -1.97637e-06 0)
(1.25827e-08 -1.97915e-06 0)
(1.25097e-08 -1.98195e-06 0)
(1.24358e-08 -1.98476e-06 0)
(1.23611e-08 -1.98759e-06 0)
(1.22856e-08 -1.99043e-06 0)
(1.22092e-08 -1.99328e-06 0)
(1.2132e-08 -1.99615e-06 0)
(1.20539e-08 -1.99902e-06 0)
(1.1975e-08 -2.00191e-06 0)
(1.18953e-08 -2.00482e-06 0)
(1.18146e-08 -2.00773e-06 0)
(1.17331e-08 -2.01066e-06 0)
(1.16507e-08 -2.01359e-06 0)
(1.15675e-08 -2.01654e-06 0)
(1.14834e-08 -2.0195e-06 0)
(1.13983e-08 -2.02247e-06 0)
(1.13124e-08 -2.02544e-06 0)
(1.12256e-08 -2.02843e-06 0)
(1.11379e-08 -2.03143e-06 0)
(1.10494e-08 -2.03443e-06 0)
(1.09599e-08 -2.03745e-06 0)
(1.08695e-08 -2.04047e-06 0)
(1.07782e-08 -2.0435e-06 0)
(1.0686e-08 -2.04653e-06 0)
(1.05928e-08 -2.04957e-06 0)
(1.04988e-08 -2.05262e-06 0)
(1.04038e-08 -2.05567e-06 0)
(1.03079e-08 -2.05873e-06 0)
(1.02111e-08 -2.0618e-06 0)
(1.01134e-08 -2.06486e-06 0)
(1.00148e-08 -2.06793e-06 0)
(9.91519e-09 -2.071e-06 0)
(9.81468e-09 -2.07408e-06 0)
(9.71325e-09 -2.07716e-06 0)
(9.61089e-09 -2.08023e-06 0)
(9.50761e-09 -2.08331e-06 0)
(9.40339e-09 -2.08639e-06 0)
(9.29825e-09 -2.08946e-06 0)
(9.19219e-09 -2.09254e-06 0)
(9.0852e-09 -2.09561e-06 0)
(8.97729e-09 -2.09868e-06 0)
(8.86845e-09 -2.10174e-06 0)
(8.7587e-09 -2.1048e-06 0)
(8.64803e-09 -2.10786e-06 0)
(8.53645e-09 -2.11091e-06 0)
(8.42397e-09 -2.11395e-06 0)
(8.31057e-09 -2.11698e-06 0)
(8.19628e-09 -2.12001e-06 0)
(8.08109e-09 -2.12302e-06 0)
(7.96501e-09 -2.12602e-06 0)
(7.84804e-09 -2.12902e-06 0)
(7.7302e-09 -2.132e-06 0)
(7.61148e-09 -2.13496e-06 0)
(7.4919e-09 -2.13792e-06 0)
(7.37147e-09 -2.14085e-06 0)
(7.25018e-09 -2.14377e-06 0)
(7.12806e-09 -2.14667e-06 0)
(7.00511e-09 -2.14956e-06 0)
(6.88133e-09 -2.15242e-06 0)
(6.75675e-09 -2.15527e-06 0)
(6.63137e-09 -2.15809e-06 0)
(6.50521e-09 -2.16089e-06 0)
(6.37827e-09 -2.16366e-06 0)
(6.25058e-09 -2.16641e-06 0)
(6.12213e-09 -2.16913e-06 0)
(5.99296e-09 -2.17183e-06 0)
(5.86307e-09 -2.17449e-06 0)
(5.73248e-09 -2.17713e-06 0)
(5.60121e-09 -2.17973e-06 0)
(5.46927e-09 -2.1823e-06 0)
(5.33668e-09 -2.18484e-06 0)
(5.20346e-09 -2.18734e-06 0)
(5.06964e-09 -2.1898e-06 0)
(4.93522e-09 -2.19222e-06 0)
(4.80024e-09 -2.19461e-06 0)
(4.66472e-09 -2.19695e-06 0)
(4.52867e-09 -2.19925e-06 0)
(4.39212e-09 -2.20151e-06 0)
(4.2551e-09 -2.20372e-06 0)
(4.11763e-09 -2.20588e-06 0)
(3.97973e-09 -2.208e-06 0)
(3.84145e-09 -2.21006e-06 0)
(3.70279e-09 -2.21208e-06 0)
(3.56379e-09 -2.21404e-06 0)
(3.42449e-09 -2.21594e-06 0)
(3.28491e-09 -2.21779e-06 0)
(3.14507e-09 -2.21958e-06 0)
(3.00503e-09 -2.22131e-06 0)
(2.8648e-09 -2.22298e-06 0)
(2.72442e-09 -2.22458e-06 0)
(2.58393e-09 -2.22613e-06 0)
(2.44337e-09 -2.2276e-06 0)
(2.30276e-09 -2.22901e-06 0)
(2.16215e-09 -2.23035e-06 0)
(2.02157e-09 -2.23161e-06 0)
(1.88106e-09 -2.23281e-06 0)
(1.74067e-09 -2.23392e-06 0)
(1.60043e-09 -2.23497e-06 0)
(1.46039e-09 -2.23593e-06 0)
(1.32058e-09 -2.23682e-06 0)
(1.18106e-09 -2.23762e-06 0)
(1.04185e-09 -2.23834e-06 0)
(9.03015e-10 -2.23898e-06 0)
(7.64592e-10 -2.23953e-06 0)
(6.26626e-10 -2.23999e-06 0)
(4.89164e-10 -2.24036e-06 0)
(3.52252e-10 -2.24064e-06 0)
(2.15939e-10 -2.24083e-06 0)
(8.02706e-11 -2.24093e-06 0)
(-5.47034e-11 -2.24093e-06 0)
(-1.88935e-10 -2.24083e-06 0)
(-3.22374e-10 -2.24063e-06 0)
(-4.54972e-10 -2.24033e-06 0)
(-5.86678e-10 -2.23992e-06 0)
(-7.17441e-10 -2.23942e-06 0)
(-8.47212e-10 -2.23881e-06 0)
(-9.75939e-10 -2.23809e-06 0)
(-1.10357e-09 -2.23727e-06 0)
(-1.23005e-09 -2.23633e-06 0)
(-1.35534e-09 -2.23528e-06 0)
(-1.47937e-09 -2.23413e-06 0)
(-1.60209e-09 -2.23286e-06 0)
(-1.72346e-09 -2.23147e-06 0)
(-1.84342e-09 -2.22997e-06 0)
(-1.96191e-09 -2.22835e-06 0)
(-2.07889e-09 -2.22661e-06 0)
(-2.1943e-09 -2.22476e-06 0)
(-2.30808e-09 -2.22278e-06 0)
(-2.42018e-09 -2.22068e-06 0)
(-2.53055e-09 -2.21847e-06 0)
(-2.63914e-09 -2.21613e-06 0)
(-2.7459e-09 -2.21366e-06 0)
(-2.85077e-09 -2.21107e-06 0)
(-2.95369e-09 -2.20836e-06 0)
(-3.05463e-09 -2.20552e-06 0)
(-3.15353e-09 -2.20256e-06 0)
(-3.25034e-09 -2.19947e-06 0)
(-3.34501e-09 -2.19625e-06 0)
(-3.43751e-09 -2.19291e-06 0)
(-3.52778e-09 -2.18943e-06 0)
(-3.61578e-09 -2.18584e-06 0)
(-3.70148e-09 -2.18211e-06 0)
(-3.78483e-09 -2.17826e-06 0)
(-3.86579e-09 -2.17428e-06 0)
(-3.94434e-09 -2.17018e-06 0)
(-4.02044e-09 -2.16595e-06 0)
(-4.09407e-09 -2.16159e-06 0)
(-4.16519e-09 -2.15711e-06 0)
(-4.23377e-09 -2.1525e-06 0)
(-4.29981e-09 -2.14777e-06 0)
(-4.36326e-09 -2.14291e-06 0)
(-4.42413e-09 -2.13793e-06 0)
(-4.48237e-09 -2.13283e-06 0)
(-4.53798e-09 -2.12761e-06 0)
(-4.59095e-09 -2.12227e-06 0)
(-4.64124e-09 -2.11681e-06 0)
(-4.68884e-09 -2.11123e-06 0)
(-4.73373e-09 -2.10554e-06 0)
(-4.77588e-09 -2.09973e-06 0)
(-4.81527e-09 -2.0938e-06 0)
(-4.85181e-09 -2.08777e-06 0)
(-4.88545e-09 -2.08161e-06 0)
(-4.91584e-09 -2.07542e-06 0)
(-4.94958e-09 -2.06892e-06 0)
(-4.97468e-09 -2.06249e-06 0)
(-4.97642e-09 -2.05542e-06 0)
(-4.98787e-09 -2.04716e-06 0)
(-5.01306e-09 -2.039e-06 0)
(-5.03022e-09 -2.03098e-06 0)
(-5.04311e-09 -2.02282e-06 0)
(-5.05257e-09 -2.01462e-06 0)
(-5.05851e-09 -2.00642e-06 0)
(-5.06095e-09 -1.99822e-06 0)
(-5.06004e-09 -1.99003e-06 0)
(-5.0559e-09 -1.98184e-06 0)
(-5.04866e-09 -1.97365e-06 0)
(-5.03845e-09 -1.96548e-06 0)
(-5.02541e-09 -1.95733e-06 0)
(-5.00965e-09 -1.9492e-06 0)
(-4.9913e-09 -1.9411e-06 0)
(-4.97048e-09 -1.93303e-06 0)
(-4.94731e-09 -1.92499e-06 0)
(-4.9219e-09 -1.917e-06 0)
(-4.89435e-09 -1.90905e-06 0)
(-4.86477e-09 -1.90114e-06 0)
(-4.83325e-09 -1.89329e-06 0)
(-4.79987e-09 -1.88549e-06 0)
(-4.76473e-09 -1.87774e-06 0)
(-4.72791e-09 -1.87005e-06 0)
(-4.68948e-09 -1.86243e-06 0)
(-4.6495e-09 -1.85486e-06 0)
(-4.60806e-09 -1.84737e-06 0)
(-4.56522e-09 -1.83994e-06 0)
(-4.52102e-09 -1.83258e-06 0)
(-4.47554e-09 -1.82529e-06 0)
(-4.42882e-09 -1.81808e-06 0)
(-4.38093e-09 -1.81095e-06 0)
(-4.33189e-09 -1.80389e-06 0)
(-4.28178e-09 -1.79692e-06 0)
(-4.23062e-09 -1.79002e-06 0)
(-4.17846e-09 -1.78321e-06 0)
(-4.12534e-09 -1.77649e-06 0)
(-4.0713e-09 -1.76985e-06 0)
(-4.01637e-09 -1.76331e-06 0)
(-3.9606e-09 -1.75685e-06 0)
(-3.90401e-09 -1.75048e-06 0)
(-3.84663e-09 -1.7442e-06 0)
(-3.7885e-09 -1.73802e-06 0)
(-3.72964e-09 -1.73193e-06 0)
(-3.67008e-09 -1.72594e-06 0)
(-3.60985e-09 -1.72005e-06 0)
(-3.54896e-09 -1.71425e-06 0)
(-3.48744e-09 -1.70855e-06 0)
(-3.42531e-09 -1.70296e-06 0)
(-3.36259e-09 -1.69746e-06 0)
(-3.29929e-09 -1.69207e-06 0)
(-3.23544e-09 -1.68678e-06 0)
(-3.17104e-09 -1.68159e-06 0)
(-3.10612e-09 -1.67651e-06 0)
(-3.04068e-09 -1.67153e-06 0)
(-2.97474e-09 -1.66666e-06 0)
(-2.90831e-09 -1.66189e-06 0)
(-2.8414e-09 -1.65724e-06 0)
(-2.77402e-09 -1.65269e-06 0)
(-2.70618e-09 -1.64825e-06 0)
(-2.6379e-09 -1.64393e-06 0)
(-2.56917e-09 -1.63971e-06 0)
(-2.50002e-09 -1.6356e-06 0)
(-2.43045e-09 -1.63161e-06 0)
(-2.36047e-09 -1.62773e-06 0)
(-2.29009e-09 -1.62396e-06 0)
(-2.21931e-09 -1.62031e-06 0)
(-2.14816e-09 -1.61677e-06 0)
(-2.07663e-09 -1.61335e-06 0)
(-2.00474e-09 -1.61004e-06 0)
(-1.9325e-09 -1.60685e-06 0)
(-1.85991e-09 -1.60378e-06 0)
(-1.78698e-09 -1.60083e-06 0)
(-1.71372e-09 -1.59799e-06 0)
(-1.64014e-09 -1.59527e-06 0)
(-1.56625e-09 -1.59267e-06 0)
(-1.49205e-09 -1.59019e-06 0)
(-1.41754e-09 -1.58783e-06 0)
(-1.34274e-09 -1.5856e-06 0)
(-1.26764e-09 -1.58348e-06 0)
(-1.19225e-09 -1.58148e-06 0)
(-1.11658e-09 -1.57961e-06 0)
(-1.04063e-09 -1.57786e-06 0)
(-9.64412e-10 -1.57624e-06 0)
(-8.87952e-10 -1.57473e-06 0)
(-8.11284e-10 -1.57336e-06 0)
(-7.34452e-10 -1.57207e-06 0)
(-6.5756e-10 -1.57105e-06 0)
(-5.80631e-10 -1.56968e-06 0)
(-5.04138e-10 -1.56999e-06 0)
(-4.27044e-10 -1.56516e-06 0)
(-3.53883e-10 -1.57725e-06 0)
(-2.66091e-10 -1.52955e-06 0)
(-2.27911e-10 -1.65476e-06 0)
(-1.21722e-10 -1.44499e-06 0)
)
;
    }
    bottomWall
    {
        type            calculated;
        value           nonuniform List<vector> 
449
(
(-48.5953 -0.964972 0)
(-19.7782 -0.00516109 0)
(-14.3685 -0.00113447 0)
(-12.0632 -0.000543257 0)
(-10.6679 -0.000346466 0)
(-9.69753 -0.000245285 0)
(-8.9891 -0.000174576 0)
(-8.49997 -0.000104187 0)
(-8.27333 -1.10232e-05 0)
(-8.42646 0.00016737 0)
(-9.43457 0.000322408 0)
(-10.6594 0.000298632 0)
(-11.5034 0.000188818 0)
(-11.971 0.000102724 0)
(-12.2192 5.38805e-05 0)
(-12.3475 2.57931e-05 0)
(-12.3999 7.44983e-06 0)
(-12.3998 -5.11163e-06 0)
(-12.3639 -1.31507e-05 0)
(-12.3071 -1.80842e-05 0)
(-12.2361 -2.10869e-05 0)
(-12.1576 -2.25548e-05 0)
(-12.0758 -2.31086e-05 0)
(-11.993 -2.31247e-05 0)
(-11.9106 -2.28658e-05 0)
(-11.8292 -2.24479e-05 0)
(-11.7494 -2.19191e-05 0)
(-11.6714 -2.13498e-05 0)
(-11.5953 -2.07763e-05 0)
(-11.521 -2.02141e-05 0)
(-11.4486 -1.96687e-05 0)
(-11.3779 -1.91437e-05 0)
(-11.309 -1.86555e-05 0)
(-11.2415 -1.81885e-05 0)
(-11.1756 -1.77218e-05 0)
(-11.1113 -1.72583e-05 0)
(-11.0485 -1.68124e-05 0)
(-10.9872 -1.6376e-05 0)
(-10.9273 -1.59581e-05 0)
(-10.8688 -1.55475e-05 0)
(-10.8118 -1.51534e-05 0)
(-10.7559 -1.47665e-05 0)
(-10.7015 -1.43942e-05 0)
(-10.6482 -1.40392e-05 0)
(-10.5962 -1.37016e-05 0)
(-10.5451 -1.3367e-05 0)
(-10.4954 -1.30336e-05 0)
(-10.4467 -1.27111e-05 0)
(-10.3992 -1.23996e-05 0)
(-10.3526 -1.21e-05 0)
(-10.3072 -1.18069e-05 0)
(-10.2626 -1.15246e-05 0)
(-10.2192 -1.12501e-05 0)
(-10.1765 -1.09837e-05 0)
(-10.1349 -1.07256e-05 0)
(-10.094 -1.04753e-05 0)
(-10.0541 -1.0233e-05 0)
(-10.015 -9.99851e-06 0)
(-9.97673 -9.77011e-06 0)
(-9.93913 -9.55127e-06 0)
(-9.90243 -9.34328e-06 0)
(-9.86628 -9.14221e-06 0)
(-9.83098 -8.93971e-06 0)
(-9.79626 -8.74492e-06 0)
(-9.76233 -8.5526e-06 0)
(-9.72897 -8.37051e-06 0)
(-9.69632 -8.18956e-06 0)
(-9.66423 -8.01841e-06 0)
(-9.63278 -7.84914e-06 0)
(-9.60189 -7.68727e-06 0)
(-9.57159 -7.52889e-06 0)
(-9.54182 -7.37626e-06 0)
(-9.5126 -7.22662e-06 0)
(-9.4839 -7.08273e-06 0)
(-9.4557 -6.94128e-06 0)
(-9.428 -6.80486e-06 0)
(-9.40078 -6.67238e-06 0)
(-9.37402 -6.54218e-06 0)
(-9.34773 -6.41828e-06 0)
(-9.32186 -6.29493e-06 0)
(-9.29645 -6.17826e-06 0)
(-9.27141 -6.06112e-06 0)
(-9.24684 -5.95136e-06 0)
(-9.22259 -5.84072e-06 0)
(-9.19881 -5.73503e-06 0)
(-9.17532 -5.63185e-06 0)
(-9.15229 -5.53518e-06 0)
(-9.12949 -5.44021e-06 0)
(-9.10714 -5.34262e-06 0)
(-9.08504 -5.25194e-06 0)
(-9.06335 -5.15808e-06 0)
(-9.04193 -5.07319e-06 0)
(-9.02085 -4.98503e-06 0)
(-9.00008 -4.90176e-06 0)
(-8.97959 -4.81982e-06 0)
(-8.95942 -4.74078e-06 0)
(-8.93951 -4.66227e-06 0)
(-8.9199 -4.58605e-06 0)
(-8.90055 -4.5115e-06 0)
(-8.88149 -4.43966e-06 0)
(-8.86266 -4.36723e-06 0)
(-8.84413 -4.29814e-06 0)
(-8.8258 -4.23109e-06 0)
(-8.80776 -4.1628e-06 0)
(-8.78994 -4.09879e-06 0)
(-8.77237 -4.03342e-06 0)
(-8.75503 -3.97345e-06 0)
(-8.7379 -3.91245e-06 0)
(-8.72101 -3.8537e-06 0)
(-8.70431 -3.79607e-06 0)
(-8.68784 -3.73954e-06 0)
(-8.67156 -3.68379e-06 0)
(-8.65551 -3.62853e-06 0)
(-8.63964 -3.5749e-06 0)
(-8.62399 -3.52351e-06 0)
(-8.6085 -3.47203e-06 0)
(-8.59323 -3.42239e-06 0)
(-8.57811 -3.37424e-06 0)
(-8.56319 -3.3247e-06 0)
(-8.54844 -3.27595e-06 0)
(-8.5339 -3.22896e-06 0)
(-8.5195 -3.18251e-06 0)
(-8.50531 -3.1374e-06 0)
(-8.49125 -3.09437e-06 0)
(-8.47738 -3.05126e-06 0)
(-8.46365 -3.00841e-06 0)
(-8.4501 -2.96719e-06 0)
(-8.43668 -2.92676e-06 0)
(-8.42343 -2.88892e-06 0)
(-8.4103 -2.85143e-06 0)
(-8.39733 -2.81322e-06 0)
(-8.38449 -2.77777e-06 0)
(-8.37179 -2.73947e-06 0)
(-8.35923 -2.70406e-06 0)
(-8.34681 -2.66593e-06 0)
(-8.33455 -2.63062e-06 0)
(-8.32239 -2.59462e-06 0)
(-8.31041 -2.56119e-06 0)
(-8.29851 -2.52601e-06 0)
(-8.2868 -2.4958e-06 0)
(-8.27512 -2.46264e-06 0)
(-8.26367 -2.43178e-06 0)
(-8.25223 -2.40194e-06 0)
(-8.24101 -2.3715e-06 0)
(-8.2298 -2.34423e-06 0)
(-8.21879 -2.31613e-06 0)
(-8.20779 -2.29035e-06 0)
(-8.19697 -2.26249e-06 0)
(-8.18619 -2.2368e-06 0)
(-8.17557 -2.20879e-06 0)
(-8.16501 -2.18477e-06 0)
(-8.15456 -2.16025e-06 0)
(-8.14419 -2.13595e-06 0)
(-8.13392 -2.11101e-06 0)
(-8.12374 -2.08522e-06 0)
(-8.11368 -2.05856e-06 0)
(-8.10372 -2.03017e-06 0)
(-8.09389 -2.00283e-06 0)
(-8.08415 -1.97665e-06 0)
(-8.07453 -1.95219e-06 0)
(-8.06499 -1.92862e-06 0)
(-8.05556 -1.90799e-06 0)
(-8.04617 -1.88533e-06 0)
(-8.03692 -1.86308e-06 0)
(-8.0277 -1.84392e-06 0)
(-8.0186 -1.81925e-06 0)
(-8.00959 -1.79564e-06 0)
(-8.00068 -1.77312e-06 0)
(-7.99186 -1.7527e-06 0)
(-7.98311 -1.73258e-06 0)
(-7.97445 -1.71554e-06 0)
(-7.96583 -1.70132e-06 0)
(-7.95727 -1.68401e-06 0)
(-7.94926 -1.67495e-06 0)
(-7.94166 -1.66806e-06 0)
(-7.93406 -1.65427e-06 0)
(-7.92642 -1.64288e-06 0)
(-7.91876 -1.62759e-06 0)
(-7.9111 -1.60972e-06 0)
(-7.90344 -1.59187e-06 0)
(-7.89579 -1.57136e-06 0)
(-7.88817 -1.55306e-06 0)
(-7.88053 -1.5376e-06 0)
(-7.87289 -1.51973e-06 0)
(-7.86527 -1.5012e-06 0)
(-7.85765 -1.48056e-06 0)
(-7.85008 -1.45578e-06 0)
(-7.84256 -1.43263e-06 0)
(-7.83507 -1.41116e-06 0)
(-7.82761 -1.38815e-06 0)
(-7.82021 -1.36824e-06 0)
(-7.81281 -1.3489e-06 0)
(-7.80545 -1.32872e-06 0)
(-7.79812 -1.31109e-06 0)
(-7.7908 -1.29428e-06 0)
(-7.7835 -1.27594e-06 0)
(-7.77623 -1.26018e-06 0)
(-7.76895 -1.24428e-06 0)
(-7.76171 -1.22774e-06 0)
(-7.75446 -1.21337e-06 0)
(-7.74724 -1.19878e-06 0)
(-7.74001 -1.18331e-06 0)
(-7.73282 -1.17055e-06 0)
(-7.72559 -1.15647e-06 0)
(-7.71841 -1.14253e-06 0)
(-7.7112 -1.12959e-06 0)
(-7.70404 -1.11487e-06 0)
(-7.69686 -1.10324e-06 0)
(-7.68969 -1.08848e-06 0)
(-7.68255 -1.07639e-06 0)
(-7.67539 -1.06674e-06 0)
(-7.66822 -1.05361e-06 0)
(-7.66108 -1.04087e-06 0)
(-7.65393 -1.02873e-06 0)
(-7.6468 -1.00877e-06 0)
(-7.63979 -9.94943e-07 0)
(-7.6327 -9.8089e-07 0)
(-7.62573 -9.64667e-07 0)
(-7.61873 -9.57595e-07 0)
(-7.61171 -9.4575e-07 0)
(-7.60473 -9.3336e-07 0)
(-7.59774 -9.1873e-07 0)
(-7.59083 -9.04327e-07 0)
(-7.58391 -8.90783e-07 0)
(-7.57706 -8.73449e-07 0)
(-7.57027 -8.56019e-07 0)
(-7.56355 -8.39698e-07 0)
(-7.55688 -8.22579e-07 0)
(-7.55029 -8.10928e-07 0)
(-7.54366 -7.99486e-07 0)
(-7.53712 -7.84897e-07 0)
(-7.53059 -7.75036e-07 0)
(-7.52407 -7.65345e-07 0)
(-7.51756 -7.55535e-07 0)
(-7.51106 -7.47274e-07 0)
(-7.50456 -7.3877e-07 0)
(-7.49807 -7.23649e-07 0)
(-7.49169 -7.13201e-07 0)
(-7.48525 -6.985e-07 0)
(-7.47901 -6.84169e-07 0)
(-7.47269 -6.77421e-07 0)
(-7.46644 -6.65211e-07 0)
(-7.46022 -6.52467e-07 0)
(-7.45407 -6.40304e-07 0)
(-7.44795 -6.29153e-07 0)
(-7.44188 -6.15013e-07 0)
(-7.43591 -6.03976e-07 0)
(-7.42993 -5.93088e-07 0)
(-7.42405 -5.82959e-07 0)
(-7.41814 -5.7236e-07 0)
(-7.41235 -5.62675e-07 0)
(-7.40652 -5.55133e-07 0)
(-7.40075 -5.42972e-07 0)
(-7.39505 -5.35075e-07 0)
(-7.38933 -5.27205e-07 0)
(-7.38368 -5.17028e-07 0)
(-7.37806 -5.04009e-07 0)
(-7.37258 -4.9302e-07 0)
(-7.36708 -4.8428e-07 0)
(-7.36168 -4.74711e-07 0)
(-7.35628 -4.70648e-07 0)
(-7.35084 -4.64541e-07 0)
(-7.34547 -4.61432e-07 0)
(-7.33998 -4.5781e-07 0)
(-7.33458 -4.46633e-07 0)
(-7.32925 -4.38473e-07 0)
(-7.32393 -4.31653e-07 0)
(-7.31865 -4.2238e-07 0)
(-7.31344 -4.16542e-07 0)
(-7.3082 -4.10952e-07 0)
(-7.30302 -4.0361e-07 0)
(-7.29785 -3.96823e-07 0)
(-7.29274 -3.85201e-07 0)
(-7.28776 -3.72305e-07 0)
(-7.28289 -3.65596e-07 0)
(-7.27798 -3.62742e-07 0)
(-7.27307 -3.5463e-07 0)
(-7.26828 -3.50934e-07 0)
(-7.26336 -3.51292e-07 0)
(-7.25846 -3.42824e-07 0)
(-7.25368 -3.37228e-07 0)
(-7.24882 -3.35428e-07 0)
(-7.24399 -3.28493e-07 0)
(-7.23923 -3.24934e-07 0)
(-7.2344 -3.20656e-07 0)
(-7.22967 -3.12349e-07 0)
(-7.22498 -3.09473e-07 0)
(-7.22023 -3.05292e-07 0)
(-7.21557 -2.98679e-07 0)
(-7.21093 -2.96854e-07 0)
(-7.20622 -2.90316e-07 0)
(-7.20169 -2.85339e-07 0)
(-7.19703 -2.82486e-07 0)
(-7.1925 -2.75574e-07 0)
(-7.18797 -2.70779e-07 0)
(-7.18349 -2.69125e-07 0)
(-7.17892 -2.6662e-07 0)
(-7.17443 -2.61674e-07 0)
(-7.16994 -2.6124e-07 0)
(-7.16536 -2.60629e-07 0)
(-7.16078 -2.54894e-07 0)
(-7.15631 -2.50808e-07 0)
(-7.15178 -2.47956e-07 0)
(-7.14732 -2.43421e-07 0)
(-7.14286 -2.41816e-07 0)
(-7.13836 -2.37713e-07 0)
(-7.13395 -2.36371e-07 0)
(-7.1294 -2.37683e-07 0)
(-7.12485 -2.3153e-07 0)
(-7.12044 -2.25867e-07 0)
(-7.11601 -2.23047e-07 0)
(-7.11162 -2.16965e-07 0)
(-7.10734 -2.14278e-07 0)
(-7.10296 -2.13949e-07 0)
(-7.0986 -2.09305e-07 0)
(-7.09431 -2.07481e-07 0)
(-7.08993 -2.06225e-07 0)
(-7.08561 -1.9998e-07 0)
(-7.0814 -1.96071e-07 0)
(-7.07715 -1.93889e-07 0)
(-7.07295 -1.88822e-07 0)
(-7.06883 -1.86774e-07 0)
(-7.06463 -1.8605e-07 0)
(-7.06045 -1.81941e-07 0)
(-7.05634 -1.80344e-07 0)
(-7.05214 -1.79693e-07 0)
(-7.04798 -1.75608e-07 0)
(-7.04389 -1.73956e-07 0)
(-7.03971 -1.73068e-07 0)
(-7.03557 -1.69071e-07 0)
(-7.03149 -1.67421e-07 0)
(-7.02734 -1.66319e-07 0)
(-7.02323 -1.62274e-07 0)
(-7.0192 -1.61133e-07 0)
(-7.01505 -1.59598e-07 0)
(-7.01101 -1.56134e-07 0)
(-7.00696 -1.54698e-07 0)
(-7.0029 -1.53589e-07 0)
(-6.99882 -1.50612e-07 0)
(-6.99483 -1.48662e-07 0)
(-6.99077 -1.46386e-07 0)
(-6.98682 -1.44256e-07 0)
(-6.98279 -1.43577e-07 0)
(-6.97879 -1.42377e-07 0)
(-6.97473 -1.44143e-07 0)
(-6.97054 -1.44439e-07 0)
(-6.96638 -1.3808e-07 0)
(-6.96248 -1.34893e-07 0)
(-6.95842 -1.30892e-07 0)
(-6.95468 -1.26449e-07 0)
(-6.9508 -1.24886e-07 0)
(-6.94707 -1.22222e-07 0)
(-6.94327 -1.22086e-07 0)
(-6.93946 -1.17956e-07 0)
(-6.93543 -1.13253e-07 0)
(-6.93106 -1.09366e-07 0)
(-6.92692 -1.07336e-07 0)
(-6.92271 -1.0594e-07 0)
(-6.91867 -1.05998e-07 0)
(-6.91445 -1.08022e-07 0)
(-6.91024 -1.07699e-07 0)
(-6.90605 -1.06622e-07 0)
(-6.90193 -1.05756e-07 0)
(-6.89781 -1.03021e-07 0)
(-6.89391 -9.85893e-08 0)
(-6.89014 -9.68254e-08 0)
(-6.88637 -9.64436e-08 0)
(-6.88262 -9.37159e-08 0)
(-6.87907 -9.35485e-08 0)
(-6.87533 -9.41225e-08 0)
(-6.87173 -9.20596e-08 0)
(-6.86815 -9.14767e-08 0)
(-6.8646 -8.85154e-08 0)
(-6.86126 -8.67231e-08 0)
(-6.85784 -8.51387e-08 0)
(-6.85463 -8.26639e-08 0)
(-6.85141 -8.19258e-08 0)
(-6.84825 -8.07341e-08 0)
(-6.84513 -7.99941e-08 0)
(-6.84202 -8.03788e-08 0)
(-6.83886 -7.96517e-08 0)
(-6.83582 -7.62062e-08 0)
(-6.83293 -7.6071e-08 0)
(-6.82989 -7.49598e-08 0)
(-6.82709 -7.31384e-08 0)
(-6.82419 -7.29521e-08 0)
(-6.82141 -7.21991e-08 0)
(-6.81857 -7.22677e-08 0)
(-6.81578 -6.99468e-08 0)
(-6.81312 -7.06115e-08 0)
(-6.81028 -6.92079e-08 0)
(-6.80774 -6.70372e-08 0)
(-6.80506 -6.69573e-08 0)
(-6.80252 -6.5303e-08 0)
(-6.79998 -6.57119e-08 0)
(-6.7974 -6.33638e-08 0)
(-6.79504 -6.24198e-08 0)
(-6.79254 -6.2025e-08 0)
(-6.79021 -6.07012e-08 0)
(-6.78781 -6.18629e-08 0)
(-6.78539 -6.19093e-08 0)
(-6.78299 -6.40849e-08 0)
(-6.78039 -6.39603e-08 0)
(-6.77801 -6.22614e-08 0)
(-6.77554 -6.2604e-08 0)
(-6.77313 -6.07016e-08 0)
(-6.77082 -6.22256e-08 0)
(-6.76828 -6.1447e-08 0)
(-6.76603 -5.90343e-08 0)
(-6.76369 -5.83859e-08 0)
(-6.76149 -5.7721e-08 0)
(-6.75919 -5.69065e-08 0)
(-6.75706 -5.46413e-08 0)
(-6.75494 -5.55909e-08 0)
(-6.75273 -5.46441e-08 0)
(-6.75069 -5.20278e-08 0)
(-6.74868 -5.34511e-08 0)
(-6.74652 -5.3784e-08 0)
(-6.7445 -5.21598e-08 0)
(-6.74247 -5.21519e-08 0)
(-6.74043 -5.07551e-08 0)
(-6.73852 -4.97062e-08 0)
(-6.73656 -5.06047e-08 0)
(-6.73457 -4.96543e-08 0)
(-6.7327 -4.86582e-08 0)
(-6.73078 -4.99518e-08 0)
(-6.72881 -4.82938e-08 0)
(-6.72703 -4.87016e-08 0)
(-6.72502 -4.86654e-08 0)
(-6.72324 -4.79308e-08 0)
(-6.72129 -4.83112e-08 0)
(-6.71948 -4.60985e-08 0)
(-6.71771 -4.55601e-08 0)
(-6.71594 -4.34206e-08 0)
(-6.71434 -4.21702e-08 0)
(-6.71267 -4.46958e-08 0)
(-6.71085 -4.51426e-08 0)
(-6.70915 -4.45856e-08 0)
(-6.70738 -4.58221e-08 0)
(-6.70558 -4.43989e-08 0)
(-6.70393 -4.28023e-08 0)
(-6.70225 -4.43557e-08 0)
(-6.70048 -4.13818e-08 0)
(-6.69904 -4.27745e-08 0)
(-6.69714 -3.83095e-08 0)
(-6.69607 -4.97651e-08 0)
(-6.69324 -2.4821e-08 0)
(-6.69421 -3.86885e-08 0)
(-6.69011 -5.48142e-08 0)
)
;
    }
    symmetry
    {
        type            symmetryPlane;
    }
    frontAndBack
    {
        type            empty;
    }
}


// ************************************************************************* //
