/*--------------------------------*- C++ -*----------------------------------*\
| =========                 |                                                 |
| \\      /  F ield         | OpenFOAM: The Open Source CFD Toolbox           |
|  \\    /   O peration     | Version:  v2012                                 |
|   \\  /    A nd           | Website:  www.openfoam.com                      |
|    \\/     M anipulation  |                                                 |
\*---------------------------------------------------------------------------*/
FoamFile
{
    version     2.0;
    format      ascii;
    class       volScalarField;
    location    "55.5";
    object      k;
}
// * * * * * * * * * * * * * * * * * * * * * * * * * * * * * * * * * * * * * //

dimensions      [0 2 -2 0 0 0 0];


internalField   nonuniform List<scalar> 
209825
(
0.00102393
0.000932289
0.000856547
0.000793077
0.00073997
0.00069562
0.000658764
0.00062803
0.000602388
0.000580799
0.000562572
0.000547012
0.000533693
0.000522166
0.00051217
0.000503415
0.000495732
0.000488935
0.000482906
0.000477531
0.000472714
0.000468393
0.000464484
0.000460964
0.000457747
0.000454843
0.000452165
0.000449745
0.000447491
0.000445456
0.00044354
0.000441816
0.000440174
0.000438702
0.000437284
0.00043602
0.000434789
0.000433698
0.000432621
0.000431674
0.000430727
0.000429904
0.000429066
0.000428347
0.000427605
0.000426975
0.000426314
0.000425762
0.000425171
0.000424686
0.000424155
0.00042373
0.00042325
0.000422875
0.000422445
0.000422111
0.000421726
0.00042143
0.000421084
0.000420821
0.00042051
0.000420278
0.000419995
0.000419792
0.000419535
0.000419354
0.000419122
0.000418963
0.000418755
0.000418612
0.000418422
0.000418294
0.000418126
0.000418016
0.000417862
0.000417759
0.000417613
0.000417517
0.000417378
0.000417286
0.000417154
0.000417069
0.000416944
0.000416865
0.000416751
0.000416677
0.000416577
0.000416509
0.000416416
0.000416366
0.000416262
0.000416167
0.000416271
0.00042293
0.000444304
0.00107103
0.00102393
0.000932289
0.000856547
0.000793077
0.00073997
0.00069562
0.000658763
0.000628029
0.000602385
0.000580796
0.000562568
0.000547008
0.000533688
0.000522161
0.000512165
0.000503409
0.000495726
0.000488929
0.0004829
0.000477524
0.000472707
0.000468386
0.000464476
0.000460955
0.000457739
0.000454835
0.000452156
0.000449736
0.000447482
0.000445447
0.000443531
0.000441806
0.000440164
0.000438692
0.000437274
0.00043601
0.000434779
0.000433688
0.000432611
0.000431664
0.000430717
0.000429893
0.000429056
0.000428337
0.000427595
0.000426965
0.000426304
0.000425751
0.00042516
0.000424675
0.000424145
0.000423719
0.000423239
0.000422864
0.000422434
0.0004221
0.000421715
0.000421419
0.000421073
0.00042081
0.000420499
0.000420267
0.000419984
0.000419781
0.000419524
0.000419343
0.000419111
0.000418952
0.000418743
0.0004186
0.00041841
0.000418282
0.000418115
0.000418005
0.00041785
0.000417748
0.000417602
0.000417505
0.000417366
0.000417275
0.000417142
0.000417057
0.000416933
0.000416854
0.000416739
0.000416666
0.000416565
0.000416498
0.000416404
0.000416354
0.00041625
0.000416156
0.00041626
0.00042293
0.000444299
0.00107163
0.00102393
0.000932289
0.000856548
0.000793078
0.00073997
0.000695618
0.000658759
0.000628022
0.000602376
0.000580784
0.000562553
0.000546991
0.000533669
0.00052214
0.000512142
0.000503384
0.000495699
0.000488901
0.000482871
0.000477494
0.000472676
0.000468354
0.000464443
0.000460922
0.000457704
0.0004548
0.000452121
0.0004497
0.000447445
0.00044541
0.000443493
0.000441768
0.000440126
0.000438653
0.000437235
0.000435971
0.000434739
0.000433648
0.00043257
0.000431623
0.000430676
0.000429852
0.000429014
0.000428295
0.000427553
0.000426923
0.000426262
0.000425709
0.000425118
0.000424632
0.000424102
0.000423676
0.000423196
0.00042282
0.00042239
0.000422057
0.000421671
0.000421375
0.000421029
0.000420766
0.000420455
0.000420223
0.00041994
0.000419736
0.00041948
0.000419298
0.000419066
0.000418907
0.000418698
0.000418555
0.000418365
0.000418237
0.00041807
0.00041796
0.000417805
0.000417703
0.000417557
0.00041746
0.000417321
0.000417229
0.000417097
0.000417011
0.000416887
0.000416808
0.000416693
0.00041662
0.000416519
0.000416452
0.000416358
0.000416308
0.000416204
0.00041611
0.000416214
0.000422909
0.000444265
0.00107284
0.00102393
0.000932289
0.000856548
0.000793079
0.000739969
0.000695615
0.000658751
0.00062801
0.000602359
0.000580763
0.000562528
0.000546961
0.000533636
0.000522104
0.000512103
0.000503343
0.000495655
0.000488855
0.000482822
0.000477443
0.000472624
0.0004683
0.000464388
0.000460865
0.000457647
0.000454741
0.000452061
0.000449639
0.000447384
0.000445347
0.00044343
0.000441704
0.000440061
0.000438588
0.000437169
0.000435904
0.000434672
0.00043358
0.000432502
0.000431554
0.000430607
0.000429783
0.000428945
0.000428225
0.000427483
0.000426852
0.000426191
0.000425637
0.000425046
0.000424561
0.00042403
0.000423604
0.000423124
0.000422748
0.000422317
0.000421984
0.000421598
0.000421302
0.000420956
0.000420692
0.000420381
0.000420149
0.000419865
0.000419662
0.000419405
0.000419223
0.000418992
0.000418832
0.000418623
0.00041848
0.00041829
0.000418162
0.000417994
0.000417884
0.000417729
0.000417627
0.00041748
0.000417384
0.000417244
0.000417153
0.00041702
0.000416935
0.00041681
0.000416731
0.000416617
0.000416543
0.000416442
0.000416375
0.000416281
0.000416231
0.000416127
0.000416032
0.000416138
0.000422871
0.000444206
0.00107441
0.00102393
0.000932289
0.00085655
0.00079308
0.000739968
0.00069561
0.000658741
0.000627993
0.000602336
0.000580734
0.000562493
0.00054692
0.00053359
0.000522053
0.000512047
0.000503284
0.000495593
0.000488789
0.000482754
0.000477372
0.00047255
0.000468224
0.00046431
0.000460785
0.000457565
0.000454658
0.000451976
0.000449553
0.000447296
0.000445259
0.00044334
0.000441614
0.00043997
0.000438496
0.000437076
0.00043581
0.000434577
0.000433485
0.000432406
0.000431458
0.00043051
0.000429685
0.000428847
0.000428126
0.000427383
0.000426752
0.00042609
0.000425537
0.000424945
0.000424459
0.000423928
0.000423502
0.000423021
0.000422645
0.000422214
0.00042188
0.000421494
0.000421198
0.000420852
0.000420588
0.000420276
0.000420044
0.000419761
0.000419557
0.0004193
0.000419118
0.000418886
0.000418726
0.000418517
0.000418374
0.000418184
0.000418055
0.000417888
0.000417777
0.000417622
0.00041752
0.000417373
0.000417277
0.000417137
0.000417045
0.000416913
0.000416827
0.000416702
0.000416623
0.000416508
0.000416434
0.000416334
0.000416266
0.000416172
0.000416122
0.000416018
0.000415923
0.00041603
0.000422816
0.000444122
0.00107618
0.00102392
0.000932289
0.000856551
0.000793081
0.000739967
0.000695604
0.000658728
0.000627972
0.000602306
0.000580696
0.000562447
0.000546867
0.00053353
0.000521987
0.000511976
0.000503207
0.000495512
0.000488704
0.000482665
0.00047728
0.000472455
0.000468126
0.000464209
0.000460682
0.00045746
0.00045455
0.000451867
0.000449442
0.000447184
0.000445144
0.000443224
0.000441496
0.000439851
0.000438376
0.000436955
0.000435689
0.000434454
0.000433361
0.000432282
0.000431333
0.000430384
0.000429558
0.000428719
0.000427998
0.000427255
0.000426623
0.000425961
0.000425407
0.000424814
0.000424328
0.000423796
0.000423369
0.000422889
0.000422512
0.000422081
0.000421747
0.00042136
0.000421063
0.000420717
0.000420453
0.000420141
0.000419908
0.000419625
0.00041942
0.000419163
0.000418981
0.000418749
0.000418589
0.00041838
0.000418236
0.000418046
0.000417917
0.000417749
0.000417639
0.000417484
0.000417381
0.000417234
0.000417137
0.000416997
0.000416906
0.000416773
0.000416687
0.000416562
0.000416483
0.000416368
0.000416294
0.000416193
0.000416125
0.000416031
0.000415981
0.000415877
0.000415782
0.00041589
0.000422745
0.000444013
0.0010781
0.00102392
0.000932289
0.000856553
0.000793083
0.000739966
0.000695596
0.000658711
0.000627946
0.00060227
0.000580649
0.000562391
0.000546802
0.000533457
0.000521906
0.000511888
0.000503113
0.000495412
0.000488599
0.000482555
0.000477166
0.000472337
0.000468005
0.000464085
0.000460555
0.00045733
0.000454417
0.000451732
0.000449305
0.000447044
0.000445003
0.000443082
0.000441352
0.000439705
0.000438229
0.000436806
0.000435539
0.000434303
0.000433209
0.000432128
0.000431178
0.000430229
0.000429402
0.000428562
0.00042784
0.000427096
0.000426464
0.000425801
0.000425246
0.000424653
0.000424166
0.000423634
0.000423206
0.000422725
0.000422348
0.000421916
0.000421582
0.000421195
0.000420898
0.000420551
0.000420286
0.000419974
0.000419741
0.000419457
0.000419252
0.000418995
0.000418812
0.00041858
0.00041842
0.00041821
0.000418067
0.000417876
0.000417747
0.000417579
0.000417468
0.000417313
0.00041721
0.000417063
0.000416966
0.000416826
0.000416734
0.000416601
0.000416515
0.000416389
0.00041631
0.000416195
0.000416121
0.000416019
0.000415951
0.000415857
0.000415807
0.000415703
0.000415608
0.000415718
0.000422659
0.00044388
0.00108009
0.00102392
0.000932289
0.000856555
0.000793085
0.000739964
0.000695587
0.000658692
0.000627914
0.000602226
0.000580593
0.000562323
0.000546724
0.000533369
0.00052181
0.000511784
0.000503001
0.000495294
0.000488474
0.000482425
0.000477031
0.000472197
0.000467861
0.000463937
0.000460403
0.000457175
0.000454259
0.000451571
0.000449141
0.000446878
0.000444835
0.000442911
0.00044118
0.000439531
0.000438053
0.000436629
0.00043536
0.000434123
0.000433027
0.000431945
0.000430994
0.000430043
0.000429216
0.000428375
0.000427652
0.000426907
0.000426274
0.00042561
0.000425054
0.000424461
0.000423973
0.00042344
0.000423012
0.00042253
0.000422153
0.00042172
0.000421385
0.000420998
0.0004207
0.000420352
0.000420088
0.000419775
0.000419541
0.000419257
0.000419052
0.000418794
0.000418611
0.000418378
0.000418218
0.000418008
0.000417864
0.000417673
0.000417544
0.000417376
0.000417265
0.000417109
0.000417006
0.000416858
0.000416761
0.000416621
0.000416529
0.000416395
0.000416309
0.000416183
0.000416104
0.000415988
0.000415914
0.000415812
0.000415744
0.000415649
0.000415599
0.000415495
0.0004154
0.000415513
0.000422557
0.000443721
0.00108201
0.00102392
0.000932289
0.000856557
0.000793088
0.000739963
0.000695576
0.000658669
0.000627878
0.000602175
0.000580528
0.000562245
0.000546634
0.000533268
0.000521697
0.000511662
0.000502871
0.000495156
0.000488329
0.000482274
0.000476873
0.000472034
0.000467693
0.000463765
0.000460227
0.000456994
0.000454075
0.000451383
0.000448951
0.000446685
0.000444639
0.000442713
0.000440979
0.000439329
0.000437848
0.000436423
0.000435152
0.000433913
0.000432816
0.000431732
0.00043078
0.000429828
0.000428999
0.000428157
0.000427433
0.000426687
0.000426053
0.000425387
0.000424831
0.000424237
0.000423748
0.000423214
0.000422786
0.000422303
0.000421925
0.000421492
0.000421156
0.000420768
0.00042047
0.000420122
0.000419856
0.000419543
0.000419309
0.000419024
0.000418819
0.00041856
0.000418377
0.000418144
0.000417983
0.000417773
0.000417628
0.000417437
0.000417308
0.000417139
0.000417027
0.000416872
0.000416768
0.00041662
0.000416523
0.000416382
0.00041629
0.000416156
0.00041607
0.000415943
0.000415864
0.000415748
0.000415673
0.000415571
0.000415503
0.000415407
0.000415357
0.000415253
0.000415158
0.000415274
0.00042244
0.000443537
0.00108367
0.00102392
0.000932289
0.00085656
0.000793091
0.000739961
0.000695564
0.000658643
0.000627836
0.000602118
0.000580454
0.000562156
0.000546531
0.000533151
0.000521569
0.000511523
0.000502722
0.000494998
0.000488164
0.0004821
0.000476693
0.000471848
0.000467501
0.000463568
0.000460025
0.000456788
0.000453865
0.000451169
0.000448733
0.000446464
0.000444415
0.000442486
0.00044075
0.000439097
0.000437614
0.000436186
0.000434913
0.000433673
0.000432574
0.000431489
0.000430535
0.000429581
0.000428751
0.000427907
0.000427182
0.000426435
0.0004258
0.000425133
0.000424576
0.00042398
0.000423491
0.000422956
0.000422527
0.000422043
0.000421664
0.00042123
0.000420894
0.000420505
0.000420206
0.000419857
0.000419592
0.000419278
0.000419043
0.000418757
0.000418552
0.000418293
0.000418109
0.000417875
0.000417714
0.000417503
0.000417359
0.000417167
0.000417037
0.000416868
0.000416756
0.0004166
0.000416496
0.000416348
0.00041625
0.000416109
0.000416016
0.000415882
0.000415795
0.000415669
0.000415589
0.000415472
0.000415398
0.000415295
0.000415227
0.000415131
0.00041508
0.000414976
0.000414881
0.000415
0.000422308
0.000443327
0.00108479
0.00102392
0.000932289
0.000856563
0.000793094
0.000739959
0.000695551
0.000658615
0.00062779
0.000602053
0.000580372
0.000562057
0.000546415
0.000533021
0.000521425
0.000511367
0.000502555
0.00049482
0.000487977
0.000481905
0.000476491
0.000471638
0.000467285
0.000463345
0.000459797
0.000456555
0.000453628
0.000450928
0.000448488
0.000446215
0.000444163
0.000442231
0.000440491
0.000438835
0.00043735
0.00043592
0.000434645
0.000433402
0.000432301
0.000431214
0.000430258
0.000429303
0.000428471
0.000427626
0.0004269
0.00042615
0.000425514
0.000424846
0.000424288
0.000423691
0.000423201
0.000422665
0.000422235
0.00042175
0.00042137
0.000420935
0.000420598
0.000420209
0.000419909
0.000419559
0.000419293
0.000418978
0.000418743
0.000418457
0.000418251
0.000417991
0.000417807
0.000417572
0.000417411
0.000417199
0.000417054
0.000416862
0.000416732
0.000416562
0.00041645
0.000416293
0.000416189
0.00041604
0.000415942
0.000415801
0.000415708
0.000415573
0.000415486
0.000415359
0.000415279
0.000415162
0.000415087
0.000414984
0.000414915
0.000414819
0.000414768
0.000414663
0.000414569
0.000414691
0.000422162
0.000443092
0.00108496
0.00102392
0.000932289
0.000856566
0.000793098
0.000739957
0.000695536
0.000658583
0.000627738
0.000601981
0.00058028
0.000561945
0.000546286
0.000532876
0.000521265
0.000511193
0.000502369
0.000494623
0.000487769
0.000481688
0.000476265
0.000471405
0.000467044
0.000463098
0.000459544
0.000456296
0.000453364
0.000450659
0.000448215
0.000445938
0.000443882
0.000441946
0.000440203
0.000438544
0.000437056
0.000435623
0.000434345
0.0004331
0.000431997
0.000430908
0.00042995
0.000428992
0.000428159
0.000427312
0.000426584
0.000425833
0.000425196
0.000424527
0.000423967
0.000423369
0.000422878
0.00042234
0.000421909
0.000421423
0.000421042
0.000420607
0.000420269
0.000419878
0.000419578
0.000419227
0.00041896
0.000418644
0.000418409
0.000418121
0.000417915
0.000417654
0.00041747
0.000417234
0.000417072
0.00041686
0.000416715
0.000416522
0.000416391
0.000416221
0.000416109
0.000415951
0.000415846
0.000415697
0.000415599
0.000415457
0.000415364
0.000415228
0.000415141
0.000415014
0.000414933
0.000414815
0.00041474
0.000414636
0.000414568
0.00041447
0.000414419
0.000414315
0.00041422
0.000414347
0.000422002
0.00044283
0.00108387
0.00102392
0.000932289
0.00085657
0.000793102
0.000739954
0.00069552
0.000658548
0.000627682
0.000601902
0.000580178
0.000561823
0.000546144
0.000532716
0.000521089
0.000511001
0.000502163
0.000494405
0.00048754
0.000481448
0.000476016
0.000471147
0.000466778
0.000462825
0.000459264
0.00045601
0.000453072
0.000450362
0.000447912
0.000445631
0.000443571
0.000441631
0.000439885
0.000438222
0.000436731
0.000435295
0.000434014
0.000432766
0.000431661
0.000430569
0.000429609
0.000428649
0.000427814
0.000426965
0.000426235
0.000425483
0.000424844
0.000424173
0.000423612
0.000423012
0.00042252
0.000421981
0.000421549
0.000421062
0.00042068
0.000420243
0.000419904
0.000419512
0.000419211
0.000418859
0.000418592
0.000418275
0.000418039
0.00041775
0.000417543
0.000417282
0.000417097
0.000416861
0.000416698
0.000416485
0.000416339
0.000416145
0.000416015
0.000415844
0.000415731
0.000415573
0.000415468
0.000415318
0.000415219
0.000415076
0.000414983
0.000414847
0.000414759
0.000414631
0.00041455
0.000414432
0.000414356
0.000414252
0.000414183
0.000414085
0.000414034
0.000413929
0.000413835
0.000413967
0.000421828
0.000442541
0.00108151
0.00102392
0.000932289
0.000856573
0.000793106
0.000739952
0.000695503
0.00065851
0.00062762
0.000601816
0.000580068
0.00056169
0.000545989
0.000532541
0.000520895
0.000510792
0.000501938
0.000494166
0.000487288
0.000481186
0.000475742
0.000470864
0.000466487
0.000462525
0.000458957
0.000455696
0.000452752
0.000450036
0.000447581
0.000445295
0.00044323
0.000441286
0.000439535
0.000437869
0.000436374
0.000434935
0.000433651
0.0004324
0.000431292
0.000430197
0.000429235
0.000428273
0.000427436
0.000426584
0.000425853
0.000425098
0.000424458
0.000423785
0.000423223
0.000422621
0.000422127
0.000421587
0.000421153
0.000420665
0.000420282
0.000419844
0.000419504
0.000419111
0.000418809
0.000418456
0.000418187
0.00041787
0.000417633
0.000417343
0.000417135
0.000416873
0.000416687
0.000416451
0.000416287
0.000416074
0.000415927
0.000415733
0.000415601
0.00041543
0.000415317
0.000415158
0.000415052
0.000414902
0.000414803
0.000414659
0.000414565
0.000414429
0.000414341
0.000414212
0.000414131
0.000414012
0.000413936
0.00041383
0.000413761
0.000413662
0.000413611
0.000413506
0.000413412
0.000413549
0.00042164
0.000442225
0.0010779
0.00102392
0.000932289
0.000856578
0.000793111
0.000739949
0.000695484
0.00065847
0.000627554
0.000601723
0.000579948
0.000561545
0.00054582
0.000532351
0.000520685
0.000510564
0.000501694
0.000493907
0.000487015
0.0004809
0.000475445
0.000470556
0.00046617
0.000462199
0.000458623
0.000455355
0.000452404
0.000449681
0.000447221
0.000444929
0.000442859
0.00044091
0.000439155
0.000437484
0.000435986
0.000434543
0.000433256
0.000432001
0.00043089
0.000429793
0.000428828
0.000427863
0.000427023
0.00042617
0.000425436
0.00042468
0.000424037
0.000423362
0.000422798
0.000422195
0.0004217
0.000421158
0.000420723
0.000420233
0.000419849
0.000419409
0.000419068
0.000418673
0.00041837
0.000418017
0.000417747
0.000417428
0.00041719
0.0004169
0.000416691
0.000416428
0.000416241
0.000416003
0.000415839
0.000415625
0.000415478
0.000415283
0.000415151
0.000414979
0.000414865
0.000414705
0.000414599
0.000414448
0.000414348
0.000414204
0.00041411
0.000413972
0.000413884
0.000413755
0.000413673
0.000413553
0.000413477
0.000413371
0.000413301
0.000413201
0.00041315
0.000413044
0.00041295
0.000413095
0.000421437
0.00044188
0.00107307
0.00102392
0.000932289
0.000856582
0.000793116
0.000739947
0.000695465
0.000658426
0.000627483
0.000601622
0.000579819
0.000561389
0.000545639
0.000532145
0.000520459
0.000510317
0.000501429
0.000493626
0.00048672
0.000480591
0.000475124
0.000470224
0.000465826
0.000461847
0.000458261
0.000454985
0.000452027
0.000449297
0.00044683
0.000444532
0.000442457
0.000440503
0.000438743
0.000437068
0.000435565
0.000434118
0.000432827
0.000431569
0.000430455
0.000429354
0.000428386
0.000427419
0.000426577
0.00042572
0.000424985
0.000424226
0.000423581
0.000422904
0.000422338
0.000421733
0.000421236
0.000420692
0.000420256
0.000419764
0.000419379
0.000418938
0.000418595
0.000418199
0.000417895
0.00041754
0.000417269
0.000416949
0.00041671
0.000416419
0.000416209
0.000415945
0.000415758
0.000415519
0.000415354
0.000415139
0.000414991
0.000414795
0.000414663
0.000414489
0.000414375
0.000414215
0.000414108
0.000413956
0.000413856
0.000413711
0.000413616
0.000413478
0.000413389
0.000413259
0.000413177
0.000413056
0.000412979
0.000412872
0.000412803
0.000412702
0.00041265
0.000412544
0.000412451
0.000412602
0.00042122
0.000441506
0.00106704
0.00102392
0.000932289
0.000856587
0.000793122
0.000739944
0.000695443
0.000658379
0.000627406
0.000601515
0.000579681
0.000561221
0.000545443
0.000531925
0.000520215
0.000510052
0.000501145
0.000493324
0.000486402
0.000480258
0.000474778
0.000469865
0.000465457
0.000461467
0.000457872
0.000454587
0.00045162
0.000448883
0.000446409
0.000444105
0.000442023
0.000440064
0.000438299
0.000436619
0.000435111
0.00043366
0.000432365
0.000431103
0.000429985
0.000428881
0.000427911
0.00042694
0.000426095
0.000425236
0.000424498
0.000423736
0.000423089
0.00042241
0.000421842
0.000421235
0.000420736
0.00042019
0.000419752
0.000419259
0.000418872
0.000418429
0.000418085
0.000417688
0.000417383
0.000417026
0.000416754
0.000416433
0.000416193
0.0004159
0.00041569
0.000415424
0.000415236
0.000414996
0.000414831
0.000414614
0.000414466
0.000414269
0.000414136
0.000413962
0.000413847
0.000413686
0.000413578
0.000413425
0.000413325
0.000413179
0.000413083
0.000412944
0.000412855
0.000412724
0.000412641
0.00041252
0.000412443
0.000412335
0.000412265
0.000412163
0.000412111
0.000412004
0.000411911
0.00041207
0.000420987
0.0004411
0.00105984
0.00102392
0.000932289
0.000856592
0.000793128
0.000739941
0.000695421
0.00065833
0.000627325
0.0006014
0.000579533
0.000561042
0.000545235
0.000531689
0.000519954
0.000509769
0.000500841
0.000493001
0.000486061
0.000479902
0.000474407
0.000469481
0.00046506
0.000461059
0.000457454
0.00045416
0.000451184
0.000448439
0.000445958
0.000443646
0.000441558
0.000439592
0.000437822
0.000436136
0.000434624
0.000433168
0.000431869
0.000430603
0.000429481
0.000428374
0.0004274
0.000426425
0.000425578
0.000424715
0.000423975
0.00042321
0.000422561
0.000421879
0.000421309
0.0004207
0.000420199
0.000419651
0.000419211
0.000418716
0.000418328
0.000417883
0.000417538
0.000417139
0.000416832
0.000416474
0.000416201
0.000415878
0.000415637
0.000415343
0.000415131
0.000414865
0.000414676
0.000414435
0.000414268
0.000414051
0.000413902
0.000413704
0.00041357
0.000413395
0.000413279
0.000413117
0.000413009
0.000412855
0.000412754
0.000412607
0.000412511
0.000412371
0.000412281
0.000412149
0.000412066
0.000411944
0.000411866
0.000411757
0.000411687
0.000411584
0.000411531
0.000411424
0.000411332
0.000411499
0.000420738
0.000440662
0.00105151
0.00102391
0.000932289
0.000856597
0.000793135
0.000739939
0.000695398
0.000658278
0.000627239
0.000601279
0.000579376
0.000560851
0.000545013
0.000531438
0.000519676
0.000509466
0.000500516
0.000492656
0.000485697
0.000479521
0.000474011
0.000469071
0.000464637
0.000460624
0.000457008
0.000453703
0.000450718
0.000447965
0.000445475
0.000443156
0.000441061
0.000439089
0.000437312
0.000435621
0.000434104
0.000432642
0.000431339
0.000430068
0.000428942
0.000427831
0.000426853
0.000425875
0.000425024
0.000424159
0.000423415
0.000422648
0.000421996
0.000421312
0.000420739
0.000420127
0.000419625
0.000419074
0.000418633
0.000418135
0.000417745
0.000417299
0.000416952
0.000416551
0.000416243
0.000415883
0.000415609
0.000415284
0.000415042
0.000414747
0.000414534
0.000414266
0.000414076
0.000413834
0.000413666
0.000413448
0.000413298
0.000413099
0.000412964
0.000412788
0.000412672
0.000412508
0.0004124
0.000412245
0.000412143
0.000411995
0.000411899
0.000411758
0.000411667
0.000411534
0.000411451
0.000411327
0.000411249
0.000411139
0.000411068
0.000410964
0.000410911
0.000410804
0.000410711
0.000410887
0.000420471
0.000440188
0.0010421
0.00102391
0.000932289
0.000856603
0.000793142
0.000739936
0.000695374
0.000658223
0.000627148
0.00060115
0.00057921
0.000560649
0.000544777
0.000531171
0.000519381
0.000509145
0.000500171
0.000492289
0.00048531
0.000479116
0.000473589
0.000468634
0.000464187
0.000460161
0.000456533
0.000453217
0.000450222
0.000447459
0.000444961
0.000442634
0.000440532
0.000438552
0.000436769
0.000435072
0.000433549
0.000432082
0.000430774
0.000429498
0.000428368
0.000427252
0.00042627
0.000425289
0.000424434
0.000423565
0.000422819
0.000422048
0.000421394
0.000420706
0.000420132
0.000419517
0.000419012
0.000418459
0.000418016
0.000417516
0.000417124
0.000416676
0.000416327
0.000415924
0.000415615
0.000415253
0.000414978
0.000414651
0.000414408
0.000414111
0.000413897
0.000413628
0.000413437
0.000413193
0.000413024
0.000412804
0.000412654
0.000412453
0.000412318
0.000412141
0.000412024
0.00041186
0.00041175
0.000411594
0.000411492
0.000411343
0.000411246
0.000411104
0.000411013
0.000410879
0.000410794
0.00041067
0.000410591
0.000410479
0.000410408
0.000410303
0.00041025
0.000410142
0.00041005
0.000410235
0.000420185
0.000439677
0.00103164
0.00102391
0.000932288
0.000856609
0.000793149
0.000739934
0.000695348
0.000658165
0.000627052
0.000601015
0.000579035
0.000560436
0.000544528
0.000530889
0.000519068
0.000508805
0.000499805
0.0004919
0.0004849
0.000478687
0.000473142
0.000468171
0.000463709
0.000459669
0.000456029
0.000452701
0.000449696
0.000446922
0.000444415
0.00044208
0.000439969
0.000437982
0.000436193
0.000434488
0.00043296
0.000431487
0.000430173
0.000428893
0.000427758
0.000426637
0.000425651
0.000424666
0.000423807
0.000422935
0.000422185
0.000421411
0.000420753
0.000420063
0.000419486
0.000418868
0.000418361
0.000417806
0.00041736
0.000416858
0.000416464
0.000416013
0.000415663
0.000415258
0.000414947
0.000414583
0.000414306
0.000413978
0.000413734
0.000413435
0.00041322
0.000412949
0.000412757
0.000412511
0.000412342
0.000412121
0.000411969
0.000411767
0.000411631
0.000411453
0.000411335
0.000411169
0.000411059
0.000410902
0.000410799
0.000410649
0.000410551
0.000410408
0.000410316
0.000410181
0.000410096
0.00040997
0.000409891
0.000409778
0.000409707
0.0004096
0.000409546
0.000409438
0.000409346
0.000409542
0.000419878
0.000439125
0.0010202
0.00102391
0.000932288
0.000856615
0.000793157
0.000739931
0.000695322
0.000658105
0.000626952
0.000600872
0.000578851
0.000560212
0.000544266
0.000530592
0.000518739
0.000508446
0.000499419
0.000491489
0.000484467
0.000478233
0.00047267
0.000467681
0.000463203
0.000459148
0.000455495
0.000452155
0.000449138
0.000446354
0.000443837
0.000441492
0.000439374
0.000437379
0.000435582
0.00043387
0.000432335
0.000430856
0.000429537
0.000428251
0.000427111
0.000425985
0.000424995
0.000424005
0.000423143
0.000422267
0.000421513
0.000420735
0.000420075
0.000419381
0.000418801
0.00041818
0.000417671
0.000417113
0.000416665
0.00041616
0.000415764
0.000415311
0.000414959
0.000414552
0.000414239
0.000413873
0.000413595
0.000413265
0.000413019
0.000412718
0.000412502
0.000412229
0.000412036
0.000411789
0.000411618
0.000411395
0.000411243
0.00041104
0.000410903
0.000410723
0.000410605
0.000410438
0.000410327
0.000410168
0.000410064
0.000409913
0.000409814
0.00040967
0.000409578
0.000409441
0.000409355
0.000409229
0.000409148
0.000409034
0.000408963
0.000408854
0.0004088
0.000408691
0.0004086
0.000408807
0.000419544
0.000438532
0.00100783
0.00102391
0.000932288
0.000856622
0.000793165
0.000739929
0.000695295
0.000658042
0.000626847
0.000600723
0.000578657
0.000559976
0.00054399
0.000530279
0.000518391
0.000508067
0.000499012
0.000491056
0.00048401
0.000477754
0.000472171
0.000467164
0.000462669
0.000458599
0.000454931
0.000451579
0.000448549
0.000445754
0.000443227
0.000440872
0.000438745
0.000436741
0.000434936
0.000433217
0.000431675
0.00043019
0.000428864
0.000427573
0.000426428
0.000425297
0.000424302
0.000423307
0.000422441
0.00042156
0.000420803
0.000420021
0.000419358
0.00041866
0.000418078
0.000417453
0.000416941
0.00041638
0.00041593
0.000415422
0.000415024
0.000414568
0.000414214
0.000413805
0.00041349
0.000413122
0.000412842
0.00041251
0.000412263
0.00041196
0.000411742
0.000411468
0.000411273
0.000411025
0.000410853
0.000410629
0.000410475
0.000410271
0.000410133
0.000409951
0.000409832
0.000409664
0.000409552
0.000409392
0.000409287
0.000409135
0.000409035
0.00040889
0.000408797
0.000408659
0.000408572
0.000408444
0.000408363
0.000408248
0.000408175
0.000408065
0.000408011
0.000407901
0.000407811
0.00040803
0.00041918
0.000437895
0.000994573
0.00102391
0.000932287
0.000856628
0.000793174
0.000739927
0.000695266
0.000657977
0.000626738
0.000600567
0.000578455
0.000559729
0.0005437
0.00052995
0.000518027
0.00050767
0.000498584
0.000490601
0.00048353
0.000477251
0.000471646
0.00046662
0.000462107
0.000458021
0.000454338
0.000450971
0.000447929
0.000445122
0.000442584
0.000440219
0.000438081
0.000436069
0.000434256
0.000432529
0.00043098
0.000429487
0.000428156
0.000426857
0.000425707
0.00042457
0.000423571
0.000422571
0.0004217
0.000420815
0.000420054
0.000419268
0.000418601
0.0004179
0.000417314
0.000416686
0.000416171
0.000415607
0.000415154
0.000414644
0.000414243
0.000413785
0.000413429
0.000413017
0.0004127
0.00041233
0.000412048
0.000411714
0.000411465
0.00041116
0.000410941
0.000410665
0.000410469
0.000410218
0.000410045
0.000409819
0.000409664
0.000409459
0.00040932
0.000409137
0.000409017
0.000408847
0.000408734
0.000408573
0.000408467
0.000408313
0.000408213
0.000408066
0.000407972
0.000407833
0.000407746
0.000407616
0.000407535
0.000407417
0.000407345
0.000407233
0.000407178
0.000407067
0.000406978
0.000407209
0.000418779
0.000437213
0.000980505
0.00102391
0.000932287
0.000856635
0.000793183
0.000739925
0.000695238
0.000657909
0.000626624
0.000600405
0.000578244
0.00055947
0.000543398
0.000529607
0.000517645
0.000507253
0.000498136
0.000490123
0.000483025
0.000476722
0.000471095
0.000466049
0.000461517
0.000457414
0.000453715
0.000450333
0.000447278
0.000444458
0.000441908
0.000439531
0.000437384
0.000435362
0.00043354
0.000431805
0.000430248
0.000428748
0.00042741
0.000426105
0.000424949
0.000423806
0.000422802
0.000421796
0.000420921
0.000420031
0.000419266
0.000418476
0.000417805
0.0004171
0.00041651
0.000415879
0.000415361
0.000414793
0.000414338
0.000413825
0.000413421
0.00041296
0.000412602
0.000412188
0.000411869
0.000411496
0.000411212
0.000410875
0.000410625
0.000410318
0.000410097
0.000409819
0.000409622
0.000409369
0.000409195
0.000408967
0.000408811
0.000408604
0.000408464
0.00040828
0.000408158
0.000407987
0.000407873
0.000407711
0.000407604
0.000407448
0.000407347
0.000407199
0.000407104
0.000406964
0.000406875
0.000406745
0.000406662
0.000406543
0.00040647
0.000406357
0.000406301
0.000406189
0.000406101
0.000406345
0.000418333
0.000436482
0.000965684
0.0010239
0.000932286
0.000856642
0.000793193
0.000739923
0.000695208
0.000657839
0.000626507
0.000600237
0.000578024
0.000559201
0.000543082
0.000529248
0.000517246
0.000506818
0.000497667
0.000489623
0.000482498
0.000476169
0.000470518
0.00046545
0.000460898
0.000456777
0.000453061
0.000449664
0.000446594
0.000443761
0.000441198
0.000438811
0.000436653
0.00043462
0.000432789
0.000431045
0.00042948
0.000427972
0.000426627
0.000425315
0.000424153
0.000423004
0.000421994
0.000420983
0.000420103
0.000419208
0.000418438
0.000417643
0.000416968
0.000416259
0.000415666
0.000415031
0.00041451
0.000413939
0.00041348
0.000412964
0.000412558
0.000412094
0.000411733