/*--------------------------------*- C++ -*----------------------------------*\
| =========                 |                                                 |
| \\      /  F ield         | OpenFOAM: The Open Source CFD Toolbox           |
|  \\    /   O peration     | Version:  v2012                                 |
|   \\  /    A nd           | Website:  www.openfoam.com                      |
|    \\/     M anipulation  |                                                 |
\*---------------------------------------------------------------------------*/
FoamFile
{
    version     2.0;
    format      ascii;
    class       volScalarField;
    location    "55.5";
    object      nut;
}
// * * * * * * * * * * * * * * * * * * * * * * * * * * * * * * * * * * * * * //

dimensions      [0 2 -1 0 0 0 0];


internalField   nonuniform List<scalar> 
209825
(
1.23935e-07
1.23154e-07
1.22373e-07
1.21277e-07
1.19856e-07
1.18206e-07
1.16502e-07
1.14824e-07
1.13265e-07
1.1182e-07
1.10528e-07
1.09352e-07
1.08313e-07
1.07368e-07
1.06536e-07
1.05776e-07
1.05107e-07
1.04492e-07
1.03949e-07
1.03446e-07
1.03001e-07
1.02586e-07
1.02218e-07
1.01873e-07
1.01565e-07
1.01276e-07
1.01016e-07
1.00771e-07
1.0055e-07
1.00342e-07
1.00152e-07
9.99733e-08
9.98096e-08
9.96552e-08
9.95128e-08
9.93788e-08
9.92539e-08
9.9137e-08
9.90269e-08
9.89248e-08
9.88265e-08
9.87369e-08
9.86496e-08
9.85703e-08
9.84917e-08
9.8422e-08
9.8351e-08
9.82903e-08
9.82252e-08
9.81715e-08
9.81116e-08
9.80638e-08
9.80065e-08
9.79654e-08
9.79137e-08
9.78763e-08
9.78293e-08
9.77957e-08
9.77537e-08
9.77229e-08
9.76829e-08
9.76539e-08
9.76178e-08
9.75909e-08
9.75566e-08
9.75318e-08
9.75012e-08
9.74788e-08
9.74501e-08
9.74279e-08
9.74004e-08
9.73796e-08
9.73548e-08
9.73368e-08
9.73145e-08
9.7299e-08
9.72781e-08
9.7263e-08
9.72421e-08
9.72269e-08
9.72061e-08
9.7191e-08
9.71709e-08
9.71559e-08
9.71367e-08
9.71194e-08
9.70979e-08
9.7078e-08
9.70563e-08
9.70373e-08
9.70131e-08
9.69763e-08
9.69838e-08
9.78945e-08
1.00329e-07
9.47171e-09
1.23935e-07
1.23154e-07
1.22373e-07
1.21277e-07
1.19857e-07
1.18206e-07
1.16503e-07
1.14825e-07
1.13266e-07
1.11821e-07
1.10529e-07
1.09352e-07
1.08313e-07
1.07369e-07
1.06537e-07
1.05777e-07
1.05108e-07
1.04493e-07
1.03949e-07
1.03447e-07
1.03002e-07
1.02587e-07
1.02218e-07
1.01874e-07
1.01566e-07
1.01276e-07
1.01017e-07
1.00772e-07
1.00551e-07
1.00342e-07
1.00153e-07
9.99739e-08
9.98102e-08
9.96558e-08
9.95134e-08
9.93794e-08
9.92544e-08
9.91376e-08
9.90274e-08
9.89254e-08
9.8827e-08
9.87375e-08
9.86501e-08
9.85709e-08
9.84922e-08
9.84226e-08
9.83515e-08
9.82908e-08
9.82257e-08
9.8172e-08
9.81121e-08
9.80643e-08
9.8007e-08
9.79659e-08
9.79142e-08
9.78768e-08
9.78298e-08
9.77962e-08
9.77541e-08
9.77234e-08
9.76834e-08
9.76544e-08
9.76183e-08
9.75914e-08
9.75571e-08
9.75323e-08
9.75017e-08
9.74792e-08
9.74506e-08
9.74284e-08
9.74009e-08
9.73801e-08
9.73553e-08
9.73373e-08
9.7315e-08
9.72994e-08
9.72785e-08
9.72634e-08
9.72426e-08
9.72273e-08
9.72066e-08
9.71914e-08
9.71713e-08
9.71563e-08
9.71371e-08
9.71199e-08
9.70983e-08
9.70784e-08
9.70567e-08
9.70377e-08
9.70136e-08
9.69768e-08
9.69843e-08
9.78967e-08
1.0033e-07
9.76179e-09
1.23935e-07
1.23154e-07
1.22373e-07
1.21277e-07
1.19857e-07
1.18207e-07
1.16504e-07
1.14826e-07
1.13268e-07
1.11823e-07
1.10531e-07
1.09354e-07
1.08315e-07
1.0737e-07
1.06539e-07
1.05779e-07
1.05109e-07
1.04494e-07
1.03951e-07
1.03448e-07
1.03003e-07
1.02588e-07
1.0222e-07
1.01875e-07
1.01567e-07
1.01277e-07
1.01017e-07
1.00772e-07
1.00552e-07
1.00343e-07
1.00153e-07
9.99744e-08
9.98107e-08
9.96562e-08
9.95137e-08
9.93797e-08
9.92547e-08
9.91379e-08
9.90277e-08
9.89256e-08
9.88272e-08
9.87376e-08
9.86502e-08
9.8571e-08
9.84923e-08
9.84226e-08
9.83516e-08
9.82908e-08
9.82257e-08
9.8172e-08
9.81121e-08
9.80642e-08
9.8007e-08
9.79658e-08
9.79141e-08
9.78767e-08
9.78297e-08
9.7796e-08
9.7754e-08
9.77232e-08
9.76832e-08
9.76542e-08
9.76181e-08
9.75912e-08
9.75569e-08
9.75321e-08
9.75014e-08
9.7479e-08
9.74503e-08
9.74282e-08
9.74006e-08
9.73798e-08
9.7355e-08
9.7337e-08
9.73147e-08
9.72991e-08
9.72782e-08
9.72631e-08
9.72422e-08
9.7227e-08
9.72063e-08
9.71911e-08
9.7171e-08
9.7156e-08
9.71368e-08
9.71195e-08
9.7098e-08
9.70781e-08
9.70563e-08
9.70374e-08
9.70132e-08
9.69764e-08
9.6984e-08
9.79e-08
1.0033e-07
1.0122e-08
1.23935e-07
1.23154e-07
1.22373e-07
1.21278e-07
1.19859e-07
1.1821e-07
1.16507e-07
1.1483e-07
1.13271e-07
1.11827e-07
1.10535e-07
1.09358e-07
1.08319e-07
1.07374e-07
1.06542e-07
1.05782e-07
1.05112e-07
1.04497e-07
1.03953e-07
1.0345e-07
1.03005e-07
1.0259e-07
1.02222e-07
1.01877e-07
1.01569e-07
1.01279e-07
1.01019e-07
1.00774e-07
1.00553e-07
1.00344e-07
1.00155e-07
9.99756e-08
9.98118e-08
9.96572e-08
9.95147e-08
9.93806e-08
9.92556e-08
9.91386e-08
9.90284e-08
9.89263e-08
9.88278e-08
9.87382e-08
9.86508e-08
9.85715e-08
9.84928e-08
9.8423e-08
9.83519e-08
9.82912e-08
9.8226e-08
9.81723e-08
9.81123e-08
9.80645e-08
9.80072e-08
9.7966e-08
9.79143e-08
9.78769e-08
9.78298e-08
9.77961e-08
9.77541e-08
9.77233e-08
9.76833e-08
9.76542e-08
9.76181e-08
9.75912e-08
9.75568e-08
9.7532e-08
9.75014e-08
9.74789e-08
9.74502e-08
9.74281e-08
9.74005e-08
9.73797e-08
9.73549e-08
9.73369e-08
9.73145e-08
9.7299e-08
9.7278e-08
9.72629e-08
9.7242e-08
9.72268e-08
9.7206e-08
9.71909e-08
9.71708e-08
9.71557e-08
9.71365e-08
9.71193e-08
9.70978e-08
9.70779e-08
9.70561e-08
9.70372e-08
9.7013e-08
9.69762e-08
9.69839e-08
9.79055e-08
1.00332e-07
1.05235e-08
1.23935e-07
1.23154e-07
1.22373e-07
1.21279e-07
1.19861e-07
1.18213e-07
1.16511e-07
1.14834e-07
1.13276e-07
1.11832e-07
1.1054e-07
1.09363e-07
1.08324e-07
1.07379e-07
1.06546e-07
1.05786e-07
1.05116e-07
1.04501e-07
1.03957e-07
1.03454e-07
1.03009e-07
1.02593e-07
1.02225e-07
1.01879e-07
1.01571e-07
1.01281e-07
1.01021e-07
1.00776e-07
1.00555e-07
1.00346e-07
1.00157e-07
9.99774e-08
9.98135e-08
9.96588e-08
9.95162e-08
9.93821e-08
9.92569e-08
9.914e-08
9.90296e-08
9.89274e-08
9.88289e-08
9.87393e-08
9.86518e-08
9.85724e-08
9.84937e-08
9.84239e-08
9.83527e-08
9.82919e-08
9.82267e-08
9.8173e-08
9.8113e-08
9.80651e-08
9.80077e-08
9.79665e-08
9.79148e-08
9.78773e-08
9.78302e-08
9.77965e-08
9.77544e-08
9.77236e-08
9.76836e-08
9.76545e-08
9.76183e-08
9.75914e-08
9.75571e-08
9.75322e-08
9.75016e-08
9.74791e-08
9.74504e-08
9.74282e-08
9.74007e-08
9.73798e-08
9.73549e-08
9.73369e-08
9.73145e-08
9.7299e-08
9.7278e-08
9.72629e-08
9.7242e-08
9.72268e-08
9.7206e-08
9.71908e-08
9.71707e-08
9.71556e-08
9.71363e-08
9.71192e-08
9.70977e-08
9.70779e-08
9.7056e-08
9.70372e-08
9.7013e-08
9.69762e-08
9.6984e-08
9.79134e-08
1.00334e-07
1.09591e-08
1.23935e-07
1.23153e-07
1.22373e-07
1.2128e-07
1.19864e-07
1.18217e-07
1.16517e-07
1.14841e-07
1.13283e-07
1.11839e-07
1.10547e-07
1.0937e-07
1.0833e-07
1.07385e-07
1.06553e-07
1.05792e-07
1.05122e-07
1.04506e-07
1.03962e-07
1.03459e-07
1.03013e-07
1.02598e-07
1.02229e-07
1.01883e-07
1.01575e-07
1.01285e-07
1.01025e-07
1.00779e-07
1.00558e-07
1.00349e-07
1.00159e-07
9.998e-08
9.98159e-08
9.96612e-08
9.95184e-08
9.93842e-08
9.92589e-08
9.91418e-08
9.90314e-08
9.89292e-08
9.88305e-08
9.87408e-08
9.86532e-08
9.85738e-08
9.8495e-08
9.84251e-08
9.83539e-08
9.8293e-08
9.82278e-08
9.8174e-08
9.81139e-08
9.8066e-08
9.80086e-08
9.79674e-08
9.79156e-08
9.78781e-08
9.78309e-08
9.77972e-08
9.77551e-08
9.77242e-08
9.76842e-08
9.76551e-08
9.76189e-08
9.7592e-08
9.75576e-08
9.75327e-08
9.7502e-08
9.74795e-08
9.74507e-08
9.74286e-08
9.7401e-08
9.73801e-08
9.73552e-08
9.73372e-08
9.73148e-08
9.72992e-08
9.72782e-08
9.72631e-08
9.72422e-08
9.72269e-08
9.72061e-08
9.71909e-08
9.71708e-08
9.71557e-08
9.71363e-08
9.71193e-08
9.70978e-08
9.7078e-08
9.70561e-08
9.70373e-08
9.70131e-08
9.69764e-08
9.69844e-08
9.79238e-08
1.00337e-07
1.14279e-08
1.23935e-07
1.23153e-07
1.22373e-07
1.21282e-07
1.19867e-07
1.18222e-07
1.16523e-07
1.14848e-07
1.13291e-07
1.11847e-07
1.10555e-07
1.09378e-07
1.08339e-07
1.07393e-07
1.0656e-07
1.05799e-07
1.05129e-07
1.04513e-07
1.03969e-07
1.03465e-07
1.03019e-07
1.02603e-07
1.02234e-07
1.01888e-07
1.0158e-07
1.01289e-07
1.01029e-07
1.00783e-07
1.00562e-07
1.00353e-07
1.00163e-07
9.99833e-08
9.98191e-08
9.96642e-08
9.95213e-08
9.93869e-08
9.92616e-08
9.91443e-08
9.90338e-08
9.89314e-08
9.88327e-08
9.87429e-08
9.86552e-08
9.85757e-08
9.84968e-08
9.84269e-08
9.83556e-08
9.82946e-08
9.82293e-08
9.81755e-08
9.81153e-08
9.80674e-08
9.80099e-08
9.79686e-08
9.79167e-08
9.78792e-08
9.7832e-08
9.77982e-08
9.7756e-08
9.77251e-08
9.76851e-08
9.7656e-08
9.76197e-08
9.75927e-08
9.75583e-08
9.75334e-08
9.75027e-08
9.74802e-08
9.74514e-08
9.74292e-08
9.74016e-08
9.73807e-08
9.73558e-08
9.73377e-08
9.73153e-08
9.72996e-08
9.72786e-08
9.72635e-08
9.72425e-08
9.72273e-08
9.72064e-08
9.71912e-08
9.7171e-08
9.7156e-08
9.71365e-08
9.71195e-08
9.70981e-08
9.70784e-08
9.70563e-08
9.70377e-08
9.70134e-08
9.69768e-08
9.6985e-08
9.7937e-08
1.00341e-07
1.193e-08
1.23935e-07
1.23152e-07
1.22373e-07
1.21283e-07
1.19871e-07
1.18229e-07
1.16531e-07
1.14858e-07
1.13301e-07
1.11857e-07
1.10566e-07
1.09389e-07
1.08349e-07
1.07403e-07
1.0657e-07
1.05808e-07
1.05138e-07
1.04521e-07
1.03976e-07
1.03472e-07
1.03026e-07
1.0261e-07
1.0224e-07
1.01894e-07
1.01585e-07
1.01295e-07
1.01034e-07
1.00788e-07
1.00567e-07
1.00357e-07
1.00167e-07
9.99874e-08
9.9823e-08
9.96679e-08
9.95249e-08
9.93903e-08
9.92648e-08
9.91475e-08
9.90368e-08
9.89343e-08
9.88355e-08
9.87455e-08
9.86577e-08
9.85782e-08
9.84991e-08
9.84291e-08
9.83577e-08
9.82967e-08
9.82313e-08
9.81774e-08
9.81171e-08
9.80691e-08
9.80116e-08
9.79702e-08
9.79183e-08
9.78807e-08
9.78334e-08
9.77996e-08
9.77574e-08
9.77264e-08
9.76863e-08
9.76571e-08
9.76208e-08
9.75938e-08
9.75594e-08
9.75344e-08
9.75036e-08
9.74811e-08
9.74523e-08
9.74301e-08
9.74024e-08
9.73816e-08
9.73566e-08
9.73385e-08
9.7316e-08
9.73003e-08
9.72793e-08
9.72641e-08
9.72431e-08
9.72278e-08
9.7207e-08
9.71918e-08
9.71715e-08
9.71565e-08
9.71368e-08
9.712e-08
9.70986e-08
9.70789e-08
9.70568e-08
9.70383e-08
9.7014e-08
9.69774e-08
9.6986e-08
9.79531e-08
1.00345e-07
1.24661e-08
1.23935e-07
1.23152e-07
1.22373e-07
1.21286e-07
1.19876e-07
1.18236e-07
1.16541e-07
1.14868e-07
1.13313e-07
1.11869e-07
1.10578e-07
1.094e-07
1.0836e-07
1.07414e-07
1.06581e-07
1.05819e-07
1.05148e-07
1.0453e-07
1.03986e-07
1.03481e-07
1.03034e-07
1.02618e-07
1.02248e-07
1.01901e-07
1.01592e-07
1.01301e-07
1.0104e-07
1.00794e-07
1.00573e-07
1.00363e-07
1.00172e-07
9.99923e-08
9.98277e-08
9.96724e-08
9.95292e-08
9.93944e-08
9.92687e-08
9.91512e-08
9.90404e-08
9.89378e-08
9.88388e-08
9.87487e-08
9.86608e-08
9.85811e-08
9.85019e-08
9.84318e-08
9.83603e-08
9.82992e-08
9.82337e-08
9.81797e-08
9.81194e-08
9.80713e-08
9.80137e-08
9.79722e-08
9.79202e-08
9.78825e-08
9.78352e-08
9.78013e-08
9.7759e-08
9.7728e-08
9.76879e-08
9.76586e-08
9.76223e-08
9.75953e-08
9.75607e-08
9.75358e-08
9.75049e-08
9.74823e-08
9.74535e-08
9.74312e-08
9.74036e-08
9.73827e-08
9.73576e-08
9.73395e-08
9.73169e-08
9.73012e-08
9.72801e-08
9.7265e-08
9.72439e-08
9.72286e-08
9.72077e-08
9.71925e-08
9.71722e-08
9.71571e-08
9.71374e-08
9.71206e-08
9.70994e-08
9.70797e-08
9.70575e-08
9.70391e-08
9.70148e-08
9.69783e-08
9.69872e-08
9.79723e-08
1.00351e-07
1.30367e-08
1.23935e-07
1.23151e-07
1.22373e-07
1.21288e-07
1.19882e-07
1.18244e-07
1.16552e-07
1.14881e-07
1.13326e-07
1.11883e-07
1.10592e-07
1.09414e-07
1.08374e-07
1.07427e-07
1.06593e-07
1.05831e-07
1.05159e-07
1.04541e-07
1.03996e-07
1.03491e-07
1.03044e-07
1.02627e-07
1.02257e-07
1.0191e-07
1.016e-07
1.01309e-07
1.01048e-07
1.00801e-07
1.00579e-07
1.00369e-07
1.00178e-07
9.9998e-08
9.98332e-08
9.96776e-08
9.95342e-08
9.93992e-08
9.92734e-08
9.91557e-08
9.90447e-08
9.89418e-08
9.88427e-08
9.87525e-08
9.86644e-08
9.85846e-08
9.85053e-08
9.84351e-08
9.83634e-08
9.83022e-08
9.82366e-08
9.81825e-08
9.8122e-08
9.80739e-08
9.80162e-08
9.79747e-08
9.79226e-08
9.78848e-08
9.78374e-08
9.78034e-08
9.7761e-08
9.773e-08
9.76898e-08
9.76605e-08
9.76241e-08
9.7597e-08
9.75624e-08
9.75374e-08
9.75065e-08
9.74839e-08
9.7455e-08
9.74327e-08
9.7405e-08
9.7384e-08
9.7359e-08
9.73408e-08
9.73182e-08
9.73024e-08
9.72813e-08
9.7266e-08
9.7245e-08
9.72297e-08
9.72087e-08
9.71935e-08
9.71732e-08
9.7158e-08
9.71382e-08
9.71215e-08
9.71003e-08
9.70808e-08
9.70584e-08
9.70402e-08
9.70158e-08
9.69794e-08
9.69887e-08
9.79948e-08
1.00356e-07
1.36419e-08
1.23935e-07
1.2315e-07
1.22373e-07
1.21291e-07
1.19888e-07
1.18254e-07
1.16564e-07
1.14895e-07
1.13341e-07
1.11899e-07
1.10607e-07
1.0943e-07
1.08389e-07
1.07442e-07
1.06607e-07
1.05845e-07
1.05172e-07
1.04554e-07
1.04008e-07
1.03502e-07
1.03055e-07
1.02637e-07
1.02266e-07
1.01919e-07
1.01609e-07
1.01317e-07
1.01056e-07
1.00809e-07
1.00587e-07
1.00376e-07
1.00185e-07
1.00005e-07
9.98395e-08
9.96837e-08
9.954e-08
9.94048e-08
9.92787e-08
9.91608e-08
9.90496e-08
9.89466e-08
9.88473e-08
9.87569e-08
9.86686e-08
9.85886e-08
9.85092e-08
9.84388e-08
9.8367e-08
9.83057e-08
9.82399e-08
9.81857e-08
9.81252e-08
9.80769e-08
9.80191e-08
9.79775e-08
9.79253e-08
9.78875e-08
9.784e-08
9.78059e-08
9.77634e-08
9.77323e-08
9.7692e-08
9.76627e-08
9.76262e-08
9.75991e-08
9.75644e-08
9.75394e-08
9.75084e-08
9.74857e-08
9.74567e-08
9.74345e-08
9.74067e-08
9.73857e-08
9.73606e-08
9.73424e-08
9.73197e-08
9.73039e-08
9.72827e-08
9.72674e-08
9.72463e-08
9.72309e-08
9.72099e-08
9.71947e-08
9.71743e-08
9.71592e-08
9.71393e-08
9.71226e-08
9.71015e-08
9.7082e-08
9.70595e-08
9.70415e-08
9.7017e-08
9.69808e-08
9.69905e-08
9.80207e-08
1.00363e-07
1.42808e-08
1.23935e-07
1.23149e-07
1.22373e-07
1.21293e-07
1.19895e-07
1.18264e-07
1.16577e-07
1.1491e-07
1.13358e-07
1.11916e-07
1.10625e-07
1.09447e-07
1.08406e-07
1.07458e-07
1.06623e-07
1.0586e-07
1.05187e-07
1.04568e-07
1.04022e-07
1.03515e-07
1.03067e-07
1.02649e-07
1.02278e-07
1.0193e-07
1.01619e-07
1.01327e-07
1.01065e-07
1.00818e-07
1.00595e-07
1.00384e-07
1.00193e-07
1.00012e-07
9.98466e-08
9.96905e-08
9.95466e-08
9.94111e-08
9.92848e-08
9.91666e-08
9.90552e-08
9.8952e-08
9.88524e-08
9.87619e-08
9.86734e-08
9.85933e-08
9.85137e-08
9.84431e-08
9.83712e-08
9.83097e-08
9.82438e-08
9.81895e-08
9.81288e-08
9.80805e-08
9.80225e-08
9.79808e-08
9.79285e-08
9.78905e-08
9.78429e-08
9.78088e-08
9.77662e-08
9.7735e-08
9.76947e-08
9.76653e-08
9.76287e-08
9.76015e-08
9.75668e-08
9.75417e-08
9.75106e-08
9.74879e-08
9.74589e-08
9.74365e-08
9.74087e-08
9.73877e-08
9.73625e-08
9.73443e-08
9.73214e-08
9.73056e-08
9.72843e-08
9.7269e-08
9.72478e-08
9.72325e-08
9.72114e-08
9.71961e-08
9.71757e-08
9.71605e-08
9.71405e-08
9.71239e-08
9.71029e-08
9.70835e-08
9.70608e-08
9.7043e-08
9.70185e-08
9.69824e-08
9.69927e-08
9.80502e-08
1.0037e-07
1.49532e-08
1.23935e-07
1.23148e-07
1.22373e-07
1.21297e-07
1.19902e-07
1.18276e-07
1.16592e-07
1.14927e-07
1.13376e-07
1.11935e-07
1.10644e-07
1.09467e-07
1.08425e-07
1.07477e-07
1.06641e-07
1.05877e-07
1.05204e-07
1.04584e-07
1.04037e-07
1.0353e-07
1.03081e-07
1.02662e-07
1.0229e-07
1.01942e-07
1.01631e-07
1.01338e-07
1.01076e-07
1.00828e-07
1.00605e-07
1.00393e-07
1.00202e-07
1.0002e-07
9.98547e-08
9.96982e-08
9.9554e-08
9.94182e-08
9.92916e-08
9.91732e-08
9.90615e-08
9.8958e-08
9.88583e-08
9.87675e-08
9.86788e-08
9.85985e-08
9.85187e-08
9.8448e-08
9.83759e-08
9.83143e-08
9.82482e-08
9.81937e-08
9.81329e-08
9.80845e-08
9.80264e-08
9.79845e-08
9.79321e-08
9.78941e-08
9.78464e-08
9.78121e-08
9.77694e-08
9.77381e-08
9.76977e-08
9.76682e-08
9.76315e-08
9.76043e-08
9.75695e-08
9.75443e-08
9.75132e-08
9.74904e-08
9.74613e-08
9.74389e-08
9.7411e-08
9.739e-08
9.73647e-08
9.73464e-08
9.73235e-08
9.73076e-08
9.72862e-08
9.72709e-08
9.72497e-08
9.72343e-08
9.72132e-08
9.71979e-08
9.71774e-08
9.71621e-08
9.7142e-08
9.71255e-08
9.71045e-08
9.70852e-08
9.70624e-08
9.70447e-08
9.70203e-08
9.69843e-08
9.69953e-08
9.80835e-08
1.00377e-07
1.56609e-08
1.23935e-07
1.23147e-07
1.22373e-07
1.213e-07
1.1991e-07
1.18289e-07
1.16608e-07
1.14946e-07
1.13397e-07
1.11956e-07
1.10666e-07
1.09488e-07
1.08446e-07
1.07497e-07
1.06661e-07
1.05896e-07
1.05222e-07
1.04601e-07
1.04053e-07
1.03546e-07
1.03096e-07
1.02677e-07
1.02304e-07
1.01955e-07
1.01644e-07
1.0135e-07
1.01087e-07
1.00839e-07
1.00615e-07
1.00403e-07
1.00211e-07
1.0003e-07
9.98636e-08
9.97068e-08
9.95622e-08
9.94261e-08
9.92992e-08
9.91805e-08
9.90685e-08
9.89648e-08
9.88648e-08
9.87738e-08
9.86849e-08
9.86044e-08
9.85244e-08
9.84535e-08
9.83811e-08
9.83194e-08
9.82531e-08
9.81985e-08
9.81375e-08
9.8089e-08
9.80307e-08
9.79887e-08
9.79362e-08
9.7898e-08
9.78502e-08
9.78158e-08
9.7773e-08
9.77417e-08
9.77011e-08
9.76715e-08
9.76348e-08
9.76075e-08
9.75726e-08
9.75473e-08
9.75161e-08
9.74932e-08
9.74641e-08
9.74417e-08
9.74137e-08
9.73926e-08
9.73672e-08
9.73489e-08
9.73259e-08
9.73099e-08
9.72885e-08
9.72731e-08
9.72518e-08
9.72364e-08
9.72152e-08
9.71998e-08
9.71793e-08
9.7164e-08
9.71438e-08
9.71273e-08
9.71065e-08
9.70872e-08
9.70643e-08
9.70468e-08
9.70223e-08
9.69865e-08
9.69982e-08
9.81208e-08
1.00384e-07
1.64063e-08
1.23935e-07
1.23146e-07
1.22373e-07
1.21304e-07
1.19919e-07
1.18303e-07
1.16626e-07
1.14967e-07
1.13419e-07
1.1198e-07
1.10689e-07
1.09511e-07
1.08469e-07
1.07519e-07
1.06682e-07
1.05917e-07
1.05242e-07
1.0462e-07
1.04072e-07
1.03563e-07
1.03113e-07
1.02693e-07
1.02319e-07
1.0197e-07
1.01657e-07
1.01363e-07
1.011e-07
1.00851e-07
1.00627e-07
1.00415e-07
1.00222e-07
1.0004e-07
9.98735e-08
9.97162e-08
9.95713e-08
9.94349e-08
9.93076e-08
9.91886e-08
9.90763e-08
9.89723e-08
9.88721e-08
9.87808e-08
9.86917e-08
9.86109e-08
9.85306e-08
9.84596e-08
9.8387e-08
9.83251e-08
9.82586e-08
9.82039e-08
9.81427e-08
9.8094e-08
9.80356e-08
9.79935e-08
9.79408e-08
9.79025e-08
9.78545e-08
9.782e-08
9.77771e-08
9.77456e-08
9.7705e-08
9.76753e-08
9.76384e-08
9.7611e-08
9.75761e-08
9.75507e-08
9.75193e-08
9.74964e-08
9.74672e-08
9.74448e-08
9.74167e-08
9.73956e-08
9.73701e-08
9.73517e-08
9.73286e-08
9.73126e-08
9.7291e-08
9.72756e-08
9.72542e-08
9.72387e-08
9.72175e-08
9.72021e-08
9.71814e-08
9.71662e-08
9.71458e-08
9.71294e-08
9.71086e-08
9.70895e-08
9.70664e-08
9.70491e-08
9.70246e-08
9.69889e-08
9.70014e-08
9.81621e-08
1.0039e-07
1.71917e-08
1.23934e-07
1.23145e-07
1.22373e-07
1.21308e-07
1.19929e-07
1.18317e-07
1.16645e-07
1.14989e-07
1.13443e-07
1.12005e-07
1.10715e-07
1.09536e-07
1.08494e-07
1.07544e-07
1.06706e-07
1.05939e-07
1.05264e-07
1.04641e-07
1.04092e-07
1.03582e-07
1.03131e-07
1.0271e-07
1.02336e-07
1.01986e-07
1.01673e-07
1.01378e-07
1.01114e-07
1.00864e-07
1.0064e-07
1.00427e-07
1.00234e-07
1.00051e-07
9.98843e-08
9.97266e-08
9.95813e-08
9.94444e-08
9.93168e-08
9.91975e-08
9.90849e-08
9.89806e-08
9.888e-08
9.87885e-08
9.86991e-08
9.86181e-08
9.85376e-08
9.84663e-08
9.83935e-08
9.83313e-08
9.82647e-08
9.82097e-08
9.81484e-08
9.80995e-08
9.8041e-08
9.79987e-08
9.79458e-08
9.79074e-08
9.78593e-08
9.78246e-08
9.77816e-08
9.775e-08
9.77092e-08
9.76795e-08
9.76425e-08
9.7615e-08
9.75799e-08
9.75545e-08
9.7523e-08
9.75e-08
9.74707e-08
9.74482e-08
9.74201e-08
9.73989e-08
9.73733e-08
9.73549e-08
9.73316e-08
9.73155e-08
9.72939e-08
9.72784e-08
9.72569e-08
9.72414e-08
9.72201e-08
9.72047e-08
9.71839e-08
9.71686e-08
9.71481e-08
9.71317e-08
9.7111e-08
9.7092e-08
9.70687e-08
9.70517e-08
9.70272e-08
9.69917e-08
9.70051e-08
9.82075e-08
1.00396e-07
1.80198e-08
1.23934e-07
1.23144e-07
1.22373e-07
1.21312e-07
1.19939e-07
1.18333e-07
1.16666e-07
1.15013e-07
1.13469e-07
1.12032e-07
1.10742e-07
1.09564e-07
1.08521e-07
1.0757e-07
1.06731e-07
1.05964e-07
1.05287e-07
1.04664e-07
1.04113e-07
1.03603e-07
1.03151e-07
1.02729e-07
1.02354e-07
1.02003e-07
1.01689e-07
1.01394e-07
1.01129e-07
1.00879e-07
1.00654e-07
1.0044e-07
1.00247e-07
1.00064e-07
9.98961e-08
9.9738e-08
9.95922e-08
9.94549e-08
9.93269e-08
9.92072e-08
9.90943e-08
9.89896e-08
9.88888e-08
9.87969e-08
9.87072e-08
9.8626e-08
9.85452e-08
9.84737e-08
9.84006e-08
9.83382e-08
9.82713e-08
9.82162e-08
9.81546e-08
9.81056e-08
9.80469e-08
9.80044e-08
9.79514e-08
9.79128e-08
9.78645e-08
9.78298e-08
9.77865e-08
9.77548e-08
9.7714e-08
9.76841e-08
9.76469e-08
9.76194e-08
9.75842e-08
9.75587e-08
9.75271e-08
9.7504e-08
9.74746e-08
9.7452e-08
9.74238e-08
9.74026e-08
9.73769e-08
9.73584e-08
9.7335e-08
9.73188e-08
9.7297e-08
9.72815e-08
9.72599e-08
9.72444e-08
9.7223e-08
9.72075e-08
9.71867e-08
9.71714e-08
9.71507e-08
9.71344e-08
9.71137e-08
9.70949e-08
9.70714e-08
9.70545e-08
9.70301e-08
9.69948e-08
9.70092e-08
9.82573e-08
9.52333e-08
1.88932e-08
1.23934e-07
1.23142e-07
1.22373e-07
1.21316e-07
1.1995e-07
1.1835e-07
1.16688e-07
1.15038e-07
1.13497e-07
1.12061e-07
1.10772e-07
1.09593e-07
1.0855e-07
1.07598e-07
1.06759e-07
1.0599e-07
1.05312e-07
1.04688e-07
1.04137e-07
1.03625e-07
1.03172e-07
1.02749e-07
1.02374e-07
1.02022e-07
1.01707e-07
1.01411e-07
1.01145e-07
1.00895e-07
1.00669e-07
1.00455e-07
1.0026e-07
1.00077e-07
9.99089e-08
9.97503e-08
9.9604e-08
9.94663e-08
9.93379e-08
9.92178e-08
9.91045e-08
9.89995e-08
9.88983e-08
9.88061e-08
9.87161e-08
9.86346e-08
9.85534e-08
9.84817e-08
9.84083e-08
9.83458e-08
9.82786e-08
9.82233e-08
9.81615e-08
9.81123e-08
9.80534e-08
9.80107e-08
9.79575e-08
9.79188e-08
9.78703e-08
9.78354e-08
9.7792e-08
9.77602e-08
9.77192e-08
9.76892e-08
9.76519e-08
9.76242e-08
9.75889e-08
9.75633e-08
9.75316e-08
9.75084e-08
9.74789e-08
9.74563e-08
9.7428e-08
9.74067e-08
9.73809e-08
9.73623e-08
9.73387e-08
9.73225e-08
9.73006e-08
9.7285e-08
9.72633e-08
9.72477e-08
9.72262e-08
9.72107e-08
9.71898e-08
9.71744e-08
9.71537e-08
9.71373e-08
9.71167e-08
9.7098e-08
9.70743e-08
9.70577e-08
9.70332e-08
9.69983e-08
9.70137e-08
9.83115e-08
8.98826e-08
1.98147e-08
1.23934e-07
1.23141e-07
1.22373e-07
1.21321e-07
1.19961e-07
1.18368e-07
1.16712e-07
1.15066e-07
1.13527e-07
1.12092e-07
1.10803e-07
1.09625e-07
1.08581e-07
1.07628e-07
1.06788e-07
1.06019e-07
1.0534e-07
1.04714e-07
1.04162e-07
1.03649e-07
1.03195e-07
1.02771e-07
1.02395e-07
1.02042e-07
1.01727e-07
1.0143e-07
1.01163e-07
1.00912e-07
1.00685e-07
1.0047e-07
1.00276e-07
1.00091e-07
9.99228e-08
9.97636e-08
9.96169e-08
9.94787e-08
9.93498e-08
9.92293e-08
9.91155e-08
9.90102e-08
9.89086e-08
9.8816e-08
9.87257e-08
9.86439e-08
9.85625e-08
9.84904e-08
9.84168e-08
9.83539e-08
9.82865e-08
9.8231e-08
9.81689e-08
9.81196e-08
9.80605e-08
9.80176e-08
9.79642e-08
9.79252e-08
9.78766e-08
9.78415e-08
9.77979e-08
9.7766e-08
9.77248e-08
9.76947e-08
9.76573e-08
9.76295e-08
9.75941e-08
9.75684e-08
9.75365e-08
9.75132e-08
9.74836e-08
9.74609e-08
9.74325e-08
9.74111e-08
9.73852e-08
9.73665e-08
9.73429e-08
9.73265e-08
9.73045e-08
9.72888e-08
9.7267e-08
9.72514e-08
9.72298e-08
9.72142e-08
9.71932e-08
9.71778e-08
9.71569e-08
9.71406e-08
9.712e-08
9.71014e-08
9.70776e-08
9.70612e-08
9.70367e-08
9.7002e-08
9.70187e-08
9.83701e-08
8.51124e-08
2.07874e-08
1.23934e-07
1.23139e-07
1.22372e-07
1.21326e-07
1.19973e-07
1.18388e-07
1.16737e-07
1.15095e-07
1.13558e-07
1.12125e-07
1.10837e-07
1.09658e-07
1.08614e-07
1.07661e-07
1.0682e-07
1.06049e-07
1.05369e-07
1.04742e-07
1.04189e-07
1.03675e-07
1.0322e-07
1.02795e-07
1.02418e-07
1.02063e-07
1.01747e-07
1.01449e-07
1.01182e-07
1.0093e-07
1.00703e-07
1.00487e-07
1.00292e-07
1.00107e-07
9.99377e-08
9.9778e-08
9.96307e-08
9.9492e-08
9.93627e-08
9.92417e-08
9.91275e-08
9.90217e-08
9.89197e-08
9.88268e-08
9.87361e-08
9.8654e-08
9.85722e-08
9.84999e-08
9.84259e-08
9.83628e-08
9.82951e-08
9.82394e-08
9.8177e-08
9.81275e-08
9.80681e-08
9.8025e-08
9.79715e-08
9.79323e-08
9.78835e-08
9.78482e-08
9.78044e-08
9.77723e-08
9.7731e-08
9.77007e-08
9.76631e-08
9.76353e-08
9.75997e-08
9.75739e-08
9.75418e-08
9.75185e-08
9.74887e-08
9.7466e-08
9.74374e-08
9.7416e-08
9.739e-08
9.73712e-08
9.73474e-08
9.73309e-08
9.73087e-08
9.7293e-08
9.72711e-08
9.72554e-08
9.72337e-08
9.72181e-08
9.71969e-08
9.71815e-08
9.71604e-08
9.71441e-08
9.71236e-08
9.71052e-08
9.70812e-08
9.7065e-08
9.70406e-08
9.70062e-08
9.70241e-08
9.84331e-08
8.08542e-08
2.18142e-08
1.23934e-07
1.23138e-07
1.22372e-07
1.21331e-07
1.19986e-07
1.18408e-07
1.16763e-07
1.15125e-07
1.13592e-07
1.1216e-07
1.10873e-07
1.09694e-07
1.08649e-07
1.07695e-07
1.06853e-07
1.06081e-07
1.054e-07
1.04772e-07
1.04218e-07
1.03703e-07
1.03247e-07
1.02821e-07
1.02442e-07
1.02087e-07
1.0177e-07
1.01471e-07
1.01203e-07
1.00949e-07
1.00721e-07
1.00505e-07
1.00309e-07
1.00123e-07
9.99538e-08
9.97934e-08
9.96456e-08
9.95064e-08
9.93765e-08
9.9255e-08
9.91403e-08
9.90341e-08
9.89317e-08
9.88384e-08
9.87473e-08
9.86648e-08
9.85827e-08
9.85101e-08
9.84358e-08
9.83724e-08
9.83044e-08
9.82484e-08
9.81857e-08
9.8136e-08
9.80764e-08
9.80331e-08
9.79793e-08
9.79399e-08
9.78909e-08
9.78554e-08
9.78114e-08
9.77792e-08
9.77377e-08
9.77073e-08
9.76695e-08
9.76416e-08
9.76059e-08
9.75799e-08
9.75477e-08
9.75242e-08
9.74943e-08
9.74715e-08
9.74428e-08
9.74213e-08
9.73951e-08
9.73763e-08
9.73523e-08
9.73357e-08
9.73134e-08
9.72976e-08
9.72756e-08
9.72598e-08
9.7238e-08
9.72224e-08
9.7201e-08
9.71856e-08
9.71644e-08
9.71481e-08
9.71275e-08
9.71092e-08
9.7085e-08
9.70691e-08
9.70448e-08
9.70106e-08
9.703e-08
9.85005e-08
7.70486e-08
2.28981e-08
1.23934e-07
1.23136e-07
1.22372e-07
1.21337e-07
1.19999e-07
1.18429e-07
1.16791e-07
1.15158e-07
1.13628e-07
1.12198e-07
1.10911e-07
1.09732e-07
1.08687e-07
1.07732e-07
1.06889e-07
1.06116e-07
1.05434e-07
1.04805e-07
1.04248e-07
1.03732e-07
1.03275e-07
1.02848e-07
1.02468e-07
1.02112e-07
1.01794e-07
1.01494e-07
1.01225e-07
1.0097e-07
1.00742e-07
1.00525e-07
1.00328e-07
1.00141e-07
9.9971e-08
9.981e-08
9.96616e-08
9.95217e-08
9.93913e-08
9.92693e-08
9.91541e-08
9.90475e-08
9.89446e-08
9.88509e-08
9.87594e-08
9.86765e-08
9.8594e-08
9.85211e-08
9.84464e-08
9.83827e-08
9.83144e-08
9.82581e-08
9.81952e-08
9.81453e-08
9.80854e-08
9.80418e-08
9.79877e-08
9.79482e-08
9.78989e-08
9.78632e-08
9.7819e-08
9.77866e-08
9.7745e-08
9.77144e-08
9.76764e-08
9.76484e-08
9.76125e-08
9.75863e-08
9.7554e-08
9.75304e-08
9.75003e-08
9.74775e-08
9.74487e-08
9.74271e-08
9.74007e-08
9.73818e-08
9.73577e-08
9.7341e-08
9.73185e-08
9.73026e-08
9.72804e-08
9.72646e-08
9.72426e-08
9.7227e-08
9.72055e-08
9.719e-08
9.71686e-08
9.71523e-08
9.71317e-08
9.71137e-08
9.70893e-08
9.70735e-08
9.70493e-08
9.70155e-08
9.70363e-08
9.85718e-08
7.36452e-08
2.40421e-08
1.23934e-07
1.23134e-07
1.22371e-07
1.21342e-07
1.20013e-07
1.18451e-07
1.1682e-07
1.15192e-07
1.13666e-07
1.12237e-07
1.10952e-07
1.09773e-07
1.08727e-07
1.07771e-07
1.06927e-07
1.06153e-07
1.05469e-07
1.04839e-07
1.04281e-07
1.03764e-07
1.03305e-07
1.02876e-07
1.02496e-07
1.02138e-07
1.01819e-07
1.01518e-07
1.01248e-07
1.00993e-07
1.00763e-07
1.00545e-07
1.00348e-07
1.0016e-07
9.99894e-08
9.98277e-08
9.96786e-08
9.95382e-08
9.94072e-08
9.92846e-08
9.91689e-08
9.90618e-08
9.89585e-08
9.88643e-08
9.87723e-08
9.86891e-08
9.86062e-08
9.85329e-08
9.84578e-08
9.83938e-08
9.83251e-08
9.82685e-08
9.82053e-08
9.81551e-08
9.8095e-08
9.80511e-08
9.79968e-08
9.7957e-08
9.79076e-08
9.78716e-08
9.78272e-08
9.77946e-08
9.77528e-08
9.7722e-08
9.76839e-08
9.76557e-08
9.76196e-08
9.75934e-08
9.75608e-08
9.75371e-08
9.75069e-08
9.74839e-08
9.7455e-08
9.74333e-08
9.74068e-08
9.73878e-08
9.73634e-08
9.73466e-08
9.7324e-08
9.7308e-08
9.72857e-08
9.72698e-08
9.72477e-08
9.7232e-08
9.72104e-08
9.71948e-08
9.71733e-08
9.7157e-08
9.71362e-08
9.71184e-08
9.70938e-08
9.70784e-08
9.70542e-08
9.70208e-08
9.70432e-08
9.86463e-08
7.06011e-08
2.5249e-08
1.23934e-07
1.23132e-07
1.22371e-07
1.21348e-07
1.20028e-07
1.18475e-07
1.16851e-07
1.15229e-07
1.13706e-07
1.12279e-07
1.10994e-07
1.09815e-07
1.08769e-07
1.07812e-07
1.06967e-07
1.06192e-07
1.05507e-07
1.04875e-07
1.04316e-07
1.03797e-07
1.03337e-07
1.02907e-07
1.02525e-07
1.02166e-07
1.01846e-07
1.01544e-07
1.01273e-07
1.01017e-07
1.00786e-07
1.00567e-07
1.00369e-07
1.00181e-07
1.00009e-07
9.98466e-08
9.96969e-08
9.95558e-08
9.94242e-08
9.9301e-08
9.91848e-08
9.90771e-08
9.89732e-08
9.88786e-08
9.87862e-08
9.87025e-08
9.86191e-08
9.85455e-08
9.847e-08
9.84057e-08
9.83366e-08
9.82797e-08
9.82161e-08
9.81658e-08
9.81053e-08
9.80612e-08
9.80066e-08
9.79666e-08
9.79168e-08
9.78806e-08
9.78359e-08
9.78032e-08
9.77612e-08
9.77303e-08
9.76919e-08
9.76635e-08
9.76273e-08
9.76009e-08
9.75681e-08
9.75443e-08
9.75139e-08
9.74909e-08
9.74618e-08
9.74401e-08
9.74134e-08
9.73942e-08
9.73697e-08
9.73528e-08
9.73299e-08
9.73139e-08
9.72914e-08
9.72755e-08
9.72532e-08
9.72374e-08
9.72157e-08
9.72001e-08
9.71784e-08
9.7162e-08
9.71411e-08
9.71235e-08
9.70988e-08
9.70836e-08
9.70595e-08
9.70264e-08
9.70505e-08
9.87232e-08
6.78795e-08
2.65211e-08
1.23934e-07
1.2313e-07
1.22371e-07
1.21354e-07
1.20043e-07
1.18499e-07
1.16883e-07
1.15267e-07
1.13747e-07
1.12323e-07
1.11039e-07
1.09861e-07
1.08814e-07
1.07856e-07
1.0701e-07
1.06233e-07
1.05547e-07
1.04913e-07
1.04353e-07
1.03832e-07
1.03371e-07
1.0294e-07
1.02556e-07
1.02196e-07
1.01875e-07
1.01571e-07
1.013e-07
1.01042e-07
1.00811e-07
1.00591e-07
1.00391e-07
1.00203e-07
1.0003e-07
9.98667e-08
9.97163e-08
9.95745e-08
9.94423e-08
9.93184e-08
9.92016e-08
9.90934e-08
9.8989e-08
9.88939e-08
9.88009e-08
9.87168e-08
9.8633e-08
9.8559e-08
9.8483e-08
9.84183e-08
9.83489e-08
9.82917e-08
9.82278e-08
9.81771e-08
9.81164e-08
9.80719e-08
9.80171e-08
9.79768e-08
9.79268e-08
9.78903e-08
9.78454e-08
9.78124e-08
9.77702e-08
9.77391e-08
9.77005e-08
9.7672e-08
9.76356e-08
9.7609e-08
9.7576e-08
9.7552e-08
9.75215e-08
9.74984e-08
9.74691e-08
9.74473e-08
9.74204e-08
9.74012e-08
9.73765e-08
9.73594e-08
9.73363e-08
9.73202e-08
9.72975e-08
9.72816e-08
9.72591e-08
9.72433e-08
9.72214e-08
9.72057e-08
9.71838e-08
9.71675e-08
9.71463e-08
9.7129e-08
9.71041e-08
9.70891e-08
9.70652e-08
9.70325e-08
9.70584e-08
9.88017e-08
6.54491e-08
2.78603e-08
1.23934e-07
1.23128e-07
1.2237e-07
1.2136e-07
1.20059e-07
1.18525e-07
1.16917e-07
1.15306e-07
1.13791e-07
1.12369e-07
1.11087e-07
1.09908e-07
1.08861e-07
1.07902e-07
1.07055e-07
1.06276e-07
1.05589e-07
1.04954e-07
1.04392e-07
1.0387e-07
1.03407e-07
1.02974e-07
1.02589e-07
1.02228e-07
1.01905e-07
1.01601e-07
1.01328e-07
1.01069e-07
1.00837e-07
1.00616e-07
1.00415e-07
1.00226e-07
1.00052e-07
9.98882e-08
9.97369e-08
9.95944e-08
9.94615e-08
9.9337e-08
9.92196e-08
9.91107e-08
9.90058e-08
9.89101e-08
9.88167e-08
9.87321e-08
9.86478e-08
9.85733e-08
9.84969e-08
9.84319e-08
9.8362e-08
9.83045e-08
9.82402e-08
9.81892e-08