/*--------------------------------*- C++ -*----------------------------------*\
| =========                 |                                                 |
| \\      /  F ield         | OpenFOAM: The Open Source CFD Toolbox           |
|  \\    /   O peration     | Version:  v2012                                 |
|   \\  /    A nd           | Website:  www.openfoam.com                      |
|    \\/     M anipulation  |                                                 |
\*---------------------------------------------------------------------------*/
FoamFile
{
    version     2.0;
    format      ascii;
    class       volScalarField;
    location    "55.5";
    object      omega;
}
// * * * * * * * * * * * * * * * * * * * * * * * * * * * * * * * * * * * * * //

dimensions      [0 0 -1 0 0 0 0];


internalField   nonuniform List<scalar> 
209825
(
8261.78
7570.1
6999.49
6539.39
6173.81
5884.84
5654.52
5469.51
5318.4
5194.05
5089.85
5002.32
4927.34
4863.34
4807.48
4759.24
4716.45
4679.18
4645.63
4616.24
4589.42
4565.85
4544.06
4524.89
4506.93
4491.14
4476.18
4463.04
4450.41
4439.39
4428.66
4419.34
4410.14
4402.2
4394.25
4387.46
4380.57
4374.73
4368.72
4363.65
4358.42
4354.03
4349.4
4345.6
4341.54
4338.21
4334.62
4331.68
4328.53
4325.96
4323.19
4320.96
4318.59
4316.57
4314.46
4312.7
4310.83
4309.29
4307.61
4306.27
4304.85
4303.75
4302.45
4301.55
4300.43
4299.66
4298.64
4297.99
4297.12
4296.63
4295.89
4295.49
4294.87
4294.53
4293.93
4293.56
4292.99
4292.66
4292.15
4291.88
4291.44
4291.23
4290.83
4290.69
4290.35
4290.36
4290.28
4290.46
4290.46
4290.78
4290.78
4291.44
4292.17
4320.26
4428.49
113077
8261.78
7570.1
6999.49
6539.39
6173.8
5884.81
5654.49
5469.47
5318.34
5193.99
5089.79
5002.25
4927.26
4863.26
4807.39
4759.15
4716.35
4679.08
4645.52
4616.13
4589.31
4565.74
4543.95
4524.77
4506.81
4491.03
4476.06
4462.92
4450.3
4439.27
4428.54
4419.21
4410.01
4402.07
4394.13
4387.33
4380.45
4374.6
4368.59
4363.53
4358.29
4353.9
4349.27
4345.47
4341.41
4338.08
4334.49
4331.55
4328.4
4325.83
4323.06
4320.83
4318.46
4316.44
4314.32
4312.57
4310.7
4309.16
4307.47
4306.14
4304.71
4303.62
4302.31
4301.41
4300.29
4299.53
4298.5
4297.86
4296.98
4296.49
4295.75
4295.36
4294.73
4294.39
4293.8
4293.43
4292.85
4292.52
4292.01
4291.74
4291.3
4291.09
4290.69
4290.55
4290.21
4290.22
4290.14
4290.32
4290.32
4290.64
4290.64
4291.29
4292.03
4320.17
4428.39
109778
8261.78
7570.11
6999.49
6539.37
6173.75
5884.73
5654.38
5469.32
5318.17
5193.78
5089.56
5002
4926.99
4862.97
4807.1
4758.84
4716.03
4678.75
4645.19
4615.79
4588.96
4565.38
4543.59
4524.4
4506.44
4490.65
4475.67
4462.53
4449.9
4438.88
4428.14
4418.81
4409.61
4401.67
4393.72
4386.92
4380.03
4374.19
4368.17
4363.11
4357.87
4353.48
4348.84
4345.04
4340.98
4337.65
4334.06
4331.11
4327.97
4325.39
4322.62
4320.39
4318.02
4316
4313.88
4312.13
4310.26
4308.71
4307.03
4305.69
4304.27
4303.17
4301.87
4300.96
4299.85
4299.08
4298.05
4297.41
4296.53
4296.04
4295.3
4294.91
4294.28
4293.94
4293.34
4292.98
4292.4
4292.07
4291.56
4291.29
4290.84
4290.63
4290.24
4290.09
4289.76
4289.76
4289.68
4289.86
4289.86
4290.18
4290.18
4290.83
4291.58
4319.81
4428.02
105991
8261.78
7570.12
6999.5
6539.34
6173.67
5884.59
5654.17
5469.06
5317.86
5193.43
5089.16
5001.57
4926.54
4862.49
4806.59
4758.31
4715.48
4678.18
4644.6
4615.19
4588.35
4564.76
4542.96
4523.76
4505.79
4489.99
4475.01
4461.86
4449.23
4438.19
4427.45
4418.12
4408.91
4400.97
4393.01
4386.21
4379.32
4373.47
4367.45
4362.38
4357.15
4352.75
4348.11
4344.31
4340.24
4336.91
4333.32
4330.37
4327.23
4324.65
4321.88
4319.64
4317.27
4315.25
4313.13
4311.37
4309.5
4307.96
4306.27
4304.93
4303.51
4302.41
4301.1
4300.2
4299.08
4298.31
4297.29
4296.64
4295.76
4295.27
4294.53
4294.13
4293.51
4293.17
4292.57
4292.2
4291.62
4291.3
4290.78
4290.52
4290.07
4289.86
4289.46
4289.31
4288.98
4288.98
4288.9
4289.08
4289.08
4289.4
4289.39
4290.05
4290.79
4319.18
4427.37
102097
8261.78
7570.13
6999.51
6539.3
6173.55
5884.38
5653.88
5468.69
5317.41
5192.92
5088.6
5000.96
4925.88
4861.8
4805.86
4757.56
4714.7
4677.38
4643.78
4614.34
4587.48
4563.88
4542.06
4522.85
4504.87
4489.06
4474.07
4460.91
4448.26
4437.22
4426.47
4417.13
4407.92
4399.97
4392.01
4385.2
4378.3
4372.45
4366.43
4361.36
4356.11
4351.71
4347.07
4343.26
4339.2
4335.86
4332.27
4329.32
4326.17
4323.59
4320.82
4318.58
4316.2
4314.18
4312.06
4310.3
4308.43
4306.88
4305.19
4303.85
4302.43
4301.33
4300.02
4299.11
4297.99
4297.22
4296.2
4295.55
4294.67
4294.18
4293.44
4293.04
4292.41
4292.07
4291.47
4291.1
4290.52
4290.19
4289.68
4289.41
4288.96
4288.75
4288.35
4288.2
4287.87
4287.87
4287.78
4287.96
4287.96
4288.27
4288.27
4288.92
4289.68
4318.27
4426.43
98199.4
8261.78
7570.16
6999.52
6539.25
6173.4
5884.12
5653.5
5468.2
5316.84
5192.26
5087.87
5000.16
4925.03
4860.89
4804.92
4756.57
4713.68
4676.32
4642.69
4613.24
4586.35
4562.73
4540.89
4521.67
4503.66
4487.84
4472.84
4459.66
4447.01
4435.96
4425.2
4415.85
4406.62
4398.66
4390.7
4383.88
4376.98
4371.12
4365.09
4360.01
4354.77
4350.36
4345.72
4341.9
4337.83
4334.49
4330.9
4327.94
4324.79
4322.2
4319.43
4317.19
4314.81
4312.78
4310.66
4308.9
4307.02
4305.47
4303.79
4302.44
4301.01
4299.91
4298.6
4297.69
4296.57
4295.8
4294.77
4294.12
4293.24
4292.75
4292.01
4291.61
4290.98
4290.64
4290.03
4289.66
4289.08
4288.75
4288.24
4287.97
4287.52
4287.31
4286.91
4286.76
4286.43
4286.42
4286.33
4286.5
4286.5
4286.81
4286.81
4287.46
4288.22
4317.08
4425.22
94339.3
8261.78
7570.18
6999.53
6539.18
6173.21
5883.79
5653.04
5467.61
5316.12
5191.45
5086.96
4999.18
4923.97
4859.78
4803.74
4755.35
4712.42
4675.02
4641.36
4611.87
4584.96
4561.31
4539.44
4520.2
4502.17
4486.33
4471.31
4458.12
4445.45
4434.39
4423.62
4414.26
4405.02
4397.05
4389.07
4382.25
4375.34
4369.47
4363.44
4358.35
4353.1
4348.69
4344.04
4340.22
4336.14
4332.8
4329.2
4326.24
4323.08
4320.49
4317.71
4315.47
4313.09
4311.05
4308.93
4307.16
4305.29
4303.73
4302.04
4300.7
4299.26
4298.16
4296.85
4295.94
4294.81
4294.04
4293.01
4292.36
4291.48
4290.98
4290.24
4289.83
4289.2
4288.86
4288.26
4287.89
4287.3
4286.97
4286.45
4286.18
4285.73
4285.52
4285.12
4284.97
4284.64
4284.62
4284.52
4284.7
4284.7
4285
4285
4285.64
4286.41
4315.62
4423.72
90535.3
8261.78
7570.22
6999.54
6539.1
6172.99
5883.4
5652.48
5466.9
5315.27
5190.48
5085.88
4998
4922.71
4858.44
4802.34
4753.89
4710.91
4673.46
4639.76
4610.23
4583.28
4559.61
4537.71
4518.44
4500.39
4484.53
4469.49
4456.28
4443.59
4432.52
4421.73
4412.35
4403.11
4395.12
4387.13
4380.3
4373.38
4367.51
4361.46
4356.37
4351.1
4346.69
4342.03
4338.2
4334.12
4330.77
4327.16
4324.2
4321.03
4318.44
4315.66
4313.41
4311.02
4308.99
4306.86
4305.09
4303.21
4301.65
4299.96
4298.61
4297.17
4296.06
4294.75
4293.84
4292.71
4291.93
4290.9
4290.25
4289.36
4288.86
4288.12
4287.71
4287.08
4286.74
4286.13
4285.76
4285.17
4284.84
4284.32
4284.05
4283.59
4283.38
4282.98
4282.82
4282.5
4282.48
4282.37
4282.54
4282.54
4282.84
4282.83
4283.47
4284.26
4313.87
4421.94
86796.1
8261.78
7570.25
6999.56
6539.01
6172.72
5882.94
5651.83
5466.07
5314.28
5189.34
5084.62
4996.63
4921.24
4856.89
4800.71
4752.19
4709.14
4671.65
4637.89
4608.32
4581.33
4557.62
4535.69
4516.39
4498.32
4482.43
4467.36
4454.13
4441.42
4430.33
4419.52
4410.13
4400.87
4392.87
4384.87
4378.03
4371.09
4365.21
4359.15
4354.05
4348.78
4344.35
4339.68
4335.85
4331.76
4328.4
4324.79
4321.82
4318.65
4316.05
4313.26
4311.01
4308.61
4306.57
4304.44
4302.67
4300.78
4299.22
4297.52
4296.17
4294.73
4293.62
4292.3
4291.38
4290.25
4289.47
4288.44
4287.78
4286.89
4286.39
4285.64
4285.23
4284.6
4284.26
4283.65
4283.27
4282.69
4282.35
4281.83
4281.56
4281.1
4280.88
4280.48
4280.32
4279.99
4279.97
4279.85
4280.02
4280.02
4280.31
4280.3
4280.94
4281.74
4311.83
4419.87
83124.5
8261.78
7570.29
6999.58
6538.91
6172.43
5882.42
5651.09
5465.12
5313.15
5188.04
5083.18
4995.06
4919.56
4855.1
4798.84
4750.24
4707.13
4669.57
4635.76
4606.14
4579.1
4555.34
4533.38
4514.04
4495.93
4480.02
4464.92
4451.67
4438.94
4427.82
4416.99
4407.59
4398.31
4390.3
4382.28
4375.42
4368.47
4362.57
4356.51
4351.39
4346.11
4341.67
4337
4333.15
4329.05
4325.69
4322.07
4319.09
4315.91
4313.31
4310.51
4308.25
4305.85
4303.81
4301.67
4299.89
4298
4296.44
4294.73
4293.38
4291.93
4290.82
4289.49
4288.57
4287.44
4286.66
4285.61
4284.95
4284.06
4283.56
4282.81
4282.4
4281.76
4281.41
4280.8
4280.43
4279.84
4279.5
4278.97
4278.7
4278.24
4278.02
4277.61
4277.45
4277.13
4277.09
4276.97
4277.13
4277.13
4277.41
4277.41
4278.03
4278.85
4309.5
4417.52
79518.8
8261.78
7570.34
6999.6
6538.8
6172.09
5881.84
5650.25
5464.05
5311.87
5186.58
5081.55
4993.29
4917.66
4853.1
4796.73
4748.05
4704.85
4667.22
4633.34
4603.67
4576.58
4552.77
4530.77
4511.39
4493.25
4477.29
4462.17
4448.89
4436.13
4424.99
4414.14
4404.71
4395.41
4387.38
4379.34
4372.47
4365.51
4359.6
4353.52
4348.39
4343.09
4338.65
4333.96
4330.11
4326
4322.62
4318.99
4316.01
4312.82
4310.21
4307.41
4305.14
4302.73
4300.68
4298.54
4296.75
4294.86
4293.29
4291.58
4290.22
4288.77
4287.65
4286.32
4285.39
4284.25
4283.47
4282.43
4281.76
4280.87
4280.36
4279.6
4279.19
4278.55
4278.2
4277.59
4277.21
4276.61
4276.28
4275.75
4275.47
4275
4274.78
4274.37
4274.21
4273.88
4273.84
4273.71
4273.86
4273.86
4274.13
4274.13
4274.75
4275.59
4306.87
4414.9
75973.3
8261.78
7570.39
6999.63
6538.67
6171.72
5881.19
5649.33
5462.87
5310.45
5184.95
5079.74
4991.32
4915.55
4850.86
4794.38
4745.59
4702.31
4664.6
4630.65
4600.91
4573.76
4549.91
4527.85
4508.43
4490.24
4474.26
4459.1
4445.79
4433
4421.83
4410.95
4401.5
4392.18
4384.13
4376.07
4369.18
4362.2
4356.27
4350.18
4345.04
4339.73
4335.27
4330.57
4326.71
4322.58
4319.2
4315.56
4312.57
4309.37
4306.75
4303.94
4301.66
4299.25
4297.19
4295.04
4293.25
4291.34
4289.77
4288.06
4286.69
4285.23
4284.11
4282.77
4281.84
4280.7
4279.91
4278.86
4278.19
4277.29
4276.78
4276.02
4275.6
4274.96
4274.61
4273.99
4273.61
4273.02
4272.68
4272.14
4271.86
4271.39
4271.17
4270.75
4270.59
4270.26
4270.21
4270.07
4270.22
4270.21
4270.47
4270.47
4271.09
4271.94
4303.94
4411.99
72484.1
8261.77
7570.45
6999.66
6538.53
6171.32
5880.48
5648.31
5461.56
5308.89
5183.16
5077.74
4989.14
4913.21
4848.38
4791.78
4742.88
4699.5
4661.7
4627.68
4597.86
4570.65
4546.74
4524.62
4505.15
4486.92
4470.89
4455.7
4442.35
4429.53
4418.33
4407.42
4397.95
4388.6
4380.53
4372.45
4365.54
4358.54
4352.59
4346.48
4341.32
4336
4331.53
4326.81
4322.94
4318.8
4315.41
4311.76
4308.76
4305.55
4302.92
4300.1
4297.81
4295.39
4293.33
4291.16
4289.37
4287.46
4285.88
4284.16
4282.79
4281.32
4280.19
4278.85
4277.92
4276.76
4275.97
4274.92
4274.25
4273.34
4272.82
4272.06
4271.64
4270.99
4270.63
4270.02
4269.63
4269.03
4268.69
4268.15
4267.87
4267.39
4267.17
4266.75
4266.58
4266.25
4266.2
4266.04
4266.18
4266.17
4266.42
4266.42
4267.03
4267.91
4300.7
4408.81
69057.8
8261.77
7570.52
6999.69
6538.38
6170.88
5879.7
5647.19
5460.13
5307.17
5181.19
5075.55
4986.75
4910.65
4845.67
4788.93
4739.91
4696.42
4658.53
4624.41
4594.52
4567.23
4543.26
4521.08
4501.56
4483.28
4467.2
4451.96
4438.58
4425.72
4414.49
4403.55
4394.05
4384.67
4376.58
4368.47
4361.54
4354.52
4348.55
4342.42
4337.25
4331.91
4327.42
4322.69
4318.8
4314.65
4311.25
4307.58
4304.57
4301.35
4298.71
4295.88
4293.59
4291.15
4289.09
4286.91
4285.11
4283.19
4281.61
4279.87
4278.5
4277.02
4275.89
4274.54
4273.6
4272.44
4271.64
4270.58
4269.91
4269
4268.47
4267.7
4267.28
4266.63
4266.27
4265.65
4265.26
4264.66
4264.31
4263.77
4263.48
4263
4262.77
4262.35
4262.18
4261.84
4261.78
4261.61
4261.75
4261.74
4261.98
4261.97
4262.57
4263.48
4297.15
4405.35
65700.4
8261.77
7570.58
6999.73
6538.22
6170.4
5878.86
5645.98
5458.58
5305.31
5179.05
5073.17
4984.16
4907.86
4842.71
4785.83
4736.68
4693.07
4655.07
4620.85
4590.88
4563.51
4539.46
4517.22
4497.64
4479.31
4463.18
4447.89
4434.47
4421.57
4410.3
4399.33
4389.8
4380.39
4372.27
4364.13
4357.18
4350.13
4344.15
4338
4332.81
4327.44
4322.94
4318.19
4314.29
4310.13
4306.71
4303.03
4300.01
4296.77
4294.13
4291.28
4288.98
4286.53
4284.46
4282.27
4280.46
4278.53
4276.94
4275.2
4273.82
4272.33
4271.19
4269.84
4268.89
4267.72
4266.92
4265.86
4265.18
4264.26
4263.73
4262.95
4262.52
4261.87
4261.51
4260.88
4260.49
4259.88
4259.53
4258.98
4258.69
4258.21
4257.98
4257.55
4257.38
4257.04
4256.97
4256.79
4256.91
4256.9
4257.13
4257.11
4257.71
4258.64
4293.28
4401.63
62417.7
8261.77
7570.66
6999.77
6538.05
6169.89
5877.96
5644.68
5456.91
5303.3
5176.74
5070.59
4981.35
4904.85
4839.52
4782.47
4733.18
4689.43
4651.32
4617
4586.93
4559.48
4535.35
4513.04
4493.4
4475
4458.82
4443.48
4430.01
4417.07
4405.76
4394.75
4385.18
4375.74
4367.59
4359.43
4352.45
4345.38
4339.37
4333.2
4327.98
4322.6
4318.08
4313.32
4309.4
4305.22
4301.78
4298.09
4295.05
4291.81
4289.15
4286.29
4283.97
4281.52
4279.43
4277.24
4275.42
4273.48
4271.88
4270.13
4268.74
4267.24
4266.1
4264.73
4263.78
4262.61
4261.8
4260.73
4260.04
4259.11
4258.58
4257.8
4257.36
4256.7
4256.34
4255.71
4255.31
4254.7
4254.35
4253.79
4253.5
4253.01
4252.77
4252.34
4252.16
4251.82
4251.74
4251.55
4251.66
4251.65
4251.86
4251.84
4252.43
4253.4
4289.08
4397.64
59214.7
8261.76
7570.74
6999.81
6537.87
6169.35
5876.99
5643.29
5455.11
5301.14
5174.26
5067.82
4978.33
4901.6
4836.07
4778.85
4729.4
4685.52
4647.28
4612.84
4582.67
4555.13
4530.92
4508.53
4488.82
4470.35
4454.12
4438.72
4425.2
4412.21
4400.86
4389.81
4380.21
4370.73
4362.55
4354.35
4347.35
4340.25
4334.21
4328.01
4322.78
4317.37
4312.84
4308.05
4304.12
4299.92
4296.47
4292.76
4289.71
4286.45
4283.77
4280.9
4278.57
4276.11
4274.01
4271.8
4269.98
4268.02
4266.42
4264.66
4263.26
4261.75
4260.6
4259.22
4258.27
4257.08
4256.27
4255.19
4254.5
4253.56
4253.02
4252.23
4251.79
4251.13
4250.76
4250.12
4249.73
4249.11
4248.75
4248.19
4247.89
4247.4
4247.15
4246.71
4246.53
4246.19
4246.1
4245.89
4246
4245.98
4246.18
4246.15
4246.73
4247.74
4284.53
4393.4
56096.3
8261.76
7570.82
6999.86
6537.68
6168.77
5875.96
5641.79
5453.19
5298.83
5171.6
5064.86
4975.09
4898.12
4832.38
4774.96
4725.35
4681.31
4642.94
4608.39
4578.11
4550.46
4526.16
4503.69
4483.9
4465.36
4449.07
4433.61
4420.04
4406.99
4395.6
4384.5
4374.86
4365.34
4357.13
4348.9
4341.86
4334.73
4328.67
4322.45
4317.19
4311.76
4307.2
4302.39
4298.44
4294.22
4290.76
4287.03
4283.96
4280.68
4278
4275.11
4272.77
4270.29
4268.18
4265.96
4264.13
4262.16
4260.55
4258.77
4257.37
4255.85
4254.69
4253.3
4252.34
4251.14
4250.33
4249.24
4248.54
4247.59
4247.05
4246.25
4245.81
4245.13
4244.76
4244.12
4243.72
4243.09
4242.73
4242.17
4241.86
4241.36
4241.11
4240.67
4240.48
4240.13
4240.04
4239.81
4239.91
4239.88
4240.07
4240.04
4240.61
4241.65
4279.64
4388.88
53067.2
8261.75
7570.91
6999.92
6537.48
6168.16
5874.86
5640.21
5451.14
5296.36
5168.77
5061.69
4971.63
4894.41
4828.44
4770.82
4721.02
4676.82
4638.31
4603.62
4573.22
4545.47
4521.07
4498.51
4478.64
4460.03
4443.66
4428.14
4414.51
4401.41
4389.97
4378.82
4369.14
4359.58
4351.32
4343.06
4335.99
4328.83
4322.74
4316.49
4311.2
4305.75
4301.17
4296.34
4292.36
4288.12
4284.64
4280.89
4277.81
4274.52
4271.82
4268.91
4266.56
4264.06
4261.94
4259.71
4257.86
4255.88
4254.26
4252.47
4251.06
4249.53
4248.36
4246.96
4245.99
4244.78
4243.96
4242.86
4242.16
4241.2
4240.65
4239.84
4239.39
4238.71
4238.33
4237.69
4237.28
4236.65
4236.28
4235.71
4235.4
4234.9
4234.64
4234.19
4234
4233.64
4233.54
4233.31
4233.39
4233.35
4233.53
4233.49
4234.05
4235.14
4274.38
4384.07
50131.3
8261.75
7571
6999.97
6537.27
6167.51
5873.7
5638.53
5448.98
5293.75
5165.75
5058.32
4967.95
4890.45
4824.24
4766.4
4716.42
4672.04
4633.37
4598.54
4568.02
4540.15
4515.65
4492.98
4473.03
4454.34
4437.9
4422.31
4408.62
4395.46
4383.96
4372.77
4363.03
4353.43
4345.14
4336.83
4329.73
4322.53
4316.41
4310.13
4304.82
4299.33
4294.73
4289.87
4285.88
4281.61
4278.11
4274.35
4271.25
4267.93
4265.22
4262.29
4259.92
4257.41
4255.28
4253.03
4251.17
4249.18
4247.55
4245.75
4244.33
4242.78
4241.61
4240.2
4239.21
4238
4237.16
4236.06
4235.34
4234.38
4233.82
4233.01
4232.55
4231.86
4231.48
4230.82
4230.42
4229.78
4229.41
4228.83
4228.51
4228
4227.74
4227.28
4227.08
4226.72
4226.61
4226.36
4226.43
4226.39
4226.55
4226.5
4227.05
4228.18
4268.74
4378.94
47292.4
8261.74
7571.1
7000.03
6537.06
6166.83
5872.49
5636.76
5446.69
5290.98
5162.57
5054.76
4964.06
4886.26
4819.79
4761.72
4711.53
4666.96
4628.13
4593.15
4562.49
4534.49
4509.88
4487.12
4467.07
4448.29
4431.78
4416.11
4402.35
4389.13
4377.58
4366.33
4356.55
4346.89
4338.56
4330.21
4323.07
4315.83
4309.69
4303.36
4298.03
4292.51
4287.88
4283
4278.98
4274.69
4271.17
4267.38
4264.26
4260.93
4258.2
4255.26
4252.87
4250.34
4248.2
4245.93
4244.06
4242.05
4240.41
4238.6
4237.16
4235.6
4234.42
4233
4232.01
4230.78
4229.94
4228.82
4228.1
4227.13
4226.56
4225.73
4225.27
4224.57
4224.18
4223.52
4223.11
4222.46
4222.09
4221.5
4221.18
4220.66
4220.39
4219.92
4219.72
4219.35
4219.24
4218.97
4219.03
4218.98
4219.12
4219.06
4219.6
4220.78
4262.69
4373.47
44554
8261.73
7571.2
7000.1
6536.83
6166.13
5871.21
5634.9
5444.27
5288.07
5159.2
5050.99
4959.94
4881.83
4815.08
4756.76
4706.35
4661.59
4622.58
4587.43
4556.63
4528.51
4503.78
4480.9
4460.76
4441.88
4425.28
4409.54
4395.71
4382.42
4370.81
4359.5
4349.67
4339.96
4331.58
4323.19
4316.01
4308.73
4302.55
4296.19
4290.83
4285.28
4280.62
4275.71
4271.67
4267.35
4263.81
4260
4256.86
4253.5
4250.75
4247.79
4245.39
4242.84
4240.68
4238.4
4236.52
4234.49
4232.84
4231.01
4229.57
4227.99
4226.8
4225.36
4224.36
4223.12
4222.27
4221.14
4220.41
4219.43
4218.85
4218.01
4217.54
4216.84
4216.44
4215.77
4215.36
4214.7
4214.32
4213.73
4213.4
4212.87
4212.59
4212.12
4211.91
4211.53
4211.41
4211.13
4211.17
4211.11
4211.24
4211.17
4211.7
4212.93
4256.23
4367.63
41919.2
8261.72
7571.31
7000.17
6536.6
6165.39
5869.87
5632.94
5441.74
5285
5155.66
5047.03
4955.6
4877.16
4810.12
4751.53
4700.89
4655.92
4616.72
4581.4
4550.45
4522.18
4497.32
4474.33
4454.08
4435.11
4418.42
4402.59
4388.69
4375.33
4363.65
4352.28
4342.39
4332.63
4324.2
4315.77
4308.54
4301.22
4295
4288.61
4283.21
4277.62
4272.94
4268
4263.93
4259.59
4256.02
4252.18
4249.02
4245.64
4242.87
4239.89
4237.47
4234.9
4232.73
4230.43
4228.53
4226.49
4224.82
4222.98
4221.52
4219.93
4218.73
4217.28
4216.26
4215.01
4214.15
4213.01
4212.27
4211.28
4210.69
4209.85
4209.37
4208.65
4208.25
4207.57
4207.15
4206.49
4206.1
4205.5
4205.16
4204.62
4204.34
4203.86
4203.64
4203.26
4203.13
4202.84
4202.86
4202.79
4202.91
4202.81
4203.34
4204.62
4249.33
4361.39
39390.7
8261.71
7571.42
7000.25
6536.37
6164.62
5868.47
5630.9
5439.08
5281.78
5151.94
5042.86
4951.04
4872.24
4804.89
4746.03
4695.13
4649.94
4610.54
4575.05
4543.93
4515.51
4490.52
4467.41
4447.05
4427.97
4411.19
4395.27
4381.29
4367.85
4356.1
4344.66
4334.72
4324.9
4316.42
4307.93
4300.66
4293.3
4287.04
4280.6
4275.17
4269.55
4264.83
4259.86
4255.76
4251.39
4247.8
4243.93
4240.75
4237.35
4234.56
4231.55
4229.11
4226.52
4224.34
4222.01
4220.1
4218.04
4216.36
4214.5
4213.04
4211.42
4210.21
4208.74
4207.72
4206.45
4205.58
4204.43
4203.68
4202.68
4202.08
4201.22
4200.73
4200.01
4199.6
4198.91
4198.49
4197.82
4197.42
4196.81
4196.47
4195.92
4195.63
4195.14
4194.91
4194.52
4194.38
4194.08
4194.09
4194.01
4194.1
4194
4194.51
4195.85
4241.95
4354.71
36970.8
8261.7
7571.54
7000.33
6536.12
6163.83
5867.02
5628.77
5436.3
5278.41
5148.04
5038.49
4946.25
4867.08
4799.4
4740.24
4689.09
4643.66
4604.05
4568.36
4537.08
4508.5
4483.37
4460.12
4439.64
4420.45
4403.57
4387.56
4373.5
4359.97
4348.16
4336.64
4326.64
4316.76
4308.22
4299.68
4292.36
4284.95
4278.65
4272.17
4266.7
4261.04
4256.29
4251.29
4247.16
4242.75
4239.14
4235.25
4232.04
4228.61
4225.8
4222.77
4220.31
4217.69
4215.49
4213.15
4211.22
4209.14
4207.45
4205.57
4204.09
4202.46
4201.24
4199.75
4198.72
4197.43
4196.55
4195.39
4194.63
4193.61
4193.01
4192.14
4191.64
4190.9
4190.48
4189.79
4189.36
4188.68
4188.28
4187.65
4187.3
4186.74
4186.45
4185.95
4185.72
4185.31
4185.17
4184.85
4184.85
4184.75
4184.83
4184.7
4185.21
4186.6
4234.07
4347.57
34661.6
8261.69
7571.66
7000.42
6535.88
6163.01
5865.51
5626.55
5433.41
5274.89
5143.97
5033.92
4941.24
4861.68
4793.65
4734.18
4682.76
4637.08
4597.25
4561.35
4529.89
4501.14
4475.86
4452.47
4431.87
4412.56
4395.58
4379.46
4365.31
4351.7
4339.81
4328.22
4318.15
4308.2
4299.61
4291.01
4283.65
4276.18
4269.83
4263.31
4257.8
4252.1
4247.32
4242.28
4238.11
4233.68
4230.03
4226.11
4222.88
4219.43
4216.59
4213.54
4211.06
4208.42
4206.2
4203.83
4201.89
4199.79
4198.08
4196.19
4194.69
4193.04
4191.8
4190.3
4189.25
4187.95
4187.06
4185.88
4185.11
4184.08
4183.46
4182.58
4182.07
4181.33
4180.9
4180.2
4179.76
4179.07
4178.66
4178.03
4177.67
4177.1
4176.8
4176.29
4176.04
4175.63
4175.48
4175.15
4175.13
4175.02
4175.08
4174.93
4175.43
4176.88
4225.66
4339.93
32465
8261.68
7571.79
7000.52
6535.63
6162.16
5863.94
5624.24
5430.4
5271.23
5139.72
5029.15
4936.01
4856.03
4787.64
4727.85
4676.13
4630.18
4590.12
4554.01
4522.36
4493.43
4468
4444.46
4423.73
4404.29
4387.2
4370.98
4356.73
4343.03
4331.06
4319.39
4309.25
4299.23
4290.58
4281.92
4274.5
4266.98
4260.59
4254.02
4248.47
4242.72
4237.9
4232.82
4228.63
4224.16
4220.48
4216.53
4213.27
4209.79
4206.93
4203.85
4201.34
4198.68
4196.44
4194.05
4192.09
4189.97
4188.25
4186.33
4184.82
4183.15
4181.9
4180.38
4179.32
4178
4177.1
4175.9
4175.13
4174.08
4173.45
4172.55
4172.03
4171.28
4170.84
4170.13
4169.68
4168.98
4168.57
4167.92
4167.56
4166.98
4166.67
4166.14
4165.89
4165.47
4165.3
4164.97
4164.93
4164.8
4164.84
4164.68
4165.16
4166.68
4216.68
4331.74
30382.4
8261.67
7571.92
7000.62
6535.37
6161.29
5862.33
5621.85
5427.27
5267.42
5135.3
5024.18
4930.55
4850.15
4781.37
4721.23
4669.21
4622.98
4582.67
4546.34
4514.48
4485.37
4459.77
4436.08
4415.21
4395.64
4378.43
4362.1
4347.75
4333.95
4321.9
4310.15
4299.93
4289.84
4281.13
4272.4
4264.93
4257.35
4250.91
4244.29
4238.69
4232.9
4228.04
4222.92
4218.69
4214.19
4210.48
4206.49
4203.21
4199.69
4196.81
4193.7
4191.17
4188.48
4186.22
4183.81
4181.83
4179.68
4177.95
4176.01
4174.48
4172.79
4171.52
4169.99
4168.91
4167.58
4166.66
4165.45
4164.66
4163.6
4162.96
4162.05
4161.52
4160.75
4160.3
4159.58
4159.12
4158.42
4157.99
4157.33
4156.96
4156.37
4156.05
4155.51
4155.25
4154.82
4154.64
4154.3
4154.24
4154.1
4154.12
4153.93
4154.41
4155.98
4207.08
4322.98
28415.3
8261.65
7572.05
7000.73
6535.12
6160.4
5860.66
5619.38
5424.02
5263.47
5130.7
5019.01
4924.88
4844.01
4774.84
4714.33
4661.99
4615.47
4574.91
4538.33
4506.26
4476.96
4451.18
4427.33
4406.31
4386.61
4369.27
4352.82
4338.37
4324.47
4312.32
4300.49
4290.19
4280.03
4271.25
4262.45
4254.92
4247.28
4240.79
4234.12
4228.47
4222.64
4217.74
4212.57
4208.3
4203.76
4200.02
4196
4192.69
4189.14
4186.23
4183.09
4180.53
4177.81
4175.53
4173.09
4171.1
4168.92
4167.17
4165.21
4163.67
4161.95
4160.67
4159.12
4158.03
4156.67
4155.74
4154.52
4153.71
4152.63
4151.98
4151.05
4150.51
4149.73
4149.28
4148.54
4148.08
4147.36
4146.92
4146.26
4145.87
4145.27
4144.94
4144.39
4144.12
4143.67
4143.49
4143.13
4143.06
4142.91
4142.91
4142.69
4143.16
4144.79
4196.87
4313.6
26564.8
8261.64
7572.18
7000.84
6534.86
6159.48
5858.95
5616.83
5420.67
5259.37
5125.94
5013.64
4918.98
4837.64
4768.04
4707.16
4654.48
4607.65
4566.82
4529.99
4497.7
4468.19
4442.23
4418.2
4397.03
4377.19
4359.72
4343.15
4328.59
4314.58
4302.34
4290.41
4280.03
4269.79
4260.93
4252.07
4244.47
4236.77
4230.22
4223.5
4217.8
4211.92
4206.97
4201.76
4197.46
4192.87
4189.1
4185.04
4181.7
4178.11
4175.17
4172
4169.42
4166.67
4164.37
4161.9
4159.89
4157.69
4155.92
4153.93
4152.38
4150.64
4149.34
4147.76
4146.66
4145.28
4144.34
4143.09
4142.28
4141.18
4140.52
4139.57
4139.02
4138.22
4137.76
4137.01
4136.54
4135.81
4135.37
4134.69
4134.29
4133.67
4133.34
4132.78
4132.5
4132.03
4131.84
4131.47
4131.39
4131.22
4131.19
4130.95
4131.41
4133.1
4186.04
4303.56
24832
8261.62
7572.32
7000.96
6534.6
6158.55
5857.18
5614.2
5417.21
5255.13
5121.01
5008.08
4912.86
4831.02
4760.98
4699.7
4646.67
4599.53
4558.4
4521.32
4488.8
4459.07
4432.92
4408.71
4387.38
4367.38
4349.78
4333.07
4318.39
4304.28
4291.93
4279.91
4269.45
4259.11
4250.19
4241.25
4233.59
4225.82
4219.21
4212.43
4206.68
4200.74
4195.76
4190.5
4186.15
4181.52
4177.71
4173.62
4170.24
4166.62
4163.65
4160.45
4157.84
4155.05
4152.73
4150.23
4148.2
4145.97
4144.18
4142.17
4140.6
4138.83
4137.52
4135.92
4134.8
4133.4
4132.45
4131.18
4130.35
4129.24
4128.56
4127.6
4127.03
4126.22
4125.75
4124.99
4124.51
4123.76
4123.31
4122.62
4122.21
4121.58
4121.23
4120.66
4120.37
4119.89
4119.69
4119.3
4119.2
4119.02
4118.98
4118.7
4119.15
4120.9
4174.6
4292.84
23217.9
8261.6
7572.47
7001.08
6534.34
6157.6
5855.38
5611.5
5413.64
5250.76
5115.9
5002.33
4906.53
4824.17
4753.67
4691.97
4638.57
4591.09
4549.67
4512.31
4479.54
4449.59
4423.23
4398.83
4377.33
4357.17
4339.43
4322.59
4307.79
4293.56
4281.11
4268.98
4258.43
4248.01
4239.01
4229.99
4222.26
4214.42
4207.75
4200.9
4195.11
4189.11
4184.08
4178.77
4174.38
4169.71
4165.85
4161.72
4158.31
4154.65
4151.65
4148.41
4145.77
4142.96
4140.61
4138.08
4136.02
4133.77
4131.96
4129.93
4128.33
4126.54
4125.21
4123.59
4122.45
4121.03
4120.06
4118.77
4117.93
4116.8
4116.1
4115.13
4114.55
4113.72
4113.23
4112.46
4111.97
4111.21
4110.75
4110.04
4109.63
4108.98
4108.62
4108.04
4107.73
4107.24
4107.03
4106.63
4106.51
4106.32
4106.25
4105.94
4106.38
4108.18
4162.53
4281.38
21718.1
8261.58
7572.61
7001.22
6534.09
6156.63
5853.53
5608.72
5409.97
5246.25
5110.64
4996.38
4899.98
4817.07
4746.09
4683.96
4630.17
4582.34
4540.61
4502.96
4469.94
4439.75
4413.18
4388.59
4366.91
4346.58
4328.69
4311.7
4296.78
4282.42
4269.87
4257.63
4246.98
4236.47
4227.38
4218.28
4210.48
4202.57
4195.84
4188.93
4183.08
4177.02
4171.94
4166.58
4162.14
4157.42
4153.53
4149.35
4145.9
4142.21
4139.17
4135.9
4133.23
4130.38
4128.01
4125.44
4123.36
4121.08
4119.25
4117.19
4115.57
4113.75
4112.4
4110.76
4109.6
4108.16
4107.17
4105.87
4105.01
4103.86
4103.15
4102.15
4101.56
4100.71
4100.22
4099.43
4098.93
4098.16
4097.68
4096.96
4096.54
4095.87
4095.5
4094.9
4094.59
4094.08
4093.86
4093.44
4093.31
4093.1
4093.01
4092.66
4093.1
4094.95
4149.84
4269.16
20328
8261.56
7572.76
7001.36
6533.83
6155.65
5851.65
5605.88
5406.19
5241.61
5105.22
4990.25
4893.21
4809.74
4738.26
4675.67
4621.48
4573.29
4531.23
4493.28
4459.99
4429.55
4402.77
4377.96
4356.1
4335.6
4317.55
4300.41
4285.36
4270.87
4258.2
4245.85
4235.11
4224.49
4215.32
4206.14
4198.26
4190.27
4183.47
4176.49
4170.58
4164.46
4159.33
4153.91
4149.43
4144.66
4140.73
4136.5
4133.02
4129.28
4126.21
4122.9
4120.2
4117.31
4114.91
4112.32
4110.21
4107.89
4106.04
4103.95
4102.32
4100.47
4099.1
4097.43
4096.25
4094.78
4093.78
4092.46
4091.58
4090.41
4089.68
4088.67
4088.06
4087.2
4086.69
4085.89
4085.38
4084.59
4084.11
4083.37
4082.93
4082.25
4081.87
4081.26
4080.93
4080.41
4080.17
4079.74
4079.59
4079.36
4079.26
4078.87
4079.3
4081.2
4136.53
4256.14
19042.6
8261.53
7572.91
7001.5
6533.58
6154.66
5849.72
5602.97
5402.32
5236.84
5099.63
4983.93
4886.24
4802.18
4730.17
4667.11
4612.51
4563.93
4521.53
4483.27
4449.7
4419
4391.99
4366.96
4344.91
4324.22
4306.01
4288.72
4273.52
4258.9
4246.11
4233.64
4222.79
4212.08
4202.82
4193.54
4185.58
4177.52
4170.65
4163.6
4157.62
4151.44
4146.25
4140.78
4136.25
4131.42
4127.45
4123.18
4119.65
4115.87
4112.77
4109.41
4106.68
4103.75
4101.33
4098.69
4096.56
4094.21
4092.34
4090.22
4088.57
4086.69
4085.3
4083.6
4082.4
4080.91
4079.89
4078.54
4077.65
4076.45
4075.71
4074.68
4074.05
4073.17
4072.65
4071.83
4071.31
4070.51
4070.01
4069.26
4068.81
4068.12
4067.72
4067.09
4066.75
4066.21
4065.96
4065.52
4065.35
4065.1
4064.98
4064.55
4064.98
4066.92
4122.58
4242.3
17856.7
8261.51
7573.06
7001.66
6533.33
6153.65
5847.77
5599.99
5398.36
5231.95
5093.9
4977.43
4879.06
4794.39
4721.84
4658.28
4603.24
4554.26
4511.51
4472.92
4439.06
4408.09
4380.84
4355.59
4333.33
4312.45
4294.07
4276.61
4261.27
4246.51
4233.59
4221
4210.05
4199.23
4189.87
4180.5
4172.46
4164.31
4157.37
4150.24
4144.2
4137.95
4132.7
4127.17
4122.59
4117.71
4113.69
4109.37
4105.8
4101.97
4098.83
4095.44
4092.67
4089.7
4087.25
4084.58
4082.42
4080.03
4078.14
4075.99
4074.31
4072.4
4070.99
4069.26
4068.04
4066.52
4065.48
4064.11
4063.21
4061.99
4061.23
4060.17
4059.53
4058.63
4058.1
4057.26
4056.73
4055.91
4055.4
4054.63
4054.17
4053.46
4053.05
4052.4
4052.05
4051.5
4051.23
4050.77
4050.58
4050.32
4050.18
4049.71
4050.13
4052.11
4108.02
4227.59
16764.7
8261.48
7573.21
7001.82
6533.09
6152.64
5845.78
5596.96
5394.31
5226.94
5088.02
4970.75
4871.68
4786.37
4713.25
4649.19
4593.69
4544.3
4501.17
4462.25
4428.08
4396.83
4369.32
4343.83
4321.37
4300.29
4281.73
4264.1
4248.61
4233.7
4220.65
4207.93
4196.87
4185.93
4176.48
4167.01
4158.88
4150.64
4143.62
4136.42
4130.31
4123.99
4118.69
4113.09
4108.45
4103.52
4099.44
4095.07
4091.47
4087.59
4084.41
4080.97
4078.17
4075.16
4072.67
4069.96
4067.78
4065.35
4063.43
4061.25
4059.55
4057.6
4056.17
4054.42
4053.18
4051.63
4050.57
4049.17
4048.25
4047.01
4046.23
4045.15
4044.49
4043.58
4043.03
4042.17
4041.63
4040.79
4040.27
4039.48
4039.01
4038.28
4037.86
4037.19
4036.83
4036.25
4035.97
4035.49
4035.29
4035.01
4034.85
4034.34
4034.75
4036.76
4092.82
4212
15761
8261.45
7573.36
7001.98
6532.86
6151.62
5843.77
5593.88
5390.17
5221.81
5081.99
4963.9
4864.1
4778.12
4704.42
4639.83
4583.85
4534.03
4490.52
4451.24
4416.76
4385.22
4357.45
4331.71
4309.03
4287.74
4268.99
4251.18
4235.53
4220.47
4207.29
4194.43
4183.25
4172.19
4162.64
4153.06
4144.85
4136.52
4129.42
4122.13
4115.96
4109.56
4104.19
4098.53
4093.84
4088.84
4084.72
4080.29
4076.64
4072.71
4069.5
4066.01
4063.17
4060.11
4057.6
4054.85
4052.63
4050.17
4048.22
4046.01
4044.28
4042.3
4040.85
4039.06
4037.8
4036.22
4035.14
4033.72
4032.78
4031.51
4030.71
4029.61
4028.94
4028
4027.43
4026.56
4026
4025.15
4024.62
4023.81
4023.32
4022.57
4022.14
4021.46
4021.08
4020.48
4020.19
4019.69
4019.47
4019.17
4018.99
4018.44
4018.84
4020.87
4076.99
4195.49
14839.7
8261.42
7573.52
7002.16
6532.63
6150.6
5841.74
5590.74
5385.95
5216.57
5075.82
4956.89
4856.32
4769.66
4695.35
4630.2
4573.74
4523.47
4479.56
4439.91
4405.1
4373.25
4345.21
4319.21
4296.3
4274.79
4255.86
4237.86
4222.05
4206.82
4193.5
4180.5
4169.19
4158.02
4148.35
4138.67
4130.36
4121.94
4114.76
4107.38
4101.14
4094.66
4089.23
4083.5
4078.75
4073.69
4069.51
4065.03
4061.33
4057.35
4054.09
4050.56