/*--------------------------------*- C++ -*----------------------------------*\
| =========                 |                                                 |
| \\      /  F ield         | OpenFOAM: The Open Source CFD Toolbox           |
|  \\    /   O peration     | Version:  v2012                                 |
|   \\  /    A nd           | Website:  www.openfoam.com                      |
|    \\/     M anipulation  |                                                 |
\*---------------------------------------------------------------------------*/
FoamFile
{
    version     2.0;
    format      ascii;
    class       volVectorField;
    location    "55.5";
    object      wallShearStress;
}
// * * * * * * * * * * * * * * * * * * * * * * * * * * * * * * * * * * * * * //

dimensions      [0 2 -2 0 0 0 0];


internalField   uniform (0 0 0);

boundaryField
{
    inlet
    {
        type            calculated;
        value           uniform (0 0 0);
    }
    outlet
    {
        type            calculated;
        value           uniform (0 0 0);
    }
    topWall
    {
        type            calculated;
        value           nonuniform List<vector> 
545
(
(3.6742e-08 -2.58632e-08 0)
(3.67307e-08 -7.23494e-08 0)
(3.67107e-08 -1.20689e-07 0)
(3.66822e-08 -1.67631e-07 0)
(3.66465e-08 -2.12576e-07 0)
(3.66043e-08 -2.56099e-07 0)
(3.6556e-08 -2.98573e-07 0)
(3.65022e-08 -3.39976e-07 0)
(3.64432e-08 -3.80218e-07 0)
(3.63797e-08 -4.19299e-07 0)
(3.63119e-08 -4.5727e-07 0)
(3.62403e-08 -4.94175e-07 0)
(3.61653e-08 -5.30039e-07 0)
(3.60872e-08 -5.64883e-07 0)
(3.60065e-08 -5.98732e-07 0)
(3.59232e-08 -6.31613e-07 0)
(3.58379e-08 -6.63551e-07 0)
(3.57507e-08 -6.94572e-07 0)
(3.5662e-08 -7.24702e-07 0)
(3.55719e-08 -7.53963e-07 0)
(3.54806e-08 -7.82379e-07 0)
(3.53885e-08 -8.09975e-07 0)
(3.52956e-08 -8.36773e-07 0)
(3.52022e-08 -8.62795e-07 0)
(3.51085e-08 -8.88064e-07 0)
(3.50145e-08 -9.12601e-07 0)
(3.49205e-08 -9.36427e-07 0)
(3.48265e-08 -9.59562e-07 0)
(3.47328e-08 -9.82026e-07 0)
(3.46393e-08 -1.00384e-06 0)
(3.45463e-08 -1.02502e-06 0)
(3.44538e-08 -1.04559e-06 0)
(3.43619e-08 -1.06556e-06 0)
(3.42707e-08 -1.08495e-06 0)
(3.41802e-08 -1.10378e-06 0)
(3.40906e-08 -1.12207e-06 0)
(3.40019e-08 -1.13983e-06 0)
(3.39141e-08 -1.15707e-06 0)
(3.38274e-08 -1.17382e-06 0)
(3.37417e-08 -1.19008e-06 0)
(3.3657e-08 -1.20588e-06 0)
(3.35735e-08 -1.22122e-06 0)
(3.34912e-08 -1.23612e-06 0)
(3.341e-08 -1.25059e-06 0)
(3.333e-08 -1.26464e-06 0)
(3.32513e-08 -1.27829e-06 0)
(3.31737e-08 -1.29155e-06 0)
(3.30975e-08 -1.30444e-06 0)
(3.30225e-08 -1.31695e-06 0)
(3.29487e-08 -1.3291e-06 0)
(3.28763e-08 -1.34091e-06 0)
(3.28051e-08 -1.35238e-06 0)
(3.27352e-08 -1.36353e-06 0)
(3.26666e-08 -1.37436e-06 0)
(3.25992e-08 -1.38488e-06 0)
(3.25332e-08 -1.3951e-06 0)
(3.24683e-08 -1.40504e-06 0)
(3.24048e-08 -1.41469e-06 0)
(3.23425e-08 -1.42407e-06 0)
(3.22814e-08 -1.43319e-06 0)
(3.22216e-08 -1.44204e-06 0)
(3.2163e-08 -1.45065e-06 0)
(3.21056e-08 -1.45902e-06 0)
(3.20494e-08 -1.46715e-06 0)
(3.19944e-08 -1.47505e-06 0)
(3.19405e-08 -1.48274e-06 0)
(3.18878e-08 -1.4902e-06 0)
(3.18362e-08 -1.49746e-06 0)
(3.17857e-08 -1.50452e-06 0)
(3.17364e-08 -1.51137e-06 0)
(3.1688e-08 -1.51804e-06 0)
(3.16411e-08 -1.52452e-06 0)
(3.15956e-08 -1.53075e-06 0)
(3.15506e-08 -1.53679e-06 0)
(3.15061e-08 -1.54277e-06 0)
(3.14618e-08 -1.54872e-06 0)
(3.14174e-08 -1.55465e-06 0)
(3.13732e-08 -1.56054e-06 0)
(3.1329e-08 -1.56639e-06 0)
(3.12848e-08 -1.57221e-06 0)
(3.12406e-08 -1.57799e-06 0)
(3.11965e-08 -1.58374e-06 0)
(3.11525e-08 -1.58945e-06 0)
(3.11085e-08 -1.59513e-06 0)
(3.10645e-08 -1.60078e-06 0)
(3.10206e-08 -1.60639e-06 0)
(3.09768e-08 -1.61197e-06 0)
(3.0933e-08 -1.61752e-06 0)
(3.08892e-08 -1.62303e-06 0)
(3.08455e-08 -1.62851e-06 0)
(3.08019e-08 -1.63395e-06 0)
(3.07583e-08 -1.63937e-06 0)
(3.07148e-08 -1.64475e-06 0)
(3.06714e-08 -1.6501e-06 0)
(3.06276e-08 -1.65542e-06 0)
(3.05861e-08 -1.66066e-06 0)
(3.05476e-08 -1.66546e-06 0)
(3.05105e-08 -1.66981e-06 0)
(3.04746e-08 -1.67404e-06 0)
(3.04388e-08 -1.67829e-06 0)
(3.0403e-08 -1.68258e-06 0)
(3.0367e-08 -1.68689e-06 0)
(3.03308e-08 -1.69119e-06 0)
(3.02945e-08 -1.69549e-06 0)
(3.0258e-08 -1.69979e-06 0)
(3.02213e-08 -1.70411e-06 0)
(3.01844e-08 -1.70843e-06 0)
(3.01474e-08 -1.71275e-06 0)
(3.01102e-08 -1.71708e-06 0)
(3.00728e-08 -1.72141e-06 0)
(3.00352e-08 -1.72575e-06 0)
(2.99975e-08 -1.73009e-06 0)
(2.99596e-08 -1.73443e-06 0)
(2.99215e-08 -1.73879e-06 0)
(2.98832e-08 -1.74314e-06 0)
(2.98447e-08 -1.7475e-06 0)
(2.98061e-08 -1.75187e-06 0)
(2.97673e-08 -1.75624e-06 0)
(2.97283e-08 -1.76061e-06 0)
(2.96891e-08 -1.76499e-06 0)
(2.96497e-08 -1.76938e-06 0)
(2.96102e-08 -1.77377e-06 0)
(2.95704e-08 -1.77816e-06 0)
(2.95305e-08 -1.78256e-06 0)
(2.94904e-08 -1.78696e-06 0)
(2.94501e-08 -1.79136e-06 0)
(2.94097e-08 -1.79577e-06 0)
(2.9369e-08 -1.80019e-06 0)
(2.93282e-08 -1.80461e-06 0)
(2.92871e-08 -1.80903e-06 0)
(2.92459e-08 -1.81346e-06 0)
(2.92045e-08 -1.81789e-06 0)
(2.91629e-08 -1.82233e-06 0)
(2.91211e-08 -1.82677e-06 0)
(2.90792e-08 -1.83121e-06 0)
(2.9037e-08 -1.83566e-06 0)
(2.89946e-08 -1.84011e-06 0)
(2.89521e-08 -1.84457e-06 0)
(2.89094e-08 -1.84902e-06 0)
(2.88664e-08 -1.85349e-06 0)
(2.88233e-08 -1.85796e-06 0)
(2.878e-08 -1.86243e-06 0)
(2.87365e-08 -1.8669e-06 0)
(2.86928e-08 -1.87138e-06 0)
(2.86489e-08 -1.87587e-06 0)
(2.86048e-08 -1.88035e-06 0)
(2.85605e-08 -1.88484e-06 0)
(2.85161e-08 -1.88934e-06 0)
(2.84714e-08 -1.89383e-06 0)
(2.84265e-08 -1.89833e-06 0)
(2.83814e-08 -1.90284e-06 0)
(2.83362e-08 -1.90735e-06 0)
(2.82907e-08 -1.91186e-06 0)
(2.82451e-08 -1.91637e-06 0)
(2.81992e-08 -1.92089e-06 0)
(2.81531e-08 -1.92541e-06 0)
(2.81069e-08 -1.92993e-06 0)
(2.80604e-08 -1.93446e-06 0)
(2.80138e-08 -1.93899e-06 0)
(2.79669e-08 -1.94353e-06 0)
(2.79199e-08 -1.94806e-06 0)
(2.78726e-08 -1.9526e-06 0)
(2.78251e-08 -1.95715e-06 0)
(2.77775e-08 -1.96169e-06 0)
(2.77296e-08 -1.96624e-06 0)
(2.76816e-08 -1.97079e-06 0)
(2.76333e-08 -1.97535e-06 0)
(2.75848e-08 -1.9799e-06 0)
(2.75361e-08 -1.98446e-06 0)
(2.74873e-08 -1.98903e-06 0)
(2.74382e-08 -1.99359e-06 0)
(2.73889e-08 -1.99816e-06 0)
(2.73394e-08 -2.00273e-06 0)
(2.72897e-08 -2.0073e-06 0)
(2.72398e-08 -2.01188e-06 0)
(2.71897e-08 -2.01645e-06 0)
(2.71394e-08 -2.02103e-06 0)
(2.70888e-08 -2.02561e-06 0)
(2.70381e-08 -2.0302e-06 0)
(2.69872e-08 -2.03479e-06 0)
(2.6936e-08 -2.03937e-06 0)
(2.68847e-08 -2.04397e-06 0)
(2.68331e-08 -2.04856e-06 0)
(2.67814e-08 -2.05315e-06 0)
(2.67294e-08 -2.05775e-06 0)
(2.66772e-08 -2.06235e-06 0)
(2.66248e-08 -2.06695e-06 0)
(2.65722e-08 -2.07155e-06 0)
(2.65194e-08 -2.07615e-06 0)
(2.64664e-08 -2.08076e-06 0)
(2.64132e-08 -2.08537e-06 0)
(2.63598e-08 -2.08997e-06 0)
(2.63061e-08 -2.09458e-06 0)
(2.62523e-08 -2.0992e-06 0)
(2.61982e-08 -2.10381e-06 0)
(2.6144e-08 -2.10842e-06 0)
(2.60895e-08 -2.11304e-06 0)
(2.60348e-08 -2.11766e-06 0)
(2.59799e-08 -2.12227e-06 0)
(2.59248e-08 -2.12689e-06 0)
(2.58695e-08 -2.13151e-06 0)
(2.58139e-08 -2.13613e-06 0)
(2.57582e-08 -2.14076e-06 0)
(2.57023e-08 -2.14538e-06 0)
(2.56461e-08 -2.15e-06 0)
(2.55897e-08 -2.15463e-06 0)
(2.55332e-08 -2.15925e-06 0)
(2.54764e-08 -2.16388e-06 0)
(2.54194e-08 -2.1685e-06 0)
(2.53622e-08 -2.17313e-06 0)
(2.53047e-08 -2.17776e-06 0)
(2.52471e-08 -2.18238e-06 0)
(2.51893e-08 -2.18701e-06 0)
(2.51312e-08 -2.19164e-06 0)
(2.5073e-08 -2.19627e-06 0)
(2.50145e-08 -2.2009e-06 0)
(2.49558e-08 -2.20553e-06 0)
(2.48969e-08 -2.21015e-06 0)
(2.48378e-08 -2.21478e-06 0)
(2.47785e-08 -2.21941e-06 0)
(2.4719e-08 -2.22404e-06 0)
(2.46593e-08 -2.22867e-06 0)
(2.45994e-08 -2.23329e-06 0)
(2.45392e-08 -2.23792e-06 0)
(2.44789e-08 -2.24255e-06 0)
(2.44183e-08 -2.24717e-06 0)
(2.43575e-08 -2.2518e-06 0)
(2.42965e-08 -2.25642e-06 0)
(2.42354e-08 -2.26105e-06 0)
(2.4174e-08 -2.26567e-06 0)
(2.41124e-08 -2.27029e-06 0)
(2.40506e-08 -2.27492e-06 0)
(2.39885e-08 -2.27954e-06 0)
(2.39263e-08 -2.28415e-06 0)
(2.38639e-08 -2.28877e-06 0)
(2.38013e-08 -2.29339e-06 0)
(2.37384e-08 -2.29801e-06 0)
(2.36754e-08 -2.30262e-06 0)
(2.36121e-08 -2.30723e-06 0)
(2.35487e-08 -2.31184e-06 0)
(2.3485e-08 -2.31645e-06 0)
(2.34212e-08 -2.32106e-06 0)
(2.33571e-08 -2.32567e-06 0)
(2.32928e-08 -2.33027e-06 0)
(2.32284e-08 -2.33488e-06 0)
(2.31637e-08 -2.33948e-06 0)
(2.30988e-08 -2.34407e-06 0)
(2.30338e-08 -2.34867e-06 0)
(2.29685e-08 -2.35327e-06 0)
(2.2903e-08 -2.35786e-06 0)
(2.28374e-08 -2.36245e-06 0)
(2.27715e-08 -2.36703e-06 0)
(2.27054e-08 -2.37162e-06 0)
(2.26391e-08 -2.3762e-06 0)
(2.25727e-08 -2.38078e-06 0)
(2.2506e-08 -2.38536e-06 0)
(2.24392e-08 -2.38993e-06 0)
(2.23721e-08 -2.3945e-06 0)
(2.23049e-08 -2.39907e-06 0)
(2.22374e-08 -2.40364e-06 0)
(2.21698e-08 -2.4082e-06 0)
(2.2102e-08 -2.41276e-06 0)
(2.2034e-08 -2.41731e-06 0)
(2.19658e-08 -2.42187e-06 0)
(2.18974e-08 -2.42641e-06 0)
(2.18288e-08 -2.43096e-06 0)
(2.17601e-08 -2.4355e-06 0)
(2.16907e-08 -2.44004e-06 0)
(2.16233e-08 -2.44455e-06 0)
(2.15585e-08 -2.44885e-06 0)
(2.14947e-08 -2.45292e-06 0)
(2.14315e-08 -2.45697e-06 0)
(2.1368e-08 -2.46106e-06 0)
(2.13039e-08 -2.4652e-06 0)
(2.1239e-08 -2.46937e-06 0)
(2.11735e-08 -2.47358e-06 0)
(2.11072e-08 -2.47781e-06 0)
(2.10402e-08 -2.48207e-06 0)
(2.09724e-08 -2.48637e-06 0)
(2.0904e-08 -2.4907e-06 0)
(2.08347e-08 -2.49507e-06 0)
(2.07647e-08 -2.49946e-06 0)
(2.06939e-08 -2.50389e-06 0)
(2.06224e-08 -2.50836e-06 0)
(2.055e-08 -2.51285e-06 0)
(2.04769e-08 -2.51738e-06 0)
(2.0403e-08 -2.52194e-06 0)
(2.03283e-08 -2.52653e-06 0)
(2.02527e-08 -2.53116e-06 0)
(2.01764e-08 -2.53582e-06 0)
(2.00992e-08 -2.54051e-06 0)
(2.00212e-08 -2.54523e-06 0)
(1.99424e-08 -2.54999e-06 0)
(1.98627e-08 -2.55478e-06 0)
(1.97822e-08 -2.5596e-06 0)
(1.97008e-08 -2.56446e-06 0)
(1.96185e-08 -2.56934e-06 0)
(1.95354e-08 -2.57426e-06 0)
(1.94514e-08 -2.57921e-06 0)
(1.93665e-08 -2.5842e-06 0)
(1.92807e-08 -2.58921e-06 0)
(1.9194e-08 -2.59426e-06 0)
(1.91065e-08 -2.59934e-06 0)
(1.9018e-08 -2.60445e-06 0)
(1.89286e-08 -2.60959e-06 0)
(1.88382e-08 -2.61476e-06 0)
(1.8747e-08 -2.61997e-06 0)
(1.86548e-08 -2.6252e-06 0)
(1.85616e-08 -2.63047e-06 0)
(1.84675e-08 -2.63577e-06 0)
(1.83725e-08 -2.64109e-06 0)
(1.82765e-08 -2.64645e-06 0)
(1.81795e-08 -2.65184e-06 0)
(1.80816e-08 -2.65725e-06 0)
(1.79827e-08 -2.6627e-06 0)
(1.78828e-08 -2.66817e-06 0)
(1.77819e-08 -2.67367e-06 0)
(1.76801e-08 -2.6792e-06 0)
(1.75772e-08 -2.68476e-06 0)
(1.74734e-08 -2.69034e-06 0)
(1.73685e-08 -2.69596e-06 0)
(1.72627e-08 -2.70159e-06 0)
(1.71558e-08 -2.70726e-06 0)
(1.70479e-08 -2.71295e-06 0)
(1.69391e-08 -2.71867e-06 0)
(1.68291e-08 -2.72441e-06 0)
(1.67182e-08 -2.73017e-06 0)
(1.66063e-08 -2.73596e-06 0)
(1.64933e-08 -2.74178e-06 0)
(1.63793e-08 -2.74761e-06 0)
(1.62643e-08 -2.75347e-06 0)
(1.61482e-08 -2.75935e-06 0)
(1.60311e-08 -2.76525e-06 0)
(1.5913e-08 -2.77117e-06 0)
(1.57938e-08 -2.77711e-06 0)
(1.56736e-08 -2.78307e-06 0)
(1.55524e-08 -2.78905e-06 0)
(1.54302e-08 -2.79505e-06 0)
(1.53069e-08 -2.80106e-06 0)
(1.51826e-08 -2.80709e-06 0)
(1.50573e-08 -2.81314e-06 0)
(1.49309e-08 -2.8192e-06 0)
(1.48035e-08 -2.82527e-06 0)
(1.46752e-08 -2.83136e-06 0)
(1.45458e-08 -2.83746e-06 0)
(1.44154e-08 -2.84357e-06 0)
(1.4284e-08 -2.84969e-06 0)
(1.41516e-08 -2.85582e-06 0)
(1.40182e-08 -2.86196e-06 0)
(1.38838e-08 -2.86811e-06 0)
(1.37485e-08 -2.87426e-06 0)
(1.36122e-08 -2.88042e-06 0)
(1.34749e-08 -2.88659e-06 0)
(1.33367e-08 -2.89275e-06 0)
(1.31975e-08 -2.89892e-06 0)
(1.30574e-08 -2.9051e-06 0)
(1.29164e-08 -2.91127e-06 0)
(1.27745e-08 -2.91744e-06 0)
(1.26317e-08 -2.92361e-06 0)
(1.2488e-08 -2.92977e-06 0)
(1.23434e-08 -2.93593e-06 0)
(1.2198e-08 -2.94209e-06 0)
(1.20517e-08 -2.94824e-06 0)
(1.19046e-08 -2.95437e-06 0)
(1.17567e-08 -2.9605e-06 0)
(1.1608e-08 -2.96662e-06 0)
(1.14586e-08 -2.97273e-06 0)
(1.13083e-08 -2.97882e-06 0)
(1.11574e-08 -2.98489e-06 0)
(1.10057e-08 -2.99095e-06 0)
(1.08534e-08 -2.99699e-06 0)
(1.07003e-08 -3.00302e-06 0)
(1.05467e-08 -3.00902e-06 0)
(1.03924e-08 -3.01499e-06 0)
(1.02375e-08 -3.02095e-06 0)
(1.0082e-08 -3.02687e-06 0)
(9.92599e-09 -3.03277e-06 0)
(9.76945e-09 -3.03864e-06 0)
(9.61242e-09 -3.04448e-06 0)
(9.45493e-09 -3.05029e-06 0)
(9.297e-09 -3.05606e-06 0)
(9.13867e-09 -3.06179e-06 0)
(8.97997e-09 -3.06749e-06 0)
(8.82092e-09 -3.07315e-06 0)
(8.66157e-09 -3.07877e-06 0)
(8.50194e-09 -3.08435e-06 0)
(8.34208e-09 -3.08988e-06 0)
(8.18202e-09 -3.09536e-06 0)
(8.02178e-09 -3.1008e-06 0)
(7.86142e-09 -3.10619e-06 0)
(7.70097e-09 -3.11152e-06 0)
(7.54046e-09 -3.1168e-06 0)
(7.37994e-09 -3.12203e-06 0)
(7.21945e-09 -3.1272e-06 0)
(7.05902e-09 -3.13231e-06 0)
(6.8987e-09 -3.13736e-06 0)
(6.73854e-09 -3.14235e-06 0)
(6.57857e-09 -3.14727e-06 0)
(6.41884e-09 -3.15213e-06 0)
(6.25939e-09 -3.15691e-06 0)
(6.10028e-09 -3.16163e-06 0)
(5.94153e-09 -3.16628e-06 0)
(5.7832e-09 -3.17085e-06 0)
(5.62534e-09 -3.17535e-06 0)
(5.46799e-09 -3.17977e-06 0)
(5.3112e-09 -3.18411e-06 0)
(5.15503e-09 -3.18837e-06 0)
(4.9995e-09 -3.19255e-06 0)
(4.84468e-09 -3.19665e-06 0)
(4.69062e-09 -3.20066e-06 0)
(4.53736e-09 -3.20458e-06 0)
(4.38494e-09 -3.20841e-06 0)
(4.23344e-09 -3.21215e-06 0)
(4.08288e-09 -3.2158e-06 0)
(3.93332e-09 -3.21936e-06 0)
(3.78481e-09 -3.22282e-06 0)
(3.6374e-09 -3.22618e-06 0)
(3.49114e-09 -3.22944e-06 0)
(3.34608e-09 -3.23261e-06 0)
(3.20227e-09 -3.23567e-06 0)
(3.05975e-09 -3.23863e-06 0)
(2.91858e-09 -3.24149e-06 0)
(2.7788e-09 -3.24424e-06 0)
(2.64046e-09 -3.24688e-06 0)
(2.50361e-09 -3.24942e-06 0)
(2.36829e-09 -3.25185e-06 0)
(2.23456e-09 -3.25416e-06 0)
(2.10245e-09 -3.25637e-06 0)
(1.97201e-09 -3.25847e-06 0)
(1.84329e-09 -3.26045e-06 0)
(1.71633e-09 -3.26232e-06 0)
(1.59117e-09 -3.26407e-06 0)
(1.46786e-09 -3.26571e-06 0)
(1.34642e-09 -3.26723e-06 0)
(1.22691e-09 -3.26864e-06 0)
(1.10937e-09 -3.26992e-06 0)
(9.93817e-10 -3.2711e-06 0)
(8.80305e-10 -3.27215e-06 0)
(7.68864e-10 -3.27308e-06 0)
(6.59529e-10 -3.2739e-06 0)
(5.52332e-10 -3.2746e-06 0)
(4.47304e-10 -3.27518e-06 0)
(3.44477e-10 -3.27564e-06 0)
(2.43878e-10 -3.27598e-06 0)
(1.45539e-10 -3.2762e-06 0)
(4.94677e-11 -3.2763e-06 0)
(-4.42328e-11 -3.27629e-06 0)
(-1.35869e-10 -3.27616e-06 0)
(-2.24035e-10 -3.27591e-06 0)
(-3.14529e-10 -3.27554e-06 0)
(-4.09707e-10 -3.27499e-06 0)
(-5.04661e-10 -3.27424e-06 0)
(-5.97804e-10 -3.27332e-06 0)
(-6.86885e-10 -3.27226e-06 0)
(-7.71617e-10 -3.27106e-06 0)
(-8.52055e-10 -3.26972e-06 0)
(-9.28284e-10 -3.26826e-06 0)
(-1.00041e-09 -3.26668e-06 0)
(-1.06855e-09 -3.26499e-06 0)
(-1.13284e-09 -3.26319e-06 0)
(-1.19341e-09 -3.26129e-06 0)
(-1.25036e-09 -3.25929e-06 0)
(-1.30383e-09 -3.25721e-06 0)
(-1.35391e-09 -3.25504e-06 0)
(-1.40071e-09 -3.25279e-06 0)
(-1.44435e-09 -3.25047e-06 0)
(-1.48493e-09 -3.24808e-06 0)
(-1.52254e-09 -3.24563e-06 0)
(-1.55728e-09 -3.24312e-06 0)
(-1.58925e-09 -3.24056e-06 0)
(-1.61854e-09 -3.23795e-06 0)
(-1.64523e-09 -3.23529e-06 0)
(-1.6694e-09 -3.2326e-06 0)
(-1.69115e-09 -3.22986e-06 0)
(-1.71055e-09 -3.22709e-06 0)
(-1.72766e-09 -3.2243e-06 0)
(-1.74258e-09 -3.22147e-06 0)
(-1.75537e-09 -3.21863e-06 0)
(-1.76609e-09 -3.21577e-06 0)
(-1.77482e-09 -3.21289e-06 0)
(-1.78161e-09 -3.21e-06 0)
(-1.78653e-09 -3.20709e-06 0)
(-1.78964e-09 -3.20419e-06 0)
(-1.79099e-09 -3.20128e-06 0)
(-1.79064e-09 -3.19837e-06 0)
(-1.78864e-09 -3.19546e-06 0)
(-1.78504e-09 -3.19255e-06 0)
(-1.7799e-09 -3.18965e-06 0)
(-1.77324e-09 -3.18677e-06 0)
(-1.76514e-09 -3.18389e-06 0)
(-1.75562e-09 -3.18103e-06 0)
(-1.74473e-09 -3.17819e-06 0)
(-1.7325e-09 -3.17536e-06 0)
(-1.71899e-09 -3.17256e-06 0)
(-1.70422e-09 -3.16977e-06 0)
(-1.68824e-09 -3.16702e-06 0)
(-1.67108e-09 -3.16429e-06 0)
(-1.65277e-09 -3.16159e-06 0)
(-1.63335e-09 -3.15892e-06 0)
(-1.61284e-09 -3.15628e-06 0)
(-1.59129e-09 -3.15367e-06 0)
(-1.56871e-09 -3.15111e-06 0)
(-1.54515e-09 -3.14858e-06 0)
(-1.52062e-09 -3.14608e-06 0)
(-1.49516e-09 -3.14363e-06 0)
(-1.46879e-09 -3.14123e-06 0)
(-1.44154e-09 -3.13886e-06 0)
(-1.41344e-09 -3.13654e-06 0)
(-1.38451e-09 -3.13426e-06 0)
(-1.35478e-09 -3.13204e-06 0)
(-1.32426e-09 -3.12986e-06 0)
(-1.293e-09 -3.12773e-06 0)
(-1.261e-09 -3.12565e-06 0)
(-1.22829e-09 -3.12363e-06 0)
(-1.1949e-09 -3.12166e-06 0)
(-1.16085e-09 -3.11974e-06 0)
(-1.12616e-09 -3.11788e-06 0)
(-1.09085e-09 -3.11608e-06 0)
(-1.05495e-09 -3.11433e-06 0)
(-1.01848e-09 -3.11265e-06 0)
(-9.81452e-10 -3.11102e-06 0)
(-9.43902e-10 -3.10945e-06 0)
(-9.05844e-10 -3.10794e-06 0)
(-8.67303e-10 -3.1065e-06 0)
(-8.28297e-10 -3.10512e-06 0)
(-7.88851e-10 -3.1038e-06 0)
(-7.48984e-10 -3.10255e-06 0)
(-7.08718e-10 -3.10136e-06 0)
(-6.68074e-10 -3.10024e-06 0)
(-6.27073e-10 -3.09918e-06 0)
(-5.85737e-10 -3.09819e-06 0)
(-5.44087e-10 -3.09727e-06 0)
(-5.02144e-10 -3.09641e-06 0)
(-4.59929e-10 -3.09563e-06 0)
(-4.17465e-10 -3.0949e-06 0)
(-3.74774e-10 -3.09427e-06 0)
(-3.31876e-10 -3.09362e-06 0)
(-2.88804e-10 -3.09333e-06 0)
(-2.45562e-10 -3.09217e-06 0)
(-2.02231e-10 -3.09415e-06 0)
(-1.58692e-10 -3.0858e-06 0)
(-1.15307e-10 -3.11069e-06 0)
(-7.16942e-11 -3.01741e-06 0)
(-2.69392e-11 -3.26515e-06 0)
(-2.14326e-12 -2.85183e-06 0)
)
;
    }
    bottomWall
    {
        type            calculated;
        value           nonuniform List<vector> 
449
(
(-48.4826 -0.963403 0)
(-19.7355 -0.00514887 0)
(-14.3367 -0.00113234 0)
(-12.0351 -0.00054275 0)
(-10.6396 -0.000347301 0)
(-9.66377 -0.000248359 0)
(-8.93982 -0.000183178 0)
(-8.40706 -0.000126181 0)
(-8.07242 -5.59419e-05 0)
(-8.02284 5.87519e-05 0)
(-8.48227 0.000242005 0)
(-9.70312 0.000338329 0)
(-10.8292 0.00026616 0)
(-11.551 0.000161495 0)
(-11.9537 8.92953e-05 0)
(-12.1746 4.75302e-05 0)
(-12.2865 2.19014e-05 0)
(-12.3283 4.53034e-06 0)
(-12.3183 -6.92948e-06 0)
(-12.2793 -1.37884e-05 0)
(-12.2207 -1.83095e-05 0)
(-12.1495 -2.09616e-05 0)
(-12.0718 -2.22227e-05 0)
(-11.9912 -2.26677e-05 0)
(-11.9099 -2.26259e-05 0)
(-11.8292 -2.23123e-05 0)
(-11.7498 -2.18277e-05 0)
(-11.6723 -2.12142e-05 0)
(-11.5969 -2.05419e-05 0)
(-11.5239 -1.98483e-05 0)
(-11.4532 -1.91536e-05 0)
(-11.3848 -1.84699e-05 0)
(-11.3188 -1.78064e-05 0)
(-11.255 -1.71663e-05 0)
(-11.1933 -1.65601e-05 0)
(-11.1336 -1.59918e-05 0)
(-11.0758 -1.54455e-05 0)
(-11.0199 -1.49153e-05 0)
(-10.9657 -1.44094e-05 0)
(-10.9133 -1.39293e-05 0)
(-10.8625 -1.34737e-05 0)
(-10.8131 -1.30413e-05 0)
(-10.7653 -1.26327e-05 0)
(-10.7188 -1.22444e-05 0)
(-10.6736 -1.18743e-05 0)
(-10.6297 -1.15223e-05 0)
(-10.587 -1.11902e-05 0)
(-10.5454 -1.08718e-05 0)
(-10.5048 -1.05746e-05 0)
(-10.4653 -1.03131e-05 0)
(-10.4265 -1.00795e-05 0)
(-10.3886 -9.85935e-06 0)
(-10.3513 -9.64648e-06 0)
(-10.3148 -9.43733e-06 0)
(-10.279 -9.23152e-06 0)
(-10.2439 -9.0281e-06 0)
(-10.2095 -8.82926e-06 0)
(-10.1757 -8.63636e-06 0)
(-10.1427 -8.4484e-06 0)
(-10.1102 -8.26557e-06 0)
(-10.0784 -8.08905e-06 0)
(-10.0472 -7.91974e-06 0)
(-10.0166 -7.75503e-06 0)
(-9.98648 -7.59457e-06 0)
(-9.95696 -7.43857e-06 0)
(-9.92797 -7.28925e-06 0)
(-9.89949 -7.14527e-06 0)
(-9.8715 -7.00596e-06 0)
(-9.84399 -6.86937e-06 0)
(-9.81696 -6.74042e-06 0)
(-9.79035 -6.61795e-06 0)
(-9.76416 -6.49567e-06 0)
(-9.73841 -6.37549e-06 0)
(-9.71306 -6.25971e-06 0)
(-9.68811 -6.14789e-06 0)
(-9.66355 -6.03767e-06 0)
(-9.63938 -5.93067e-06 0)
(-9.61557 -5.8261e-06 0)
(-9.59213 -5.72447e-06 0)
(-9.56903 -5.62592e-06 0)
(-9.54628 -5.53011e-06 0)
(-9.52386 -5.4369e-06 0)
(-9.50177 -5.34634e-06 0)
(-9.47999 -5.25802e-06 0)
(-9.45852 -5.17191e-06 0)
(-9.43734 -5.08855e-06 0)
(-9.41646 -5.00705e-06 0)
(-9.39586 -4.92906e-06 0)
(-9.37553 -4.85258e-06 0)
(-9.35547 -4.7774e-06 0)
(-9.33567 -4.70467e-06 0)
(-9.31613 -4.63292e-06 0)
(-9.29684 -4.56322e-06 0)
(-9.27779 -4.49523e-06 0)
(-9.25898 -4.42804e-06 0)
(-9.24041 -4.36369e-06 0)
(-9.22205 -4.30023e-06 0)
(-9.20393 -4.23795e-06 0)
(-9.18602 -4.17814e-06 0)
(-9.16833 -4.11867e-06 0)
(-9.15084 -4.06316e-06 0)
(-9.13354 -4.01042e-06 0)
(-9.11642 -3.95631e-06 0)
(-9.0995 -3.90307e-06 0)
(-9.08277 -3.8503e-06 0)
(-9.06622 -3.79819e-06 0)
(-9.04986 -3.7483e-06 0)
(-9.03367 -3.69891e-06 0)
(-9.01766 -3.64995e-06 0)
(-9.00182 -3.60313e-06 0)
(-8.98615 -3.55679e-06 0)
(-8.97064 -3.51066e-06 0)
(-8.9553 -3.46673e-06 0)
(-8.94011 -3.42328e-06 0)
(-8.92508 -3.37988e-06 0)
(-8.9102 -3.33842e-06 0)
(-8.89546 -3.29771e-06 0)
(-8.88088 -3.25685e-06 0)
(-8.86644 -3.21746e-06 0)
(-8.85213 -3.17933e-06 0)
(-8.83797 -3.14092e-06 0)
(-8.82394 -3.10344e-06 0)
(-8.81005 -3.06766e-06 0)
(-8.79628 -3.03168e-06 0)
(-8.78264 -2.99589e-06 0)
(-8.76913 -2.96181e-06 0)
(-8.75574 -2.9282e-06 0)
(-8.74247 -2.8945e-06 0)
(-8.72933 -2.86177e-06 0)
(-8.7163 -2.83026e-06 0)
(-8.70338 -2.79862e-06 0)
(-8.69058 -2.7671e-06 0)
(-8.67789 -2.73703e-06 0)
(-8.66531 -2.7075e-06 0)
(-8.65283 -2.67773e-06 0)
(-8.64047 -2.64867e-06 0)
(-8.62821 -2.62088e-06 0)
(-8.61604 -2.59298e-06 0)
(-8.60398 -2.56497e-06 0)
(-8.59202 -2.53818e-06 0)
(-8.58015 -2.51222e-06 0)
(-8.56838 -2.4859e-06 0)
(-8.55671 -2.45976e-06 0)
(-8.54513 -2.43488e-06 0)
(-8.53364 -2.41045e-06 0)
(-8.52223 -2.38567e-06 0)
(-8.51092 -2.36178e-06 0)
(-8.4997 -2.34008e-06 0)
(-8.48854 -2.31846e-06 0)
(-8.47747 -2.29553e-06 0)
(-8.46648 -2.27277e-06 0)
(-8.45557 -2.25085e-06 0)
(-8.44474 -2.2292e-06 0)
(-8.434 -2.20736e-06 0)
(-8.42333 -2.18586e-06 0)
(-8.41274 -2.16516e-06 0)
(-8.40222 -2.14484e-06 0)
(-8.39178 -2.12432e-06 0)
(-8.38142 -2.10396e-06 0)
(-8.37113 -2.0844e-06 0)
(-8.36091 -2.06538e-06 0)
(-8.35076 -2.0461e-06 0)
(-8.34068 -2.02676e-06 0)
(-8.33067 -2.00822e-06 0)
(-8.32073 -1.99032e-06 0)
(-8.31085 -1.97224e-06 0)
(-8.30105 -1.95402e-06 0)
(-8.29131 -1.93631e-06 0)
(-8.28163 -1.91944e-06 0)
(-8.27201 -1.90243e-06 0)
(-8.26247 -1.88558e-06 0)
(-8.25297 -1.86852e-06 0)
(-8.24355 -1.85005e-06 0)
(-8.23472 -1.83669e-06 0)
(-8.2264 -1.82513e-06 0)
(-8.21805 -1.80902e-06 0)
(-8.2097 -1.79399e-06 0)
(-8.20131 -1.7802e-06 0)
(-8.1929 -1.76632e-06 0)
(-8.18446 -1.75226e-06 0)
(-8.17601 -1.73787e-06 0)
(-8.16753 -1.72395e-06 0)
(-8.15902 -1.71033e-06 0)
(-8.15049 -1.69683e-06 0)
(-8.14194 -1.68291e-06 0)
(-8.13337 -1.66883e-06 0)
(-8.12477 -1.65525e-06 0)
(-8.11615 -1.64193e-06 0)
(-8.10751 -1.62856e-06 0)
(-8.09885 -1.61491e-06 0)
(-8.09016 -1.60125e-06 0)
(-8.08146 -1.58803e-06 0)
(-8.07273 -1.57497e-06 0)
(-8.06398 -1.56174e-06 0)
(-8.05522 -1.54836e-06 0)
(-8.04643 -1.53516e-06 0)
(-8.03762 -1.52225e-06 0)
(-8.02879 -1.5095e-06 0)
(-8.01994 -1.49648e-06 0)
(-8.01107 -1.48335e-06 0)
(-8.00219 -1.4706e-06 0)
(-7.99328 -1.45808e-06 0)
(-7.98436 -1.44548e-06 0)
(-7.97541 -1.43272e-06 0)
(-7.96645 -1.42006e-06 0)
(-7.95747 -1.4077e-06 0)
(-7.94847 -1.39553e-06 0)
(-7.93946 -1.38311e-06 0)
(-7.93043 -1.37058e-06 0)
(-7.92138 -1.35842e-06 0)
(-7.91231 -1.3465e-06 0)
(-7.90323 -1.33443e-06 0)
(-7.89413 -1.32282e-06 0)
(-7.88501 -1.31184e-06 0)
(-7.87586 -1.30059e-06 0)
(-7.8667 -1.28897e-06 0)
(-7.85752 -1.27711e-06 0)
(-7.84833 -1.26528e-06 0)
(-7.83913 -1.25378e-06 0)
(-7.8299 -1.24244e-06 0)
(-7.82067 -1.2309e-06 0)
(-7.81142 -1.21929e-06 0)
(-7.80216 -1.20802e-06 0)
(-7.79288 -1.19701e-06 0)
(-7.78359 -1.18578e-06 0)
(-7.77428 -1.17443e-06 0)
(-7.76497 -1.16342e-06 0)
(-7.75564 -1.15268e-06 0)
(-7.7463 -1.14176e-06 0)
(-7.73694 -1.13073e-06 0)
(-7.72758 -1.11999e-06 0)
(-7.7182 -1.1095e-06 0)
(-7.70881 -1.09889e-06 0)
(-7.69941 -1.08816e-06 0)
(-7.69 -1.0777e-06 0)
(-7.68058 -1.06749e-06 0)
(-7.67115 -1.05716e-06 0)
(-7.66171 -1.04673e-06 0)
(-7.65226 -1.03656e-06 0)
(-7.6428 -1.02663e-06 0)
(-7.63332 -1.01658e-06 0)
(-7.62384 -1.00644e-06 0)
(-7.61436 -9.96576e-07 0)
(-7.60486 -9.86926e-07 0)
(-7.59535 -9.77143e-07 0)
(-7.58584 -9.673e-07 0)
(-7.57631 -9.57747e-07 0)
(-7.56678 -9.4839e-07 0)
(-7.55724 -9.38865e-07 0)
(-7.5477 -9.29314e-07 0)
(-7.53815 -9.20076e-07 0)
(-7.52859 -9.10968e-07 0)
(-7.51902 -9.01706e-07 0)
(-7.50945 -8.92486e-07 0)
(-7.49987 -8.83536e-07 0)
(-7.49028 -8.74661e-07 0)
(-7.48069 -8.65674e-07 0)
(-7.4711 -8.5679e-07 0)
(-7.4615 -8.48138e-07 0)
(-7.45189 -8.39492e-07 0)
(-7.44228 -8.30773e-07 0)
(-7.43266 -8.22213e-07 0)
(-7.42304 -8.13855e-07 0)
(-7.41341 -8.05434e-07 0)
(-7.40378 -7.96982e-07 0)
(-7.39415 -7.8874e-07 0)
(-7.38452 -7.80642e-07 0)
(-7.37488 -7.72457e-07 0)
(-7.36523 -7.64309e-07 0)
(-7.35559 -7.56379e-07 0)
(-7.34594 -7.48492e-07 0)
(-7.33629 -7.40553e-07 0)
(-7.32664 -7.32765e-07 0)
(-7.31698 -7.25595e-07 0)
(-7.30731 -7.18523e-07 0)
(-7.29763 -7.10983e-07 0)
(-7.28796 -7.03475e-07 0)
(-7.27828 -6.96061e-07 0)
(-7.2686 -6.88599e-07 0)
(-7.25892 -6.81192e-07 0)
(-7.24924 -6.7397e-07 0)
(-7.23956 -6.66765e-07 0)
(-7.22987 -6.59528e-07 0)
(-7.22019 -6.52431e-07 0)
(-7.21051 -6.45469e-07 0)
(-7.20083 -6.38458e-07 0)
(-7.19115 -6.31467e-07 0)
(-7.18147 -6.24669e-07 0)
(-7.17179 -6.1791e-07 0)
(-7.16212 -6.11116e-07 0)
(-7.15244 -6.0444e-07 0)
(-7.14277 -5.97912e-07 0)
(-7.1331 -5.91338e-07 0)
(-7.12343 -5.84775e-07 0)
(-7.11376 -5.78393e-07 0)
(-7.10409 -5.72056e-07 0)
(-7.09443 -5.65685e-07 0)
(-7.08477 -5.59424e-07 0)
(-7.07512 -5.533e-07 0)
(-7.06546 -5.4714e-07 0)
(-7.05581 -5.40999e-07 0)
(-7.04617 -5.35022e-07 0)
(-7.03653 -5.29082e-07 0)
(-7.02689 -5.23112e-07 0)
(-7.01725 -5.17258e-07 0)
(-7.00762 -5.11515e-07 0)
(-6.998 -5.05745e-07 0)
(-6.98838 -5.00012e-07 0)
(-6.97876 -4.9443e-07 0)
(-6.96915 -4.8886e-07 0)
(-6.95955 -4.83277e-07 0)
(-6.94995 -4.77816e-07 0)
(-6.94036 -4.72432e-07 0)
(-6.93077 -4.67027e-07 0)
(-6.92119 -4.61687e-07 0)
(-6.91161 -4.56475e-07 0)
(-6.90204 -4.51253e-07 0)
(-6.89248 -4.46038e-07 0)
(-6.88292 -4.40963e-07 0)
(-6.87337 -4.35919e-07 0)
(-6.86383 -4.30867e-07 0)
(-6.8543 -4.25907e-07 0)
(-6.84477 -4.21028e-07 0)
(-6.83525 -4.1614e-07 0)
(-6.82574 -4.113e-07 0)
(-6.81624 -4.06574e-07 0)
(-6.80674 -4.01846e-07 0)
(-6.79726 -3.97133e-07 0)
(-6.78778 -3.9253e-07 0)
(-6.77831 -3.8816e-07 0)
(-6.76884 -3.83882e-07 0)
(-6.75937 -3.79478e-07 0)
(-6.74992 -3.75054e-07 0)
(-6.74047 -3.70624e-07 0)
(-6.73103 -3.66251e-07 0)
(-6.7216 -3.61966e-07 0)
(-6.71219 -3.57689e-07 0)
(-6.70278 -3.53434e-07 0)
(-6.69338 -3.49299e-07 0)
(-6.68399 -3.45208e-07 0)
(-6.67461 -3.41114e-07 0)
(-6.66525 -3.37075e-07 0)
(-6.65589 -3.33074e-07 0)
(-6.64654 -3.29073e-07 0)
(-6.63721 -3.25147e-07 0)
(-6.62788 -3.21273e-07 0)
(-6.61857 -3.1741e-07 0)
(-6.60927 -3.13586e-07 0)
(-6.59998 -3.09847e-07 0)
(-6.5907 -3.06089e-07 0)
(-6.58144 -3.02398e-07 0)
(-6.57219 -2.98689e-07 0)
(-6.56296 -2.95135e-07 0)
(-6.55372 -2.91699e-07 0)
(-6.54347 -2.87605e-07 0)
(-6.53231 -2.83215e-07 0)
(-6.52131 -2.7921e-07 0)
(-6.51046 -2.75294e-07 0)
(-6.49978 -2.71374e-07 0)
(-6.48923 -2.67578e-07 0)
(-6.47884 -2.63867e-07 0)
(-6.46859 -2.60221e-07 0)
(-6.45849 -2.56684e-07 0)
(-6.44851 -2.53219e-07 0)
(-6.43868 -2.49823e-07 0)
(-6.42896 -2.46531e-07 0)
(-6.41939 -2.43308e-07 0)
(-6.40993 -2.40133e-07 0)
(-6.4006 -2.37066e-07 0)
(-6.39138 -2.34053e-07 0)
(-6.38229 -2.3109e-07 0)
(-6.37331 -2.28216e-07 0)
(-6.36444 -2.25404e-07 0)
(-6.35567 -2.22626e-07 0)
(-6.34702 -2.19929e-07 0)
(-6.33847 -2.17295e-07 0)
(-6.33002 -2.14698e-07 0)
(-6.32167 -2.12155e-07 0)
(-6.31343 -2.0969e-07 0)
(-6.30527 -2.07252e-07 0)
(-6.29721 -2.04854e-07 0)
(-6.28924 -2.02531e-07 0)
(-6.28137 -2.00251e-07 0)
(-6.27357 -1.98101e-07 0)
(-6.26587 -1.96034e-07 0)
(-6.25824 -1.93914e-07 0)
(-6.2507 -1.91798e-07 0)
(-6.24323 -1.89704e-07 0)
(-6.23586 -1.87676e-07 0)
(-6.22855 -1.85687e-07 0)
(-6.22133 -1.8372e-07 0)
(-6.21418 -1.81788e-07 0)
(-6.20711 -1.79926e-07 0)
(-6.20011 -1.78093e-07 0)
(-6.19318 -1.76271e-07 0)
(-6.18632 -1.74476e-07 0)
(-6.17953 -1.72735e-07 0)
(-6.1728 -1.71007e-07 0)
(-6.16615 -1.693e-07 0)
(-6.15956 -1.67629e-07 0)
(-6.15304 -1.66011e-07 0)
(-6.14657 -1.64399e-07 0)
(-6.14018 -1.6281e-07 0)
(-6.13384 -1.61248e-07 0)
(-6.12757 -1.59741e-07 0)
(-6.12134 -1.58236e-07 0)
(-6.11519 -1.56758e-07 0)
(-6.10908 -1.5529e-07 0)
(-6.10304 -1.53883e-07 0)
(-6.09704 -1.52478e-07 0)
(-6.09111 -1.51104e-07 0)
(-6.08522 -1.49718e-07 0)
(-6.0794 -1.48404e-07 0)
(-6.07361 -1.47089e-07 0)
(-6.06789 -1.45817e-07 0)
(-6.0622 -1.44504e-07 0)
(-6.05659 -1.43281e-07 0)
(-6.05099 -1.42032e-07 0)
(-6.04548 -1.40866e-07 0)
(-6.03997 -1.39628e-07 0)
(-6.03456 -1.38491e-07 0)
(-6.02914 -1.37292e-07 0)
(-6.02382 -1.36229e-07 0)
(-6.01848 -1.35055e-07 0)
(-6.01325 -1.34019e-07 0)
(-6.008 -1.32857e-07 0)
(-6.00286 -1.31892e-07 0)
(-5.99768 -1.3077e-07 0)
(-5.99263 -1.29858e-07 0)
(-5.98752 -1.28724e-07 0)
(-5.98256 -1.27868e-07 0)
(-5.97752 -1.26765e-07 0)
(-5.97264 -1.25997e-07 0)
(-5.96767 -1.249e-07 0)
(-5.96287 -1.24185e-07 0)
(-5.95795 -1.23107e-07 0)
(-5.95324 -1.22479e-07 0)
(-5.94837 -1.21498e-07 0)
(-5.94374 -1.20841e-07 0)
(-5.93892 -1.20222e-07 0)
(-5.93433 -1.18961e-07 0)
(-5.92961 -1.20057e-07 0)
(-5.92494 -1.15713e-07 0)
(-5.92057 -1.23866e-07 0)
(-5.91522 -1.06152e-07 0)
(-5.91231 -1.37287e-07 0)
(-5.9044 -8.3623e-08 0)
(-5.90593 -1.15752e-07 0)
(-5.89506 -1.44126e-07 0)
)
;
    }
    symmetry
    {
        type            symmetryPlane;
    }
    frontAndBack
    {
        type            empty;
    }
}


// ************************************************************************* //
