/*--------------------------------*- C++ -*----------------------------------*\
| =========                 |                                                 |
| \\      /  F ield         | OpenFOAM: The Open Source CFD Toolbox           |
|  \\    /   O peration     | Version:  v2012                                 |
|   \\  /    A nd           | Website:  www.openfoam.com                      |
|    \\/     M anipulation  |                                                 |
\*---------------------------------------------------------------------------*/
FoamFile
{
    version     2.0;
    format      ascii;
    class       volVectorField;
    location    "43.5";
    object      wallShearStress;
}
// * * * * * * * * * * * * * * * * * * * * * * * * * * * * * * * * * * * * * //

dimensions      [0 2 -2 0 0 0 0];


internalField   uniform (0 0 0);

boundaryField
{
    inlet
    {
        type            calculated;
        value           uniform (0 0 0);
    }
    outlet
    {
        type            calculated;
        value           uniform (0 0 0);
    }
    topWall
    {
        type            calculated;
        value           nonuniform List<vector> 
545
(
(1.48718e-08 -1.04684e-08 0)
(1.48649e-08 -2.92868e-08 0)
(1.48512e-08 -4.88535e-08 0)
(1.48307e-08 -6.78464e-08 0)
(1.48046e-08 -8.60181e-08 0)
(1.47733e-08 -1.036e-07 0)
(1.47374e-08 -1.20741e-07 0)
(1.46971e-08 -1.3743e-07 0)
(1.4653e-08 -1.5363e-07 0)
(1.46052e-08 -1.6934e-07 0)
(1.45544e-08 -1.8458e-07 0)
(1.45007e-08 -1.99368e-07 0)
(1.44444e-08 -2.13713e-07 0)
(1.4386e-08 -2.27625e-07 0)
(1.43255e-08 -2.41113e-07 0)
(1.42634e-08 -2.54189e-07 0)
(1.41998e-08 -2.66864e-07 0)
(1.41349e-08 -2.7915e-07 0)
(1.4069e-08 -2.91056e-07 0)
(1.40022e-08 -3.02594e-07 0)
(1.39348e-08 -3.13774e-07 0)
(1.38668e-08 -3.24606e-07 0)
(1.37985e-08 -3.35101e-07 0)
(1.37299e-08 -3.45269e-07 0)
(1.36613e-08 -3.55119e-07 0)
(1.35926e-08 -3.64662e-07 0)
(1.35241e-08 -3.73906e-07 0)
(1.34558e-08 -3.8286e-07 0)
(1.33878e-08 -3.91535e-07 0)
(1.33202e-08 -3.99938e-07 0)
(1.32531e-08 -4.08079e-07 0)
(1.31865e-08 -4.15965e-07 0)
(1.31205e-08 -4.23604e-07 0)
(1.30551e-08 -4.31005e-07 0)
(1.29905e-08 -4.38175e-07 0)
(1.29266e-08 -4.45121e-07 0)
(1.28635e-08 -4.51851e-07 0)
(1.28012e-08 -4.58372e-07 0)
(1.27397e-08 -4.6469e-07 0)
(1.26791e-08 -4.70812e-07 0)
(1.26194e-08 -4.76745e-07 0)
(1.25607e-08 -4.82494e-07 0)
(1.25029e-08 -4.88065e-07 0)
(1.2446e-08 -4.93465e-07 0)
(1.239e-08 -4.98699e-07 0)
(1.23351e-08 -5.03772e-07 0)
(1.22811e-08 -5.08689e-07 0)
(1.22281e-08 -5.13456e-07 0)
(1.2176e-08 -5.18077e-07 0)
(1.21249e-08 -5.22558e-07 0)
(1.20749e-08 -5.26902e-07 0)
(1.20257e-08 -5.31114e-07 0)
(1.19776e-08 -5.35199e-07 0)
(1.19304e-08 -5.3916e-07 0)
(1.18841e-08 -5.43002e-07 0)
(1.18388e-08 -5.46728e-07 0)
(1.17945e-08 -5.50342e-07 0)
(1.17511e-08 -5.53847e-07 0)
(1.17086e-08 -5.57248e-07 0)
(1.1667e-08 -5.60547e-07 0)
(1.16263e-08 -5.63748e-07 0)
(1.15865e-08 -5.66854e-07 0)
(1.15475e-08 -5.69868e-07 0)
(1.15094e-08 -5.72792e-07 0)
(1.14722e-08 -5.7563e-07 0)
(1.14358e-08 -5.78384e-07 0)
(1.14003e-08 -5.81057e-07 0)
(1.13655e-08 -5.83652e-07 0)
(1.13315e-08 -5.86171e-07 0)
(1.12984e-08 -5.88616e-07 0)
(1.12659e-08 -5.9099e-07 0)
(1.12344e-08 -5.93291e-07 0)
(1.12039e-08 -5.95503e-07 0)
(1.11738e-08 -5.97647e-07 0)
(1.11441e-08 -5.99764e-07 0)
(1.11144e-08 -6.0187e-07 0)
(1.10849e-08 -6.03963e-07 0)
(1.10554e-08 -6.06042e-07 0)
(1.10259e-08 -6.08104e-07 0)
(1.09966e-08 -6.10151e-07 0)
(1.09672e-08 -6.12184e-07 0)
(1.0938e-08 -6.14202e-07 0)
(1.09088e-08 -6.16206e-07 0)
(1.08796e-08 -6.18195e-07 0)
(1.08505e-08 -6.20169e-07 0)
(1.08215e-08 -6.22129e-07 0)
(1.07926e-08 -6.24076e-07 0)
(1.07637e-08 -6.26008e-07 0)
(1.07348e-08 -6.27926e-07 0)
(1.07061e-08 -6.2983e-07 0)
(1.06774e-08 -6.3172e-07 0)
(1.06488e-08 -6.33597e-07 0)
(1.06202e-08 -6.3546e-07 0)
(1.05918e-08 -6.37309e-07 0)
(1.05631e-08 -6.39148e-07 0)
(1.05359e-08 -6.40955e-07 0)
(1.05108e-08 -6.42608e-07 0)
(1.04865e-08 -6.44104e-07 0)
(1.04631e-08 -6.45559e-07 0)
(1.04398e-08 -6.47019e-07 0)
(1.04164e-08 -6.48491e-07 0)
(1.0393e-08 -6.49966e-07 0)
(1.03695e-08 -6.51438e-07 0)
(1.03458e-08 -6.52908e-07 0)
(1.03221e-08 -6.54379e-07 0)
(1.02983e-08 -6.55851e-07 0)
(1.02744e-08 -6.57322e-07 0)
(1.02505e-08 -6.58794e-07 0)
(1.02264e-08 -6.60265e-07 0)
(1.02022e-08 -6.61737e-07 0)
(1.01779e-08 -6.63209e-07 0)
(1.01536e-08 -6.6468e-07 0)
(1.01291e-08 -6.66152e-07 0)
(1.01046e-08 -6.67623e-07 0)
(1.00799e-08 -6.69094e-07 0)
(1.00552e-08 -6.70565e-07 0)
(1.00304e-08 -6.72036e-07 0)
(1.00055e-08 -6.73507e-07 0)
(9.98044e-09 -6.74977e-07 0)
(9.95533e-09 -6.76448e-07 0)
(9.93012e-09 -6.77918e-07 0)
(9.90482e-09 -6.79388e-07 0)
(9.87942e-09 -6.80857e-07 0)
(9.85393e-09 -6.82326e-07 0)
(9.82835e-09 -6.83795e-07 0)
(9.80267e-09 -6.85264e-07 0)
(9.7769e-09 -6.86732e-07 0)
(9.75103e-09 -6.88199e-07 0)
(9.72506e-09 -6.89666e-07 0)
(9.699e-09 -6.91133e-07 0)
(9.67285e-09 -6.92599e-07 0)
(9.6466e-09 -6.94065e-07 0)
(9.62026e-09 -6.9553e-07 0)
(9.59382e-09 -6.96995e-07 0)
(9.56729e-09 -6.98459e-07 0)
(9.54066e-09 -6.99922e-07 0)
(9.51394e-09 -7.01385e-07 0)
(9.48712e-09 -7.02847e-07 0)
(9.46021e-09 -7.04308e-07 0)
(9.4332e-09 -7.05769e-07 0)
(9.4061e-09 -7.07229e-07 0)
(9.3789e-09 -7.08688e-07 0)
(9.35161e-09 -7.10147e-07 0)
(9.32422e-09 -7.11604e-07 0)
(9.29674e-09 -7.13061e-07 0)
(9.26917e-09 -7.14516e-07 0)
(9.24149e-09 -7.15971e-07 0)
(9.21373e-09 -7.17425e-07 0)
(9.18587e-09 -7.18878e-07 0)
(9.15791e-09 -7.2033e-07 0)
(9.12986e-09 -7.21781e-07 0)
(9.10172e-09 -7.23231e-07 0)
(9.07348e-09 -7.2468e-07 0)
(9.04515e-09 -7.26128e-07 0)
(9.01672e-09 -7.27574e-07 0)
(8.9882e-09 -7.2902e-07 0)
(8.95959e-09 -7.30464e-07 0)
(8.93088e-09 -7.31907e-07 0)
(8.90208e-09 -7.33349e-07 0)
(8.87318e-09 -7.34789e-07 0)
(8.84419e-09 -7.36228e-07 0)
(8.81511e-09 -7.37666e-07 0)
(8.78593e-09 -7.39103e-07 0)
(8.75666e-09 -7.40538e-07 0)
(8.72729e-09 -7.41972e-07 0)
(8.69784e-09 -7.43404e-07 0)
(8.66829e-09 -7.44835e-07 0)
(8.63865e-09 -7.46264e-07 0)
(8.60891e-09 -7.47691e-07 0)
(8.57909e-09 -7.49118e-07 0)
(8.54917e-09 -7.50542e-07 0)
(8.51916e-09 -7.51965e-07 0)
(8.48905e-09 -7.53386e-07 0)
(8.45886e-09 -7.54806e-07 0)
(8.42857e-09 -7.56223e-07 0)
(8.3982e-09 -7.57639e-07 0)
(8.36773e-09 -7.59054e-07 0)
(8.33717e-09 -7.60466e-07 0)
(8.30652e-09 -7.61877e-07 0)
(8.27578e-09 -7.63285e-07 0)
(8.24495e-09 -7.64692e-07 0)
(8.21403e-09 -7.66097e-07 0)
(8.18302e-09 -7.67499e-07 0)
(8.15192e-09 -7.689e-07 0)
(8.12073e-09 -7.70299e-07 0)
(8.08945e-09 -7.71695e-07 0)
(8.05808e-09 -7.7309e-07 0)
(8.02663e-09 -7.74482e-07 0)
(7.99508e-09 -7.75872e-07 0)
(7.96345e-09 -7.7726e-07 0)
(7.93173e-09 -7.78646e-07 0)
(7.89993e-09 -7.8003e-07 0)
(7.86804e-09 -7.81411e-07 0)
(7.83606e-09 -7.82789e-07 0)
(7.80399e-09 -7.84166e-07 0)
(7.77184e-09 -7.8554e-07 0)
(7.7396e-09 -7.86911e-07 0)
(7.70728e-09 -7.8828e-07 0)
(7.67487e-09 -7.89647e-07 0)
(7.64237e-09 -7.91011e-07 0)
(7.6098e-09 -7.92372e-07 0)
(7.57713e-09 -7.93731e-07 0)
(7.54439e-09 -7.95087e-07 0)
(7.51156e-09 -7.9644e-07 0)
(7.47865e-09 -7.9779e-07 0)
(7.44566e-09 -7.99138e-07 0)
(7.41258e-09 -8.00483e-07 0)
(7.37942e-09 -8.01826e-07 0)
(7.34619e-09 -8.03165e-07 0)
(7.31287e-09 -8.04501e-07 0)
(7.27947e-09 -8.05835e-07 0)
(7.24599e-09 -8.07165e-07 0)
(7.21243e-09 -8.08493e-07 0)
(7.17879e-09 -8.09817e-07 0)
(7.14508e-09 -8.11138e-07 0)
(7.11128e-09 -8.12456e-07 0)
(7.07741e-09 -8.13771e-07 0)
(7.04346e-09 -8.15083e-07 0)
(7.00944e-09 -8.16392e-07 0)
(6.97534e-09 -8.17697e-07 0)
(6.94116e-09 -8.18999e-07 0)
(6.90691e-09 -8.20298e-07 0)
(6.87258e-09 -8.21593e-07 0)
(6.83818e-09 -8.22885e-07 0)
(6.80371e-09 -8.24173e-07 0)
(6.76916e-09 -8.25458e-07 0)
(6.73454e-09 -8.26739e-07 0)
(6.69985e-09 -8.28017e-07 0)
(6.66509e-09 -8.29291e-07 0)
(6.63026e-09 -8.30562e-07 0)
(6.59535e-09 -8.31828e-07 0)
(6.56038e-09 -8.33092e-07 0)
(6.52534e-09 -8.34351e-07 0)
(6.49023e-09 -8.35606e-07 0)
(6.45505e-09 -8.36858e-07 0)
(6.41981e-09 -8.38106e-07 0)
(6.3845e-09 -8.3935e-07 0)
(6.34913e-09 -8.4059e-07 0)
(6.31368e-09 -8.41826e-07 0)
(6.27818e-09 -8.43058e-07 0)
(6.24261e-09 -8.44285e-07 0)
(6.20698e-09 -8.45509e-07 0)
(6.17129e-09 -8.46729e-07 0)
(6.13553e-09 -8.47944e-07 0)
(6.09971e-09 -8.49155e-07 0)
(6.06384e-09 -8.50362e-07 0)
(6.0279e-09 -8.51565e-07 0)
(5.99191e-09 -8.52763e-07 0)
(5.95585e-09 -8.53957e-07 0)
(5.91974e-09 -8.55147e-07 0)
(5.88358e-09 -8.56332e-07 0)
(5.84735e-09 -8.57512e-07 0)
(5.81108e-09 -8.58688e-07 0)
(5.77475e-09 -8.5986e-07 0)
(5.73836e-09 -8.61026e-07 0)
(5.70192e-09 -8.62189e-07 0)
(5.66543e-09 -8.63346e-07 0)
(5.62889e-09 -8.64499e-07 0)
(5.5923e-09 -8.65647e-07 0)
(5.55566e-09 -8.6679e-07 0)
(5.51898e-09 -8.67928e-07 0)
(5.48224e-09 -8.69062e-07 0)
(5.44546e-09 -8.7019e-07 0)
(5.40863e-09 -8.71314e-07 0)
(5.37176e-09 -8.72432e-07 0)
(5.33483e-09 -8.73546e-07 0)
(5.29792e-09 -8.74654e-07 0)
(5.2607e-09 -8.75759e-07 0)
(5.22456e-09 -8.76851e-07 0)
(5.18994e-09 -8.77887e-07 0)
(5.15584e-09 -8.78867e-07 0)
(5.12216e-09 -8.79837e-07 0)
(5.08833e-09 -8.80813e-07 0)
(5.05422e-09 -8.81797e-07 0)
(5.0198e-09 -8.82786e-07 0)
(4.98505e-09 -8.83778e-07 0)
(4.94996e-09 -8.84773e-07 0)
(4.91455e-09 -8.85771e-07 0)
(4.8788e-09 -8.86774e-07 0)
(4.84271e-09 -8.8778e-07 0)
(4.80629e-09 -8.88789e-07 0)
(4.76952e-09 -8.89802e-07 0)
(4.73242e-09 -8.90818e-07 0)
(4.69497e-09 -8.91836e-07 0)
(4.65718e-09 -8.92858e-07 0)
(4.61904e-09 -8.93882e-07 0)
(4.58055e-09 -8.94909e-07 0)
(4.54171e-09 -8.95938e-07 0)
(4.50253e-09 -8.96969e-07 0)
(4.46299e-09 -8.98003e-07 0)
(4.4231e-09 -8.99038e-07 0)
(4.38285e-09 -9.00076e-07 0)
(4.34225e-09 -9.01115e-07 0)
(4.30129e-09 -9.02155e-07 0)
(4.25998e-09 -9.03197e-07 0)
(4.2183e-09 -9.0424e-07 0)
(4.17627e-09 -9.05284e-07 0)
(4.13388e-09 -9.06328e-07 0)
(4.09113e-09 -9.07373e-07 0)
(4.04801e-09 -9.08418e-07 0)
(4.00454e-09 -9.09464e-07 0)
(3.9607e-09 -9.10509e-07 0)
(3.9165e-09 -9.11554e-07 0)
(3.87194e-09 -9.12599e-07 0)
(3.82701e-09 -9.13642e-07 0)
(3.78172e-09 -9.14685e-07 0)
(3.73607e-09 -9.15726e-07 0)
(3.69006e-09 -9.16766e-07 0)
(3.64369e-09 -9.17804e-07 0)
(3.59696e-09 -9.1884e-07 0)
(3.54986e-09 -9.19874e-07 0)
(3.50241e-09 -9.20905e-07 0)
(3.4546e-09 -9.21933e-07 0)
(3.40643e-09 -9.22958e-07 0)
(3.3579e-09 -9.2398e-07 0)
(3.30903e-09 -9.24997e-07 0)
(3.25979e-09 -9.26011e-07 0)
(3.21021e-09 -9.2702e-07 0)
(3.16027e-09 -9.28025e-07 0)
(3.10999e-09 -9.29024e-07 0)
(3.05937e-09 -9.30018e-07 0)
(3.0084e-09 -9.31006e-07 0)
(2.95709e-09 -9.31988e-07 0)
(2.90545e-09 -9.32964e-07 0)
(2.85347e-09 -9.33933e-07 0)
(2.80115e-09 -9.34894e-07 0)
(2.74852e-09 -9.35848e-07 0)
(2.69555e-09 -9.36794e-07 0)
(2.64227e-09 -9.37732e-07 0)
(2.58867e-09 -9.3866e-07 0)
(2.53476e-09 -9.3958e-07 0)
(2.48055e-09 -9.4049e-07 0)
(2.42603e-09 -9.41389e-07 0)
(2.37121e-09 -9.42278e-07 0)
(2.3161e-09 -9.43157e-07 0)
(2.26071e-09 -9.44024e-07 0)
(2.20503e-09 -9.44878e-07 0)
(2.14908e-09 -9.45721e-07 0)
(2.09286e-09 -9.46551e-07 0)
(2.03638e-09 -9.47367e-07 0)
(1.97964e-09 -9.4817e-07 0)
(1.92266e-09 -9.48958e-07 0)
(1.86544e-09 -9.49732e-07 0)
(1.80798e-09 -9.5049e-07 0)
(1.7503e-09 -9.51233e-07 0)
(1.69241e-09 -9.51959e-07 0)
(1.6343e-09 -9.52668e-07 0)
(1.576e-09 -9.5336e-07 0)
(1.51751e-09 -9.54034e-07 0)
(1.45884e-09 -9.54689e-07 0)
(1.4e-09 -9.55325e-07 0)
(1.341e-09 -9.55942e-07 0)
(1.28185e-09 -9.56538e-07 0)
(1.22257e-09 -9.57113e-07 0)
(1.16315e-09 -9.57668e-07 0)
(1.10362e-09 -9.582e-07 0)
(1.04399e-09 -9.58709e-07 0)
(9.84267e-10 -9.59195e-07 0)
(9.24464e-10 -9.59658e-07 0)
(8.64596e-10 -9.60096e-07 0)
(8.04676e-10 -9.60509e-07 0)
(7.44717e-10 -9.60897e-07 0)
(6.84732e-10 -9.61258e-07 0)
(6.24737e-10 -9.61593e-07 0)
(5.64746e-10 -9.619e-07 0)
(5.04774e-10 -9.62178e-07 0)
(4.44835e-10 -9.62428e-07 0)
(3.84946e-10 -9.62649e-07 0)
(3.25123e-10 -9.6284e-07 0)
(2.65382e-10 -9.62999e-07 0)
(2.05739e-10 -9.63128e-07 0)
(1.46211e-10 -9.63225e-07 0)
(8.68155e-11 -9.63289e-07 0)
(2.75701e-11 -9.6332e-07 0)
(-3.15075e-11 -9.63316e-07 0)
(-9.03992e-11 -9.63279e-07 0)
(-1.49087e-10 -9.63206e-07 0)
(-2.07551e-10 -9.63098e-07 0)
(-2.65774e-10 -9.62953e-07 0)
(-3.23736e-10 -9.62771e-07 0)
(-3.81417e-10 -9.62551e-07 0)
(-4.38798e-10 -9.62294e-07 0)
(-4.95859e-10 -9.61997e-07 0)
(-5.5258e-10 -9.61661e-07 0)
(-6.0894e-10 -9.61285e-07 0)
(-6.6492e-10 -9.60868e-07 0)
(-7.20498e-10 -9.6041e-07 0)
(-7.75654e-10 -9.5991e-07 0)
(-8.30366e-10 -9.59367e-07 0)
(-8.84614e-10 -9.58782e-07 0)
(-9.38376e-10 -9.58153e-07 0)
(-9.91631e-10 -9.57481e-07 0)
(-1.04436e-09 -9.56763e-07 0)
(-1.09654e-09 -9.56001e-07 0)
(-1.14814e-09 -9.55193e-07 0)
(-1.19916e-09 -9.5434e-07 0)
(-1.24956e-09 -9.53439e-07 0)
(-1.29932e-09 -9.52492e-07 0)
(-1.34843e-09 -9.51498e-07 0)
(-1.39686e-09 -9.50456e-07 0)
(-1.44459e-09 -9.49365e-07 0)
(-1.4916e-09 -9.48227e-07 0)
(-1.53788e-09 -9.47039e-07 0)
(-1.58339e-09 -9.45802e-07 0)
(-1.62811e-09 -9.44516e-07 0)
(-1.67204e-09 -9.43179e-07 0)
(-1.71514e-09 -9.41793e-07 0)
(-1.7574e-09 -9.40357e-07 0)
(-1.79881e-09 -9.3887e-07 0)
(-1.83933e-09 -9.37332e-07 0)
(-1.87895e-09 -9.35743e-07 0)
(-1.91765e-09 -9.34104e-07 0)
(-1.95542e-09 -9.32413e-07 0)
(-1.99224e-09 -9.30671e-07 0)
(-2.02809e-09 -9.28878e-07 0)
(-2.06295e-09 -9.27033e-07 0)
(-2.09682e-09 -9.25137e-07 0)
(-2.12966e-09 -9.2319e-07 0)
(-2.16147e-09 -9.21192e-07 0)
(-2.19224e-09 -9.19142e-07 0)
(-2.22195e-09 -9.17042e-07 0)
(-2.25058e-09 -9.14891e-07 0)
(-2.27813e-09 -9.12689e-07 0)
(-2.30459e-09 -9.10437e-07 0)
(-2.32994e-09 -9.08134e-07 0)
(-2.35417e-09 -9.05782e-07 0)
(-2.37727e-09 -9.0338e-07 0)
(-2.39924e-09 -9.00929e-07 0)
(-2.42007e-09 -8.98429e-07 0)
(-2.43975e-09 -8.95881e-07 0)
(-2.45827e-09 -8.93285e-07 0)
(-2.47563e-09 -8.90642e-07 0)
(-2.49183e-09 -8.87951e-07 0)
(-2.50685e-09 -8.85215e-07 0)
(-2.52071e-09 -8.82433e-07 0)
(-2.53339e-09 -8.79606e-07 0)
(-2.54489e-09 -8.76734e-07 0)
(-2.55522e-09 -8.73819e-07 0)
(-2.56438e-09 -8.70861e-07 0)
(-2.57236e-09 -8.67861e-07 0)
(-2.57918e-09 -8.64819e-07 0)
(-2.58482e-09 -8.61737e-07 0)
(-2.58931e-09 -8.58616e-07 0)
(-2.59263e-09 -8.55456e-07 0)
(-2.59481e-09 -8.52258e-07 0)
(-2.59583e-09 -8.49023e-07 0)
(-2.59573e-09 -8.45754e-07 0)
(-2.59448e-09 -8.42446e-07 0)
(-2.59216e-09 -8.39113e-07 0)
(-2.5885e-09 -8.35705e-07 0)
(-2.58324e-09 -8.31943e-07 0)
(-2.57635e-09 -8.27823e-07 0)
(-2.56781e-09 -8.23631e-07 0)
(-2.55781e-09 -8.19462e-07 0)
(-2.5465e-09 -8.15334e-07 0)
(-2.53396e-09 -8.11231e-07 0)
(-2.52026e-09 -8.07143e-07 0)
(-2.50547e-09 -8.03076e-07 0)
(-2.48964e-09 -7.99034e-07 0)
(-2.47283e-09 -7.95019e-07 0)
(-2.45511e-09 -7.91033e-07 0)
(-2.43653e-09 -7.87075e-07 0)
(-2.41714e-09 -7.83149e-07 0)
(-2.397e-09 -7.79254e-07 0)
(-2.37614e-09 -7.75393e-07 0)
(-2.35461e-09 -7.71566e-07 0)
(-2.33247e-09 -7.67774e-07 0)
(-2.30973e-09 -7.64019e-07 0)
(-2.28646e-09 -7.60301e-07 0)
(-2.26267e-09 -7.56621e-07 0)
(-2.23841e-09 -7.5298e-07 0)
(-2.2137e-09 -7.49379e-07 0)
(-2.18859e-09 -7.45818e-07 0)
(-2.16308e-09 -7.42298e-07 0)
(-2.13722e-09 -7.3882e-07 0)
(-2.11103e-09 -7.35383e-07 0)
(-2.08452e-09 -7.3199e-07 0)
(-2.05773e-09 -7.28639e-07 0)
(-2.03067e-09 -7.25332e-07 0)
(-2.00336e-09 -7.22069e-07 0)
(-1.97581e-09 -7.18851e-07 0)
(-1.94806e-09 -7.15677e-07 0)
(-1.9201e-09 -7.12548e-07 0)
(-1.89196e-09 -7.09465e-07 0)
(-1.86364e-09 -7.06427e-07 0)
(-1.83516e-09 -7.03436e-07 0)
(-1.80654e-09 -7.0049e-07 0)
(-1.77777e-09 -6.97591e-07 0)
(-1.74887e-09 -6.94739e-07 0)
(-1.71984e-09 -6.91933e-07 0)
(-1.6907e-09 -6.89175e-07 0)
(-1.66145e-09 -6.86464e-07 0)
(-1.6321e-09 -6.838e-07 0)
(-1.60265e-09 -6.81183e-07 0)
(-1.5731e-09 -6.78615e-07 0)
(-1.54347e-09 -6.76094e-07 0)
(-1.51375e-09 -6.73621e-07 0)
(-1.48394e-09 -6.71197e-07 0)
(-1.45406e-09 -6.68821e-07 0)
(-1.4241e-09 -6.66493e-07 0)
(-1.39407e-09 -6.64213e-07 0)
(-1.36396e-09 -6.61983e-07 0)
(-1.33378e-09 -6.59801e-07 0)
(-1.30353e-09 -6.57668e-07 0)
(-1.27321e-09 -6.55584e-07 0)
(-1.24282e-09 -6.53549e-07 0)
(-1.21236e-09 -6.51563e-07 0)
(-1.18183e-09 -6.49626e-07 0)
(-1.15124e-09 -6.47739e-07 0)
(-1.12058e-09 -6.45902e-07 0)
(-1.08985e-09 -6.44114e-07 0)
(-1.05905e-09 -6.42376e-07 0)
(-1.02819e-09 -6.40688e-07 0)
(-9.97263e-10 -6.3905e-07 0)
(-9.66267e-10 -6.37461e-07 0)
(-9.35206e-10 -6.35924e-07 0)
(-9.04078e-10 -6.34436e-07 0)
(-8.72885e-10 -6.32999e-07 0)
(-8.41627e-10 -6.31612e-07 0)
(-8.10304e-10 -6.30276e-07 0)
(-7.78918e-10 -6.2899e-07 0)
(-7.4747e-10 -6.27756e-07 0)
(-7.15959e-10 -6.26572e-07 0)
(-6.84388e-10 -6.2544e-07 0)
(-6.52757e-10 -6.24358e-07 0)
(-6.21068e-10 -6.23328e-07 0)
(-5.89323e-10 -6.22349e-07 0)
(-5.57523e-10 -6.21421e-07 0)
(-5.25671e-10 -6.20545e-07 0)
(-4.93767e-10 -6.1972e-07 0)
(-4.61815e-10 -6.18948e-07 0)
(-4.29817e-10 -6.18226e-07 0)
(-3.97775e-10 -6.17557e-07 0)
(-3.65691e-10 -6.1694e-07 0)
(-3.3357e-10 -6.16373e-07 0)
(-3.01413e-10 -6.15863e-07 0)
(-2.69222e-10 -6.15389e-07 0)
(-2.37007e-10 -6.15022e-07 0)
(-2.04747e-10 -6.14522e-07 0)
(-1.72527e-10 -6.14683e-07 0)
(-1.40083e-10 -6.12834e-07 0)
(-1.08312e-10 -6.17618e-07 0)
(-7.4347e-11 -5.98989e-07 0)
(-4.80417e-11 -6.48078e-07 0)
(-2.01527e-11 -5.65999e-07 0)
)
;
    }
    bottomWall
    {
        type            calculated;
        value           nonuniform List<vector> 
449
(
(-48.5274 -0.964034 0)
(-19.7496 -0.0051548 0)
(-14.3423 -0.00113476 0)
(-12.0327 -0.000545486 0)
(-10.6266 -0.000351505 0)
(-9.63278 -0.000256002 0)
(-8.87469 -0.000198492 0)
(-8.27116 -0.000159821 0)
(-7.77572 -0.00013233 0)
(-7.35907 -0.000111982 0)
(-7.00205 -9.63815e-05 0)
(-6.69161 -8.40742e-05 0)
(-6.41845 -7.4156e-05 0)
(-6.17564 -6.60282e-05 0)
(-5.95795 -5.9271e-05 0)
(-5.76129 -5.35813e-05 0)
(-5.58248 -4.87369e-05 0)
(-5.41897 -4.45719e-05 0)
(-5.26867 -4.09603e-05 0)
(-5.1299 -3.78045e-05 0)
(-5.00125 -3.50282e-05 0)
(-4.88154 -3.25703e-05 0)
(-4.76977 -3.03822e-05 0)
(-4.66509 -2.84242e-05 0)
(-4.56679 -2.66639e-05 0)
(-4.47424 -2.50746e-05 0)
(-4.38689 -2.36338e-05 0)
(-4.30427 -2.2323e-05 0)
(-4.22597 -2.11263e-05 0)
(-4.15162 -2.00303e-05 0)
(-4.0809 -1.90237e-05 0)
(-4.01352 -1.80965e-05 0)
(-3.94921 -1.72404e-05 0)
(-3.88776 -1.64478e-05 0)
(-3.82896 -1.57125e-05 0)
(-3.77261 -1.50289e-05 0)
(-3.71856 -1.43919e-05 0)
(-3.66664 -1.37974e-05 0)
(-3.61673 -1.32414e-05 0)
(-3.56868 -1.27206e-05 0)
(-3.5224 -1.22319e-05 0)
(-3.47777 -1.17727e-05 0)
(-3.43469 -1.13405e-05 0)
(-3.39307 -1.09332e-05 0)
(-3.35284 -1.05488e-05 0)
(-3.31392 -1.01856e-05 0)
(-3.27624 -9.84201e-06 0)
(-3.23972 -9.51653e-06 0)
(-3.20432 -9.2079e-06 0)
(-3.16998 -8.91492e-06 0)
(-3.13664 -8.63651e-06 0)
(-3.10425 -8.37169e-06 0)
(-3.07278 -8.11954e-06 0)
(-3.04217 -7.87925e-06 0)
(-3.01239 -7.65006e-06 0)
(-2.9834 -7.43126e-06 0)
(-2.95516 -7.22221e-06 0)
(-2.92765 -7.02232e-06 0)
(-2.90083 -6.83104e-06 0)
(-2.87467 -6.64786e-06 0)
(-2.84915 -6.47233e-06 0)
(-2.82424 -6.30399e-06 0)
(-2.79992 -6.14246e-06 0)
(-2.77616 -5.98735e-06 0)
(-2.75293 -5.83831e-06 0)
(-2.73023 -5.69502e-06 0)
(-2.70803 -5.55718e-06 0)
(-2.68632 -5.42451e-06 0)
(-2.66506 -5.29674e-06 0)
(-2.64426 -5.17361e-06 0)
(-2.62389 -5.05492e-06 0)
(-2.60393 -4.94042e-06 0)
(-2.58438 -4.82993e-06 0)
(-2.56522 -4.72325e-06 0)
(-2.54643 -4.6202e-06 0)
(-2.52801 -4.52061e-06 0)
(-2.50994 -4.42433e-06 0)
(-2.49221 -4.3312e-06 0)
(-2.47481 -4.24108e-06 0)
(-2.45773 -4.15384e-06 0)
(-2.44096 -4.06936e-06 0)
(-2.42449 -3.98751e-06 0)
(-2.40832 -3.90819e-06 0)
(-2.39242 -3.83128e-06 0)
(-2.3768 -3.75669e-06 0)
(-2.36144 -3.68432e-06 0)
(-2.34635 -3.61408e-06 0)
(-2.3315 -3.54589e-06 0)
(-2.3169 -3.47966e-06 0)
(-2.30254 -3.41532e-06 0)
(-2.28841 -3.35279e-06 0)
(-2.2745 -3.292e-06 0)
(-2.26081 -3.23289e-06 0)
(-2.24734 -3.1754e-06 0)
(-2.23407 -3.11946e-06 0)
(-2.221 -3.06501e-06 0)
(-2.20813 -3.01201e-06 0)
(-2.19546 -2.9604e-06 0)
(-2.18296 -2.91013e-06 0)
(-2.17065 -2.86115e-06 0)
(-2.15852 -2.81342e-06 0)
(-2.14657 -2.7669e-06 0)
(-2.13478 -2.72153e-06 0)
(-2.12315 -2.67729e-06 0)
(-2.11169 -2.63414e-06 0)
(-2.10038 -2.59203e-06 0)
(-2.08923 -2.55094e-06 0)
(-2.07823 -2.51083e-06 0)
(-2.06738 -2.47167e-06 0)
(-2.05666 -2.43342e-06 0)
(-2.04609 -2.39607e-06 0)
(-2.03566 -2.35957e-06 0)
(-2.02536 -2.32392e-06 0)
(-2.01519 -2.28906e-06 0)
(-2.00515 -2.255e-06 0)
(-1.99523 -2.22169e-06 0)
(-1.98544 -2.18911e-06 0)
(-1.97577 -2.15725e-06 0)
(-1.96621 -2.12609e-06 0)
(-1.95678 -2.09559e-06 0)
(-1.94745 -2.06575e-06 0)
(-1.93823 -2.03654e-06 0)
(-1.92913 -2.00795e-06 0)
(-1.92013 -1.97995e-06 0)
(-1.91123 -1.95254e-06 0)
(-1.90243 -1.92569e-06 0)
(-1.89374 -1.89938e-06 0)
(-1.88514 -1.87362e-06 0)
(-1.87664 -1.84836e-06 0)
(-1.86824 -1.82362e-06 0)
(-1.85992 -1.79936e-06 0)
(-1.8517 -1.77558e-06 0)
(-1.84357 -1.75227e-06 0)
(-1.83552 -1.72941e-06 0)
(-1.82756 -1.70699e-06 0)
(-1.81969 -1.685e-06 0)
(-1.81189 -1.66342e-06 0)
(-1.80418 -1.64226e-06 0)
(-1.79655 -1.62149e-06 0)
(-1.789 -1.6011e-06 0)
(-1.78152 -1.5811e-06 0)
(-1.77412 -1.56146e-06 0)
(-1.76679 -1.54217e-06 0)
(-1.75954 -1.52324e-06 0)
(-1.75236 -1.50465e-06 0)
(-1.74525 -1.48639e-06 0)
(-1.73821 -1.46846e-06 0)
(-1.73124 -1.45084e-06 0)
(-1.72433 -1.43353e-06 0)
(-1.71749 -1.41652e-06 0)
(-1.71072 -1.39981e-06 0)
(-1.70401 -1.38339e-06 0)
(-1.69736 -1.36724e-06 0)
(-1.69077 -1.35137e-06 0)
(-1.68425 -1.33577e-06 0)
(-1.67778 -1.32043e-06 0)
(-1.67138 -1.30535e-06 0)
(-1.66503 -1.29052e-06 0)
(-1.65874 -1.27593e-06 0)
(-1.6525 -1.26158e-06 0)
(-1.64632 -1.24747e-06 0)
(-1.6402 -1.23358e-06 0)
(-1.63413 -1.21992e-06 0)
(-1.62811 -1.20648e-06 0)
(-1.62214 -1.19325e-06 0)
(-1.61623 -1.18024e-06 0)
(-1.61036 -1.16742e-06 0)
(-1.60455 -1.15482e-06 0)
(-1.59878 -1.14243e-06 0)
(-1.59307 -1.1301e-06 0)
(-1.5874 -1.11841e-06 0)
(-1.58177 -1.10631e-06 0)
(-1.5762 -1.09317e-06 0)
(-1.57099 -1.083e-06 0)
(-1.56609 -1.07477e-06 0)
(-1.56117 -1.06441e-06 0)
(-1.55626 -1.05372e-06 0)
(-1.55134 -1.04371e-06 0)
(-1.54641 -1.03368e-06 0)
(-1.54148 -1.02376e-06 0)
(-1.53654 -1.0139e-06 0)
(-1.5316 -1.00411e-06 0)
(-1.52665 -9.94384e-07 0)
(-1.52169 -9.84713e-07 0)
(-1.51673 -9.75097e-07 0)
(-1.51177 -9.65537e-07 0)
(-1.5068 -9.56033e-07 0)
(-1.50183 -9.46583e-07 0)
(-1.49685 -9.37189e-07 0)
(-1.49187 -9.2785e-07 0)
(-1.48688 -9.18567e-07 0)
(-1.48189 -9.09338e-07 0)
(-1.4769 -9.00166e-07 0)
(-1.47191 -8.9105e-07 0)
(-1.46691 -8.8199e-07 0)
(-1.46191 -8.72986e-07 0)
(-1.4569 -8.64039e-07 0)
(-1.4519 -8.55149e-07 0)
(-1.44689 -8.46317e-07 0)
(-1.44188 -8.37541e-07 0)
(-1.43686 -8.28824e-07 0)
(-1.43185 -8.20164e-07 0)
(-1.42683 -8.11562e-07 0)
(-1.42181 -8.03018e-07 0)
(-1.4168 -7.94532e-07 0)
(-1.41178 -7.86105e-07 0)
(-1.40676 -7.77737e-07 0)
(-1.40174 -7.69427e-07 0)
(-1.39672 -7.61176e-07 0)
(-1.3917 -7.52985e-07 0)
(-1.38668 -7.44852e-07 0)
(-1.38166 -7.36779e-07 0)
(-1.37664 -7.28765e-07 0)
(-1.37162 -7.2081e-07 0)
(-1.3666 -7.12915e-07 0)
(-1.36158 -7.05079e-07 0)
(-1.35657 -6.97303e-07 0)
(-1.35155 -6.89586e-07 0)
(-1.34654 -6.81929e-07 0)
(-1.34153 -6.74332e-07 0)
(-1.33652 -6.66794e-07 0)
(-1.33152 -6.59316e-07 0)
(-1.32651 -6.51897e-07 0)
(-1.32151 -6.44538e-07 0)
(-1.31652 -6.37239e-07 0)
(-1.31152 -6.29999e-07 0)
(-1.30653 -6.22819e-07 0)
(-1.30154 -6.15698e-07 0)
(-1.29655 -6.08636e-07 0)
(-1.29157 -6.01634e-07 0)
(-1.2866 -5.94691e-07 0)
(-1.28162 -5.87807e-07 0)
(-1.27665 -5.80982e-07 0)
(-1.27169 -5.74216e-07 0)
(-1.26673 -5.67509e-07 0)
(-1.26177 -5.6086e-07 0)
(-1.25682 -5.5427e-07 0)
(-1.25188 -5.47738e-07 0)
(-1.24694 -5.41265e-07 0)
(-1.242 -5.3485e-07 0)
(-1.23707 -5.28492e-07 0)
(-1.23215 -5.22193e-07 0)
(-1.22723 -5.15951e-07 0)
(-1.22232 -5.09766e-07 0)
(-1.21741 -5.03639e-07 0)
(-1.21251 -4.97569e-07 0)
(-1.20762 -4.91555e-07 0)
(-1.20274 -4.85599e-07 0)
(-1.19786 -4.79698e-07 0)
(-1.19299 -4.73854e-07 0)
(-1.18812 -4.68066e-07 0)
(-1.18326 -4.62334e-07 0)
(-1.17841 -4.56657e-07 0)
(-1.17357 -4.51036e-07 0)
(-1.16874 -4.45469e-07 0)
(-1.16391 -4.39958e-07 0)
(-1.15909 -4.345e-07 0)
(-1.15428 -4.29098e-07 0)
(-1.14948 -4.23749e-07 0)
(-1.14468 -4.18454e-07 0)
(-1.1399 -4.13212e-07 0)
(-1.13512 -4.08024e-07 0)
(-1.13035 -4.02889e-07 0)
(-1.12559 -3.97806e-07 0)
(-1.12084 -3.92775e-07 0)
(-1.1161 -3.87797e-07 0)
(-1.11137 -3.8287e-07 0)
(-1.10664 -3.77995e-07 0)
(-1.10193 -3.73171e-07 0)
(-1.09723 -3.68398e-07 0)
(-1.09253 -3.63675e-07 0)
(-1.08785 -3.59003e-07 0)
(-1.08318 -3.54381e-07 0)
(-1.07851 -3.49808e-07 0)
(-1.07386 -3.45284e-07 0)
(-1.06922 -3.4081e-07 0)
(-1.06458 -3.36384e-07 0)
(-1.05996 -3.32006e-07 0)
(-1.05535 -3.27676e-07 0)
(-1.05075 -3.23394e-07 0)
(-1.04616 -3.1916e-07 0)
(-1.04158 -3.14972e-07 0)
(-1.03701 -3.10831e-07 0)
(-1.03245 -3.06736e-07 0)
(-1.02791 -3.02687e-07 0)
(-1.02337 -2.98684e-07 0)
(-1.01885 -2.94726e-07 0)
(-1.01434 -2.90813e-07 0)
(-1.00984 -2.86944e-07 0)
(-1.00535 -2.8312e-07 0)
(-1.00087 -2.7934e-07 0)
(-0.99641 -2.75603e-07 0)
(-0.991957 -2.71909e-07 0)
(-0.987517 -2.68259e-07 0)
(-0.983088 -2.6465e-07 0)
(-0.978671 -2.61084e-07 0)
(-0.974267 -2.5756e-07 0)
(-0.969875 -2.54077e-07 0)
(-0.965495 -2.50635e-07 0)
(-0.961127 -2.47234e-07 0)
(-0.956772 -2.43874e-07 0)
(-0.95243 -2.40553e-07 0)
(-0.9481 -2.37272e-07 0)
(-0.943783 -2.34031e-07 0)
(-0.939479 -2.30828e-07 0)
(-0.935187 -2.27665e-07 0)
(-0.930909 -2.24539e-07 0)
(-0.926643 -2.21451e-07 0)
(-0.92239 -2.18401e-07 0)
(-0.918151 -2.15389e-07 0)
(-0.913924 -2.12413e-07 0)
(-0.909711 -2.09473e-07 0)
(-0.90551 -2.0657e-07 0)
(-0.901323 -2.03703e-07 0)
(-0.89715 -2.00871e-07 0)
(-0.892989 -1.98075e-07 0)
(-0.888842 -1.95313e-07 0)
(-0.884708 -1.92586e-07 0)
(-0.880588 -1.89893e-07 0)
(-0.876482 -1.87234e-07 0)
(-0.872388 -1.84608e-07 0)
(-0.868309 -1.82016e-07 0)
(-0.864243 -1.79456e-07 0)
(-0.860191 -1.76929e-07 0)
(-0.856152 -1.74434e-07 0)
(-0.852127 -1.71971e-07 0)
(-0.848116 -1.69539e-07 0)
(-0.844119 -1.67138e-07 0)
(-0.840135 -1.64769e-07 0)
(-0.836165 -1.6243e-07 0)
(-0.832209 -1.60121e-07 0)
(-0.828267 -1.57842e-07 0)
(-0.824339 -1.55592e-07 0)
(-0.820425 -1.53372e-07 0)
(-0.816525 -1.51181e-07 0)
(-0.812639 -1.49018e-07 0)
(-0.808766 -1.46884e-07 0)
(-0.804908 -1.44777e-07 0)
(-0.801064 -1.42699e-07 0)
(-0.797234 -1.40647e-07 0)
(-0.793418 -1.38623e-07 0)
(-0.789616 -1.36626e-07 0)
(-0.785828 -1.34655e-07 0)
(-0.782054 -1.3271e-07 0)
(-0.778294 -1.30791e-07 0)
(-0.774549 -1.28897e-07 0)
(-0.770817 -1.27029e-07 0)
(-0.7671 -1.25185e-07 0)
(-0.763397 -1.23364e-07 0)
(-0.759708 -1.21571e-07 0)
(-0.756033 -1.19795e-07 0)
(-0.752373 -1.18008e-07 0)
(-0.748729 -1.16369e-07 0)
(-0.745092 -1.14742e-07 0)
(-0.741065 -1.12756e-07 0)
(-0.736697 -1.10646e-07 0)
(-0.732409 -1.08746e-07 0)
(-0.72819 -1.06948e-07 0)
(-0.724042 -1.05138e-07 0)
(-0.719964 -1.03364e-07 0)
(-0.715955 -1.01635e-07 0)
(-0.712013 -9.99517e-08 0)
(-0.708136 -9.8314e-08 0)
(-0.704322 -9.67198e-08 0)
(-0.700569 -9.5168e-08 0)
(-0.696876 -9.36571e-08 0)
(-0.693242 -9.21857e-08 0)
(-0.689665 -9.07524e-08 0)
(-0.686142 -8.93559e-08 0)
(-0.682674 -8.79948e-08 0)
(-0.679258 -8.66679e-08 0)
(-0.675894 -8.5374e-08 0)
(-0.672579 -8.4112e-08 0)
(-0.669313 -8.28808e-08 0)
(-0.666095 -8.16793e-08 0)
(-0.662923 -8.05066e-08 0)
(-0.659797 -7.93616e-08 0)
(-0.656715 -7.82436e-08 0)
(-0.653676 -7.71516e-08 0)
(-0.650679 -7.60848e-08 0)
(-0.647723 -7.50423e-08 0)
(-0.644808 -7.40234e-08 0)
(-0.641932 -7.30275e-08 0)
(-0.639095 -7.20536e-08 0)
(-0.636295 -7.11013e-08 0)
(-0.633533 -7.01698e-08 0)
(-0.630806 -6.92585e-08 0)
(-0.628114 -6.83667e-08 0)
(-0.625457 -6.7494e-08 0)
(-0.622834 -6.66397e-08 0)
(-0.620244 -6.58034e-08 0)
(-0.617686 -6.49845e-08 0)
(-0.61516 -6.41824e-08 0)
(-0.612665 -6.33968e-08 0)
(-0.6102 -6.26271e-08 0)
(-0.607766 -6.1873e-08 0)
(-0.60536 -6.1134e-08 0)
(-0.602983 -6.04096e-08 0)
(-0.600634 -5.96995e-08 0)
(-0.598313 -5.90033e-08 0)
(-0.596018 -5.83207e-08 0)
(-0.59375 -5.76512e-08 0)
(-0.591508 -5.69945e-08 0)
(-0.589291 -5.63503e-08 0)
(-0.587099 -5.57183e-08 0)
(-0.584932 -5.50982e-08 0)
(-0.582789 -5.44897e-08 0)
(-0.580669 -5.38924e-08 0)
(-0.578573 -5.33061e-08 0)
(-0.576499 -5.27306e-08 0)
(-0.574448 -5.21656e-08 0)
(-0.572418 -5.16108e-08 0)
(-0.57041 -5.1066e-08 0)
(-0.568423 -5.0531e-08 0)
(-0.566457 -5.00056e-08 0)
(-0.564511 -4.94895e-08 0)
(-0.562585 -4.89825e-08 0)
(-0.560679 -4.84846e-08 0)
(-0.558792 -4.79954e-08 0)
(-0.556924 -4.75148e-08 0)
(-0.555075 -4.70427e-08 0)
(-0.553244 -4.65789e-08 0)
(-0.551431 -4.61233e-08 0)
(-0.549636 -4.56758e-08 0)
(-0.547858 -4.52362e-08 0)
(-0.546097 -4.48045e-08 0)
(-0.544353 -4.43807e-08 0)
(-0.542625 -4.39647e-08 0)
(-0.540913 -4.35565e-08 0)
(-0.539218 -4.31561e-08 0)
(-0.537537 -4.27638e-08 0)
(-0.535872 -4.23796e-08 0)
(-0.534222 -4.20038e-08 0)
(-0.532586 -4.16369e-08 0)
(-0.530965 -4.12796e-08 0)
(-0.529357 -4.09326e-08 0)
(-0.527762 -4.05975e-08 0)
(-0.526181 -4.02754e-08 0)
(-0.524612 -3.99697e-08 0)
(-0.523054 -3.96926e-08 0)
(-0.521506 -3.94141e-08 0)
(-0.519971 -3.91932e-08 0)
(-0.51844 -3.9253e-08 0)
(-0.5169 -3.85755e-08 0)
(-0.515423 -3.77057e-08 0)
(-0.51395 -4.98422e-08 0)
(-0.511523 -1.39215e-08 0)
(-0.512872 -3.67724e-08 0)
(-0.508603 -5.54963e-08 0)
)
;
    }
    symmetry
    {
        type            symmetryPlane;
    }
    frontAndBack
    {
        type            empty;
    }
}


// ************************************************************************* //
