/*--------------------------------*- C++ -*----------------------------------*\
| =========                 |                                                 |
| \\      /  F ield         | OpenFOAM: The Open Source CFD Toolbox           |
|  \\    /   O peration     | Version:  v2012                                 |
|   \\  /    A nd           | Website:  www.openfoam.com                      |
|    \\/     M anipulation  |                                                 |
\*---------------------------------------------------------------------------*/
FoamFile
{
    version     2.0;
    format      ascii;
    class       volScalarField;
    location    "47";
    object      k;
}
// * * * * * * * * * * * * * * * * * * * * * * * * * * * * * * * * * * * * * //

dimensions      [0 2 -2 0 0 0 0];


internalField   nonuniform List<scalar> 
209825
(
0.0010242
0.000933145
0.000856128
0.000789989
0.000733437
0.000685654
0.000645367
0.000611489
0.00058275
0.000558328
0.000537295
0.000519176
0.000503313
0.000489483
0.000477191
0.000466369
0.00045662
0.000447973
0.000440089
0.000433062
0.00042658
0.000420785
0.000415383
0.000410543
0.000405985
0.0004019
0.000398013
0.000394538
0.000391192
0.00038821
0.00038531
0.000382738
0.000380204
0.000377971
0.000375745
0.000373798
0.000371834
0.000370131
0.000368389
0.000366894
0.000365341
0.000364025
0.000362634
0.000361471
0.000360225
0.000359195
0.000358073
0.00035716
0.000356148
0.000355337
0.000354422
0.000353701
0.000352873
0.000352232
0.000351482
0.000350913
0.000350232
0.000349728
0.000349108
0.000348663
0.000348097
0.000347703
0.000347191
0.000346837
0.000346374
0.000346058
0.000345642
0.000345356
0.000344982
0.000344725
0.000344388
0.000344159
0.000343859
0.000343658
0.000343377
0.000343185
0.000342914
0.000342732
0.000342475
0.000342306
0.000342067
0.000341914
0.000341693
0.000341556
0.000341356
0.000341235
0.00034106
0.000340954
0.000340808
0.000340733
0.000340569
0.000340521
0.000340399
0.000343937
0.0114528
0.0124061
0.0010242
0.000933145
0.000856129
0.000789989
0.000733438
0.000685655
0.000645367
0.000611488
0.000582748
0.000558326
0.000537292
0.000519173
0.000503309
0.000489478
0.000477186
0.000466363
0.000456613
0.000447966
0.000440081
0.000433054
0.000426572
0.000420776
0.000415374
0.000410534
0.000405976
0.00040189
0.000398004
0.000394528
0.000391182
0.0003882
0.0003853
0.000382727
0.000380194
0.00037796
0.000375734
0.000373787
0.000371823
0.00037012
0.000368378
0.000366883
0.000365329
0.000364013
0.000362622
0.000361459
0.000360212
0.000359183
0.000358061
0.000357148
0.000356135
0.000355324
0.000354409
0.000353688
0.00035286
0.000352219
0.00035147
0.000350901
0.000350219
0.000349715
0.000349095
0.00034865
0.000348084
0.00034769
0.000347177
0.000346824
0.000346361
0.000346045
0.000345629
0.000345343
0.000344969
0.000344712
0.000344374
0.000344145
0.000343846
0.000343645
0.000343364
0.000343171
0.000342901
0.000342718
0.000342461
0.000342293
0.000342053
0.0003419
0.00034168
0.000341543
0.000341342
0.000341222
0.000341046
0.00034094
0.000340794
0.000340719
0.000340555
0.000340508
0.000340385
0.000343928
0.0114648
0.0124203
0.0010242
0.000933145
0.00085613
0.000789992
0.00073344
0.000685655
0.000645365
0.000611482
0.000582739
0.000558314
0.000537276
0.000519154
0.000503287
0.000489454
0.00047716
0.000466335
0.000456583
0.000447935
0.000440048
0.000433019
0.000426536
0.000420739
0.000415336
0.000410495
0.000405935
0.000401849
0.000397962
0.000394485
0.000391138
0.000388156
0.000385255
0.000382682
0.000380148
0.000377914
0.000375687
0.000373739
0.000371775
0.000370072
0.000368329
0.000366834
0.00036528
0.000363963
0.000362572
0.000361408
0.000360162
0.000359131
0.000358009
0.000357096
0.000356083
0.000355272
0.000354357
0.000353636
0.000352807
0.000352166
0.000351416
0.000350847
0.000350165
0.000349661
0.000349041
0.000348596
0.00034803
0.000347635
0.000347123
0.000346769
0.000346306
0.00034599
0.000345574
0.000345288
0.000344913
0.000344656
0.000344318
0.000344089
0.00034379
0.000343588
0.000343307
0.000343115
0.000342844
0.000342662
0.000342405
0.000342236
0.000341996
0.000341843
0.000341623
0.000341486
0.000341285
0.000341164
0.000340989
0.000340882
0.000340736
0.000340661
0.000340497
0.000340449
0.000340326
0.000343879
0.0114928
0.0124531
0.0010242
0.000933145
0.000856133
0.000789996
0.000733443
0.000685655
0.00064536
0.000611472
0.000582723
0.000558292
0.00053725
0.000519123
0.000503252
0.000489414
0.000477116
0.000466288
0.000456533
0.000447881
0.000439993
0.000432961
0.000426476
0.000420676
0.000415271
0.000410428
0.000405868
0.00040178
0.000397891
0.000394413
0.000391065
0.000388081
0.000385179
0.000382605
0.00038007
0.000377835
0.000375608
0.000373659
0.000371694
0.00036999
0.000368246
0.000366751
0.000365196
0.000363879
0.000362487
0.000361323
0.000360076
0.000359045
0.000357923
0.000357009
0.000355995
0.000355184
0.000354268
0.000353547
0.000352718
0.000352077
0.000351326
0.000350757
0.000350074
0.00034957
0.00034895
0.000348504
0.000347938
0.000347543
0.00034703
0.000346676
0.000346213
0.000345897
0.000345481
0.000345194
0.000344819
0.000344562
0.000344224
0.000343995
0.000343695
0.000343494
0.000343213
0.00034302
0.000342749
0.000342567
0.000342309
0.00034214
0.0003419
0.000341747
0.000341526
0.000341389
0.000341188
0.000341067
0.000340892
0.000340785
0.000340639
0.000340563
0.000340399
0.000340351
0.000340228
0.000343796
0.0115373
0.0125052
0.0010242
0.000933145
0.000856137
0.000790003
0.000733448
0.000685655
0.000645354
0.000611458
0.000582701
0.000558262
0.000537212
0.000519079
0.000503201
0.000489358
0.000477054
0.000466221
0.000456462
0.000447806
0.000439914
0.000432879
0.00042639
0.000420588
0.00041518
0.000410335
0.000405772
0.000401681
0.000397791
0.000394311
0.000390961
0.000387976
0.000385073
0.000382497
0.00037996
0.000377724
0.000375496
0.000373546
0.00037158
0.000369875
0.00036813
0.000366633
0.000365078
0.00036376
0.000362368
0.000361203
0.000359955
0.000358923
0.0003578
0.000356886
0.000355872
0.00035506
0.000354143
0.000353421
0.000352592
0.00035195
0.0003512
0.00035063
0.000349947
0.000349442
0.000348821
0.000348375
0.000347808
0.000347413
0.0003469
0.000346546
0.000346082
0.000345766
0.000345349
0.000345063
0.000344687
0.00034443
0.000344092
0.000343862
0.000343562
0.000343361
0.000343079
0.000342886
0.000342615
0.000342432
0.000342174
0.000342006
0.000341765
0.000341612
0.000341391
0.000341253
0.000341052
0.000340931
0.000340755
0.000340648
0.000340501
0.000340426
0.000340261
0.000340213
0.000340089
0.000343679
0.011599
0.0125775
0.00102419
0.000933145
0.000856142
0.000790011
0.000733455
0.000685656
0.000645346
0.00061144
0.000582673
0.000558224
0.000537164
0.000519021
0.000503135
0.000489285
0.000476974
0.000466135
0.00045637
0.000447709
0.000439811
0.000432772
0.00042628
0.000420474
0.000415062
0.000410213
0.000405647
0.000401555
0.000397661
0.000394179
0.000390827
0.00038784
0.000384934
0.000382356
0.000379818
0.000377581
0.00037535
0.000373399
0.000371432
0.000369725
0.000367979
0.000366482
0.000364925
0.000363606
0.000362213
0.000361047
0.000359798
0.000358766
0.000357641
0.000356726
0.000355711
0.000354899
0.000353981
0.000353259
0.000352429
0.000351787
0.000351035
0.000350465
0.000349781
0.000349276
0.000348654
0.000348208
0.000347641
0.000347245
0.000346732
0.000346377
0.000345913
0.000345596
0.000345179
0.000344892
0.000344516
0.000344258
0.00034392
0.00034369
0.000343389
0.000343188
0.000342906
0.000342713
0.000342441
0.000342258
0.000342
0.000341831
0.00034159
0.000341436
0.000341215
0.000341077
0.000340875
0.000340754
0.000340577
0.00034047
0.000340323
0.000340247
0.000340082
0.000340034
0.000339909
0.000343526
0.0116787
0.0126711
0.00102419
0.000933145
0.000856148
0.00079002
0.000733463
0.000685657
0.000645336
0.000611417
0.000582637
0.000558176
0.000537104
0.000518951
0.000503055
0.000489195
0.000476876
0.000466028
0.000456257
0.000447589
0.000439686
0.000432641
0.000426143
0.000420333
0.000414917
0.000410064
0.000405495
0.000401398
0.000397502
0.000394016
0.000390662
0.000387672
0.000384764
0.000382184
0.000379644
0.000377404
0.000375172
0.000373219
0.000371249
0.000369541
0.000367794
0.000366295
0.000364736
0.000363416
0.000362022
0.000360855
0.000359604
0.000358571
0.000357446
0.00035653
0.000355514
0.0003547
0.000353782
0.000353059
0.000352228
0.000351585
0.000350833
0.000350261
0.000349577
0.000349071
0.000348449
0.000348002
0.000347434
0.000347038
0.000346524
0.000346168
0.000345704
0.000345386
0.000344969
0.000344682
0.000344305
0.000344047
0.000343708
0.000343478
0.000343177
0.000342975
0.000342692
0.000342499
0.000342227
0.000342044
0.000341785
0.000341616
0.000341374
0.00034122
0.000340998
0.00034086
0.000340658
0.000340536
0.000340359
0.000340252
0.000340103
0.000340027
0.000339861
0.000339814
0.000339688
0.000343339
0.0117774
0.0127871
0.00102419
0.000933145
0.000856155
0.000790032
0.000733472
0.000685658
0.000645324
0.000611391
0.000582596
0.000558119
0.000537034
0.000518867
0.000502959
0.000489088
0.000476759
0.000465902
0.000456122
0.000447447
0.000439536
0.000432485
0.000425981
0.000420165
0.000414744
0.000409887
0.000405313
0.000401212
0.000397312
0.000393823
0.000390465
0.000387472
0.000384561
0.000381978
0.000379435
0.000377193
0.000374959
0.000373004
0.000371032
0.000369322
0.000367573
0.000366072
0.000364512
0.00036319
0.000361794
0.000360626
0.000359374
0.00035834
0.000357213
0.000356296
0.000355279
0.000354464
0.000353545
0.000352821
0.000351988
0.000351345
0.000350591
0.000350019
0.000349334
0.000348827
0.000348204
0.000347757
0.000347188
0.000346791
0.000346276
0.00034592
0.000345455
0.000345137
0.000344719
0.000344431
0.000344054
0.000343795
0.000343456
0.000343225
0.000342923
0.000342721
0.000342438
0.000342244
0.000341972
0.000341788
0.000341529
0.000341359
0.000341117
0.000340963
0.00034074
0.000340601
0.000340399
0.000340276
0.000340098
0.000339991
0.000339842
0.000339765
0.000339599
0.000339551
0.000339424
0.000343116
0.0118957
0.0129265
0.00102419
0.000933145
0.000856164
0.000790046
0.000733484
0.000685659
0.000645311
0.000611361
0.000582548
0.000558054
0.000536952
0.00051877
0.000502848
0.000488964
0.000476623
0.000465756
0.000455966
0.000447281
0.000439363
0.000432303
0.000425793
0.00041997
0.000414543
0.00040968
0.000405101
0.000400996
0.000397091
0.000393598
0.000390236
0.000387239
0.000384325
0.000381739
0.000379193
0.000376948
0.000374711
0.000372754
0.00037078
0.000369068
0.000367316
0.000365813
0.000364251
0.000362927
0.00036153
0.00036036
0.000359106
0.00035807
0.000356942
0.000356024
0.000355005
0.000354189
0.000353269
0.000352543
0.00035171
0.000351065
0.000350311
0.000349738
0.000349051
0.000348544
0.00034792
0.000347472
0.000346902
0.000346504
0.000345989
0.000345632
0.000345166
0.000344847
0.000344428
0.000344139
0.000343762
0.000343503
0.000343162
0.000342931
0.000342629
0.000342426
0.000342142
0.000341948
0.000341675
0.000341491
0.000341231
0.000341061
0.000340818
0.000340663
0.00034044
0.000340301
0.000340097
0.000339974
0.000339795
0.000339687
0.000339537
0.000339461
0.000339293
0.000339245
0.000339117
0.000342858
0.0120341
0.0130904
0.00102419
0.000933145
0.000856174
0.000790062
0.000733497
0.000685661
0.000645296
0.000611327
0.000582494
0.00055798
0.00053686
0.00051866
0.000502722
0.000488823
0.000476469
0.000465589
0.000455787
0.000447093
0.000439165
0.000432097
0.000425578
0.000419748
0.000414315
0.000409445
0.00040486
0.000400749
0.000396839
0.000393342
0.000389975
0.000386974
0.000384056
0.000381467
0.000378917
0.000376669
0.000374429
0.000372468
0.000370491
0.000368777
0.000367023
0.000365518
0.000363953
0.000362627
0.000361228
0.000360056
0.0003588
0.000357763
0.000356633
0.000355713
0.000354693
0.000353876
0.000352953
0.000352227
0.000351392
0.000350746
0.00034999
0.000349416
0.000348729
0.00034822
0.000347595
0.000347146
0.000346575
0.000346177
0.00034566
0.000345302
0.000344835
0.000344515
0.000344096
0.000343807
0.000343428
0.000343168
0.000342827
0.000342595
0.000342292
0.000342089
0.000341804
0.00034161
0.000341336
0.000341151
0.000340891
0.00034072
0.000340476
0.000340321
0.000340097
0.000339957
0.000339753
0.000339629
0.000339449
0.000339341
0.00033919
0.000339112
0.000338944
0.000338896
0.000338766
0.000342563
0.012193
0.0132799
0.00102418
0.000933145
0.000856184
0.00079008
0.000733512
0.000685664
0.00064528
0.000611289
0.000582433
0.000557897
0.000536756
0.000518536
0.00050258
0.000488665
0.000476295
0.000465402
0.000455587
0.000446881
0.000438942
0.000431864
0.000425337
0.000419498
0.000414057
0.00040918
0.000404589
0.000400472
0.000396556
0.000393053
0.000389682
0.000386676
0.000383754
0.00038116
0.000378606
0.000376355
0.000374111
0.000372147
0.000370167
0.00036845
0.000366693
0.000365185
0.000363618
0.00036229
0.000360888
0.000359714
0.000358456
0.000357417
0.000356285
0.000355363
0.000354341
0.000353522
0.000352598
0.00035187
0.000351034
0.000350387
0.000349629
0.000349054
0.000348365
0.000347856
0.000347229
0.000346779
0.000346207
0.000345807
0.000345289
0.000344931
0.000344463
0.000344142
0.000343721
0.000343431
0.000343052
0.000342791
0.000342449
0.000342217
0.000341913
0.000341709
0.000341424
0.000341228
0.000340953
0.000340769
0.000340507
0.000340336
0.000340091
0.000339935
0.00033971
0.00033957
0.000339364
0.00033924
0.00033906
0.00033895
0.000338798
0.00033872
0.000338551
0.000338502
0.000338371
0.000342232
0.0123728
0.0134959
0.00102418
0.000933145
0.000856196
0.000790099
0.000733529
0.000685667
0.000645263
0.000611247
0.000582367
0.000557806
0.000536641
0.0005184
0.000502423
0.000488489
0.000476103
0.000465194
0.000455365
0.000446646
0.000438695
0.000431606
0.000425069
0.00041922
0.000413771
0.000408886
0.000404287
0.000400163
0.000396241
0.000392732
0.000389355
0.000386344
0.000383417
0.000380818
0.00037826
0.000376005
0.000373757
0.00037179
0.000369806
0.000368085
0.000366325
0.000364814
0.000363245
0.000361914
0.000360509
0.000359333
0.000358073
0.000357031
0.000355897
0.000354973
0.000353949
0.000353129
0.000352203
0.000351473
0.000350635
0.000349986
0.000349227
0.000348651
0.00034796
0.000347449
0.000346821
0.00034637
0.000345796
0.000345396
0.000344877
0.000344517
0.000344048
0.000343726
0.000343304
0.000343014
0.000342633
0.000342372
0.000342028
0.000341795
0.00034149
0.000341286
0.000341
0.000340804
0.000340528
0.000340342
0.00034008
0.000339908
0.000339662
0.000339506
0.000339279
0.000339139
0.000338932
0.000338807
0.000338625
0.000338515
0.000338361
0.000338283
0.000338113
0.000338064
0.000337931
0.000341864
0.0125735
0.0137394
0.00102418
0.000933145
0.000856209
0.000790121
0.000733548
0.000685671
0.000645245
0.000611202
0.000582294
0.000557706
0.000536515
0.00051825
0.000502251
0.000488296
0.000475892
0.000464965
0.000455121
0.000446387
0.000438423
0.000431322
0.000424773
0.000418915
0.000413455
0.000408562
0.000403954
0.000399823
0.000395894
0.000392378
0.000388995
0.000385978
0.000383045
0.000380442
0.000377879
0.000375619
0.000373366
0.000371395
0.000369408
0.000367683
0.00036592
0.000364406
0.000362833
0.000361499
0.000360091
0.000358912
0.00035765
0.000356606
0.000355469
0.000354543
0.000353517
0.000352694
0.000351767
0.000351035
0.000350195
0.000349545
0.000348784
0.000348206
0.000347513
0.000347001
0.000346371
0.000345919
0.000345344
0.000344942
0.000344421
0.000344061
0.00034359
0.000343268
0.000342844
0.000342553
0.000342171
0.000341909
0.000341564
0.00034133
0.000341024
0.000340819
0.000340532
0.000340335
0.000340058
0.000339872
0.000339608
0.000339436
0.000339189
0.000339032
0.000338804
0.000338663
0.000338455
0.000338329
0.000338146
0.000338035
0.00033788
0.000337801
0.000337629
0.00033758
0.000337446
0.000341459
0.0127948
0.0140115
0.00102417
0.000933145
0.000856224
0.000790145
0.000733569
0.000685676
0.000645225
0.000611154
0.000582215
0.000557598
0.000536379
0.000518086
0.000502064
0.000488086
0.000475661
0.000464715
0.000454854
0.000446104
0.000438126
0.000431012
0.000424451
0.000418581
0.000413111
0.000408207
0.000403591
0.000399451
0.000395514
0.000391991
0.000388601
0.000385578
0.000382639
0.00038003
0.000377462
0.000375196
0.000372939
0.000370964
0.000368972
0.000367244
0.000365476
0.000363959
0.000362382
0.000361045
0.000359634
0.000358452
0.000357187
0.00035614
0.000355001
0.000354073
0.000353044
0.000352219
0.000351289
0.000350556
0.000349713
0.000349061
0.000348298
0.000347719
0.000347024
0.000346511
0.000345879
0.000345425
0.000344848
0.000344445
0.000343923
0.000343561
0.000343089
0.000342765
0.00034234
0.000342048
0.000341665
0.000341401
0.000341055
0.000340821
0.000340513
0.000340307
0.000340019
0.000339822
0.000339544
0.000339357
0.000339092
0.000338918
0.000338671
0.000338513
0.000338284
0.000338141
0.000337932
0.000337806
0.000337621
0.00033751
0.000337352
0.000337273
0.000337099
0.000337051
0.000336914
0.000341017
0.0130362
0.0143129
0.00102417
0.000933145
0.000856239
0.000790172
0.000733592
0.000685682
0.000645205
0.000611102
0.000582131
0.000557481
0.000536231
0.00051791
0.000501861
0.000487859
0.000475411
0.000464445
0.000454565
0.000445798
0.000437804
0.000430675
0.0004241
0.000418218
0.000412737
0.000407823
0.000403196
0.000399047
0.000395101
0.00039157
0.000388173
0.000385143
0.000382197
0.000379582
0.000377008
0.000374737
0.000372475
0.000370495
0.000368498
0.000366766
0.000364994
0.000363472
0.000361892
0.000360552
0.000359137
0.000357952
0.000356683
0.000355634
0.000354492
0.000353561
0.000352529
0.000351702
0.000350769
0.000350034
0.000349189
0.000348535
0.00034777
0.000347189
0.000346492
0.000345977
0.000345343
0.000344888
0.000344309
0.000343905
0.000343381
0.000343017
0.000342544
0.000342219
0.000341792
0.000341498
0.000341114
0.00034085
0.000340502
0.000340267
0.000339958
0.000339751
0.000339461
0.000339263
0.000338984
0.000338796
0.00033853
0.000338356
0.000338107
0.000337948
0.000337717
0.000337574
0.000337363
0.000337236
0.00033705
0.000336938
0.000336778
0.000336698
0.000336523
0.000336474
0.000336336
0.000340536
0.0132969
0.0146446
0.00102417
0.000933144
0.000856256
0.0007902
0.000733617
0.000685689
0.000645184
0.000611047
0.000582041
0.000557356
0.000536073
0.000517721
0.000501643
0.000487615
0.000475143
0.000464154
0.000454254
0.000445468
0.000437457
0.000430311
0.000423723
0.000417826
0.000412333
0.000407407
0.00040277
0.000398611
0.000394656
0.000391116
0.000387711
0.000384673
0.00038172
0.000379098
0.000376518
0.000374241
0.000371974
0.000369988
0.000367986
0.000366249
0.000364472
0.000362947
0.000361362
0.000360018
0.0003586
0.000357411
0.000356139
0.000355087
0.000353941
0.000353007
0.000351973
0.000351143
0.000350208
0.00034947
0.000348622
0.000347966
0.000347199
0.000346615
0.000345917
0.000345399
0.000344764
0.000344307
0.000343726
0.00034332
0.000342794
0.000342429
0.000341954
0.000341627
0.000341199
0.000340904
0.000340518
0.000340253
0.000339904
0.000339667
0.000339357
0.000339149
0.000338858
0.000338659
0.000338379
0.00033819
0.000337923
0.000337747
0.000337497
0.000337336
0.000337105
0.00033696
0.000336748
0.00033662
0.000336432
0.000336319
0.000336158
0.000336076
0.0003359
0.00033585
0.00033571
0.000340017
0.0135757
0.0150073
0.00102416
0.000933143
0.000856273
0.000790231
0.000733645
0.000685698
0.000645163
0.00061099
0.000581946
0.000557223
0.000535905
0.000517519
0.00050141
0.000487353
0.000474855
0.000463842
0.00045392
0.000445114
0.000437084
0.000429922
0.000423317
0.000417406
0.000411899
0.000406961
0.000402313
0.000398143
0.000394178
0.000390628
0.000387214
0.000384168
0.000381208
0.000378578
0.000375991
0.000373708
0.000371434
0.000369443
0.000367435
0.000365693
0.000363912
0.000362382
0.000360792
0.000359444
0.000358022
0.00035683
0.000355553
0.000354498
0.000353349
0.000352412
0.000351374
0.000350542
0.000349603
0.000348863
0.000348013
0.000347354
0.000346584
0.000345999
0.000345297
0.000344778
0.00034414
0.000343681
0.000343098
0.00034269
0.000342163
0.000341796
0.000341319
0.000340991
0.000340561
0.000340265
0.000339877
0.00033961
0.00033926
0.000339022
0.00033871
0.000338501
0.000338209
0.000338009
0.000337727
0.000337537
0.000337268
0.000337092
0.00033684
0.000336679
0.000336445
0.0003363
0.000336086
0.000335956
0.000335767
0.000335653
0.000335489
0.000335407
0.000335228
0.000335179
0.000335037
0.000339458
0.0138708
0.0154015
0.00102416
0.000933143
0.000856292
0.000790264
0.000733676
0.000685708
0.000645141
0.000610929
0.000581846
0.000557083
0.000535726
0.000517304
0.000501163
0.000487074
0.000474548
0.00046351
0.000453564
0.000444736
0.000436686
0.000429505
0.000422884
0.000416957
0.000411436
0.000406484
0.000401823
0.000397642
0.000393666
0.000390106
0.000386683
0.000383628
0.000380659
0.000378022
0.000375427
0.000373137
0.000370857
0.000368859
0.000366846
0.000365098
0.000363311
0.000361776
0.000360182
0.00035883
0.000357403
0.000356207
0.000354926
0.000353867
0.000352714
0.000351774
0.000350733
0.000349898
0.000348956
0.000348213
0.000347359
0.000346699
0.000345925
0.000345338
0.000344634
0.000344113
0.000343472
0.000343011
0.000342426
0.000342016
0.000341486
0.000341118
0.000340639
0.000340309
0.000339877
0.00033958
0.00033919
0.000338922
0.000338569
0.00033833
0.000338017
0.000337807
0.000337513
0.000337312
0.000337028
0.000336838
0.000336567
0.00033639
0.000336136
0.000335973
0.000335738
0.000335592
0.000335376
0.000335245
0.000335054
0.000334939
0.000334773
0.00033469
0.000334509
0.00033446
0.000334315
0.00033886
0.0141801
0.0158278
0.00102415
0.000933142
0.000856312
0.000790299
0.000733708
0.000685719
0.000645119
0.000610867
0.00058174
0.000556935
0.000535538
0.000517077
0.0005009
0.000486779
0.000474223
0.000463156
0.000453186
0.000444334
0.000436263
0.000429062
0.000422423
0.000416479
0.000410942
0.000405976
0.000401302
0.000397108
0.00039312
0.00038955
0.000386116
0.000383052
0.000380074
0.000377429
0.000374826
0.000372529
0.000370241
0.000368237
0.000366217
0.000364464
0.000362671
0.000361131
0.000359531
0.000358174
0.000356742
0.000355542
0.000354257
0.000353194
0.000352037
0.000351094
0.000350048
0.00034921
0.000348265
0.000347519
0.000346662
0.000345999
0.000345222
0.000344632
0.000343925
0.000343402
0.000342759
0.000342296
0.000341708
0.000341296
0.000340764
0.000340394
0.000339913
0.000339581
0.000339147
0.000338848
0.000338456
0.000338187
0.000337832
0.000337592
0.000337277
0.000337066
0.00033677
0.000336568
0.000336282
0.000336091
0.000335818
0.00033564
0.000335384
0.000335221
0.000334983
0.000334836
0.000334618
0.000334486
0.000334292
0.000334176
0.000334008
0.000333924
0.000333741
0.000333691
0.000333545
0.000338221
0.014501
0.0162863
0.00102415
0.000933141
0.000856333
0.000790337
0.000733744
0.000685733
0.000645097
0.000610802
0.00058163
0.000556779
0.000535339
0.000516838
0.000500623
0.000486467
0.000473879
0.000462783
0.000452785
0.000443908
0.000435815
0.000428593
0.000421934
0.000415972
0.000410419
0.000405437
0.000400749
0.000396541
0.000392541
0.00038896
0.000385515
0.00038244
0.000379453
0.000376798
0.000374188
0.000371882
0.000369587
0.000367576
0.000365549
0.000363789
0.00036199
0.000360444
0.000358839
0.000357477
0.00035604
0.000354835
0.000353546
0.000352478
0.000351317
0.00035037
0.000349321
0.000348479
0.00034753
0.000346781
0.000345921
0.000345255
0.000344475
0.000343882
0.000343172
0.000342646
0.000342
0.000341535
0.000340945
0.000340531
0.000339996
0.000339624
0.00033914
0.000338807
0.000338371
0.00033807
0.000337676
0.000337405
0.000337048
0.000336807
0.000336489
0.000336277
0.000335979
0.000335776
0.000335489
0.000335296
0.000335022
0.000334842
0.000334584
0.00033442
0.000334181
0.000334031
0.000333812
0.000333678
0.000333483
0.000333365
0.000333194
0.000333109
0.000332923
0.000332874
0.000332726
0.000337541
0.0148303
0.0167768
0.00102414
0.000933139
0.000856355
0.000790376
0.000733782
0.000685748
0.000645076
0.000610735
0.000581516
0.000556617
0.000535131
0.000516586
0.000500331
0.000486138
0.000473516
0.000462388
0.000452362
0.000443459
0.000435341
0.000428097
0.000421417
0.000415437
0.000409866
0.000404867
0.000400164
0.000395942
0.000391929
0.000388334
0.000384878
0.000381793
0.000378795
0.000376131
0.000373511
0.000371198
0.000368894
0.000366875
0.000364841
0.000363075
0.000361269
0.000359717
0.000358106
0.000356739
0.000355296
0.000354086
0.000352792
0.00035172
0.000350554
0.000349603
0.00034855
0.000347704
0.000346751
0.000345999
0.000345135
0.000344466
0.000343682
0.000343087
0.000342374
0.000341845
0.000341196
0.000340728
0.000340135
0.000339719
0.000339182
0.000338808
0.000338321
0.000337986
0.000337548
0.000337245
0.000336848
0.000336576
0.000336217
0.000335974
0.000335654
0.000335441
0.000335141
0.000334937
0.000334648
0.000334453
0.000334177
0.000333996
0.000333736
0.00033357
0.000333329
0.000333178
0.000332956
0.000332822
0.000332624
0.000332505
0.000332331
0.000332245
0.000332057
0.000332007
0.000331857
0.000336818
0.0151643
0.0172988
0.00102414
0.000933137
0.000856378
0.000790419
0.000733823
0.000685766
0.000645055
0.000610667
0.000581397
0.000556447
0.000534913
0.000516323
0.000500026
0.000485793
0.000473135
0.000461974
0.000451918
0.000442986
0.000434843
0.000427574
0.000420873
0.000414872
0.000409282
0.000404266
0.000399546
0.00039531
0.000391282
0.000387675
0.000384206
0.000381109
0.000378101
0.000375427
0.000372797
0.000370475
0.000368163
0.000366136
0.000364094
0.00036232
0.000360507
0.000358949
0.000357332
0.000355958
0.00035451
0.000353295
0.000351995
0.000350919
0.000349748
0.000348793
0.000347735
0.000346885
0.000345928
0.000345172
0.000344304
0.000343632
0.000342845
0.000342246
0.00034153
0.000340999
0.000340346
0.000339876
0.000339279
0.000338861
0.000338321
0.000337944
0.000337455
0.000337118
0.000336677
0.000336372
0.000335973
0.000335699
0.000335338
0.000335093
0.000334772
0.000334557
0.000334255
0.000334049
0.000333758
0.000333562
0.000333284
0.000333102
0.000332839
0.000332672
0.000332428
0.000332276
0.000332052
0.000331916
0.000331715
0.000331595
0.000331418
0.000331331
0.00033114
0.00033109
0.000330938
0.000336052
0.0154986
0.0178512
0.00102413
0.000933135
0.000856402
0.000790463
0.000733867
0.000685786
0.000645035
0.000610598
0.000581275
0.000556272
0.000534687
0.000516048
0.000499706
0.000485432
0.000472736
0.00046154
0.000451451
0.00044249
0.000434319
0.000427026
0.000420301
0.000414278
0.000408669
0.000403634
0.000398897
0.000394644
0.000390602
0.000386981
0.000383499
0.00038039
0.00037737
0.000374685
0.000372045
0.000369713
0.000367392
0.000365357
0.000363307
0.000361525
0.000359705
0.00035814
0.000356516
0.000355136
0.000353682
0.000352461
0.000351156
0.000350074
0.000348898
0.000347938
0.000346875
0.000346022
0.00034506
0.000344301
0.000343428
0.000342753
0.000341961
0.00034136
0.00034064
0.000340106
0.000339449
0.000338976
0.000338377
0.000337956
0.000337413
0.000337034
0.000336542
0.000336202
0.000335759
0.000335452
0.00033505
0.000334774
0.000334411
0.000334164
0.00033384
0.000333624
0.00033332
0.000333113
0.000332819
0.000332622
0.000332342
0.000332158
0.000331893
0.000331725
0.000331478
0.000331325
0.000331098
0.00033096
0.000330757
0.000330635
0.000330455
0.000330367
0.000330173
0.000330123
0.000329969
0.000335242
0.0158283
0.0184324
0.00102412
0.000933133
0.000856426
0.00079051
0.000733914
0.000685809
0.000645016
0.000610527
0.000581149
0.00055609
0.000534452
0.000515762
0.000499374
0.000485055
0.00047232
0.000461086
0.000450964
0.000441971
0.000433771
0.000426451
0.000419702
0.000413656
0.000408026
0.000402972
0.000398217
0.000393947
0.000389889
0.000386252
0.000382757
0.000379635
0.000376603
0.000373906
0.000371256
0.000368913
0.000366583
0.000364538
0.00036248
0.00036069
0.000358862
0.00035729
0.000355658
0.000354272
0.000352811
0.000351585
0.000350273
0.000349187
0.000348005
0.00034704
0.000345972
0.000345115
0.000344148
0.000343384
0.000342508
0.000341828
0.000341033
0.000340428
0.000339703
0.000339167
0.000338506
0.000338031
0.000337428
0.000337004
0.000336458
0.000336077
0.000335581
0.000335239
0.000334793
0.000334484
0.00033408
0.000333802
0.000333435
0.000333187
0.000332861
0.000332643
0.000332336
0.000332128
0.000331832
0.000331633
0.00033135
0.000331165
0.000330898
0.000330728
0.000330479
0.000330324
0.000330094
0.000329955
0.000329748
0.000329626
0.000329442
0.000329352
0.000329155
0.000329105
0.00032895
0.000334385
0.0161479
0.0190398
0.00102412
0.00093313
0.000856452
0.00079056
0.000733965
0.000685834
0.000644999
0.000610456
0.00058102
0.000555903
0.000534209
0.000515466
0.000499028
0.000484663
0.000471885
0.000460613
0.000450455
0.000441428
0.000433199
0.00042585
0.000419076
0.000413006
0.000407353
0.000402278
0.000397504
0.000393216
0.000389141
0.00038549
0.00038198
0.000378844
0.000375799
0.00037309
0.000370428
0.000368075
0.000365734
0.00036368
0.000361612
0.000359814
0.000357978
0.000356398
0.000354759
0.000353366
0.000351898
0.000350666
0.000349348
0.000348255
0.000347068
0.000346098
0.000345024
0.000344162
0.00034319
0.000342423
0.000341541
0.000340858
0.000340058
0.00033945
0.000338721
0.000338181
0.000337517
0.000337038
0.000336432
0.000336005
0.000335455
0.000335071
0.000334573
0.000334229
0.000333779
0.000333468
0.000333061
0.000332781
0.000332411
0.000332162
0.000331832
0.000331613
0.000331303
0.000331093
0.000330795
0.000330595
0.00033031
0.000330123
0.000329853
0.000329681
0.000329429
0.000329273
0.00032904
0.000328899
0.00032869
0.000328566
0.000328379
0.000328287
0.000328087
0.000328037
0.00032788
0.000333481
0.0164512
0.0196702
0.00102411
0.000933127
0.000856479
0.000790611
0.000734018
0.000685862
0.000644983
0.000610384
0.000580889
0.000555711
0.000533958
0.000515159
0.000498669
0.000484256
0.000471434
0.00046012
0.000449925
0.000440864
0.000432602
0.000425224
0.000418422
0.000412327
0.000406651
0.000401554
0.00039676
0.000392453
0.000388361
0.000384693
0.000381167
0.000378017
0.000374958
0.000372237
0.000369563
0.000367199
0.000364847
0.000362783
0.000360705
0.000358898
0.000357053
0.000355465
0.000353818
0.000352418
0.000350943
0.000349704
0.000348379
0.000347281
0.000346087
0.000345112
0.000344032
0.000343165
0.000342188
0.000341416
0.00034053
0.000339842
0.000339038
0.000338426
0.000337693
0.000337149
0.000336481
0.000335999