/*--------------------------------*- C++ -*----------------------------------*\
| =========                 |                                                 |
| \\      /  F ield         | OpenFOAM: The Open Source CFD Toolbox           |
|  \\    /   O peration     | Version:  v2012                                 |
|   \\  /    A nd           | Website:  www.openfoam.com                      |
|    \\/     M anipulation  |                                                 |
\*---------------------------------------------------------------------------*/
FoamFile
{
    version     2.0;
    format      ascii;
    class       volScalarField;
    location    "47";
    object      nut;
}
// * * * * * * * * * * * * * * * * * * * * * * * * * * * * * * * * * * * * * //

dimensions      [0 2 -1 0 0 0 0];


internalField   nonuniform List<scalar> 
209825
(
1.24391e-07
1.23656e-07
1.20796e-07
1.15637e-07
1.09152e-07
1.0238e-07
9.59105e-08
9.00391e-08
8.48065e-08
8.02148e-08
7.61726e-08
7.26403e-08
6.95167e-08
6.6777e-08
6.43327e-08
6.21762e-08
6.0232e-08
5.85077e-08
5.6937e-08
5.55386e-08
5.42514e-08
5.31021e-08
5.20338e-08
5.10782e-08
5.01806e-08
4.93772e-08
4.86152e-08
4.79347e-08
4.72811e-08
4.66993e-08
4.61352e-08
4.5635e-08
4.51435e-08
4.47102e-08
4.42795e-08
4.39027e-08
4.35231e-08
4.3194e-08
4.28581e-08
4.25697e-08
4.22705e-08
4.20167e-08
4.17486e-08
4.15238e-08
4.12837e-08
4.10851e-08
4.08682e-08
4.06916e-08
4.04962e-08
4.03396e-08
4.01606e-08
4.00226e-08
3.98605e-08
3.97382e-08
3.95892e-08
3.94783e-08
3.93463e-08
3.92465e-08
3.91243e-08
3.90387e-08
3.89222e-08
3.88456e-08
3.87396e-08
3.86702e-08
3.85726e-08
3.85107e-08
3.84209e-08
3.83592e-08
3.82802e-08
3.82239e-08
3.8151e-08
3.80972e-08
3.80309e-08
3.79794e-08
3.79174e-08
3.78655e-08
3.78041e-08
3.77531e-08
3.76931e-08
3.76441e-08
3.75864e-08
3.75389e-08
3.74836e-08
3.74368e-08
3.7384e-08
3.73373e-08
3.7288e-08
3.72402e-08
3.71953e-08
3.71478e-08
3.7098e-08
3.70421e-08
3.69992e-08
3.73241e-08
3.8455e-06
2.46886e-08
1.24391e-07
1.23656e-07
1.20797e-07
1.15638e-07
1.09153e-07
1.02382e-07
9.59128e-08
9.00415e-08
8.48089e-08
8.02171e-08
7.61749e-08
7.26425e-08
6.95187e-08
6.67789e-08
6.43345e-08
6.21778e-08
6.02335e-08
5.85091e-08
5.69383e-08
5.55399e-08
5.42525e-08
5.31031e-08
5.20348e-08
5.1079e-08
5.01814e-08
4.9378e-08
4.86159e-08
4.79354e-08
4.72817e-08
4.66998e-08
4.61357e-08
4.56354e-08
4.51439e-08
4.47105e-08
4.42798e-08
4.3903e-08
4.35234e-08
4.31943e-08
4.28583e-08
4.25699e-08
4.22707e-08
4.20169e-08
4.17487e-08
4.15239e-08
4.12838e-08
4.10852e-08
4.08682e-08
4.06916e-08
4.04962e-08
4.03396e-08
4.01606e-08
4.00225e-08
3.98604e-08
3.97381e-08
3.95891e-08
3.94782e-08
3.93462e-08
3.92464e-08
3.91242e-08
3.90386e-08
3.89221e-08
3.88455e-08
3.87394e-08
3.86701e-08
3.85724e-08
3.85106e-08
3.84207e-08
3.8359e-08
3.828e-08
3.82236e-08
3.81508e-08
3.8097e-08
3.80307e-08
3.79792e-08
3.79171e-08
3.78653e-08
3.78038e-08
3.77529e-08
3.76928e-08
3.76438e-08
3.75861e-08
3.75386e-08
3.74833e-08
3.74365e-08
3.73837e-08
3.73371e-08
3.72877e-08
3.72399e-08
3.7195e-08
3.71474e-08
3.70977e-08
3.70418e-08
3.69989e-08
3.73241e-08
3.84648e-06
2.48914e-08
1.2439e-07
1.23656e-07
1.20799e-07
1.15643e-07
1.09161e-07
1.02391e-07
9.59226e-08
9.00515e-08
8.48187e-08
8.02265e-08
7.61838e-08
7.26508e-08
6.95265e-08
6.67861e-08
6.43412e-08
6.2184e-08
6.02392e-08
5.85144e-08
5.69432e-08
5.55444e-08
5.42567e-08
5.3107e-08
5.20383e-08
5.10823e-08
5.01844e-08
4.93807e-08
4.86184e-08
4.79377e-08
4.72839e-08
4.67018e-08
4.61375e-08
4.56371e-08
4.51454e-08
4.47119e-08
4.42811e-08
4.39041e-08
4.35243e-08
4.31952e-08
4.28591e-08
4.25705e-08
4.22713e-08
4.20174e-08
4.17491e-08
4.15242e-08
4.1284e-08
4.10854e-08
4.08683e-08
4.06916e-08
4.04962e-08
4.03395e-08
4.01605e-08
4.00223e-08
3.98602e-08
3.97379e-08
3.95888e-08
3.94778e-08
3.93457e-08
3.9246e-08
3.91237e-08
3.9038e-08
3.89215e-08
3.88449e-08
3.87387e-08
3.86694e-08
3.85717e-08
3.85098e-08
3.84199e-08
3.83581e-08
3.82792e-08
3.82228e-08
3.81499e-08
3.80961e-08
3.80298e-08
3.79783e-08
3.79162e-08
3.78643e-08
3.78028e-08
3.77519e-08
3.76918e-08
3.76428e-08
3.75851e-08
3.75376e-08
3.74822e-08
3.74354e-08
3.73826e-08
3.73359e-08
3.72865e-08
3.72387e-08
3.71937e-08
3.71462e-08
3.70964e-08
3.70406e-08
3.69976e-08
3.73236e-08
3.84974e-06
2.51966e-08
1.2439e-07
1.23656e-07
1.20803e-07
1.15651e-07
1.09173e-07
1.02406e-07
9.59391e-08
9.00682e-08
8.48352e-08
8.02423e-08
7.61987e-08
7.26649e-08
6.95396e-08
6.67983e-08
6.43525e-08
6.21945e-08
6.02489e-08
5.85233e-08
5.69514e-08
5.5552e-08
5.42637e-08
5.31135e-08
5.20443e-08
5.10878e-08
5.01895e-08
4.93854e-08
4.86227e-08
4.79417e-08
4.72875e-08
4.67051e-08
4.61405e-08
4.56398e-08
4.51479e-08
4.47142e-08
4.42831e-08
4.3906e-08
4.3526e-08
4.31966e-08
4.28604e-08
4.25717e-08
4.22722e-08
4.20182e-08
4.17498e-08
4.15248e-08
4.12845e-08
4.10857e-08
4.08686e-08
4.06917e-08
4.04962e-08
4.03394e-08
4.01603e-08
4.00221e-08
3.98598e-08
3.97374e-08
3.95883e-08
3.94772e-08
3.9345e-08
3.92452e-08
3.91228e-08
3.90371e-08
3.89206e-08
3.88439e-08
3.87377e-08
3.86683e-08
3.85705e-08
3.85086e-08
3.84186e-08
3.83568e-08
3.82778e-08
3.82214e-08
3.81485e-08
3.80946e-08
3.80283e-08
3.79768e-08
3.79146e-08
3.78628e-08
3.78012e-08
3.77503e-08
3.76902e-08
3.76411e-08
3.75833e-08
3.75358e-08
3.74804e-08
3.74336e-08
3.73808e-08
3.7334e-08
3.72846e-08
3.72368e-08
3.71918e-08
3.71442e-08
3.70944e-08
3.70385e-08
3.69955e-08
3.73227e-08
3.85508e-06
2.5574e-08
1.24389e-07
1.23656e-07
1.20808e-07
1.15663e-07
1.09191e-07
1.02428e-07
9.59624e-08
9.00919e-08
8.48584e-08
8.02647e-08
7.62199e-08
7.26847e-08
6.95582e-08
6.68156e-08
6.43685e-08
6.22093e-08
6.02626e-08
5.8536e-08
5.69631e-08
5.55628e-08
5.42737e-08
5.31227e-08
5.20528e-08
5.10956e-08
5.01967e-08
4.9392e-08
4.86288e-08
4.79473e-08
4.72927e-08
4.67099e-08
4.61448e-08
4.56438e-08
4.51515e-08
4.47174e-08
4.42861e-08
4.39086e-08
4.35284e-08
4.31988e-08
4.28623e-08
4.25733e-08
4.22737e-08
4.20194e-08
4.17508e-08
4.15256e-08
4.12851e-08
4.10862e-08
4.08689e-08
4.06919e-08
4.04962e-08
4.03393e-08
4.016e-08
4.00217e-08
3.98593e-08
3.97368e-08
3.95875e-08
3.94764e-08
3.93441e-08
3.92442e-08
3.91217e-08
3.90359e-08
3.89193e-08
3.88425e-08
3.87362e-08
3.86667e-08
3.85689e-08
3.85069e-08
3.84169e-08
3.8355e-08
3.8276e-08
3.82195e-08
3.81466e-08
3.80927e-08
3.80262e-08
3.79747e-08
3.79125e-08
3.78606e-08
3.7799e-08
3.7748e-08
3.76879e-08
3.76388e-08
3.7581e-08
3.75334e-08
3.74779e-08
3.74311e-08
3.73782e-08
3.73314e-08
3.7282e-08
3.72341e-08
3.7189e-08
3.71415e-08
3.70916e-08
3.70357e-08
3.69926e-08
3.73214e-08
3.86254e-06
2.60134e-08
1.24388e-07
1.23656e-07
1.20815e-07
1.15679e-07
1.09215e-07
1.02456e-07
9.59926e-08
9.01227e-08
8.48887e-08
8.02937e-08
7.62474e-08
7.27106e-08
6.95823e-08
6.6838e-08
6.43893e-08
6.22285e-08
6.02804e-08
5.85524e-08
5.69783e-08
5.55768e-08
5.42867e-08
5.31347e-08
5.20639e-08
5.11058e-08
5.02061e-08
4.94007e-08
4.86368e-08
4.79546e-08
4.72994e-08
4.6716e-08
4.61505e-08
4.5649e-08
4.51562e-08
4.47217e-08
4.429e-08
4.39121e-08
4.35316e-08
4.32016e-08
4.28648e-08
4.25755e-08
4.22756e-08
4.20211e-08
4.17522e-08
4.15268e-08
4.1286e-08
4.10869e-08
4.08694e-08
4.06922e-08
4.04963e-08
4.03392e-08
4.01598e-08
4.00213e-08
3.98587e-08
3.97361e-08
3.95867e-08
3.94754e-08
3.93429e-08
3.92429e-08
3.91203e-08
3.90344e-08
3.89176e-08
3.88407e-08
3.87344e-08
3.86648e-08
3.85668e-08
3.85048e-08
3.84147e-08
3.83528e-08
3.82736e-08
3.8217e-08
3.81441e-08
3.80901e-08
3.80236e-08
3.79721e-08
3.79098e-08
3.78578e-08
3.77962e-08
3.77452e-08
3.76849e-08
3.76358e-08
3.75779e-08
3.75303e-08
3.74748e-08
3.74279e-08
3.73749e-08
3.73281e-08
3.72786e-08
3.72307e-08
3.71855e-08
3.7138e-08
3.7088e-08
3.70321e-08
3.69889e-08
3.73198e-08
3.87214e-06
2.65121e-08
1.24386e-07
1.23656e-07
1.20824e-07
1.15699e-07
1.09243e-07
1.0249e-07
9.60299e-08
9.01607e-08
8.4926e-08
8.03296e-08
7.62814e-08
7.27425e-08
6.9612e-08
6.68657e-08
6.4415e-08
6.22523e-08
6.03024e-08
5.85728e-08
5.69972e-08
5.55942e-08
5.43027e-08
5.31495e-08
5.20776e-08
5.11185e-08
5.02178e-08
4.94115e-08
4.86467e-08
4.79637e-08
4.73078e-08
4.67237e-08
4.61575e-08
4.56554e-08
4.51621e-08
4.47271e-08
4.42948e-08
4.39165e-08
4.35355e-08
4.32051e-08
4.28679e-08
4.25783e-08
4.2278e-08
4.20232e-08
4.1754e-08
4.15282e-08
4.12872e-08
4.10878e-08
4.087e-08
4.06926e-08
4.04964e-08
4.03392e-08
4.01595e-08
4.00208e-08
3.9858e-08
3.97352e-08
3.95856e-08
3.94742e-08
3.93415e-08
3.92414e-08
3.91186e-08
3.90326e-08
3.89157e-08
3.88386e-08
3.87321e-08
3.86624e-08
3.85644e-08
3.85022e-08
3.8412e-08
3.835e-08
3.82706e-08
3.8214e-08
3.8141e-08
3.8087e-08
3.80204e-08
3.79689e-08
3.79064e-08
3.78545e-08
3.77928e-08
3.77417e-08
3.76814e-08
3.76322e-08
3.75742e-08
3.75265e-08
3.74709e-08
3.7424e-08
3.73709e-08
3.73241e-08
3.72744e-08
3.72265e-08
3.71811e-08
3.71336e-08
3.70836e-08
3.70277e-08
3.69843e-08
3.73179e-08
3.88389e-06
2.70724e-08
1.24385e-07
1.23656e-07
1.20834e-07
1.15722e-07
1.09277e-07
1.02531e-07
9.60744e-08
9.0206e-08
8.49706e-08
8.03724e-08
7.6322e-08
7.27806e-08
6.96477e-08
6.68988e-08
6.44457e-08
6.22808e-08
6.03288e-08
5.85972e-08
5.70197e-08
5.56151e-08
5.4322e-08
5.31673e-08
5.2094e-08
5.11336e-08
5.02318e-08
4.94244e-08
4.86586e-08
4.79747e-08
4.73178e-08
4.6733e-08
4.6166e-08
4.56632e-08
4.51692e-08
4.47335e-08
4.43007e-08
4.39218e-08
4.35402e-08
4.32094e-08
4.28717e-08
4.25817e-08
4.22809e-08
4.20257e-08
4.17561e-08
4.153e-08
4.12886e-08
4.10889e-08
4.08708e-08
4.06932e-08
4.04967e-08
4.03392e-08
4.01592e-08
4.00203e-08
3.98573e-08
3.97342e-08
3.95844e-08
3.94728e-08
3.93399e-08
3.92396e-08
3.91166e-08
3.90304e-08
3.89133e-08
3.88362e-08
3.87295e-08
3.86597e-08
3.85614e-08
3.84991e-08
3.84088e-08
3.83467e-08
3.82672e-08
3.82105e-08
3.81374e-08
3.80834e-08
3.80166e-08
3.79652e-08
3.79025e-08
3.78505e-08
3.77887e-08
3.77375e-08
3.76771e-08
3.76279e-08
3.75697e-08
3.7522e-08
3.74663e-08
3.74193e-08
3.73661e-08
3.73193e-08
3.72694e-08
3.72215e-08
3.7176e-08
3.71285e-08
3.70783e-08
3.70225e-08
3.69789e-08
3.73157e-08
3.89778e-06
2.76996e-08
1.24383e-07
1.23656e-07
1.20845e-07
1.15749e-07
1.09317e-07
1.02579e-07
9.61262e-08
9.02588e-08
8.50225e-08
8.04224e-08
7.63694e-08
7.28251e-08
6.96893e-08
6.69375e-08
6.44816e-08
6.23141e-08
6.03596e-08
5.86257e-08
5.70461e-08
5.56394e-08
5.43445e-08
5.31881e-08
5.21132e-08
5.11514e-08
5.02481e-08
4.94395e-08
4.86725e-08
4.79875e-08
4.73296e-08
4.67438e-08
4.61759e-08
4.56723e-08
4.51775e-08
4.47411e-08
4.43075e-08
4.39281e-08
4.35459e-08
4.32144e-08
4.28762e-08
4.25856e-08
4.22844e-08
4.20287e-08
4.17586e-08
4.15322e-08
4.12904e-08
4.10903e-08
4.08718e-08
4.06938e-08
4.0497e-08
4.03392e-08
4.01589e-08
4.00198e-08
3.98564e-08
3.97332e-08
3.95831e-08
3.94712e-08
3.93381e-08
3.92376e-08
3.91143e-08
3.9028e-08
3.89107e-08
3.88334e-08
3.87265e-08
3.86565e-08
3.85581e-08
3.84956e-08
3.84052e-08
3.83429e-08
3.82632e-08
3.82064e-08
3.81333e-08
3.80792e-08
3.80123e-08
3.79608e-08
3.78979e-08
3.78459e-08
3.7784e-08
3.77327e-08
3.76722e-08
3.76229e-08
3.75646e-08
3.75169e-08
3.74609e-08
3.7414e-08
3.73606e-08
3.73137e-08
3.72637e-08
3.72158e-08
3.71701e-08
3.71226e-08
3.70722e-08
3.70165e-08
3.69726e-08
3.73132e-08
3.91376e-06
2.84021e-08
1.24381e-07
1.23656e-07
1.20858e-07
1.15779e-07
1.09362e-07
1.02633e-07
9.61854e-08
9.03193e-08
8.5082e-08
8.04796e-08
7.64237e-08
7.28762e-08
6.9737e-08
6.69819e-08
6.45229e-08
6.23523e-08
6.0395e-08
5.86585e-08
5.70764e-08
5.56674e-08
5.43704e-08
5.3212e-08
5.21353e-08
5.11718e-08
5.0267e-08
4.94569e-08
4.86886e-08
4.80023e-08
4.73432e-08
4.67563e-08
4.61874e-08
4.56828e-08
4.51871e-08
4.47499e-08
4.43155e-08
4.39353e-08
4.35523e-08
4.32203e-08
4.28813e-08
4.25902e-08
4.22884e-08
4.20322e-08
4.17616e-08
4.15347e-08
4.12924e-08
4.1092e-08
4.0873e-08
4.06947e-08
4.04974e-08
4.03393e-08
4.01586e-08
4.00192e-08
3.98555e-08
3.9732e-08
3.95816e-08
3.94695e-08
3.9336e-08
3.92354e-08
3.91117e-08
3.90253e-08
3.89077e-08
3.88302e-08
3.87231e-08
3.86529e-08
3.85543e-08
3.84916e-08
3.84011e-08
3.83386e-08
3.82587e-08
3.82018e-08
3.81286e-08
3.80744e-08
3.80073e-08
3.79558e-08
3.78928e-08
3.78407e-08
3.77786e-08
3.77273e-08
3.76666e-08
3.76172e-08
3.75588e-08
3.7511e-08
3.74549e-08
3.74079e-08
3.73543e-08
3.73074e-08
3.72572e-08
3.72092e-08
3.71633e-08
3.71158e-08
3.70653e-08
3.70096e-08
3.69655e-08
3.73104e-08
3.93178e-06
2.91905e-08
1.24378e-07
1.23656e-07
1.20873e-07
1.15813e-07
1.09413e-07
1.02695e-07
9.62521e-08
9.03875e-08
8.51492e-08
8.05443e-08
7.64851e-08
7.29339e-08
6.9791e-08
6.70321e-08
6.45696e-08
6.23956e-08
6.04351e-08
5.86956e-08
5.71107e-08
5.56992e-08
5.43998e-08
5.32392e-08
5.21604e-08
5.1195e-08
5.02884e-08
4.94766e-08
4.87068e-08
4.80191e-08
4.73587e-08
4.67706e-08
4.62005e-08
4.56948e-08
4.51981e-08
4.47599e-08
4.43246e-08
4.39435e-08
4.35598e-08
4.3227e-08
4.28873e-08
4.25955e-08
4.2293e-08
4.20363e-08
4.17651e-08
4.15377e-08
4.12948e-08
4.10939e-08
4.08744e-08
4.06957e-08
4.0498e-08
4.03395e-08
4.01584e-08
4.00186e-08
3.98545e-08
3.97307e-08
3.958e-08
3.94676e-08
3.93338e-08
3.92329e-08
3.91089e-08
3.90222e-08
3.89044e-08
3.88266e-08
3.87193e-08
3.86489e-08
3.85501e-08
3.84872e-08
3.83965e-08
3.83338e-08
3.82537e-08
3.81967e-08
3.81233e-08
3.80691e-08
3.80018e-08
3.79503e-08
3.7887e-08
3.78349e-08
3.77726e-08
3.77212e-08
3.76604e-08
3.76109e-08
3.75523e-08
3.75044e-08
3.74481e-08
3.7401e-08
3.73472e-08
3.73002e-08
3.72499e-08
3.72019e-08
3.71557e-08
3.71082e-08
3.70576e-08
3.70018e-08
3.69575e-08
3.73074e-08
3.95175e-06
3.00773e-08
1.24376e-07
1.23656e-07
1.2089e-07
1.15851e-07
1.09469e-07
1.02763e-07
9.63266e-08
9.04636e-08
8.52242e-08
8.06165e-08
7.65538e-08
7.29985e-08
6.98514e-08
6.70884e-08
6.46219e-08
6.24441e-08
6.04801e-08
5.87372e-08
5.71492e-08
5.57348e-08
5.44327e-08
5.32696e-08
5.21886e-08
5.1221e-08
5.03125e-08
4.94989e-08
4.87273e-08
4.8038e-08
4.73761e-08
4.67866e-08
4.62152e-08
4.57083e-08
4.52104e-08
4.47712e-08
4.43348e-08
4.39528e-08
4.35682e-08
4.32345e-08
4.2894e-08
4.26015e-08
4.22983e-08
4.20409e-08
4.1769e-08
4.1541e-08
4.12976e-08
4.10961e-08
4.08761e-08
4.06969e-08
4.04987e-08
4.03398e-08
4.01582e-08
4.0018e-08
3.98535e-08
3.97293e-08
3.95782e-08
3.94655e-08
3.93313e-08
3.92301e-08
3.91058e-08
3.90189e-08
3.89007e-08
3.88227e-08
3.87151e-08
3.86445e-08
3.85454e-08
3.84823e-08
3.83914e-08
3.83285e-08
3.82482e-08
3.8191e-08
3.81175e-08
3.80632e-08
3.79956e-08
3.79442e-08
3.78806e-08
3.78284e-08
3.7766e-08
3.77145e-08
3.76535e-08
3.76039e-08
3.75451e-08
3.74971e-08
3.74406e-08
3.73934e-08
3.73394e-08
3.72924e-08
3.72418e-08
3.71937e-08
3.71473e-08
3.70998e-08
3.70489e-08
3.69933e-08
3.69486e-08
3.7304e-08
3.97353e-06
3.10769e-08
1.24373e-07
1.23656e-07
1.20907e-07
1.15893e-07
1.09531e-07
1.02839e-07
9.64088e-08
9.05477e-08
8.53073e-08
8.06966e-08
7.66298e-08
7.30701e-08
6.99184e-08
6.71509e-08
6.46799e-08
6.24979e-08
6.053e-08
5.87834e-08
5.7192e-08
5.57744e-08
5.44694e-08
5.33035e-08
5.22199e-08
5.125e-08
5.03392e-08
4.95236e-08
4.87501e-08
4.80591e-08
4.73955e-08
4.68044e-08
4.62316e-08
4.57233e-08
4.52242e-08
4.47838e-08
4.43463e-08
4.39633e-08
4.35776e-08
4.3243e-08
4.29016e-08
4.26083e-08
4.23042e-08
4.20461e-08
4.17735e-08
4.15449e-08
4.13007e-08
4.10987e-08
4.08781e-08
4.06983e-08
4.04995e-08
4.03402e-08
4.01581e-08
4.00175e-08
3.98525e-08
3.97279e-08
3.95764e-08
3.94633e-08
3.93287e-08
3.92272e-08
3.91025e-08
3.90153e-08
3.88968e-08
3.88185e-08
3.87106e-08
3.86398e-08
3.85404e-08
3.8477e-08
3.83858e-08
3.83228e-08
3.82421e-08
3.81848e-08
3.81111e-08
3.80567e-08
3.79889e-08
3.79375e-08
3.78735e-08
3.78213e-08
3.77587e-08
3.77071e-08
3.76459e-08
3.75962e-08
3.75372e-08
3.7489e-08
3.74323e-08
3.7385e-08
3.73308e-08
3.72837e-08
3.72329e-08
3.71848e-08
3.71381e-08
3.70905e-08
3.70394e-08
3.69838e-08
3.69388e-08
3.73004e-08
3.99694e-06
3.22053e-08
1.2437e-07
1.23656e-07
1.20927e-07
1.15938e-07
1.09599e-07
1.02921e-07
9.64989e-08
9.06401e-08
8.53985e-08
8.07846e-08
7.67135e-08
7.31489e-08
6.99922e-08
6.72196e-08
6.47439e-08
6.25573e-08
6.05851e-08
5.88344e-08
5.72393e-08
5.58182e-08
5.45099e-08
5.3341e-08
5.22545e-08
5.1282e-08
5.03688e-08
4.9551e-08
4.87753e-08
4.80824e-08
4.7417e-08
4.68242e-08
4.62497e-08
4.574e-08
4.52395e-08
4.47978e-08
4.4359e-08
4.39749e-08
4.35881e-08
4.32525e-08
4.29101e-08
4.26159e-08
4.23109e-08
4.2052e-08
4.17786e-08
4.15492e-08
4.13043e-08
4.11017e-08
4.08804e-08
4.07e-08
4.05006e-08
4.03408e-08
4.01581e-08
4.0017e-08
3.98515e-08
3.97265e-08
3.95745e-08
3.9461e-08
3.93259e-08
3.92241e-08
3.90989e-08
3.90114e-08
3.88926e-08
3.8814e-08
3.87057e-08
3.86346e-08
3.85349e-08
3.84712e-08
3.83798e-08
3.83165e-08
3.82356e-08
3.8178e-08
3.81041e-08
3.80496e-08
3.79816e-08
3.79301e-08
3.78659e-08
3.78136e-08
3.77508e-08
3.76991e-08
3.76376e-08
3.75878e-08
3.75285e-08
3.74803e-08
3.74233e-08
3.73759e-08
3.73215e-08
3.72742e-08
3.72231e-08
3.7175e-08
3.7128e-08
3.70804e-08
3.70291e-08
3.69735e-08
3.69281e-08
3.72966e-08
4.02173e-06
3.34797e-08
1.24366e-07
1.23655e-07
1.20947e-07
1.15987e-07
1.09673e-07
1.03011e-07
9.65971e-08
9.07408e-08
8.54981e-08
8.08807e-08
7.6805e-08
7.32351e-08
7.0073e-08
6.72949e-08
6.4814e-08
6.26224e-08
6.06454e-08
5.88903e-08
5.72911e-08
5.58661e-08
5.45543e-08
5.33821e-08
5.22926e-08
5.13172e-08
5.04014e-08
4.9581e-08
4.88031e-08
4.8108e-08
4.74406e-08
4.6846e-08
4.62698e-08
4.57585e-08
4.52563e-08
4.48132e-08
4.43731e-08
4.39877e-08
4.35997e-08
4.3263e-08
4.29195e-08
4.26243e-08
4.23183e-08
4.20585e-08
4.17842e-08
4.15541e-08
4.13084e-08
4.1105e-08
4.0883e-08
4.0702e-08
4.05019e-08
4.03415e-08
4.01582e-08
4.00166e-08
3.98505e-08
3.9725e-08
3.95725e-08
3.94586e-08
3.9323e-08
3.92208e-08
3.90951e-08
3.90073e-08
3.88881e-08
3.88091e-08
3.87005e-08
3.86291e-08
3.8529e-08
3.8465e-08
3.83734e-08
3.83098e-08
3.82285e-08
3.81708e-08
3.80966e-08
3.8042e-08
3.79737e-08
3.79223e-08
3.78576e-08
3.78053e-08
3.77422e-08
3.76904e-08
3.76287e-08
3.75787e-08
3.75192e-08
3.74708e-08
3.74136e-08
3.73661e-08
3.73113e-08
3.7264e-08
3.72126e-08
3.71644e-08
3.7117e-08
3.70694e-08
3.70178e-08
3.69623e-08
3.69166e-08
3.72925e-08
4.04761e-06
3.49187e-08
1.24363e-07
1.23655e-07
1.2097e-07
1.1604e-07
1.09752e-07
1.03108e-07
9.67034e-08
9.08501e-08
8.56062e-08
8.09852e-08
7.69045e-08
7.33289e-08
7.01609e-08
6.7377e-08
6.48903e-08
6.26932e-08
6.07112e-08
5.89513e-08
5.73476e-08
5.59185e-08
5.46028e-08
5.3427e-08
5.23342e-08
5.13557e-08
5.0437e-08
4.9614e-08
4.88335e-08
4.81361e-08
4.74666e-08
4.68699e-08
4.62918e-08
4.57787e-08
4.52749e-08
4.48302e-08
4.43886e-08
4.40018e-08
4.36125e-08
4.32746e-08
4.29299e-08
4.26336e-08
4.23265e-08
4.20658e-08
4.17906e-08
4.15596e-08
4.13129e-08
4.11088e-08
4.0886e-08
4.07044e-08
4.05035e-08
4.03425e-08
4.01585e-08
4.00163e-08
3.98496e-08
3.97236e-08
3.95705e-08
3.94561e-08
3.93199e-08
3.92174e-08
3.90912e-08
3.9003e-08
3.88833e-08
3.8804e-08
3.86949e-08
3.86232e-08
3.85227e-08
3.84584e-08
3.83665e-08
3.83026e-08
3.8221e-08
3.8163e-08
3.80886e-08
3.80339e-08
3.79653e-08
3.79138e-08
3.78488e-08
3.77964e-08
3.7733e-08
3.7681e-08
3.76191e-08
3.75689e-08
3.75091e-08
3.74606e-08
3.74031e-08
3.73555e-08
3.73004e-08
3.7253e-08
3.72013e-08
3.7153e-08
3.71053e-08
3.70577e-08
3.70057e-08
3.69503e-08
3.69042e-08
3.72881e-08
4.0742e-06
3.65424e-08
1.24359e-07
1.23654e-07
1.20993e-07
1.16097e-07
1.09837e-07
1.03212e-07
9.6818e-08
9.09679e-08
8.5723e-08
8.10981e-08
7.70121e-08
7.34304e-08
7.02561e-08
6.74658e-08
6.49731e-08
6.27702e-08
6.07826e-08
5.90175e-08
5.7409e-08
5.59754e-08
5.46555e-08
5.34758e-08
5.23794e-08
5.13976e-08
5.04757e-08
4.96498e-08
4.88667e-08
4.81668e-08
4.74948e-08
4.6896e-08
4.63158e-08
4.58008e-08
4.52952e-08
4.48488e-08
4.44056e-08
4.40174e-08
4.36265e-08
4.32873e-08
4.29413e-08
4.26439e-08
4.23356e-08
4.20739e-08
4.17976e-08
4.15657e-08
4.13181e-08
4.11131e-08
4.08894e-08
4.07071e-08
4.05053e-08
4.03437e-08
4.0159e-08
4.00162e-08
3.98487e-08
3.97222e-08
3.95686e-08
3.94536e-08
3.93168e-08
3.92139e-08
3.9087e-08
3.89985e-08
3.88783e-08
3.87986e-08
3.86891e-08
3.8617e-08
3.85161e-08
3.84515e-08
3.83592e-08
3.8295e-08
3.8213e-08
3.81547e-08
3.80801e-08
3.80252e-08
3.79563e-08
3.79048e-08
3.78393e-08
3.77869e-08
3.77231e-08
3.76711e-08
3.76088e-08
3.75585e-08
3.74984e-08
3.74497e-08
3.73919e-08
3.73442e-08
3.72887e-08
3.72412e-08
3.71892e-08
3.71409e-08
3.70927e-08
3.7045e-08
3.69928e-08
3.69374e-08
3.68909e-08
3.72834e-08
4.10105e-06
3.83718e-08
1.24355e-07
1.23654e-07
1.21018e-07
1.16157e-07
1.09929e-07
1.03324e-07
9.6941e-08
9.10946e-08
8.58486e-08
8.12198e-08
7.71282e-08
7.354e-08
7.03589e-08
6.75618e-08
6.50625e-08
6.28533e-08
6.08598e-08
5.90892e-08
5.74755e-08
5.6037e-08
5.47126e-08
5.35287e-08
5.24284e-08
5.1443e-08
5.05178e-08
4.96887e-08
4.89027e-08
4.82e-08
4.75256e-08
4.69244e-08
4.63419e-08
4.58249e-08
4.53173e-08
4.48691e-08
4.44241e-08
4.40343e-08
4.36419e-08
4.33013e-08
4.29539e-08
4.26552e-08
4.23457e-08
4.20828e-08
4.18054e-08
4.15725e-08
4.13238e-08
4.1118e-08
4.08933e-08
4.07102e-08
4.05076e-08
4.03452e-08
4.01597e-08
4.00163e-08
3.9848e-08
3.97209e-08
3.95666e-08
3.94511e-08
3.93136e-08
3.92103e-08
3.90828e-08
3.89938e-08
3.88731e-08
3.8793e-08
3.8683e-08
3.86105e-08
3.85092e-08
3.84441e-08
3.83515e-08
3.8287e-08
3.82045e-08
3.8146e-08
3.8071e-08
3.8016e-08
3.79467e-08
3.78952e-08
3.78293e-08
3.77768e-08
3.77127e-08
3.76605e-08
3.75979e-08
3.75475e-08
3.7487e-08
3.74382e-08
3.738e-08
3.73321e-08
3.72763e-08
3.72287e-08
3.71763e-08
3.71279e-08
3.70792e-08
3.70316e-08
3.6979e-08
3.69236e-08
3.68767e-08
3.72785e-08
4.12763e-06
4.04292e-08
1.2435e-07
1.23653e-07
1.21044e-07
1.16221e-07
1.10026e-07
1.03444e-07
9.70724e-08
9.12302e-08
8.59833e-08
8.13503e-08
7.72527e-08
7.36577e-08
7.04694e-08
6.76651e-08
6.51588e-08
6.29428e-08
6.0943e-08
5.91664e-08
5.75472e-08
5.61034e-08
5.47742e-08
5.35858e-08
5.24814e-08
5.1492e-08
5.05632e-08
4.97309e-08
4.89416e-08
4.82361e-08
4.75589e-08
4.69552e-08
4.63703e-08
4.5851e-08
4.53413e-08
4.48912e-08
4.44443e-08
4.40528e-08
4.36587e-08
4.33166e-08
4.29676e-08
4.26676e-08
4.23567e-08
4.20927e-08
4.1814e-08
4.158e-08
4.13302e-08
4.11235e-08
4.08978e-08
4.07138e-08
4.05102e-08
4.03471e-08
4.01607e-08
4.00165e-08
3.98475e-08
3.97198e-08
3.95648e-08
3.94487e-08
3.93105e-08
3.92066e-08
3.90784e-08
3.8989e-08
3.88677e-08
3.87872e-08
3.86766e-08
3.86037e-08
3.85019e-08
3.84364e-08
3.83434e-08
3.82786e-08
3.81956e-08
3.81368e-08
3.80615e-08
3.80063e-08
3.79367e-08
3.78851e-08
3.78188e-08
3.77662e-08
3.77017e-08
3.76494e-08
3.75864e-08
3.75358e-08
3.7475e-08
3.7426e-08
3.73674e-08
3.73194e-08
3.72632e-08
3.72155e-08
3.71626e-08
3.71141e-08
3.7065e-08
3.70173e-08
3.69643e-08
3.6909e-08
3.68617e-08
3.72732e-08
4.15331e-06
4.27376e-08
1.24346e-07
1.23652e-07
1.21072e-07
1.16288e-07
1.10128e-07
1.03571e-07
9.72125e-08
9.1375e-08
8.61272e-08
8.14899e-08
7.73861e-08
7.37838e-08
7.05879e-08
6.77759e-08
6.52621e-08
6.3039e-08
6.10324e-08
5.92494e-08
5.76242e-08
5.61749e-08
5.48406e-08
5.36474e-08
5.25384e-08
5.15449e-08
5.06123e-08
4.97763e-08
4.89837e-08
4.8275e-08
4.75949e-08
4.69885e-08
4.6401e-08
4.58793e-08
4.53673e-08
4.49152e-08
4.44663e-08
4.40729e-08
4.3677e-08
4.33333e-08
4.29827e-08
4.26812e-08
4.23689e-08
4.21035e-08
4.18235e-08
4.15884e-08
4.13374e-08
4.11296e-08
4.09028e-08
4.07179e-08
4.05133e-08
4.03494e-08
4.0162e-08
4.00171e-08
3.98472e-08
3.97188e-08
3.9563e-08
3.94463e-08
3.93073e-08
3.9203e-08
3.9074e-08
3.89841e-08
3.88622e-08
3.87812e-08
3.86701e-08
3.85967e-08
3.84944e-08
3.84285e-08
3.83351e-08
3.82698e-08
3.81864e-08
3.81273e-08
3.80515e-08
3.79962e-08
3.79261e-08
3.78745e-08
3.78077e-08
3.7755e-08
3.76901e-08
3.76376e-08
3.75743e-08
3.75235e-08
3.74623e-08
3.74131e-08
3.73541e-08
3.7306e-08
3.72494e-08
3.72015e-08
3.71481e-08
3.70996e-08
3.705e-08
3.70022e-08
3.69488e-08
3.68936e-08
3.68458e-08
3.72676e-08
4.17738e-06
4.53209e-08
1.24341e-07
1.23651e-07
1.21101e-07
1.16359e-07
1.10237e-07
1.03705e-07
9.73613e-08
9.15289e-08
8.62805e-08
8.16387e-08
7.75285e-08
7.39185e-08
7.07146e-08
6.78944e-08
6.53727e-08
6.3142e-08
6.11282e-08
5.93384e-08
5.77069e-08
5.62517e-08
5.49118e-08
5.37134e-08
5.25997e-08
5.16018e-08
5.0665e-08
4.98252e-08
4.9029e-08
4.8317e-08
4.76337e-08
4.70244e-08
4.64341e-08
4.591e-08
4.53955e-08
4.49412e-08
4.44901e-08
4.40947e-08
4.36969e-08
4.33514e-08
4.29991e-08
4.26961e-08
4.23821e-08
4.21154e-08
4.1834e-08
4.15977e-08
4.13454e-08
4.11365e-08
4.09085e-08
4.07226e-08
4.05169e-08
4.03521e-08
4.01638e-08
4.00181e-08
3.98472e-08
3.97181e-08
3.95615e-08
3.9444e-08
3.93043e-08
3.91993e-08
3.90696e-08
3.89791e-08
3.88567e-08
3.87751e-08
3.86633e-08
3.85895e-08
3.84867e-08
3.84202e-08
3.83264e-08
3.82607e-08
3.81768e-08
3.81173e-08
3.80411e-08
3.79856e-08
3.79151e-08
3.78634e-08
3.77961e-08
3.77434e-08
3.7678e-08
3.76254e-08
3.75617e-08
3.75106e-08
3.7449e-08
3.73996e-08
3.73402e-08
3.72919e-08
3.72348e-08
3.71868e-08
3.7133e-08
3.70844e-08
3.70342e-08
3.69864e-08
3.69325e-08
3.68774e-08
3.68292e-08
3.72616e-08
4.19904e-06
4.82028e-08
1.24336e-07
1.23649e-07
1.21131e-07
1.16434e-07
1.10352e-07
1.03847e-07
9.75188e-08
9.16923e-08
8.64434e-08
8.17971e-08
7.76801e-08
7.4062e-08
7.08497e-08
6.80209e-08
6.54908e-08
6.3252e-08
6.12306e-08
5.94336e-08
5.77954e-08
5.63338e-08
5.49881e-08
5.37843e-08
5.26655e-08
5.16628e-08
5.07216e-08
4.98777e-08
4.90777e-08
4.83621e-08
4.76755e-08
4.70631e-08
4.64699e-08
4.5943e-08
4.5426e-08
4.49692e-08
4.45158e-08
4.41184e-08
4.37185e-08
4.33711e-08
4.30169e-08
4.27123e-08
4.23967e-08
4.21285e-08
4.18456e-08
4.16079e-08
4.13542e-08
4.11441e-08
4.09149e-08
4.0728e-08
4.05211e-08
4.03554e-08
4.0166e-08
4.00194e-08
3.98476e-08
3.97176e-08
3.95602e-08
3.9442e-08
3.93013e-08
3.91958e-08
3.90652e-08
3.89742e-08
3.8851e-08
3.87689e-08
3.86565e-08
3.85822e-08
3.84787e-08
3.84118e-08
3.83175e-08
3.82514e-08
3.81669e-08
3.8107e-08
3.80303e-08
3.79746e-08
3.79037e-08
3.78518e-08
3.7784e-08
3.77313e-08
3.76654e-08
3.76126e-08
3.75485e-08
3.74972e-08
3.74352e-08
3.73856e-08
3.73257e-08
3.72772e-08
3.72196e-08
3.71715e-08
3.71171e-08
3.70685e-08
3.70176e-08
3.69698e-08
3.69154e-08
3.68604e-08
3.68117e-08
3.72553e-08
4.21741e-06
5.14072e-08
1.24331e-07
1.23647e-07
1.21162e-07
1.16512e-07
1.10472e-07
1.03997e-07
9.76853e-08
9.18652e-08
8.66161e-08
8.19651e-08
7.78411e-08
7.42147e-08
7.09934e-08
6.81555e-08
6.56167e-08
6.33693e-08
6.13399e-08
5.95352e-08
5.78898e-08
5.64216e-08
5.50697e-08
5.386e-08
5.27358e-08
5.17282e-08
5.07823e-08
4.9934e-08
4.91299e-08
4.84106e-08
4.77204e-08
4.71047e-08
4.65083e-08
4.59785e-08
4.54588e-08
4.49995e-08
4.45436e-08
4.41439e-08
4.37418e-08
4.33925e-08
4.30363e-08
4.27299e-08
4.24125e-08
4.21428e-08
4.18583e-08
4.16192e-08
4.1364e-08
4.11527e-08
4.09222e-08
4.07341e-08
4.05259e-08
4.03593e-08
4.01687e-08
4.00212e-08
3.98483e-08
3.97175e-08
3.95591e-08
3.94402e-08
3.92986e-08
3.91924e-08
3.90609e-08
3.89693e-08
3.88454e-08
3.87627e-08
3.86496e-08
3.85747e-08
3.84707e-08
3.84032e-08
3.83083e-08
3.82418e-08
3.81567e-08
3.80964e-08
3.80191e-08
3.79632e-08
3.78919e-08
3.78399e-08
3.77716e-08
3.77188e-08
3.76523e-08
3.75994e-08
3.75347e-08
3.74833e-08
3.74208e-08
3.73709e-08
3.73106e-08
3.72618e-08
3.72038e-08
3.71555e-08
3.71006e-08
3.70518e-08
3.70004e-08
3.69525e-08
3.68976e-08
3.68426e-08
3.67935e-08
3.72484e-08
4.23152e-06
5.49575e-08
1.24325e-07
1.23645e-07
1.21194e-07
1.16593e-07
1.10598e-07
1.04155e-07
9.78607e-08
9.20478e-08
8.67987e-08
8.21431e-08
7.80118e-08
7.43766e-08
7.11461e-08
6.82987e-08
6.57505e-08
6.34941e-08
6.14562e-08
5.96434e-08
5.79906e-08
5.65152e-08
5.51567e-08
5.39409e-08
5.2811e-08
5.1798e-08
5.08472e-08
4.99943e-08
4.91859e-08
4.84625e-08
4.77686e-08
4.71493e-08
4.65496e-08
4.60168e-08
4.54941e-08
4.50321e-08
4.45736e-08
4.41715e-08
4.37671e-08
4.34157e-08
4.30574e-08
4.27491e-08
4.24298e-08
4.21584e-08
4.18722e-08
4.16316e-08
4.13749e-08
4.11623e-08
4.09303e-08
4.0741e-08
4.05315e-08
4.03638e-08
4.0172e-08
4.00235e-08
3.98495e-08
3.97178e-08
3.95585e-08
3.94387e-08
3.92961e-08
3.91893e-08
3.90568e-08
3.89645e-08
3.88399e-08
3.87565e-08
3.86427e-08
3.85672e-08
3.84625e-08
3.83944e-08
3.8299e-08
3.8232e-08
3.81463e-08
3.80856e-08
3.80076e-08
3.79515e-08
3.78797e-08
3.78276e-08
3.77587e-08
3.77059e-08
3.76387e-08
3.75857e-08
3.75206e-08
3.74689e-08
3.74059e-08
3.73558e-08
3.72949e-08
3.7246e-08
3.71874e-08
3.71389e-08
3.70834e-08
3.70346e-08
3.69825e-08
3.69345e-08
3.6879e-08
3.68241e-08
3.67745e-08
3.7241e-08
4.24034e-06
5.88743e-08
1.24319e-07
1.23643e-07
1.21227e-07
1.16678e-07
1.1073e-07
1.0432e-07
9.80452e-08
9.22401e-08
8.69914e-08
8.23311e-08
7.81925e-08
7.45482e-08
7.13079e-08
6.84505e-08
6.58926e-08
6.36267e-08
6.15799e-08
5.97586e-08
5.80977e-08
5.66149e-08
5.52495e-08
5.40272e-08
5.28912e-08
5.18726e-08
5.09165e-08
5.00587e-08
4.92457e-08
4.85181e-08
4.78201e-08
4.71972e-08
4.6594e-08
4.60578e-08
4.5532e-08
4.50672e-08
4.46059e-08
4.42013e-08
4.37944e-08
4.34407e-08
4.30802e-08
4.277e-08
4.24487e-08
4.21755e-08
4.18875e-08
4.16453e-08
4.13869e-08
4.11729e-08
4.09394e-08
4.07488e-08
4.05379e-08
4.03691e-08
4.0176e-08
4.00265e-08
3.98513e-08
3.97187e-08
3.95583e-08
3.94376e-08
3.92939e-08
3.91864e-08
3.90529e-08
3.896e-08
3.88345e-08
3.87504e-08
3.86358e-08
3.85597e-08
3.84543e-08
3.83856e-08
3.82896e-08
3.82221e-08
3.81357e-08
3.80746e-08
3.7996e-08
3.79396e-08
3.78673e-08
3.7815e-08
3.77455e-08
3.76927e-08
3.76248e-08
3.75717e-08
3.7506e-08
3.7454e-08
3.73905e-08
3.73402e-08
3.72787e-08
3.72296e-08
3.71704e-08
3.71218e-08
3.70657e-08
3.70167e-08
3.69639e-08
3.69159e-08
3.68598e-08
3.6805e-08
3.67549e-08
3.72331e-08
4.24276e-06
6.31754e-08
1.24314e-07
1.23641e-07
1.21261e-07
1.16766e-07
1.10868e-07
1.04493e-07
9.82388e-08
9.24424e-08
8.71944e-08
8.25295e-08
7.83833e-08
7.47295e-08
7.14792e-08
6.86113e-08
6.60432e-08
6.37674e-08
6.17111e-08
5.98808e-08
5.82116e-08
5.67209e-08
5.53482e-08
5.4119e-08
5.29766e-08
5.1952e-08
5.09904e-08
5.01274e-08
4.93096e-08
4.85774e-08
4.78753e-08
4.72484e-08
4.66414e-08
4.61019e-08
4.55728e-08
4.51049e-08
4.46407e-08
4.42334e-08
4.38239e-08
4.34678e-08
4.3105e-08
4.27926e-08
4.24692e-08
4.21941e-08
4.19042e-08
4.16604e-08
4.14002e-08
4.11846e-08
4.09496e-08
4.07577e-08
4.05453e-08
4.03753e-08
4.01808e-08