/*--------------------------------*- C++ -*----------------------------------*\
| =========                 |                                                 |
| \\      /  F ield         | OpenFOAM: The Open Source CFD Toolbox           |
|  \\    /   O peration     | Version:  v2012                                 |
|   \\  /    A nd           | Website:  www.openfoam.com                      |
|    \\/     M anipulation  |                                                 |
\*---------------------------------------------------------------------------*/
FoamFile
{
    version     2.0;
    format      ascii;
    class       volVectorField;
    location    "47";
    object      wallShearStress;
}
// * * * * * * * * * * * * * * * * * * * * * * * * * * * * * * * * * * * * * //

dimensions      [0 2 -2 0 0 0 0];


internalField   uniform (0 0 0);

boundaryField
{
    inlet
    {
        type            calculated;
        value           uniform (0 0 0);
    }
    outlet
    {
        type            calculated;
        value           uniform (0 0 0);
    }
    topWall
    {
        type            calculated;
        value           nonuniform List<vector> 
545
(
(6.86091e-08 -4.82922e-08 0)
(6.85919e-08 -1.35109e-07 0)
(6.85451e-08 -2.25375e-07 0)
(6.84819e-08 -3.13018e-07 0)
(6.84056e-08 -3.96919e-07 0)
(6.83159e-08 -4.78156e-07 0)
(6.82137e-08 -5.57418e-07 0)
(6.80998e-08 -6.3467e-07 0)
(6.79752e-08 -7.0974e-07 0)
(6.78408e-08 -7.82628e-07 0)
(6.76977e-08 -8.53429e-07 0)
(6.75467e-08 -9.22224e-07 0)
(6.73884e-08 -9.89061e-07 0)
(6.72238e-08 -1.05398e-06 0)
(6.70535e-08 -1.11702e-06 0)
(6.68782e-08 -1.17825e-06 0)
(6.66985e-08 -1.2377e-06 0)
(6.6515e-08 -1.29543e-06 0)
(6.63281e-08 -1.35147e-06 0)
(6.61386e-08 -1.40589e-06 0)
(6.59467e-08 -1.45872e-06 0)
(6.57529e-08 -1.51e-06 0)
(6.55577e-08 -1.55978e-06 0)
(6.53615e-08 -1.60811e-06 0)
(6.51645e-08 -1.65502e-06 0)
(6.49672e-08 -1.70055e-06 0)
(6.47698e-08 -1.74475e-06 0)
(6.45726e-08 -1.78766e-06 0)
(6.43759e-08 -1.8293e-06 0)
(6.41799e-08 -1.86973e-06 0)
(6.39849e-08 -1.90896e-06 0)
(6.3791e-08 -1.94705e-06 0)
(6.35983e-08 -1.98402e-06 0)
(6.34073e-08 -2.01991e-06 0)
(6.32178e-08 -2.05475e-06 0)
(6.30301e-08 -2.08856e-06 0)
(6.28443e-08 -2.12139e-06 0)
(6.26606e-08 -2.15326e-06 0)
(6.2479e-08 -2.18419e-06 0)
(6.22996e-08 -2.21423e-06 0)
(6.21225e-08 -2.24339e-06 0)
(6.19478e-08 -2.2717e-06 0)
(6.17755e-08 -2.29918e-06 0)
(6.16057e-08 -2.32587e-06 0)
(6.14384e-08 -2.35178e-06 0)
(6.12738e-08 -2.37695e-06 0)
(6.11116e-08 -2.40138e-06 0)
(6.09522e-08 -2.4251e-06 0)
(6.07953e-08 -2.44814e-06 0)
(6.06412e-08 -2.47052e-06 0)
(6.04896e-08 -2.49225e-06 0)
(6.03408e-08 -2.51336e-06 0)
(6.01946e-08 -2.53385e-06 0)
(6.00511e-08 -2.55376e-06 0)
(5.99102e-08 -2.5731e-06 0)
(5.9772e-08 -2.59189e-06 0)
(5.96365e-08 -2.61014e-06 0)
(5.95035e-08 -2.62786e-06 0)
(5.93731e-08 -2.64509e-06 0)
(5.92453e-08 -2.66182e-06 0)
(5.91201e-08 -2.67807e-06 0)
(5.89973e-08 -2.69387e-06 0)
(5.88771e-08 -2.70921e-06 0)
(5.87593e-08 -2.72412e-06 0)
(5.8644e-08 -2.73861e-06 0)
(5.8531e-08 -2.75269e-06 0)
(5.84204e-08 -2.76637e-06 0)
(5.83122e-08 -2.77967e-06 0)
(5.82062e-08 -2.79259e-06 0)
(5.81025e-08 -2.80515e-06 0)
(5.80011e-08 -2.81736e-06 0)
(5.79016e-08 -2.8292e-06 0)
(5.78052e-08 -2.8406e-06 0)
(5.77118e-08 -2.85166e-06 0)
(5.76192e-08 -2.8626e-06 0)
(5.7527e-08 -2.87348e-06 0)
(5.74348e-08 -2.88431e-06 0)
(5.73428e-08 -2.89508e-06 0)
(5.72508e-08 -2.90578e-06 0)
(5.7159e-08 -2.91641e-06 0)
(5.70672e-08 -2.92697e-06 0)
(5.69756e-08 -2.93747e-06 0)
(5.6884e-08 -2.94791e-06 0)
(5.67925e-08 -2.95828e-06 0)
(5.67012e-08 -2.96858e-06 0)
(5.66099e-08 -2.97883e-06 0)
(5.65188e-08 -2.98901e-06 0)
(5.64278e-08 -2.99912e-06 0)
(5.63369e-08 -3.00918e-06 0)
(5.62462e-08 -3.01917e-06 0)
(5.61556e-08 -3.0291e-06 0)
(5.6065e-08 -3.03897e-06 0)
(5.59747e-08 -3.04878e-06 0)
(5.58844e-08 -3.05851e-06 0)
(5.57951e-08 -3.06823e-06 0)
(5.57027e-08 -3.07776e-06 0)
(5.56137e-08 -3.08648e-06 0)
(5.55361e-08 -3.09442e-06 0)
(5.5462e-08 -3.10213e-06 0)
(5.53882e-08 -3.10986e-06 0)
(5.53142e-08 -3.11766e-06 0)
(5.524e-08 -3.12549e-06 0)
(5.51653e-08 -3.13332e-06 0)
(5.50904e-08 -3.14114e-06 0)
(5.50151e-08 -3.14897e-06 0)
(5.49394e-08 -3.15681e-06 0)
(5.48634e-08 -3.16466e-06 0)
(5.4787e-08 -3.17252e-06 0)
(5.47103e-08 -3.18038e-06 0)
(5.46332e-08 -3.18825e-06 0)
(5.45558e-08 -3.19613e-06 0)
(5.4478e-08 -3.20402e-06 0)
(5.43998e-08 -3.21191e-06 0)
(5.43213e-08 -3.21981e-06 0)
(5.42424e-08 -3.22772e-06 0)
(5.41632e-08 -3.23564e-06 0)
(5.40836e-08 -3.24356e-06 0)
(5.40036e-08 -3.25149e-06 0)
(5.39233e-08 -3.25942e-06 0)
(5.38426e-08 -3.26737e-06 0)
(5.37615e-08 -3.27532e-06 0)
(5.36801e-08 -3.28327e-06 0)
(5.35983e-08 -3.29124e-06 0)
(5.35161e-08 -3.29921e-06 0)
(5.34336e-08 -3.30718e-06 0)
(5.33507e-08 -3.31516e-06 0)
(5.32674e-08 -3.32315e-06 0)
(5.31838e-08 -3.33115e-06 0)
(5.30997e-08 -3.33915e-06 0)
(5.30153e-08 -3.34716e-06 0)
(5.29305e-08 -3.35517e-06 0)
(5.28454e-08 -3.36319e-06 0)
(5.27599e-08 -3.37122e-06 0)
(5.26739e-08 -3.37925e-06 0)
(5.25877e-08 -3.38729e-06 0)
(5.2501e-08 -3.39533e-06 0)
(5.24139e-08 -3.40338e-06 0)
(5.23265e-08 -3.41143e-06 0)
(5.22387e-08 -3.41949e-06 0)
(5.21505e-08 -3.42756e-06 0)
(5.20619e-08 -3.43563e-06 0)
(5.19729e-08 -3.4437e-06 0)
(5.18836e-08 -3.45178e-06 0)
(5.17938e-08 -3.45987e-06 0)
(5.17037e-08 -3.46796e-06 0)
(5.16132e-08 -3.47606e-06 0)
(5.15223e-08 -3.48416e-06 0)
(5.1431e-08 -3.49226e-06 0)
(5.13393e-08 -3.50037e-06 0)
(5.12472e-08 -3.50849e-06 0)
(5.11547e-08 -3.51661e-06 0)
(5.10619e-08 -3.52473e-06 0)
(5.09686e-08 -3.53286e-06 0)
(5.0875e-08 -3.54099e-06 0)
(5.07809e-08 -3.54913e-06 0)
(5.06865e-08 -3.55727e-06 0)
(5.05916e-08 -3.56541e-06 0)
(5.04964e-08 -3.57356e-06 0)
(5.04008e-08 -3.58171e-06 0)
(5.03047e-08 -3.58987e-06 0)
(5.02083e-08 -3.59803e-06 0)
(5.01115e-08 -3.60619e-06 0)
(5.00142e-08 -3.61436e-06 0)
(4.99166e-08 -3.62253e-06 0)
(4.98186e-08 -3.6307e-06 0)
(4.97202e-08 -3.63888e-06 0)
(4.96213e-08 -3.64706e-06 0)
(4.95221e-08 -3.65524e-06 0)
(4.94224e-08 -3.66342e-06 0)
(4.93224e-08 -3.67161e-06 0)
(4.92219e-08 -3.6798e-06 0)
(4.91211e-08 -3.688e-06 0)
(4.90198e-08 -3.69619e-06 0)
(4.89182e-08 -3.70439e-06 0)
(4.88161e-08 -3.71259e-06 0)
(4.87136e-08 -3.72079e-06 0)
(4.86107e-08 -3.72899e-06 0)
(4.85074e-08 -3.7372e-06 0)
(4.84037e-08 -3.74541e-06 0)
(4.82996e-08 -3.75362e-06 0)
(4.81951e-08 -3.76183e-06 0)
(4.80902e-08 -3.77004e-06 0)
(4.79849e-08 -3.77826e-06 0)
(4.78791e-08 -3.78647e-06 0)
(4.7773e-08 -3.79469e-06 0)
(4.76664e-08 -3.80291e-06 0)
(4.75594e-08 -3.81112e-06 0)
(4.74521e-08 -3.81934e-06 0)
(4.73443e-08 -3.82756e-06 0)
(4.72361e-08 -3.83578e-06 0)
(4.71275e-08 -3.844e-06 0)
(4.70184e-08 -3.85223e-06 0)
(4.6909e-08 -3.86045e-06 0)
(4.67992e-08 -3.86867e-06 0)
(4.66889e-08 -3.87689e-06 0)
(4.65782e-08 -3.88511e-06 0)
(4.64671e-08 -3.89334e-06 0)
(4.63557e-08 -3.90156e-06 0)
(4.62438e-08 -3.90978e-06 0)
(4.61314e-08 -3.918e-06 0)
(4.60187e-08 -3.92622e-06 0)
(4.59056e-08 -3.93444e-06 0)
(4.5792e-08 -3.94265e-06 0)
(4.56781e-08 -3.95087e-06 0)
(4.55637e-08 -3.95909e-06 0)
(4.54489e-08 -3.9673e-06 0)
(4.53337e-08 -3.97551e-06 0)
(4.52182e-08 -3.98373e-06 0)
(4.51021e-08 -3.99193e-06 0)
(4.49857e-08 -4.00014e-06 0)
(4.48689e-08 -4.00835e-06 0)
(4.47517e-08 -4.01655e-06 0)
(4.4634e-08 -4.02475e-06 0)
(4.45159e-08 -4.03295e-06 0)
(4.43975e-08 -4.04115e-06 0)
(4.42786e-08 -4.04934e-06 0)
(4.41593e-08 -4.05753e-06 0)
(4.40396e-08 -4.06572e-06 0)
(4.39195e-08 -4.07391e-06 0)
(4.3799e-08 -4.08209e-06 0)
(4.36781e-08 -4.09027e-06 0)
(4.35568e-08 -4.09845e-06 0)
(4.34351e-08 -4.10662e-06 0)
(4.3313e-08 -4.11479e-06 0)
(4.31904e-08 -4.12295e-06 0)
(4.30675e-08 -4.13111e-06 0)
(4.29442e-08 -4.13927e-06 0)
(4.28204e-08 -4.14742e-06 0)
(4.26963e-08 -4.15557e-06 0)
(4.25718e-08 -4.16371e-06 0)
(4.24468e-08 -4.17185e-06 0)
(4.23215e-08 -4.17998e-06 0)
(4.21957e-08 -4.18811e-06 0)
(4.20696e-08 -4.19623e-06 0)
(4.19431e-08 -4.20435e-06 0)
(4.18161e-08 -4.21246e-06 0)
(4.16888e-08 -4.22057e-06 0)
(4.15611e-08 -4.22867e-06 0)
(4.1433e-08 -4.23677e-06 0)
(4.13045e-08 -4.24486e-06 0)
(4.11756e-08 -4.25294e-06 0)
(4.10463e-08 -4.26102e-06 0)
(4.09166e-08 -4.26909e-06 0)
(4.07866e-08 -4.27715e-06 0)
(4.06561e-08 -4.28521e-06 0)
(4.05253e-08 -4.29326e-06 0)
(4.03941e-08 -4.3013e-06 0)
(4.02625e-08 -4.30934e-06 0)
(4.01305e-08 -4.31737e-06 0)
(3.99982e-08 -4.32539e-06 0)
(3.98654e-08 -4.3334e-06 0)
(3.97323e-08 -4.34141e-06 0)
(3.95988e-08 -4.34941e-06 0)
(3.94649e-08 -4.3574e-06 0)
(3.93307e-08 -4.36538e-06 0)
(3.91961e-08 -4.37335e-06 0)
(3.90611e-08 -4.38131e-06 0)
(3.89257e-08 -4.38927e-06 0)
(3.879e-08 -4.39722e-06 0)
(3.86539e-08 -4.40515e-06 0)
(3.85174e-08 -4.41308e-06 0)
(3.83806e-08 -4.421e-06 0)
(3.82434e-08 -4.42891e-06 0)
(3.81059e-08 -4.43681e-06 0)
(3.7968e-08 -4.44469e-06 0)
(3.78298e-08 -4.45258e-06 0)
(3.76911e-08 -4.46043e-06 0)
(3.75529e-08 -4.46832e-06 0)
(3.74138e-08 -4.47611e-06 0)
(3.72758e-08 -4.48351e-06 0)
(3.71456e-08 -4.49059e-06 0)
(3.70198e-08 -4.49759e-06 0)
(3.68927e-08 -4.50464e-06 0)
(3.67645e-08 -4.51178e-06 0)
(3.66349e-08 -4.51898e-06 0)
(3.65039e-08 -4.52623e-06 0)
(3.63714e-08 -4.53352e-06 0)
(3.62375e-08 -4.54087e-06 0)
(3.61021e-08 -4.54827e-06 0)
(3.59652e-08 -4.55573e-06 0)
(3.58268e-08 -4.56323e-06 0)
(3.56869e-08 -4.57079e-06 0)
(3.55454e-08 -4.5784e-06 0)
(3.54025e-08 -4.58606e-06 0)
(3.52579e-08 -4.59377e-06 0)
(3.51119e-08 -4.60154e-06 0)
(3.49642e-08 -4.60936e-06 0)
(3.4815e-08 -4.61723e-06 0)
(3.46641e-08 -4.62514e-06 0)
(3.45117e-08 -4.63312e-06 0)
(3.43576e-08 -4.64114e-06 0)
(3.42018e-08 -4.64921e-06 0)
(3.40445e-08 -4.65733e-06 0)
(3.38854e-08 -4.66551e-06 0)
(3.37247e-08 -4.67373e-06 0)
(3.35623e-08 -4.682e-06 0)
(3.33982e-08 -4.69032e-06 0)
(3.32324e-08 -4.69869e-06 0)
(3.30648e-08 -4.70711e-06 0)
(3.28956e-08 -4.71558e-06 0)
(3.27245e-08 -4.72409e-06 0)
(3.25518e-08 -4.73266e-06 0)
(3.23772e-08 -4.74127e-06 0)
(3.22009e-08 -4.74992e-06 0)
(3.20227e-08 -4.75862e-06 0)
(3.18428e-08 -4.76737e-06 0)
(3.1661e-08 -4.77616e-06 0)
(3.14775e-08 -4.785e-06 0)
(3.12921e-08 -4.79388e-06 0)
(3.11048e-08 -4.80281e-06 0)
(3.09157e-08 -4.81177e-06 0)
(3.07247e-08 -4.82078e-06 0)
(3.05319e-08 -4.82983e-06 0)
(3.03372e-08 -4.83892e-06 0)
(3.01406e-08 -4.84805e-06 0)
(2.99421e-08 -4.85722e-06 0)
(2.97416e-08 -4.86642e-06 0)
(2.95393e-08 -4.87566e-06 0)
(2.93351e-08 -4.88494e-06 0)
(2.91289e-08 -4.89426e-06 0)
(2.89208e-08 -4.90361e-06 0)
(2.87108e-08 -4.91299e-06 0)
(2.84988e-08 -4.9224e-06 0)
(2.82849e-08 -4.93185e-06 0)
(2.80691e-08 -4.94133e-06 0)
(2.78513e-08 -4.95084e-06 0)
(2.76315e-08 -4.96037e-06 0)
(2.74098e-08 -4.96993e-06 0)
(2.71861e-08 -4.97952e-06 0)
(2.69605e-08 -4.98913e-06 0)
(2.67329e-08 -4.99876e-06 0)
(2.65034e-08 -5.00842e-06 0)
(2.62719e-08 -5.01809e-06 0)
(2.60384e-08 -5.02779e-06 0)
(2.5803e-08 -5.0375e-06 0)
(2.55657e-08 -5.04723e-06 0)
(2.53263e-08 -5.05697e-06 0)
(2.50851e-08 -5.06673e-06 0)
(2.48419e-08 -5.07649e-06 0)
(2.45969e-08 -5.08627e-06 0)
(2.43498e-08 -5.09605e-06 0)
(2.41009e-08 -5.10584e-06 0)
(2.38501e-08 -5.11563e-06 0)
(2.35974e-08 -5.12543e-06 0)
(2.33428e-08 -5.13522e-06 0)
(2.30864e-08 -5.14502e-06 0)
(2.28281e-08 -5.15481e-06 0)
(2.2568e-08 -5.1646e-06 0)
(2.2306e-08 -5.17437e-06 0)
(2.20423e-08 -5.18414e-06 0)
(2.17768e-08 -5.1939e-06 0)
(2.15095e-08 -5.20364e-06 0)
(2.12405e-08 -5.21337e-06 0)
(2.09697e-08 -5.22308e-06 0)
(2.06973e-08 -5.23276e-06 0)
(2.04232e-08 -5.24243e-06 0)
(2.01474e-08 -5.25206e-06 0)
(1.987e-08 -5.26167e-06 0)
(1.95911e-08 -5.27125e-06 0)
(1.93105e-08 -5.2808e-06 0)
(1.90285e-08 -5.2903e-06 0)
(1.8745e-08 -5.29977e-06 0)
(1.84599e-08 -5.3092e-06 0)
(1.81735e-08 -5.31859e-06 0)
(1.78857e-08 -5.32792e-06 0)
(1.75966e-08 -5.33721e-06 0)
(1.73061e-08 -5.34644e-06 0)
(1.70144e-08 -5.35562e-06 0)
(1.67215e-08 -5.36474e-06 0)
(1.64274e-08 -5.3738e-06 0)
(1.61321e-08 -5.38279e-06 0)
(1.58359e-08 -5.39172e-06 0)
(1.55385e-08 -5.40058e-06 0)
(1.52402e-08 -5.40936e-06 0)
(1.4941e-08 -5.41806e-06 0)
(1.4641e-08 -5.42669e-06 0)
(1.43401e-08 -5.43522e-06 0)
(1.40385e-08 -5.44368e-06 0)
(1.37362e-08 -5.45204e-06 0)
(1.34332e-08 -5.46031e-06 0)
(1.31298e-08 -5.46848e-06 0)
(1.28258e-08 -5.47655e-06 0)
(1.25214e-08 -5.48452e-06 0)
(1.22167e-08 -5.49238e-06 0)
(1.19116e-08 -5.50012e-06 0)
(1.16064e-08 -5.50776e-06 0)
(1.1301e-08 -5.51527e-06 0)
(1.09956e-08 -5.52267e-06 0)
(1.06901e-08 -5.52994e-06 0)
(1.03848e-08 -5.53708e-06 0)
(1.00797e-08 -5.54409e-06 0)
(9.77479e-09 -5.55097e-06 0)
(9.47024e-09 -5.55769e-06 0)
(9.16613e-09 -5.56429e-06 0)
(8.86251e-09 -5.57073e-06 0)
(8.55951e-09 -5.57703e-06 0)
(8.25719e-09 -5.58316e-06 0)
(7.95566e-09 -5.58916e-06 0)
(7.65498e-09 -5.59497e-06 0)
(7.35528e-09 -5.60064e-06 0)
(7.05662e-09 -5.60612e-06 0)
(6.75912e-09 -5.61145e-06 0)
(6.46286e-09 -5.61659e-06 0)
(6.16795e-09 -5.62157e-06 0)
(5.87446e-09 -5.62635e-06 0)
(5.58253e-09 -5.63096e-06 0)
(5.29221e-09 -5.63537e-06 0)
(5.00365e-09 -5.6396e-06 0)
(4.7169e-09 -5.64362e-06 0)
(4.4321e-09 -5.64746e-06 0)
(4.14933e-09 -5.65109e-06 0)
(3.8687e-09 -5.65453e-06 0)
(3.5903e-09 -5.65774e-06 0)
(3.31424e-09 -5.66076e-06 0)
(3.04062e-09 -5.66356e-06 0)
(2.76955e-09 -5.66615e-06 0)
(2.50111e-09 -5.66851e-06 0)
(2.23542e-09 -5.67067e-06 0)
(1.97257e-09 -5.67259e-06 0)
(1.71266e-09 -5.6743e-06 0)
(1.4558e-09 -5.67577e-06 0)
(1.20207e-09 -5.67703e-06 0)
(9.51582e-10 -5.67803e-06 0)
(7.04427e-10 -5.67883e-06 0)
(4.60694e-10 -5.67936e-06 0)
(2.20482e-10 -5.67968e-06 0)
(-1.6122e-11 -5.67975e-06 0)
(-2.49028e-10 -5.67959e-06 0)
(-4.78148e-10 -5.67917e-06 0)
(-7.03399e-10 -5.67853e-06 0)
(-9.24695e-10 -5.67763e-06 0)
(-1.14196e-09 -5.6765e-06 0)
(-1.35511e-09 -5.67511e-06 0)
(-1.56408e-09 -5.67349e-06 0)
(-1.76877e-09 -5.67161e-06 0)
(-1.96915e-09 -5.6695e-06 0)
(-2.16511e-09 -5.66712e-06 0)
(-2.35662e-09 -5.66452e-06 0)
(-2.54358e-09 -5.66164e-06 0)
(-2.72596e-09 -5.65855e-06 0)
(-2.90367e-09 -5.65518e-06 0)
(-3.07669e-09 -5.6516e-06 0)
(-3.24492e-09 -5.64774e-06 0)
(-3.40835e-09 -5.64367e-06 0)
(-3.56688e-09 -5.63932e-06 0)
(-3.72052e-09 -5.63477e-06 0)
(-3.8691e-09 -5.62994e-06 0)
(-4.01291e-09 -5.62492e-06 0)
(-4.15088e-09 -5.61958e-06 0)
(-4.28797e-09 -5.61406e-06 0)
(-4.42894e-09 -5.60771e-06 0)
(-4.57135e-09 -5.60043e-06 0)
(-4.70966e-09 -5.59282e-06 0)
(-4.83957e-09 -5.58508e-06 0)
(-4.96097e-09 -5.5771e-06 0)
(-5.07408e-09 -5.56897e-06 0)
(-5.17901e-09 -5.56062e-06 0)
(-5.27606e-09 -5.55215e-06 0)
(-5.3654e-09 -5.54348e-06 0)
(-5.44737e-09 -5.53473e-06 0)
(-5.52214e-09 -5.5258e-06 0)
(-5.59004e-09 -5.5168e-06 0)
(-5.65122e-09 -5.50765e-06 0)
(-5.70599e-09 -5.49846e-06 0)
(-5.75448e-09 -5.48913e-06 0)
(-5.79701e-09 -5.47978e-06 0)
(-5.83369e-09 -5.47032e-06 0)
(-5.86481e-09 -5.46085e-06 0)
(-5.89048e-09 -5.45129e-06 0)
(-5.91098e-09 -5.44174e-06 0)
(-5.9264e-09 -5.43211e-06 0)
(-5.937e-09 -5.42251e-06 0)
(-5.94286e-09 -5.41285e-06 0)
(-5.94423e-09 -5.40323e-06 0)
(-5.94117e-09 -5.39357e-06 0)
(-5.93393e-09 -5.38396e-06 0)
(-5.92255e-09 -5.37432e-06 0)
(-5.90727e-09 -5.36475e-06 0)
(-5.88812e-09 -5.35516e-06 0)
(-5.86533e-09 -5.34565e-06 0)
(-5.83892e-09 -5.33613e-06 0)
(-5.8091e-09 -5.32671e-06 0)
(-5.77589e-09 -5.31729e-06 0)
(-5.73949e-09 -5.30798e-06 0)
(-5.69991e-09 -5.29868e-06 0)
(-5.65735e-09 -5.28949e-06 0)
(-5.6118e-09 -5.28033e-06 0)
(-5.56345e-09 -5.27129e-06 0)
(-5.51229e-09 -5.26229e-06 0)
(-5.4585e-09 -5.25341e-06 0)
(-5.40207e-09 -5.24459e-06 0)
(-5.34317e-09 -5.23589e-06 0)
(-5.28178e-09 -5.22726e-06 0)
(-5.21806e-09 -5.21877e-06 0)
(-5.15199e-09 -5.21033e-06 0)
(-5.08373e-09 -5.20206e-06 0)
(-5.01325e-09 -5.19385e-06 0)
(-4.94069e-09 -5.1858e-06 0)
(-4.86604e-09 -5.17782e-06 0)
(-4.78943e-09 -5.17002e-06 0)
(-4.71084e-09 -5.16229e-06 0)
(-4.63039e-09 -5.15474e-06 0)
(-4.54807e-09 -5.14727e-06 0)
(-4.46398e-09 -5.13999e-06 0)
(-4.37812e-09 -5.13279e-06 0)
(-4.2906e-09 -5.12578e-06 0)
(-4.20139e-09 -5.11888e-06 0)
(-4.11061e-09 -5.11216e-06 0)
(-4.01823e-09 -5.10554e-06 0)
(-3.92435e-09 -5.09912e-06 0)
(-3.82897e-09 -5.09281e-06 0)
(-3.73218e-09 -5.0867e-06 0)
(-3.63396e-09 -5.0807e-06 0)
(-3.53441e-09 -5.07491e-06 0)
(-3.43351e-09 -5.06924e-06 0)
(-3.33136e-09 -5.06376e-06 0)
(-3.22795e-09 -5.05843e-06 0)
(-3.12336e-09 -5.05329e-06 0)
(-3.01759e-09 -5.04829e-06 0)
(-2.91071e-09 -5.04349e-06 0)
(-2.80273e-09 -5.03884e-06 0)
(-2.69372e-09 -5.03439e-06 0)
(-2.58369e-09 -5.03009e-06 0)
(-2.47271e-09 -5.026e-06 0)
(-2.36078e-09 -5.02206e-06 0)
(-2.24798e-09 -5.01833e-06 0)
(-2.13431e-09 -5.01476e-06 0)
(-2.01983e-09 -5.01139e-06 0)
(-1.90456e-09 -5.00819e-06 0)
(-1.78857e-09 -5.0052e-06 0)
(-1.67186e-09 -5.00238e-06 0)
(-1.5545e-09 -4.99976e-06 0)
(-1.43652e-09 -4.99732e-06 0)
(-1.31795e-09 -4.99508e-06 0)
(-1.19886e-09 -4.99302e-06 0)
(-1.0793e-09 -4.9912e-06 0)
(-9.59332e-10 -4.98943e-06 0)
(-8.39062e-10 -4.98831e-06 0)
(-7.18525e-10 -4.98587e-06 0)
(-5.9803e-10 -4.98858e-06 0)
(-4.77052e-10 -4.97473e-06 0)
(-3.57357e-10 -5.01453e-06 0)
(-2.34003e-10 -4.86394e-06 0)
(-1.19412e-10 -5.26315e-06 0)
(-3.46504e-11 -4.59674e-06 0)
)
;
    }
    bottomWall
    {
        type            calculated;
        value           nonuniform List<vector> 
449
(
(-52.7047 -0.95558 0)
(-34.7366 -0.00279813 0)
(-34.3501 -0.000254081 0)
(-32.9884 -0.000363269 0)
(-31.863 -0.000315188 0)
(-30.8266 -0.00028424 0)
(-29.9095 -0.000249263 0)
(-29.1098 -0.000217334 0)
(-28.4093 -0.000190775 0)
(-27.7901 -0.000169011 0)
(-27.2375 -0.000150997 0)
(-26.7408 -0.000135897 0)
(-26.2911 -0.000123245 0)
(-25.8805 -0.000112563 0)
(-25.5035 -0.000103348 0)
(-25.1558 -9.5343e-05 0)
(-24.8334 -8.83506e-05 0)
(-24.5334 -8.2214e-05 0)
(-24.2529 -7.68081e-05 0)
(-23.9898 -7.19882e-05 0)
(-23.7423 -6.76656e-05 0)
(-23.5087 -6.37779e-05 0)
(-23.2878 -6.02705e-05 0)
(-23.0782 -5.70869e-05 0)
(-22.879 -5.41886e-05 0)
(-22.6894 -5.1529e-05 0)
(-22.5084 -4.90909e-05 0)
(-22.3355 -4.68495e-05 0)
(-22.1699 -4.4782e-05 0)
(-22.0111 -4.28642e-05 0)
(-21.8587 -4.10869e-05 0)
(-21.7121 -3.94333e-05 0)
(-21.571 -3.78951e-05 0)
(-21.4351 -3.64553e-05 0)
(-21.3039 -3.511e-05 0)
(-21.1772 -3.38468e-05 0)
(-21.0547 -3.26647e-05 0)
(-20.9361 -3.15553e-05 0)
(-20.8213 -3.05102e-05 0)
(-20.7099 -2.95243e-05 0)
(-20.6019 -2.85939e-05 0)
(-20.4969 -2.77149e-05 0)
(-20.3949 -2.68817e-05 0)
(-20.2958 -2.60874e-05 0)
(-20.1993 -2.53296e-05 0)
(-20.1053 -2.46052e-05 0)
(-20.0138 -2.3913e-05 0)
(-19.9247 -2.32533e-05 0)
(-19.8377 -2.26169e-05 0)
(-19.753 -2.20139e-05 0)
(-19.6703 -2.14351e-05 0)
(-19.5896 -2.08809e-05 0)
(-19.5107 -2.03563e-05 0)
(-19.4336 -1.98478e-05 0)
(-19.3583 -1.93668e-05 0)
(-19.2845 -1.89033e-05 0)
(-19.2124 -1.84621e-05 0)
(-19.1418 -1.80376e-05 0)
(-19.0726 -1.76312e-05 0)
(-19.0048 -1.72397e-05 0)
(-18.9383 -1.68642e-05 0)
(-18.8731 -1.65025e-05 0)
(-18.8092 -1.61541e-05 0)
(-18.7464 -1.58193e-05 0)
(-18.6849 -1.54951e-05 0)
(-18.6243 -1.51845e-05 0)
(-18.5649 -1.48814e-05 0)
(-18.5065 -1.45923e-05 0)
(-18.4491 -1.43084e-05 0)
(-18.3927 -1.40379e-05 0)
(-18.3372 -1.37725e-05 0)
(-18.2826 -1.35172e-05 0)
(-18.2289 -1.32702e-05 0)
(-18.1761 -1.30277e-05 0)
(-18.1241 -1.27971e-05 0)
(-18.0729 -1.25683e-05 0)
(-18.0224 -1.23498e-05 0)
(-17.9728 -1.21358e-05 0)
(-17.9239 -1.1927e-05 0)
(-17.8756 -1.17272e-05 0)
(-17.8281 -1.15289e-05 0)
(-17.7813 -1.1339e-05 0)
(-17.7351 -1.11535e-05 0)
(-17.6896 -1.09711e-05 0)
(-17.6447 -1.07965e-05 0)
(-17.6005 -1.06241e-05 0)
(-17.5568 -1.04567e-05 0)
(-17.5137 -1.02949e-05 0)
(-17.4712 -1.01351e-05 0)
(-17.4292 -9.98069e-06 0)
(-17.3878 -9.83035e-06 0)
(-17.3469 -9.68228e-06 0)
(-17.3065 -9.53926e-06 0)
(-17.2666 -9.39938e-06 0)
(-17.2272 -9.26186e-06 0)
(-17.1883 -9.12893e-06 0)
(-17.1498 -8.99862e-06 0)
(-17.1118 -8.8707e-06 0)
(-17.0743 -8.74673e-06 0)
(-17.0372 -8.62529e-06 0)
(-17.0005 -8.50596e-06 0)
(-16.9642 -8.3902e-06 0)
(-16.9284 -8.27671e-06 0)
(-16.8929 -8.1653e-06 0)
(-16.8578 -8.05675e-06 0)
(-16.8232 -7.95067e-06 0)
(-16.7889 -7.84629e-06 0)
(-16.7549 -7.7445e-06 0)
(-16.7213 -7.64499e-06 0)
(-16.6881 -7.54719e-06 0)
(-16.6552 -7.45147e-06 0)
(-16.6227 -7.35806e-06 0)
(-16.5905 -7.2662e-06 0)
(-16.5586 -7.17617e-06 0)
(-16.527 -7.08815e-06 0)
(-16.4958 -7.00178e-06 0)
(-16.4648 -6.91693e-06 0)
(-16.4342 -6.83385e-06 0)
(-16.4038 -6.75246e-06 0)
(-16.3738 -6.67248e-06 0)
(-16.344 -6.59404e-06 0)
(-16.3145 -6.51717e-06 0)
(-16.2853 -6.44168e-06 0)
(-16.2563 -6.3675e-06 0)
(-16.2276 -6.29477e-06 0)
(-16.1992 -6.22338e-06 0)
(-16.171 -6.15321e-06 0)
(-16.1431 -6.08424e-06 0)
(-16.1154 -6.01662e-06 0)
(-16.088 -5.95005e-06 0)
(-16.0608 -5.88474e-06 0)
(-16.0338 -5.82045e-06 0)
(-16.0071 -5.75745e-06 0)
(-15.9806 -5.69537e-06 0)
(-15.9543 -5.63448e-06 0)
(-15.9283 -5.57447e-06 0)
(-15.9024 -5.51561e-06 0)
(-15.8768 -5.45755e-06 0)
(-15.8514 -5.40061e-06 0)
(-15.8261 -5.3444e-06 0)
(-15.8011 -5.28931e-06 0)
(-15.7763 -5.23491e-06 0)
(-15.7517 -5.1816e-06 0)
(-15.7273 -5.1289e-06 0)
(-15.703 -5.07728e-06 0)
(-15.679 -5.02626e-06 0)
(-15.6551 -4.97625e-06 0)
(-15.6314 -4.92682e-06 0)
(-15.6079 -4.87831e-06 0)
(-15.5846 -4.83045e-06 0)
(-15.5614 -4.78335e-06 0)
(-15.5384 -4.73693e-06 0)
(-15.5156 -4.69118e-06 0)
(-15.493 -4.64617e-06 0)
(-15.4705 -4.60174e-06 0)
(-15.4482 -4.55807e-06 0)
(-15.426 -4.5149e-06 0)
(-15.404 -4.4725e-06 0)
(-15.3821 -4.43061e-06 0)
(-15.3604 -4.38944e-06 0)
(-15.3389 -4.34869e-06 0)
(-15.3175 -4.3087e-06 0)
(-15.2962 -4.26914e-06 0)
(-15.2751 -4.23026e-06 0)
(-15.2542 -4.19182e-06 0)
(-15.2333 -4.15399e-06 0)
(-15.2126 -4.11664e-06 0)
(-15.1921 -4.07978e-06 0)
(-15.1717 -4.04355e-06 0)
(-15.1514 -4.00753e-06 0)
(-15.1313 -3.97237e-06 0)
(-15.1112 -3.93736e-06 0)
(-15.0914 -3.90121e-06 0)
(-15.0727 -3.87173e-06 0)
(-15.0551 -3.84484e-06 0)
(-15.0375 -3.81355e-06 0)
(-15.0199 -3.7829e-06 0)
(-15.0022 -3.75282e-06 0)
(-14.9844 -3.7227e-06 0)
(-14.9666 -3.69293e-06 0)
(-14.9488 -3.66322e-06 0)
(-14.9309 -3.63374e-06 0)
(-14.9129 -3.60435e-06 0)
(-14.895 -3.5751e-06 0)
(-14.8769 -3.54598e-06 0)
(-14.8588 -3.51698e-06 0)
(-14.8407 -3.48815e-06 0)
(-14.8225 -3.45938e-06 0)
(-14.8043 -3.43078e-06 0)
(-14.786 -3.40219e-06 0)
(-14.7677 -3.3739e-06 0)
(-14.7493 -3.34563e-06 0)
(-14.7309 -3.31756e-06 0)
(-14.7125 -3.28948e-06 0)
(-14.694 -3.26165e-06 0)
(-14.6754 -3.23385e-06 0)
(-14.6569 -3.20626e-06 0)
(-14.6382 -3.1787e-06 0)
(-14.6196 -3.15133e-06 0)
(-14.6009 -3.12407e-06 0)
(-14.5822 -3.097e-06 0)
(-14.5634 -3.07002e-06 0)
(-14.5446 -3.04317e-06 0)
(-14.5257 -3.01641e-06 0)
(-14.5068 -2.98986e-06 0)
(-14.4879 -2.96337e-06 0)
(-14.4689 -2.9371e-06 0)
(-14.4499 -2.91083e-06 0)
(-14.4309 -2.88483e-06 0)
(-14.4118 -2.85884e-06 0)
(-14.3927 -2.83312e-06 0)
(-14.3736 -2.80739e-06 0)
(-14.3545 -2.78193e-06 0)
(-14.3352 -2.75651e-06 0)
(-14.316 -2.73135e-06 0)
(-14.2968 -2.70626e-06 0)
(-14.2775 -2.68133e-06 0)
(-14.2581 -2.65655e-06 0)
(-14.2388 -2.63188e-06 0)
(-14.2194 -2.60741e-06 0)
(-14.2 -2.58297e-06 0)
(-14.1806 -2.55879e-06 0)
(-14.1611 -2.53467e-06 0)
(-14.1416 -2.51076e-06 0)
(-14.1221 -2.48689e-06 0)
(-14.1026 -2.46325e-06 0)
(-14.0831 -2.43966e-06 0)
(-14.0635 -2.41643e-06 0)
(-14.0439 -2.39305e-06 0)
(-14.0242 -2.37009e-06 0)
(-14.0046 -2.34707e-06 0)
(-13.9849 -2.32441e-06 0)
(-13.9652 -2.30165e-06 0)
(-13.9455 -2.27927e-06 0)
(-13.9258 -2.25683e-06 0)
(-13.9061 -2.23474e-06 0)
(-13.8863 -2.21257e-06 0)
(-13.8665 -2.19076e-06 0)
(-13.8467 -2.16887e-06 0)
(-13.8269 -2.1474e-06 0)
(-13.8071 -2.12582e-06 0)
(-13.7872 -2.10463e-06 0)
(-13.7674 -2.08336e-06 0)
(-13.7475 -2.06255e-06 0)
(-13.7276 -2.04154e-06 0)
(-13.7077 -2.02095e-06 0)
(-13.6878 -2.00028e-06 0)
(-13.6679 -1.98e-06 0)
(-13.6479 -1.95958e-06 0)
(-13.628 -1.93957e-06 0)
(-13.608 -1.91949e-06 0)
(-13.5881 -1.89982e-06 0)
(-13.5681 -1.88002e-06 0)
(-13.5481 -1.8606e-06 0)
(-13.5281 -1.84115e-06 0)
(-13.5082 -1.82201e-06 0)
(-13.4882 -1.80287e-06 0)
(-13.4682 -1.78398e-06 0)
(-13.4481 -1.76518e-06 0)
(-13.4282 -1.74657e-06 0)
(-13.4081 -1.72804e-06 0)
(-13.3881 -1.70971e-06 0)
(-13.3681 -1.69153e-06 0)
(-13.3481 -1.67348e-06 0)
(-13.328 -1.65553e-06 0)
(-13.308 -1.63778e-06 0)
(-13.288 -1.62017e-06 0)
(-13.268 -1.60267e-06 0)
(-13.2479 -1.58535e-06 0)
(-13.228 -1.56818e-06 0)
(-13.2079 -1.55117e-06 0)
(-13.1879 -1.53421e-06 0)
(-13.1679 -1.51746e-06 0)
(-13.1479 -1.50082e-06 0)
(-13.1279 -1.48447e-06 0)
(-13.1079 -1.46801e-06 0)
(-13.0879 -1.45191e-06 0)
(-13.0679 -1.43577e-06 0)
(-13.0479 -1.41996e-06 0)
(-13.028 -1.40405e-06 0)
(-13.008 -1.38853e-06 0)
(-12.988 -1.37298e-06 0)
(-12.9681 -1.35771e-06 0)
(-12.9482 -1.34236e-06 0)
(-12.9282 -1.32741e-06 0)
(-12.9083 -1.31234e-06 0)
(-12.8884 -1.29763e-06 0)
(-12.8685 -1.2828e-06 0)
(-12.8486 -1.26841e-06 0)
(-12.8287 -1.25384e-06 0)
(-12.8088 -1.23971e-06 0)
(-12.789 -1.22545e-06 0)
(-12.7692 -1.21155e-06 0)
(-12.7493 -1.19752e-06 0)
(-12.7295 -1.18393e-06 0)
(-12.7097 -1.17014e-06 0)
(-12.69 -1.1568e-06 0)
(-12.6702 -1.14329e-06 0)
(-12.6505 -1.13014e-06 0)
(-12.6307 -1.11695e-06 0)
(-12.611 -1.10406e-06 0)
(-12.5913 -1.09109e-06 0)
(-12.5717 -1.07848e-06 0)
(-12.552 -1.06577e-06 0)
(-12.5324 -1.05336e-06 0)
(-12.5127 -1.04084e-06 0)
(-12.4932 -1.02869e-06 0)
(-12.4736 -1.01652e-06 0)
(-12.454 -1.00459e-06 0)
(-12.4345 -9.9264e-07 0)
(-12.415 -9.80922e-07 0)
(-12.3955 -9.69213e-07 0)
(-12.376 -9.57728e-07 0)
(-12.3565 -9.46274e-07 0)
(-12.3372 -9.34972e-07 0)
(-12.3177 -9.23752e-07 0)
(-12.2984 -9.12688e-07 0)
(-12.279 -9.01714e-07 0)
(-12.2597 -8.90873e-07 0)
(-12.2404 -8.80114e-07 0)
(-12.2211 -8.69498e-07 0)
(-12.2019 -8.59002e-07 0)
(-12.1827 -8.48587e-07 0)
(-12.1634 -8.38283e-07 0)
(-12.1443 -8.28073e-07 0)
(-12.1251 -8.18023e-07 0)
(-12.1061 -8.08015e-07 0)
(-12.0869 -7.98169e-07 0)
(-12.0679 -7.88352e-07 0)
(-12.0489 -7.78732e-07 0)
(-12.0299 -7.69129e-07 0)
(-12.0109 -7.59694e-07 0)
(-11.992 -7.50264e-07 0)
(-11.973 -7.41077e-07 0)
(-11.9542 -7.31847e-07 0)
(-11.9353 -7.22844e-07 0)
(-11.9166 -7.13789e-07 0)
(-11.8977 -7.05012e-07 0)
(-11.879 -6.96176e-07 0)
(-11.8603 -6.87579e-07 0)
(-11.8416 -6.78945e-07 0)
(-11.8229 -6.70535e-07 0)
(-11.8043 -6.62079e-07 0)
(-11.7857 -6.53846e-07 0)
(-11.7672 -6.45587e-07 0)
(-11.7487 -6.37514e-07 0)
(-11.7302 -6.29461e-07 0)
(-11.7117 -6.21528e-07 0)
(-11.6933 -6.13681e-07 0)
(-11.6749 -6.05895e-07 0)
(-11.6566 -5.98246e-07 0)
(-11.6383 -5.90528e-07 0)
(-11.62 -5.83168e-07 0)
(-11.6018 -5.75591e-07 0)
(-11.5816 -5.66656e-07 0)
(-11.5596 -5.57491e-07 0)
(-11.5379 -5.49297e-07 0)
(-11.5166 -5.41313e-07 0)
(-11.4956 -5.3334e-07 0)
(-11.4748 -5.25579e-07 0)
(-11.4544 -5.18005e-07 0)
(-11.4343 -5.10581e-07 0)
(-11.4145 -5.03353e-07 0)
(-11.3949 -4.9631e-07 0)
(-11.3756 -4.89407e-07 0)
(-11.3566 -4.82663e-07 0)
(-11.3378 -4.7609e-07 0)
(-11.3193 -4.69674e-07 0)
(-11.3011 -4.63373e-07 0)
(-11.283 -4.57279e-07 0)
(-11.2653 -4.51258e-07 0)
(-11.2477 -4.45417e-07 0)
(-11.2304 -4.39647e-07 0)
(-11.2133 -4.34068e-07 0)
(-11.1964 -4.28565e-07 0)
(-11.1797 -4.23235e-07 0)
(-11.1633 -4.17961e-07 0)
(-11.147 -4.12839e-07 0)
(-11.131 -4.07798e-07 0)
(-11.1151 -4.02876e-07 0)
(-11.0995 -3.98084e-07 0)
(-11.084 -3.9335e-07 0)
(-11.0687 -3.88721e-07 0)
(-11.0535 -3.84206e-07 0)
(-11.0386 -3.79766e-07 0)
(-11.0238 -3.75401e-07 0)
(-11.0092 -3.71145e-07 0)
(-10.9948 -3.66974e-07 0)
(-10.9805 -3.62903e-07 0)
(-10.9663 -3.58903e-07 0)
(-10.9524 -3.54968e-07 0)
(-10.9386 -3.5112e-07 0)
(-10.9249 -3.47334e-07 0)
(-10.9114 -3.43633e-07 0)
(-10.898 -3.39983e-07 0)
(-10.8848 -3.36402e-07 0)
(-10.8717 -3.32898e-07 0)
(-10.8587 -3.29456e-07 0)
(-10.8459 -3.26055e-07 0)
(-10.8332 -3.22752e-07 0)
(-10.8207 -3.1947e-07 0)
(-10.8082 -3.16287e-07 0)
(-10.7959 -3.13121e-07 0)
(-10.7837 -3.10046e-07 0)
(-10.7716 -3.0699e-07 0)
(-10.7597 -3.04047e-07 0)
(-10.7478 -3.0111e-07 0)
(-10.7361 -2.98228e-07 0)
(-10.7245 -2.95412e-07 0)
(-10.713 -2.92632e-07 0)
(-10.7016 -2.89903e-07 0)
(-10.6903 -2.8721e-07 0)
(-10.6791 -2.84579e-07 0)
(-10.668 -2.8196e-07 0)
(-10.657 -2.79448e-07 0)
(-10.6461 -2.76905e-07 0)
(-10.6354 -2.74501e-07 0)
(-10.6247 -2.72e-07 0)
(-10.6141 -2.69721e-07 0)
(-10.6035 -2.67274e-07 0)
(-10.5932 -2.65105e-07 0)
(-10.5828 -2.62664e-07 0)
(-10.5726 -2.60661e-07 0)
(-10.5624 -2.58221e-07 0)
(-10.5524 -2.56341e-07 0)
(-10.5423 -2.53925e-07 0)
(-10.5325 -2.52221e-07 0)
(-10.5226 -2.49799e-07 0)
(-10.513 -2.48285e-07 0)
(-10.5032 -2.45838e-07 0)
(-10.4937 -2.44515e-07 0)
(-10.484 -2.42079e-07 0)
(-10.4748 -2.40895e-07 0)
(-10.4652 -2.38503e-07 0)
(-10.4561 -2.37402e-07 0)
(-10.4466 -2.35196e-07 0)
(-10.4377 -2.34027e-07 0)
(-10.4283 -2.32322e-07 0)
(-10.4195 -2.30592e-07 0)
(-10.4102 -2.30331e-07 0)
(-10.4015 -2.26439e-07 0)
(-10.3925 -2.30628e-07 0)
(-10.3834 -2.19298e-07 0)
(-10.3754 -2.37107e-07 0)
(-10.3648 -2.02529e-07 0)
(-10.3596 -2.5638e-07 0)
(-10.3446 -1.69161e-07 0)
(-10.3467 -2.30518e-07 0)
(-10.3262 -2.6885e-07 0)
)
;
    }
    symmetry
    {
        type            symmetryPlane;
    }
    frontAndBack
    {
        type            empty;
    }
}


// ************************************************************************* //
