/*--------------------------------*- C++ -*----------------------------------*\
| =========                 |                                                 |
| \\      /  F ield         | OpenFOAM: The Open Source CFD Toolbox           |
|  \\    /   O peration     | Version:  v2012                                 |
|   \\  /    A nd           | Website:  www.openfoam.com                      |
|    \\/     M anipulation  |                                                 |
\*---------------------------------------------------------------------------*/
FoamFile
{
    version     2.0;
    format      ascii;
    class       volScalarField;
    location    "0.5";
    object      epsilon;
}
// * * * * * * * * * * * * * * * * * * * * * * * * * * * * * * * * * * * * * //

dimensions      [0 2 -3 0 0 0 0];


internalField   nonuniform List<scalar> 
209825
(
0.841106
0.841093
0.841093
0.841093
0.841093
0.841093
0.841093
0.841093
0.841093
0.841093
0.841093
0.841093
0.841093
0.841093
0.841093
0.841093
0.841093
0.841093
0.841093
0.841093
0.841093
0.841093
0.841093
0.841093
0.841093
0.841093
0.841093
0.841093
0.841093
0.841093
0.841093
0.841094
0.841094
0.841094
0.841094
0.841094
0.841094
0.841094
0.841094
0.841094
0.841094
0.841095
0.841095
0.841095
0.841095
0.841095
0.841095
0.841095
0.841095
0.841095
0.841095
0.841095
0.841095
0.841095
0.841095
0.841095
0.841095
0.841095
0.841095
0.841095
0.841095
0.841095
0.841095
0.841095
0.841095
0.841095
0.841095
0.841095
0.841095
0.841095
0.841095
0.841095
0.841096
0.841096
0.841096
0.841095
0.841096
0.841096
0.841096
0.841096
0.841095
0.841095
0.841095
0.841095
0.841095
0.841095
0.841095
0.841095
0.841097
0.841097
0.841097
0.841102
0.841107
0.841122
0.847225
70.2175
0.841113
0.8411
0.8411
0.8411
0.8411
0.8411
0.8411
0.8411
0.8411
0.8411
0.8411
0.8411
0.8411
0.8411
0.8411
0.8411
0.8411
0.8411
0.8411
0.8411
0.8411
0.8411
0.8411
0.8411
0.8411
0.8411
0.8411
0.841101
0.841101
0.841101
0.841101
0.841101
0.841101
0.841101
0.841101
0.841101
0.841101
0.841101
0.841101
0.841102
0.841102
0.841102
0.841102
0.841102
0.841102
0.841102
0.841102
0.841102
0.841102
0.841102
0.841102
0.841102
0.841102
0.841102
0.841102
0.841102
0.841102
0.841102
0.841102
0.841102
0.841102
0.841102
0.841102
0.841102
0.841102
0.841102
0.841102
0.841102
0.841102
0.841102
0.841102
0.841102
0.841103
0.841103
0.841103
0.841102
0.841103
0.841103
0.841103
0.841103
0.841103
0.841102
0.841102
0.841102
0.841102
0.841102
0.841103
0.841103
0.841104
0.841104
0.841104
0.841109
0.841115
0.841129
0.84728
69.0409
0.841099
0.841085
0.841085
0.841085
0.841085
0.841085
0.841085
0.841085
0.841085
0.841085
0.841085
0.841085
0.841085
0.841085
0.841085
0.841085
0.841085
0.841085
0.841085
0.841085
0.841085
0.841085
0.841085
0.841086
0.841086
0.841086
0.841086
0.841086
0.841086
0.841086
0.841086
0.841086
0.841086
0.841086
0.841086
0.841086
0.841086
0.841086
0.841086
0.841087
0.841087
0.841087
0.841087
0.841087
0.841087
0.841087
0.841087
0.841087
0.841087
0.841087
0.841087
0.841087
0.841087
0.841087
0.841087
0.841087
0.841087
0.841087
0.841087
0.841087
0.841087
0.841087
0.841087
0.841087
0.841087
0.841087
0.841087
0.841087
0.841088
0.841087
0.841088
0.841087
0.841088
0.841088
0.841088
0.841087
0.841088
0.841088
0.841088
0.841088
0.841088
0.841087
0.841087
0.841087
0.841088
0.841087
0.841088
0.841088
0.841089
0.841089
0.841089
0.841094
0.8411
0.841115
0.847326
67.6785
0.841068
0.841054
0.841054
0.841054
0.841054
0.841054
0.841054
0.841054
0.841054
0.841054
0.841054
0.841054
0.841054
0.841054
0.841054
0.841054
0.841054
0.841054
0.841054
0.841054
0.841054
0.841055
0.841055
0.841055
0.841055
0.841055
0.841055
0.841055
0.841055
0.841055
0.841055
0.841055
0.841055
0.841055
0.841055
0.841055
0.841055
0.841056
0.841056
0.841056
0.841056
0.841056
0.841056
0.841056
0.841056
0.841056
0.841056
0.841056
0.841056
0.841056
0.841057
0.841057
0.841057
0.841056
0.841056
0.841056
0.841056
0.841056
0.841056
0.841056
0.841057
0.841056
0.841057
0.841057
0.841057
0.841057
0.841057
0.841057
0.841057
0.841057
0.841057
0.841057
0.841058
0.841058
0.841057
0.841056
0.841057
0.841057
0.841057
0.841057
0.841057
0.841056
0.841057
0.841057
0.841057
0.841057
0.841057
0.841057
0.841058
0.841058
0.841059
0.841064
0.84107
0.841085
0.847336
66.3114
0.841023
0.841008
0.841008
0.841008
0.841008
0.841008
0.841008
0.841008
0.841008
0.841008
0.841008
0.841008
0.841008
0.841008
0.841008
0.841008
0.841008
0.841008
0.841008
0.841008
0.841008
0.841009
0.841009
0.841009
0.841009
0.841009
0.841009
0.841009
0.841009
0.841009
0.841009
0.841009
0.841009
0.841009
0.841009
0.841009
0.841009
0.84101
0.84101
0.84101
0.84101
0.84101
0.84101
0.84101
0.84101
0.841011
0.841011
0.841011
0.841011
0.841011
0.841011
0.841011
0.841011
0.841011
0.841011
0.84101
0.841011
0.841011
0.841011
0.841011
0.841011
0.841011
0.841011
0.841011
0.841011
0.841011
0.841011
0.841011
0.841011
0.841011
0.841011
0.841011
0.841012
0.841012
0.841012
0.84101
0.841011
0.841011
0.841011
0.841011
0.841011
0.84101
0.841011
0.841011
0.841011
0.841011
0.841011
0.841011
0.841013
0.841013
0.841013
0.841018
0.841025
0.841039
0.847306
65.021
0.840964
0.840948
0.840948
0.840948
0.840948
0.840948
0.840948
0.840948
0.840948
0.840948
0.840948
0.840948
0.840948
0.840948
0.840948
0.840948
0.840948
0.840948
0.840948
0.840948
0.840948
0.840948
0.840948
0.840948
0.840948
0.840948
0.840948
0.840948
0.840948
0.840949
0.840949
0.840949
0.840949
0.840949
0.840949
0.840949
0.840949
0.840949
0.840949
0.84095
0.84095
0.84095
0.84095
0.84095
0.84095
0.84095
0.84095
0.84095
0.84095
0.84095
0.84095
0.84095
0.84095
0.84095
0.84095
0.84095
0.84095
0.84095
0.84095
0.84095
0.84095
0.84095
0.840951
0.840951
0.840951
0.840951
0.840951
0.840951
0.840951
0.840951
0.840951
0.840951
0.840952
0.840952
0.840951
0.84095
0.840951
0.840951
0.840951
0.840951
0.840951
0.84095
0.84095
0.84095
0.840951
0.840951
0.840951
0.840951
0.840953
0.840953
0.840953
0.840958
0.840965
0.84098
0.847236
63.8312
0.840891
0.840874
0.840873
0.840874
0.840874
0.840874
0.840874
0.840874
0.840874
0.840874
0.840874
0.840874
0.840874
0.840874
0.840874
0.840874
0.840874
0.840874
0.840874
0.840874
0.840874
0.840874
0.840874
0.840874
0.840874
0.840874
0.840874
0.840874
0.840874
0.840875
0.840875
0.840875
0.840875
0.840875
0.840875
0.840875
0.840875
0.840875
0.840875
0.840876
0.840876
0.840876
0.840876
0.840876
0.840876
0.840876
0.840877
0.840877
0.840877
0.840876
0.840877
0.840877
0.840877
0.840877
0.840877
0.840876
0.840877
0.840876
0.840877
0.840876
0.840877
0.840876
0.840877
0.840877
0.840877
0.840877
0.840877
0.840877
0.840877
0.840877
0.840877
0.840877
0.840878
0.840878
0.840878
0.840876
0.840878
0.840878
0.840878
0.840877
0.840877
0.840876
0.840877
0.840877
0.840877
0.840877
0.840877
0.840877
0.840879
0.840879
0.840879
0.840885
0.840892
0.840907
0.847123
62.7314
0.840805
0.840787
0.840786
0.840786
0.840786
0.840786
0.840786
0.840787
0.840787
0.840787
0.840787
0.840787
0.840787
0.840787
0.840787
0.840787
0.840787
0.840787
0.840787
0.840787
0.840787
0.840787
0.840787
0.840787
0.840787
0.840787
0.840787
0.840787
0.840787
0.840787
0.840787
0.840788
0.840788
0.840788
0.840788
0.840788
0.840788
0.840788
0.840788
0.840789
0.840789
0.840789
0.840789
0.840789
0.840789
0.840789
0.84079
0.84079
0.84079
0.840789
0.84079
0.84079
0.84079
0.84079
0.84079
0.840789
0.84079
0.84079
0.84079
0.840789
0.84079
0.84079
0.84079
0.84079
0.84079
0.84079
0.84079
0.84079
0.84079
0.84079
0.84079
0.84079
0.840791
0.840791
0.840791
0.84079
0.840791
0.840791
0.840791
0.840791
0.84079
0.84079
0.84079
0.84079
0.84079
0.84079
0.84079
0.84079
0.840792
0.840792
0.840792
0.840798
0.840806
0.840821
0.846969
61.6895
0.840707
0.840687
0.840686
0.840686
0.840686
0.840687
0.840687
0.840687
0.840687
0.840687
0.840687
0.840687
0.840687
0.840687
0.840687
0.840687
0.840687
0.840687
0.840687
0.840687
0.840687
0.840687
0.840687
0.840687
0.840687
0.840687
0.840687
0.840687
0.840687
0.840688
0.840688
0.840688
0.840688
0.840688
0.840688
0.840688
0.840688
0.840689
0.840689
0.840689
0.840689
0.840689
0.840689
0.84069
0.84069
0.84069
0.84069
0.84069
0.84069
0.84069
0.84069
0.84069
0.84069
0.84069
0.84069
0.84069
0.84069
0.84069
0.84069
0.84069
0.84069
0.84069
0.84069
0.84069
0.84069
0.84069
0.84069
0.84069
0.84069
0.84069
0.84069
0.840691
0.840692
0.840692
0.840691
0.84069
0.840691
0.840691
0.840691
0.840691
0.840691
0.84069
0.84069
0.84069
0.84069
0.84069
0.840691
0.840691
0.840692
0.840692
0.840693
0.840699
0.840707
0.840722
0.846775
60.6594
0.840596
0.840575
0.840574
0.840574
0.840574
0.840574
0.840574
0.840574
0.840574
0.840574
0.840574
0.840574
0.840574
0.840574
0.840574
0.840574
0.840574
0.840575
0.840575
0.840575
0.840575
0.840575
0.840575
0.840575
0.840575
0.840575
0.840575
0.840575
0.840575
0.840575
0.840575
0.840576
0.840576
0.840576
0.840576
0.840576
0.840576
0.840576
0.840576
0.840577
0.840577
0.840577
0.840577
0.840577
0.840578
0.840578
0.840578
0.840578
0.840578
0.840578
0.840578
0.840578
0.840578
0.840578
0.840578
0.840578
0.840578
0.840578
0.840578
0.840578
0.840578
0.840578
0.840578
0.840578
0.840578
0.840578
0.840578
0.840578
0.840578
0.840578
0.840578
0.840579
0.84058
0.84058
0.840579
0.840578
0.840579
0.840579
0.840579
0.840579
0.840579
0.840578
0.840578
0.840578
0.840578
0.840578
0.840579
0.840579
0.84058
0.84058
0.840581
0.840588
0.840596
0.840611
0.84654
59.5879
0.840474
0.84045
0.840449
0.84045
0.84045
0.84045
0.84045
0.84045
0.84045
0.84045
0.84045
0.84045
0.84045
0.84045
0.84045
0.84045
0.84045
0.84045
0.84045
0.84045
0.84045
0.84045
0.84045
0.84045
0.84045
0.840451
0.840451
0.840451
0.840451
0.840451
0.840451
0.840451
0.840451
0.840451
0.840451
0.840452
0.840452
0.840452
0.840452
0.840453
0.840453
0.840453
0.840453
0.840453
0.840453
0.840453
0.840454
0.840454
0.840454
0.840454
0.840454
0.840454
0.840454
0.840454
0.840454
0.840454
0.840454
0.840454
0.840454
0.840454
0.840454
0.840454
0.840454
0.840454
0.840454
0.840454
0.840454
0.840454
0.840454
0.840454
0.840454
0.840455
0.840456
0.840455
0.840455
0.840454
0.840455
0.840455
0.840455
0.840455
0.840455
0.840454
0.840454
0.840454
0.840454
0.840454
0.840455
0.840455
0.840456
0.840456
0.840458
0.840464
0.840473
0.840489
0.846268
58.4208
0.84034
0.840314
0.840313
0.840313
0.840313
0.840313
0.840313
0.840313
0.840313
0.840313
0.840313
0.840313
0.840313
0.840313
0.840313
0.840313
0.840313
0.840313
0.840313
0.840314
0.840314
0.840314
0.840314
0.840314
0.840314
0.840314
0.840314
0.840314
0.840314
0.840315
0.840315
0.840315
0.840315
0.840315
0.840315
0.840315
0.840315
0.840316
0.840316
0.840316
0.840316
0.840317
0.840317
0.840317
0.840317
0.840317
0.840317
0.840318
0.840318
0.840318
0.840318
0.840318
0.840318
0.840317
0.840318
0.840317
0.840318
0.840318
0.840318
0.840317
0.840318
0.840318
0.840318
0.840318
0.840318
0.840318
0.840318
0.840318
0.840318
0.840318
0.840318
0.840319
0.84032
0.840319
0.840319
0.840318
0.840319
0.840319
0.840319
0.840319
0.840319
0.840319
0.840318
0.840318
0.840318
0.840318
0.840319
0.840319
0.84032
0.84032
0.840322
0.840329
0.840338
0.840354
0.845959
57.1078
0.840195
0.840165
0.840164
0.840164
0.840164
0.840164
0.840164
0.840165
0.840165
0.840165
0.840165
0.840165
0.840165
0.840165
0.840165
0.840165
0.840165
0.840165
0.840165
0.840165
0.840165
0.840165
0.840165
0.840165
0.840165
0.840166
0.840166
0.840166
0.840166
0.840166
0.840166
0.840166
0.840166
0.840167
0.840167
0.840167
0.840167
0.840168
0.840168
0.840168
0.840168
0.840169
0.840169
0.840169
0.840169
0.840169
0.840169
0.840169
0.84017
0.84017
0.84017
0.84017
0.84017
0.840169
0.84017
0.840169
0.84017
0.84017
0.84017
0.840169
0.84017
0.840169
0.84017
0.84017
0.84017
0.84017
0.84017
0.84017
0.84017
0.84017
0.84017
0.840171
0.840172
0.840172
0.840171
0.84017
0.840171
0.840171
0.840171
0.840171
0.840171
0.840171
0.840171
0.84017
0.84017
0.84017
0.840172
0.840172
0.840172
0.840172
0.840175
0.840181
0.840191
0.840207
0.845617
55.6068
0.840037
0.840005
0.840003
0.840004
0.840004
0.840004
0.840004
0.840004
0.840004
0.840004
0.840004
0.840004
0.840004
0.840004
0.840004
0.840004
0.840004
0.840004
0.840004
0.840005
0.840005
0.840005
0.840005
0.840005
0.840005
0.840005
0.840005
0.840005
0.840005
0.840006
0.840006
0.840006
0.840006
0.840006
0.840006
0.840007
0.840007
0.840007
0.840007
0.840008
0.840008
0.840008
0.840008
0.840009
0.840009
0.840009
0.840009
0.840009
0.84001
0.84001
0.84001
0.84001
0.84001
0.840009
0.84001
0.84001
0.84001
0.84001
0.84001
0.840009
0.84001
0.840009
0.84001
0.84001
0.84001
0.84001
0.84001
0.84001
0.84001
0.84001
0.84001
0.840012
0.840012
0.840012
0.840012
0.84001
0.840011
0.840011
0.840011
0.840011
0.840011
0.840011
0.840011
0.84001
0.84001
0.84001
0.840012
0.840012
0.840013
0.840012
0.840016
0.840022
0.840033
0.840049
0.845244
53.8867
0.839868
0.839832
0.839831
0.839831
0.839831
0.839831
0.839831
0.839831
0.839831
0.839831
0.839831
0.839831
0.839831
0.839831
0.839831
0.839832
0.839832
0.839832
0.839832
0.839832
0.839832
0.839832
0.839832
0.839832
0.839832
0.839833
0.839833
0.839833
0.839833
0.839833
0.839833
0.839834
0.839834
0.839834
0.839834
0.839834
0.839834
0.839835
0.839835
0.839836
0.839836
0.839836
0.839836
0.839837
0.839837
0.839837
0.839837
0.839837
0.839838
0.839838
0.839838
0.839838
0.839838
0.839837
0.839838
0.839837
0.839838
0.839838
0.839838
0.839837
0.839838
0.839837
0.839838
0.839838
0.839838
0.839838
0.839838
0.839838
0.839838
0.839839
0.839838
0.83984
0.83984
0.83984
0.83984
0.839839
0.839839
0.839839
0.839839
0.83984
0.839839
0.839839
0.839839
0.839838
0.839838
0.839838
0.83984
0.83984
0.839841
0.83984
0.839845
0.839851
0.839862
0.839879
0.844842
51.9298
0.839688
0.839647
0.839645
0.839646
0.839646
0.839646
0.839646
0.839646
0.839646
0.839646
0.839646
0.839646
0.839646
0.839646
0.839646
0.839647
0.839647
0.839647
0.839647
0.839647
0.839647
0.839647
0.839647
0.839647
0.839647
0.839648
0.839648
0.839648
0.839648
0.839648
0.839648
0.839649
0.839649
0.839649
0.839649
0.83965
0.83965
0.83965
0.83965
0.839651
0.839651
0.839652
0.839652
0.839652
0.839652
0.839652
0.839653
0.839653
0.839653
0.839653
0.839653
0.839653
0.839653
0.839653
0.839653
0.839653
0.839653
0.839653
0.839653
0.839653
0.839653
0.839653
0.839654
0.839654
0.839653
0.839654
0.839654
0.839654
0.839654
0.839654
0.839654
0.839656
0.839656
0.839656
0.839655
0.839655
0.839655
0.839655
0.839654
0.839655
0.839655
0.839655
0.839655
0.839653
0.839654
0.839654
0.839657
0.839656
0.839657
0.839656
0.839662
0.839667
0.839679
0.839697
0.844414
49.7323
0.839495
0.839449
0.839448
0.839448
0.839448
0.839448
0.839448
0.839448
0.839448
0.839448
0.839448
0.839449
0.839449
0.839449
0.839449
0.839449
0.839449
0.839449
0.839449
0.839449
0.839449
0.839449
0.839449
0.83945
0.83945
0.83945
0.83945
0.83945
0.83945
0.839451
0.839451
0.839451
0.839451
0.839452
0.839452
0.839452
0.839452
0.839453
0.839453
0.839454
0.839454
0.839455
0.839455
0.839455
0.839455
0.839455
0.839456
0.839456
0.839456
0.839456
0.839456
0.839456
0.839456
0.839456
0.839456
0.839456
0.839457
0.839456
0.839456
0.839456
0.839456
0.839456
0.839457
0.839457
0.839457
0.839457
0.839457
0.839458
0.839458
0.839458
0.839457
0.839459
0.839459
0.839459
0.839459
0.839458
0.839459
0.839459
0.839457
0.839459
0.839459
0.839459
0.839458
0.839456
0.839457
0.839457
0.83946
0.83946
0.83946
0.839459
0.839466
0.839471
0.839484
0.839502
0.843962
47.3045
0.839289
0.839239
0.839237
0.839237
0.839237
0.839237
0.839237
0.839238
0.839237
0.839238
0.839238
0.839238
0.839238
0.839238
0.839238
0.839238
0.839238
0.839238
0.839238
0.839238
0.839238
0.839239
0.839239
0.839239
0.839239
0.839239
0.839239
0.83924
0.83924
0.83924
0.83924
0.839241
0.839241
0.839241
0.839241
0.839242
0.839242
0.839243
0.839243
0.839244
0.839244
0.839245
0.839245
0.839245
0.839245
0.839245
0.839246
0.839246
0.839246
0.839246
0.839247
0.839247
0.839247
0.839246
0.839247
0.839247
0.839247
0.839247
0.839247
0.839246
0.839247
0.839246
0.839247
0.839247
0.839247
0.839248
0.839248
0.839248
0.839248
0.839248
0.839247
0.83925
0.839249
0.839249
0.839249
0.839249
0.839249
0.839249
0.839248
0.839249
0.839249
0.839249
0.839249
0.839247
0.839248
0.839247
0.839251
0.839251
0.839251
0.839249
0.839257
0.839262
0.839277
0.839295
0.843489
44.669
0.839071
0.839015
0.839012
0.839013
0.839013
0.839013
0.839013
0.839013
0.839013
0.839013
0.839013
0.839013
0.839013
0.839014
0.839014
0.839014
0.839014
0.839014
0.839014
0.839014
0.839014
0.839015
0.839015
0.839015
0.839015
0.839015
0.839015
0.839016
0.839016
0.839016
0.839016
0.839017
0.839017
0.839017
0.839017
0.839018
0.839018
0.839019
0.839019
0.83902
0.83902
0.839021
0.839021
0.839022
0.839022
0.839022
0.839022
0.839023
0.839023
0.839023
0.839023
0.839023
0.839024
0.839023
0.839024
0.839024
0.839023
0.839024
0.839024
0.839023
0.839023
0.839023
0.839024
0.839024
0.839024
0.839025
0.839025
0.839024
0.839025
0.839025
0.839024
0.839027
0.839027
0.839026
0.839026
0.839027
0.839027
0.839027
0.839024
0.839026
0.839026
0.839026
0.839026
0.839024
0.839025
0.839024
0.839029
0.839029
0.839028
0.839026
0.839035
0.83904
0.839056
0.839074
0.842997
41.8595
0.838839
0.838777
0.838774
0.838775
0.838775
0.838775
0.838775
0.838775
0.838775
0.838775
0.838775
0.838775
0.838775
0.838775
0.838775
0.838776
0.838776
0.838776
0.838776
0.838776
0.838776
0.838776
0.838776
0.838777
0.838777
0.838777
0.838777
0.838778
0.838778
0.838778
0.838778
0.838779
0.838779
0.83878
0.83878
0.838781
0.83878
0.838781
0.838781
0.838783
0.838783
0.838784
0.838784
0.838784
0.838784
0.838785
0.838785
0.838785
0.838786
0.838786
0.838786
0.838787
0.838787
0.838786
0.838787
0.838787
0.838786
0.838787
0.838787
0.838786
0.838786
0.838786
0.838788
0.838788
0.838787
0.838788
0.838788
0.838787
0.838788
0.838788
0.838787
0.83879
0.83879
0.83879
0.838789
0.83879
0.83879
0.83879
0.838788
0.838789
0.838789
0.838789
0.838789
0.838787
0.838788
0.838788
0.838792
0.838792
0.838792
0.838789
0.838799
0.838803
0.838821
0.83884
0.842488
38.9177
0.838594
0.838524
0.838521
0.838522
0.838522
0.838522
0.838522
0.838522
0.838522
0.838522
0.838522
0.838522
0.838522
0.838523
0.838523
0.838523
0.838523
0.838523
0.838523
0.838523
0.838523
0.838524
0.838524
0.838524
0.838524
0.838525
0.838525
0.838525
0.838525
0.838526
0.838526
0.838527
0.838527
0.838527
0.838527
0.838528
0.838528
0.838529
0.838529
0.838531
0.838531
0.838532
0.838532
0.838532
0.838533
0.838533
0.838533
0.838534
0.838534
0.838535
0.838535
0.838535
0.838535
0.838535
0.838535
0.838535
0.838535
0.838535
0.838535
0.838535
0.838535
0.838535
0.838536
0.838536
0.838536
0.838537
0.838536
0.838536
0.838537
0.838537
0.838536
0.838539
0.838539
0.838539
0.838537
0.83854
0.838539
0.838539
0.838536
0.838538
0.838538
0.838538
0.838538
0.838535
0.838537
0.838536
0.838542
0.838542
0.838541
0.838537
0.838549
0.838552
0.838572
0.838592
0.841966
35.8909
0.838335
0.838256
0.838253
0.838254
0.838254
0.838254
0.838254
0.838254
0.838254
0.838254
0.838254
0.838254
0.838254
0.838255
0.838254
0.838255
0.838255
0.838255
0.838255
0.838255
0.838255
0.838256
0.838256
0.838256
0.838256
0.838257
0.838257
0.838257
0.838257
0.838258
0.838258
0.838259
0.838259
0.83826
0.83826
0.838261
0.838261
0.838262
0.838262
0.838263
0.838263
0.838265
0.838265
0.838265
0.838266
0.838266
0.838267
0.838267
0.838268
0.838268
0.838268
0.838269
0.838269
0.838269
0.838269
0.838269
0.838269
0.838269
0.838269
0.838268
0.838269
0.838269
0.83827
0.83827
0.838269
0.83827
0.83827
0.838269
0.838271
0.838271
0.83827
0.838273
0.838273
0.838273
0.838271
0.838274
0.838274
0.838273
0.83827
0.838272
0.838272
0.838272
0.838272
0.838269
0.838271
0.83827
0.838276
0.838276
0.838275
0.838271
0.838284
0.838286
0.838308
0.838328
0.841431
32.8291
0.83806
0.837972
0.837968
0.837969
0.837969
0.83797
0.83797
0.83797
0.83797
0.83797
0.83797
0.83797
0.83797
0.83797
0.83797
0.837971
0.837971
0.837971
0.837971
0.837972
0.837971
0.837972
0.837972
0.837973
0.837972
0.837973
0.837973
0.837974
0.837974
0.837975
0.837975
0.837975
0.837975
0.837976
0.837976
0.837978
0.837978
0.837979
0.837979
0.837981
0.83798
0.837982
0.837982
0.837983
0.837983
0.837984
0.837984
0.837985
0.837985
0.837986
0.837986
0.837986
0.837987
0.837987
0.837987
0.837987
0.837987
0.837987
0.837987
0.837986
0.837987
0.837986
0.837988
0.837988
0.837987
0.837988
0.837988
0.837987
0.837989
0.837989
0.837988
0.837991
0.837991
0.837991
0.837989
0.837992
0.837992
0.837991
0.837988
0.83799
0.83799
0.83799
0.83799
0.837987
0.837989
0.837988
0.837994
0.837995
0.837993
0.837988
0.838003
0.838005
0.838029
0.83805
0.840885
29.7821
0.83777
0.837672
0.837667
0.837668
0.837668
0.837669
0.837669
0.837669
0.837669
0.837669
0.837669
0.837669
0.837669
0.83767
0.83767
0.83767
0.83767
0.83767
0.83767
0.837671
0.837671
0.837671
0.837671
0.837672
0.837672
0.837673
0.837673
0.837673
0.837673
0.837674
0.837674
0.837675
0.837675
0.837676
0.837676
0.837678
0.837678
0.837679
0.837679
0.837681
0.837681
0.837683
0.837683
0.837683
0.837684
0.837684
0.837685
0.837685
0.837686
0.837687
0.837687
0.837688
0.837688
0.837688
0.837688
0.837688
0.837688
0.837689
0.837689
0.837688
0.837688
0.837688
0.837689
0.837689
0.837689
0.83769
0.83769
0.837689
0.837691
0.837691
0.837689
0.837693
0.837692
0.837692
0.83769
0.837694
0.837694
0.837693
0.837689
0.837692
0.837692
0.837692
0.837692
0.837689
0.83769
0.83769
0.837696
0.837697
0.837695
0.837689
0.837705
0.837707
0.837733
0.837755
0.840331
26.7972
0.837463
0.837353
0.837349
0.83735
0.83735
0.83735
0.83735
0.83735
0.83735
0.837351
0.837351
0.837351
0.837351
0.837351
0.837351
0.837352
0.837352
0.837352
0.837352
0.837353
0.837353
0.837353
0.837353
0.837354
0.837354
0.837355
0.837355
0.837355
0.837355
0.837357
0.837356
0.837358
0.837358
0.837359
0.837359
0.83736
0.83736
0.837362
0.837362
0.837364
0.837364
0.837366
0.837366
0.837367
0.837367
0.837368
0.837368
0.837369
0.837369
0.83737
0.837371
0.837371
0.837372
0.837372
0.837372
0.837373
0.837372
0.837373
0.837373
0.837372
0.837372
0.837372
0.837373
0.837373
0.837373
0.837373
0.837374
0.837373
0.837375
0.837375
0.837373
0.837377
0.837377
0.837377
0.837374
0.837379
0.837378
0.837378
0.837374
0.837377
0.837376
0.837377
0.837377
0.837373
0.837375
0.837374
0.837381
0.837381
0.83738
0.837373
0.837391
0.837391
0.83742
0.837443
0.839769
23.9173
0.837139
0.837017
0.837011
0.837013
0.837013
0.837013
0.837013
0.837013
0.837013
0.837014
0.837014
0.837014
0.837014
0.837014
0.837014
0.837015
0.837015
0.837015
0.837015
0.837016
0.837016
0.837017
0.837016
0.837017
0.837017
0.837018
0.837018
0.837019
0.837019
0.83702
0.83702
0.837021
0.837021
0.837023
0.837023
0.837024
0.837024
0.837026
0.837026
0.837028
0.837028
0.837031
0.837031
0.837031
0.837032
0.837033
0.837033
0.837034
0.837035
0.837035
0.837036
0.837037
0.837038
0.837038
0.837038
0.837038
0.837038
0.837039
0.837039
0.837037
0.837038
0.837038
0.837039
0.837039
0.837039
0.837039
0.837039
0.837038
0.837041
0.837041
0.837039
0.837043
0.837043
0.837043
0.83704
0.837045
0.837044
0.837044
0.83704
0.837043
0.837043
0.837043
0.837043
0.837039
0.837041
0.837041
0.837048
0.837048
0.837046
0.837038
0.837057
0.837058
0.837089
0.837113
0.8392
21.179
0.836798
0.836661
0.836654
0.836656
0.836656
0.836656
0.836656
0.836657
0.836657
0.836657
0.836657
0.836657
0.836657
0.836658
0.836658
0.836658
0.836658
0.836659
0.836659
0.83666
0.836659
0.83666
0.83666
0.836661
0.836661
0.836662
0.836662
0.836663
0.836663
0.836664
0.836664
0.836666
0.836666
0.836667
0.836667
0.836669
0.836669
0.836671
0.836671
0.836674
0.836674
0.836676
0.836676
0.836677
0.836678
0.836678
0.836679
0.83668
0.836681
0.836681
0.836682
0.836683
0.836684
0.836685
0.836685
0.836685
0.836685
0.836685
0.836685
0.836684
0.836685
0.836684
0.836685
0.836685
0.836686
0.836685
0.836686
0.836685
0.836688
0.836687
0.836686
0.83669
0.836689
0.836689
0.836687
0.836692
0.836691
0.836691
0.836687
0.83669
0.83669
0.83669
0.83669
0.836687
0.836688
0.836688
0.836695
0.836695
0.836693
0.836684
0.836705
0.836705
0.836739
0.836764
0.838626
18.6119
0.836437
0.836284
0.836277
0.836279
0.836279
0.836279
0.836279
0.83628
0.83628
0.83628
0.83628
0.83628
0.83628
0.836281
0.836281
0.836281
0.836281
0.836282
0.836282
0.836283
0.836283
0.836284
0.836283
0.836284
0.836284
0.836285
0.836285
0.836287
0.836287
0.836288
0.836288
0.83629
0.836289
0.836291
0.836291
0.836293
0.836293
0.836296
0.836296
0.836299
0.836298
0.836301
0.836301
0.836302
0.836303
0.836304
0.836305
0.836305
0.836306
0.836307
0.836308
0.836309
0.83631
0.836311
0.836311
0.836311
0.836311
0.836312
0.836312
0.836311
0.836311
0.836311
0.836312
0.836311
0.836312
0.836312
0.836312
0.836312
0.836314
0.836314
0.836312
0.836316
0.836316
0.836316
0.836314
0.836319
0.836318
0.836318
0.836314
0.836317
0.836317
0.836317
0.836317
0.836314
0.836315
0.836316
0.836322
0.836322
0.83632
0.83631
0.836332
0.836332
0.836369
0.836395
0.838047
16.2379
0.836057
0.835886
0.835878
0.83588
0.83588
0.83588
0.83588
0.835881
0.835881
0.835881
0.835881
0.835882
0.835881
0.835882
0.835882
0.835883
0.835883
0.835883
0.835883
0.835884
0.835884
0.835885
0.835885
0.835886
0.835886
0.835887
0.835887
0.835889
0.835889
0.83589
0.83589
0.835892
0.835892
0.835894
0.835894
0.835896
0.835896
0.835899
0.835899
0.835902
0.835902
0.835905
0.835905
0.835906
0.835907
0.835908
0.835909
0.835909
0.83591
0.835911
0.835912
0.835913
0.835915
0.835916
0.835917
0.835917
0.835917
0.835917
0.835917
0.835916
0.835917
0.835916
0.835917
0.835916
0.835917
0.835917
0.835917
0.835917
0.835919
0.835919
0.835918
0.83592
0.835921
0.835921
0.835919
0.835924
0.835923
0.835923
0.83592
0.835923
0.835923
0.835924
0.835923
0.835921
0.83592
0.835922
0.835927
0.835927
0.835925
0.835915
0.835939
0.835939
0.835977
0.836005
0.837462
14.0711
0.835656
0.835465
0.835456
0.835458
0.835458
0.835458
0.835458
0.835459
0.835459
0.835459
0.835459
0.83546
0.83546
0.83546
0.83546
0.835461
0.835461
0.835462
0.835462
0.835463
0.835463
0.835464
0.835464
0.835465
0.835465
0.835466
0.835466
0.835468
0.835468
0.835469
0.835469
0.835472
0.835471
0.835474
0.835473
0.835476
0.835476
0.835479
0.835479
0.835483
0.835482
0.835486
0.835486
0.835487
0.835488
0.835489
0.83549
0.835491
0.835492
0.835493
0.835494
0.835495
0.835497
0.835498
0.835499
0.835499
0.8355
0.8355
0.8355
0.835499
0.835499
0.835499
0.8355
0.835499
0.8355
0.835499
0.8355
0.8355
0.835502
0.835501
0.835501
0.835502
0.835504
0.835504
0.835502
0.835507
0.835506
0.835506
0.835504
0.835506
0.835506
0.835508
0.835507
0.835505
0.835502
0.835507
0.83551
0.83551
0.835508
0.835497
0.835522
0.835523
0.835563
0.835593
0.83687
12.1185
0.835233
0.835019
0.835009
0.835012
0.835012
0.835012
0.835012
0.835013
0.835013
0.835013
0.835013
0.835014
0.835014
0.835014
0.835014
0.835015
0.835015
0.835016
0.835016
0.835017
0.835017
0.835018
0.835018
0.835019
0.835019
0.835021
0.835021
0.835023
0.835023
0.835025
0.835025
0.835027
0.835027
0.835029
0.835029
0.835032
0.835032
0.835035
0.835035
0.835039
0.835039
0.835043
0.835043
0.835044
0.835045
0.835046
0.835048
0.835049
0.83505
0.835051
0.835052
0.835054
0.835055
0.835056
0.835058
0.835059
0.835059
0.835059
0.835059
0.835058
0.835059
0.835058
0.835059
0.835058
0.835059
0.835058
0.835059
0.835059
0.835061
0.83506
0.83506
0.83506
0.835063
0.835063
0.835062
0.835066
0.835065
0.835065
0.835065
0.835066
0.835066
0.835068
0.835067
0.835066
0.83506
0.835068
0.835069
0.83507
0.835067
0.835055
0.835082
0.835083
0.835126
0.835157
0.836272
10.3802
0.834788
0.834549
0.834537
0.83454
0.83454
0.834541
0.834541
0.834541
0.834541
0.834542
0.834542
0.834542
0.834542
0.834543
0.834543
0.834544
0.834544
0.834545
0.834545
0.834546
0.834546
0.834547
0.834547
0.834549
0.834549
0.83455
0.83455
0.834552
0.834552
0.834554
0.834554
0.834557
0.834557
0.83456
0.834559
0.834563
0.834563
0.834566
0.834566
0.834571
0.834571
0.834575
0.834575
0.834576
0.834578
0.834579
0.83458
0.834581
0.834583
0.834584
0.834586
0.834587
0.834588
0.83459
0.834592
0.834593
0.834593
0.834593
0.834593
0.834592
0.834593
0.834592
0.834593
0.834592
0.834593
0.834592
0.834593
0.834593
0.834595
0.834594
0.834594
0.834594
0.834597
0.834597
0.834597
0.8346
0.8346
0.834599
0.834602
0.834602
0.834602
0.834604
0.834603
0.834601
0.834594
0.834603
0.834603
0.834604
0.834602
0.834588
0.834618
0.834618
0.834664
0.834697
0.835666
8.85081
0.834318
0.834051
0.834038
0.834041
0.834041
0.834042
0.834042
0.834043
0.834043
0.834043
0.834043
0.834044
0.834044
0.834045
0.834045
0.834046
0.834045
0.834047
0.834047
0.834048
0.834048
0.834049
0.834049
0.834051
0.834051
0.834053
0.834053
0.834055
0.834055
0.834057
0.834057
0.83406
0.83406
0.834063
0.834063
0.834067
0.834067
0.834071
0.834071
0.834076
0.834075
0.83408
0.834081
0.834082
0.834083
0.834085
0.834086
0.834088
0.834089
0.834091
0.834092
0.834094
0.834095
0.834097
0.834099
0.834101
0.834101
0.834101
0.834102
0.834101
0.834101
0.8341
0.834101
0.8341
0.834101
0.834099
0.834101
0.834101
0.834102
0.834101
0.834102
0.834101
0.834105
0.834105
0.834107
0.834107
0.834107
0.834106
0.834111
0.834111
0.834112
0.834113
0.834112
0.83411
0.834101
0.834111
0.834111
0.834111
0.83411
0.834095
0.834127
0.834127
0.834175
0.834212
0.83505
7.52034
0.833824
0.833526
0.83351
0.833514
0.833514
0.833515
0.833515
0.833516
0.833515
0.833516
0.833516
0.833517
0.833517
0.833518
0.833518
0.833519
0.833519
0.83352
0.83352
0.833522
0.833521
0.833523
0.833523
0.833525
0.833525
0.833527
0.833527
0.833529
0.833529
0.833532
0.833532
0.833535
0.833535
0.833539
0.833538
0.833543
0.833543
0.833547
0.833547
0.833553
0.833552
0.833557
0.833558
0.833559
0.833561
0.833563
0.833564
0.833566
0.833567
0.833569
0.833571
0.833573
0.833575
0.833577
0.833578
0.83358
0.833582
0.833582
0.833582
0.833581
0.833582
0.83358
0.833581
0.83358
0.833581
0.833579
0.833581
0.833581
0.833583
0.833581
0.833582
0.833581
0.833585
0.833585
0.833587
0.833587
0.833588
0.833586
0.833592
0.833592
0.833594
0.833595
0.833594
0.833592
0.83358
0.833591
0.833591
0.833591
0.83359
0.833575
0.833609
0.833609
0.833658
0.833699
0.834422
6.37526
0.833303
0.83297
0.832953
0.832957
0.832957
0.832958
0.832958
0.832958
0.832958
0.832959
0.832959
0.83296
0.83296
0.832961
0.832961
0.832962
0.832962
0.832963
0.832963
0.832965
0.832965
0.832967
0.832967
0.832969