/*--------------------------------*- C++ -*----------------------------------*\
| =========                 |                                                 |
| \\      /  F ield         | OpenFOAM: The Open Source CFD Toolbox           |
|  \\    /   O peration     | Version:  v2012                                 |
|   \\  /    A nd           | Website:  www.openfoam.com                      |
|    \\/     M anipulation  |                                                 |
\*---------------------------------------------------------------------------*/
FoamFile
{
    version     2.0;
    format      ascii;
    class       volVectorField;
    location    "54.5";
    object      wallShearStress;
}
// * * * * * * * * * * * * * * * * * * * * * * * * * * * * * * * * * * * * * //

dimensions      [0 2 -2 0 0 0 0];


internalField   uniform (0 0 0);

boundaryField
{
    inlet
    {
        type            calculated;
        value           uniform (0 0 0);
    }
    outlet
    {
        type            calculated;
        value           uniform (0 0 0);
    }
    topWall
    {
        type            calculated;
        value           nonuniform List<vector> 
545
(
(6.96974e-08 -4.906e-08 0)
(6.96774e-08 -1.37247e-07 0)
(6.96334e-08 -2.28944e-07 0)
(6.95722e-08 -3.1798e-07 0)
(6.94972e-08 -4.03218e-07 0)
(6.94087e-08 -4.85752e-07 0)
(6.93079e-08 -5.66284e-07 0)
(6.91955e-08 -6.44776e-07 0)
(6.90726e-08 -7.21056e-07 0)
(6.894e-08 -7.95122e-07 0)
(6.87987e-08 -8.67072e-07 0)
(6.86496e-08 -9.36988e-07 0)
(6.84934e-08 -1.00492e-06 0)
(6.83308e-08 -1.0709e-06 0)
(6.81627e-08 -1.13499e-06 0)
(6.79896e-08 -1.19723e-06 0)
(6.7812e-08 -1.25767e-06 0)
(6.76308e-08 -1.31636e-06 0)
(6.74462e-08 -1.37335e-06 0)
(6.72589e-08 -1.42868e-06 0)
(6.70694e-08 -1.48241e-06 0)
(6.6878e-08 -1.53457e-06 0)
(6.66851e-08 -1.5852e-06 0)
(6.64912e-08 -1.63436e-06 0)
(6.62966e-08 -1.68208e-06 0)
(6.61016e-08 -1.72841e-06 0)
(6.59066e-08 -1.77339e-06 0)
(6.57117e-08 -1.81705e-06 0)
(6.55173e-08 -1.85943e-06 0)
(6.53236e-08 -1.90057e-06 0)
(6.51308e-08 -1.94051e-06 0)
(6.49391e-08 -1.97928e-06 0)
(6.47488e-08 -2.01691e-06 0)
(6.45599e-08 -2.05345e-06 0)
(6.43726e-08 -2.08892e-06 0)
(6.41871e-08 -2.12336e-06 0)
(6.40035e-08 -2.15679e-06 0)
(6.38219e-08 -2.18925e-06 0)
(6.36424e-08 -2.22076e-06 0)
(6.34651e-08 -2.25135e-06 0)
(6.329e-08 -2.28106e-06 0)
(6.31173e-08 -2.3099e-06 0)
(6.2947e-08 -2.33791e-06 0)
(6.27792e-08 -2.3651e-06 0)
(6.26139e-08 -2.39151e-06 0)
(6.24511e-08 -2.41715e-06 0)
(6.22909e-08 -2.44206e-06 0)
(6.21333e-08 -2.46624e-06 0)
(6.19783e-08 -2.48973e-06 0)
(6.1826e-08 -2.51254e-06 0)
(6.16763e-08 -2.5347e-06 0)
(6.15292e-08 -2.55622e-06 0)
(6.13848e-08 -2.57712e-06 0)
(6.12431e-08 -2.59742e-06 0)
(6.1104e-08 -2.61715e-06 0)
(6.09675e-08 -2.63631e-06 0)
(6.08336e-08 -2.65492e-06 0)
(6.07024e-08 -2.67301e-06 0)
(6.05737e-08 -2.69058e-06 0)
(6.04475e-08 -2.70765e-06 0)
(6.03239e-08 -2.72423e-06 0)
(6.02028e-08 -2.74035e-06 0)
(6.00842e-08 -2.75601e-06 0)
(5.99681e-08 -2.77122e-06 0)
(5.98543e-08 -2.78601e-06 0)
(5.9743e-08 -2.80038e-06 0)
(5.9634e-08 -2.81435e-06 0)
(5.95273e-08 -2.82792e-06 0)
(5.9423e-08 -2.84111e-06 0)
(5.93209e-08 -2.85393e-06 0)
(5.92209e-08 -2.8664e-06 0)
(5.91235e-08 -2.87849e-06 0)
(5.90288e-08 -2.89013e-06 0)
(5.89363e-08 -2.90143e-06 0)
(5.88447e-08 -2.91259e-06 0)
(5.87535e-08 -2.92371e-06 0)
(5.86623e-08 -2.93477e-06 0)
(5.85713e-08 -2.94577e-06 0)
(5.84803e-08 -2.9567e-06 0)
(5.83895e-08 -2.96756e-06 0)
(5.82987e-08 -2.97835e-06 0)
(5.8208e-08 -2.98907e-06 0)
(5.81174e-08 -2.99974e-06 0)
(5.8027e-08 -3.01033e-06 0)
(5.79366e-08 -3.02086e-06 0)
(5.78463e-08 -3.03133e-06 0)
(5.77562e-08 -3.04173e-06 0)
(5.76662e-08 -3.05207e-06 0)
(5.75762e-08 -3.06234e-06 0)
(5.74865e-08 -3.07256e-06 0)
(5.73968e-08 -3.08271e-06 0)
(5.73073e-08 -3.09279e-06 0)
(5.72179e-08 -3.10282e-06 0)
(5.71286e-08 -3.11278e-06 0)
(5.70396e-08 -3.12271e-06 0)
(5.69515e-08 -3.13245e-06 0)
(5.68676e-08 -3.14138e-06 0)
(5.67907e-08 -3.14948e-06 0)
(5.67173e-08 -3.15736e-06 0)
(5.6644e-08 -3.16527e-06 0)
(5.65707e-08 -3.17326e-06 0)
(5.6497e-08 -3.18126e-06 0)
(5.6423e-08 -3.18926e-06 0)
(5.63486e-08 -3.19726e-06 0)
(5.62739e-08 -3.20527e-06 0)
(5.61988e-08 -3.2133e-06 0)
(5.61234e-08 -3.22133e-06 0)
(5.60476e-08 -3.22936e-06 0)
(5.59715e-08 -3.23741e-06 0)
(5.5895e-08 -3.24546e-06 0)
(5.58182e-08 -3.25352e-06 0)
(5.5741e-08 -3.26159e-06 0)
(5.56634e-08 -3.26967e-06 0)
(5.55855e-08 -3.27775e-06 0)
(5.55072e-08 -3.28584e-06 0)
(5.54286e-08 -3.29394e-06 0)
(5.53496e-08 -3.30205e-06 0)
(5.52702e-08 -3.31017e-06 0)
(5.51905e-08 -3.31829e-06 0)
(5.51104e-08 -3.32642e-06 0)
(5.50299e-08 -3.33456e-06 0)
(5.49491e-08 -3.3427e-06 0)
(5.48679e-08 -3.35085e-06 0)
(5.47863e-08 -3.35901e-06 0)
(5.47044e-08 -3.36718e-06 0)
(5.46221e-08 -3.37535e-06 0)
(5.45394e-08 -3.38353e-06 0)
(5.44564e-08 -3.39171e-06 0)
(5.4373e-08 -3.39991e-06 0)
(5.42892e-08 -3.40811e-06 0)
(5.4205e-08 -3.41631e-06 0)
(5.41205e-08 -3.42453e-06 0)
(5.40355e-08 -3.43275e-06 0)
(5.39502e-08 -3.44097e-06 0)
(5.38645e-08 -3.4492e-06 0)
(5.37785e-08 -3.45744e-06 0)
(5.36921e-08 -3.46569e-06 0)
(5.36052e-08 -3.47394e-06 0)
(5.3518e-08 -3.4822e-06 0)
(5.34304e-08 -3.49046e-06 0)
(5.33425e-08 -3.49873e-06 0)
(5.32541e-08 -3.507e-06 0)
(5.31654e-08 -3.51528e-06 0)
(5.30763e-08 -3.52357e-06 0)
(5.29867e-08 -3.53186e-06 0)
(5.28968e-08 -3.54016e-06 0)
(5.28065e-08 -3.54846e-06 0)
(5.27159e-08 -3.55677e-06 0)
(5.26248e-08 -3.56508e-06 0)
(5.25333e-08 -3.5734e-06 0)
(5.24415e-08 -3.58172e-06 0)
(5.23492e-08 -3.59005e-06 0)
(5.22566e-08 -3.59838e-06 0)
(5.21636e-08 -3.60672e-06 0)
(5.20701e-08 -3.61506e-06 0)
(5.19763e-08 -3.62341e-06 0)
(5.18821e-08 -3.63176e-06 0)
(5.17875e-08 -3.64012e-06 0)
(5.16925e-08 -3.64848e-06 0)
(5.15971e-08 -3.65685e-06 0)
(5.15012e-08 -3.66522e-06 0)
(5.1405e-08 -3.67359e-06 0)
(5.13084e-08 -3.68197e-06 0)
(5.12114e-08 -3.69035e-06 0)
(5.1114e-08 -3.69873e-06 0)
(5.10162e-08 -3.70712e-06 0)
(5.0918e-08 -3.71552e-06 0)
(5.08193e-08 -3.72391e-06 0)
(5.07203e-08 -3.73231e-06 0)
(5.06209e-08 -3.74072e-06 0)
(5.05211e-08 -3.74912e-06 0)
(5.04208e-08 -3.75753e-06 0)
(5.03202e-08 -3.76594e-06 0)
(5.02191e-08 -3.77436e-06 0)
(5.01177e-08 -3.78278e-06 0)
(5.00158e-08 -3.7912e-06 0)
(4.99135e-08 -3.79962e-06 0)
(4.98109e-08 -3.80805e-06 0)
(4.97078e-08 -3.81648e-06 0)
(4.96043e-08 -3.82491e-06 0)
(4.95004e-08 -3.83334e-06 0)
(4.93961e-08 -3.84178e-06 0)
(4.92913e-08 -3.85021e-06 0)
(4.91862e-08 -3.85865e-06 0)
(4.90807e-08 -3.86709e-06 0)
(4.89747e-08 -3.87554e-06 0)
(4.88684e-08 -3.88398e-06 0)
(4.87616e-08 -3.89243e-06 0)
(4.86544e-08 -3.90087e-06 0)
(4.85468e-08 -3.90932e-06 0)
(4.84388e-08 -3.91777e-06 0)
(4.83304e-08 -3.92622e-06 0)
(4.82215e-08 -3.93467e-06 0)
(4.81123e-08 -3.94313e-06 0)
(4.80026e-08 -3.95158e-06 0)
(4.78925e-08 -3.96003e-06 0)
(4.7782e-08 -3.96849e-06 0)
(4.76712e-08 -3.97694e-06 0)
(4.75598e-08 -3.9854e-06 0)
(4.74481e-08 -3.99385e-06 0)
(4.7336e-08 -4.00231e-06 0)
(4.72234e-08 -4.01076e-06 0)
(4.71105e-08 -4.01921e-06 0)
(4.69971e-08 -4.02767e-06 0)
(4.68833e-08 -4.03612e-06 0)
(4.67691e-08 -4.04457e-06 0)
(4.66545e-08 -4.05303e-06 0)
(4.65394e-08 -4.06148e-06 0)
(4.6424e-08 -4.06993e-06 0)
(4.63082e-08 -4.07837e-06 0)
(4.61919e-08 -4.08682e-06 0)
(4.60752e-08 -4.09527e-06 0)
(4.59581e-08 -4.10371e-06 0)
(4.58406e-08 -4.11216e-06 0)
(4.57227e-08 -4.1206e-06 0)
(4.56044e-08 -4.12904e-06 0)
(4.54857e-08 -4.13747e-06 0)
(4.53665e-08 -4.14591e-06 0)
(4.5247e-08 -4.15434e-06 0)
(4.5127e-08 -4.16277e-06 0)
(4.50066e-08 -4.1712e-06 0)
(4.48859e-08 -4.17962e-06 0)
(4.47647e-08 -4.18804e-06 0)
(4.46431e-08 -4.19646e-06 0)
(4.45211e-08 -4.20488e-06 0)
(4.43987e-08 -4.21329e-06 0)
(4.42759e-08 -4.2217e-06 0)
(4.41527e-08 -4.23011e-06 0)
(4.4029e-08 -4.23851e-06 0)
(4.3905e-08 -4.2469e-06 0)
(4.37806e-08 -4.2553e-06 0)
(4.36558e-08 -4.26369e-06 0)
(4.35305e-08 -4.27207e-06 0)
(4.34049e-08 -4.28045e-06 0)
(4.32789e-08 -4.28883e-06 0)
(4.31525e-08 -4.2972e-06 0)
(4.30256e-08 -4.30557e-06 0)
(4.28984e-08 -4.31393e-06 0)
(4.27708e-08 -4.32229e-06 0)
(4.26428e-08 -4.33064e-06 0)
(4.25144e-08 -4.33898e-06 0)
(4.23856e-08 -4.34733e-06 0)
(4.22564e-08 -4.35566e-06 0)
(4.21268e-08 -4.36399e-06 0)
(4.19968e-08 -4.37231e-06 0)
(4.18664e-08 -4.38063e-06 0)
(4.17357e-08 -4.38894e-06 0)
(4.16045e-08 -4.39724e-06 0)
(4.1473e-08 -4.40554e-06 0)
(4.13411e-08 -4.41383e-06 0)
(4.12088e-08 -4.42211e-06 0)
(4.10761e-08 -4.43039e-06 0)
(4.09431e-08 -4.43866e-06 0)
(4.08096e-08 -4.44692e-06 0)
(4.06758e-08 -4.45517e-06 0)
(4.05416e-08 -4.46342e-06 0)
(4.0407e-08 -4.47165e-06 0)
(4.02721e-08 -4.47988e-06 0)
(4.01368e-08 -4.48811e-06 0)
(4.00011e-08 -4.49632e-06 0)
(3.98651e-08 -4.50452e-06 0)
(3.97286e-08 -4.51272e-06 0)
(3.95919e-08 -4.52091e-06 0)
(3.94547e-08 -4.52908e-06 0)
(3.93172e-08 -4.53725e-06 0)
(3.91793e-08 -4.54541e-06 0)
(3.90412e-08 -4.55356e-06 0)
(3.89027e-08 -4.56172e-06 0)
(3.8766e-08 -4.56979e-06 0)
(3.86316e-08 -4.57748e-06 0)
(3.85019e-08 -4.5848e-06 0)
(3.8376e-08 -4.59205e-06 0)
(3.82488e-08 -4.59936e-06 0)
(3.81206e-08 -4.60677e-06 0)
(3.79909e-08 -4.61424e-06 0)
(3.78598e-08 -4.62175e-06 0)
(3.77272e-08 -4.62932e-06 0)
(3.75932e-08 -4.63694e-06 0)
(3.74577e-08 -4.64462e-06 0)
(3.73207e-08 -4.65236e-06 0)
(3.71822e-08 -4.66014e-06 0)
(3.70422e-08 -4.66799e-06 0)
(3.69007e-08 -4.67589e-06 0)
(3.67577e-08 -4.68384e-06 0)
(3.66131e-08 -4.69185e-06 0)
(3.64669e-08 -4.69992e-06 0)
(3.63192e-08 -4.70804e-06 0)
(3.61699e-08 -4.71621e-06 0)
(3.6019e-08 -4.72444e-06 0)
(3.58665e-08 -4.73272e-06 0)
(3.57123e-08 -4.74106e-06 0)
(3.55565e-08 -4.74945e-06 0)
(3.5399e-08 -4.7579e-06 0)
(3.52399e-08 -4.7664e-06 0)
(3.50791e-08 -4.77495e-06 0)
(3.49167e-08 -4.78355e-06 0)
(3.47525e-08 -4.79221e-06 0)
(3.45866e-08 -4.80092e-06 0)
(3.44189e-08 -4.80968e-06 0)
(3.42496e-08 -4.8185e-06 0)
(3.40785e-08 -4.82737e-06 0)
(3.39056e-08 -4.83629e-06 0)
(3.37309e-08 -4.84525e-06 0)
(3.35545e-08 -4.85427e-06 0)
(3.33762e-08 -4.86334e-06 0)
(3.31962e-08 -4.87246e-06 0)
(3.30143e-08 -4.88163e-06 0)
(3.28306e-08 -4.89084e-06 0)
(3.2645e-08 -4.90011e-06 0)
(3.24576e-08 -4.90942e-06 0)
(3.22684e-08 -4.91878e-06 0)
(3.20772e-08 -4.92818e-06 0)
(3.18842e-08 -4.93763e-06 0)
(3.16893e-08 -4.94712e-06 0)
(3.14925e-08 -4.95666e-06 0)
(3.12938e-08 -4.96624e-06 0)
(3.10932e-08 -4.97586e-06 0)
(3.08907e-08 -4.98553e-06 0)
(3.06862e-08 -4.99523e-06 0)
(3.04798e-08 -5.00498e-06 0)
(3.02714e-08 -5.01476e-06 0)
(3.00611e-08 -5.02459e-06 0)
(2.98488e-08 -5.03445e-06 0)
(2.96346e-08 -5.04435e-06 0)
(2.94185e-08 -5.05427e-06 0)
(2.92003e-08 -5.06424e-06 0)
(2.89802e-08 -5.07424e-06 0)
(2.87581e-08 -5.08427e-06 0)
(2.85341e-08 -5.09433e-06 0)
(2.8308e-08 -5.10442e-06 0)
(2.808e-08 -5.11454e-06 0)
(2.785e-08 -5.12468e-06 0)
(2.76181e-08 -5.13485e-06 0)
(2.73841e-08 -5.14505e-06 0)
(2.71482e-08 -5.15526e-06 0)
(2.69103e-08 -5.1655e-06 0)
(2.66705e-08 -5.17576e-06 0)
(2.64287e-08 -5.18603e-06 0)
(2.61849e-08 -5.19632e-06 0)
(2.59392e-08 -5.20663e-06 0)
(2.56915e-08 -5.21695e-06 0)
(2.54419e-08 -5.22729e-06 0)
(2.51904e-08 -5.23763e-06 0)
(2.49369e-08 -5.24798e-06 0)
(2.46816e-08 -5.25833e-06 0)
(2.44243e-08 -5.26869e-06 0)
(2.41652e-08 -5.27905e-06 0)
(2.39042e-08 -5.28942e-06 0)
(2.36414e-08 -5.29978e-06 0)
(2.33767e-08 -5.31014e-06 0)
(2.31102e-08 -5.32049e-06 0)
(2.28419e-08 -5.33083e-06 0)
(2.25718e-08 -5.34116e-06 0)
(2.23e-08 -5.35148e-06 0)
(2.20264e-08 -5.36179e-06 0)
(2.17511e-08 -5.37208e-06 0)
(2.14741e-08 -5.38234e-06 0)
(2.11955e-08 -5.39259e-06 0)
(2.09152e-08 -5.40281e-06 0)
(2.06333e-08 -5.41301e-06 0)
(2.03499e-08 -5.42317e-06 0)
(2.00649e-08 -5.43331e-06 0)
(1.97784e-08 -5.4434e-06 0)
(1.94904e-08 -5.45347e-06 0)
(1.9201e-08 -5.46348e-06 0)
(1.89102e-08 -5.47346e-06 0)
(1.86181e-08 -5.48339e-06 0)
(1.83246e-08 -5.49328e-06 0)
(1.80298e-08 -5.5031e-06 0)
(1.77339e-08 -5.51288e-06 0)
(1.74367e-08 -5.52259e-06 0)
(1.71384e-08 -5.53225e-06 0)
(1.6839e-08 -5.54184e-06 0)
(1.65386e-08 -5.55137e-06 0)
(1.62372e-08 -5.56082e-06 0)
(1.59349e-08 -5.5702e-06 0)
(1.56317e-08 -5.5795e-06 0)
(1.53277e-08 -5.58873e-06 0)
(1.50229e-08 -5.59786e-06 0)
(1.47174e-08 -5.60692e-06 0)
(1.44113e-08 -5.61588e-06 0)
(1.41047e-08 -5.62475e-06 0)
(1.37975e-08 -5.63352e-06 0)
(1.34899e-08 -5.6422e-06 0)
(1.3182e-08 -5.65076e-06 0)
(1.28738e-08 -5.65922e-06 0)
(1.25653e-08 -5.66757e-06 0)
(1.22567e-08 -5.67581e-06 0)
(1.1948e-08 -5.68392e-06 0)
(1.16394e-08 -5.69192e-06 0)
(1.13308e-08 -5.69978e-06 0)
(1.10224e-08 -5.70753e-06 0)
(1.07143e-08 -5.71513e-06 0)
(1.04065e-08 -5.72261e-06 0)
(1.00991e-08 -5.72994e-06 0)
(9.79224e-09 -5.73713e-06 0)
(9.48595e-09 -5.74417e-06 0)
(9.18036e-09 -5.75107e-06 0)
(8.87553e-09 -5.7578e-06 0)
(8.57158e-09 -5.76439e-06 0)
(8.26858e-09 -5.7708e-06 0)
(7.96664e-09 -5.77707e-06 0)
(7.66583e-09 -5.78315e-06 0)
(7.36627e-09 -5.78908e-06 0)
(7.06804e-09 -5.79481e-06 0)
(6.77126e-09 -5.80039e-06 0)
(6.47599e-09 -5.80576e-06 0)
(6.18236e-09 -5.81097e-06 0)
(5.89045e-09 -5.81597e-06 0)
(5.60038e-09 -5.8208e-06 0)
(5.31223e-09 -5.82542e-06 0)
(5.02611e-09 -5.82986e-06 0)
(4.74211e-09 -5.83408e-06 0)
(4.46035e-09 -5.83811e-06 0)
(4.1809e-09 -5.84193e-06 0)
(3.90389e-09 -5.84555e-06 0)
(3.6294e-09 -5.84894e-06 0)
(3.35755e-09 -5.85213e-06 0)
(3.08842e-09 -5.85509e-06 0)
(2.82212e-09 -5.85785e-06 0)
(2.55874e-09 -5.86037e-06 0)
(2.29839e-09 -5.86268e-06 0)
(2.04115e-09 -5.86475e-06 0)
(1.78714e-09 -5.8666e-06 0)
(1.53642e-09 -5.86821e-06 0)
(1.28911e-09 -5.86961e-06 0)
(1.04529e-09 -5.87075e-06 0)
(8.05051e-10 -5.87168e-06 0)
(5.6848e-10 -5.87235e-06 0)
(3.35667e-10 -5.8728e-06 0)
(1.06692e-10 -5.87299e-06 0)
(-1.1836e-10 -5.87297e-06 0)
(-3.39411e-10 -5.87268e-06 0)
(-5.56384e-10 -5.87217e-06 0)
(-7.69199e-10 -5.87139e-06 0)
(-9.7779e-10 -5.87039e-06 0)
(-1.18208e-09 -5.86913e-06 0)
(-1.382e-09 -5.86764e-06 0)
(-1.57749e-09 -5.86589e-06 0)
(-1.76849e-09 -5.86392e-06 0)
(-1.95492e-09 -5.86167e-06 0)
(-2.13674e-09 -5.85922e-06 0)
(-2.31388e-09 -5.85648e-06 0)
(-2.4863e-09 -5.85354e-06 0)
(-2.65392e-09 -5.85033e-06 0)
(-2.81673e-09 -5.8469e-06 0)
(-2.97457e-09 -5.84321e-06 0)
(-3.12783e-09 -5.83931e-06 0)
(-3.27489e-09 -5.83513e-06 0)
(-3.42307e-09 -5.83073e-06 0)
(-3.57643e-09 -5.8256e-06 0)
(-3.7301e-09 -5.81972e-06 0)
(-3.87992e-09 -5.81347e-06 0)
(-4.02133e-09 -5.80705e-06 0)
(-4.1542e-09 -5.80038e-06 0)
(-4.27871e-09 -5.79355e-06 0)
(-4.39499e-09 -5.78647e-06 0)
(-4.50332e-09 -5.77926e-06 0)
(-4.60387e-09 -5.77183e-06 0)
(-4.69698e-09 -5.7643e-06 0)
(-4.78283e-09 -5.75657e-06 0)
(-4.86173e-09 -5.74876e-06 0)
(-4.93383e-09 -5.74078e-06 0)
(-4.99944e-09 -5.73274e-06 0)
(-5.05871e-09 -5.72454e-06 0)
(-5.11192e-09 -5.71631e-06 0)
(-5.15921e-09 -5.70795e-06 0)
(-5.20085e-09 -5.69956e-06 0)
(-5.23695e-09 -5.69106e-06 0)
(-5.2678e-09 -5.68256e-06 0)
(-5.29347e-09 -5.67396e-06 0)
(-5.31425e-09 -5.66538e-06 0)
(-5.33019e-09 -5.65671e-06 0)
(-5.34155e-09 -5.64808e-06 0)
(-5.34841e-09 -5.63938e-06 0)
(-5.35099e-09 -5.63072e-06 0)
(-5.34936e-09 -5.62201e-06 0)
(-5.34374e-09 -5.61336e-06 0)
(-5.33416e-09 -5.60467e-06 0)
(-5.32086e-09 -5.59605e-06 0)
(-5.30387e-09 -5.58741e-06 0)
(-5.28338e-09 -5.57884e-06 0)
(-5.25943e-09 -5.57027e-06 0)
(-5.23222e-09 -5.56178e-06 0)
(-5.20175e-09 -5.55329e-06 0)
(-5.16822e-09 -5.5449e-06 0)
(-5.13163e-09 -5.53652e-06 0)
(-5.09217e-09 -5.52825e-06 0)
(-5.04983e-09 -5.52e-06 0)
(-5.0048e-09 -5.51187e-06 0)
(-4.95706e-09 -5.50377e-06 0)
(-4.90677e-09 -5.49579e-06 0)
(-4.85394e-09 -5.48785e-06 0)
(-4.79872e-09 -5.48004e-06 0)
(-4.74109e-09 -5.47228e-06 0)
(-4.6812e-09 -5.46466e-06 0)
(-4.61904e-09 -5.45709e-06 0)
(-4.55475e-09 -5.44967e-06 0)
(-4.48831e-09 -5.44232e-06 0)
(-4.41986e-09 -5.43511e-06 0)
(-4.34938e-09 -5.42798e-06 0)
(-4.277e-09 -5.421e-06 0)
(-4.20269e-09 -5.4141e-06 0)
(-4.12659e-09 -5.40736e-06 0)
(-4.04866e-09 -5.40071e-06 0)
(-3.96903e-09 -5.39423e-06 0)
(-3.88769e-09 -5.38783e-06 0)
(-3.80473e-09 -5.38161e-06 0)
(-3.72014e-09 -5.37549e-06 0)
(-3.63403e-09 -5.36954e-06 0)
(-3.54639e-09 -5.36369e-06 0)
(-3.4573e-09 -5.35803e-06 0)
(-3.36677e-09 -5.35247e-06 0)
(-3.27488e-09 -5.3471e-06 0)
(-3.18163e-09 -5.34184e-06 0)
(-3.08711e-09 -5.33677e-06 0)
(-2.99131e-09 -5.33182e-06 0)
(-2.89431e-09 -5.32706e-06 0)
(-2.79611e-09 -5.32242e-06 0)
(-2.6968e-09 -5.31798e-06 0)
(-2.59638e-09 -5.31366e-06 0)
(-2.49492e-09 -5.30954e-06 0)
(-2.39243e-09 -5.30556e-06 0)
(-2.28898e-09 -5.30177e-06 0)
(-2.18459e-09 -5.29812e-06 0)
(-2.07931e-09 -5.29467e-06 0)
(-1.97317e-09 -5.29136e-06 0)
(-1.86623e-09 -5.28825e-06 0)
(-1.7585e-09 -5.28529e-06 0)
(-1.65005e-09 -5.28253e-06 0)
(-1.54091e-09 -5.27992e-06 0)
(-1.43112e-09 -5.27751e-06 0)
(-1.32072e-09 -5.27526e-06 0)
(-1.20975e-09 -5.27321e-06 0)
(-1.09826e-09 -5.27131e-06 0)
(-9.86295e-10 -5.26965e-06 0)
(-8.73888e-10 -5.26801e-06 0)
(-7.61106e-10 -5.26704e-06 0)
(-6.47948e-10 -5.26466e-06 0)
(-5.34607e-10 -5.26769e-06 0)
(-4.20757e-10 -5.25321e-06 0)
(-3.07461e-10 -5.29537e-06 0)
(-1.93179e-10 -5.13643e-06 0)
(-7.82145e-11 -5.55809e-06 0)
(-1.07138e-11 -4.85441e-06 0)
)
;
    }
    bottomWall
    {
        type            calculated;
        value           nonuniform List<vector> 
449
(
(-52.6933 -0.955372 0)
(-34.7262 -0.00279843 0)
(-34.3363 -0.000254323 0)
(-32.9766 -0.000362635 0)
(-31.8537 -0.000314561 0)
(-30.8191 -0.000283813 0)
(-29.9031 -0.000248991 0)
(-29.1042 -0.000217136 0)
(-28.4043 -0.000190617 0)
(-27.7856 -0.000168876 0)
(-27.2335 -0.00015088 0)
(-26.7371 -0.000135797 0)
(-26.2877 -0.000123159 0)
(-25.8774 -0.000112489 0)
(-25.5007 -0.000103285 0)
(-25.1532 -9.52875e-05 0)
(-24.831 -8.83027e-05 0)
(-24.5311 -8.21728e-05 0)
(-24.2508 -7.6772e-05 0)
(-23.9878 -7.1956e-05 0)
(-23.7403 -6.76359e-05 0)
(-23.5069 -6.37501e-05 0)
(-23.286 -6.02441e-05 0)
(-23.0766 -5.70624e-05 0)
(-22.8775 -5.41666e-05 0)
(-22.6879 -5.151e-05 0)
(-22.507 -4.90753e-05 0)
(-22.3341 -4.68363e-05 0)
(-22.1685 -4.47709e-05 0)
(-22.0098 -4.28556e-05 0)
(-21.8574 -4.10799e-05 0)
(-21.7109 -3.94276e-05 0)
(-21.5698 -3.78898e-05 0)
(-21.4339 -3.64492e-05 0)
(-21.3027 -3.51037e-05 0)
(-21.176 -3.38389e-05 0)
(-21.0536 -3.2656e-05 0)
(-20.935 -3.15458e-05 0)
(-20.8202 -3.04993e-05 0)
(-20.7089 -2.95128e-05 0)
(-20.6009 -2.85812e-05 0)
(-20.496 -2.77022e-05 0)
(-20.3941 -2.68669e-05 0)
(-20.295 -2.6071e-05 0)
(-20.1985 -2.53149e-05 0)
(-20.1046 -2.45888e-05 0)
(-20.0132 -2.38973e-05 0)
(-19.9241 -2.32396e-05 0)
(-19.8372 -2.26026e-05 0)
(-19.7526 -2.20029e-05 0)
(-19.6699 -2.14234e-05 0)
(-19.5892 -2.08725e-05 0)
(-19.5103 -2.03474e-05 0)
(-19.4333 -1.98413e-05 0)
(-19.358 -1.93602e-05 0)
(-19.2843 -1.88969e-05 0)
(-19.2122 -1.84553e-05 0)
(-19.1416 -1.8031e-05 0)
(-19.0724 -1.7624e-05 0)
(-19.0046 -1.72329e-05 0)
(-18.9382 -1.68564e-05 0)
(-18.8731 -1.64952e-05 0)
(-18.8091 -1.61459e-05 0)
(-18.7464 -1.58111e-05 0)
(-18.6848 -1.5487e-05 0)
(-18.6244 -1.51752e-05 0)
(-18.565 -1.48738e-05 0)
(-18.5066 -1.45815e-05 0)
(-18.4493 -1.43014e-05 0)
(-18.3929 -1.40262e-05 0)
(-18.3374 -1.37646e-05 0)
(-18.2829 -1.3507e-05 0)
(-18.2292 -1.32598e-05 0)
(-18.1764 -1.30193e-05 0)
(-18.1245 -1.27847e-05 0)
(-18.0733 -1.25599e-05 0)
(-18.0229 -1.23379e-05 0)
(-17.9733 -1.21252e-05 0)
(-17.9244 -1.19178e-05 0)
(-17.8762 -1.17146e-05 0)
(-17.8288 -1.15197e-05 0)
(-17.782 -1.13275e-05 0)
(-17.7359 -1.11415e-05 0)
(-17.6904 -1.09615e-05 0)
(-17.6456 -1.07838e-05 0)
(-17.6013 -1.06127e-05 0)
(-17.5577 -1.04459e-05 0)
(-17.5147 -1.02817e-05 0)
(-17.4722 -1.01236e-05 0)
(-17.4303 -9.96869e-06 0)
(-17.3889 -9.81675e-06 0)
(-17.348 -9.67028e-06 0)
(-17.3077 -9.52637e-06 0)
(-17.2679 -9.38539e-06 0)
(-17.2285 -9.24921e-06 0)
(-17.1897 -9.11537e-06 0)
(-17.1513 -8.98418e-06 0)
(-17.1133 -8.85728e-06 0)
(-17.0758 -8.73267e-06 0)
(-17.0388 -8.61033e-06 0)
(-17.0022 -8.49176e-06 0)
(-16.966 -8.37563e-06 0)
(-16.9302 -8.2613e-06 0)
(-16.8948 -8.15025e-06 0)
(-16.8598 -8.04186e-06 0)
(-16.8252 -7.93486e-06 0)
(-16.7909 -7.83065e-06 0)
(-16.7571 -7.72916e-06 0)
(-16.7236 -7.62904e-06 0)
(-16.6904 -7.53104e-06 0)
(-16.6576 -7.43567e-06 0)
(-16.6251 -7.34197e-06 0)
(-16.593 -7.2497e-06 0)
(-16.5612 -7.15979e-06 0)
(-16.5297 -7.0719e-06 0)
(-16.4985 -6.98512e-06 0)
(-16.4676 -6.9002e-06 0)
(-16.4371 -6.81734e-06 0)
(-16.4068 -6.73588e-06 0)
(-16.3768 -6.65562e-06 0)
(-16.3471 -6.57722e-06 0)
(-16.3177 -6.50045e-06 0)
(-16.2885 -6.42481e-06 0)
(-16.2597 -6.35048e-06 0)
(-16.231 -6.27785e-06 0)
(-16.2027 -6.20654e-06 0)
(-16.1746 -6.13621e-06 0)
(-16.1468 -6.06723e-06 0)
(-16.1192 -5.99971e-06 0)
(-16.0918 -5.93329e-06 0)
(-16.0647 -5.86782e-06 0)
(-16.0378 -5.80361e-06 0)
(-16.0112 -5.74066e-06 0)
(-15.9847 -5.67871e-06 0)
(-15.9585 -5.61765e-06 0)
(-15.9325 -5.55773e-06 0)
(-15.9068 -5.49892e-06 0)
(-15.8812 -5.44104e-06 0)
(-15.8559 -5.38399e-06 0)
(-15.8307 -5.32796e-06 0)
(-15.8058 -5.27292e-06 0)
(-15.781 -5.21875e-06 0)
(-15.7565 -5.16533e-06 0)
(-15.7322 -5.11284e-06 0)
(-15.708 -5.0612e-06 0)
(-15.684 -5.01043e-06 0)
(-15.6602 -4.9603e-06 0)
(-15.6366 -4.91105e-06 0)
(-15.6132 -4.86252e-06 0)
(-15.5899 -4.81485e-06 0)
(-15.5668 -4.76776e-06 0)
(-15.5439 -4.72146e-06 0)
(-15.5212 -4.67582e-06 0)
(-15.4986 -4.63095e-06 0)
(-15.4762 -4.58669e-06 0)
(-15.454 -4.54307e-06 0)
(-15.4319 -4.50011e-06 0)
(-15.4099 -4.45778e-06 0)
(-15.3882 -4.4161e-06 0)
(-15.3665 -4.37496e-06 0)
(-15.345 -4.33445e-06 0)
(-15.3237 -4.29449e-06 0)
(-15.3025 -4.25513e-06 0)
(-15.2815 -4.21633e-06 0)
(-15.2606 -4.17805e-06 0)
(-15.2398 -4.14029e-06 0)
(-15.2192 -4.10313e-06 0)
(-15.1987 -4.06638e-06 0)
(-15.1784 -4.03036e-06 0)
(-15.1582 -3.99446e-06 0)
(-15.1381 -3.95945e-06 0)
(-15.1182 -3.92458e-06 0)
(-15.0983 -3.88807e-06 0)
(-15.0797 -3.85801e-06 0)
(-15.0623 -3.83127e-06 0)
(-15.0447 -3.8003e-06 0)
(-15.0271 -3.76996e-06 0)
(-15.0095 -3.74021e-06 0)
(-14.9918 -3.71041e-06 0)
(-14.9741 -3.68092e-06 0)
(-14.9563 -3.65152e-06 0)
(-14.9384 -3.62229e-06 0)
(-14.9205 -3.59315e-06 0)
(-14.9026 -3.56418e-06 0)
(-14.8846 -3.53529e-06 0)
(-14.8666 -3.50653e-06 0)
(-14.8485 -3.4779e-06 0)
(-14.8304 -3.44936e-06 0)
(-14.8122 -3.42098e-06 0)
(-14.794 -3.39269e-06 0)
(-14.7757 -3.36453e-06 0)
(-14.7574 -3.3365e-06 0)
(-14.739 -3.30855e-06 0)
(-14.7206 -3.28079e-06 0)
(-14.7022 -3.2531e-06 0)
(-14.6837 -3.22557e-06 0)
(-14.6652 -3.19814e-06 0)
(-14.6466 -3.17085e-06 0)
(-14.628 -3.1437e-06 0)
(-14.6093 -3.11666e-06 0)
(-14.5906 -3.08975e-06 0)
(-14.5719 -3.06297e-06 0)
(-14.5531 -3.03631e-06 0)
(-14.5343 -3.00983e-06 0)
(-14.5155 -2.98343e-06 0)
(-14.4966 -2.95719e-06 0)
(-14.4777 -2.93105e-06 0)
(-14.4587 -2.90511e-06 0)
(-14.4397 -2.87925e-06 0)
(-14.4207 -2.85357e-06 0)
(-14.4016 -2.82796e-06 0)
(-14.3825 -2.80256e-06 0)
(-14.3634 -2.77725e-06 0)
(-14.3442 -2.75213e-06 0)
(-14.325 -2.72707e-06 0)
(-14.3058 -2.70221e-06 0)
(-14.2865 -2.67744e-06 0)
(-14.2673 -2.65289e-06 0)
(-14.2479 -2.62841e-06 0)
(-14.2286 -2.60411e-06 0)
(-14.2092 -2.57992e-06 0)
(-14.1898 -2.55594e-06 0)
(-14.1703 -2.53204e-06 0)
(-14.1509 -2.50831e-06 0)
(-14.1314 -2.4847e-06 0)
(-14.1119 -2.46128e-06 0)
(-14.0923 -2.43798e-06 0)
(-14.0728 -2.41481e-06 0)
(-14.0532 -2.39179e-06 0)
(-14.0336 -2.36893e-06 0)
(-14.0139 -2.34623e-06 0)
(-13.9943 -2.32364e-06 0)
(-13.9746 -2.30121e-06 0)
(-13.9549 -2.27893e-06 0)
(-13.9351 -2.25681e-06 0)
(-13.9154 -2.23482e-06 0)
(-13.8956 -2.21298e-06 0)
(-13.8758 -2.19128e-06 0)
(-13.856 -2.16977e-06 0)
(-13.8362 -2.14835e-06 0)
(-13.8164 -2.12711e-06 0)
(-13.7965 -2.10598e-06 0)
(-13.7766 -2.08507e-06 0)
(-13.7567 -2.06422e-06 0)
(-13.7368 -2.04359e-06 0)
(-13.7169 -2.02304e-06 0)
(-13.697 -2.00273e-06 0)
(-13.677 -1.98247e-06 0)
(-13.6571 -1.96244e-06 0)
(-13.6371 -1.94248e-06 0)
(-13.6171 -1.92277e-06 0)
(-13.5971 -1.90308e-06 0)
(-13.5771 -1.88365e-06 0)
(-13.5571 -1.86426e-06 0)
(-13.5371 -1.84514e-06 0)
(-13.517 -1.82604e-06 0)
(-13.497 -1.80719e-06 0)
(-13.4769 -1.78839e-06 0)
(-13.4569 -1.76985e-06 0)
(-13.4368 -1.75133e-06 0)
(-13.4168 -1.73307e-06 0)
(-13.3967 -1.71485e-06 0)
(-13.3766 -1.69689e-06 0)
(-13.3565 -1.67895e-06 0)
(-13.3364 -1.66127e-06 0)
(-13.3163 -1.64362e-06 0)
(-13.2962 -1.62623e-06 0)
(-13.2761 -1.60886e-06 0)
(-13.256 -1.59174e-06 0)
(-13.2359 -1.57466e-06 0)
(-13.2158 -1.55783e-06 0)
(-13.1957 -1.54104e-06 0)
(-13.1756 -1.52449e-06 0)
(-13.1555 -1.50798e-06 0)
(-13.1354 -1.49168e-06 0)
(-13.1153 -1.47546e-06 0)
(-13.0952 -1.45945e-06 0)
(-13.0751 -1.44352e-06 0)
(-13.055 -1.42776e-06 0)
(-13.0349 -1.41211e-06 0)
(-13.0149 -1.39663e-06 0)
(-12.9948 -1.38124e-06 0)
(-12.9747 -1.36602e-06 0)
(-12.9546 -1.35092e-06 0)
(-12.9346 -1.33597e-06 0)
(-12.9145 -1.32113e-06 0)
(-12.8945 -1.30644e-06 0)
(-12.8744 -1.29189e-06 0)
(-12.8544 -1.27744e-06 0)
(-12.8344 -1.26314e-06 0)
(-12.8144 -1.24896e-06 0)
(-12.7944 -1.23493e-06 0)
(-12.7744 -1.221e-06 0)
(-12.7544 -1.20723e-06 0)
(-12.7344 -1.19355e-06 0)
(-12.7145 -1.18005e-06 0)
(-12.6945 -1.16661e-06 0)
(-12.6746 -1.15336e-06 0)
(-12.6547 -1.14018e-06 0)
(-12.6347 -1.12717e-06 0)
(-12.6149 -1.11423e-06 0)
(-12.595 -1.10148e-06 0)
(-12.5751 -1.08878e-06 0)
(-12.5553 -1.07627e-06 0)
(-12.5354 -1.06382e-06 0)
(-12.5156 -1.05157e-06 0)
(-12.4958 -1.03934e-06 0)
(-12.476 -1.0273e-06 0)
(-12.4563 -1.01533e-06 0)
(-12.4365 -1.00353e-06 0)
(-12.4168 -9.91781e-07 0)
(-12.3971 -9.8022e-07 0)
(-12.3774 -9.68708e-07 0)
(-12.3577 -9.57364e-07 0)
(-12.3381 -9.46083e-07 0)
(-12.3184 -9.34972e-07 0)
(-12.2988 -9.23913e-07 0)
(-12.2792 -9.13008e-07 0)
(-12.2597 -9.02175e-07 0)
(-12.2401 -8.91504e-07 0)
(-12.2206 -8.8088e-07 0)
(-12.2011 -8.70411e-07 0)
(-12.1816 -8.60021e-07 0)
(-12.1621 -8.4977e-07 0)
(-12.1427 -8.39576e-07 0)
(-12.1233 -8.29532e-07 0)
(-12.1039 -8.19563e-07 0)
(-12.0845 -8.0972e-07 0)
(-12.0652 -7.99956e-07 0)
(-12.0459 -7.90323e-07 0)
(-12.0266 -7.80757e-07 0)
(-12.0074 -7.7132e-07 0)
(-11.9881 -7.61965e-07 0)
(-11.9689 -7.52719e-07 0)
(-11.9498 -7.43554e-07 0)
(-11.9306 -7.34507e-07 0)
(-11.9115 -7.25551e-07 0)
(-11.8924 -7.16678e-07 0)
(-11.8733 -7.07905e-07 0)
(-11.8543 -6.99232e-07 0)
(-11.8353 -6.90649e-07 0)
(-11.8163 -6.82149e-07 0)
(-11.7974 -6.73761e-07 0)
(-11.7784 -6.65453e-07 0)
(-11.7596 -6.57238e-07 0)
(-11.7407 -6.49101e-07 0)
(-11.7219 -6.41076e-07 0)
(-11.7031 -6.33107e-07 0)
(-11.6843 -6.25254e-07 0)
(-11.6656 -6.17431e-07 0)
(-11.6469 -6.09797e-07 0)
(-11.6282 -6.02031e-07 0)
(-11.6096 -5.94631e-07 0)
(-11.591 -5.87311e-07 0)
(-11.5703 -5.78542e-07 0)
(-11.5479 -5.69318e-07 0)
(-11.5258 -5.6105e-07 0)
(-11.5039 -5.52948e-07 0)
(-11.4825 -5.44908e-07 0)
(-11.4613 -5.37078e-07 0)
(-11.4404 -5.2941e-07 0)
(-11.4198 -5.21935e-07 0)
(-11.3996 -5.1462e-07 0)
(-11.3796 -5.07482e-07 0)
(-11.3598 -5.00521e-07 0)
(-11.3404 -4.93721e-07 0)
(-11.3212 -4.87071e-07 0)
(-11.3022 -4.80587e-07 0)
(-11.2836 -4.74244e-07 0)
(-11.2651 -4.68042e-07 0)
(-11.2469 -4.61989e-07 0)
(-11.2289 -4.56062e-07 0)
(-11.2112 -4.50279e-07 0)
(-11.1937 -4.44606e-07 0)
(-11.1764 -4.39071e-07 0)
(-11.1593 -4.3364e-07 0)
(-11.1425 -4.28346e-07 0)
(-11.1258 -4.23141e-07 0)
(-11.1093 -4.18062e-07 0)
(-11.0931 -4.13074e-07 0)
(-11.077 -4.08194e-07 0)
(-11.0611 -4.03418e-07 0)
(-11.0454 -3.98738e-07 0)
(-11.0299 -3.94147e-07 0)
(-11.0146 -3.89657e-07 0)
(-10.9994 -3.85252e-07 0)
(-10.9844 -3.80934e-07 0)
(-10.9696 -3.76697e-07 0)
(-10.9549 -3.72545e-07 0)
(-10.9404 -3.68474e-07 0)
(-10.9261 -3.64483e-07 0)
(-10.9119 -3.60563e-07 0)
(-10.8979 -3.56723e-07 0)
(-10.8839 -3.52951e-07 0)
(-10.8702 -3.49251e-07 0)
(-10.8566 -3.45621e-07 0)
(-10.8432 -3.42052e-07 0)
(-10.8298 -3.3856e-07 0)
(-10.8167 -3.3512e-07 0)
(-10.8036 -3.31748e-07 0)
(-10.7907 -3.28434e-07 0)
(-10.7779 -3.25184e-07 0)
(-10.7652 -3.21985e-07 0)
(-10.7527 -3.18846e-07 0)
(-10.7403 -3.15764e-07 0)
(-10.728 -3.12729e-07 0)
(-10.7158 -3.09754e-07 0)
(-10.7037 -3.0683e-07 0)
(-10.6918 -3.03955e-07 0)
(-10.6799 -3.01125e-07 0)
(-10.6682 -2.98355e-07 0)
(-10.6566 -2.95621e-07 0)
(-10.6451 -2.92952e-07 0)
(-10.6336 -2.90292e-07 0)
(-10.6224 -2.87725e-07 0)
(-10.6111 -2.85149e-07 0)
(-10.6 -2.82684e-07 0)
(-10.589 -2.80168e-07 0)
(-10.5781 -2.77813e-07 0)
(-10.5672 -2.75339e-07 0)
(-10.5565 -2.73118e-07 0)
(-10.5459 -2.70686e-07 0)
(-10.5354 -2.68589e-07 0)
(-10.5248 -2.66171e-07 0)
(-10.5145 -2.64241e-07 0)
(-10.5042 -2.61805e-07 0)
(-10.494 -2.60052e-07 0)
(-10.4838 -2.57585e-07 0)
(-10.4739 -2.56032e-07 0)
(-10.4638 -2.53513e-07 0)
(-10.454 -2.52187e-07 0)
(-10.444 -2.4961e-07 0)
(-10.4345 -2.48514e-07 0)
(-10.4246 -2.45911e-07 0)
(-10.4152 -2.45004e-07 0)
(-10.4054 -2.42474e-07 0)
(-10.3963 -2.41595e-07 0)
(-10.3865 -2.39492e-07 0)
(-10.3775 -2.38088e-07 0)
(-10.3678 -2.37469e-07 0)
(-10.3589 -2.33789e-07 0)
(-10.3496 -2.37871e-07 0)
(-10.3403 -2.2633e-07 0)
(-10.3319 -2.44913e-07 0)
(-10.321 -2.08689e-07 0)
(-10.3156 -2.65317e-07 0)
(-10.3001 -1.7313e-07 0)
(-10.3024 -2.39664e-07 0)
(-10.2809 -2.81459e-07 0)
)
;
    }
    symmetry
    {
        type            symmetryPlane;
    }
    frontAndBack
    {
        type            empty;
    }
}


// ************************************************************************* //
