/*--------------------------------*- C++ -*----------------------------------*\
| =========                 |                                                 |
| \\      /  F ield         | OpenFOAM: The Open Source CFD Toolbox           |
|  \\    /   O peration     | Version:  v2012                                 |
|   \\  /    A nd           | Website:  www.openfoam.com                      |
|    \\/     M anipulation  |                                                 |
\*---------------------------------------------------------------------------*/
FoamFile
{
    version     2.0;
    format      ascii;
    class       volScalarField;
    location    "3";
    object      epsilon;
}
// * * * * * * * * * * * * * * * * * * * * * * * * * * * * * * * * * * * * * //

dimensions      [0 2 -3 0 0 0 0];


internalField   nonuniform List<scalar> 
209825
(
0.823953
0.822154
0.822018
0.822002
0.821993
0.821993
0.821992
0.821991
0.82199
0.82199
0.82199
0.821991
0.821991
0.821992
0.821992
0.821993
0.821993
0.821995
0.821995
0.821997
0.821997
0.821999
0.821999
0.822001
0.822001
0.822003
0.822003
0.822006
0.822006
0.822009
0.822009
0.822012
0.822012
0.822015
0.822015
0.822019
0.822019
0.822023
0.822023
0.822027
0.822027
0.822032
0.822032
0.822037
0.822037
0.822043
0.822043
0.822049
0.822049
0.822056
0.822056
0.822059
0.822059
0.822058
0.822059
0.822057
0.822064
0.822064
0.822065
0.822062
0.822064
0.822063
0.822072
0.822072
0.822075
0.822074
0.822088
0.822088
0.822088
0.822082
0.822095
0.822095
0.822104
0.822104
0.822124
0.822124
0.822131
0.822131
0.822146
0.822156
0.822168
0.822187
0.822209
0.822208
0.822259
0.822321
0.822366
0.822465
0.822612
0.822768
0.823233
0.823421
0.827534
0.826074
1.14288
264.274
0.823942
0.822139
0.822001
0.821986
0.821977
0.821976
0.821975
0.821975
0.821973
0.821974
0.821973
0.821974
0.821974
0.821975
0.821975
0.821977
0.821977
0.821978
0.821978
0.82198
0.82198
0.821982
0.821982
0.821984
0.821984
0.821987
0.821987
0.821989
0.821989
0.821992
0.821992
0.821995
0.821995
0.821999
0.821999
0.822002
0.822002
0.822006
0.822006
0.822011
0.822011
0.822016
0.822016
0.822021
0.822021
0.822027
0.822027
0.822033
0.822033
0.82204
0.82204
0.822042
0.822042
0.822042
0.822042
0.822041
0.822048
0.822048
0.822049
0.822046
0.822048
0.822047
0.822056
0.822056
0.822058
0.822058
0.822072
0.822072
0.822072
0.822066
0.822079
0.822079
0.822088
0.822088
0.822108
0.822108
0.822115
0.822115
0.82213
0.82214
0.822152
0.822172
0.822193
0.822193
0.822243
0.822305
0.822351
0.82245
0.822597
0.822754
0.823221
0.823409
0.827534
0.826062
1.143
258.675
0.823871
0.822046
0.821905
0.821889
0.82188
0.821879
0.821878
0.821878
0.821876
0.821877
0.821876
0.821877
0.821877
0.821878
0.821878
0.82188
0.82188
0.821881
0.821881
0.821883
0.821883
0.821885
0.821885
0.821887
0.821887
0.82189
0.82189
0.821893
0.821892
0.821895
0.821895
0.821899
0.821899
0.821902
0.821902
0.821906
0.821906
0.82191
0.82191
0.821914
0.821914
0.821919
0.821919
0.821924
0.821924
0.821931
0.821931
0.821937
0.821937
0.821944
0.821944
0.821946
0.821946
0.821946
0.821946
0.821945
0.821952
0.821952
0.821953
0.82195
0.821951
0.821951
0.82196
0.82196
0.821962
0.821962
0.821976
0.821976
0.821976
0.82197
0.821983
0.821983
0.821993
0.821992
0.822013
0.822013
0.822019
0.822019
0.822035
0.822045
0.822057
0.822077
0.822099
0.822099
0.822149
0.822212
0.822259
0.822359
0.822508
0.822666
0.823138
0.823328
0.827481
0.825985
1.142
252.783
0.823746
0.821886
0.82174
0.821723
0.821713
0.821712
0.821711
0.82171
0.821709
0.821709
0.821709
0.82171
0.821709
0.821711
0.821711
0.821712
0.821712
0.821714
0.821714
0.821716
0.821716
0.821718
0.821718
0.82172
0.82172
0.821723
0.821722
0.821725
0.821725
0.821728
0.821728
0.821732
0.821732
0.821735
0.821735
0.821739
0.821739
0.821743
0.821743
0.821747
0.821747
0.821752
0.821752
0.821758
0.821758
0.821764
0.821764
0.82177
0.82177
0.821778
0.821778
0.82178
0.82178
0.821779
0.82178
0.821779
0.821786
0.821786
0.821787
0.821784
0.821786
0.821785
0.821794
0.821794
0.821797
0.821796
0.821811
0.821811
0.82181
0.821805
0.821818
0.821817
0.821827
0.821827
0.821848
0.821848
0.821855
0.821855
0.821871
0.821881
0.821894
0.821913
0.821936
0.821936
0.821988
0.822052
0.822099
0.822201
0.822352
0.822514
0.822993
0.823184
0.827378
0.825851
1.13995
247.714
0.823569
0.821657
0.821504
0.821485
0.821475
0.821474
0.821473
0.821472
0.82147
0.821471
0.82147
0.821471
0.821471
0.821472
0.821472
0.821474
0.821474
0.821475
0.821475
0.821477
0.821477
0.821479
0.821479
0.821482
0.821482
0.821484
0.821484
0.821487
0.821487
0.82149
0.82149
0.821494
0.821494
0.821497
0.821497
0.821501
0.821501
0.821505
0.821505
0.82151
0.82151
0.821515
0.821515
0.821521
0.821521
0.821527
0.821527
0.821534
0.821533
0.821541
0.821541
0.821543
0.821543
0.821543
0.821543
0.821542
0.821549
0.821549
0.82155
0.821548
0.821549
0.821548
0.821558
0.821558
0.82156
0.82156
0.821575
0.821575
0.821575
0.821569
0.821582
0.821582
0.821592
0.821592
0.821613
0.821613
0.821621
0.821621
0.821637
0.821647
0.821661
0.82168
0.821704
0.821705
0.821757
0.821823
0.821871
0.821976
0.82213
0.822296
0.822784
0.822979
0.827225
0.82566
1.13686
243.912
0.823339
0.82136
0.821197
0.821177
0.821166
0.821164
0.821163
0.821162
0.82116
0.821161
0.82116
0.821161
0.821161
0.821162
0.821162
0.821164
0.821164
0.821165
0.821165
0.821167
0.821167
0.821169
0.821169
0.821172
0.821172
0.821175
0.821175
0.821178
0.821178
0.821181
0.821181
0.821184
0.821184
0.821188
0.821188
0.821192
0.821192
0.821196
0.821196
0.821201
0.821201
0.821207
0.821207
0.821212
0.821212
0.821219
0.821219
0.821226
0.821225
0.821233
0.821233
0.821235
0.821235
0.821235
0.821236
0.821235
0.821242
0.821242
0.821243
0.821241
0.821242
0.821241
0.821251
0.821251
0.821253
0.821253
0.821269
0.821269
0.821269
0.821263
0.821276
0.821276
0.821286
0.821286
0.821308
0.821308
0.821317
0.821317
0.821333
0.821342
0.821358
0.821376
0.821403
0.821404
0.821456
0.821525
0.821574
0.821683
0.821841
0.822011
0.822511
0.822711
0.827019
0.825412
1.13273
241.51
0.823057
0.820995
0.820819
0.820796
0.820784
0.820782
0.82078
0.820779
0.820777
0.820778
0.820777
0.820778
0.820778
0.820779
0.820779
0.820781
0.820781
0.820783
0.820783
0.820785
0.820785
0.820787
0.820787
0.82079
0.82079
0.820792
0.820792
0.820796
0.820796
0.820799
0.820799
0.820803
0.820803
0.820807
0.820807
0.820811
0.820811
0.820815
0.820815
0.82082
0.82082
0.820826
0.820826
0.820832
0.820832
0.820839
0.820839
0.820845
0.820845
0.820853
0.820853
0.820856
0.820856
0.820855
0.820856
0.820855
0.820862
0.820862
0.820864
0.820862
0.820863
0.820862
0.820872
0.820872
0.820875
0.820874
0.820891
0.820891
0.82089
0.820884
0.820898
0.820898
0.820909
0.820909
0.820932
0.820932
0.820941
0.820941
0.820958
0.820967
0.820984
0.821002
0.821031
0.821032
0.821086
0.821157
0.821208
0.82132
0.821483
0.821659
0.822173
0.822378
0.826756
0.825107
1.1276
240.475
0.822721
0.820559
0.820368
0.820342
0.820328
0.820326
0.820324
0.820323
0.820321
0.820321
0.82032
0.820321
0.820321
0.820323
0.820323
0.820324
0.820324
0.820326
0.820326
0.820328
0.820328
0.820331
0.820331
0.820334
0.820334
0.820337
0.820337
0.82034
0.82034
0.820343
0.820343
0.820347
0.820347
0.820352
0.820351
0.820356
0.820356
0.82036
0.82036
0.820366
0.820366
0.820372
0.820372
0.820378
0.820378
0.820385
0.820385
0.820392
0.820392
0.820401
0.820401
0.820403
0.820403
0.820402
0.820404
0.820403
0.820409
0.820409
0.820412
0.82041
0.820411
0.820409
0.82042
0.82042
0.820423
0.820422
0.82044
0.82044
0.82044
0.820433
0.820447
0.820447
0.820459
0.820459
0.820483
0.820483
0.820493
0.820493
0.82051
0.820518
0.820538
0.820555
0.820587
0.820588
0.820643
0.820718
0.820771
0.820887
0.821056
0.821238
0.821768
0.82198
0.826434
0.824745
1.12153
240.67
0.822333
0.820053
0.819844
0.819813
0.819798
0.819796
0.819793
0.819792
0.81979
0.81979
0.819789
0.81979
0.819789
0.819791
0.819791
0.819793
0.819793
0.819795
0.819795
0.819797
0.819797
0.8198
0.8198
0.819803
0.819803
0.819806
0.819806
0.819809
0.819809
0.819813
0.819813
0.819817
0.819817
0.819822
0.819822
0.819826
0.819826
0.819831
0.819831
0.819837
0.819837
0.819843
0.819843
0.81985
0.81985
0.819857
0.819857
0.819865
0.819864
0.819873
0.819873
0.819875
0.819875
0.819875
0.819877
0.819876
0.819883
0.819883
0.819886
0.819884
0.819885
0.819883
0.819893
0.819893
0.819897
0.819897
0.819915
0.819915
0.819915
0.819908
0.819922
0.819922
0.819935
0.819935
0.819961
0.819961
0.819972
0.819971
0.819989
0.819997
0.820019
0.820035
0.82007
0.820072
0.820128
0.820206
0.820261
0.820383
0.820558
0.820747
0.821296
0.821515
0.826048
0.824328
1.11458
241.898
0.821892
0.819474
0.819244
0.819209
0.819192
0.819189
0.819186
0.819185
0.819182
0.819182
0.819181
0.819182
0.819181
0.819183
0.819183
0.819185
0.819185
0.819187
0.819187
0.819189
0.819189
0.819192
0.819192
0.819195
0.819195
0.819199
0.819199
0.819203
0.819202
0.819207
0.819207
0.819211
0.819211
0.819216
0.819216
0.81922
0.81922
0.819226
0.819226
0.819232
0.819232
0.819238
0.819238
0.819245
0.819245
0.819254
0.819253
0.819261
0.819261
0.81927
0.81927
0.819273
0.819273
0.819272
0.819274
0.819273
0.81928
0.81928
0.819284
0.819282
0.819283
0.819281
0.819291
0.819291
0.819295
0.819295
0.819315
0.819315
0.819315
0.819308
0.819322
0.819322
0.819335
0.819335
0.819363
0.819363
0.819375
0.819375
0.819393
0.8194
0.819425
0.81944
0.819478
0.819481
0.819539
0.819621
0.819679
0.819806
0.819987
0.820185
0.820753
0.820981
0.825596
0.823855
1.10686
243.93
0.821399
0.818823
0.818568
0.818528
0.818508
0.818504
0.818501
0.818499
0.818497
0.818496
0.818495
0.818496
0.818495
0.818497
0.818497
0.818499
0.818499
0.818501
0.818501
0.818504
0.818504
0.818507
0.818507
0.81851
0.81851
0.818514
0.818514
0.818518
0.818518
0.818522
0.818522
0.818527
0.818527
0.818532
0.818532
0.818537
0.818537
0.818543
0.818543
0.818549
0.818549
0.818556
0.818556
0.818564
0.818564
0.818572
0.818572
0.81858
0.81858
0.81859
0.81859
0.818592
0.818592
0.818592
0.818594
0.818593
0.8186
0.8186
0.818605
0.818604
0.818604
0.818601
0.818612
0.818612
0.818617
0.818617
0.818638
0.818638
0.818637
0.818631
0.818644
0.818644
0.81866
0.81866
0.818689
0.818689
0.818702
0.818702
0.818721
0.818727
0.818754
0.818769
0.818811
0.818815
0.818874
0.818961
0.819021
0.819154
0.819343
0.819549
0.820139
0.820377
0.825074
0.823328
1.09847
246.516
0.820852
0.818099
0.817814
0.817767
0.817745
0.81774
0.817736
0.817735
0.817731
0.817731
0.817729
0.81773
0.817729
0.817731
0.817731
0.817733
0.817733
0.817736
0.817736
0.817739
0.817739
0.817742
0.817742
0.817745
0.817745
0.81775
0.817749
0.817754
0.817754
0.817759
0.817759
0.817764
0.817764
0.817769
0.817769
0.817774
0.817774
0.81778
0.81778
0.817787
0.817787
0.817795
0.817795
0.817803
0.817803
0.817812
0.817812
0.817821
0.81782
0.817831
0.817831
0.817833
0.817833
0.817833
0.817835
0.817835
0.817842
0.817842
0.817847
0.817846
0.817846
0.817843
0.817855
0.817854
0.81786
0.81786
0.817883
0.817883
0.817882
0.817875
0.817889
0.817889
0.817905
0.817905
0.817937
0.817937
0.817952
0.817952
0.817971
0.817975
0.818006
0.81802
0.818067
0.818071
0.818131
0.818224
0.818286
0.818426
0.818623
0.818838
0.819452
0.8197
0.824476
0.822748
1.08956
249.408
0.820253
0.817299
0.816981
0.816926
0.816901
0.816895
0.816891
0.816888
0.816885
0.816884
0.816882
0.816883
0.816882
0.816884
0.816884
0.816886
0.816886
0.816889
0.816889
0.816892
0.816892
0.816895
0.816895
0.816899
0.816899
0.816904
0.816904
0.816908
0.816908
0.816914
0.816914
0.816919
0.816919
0.816925
0.816925
0.816931
0.816931
0.816937
0.816937
0.816945
0.816945
0.816953
0.816953
0.816961
0.816961
0.816971
0.816971
0.81698
0.81698
0.816991
0.816991
0.816994
0.816994
0.816993
0.816996
0.816995
0.817002
0.817002
0.817009
0.817008
0.817008
0.817004
0.817016
0.817016
0.817022
0.817022
0.817047
0.817047
0.817046
0.817039
0.817053
0.817053
0.817071
0.817071
0.817105
0.817105
0.817121
0.817122
0.81714
0.817144
0.817179
0.817191
0.817243
0.817249
0.81731
0.817408
0.817473
0.81762
0.817826
0.818051
0.818688
0.818949
0.823799
0.822116
1.08028
252.369
0.819601
0.816423
0.816066
0.816003
0.815974
0.815967
0.815961
0.815959
0.815955
0.815954
0.815951
0.815952
0.815951
0.815953
0.815953
0.815955
0.815955
0.815958
0.815958
0.815962
0.815962
0.815966
0.815966
0.81597
0.81597
0.815975
0.815974
0.81598
0.81598
0.815985
0.815985
0.815991
0.815991
0.815997
0.815997
0.816004
0.816004
0.816011
0.81601
0.816019
0.816019
0.816027
0.816027
0.816036
0.816036
0.816047
0.816047
0.816057
0.816057
0.816069
0.816069
0.816071
0.816071
0.816071
0.816074
0.816073
0.81608
0.81608
0.816088
0.816088
0.816087
0.816083
0.816095
0.816095
0.816102
0.816102
0.816129
0.816129
0.816128
0.816121
0.816135
0.816135
0.816154
0.816154
0.816192
0.816191
0.816209
0.81621
0.816228
0.816231
0.816269
0.81628
0.816337
0.816345
0.816407
0.816511
0.81658
0.816734
0.816949
0.817184
0.817847
0.818121
0.823039
0.821433
1.0708
255.18
0.818897
0.815469
0.815068
0.814995
0.814962
0.814953
0.814947
0.814944
0.814939
0.814938
0.814935
0.814935
0.814934
0.814937
0.814937
0.814939
0.814939
0.814942
0.814942
0.814946
0.814946
0.81495
0.81495
0.814955
0.814954
0.81496
0.81496
0.814965
0.814965
0.814971
0.814971
0.814978
0.814978
0.814985
0.814985
0.814991
0.814991
0.814999
0.814999
0.815008
0.815008
0.815017
0.815017
0.815027
0.815027
0.815038
0.815038
0.815048
0.815048
0.815061
0.815061
0.815064
0.815064
0.815064
0.815067
0.815067
0.815074
0.815074
0.815083
0.815083
0.815082
0.815077
0.81509
0.81509
0.815098
0.815098
0.815126
0.815126
0.815126
0.815118
0.815132
0.815132
0.815153
0.815153
0.815194
0.815194
0.815212
0.815215
0.815233
0.815234
0.815276
0.815286
0.815349
0.815358
0.815421
0.815532
0.815604
0.815766
0.815991
0.816236
0.816925
0.817215
0.82219
0.820701
1.06132
257.644
0.81814
0.814436
0.813986
0.8139
0.813863
0.813852
0.813844
0.813841
0.813835
0.813834
0.81383
0.813831
0.813829
0.813832
0.813832
0.813834
0.813834
0.813838
0.813838
0.813842
0.813842
0.813846
0.813846
0.813851
0.813851
0.813857
0.813857
0.813863
0.813863
0.81387
0.81387
0.813877
0.813877
0.813884
0.813884
0.813892
0.813891
0.8139
0.813899
0.813909
0.813909
0.813919
0.813919
0.81393
0.81393
0.813942
0.813942
0.813953
0.813953
0.813967
0.813967
0.813969
0.81397
0.81397
0.813973
0.813973
0.81398
0.81398
0.813991
0.81399
0.81399
0.813984
0.813998
0.813998
0.814006
0.814006
0.814037
0.814037
0.814037
0.814029
0.814043
0.814043
0.814066
0.814066
0.81411
0.81411
0.81413
0.814133
0.814151
0.814152
0.814197
0.814206
0.814274
0.814286
0.814349
0.814467
0.814543
0.814714
0.814948
0.815204
0.815921
0.816226
0.821248
0.819922
1.05203
259.59
0.817332
0.813322
0.812816
0.812717
0.812673
0.81266
0.812651
0.812647
0.812641
0.81264
0.812635
0.812636
0.812634
0.812637
0.812637
0.812639
0.812639
0.812643
0.812643
0.812647
0.812647
0.812652
0.812652
0.812658
0.812658
0.812664
0.812664
0.812671
0.81267
0.812678
0.812678
0.812685
0.812685
0.812693
0.812693
0.812702
0.812701
0.81271
0.81271
0.812721
0.812721
0.812731
0.812731
0.812743
0.812743
0.812756
0.812756
0.812768
0.812768
0.812783
0.812783
0.812785
0.812786
0.812786
0.81279
0.81279
0.812797
0.812797
0.812809
0.812809
0.812808
0.812802
0.812816
0.812816
0.812826
0.812826
0.812859
0.812859
0.812859
0.812851
0.812866
0.812865
0.81289
0.81289
0.812937
0.812937
0.812958
0.812964
0.81298
0.81298
0.81303
0.813037
0.813112
0.813126
0.81319
0.813315
0.813394
0.813574
0.813819
0.814085
0.81483
0.815153
0.820208
0.819096
1.04313
260.875
0.816471
0.812127
0.811557
0.811442
0.811392
0.811376
0.811366
0.811361
0.811354
0.811352
0.811347
0.811347
0.811345
0.811348
0.811348
0.811351
0.811351
0.811354
0.811354
0.811359
0.811359
0.811365
0.811365
0.811371
0.811371
0.811378
0.811378
0.811385
0.811385
0.811393
0.811393
0.811401
0.811401
0.81141
0.81141
0.811419
0.811419
0.811428
0.811428
0.811439
0.811439
0.811451
0.811451
0.811463
0.811463
0.811478
0.811478
0.81149
0.81149
0.811507
0.811507
0.811508
0.811511
0.811511
0.811515
0.811514
0.811522
0.811522
0.811536
0.811536
0.811535
0.811528
0.811543
0.811543
0.811553
0.811553
0.811589
0.81159
0.811589
0.811581
0.811596
0.811596
0.811622
0.811622
0.811673
0.811673
0.811696
0.811703
0.811718
0.811718
0.811772
0.811778
0.811859
0.811876
0.81194
0.812073
0.812156
0.812345
0.8126
0.812878
0.813651
0.813993
0.819064
0.818225
1.03482
261.385
0.81556
0.810848
0.810207
0.810073
0.810016
0.809997
0.809985
0.809979
0.809971
0.809968
0.809963
0.809962
0.809959
0.809963
0.809963
0.809966
0.809966
0.80997
0.80997
0.809975
0.809975
0.809981
0.809981
0.809988
0.809988
0.809995
0.809995
0.810003
0.810003
0.810012
0.810012
0.810021
0.810021
0.810031
0.810031
0.81004
0.81004
0.810051
0.81005
0.810063
0.810063
0.810076
0.810076
0.810089
0.810089
0.810105
0.810105
0.810118
0.810118
0.810135
0.810135
0.810137
0.81014
0.81014
0.810144
0.810144
0.810151
0.810151
0.810168
0.810168
0.810167
0.810159
0.810175
0.810174
0.810186
0.810186
0.810225
0.810226
0.810225
0.810218
0.810232
0.810232
0.81026
0.81026
0.810316
0.810316
0.810339
0.810349
0.810362
0.810362
0.81042
0.810425
0.810513
0.810533
0.810596
0.810738
0.810825
0.811024
0.811289
0.811578
0.812379
0.812743
0.817812
0.817309
1.0273
261.038
0.814598
0.809484
0.808762
0.808607
0.808542
0.808519
0.808505
0.808498
0.808489
0.808486
0.80848
0.808479
0.808475
0.808479
0.808479
0.808482
0.808482
0.808486
0.808486
0.808492
0.808492
0.808499
0.808499
0.808506
0.808506
0.808514
0.808514
0.808523
0.808523
0.808533
0.808533
0.808542
0.808542
0.808553
0.808553
0.808563
0.808563
0.808574
0.808574
0.808588
0.808588
0.808602
0.808602
0.808616
0.808616
0.808633
0.808633
0.808647
0.808647
0.808666
0.808666
0.808667
0.808672
0.808672
0.808676
0.808676
0.808683
0.808683
0.808702
0.808702
0.808701
0.808692
0.808709
0.808709
0.808721
0.808721
0.808764
0.808764
0.808764
0.808756
0.808771
0.80877
0.808801
0.808801
0.808861
0.808861
0.808886
0.808898
0.80891
0.80891
0.808971
0.808975
0.809071
0.809094
0.809157
0.809307
0.809399
0.809607
0.809883
0.810183
0.811013
0.811398
0.816446
0.816349
1.02076
259.778
0.813587
0.808034
0.807221
0.807043
0.806967
0.806941
0.806923
0.806915
0.806905
0.806901
0.806894
0.806893
0.806888
0.806893
0.806893
0.806896
0.806895
0.8069
0.8069
0.806906
0.806906
0.806914
0.806914
0.806922
0.806922
0.806931
0.806931
0.80694
0.80694
0.806951
0.806951
0.806962
0.806962
0.806973
0.806973
0.806984
0.806984
0.806997
0.806997
0.807011
0.807011
0.807026
0.807026
0.807042
0.807042
0.80706
0.80706
0.807076
0.807075
0.807096
0.807096
0.807096
0.807103
0.807103
0.807107
0.807106
0.807115
0.807115
0.807136
0.807136
0.807135
0.807125
0.807142
0.807142
0.807156
0.807156
0.807202
0.807203
0.807202
0.807195
0.807209
0.807209
0.807242
0.807242
0.807307
0.807307
0.807332
0.807348
0.807357
0.807357
0.807423
0.807426
0.807529
0.807557
0.807618
0.807777
0.807873
0.808092
0.808378
0.80869
0.809547
0.809957
0.814962
0.815343
1.01537
257.558
0.812526
0.806496
0.805582
0.805375
0.805288
0.805257
0.805237
0.805227
0.805216
0.805211
0.805203
0.805201
0.805195
0.8052
0.8052
0.805204
0.805203
0.805208
0.805208
0.805215
0.805215
0.805223
0.805223
0.805232
0.805232
0.805242
0.805242
0.805252
0.805252
0.805264
0.805264
0.805276
0.805276
0.805288
0.805288
0.8053
0.8053
0.805314
0.805314
0.80533
0.80533
0.805346
0.805346
0.805363
0.805363
0.805383
0.805383
0.805399
0.805399
0.805421
0.805421
0.80542
0.805429
0.805429
0.805434
0.805433
0.805441
0.805441
0.805466
0.805466
0.805464
0.805453
0.805472
0.805472
0.805487
0.805487
0.805537
0.805537
0.805537
0.805531
0.805544
0.805543
0.80558
0.80558
0.80565
0.80565
0.805676
0.805694
0.805702
0.805702
0.805771
0.805773
0.805885
0.805917
0.805976
0.806144
0.806246
0.806475
0.806772
0.807095
0.807979
0.808415
0.813353
0.814291
1.01129
254.37
0.811417
0.804868
0.803841
0.803603
0.803502
0.803466
0.803442
0.80343
0.803417
0.803412
0.803403
0.803401
0.803393
0.803399
0.803399
0.803402
0.803402
0.803407
0.803407
0.803414
0.803414
0.803423
0.803423
0.803433
0.803433
0.803444
0.803444
0.803455
0.803455
0.803468
0.803468
0.803481
0.803481
0.803494
0.803494
0.803508
0.803508
0.803523
0.803522
0.80354
0.80354
0.803558
0.803557
0.803576
0.803576
0.803597
0.803597
0.803615
0.803615
0.803638
0.803638
0.803637
0.803648
0.803648
0.803653
0.803652
0.803661
0.80366
0.803688
0.803688
0.803686
0.803674
0.803694
0.803694
0.803711
0.803711
0.803765
0.803765
0.803764
0.803759
0.803772
0.803771
0.80381
0.80381
0.803886
0.803886
0.803912
0.803934
0.80394
0.803941
0.804014
0.804015
0.804134
0.804171
0.804228
0.804406
0.804513
0.804752
0.80506
0.805394
0.806304
0.806768
0.811615
0.81319
1.00865
250.224
0.81026
0.803149
0.801995
0.801721
0.801605
0.801563
0.801535
0.801521
0.801507
0.801501
0.80149
0.801487
0.801478
0.801484
0.801484
0.801487
0.801487
0.801492
0.801492
0.801501
0.8015
0.80151
0.80151
0.801521
0.801521
0.801533
0.801533
0.801546
0.801546
0.80156
0.80156
0.801574
0.801574
0.801588
0.801588
0.801603
0.801603
0.801619
0.801619
0.801638
0.801638
0.801657
0.801657
0.801677
0.801677
0.8017
0.8017
0.801719
0.801719
0.801744
0.801744
0.801743
0.801755
0.801755
0.80176
0.801759
0.801768
0.801768
0.801799
0.801799
0.801797
0.801784
0.801805
0.801805
0.801823
0.801823
0.801882
0.801882
0.801881
0.801877
0.801889
0.801889
0.80193
0.80193
0.802013
0.802012
0.802039
0.802064
0.802069
0.802069
0.802146
0.802147
0.802274
0.802316
0.802371
0.802559
0.802672
0.802921
0.803239
0.803584
0.804519
0.805013
0.809745
0.812038
1.00754
245.152
0.809057
0.801338
0.800043
0.799728
0.799595
0.799545
0.799512
0.799496
0.79948
0.799473
0.79946
0.799457
0.799446
0.799452
0.799452
0.799456
0.799455
0.799461
0.799461
0.79947
0.79947
0.799481
0.799481
0.799492
0.799492
0.799505
0.799505
0.799519
0.799519
0.799535
0.799535
0.79955
0.79955
0.799566
0.799566
0.799582
0.799582
0.7996
0.799599
0.79962
0.79962
0.799641
0.799641
0.799662
0.799662
0.799688
0.799688
0.799708
0.799708
0.799735
0.799735
0.799733
0.799748
0.799748
0.799753
0.799751
0.799761
0.799761
0.799796
0.799795
0.799794
0.799778
0.799802
0.799801
0.799821
0.799821
0.799884
0.799884
0.799884
0.799882
0.799892
0.799892
0.799936
0.799936
0.800025
0.800025
0.800051
0.80008
0.800084
0.800084
0.800164
0.800165
0.800301
0.800348
0.8004
0.800598
0.800717
0.800978
0.801306
0.80166
0.80262
0.803146
0.807739
0.810831
1.00802
239.201
0.80781
0.799433
0.797981
0.79762
0.797467
0.797408
0.79737
0.797351
0.797332
0.797324
0.79731
0.797305
0.797293
0.7973
0.7973
0.797303
0.797302
0.797309
0.797309
0.797318
0.797318
0.79733
0.79733
0.797342
0.797342
0.797357
0.797357
0.797373
0.797373
0.797389
0.797389
0.797406
0.797406
0.797423
0.797423
0.797441
0.797441
0.79746
0.79746
0.797482
0.797482
0.797505
0.797505
0.797528
0.797528
0.797555
0.797555
0.797577
0.797577
0.797606
0.797606
0.797604
0.797622
0.797621
0.797626
0.797624
0.797635
0.797635
0.797673
0.797673
0.797671
0.797654
0.797679
0.797679
0.797701
0.7977
0.797768
0.797769
0.797768
0.797768
0.797776
0.797776
0.797824
0.797824
0.79792
0.79792
0.797945
0.797978
0.797982
0.797981
0.798065
0.798066
0.798211
0.798264
0.798312
0.79852
0.798647
0.798918
0.799255
0.799619
0.800601
0.801162
0.805594
0.809562
1.01012
232.432
0.806519
0.797433
0.795807
0.795393
0.795217
0.795149
0.795104
0.795083
0.795061
0.795051
0.795035
0.795029
0.795015
0.795022
0.795022
0.795025
0.795024
0.795031
0.795031
0.795041
0.795041
0.795054
0.795054
0.795068
0.795068
0.795084
0.795084
0.795101
0.795101
0.795119
0.795119
0.795137
0.795137
0.795156
0.795156
0.795175
0.795175
0.795196
0.795196
0.79522
0.79522
0.795245
0.795245
0.79527
0.79527
0.795299
0.795299
0.795323
0.795323
0.795354
0.795354
0.795351
0.795372
0.795372
0.795377
0.795374
0.795385
0.795385
0.795428
0.795427
0.795425
0.795407
0.795434
0.795434
0.795457
0.795457
0.79553
0.795531
0.79553
0.795533
0.795539
0.795539
0.79559
0.79559
0.795694
0.795694
0.795717
0.795755
0.795758
0.795757
0.795845
0.795845
0.795999
0.796058
0.796102
0.796321
0.796455
0.796737
0.797083
0.797457
0.798459
0.799056
0.803308
0.808225
1.01381
224.921
0.805186
0.795337
0.793517
0.793044
0.792843
0.792762
0.792711
0.792685
0.79266
0.792649
0.792631
0.792624
0.792607
0.792614
0.792614
0.792618
0.792616
0.792623
0.792623
0.792634
0.792634
0.792648
0.792648
0.792664
0.792664
0.792681
0.792681
0.7927
0.7927
0.79272
0.79272
0.792739
0.79274
0.79276
0.79276
0.792781
0.792781
0.792804
0.792804
0.79283
0.79283
0.792857
0.792857
0.792884
0.792884
0.792916
0.792916
0.792941
0.792941
0.792974
0.792973
0.792971
0.792995
0.792995
0.792999
0.792996
0.793008
0.793008
0.793055
0.793055
0.793053
0.793033
0.793063
0.793062
0.793087
0.793087
0.793165
0.793166
0.793165
0.793172
0.793175
0.793175
0.79323
0.79323
0.793341
0.793342
0.793363
0.793406
0.793408
0.793408
0.793498
0.793499
0.793663
0.793727
0.793768
0.793997
0.794138
0.794431
0.794786
0.795168
0.796189
0.796825
0.800879
0.80681
1.01902
216.751
0.803814
0.793145
0.79111
0.790569
0.790339
0.790245
0.790186
0.790156
0.790127
0.790114
0.790093
0.790085
0.790065
0.790073
0.790073
0.790076
0.790074
0.790082
0.790081
0.790093
0.790093
0.790109
0.790109
0.790125
0.790125
0.790145
0.790145
0.790165
0.790165
0.790187
0.790187
0.790208
0.790208
0.790231
0.790231
0.790253
0.790253
0.790278
0.790278
0.790307
0.790307
0.790336
0.790336
0.790365
0.790365
0.790399
0.790399
0.790426
0.790426
0.790461
0.790461
0.790458
0.790486
0.790486
0.79049
0.790486
0.790499
0.790499
0.790551
0.790551
0.790549
0.790527
0.79056
0.790559
0.790586
0.790585
0.79067
0.79067
0.790669
0.790679
0.790681
0.79068
0.790739
0.790739
0.79086
0.79086
0.790878
0.790927
0.790928
0.790928
0.791022
0.791022
0.791196
0.791266
0.791303
0.791542
0.791692
0.791996
0.792359
0.792749
0.793787
0.794464
0.798306
0.805305
1.02565
208.013
0.802404
0.790854
0.788582
0.787965
0.787702
0.787593
0.787524
0.787489
0.787456
0.787441
0.787418
0.787408
0.787385
0.787393
0.787393
0.787396
0.787393
0.787401
0.787401
0.787413
0.787413
0.78743
0.78743
0.787448
0.787448
0.78747
0.78747
0.787492
0.787492
0.787516
0.787516
0.787539
0.787539
0.787563
0.787563
0.787588
0.787588
0.787615
0.787615
0.787646
0.787646
0.787677
0.787677
0.787709
0.787709
0.787746
0.787746
0.787775
0.787775
0.787812
0.787812
0.787809
0.787841
0.787841
0.787845
0.787839
0.787854
0.787854
0.787911
0.78791
0.787908
0.787885
0.787921
0.78792
0.787948
0.787947
0.788038
0.788038
0.788037
0.788051
0.788051
0.78805
0.788113
0.788113
0.788243
0.788243
0.788258
0.788313
0.788314
0.788313
0.78841
0.788411
0.788595
0.788671
0.788703
0.788953
0.789113
0.789427
0.789797
0.790195
0.791246
0.791967
0.795589
0.803696
1.03352
198.804
0.800958
0.788465
0.785932
0.785229
0.784928
0.784802
0.784722
0.784681
0.784643
0.784625
0.784599
0.784588
0.784561
0.784569
0.784569
0.784572
0.784569
0.784577
0.784576
0.784589
0.784589
0.784608
0.784608
0.784628
0.784628
0.784651
0.784651
0.784675
0.784675
0.784702
0.784702
0.784727
0.784727
0.784753
0.784753
0.78478
0.78478
0.78481
0.784809
0.784844
0.784843
0.784877
0.784877
0.784911
0.784911
0.784951
0.784951
0.784982
0.784982
0.785022
0.785022
0.785018
0.785055
0.785055
0.785058
0.785052
0.785068
0.785068
0.78513
0.785129
0.785127
0.785102
0.785142
0.785141
0.78517
0.785169
0.785266
0.785267
0.785265
0.785282
0.785282
0.78528
0.785347
0.785346
0.785486
0.785488
0.785498
0.78556
0.78556
0.78556
0.78566
0.785661
0.785855
0.785937
0.785965
0.786225
0.786394
0.78672
0.787096
0.7875
0.788563
0.789331
0.792726
0.80197
1.04242
189.221
0.799478
0.785977
0.783156
0.782357
0.782013
0.781867
0.781775
0.781727
0.781684
0.781662
0.781633
0.78162
0.781589
0.781597
0.781597
0.7816
0.781595
0.781604
0.781603
0.781617
0.781617
0.781637
0.781637
0.781659
0.781659
0.781684
0.781684
0.781711
0.781711
0.781739
0.781739
0.781767
0.781767
0.781795
0.781795
0.781825
0.781824
0.781857
0.781857
0.781894
0.781893
0.78193
0.781929
0.781966
0.781966
0.782009
0.782009
0.782042
0.782042
0.782085
0.782085
0.78208
0.782123
0.782123
0.782125
0.782117
0.782135
0.782135
0.782203
0.782202
0.7822
0.782174
0.782217
0.782216
0.782247
0.782246
0.782349
0.782351
0.782348
0.782369
0.782369
0.782365
0.782436
0.782436
0.782585
0.782588
0.782594
0.782663
0.782663
0.782663
0.782765
0.782766
0.782971
0.783059
0.783083
0.783353
0.783533
0.78387
0.784251
0.784661
0.785732
0.78655
0.789715
0.800113
1.05208
179.36
0.797969
0.78339
0.780252
0.779345
0.778953
0.778783
0.778677
0.778622
0.778572
0.778548
0.778514
0.778499
0.778464
0.778472
0.778471
0.778474
0.778468
0.778477
0.778475
0.778491
0.77849
0.778513
0.778512
0.778536
0.778536
0.778564
0.778564
0.778593
0.778593
0.778624
0.778624
0.778654
0.778654
0.778685
0.778684
0.778717
0.778716
0.778751
0.778751
0.778791
0.778791
0.77883
0.77883
0.778869
0.778869
0.778916
0.778916
0.778951
0.778951
0.778996
0.778996
0.778992
0.77904
0.77904
0.779041
0.779032
0.779052
0.779052
0.779126
0.779125
0.779122
0.779095
0.779143
0.779142
0.779173
0.779172
0.779283
0.779284
0.779281
0.779305
0.779305
0.7793
0.779376
0.779376
0.779535
0.779539
0.779541
0.779617
0.779617
0.779617
0.779722
0.779723
0.779939
0.780032
0.780052
0.780332
0.780523
0.780871
0.781257
0.781671
0.782748
0.783619
0.78655
0.798111
1.06219
169.317
0.796431
0.780705
0.777218
0.77619
0.775743
0.775548
0.775426
0.775361
0.775305
0.775276
0.775238
0.775221
0.775181
0.775188
0.775188
0.775189
0.775182
0.775191
0.775189
0.775205
0.775205
0.775229
0.775229
0.775254
0.775254
0.775285
0.775285
0.775316
0.775316
0.77535
0.77535
0.775383
0.775382
0.775416
0.775416
0.775451
0.77545
0.775488
0.775488
0.775532
0.775531
0.775574
0.775573
0.775616
0.775616
0.775666
0.775665
0.775703
0.775703
0.775751
0.775751
0.775746
0.775801
0.775801
0.775801
0.775791
0.775813
0.775813
0.775892
0.775892
0.775889
0.77586
0.775913
0.775912
0.775944
0.775944
0.776061
0.776063
0.77606
0.776088
0.776087
0.776082
0.776162
0.776161
0.776331
0.776335
0.776335
0.776417
0.776418
0.776417
0.776526
0.776526
0.776754
0.776852
0.776867
0.777157
0.777361
0.777719
0.778108
0.778527
0.779606
0.780533
0.783228
0.795946
1.07239
159.182
0.794869
0.777921
0.774052
0.772888
0.772381
0.772155
0.772015
0.77194
0.771875
0.771842
0.771799
0.771779
0.771734
0.77174
0.77174
0.771741
0.771733
0.771741
0.771739
0.771755
0.771755