/*--------------------------------*- C++ -*----------------------------------*\
| =========                 |                                                 |
| \\      /  F ield         | OpenFOAM: The Open Source CFD Toolbox           |
|  \\    /   O peration     | Version:  v2012                                 |
|   \\  /    A nd           | Website:  www.openfoam.com                      |
|    \\/     M anipulation  |                                                 |
\*---------------------------------------------------------------------------*/
FoamFile
{
    version     2.0;
    format      ascii;
    class       volScalarField;
    location    "3";
    object      nut;
}
// * * * * * * * * * * * * * * * * * * * * * * * * * * * * * * * * * * * * * //

dimensions      [0 2 -1 0 0 0 0];


internalField   nonuniform List<scalar> 
209825
(
1.21642e-07
1.20543e-07
1.20289e-07
1.20205e-07
1.20165e-07
1.20145e-07
1.20131e-07
1.20124e-07
1.20117e-07
1.20114e-07
1.20109e-07
1.20107e-07
1.20103e-07
1.20106e-07
1.20106e-07
1.20106e-07
1.20105e-07
1.20107e-07
1.20107e-07
1.2011e-07
1.2011e-07
1.20115e-07
1.20115e-07
1.20119e-07
1.20119e-07
1.20125e-07
1.20125e-07
1.20131e-07
1.20131e-07
1.20138e-07
1.20138e-07
1.20144e-07
1.20144e-07
1.2015e-07
1.2015e-07
1.20152e-07
1.20151e-07
1.20151e-07
1.20148e-07
1.20151e-07
1.20151e-07
1.20153e-07
1.20153e-07
1.20152e-07
1.20149e-07
1.20156e-07
1.20156e-07
1.20154e-07
1.20158e-07
1.20157e-07
1.20158e-07
1.20162e-07
1.20162e-07
1.20162e-07
1.20161e-07
1.20161e-07
1.20159e-07
1.20162e-07
1.20162e-07
1.20162e-07
1.20165e-07
1.20166e-07
1.20172e-07
1.20175e-07
1.20175e-07
1.20175e-07
1.20174e-07
1.20173e-07
1.20175e-07
1.20175e-07
1.20184e-07
1.20184e-07
1.20191e-07
1.20191e-07
1.20187e-07
1.20184e-07
1.20188e-07
1.20188e-07
1.20203e-07
1.20205e-07
1.20206e-07
1.20203e-07
1.20222e-07
1.20227e-07
1.20239e-07
1.20255e-07
1.20285e-07
1.20285e-07
1.2032e-07
1.20374e-07
1.20496e-07
1.20538e-07
1.21237e-07
1.21216e-07
1.81057e-07
3.35575e-10
1.21641e-07
1.20542e-07
1.20287e-07
1.20203e-07
1.20161e-07
1.20142e-07
1.20128e-07
1.20121e-07
1.20114e-07
1.20111e-07
1.20105e-07
1.20104e-07
1.201e-07
1.20102e-07
1.20102e-07
1.20103e-07
1.20102e-07
1.20104e-07
1.20104e-07
1.20107e-07
1.20107e-07
1.20111e-07
1.20111e-07
1.20116e-07
1.20116e-07
1.20122e-07
1.20122e-07
1.20128e-07
1.20128e-07
1.20134e-07
1.20134e-07
1.20141e-07
1.20141e-07
1.20147e-07
1.20147e-07
1.20148e-07
1.20148e-07
1.20147e-07
1.20145e-07
1.20148e-07
1.20148e-07
1.2015e-07
1.2015e-07
1.20149e-07
1.20146e-07
1.20152e-07
1.20152e-07
1.20151e-07
1.20155e-07
1.20154e-07
1.20155e-07
1.20158e-07
1.20158e-07
1.20158e-07
1.20158e-07
1.20157e-07
1.20156e-07
1.20159e-07
1.20158e-07
1.20159e-07
1.20162e-07
1.20162e-07
1.20168e-07
1.20172e-07
1.20172e-07
1.20172e-07
1.20171e-07
1.2017e-07
1.20171e-07
1.20172e-07
1.2018e-07
1.2018e-07
1.20187e-07
1.20187e-07
1.20184e-07
1.20181e-07
1.20185e-07
1.20185e-07
1.202e-07
1.20202e-07
1.20203e-07
1.202e-07
1.20219e-07
1.20224e-07
1.20236e-07
1.20252e-07
1.20282e-07
1.20282e-07
1.20317e-07
1.20371e-07
1.20493e-07
1.20535e-07
1.21235e-07
1.21214e-07
1.81024e-07
3.46444e-10
1.2164e-07
1.20535e-07
1.20277e-07
1.20192e-07
1.2015e-07
1.2013e-07
1.20116e-07
1.20109e-07
1.20102e-07
1.20098e-07
1.20093e-07
1.20091e-07
1.20087e-07
1.2009e-07
1.2009e-07
1.2009e-07
1.2009e-07
1.20091e-07
1.20091e-07
1.20094e-07
1.20094e-07
1.20099e-07
1.20099e-07
1.20103e-07
1.20103e-07
1.20109e-07
1.20109e-07
1.20115e-07
1.20115e-07
1.20122e-07
1.20122e-07
1.20128e-07
1.20128e-07
1.20134e-07
1.20134e-07
1.20136e-07
1.20136e-07
1.20135e-07
1.20133e-07
1.20136e-07
1.20136e-07
1.20137e-07
1.20137e-07
1.20136e-07
1.20134e-07
1.2014e-07
1.2014e-07
1.20139e-07
1.20143e-07
1.20142e-07
1.20142e-07
1.20146e-07
1.20146e-07
1.20146e-07
1.20146e-07
1.20145e-07
1.20144e-07
1.20146e-07
1.20146e-07
1.20146e-07
1.2015e-07
1.2015e-07
1.20156e-07
1.2016e-07
1.20159e-07
1.20159e-07
1.20159e-07
1.20157e-07
1.20159e-07
1.2016e-07
1.20168e-07
1.20168e-07
1.20175e-07
1.20175e-07
1.20172e-07
1.20169e-07
1.20173e-07
1.20173e-07
1.20188e-07
1.2019e-07
1.20191e-07
1.20188e-07
1.20207e-07
1.20212e-07
1.20224e-07
1.2024e-07
1.20271e-07
1.2027e-07
1.20305e-07
1.2036e-07
1.20482e-07
1.20525e-07
1.21225e-07
1.21205e-07
1.80864e-07
3.62045e-10
1.21638e-07
1.20523e-07
1.20261e-07
1.20174e-07
1.20131e-07
1.20111e-07
1.20096e-07
1.20089e-07
1.20082e-07
1.20078e-07
1.20072e-07
1.20071e-07
1.20066e-07
1.20069e-07
1.20069e-07
1.20069e-07
1.20069e-07
1.2007e-07
1.2007e-07
1.20074e-07
1.20073e-07
1.20078e-07
1.20078e-07
1.20083e-07
1.20083e-07
1.20089e-07
1.20089e-07
1.20095e-07
1.20095e-07
1.20102e-07
1.20102e-07
1.20108e-07
1.20108e-07
1.20114e-07
1.20114e-07
1.20116e-07
1.20116e-07
1.20115e-07
1.20112e-07
1.20115e-07
1.20115e-07
1.20117e-07
1.20117e-07
1.20116e-07
1.20113e-07
1.2012e-07
1.2012e-07
1.20118e-07
1.20122e-07
1.20121e-07
1.20122e-07
1.20126e-07
1.20126e-07
1.20126e-07
1.20126e-07
1.20125e-07
1.20123e-07
1.20126e-07
1.20126e-07
1.20126e-07
1.2013e-07
1.2013e-07
1.20136e-07
1.2014e-07
1.20139e-07
1.20139e-07
1.20139e-07
1.20137e-07
1.20139e-07
1.20139e-07
1.20148e-07
1.20148e-07
1.20155e-07
1.20155e-07
1.20152e-07
1.20149e-07
1.20153e-07
1.20153e-07
1.20168e-07
1.2017e-07
1.20171e-07
1.20169e-07
1.20188e-07
1.20193e-07
1.20205e-07
1.20221e-07
1.20251e-07
1.20251e-07
1.20286e-07
1.20342e-07
1.20464e-07
1.20507e-07
1.21208e-07
1.2119e-07
1.8058e-07
3.81153e-10
1.21636e-07
1.20507e-07
1.20239e-07
1.20149e-07
1.20105e-07
1.20083e-07
1.20068e-07
1.2006e-07
1.20053e-07
1.20049e-07
1.20043e-07
1.20042e-07
1.20037e-07
1.2004e-07
1.2004e-07
1.2004e-07
1.20039e-07
1.20041e-07
1.20041e-07
1.20044e-07
1.20044e-07
1.20049e-07
1.20049e-07
1.20054e-07
1.20054e-07
1.2006e-07
1.2006e-07
1.20066e-07
1.20066e-07
1.20073e-07
1.20073e-07
1.20079e-07
1.20079e-07
1.20085e-07
1.20085e-07
1.20087e-07
1.20087e-07
1.20086e-07
1.20083e-07
1.20087e-07
1.20087e-07
1.20088e-07
1.20088e-07
1.20087e-07
1.20085e-07
1.20091e-07
1.20091e-07
1.2009e-07
1.20094e-07
1.20093e-07
1.20093e-07
1.20097e-07
1.20097e-07
1.20097e-07
1.20097e-07
1.20096e-07
1.20095e-07
1.20098e-07
1.20097e-07
1.20097e-07
1.20101e-07
1.20101e-07
1.20108e-07
1.20111e-07
1.20111e-07
1.20111e-07
1.20111e-07
1.20109e-07
1.20111e-07
1.20111e-07
1.2012e-07
1.2012e-07
1.20127e-07
1.20127e-07
1.20124e-07
1.20121e-07
1.20125e-07
1.20125e-07
1.2014e-07
1.20142e-07
1.20144e-07
1.20141e-07
1.2016e-07
1.20166e-07
1.20177e-07
1.20194e-07
1.20225e-07
1.20224e-07
1.2026e-07
1.20315e-07
1.20439e-07
1.20483e-07
1.21183e-07
1.21168e-07
1.80171e-07
4.03142e-10
1.21633e-07
1.20487e-07
1.20211e-07
1.20117e-07
1.2007e-07
1.20048e-07
1.20032e-07
1.20024e-07
1.20016e-07
1.20012e-07
1.20006e-07
1.20004e-07
1.19999e-07
1.20002e-07
1.20002e-07
1.20002e-07
1.20002e-07
1.20003e-07
1.20003e-07
1.20006e-07
1.20006e-07
1.20011e-07
1.20011e-07
1.20016e-07
1.20016e-07
1.20022e-07
1.20022e-07
1.20029e-07
1.20029e-07
1.20036e-07
1.20036e-07
1.20042e-07
1.20042e-07
1.20048e-07
1.20048e-07
1.2005e-07
1.2005e-07
1.20049e-07
1.20046e-07
1.20049e-07
1.20049e-07
1.20051e-07
1.20051e-07
1.2005e-07
1.20047e-07
1.20054e-07
1.20054e-07
1.20052e-07
1.20057e-07
1.20056e-07
1.20056e-07
1.2006e-07
1.2006e-07
1.2006e-07
1.2006e-07
1.20059e-07
1.20058e-07
1.20061e-07
1.2006e-07
1.20061e-07
1.20064e-07
1.20064e-07
1.20071e-07
1.20075e-07
1.20074e-07
1.20074e-07
1.20074e-07
1.20073e-07
1.20074e-07
1.20074e-07
1.20084e-07
1.20084e-07
1.20091e-07
1.20091e-07
1.20088e-07
1.20084e-07
1.20089e-07
1.20089e-07
1.20104e-07
1.20106e-07
1.20107e-07
1.20105e-07
1.20124e-07
1.2013e-07
1.20142e-07
1.20158e-07
1.2019e-07
1.2019e-07
1.20225e-07
1.20281e-07
1.20406e-07
1.2045e-07
1.2115e-07
1.21141e-07
1.79633e-07
4.27631e-10
1.21629e-07
1.20461e-07
1.20175e-07
1.20077e-07
1.20028e-07
1.20004e-07
1.19988e-07
1.19979e-07
1.1997e-07
1.19966e-07
1.1996e-07
1.19958e-07
1.19953e-07
1.19955e-07
1.19955e-07
1.19956e-07
1.19955e-07
1.19956e-07
1.19956e-07
1.19959e-07
1.19959e-07
1.19964e-07
1.19964e-07
1.19969e-07
1.19969e-07
1.19976e-07
1.19976e-07
1.19982e-07
1.19982e-07
1.1999e-07
1.1999e-07
1.19996e-07
1.19996e-07
1.20003e-07
1.20003e-07
1.20004e-07
1.20004e-07
1.20003e-07
1.2e-07
1.20004e-07
1.20004e-07
1.20005e-07
1.20005e-07
1.20004e-07
1.20001e-07
1.20008e-07
1.20008e-07
1.20006e-07
1.20011e-07
1.2001e-07
1.2001e-07
1.20015e-07
1.20015e-07
1.20015e-07
1.20014e-07
1.20013e-07
1.20013e-07
1.20015e-07
1.20015e-07
1.20015e-07
1.20019e-07
1.20019e-07
1.20026e-07
1.2003e-07
1.20029e-07
1.20029e-07
1.20029e-07
1.20027e-07
1.20029e-07
1.20029e-07
1.20039e-07
1.20039e-07
1.20046e-07
1.20046e-07
1.20043e-07
1.20039e-07
1.20044e-07
1.20044e-07
1.20059e-07
1.20061e-07
1.20063e-07
1.2006e-07
1.2008e-07
1.20087e-07
1.20098e-07
1.20114e-07
1.20147e-07
1.20147e-07
1.20183e-07
1.20239e-07
1.20365e-07
1.2041e-07
1.2111e-07
1.21107e-07
1.78966e-07
4.54356e-10
1.21625e-07
1.20431e-07
1.20134e-07
1.2003e-07
1.19978e-07
1.19952e-07
1.19934e-07
1.19925e-07
1.19916e-07
1.19911e-07
1.19905e-07
1.19902e-07
1.19897e-07
1.199e-07
1.199e-07
1.199e-07
1.19899e-07
1.19901e-07
1.199e-07
1.19904e-07
1.19904e-07
1.19909e-07
1.19909e-07
1.19914e-07
1.19914e-07
1.19921e-07
1.19921e-07
1.19927e-07
1.19927e-07
1.19935e-07
1.19935e-07
1.19941e-07
1.19941e-07
1.19948e-07
1.19948e-07
1.19949e-07
1.19949e-07
1.19949e-07
1.19946e-07
1.19949e-07
1.19949e-07
1.19951e-07
1.19951e-07
1.1995e-07
1.19947e-07
1.19953e-07
1.19953e-07
1.19952e-07
1.19956e-07
1.19955e-07
1.19955e-07
1.1996e-07
1.1996e-07
1.1996e-07
1.1996e-07
1.19959e-07
1.19958e-07
1.19961e-07
1.1996e-07
1.1996e-07
1.19964e-07
1.19964e-07
1.19972e-07
1.19976e-07
1.19975e-07
1.19975e-07
1.19975e-07
1.19973e-07
1.19975e-07
1.19975e-07
1.19985e-07
1.19985e-07
1.19993e-07
1.19993e-07
1.19989e-07
1.19985e-07
1.1999e-07
1.1999e-07
1.20006e-07
1.20008e-07
1.2001e-07
1.20007e-07
1.20027e-07
1.20034e-07
1.20046e-07
1.20062e-07
1.20096e-07
1.20096e-07
1.20132e-07
1.20189e-07
1.20316e-07
1.20362e-07
1.21061e-07
1.21067e-07
1.7817e-07
4.83131e-10
1.2162e-07
1.20397e-07
1.20085e-07
1.19975e-07
1.19919e-07
1.19892e-07
1.19872e-07
1.19862e-07
1.19852e-07
1.19847e-07
1.1984e-07
1.19838e-07
1.19832e-07
1.19834e-07
1.19834e-07
1.19835e-07
1.19834e-07
1.19835e-07
1.19835e-07
1.19838e-07
1.19838e-07
1.19844e-07
1.19844e-07
1.19849e-07
1.19849e-07
1.19856e-07
1.19856e-07
1.19863e-07
1.19863e-07
1.19871e-07
1.19871e-07
1.19877e-07
1.19877e-07
1.19884e-07
1.19884e-07
1.19886e-07
1.19885e-07
1.19885e-07
1.19882e-07
1.19885e-07
1.19885e-07
1.19887e-07
1.19887e-07
1.19886e-07
1.19882e-07
1.19889e-07
1.19889e-07
1.19888e-07
1.19892e-07
1.19891e-07
1.19891e-07
1.19896e-07
1.19896e-07
1.19896e-07
1.19896e-07
1.19895e-07
1.19895e-07
1.19897e-07
1.19897e-07
1.19897e-07
1.199e-07
1.19901e-07
1.19908e-07
1.19912e-07
1.19912e-07
1.19912e-07
1.19912e-07
1.1991e-07
1.19912e-07
1.19912e-07
1.19922e-07
1.19922e-07
1.1993e-07
1.1993e-07
1.19926e-07
1.19923e-07
1.19928e-07
1.19928e-07
1.19944e-07
1.19946e-07
1.19947e-07
1.19945e-07
1.19965e-07
1.19973e-07
1.19984e-07
1.20001e-07
1.20036e-07
1.20036e-07
1.20072e-07
1.2013e-07
1.20258e-07
1.20306e-07
1.21003e-07
1.2102e-07
1.77245e-07
5.13827e-10
1.21615e-07
1.20358e-07
1.2003e-07
1.19912e-07
1.19852e-07
1.19822e-07
1.19801e-07
1.1979e-07
1.1978e-07
1.19774e-07
1.19767e-07
1.19764e-07
1.19757e-07
1.1976e-07
1.1976e-07
1.1976e-07
1.19759e-07
1.1976e-07
1.1976e-07
1.19763e-07
1.19763e-07
1.19769e-07
1.19769e-07
1.19774e-07
1.19774e-07
1.19782e-07
1.19782e-07
1.19789e-07
1.19789e-07
1.19797e-07
1.19797e-07
1.19804e-07
1.19804e-07
1.1981e-07
1.1981e-07
1.19812e-07
1.19812e-07
1.19811e-07
1.19808e-07
1.19811e-07
1.19811e-07
1.19813e-07
1.19813e-07
1.19812e-07
1.19809e-07
1.19816e-07
1.19816e-07
1.19814e-07
1.19819e-07
1.19818e-07
1.19818e-07
1.19823e-07
1.19823e-07
1.19823e-07
1.19823e-07
1.19822e-07
1.19822e-07
1.19824e-07
1.19824e-07
1.19824e-07
1.19827e-07
1.19828e-07
1.19836e-07
1.1984e-07
1.19839e-07
1.19839e-07
1.19839e-07
1.19838e-07
1.1984e-07
1.1984e-07
1.1985e-07
1.1985e-07
1.19858e-07
1.19858e-07
1.19854e-07
1.19851e-07
1.19856e-07
1.19856e-07
1.19872e-07
1.19874e-07
1.19876e-07
1.19874e-07
1.19894e-07
1.19903e-07
1.19914e-07
1.19931e-07
1.19967e-07
1.19967e-07
1.20004e-07
1.20062e-07
1.20192e-07
1.20242e-07
1.20937e-07
1.20966e-07
1.76193e-07
5.46353e-10
1.2161e-07
1.20314e-07
1.19967e-07
1.19841e-07
1.19776e-07
1.19744e-07
1.19721e-07
1.19708e-07
1.19697e-07
1.19691e-07
1.19683e-07
1.1968e-07
1.19673e-07
1.19675e-07
1.19675e-07
1.19675e-07
1.19674e-07
1.19675e-07
1.19675e-07
1.19678e-07
1.19678e-07
1.19684e-07
1.19684e-07
1.1969e-07
1.1969e-07
1.19698e-07
1.19698e-07
1.19705e-07
1.19705e-07
1.19714e-07
1.19714e-07
1.19721e-07
1.19721e-07
1.19727e-07
1.19727e-07
1.19729e-07
1.19729e-07
1.19728e-07
1.19725e-07
1.19728e-07
1.19728e-07
1.1973e-07
1.1973e-07
1.19729e-07
1.19726e-07
1.19733e-07
1.19733e-07
1.19731e-07
1.19736e-07
1.19735e-07
1.19735e-07
1.1974e-07
1.1974e-07
1.1974e-07
1.1974e-07
1.19739e-07
1.1974e-07
1.19742e-07
1.19741e-07
1.19741e-07
1.19745e-07
1.19745e-07
1.19754e-07
1.19758e-07
1.19757e-07
1.19757e-07
1.19757e-07
1.19756e-07
1.19758e-07
1.19758e-07
1.19768e-07
1.19768e-07
1.19777e-07
1.19777e-07
1.19772e-07
1.19769e-07
1.19775e-07
1.19775e-07
1.19791e-07
1.19793e-07
1.19795e-07
1.19793e-07
1.19814e-07
1.19824e-07
1.19834e-07
1.19851e-07
1.19889e-07
1.19889e-07
1.19927e-07
1.19985e-07
1.20117e-07
1.20169e-07
1.2086e-07
1.20905e-07
1.75016e-07
5.8066e-10
1.21604e-07
1.20265e-07
1.19898e-07
1.19762e-07
1.19692e-07
1.19656e-07
1.19631e-07
1.19617e-07
1.19605e-07
1.19598e-07
1.1959e-07
1.19586e-07
1.19578e-07
1.19581e-07
1.19581e-07
1.19581e-07
1.19579e-07
1.1958e-07
1.1958e-07
1.19583e-07
1.19583e-07
1.19589e-07
1.19589e-07
1.19595e-07
1.19595e-07
1.19604e-07
1.19604e-07
1.19611e-07
1.19611e-07
1.1962e-07
1.1962e-07
1.19628e-07
1.19628e-07
1.19634e-07
1.19634e-07
1.19636e-07
1.19636e-07
1.19635e-07
1.19632e-07
1.19635e-07
1.19635e-07
1.19637e-07
1.19637e-07
1.19636e-07
1.19632e-07
1.19639e-07
1.19639e-07
1.19638e-07
1.19643e-07
1.19641e-07
1.19641e-07
1.19647e-07
1.19647e-07
1.19647e-07
1.19647e-07
1.19646e-07
1.19647e-07
1.19649e-07
1.19648e-07
1.19648e-07
1.19652e-07
1.19652e-07
1.19662e-07
1.19666e-07
1.19665e-07
1.19665e-07
1.19665e-07
1.19664e-07
1.19666e-07
1.19666e-07
1.19677e-07
1.19677e-07
1.19686e-07
1.19686e-07
1.19681e-07
1.19677e-07
1.19684e-07
1.19684e-07
1.19701e-07
1.19702e-07
1.19705e-07
1.19703e-07
1.19724e-07
1.19735e-07
1.19745e-07
1.19762e-07
1.19801e-07
1.19802e-07
1.1984e-07
1.19899e-07
1.20033e-07
1.20086e-07
1.20774e-07
1.20837e-07
1.73719e-07
6.16707e-10
1.21598e-07
1.20212e-07
1.19822e-07
1.19674e-07
1.19598e-07
1.19559e-07
1.19532e-07
1.19516e-07
1.19503e-07
1.19495e-07
1.19486e-07
1.19482e-07
1.19474e-07
1.19476e-07
1.19476e-07
1.19475e-07
1.19474e-07
1.19475e-07
1.19474e-07
1.19478e-07
1.19478e-07
1.19484e-07
1.19484e-07
1.1949e-07
1.1949e-07
1.19499e-07
1.19499e-07
1.19507e-07
1.19507e-07
1.19517e-07
1.19517e-07
1.19524e-07
1.19524e-07
1.19531e-07
1.19531e-07
1.19533e-07
1.19533e-07
1.19532e-07
1.19528e-07
1.19532e-07
1.19532e-07
1.19534e-07
1.19534e-07
1.19532e-07
1.19529e-07
1.19536e-07
1.19536e-07
1.19534e-07
1.1954e-07
1.19538e-07
1.19538e-07
1.19544e-07
1.19544e-07
1.19544e-07
1.19544e-07
1.19543e-07
1.19544e-07
1.19546e-07
1.19545e-07
1.19545e-07
1.19549e-07
1.19549e-07
1.1956e-07
1.19564e-07
1.19563e-07
1.19563e-07
1.19564e-07
1.19563e-07
1.19564e-07
1.19564e-07
1.19575e-07
1.19575e-07
1.19585e-07
1.19585e-07
1.19579e-07
1.19576e-07
1.19583e-07
1.19583e-07
1.196e-07
1.19601e-07
1.19604e-07
1.19602e-07
1.19624e-07
1.19636e-07
1.19646e-07
1.19663e-07
1.19704e-07
1.19705e-07
1.19743e-07
1.19803e-07
1.19939e-07
1.19995e-07
1.20677e-07
1.20761e-07
1.72304e-07
6.54458e-10
1.21592e-07
1.20154e-07
1.19739e-07
1.19578e-07
1.19496e-07
1.19452e-07
1.19422e-07
1.19405e-07
1.1939e-07
1.19382e-07
1.19372e-07
1.19367e-07
1.19358e-07
1.1936e-07
1.1936e-07
1.1936e-07
1.19358e-07
1.19359e-07
1.19358e-07
1.19362e-07
1.19362e-07
1.19368e-07
1.19368e-07
1.19375e-07
1.19375e-07
1.19384e-07
1.19384e-07
1.19393e-07
1.19393e-07
1.19403e-07
1.19403e-07
1.1941e-07
1.1941e-07
1.19417e-07
1.19417e-07
1.19419e-07
1.19419e-07
1.19418e-07
1.19414e-07
1.19418e-07
1.19418e-07
1.1942e-07
1.1942e-07
1.19418e-07
1.19415e-07
1.19422e-07
1.19422e-07
1.1942e-07
1.19426e-07
1.19424e-07
1.19424e-07
1.19431e-07
1.19431e-07
1.19431e-07
1.1943e-07
1.19429e-07
1.19431e-07
1.19433e-07
1.19432e-07
1.19432e-07
1.19435e-07
1.19436e-07
1.19447e-07
1.19452e-07
1.19451e-07
1.1945e-07
1.19451e-07
1.1945e-07
1.19452e-07
1.19451e-07
1.19463e-07
1.19463e-07
1.19473e-07
1.19473e-07
1.19467e-07
1.19464e-07
1.19471e-07
1.19471e-07
1.19489e-07
1.1949e-07
1.19494e-07
1.19492e-07
1.19514e-07
1.19527e-07
1.19536e-07
1.19553e-07
1.19597e-07
1.19598e-07
1.19637e-07
1.19697e-07
1.19835e-07
1.19893e-07
1.20569e-07
1.20678e-07
1.70777e-07
6.93871e-10
1.21586e-07
1.20093e-07
1.19648e-07
1.19474e-07
1.19384e-07
1.19336e-07
1.19303e-07
1.19284e-07
1.19267e-07
1.19258e-07
1.19247e-07
1.19242e-07
1.19232e-07
1.19234e-07
1.19234e-07
1.19233e-07
1.19231e-07
1.19232e-07
1.19231e-07
1.19234e-07
1.19234e-07
1.19241e-07
1.19241e-07
1.19248e-07
1.19248e-07
1.19258e-07
1.19258e-07
1.19267e-07
1.19267e-07
1.19278e-07
1.19278e-07
1.19286e-07
1.19286e-07
1.19293e-07
1.19293e-07
1.19295e-07
1.19295e-07
1.19293e-07
1.1929e-07
1.19293e-07
1.19293e-07
1.19295e-07
1.19295e-07
1.19294e-07
1.1929e-07
1.19297e-07
1.19297e-07
1.19295e-07
1.19301e-07
1.19299e-07
1.19299e-07
1.19306e-07
1.19306e-07
1.19306e-07
1.19305e-07
1.19305e-07
1.19307e-07
1.19309e-07
1.19308e-07
1.19308e-07
1.19311e-07
1.19312e-07
1.19324e-07
1.19329e-07
1.19328e-07
1.19327e-07
1.19328e-07
1.19328e-07
1.19329e-07
1.19328e-07
1.19341e-07
1.19341e-07
1.19351e-07
1.19351e-07
1.19345e-07
1.19341e-07
1.1935e-07
1.19349e-07
1.19368e-07
1.19369e-07
1.19372e-07
1.19371e-07
1.19393e-07
1.19408e-07
1.19416e-07
1.19434e-07
1.19479e-07
1.19481e-07
1.1952e-07
1.19581e-07
1.19721e-07
1.19782e-07
1.2045e-07
1.20586e-07
1.69141e-07
7.34896e-10
1.2158e-07
1.20026e-07
1.19551e-07
1.19362e-07
1.19262e-07
1.19209e-07
1.19173e-07
1.19152e-07
1.19134e-07
1.19123e-07
1.19111e-07
1.19106e-07
1.19094e-07
1.19096e-07
1.19096e-07
1.19095e-07
1.19092e-07
1.19093e-07
1.19092e-07
1.19096e-07
1.19096e-07
1.19103e-07
1.19103e-07
1.1911e-07
1.1911e-07
1.19121e-07
1.19121e-07
1.1913e-07
1.1913e-07
1.19142e-07
1.19142e-07
1.1915e-07
1.1915e-07
1.19157e-07
1.19157e-07
1.19159e-07
1.19159e-07
1.19158e-07
1.19154e-07
1.19157e-07
1.19157e-07
1.1916e-07
1.1916e-07
1.19158e-07
1.19153e-07
1.19161e-07
1.19161e-07
1.19159e-07
1.19165e-07
1.19163e-07
1.19163e-07
1.19171e-07
1.19171e-07
1.19171e-07
1.1917e-07
1.1917e-07
1.19172e-07
1.19174e-07
1.19172e-07
1.19173e-07
1.19176e-07
1.19177e-07
1.19189e-07
1.19195e-07
1.19193e-07
1.19193e-07
1.19194e-07
1.19194e-07
1.19195e-07
1.19194e-07
1.19207e-07
1.19207e-07
1.19218e-07
1.19218e-07
1.19212e-07
1.19208e-07
1.19217e-07
1.19217e-07
1.19235e-07
1.19236e-07
1.1924e-07
1.19239e-07
1.19262e-07
1.19278e-07
1.19286e-07
1.19303e-07
1.19351e-07
1.19353e-07
1.19393e-07
1.19455e-07
1.19597e-07
1.1966e-07
1.20319e-07
1.20487e-07
1.67412e-07
7.77491e-10
1.21575e-07
1.19956e-07
1.19447e-07
1.1924e-07
1.19132e-07
1.19073e-07
1.19033e-07
1.19009e-07
1.18989e-07
1.18977e-07
1.18964e-07
1.18958e-07
1.18945e-07
1.18947e-07
1.18946e-07
1.18945e-07
1.18942e-07
1.18943e-07
1.18942e-07
1.18945e-07
1.18945e-07
1.18953e-07
1.18953e-07
1.18961e-07
1.18961e-07
1.18972e-07
1.18972e-07
1.18982e-07
1.18982e-07
1.18994e-07
1.18994e-07
1.19002e-07
1.19002e-07
1.1901e-07
1.1901e-07
1.19012e-07
1.19012e-07
1.1901e-07
1.19006e-07
1.19009e-07
1.19009e-07
1.19012e-07
1.19012e-07
1.1901e-07
1.19006e-07
1.19014e-07
1.19014e-07
1.19011e-07
1.19018e-07
1.19016e-07
1.19015e-07
1.19024e-07
1.19024e-07
1.19024e-07
1.19022e-07
1.19023e-07
1.19025e-07
1.19027e-07
1.19025e-07
1.19027e-07
1.19029e-07
1.1903e-07
1.19043e-07
1.19049e-07
1.19048e-07
1.19047e-07
1.19049e-07
1.19049e-07
1.19049e-07
1.19049e-07
1.19062e-07
1.19062e-07
1.19074e-07
1.19074e-07
1.19067e-07
1.19063e-07
1.19073e-07
1.19073e-07
1.19092e-07
1.19093e-07
1.19097e-07
1.19096e-07
1.19119e-07
1.19136e-07
1.19144e-07
1.19161e-07
1.19212e-07
1.19214e-07
1.19255e-07
1.19318e-07
1.19461e-07
1.19528e-07
1.20176e-07
1.20379e-07
1.65618e-07
8.21625e-10
1.2157e-07
1.19882e-07
1.19336e-07
1.19111e-07
1.18991e-07
1.18926e-07
1.18882e-07
1.18855e-07
1.18833e-07
1.1882e-07
1.18805e-07
1.18798e-07
1.18785e-07
1.18786e-07
1.18785e-07
1.18784e-07
1.18781e-07
1.18781e-07
1.18779e-07
1.18783e-07
1.18783e-07
1.18791e-07
1.18791e-07
1.18799e-07
1.18799e-07
1.18811e-07
1.18811e-07
1.18822e-07
1.18822e-07
1.18835e-07
1.18835e-07
1.18843e-07
1.18843e-07
1.18851e-07
1.18851e-07
1.18853e-07
1.18853e-07
1.18851e-07
1.18847e-07
1.1885e-07
1.1885e-07
1.18853e-07
1.18853e-07
1.18851e-07
1.18846e-07
1.18854e-07
1.18854e-07
1.18851e-07
1.18859e-07
1.18857e-07
1.18856e-07
1.18865e-07
1.18865e-07
1.18865e-07
1.18863e-07
1.18865e-07
1.18867e-07
1.18869e-07
1.18867e-07
1.18868e-07
1.1887e-07
1.18871e-07
1.18886e-07
1.18892e-07
1.18891e-07
1.1889e-07
1.18892e-07
1.18892e-07
1.18893e-07
1.18892e-07
1.18906e-07
1.18906e-07
1.18918e-07
1.18918e-07
1.1891e-07
1.18907e-07
1.18918e-07
1.18917e-07
1.18937e-07
1.18938e-07
1.18942e-07
1.18941e-07
1.18965e-07
1.18984e-07
1.18991e-07
1.19008e-07
1.19061e-07
1.19064e-07
1.19105e-07
1.19169e-07
1.19315e-07
1.19384e-07
1.2002e-07
1.20262e-07
1.63788e-07
8.67275e-10
1.21566e-07
1.19804e-07
1.19218e-07
1.18972e-07
1.18841e-07
1.18769e-07
1.1872e-07
1.1869e-07
1.18666e-07
1.18651e-07
1.18635e-07
1.18627e-07
1.18612e-07
1.18613e-07
1.18612e-07
1.1861e-07
1.18607e-07
1.18607e-07
1.18605e-07
1.18609e-07
1.18608e-07
1.18617e-07
1.18617e-07
1.18625e-07
1.18625e-07
1.18638e-07
1.18638e-07
1.18649e-07
1.18649e-07
1.18663e-07
1.18663e-07
1.18672e-07
1.18672e-07
1.1868e-07
1.18679e-07
1.18682e-07
1.18682e-07
1.1868e-07
1.18676e-07
1.18679e-07
1.18679e-07
1.18682e-07
1.18682e-07
1.1868e-07
1.18674e-07
1.18683e-07
1.18683e-07
1.1868e-07
1.18688e-07
1.18685e-07
1.18685e-07
1.18694e-07
1.18694e-07
1.18694e-07
1.18692e-07
1.18695e-07
1.18696e-07
1.18699e-07
1.18696e-07
1.18698e-07
1.187e-07
1.18701e-07
1.18716e-07
1.18724e-07
1.18722e-07
1.18721e-07
1.18723e-07
1.18723e-07
1.18724e-07
1.18722e-07
1.18738e-07
1.18738e-07
1.18751e-07
1.18751e-07
1.18742e-07
1.18739e-07
1.18751e-07
1.1875e-07
1.1877e-07
1.18771e-07
1.18776e-07
1.18775e-07
1.18799e-07
1.18819e-07
1.18826e-07
1.18843e-07
1.18899e-07
1.18903e-07
1.18945e-07
1.19009e-07
1.19156e-07
1.19229e-07
1.19851e-07
1.20136e-07
1.6195e-07
9.14399e-10
1.21563e-07
1.19723e-07
1.19094e-07
1.18825e-07
1.18681e-07
1.18601e-07
1.18547e-07
1.18514e-07
1.18486e-07
1.1847e-07
1.18452e-07
1.18444e-07
1.18427e-07
1.18427e-07
1.18426e-07
1.18425e-07
1.1842e-07
1.1842e-07
1.18418e-07
1.18422e-07
1.18421e-07
1.1843e-07
1.1843e-07
1.18439e-07
1.18439e-07
1.18453e-07
1.18453e-07
1.18465e-07
1.18465e-07
1.1848e-07
1.1848e-07
1.18488e-07
1.18488e-07
1.18496e-07
1.18496e-07
1.18499e-07
1.18499e-07
1.18497e-07
1.18492e-07
1.18495e-07
1.18495e-07
1.18498e-07
1.18498e-07
1.18496e-07
1.1849e-07
1.18499e-07
1.18499e-07
1.18496e-07
1.18504e-07
1.18501e-07
1.18501e-07
1.18511e-07
1.18511e-07
1.1851e-07
1.18508e-07
1.18512e-07
1.18514e-07
1.18516e-07
1.18513e-07
1.18516e-07
1.18517e-07
1.18518e-07
1.18535e-07
1.18542e-07
1.1854e-07
1.1854e-07
1.18543e-07
1.18542e-07
1.18543e-07
1.18541e-07
1.18557e-07
1.18557e-07
1.18571e-07
1.18571e-07
1.18562e-07
1.18558e-07
1.18572e-07
1.18571e-07
1.18592e-07
1.18592e-07
1.18597e-07
1.18597e-07
1.18621e-07
1.18643e-07
1.1865e-07
1.18666e-07
1.18725e-07
1.18729e-07
1.18772e-07
1.18837e-07
1.18986e-07
1.19063e-07
1.19668e-07
1.20001e-07
1.60136e-07
9.62982e-10
1.21561e-07
1.19639e-07
1.18963e-07
1.1867e-07
1.18511e-07
1.18423e-07
1.18362e-07
1.18326e-07
1.18295e-07
1.18277e-07
1.18257e-07
1.18248e-07
1.1823e-07
1.18229e-07
1.18228e-07
1.18226e-07
1.18221e-07
1.18221e-07
1.18218e-07
1.18221e-07
1.18221e-07
1.18231e-07
1.18231e-07
1.1824e-07
1.1824e-07
1.18255e-07
1.18254e-07
1.18267e-07
1.18267e-07
1.18283e-07
1.18283e-07
1.18292e-07
1.18292e-07
1.183e-07
1.183e-07
1.18303e-07
1.18303e-07
1.183e-07
1.18295e-07
1.18298e-07
1.18298e-07
1.18302e-07
1.18302e-07
1.18299e-07
1.18293e-07
1.18302e-07
1.18302e-07
1.18299e-07
1.18308e-07
1.18305e-07
1.18304e-07
1.18315e-07
1.18314e-07
1.18314e-07
1.18312e-07
1.18317e-07
1.18318e-07
1.1832e-07
1.18317e-07
1.1832e-07
1.18321e-07
1.18322e-07
1.1834e-07
1.18349e-07
1.18346e-07
1.18346e-07
1.18349e-07
1.18349e-07
1.18349e-07
1.18347e-07
1.18364e-07
1.18364e-07
1.18379e-07
1.18379e-07
1.18369e-07
1.18365e-07
1.1838e-07
1.1838e-07
1.18401e-07
1.18401e-07
1.18406e-07
1.18406e-07
1.18431e-07
1.18454e-07
1.1846e-07
1.18477e-07
1.18539e-07
1.18543e-07
1.18587e-07
1.18653e-07
1.18803e-07
1.18884e-07
1.19472e-07
1.19856e-07
1.58376e-07
1.01309e-09
1.2156e-07
1.19551e-07
1.18825e-07
1.18506e-07
1.18332e-07
1.18234e-07
1.18167e-07
1.18126e-07
1.18092e-07
1.18072e-07
1.1805e-07
1.18039e-07
1.18019e-07
1.18018e-07
1.18017e-07
1.18014e-07
1.18009e-07
1.18008e-07
1.18004e-07
1.18008e-07
1.18007e-07
1.18018e-07
1.18018e-07
1.18027e-07
1.18027e-07
1.18043e-07
1.18043e-07
1.18056e-07
1.18056e-07
1.18074e-07
1.18074e-07
1.18083e-07
1.18083e-07
1.18091e-07
1.1809e-07
1.18093e-07
1.18093e-07
1.18091e-07
1.18086e-07
1.18089e-07
1.18089e-07
1.18092e-07
1.18092e-07
1.18089e-07
1.18083e-07
1.18092e-07
1.18092e-07
1.18088e-07
1.18098e-07
1.18095e-07
1.18094e-07
1.18106e-07
1.18105e-07
1.18105e-07
1.18102e-07
1.18108e-07
1.18109e-07
1.18112e-07
1.18108e-07
1.18112e-07
1.18112e-07
1.18114e-07
1.18133e-07
1.18142e-07
1.1814e-07
1.18139e-07
1.18143e-07
1.18143e-07
1.18143e-07
1.1814e-07
1.18158e-07
1.18158e-07
1.18174e-07
1.18174e-07
1.18163e-07
1.18159e-07
1.18176e-07
1.18176e-07
1.18197e-07
1.18197e-07
1.18203e-07
1.18203e-07
1.18228e-07
1.18253e-07
1.18258e-07
1.18275e-07
1.1834e-07
1.18345e-07
1.1839e-07
1.18456e-07
1.18608e-07
1.18692e-07
1.19261e-07
1.19701e-07
1.56699e-07
1.06474e-09
1.21561e-07
1.19462e-07
1.18682e-07
1.18333e-07
1.18142e-07
1.18034e-07
1.17959e-07
1.17914e-07
1.17877e-07
1.17854e-07
1.17829e-07
1.17817e-07
1.17796e-07
1.17794e-07
1.17792e-07
1.17789e-07
1.17783e-07
1.17782e-07
1.17777e-07
1.17781e-07
1.1778e-07
1.17791e-07
1.17791e-07
1.17801e-07
1.17801e-07
1.17818e-07
1.17818e-07
1.17832e-07
1.17832e-07
1.17851e-07
1.17851e-07
1.1786e-07
1.1786e-07
1.17868e-07
1.17868e-07
1.17871e-07
1.17871e-07
1.17868e-07
1.17862e-07
1.17866e-07
1.17866e-07
1.17869e-07
1.1787e-07
1.17866e-07
1.1786e-07
1.17869e-07
1.17869e-07
1.17865e-07
1.17875e-07
1.17872e-07
1.17871e-07
1.17884e-07
1.17882e-07
1.17882e-07
1.17879e-07
1.17886e-07
1.17887e-07
1.1789e-07
1.17886e-07
1.1789e-07
1.1789e-07
1.17892e-07
1.17912e-07
1.17922e-07
1.17919e-07
1.17918e-07
1.17923e-07
1.17923e-07
1.17923e-07
1.1792e-07
1.17939e-07
1.17939e-07
1.17955e-07
1.17955e-07
1.17944e-07
1.1794e-07
1.17958e-07
1.17959e-07
1.1798e-07
1.1798e-07
1.17986e-07
1.17986e-07
1.18012e-07
1.18038e-07
1.18043e-07
1.1806e-07
1.18128e-07
1.18134e-07
1.1818e-07
1.18247e-07
1.18399e-07
1.18488e-07
1.19037e-07
1.19535e-07
1.55133e-07
1.11803e-09
1.21564e-07
1.19369e-07
1.18532e-07
1.18153e-07
1.17943e-07
1.17823e-07
1.17741e-07
1.1769e-07
1.17648e-07
1.17623e-07
1.17596e-07
1.17583e-07
1.17559e-07
1.17556e-07
1.17554e-07
1.1755e-07
1.17544e-07
1.17542e-07
1.17537e-07
1.1754e-07
1.17539e-07
1.17551e-07
1.17551e-07
1.17561e-07
1.17561e-07
1.17579e-07
1.17579e-07
1.17594e-07
1.17594e-07
1.17614e-07
1.17614e-07
1.17623e-07
1.17623e-07
1.17631e-07
1.17631e-07
1.17635e-07
1.17635e-07
1.17632e-07
1.17626e-07
1.17629e-07
1.17629e-07
1.17633e-07
1.17633e-07
1.17629e-07
1.17622e-07
1.17631e-07
1.17631e-07
1.17627e-07
1.17639e-07
1.17635e-07
1.17634e-07
1.17647e-07
1.17646e-07
1.17645e-07
1.17642e-07
1.17651e-07
1.17651e-07
1.17654e-07
1.1765e-07
1.17654e-07
1.17654e-07
1.17656e-07
1.17677e-07
1.17688e-07
1.17686e-07
1.17684e-07
1.1769e-07
1.1769e-07
1.1769e-07
1.17686e-07
1.17706e-07
1.17706e-07
1.17723e-07
1.17724e-07
1.17711e-07
1.17707e-07
1.17727e-07
1.17728e-07
1.17749e-07
1.17749e-07
1.17756e-07
1.17756e-07
1.17783e-07
1.1781e-07
1.17815e-07
1.17831e-07
1.17902e-07
1.17909e-07
1.17957e-07
1.18024e-07
1.18177e-07
1.1827e-07
1.18798e-07
1.19359e-07
1.53704e-07
1.17308e-09
1.21568e-07
1.19276e-07
1.18378e-07
1.17964e-07
1.17733e-07
1.17601e-07
1.1751e-07
1.17453e-07
1.17407e-07
1.17379e-07
1.17349e-07
1.17334e-07
1.17309e-07
1.17305e-07
1.17301e-07
1.17297e-07
1.1729e-07
1.17288e-07
1.17282e-07
1.17285e-07
1.17284e-07
1.17296e-07
1.17296e-07
1.17307e-07
1.17307e-07
1.17326e-07
1.17326e-07
1.17342e-07
1.17342e-07
1.17363e-07
1.17364e-07
1.17372e-07
1.17372e-07
1.17381e-07
1.17381e-07
1.17384e-07
1.17384e-07
1.17381e-07
1.17374e-07
1.17377e-07
1.17377e-07
1.17382e-07
1.17382e-07
1.17378e-07
1.17371e-07
1.1738e-07
1.1738e-07
1.17375e-07
1.17388e-07
1.17384e-07
1.17382e-07
1.17397e-07
1.17395e-07
1.17394e-07
1.17391e-07
1.17401e-07
1.174e-07
1.17404e-07
1.17399e-07
1.17404e-07
1.17404e-07
1.17406e-07
1.17428e-07
1.17441e-07
1.17438e-07
1.17437e-07
1.17443e-07
1.17443e-07
1.17442e-07
1.17438e-07
1.17459e-07
1.17459e-07
1.17478e-07
1.17478e-07
1.17465e-07
1.17461e-07
1.17482e-07
1.17485e-07
1.17505e-07
1.17505e-07
1.17512e-07
1.17512e-07
1.17539e-07
1.17568e-07
1.17573e-07
1.17588e-07
1.17663e-07
1.17671e-07
1.1772e-07
1.17788e-07
1.17941e-07
1.18038e-07
1.18544e-07
1.19171e-07
1.52433e-07
1.23007e-09
1.21575e-07
1.1918e-07
1.18217e-07
1.17767e-07
1.17514e-07
1.17368e-07
1.17268e-07
1.17204e-07
1.17154e-07
1.17121e-07
1.17089e-07
1.17072e-07
1.17044e-07
1.17039e-07
1.17035e-07
1.1703e-07
1.17022e-07
1.1702e-07
1.17013e-07
1.17016e-07
1.17014e-07
1.17027e-07
1.17027e-07
1.17038e-07
1.17038e-07
1.17059e-07
1.17059e-07
1.17075e-07
1.17075e-07
1.17098e-07
1.17099e-07
1.17107e-07
1.17107e-07
1.17115e-07
1.17115e-07
1.17119e-07
1.17119e-07
1.17116e-07
1.17109e-07
1.17112e-07
1.17112e-07
1.17116e-07
1.17116e-07
1.17112e-07
1.17105e-07
1.17114e-07
1.17114e-07
1.17109e-07
1.17122e-07
1.17118e-07
1.17117e-07