/*--------------------------------*- C++ -*----------------------------------*\
| =========                 |                                                 |
| \\      /  F ield         | OpenFOAM: The Open Source CFD Toolbox           |
|  \\    /   O peration     | Version:  v2012                                 |
|   \\  /    A nd           | Website:  www.openfoam.com                      |
|    \\/     M anipulation  |                                                 |
\*---------------------------------------------------------------------------*/
FoamFile
{
    version     2.0;
    format      ascii;
    class       volScalarField;
    location    "35";
    object      k;
}
// * * * * * * * * * * * * * * * * * * * * * * * * * * * * * * * * * * * * * //

dimensions      [0 2 -2 0 0 0 0];


internalField   nonuniform List<scalar> 
209825
(
0.00102472
0.000931011
0.000852735
0.000789525
0.000739316
0.000699594
0.000667724
0.000641922
0.000620579
0.000602822
0.000587719
0.000574878
0.000563705
0.000554059
0.000545501
0.000538032
0.000531299
0.000525381
0.000519971
0.000515192
0.000510765
0.000506846
0.000503169
0.00049991
0.000496818
0.000494081
0.00049146
0.000489137
0.000486891
0.000484915
0.000482976
0.000481276
0.000479594
0.000478131
0.000476667
0.000475407
0.000474123
0.000473026
0.000471896
0.000470938
0.00046994
0.000469106
0.000468223
0.000467497
0.00046671
0.000466074
0.000465376
0.000464817
0.000464199
0.000463713
0.000463162
0.00046274
0.000462257
0.000461888
0.000461455
0.000461135
0.000460762
0.000460482
0.000460147
0.000459916
0.00045962
0.000459416
0.000459163
0.000459002
0.000458762
0.000458627
0.000458419
0.00045831
0.000458122
0.000458026
0.000457852
0.000457772
0.000457641
0.000457593
0.000457503
0.000457487
0.000457452
0.000457488
0.000457487
0.000457571
0.000457585
0.000457694
0.000457746
0.000457893
0.000457972
0.00045816
0.000458264
0.000458501
0.000458627
0.000458941
0.000459076
0.000459578
0.000459651
0.00046446
0.0111387
0.0120848
0.00102472
0.000931011
0.000852735
0.000789525
0.000739315
0.000699591
0.00066772
0.000641917
0.000620572
0.000602814
0.00058771
0.000574868
0.000563694
0.000554048
0.000545489
0.000538019
0.000531286
0.000525367
0.000519956
0.000515177
0.00051075
0.000506831
0.000503153
0.000499894
0.000496802
0.000494065
0.000491444
0.00048912
0.000486874
0.000484898
0.000482959
0.000481259
0.000479576
0.000478114
0.000476649
0.000475388
0.000474105
0.000473007
0.000471878
0.00047092
0.000469922
0.000469088
0.000468204
0.000467478
0.000466691
0.000466055
0.000465357
0.000464798
0.00046418
0.000463694
0.000463143
0.00046272
0.000462237
0.000461868
0.000461436
0.000461115
0.000460743
0.000460462
0.000460127
0.000459897
0.0004596
0.000459396
0.000459143
0.000458982
0.000458742
0.000458607
0.000458399
0.00045829
0.000458101
0.000458006
0.000457832
0.000457752
0.000457621
0.000457573
0.000457482
0.000457467
0.000457431
0.000457467
0.000457467
0.00045755
0.000457564
0.000457673
0.000457726
0.000457872
0.000457952
0.000458139
0.000458243
0.00045848
0.000458606
0.00045892
0.000459055
0.000459557
0.000459629
0.000464446
0.0111491
0.0120978
0.00102472
0.000931013
0.000852737
0.000789522
0.000739306
0.000699576
0.000667698
0.000641889
0.00062054
0.000602777
0.000587669
0.000574823
0.000563646
0.000553997
0.000545435
0.000537964
0.000531228
0.000525308
0.000519895
0.000515115
0.000510685
0.000506766
0.000503087
0.000499826
0.000496734
0.000493995
0.000491373
0.000489049
0.000486802
0.000484826
0.000482886
0.000481185
0.000479502
0.000478039
0.000476573
0.000475313
0.000474029
0.00047293
0.000471801
0.000470842
0.000469844
0.000469009
0.000468126
0.000467399
0.000466612
0.000465976
0.000465277
0.000464718
0.0004641
0.000463614
0.000463062
0.00046264
0.000462156
0.000461787
0.000461354
0.000461033
0.000460661
0.00046038
0.000460045
0.000459814
0.000459518
0.000459313
0.000459061
0.000458899
0.000458659
0.000458524
0.000458316
0.000458207
0.000458018
0.000457922
0.000457749
0.000457668
0.000457537
0.000457489
0.000457398
0.000457383
0.000457347
0.000457383
0.000457382
0.000457465
0.000457479
0.000457588
0.00045764
0.000457786
0.000457866
0.000458053
0.000458156
0.000458393
0.00045852
0.000458833
0.000458968
0.000459469
0.000459541
0.000464372
0.0111718
0.012127
0.00102472
0.000931017
0.00085274
0.000789519
0.000739292
0.000699551
0.000667662
0.000641843
0.000620485
0.000602714
0.000587599
0.000574747
0.000563565
0.000553911
0.000545345
0.00053787
0.000531131
0.000525207
0.000519792
0.000515009
0.000510578
0.000506655
0.000502975
0.000499712
0.000496618
0.000493878
0.000491255
0.000488929
0.000486681
0.000484704
0.000482763
0.000481061
0.000479377
0.000477913
0.000476446
0.000475185
0.000473901
0.000472801
0.000471671
0.000470712
0.000469713
0.000468878
0.000467994
0.000467266
0.000466479
0.000465842
0.000465143
0.000464584
0.000463965
0.000463478
0.000462926
0.000462504
0.00046202
0.00046165
0.000461217
0.000460896
0.000460523
0.000460242
0.000459906
0.000459676
0.000459379
0.000459174
0.000458921
0.00045876
0.000458519
0.000458384
0.000458176
0.000458067
0.000457878
0.000457782
0.000457608
0.000457528
0.000457396
0.000457348
0.000457257
0.000457241
0.000457204
0.00045724
0.000457239
0.000457322
0.000457335
0.000457444
0.000457496
0.000457641
0.000457721
0.000457908
0.000458011
0.000458248
0.000458374
0.000458686
0.000458821
0.000459322
0.000459393
0.000464246
0.0112075
0.0121728
0.00102472
0.000931022
0.000852744
0.000789513
0.000739272
0.000699515
0.000667611
0.000641778
0.000620407
0.000602625
0.0005875
0.00057464
0.00056345
0.00055379
0.000545218
0.000537737
0.000530993
0.000525066
0.000519647
0.00051486
0.000510425
0.0005065
0.000502817
0.000499552
0.000496455
0.000493713
0.000491088
0.00048876
0.000486511
0.000484531
0.000482589
0.000480886
0.0004792
0.000477735
0.000476267
0.000475005
0.000473719
0.000472619
0.000471488
0.000470528
0.000469528
0.000468692
0.000467807
0.000467079
0.000466291
0.000465654
0.000464954
0.000464394
0.000463775
0.000463288
0.000462735
0.000462312
0.000461828
0.000461457
0.000461024
0.000460702
0.000460329
0.000460048
0.000459711
0.000459481
0.000459183
0.000458978
0.000458725
0.000458563
0.000458322
0.000458187
0.000457978
0.000457869
0.00045768
0.000457584
0.00045741
0.000457329
0.000457197
0.000457148
0.000457057
0.000457041
0.000457004
0.000457039
0.000457038
0.00045712
0.000457133
0.000457241
0.000457292
0.000457438
0.000457517
0.000457703
0.000457806
0.000458042
0.000458168
0.00045848
0.000458614
0.000459114
0.000459184
0.000464066
0.0112569
0.0122363
0.00102472
0.000931028
0.000852749
0.000789506
0.000739246
0.000699468
0.000667544
0.000641693
0.000620306
0.00060251
0.000587373
0.000574501
0.000563302
0.000553633
0.000545053
0.000537566
0.000530815
0.000524882
0.000519458
0.000514667
0.000510228
0.000506299
0.000502612
0.000499344
0.000496244
0.000493499
0.000490871
0.000488541
0.00048629
0.000484308
0.000482363
0.000480659
0.000478972
0.000477505
0.000476035
0.000474771
0.000473485
0.000472383
0.00047125
0.000470289
0.000469288
0.000468452
0.000467566
0.000466837
0.000466048
0.00046541
0.000464709
0.000464148
0.000463528
0.00046304
0.000462487
0.000462063
0.000461578
0.000461208
0.000460774
0.000460452
0.000460077
0.000459796
0.000459459
0.000459228
0.00045893
0.000458724
0.000458471
0.000458308
0.000458067
0.000457932
0.000457722
0.000457613
0.000457423
0.000457327
0.000457153
0.000457071
0.000456939
0.00045689
0.000456799
0.000456782
0.000456744
0.000456778
0.000456776
0.000456858
0.00045687
0.000456978
0.000457029
0.000457174
0.000457252
0.000457438
0.00045754
0.000457775
0.000457901
0.000458212
0.000458346
0.000458845
0.000458914
0.000463834
0.0113209
0.0123183
0.00102472
0.000931037
0.000852756
0.000789497
0.000739215
0.000699411
0.000667463
0.000641589
0.000620182
0.000602369
0.000587216
0.000574331
0.000563119
0.00055344
0.00054485
0.000537354
0.000530596
0.000524656
0.000519226
0.000514429
0.000509984
0.000506051
0.000502359
0.000499087
0.000495984
0.000493236
0.000490604
0.000488272
0.000486017
0.000484033
0.000482086
0.000480379
0.00047869
0.000477221
0.00047575
0.000474484
0.000473195
0.000472092
0.000470958
0.000469996
0.000468993
0.000468155
0.000467268
0.000466538
0.000465748
0.000465109
0.000464407
0.000463845
0.000463224
0.000462736
0.000462182
0.000461757
0.000461271
0.0004609
0.000460465
0.000460142
0.000459767
0.000459485
0.000459148
0.000458916
0.000458617
0.000458412
0.000458157
0.000457994
0.000457752
0.000457617
0.000457407
0.000457297
0.000457107
0.00045701
0.000456836
0.000456754
0.000456622
0.000456572
0.00045648
0.000456463
0.000456423
0.000456456
0.000456454
0.000456535
0.000456547
0.000456654
0.000456704
0.000456848
0.000456926
0.000457111
0.000457213
0.000457447
0.000457572
0.000457882
0.000458015
0.000458513
0.00045858
0.000463548
0.0114001
0.0124198
0.00102472
0.000931046
0.000852763
0.000789487
0.000739177
0.000699344
0.000667366
0.000641466
0.000620035
0.000602201
0.000587029
0.000574128
0.000562902
0.00055321
0.000544609
0.000537103
0.000530336
0.000524387
0.000518949
0.000514145
0.000509695
0.000505756
0.000502059
0.000498782
0.000495674
0.000492922
0.000490287
0.000487951
0.000485693
0.000483706
0.000481756
0.000480046
0.000478354
0.000476883
0.000475409
0.000474141
0.000472851
0.000471746
0.00047061
0.000469646
0.000468642
0.000467802
0.000466914
0.000466182
0.00046539
0.00046475
0.000464047
0.000463484
0.000462862
0.000462373
0.000461817
0.000461392
0.000460905
0.000460533
0.000460097
0.000459774
0.000459398
0.000459115
0.000458777
0.000458544
0.000458245
0.000458039
0.000457783
0.00045762
0.000457378
0.000457241
0.000457031
0.000456921
0.00045673
0.000456633
0.000456458
0.000456376
0.000456243
0.000456193
0.0004561
0.000456083
0.000456042
0.000456073
0.000456071
0.00045615
0.000456161
0.000456268
0.000456317
0.00045646
0.000456538
0.000456722
0.000456823
0.000457056
0.00045718
0.000457489
0.000457621
0.000458118
0.000458183
0.000463208
0.0114952
0.0125415
0.00102472
0.000931057
0.000852773
0.000789475
0.000739134
0.000699266
0.000667254
0.000641323
0.000619865
0.000602006
0.000586813
0.000573893
0.00056265
0.000552943
0.000544329
0.000536811
0.000530033
0.000524075
0.000518628
0.000513816
0.000509358
0.000505412
0.00050171
0.000498427
0.000495314
0.000492557
0.000489917
0.000487577
0.000485315
0.000483325
0.000481371
0.000479658
0.000477964
0.000476489
0.000475013
0.000473743
0.00047245
0.000471343
0.000470205
0.000469239
0.000468233
0.000467392
0.000466501
0.000465768
0.000464975
0.000464333
0.000463628
0.000463065
0.000462441
0.00046195
0.000461394
0.000460967
0.000460479
0.000460106
0.000459669
0.000459345
0.000458968
0.000458685
0.000458345
0.000458112
0.000457812
0.000457605
0.000457349
0.000457185
0.000456942
0.000456805
0.000456594
0.000456483
0.000456292
0.000456194
0.000456019
0.000455936
0.000455803
0.000455752
0.000455659
0.00045564
0.000455597
0.000455628
0.000455624
0.000455703
0.000455713
0.000455819
0.000455867
0.000456009
0.000456085
0.000456268
0.000456369
0.0004566
0.000456724
0.000457031
0.000457162
0.000457658
0.00045772
0.000462813
0.0116066
0.0126844
0.00102472
0.00093107
0.000852783
0.000789463
0.000739085
0.000699177
0.000667127
0.00064116
0.00061967
0.000601784
0.000586566
0.000573624
0.000562362
0.000552638
0.000544009
0.000536477
0.000529687
0.000523718
0.000518261
0.00051344
0.000508974
0.000505021
0.000501311
0.000498022
0.000494903
0.000492141
0.000489496
0.000487151
0.000484884
0.000482889
0.000480932
0.000479216
0.000477517
0.00047604
0.000474561
0.000473288
0.000471992
0.000470883
0.000469742
0.000468774
0.000467765
0.000466922
0.00046603
0.000465295
0.0004645
0.000463857
0.00046315
0.000462585
0.00046196
0.000461468
0.00046091
0.000460482
0.000459993
0.000459619
0.000459181
0.000458855
0.000458477
0.000458193
0.000457852
0.000457618
0.000457317
0.000457109
0.000456852
0.000456688
0.000456443
0.000456306
0.000456094
0.000455982
0.000455791
0.000455693
0.000455517
0.000455433
0.000455299
0.000455248
0.000455154
0.000455134
0.00045509
0.000455119
0.000455114
0.000455191
0.0004552
0.000455305
0.000455352
0.000455493
0.000455569
0.00045575
0.00045585
0.00045608
0.000456202
0.000456508
0.000456638
0.000457132
0.000457192
0.000462363
0.0117347
0.0128492
0.00102472
0.000931084
0.000852795
0.000789449
0.000739031
0.000699078
0.000666984
0.000640978
0.000619452
0.000601534
0.000586289
0.000573323
0.000562039
0.000552296
0.000543649
0.000536102
0.000529298
0.000523317
0.000517848
0.000513017
0.000508542
0.000504579
0.000500862
0.000497566
0.00049444
0.000491671
0.000489021
0.00048667
0.000484399
0.000482399
0.000480438
0.000478717
0.000477015
0.000475534
0.000474051
0.000472775
0.000471476
0.000470364
0.00046922
0.00046825
0.000467239
0.000466394
0.000465499
0.000464762
0.000463965
0.00046332
0.000462611
0.000462045
0.000461418
0.000460924
0.000460365
0.000459935
0.000459444
0.000459069
0.00045863
0.000458303
0.000457924
0.000457639
0.000457296
0.000457061
0.000456759
0.000456551
0.000456292
0.000456127
0.000455882
0.000455743
0.000455531
0.000455418
0.000455226
0.000455127
0.000454951
0.000454867
0.000454732
0.000454679
0.000454585
0.000454564
0.000454518
0.000454545
0.00045454
0.000454614
0.000454623
0.000454726
0.000454772
0.000454912
0.000454986
0.000455166
0.000455265
0.000455493
0.000455615
0.000455919
0.000456047
0.00045654
0.000456596
0.000461857
0.0118798
0.0130367
0.00102472
0.0009311
0.000852809
0.000789434
0.000738972
0.000698969
0.000666827
0.000640776
0.000619211
0.000601258
0.000585981
0.000572988
0.00056168
0.000551915
0.000543249
0.000535685
0.000528866
0.00052287
0.000517389
0.000512546
0.00050806
0.000504088
0.000500362
0.000497058
0.000493924
0.000491149
0.000488492
0.000486135
0.000483858
0.000481854
0.000479887
0.000478162
0.000476455
0.000474971
0.000473484
0.000472204
0.000470902
0.000469786
0.00046864
0.000467666
0.000466653
0.000465805
0.000464907
0.000464168
0.000463369
0.000462722
0.000462011
0.000461442
0.000460814
0.000460318
0.000459757
0.000459326
0.000458833
0.000458457
0.000458016
0.000457688
0.000457307
0.000457021
0.000456677
0.000456441
0.000456138
0.000455928
0.000455668
0.000455502
0.000455256
0.000455117
0.000454903
0.00045479
0.000454597
0.000454497
0.00045432
0.000454235
0.0004541
0.000454046
0.000453951
0.000453929
0.00045388
0.000453905
0.000453899
0.000453972
0.000453979
0.000454081
0.000454126
0.000454264
0.000454337
0.000454516
0.000454613
0.00045484
0.00045496
0.000455262
0.000455389
0.00045588
0.000455933
0.000461293
0.0120419
0.0132475
0.00102472
0.000931117
0.000852824
0.000789418
0.000738907
0.000698849
0.000666654
0.000640554
0.000618945
0.000600953
0.000585643
0.000572619
0.000561284
0.000551495
0.000542809
0.000535225
0.000528389
0.000522378
0.000516883
0.000512027
0.000507529
0.000503547
0.000499811
0.000496497
0.000493356
0.000490573
0.000487908
0.000485545
0.000483262
0.000481252
0.000479279
0.00047755
0.000475838
0.000474349
0.000472858
0.000471574
0.000470267
0.000469149
0.000467998
0.000467022
0.000466005
0.000465155
0.000464254
0.000463513
0.00046271
0.000462061
0.000461348
0.000460778
0.000460147
0.00045965
0.000459086
0.000458654
0.000458159
0.000457781
0.000457338
0.000457009
0.000456626
0.000456339
0.000455994
0.000455756
0.000455451
0.000455241
0.000454979
0.000454812
0.000454565
0.000454425
0.00045421
0.000454096
0.000453902
0.000453802
0.000453624
0.000453538
0.000453401
0.000453347
0.00045325
0.000453227
0.000453176
0.0004532
0.000453192
0.000453262
0.000453269
0.000453369
0.000453412
0.000453548
0.000453621
0.000453797
0.000453894
0.000454118
0.000454237
0.000454537
0.000454662
0.000455151
0.0004552
0.000460673
0.0122208
0.0134823
0.00102472
0.000931136
0.000852841
0.000789401
0.000738837
0.00069872
0.000666466
0.000640313
0.000618656
0.000600621
0.000585273
0.000572216
0.000560852
0.000551037
0.000542327
0.000534723
0.000527868
0.000521839
0.000516329
0.000511459
0.000506949
0.000502955
0.000499207
0.000495884
0.000492733
0.000489942
0.000487269
0.000484899
0.000482609
0.000480592
0.000478614
0.000476879
0.000475162
0.000473668
0.000472172
0.000470884
0.000469573
0.000468451
0.000467296
0.000466317
0.000465296
0.000464443
0.000463539
0.000462795
0.00046199
0.000461338
0.000460623
0.00046005
0.000459416
0.000458917
0.000458351
0.000457917
0.00045742
0.00045704
0.000456596
0.000456265
0.00045588
0.000455592
0.000455245
0.000455006
0.0004547
0.000454488
0.000454224
0.000454057
0.000453808
0.000453667
0.000453451
0.000453335
0.00045314
0.00045304
0.000452861
0.000452774
0.000452636
0.000452581
0.000452483
0.000452459
0.000452405
0.000452426
0.000452417
0.000452485
0.00045249
0.000452589
0.00045263
0.000452765
0.000452836
0.00045301
0.000453105
0.000453327
0.000453445
0.000453743
0.000453866
0.000454352
0.000454398
0.000459994
0.012416
0.0137417
0.00102472
0.000931157
0.00085286
0.000789384
0.000738762
0.00069858
0.000666263
0.000640052
0.000618343
0.000600262
0.000584873
0.00057178
0.000560383
0.00055054
0.000541804
0.000534177
0.000527301
0.000521255
0.000515727
0.000510842
0.000506318
0.000502311
0.000498552
0.000495218
0.000492057
0.000489256
0.000486575
0.000484197
0.000481899
0.000479875
0.00047789
0.000476149
0.000474426
0.000472927
0.000471426
0.000470133
0.000468818
0.000467691
0.000466532
0.000465549
0.000464525
0.000463668
0.000462761
0.000462014
0.000461205
0.000460551
0.000459833
0.000459257
0.000458621
0.00045812
0.000457552
0.000457115
0.000456616
0.000456235
0.000455788
0.000455455
0.000455068
0.000454778
0.000454429
0.000454189
0.000453881
0.000453668
0.000453403
0.000453234
0.000452984
0.000452842
0.000452624
0.000452508
0.000452312
0.00045221
0.00045203
0.000451943
0.000451804
0.000451747
0.000451648
0.000451622
0.000451566
0.000451585
0.000451574
0.000451639
0.000451643
0.00045174
0.000451779
0.000451911
0.000451981
0.000452153
0.000452247
0.000452467
0.000452583
0.000452878
0.000452999
0.000453482
0.000453524
0.000459256
0.0126267
0.014026
0.00102471
0.000931179
0.00085288
0.000789366
0.000738682
0.000698431
0.000666046
0.000639771
0.000618005
0.000599874
0.000584441
0.000571309
0.000559877
0.000550003
0.00054124
0.000533588
0.00052669
0.000520623
0.000515077
0.000510176
0.000505636
0.000501615
0.000497843
0.000494497
0.000491325
0.000488514
0.000485824
0.000483437
0.000481131
0.0004791
0.000477108
0.00047536
0.000473631
0.000472126
0.000470619
0.000469321
0.000468
0.000466869
0.000465706
0.000464719
0.00046369
0.00046283
0.000461919
0.000461169
0.000460357
0.0004597
0.000458978
0.0004584
0.000457761
0.000457257
0.000456686
0.000456248
0.000455746
0.000455362
0.000454913
0.000454579
0.00045419
0.000453898
0.000453547
0.000453306
0.000452996
0.000452781
0.000452514
0.000452344
0.000452092
0.000451949
0.00045173
0.000451612
0.000451415
0.000451312
0.000451131
0.000451043
0.000450903
0.000450844
0.000450744
0.000450717
0.000450658
0.000450674
0.000450661
0.000450723
0.000450725
0.000450821
0.000450858
0.000450988
0.000451056
0.000451226
0.000451318
0.000451535
0.00045165
0.000451941
0.000452061
0.000452541
0.000452579
0.000458459
0.0128518
0.0143358
0.00102471
0.000931202
0.000852903
0.000789347
0.000738598
0.000698273
0.000665814
0.000639471
0.000617645
0.000599459
0.000583978
0.000570804
0.000559335
0.000549427
0.000540634
0.000532955
0.000526033
0.000519944
0.000514378
0.000509459
0.000504902
0.000500866
0.00049708
0.000493722
0.000490538
0.000487717
0.000485016
0.00048262
0.000480305
0.000478266
0.000476266
0.000474511
0.000472775
0.000471263
0.00046975
0.000468447
0.000467121
0.000465985
0.000464817
0.000463825
0.000462792
0.000461928
0.000461012
0.000460259
0.000459443
0.000458783
0.000458058
0.000457477
0.000456834
0.000456328
0.000455754
0.000455313
0.000454809
0.000454423
0.000453972
0.000453635
0.000453244
0.00045295
0.000452597
0.000452354
0.000452042
0.000451826
0.000451556
0.000451385
0.000451132
0.000450987
0.000450766
0.000450647
0.000450449
0.000450345
0.000450163
0.000450073
0.000449932
0.000449872
0.00044977
0.000449741
0.00044968
0.000449693
0.000449678
0.000449736
0.000449738
0.00044983
0.000449865
0.000449993
0.000450059
0.000450227
0.000450317
0.000450531
0.000450644
0.000450933
0.00045105
0.000451527
0.000451561
0.0004576
0.0130897
0.0146711
0.00102471
0.000931227
0.000852927
0.000789329
0.00073851
0.000698105
0.000665568
0.000639152
0.00061726
0.000599017
0.000583484
0.000570264
0.000558755
0.000548811
0.000539986
0.000532278
0.00052533
0.000519218
0.00051363
0.000508692
0.000504117
0.000500065
0.000496264
0.000492892
0.000489696
0.000486862
0.00048415
0.000481745
0.000479419
0.000477372
0.000475364
0.000473601
0.000471857
0.000470339
0.000468819
0.00046751
0.000466178
0.000465037
0.000463863
0.000462867
0.000461829
0.000460961
0.000460041
0.000459283
0.000458464
0.0004578
0.000457071
0.000456487
0.000455841
0.000455332
0.000454755
0.000454312
0.000453804
0.000453416
0.000452962
0.000452623
0.000452229
0.000451934
0.000451578
0.000451333
0.000451019
0.000450801
0.000450529
0.000450357
0.000450102
0.000449955
0.000449733
0.000449613
0.000449413
0.000449308
0.000449125
0.000449033
0.000448891
0.000448829
0.000448726
0.000448695
0.000448632
0.000448641
0.000448624
0.000448678
0.000448678
0.000448769
0.000448801
0.000448927
0.000448991
0.000449155
0.000449244
0.000449455
0.000449566
0.000449852
0.000449966
0.00045044
0.000450469
0.000456679
0.0133386
0.015032
0.00102471
0.000931254
0.000852953
0.000789311
0.000738418
0.000697928
0.000665307
0.000638815
0.000616853
0.000598547
0.00058296
0.000569691
0.000558138
0.000548156
0.000539296
0.000531557
0.000524581
0.000518443
0.000512833
0.000507874
0.00050328
0.000499211
0.000495394
0.000492007
0.000488797
0.000485951
0.000483227
0.00048081
0.000478475
0.000476418
0.000474401
0.00047263
0.000470878
0.000469353
0.000467826
0.00046651
0.000465171
0.000464025
0.000462845
0.000461844
0.000460801
0.000459928
0.000459003
0.000458242
0.000457418
0.00045675
0.000456018
0.00045543
0.000454781
0.000454269
0.000453688
0.000453242
0.000452731
0.000452341
0.000451884
0.000451543
0.000451146
0.000450849
0.00045049
0.000450243
0.000449926
0.000449707
0.000449433
0.000449259
0.000449002
0.000448854
0.000448629
0.000448508
0.000448306
0.0004482
0.000448016
0.000447923
0.000447779
0.000447715
0.00044761
0.000447578
0.000447512
0.000447518
0.000447498
0.000447548
0.000447547
0.000447635
0.000447664
0.000447788
0.000447849
0.000448011
0.000448097
0.000448306
0.000448415
0.000448697
0.000448808
0.000449278
0.000449303
0.000455695
0.0135959
0.0154184
0.00102471
0.000931281
0.000852982
0.000789292
0.000738322
0.000697743
0.000665033
0.000638458
0.000616422
0.00059805
0.000582404
0.000569083
0.000557484
0.00054746
0.000538564
0.000530792
0.000523786
0.000517622
0.000511987
0.000507005
0.000502391
0.000498303
0.000494469
0.000491066
0.000487841
0.000484982
0.000482245
0.000479817
0.000477471
0.000475404
0.000473377
0.000471597
0.000469837
0.000468304
0.000466769
0.000465446
0.000464101
0.000462948
0.000461762
0.000460756
0.000459707
0.000458829
0.000457899
0.000457133
0.000456305
0.000455634
0.000454897
0.000454306
0.000453652
0.000453137
0.000452553
0.000452104
0.000451589
0.000451197
0.000450736
0.000450393
0.000449993
0.000449693
0.000449332
0.000449083
0.000448764
0.000448543
0.000448265
0.00044809
0.000447831
0.000447681
0.000447454
0.000447331
0.000447128
0.00044702
0.000446835
0.00044674
0.000446595
0.000446529
0.000446422
0.000446388
0.00044632
0.000446323
0.000446299
0.000446345
0.000446343
0.000446427
0.000446454
0.000446575
0.000446634
0.000446792
0.000446877
0.000447082
0.000447189
0.000447467
0.000447576
0.000448042
0.000448062
0.000454647
0.0138589
0.0158295
0.0010247
0.000931311
0.000853013
0.000789275
0.000738222
0.000697549
0.000664746
0.000638083
0.000615968
0.000597526
0.000581817
0.000568441
0.000556793
0.000546725
0.000537789
0.000529983
0.000522945
0.000516751
0.000511091
0.000506085
0.000501449
0.000497341
0.000493489
0.000490069
0.000486829
0.000483955
0.000481205
0.000478765
0.000476406
0.000474328
0.000472291
0.000470502
0.000468733
0.000467191
0.000465648
0.000464318
0.000462965
0.000461806
0.000460614
0.000459602
0.000458547
0.000457664
0.000456728
0.000455958
0.000455124
0.000454449
0.000453707
0.000453113
0.000452455
0.000451936
0.000451348
0.000450896
0.000450378
0.000449982
0.000449518
0.000449172
0.000448769
0.000448468
0.000448103
0.000447852
0.00044753
0.000447307
0.000447027
0.000446849
0.000446588
0.000446436
0.000446208
0.000446083
0.000445878
0.000445768
0.000445582
0.000445486
0.000445338
0.000445271
0.000445162
0.000445126
0.000445055
0.000445054
0.000445027
0.000445068
0.000445065
0.000445146
0.00044517
0.000445287
0.000445344
0.000445499
0.000445582
0.000445783
0.000445888
0.000446162
0.000446268
0.000446729
0.000446745
0.000453533
0.0141241
0.0162647
0.0010247
0.000931342
0.000853046
0.000789257
0.000738119
0.000697347
0.000664445
0.00063769
0.000615491
0.000596975
0.0005812
0.000567765
0.000556064
0.000545951
0.000536973
0.000529129
0.000522057
0.000515833
0.000510145
0.000505114
0.000500455
0.000496326
0.000492453
0.000489016
0.000485759
0.00048287
0.000480105
0.000477652
0.000475281
0.000473192
0.000471143
0.000469345
0.000467565
0.000466015
0.000464463
0.000463125
0.000461765
0.000460599
0.000459399
0.000458381
0.000457319
0.000456431
0.00045549
0.000454715
0.000453876
0.000453196
0.000452449
0.000451851
0.000451188
0.000450666
0.000450074
0.000449618
0.000449096
0.000448698
0.00044823
0.000447881
0.000447474
0.000447171
0.000446803
0.000446549
0.000446224
0.000445999
0.000445716
0.000445537
0.000445273
0.000445119
0.000444888
0.000444761
0.000444555
0.000444444
0.000444255
0.000444158
0.000444009
0.000443939
0.000443828
0.00044379
0.000443717
0.000443712
0.000443681
0.000443718
0.000443713
0.00044379
0.000443811
0.000443925
0.000443979
0.000444131
0.000444211
0.000444408
0.000444511
0.000444781
0.000444883
0.00044534
0.000445352
0.000452351
0.0143875
0.0167224
0.0010247
0.000931374
0.000853082
0.000789241
0.000738014
0.000697137
0.000664131
0.000637279
0.000614993
0.000596397
0.000580553
0.000567055
0.0005553
0.000545136
0.000536115
0.000528231
0.000521123
0.000514867
0.000509149
0.000504091
0.000499407
0.000495256
0.000491363
0.000487907
0.000484632
0.000481727
0.000478947
0.00047648
0.000474095
0.000471994
0.000469934
0.000468124
0.000466334
0.000464775
0.000463214
0.000461867
0.000460499
0.000459325
0.000458118
0.000457093
0.000456025
0.000455131
0.000454184
0.000453403
0.000452558
0.000451874
0.000451122
0.000450519
0.000449852
0.000449326
0.000448729
0.00044827
0.000447744
0.000447342
0.000446871
0.000446519
0.000446108
0.000445802
0.000445431
0.000445174
0.000444846
0.000444619
0.000444333
0.000444151
0.000443885
0.000443729
0.000443496
0.000443367
0.000443158
0.000443046
0.000442856
0.000442756
0.000442605
0.000442534
0.00044242
0.00044238
0.000442304
0.000442296
0.000442261
0.000442293
0.000442285
0.000442359
0.000442377
0.000442488
0.000442539
0.000442687
0.000442764
0.000442957
0.000443057
0.000443323
0.000443422
0.000443874
0.000443882
0.0004511
0.0146448
0.0172009
0.00102469
0.000931407
0.00085312
0.000789226
0.000737906
0.000696921
0.000663806
0.000636851
0.000614472
0.000595794
0.000579875
0.000566312
0.000554498
0.000544283
0.000535214
0.000527289
0.000520143
0.000513853
0.000508103
0.000503017
0.000498307
0.000494132
0.000490217
0.000486741
0.000483447
0.000480525
0.000477729
0.000475247
0.000472848
0.000470734
0.000468661
0.000466841
0.00046504
0.00046347
0.000461899
0.000460544
0.000459166
0.000457985
0.00045677
0.000455739
0.000454663
0.000453763
0.000452809
0.000452023
0.000451172
0.000450482
0.000449725
0.000449118
0.000448446
0.000447915
0.000447314
0.000446851
0.00044632
0.000445915
0.00044544
0.000445085
0.00044467
0.000444361
0.000443987
0.000443727
0.000443396
0.000443166
0.000442876
0.000442693
0.000442424
0.000442266
0.00044203
0.000441899
0.000441688
0.000441574
0.000441382
0.00044128
0.000441127
0.000441054
0.000440938
0.000440895
0.000440816
0.000440805
0.000440765
0.000440793
0.000440783
0.000440852
0.000440867
0.000440974
0.000441022
0.000441166
0.000441241
0.00044143
0.000441527
0.000441788
0.000441884
0.000442329
0.000442333
0.000449777
0.0148908
0.0176975
0.00102469
0.000931442
0.00085316
0.000789212
0.000737796
0.000696697
0.000663468
0.000636406
0.00061393
0.000595164
0.000579168
0.000565536
0.000553661
0.00054339
0.000534273
0.000526303
0.000519117
0.00051279
0.000507008
0.000501892
0.000497154
0.000492954
0.000489016
0.000485519
0.000482205
0.000479264
0.000476451
0.000473953
0.000471539
0.000469412
0.000467326
0.000465494
0.000463681
0.000462101
0.000460519
0.000459155
0.000457768
0.000456579
0.000455356
0.000454316
0.000453233
0.000452326
0.000451365
0.000450573
0.000449717
0.000449021
0.000448259
0.000447647
0.000446969
0.000446434
0.000445828
0.00044536
0.000444825
0.000444416
0.000443937
0.000443578
0.00044316
0.000442848
0.000442469
0.000442207
0.000441872
0.00044164
0.000441346
0.000441161
0.000440889
0.000440728
0.00044049
0.000440357
0.000440143
0.000440027
0.000439833
0.00043973
0.000439575
0.000439499
0.00043938
0.000439334
0.000439253
0.000439239
0.000439195
0.000439217
0.000439204
0.000439269
0.000439281
0.000439384
0.000439428
0.000439568
0.00043964
0.000439825
0.000439919
0.000440175
0.000440267
0.000440707
0.000440707
0.000448381
0.0151202
0.0182089
0.00102469
0.000931478
0.000853203
0.000789199
0.000737684
0.000696468
0.00066312
0.000635946
0.000613367
0.00059451
0.000578432
0.000564728
0.000552787
0.000542459
0.000533289
0.000525273
0.000518045
0.00051168
0.000505863
0.000500715
0.000495949
0.000491722
0.000487759
0.000484239
0.000480905
0.000477945
0.000475113
0.000472599
0.00047017
0.000468028
0.000465928
0.000464083
0.000462258
0.000460667
0.000459075
0.0004577
0.000456303
0.000455105
0.000453873
0.000452826
0.000451735
0.000450821
0.000449853
0.000449055
0.000448191
0.00044749
0.000446722
0.000446104
0.000445421
0.000444882
0.00044427
0.000443798
0.000443258
0.000442845
0.000442361
0.000441999
0.000441576
0.000441261
0.000440879
0.000440613
0.000440275