/*--------------------------------*- C++ -*----------------------------------*\
| =========                 |                                                 |
| \\      /  F ield         | OpenFOAM: The Open Source CFD Toolbox           |
|  \\    /   O peration     | Version:  v2012                                 |
|   \\  /    A nd           | Website:  www.openfoam.com                      |
|    \\/     M anipulation  |                                                 |
\*---------------------------------------------------------------------------*/
FoamFile
{
    version     2.0;
    format      ascii;
    class       volScalarField;
    location    "35";
    object      nut;
}
// * * * * * * * * * * * * * * * * * * * * * * * * * * * * * * * * * * * * * //

dimensions      [0 2 -1 0 0 0 0];


internalField   nonuniform List<scalar> 
209825
(
1.24949e-07
1.22222e-07
1.1592e-07
1.08281e-07
1.00931e-07
9.45126e-08
8.90621e-08
8.4496e-08
8.06312e-08
7.73674e-08
7.45611e-08
7.2158e-08
7.00555e-08
6.82352e-08
6.66152e-08
6.51993e-08
6.39214e-08
6.27976e-08
6.17701e-08
6.08625e-08
6.00219e-08
5.92782e-08
5.85807e-08
5.79622e-08
5.73761e-08
5.68571e-08
5.63608e-08
5.592e-08
5.54944e-08
5.51202e-08
5.47531e-08
5.44302e-08
5.4111e-08
5.38329e-08
5.35553e-08
5.33149e-08
5.30707e-08
5.28616e-08
5.26465e-08
5.24632e-08
5.22726e-08
5.21114e-08
5.19414e-08
5.18015e-08
5.16502e-08
5.15256e-08
5.13899e-08
5.12818e-08
5.11611e-08
5.10636e-08
5.09574e-08
5.08756e-08
5.07775e-08
5.07029e-08
5.06139e-08
5.05573e-08
5.04762e-08
5.04155e-08
5.03453e-08
5.02863e-08
5.02215e-08
5.01771e-08
5.01138e-08
5.00732e-08
5.00139e-08
4.9974e-08
4.99169e-08
4.98802e-08
4.98319e-08
4.97965e-08
4.97489e-08
4.97139e-08
4.96729e-08
4.9641e-08
4.96087e-08
4.95801e-08
4.95594e-08
4.95394e-08
4.95241e-08
4.95098e-08
4.9495e-08
4.94809e-08
4.94712e-08
4.9459e-08
4.94519e-08
4.94416e-08
4.94355e-08
4.94266e-08
4.94203e-08
4.94133e-08
4.94046e-08
4.9397e-08
4.93787e-08
4.97686e-08
3.6464e-06
2.36209e-08
1.24948e-07
1.22223e-07
1.15921e-07
1.08283e-07
1.00933e-07
9.45149e-08
8.90644e-08
8.44981e-08
8.06332e-08
7.73691e-08
7.45627e-08
7.21594e-08
7.00568e-08
6.82363e-08
6.66162e-08
6.52002e-08
6.39222e-08
6.27983e-08
6.17707e-08
6.0863e-08
6.00223e-08
5.92786e-08
5.8581e-08
5.79624e-08
5.73763e-08
5.68572e-08
5.63608e-08
5.592e-08
5.54944e-08
5.51201e-08
5.47529e-08
5.443e-08
5.41108e-08
5.38327e-08
5.3555e-08
5.33146e-08
5.30704e-08
5.28613e-08
5.26462e-08
5.24628e-08
5.22722e-08
5.2111e-08
5.19409e-08
5.18011e-08
5.16497e-08
5.15251e-08
5.13894e-08
5.12813e-08
5.11606e-08
5.1063e-08
5.09569e-08
5.0875e-08
5.07769e-08
5.07023e-08
5.06133e-08
5.05567e-08
5.04756e-08
5.04149e-08
5.03447e-08
5.02857e-08
5.02209e-08
5.01764e-08
5.01131e-08
5.00726e-08
5.00132e-08
4.99733e-08
4.99162e-08
4.98795e-08
4.98312e-08
4.97958e-08
4.97482e-08
4.97132e-08
4.96721e-08
4.96403e-08
4.9608e-08
4.95794e-08
4.95587e-08
4.95387e-08
4.95234e-08
4.9509e-08
4.94942e-08
4.94801e-08
4.94704e-08
4.94582e-08
4.94511e-08
4.94408e-08
4.94347e-08
4.94258e-08
4.94195e-08
4.94125e-08
4.94038e-08
4.93962e-08
4.93778e-08
4.97682e-08
3.64695e-06
2.38139e-08
1.24948e-07
1.22225e-07
1.15927e-07
1.08291e-07
1.00942e-07
9.45244e-08
8.90734e-08
8.45065e-08
8.06408e-08
7.7376e-08
7.45688e-08
7.21648e-08
7.00616e-08
6.82405e-08
6.66199e-08
6.52035e-08
6.3925e-08
6.28007e-08
6.17728e-08
6.08647e-08
6.00237e-08
5.92797e-08
5.85819e-08
5.79631e-08
5.73767e-08
5.68574e-08
5.63609e-08
5.59199e-08
5.54941e-08
5.51196e-08
5.47524e-08
5.44293e-08
5.411e-08
5.38318e-08
5.3554e-08
5.33134e-08
5.30692e-08
5.28599e-08
5.26447e-08
5.24613e-08
5.22706e-08
5.21093e-08
5.19392e-08
5.17993e-08
5.16479e-08
5.15232e-08
5.13875e-08
5.12793e-08
5.11585e-08
5.10609e-08
5.09547e-08
5.08728e-08
5.07746e-08
5.07e-08
5.06109e-08
5.05543e-08
5.04731e-08
5.04124e-08
5.03422e-08
5.02832e-08
5.02183e-08
5.01739e-08
5.01105e-08
5.007e-08
5.00106e-08
4.99707e-08
4.99135e-08
4.98768e-08
4.98285e-08
4.97931e-08
4.97454e-08
4.97104e-08
4.96694e-08
4.96375e-08
4.96052e-08
4.95765e-08
4.95558e-08
4.95358e-08
4.95204e-08
4.9506e-08
4.94912e-08
4.94771e-08
4.94673e-08
4.94551e-08
4.9448e-08
4.94377e-08
4.94315e-08
4.94226e-08
4.94163e-08
4.94093e-08
4.94005e-08
4.93929e-08
4.93746e-08
4.9766e-08
3.64837e-06
2.4097e-08
1.24947e-07
1.22228e-07
1.15937e-07
1.08306e-07
1.00958e-07
9.45404e-08
8.90886e-08
8.45205e-08
8.06536e-08
7.73875e-08
7.45791e-08
7.2174e-08
7.00697e-08
6.82477e-08
6.66262e-08
6.5209e-08
6.39298e-08
6.28048e-08
6.17763e-08
6.08677e-08
6.00261e-08
5.92817e-08
5.85835e-08
5.79643e-08
5.73775e-08
5.68579e-08
5.6361e-08
5.59198e-08
5.54937e-08
5.5119e-08
5.47515e-08
5.44282e-08
5.41087e-08
5.38303e-08
5.35523e-08
5.33116e-08
5.30671e-08
5.28577e-08
5.26424e-08
5.24589e-08
5.2268e-08
5.21066e-08
5.19364e-08
5.17963e-08
5.16448e-08
5.152e-08
5.13842e-08
5.12759e-08
5.11551e-08
5.10574e-08
5.09511e-08
5.08691e-08
5.07709e-08
5.06963e-08
5.0607e-08
5.05504e-08
5.04691e-08
5.04084e-08
5.03382e-08
5.02791e-08
5.02142e-08
5.01696e-08
5.01062e-08
5.00657e-08
5.00062e-08
4.99663e-08
4.99091e-08
4.98723e-08
4.9824e-08
4.97886e-08
4.97409e-08
4.97059e-08
4.96648e-08
4.96329e-08
4.96005e-08
4.95719e-08
4.9551e-08
4.95309e-08
4.95155e-08
4.95011e-08
4.94862e-08
4.9472e-08
4.94622e-08
4.945e-08
4.94429e-08
4.94325e-08
4.94263e-08
4.94173e-08
4.9411e-08
4.9404e-08
4.93952e-08
4.93875e-08
4.93691e-08
4.97621e-08
3.65064e-06
2.44413e-08
1.24946e-07
1.22233e-07
1.15951e-07
1.08326e-07
1.00981e-07
9.4563e-08
8.91101e-08
8.45404e-08
8.06717e-08
7.74038e-08
7.45937e-08
7.2187e-08
7.00812e-08
6.82579e-08
6.66351e-08
6.52168e-08
6.39365e-08
6.28107e-08
6.17813e-08
6.08719e-08
6.00297e-08
5.92846e-08
5.85857e-08
5.7966e-08
5.73787e-08
5.68586e-08
5.63613e-08
5.59197e-08
5.54932e-08
5.51181e-08
5.47503e-08
5.44267e-08
5.41069e-08
5.38282e-08
5.35499e-08
5.3309e-08
5.30643e-08
5.28547e-08
5.26392e-08
5.24555e-08
5.22645e-08
5.21029e-08
5.19325e-08
5.17923e-08
5.16406e-08
5.15157e-08
5.13797e-08
5.12713e-08
5.11503e-08
5.10526e-08
5.09461e-08
5.0864e-08
5.07657e-08
5.0691e-08
5.06016e-08
5.05449e-08
5.04636e-08
5.04028e-08
5.03325e-08
5.02734e-08
5.02083e-08
5.01638e-08
5.01003e-08
5.00597e-08
5.00001e-08
4.99602e-08
4.99029e-08
4.98661e-08
4.98178e-08
4.97823e-08
4.97346e-08
4.96995e-08
4.96584e-08
4.96264e-08
4.9594e-08
4.95653e-08
4.95443e-08
4.95241e-08
4.95086e-08
4.94941e-08
4.94792e-08
4.9465e-08
4.94551e-08
4.94428e-08
4.94357e-08
4.94252e-08
4.9419e-08
4.941e-08
4.94036e-08
4.93965e-08
4.93877e-08
4.938e-08
4.93615e-08
4.97566e-08
3.65379e-06
2.48365e-08
1.24944e-07
1.2224e-07
1.15969e-07
1.08352e-07
1.0101e-07
9.45924e-08
8.91381e-08
8.45663e-08
8.06953e-08
7.7425e-08
7.46127e-08
7.22039e-08
7.00962e-08
6.82711e-08
6.66468e-08
6.5227e-08
6.39454e-08
6.28184e-08
6.17878e-08
6.08775e-08
6.00343e-08
5.92883e-08
5.85887e-08
5.79683e-08
5.73803e-08
5.68596e-08
5.63617e-08
5.59196e-08
5.54926e-08
5.51171e-08
5.47488e-08
5.44248e-08
5.41046e-08
5.38256e-08
5.3547e-08
5.33058e-08
5.30608e-08
5.28509e-08
5.26351e-08
5.24511e-08
5.22598e-08
5.20981e-08
5.19274e-08
5.1787e-08
5.16352e-08
5.15101e-08
5.13739e-08
5.12654e-08
5.11442e-08
5.10463e-08
5.09397e-08
5.08575e-08
5.0759e-08
5.06842e-08
5.05947e-08
5.05378e-08
5.04564e-08
5.03955e-08
5.03252e-08
5.0266e-08
5.02009e-08
5.01562e-08
5.00926e-08
5.00519e-08
4.99923e-08
4.99523e-08
4.9895e-08
4.98581e-08
4.98097e-08
4.97742e-08
4.97265e-08
4.96913e-08
4.96502e-08
4.96181e-08
4.95857e-08
4.95569e-08
4.95356e-08
4.95153e-08
4.94998e-08
4.94852e-08
4.94701e-08
4.94559e-08
4.9446e-08
4.94336e-08
4.94264e-08
4.94159e-08
4.94096e-08
4.94005e-08
4.93941e-08
4.93869e-08
4.93781e-08
4.93703e-08
4.93518e-08
4.97496e-08
3.65786e-06
2.52794e-08
1.24942e-07
1.22248e-07
1.15991e-07
1.08383e-07
1.01046e-07
9.46286e-08
8.91727e-08
8.45983e-08
8.07244e-08
7.74513e-08
7.46362e-08
7.22249e-08
7.01148e-08
6.82875e-08
6.66612e-08
6.52396e-08
6.39564e-08
6.28279e-08
6.1796e-08
6.08844e-08
6.00401e-08
5.92931e-08
5.85925e-08
5.79712e-08
5.73824e-08
5.68609e-08
5.63623e-08
5.59195e-08
5.54919e-08
5.51158e-08
5.4747e-08
5.44226e-08
5.41019e-08
5.38224e-08
5.35434e-08
5.33018e-08
5.30564e-08
5.28462e-08
5.263e-08
5.24458e-08
5.22542e-08
5.20922e-08
5.19213e-08
5.17806e-08
5.16285e-08
5.15032e-08
5.13668e-08
5.12581e-08
5.11367e-08
5.10387e-08
5.09318e-08
5.08495e-08
5.07508e-08
5.06759e-08
5.05862e-08
5.05291e-08
5.04476e-08
5.03866e-08
5.03162e-08
5.0257e-08
5.01917e-08
5.01469e-08
5.00831e-08
5.00425e-08
4.99827e-08
4.99427e-08
4.98852e-08
4.98483e-08
4.97998e-08
4.97643e-08
4.97165e-08
4.96813e-08
4.96401e-08
4.96079e-08
4.95754e-08
4.95465e-08
4.9525e-08
4.95045e-08
4.94889e-08
4.94742e-08
4.9459e-08
4.94448e-08
4.94347e-08
4.94222e-08
4.94149e-08
4.94044e-08
4.9398e-08
4.93889e-08
4.93824e-08
4.93751e-08
4.93662e-08
4.93583e-08
4.93397e-08
4.9741e-08
3.66287e-06
2.5771e-08
1.2494e-07
1.22258e-07
1.16018e-07
1.08422e-07
1.01089e-07
9.46719e-08
8.92139e-08
8.46365e-08
8.07592e-08
7.74827e-08
7.46644e-08
7.22499e-08
7.01371e-08
6.83072e-08
6.66785e-08
6.52548e-08
6.39697e-08
6.28394e-08
6.18058e-08
6.08928e-08
6.0047e-08
5.92988e-08
5.8597e-08
5.79747e-08
5.73849e-08
5.68625e-08
5.63631e-08
5.59195e-08
5.54911e-08
5.51144e-08
5.47449e-08
5.44199e-08
5.40986e-08
5.38187e-08
5.35391e-08
5.32971e-08
5.30513e-08
5.28406e-08
5.26241e-08
5.24395e-08
5.22475e-08
5.20852e-08
5.19139e-08
5.1773e-08
5.16206e-08
5.14951e-08
5.13584e-08
5.12494e-08
5.11278e-08
5.10296e-08
5.09225e-08
5.08399e-08
5.07411e-08
5.0666e-08
5.05761e-08
5.05187e-08
5.04371e-08
5.03761e-08
5.03055e-08
5.02463e-08
5.01807e-08
5.01359e-08
5.00719e-08
5.00312e-08
4.99713e-08
4.99312e-08
4.98736e-08
4.98366e-08
4.97881e-08
4.97525e-08
4.97046e-08
4.96693e-08
4.9628e-08
4.95958e-08
4.95632e-08
4.95342e-08
4.95124e-08
4.94917e-08
4.9476e-08
4.94611e-08
4.94458e-08
4.94315e-08
4.94213e-08
4.94087e-08
4.94014e-08
4.93907e-08
4.93843e-08
4.9375e-08
4.93684e-08
4.93611e-08
4.93521e-08
4.93441e-08
4.93254e-08
4.97308e-08
3.66882e-06
2.63158e-08
1.24937e-07
1.22268e-07
1.16048e-07
1.08466e-07
1.01139e-07
9.47223e-08
8.9262e-08
8.46811e-08
8.07998e-08
7.75194e-08
7.46972e-08
7.22793e-08
7.01631e-08
6.83302e-08
6.66988e-08
6.52726e-08
6.39852e-08
6.28528e-08
6.18174e-08
6.09026e-08
6.00552e-08
5.93055e-08
5.86024e-08
5.79788e-08
5.73879e-08
5.68645e-08
5.6364e-08
5.59196e-08
5.54903e-08
5.51128e-08
5.47426e-08
5.44169e-08
5.4095e-08
5.38144e-08
5.35342e-08
5.32917e-08
5.30453e-08
5.28342e-08
5.26172e-08
5.24322e-08
5.22398e-08
5.20771e-08
5.19055e-08
5.17642e-08
5.16115e-08
5.14856e-08
5.13487e-08
5.12394e-08
5.11175e-08
5.1019e-08
5.09116e-08
5.08289e-08
5.07298e-08
5.06545e-08
5.05643e-08
5.05068e-08
5.0425e-08
5.03638e-08
5.02931e-08
5.02338e-08
5.0168e-08
5.0123e-08
5.00589e-08
5.00181e-08
4.9958e-08
4.99179e-08
4.98602e-08
4.9823e-08
4.97744e-08
4.97387e-08
4.96908e-08
4.96554e-08
4.9614e-08
4.95817e-08
4.9549e-08
4.95199e-08
4.94978e-08
4.94768e-08
4.9461e-08
4.94459e-08
4.94305e-08
4.94161e-08
4.94057e-08
4.9393e-08
4.93856e-08
4.93748e-08
4.93683e-08
4.93589e-08
4.93522e-08
4.93448e-08
4.93357e-08
4.93275e-08
4.93087e-08
4.9719e-08
3.67571e-06
2.69208e-08
1.24934e-07
1.22281e-07
1.16083e-07
1.08516e-07
1.01196e-07
9.47799e-08
8.93171e-08
8.47322e-08
8.08465e-08
7.75615e-08
7.4735e-08
7.2313e-08
7.0193e-08
6.83567e-08
6.67222e-08
6.52931e-08
6.40031e-08
6.28683e-08
6.18307e-08
6.09139e-08
6.00647e-08
5.93134e-08
5.86087e-08
5.79837e-08
5.73914e-08
5.68668e-08
5.63652e-08
5.59197e-08
5.54895e-08
5.51111e-08
5.474e-08
5.44135e-08
5.40908e-08
5.38096e-08
5.35287e-08
5.32855e-08
5.30386e-08
5.2827e-08
5.26094e-08
5.24239e-08
5.22311e-08
5.20679e-08
5.18958e-08
5.17542e-08
5.1601e-08
5.14749e-08
5.13375e-08
5.12279e-08
5.11057e-08
5.1007e-08
5.08992e-08
5.08162e-08
5.07169e-08
5.06414e-08
5.05509e-08
5.04931e-08
5.04111e-08
5.03498e-08
5.02789e-08
5.02195e-08
5.01535e-08
5.01084e-08
5.0044e-08
5.00031e-08
4.99428e-08
4.99026e-08
4.98448e-08
4.98074e-08
4.97589e-08
4.9723e-08
4.9675e-08
4.96395e-08
4.95981e-08
4.95656e-08
4.95327e-08
4.95035e-08
4.9481e-08
4.94598e-08
4.94439e-08
4.94285e-08
4.9413e-08
4.93984e-08
4.93879e-08
4.93751e-08
4.93675e-08
4.93566e-08
4.935e-08
4.93404e-08
4.93337e-08
4.93261e-08
4.9317e-08
4.93086e-08
4.92897e-08
4.97055e-08
3.68352e-06
2.75948e-08
1.2493e-07
1.22295e-07
1.16123e-07
1.08573e-07
1.0126e-07
9.4845e-08
8.93794e-08
8.479e-08
8.08992e-08
7.76092e-08
7.47777e-08
7.23511e-08
7.0227e-08
6.83868e-08
6.67487e-08
6.53164e-08
6.40234e-08
6.28859e-08
6.18458e-08
6.09268e-08
6.00756e-08
5.93223e-08
5.86159e-08
5.79893e-08
5.73955e-08
5.68695e-08
5.63667e-08
5.592e-08
5.54886e-08
5.51092e-08
5.47371e-08
5.44098e-08
5.40862e-08
5.38042e-08
5.35225e-08
5.32787e-08
5.3031e-08
5.28188e-08
5.26006e-08
5.24146e-08
5.22212e-08
5.20576e-08
5.1885e-08
5.1743e-08
5.15893e-08
5.14628e-08
5.1325e-08
5.12151e-08
5.10925e-08
5.09934e-08
5.08853e-08
5.0802e-08
5.07023e-08
5.06266e-08
5.05358e-08
5.04777e-08
5.03955e-08
5.0334e-08
5.0263e-08
5.02035e-08
5.01371e-08
5.00918e-08
5.00272e-08
4.99863e-08
4.99257e-08
4.98855e-08
4.98274e-08
4.97899e-08
4.97413e-08
4.97053e-08
4.96572e-08
4.96216e-08
4.958e-08
4.95474e-08
4.95145e-08
4.94851e-08
4.94622e-08
4.94407e-08
4.94246e-08
4.9409e-08
4.93932e-08
4.93786e-08
4.93678e-08
4.93549e-08
4.93471e-08
4.9336e-08
4.93293e-08
4.93197e-08
4.93128e-08
4.93051e-08
4.92958e-08
4.92872e-08
4.92682e-08
4.96904e-08
3.6922e-06
2.83484e-08
1.24926e-07
1.2231e-07
1.16166e-07
1.08636e-07
1.01332e-07
9.49176e-08
8.94489e-08
8.48547e-08
8.09583e-08
7.76625e-08
7.48257e-08
7.23939e-08
7.0265e-08
6.84205e-08
6.67784e-08
6.53426e-08
6.40462e-08
6.29058e-08
6.18629e-08
6.09414e-08
6.00878e-08
5.93324e-08
5.86241e-08
5.79957e-08
5.74002e-08
5.68727e-08
5.63684e-08
5.59204e-08
5.54878e-08
5.51072e-08
5.4734e-08
5.44057e-08
5.40811e-08
5.37982e-08
5.35157e-08
5.32711e-08
5.30227e-08
5.28098e-08
5.25909e-08
5.24043e-08
5.22103e-08
5.20462e-08
5.1873e-08
5.17304e-08
5.15763e-08
5.14494e-08
5.13111e-08
5.12008e-08
5.10778e-08
5.09783e-08
5.08698e-08
5.07862e-08
5.06862e-08
5.06102e-08
5.0519e-08
5.04605e-08
5.03781e-08
5.03164e-08
5.02452e-08
5.01856e-08
5.01189e-08
5.00734e-08
5.00085e-08
4.99675e-08
4.99067e-08
4.98663e-08
4.98081e-08
4.97704e-08
4.97217e-08
4.96856e-08
4.96374e-08
4.96016e-08
4.956e-08
4.95271e-08
4.94941e-08
4.94645e-08
4.94412e-08
4.94194e-08
4.9403e-08
4.93871e-08
4.93712e-08
4.93564e-08
4.93454e-08
4.93323e-08
4.93244e-08
4.93132e-08
4.93063e-08
4.92965e-08
4.92896e-08
4.92817e-08
4.92723e-08
4.92634e-08
4.92443e-08
4.96736e-08
3.70169e-06
2.91938e-08
1.24922e-07
1.22327e-07
1.16214e-07
1.08706e-07
1.01411e-07
9.49979e-08
8.95259e-08
8.49263e-08
8.10237e-08
7.77218e-08
7.48789e-08
7.24415e-08
7.03073e-08
6.8458e-08
6.68116e-08
6.53717e-08
6.40717e-08
6.29279e-08
6.1882e-08
6.09577e-08
6.01015e-08
5.93438e-08
5.86332e-08
5.80029e-08
5.74056e-08
5.68763e-08
5.63704e-08
5.5921e-08
5.54869e-08
5.51051e-08
5.47307e-08
5.44013e-08
5.40756e-08
5.37918e-08
5.35083e-08
5.32629e-08
5.30136e-08
5.27999e-08
5.25803e-08
5.2393e-08
5.21983e-08
5.20336e-08
5.18598e-08
5.17167e-08
5.1562e-08
5.14346e-08
5.12958e-08
5.1185e-08
5.10616e-08
5.09617e-08
5.08527e-08
5.07688e-08
5.06683e-08
5.05921e-08
5.05004e-08
5.04416e-08
5.03589e-08
5.0297e-08
5.02256e-08
5.01659e-08
5.00988e-08
5.00531e-08
4.99878e-08
4.99467e-08
4.98857e-08
4.98452e-08
4.97868e-08
4.97489e-08
4.97001e-08
4.96638e-08
4.96155e-08
4.95796e-08
4.95378e-08
4.95048e-08
4.94715e-08
4.94418e-08
4.9418e-08
4.93959e-08
4.93793e-08
4.9363e-08
4.93469e-08
4.93319e-08
4.93207e-08
4.93074e-08
4.92994e-08
4.92879e-08
4.92809e-08
4.92709e-08
4.92638e-08
4.92557e-08
4.92462e-08
4.92371e-08
4.92178e-08
4.9655e-08
3.71185e-06
3.01441e-08
1.24917e-07
1.22345e-07
1.16266e-07
1.08782e-07
1.01497e-07
9.5086e-08
8.96105e-08
8.50051e-08
8.10958e-08
7.7787e-08
7.49375e-08
7.2494e-08
7.0354e-08
6.84995e-08
6.68482e-08
6.54039e-08
6.40999e-08
6.29524e-08
6.19031e-08
6.09758e-08
6.01167e-08
5.93565e-08
5.86435e-08
5.8011e-08
5.74116e-08
5.68805e-08
5.63728e-08
5.59218e-08
5.54862e-08
5.51029e-08
5.47272e-08
5.43966e-08
5.40697e-08
5.37848e-08
5.35003e-08
5.32539e-08
5.30037e-08
5.27892e-08
5.25687e-08
5.23807e-08
5.21852e-08
5.20199e-08
5.18453e-08
5.17017e-08
5.15464e-08
5.14184e-08
5.12791e-08
5.11678e-08
5.10438e-08
5.09436e-08
5.0834e-08
5.07497e-08
5.06488e-08
5.05722e-08
5.04801e-08
5.04209e-08
5.03379e-08
5.02758e-08
5.02041e-08
5.01443e-08
5.00768e-08
5.00309e-08
4.99652e-08
4.9924e-08
4.98626e-08
4.98221e-08
4.97634e-08
4.97253e-08
4.96763e-08
4.964e-08
4.95915e-08
4.95554e-08
4.95135e-08
4.94803e-08
4.94468e-08
4.94169e-08
4.93926e-08
4.93701e-08
4.93532e-08
4.93366e-08
4.93203e-08
4.93051e-08
4.92936e-08
4.92801e-08
4.92719e-08
4.92602e-08
4.92531e-08
4.92428e-08
4.92356e-08
4.92273e-08
4.92176e-08
4.92082e-08
4.91888e-08
4.96348e-08
3.72253e-06
3.12137e-08
1.24912e-07
1.22364e-07
1.16322e-07
1.08865e-07
1.01592e-07
9.51821e-08
8.97029e-08
8.50912e-08
8.11747e-08
7.78584e-08
7.50018e-08
7.25515e-08
7.04053e-08
6.8545e-08
6.68884e-08
6.54393e-08
6.41309e-08
6.29794e-08
6.19264e-08
6.09957e-08
6.01336e-08
5.93705e-08
5.86549e-08
5.802e-08
5.74184e-08
5.68852e-08
5.63756e-08
5.59228e-08
5.54855e-08
5.51007e-08
5.47235e-08
5.43916e-08
5.40634e-08
5.37774e-08
5.34916e-08
5.32442e-08
5.2993e-08
5.27776e-08
5.25562e-08
5.23674e-08
5.2171e-08
5.2005e-08
5.18297e-08
5.16854e-08
5.15294e-08
5.14009e-08
5.12609e-08
5.11491e-08
5.10246e-08
5.09239e-08
5.08137e-08
5.0729e-08
5.06276e-08
5.05507e-08
5.04581e-08
5.03984e-08
5.03151e-08
5.02527e-08
5.01807e-08
5.01208e-08
5.00528e-08
5.00067e-08
4.99406e-08
4.98993e-08
4.98376e-08
4.97969e-08
4.97379e-08
4.96996e-08
4.96505e-08
4.9614e-08
4.95653e-08
4.95291e-08
4.9487e-08
4.94536e-08
4.94199e-08
4.93898e-08
4.9365e-08
4.93421e-08
4.93249e-08
4.93078e-08
4.92913e-08
4.92759e-08
4.92641e-08
4.92504e-08
4.92419e-08
4.923e-08
4.92227e-08
4.92122e-08
4.92049e-08
4.91963e-08
4.91865e-08
4.91767e-08
4.91571e-08
4.96127e-08
3.73352e-06
3.24177e-08
1.24906e-07
1.22385e-07
1.16383e-07
1.08954e-07
1.01694e-07
9.52864e-08
8.98032e-08
8.51848e-08
8.12605e-08
7.79362e-08
7.50718e-08
7.26142e-08
7.04612e-08
6.85947e-08
6.69324e-08
6.54781e-08
6.41648e-08
6.30091e-08
6.1952e-08
6.10177e-08
6.01522e-08
5.9386e-08
5.86675e-08
5.803e-08
5.74259e-08
5.68906e-08
5.63788e-08
5.59241e-08
5.5485e-08
5.50986e-08
5.47197e-08
5.43864e-08
5.40568e-08
5.37694e-08
5.34824e-08
5.32339e-08
5.29815e-08
5.27652e-08
5.25427e-08
5.2353e-08
5.21558e-08
5.1989e-08
5.18129e-08
5.16679e-08
5.15111e-08
5.1382e-08
5.12413e-08
5.1129e-08
5.10038e-08
5.09026e-08
5.07918e-08
5.07066e-08
5.06047e-08
5.05274e-08
5.04342e-08
5.03741e-08
5.02904e-08
5.02277e-08
5.01554e-08
5.00953e-08
5.00269e-08
4.99805e-08
4.9914e-08
4.98726e-08
4.98105e-08
4.97696e-08
4.97104e-08
4.96718e-08
4.96226e-08
4.95859e-08
4.95371e-08
4.95006e-08
4.94583e-08
4.94247e-08
4.93908e-08
4.93604e-08
4.93352e-08
4.93118e-08
4.92942e-08
4.92766e-08
4.92599e-08
4.92443e-08
4.92321e-08
4.92182e-08
4.92095e-08
4.91973e-08
4.91898e-08
4.91791e-08
4.91716e-08
4.91628e-08
4.91528e-08
4.91426e-08
4.91229e-08
4.95888e-08
3.74454e-06
3.3772e-08
1.249e-07
1.22407e-07
1.16448e-07
1.09049e-07
1.01804e-07
9.53988e-08
8.99117e-08
8.52861e-08
8.13534e-08
7.80206e-08
7.51478e-08
7.26823e-08
7.0522e-08
6.86487e-08
6.69802e-08
6.55203e-08
6.42019e-08
6.30414e-08
6.198e-08
6.10417e-08
6.01725e-08
5.9403e-08
5.86815e-08
5.80411e-08
5.74344e-08
5.68966e-08
5.63825e-08
5.59258e-08
5.54846e-08
5.50964e-08
5.47159e-08
5.43809e-08
5.40498e-08
5.37611e-08
5.34727e-08
5.3223e-08
5.29693e-08
5.27519e-08
5.25284e-08
5.23378e-08
5.21395e-08
5.19719e-08
5.17948e-08
5.16491e-08
5.14915e-08
5.13617e-08
5.12203e-08
5.11073e-08
5.09814e-08
5.08797e-08
5.07682e-08
5.06826e-08
5.05801e-08
5.05024e-08
5.04086e-08
5.03479e-08
5.02639e-08
5.02008e-08
5.01282e-08
5.0068e-08
4.99989e-08
4.99523e-08
4.98854e-08
4.98438e-08
4.97813e-08
4.97403e-08
4.96807e-08
4.96419e-08
4.95925e-08
4.95556e-08
4.95066e-08
4.94699e-08
4.94274e-08
4.93935e-08
4.93594e-08
4.93288e-08
4.9303e-08
4.92792e-08
4.92612e-08
4.9243e-08
4.92262e-08
4.92103e-08
4.91977e-08
4.91836e-08
4.91745e-08
4.91621e-08
4.91544e-08
4.91434e-08
4.91357e-08
4.91266e-08
4.91164e-08
4.91058e-08
4.90859e-08
4.95631e-08
3.75525e-06
3.52931e-08
1.24893e-07
1.2243e-07
1.16517e-07
1.09152e-07
1.01922e-07
9.55196e-08
9.00284e-08
8.53953e-08
8.14537e-08
7.81117e-08
7.52299e-08
7.2756e-08
7.05878e-08
6.87073e-08
6.70321e-08
6.55661e-08
6.42421e-08
6.30765e-08
6.20105e-08
6.10679e-08
6.01948e-08
5.94217e-08
5.86968e-08
5.80534e-08
5.74438e-08
5.69034e-08
5.63868e-08
5.59279e-08
5.54846e-08
5.50944e-08
5.47119e-08
5.43753e-08
5.40425e-08
5.37523e-08
5.34624e-08
5.32114e-08
5.29565e-08
5.27379e-08
5.25131e-08
5.23215e-08
5.21222e-08
5.19537e-08
5.17756e-08
5.1629e-08
5.14706e-08
5.13401e-08
5.11978e-08
5.10842e-08
5.09576e-08
5.08553e-08
5.0743e-08
5.06569e-08
5.05538e-08
5.04756e-08
5.03812e-08
5.032e-08
5.02355e-08
5.01721e-08
5.00991e-08
5.00386e-08
4.9969e-08
4.99221e-08
4.98547e-08
4.9813e-08
4.975e-08
4.97088e-08
4.96489e-08
4.96098e-08
4.95603e-08
4.95231e-08
4.94739e-08
4.9437e-08
4.93943e-08
4.93601e-08
4.93258e-08
4.92949e-08
4.92686e-08
4.92442e-08
4.92258e-08
4.92069e-08
4.919e-08
4.91738e-08
4.91608e-08
4.91464e-08
4.9137e-08
4.91243e-08
4.91164e-08
4.91051e-08
4.90972e-08
4.90879e-08
4.90774e-08
4.90662e-08
4.90463e-08
4.95354e-08
3.76523e-06
3.69983e-08
1.24886e-07
1.22454e-07
1.1659e-07
1.09261e-07
1.02048e-07
9.5649e-08
9.01535e-08
8.55125e-08
8.15615e-08
7.82097e-08
7.53184e-08
7.28354e-08
7.06587e-08
6.87705e-08
6.70882e-08
6.56157e-08
6.42857e-08
6.31146e-08
6.20435e-08
6.10964e-08
6.0219e-08
5.94421e-08
5.87135e-08
5.80669e-08
5.74542e-08
5.6911e-08
5.63918e-08
5.59304e-08
5.54848e-08
5.50925e-08
5.4708e-08
5.43696e-08
5.4035e-08
5.37432e-08
5.34517e-08
5.31993e-08
5.29429e-08
5.27231e-08
5.24971e-08
5.23043e-08
5.21039e-08
5.19344e-08
5.17553e-08
5.16078e-08
5.14484e-08
5.13171e-08
5.1174e-08
5.10596e-08
5.09322e-08
5.08293e-08
5.07162e-08
5.06295e-08
5.05257e-08
5.04471e-08
5.0352e-08
5.02901e-08
5.02052e-08
5.01414e-08
5.0068e-08
5.00074e-08
4.99371e-08
4.98898e-08
4.9822e-08
4.97801e-08
4.97166e-08
4.96752e-08
4.9615e-08
4.95756e-08
4.95259e-08
4.94885e-08
4.94391e-08
4.94018e-08
4.9359e-08
4.93245e-08
4.92899e-08
4.92587e-08
4.92319e-08
4.9207e-08
4.9188e-08
4.91684e-08
4.91513e-08
4.91348e-08
4.91214e-08
4.91066e-08
4.9097e-08
4.90839e-08
4.90758e-08
4.90641e-08
4.90561e-08
4.90464e-08
4.90357e-08
4.9024e-08
4.9004e-08
4.95057e-08
3.774e-06
3.89051e-08
1.24879e-07
1.22479e-07
1.16667e-07
1.09377e-07
1.02182e-07
9.57871e-08
9.02873e-08
8.5638e-08
8.1677e-08
7.83149e-08
7.54133e-08
7.29208e-08
7.07351e-08
6.88385e-08
6.71486e-08
6.56691e-08
6.43327e-08
6.31558e-08
6.20793e-08
6.11273e-08
6.02454e-08
5.94643e-08
5.87319e-08
5.80817e-08
5.74657e-08
5.69195e-08
5.63974e-08
5.59335e-08
5.54854e-08
5.50908e-08
5.47042e-08
5.43638e-08
5.40273e-08
5.37338e-08
5.34406e-08
5.31866e-08
5.29287e-08
5.27075e-08
5.24801e-08
5.22862e-08
5.20845e-08
5.1914e-08
5.17338e-08
5.15853e-08
5.14249e-08
5.12928e-08
5.11487e-08
5.10336e-08
5.09054e-08
5.08017e-08
5.06878e-08
5.06005e-08
5.0496e-08
5.04168e-08
5.03209e-08
5.02585e-08
5.0173e-08
5.01088e-08
5.00349e-08
4.99741e-08
4.99032e-08
4.98556e-08
4.97872e-08
4.97451e-08
4.96811e-08
4.96396e-08
4.95789e-08
4.95391e-08
4.94893e-08
4.94516e-08
4.94019e-08
4.93645e-08
4.93214e-08
4.92866e-08
4.92516e-08
4.92202e-08
4.91929e-08
4.91674e-08
4.91478e-08
4.91275e-08
4.91102e-08
4.90932e-08
4.90794e-08
4.90644e-08
4.90543e-08
4.9041e-08
4.90325e-08
4.90205e-08
4.90122e-08
4.90022e-08
4.89913e-08
4.8979e-08
4.89588e-08
4.94739e-08
3.78097e-06
4.10311e-08
1.24871e-07
1.22505e-07
1.16749e-07
1.09499e-07
1.02324e-07
9.59339e-08
9.04299e-08
8.57719e-08
8.18005e-08
7.84274e-08
7.55151e-08
7.30123e-08
7.0817e-08
6.89116e-08
6.72135e-08
6.57267e-08
6.43834e-08
6.32003e-08
6.2118e-08
6.11608e-08
6.0274e-08
5.94884e-08
5.87519e-08
5.8098e-08
5.74785e-08
5.6929e-08
5.64039e-08
5.59372e-08
5.54864e-08
5.50895e-08
5.47005e-08
5.43581e-08
5.40195e-08
5.37241e-08
5.3429e-08
5.31734e-08
5.29139e-08
5.26913e-08
5.24624e-08
5.22672e-08
5.20642e-08
5.18926e-08
5.17111e-08
5.15617e-08
5.14002e-08
5.12672e-08
5.11221e-08
5.10061e-08
5.0877e-08
5.07726e-08
5.06578e-08
5.05698e-08
5.04645e-08
5.03848e-08
5.02881e-08
5.0225e-08
5.0139e-08
5.00743e-08
5e-08
4.99389e-08
4.98672e-08
4.98193e-08
4.97503e-08
4.97081e-08
4.96434e-08
4.96017e-08
4.95406e-08
4.95006e-08
4.94505e-08
4.94125e-08
4.93626e-08
4.93248e-08
4.92815e-08
4.92463e-08
4.92111e-08
4.91793e-08
4.91516e-08
4.91254e-08
4.91052e-08
4.90841e-08
4.90667e-08
4.90492e-08
4.90349e-08
4.90195e-08
4.90091e-08
4.89954e-08
4.89866e-08
4.89743e-08
4.89657e-08
4.89554e-08
4.89442e-08
4.89311e-08
4.8911e-08
4.944e-08
3.78552e-06
4.33939e-08
1.24862e-07
1.22533e-07
1.16834e-07
1.09628e-07
1.02475e-07
9.60897e-08
9.05814e-08
8.59145e-08
8.19321e-08
7.85475e-08
7.56238e-08
7.31102e-08
7.09047e-08
6.899e-08
6.72832e-08
6.57885e-08
6.44379e-08
6.32481e-08
6.21597e-08
6.11969e-08
6.03049e-08
5.95147e-08
5.87738e-08
5.81158e-08
5.74925e-08
5.69396e-08
5.64112e-08
5.59416e-08
5.54879e-08
5.50884e-08
5.4697e-08
5.43523e-08
5.40115e-08
5.37142e-08
5.34172e-08
5.31598e-08
5.28985e-08
5.26744e-08
5.2444e-08
5.22474e-08
5.2043e-08
5.18702e-08
5.16874e-08
5.15369e-08
5.13742e-08
5.12403e-08
5.10941e-08
5.09772e-08
5.08471e-08
5.0742e-08
5.06262e-08
5.05375e-08
5.04314e-08
5.03511e-08
5.02536e-08
5.01897e-08
5.01031e-08
5.0038e-08
4.9963e-08
4.99017e-08
4.98293e-08
4.9781e-08
4.97114e-08
4.9669e-08
4.96037e-08
4.95618e-08
4.95002e-08
4.94598e-08
4.94094e-08
4.93712e-08
4.9321e-08
4.92829e-08
4.92393e-08
4.92038e-08
4.91682e-08
4.91361e-08
4.91079e-08
4.90812e-08
4.90602e-08
4.90383e-08
4.90206e-08
4.90027e-08
4.89878e-08
4.89721e-08
4.89612e-08
4.89471e-08
4.89381e-08
4.89253e-08
4.89165e-08
4.89058e-08
4.88943e-08
4.88805e-08
4.88603e-08
4.94038e-08
3.7869e-06
4.6011e-08
1.24853e-07
1.22561e-07
1.16923e-07
1.09764e-07
1.02634e-07
9.62546e-08
9.07422e-08
8.6066e-08
8.20721e-08
7.86754e-08
7.57396e-08
7.32146e-08
7.09984e-08
6.90737e-08
6.73578e-08
6.58547e-08
6.44964e-08
6.32996e-08
6.22047e-08
6.12359e-08
6.03384e-08
5.95431e-08
5.87975e-08
5.81353e-08
5.7508e-08
5.69515e-08
5.64196e-08
5.59469e-08
5.54901e-08
5.50879e-08
5.46938e-08
5.43467e-08
5.40036e-08
5.37042e-08
5.3405e-08
5.31459e-08
5.28827e-08
5.26569e-08
5.24248e-08
5.22269e-08
5.20209e-08
5.18468e-08
5.16627e-08
5.1511e-08
5.13471e-08
5.12121e-08
5.10648e-08
5.0947e-08
5.08158e-08
5.07099e-08
5.0593e-08
5.05035e-08
5.03966e-08
5.03157e-08
5.02172e-08
5.01526e-08
5.00654e-08
4.99997e-08
4.99242e-08
4.98626e-08
4.97893e-08
4.97407e-08
4.96705e-08
4.96278e-08
4.95618e-08
4.95197e-08
4.94576e-08
4.94168e-08
4.93662e-08
4.93276e-08
4.92772e-08
4.92388e-08
4.91948e-08
4.9159e-08
4.9123e-08
4.90906e-08
4.90619e-08
4.90345e-08
4.90128e-08
4.89902e-08
4.8972e-08
4.89536e-08
4.89382e-08
4.89221e-08
4.89107e-08
4.88962e-08
4.88869e-08
4.88737e-08
4.88646e-08
4.88534e-08
4.88416e-08
4.88269e-08
4.88068e-08
4.93653e-08
3.78434e-06
4.8898e-08
1.24843e-07
1.2259e-07
1.17016e-07
1.09906e-07
1.02801e-07
9.64286e-08
9.09122e-08
8.62266e-08
8.22208e-08
7.88113e-08
7.58629e-08
7.33259e-08
7.10983e-08
6.91632e-08
6.74376e-08
6.59255e-08
6.45591e-08
6.33548e-08
6.22529e-08
6.12779e-08
6.03745e-08
5.95739e-08
5.88234e-08
5.81566e-08
5.75251e-08
5.69646e-08
5.6429e-08
5.5953e-08
5.5493e-08
5.50879e-08
5.46909e-08
5.43414e-08
5.39957e-08
5.36941e-08
5.33927e-08
5.31316e-08
5.28664e-08
5.26389e-08
5.24051e-08
5.22056e-08
5.1998e-08
5.18225e-08
5.16369e-08
5.1484e-08
5.13188e-08
5.11827e-08
5.10342e-08
5.09153e-08
5.07831e-08
5.06763e-08
5.05583e-08
5.0468e-08
5.03602e-08
5.02785e-08
5.01792e-08
5.01138e-08
5.00258e-08
4.99596e-08
4.98834e-08
4.98215e-08
4.97474e-08
4.96983e-08
4.96275e-08
4.95846e-08
4.95179e-08
4.94755e-08
4.94129e-08
4.93717e-08
4.93208e-08
4.92819e-08
4.92311e-08
4.91923e-08
4.91481e-08
4.91119e-08
4.90754e-08
4.90427e-08
4.90135e-08
4.89856e-08
4.8963e-08
4.89396e-08
4.8921e-08
4.89019e-08
4.8886e-08
4.88695e-08
4.88576e-08
4.88427e-08
4.8833e-08
4.88193e-08
4.881e-08
4.87983e-08
4.87862e-08
4.87706e-08
4.87505e-08
4.93243e-08
3.77696e-06
5.20686e-08
1.24833e-07
1.2262e-07
1.17113e-07
1.10055e-07
1.02977e-07
9.6612e-08
9.10918e-08
8.63965e-08
8.23783e-08
7.89555e-08
7.59939e-08
7.34442e-08
7.12047e-08
6.92585e-08
6.75227e-08
6.60013e-08
6.46261e-08
6.34139e-08
6.23048e-08
6.1323e-08
6.04135e-08
5.96073e-08
5.88514e-08
5.81799e-08
5.75438e-08
5.69792e-08
5.64397e-08
5.59601e-08
5.54967e-08
5.50885e-08
5.46886e-08
5.43363e-08
5.3988e-08
5.3684e-08
5.33803e-08
5.31171e-08
5.28498e-08
5.26205e-08
5.23847e-08
5.21836e-08
5.19743e-08
5.17974e-08
5.16103e-08
5.1456e-08
5.12894e-08
5.11522e-08
5.10023e-08
5.08824e-08
5.0749e-08
5.06413e-08
5.05221e-08
5.0431e-08
5.03221e-08
5.02398e-08
5.01394e-08
5.00731e-08
4.99845e-08
4.99176e-08
4.98407e-08
4.97785e-08
4.97034e-08
4.9654e-08
4.95825e-08
4.95393e-08
4.94718e-08
4.94292e-08
4.9366e-08
4.93244e-08
4.92732e-08
4.92339e-08
4.91828e-08
4.91437e-08
4.90991e-08
4.90625e-08
4.90256e-08
4.89924e-08
4.89627e-08
4.89342e-08
4.89107e-08
4.88866e-08
4.88675e-08
4.88478e-08
4.88313e-08
4.88143e-08
4.88019e-08
4.87865e-08
4.87764e-08
4.87623e-08
4.87526e-08
4.87404e-08
4.8728e-08
4.87113e-08
4.86913e-08
4.92807e-08
3.76387e-06
5.55339e-08
1.24823e-07
1.2265e-07
1.17213e-07
1.1021e-07
1.03161e-07
9.68049e-08
9.12811e-08
8.65758e-08
8.25448e-08
7.91082e-08
7.61328e-08
7.35699e-08
7.13178e-08
6.936e-08
6.76133e-08
6.60821e-08
6.46978e-08
6.34772e-08
6.23603e-08
6.13716e-08
6.04555e-08
5.96432e-08
5.88818e-08
5.82052e-08
5.75643e-08
5.69954e-08
5.64517e-08
5.59684e-08
5.55014e-08
5.50899e-08
5.46868e-08
5.43317e-08
5.39806e-08
5.36741e-08
5.33678e-08
5.31024e-08
5.28329e-08
5.26016e-08
5.23638e-08
5.2161e-08
5.19499e-08
5.17715e-08
5.15827e-08
5.1427e-08
5.12589e-08
5.11205e-08
5.09693e-08
5.08482e-08
5.07136e-08
5.06049e-08
5.04845e-08
5.03924e-08
5.02825e-08
5.01994e-08