/*--------------------------------*- C++ -*----------------------------------*\
| =========                 |                                                 |
| \\      /  F ield         | OpenFOAM: The Open Source CFD Toolbox           |
|  \\    /   O peration     | Version:  v2012                                 |
|   \\  /    A nd           | Website:  www.openfoam.com                      |
|    \\/     M anipulation  |                                                 |
\*---------------------------------------------------------------------------*/
FoamFile
{
    version     2.0;
    format      ascii;
    class       volScalarField;
    location    "35";
    object      yPlus;
}
// * * * * * * * * * * * * * * * * * * * * * * * * * * * * * * * * * * * * * //

dimensions      [0 0 0 0 0 0 0];


internalField   uniform 0;

boundaryField
{
    inlet
    {
        type            calculated;
        value           uniform 0;
    }
    outlet
    {
        type            calculated;
        value           uniform 0;
    }
    topWall
    {
        type            calculated;
        value           nonuniform List<scalar> 
545
(
0.147297
0.254045
0.325916
0.383092
0.431489
0.473829
0.511639
0.545884
0.577218
0.606112
0.632919
0.657912
0.681307
0.70328
0.723978
0.743522
0.762015
0.779548
0.796197
0.81203
0.827107
0.841481
0.8552
0.868306
0.880837
0.89283
0.904316
0.915323
0.92588
0.93601
0.945736
0.955079
0.964059
0.972694
0.981001
0.988996
0.996693
1.00411
1.01125
1.01814
1.02477
1.03118
1.03735
1.04331
1.04906
1.05462
1.05998
1.06517
1.07017
1.07501
1.07969
1.08421
1.08858
1.09281
1.09691
1.10086
1.1047
1.1084
1.11199
1.11547
1.11884
1.1221
1.12525
1.12831
1.13128
1.13415
1.13693
1.13963
1.14224
1.14478
1.14724
1.14962
1.1519
1.15411
1.1563
1.15847
1.16062
1.16276
1.16487
1.16697
1.16906
1.17112
1.17317
1.17521
1.17722
1.17923
1.18121
1.18318
1.18513
1.18707
1.18899
1.1909
1.19279
1.19467
1.19653
1.19838
1.20004
1.20153
1.20301
1.2045
1.20599
1.20747
1.20896
1.21044
1.21192
1.21341
1.21489
1.21637
1.21785
1.21933
1.22081
1.22229
1.22377
1.22525
1.22672
1.2282
1.22968
1.23115
1.23263
1.2341
1.23557
1.23705
1.23852
1.23999
1.24146
1.24293
1.2444
1.24587
1.24733
1.2488
1.25026
1.25173
1.25319
1.25465
1.25612
1.25758
1.25904
1.2605
1.26195
1.26341
1.26487
1.26632
1.26778
1.26923
1.27068
1.27213
1.27358
1.27503
1.27648
1.27793
1.27937
1.28082
1.28226
1.2837
1.28515
1.28659
1.28802
1.28946
1.2909
1.29233
1.29377
1.2952
1.29663
1.29806
1.29949
1.30092
1.30235
1.30377
1.30519
1.30662
1.30804
1.30946
1.31087
1.31229
1.31371
1.31512
1.31653
1.31794
1.31935
1.32076
1.32217
1.32357
1.32497
1.32637
1.32777
1.32917
1.33057
1.33196
1.33336
1.33475
1.33614
1.33753
1.33891
1.3403
1.34168
1.34306
1.34444
1.34582
1.34719
1.34857
1.34994
1.35131
1.35268
1.35404
1.35541
1.35677
1.35813
1.35949
1.36084
1.3622
1.36355
1.3649
1.36625
1.36759
1.36894
1.37028
1.37162
1.37296
1.37429
1.37562
1.37695
1.37828
1.37961
1.38093
1.38225
1.38357
1.38489
1.3862
1.38752
1.38883
1.39013
1.39144
1.39274
1.39404
1.39534
1.39663
1.39793
1.39922
1.4005
1.40179
1.40307
1.40435
1.40563
1.4069
1.40817
1.40944
1.41071
1.41197
1.41323
1.41449
1.41574
1.41699
1.41824
1.41949
1.42073
1.42197
1.42321
1.42445
1.42568
1.42691
1.42813
1.42935
1.43057
1.43179
1.433
1.43421
1.43542
1.43662
1.43783
1.43896
1.44002
1.44109
1.44217
1.44326
1.44435
1.44545
1.44655
1.44767
1.44878
1.44991
1.45104
1.45218
1.45332
1.45448
1.45563
1.4568
1.45797
1.45914
1.46032
1.46151
1.46271
1.46391
1.46511
1.46632
1.46754
1.46876
1.46999
1.47123
1.47246
1.47371
1.47496
1.47621
1.47747
1.47874
1.48001
1.48128
1.48256
1.48384
1.48513
1.48642
1.48771
1.48901
1.49031
1.49162
1.49293
1.49424
1.49556
1.49688
1.4982
1.49952
1.50085
1.50218
1.50351
1.50484
1.50617
1.50751
1.50884
1.51018
1.51152
1.51286
1.5142
1.51554
1.51688
1.51821
1.51955
1.52089
1.52222
1.52356
1.52489
1.52622
1.52755
1.52888
1.5302
1.53152
1.53284
1.53415
1.53546
1.53676
1.53806
1.53935
1.54064
1.54192
1.5432
1.54447
1.54573
1.54699
1.54824
1.54948
1.55071
1.55193
1.55314
1.55435
1.55554
1.55672
1.5579
1.55906
1.56021
1.56134
1.56247
1.56358
1.56468
1.56576
1.56683
1.56789
1.56892
1.56995
1.57095
1.57194
1.57292
1.57387
1.57481
1.57573
1.57663
1.5775
1.57836
1.5792
1.58002
1.58081
1.58159
1.58234
1.58306
1.58377
1.58445
1.5851
1.58573
1.58633
1.58691
1.58746
1.58798
1.58848
1.58895
1.58939
1.5898
1.59018
1.59053
1.59085
1.59114
1.5914
1.59162
1.59182
1.59198
1.59211
1.59221
1.59227
1.5923
1.59229
1.59225
1.59217
1.59206
1.59192
1.59173
1.59151
1.59126
1.59096
1.59063
1.59027
1.58986
1.58942
1.58894
1.58843
1.58787
1.58728
1.58665
1.58598
1.58527
1.58453
1.58374
1.58292
1.58206
1.58116
1.58022
1.57925
1.57824
1.57719
1.5761
1.57498
1.57382
1.57263
1.57139
1.57012
1.56867
1.56704
1.56538
1.56369
1.56198
1.56025
1.55849
1.55672
1.55492
1.55312
1.55129
1.54946
1.54762
1.54577
1.5439
1.54204
1.54017
1.5383
1.53642
1.53454
1.53266
1.53079
1.52892
1.52705
1.52518
1.52333
1.52147
1.51963
1.5178
1.51597
1.51416
1.51236
1.51056
1.50879
1.50702
1.50527
1.50354
1.50182
1.50011
1.49843
1.49676
1.49512
1.49349
1.49188
1.49029
1.48873
1.48718
1.48566
1.48416
1.48269
1.48123
1.47981
1.4784
1.47703
1.47567
1.47435
1.47305
1.47178
1.47053
1.46932
1.46813
1.46698
1.46585
1.46475
1.46368
1.46265
1.46164
1.46066
1.45972
1.45881
1.45793
1.45708
1.45627
1.45549
1.45474
1.45403
1.45335
1.4527
1.45209
1.45152
1.45098
1.45047
1.45
1.44957
1.44917
1.44881
1.44848
1.44819
1.44794
1.44772
1.44754
1.44739
1.44728
1.44722
1.44715
)
;
    }
    bottomWall
    {
        type            calculated;
        value           nonuniform List<scalar> 
449
(
0.00274017
0.00480505
0.0053788
0.00533115
0.00525973
0.00516337
0.00506571
0.00497428
0.00489041
0.00481378
0.00474369
0.00467941
0.00462026
0.00456548
0.00451461
0.00446721
0.00442289
0.00438131
0.00434217
0.00430517
0.00427016
0.00423692
0.00420529
0.00417515
0.00414636
0.00411883
0.00409246
0.00406716
0.00404286
0.00401949
0.00399699
0.00397529
0.00395435
0.00393412
0.00391455
0.00389561
0.00387725
0.00385944
0.00384216
0.00382536
0.00380902
0.00379312
0.00377764
0.00376255
0.00374784
0.00373349
0.00371949
0.00370582
0.00369248
0.00367943
0.00366668
0.00365421
0.00364201
0.00363006
0.00361837
0.0036069
0.00359567
0.00358465
0.00357384
0.00356322
0.0035528
0.00354256
0.00353251
0.00352261
0.0035129
0.00350333
0.00349393
0.00348467
0.00347556
0.00346659
0.00345776
0.00344905
0.00344049
0.00343204
0.00342372
0.00341551
0.00340743
0.00339945
0.00339159
0.00338382
0.00337617
0.00336861
0.00336116
0.0033538
0.00334654
0.00333937
0.00333229
0.00332529
0.00331839
0.00331156
0.00330482
0.00329815
0.00329157
0.00328506
0.00327863
0.00327227
0.00326599
0.00325977
0.00325362
0.00324754
0.00324153
0.00323557
0.00322969
0.00322386
0.0032181
0.00321239
0.00320675
0.00320115
0.00319562
0.00319014
0.00318472
0.00317935
0.00317403
0.00316876
0.00316355
0.00315837
0.00315326
0.00314818
0.00314316
0.00313818
0.00313325
0.00312836
0.00312352
0.00311871
0.00311395
0.00310923
0.00310456
0.00309991
0.00309532
0.00309076
0.00308624
0.00308175
0.00307731
0.0030729
0.00306853
0.00306418
0.00305988
0.00305561
0.00305138
0.00304717
0.00304301
0.00303887
0.00303477
0.00303069
0.00302665
0.00302263
0.00301866
0.0030147
0.00301078
0.00300689
0.00300302
0.00299919
0.00299538
0.00299159
0.00298784
0.00298411
0.00298041
0.00297673
0.00297308
0.00296945
0.00296585
0.00296228
0.00295872
0.0029552
0.00295169
0.00294821
0.00294475
0.00294132
0.0029379
0.00293451
0.00293114
0.0029278
0.00292447
0.00292135
0.0029184
0.00291546
0.0029125
0.00290954
0.00290657
0.00290359
0.0029006
0.00289761
0.0028946
0.0028916
0.00288858
0.00288556
0.00288252
0.00287948
0.00287643
0.00287338
0.00287032
0.00286725
0.00286417
0.00286109
0.002858
0.0028549
0.0028518
0.00284869
0.00284557
0.00284245
0.00283932
0.00283618
0.00283304
0.00282989
0.00282674
0.00282358
0.00282042
0.00281724
0.00281407
0.00281088
0.0028077
0.00280449
0.0028013
0.00279809
0.00279489
0.00279167
0.00278846
0.00278523
0.00278201
0.00277878
0.00277555
0.0027723
0.00276906
0.00276581
0.00276256
0.00275931
0.00275605
0.00275279
0.00274952
0.00274625
0.00274298
0.00273971
0.00273642
0.00273315
0.00272986
0.00272657
0.00272328
0.00271999
0.00271669
0.0027134
0.00271009
0.0027068
0.00270349
0.00270019
0.00269688
0.00269357
0.00269026
0.00268695
0.00268363
0.00268032
0.002677
0.00267369
0.00267037
0.00266705
0.00266373
0.00266041
0.00265709
0.00265377
0.00265045
0.00264713
0.00264381
0.00264048
0.00263717
0.00263384
0.00263052
0.0026272
0.00262388
0.00262055
0.00261724
0.00261392
0.00261061
0.00260728
0.00260397
0.00260065
0.00259734
0.00259402
0.00259072
0.0025874
0.0025841
0.00258079
0.00257749
0.00257418
0.00257089
0.00256758
0.00256429
0.00256099
0.0025577
0.00255441
0.00255113
0.00254783
0.00254456
0.00254127
0.002538
0.00253472
0.00253146
0.00252818
0.00252492
0.00252166
0.0025184
0.00251515
0.0025119
0.00250865
0.00250541
0.00250217
0.00249893
0.0024957
0.00249247
0.00248925
0.00248602
0.00248281
0.00247959
0.00247639
0.00247318
0.00246999
0.00246678
0.0024636
0.0024604
0.00245722
0.00245404
0.00245087
0.00244769
0.00244454
0.00244137
0.00243823
0.00243507
0.00243194
0.00242879
0.00242566
0.00242253
0.00241941
0.00241629
0.00241318
0.00241007
0.00240698
0.00240387
0.00240079
0.0023977
0.00239462
0.00239155
0.00238848
0.00238542
0.00238236
0.00237932
0.00237627
0.00237324
0.0023702
0.00236718
0.00236416
0.00236115
0.00235813
0.00235514
0.00235214
0.00234916
0.00234616
0.00234287
0.00233927
0.00233574
0.00233224
0.00232882
0.00232542
0.0023221
0.00231881
0.00231558
0.00231239
0.00230925
0.00230614
0.00230309
0.00230007
0.00229709
0.00229415
0.00229126
0.0022884
0.00228558
0.00228279
0.00228004
0.00227732
0.00227464
0.00227198
0.00226938
0.00226678
0.00226424
0.0022617
0.00225922
0.00225675
0.00225432
0.0022519
0.00224953
0.00224717
0.00224485
0.00224255
0.00224028
0.00223803
0.00223581
0.0022336
0.00223143
0.00222927
0.00222715
0.00222503
0.00222295
0.00222088
0.00221884
0.00221681
0.00221481
0.00221282
0.00221086
0.00220891
0.00220699
0.00220507
0.0022032
0.00220131
0.00219947
0.00219762
0.00219582
0.00219399
0.00219222
0.00219043
0.0021887
0.00218693
0.00218523
0.0021835
0.00218182
0.00218011
0.00217847
0.00217679
0.00217518
0.00217352
0.00217194
0.00217031
0.00216876
0.00216715
0.00216563
0.00216404
0.00216255
0.00216099
0.00215951
0.00215798
0.00215652
0.00215501
0.00215357
0.00215209
0.00215064
0.00214922
0.00214773
0.00214641
0.00214478
0.00214376
0.00214166
0.00214141
0.00213866
)
;
    }
    symmetry
    {
        type            symmetryPlane;
    }
    frontAndBack
    {
        type            empty;
    }
}


// ************************************************************************* //
