/*--------------------------------*- C++ -*----------------------------------*\
| =========                 |                                                 |
| \\      /  F ield         | OpenFOAM: The Open Source CFD Toolbox           |
|  \\    /   O peration     | Version:  v2012                                 |
|   \\  /    A nd           | Website:  www.openfoam.com                      |
|    \\/     M anipulation  |                                                 |
\*---------------------------------------------------------------------------*/
FoamFile
{
    version     2.0;
    format      ascii;
    class       volScalarField;
    location    "10";
    object      k;
}
// * * * * * * * * * * * * * * * * * * * * * * * * * * * * * * * * * * * * * //

dimensions      [0 2 -2 0 0 0 0];


internalField   nonuniform List<scalar> 
209825
(
0.00102455
0.00098027
0.000960714
0.000950288
0.000943871
0.000939632
0.000936633
0.000934474
0.000932837
0.000931601
0.000930621
0.00092986
0.000929236
0.000928741
0.000928326
0.000927994
0.0009277
0.000927467
0.000927269
0.000927109
0.000926952
0.000926832
0.000926727
0.000926645
0.000926538
0.000926475
0.000926422
0.00092638
0.000926319
0.000926291
0.000926267
0.000926237
0.000926158
0.000926182
0.000926182
0.000926178
0.000926141
0.000926164
0.000926164
0.000926163
0.000926143
0.000926204
0.000926204
0.000926204
0.00092619
0.000926317
0.000926349
0.000926349
0.000926347
0.00092636
0.00092636
0.000926509
0.00092651
0.00092651
0.000926507
0.000926624
0.000926624
0.000926745
0.00092685
0.00092685
0.000926849
0.00092699
0.000927141
0.000927141
0.000927141
0.000927265
0.000927464
0.000927647
0.000927759
0.00092779
0.00092788
0.000928097
0.000928235
0.000928368
0.000928561
0.000928821
0.000928921
0.000929065
0.000929289
0.000929597
0.000929868
0.000930204
0.000930553
0.000930945
0.000931331
0.000931884
0.000932419
0.000933132
0.000933843
0.000935005
0.000935826
0.000938467
0.000938909
0.000953654
0.00102052
0.00245625
0.00102455
0.00098026
0.000960696
0.000950266
0.000943845
0.000939604
0.000936604
0.000934443
0.000932805
0.000931568
0.000930588
0.000929825
0.000929201
0.000928706
0.00092829
0.000927958
0.000927664
0.00092743
0.000927232
0.000927072
0.000926915
0.000926795
0.00092669
0.000926607
0.000926501
0.000926437
0.000926385
0.000926342
0.000926281
0.000926253
0.000926229
0.0009262
0.00092612
0.000926144
0.000926144
0.00092614
0.000926103
0.000926126
0.000926126
0.000926125
0.000926105
0.000926166
0.000926166
0.000926166
0.000926152
0.000926279
0.000926311
0.000926311
0.000926309
0.000926322
0.000926322
0.000926471
0.000926472
0.000926472
0.000926468
0.000926586
0.000926586
0.000926707
0.000926812
0.000926812
0.000926811
0.000926952
0.000927103
0.000927104
0.000927104
0.000927227
0.000927426
0.000927609
0.000927721
0.000927752
0.000927842
0.000928059
0.000928198
0.00092833
0.000928524
0.000928783
0.000928883
0.000929028
0.000929251
0.000929559
0.00092983
0.000930167
0.000930516
0.000930908
0.000931295
0.000931848
0.000932382
0.000933096
0.000933807
0.000934969
0.00093579
0.000938432
0.000938873
0.000953646
0.00102056
0.00245781
0.00102454
0.000980209
0.000960618
0.00095017
0.000943737
0.000939487
0.00093648
0.000934314
0.000932672
0.000931432
0.000930449
0.000929684
0.000929058
0.000928561
0.000928145
0.000927811
0.000927516
0.000927282
0.000927083
0.000926922
0.000926765
0.000926644
0.000926539
0.000926456
0.000926349
0.000926285
0.000926232
0.000926189
0.000926129
0.0009261
0.000926076
0.000926046
0.000925967
0.00092599
0.00092599
0.000925986
0.00092595
0.000925972
0.000925972
0.000925971
0.000925951
0.000926012
0.000926012
0.000926011
0.000925998
0.000926124
0.000926157
0.000926157
0.000926155
0.000926168
0.000926168
0.000926317
0.000926317
0.000926317
0.000926314
0.000926432
0.000926432
0.000926552
0.000926658
0.000926658
0.000926657
0.000926798
0.00092695
0.00092695
0.00092695
0.000927074
0.000927272
0.000927456
0.000927568
0.000927599
0.00092769
0.000927907
0.000928045
0.000928178
0.000928372
0.000928631
0.000928732
0.000928876
0.0009291
0.000929408
0.000929679
0.000930016
0.000930365
0.000930758
0.000931145
0.000931698
0.000932233
0.000932947
0.000933658
0.000934821
0.000935642
0.000938285
0.000938721
0.000953553
0.00102055
0.00246102
0.00102452
0.000980122
0.000960486
0.000950008
0.000943554
0.000939289
0.000936271
0.000934097
0.000932448
0.000931202
0.000930215
0.000929447
0.000928818
0.000928318
0.0009279
0.000927565
0.000927268
0.000927032
0.000926832
0.00092667
0.000926512
0.000926391
0.000926285
0.000926201
0.000926094
0.00092603
0.000925976
0.000925933
0.000925872
0.000925843
0.000925819
0.000925789
0.00092571
0.000925732
0.000925732
0.000925728
0.000925691
0.000925714
0.000925714
0.000925713
0.000925692
0.000925753
0.000925753
0.000925752
0.000925739
0.000925865
0.000925898
0.000925898
0.000925896
0.000925909
0.000925909
0.000926058
0.000926058
0.000926058
0.000926055
0.000926173
0.000926173
0.000926294
0.0009264
0.0009264
0.000926398
0.000926539
0.000926691
0.000926692
0.000926692
0.000926816
0.000927014
0.000927199
0.000927311
0.000927343
0.000927433
0.00092765
0.000927789
0.000927922
0.000928116
0.000928375
0.000928477
0.000928622
0.000928846
0.000929154
0.000929426
0.000929762
0.000930112
0.000930505
0.000930892
0.000931446
0.000931981
0.000932697
0.000933407
0.000934571
0.000935392
0.000938036
0.000938466
0.000953387
0.0010205
0.00246505
0.00102449
0.00098
0.000960298
0.000949778
0.000943296
0.00093901
0.000935976
0.00093379
0.000932131
0.000930879
0.000929885
0.000929112
0.000928479
0.000927976
0.000927554
0.000927217
0.000926918
0.00092668
0.000926479
0.000926315
0.000926156
0.000926034
0.000925927
0.000925842
0.000925735
0.000925669
0.000925615
0.000925572
0.00092551
0.000925481
0.000925456
0.000925426
0.000925346
0.000925368
0.000925368
0.000925364
0.000925327
0.000925349
0.000925349
0.000925348
0.000925327
0.000925388
0.000925388
0.000925387
0.000925373
0.0009255
0.000925532
0.000925532
0.00092553
0.000925543
0.000925543
0.000925693
0.000925693
0.000925693
0.00092569
0.000925808
0.000925808
0.000925928
0.000926035
0.000926035
0.000926034
0.000926175
0.000926327
0.000926329
0.000926329
0.000926452
0.000926651
0.000926835
0.000926948
0.000926982
0.000927071
0.000927288
0.000927428
0.000927561
0.000927755
0.000928015
0.000928117
0.000928263
0.000928487
0.000928795
0.000929067
0.000929405
0.000929754
0.000930149
0.000930536
0.000931091
0.000931626
0.000932343
0.000933053
0.000934219
0.000935038
0.000937685
0.000938106
0.00095315
0.00102043
0.00246986
0.00102446
0.000979842
0.000960056
0.000949481
0.000942961
0.000938649
0.000935595
0.000933393
0.000931722
0.000930459
0.000929458
0.000928678
0.000928039
0.000927532
0.000927107
0.000926766
0.000926464
0.000926224
0.00092602
0.000925855
0.000925694
0.000925571
0.000925463
0.000925377
0.000925268
0.000925202
0.000925147
0.000925103
0.000925041
0.000925011
0.000924986
0.000924956
0.000924875
0.000924897
0.000924897
0.000924892
0.000924855
0.000924876
0.000924876
0.000924875
0.000924854
0.000924914
0.000924914
0.000924914
0.000924899
0.000925026
0.000925058
0.000925058
0.000925056
0.000925069
0.000925069
0.000925219
0.000925219
0.000925219
0.000925216
0.000925335
0.000925336
0.000925455
0.000925562
0.000925562
0.000925561
0.000925702
0.000925855
0.000925857
0.000925857
0.000925981
0.000926179
0.000926364
0.000926478
0.000926513
0.000926602
0.000926818
0.000926959
0.000927093
0.000927286
0.000927547
0.000927651
0.000927797
0.000928021
0.00092833
0.000928603
0.000928941
0.000929291
0.000929687
0.000930074
0.00093063
0.000931166
0.000931884
0.000932593
0.000933761
0.00093458
0.000937229
0.000937639
0.00095284
0.0010203
0.00247538
0.00102441
0.000979647
0.000959758
0.000949116
0.00094255
0.000938204
0.000935125
0.000932904
0.000931217
0.000929943
0.000928931
0.000928143
0.000927498
0.000926985
0.000926555
0.00092621
0.000925905
0.000925662
0.000925455
0.000925288
0.000925125
0.000925
0.00092489
0.000924803
0.000924694
0.000924626
0.00092457
0.000924525
0.000924463
0.000924432
0.000924407
0.000924376
0.000924295
0.000924316
0.000924315
0.00092431
0.000924273
0.000924294
0.000924294
0.000924293
0.00092427
0.000924331
0.000924331
0.00092433
0.000924315
0.000924442
0.000924474
0.000924474
0.000924472
0.000924485
0.000924485
0.000924635
0.000924635
0.000924635
0.000924632
0.000924751
0.000924753
0.000924871
0.000924979
0.000924979
0.000924978
0.000925118
0.000925273
0.000925276
0.000925276
0.0009254
0.000925598
0.000925784
0.000925898
0.000925936
0.000926024
0.00092624
0.000926381
0.000926516
0.000926709
0.000926971
0.000927076
0.000927223
0.000927447
0.000927757
0.00092803
0.000928369
0.000928719
0.000929116
0.000929505
0.000930062
0.000930597
0.000931318
0.000932026
0.000933197
0.000934014
0.000936667
0.000937063
0.000952457
0.00102011
0.00248142
0.00102436
0.000979416
0.000959403
0.000948681
0.00094206
0.000937674
0.000934565
0.00093232
0.000930616
0.000929327
0.000928304
0.000927506
0.000926853
0.000926333
0.000925897
0.000925547
0.000925238
0.000924992
0.000924782
0.000924612
0.000924447
0.000924319
0.000924208
0.000924119
0.000924008
0.00092394
0.000923883
0.000923837
0.000923773
0.000923742
0.000923716
0.000923684
0.000923603
0.000923623
0.000923622
0.000923617
0.000923578
0.000923599
0.000923599
0.000923598
0.000923575
0.000923635
0.000923635
0.000923634
0.000923619
0.000923745
0.000923777
0.000923777
0.000923775
0.000923788
0.000923788
0.000923938
0.000923938
0.000923939
0.000923935
0.000924055
0.000924058
0.000924175
0.000924284
0.000924284
0.000924283
0.000924423
0.000924579
0.000924583
0.000924583
0.000924706
0.000924904
0.000925091
0.000925206
0.000925247
0.000925334
0.000925549
0.000925692
0.000925828
0.000926021
0.000926283
0.00092639
0.000926539
0.000926762
0.000927073
0.000927346
0.000927686
0.000928038
0.000928436
0.000928825
0.000929384
0.00092992
0.000930642
0.00093135
0.000932524
0.00093334
0.000935996
0.000936375
0.000952001
0.00101983
0.00248769
0.0010243
0.000979149
0.000958992
0.000948176
0.00094149
0.000937057
0.000933913
0.000931642
0.000929917
0.00092861
0.000927573
0.000926765
0.000926102
0.000925574
0.000925132
0.000924776
0.000924462
0.000924211
0.000923998
0.000923825
0.000923657
0.000923527
0.000923414
0.000923323
0.000923211
0.00092314
0.000923082
0.000923035
0.000922971
0.000922938
0.000922911
0.000922879
0.000922797
0.000922816
0.000922815
0.000922809
0.00092277
0.00092279
0.00092279
0.000922789
0.000922765
0.000922825
0.000922824
0.000922823
0.000922808
0.000922934
0.000922966
0.000922966
0.000922964
0.000922977
0.000922977
0.000923128
0.000923128
0.000923128
0.000923125
0.000923245
0.000923248
0.000923365
0.000923474
0.000923474
0.000923473
0.000923613
0.000923771
0.000923776
0.000923776
0.000923899
0.000924097
0.000924285
0.000924401
0.000924445
0.000924531
0.000924745
0.000924889
0.000925026
0.000925219
0.000925482
0.000925592
0.000925742
0.000925965
0.000926276
0.00092655
0.000926892
0.000927244
0.000927644
0.000928034
0.000928594
0.00092913
0.000929856
0.000930561
0.00093174
0.000932553
0.000935214
0.000935574
0.000951472
0.00101944
0.00249375
0.00102424
0.000978845
0.000958524
0.0009476
0.00094084
0.000936354
0.00093317
0.000930868
0.000929118
0.000927792
0.000926739
0.000925917
0.000925243
0.000924707
0.000924256
0.000923894
0.000923575
0.000923319
0.000923102
0.000922925
0.000922754
0.000922622
0.000922505
0.000922413
0.000922298
0.000922226
0.000922167
0.000922118
0.000922053
0.000922019
0.000921991
0.000921958
0.000921875
0.000921893
0.000921892
0.000921886
0.000921846
0.000921865
0.000921865
0.000921863
0.000921839
0.000921898
0.000921898
0.000921897
0.00092188
0.000922007
0.000922039
0.000922039
0.000922037
0.000922049
0.000922049
0.0009222
0.0009222
0.0009222
0.000922197
0.000922319
0.000922323
0.000922438
0.000922548
0.000922548
0.000922547
0.000922687
0.000922847
0.000922853
0.000922853
0.000922976
0.000923174
0.000923363
0.00092348
0.000923527
0.000923612
0.000923826
0.000923971
0.000924109
0.000924302
0.000924567
0.000924678
0.000924829
0.000925052
0.000925365
0.00092564
0.000925982
0.000926335
0.000926738
0.000927128
0.00092769
0.000928227
0.000928955
0.00092966
0.000930842
0.000931654
0.000934319
0.000934657
0.000950867
0.00101895
0.00249897
0.00102416
0.000978505
0.000957998
0.000946952
0.000940109
0.000935562
0.000932332
0.000929995
0.000928217
0.000926869
0.000925798
0.000924962
0.000924276
0.000923729
0.00092327
0.000922901
0.000922575
0.000922314
0.000922091
0.000921911
0.000921736
0.0009216
0.000921481
0.000921386
0.00092127
0.000921196
0.000921134
0.000921084
0.000921017
0.000920983
0.000920953
0.00092092
0.000920836
0.000920852
0.000920852
0.000920845
0.000920804
0.000920822
0.000920822
0.00092082
0.000920794
0.000920853
0.000920852
0.000920851
0.000920834
0.000920961
0.000920993
0.000920993
0.000920991
0.000921003
0.000921003
0.000921154
0.000921154
0.000921154
0.000921151
0.000921273
0.000921279
0.000921393
0.000921504
0.000921504
0.000921503
0.000921643
0.000921804
0.000921812
0.000921812
0.000921935
0.000922132
0.000922322
0.000922441
0.000922491
0.000922576
0.000922789
0.000922935
0.000923075
0.000923267
0.000923533
0.000923647
0.0009238
0.000924023
0.000924336
0.000924612
0.000924957
0.00092531
0.000925716
0.000926106
0.000926671
0.000927208
0.000927939
0.000928642
0.000929829
0.000930638
0.000933309
0.000933622
0.000950187
0.00101834
0.00250248
0.00102408
0.000978128
0.000957414
0.000946232
0.000939295
0.00093468
0.000931399
0.000929023
0.000927214
0.000925841
0.00092475
0.000923897
0.000923197
0.000922639
0.00092217
0.000921792
0.00092146
0.000921192
0.000920965
0.000920779
0.000920601
0.000920461
0.000920339
0.000920242
0.000920123
0.000920046
0.000919983
0.000919931
0.000919863
0.000919827
0.000919796
0.000919762
0.000919677
0.000919692
0.000919691
0.000919683
0.000919641
0.000919659
0.000919659
0.000919656
0.000919629
0.000919687
0.000919687
0.000919686
0.000919668
0.000919794
0.000919826
0.000919826
0.000919824
0.000919836
0.000919836
0.000919988
0.000919988
0.000919988
0.000919984
0.000920108
0.000920115
0.000920227
0.000920339
0.000920339
0.000920338
0.000920478
0.000920641
0.000920651
0.000920651
0.000920773
0.00092097
0.000921162
0.000921282
0.000921336
0.00092142
0.000921632
0.00092178
0.000921921
0.000922113
0.00092238
0.000922498
0.000922652
0.000922875
0.000923189
0.000923466
0.000923812
0.000924166
0.000924575
0.000924966
0.000925533
0.00092607
0.000926806
0.000927506
0.000928698
0.000929504
0.000932181
0.000932467
0.000949429
0.00101762
0.00250312
0.00102399
0.000977715
0.000956772
0.00094544
0.000938398
0.000933708
0.00093037
0.00092795
0.000926107
0.000924707
0.000923593
0.000922722
0.000922006
0.000921435
0.000920955
0.000920568
0.000920228
0.000919953
0.00091972
0.000919529
0.000919346
0.000919203
0.000919077
0.000918977
0.000918855
0.000918776
0.00091871
0.000918657
0.000918587
0.000918549
0.000918517
0.000918482
0.000918396
0.000918409
0.000918408
0.000918399
0.000918357
0.000918373
0.000918373
0.00091837
0.000918341
0.000918399
0.000918398
0.000918397
0.000918378
0.000918505
0.000918536
0.000918536
0.000918534
0.000918546
0.000918546
0.000918698
0.000918698
0.000918698
0.000918695
0.000918819
0.000918828
0.000918938
0.000919052
0.000919052
0.000919051
0.00091919
0.000919355
0.000919367
0.000919367
0.000919489
0.000919686
0.000919879
0.000920001
0.000920059
0.000920141
0.000920353
0.000920503
0.000920645
0.000920837
0.000921106
0.000921226
0.000921383
0.000921606
0.000921921
0.000922199
0.000922547
0.000922902
0.000923313
0.000923705
0.000924274
0.000924812
0.000925552
0.00092625
0.000927447
0.00092825
0.000930933
0.00093119
0.000948592
0.00101678
0.00250093
0.0010239
0.000977266
0.000956072
0.000944574
0.000937417
0.000932644
0.000929244
0.000926775
0.000924894
0.000923463
0.000922325
0.000921433
0.000920701
0.000920115
0.000919624
0.000919227
0.000918877
0.000918595
0.000918355
0.000918159
0.000917971
0.000917823
0.000917693
0.00091759
0.000917465
0.000917384
0.000917315
0.00091726
0.000917188
0.000917149
0.000917115
0.000917079
0.000916991
0.000917003
0.000917001
0.000916992
0.000916948
0.000916963
0.000916963
0.000916959
0.000916929
0.000916986
0.000916985
0.000916984
0.000916964
0.000917091
0.000917122
0.000917122
0.00091712
0.000917131
0.000917131
0.000917284
0.000917284
0.000917284
0.000917281
0.000917406
0.000917416
0.000917524
0.00091764
0.000917639
0.000917639
0.000917777
0.000917945
0.000917959
0.000917959
0.000918081
0.000918277
0.000918471
0.000918595
0.000918658
0.00091874
0.00091895
0.000919101
0.000919246
0.000919438
0.000919708
0.000919831
0.000919991
0.000920213
0.000920529
0.000920809
0.000921158
0.000921514
0.000921929
0.000922322
0.000922894
0.000923432
0.000924175
0.000924871
0.000926074
0.000926874
0.000929563
0.000929788
0.000947674
0.00101583
0.00249589
0.0010238
0.000976781
0.000955314
0.000943634
0.000936352
0.000931487
0.000928019
0.000925498
0.000923575
0.000922111
0.000920945
0.000920031
0.00091928
0.000918679
0.000918174
0.000917765
0.000917406
0.000917116
0.000916869
0.000916666
0.000916473
0.00091632
0.000916186
0.000916078
0.000915951
0.000915866
0.000915795
0.000915738
0.000915664
0.000915622
0.000915587
0.00091555
0.000915461
0.000915471
0.000915468
0.000915458
0.000915413
0.000915427
0.000915426
0.000915422
0.000915391
0.000915446
0.000915446
0.000915444
0.000915424
0.00091555
0.00091558
0.000915581
0.000915578
0.00091559
0.00091559
0.000915742
0.000915743
0.000915743
0.000915739
0.000915865
0.000915878
0.000915983
0.000916101
0.0009161
0.0009161
0.000916238
0.000916408
0.000916425
0.000916425
0.000916546
0.000916741
0.000916938
0.000917063
0.000917131
0.000917212
0.000917421
0.000917574
0.00091772
0.000917912
0.000918184
0.000918311
0.000918473
0.000918695
0.000919012
0.000919293
0.000919645
0.000920002
0.00092042
0.000920814
0.000921388
0.000921926
0.000922675
0.000923368
0.000924577
0.000925373
0.000928069
0.00092826
0.000946673
0.00101477
0.00248804
0.00102369
0.000976261
0.000954497
0.00094262
0.000935202
0.000930238
0.000926695
0.000924116
0.000922147
0.000920646
0.000919451
0.000918512
0.000917741
0.000917123
0.000916604
0.000916183
0.000915814
0.000915514
0.000915258
0.000915049
0.00091485
0.000914692
0.000914553
0.000914442
0.000914311
0.000914223
0.000914148
0.000914088
0.000914012
0.000913969
0.000913931
0.000913893
0.000913803
0.000913811
0.000913808
0.000913796
0.00091375
0.000913762
0.000913762
0.000913757
0.000913723
0.000913778
0.000913777
0.000913776
0.000913754
0.00091388
0.00091391
0.00091391
0.000913908
0.00091392
0.000913919
0.000914072
0.000914073
0.000914073
0.000914069
0.000914196
0.000914211
0.000914314
0.000914433
0.000914433
0.000914432
0.00091457
0.000914742
0.000914762
0.000914762
0.000914883
0.000915077
0.000915275
0.000915402
0.000915475
0.000915556
0.000915764
0.000915919
0.000916067
0.000916259
0.000916532
0.000916663
0.000916827
0.000917049
0.000917368
0.00091765
0.000918004
0.000918362
0.000918784
0.000919178
0.000919756
0.000920294
0.000921048
0.000921737
0.000922953
0.000923745
0.000926447
0.000926602
0.000945586
0.00101357
0.00247742
0.00102358
0.000975705
0.000953622
0.000941532
0.000933966
0.000928894
0.00092527
0.000922628
0.00092061
0.00091907
0.000917843
0.000916877
0.000916084
0.000915447
0.000914912
0.000914478
0.000914097
0.000913787
0.000913523
0.000913306
0.0009131
0.000912937
0.000912793
0.000912677
0.000912542
0.000912451
0.000912373
0.00091231
0.000912232
0.000912186
0.000912146
0.000912107
0.000912016
0.000912021
0.000912017
0.000912004
0.000911957
0.000911967
0.000911967
0.000911961
0.000911926
0.000911979
0.000911978
0.000911977
0.000911954
0.000912079
0.00091211
0.00091211
0.000912107
0.000912119
0.000912118
0.000912271
0.000912272
0.000912272
0.000912268
0.000912396
0.000912414
0.000912513
0.000912634
0.000912634
0.000912633
0.000912771
0.000912945
0.000912969
0.000912969
0.000913089
0.000913283
0.000913483
0.000913612
0.00091369
0.00091377
0.000913977
0.000914134
0.000914284
0.000914475
0.00091475
0.000914885
0.000915053
0.000915274
0.000915595
0.000915878
0.000916234
0.000916592
0.000917019
0.000917414
0.000917995
0.000918533
0.000919291
0.000919978
0.0009212
0.000921988
0.000924696
0.000924814
0.00094441
0.00101226
0.0024641
0.00102347
0.000975115
0.000952688
0.000940369
0.000932643
0.000927455
0.000923744
0.000921034
0.000918963
0.000917379
0.000916117
0.000915123
0.000914306
0.000913649
0.000913097
0.000912648
0.000912255
0.000911934
0.000911661
0.000911436
0.000911223
0.000911053
0.000910903
0.000910783
0.000910644
0.000910548
0.000910467
0.000910401
0.00091032
0.000910272
0.00091023
0.000910189
0.000910097
0.000910099
0.000910094
0.00091008
0.000910031
0.000910041
0.00091004
0.000910033
0.000909996
0.000910047
0.000910047
0.000910045
0.000910021
0.000910146
0.000910176
0.000910176
0.000910174
0.000910185
0.000910183
0.000910337
0.000910338
0.000910338
0.000910334
0.000910464
0.000910484
0.00091058
0.000910703
0.000910703
0.000910702
0.000910839
0.000911016
0.000911043
0.000911043
0.000911163
0.000911356
0.000911557
0.000911688
0.000911772
0.000911851
0.000912057
0.000912216
0.000912369
0.00091256
0.000912836
0.000912976
0.000913146
0.000913368
0.000913689
0.000913974
0.000914333
0.000914692
0.000915122
0.000915518
0.000916102
0.000916641
0.000917404
0.000918088
0.000919316
0.0009201
0.000922814
0.000922892
0.000943142
0.00101082
0.00244813
0.00102335
0.000974491
0.000951697
0.000939131
0.000931234
0.000925921
0.000922116
0.000919333
0.000917204
0.000915574
0.000914274
0.000913249
0.000912406
0.000911727
0.000911157
0.000910692
0.000910286
0.000909954
0.00090967
0.000909436
0.000909216
0.000909039
0.000908883
0.000908757
0.000908614
0.000908514
0.000908429
0.00090836
0.000908276
0.000908225
0.00090818
0.000908139
0.000908044
0.000908045
0.000908038
0.000908022
0.000907973
0.00090798
0.000907979
0.000907971
0.000907932
0.000907981
0.000907981
0.00090798
0.000907953
0.000908078
0.000908108
0.000908108
0.000908106
0.000908116
0.000908115
0.000908268
0.000908269
0.000908269
0.000908266
0.000908396
0.000908419
0.000908512
0.000908637
0.000908637
0.000908636
0.000908772
0.000908952
0.000908983
0.000908983
0.000909102
0.000909294
0.000909498
0.00090963
0.00090972
0.000909799
0.000910004
0.000910165
0.00091032
0.00091051
0.000910789
0.000910932
0.000911106
0.000911327
0.000911651
0.000911936
0.000912298
0.000912658
0.000913093
0.000913489
0.000914077
0.000914615
0.000915384
0.000916064
0.000917299
0.000918077
0.000920798
0.000920835
0.000941777
0.00100924
0.0024296
0.00102322
0.000973834
0.000950649
0.000937819
0.000929738
0.000924291
0.000920385
0.000917523
0.000915333
0.000913653
0.000912313
0.000911254
0.000910383
0.000909681
0.00090909
0.000908609
0.000908188
0.000907843
0.000907548
0.000907305
0.000907077
0.000906892
0.00090673
0.000906599
0.000906451
0.000906346
0.000906257
0.000906185
0.000906098
0.000906044
0.000905996
0.000905953
0.000905857
0.000905854
0.000905846
0.000905829
0.000905778
0.000905784
0.000905782
0.000905773
0.000905731
0.000905779
0.000905779
0.000905777
0.000905749
0.000905874
0.000905903
0.000905903
0.000905901
0.000905911
0.000905909
0.000906063
0.000906064
0.000906064
0.00090606
0.000906192
0.000906218
0.000906307
0.000906434
0.000906434
0.000906434
0.000906569
0.000906751
0.000906787
0.000906787
0.000906905
0.000907095
0.000907301
0.000907436
0.000907532
0.000907611
0.000907814
0.000907977
0.000908134
0.000908325
0.000908605
0.000908753
0.00090893
0.000909152
0.000909476
0.000909763
0.000910127
0.000910488
0.000910927
0.000911325
0.000911916
0.000912454
0.000913229
0.000913905
0.000915146
0.00091592
0.000918645
0.000918641
0.000940312
0.00100754
0.00240858
0.0010231
0.000973144
0.000949543
0.000936433
0.000928155
0.000922565
0.00091855
0.000915605
0.000913348
0.000911615
0.000910231
0.000909136
0.000908235
0.000907508
0.000906896
0.000906397
0.00090596
0.000905602
0.000905295
0.000905042
0.000904805
0.000904613
0.000904443
0.000904306
0.000904153
0.000904043
0.000903949
0.000903873
0.000903783
0.000903726
0.000903675
0.00090363
0.000903533
0.000903527
0.000903517
0.000903499
0.000903446
0.00090345
0.000903447
0.000903437
0.000903393
0.000903439
0.000903439
0.000903437
0.000903407
0.000903531
0.00090356
0.00090356
0.000903558
0.000903568
0.000903565
0.000903719
0.00090372
0.00090372
0.000903716
0.000903849
0.000903878
0.000903963
0.000904093
0.000904093
0.000904092
0.000904227
0.000904412
0.000904452
0.000904452
0.00090457
0.000904759
0.000904967
0.000905103
0.000905206
0.000905285
0.000905487
0.000905651
0.000905811
0.000906001
0.000906283
0.000906436
0.000906617
0.000906838
0.000907164
0.000907452
0.00090782
0.000908181
0.000908625
0.000909023
0.000909618
0.000910155
0.000910936
0.000911608
0.000912856
0.000913624
0.000916354
0.000916307
0.00093874
0.00100569
0.00238518
0.00102296
0.000972422
0.000948381
0.000934972
0.000926485
0.000920742
0.000916611
0.000913576
0.000911249
0.000909458
0.000908028
0.000906895
0.000905962
0.000905208
0.000904573
0.000904054
0.000903601
0.000903229
0.000902909
0.000902645
0.000902398
0.000902197
0.00090202
0.000901877
0.000901718
0.000901603
0.000901504
0.000901424
0.00090133
0.000901269
0.000901216
0.000901169
0.00090107
0.000901061
0.000901049
0.000901029
0.000900975
0.000900977
0.000900973
0.000900962
0.000900915
0.000900959
0.000900959
0.000900957
0.000900925
0.000901048
0.000901077
0.000901077
0.000901074
0.000901084
0.000901081
0.000901235
0.000901236
0.000901236
0.000901232
0.000901365
0.000901398
0.000901479
0.000901611
0.000901612
0.000901611
0.000901745
0.000901932
0.000901978
0.000901978
0.000902095
0.000902282
0.000902492
0.00090263
0.00090274
0.000902819
0.000903019
0.000903186
0.000903348
0.000903538
0.000903822
0.000903979
0.000904164
0.000904385
0.000904713
0.000905002
0.000905372
0.000905735
0.000906183
0.000906582
0.00090718
0.000907717
0.000908504
0.000909171
0.000910426
0.000911188
0.000913923
0.000913832
0.000937057
0.00100369
0.00235951
0.00102283
0.000971669
0.000947163
0.000933437
0.000924728
0.000918822
0.000914568
0.000911437
0.000909034
0.000907183
0.000905703
0.000904529
0.000903562
0.000902779
0.00090212
0.00090158
0.000901109
0.000900721
0.000900388
0.000900112
0.000899855
0.000899645
0.00089946
0.00089931
0.000899145
0.000899024
0.00089892
0.000898836
0.000898738
0.000898674
0.000898616
0.000898567
0.000898466
0.000898454
0.00089844
0.000898418
0.000898363
0.000898363
0.000898358
0.000898345
0.000898296
0.000898338
0.000898338
0.000898336
0.000898301
0.000898424
0.000898452
0.000898452
0.000898449
0.000898458
0.000898455
0.000898609
0.00089861
0.00089861
0.000898606
0.00089874
0.000898776
0.000898852
0.000898987
0.000898988
0.000898987
0.000899121
0.00089931
0.000899362
0.000899362
0.000899477
0.000899663
0.000899875
0.000900016
0.000900132
0.000900212
0.000900411
0.000900579
0.000900744
0.000900933
0.000901218
0.000901381
0.00090157
0.000901791
0.00090212
0.000902411
0.000902784
0.000903146
0.0009036
0.000903999
0.000904602
0.000905138
0.00090593
0.000906593
0.000907854
0.00090861
0.00091135
0.000911213
0.000935255
0.00100155
0.00233167
0.0010227
0.000970886
0.00094589
0.000931829
0.000922884
0.000916805
0.00091242
0.000909188
0.000906704
0.000904788
0.000903256
0.000902037
0.000901034
0.00090022
0.000899535
0.000898973
0.000898483
0.000898079
0.000897731
0.000897443
0.000897175
0.000896955
0.000896761
0.000896603
0.000896432
0.000896305
0.000896196
0.000896107
0.000896005
0.000895936
0.000895875
0.000895824
0.000895721
0.000895706
0.000895688
0.000895665
0.000895609
0.000895606
0.0008956
0.000895586
0.000895534
0.000895574
0.000895574
0.000895571
0.000895534
0.000895656
0.000895684
0.000895683
0.000895681
0.000895689
0.000895685
0.000895839
0.00089584
0.00089584
0.000895836
0.000895971
0.000896011
0.000896082
0.00089622
0.000896221
0.00089622
0.000896353
0.000896544
0.000896603
0.000896603
0.000896717
0.0008969
0.000897114
0.000897257
0.00089738
0.000897461
0.000897658
0.000897828
0.000897996
0.000898185
0.000898472
0.000898639
0.000898832
0.000899053
0.000899384
0.000899676
0.000900052
0.000900415
0.000900873
0.000901274
0.00090188
0.000902415
0.000903213
0.000903871
0.000905138
0.000905888
0.000908632
0.000908449
0.000933328
0.000999246
0.00230178
0.00102256
0.000970074
0.000944562
0.000930148
0.000920954
0.000914691
0.000910168
0.000906827
0.000904258
0.000902273
0.000900684
0.00089942
0.000898378
0.000897531
0.000896818
0.000896233
0.000895722
0.0008953
0.000894937
0.000894635
0.000894355
0.000894126
0.000893922
0.000893756
0.000893578
0.000893445
0.000893329
0.000893235
0.000893129
0.000893056
0.000892991
0.000892938
0.000892832
0.000892813
0.000892793
0.000892769
0.000892711
0.000892706
0.000892698
0.000892682
0.000892628
0.000892665
0.000892665
0.000892661
0.000892622
0.000892743
0.00089277
0.00089277
0.000892767
0.000892775
0.00089277
0.000892923
0.000892925
0.000892925
0.000892921
0.000893056
0.0008931
0.000893166
0.000893307
0.000893308
0.000893307
0.00089344
0.000893632
0.000893698
0.000893698
0.00089381
0.000893991
0.000894208
0.000894353
0.000894482
0.000894565
0.000894761
0.000894932
0.000895103
0.000895292
0.00089558
0.000895751
0.000895949
0.00089617
0.000896503
0.000896796
0.000897175
0.000897539
0.000898002
0.000898402
0.000899012
0.000899546
0.000900351
0.000901004
0.000902276
0.000903019
0.000905767
0.000905537
0.000931268
0.000996779
0.00226999
0.00102242
0.000969235
0.000943182
0.000928394
0.000918937
0.00091248
0.00090781
0.000904355
0.000901695
0.000899637
0.000897988
0.000896674
0.000895591
0.00089471
0.000893968
0.000893357
0.000892825
0.000892384
0.000892004
0.000891688
0.000891396
0.000891155
0.000890942
0.000890768
0.000890582
0.000890442
0.00089032
0.00089022
0.000890109
0.000890032
0.000889963
0.000889906
0.000889798
0.000889776
0.000889753
0.000889726
0.000889667
0.000889659
0.00088965
0.000889633
0.000889576
0.00088961
0.00088961
0.000889606
0.000889563
0.000889683
0.00088971
0.00088971
0.000889707
0.000889715
0.000889708
0.000889861
0.000889863
0.000889863
0.000889858
0.000889995
0.000890042
0.000890102