/*--------------------------------*- C++ -*----------------------------------*\
| =========                 |                                                 |
| \\      /  F ield         | OpenFOAM: The Open Source CFD Toolbox           |
|  \\    /   O peration     | Version:  v2012                                 |
|   \\  /    A nd           | Website:  www.openfoam.com                      |
|    \\/     M anipulation  |                                                 |
\*---------------------------------------------------------------------------*/
FoamFile
{
    version     2.0;
    format      ascii;
    class       volScalarField;
    location    "10";
    object      nut;
}
// * * * * * * * * * * * * * * * * * * * * * * * * * * * * * * * * * * * * * //

dimensions      [0 2 -1 0 0 0 0];


internalField   nonuniform List<scalar> 
209825
(
1.24343e-07
1.25228e-07
1.25969e-07
1.26487e-07
1.26865e-07
1.27153e-07
1.27379e-07
1.27562e-07
1.27713e-07
1.27838e-07
1.27944e-07
1.28033e-07
1.28111e-07
1.28177e-07
1.28235e-07
1.28285e-07
1.28329e-07
1.28368e-07
1.28404e-07
1.28434e-07
1.28462e-07
1.28486e-07
1.28508e-07
1.28526e-07
1.28543e-07
1.28559e-07
1.28574e-07
1.28586e-07
1.28598e-07
1.28608e-07
1.28619e-07
1.28625e-07
1.28625e-07
1.28636e-07
1.28648e-07
1.28653e-07
1.28653e-07
1.2866e-07
1.28671e-07
1.28671e-07
1.28669e-07
1.2868e-07
1.28688e-07
1.28672e-07
1.2867e-07
1.28687e-07
1.28693e-07
1.28689e-07
1.28689e-07
1.2868e-07
1.2868e-07
1.2868e-07
1.28664e-07
1.28662e-07
1.28662e-07
1.28657e-07
1.28642e-07
1.28653e-07
1.28663e-07
1.28663e-07
1.28655e-07
1.28653e-07
1.28674e-07
1.28659e-07
1.28637e-07
1.28654e-07
1.28682e-07
1.28685e-07
1.287e-07
1.2868e-07
1.28664e-07
1.28677e-07
1.28666e-07
1.28673e-07
1.287e-07
1.28712e-07
1.28704e-07
1.28702e-07
1.28698e-07
1.28735e-07
1.28748e-07
1.28762e-07
1.28794e-07
1.2881e-07
1.28829e-07
1.28867e-07
1.28901e-07
1.28945e-07
1.28996e-07
1.29069e-07
1.29131e-07
1.2932e-07
1.2936e-07
1.30477e-07
1.35509e-07
2.10627e-08
1.24343e-07
1.25227e-07
1.25969e-07
1.26487e-07
1.26865e-07
1.27153e-07
1.27379e-07
1.27563e-07
1.27713e-07
1.27838e-07
1.27944e-07
1.28033e-07
1.28111e-07
1.28177e-07
1.28235e-07
1.28286e-07
1.2833e-07
1.28368e-07
1.28404e-07
1.28435e-07
1.28462e-07
1.28486e-07
1.28508e-07
1.28527e-07
1.28544e-07
1.28559e-07
1.28574e-07
1.28586e-07
1.28598e-07
1.28609e-07
1.28619e-07
1.28626e-07
1.28625e-07
1.28636e-07
1.28648e-07
1.28653e-07
1.28653e-07
1.28661e-07
1.28671e-07
1.28672e-07
1.2867e-07
1.2868e-07
1.28688e-07
1.28672e-07
1.2867e-07
1.28688e-07
1.28693e-07
1.28689e-07
1.28689e-07
1.2868e-07
1.2868e-07
1.2868e-07
1.28665e-07
1.28663e-07
1.28662e-07
1.28658e-07
1.28642e-07
1.28654e-07
1.28663e-07
1.28663e-07
1.28655e-07
1.28653e-07
1.28674e-07
1.2866e-07
1.28638e-07
1.28655e-07
1.28682e-07
1.28685e-07
1.28701e-07
1.28681e-07
1.28665e-07
1.28677e-07
1.28667e-07
1.28674e-07
1.28701e-07
1.28712e-07
1.28705e-07
1.28703e-07
1.28699e-07
1.28735e-07
1.28748e-07
1.28763e-07
1.28795e-07
1.28811e-07
1.2883e-07
1.28868e-07
1.28902e-07
1.28946e-07
1.28997e-07
1.2907e-07
1.29132e-07
1.29321e-07
1.29361e-07
1.3048e-07
1.35515e-07
2.16886e-08
1.24342e-07
1.25225e-07
1.25966e-07
1.26484e-07
1.26862e-07
1.2715e-07
1.27377e-07
1.2756e-07
1.2771e-07
1.27835e-07
1.27941e-07
1.28031e-07
1.28108e-07
1.28174e-07
1.28233e-07
1.28283e-07
1.28327e-07
1.28365e-07
1.28402e-07
1.28432e-07
1.2846e-07
1.28484e-07
1.28506e-07
1.28524e-07
1.28541e-07
1.28557e-07
1.28572e-07
1.28584e-07
1.28596e-07
1.28606e-07
1.28617e-07
1.28624e-07
1.28623e-07
1.28634e-07
1.28646e-07
1.28651e-07
1.28651e-07
1.28659e-07
1.28669e-07
1.2867e-07
1.28667e-07
1.28678e-07
1.28686e-07
1.2867e-07
1.28668e-07
1.28686e-07
1.28691e-07
1.28687e-07
1.28687e-07
1.28678e-07
1.28678e-07
1.28678e-07
1.28663e-07
1.2866e-07
1.2866e-07
1.28656e-07
1.2864e-07
1.28652e-07
1.28661e-07
1.28661e-07
1.28653e-07
1.28651e-07
1.28672e-07
1.28658e-07
1.28636e-07
1.28653e-07
1.2868e-07
1.28683e-07
1.28699e-07
1.28679e-07
1.28663e-07
1.28676e-07
1.28665e-07
1.28672e-07
1.28699e-07
1.2871e-07
1.28703e-07
1.28701e-07
1.28697e-07
1.28734e-07
1.28747e-07
1.28761e-07
1.28793e-07
1.28809e-07
1.28828e-07
1.28866e-07
1.28901e-07
1.28945e-07
1.28995e-07
1.29068e-07
1.29131e-07
1.2932e-07
1.29359e-07
1.30483e-07
1.35526e-07
2.24664e-08
1.24341e-07
1.25222e-07
1.25962e-07
1.2648e-07
1.26857e-07
1.27145e-07
1.27372e-07
1.27555e-07
1.27706e-07
1.27831e-07
1.27937e-07
1.28027e-07
1.28104e-07
1.2817e-07
1.28229e-07
1.28279e-07
1.28323e-07
1.28362e-07
1.28398e-07
1.28429e-07
1.28456e-07
1.2848e-07
1.28503e-07
1.28521e-07
1.28538e-07
1.28554e-07
1.28569e-07
1.28581e-07
1.28593e-07
1.28603e-07
1.28614e-07
1.28621e-07
1.2862e-07
1.28631e-07
1.28643e-07
1.28648e-07
1.28648e-07
1.28656e-07
1.28666e-07
1.28667e-07
1.28665e-07
1.28675e-07
1.28683e-07
1.28667e-07
1.28665e-07
1.28683e-07
1.28688e-07
1.28684e-07
1.28684e-07
1.28675e-07
1.28675e-07
1.28676e-07
1.2866e-07
1.28658e-07
1.28657e-07
1.28653e-07
1.28638e-07
1.28649e-07
1.28659e-07
1.28659e-07
1.2865e-07
1.28649e-07
1.2867e-07
1.28656e-07
1.28633e-07
1.2865e-07
1.28678e-07
1.28681e-07
1.28697e-07
1.28677e-07
1.28661e-07
1.28673e-07
1.28663e-07
1.2867e-07
1.28696e-07
1.28708e-07
1.28701e-07
1.28699e-07
1.28695e-07
1.28732e-07
1.28745e-07
1.28759e-07
1.28791e-07
1.28808e-07
1.28826e-07
1.28864e-07
1.28899e-07
1.28943e-07
1.28993e-07
1.29067e-07
1.29129e-07
1.29319e-07
1.29357e-07
1.30488e-07
1.35542e-07
2.33304e-08
1.24339e-07
1.25217e-07
1.25956e-07
1.26474e-07
1.26851e-07
1.27139e-07
1.27366e-07
1.2755e-07
1.277e-07
1.27826e-07
1.27932e-07
1.28021e-07
1.28099e-07
1.28165e-07
1.28224e-07
1.28274e-07
1.28319e-07
1.28357e-07
1.28393e-07
1.28424e-07
1.28452e-07
1.28476e-07
1.28498e-07
1.28517e-07
1.28534e-07
1.2855e-07
1.28565e-07
1.28577e-07
1.28589e-07
1.28599e-07
1.2861e-07
1.28617e-07
1.28616e-07
1.28627e-07
1.28639e-07
1.28644e-07
1.28644e-07
1.28652e-07
1.28663e-07
1.28663e-07
1.28661e-07
1.28671e-07
1.2868e-07
1.28664e-07
1.28662e-07
1.28679e-07
1.28685e-07
1.28681e-07
1.28681e-07
1.28672e-07
1.28672e-07
1.28672e-07
1.28656e-07
1.28655e-07
1.28654e-07
1.2865e-07
1.28635e-07
1.28646e-07
1.28656e-07
1.28656e-07
1.28647e-07
1.28646e-07
1.28667e-07
1.28653e-07
1.2863e-07
1.28647e-07
1.28675e-07
1.28678e-07
1.28694e-07
1.28674e-07
1.28658e-07
1.2867e-07
1.2866e-07
1.28667e-07
1.28694e-07
1.28706e-07
1.28699e-07
1.28697e-07
1.28693e-07
1.28729e-07
1.28742e-07
1.28757e-07
1.28789e-07
1.28805e-07
1.28824e-07
1.28862e-07
1.28897e-07
1.28941e-07
1.28991e-07
1.29065e-07
1.29127e-07
1.29317e-07
1.29355e-07
1.30496e-07
1.35564e-07
2.42685e-08
1.24337e-07
1.25211e-07
1.25949e-07
1.26466e-07
1.26844e-07
1.27132e-07
1.27359e-07
1.27542e-07
1.27693e-07
1.27819e-07
1.27925e-07
1.28015e-07
1.28093e-07
1.28159e-07
1.28218e-07
1.28269e-07
1.28313e-07
1.28351e-07
1.28388e-07
1.28419e-07
1.28447e-07
1.28471e-07
1.28493e-07
1.28512e-07
1.28529e-07
1.28545e-07
1.2856e-07
1.28572e-07
1.28584e-07
1.28595e-07
1.28606e-07
1.28612e-07
1.28612e-07
1.28623e-07
1.28635e-07
1.2864e-07
1.2864e-07
1.28648e-07
1.28658e-07
1.28659e-07
1.28657e-07
1.28667e-07
1.28675e-07
1.2866e-07
1.28658e-07
1.28675e-07
1.28681e-07
1.28677e-07
1.28677e-07
1.28668e-07
1.28668e-07
1.28668e-07
1.28653e-07
1.28651e-07
1.2865e-07
1.28646e-07
1.28631e-07
1.28642e-07
1.28652e-07
1.28652e-07
1.28643e-07
1.28642e-07
1.28663e-07
1.28649e-07
1.28627e-07
1.28644e-07
1.28671e-07
1.28675e-07
1.2869e-07
1.28671e-07
1.28655e-07
1.28667e-07
1.28657e-07
1.28664e-07
1.28691e-07
1.28702e-07
1.28696e-07
1.28694e-07
1.2869e-07
1.28726e-07
1.28739e-07
1.28754e-07
1.28786e-07
1.28803e-07
1.28822e-07
1.2886e-07
1.28894e-07
1.28939e-07
1.28989e-07
1.29063e-07
1.29125e-07
1.29315e-07
1.29352e-07
1.30505e-07
1.35591e-07
2.52781e-08
1.24334e-07
1.25204e-07
1.25941e-07
1.26457e-07
1.26835e-07
1.27123e-07
1.2735e-07
1.27534e-07
1.27685e-07
1.27811e-07
1.27917e-07
1.28007e-07
1.28085e-07
1.28152e-07
1.28211e-07
1.28262e-07
1.28306e-07
1.28345e-07
1.28381e-07
1.28412e-07
1.2844e-07
1.28465e-07
1.28487e-07
1.28506e-07
1.28523e-07
1.28539e-07
1.28554e-07
1.28566e-07
1.28578e-07
1.28589e-07
1.286e-07
1.28607e-07
1.28606e-07
1.28617e-07
1.2863e-07
1.28635e-07
1.28635e-07
1.28642e-07
1.28653e-07
1.28654e-07
1.28651e-07
1.28662e-07
1.2867e-07
1.28655e-07
1.28653e-07
1.2867e-07
1.28676e-07
1.28672e-07
1.28672e-07
1.28663e-07
1.28663e-07
1.28664e-07
1.28648e-07
1.28646e-07
1.28646e-07
1.28642e-07
1.28627e-07
1.28638e-07
1.28648e-07
1.28648e-07
1.28639e-07
1.28637e-07
1.28659e-07
1.28645e-07
1.28623e-07
1.2864e-07
1.28667e-07
1.28671e-07
1.28686e-07
1.28667e-07
1.28651e-07
1.28663e-07
1.28653e-07
1.2866e-07
1.28687e-07
1.28699e-07
1.28692e-07
1.28691e-07
1.28687e-07
1.28723e-07
1.28736e-07
1.28751e-07
1.28783e-07
1.288e-07
1.28819e-07
1.28857e-07
1.28892e-07
1.28936e-07
1.28987e-07
1.29061e-07
1.29123e-07
1.29314e-07
1.2935e-07
1.30517e-07
1.35622e-07
2.63595e-08
1.2433e-07
1.25195e-07
1.2593e-07
1.26447e-07
1.26824e-07
1.27113e-07
1.2734e-07
1.27524e-07
1.27675e-07
1.27801e-07
1.27908e-07
1.27998e-07
1.28077e-07
1.28143e-07
1.28203e-07
1.28254e-07
1.28298e-07
1.28337e-07
1.28374e-07
1.28405e-07
1.28433e-07
1.28457e-07
1.2848e-07
1.28499e-07
1.28516e-07
1.28532e-07
1.28547e-07
1.2856e-07
1.28572e-07
1.28583e-07
1.28594e-07
1.28601e-07
1.286e-07
1.28611e-07
1.28624e-07
1.28629e-07
1.28629e-07
1.28637e-07
1.28647e-07
1.28648e-07
1.28646e-07
1.28656e-07
1.28665e-07
1.28649e-07
1.28647e-07
1.28665e-07
1.2867e-07
1.28667e-07
1.28667e-07
1.28658e-07
1.28658e-07
1.28659e-07
1.28643e-07
1.28641e-07
1.28641e-07
1.28637e-07
1.28622e-07
1.28633e-07
1.28643e-07
1.28643e-07
1.28634e-07
1.28633e-07
1.28654e-07
1.28641e-07
1.28618e-07
1.28635e-07
1.28663e-07
1.28666e-07
1.28682e-07
1.28664e-07
1.28647e-07
1.28659e-07
1.28649e-07
1.28656e-07
1.28683e-07
1.28695e-07
1.28689e-07
1.28687e-07
1.28683e-07
1.28719e-07
1.28733e-07
1.28748e-07
1.28779e-07
1.28797e-07
1.28816e-07
1.28854e-07
1.28889e-07
1.28934e-07
1.28984e-07
1.29058e-07
1.29121e-07
1.29312e-07
1.29346e-07
1.30532e-07
1.35655e-07
2.75139e-08
1.24326e-07
1.25186e-07
1.25919e-07
1.26435e-07
1.26812e-07
1.27101e-07
1.27328e-07
1.27513e-07
1.27664e-07
1.27791e-07
1.27898e-07
1.27988e-07
1.28067e-07
1.28134e-07
1.28193e-07
1.28244e-07
1.28289e-07
1.28328e-07
1.28365e-07
1.28397e-07
1.28425e-07
1.28449e-07
1.28472e-07
1.28491e-07
1.28509e-07
1.28525e-07
1.2854e-07
1.28552e-07
1.28565e-07
1.28576e-07
1.28587e-07
1.28594e-07
1.28593e-07
1.28604e-07
1.28617e-07
1.28622e-07
1.28622e-07
1.2863e-07
1.28641e-07
1.28641e-07
1.28639e-07
1.2865e-07
1.28659e-07
1.28643e-07
1.28641e-07
1.28659e-07
1.28664e-07
1.28661e-07
1.28661e-07
1.28652e-07
1.28652e-07
1.28653e-07
1.28637e-07
1.28635e-07
1.28635e-07
1.28631e-07
1.28616e-07
1.28627e-07
1.28637e-07
1.28637e-07
1.28629e-07
1.28627e-07
1.28649e-07
1.28636e-07
1.28613e-07
1.2863e-07
1.28658e-07
1.28661e-07
1.28677e-07
1.28659e-07
1.28643e-07
1.28655e-07
1.28645e-07
1.28652e-07
1.28678e-07
1.28691e-07
1.28685e-07
1.28683e-07
1.28679e-07
1.28715e-07
1.28729e-07
1.28744e-07
1.28776e-07
1.28793e-07
1.28812e-07
1.28851e-07
1.28886e-07
1.28931e-07
1.28981e-07
1.29056e-07
1.29118e-07
1.2931e-07
1.29343e-07
1.3055e-07
1.35689e-07
2.87419e-08
1.24321e-07
1.25174e-07
1.25906e-07
1.26421e-07
1.26799e-07
1.27087e-07
1.27315e-07
1.275e-07
1.27652e-07
1.27778e-07
1.27886e-07
1.27977e-07
1.28056e-07
1.28123e-07
1.28183e-07
1.28234e-07
1.28279e-07
1.28319e-07
1.28356e-07
1.28387e-07
1.28416e-07
1.2844e-07
1.28463e-07
1.28483e-07
1.285e-07
1.28516e-07
1.28532e-07
1.28544e-07
1.28557e-07
1.28568e-07
1.28579e-07
1.28586e-07
1.28586e-07
1.28597e-07
1.2861e-07
1.28615e-07
1.28615e-07
1.28623e-07
1.28633e-07
1.28634e-07
1.28632e-07
1.28643e-07
1.28652e-07
1.28636e-07
1.28634e-07
1.28652e-07
1.28657e-07
1.28654e-07
1.28654e-07
1.28646e-07
1.28646e-07
1.28646e-07
1.28631e-07
1.28629e-07
1.28629e-07
1.28625e-07
1.2861e-07
1.28621e-07
1.28631e-07
1.28632e-07
1.28623e-07
1.28621e-07
1.28643e-07
1.2863e-07
1.28607e-07
1.28624e-07
1.28652e-07
1.28656e-07
1.28672e-07
1.28654e-07
1.28638e-07
1.2865e-07
1.2864e-07
1.28647e-07
1.28673e-07
1.28686e-07
1.2868e-07
1.28679e-07
1.28675e-07
1.2871e-07
1.28724e-07
1.2874e-07
1.28771e-07
1.2879e-07
1.28809e-07
1.28847e-07
1.28882e-07
1.28928e-07
1.28978e-07
1.29053e-07
1.29115e-07
1.29308e-07
1.29339e-07
1.30571e-07
1.35725e-07
3.00433e-08
1.24316e-07
1.25162e-07
1.25891e-07
1.26406e-07
1.26783e-07
1.27072e-07
1.273e-07
1.27485e-07
1.27638e-07
1.27765e-07
1.27873e-07
1.27964e-07
1.28043e-07
1.28111e-07
1.28171e-07
1.28223e-07
1.28268e-07
1.28308e-07
1.28345e-07
1.28377e-07
1.28405e-07
1.2843e-07
1.28453e-07
1.28473e-07
1.28491e-07
1.28507e-07
1.28523e-07
1.28535e-07
1.28548e-07
1.28559e-07
1.2857e-07
1.28577e-07
1.28577e-07
1.28588e-07
1.28601e-07
1.28607e-07
1.28607e-07
1.28614e-07
1.28625e-07
1.28626e-07
1.28624e-07
1.28635e-07
1.28644e-07
1.28629e-07
1.28627e-07
1.28644e-07
1.2865e-07
1.28646e-07
1.28647e-07
1.28639e-07
1.28639e-07
1.28639e-07
1.28624e-07
1.28622e-07
1.28622e-07
1.28618e-07
1.28604e-07
1.28615e-07
1.28625e-07
1.28625e-07
1.28616e-07
1.28614e-07
1.28637e-07
1.28624e-07
1.28601e-07
1.28618e-07
1.28646e-07
1.2865e-07
1.28666e-07
1.28649e-07
1.28632e-07
1.28644e-07
1.28635e-07
1.28641e-07
1.28668e-07
1.28681e-07
1.28675e-07
1.28674e-07
1.2867e-07
1.28705e-07
1.2872e-07
1.28735e-07
1.28767e-07
1.28785e-07
1.28805e-07
1.28843e-07
1.28879e-07
1.28924e-07
1.28975e-07
1.2905e-07
1.29112e-07
1.29305e-07
1.29335e-07
1.30594e-07
1.35762e-07
3.14162e-08
1.24311e-07
1.25148e-07
1.25874e-07
1.26388e-07
1.26766e-07
1.27055e-07
1.27284e-07
1.27469e-07
1.27622e-07
1.2775e-07
1.27858e-07
1.2795e-07
1.28029e-07
1.28097e-07
1.28158e-07
1.2821e-07
1.28256e-07
1.28296e-07
1.28333e-07
1.28365e-07
1.28394e-07
1.28419e-07
1.28443e-07
1.28462e-07
1.2848e-07
1.28497e-07
1.28512e-07
1.28525e-07
1.28538e-07
1.28549e-07
1.28561e-07
1.28568e-07
1.28568e-07
1.28579e-07
1.28592e-07
1.28598e-07
1.28598e-07
1.28606e-07
1.28617e-07
1.28618e-07
1.28615e-07
1.28626e-07
1.28635e-07
1.28621e-07
1.28618e-07
1.28636e-07
1.28641e-07
1.28638e-07
1.28639e-07
1.28631e-07
1.28631e-07
1.28632e-07
1.28616e-07
1.28615e-07
1.28614e-07
1.28611e-07
1.28597e-07
1.28607e-07
1.28618e-07
1.28618e-07
1.28609e-07
1.28607e-07
1.28629e-07
1.28618e-07
1.28594e-07
1.28611e-07
1.28639e-07
1.28643e-07
1.2866e-07
1.28643e-07
1.28626e-07
1.28638e-07
1.28629e-07
1.28635e-07
1.28662e-07
1.28675e-07
1.2867e-07
1.28669e-07
1.28665e-07
1.287e-07
1.28715e-07
1.2873e-07
1.28762e-07
1.28781e-07
1.288e-07
1.28839e-07
1.28875e-07
1.2892e-07
1.28971e-07
1.29047e-07
1.29109e-07
1.29303e-07
1.2933e-07
1.30621e-07
1.358e-07
3.28562e-08
1.24305e-07
1.25133e-07
1.25856e-07
1.2637e-07
1.26747e-07
1.27037e-07
1.27266e-07
1.27452e-07
1.27605e-07
1.27733e-07
1.27842e-07
1.27934e-07
1.28014e-07
1.28083e-07
1.28144e-07
1.28196e-07
1.28242e-07
1.28282e-07
1.2832e-07
1.28353e-07
1.28382e-07
1.28407e-07
1.28431e-07
1.28451e-07
1.28469e-07
1.28485e-07
1.28501e-07
1.28514e-07
1.28527e-07
1.28539e-07
1.2855e-07
1.28558e-07
1.28558e-07
1.28569e-07
1.28582e-07
1.28588e-07
1.28588e-07
1.28596e-07
1.28607e-07
1.28608e-07
1.28606e-07
1.28617e-07
1.28626e-07
1.28612e-07
1.28609e-07
1.28627e-07
1.28632e-07
1.28629e-07
1.2863e-07
1.28622e-07
1.28622e-07
1.28623e-07
1.28608e-07
1.28606e-07
1.28606e-07
1.28603e-07
1.28589e-07
1.28599e-07
1.2861e-07
1.2861e-07
1.28601e-07
1.28599e-07
1.28622e-07
1.28611e-07
1.28587e-07
1.28604e-07
1.28631e-07
1.28636e-07
1.28653e-07
1.28637e-07
1.2862e-07
1.28631e-07
1.28622e-07
1.28629e-07
1.28656e-07
1.28669e-07
1.28664e-07
1.28664e-07
1.28659e-07
1.28694e-07
1.28709e-07
1.28725e-07
1.28757e-07
1.28776e-07
1.28796e-07
1.28835e-07
1.2887e-07
1.28916e-07
1.28967e-07
1.29043e-07
1.29105e-07
1.293e-07
1.29325e-07
1.3065e-07
1.35839e-07
3.43669e-08
1.24298e-07
1.25117e-07
1.25836e-07
1.26349e-07
1.26727e-07
1.27016e-07
1.27246e-07
1.27433e-07
1.27587e-07
1.27715e-07
1.27825e-07
1.27917e-07
1.27998e-07
1.28067e-07
1.28128e-07
1.28181e-07
1.28227e-07
1.28268e-07
1.28306e-07
1.28339e-07
1.28368e-07
1.28394e-07
1.28418e-07
1.28438e-07
1.28456e-07
1.28473e-07
1.28489e-07
1.28502e-07
1.28516e-07
1.28527e-07
1.28539e-07
1.28547e-07
1.28547e-07
1.28558e-07
1.28571e-07
1.28577e-07
1.28578e-07
1.28585e-07
1.28596e-07
1.28598e-07
1.28595e-07
1.28606e-07
1.28616e-07
1.28602e-07
1.28599e-07
1.28617e-07
1.28622e-07
1.2862e-07
1.2862e-07
1.28613e-07
1.28613e-07
1.28614e-07
1.28599e-07
1.28597e-07
1.28597e-07
1.28594e-07
1.2858e-07
1.28591e-07
1.28601e-07
1.28601e-07
1.28592e-07
1.2859e-07
1.28613e-07
1.28603e-07
1.28579e-07
1.28596e-07
1.28623e-07
1.28628e-07
1.28645e-07
1.2863e-07
1.28613e-07
1.28624e-07
1.28615e-07
1.28622e-07
1.28649e-07
1.28662e-07
1.28658e-07
1.28658e-07
1.28653e-07
1.28688e-07
1.28703e-07
1.28719e-07
1.28751e-07
1.28771e-07
1.2879e-07
1.2883e-07
1.28865e-07
1.28912e-07
1.28962e-07
1.2904e-07
1.29101e-07
1.29297e-07
1.2932e-07
1.30683e-07
1.3588e-07
3.59519e-08
1.24291e-07
1.25099e-07
1.25815e-07
1.26327e-07
1.26704e-07
1.26995e-07
1.27225e-07
1.27412e-07
1.27566e-07
1.27696e-07
1.27806e-07
1.27899e-07
1.2798e-07
1.28049e-07
1.28111e-07
1.28164e-07
1.28211e-07
1.28252e-07
1.28291e-07
1.28324e-07
1.28354e-07
1.2838e-07
1.28404e-07
1.28424e-07
1.28443e-07
1.2846e-07
1.28476e-07
1.28489e-07
1.28503e-07
1.28515e-07
1.28527e-07
1.28535e-07
1.28535e-07
1.28546e-07
1.2856e-07
1.28566e-07
1.28566e-07
1.28574e-07
1.28585e-07
1.28587e-07
1.28584e-07
1.28595e-07
1.28605e-07
1.28591e-07
1.28589e-07
1.28606e-07
1.28612e-07
1.28609e-07
1.2861e-07
1.28603e-07
1.28603e-07
1.28604e-07
1.28589e-07
1.28588e-07
1.28587e-07
1.28584e-07
1.28571e-07
1.28582e-07
1.28592e-07
1.28592e-07
1.28583e-07
1.28581e-07
1.28604e-07
1.28595e-07
1.2857e-07
1.28587e-07
1.28615e-07
1.2862e-07
1.28637e-07
1.28623e-07
1.28606e-07
1.28616e-07
1.28608e-07
1.28614e-07
1.28641e-07
1.28655e-07
1.28651e-07
1.28651e-07
1.28647e-07
1.28681e-07
1.28697e-07
1.28713e-07
1.28745e-07
1.28765e-07
1.28785e-07
1.28825e-07
1.2886e-07
1.28907e-07
1.28958e-07
1.29036e-07
1.29097e-07
1.29294e-07
1.29314e-07
1.30718e-07
1.35922e-07
3.7615e-08
1.24283e-07
1.2508e-07
1.25792e-07
1.26303e-07
1.2668e-07
1.26971e-07
1.27202e-07
1.27389e-07
1.27545e-07
1.27674e-07
1.27785e-07
1.27879e-07
1.27961e-07
1.2803e-07
1.28093e-07
1.28147e-07
1.28194e-07
1.28235e-07
1.28274e-07
1.28308e-07
1.28338e-07
1.28364e-07
1.28389e-07
1.28409e-07
1.28428e-07
1.28445e-07
1.28462e-07
1.28476e-07
1.28489e-07
1.28501e-07
1.28513e-07
1.28522e-07
1.28522e-07
1.28533e-07
1.28547e-07
1.28553e-07
1.28554e-07
1.28561e-07
1.28573e-07
1.28575e-07
1.28572e-07
1.28583e-07
1.28594e-07
1.2858e-07
1.28577e-07
1.28595e-07
1.286e-07
1.28598e-07
1.28599e-07
1.28592e-07
1.28592e-07
1.28593e-07
1.28578e-07
1.28577e-07
1.28577e-07
1.28574e-07
1.28561e-07
1.28572e-07
1.28583e-07
1.28583e-07
1.28573e-07
1.2857e-07
1.28595e-07
1.28586e-07
1.28561e-07
1.28578e-07
1.28605e-07
1.28611e-07
1.28629e-07
1.28615e-07
1.28598e-07
1.28608e-07
1.286e-07
1.28606e-07
1.28633e-07
1.28647e-07
1.28644e-07
1.28644e-07
1.2864e-07
1.28674e-07
1.2869e-07
1.28706e-07
1.28738e-07
1.28759e-07
1.28779e-07
1.28819e-07
1.28855e-07
1.28902e-07
1.28952e-07
1.29031e-07
1.29092e-07
1.29291e-07
1.29307e-07
1.30757e-07
1.35965e-07
3.93604e-08
1.24276e-07
1.25059e-07
1.25767e-07
1.26277e-07
1.26654e-07
1.26945e-07
1.27177e-07
1.27365e-07
1.27521e-07
1.27651e-07
1.27763e-07
1.27857e-07
1.2794e-07
1.2801e-07
1.28073e-07
1.28127e-07
1.28175e-07
1.28217e-07
1.28257e-07
1.2829e-07
1.28321e-07
1.28347e-07
1.28372e-07
1.28393e-07
1.28412e-07
1.2843e-07
1.28447e-07
1.28461e-07
1.28475e-07
1.28487e-07
1.28499e-07
1.28508e-07
1.28508e-07
1.28519e-07
1.28534e-07
1.2854e-07
1.28541e-07
1.28548e-07
1.2856e-07
1.28562e-07
1.28559e-07
1.2857e-07
1.28581e-07
1.28568e-07
1.28565e-07
1.28583e-07
1.28588e-07
1.28586e-07
1.28587e-07
1.2858e-07
1.2858e-07
1.28582e-07
1.28567e-07
1.28566e-07
1.28566e-07
1.28563e-07
1.28551e-07
1.28561e-07
1.28572e-07
1.28572e-07
1.28562e-07
1.2856e-07
1.28584e-07
1.28576e-07
1.28551e-07
1.28568e-07
1.28596e-07
1.28601e-07
1.28619e-07
1.28606e-07
1.28589e-07
1.28599e-07
1.28591e-07
1.28598e-07
1.28625e-07
1.28639e-07
1.28636e-07
1.28637e-07
1.28633e-07
1.28666e-07
1.28683e-07
1.28699e-07
1.28731e-07
1.28753e-07
1.28773e-07
1.28813e-07
1.28849e-07
1.28897e-07
1.28947e-07
1.29026e-07
1.29087e-07
1.29287e-07
1.293e-07
1.30798e-07
1.36009e-07
4.11923e-08
1.24267e-07
1.25037e-07
1.25741e-07
1.26249e-07
1.26627e-07
1.26918e-07
1.2715e-07
1.27339e-07
1.27496e-07
1.27627e-07
1.27739e-07
1.27834e-07
1.27917e-07
1.27988e-07
1.28052e-07
1.28107e-07
1.28155e-07
1.28197e-07
1.28237e-07
1.28272e-07
1.28302e-07
1.2833e-07
1.28355e-07
1.28376e-07
1.28395e-07
1.28413e-07
1.28431e-07
1.28445e-07
1.28459e-07
1.28471e-07
1.28484e-07
1.28493e-07
1.28494e-07
1.28505e-07
1.28519e-07
1.28526e-07
1.28526e-07
1.28534e-07
1.28546e-07
1.28548e-07
1.28546e-07
1.28557e-07
1.28568e-07
1.28555e-07
1.28551e-07
1.28569e-07
1.28575e-07
1.28573e-07
1.28574e-07
1.28568e-07
1.28567e-07
1.28569e-07
1.28555e-07
1.28554e-07
1.28554e-07
1.28551e-07
1.28539e-07
1.28549e-07
1.28561e-07
1.28561e-07
1.2855e-07
1.28548e-07
1.28573e-07
1.28566e-07
1.28541e-07
1.28558e-07
1.28585e-07
1.28591e-07
1.28609e-07
1.28597e-07
1.2858e-07
1.28589e-07
1.28582e-07
1.28589e-07
1.28616e-07
1.2863e-07
1.28627e-07
1.28629e-07
1.28625e-07
1.28658e-07
1.28675e-07
1.28691e-07
1.28723e-07
1.28745e-07
1.28766e-07
1.28806e-07
1.28842e-07
1.28891e-07
1.28941e-07
1.29021e-07
1.29082e-07
1.29283e-07
1.29293e-07
1.30842e-07
1.36055e-07
4.31149e-08
1.24258e-07
1.25014e-07
1.25713e-07
1.2622e-07
1.26597e-07
1.26889e-07
1.27121e-07
1.27311e-07
1.27469e-07
1.27601e-07
1.27714e-07
1.27809e-07
1.27893e-07
1.27965e-07
1.28029e-07
1.28085e-07
1.28134e-07
1.28177e-07
1.28217e-07
1.28252e-07
1.28283e-07
1.2831e-07
1.28336e-07
1.28358e-07
1.28377e-07
1.28396e-07
1.28413e-07
1.28427e-07
1.28442e-07
1.28454e-07
1.28467e-07
1.28476e-07
1.28478e-07
1.28489e-07
1.28504e-07
1.2851e-07
1.28511e-07
1.28519e-07
1.28531e-07
1.28533e-07
1.28531e-07
1.28542e-07
1.28554e-07
1.28541e-07
1.28537e-07
1.28555e-07
1.28561e-07
1.28559e-07
1.28561e-07
1.28554e-07
1.28554e-07
1.28556e-07
1.28542e-07
1.28541e-07
1.28541e-07
1.28539e-07
1.28527e-07
1.28537e-07
1.28549e-07
1.28549e-07
1.28538e-07
1.28536e-07
1.28561e-07
1.28555e-07
1.2853e-07
1.28546e-07
1.28573e-07
1.2858e-07
1.28598e-07
1.28587e-07
1.2857e-07
1.28579e-07
1.28573e-07
1.28579e-07
1.28606e-07
1.28621e-07
1.28618e-07
1.2862e-07
1.28616e-07
1.28649e-07
1.28666e-07
1.28683e-07
1.28715e-07
1.28738e-07
1.28758e-07
1.28799e-07
1.28835e-07
1.28885e-07
1.28934e-07
1.29016e-07
1.29076e-07
1.29278e-07
1.29285e-07
1.30889e-07
1.36102e-07
4.51324e-08
1.24249e-07
1.2499e-07
1.25683e-07
1.26188e-07
1.26565e-07
1.26857e-07
1.27091e-07
1.27281e-07
1.2744e-07
1.27573e-07
1.27686e-07
1.27783e-07
1.27868e-07
1.2794e-07
1.28005e-07
1.28061e-07
1.28111e-07
1.28154e-07
1.28195e-07
1.2823e-07
1.28262e-07
1.2829e-07
1.28316e-07
1.28338e-07
1.28358e-07
1.28377e-07
1.28395e-07
1.28409e-07
1.28424e-07
1.28437e-07
1.2845e-07
1.28459e-07
1.28461e-07
1.28472e-07
1.28487e-07
1.28494e-07
1.28495e-07
1.28503e-07
1.28515e-07
1.28518e-07
1.28515e-07
1.28526e-07
1.28538e-07
1.28526e-07
1.28522e-07
1.2854e-07
1.28546e-07
1.28545e-07
1.28546e-07
1.2854e-07
1.2854e-07
1.28542e-07
1.28528e-07
1.28528e-07
1.28527e-07
1.28525e-07
1.28515e-07
1.28524e-07
1.28536e-07
1.28536e-07
1.28525e-07
1.28523e-07
1.28548e-07
1.28543e-07
1.28518e-07
1.28534e-07
1.28561e-07
1.28568e-07
1.28587e-07
1.28577e-07
1.28559e-07
1.28569e-07
1.28562e-07
1.28568e-07
1.28595e-07
1.28611e-07
1.28609e-07
1.28611e-07
1.28607e-07
1.28639e-07
1.28657e-07
1.28674e-07
1.28706e-07
1.2873e-07
1.2875e-07
1.28791e-07
1.28828e-07
1.28878e-07
1.28927e-07
1.29009e-07
1.29069e-07
1.29273e-07
1.29276e-07
1.30939e-07
1.36149e-07
4.7249e-08
1.24239e-07
1.24964e-07
1.25651e-07
1.26155e-07
1.26532e-07
1.26824e-07
1.27058e-07
1.2725e-07
1.27409e-07
1.27543e-07
1.27657e-07
1.27755e-07
1.2784e-07
1.27914e-07
1.27979e-07
1.28036e-07
1.28086e-07
1.2813e-07
1.28172e-07
1.28208e-07
1.2824e-07
1.28268e-07
1.28295e-07
1.28317e-07
1.28338e-07
1.28357e-07
1.28375e-07
1.2839e-07
1.28405e-07
1.28418e-07
1.28431e-07
1.28441e-07
1.28443e-07
1.28454e-07
1.28469e-07
1.28477e-07
1.28478e-07
1.28486e-07
1.28498e-07
1.28501e-07
1.28498e-07
1.28509e-07
1.28522e-07
1.2851e-07
1.28506e-07
1.28524e-07
1.2853e-07
1.28529e-07
1.28531e-07
1.28525e-07
1.28525e-07
1.28527e-07
1.28514e-07
1.28513e-07
1.28513e-07
1.28511e-07
1.28501e-07
1.2851e-07
1.28522e-07
1.28522e-07
1.28511e-07
1.28509e-07
1.28534e-07
1.28531e-07
1.28505e-07
1.28522e-07
1.28548e-07
1.28555e-07
1.28575e-07
1.28565e-07
1.28548e-07
1.28557e-07
1.28551e-07
1.28557e-07
1.28584e-07
1.286e-07
1.28598e-07
1.28602e-07
1.28597e-07
1.28629e-07
1.28648e-07
1.28665e-07
1.28697e-07
1.28721e-07
1.28742e-07
1.28783e-07
1.2882e-07
1.2887e-07
1.2892e-07
1.29003e-07
1.29062e-07
1.29267e-07
1.29267e-07
1.3099e-07
1.36197e-07
4.94686e-08
1.2423e-07
1.24937e-07
1.25618e-07
1.2612e-07
1.26496e-07
1.26789e-07
1.27024e-07
1.27216e-07
1.27376e-07
1.27511e-07
1.27627e-07
1.27725e-07
1.27811e-07
1.27886e-07
1.27952e-07
1.28009e-07
1.28061e-07
1.28105e-07
1.28147e-07
1.28183e-07
1.28216e-07
1.28245e-07
1.28272e-07
1.28295e-07
1.28316e-07
1.28335e-07
1.28354e-07
1.28369e-07
1.28384e-07
1.28398e-07
1.28412e-07
1.28422e-07
1.28424e-07
1.28436e-07
1.28451e-07
1.28458e-07
1.2846e-07
1.28468e-07
1.2848e-07
1.28483e-07
1.28481e-07
1.28492e-07
1.28505e-07
1.28494e-07
1.28489e-07
1.28507e-07
1.28513e-07
1.28512e-07
1.28515e-07
1.28509e-07
1.28509e-07
1.28512e-07
1.28498e-07
1.28498e-07
1.28497e-07
1.28496e-07
1.28486e-07
1.28496e-07
1.28507e-07
1.28508e-07
1.28496e-07
1.28494e-07
1.2852e-07
1.28518e-07
1.28492e-07
1.28508e-07
1.28535e-07
1.28542e-07
1.28562e-07
1.28553e-07
1.28536e-07
1.28545e-07
1.28539e-07
1.28545e-07
1.28572e-07
1.28588e-07
1.28587e-07
1.28591e-07
1.28587e-07
1.28618e-07
1.28637e-07
1.28655e-07
1.28687e-07
1.28712e-07
1.28733e-07
1.28774e-07
1.28811e-07
1.28862e-07
1.28912e-07
1.28995e-07
1.29055e-07
1.29261e-07
1.29257e-07
1.31043e-07
1.36246e-07
5.17948e-08
1.24219e-07
1.24909e-07
1.25583e-07
1.26083e-07
1.26459e-07
1.26752e-07
1.26987e-07
1.2718e-07
1.27342e-07
1.27477e-07
1.27594e-07
1.27693e-07
1.27781e-07
1.27856e-07
1.27923e-07
1.27981e-07
1.28033e-07
1.28078e-07
1.28121e-07
1.28158e-07
1.28191e-07
1.2822e-07
1.28248e-07
1.28271e-07
1.28293e-07
1.28312e-07
1.28331e-07
1.28347e-07
1.28363e-07
1.28376e-07
1.28391e-07
1.28401e-07
1.28404e-07
1.28415e-07
1.28431e-07
1.28439e-07
1.28441e-07
1.28448e-07
1.28461e-07
1.28464e-07
1.28462e-07
1.28473e-07
1.28486e-07
1.28476e-07
1.28471e-07
1.28489e-07
1.28495e-07
1.28495e-07
1.28497e-07
1.28492e-07
1.28492e-07
1.28495e-07
1.28482e-07
1.28482e-07
1.28481e-07
1.2848e-07
1.28471e-07
1.2848e-07
1.28492e-07
1.28492e-07
1.2848e-07
1.28478e-07
1.28504e-07
1.28504e-07
1.28478e-07
1.28494e-07
1.2852e-07
1.28528e-07
1.28548e-07
1.2854e-07
1.28524e-07
1.28532e-07
1.28527e-07
1.28532e-07
1.2856e-07
1.28576e-07
1.28576e-07
1.2858e-07
1.28576e-07
1.28607e-07
1.28626e-07
1.28644e-07
1.28676e-07
1.28702e-07
1.28723e-07
1.28765e-07
1.28802e-07
1.28854e-07
1.28903e-07
1.28988e-07
1.29047e-07
1.29254e-07
1.29247e-07
1.31098e-07
1.36294e-07
5.42307e-08
1.24209e-07
1.24879e-07
1.25546e-07
1.26044e-07
1.26419e-07
1.26713e-07
1.26949e-07
1.27143e-07
1.27305e-07
1.27442e-07
1.2756e-07
1.2766e-07
1.27748e-07
1.27824e-07
1.27892e-07
1.27951e-07
1.28004e-07
1.2805e-07
1.28093e-07
1.2813e-07
1.28165e-07
1.28194e-07
1.28222e-07
1.28246e-07
1.28268e-07
1.28288e-07
1.28308e-07
1.28324e-07
1.2834e-07
1.28354e-07
1.28368e-07
1.28379e-07
1.28382e-07
1.28394e-07
1.2841e-07
1.28418e-07
1.2842e-07
1.28428e-07
1.28441e-07
1.28444e-07
1.28442e-07
1.28453e-07
1.28467e-07
1.28457e-07
1.28452e-07
1.2847e-07
1.28476e-07
1.28476e-07
1.28479e-07
1.28474e-07
1.28474e-07
1.28477e-07
1.28465e-07
1.28464e-07
1.28464e-07
1.28463e-07
1.28455e-07
1.28463e-07
1.28476e-07
1.28476e-07
1.28464e-07
1.28462e-07
1.28488e-07
1.28489e-07
1.28463e-07
1.28478e-07
1.28504e-07
1.28513e-07
1.28533e-07
1.28527e-07
1.2851e-07
1.28518e-07
1.28513e-07
1.28519e-07
1.28546e-07
1.28563e-07
1.28563e-07
1.28568e-07
1.28564e-07
1.28595e-07
1.28614e-07
1.28633e-07
1.28664e-07
1.28691e-07
1.28713e-07
1.28755e-07
1.28792e-07
1.28845e-07
1.28893e-07
1.28979e-07
1.29038e-07
1.29246e-07
1.29235e-07
1.31154e-07
1.36343e-07
5.67782e-08
1.24198e-07
1.24849e-07
1.25507e-07
1.26002e-07
1.26378e-07
1.26671e-07
1.26908e-07
1.27103e-07
1.27267e-07
1.27404e-07
1.27523e-07
1.27625e-07
1.27714e-07
1.27791e-07
1.2786e-07
1.27919e-07
1.27973e-07
1.28019e-07
1.28064e-07
1.28102e-07
1.28136e-07
1.28167e-07
1.28195e-07
1.2822e-07
1.28242e-07
1.28263e-07
1.28283e-07
1.28299e-07
1.28316e-07
1.2833e-07
1.28345e-07
1.28356e-07
1.2836e-07
1.28372e-07
1.28387e-07
1.28396e-07
1.28399e-07
1.28407e-07
1.2842e-07
1.28423e-07
1.28421e-07
1.28432e-07
1.28447e-07
1.28437e-07
1.28432e-07
1.28449e-07
1.28455e-07
1.28456e-07
1.28459e-07
1.28455e-07
1.28455e-07
1.28458e-07
1.28446e-07
1.28446e-07
1.28445e-07
1.28445e-07
1.28438e-07
1.28446e-07
1.28458e-07
1.28459e-07
1.28446e-07
1.28444e-07
1.2847e-07
1.28474e-07
1.28447e-07
1.28462e-07
1.28488e-07
1.28497e-07
1.28517e-07
1.28512e-07
1.28496e-07
1.28503e-07
1.28499e-07
1.28505e-07
1.28532e-07
1.28549e-07
1.2855e-07
1.28555e-07
1.28552e-07
1.28582e-07
1.28602e-07
1.2862e-07
1.28652e-07
1.2868e-07
1.28702e-07
1.28744e-07
1.28782e-07
1.28835e-07
1.28883e-07
1.2897e-07
1.29028e-07
1.29238e-07
1.29223e-07
1.3121e-07
1.36391e-07
5.94386e-08
1.24187e-07
1.24817e-07
1.25467e-07
1.25959e-07
1.26334e-07
1.26628e-07
1.26866e-07
1.27061e-07
1.27226e-07
1.27365e-07
1.27485e-07
1.27587e-07
1.27677e-07
1.27755e-07
1.27825e-07
1.27886e-07
1.2794e-07
1.27988e-07
1.28033e-07
1.28071e-07
1.28107e-07
1.28138e-07
1.28167e-07
1.28192e-07
1.28215e-07
1.28236e-07
1.28256e-07
1.28273e-07
1.2829e-07
1.28305e-07
1.2832e-07
1.28332e-07
1.28336e-07
1.28348e-07
1.28364e-07
1.28373e-07
1.28376e-07
1.28384e-07
1.28397e-07
1.28401e-07
1.28399e-07
1.2841e-07
1.28425e-07
1.28416e-07
1.2841e-07
1.28428e-07
1.28434e-07
1.28435e-07
1.28439e-07