/*--------------------------------*- C++ -*----------------------------------*\
| =========                 |                                                 |
| \\      /  F ield         | OpenFOAM: The Open Source CFD Toolbox           |
|  \\    /   O peration     | Version:  v2012                                 |
|   \\  /    A nd           | Website:  www.openfoam.com                      |
|    \\/     M anipulation  |                                                 |
\*---------------------------------------------------------------------------*/
FoamFile
{
    version     2.0;
    format      ascii;
    class       volScalarField;
    location    "10";
    object      yPlus;
}
// * * * * * * * * * * * * * * * * * * * * * * * * * * * * * * * * * * * * * //

dimensions      [0 0 0 0 0 0 0];


internalField   uniform 0;

boundaryField
{
    inlet
    {
        type            calculated;
        value           uniform 0;
    }
    outlet
    {
        type            calculated;
        value           uniform 0;
    }
    topWall
    {
        type            calculated;
        value           nonuniform List<scalar> 
545
(
0.0853503
0.147586
0.189346
0.222488
0.250523
0.27503
0.296899
0.316689
0.334781
0.351446
0.366891
0.381274
0.394722
0.407337
0.419204
0.430394
0.440968
0.450978
0.46047
0.469483
0.478052
0.486209
0.493982
0.501396
0.508473
0.515235
0.5217
0.527886
0.533808
0.539481
0.544919
0.550134
0.555137
0.55994
0.564553
0.568984
0.573243
0.577338
0.581277
0.585067
0.588714
0.592226
0.595608
0.598865
0.602004
0.60503
0.607947
0.610759
0.613472
0.61609
0.618615
0.621053
0.623406
0.625678
0.627872
0.629991
0.632038
0.634016
0.635928
0.637775
0.639561
0.641287
0.642957
0.644571
0.646132
0.647643
0.649104
0.650517
0.651885
0.653208
0.654489
0.655729
0.656913
0.658056
0.659189
0.660311
0.661422
0.662524
0.663614
0.664695
0.665766
0.666827
0.667878
0.668919
0.669951
0.670973
0.671985
0.672989
0.673983
0.674968
0.675943
0.67691
0.677868
0.678818
0.679758
0.680692
0.681522
0.682264
0.683005
0.683744
0.684483
0.685221
0.685958
0.686694
0.687429
0.688164
0.688897
0.68963
0.690361
0.691092
0.691822
0.69255
0.693278
0.694005
0.694731
0.695456
0.69618
0.696903
0.697624
0.698345
0.699065
0.699784
0.700502
0.701218
0.701934
0.702648
0.703362
0.704074
0.704785
0.705495
0.706204
0.706912
0.707619
0.708324
0.709029
0.709732
0.710434
0.711134
0.711834
0.712532
0.713229
0.713925
0.71462
0.715313
0.716005
0.716695
0.717385
0.718073
0.71876
0.719445
0.720129
0.720812
0.721493
0.722173
0.722852
0.723529
0.724205
0.724879
0.725552
0.726223
0.726893
0.727562
0.728229
0.728894
0.729558
0.730221
0.730882
0.731541
0.732199
0.732855
0.73351
0.734163
0.734814
0.735464
0.736113
0.736759
0.737404
0.738048
0.738689
0.739329
0.739967
0.740604
0.741239
0.741872
0.742503
0.743132
0.74376
0.744386
0.74501
0.745633
0.746253
0.746872
0.747489
0.748104
0.748717
0.749328
0.749937
0.750544
0.75115
0.751753
0.752355
0.752954
0.753552
0.754147
0.754741
0.755332
0.755921
0.756509
0.757094
0.757677
0.758258
0.758837
0.759414
0.759989
0.760561
0.761132
0.7617
0.762266
0.76283
0.763391
0.763951
0.764508
0.765063
0.765615
0.766166
0.766713
0.767259
0.767802
0.768343
0.768882
0.769418
0.769952
0.770483
0.771012
0.771539
0.772063
0.772585
0.773104
0.77362
0.774134
0.774646
0.775155
0.775662
0.776166
0.776667
0.777166
0.777662
0.778155
0.778646
0.779135
0.77962
0.780103
0.780583
0.781061
0.781536
0.782008
0.782477
0.782943
0.783407
0.783868
0.784326
0.784781
0.785234
0.785683
0.78613
0.786574
0.787015
0.787452
0.787888
0.788292
0.788669
0.789048
0.789428
0.789809
0.790192
0.790575
0.79096
0.791346
0.791733
0.79212
0.792509
0.792898
0.793289
0.79368
0.794071
0.794463
0.794856
0.795249
0.795642
0.796036
0.796429
0.796823
0.797217
0.797611
0.798004
0.798397
0.79879
0.799182
0.799574
0.799965
0.800356
0.800745
0.801134
0.801521
0.801907
0.802292
0.802675
0.803057
0.803436
0.803815
0.804191
0.804565
0.804936
0.805306
0.805672
0.806036
0.806398
0.806756
0.807111
0.807462
0.807811
0.808155
0.808496
0.808832
0.809165
0.809493
0.809817
0.810135
0.810449
0.810758
0.811062
0.81136
0.811652
0.811938
0.812218
0.812492
0.812759
0.81302
0.813273
0.813519
0.813758
0.813988
0.814211
0.814426
0.814632
0.81483
0.815018
0.815198
0.815368
0.815528
0.815678
0.815818
0.815947
0.816065
0.816173
0.816269
0.816353
0.816425
0.816485
0.816533
0.816568
0.816589
0.816598
0.816592
0.816573
0.816539
0.81649
0.816427
0.816348
0.816254
0.816144
0.816017
0.815874
0.815715
0.815538
0.815344
0.815132
0.814901
0.814653
0.814386
0.8141
0.813794
0.813469
0.813124
0.812758
0.812372
0.811965
0.811537
0.811088
0.810617
0.810123
0.809608
0.809069
0.808508
0.807924
0.807316
0.806684
0.806029
0.805349
0.804644
0.803915
0.803161
0.802382
0.801577
0.800747
0.79989
0.799008
0.798099
0.797164
0.796203
0.795214
0.794199
0.793157
0.792087
0.790991
0.789867
0.788715
0.787536
0.786329
0.785095
0.783833
0.782544
0.781227
0.779882
0.77851
0.77711
0.775684
0.774229
0.772748
0.771239
0.769704
0.768142
0.766553
0.764938
0.763296
0.761629
0.759936
0.758217
0.756473
0.754705
0.752911
0.751093
0.749252
0.747386
0.745498
0.743586
0.741652
0.739696
0.73772
0.73572
0.733485
0.73102
0.72856
0.726105
0.723656
0.721214
0.71878
0.716355
0.713939
0.711535
0.709141
0.70676
0.704392
0.702039
0.699699
0.697375
0.695068
0.692776
0.690502
0.688246
0.686008
0.683789
0.68159
0.67941
0.677251
0.675112
0.672994
0.670898
0.668825
0.666773
0.664744
0.662739
0.660756
0.658798
0.656864
0.654954
0.653069
0.65121
0.649375
0.647567
0.645784
0.644028
0.642298
0.640595
0.638919
0.63727
0.635649
0.634055
0.632489
0.630952
0.629442
0.627962
0.626509
0.625086
0.623692
0.622327
0.620992
0.619686
0.61841
0.617165
0.615949
0.614763
0.613608
0.612484
0.61139
0.610328
0.609296
0.608296
0.607327
0.60639
0.605485
0.604611
0.603769
0.60296
0.602182
0.601438
0.600725
0.600046
0.599399
0.598785
0.598204
0.597657
0.597143
0.596663
0.596216
0.595804
0.595425
0.59508
0.594767
0.594485
0.594233
0.594012
0.593812
0.593664
0.593478
)
;
    }
    bottomWall
    {
        type            calculated;
        value           nonuniform List<scalar> 
449
(
0.139657
0.0890881
0.0759324
0.0695731
0.065423
0.0623714
0.0600398
0.05836
0.0575112
0.0578977
0.0609764
0.0646863
0.0671988
0.0685759
0.0692929
0.0696384
0.069753
0.0697003
0.0695373
0.0693071
0.0690285
0.0687214
0.0684002
0.0680722
0.0677451
0.0674205
0.0671035
0.0667929
0.0664925
0.0662
0.0659182
0.0656447
0.0653811
0.0651261
0.0648802
0.0646425
0.0644133
0.0641917
0.0639775
0.0637707
0.0635702
0.0633765
0.0631891
0.0630068
0.0628312
0.0626596
0.0624944
0.0623323
0.0621769
0.0620236
0.0618769
0.0617319
0.0615929
0.0614558
0.0613242
0.0611941
0.0610686
0.0609452
0.0608256
0.0607081
0.0605943
0.0604823
0.0603738
0.0602663
0.0601628
0.0600599
0.0599609
0.0598626
0.0597682
0.0596743
0.0595835
0.0594937
0.0594056
0.0593196
0.059235
0.0591526
0.0590716
0.0589921
0.0589137
0.0588375
0.0587617
0.0586886
0.0586161
0.0585457
0.0584751
0.0584071
0.0583397
0.0582734
0.0582085
0.0581443
0.0580826
0.0580196
0.0579595
0.0578979
0.0578392
0.0577805
0.0577231
0.0576657
0.0576098
0.0575544
0.0574992
0.0574462
0.0573943
0.0573438
0.0572931
0.0572435
0.0571939
0.0571463
0.0570978
0.0570505
0.0570044
0.0569589
0.0569135
0.0568693
0.0568256
0.0567826
0.0567399
0.0566992
0.0566584
0.0566188
0.0565798
0.0565409
0.0565018
0.0564641
0.0564262
0.0563885
0.0563519
0.0563157
0.0562802
0.0562454
0.0562105
0.0561764
0.0561428
0.0561093
0.0560775
0.0560448
0.0560134
0.0559815
0.0559501
0.0559187
0.0558882
0.0558574
0.0558276
0.0557976
0.0557677
0.0557394
0.05571
0.0556798
0.0556496
0.0556211
0.0555923
0.0555665
0.05554
0.0555154
0.0554905
0.0554657
0.0554413
0.055416
0.0553919
0.0553675
0.0553432
0.0553199
0.0552962
0.0552719
0.0552498
0.0552274
0.0552047
0.0551832
0.0551615
0.0551391
0.0551175
0.0550968
0.055076
0.0550555
0.0550367
0.0550177
0.0549994
0.0549809
0.0549611
0.0549415
0.0549206
0.0548998
0.054881
0.0548621
0.0548441
0.0548273
0.0548096
0.0547926
0.0547771
0.0547604
0.054744
0.0547287
0.054712
0.0546958
0.0546805
0.0546641
0.0546483
0.0546333
0.0546169
0.0546014
0.0545865
0.0545703
0.0545549
0.0545402
0.0545241
0.0545094
0.0544945
0.0544788
0.0544646
0.0544489
0.0544337
0.0544188
0.0544032
0.0543892
0.0543752
0.0543601
0.0543463
0.0543309
0.054315
0.0543018
0.0542877
0.054274
0.0542598
0.0542454
0.0542323
0.0542184
0.0542059
0.0541931
0.0541799
0.0541674
0.0541549
0.0541407
0.0541268
0.0541127
0.054099
0.0540865
0.0540744
0.0540604
0.0540473
0.0540343
0.0540214
0.05401
0.0539974
0.0539846
0.0539727
0.0539612
0.0539471
0.0539344
0.0539219
0.0539099
0.0538989
0.0538869
0.0538755
0.0538625
0.0538511
0.0538393
0.0538266
0.0538153
0.053803
0.0537905
0.0537781
0.0537651
0.0537516
0.0537398
0.0537279
0.0537145
0.0537025
0.0536905
0.0536781
0.0536647
0.0536518
0.0536393
0.053627
0.0536162
0.0536034
0.0535908
0.0535793
0.0535655
0.0535525
0.0535412
0.0535279
0.0535153
0.0535043
0.0534911
0.0534784
0.0534674
0.0534542
0.0534412
0.0534299
0.0534165
0.0534035
0.0533913
0.0533783
0.053366
0.0533533
0.0533405
0.0533283
0.0533167
0.0533029
0.05329
0.0532784
0.0532648
0.0532519
0.0532408
0.0532276
0.0532154
0.0532039
0.0531914
0.0531799
0.0531673
0.0531549
0.0531439
0.0531313
0.0531188
0.0531077
0.0530952
0.0530831
0.0530724
0.0530601
0.0530483
0.0530379
0.0530256
0.0530139
0.0530034
0.0529912
0.0529797
0.0529693
0.0529571
0.0529457
0.0529353
0.0529232
0.0529117
0.0529014
0.0528894
0.0528782
0.0528678
0.052856
0.0528449
0.0528348
0.0528231
0.052812
0.0528022
0.0527906
0.05278
0.0527688
0.0527582
0.0527487
0.052738
0.0527275
0.052718
0.052707
0.0526969
0.0526869
0.0526765
0.0526654
0.0526542
0.0526443
0.052633
0.0526226
0.0526112
0.0526011
0.0525904
0.0525804
0.0525706
0.0525606
0.0525502
0.0525399
0.0525306
0.0525215
0.0525112
0.0525021
0.052493
0.0524843
0.0524761
0.0524676
0.0524602
0.0524513
0.0524435
0.0524352
0.0524275
0.0524196
0.0524123
0.0524047
0.0523973
0.0523904
0.0523826
0.0523754
0.0523683
0.0523613
0.0523543
0.0523477
0.0523413
0.052334
0.0523277
0.0523205
0.0523143
0.0523084
0.0523017
0.0522958
0.0522898
0.0522834
0.0522775
0.0522722
0.0522673
0.0522618
0.0522566
0.0522516
0.0522458
0.0522411
0.0522362
0.0522318
0.0522269
0.0522228
0.0522183
0.0522129
0.0522086
0.0522042
0.0521998
0.0521957
0.0521901
0.0521858
0.0521818
0.0521775
0.0521738
0.0521691
0.0521649
0.0521617
0.0521572
0.0521531
0.05215
0.0521455
0.052142
0.0521386
0.0521355
0.052132
0.0521284
0.0521255
0.0521225
0.0521189
0.0521154
0.052112
0.0521087
0.0521058
0.0521029
0.0520981
0.0520956
0.0520912
0.0520924
0.0520819
)
;
    }
    symmetry
    {
        type            symmetryPlane;
    }
    frontAndBack
    {
        type            empty;
    }
}


// ************************************************************************* //
