/*--------------------------------*- C++ -*----------------------------------*\
| =========                 |                                                 |
| \\      /  F ield         | OpenFOAM: The Open Source CFD Toolbox           |
|  \\    /   O peration     | Version:  v2012                                 |
|   \\  /    A nd           | Website:  www.openfoam.com                      |
|    \\/     M anipulation  |                                                 |
\*---------------------------------------------------------------------------*/
FoamFile
{
    version     2.0;
    format      ascii;
    class       volScalarField;
    location    "1";
    object      yPlus;
}
// * * * * * * * * * * * * * * * * * * * * * * * * * * * * * * * * * * * * * //

dimensions      [0 0 0 0 0 0 0];


internalField   uniform 0;

boundaryField
{
    inlet
    {
        type            calculated;
        value           uniform 0;
    }
    outlet
    {
        type            calculated;
        value           uniform 0;
    }
    topWall
    {
        type            calculated;
        value           nonuniform List<scalar> 
545
(
0.0201482
0.0356519
0.0455041
0.0532573
0.0597989
0.0655102
0.0705988
0.0751952
0.0793872
0.0832394
0.0867993
0.0901049
0.0931855
0.0960657
0.0987655
0.101302
0.10369
0.105941
0.108067
0.110077
0.111981
0.113783
0.115495
0.117118
0.118661
0.120127
0.121523
0.122851
0.124116
0.125321
0.126471
0.127566
0.128612
0.129609
0.130562
0.131471
0.13234
0.13317
0.133964
0.134722
0.135447
0.13614
0.136804
0.137438
0.138045
0.138626
0.139182
0.139713
0.140222
0.140709
0.141175
0.141621
0.142048
0.142457
0.142848
0.143222
0.143581
0.143923
0.144251
0.144565
0.144865
0.145152
0.145426
0.145688
0.145939
0.146179
0.146408
0.146627
0.146836
0.147035
0.147225
0.147408
0.147576
0.147738
0.147897
0.148053
0.148206
0.148358
0.148505
0.148651
0.148793
0.148934
0.149071
0.149205
0.149337
0.149466
0.149593
0.149717
0.149838
0.149958
0.150074
0.150189
0.1503
0.150411
0.150517
0.150626
0.150706
0.150775
0.150843
0.150911
0.150977
0.151045
0.15111
0.151175
0.151237
0.151301
0.151361
0.151419
0.151482
0.151539
0.151596
0.151651
0.151704
0.151757
0.151816
0.151872
0.15193
0.151983
0.152036
0.15209
0.152144
0.152197
0.152248
0.152296
0.152349
0.152402
0.152453
0.152502
0.152551
0.152603
0.152652
0.152697
0.152746
0.152794
0.15284
0.152883
0.152927
0.152971
0.153016
0.15306
0.153106
0.153149
0.153192
0.153233
0.153274
0.153314
0.153354
0.15339
0.15343
0.153468
0.153503
0.15354
0.153574
0.15361
0.153643
0.153677
0.15371
0.153741
0.153773
0.153804
0.153834
0.153861
0.153889
0.153916
0.153945
0.153972
0.153997
0.154021
0.154045
0.154066
0.154088
0.154109
0.15413
0.154149
0.154168
0.154186
0.154206
0.154222
0.154238
0.154256
0.154268
0.154284
0.154297
0.154314
0.154324
0.154335
0.154347
0.154361
0.154364
0.154374
0.154383
0.154395
0.154396
0.154401
0.154407
0.154414
0.154416
0.154422
0.154418
0.154418
0.15442
0.154425
0.154417
0.154412
0.154411
0.154408
0.154405
0.154393
0.154384
0.154376
0.154368
0.154349
0.154337
0.154327
0.154317
0.1543
0.154286
0.154263
0.154245
0.154229
0.154212
0.154191
0.154168
0.154143
0.154118
0.154088
0.154055
0.154027
0.154001
0.153966
0.153933
0.153901
0.153866
0.15383
0.153794
0.15376
0.153726
0.153677
0.153636
0.153593
0.153555
0.153506
0.153458
0.153411
0.153366
0.153312
0.153264
0.153212
0.153164
0.153107
0.15305
0.152992
0.152937
0.152881
0.152817
0.152754
0.152691
0.15263
0.152565
0.1525
0.152435
0.152368
0.152299
0.152228
0.152155
0.152084
0.152005
0.151929
0.151853
0.151773
0.151693
0.151616
0.151537
0.15145
0.151362
0.151278
0.151194
0.151103
0.151013
0.150926
0.150831
0.15074
0.150648
0.150548
0.150451
0.150354
0.150254
0.150152
0.150051
0.149947
0.149841
0.149738
0.149624
0.149516
0.149404
0.14929
0.149174
0.149057
0.148937
0.148816
0.148693
0.14856
0.148435
0.148306
0.148173
0.148039
0.147901
0.147765
0.147621
0.147481
0.147337
0.147188
0.147036
0.146881
0.146728
0.146571
0.14641
0.146245
0.146075
0.145908
0.14573
0.145564
0.145381
0.145202
0.14503
0.144839
0.144653
0.144464
0.144269
0.144067
0.143862
0.143648
0.143437
0.143217
0.142994
0.14277
0.142542
0.142312
0.142079
0.141839
0.141594
0.141348
0.1411
0.140848
0.140589
0.140324
0.140055
0.139777
0.139499
0.139216
0.138927
0.138631
0.138331
0.138029
0.137722
0.137412
0.137093
0.136775
0.136445
0.136113
0.135773
0.135425
0.135074
0.134718
0.134358
0.133994
0.133624
0.133247
0.132867
0.132476
0.132085
0.131686
0.131284
0.130871
0.130457
0.130028
0.129598
0.129163
0.128716
0.128268
0.127819
0.127354
0.126889
0.126418
0.125944
0.125451
0.124956
0.124456
0.123954
0.123445
0.122926
0.122404
0.121866
0.121329
0.120782
0.120233
0.119676
0.119105
0.118534
0.117952
0.117371
0.116774
0.116176
0.115573
0.114974
0.114352
0.113731
0.113109
0.112474
0.11183
0.111179
0.11052
0.109855
0.109185
0.108507
0.107825
0.107136
0.106441
0.105742
0.105034
0.104324
0.103603
0.102884
0.102155
0.101422
0.100683
0.0999381
0.0991868
0.0984359
0.0976803
0.0969236
0.0961602
0.0953962
0.0946263
0.093855
0.0930797
0.0922998
0.0915188
0.0907326
0.0899471
0.0891556
0.0883611
0.0875651
0.0867704
0.0859735
0.0851764
0.0843777
0.083579
0.082779
0.0819813
0.0810869
0.0801218
0.0791782
0.0782503
0.0773372
0.0764386
0.0755595
0.0746835
0.0738298
0.0729858
0.0721536
0.0713367
0.0705346
0.0697472
0.068974
0.0682151
0.0674713
0.0667404
0.066025
0.0653225
0.0646346
0.06396
0.0632994
0.0626513
0.0620188
0.0613979
0.0607908
0.0601955
0.0596154
0.0590463
0.0584892
0.0579454
0.0574157
0.0568979
0.0563937
0.0559013
0.0554209
0.0549537
0.0544961
0.0540523
0.0536184
0.0531965
0.0527867
0.0523883
0.0520015
0.0516251
0.0512599
0.0509044
0.0505612
0.0502252
0.0499023
0.0495871
0.0492831
0.0489889
0.0487047
0.0484304
0.0481649
0.0479086
0.0476604
0.0474227
0.0471921
0.0469715
0.0467584
0.0465551
0.0463601
0.0461721
0.045993
0.0458223
0.0456598
0.0455029
0.0453544
0.0452128
0.0450815
0.0449531
0.0448355
0.0447231
0.0446172
0.0445181
0.0444246
0.0443384
0.0442589
0.0441862
0.0441176
0.0440572
0.0440036
0.0439568
0.0439163
0.0438841
0.0438544
0.0438328
0.0438169
0.0438057
0.0437998
0.0437977
0.0438076
)
;
    }
    bottomWall
    {
        type            calculated;
        value           nonuniform List<scalar> 
449
(
0.140501
0.106341
0.105141
0.105966
0.106311
0.106388
0.106401
0.106407
0.106413
0.106418
0.106422
0.106425
0.106427
0.106429
0.10643
0.106432
0.106432
0.106433
0.106434
0.106434
0.106435
0.106435
0.106435
0.106435
0.106435
0.106436
0.106436
0.106436
0.106436
0.106436
0.106436
0.106436
0.106436
0.106436
0.106436
0.106436
0.106435
0.106435
0.106435
0.106435
0.106435
0.106435
0.106435
0.106435
0.106435
0.106435
0.106435
0.106434
0.106434
0.106434
0.106434
0.106434
0.106434
0.106434
0.106434
0.106433
0.106433
0.106433
0.106433
0.106433
0.106433
0.106433
0.106433
0.106432
0.106432
0.106432
0.106432
0.106432
0.106432
0.106432
0.106432
0.106431
0.106431
0.106431
0.106431
0.106431
0.106431
0.106431
0.10643
0.10643
0.10643
0.10643
0.10643
0.10643
0.10643
0.10643
0.106429
0.106429
0.106429
0.106429
0.106429
0.106429
0.106429
0.106429
0.106428
0.106428
0.106428
0.106428
0.106428
0.106428
0.106428
0.106427
0.106427
0.106427
0.106427
0.106427
0.106427
0.106427
0.106427
0.106426
0.106426
0.106426
0.106426
0.106426
0.106426
0.106426
0.106426
0.106425
0.106425
0.106425
0.106425
0.106425
0.106425
0.106425
0.106425
0.106424
0.106424
0.106424
0.106424
0.106424
0.106424
0.106424
0.106424
0.106424
0.106423
0.106423
0.106423
0.106423
0.106423
0.106423
0.106423
0.106423
0.106422
0.106422
0.106422
0.106422
0.106422
0.106422
0.106422
0.106422
0.106422
0.106421
0.106421
0.106421
0.106421
0.106421
0.106421
0.106421
0.106421
0.10642
0.10642
0.10642
0.10642
0.10642
0.10642
0.10642
0.10642
0.10642
0.106419
0.106419
0.106419
0.106419
0.106419
0.106422
0.106424
0.106424
0.106423
0.106423
0.106422
0.106422
0.106421
0.106421
0.10642
0.10642
0.106419
0.106419
0.106418
0.106418
0.106417
0.106417
0.106416
0.106416
0.106415
0.106415
0.106414
0.106414
0.106413
0.106413
0.106412
0.106412
0.106412
0.106411
0.106411
0.10641
0.10641
0.10641
0.106409
0.106409
0.106408
0.106408
0.106408
0.106407
0.106407
0.106406
0.106406
0.106406
0.106405
0.106405
0.106405
0.106404
0.106404
0.106404
0.106403
0.106403
0.106403
0.106402
0.106402
0.106402
0.106401
0.106401
0.106401
0.1064
0.1064
0.1064
0.106399
0.106399
0.106399
0.106399
0.106398
0.106398
0.106398
0.106397
0.106397
0.106397
0.106397
0.106396
0.106396
0.106396
0.106396
0.106395
0.106395
0.106395
0.106395
0.106394
0.106394
0.106394
0.106394
0.106393
0.106393
0.106393
0.106393
0.106393
0.106392
0.106392
0.106392
0.106392
0.106391
0.106391
0.106391
0.106391
0.106391
0.10639
0.10639
0.10639
0.10639
0.10639
0.106389
0.106389
0.106389
0.106389
0.106389
0.106389
0.106388
0.106388
0.106388
0.106388
0.106388
0.106388
0.106387
0.106387
0.106387
0.106387
0.106387
0.106387
0.106386
0.106386
0.106386
0.106386
0.106386
0.106386
0.106385
0.106385
0.106385
0.106385
0.106385
0.106385
0.106385
0.106385
0.106384
0.106384
0.106384
0.106384
0.106384
0.106384
0.106384
0.106383
0.106383
0.106383
0.106383
0.106383
0.106383
0.106383
0.106383
0.106383
0.106382
0.106382
0.106382
0.106382
0.106382
0.106382
0.106382
0.106382
0.106382
0.106381
0.106381
0.106381
0.106381
0.106381
0.106381
0.106381
0.106381
0.106381
0.106381
0.106381
0.10638
0.10638
0.10638
0.10638
0.10638
0.10638
0.10638
0.10638
0.10638
0.10638
0.106378
0.106378
0.106378
0.106378
0.106378
0.106378
0.106378
0.106378
0.106378
0.106378
0.106378
0.106378
0.106378
0.106378
0.106378
0.106378
0.106378
0.106378
0.106378
0.106378
0.106378
0.106378
0.106378
0.106378
0.106378
0.106378
0.106378
0.106378
0.106378
0.106378
0.106378
0.106378
0.106378
0.106378
0.106378
0.106378
0.106378
0.106378
0.106378
0.106378
0.106378
0.106378
0.106378
0.106378
0.106378
0.106378
0.106378
0.106378
0.106378
0.106378
0.106378
0.106378
0.106378
0.106378
0.106378
0.106378
0.106378
0.106378
0.106378
0.106378
0.106378
0.106378
0.106378
0.106378
0.106378
0.106378
0.106378
0.106378
0.106378
0.106378
0.106378
0.106378
0.106378
0.106378
0.106378
0.106378
0.106378
0.106378
0.106378
0.106378
0.106378
0.106378
0.106378
0.106378
0.106378
0.106378
0.106378
0.106378
0.106378
0.106378
0.106378
0.106378
0.106378
0.106378
0.106378
)
;
    }
    symmetry
    {
        type            symmetryPlane;
    }
    frontAndBack
    {
        type            empty;
    }
}


// ************************************************************************* //
