/*--------------------------------*- C++ -*----------------------------------*\
| =========                 |                                                 |
| \\      /  F ield         | OpenFOAM: The Open Source CFD Toolbox           |
|  \\    /   O peration     | Version:  v2012                                 |
|   \\  /    A nd           | Website:  www.openfoam.com                      |
|    \\/     M anipulation  |                                                 |
\*---------------------------------------------------------------------------*/
FoamFile
{
    version     2.0;
    format      ascii;
    class       volScalarField;
    location    "10";
    object      epsilon;
}
// * * * * * * * * * * * * * * * * * * * * * * * * * * * * * * * * * * * * * //

dimensions      [0 2 -3 0 0 0 0];


internalField   nonuniform List<scalar> 
209825
(
0.778094
0.743741
0.731863
0.726357
0.723254
0.721331
0.720026
0.719116
0.718429
0.717922
0.717507
0.717194
0.716916
0.716705
0.716525
0.716384
0.716252
0.716151
0.71605
0.715976
0.715893
0.715839
0.715786
0.715748
0.715698
0.715674
0.715646
0.715627
0.715587
0.715586
0.715584
0.715578
0.715559
0.715566
0.715566
0.715568
0.715554
0.715583
0.715583
0.715601
0.715601
0.71562
0.71562
0.715658
0.715658
0.715701
0.715701
0.715749
0.715749
0.715791
0.71579
0.715881
0.715881
0.715881
0.715913
0.715913
0.716033
0.7161
0.716158
0.716161
0.716161
0.71616
0.716295
0.716408
0.716408
0.716408
0.716556
0.716681
0.716681
0.716842
0.716965
0.716965
0.717138
0.717245
0.717415
0.717632
0.717803
0.717951
0.71823
0.718369
0.718627
0.718934
0.719223
0.71965
0.720086
0.720659
0.72129
0.722086
0.723106
0.724372
0.725793
0.729014
0.730127
0.747389
1.27263
246.325
0.778088
0.74372
0.731832
0.726321
0.723214
0.721289
0.719983
0.719071
0.718383
0.717876
0.717461
0.717147
0.716869
0.716657
0.716478
0.716336
0.716204
0.716102
0.716001
0.715927
0.715845
0.715791
0.715738
0.7157
0.715649
0.715625
0.715597
0.715578
0.715538
0.715537
0.715535
0.715529
0.71551
0.715517
0.715517
0.715518
0.715505
0.715533
0.715533
0.715552
0.715552
0.715571
0.715571
0.715609
0.715609
0.715652
0.715652
0.7157
0.7157
0.715741
0.715741
0.715831
0.715831
0.715831
0.715864
0.715863
0.715984
0.716051
0.716109
0.716112
0.716112
0.716111
0.716246
0.716359
0.716359
0.716359
0.716508
0.716632
0.716632
0.716793
0.716917
0.716917
0.71709
0.717197
0.717366
0.717583
0.717755
0.717903
0.718182
0.718322
0.718579
0.718887
0.719176
0.719604
0.72004
0.720613
0.721244
0.722041
0.723061
0.724328
0.72575
0.728972
0.730083
0.747378
1.27403
243.152
0.778049
0.743615
0.731693
0.726162
0.723043
0.721109
0.719798
0.718882
0.718191
0.717681
0.717264
0.716949
0.716669
0.716456
0.716276
0.716134
0.716
0.715899
0.715797
0.715722
0.715639
0.715585
0.715532
0.715494
0.715443
0.715418
0.71539
0.715371
0.715331
0.71533
0.715327
0.715321
0.715303
0.715309
0.715309
0.715311
0.715297
0.715325
0.715325
0.715344
0.715344
0.715363
0.715363
0.715401
0.715401
0.715443
0.715443
0.715492
0.715492
0.715533
0.715533
0.715624
0.715624
0.715623
0.715656
0.715656
0.715776
0.715843
0.715902
0.715905
0.715905
0.715904
0.716039
0.716152
0.716153
0.716152
0.716301
0.716426
0.716426
0.716587
0.716712
0.716712
0.716885
0.716992
0.717162
0.717379
0.717552
0.7177
0.717979
0.718119
0.718378
0.718686
0.718976
0.719404
0.719841
0.720415
0.721047
0.721845
0.722866
0.724135
0.725557
0.728786
0.729889
0.74725
1.27739
239.653
0.777982
0.743436
0.731455
0.725891
0.722752
0.720805
0.719484
0.718561
0.717865
0.717351
0.716931
0.716613
0.716331
0.716117
0.715935
0.715791
0.715657
0.715554
0.715452
0.715376
0.715293
0.715238
0.715184
0.715146
0.715094
0.715069
0.715041
0.715022
0.714981
0.71498
0.714977
0.714971
0.714952
0.714959
0.714958
0.71496
0.714946
0.714974
0.714974
0.714993
0.714993
0.715012
0.715012
0.715049
0.715049
0.715092
0.715092
0.71514
0.71514
0.715182
0.715182
0.715272
0.715272
0.715272
0.715305
0.715305
0.715425
0.715493
0.715552
0.715555
0.715555
0.715554
0.715689
0.715803
0.715804
0.715803
0.715952
0.716078
0.716078
0.716239
0.716365
0.716365
0.716538
0.716646
0.716817
0.717035
0.717208
0.717357
0.717636
0.717778
0.718037
0.718346
0.718637
0.719066
0.719505
0.72008
0.720713
0.721514
0.722536
0.723809
0.72523
0.728468
0.729559
0.74702
1.28276
236.555
0.777886
0.743183
0.73112
0.725509
0.722341
0.720375
0.719041
0.718108
0.717405
0.716885
0.71646
0.716139
0.715854
0.715637
0.715453
0.715308
0.715172
0.715067
0.714964
0.714888
0.714803
0.714748
0.714693
0.714654
0.714602
0.714576
0.714548
0.714528
0.714487
0.714486
0.714483
0.714476
0.714457
0.714463
0.714463
0.714464
0.71445
0.714478
0.714478
0.714496
0.714496
0.714515
0.714515
0.714552
0.714552
0.714595
0.714595
0.714643
0.714643
0.714685
0.714685
0.714776
0.714776
0.714776
0.714808
0.714808
0.714929
0.714997
0.715057
0.71506
0.71506
0.715059
0.715194
0.71531
0.71531
0.71531
0.715459
0.715586
0.715586
0.715747
0.715875
0.715875
0.716048
0.716157
0.716328
0.716547
0.716721
0.716871
0.717152
0.717295
0.717554
0.717866
0.718157
0.718588
0.719028
0.719606
0.720241
0.721045
0.722068
0.723346
0.724767
0.728018
0.729092
0.746688
1.29028
234.158
0.777762
0.742855
0.730685
0.725014
0.721809
0.719818
0.718466
0.717521
0.716807
0.71628
0.715849
0.715523
0.715235
0.715014
0.714827
0.71468
0.714542
0.714436
0.714331
0.714253
0.714168
0.714111
0.714055
0.714015
0.713963
0.713937
0.713908
0.713887
0.713846
0.713844
0.713841
0.713834
0.713814
0.71382
0.71382
0.713821
0.713806
0.713834
0.713834
0.713852
0.713852
0.71387
0.71387
0.713908
0.713908
0.71395
0.71395
0.713999
0.713999
0.714041
0.714041
0.714132
0.714132
0.714132
0.714165
0.714165
0.714286
0.714355
0.714414
0.714418
0.714418
0.714417
0.714552
0.714669
0.71467
0.71467
0.714818
0.714948
0.714948
0.715109
0.715239
0.715239
0.715413
0.715523
0.715695
0.715914
0.71609
0.716241
0.716522
0.716668
0.716928
0.717241
0.717535
0.717968
0.71841
0.71899
0.719628
0.720435
0.72146
0.722745
0.724165
0.727433
0.728484
0.746253
1.30009
232.583
0.777611
0.742452
0.730149
0.724404
0.721153
0.719131
0.717758
0.716797
0.716071
0.715535
0.715097
0.714765
0.714471
0.714247
0.714057
0.713906
0.713766
0.713658
0.713551
0.713472
0.713384
0.713327
0.71327
0.713229
0.713175
0.713148
0.713118
0.713098
0.713056
0.713054
0.71305
0.713042
0.713022
0.713028
0.713027
0.713027
0.713013
0.71304
0.71304
0.713058
0.713058
0.713076
0.713076
0.713113
0.713113
0.713156
0.713156
0.713204
0.713204
0.713246
0.713246
0.713338
0.713338
0.713338
0.713371
0.713371
0.713492
0.713562
0.713622
0.713626
0.713626
0.713626
0.713761
0.71388
0.713881
0.713881
0.714029
0.714161
0.714161
0.714322
0.714454
0.714454
0.714629
0.714741
0.714913
0.715133
0.715311
0.715463
0.715746
0.715894
0.716156
0.716472
0.716767
0.717203
0.717647
0.71823
0.718871
0.719683
0.720709
0.722002
0.723421
0.72671
0.727734
0.745713
1.31236
231.842
0.777432
0.741974
0.729513
0.723678
0.720372
0.718313
0.716914
0.715934
0.715194
0.714647
0.7142
0.713861
0.713562
0.713332
0.713138
0.712984
0.712841
0.71273
0.712621
0.71254
0.712451
0.712392
0.712333
0.712291
0.712237
0.712209
0.712178
0.712156
0.712114
0.712111
0.712106
0.712099
0.712078
0.712083
0.712083
0.712082
0.712067
0.712093
0.712093
0.712111
0.712111
0.712129
0.712129
0.712166
0.712166
0.712208
0.712208
0.712257
0.712257
0.712299
0.712299
0.712391
0.712391
0.712391
0.712425
0.712425
0.712547
0.712618
0.712678
0.712683
0.712683
0.712682
0.712817
0.712938
0.71294
0.712939
0.713088
0.713222
0.713222
0.713384
0.713519
0.713519
0.713694
0.713808
0.713981
0.714203
0.714383
0.714536
0.714821
0.714972
0.715235
0.715553
0.715851
0.71629
0.716737
0.717324
0.717968
0.718785
0.719813
0.721116
0.722533
0.725846
0.726838
0.745068
1.32723
231.885
0.777225
0.741419
0.728774
0.722835
0.719464
0.717363
0.715933
0.714931
0.714175
0.713614
0.713157
0.71281
0.712504
0.712269
0.712069
0.711912
0.711764
0.711651
0.711539
0.711456
0.711365
0.711304
0.711243
0.7112
0.711144
0.711115
0.711083
0.711061
0.711018
0.711014
0.711009
0.711001
0.710979
0.710984
0.710984
0.710982
0.710966
0.710992
0.710992
0.71101
0.711009
0.711027
0.711027
0.711063
0.711063
0.711106
0.711106
0.711155
0.711155
0.711197
0.711197
0.71129
0.71129
0.71129
0.711324
0.711324
0.711446
0.711518
0.71158
0.711585
0.711585
0.711584
0.711719
0.711842
0.711845
0.711844
0.711992
0.71213
0.71213
0.712292
0.71243
0.712431
0.712606
0.712722
0.712897
0.713119
0.713302
0.713457
0.713743
0.713898
0.714163
0.714484
0.714785
0.715227
0.715677
0.716269
0.716916
0.71774
0.71877
0.720084
0.721498
0.724838
0.725793
0.744315
1.34486
232.613
0.776992
0.740789
0.727932
0.721874
0.718428
0.716278
0.714813
0.713786
0.71301
0.712435
0.711966
0.711609
0.711295
0.711053
0.710848
0.710686
0.710535
0.710418
0.710303
0.710217
0.710123
0.71006
0.709998
0.709953
0.709896
0.709866
0.709832
0.709809
0.709766
0.709761
0.709755
0.709746
0.709724
0.709728
0.709727
0.709725
0.709708
0.709733
0.709733
0.709751
0.709751
0.709768
0.709768
0.709804
0.709804
0.709846
0.709846
0.709895
0.709895
0.709937
0.709937
0.710031
0.710031
0.710031
0.710066
0.710066
0.710188
0.710262
0.710324
0.71033
0.710329
0.710329
0.710464
0.71059
0.710593
0.710593
0.710741
0.710881
0.710882
0.711043
0.711185
0.711187
0.711363
0.711481
0.711657
0.711881
0.712066
0.712223
0.712512
0.71267
0.712937
0.713262
0.713566
0.714011
0.714465
0.715062
0.715713
0.716543
0.717576
0.718902
0.720314
0.723684
0.724597
0.743451
1.36542
233.901
0.776732
0.740082
0.726986
0.720793
0.717263
0.715056
0.713552
0.712496
0.711698
0.711106
0.710624
0.710256
0.709933
0.709684
0.709473
0.709305
0.709149
0.709029
0.70891
0.708821
0.708725
0.70866
0.708595
0.708549
0.70849
0.708458
0.708423
0.708399
0.708355
0.708348
0.708341
0.708332
0.708309
0.708312
0.708312
0.708309
0.70829
0.708315
0.708315
0.708332
0.708332
0.708349
0.708348
0.708384
0.708384
0.708426
0.708426
0.708475
0.708475
0.708518
0.708518
0.708612
0.708613
0.708612
0.708648
0.708648
0.708771
0.708846
0.708909
0.708915
0.708915
0.708915
0.709049
0.709178
0.709182
0.709182
0.70933
0.709474
0.709475
0.709636
0.709782
0.709785
0.709961
0.710082
0.71026
0.710485
0.710674
0.710833
0.711123
0.711286
0.711555
0.711884
0.712191
0.712641
0.713098
0.7137
0.714356
0.715194
0.716229
0.717569
0.718978
0.722381
0.723247
0.742475
1.38905
235.604
0.776446
0.739299
0.725936
0.719591
0.715967
0.713697
0.712149
0.71106
0.710238
0.709627
0.709129
0.70875
0.708417
0.708159
0.707941
0.707767
0.707606
0.707481
0.707358
0.707266
0.707167
0.707099
0.707032
0.706984
0.706923
0.706889
0.706853
0.706828
0.706782
0.706775
0.706767
0.706757
0.706733
0.706735
0.706734
0.706731
0.706711
0.706735
0.706735
0.706751
0.706751
0.706768
0.706767
0.706802
0.706802
0.706844
0.706844
0.706894
0.706894
0.706937
0.706937
0.707032
0.707032
0.707032
0.707067
0.707067
0.707191
0.707268
0.707332
0.707339
0.707339
0.707338
0.707473
0.707605
0.70761
0.70761
0.707757
0.707905
0.707908
0.708068
0.708219
0.708222
0.708399
0.708523
0.708702
0.708929
0.709121
0.709283
0.709575
0.709743
0.710014
0.710347
0.710658
0.711112
0.711573
0.712182
0.712842
0.713689
0.714726
0.716081
0.717486
0.720926
0.72174
0.741383
1.41592
237.567
0.776135
0.738441
0.724782
0.718268
0.714539
0.712199
0.710601
0.709477
0.708627
0.707995
0.707481
0.707087
0.706743
0.706477
0.70625
0.70607
0.705903
0.705773
0.705646
0.70555
0.705448
0.705376
0.705307
0.705256
0.705193
0.705158
0.70512
0.705093
0.705046
0.705038
0.705028
0.705017
0.704993
0.704994
0.704993
0.704988
0.704967
0.704991
0.70499
0.705007
0.705007
0.705022
0.705021
0.705056
0.705056
0.705097
0.705097
0.705147
0.705147
0.70519
0.70519
0.705286
0.705287
0.705286
0.705323
0.705323
0.705447
0.705526
0.705591
0.705599
0.705598
0.705598
0.705733
0.705869
0.705874
0.705874
0.706021
0.706173
0.706177
0.706337
0.706492
0.706496
0.706674
0.706801
0.706982
0.707211
0.707407
0.707571
0.707866
0.708039
0.708312
0.70865
0.708965
0.709424
0.709889
0.710504
0.71117
0.712025
0.713064
0.714435
0.715837
0.719315
0.720073
0.740173
1.44615
239.636
0.775799
0.737506
0.723522
0.716823
0.712978
0.710561
0.708908
0.707744
0.706864
0.706209
0.705675
0.705267
0.704911
0.704634
0.704398
0.704211
0.704038
0.703902
0.70377
0.70367
0.703564
0.70349
0.703417
0.703364
0.703298
0.703261
0.703221
0.703193
0.703145
0.703135
0.703124
0.703112
0.703087
0.703087
0.703085
0.70308
0.703057
0.70308
0.703079
0.703095
0.703095
0.70311
0.703109
0.703143
0.703143
0.703184
0.703184
0.703234
0.703234
0.703277
0.703278
0.703374
0.703375
0.703374
0.703411
0.703411
0.703536
0.703617
0.703684
0.703692
0.703692
0.703691
0.703826
0.703965
0.703972
0.703972
0.704119
0.704275
0.70428
0.70444
0.7046
0.704605
0.704784
0.704914
0.705097
0.705328
0.705527
0.705694
0.705992
0.70617
0.706446
0.706789
0.707109
0.707573
0.708043
0.708665
0.709335
0.7102
0.711241
0.71263
0.714027
0.717546
0.718244
0.73884
1.47987
241.66
0.775439
0.736497
0.722158
0.715256
0.711283
0.708781
0.707069
0.70586
0.704947
0.704266
0.703712
0.703288
0.702917
0.702629
0.702384
0.702189
0.702008
0.701867
0.70173
0.701625
0.701515
0.701437
0.701361
0.701305
0.701237
0.701197
0.701155
0.701125
0.701076
0.701064
0.701052
0.701039
0.701013
0.701012
0.701009
0.701003
0.700979
0.701001
0.700999
0.701015
0.701015
0.701029
0.701028
0.701061
0.701061
0.701101
0.701101
0.701152
0.701152
0.701195
0.701196
0.701293
0.701293
0.701293
0.701331
0.701331
0.701456
0.70154
0.701608
0.701616
0.701616
0.701616
0.70175
0.701894
0.701902
0.701902
0.702048
0.702209
0.702216
0.702375
0.70254
0.702547
0.702726
0.70286
0.703044
0.703277
0.703481
0.703651
0.703952
0.704136
0.704415
0.704763
0.705087
0.705556
0.706031
0.706661
0.707336
0.708212
0.709255
0.710662
0.712054
0.715616
0.716249
0.737381
1.51719
243.501
0.775056
0.735413
0.720688
0.713565
0.709454
0.706859
0.705081
0.703825
0.702875
0.702166
0.701589
0.701147
0.700762
0.700461
0.700205
0.700001
0.699813
0.699665
0.699522
0.699412
0.699298
0.699216
0.699136
0.699077
0.699006
0.698964
0.698919
0.698888
0.698837
0.698823
0.698809
0.698796
0.698768
0.698767
0.698763
0.698755
0.698729
0.69875
0.698748
0.698763
0.698763
0.698777
0.698775
0.698808
0.698808
0.698847
0.698847
0.698898
0.698898
0.698942
0.698942
0.699041
0.699041
0.699041
0.69908
0.699079
0.699205
0.699291
0.69936
0.69937
0.69937
0.69937
0.699504
0.699651
0.699661
0.699661
0.699807
0.699972
0.699981
0.70014
0.700309
0.700319
0.700499
0.700636
0.700822
0.701058
0.701266
0.70144
0.701743
0.701933
0.702215
0.702568
0.702897
0.703373
0.703853
0.70449
0.705171
0.706057
0.707102
0.708528
0.709915
0.713521
0.714086
0.735791
1.55816
245.032
0.774651
0.734256
0.719114
0.71175
0.707488
0.704793
0.702943
0.701635
0.700646
0.699906
0.699305
0.698843
0.698441
0.698127
0.69786
0.697646
0.69745
0.697295
0.697145
0.69703
0.69691
0.696824
0.696741
0.696678
0.696604
0.696559
0.696512
0.696479
0.696426
0.69641
0.696395
0.69638
0.696351
0.696348
0.696344
0.696335
0.696307
0.696327
0.696325
0.696339
0.696339
0.696352
0.69635
0.696382
0.696382
0.69642
0.69642
0.696471
0.696471
0.696516
0.696516
0.696615
0.696615
0.696615
0.696655
0.696655
0.696781
0.696869
0.69694
0.696951
0.69695
0.69695
0.697084
0.697236
0.697247
0.697247
0.697392
0.697563
0.697574
0.697732
0.697907
0.697919
0.698099
0.69824
0.698429
0.698666
0.69888
0.699056
0.699362
0.69956
0.699844
0.700203
0.700538
0.701019
0.701504
0.702149
0.702836
0.703734
0.70478
0.706226
0.707607
0.711258
0.711752
0.734065
1.60282
246.143
0.774225
0.733025
0.717434
0.709811
0.705387
0.702582
0.700655
0.69929
0.698258
0.697485
0.696858
0.696374
0.695955
0.695627
0.695347
0.695122
0.694917
0.694754
0.694597
0.694477
0.694352
0.694261
0.694173
0.694107
0.69403
0.693982
0.693932
0.693896
0.693841
0.693823
0.693806
0.69379
0.69376
0.693756
0.69375
0.69374
0.693711
0.693729
0.693726
0.69374
0.69374
0.693752
0.693749
0.69378
0.69378
0.693818
0.693818
0.693869
0.693869
0.693914
0.693914
0.694014
0.694014
0.694014
0.694055
0.694054
0.694181
0.694272
0.694344
0.694356
0.694356
0.694356
0.694489
0.694646
0.694659
0.694659
0.694803
0.694979
0.694993
0.69515
0.69533
0.695345
0.695526
0.695671
0.695861
0.696101
0.696319
0.6965
0.696809
0.697013
0.697301
0.697666
0.698005
0.698493
0.698983
0.699637
0.700329
0.701239
0.702286
0.703753
0.705128
0.708825
0.709245
0.732198
1.65116
246.742
0.77378
0.731723
0.715651
0.707749
0.703149
0.700226
0.698216
0.69679
0.695711
0.694903
0.694246
0.69374
0.693302
0.692957
0.692664
0.692428
0.692212
0.692041
0.691877
0.69175
0.691619
0.691523
0.691431
0.691361
0.69128
0.691229
0.691176
0.691138
0.691081
0.69106
0.691041
0.691024
0.690992
0.690987
0.690979
0.690969
0.690937
0.690954
0.690951
0.690964
0.690964
0.690975
0.690971
0.691001
0.691001
0.691038
0.691038
0.691089
0.691089
0.691134
0.691134
0.691236
0.691236
0.691236
0.691277
0.691277
0.691404
0.691498
0.691572
0.691585
0.691584
0.691584
0.691718
0.691878
0.691894
0.691894
0.692037
0.692218
0.692235
0.692391
0.692576
0.692594
0.692776
0.692925
0.693118
0.69336
0.693583
0.693768
0.69408
0.694292
0.694582
0.694954
0.695298
0.695793
0.696288
0.696951
0.697648
0.69857
0.699618
0.701106
0.702474
0.706218
0.70656
0.730185
1.70309
246.752
0.773315
0.73035
0.713764
0.705563
0.700774
0.697724
0.695624
0.694133
0.693004
0.692156
0.691469
0.690938
0.690479
0.690118
0.689809
0.689562
0.689335
0.689155
0.688983
0.688849
0.688712
0.68861
0.688513
0.688439
0.688354
0.688299
0.688243
0.688202
0.688143
0.68812
0.688098
0.688079
0.688046
0.688039
0.688031
0.688019
0.687985
0.688001
0.687997
0.688009
0.688009
0.688019
0.688015
0.688044
0.688044
0.688079
0.688079
0.688131
0.688131
0.688176
0.688176
0.688279
0.688279
0.688279
0.68832
0.68832
0.688448
0.688545
0.68862
0.688634
0.688634
0.688634
0.688767
0.688932
0.68895
0.68895
0.689093
0.689279
0.689299
0.689453
0.689644
0.689666
0.689848
0.690001
0.690196
0.690441
0.69067
0.690858
0.691173
0.691392
0.691687
0.692064
0.692414
0.692915
0.693416
0.694088
0.694791
0.695725
0.696773
0.698284
0.699644
0.703433
0.703697
0.728018
1.75846
246.125
0.772833
0.728907
0.711774
0.703253
0.698261
0.695076
0.692879
0.691317
0.690135
0.689246
0.688525
0.687967
0.687486
0.687107
0.686782
0.686522
0.686284
0.686094
0.685913
0.685772
0.685628
0.68552
0.685417
0.685339
0.685249
0.685191
0.685131
0.685088
0.685026
0.685
0.684976
0.684956
0.684921
0.684912
0.684902
0.684889
0.684853
0.684867
0.684862
0.684874
0.684874
0.684883
0.684877
0.684905
0.684905
0.68494
0.68494
0.684991
0.684991
0.685037
0.685036
0.68514
0.68514
0.68514
0.685183
0.685183
0.685311
0.685411
0.685487
0.685503
0.685503
0.685502
0.685635
0.685805
0.685825
0.685825
0.685967
0.686158
0.686183
0.686336
0.686532
0.686557
0.68674
0.686897
0.687095
0.687342
0.687576
0.687769
0.688087
0.688314
0.688611
0.688996
0.689351
0.689859
0.690366
0.691046
0.691755
0.692702
0.69375
0.695282
0.696634
0.700469
0.700652
0.725691
1.81704
244.809
0.772334
0.727397
0.709682
0.70082
0.695612
0.692281
0.689981
0.688344
0.687103
0.68617
0.685414
0.684827
0.684322
0.683923
0.683582
0.683307
0.683056
0.682856
0.682666
0.682517
0.682365
0.682252
0.682143
0.682059
0.681966
0.681903
0.681839
0.681793
0.681728
0.6817
0.681673
0.681651
0.681614
0.681603
0.681592
0.681577
0.68154
0.681552
0.681546
0.681556
0.681556
0.681564
0.681558
0.681584
0.681584
0.681618
0.681617
0.681669
0.681669
0.681715
0.681714
0.681819
0.681819
0.681819
0.681862
0.681862
0.681991
0.682094
0.682172
0.682189
0.682189
0.682188
0.68232
0.682496
0.682518
0.682518
0.682659
0.682856
0.682885
0.683036
0.683237
0.683267
0.68345
0.683611
0.683812
0.684061
0.684301
0.684498
0.684819
0.685054
0.685355
0.685746
0.686107
0.686622
0.687134
0.687824
0.688537
0.689498
0.690544
0.692099
0.693443
0.697322
0.697424
0.723197
1.8785
242.788
0.771821
0.725821
0.707489
0.698264
0.692826
0.68934
0.686929
0.685211
0.683909
0.682928
0.682133
0.681516
0.680986
0.680565
0.680206
0.679916
0.679652
0.679441
0.67924
0.679083
0.678924
0.678803
0.678688
0.678599
0.678501
0.678434
0.678366
0.678317
0.678248
0.678217
0.678187
0.678163
0.678125
0.678112
0.678098
0.678083
0.678043
0.678053
0.678046
0.678056
0.678056
0.678062
0.678055
0.67808
0.67808
0.678112
0.678111
0.678162
0.678162
0.678209
0.678208
0.678314
0.678314
0.678314
0.678358
0.678358
0.678487
0.678593
0.678672
0.678691
0.678691
0.678691
0.678822
0.679002
0.679027
0.679027
0.679167
0.679369
0.679404
0.679552
0.679759
0.679793
0.679977
0.680142
0.680345
0.680597
0.680842
0.681044
0.681368
0.681611
0.681916
0.682313
0.68268
0.683202
0.683719
0.684419
0.685137
0.68611
0.687156
0.688733
0.690068
0.693989
0.694008
0.720528
1.94239
240.055
0.771295
0.724181
0.705197
0.695587
0.689904
0.686251
0.683724
0.681919
0.680551
0.679519
0.678684
0.678033
0.677476
0.677033
0.676654
0.676348
0.67607
0.675847
0.675636
0.675469
0.675302
0.675174
0.675052
0.674958
0.674854
0.674782
0.67471
0.674657
0.674585
0.67455
0.674518
0.674492
0.674451
0.674436
0.674421
0.674404
0.674362
0.67437
0.674362
0.67437
0.67437
0.674375
0.674367
0.67439
0.67439
0.67442
0.67442
0.674471
0.674471
0.674517
0.674517
0.674623
0.674623
0.674623
0.674668
0.674668
0.674797
0.674906
0.674987
0.675007
0.675007
0.675007
0.675137
0.675323
0.675351
0.675351
0.67549
0.675696
0.675737
0.675883
0.676094
0.676134
0.676319
0.676488
0.676693
0.676948
0.677198
0.677405
0.677732
0.677984
0.678292
0.678696
0.679068
0.679598
0.68012
0.680829
0.681551
0.682538
0.683581
0.685181
0.686506
0.690466
0.690404
0.717675
2.00815
236.618
0.770756
0.722479
0.702808
0.692789
0.686845
0.683017
0.680364
0.678467
0.677029
0.675943
0.675064
0.674379
0.673793
0.673325
0.672926
0.672602
0.672309
0.672073
0.671851
0.671674
0.671498
0.671362
0.671233
0.671133
0.671023
0.670947
0.67087
0.670813
0.670738
0.670699
0.670664
0.670635
0.670592
0.670575
0.670557
0.670539
0.670495
0.670501
0.670492
0.670499
0.670499
0.670502
0.670492
0.670515
0.670514
0.670543
0.670541
0.670592
0.670592
0.670638
0.670638
0.670746
0.670746
0.670746
0.670791
0.670791
0.67092
0.671033
0.671115
0.671137
0.671137
0.671137
0.671266
0.671456
0.671488
0.671488
0.671626
0.671837
0.671884
0.672028
0.672243
0.672289
0.672474
0.672647
0.672855
0.673112
0.673368
0.67358
0.673909
0.67417
0.674481
0.674892
0.67527
0.675807
0.676333
0.677052
0.677779
0.678779
0.679819
0.681441
0.682755
0.686753
0.686609
0.714629
2.07509
232.498
0.770207
0.720716
0.700322
0.689872
0.683652
0.679637
0.676851
0.674856
0.673343
0.672199
0.671274
0.670551
0.669934
0.669441
0.66902
0.668678
0.668369
0.668119
0.667884
0.667697
0.667512
0.667368
0.667231
0.667124
0.667009
0.666927
0.666845
0.666784
0.666705
0.666663
0.666624
0.666593
0.666547
0.666528
0.666508
0.666488
0.666442
0.666445
0.666435
0.66644
0.66644
0.666442
0.66643
0.666451
0.666451
0.666478
0.666475
0.666526
0.666526
0.666572
0.666572
0.66668
0.66668
0.66668
0.666726
0.666726
0.666856
0.666971
0.667054
0.667078
0.667078
0.667078
0.667206
0.667402
0.667437
0.667437
0.667573
0.667789
0.667843
0.667984
0.668204
0.668256
0.668442
0.668618
0.668829
0.669088
0.66935
0.669567
0.669898
0.670168
0.670482
0.6709
0.671283
0.671828
0.672359
0.673087
0.673817
0.674831
0.675866
0.677511
0.678813
0.682847
0.682621
0.71138
2.14238
227.726
0.76965
0.718897
0.697743
0.686836
0.680325
0.676112
0.673184
0.671085
0.669493
0.668287
0.667313
0.666551
0.665901
0.665381
0.664936
0.664574
0.664248
0.663984
0.663736
0.663538
0.663342
0.66319
0.663045
0.662931
0.662809
0.662722
0.662634
0.662569
0.662486
0.66244
0.662397
0.662363
0.662315
0.662293
0.66227
0.662249
0.662201
0.662202
0.66219
0.662194
0.662193
0.662193
0.66218
0.6622
0.662199
0.662224
0.662221
0.662271
0.66227
0.662317
0.662317
0.662426
0.662425
0.662426
0.662472
0.662472
0.662602
0.66272
0.662805
0.662831
0.662831
0.66283
0.662958
0.663158
0.663197
0.663196
0.663332
0.663552
0.663614
0.663752
0.663975
0.664034
0.664221
0.6644
0.664614
0.664875
0.665142
0.665365
0.665699
0.665977
0.666295
0.666719
0.667107
0.667659
0.668195
0.668932
0.669665
0.670692
0.671723
0.673389
0.674679
0.678745
0.678438
0.70792
2.20903
222.342
0.769086
0.717022
0.695072
0.683685
0.676865
0.672442
0.669365
0.667156
0.66548
0.664209
0.663182
0.662378
0.661693
0.661144
0.660674
0.660292
0.659947
0.659668
0.659406
0.659196
0.65899
0.658828
0.658674
0.658553
0.658424
0.658331
0.658237
0.658168
0.65808
0.65803
0.657983
0.657946
0.657895
0.65787
0.657845
0.657822
0.657772
0.65777
0.657757
0.657759
0.657758
0.657756
0.657741
0.657759
0.657758
0.657781
0.657777
0.657826
0.657826
0.657872
0.657872
0.657981
0.657981
0.657981
0.658028
0.658028
0.658158
0.65828
0.658365
0.658393
0.658393
0.658393
0.658519
0.658724
0.658766
0.658766
0.658901
0.659125
0.659194
0.659329
0.659556
0.659622
0.659809
0.659992
0.660208
0.660472
0.660744
0.660972
0.661308
0.661596
0.661916
0.662348
0.662741
0.6633
0.663839
0.664586
0.665322
0.666361
0.667387
0.669073
0.670351
0.674446
0.67406
0.704236
2.27393
216.391
0.768516
0.715095
0.692311
0.680419
0.673274
0.668629
0.665393
0.663068
0.661303
0.659963
0.65888
0.658031
0.65731
0.65673
0.656234
0.655829
0.655466
0.655169
0.654893
0.654671
0.654453
0.654281
0.654118
0.653989
0.653853
0.653753
0.653654
0.653579
0.653487
0.653432
0.653381
0.653341
0.653287
0.653259
0.653231
0.653207
0.653155
0.65315
0.653134
0.653135
0.653134
0.65313
0.653113
0.653129
0.653127
0.653148
0.653143
0.653191
0.653191
0.653237
0.653237
0.653347
0.653347
0.653347
0.653394
0.653393
0.653524
0.653648
0.653735
0.653765
0.653765
0.653765
0.65389
0.654099
0.654146
0.654145
0.654278
0.654506
0.654584
0.654716
0.654946
0.655019
0.655207
0.655394
0.655612
0.655878
0.656155
0.656389
0.656727
0.657023
0.657347
0.657784
0.658183
0.658749
0.659292
0.660047
0.660785
0.661837
0.662856
0.664562
0.665826
0.669946
0.669484
0.70032
2.33586
209.923
0.767943
0.713119
0.689464
0.677042
0.669553
0.664675
0.661272
0.658823
0.656963
0.65555
0.654409
0.653513
0.652752
0.652139
0.651615
0.651188
0.650803
0.65049
0.650198
0.649962
0.649732
0.64955
0.649377
0.64924
0.649096
0.64899
0.648883
0.648804
0.648706
0.648646
0.648591
0.648548
0.64849
0.648459
0.648428
0.648402
0.648348
0.64834
0.648323
0.648322
0.648319
0.648314
0.648295
0.648309
0.648307
0.648326
0.648319
0.648366
0.648366
0.648411
0.648411
0.648521
0.648521
0.648521
0.648569
0.648568
0.648698
0.648826
0.648914
0.648945
0.648946
0.648946
0.649069
0.649283
0.649333
0.649333
0.649465
0.649696
0.649782
0.649911
0.650144
0.650225
0.650414
0.650603
0.650824
0.651092
0.651374
0.651613
0.651954
0.652258
0.652585
0.653029
0.653432
0.654005
0.654551
0.655315
0.656054
0.657118
0.65813
0.659854
0.661104
0.665246
0.664709
0.696159
2.39345
202.995
0.767369
0.711097
0.686534
0.673555
0.665705
0.66058
0.657
0.654422
0.652462
0.650971
0.649768
0.648822
0.64802
0.647373
0.646819
0.646367
0.645961
0.645629
0.64532
0.64507
0.644828
0.644634
0.644451
0.644305
0.644153
0.644039
0.643926
0.643841
0.643738
0.643673
0.643613
0.643566
0.643505
0.64347
0.643436
0.643408
0.643352
0.643342
0.643322
0.643319
0.643315
0.643308
0.643286
0.643299
0.643296
0.643313
0.643304
0.64335
0.64335
0.643395
0.643395
0.643505
0.643505
0.643505
0.643552
0.643552
0.643682
0.643812
0.643901
0.643935
0.643935
0.643935
0.644057
0.644275
0.64433
0.64433
0.64446
0.644694
0.644789
0.644915
0.64515
0.645239
0.645429
0.645621
0.645844
0.646114
0.646401
0.646646
0.646987
0.647301
0.64763
0.64808
0.648487
0.649067
0.649616
0.650388
0.651127
0.652204
0.653207
0.654948
0.656184
0.660342
0.659736
0.691743
2.44525
195.661
0.766794
0.709033
0.683523
0.66996
0.661732
0.656347
0.652582
0.649865
0.647801
0.646228
0.644959
0.64396
0.643114
0.642431
0.641846
0.641367
0.640938
0.640587
0.640261
0.639996
0.63974
0.639535
0.63934
0.639185
0.639024
0.638903
0.638782
0.638691
0.638583
0.638512
0.638447
0.638396
0.638331
0.638293
0.638255
0.638225
0.638166
0.638153
0.638131
0.638127
0.63812
0.638112
0.638088
0.638099
0.638095
0.638109
0.638099
0.638144
0.638144
0.638187
0.638187
0.638298
0.638298
0.638298
0.638345
0.638344
0.638474
0.638607
0.638697
0.638733
0.638733
0.638733
0.638853
0.639075
0.639134
0.639135
0.639263
0.6395
0.639604
0.639727
0.639964
0.640061
0.640252
0.640447
0.640672
0.640943
0.641235
0.641485
0.641828
0.64215
0.642482
0.642938
0.643349
0.643935
0.644486
0.645266
0.646005
0.647093
0.648087
0.649843
0.651064
0.655234
0.654562
0.687061
2.48978
187.98
0.766222
0.706928
0.680435
0.666262
0.657636
0.651978
0.648017
0.645156
0.64298
0.641321
0.639983
0.638928
0.638036
0.637314
0.636696
0.63619
0.635736
0.635364
0.63502
0.634739
0.634469
0.634251
0.634045
0.63388
0.63371
0.633581
0.633453
0.633355
0.633241
0.633164
0.633093
0.633038
0.632969
0.632928
0.632886
0.632854
0.632792
0.632776
0.632751
0.632745
0.632737
0.632727
0.632701
0.63271
0.632705
0.632716
0.632704
0.632747
0.632747
0.63279
0.63279
0.6329
0.6329
0.6329
0.632947
0.632946
0.633075
0.633211
0.633301
0.633339
0.63334
0.63334
0.633458
0.633683
0.633747
0.633748
0.633875
0.634113
0.634227
0.634347
0.634585
0.634691
0.634882
0.63508
0.635307
0.63558
0.635876
0.636132
0.636476
0.636806
0.637141
0.637603
0.638017
0.638609
0.639162
0.639949
0.640687
0.641785
0.642769
0.644539
0.645744
0.649921
0.649188
0.682104
2.52552
180.008
0.765653
0.704789
0.677273
0.662464
0.65342
0.647476
0.643308
0.640295
0.638002
0.636252
0.634841
0.633728
0.632787
0.632024
0.631371
0.630835
0.630356
0.629963
0.629599
0.629302
0.629016
0.628785
0.628567
0.628391
0.628212
0.628074
0.627937
0.627833
0.627712
0.62763
0.627553
0.627494
0.62742
0.627375
0.627329
0.627294
0.627229
0.62721
0.627183
0.627174
0.627164
0.627153
0.627125
0.627132
0.627126
0.627134
0.62712
0.62716
0.62716
0.627202
0.627202
0.627312
0.627312
0.627312
0.627358
0.627358
0.627486
0.627625
0.627715
0.627755
0.627755
0.627756
0.627872
0.6281
0.628169
0.62817
0.628296
0.628535
0.628659
0.628776
0.629014
0.629128
0.629321
0.629522
0.62975
0.630025
0.630324
0.630586
0.630931
0.631269
0.631606
0.632073
0.63249
0.633088
0.633642
0.634437
0.635172
0.63628
0.637253
0.639034
0.640223
0.644402
0.643613
0.676861
2.551
171.8
0.76509
0.702617
0.674043
0.658568
0.649087
0.642842
0.638458
0.635284
0.632869
0.631023
0.629535
0.62836
0.627367
0.626562
0.625872
0.625305
0.6248
0.624383
0.623999