/*--------------------------------*- C++ -*----------------------------------*\
| =========                 |                                                 |
| \\      /  F ield         | OpenFOAM: The Open Source CFD Toolbox           |
|  \\    /   O peration     | Version:  v2012                                 |
|   \\  /    A nd           | Website:  www.openfoam.com                      |
|    \\/     M anipulation  |                                                 |
\*---------------------------------------------------------------------------*/
FoamFile
{
    version     2.0;
    format      ascii;
    class       volScalarField;
    location    "23";
    object      yPlus;
}
// * * * * * * * * * * * * * * * * * * * * * * * * * * * * * * * * * * * * * //

dimensions      [0 0 0 0 0 0 0];


internalField   uniform 0;

boundaryField
{
    inlet
    {
        type            calculated;
        value           uniform 0;
    }
    outlet
    {
        type            calculated;
        value           uniform 0;
    }
    topWall
    {
        type            calculated;
        value           nonuniform List<scalar> 
545
(
0.0705134
0.121593
0.155984
0.183342
0.20649
0.226731
0.244795
0.261144
0.27609
0.289861
0.302624
0.314511
0.325625
0.336053
0.345863
0.355114
0.363857
0.372134
0.379984
0.387438
0.394527
0.401275
0.407706
0.413841
0.419698
0.425296
0.430648
0.43577
0.440675
0.445374
0.449879
0.454201
0.458348
0.46233
0.466155
0.469831
0.473365
0.476763
0.480034
0.483181
0.486211
0.489129
0.491941
0.49465
0.497262
0.499781
0.50221
0.504553
0.506814
0.508997
0.511104
0.513139
0.515104
0.517003
0.518837
0.52061
0.522324
0.523982
0.525584
0.527134
0.528633
0.530084
0.531487
0.532846
0.53416
0.535433
0.536666
0.53786
0.539016
0.540135
0.54122
0.542271
0.543276
0.544248
0.545211
0.546165
0.54711
0.548048
0.548976
0.549897
0.550809
0.551713
0.552609
0.553497
0.554377
0.55525
0.556114
0.556972
0.557821
0.558663
0.559498
0.560325
0.561145
0.561958
0.562764
0.563563
0.564282
0.564925
0.565566
0.566208
0.566848
0.567488
0.568127
0.568766
0.569403
0.57004
0.570677
0.571312
0.571947
0.572581
0.573215
0.573848
0.57448
0.575111
0.575741
0.576371
0.577
0.577628
0.578255
0.578882
0.579507
0.580132
0.580756
0.581379
0.582002
0.582623
0.583244
0.583864
0.584483
0.585101
0.585718
0.586334
0.58695
0.587564
0.588177
0.58879
0.589402
0.590013
0.590622
0.591231
0.591839
0.592446
0.593052
0.593657
0.594261
0.594863
0.595465
0.596066
0.596666
0.597265
0.597862
0.598459
0.599055
0.599649
0.600243
0.600835
0.601426
0.602016
0.602605
0.603193
0.60378
0.604366
0.60495
0.605533
0.606115
0.606696
0.607276
0.607855
0.608432
0.609008
0.609583
0.610156
0.610729
0.6113
0.61187
0.612438
0.613006
0.613572
0.614136
0.6147
0.615262
0.615822
0.616382
0.61694
0.617497
0.618052
0.618606
0.619158
0.619709
0.620259
0.620807
0.621354
0.6219
0.622444
0.622986
0.623527
0.624067
0.624605
0.625141
0.625677
0.62621
0.626742
0.627273
0.627802
0.628329
0.628855
0.629379
0.629902
0.630423
0.630942
0.63146
0.631976
0.632491
0.633004
0.633515
0.634024
0.634532
0.635038
0.635543
0.636046
0.636547
0.637046
0.637544
0.638039
0.638533
0.639026
0.639516
0.640005
0.640492
0.640977
0.64146
0.641941
0.642421
0.642898
0.643374
0.643848
0.64432
0.64479
0.645258
0.645725
0.646189
0.646651
0.647112
0.64757
0.648027
0.648481
0.648933
0.649384
0.649832
0.650279
0.650723
0.651165
0.651606
0.652044
0.65248
0.652914
0.653346
0.653775
0.654203
0.654628
0.655052
0.655473
0.655892
0.656309
0.656723
0.657136
0.657546
0.657954
0.658359
0.65874
0.659099
0.659458
0.659819
0.660181
0.660544
0.660908
0.661274
0.66164
0.662008
0.662376
0.662746
0.663116
0.663487
0.663859
0.664232
0.664605
0.664979
0.665354
0.665729
0.666105
0.666481
0.666857
0.667234
0.667611
0.667988
0.668365
0.668742
0.669119
0.669496
0.669873
0.670249
0.670625
0.671
0.671375
0.67175
0.672123
0.672496
0.672868
0.673238
0.673608
0.673976
0.674344
0.674709
0.675073
0.675436
0.675797
0.676156
0.676513
0.676868
0.67722
0.67757
0.677918
0.678264
0.678606
0.678946
0.679282
0.679616
0.679946
0.680273
0.680596
0.680916
0.681231
0.681543
0.68185
0.682153
0.682452
0.682746
0.683035
0.683319
0.683598
0.683872
0.68414
0.684402
0.684659
0.684909
0.685154
0.685391
0.685623
0.685847
0.686064
0.686274
0.686477
0.686672
0.686859
0.687038
0.687209
0.687372
0.687525
0.68767
0.687806
0.687932
0.688049
0.688157
0.688254
0.688341
0.688417
0.688483
0.688538
0.688582
0.688614
0.688635
0.688644
0.688641
0.688626
0.688598
0.688558
0.688504
0.688438
0.688358
0.688264
0.688156
0.688034
0.687898
0.687747
0.687582
0.687401
0.687205
0.686994
0.686767
0.686524
0.686265
0.68599
0.685698
0.685389
0.685063
0.68472
0.68436
0.683982
0.683587
0.683174
0.682742
0.682293
0.681825
0.681338
0.680833
0.680309
0.679766
0.679203
0.678622
0.678021
0.677401
0.676761
0.676101
0.675422
0.674723
0.674004
0.673265
0.672506
0.671727
0.670928
0.670108
0.669269
0.66841
0.66753
0.66663
0.665711
0.664771
0.663812
0.662832
0.661833
0.660814
0.659775
0.658717
0.65764
0.656543
0.655428
0.654293
0.65314
0.651968
0.650778
0.64957
0.648344
0.647101
0.64584
0.644562
0.643267
0.641956
0.640629
0.639286
0.637927
0.636399
0.63471
0.633022
0.631336
0.629653
0.627974
0.6263
0.624632
0.622969
0.621313
0.619665
0.618025
0.616394
0.614772
0.61316
0.611559
0.609968
0.608389
0.606822
0.605267
0.603725
0.602196
0.60068
0.599178
0.59769
0.596217
0.594759
0.593316
0.591888
0.590476
0.589081
0.587701
0.586338
0.584991
0.583662
0.58235
0.581055
0.579778
0.578519
0.577278
0.576055
0.57485
0.573665
0.572497
0.571349
0.570221
0.569111
0.568021
0.566951
0.5659
0.564869
0.563859
0.562869
0.561899
0.56095
0.560022
0.559115
0.558228
0.557363
0.55652
0.555698
0.554897
0.554119
0.553362
0.552627
0.551915
0.551225
0.550557
0.549912
0.54929
0.54869
0.548114
0.547561
0.54703
0.546524
0.54604
0.54558
0.545144
0.544732
0.544343
0.543978
0.543638
0.543321
0.543028
0.54276
0.542516
0.542297
0.542101
0.541931
0.541784
0.541662
0.541565
0.541492
0.541447
0.541412
)
;
    }
    bottomWall
    {
        type            calculated;
        value           nonuniform List<scalar> 
449
(
0.139498
0.0889872
0.0758324
0.0694584
0.0652736
0.0621461
0.0596502
0.057586
0.0558344
0.0543176
0.0529834
0.0517954
0.050727
0.0497581
0.0488731
0.0480596
0.0473078
0.0466097
0.0459587
0.0453493
0.044777
0.0442377
0.0437283
0.0432457
0.0427876
0.0423518
0.0419364
0.0415396
0.04116
0.0407963
0.0404474
0.0401121
0.0397895
0.0394788
0.0391792
0.0388899
0.0386104
0.0383401
0.0380783
0.0378247
0.0375788
0.0373401
0.0371083
0.036883
0.0366639
0.0364507
0.0362431
0.0360409
0.0358437
0.0356514
0.0354637
0.0352805
0.0351015
0.0349266
0.0347556
0.0345883
0.0344247
0.0342645
0.0341076
0.0339539
0.0338033
0.0336557
0.0335109
0.0333689
0.0332296
0.0330928
0.0329585
0.0328267
0.0326971
0.0325698
0.0324447
0.0323217
0.0322008
0.0320818
0.0319648
0.0318496
0.0317363
0.0316247
0.0315148
0.0314066
0.0313
0.031195
0.0310915
0.0309895
0.0308889
0.0307898
0.030692
0.0305956
0.0305005
0.0304067
0.0303141
0.0302227
0.0301325
0.0300434
0.0299555
0.0298687
0.0297829
0.0296983
0.0296146
0.0295319
0.0294503
0.0293696
0.0292898
0.0292109
0.029133
0.0290559
0.0289797
0.0289043
0.0288298
0.0287561
0.0286832
0.028611
0.0285396
0.028469
0.0283991
0.0283299
0.0282614
0.0281936
0.0281265
0.0280601
0.0279943
0.0279291
0.0278646
0.0278007
0.0277374
0.0276748
0.0276127
0.0275511
0.0274902
0.0274298
0.0273699
0.0273106
0.0272518
0.0271936
0.0271358
0.0270786
0.0270218
0.0269656
0.0269098
0.0268545
0.0267996
0.0267452
0.0266913
0.0266378
0.0265847
0.0265321
0.0264799
0.0264281
0.0263767
0.0263257
0.0262752
0.026225
0.0261752
0.0261258
0.0260767
0.0260281
0.0259798
0.0259318
0.0258842
0.025837
0.0257901
0.0257436
0.0256973
0.0256515
0.0256059
0.0255607
0.0255157
0.0254711
0.0254269
0.0253829
0.0253392
0.0252958
0.0252527
0.0252124
0.0251744
0.0251363
0.0250981
0.0250598
0.0250214
0.024983
0.0249444
0.0249057
0.024867
0.0248281
0.0247892
0.0247502
0.0247111
0.0246719
0.0246326
0.0245932
0.0245537
0.0245142
0.0244746
0.0244349
0.0243951
0.0243552
0.0243152
0.0242752
0.0242351
0.024195
0.0241547
0.0241144
0.024074
0.0240336
0.0239931
0.0239525
0.0239118
0.0238711
0.0238303
0.0237895
0.0237486
0.0237077
0.0236667
0.0236256
0.0235845
0.0235433
0.0235021
0.0234608
0.0234195
0.0233782
0.0233368
0.0232953
0.0232538
0.0232123
0.0231707
0.0231291
0.0230875
0.0230458
0.0230041
0.0229623
0.0229205
0.0228787
0.0228369
0.022795
0.0227531
0.0227112
0.0226693
0.0226273
0.0225853
0.0225433
0.0225013
0.0224593
0.0224172
0.0223752
0.0223331
0.022291
0.0222489
0.0222068
0.0221647
0.0221226
0.0220804
0.0220383
0.0219962
0.0219541
0.0219119
0.0218698
0.0218277
0.0217856
0.0217434
0.0217013
0.0216592
0.0216172
0.0215751
0.021533
0.021491
0.0214489
0.0214069
0.0213649
0.0213229
0.021281
0.021239
0.0211971
0.0211552
0.0211133
0.0210715
0.0210296
0.0209879
0.0209461
0.0209043
0.0208626
0.020821
0.0207793
0.0207377
0.0206961
0.0206546
0.0206131
0.0205717
0.0205302
0.0204889
0.0204475
0.0204062
0.020365
0.0203238
0.0202826
0.0202415
0.0202004
0.0201594
0.0201185
0.0200776
0.0200367
0.0199959
0.0199551
0.0199144
0.0198738
0.0198332
0.0197927
0.0197522
0.0197118
0.0196714
0.0196311
0.0195909
0.0195507
0.0195106
0.0194706
0.0194306
0.0193907
0.0193509
0.0193111
0.0192714
0.0192317
0.0191922
0.0191527
0.0191132
0.0190739
0.0190346
0.0189954
0.0189563
0.0189172
0.0188782
0.0188393
0.0188005
0.0187617
0.0187231
0.0186845
0.0186459
0.0186075
0.0185692
0.0185309
0.0184927
0.0184546
0.0184166
0.0183786
0.0183408
0.018303
0.0182653
0.0182277
0.0181902
0.0181528
0.0181154
0.0180782
0.018041
0.018004
0.017967
0.0179301
0.0178891
0.0178445
0.0178007
0.0177575
0.017715
0.0176731
0.0176318
0.0175912
0.0175512
0.0175118
0.017473
0.0174347
0.017397
0.0173599
0.0173232
0.0172871
0.0172515
0.0172164
0.0171817
0.0171476
0.0171138
0.0170806
0.0170478
0.0170154
0.0169834
0.0169518
0.0169206
0.0168898
0.0168595
0.0168294
0.0167998
0.0167705
0.0167416
0.016713
0.0166847
0.0166568
0.0166292
0.0166019
0.016575
0.0165483
0.016522
0.0164959
0.0164702
0.0164447
0.0164195
0.0163946
0.0163699
0.0163455
0.0163214
0.0162975
0.0162739
0.0162505
0.0162274
0.0162045
0.0161818
0.0161594
0.0161372
0.0161152
0.0160934
0.0160719
0.0160505
0.0160294
0.0160084
0.0159877
0.0159672
0.0159468
0.0159267
0.0159067
0.0158869
0.0158673
0.0158479
0.0158286
0.0158096
0.0157906
0.0157719
0.0157533
0.0157349
0.0157166
0.0156985
0.0156805
0.0156627
0.0156451
0.0156275
0.0156101
0.0155928
0.0155757
0.0155586
0.0155417
0.0155248
0.0155078
0.0154913
0.0154752
0.0154482
0.0154636
0.0154159
)
;
    }
    symmetry
    {
        type            symmetryPlane;
    }
    frontAndBack
    {
        type            empty;
    }
}


// ************************************************************************* //
