/*--------------------------------*- C++ -*----------------------------------*\
| =========                 |                                                 |
| \\      /  F ield         | OpenFOAM: The Open Source CFD Toolbox           |
|  \\    /   O peration     | Version:  v2012                                 |
|   \\  /    A nd           | Website:  www.openfoam.com                      |
|    \\/     M anipulation  |                                                 |
\*---------------------------------------------------------------------------*/
FoamFile
{
    version     2.0;
    format      ascii;
    class       volVectorField;
    location    "48";
    object      wallShearStress;
}
// * * * * * * * * * * * * * * * * * * * * * * * * * * * * * * * * * * * * * //

dimensions      [0 2 -2 0 0 0 0];


internalField   uniform (0 0 0);

boundaryField
{
    inlet
    {
        type            calculated;
        value           uniform (0 0 0);
    }
    outlet
    {
        type            calculated;
        value           uniform (0 0 0);
    }
    topWall
    {
        type            calculated;
        value           nonuniform List<vector> 
545
(
(1.48725e-08 -1.0469e-08 0)
(1.48657e-08 -2.92882e-08 0)
(1.48519e-08 -4.8856e-08 0)
(1.48315e-08 -6.78498e-08 0)
(1.48053e-08 -8.60225e-08 0)
(1.47741e-08 -1.03605e-07 0)
(1.47382e-08 -1.20747e-07 0)
(1.46979e-08 -1.37437e-07 0)
(1.46537e-08 -1.53638e-07 0)
(1.4606e-08 -1.69349e-07 0)
(1.45551e-08 -1.8459e-07 0)
(1.45014e-08 -1.99378e-07 0)
(1.44452e-08 -2.13724e-07 0)
(1.43867e-08 -2.27636e-07 0)
(1.43263e-08 -2.41125e-07 0)
(1.42642e-08 -2.54202e-07 0)
(1.42005e-08 -2.66878e-07 0)
(1.41357e-08 -2.79164e-07 0)
(1.40698e-08 -2.91072e-07 0)
(1.4003e-08 -3.0261e-07 0)
(1.39356e-08 -3.13791e-07 0)
(1.38676e-08 -3.24623e-07 0)
(1.37993e-08 -3.35119e-07 0)
(1.37307e-08 -3.45287e-07 0)
(1.36621e-08 -3.55138e-07 0)
(1.35934e-08 -3.64681e-07 0)
(1.35249e-08 -3.73926e-07 0)
(1.34566e-08 -3.82881e-07 0)
(1.33886e-08 -3.91556e-07 0)
(1.3321e-08 -3.9996e-07 0)
(1.32539e-08 -4.08101e-07 0)
(1.31873e-08 -4.15987e-07 0)
(1.31213e-08 -4.23627e-07 0)
(1.30559e-08 -4.31028e-07 0)
(1.29913e-08 -4.38198e-07 0)
(1.29274e-08 -4.45145e-07 0)
(1.28643e-08 -4.51876e-07 0)
(1.2802e-08 -4.58397e-07 0)
(1.27405e-08 -4.64715e-07 0)
(1.26799e-08 -4.70838e-07 0)
(1.26203e-08 -4.76771e-07 0)
(1.25615e-08 -4.8252e-07 0)
(1.25037e-08 -4.88092e-07 0)
(1.24468e-08 -4.93493e-07 0)
(1.23909e-08 -4.98727e-07 0)
(1.23359e-08 -5.038e-07 0)
(1.22819e-08 -5.08718e-07 0)
(1.22289e-08 -5.13485e-07 0)
(1.21768e-08 -5.18106e-07 0)
(1.21258e-08 -5.22587e-07 0)
(1.20757e-08 -5.26932e-07 0)
(1.20266e-08 -5.31144e-07 0)
(1.19784e-08 -5.35229e-07 0)
(1.19312e-08 -5.39191e-07 0)
(1.1885e-08 -5.43032e-07 0)
(1.18397e-08 -5.46759e-07 0)
(1.17953e-08 -5.50373e-07 0)
(1.17519e-08 -5.53879e-07 0)
(1.17094e-08 -5.5728e-07 0)
(1.16678e-08 -5.60579e-07 0)
(1.16271e-08 -5.6378e-07 0)
(1.15873e-08 -5.66886e-07 0)
(1.15484e-08 -5.699e-07 0)
(1.15103e-08 -5.72825e-07 0)
(1.14731e-08 -5.75663e-07 0)
(1.14367e-08 -5.78417e-07 0)
(1.14011e-08 -5.81091e-07 0)
(1.13664e-08 -5.83686e-07 0)
(1.13324e-08 -5.86205e-07 0)
(1.12992e-08 -5.8865e-07 0)
(1.12668e-08 -5.91024e-07 0)
(1.12353e-08 -5.93326e-07 0)
(1.12048e-08 -5.95538e-07 0)
(1.11747e-08 -5.97682e-07 0)
(1.11449e-08 -5.99799e-07 0)
(1.11153e-08 -6.01905e-07 0)
(1.10858e-08 -6.03998e-07 0)
(1.10563e-08 -6.06077e-07 0)
(1.10268e-08 -6.0814e-07 0)
(1.09974e-08 -6.10187e-07 0)
(1.09681e-08 -6.1222e-07 0)
(1.09388e-08 -6.14238e-07 0)
(1.09096e-08 -6.16242e-07 0)
(1.08805e-08 -6.18231e-07 0)
(1.08514e-08 -6.20206e-07 0)
(1.08224e-08 -6.22166e-07 0)
(1.07934e-08 -6.24112e-07 0)
(1.07646e-08 -6.26045e-07 0)
(1.07357e-08 -6.27963e-07 0)
(1.0707e-08 -6.29867e-07 0)
(1.06783e-08 -6.31758e-07 0)
(1.06497e-08 -6.33635e-07 0)
(1.06211e-08 -6.35498e-07 0)
(1.05927e-08 -6.37347e-07 0)
(1.0564e-08 -6.39187e-07 0)
(1.05368e-08 -6.40993e-07 0)
(1.05117e-08 -6.42646e-07 0)
(1.04874e-08 -6.44142e-07 0)
(1.0464e-08 -6.45597e-07 0)
(1.04407e-08 -6.47058e-07 0)
(1.04173e-08 -6.4853e-07 0)
(1.03939e-08 -6.50005e-07 0)
(1.03704e-08 -6.51477e-07 0)
(1.03468e-08 -6.52947e-07 0)
(1.03231e-08 -6.54419e-07 0)
(1.02993e-08 -6.5589e-07 0)
(1.02754e-08 -6.57362e-07 0)
(1.02514e-08 -6.58834e-07 0)
(1.02273e-08 -6.60305e-07 0)
(1.02031e-08 -6.61777e-07 0)
(1.01789e-08 -6.63249e-07 0)
(1.01545e-08 -6.6472e-07 0)
(1.01301e-08 -6.66192e-07 0)
(1.01055e-08 -6.67663e-07 0)
(1.00809e-08 -6.69135e-07 0)
(1.00561e-08 -6.70606e-07 0)
(1.00313e-08 -6.72077e-07 0)
(1.00064e-08 -6.73548e-07 0)
(9.98136e-09 -6.75019e-07 0)
(9.95625e-09 -6.76489e-07 0)
(9.93105e-09 -6.77959e-07 0)
(9.90575e-09 -6.79429e-07 0)
(9.88035e-09 -6.80899e-07 0)
(9.85486e-09 -6.82368e-07 0)
(9.82928e-09 -6.83837e-07 0)
(9.8036e-09 -6.85306e-07 0)
(9.77782e-09 -6.86774e-07 0)
(9.75196e-09 -6.88242e-07 0)
(9.72599e-09 -6.89709e-07 0)
(9.69994e-09 -6.91176e-07 0)
(9.67378e-09 -6.92642e-07 0)
(9.64754e-09 -6.94108e-07 0)
(9.62119e-09 -6.95574e-07 0)
(9.59476e-09 -6.97038e-07 0)
(9.56822e-09 -6.98502e-07 0)
(9.5416e-09 -6.99966e-07 0)
(9.51487e-09 -7.01429e-07 0)
(9.48806e-09 -7.02891e-07 0)
(9.46115e-09 -7.04353e-07 0)
(9.43414e-09 -7.05813e-07 0)
(9.40704e-09 -7.07273e-07 0)
(9.37984e-09 -7.08733e-07 0)
(9.35255e-09 -7.10191e-07 0)
(9.32516e-09 -7.11649e-07 0)
(9.29768e-09 -7.13106e-07 0)
(9.27011e-09 -7.14562e-07 0)
(9.24244e-09 -7.16017e-07 0)
(9.21467e-09 -7.17471e-07 0)
(9.18681e-09 -7.18924e-07 0)
(9.15886e-09 -7.20376e-07 0)
(9.13081e-09 -7.21827e-07 0)
(9.10267e-09 -7.23277e-07 0)
(9.07443e-09 -7.24726e-07 0)
(9.0461e-09 -7.26174e-07 0)
(9.01767e-09 -7.27621e-07 0)
(8.98915e-09 -7.29066e-07 0)
(8.96054e-09 -7.30511e-07 0)
(8.93183e-09 -7.31954e-07 0)
(8.90303e-09 -7.33396e-07 0)
(8.87413e-09 -7.34836e-07 0)
(8.84514e-09 -7.36276e-07 0)
(8.81606e-09 -7.37714e-07 0)
(8.78688e-09 -7.39151e-07 0)
(8.75761e-09 -7.40586e-07 0)
(8.72825e-09 -7.4202e-07 0)
(8.6988e-09 -7.43452e-07 0)
(8.66925e-09 -7.44883e-07 0)
(8.63961e-09 -7.46312e-07 0)
(8.60987e-09 -7.4774e-07 0)
(8.58005e-09 -7.49166e-07 0)
(8.55013e-09 -7.50591e-07 0)
(8.52012e-09 -7.52014e-07 0)
(8.49002e-09 -7.53435e-07 0)
(8.45982e-09 -7.54855e-07 0)
(8.42954e-09 -7.56273e-07 0)
(8.39916e-09 -7.57689e-07 0)
(8.36869e-09 -7.59104e-07 0)
(8.33814e-09 -7.60516e-07 0)
(8.30749e-09 -7.61927e-07 0)
(8.27675e-09 -7.63336e-07 0)
(8.24592e-09 -7.64742e-07 0)
(8.215e-09 -7.66147e-07 0)
(8.18399e-09 -7.6755e-07 0)
(8.15289e-09 -7.68951e-07 0)
(8.1217e-09 -7.7035e-07 0)
(8.09042e-09 -7.71747e-07 0)
(8.05906e-09 -7.73142e-07 0)
(8.0276e-09 -7.74534e-07 0)
(7.99606e-09 -7.75924e-07 0)
(7.96443e-09 -7.77313e-07 0)
(7.93271e-09 -7.78698e-07 0)
(7.90091e-09 -7.80082e-07 0)
(7.86901e-09 -7.81463e-07 0)
(7.83704e-09 -7.82842e-07 0)
(7.80497e-09 -7.84219e-07 0)
(7.77282e-09 -7.85593e-07 0)
(7.74058e-09 -7.86964e-07 0)
(7.70826e-09 -7.88334e-07 0)
(7.67585e-09 -7.897e-07 0)
(7.64336e-09 -7.91064e-07 0)
(7.61078e-09 -7.92426e-07 0)
(7.57812e-09 -7.93785e-07 0)
(7.54538e-09 -7.95141e-07 0)
(7.51255e-09 -7.96494e-07 0)
(7.47964e-09 -7.97845e-07 0)
(7.44665e-09 -7.99193e-07 0)
(7.41357e-09 -8.00538e-07 0)
(7.38042e-09 -8.01881e-07 0)
(7.34718e-09 -8.0322e-07 0)
(7.31386e-09 -8.04557e-07 0)
(7.28046e-09 -8.0589e-07 0)
(7.24699e-09 -8.07221e-07 0)
(7.21343e-09 -8.08549e-07 0)
(7.17979e-09 -8.09873e-07 0)
(7.14608e-09 -8.11195e-07 0)
(7.11228e-09 -8.12513e-07 0)
(7.07841e-09 -8.13828e-07 0)
(7.04447e-09 -8.1514e-07 0)
(7.01044e-09 -8.16449e-07 0)
(6.97634e-09 -8.17755e-07 0)
(6.94217e-09 -8.19057e-07 0)
(6.90791e-09 -8.20356e-07 0)
(6.87359e-09 -8.21651e-07 0)
(6.83919e-09 -8.22943e-07 0)
(6.80472e-09 -8.24232e-07 0)
(6.77017e-09 -8.25517e-07 0)
(6.73555e-09 -8.26798e-07 0)
(6.70086e-09 -8.28076e-07 0)
(6.6661e-09 -8.2935e-07 0)
(6.63127e-09 -8.30621e-07 0)
(6.59637e-09 -8.31888e-07 0)
(6.5614e-09 -8.33151e-07 0)
(6.52636e-09 -8.34411e-07 0)
(6.49125e-09 -8.35667e-07 0)
(6.45607e-09 -8.36918e-07 0)
(6.42083e-09 -8.38166e-07 0)
(6.38552e-09 -8.39411e-07 0)
(6.35015e-09 -8.40651e-07 0)
(6.31471e-09 -8.41887e-07 0)
(6.27921e-09 -8.43119e-07 0)
(6.24364e-09 -8.44347e-07 0)
(6.20801e-09 -8.45571e-07 0)
(6.17231e-09 -8.46791e-07 0)
(6.13656e-09 -8.48006e-07 0)
(6.10074e-09 -8.49218e-07 0)
(6.06487e-09 -8.50425e-07 0)
(6.02893e-09 -8.51628e-07 0)
(5.99294e-09 -8.52826e-07 0)
(5.95689e-09 -8.5402e-07 0)
(5.92078e-09 -8.5521e-07 0)
(5.88461e-09 -8.56395e-07 0)
(5.84839e-09 -8.57576e-07 0)
(5.81212e-09 -8.58752e-07 0)
(5.77579e-09 -8.59924e-07 0)
(5.7394e-09 -8.61091e-07 0)
(5.70297e-09 -8.62253e-07 0)
(5.66648e-09 -8.63411e-07 0)
(5.62994e-09 -8.64564e-07 0)
(5.59335e-09 -8.65712e-07 0)
(5.55671e-09 -8.66856e-07 0)
(5.52003e-09 -8.67994e-07 0)
(5.48329e-09 -8.69128e-07 0)
(5.44651e-09 -8.70256e-07 0)
(5.40968e-09 -8.7138e-07 0)
(5.37281e-09 -8.72499e-07 0)
(5.33588e-09 -8.73613e-07 0)
(5.29897e-09 -8.74721e-07 0)
(5.26176e-09 -8.75826e-07 0)
(5.22562e-09 -8.76918e-07 0)
(5.191e-09 -8.77954e-07 0)
(5.15691e-09 -8.78935e-07 0)
(5.12323e-09 -8.79905e-07 0)
(5.0894e-09 -8.80881e-07 0)
(5.0553e-09 -8.81865e-07 0)
(5.02087e-09 -8.82855e-07 0)
(4.98612e-09 -8.83847e-07 0)
(4.95103e-09 -8.84842e-07 0)
(4.91562e-09 -8.85841e-07 0)
(4.87987e-09 -8.86844e-07 0)
(4.84378e-09 -8.8785e-07 0)
(4.80736e-09 -8.88859e-07 0)
(4.7706e-09 -8.89872e-07 0)
(4.73349e-09 -8.90888e-07 0)
(4.69604e-09 -8.91907e-07 0)
(4.65825e-09 -8.92929e-07 0)
(4.62011e-09 -8.93953e-07 0)
(4.58163e-09 -8.9498e-07 0)
(4.54279e-09 -8.96009e-07 0)
(4.5036e-09 -8.97041e-07 0)
(4.46407e-09 -8.98075e-07 0)
(4.42418e-09 -8.99111e-07 0)
(4.38393e-09 -9.00148e-07 0)
(4.34333e-09 -9.01188e-07 0)
(4.30237e-09 -9.02228e-07 0)
(4.26106e-09 -9.0327e-07 0)
(4.21939e-09 -9.04314e-07 0)
(4.17735e-09 -9.05358e-07 0)
(4.13496e-09 -9.06402e-07 0)
(4.09221e-09 -9.07448e-07 0)
(4.0491e-09 -9.08493e-07 0)
(4.00562e-09 -9.09539e-07 0)
(3.96179e-09 -9.10585e-07 0)
(3.91759e-09 -9.1163e-07 0)
(3.87302e-09 -9.12675e-07 0)
(3.8281e-09 -9.13719e-07 0)
(3.78281e-09 -9.14762e-07 0)
(3.73717e-09 -9.15803e-07 0)
(3.69116e-09 -9.16843e-07 0)
(3.64478e-09 -9.17882e-07 0)
(3.59805e-09 -9.18918e-07 0)
(3.55096e-09 -9.19952e-07 0)
(3.50351e-09 -9.20983e-07 0)
(3.4557e-09 -9.22012e-07 0)
(3.40753e-09 -9.23037e-07 0)
(3.35901e-09 -9.24059e-07 0)
(3.31013e-09 -9.25077e-07 0)
(3.2609e-09 -9.26091e-07 0)
(3.21131e-09 -9.27101e-07 0)
(3.16138e-09 -9.28105e-07 0)
(3.1111e-09 -9.29105e-07 0)
(3.06048e-09 -9.301e-07 0)
(3.00951e-09 -9.31088e-07 0)
(2.9582e-09 -9.32071e-07 0)
(2.90656e-09 -9.33047e-07 0)
(2.85458e-09 -9.34016e-07 0)
(2.80227e-09 -9.34978e-07 0)
(2.74963e-09 -9.35932e-07 0)
(2.69667e-09 -9.36878e-07 0)
(2.64339e-09 -9.37816e-07 0)
(2.58979e-09 -9.38745e-07 0)
(2.53589e-09 -9.39665e-07 0)
(2.48167e-09 -9.40575e-07 0)
(2.42715e-09 -9.41475e-07 0)
(2.37234e-09 -9.42365e-07 0)
(2.31723e-09 -9.43244e-07 0)
(2.26184e-09 -9.44111e-07 0)
(2.20616e-09 -9.44966e-07 0)
(2.15021e-09 -9.45809e-07 0)
(2.094e-09 -9.4664e-07 0)
(2.03752e-09 -9.47457e-07 0)
(1.98078e-09 -9.4826e-07 0)
(1.9238e-09 -9.49049e-07 0)
(1.86658e-09 -9.49823e-07 0)
(1.80913e-09 -9.50581e-07 0)
(1.75145e-09 -9.51324e-07 0)
(1.69356e-09 -9.52051e-07 0)
(1.63546e-09 -9.52761e-07 0)
(1.57716e-09 -9.53453e-07 0)
(1.51867e-09 -9.54127e-07 0)
(1.46e-09 -9.54783e-07 0)
(1.40116e-09 -9.5542e-07 0)
(1.34216e-09 -9.56037e-07 0)
(1.28301e-09 -9.56634e-07 0)
(1.22373e-09 -9.5721e-07 0)
(1.16432e-09 -9.57764e-07 0)
(1.10479e-09 -9.58297e-07 0)
(1.04516e-09 -9.58807e-07 0)
(9.85439e-10 -9.59294e-07 0)
(9.25638e-10 -9.59757e-07 0)
(8.65772e-10 -9.60196e-07 0)
(8.05854e-10 -9.60609e-07 0)
(7.45897e-10 -9.60998e-07 0)
(6.85915e-10 -9.61359e-07 0)
(6.25922e-10 -9.61694e-07 0)
(5.65932e-10 -9.62002e-07 0)
(5.05962e-10 -9.62281e-07 0)
(4.46026e-10 -9.62532e-07 0)
(3.86139e-10 -9.62753e-07 0)
(3.26318e-10 -9.62945e-07 0)
(2.66579e-10 -9.63105e-07 0)
(2.06938e-10 -9.63234e-07 0)
(1.47412e-10 -9.63332e-07 0)
(8.80188e-11 -9.63396e-07 0)
(2.87756e-11 -9.63428e-07 0)
(-3.02998e-11 -9.63426e-07 0)
(-8.91894e-11 -9.63389e-07 0)
(-1.47875e-10 -9.63317e-07 0)
(-2.06337e-10 -9.63209e-07 0)
(-2.64558e-10 -9.63065e-07 0)
(-3.22517e-10 -9.62884e-07 0)
(-3.80196e-10 -9.62665e-07 0)
(-4.37575e-10 -9.62408e-07 0)
(-4.94634e-10 -9.62112e-07 0)
(-5.51353e-10 -9.61777e-07 0)
(-6.07712e-10 -9.61401e-07 0)
(-6.63689e-10 -9.60985e-07 0)
(-7.19265e-10 -9.60528e-07 0)
(-7.74419e-10 -9.60029e-07 0)
(-8.29129e-10 -9.59487e-07 0)
(-8.83375e-10 -9.58903e-07 0)
(-9.37135e-10 -9.58275e-07 0)
(-9.90389e-10 -9.57603e-07 0)
(-1.04311e-09 -9.56887e-07 0)
(-1.09529e-09 -9.56125e-07 0)
(-1.14689e-09 -9.55318e-07 0)
(-1.19791e-09 -9.54466e-07 0)
(-1.2483e-09 -9.53566e-07 0)
(-1.29807e-09 -9.5262e-07 0)
(-1.34717e-09 -9.51627e-07 0)
(-1.3956e-09 -9.50585e-07 0)
(-1.44333e-09 -9.49496e-07 0)
(-1.49034e-09 -9.48358e-07 0)
(-1.53661e-09 -9.47171e-07 0)
(-1.58212e-09 -9.45936e-07 0)
(-1.62685e-09 -9.4465e-07 0)
(-1.67077e-09 -9.43315e-07 0)
(-1.71387e-09 -9.4193e-07 0)
(-1.75614e-09 -9.40494e-07 0)
(-1.79754e-09 -9.39009e-07 0)
(-1.83806e-09 -9.37472e-07 0)
(-1.87768e-09 -9.35884e-07 0)
(-1.91638e-09 -9.34246e-07 0)
(-1.95415e-09 -9.32556e-07 0)
(-1.99097e-09 -9.30815e-07 0)
(-2.02681e-09 -9.29023e-07 0)
(-2.06168e-09 -9.2718e-07 0)
(-2.09554e-09 -9.25285e-07 0)
(-2.12838e-09 -9.23339e-07 0)
(-2.16019e-09 -9.21342e-07 0)
(-2.19096e-09 -9.19294e-07 0)
(-2.22067e-09 -9.17195e-07 0)
(-2.2493e-09 -9.15045e-07 0)
(-2.27685e-09 -9.12844e-07 0)
(-2.30331e-09 -9.10593e-07 0)
(-2.32866e-09 -9.08292e-07 0)
(-2.35289e-09 -9.05941e-07 0)
(-2.37599e-09 -9.0354e-07 0)
(-2.39796e-09 -9.0109e-07 0)
(-2.41879e-09 -8.98592e-07 0)
(-2.43847e-09 -8.96045e-07 0)
(-2.45699e-09 -8.93451e-07 0)
(-2.47435e-09 -8.90809e-07 0)
(-2.49055e-09 -8.8812e-07 0)
(-2.50558e-09 -8.85385e-07 0)
(-2.51943e-09 -8.82604e-07 0)
(-2.53211e-09 -8.79778e-07 0)
(-2.54362e-09 -8.76908e-07 0)
(-2.55395e-09 -8.73994e-07 0)
(-2.56311e-09 -8.71038e-07 0)
(-2.5711e-09 -8.68039e-07 0)
(-2.57791e-09 -8.64999e-07 0)
(-2.58356e-09 -8.61918e-07 0)
(-2.58805e-09 -8.58798e-07 0)
(-2.59137e-09 -8.5564e-07 0)
(-2.59355e-09 -8.52444e-07 0)
(-2.59458e-09 -8.49211e-07 0)
(-2.59448e-09 -8.45943e-07 0)
(-2.59323e-09 -8.42637e-07 0)
(-2.59092e-09 -8.39305e-07 0)
(-2.58727e-09 -8.35899e-07 0)
(-2.58201e-09 -8.32138e-07 0)
(-2.57513e-09 -8.28021e-07 0)
(-2.56659e-09 -8.2383e-07 0)
(-2.5566e-09 -8.19663e-07 0)
(-2.54529e-09 -8.15538e-07 0)
(-2.53275e-09 -8.11436e-07 0)
(-2.51906e-09 -8.07351e-07 0)
(-2.50427e-09 -8.03285e-07 0)
(-2.48845e-09 -7.99245e-07 0)
(-2.47165e-09 -7.95232e-07 0)
(-2.45393e-09 -7.91248e-07 0)
(-2.43536e-09 -7.87292e-07 0)
(-2.41598e-09 -7.83368e-07 0)
(-2.39584e-09 -7.79475e-07 0)
(-2.37499e-09 -7.75616e-07 0)
(-2.35347e-09 -7.71791e-07 0)
(-2.33133e-09 -7.68001e-07 0)
(-2.3086e-09 -7.64247e-07 0)
(-2.28533e-09 -7.60531e-07 0)
(-2.26156e-09 -7.56853e-07 0)
(-2.2373e-09 -7.53214e-07 0)
(-2.2126e-09 -7.49615e-07 0)
(-2.18749e-09 -7.46055e-07 0)
(-2.162e-09 -7.42537e-07 0)
(-2.13614e-09 -7.3906e-07 0)
(-2.10996e-09 -7.35626e-07 0)
(-2.08346e-09 -7.32234e-07 0)
(-2.05668e-09 -7.28885e-07 0)
(-2.02963e-09 -7.2558e-07 0)
(-2.00232e-09 -7.22319e-07 0)
(-1.97479e-09 -7.19102e-07 0)
(-1.94704e-09 -7.1593e-07 0)
(-1.9191e-09 -7.12803e-07 0)
(-1.89096e-09 -7.09721e-07 0)
(-1.86266e-09 -7.06685e-07 0)
(-1.83419e-09 -7.03695e-07 0)
(-1.80557e-09 -7.00751e-07 0)
(-1.77681e-09 -6.97853e-07 0)
(-1.74792e-09 -6.95002e-07 0)
(-1.71891e-09 -6.92198e-07 0)
(-1.68978e-09 -6.89441e-07 0)
(-1.66054e-09 -6.86732e-07 0)
(-1.6312e-09 -6.84069e-07 0)
(-1.60176e-09 -6.81454e-07 0)
(-1.57223e-09 -6.78887e-07 0)
(-1.5426e-09 -6.76368e-07 0)
(-1.5129e-09 -6.73897e-07 0)
(-1.48311e-09 -6.71473e-07 0)
(-1.45324e-09 -6.69098e-07 0)
(-1.42329e-09 -6.66772e-07 0)
(-1.39327e-09 -6.64494e-07 0)
(-1.36317e-09 -6.62264e-07 0)
(-1.33301e-09 -6.60084e-07 0)
(-1.30277e-09 -6.57952e-07 0)
(-1.27246e-09 -6.55869e-07 0)
(-1.24209e-09 -6.53835e-07 0)
(-1.21164e-09 -6.51851e-07 0)
(-1.18113e-09 -6.49915e-07 0)
(-1.15055e-09 -6.4803e-07 0)
(-1.11991e-09 -6.46193e-07 0)
(-1.08919e-09 -6.44406e-07 0)
(-1.05841e-09 -6.42669e-07 0)
(-1.02756e-09 -6.40982e-07 0)
(-9.96651e-10 -6.39345e-07 0)
(-9.65671e-10 -6.37758e-07 0)
(-9.34625e-10 -6.36221e-07 0)
(-9.03513e-10 -6.34734e-07 0)
(-8.72337e-10 -6.33298e-07 0)
(-8.41095e-10 -6.31912e-07 0)
(-8.09789e-10 -6.30577e-07 0)
(-7.7842e-10 -6.29292e-07 0)
(-7.46989e-10 -6.28058e-07 0)
(-7.15495e-10 -6.26875e-07 0)
(-6.83941e-10 -6.25744e-07 0)
(-6.52328e-10 -6.24663e-07 0)
(-6.20657e-10 -6.23633e-07 0)
(-5.8893e-10 -6.22655e-07 0)
(-5.57148e-10 -6.21728e-07 0)
(-5.25314e-10 -6.20852e-07 0)
(-4.93429e-10 -6.20028e-07 0)
(-4.61495e-10 -6.19256e-07 0)
(-4.29515e-10 -6.18535e-07 0)
(-3.97492e-10 -6.17866e-07 0)
(-3.65428e-10 -6.17249e-07 0)
(-3.33325e-10 -6.16683e-07 0)
(-3.01187e-10 -6.16174e-07 0)
(-2.69015e-10 -6.157e-07 0)
(-2.3682e-10 -6.15333e-07 0)
(-2.04579e-10 -6.14833e-07 0)
(-1.72379e-10 -6.14995e-07 0)
(-1.39954e-10 -6.13145e-07 0)
(-1.08201e-10 -6.17933e-07 0)
(-7.426e-11 -5.99294e-07 0)
(-4.7957e-11 -6.48408e-07 0)
(-2.01039e-11 -5.66287e-07 0)
)
;
    }
    bottomWall
    {
        type            calculated;
        value           nonuniform List<vector> 
449
(
(-48.5244 -0.963993 0)
(-19.7485 -0.00515447 0)
(-14.3415 -0.0011347 0)
(-12.0321 -0.000545453 0)
(-10.6261 -0.000351484 0)
(-9.63229 -0.000255986 0)
(-8.87424 -0.00019848 0)
(-8.27075 -0.000159811 0)
(-7.77533 -0.000132322 0)
(-7.35871 -0.000111975 0)
(-7.00172 -9.63755e-05 0)
(-6.6913 -8.40689e-05 0)
(-6.41815 -7.41514e-05 0)
(-6.17536 -6.60241e-05 0)
(-5.95768 -5.92673e-05 0)
(-5.76104 -5.3578e-05 0)
(-5.58224 -4.87339e-05 0)
(-5.41873 -4.45691e-05 0)
(-5.26845 -4.09578e-05 0)
(-5.12969 -3.78022e-05 0)
(-5.00104 -3.5026e-05 0)
(-4.88134 -3.25683e-05 0)
(-4.76957 -3.03804e-05 0)
(-4.6649 -2.84225e-05 0)
(-4.56661 -2.66623e-05 0)
(-4.47406 -2.50731e-05 0)
(-4.38672 -2.36324e-05 0)
(-4.30411 -2.23217e-05 0)
(-4.22581 -2.11251e-05 0)
(-4.15147 -2.00292e-05 0)
(-4.08075 -1.90226e-05 0)
(-4.01337 -1.80955e-05 0)
(-3.94907 -1.72394e-05 0)
(-3.88762 -1.64469e-05 0)
(-3.82882 -1.57116e-05 0)
(-3.77248 -1.5028e-05 0)
(-3.71843 -1.43911e-05 0)
(-3.66651 -1.37966e-05 0)
(-3.6166 -1.32406e-05 0)
(-3.56856 -1.27199e-05 0)
(-3.52228 -1.22312e-05 0)
(-3.47765 -1.1772e-05 0)
(-3.43457 -1.13399e-05 0)
(-3.39296 -1.09326e-05 0)
(-3.35273 -1.05483e-05 0)
(-3.31381 -1.01851e-05 0)
(-3.27613 -9.84147e-06 0)
(-3.23962 -9.51602e-06 0)
(-3.20422 -9.2074e-06 0)
(-3.16988 -8.91444e-06 0)
(-3.13654 -8.63605e-06 0)
(-3.10415 -8.37124e-06 0)
(-3.07268 -8.11911e-06 0)
(-3.04207 -7.87884e-06 0)
(-3.01229 -7.64965e-06 0)
(-2.9833 -7.43087e-06 0)
(-2.95507 -7.22183e-06 0)
(-2.92756 -7.02195e-06 0)
(-2.90074 -6.83069e-06 0)
(-2.87459 -6.64752e-06 0)
(-2.84907 -6.472e-06 0)
(-2.82416 -6.30367e-06 0)
(-2.79984 -6.14215e-06 0)
(-2.77607 -5.98704e-06 0)
(-2.75285 -5.83802e-06 0)
(-2.73015 -5.69474e-06 0)
(-2.70796 -5.55691e-06 0)
(-2.68624 -5.42424e-06 0)
(-2.66499 -5.29647e-06 0)
(-2.64418 -5.17336e-06 0)
(-2.62381 -5.05467e-06 0)
(-2.60386 -4.94018e-06 0)
(-2.58431 -4.8297e-06 0)
(-2.56515 -4.72302e-06 0)
(-2.54636 -4.61998e-06 0)
(-2.52794 -4.5204e-06 0)
(-2.50987 -4.42412e-06 0)
(-2.49214 -4.331e-06 0)
(-2.47474 -4.24089e-06 0)
(-2.45767 -4.15365e-06 0)
(-2.4409 -4.06918e-06 0)
(-2.42443 -3.98733e-06 0)
(-2.40825 -3.90801e-06 0)
(-2.39236 -3.83111e-06 0)
(-2.37674 -3.75652e-06 0)
(-2.36138 -3.68416e-06 0)
(-2.34629 -3.61392e-06 0)
(-2.33144 -3.54573e-06 0)
(-2.31684 -3.47951e-06 0)
(-2.30248 -3.41517e-06 0)
(-2.28835 -3.35264e-06 0)
(-2.27444 -3.29186e-06 0)
(-2.26076 -3.23276e-06 0)
(-2.24728 -3.17527e-06 0)
(-2.23401 -3.11933e-06 0)
(-2.22095 -3.06489e-06 0)
(-2.20808 -3.01189e-06 0)
(-2.1954 -2.96028e-06 0)
(-2.18291 -2.91002e-06 0)
(-2.1706 -2.86104e-06 0)
(-2.15847 -2.81331e-06 0)
(-2.14651 -2.76679e-06 0)
(-2.13472 -2.72143e-06 0)
(-2.1231 -2.67719e-06 0)
(-2.11164 -2.63404e-06 0)
(-2.10033 -2.59194e-06 0)
(-2.08918 -2.55085e-06 0)
(-2.07818 -2.51074e-06 0)
(-2.06733 -2.47158e-06 0)
(-2.05661 -2.43334e-06 0)
(-2.04604 -2.39599e-06 0)
(-2.03561 -2.3595e-06 0)
(-2.02531 -2.32384e-06 0)
(-2.01514 -2.28899e-06 0)
(-2.0051 -2.25492e-06 0)
(-1.99519 -2.22162e-06 0)
(-1.98539 -2.18905e-06 0)
(-1.97572 -2.15719e-06 0)
(-1.96617 -2.12603e-06 0)
(-1.95673 -2.09553e-06 0)
(-1.9474 -2.06569e-06 0)
(-1.93819 -2.03649e-06 0)
(-1.92908 -2.0079e-06 0)
(-1.92008 -1.9799e-06 0)
(-1.91118 -1.95249e-06 0)
(-1.90239 -1.92564e-06 0)
(-1.89369 -1.89934e-06 0)
(-1.8851 -1.87357e-06 0)
(-1.8766 -1.84832e-06 0)
(-1.86819 -1.82358e-06 0)
(-1.85988 -1.79933e-06 0)
(-1.85166 -1.77555e-06 0)
(-1.84352 -1.75224e-06 0)
(-1.83548 -1.72938e-06 0)
(-1.82752 -1.70696e-06 0)
(-1.81964 -1.68497e-06 0)
(-1.81185 -1.6634e-06 0)
(-1.80414 -1.64223e-06 0)
(-1.79651 -1.62146e-06 0)
(-1.78895 -1.60108e-06 0)
(-1.78148 -1.58108e-06 0)
(-1.77408 -1.56144e-06 0)
(-1.76675 -1.54216e-06 0)
(-1.7595 -1.52323e-06 0)
(-1.75232 -1.50464e-06 0)
(-1.74521 -1.48638e-06 0)
(-1.73817 -1.46845e-06 0)
(-1.73119 -1.45083e-06 0)
(-1.72429 -1.43352e-06 0)
(-1.71745 -1.41652e-06 0)
(-1.71067 -1.39981e-06 0)
(-1.70396 -1.38338e-06 0)
(-1.69732 -1.36724e-06 0)
(-1.69073 -1.35137e-06 0)
(-1.68421 -1.33577e-06 0)
(-1.67774 -1.32044e-06 0)
(-1.67133 -1.30536e-06 0)
(-1.66499 -1.29052e-06 0)
(-1.65869 -1.27594e-06 0)
(-1.65246 -1.26159e-06 0)
(-1.64628 -1.24748e-06 0)
(-1.64016 -1.23359e-06 0)
(-1.63408 -1.21993e-06 0)
(-1.62807 -1.20649e-06 0)
(-1.6221 -1.19327e-06 0)
(-1.61618 -1.18025e-06 0)
(-1.61032 -1.16744e-06 0)
(-1.60451 -1.15484e-06 0)
(-1.59874 -1.14245e-06 0)
(-1.59302 -1.13012e-06 0)
(-1.58735 -1.11844e-06 0)
(-1.58173 -1.10634e-06 0)
(-1.57616 -1.0932e-06 0)
(-1.57094 -1.08302e-06 0)
(-1.56604 -1.07479e-06 0)
(-1.56113 -1.06444e-06 0)
(-1.55621 -1.05375e-06 0)
(-1.55129 -1.04374e-06 0)
(-1.54637 -1.03371e-06 0)
(-1.54143 -1.02379e-06 0)
(-1.5365 -1.01394e-06 0)
(-1.53155 -1.00415e-06 0)
(-1.5266 -9.9442e-07 0)
(-1.52165 -9.8475e-07 0)
(-1.51669 -9.75135e-07 0)
(-1.51172 -9.65576e-07 0)
(-1.50676 -9.56073e-07 0)
(-1.50178 -9.46625e-07 0)
(-1.4968 -9.37231e-07 0)
(-1.49182 -9.27893e-07 0)
(-1.48684 -9.18611e-07 0)
(-1.48185 -9.09384e-07 0)
(-1.47686 -9.00213e-07 0)
(-1.47186 -8.91097e-07 0)
(-1.46686 -8.82038e-07 0)
(-1.46186 -8.73036e-07 0)
(-1.45685 -8.6409e-07 0)
(-1.45185 -8.55201e-07 0)
(-1.44684 -8.46369e-07 0)
(-1.44183 -8.37595e-07 0)
(-1.43681 -8.28878e-07 0)
(-1.4318 -8.20219e-07 0)
(-1.42678 -8.11618e-07 0)
(-1.42176 -8.03075e-07 0)
(-1.41675 -7.94591e-07 0)
(-1.41173 -7.86165e-07 0)
(-1.40671 -7.77797e-07 0)
(-1.40169 -7.69489e-07 0)
(-1.39666 -7.61239e-07 0)
(-1.39164 -7.53048e-07 0)
(-1.38662 -7.44916e-07 0)
(-1.3816 -7.36844e-07 0)
(-1.37658 -7.28831e-07 0)
(-1.37156 -7.20877e-07 0)
(-1.36655 -7.12983e-07 0)
(-1.36153 -7.05148e-07 0)
(-1.35651 -6.97373e-07 0)
(-1.3515 -6.89657e-07 0)
(-1.34649 -6.82001e-07 0)
(-1.34147 -6.74405e-07 0)
(-1.33647 -6.66868e-07 0)
(-1.33146 -6.5939e-07 0)
(-1.32645 -6.51973e-07 0)
(-1.32145 -6.44615e-07 0)
(-1.31645 -6.37316e-07 0)
(-1.31146 -6.30078e-07 0)
(-1.30647 -6.22898e-07 0)
(-1.30148 -6.15778e-07 0)
(-1.29649 -6.08717e-07 0)
(-1.29151 -6.01716e-07 0)
(-1.28653 -5.94774e-07 0)
(-1.28156 -5.87891e-07 0)
(-1.27659 -5.81067e-07 0)
(-1.27162 -5.74301e-07 0)
(-1.26666 -5.67595e-07 0)
(-1.2617 -5.60947e-07 0)
(-1.25675 -5.54358e-07 0)
(-1.25181 -5.47827e-07 0)
(-1.24687 -5.41355e-07 0)
(-1.24193 -5.3494e-07 0)
(-1.237 -5.28584e-07 0)
(-1.23208 -5.22285e-07 0)
(-1.22716 -5.16044e-07 0)
(-1.22224 -5.0986e-07 0)
(-1.21734 -5.03734e-07 0)
(-1.21244 -4.97664e-07 0)
(-1.20754 -4.91652e-07 0)
(-1.20266 -4.85696e-07 0)
(-1.19778 -4.79796e-07 0)
(-1.1929 -4.73953e-07 0)
(-1.18804 -4.68165e-07 0)
(-1.18318 -4.62434e-07 0)
(-1.17833 -4.56758e-07 0)
(-1.17348 -4.51137e-07 0)
(-1.16865 -4.45571e-07 0)
(-1.16382 -4.4006e-07 0)
(-1.159 -4.34604e-07 0)
(-1.15419 -4.29202e-07 0)
(-1.14938 -4.23854e-07 0)
(-1.14459 -4.18559e-07 0)
(-1.1398 -4.13318e-07 0)
(-1.13502 -4.08131e-07 0)
(-1.13025 -4.02996e-07 0)
(-1.12549 -3.97914e-07 0)
(-1.12074 -3.92884e-07 0)
(-1.116 -3.87906e-07 0)
(-1.11126 -3.8298e-07 0)
(-1.10654 -3.78106e-07 0)
(-1.10183 -3.73282e-07 0)
(-1.09712 -3.6851e-07 0)
(-1.09243 -3.63788e-07 0)
(-1.08774 -3.59116e-07 0)
(-1.08307 -3.54494e-07 0)
(-1.0784 -3.49922e-07 0)
(-1.07375 -3.45399e-07 0)
(-1.0691 -3.40925e-07 0)
(-1.06447 -3.36499e-07 0)
(-1.05984 -3.32122e-07 0)
(-1.05523 -3.27793e-07 0)
(-1.05063 -3.23512e-07 0)
(-1.04604 -3.19277e-07 0)
(-1.04145 -3.1509e-07 0)
(-1.03688 -3.10949e-07 0)
(-1.03233 -3.06855e-07 0)
(-1.02778 -3.02807e-07 0)
(-1.02324 -2.98804e-07 0)
(-1.01872 -2.94846e-07 0)
(-1.0142 -2.90934e-07 0)
(-1.0097 -2.87066e-07 0)
(-1.00521 -2.83242e-07 0)
(-1.00073 -2.79462e-07 0)
(-0.996267 -2.75725e-07 0)
(-0.991812 -2.72032e-07 0)
(-0.987369 -2.68382e-07 0)
(-0.982938 -2.64774e-07 0)
(-0.978519 -2.61208e-07 0)
(-0.974113 -2.57684e-07 0)
(-0.969718 -2.54202e-07 0)
(-0.965336 -2.5076e-07 0)
(-0.960967 -2.4736e-07 0)
(-0.95661 -2.43999e-07 0)
(-0.952265 -2.40679e-07 0)
(-0.947933 -2.37399e-07 0)
(-0.943614 -2.34157e-07 0)
(-0.939307 -2.30955e-07 0)
(-0.935013 -2.27791e-07 0)
(-0.930732 -2.24666e-07 0)
(-0.926464 -2.21579e-07 0)
(-0.922208 -2.18529e-07 0)
(-0.917966 -2.15516e-07 0)
(-0.913737 -2.12541e-07 0)
(-0.909521 -2.09602e-07 0)
(-0.905318 -2.06699e-07 0)
(-0.901128 -2.03832e-07 0)
(-0.896952 -2.01e-07 0)
(-0.892789 -1.98204e-07 0)
(-0.888639 -1.95442e-07 0)
(-0.884503 -1.92715e-07 0)
(-0.88038 -1.90022e-07 0)
(-0.87627 -1.87363e-07 0)
(-0.872174 -1.84738e-07 0)
(-0.868092 -1.82145e-07 0)
(-0.864023 -1.79586e-07 0)
(-0.859967 -1.77059e-07 0)
(-0.855926 -1.74564e-07 0)
(-0.851898 -1.72101e-07 0)
(-0.847884 -1.69669e-07 0)
(-0.843883 -1.67269e-07 0)
(-0.839896 -1.64899e-07 0)
(-0.835923 -1.6256e-07 0)
(-0.831964 -1.60251e-07 0)
(-0.828019 -1.57972e-07 0)
(-0.824088 -1.55722e-07 0)
(-0.82017 -1.53502e-07 0)
(-0.816266 -1.51311e-07 0)
(-0.812377 -1.49148e-07 0)
(-0.808501 -1.47014e-07 0)
(-0.804639 -1.44907e-07 0)
(-0.800792 -1.42829e-07 0)
(-0.796958 -1.40777e-07 0)
(-0.793138 -1.38753e-07 0)
(-0.789333 -1.36756e-07 0)
(-0.785541 -1.34784e-07 0)
(-0.781764 -1.3284e-07 0)
(-0.778 -1.3092e-07 0)
(-0.774251 -1.29027e-07 0)
(-0.770515 -1.27158e-07 0)
(-0.766794 -1.25314e-07 0)
(-0.763087 -1.23493e-07 0)
(-0.759395 -1.21699e-07 0)
(-0.755716 -1.19924e-07 0)
(-0.752052 -1.18136e-07 0)
(-0.748404 -1.16498e-07 0)
(-0.744762 -1.14871e-07 0)
(-0.740731 -1.12884e-07 0)
(-0.736358 -1.10773e-07 0)
(-0.732065 -1.08873e-07 0)
(-0.72784 -1.07075e-07 0)
(-0.723688 -1.05264e-07 0)
(-0.719605 -1.0349e-07 0)
(-0.715591 -1.0176e-07 0)
(-0.711644 -1.00077e-07 0)
(-0.707762 -9.84391e-08 0)
(-0.703943 -9.68448e-08 0)
(-0.700185 -9.52927e-08 0)
(-0.696488 -9.37816e-08 0)
(-0.692848 -9.23101e-08 0)
(-0.689266 -9.08766e-08 0)
(-0.685739 -8.94798e-08 0)
(-0.682265 -8.81185e-08 0)
(-0.678845 -8.67914e-08 0)
(-0.675475 -8.54974e-08 0)
(-0.672156 -8.42351e-08 0)
(-0.668885 -8.30037e-08 0)
(-0.665662 -8.1802e-08 0)
(-0.662486 -8.06291e-08 0)
(-0.659354 -7.9484e-08 0)
(-0.656267 -7.83657e-08 0)
(-0.653224 -7.72735e-08 0)
(-0.650222 -7.62064e-08 0)
(-0.647262 -7.51637e-08 0)
(-0.644342 -7.41447e-08 0)
(-0.641461 -7.31485e-08 0)
(-0.638619 -7.21744e-08 0)
(-0.635814 -7.12218e-08 0)
(-0.633047 -7.02901e-08 0)
(-0.630315 -6.93785e-08 0)
(-0.627619 -6.84866e-08 0)
(-0.624957 -6.76136e-08 0)
(-0.62233 -6.67591e-08 0)
(-0.619735 -6.59226e-08 0)
(-0.617172 -6.51034e-08 0)
(-0.614641 -6.43011e-08 0)
(-0.612142 -6.35153e-08 0)
(-0.609672 -6.27454e-08 0)
(-0.607233 -6.1991e-08 0)
(-0.604823 -6.12517e-08 0)
(-0.602441 -6.05271e-08 0)
(-0.600087 -5.98168e-08 0)
(-0.597761 -5.91203e-08 0)
(-0.595462 -5.84374e-08 0)
(-0.593189 -5.77677e-08 0)
(-0.590943 -5.71108e-08 0)
(-0.588721 -5.64664e-08 0)
(-0.586525 -5.58341e-08 0)
(-0.584353 -5.52138e-08 0)
(-0.582206 -5.4605e-08 0)
(-0.580081 -5.40074e-08 0)
(-0.57798 -5.34209e-08 0)
(-0.575902 -5.28452e-08 0)
(-0.573846 -5.22799e-08 0)
(-0.571812 -5.17249e-08 0)
(-0.569799 -5.11799e-08 0)
(-0.567808 -5.06446e-08 0)
(-0.565837 -5.01189e-08 0)
(-0.563887 -4.96026e-08 0)
(-0.561957 -4.90954e-08 0)
(-0.560046 -4.85972e-08 0)
(-0.558155 -4.81078e-08 0)
(-0.556283 -4.7627e-08 0)
(-0.554429 -4.71546e-08 0)
(-0.552594 -4.66906e-08 0)
(-0.550776 -4.62348e-08 0)
(-0.548976 -4.5787e-08 0)
(-0.547194 -4.53472e-08 0)
(-0.545429 -4.49153e-08 0)
(-0.54368 -4.44912e-08 0)
(-0.541948 -4.4075e-08 0)
(-0.540232 -4.36665e-08 0)
(-0.538532 -4.3266e-08 0)
(-0.536847 -4.28734e-08 0)
(-0.535178 -4.2489e-08 0)
(-0.533523 -4.2113e-08 0)
(-0.531883 -4.1746e-08 0)
(-0.530257 -4.13884e-08 0)
(-0.528645 -4.10412e-08 0)
(-0.527047 -4.07059e-08 0)
(-0.525461 -4.03837e-08 0)
(-0.523887 -4.00779e-08 0)
(-0.522325 -3.98007e-08 0)
(-0.520773 -3.9522e-08 0)
(-0.519233 -3.9301e-08 0)
(-0.517699 -3.93618e-08 0)
(-0.516154 -3.86809e-08 0)
(-0.514673 -3.78115e-08 0)
(-0.513196 -4.99714e-08 0)
(-0.510763 -1.39845e-08 0)
(-0.512113 -3.6887e-08 0)
(-0.507834 -5.56231e-08 0)
)
;
    }
    symmetry
    {
        type            symmetryPlane;
    }
    frontAndBack
    {
        type            empty;
    }
}


// ************************************************************************* //
