/*--------------------------------*- C++ -*----------------------------------*\
| =========                 |                                                 |
| \\      /  F ield         | OpenFOAM: The Open Source CFD Toolbox           |
|  \\    /   O peration     | Version:  v2012                                 |
|   \\  /    A nd           | Website:  www.openfoam.com                      |
|    \\/     M anipulation  |                                                 |
\*---------------------------------------------------------------------------*/
FoamFile
{
    version     2.0;
    format      ascii;
    class       volScalarField;
    location    "48";
    object      yPlus;
}
// * * * * * * * * * * * * * * * * * * * * * * * * * * * * * * * * * * * * * //

dimensions      [0 0 0 0 0 0 0];


internalField   uniform 0;

boundaryField
{
    inlet
    {
        type            calculated;
        value           uniform 0;
    }
    outlet
    {
        type            calculated;
        value           uniform 0;
    }
    topWall
    {
        type            calculated;
        value           nonuniform List<scalar> 
545
(
0.0708342
0.122139
0.156686
0.18417
0.207424
0.227758
0.245906
0.262331
0.277348
0.291184
0.304007
0.315951
0.32712
0.337598
0.347456
0.356754
0.36554
0.37386
0.381749
0.389242
0.396368
0.403151
0.409617
0.415785
0.421674
0.427302
0.432684
0.437834
0.442767
0.447493
0.452024
0.456371
0.460543
0.464548
0.468396
0.472095
0.47565
0.47907
0.482361
0.485528
0.488577
0.491514
0.494344
0.497071
0.499701
0.502236
0.504681
0.50704
0.509317
0.511515
0.513637
0.515686
0.517665
0.519577
0.521425
0.523211
0.524938
0.526607
0.528221
0.529783
0.531293
0.532755
0.534169
0.535538
0.536863
0.538146
0.539389
0.540592
0.541757
0.542886
0.543979
0.545039
0.546053
0.547032
0.548003
0.548965
0.549919
0.550864
0.5518
0.552729
0.553649
0.554561
0.555465
0.55636
0.557248
0.558128
0.559001
0.559865
0.560723
0.561572
0.562414
0.563249
0.564077
0.564897
0.565711
0.566517
0.567243
0.567891
0.568539
0.569187
0.569833
0.570479
0.571125
0.571769
0.572413
0.573057
0.573699
0.574341
0.574982
0.575623
0.576263
0.576902
0.57754
0.578177
0.578814
0.57945
0.580086
0.58072
0.581354
0.581987
0.582619
0.58325
0.583881
0.58451
0.585139
0.585767
0.586395
0.587021
0.587647
0.588271
0.588895
0.589518
0.59014
0.590761
0.591381
0.592001
0.592619
0.593236
0.593853
0.594468
0.595083
0.595697
0.59631
0.596921
0.597532
0.598142
0.598751
0.599358
0.599965
0.600571
0.601175
0.601779
0.602382
0.602983
0.603584
0.604183
0.604781
0.605379
0.605975
0.60657
0.607163
0.607756
0.608348
0.608938
0.609528
0.610116
0.610703
0.611288
0.611873
0.612456
0.613039
0.61362
0.614199
0.614778
0.615355
0.615931
0.616506
0.617079
0.617651
0.618222
0.618792
0.61936
0.619927
0.620493
0.621057
0.62162
0.622181
0.622742
0.6233
0.623858
0.624414
0.624969
0.625522
0.626073
0.626624
0.627173
0.62772
0.628266
0.628811
0.629354
0.629895
0.630435
0.630974
0.63151
0.632046
0.63258
0.633112
0.633643
0.634172
0.6347
0.635226
0.63575
0.636273
0.636794
0.637313
0.637831
0.638347
0.638862
0.639375
0.639886
0.640395
0.640903
0.641409
0.641913
0.642416
0.642916
0.643415
0.643913
0.644408
0.644902
0.645394
0.645884
0.646372
0.646858
0.647343
0.647825
0.648306
0.648785
0.649262
0.649737
0.65021
0.650682
0.651151
0.651618
0.652084
0.652547
0.653009
0.653468
0.653926
0.654381
0.654835
0.655286
0.655736
0.656183
0.656629
0.657072
0.657513
0.657952
0.658389
0.658824
0.659257
0.659687
0.660116
0.660542
0.660966
0.661388
0.661808
0.662225
0.662641
0.663031
0.663398
0.663766
0.664136
0.664507
0.664879
0.665253
0.665627
0.666003
0.66638
0.666759
0.667138
0.667518
0.667899
0.668281
0.668664
0.669048
0.669432
0.669817
0.670203
0.670589
0.670976
0.671364
0.671751
0.672139
0.672528
0.672916
0.673305
0.673694
0.674082
0.674471
0.674859
0.675247
0.675635
0.676022
0.676409
0.676795
0.677181
0.677566
0.67795
0.678333
0.678714
0.679095
0.679475
0.679853
0.680229
0.680604
0.680977
0.681349
0.681718
0.682086
0.682451
0.682814
0.683175
0.683533
0.683888
0.68424
0.68459
0.684936
0.68528
0.685619
0.685956
0.686288
0.686617
0.686942
0.687262
0.687579
0.687891
0.688198
0.6885
0.688798
0.68909
0.689377
0.689659
0.689935
0.690205
0.690469
0.690727
0.690978
0.691223
0.691461
0.691692
0.691916
0.692133
0.692342
0.692543
0.692736
0.692921
0.693097
0.693265
0.693424
0.693574
0.693715
0.693846
0.693968
0.694079
0.694181
0.694272
0.694352
0.694422
0.69448
0.694528
0.694563
0.694587
0.694599
0.694599
0.694587
0.694561
0.694523
0.694472
0.694407
0.694329
0.694237
0.694131
0.694011
0.693876
0.693727
0.693562
0.693383
0.693188
0.692978
0.692751
0.692509
0.692251
0.691976
0.691685
0.691377
0.691052
0.69071
0.69035
0.689973
0.689578
0.689166
0.688735
0.688287
0.68782
0.687334
0.68683
0.686307
0.685766
0.685205
0.684625
0.684026
0.683408
0.682771
0.682114
0.681438
0.680742
0.680026
0.679291
0.678536
0.677762
0.676968
0.676154
0.67532
0.674467
0.673595
0.672702
0.67179
0.670859
0.669908
0.668938
0.667949
0.666941
0.665914
0.664868
0.663803
0.66272
0.661619
0.660499
0.659362
0.658207
0.657034
0.655845
0.654638
0.653415
0.652175
0.650919
0.649647
0.64836
0.647058
0.645593
0.643973
0.642353
0.640736
0.639121
0.637509
0.635902
0.6343
0.632704
0.631114
0.629531
0.627956
0.626389
0.624831
0.623282
0.621744
0.620216
0.618699
0.617193
0.615699
0.614217
0.612748
0.611292
0.609849
0.60842
0.607004
0.605604
0.604217
0.602846
0.60149
0.600149
0.598824
0.597515
0.596222
0.594945
0.593685
0.592442
0.591216
0.590008
0.588816
0.587643
0.586487
0.585349
0.584229
0.583128
0.582045
0.580981
0.579935
0.578909
0.577901
0.576913
0.575945
0.574996
0.574067
0.573157
0.572268
0.571399
0.57055
0.569722
0.568914
0.568127
0.567361
0.566616
0.565892
0.565189
0.564508
0.563848
0.563209
0.562593
0.561998
0.561426
0.560875
0.560347
0.559841
0.559357
0.558896
0.558457
0.558041
0.557648
0.557278
0.556931
0.556607
0.556306
0.556028
0.555773
0.555542
0.555334
0.55515
0.554989
0.554851
0.554737
0.554647
0.554579
0.554538
0.554509
)
;
    }
    bottomWall
    {
        type            calculated;
        value           nonuniform List<scalar> 
449
(
0.139442
0.0889548
0.0758053
0.069434
0.0652511
0.062125
0.0596304
0.0575671
0.0558164
0.0543004
0.0529669
0.0517794
0.0507116
0.0497432
0.0488585
0.0480455
0.047294
0.0465962
0.0459455
0.0453364
0.0447644
0.0442254
0.0437161
0.0432338
0.0427759
0.0423402
0.0419249
0.0415282
0.0411488
0.0407852
0.0404363
0.0401011
0.0397786
0.0394679
0.0391683
0.038879
0.0385995
0.0383291
0.0380673
0.0378136
0.0375676
0.0373289
0.0370969
0.0368715
0.0366523
0.036439
0.0362312
0.0360287
0.0358313
0.0356388
0.0354509
0.0352674
0.0350882
0.034913
0.0347417
0.0345741
0.0344101
0.0342496
0.0340923
0.0339383
0.0337873
0.0336393
0.0334941
0.0333517
0.0332119
0.0330747
0.0329399
0.0328076
0.0326776
0.0325498
0.0324241
0.0323006
0.0321791
0.0320596
0.031942
0.0318262
0.0317123
0.0316001
0.0314896
0.0313808
0.0312735
0.0311678
0.0310637
0.030961
0.0308598
0.0307599
0.0306614
0.0305643
0.0304685
0.0303739
0.0302805
0.0301884
0.0300974
0.0300076
0.0299189
0.0298312
0.0297447
0.0296592
0.0295747
0.0294912
0.0294086
0.0293271
0.0292464
0.0291667
0.0290879
0.0290099
0.0289328
0.0288565
0.028781
0.0287064
0.0286325
0.0285594
0.0284871
0.0284155
0.0283446
0.0282744
0.028205
0.0281362
0.0280681
0.0280006
0.0279338
0.0278676
0.0278021
0.0277371
0.0276728
0.0276091
0.0275459
0.0274833
0.0274213
0.0273598
0.0272989
0.0272384
0.0271786
0.0271192
0.0270603
0.0270019
0.0269441
0.0268867
0.0268297
0.0267733
0.0267173
0.0266617
0.0266066
0.026552
0.0264977
0.0264439
0.0263905
0.0263375
0.0262849
0.0262328
0.026181
0.0261296
0.0260785
0.0260279
0.0259776
0.0259277
0.0258782
0.025829
0.0257801
0.0257316
0.0256835
0.0256357
0.0255882
0.025541
0.0254942
0.0254476
0.0254014
0.0253555
0.0253099
0.0252646
0.0252196
0.0251749
0.0251305
0.0250889
0.0250498
0.0250104
0.024971
0.0249315
0.0248919
0.0248522
0.0248123
0.0247724
0.0247323
0.0246922
0.0246519
0.0246115
0.024571
0.0245304
0.0244898
0.024449
0.0244081
0.0243671
0.024326
0.0242848
0.0242436
0.0242022
0.0241607
0.0241192
0.0240775
0.0240358
0.023994
0.0239521
0.0239101
0.023868
0.0238258
0.0237836
0.0237413
0.0236989
0.0236564
0.0236138
0.0235712
0.0235285
0.0234857
0.0234428
0.0233999
0.0233569
0.0233138
0.0232707
0.0232275
0.0231843
0.0231409
0.0230976
0.0230541
0.0230106
0.022967
0.0229234
0.0228797
0.022836
0.0227922
0.0227484
0.0227045
0.0226606
0.0226166
0.0225726
0.0225285
0.0224844
0.0224402
0.022396
0.0223518
0.0223075
0.0222632
0.0222188
0.0221744
0.02213
0.0220855
0.022041
0.0219965
0.0219519
0.0219074
0.0218628
0.0218181
0.0217735
0.0217288
0.0216841
0.0216393
0.0215946
0.0215498
0.021505
0.0214602
0.0214154
0.0213706
0.0213258
0.0212809
0.021236
0.0211912
0.0211463
0.0211014
0.0210565
0.0210116
0.0209667
0.0209218
0.0208768
0.0208319
0.020787
0.0207421
0.0206972
0.0206523
0.0206074
0.0205625
0.0205176
0.0204727
0.0204278
0.020383
0.0203381
0.0202933
0.0202484
0.0202036
0.0201588
0.020114
0.0200692
0.0200245
0.0199797
0.019935
0.0198903
0.0198456
0.019801
0.0197563
0.0197117
0.0196671
0.0196226
0.019578
0.0195335
0.0194891
0.0194446
0.0194002
0.0193558
0.0193114
0.0192671
0.0192228
0.0191785
0.0191343
0.0190901
0.019046
0.0190018
0.0189577
0.0189137
0.0188697
0.0188257
0.0187818
0.0187379
0.0186941
0.0186503
0.0186065
0.0185628
0.0185191
0.0184755
0.0184319
0.0183884
0.0183449
0.0183014
0.018258
0.0182147
0.0181714
0.0181282
0.018085
0.0180418
0.0179988
0.0179557
0.0179127
0.0178698
0.0178269
0.0177841
0.0177413
0.0176986
0.017656
0.0176134
0.0175708
0.0175284
0.0174859
0.0174436
0.0174013
0.017359
0.0173169
0.0172747
0.0172279
0.017177
0.0171268
0.0170773
0.0170285
0.0169804
0.016933
0.0168863
0.0168401
0.0167946
0.0167498
0.0167055
0.0166618
0.0166186
0.0165761
0.016534
0.0164925
0.0164515
0.0164111
0.0163711
0.0163316
0.0162926
0.016254
0.016216
0.0161783
0.0161411
0.0161043
0.0160679
0.016032
0.0159964
0.0159613
0.0159265
0.0158921
0.0158581
0.0158244
0.0157911
0.0157581
0.0157255
0.0156933
0.0156613
0.0156297
0.0155984
0.0155674
0.0155367
0.0155063
0.0154763
0.0154465
0.015417
0.0153877
0.0153588
0.0153301
0.0153017
0.0152736
0.0152457
0.015218
0.0151906
0.0151635
0.0151366
0.01511
0.0150835
0.0150573
0.0150314
0.0150056
0.0149801
0.0149548
0.0149297
0.0149048
0.0148801
0.0148556
0.0148313
0.0148072
0.0147833
0.0147596
0.014736
0.0147127
0.0146895
0.0146665
0.0146437
0.0146211
0.0145986
0.0145762
0.0145541
0.014532
0.0145102
0.0144884
0.0144668
0.0144453
0.0144239
0.0144026
0.0143811
0.0143604
0.0143398
0.0143058
0.0143247
0.0142647
)
;
    }
    symmetry
    {
        type            symmetryPlane;
    }
    frontAndBack
    {
        type            empty;
    }
}


// ************************************************************************* //
