/*--------------------------------*- C++ -*----------------------------------*\
| =========                 |                                                 |
| \\      /  F ield         | OpenFOAM: The Open Source CFD Toolbox           |
|  \\    /   O peration     | Version:  v2012                                 |
|   \\  /    A nd           | Website:  www.openfoam.com                      |
|    \\/     M anipulation  |                                                 |
\*---------------------------------------------------------------------------*/
FoamFile
{
    version     2.0;
    format      ascii;
    class       volScalarField;
    location    "56.5";
    object      nut;
}
// * * * * * * * * * * * * * * * * * * * * * * * * * * * * * * * * * * * * * //

dimensions      [0 2 -1 0 0 0 0];


internalField   nonuniform List<scalar> 
209825
(
1.23933e-07
1.23154e-07
1.22383e-07
1.2129e-07
1.19855e-07
1.18167e-07
1.1641e-07
1.14666e-07
1.13038e-07
1.11522e-07
1.10162e-07
1.08921e-07
1.07821e-07
1.0682e-07
1.05937e-07
1.05129e-07
1.04417e-07
1.03761e-07
1.03181e-07
1.02645e-07
1.02169e-07
1.01725e-07
1.01331e-07
1.00961e-07
1.00631e-07
1.00321e-07
1.00042e-07
9.97788e-08
9.95414e-08
9.93172e-08
9.9113e-08
9.89207e-08
9.87441e-08
9.8578e-08
9.84242e-08
9.82799e-08
9.81448e-08
9.8019e-08
9.78998e-08
9.77898e-08
9.76833e-08
9.75867e-08
9.7492e-08
9.74065e-08
9.73212e-08
9.72459e-08
9.71688e-08
9.7103e-08
9.70324e-08
9.69743e-08
9.69093e-08
9.68574e-08
9.67957e-08
9.67507e-08
9.66949e-08
9.6654e-08
9.66032e-08
9.65664e-08
9.65208e-08
9.64872e-08
9.64439e-08
9.64124e-08
9.63731e-08
9.6344e-08
9.63069e-08
9.628e-08
9.62466e-08
9.62222e-08
9.61911e-08
9.61674e-08
9.61377e-08
9.61154e-08
9.60884e-08
9.60689e-08
9.60444e-08
9.60273e-08
9.60043e-08
9.59878e-08
9.5965e-08
9.59485e-08
9.59258e-08
9.59094e-08
9.58873e-08
9.5871e-08
9.58497e-08
9.58315e-08
9.58077e-08
9.57874e-08
9.57627e-08
9.57436e-08
9.57207e-08
9.56792e-08
9.56854e-08
9.65811e-08
9.89747e-08
9.32661e-09
1.23933e-07
1.23154e-07
1.22383e-07
1.2129e-07
1.19855e-07
1.18168e-07
1.1641e-07
1.14667e-07
1.13038e-07
1.11523e-07
1.10163e-07
1.08922e-07
1.07822e-07
1.06821e-07
1.05938e-07
1.0513e-07
1.04417e-07
1.03762e-07
1.03182e-07
1.02646e-07
1.02169e-07
1.01726e-07
1.01331e-07
1.00962e-07
1.00632e-07
1.00321e-07
1.00042e-07
9.97795e-08
9.9542e-08
9.93178e-08
9.91137e-08
9.89213e-08
9.87447e-08
9.85786e-08
9.84248e-08
9.82805e-08
9.81454e-08
9.80196e-08
9.79004e-08
9.77904e-08
9.76838e-08
9.75873e-08
9.74926e-08
9.7407e-08
9.73217e-08
9.72465e-08
9.71693e-08
9.71036e-08
9.70329e-08
9.69748e-08
9.69098e-08
9.6858e-08
9.67962e-08
9.67513e-08
9.66954e-08
9.66546e-08
9.66037e-08
9.65669e-08
9.65213e-08
9.64877e-08
9.64444e-08
9.64129e-08
9.63736e-08
9.63445e-08
9.63074e-08
9.62805e-08
9.62471e-08
9.62227e-08
9.61916e-08
9.61679e-08
9.61382e-08
9.61158e-08
9.60889e-08
9.60694e-08
9.60449e-08
9.60278e-08
9.60048e-08
9.59883e-08
9.59655e-08
9.5949e-08
9.59263e-08
9.59098e-08
9.58878e-08
9.58714e-08
9.58502e-08
9.58319e-08
9.58082e-08
9.57878e-08
9.57631e-08
9.5744e-08
9.57212e-08
9.56797e-08
9.56859e-08
9.65833e-08
9.89758e-08
9.61225e-09
1.23933e-07
1.23154e-07
1.22383e-07
1.21291e-07
1.19856e-07
1.18169e-07
1.16412e-07
1.14669e-07
1.13041e-07
1.11525e-07
1.10165e-07
1.08924e-07
1.07824e-07
1.06823e-07
1.0594e-07
1.05132e-07
1.04419e-07
1.03764e-07
1.03184e-07
1.02647e-07
1.02171e-07
1.01727e-07
1.01332e-07
1.00963e-07
1.00633e-07
1.00322e-07
1.00043e-07
9.97803e-08
9.95428e-08
9.93186e-08
9.91144e-08
9.8922e-08
9.87453e-08
9.85791e-08
9.84253e-08
9.8281e-08
9.81459e-08
9.802e-08
9.79007e-08
9.77907e-08
9.76841e-08
9.75875e-08
9.74928e-08
9.74073e-08
9.73219e-08
9.72466e-08
9.71695e-08
9.71037e-08
9.7033e-08
9.69749e-08
9.69098e-08
9.6858e-08
9.67962e-08
9.67513e-08
9.66954e-08
9.66545e-08
9.66036e-08
9.65669e-08
9.65212e-08
9.64877e-08
9.64443e-08
9.64128e-08
9.63735e-08
9.63444e-08
9.63072e-08
9.62803e-08
9.6247e-08
9.62226e-08
9.61915e-08
9.61677e-08
9.6138e-08
9.61157e-08
9.60887e-08
9.60692e-08
9.60446e-08
9.60276e-08
9.60046e-08
9.59881e-08
9.59652e-08
9.59487e-08
9.5926e-08
9.59096e-08
9.58875e-08
9.58711e-08
9.58499e-08
9.58317e-08
9.58079e-08
9.57876e-08
9.57628e-08
9.57438e-08
9.57209e-08
9.56794e-08
9.56857e-08
9.65867e-08
9.89766e-08
9.96697e-09
1.23933e-07
1.23154e-07
1.22383e-07
1.21291e-07
1.19858e-07
1.18171e-07
1.16415e-07
1.14672e-07
1.13044e-07
1.11529e-07
1.10169e-07
1.08928e-07
1.07828e-07
1.06827e-07
1.05943e-07
1.05135e-07
1.04422e-07
1.03767e-07
1.03186e-07
1.0265e-07
1.02173e-07
1.0173e-07
1.01335e-07
1.00965e-07
1.00635e-07
1.00324e-07
1.00045e-07
9.9782e-08
9.95444e-08
9.93201e-08
9.91158e-08
9.89233e-08
9.87466e-08
9.85804e-08
9.84264e-08
9.82821e-08
9.81469e-08
9.80209e-08
9.79016e-08
9.77915e-08
9.76849e-08
9.75883e-08
9.74935e-08
9.74079e-08
9.73225e-08
9.72472e-08
9.717e-08
9.71042e-08
9.70335e-08
9.69753e-08
9.69103e-08
9.68584e-08
9.67966e-08
9.67516e-08
9.66957e-08
9.66548e-08
9.66039e-08
9.65671e-08
9.65214e-08
9.64879e-08
9.64445e-08
9.6413e-08
9.63737e-08
9.63445e-08
9.63074e-08
9.62804e-08
9.62471e-08
9.62226e-08
9.61915e-08
9.61677e-08
9.61381e-08
9.61157e-08
9.60887e-08
9.60692e-08
9.60446e-08
9.60275e-08
9.60045e-08
9.5988e-08
9.59652e-08
9.59487e-08
9.59259e-08
9.59095e-08
9.58874e-08
9.5871e-08
9.58497e-08
9.58315e-08
9.58078e-08
9.57875e-08
9.57627e-08
9.57437e-08
9.57208e-08
9.56794e-08
9.56858e-08
9.65922e-08
9.89782e-08
1.03624e-08
1.23933e-07
1.23153e-07
1.22383e-07
1.21292e-07
1.1986e-07
1.18175e-07
1.16419e-07
1.14677e-07
1.1305e-07
1.11535e-07
1.10175e-07
1.08933e-07
1.07833e-07
1.06832e-07
1.05948e-07
1.0514e-07
1.04427e-07
1.03771e-07
1.03191e-07
1.02654e-07
1.02177e-07
1.01733e-07
1.01338e-07
1.00969e-07
1.00638e-07
1.00327e-07
1.00048e-07
9.97847e-08
9.95469e-08
9.93224e-08
9.9118e-08
9.89254e-08
9.87486e-08
9.85823e-08
9.84282e-08
9.82838e-08
9.81485e-08
9.80225e-08
9.79031e-08
9.7793e-08
9.76863e-08
9.75896e-08
9.74947e-08
9.74091e-08
9.73237e-08
9.72483e-08
9.7171e-08
9.71052e-08
9.70344e-08
9.69762e-08
9.69111e-08
9.68592e-08
9.67973e-08
9.67523e-08
9.66964e-08
9.66555e-08
9.66045e-08
9.65677e-08
9.6522e-08
9.64884e-08
9.6445e-08
9.64135e-08
9.63741e-08
9.63449e-08
9.63078e-08
9.62808e-08
9.62474e-08
9.6223e-08
9.61919e-08
9.61681e-08
9.61384e-08
9.6116e-08
9.6089e-08
9.60694e-08
9.60448e-08
9.60277e-08
9.60047e-08
9.59882e-08
9.59653e-08
9.59488e-08
9.59261e-08
9.59096e-08
9.58875e-08
9.58711e-08
9.58498e-08
9.58316e-08
9.5808e-08
9.57876e-08
9.57628e-08
9.57438e-08
9.57209e-08
9.56795e-08
9.56861e-08
9.66002e-08
9.89805e-08
1.07915e-08
1.23933e-07
1.23153e-07
1.22383e-07
1.21294e-07
1.19863e-07
1.18179e-07
1.16425e-07
1.14684e-07
1.13057e-07
1.11542e-07
1.10182e-07
1.0894e-07
1.0784e-07
1.06839e-07
1.05955e-07
1.05147e-07
1.04433e-07
1.03777e-07
1.03196e-07
1.02659e-07
1.02182e-07
1.01738e-07
1.01343e-07
1.00973e-07
1.00642e-07
1.00331e-07
1.00051e-07
9.97882e-08
9.95503e-08
9.93257e-08
9.91211e-08
9.89284e-08
9.87514e-08
9.8585e-08
9.84308e-08
9.82863e-08
9.81509e-08
9.80247e-08
9.79053e-08
9.7795e-08
9.76883e-08
9.75915e-08
9.74965e-08
9.74108e-08
9.73253e-08
9.72499e-08
9.71725e-08
9.71067e-08
9.70358e-08
9.69776e-08
9.69124e-08
9.68605e-08
9.67985e-08
9.67535e-08
9.66975e-08
9.66565e-08
9.66055e-08
9.65687e-08
9.65229e-08
9.64893e-08
9.64458e-08
9.64143e-08
9.63749e-08
9.63457e-08
9.63085e-08
9.62815e-08
9.62481e-08
9.62236e-08
9.61925e-08
9.61687e-08
9.61389e-08
9.61166e-08
9.60895e-08
9.607e-08
9.60453e-08
9.60282e-08
9.60051e-08
9.59886e-08
9.59657e-08
9.59492e-08
9.59264e-08
9.59099e-08
9.58878e-08
9.58714e-08
9.585e-08
9.58319e-08
9.58083e-08
9.5788e-08
9.57631e-08
9.57442e-08
9.57213e-08
9.56799e-08
9.56867e-08
9.66107e-08
9.89837e-08
1.12532e-08
1.23933e-07
1.23152e-07
1.22383e-07
1.21295e-07
1.19866e-07
1.18185e-07
1.16432e-07
1.14692e-07
1.13065e-07
1.11551e-07
1.10191e-07
1.08949e-07
1.07849e-07
1.06847e-07
1.05963e-07
1.05155e-07
1.04441e-07
1.03784e-07
1.03203e-07
1.02666e-07
1.02189e-07
1.01744e-07
1.01348e-07
1.00978e-07
1.00647e-07
1.00336e-07
1.00056e-07
9.97928e-08
9.95546e-08
9.93298e-08
9.91251e-08
9.89322e-08
9.8755e-08
9.85884e-08
9.84341e-08
9.82894e-08
9.81539e-08
9.80277e-08
9.79081e-08
9.77977e-08
9.76908e-08
9.7594e-08
9.74989e-08
9.74131e-08
9.73275e-08
9.7252e-08
9.71746e-08
9.71086e-08
9.70377e-08
9.69794e-08
9.69141e-08
9.68621e-08
9.68002e-08
9.6755e-08
9.6699e-08
9.6658e-08
9.6607e-08
9.657e-08
9.65242e-08
9.64906e-08
9.64471e-08
9.64155e-08
9.63761e-08
9.63468e-08
9.63096e-08
9.62826e-08
9.62491e-08
9.62246e-08
9.61934e-08
9.61696e-08
9.61398e-08
9.61174e-08
9.60903e-08
9.60708e-08
9.60461e-08
9.60289e-08
9.60058e-08
9.59893e-08
9.59664e-08
9.59498e-08
9.5927e-08
9.59105e-08
9.58884e-08
9.5872e-08
9.58505e-08
9.58324e-08
9.58089e-08
9.57886e-08
9.57637e-08
9.57449e-08
9.57219e-08
9.56806e-08
9.56876e-08
9.6624e-08
9.89877e-08
1.17478e-08
1.23933e-07
1.23152e-07
1.22383e-07
1.21297e-07
1.1987e-07
1.18191e-07
1.1644e-07
1.14702e-07
1.13076e-07
1.11562e-07
1.10202e-07
1.0896e-07
1.0786e-07
1.06858e-07
1.05973e-07
1.05164e-07
1.0445e-07
1.03793e-07
1.03212e-07
1.02674e-07
1.02196e-07
1.01752e-07
1.01355e-07
1.00985e-07
1.00654e-07
1.00342e-07
1.00062e-07
9.97983e-08
9.956e-08
9.93349e-08
9.91299e-08
9.89368e-08
9.87595e-08
9.85927e-08
9.84382e-08
9.82934e-08
9.81577e-08
9.80313e-08
9.79116e-08
9.78011e-08
9.7694e-08
9.75971e-08
9.75019e-08
9.7416e-08
9.73303e-08
9.72546e-08
9.71771e-08
9.71111e-08
9.70401e-08
9.69817e-08
9.69164e-08
9.68643e-08
9.68023e-08
9.67571e-08
9.6701e-08
9.66599e-08
9.66088e-08
9.65718e-08
9.65259e-08
9.64922e-08
9.64487e-08
9.64171e-08
9.63776e-08
9.63483e-08
9.6311e-08
9.6284e-08
9.62505e-08
9.62259e-08
9.61947e-08
9.61708e-08
9.6141e-08
9.61186e-08
9.60915e-08
9.60719e-08
9.60472e-08
9.603e-08
9.60068e-08
9.59903e-08
9.59673e-08
9.59507e-08
9.59279e-08
9.59114e-08
9.58892e-08
9.58728e-08
9.58512e-08
9.58332e-08
9.58097e-08
9.57895e-08
9.57644e-08
9.57458e-08
9.57227e-08
9.56815e-08
9.56888e-08
9.66402e-08
9.89925e-08
1.22759e-08
1.23933e-07
1.23151e-07
1.22382e-07
1.21299e-07
1.19875e-07
1.18199e-07
1.1645e-07
1.14713e-07
1.13088e-07
1.11575e-07
1.10215e-07
1.08973e-07
1.07873e-07
1.0687e-07
1.05985e-07
1.05176e-07
1.04461e-07
1.03803e-07
1.03222e-07
1.02683e-07
1.02205e-07
1.0176e-07
1.01364e-07
1.00993e-07
1.00661e-07
1.00349e-07
1.00069e-07
9.98049e-08
9.95663e-08
9.93409e-08
9.91357e-08
9.89424e-08
9.87648e-08
9.85978e-08
9.84431e-08
9.82981e-08
9.81622e-08
9.80356e-08
9.79157e-08
9.78051e-08
9.76979e-08
9.76008e-08
9.75055e-08
9.74195e-08
9.73336e-08
9.72579e-08
9.71803e-08
9.71141e-08
9.7043e-08
9.69845e-08
9.69191e-08
9.6867e-08
9.68048e-08
9.67595e-08
9.67034e-08
9.66622e-08
9.6611e-08
9.6574e-08
9.6528e-08
9.64943e-08
9.64507e-08
9.6419e-08
9.63795e-08
9.63501e-08
9.63128e-08
9.62857e-08
9.62521e-08
9.62276e-08
9.61963e-08
9.61724e-08
9.61426e-08
9.61201e-08
9.60929e-08
9.60733e-08
9.60485e-08
9.60313e-08
9.60081e-08
9.59915e-08
9.59685e-08
9.59519e-08
9.5929e-08
9.59125e-08
9.58903e-08
9.58738e-08
9.58522e-08
9.58342e-08
9.58108e-08
9.57907e-08
9.57655e-08
9.57469e-08
9.57239e-08
9.56828e-08
9.56904e-08
9.66595e-08
9.8998e-08
1.2838e-08
1.23933e-07
1.23151e-07
1.22382e-07
1.21301e-07
1.19881e-07
1.18208e-07
1.16461e-07
1.14726e-07
1.13102e-07
1.11589e-07
1.1023e-07
1.08988e-07
1.07887e-07
1.06884e-07
1.05998e-07
1.05189e-07
1.04473e-07
1.03815e-07
1.03233e-07
1.02694e-07
1.02216e-07
1.0177e-07
1.01373e-07
1.01002e-07
1.0067e-07
1.00358e-07
1.00077e-07
9.98126e-08
9.95736e-08
9.9348e-08
9.91425e-08
9.89489e-08
9.8771e-08
9.86038e-08
9.84489e-08
9.83036e-08
9.81675e-08
9.80407e-08
9.79206e-08
9.78098e-08
9.77025e-08
9.76052e-08
9.75097e-08
9.74236e-08
9.73376e-08
9.72617e-08
9.71839e-08
9.71177e-08
9.70465e-08
9.69879e-08
9.69223e-08
9.68701e-08
9.68079e-08
9.67625e-08
9.67063e-08
9.6665e-08
9.66137e-08
9.65766e-08
9.65306e-08
9.64968e-08
9.64531e-08
9.64214e-08
9.63817e-08
9.63524e-08
9.6315e-08
9.62879e-08
9.62542e-08
9.62296e-08
9.61983e-08
9.61744e-08
9.61445e-08
9.6122e-08
9.60947e-08
9.60751e-08
9.60502e-08
9.60329e-08
9.60097e-08
9.59931e-08
9.597e-08
9.59534e-08
9.59305e-08
9.5914e-08
9.58916e-08
9.58752e-08
9.58534e-08
9.58355e-08
9.58122e-08
9.57921e-08
9.57668e-08
9.57484e-08
9.57253e-08
9.56843e-08
9.56924e-08
9.66822e-08
9.90042e-08
1.34341e-08
1.23933e-07
1.2315e-07
1.22382e-07
1.21304e-07
1.19887e-07
1.18217e-07
1.16474e-07
1.14741e-07
1.13118e-07
1.11606e-07
1.10246e-07
1.09004e-07
1.07903e-07
1.069e-07
1.06014e-07
1.05203e-07
1.04488e-07
1.03829e-07
1.03246e-07
1.02707e-07
1.02228e-07
1.01782e-07
1.01384e-07
1.01013e-07
1.0068e-07
1.00367e-07
1.00086e-07
9.98214e-08
9.95821e-08
9.93561e-08
9.91502e-08
9.89563e-08
9.87782e-08
9.86106e-08
9.84555e-08
9.83099e-08
9.81736e-08
9.80466e-08
9.79263e-08
9.78153e-08
9.77078e-08
9.76103e-08
9.75146e-08
9.74283e-08
9.73422e-08
9.72662e-08
9.71882e-08
9.71219e-08
9.70505e-08
9.69918e-08
9.69261e-08
9.68738e-08
9.68114e-08
9.6766e-08
9.67096e-08
9.66683e-08
9.66169e-08
9.65797e-08
9.65336e-08
9.64997e-08
9.64559e-08
9.64242e-08
9.63844e-08
9.6355e-08
9.63176e-08
9.62904e-08
9.62566e-08
9.6232e-08
9.62006e-08
9.61767e-08
9.61467e-08
9.61242e-08
9.60969e-08
9.60772e-08
9.60522e-08
9.60349e-08
9.60116e-08
9.59949e-08
9.59718e-08
9.59552e-08
9.59322e-08
9.59157e-08
9.58933e-08
9.58768e-08
9.5855e-08
9.58371e-08
9.58139e-08
9.57939e-08
9.57684e-08
9.57502e-08
9.5727e-08
9.56861e-08
9.56947e-08
9.67082e-08
9.9011e-08
1.40635e-08
1.23933e-07
1.23149e-07
1.22382e-07
1.21307e-07
1.19894e-07
1.18228e-07
1.16488e-07
1.14757e-07
1.13136e-07
1.11624e-07
1.10265e-07
1.09023e-07
1.07922e-07
1.06918e-07
1.06031e-07
1.0522e-07
1.04504e-07
1.03844e-07
1.03261e-07
1.02721e-07
1.02241e-07
1.01795e-07
1.01397e-07
1.01025e-07
1.00691e-07
1.00378e-07
1.00097e-07
9.98313e-08
9.95916e-08
9.93652e-08
9.9159e-08
9.89647e-08
9.87863e-08
9.86184e-08
9.84629e-08
9.83171e-08
9.81805e-08
9.80533e-08
9.79327e-08
9.78215e-08
9.77138e-08
9.76161e-08
9.75202e-08
9.74337e-08
9.73474e-08
9.72712e-08
9.71931e-08
9.71266e-08
9.70551e-08
9.69962e-08
9.69304e-08
9.6878e-08
9.68155e-08
9.67699e-08
9.67135e-08
9.6672e-08
9.66206e-08
9.65832e-08
9.6537e-08
9.6503e-08
9.64592e-08
9.64274e-08
9.63876e-08
9.63581e-08
9.63206e-08
9.62933e-08
9.62595e-08
9.62348e-08
9.62033e-08
9.61793e-08
9.61493e-08
9.61268e-08
9.60994e-08
9.60796e-08
9.60546e-08
9.60372e-08
9.60138e-08
9.59971e-08
9.59739e-08
9.59573e-08
9.59343e-08
9.59177e-08
9.58952e-08
9.58787e-08
9.58568e-08
9.5839e-08
9.58158e-08
9.57959e-08
9.57703e-08
9.57522e-08
9.5729e-08
9.56883e-08
9.56975e-08
9.6738e-08
9.90182e-08
1.47258e-08
1.23933e-07
1.23148e-07
1.22382e-07
1.2131e-07
1.19902e-07
1.1824e-07
1.16504e-07
1.14775e-07
1.13155e-07
1.11644e-07
1.10286e-07
1.09044e-07
1.07942e-07
1.06938e-07
1.0605e-07
1.05239e-07
1.04521e-07
1.03862e-07
1.03277e-07
1.02737e-07
1.02256e-07
1.01809e-07
1.01411e-07
1.01038e-07
1.00704e-07
1.0039e-07
1.00108e-07
9.98424e-08
9.96022e-08
9.93754e-08
9.91688e-08
9.89741e-08
9.87953e-08
9.86271e-08
9.84713e-08
9.83252e-08
9.81883e-08
9.80608e-08
9.794e-08
9.78285e-08
9.77205e-08
9.76226e-08
9.75265e-08
9.74399e-08
9.73533e-08
9.7277e-08
9.71987e-08
9.7132e-08
9.70603e-08
9.70013e-08
9.69353e-08
9.68828e-08
9.68202e-08
9.67745e-08
9.67179e-08
9.66763e-08
9.66247e-08
9.65873e-08
9.65409e-08
9.65069e-08
9.6463e-08
9.6431e-08
9.63911e-08
9.63616e-08
9.6324e-08
9.62966e-08
9.62627e-08
9.62379e-08
9.62064e-08
9.61824e-08
9.61523e-08
9.61297e-08
9.61022e-08
9.60824e-08
9.60573e-08
9.60399e-08
9.60164e-08
9.59997e-08
9.59764e-08
9.59597e-08
9.59366e-08
9.592e-08
9.58975e-08
9.5881e-08
9.58589e-08
9.58412e-08
9.58181e-08
9.57983e-08
9.57725e-08
9.57545e-08
9.57314e-08
9.56908e-08
9.57006e-08
9.67714e-08
9.90257e-08
1.5423e-08
1.23933e-07
1.23147e-07
1.22382e-07
1.21313e-07
1.1991e-07
1.18253e-07
1.1652e-07
1.14794e-07
1.13177e-07
1.11667e-07
1.10309e-07
1.09066e-07
1.07964e-07
1.06959e-07
1.06072e-07
1.05259e-07
1.04541e-07
1.0388e-07
1.03296e-07
1.02754e-07
1.02273e-07
1.01825e-07
1.01426e-07
1.01052e-07
1.00718e-07
1.00404e-07
1.00121e-07
9.98547e-08
9.9614e-08
9.93867e-08
9.91797e-08
9.89845e-08
9.88054e-08
9.86368e-08
9.84806e-08
9.83342e-08
9.8197e-08
9.80691e-08
9.7948e-08
9.78363e-08
9.7728e-08
9.76299e-08
9.75336e-08
9.74467e-08
9.73599e-08
9.72834e-08
9.72048e-08
9.7138e-08
9.70661e-08
9.7007e-08
9.69408e-08
9.68882e-08
9.68254e-08
9.67795e-08
9.67228e-08
9.66811e-08
9.66294e-08
9.65918e-08
9.65453e-08
9.65112e-08
9.64672e-08
9.64351e-08
9.63951e-08
9.63655e-08
9.63278e-08
9.63004e-08
9.62664e-08
9.62415e-08
9.62099e-08
9.61859e-08
9.61557e-08
9.61331e-08
9.61055e-08
9.60856e-08
9.60604e-08
9.60429e-08
9.60193e-08
9.60026e-08
9.59792e-08
9.59625e-08
9.59393e-08
9.59227e-08
9.59001e-08
9.58836e-08
9.58614e-08
9.58437e-08
9.58206e-08
9.58009e-08
9.5775e-08
9.57572e-08
9.5734e-08
9.56936e-08
9.57042e-08
9.68089e-08
9.90332e-08
1.61573e-08
1.23933e-07
1.23146e-07
1.22382e-07
1.21317e-07
1.19919e-07
1.18267e-07
1.16539e-07
1.14816e-07
1.132e-07
1.11691e-07
1.10333e-07
1.09091e-07
1.07989e-07
1.06983e-07
1.06095e-07
1.05281e-07
1.04563e-07
1.03901e-07
1.03315e-07
1.02773e-07
1.02291e-07
1.01842e-07
1.01442e-07
1.01068e-07
1.00733e-07
1.00418e-07
1.00135e-07
9.98682e-08
9.9627e-08
9.93992e-08
9.91917e-08
9.89961e-08
9.88165e-08
9.86474e-08
9.84909e-08
9.83441e-08
9.82065e-08
9.80784e-08
9.79569e-08
9.78449e-08
9.77363e-08
9.76379e-08
9.75413e-08
9.74542e-08
9.73672e-08
9.72904e-08
9.72117e-08
9.71447e-08
9.70725e-08
9.70132e-08
9.69469e-08
9.68941e-08
9.68312e-08
9.67851e-08
9.67283e-08
9.66864e-08
9.66346e-08
9.65969e-08
9.65503e-08
9.6516e-08
9.64719e-08
9.64397e-08
9.63996e-08
9.63699e-08
9.63321e-08
9.63046e-08
9.62705e-08
9.62456e-08
9.62139e-08
9.61898e-08
9.61595e-08
9.61368e-08
9.61092e-08
9.60892e-08
9.60639e-08
9.60463e-08
9.60226e-08
9.60058e-08
9.59824e-08
9.59656e-08
9.59424e-08
9.59257e-08
9.59031e-08
9.58865e-08
9.58642e-08
9.58465e-08
9.58235e-08
9.58039e-08
9.57779e-08
9.57602e-08
9.5737e-08
9.56968e-08
9.57082e-08
9.68504e-08
9.90404e-08
1.69311e-08
1.23933e-07
1.23145e-07
1.22382e-07
1.21321e-07
1.19929e-07
1.18283e-07
1.16559e-07
1.14839e-07
1.13226e-07
1.11718e-07
1.1036e-07
1.09118e-07
1.08015e-07
1.07009e-07
1.0612e-07
1.05306e-07
1.04586e-07
1.03924e-07
1.03337e-07
1.02794e-07
1.02311e-07
1.01862e-07
1.01461e-07
1.01086e-07
1.0075e-07
1.00434e-07
1.0015e-07
9.9883e-08
9.96412e-08
9.94128e-08
9.92048e-08
9.90087e-08
9.88286e-08
9.86591e-08
9.85022e-08
9.83549e-08
9.8217e-08
9.80885e-08
9.79667e-08
9.78543e-08
9.77455e-08
9.76468e-08
9.75499e-08
9.74625e-08
9.73752e-08
9.72983e-08
9.72192e-08
9.7152e-08
9.70797e-08
9.70202e-08
9.69536e-08
9.69007e-08
9.68376e-08
9.67914e-08
9.67343e-08
9.66923e-08
9.66403e-08
9.66025e-08
9.65557e-08
9.65213e-08
9.64771e-08
9.64448e-08
9.64046e-08
9.63748e-08
9.63369e-08
9.63093e-08
9.62751e-08
9.62501e-08
9.62182e-08
9.61941e-08
9.61637e-08
9.6141e-08
9.61132e-08
9.60932e-08
9.60678e-08
9.60501e-08
9.60263e-08
9.60095e-08
9.59859e-08
9.59691e-08
9.59458e-08
9.59291e-08
9.59063e-08
9.58897e-08
9.58673e-08
9.58497e-08
9.58267e-08
9.58072e-08
9.5781e-08
9.57636e-08
9.57404e-08
9.57004e-08
9.57126e-08
9.68961e-08
9.90469e-08
1.7747e-08
1.23933e-07
1.23143e-07
1.22382e-07
1.21325e-07
1.19939e-07
1.18299e-07
1.1658e-07
1.14864e-07
1.13253e-07
1.11746e-07
1.1039e-07
1.09147e-07
1.08044e-07
1.07037e-07
1.06147e-07
1.05332e-07
1.04612e-07
1.03948e-07
1.03361e-07
1.02816e-07
1.02333e-07
1.01882e-07
1.01481e-07
1.01105e-07
1.00768e-07
1.00452e-07
1.00167e-07
9.98991e-08
9.96567e-08
9.94277e-08
9.92191e-08
9.90224e-08
9.88419e-08
9.86719e-08
9.85145e-08
9.83668e-08
9.82285e-08
9.80996e-08
9.79774e-08
9.78647e-08
9.77555e-08
9.76564e-08
9.75593e-08
9.74716e-08
9.7384e-08
9.73068e-08
9.72275e-08
9.71601e-08
9.70875e-08
9.70278e-08
9.6961e-08
9.69079e-08
9.68446e-08
9.67982e-08
9.6741e-08
9.66988e-08
9.66466e-08
9.66086e-08
9.65617e-08
9.65272e-08
9.64828e-08
9.64505e-08
9.64101e-08
9.63802e-08
9.63422e-08
9.63145e-08
9.62801e-08
9.6255e-08
9.62231e-08
9.61989e-08
9.61684e-08
9.61456e-08
9.61177e-08
9.60977e-08
9.60721e-08
9.60544e-08
9.60304e-08
9.60135e-08
9.59899e-08
9.5973e-08
9.59496e-08
9.59329e-08
9.591e-08
9.58933e-08
9.58708e-08
9.58532e-08
9.58303e-08
9.58109e-08
9.57845e-08
9.57673e-08
9.57441e-08
9.57043e-08
9.57176e-08
9.69461e-08
9.36684e-08
1.86075e-08
1.23933e-07
1.23142e-07
1.22382e-07
1.2133e-07
1.1995e-07
1.18317e-07
1.16603e-07
1.14891e-07
1.13282e-07
1.11777e-07
1.10421e-07
1.09178e-07
1.08075e-07
1.07068e-07
1.06177e-07
1.05361e-07
1.04639e-07
1.03975e-07
1.03386e-07
1.02841e-07
1.02356e-07
1.01905e-07
1.01502e-07
1.01125e-07
1.00788e-07
1.00471e-07
1.00185e-07
9.99165e-08
9.96735e-08
9.94438e-08
9.92346e-08
9.90374e-08
9.88563e-08
9.86857e-08
9.85278e-08
9.83797e-08
9.82409e-08
9.81116e-08
9.7989e-08
9.78759e-08
9.77664e-08
9.7667e-08
9.75695e-08
9.74815e-08
9.73936e-08
9.73161e-08
9.72365e-08
9.71688e-08
9.7096e-08
9.70361e-08
9.6969e-08
9.69158e-08
9.68523e-08
9.68057e-08
9.67483e-08
9.67059e-08
9.66535e-08
9.66154e-08
9.65683e-08
9.65336e-08
9.64891e-08
9.64566e-08
9.64161e-08
9.63861e-08
9.63479e-08
9.63201e-08
9.62856e-08
9.62604e-08
9.62284e-08
9.62041e-08
9.61736e-08
9.61507e-08
9.61227e-08
9.61026e-08
9.60768e-08
9.6059e-08
9.60349e-08
9.6018e-08
9.59942e-08
9.59773e-08
9.59538e-08
9.5937e-08
9.5914e-08
9.58973e-08
9.58746e-08
9.58571e-08
9.58342e-08
9.5815e-08
9.57884e-08
9.57713e-08
9.57481e-08
9.57087e-08
9.5723e-08
9.70005e-08
8.84075e-08
1.95155e-08
1.23933e-07
1.2314e-07
1.22381e-07
1.21334e-07
1.19962e-07
1.18335e-07
1.16628e-07
1.1492e-07
1.13314e-07
1.1181e-07
1.10455e-07
1.09212e-07
1.08108e-07
1.071e-07
1.06208e-07
1.05391e-07
1.04669e-07
1.04003e-07
1.03413e-07
1.02867e-07
1.02381e-07
1.01929e-07
1.01525e-07
1.01148e-07
1.00809e-07
1.00491e-07
1.00205e-07
9.99354e-08
9.96916e-08
9.94612e-08
9.92514e-08
9.90535e-08
9.88718e-08
9.87007e-08
9.85423e-08
9.83936e-08
9.82544e-08
9.81246e-08
9.80016e-08
9.78881e-08
9.77781e-08
9.76784e-08
9.75805e-08
9.74923e-08
9.7404e-08
9.73262e-08
9.72463e-08
9.71784e-08
9.71052e-08
9.70451e-08
9.69778e-08
9.69244e-08
9.68606e-08
9.68138e-08
9.67562e-08
9.67137e-08
9.66611e-08
9.66227e-08
9.65754e-08
9.65407e-08
9.6496e-08
9.64633e-08
9.64226e-08
9.63926e-08
9.63542e-08
9.63263e-08
9.62917e-08
9.62664e-08
9.62342e-08
9.62099e-08
9.61792e-08
9.61563e-08
9.61281e-08
9.61079e-08
9.6082e-08
9.60641e-08
9.60399e-08
9.60228e-08
9.5999e-08
9.5982e-08
9.59584e-08
9.59416e-08
9.59185e-08
9.59017e-08
9.58789e-08
9.58613e-08
9.58385e-08
9.58194e-08
9.57927e-08
9.57757e-08
9.57526e-08
9.57134e-08
9.5729e-08
9.70593e-08
8.37179e-08
2.04739e-08
1.23932e-07
1.23139e-07
1.22381e-07
1.21339e-07
1.19974e-07
1.18355e-07
1.16654e-07
1.1495e-07
1.13347e-07
1.11845e-07
1.10491e-07
1.09248e-07
1.08144e-07
1.07135e-07
1.06242e-07
1.05424e-07
1.047e-07
1.04033e-07
1.03443e-07
1.02895e-07
1.02408e-07
1.01955e-07
1.0155e-07
1.01171e-07
1.00832e-07
1.00513e-07
1.00226e-07
9.99556e-08
9.97111e-08
9.94799e-08
9.92695e-08
9.90709e-08
9.88886e-08
9.87168e-08
9.85579e-08
9.84087e-08
9.82689e-08
9.81386e-08
9.80152e-08
9.79012e-08
9.77909e-08
9.76907e-08
9.75925e-08
9.75039e-08
9.74152e-08
9.73372e-08
9.72569e-08
9.71887e-08
9.71152e-08
9.70549e-08
9.69873e-08
9.69336e-08
9.68696e-08
9.68226e-08
9.67647e-08
9.6722e-08
9.66692e-08
9.66307e-08
9.65832e-08
9.65483e-08
9.65034e-08
9.64706e-08
9.64298e-08
9.63996e-08
9.63611e-08
9.63331e-08
9.62982e-08
9.62728e-08
9.62405e-08
9.62161e-08
9.61853e-08
9.61623e-08
9.6134e-08
9.61137e-08
9.60877e-08
9.60697e-08
9.60453e-08
9.60282e-08
9.60042e-08
9.59872e-08
9.59634e-08
9.59466e-08
9.59233e-08
9.59066e-08
9.58835e-08
9.5866e-08
9.58431e-08
9.58242e-08
9.57973e-08
9.57806e-08
9.57575e-08
9.57186e-08
9.57354e-08
9.71226e-08
7.95316e-08
2.14856e-08
1.23932e-07
1.23137e-07
1.22381e-07
1.21344e-07
1.19987e-07
1.18376e-07
1.16681e-07
1.14982e-07
1.13383e-07
1.11883e-07
1.10529e-07
1.09286e-07
1.08182e-07
1.07172e-07
1.06278e-07
1.05459e-07
1.04734e-07
1.04066e-07
1.03474e-07
1.02925e-07
1.02437e-07
1.01982e-07
1.01577e-07
1.01197e-07
1.00857e-07
1.00537e-07
1.00249e-07
9.99774e-08
9.97321e-08
9.95001e-08
9.92889e-08
9.90895e-08
9.89066e-08
9.87342e-08
9.85746e-08
9.84248e-08
9.82845e-08
9.81537e-08
9.80298e-08
9.79154e-08
9.78046e-08
9.7704e-08
9.76053e-08
9.75164e-08
9.74273e-08
9.7349e-08
9.72683e-08
9.71998e-08
9.7126e-08
9.70654e-08
9.69975e-08
9.69436e-08
9.68794e-08
9.68321e-08
9.6774e-08
9.67311e-08
9.66781e-08
9.66393e-08
9.65916e-08
9.65565e-08
9.65115e-08
9.64785e-08
9.64375e-08
9.64072e-08
9.63685e-08
9.63404e-08
9.63054e-08
9.62798e-08
9.62474e-08
9.62229e-08
9.61919e-08
9.61689e-08
9.61404e-08
9.61201e-08
9.60938e-08
9.60757e-08
9.60512e-08
9.6034e-08
9.60098e-08
9.59928e-08
9.59689e-08
9.5952e-08
9.59286e-08
9.59118e-08
9.58886e-08
9.58711e-08
9.58481e-08
9.58294e-08
9.58023e-08
9.57858e-08
9.57627e-08
9.57242e-08
9.57424e-08
9.71903e-08
7.57904e-08
2.25537e-08
1.23932e-07
1.23135e-07
1.2238e-07
1.21349e-07
1.2e-07
1.18398e-07
1.1671e-07
1.15017e-07
1.1342e-07
1.11922e-07
1.10569e-07
1.09327e-07
1.08222e-07
1.07211e-07
1.06317e-07
1.05496e-07
1.0477e-07
1.04101e-07
1.03507e-07
1.02957e-07
1.02468e-07
1.02012e-07
1.01605e-07
1.01224e-07
1.00883e-07
1.00562e-07
1.00273e-07
1.00001e-07
9.97545e-08
9.95216e-08
9.93096e-08
9.91095e-08
9.89258e-08
9.87528e-08
9.85926e-08
9.84422e-08
9.83013e-08
9.81699e-08
9.80454e-08
9.79306e-08
9.78193e-08
9.77183e-08
9.76192e-08
9.75298e-08
9.74404e-08
9.73616e-08
9.72806e-08
9.72118e-08
9.71376e-08
9.70767e-08
9.70085e-08
9.69544e-08
9.68899e-08
9.68423e-08
9.6784e-08
9.67408e-08
9.66876e-08
9.66486e-08
9.66006e-08
9.65654e-08
9.65202e-08
9.64871e-08
9.64458e-08
9.64153e-08
9.63765e-08
9.63482e-08
9.6313e-08
9.62874e-08
9.62548e-08
9.62302e-08
9.61991e-08
9.6176e-08
9.61474e-08
9.61269e-08
9.61005e-08
9.60823e-08
9.60576e-08
9.60403e-08
9.6016e-08
9.59989e-08
9.59748e-08
9.59579e-08
9.59343e-08
9.59175e-08
9.58941e-08
9.58766e-08
9.58535e-08
9.5835e-08
9.58078e-08
9.57915e-08
9.57685e-08
9.57302e-08
9.575e-08
9.72619e-08
7.24446e-08
2.36811e-08
1.23932e-07
1.23133e-07
1.2238e-07
1.21355e-07
1.20015e-07
1.18421e-07
1.16741e-07
1.15053e-07
1.1346e-07
1.11964e-07
1.10612e-07
1.0937e-07
1.08265e-07
1.07253e-07
1.06358e-07
1.05536e-07
1.04809e-07
1.04138e-07
1.03543e-07
1.02991e-07
1.02501e-07
1.02044e-07
1.01636e-07
1.01253e-07
1.00911e-07
1.00589e-07
1.00299e-07
1.00025e-07
9.97784e-08
9.95446e-08
9.93318e-08
9.91308e-08
9.89464e-08
9.87726e-08
9.86118e-08
9.84607e-08
9.83192e-08
9.81873e-08
9.80622e-08
9.79468e-08
9.7835e-08
9.77335e-08
9.7634e-08
9.75442e-08
9.74543e-08
9.73752e-08
9.72938e-08
9.72246e-08
9.71501e-08
9.70889e-08
9.70203e-08
9.6966e-08
9.69011e-08
9.68533e-08
9.67947e-08
9.67513e-08
9.66978e-08
9.66586e-08
9.66104e-08
9.65749e-08
9.65295e-08
9.64962e-08
9.64548e-08
9.64242e-08
9.63852e-08
9.63567e-08
9.63213e-08
9.62955e-08
9.62628e-08
9.62381e-08
9.62069e-08
9.61836e-08
9.61549e-08
9.61343e-08
9.61077e-08
9.60893e-08
9.60644e-08
9.60471e-08
9.60226e-08
9.60054e-08
9.59812e-08
9.59642e-08
9.59405e-08
9.59237e-08
9.59001e-08
9.58826e-08
9.58594e-08
9.58411e-08
9.58137e-08
9.57975e-08
9.57746e-08
9.57367e-08
9.57581e-08
9.73367e-08
6.94521e-08
2.48705e-08
1.23932e-07
1.23132e-07
1.22379e-07
1.21361e-07
1.20029e-07
1.18445e-07
1.16773e-07
1.1509e-07
1.13502e-07
1.12008e-07
1.10658e-07
1.09416e-07
1.0831e-07
1.07298e-07
1.06401e-07
1.05578e-07
1.04849e-07
1.04177e-07
1.03581e-07
1.03028e-07
1.02536e-07
1.02077e-07
1.01668e-07
1.01284e-07
1.00941e-07
1.00617e-07
1.00326e-07
1.00052e-07
9.98038e-08
9.95691e-08
9.93554e-08
9.91536e-08
9.89684e-08
9.87938e-08
9.86322e-08
9.84805e-08
9.83383e-08
9.82058e-08
9.80801e-08
9.79642e-08
9.78518e-08
9.77499e-08
9.76498e-08
9.75596e-08
9.74692e-08
9.73897e-08
9.73079e-08
9.72383e-08
9.71634e-08
9.71019e-08
9.7033e-08
9.69784e-08
9.69132e-08
9.68651e-08
9.68062e-08
9.67625e-08
9.67088e-08
9.66693e-08
9.66208e-08
9.65852e-08
9.65395e-08
9.65061e-08
9.64644e-08
9.64336e-08
9.63944e-08
9.63659e-08
9.63302e-08
9.63043e-08
9.62713e-08
9.62466e-08
9.62152e-08
9.61919e-08
9.61629e-08
9.61422e-08
9.61154e-08
9.60969e-08
9.60719e-08
9.60544e-08
9.60298e-08
9.60125e-08
9.59881e-08
9.59711e-08
9.59472e-08
9.59303e-08
9.59066e-08
9.58891e-08
9.58656e-08
9.58476e-08
9.582e-08
9.58041e-08
9.57812e-08
9.57437e-08
9.57668e-08
9.7414e-08
6.67767e-08
2.61243e-08
1.23932e-07
1.2313e-07
1.22378e-07
1.21366e-07
1.20045e-07
1.1847e-07
1.16806e-07
1.1513e-07
1.13546e-07
1.12055e-07
1.10705e-07
1.09464e-07
1.08358e-07
1.07344e-07
1.06447e-07
1.05622e-07
1.04892e-07
1.04218e-07
1.03621e-07
1.03066e-07
1.02573e-07
1.02113e-07
1.01702e-07
1.01317e-07
1.00972e-07
1.00648e-07
1.00356e-07
1.0008e-07
9.98309e-08
9.95951e-08
9.93805e-08
9.91778e-08
9.89918e-08
9.88164e-08
9.8654e-08
9.85015e-08
9.83587e-08
9.82255e-08
9.80992e-08
9.79827e-08
9.78698e-08
9.77673e-08
9.76666e-08
9.7576e-08
9.74851e-08
9.74052e-08
9.73229e-08
9.7253e-08
9.71777e-08
9.71158e-08
9.70465e-08
9.69916e-08
9.69261e-08
9.68777e-08
9.68185e-08
9.67746e-08
9.67205e-08
9.66808e-08
9.6632e-08
9.65961e-08
9.65503e-08
9.65166e-08
9.64747e-08
9.64438e-08
9.64044e-08
9.63756e-08
9.63398e-08
9.63137e-08
9.62806e-08
9.62557e-08
9.62241e-08
9.62007e-08
9.61716e-08
9.61508e-08
9.61238e-08
9.61051e-08
9.60798e-08
9.60623e-08
9.60375e-08
9.60201e-08
9.59956e-08
9.59785e-08
9.59544e-08
9.59375e-08
9.59135e-08
9.5896e-08
9.58723e-08
9.58545e-08
9.58268e-08
9.58111e-08
9.57884e-08
9.57512e-08
9.57761e-08
9.74929e-08
6.43877e-08
2.74443e-08
1.23932e-07
1.23127e-07
1.22378e-07
1.21372e-07
1.20061e-07
1.18496e-07
1.16841e-07
1.15172e-07
1.13592e-07
1.12103e-07
1.10756e-07
1.09514e-07
1.08408e-07
1.07394e-07
1.06495e-07
1.05669e-07
1.04938e-07
1.04262e-07
1.03663e-07
1.03107e-07
1.02612e-07
1.0215e-07
1.01738e-07
1.01352e-07
1.01006e-07
1.0068e-07
1.00387e-07
1.0011e-07
9.98596e-08
9.96227e-08
9.94072e-08
9.92035e-08
9.90166e-08
9.88403e-08
9.86772e-08
9.85239e-08
9.83804e-08
9.82465e-08
9.81195e-08
9.80024e-08
9.78889e-08
9.77858e-08
9.76846e-08
9.75934e-08
9.75021e-08
9.74218e-08
9.73389e-08
9.72686e-08
9.71928e-08