/*--------------------------------*- C++ -*----------------------------------*\
| =========                 |                                                 |
| \\      /  F ield         | OpenFOAM: The Open Source CFD Toolbox           |
|  \\    /   O peration     | Version:  v2012                                 |
|   \\  /    A nd           | Website:  www.openfoam.com                      |
|    \\/     M anipulation  |                                                 |
\*---------------------------------------------------------------------------*/
FoamFile
{
    version     2.0;
    format      ascii;
    class       volScalarField;
    location    "56.5";
    object      omega;
}
// * * * * * * * * * * * * * * * * * * * * * * * * * * * * * * * * * * * * * //

dimensions      [0 0 -1 0 0 0 0];


internalField   nonuniform List<scalar> 
209825
(
8261.79
7570.17
6999.5
6539.18
6173.28
5883.95
5653.3
5467.98
5316.6
5192.02
5087.62
4999.91
4924.78
4860.64
4804.67
4756.32
4713.44
4676.08
4642.46
4613
4586.12
4562.5
4540.66
4521.44
4503.44
4487.62
4472.62
4459.45
4446.79
4435.75
4424.99
4415.64
4406.42
4398.46
4390.49
4383.68
4376.78
4370.92
4364.9
4359.82
4354.57
4350.17
4345.52
4341.71
4337.64
4334.3
4330.71
4327.75
4324.6
4322.02
4319.24
4317
4314.62
4312.6
4310.48
4308.71
4306.84
4305.29
4303.6
4302.26
4300.83
4299.73
4298.42
4297.51
4296.39
4295.62
4294.59
4293.94
4293.06
4292.57
4291.83
4291.43
4290.8
4290.46
4289.86
4289.49
4288.91
4288.58
4288.06
4287.79
4287.34
4287.13
4286.73
4286.58
4286.25
4286.23
4286.14
4286.32
4286.32
4286.63
4286.63
4287.27
4288.01
4316.06
4424.18
113072
8261.79
7570.17
6999.51
6539.18
6173.27
5883.93
5653.27
5467.94
5316.55
5191.96
5087.55
4999.84
4924.7
4860.56
4804.58
4756.23
4713.34
4675.98
4642.36
4612.9
4586.02
4562.39
4540.56
4521.33
4503.33
4487.5
4472.5
4459.33
4446.68
4435.63
4424.87
4415.52
4406.3
4398.34
4390.37
4383.56
4376.65
4370.8
4364.77
4359.69
4354.44
4350.04
4345.4
4341.58
4337.51
4334.17
4330.57
4327.62
4324.47
4321.88
4319.11
4316.87
4314.49
4312.46
4310.34
4308.58
4306.71
4305.16
4303.47
4302.13
4300.7
4299.59
4298.28
4297.38
4296.26
4295.48
4294.46
4293.81
4292.93
4292.43
4291.69
4291.29
4290.66
4290.32
4289.72
4289.35
4288.77
4288.44
4287.92
4287.65
4287.2
4286.99
4286.59
4286.44
4286.11
4286.09
4286
4286.18
4286.18
4286.49
4286.49
4287.13
4287.87
4315.96
4424.09
109773
8261.79
7570.18
6999.51
6539.16
6173.22
5883.85
5653.15
5467.79
5316.37
5191.75
5087.33
4999.59
4924.43
4860.28
4804.28
4755.92
4713.02
4675.66
4642.02
4612.55
4585.66
4562.03
4540.19
4520.96
4502.95
4487.12
4472.12
4458.94
4446.28
4435.23
4424.47
4415.12
4405.89
4397.93
4389.96
4383.14
4376.24
4370.38
4364.35
4359.27
4354.02
4349.61
4344.97
4341.15
4337.08
4333.74
4330.14
4327.19
4324.03
4321.45
4318.67
4316.43
4314.05
4312.03
4309.9
4308.14
4306.27
4304.72
4303.03
4301.68
4300.25
4299.15
4297.84
4296.93
4295.81
4295.04
4294.01
4293.36
4292.48
4291.98
4291.24
4290.84
4290.21
4289.87
4289.27
4288.9
4288.32
4287.99
4287.47
4287.2
4286.75
4286.54
4286.14
4285.99
4285.65
4285.64
4285.55
4285.72
4285.72
4286.03
4286.03
4286.67
4287.41
4315.61
4423.72
105986
8261.79
7570.19
6999.51
6539.14
6173.14
5883.7
5652.95
5467.53
5316.06
5191.4
5086.93
4999.16
4923.98
4859.79
4803.78
4755.4
4712.47
4675.09
4641.44
4611.96
4585.06
4561.42
4539.56
4520.32
4502.31
4486.47
4471.46
4458.27
4445.61
4434.55
4423.78
4414.43
4405.19
4397.23
4389.25
4382.44
4375.53
4369.66
4363.63
4358.55
4353.3
4348.89
4344.24
4340.42
4336.35
4333.01
4329.41
4326.45
4323.29
4320.71
4317.93
4315.69
4313.31
4311.28
4309.15
4307.39
4305.51
4303.96
4302.27
4300.93
4299.49
4298.39
4297.08
4296.17
4295.05
4294.27
4293.24
4292.59
4291.71
4291.22
4290.47
4290.07
4289.44
4289.1
4288.5
4288.13
4287.54
4287.22
4286.7
4286.43
4285.97
4285.76
4285.36
4285.21
4284.88
4284.86
4284.76
4284.94
4284.94
4285.24
4285.24
4285.88
4286.63
4314.97
4423.06
102092
8261.79
7570.21
6999.52
6539.1
6173.02
5883.5
5652.66
5467.16
5315.62
5190.9
5086.37
4998.56
4923.32
4859.1
4803.05
4754.64
4711.69
4674.29
4640.61
4611.11
4584.19
4560.54
4538.67
4519.41
4501.39
4485.54
4470.51
4457.32
4444.65
4433.58
4422.8
4413.44
4404.2
4396.23
4388.25
4381.43
4374.52
4368.65
4362.61
4357.52
4352.27
4347.85
4343.2
4339.38
4335.3
4331.96
4328.36
4325.4
4322.24
4319.65
4316.87
4314.62
4312.24
4310.21
4308.08
4306.32
4304.44
4302.89
4301.19
4299.85
4298.41
4297.31
4295.99
4295.08
4293.96
4293.19
4292.15
4291.5
4290.62
4290.12
4289.38
4288.97
4288.35
4288
4287.4
4287.03
4286.44
4286.11
4285.59
4285.32
4284.87
4284.66
4284.26
4284.1
4283.77
4283.75
4283.65
4283.82
4283.82
4284.12
4284.12
4284.76
4285.52
4314.07
4422.13
98194.8
8261.79
7570.23
6999.53
6539.04
6172.87
5883.24
5652.28
5466.68
5315.05
5190.24
5085.64
4997.76
4922.47
4858.2
4802.11
4753.66
4710.68
4673.24
4639.53
4610.01
4583.07
4559.39
4537.5
4518.23
4500.19
4484.32
4469.28
4456.08
4443.4
4432.32
4421.53
4412.16
4402.91
4394.93
4386.95
4380.12
4373.19
4367.32
4361.28
4356.18
4350.92
4346.5
4341.85
4338.02
4333.94
4330.59
4326.99
4324.02
4320.86
4318.27
4315.48
4313.23
4310.85
4308.82
4306.69
4304.92
4303.04
4301.48
4299.79
4298.44
4297
4295.9
4294.58
4293.67
4292.54
4291.77
4290.73
4290.08
4289.19
4288.7
4287.95
4287.55
4286.92
4286.57
4285.97
4285.59
4285.01
4284.68
4284.16
4283.89
4283.43
4283.22
4282.81
4282.66
4282.33
4282.3
4282.2
4282.36
4282.36
4282.66
4282.66
4283.3
4284.06
4312.89
4420.92
94334.6
8261.79
7570.26
6999.54
6538.98
6172.68
5882.91
5651.82
5466.09
5314.34
5189.43
5084.74
4996.78
4921.42
4857.09
4800.94
4752.44
4709.41
4671.94
4638.2
4608.65
4581.67
4557.97
4536.06
4516.76
4498.7
4482.82
4467.76
4454.54
4441.84
4430.75
4419.95
4410.57
4401.31
4393.33
4385.33
4378.49
4371.56
4365.68
4359.63
4354.53
4349.26
4344.83
4340.17
4336.34
4332.25
4328.9
4325.29
4322.32
4319.15
4316.56
4313.77
4311.52
4309.13
4307.09
4304.96
4303.19
4301.3
4299.75
4298.05
4296.7
4295.26
4294.15
4292.83
4291.92
4290.79
4290.01
4288.97
4288.32
4287.43
4286.93
4286.18
4285.78
4285.14
4284.8
4284.19
4283.82
4283.23
4282.9
4282.38
4282.1
4281.65
4281.43
4281.03
4280.87
4280.54
4280.51
4280.4
4280.56
4280.56
4280.86
4280.85
4281.49
4282.26
4311.42
4419.43
90530.6
8261.78
7570.29
6999.56
6538.9
6172.46
5882.52
5651.26
5465.38
5313.49
5188.46
5083.66
4995.61
4920.16
4855.76
4799.54
4750.99
4707.91
4670.38
4636.6
4607.01
4580
4556.27
4534.33
4515.01
4496.92
4481.02
4465.94
4452.71
4439.99
4428.88
4418.07
4408.67
4399.4
4391.4
4383.39
4376.54
4369.6
4363.71
4357.65
4352.54
4347.27
4342.84
4338.17
4334.33
4330.24
4326.88
4323.26
4320.29
4317.11
4314.51
4311.72
4309.46
4307.07
4305.03
4302.89
4301.12
4299.23
4297.67
4295.97
4294.61
4293.17
4292.06
4290.73
4289.82
4288.69
4287.91
4286.87
4286.21
4285.32
4284.82
4284.07
4283.66
4283.02
4282.68
4282.07
4281.7
4281.11
4280.77
4280.25
4279.97
4279.51
4279.3
4278.89
4278.73
4278.4
4278.37
4278.25
4278.41
4278.41
4278.69
4278.69
4279.32
4280.11
4309.67
4417.65
86791.3
8261.78
7570.32
6999.58
6538.81
6172.2
5882.07
5650.62
5464.55
5312.5
5187.33
5082.41
4994.24
4918.7
4854.21
4797.92
4749.29
4706.15
4668.57
4634.74
4605.11
4578.06
4554.29
4532.31
4512.97
4494.85
4478.92
4463.82
4450.56
4437.82
4426.7
4415.87
4406.46
4397.17
4389.16
4381.13
4374.27
4367.32
4361.42
4355.35
4350.23
4344.94
4340.5
4335.83
4331.98
4327.88
4324.51
4320.89
4317.91
4314.73
4312.13
4309.33
4307.06
4304.66
4302.62
4300.48
4298.7
4296.81
4295.24
4293.54
4292.18
4290.73
4289.62
4288.29
4287.37
4286.23
4285.45
4284.41
4283.75
4282.86
4282.35
4281.6
4281.19
4280.55
4280.2
4279.59
4279.22
4278.62
4278.29
4277.76
4277.48
4277.02
4276.8
4276.39
4276.23
4275.9
4275.86
4275.74
4275.89
4275.89
4276.17
4276.17
4276.79
4277.59
4307.64
4415.59
83119.7
8261.78
7570.37
6999.6
6538.71
6171.91
5881.55
5649.88
5463.61
5311.37
5186.04
5080.97
4992.68
4917.02
4852.43
4796.05
4747.35
4704.14
4666.5
4632.61
4602.93
4575.83
4552.02
4530
4510.62
4492.47
4476.52
4461.39
4448.11
4435.34
4424.2
4413.35
4403.92
4394.61
4386.58
4378.54
4371.67
4364.7
4358.79
4352.71
4347.58
4342.28
4337.83
4333.15
4329.29
4325.18
4321.81
4318.17
4315.19
4312
4309.39
4306.58
4304.31
4301.91
4299.86
4297.71
4295.93
4294.03
4292.46
4290.75
4289.39
4287.94
4286.82
4285.49
4284.56
4283.42
4282.64
4281.59
4280.93
4280.03
4279.52
4278.77
4278.35
4277.71
4277.36
4276.75
4276.37
4275.78
4275.44
4274.91
4274.63
4274.17
4273.94
4273.53
4273.37
4273.04
4272.99
4272.86
4273.01
4273.01
4273.28
4273.27
4273.89
4274.71
4305.31
4413.25
79514
8261.78
7570.41
6999.62
6538.6
6171.58
5880.97
5649.05
5462.55
5310.1
5184.58
5079.35
4990.91
4915.13
4850.43
4793.95
4745.16
4701.87
4664.16
4630.21
4600.46
4573.31
4549.46
4527.4
4507.98
4489.79
4473.8
4458.64
4445.33
4432.54
4421.37
4410.5
4401.05
4391.72
4383.67
4375.62
4368.73
4361.75
4355.82
4349.72
4344.58
4339.27
4334.81
4330.11
4326.25
4322.13
4318.75
4315.11
4312.11
4308.92
4306.3
4303.48
4301.21
4298.8
4296.74
4294.58
4292.8
4290.89
4289.32
4287.6
4286.24
4284.78
4283.66
4282.32
4281.39
4280.25
4279.46
4278.41
4277.74
4276.84
4276.33
4275.57
4275.15
4274.51
4274.16
4273.54
4273.16
4272.56
4272.22
4271.69
4271.41
4270.94
4270.71
4270.3
4270.14
4269.8
4269.75
4269.61
4269.75
4269.75
4270.01
4270
4270.62
4271.45
4302.69
4410.63
75968.4
8261.78
7570.47
6999.65
6538.47
6171.21
5880.33
5648.13
5461.37
5308.69
5182.96
5077.54
4988.95
4913.02
4848.2
4791.6
4742.71
4699.33
4661.54
4627.52
4597.71
4570.51
4546.6
4524.49
4505.02
4486.8
4470.77
4455.57
4442.23
4429.41
4418.22
4407.32
4397.84
4388.49
4380.43
4372.35
4365.44
4358.44
4352.5
4346.39
4341.24
4335.91
4331.44
4326.73
4322.86
4318.72
4315.33
4311.68
4308.68
4305.47
4302.84
4300.02
4297.74
4295.32
4293.26
4291.09
4289.3
4287.39
4285.81
4284.09
4282.72
4281.25
4280.12
4278.78
4277.85
4276.7
4275.91
4274.85
4274.18
4273.27
4272.76
4271.99
4271.57
4270.93
4270.57
4269.95
4269.57
4268.97
4268.63
4268.09
4267.81
4267.33
4267.11
4266.69
4266.52
4266.18
4266.13
4265.97
4266.11
4266.1
4266.36
4266.35
4266.96
4267.82
4299.77
4407.74
72479.1
8261.78
7570.52
6999.68
6538.33
6170.81
5879.62
5647.12
5460.07
5307.13
5181.17
5075.55
4986.78
4910.69
4845.73
4789.01
4740.01
4696.53
4658.66
4624.55
4594.67
4567.4
4543.43
4521.27
4501.76
4483.48
4467.42
4452.18
4438.81
4425.95
4414.73
4403.8
4394.3
4384.92
4376.83
4368.74
4361.81
4354.79
4348.83
4342.7
4337.53
4332.19
4327.71
4322.98
4319.1
4314.95
4311.55
4307.88
4304.87
4301.66
4299.02
4296.19
4293.9
4291.47
4289.4
4287.23
4285.43
4283.51
4281.93
4280.19
4278.82
4277.34
4276.21
4274.86
4273.93
4272.77
4271.97
4270.91
4270.24
4269.33
4268.81
4268.04
4267.61
4266.96
4266.6
4265.98
4265.6
4264.99
4264.65
4264.11
4263.82
4263.34
4263.11
4262.69
4262.52
4262.18
4262.12
4261.95
4262.08
4262.07
4262.31
4262.31
4262.91
4263.79
4296.53
4404.57
69052.8
8261.77
7570.59
6999.71
6538.19
6170.37
5878.85
5646.01
5458.65
5305.42
5179.21
5073.37
4984.4
4908.14
4843.02
4786.17
4737.05
4693.46
4655.49
4621.3
4591.34
4563.99
4539.96
4517.74
4498.17
4479.85
4463.74
4448.46
4435.04
4422.15
4410.9
4399.93
4390.41
4381
4372.89
4364.77
4357.82
4350.78
4344.8
4338.65
4333.46
4328.11
4323.61
4318.87
4314.97
4310.81
4307.39
4303.72
4300.7
4297.47
4294.82
4291.98
4289.68
4287.24
4285.16
4282.98
4281.18
4279.25
4277.66
4275.92
4274.54
4273.05
4271.92
4270.56
4269.62
4268.45
4267.65
4266.59
4265.91
4264.99
4264.47
4263.69
4263.26
4262.61
4262.25
4261.62
4261.23
4260.63
4260.28
4259.73
4259.44
4258.96
4258.72
4258.3
4258.13
4257.78
4257.71
4257.53
4257.66
4257.65
4257.87
4257.86
4258.46
4259.37
4292.99
4401.12
65695.4
8261.77
7570.65
6999.75
6538.03
6169.9
5878.02
5644.81
5457.11
5303.57
5177.08
5071
4981.81
4905.36
4840.08
4783.07
4733.82
4690.12
4652.04
4617.75
4587.7
4560.28
4536.18
4513.89
4494.26
4475.88
4459.72
4444.4
4430.94
4418.01
4406.72
4395.72
4386.16
4376.73
4368.59
4360.44
4353.47
4346.4
4340.4
4334.23
4329.03
4323.65
4319.14
4314.38
4310.47
4306.29
4302.86
4299.17
4296.14
4292.9
4290.24
4287.39
4285.08
4282.62
4280.54
4278.35
4276.54
4274.6
4273
4271.26
4269.87
4268.37
4267.23
4265.87
4264.92
4263.75
4262.94
4261.87
4261.19
4260.26
4259.73
4258.95
4258.52
4257.86
4257.49
4256.86
4256.47
4255.86
4255.51
4254.96
4254.66
4254.17
4253.94
4253.51
4253.33
4252.98
4252.91
4252.71
4252.83
4252.81
4253.03
4253.01
4253.6
4254.54
4289.13
4397.41
62412.7
8261.77
7570.73
6999.79
6537.86
6169.39
5877.12
5643.51
5455.44
5301.57
5174.78
5068.43
4979.01
4902.36
4836.89
4779.72
4730.33
4686.49
4648.3
4613.9
4583.77
4556.26
4532.08
4509.71
4490.03
4471.59
4455.37
4439.99
4426.49
4413.52
4402.19
4391.15
4381.56
4372.09
4363.92
4355.74
4348.75
4341.66
4335.63
4329.44
4324.22
4318.82
4314.29
4309.51
4305.58
4301.39
4297.95
4294.24
4291.2
4287.94
4285.27
4282.41
4280.08
4277.62
4275.53
4273.32
4271.5
4269.55
4267.95
4266.19
4264.8
4263.3
4262.15
4260.77
4259.82
4258.64
4257.83
4256.75
4256.06
4255.13
4254.59
4253.8
4253.37
4252.7
4252.33
4251.7
4251.31
4250.69
4250.33
4249.78
4249.48
4248.98
4248.74
4248.3
4248.12
4247.77
4247.69
4247.48
4247.59
4247.57
4247.78
4247.76
4248.33
4249.31
4284.93
4393.44
59209.7
8261.76
7570.81
6999.83
6537.68
6168.85
5876.16
5642.13
5453.65
5299.41
5172.31
5065.67
4976
4899.12
4833.46
4776.11
4726.56
4682.59
4644.27
4609.76
4579.52
4551.92
4527.65
4505.21
4485.46
4466.95
4450.68
4435.25
4421.7
4408.67
4397.3
4386.22
4376.59
4367.09
4358.89
4350.68
4343.65
4336.53
4330.49
4324.27
4319.02
4313.6
4309.05
4304.26
4300.31
4296.1
4292.64
4288.92
4285.86
4282.59
4279.91
4277.03
4274.69
4272.22
4270.12
4267.9
4266.07
4264.11
4262.5
4260.73
4259.33
4257.81
4256.66
4255.28
4254.31
4253.12
4252.31
4251.22
4250.53
4249.59
4249.04
4248.25
4247.81
4247.14
4246.76
4246.12
4245.73
4245.1
4244.74
4244.18
4243.88
4243.38
4243.13
4242.69
4242.5
4242.15
4242.06
4241.84
4241.94
4241.91
4242.11
4242.08
4242.65
4243.66
4280.4
4389.21
56091.3
8261.76
7570.89
6999.88
6537.5
6168.28
5875.13
5640.64
5451.74
5297.11
5169.66
5062.71
4972.77
4895.65
4829.78
4772.24
4722.53
4678.4
4639.94
4605.31
4574.97
4547.26
4522.91
4500.38
4480.55
4461.97
4445.64
4430.14
4416.54
4403.47
4392.05
4380.92
4371.26
4361.72
4353.48
4345.23
4338.18
4331.03
4324.96
4318.71
4313.44
4308
4303.43
4298.61
4294.64
4290.41
4286.94
4283.2
4280.13
4276.84
4274.15
4271.25
4268.9
4266.41
4264.3
4262.07
4260.23
4258.26
4256.64
4254.86
4253.45
4251.92
4250.76
4249.37
4248.4
4247.2
4246.37
4245.28
4244.58
4243.63
4243.08
4242.28
4241.83
4241.15
4240.77
4240.13
4239.73
4239.1
4238.74
4238.17
4237.86
4237.35
4237.1
4236.65
4236.46
4236.1
4236.01
4235.77
4235.86
4235.83
4236.01
4235.97
4236.53
4237.58
4275.51
4384.71
53062.2
8261.75
7570.98
6999.94
6537.3
6167.67
5874.04
5639.07
5449.71
5294.66
5166.83
5059.56
4969.33
4891.95
4825.85
4768.11
4718.21
4673.92
4635.32
4600.56
4570.09
4542.28
4517.83
4495.21
4475.3
4456.65
4440.24
4424.69
4411.03
4397.9
4386.43
4375.25
4365.55
4355.96
4347.69
4339.41
4332.32
4325.14
4319.04
4312.77
4307.47
4302
4297.41
4292.56
4288.58
4284.33
4280.83
4277.08
4273.99
4270.68
4267.97
4265.06
4262.7
4260.19
4258.07
4255.83
4253.98
4251.99
4250.36
4248.57
4247.15
4245.61
4244.44
4243.04
4242.06
4240.85
4240.02
4238.92
4238.21
4237.25
4236.69
4235.88
4235.43
4234.74
4234.36
4233.71
4233.31
4232.67
4232.3
4231.73
4231.41
4230.9
4230.64
4230.19
4229.99
4229.63
4229.53
4229.28
4229.35
4229.31
4229.48
4229.43
4229.98
4231.08
4270.26
4379.92
50126.3
8261.75
7571.07
7000
6537.1
6167.03
5872.9
5637.4
5447.55
5292.06
5163.84
5056.2
4965.66
4888.01
4821.66
4763.71
4713.62
4669.15
4630.4
4595.49
4564.9
4536.97
4512.42
4489.7
4469.71
4450.97
4434.49
4418.87
4405.15
4391.96
4380.43
4369.21
4359.46
4349.83
4341.52
4333.19
4326.07
4318.85
4312.72
4306.42
4301.1
4295.6
4290.98
4286.11
4282.11
4277.83
4274.32
4270.54
4267.44
4264.11
4261.39
4258.46
4256.08
4253.56
4251.42
4249.16
4247.3
4245.3
4243.66
4241.86
4240.43
4238.88
4237.7
4236.28
4235.3
4234.07
4233.24
4232.12
4231.41
4230.44
4229.88
4229.06
4228.6
4227.9
4227.52
4226.86
4226.45
4225.81
4225.43
4224.85
4224.53
4224.01
4223.75
4223.29
4223.09
4222.72
4222.61
4222.34
4222.41
4222.36
4222.51
4222.45
4223
4224.14
4264.63
4374.81
47287.4
8261.74
7571.17
7000.06
6536.88
6166.36
5871.69
5635.64
5445.27
5289.3
5160.66
5052.65
4961.78
4883.83
4817.23
4759.04
4708.74
4664.09
4625.17
4590.11
4559.39
4531.33
4506.67
4483.85
4463.76
4444.94
4428.38
4412.68
4398.9
4385.64
4374.06
4362.78
4352.98
4343.3
4334.95
4326.59
4319.43
4312.17
4306.01
4299.67
4294.32
4288.79
4284.15
4279.25
4275.22
4270.92
4267.39
4263.59
4260.47
4257.12
4254.38
4251.43
4249.04
4246.5
4244.35
4242.08
4240.2
4238.19
4236.54
4234.72
4233.28
4231.71
4230.53
4229.1
4228.1
4226.87
4226.02
4224.9
4224.17
4223.2
4222.63
4221.8
4221.33
4220.63
4220.23
4219.57
4219.16
4218.51
4218.13
4217.54
4217.21
4216.69
4216.42
4215.95
4215.74
4215.36
4215.24
4214.97
4215.02
4214.96
4215.1
4215.03
4215.56
4216.75
4258.59
4369.36
44549.1
8261.73
7571.27
7000.13
6536.66
6165.66
5870.42
5633.79
5442.87
5286.4
5157.31
5048.9
4957.67
4879.41
4812.53
4754.09
4703.58
4658.73
4619.63
4584.41
4553.55
4525.36
4500.57
4477.65
4457.46
4438.54
4421.91
4406.13
4392.27
4378.95
4367.31
4355.97
4346.12
4336.39
4327.99
4319.58
4312.38
4305.08
4298.88
4292.51
4287.13
4281.57
4276.9
4271.98
4267.92
4263.6
4260.04
4256.22
4253.08
4249.71
4246.95
4243.98
4241.57
4239.01
4236.85
4234.56
4232.67
4230.64
4228.98
4227.15
4225.7
4224.11
4222.92
4221.47
4220.47
4219.22
4218.37
4217.23
4216.5
4215.51
4214.93
4214.09
4213.62
4212.91
4212.51
4211.84
4211.42
4210.76
4210.38
4209.78
4209.45
4208.91
4208.64
4208.16
4207.94
4207.56
4207.43
4207.14
4207.18
4207.11
4207.23
4207.15
4207.68
4208.91
4252.14
4363.53
41914.3
8261.72
7571.38
7000.2
6536.44
6164.93
5869.09
5631.84
5440.34
5283.35
5153.78
5044.95
4953.35
4874.75
4807.58
4748.88
4698.13
4653.07
4613.79
4578.4
4547.38
4519.05
4494.14
4471.09
4450.8
4431.79
4415.06
4399.2
4385.26
4371.87
4360.17
4348.77
4338.86
4329.07
4320.63
4312.17
4304.93
4297.59
4291.35
4284.94
4279.53
4273.93
4269.23
4264.28
4260.2
4255.85
4252.27
4248.42
4245.25
4241.87
4239.09
4236.1
4233.67
4231.09
4228.91
4226.6
4224.7
4222.65
4220.98
4219.13
4217.67
4216.07
4214.86
4213.41
4212.39
4211.13
4210.27
4209.12
4208.38
4207.38
4206.79
4205.94
4205.45
4204.74
4204.33
4203.65
4203.23
4202.56
4202.17
4201.56
4201.23
4200.68
4200.4
4199.91
4199.69
4199.3
4199.16
4198.86
4198.88
4198.81
4198.91
4198.82
4199.33
4200.62
4245.25
4357.31
39385.8
8261.71
7571.49
7000.28
6536.2
6164.17
5867.7
5629.81
5437.7
5280.14
5150.07
5040.8
4948.8
4869.85
4802.37
4743.39
4692.39
4647.11
4607.63
4572.06
4540.88
4512.4
4487.35
4464.19
4443.78
4424.66
4407.84
4391.89
4377.88
4364.4
4352.63
4341.17
4331.2
4321.36
4312.86
4304.35
4297.06
4289.68
4283.4
4276.95
4271.5
4265.87
4261.14
4256.16
4252.05
4247.66
4244.06
4240.19
4237
4233.59
4230.79
4227.77
4225.33
4222.73
4220.54
4218.2
4216.29
4214.22
4212.54
4210.67
4209.2
4207.58
4206.36
4204.89
4203.86
4202.58
4201.71
4200.55
4199.8
4198.79
4198.19
4197.33
4196.84
4196.11
4195.7
4195.01
4194.58
4193.91
4193.51
4192.89
4192.55
4191.99
4191.7
4191.21
4190.98
4190.58
4190.43
4190.12
4190.13
4190.04
4190.13
4190.01
4190.52
4191.86
4237.89
4350.66
36965.9
8261.7
7571.6
7000.36
6535.97
6163.39
5866.25
5627.69
5434.94
5276.79
5146.19
5036.44
4944.03
4864.71
4796.9
4737.62
4686.37
4640.84
4601.16
4565.39
4534.04
4505.4
4480.22
4456.92
4436.4
4417.16
4400.25
4384.2
4370.1
4356.55
4344.7
4333.17
4323.13
4313.23
4304.68
4296.12
4288.78
4281.35
4275.03
4268.54
4263.05
4257.38
4252.62
4247.6
4243.46
4239.05
4235.42
4231.52
4228.3
4224.87
4222.05
4219.01
4216.54
4213.92
4211.71
4209.36
4207.42
4205.34
4203.64
4201.76
4200.27
4198.63
4197.4
4195.91
4194.87
4193.58
4192.7
4191.53
4190.77
4189.74
4189.13
4188.26
4187.76
4187.02
4186.6
4185.9
4185.47
4184.78
4184.38
4183.75
4183.4
4182.84
4182.54
4182.03
4181.79
4181.38
4181.23
4180.92
4180.9
4180.8
4180.87
4180.74
4181.23
4182.63
4230.02
4343.54
34656.8
8261.69
7571.72
7000.45
6535.72
6162.57
5864.76
5625.48
5432.06
5273.29
5142.14
5031.89
4939.04
4859.33
4791.17
4731.58
4680.05
4634.28
4594.37
4558.4
4526.87
4498.06
4472.73
4449.29
4428.64
4409.29
4392.27
4376.12
4361.93
4348.29
4336.37
4324.76
4314.66
4304.69
4296.09
4287.46
4280.08
4272.6
4266.24
4259.7
4254.17
4248.46
4243.66
4238.61
4234.44
4229.99
4226.33
4222.4
4219.16
4215.7
4212.86
4209.79
4207.3
4204.65
4202.43
4200.05
4198.11
4196
4194.29
4192.39
4190.88
4189.23
4187.98
4186.48
4185.43
4184.12
4183.23
4182.04
4181.27
4180.23
4179.61
4178.72
4178.21
4177.46
4177.03
4176.33
4175.88
4175.19
4174.78
4174.14
4173.78
4173.21
4172.9
4172.39
4172.14
4171.72
4171.56
4171.23
4171.2
4171.09
4171.13
4170.98
4171.47
4172.93
4221.62
4335.91
32460.2
8261.68
7571.85
7000.55
6535.48
6161.73
5863.2
5623.19
5429.06
5269.64
5137.91
5027.14
4933.83
4853.7
4785.18
4725.26
4673.44
4627.4
4587.26
4551.08
4519.35
4490.37
4464.88
4441.29
4420.51
4401.04
4383.91
4367.65
4353.37
4339.64
4327.64
4315.95
4305.78
4295.74
4287.07
4278.39
4270.95
4263.42
4257.01
4250.42
4244.86
4239.1
4234.27
4229.17
4224.97
4220.49
4216.8
4212.84
4209.57
4206.08
4203.21
4200.12
4197.61
4194.93
4192.69
4190.29
4188.33
4186.2
4184.47
4182.55
4181.04
4179.36
4178.1
4176.58
4175.51
4174.19
4173.28
4172.08
4171.3
4170.25
4169.61
4168.71
4168.19
4167.43
4166.99
4166.28
4165.83
4165.12
4164.7
4164.06
4163.69
4163.1
4162.79
4162.26
4162.01
4161.57
4161.41
4161.07
4161.02
4160.89
4160.92
4160.75
4161.22
4162.74
4212.65
4327.75
30377.7
8261.66
7571.98
7000.65
6535.23
6160.87
5861.6
5620.82
5425.95
5265.85
5133.5
5022.18
4928.39
4847.83
4778.92
4718.66
4666.54
4620.22
4579.83
4543.42
4511.5
4482.33
4456.67
4432.93
4412.01
4392.41
4375.16
4358.79
4344.41
4330.58
4318.5
4306.72
4296.48
4286.37
4277.64
4268.89
4261.4
4253.81
4247.35
4240.71
4235.1
4229.3
4224.43
4219.29
4215.05
4210.53
4206.82
4202.82
4199.53
4196
4193.11
4189.99
4187.45
4184.75
4182.49
4180.07
4178.09
4175.93
4174.19
4172.25
4170.72
4169.02
4167.74
4166.2
4165.12
4163.78
4162.86
4161.65
4160.85
4159.78
4159.14
4158.22
4157.69
4156.92
4156.47
4155.74
4155.29
4154.57
4154.15
4153.49
4153.11
4152.51
4152.19
4151.65
4151.39
4150.94
4150.77
4150.41
4150.35
4150.21
4150.22
4150.02
4150.49
4152.07
4203.07
4319.01
28410.6
8261.65
7572.11
7000.76
6534.98
6159.99
5859.94
5618.36
5422.72
5261.91
5128.93
5017.03
4922.73
4841.72
4772.41
4711.79
4659.34
4612.73
4572.08
4535.44
4503.3
4473.94
4448.11
4424.2
4403.14
4383.39
4366.02
4349.53
4335.05
4321.12
4308.95
4297.08
4286.77
4276.58
4267.78
4258.96
4251.41
4243.76
4237.25
4230.56
4224.9
4219.05
4214.14
4208.96
4204.68
4200.13
4196.38
4192.35
4189.02
4185.47
4182.55
4179.4
4176.84
4174.11
4171.82
4169.37
4167.37
4165.19
4163.43
4161.47
4159.92
4158.2
4156.91
4155.35
4154.25
4152.89
4151.96
4150.73
4149.92
4148.84
4148.18
4147.25
4146.71
4145.92
4145.46
4144.73
4144.26
4143.54
4143.1
4142.43
4142.04
4141.43
4141.1
4140.55
4140.27
4139.82
4139.63
4139.27
4139.19
4139.04
4139.02
4138.8
4139.26
4140.9
4192.88
4309.65
26560.2
8261.63
7572.24
7000.87
6534.72
6159.08
5858.24
5615.82
5419.38
5257.83
5124.18
5011.69
4916.85
4835.36
4765.63
4704.63
4651.85
4604.94
4564.02
4527.12
4494.76
4465.19
4439.18
4415.1
4393.88
4373.99
4356.49
4339.88
4325.29
4311.25
4298.98
4287.03
4276.63
4266.36
4257.49
4248.6
4240.99
4233.27
4226.7
4219.96
4214.25
4208.35
4203.4
4198.18
4193.86
4189.26
4185.47
4181.41
4178.06
4174.46
4171.52
4168.34
4165.75
4162.99
4160.68
4158.2
4156.18
4153.98
4152.2
4150.21
4148.65
4146.9
4145.6
4144.02
4142.91
4141.52
4140.58
4139.33
4138.51
4137.41
4136.74
4135.79
4135.23
4134.43
4133.97
4133.22
4132.74
4132.01
4131.56
4130.88
4130.48
4129.86
4129.52
4128.95
4128.67
4128.2
4128
4127.63
4127.54
4127.37
4127.33
4127.07
4127.52
4129.22
4182.07
4299.63
24827.5
8261.62
7572.38
7000.99
6534.47
6158.16
5856.49
5613.21
5415.94
5253.61
5119.27
5006.15
4910.76
4828.77
4758.6
4697.2
4644.06
4596.83
4555.63
4518.47
4485.88
4456.09
4429.88
4405.62
4384.25
4364.2
4346.57
4329.83
4315.12
4300.97
4288.6
4276.55
4266.06
4255.71
4246.76
4237.8
4230.12
4222.34
4215.72
4208.91
4203.16
4197.2
4192.2
4186.93
4182.57
4177.93
4174.11
4170.01
4166.62
4162.99
4160.01
4156.8
4154.18
4151.39
4149.07
4146.56
4144.51
4142.28
4140.49
4138.47
4136.89
4135.12
4133.8
4132.2
4131.07
4129.67
4128.71
4127.44
4126.61
4125.49
4124.8
4123.84
4123.27
4122.45
4121.98
4121.21
4120.73
4119.98
4119.53
4118.83
4118.42
4117.79
4117.43
4116.86
4116.56
4116.08
4115.87
4115.48
4115.38
4115.19
4115.13
4114.85
4115.29
4117.05
4170.65
4288.93
23213.5
8261.6
7572.52
7001.12
6534.22
6157.21
5854.7
5610.52
5412.39
5249.26
5114.19
5000.41
4904.44
4821.94
4751.3
4689.49
4635.99
4588.42
4546.91
4509.48
4476.65
4446.63
4420.22
4395.77
4374.23
4354.03
4336.25
4319.37
4304.54
4290.27
4277.8
4265.64
4255.07
4244.63
4235.6
4226.56
4218.81
4210.96
4204.28
4197.41
4191.6
4185.59
4180.55
4175.23
4170.82
4166.14
4162.28
4158.13
4154.71
4151.04
4148.04
4144.79
4142.14
4139.32
4136.97
4134.43
4132.36
4130.1
4128.29
4126.25
4124.65
4122.85
4121.51
4119.89
4118.74
4117.32
4116.34
4115.05
4114.21
4113.07
4112.37
4111.39
4110.8
4109.97
4109.49
4108.71
4108.22
4107.46
4106.99
4106.28
4105.86
4105.21
4104.85
4104.26
4103.95
4103.45
4103.23
4102.83
4102.71
4102.51
4102.43
4102.11
4102.54
4104.36
4158.6
4277.5
21713.8
8261.58
7572.67
7001.25
6533.97
6156.26
5852.87
5607.76
5408.73
5244.77
5108.94
4994.49
4897.92
4814.86
4743.75
4681.5
4627.61
4579.69
4537.88
4500.16
4467.07
4436.82
4410.2
4385.55
4363.83
4343.46
4325.53
4308.51
4293.55
4279.16
4266.58
4254.32
4243.65
4233.11
4224
4214.88
4207.06
4199.14
4192.39
4185.46
4179.59
4173.52
4168.43
4163.05
4158.61
4153.88
4149.97
4145.79
4142.33
4138.62
4135.58
4132.3
4129.62
4126.76
4124.38
4121.81
4119.73
4117.43
4115.6
4113.53
4111.91
4110.09
4108.73
4107.08
4105.92
4104.47
4103.48
4102.17
4101.31
4100.15
4099.43
4098.43
4097.84
4096.99
4096.49
4095.7
4095.2
4094.42
4093.95
4093.22
4092.79
4092.13
4091.75
4091.15
4090.83
4090.32
4090.08
4089.67
4089.53
4089.31
4089.22
4088.86
4089.29
4091.15
4145.93
4265.3
20323.8
8261.55
7572.81
7001.39
6533.72
6155.29
5851
5604.93
5404.98
5240.15
5103.54
4988.38
4891.18
4807.56
4735.95
4673.24
4618.95
4570.66
4528.52
4490.5
4457.15
4426.65
4399.81
4374.95
4353.05
4332.5
4314.41
4297.24
4282.15
4267.63
4254.94
4242.56
4231.8
4221.16
4211.97
4202.76
4194.86
4186.86
4180.05
4173.05
4167.12
4160.99
4155.84
4150.42
4145.92
4141.14
4137.2
4132.96
4129.47
4125.72
4122.65
4119.32
4116.62
4113.72
4111.31
4108.71
4106.6
4104.27
4102.42
4100.32
4098.68
4096.83
4095.45
4093.78
4092.59
4091.12
4090.11
4088.78
4087.91
4086.73
4086
4084.98
4084.36
4083.5
4082.99
4082.18
4081.67
4080.88
4080.39
4079.65
4079.21
4078.53
4078.14
4077.52
4077.19
4076.67
4076.42
4075.99
4075.83
4075.6
4075.49
4075.09
4075.51
4077.42
4132.64
4252.31
19038.5
8261.53
7572.96
7001.54
6533.47
6154.3
5849.09
5602.04
5401.13
5235.41
5097.98
4982.09
4884.23
4800.02
4727.89
4664.71
4610
4561.33
4518.85
4480.52
4446.88
4416.12
4389.05
4363.98
4341.88
4321.15
4302.9
4285.57
4270.34
4255.69
4242.87
4230.38
4219.51
4208.77
4199.49
4190.19
4182.22
4174.13
4167.25
4160.18
4154.19
4147.99
4142.79
4137.31
4132.76
4127.93
4123.94
4119.66
4116.13
4112.34
4109.23
4105.86
4103.12
4100.19
4097.75
4095.11
4092.98
4090.62
4088.74
4086.61
4084.96
4083.07
4081.67
4079.97
4078.77
4077.27
4076.24
4074.89
4074
4072.8
4072.05
4071.01
4070.38
4069.5
4068.97
4068.15
4067.63
4066.82
4066.32
4065.57
4065.12
4064.42
4064.02
4063.38
4063.04
4062.5
4062.24
4061.79
4061.62
4061.37
4061.24
4060.8
4061.21
4063.17
4118.72
4238.49
17852.7
8261.5
7573.11
7001.69
6533.23
6153.31
5847.15
5599.09
5397.19
5230.54
5092.27
4975.61
4877.07
4792.25
4719.58
4655.91
4600.76
4551.69
4508.86
4470.2
4436.27
4405.24
4377.93
4352.63
4330.33
4309.41
4290.99
4273.49
4258.12
4243.32
4230.38
4217.77
4206.79
4195.94
4186.57
4177.17
4169.12
4160.95
4153.99
4146.85
4140.8
4134.53
4129.27
4123.73
4119.13
4114.24
4110.21
4105.88
4102.31
4098.47
4095.32
4091.91
4089.14
4086.16
4083.7
4081.02
4078.86
4076.47
4074.56
4072.41
4070.73
4068.81
4067.39
4065.66
4064.44
4062.91
4061.87
4060.49
4059.58
4058.36
4057.59
4056.53
4055.89
4054.98
4054.45
4053.61
4053.07
4052.25
4051.74
4050.96
4050.5
4049.79
4049.38
4048.72
4048.37
4047.8
4047.53
4047.07
4046.88
4046.61
4046.46
4045.98
4046.39
4048.38
4104.17
4223.81
16760.8
8261.48
7573.26
7001.85
6532.99
6152.31
5845.18
5596.08
5393.16
5225.55
5086.41
4968.96
4869.72
4784.26
4711.02
4646.84
4591.24
4541.75
4498.55
4459.55
4425.32
4394.01
4366.44
4340.9
4318.4
4297.27
4278.68
4261.01
4245.49
4230.54
4217.47
4204.73
4193.63
4182.68
4173.2
4163.71
4155.56
4147.31
4140.28
4133.05
4126.94
4120.6
4115.28
4109.67
4105.02
4100.08
4095.99
4091.61
4088
4084.11
4080.92
4077.47
4074.66
4071.64
4069.15
4066.44
4064.24
4061.81
4059.89
4057.7
4055.99
4054.04
4052.6
4050.84
4049.6
4048.04
4046.98
4045.58
4044.65
4043.4
4042.62
4041.54
4040.88
4039.95
4039.4
4038.54
4038
4037.16
4036.63
4035.84
4035.37
4034.63
4034.21
4033.54
4033.17
4032.59
4032.3
4031.82
4031.61
4031.32
4031.16
4030.64
4031.04
4033.06
4089
4208.24
15757.2
8261.45
7573.41
7002.02
6532.76
6151.3
5843.18
5593.01
5389.04
5220.44
5080.41
4962.14
4862.16
4776.05
4702.22
4637.5
4581.43
4531.51
4487.93
4448.57
4414.03
4382.42
4354.59
4328.81
4306.08
4284.75
4265.97
4248.12
4232.44
4217.34
4204.13
4191.25
4180.04
4168.97
4159.39
4149.8
4141.56
4133.21
4126.1
4118.8
4112.61
4106.2
4100.82
4095.14
4090.44
4085.43
4081.3
4076.86
4073.2
4069.26
4066.04
4062.54
4059.69
4056.63
4054.1
4051.35
4049.13
4046.66
4044.71
4042.48
4040.75
4038.77
4037.3
4035.51
4034.25
4032.66
4031.58
4030.15
4029.21
4027.93
4027.13
4026.03
4025.35
4024.4
4023.84
4022.96
4022.4
4021.54
4021.01
4020.2
4019.71
4018.95
4018.52
4017.83
4017.44
4016.84
4016.54
4016.04
4015.82
4015.51
4015.33
4014.77
4015.16
4017.2
4073.19
4191.76
14836
8261.42
7573.57
7002.19
6532.54
6150.29
5841.16
5589.89
5384.85
5215.23
5074.26
4955.15
4854.42
4767.61
4693.18
4627.91
4571.35
4520.98
4476.99
4437.27
4402.4
4370.48
4342.38
4316.34
4293.39
4271.84
4252.86
4234.83
4218.98
4203.72
4190.37
4177.35
4166.02
4154.82
4145.14
4135.43
4127.11
4118.66
4111.47
4104.08
4097.82
4091.33
4085.88
4080.14
4075.37
4070.3
4066.12
4061.62
4057.92
4053.93