/*--------------------------------*- C++ -*----------------------------------*\
| =========                 |                                                 |
| \\      /  F ield         | OpenFOAM: The Open Source CFD Toolbox           |
|  \\    /   O peration     | Version:  v2012                                 |
|   \\  /    A nd           | Website:  www.openfoam.com                      |
|    \\/     M anipulation  |                                                 |
\*---------------------------------------------------------------------------*/
FoamFile
{
    version     2.0;
    format      ascii;
    class       volVectorField;
    location    "56.5";
    object      wallShearStress;
}
// * * * * * * * * * * * * * * * * * * * * * * * * * * * * * * * * * * * * * //

dimensions      [0 2 -2 0 0 0 0];


internalField   uniform (0 0 0);

boundaryField
{
    inlet
    {
        type            calculated;
        value           uniform (0 0 0);
    }
    outlet
    {
        type            calculated;
        value           uniform (0 0 0);
    }
    topWall
    {
        type            calculated;
        value           nonuniform List<vector> 
545
(
(3.67415e-08 -2.58628e-08 0)
(3.67302e-08 -7.23484e-08 0)
(3.67102e-08 -1.20688e-07 0)
(3.66817e-08 -1.67629e-07 0)
(3.6646e-08 -2.12573e-07 0)
(3.66037e-08 -2.56096e-07 0)
(3.65555e-08 -2.98568e-07 0)
(3.65017e-08 -3.39971e-07 0)
(3.64427e-08 -3.80213e-07 0)
(3.63792e-08 -4.19293e-07 0)
(3.63114e-08 -4.57264e-07 0)
(3.62398e-08 -4.94168e-07 0)
(3.61648e-08 -5.30032e-07 0)
(3.60868e-08 -5.64875e-07 0)
(3.6006e-08 -5.98724e-07 0)
(3.59228e-08 -6.31604e-07 0)
(3.58375e-08 -6.63542e-07 0)
(3.57503e-08 -6.94563e-07 0)
(3.56615e-08 -7.24692e-07 0)
(3.55714e-08 -7.53952e-07 0)
(3.54802e-08 -7.82369e-07 0)
(3.53881e-08 -8.09964e-07 0)
(3.52952e-08 -8.36762e-07 0)
(3.52018e-08 -8.62784e-07 0)
(3.51081e-08 -8.88053e-07 0)
(3.50141e-08 -9.12589e-07 0)
(3.49201e-08 -9.36415e-07 0)
(3.48262e-08 -9.59549e-07 0)
(3.47324e-08 -9.82014e-07 0)
(3.4639e-08 -1.00383e-06 0)
(3.4546e-08 -1.02501e-06 0)
(3.44535e-08 -1.04557e-06 0)
(3.43616e-08 -1.06554e-06 0)
(3.42704e-08 -1.08494e-06 0)
(3.41799e-08 -1.10377e-06 0)
(3.40903e-08 -1.12205e-06 0)
(3.40016e-08 -1.13981e-06 0)
(3.39139e-08 -1.15706e-06 0)
(3.38271e-08 -1.1738e-06 0)
(3.37414e-08 -1.19007e-06 0)
(3.36568e-08 -1.20586e-06 0)
(3.35733e-08 -1.2212e-06 0)
(3.34909e-08 -1.2361e-06 0)
(3.34098e-08 -1.25057e-06 0)
(3.33298e-08 -1.26463e-06 0)
(3.32511e-08 -1.27828e-06 0)
(3.31735e-08 -1.29154e-06 0)
(3.30973e-08 -1.30442e-06 0)
(3.30223e-08 -1.31693e-06 0)
(3.29486e-08 -1.32909e-06 0)
(3.28761e-08 -1.3409e-06 0)
(3.28049e-08 -1.35237e-06 0)
(3.27351e-08 -1.36351e-06 0)
(3.26664e-08 -1.37434e-06 0)
(3.25991e-08 -1.38487e-06 0)
(3.2533e-08 -1.39509e-06 0)
(3.24682e-08 -1.40502e-06 0)
(3.24047e-08 -1.41467e-06 0)
(3.23424e-08 -1.42405e-06 0)
(3.22814e-08 -1.43317e-06 0)
(3.22215e-08 -1.44203e-06 0)
(3.21629e-08 -1.45064e-06 0)
(3.21055e-08 -1.459e-06 0)
(3.20493e-08 -1.46713e-06 0)
(3.19943e-08 -1.47504e-06 0)
(3.19404e-08 -1.48272e-06 0)
(3.18877e-08 -1.49019e-06 0)
(3.18362e-08 -1.49744e-06 0)
(3.17857e-08 -1.5045e-06 0)
(3.17364e-08 -1.51136e-06 0)
(3.1688e-08 -1.51803e-06 0)
(3.16411e-08 -1.5245e-06 0)
(3.15955e-08 -1.53073e-06 0)
(3.15506e-08 -1.53678e-06 0)
(3.15061e-08 -1.54276e-06 0)
(3.14618e-08 -1.54871e-06 0)
(3.14175e-08 -1.55463e-06 0)
(3.13732e-08 -1.56052e-06 0)
(3.1329e-08 -1.56638e-06 0)
(3.12848e-08 -1.57219e-06 0)
(3.12407e-08 -1.57798e-06 0)
(3.11966e-08 -1.58372e-06 0)
(3.11525e-08 -1.58944e-06 0)
(3.11085e-08 -1.59512e-06 0)
(3.10646e-08 -1.60076e-06 0)
(3.10207e-08 -1.60638e-06 0)
(3.09768e-08 -1.61196e-06 0)
(3.0933e-08 -1.6175e-06 0)
(3.08893e-08 -1.62301e-06 0)
(3.08456e-08 -1.62849e-06 0)
(3.0802e-08 -1.63394e-06 0)
(3.07584e-08 -1.63935e-06 0)
(3.07149e-08 -1.64473e-06 0)
(3.06715e-08 -1.65008e-06 0)
(3.06277e-08 -1.65541e-06 0)
(3.05862e-08 -1.66064e-06 0)
(3.05478e-08 -1.66544e-06 0)
(3.05106e-08 -1.66979e-06 0)
(3.04747e-08 -1.67402e-06 0)
(3.0439e-08 -1.67828e-06 0)
(3.04031e-08 -1.68257e-06 0)
(3.03671e-08 -1.68687e-06 0)
(3.0331e-08 -1.69117e-06 0)
(3.02946e-08 -1.69547e-06 0)
(3.02581e-08 -1.69978e-06 0)
(3.02214e-08 -1.70409e-06 0)
(3.01846e-08 -1.70841e-06 0)
(3.01476e-08 -1.71273e-06 0)
(3.01104e-08 -1.71706e-06 0)
(3.0073e-08 -1.72139e-06 0)
(3.00354e-08 -1.72573e-06 0)
(2.99977e-08 -1.73007e-06 0)
(2.99598e-08 -1.73442e-06 0)
(2.99217e-08 -1.73877e-06 0)
(2.98834e-08 -1.74313e-06 0)
(2.98449e-08 -1.74749e-06 0)
(2.98063e-08 -1.75185e-06 0)
(2.97675e-08 -1.75622e-06 0)
(2.97285e-08 -1.7606e-06 0)
(2.96893e-08 -1.76498e-06 0)
(2.96499e-08 -1.76936e-06 0)
(2.96104e-08 -1.77375e-06 0)
(2.95707e-08 -1.77814e-06 0)
(2.95308e-08 -1.78254e-06 0)
(2.94907e-08 -1.78694e-06 0)
(2.94504e-08 -1.79135e-06 0)
(2.94099e-08 -1.79576e-06 0)
(2.93693e-08 -1.80017e-06 0)
(2.93284e-08 -1.80459e-06 0)
(2.92874e-08 -1.80902e-06 0)
(2.92462e-08 -1.81344e-06 0)
(2.92048e-08 -1.81787e-06 0)
(2.91632e-08 -1.82231e-06 0)
(2.91214e-08 -1.82675e-06 0)
(2.90794e-08 -1.83119e-06 0)
(2.90373e-08 -1.83564e-06 0)
(2.89949e-08 -1.84009e-06 0)
(2.89524e-08 -1.84455e-06 0)
(2.89097e-08 -1.84901e-06 0)
(2.88667e-08 -1.85347e-06 0)
(2.88236e-08 -1.85794e-06 0)
(2.87803e-08 -1.86241e-06 0)
(2.87368e-08 -1.86689e-06 0)
(2.86931e-08 -1.87137e-06 0)
(2.86492e-08 -1.87585e-06 0)
(2.86052e-08 -1.88034e-06 0)
(2.85609e-08 -1.88483e-06 0)
(2.85164e-08 -1.88932e-06 0)
(2.84717e-08 -1.89382e-06 0)
(2.84269e-08 -1.89832e-06 0)
(2.83818e-08 -1.90282e-06 0)
(2.83366e-08 -1.90733e-06 0)
(2.82911e-08 -1.91184e-06 0)
(2.82454e-08 -1.91636e-06 0)
(2.81996e-08 -1.92087e-06 0)
(2.81535e-08 -1.9254e-06 0)
(2.81073e-08 -1.92992e-06 0)
(2.80608e-08 -1.93445e-06 0)
(2.80142e-08 -1.93898e-06 0)
(2.79673e-08 -1.94351e-06 0)
(2.79203e-08 -1.94805e-06 0)
(2.7873e-08 -1.95259e-06 0)
(2.78256e-08 -1.95713e-06 0)
(2.77779e-08 -1.96168e-06 0)
(2.77301e-08 -1.96623e-06 0)
(2.7682e-08 -1.97078e-06 0)
(2.76337e-08 -1.97533e-06 0)
(2.75853e-08 -1.97989e-06 0)
(2.75366e-08 -1.98445e-06 0)
(2.74877e-08 -1.98901e-06 0)
(2.74386e-08 -1.99358e-06 0)
(2.73894e-08 -1.99815e-06 0)
(2.73399e-08 -2.00272e-06 0)
(2.72902e-08 -2.00729e-06 0)
(2.72403e-08 -2.01186e-06 0)
(2.71902e-08 -2.01644e-06 0)
(2.71399e-08 -2.02102e-06 0)
(2.70894e-08 -2.0256e-06 0)
(2.70386e-08 -2.03019e-06 0)
(2.69877e-08 -2.03477e-06 0)
(2.69366e-08 -2.03936e-06 0)
(2.68852e-08 -2.04395e-06 0)
(2.68337e-08 -2.04855e-06 0)
(2.67819e-08 -2.05314e-06 0)
(2.673e-08 -2.05774e-06 0)
(2.66778e-08 -2.06234e-06 0)
(2.66254e-08 -2.06694e-06 0)
(2.65728e-08 -2.07154e-06 0)
(2.652e-08 -2.07614e-06 0)
(2.6467e-08 -2.08075e-06 0)
(2.64138e-08 -2.08536e-06 0)
(2.63604e-08 -2.08996e-06 0)
(2.63068e-08 -2.09457e-06 0)
(2.62529e-08 -2.09919e-06 0)
(2.61989e-08 -2.1038e-06 0)
(2.61446e-08 -2.10841e-06 0)
(2.60901e-08 -2.11303e-06 0)
(2.60355e-08 -2.11765e-06 0)
(2.59806e-08 -2.12226e-06 0)
(2.59255e-08 -2.12688e-06 0)
(2.58702e-08 -2.1315e-06 0)
(2.58147e-08 -2.13612e-06 0)
(2.57589e-08 -2.14075e-06 0)
(2.5703e-08 -2.14537e-06 0)
(2.56468e-08 -2.14999e-06 0)
(2.55905e-08 -2.15462e-06 0)
(2.55339e-08 -2.15924e-06 0)
(2.54771e-08 -2.16387e-06 0)
(2.54201e-08 -2.16849e-06 0)
(2.53629e-08 -2.17312e-06 0)
(2.53055e-08 -2.17775e-06 0)
(2.52479e-08 -2.18238e-06 0)
(2.51901e-08 -2.187e-06 0)
(2.5132e-08 -2.19163e-06 0)
(2.50738e-08 -2.19626e-06 0)
(2.50153e-08 -2.20089e-06 0)
(2.49567e-08 -2.20552e-06 0)
(2.48978e-08 -2.21015e-06 0)
(2.48387e-08 -2.21478e-06 0)
(2.47794e-08 -2.2194e-06 0)
(2.47199e-08 -2.22403e-06 0)
(2.46602e-08 -2.22866e-06 0)
(2.46002e-08 -2.23329e-06 0)
(2.45401e-08 -2.23791e-06 0)
(2.44798e-08 -2.24254e-06 0)
(2.44192e-08 -2.24717e-06 0)
(2.43584e-08 -2.25179e-06 0)
(2.42975e-08 -2.25642e-06 0)
(2.42363e-08 -2.26104e-06 0)
(2.41749e-08 -2.26567e-06 0)
(2.41133e-08 -2.27029e-06 0)
(2.40515e-08 -2.27491e-06 0)
(2.39895e-08 -2.27953e-06 0)
(2.39273e-08 -2.28415e-06 0)
(2.38649e-08 -2.28877e-06 0)
(2.38023e-08 -2.29339e-06 0)
(2.37395e-08 -2.298e-06 0)
(2.36764e-08 -2.30262e-06 0)
(2.36132e-08 -2.30723e-06 0)
(2.35497e-08 -2.31184e-06 0)
(2.34861e-08 -2.31645e-06 0)
(2.34222e-08 -2.32106e-06 0)
(2.33582e-08 -2.32567e-06 0)
(2.32939e-08 -2.33027e-06 0)
(2.32295e-08 -2.33487e-06 0)
(2.31648e-08 -2.33947e-06 0)
(2.31e-08 -2.34407e-06 0)
(2.30349e-08 -2.34867e-06 0)
(2.29696e-08 -2.35326e-06 0)
(2.29042e-08 -2.35786e-06 0)
(2.28385e-08 -2.36245e-06 0)
(2.27727e-08 -2.36703e-06 0)
(2.27066e-08 -2.37162e-06 0)
(2.26403e-08 -2.3762e-06 0)
(2.25739e-08 -2.38078e-06 0)
(2.25072e-08 -2.38536e-06 0)
(2.24404e-08 -2.38993e-06 0)
(2.23734e-08 -2.3945e-06 0)
(2.23061e-08 -2.39907e-06 0)
(2.22387e-08 -2.40364e-06 0)
(2.21711e-08 -2.4082e-06 0)
(2.21033e-08 -2.41276e-06 0)
(2.20353e-08 -2.41732e-06 0)
(2.19671e-08 -2.42187e-06 0)
(2.18987e-08 -2.42642e-06 0)
(2.18301e-08 -2.43096e-06 0)
(2.17614e-08 -2.4355e-06 0)
(2.16921e-08 -2.44005e-06 0)
(2.16246e-08 -2.44456e-06 0)
(2.15599e-08 -2.44885e-06 0)
(2.14961e-08 -2.45293e-06 0)
(2.14329e-08 -2.45698e-06 0)
(2.13694e-08 -2.46107e-06 0)
(2.13053e-08 -2.46521e-06 0)
(2.12405e-08 -2.46938e-06 0)
(2.11749e-08 -2.47358e-06 0)
(2.11087e-08 -2.47781e-06 0)
(2.10417e-08 -2.48208e-06 0)
(2.09739e-08 -2.48638e-06 0)
(2.09054e-08 -2.49071e-06 0)
(2.08362e-08 -2.49508e-06 0)
(2.07662e-08 -2.49947e-06 0)
(2.06954e-08 -2.5039e-06 0)
(2.06239e-08 -2.50836e-06 0)
(2.05516e-08 -2.51286e-06 0)
(2.04785e-08 -2.51739e-06 0)
(2.04046e-08 -2.52195e-06 0)
(2.03299e-08 -2.52654e-06 0)
(2.02543e-08 -2.53117e-06 0)
(2.0178e-08 -2.53583e-06 0)
(2.01009e-08 -2.54052e-06 0)
(2.00229e-08 -2.54524e-06 0)
(1.9944e-08 -2.55e-06 0)
(1.98644e-08 -2.55479e-06 0)
(1.97839e-08 -2.55961e-06 0)
(1.97025e-08 -2.56447e-06 0)
(1.96202e-08 -2.56936e-06 0)
(1.95371e-08 -2.57428e-06 0)
(1.94531e-08 -2.57923e-06 0)
(1.93683e-08 -2.58421e-06 0)
(1.92825e-08 -2.58923e-06 0)
(1.91958e-08 -2.59427e-06 0)
(1.91083e-08 -2.59935e-06 0)
(1.90198e-08 -2.60447e-06 0)
(1.89304e-08 -2.60961e-06 0)
(1.88401e-08 -2.61478e-06 0)
(1.87488e-08 -2.61999e-06 0)
(1.86567e-08 -2.62522e-06 0)
(1.85635e-08 -2.63049e-06 0)
(1.84695e-08 -2.63579e-06 0)
(1.83745e-08 -2.64111e-06 0)
(1.82785e-08 -2.64647e-06 0)
(1.81815e-08 -2.65186e-06 0)
(1.80836e-08 -2.65727e-06 0)
(1.79847e-08 -2.66272e-06 0)
(1.78849e-08 -2.66819e-06 0)
(1.7784e-08 -2.67369e-06 0)
(1.76822e-08 -2.67922e-06 0)
(1.75794e-08 -2.68478e-06 0)
(1.74755e-08 -2.69037e-06 0)
(1.73707e-08 -2.69598e-06 0)
(1.72649e-08 -2.70162e-06 0)
(1.7158e-08 -2.70729e-06 0)
(1.70502e-08 -2.71298e-06 0)
(1.69413e-08 -2.7187e-06 0)
(1.68314e-08 -2.72444e-06 0)
(1.67205e-08 -2.7302e-06 0)
(1.66086e-08 -2.736e-06 0)
(1.64956e-08 -2.74181e-06 0)
(1.63817e-08 -2.74765e-06 0)
(1.62667e-08 -2.7535e-06 0)
(1.61506e-08 -2.75938e-06 0)
(1.60336e-08 -2.76529e-06 0)
(1.59155e-08 -2.77121e-06 0)
(1.57963e-08 -2.77715e-06 0)
(1.56762e-08 -2.78311e-06 0)
(1.5555e-08 -2.78909e-06 0)
(1.54328e-08 -2.79509e-06 0)
(1.53095e-08 -2.8011e-06 0)
(1.51853e-08 -2.80713e-06 0)
(1.506e-08 -2.81318e-06 0)
(1.49336e-08 -2.81924e-06 0)
(1.48063e-08 -2.82532e-06 0)
(1.4678e-08 -2.83141e-06 0)
(1.45486e-08 -2.83751e-06 0)
(1.44182e-08 -2.84362e-06 0)
(1.42869e-08 -2.84974e-06 0)
(1.41545e-08 -2.85587e-06 0)
(1.40212e-08 -2.86202e-06 0)
(1.38868e-08 -2.86816e-06 0)
(1.37515e-08 -2.87432e-06 0)
(1.36152e-08 -2.88048e-06 0)
(1.3478e-08 -2.88665e-06 0)
(1.33398e-08 -2.89282e-06 0)
(1.32007e-08 -2.89899e-06 0)
(1.30606e-08 -2.90516e-06 0)
(1.29197e-08 -2.91133e-06 0)
(1.27778e-08 -2.91751e-06 0)
(1.2635e-08 -2.92368e-06 0)
(1.24913e-08 -2.92984e-06 0)
(1.23468e-08 -2.936e-06 0)
(1.22014e-08 -2.94216e-06 0)
(1.20552e-08 -2.94831e-06 0)
(1.19082e-08 -2.95445e-06 0)
(1.17603e-08 -2.96058e-06 0)
(1.16117e-08 -2.9667e-06 0)
(1.14623e-08 -2.97281e-06 0)
(1.13121e-08 -2.9789e-06 0)
(1.11612e-08 -2.98498e-06 0)
(1.10096e-08 -2.99104e-06 0)
(1.08573e-08 -2.99709e-06 0)
(1.07043e-08 -3.00311e-06 0)
(1.05507e-08 -3.00911e-06 0)
(1.03964e-08 -3.01509e-06 0)
(1.02416e-08 -3.02105e-06 0)
(1.00862e-08 -3.02697e-06 0)
(9.93021e-09 -3.03288e-06 0)
(9.77373e-09 -3.03875e-06 0)
(9.61676e-09 -3.04459e-06 0)
(9.45932e-09 -3.0504e-06 0)
(9.30145e-09 -3.05617e-06 0)
(9.14318e-09 -3.06191e-06 0)
(8.98453e-09 -3.06761e-06 0)
(8.82555e-09 -3.07328e-06 0)
(8.66626e-09 -3.0789e-06 0)
(8.5067e-09 -3.08448e-06 0)
(8.3469e-09 -3.09001e-06 0)
(8.1869e-09 -3.0955e-06 0)
(8.02673e-09 -3.10094e-06 0)
(7.86644e-09 -3.10633e-06 0)
(7.70605e-09 -3.11167e-06 0)
(7.54562e-09 -3.11695e-06 0)
(7.38517e-09 -3.12218e-06 0)
(7.22474e-09 -3.12736e-06 0)
(7.06439e-09 -3.13247e-06 0)
(6.90415e-09 -3.13752e-06 0)
(6.74406e-09 -3.14252e-06 0)
(6.58417e-09 -3.14744e-06 0)
(6.42451e-09 -3.1523e-06 0)
(6.26514e-09 -3.1571e-06 0)
(6.1061e-09 -3.16182e-06 0)
(5.94744e-09 -3.16647e-06 0)
(5.78919e-09 -3.17105e-06 0)
(5.63141e-09 -3.17555e-06 0)
(5.47415e-09 -3.17998e-06 0)
(5.31744e-09 -3.18432e-06 0)
(5.16135e-09 -3.18859e-06 0)
(5.00591e-09 -3.19277e-06 0)
(4.85118e-09 -3.19687e-06 0)
(4.6972e-09 -3.20089e-06 0)
(4.54403e-09 -3.20481e-06 0)
(4.39171e-09 -3.20865e-06 0)
(4.24029e-09 -3.2124e-06 0)
(4.08983e-09 -3.21606e-06 0)
(3.94036e-09 -3.21962e-06 0)
(3.79195e-09 -3.22308e-06 0)
(3.64464e-09 -3.22645e-06 0)
(3.49847e-09 -3.22972e-06 0)
(3.35351e-09 -3.23289e-06 0)
(3.20979e-09 -3.23596e-06 0)
(3.06737e-09 -3.23893e-06 0)
(2.9263e-09 -3.2418e-06 0)
(2.78662e-09 -3.24455e-06 0)
(2.64838e-09 -3.24721e-06 0)
(2.51163e-09 -3.24975e-06 0)
(2.37642e-09 -3.25219e-06 0)
(2.24279e-09 -3.25451e-06 0)
(2.11078e-09 -3.25673e-06 0)
(1.98045e-09 -3.25883e-06 0)
(1.85183e-09 -3.26082e-06 0)
(1.72498e-09 -3.2627e-06 0)
(1.59992e-09 -3.26446e-06 0)
(1.47671e-09 -3.26611e-06 0)
(1.35538e-09 -3.26764e-06 0)
(1.23598e-09 -3.26906e-06 0)
(1.11853e-09 -3.27036e-06 0)
(1.00309e-09 -3.27154e-06 0)
(8.89684e-10 -3.2726e-06 0)
(7.78349e-10 -3.27355e-06 0)
(6.69118e-10 -3.27438e-06 0)
(5.62026e-10 -3.27508e-06 0)
(4.57103e-10 -3.27567e-06 0)
(3.5438e-10 -3.27615e-06 0)
(2.53884e-10 -3.2765e-06 0)
(1.55648e-10 -3.27673e-06 0)
(5.96786e-11 -3.27685e-06 0)
(-3.39206e-11 -3.27685e-06 0)
(-1.25457e-10 -3.27673e-06 0)
(-2.13518e-10 -3.27649e-06 0)
(-3.03928e-10 -3.27614e-06 0)
(-3.99017e-10 -3.27561e-06 0)
(-4.93848e-10 -3.27487e-06 0)
(-5.86872e-10 -3.27397e-06 0)
(-6.75844e-10 -3.27293e-06 0)
(-7.6047e-10 -3.27175e-06 0)
(-8.40806e-10 -3.27043e-06 0)
(-9.16938e-10 -3.26899e-06 0)
(-9.88968e-10 -3.26742e-06 0)
(-1.05702e-09 -3.26575e-06 0)
(-1.12123e-09 -3.26397e-06 0)
(-1.18171e-09 -3.26209e-06 0)
(-1.23859e-09 -3.26011e-06 0)
(-1.29198e-09 -3.25804e-06 0)
(-1.342e-09 -3.25589e-06 0)
(-1.38874e-09 -3.25367e-06 0)
(-1.43232e-09 -3.25137e-06 0)
(-1.47285e-09 -3.249e-06 0)
(-1.51041e-09 -3.24657e-06 0)
(-1.54511e-09 -3.24408e-06 0)
(-1.57704e-09 -3.24154e-06 0)
(-1.60629e-09 -3.23894e-06 0)
(-1.63295e-09 -3.23631e-06 0)
(-1.65711e-09 -3.23363e-06 0)
(-1.67884e-09 -3.23091e-06 0)
(-1.69822e-09 -3.22817e-06 0)
(-1.71533e-09 -3.22539e-06 0)
(-1.73025e-09 -3.22259e-06 0)
(-1.74304e-09 -3.21976e-06 0)
(-1.75377e-09 -3.21692e-06 0)
(-1.76251e-09 -3.21406e-06 0)
(-1.76933e-09 -3.21119e-06 0)
(-1.77427e-09 -3.20831e-06 0)
(-1.77741e-09 -3.20542e-06 0)
(-1.7788e-09 -3.20253e-06 0)
(-1.77849e-09 -3.19964e-06 0)
(-1.77654e-09 -3.19675e-06 0)
(-1.773e-09 -3.19386e-06 0)
(-1.76791e-09 -3.19098e-06 0)
(-1.76132e-09 -3.18812e-06 0)
(-1.75329e-09 -3.18526e-06 0)
(-1.74384e-09 -3.18242e-06 0)
(-1.73303e-09 -3.17959e-06 0)
(-1.7209e-09 -3.17678e-06 0)
(-1.70748e-09 -3.174e-06 0)
(-1.69282e-09 -3.17124e-06 0)
(-1.67694e-09 -3.1685e-06 0)
(-1.65989e-09 -3.16579e-06 0)
(-1.64169e-09 -3.1631e-06 0)
(-1.62239e-09 -3.16045e-06 0)
(-1.60202e-09 -3.15783e-06 0)
(-1.5806e-09 -3.15524e-06 0)
(-1.55816e-09 -3.15269e-06 0)
(-1.53474e-09 -3.15018e-06 0)
(-1.51036e-09 -3.14771e-06 0)
(-1.48506e-09 -3.14527e-06 0)
(-1.45885e-09 -3.14288e-06 0)
(-1.43177e-09 -3.14053e-06 0)
(-1.40384e-09 -3.13822e-06 0)
(-1.37509e-09 -3.13596e-06 0)
(-1.34553e-09 -3.13375e-06 0)
(-1.31521e-09 -3.13159e-06 0)
(-1.28413e-09 -3.12948e-06 0)
(-1.25233e-09 -3.12741e-06 0)
(-1.21983e-09 -3.1254e-06 0)
(-1.18664e-09 -3.12345e-06 0)
(-1.15281e-09 -3.12154e-06 0)
(-1.11833e-09 -3.1197e-06 0)
(-1.08324e-09 -3.11791e-06 0)
(-1.04757e-09 -3.11617e-06 0)
(-1.01133e-09 -3.1145e-06 0)
(-9.74538e-10 -3.11288e-06 0)
(-9.37226e-10 -3.11132e-06 0)
(-8.99411e-10 -3.10983e-06 0)
(-8.61116e-10 -3.10839e-06 0)
(-8.22361e-10 -3.10702e-06 0)
(-7.83169e-10 -3.10571e-06 0)
(-7.43559e-10 -3.10447e-06 0)
(-7.03555e-10 -3.10329e-06 0)
(-6.63176e-10 -3.10217e-06 0)
(-6.22444e-10 -3.10113e-06 0)
(-5.81379e-10 -3.10014e-06 0)
(-5.40004e-10 -3.09923e-06 0)
(-4.98337e-10 -3.09837e-06 0)
(-4.56404e-10 -3.0976e-06 0)
(-4.14222e-10 -3.09688e-06 0)
(-3.71816e-10 -3.09625e-06 0)
(-3.29206e-10 -3.09561e-06 0)
(-2.86423e-10 -3.09532e-06 0)
(-2.43471e-10 -3.09416e-06 0)
(-2.00431e-10 -3.09614e-06 0)
(-1.57184e-10 -3.08779e-06 0)
(-1.14081e-10 -3.11271e-06 0)
(-7.07902e-11 -3.01937e-06 0)
(-2.61919e-11 -3.26727e-06 0)
(-1.75317e-12 -2.85368e-06 0)
)
;
    }
    bottomWall
    {
        type            calculated;
        value           nonuniform List<vector> 
449
(
(-48.482 -0.963395 0)
(-19.7353 -0.00514882 0)
(-14.3365 -0.00113233 0)
(-12.0349 -0.000542756 0)
(-10.6394 -0.000347323 0)
(-9.66343 -0.00024841 0)
(-8.93925 -0.000183313 0)
(-8.40579 -0.000126529 0)
(-8.06945 -5.64756e-05 0)
(-8.01787 5.69877e-05 0)
(-8.46699 0.000239939 0)
(-9.68383 0.00033845 0)
(-10.8148 0.000267617 0)
(-11.5419 0.00016272 0)
(-11.948 9.00611e-05 0)
(-12.1709 4.80177e-05 0)
(-12.2842 2.22349e-05 0)
(-12.3269 4.76913e-06 0)
(-12.3176 -6.76578e-06 0)
(-12.2791 -1.36816e-05 0)
(-12.2208 -1.8233e-05 0)
(-12.1498 -2.09112e-05 0)
(-12.0722 -2.21894e-05 0)
(-11.9917 -2.2646e-05 0)
(-11.9105 -2.26119e-05 0)
(-11.8299 -2.23036e-05 0)
(-11.7505 -2.18231e-05 0)
(-11.6729 -2.12125e-05 0)
(-11.5976 -2.05422e-05 0)
(-11.5245 -1.985e-05 0)
(-11.4538 -1.91562e-05 0)
(-11.3855 -1.84731e-05 0)
(-11.3194 -1.781e-05 0)
(-11.2556 -1.71702e-05 0)
(-11.1939 -1.6564e-05 0)
(-11.1342 -1.59958e-05 0)
(-11.0764 -1.54496e-05 0)
(-11.0204 -1.49195e-05 0)
(-10.9663 -1.44135e-05 0)
(-10.9138 -1.39332e-05 0)
(-10.863 -1.34775e-05 0)
(-10.8136 -1.30451e-05 0)
(-10.7658 -1.26363e-05 0)
(-10.7193 -1.22478e-05 0)
(-10.6741 -1.18775e-05 0)
(-10.6302 -1.15254e-05 0)
(-10.5874 -1.11932e-05 0)
(-10.5458 -1.08747e-05 0)
(-10.5052 -1.05772e-05 0)
(-10.4657 -1.03156e-05 0)
(-10.4269 -1.00819e-05 0)
(-10.3889 -9.86165e-06 0)
(-10.3517 -9.6487e-06 0)
(-10.3152 -9.43954e-06 0)
(-10.2793 -9.23366e-06 0)
(-10.2442 -9.03019e-06 0)
(-10.2098 -8.83131e-06 0)
(-10.1761 -8.63833e-06 0)
(-10.143 -8.45033e-06 0)
(-10.1105 -8.26744e-06 0)
(-10.0787 -8.09083e-06 0)
(-10.0475 -7.92146e-06 0)
(-10.0168 -7.7567e-06 0)
(-9.98677 -7.59619e-06 0)
(-9.95724 -7.44012e-06 0)
(-9.92825 -7.29073e-06 0)
(-9.89976 -7.14672e-06 0)
(-9.87177 -7.00739e-06 0)
(-9.84425 -6.87075e-06 0)
(-9.81721 -6.7417e-06 0)
(-9.7906 -6.61917e-06 0)
(-9.76441 -6.49688e-06 0)
(-9.73865 -6.37665e-06 0)
(-9.7133 -6.26085e-06 0)
(-9.68835 -6.14899e-06 0)
(-9.66378 -6.03874e-06 0)
(-9.6396 -5.93171e-06 0)
(-9.61578 -5.8271e-06 0)
(-9.59234 -5.72544e-06 0)
(-9.56924 -5.62685e-06 0)
(-9.54649 -5.53101e-06 0)
(-9.52406 -5.43777e-06 0)
(-9.50197 -5.34718e-06 0)
(-9.48018 -5.25884e-06 0)
(-9.45871 -5.17272e-06 0)
(-9.43753 -5.08933e-06 0)
(-9.41665 -5.0078e-06 0)
(-9.39604 -4.92978e-06 0)
(-9.37571 -4.85329e-06 0)
(-9.35565 -4.77809e-06 0)
(-9.33585 -4.70535e-06 0)
(-9.3163 -4.63359e-06 0)
(-9.29701 -4.56386e-06 0)
(-9.27795 -4.49586e-06 0)
(-9.25914 -4.42865e-06 0)
(-9.24057 -4.36429e-06 0)
(-9.22221 -4.30083e-06 0)
(-9.20409 -4.23853e-06 0)
(-9.18618 -4.1787e-06 0)
(-9.16848 -4.11923e-06 0)
(-9.15099 -4.06367e-06 0)
(-9.13368 -4.01092e-06 0)
(-9.11657 -3.95682e-06 0)
(-9.09964 -3.90357e-06 0)
(-9.08291 -3.8508e-06 0)
(-9.06636 -3.79868e-06 0)
(-9.04999 -3.74877e-06 0)
(-9.0338 -3.69938e-06 0)
(-9.01779 -3.65041e-06 0)
(-9.00195 -3.60358e-06 0)
(-8.98628 -3.55723e-06 0)
(-8.97077 -3.5111e-06 0)
(-8.95542 -3.46715e-06 0)
(-8.94023 -3.42371e-06 0)
(-8.9252 -3.38029e-06 0)
(-8.91032 -3.33882e-06 0)
(-8.89558 -3.29811e-06 0)
(-8.88099 -3.25724e-06 0)
(-8.86655 -3.21785e-06 0)
(-8.85224 -3.17971e-06 0)
(-8.83808 -3.1413e-06 0)
(-8.82405 -3.10381e-06 0)
(-8.81015 -3.06802e-06 0)
(-8.79638 -3.03204e-06 0)
(-8.78274 -2.99625e-06 0)
(-8.76923 -2.96215e-06 0)
(-8.75584 -2.92855e-06 0)
(-8.74257 -2.89484e-06 0)
(-8.72943 -2.86211e-06 0)
(-8.71639 -2.83059e-06 0)
(-8.70348 -2.79895e-06 0)
(-8.69067 -2.76742e-06 0)
(-8.67798 -2.73735e-06 0)
(-8.6654 -2.70782e-06 0)
(-8.65292 -2.67805e-06 0)
(-8.64055 -2.64898e-06 0)
(-8.62829 -2.62118e-06 0)
(-8.61612 -2.59328e-06 0)
(-8.60406 -2.56527e-06 0)
(-8.5921 -2.53847e-06 0)
(-8.58023 -2.51251e-06 0)
(-8.56846 -2.48618e-06 0)
(-8.55679 -2.46004e-06 0)
(-8.5452 -2.43516e-06 0)
(-8.53371 -2.41072e-06 0)
(-8.52231 -2.38594e-06 0)
(-8.511 -2.36203e-06 0)
(-8.49977 -2.34032e-06 0)
(-8.48861 -2.31872e-06 0)
(-8.47753 -2.29579e-06 0)
(-8.46654 -2.27302e-06 0)
(-8.45564 -2.2511e-06 0)
(-8.44481 -2.22944e-06 0)
(-8.43406 -2.2076e-06 0)
(-8.42339 -2.18609e-06 0)
(-8.4128 -2.16539e-06 0)
(-8.40228 -2.14508e-06 0)
(-8.39184 -2.12455e-06 0)
(-8.38148 -2.10418e-06 0)
(-8.37118 -2.08462e-06 0)
(-8.36096 -2.0656e-06 0)
(-8.35081 -2.04632e-06 0)
(-8.34073 -2.02697e-06 0)
(-8.33072 -2.00843e-06 0)
(-8.32078 -1.99052e-06 0)
(-8.3109 -1.97244e-06 0)
(-8.3011 -1.95422e-06 0)
(-8.29135 -1.9365e-06 0)
(-8.28168 -1.91963e-06 0)
(-8.27206 -1.90262e-06 0)
(-8.26251 -1.88577e-06 0)
(-8.25302 -1.8687e-06 0)
(-8.2436 -1.85023e-06 0)
(-8.23477 -1.83687e-06 0)
(-8.22644 -1.82531e-06 0)
(-8.21809 -1.8092e-06 0)
(-8.20974 -1.79416e-06 0)
(-8.20135 -1.78037e-06 0)
(-8.19294 -1.76648e-06 0)
(-8.1845 -1.75243e-06 0)
(-8.17604 -1.73803e-06 0)
(-8.16756 -1.7241e-06 0)
(-8.15906 -1.71047e-06 0)
(-8.15053 -1.69697e-06 0)
(-8.14197 -1.68306e-06 0)
(-8.1334 -1.66897e-06 0)
(-8.1248 -1.65539e-06 0)
(-8.11619 -1.64206e-06 0)
(-8.10754 -1.6287e-06 0)
(-8.09888 -1.61504e-06 0)
(-8.09019 -1.60137e-06 0)
(-8.08149 -1.58815e-06 0)
(-8.07276 -1.57509e-06 0)
(-8.06401 -1.56186e-06 0)
(-8.05524 -1.54848e-06 0)
(-8.04645 -1.53526e-06 0)
(-8.03765 -1.52236e-06 0)
(-8.02882 -1.50961e-06 0)
(-8.01997 -1.49658e-06 0)
(-8.0111 -1.48345e-06 0)
(-8.00221 -1.4707e-06 0)
(-7.9933 -1.45816e-06 0)
(-7.98438 -1.44557e-06 0)
(-7.97543 -1.43281e-06 0)
(-7.96647 -1.42014e-06 0)
(-7.95749 -1.40778e-06 0)
(-7.94849 -1.3956e-06 0)
(-7.93948 -1.38318e-06 0)
(-7.93044 -1.37065e-06 0)
(-7.9214 -1.35848e-06 0)
(-7.91233 -1.34656e-06 0)
(-7.90325 -1.33449e-06 0)
(-7.89415 -1.32286e-06 0)
(-7.88502 -1.31187e-06 0)
(-7.87588 -1.30062e-06 0)
(-7.86672 -1.28901e-06 0)
(-7.85754 -1.27715e-06 0)
(-7.84835 -1.26531e-06 0)
(-7.83914 -1.25381e-06 0)
(-7.82992 -1.24247e-06 0)
(-7.82068 -1.23093e-06 0)
(-7.81143 -1.2193e-06 0)
(-7.80217 -1.20804e-06 0)
(-7.79289 -1.19702e-06 0)
(-7.7836 -1.18579e-06 0)
(-7.7743 -1.17443e-06 0)
(-7.76498 -1.16342e-06 0)
(-7.75566 -1.15267e-06 0)
(-7.74631 -1.14175e-06 0)
(-7.73696 -1.13072e-06 0)
(-7.7276 -1.11997e-06 0)
(-7.71822 -1.10948e-06 0)
(-7.70883 -1.09886e-06 0)
(-7.69943 -1.08813e-06 0)
(-7.69002 -1.07767e-06 0)
(-7.6806 -1.06745e-06 0)
(-7.67117 -1.05712e-06 0)
(-7.66173 -1.04669e-06 0)
(-7.65228 -1.03651e-06 0)
(-7.64281 -1.02658e-06 0)
(-7.63334 -1.01652e-06 0)
(-7.62386 -1.00638e-06 0)
(-7.61438 -9.96517e-07 0)
(-7.60488 -9.86863e-07 0)
(-7.59537 -9.77076e-07 0)
(-7.58586 -9.67231e-07 0)
(-7.57634 -9.57675e-07 0)
(-7.56681 -9.48313e-07 0)
(-7.55727 -9.38786e-07 0)
(-7.54772 -9.29231e-07 0)
(-7.53817 -9.1999e-07 0)
(-7.52861 -9.10878e-07 0)
(-7.51905 -9.01613e-07 0)
(-7.50948 -8.92391e-07 0)
(-7.4999 -8.83438e-07 0)
(-7.49031 -8.74559e-07 0)
(-7.48072 -8.6557e-07 0)
(-7.47113 -8.56683e-07 0)
(-7.46153 -8.48028e-07 0)
(-7.45192 -8.3938e-07 0)
(-7.44231 -8.30657e-07 0)
(-7.4327 -8.22094e-07 0)
(-7.42308 -8.13734e-07 0)
(-7.41345 -8.05311e-07 0)
(-7.40383 -7.96856e-07 0)
(-7.3942 -7.88612e-07 0)
(-7.38456 -7.80512e-07 0)
(-7.37492 -7.72325e-07 0)
(-7.36528 -7.64174e-07 0)
(-7.35564 -7.56242e-07 0)
(-7.34599 -7.48354e-07 0)
(-7.33634 -7.40414e-07 0)
(-7.32669 -7.32636e-07 0)
(-7.31704 -7.25456e-07 0)
(-7.30737 -7.18369e-07 0)
(-7.2977 -7.10836e-07 0)
(-7.28802 -7.03328e-07 0)
(-7.27835 -6.95913e-07 0)
(-7.26867 -6.8845e-07 0)
(-7.25899 -6.81041e-07 0)
(-7.24931 -6.73818e-07 0)
(-7.23963 -6.66612e-07 0)
(-7.22995 -6.59375e-07 0)
(-7.22027 -6.52278e-07 0)
(-7.21059 -6.45314e-07 0)
(-7.20091 -6.38304e-07 0)
(-7.19124 -6.31314e-07 0)
(-7.18156 -6.24515e-07 0)
(-7.17189 -6.17756e-07 0)
(-7.16221 -6.10963e-07 0)
(-7.15254 -6.04288e-07 0)
(-7.14287 -5.9776e-07 0)
(-7.1332 -5.91186e-07 0)
(-7.12353 -5.84625e-07 0)
(-7.11387 -5.78244e-07 0)
(-7.1042 -5.71908e-07 0)
(-7.09454 -5.65537e-07 0)
(-7.08489 -5.59278e-07 0)
(-7.07523 -5.53156e-07 0)
(-7.06558 -5.46998e-07 0)
(-7.05594 -5.40859e-07 0)
(-7.04629 -5.34883e-07 0)
(-7.03665 -5.28945e-07 0)
(-7.02702 -5.22977e-07 0)
(-7.01739 -5.17125e-07 0)
(-7.00776 -5.11384e-07 0)
(-6.99814 -5.05617e-07 0)
(-6.98852 -4.99887e-07 0)
(-6.97891 -4.94308e-07 0)
(-6.9693 -4.8874e-07 0)
(-6.95969 -4.83161e-07 0)
(-6.9501 -4.77703e-07 0)
(-6.94051 -4.72321e-07 0)
(-6.93092 -4.6692e-07 0)
(-6.92134 -4.61584e-07 0)
(-6.91177 -4.56375e-07 0)
(-6.9022 -4.51156e-07 0)
(-6.89264 -4.45947e-07 0)
(-6.88309 -4.40875e-07 0)
(-6.87354 -4.35833e-07 0)
(-6.864 -4.30787e-07 0)
(-6.85447 -4.25831e-07 0)
(-6.84494 -4.20955e-07 0)
(-6.83542 -4.16072e-07 0)
(-6.82591 -4.11237e-07 0)
(-6.81641 -4.06514e-07 0)
(-6.80692 -4.0179e-07 0)
(-6.79743 -3.97082e-07 0)
(-6.78796 -3.92483e-07 0)
(-6.77849 -3.88111e-07 0)
(-6.76902 -3.83839e-07 0)
(-6.75955 -3.79446e-07 0)
(-6.7501 -3.75025e-07 0)
(-6.74065 -3.70601e-07 0)
(-6.73122 -3.66233e-07 0)
(-6.72179 -3.61952e-07 0)
(-6.71237 -3.57679e-07 0)
(-6.70296 -3.53431e-07 0)
(-6.69357 -3.49299e-07 0)
(-6.68418 -3.45211e-07 0)
(-6.6748 -3.41125e-07 0)
(-6.66543 -3.37091e-07 0)
(-6.65607 -3.33094e-07 0)
(-6.64672 -3.29099e-07 0)
(-6.63739 -3.25178e-07 0)
(-6.62806 -3.21308e-07 0)
(-6.61875 -3.17451e-07 0)
(-6.60945 -3.13633e-07 0)
(-6.60016 -3.09897e-07 0)
(-6.59088 -3.06143e-07 0)
(-6.58162 -3.02459e-07 0)
(-6.57236 -2.98753e-07 0)
(-6.56313 -2.95204e-07 0)
(-6.55389 -2.91774e-07 0)
(-6.54363 -2.87686e-07 0)
(-6.53247 -2.83304e-07 0)
(-6.52147 -2.79303e-07 0)
(-6.51062 -2.75391e-07 0)
(-6.49993 -2.71478e-07 0)
(-6.48938 -2.67686e-07 0)
(-6.47898 -2.6398e-07 0)
(-6.46873 -2.6034e-07 0)
(-6.45862 -2.56807e-07 0)
(-6.44864 -2.53347e-07 0)
(-6.4388 -2.49955e-07 0)
(-6.42908 -2.46666e-07 0)
(-6.4195 -2.43447e-07 0)
(-6.41004 -2.40277e-07 0)
(-6.4007 -2.37214e-07 0)
(-6.39148 -2.34205e-07 0)
(-6.38238 -2.31247e-07 0)
(-6.37339 -2.28377e-07 0)
(-6.36451 -2.25569e-07 0)
(-6.35574 -2.22795e-07 0)
(-6.34708 -2.201e-07 0)
(-6.33852 -2.17469e-07 0)
(-6.33007 -2.14876e-07 0)
(-6.32171 -2.12337e-07 0)
(-6.31346 -2.09875e-07 0)
(-6.30529 -2.0744e-07 0)
(-6.29723 -2.05045e-07 0)
(-6.28925 -2.02724e-07 0)
(-6.28137 -2.00448e-07 0)
(-6.27357 -1.98308e-07 0)
(-6.26586 -1.96243e-07 0)
(-6.25822 -1.94119e-07 0)
(-6.25067 -1.92005e-07 0)
(-6.2432 -1.89912e-07 0)
(-6.23582 -1.87886e-07 0)
(-6.2285 -1.85899e-07 0)
(-6.22127 -1.83932e-07 0)
(-6.21411 -1.82001e-07 0)
(-6.20703 -1.80135e-07 0)
(-6.20002 -1.78303e-07 0)
(-6.19309 -1.76491e-07 0)
(-6.18621 -1.747e-07 0)
(-6.17942 -1.72961e-07 0)
(-6.17268 -1.71234e-07 0)
(-6.16602 -1.69529e-07 0)
(-6.15942 -1.6786e-07 0)
(-6.15289 -1.66243e-07 0)
(-6.14641 -1.64633e-07 0)
(-6.14001 -1.63045e-07 0)
(-6.13366 -1.61484e-07 0)
(-6.12738 -1.59978e-07 0)
(-6.12114 -1.58475e-07 0)
(-6.11498 -1.56997e-07 0)
(-6.10886 -1.5553e-07 0)
(-6.10282 -1.54124e-07 0)
(-6.0968 -1.5272e-07 0)
(-6.09087 -1.51346e-07 0)
(-6.08497 -1.49962e-07 0)
(-6.07914 -1.48648e-07 0)
(-6.07334 -1.47334e-07 0)
(-6.06761 -1.46062e-07 0)
(-6.06191 -1.4475e-07 0)
(-6.05629 -1.43526e-07 0)
(-6.05068 -1.42278e-07 0)
(-6.04516 -1.41112e-07 0)
(-6.03964 -1.39876e-07 0)
(-6.03422 -1.38738e-07 0)
(-6.02879 -1.3754e-07 0)
(-6.02346 -1.36477e-07 0)
(-6.01811 -1.35304e-07 0)
(-6.01287 -1.34267e-07 0)
(-6.00761 -1.33105e-07 0)
(-6.00246 -1.3214e-07 0)
(-5.99727 -1.31018e-07 0)
(-5.99221 -1.30106e-07 0)
(-5.9871 -1.28972e-07 0)
(-5.98212 -1.28116e-07 0)
(-5.97707 -1.27012e-07 0)
(-5.97219 -1.26245e-07 0)
(-5.9672 -1.25147e-07 0)
(-5.9624 -1.24433e-07 0)
(-5.95746 -1.23353e-07 0)
(-5.95275 -1.22727e-07 0)
(-5.94786 -1.21743e-07 0)
(-5.94322 -1.21089e-07 0)
(-5.93839 -1.20465e-07 0)
(-5.9338 -1.19209e-07 0)
(-5.92907 -1.20298e-07 0)
(-5.92438 -1.15959e-07 0)
(-5.92001 -1.24132e-07 0)
(-5.91465 -1.06391e-07 0)
(-5.91173 -1.37538e-07 0)
(-5.90381 -8.37882e-08 0)
(-5.90534 -1.16028e-07 0)
(-5.89444 -1.44401e-07 0)
)
;
    }
    symmetry
    {
        type            symmetryPlane;
    }
    frontAndBack
    {
        type            empty;
    }
}


// ************************************************************************* //
