/*--------------------------------*- C++ -*----------------------------------*\
| =========                 |                                                 |
| \\      /  F ield         | OpenFOAM: The Open Source CFD Toolbox           |
|  \\    /   O peration     | Version:  v2012                                 |
|   \\  /    A nd           | Website:  www.openfoam.com                      |
|    \\/     M anipulation  |                                                 |
\*---------------------------------------------------------------------------*/
FoamFile
{
    version     2.0;
    format      ascii;
    class       volScalarField;
    location    "56.5";
    object      yPlus;
}
// * * * * * * * * * * * * * * * * * * * * * * * * * * * * * * * * * * * * * //

dimensions      [0 0 0 0 0 0 0];


internalField   uniform 0;

boundaryField
{
    inlet
    {
        type            calculated;
        value           uniform 0;
    }
    outlet
    {
        type            calculated;
        value           uniform 0;
    }
    topWall
    {
        type            calculated;
        value           nonuniform List<scalar> 
545
(
0.111331
0.191968
0.246277
0.289499
0.32609
0.35811
0.386711
0.412622
0.436338
0.458215
0.478519
0.497455
0.515189
0.531853
0.547555
0.562389
0.576433
0.589753
0.602408
0.614449
0.625921
0.636864
0.647314
0.657302
0.666858
0.676007
0.684775
0.693182
0.701249
0.708994
0.716435
0.723587
0.730464
0.737081
0.743451
0.749584
0.755492
0.761185
0.766674
0.771967
0.777073
0.782
0.786755
0.791347
0.795782
0.800065
0.804204
0.808205
0.812072
0.815811
0.819427
0.822925
0.826309
0.829584
0.832753
0.835821
0.838792
0.841668
0.844453
0.847152
0.849766
0.852298
0.854753
0.857131
0.859437
0.861672
0.863839
0.86594
0.867978
0.869954
0.871871
0.87373
0.875511
0.877234
0.878943
0.880639
0.882321
0.88399
0.885646
0.88729
0.88892
0.890538
0.892143
0.893735
0.895316
0.896884
0.89844
0.899984
0.901516
0.903036
0.904545
0.906042
0.907528
0.909003
0.910466
0.911919
0.913227
0.914398
0.915569
0.916739
0.91791
0.91908
0.92025
0.92142
0.92259
0.92376
0.924929
0.926099
0.927268
0.928437
0.929606
0.930775
0.931943
0.933112
0.93428
0.935448
0.936616
0.937783
0.938951
0.940118
0.941284
0.942451
0.943617
0.944783
0.945949
0.947115
0.94828
0.949445
0.95061
0.951774
0.952938
0.954102
0.955265
0.956428
0.957591
0.958753
0.959915
0.961077
0.962238
0.963399
0.964559
0.965719
0.966879
0.968038
0.969197
0.970355
0.971513
0.972671
0.973828
0.974984
0.97614
0.977296
0.978451
0.979605
0.980759
0.981913
0.983066
0.984219
0.985371
0.986522
0.987673
0.988823
0.989973
0.991122
0.99227
0.993418
0.994565
0.995712
0.996858
0.998003
0.999148
1.00029
1.00144
1.00258
1.00372
1.00486
1.006
1.00714
1.00828
1.00942
1.01056
1.01169
1.01283
1.01396
1.0151
1.01623
1.01737
1.0185
1.01963
1.02076
1.02189
1.02302
1.02415
1.02527
1.0264
1.02752
1.02865
1.02977
1.03089
1.03201
1.03313
1.03425
1.03537
1.03649
1.03761
1.03872
1.03984
1.04095
1.04206
1.04317
1.04428
1.04539
1.0465
1.04761
1.04871
1.04982
1.05092
1.05202
1.05312
1.05422
1.05532
1.05642
1.05752
1.05861
1.05971
1.0608
1.06189
1.06298
1.06407
1.06516
1.06624
1.06733
1.06841
1.06949
1.07057
1.07165
1.07273
1.07381
1.07488
1.07596
1.07703
1.0781
1.07917
1.08024
1.0813
1.08237
1.08343
1.08449
1.08555
1.08661
1.08767
1.08873
1.08978
1.09083
1.09188
1.09293
1.09398
1.09503
1.09607
1.09711
1.09815
1.09919
1.10023
1.10127
1.1023
1.10333
1.10436
1.10539
1.10642
1.10739
1.1083
1.10922
1.11014
1.11108
1.11202
1.11296
1.11391
1.11487
1.11584
1.11681
1.11779
1.11877
1.11976
1.12076
1.12177
1.12278
1.12379
1.12482
1.12585
1.12688
1.12792
1.12897
1.13003
1.13109
1.13216
1.13323
1.13431
1.13539
1.13649
1.13758
1.13869
1.1398
1.14091
1.14203
1.14316
1.14429
1.14543
1.14658
1.14773
1.14888
1.15004
1.15121
1.15238
1.15356
1.15474
1.15592
1.15712
1.15831
1.15951
1.16072
1.16193
1.16314
1.16436
1.16559
1.16682
1.16805
1.16928
1.17052
1.17177
1.17301
1.17426
1.17552
1.17677
1.17803
1.1793
1.18056
1.18183
1.1831
1.18437
1.18565
1.18692
1.1882
1.18948
1.19076
1.19205
1.19333
1.19461
1.1959
1.19718
1.19847
1.19976
1.20104
1.20233
1.20361
1.2049
1.20618
1.20746
1.20874
1.21002
1.21129
1.21257
1.21384
1.21511
1.21637
1.21763
1.21889
1.22015
1.2214
1.22264
1.22389
1.22512
1.22635
1.22758
1.2288
1.23001
1.23122
1.23242
1.23361
1.2348
1.23598
1.23715
1.23831
1.23946
1.24061
1.24174
1.24287
1.24398
1.24509
1.24618
1.24726
1.24834
1.2494
1.25044
1.25148
1.2525
1.25351
1.25451
1.2555
1.25647
1.25742
1.25836
1.25929
1.2602
1.26109
1.26197
1.26284
1.26368
1.26451
1.26533
1.26612
1.2669
1.26766
1.2684
1.26912
1.26982
1.27051
1.27117
1.27182
1.27244
1.27305
1.27363
1.2742
1.27474
1.27526
1.27576
1.27624
1.2767
1.27713
1.27755
1.27794
1.2783
1.27865
1.27897
1.27928
1.27955
1.27981
1.28004
1.28025
1.28043
1.2806
1.28074
1.28085
1.28095
1.28102
1.28106
1.28109
1.28109
1.28106
1.28102
1.28095
1.28085
1.2807
1.28053
1.28032
1.28009
1.27984
1.27956
1.27925
1.27892
1.27857
1.27821
1.27782
1.27742
1.27699
1.27656
1.27611
1.27564
1.27517
1.27468
1.27418
1.27367
1.27315
1.27263
1.27209
1.27155
1.271
1.27045
1.2699
1.26933
1.26877
1.2682
1.26764
1.26707
1.26649
1.26592
1.26535
1.26478
1.26421
1.26364
1.26308
1.26251
1.26195
1.2614
1.26084
1.26029
1.25975
1.25921
1.25868
1.25815
1.25763
1.25711
1.25661
1.2561
1.25561
1.25513
1.25465
1.25418
1.25372
1.25327
1.25283
1.25239
1.25197
1.25156
1.25116
1.25077
1.25038
1.25001
1.24966
1.24931
1.24897
1.24865
1.24834
1.24804
1.24775
1.24747
1.24721
1.24696
1.24672
1.2465
1.24629
1.24609
1.24591
1.24574
1.24558
1.24544
1.24531
1.24519
1.24509
1.245
1.24493
1.24487
1.24482
1.24479
1.24477
1.24477
)
;
    }
    bottomWall
    {
        type            calculated;
        value           nonuniform List<scalar> 
449
(
0.139381
0.0889252
0.0757921
0.0694422
0.065292
0.0622254
0.0598484
0.0580352
0.0568622
0.0566802
0.058246
0.062291
0.0658281
0.0680049
0.0691909
0.0698334
0.0701576
0.0702795
0.070253
0.0701431
0.0699764
0.0697728
0.0695496
0.0693174
0.0690823
0.0688481
0.0686167
0.0683899
0.0681688
0.0679538
0.067745
0.0675426
0.0673463
0.0671561
0.0669719
0.0667931
0.0666194
0.066451
0.0662875
0.0661287
0.0659745
0.0658246
0.0656787
0.0655367
0.0653985
0.0652637
0.0651324
0.0650042
0.0648791
0.0647568
0.0646368
0.064519
0.0644032
0.0642895
0.0641778
0.0640681
0.0639604
0.0638546
0.0637507
0.0636486
0.0635484
0.0634499
0.0633531
0.0632579
0.0631643
0.0630722
0.0629817
0.0628926
0.0628049
0.0627186
0.0626335
0.0625497
0.0624671
0.0623857
0.0623056
0.0622265
0.0621486
0.0620718
0.0619961
0.0619214
0.0618477
0.0617751
0.0617034
0.0616326
0.0615627
0.0614938
0.0614257
0.0613585
0.0612921
0.0612264
0.0611616
0.0610975
0.0610342
0.0609717
0.0609098
0.0608487
0.0607882
0.0607285
0.0606694
0.0606109
0.0605531
0.0604958
0.0604391
0.0603829
0.0603274
0.0602724
0.060218
0.0601641
0.0601107
0.0600579
0.0600056
0.0599538
0.0599025
0.0598517
0.0598013
0.0597515
0.059702
0.0596531
0.0596045
0.0595564
0.0595088
0.0594615
0.0594147
0.0593682
0.0593222
0.0592765
0.0592313
0.0591864
0.0591418
0.0590977
0.0590539
0.0590104
0.0589673
0.0589246
0.0588821
0.05884
0.0587982
0.0587568
0.0587156
0.0586748
0.0586343
0.058594
0.0585541
0.0585145
0.0584751
0.058436
0.0583972
0.0583587
0.0583204
0.0582823
0.0582445
0.058207
0.0581697
0.0581327
0.0580959
0.0580594
0.0580231
0.057987
0.0579512
0.0579156
0.0578802
0.0578451
0.0578102
0.0577755
0.057741
0.0577067
0.0576726
0.0576388
0.0576051
0.0575717
0.0575384
0.0575054
0.0574725
0.0574417
0.0574127
0.0573836
0.0573544
0.0573251
0.0572957
0.0572662
0.0572366
0.0572069
0.0571771
0.0571472
0.0571172
0.0570871
0.0570569
0.0570267
0.0569963
0.0569658
0.0569353
0.0569046
0.0568739
0.0568431
0.0568122
0.0567812
0.0567501
0.0567189
0.0566876
0.0566563
0.0566248
0.0565933
0.0565617
0.05653
0.0564983
0.0564664
0.0564345
0.0564025
0.0563704
0.0563382
0.0563059
0.0562736
0.0562412
0.0562087
0.0561761
0.0561434
0.0561107
0.0560778
0.0560449
0.056012
0.0559789
0.0559458
0.0559126
0.0558794
0.055846
0.0558127
0.0557792
0.0557457
0.0557121
0.0556785
0.0556448
0.055611
0.0555771
0.0555433
0.0555093
0.0554753
0.0554412
0.0554071
0.0553729
0.0553387
0.0553044
0.05527
0.0552356
0.0552012
0.0551666
0.0551321
0.0550975
0.0550628
0.0550281
0.0549933
0.0549585
0.0549237
0.0548888
0.0548538
0.0548188
0.0547838
0.0547487
0.0547136
0.0546784
0.0546432
0.054608
0.0545727
0.0545374
0.054502
0.0544666
0.0544312
0.0543957
0.0543602
0.0543246
0.0542891
0.0542534
0.0542178
0.0541821
0.0541464
0.0541106
0.0540748
0.0540389
0.0540031
0.0539671
0.0539312
0.0538952
0.0538592
0.0538232
0.0537872
0.0537511
0.053715
0.0536789
0.0536428
0.0536067
0.0535705
0.0535343
0.0534981
0.0534619
0.0534256
0.0533894
0.0533531
0.0533168
0.0532805
0.0532442
0.0532079
0.0531716
0.0531352
0.0530988
0.0530625
0.0530261
0.0529897
0.0529533
0.0529169
0.0528805
0.0528441
0.0528077
0.0527713
0.0527348
0.0526984
0.052662
0.0526255
0.0525891
0.0525527
0.0525162
0.0524798
0.0524434
0.0524069
0.0523705
0.0523341
0.0522977
0.0522613
0.0522249
0.0521885
0.0521521
0.0521157
0.0520793
0.0520428
0.0520064
0.05197
0.0519336
0.0518973
0.0518609
0.0518245
0.0517882
0.0517519
0.0517155
0.0516792
0.051643
0.0516067
0.0515704
0.0515342
0.051498
0.0514618
0.0514256
0.0513894
0.0513533
0.0513172
0.0512811
0.051245
0.0512049
0.0511612
0.0511181
0.0510756
0.0510336
0.0509922
0.0509513
0.050911
0.0508712
0.0508319
0.0507931
0.0507547
0.0507169
0.0506795
0.0506426
0.0506061
0.05057
0.0505344
0.0504992
0.0504644
0.05043
0.050396
0.0503624
0.0503291
0.0502963
0.0502637
0.0502316
0.0501997
0.0501683
0.0501371
0.0501063
0.0500757
0.0500455
0.0500156
0.049986
0.0499567
0.0499277
0.049899
0.0498705
0.0498423
0.0498145
0.0497868
0.0497595
0.0497323
0.0497055
0.0496789
0.0496526
0.0496264
0.0496006
0.0495749
0.0495495
0.0495243
0.0494994
0.0494746
0.0494501
0.0494257
0.0494017
0.0493777
0.0493541
0.0493305
0.0493073
0.0492841
0.0492612
0.0492384
0.0492159
0.0491935
0.0491714
0.0491493
0.0491275
0.0491057
0.0490843
0.0490629
0.0490418
0.0490206
0.0489999
0.048979
0.0489587
0.048938
0.048918
0.0488976
0.0488779
0.0488577
0.0488383
0.0488183
0.0487992
0.0487794
0.0487605
0.0487411
0.0487218
0.0487038
0.0486818
0.0486698
0.0486371
0.0486434
0.0485986
)
;
    }
    symmetry
    {
        type            symmetryPlane;
    }
    frontAndBack
    {
        type            empty;
    }
}


// ************************************************************************* //
