/*--------------------------------*- C++ -*----------------------------------*\
| =========                 |                                                 |
| \\      /  F ield         | OpenFOAM: The Open Source CFD Toolbox           |
|  \\    /   O peration     | Version:  v2012                                 |
|   \\  /    A nd           | Website:  www.openfoam.com                      |
|    \\/     M anipulation  |                                                 |
\*---------------------------------------------------------------------------*/
FoamFile
{
    version     2.0;
    format      ascii;
    class       volScalarField;
    location    "46";
    object      omega;
}
// * * * * * * * * * * * * * * * * * * * * * * * * * * * * * * * * * * * * * //

dimensions      [0 0 -1 0 0 0 0];


internalField   nonuniform List<scalar> 
209825
(
8261.7
7568.93
6999.39
6542.97
6182.57
5899.16
5674.14
5493.86
5346.91
5226.16
5125.09
5040.26
4967.64
4905.69
4851.65
4805.01
4763.64
4727.63
4695.22
4666.84
4640.95
4618.21
4597.18
4578.68
4561.37
4546.15
4531.72
4519.06
4506.9
4496.29
4485.95
4476.98
4468.13
4460.49
4452.84
4446.32
4439.7
4434.09
4428.32
4423.46
4418.44
4414.22
4409.79
4406.15
4402.26
4399.08
4395.64
4392.83
4389.83
4387.38
4384.75
4382.64
4380.38
4378.45
4376.46
4374.78
4373.02
4371.55
4369.97
4368.71
4367.4
4366.36
4365.15
4364.33
4363.29
4362.57
4361.62
4361.04
4360.24
4359.81
4359.14
4358.79
4358.22
4357.91
4357.34
4357.01
4356.48
4356.21
4355.75
4355.54
4355.15
4355
4354.65
4354.61
4354.5
4354.62
4354.62
4354.96
4354.96
4355.47
4355.47
4356.28
4356.98
4385.71
4495.61
113148
8261.7
7568.93
6999.39
6542.96
6182.56
5899.13
5674.1
5493.82
5346.86
5226.1
5125.02
5040.18
4967.56
4905.6
4851.56
4804.91
4763.54
4727.52
4695.11
4666.73
4640.84
4618.09
4597.07
4578.57
4561.25
4546.03
4531.6
4518.94
4506.78
4496.16
4485.83
4476.85
4468
4460.36
4452.72
4446.19
4439.57
4433.96
4428.18
4423.33
4418.31
4414.09
4409.65
4406.02
4402.13
4398.95
4395.51
4392.7
4389.69
4387.24
4384.61
4382.5
4380.25
4378.31
4376.32
4374.65
4372.89
4371.41
4369.83
4368.57
4367.26
4366.22
4365.01
4364.19
4363.15
4362.43
4361.48
4360.9
4360.1
4359.67
4359
4358.65
4358.07
4357.77
4357.2
4356.87
4356.34
4356.07
4355.61
4355.4
4355.01
4354.85
4354.51
4354.47
4354.36
4354.48
4354.48
4354.82
4354.82
4355.33
4355.33
4356.13
4356.84
4385.61
4495.51
109850
8261.7
7568.94
6999.39
6542.94
6182.51
5899.04
5673.97
5493.66
5346.67
5225.88
5124.78
5039.92
4967.28
4905.31
4851.25
4804.59
4763.21
4727.18
4694.76
4666.37
4640.47
4617.72
4596.69
4578.18
4560.86
4545.64
4531.2
4518.54
4506.37
4495.75
4485.41
4476.44
4467.58
4459.94
4452.29
4445.76
4439.14
4433.53
4427.75
4422.89
4417.87
4413.65
4409.21
4405.58
4401.68
4398.5
4395.06
4392.25
4389.25
4386.79
4384.16
4382.05
4379.8
4377.86
4375.86
4374.19
4372.43
4370.96
4369.37
4368.12
4366.81
4365.77
4364.56
4363.73
4362.69
4361.97
4361.02
4360.44
4359.64
4359.21
4358.54
4358.19
4357.61
4357.3
4356.74
4356.4
4355.88
4355.6
4355.15
4354.93
4354.55
4354.39
4354.04
4354
4353.89
4354.01
4354.01
4354.35
4354.35
4354.85
4354.85
4355.66
4356.37
4385.24
4495.12
106063
8261.7
7568.95
6999.39
6542.91
6182.41
5898.88
5673.75
5493.38
5346.33
5225.5
5124.36
5039.47
4966.8
4904.8
4850.72
4804.04
4762.64
4726.59
4694.16
4665.75
4639.84
4617.08
4596.04
4577.52
4560.19
4544.96
4530.52
4517.85
4505.67
4495.05
4484.7
4475.72
4466.86
4459.22
4451.56
4445.03
4438.41
4432.79
4427.01
4422.15
4417.12
4412.9
4408.46
4404.82
4400.93
4397.74
4394.3
4391.49
4388.48
4386.03
4383.39
4381.28
4379.02
4377.09
4375.09
4373.42
4371.65
4370.18
4368.59
4367.34
4366.03
4364.98
4363.77
4362.94
4361.91
4361.19
4360.23
4359.65
4358.85
4358.42
4357.75
4357.4
4356.82
4356.51
4355.94
4355.61
4355.08
4354.8
4354.35
4354.14
4353.75
4353.59
4353.25
4353.2
4353.09
4353.21
4353.2
4353.54
4353.54
4354.04
4354.05
4354.85
4355.56
4384.59
4494.43
102169
8261.7
7568.97
6999.4
6542.86
6182.28
5898.66
5673.44
5492.98
5345.86
5224.97
5123.77
5038.82
4966.11
4904.08
4849.96
4803.25
4761.82
4725.75
4693.3
4664.87
4638.94
4616.16
4595.11
4576.58
4559.23
4543.99
4529.54
4516.86
4504.68
4494.05
4483.69
4474.71
4465.84
4458.19
4450.53
4443.99
4437.36
4431.74
4425.95
4421.09
4416.06
4411.84
4407.39
4403.75
4399.85
4396.66
4393.22
4390.4
4387.39
4384.93
4382.3
4380.18
4377.92
4375.99
4373.99
4372.31
4370.55
4369.07
4367.48
4366.23
4364.91
4363.87
4362.65
4361.82
4360.79
4360.06
4359.11
4358.52
4357.73
4357.29
4356.62
4356.27
4355.69
4355.38
4354.81
4354.48
4353.95
4353.67
4353.22
4353
4352.61
4352.45
4352.11
4352.06
4351.94
4352.06
4352.05
4352.39
4352.39
4352.89
4352.89
4353.7
4354.41
4383.66
4493.46
98272.5
8261.7
7568.99
6999.4
6542.79
6182.1
5898.36
5673.03
5492.46
5345.25
5224.27
5123
5037.99
4965.21
4903.13
4848.97
4802.22
4760.76
4724.66
4692.17
4663.73
4637.77
4614.97
4593.9
4575.35
4557.99
4542.73
4528.27
4515.57
4503.38
4492.74
4482.38
4473.38
4464.5
4456.84
4449.18
4442.63
4436
4430.37
4424.58
4419.71
4414.67
4410.44
4405.99
4402.35
4398.44
4395.25
4391.8
4388.98
4385.97
4383.51
4380.87
4378.75
4376.49
4374.55
4372.55
4370.87
4369.1
4367.62
4366.03
4364.77
4363.46
4362.41
4361.2
4360.36
4359.33
4358.6
4357.65
4357.06
4356.26
4355.83
4355.15
4354.79
4354.21
4353.9
4353.34
4353
4352.47
4352.19
4351.74
4351.52
4351.13
4350.97
4350.62
4350.58
4350.45
4350.57
4350.56
4350.89
4350.89
4351.39
4351.39
4352.19
4352.91
4382.44
4492.18
94412.9
8261.7
7569.02
6999.41
6542.71
6181.89
5898
5672.52
5491.82
5344.49
5223.4
5122.04
5036.95
4964.11
4901.96
4847.75
4800.95
4759.44
4723.3
4690.78
4662.3
4636.32
4613.49
4592.4
4573.83
4556.45
4541.17
4526.69
4513.98
4501.77
4491.12
4480.74
4471.74
4462.85
4455.18
4447.5
4440.95
4434.31
4428.67
4422.87
4417.99
4412.95
4408.72
4404.26
4400.61
4396.7
4393.51
4390.05
4387.23
4384.21
4381.75
4379.1
4376.98
4374.71
4372.77
4370.77
4369.09
4367.31
4365.83
4364.24
4362.98
4361.66
4360.61
4359.39
4358.56
4357.52
4356.79
4355.83
4355.24
4354.44
4354.01
4353.33
4352.97
4352.39
4352.08
4351.51
4351.17
4350.64
4350.36
4349.9
4349.68
4349.29
4349.13
4348.78
4348.74
4348.61
4348.72
4348.71
4349.04
4349.04
4349.53
4349.53
4350.32
4351.05
4380.93
4490.61
90609.4
8261.71
7569.06
6999.42
6542.61
6181.63
5897.56
5671.91
5491.05
5343.58
5222.37
5120.9
5035.71
4962.78
4900.56
4846.28
4799.42
4757.87
4721.68
4689.12
4660.6
4634.58
4611.73
4590.6
4572.01
4554.6
4539.31
4524.81
4512.08
4499.85
4489.18
4478.79
4469.77
4460.87
4453.19
4445.5
4438.94
4432.28
4426.64
4420.83
4415.95
4410.9
4406.66
4402.19
4398.53
4394.62
4391.42
4387.96
4385.13
4382.11
4379.64
4376.99
4374.86
4372.59
4370.65
4368.63
4366.95
4365.18
4363.69
4362.09
4360.83
4359.51
4358.45
4357.23
4356.4
4355.35
4354.62
4353.66
4353.07
4352.27
4351.83
4351.15
4350.79
4350.21
4349.89
4349.32
4348.98
4348.45
4348.17
4347.71
4347.49
4347.09
4346.93
4346.58
4346.53
4346.4
4346.51
4346.49
4346.82
4346.82
4347.3
4347.3
4348.09
4348.83
4379.13
4488.74
86870.8
8261.71
7569.1
6999.43
6542.49
6181.33
5897.06
5671.2
5490.16
5342.52
5221.17
5119.56
5034.27
4961.24
4898.93
4844.58
4797.65
4756.03
4719.79
4687.18
4658.62
4632.56
4609.67
4588.51
4569.88
4552.45
4537.13
4522.61
4509.86
4497.61
4486.92
4476.51
4467.48
4458.56
4450.87
4443.17
4436.59
4429.92
4424.27
4418.45
4413.56
4408.5
4404.25
4399.78
4396.11
4392.19
4388.98
4385.51
4382.68
4379.65
4377.17
4374.52
4372.39
4370.11
4368.16
4366.14
4364.46
4362.68
4361.19
4359.59
4358.32
4356.99
4355.94
4354.71
4353.87
4352.82
4352.09
4351.13
4350.53
4349.73
4349.29
4348.6
4348.24
4347.66
4347.34
4346.77
4346.43
4345.9
4345.61
4345.15
4344.93
4344.53
4344.36
4344.02
4343.96
4343.82
4343.92
4343.9
4344.22
4344.22
4344.7
4344.7
4345.49
4346.24
4377.03
4486.57
83199.8
8261.71
7569.14
6999.44
6542.37
6180.99
5896.48
5670.39
5489.14
5341.31
5219.79
5118.04
5032.61
4959.47
4897.07
4842.62
4795.62
4753.93
4717.63
4684.96
4656.35
4630.24
4607.31
4586.11
4567.45
4549.99
4534.64
4520.08
4507.31
4495.04
4484.33
4473.9
4464.85
4455.91
4448.21
4440.49
4433.9
4427.22
4421.55
4415.72
4410.82
4405.75
4401.49
4397.01
4393.33
4389.4
4386.18
4382.71
4379.87
4376.83
4374.35
4371.69
4369.55
4367.27
4365.32
4363.29
4361.6
4359.82
4358.32
4356.72
4355.45
4354.11
4353.06
4351.83
4350.98
4349.93
4349.2
4348.23
4347.63
4346.82
4346.37
4345.69
4345.33
4344.74
4344.42
4343.85
4343.5
4342.97
4342.68
4342.21
4341.99
4341.59
4341.42
4341.07
4341.01
4340.86
4340.96
4340.94
4341.25
4341.25
4341.72
4341.72
4342.51
4343.27
4374.64
4484.11
79594.7
8261.71
7569.2
6999.46
6542.22
6180.61
5895.84
5669.49
5487.99
5339.95
5218.24
5116.32
5030.75
4957.48
4894.97
4840.42
4793.32
4751.56
4715.18
4682.45
4653.78
4627.62
4604.65
4583.4
4564.71
4547.2
4531.82
4517.24
4504.44
4492.14
4481.41
4470.95
4461.88
4452.92
4445.2
4437.46
4430.86
4424.16
4418.49
4412.64
4407.72
4402.64
4398.37
4393.88
4390.19
4386.25
4383.03
4379.54
4376.69
4373.65
4371.16
4368.49
4366.35
4364.06
4362.1
4360.07
4358.37
4356.58
4355.08
4353.47
4352.2
4350.86
4349.8
4348.56
4347.71
4346.65
4345.92
4344.95
4344.34
4343.53
4343.08
4342.39
4342.03
4341.44
4341.12
4340.54
4340.2
4339.65
4339.37
4338.9
4338.67
4338.27
4338.1
4337.75
4337.68
4337.52
4337.62
4337.59
4337.89
4337.89
4338.35
4338.35
4339.13
4339.91
4371.93
4481.34
76049.7
8261.71
7569.25
6999.48
6542.06
6180.19
5895.12
5668.48
5486.71
5338.43
5216.51
5114.41
5028.68
4955.26
4892.62
4837.96
4790.77
4748.91
4712.46
4679.65
4650.92
4624.7
4601.67
4580.38
4561.64
4544.09
4528.68
4514.06
4501.23
4488.9
4478.14
4467.66
4458.56
4449.58
4441.84
4434.09
4427.47
4420.75
4415.06
4409.2
4404.27
4399.17
4394.89
4390.38
4386.69
4382.73
4379.5
4376.01
4373.15
4370.1
4367.6
4364.92
4362.77
4360.47
4358.51
4356.47
4354.77
4352.97
4351.47
4349.85
4348.57
4347.22
4346.16
4344.91
4344.06
4343
4342.26
4341.28
4340.68
4339.86
4339.41
4338.71
4338.34
4337.75
4337.43
4336.85
4336.5
4335.96
4335.66
4335.19
4334.96
4334.55
4334.38
4334.03
4333.96
4333.79
4333.88
4333.85
4334.14
4334.14
4334.59
4334.59
4335.36
4336.16
4368.92
4478.28
72561
8261.71
7569.32
6999.5
6541.89
6179.72
5894.33
5667.37
5485.31
5336.76
5214.6
5112.3
5026.38
4952.81
4890.03
4835.24
4787.94
4745.98
4709.44
4676.56
4647.76
4621.47
4598.38
4577.04
4558.25
4540.66
4525.2
4510.54
4497.67
4485.31
4474.53
4464.02
4454.9
4445.89
4438.13
4430.35
4423.71
4416.97
4411.26
4405.39
4400.44
4395.33
4391.03
4386.51
4382.81
4378.84
4375.6
4372.09
4369.22
4366.16
4363.66
4360.97
4358.81
4356.5
4354.53
4352.48
4350.77
4348.97
4347.46
4345.84
4344.55
4343.19
4342.13
4340.88
4340.02
4338.95
4338.21
4337.23
4336.61
4335.79
4335.33
4334.63
4334.26
4333.66
4333.34
4332.76
4332.41
4331.86
4331.57
4331.09
4330.86
4330.45
4330.27
4329.91
4329.84
4329.66
4329.74
4329.7
4329.99
4329.99
4330.42
4330.42
4331.19
4332.01
4365.59
4474.93
69135.1
8261.71
7569.39
6999.52
6541.71
6179.22
5893.47
5666.15
5483.77
5334.93
5212.52
5109.98
5023.87
4950.12
4887.19
4832.27
4784.84
4742.77
4706.14
4673.16
4644.28
4617.93
4594.77
4573.37
4554.53
4536.88
4521.38
4506.68
4493.78
4481.38
4470.56
4460.02
4450.87
4441.84
4434.05
4426.25
4419.58
4412.83
4407.1
4401.2
4396.24
4391.11
4386.8
4382.27
4378.55
4374.57
4371.31
4367.79
4364.92
4361.84
4359.33
4356.63
4354.46
4352.14
4350.16
4348.11
4346.39
4344.58
4343.06
4341.43
4340.14
4338.77
4337.7
4336.44
4335.58
4334.5
4333.76
4332.77
4332.15
4331.32
4330.86
4330.16
4329.78
4329.18
4328.85
4328.27
4327.92
4327.36
4327.07
4326.58
4326.35
4325.93
4325.75
4325.39
4325.31
4325.12
4325.2
4325.15
4325.43
4325.43
4325.85
4325.85
4326.61
4327.46
4361.94
4471.28
65778
8261.71
7569.46
6999.54
6541.5
6178.67
5892.53
5664.84
5482.1
5332.94
5210.25
5107.46
5021.14
4947.2
4884.09
4829.02
4781.46
4739.28
4702.54
4669.47
4640.5
4614.06
4590.84
4569.37
4550.47
4532.77
4517.22
4502.47
4489.53
4477.09
4466.23
4455.66
4446.48
4437.41
4429.6
4421.77
4415.08
4408.31
4402.56
4396.64
4391.66
4386.51
4382.19
4377.63
4373.9
4369.9
4366.63
4363.1
4360.21
4357.13
4354.6
4351.89
4349.71
4347.38
4345.4
4343.33
4341.61
4339.78
4338.26
4336.62
4335.32
4333.95
4332.87
4331.61
4330.74
4329.65
4328.9
4327.91
4327.29
4326.45
4325.98
4325.27
4324.89
4324.29
4323.96
4323.37
4323.01
4322.46
4322.15
4321.67
4321.43
4321.01
4320.82
4320.46
4320.38
4320.18
4320.24
4320.19
4320.45
4320.45
4320.85
4320.85
4321.61
4322.48
4357.96
4467.34
62495.4
8261.71
7569.54
6999.57
6541.29
6178.09
5891.53
5663.42
5480.29
5330.79
5207.79
5104.74
5018.18
4944.03
4880.74
4825.51
4777.81
4735.49
4698.64
4665.46
4636.4
4609.88
4586.58
4565.03
4546.07
4528.31
4512.71
4497.91
4484.92
4472.44
4461.54
4450.93
4441.71
4432.62
4424.77
4416.92
4410.21
4403.4
4397.63
4391.69
4386.69
4381.52
4377.18
4372.61
4368.86
4364.84
4361.56
4358.02
4355.11
4352.01
4349.48
4346.75
4344.56
4342.22
4340.23
4338.15
4336.42
4334.58
4333.06
4331.41
4330.1
4328.71
4327.63
4326.36
4325.48
4324.39
4323.63
4322.63
4322.01
4321.16
4320.69
4319.97
4319.59
4318.98
4318.64
4318.05
4317.69
4317.13
4316.82
4316.33
4316.09
4315.66
4315.48
4315.11
4315.02
4314.81
4314.86
4314.8
4315.05
4315.05
4315.44
4315.44
4316.19
4317.09
4353.63
4463.12
59292.5
8261.71
7569.63
6999.6
6541.06
6177.46
5890.45
5661.89
5478.36
5328.48
5205.15
5101.81
5014.99
4940.62
4877.14
4821.72
4773.87
4731.41
4694.43
4661.14
4631.98
4605.36
4581.98
4560.36
4541.32
4523.5
4507.84
4492.98
4479.95
4467.42
4456.48
4445.83
4436.57
4427.44
4419.57
4411.68
4404.94
4398.11
4392.31
4386.35
4381.32
4376.13
4371.77
4367.18
4363.41
4359.38
4356.09
4352.53
4349.61
4346.49
4343.94
4341.2
4339
4336.65
4334.65
4332.56
4330.82
4328.97
4327.44
4325.78
4324.46
4323.06
4321.97
4320.69
4319.81
4318.71
4317.95
4316.94
4316.31
4315.45
4314.98
4314.25
4313.86
4313.24
4312.91
4312.31
4311.95
4311.38
4311.07
4310.57
4310.32
4309.89
4309.7
4309.33
4309.23
4309.01
4309.06
4308.98
4309.22
4309.22
4309.59
4309.59
4310.33
4311.27
4348.96
4458.62
56174.2
8261.71
7569.72
6999.64
6540.82
6176.8
5889.31
5660.27
5476.29
5326.01
5202.33
5098.68
5011.58
4936.97
4873.27
4817.67
4769.64
4727.03
4689.92
4656.5
4627.23
4600.52
4577.04
4555.34
4536.23
4518.34
4502.61
4487.7
4474.6
4462.02
4451.04
4440.34
4431.05
4421.88
4413.97
4406.05
4399.28
4392.42
4386.6
4380.61
4375.56
4370.34
4365.96
4361.35
4357.56
4353.52
4350.2
4346.62
4343.69
4340.56
4338
4335.24
4333.03
4330.66
4328.65
4326.54
4324.79
4322.94
4321.4
4319.72
4318.4
4316.99
4315.89
4314.6
4313.71
4312.6
4311.83
4310.82
4310.18
4309.32
4308.83
4308.1
4307.71
4307.08
4306.74
4306.14
4305.77
4305.2
4304.88
4304.38
4304.13
4303.69
4303.49
4303.12
4303.01
4302.78
4302.81
4302.73
4302.95
4302.95
4303.31
4303.3
4304.04
4305.01
4343.93
4453.83
53144.9
8261.71
7569.82
6999.68
6540.57
6176.09
5888.09
5658.54
5474.08
5323.38
5199.32
5095.33
5007.94
4933.06
4869.14
4813.33
4765.12
4722.35
4685.09
4651.55
4622.16
4595.34
4571.76
4549.97
4530.78
4512.81
4497.02
4482.04
4468.89
4456.25
4445.22
4434.48
4425.14
4415.93
4407.99
4400.03
4393.23
4386.33
4380.48
4374.46
4369.39
4364.15
4359.75
4355.11
4351.3
4347.23
4343.9
4340.3
4337.36
4334.21
4331.63
4328.86
4326.63
4324.25
4322.22
4320.11
4318.35
4316.48
4314.93
4313.24
4311.91
4310.49
4309.38
4308.08
4307.18
4306.06
4305.28
4304.26
4303.61
4302.74
4302.25
4301.51
4301.11
4300.48
4300.14
4299.53
4299.16
4298.58
4298.26
4297.75
4297.49
4297.04
4296.84
4296.46
4296.35
4296.11
4296.13
4296.04
4296.24
4296.24
4296.58
4296.57
4297.3
4298.3
4338.52
4448.75
50208.8
8261.71
7569.92
6999.72
6540.31
6175.35
5886.8
5656.71
5471.75
5320.58
5196.12
5091.77
5004.07
4928.91
4864.74
4808.71
4760.32
4717.37
4679.95
4646.27
4616.75
4589.81
4566.14
4544.25
4524.97
4506.92
4491.06
4476.01
4462.8
4450.1
4439.02
4428.22
4418.84
4409.59
4401.6
4393.6
4386.77
4379.84
4373.96
4367.9
4362.81
4357.54
4353.11
4348.45
4344.62
4340.53
4337.18
4333.56
4330.6
4327.43
4324.84
4322.05
4319.8
4317.41
4315.37
4313.24
4311.47
4309.58
4308.02
4306.32
4304.98
4303.55
4302.43
4301.12
4300.21
4299.08
4298.3
4297.26
4296.61
4295.73
4295.23
4294.48
4294.08
4293.44
4293.09
4292.47
4292.1
4291.52
4291.19
4290.67
4290.41
4289.95
4289.75
4289.36
4289.24
4288.99
4289
4288.89
4289.08
4289.08
4289.39
4289.39
4290.1
4291.15
4332.72
4443.34
47369.7
8261.71
7570.03
6999.77
6540.04
6174.58
5885.45
5654.78
5469.28
5317.63
5192.73
5088
4999.97
4924.51
4860.08
4803.82
4755.21
4712.08
4674.5
4640.66
4611.01
4583.94
4560.16
4538.16
4518.8
4500.66
4484.72
4469.6
4456.32
4443.56
4432.42
4421.57
4412.14
4402.84
4394.81
4386.77
4379.9
4372.93
4367.02
4360.93
4355.81
4350.51
4346.06
4341.37
4337.52
4333.4
4330.03
4326.39
4323.41
4320.22
4317.61
4314.8
4312.54
4310.13
4308.08
4305.93
4304.15
4302.25
4300.68
4298.97
4297.61
4296.16
4295.04
4293.71
4292.8
4291.65
4290.86
4289.82
4289.16
4288.27
4287.76
4287.01
4286.59
4285.95
4285.59
4284.97
4284.59
4284
4283.67
4283.14
4282.87
4282.41
4282.2
4281.8
4281.68
4281.42
4281.41
4281.29
4281.47
4281.46
4281.76
4281.74
4282.45
4283.54
4326.51
4437.59
44631
8261.7
7570.15
6999.82
6539.75
6173.76
5884.03
5652.74
5466.68
5314.51
5189.16
5084.02
4995.63
4919.86
4855.14
4798.63
4749.81
4706.47
4668.72
4634.72
4604.93
4577.73
4553.83
4531.72
4512.26
4494.03
4478
4462.8
4449.45
4436.63
4425.43
4414.52
4405.04
4395.68
4387.61
4379.53
4372.61
4365.61
4359.66
4353.54
4348.38
4343.05
4338.57
4333.86
4329.98
4325.84
4322.45
4318.79
4315.78
4312.57
4309.94
4307.12
4304.84
4302.41
4300.34
4298.18
4296.38
4294.47
4292.89
4291.16
4289.8
4288.33
4287.2
4285.86
4284.93
4283.78
4282.98
4281.92
4281.25
4280.35
4279.84
4279.07
4278.65
4278
4277.63
4277.01
4276.62
4276.02
4275.69
4275.15
4274.87
4274.41
4274.19
4273.79
4273.65
4273.39
4273.36
4273.22
4273.38
4273.37
4273.65
4273.63
4274.33
4275.46
4319.87
4431.46
41995.7
8261.7
7570.27
6999.88
6539.46
6172.91
5882.54
5650.61
5463.94
5311.23
5185.39
5079.82
4991.06
4914.95
4849.94
4793.16
4744.11
4700.56
4662.62
4628.44
4598.5
4571.16
4547.14
4524.91
4505.34
4487.02
4470.9
4455.62
4442.2
4429.3
4418.03
4407.06
4397.53
4388.12
4380
4371.86
4364.91
4357.86
4351.88
4345.72
4340.53
4335.16
4330.66
4325.91
4322.01
4317.84
4314.42
4310.74
4307.71
4304.48
4301.83
4298.99
4296.69
4294.24
4292.16
4289.98
4288.17
4286.23
4284.64
4282.9
4281.52
4280.04
4278.9
4277.55
4276.61
4275.44
4274.63
4273.56
4272.89
4271.97
4271.45
4270.67
4270.24
4269.58
4269.21
4268.58
4268.19
4267.58
4267.24
4266.7
4266.41
4265.93
4265.71
4265.3
4265.16
4264.88
4264.84
4264.69
4264.83
4264.82
4265.07
4265.05
4265.73
4266.92
4312.78
4424.92
39466.6
8261.7
7570.39
6999.94
6539.16
6172.03
5880.98
5648.38
5461.07
5307.78
5181.44
5075.42
4986.25
4909.78
4844.46
4787.41
4738.1
4694.33
4656.19
4621.83
4591.73
4564.24
4540.08
4517.73
4498.05
4479.62
4463.41
4448.04
4434.54
4421.56
4410.23
4399.19
4389.6
4380.13
4371.96
4363.78
4356.78
4349.69
4343.66
4337.47
4332.24
4326.84
4322.3
4317.52
4313.59
4309.4
4305.95
4302.24
4299.2
4295.94
4293.27
4290.4
4288.09
4285.62
4283.52
4281.32
4279.49
4277.54
4275.94
4274.18
4272.79
4271.29
4270.14
4268.77
4267.82
4266.64
4265.82
4264.74
4264.05
4263.13
4262.59
4261.81
4261.37
4260.7
4260.32
4259.68
4259.29
4258.67
4258.32
4257.77
4257.47
4256.99
4256.76
4256.34
4256.19
4255.9
4255.85
4255.67
4255.81
4255.78
4256.02
4255.99
4256.66
4257.9
4305.21
4417.94
37046
8261.69
7570.52
7000.01
6538.85
6171.11
5879.36
5646.05
5458.08
5304.18
5177.3
5070.79
4981.2
4904.36
4838.71
4781.36
4731.79
4687.78
4649.43
4614.88
4584.61
4556.96
4532.66
4510.18
4490.39
4471.84
4455.53
4440.07
4426.48
4413.43
4402.02
4390.91
4381.26
4371.73
4363.5
4355.27
4348.22
4341.08
4335.01
4328.77
4323.51
4318.07
4313.5
4308.69
4304.73
4300.5
4297.03
4293.3
4290.23
4286.94
4284.26
4281.36
4279.02
4276.53
4274.42
4272.2
4270.36
4268.39
4266.77
4264.99
4263.59
4262.07
4260.91
4259.52
4258.56
4257.36
4256.54
4255.44
4254.75
4253.81
4253.26
4252.46
4252.02
4251.34
4250.96
4250.3
4249.9
4249.28
4248.92
4248.36
4248.06
4247.56
4247.32
4246.9
4246.74
4246.44
4246.38
4246.18
4246.3
4246.27
4246.48
4246.44
4247.1
4248.39
4297.13
4410.49
34736.1
8261.69
7570.66
7000.08
6538.53
6170.17
5877.68
5643.62
5454.95
5300.42
5172.97
5065.96
4975.92
4898.69
4832.69
4775.02
4725.18
4680.92
4642.34
4607.59
4577.14
4549.32
4524.87
4502.25
4482.33
4463.67
4447.26
4431.69
4418.02
4404.88
4393.4
4382.21
4372.49
4362.9
4354.62
4346.32
4339.23
4332.03
4325.92
4319.64
4314.34
4308.86
4304.26
4299.41
4295.42
4291.16
4287.66
4283.89
4280.8
4277.49
4274.78
4271.86
4269.5
4266.98
4264.85
4262.61
4260.75
4258.76
4257.13
4255.33
4253.92
4252.38
4251.2
4249.8
4248.82
4247.61
4246.78
4245.67
4244.96
4244.01
4243.45
4242.64
4242.18
4241.49
4241.11
4240.45
4240.04
4239.4
4239.04
4238.47
4238.16
4237.65
4237.4
4236.97
4236.8
4236.49
4236.42
4236.2
4236.3
4236.26
4236.45
4236.39
4237.05
4238.39
4288.5
4402.53
32538.6
8261.68
7570.8
7000.16
6538.21
6169.19
5875.94
5641.1
5451.7
5296.5
5168.45
5060.91
4970.41
4892.75
4826.39
4768.39
4718.26
4673.73
4634.92
4599.96
4569.31
4541.32
4516.71
4493.95
4473.9
4455.11
4438.59
4422.91
4409.15
4395.91
4384.35
4373.09
4363.3
4353.64
4345.3
4336.94
4329.79
4322.55
4316.39
4310.06
4304.72
4299.19
4294.56
4289.67
4285.64
4281.35
4277.82
4274.02
4270.9
4267.56
4264.83
4261.88
4259.5
4256.96
4254.81
4252.54
4250.67
4248.66
4247.01
4245.2
4243.77
4242.21
4241.02
4239.6
4238.61
4237.38
4236.53
4235.41
4234.69
4233.72
4233.16
4232.33
4231.87
4231.16
4230.77
4230.1
4229.68
4229.04
4228.67
4228.08
4227.77
4227.25
4226.99
4226.54
4226.37
4226.05
4225.96
4225.72
4225.8
4225.75
4225.93
4225.86
4226.5
4227.9
4279.3
4394.02
30455.1
8261.67
7570.94
7000.25
6537.88
6168.19
5874.14
5638.49
5448.32
5292.42
5163.75
5055.65
4964.66
4886.57
4819.81
4761.47
4711.03
4666.23
4627.17
4591.98
4561.13
4532.95
4508.18
4485.26
4465.07
4446.15
4429.51
4413.73
4399.86
4386.53
4374.89
4363.54
4353.68
4343.95
4335.54
4327.12
4319.92
4312.61
4306.41
4300.03
4294.64
4289.07
4284.4
4279.47
4275.41
4271.08
4267.52
4263.69
4260.54
4257.17
4254.41
4251.44
4249.03
4246.46
4244.3
4242
4240.11
4238.08
4236.41
4234.58
4233.13
4231.55
4230.35
4228.91
4227.9
4226.66
4225.8
4224.66
4223.93
4222.95
4222.37
4221.53
4221.05
4220.34
4219.93
4219.26
4218.83
4218.18
4217.8
4217.2
4216.88
4216.35
4216.08
4215.62
4215.44
4215.11
4215
4214.75
4214.81
4214.75
4214.9
4214.81
4215.45
4216.9
4269.47
4384.93
28486.8
8261.66
7571.09
7000.34
6537.55
6167.15
5872.28
5635.79
5444.82
5288.19
5158.86
5050.18
4958.67
4880.12
4812.96
4754.25
4703.49
4658.4
4619.08
4583.65
4552.59
4524.22
4499.27
4476.18
4455.85
4436.8
4420.03
4404.13
4390.16
4376.73
4365
4353.57
4343.63
4333.81
4325.34
4316.86
4309.59
4302.23
4295.97
4289.54
4284.11
4278.49
4273.77
4268.8
4264.71
4260.34
4256.75
4252.88
4249.7
4246.3
4243.52
4240.51
4238.08
4235.48
4233.3
4230.98
4229.07
4227.01
4225.33
4223.47
4222.01
4220.41
4219.19
4217.73
4216.71
4215.44
4214.57
4213.42
4212.68
4211.68
4211.09
4210.23
4209.74
4209.02
4208.6
4207.91
4207.48
4206.82
4206.43
4205.82
4205.48
4204.94
4204.67
4204.2
4204
4203.66
4203.54
4203.27
4203.31
4203.24
4203.37
4203.26
4203.88
4205.39
4259
4375.21
26635.1
8261.65
7571.24
7000.44
6537.21
6166.1
5870.37
5633
5441.2
5283.8
5153.79
5044.5
4952.45
4873.42
4805.84
4746.75
4695.64
4650.24
4610.66
4574.98
4543.7
4515.12
4489.98
4466.73
4446.24
4427.04
4410.15
4394.12
4380.04
4366.51
4354.68
4343.15
4333.13
4323.24
4314.7
4306.14
4298.82
4291.39
4285.08
4278.59
4273.11
4267.44
4262.69
4257.67
4253.53
4249.12
4245.5
4241.6
4238.39
4234.95
4232.14
4229.1
4226.64
4224.02
4221.81
4219.46
4217.54
4215.45
4213.75
4211.87
4210.39
4208.76
4207.53
4206.05
4205.02
4203.73
4202.85
4201.68
4200.92
4199.9
4199.3
4198.43
4197.93
4197.19
4196.77
4196.06
4195.63
4194.95
4194.55
4193.93
4193.58
4193.03
4192.74
4192.26
4192.05
4191.69
4191.57
4191.28
4191.3
4191.21
4191.32
4191.19
4191.81
4193.37
4247.91
4364.82
24901
8261.64
7571.4
7000.54
6536.88
6165.02
5868.4
5630.12
5437.46
5279.26
5148.54
5038.61
4946
4866.46
4798.44
4738.95
4687.49
4641.77
4601.89
4565.95
4534.44
4505.64
4480.32
4456.88
4436.23
4416.88
4399.85
4383.7
4369.51
4355.86
4343.93
4332.31
4322.2
4312.23
4303.61
4294.98
4287.59
4280.1
4273.73
4267.18
4261.65
4255.93
4251.13
4246.06
4241.89
4237.43
4233.77
4229.83
4226.59
4223.12
4220.28
4217.21
4214.72
4212.06
4209.84
4207.46
4205.51
4203.39
4201.68
4199.77
4198.28
4196.62
4195.38
4193.87
4192.82
4191.51
4190.62
4189.43
4188.66
4187.62
4187.01
4186.12
4185.61
4184.85
4184.42
4183.71
4183.26
4182.57
4182.16
4181.53
4181.17
4180.6
4180.31
4179.81
4179.59
4179.22
4179.08
4178.77
4178.78
4178.67
4178.75
4178.61
4179.21
4180.83
4236.18
4353.74
23285.3
8261.63
7571.56
7000.65
6536.54
6163.91
5866.39
5627.16
5433.6
5274.58
5143.11
5032.52
4939.32
4859.26
4790.76
4730.85
4679.03
4632.97
4592.79
4556.58
4524.82
4495.8
4470.27
4446.64
4425.83
4406.32
4389.15
4372.85
4358.54
4344.78
4332.75
4321.02
4310.83
4300.76
4292.07
4283.36
4275.9
4268.34
4261.91
4255.3
4249.72
4243.94
4239.09
4233.98
4229.76
4225.26
4221.56
4217.58
4214.31
4210.8
4207.92
4204.82
4202.31
4199.62
4197.36
4194.95
4192.98
4190.84
4189.11
4187.18
4185.66
4183.98
4182.72
4181.19
4180.12
4178.79
4177.88
4176.67
4175.89
4174.83
4174.2
4173.3
4172.77
4172
4171.56
4170.83
4170.38
4169.67
4169.25
4168.61
4168.24
4167.66
4167.35
4166.84
4166.61
4166.22
4166.07
4165.75
4165.73
4165.61
4165.67
4165.49
4166.09
4167.76
4223.81
4341.91
21784
8261.61
7571.72
7000.77
6536.2
6162.79
5864.32
5624.12
5429.63
5269.75
5137.51
5026.22
4932.41
4851.8
4782.82
4722.47
4670.26
4623.84
4583.36
4546.86
4514.84
4485.58
4459.85
4436.02
4415.03
4395.35
4378.03
4361.59
4347.16
4333.27
4321.13
4309.3
4299.01
4288.85
4280.07
4271.28
4263.75
4256.12
4249.63
4242.95
4237.31
4231.48
4226.58
4221.42
4217.15
4212.61
4208.87
4204.85
4201.54
4197.99
4195.08
4191.94
4189.39
4186.67
4184.39
4181.95
4179.96
4177.78
4176.03
4174.07
4172.54
4170.83
4169.55
4168
4166.91
4165.56
4164.63
4163.4
4162.6
4161.53
4160.88
4159.96
4159.42
4158.63
4158.18
4157.44
4156.98
4156.26
4155.83
4155.17
4154.79
4154.19
4153.87
4153.35
4153.11
4152.7
4152.54
4152.2
4152.16
4152.02
4152.06
4151.85
4152.44
4154.16
4210.81
4329.32
20392.3
8261.59
7571.89
7000.89
6535.86
6161.65
5862.21
5621
5425.55
5264.78
5131.74
5019.73
4925.27
4844.09
4774.6
4713.8
4661.18
4614.4
4573.59
4536.78
4504.5
4475
4449.04
4425
4403.83
4383.97
4366.5
4349.91
4335.34
4321.33
4309.07
4297.13
4286.74
4276.49
4267.62
4258.75
4251.14
4243.43
4236.87
4230.13
4224.44
4218.54
4213.59
4208.37
4204.06
4199.46
4195.68
4191.62
4188.27
4184.68
4181.74
4178.56
4175.98
4173.22
4170.92
4168.44
4166.42
4164.22
4162.45
4160.46
4158.9
4157.17
4155.87
4154.29
4153.18
4151.81
4150.86
4149.61
4148.8
4147.7
4147.04
4146.1
4145.55
4144.74
4144.28
4143.52
4143.05
4142.32
4141.88
4141.2
4140.81
4140.2
4139.87
4139.33
4139.07
4138.65
4138.47
4138.12
4138.06
4137.91
4137.91
4137.68
4138.26
4140.02
4197.16
4315.91
19105.3
8261.58
7572.06
7001.03
6535.53
6160.5
5860.07
5617.82
5421.36
5259.67
5125.79
5013.03
4917.92
4836.13
4766.12
4704.84
4651.8
4604.64
4563.48
4526.37
4493.81
4464.04
4437.85
4413.6
4392.23
4372.19
4354.56
4337.81
4323.1
4308.95
4296.58
4284.52
4274.03
4263.67
4254.72
4245.75
4238.07
4230.28
4223.65
4216.84
4211.08
4205.12
4200.11
4194.84
4190.48
4185.83
4182.01
4177.89
4174.51
4170.87
4167.9
4164.68
4162.07
4159.27
4156.94
4154.43
4152.38
4150.15
4148.35
4146.33
4144.76
4142.99
4141.67
4140.07
4138.94
4137.54
4136.58
4135.31
4134.48
4133.36
4132.68
4131.72
4131.15
4130.33
4129.85
4129.08
4128.6
4127.85
4127.4
4126.7
4126.3
4125.67
4125.33
4124.77
4124.5
4124.06
4123.88
4123.51
4123.43
4123.26
4123.24
4122.97
4123.54
4125.34
4182.88
4301.66
17917.7
8261.56
7572.23
7001.17
6535.2
6159.33
5857.88
5614.56
5417.08
5254.42
5119.69
5006.15
4910.34
4827.94
4757.38
4695.6
4642.12
4594.55
4553.05
4515.6
4482.75
4452.71
4426.28
4401.8
4380.23
4360
4342.2
4325.29
4310.44
4296.14
4283.65
4271.46
4260.87
4250.4
4241.35
4232.29
4224.53
4216.65
4209.95
4203.07
4197.25
4191.22
4186.16
4180.82
4176.41
4171.71
4167.84
4163.67
4160.25
4156.57
4153.55
4150.29
4147.65
4144.81
4142.45
4139.9
4137.83
4135.56
4133.74
4131.69
4130.09
4128.3
4126.95
4125.32
4124.18
4122.75
4121.77
4120.48
4119.63
4118.49
4117.79
4116.81
4116.22
4115.39
4114.89
4114.11
4113.61
4112.85
4112.38
4111.67
4111.26
4110.61
4110.26
4109.69
4109.4
4108.94
4108.74
4108.36
4108.26
4108.07
4108.02
4107.72
4108.28
4110.12
4167.95
4286.54
16824.2
8261.54
7572.4
7001.31
6534.87
6158.15
5855.65
5611.23
5412.69
5249.05
5113.42
4999.07
4902.55
4819.5
4748.37
4686.08
4632.14
4584.15
4542.28
4504.49
4471.33
4441.01
4414.33
4389.62
4367.84
4347.41
4329.42
4312.34
4297.34
4282.9
4270.27
4257.96
4247.25
4236.67
4227.53
4218.37
4210.52
4202.56
4195.78
4188.82
4182.93
4176.83
4171.71
4166.31
4161.85
4157.09
4153.17
4148.96
4145.49
4141.76
4138.71
4135.4
4132.72
4129.84
4127.45
4124.87
4122.77
4120.46
4118.62
4116.54
4114.91
4113.08
4111.72
4110.06
4108.89
4107.43
4106.43
4105.12
4104.25
4103.09
4102.37
4101.37
4100.77
4099.91
4099.4
4098.6
4098.09
4097.31
4096.84
4096.11
4095.68
4095.02
4094.65
4094.06
4093.76
4093.28
4093.07
4092.67
4092.55
4092.34
4092.27
4091.92
4092.48
4094.34
4152.39
4270.51
15819
8261.51
7572.58
7001.47
6534.55
6156.97
5853.4
5607.85
5408.21
5243.55
5106.99
4991.81
4894.54
4810.83
4739.1
4676.28
4621.86
4573.44
4531.18
4493.04
4459.56
4428.95
4402
4377.04
4355.05
4334.41
4316.24
4298.98
4283.82
4269.22
4256.46
4244.02
4233.19
4222.49
4213.25
4203.99
4196.04
4187.99
4181.14
4174.09
4168.13
4161.96
4156.78
4151.31
4146.79
4141.98
4138.01
4133.74
4130.23
4126.45
4123.36
4120.01
4117.29
4114.36
4111.94
4109.32
4107.19
4104.84
4102.97
4100.86
4099.21
4097.34
4095.96
4094.27
4093.08
4091.59
4090.57
4089.23
4088.35
4087.16
4086.42
4085.4
4084.78
4083.9
4083.38
4082.56
4082.04
4081.24
4080.75
4080.01
4079.57
4078.88
4078.5
4077.89
4077.58
4077.08
4076.85
4076.43
4076.29
4076.07
4075.97
4075.58
4076.13
4078.01
4136.18
4253.55
14896.2
8261.49
7572.76
7001.63
6534.23
6155.77
5851.12
5604.41
5403.64
5237.93
5100.42
4984.37
4886.33
4801.92
4729.58
4666.2
4611.29
4562.42
4519.76
4481.24
4447.44
4416.52
4389.3
4364.08
4341.86
4321
4302.64
4285.19
4269.87
4255.11
4242.21
4229.63
4218.68
4207.86
4198.51
4189.14
4181.1
4172.95
4166.02
4158.89
4152.85
4146.6
4141.36
4135.83
4131.25
4126.37
4122.35
4118.02
4114.46
4110.63
4107.5