/*--------------------------------*- C++ -*----------------------------------*\
| =========                 |                                                 |
| \\      /  F ield         | OpenFOAM: The Open Source CFD Toolbox           |
|  \\    /   O peration     | Version:  v2012                                 |
|   \\  /    A nd           | Website:  www.openfoam.com                      |
|    \\/     M anipulation  |                                                 |
\*---------------------------------------------------------------------------*/
FoamFile
{
    version     2.0;
    format      ascii;
    class       volVectorField;
    location    "46";
    object      wallShearStress;
}
// * * * * * * * * * * * * * * * * * * * * * * * * * * * * * * * * * * * * * //

dimensions      [0 2 -2 0 0 0 0];


internalField   uniform (0 0 0);

boundaryField
{
    inlet
    {
        type            calculated;
        value           uniform (0 0 0);
    }
    outlet
    {
        type            calculated;
        value           uniform (0 0 0);
    }
    topWall
    {
        type            calculated;
        value           nonuniform List<vector> 
545
(
(3.67467e-08 -2.58665e-08 0)
(3.67354e-08 -7.23587e-08 0)
(3.67153e-08 -1.20705e-07 0)
(3.66868e-08 -1.67653e-07 0)
(3.6651e-08 -2.12602e-07 0)
(3.66086e-08 -2.56131e-07 0)
(3.65603e-08 -2.9861e-07 0)
(3.65063e-08 -3.40018e-07 0)
(3.64472e-08 -3.80265e-07 0)
(3.63835e-08 -4.1935e-07 0)
(3.63156e-08 -4.57325e-07 0)
(3.62439e-08 -4.94234e-07 0)
(3.61687e-08 -5.30101e-07 0)
(3.60905e-08 -5.64948e-07 0)
(3.60095e-08 -5.988e-07 0)
(3.59261e-08 -6.31683e-07 0)
(3.58406e-08 -6.63624e-07 0)
(3.57532e-08 -6.94648e-07 0)
(3.56643e-08 -7.24779e-07 0)
(3.55739e-08 -7.54042e-07 0)
(3.54825e-08 -7.8246e-07 0)
(3.53902e-08 -8.10057e-07 0)
(3.52971e-08 -8.36856e-07 0)
(3.52035e-08 -8.6288e-07 0)
(3.51095e-08 -8.8815e-07 0)
(3.50153e-08 -9.12687e-07 0)
(3.49211e-08 -9.36513e-07 0)
(3.48269e-08 -9.59649e-07 0)
(3.47329e-08 -9.82113e-07 0)
(3.46392e-08 -1.00393e-06 0)
(3.4546e-08 -1.02511e-06 0)
(3.44533e-08 -1.04567e-06 0)
(3.43612e-08 -1.06564e-06 0)
(3.42697e-08 -1.08504e-06 0)
(3.41791e-08 -1.10387e-06 0)
(3.40893e-08 -1.12215e-06 0)
(3.40003e-08 -1.13991e-06 0)
(3.39124e-08 -1.15715e-06 0)
(3.38254e-08 -1.1739e-06 0)
(3.37395e-08 -1.19016e-06 0)
(3.36546e-08 -1.20596e-06 0)
(3.35709e-08 -1.2213e-06 0)
(3.34883e-08 -1.23619e-06 0)
(3.3407e-08 -1.25066e-06 0)
(3.33268e-08 -1.26472e-06 0)
(3.32478e-08 -1.27837e-06 0)
(3.31701e-08 -1.29163e-06 0)
(3.30937e-08 -1.30451e-06 0)
(3.30185e-08 -1.31702e-06 0)
(3.29446e-08 -1.32917e-06 0)
(3.28719e-08 -1.34098e-06 0)
(3.28006e-08 -1.35245e-06 0)
(3.27305e-08 -1.36359e-06 0)
(3.26617e-08 -1.37442e-06 0)
(3.25942e-08 -1.38494e-06 0)
(3.25279e-08 -1.39516e-06 0)
(3.2463e-08 -1.40509e-06 0)
(3.23993e-08 -1.41475e-06 0)
(3.23368e-08 -1.42412e-06 0)
(3.22756e-08 -1.43324e-06 0)
(3.22156e-08 -1.44209e-06 0)
(3.21568e-08 -1.4507e-06 0)
(3.20993e-08 -1.45907e-06 0)
(3.20429e-08 -1.4672e-06 0)
(3.19877e-08 -1.4751e-06 0)
(3.19337e-08 -1.48278e-06 0)
(3.18809e-08 -1.49024e-06 0)
(3.18292e-08 -1.4975e-06 0)
(3.17786e-08 -1.50455e-06 0)
(3.17291e-08 -1.51141e-06 0)
(3.16806e-08 -1.51808e-06 0)
(3.16336e-08 -1.52455e-06 0)
(3.15878e-08 -1.53078e-06 0)
(3.15428e-08 -1.53682e-06 0)
(3.14982e-08 -1.5428e-06 0)
(3.14537e-08 -1.54875e-06 0)
(3.14093e-08 -1.55467e-06 0)
(3.13649e-08 -1.56056e-06 0)
(3.13206e-08 -1.56641e-06 0)
(3.12763e-08 -1.57223e-06 0)
(3.1232e-08 -1.57801e-06 0)
(3.11878e-08 -1.58376e-06 0)
(3.11436e-08 -1.58947e-06 0)
(3.10995e-08 -1.59515e-06 0)
(3.10554e-08 -1.60079e-06 0)
(3.10114e-08 -1.6064e-06 0)
(3.09674e-08 -1.61198e-06 0)
(3.09235e-08 -1.61752e-06 0)
(3.08796e-08 -1.62303e-06 0)
(3.08358e-08 -1.62851e-06 0)
(3.07921e-08 -1.63396e-06 0)
(3.07484e-08 -1.63937e-06 0)
(3.07047e-08 -1.64475e-06 0)
(3.06612e-08 -1.65009e-06 0)
(3.06173e-08 -1.65542e-06 0)
(3.05756e-08 -1.66065e-06 0)
(3.0537e-08 -1.66545e-06 0)
(3.04998e-08 -1.6698e-06 0)
(3.04638e-08 -1.67403e-06 0)
(3.04279e-08 -1.67828e-06 0)
(3.0392e-08 -1.68257e-06 0)
(3.03559e-08 -1.68687e-06 0)
(3.03196e-08 -1.69117e-06 0)
(3.02832e-08 -1.69547e-06 0)
(3.02466e-08 -1.69977e-06 0)
(3.02098e-08 -1.70409e-06 0)
(3.01728e-08 -1.7084e-06 0)
(3.01357e-08 -1.71272e-06 0)
(3.00984e-08 -1.71705e-06 0)
(3.00609e-08 -1.72138e-06 0)
(3.00232e-08 -1.72572e-06 0)
(2.99854e-08 -1.73006e-06 0)
(2.99473e-08 -1.7344e-06 0)
(2.99091e-08 -1.73875e-06 0)
(2.98708e-08 -1.7431e-06 0)
(2.98322e-08 -1.74746e-06 0)
(2.97935e-08 -1.75183e-06 0)
(2.97545e-08 -1.7562e-06 0)
(2.97154e-08 -1.76057e-06 0)
(2.96761e-08 -1.76495e-06 0)
(2.96366e-08 -1.76933e-06 0)
(2.9597e-08 -1.77371e-06 0)
(2.95571e-08 -1.77811e-06 0)
(2.95171e-08 -1.7825e-06 0)
(2.94769e-08 -1.7869e-06 0)
(2.94365e-08 -1.7913e-06 0)
(2.93959e-08 -1.79571e-06 0)
(2.93552e-08 -1.80013e-06 0)
(2.93142e-08 -1.80454e-06 0)
(2.92731e-08 -1.80896e-06 0)
(2.92317e-08 -1.81339e-06 0)
(2.91902e-08 -1.81782e-06 0)
(2.91485e-08 -1.82225e-06 0)
(2.91066e-08 -1.82669e-06 0)
(2.90645e-08 -1.83113e-06 0)
(2.90222e-08 -1.83558e-06 0)
(2.89797e-08 -1.84003e-06 0)
(2.89371e-08 -1.84448e-06 0)
(2.88942e-08 -1.84894e-06 0)
(2.88512e-08 -1.8534e-06 0)
(2.88079e-08 -1.85786e-06 0)
(2.87645e-08 -1.86233e-06 0)
(2.87208e-08 -1.86681e-06 0)
(2.8677e-08 -1.87128e-06 0)
(2.8633e-08 -1.87576e-06 0)
(2.85888e-08 -1.88025e-06 0)
(2.85444e-08 -1.88474e-06 0)
(2.84998e-08 -1.88923e-06 0)
(2.8455e-08 -1.89372e-06 0)
(2.841e-08 -1.89822e-06 0)
(2.83648e-08 -1.90272e-06 0)
(2.83194e-08 -1.90723e-06 0)
(2.82738e-08 -1.91173e-06 0)
(2.8228e-08 -1.91625e-06 0)
(2.8182e-08 -1.92076e-06 0)
(2.81358e-08 -1.92528e-06 0)
(2.80894e-08 -1.9298e-06 0)
(2.80428e-08 -1.93433e-06 0)
(2.7996e-08 -1.93885e-06 0)
(2.7949e-08 -1.94338e-06 0)
(2.79018e-08 -1.94792e-06 0)
(2.78544e-08 -1.95245e-06 0)
(2.78068e-08 -1.95699e-06 0)
(2.7759e-08 -1.96154e-06 0)
(2.7711e-08 -1.96608e-06 0)
(2.76628e-08 -1.97063e-06 0)
(2.76144e-08 -1.97518e-06 0)
(2.75657e-08 -1.97974e-06 0)
(2.75169e-08 -1.98429e-06 0)
(2.74679e-08 -1.98885e-06 0)
(2.74187e-08 -1.99341e-06 0)
(2.73692e-08 -1.99798e-06 0)
(2.73196e-08 -2.00255e-06 0)
(2.72697e-08 -2.00712e-06 0)
(2.72197e-08 -2.01169e-06 0)
(2.71694e-08 -2.01626e-06 0)
(2.71189e-08 -2.02084e-06 0)
(2.70682e-08 -2.02542e-06 0)
(2.70174e-08 -2.03e-06 0)
(2.69663e-08 -2.03458e-06 0)
(2.6915e-08 -2.03916e-06 0)
(2.68635e-08 -2.04375e-06 0)
(2.68117e-08 -2.04834e-06 0)
(2.67598e-08 -2.05293e-06 0)
(2.67077e-08 -2.05752e-06 0)
(2.66553e-08 -2.06212e-06 0)
(2.66028e-08 -2.06672e-06 0)
(2.655e-08 -2.07131e-06 0)
(2.64971e-08 -2.07591e-06 0)
(2.64439e-08 -2.08052e-06 0)
(2.63905e-08 -2.08512e-06 0)
(2.63369e-08 -2.08972e-06 0)
(2.62831e-08 -2.09433e-06 0)
(2.62291e-08 -2.09894e-06 0)
(2.61748e-08 -2.10355e-06 0)
(2.61204e-08 -2.10816e-06 0)
(2.60657e-08 -2.11277e-06 0)
(2.60109e-08 -2.11738e-06 0)
(2.59558e-08 -2.12199e-06 0)
(2.59005e-08 -2.12661e-06 0)
(2.5845e-08 -2.13122e-06 0)
(2.57893e-08 -2.13584e-06 0)
(2.57334e-08 -2.14046e-06 0)
(2.56773e-08 -2.14508e-06 0)
(2.56209e-08 -2.1497e-06 0)
(2.55644e-08 -2.15431e-06 0)
(2.55076e-08 -2.15894e-06 0)
(2.54506e-08 -2.16356e-06 0)
(2.53934e-08 -2.16818e-06 0)
(2.5336e-08 -2.1728e-06 0)
(2.52784e-08 -2.17742e-06 0)
(2.52206e-08 -2.18204e-06 0)
(2.51626e-08 -2.18667e-06 0)
(2.51043e-08 -2.19129e-06 0)
(2.50459e-08 -2.19591e-06 0)
(2.49872e-08 -2.20054e-06 0)
(2.49283e-08 -2.20516e-06 0)
(2.48692e-08 -2.20978e-06 0)
(2.48099e-08 -2.21441e-06 0)
(2.47504e-08 -2.21903e-06 0)
(2.46907e-08 -2.22365e-06 0)
(2.46308e-08 -2.22828e-06 0)
(2.45706e-08 -2.2329e-06 0)
(2.45103e-08 -2.23752e-06 0)
(2.44497e-08 -2.24214e-06 0)
(2.4389e-08 -2.24676e-06 0)
(2.4328e-08 -2.25138e-06 0)
(2.42668e-08 -2.256e-06 0)
(2.42054e-08 -2.26062e-06 0)
(2.41438e-08 -2.26524e-06 0)
(2.4082e-08 -2.26985e-06 0)
(2.40199e-08 -2.27447e-06 0)
(2.39577e-08 -2.27908e-06 0)
(2.38953e-08 -2.2837e-06 0)
(2.38326e-08 -2.28831e-06 0)
(2.37698e-08 -2.29292e-06 0)
(2.37067e-08 -2.29753e-06 0)
(2.36434e-08 -2.30214e-06 0)
(2.358e-08 -2.30674e-06 0)
(2.35163e-08 -2.31135e-06 0)
(2.34524e-08 -2.31595e-06 0)
(2.33883e-08 -2.32055e-06 0)
(2.3324e-08 -2.32515e-06 0)
(2.32595e-08 -2.32975e-06 0)
(2.31948e-08 -2.33435e-06 0)
(2.31299e-08 -2.33894e-06 0)
(2.30648e-08 -2.34353e-06 0)
(2.29995e-08 -2.34812e-06 0)
(2.2934e-08 -2.35271e-06 0)
(2.28682e-08 -2.3573e-06 0)
(2.28023e-08 -2.36188e-06 0)
(2.27362e-08 -2.36646e-06 0)
(2.26699e-08 -2.37104e-06 0)
(2.26034e-08 -2.37561e-06 0)
(2.25367e-08 -2.38018e-06 0)
(2.24698e-08 -2.38475e-06 0)
(2.24027e-08 -2.38932e-06 0)
(2.23354e-08 -2.39388e-06 0)
(2.22678e-08 -2.39844e-06 0)
(2.22002e-08 -2.403e-06 0)
(2.21323e-08 -2.40756e-06 0)
(2.20642e-08 -2.41211e-06 0)
(2.19959e-08 -2.41666e-06 0)
(2.19274e-08 -2.4212e-06 0)
(2.18588e-08 -2.42574e-06 0)
(2.17899e-08 -2.43028e-06 0)
(2.17209e-08 -2.43481e-06 0)
(2.16514e-08 -2.43934e-06 0)
(2.15836e-08 -2.44385e-06 0)
(2.15185e-08 -2.44813e-06 0)
(2.14543e-08 -2.4522e-06 0)
(2.1391e-08 -2.45624e-06 0)
(2.13272e-08 -2.46032e-06 0)
(2.12628e-08 -2.46445e-06 0)
(2.11978e-08 -2.46862e-06 0)
(2.11319e-08 -2.47281e-06 0)
(2.10654e-08 -2.47704e-06 0)
(2.09981e-08 -2.4813e-06 0)
(2.09301e-08 -2.48559e-06 0)
(2.08614e-08 -2.48991e-06 0)
(2.07919e-08 -2.49426e-06 0)
(2.07216e-08 -2.49865e-06 0)
(2.06505e-08 -2.50307e-06 0)
(2.05787e-08 -2.50752e-06 0)
(2.05061e-08 -2.51201e-06 0)
(2.04326e-08 -2.51653e-06 0)
(2.03584e-08 -2.52108e-06 0)
(2.02834e-08 -2.52566e-06 0)
(2.02076e-08 -2.53028e-06 0)
(2.01309e-08 -2.53492e-06 0)
(2.00534e-08 -2.53961e-06 0)
(1.99751e-08 -2.54432e-06 0)
(1.98959e-08 -2.54906e-06 0)
(1.98159e-08 -2.55384e-06 0)
(1.97351e-08 -2.55865e-06 0)
(1.96533e-08 -2.5635e-06 0)
(1.95707e-08 -2.56837e-06 0)
(1.94873e-08 -2.57328e-06 0)
(1.94029e-08 -2.57822e-06 0)
(1.93176e-08 -2.58319e-06 0)
(1.92315e-08 -2.58819e-06 0)
(1.91444e-08 -2.59323e-06 0)
(1.90565e-08 -2.59829e-06 0)
(1.89676e-08 -2.60339e-06 0)
(1.88778e-08 -2.60852e-06 0)
(1.87871e-08 -2.61368e-06 0)
(1.86954e-08 -2.61887e-06 0)
(1.86028e-08 -2.62409e-06 0)
(1.85093e-08 -2.62934e-06 0)
(1.84147e-08 -2.63462e-06 0)
(1.83193e-08 -2.63993e-06 0)
(1.82228e-08 -2.64527e-06 0)
(1.81254e-08 -2.65064e-06 0)
(1.80271e-08 -2.65604e-06 0)
(1.79277e-08 -2.66147e-06 0)
(1.78274e-08 -2.66693e-06 0)
(1.7726e-08 -2.67241e-06 0)
(1.76237e-08 -2.67792e-06 0)
(1.75204e-08 -2.68346e-06 0)
(1.7416e-08 -2.68903e-06 0)
(1.73107e-08 -2.69462e-06 0)
(1.72043e-08 -2.70024e-06 0)
(1.70969e-08 -2.70589e-06 0)
(1.69885e-08 -2.71156e-06 0)
(1.68791e-08 -2.71726e-06 0)
(1.67687e-08 -2.72298e-06 0)
(1.66572e-08 -2.72872e-06 0)
(1.65447e-08 -2.73449e-06 0)
(1.64312e-08 -2.74028e-06 0)
(1.63166e-08 -2.74609e-06 0)
(1.6201e-08 -2.75193e-06 0)
(1.60843e-08 -2.75779e-06 0)
(1.59666e-08 -2.76366e-06 0)
(1.58479e-08 -2.76956e-06 0)
(1.57281e-08 -2.77548e-06 0)
(1.56073e-08 -2.78141e-06 0)
(1.54855e-08 -2.78737e-06 0)
(1.53626e-08 -2.79334e-06 0)
(1.52387e-08 -2.79932e-06 0)
(1.51137e-08 -2.80533e-06 0)
(1.49877e-08 -2.81134e-06 0)
(1.48607e-08 -2.81738e-06 0)
(1.47326e-08 -2.82342e-06 0)
(1.46035e-08 -2.82948e-06 0)
(1.44734e-08 -2.83555e-06 0)
(1.43423e-08 -2.84163e-06 0)
(1.42102e-08 -2.84772e-06 0)
(1.4077e-08 -2.85382e-06 0)
(1.39429e-08 -2.85992e-06 0)
(1.38077e-08 -2.86604e-06 0)
(1.36716e-08 -2.87216e-06 0)
(1.35345e-08 -2.87828e-06 0)
(1.33964e-08 -2.88441e-06 0)
(1.32574e-08 -2.89054e-06 0)
(1.31174e-08 -2.89668e-06 0)
(1.29765e-08 -2.90281e-06 0)
(1.28346e-08 -2.90894e-06 0)
(1.26918e-08 -2.91507e-06 0)
(1.25481e-08 -2.9212e-06 0)
(1.24035e-08 -2.92733e-06 0)
(1.2258e-08 -2.93345e-06 0)
(1.21117e-08 -2.93956e-06 0)
(1.19645e-08 -2.94566e-06 0)
(1.18165e-08 -2.95175e-06 0)
(1.16676e-08 -2.95784e-06 0)
(1.15179e-08 -2.96391e-06 0)
(1.13675e-08 -2.96997e-06 0)
(1.12163e-08 -2.97601e-06 0)
(1.10643e-08 -2.98203e-06 0)
(1.09116e-08 -2.98804e-06 0)
(1.07582e-08 -2.99403e-06 0)
(1.06041e-08 -3e-06 0)
(1.04494e-08 -3.00594e-06 0)
(1.0294e-08 -3.01186e-06 0)
(1.0138e-08 -3.01776e-06 0)
(9.98144e-09 -3.02363e-06 0)
(9.82429e-09 -3.02947e-06 0)
(9.66661e-09 -3.03528e-06 0)
(9.50842e-09 -3.04105e-06 0)
(9.34975e-09 -3.0468e-06 0)
(9.19064e-09 -3.0525e-06 0)
(9.0311e-09 -3.05817e-06 0)
(8.87117e-09 -3.0638e-06 0)
(8.71089e-09 -3.06939e-06 0)
(8.55029e-09 -3.07494e-06 0)
(8.3894e-09 -3.08044e-06 0)
(8.22825e-09 -3.0859e-06 0)
(8.06689e-09 -3.09131e-06 0)
(7.90534e-09 -3.09667e-06 0)
(7.74365e-09 -3.10197e-06 0)
(7.58185e-09 -3.10723e-06 0)
(7.41999e-09 -3.11243e-06 0)
(7.25809e-09 -3.11757e-06 0)
(7.09621e-09 -3.12265e-06 0)
(6.93438e-09 -3.12767e-06 0)
(6.77264e-09 -3.13263e-06 0)
(6.61104e-09 -3.13752e-06 0)
(6.44962e-09 -3.14235e-06 0)
(6.28843e-09 -3.14711e-06 0)
(6.1275e-09 -3.1518e-06 0)
(5.96689e-09 -3.15642e-06 0)
(5.80663e-09 -3.16096e-06 0)
(5.64679e-09 -3.16543e-06 0)
(5.48739e-09 -3.16982e-06 0)
(5.32849e-09 -3.17413e-06 0)
(5.17014e-09 -3.17835e-06 0)
(5.01239e-09 -3.1825e-06 0)
(4.85528e-09 -3.18656e-06 0)
(4.69886e-09 -3.19053e-06 0)
(4.54318e-09 -3.19442e-06 0)
(4.3883e-09 -3.19821e-06 0)
(4.23425e-09 -3.20192e-06 0)
(4.0811e-09 -3.20553e-06 0)
(3.92889e-09 -3.20904e-06 0)
(3.77767e-09 -3.21246e-06 0)
(3.62749e-09 -3.21578e-06 0)
(3.47841e-09 -3.219e-06 0)
(3.33046e-09 -3.22211e-06 0)
(3.18371e-09 -3.22513e-06 0)
(3.0382e-09 -3.22804e-06 0)
(2.89398e-09 -3.23084e-06 0)
(2.7511e-09 -3.23354e-06 0)
(2.60962e-09 -3.23612e-06 0)
(2.46957e-09 -3.2386e-06 0)
(2.33101e-09 -3.24097e-06 0)
(2.19399e-09 -3.24322e-06 0)
(2.05855e-09 -3.24536e-06 0)
(1.92473e-09 -3.24739e-06 0)
(1.7926e-09 -3.2493e-06 0)
(1.66218e-09 -3.25109e-06 0)
(1.53353e-09 -3.25276e-06 0)
(1.40669e-09 -3.25432e-06 0)
(1.28169e-09 -3.25576e-06 0)
(1.1586e-09 -3.25708e-06 0)
(1.03743e-09 -3.25827e-06 0)
(9.18243e-10 -3.25935e-06 0)
(8.01067e-10 -3.2603e-06 0)
(6.85942e-10 -3.26114e-06 0)
(5.72904e-10 -3.26185e-06 0)
(4.6199e-10 -3.26243e-06 0)
(3.53234e-10 -3.2629e-06 0)
(2.46669e-10 -3.26324e-06 0)
(1.42327e-10 -3.26345e-06 0)
(4.0239e-11 -3.26355e-06 0)
(-5.95619e-11 -3.26352e-06 0)
(-1.57065e-10 -3.26336e-06 0)
(-2.5217e-10 -3.26309e-06 0)
(-3.45165e-10 -3.26269e-06 0)
(-4.34768e-10 -3.26217e-06 0)
(-5.26561e-10 -3.26152e-06 0)
(-6.22739e-10 -3.26067e-06 0)
(-7.19009e-10 -3.25957e-06 0)
(-8.13667e-10 -3.25831e-06 0)
(-9.04081e-10 -3.25689e-06 0)
(-9.90079e-10 -3.25534e-06 0)
(-1.0717e-09 -3.25365e-06 0)
(-1.14902e-09 -3.25184e-06 0)
(-1.22216e-09 -3.2499e-06 0)
(-1.29123e-09 -3.24784e-06 0)
(-1.35636e-09 -3.24568e-06 0)
(-1.41769e-09 -3.24342e-06 0)
(-1.47531e-09 -3.24106e-06 0)
(-1.52935e-09 -3.23861e-06 0)
(-1.57993e-09 -3.23608e-06 0)
(-1.62714e-09 -3.23346e-06 0)
(-1.6711e-09 -3.23078e-06 0)
(-1.71191e-09 -3.22802e-06 0)
(-1.74966e-09 -3.22521e-06 0)
(-1.78446e-09 -3.22233e-06 0)
(-1.8164e-09 -3.2194e-06 0)
(-1.84556e-09 -3.21642e-06 0)
(-1.87205e-09 -3.2134e-06 0)
(-1.89593e-09 -3.21033e-06 0)
(-1.91729e-09 -3.20723e-06 0)
(-1.93622e-09 -3.2041e-06 0)
(-1.95278e-09 -3.20094e-06 0)
(-1.96706e-09 -3.19775e-06 0)
(-1.97912e-09 -3.19454e-06 0)
(-1.98902e-09 -3.19132e-06 0)
(-1.99685e-09 -3.18808e-06 0)
(-2.00265e-09 -3.18483e-06 0)
(-2.0065e-09 -3.18157e-06 0)
(-2.00845e-09 -3.17831e-06 0)
(-2.00856e-09 -3.17505e-06 0)
(-2.00687e-09 -3.17178e-06 0)
(-2.00346e-09 -3.16853e-06 0)
(-1.99836e-09 -3.16528e-06 0)
(-1.99163e-09 -3.16203e-06 0)
(-1.98331e-09 -3.15881e-06 0)
(-1.97345e-09 -3.15559e-06 0)
(-1.96209e-09 -3.1524e-06 0)
(-1.94928e-09 -3.14922e-06 0)
(-1.93506e-09 -3.14606e-06 0)
(-1.91946e-09 -3.14293e-06 0)
(-1.90253e-09 -3.13983e-06 0)
(-1.8843e-09 -3.13675e-06 0)
(-1.86481e-09 -3.13371e-06 0)
(-1.8441e-09 -3.1307e-06 0)
(-1.82218e-09 -3.12772e-06 0)
(-1.79911e-09 -3.12478e-06 0)
(-1.77491e-09 -3.12187e-06 0)
(-1.74962e-09 -3.11901e-06 0)
(-1.72325e-09 -3.11619e-06 0)
(-1.69585e-09 -3.11341e-06 0)
(-1.66743e-09 -3.11068e-06 0)
(-1.63804e-09 -3.108e-06 0)
(-1.60769e-09 -3.10536e-06 0)
(-1.57641e-09 -3.10277e-06 0)
(-1.54423e-09 -3.10024e-06 0)
(-1.51118e-09 -3.09776e-06 0)
(-1.47727e-09 -3.09533e-06 0)
(-1.44255e-09 -3.09295e-06 0)
(-1.40702e-09 -3.09064e-06 0)
(-1.37071e-09 -3.08838e-06 0)
(-1.33366e-09 -3.08618e-06 0)
(-1.29588e-09 -3.08405e-06 0)
(-1.25739e-09 -3.08197e-06 0)
(-1.21823e-09 -3.07996e-06 0)
(-1.17841e-09 -3.07801e-06 0)
(-1.13796e-09 -3.07613e-06 0)
(-1.0969e-09 -3.07431e-06 0)
(-1.05526e-09 -3.07256e-06 0)
(-1.01305e-09 -3.07087e-06 0)
(-9.70311e-10 -3.06926e-06 0)
(-9.27051e-10 -3.06771e-06 0)
(-8.833e-10 -3.06624e-06 0)
(-8.3908e-10 -3.06484e-06 0)
(-7.94416e-10 -3.06351e-06 0)
(-7.49328e-10 -3.06225e-06 0)
(-7.03843e-10 -3.06107e-06 0)
(-6.57981e-10 -3.05995e-06 0)
(-6.11769e-10 -3.05892e-06 0)
(-5.65227e-10 -3.05795e-06 0)
(-5.18381e-10 -3.05707e-06 0)
(-4.71252e-10 -3.05626e-06 0)
(-4.23867e-10 -3.05554e-06 0)
(-3.76244e-10 -3.05482e-06 0)
(-3.28417e-10 -3.05446e-06 0)
(-2.80383e-10 -3.05324e-06 0)
(-2.3224e-10 -3.05514e-06 0)
(-1.83807e-10 -3.04685e-06 0)
(-1.3571e-10 -3.07139e-06 0)
(-8.66864e-11 -2.97926e-06 0)
(-3.93215e-11 -3.22384e-06 0)
(-8.62377e-12 -2.81573e-06 0)
)
;
    }
    bottomWall
    {
        type            calculated;
        value           nonuniform List<vector> 
449
(
(-48.4899 -0.963503 0)
(-19.7385 -0.00514963 0)
(-14.339 -0.00113243 0)
(-12.0374 -0.000542698 0)
(-10.6423 -0.000347071 0)
(-9.66762 -0.00024779 0)
(-8.94638 -0.000181689 0)
(-8.42115 -0.000122648 0)
(-8.1033 -4.8897e-05 0)
(-8.08576 8.1717e-05 0)
(-8.67242 0.000263607 0)
(-9.91484 0.000332705 0)
(-10.9794 0.000248952 0)
(-11.6433 0.000148134 0)
(-12.0111 8.13132e-05 0)
(-12.2112 4.26145e-05 0)
(-12.3094 1.86046e-05 0)
(-12.3418 2.21425e-06 0)
(-12.3249 -8.49677e-06 0)
(-12.2817 -1.48379e-05 0)
(-12.2199 -1.90577e-05 0)
(-12.1466 -2.14494e-05 0)
(-12.0675 -2.25431e-05 0)
(-11.986 -2.28738e-05 0)
(-11.9042 -2.27549e-05 0)
(-11.8232 -2.23888e-05 0)
(-11.7436 -2.18652e-05 0)
(-11.6659 -2.12254e-05 0)
(-11.5906 -2.05353e-05 0)
(-11.5176 -1.98285e-05 0)
(-11.447 -1.91247e-05 0)
(-11.3787 -1.84354e-05 0)
(-11.3128 -1.77684e-05 0)
(-11.2491 -1.7126e-05 0)
(-11.1876 -1.65197e-05 0)
(-11.1281 -1.59513e-05 0)
(-11.0704 -1.54037e-05 0)
(-11.0147 -1.4874e-05 0)
(-10.9607 -1.43697e-05 0)
(-10.9084 -1.3891e-05 0)
(-10.8577 -1.34365e-05 0)
(-10.8085 -1.30056e-05 0)
(-10.7608 -1.25984e-05 0)
(-10.7144 -1.22114e-05 0)
(-10.6694 -1.18429e-05 0)
(-10.6256 -1.14922e-05 0)
(-10.5829 -1.11608e-05 0)
(-10.5414 -1.08431e-05 0)
(-10.501 -1.05488e-05 0)
(-10.4615 -1.029e-05 0)
(-10.4229 -1.00571e-05 0)
(-10.385 -9.83799e-06 0)
(-10.3478 -9.62564e-06 0)
(-10.3114 -9.41674e-06 0)
(-10.2757 -9.2116e-06 0)
(-10.2406 -9.00864e-06 0)
(-10.2063 -8.81027e-06 0)
(-10.1726 -8.61818e-06 0)
(-10.1396 -8.43066e-06 0)
(-10.1072 -8.24858e-06 0)
(-10.0755 -8.07293e-06 0)
(-10.0443 -7.90421e-06 0)
(-10.0138 -7.74007e-06 0)
(-9.98375 -7.58006e-06 0)
(-9.95429 -7.42475e-06 0)
(-9.92535 -7.27607e-06 0)
(-9.89692 -7.13238e-06 0)
(-9.86898 -6.99322e-06 0)
(-9.84152 -6.85715e-06 0)
(-9.81454 -6.72918e-06 0)
(-9.78797 -6.60715e-06 0)
(-9.76183 -6.48496e-06 0)
(-9.73611 -6.3651e-06 0)
(-9.71081 -6.24957e-06 0)
(-9.6859 -6.13801e-06 0)
(-9.66138 -6.02805e-06 0)
(-9.63724 -5.92129e-06 0)
(-9.61347 -5.81703e-06 0)
(-9.59006 -5.71569e-06 0)
(-9.567 -5.61743e-06 0)
(-9.54429 -5.52178e-06 0)
(-9.5219 -5.4288e-06 0)
(-9.49984 -5.33851e-06 0)
(-9.47809 -5.25027e-06 0)
(-9.45665 -5.16435e-06 0)
(-9.43551 -5.08118e-06 0)
(-9.41466 -4.99994e-06 0)
(-9.39409 -4.92212e-06 0)
(-9.37379 -4.84574e-06 0)
(-9.35376 -4.77073e-06 0)
(-9.33398 -4.69804e-06 0)
(-9.31447 -4.62636e-06 0)
(-9.2952 -4.55688e-06 0)
(-9.27618 -4.48894e-06 0)
(-9.2574 -4.4218e-06 0)
(-9.23885 -4.35757e-06 0)
(-9.22052 -4.29416e-06 0)
(-9.20243 -4.23203e-06 0)
(-9.18454 -4.17224e-06 0)
(-9.16687 -4.11278e-06 0)
(-9.14941 -4.05766e-06 0)
(-9.13213 -4.00504e-06 0)
(-9.11504 -3.95074e-06 0)
(-9.09814 -3.89759e-06 0)
(-9.08143 -3.84481e-06 0)
(-9.06491 -3.79273e-06 0)
(-9.04857 -3.74292e-06 0)
(-9.03241 -3.69356e-06 0)
(-9.01642 -3.64462e-06 0)
(-9.00061 -3.59791e-06 0)
(-8.98495 -3.55157e-06 0)
(-8.96947 -3.50545e-06 0)
(-8.95415 -3.46164e-06 0)
(-8.93898 -3.41819e-06 0)
(-8.92397 -3.37482e-06 0)
(-8.90911 -3.33346e-06 0)
(-8.8944 -3.29275e-06 0)
(-8.87984 -3.25189e-06 0)
(-8.86542 -3.21261e-06 0)
(-8.85114 -3.17446e-06 0)
(-8.83699 -3.13609e-06 0)
(-8.82299 -3.09871e-06 0)
(-8.80912 -3.06296e-06 0)
(-8.79537 -3.02699e-06 0)
(-8.78175 -2.99126e-06 0)
(-8.76827 -2.95726e-06 0)
(-8.7549 -2.92365e-06 0)
(-8.74165 -2.88997e-06 0)
(-8.72853 -2.85733e-06 0)
(-8.71552 -2.82585e-06 0)
(-8.70262 -2.79422e-06 0)
(-8.68984 -2.7628e-06 0)
(-8.67717 -2.7328e-06 0)
(-8.66461 -2.70329e-06 0)
(-8.65215 -2.67354e-06 0)
(-8.6398 -2.64458e-06 0)
(-8.62756 -2.61687e-06 0)
(-8.61541 -2.58899e-06 0)
(-8.60337 -2.561e-06 0)
(-8.59143 -2.53431e-06 0)
(-8.57958 -2.50839e-06 0)
(-8.56783 -2.4821e-06 0)
(-8.55617 -2.45606e-06 0)
(-8.54461 -2.43125e-06 0)
(-8.53313 -2.40686e-06 0)
(-8.52175 -2.38211e-06 0)
(-8.51046 -2.35846e-06 0)
(-8.49924 -2.33692e-06 0)
(-8.4881 -2.31523e-06 0)
(-8.47704 -2.29231e-06 0)
(-8.46607 -2.26962e-06 0)
(-8.45518 -2.24776e-06 0)
(-8.44437 -2.22615e-06 0)
(-8.43363 -2.20437e-06 0)
(-8.42298 -2.18294e-06 0)
(-8.4124 -2.16233e-06 0)
(-8.4019 -2.14206e-06 0)
(-8.39148 -2.1216e-06 0)
(-8.38112 -2.10132e-06 0)
(-8.37085 -2.08184e-06 0)
(-8.36064 -2.06286e-06 0)
(-8.3505 -2.04364e-06 0)
(-8.34043 -2.02439e-06 0)
(-8.33044 -2.00593e-06 0)
(-8.32051 -1.98811e-06 0)
(-8.31064 -1.97008e-06 0)
(-8.30085 -1.95191e-06 0)
(-8.29112 -1.93431e-06 0)
(-8.28145 -1.91751e-06 0)
(-8.27184 -1.90056e-06 0)
(-8.2623 -1.88377e-06 0)
(-8.25282 -1.86681e-06 0)
(-8.24341 -1.84842e-06 0)
(-8.23459 -1.83509e-06 0)
(-8.22627 -1.82354e-06 0)
(-8.21793 -1.80747e-06 0)
(-8.20958 -1.79254e-06 0)
(-8.2012 -1.77884e-06 0)
(-8.1928 -1.76504e-06 0)
(-8.18437 -1.75104e-06 0)
(-8.17592 -1.73671e-06 0)
(-8.16744 -1.72289e-06 0)
(-8.15894 -1.70935e-06 0)
(-8.15042 -1.69592e-06 0)
(-8.14187 -1.68206e-06 0)
(-8.1333 -1.66805e-06 0)
(-8.12471 -1.65456e-06 0)
(-8.11609 -1.64131e-06 0)
(-8.10745 -1.62801e-06 0)
(-8.09879 -1.61441e-06 0)
(-8.09011 -1.60084e-06 0)
(-8.08141 -1.5877e-06 0)
(-8.07268 -1.57472e-06 0)
(-8.06394 -1.56157e-06 0)
(-8.05517 -1.54824e-06 0)
(-8.04638 -1.53512e-06 0)
(-8.03757 -1.52229e-06 0)
(-8.02874 -1.50963e-06 0)
(-8.01989 -1.49668e-06 0)
(-8.01102 -1.48361e-06 0)
(-8.00214 -1.47094e-06 0)
(-7.99323 -1.45849e-06 0)
(-7.9843 -1.44597e-06 0)
(-7.97535 -1.43329e-06 0)
(-7.96639 -1.4207e-06 0)
(-7.9574 -1.40842e-06 0)
(-7.9484 -1.39631e-06 0)
(-7.93938 -1.38397e-06 0)
(-7.93034 -1.37153e-06 0)
(-7.92129 -1.35944e-06 0)
(-7.91221 -1.34759e-06 0)
(-7.90312 -1.33563e-06 0)
(-7.89401 -1.32442e-06 0)
(-7.88488 -1.31355e-06 0)
(-7.87572 -1.30208e-06 0)
(-7.86655 -1.29046e-06 0)
(-7.85736 -1.27866e-06 0)
(-7.84816 -1.26691e-06 0)
(-7.83894 -1.25548e-06 0)
(-7.82971 -1.24421e-06 0)
(-7.82045 -1.23272e-06 0)
(-7.81119 -1.22119e-06 0)
(-7.80191 -1.21e-06 0)
(-7.79262 -1.19905e-06 0)
(-7.78331 -1.18787e-06 0)
(-7.77399 -1.17659e-06 0)
(-7.76466 -1.16566e-06 0)
(-7.75531 -1.15498e-06 0)
(-7.74595 -1.14412e-06 0)
(-7.73658 -1.13315e-06 0)
(-7.72719 -1.12247e-06 0)
(-7.71779 -1.11206e-06 0)
(-7.70838 -1.1015e-06 0)
(-7.69896 -1.09082e-06 0)
(-7.68953 -1.08042e-06 0)
(-7.68008 -1.07028e-06 0)
(-7.67062 -1.06e-06 0)
(-7.66115 -1.04962e-06 0)
(-7.65168 -1.0395e-06 0)
(-7.64219 -1.02963e-06 0)
(-7.63269 -1.01963e-06 0)
(-7.62318 -1.00953e-06 0)
(-7.61366 -9.9972e-07 0)
(-7.60413 -9.90127e-07 0)
(-7.59459 -9.80394e-07 0)
(-7.58505 -9.70588e-07 0)
(-7.57549 -9.61075e-07 0)
(-7.56593 -9.51757e-07 0)
(-7.55635 -9.42274e-07 0)
(-7.54677 -9.32758e-07 0)
(-7.53718 -9.23548e-07 0)
(-7.52759 -9.14464e-07 0)
(-7.51798 -9.05237e-07 0)
(-7.50837 -8.96051e-07 0)
(-7.49876 -8.87125e-07 0)
(-7.48913 -8.78267e-07 0)
(-7.4795 -8.69308e-07 0)
(-7.46986 -8.60448e-07 0)
(-7.46022 -8.5181e-07 0)
(-7.45057 -8.43171e-07 0)
(-7.44091 -8.34468e-07 0)
(-7.43126 -8.25922e-07 0)
(-7.42159 -8.17564e-07 0)
(-7.41192 -8.09141e-07 0)
(-7.40225 -8.007e-07 0)
(-7.39257 -7.92469e-07 0)
(-7.38289 -7.84356e-07 0)
(-7.3732 -7.76165e-07 0)
(-7.36351 -7.6802e-07 0)
(-7.35382 -7.60073e-07 0)
(-7.34412 -7.52169e-07 0)
(-7.33442 -7.44215e-07 0)
(-7.32472 -7.36591e-07 0)
(-7.31501 -7.29476e-07 0)
(-7.30529 -7.22122e-07 0)
(-7.29557 -7.14409e-07 0)
(-7.28585 -7.06886e-07 0)
(-7.27612 -6.99504e-07 0)
(-7.26639 -6.92072e-07 0)
(-7.25666 -6.84666e-07 0)
(-7.24693 -6.774e-07 0)
(-7.2372 -6.70141e-07 0)
(-7.22747 -6.62856e-07 0)
(-7.21774 -6.55705e-07 0)
(-7.20801 -6.48686e-07 0)
(-7.19828 -6.41626e-07 0)
(-7.18855 -6.34591e-07 0)
(-7.17883 -6.27726e-07 0)
(-7.1691 -6.20904e-07 0)
(-7.15938 -6.14048e-07 0)
(-7.14966 -6.07305e-07 0)
(-7.13994 -6.00699e-07 0)
(-7.13022 -5.94062e-07 0)
(-7.1205 -5.87433e-07 0)
(-7.11079 -5.80974e-07 0)
(-7.10109 -5.74558e-07 0)
(-7.09138 -5.68114e-07 0)
(-7.08168 -5.61772e-07 0)
(-7.07199 -5.5556e-07 0)
(-7.06229 -5.49313e-07 0)
(-7.05261 -5.43091e-07 0)
(-7.04292 -5.37031e-07 0)
(-7.03324 -5.30999e-07 0)
(-7.02357 -5.2494e-07 0)
(-7.01391 -5.18999e-07 0)
(-7.00424 -5.1316e-07 0)
(-6.99459 -5.07291e-07 0)
(-6.98494 -5.01467e-07 0)
(-6.9753 -4.95794e-07 0)
(-6.96566 -4.90114e-07 0)
(-6.95603 -4.84431e-07 0)
(-6.94641 -4.78884e-07 0)
(-6.9368 -4.73397e-07 0)
(-6.92719 -4.67884e-07 0)
(-6.91759 -4.62454e-07 0)
(-6.908 -4.5714e-07 0)
(-6.89842 -4.51806e-07 0)
(-6.88885 -4.46494e-07 0)
(-6.87928 -4.41326e-07 0)
(-6.86973 -4.36168e-07 0)
(-6.86018 -4.31007e-07 0)
(-6.85065 -4.25958e-07 0)
(-6.84112 -4.20972e-07 0)
(-6.8316 -4.15972e-07 0)
(-6.8221 -4.11042e-07 0)
(-6.8126 -4.06217e-07 0)
(-6.80312 -4.01379e-07 0)
(-6.79364 -3.9657e-07 0)
(-6.78418 -3.91881e-07 0)
(-6.77473 -3.87457e-07 0)
(-6.76528 -3.83064e-07 0)
(-6.75583 -3.78512e-07 0)
(-6.7464 -3.73986e-07 0)
(-6.73698 -3.69455e-07 0)
(-6.72758 -3.65005e-07 0)
(-6.71818 -3.60639e-07 0)
(-6.7088 -3.56291e-07 0)
(-6.69943 -3.51983e-07 0)
(-6.69008 -3.47753e-07 0)
(-6.68073 -3.43507e-07 0)
(-6.6714 -3.39281e-07 0)
(-6.66209 -3.35163e-07 0)
(-6.65279 -3.31068e-07 0)
(-6.6435 -3.26973e-07 0)
(-6.63423 -3.22973e-07 0)
(-6.62496 -3.1901e-07 0)
(-6.61572 -3.15054e-07 0)
(-6.60649 -3.11158e-07 0)
(-6.59728 -3.07334e-07 0)
(-6.58808 -3.03487e-07 0)
(-6.5789 -2.99727e-07 0)
(-6.56973 -2.95937e-07 0)
(-6.56058 -2.92302e-07 0)
(-6.55144 -2.88795e-07 0)
(-6.54129 -2.84588e-07 0)
(-6.53025 -2.80087e-07 0)
(-6.51938 -2.76006e-07 0)
(-6.50866 -2.72008e-07 0)
(-6.49811 -2.68014e-07 0)
(-6.48769 -2.64156e-07 0)
(-6.47744 -2.6037e-07 0)
(-6.46733 -2.56662e-07 0)
(-6.45736 -2.53068e-07 0)
(-6.44753 -2.49538e-07 0)
(-6.43784 -2.46084e-07 0)
(-6.42828 -2.42739e-07 0)
(-6.41886 -2.39453e-07 0)
(-6.40955 -2.36228e-07 0)
(-6.40038 -2.33113e-07 0)
(-6.39132 -2.30048e-07 0)
(-6.38238 -2.27039e-07 0)
(-6.37356 -2.24127e-07 0)
(-6.36485 -2.21269e-07 0)
(-6.35625 -2.18452e-07 0)
(-6.34776 -2.15723e-07 0)
(-6.33937 -2.1305e-07 0)
(-6.3311 -2.10416e-07 0)
(-6.32292 -2.07847e-07 0)
(-6.31484 -2.0535e-07 0)
(-6.30685 -2.0288e-07 0)
(-6.29897 -2.0046e-07 0)
(-6.29117 -1.98117e-07 0)
(-6.28348 -1.95816e-07 0)
(-6.27586 -1.93545e-07 0)
(-6.26834 -1.91393e-07 0)
(-6.26089 -1.89338e-07 0)
(-6.25353 -1.87263e-07 0)
(-6.24624 -1.85172e-07 0)
(-6.23904 -1.83138e-07 0)
(-6.23191 -1.81131e-07 0)
(-6.22487 -1.79147e-07 0)
(-6.2179 -1.77203e-07 0)
(-6.21101 -1.75318e-07 0)
(-6.20419 -1.73449e-07 0)
(-6.19745 -1.71607e-07 0)
(-6.19077 -1.69807e-07 0)
(-6.18417 -1.68062e-07 0)
(-6.17762 -1.66323e-07 0)
(-6.17116 -1.64614e-07 0)
(-6.16474 -1.62941e-07 0)
(-6.15841 -1.61322e-07 0)
(-6.15213 -1.59703e-07 0)
(-6.14592 -1.58118e-07 0)
(-6.13976 -1.56555e-07 0)
(-6.13368 -1.55051e-07 0)
(-6.12763 -1.53541e-07 0)
(-6.12167 -1.52069e-07 0)
(-6.11574 -1.50601e-07 0)
(-6.10989 -1.49202e-07 0)
(-6.10407 -1.47792e-07 0)
(-6.09833 -1.46427e-07 0)
(-6.09261 -1.45042e-07 0)
(-6.08698 -1.4374e-07 0)
(-6.08137 -1.42422e-07 0)
(-6.07584 -1.41162e-07 0)
(-6.07033 -1.3985e-07 0)
(-6.0649 -1.38644e-07 0)
(-6.05949 -1.37395e-07 0)
(-6.05416 -1.36245e-07 0)
(-6.04883 -1.3501e-07 0)
(-6.0436 -1.33892e-07 0)
(-6.03836 -1.32698e-07 0)
(-6.03322 -1.31649e-07 0)
(-6.02806 -1.30482e-07 0)
(-6.02301 -1.29462e-07 0)
(-6.01794 -1.28313e-07 0)
(-6.01298 -1.27359e-07 0)
(-6.00797 -1.26252e-07 0)
(-6.0031 -1.25345e-07 0)
(-5.99817 -1.24238e-07 0)
(-5.99339 -1.23382e-07 0)
(-5.98852 -1.22313e-07 0)
(-5.98382 -1.21531e-07 0)
(-5.97901 -1.20481e-07 0)
(-5.9744 -1.19744e-07 0)
(-5.96965 -1.18728e-07 0)
(-5.96511 -1.18059e-07 0)
(-5.96042 -1.17158e-07 0)
(-5.95595 -1.16441e-07 0)
(-5.95131 -1.15926e-07 0)
(-5.94688 -1.14585e-07 0)
(-5.94235 -1.15795e-07 0)
(-5.93782 -1.11375e-07 0)
(-5.93365 -1.19337e-07 0)
(-5.92846 -1.02222e-07 0)
(-5.9257 -1.32561e-07 0)
(-5.91801 -8.05036e-08 0)
(-5.91956 -1.10999e-07 0)
(-5.90905 -1.39328e-07 0)
)
;
    }
    symmetry
    {
        type            symmetryPlane;
    }
    frontAndBack
    {
        type            empty;
    }
}


// ************************************************************************* //
