/*--------------------------------*- C++ -*----------------------------------*\
| =========                 |                                                 |
| \\      /  F ield         | OpenFOAM: The Open Source CFD Toolbox           |
|  \\    /   O peration     | Version:  v2012                                 |
|   \\  /    A nd           | Website:  www.openfoam.com                      |
|    \\/     M anipulation  |                                                 |
\*---------------------------------------------------------------------------*/
FoamFile
{
    version     2.0;
    format      ascii;
    class       volScalarField;
    location    "46";
    object      yPlus;
}
// * * * * * * * * * * * * * * * * * * * * * * * * * * * * * * * * * * * * * //

dimensions      [0 0 0 0 0 0 0];


internalField   uniform 0;

boundaryField
{
    inlet
    {
        type            calculated;
        value           uniform 0;
    }
    outlet
    {
        type            calculated;
        value           uniform 0;
    }
    topWall
    {
        type            calculated;
        value           nonuniform List<scalar> 
545
(
0.111339
0.191982
0.246295
0.289519
0.326113
0.358134
0.386738
0.41265
0.436368
0.458246
0.478551
0.497488
0.515223
0.531887
0.54759
0.562425
0.576469
0.589789
0.602445
0.614486
0.625958
0.636901
0.64735
0.657338
0.666894
0.676043
0.684811
0.693218
0.701284
0.709029
0.71647
0.723621
0.730498
0.737115
0.743484
0.749616
0.755524
0.761217
0.766705
0.771998
0.777103
0.78203
0.786785
0.791376
0.79581
0.800093
0.804231
0.808231
0.812098
0.815836
0.819452
0.822949
0.826333
0.829607
0.832776
0.835843
0.838813
0.841689
0.844474
0.847172
0.849785
0.852317
0.854771
0.857149
0.859454
0.861689
0.863855
0.865956
0.867993
0.869969
0.871885
0.873744
0.875524
0.877246
0.878955
0.880651
0.882333
0.884001
0.885657
0.8873
0.88893
0.890547
0.892151
0.893744
0.895323
0.896891
0.898446
0.89999
0.901522
0.903042
0.90455
0.906047
0.907532
0.909006
0.910469
0.911921
0.913229
0.9144
0.91557
0.91674
0.91791
0.91908
0.920249
0.921419
0.922588
0.923758
0.924927
0.926096
0.927265
0.928433
0.929602
0.93077
0.931938
0.933106
0.934274
0.935441
0.936609
0.937776
0.938942
0.940109
0.941275
0.942441
0.943607
0.944773
0.945938
0.947103
0.948268
0.949432
0.950596
0.95176
0.952923
0.954087
0.955249
0.956412
0.957574
0.958736
0.959897
0.961058
0.962219
0.963379
0.964539
0.965698
0.966857
0.968016
0.969174
0.970332
0.971489
0.972646
0.973802
0.974958
0.976113
0.977268
0.978423
0.979577
0.98073
0.981883
0.983035
0.984187
0.985338
0.986489
0.987639
0.988789
0.989938
0.991086
0.992234
0.993381
0.994527
0.995673
0.996818
0.997963
0.999107
1.00025
1.00139
1.00253
1.00368
1.00482
1.00596
1.00709
1.00823
1.00937
1.01051
1.01164
1.01278
1.01391
1.01505
1.01618
1.01731
1.01844
1.01957
1.0207
1.02183
1.02296
1.02409
1.02521
1.02634
1.02746
1.02858
1.02971
1.03083
1.03195
1.03307
1.03419
1.0353
1.03642
1.03753
1.03865
1.03976
1.04087
1.04199
1.0431
1.0442
1.04531
1.04642
1.04752
1.04863
1.04973
1.05084
1.05194
1.05304
1.05413
1.05523
1.05633
1.05742
1.05852
1.05961
1.0607
1.06179
1.06288
1.06397
1.06505
1.06614
1.06722
1.0683
1.06939
1.07046
1.07154
1.07262
1.07369
1.07477
1.07584
1.07691
1.07798
1.07905
1.08012
1.08118
1.08224
1.08331
1.08437
1.08543
1.08648
1.08754
1.08859
1.08965
1.0907
1.09175
1.09279
1.09384
1.09488
1.09593
1.09697
1.09801
1.09904
1.10008
1.10111
1.10215
1.10318
1.1042
1.10523
1.10626
1.10722
1.10813
1.10905
1.10998
1.11091
1.11185
1.11279
1.11374
1.1147
1.11566
1.11663
1.11761
1.11859
1.11958
1.12057
1.12158
1.12258
1.1236
1.12462
1.12565
1.12668
1.12772
1.12877
1.12982
1.13088
1.13194
1.13301
1.13409
1.13517
1.13626
1.13736
1.13846
1.13957
1.14068
1.1418
1.14292
1.14405
1.14519
1.14633
1.14747
1.14863
1.14978
1.15095
1.15211
1.15329
1.15447
1.15565
1.15684
1.15803
1.15923
1.16043
1.16164
1.16285
1.16406
1.16528
1.16651
1.16773
1.16896
1.1702
1.17144
1.17268
1.17393
1.17518
1.17643
1.17768
1.17894
1.1802
1.18146
1.18273
1.184
1.18526
1.18654
1.18781
1.18908
1.19036
1.19163
1.19291
1.19419
1.19547
1.19675
1.19803
1.19931
1.20058
1.20186
1.20314
1.20442
1.20569
1.20696
1.20824
1.20951
1.21077
1.21204
1.2133
1.21456
1.21582
1.21707
1.21832
1.21956
1.2208
1.22204
1.22327
1.2245
1.22572
1.22693
1.22814
1.22934
1.23054
1.23173
1.23291
1.23408
1.23525
1.2364
1.23755
1.23869
1.23982
1.24094
1.24205
1.24315
1.24424
1.24532
1.24639
1.24744
1.24849
1.24952
1.25054
1.25154
1.25254
1.25352
1.25448
1.25543
1.25637
1.25729
1.25819
1.25908
1.25995
1.26081
1.26165
1.26248
1.26328
1.26407
1.26484
1.26559
1.26633
1.26704
1.26773
1.26841
1.26907
1.2697
1.27032
1.27091
1.27149
1.27204
1.27257
1.27308
1.27357
1.27403
1.27448
1.2749
1.2753
1.27567
1.27603
1.27636
1.27666
1.27695
1.2772
1.27744
1.27765
1.27784
1.278
1.27814
1.27826
1.27835
1.27842
1.27846
1.27848
1.27848
1.27845
1.27839
1.27832
1.27821
1.27809
1.27792
1.27771
1.27746
1.27718
1.27688
1.27655
1.27619
1.27581
1.27541
1.27499
1.27454
1.27408
1.2736
1.2731
1.27259
1.27206
1.27152
1.27096
1.2704
1.26982
1.26923
1.26864
1.26803
1.26742
1.2668
1.26618
1.26555
1.26491
1.26427
1.26363
1.26299
1.26234
1.2617
1.26105
1.2604
1.25975
1.25911
1.25846
1.25782
1.25718
1.25654
1.25591
1.25528
1.25466
1.25404
1.25342
1.25282
1.25221
1.25162
1.25103
1.25045
1.24988
1.24931
1.24875
1.24821
1.24767
1.24714
1.24662
1.24611
1.24561
1.24512
1.24465
1.24418
1.24373
1.24328
1.24285
1.24243
1.24203
1.24164
1.24126
1.24089
1.24054
1.2402
1.23987
1.23956
1.23926
1.23898
1.23871
1.23845
1.23821
1.23799
1.23778
1.23759
1.23741
1.23724
1.23709
1.23696
1.23684
1.23674
1.23666
1.23659
1.23653
1.2365
1.23647
1.23647
)
;
    }
    bottomWall
    {
        type            calculated;
        value           nonuniform List<scalar> 
449
(
0.139392
0.0889323
0.0757987
0.0694493
0.0653009
0.0622389
0.0598723
0.0580882
0.0569814
0.0569197
0.0589484
0.0630296
0.0663272
0.0683031
0.0693734
0.0699491
0.0702297
0.0703219
0.0702739
0.0701507
0.069974
0.0697637
0.0695362
0.069301
0.069064
0.0688286
0.0685965
0.0683694
0.0681482
0.0679332
0.0677247
0.0675226
0.0673267
0.067137
0.0669531
0.0667747
0.0666016
0.0664336
0.0662706
0.0661123
0.0659584
0.0658089
0.0656635
0.0655219
0.065384
0.0652496
0.0651186
0.0649908
0.064866
0.064744
0.0646243
0.0645067
0.0643912
0.0642777
0.0641663
0.0640568
0.0639493
0.0638438
0.0637401
0.0636383
0.0635383
0.0634399
0.0633433
0.0632483
0.0631549
0.063063
0.0629727
0.0628837
0.0627962
0.06271
0.0626251
0.0625414
0.062459
0.0623778
0.0622977
0.0622188
0.062141
0.0620643
0.0619887
0.0619142
0.0618406
0.061768
0.0616965
0.0616258
0.0615561
0.0614872
0.0614192
0.0613521
0.0612858
0.0612202
0.0611555
0.0610915
0.0610283
0.0609658
0.0609041
0.0608431
0.0607827
0.060723
0.060664
0.0606056
0.0605478
0.0604906
0.060434
0.060378
0.0603225
0.0602676
0.0602132
0.0601594
0.0601062
0.0600534
0.0600012
0.0599495
0.0598983
0.0598475
0.0597972
0.0597474
0.0596981
0.0596492
0.0596007
0.0595527
0.0595051
0.0594579
0.0594112
0.0593648
0.0593188
0.0592733
0.0592281
0.0591832
0.0591388
0.0590947
0.059051
0.0590076
0.0589646
0.0589219
0.0588795
0.0588375
0.0587958
0.0587544
0.0587133
0.0586725
0.0586321
0.0585919
0.058552
0.0585124
0.0584731
0.0584341
0.0583954
0.0583569
0.0583186
0.0582806
0.0582429
0.0582054
0.0581682
0.0581312
0.0580945
0.058058
0.0580218
0.0579857
0.05795
0.0579144
0.0578791
0.057844
0.0578091
0.0577745
0.05774
0.0577058
0.0576718
0.057638
0.0576043
0.0575709
0.0575377
0.0575047
0.0574719
0.0574411
0.0574121
0.057383
0.0573538
0.0573246
0.0572952
0.0572657
0.0572361
0.0572065
0.0571767
0.0571468
0.0571168
0.0570868
0.0570566
0.0570263
0.056996
0.0569655
0.056935
0.0569044
0.0568736
0.0568428
0.0568119
0.0567809
0.0567498
0.0567186
0.0566874
0.056656
0.0566246
0.0565931
0.0565614
0.0565297
0.056498
0.0564661
0.0564341
0.0564021
0.05637
0.0563378
0.0563055
0.0562732
0.0562407
0.0562082
0.0561755
0.0561428
0.05611
0.0560771
0.0560442
0.0560112
0.0559781
0.0559449
0.0559117
0.0558784
0.055845
0.0558116
0.055778
0.0557445
0.0557108
0.0556771
0.0556433
0.0556095
0.0555755
0.0555416
0.0555075
0.0554734
0.0554392
0.055405
0.0553707
0.0553364
0.055302
0.0552675
0.055233
0.0551984
0.0551638
0.0551291
0.0550944
0.0550596
0.0550248
0.0549899
0.0549549
0.0549199
0.0548849
0.0548498
0.0548146
0.0547795
0.0547442
0.0547089
0.0546736
0.0546382
0.0546028
0.0545674
0.0545319
0.0544963
0.0544608
0.0544252
0.0543895
0.0543538
0.0543181
0.0542823
0.0542465
0.0542107
0.0541748
0.0541389
0.0541029
0.0540669
0.0540309
0.0539948
0.0539587
0.0539226
0.0538864
0.0538502
0.053814
0.0537778
0.0537415
0.0537052
0.0536689
0.0536326
0.0535962
0.0535599
0.0535235
0.0534871
0.0534507
0.0534143
0.0533779
0.0533414
0.0533049
0.0532685
0.053232
0.0531955
0.053159
0.0531225
0.053086
0.0530495
0.053013
0.0529764
0.0529399
0.0529034
0.0528668
0.0528303
0.0527938
0.0527573
0.0527207
0.0526842
0.0526477
0.0526112
0.0525747
0.0525382
0.0525017
0.0524653
0.0524288
0.0523923
0.0523559
0.0523195
0.0522831
0.0522467
0.0522103
0.0521739
0.0521376
0.0521012
0.0520649
0.0520285
0.0519922
0.0519559
0.0519196
0.0518833
0.0518471
0.0518109
0.0517747
0.0517385
0.0517024
0.0516663
0.0516302
0.0515941
0.0515581
0.0515221
0.0514862
0.0514502
0.0514144
0.0513785
0.0513427
0.0513069
0.0512712
0.0512354
0.0511957
0.0511525
0.0511099
0.0510679
0.0510265
0.0509856
0.0509453
0.0509055
0.0508662
0.0508275
0.0507893
0.0507516
0.0507144
0.0506776
0.0506413
0.0506054
0.0505701
0.0505351
0.0505006
0.0504664
0.0504327
0.0503994
0.0503665
0.0503339
0.0503018
0.0502699
0.0502385
0.0502074
0.0501767
0.0501463
0.0501162
0.0500864
0.050057
0.0500278
0.049999
0.0499704
0.0499422
0.0499142
0.0498865
0.0498591
0.049832
0.0498051
0.0497786
0.0497522
0.0497262
0.0497004
0.0496748
0.0496495
0.0496244
0.0495995
0.049575
0.0495505
0.0495264
0.0495024
0.0494787
0.0494552
0.0494319
0.0494088
0.0493859
0.0493631
0.0493407
0.0493183
0.0492963
0.0492742
0.0492526
0.0492309
0.0492096
0.0491883
0.0491673
0.0491463
0.0491257
0.049105
0.0490848
0.0490643
0.0490445
0.0490243
0.0490048
0.0489848
0.0489656
0.048946
0.0489271
0.0489076
0.048889
0.0488698
0.0488514
0.0488324
0.0488142
0.0487957
0.048777
0.0487599
0.0487386
0.0487272
0.0486956
0.048702
0.0486587
)
;
    }
    symmetry
    {
        type            symmetryPlane;
    }
    frontAndBack
    {
        type            empty;
    }
}


// ************************************************************************* //
