/*--------------------------------*- C++ -*----------------------------------*\
| =========                 |                                                 |
| \\      /  F ield         | OpenFOAM: The Open Source CFD Toolbox           |
|  \\    /   O peration     | Version:  v2012                                 |
|   \\  /    A nd           | Website:  www.openfoam.com                      |
|    \\/     M anipulation  |                                                 |
\*---------------------------------------------------------------------------*/
FoamFile
{
    version     2.0;
    format      ascii;
    class       volVectorField;
    location    "41";
    object      wallShearStress;
}
// * * * * * * * * * * * * * * * * * * * * * * * * * * * * * * * * * * * * * //

dimensions      [0 2 -2 0 0 0 0];


internalField   uniform (0 0 0);

boundaryField
{
    inlet
    {
        type            calculated;
        value           uniform (0 0 0);
    }
    outlet
    {
        type            calculated;
        value           uniform (0 0 0);
    }
    topWall
    {
        type            calculated;
        value           nonuniform List<vector> 
545
(
(1.48709e-08 -1.04678e-08 0)
(1.48641e-08 -2.9285e-08 0)
(1.48503e-08 -4.88506e-08 0)
(1.48298e-08 -6.78423e-08 0)
(1.48037e-08 -8.6013e-08 0)
(1.47724e-08 -1.03594e-07 0)
(1.47365e-08 -1.20733e-07 0)
(1.46962e-08 -1.37422e-07 0)
(1.46521e-08 -1.53621e-07 0)
(1.46043e-08 -1.6933e-07 0)
(1.45535e-08 -1.84569e-07 0)
(1.44998e-08 -1.99356e-07 0)
(1.44435e-08 -2.137e-07 0)
(1.4385e-08 -2.27611e-07 0)
(1.43246e-08 -2.41098e-07 0)
(1.42625e-08 -2.54173e-07 0)
(1.41989e-08 -2.66848e-07 0)
(1.4134e-08 -2.79133e-07 0)
(1.40681e-08 -2.91038e-07 0)
(1.40013e-08 -3.02575e-07 0)
(1.39339e-08 -3.13754e-07 0)
(1.38659e-08 -3.24586e-07 0)
(1.37976e-08 -3.3508e-07 0)
(1.3729e-08 -3.45247e-07 0)
(1.36603e-08 -3.55097e-07 0)
(1.35917e-08 -3.64639e-07 0)
(1.35232e-08 -3.73882e-07 0)
(1.34548e-08 -3.82836e-07 0)
(1.33869e-08 -3.9151e-07 0)
(1.33192e-08 -3.99913e-07 0)
(1.32521e-08 -4.08053e-07 0)
(1.31855e-08 -4.15938e-07 0)
(1.31195e-08 -4.23577e-07 0)
(1.30542e-08 -4.30977e-07 0)
(1.29895e-08 -4.38146e-07 0)
(1.29256e-08 -4.45092e-07 0)
(1.28625e-08 -4.51822e-07 0)
(1.28002e-08 -4.58342e-07 0)
(1.27387e-08 -4.6466e-07 0)
(1.26782e-08 -4.70781e-07 0)
(1.26185e-08 -4.76714e-07 0)
(1.25597e-08 -4.82462e-07 0)
(1.25019e-08 -4.88033e-07 0)
(1.2445e-08 -4.93433e-07 0)
(1.23891e-08 -4.98666e-07 0)
(1.23341e-08 -5.03739e-07 0)
(1.22801e-08 -5.08656e-07 0)
(1.22271e-08 -5.13422e-07 0)
(1.2175e-08 -5.18043e-07 0)
(1.21239e-08 -5.22523e-07 0)
(1.20739e-08 -5.26867e-07 0)
(1.20247e-08 -5.31079e-07 0)
(1.19766e-08 -5.35163e-07 0)
(1.19294e-08 -5.39124e-07 0)
(1.18831e-08 -5.42965e-07 0)
(1.18378e-08 -5.46691e-07 0)
(1.17935e-08 -5.50305e-07 0)
(1.17501e-08 -5.5381e-07 0)
(1.17075e-08 -5.5721e-07 0)
(1.1666e-08 -5.60509e-07 0)
(1.16253e-08 -5.6371e-07 0)
(1.15854e-08 -5.66815e-07 0)
(1.15465e-08 -5.69829e-07 0)
(1.15084e-08 -5.72753e-07 0)
(1.14712e-08 -5.7559e-07 0)
(1.14348e-08 -5.78344e-07 0)
(1.13992e-08 -5.81017e-07 0)
(1.13645e-08 -5.83612e-07 0)
(1.13305e-08 -5.8613e-07 0)
(1.12973e-08 -5.88575e-07 0)
(1.12648e-08 -5.90949e-07 0)
(1.12334e-08 -5.9325e-07 0)
(1.12028e-08 -5.95462e-07 0)
(1.11727e-08 -5.97605e-07 0)
(1.1143e-08 -5.99723e-07 0)
(1.11134e-08 -6.01828e-07 0)
(1.10838e-08 -6.03921e-07 0)
(1.10543e-08 -6.05999e-07 0)
(1.10249e-08 -6.08062e-07 0)
(1.09955e-08 -6.10109e-07 0)
(1.09662e-08 -6.12141e-07 0)
(1.09369e-08 -6.14159e-07 0)
(1.09077e-08 -6.16162e-07 0)
(1.08785e-08 -6.18151e-07 0)
(1.08495e-08 -6.20126e-07 0)
(1.08204e-08 -6.22086e-07 0)
(1.07915e-08 -6.24032e-07 0)
(1.07626e-08 -6.25963e-07 0)
(1.07338e-08 -6.27881e-07 0)
(1.0705e-08 -6.29785e-07 0)
(1.06763e-08 -6.31676e-07 0)
(1.06477e-08 -6.33552e-07 0)
(1.06191e-08 -6.35415e-07 0)
(1.05907e-08 -6.37263e-07 0)
(1.0562e-08 -6.39103e-07 0)
(1.05348e-08 -6.40909e-07 0)
(1.05097e-08 -6.42562e-07 0)
(1.04854e-08 -6.44058e-07 0)
(1.0462e-08 -6.45512e-07 0)
(1.04387e-08 -6.46973e-07 0)
(1.04153e-08 -6.48445e-07 0)
(1.03919e-08 -6.49919e-07 0)
(1.03684e-08 -6.51391e-07 0)
(1.03447e-08 -6.52861e-07 0)
(1.0321e-08 -6.54332e-07 0)
(1.02972e-08 -6.55803e-07 0)
(1.02733e-08 -6.57275e-07 0)
(1.02494e-08 -6.58746e-07 0)
(1.02253e-08 -6.60218e-07 0)
(1.02011e-08 -6.61689e-07 0)
(1.01768e-08 -6.6316e-07 0)
(1.01525e-08 -6.64632e-07 0)
(1.0128e-08 -6.66103e-07 0)
(1.01035e-08 -6.67574e-07 0)
(1.00788e-08 -6.69045e-07 0)
(1.00541e-08 -6.70516e-07 0)
(1.00293e-08 -6.71987e-07 0)
(1.00043e-08 -6.73458e-07 0)
(9.97932e-09 -6.74928e-07 0)
(9.95421e-09 -6.76398e-07 0)
(9.929e-09 -6.77868e-07 0)
(9.9037e-09 -6.79338e-07 0)
(9.8783e-09 -6.80807e-07 0)
(9.85281e-09 -6.82276e-07 0)
(9.82723e-09 -6.83745e-07 0)
(9.80155e-09 -6.85213e-07 0)
(9.77577e-09 -6.86681e-07 0)
(9.7499e-09 -6.88148e-07 0)
(9.72394e-09 -6.89615e-07 0)
(9.69788e-09 -6.91082e-07 0)
(9.67172e-09 -6.92548e-07 0)
(9.64548e-09 -6.94014e-07 0)
(9.61913e-09 -6.95479e-07 0)
(9.59269e-09 -6.96943e-07 0)
(9.56616e-09 -6.98407e-07 0)
(9.53953e-09 -6.9987e-07 0)
(9.51281e-09 -7.01333e-07 0)
(9.48599e-09 -7.02795e-07 0)
(9.45908e-09 -7.04256e-07 0)
(9.43207e-09 -7.05716e-07 0)
(9.40496e-09 -7.07176e-07 0)
(9.37777e-09 -7.08635e-07 0)
(9.35047e-09 -7.10093e-07 0)
(9.32308e-09 -7.1155e-07 0)
(9.2956e-09 -7.13007e-07 0)
(9.26803e-09 -7.14462e-07 0)
(9.24035e-09 -7.15917e-07 0)
(9.21259e-09 -7.17371e-07 0)
(9.18473e-09 -7.18824e-07 0)
(9.15677e-09 -7.20276e-07 0)
(9.12872e-09 -7.21726e-07 0)
(9.10057e-09 -7.23176e-07 0)
(9.07234e-09 -7.24625e-07 0)
(9.044e-09 -7.26072e-07 0)
(9.01557e-09 -7.27519e-07 0)
(8.98705e-09 -7.28964e-07 0)
(8.95844e-09 -7.30408e-07 0)
(8.92973e-09 -7.31851e-07 0)
(8.90092e-09 -7.33292e-07 0)
(8.87203e-09 -7.34733e-07 0)
(8.84304e-09 -7.36172e-07 0)
(8.81395e-09 -7.37609e-07 0)
(8.78477e-09 -7.39046e-07 0)
(8.7555e-09 -7.40481e-07 0)
(8.72614e-09 -7.41914e-07 0)
(8.69668e-09 -7.43346e-07 0)
(8.66713e-09 -7.44777e-07 0)
(8.63749e-09 -7.46206e-07 0)
(8.60775e-09 -7.47633e-07 0)
(8.57792e-09 -7.49059e-07 0)
(8.548e-09 -7.50483e-07 0)
(8.51799e-09 -7.51906e-07 0)
(8.48789e-09 -7.53327e-07 0)
(8.45769e-09 -7.54746e-07 0)
(8.42741e-09 -7.56164e-07 0)
(8.39703e-09 -7.5758e-07 0)
(8.36656e-09 -7.58994e-07 0)
(8.336e-09 -7.60406e-07 0)
(8.30535e-09 -7.61816e-07 0)
(8.27461e-09 -7.63225e-07 0)
(8.24378e-09 -7.64631e-07 0)
(8.21285e-09 -7.66036e-07 0)
(8.18184e-09 -7.67438e-07 0)
(8.15074e-09 -7.68839e-07 0)
(8.11955e-09 -7.70237e-07 0)
(8.08827e-09 -7.71634e-07 0)
(8.0569e-09 -7.73028e-07 0)
(8.02545e-09 -7.7442e-07 0)
(7.9939e-09 -7.7581e-07 0)
(7.96227e-09 -7.77198e-07 0)
(7.93055e-09 -7.78583e-07 0)
(7.89874e-09 -7.79967e-07 0)
(7.86685e-09 -7.81348e-07 0)
(7.83487e-09 -7.82726e-07 0)
(7.8028e-09 -7.84102e-07 0)
(7.77065e-09 -7.85476e-07 0)
(7.73841e-09 -7.86847e-07 0)
(7.70609e-09 -7.88216e-07 0)
(7.67368e-09 -7.89582e-07 0)
(7.64118e-09 -7.90946e-07 0)
(7.6086e-09 -7.92307e-07 0)
(7.57594e-09 -7.93666e-07 0)
(7.54319e-09 -7.95021e-07 0)
(7.51037e-09 -7.96374e-07 0)
(7.47745e-09 -7.97725e-07 0)
(7.44446e-09 -7.99072e-07 0)
(7.41138e-09 -8.00417e-07 0)
(7.37822e-09 -8.01759e-07 0)
(7.34499e-09 -8.03098e-07 0)
(7.31167e-09 -8.04435e-07 0)
(7.27827e-09 -8.05768e-07 0)
(7.24479e-09 -8.07098e-07 0)
(7.21123e-09 -8.08425e-07 0)
(7.17759e-09 -8.09749e-07 0)
(7.14387e-09 -8.1107e-07 0)
(7.11007e-09 -8.12388e-07 0)
(7.0762e-09 -8.13703e-07 0)
(7.04225e-09 -8.15015e-07 0)
(7.00823e-09 -8.16323e-07 0)
(6.97412e-09 -8.17628e-07 0)
(6.93995e-09 -8.1893e-07 0)
(6.90569e-09 -8.20228e-07 0)
(6.87137e-09 -8.21523e-07 0)
(6.83696e-09 -8.22815e-07 0)
(6.80249e-09 -8.24103e-07 0)
(6.76794e-09 -8.25388e-07 0)
(6.73332e-09 -8.26669e-07 0)
(6.69863e-09 -8.27946e-07 0)
(6.66387e-09 -8.2922e-07 0)
(6.62903e-09 -8.3049e-07 0)
(6.59413e-09 -8.31757e-07 0)
(6.55915e-09 -8.3302e-07 0)
(6.52411e-09 -8.34279e-07 0)
(6.489e-09 -8.35534e-07 0)
(6.45382e-09 -8.36786e-07 0)
(6.41858e-09 -8.38033e-07 0)
(6.38327e-09 -8.39277e-07 0)
(6.34789e-09 -8.40517e-07 0)
(6.31245e-09 -8.41752e-07 0)
(6.27694e-09 -8.42984e-07 0)
(6.24137e-09 -8.44212e-07 0)
(6.20574e-09 -8.45435e-07 0)
(6.17005e-09 -8.46654e-07 0)
(6.13429e-09 -8.4787e-07 0)
(6.09847e-09 -8.4908e-07 0)
(6.06259e-09 -8.50287e-07 0)
(6.02666e-09 -8.5149e-07 0)
(5.99066e-09 -8.52688e-07 0)
(5.95461e-09 -8.53881e-07 0)
(5.9185e-09 -8.5507e-07 0)
(5.88233e-09 -8.56255e-07 0)
(5.8461e-09 -8.57436e-07 0)
(5.80983e-09 -8.58611e-07 0)
(5.77349e-09 -8.59782e-07 0)
(5.73711e-09 -8.60949e-07 0)
(5.70067e-09 -8.62111e-07 0)
(5.66418e-09 -8.63268e-07 0)
(5.62764e-09 -8.64421e-07 0)
(5.59105e-09 -8.65568e-07 0)
(5.5544e-09 -8.66711e-07 0)
(5.51772e-09 -8.67849e-07 0)
(5.48098e-09 -8.68983e-07 0)
(5.4442e-09 -8.70111e-07 0)
(5.40736e-09 -8.71234e-07 0)
(5.37049e-09 -8.72352e-07 0)
(5.33356e-09 -8.73466e-07 0)
(5.29665e-09 -8.74574e-07 0)
(5.25943e-09 -8.75678e-07 0)
(5.22328e-09 -8.7677e-07 0)
(5.18865e-09 -8.77805e-07 0)
(5.15455e-09 -8.78786e-07 0)
(5.12088e-09 -8.79755e-07 0)
(5.08705e-09 -8.80731e-07 0)
(5.05294e-09 -8.81715e-07 0)
(5.01851e-09 -8.82703e-07 0)
(4.98376e-09 -8.83695e-07 0)
(4.94868e-09 -8.8469e-07 0)
(4.91326e-09 -8.85688e-07 0)
(4.87751e-09 -8.86691e-07 0)
(4.84142e-09 -8.87696e-07 0)
(4.805e-09 -8.88705e-07 0)
(4.76824e-09 -8.89718e-07 0)
(4.73113e-09 -8.90733e-07 0)
(4.69368e-09 -8.91751e-07 0)
(4.65589e-09 -8.92773e-07 0)
(4.61775e-09 -8.93796e-07 0)
(4.57926e-09 -8.94823e-07 0)
(4.54042e-09 -8.95852e-07 0)
(4.50124e-09 -8.96883e-07 0)
(4.4617e-09 -8.97916e-07 0)
(4.42181e-09 -8.98952e-07 0)
(4.38156e-09 -8.99989e-07 0)
(4.34096e-09 -9.01027e-07 0)
(4.3e-09 -9.02067e-07 0)
(4.25868e-09 -9.03109e-07 0)
(4.21701e-09 -9.04151e-07 0)
(4.17498e-09 -9.05195e-07 0)
(4.13258e-09 -9.06239e-07 0)
(4.08983e-09 -9.07284e-07 0)
(4.04671e-09 -9.08329e-07 0)
(4.00324e-09 -9.09374e-07 0)
(3.9594e-09 -9.10419e-07 0)
(3.9152e-09 -9.11464e-07 0)
(3.87064e-09 -9.12508e-07 0)
(3.82571e-09 -9.13551e-07 0)
(3.78042e-09 -9.14593e-07 0)
(3.73477e-09 -9.15634e-07 0)
(3.68876e-09 -9.16674e-07 0)
(3.64239e-09 -9.17711e-07 0)
(3.59565e-09 -9.18747e-07 0)
(3.54856e-09 -9.1978e-07 0)
(3.5011e-09 -9.20811e-07 0)
(3.45329e-09 -9.21839e-07 0)
(3.40512e-09 -9.22863e-07 0)
(3.3566e-09 -9.23884e-07 0)
(3.30771e-09 -9.24902e-07 0)
(3.25848e-09 -9.25915e-07 0)
(3.2089e-09 -9.26924e-07 0)
(3.15896e-09 -9.27928e-07 0)
(3.10868e-09 -9.28927e-07 0)
(3.05805e-09 -9.2992e-07 0)
(3.00708e-09 -9.30908e-07 0)
(2.95577e-09 -9.3189e-07 0)
(2.90413e-09 -9.32865e-07 0)
(2.85215e-09 -9.33833e-07 0)
(2.79983e-09 -9.34794e-07 0)
(2.74719e-09 -9.35748e-07 0)
(2.69423e-09 -9.36693e-07 0)
(2.64095e-09 -9.3763e-07 0)
(2.58735e-09 -9.38558e-07 0)
(2.53344e-09 -9.39477e-07 0)
(2.47922e-09 -9.40387e-07 0)
(2.4247e-09 -9.41286e-07 0)
(2.36988e-09 -9.42175e-07 0)
(2.31477e-09 -9.43052e-07 0)
(2.25937e-09 -9.43919e-07 0)
(2.20369e-09 -9.44773e-07 0)
(2.14774e-09 -9.45615e-07 0)
(2.09152e-09 -9.46445e-07 0)
(2.03504e-09 -9.47261e-07 0)
(1.9783e-09 -9.48063e-07 0)
(1.92132e-09 -9.48851e-07 0)
(1.8641e-09 -9.49624e-07 0)
(1.80664e-09 -9.50381e-07 0)
(1.74896e-09 -9.51123e-07 0)
(1.69106e-09 -9.51849e-07 0)
(1.63296e-09 -9.52557e-07 0)
(1.57465e-09 -9.53249e-07 0)
(1.51616e-09 -9.53922e-07 0)
(1.45749e-09 -9.54576e-07 0)
(1.39865e-09 -9.55212e-07 0)
(1.33964e-09 -9.55828e-07 0)
(1.28049e-09 -9.56424e-07 0)
(1.22121e-09 -9.56999e-07 0)
(1.16179e-09 -9.57552e-07 0)
(1.10226e-09 -9.58083e-07 0)
(1.04263e-09 -9.58592e-07 0)
(9.82902e-10 -9.59078e-07 0)
(9.23098e-10 -9.5954e-07 0)
(8.63229e-10 -9.59977e-07 0)
(8.03307e-10 -9.6039e-07 0)
(7.43346e-10 -9.60777e-07 0)
(6.8336e-10 -9.61137e-07 0)
(6.23364e-10 -9.61471e-07 0)
(5.63371e-10 -9.61777e-07 0)
(5.03397e-10 -9.62055e-07 0)
(4.43457e-10 -9.62305e-07 0)
(3.83567e-10 -9.62524e-07 0)
(3.23742e-10 -9.62714e-07 0)
(2.63999e-10 -9.62873e-07 0)
(2.04355e-10 -9.63001e-07 0)
(1.44826e-10 -9.63097e-07 0)
(8.54291e-11 -9.6316e-07 0)
(2.61824e-11 -9.6319e-07 0)
(-3.28965e-11 -9.63187e-07 0)
(-9.17895e-11 -9.63148e-07 0)
(-1.50478e-10 -9.63075e-07 0)
(-2.08944e-10 -9.62965e-07 0)
(-2.67168e-10 -9.6282e-07 0)
(-3.25131e-10 -9.62637e-07 0)
(-3.82813e-10 -9.62416e-07 0)
(-4.40196e-10 -9.62158e-07 0)
(-4.97258e-10 -9.6186e-07 0)
(-5.5398e-10 -9.61523e-07 0)
(-6.10341e-10 -9.61146e-07 0)
(-6.66322e-10 -9.60728e-07 0)
(-7.21901e-10 -9.60269e-07 0)
(-7.77058e-10 -9.59768e-07 0)
(-8.31771e-10 -9.59225e-07 0)
(-8.8602e-10 -9.58639e-07 0)
(-9.39783e-10 -9.58009e-07 0)
(-9.93039e-10 -9.57335e-07 0)
(-1.04577e-09 -9.56617e-07 0)
(-1.09794e-09 -9.55854e-07 0)
(-1.14955e-09 -9.55045e-07 0)
(-1.20057e-09 -9.5419e-07 0)
(-1.25097e-09 -9.53289e-07 0)
(-1.30073e-09 -9.52341e-07 0)
(-1.34984e-09 -9.51346e-07 0)
(-1.39827e-09 -9.50302e-07 0)
(-1.446e-09 -9.49211e-07 0)
(-1.49302e-09 -9.48071e-07 0)
(-1.53929e-09 -9.46882e-07 0)
(-1.5848e-09 -9.45644e-07 0)
(-1.62953e-09 -9.44357e-07 0)
(-1.67345e-09 -9.43019e-07 0)
(-1.71656e-09 -9.41632e-07 0)
(-1.75882e-09 -9.40194e-07 0)
(-1.80022e-09 -9.38706e-07 0)
(-1.84074e-09 -9.37167e-07 0)
(-1.88036e-09 -9.35577e-07 0)
(-1.91907e-09 -9.33937e-07 0)
(-1.95683e-09 -9.32245e-07 0)
(-1.99365e-09 -9.30501e-07 0)
(-2.0295e-09 -9.28707e-07 0)
(-2.06436e-09 -9.26861e-07 0)
(-2.09822e-09 -9.24964e-07 0)
(-2.13107e-09 -9.23016e-07 0)
(-2.16288e-09 -9.21016e-07 0)
(-2.19364e-09 -9.18965e-07 0)
(-2.22335e-09 -9.16863e-07 0)
(-2.25198e-09 -9.14711e-07 0)
(-2.27953e-09 -9.12508e-07 0)
(-2.30599e-09 -9.10254e-07 0)
(-2.33133e-09 -9.0795e-07 0)
(-2.35556e-09 -9.05596e-07 0)
(-2.37866e-09 -9.03193e-07 0)
(-2.40063e-09 -9.00741e-07 0)
(-2.42146e-09 -8.98239e-07 0)
(-2.44113e-09 -8.9569e-07 0)
(-2.45965e-09 -8.93092e-07 0)
(-2.47701e-09 -8.90447e-07 0)
(-2.4932e-09 -8.87756e-07 0)
(-2.50823e-09 -8.85018e-07 0)
(-2.52208e-09 -8.82234e-07 0)
(-2.53475e-09 -8.79405e-07 0)
(-2.54626e-09 -8.76532e-07 0)
(-2.55658e-09 -8.73615e-07 0)
(-2.56573e-09 -8.70656e-07 0)
(-2.57371e-09 -8.67654e-07 0)
(-2.58052e-09 -8.64611e-07 0)
(-2.58616e-09 -8.61527e-07 0)
(-2.59064e-09 -8.58404e-07 0)
(-2.59396e-09 -8.55243e-07 0)
(-2.59613e-09 -8.52043e-07 0)
(-2.59716e-09 -8.48807e-07 0)
(-2.59705e-09 -8.45536e-07 0)
(-2.59579e-09 -8.42227e-07 0)
(-2.59347e-09 -8.38891e-07 0)
(-2.5898e-09 -8.35482e-07 0)
(-2.58453e-09 -8.31718e-07 0)
(-2.57763e-09 -8.27596e-07 0)
(-2.56909e-09 -8.23402e-07 0)
(-2.55908e-09 -8.19231e-07 0)
(-2.54776e-09 -8.15101e-07 0)
(-2.53521e-09 -8.10996e-07 0)
(-2.52151e-09 -8.06906e-07 0)
(-2.50671e-09 -8.02837e-07 0)
(-2.49087e-09 -7.98793e-07 0)
(-2.47405e-09 -7.94776e-07 0)
(-2.45633e-09 -7.90788e-07 0)
(-2.43774e-09 -7.86828e-07 0)
(-2.41834e-09 -7.829e-07 0)
(-2.39819e-09 -7.79003e-07 0)
(-2.37732e-09 -7.7514e-07 0)
(-2.35579e-09 -7.71311e-07 0)
(-2.33363e-09 -7.67518e-07 0)
(-2.31089e-09 -7.63761e-07 0)
(-2.2876e-09 -7.60041e-07 0)
(-2.26381e-09 -7.56359e-07 0)
(-2.23954e-09 -7.52716e-07 0)
(-2.21482e-09 -7.49113e-07 0)
(-2.18969e-09 -7.4555e-07 0)
(-2.16418e-09 -7.42029e-07 0)
(-2.13831e-09 -7.38549e-07 0)
(-2.11211e-09 -7.3511e-07 0)
(-2.08559e-09 -7.31715e-07 0)
(-2.05879e-09 -7.28363e-07 0)
(-2.03172e-09 -7.25054e-07 0)
(-2.00439e-09 -7.2179e-07 0)
(-1.97684e-09 -7.18569e-07 0)
(-1.94908e-09 -7.15394e-07 0)
(-1.92111e-09 -7.12264e-07 0)
(-1.89295e-09 -7.09179e-07 0)
(-1.86463e-09 -7.06139e-07 0)
(-1.83614e-09 -7.03146e-07 0)
(-1.8075e-09 -7.00199e-07 0)
(-1.77872e-09 -6.97298e-07 0)
(-1.7498e-09 -6.94445e-07 0)
(-1.72077e-09 -6.91638e-07 0)
(-1.69162e-09 -6.88878e-07 0)
(-1.66235e-09 -6.86165e-07 0)
(-1.63299e-09 -6.83499e-07 0)
(-1.60352e-09 -6.80882e-07 0)
(-1.57397e-09 -6.78312e-07 0)
(-1.54432e-09 -6.7579e-07 0)
(-1.51459e-09 -6.73316e-07 0)
(-1.48477e-09 -6.7089e-07 0)
(-1.45488e-09 -6.68512e-07 0)
(-1.4249e-09 -6.66183e-07 0)
(-1.39486e-09 -6.63902e-07 0)
(-1.36474e-09 -6.6167e-07 0)
(-1.33454e-09 -6.59487e-07 0)
(-1.30428e-09 -6.57353e-07 0)
(-1.27394e-09 -6.55268e-07 0)
(-1.24354e-09 -6.53231e-07 0)
(-1.21307e-09 -6.51244e-07 0)
(-1.18253e-09 -6.49307e-07 0)
(-1.15192e-09 -6.47419e-07 0)
(-1.12124e-09 -6.4558e-07 0)
(-1.0905e-09 -6.43791e-07 0)
(-1.05969e-09 -6.42052e-07 0)
(-1.02881e-09 -6.40363e-07 0)
(-9.97864e-10 -6.38724e-07 0)
(-9.66853e-10 -6.37135e-07 0)
(-9.35775e-10 -6.35596e-07 0)
(-9.04631e-10 -6.34107e-07 0)
(-8.73422e-10 -6.32669e-07 0)
(-8.42148e-10 -6.31282e-07 0)
(-8.10809e-10 -6.29945e-07 0)
(-7.79406e-10 -6.28659e-07 0)
(-7.47941e-10 -6.27423e-07 0)
(-7.16414e-10 -6.26239e-07 0)
(-6.84825e-10 -6.25105e-07 0)
(-6.53177e-10 -6.24023e-07 0)
(-6.21471e-10 -6.22992e-07 0)
(-5.89709e-10 -6.22013e-07 0)
(-5.57892e-10 -6.21084e-07 0)
(-5.26021e-10 -6.20208e-07 0)
(-4.941e-10 -6.19383e-07 0)
(-4.6213e-10 -6.18609e-07 0)
(-4.30114e-10 -6.17887e-07 0)
(-3.98053e-10 -6.17217e-07 0)
(-3.65952e-10 -6.166e-07 0)
(-3.33812e-10 -6.16033e-07 0)
(-3.01636e-10 -6.15523e-07 0)
(-2.69427e-10 -6.15048e-07 0)
(-2.37194e-10 -6.14681e-07 0)
(-2.04915e-10 -6.1418e-07 0)
(-1.72677e-10 -6.14341e-07 0)
(-1.40213e-10 -6.12492e-07 0)
(-1.08424e-10 -6.17274e-07 0)
(-7.44361e-11 -5.98655e-07 0)
(-4.81302e-11 -6.47716e-07 0)
(-2.02043e-11 -5.65683e-07 0)
)
;
    }
    bottomWall
    {
        type            calculated;
        value           nonuniform List<vector> 
449
(
(-48.5294 -0.964063 0)
(-19.7503 -0.00515503 0)
(-14.3428 -0.00113481 0)
(-12.0332 -0.000545509 0)
(-10.627 -0.00035152 0)
(-9.63313 -0.000256013 0)
(-8.875 -0.000198501 0)
(-8.27145 -0.000159828 0)
(-7.77598 -0.000132336 0)
(-7.35932 -0.000111987 0)
(-7.00228 -9.63857e-05 0)
(-6.69183 -8.40778e-05 0)
(-6.41866 -7.41592e-05 0)
(-6.17584 -6.6031e-05 0)
(-5.95813 -5.92735e-05 0)
(-5.76147 -5.35836e-05 0)
(-5.58265 -4.8739e-05 0)
(-5.41913 -4.45738e-05 0)
(-5.26883 -4.0962e-05 0)
(-5.13006 -3.78061e-05 0)
(-5.0014 -3.50296e-05 0)
(-4.88168 -3.25717e-05 0)
(-4.7699 -3.03835e-05 0)
(-4.66522 -2.84254e-05 0)
(-4.56692 -2.6665e-05 0)
(-4.47436 -2.50756e-05 0)
(-4.38701 -2.36348e-05 0)
(-4.30439 -2.23239e-05 0)
(-4.22609 -2.11272e-05 0)
(-4.15173 -2.00312e-05 0)
(-4.08101 -1.90245e-05 0)
(-4.01362 -1.80973e-05 0)
(-3.94932 -1.72411e-05 0)
(-3.88786 -1.64485e-05 0)
(-3.82906 -1.57131e-05 0)
(-3.77271 -1.50295e-05 0)
(-3.71865 -1.43925e-05 0)
(-3.66673 -1.37979e-05 0)
(-3.61682 -1.32419e-05 0)
(-3.56877 -1.27211e-05 0)
(-3.52248 -1.22324e-05 0)
(-3.47785 -1.17731e-05 0)
(-3.43477 -1.13409e-05 0)
(-3.39315 -1.09336e-05 0)
(-3.35292 -1.05492e-05 0)
(-3.314 -1.0186e-05 0)
(-3.27631 -9.84238e-06 0)
(-3.2398 -9.51689e-06 0)
(-3.2044 -9.20824e-06 0)
(-3.17005 -8.91525e-06 0)
(-3.13671 -8.63683e-06 0)
(-3.10432 -8.37199e-06 0)
(-3.07284 -8.11984e-06 0)
(-3.04223 -7.87954e-06 0)
(-3.01245 -7.65033e-06 0)
(-2.98346 -7.43152e-06 0)
(-2.95523 -7.22246e-06 0)
(-2.92771 -7.02257e-06 0)
(-2.90089 -6.83128e-06 0)
(-2.87474 -6.6481e-06 0)
(-2.84921 -6.47255e-06 0)
(-2.8243 -6.30421e-06 0)
(-2.79998 -6.14267e-06 0)
(-2.77621 -5.98755e-06 0)
(-2.75299 -5.83851e-06 0)
(-2.73029 -5.69521e-06 0)
(-2.70809 -5.55737e-06 0)
(-2.68637 -5.42469e-06 0)
(-2.66512 -5.29691e-06 0)
(-2.64431 -5.17378e-06 0)
(-2.62394 -5.05508e-06 0)
(-2.60398 -4.94058e-06 0)
(-2.58443 -4.83008e-06 0)
(-2.56527 -4.7234e-06 0)
(-2.54648 -4.62034e-06 0)
(-2.52806 -4.52075e-06 0)
(-2.50999 -4.42446e-06 0)
(-2.49226 -4.33133e-06 0)
(-2.47486 -4.24121e-06 0)
(-2.45778 -4.15397e-06 0)
(-2.44101 -4.06948e-06 0)
(-2.42454 -3.98763e-06 0)
(-2.40836 -3.9083e-06 0)
(-2.39247 -3.83139e-06 0)
(-2.37684 -3.75679e-06 0)
(-2.36149 -3.68442e-06 0)
(-2.34639 -3.61418e-06 0)
(-2.33155 -3.54598e-06 0)
(-2.31695 -3.47975e-06 0)
(-2.30258 -3.4154e-06 0)
(-2.28845 -3.35287e-06 0)
(-2.27454 -3.29208e-06 0)
(-2.26086 -3.23297e-06 0)
(-2.24738 -3.17547e-06 0)
(-2.23411 -3.11953e-06 0)
(-2.22104 -3.06508e-06 0)
(-2.20817 -3.01208e-06 0)
(-2.1955 -2.96046e-06 0)
(-2.183 -2.91019e-06 0)
(-2.17069 -2.86121e-06 0)
(-2.15856 -2.81348e-06 0)
(-2.1466 -2.76695e-06 0)
(-2.13482 -2.72158e-06 0)
(-2.12319 -2.67734e-06 0)
(-2.11173 -2.63418e-06 0)
(-2.10042 -2.59207e-06 0)
(-2.08927 -2.55098e-06 0)
(-2.07827 -2.51087e-06 0)
(-2.06741 -2.4717e-06 0)
(-2.0567 -2.43346e-06 0)
(-2.04613 -2.3961e-06 0)
(-2.0357 -2.3596e-06 0)
(-2.0254 -2.32394e-06 0)
(-2.01523 -2.28909e-06 0)
(-2.00519 -2.25502e-06 0)
(-1.99527 -2.22171e-06 0)
(-1.98548 -2.18913e-06 0)
(-1.97581 -2.15727e-06 0)
(-1.96625 -2.1261e-06 0)
(-1.95681 -2.0956e-06 0)
(-1.94749 -2.06576e-06 0)
(-1.93827 -2.03655e-06 0)
(-1.92916 -2.00795e-06 0)
(-1.92016 -1.97996e-06 0)
(-1.91127 -1.95254e-06 0)
(-1.90247 -1.92569e-06 0)
(-1.89378 -1.89938e-06 0)
(-1.88518 -1.87361e-06 0)
(-1.87668 -1.84836e-06 0)
(-1.86827 -1.82361e-06 0)
(-1.85996 -1.79935e-06 0)
(-1.85174 -1.77557e-06 0)
(-1.8436 -1.75226e-06 0)
(-1.83556 -1.7294e-06 0)
(-1.8276 -1.70697e-06 0)
(-1.81972 -1.68498e-06 0)
(-1.81193 -1.6634e-06 0)
(-1.80422 -1.64224e-06 0)
(-1.79659 -1.62146e-06 0)
(-1.78903 -1.60108e-06 0)
(-1.78156 -1.58107e-06 0)
(-1.77416 -1.56143e-06 0)
(-1.76683 -1.54215e-06 0)
(-1.75958 -1.52321e-06 0)
(-1.7524 -1.50462e-06 0)
(-1.74529 -1.48636e-06 0)
(-1.73825 -1.46842e-06 0)
(-1.73127 -1.4508e-06 0)
(-1.72437 -1.43349e-06 0)
(-1.71753 -1.41649e-06 0)
(-1.71076 -1.39977e-06 0)
(-1.70405 -1.38334e-06 0)
(-1.6974 -1.3672e-06 0)
(-1.69081 -1.35133e-06 0)
(-1.68429 -1.33573e-06 0)
(-1.67782 -1.32039e-06 0)
(-1.67142 -1.3053e-06 0)
(-1.66507 -1.29047e-06 0)
(-1.65878 -1.27588e-06 0)
(-1.65254 -1.26153e-06 0)
(-1.64636 -1.24741e-06 0)
(-1.64024 -1.23353e-06 0)
(-1.63417 -1.21986e-06 0)
(-1.62815 -1.20642e-06 0)
(-1.62219 -1.19319e-06 0)
(-1.61627 -1.18018e-06 0)
(-1.61041 -1.16736e-06 0)
(-1.60459 -1.15476e-06 0)
(-1.59883 -1.14237e-06 0)
(-1.59311 -1.13004e-06 0)
(-1.58744 -1.11835e-06 0)
(-1.58182 -1.10624e-06 0)
(-1.57625 -1.0931e-06 0)
(-1.57103 -1.08292e-06 0)
(-1.56613 -1.0747e-06 0)
(-1.56122 -1.06434e-06 0)
(-1.5563 -1.05365e-06 0)
(-1.55138 -1.04364e-06 0)
(-1.54646 -1.0336e-06 0)
(-1.54153 -1.02368e-06 0)
(-1.53659 -1.01383e-06 0)
(-1.53165 -1.00403e-06 0)
(-1.5267 -9.94304e-07 0)
(-1.52174 -9.84631e-07 0)
(-1.51678 -9.75014e-07 0)
(-1.51182 -9.65454e-07 0)
(-1.50685 -9.55948e-07 0)
(-1.50188 -9.46498e-07 0)
(-1.4969 -9.37102e-07 0)
(-1.49192 -9.27762e-07 0)
(-1.48694 -9.18478e-07 0)
(-1.48195 -9.09249e-07 0)
(-1.47696 -9.00075e-07 0)
(-1.47196 -8.90958e-07 0)
(-1.46696 -8.81897e-07 0)
(-1.46196 -8.72893e-07 0)
(-1.45696 -8.63945e-07 0)
(-1.45195 -8.55054e-07 0)
(-1.44694 -8.4622e-07 0)
(-1.44193 -8.37444e-07 0)
(-1.43692 -8.28725e-07 0)
(-1.43191 -8.20064e-07 0)
(-1.42689 -8.11461e-07 0)
(-1.42187 -8.02917e-07 0)
(-1.41686 -7.9443e-07 0)
(-1.41184 -7.86002e-07 0)
(-1.40682 -7.77633e-07 0)
(-1.4018 -7.69322e-07 0)
(-1.39678 -7.61071e-07 0)
(-1.39176 -7.52878e-07 0)
(-1.38674 -7.44745e-07 0)
(-1.38172 -7.3667e-07 0)
(-1.3767 -7.28655e-07 0)
(-1.37169 -7.207e-07 0)
(-1.36667 -7.12804e-07 0)
(-1.36165 -7.04967e-07 0)
(-1.35664 -6.9719e-07 0)
(-1.35163 -6.89472e-07 0)
(-1.34661 -6.81815e-07 0)
(-1.3416 -6.74216e-07 0)
(-1.3366 -6.66678e-07 0)
(-1.33159 -6.59199e-07 0)
(-1.32659 -6.5178e-07 0)
(-1.32159 -6.4442e-07 0)
(-1.31659 -6.3712e-07 0)
(-1.3116 -6.29879e-07 0)
(-1.30661 -6.22698e-07 0)
(-1.30162 -6.15576e-07 0)
(-1.29664 -6.08514e-07 0)
(-1.29166 -6.01511e-07 0)
(-1.28668 -5.94567e-07 0)
(-1.28171 -5.87682e-07 0)
(-1.27674 -5.80857e-07 0)
(-1.27177 -5.7409e-07 0)
(-1.26682 -5.67382e-07 0)
(-1.26186 -5.60733e-07 0)
(-1.25691 -5.54142e-07 0)
(-1.25197 -5.4761e-07 0)
(-1.24703 -5.41136e-07 0)
(-1.24209 -5.3472e-07 0)
(-1.23717 -5.28362e-07 0)
(-1.23224 -5.22061e-07 0)
(-1.22733 -5.15819e-07 0)
(-1.22242 -5.09634e-07 0)
(-1.21751 -5.03506e-07 0)
(-1.21262 -4.97435e-07 0)
(-1.20772 -4.91421e-07 0)
(-1.20284 -4.85464e-07 0)
(-1.19796 -4.79563e-07 0)
(-1.19309 -4.73718e-07 0)
(-1.18823 -4.67929e-07 0)
(-1.18337 -4.62197e-07 0)
(-1.17852 -4.56519e-07 0)
(-1.17368 -4.50897e-07 0)
(-1.16885 -4.4533e-07 0)
(-1.16402 -4.39818e-07 0)
(-1.15921 -4.34361e-07 0)
(-1.1544 -4.28957e-07 0)
(-1.1496 -4.23608e-07 0)
(-1.1448 -4.18312e-07 0)
(-1.14002 -4.1307e-07 0)
(-1.13524 -4.07882e-07 0)
(-1.13048 -4.02746e-07 0)
(-1.12572 -3.97663e-07 0)
(-1.12097 -3.92632e-07 0)
(-1.11623 -3.87653e-07 0)
(-1.1115 -3.82726e-07 0)
(-1.10678 -3.7785e-07 0)
(-1.10207 -3.73026e-07 0)
(-1.09737 -3.68252e-07 0)
(-1.09267 -3.63529e-07 0)
(-1.08799 -3.58857e-07 0)
(-1.08332 -3.54234e-07 0)
(-1.07866 -3.49661e-07 0)
(-1.07401 -3.45137e-07 0)
(-1.06937 -3.40662e-07 0)
(-1.06474 -3.36236e-07 0)
(-1.06012 -3.31858e-07 0)
(-1.05551 -3.27528e-07 0)
(-1.05091 -3.23246e-07 0)
(-1.04632 -3.19011e-07 0)
(-1.04174 -3.14823e-07 0)
(-1.03718 -3.10681e-07 0)
(-1.03262 -3.06586e-07 0)
(-1.02808 -3.02537e-07 0)
(-1.02355 -2.98534e-07 0)
(-1.01903 -2.94575e-07 0)
(-1.01452 -2.90662e-07 0)
(-1.01002 -2.86794e-07 0)
(-1.00553 -2.82969e-07 0)
(-1.00106 -2.79189e-07 0)
(-0.996597 -2.75452e-07 0)
(-0.992147 -2.71758e-07 0)
(-0.987709 -2.68107e-07 0)
(-0.983282 -2.64499e-07 0)
(-0.978868 -2.60933e-07 0)
(-0.974466 -2.57408e-07 0)
(-0.970077 -2.53925e-07 0)
(-0.9657 -2.50483e-07 0)
(-0.961335 -2.47082e-07 0)
(-0.956983 -2.43722e-07 0)
(-0.952643 -2.40401e-07 0)
(-0.948316 -2.3712e-07 0)
(-0.944002 -2.33879e-07 0)
(-0.939701 -2.30676e-07 0)
(-0.935412 -2.27512e-07 0)
(-0.931136 -2.24387e-07 0)
(-0.926874 -2.21299e-07 0)
(-0.922624 -2.18249e-07 0)
(-0.918387 -2.15236e-07 0)
(-0.914164 -2.12261e-07 0)
(-0.909953 -2.09321e-07 0)
(-0.905756 -2.06418e-07 0)
(-0.901572 -2.03551e-07 0)
(-0.897402 -2.0072e-07 0)
(-0.893244 -1.97923e-07 0)
(-0.889101 -1.95162e-07 0)
(-0.88497 -1.92435e-07 0)
(-0.880853 -1.89742e-07 0)
(-0.87675 -1.87083e-07 0)
(-0.87266 -1.84457e-07 0)
(-0.868584 -1.81865e-07 0)
(-0.864522 -1.79305e-07 0)
(-0.860473 -1.76778e-07 0)
(-0.856438 -1.74283e-07 0)
(-0.852416 -1.7182e-07 0)
(-0.848409 -1.69389e-07 0)
(-0.844415 -1.66989e-07 0)
(-0.840435 -1.64619e-07 0)
(-0.836469 -1.6228e-07 0)
(-0.832517 -1.59972e-07 0)
(-0.828578 -1.57693e-07 0)
(-0.824654 -1.55444e-07 0)
(-0.820744 -1.53224e-07 0)
(-0.816847 -1.51033e-07 0)
(-0.812965 -1.4887e-07 0)
(-0.809097 -1.46736e-07 0)
(-0.805242 -1.4463e-07 0)
(-0.801402 -1.42552e-07 0)
(-0.797576 -1.40501e-07 0)
(-0.793764 -1.38477e-07 0)
(-0.789966 -1.3648e-07 0)
(-0.786182 -1.34509e-07 0)
(-0.782412 -1.32565e-07 0)
(-0.778657 -1.30646e-07 0)
(-0.774916 -1.28753e-07 0)
(-0.771188 -1.26884e-07 0)
(-0.767475 -1.25041e-07 0)
(-0.763777 -1.23221e-07 0)
(-0.760092 -1.21427e-07 0)
(-0.756422 -1.19653e-07 0)
(-0.752766 -1.17866e-07 0)
(-0.749126 -1.16228e-07 0)
(-0.745494 -1.14601e-07 0)
(-0.741472 -1.12615e-07 0)
(-0.73711 -1.10507e-07 0)
(-0.732827 -1.08607e-07 0)
(-0.728613 -1.0681e-07 0)
(-0.724471 -1.05001e-07 0)
(-0.720399 -1.03227e-07 0)
(-0.716395 -1.01498e-07 0)
(-0.712458 -9.98154e-08 0)
(-0.708586 -9.8178e-08 0)
(-0.704778 -9.65843e-08 0)
(-0.70103 -9.50329e-08 0)
(-0.697343 -9.35224e-08 0)
(-0.693714 -9.20514e-08 0)
(-0.690142 -9.06185e-08 0)
(-0.686625 -8.92224e-08 0)
(-0.683162 -8.78617e-08 0)
(-0.679751 -8.65352e-08 0)
(-0.676392 -8.52417e-08 0)
(-0.673083 -8.39801e-08 0)
(-0.669822 -8.27492e-08 0)
(-0.666609 -8.15481e-08 0)
(-0.663442 -8.03758e-08 0)
(-0.660321 -7.92312e-08 0)
(-0.657244 -7.81136e-08 0)
(-0.65421 -7.7022e-08 0)
(-0.651219 -7.59555e-08 0)
(-0.648268 -7.49134e-08 0)
(-0.645358 -7.3895e-08 0)
(-0.642487 -7.28994e-08 0)
(-0.639655 -7.19259e-08 0)
(-0.63686 -7.0974e-08 0)
(-0.634103 -7.00428e-08 0)
(-0.631381 -6.91319e-08 0)
(-0.628694 -6.82405e-08 0)
(-0.626042 -6.73682e-08 0)
(-0.623424 -6.65143e-08 0)
(-0.620839 -6.56783e-08 0)
(-0.618286 -6.48598e-08 0)
(-0.615765 -6.40581e-08 0)
(-0.613275 -6.32729e-08 0)
(-0.610815 -6.25036e-08 0)
(-0.608385 -6.17498e-08 0)
(-0.605984 -6.10112e-08 0)
(-0.603612 -6.02872e-08 0)
(-0.601268 -5.95774e-08 0)
(-0.598951 -5.88816e-08 0)
(-0.596662 -5.81993e-08 0)
(-0.594398 -5.75302e-08 0)
(-0.592161 -5.68739e-08 0)
(-0.589949 -5.62301e-08 0)
(-0.587762 -5.55984e-08 0)
(-0.5856 -5.49787e-08 0)
(-0.583461 -5.43705e-08 0)
(-0.581346 -5.37736e-08 0)
(-0.579254 -5.31877e-08 0)
(-0.577185 -5.26125e-08 0)
(-0.575138 -5.20478e-08 0)
(-0.573114 -5.14934e-08 0)
(-0.57111 -5.0949e-08 0)
(-0.569128 -5.04143e-08 0)
(-0.567166 -4.98892e-08 0)
(-0.565225 -4.93734e-08 0)
(-0.563304 -4.88669e-08 0)
(-0.561402 -4.83692e-08 0)
(-0.55952 -4.78804e-08 0)
(-0.557657 -4.74001e-08 0)
(-0.555812 -4.69284e-08 0)
(-0.553985 -4.64649e-08 0)
(-0.552177 -4.60096e-08 0)
(-0.550386 -4.55624e-08 0)
(-0.548613 -4.51232e-08 0)
(-0.546856 -4.46918e-08 0)
(-0.545116 -4.42683e-08 0)
(-0.543393 -4.38526e-08 0)
(-0.541686 -4.34447e-08 0)
(-0.539994 -4.30446e-08 0)
(-0.538318 -4.26525e-08 0)
(-0.536658 -4.22686e-08 0)
(-0.535012 -4.18932e-08 0)
(-0.53338 -4.15266e-08 0)
(-0.531763 -4.11695e-08 0)
(-0.53016 -4.08228e-08 0)
(-0.52857 -4.04879e-08 0)
(-0.526992 -4.01661e-08 0)
(-0.525428 -3.98605e-08 0)
(-0.523874 -3.95836e-08 0)
(-0.522331 -3.93054e-08 0)
(-0.520799 -3.90846e-08 0)
(-0.519273 -3.91432e-08 0)
(-0.517737 -3.84695e-08 0)
(-0.516264 -3.75995e-08 0)
(-0.514796 -4.97105e-08 0)
(-0.512375 -1.38605e-08 0)
(-0.513723 -3.66585e-08 0)
(-0.509464 -5.5366e-08 0)
)
;
    }
    symmetry
    {
        type            symmetryPlane;
    }
    frontAndBack
    {
        type            empty;
    }
}


// ************************************************************************* //
