/*--------------------------------*- C++ -*----------------------------------*\
| =========                 |                                                 |
| \\      /  F ield         | OpenFOAM: The Open Source CFD Toolbox           |
|  \\    /   O peration     | Version:  v2012                                 |
|   \\  /    A nd           | Website:  www.openfoam.com                      |
|    \\/     M anipulation  |                                                 |
\*---------------------------------------------------------------------------*/
FoamFile
{
    version     2.0;
    format      ascii;
    class       volScalarField;
    location    "58";
    object      k;
}
// * * * * * * * * * * * * * * * * * * * * * * * * * * * * * * * * * * * * * //

dimensions      [0 2 -2 0 0 0 0];


internalField   nonuniform List<scalar> 
209825
(
0.00102389
0.000932298
0.000856708
0.000793239
0.000739834
0.000694888
0.000657237
0.000625609
0.000599056
0.000576585
0.000557532
0.00054121
0.000527199
0.000515043
0.00050448
0.000495212
0.000487065
0.000479848
0.000473439
0.000467717
0.000462585
0.000457977
0.000453804
0.000450043
0.000446604
0.000443496
0.000440629
0.000438035
0.000435619
0.000433435
0.000431378
0.000429525
0.000427761
0.000426177
0.000424651
0.00042329
0.000421962
0.000420786
0.000419623
0.000418601
0.000417578
0.000416687
0.000415781
0.000415002
0.000414198
0.000413515
0.000412796
0.000412196
0.000411553
0.000411025
0.000410446
0.000409982
0.000409459
0.000409047
0.000408578
0.000408211
0.000407788
0.000407462
0.000407082
0.000406792
0.000406447
0.000406191
0.000405877
0.000405651
0.000405366
0.000405164
0.000404906
0.000404726
0.000404493
0.000404333
0.000404121
0.000403978
0.000403789
0.000403663
0.000403487
0.000403369
0.000403201
0.000403091
0.00040293
0.000402826
0.000402673
0.000402574
0.000402429
0.000402336
0.0004022
0.000402113
0.000401986
0.000401911
0.000401789
0.000401725
0.000401639
0.000401495
0.000401584
0.000407978
0.000428518
0.00103063
0.00102389
0.000932298
0.000856708
0.000793239
0.000739834
0.000694887
0.000657236
0.000625608
0.000599054
0.000576582
0.000557529
0.000541207
0.000527195
0.000515039
0.000504475
0.000495206
0.000487059
0.000479842
0.000473433
0.000467711
0.000462578
0.00045797
0.000453797
0.000450035
0.000446596
0.000443489
0.000440621
0.000438027
0.00043561
0.000433427
0.00043137
0.000429517
0.000427752
0.000426168
0.000424642
0.000423281
0.000421953
0.000420776
0.000419614
0.000418592
0.000417568
0.000416678
0.000415772
0.000414993
0.000414188
0.000413505
0.000412786
0.000412186
0.000411543
0.000411015
0.000410436
0.000409972
0.000409449
0.000409037
0.000408567
0.000408201
0.000407778
0.000407452
0.000407071
0.000406782
0.000406437
0.000406181
0.000405867
0.00040564
0.000405356
0.000405154
0.000404895
0.000404716
0.000404483
0.000404323
0.000404111
0.000403967
0.000403778
0.000403652
0.000403476
0.000403358
0.00040319
0.00040308
0.00040292
0.000402815
0.000402662
0.000402563
0.000402418
0.000402325
0.000402189
0.000402102
0.000401975
0.0004019
0.000401778
0.000401714
0.000401628
0.000401484
0.000401574
0.000407979
0.000428513
0.0010312
0.00102389
0.000932298
0.000856708
0.00079324
0.000739834
0.000694886
0.000657233
0.000625602
0.000599047
0.000576572
0.000557516
0.000541192
0.000527178
0.00051502
0.000504455
0.000495184
0.000487036
0.000479818
0.000473406
0.000467683
0.00046255
0.000457941
0.000453767
0.000450004
0.000446564
0.000443456
0.000440588
0.000437993
0.000435576
0.000433392
0.000431334
0.000429481
0.000427716
0.000426132
0.000424605
0.000423244
0.000421916
0.000420739
0.000419576
0.000418554
0.00041753
0.000416639
0.000415733
0.000414953
0.000414148
0.000413465
0.000412747
0.000412146
0.000411502
0.000410975
0.000410395
0.000409931
0.000409408
0.000408996
0.000408526
0.00040816
0.000407737
0.000407411
0.00040703
0.00040674
0.000406395
0.000406139
0.000405825
0.000405598
0.000405314
0.000405111
0.000404853
0.000404673
0.00040444
0.00040428
0.000404068
0.000403924
0.000403735
0.00040361
0.000403434
0.000403315
0.000403148
0.000403037
0.000402877
0.000402772
0.000402619
0.00040252
0.000402375
0.000402282
0.000402146
0.000402059
0.000401932
0.000401857
0.000401734
0.00040167
0.000401585
0.00040144
0.000401531
0.00040796
0.000428482
0.00103237
0.00102389
0.000932298
0.000856709
0.000793241
0.000739834
0.000694884
0.000657228
0.000625593
0.000599033
0.000576555
0.000557495
0.000541167
0.00052715
0.000514988
0.00050442
0.000495147
0.000486996
0.000479776
0.000473362
0.000467638
0.000462502
0.000457892
0.000453716
0.000449952
0.000446511
0.000443402
0.000440532
0.000437937
0.000435519
0.000433334
0.000431275
0.000429421
0.000427655
0.000426071
0.000424544
0.000423181
0.000421853
0.000420675
0.000419512
0.000418489
0.000417465
0.000416574
0.000415667
0.000414888
0.000414082
0.000413399
0.00041268
0.000412079
0.000411435
0.000410907
0.000410328
0.000409863
0.00040934
0.000408928
0.000408458
0.000408091
0.000407668
0.000407341
0.00040696
0.00040667
0.000406325
0.000406069
0.000405755
0.000405528
0.000405243
0.000405041
0.000404782
0.000404603
0.000404369
0.000404209
0.000403997
0.000403853
0.000403664
0.000403538
0.000403362
0.000403244
0.000403076
0.000402965
0.000402805
0.0004027
0.000402547
0.000402448
0.000402302
0.000402209
0.000402073
0.000401986
0.000401859
0.000401784
0.000401661
0.000401597
0.000401511
0.000401367
0.000401459
0.000407924
0.000428426
0.0010339
0.00102389
0.000932298
0.00085671
0.000793242
0.000739834
0.000694881
0.00065722
0.00062558
0.000599015
0.00057653
0.000557465
0.000541131
0.000527109
0.000514944
0.000504371
0.000495094
0.00048694
0.000479716
0.0004733
0.000467573
0.000462435
0.000457822
0.000453644
0.000449879
0.000446436
0.000443325
0.000440454
0.000437858
0.000435438
0.000433252
0.000431192
0.000429337
0.00042757
0.000425985
0.000424457
0.000423094
0.000421764
0.000420586
0.000419422
0.000418399
0.000417374
0.000416482
0.000415575
0.000414795
0.000413989
0.000413305
0.000412586
0.000411985
0.00041134
0.000410812
0.000410232
0.000409767
0.000409244
0.000408831
0.000408361
0.000407994
0.00040757
0.000407244
0.000406862
0.000406572
0.000406226
0.00040597
0.000405656
0.000405429
0.000405144
0.000404941
0.000404682
0.000404503
0.000404269
0.000404109
0.000403896
0.000403752
0.000403563
0.000403437
0.000403261
0.000403142
0.000402974
0.000402863
0.000402703
0.000402598
0.000402445
0.000402346
0.0004022
0.000402107
0.000401971
0.000401883
0.000401756
0.000401681
0.000401558
0.000401494
0.000401408
0.000401264
0.000401357
0.000407873
0.000428348
0.00103563
0.00102389
0.000932298
0.000856711
0.000793243
0.000739834
0.000694877
0.000657211
0.000625564
0.00059899
0.000576499
0.000557426
0.000541086
0.000527057
0.000514886
0.000504308
0.000495026
0.000486867
0.000479639
0.00047322
0.000467489
0.000462348
0.000457732
0.000453552
0.000449784
0.000446339
0.000443226
0.000440353
0.000437754
0.000435333
0.000433145
0.000431085
0.000429228
0.00042746
0.000425873
0.000424344
0.00042298
0.00042165
0.000420471
0.000419306
0.000418282
0.000417256
0.000416364
0.000415455
0.000414675
0.000413868
0.000413184
0.000412464
0.000411862
0.000411217
0.000410689
0.000410108
0.000409643
0.000409119
0.000408706
0.000408235
0.000407868
0.000407444
0.000407117
0.000406735
0.000406445
0.000406099
0.000405842
0.000405527
0.0004053
0.000405015
0.000404812
0.000404553
0.000404373
0.000404139
0.000403979
0.000403766
0.000403622
0.000403432
0.000403307
0.00040313
0.000403011
0.000402843
0.000402732
0.000402571
0.000402466
0.000402313
0.000402214
0.000402068
0.000401974
0.000401838
0.00040175
0.000401623
0.000401548
0.000401425
0.00040136
0.000401274
0.00040113
0.000401225
0.000407808
0.000428246
0.0010375
0.00102389
0.000932297
0.000856712
0.000793245
0.000739834
0.000694872
0.000657199
0.000625543
0.000598961
0.00057646
0.000557378
0.000541029
0.000526993
0.000514814
0.00050423
0.000494942
0.000486778
0.000479545
0.00047312
0.000467385
0.000462241
0.000457621
0.000453438
0.000449667
0.000446219
0.000443103
0.000440228
0.000437627
0.000435204
0.000433014
0.000430952
0.000429094
0.000427324
0.000425736
0.000424205
0.00042284
0.000421508
0.000420328
0.000419162
0.000418137
0.00041711
0.000416217
0.000415308
0.000414527
0.000413719
0.000413034
0.000412313
0.000411711
0.000411066
0.000410536
0.000409955
0.000409489
0.000408965
0.000408552
0.00040808
0.000407712
0.000407288
0.000406961
0.000406579
0.000406288
0.000405941
0.000405685
0.000405369
0.000405142
0.000404856
0.000404653
0.000404394
0.000404213
0.000403979
0.000403819
0.000403606
0.000403461
0.000403271
0.000403145
0.000402968
0.00040285
0.000402681
0.00040257
0.000402409
0.000402304
0.00040215
0.00040205
0.000401904
0.000401811
0.000401674
0.000401587
0.000401459
0.000401384
0.00040126
0.000401195
0.00040111
0.000400965
0.000401062
0.000407727
0.00042812
0.00103944
0.00102389
0.000932297
0.000856713
0.000793247
0.000739834
0.000694867
0.000657184
0.000625519
0.000598925
0.000576413
0.000557321
0.000540962
0.000526917
0.000514729
0.000504137
0.000494842
0.000486671
0.000479432
0.000473002
0.000467262
0.000462113
0.000457489
0.000453302
0.000449527
0.000446076
0.000442957
0.000440079
0.000437476
0.00043505
0.000432858
0.000430793
0.000428933
0.000427162
0.000425572
0.00042404
0.000422673
0.00042134
0.000420158
0.000418991
0.000417965
0.000416937
0.000416043
0.000415132
0.00041435
0.000413542
0.000412856
0.000412134
0.000411531
0.000410885
0.000410355
0.000409773
0.000409306
0.000408781
0.000408367
0.000407895
0.000407527
0.000407102
0.000406774
0.000406392
0.0004061
0.000405753
0.000405496
0.00040518
0.000404953
0.000404667
0.000404463
0.000404203
0.000404023
0.000403788
0.000403627
0.000403414
0.000403269
0.000403079
0.000402953
0.000402776
0.000402657
0.000402488
0.000402376
0.000402215
0.00040211
0.000401955
0.000401856
0.000401709
0.000401616
0.000401479
0.000401391
0.000401263
0.000401188
0.000401064
0.000400999
0.000400913
0.000400769
0.000400868
0.000407633
0.000427971
0.00104131
0.00102389
0.000932297
0.000856715
0.00079325
0.000739834
0.00069486
0.000657168
0.000625491
0.000598884
0.000576359
0.000557255
0.000540884
0.000526828
0.000514631
0.000504029
0.000494725
0.000486547
0.000479301
0.000472865
0.000467119
0.000461964
0.000457336
0.000453143
0.000449365
0.000445909
0.000442787
0.000439906
0.0004373
0.000434871
0.000432676
0.000430609
0.000428747
0.000426973
0.000425381
0.000423847
0.000422478
0.000421143
0.000419961
0.000418792
0.000417764
0.000416735
0.000415839
0.000414928
0.000414144
0.000413335
0.000412648
0.000411925
0.000411322
0.000410674
0.000410143
0.000409561
0.000409093
0.000408568
0.000408153
0.00040768
0.000407311
0.000406886
0.000406557
0.000406174
0.000405882
0.000405535
0.000405277
0.000404961
0.000404733
0.000404446
0.000404242
0.000403982
0.000403801
0.000403566
0.000403405
0.000403191
0.000403046
0.000402855
0.000402729
0.000402551
0.000402432
0.000402263
0.000402151
0.000401989
0.000401884
0.000401729
0.000401629
0.000401482
0.000401389
0.000401251
0.000401163
0.000401035
0.000400959
0.000400835
0.00040077
0.000400684
0.00040054
0.000400641
0.000407524
0.000427799
0.00104294
0.00102389
0.000932297
0.000856717
0.000793253
0.000739834
0.000694853
0.00065715
0.000625459
0.000598838
0.000576298
0.000557179
0.000540795
0.000526727
0.000514518
0.000503906
0.000494593
0.000486405
0.000479151
0.000472708
0.000466955
0.000461794
0.00045716
0.000452962
0.000449179
0.000445719
0.000442593
0.000439708
0.000437098
0.000434666
0.000432469
0.000430398
0.000428533
0.000426757
0.000425163
0.000423626
0.000422256
0.000420919
0.000419734
0.000418564
0.000417534
0.000416504
0.000415607
0.000414694
0.000413909
0.000413098
0.00041241
0.000411686
0.000411082
0.000410433
0.000409902
0.000409318
0.00040885
0.000408323
0.000407908
0.000407434
0.000407064
0.000406638
0.000406309
0.000405925
0.000405633
0.000405284
0.000405026
0.000404709
0.000404481
0.000404194
0.000403989
0.000403728
0.000403547
0.000403312
0.00040315
0.000402936
0.00040279
0.000402599
0.000402473
0.000402294
0.000402175
0.000402005
0.000401893
0.000401731
0.000401625
0.00040147
0.00040137
0.000401223
0.000401129
0.000400991
0.000400903
0.000400774
0.000400698
0.000400573
0.000400508
0.000400422
0.000400278
0.000400383
0.000407403
0.000427603
0.00104404
0.00102389
0.000932296
0.000856719
0.000793256
0.000739834
0.000694845
0.000657129
0.000625423
0.000598786
0.000576229
0.000557095
0.000540696
0.000526613
0.000514391
0.000503767
0.000494443
0.000486246
0.000478983
0.000472531
0.00046677
0.000461603
0.000456962
0.000452759
0.00044897
0.000445505
0.000442374
0.000439484
0.000436871
0.000434435
0.000432234
0.000430161
0.000428293
0.000426513
0.000424917
0.000423378
0.000422005
0.000420666
0.000419479
0.000418307
0.000417276
0.000416243
0.000415345
0.00041443
0.000413644
0.000412832
0.000412142
0.000411417
0.000410811
0.000410161
0.000409629
0.000409044
0.000408575
0.000408047
0.000407631
0.000407156
0.000406786
0.000406359
0.000406029
0.000405644
0.000405351
0.000405002
0.000404744
0.000404426
0.000404197
0.000403909
0.000403704
0.000403443
0.000403261
0.000403025
0.000402863
0.000402648
0.000402502
0.000402311
0.000402183
0.000402005
0.000401885
0.000401715
0.000401602
0.00040144
0.000401334
0.000401178
0.000401078
0.00040093
0.000400836
0.000400697
0.000400609
0.000400479
0.000400403
0.000400278
0.000400212
0.000400126
0.000399982
0.000400091
0.000407268
0.000427382
0.00104423
0.00102389
0.000932296
0.000856721
0.00079326
0.000739835
0.000694836
0.000657106
0.000625383
0.000598728
0.000576153
0.000557001
0.000540585
0.000526486
0.00051425
0.000503613
0.000494277
0.000486068
0.000478795
0.000472334
0.000466565
0.000461389
0.000456742
0.000452532
0.000448736
0.000445266
0.00044213
0.000439236
0.000436618
0.000434178
0.000431973
0.000429896
0.000428024
0.000426242
0.000424642
0.000423101
0.000421725
0.000420384
0.000419195
0.00041802
0.000416987
0.000415952
0.000415052
0.000414136
0.000413348
0.000412534
0.000411843
0.000411117
0.00041051
0.000409858
0.000409324
0.000408738
0.000408268
0.000407739
0.000407322
0.000406846
0.000406475
0.000406047
0.000405717
0.000405331
0.000405037
0.000404687
0.000404428
0.000404109
0.00040388
0.000403591
0.000403386
0.000403124
0.000402941
0.000402704
0.000402542
0.000402327
0.00040218
0.000401988
0.000401861
0.000401681
0.000401561
0.00040139
0.000401278
0.000401115
0.000401008
0.000400852
0.000400752
0.000400603
0.000400509
0.00040037
0.000400281
0.000400151
0.000400075
0.000399949
0.000399882
0.000399796
0.000399652
0.000399766
0.00040712
0.000427137
0.00104321
0.00102389
0.000932295
0.000856724
0.000793264
0.000739835
0.000694826
0.000657081
0.000625339
0.000598664
0.000576069
0.000556897
0.000540463
0.000526347
0.000514095
0.000503443
0.000494093
0.000485872
0.000478588
0.000472116
0.000466338
0.000461154
0.000456498
0.000452281
0.000448479
0.000445003
0.000441861
0.000438961
0.000436338
0.000433893
0.000431684
0.000429603
0.000427728
0.000425942
0.000424339
0.000422794
0.000421416
0.000420072
0.00041888
0.000417703
0.000416668
0.000415631
0.000414729
0.00041381
0.000413021
0.000412205
0.000411513
0.000410784
0.000410176
0.000409523
0.000408988
0.0004084
0.000407929
0.000407399
0.000406981
0.000406504
0.000406132
0.000405703
0.000405371
0.000404984
0.00040469
0.000404339
0.000404079
0.00040376
0.000403529
0.00040324
0.000403034
0.000402771
0.000402588
0.00040235
0.000402187
0.000401971
0.000401825
0.000401632
0.000401504
0.000401324
0.000401204
0.000401032
0.000400919
0.000400755
0.000400648
0.000400492
0.000400391
0.000400242
0.000400147
0.000400007
0.000399918
0.000399787
0.000399711
0.000399585
0.000399517
0.000399431
0.000399287
0.000399406
0.000406959
0.000426867
0.00104097
0.00102388
0.000932295
0.000856727
0.000793268
0.000739835
0.000694815
0.000657054
0.000625292
0.000598595
0.000575977
0.000556784
0.000540329
0.000526194
0.000513925
0.000503257
0.000493892
0.000485658
0.000478361
0.000471878
0.00046609
0.000460896
0.000456231
0.000452006
0.000448197
0.000444714
0.000441566
0.00043866
0.000436031
0.000433582
0.000431368
0.000429282
0.000427403
0.000425613
0.000424007
0.000422459
0.000421077
0.00041973
0.000418536
0.000417356
0.000416318
0.000415278
0.000414374
0.000413454
0.000412662
0.000411844
0.00041115
0.00041042
0.00040981
0.000409156
0.000408619
0.00040803
0.000407558
0.000407026
0.000406607
0.000406128
0.000405755
0.000405325
0.000404993
0.000404604
0.000404309
0.000403957
0.000403696
0.000403376
0.000403145
0.000402854
0.000402648
0.000402384
0.0004022
0.000401962
0.000401798
0.000401582
0.000401435
0.000401241
0.000401113
0.000400932
0.000400811
0.000400639
0.000400525
0.000400361
0.000400253
0.000400096
0.000399995
0.000399845
0.00039975
0.00039961
0.00039952
0.000399389
0.000399312
0.000399185
0.000399117
0.00039903
0.000398887
0.000399012
0.000406785
0.000426571
0.00103753
0.00102388
0.000932294
0.000856729
0.000793273
0.000739836
0.000694804
0.000657025
0.00062524
0.00059852
0.000575878
0.000556662
0.000540184
0.000526029
0.00051374
0.000503055
0.000493674
0.000485425
0.000478115
0.000471619
0.00046582
0.000460615
0.000455941
0.000451707
0.00044789
0.000444399
0.000441244
0.000438332
0.000435697
0.000433242
0.000431023
0.000428933
0.000427049
0.000425255
0.000423645
0.000422093
0.000420708
0.000419357
0.00041816
0.000416977
0.000415936
0.000414894
0.000413988
0.000413065
0.000412271
0.000411451
0.000410755
0.000410023
0.000409411
0.000408755
0.000408217
0.000407626
0.000407152
0.000406619
0.000406199
0.000405719
0.000405345
0.000404913
0.00040458
0.00040419
0.000403894
0.000403541
0.000403279
0.000402957
0.000402725
0.000402434
0.000402227
0.000401962
0.000401778
0.000401538
0.000401374
0.000401157
0.000401009
0.000400815
0.000400686
0.000400505
0.000400383
0.00040021
0.000400096
0.000399931
0.000399823
0.000399665
0.000399563
0.000399413
0.000399317
0.000399176
0.000399087
0.000398954
0.000398877
0.000398749
0.000398681
0.000398593
0.000398451
0.000398582
0.000406598
0.000426248
0.00103291
0.00102388
0.000932294
0.000856733
0.000793278
0.000739837
0.000694792
0.000656993
0.000625185
0.000598439
0.000575771
0.000556529
0.000540028
0.00052585
0.000513541
0.000502836
0.000493438
0.000485173
0.000477848
0.00047134
0.000465527
0.000460312
0.000455627
0.000451384
0.000447558
0.000444059
0.000440896
0.000437977
0.000435336
0.000432874
0.00043065
0.000428554
0.000426666
0.000424867
0.000423253
0.000421696
0.000420308
0.000418953
0.000417753
0.000416567
0.000415523
0.000414478
0.000413569
0.000412643
0.000411848
0.000411025
0.000410327
0.000409593
0.000408979
0.000408321
0.000407781
0.000407188
0.000406713
0.000406178
0.000405756
0.000405275
0.0004049
0.000404466
0.000404132
0.000403741
0.000403444
0.000403089
0.000402827
0.000402504
0.000402271
0.000401979
0.000401771
0.000401505
0.00040132
0.000401079
0.000400915
0.000400696
0.000400548
0.000400353
0.000400223
0.000400041
0.000399919
0.000399745
0.000399631
0.000399465
0.000399356
0.000399198
0.000399095
0.000398944
0.000398848
0.000398706
0.000398616
0.000398483
0.000398405
0.000398277
0.000398208
0.00039812
0.000397978
0.000398116
0.000406398
0.000425897
0.00102714
0.00102388
0.000932293
0.000856736
0.000793284
0.000739838
0.000694779
0.00065696
0.000625126
0.000598352
0.000575657
0.000556388
0.000539861
0.000525659
0.000513327
0.000502602
0.000493185
0.000484902
0.000477562
0.000471038
0.000465213
0.000459985
0.000455289
0.000451035
0.0004472
0.000443692
0.000440521
0.000437594
0.000434946
0.000432478
0.000430248
0.000428146
0.000426253
0.000424449
0.00042283
0.000421269
0.000419877
0.000418518
0.000417314
0.000416124
0.000415078
0.00041403
0.000413118
0.000412189
0.000411391
0.000410566
0.000409866
0.000409129
0.000408513
0.000407853
0.000407311
0.000406716
0.00040624
0.000405703
0.000405279
0.000404796
0.00040442
0.000403985
0.000403649
0.000403257
0.000402958
0.000402602
0.000402339
0.000402015
0.000401781
0.000401487
0.000401278
0.000401011
0.000400826
0.000400584
0.000400419
0.000400199
0.00040005
0.000399854
0.000399724
0.000399541
0.000399419
0.000399244
0.000399129
0.000398962
0.000398853
0.000398693
0.000398591
0.000398439
0.000398342
0.000398199
0.000398109
0.000397974
0.000397897
0.000397767
0.000397697
0.000397609
0.000397468
0.000397613
0.000406184
0.000425518
0.00102025
0.00102388
0.000932292
0.000856739
0.00079329
0.000739839
0.000694766
0.000656925
0.000625064
0.00059826
0.000575535
0.000556237
0.000539682
0.000525454
0.000513098
0.00050235
0.000492913
0.000484612
0.000477254
0.000470716
0.000464876
0.000459635
0.000454927
0.000450662
0.000446816
0.000443298
0.000440119
0.000437184
0.000434529
0.000432053
0.000429817
0.000427709
0.000425809
0.000424
0.000422376
0.000420811
0.000419414
0.000418051
0.000416843
0.00041565
0.0004146
0.000413548
0.000412633
0.000411701
0.000410901
0.000410073
0.00040937
0.000408631
0.000408013
0.00040735
0.000406807
0.00040621
0.000405731
0.000405192
0.000404767
0.000404282
0.000403904
0.000403467
0.000403131
0.000402737
0.000402437
0.00040208
0.000401815
0.000401489
0.000401255
0.00040096
0.00040075
0.000400482
0.000400295
0.000400052
0.000399886
0.000399666
0.000399516
0.000399319
0.000399188
0.000399004
0.000398881
0.000398705
0.00039859
0.000398422
0.000398312
0.000398152
0.000398048
0.000397895
0.000397798
0.000397654
0.000397564
0.000397428
0.00039735
0.00039722
0.000397149
0.00039706
0.00039692
0.000397074
0.000405954
0.000425107
0.00101227
0.00102388
0.000932291
0.000856743
0.000793296
0.00073984
0.000694752
0.000656887
0.000624998
0.000598163
0.000575405
0.000556076
0.000539491
0.000525236
0.000512854
0.000502083
0.000492624
0.000484303
0.000476927
0.000470371
0.000464516
0.000459261
0.00045454
0.000450263
0.000446406
0.000442878
0.000439689
0.000436745
0.000434082
0.000431599
0.000429355
0.000427241
0.000425336
0.00042352
0.000421891
0.000420321
0.000418919
0.000417552
0.00041634
0.000415142
0.000414088
0.000413033
0.000412115
0.00041118
0.000410376
0.000409545
0.00040884
0.000408098
0.000407478
0.000406812
0.000406267
0.000405667
0.000405187
0.000404646
0.000404219
0.000403732
0.000403353
0.000402914
0.000402576
0.00040218
0.000401879
0.00040152
0.000401254
0.000400927
0.000400691
0.000400395
0.000400184
0.000399915
0.000399727
0.000399483
0.000399316
0.000399094
0.000398944
0.000398746
0.000398615
0.00039843
0.000398306
0.000398129
0.000398012
0.000397844
0.000397734
0.000397572
0.000397468
0.000397314
0.000397216
0.000397072
0.00039698
0.000396844
0.000396765
0.000396634
0.000396562
0.000396473
0.000396333
0.000396496
0.000405708
0.000424663
0.00100324
0.00102388
0.00093229
0.000856747
0.000793303
0.000739842
0.000694738
0.000656848
0.000624928
0.00059806
0.000575268
0.000555905
0.000539289
0.000525004
0.000512594
0.000501798
0.000492316
0.000483974
0.000476578
0.000470005
0.000464133
0.000458863
0.000454128
0.000449838
0.000445969
0.000442431
0.000439232
0.000436278
0.000433606
0.000431116
0.000428864
0.000426743
0.000424831
0.000423009
0.000421374
0.000419798
0.000418391
0.000417019
0.000415803
0.000414601
0.000413543
0.000412484
0.000411562
0.000410624
0.000409817
0.000408983
0.000408275
0.000407529
0.000406907
0.000406239
0.000405691
0.000405089
0.000404607
0.000404064
0.000403635
0.000403146
0.000402764
0.000402324
0.000401984
0.000401587
0.000401284
0.000400924
0.000400656
0.000400328
0.000400091
0.000399793
0.000399581
0.00039931
0.000399121
0.000398876
0.000398708
0.000398485
0.000398334
0.000398135
0.000398003
0.000397817
0.000397692
0.000397514
0.000397397
0.000397227
0.000397116
0.000396954
0.000396849
0.000396694
0.000396596
0.00039645
0.000396358
0.00039622
0.000396141
0.000396009
0.000395936
0.000395847
0.000395707
0.00039588
0.000405445
0.000424184
0.000993221
0.00102388
0.000932289
0.000856751
0.00079331
0.000739843
0.000694723
0.000656807
0.000624855
0.000597951
0.000575124
0.000555726
0.000539076
0.000524759
0.00051232
0.000501497
0.00049199
0.000483626
0.000476209
0.000469616
0.000463727
0.000458441
0.000453691
0.000449388
0.000445506
0.000441956
0.000438746
0.000435783
0.000433102
0.000430602
0.000428343
0.000426213
0.000424294
0.000422466
0.000420825
0.000419243
0.000417831
0.000416454
0.000415233
0.000414026
0.000412964
0.000411901
0.000410975
0.000410033
0.000409223
0.000408385
0.000407674
0.000406926
0.000406301
0.000405629
0.000405079
0.000404475
0.00040399
0.000403445
0.000403014
0.000402523
0.000402139
0.000401697
0.000401355
0.000400956
0.000400652
0.000400289
0.000400021
0.000399691
0.000399452
0.000399153
0.00039894
0.000398667
0.000398478
0.000398231
0.000398062
0.000397838
0.000397686
0.000397485
0.000397353
0.000397165
0.00039704
0.000396861
0.000396743
0.000396571
0.00039646
0.000396296
0.000396191
0.000396035
0.000395936
0.000395789
0.000395697
0.000395557
0.000395478
0.000395345
0.000395271
0.00039518
0.000395042
0.000395225
0.000405162
0.000423667
0.000982247
0.00102388
0.000932288
0.000856755
0.000793318
0.000739845
0.000694708
0.000656765
0.000624778
0.000597838
0.000574972
0.000555536
0.000538851
0.000524501
0.000512031
0.00050118
0.000491646
0.000483258
0.000475819
0.000469206
0.000463298
0.000457995
0.000453229
0.000448911
0.000445016
0.000441454
0.000438233
0.000435258
0.000432567
0.000430058
0.00042779
0.000425653
0.000423727
0.000421891
0.000420244
0.000418656
0.000417238
0.000415855
0.000414629
0.000413417
0.000412351
0.000411283
0.000410353
0.000409407
0.000408593
0.000407752
0.000407038
0.000406286
0.000405658
0.000404983
0.000404431
0.000403823
0.000403336
0.000402788
0.000402355
0.000401862
0.000401477
0.000401032
0.000400689
0.000400287
0.000399982
0.000399617
0.000399347
0.000399015
0.000398775
0.000398474
0.00039826
0.000397986
0.000397795
0.000397547
0.000397377
0.000397151
0.000396998
0.000396797
0.000396663
0.000396474
0.000396348
0.000396167
0.000396049
0.000395876
0.000395764
0.000395599
0.000395493
0.000395336
0.000395236
0.000395088
0.000394995
0.000394855
0.000394774
0.00039464
0.000394565
0.000394474
0.000394336
0.000394531
0.000404855
0.00042311
0.000970374
0.00102388
0.000932287
0.000856759
0.000793326
0.000739848
0.000694692
0.00065672
0.000624698
0.000597719
0.000574812
0.000555338
0.000538615
0.00052423
0.000511727
0.000500845
0.000491284
0.00048287
0.000475407
0.000468773
0.000462845
0.000457524
0.000452742
0.000448408
0.000444499
0.000440923
0.00043769
0.000434704
0.000432003
0.000429484
0.000427207
0.000425061
0.000423127
0.000421284
0.00041963
0.000418035
0.000416611
0.000415222
0.00041399
0.000412773
0.000411702
0.000410629
0.000409696
0.000408745
0.000407928
0.000407082
0.000406365
0.000405609
0.000404978
0.000404301
0.000403745
0.000403135
0.000402645
0.000402095
0.000401659
0.000401163
0.000400776
0.000400329
0.000399984
0.00039958
0.000399273
0.000398906
0.000398635
0.0003983
0.000398059
0.000397756
0.000397541
0.000397265
0.000397073
0.000396823
0.000396652
0.000396425
0.000396271
0.000396068
0.000395934
0.000395743
0.000395616
0.000395435
0.000395315
0.000395141
0.000395028
0.000394862
0.000394755
0.000394596
0.000394496
0.000394346
0.000394253
0.000394111
0.00039403
0.000393895
0.000393819
0.000393727
0.00039359
0.000393796
0.000404518
0.000422513
0.000957659
0.00102388
0.000932285
0.000856764
0.000793334
0.00073985
0.000694676
0.000656675
0.000624615
0.000597594
0.000574646
0.00055513
0.000538367
0.000523945
0.000511408
0.000500494
0.000490903
0.000482462
0.000474975
0.000468318
0.000462369
0.000457029
0.000452229
0.000447879
0.000443955
0.000440365
0.000437119
0.000434121
0.000431408
0.000428879
0.000426592
0.000424437
0.000422495
0.000420644
0.000418982
0.00041738
0.00041595
0.000414554
0.000413317
0.000412094
0.000411019
0.000409941
0.000409003
0.000408047
0.000407226
0.000406376
0.000405655
0.000404896
0.000404262
0.00040358
0.000403022
0.000402409
0.000401916
0.000401363
0.000400925
0.000400426
0.000400037
0.000399587
0.00039924
0.000398834
0.000398525
0.000398156
0.000397883
0.000397547
0.000397304
0.000396999
0.000396782
0.000396505
0.000396311
0.00039606
0.000395888
0.000395659
0.000395504
0.0003953
0.000395164
0.000394972
0.000394844
0.000394661
0.000394541
0.000394365
0.000394252
0.000394084
0.000393977
0.000393816
0.000393715
0.000393564
0.00039347
0.000393327
0.000393245
0.000393109
0.000393032
0.000392938
0.000392803
0.000393021
0.000404147
0.000421872
0.00094416
0.00102387
0.000932284
0.000856768
0.000793343
0.000739853
0.000694659
0.000656627
0.000624529
0.000597465
0.000574472
0.000554913
0.000538108
0.000523647
0.000511074
0.000500126
0.000490505
0.000482035
0.000474522
0.000467841
0.00046187
0.000456509
0.00045169
0.000447323
0.000443383
0.000439778
0.000436518
0.000433508
0.000430783
0.000428243
0.000425946
0.000423782
0.00042183
0.000419971
0.000418301
0.000416692
0.000415255
0.000413853
0.000412609
0.00041138
0.000410299
0.000409216
0.000408273
0.000407313
0.000406487
0.000405633
0.000404908
0.000404145
0.000403508
0.000402823
0.000402261
0.000401644
0.000401149
0.000400592
0.000400152
0.000399651
0.000399259
0.000398806
0.000398457
0.000398048
0.000397738
0.000397366
0.000397092
0.000396753
0.000396509
0.000396202
0.000395984
0.000395704
0.00039551
0.000395256
0.000395083
0.000394852
0.000394696
0.00039449
0.000394354
0.000394161
0.000394032
0.000393847
0.000393725
0.000393549
0.000393434
0.000393265
0.000393157
0.000392995
0.000392893
0.00039274
0.000392646
0.0003925
0.000392418
0.00039228
0.000392202
0.000392108
0.000391973
0.000392204
0.000403733
0.000421187
0.000929936
0.00102387
0.000932283
0.000856773
0.000793352
0.000739857
0.000694642
0.000656578
0.000624439
0.000597331
0.000574292
0.000554687
0.000537839
0.000523336
0.000510724
0.000499742
0.000490087
0.000481588
0.000474047
0.000467341
0.000461346
0.000455964
0.000451126
0.00044674
0.000442783
0.000439163
0.000435889
0.000432865
0.000430128
0.000427576
0.000425268
0.000423093
0.000421133
0.000419264
0.000417587
0.000415969
0.000414525
0.000413116
0.000411866
0.000410631
0.000409544
0.000408455
0.000407507
0.000406542
0.000405712
0.000404853
0.000404124
0.000403356
0.000402715
0.000402026
0.000401462
0.000400841
0.000400343