/*--------------------------------*- C++ -*----------------------------------*\
| =========                 |                                                 |
| \\      /  F ield         | OpenFOAM: The Open Source CFD Toolbox           |
|  \\    /   O peration     | Version:  v2012                                 |
|   \\  /    A nd           | Website:  www.openfoam.com                      |
|    \\/     M anipulation  |                                                 |
\*---------------------------------------------------------------------------*/
FoamFile
{
    version     2.0;
    format      ascii;
    class       volScalarField;
    location    "58";
    object      nut;
}
// * * * * * * * * * * * * * * * * * * * * * * * * * * * * * * * * * * * * * //

dimensions      [0 2 -1 0 0 0 0];


internalField   nonuniform List<scalar> 
209825
(
1.23931e-07
1.23152e-07
1.22395e-07
1.21311e-07
1.1986e-07
1.18125e-07
1.16295e-07
1.14461e-07
1.12733e-07
1.11117e-07
1.09658e-07
1.08322e-07
1.07134e-07
1.0605e-07
1.0509e-07
1.04212e-07
1.03434e-07
1.02719e-07
1.02084e-07
1.01498e-07
1.00975e-07
1.00489e-07
1.00054e-07
9.96487e-08
9.92844e-08
9.89428e-08
9.86343e-08
9.83448e-08
9.80818e-08
9.78345e-08
9.76081e-08
9.73956e-08
9.71994e-08
9.70157e-08
9.68446e-08
9.66849e-08
9.65345e-08
9.6395e-08
9.62621e-08
9.61401e-08
9.60212e-08
9.5914e-08
9.58082e-08
9.57132e-08
9.56177e-08
9.5534e-08
9.54477e-08
9.53744e-08
9.52953e-08
9.52304e-08
9.51576e-08
9.50997e-08
9.50311e-08
9.49804e-08
9.49183e-08
9.48722e-08
9.48155e-08
9.4774e-08
9.47228e-08
9.46852e-08
9.46366e-08
9.46014e-08
9.45573e-08
9.45247e-08
9.44833e-08
9.44533e-08
9.44158e-08
9.43884e-08
9.43536e-08
9.43273e-08
9.42943e-08
9.42697e-08
9.42394e-08
9.42177e-08
9.41899e-08
9.41706e-08
9.41443e-08
9.41258e-08
9.40999e-08
9.40815e-08
9.40558e-08
9.40375e-08
9.40124e-08
9.39941e-08
9.39697e-08
9.39502e-08
9.39231e-08
9.3902e-08
9.38734e-08
9.3852e-08
9.3832e-08
9.37845e-08
9.37891e-08
9.46637e-08
9.69994e-08
9.11532e-09
1.23931e-07
1.23152e-07
1.22395e-07
1.21311e-07
1.1986e-07
1.18126e-07
1.16295e-07
1.14462e-07
1.12734e-07
1.11118e-07
1.09659e-07
1.08323e-07
1.07135e-07
1.06051e-07
1.05091e-07
1.04213e-07
1.03435e-07
1.0272e-07
1.02085e-07
1.01498e-07
1.00976e-07
1.0049e-07
1.00055e-07
9.96495e-08
9.92851e-08
9.89436e-08
9.86351e-08
9.83455e-08
9.80826e-08
9.78352e-08
9.76088e-08
9.73963e-08
9.72001e-08
9.70164e-08
9.68453e-08
9.66856e-08
9.65351e-08
9.63956e-08
9.62627e-08
9.61407e-08
9.60218e-08
9.59146e-08
9.58088e-08
9.57138e-08
9.56183e-08
9.55346e-08
9.54482e-08
9.53749e-08
9.52958e-08
9.52309e-08
9.51582e-08
9.51003e-08
9.50317e-08
9.49809e-08
9.49189e-08
9.48728e-08
9.4816e-08
9.47745e-08
9.47234e-08
9.46857e-08
9.46371e-08
9.4602e-08
9.45579e-08
9.45252e-08
9.44838e-08
9.44538e-08
9.44163e-08
9.43889e-08
9.43541e-08
9.43278e-08
9.42948e-08
9.42702e-08
9.42399e-08
9.42182e-08
9.41904e-08
9.41711e-08
9.41448e-08
9.41263e-08
9.41004e-08
9.4082e-08
9.40563e-08
9.4038e-08
9.40129e-08
9.39946e-08
9.39702e-08
9.39507e-08
9.39236e-08
9.39025e-08
9.38738e-08
9.38525e-08
9.38325e-08
9.3785e-08
9.37897e-08
9.46659e-08
9.70004e-08
9.3945e-09
1.23931e-07
1.23152e-07
1.22395e-07
1.21312e-07
1.19861e-07
1.18127e-07
1.16297e-07
1.14464e-07
1.12736e-07
1.1112e-07
1.09661e-07
1.08325e-07
1.07137e-07
1.06053e-07
1.05093e-07
1.04215e-07
1.03437e-07
1.02722e-07
1.02087e-07
1.015e-07
1.00977e-07
1.00491e-07
1.00056e-07
9.96508e-08
9.92864e-08
9.89448e-08
9.86362e-08
9.83465e-08
9.80835e-08
9.78361e-08
9.76096e-08
9.73971e-08
9.72009e-08
9.70171e-08
9.6846e-08
9.66862e-08
9.65357e-08
9.63962e-08
9.62633e-08
9.61412e-08
9.60223e-08
9.5915e-08
9.58092e-08
9.57141e-08
9.56187e-08
9.55349e-08
9.54485e-08
9.53752e-08
9.52961e-08
9.52311e-08
9.51584e-08
9.51004e-08
9.50318e-08
9.49811e-08
9.4919e-08
9.48729e-08
9.48161e-08
9.47746e-08
9.47234e-08
9.46858e-08
9.46372e-08
9.4602e-08
9.45579e-08
9.45252e-08
9.44838e-08
9.44538e-08
9.44163e-08
9.43889e-08
9.4354e-08
9.43278e-08
9.42947e-08
9.42701e-08
9.42399e-08
9.42181e-08
9.41903e-08
9.4171e-08
9.41447e-08
9.41262e-08
9.41003e-08
9.40818e-08
9.40561e-08
9.40378e-08
9.40127e-08
9.39945e-08
9.397e-08
9.39505e-08
9.39235e-08
9.39024e-08
9.38737e-08
9.38523e-08
9.38324e-08
9.37848e-08
9.37896e-08
9.46693e-08
9.70014e-08
9.7412e-09
1.23931e-07
1.23152e-07
1.22395e-07
1.21312e-07
1.19863e-07
1.1813e-07
1.163e-07
1.14467e-07
1.12741e-07
1.11124e-07
1.09665e-07
1.08329e-07
1.07141e-07
1.06057e-07
1.05097e-07
1.04219e-07
1.03441e-07
1.02725e-07
1.0209e-07
1.01503e-07
1.0098e-07
1.00494e-07
1.00059e-07
9.96533e-08
9.92888e-08
9.8947e-08
9.86383e-08
9.83486e-08
9.80855e-08
9.78379e-08
9.76114e-08
9.73987e-08
9.72025e-08
9.70186e-08
9.68474e-08
9.66876e-08
9.6537e-08
9.63974e-08
9.62644e-08
9.61423e-08
9.60233e-08
9.59161e-08
9.58102e-08
9.57151e-08
9.56195e-08
9.55358e-08
9.54493e-08
9.5376e-08
9.52968e-08
9.52318e-08
9.51591e-08
9.51011e-08
9.50324e-08
9.49817e-08
9.49195e-08
9.48734e-08
9.48166e-08
9.47751e-08
9.47239e-08
9.46862e-08
9.46376e-08
9.46024e-08
9.45583e-08
9.45256e-08
9.44842e-08
9.44541e-08
9.44166e-08
9.43892e-08
9.43543e-08
9.4328e-08
9.4295e-08
9.42703e-08
9.42401e-08
9.42183e-08
9.41905e-08
9.41711e-08
9.41449e-08
9.41263e-08
9.41004e-08
9.4082e-08
9.40562e-08
9.40379e-08
9.40128e-08
9.39946e-08
9.39701e-08
9.39506e-08
9.39235e-08
9.39025e-08
9.38737e-08
9.38524e-08
9.38324e-08
9.3785e-08
9.37898e-08
9.46749e-08
9.70031e-08
1.01278e-08
1.23931e-07
1.23152e-07
1.22395e-07
1.21313e-07
1.19865e-07
1.18133e-07
1.16305e-07
1.14473e-07
1.12746e-07
1.1113e-07
1.09671e-07
1.08335e-07
1.07147e-07
1.06063e-07
1.05102e-07
1.04224e-07
1.03446e-07
1.0273e-07
1.02095e-07
1.01508e-07
1.00984e-07
1.00498e-07
1.00063e-07
9.96571e-08
9.92923e-08
9.89504e-08
9.86415e-08
9.83516e-08
9.80884e-08
9.78407e-08
9.76141e-08
9.74013e-08
9.72049e-08
9.70209e-08
9.68496e-08
9.66897e-08
9.65391e-08
9.63994e-08
9.62663e-08
9.61441e-08
9.60251e-08
9.59177e-08
9.58118e-08
9.57166e-08
9.5621e-08
9.55372e-08
9.54507e-08
9.53773e-08
9.52981e-08
9.52331e-08
9.51602e-08
9.51022e-08
9.50335e-08
9.49827e-08
9.49205e-08
9.48744e-08
9.48176e-08
9.4776e-08
9.47247e-08
9.4687e-08
9.46384e-08
9.46032e-08
9.4559e-08
9.45263e-08
9.44849e-08
9.44548e-08
9.44173e-08
9.43898e-08
9.43549e-08
9.43286e-08
9.42955e-08
9.42709e-08
9.42406e-08
9.42189e-08
9.4191e-08
9.41716e-08
9.41453e-08
9.41267e-08
9.41008e-08
9.40824e-08
9.40566e-08
9.40383e-08
9.40132e-08
9.39949e-08
9.39704e-08
9.39509e-08
9.39239e-08
9.39029e-08
9.38741e-08
9.38528e-08
9.38328e-08
9.37854e-08
9.37904e-08
9.46829e-08
9.70056e-08
1.05474e-08
1.23931e-07
1.23151e-07
1.22395e-07
1.21314e-07
1.19868e-07
1.18138e-07
1.16311e-07
1.1448e-07
1.12754e-07
1.11138e-07
1.09679e-07
1.08343e-07
1.07155e-07
1.0607e-07
1.0511e-07
1.04231e-07
1.03453e-07
1.02737e-07
1.02101e-07
1.01514e-07
1.0099e-07
1.00503e-07
1.00068e-07
9.96621e-08
9.92971e-08
9.8955e-08
9.86459e-08
9.83558e-08
9.80924e-08
9.78445e-08
9.76177e-08
9.74048e-08
9.72083e-08
9.70242e-08
9.68527e-08
9.66927e-08
9.65419e-08
9.64021e-08
9.6269e-08
9.61467e-08
9.60275e-08
9.59201e-08
9.5814e-08
9.57188e-08
9.56231e-08
9.55392e-08
9.54527e-08
9.53792e-08
9.52999e-08
9.52348e-08
9.51619e-08
9.51039e-08
9.50351e-08
9.49843e-08
9.4922e-08
9.48758e-08
9.4819e-08
9.47773e-08
9.47261e-08
9.46883e-08
9.46396e-08
9.46044e-08
9.45602e-08
9.45275e-08
9.4486e-08
9.44559e-08
9.44183e-08
9.43908e-08
9.43559e-08
9.43296e-08
9.42965e-08
9.42718e-08
9.42415e-08
9.42197e-08
9.41918e-08
9.41724e-08
9.41461e-08
9.41275e-08
9.41015e-08
9.40831e-08
9.40573e-08
9.4039e-08
9.40138e-08
9.39956e-08
9.3971e-08
9.39515e-08
9.39246e-08
9.39036e-08
9.38747e-08
9.38535e-08
9.38335e-08
9.37861e-08
9.37913e-08
9.46936e-08
9.70091e-08
1.09989e-08
1.23931e-07
1.23151e-07
1.22395e-07
1.21316e-07
1.19871e-07
1.18143e-07
1.16318e-07
1.14488e-07
1.12763e-07
1.11148e-07
1.09689e-07
1.08353e-07
1.07164e-07
1.0608e-07
1.05119e-07
1.0424e-07
1.03461e-07
1.02745e-07
1.02109e-07
1.01521e-07
1.00997e-07
1.0051e-07
1.00075e-07
9.96684e-08
9.93031e-08
9.89607e-08
9.86514e-08
9.83611e-08
9.80975e-08
9.78494e-08
9.76224e-08
9.74093e-08
9.72126e-08
9.70283e-08
9.68567e-08
9.66965e-08
9.65456e-08
9.64057e-08
9.62724e-08
9.615e-08
9.60307e-08
9.59231e-08
9.5817e-08
9.57216e-08
9.56259e-08
9.55419e-08
9.54552e-08
9.53817e-08
9.53023e-08
9.52372e-08
9.51642e-08
9.51061e-08
9.50373e-08
9.49863e-08
9.49241e-08
9.48778e-08
9.48209e-08
9.47792e-08
9.47278e-08
9.469e-08
9.46413e-08
9.4606e-08
9.45618e-08
9.45291e-08
9.44875e-08
9.44574e-08
9.44198e-08
9.43923e-08
9.43573e-08
9.4331e-08
9.42978e-08
9.42731e-08
9.42428e-08
9.4221e-08
9.4193e-08
9.41736e-08
9.41472e-08
9.41286e-08
9.41026e-08
9.40842e-08
9.40584e-08
9.404e-08
9.40148e-08
9.39965e-08
9.39719e-08
9.39525e-08
9.39256e-08
9.39046e-08
9.38757e-08
9.38545e-08
9.38345e-08
9.37872e-08
9.37926e-08
9.4707e-08
9.70134e-08
1.14825e-08
1.2393e-07
1.2315e-07
1.22395e-07
1.21318e-07
1.19876e-07
1.1815e-07
1.16327e-07
1.14498e-07
1.12774e-07
1.1116e-07
1.09701e-07
1.08365e-07
1.07176e-07
1.06091e-07
1.0513e-07
1.04251e-07
1.03472e-07
1.02755e-07
1.02119e-07
1.0153e-07
1.01006e-07
1.00519e-07
1.00083e-07
9.9676e-08
9.93104e-08
9.89678e-08
9.86582e-08
9.83675e-08
9.81037e-08
9.78553e-08
9.76281e-08
9.74147e-08
9.72178e-08
9.70333e-08
9.68616e-08
9.67012e-08
9.65501e-08
9.641e-08
9.62766e-08
9.6154e-08
9.60346e-08
9.59269e-08
9.58206e-08
9.57252e-08
9.56293e-08
9.55452e-08
9.54584e-08
9.53848e-08
9.53053e-08
9.52401e-08
9.5167e-08
9.51089e-08
9.504e-08
9.4989e-08
9.49266e-08
9.48803e-08
9.48233e-08
9.47815e-08
9.47301e-08
9.46923e-08
9.46435e-08
9.46082e-08
9.45639e-08
9.45311e-08
9.44895e-08
9.44593e-08
9.44217e-08
9.43941e-08
9.43591e-08
9.43327e-08
9.42996e-08
9.42748e-08
9.42444e-08
9.42226e-08
9.41946e-08
9.41751e-08
9.41487e-08
9.41301e-08
9.4104e-08
9.40856e-08
9.40597e-08
9.40414e-08
9.40161e-08
9.39978e-08
9.39732e-08
9.39537e-08
9.39269e-08
9.39059e-08
9.3877e-08
9.38559e-08
9.38358e-08
9.37886e-08
9.37944e-08
9.47234e-08
9.70185e-08
1.19989e-08
1.2393e-07
1.2315e-07
1.22395e-07
1.2132e-07
1.19881e-07
1.18158e-07
1.16337e-07
1.1451e-07
1.12788e-07
1.11173e-07
1.09715e-07
1.08379e-07
1.0719e-07
1.06105e-07
1.05143e-07
1.04263e-07
1.03484e-07
1.02767e-07
1.0213e-07
1.01541e-07
1.01016e-07
1.00529e-07
1.00092e-07
9.9685e-08
9.93191e-08
9.89761e-08
9.86661e-08
9.83752e-08
9.8111e-08
9.78624e-08
9.76349e-08
9.74212e-08
9.72241e-08
9.70394e-08
9.68674e-08
9.67068e-08
9.65555e-08
9.64153e-08
9.62816e-08
9.61589e-08
9.60393e-08
9.59315e-08
9.5825e-08
9.57295e-08
9.56334e-08
9.55492e-08
9.54623e-08
9.53886e-08
9.5309e-08
9.52437e-08
9.51705e-08
9.51122e-08
9.50432e-08
9.49922e-08
9.49297e-08
9.48833e-08
9.48262e-08
9.47844e-08
9.47329e-08
9.4695e-08
9.46462e-08
9.46108e-08
9.45664e-08
9.45336e-08
9.44919e-08
9.44617e-08
9.4424e-08
9.43964e-08
9.43613e-08
9.43349e-08
9.43017e-08
9.4277e-08
9.42465e-08
9.42247e-08
9.41966e-08
9.41771e-08
9.41506e-08
9.41319e-08
9.41058e-08
9.40873e-08
9.40614e-08
9.40431e-08
9.40178e-08
9.39995e-08
9.39747e-08
9.39553e-08
9.39285e-08
9.39076e-08
9.38786e-08
9.38575e-08
9.38374e-08
9.37903e-08
9.37965e-08
9.47429e-08
9.70245e-08
1.25485e-08
1.2393e-07
1.23149e-07
1.22395e-07
1.21322e-07
1.19886e-07
1.18167e-07
1.16349e-07
1.14524e-07
1.12803e-07
1.11189e-07
1.09731e-07
1.08395e-07
1.07206e-07
1.0612e-07
1.05158e-07
1.04278e-07
1.03498e-07
1.0278e-07
1.02143e-07
1.01553e-07
1.01028e-07
1.0054e-07
1.00103e-07
9.96955e-08
9.93291e-08
9.89857e-08
9.86754e-08
9.8384e-08
9.81195e-08
9.78706e-08
9.76427e-08
9.74288e-08
9.72314e-08
9.70464e-08
9.68742e-08
9.67133e-08
9.65618e-08
9.64213e-08
9.62875e-08
9.61646e-08
9.60448e-08
9.59368e-08
9.58302e-08
9.57345e-08
9.56383e-08
9.55539e-08
9.54669e-08
9.5393e-08
9.53133e-08
9.52479e-08
9.51746e-08
9.51162e-08
9.50471e-08
9.49959e-08
9.49334e-08
9.48869e-08
9.48297e-08
9.47878e-08
9.47362e-08
9.46982e-08
9.46493e-08
9.46139e-08
9.45694e-08
9.45365e-08
9.44948e-08
9.44645e-08
9.44268e-08
9.43991e-08
9.4364e-08
9.43376e-08
9.43043e-08
9.42795e-08
9.4249e-08
9.42271e-08
9.4199e-08
9.41794e-08
9.41529e-08
9.41342e-08
9.4108e-08
9.40895e-08
9.40635e-08
9.40451e-08
9.40198e-08
9.40015e-08
9.39766e-08
9.39573e-08
9.39305e-08
9.39097e-08
9.38806e-08
9.38596e-08
9.38395e-08
9.37925e-08
9.37991e-08
9.47657e-08
9.70312e-08
1.31314e-08
1.2393e-07
1.23148e-07
1.22395e-07
1.21325e-07
1.19893e-07
1.18177e-07
1.16362e-07
1.1454e-07
1.1282e-07
1.11207e-07
1.09749e-07
1.08413e-07
1.07224e-07
1.06138e-07
1.05175e-07
1.04294e-07
1.03514e-07
1.02795e-07
1.02157e-07
1.01567e-07
1.01042e-07
1.00553e-07
1.00116e-07
9.97074e-08
9.93406e-08
9.89966e-08
9.86859e-08
9.83942e-08
9.81292e-08
9.78799e-08
9.76517e-08
9.74375e-08
9.72397e-08
9.70544e-08
9.68819e-08
9.67208e-08
9.6569e-08
9.64283e-08
9.62942e-08
9.61711e-08
9.60512e-08
9.5943e-08
9.58361e-08
9.57402e-08
9.56439e-08
9.55594e-08
9.54721e-08
9.53981e-08
9.53183e-08
9.52527e-08
9.51793e-08
9.51208e-08
9.50516e-08
9.50003e-08
9.49376e-08
9.4891e-08
9.48337e-08
9.47917e-08
9.47401e-08
9.4702e-08
9.4653e-08
9.46175e-08
9.4573e-08
9.454e-08
9.44982e-08
9.44679e-08
9.443e-08
9.44023e-08
9.43671e-08
9.43407e-08
9.43073e-08
9.42825e-08
9.42519e-08
9.423e-08
9.42018e-08
9.41821e-08
9.41555e-08
9.41368e-08
9.41106e-08
9.4092e-08
9.4066e-08
9.40476e-08
9.40222e-08
9.40038e-08
9.39789e-08
9.39596e-08
9.39329e-08
9.39121e-08
9.38829e-08
9.3862e-08
9.38419e-08
9.3795e-08
9.38021e-08
9.4792e-08
9.70385e-08
1.3747e-08
1.2393e-07
1.23147e-07
1.22394e-07
1.21327e-07
1.199e-07
1.18188e-07
1.16377e-07
1.14557e-07
1.12839e-07
1.11227e-07
1.0977e-07
1.08434e-07
1.07244e-07
1.06157e-07
1.05194e-07
1.04313e-07
1.03531e-07
1.02812e-07
1.02174e-07
1.01583e-07
1.01057e-07
1.00567e-07
1.0013e-07
9.97208e-08
9.93535e-08
9.9009e-08
9.86978e-08
9.84056e-08
9.81402e-08
9.78905e-08
9.76619e-08
9.74473e-08
9.72492e-08
9.70635e-08
9.68907e-08
9.67293e-08
9.65772e-08
9.64363e-08
9.63019e-08
9.61786e-08
9.60583e-08
9.59499e-08
9.58429e-08
9.57468e-08
9.56502e-08
9.55656e-08
9.54781e-08
9.5404e-08
9.53239e-08
9.52582e-08
9.51846e-08
9.51261e-08
9.50567e-08
9.50053e-08
9.49425e-08
9.48958e-08
9.48384e-08
9.47963e-08
9.47445e-08
9.47063e-08
9.46573e-08
9.46216e-08
9.4577e-08
9.4544e-08
9.45021e-08
9.44717e-08
9.44338e-08
9.4406e-08
9.43707e-08
9.43442e-08
9.43108e-08
9.42859e-08
9.42553e-08
9.42333e-08
9.4205e-08
9.41853e-08
9.41586e-08
9.41398e-08
9.41136e-08
9.4095e-08
9.40689e-08
9.40505e-08
9.4025e-08
9.40066e-08
9.39816e-08
9.39623e-08
9.39357e-08
9.3915e-08
9.38856e-08
9.38648e-08
9.38447e-08
9.3798e-08
9.38056e-08
9.4822e-08
9.70463e-08
1.43947e-08
1.2393e-07
1.23146e-07
1.22394e-07
1.2133e-07
1.19907e-07
1.18201e-07
1.16393e-07
1.14576e-07
1.12859e-07
1.11249e-07
1.09792e-07
1.08456e-07
1.07266e-07
1.06179e-07
1.05216e-07
1.04333e-07
1.03551e-07
1.02832e-07
1.02192e-07
1.01601e-07
1.01074e-07
1.00584e-07
1.00145e-07
9.97358e-08
9.93678e-08
9.90228e-08
9.87111e-08
9.84183e-08
9.81525e-08
9.79023e-08
9.76733e-08
9.74582e-08
9.72597e-08
9.70737e-08
9.69005e-08
9.67388e-08
9.65864e-08
9.64451e-08
9.63105e-08
9.61869e-08
9.60664e-08
9.59577e-08
9.58505e-08
9.57542e-08
9.56574e-08
9.55725e-08
9.54849e-08
9.54105e-08
9.53303e-08
9.52645e-08
9.51907e-08
9.5132e-08
9.50625e-08
9.50109e-08
9.4948e-08
9.49011e-08
9.48436e-08
9.48014e-08
9.47495e-08
9.47112e-08
9.4662e-08
9.46263e-08
9.45816e-08
9.45485e-08
9.45066e-08
9.44761e-08
9.4438e-08
9.44102e-08
9.43748e-08
9.43483e-08
9.43148e-08
9.42899e-08
9.42591e-08
9.42371e-08
9.42087e-08
9.41889e-08
9.41621e-08
9.41433e-08
9.4117e-08
9.40983e-08
9.40722e-08
9.40537e-08
9.40282e-08
9.40097e-08
9.39846e-08
9.39654e-08
9.39388e-08
9.39182e-08
9.38888e-08
9.3868e-08
9.38479e-08
9.38013e-08
9.38096e-08
9.48557e-08
9.70545e-08
1.50766e-08
1.2393e-07
1.23145e-07
1.22394e-07
1.21334e-07
1.19916e-07
1.18214e-07
1.16411e-07
1.14597e-07
1.12882e-07
1.11273e-07
1.09817e-07
1.08481e-07
1.0729e-07
1.06203e-07
1.05239e-07
1.04356e-07
1.03573e-07
1.02853e-07
1.02213e-07
1.0162e-07
1.01093e-07
1.00602e-07
1.00162e-07
9.97523e-08
9.93837e-08
9.9038e-08
9.87257e-08
9.84324e-08
9.81661e-08
9.79153e-08
9.76859e-08
9.74703e-08
9.72714e-08
9.7085e-08
9.69115e-08
9.67493e-08
9.65966e-08
9.6455e-08
9.632e-08
9.61961e-08
9.60754e-08
9.59664e-08
9.58589e-08
9.57624e-08
9.56653e-08
9.55803e-08
9.54924e-08
9.54179e-08
9.53374e-08
9.52714e-08
9.51975e-08
9.51386e-08
9.50689e-08
9.50172e-08
9.49541e-08
9.49072e-08
9.48495e-08
9.48071e-08
9.4755e-08
9.47167e-08
9.46674e-08
9.46316e-08
9.45868e-08
9.45536e-08
9.45115e-08
9.44809e-08
9.44428e-08
9.44149e-08
9.43794e-08
9.43528e-08
9.43192e-08
9.42943e-08
9.42634e-08
9.42413e-08
9.42128e-08
9.4193e-08
9.41661e-08
9.41473e-08
9.41208e-08
9.41021e-08
9.40759e-08
9.40574e-08
9.40318e-08
9.40133e-08
9.39881e-08
9.39689e-08
9.39423e-08
9.39218e-08
9.38923e-08
9.38715e-08
9.38515e-08
9.38051e-08
9.38142e-08
9.48934e-08
9.70627e-08
1.57948e-08
1.2393e-07
1.23144e-07
1.22394e-07
1.21337e-07
1.19925e-07
1.18229e-07
1.16431e-07
1.1462e-07
1.12908e-07
1.11299e-07
1.09844e-07
1.08508e-07
1.07317e-07
1.06229e-07
1.05264e-07
1.04381e-07
1.03597e-07
1.02876e-07
1.02235e-07
1.01642e-07
1.01113e-07
1.00621e-07
1.00181e-07
9.97705e-08
9.94012e-08
9.90548e-08
9.87419e-08
9.84479e-08
9.8181e-08
9.79297e-08
9.76997e-08
9.74837e-08
9.72843e-08
9.70975e-08
9.69235e-08
9.6761e-08
9.66079e-08
9.64659e-08
9.63306e-08
9.62064e-08
9.60853e-08
9.59761e-08
9.58682e-08
9.57715e-08
9.56741e-08
9.55888e-08
9.55007e-08
9.5426e-08
9.53453e-08
9.52791e-08
9.5205e-08
9.5146e-08
9.50761e-08
9.50242e-08
9.49609e-08
9.49138e-08
9.4856e-08
9.48135e-08
9.47613e-08
9.47228e-08
9.46734e-08
9.46375e-08
9.45925e-08
9.45593e-08
9.45171e-08
9.44864e-08
9.44481e-08
9.44201e-08
9.43846e-08
9.43579e-08
9.43242e-08
9.42992e-08
9.42682e-08
9.42461e-08
9.42174e-08
9.41976e-08
9.41706e-08
9.41517e-08
9.41251e-08
9.41064e-08
9.40801e-08
9.40615e-08
9.40358e-08
9.40173e-08
9.39919e-08
9.39728e-08
9.39463e-08
9.39258e-08
9.38962e-08
9.38756e-08
9.38555e-08
9.38093e-08
9.38192e-08
9.49352e-08
9.70708e-08
1.65517e-08
1.2393e-07
1.23143e-07
1.22393e-07
1.21341e-07
1.19935e-07
1.18245e-07
1.16452e-07
1.14645e-07
1.12935e-07
1.11328e-07
1.09873e-07
1.08537e-07
1.07346e-07
1.06258e-07
1.05292e-07
1.04408e-07
1.03623e-07
1.02901e-07
1.02259e-07
1.01665e-07
1.01136e-07
1.00643e-07
1.00202e-07
9.97903e-08
9.94203e-08
9.90731e-08
9.87595e-08
9.84649e-08
9.81973e-08
9.79454e-08
9.77149e-08
9.74983e-08
9.72985e-08
9.71111e-08
9.69367e-08
9.67737e-08
9.66202e-08
9.64778e-08
9.63421e-08
9.62176e-08
9.60962e-08
9.59866e-08
9.58785e-08
9.57814e-08
9.56838e-08
9.55983e-08
9.55099e-08
9.54349e-08
9.5354e-08
9.52876e-08
9.52132e-08
9.5154e-08
9.5084e-08
9.50319e-08
9.49685e-08
9.49212e-08
9.48632e-08
9.48205e-08
9.47681e-08
9.47295e-08
9.468e-08
9.4644e-08
9.45988e-08
9.45655e-08
9.45232e-08
9.44924e-08
9.4454e-08
9.44259e-08
9.43902e-08
9.43635e-08
9.43297e-08
9.43047e-08
9.42736e-08
9.42514e-08
9.42226e-08
9.42026e-08
9.41755e-08
9.41565e-08
9.41299e-08
9.41111e-08
9.40847e-08
9.40661e-08
9.40403e-08
9.40218e-08
9.39963e-08
9.39771e-08
9.39507e-08
9.39303e-08
9.39006e-08
9.388e-08
9.38599e-08
9.3814e-08
9.38248e-08
9.49812e-08
9.70782e-08
1.73497e-08
1.2393e-07
1.23141e-07
1.22393e-07
1.21345e-07
1.19945e-07
1.18262e-07
1.16474e-07
1.14671e-07
1.12964e-07
1.11359e-07
1.09905e-07
1.08569e-07
1.07378e-07
1.06289e-07
1.05322e-07
1.04437e-07
1.03651e-07
1.02928e-07
1.02285e-07
1.0169e-07
1.0116e-07
1.00666e-07
1.00224e-07
9.98118e-08
9.9441e-08
9.9093e-08
9.87787e-08
9.84833e-08
9.82151e-08
9.79625e-08
9.77314e-08
9.75142e-08
9.73138e-08
9.71259e-08
9.6951e-08
9.67876e-08
9.66336e-08
9.64909e-08
9.63547e-08
9.62298e-08
9.6108e-08
9.59981e-08
9.58897e-08
9.57923e-08
9.56944e-08
9.56086e-08
9.55199e-08
9.54447e-08
9.53635e-08
9.52969e-08
9.52222e-08
9.51629e-08
9.50926e-08
9.50403e-08
9.49767e-08
9.49292e-08
9.4871e-08
9.48282e-08
9.47756e-08
9.47369e-08
9.46872e-08
9.46511e-08
9.46058e-08
9.45723e-08
9.45299e-08
9.4499e-08
9.44604e-08
9.44323e-08
9.43965e-08
9.43697e-08
9.43358e-08
9.43107e-08
9.42794e-08
9.42572e-08
9.42282e-08
9.42082e-08
9.4181e-08
9.41619e-08
9.41351e-08
9.41163e-08
9.40898e-08
9.40712e-08
9.40452e-08
9.40267e-08
9.4001e-08
9.39819e-08
9.39555e-08
9.39352e-08
9.39054e-08
9.38849e-08
9.38648e-08
9.38192e-08
9.3831e-08
9.50315e-08
9.13911e-08
1.81914e-08
1.2393e-07
1.2314e-07
1.22393e-07
1.2135e-07
1.19957e-07
1.1828e-07
1.16498e-07
1.147e-07
1.12995e-07
1.11392e-07
1.09939e-07
1.08603e-07
1.07412e-07
1.06322e-07
1.05355e-07
1.04468e-07
1.03682e-07
1.02957e-07
1.02314e-07
1.01717e-07
1.01186e-07
1.00691e-07
1.00249e-07
9.98351e-08
9.94634e-08
9.91146e-08
9.87995e-08
9.85033e-08
9.82344e-08
9.79811e-08
9.77493e-08
9.75315e-08
9.73305e-08
9.71421e-08
9.69666e-08
9.68027e-08
9.66482e-08
9.6505e-08
9.63684e-08
9.62431e-08
9.61209e-08
9.60107e-08
9.59018e-08
9.58041e-08
9.57059e-08
9.56198e-08
9.55307e-08
9.54553e-08
9.53738e-08
9.5307e-08
9.52321e-08
9.51725e-08
9.5102e-08
9.50495e-08
9.49857e-08
9.4938e-08
9.48796e-08
9.48366e-08
9.47838e-08
9.4745e-08
9.46951e-08
9.46588e-08
9.46134e-08
9.45798e-08
9.45372e-08
9.45062e-08
9.44675e-08
9.44392e-08
9.44033e-08
9.43764e-08
9.43424e-08
9.43172e-08
9.42859e-08
9.42635e-08
9.42344e-08
9.42143e-08
9.41869e-08
9.41678e-08
9.41409e-08
9.41221e-08
9.40954e-08
9.40768e-08
9.40507e-08
9.40321e-08
9.40063e-08
9.39872e-08
9.39608e-08
9.39406e-08
9.39107e-08
9.38902e-08
9.38702e-08
9.38249e-08
9.38378e-08
9.50862e-08
8.62609e-08
1.90797e-08
1.2393e-07
1.23138e-07
1.22392e-07
1.21354e-07
1.19968e-07
1.18299e-07
1.16524e-07
1.1473e-07
1.13029e-07
1.11427e-07
1.09975e-07
1.0864e-07
1.07448e-07
1.06358e-07
1.0539e-07
1.04502e-07
1.03715e-07
1.02989e-07
1.02344e-07
1.01747e-07
1.01214e-07
1.00718e-07
1.00275e-07
9.98602e-08
9.94876e-08
9.91378e-08
9.88219e-08
9.85248e-08
9.82552e-08
9.80011e-08
9.77687e-08
9.75502e-08
9.73486e-08
9.71595e-08
9.69834e-08
9.6819e-08
9.6664e-08
9.65203e-08
9.63833e-08
9.62575e-08
9.61349e-08
9.60242e-08
9.5915e-08
9.5817e-08
9.57183e-08
9.56319e-08
9.55425e-08
9.54668e-08
9.5385e-08
9.53179e-08
9.52427e-08
9.5183e-08
9.51122e-08
9.50595e-08
9.49954e-08
9.49476e-08
9.48889e-08
9.48458e-08
9.47927e-08
9.47538e-08
9.47037e-08
9.46673e-08
9.46217e-08
9.4588e-08
9.45452e-08
9.45141e-08
9.44752e-08
9.44468e-08
9.44108e-08
9.43838e-08
9.43496e-08
9.43244e-08
9.42929e-08
9.42704e-08
9.42412e-08
9.4221e-08
9.41934e-08
9.41742e-08
9.41472e-08
9.41283e-08
9.41015e-08
9.40828e-08
9.40566e-08
9.4038e-08
9.4012e-08
9.3993e-08
9.39665e-08
9.39464e-08
9.39164e-08
9.3896e-08
9.38761e-08
9.3831e-08
9.38451e-08
9.51454e-08
8.16884e-08
2.00173e-08
1.2393e-07
1.23137e-07
1.22392e-07
1.21359e-07
1.19981e-07
1.1832e-07
1.16551e-07
1.14762e-07
1.13065e-07
1.11465e-07
1.10014e-07
1.08679e-07
1.07487e-07
1.06396e-07
1.05427e-07
1.04538e-07
1.0375e-07
1.03023e-07
1.02377e-07
1.01778e-07
1.01245e-07
1.00748e-07
1.00303e-07
9.98872e-08
9.95136e-08
9.91628e-08
9.88459e-08
9.8548e-08
9.82775e-08
9.80227e-08
9.77895e-08
9.75702e-08
9.7368e-08
9.71782e-08
9.70016e-08
9.68365e-08
9.6681e-08
9.65368e-08
9.63992e-08
9.6273e-08
9.61499e-08
9.60389e-08
9.59292e-08
9.58308e-08
9.57318e-08
9.5645e-08
9.55553e-08
9.54793e-08
9.53971e-08
9.53298e-08
9.52543e-08
9.51943e-08
9.51232e-08
9.50703e-08
9.50059e-08
9.49579e-08
9.4899e-08
9.48556e-08
9.48024e-08
9.47632e-08
9.4713e-08
9.46764e-08
9.46306e-08
9.45968e-08
9.45539e-08
9.45226e-08
9.44835e-08
9.44551e-08
9.44188e-08
9.43918e-08
9.43575e-08
9.43321e-08
9.43005e-08
9.4278e-08
9.42486e-08
9.42282e-08
9.42005e-08
9.41813e-08
9.41541e-08
9.41351e-08
9.41082e-08
9.40894e-08
9.40631e-08
9.40445e-08
9.40183e-08
9.39993e-08
9.39727e-08
9.39528e-08
9.39227e-08
9.39023e-08
9.38825e-08
9.38377e-08
9.38531e-08
9.5209e-08
7.76068e-08
2.10072e-08
1.2393e-07
1.23135e-07
1.22391e-07
1.21364e-07
1.19994e-07
1.18341e-07
1.1658e-07
1.14796e-07
1.13103e-07
1.11505e-07
1.10055e-07
1.0872e-07
1.07528e-07
1.06436e-07
1.05467e-07
1.04577e-07
1.03787e-07
1.03059e-07
1.02412e-07
1.01812e-07
1.01277e-07
1.00779e-07
1.00333e-07
9.99161e-08
9.95414e-08
9.91896e-08
9.88718e-08
9.85728e-08
9.83015e-08
9.80458e-08
9.78118e-08
9.75918e-08
9.73888e-08
9.71983e-08
9.70211e-08
9.68554e-08
9.66993e-08
9.65545e-08
9.64164e-08
9.62897e-08
9.61661e-08
9.60546e-08
9.59445e-08
9.58457e-08
9.57462e-08
9.56591e-08
9.5569e-08
9.54926e-08
9.54102e-08
9.53425e-08
9.52667e-08
9.52065e-08
9.51351e-08
9.50819e-08
9.50173e-08
9.4969e-08
9.49099e-08
9.48663e-08
9.48128e-08
9.47735e-08
9.47231e-08
9.46863e-08
9.46403e-08
9.46063e-08
9.45632e-08
9.45318e-08
9.44926e-08
9.4464e-08
9.44276e-08
9.44004e-08
9.4366e-08
9.43405e-08
9.43087e-08
9.42861e-08
9.42565e-08
9.42361e-08
9.42082e-08
9.41888e-08
9.41615e-08
9.41425e-08
9.41154e-08
9.40966e-08
9.40701e-08
9.40514e-08
9.40251e-08
9.40061e-08
9.39794e-08
9.39596e-08
9.39294e-08
9.39092e-08
9.38894e-08
9.38449e-08
9.38618e-08
9.52771e-08
7.39591e-08
2.20523e-08
1.2393e-07
1.23133e-07
1.22391e-07
1.21369e-07
1.20008e-07
1.18364e-07
1.1661e-07
1.14833e-07
1.13143e-07
1.11548e-07
1.10099e-07
1.08764e-07
1.07572e-07
1.0648e-07
1.05509e-07
1.04618e-07
1.03827e-07
1.03098e-07
1.02449e-07
1.01848e-07
1.01312e-07
1.00812e-07
1.00365e-07
9.99469e-08
9.95712e-08
9.92182e-08
9.88993e-08
9.85994e-08
9.83271e-08
9.80705e-08
9.78357e-08
9.76148e-08
9.74111e-08
9.72199e-08
9.70419e-08
9.68756e-08
9.67189e-08
9.65735e-08
9.64348e-08
9.63075e-08
9.61835e-08
9.60715e-08
9.59609e-08
9.58617e-08
9.57618e-08
9.56743e-08
9.55837e-08
9.5507e-08
9.54242e-08
9.53562e-08
9.528e-08
9.52195e-08
9.51479e-08
9.50944e-08
9.50295e-08
9.4981e-08
9.49216e-08
9.48778e-08
9.4824e-08
9.47845e-08
9.47339e-08
9.46969e-08
9.46507e-08
9.46166e-08
9.45733e-08
9.45418e-08
9.45023e-08
9.44735e-08
9.4437e-08
9.44097e-08
9.43751e-08
9.43496e-08
9.43176e-08
9.42949e-08
9.42651e-08
9.42446e-08
9.42165e-08
9.4197e-08
9.41695e-08
9.41504e-08
9.41232e-08
9.41044e-08
9.40777e-08
9.4059e-08
9.40324e-08
9.40134e-08
9.39866e-08
9.3967e-08
9.39367e-08
9.39165e-08
9.38968e-08
9.38527e-08
9.38711e-08
9.53491e-08
7.06971e-08
2.31555e-08
1.2393e-07
1.23131e-07
1.2239e-07
1.21374e-07
1.20022e-07
1.18388e-07
1.16642e-07
1.14871e-07
1.13185e-07
1.11593e-07
1.10146e-07
1.08811e-07
1.07619e-07
1.06526e-07
1.05554e-07
1.04662e-07
1.0387e-07
1.03139e-07
1.02489e-07
1.01886e-07
1.01349e-07
1.00848e-07
1.00399e-07
9.99798e-08
9.96028e-08
9.92487e-08
9.89288e-08
9.86277e-08
9.83545e-08
9.80968e-08
9.78612e-08
9.76394e-08
9.74349e-08
9.72429e-08
9.70642e-08
9.68971e-08
9.67398e-08
9.65937e-08
9.64545e-08
9.63267e-08
9.62021e-08
9.60895e-08
9.59784e-08
9.58788e-08
9.57784e-08
9.56905e-08
9.55995e-08
9.55224e-08
9.54392e-08
9.53709e-08
9.52943e-08
9.52336e-08
9.51616e-08
9.51078e-08
9.50426e-08
9.49938e-08
9.49342e-08
9.48901e-08
9.48361e-08
9.47963e-08
9.47455e-08
9.47083e-08
9.46619e-08
9.46276e-08
9.45841e-08
9.45524e-08
9.45127e-08
9.44838e-08
9.44471e-08
9.44198e-08
9.43849e-08
9.43593e-08
9.43272e-08
9.43043e-08
9.42744e-08
9.42537e-08
9.42254e-08
9.42059e-08
9.41782e-08
9.4159e-08
9.41316e-08
9.41127e-08
9.40859e-08
9.40671e-08
9.40404e-08
9.40213e-08
9.39944e-08
9.39749e-08
9.39446e-08
9.39244e-08
9.39048e-08
9.38611e-08
9.38811e-08
9.54244e-08
6.77796e-08
2.43194e-08
1.2393e-07
1.2313e-07
1.22389e-07
1.2138e-07
1.20037e-07
1.18413e-07
1.16676e-07
1.14911e-07
1.1323e-07
1.1164e-07
1.10195e-07
1.08861e-07
1.07668e-07
1.06574e-07
1.05602e-07
1.04708e-07
1.03915e-07
1.03182e-07
1.02531e-07
1.01926e-07
1.01388e-07
1.00885e-07
1.00436e-07
1.00015e-07
9.96365e-08
9.92811e-08
9.89601e-08
9.86579e-08
9.83836e-08
9.81249e-08
9.78883e-08
9.76656e-08
9.74602e-08
9.72674e-08
9.7088e-08
9.69202e-08
9.67621e-08
9.66154e-08
9.64755e-08
9.63471e-08
9.62219e-08
9.61088e-08
9.59971e-08
9.5897e-08
9.57961e-08
9.57078e-08
9.56164e-08
9.55389e-08
9.54552e-08
9.53866e-08
9.53096e-08
9.52486e-08
9.51763e-08
9.51221e-08
9.50567e-08
9.50076e-08
9.49476e-08
9.49033e-08
9.4849e-08
9.4809e-08
9.47579e-08
9.47206e-08
9.46739e-08
9.46395e-08
9.45957e-08
9.45639e-08
9.45239e-08
9.44949e-08
9.44579e-08
9.44305e-08
9.43955e-08
9.43698e-08
9.43374e-08
9.43145e-08
9.42843e-08
9.42635e-08
9.4235e-08
9.42153e-08
9.41875e-08
9.41682e-08
9.41406e-08
9.41217e-08
9.40946e-08
9.40759e-08
9.40489e-08
9.40299e-08
9.40026e-08
9.39834e-08
9.3953e-08
9.39329e-08
9.39134e-08
9.387e-08
9.38917e-08
9.55022e-08
6.51714e-08
2.55464e-08
1.2393e-07
1.23127e-07
1.22388e-07
1.21385e-07
1.20053e-07
1.18439e-07
1.16711e-07
1.14953e-07
1.13277e-07
1.1169e-07
1.10246e-07
1.08913e-07
1.0772e-07
1.06626e-07
1.05652e-07
1.04757e-07
1.03962e-07
1.03228e-07
1.02575e-07
1.01969e-07
1.01429e-07
1.00925e-07
1.00474e-07
1.00052e-07
9.96723e-08
9.93155e-08
9.89933e-08
9.86899e-08
9.84145e-08
9.81548e-08
9.79172e-08
9.76935e-08
9.74872e-08
9.72935e-08
9.71133e-08
9.69446e-08
9.67858e-08
9.66384e-08
9.64978e-08
9.63688e-08
9.6243e-08
9.61293e-08
9.60171e-08
9.59165e-08
9.58151e-08
9.57263e-08
9.56343e-08
9.55565e-08
9.54723e-08
9.54033e-08
9.5326e-08
9.52646e-08
9.51919e-08
9.51375e-08
9.50716e-08
9.50223e-08
9.4962e-08
9.49174e-08
9.48627e-08
9.48226e-08
9.47712e-08
9.47337e-08
9.46867e-08
9.46521e-08
9.46081e-08
9.45761e-08
9.45359e-08
9.45067e-08
9.44695e-08
9.4442e-08
9.44068e-08
9.4381e-08
9.43484e-08
9.43253e-08
9.42949e-08
9.4274e-08
9.42452e-08
9.42255e-08
9.41974e-08
9.41781e-08
9.41503e-08
9.41313e-08
9.41041e-08
9.40852e-08
9.40581e-08
9.4039e-08
9.40116e-08
9.39925e-08
9.3962e-08
9.3942e-08
9.39225e-08
9.38796e-08
9.39031e-08
9.55817e-08
6.28426e-08
2.68383e-08
1.2393e-07
1.23125e-07
1.22388e-07
1.21391e-07
1.20069e-07
1.18466e-07
1.16748e-07
1.14997e-07
1.13326e-07
1.11743e-07
1.10301e-07
1.08968e-07
1.07775e-07
1.0668e-07
1.05705e-07
1.04809e-07
1.04013e-07
1.03277e-07
1.02622e-07
1.02015e-07
1.01473e-07
1.00967e-07
1.00515e-07
1.00091e-07
9.97102e-08
9.9352e-08
9.90285e-08
9.87238e-08
9.84473e-08
9.81864e-08
9.79478e-08
9.77231e-08
9.75159e-08
9.73212e-08
9.71401e-08
9.69707e-08
9.68111e-08
9.66629e-08
9.65216e-08
9.63919e-08
9.62654e-08
9.61512e-08
9.60383e-08
9.59372e-08
9.58352e-08
9.5746e-08
9.56535e-08
9.55752e-08
9.54905e-08
9.54212e-08
9.53434e-08
9.52816e-08