/*--------------------------------*- C++ -*----------------------------------*\
| =========                 |                                                 |
| \\      /  F ield         | OpenFOAM: The Open Source CFD Toolbox           |
|  \\    /   O peration     | Version:  v2012                                 |
|   \\  /    A nd           | Website:  www.openfoam.com                      |
|    \\/     M anipulation  |                                                 |
\*---------------------------------------------------------------------------*/
FoamFile
{
    version     2.0;
    format      ascii;
    class       volScalarField;
    location    "52";
    object      nut;
}
// * * * * * * * * * * * * * * * * * * * * * * * * * * * * * * * * * * * * * //

dimensions      [0 2 -1 0 0 0 0];


internalField   nonuniform List<scalar> 
209825
(
1.23944e-07
1.2315e-07
1.22331e-07
1.21234e-07
1.19891e-07
1.184e-07
1.16915e-07
1.15489e-07
1.14193e-07
1.13008e-07
1.11964e-07
1.11021e-07
1.10197e-07
1.09451e-07
1.08802e-07
1.08209e-07
1.07692e-07
1.07216e-07
1.06801e-07
1.06415e-07
1.06077e-07
1.05761e-07
1.05484e-07
1.05222e-07
1.04992e-07
1.04774e-07
1.04581e-07
1.04397e-07
1.04234e-07
1.04078e-07
1.03939e-07
1.03806e-07
1.03686e-07
1.03571e-07
1.03468e-07
1.03369e-07
1.03278e-07
1.03192e-07
1.03113e-07
1.03038e-07
1.02967e-07
1.02901e-07
1.02839e-07
1.02781e-07
1.02725e-07
1.02674e-07
1.02624e-07
1.0258e-07
1.02534e-07
1.02495e-07
1.02453e-07
1.02418e-07
1.02376e-07
1.02348e-07
1.0231e-07
1.02285e-07
1.02251e-07
1.02228e-07
1.02198e-07
1.02177e-07
1.02148e-07
1.02127e-07
1.02102e-07
1.02083e-07
1.02058e-07
1.0204e-07
1.02019e-07
1.02003e-07
1.01982e-07
1.01965e-07
1.01945e-07
1.01929e-07
1.01912e-07
1.019e-07
1.01885e-07
1.01874e-07
1.0186e-07
1.0185e-07
1.01835e-07
1.01825e-07
1.01811e-07
1.018e-07
1.01787e-07
1.01777e-07
1.01764e-07
1.01751e-07
1.01736e-07
1.01719e-07
1.01707e-07
1.01689e-07
1.01662e-07
1.01647e-07
1.01661e-07
1.02627e-07
1.0521e-07
1.00075e-08
1.23944e-07
1.2315e-07
1.22331e-07
1.21234e-07
1.19891e-07
1.18401e-07
1.16916e-07
1.1549e-07
1.14193e-07
1.13008e-07
1.11965e-07
1.11021e-07
1.10198e-07
1.09452e-07
1.08802e-07
1.08209e-07
1.07692e-07
1.07217e-07
1.06801e-07
1.06415e-07
1.06078e-07
1.05762e-07
1.05484e-07
1.05223e-07
1.04993e-07
1.04774e-07
1.04581e-07
1.04398e-07
1.04235e-07
1.04079e-07
1.03939e-07
1.03806e-07
1.03687e-07
1.03572e-07
1.03468e-07
1.03369e-07
1.03279e-07
1.03193e-07
1.03113e-07
1.03038e-07
1.02967e-07
1.02902e-07
1.02839e-07
1.02782e-07
1.02725e-07
1.02675e-07
1.02624e-07
1.02581e-07
1.02534e-07
1.02496e-07
1.02453e-07
1.02419e-07
1.02377e-07
1.02349e-07
1.02311e-07
1.02285e-07
1.02251e-07
1.02228e-07
1.02198e-07
1.02177e-07
1.02149e-07
1.02128e-07
1.02102e-07
1.02083e-07
1.02058e-07
1.02041e-07
1.02019e-07
1.02003e-07
1.01982e-07
1.01965e-07
1.01945e-07
1.0193e-07
1.01912e-07
1.019e-07
1.01885e-07
1.01875e-07
1.01861e-07
1.0185e-07
1.01836e-07
1.01825e-07
1.01811e-07
1.01801e-07
1.01787e-07
1.01777e-07
1.01764e-07
1.01752e-07
1.01736e-07
1.01719e-07
1.01707e-07
1.01689e-07
1.01662e-07
1.01647e-07
1.01661e-07
1.0263e-07
1.05212e-07
1.03139e-08
1.23944e-07
1.2315e-07
1.22331e-07
1.21235e-07
1.19892e-07
1.18402e-07
1.16917e-07
1.15491e-07
1.14195e-07
1.1301e-07
1.11966e-07
1.11023e-07
1.10199e-07
1.09453e-07
1.08803e-07
1.0821e-07
1.07693e-07
1.07217e-07
1.06802e-07
1.06416e-07
1.06079e-07
1.05762e-07
1.05485e-07
1.05223e-07
1.04993e-07
1.04775e-07
1.04582e-07
1.04398e-07
1.04235e-07
1.04079e-07
1.0394e-07
1.03806e-07
1.03687e-07
1.03572e-07
1.03468e-07
1.03369e-07
1.03279e-07
1.03192e-07
1.03113e-07
1.03038e-07
1.02967e-07
1.02902e-07
1.02839e-07
1.02781e-07
1.02725e-07
1.02674e-07
1.02624e-07
1.0258e-07
1.02534e-07
1.02495e-07
1.02453e-07
1.02418e-07
1.02376e-07
1.02348e-07
1.0231e-07
1.02285e-07
1.02251e-07
1.02228e-07
1.02198e-07
1.02177e-07
1.02148e-07
1.02127e-07
1.02102e-07
1.02082e-07
1.02057e-07
1.0204e-07
1.02019e-07
1.02003e-07
1.01981e-07
1.01965e-07
1.01944e-07
1.01929e-07
1.01912e-07
1.01899e-07
1.01884e-07
1.01874e-07
1.0186e-07
1.0185e-07
1.01835e-07
1.01824e-07
1.0181e-07
1.018e-07
1.01787e-07
1.01776e-07
1.01763e-07
1.01751e-07
1.01735e-07
1.01719e-07
1.01706e-07
1.01688e-07
1.01662e-07
1.01646e-07
1.01661e-07
1.02633e-07
1.05212e-07
1.06945e-08
1.23943e-07
1.2315e-07
1.22331e-07
1.21235e-07
1.19893e-07
1.18404e-07
1.16919e-07
1.15494e-07
1.14197e-07
1.13013e-07
1.11969e-07
1.11025e-07
1.10202e-07
1.09455e-07
1.08805e-07
1.08212e-07
1.07695e-07
1.07219e-07
1.06804e-07
1.06418e-07
1.0608e-07
1.05763e-07
1.05486e-07
1.05224e-07
1.04994e-07
1.04776e-07
1.04582e-07
1.04399e-07
1.04236e-07
1.04079e-07
1.0394e-07
1.03807e-07
1.03687e-07
1.03572e-07
1.03469e-07
1.03369e-07
1.03279e-07
1.03193e-07
1.03113e-07
1.03038e-07
1.02967e-07
1.02901e-07
1.02839e-07
1.02781e-07
1.02725e-07
1.02674e-07
1.02624e-07
1.0258e-07
1.02534e-07
1.02495e-07
1.02452e-07
1.02418e-07
1.02376e-07
1.02348e-07
1.0231e-07
1.02285e-07
1.0225e-07
1.02228e-07
1.02197e-07
1.02176e-07
1.02148e-07
1.02127e-07
1.02101e-07
1.02082e-07
1.02057e-07
1.0204e-07
1.02018e-07
1.02002e-07
1.01981e-07
1.01964e-07
1.01944e-07
1.01929e-07
1.01911e-07
1.01899e-07
1.01884e-07
1.01874e-07
1.01859e-07
1.01849e-07
1.01835e-07
1.01824e-07
1.0181e-07
1.01799e-07
1.01786e-07
1.01776e-07
1.01763e-07
1.0175e-07
1.01735e-07
1.01718e-07
1.01706e-07
1.01688e-07
1.01661e-07
1.01646e-07
1.0166e-07
1.02638e-07
1.05213e-07
1.11182e-08
1.23943e-07
1.23149e-07
1.22331e-07
1.21236e-07
1.19895e-07
1.18406e-07
1.16923e-07
1.15498e-07
1.14201e-07
1.13017e-07
1.11973e-07
1.11029e-07
1.10205e-07
1.09459e-07
1.08809e-07
1.08215e-07
1.07698e-07
1.07222e-07
1.06806e-07
1.0642e-07
1.06082e-07
1.05765e-07
1.05488e-07
1.05226e-07
1.04996e-07
1.04777e-07
1.04584e-07
1.044e-07
1.04237e-07
1.0408e-07
1.03941e-07
1.03807e-07
1.03688e-07
1.03573e-07
1.03469e-07
1.0337e-07
1.03279e-07
1.03193e-07
1.03113e-07
1.03038e-07
1.02967e-07
1.02902e-07
1.02839e-07
1.02781e-07
1.02725e-07
1.02674e-07
1.02624e-07
1.0258e-07
1.02534e-07
1.02495e-07
1.02452e-07
1.02418e-07
1.02376e-07
1.02348e-07
1.0231e-07
1.02284e-07
1.0225e-07
1.02227e-07
1.02197e-07
1.02176e-07
1.02147e-07
1.02126e-07
1.02101e-07
1.02081e-07
1.02056e-07
1.02039e-07
1.02018e-07
1.02002e-07
1.0198e-07
1.01964e-07
1.01943e-07
1.01928e-07
1.01911e-07
1.01898e-07
1.01883e-07
1.01873e-07
1.01859e-07
1.01848e-07
1.01834e-07
1.01823e-07
1.01809e-07
1.01799e-07
1.01785e-07
1.01775e-07
1.01762e-07
1.0175e-07
1.01734e-07
1.01717e-07
1.01705e-07
1.01687e-07
1.0166e-07
1.01645e-07
1.01659e-07
1.02646e-07
1.05215e-07
1.1578e-08
1.23943e-07
1.23149e-07
1.22331e-07
1.21237e-07
1.19898e-07
1.1841e-07
1.16927e-07
1.15502e-07
1.14207e-07
1.13022e-07
1.11978e-07
1.11034e-07
1.1021e-07
1.09463e-07
1.08813e-07
1.08219e-07
1.07702e-07
1.07225e-07
1.06809e-07
1.06423e-07
1.06085e-07
1.05768e-07
1.0549e-07
1.05228e-07
1.04998e-07
1.04779e-07
1.04586e-07
1.04401e-07
1.04238e-07
1.04082e-07
1.03942e-07
1.03809e-07
1.03689e-07
1.03574e-07
1.0347e-07
1.03371e-07
1.0328e-07
1.03194e-07
1.03114e-07
1.03039e-07
1.02968e-07
1.02902e-07
1.02839e-07
1.02782e-07
1.02725e-07
1.02674e-07
1.02624e-07
1.0258e-07
1.02534e-07
1.02495e-07
1.02452e-07
1.02418e-07
1.02376e-07
1.02347e-07
1.0231e-07
1.02284e-07
1.0225e-07
1.02227e-07
1.02197e-07
1.02176e-07
1.02147e-07
1.02126e-07
1.02101e-07
1.02081e-07
1.02056e-07
1.02039e-07
1.02017e-07
1.02001e-07
1.0198e-07
1.01963e-07
1.01943e-07
1.01928e-07
1.0191e-07
1.01898e-07
1.01883e-07
1.01872e-07
1.01858e-07
1.01848e-07
1.01833e-07
1.01822e-07
1.01808e-07
1.01798e-07
1.01785e-07
1.01774e-07
1.01761e-07
1.01749e-07
1.01733e-07
1.01717e-07
1.01704e-07
1.01687e-07
1.0166e-07
1.01644e-07
1.01659e-07
1.02656e-07
1.05217e-07
1.20727e-08
1.23943e-07
1.23149e-07
1.22331e-07
1.21239e-07
1.19901e-07
1.18415e-07
1.16933e-07
1.15509e-07
1.14213e-07
1.13028e-07
1.11984e-07
1.1104e-07
1.10216e-07
1.09469e-07
1.08818e-07
1.08224e-07
1.07707e-07
1.0723e-07
1.06814e-07
1.06427e-07
1.06089e-07
1.05771e-07
1.05493e-07
1.05231e-07
1.05001e-07
1.04782e-07
1.04588e-07
1.04404e-07
1.0424e-07
1.04084e-07
1.03944e-07
1.0381e-07
1.0369e-07
1.03575e-07
1.03471e-07
1.03372e-07
1.03281e-07
1.03195e-07
1.03115e-07
1.0304e-07
1.02969e-07
1.02903e-07
1.0284e-07
1.02782e-07
1.02726e-07
1.02675e-07
1.02624e-07
1.0258e-07
1.02534e-07
1.02495e-07
1.02452e-07
1.02418e-07
1.02376e-07
1.02348e-07
1.0231e-07
1.02284e-07
1.0225e-07
1.02227e-07
1.02197e-07
1.02175e-07
1.02147e-07
1.02126e-07
1.021e-07
1.02081e-07
1.02056e-07
1.02038e-07
1.02017e-07
1.02001e-07
1.01979e-07
1.01963e-07
1.01942e-07
1.01927e-07
1.0191e-07
1.01897e-07
1.01882e-07
1.01872e-07
1.01858e-07
1.01847e-07
1.01833e-07
1.01822e-07
1.01808e-07
1.01797e-07
1.01784e-07
1.01774e-07
1.0176e-07
1.01748e-07
1.01733e-07
1.01716e-07
1.01703e-07
1.01686e-07
1.01659e-07
1.01644e-07
1.01658e-07
1.02669e-07
1.0522e-07
1.26027e-08
1.23943e-07
1.23148e-07
1.22331e-07
1.21241e-07
1.19905e-07
1.1842e-07
1.1694e-07
1.15516e-07
1.14221e-07
1.13036e-07
1.11992e-07
1.11048e-07
1.10223e-07
1.09476e-07
1.08825e-07
1.08231e-07
1.07713e-07
1.07235e-07
1.06819e-07
1.06432e-07
1.06093e-07
1.05776e-07
1.05497e-07
1.05235e-07
1.05004e-07
1.04785e-07
1.04591e-07
1.04406e-07
1.04243e-07
1.04086e-07
1.03946e-07
1.03812e-07
1.03692e-07
1.03577e-07
1.03473e-07
1.03374e-07
1.03283e-07
1.03196e-07
1.03116e-07
1.03041e-07
1.0297e-07
1.02904e-07
1.02841e-07
1.02783e-07
1.02726e-07
1.02675e-07
1.02625e-07
1.02581e-07
1.02534e-07
1.02496e-07
1.02453e-07
1.02418e-07
1.02376e-07
1.02348e-07
1.0231e-07
1.02284e-07
1.0225e-07
1.02227e-07
1.02197e-07
1.02175e-07
1.02147e-07
1.02126e-07
1.021e-07
1.02081e-07
1.02055e-07
1.02038e-07
1.02016e-07
1.02e-07
1.01979e-07
1.01962e-07
1.01942e-07
1.01927e-07
1.01909e-07
1.01897e-07
1.01882e-07
1.01871e-07
1.01857e-07
1.01846e-07
1.01832e-07
1.01821e-07
1.01807e-07
1.01797e-07
1.01783e-07
1.01773e-07
1.0176e-07
1.01748e-07
1.01732e-07
1.01716e-07
1.01703e-07
1.01685e-07
1.01658e-07
1.01643e-07
1.01658e-07
1.02684e-07
1.05224e-07
1.31684e-08
1.23943e-07
1.23148e-07
1.22332e-07
1.21243e-07
1.19909e-07
1.18426e-07
1.16947e-07
1.15525e-07
1.1423e-07
1.13046e-07
1.12001e-07
1.11057e-07
1.10232e-07
1.09484e-07
1.08833e-07
1.08238e-07
1.07719e-07
1.07242e-07
1.06825e-07
1.06437e-07
1.06099e-07
1.05781e-07
1.05502e-07
1.0524e-07
1.05008e-07
1.04789e-07
1.04595e-07
1.0441e-07
1.04246e-07
1.04089e-07
1.03949e-07
1.03815e-07
1.03695e-07
1.03579e-07
1.03475e-07
1.03375e-07
1.03284e-07
1.03198e-07
1.03118e-07
1.03042e-07
1.02971e-07
1.02905e-07
1.02842e-07
1.02784e-07
1.02727e-07
1.02676e-07
1.02626e-07
1.02582e-07
1.02535e-07
1.02496e-07
1.02453e-07
1.02418e-07
1.02376e-07
1.02348e-07
1.0231e-07
1.02284e-07
1.0225e-07
1.02227e-07
1.02197e-07
1.02175e-07
1.02147e-07
1.02125e-07
1.021e-07
1.0208e-07
1.02055e-07
1.02038e-07
1.02016e-07
1.02e-07
1.01979e-07
1.01962e-07
1.01942e-07
1.01926e-07
1.01909e-07
1.01896e-07
1.01881e-07
1.01871e-07
1.01856e-07
1.01846e-07
1.01831e-07
1.01821e-07
1.01806e-07
1.01796e-07
1.01783e-07
1.01772e-07
1.01759e-07
1.01747e-07
1.01731e-07
1.01715e-07
1.01702e-07
1.01685e-07
1.01657e-07
1.01643e-07
1.01658e-07
1.02703e-07
1.05228e-07
1.37705e-08
1.23943e-07
1.23147e-07
1.22332e-07
1.21245e-07
1.19914e-07
1.18434e-07
1.16956e-07
1.15535e-07
1.1424e-07
1.13056e-07
1.12012e-07
1.11067e-07
1.10242e-07
1.09494e-07
1.08842e-07
1.08247e-07
1.07728e-07
1.07249e-07
1.06832e-07
1.06444e-07
1.06105e-07
1.05787e-07
1.05508e-07
1.05245e-07
1.05013e-07
1.04793e-07
1.04599e-07
1.04414e-07
1.0425e-07
1.04093e-07
1.03952e-07
1.03818e-07
1.03698e-07
1.03582e-07
1.03478e-07
1.03378e-07
1.03287e-07
1.032e-07
1.0312e-07
1.03044e-07
1.02973e-07
1.02907e-07
1.02844e-07
1.02785e-07
1.02729e-07
1.02677e-07
1.02627e-07
1.02582e-07
1.02536e-07
1.02497e-07
1.02454e-07
1.02419e-07
1.02377e-07
1.02349e-07
1.0231e-07
1.02285e-07
1.0225e-07
1.02227e-07
1.02197e-07
1.02175e-07
1.02147e-07
1.02126e-07
1.021e-07
1.0208e-07
1.02055e-07
1.02038e-07
1.02016e-07
1.02e-07
1.01979e-07
1.01962e-07
1.01941e-07
1.01926e-07
1.01908e-07
1.01896e-07
1.01881e-07
1.0187e-07
1.01856e-07
1.01845e-07
1.01831e-07
1.0182e-07
1.01806e-07
1.01795e-07
1.01782e-07
1.01771e-07
1.01758e-07
1.01746e-07
1.01731e-07
1.01715e-07
1.01702e-07
1.01684e-07
1.01657e-07
1.01642e-07
1.01658e-07
1.02725e-07
1.05233e-07
1.4409e-08
1.23943e-07
1.23147e-07
1.22332e-07
1.21248e-07
1.19919e-07
1.18442e-07
1.16966e-07
1.15546e-07
1.14252e-07
1.13068e-07
1.12024e-07
1.11079e-07
1.10253e-07
1.09504e-07
1.08852e-07
1.08256e-07
1.07737e-07
1.07258e-07
1.0684e-07
1.06452e-07
1.06112e-07
1.05793e-07
1.05514e-07
1.05251e-07
1.05019e-07
1.04799e-07
1.04604e-07
1.04419e-07
1.04254e-07
1.04097e-07
1.03956e-07
1.03822e-07
1.03701e-07
1.03585e-07
1.03481e-07
1.03381e-07
1.03289e-07
1.03202e-07
1.03122e-07
1.03046e-07
1.02975e-07
1.02908e-07
1.02845e-07
1.02787e-07
1.0273e-07
1.02679e-07
1.02628e-07
1.02584e-07
1.02537e-07
1.02498e-07
1.02455e-07
1.0242e-07
1.02378e-07
1.02349e-07
1.02311e-07
1.02285e-07
1.02251e-07
1.02228e-07
1.02197e-07
1.02176e-07
1.02147e-07
1.02126e-07
1.021e-07
1.02081e-07
1.02055e-07
1.02038e-07
1.02016e-07
1.02e-07
1.01979e-07
1.01962e-07
1.01941e-07
1.01926e-07
1.01908e-07
1.01896e-07
1.0188e-07
1.0187e-07
1.01855e-07
1.01845e-07
1.0183e-07
1.0182e-07
1.01805e-07
1.01795e-07
1.01781e-07
1.01771e-07
1.01757e-07
1.01746e-07
1.0173e-07
1.01714e-07
1.01701e-07
1.01684e-07
1.01656e-07
1.01641e-07
1.01658e-07
1.0275e-07
1.05238e-07
1.50831e-08
1.23943e-07
1.23146e-07
1.22332e-07
1.21251e-07
1.19926e-07
1.18451e-07
1.16977e-07
1.15558e-07
1.14266e-07
1.13082e-07
1.12037e-07
1.11092e-07
1.10266e-07
1.09516e-07
1.08864e-07
1.08267e-07
1.07747e-07
1.07268e-07
1.06849e-07
1.0646e-07
1.0612e-07
1.05801e-07
1.05521e-07
1.05257e-07
1.05025e-07
1.04805e-07
1.0461e-07
1.04424e-07
1.04259e-07
1.04101e-07
1.03961e-07
1.03826e-07
1.03705e-07
1.03589e-07
1.03484e-07
1.03384e-07
1.03292e-07
1.03205e-07
1.03125e-07
1.03049e-07
1.02977e-07
1.02911e-07
1.02847e-07
1.02789e-07
1.02732e-07
1.02681e-07
1.02629e-07
1.02585e-07
1.02538e-07
1.02499e-07
1.02456e-07
1.02421e-07
1.02379e-07
1.0235e-07
1.02312e-07
1.02286e-07
1.02251e-07
1.02228e-07
1.02198e-07
1.02176e-07
1.02147e-07
1.02126e-07
1.021e-07
1.02081e-07
1.02056e-07
1.02038e-07
1.02016e-07
1.02e-07
1.01979e-07
1.01962e-07
1.01941e-07
1.01926e-07
1.01908e-07
1.01895e-07
1.0188e-07
1.01869e-07
1.01855e-07
1.01844e-07
1.0183e-07
1.01819e-07
1.01805e-07
1.01794e-07
1.01781e-07
1.0177e-07
1.01757e-07
1.01745e-07
1.0173e-07
1.01714e-07
1.017e-07
1.01684e-07
1.01655e-07
1.01641e-07
1.01658e-07
1.02779e-07
1.05243e-07
1.57923e-08
1.23943e-07
1.23145e-07
1.22333e-07
1.21254e-07
1.19932e-07
1.18461e-07
1.1699e-07
1.15572e-07
1.1428e-07
1.13097e-07
1.12052e-07
1.11106e-07
1.1028e-07
1.0953e-07
1.08876e-07
1.08279e-07
1.07759e-07
1.07279e-07
1.0686e-07
1.0647e-07
1.06129e-07
1.0581e-07
1.05529e-07
1.05265e-07
1.05032e-07
1.04811e-07
1.04616e-07
1.0443e-07
1.04265e-07
1.04107e-07
1.03966e-07
1.03831e-07
1.03709e-07
1.03593e-07
1.03488e-07
1.03388e-07
1.03296e-07
1.03208e-07
1.03128e-07
1.03052e-07
1.0298e-07
1.02913e-07
1.0285e-07
1.02791e-07
1.02734e-07
1.02682e-07
1.02631e-07
1.02587e-07
1.0254e-07
1.02501e-07
1.02457e-07
1.02422e-07
1.0238e-07
1.02351e-07
1.02313e-07
1.02287e-07
1.02252e-07
1.02229e-07
1.02198e-07
1.02177e-07
1.02148e-07
1.02126e-07
1.02101e-07
1.02081e-07
1.02056e-07
1.02038e-07
1.02016e-07
1.02e-07
1.01979e-07
1.01962e-07
1.01941e-07
1.01926e-07
1.01908e-07
1.01895e-07
1.0188e-07
1.01869e-07
1.01855e-07
1.01844e-07
1.01829e-07
1.01819e-07
1.01804e-07
1.01794e-07
1.0178e-07
1.0177e-07
1.01756e-07
1.01745e-07
1.01729e-07
1.01713e-07
1.017e-07
1.01683e-07
1.01655e-07
1.01641e-07
1.01658e-07
1.02812e-07
1.05249e-07
1.65388e-08
1.23943e-07
1.23144e-07
1.22333e-07
1.21257e-07
1.1994e-07
1.18472e-07
1.17003e-07
1.15588e-07
1.14296e-07
1.13113e-07
1.12068e-07
1.11122e-07
1.10295e-07
1.09545e-07
1.0889e-07
1.08293e-07
1.07771e-07
1.07291e-07
1.06871e-07
1.06481e-07
1.06139e-07
1.05819e-07
1.05538e-07
1.05274e-07
1.0504e-07
1.04819e-07
1.04623e-07
1.04436e-07
1.04271e-07
1.04112e-07
1.03971e-07
1.03836e-07
1.03714e-07
1.03598e-07
1.03492e-07
1.03392e-07
1.033e-07
1.03212e-07
1.03131e-07
1.03055e-07
1.02983e-07
1.02916e-07
1.02852e-07
1.02794e-07
1.02736e-07
1.02685e-07
1.02633e-07
1.02589e-07
1.02542e-07
1.02502e-07
1.02459e-07
1.02424e-07
1.02381e-07
1.02352e-07
1.02314e-07
1.02288e-07
1.02253e-07
1.0223e-07
1.02199e-07
1.02177e-07
1.02148e-07
1.02127e-07
1.02101e-07
1.02082e-07
1.02056e-07
1.02038e-07
1.02017e-07
1.02e-07
1.01979e-07
1.01962e-07
1.01941e-07
1.01926e-07
1.01908e-07
1.01895e-07
1.0188e-07
1.01869e-07
1.01855e-07
1.01844e-07
1.01829e-07
1.01818e-07
1.01804e-07
1.01793e-07
1.0178e-07
1.01769e-07
1.01755e-07
1.01744e-07
1.01729e-07
1.01713e-07
1.01699e-07
1.01683e-07
1.01654e-07
1.0164e-07
1.01658e-07
1.02848e-07
1.05254e-07
1.73249e-08
1.23943e-07
1.23143e-07
1.22333e-07
1.21261e-07
1.19948e-07
1.18484e-07
1.17018e-07
1.15604e-07
1.14314e-07
1.13131e-07
1.12086e-07
1.11139e-07
1.10312e-07
1.09561e-07
1.08906e-07
1.08307e-07
1.07785e-07
1.07304e-07
1.06884e-07
1.06493e-07
1.06151e-07
1.0583e-07
1.05548e-07
1.05283e-07
1.05049e-07
1.04827e-07
1.04631e-07
1.04444e-07
1.04278e-07
1.04119e-07
1.03977e-07
1.03842e-07
1.0372e-07
1.03603e-07
1.03497e-07
1.03396e-07
1.03304e-07
1.03216e-07
1.03135e-07
1.03058e-07
1.02986e-07
1.02919e-07
1.02855e-07
1.02796e-07
1.02739e-07
1.02687e-07
1.02636e-07
1.02591e-07
1.02544e-07
1.02504e-07
1.02461e-07
1.02425e-07
1.02383e-07
1.02354e-07
1.02315e-07
1.02289e-07
1.02254e-07
1.02231e-07
1.022e-07
1.02178e-07
1.02149e-07
1.02128e-07
1.02102e-07
1.02082e-07
1.02057e-07
1.02039e-07
1.02017e-07
1.02001e-07
1.01979e-07
1.01962e-07
1.01942e-07
1.01926e-07
1.01908e-07
1.01895e-07
1.0188e-07
1.01869e-07
1.01854e-07
1.01844e-07
1.01829e-07
1.01818e-07
1.01804e-07
1.01793e-07
1.01779e-07
1.01769e-07
1.01755e-07
1.01744e-07
1.01728e-07
1.01713e-07
1.01699e-07
1.01683e-07
1.01654e-07
1.0164e-07
1.01659e-07
1.02889e-07
1.05259e-07
1.81532e-08
1.23942e-07
1.23142e-07
1.22333e-07
1.21265e-07
1.19957e-07
1.18496e-07
1.17034e-07
1.15622e-07
1.14333e-07
1.1315e-07
1.12105e-07
1.11158e-07
1.1033e-07
1.09579e-07
1.08923e-07
1.08323e-07
1.07801e-07
1.07318e-07
1.06897e-07
1.06506e-07
1.06163e-07
1.05841e-07
1.05559e-07
1.05293e-07
1.05059e-07
1.04836e-07
1.04639e-07
1.04452e-07
1.04286e-07
1.04126e-07
1.03984e-07
1.03848e-07
1.03726e-07
1.03609e-07
1.03503e-07
1.03401e-07
1.03309e-07
1.03221e-07
1.03139e-07
1.03063e-07
1.0299e-07
1.02923e-07
1.02859e-07
1.028e-07
1.02742e-07
1.0269e-07
1.02638e-07
1.02593e-07
1.02546e-07
1.02506e-07
1.02463e-07
1.02427e-07
1.02385e-07
1.02356e-07
1.02317e-07
1.02291e-07
1.02256e-07
1.02232e-07
1.02201e-07
1.02179e-07
1.0215e-07
1.02129e-07
1.02103e-07
1.02083e-07
1.02057e-07
1.02039e-07
1.02017e-07
1.02001e-07
1.0198e-07
1.01963e-07
1.01942e-07
1.01926e-07
1.01908e-07
1.01895e-07
1.0188e-07
1.01869e-07
1.01854e-07
1.01843e-07
1.01829e-07
1.01818e-07
1.01803e-07
1.01793e-07
1.01779e-07
1.01768e-07
1.01754e-07
1.01743e-07
1.01728e-07
1.01712e-07
1.01699e-07
1.01682e-07
1.01653e-07
1.0164e-07
1.0166e-07
1.02933e-07
1.05262e-07
1.90263e-08
1.23942e-07
1.23141e-07
1.22334e-07
1.21269e-07
1.19966e-07
1.1851e-07
1.17051e-07
1.15641e-07
1.14354e-07
1.13171e-07
1.12126e-07
1.11179e-07
1.1035e-07
1.09598e-07
1.08941e-07
1.08341e-07
1.07817e-07
1.07334e-07
1.06912e-07
1.0652e-07
1.06176e-07
1.05854e-07
1.05571e-07
1.05304e-07
1.05069e-07
1.04846e-07
1.04649e-07
1.04461e-07
1.04294e-07
1.04134e-07
1.03992e-07
1.03855e-07
1.03732e-07
1.03615e-07
1.03509e-07
1.03407e-07
1.03314e-07
1.03226e-07
1.03144e-07
1.03067e-07
1.02994e-07
1.02927e-07
1.02863e-07
1.02803e-07
1.02745e-07
1.02693e-07
1.02641e-07
1.02596e-07
1.02549e-07
1.02509e-07
1.02465e-07
1.0243e-07
1.02387e-07
1.02357e-07
1.02319e-07
1.02292e-07
1.02257e-07
1.02233e-07
1.02202e-07
1.02181e-07
1.02151e-07
1.0213e-07
1.02104e-07
1.02084e-07
1.02058e-07
1.0204e-07
1.02018e-07
1.02002e-07
1.0198e-07
1.01963e-07
1.01942e-07
1.01927e-07
1.01909e-07
1.01896e-07
1.0188e-07
1.01869e-07
1.01854e-07
1.01843e-07
1.01829e-07
1.01818e-07
1.01803e-07
1.01792e-07
1.01778e-07
1.01768e-07
1.01754e-07
1.01743e-07
1.01728e-07
1.01712e-07
1.01698e-07
1.01682e-07
1.01653e-07
1.0164e-07
1.0166e-07
1.02982e-07
1.01217e-07
1.99471e-08
1.23942e-07
1.2314e-07
1.22334e-07
1.21274e-07
1.19976e-07
1.18525e-07
1.1707e-07
1.15662e-07
1.14376e-07
1.13194e-07
1.12149e-07
1.11201e-07
1.10372e-07
1.09618e-07
1.08961e-07
1.0836e-07
1.07835e-07
1.07351e-07
1.06928e-07
1.06535e-07
1.0619e-07
1.05867e-07
1.05584e-07
1.05316e-07
1.05081e-07
1.04857e-07
1.04659e-07
1.0447e-07
1.04303e-07
1.04143e-07
1.04e-07
1.03863e-07
1.0374e-07
1.03622e-07
1.03515e-07
1.03413e-07
1.0332e-07
1.03231e-07
1.03149e-07
1.03072e-07
1.02999e-07
1.02931e-07
1.02867e-07
1.02807e-07
1.02749e-07
1.02697e-07
1.02645e-07
1.02599e-07
1.02552e-07
1.02512e-07
1.02468e-07
1.02432e-07
1.02389e-07
1.0236e-07
1.02321e-07
1.02294e-07
1.02259e-07
1.02235e-07
1.02204e-07
1.02182e-07
1.02153e-07
1.02131e-07
1.02105e-07
1.02085e-07
1.02059e-07
1.02041e-07
1.02019e-07
1.02002e-07
1.01981e-07
1.01964e-07
1.01943e-07
1.01927e-07
1.01909e-07
1.01896e-07
1.0188e-07
1.01869e-07
1.01854e-07
1.01843e-07
1.01828e-07
1.01818e-07
1.01803e-07
1.01792e-07
1.01778e-07
1.01768e-07
1.01753e-07
1.01742e-07
1.01728e-07
1.01712e-07
1.01698e-07
1.01682e-07
1.01653e-07
1.0164e-07
1.01661e-07
1.03035e-07
9.55229e-08
2.09185e-08
1.23942e-07
1.23139e-07
1.22334e-07
1.21278e-07
1.19986e-07
1.1854e-07
1.17089e-07
1.15684e-07
1.14399e-07
1.13218e-07
1.12173e-07
1.11225e-07
1.10395e-07
1.09641e-07
1.08982e-07
1.0838e-07
1.07854e-07
1.07369e-07
1.06946e-07
1.06551e-07
1.06206e-07
1.05882e-07
1.05598e-07
1.05329e-07
1.05093e-07
1.04869e-07
1.0467e-07
1.04481e-07
1.04313e-07
1.04152e-07
1.04009e-07
1.03871e-07
1.03748e-07
1.03629e-07
1.03522e-07
1.0342e-07
1.03326e-07
1.03237e-07
1.03155e-07
1.03077e-07
1.03004e-07
1.02936e-07
1.02871e-07
1.02811e-07
1.02753e-07
1.02701e-07
1.02648e-07
1.02603e-07
1.02555e-07
1.02515e-07
1.02471e-07
1.02435e-07
1.02392e-07
1.02362e-07
1.02323e-07
1.02296e-07
1.02261e-07
1.02237e-07
1.02206e-07
1.02184e-07
1.02154e-07
1.02132e-07
1.02106e-07
1.02086e-07
1.0206e-07
1.02042e-07
1.0202e-07
1.02003e-07
1.01982e-07
1.01964e-07
1.01944e-07
1.01928e-07
1.0191e-07
1.01896e-07
1.0188e-07
1.01869e-07
1.01854e-07
1.01844e-07
1.01829e-07
1.01818e-07
1.01803e-07
1.01792e-07
1.01778e-07
1.01767e-07
1.01753e-07
1.01742e-07
1.01727e-07
1.01712e-07
1.01698e-07
1.01682e-07
1.01652e-07
1.0164e-07
1.01663e-07
1.03093e-07
9.04439e-08
2.19436e-08
1.23942e-07
1.23137e-07
1.22335e-07
1.21283e-07
1.19997e-07
1.18557e-07
1.1711e-07
1.15708e-07
1.14425e-07
1.13244e-07
1.12199e-07
1.1125e-07
1.1042e-07
1.09664e-07
1.09005e-07
1.08402e-07
1.07875e-07
1.07389e-07
1.06964e-07
1.06569e-07
1.06223e-07
1.05898e-07
1.05613e-07
1.05343e-07
1.05107e-07
1.04881e-07
1.04682e-07
1.04492e-07
1.04324e-07
1.04162e-07
1.04018e-07
1.0388e-07
1.03756e-07
1.03637e-07
1.0353e-07
1.03427e-07
1.03333e-07
1.03244e-07
1.03161e-07
1.03083e-07
1.0301e-07
1.02941e-07
1.02876e-07
1.02816e-07
1.02758e-07
1.02705e-07
1.02652e-07
1.02607e-07
1.02558e-07
1.02518e-07
1.02474e-07
1.02438e-07
1.02395e-07
1.02365e-07
1.02326e-07
1.02299e-07
1.02263e-07
1.02239e-07
1.02208e-07
1.02185e-07
1.02156e-07
1.02134e-07
1.02108e-07
1.02088e-07
1.02062e-07
1.02043e-07
1.02021e-07
1.02004e-07
1.01983e-07
1.01965e-07
1.01944e-07
1.01929e-07
1.0191e-07
1.01897e-07
1.01881e-07
1.0187e-07
1.01855e-07
1.01844e-07
1.01829e-07
1.01818e-07
1.01803e-07
1.01792e-07
1.01778e-07
1.01767e-07
1.01753e-07
1.01742e-07
1.01727e-07
1.01712e-07
1.01697e-07
1.01682e-07
1.01652e-07
1.0164e-07
1.01664e-07
1.03155e-07
8.591e-08
2.30257e-08
1.23942e-07
1.23136e-07
1.22335e-07
1.21289e-07
1.20009e-07
1.18575e-07
1.17132e-07
1.15733e-07
1.14451e-07
1.13271e-07
1.12227e-07
1.11277e-07
1.10446e-07
1.0969e-07
1.0903e-07
1.08425e-07
1.07897e-07
1.0741e-07
1.06984e-07
1.06588e-07
1.06241e-07
1.05915e-07
1.05629e-07
1.05359e-07
1.05121e-07
1.04895e-07
1.04695e-07
1.04504e-07
1.04335e-07
1.04173e-07
1.04029e-07
1.0389e-07
1.03766e-07
1.03646e-07
1.03538e-07
1.03435e-07
1.03341e-07
1.03251e-07
1.03168e-07
1.0309e-07
1.03016e-07
1.02947e-07
1.02882e-07
1.02821e-07
1.02763e-07
1.0271e-07
1.02657e-07
1.02611e-07
1.02562e-07
1.02522e-07
1.02477e-07
1.02441e-07
1.02398e-07
1.02368e-07
1.02328e-07
1.02301e-07
1.02266e-07
1.02241e-07
1.0221e-07
1.02188e-07
1.02158e-07
1.02136e-07
1.02109e-07
1.02089e-07
1.02063e-07
1.02045e-07
1.02022e-07
1.02006e-07
1.01984e-07
1.01967e-07
1.01945e-07
1.0193e-07
1.01911e-07
1.01898e-07
1.01881e-07
1.0187e-07
1.01855e-07
1.01844e-07
1.01829e-07
1.01818e-07
1.01803e-07
1.01792e-07
1.01778e-07
1.01767e-07
1.01752e-07
1.01741e-07
1.01727e-07
1.01712e-07
1.01697e-07
1.01682e-07
1.01652e-07
1.0164e-07
1.01666e-07
1.03222e-07
8.18577e-08
2.41677e-08
1.23941e-07
1.23134e-07
1.22335e-07
1.21294e-07
1.20021e-07
1.18593e-07
1.17156e-07
1.1576e-07
1.1448e-07
1.13301e-07
1.12256e-07
1.11306e-07
1.10474e-07
1.09717e-07
1.09056e-07
1.0845e-07
1.07921e-07
1.07432e-07
1.07005e-07
1.06608e-07
1.0626e-07
1.05933e-07
1.05646e-07
1.05375e-07
1.05136e-07
1.04909e-07
1.04709e-07
1.04517e-07
1.04348e-07
1.04185e-07
1.0404e-07
1.039e-07
1.03776e-07
1.03656e-07
1.03547e-07
1.03444e-07
1.03349e-07
1.03258e-07
1.03175e-07
1.03096e-07
1.03022e-07
1.02953e-07
1.02888e-07
1.02827e-07
1.02768e-07
1.02715e-07
1.02661e-07
1.02615e-07
1.02567e-07
1.02526e-07
1.02481e-07
1.02445e-07
1.02401e-07
1.02371e-07
1.02332e-07
1.02304e-07
1.02268e-07
1.02244e-07
1.02212e-07
1.0219e-07
1.0216e-07
1.02138e-07
1.02111e-07
1.02091e-07
1.02065e-07
1.02046e-07
1.02024e-07
1.02007e-07
1.01985e-07
1.01968e-07
1.01947e-07
1.01931e-07
1.01912e-07
1.01899e-07
1.01882e-07
1.01871e-07
1.01856e-07
1.01845e-07
1.01829e-07
1.01818e-07
1.01803e-07
1.01792e-07
1.01778e-07
1.01767e-07
1.01752e-07
1.01741e-07
1.01727e-07
1.01712e-07
1.01697e-07
1.01683e-07
1.01652e-07
1.0164e-07
1.01668e-07
1.03292e-07
7.82335e-08
2.53729e-08
1.23941e-07
1.23133e-07
1.22335e-07
1.213e-07
1.20034e-07
1.18612e-07
1.1718e-07
1.15788e-07
1.1451e-07
1.13332e-07
1.12287e-07
1.11337e-07
1.10504e-07
1.09745e-07
1.09083e-07
1.08476e-07
1.07946e-07
1.07456e-07
1.07028e-07
1.06629e-07
1.0628e-07
1.05952e-07
1.05664e-07
1.05392e-07
1.05153e-07
1.04925e-07
1.04723e-07
1.04531e-07
1.04361e-07
1.04197e-07
1.04052e-07
1.03912e-07
1.03786e-07
1.03666e-07
1.03557e-07
1.03453e-07
1.03357e-07
1.03267e-07
1.03183e-07
1.03104e-07
1.03029e-07
1.0296e-07
1.02894e-07
1.02833e-07
1.02774e-07
1.0272e-07
1.02666e-07
1.0262e-07
1.02571e-07
1.0253e-07
1.02485e-07
1.02449e-07
1.02405e-07
1.02375e-07
1.02335e-07
1.02307e-07
1.02272e-07
1.02247e-07
1.02215e-07
1.02192e-07
1.02162e-07
1.0214e-07
1.02113e-07
1.02093e-07
1.02067e-07
1.02048e-07
1.02025e-07
1.02008e-07
1.01986e-07
1.01969e-07
1.01948e-07
1.01932e-07
1.01913e-07
1.019e-07
1.01883e-07
1.01872e-07
1.01856e-07
1.01845e-07
1.0183e-07
1.01819e-07
1.01803e-07
1.01792e-07
1.01778e-07
1.01767e-07
1.01752e-07
1.01741e-07
1.01727e-07
1.01712e-07
1.01697e-07
1.01683e-07
1.01652e-07
1.01641e-07
1.0167e-07
1.03365e-07
7.49916e-08
2.6644e-08
1.23941e-07
1.23131e-07
1.22335e-07
1.21305e-07
1.20047e-07
1.18633e-07
1.17206e-07
1.15817e-07
1.14541e-07
1.13364e-07
1.1232e-07
1.11369e-07
1.10535e-07
1.09776e-07
1.09112e-07
1.08504e-07
1.07973e-07
1.07482e-07
1.07052e-07
1.06652e-07
1.06302e-07
1.05973e-07
1.05684e-07
1.05411e-07
1.0517e-07
1.04941e-07
1.04739e-07
1.04546e-07
1.04375e-07
1.04211e-07
1.04064e-07
1.03924e-07
1.03798e-07
1.03677e-07
1.03567e-07
1.03462e-07
1.03367e-07
1.03276e-07
1.03191e-07
1.03112e-07
1.03037e-07
1.02967e-07
1.02901e-07
1.0284e-07
1.0278e-07
1.02726e-07
1.02672e-07
1.02626e-07
1.02576e-07
1.02535e-07
1.0249e-07
1.02453e-07
1.02409e-07
1.02379e-07
1.02339e-07
1.02311e-07
1.02275e-07
1.0225e-07
1.02218e-07
1.02195e-07
1.02165e-07
1.02143e-07
1.02116e-07
1.02095e-07
1.02069e-07
1.0205e-07
1.02027e-07
1.0201e-07
1.01988e-07
1.01971e-07
1.01949e-07
1.01933e-07
1.01914e-07
1.01901e-07
1.01884e-07
1.01873e-07
1.01857e-07
1.01846e-07
1.0183e-07
1.01819e-07
1.01804e-07
1.01793e-07
1.01778e-07
1.01767e-07
1.01752e-07
1.01741e-07
1.01727e-07
1.01713e-07
1.01697e-07
1.01683e-07
1.01652e-07
1.01641e-07
1.01672e-07
1.0344e-07
7.20929e-08
2.79836e-08
1.23941e-07
1.23129e-07
1.22335e-07
1.21311e-07
1.20061e-07
1.18654e-07
1.17233e-07
1.15848e-07
1.14575e-07
1.13398e-07
1.12354e-07
1.11403e-07
1.10569e-07
1.09808e-07
1.09143e-07
1.08534e-07
1.08001e-07
1.07508e-07
1.07078e-07
1.06676e-07
1.06325e-07
1.05994e-07
1.05704e-07
1.0543e-07
1.05189e-07
1.04959e-07
1.04756e-07
1.04562e-07
1.0439e-07
1.04225e-07
1.04078e-07
1.03937e-07
1.0381e-07
1.03688e-07
1.03578e-07
1.03473e-07
1.03377e-07
1.03285e-07
1.032e-07
1.0312e-07
1.03045e-07
1.02975e-07
1.02908e-07
1.02847e-07
1.02786e-07
1.02732e-07
1.02678e-07
1.02631e-07
1.02582e-07
1.0254e-07
1.02495e-07
1.02458e-07
1.02414e-07
1.02383e-07
1.02343e-07
1.02315e-07
1.02278e-07
1.02253e-07
1.02221e-07
1.02198e-07
1.02168e-07
1.02146e-07
1.02118e-07
1.02098e-07
1.02071e-07
1.02052e-07
1.02029e-07
1.02012e-07
1.0199e-07
1.01973e-07
1.01951e-07
1.01935e-07
1.01916e-07
1.01902e-07
1.01885e-07
1.01874e-07
1.01858e-07
1.01847e-07
1.01831e-07
1.0182e-07
1.01804e-07
1.01793e-07
1.01779e-07
1.01768e-07
1.01753e-07
1.01742e-07
1.01728e-07
1.01713e-07
1.01698e-07
1.01684e-07
1.01653e-07
1.01642e-07
1.01674e-07
1.03517e-07
6.95039e-08
2.93936e-08
1.23941e-07
1.23127e-07
1.22335e-07
1.21318e-07
1.20075e-07
1.18676e-07
1.17261e-07
1.1588e-07
1.1461e-07
1.13435e-07
1.12391e-07
1.11439e-07
1.10604e-07
1.09842e-07
1.09176e-07
1.08565e-07
1.08031e-07
1.07537e-07
1.07105e-07
1.06702e-07
1.06349e-07
1.06018e-07
1.05726e-07
1.05451e-07
1.05209e-07
1.04978e-07
1.04774e-07
1.04579e-07
1.04406e-07
1.0424e-07
1.04092e-07
1.0395e-07
1.03823e-07
1.037e-07
1.0359e-07
1.03484e-07
1.03387e-07
1.03295e-07
1.0321e-07
1.0313e-07
1.03054e-07
1.02983e-07
1.02916e-07
1.02854e-07
1.02794e-07
1.02739e-07
1.02685e-07
1.02637e-07
1.02587e-07
1.02546e-07
1.025e-07
1.02463e-07
1.02418e-07