/*--------------------------------*- C++ -*----------------------------------*\
| =========                 |                                                 |
| \\      /  F ield         | OpenFOAM: The Open Source CFD Toolbox           |
|  \\    /   O peration     | Version:  v2012                                 |
|   \\  /    A nd           | Website:  www.openfoam.com                      |
|    \\/     M anipulation  |                                                 |
\*---------------------------------------------------------------------------*/
FoamFile
{
    version     2.0;
    format      ascii;
    class       volScalarField;
    location    "52";
    object      yPlus;
}
// * * * * * * * * * * * * * * * * * * * * * * * * * * * * * * * * * * * * * //

dimensions      [0 0 0 0 0 0 0];


internalField   uniform 0;

boundaryField
{
    inlet
    {
        type            calculated;
        value           uniform 0;
    }
    outlet
    {
        type            calculated;
        value           uniform 0;
    }
    topWall
    {
        type            calculated;
        value           nonuniform List<scalar> 
545
(
0.111335
0.191975
0.246286
0.289509
0.326102
0.358122
0.386724
0.412636
0.436353
0.458231
0.478535
0.497472
0.515206
0.53187
0.547573
0.562408
0.576452
0.589772
0.602428
0.614469
0.625942
0.636885
0.647334
0.657323
0.666878
0.676028
0.684796
0.693203
0.70127
0.709016
0.716456
0.723608
0.730486
0.737103
0.743472
0.749605
0.755513
0.761207
0.766696
0.771989
0.777094
0.782021
0.786777
0.791369
0.795803
0.800087
0.804226
0.808226
0.812093
0.815832
0.819448
0.822946
0.82633
0.829605
0.832774
0.835842
0.838812
0.841689
0.844474
0.847172
0.849786
0.852319
0.854773
0.857152
0.859457
0.861692
0.863859
0.86596
0.867998
0.869974
0.871891
0.87375
0.87553
0.877253
0.878962
0.880658
0.88234
0.88401
0.885666
0.887309
0.888939
0.890557
0.892162
0.893754
0.895334
0.896902
0.898458
0.900002
0.901534
0.903055
0.904563
0.906061
0.907546
0.909021
0.910484
0.911936
0.913245
0.914416
0.915586
0.916757
0.917927
0.919097
0.920267
0.921437
0.922607
0.923777
0.924946
0.926116
0.927285
0.928454
0.929623
0.930791
0.93196
0.933128
0.934296
0.935464
0.936632
0.937799
0.938967
0.940134
0.9413
0.942467
0.943633
0.944799
0.945965
0.94713
0.948295
0.94946
0.950625
0.951789
0.952953
0.954116
0.95528
0.956443
0.957605
0.958767
0.959929
0.961091
0.962252
0.963413
0.964573
0.965733
0.966892
0.968051
0.96921
0.970368
0.971526
0.972683
0.97384
0.974997
0.976153
0.977308
0.978463
0.979618
0.980772
0.981925
0.983078
0.98423
0.985382
0.986533
0.987684
0.988834
0.989984
0.991133
0.992281
0.993429
0.994576
0.995722
0.996868
0.998013
0.999158
1.0003
1.00144
1.00259
1.00373
1.00487
1.00601
1.00715
1.00829
1.00943
1.01056
1.0117
1.01284
1.01397
1.01511
1.01624
1.01737
1.0185
1.01964
1.02077
1.0219
1.02302
1.02415
1.02528
1.0264
1.02753
1.02865
1.02978
1.0309
1.03202
1.03314
1.03426
1.03538
1.03649
1.03761
1.03873
1.03984
1.04095
1.04206
1.04318
1.04429
1.04539
1.0465
1.04761
1.04871
1.04982
1.05092
1.05202
1.05312
1.05422
1.05532
1.05642
1.05752
1.05861
1.0597
1.0608
1.06189
1.06298
1.06407
1.06515
1.06624
1.06732
1.06841
1.06949
1.07057
1.07165
1.07273
1.0738
1.07488
1.07595
1.07702
1.07809
1.07916
1.08023
1.0813
1.08236
1.08342
1.08449
1.08555
1.0866
1.08766
1.08872
1.08977
1.09082
1.09187
1.09292
1.09397
1.09501
1.09606
1.0971
1.09814
1.09918
1.10022
1.10125
1.10229
1.10332
1.10435
1.10538
1.1064
1.10737
1.10828
1.1092
1.11013
1.11106
1.112
1.11294
1.1139
1.11485
1.11582
1.11679
1.11777
1.11875
1.11974
1.12074
1.12174
1.12275
1.12377
1.12479
1.12582
1.12686
1.1279
1.12895
1.13
1.13106
1.13213
1.1332
1.13428
1.13536
1.13646
1.13755
1.13866
1.13977
1.14088
1.142
1.14313
1.14426
1.1454
1.14654
1.14769
1.14884
1.15
1.15117
1.15234
1.15352
1.1547
1.15588
1.15707
1.15827
1.15947
1.16067
1.16188
1.1631
1.16432
1.16554
1.16677
1.168
1.16923
1.17047
1.17171
1.17296
1.17421
1.17546
1.17672
1.17797
1.17924
1.1805
1.18177
1.18304
1.18431
1.18558
1.18686
1.18813
1.18941
1.19069
1.19197
1.19326
1.19454
1.19582
1.19711
1.19839
1.19967
1.20096
1.20224
1.20352
1.20481
1.20609
1.20737
1.20864
1.20992
1.21119
1.21247
1.21374
1.215
1.21627
1.21752
1.21878
1.22003
1.22128
1.22252
1.22376
1.225
1.22623
1.22745
1.22867
1.22988
1.23108
1.23228
1.23347
1.23465
1.23583
1.23699
1.23815
1.2393
1.24044
1.24157
1.2427
1.24381
1.24491
1.246
1.24708
1.24815
1.2492
1.25025
1.25128
1.2523
1.2533
1.2543
1.25528
1.25624
1.25719
1.25813
1.25905
1.25995
1.26084
1.26172
1.26257
1.26341
1.26424
1.26504
1.26583
1.2666
1.26736
1.26809
1.26881
1.2695
1.27018
1.27084
1.27147
1.27209
1.27269
1.27326
1.27382
1.27435
1.27487
1.27536
1.27583
1.27628
1.2767
1.27711
1.27749
1.27784
1.27818
1.27849
1.27878
1.27905
1.27929
1.27951
1.27971
1.27988
1.28003
1.28016
1.28026
1.28034
1.2804
1.28043
1.28044
1.28043
1.28039
1.28033
1.28024
1.28012
1.27996
1.27976
1.27954
1.27929
1.27901
1.27871
1.27838
1.27804
1.27767
1.27728
1.27687
1.27644
1.276
1.27554
1.27507
1.27458
1.27408
1.27357
1.27305
1.27252
1.27198
1.27143
1.27088
1.27031
1.26974
1.26917
1.26859
1.26801
1.26742
1.26683
1.26624
1.26565
1.26505
1.26446
1.26386
1.26327
1.26268
1.26209
1.2615
1.26092
1.26034
1.25976
1.25918
1.25861
1.25805
1.25749
1.25693
1.25639
1.25584
1.25531
1.25478
1.25426
1.25375
1.25324
1.25275
1.25226
1.25178
1.25132
1.25086
1.25041
1.24997
1.24954
1.24912
1.24871
1.24832
1.24793
1.24756
1.2472
1.24685
1.24651
1.24619
1.24588
1.24558
1.24529
1.24502
1.24476
1.24451
1.24428
1.24406
1.24385
1.24366
1.24348
1.24332
1.24317
1.24303
1.24291
1.2428
1.24271
1.24263
1.24257
1.24252
1.24249
1.24247
1.24246
)
;
    }
    bottomWall
    {
        type            calculated;
        value           nonuniform List<scalar> 
449
(
0.139385
0.0889277
0.0757945
0.0694448
0.0652954
0.0622306
0.0598577
0.0580561
0.0569107
0.0567703
0.0585184
0.0625945
0.0660353
0.068129
0.0692668
0.0698816
0.0701876
0.0702972
0.0702615
0.070146
0.0699752
0.0697687
0.0695437
0.0693102
0.0690743
0.0688395
0.0686078
0.0683809
0.0681598
0.0679448
0.0677361
0.0675338
0.0673377
0.0671477
0.0669636
0.066785
0.0666116
0.0664434
0.0662801
0.0661215
0.0659675
0.0658177
0.0656721
0.0655302
0.0653921
0.0652576
0.0651264
0.0649983
0.0648734
0.0647512
0.0646314
0.0645137
0.064398
0.0642844
0.0641728
0.0640632
0.0639556
0.0638499
0.0637461
0.0636442
0.063544
0.0634456
0.0633489
0.0632538
0.0631603
0.0630683
0.0629778
0.0628888
0.0628012
0.0627149
0.0626299
0.0625461
0.0624636
0.0623823
0.0623022
0.0622232
0.0621454
0.0620686
0.061993
0.0619183
0.0618447
0.0617721
0.0617004
0.0616297
0.0615599
0.061491
0.061423
0.0613558
0.0612894
0.0612238
0.061159
0.061095
0.0610318
0.0609692
0.0609074
0.0608463
0.0607859
0.0607262
0.0606671
0.0606086
0.0605508
0.0604936
0.0604369
0.0603808
0.0603253
0.0602703
0.0602159
0.0601621
0.0601088
0.060056
0.0600037
0.0599519
0.0599007
0.0598499
0.0597995
0.0597497
0.0597003
0.0596513
0.0596028
0.0595548
0.0595071
0.0594599
0.0594131
0.0593667
0.0593206
0.059275
0.0592298
0.0591849
0.0591404
0.0590963
0.0590525
0.059009
0.058966
0.0589232
0.0588808
0.0588387
0.058797
0.0587555
0.0587144
0.0586736
0.0586331
0.0585929
0.058553
0.0585134
0.058474
0.058435
0.0583962
0.0583577
0.0583194
0.0582813
0.0582436
0.0582061
0.0581688
0.0581318
0.058095
0.0580585
0.0580222
0.0579862
0.0579504
0.0579148
0.0578794
0.0578443
0.0578094
0.0577747
0.0577403
0.057706
0.057672
0.0576381
0.0576045
0.0575711
0.0575378
0.0575048
0.057472
0.0574412
0.0574122
0.057383
0.0573539
0.0573246
0.0572952
0.0572657
0.0572361
0.0572064
0.0571766
0.0571468
0.0571168
0.0570867
0.0570565
0.0570263
0.0569959
0.0569655
0.0569349
0.0569043
0.0568736
0.0568427
0.0568118
0.0567809
0.0567498
0.0567186
0.0566873
0.056656
0.0566246
0.0565931
0.0565615
0.0565298
0.056498
0.0564662
0.0564342
0.0564022
0.0563701
0.056338
0.0563057
0.0562734
0.056241
0.0562085
0.0561759
0.0561432
0.0561104
0.0560776
0.0560447
0.0560117
0.0559787
0.0559456
0.0559124
0.0558791
0.0558458
0.0558124
0.055779
0.0557455
0.0557119
0.0556782
0.0556445
0.0556107
0.0555769
0.055543
0.055509
0.055475
0.0554409
0.0554068
0.0553726
0.0553383
0.055304
0.0552696
0.0552352
0.0552007
0.0551662
0.0551316
0.055097
0.0550623
0.0550276
0.0549928
0.0549579
0.0549231
0.0548881
0.0548532
0.0548181
0.0547831
0.054748
0.0547128
0.0546776
0.0546424
0.0546071
0.0545718
0.0545364
0.054501
0.0544656
0.0544301
0.0543946
0.054359
0.0543234
0.0542878
0.0542522
0.0542165
0.0541808
0.054145
0.0541092
0.0540733
0.0540374
0.0540015
0.0539655
0.0539295
0.0538935
0.0538574
0.0538214
0.0537853
0.0537492
0.053713
0.0536769
0.0536407
0.0536045
0.0535682
0.053532
0.0534957
0.0534595
0.0534232
0.0533869
0.0533505
0.0533142
0.0532778
0.0532415
0.0532051
0.0531687
0.0531323
0.0530959
0.0530595
0.053023
0.0529866
0.0529501
0.0529137
0.0528772
0.0528408
0.0528043
0.0527678
0.0527314
0.0526949
0.0526584
0.0526219
0.0525855
0.052549
0.0525125
0.052476
0.0524396
0.0524031
0.0523667
0.0523302
0.0522938
0.0522573
0.0522209
0.0521845
0.0521481
0.0521117
0.0520752
0.0520388
0.0520024
0.051966
0.0519296
0.0518932
0.0518568
0.0518205
0.0517842
0.0517478
0.0517115
0.0516752
0.051639
0.0516027
0.0515665
0.0515303
0.0514941
0.051458
0.0514218
0.0513857
0.0513496
0.0513136
0.0512776
0.0512415
0.0512015
0.0511579
0.0511149
0.0510724
0.0510306
0.0509893
0.0509485
0.0509083
0.0508686
0.0508294
0.0507908
0.0507526
0.0507149
0.0506776
0.0506409
0.0506045
0.0505686
0.0505331
0.0504981
0.0504635
0.0504292
0.0503954
0.0503619
0.0503289
0.0502962
0.0502638
0.0502318
0.0502002
0.0501689
0.0501379
0.0501073
0.050077
0.050047
0.0500172
0.0499878
0.0499587
0.0499299
0.0499014
0.0498731
0.0498452
0.0498175
0.04979
0.0497629
0.049736
0.0497094
0.049683
0.0496569
0.0496309
0.0496053
0.0495798
0.0495547
0.0495297
0.049505
0.0494804
0.0494562
0.049432
0.0494082
0.0493845
0.049361
0.0493377
0.0493147
0.0492917
0.0492691
0.0492465
0.0492243
0.049202
0.0491802
0.0491583
0.0491368
0.0491152
0.0490941
0.0490728
0.049052
0.049031
0.0490106
0.0489899
0.0489698
0.0489493
0.0489295
0.0489093
0.0488899
0.0488699
0.0488508
0.048831
0.0488121
0.0487925
0.0487739
0.0487547
0.0487356
0.0487179
0.0486961
0.0486842
0.0486519
0.0486582
0.0486138
)
;
    }
    symmetry
    {
        type            symmetryPlane;
    }
    frontAndBack
    {
        type            empty;
    }
}


// ************************************************************************* //
