/*--------------------------------*- C++ -*----------------------------------*\
| =========                 |                                                 |
| \\      /  F ield         | OpenFOAM: The Open Source CFD Toolbox           |
|  \\    /   O peration     | Version:  v2012                                 |
|   \\  /    A nd           | Website:  www.openfoam.com                      |
|    \\/     M anipulation  |                                                 |
\*---------------------------------------------------------------------------*/
FoamFile
{
    version     2.0;
    format      ascii;
    class       volScalarField;
    location    "30.5";
    object      nut;
}
// * * * * * * * * * * * * * * * * * * * * * * * * * * * * * * * * * * * * * //

dimensions      [0 2 -1 0 0 0 0];


internalField   nonuniform List<scalar> 
209825
(
1.23875e-07
1.22943e-07
1.22606e-07
1.2272e-07
1.23075e-07
1.23508e-07
1.23957e-07
1.24376e-07
1.24771e-07
1.25122e-07
1.25448e-07
1.25735e-07
1.26003e-07
1.26237e-07
1.26458e-07
1.2665e-07
1.26835e-07
1.26994e-07
1.27149e-07
1.27282e-07
1.27414e-07
1.27527e-07
1.27639e-07
1.27735e-07
1.27832e-07
1.27914e-07
1.27997e-07
1.28068e-07
1.28141e-07
1.28203e-07
1.28268e-07
1.28321e-07
1.28379e-07
1.28427e-07
1.28477e-07
1.28517e-07
1.28563e-07
1.28601e-07
1.28642e-07
1.28674e-07
1.28712e-07
1.28744e-07
1.28775e-07
1.28802e-07
1.28835e-07
1.28858e-07
1.28885e-07
1.28905e-07
1.2893e-07
1.28952e-07
1.28975e-07
1.28991e-07
1.29013e-07
1.29032e-07
1.29049e-07
1.29063e-07
1.29083e-07
1.29094e-07
1.29103e-07
1.29115e-07
1.29122e-07
1.29135e-07
1.29132e-07
1.29151e-07
1.29168e-07
1.29195e-07
1.29219e-07
1.29249e-07
1.29259e-07
1.29286e-07
1.29302e-07
1.29328e-07
1.29352e-07
1.29381e-07
1.294e-07
1.29426e-07
1.2944e-07
1.29464e-07
1.2948e-07
1.29502e-07
1.2952e-07
1.29539e-07
1.2956e-07
1.29581e-07
1.29602e-07
1.29625e-07
1.29645e-07
1.29672e-07
1.29694e-07
1.29729e-07
1.29753e-07
1.29799e-07
1.29835e-07
1.31027e-07
1.3495e-07
1.47065e-08
1.23875e-07
1.22943e-07
1.22605e-07
1.2272e-07
1.23075e-07
1.23508e-07
1.23957e-07
1.24376e-07
1.2477e-07
1.25121e-07
1.25448e-07
1.25734e-07
1.26003e-07
1.26236e-07
1.26458e-07
1.2665e-07
1.26835e-07
1.26994e-07
1.27149e-07
1.27282e-07
1.27414e-07
1.27527e-07
1.27639e-07
1.27735e-07
1.27832e-07
1.27914e-07
1.27997e-07
1.28068e-07
1.28141e-07
1.28203e-07
1.28268e-07
1.28321e-07
1.28379e-07
1.28427e-07
1.28477e-07
1.28517e-07
1.28563e-07
1.28601e-07
1.28642e-07
1.28674e-07
1.28712e-07
1.28744e-07
1.28775e-07
1.28802e-07
1.28835e-07
1.28858e-07
1.28885e-07
1.28906e-07
1.2893e-07
1.28952e-07
1.28975e-07
1.28991e-07
1.29013e-07
1.29033e-07
1.2905e-07
1.29063e-07
1.29083e-07
1.29094e-07
1.29103e-07
1.29116e-07
1.29122e-07
1.29135e-07
1.29133e-07
1.29151e-07
1.29168e-07
1.29195e-07
1.29219e-07
1.29249e-07
1.29259e-07
1.29286e-07
1.29302e-07
1.29328e-07
1.29352e-07
1.29381e-07
1.294e-07
1.29426e-07
1.2944e-07
1.29464e-07
1.2948e-07
1.29502e-07
1.2952e-07
1.29539e-07
1.2956e-07
1.29581e-07
1.29602e-07
1.29625e-07
1.29645e-07
1.29672e-07
1.29694e-07
1.29729e-07
1.29753e-07
1.29799e-07
1.29836e-07
1.31029e-07
1.34952e-07
1.51548e-08
1.23875e-07
1.22943e-07
1.22605e-07
1.22719e-07
1.23073e-07
1.23506e-07
1.23955e-07
1.24373e-07
1.24768e-07
1.25119e-07
1.25445e-07
1.25732e-07
1.26e-07
1.26234e-07
1.26455e-07
1.26647e-07
1.26832e-07
1.26991e-07
1.27146e-07
1.2728e-07
1.27411e-07
1.27524e-07
1.27636e-07
1.27732e-07
1.27829e-07
1.27911e-07
1.27995e-07
1.28066e-07
1.28139e-07
1.28201e-07
1.28265e-07
1.28318e-07
1.28377e-07
1.28424e-07
1.28475e-07
1.28515e-07
1.2856e-07
1.28598e-07
1.28639e-07
1.28672e-07
1.28709e-07
1.28742e-07
1.28773e-07
1.28799e-07
1.28833e-07
1.28855e-07
1.28883e-07
1.28903e-07
1.28927e-07
1.28949e-07
1.28972e-07
1.28989e-07
1.2901e-07
1.2903e-07
1.29047e-07
1.29061e-07
1.2908e-07
1.29092e-07
1.29101e-07
1.29113e-07
1.2912e-07
1.29132e-07
1.2913e-07
1.29149e-07
1.29165e-07
1.29193e-07
1.29217e-07
1.29246e-07
1.29256e-07
1.29284e-07
1.29299e-07
1.29326e-07
1.2935e-07
1.29379e-07
1.29397e-07
1.29423e-07
1.29438e-07
1.29461e-07
1.29478e-07
1.29499e-07
1.29517e-07
1.29537e-07
1.29558e-07
1.29578e-07
1.29599e-07
1.29622e-07
1.29643e-07
1.2967e-07
1.29692e-07
1.29726e-07
1.2975e-07
1.29796e-07
1.29833e-07
1.31032e-07
1.34952e-07
1.57114e-08
1.23875e-07
1.22943e-07
1.22604e-07
1.22717e-07
1.23071e-07
1.23503e-07
1.23951e-07
1.2437e-07
1.24764e-07
1.25115e-07
1.25441e-07
1.25727e-07
1.25996e-07
1.26229e-07
1.26451e-07
1.26643e-07
1.26828e-07
1.26987e-07
1.27142e-07
1.27275e-07
1.27407e-07
1.2752e-07
1.27632e-07
1.27728e-07
1.27825e-07
1.27907e-07
1.27991e-07
1.28062e-07
1.28135e-07
1.28197e-07
1.28261e-07
1.28314e-07
1.28373e-07
1.2842e-07
1.28471e-07
1.28511e-07
1.28557e-07
1.28595e-07
1.28636e-07
1.28668e-07
1.28706e-07
1.28738e-07
1.28769e-07
1.28795e-07
1.28829e-07
1.28851e-07
1.28879e-07
1.28899e-07
1.28924e-07
1.28945e-07
1.28968e-07
1.28985e-07
1.29006e-07
1.29026e-07
1.29043e-07
1.29057e-07
1.29077e-07
1.29088e-07
1.29097e-07
1.29109e-07
1.29116e-07
1.29129e-07
1.29127e-07
1.29145e-07
1.29162e-07
1.29189e-07
1.29213e-07
1.29243e-07
1.29252e-07
1.2928e-07
1.29296e-07
1.29322e-07
1.29346e-07
1.29375e-07
1.29393e-07
1.29419e-07
1.29434e-07
1.29458e-07
1.29474e-07
1.29496e-07
1.29514e-07
1.29533e-07
1.29554e-07
1.29575e-07
1.29596e-07
1.29619e-07
1.29639e-07
1.29666e-07
1.29688e-07
1.29723e-07
1.29746e-07
1.29792e-07
1.29829e-07
1.31035e-07
1.34952e-07
1.63289e-08
1.23875e-07
1.22943e-07
1.22603e-07
1.22714e-07
1.23067e-07
1.23498e-07
1.23946e-07
1.24364e-07
1.24759e-07
1.25109e-07
1.25435e-07
1.25722e-07
1.2599e-07
1.26224e-07
1.26445e-07
1.26637e-07
1.26822e-07
1.26981e-07
1.27136e-07
1.2727e-07
1.27401e-07
1.27514e-07
1.27626e-07
1.27722e-07
1.2782e-07
1.27901e-07
1.27985e-07
1.28056e-07
1.28129e-07
1.28191e-07
1.28256e-07
1.28309e-07
1.28367e-07
1.28415e-07
1.28465e-07
1.28506e-07
1.28551e-07
1.28589e-07
1.2863e-07
1.28663e-07
1.287e-07
1.28733e-07
1.28764e-07
1.2879e-07
1.28824e-07
1.28846e-07
1.28874e-07
1.28894e-07
1.28919e-07
1.28941e-07
1.28964e-07
1.2898e-07
1.29001e-07
1.29021e-07
1.29038e-07
1.29052e-07
1.29072e-07
1.29083e-07
1.29092e-07
1.29105e-07
1.29111e-07
1.29124e-07
1.29122e-07
1.2914e-07
1.29157e-07
1.29184e-07
1.29209e-07
1.29238e-07
1.29248e-07
1.29275e-07
1.29291e-07
1.29317e-07
1.29341e-07
1.2937e-07
1.29389e-07
1.29415e-07
1.29429e-07
1.29453e-07
1.29469e-07
1.29491e-07
1.29509e-07
1.29528e-07
1.29549e-07
1.2957e-07
1.29591e-07
1.29614e-07
1.29634e-07
1.29662e-07
1.29683e-07
1.29718e-07
1.29742e-07
1.29788e-07
1.29825e-07
1.31041e-07
1.34953e-07
1.69984e-08
1.23876e-07
1.22943e-07
1.22601e-07
1.22711e-07
1.23063e-07
1.23493e-07
1.2394e-07
1.24358e-07
1.24752e-07
1.25102e-07
1.25428e-07
1.25714e-07
1.25983e-07
1.26216e-07
1.26438e-07
1.2663e-07
1.26815e-07
1.26974e-07
1.27129e-07
1.27262e-07
1.27394e-07
1.27507e-07
1.2762e-07
1.27715e-07
1.27813e-07
1.27895e-07
1.27978e-07
1.28049e-07
1.28123e-07
1.28185e-07
1.28249e-07
1.28302e-07
1.28361e-07
1.28408e-07
1.28459e-07
1.28499e-07
1.28545e-07
1.28583e-07
1.28624e-07
1.28656e-07
1.28694e-07
1.28727e-07
1.28758e-07
1.28784e-07
1.28818e-07
1.2884e-07
1.28868e-07
1.28888e-07
1.28913e-07
1.28934e-07
1.28957e-07
1.28974e-07
1.28995e-07
1.29015e-07
1.29032e-07
1.29046e-07
1.29066e-07
1.29078e-07
1.29086e-07
1.29099e-07
1.29106e-07
1.29118e-07
1.29116e-07
1.29134e-07
1.29151e-07
1.29178e-07
1.29203e-07
1.29232e-07
1.29242e-07
1.29269e-07
1.29285e-07
1.29311e-07
1.29335e-07
1.29364e-07
1.29383e-07
1.29409e-07
1.29423e-07
1.29447e-07
1.29463e-07
1.29485e-07
1.29503e-07
1.29522e-07
1.29543e-07
1.29564e-07
1.29585e-07
1.29608e-07
1.29628e-07
1.29656e-07
1.29677e-07
1.29712e-07
1.29736e-07
1.29782e-07
1.29819e-07
1.31048e-07
1.34954e-07
1.77183e-08
1.23876e-07
1.22943e-07
1.22599e-07
1.22707e-07
1.23057e-07
1.23486e-07
1.23932e-07
1.2435e-07
1.24743e-07
1.25093e-07
1.25419e-07
1.25705e-07
1.25974e-07
1.26207e-07
1.26429e-07
1.26621e-07
1.26806e-07
1.26966e-07
1.27121e-07
1.27254e-07
1.27386e-07
1.27498e-07
1.27611e-07
1.27707e-07
1.27804e-07
1.27886e-07
1.2797e-07
1.28041e-07
1.28115e-07
1.28177e-07
1.28241e-07
1.28294e-07
1.28353e-07
1.28401e-07
1.28451e-07
1.28491e-07
1.28537e-07
1.28575e-07
1.28616e-07
1.28649e-07
1.28687e-07
1.28719e-07
1.2875e-07
1.28777e-07
1.2881e-07
1.28833e-07
1.2886e-07
1.28881e-07
1.28905e-07
1.28927e-07
1.2895e-07
1.28967e-07
1.28988e-07
1.29008e-07
1.29025e-07
1.29039e-07
1.29059e-07
1.2907e-07
1.29079e-07
1.29092e-07
1.29099e-07
1.29111e-07
1.29109e-07
1.29127e-07
1.29144e-07
1.29171e-07
1.29195e-07
1.29224e-07
1.29234e-07
1.29262e-07
1.29277e-07
1.29304e-07
1.29327e-07
1.29357e-07
1.29375e-07
1.29401e-07
1.29416e-07
1.2944e-07
1.29456e-07
1.29478e-07
1.29496e-07
1.29515e-07
1.29536e-07
1.29557e-07
1.29578e-07
1.29601e-07
1.29621e-07
1.29649e-07
1.2967e-07
1.29705e-07
1.29729e-07
1.29774e-07
1.29812e-07
1.31058e-07
1.34955e-07
1.84889e-08
1.23876e-07
1.22942e-07
1.22596e-07
1.22702e-07
1.2305e-07
1.23478e-07
1.23923e-07
1.2434e-07
1.24733e-07
1.25083e-07
1.25409e-07
1.25695e-07
1.25963e-07
1.26197e-07
1.26419e-07
1.26611e-07
1.26796e-07
1.26955e-07
1.2711e-07
1.27244e-07
1.27376e-07
1.27489e-07
1.27601e-07
1.27697e-07
1.27795e-07
1.27877e-07
1.27961e-07
1.28032e-07
1.28105e-07
1.28167e-07
1.28232e-07
1.28285e-07
1.28344e-07
1.28391e-07
1.28442e-07
1.28482e-07
1.28528e-07
1.28566e-07
1.28607e-07
1.2864e-07
1.28678e-07
1.2871e-07
1.28741e-07
1.28768e-07
1.28801e-07
1.28824e-07
1.28852e-07
1.28872e-07
1.28897e-07
1.28919e-07
1.28942e-07
1.28959e-07
1.2898e-07
1.29e-07
1.29017e-07
1.29031e-07
1.2905e-07
1.29062e-07
1.29071e-07
1.29084e-07
1.2909e-07
1.29103e-07
1.29101e-07
1.29119e-07
1.29136e-07
1.29163e-07
1.29187e-07
1.29216e-07
1.29226e-07
1.29253e-07
1.29269e-07
1.29295e-07
1.29319e-07
1.29348e-07
1.29367e-07
1.29393e-07
1.29407e-07
1.29431e-07
1.29448e-07
1.2947e-07
1.29487e-07
1.29507e-07
1.29528e-07
1.29549e-07
1.2957e-07
1.29593e-07
1.29613e-07
1.2964e-07
1.29662e-07
1.29697e-07
1.2972e-07
1.29766e-07
1.29803e-07
1.31069e-07
1.34957e-07
1.93108e-08
1.23877e-07
1.22942e-07
1.22594e-07
1.22696e-07
1.23042e-07
1.23468e-07
1.23913e-07
1.24329e-07
1.24722e-07
1.25071e-07
1.25397e-07
1.25683e-07
1.25951e-07
1.26185e-07
1.26407e-07
1.26599e-07
1.26784e-07
1.26943e-07
1.27099e-07
1.27232e-07
1.27364e-07
1.27477e-07
1.2759e-07
1.27686e-07
1.27784e-07
1.27866e-07
1.2795e-07
1.28021e-07
1.28094e-07
1.28156e-07
1.28221e-07
1.28274e-07
1.28333e-07
1.28381e-07
1.28432e-07
1.28472e-07
1.28518e-07
1.28556e-07
1.28597e-07
1.2863e-07
1.28668e-07
1.287e-07
1.28731e-07
1.28758e-07
1.28791e-07
1.28814e-07
1.28842e-07
1.28862e-07
1.28887e-07
1.28909e-07
1.28932e-07
1.28949e-07
1.2897e-07
1.2899e-07
1.29007e-07
1.29021e-07
1.29041e-07
1.29053e-07
1.29062e-07
1.29074e-07
1.29081e-07
1.29094e-07
1.29092e-07
1.2911e-07
1.29126e-07
1.29153e-07
1.29178e-07
1.29206e-07
1.29216e-07
1.29244e-07
1.29259e-07
1.29286e-07
1.29309e-07
1.29338e-07
1.29357e-07
1.29383e-07
1.29398e-07
1.29422e-07
1.29438e-07
1.2946e-07
1.29478e-07
1.29498e-07
1.29519e-07
1.29539e-07
1.2956e-07
1.29583e-07
1.29604e-07
1.29631e-07
1.29652e-07
1.29687e-07
1.29711e-07
1.29756e-07
1.29794e-07
1.31084e-07
1.3496e-07
2.01849e-08
1.23877e-07
1.22942e-07
1.2259e-07
1.2269e-07
1.23034e-07
1.23458e-07
1.23901e-07
1.24316e-07
1.24709e-07
1.25058e-07
1.25383e-07
1.25669e-07
1.25937e-07
1.26171e-07
1.26393e-07
1.26585e-07
1.2677e-07
1.2693e-07
1.27085e-07
1.27219e-07
1.27351e-07
1.27464e-07
1.27577e-07
1.27673e-07
1.27771e-07
1.27853e-07
1.27937e-07
1.28008e-07
1.28082e-07
1.28144e-07
1.28209e-07
1.28262e-07
1.28321e-07
1.28369e-07
1.2842e-07
1.2846e-07
1.28506e-07
1.28544e-07
1.28586e-07
1.28618e-07
1.28656e-07
1.28689e-07
1.2872e-07
1.28747e-07
1.2878e-07
1.28803e-07
1.28831e-07
1.28851e-07
1.28876e-07
1.28898e-07
1.28921e-07
1.28938e-07
1.28959e-07
1.28979e-07
1.28997e-07
1.2901e-07
1.2903e-07
1.29042e-07
1.29051e-07
1.29064e-07
1.29071e-07
1.29083e-07
1.29081e-07
1.29099e-07
1.29115e-07
1.29142e-07
1.29167e-07
1.29195e-07
1.29205e-07
1.29233e-07
1.29248e-07
1.29275e-07
1.29298e-07
1.29327e-07
1.29346e-07
1.29373e-07
1.29387e-07
1.29411e-07
1.29428e-07
1.29449e-07
1.29467e-07
1.29487e-07
1.29508e-07
1.29528e-07
1.2955e-07
1.29573e-07
1.29593e-07
1.2962e-07
1.29642e-07
1.29676e-07
1.297e-07
1.29746e-07
1.29783e-07
1.311e-07
1.34963e-07
2.11111e-08
1.23878e-07
1.22941e-07
1.22587e-07
1.22683e-07
1.23024e-07
1.23446e-07
1.23888e-07
1.24302e-07
1.24694e-07
1.25043e-07
1.25368e-07
1.25654e-07
1.25922e-07
1.26156e-07
1.26378e-07
1.2657e-07
1.26755e-07
1.26915e-07
1.2707e-07
1.27204e-07
1.27336e-07
1.27449e-07
1.27563e-07
1.27659e-07
1.27757e-07
1.27839e-07
1.27923e-07
1.27995e-07
1.28068e-07
1.28131e-07
1.28195e-07
1.28249e-07
1.28308e-07
1.28356e-07
1.28406e-07
1.28447e-07
1.28493e-07
1.28531e-07
1.28573e-07
1.28605e-07
1.28643e-07
1.28676e-07
1.28707e-07
1.28734e-07
1.28768e-07
1.2879e-07
1.28818e-07
1.28839e-07
1.28863e-07
1.28885e-07
1.28909e-07
1.28926e-07
1.28947e-07
1.28967e-07
1.28984e-07
1.28998e-07
1.29018e-07
1.2903e-07
1.29039e-07
1.29052e-07
1.29059e-07
1.29072e-07
1.2907e-07
1.29087e-07
1.29103e-07
1.2913e-07
1.29155e-07
1.29183e-07
1.29193e-07
1.2922e-07
1.29236e-07
1.29262e-07
1.29286e-07
1.29315e-07
1.29334e-07
1.2936e-07
1.29375e-07
1.29399e-07
1.29416e-07
1.29438e-07
1.29455e-07
1.29475e-07
1.29496e-07
1.29517e-07
1.29538e-07
1.29561e-07
1.29581e-07
1.29608e-07
1.2963e-07
1.29664e-07
1.29688e-07
1.29734e-07
1.29772e-07
1.3112e-07
1.34967e-07
2.20879e-08
1.23879e-07
1.22941e-07
1.22583e-07
1.22675e-07
1.23013e-07
1.23432e-07
1.23873e-07
1.24286e-07
1.24677e-07
1.25026e-07
1.25351e-07
1.25637e-07
1.25905e-07
1.26139e-07
1.26361e-07
1.26553e-07
1.26738e-07
1.26898e-07
1.27054e-07
1.27188e-07
1.2732e-07
1.27433e-07
1.27547e-07
1.27643e-07
1.27741e-07
1.27823e-07
1.27908e-07
1.27979e-07
1.28053e-07
1.28115e-07
1.2818e-07
1.28234e-07
1.28293e-07
1.28341e-07
1.28392e-07
1.28432e-07
1.28479e-07
1.28517e-07
1.28558e-07
1.28591e-07
1.28629e-07
1.28662e-07
1.28693e-07
1.2872e-07
1.28754e-07
1.28777e-07
1.28804e-07
1.28825e-07
1.2885e-07
1.28872e-07
1.28895e-07
1.28912e-07
1.28933e-07
1.28953e-07
1.28971e-07
1.28985e-07
1.29005e-07
1.29017e-07
1.29026e-07
1.29039e-07
1.29046e-07
1.29059e-07
1.29057e-07
1.29074e-07
1.2909e-07
1.29117e-07
1.29142e-07
1.2917e-07
1.2918e-07
1.29207e-07
1.29223e-07
1.29249e-07
1.29272e-07
1.29301e-07
1.29321e-07
1.29347e-07
1.29362e-07
1.29386e-07
1.29402e-07
1.29424e-07
1.29442e-07
1.29462e-07
1.29483e-07
1.29503e-07
1.29525e-07
1.29548e-07
1.29568e-07
1.29595e-07
1.29617e-07
1.29651e-07
1.29675e-07
1.2972e-07
1.29759e-07
1.31143e-07
1.34971e-07
2.31144e-08
1.23879e-07
1.2294e-07
1.22579e-07
1.22666e-07
1.23e-07
1.23418e-07
1.23857e-07
1.24269e-07
1.24659e-07
1.25007e-07
1.25332e-07
1.25618e-07
1.25886e-07
1.2612e-07
1.26342e-07
1.26534e-07
1.2672e-07
1.2688e-07
1.27036e-07
1.2717e-07
1.27302e-07
1.27415e-07
1.27529e-07
1.27625e-07
1.27723e-07
1.27806e-07
1.27891e-07
1.27962e-07
1.28036e-07
1.28099e-07
1.28164e-07
1.28217e-07
1.28277e-07
1.28325e-07
1.28376e-07
1.28416e-07
1.28463e-07
1.28501e-07
1.28543e-07
1.28575e-07
1.28613e-07
1.28646e-07
1.28678e-07
1.28704e-07
1.28738e-07
1.28761e-07
1.28789e-07
1.2881e-07
1.28835e-07
1.28857e-07
1.2888e-07
1.28897e-07
1.28918e-07
1.28939e-07
1.28956e-07
1.2897e-07
1.2899e-07
1.29002e-07
1.29011e-07
1.29024e-07
1.29031e-07
1.29044e-07
1.29043e-07
1.29059e-07
1.29075e-07
1.29102e-07
1.29127e-07
1.29155e-07
1.29165e-07
1.29192e-07
1.29208e-07
1.29234e-07
1.29257e-07
1.29286e-07
1.29306e-07
1.29332e-07
1.29347e-07
1.29371e-07
1.29388e-07
1.2941e-07
1.29428e-07
1.29448e-07
1.29468e-07
1.29489e-07
1.2951e-07
1.29533e-07
1.29554e-07
1.29581e-07
1.29602e-07
1.29637e-07
1.2966e-07
1.29705e-07
1.29744e-07
1.31168e-07
1.34976e-07
2.41932e-08
1.2388e-07
1.2294e-07
1.22574e-07
1.22657e-07
1.22987e-07
1.23402e-07
1.23839e-07
1.2425e-07
1.2464e-07
1.24987e-07
1.25312e-07
1.25597e-07
1.25865e-07
1.26099e-07
1.26321e-07
1.26514e-07
1.267e-07
1.2686e-07
1.27016e-07
1.2715e-07
1.27283e-07
1.27396e-07
1.2751e-07
1.27606e-07
1.27704e-07
1.27787e-07
1.27872e-07
1.27944e-07
1.28018e-07
1.2808e-07
1.28145e-07
1.28199e-07
1.28259e-07
1.28307e-07
1.28358e-07
1.28399e-07
1.28445e-07
1.28483e-07
1.28525e-07
1.28558e-07
1.28596e-07
1.28629e-07
1.28661e-07
1.28687e-07
1.28721e-07
1.28745e-07
1.28772e-07
1.28793e-07
1.28818e-07
1.2884e-07
1.28864e-07
1.28881e-07
1.28902e-07
1.28922e-07
1.2894e-07
1.28954e-07
1.28974e-07
1.28986e-07
1.28996e-07
1.29009e-07
1.29016e-07
1.29029e-07
1.29027e-07
1.29044e-07
1.29059e-07
1.29086e-07
1.29111e-07
1.29138e-07
1.29149e-07
1.29176e-07
1.29191e-07
1.29218e-07
1.2924e-07
1.2927e-07
1.2929e-07
1.29316e-07
1.29331e-07
1.29355e-07
1.29372e-07
1.29394e-07
1.29412e-07
1.29432e-07
1.29453e-07
1.29473e-07
1.29495e-07
1.29517e-07
1.29538e-07
1.29565e-07
1.29586e-07
1.29621e-07
1.29644e-07
1.29689e-07
1.29729e-07
1.31197e-07
1.34981e-07
2.53275e-08
1.23881e-07
1.22939e-07
1.22569e-07
1.22647e-07
1.22973e-07
1.23385e-07
1.2382e-07
1.24229e-07
1.24618e-07
1.24965e-07
1.2529e-07
1.25575e-07
1.25843e-07
1.26077e-07
1.26299e-07
1.26492e-07
1.26677e-07
1.26838e-07
1.26994e-07
1.27128e-07
1.27261e-07
1.27375e-07
1.27488e-07
1.27585e-07
1.27684e-07
1.27767e-07
1.27851e-07
1.27923e-07
1.27997e-07
1.2806e-07
1.28126e-07
1.2818e-07
1.28239e-07
1.28287e-07
1.28339e-07
1.2838e-07
1.28426e-07
1.28465e-07
1.28506e-07
1.28539e-07
1.28578e-07
1.2861e-07
1.28642e-07
1.28669e-07
1.28703e-07
1.28726e-07
1.28754e-07
1.28775e-07
1.288e-07
1.28822e-07
1.28846e-07
1.28863e-07
1.28884e-07
1.28905e-07
1.28923e-07
1.28937e-07
1.28956e-07
1.28969e-07
1.28978e-07
1.28991e-07
1.28999e-07
1.29012e-07
1.2901e-07
1.29027e-07
1.29042e-07
1.29069e-07
1.29094e-07
1.29121e-07
1.29132e-07
1.29158e-07
1.29174e-07
1.292e-07
1.29222e-07
1.29252e-07
1.29272e-07
1.29299e-07
1.29313e-07
1.29338e-07
1.29354e-07
1.29377e-07
1.29394e-07
1.29415e-07
1.29435e-07
1.29456e-07
1.29478e-07
1.295e-07
1.29521e-07
1.29548e-07
1.29569e-07
1.29604e-07
1.29627e-07
1.29672e-07
1.29712e-07
1.3123e-07
1.34986e-07
2.65207e-08
1.23882e-07
1.22939e-07
1.22563e-07
1.22636e-07
1.22958e-07
1.23366e-07
1.23799e-07
1.24207e-07
1.24595e-07
1.24941e-07
1.25265e-07
1.2555e-07
1.25818e-07
1.26052e-07
1.26275e-07
1.26467e-07
1.26654e-07
1.26814e-07
1.2697e-07
1.27105e-07
1.27238e-07
1.27352e-07
1.27466e-07
1.27563e-07
1.27661e-07
1.27744e-07
1.27829e-07
1.27901e-07
1.27976e-07
1.28039e-07
1.28104e-07
1.28158e-07
1.28218e-07
1.28266e-07
1.28318e-07
1.28359e-07
1.28405e-07
1.28444e-07
1.28486e-07
1.28519e-07
1.28557e-07
1.2859e-07
1.28622e-07
1.28649e-07
1.28683e-07
1.28707e-07
1.28735e-07
1.28756e-07
1.28781e-07
1.28803e-07
1.28827e-07
1.28844e-07
1.28865e-07
1.28886e-07
1.28904e-07
1.28918e-07
1.28937e-07
1.2895e-07
1.2896e-07
1.28973e-07
1.2898e-07
1.28993e-07
1.28992e-07
1.29008e-07
1.29023e-07
1.2905e-07
1.29075e-07
1.29102e-07
1.29113e-07
1.29139e-07
1.29155e-07
1.29181e-07
1.29203e-07
1.29233e-07
1.29253e-07
1.2928e-07
1.29294e-07
1.29319e-07
1.29335e-07
1.29358e-07
1.29376e-07
1.29397e-07
1.29417e-07
1.29437e-07
1.29459e-07
1.29482e-07
1.29503e-07
1.29529e-07
1.29551e-07
1.29585e-07
1.29608e-07
1.29653e-07
1.29694e-07
1.31266e-07
1.34991e-07
2.77763e-08
1.23883e-07
1.22938e-07
1.22557e-07
1.22624e-07
1.22941e-07
1.23346e-07
1.23776e-07
1.24183e-07
1.2457e-07
1.24915e-07
1.25239e-07
1.25524e-07
1.25792e-07
1.26026e-07
1.26248e-07
1.26441e-07
1.26628e-07
1.26788e-07
1.26945e-07
1.27079e-07
1.27213e-07
1.27327e-07
1.27441e-07
1.27538e-07
1.27637e-07
1.2772e-07
1.27806e-07
1.27878e-07
1.27952e-07
1.28015e-07
1.28081e-07
1.28135e-07
1.28195e-07
1.28244e-07
1.28295e-07
1.28336e-07
1.28383e-07
1.28422e-07
1.28464e-07
1.28497e-07
1.28536e-07
1.28569e-07
1.28601e-07
1.28628e-07
1.28662e-07
1.28685e-07
1.28714e-07
1.28735e-07
1.2876e-07
1.28782e-07
1.28806e-07
1.28823e-07
1.28845e-07
1.28865e-07
1.28883e-07
1.28897e-07
1.28917e-07
1.2893e-07
1.2894e-07
1.28953e-07
1.2896e-07
1.28973e-07
1.28973e-07
1.28988e-07
1.29003e-07
1.2903e-07
1.29055e-07
1.29081e-07
1.29092e-07
1.29119e-07
1.29134e-07
1.2916e-07
1.29182e-07
1.29212e-07
1.29232e-07
1.29259e-07
1.29274e-07
1.29299e-07
1.29315e-07
1.29338e-07
1.29355e-07
1.29377e-07
1.29397e-07
1.29417e-07
1.29439e-07
1.29462e-07
1.29483e-07
1.29509e-07
1.29531e-07
1.29565e-07
1.29588e-07
1.29633e-07
1.29674e-07
1.31305e-07
1.34996e-07
2.90982e-08
1.23884e-07
1.22937e-07
1.22551e-07
1.22612e-07
1.22923e-07
1.23324e-07
1.23752e-07
1.24157e-07
1.24543e-07
1.24888e-07
1.25211e-07
1.25496e-07
1.25764e-07
1.25998e-07
1.2622e-07
1.26413e-07
1.266e-07
1.26761e-07
1.26918e-07
1.27052e-07
1.27186e-07
1.273e-07
1.27415e-07
1.27512e-07
1.27611e-07
1.27695e-07
1.2778e-07
1.27852e-07
1.27927e-07
1.2799e-07
1.28056e-07
1.28111e-07
1.28171e-07
1.28219e-07
1.28271e-07
1.28313e-07
1.28359e-07
1.28398e-07
1.28441e-07
1.28474e-07
1.28512e-07
1.28545e-07
1.28578e-07
1.28605e-07
1.28639e-07
1.28663e-07
1.28691e-07
1.28712e-07
1.28737e-07
1.2876e-07
1.28783e-07
1.28801e-07
1.28823e-07
1.28843e-07
1.28861e-07
1.28876e-07
1.28895e-07
1.28909e-07
1.28918e-07
1.28932e-07
1.28939e-07
1.28952e-07
1.28952e-07
1.28967e-07
1.28982e-07
1.29008e-07
1.29034e-07
1.29059e-07
1.2907e-07
1.29097e-07
1.29112e-07
1.29138e-07
1.2916e-07
1.29189e-07
1.2921e-07
1.29237e-07
1.29252e-07
1.29277e-07
1.29293e-07
1.29317e-07
1.29334e-07
1.29355e-07
1.29375e-07
1.29396e-07
1.29418e-07
1.2944e-07
1.29461e-07
1.29488e-07
1.29509e-07
1.29543e-07
1.29566e-07
1.29611e-07
1.29653e-07
1.31348e-07
1.35001e-07
3.04901e-08
1.23885e-07
1.22937e-07
1.22545e-07
1.22599e-07
1.22905e-07
1.23301e-07
1.23727e-07
1.2413e-07
1.24514e-07
1.24858e-07
1.25182e-07
1.25466e-07
1.25734e-07
1.25968e-07
1.2619e-07
1.26383e-07
1.2657e-07
1.26731e-07
1.26888e-07
1.27023e-07
1.27157e-07
1.27272e-07
1.27386e-07
1.27484e-07
1.27583e-07
1.27667e-07
1.27753e-07
1.27825e-07
1.279e-07
1.27964e-07
1.2803e-07
1.28084e-07
1.28145e-07
1.28193e-07
1.28245e-07
1.28287e-07
1.28334e-07
1.28373e-07
1.28415e-07
1.28449e-07
1.28487e-07
1.28521e-07
1.28553e-07
1.2858e-07
1.28614e-07
1.28638e-07
1.28667e-07
1.28688e-07
1.28713e-07
1.28736e-07
1.2876e-07
1.28777e-07
1.28799e-07
1.28819e-07
1.28838e-07
1.28852e-07
1.28872e-07
1.28885e-07
1.28895e-07
1.28909e-07
1.28916e-07
1.28929e-07
1.28929e-07
1.28944e-07
1.28958e-07
1.28985e-07
1.29011e-07
1.29035e-07
1.29047e-07
1.29073e-07
1.29088e-07
1.29114e-07
1.29136e-07
1.29165e-07
1.29186e-07
1.29213e-07
1.29228e-07
1.29254e-07
1.2927e-07
1.29294e-07
1.29311e-07
1.29332e-07
1.29352e-07
1.29373e-07
1.29395e-07
1.29417e-07
1.29438e-07
1.29465e-07
1.29486e-07
1.2952e-07
1.29543e-07
1.29588e-07
1.29631e-07
1.31394e-07
1.35004e-07
3.19561e-08
1.23887e-07
1.22936e-07
1.22538e-07
1.22585e-07
1.22885e-07
1.23277e-07
1.237e-07
1.241e-07
1.24484e-07
1.24827e-07
1.2515e-07
1.25434e-07
1.25701e-07
1.25935e-07
1.26158e-07
1.26352e-07
1.26539e-07
1.267e-07
1.26857e-07
1.26992e-07
1.27127e-07
1.27241e-07
1.27356e-07
1.27454e-07
1.27554e-07
1.27638e-07
1.27724e-07
1.27796e-07
1.27872e-07
1.27935e-07
1.28002e-07
1.28056e-07
1.28117e-07
1.28166e-07
1.28218e-07
1.28259e-07
1.28307e-07
1.28346e-07
1.28388e-07
1.28422e-07
1.28461e-07
1.28494e-07
1.28527e-07
1.28554e-07
1.28588e-07
1.28612e-07
1.28641e-07
1.28662e-07
1.28688e-07
1.2871e-07
1.28734e-07
1.28752e-07
1.28774e-07
1.28794e-07
1.28813e-07
1.28827e-07
1.28847e-07
1.28861e-07
1.28871e-07
1.28884e-07
1.28892e-07
1.28905e-07
1.28905e-07
1.2892e-07
1.28934e-07
1.2896e-07
1.28986e-07
1.2901e-07
1.29022e-07
1.29048e-07
1.29063e-07
1.29089e-07
1.29111e-07
1.2914e-07
1.29161e-07
1.29188e-07
1.29203e-07
1.29229e-07
1.29245e-07
1.29269e-07
1.29286e-07
1.29308e-07
1.29327e-07
1.29349e-07
1.2937e-07
1.29393e-07
1.29414e-07
1.2944e-07
1.29462e-07
1.29496e-07
1.29518e-07
1.29563e-07
1.29607e-07
1.31444e-07
1.35005e-07
3.35001e-08
1.23888e-07
1.22935e-07
1.22531e-07
1.2257e-07
1.22864e-07
1.23251e-07
1.23671e-07
1.24069e-07
1.24451e-07
1.24794e-07
1.25116e-07
1.25399e-07
1.25667e-07
1.25901e-07
1.26124e-07
1.26318e-07
1.26505e-07
1.26666e-07
1.26824e-07
1.26959e-07
1.27094e-07
1.27209e-07
1.27324e-07
1.27422e-07
1.27522e-07
1.27606e-07
1.27692e-07
1.27765e-07
1.27841e-07
1.27905e-07
1.27971e-07
1.28026e-07
1.28087e-07
1.28136e-07
1.28188e-07
1.2823e-07
1.28278e-07
1.28317e-07
1.2836e-07
1.28393e-07
1.28432e-07
1.28466e-07
1.28499e-07
1.28526e-07
1.2856e-07
1.28584e-07
1.28613e-07
1.28635e-07
1.2866e-07
1.28683e-07
1.28707e-07
1.28725e-07
1.28747e-07
1.28767e-07
1.28786e-07
1.28801e-07
1.2882e-07
1.28834e-07
1.28844e-07
1.28858e-07
1.28866e-07
1.28879e-07
1.2888e-07
1.28894e-07
1.28908e-07
1.28934e-07
1.2896e-07
1.28983e-07
1.28996e-07
1.29021e-07
1.29036e-07
1.29062e-07
1.29084e-07
1.29113e-07
1.29134e-07
1.29161e-07
1.29177e-07
1.29203e-07
1.29218e-07
1.29243e-07
1.2926e-07
1.29282e-07
1.29301e-07
1.29323e-07
1.29344e-07
1.29367e-07
1.29388e-07
1.29414e-07
1.29436e-07
1.2947e-07
1.29492e-07
1.29536e-07
1.29581e-07
1.31498e-07
1.35004e-07
3.51262e-08
1.23889e-07
1.22935e-07
1.22524e-07
1.22554e-07
1.22841e-07
1.23224e-07
1.2364e-07
1.24036e-07
1.24417e-07
1.24758e-07
1.2508e-07
1.25363e-07
1.25631e-07
1.25865e-07
1.26088e-07
1.26281e-07
1.26469e-07
1.2663e-07
1.26789e-07
1.26924e-07
1.27059e-07
1.27174e-07
1.2729e-07
1.27388e-07
1.27488e-07
1.27573e-07
1.27659e-07
1.27733e-07
1.27808e-07
1.27872e-07
1.27939e-07
1.27994e-07
1.28055e-07
1.28104e-07
1.28157e-07
1.28199e-07
1.28247e-07
1.28286e-07
1.28329e-07
1.28363e-07
1.28402e-07
1.28436e-07
1.28469e-07
1.28496e-07
1.28531e-07
1.28555e-07
1.28584e-07
1.28606e-07
1.28631e-07
1.28654e-07
1.28678e-07
1.28696e-07
1.28718e-07
1.28739e-07
1.28758e-07
1.28772e-07
1.28792e-07
1.28806e-07
1.28816e-07
1.2883e-07
1.28838e-07
1.28852e-07
1.28853e-07
1.28867e-07
1.2888e-07
1.28906e-07
1.28932e-07
1.28955e-07
1.28967e-07
1.28993e-07
1.29008e-07
1.29034e-07
1.29055e-07
1.29084e-07
1.29105e-07
1.29133e-07
1.29148e-07
1.29174e-07
1.2919e-07
1.29215e-07
1.29232e-07
1.29254e-07
1.29273e-07
1.29295e-07
1.29316e-07
1.29339e-07
1.2936e-07
1.29387e-07
1.29408e-07
1.29442e-07
1.29464e-07
1.29508e-07
1.29554e-07
1.31554e-07
1.35e-07
3.68382e-08
1.23891e-07
1.22934e-07
1.22516e-07
1.22538e-07
1.22818e-07
1.23196e-07
1.23608e-07
1.24002e-07
1.24381e-07
1.24721e-07
1.25042e-07
1.25325e-07
1.25592e-07
1.25826e-07
1.2605e-07
1.26243e-07
1.26431e-07
1.26593e-07
1.26751e-07
1.26887e-07
1.27022e-07
1.27138e-07
1.27254e-07
1.27352e-07
1.27453e-07
1.27537e-07
1.27624e-07
1.27698e-07
1.27774e-07
1.27838e-07
1.27905e-07
1.27961e-07
1.28022e-07
1.28071e-07
1.28124e-07
1.28166e-07
1.28214e-07
1.28254e-07
1.28297e-07
1.28331e-07
1.2837e-07
1.28404e-07
1.28437e-07
1.28465e-07
1.28499e-07
1.28524e-07
1.28553e-07
1.28575e-07
1.286e-07
1.28623e-07
1.28648e-07
1.28666e-07
1.28688e-07
1.28708e-07
1.28727e-07
1.28742e-07
1.28762e-07
1.28777e-07
1.28787e-07
1.28801e-07
1.28809e-07
1.28823e-07
1.28824e-07
1.28838e-07
1.2885e-07
1.28877e-07
1.28903e-07
1.28925e-07
1.28938e-07
1.28963e-07
1.28978e-07
1.29004e-07
1.29025e-07
1.29054e-07
1.29075e-07
1.29103e-07
1.29118e-07
1.29144e-07
1.2916e-07
1.29185e-07
1.29202e-07
1.29225e-07
1.29244e-07
1.29266e-07
1.29287e-07
1.2931e-07
1.29331e-07
1.29357e-07
1.29379e-07
1.29413e-07
1.29435e-07
1.29479e-07
1.29526e-07
1.31614e-07
1.31105e-07
3.86394e-08
1.23892e-07
1.22934e-07
1.22508e-07
1.22521e-07
1.22794e-07
1.23166e-07
1.23574e-07
1.23965e-07
1.24342e-07
1.24681e-07
1.25002e-07
1.25284e-07
1.25552e-07
1.25785e-07
1.26009e-07
1.26203e-07
1.26391e-07
1.26553e-07
1.26712e-07
1.26848e-07
1.26983e-07
1.27099e-07
1.27215e-07
1.27314e-07
1.27415e-07
1.275e-07
1.27587e-07
1.27661e-07
1.27737e-07
1.27802e-07
1.27869e-07
1.27925e-07
1.27986e-07
1.28036e-07
1.28089e-07
1.28132e-07
1.2818e-07
1.28219e-07
1.28263e-07
1.28297e-07
1.28336e-07
1.2837e-07
1.28404e-07
1.28431e-07
1.28466e-07
1.28491e-07
1.2852e-07
1.28542e-07
1.28568e-07
1.2859e-07
1.28615e-07
1.28634e-07
1.28656e-07
1.28676e-07
1.28696e-07
1.28711e-07
1.28731e-07
1.28745e-07
1.28756e-07
1.2877e-07
1.28778e-07
1.28792e-07
1.28794e-07
1.28807e-07
1.28819e-07
1.28845e-07
1.28871e-07
1.28893e-07
1.28906e-07
1.28931e-07
1.28946e-07
1.28972e-07
1.28993e-07
1.29022e-07
1.29042e-07
1.2907e-07
1.29087e-07
1.29113e-07
1.29129e-07
1.29154e-07
1.2917e-07
1.29194e-07
1.29213e-07
1.29235e-07
1.29256e-07
1.29279e-07
1.293e-07
1.29326e-07
1.29348e-07
1.29381e-07
1.29403e-07
1.29447e-07
1.29496e-07
1.31676e-07
1.25865e-07
4.05328e-08
1.23893e-07
1.22933e-07
1.22499e-07
1.22504e-07
1.22768e-07
1.23134e-07
1.23538e-07
1.23927e-07
1.24302e-07
1.2464e-07
1.2496e-07
1.25241e-07
1.25509e-07
1.25742e-07
1.25966e-07
1.2616e-07
1.26348e-07
1.26511e-07
1.2667e-07
1.26806e-07
1.26942e-07
1.27058e-07
1.27175e-07
1.27274e-07
1.27375e-07
1.27461e-07
1.27548e-07
1.27622e-07
1.27699e-07
1.27764e-07
1.27831e-07
1.27887e-07
1.27949e-07
1.27999e-07
1.28052e-07
1.28095e-07
1.28143e-07
1.28183e-07
1.28227e-07
1.28261e-07
1.283e-07
1.28334e-07
1.28368e-07
1.28396e-07
1.28431e-07
1.28456e-07
1.28485e-07
1.28508e-07
1.28533e-07
1.28556e-07
1.28581e-07
1.286e-07
1.28622e-07
1.28643e-07
1.28662e-07
1.28677e-07
1.28697e-07
1.28712e-07
1.28723e-07
1.28737e-07
1.28745e-07
1.2876e-07
1.28761e-07
1.28775e-07
1.28786e-07
1.28812e-07
1.28838e-07
1.28859e-07
1.28873e-07
1.28897e-07
1.28913e-07
1.28938e-07
1.28959e-07
1.28988e-07
1.29008e-07
1.29037e-07
1.29053e-07
1.29079e-07
1.29095e-07
1.29121e-07
1.29137e-07
1.29161e-07
1.2918e-07
1.29202e-07
1.29223e-07
1.29246e-07
1.29268e-07
1.29293e-07
1.29315e-07
1.29349e-07
1.2937e-07
1.29414e-07
1.29464e-07
1.31738e-07
1.21175e-07
4.25203e-08
1.23895e-07
1.22933e-07
1.22491e-07
1.22485e-07
1.22742e-07
1.23101e-07
1.23501e-07
1.23886e-07
1.2426e-07
1.24596e-07
1.24915e-07
1.25197e-07
1.25464e-07
1.25697e-07
1.25921e-07
1.26115e-07
1.26304e-07
1.26466e-07
1.26626e-07
1.26762e-07
1.26899e-07
1.27015e-07
1.27132e-07
1.27232e-07
1.27333e-07
1.27419e-07
1.27507e-07
1.27581e-07
1.27658e-07
1.27723e-07
1.27791e-07
1.27847e-07
1.27909e-07
1.27959e-07
1.28013e-07
1.28056e-07
1.28105e-07
1.28144e-07
1.28188e-07
1.28223e-07
1.28263e-07
1.28297e-07
1.28331e-07
1.28359e-07
1.28394e-07
1.28419e-07
1.28449e-07
1.28471e-07
1.28497e-07
1.2852e-07