/*--------------------------------*- C++ -*----------------------------------*\
| =========                 |                                                 |
| \\      /  F ield         | OpenFOAM: The Open Source CFD Toolbox           |
|  \\    /   O peration     | Version:  v2012                                 |
|   \\  /    A nd           | Website:  www.openfoam.com                      |
|    \\/     M anipulation  |                                                 |
\*---------------------------------------------------------------------------*/
FoamFile
{
    version     2.0;
    format      ascii;
    class       volScalarField;
    location    "12";
    object      epsilon;
}
// * * * * * * * * * * * * * * * * * * * * * * * * * * * * * * * * * * * * * //

dimensions      [0 2 -3 0 0 0 0];


internalField   nonuniform List<scalar> 
209825
(
0.770711
0.725292
0.707956
0.69946
0.694511
0.691354
0.689177
0.687626
0.686451
0.685565
0.684847
0.684289
0.683808
0.683427
0.683103
0.682841
0.682602
0.682411
0.682229
0.682087
0.681942
0.681833
0.681729
0.68165
0.68156
0.6815
0.68144
0.681396
0.681332
0.681305
0.681282
0.681261
0.681223
0.681213
0.681203
0.681189
0.681149
0.681161
0.681157
0.681168
0.681168
0.681175
0.681171
0.6812
0.6812
0.681234
0.681234
0.681283
0.681283
0.681329
0.681329
0.681437
0.681437
0.681437
0.681483
0.681483
0.681612
0.681718
0.681805
0.681815
0.681815
0.681814
0.681942
0.682124
0.682148
0.682147
0.682284
0.682488
0.682516
0.682665
0.682874
0.682897
0.683077
0.683247
0.683436
0.68368
0.683925
0.684115
0.684435
0.684676
0.684961
0.685348
0.685698
0.686197
0.686695
0.687363
0.688056
0.688973
0.689965
0.691475
0.692693
0.696301
0.697007
0.712747
1.4461
283.39
0.770707
0.725273
0.707928
0.699427
0.694473
0.691315
0.689135
0.687583
0.686407
0.68552
0.684801
0.684243
0.683762
0.683381
0.683056
0.682793
0.682554
0.682363
0.682181
0.682039
0.681894
0.681785
0.681681
0.681601
0.681511
0.681452
0.681391
0.681348
0.681284
0.681257
0.681233
0.681212
0.681174
0.681164
0.681154
0.68114
0.6811
0.681112
0.681108
0.681119
0.681119
0.681126
0.681122
0.681151
0.681151
0.681185
0.681185
0.681234
0.681234
0.68128
0.68128
0.681388
0.681388
0.681388
0.681434
0.681434
0.681563
0.681669
0.681756
0.681766
0.681766
0.681765
0.681893
0.682075
0.682099
0.682099
0.682235
0.682439
0.682468
0.682616
0.682826
0.682848
0.683029
0.683199
0.683387
0.683632
0.683877
0.684067
0.684387
0.684628
0.684914
0.685301
0.685651
0.68615
0.686648
0.687317
0.68801
0.688927
0.68992
0.69143
0.692648
0.696258
0.696962
0.71273
1.44813
280.185
0.770678
0.725182
0.707801
0.699278
0.694311
0.691143
0.688957
0.6874
0.68622
0.685331
0.684609
0.684049
0.683567
0.683184
0.682858
0.682594
0.682354
0.682163
0.68198
0.681837
0.681691
0.681582
0.681478
0.681398
0.681308
0.681248
0.681187
0.681143
0.681079
0.681052
0.681028
0.681007
0.680969
0.680959
0.680949
0.680934
0.680894
0.680906
0.680903
0.680913
0.680913
0.68092
0.680916
0.680945
0.680945
0.680979
0.680979
0.681028
0.681027
0.681074
0.681074
0.681182
0.681182
0.681182
0.681228
0.681228
0.681357
0.681463
0.681551
0.681561
0.681561
0.68156
0.681687
0.68187
0.681894
0.681894
0.68203
0.682234
0.682264
0.682412
0.682622
0.682645
0.682826
0.682995
0.683184
0.683429
0.683674
0.683865
0.684185
0.684427
0.684713
0.6851
0.685451
0.685951
0.68645
0.687119
0.687812
0.688731
0.689724
0.691236
0.692454
0.696066
0.696765
0.712587
1.45307
276.639
0.770629
0.725027
0.707585
0.699027
0.694037
0.690853
0.688656
0.687091
0.685904
0.68501
0.684285
0.683722
0.683236
0.682852
0.682523
0.682259
0.682017
0.681824
0.68164
0.681497
0.68135
0.68124
0.681135
0.681055
0.680964
0.680904
0.680842
0.680798
0.680734
0.680706
0.680682
0.68066
0.680623
0.680613
0.680602
0.680587
0.680547
0.680559
0.680555
0.680565
0.680565
0.680573
0.680568
0.680597
0.680597
0.680631
0.680631
0.680679
0.680679
0.680726
0.680726
0.680834
0.680834
0.680834
0.680881
0.680881
0.681009
0.681115
0.681203
0.681214
0.681214
0.681213
0.68134
0.681523
0.681548
0.681548
0.681684
0.681889
0.681919
0.682068
0.682278
0.682301
0.682482
0.682652
0.682842
0.683087
0.683332
0.683524
0.683844
0.684087
0.684374
0.684762
0.685113
0.685614
0.686114
0.686784
0.687478
0.688398
0.689391
0.690906
0.692124
0.695741
0.69643
0.712335
1.46099
273.477
0.770558
0.724808
0.70728
0.698671
0.693649
0.690443
0.688231
0.686654
0.685458
0.684557
0.683826
0.683259
0.68277
0.682382
0.682051
0.681784
0.681541
0.681346
0.681161
0.681016
0.680868
0.680757
0.680651
0.68057
0.680479
0.680417
0.680355
0.680311
0.680246
0.680218
0.680193
0.680171
0.680133
0.680123
0.680112
0.680097
0.680057
0.680068
0.680064
0.680074
0.680074
0.680081
0.680076
0.680105
0.680105
0.680139
0.680139
0.680188
0.680188
0.680234
0.680234
0.680343
0.680343
0.680343
0.680389
0.680389
0.680518
0.680624
0.680713
0.680724
0.680724
0.680723
0.68085
0.681033
0.681059
0.681059
0.681195
0.681401
0.681432
0.68158
0.681791
0.681816
0.681996
0.682167
0.682357
0.682602
0.682849
0.683041
0.683363
0.683607
0.683894
0.684283
0.684636
0.685138
0.685639
0.686311
0.687006
0.687928
0.688921
0.690439
0.691657
0.695279
0.695957
0.711972
1.47209
271.011
0.770468
0.724524
0.706884
0.69821
0.693146
0.689912
0.687679
0.686087
0.68488
0.68397
0.683232
0.682658
0.682165
0.681773
0.681438
0.681168
0.680923
0.680726
0.680539
0.680392
0.680243
0.680131
0.680023
0.679941
0.679849
0.679787
0.679724
0.679679
0.679613
0.679584
0.679559
0.679537
0.679499
0.679488
0.679477
0.679461
0.679421
0.679432
0.679428
0.679437
0.679437
0.679444
0.679439
0.679468
0.679467
0.679501
0.679501
0.67955
0.67955
0.679596
0.679596
0.679705
0.679705
0.679705
0.679752
0.679752
0.67988
0.679988
0.680076
0.680088
0.680088
0.680087
0.680214
0.680398
0.680425
0.680425
0.680561
0.680767
0.6808
0.680948
0.681159
0.681185
0.681366
0.681538
0.681728
0.681974
0.682222
0.682415
0.682737
0.682983
0.683271
0.683662
0.684016
0.68452
0.685022
0.685696
0.686392
0.687317
0.68831
0.689833
0.69105
0.69468
0.695342
0.711499
1.48658
269.366
0.770356
0.724174
0.706398
0.697642
0.692527
0.689257
0.686999
0.685389
0.684167
0.683246
0.682499
0.681919
0.681419
0.681022
0.680683
0.68041
0.680161
0.679961
0.679772
0.679623
0.679472
0.679358
0.679249
0.679166
0.679072
0.679009
0.678945
0.678899
0.678833
0.678804
0.678778
0.678755
0.678716
0.678705
0.678693
0.678678
0.678637
0.678647
0.678643
0.678652
0.678652
0.678659
0.678653
0.678682
0.678681
0.678715
0.678715
0.678763
0.678763
0.678809
0.678809
0.678919
0.678919
0.678919
0.678966
0.678966
0.679095
0.679202
0.679292
0.679304
0.679304
0.679303
0.67943
0.679615
0.679643
0.679643
0.679779
0.679986
0.68002
0.680169
0.680381
0.680408
0.68059
0.680762
0.680953
0.6812
0.681449
0.681643
0.681966
0.682214
0.682504
0.682896
0.683251
0.683757
0.684261
0.684937
0.685635
0.686564
0.687557
0.689085
0.690301
0.693939
0.694583
0.710913
1.50468
268.566
0.770225
0.72376
0.705819
0.696966
0.691789
0.688478
0.68619
0.684557
0.683319
0.682384
0.681626
0.681037
0.68053
0.680127
0.679783
0.679506
0.679253
0.67905
0.678858
0.678706
0.678553
0.678437
0.678327
0.678242
0.678147
0.678083
0.678018
0.677971
0.677903
0.677873
0.677846
0.677823
0.677784
0.677772
0.67776
0.677744
0.677702
0.677712
0.677707
0.677716
0.677716
0.677723
0.677716
0.677745
0.677745
0.677777
0.677777
0.677826
0.677826
0.677872
0.677872
0.677982
0.677982
0.677982
0.678029
0.678029
0.678158
0.678267
0.678357
0.67837
0.67837
0.678369
0.678496
0.678681
0.678711
0.678711
0.678847
0.679055
0.679091
0.67924
0.679453
0.679482
0.679664
0.679837
0.680029
0.680276
0.680527
0.680723
0.681047
0.681297
0.681588
0.681983
0.68234
0.682848
0.683353
0.684033
0.684732
0.685665
0.686658
0.688193
0.689407
0.693056
0.693678
0.710214
1.52663
268.566
0.770074
0.723279
0.705147
0.696182
0.690932
0.687572
0.685249
0.68359
0.682332
0.681381
0.680611
0.680012
0.679497
0.679087
0.678737
0.678454
0.678197
0.67799
0.677795
0.67764
0.677485
0.677367
0.677254
0.677167
0.67707
0.677005
0.676938
0.67689
0.676822
0.67679
0.676763
0.676739
0.676699
0.676686
0.676673
0.676657
0.676615
0.676624
0.676619
0.676628
0.676628
0.676633
0.676627
0.676655
0.676655
0.676687
0.676687
0.676735
0.676735
0.676781
0.676781
0.676892
0.676892
0.676892
0.67694
0.67694
0.677068
0.677178
0.677269
0.677282
0.677282
0.677282
0.677408
0.677595
0.677627
0.677627
0.677763
0.677971
0.678011
0.678159
0.678372
0.678404
0.678586
0.678761
0.678954
0.679202
0.679454
0.679652
0.679977
0.68023
0.680522
0.68092
0.681279
0.681789
0.682297
0.68298
0.683681
0.684619
0.685611
0.687153
0.688367
0.692026
0.692623
0.7094
1.55266
269.272
0.769903
0.722733
0.704382
0.695287
0.689955
0.686538
0.684174
0.682486
0.681204
0.680237
0.679452
0.678841
0.678316
0.677898
0.677541
0.677253
0.676991
0.67678
0.67658
0.676423
0.676264
0.676143
0.676028
0.675939
0.675841
0.675773
0.675705
0.675656
0.675586
0.675554
0.675525
0.6755
0.675459
0.675446
0.675432
0.675415
0.675373
0.675381
0.675376
0.675384
0.675384
0.675389
0.675382
0.675409
0.675409
0.675441
0.675441
0.675489
0.675489
0.675535
0.675535
0.675646
0.675646
0.675646
0.675694
0.675694
0.675823
0.675934
0.676025
0.67604
0.67604
0.67604
0.676166
0.676354
0.676388
0.676387
0.676523
0.676733
0.676775
0.676923
0.677138
0.677172
0.677354
0.677531
0.677724
0.677973
0.678228
0.678428
0.678754
0.67901
0.679304
0.679704
0.680066
0.680579
0.681089
0.681776
0.682479
0.683422
0.684414
0.685964
0.687176
0.690848
0.691416
0.708469
1.58301
270.568
0.769713
0.722122
0.703523
0.694282
0.688856
0.685375
0.682965
0.681243
0.679936
0.678947
0.678147
0.677522
0.676987
0.67656
0.676195
0.6759
0.675632
0.675416
0.675212
0.675051
0.674889
0.674765
0.674647
0.674556
0.674455
0.674386
0.674316
0.674265
0.674194
0.67416
0.67413
0.674104
0.674063
0.674048
0.674034
0.674017
0.673973
0.673981
0.673975
0.673983
0.673983
0.673987
0.673979
0.674006
0.674006
0.674037
0.674037
0.674085
0.674085
0.674131
0.674131
0.674243
0.674243
0.674243
0.674292
0.674291
0.67442
0.674532
0.674624
0.67464
0.67464
0.67464
0.674766
0.674955
0.674991
0.674991
0.675127
0.675338
0.675383
0.675531
0.675747
0.675784
0.675967
0.676144
0.676339
0.676589
0.676846
0.677048
0.677375
0.677636
0.677931
0.678334
0.678698
0.679215
0.679727
0.680418
0.681123
0.682073
0.683064
0.684623
0.685833
0.689519
0.690054
0.707418
1.61793
272.308
0.769504
0.721444
0.70257
0.693165
0.687634
0.684081
0.68162
0.67986
0.678523
0.677512
0.676693
0.676054
0.675506
0.675069
0.674696
0.674393
0.674119
0.673898
0.673689
0.673523
0.673357
0.67323
0.673109
0.673015
0.672912
0.672841
0.672769
0.672716
0.672644
0.672608
0.672577
0.67255
0.672507
0.672492
0.672477
0.672459
0.672415
0.672421
0.672415
0.672422
0.672422
0.672425
0.672417
0.672444
0.672444
0.672474
0.672474
0.672521
0.672521
0.672567
0.672567
0.672679
0.672679
0.672679
0.672729
0.672729
0.672858
0.67297
0.673064
0.673081
0.673081
0.673081
0.673206
0.673397
0.673436
0.673435
0.673571
0.673783
0.673833
0.67398
0.674197
0.674237
0.67442
0.6746
0.674796
0.675047
0.675306
0.675511
0.675839
0.676104
0.676401
0.676807
0.677174
0.677695
0.678209
0.678905
0.679612
0.680568
0.681558
0.683128
0.684335
0.688036
0.688535
0.706247
1.65763
274.34
0.769277
0.720702
0.701522
0.691935
0.686287
0.682656
0.680137
0.678335
0.676966
0.67593
0.67509
0.674435
0.673874
0.673425
0.673042
0.672731
0.672449
0.672222
0.672008
0.671837
0.671667
0.671537
0.671412
0.671315
0.671209
0.671135
0.671061
0.671007
0.670933
0.670895
0.670862
0.670834
0.67079
0.670774
0.670758
0.670739
0.670694
0.6707
0.670693
0.670699
0.670699
0.670702
0.670692
0.670719
0.670719
0.670748
0.670748
0.670795
0.670795
0.670841
0.670841
0.670954
0.670954
0.670954
0.671004
0.671004
0.671133
0.671246
0.671341
0.67136
0.67136
0.671359
0.671485
0.671677
0.671718
0.671718
0.671854
0.672068
0.672121
0.672268
0.672487
0.672529
0.672713
0.672894
0.673092
0.673344
0.673605
0.673813
0.674143
0.674412
0.674712
0.675121
0.675491
0.676016
0.676532
0.677233
0.677943
0.678906
0.679895
0.681475
0.68268
0.686396
0.686857
0.704952
1.70235
276.509
0.769032
0.719894
0.70038
0.690593
0.684816
0.681097
0.678516
0.676667
0.675262
0.674198
0.673336
0.672663
0.672086
0.671625
0.671231
0.670911
0.670622
0.670388
0.670167
0.669992
0.669817
0.669682
0.669554
0.669454
0.669345
0.669268
0.669192
0.669135
0.669059
0.66902
0.668985
0.668956
0.668911
0.668893
0.668876
0.668856
0.668811
0.668815
0.668807
0.668813
0.668813
0.668815
0.668804
0.66883
0.66883
0.668858
0.668858
0.668905
0.668905
0.66895
0.66895
0.669064
0.669064
0.669064
0.669114
0.669114
0.669243
0.669359
0.669454
0.669475
0.669475
0.669474
0.669599
0.669793
0.669838
0.669837
0.669973
0.670188
0.670245
0.670392
0.670613
0.670659
0.670843
0.671026
0.671225
0.671479
0.671742
0.671954
0.672285
0.672559
0.67286
0.673274
0.673647
0.674176
0.674695
0.675401
0.676113
0.677084
0.678072
0.679663
0.680865
0.684598
0.685016
0.703529
1.75228
278.664
0.768771
0.719023
0.699142
0.689137
0.68322
0.679404
0.676754
0.674854
0.67341
0.672315
0.671429
0.670736
0.670143
0.669668
0.669262
0.668932
0.668634
0.668393
0.668166
0.667984
0.667805
0.667665
0.667533
0.667429
0.667317
0.667237
0.667158
0.667099
0.667021
0.666979
0.666943
0.666912
0.666866
0.666847
0.666828
0.666808
0.666762
0.666765
0.666756
0.666761
0.66676
0.666761
0.66675
0.666775
0.666775
0.666802
0.666802
0.666848
0.666848
0.666894
0.666894
0.667008
0.667008
0.667008
0.667059
0.667059
0.667188
0.667305
0.667401
0.667423
0.667424
0.667423
0.667548
0.667743
0.667791
0.667791
0.667926
0.668143
0.668205
0.668352
0.668573
0.668623
0.668808
0.668993
0.669194
0.669449
0.669715
0.66993
0.670262
0.670541
0.670845
0.671263
0.671639
0.672172
0.672695
0.673407
0.674121
0.675099
0.676086
0.677689
0.678887
0.682637
0.68301
0.701977
1.80758
280.665
0.768493
0.718087
0.69781
0.687567
0.681497
0.677576
0.674851
0.672895
0.671409
0.670281
0.669367
0.668652
0.668042
0.667552
0.667133
0.666792
0.666485
0.666235
0.666001
0.665814
0.665628
0.665484
0.665347
0.665239
0.665123
0.665041
0.664958
0.664897
0.664816
0.664773
0.664734
0.664702
0.664654
0.664633
0.664613
0.664592
0.664545
0.664547
0.664537
0.664541
0.66454
0.66454
0.664527
0.664552
0.664552
0.664578
0.664578
0.664623
0.664623
0.664669
0.664669
0.664784
0.664784
0.664784
0.664835
0.664835
0.664964
0.665082
0.66518
0.665204
0.665204
0.665204
0.665328
0.665525
0.665577
0.665577
0.665711
0.66593
0.665996
0.666143
0.666366
0.66642
0.666606
0.666793
0.666996
0.667252
0.667521
0.667739
0.668073
0.668357
0.668664
0.669086
0.669465
0.670003
0.670529
0.671247
0.671963
0.67295
0.673935
0.67555
0.676745
0.680513
0.680837
0.700292
1.86838
282.382
0.7682
0.717088
0.696384
0.685883
0.679647
0.675613
0.672806
0.67079
0.669257
0.668092
0.66715
0.666412
0.665781
0.665275
0.664842
0.66449
0.664172
0.663914
0.663671
0.663477
0.663286
0.663136
0.662994
0.662883
0.662763
0.662677
0.662591
0.662527
0.662444
0.662398
0.662356
0.662322
0.662273
0.662251
0.662229
0.662207
0.662159
0.662159
0.662148
0.662151
0.662151
0.66215
0.662135
0.662159
0.662159
0.662185
0.662183
0.662229
0.662229
0.662274
0.662273
0.662389
0.662389
0.662389
0.662442
0.662442
0.66257
0.66269
0.662789
0.662815
0.662815
0.662815
0.662939
0.663137
0.663193
0.663193
0.663327
0.663547
0.663619
0.663766
0.66399
0.664049
0.664235
0.664424
0.664628
0.664886
0.665158
0.66538
0.665716
0.666006
0.666315
0.666741
0.667124
0.667667
0.668196
0.66892
0.669639
0.670634
0.671617
0.673245
0.674436
0.678221
0.678495
0.698468
1.93474
283.7
0.767892
0.716027
0.694864
0.684085
0.67767
0.673513
0.670618
0.668536
0.666953
0.66575
0.664776
0.664012
0.66336
0.662836
0.662389
0.662024
0.661694
0.661426
0.661176
0.660975
0.660776
0.660621
0.660473
0.660357
0.660233
0.660143
0.660054
0.659987
0.659901
0.659852
0.659809
0.659773
0.659721
0.659698
0.659674
0.659652
0.659603
0.659601
0.659589
0.659591
0.65959
0.659588
0.659572
0.659595
0.659595
0.659619
0.659618
0.659662
0.659662
0.659707
0.659707
0.659823
0.659823
0.659823
0.659876
0.659876
0.660005
0.660126
0.660227
0.660255
0.660255
0.660255
0.660378
0.660578
0.660638
0.660638
0.660772
0.660993
0.66107
0.661217
0.661443
0.661506
0.661694
0.661885
0.662091
0.66235
0.662625
0.662851
0.663188
0.663484
0.663796
0.664227
0.664613
0.665161
0.665693
0.666424
0.667145
0.66815
0.669129
0.67077
0.671957
0.67576
0.67598
0.696504
2.00666
284.523
0.76757
0.714905
0.69325
0.682173
0.675565
0.671277
0.668287
0.666134
0.664497
0.663251
0.662244
0.661452
0.660778
0.660235
0.659771
0.659392
0.659051
0.658772
0.658513
0.658303
0.658098
0.657936
0.657783
0.657662
0.657534
0.657439
0.657346
0.657276
0.657187
0.657136
0.657089
0.657051
0.656998
0.656972
0.656947
0.656924
0.656873
0.65687
0.656857
0.656858
0.656856
0.656853
0.656835
0.656857
0.656857
0.656881
0.656878
0.656922
0.656922
0.656966
0.656966
0.657083
0.657083
0.657083
0.657137
0.657137
0.657266
0.657389
0.65749
0.657521
0.657521
0.657521
0.657643
0.657845
0.657909
0.657909
0.658043
0.658266
0.658349
0.658496
0.658723
0.658791
0.658979
0.659172
0.65938
0.659641
0.659919
0.660149
0.660488
0.66079
0.661105
0.66154
0.66193
0.662484
0.663018
0.663756
0.664479
0.665493
0.66647
0.668124
0.669306
0.673127
0.673292
0.694392
2.08404
284.771
0.767236
0.713722
0.691543
0.680148
0.673333
0.668903
0.665811
0.663583
0.661887
0.660596
0.659552
0.658731
0.658032
0.657469
0.656987
0.656594
0.656239
0.65595
0.655681
0.655463
0.65525
0.655081
0.654922
0.654796
0.654662
0.654564
0.654466
0.654393
0.654301
0.654246
0.654196
0.654156
0.654101
0.654073
0.654046
0.654021
0.65397
0.653965
0.65395
0.65395
0.653948
0.653943
0.653924
0.653945
0.653945
0.653967
0.653964
0.654008
0.654008
0.654051
0.654051
0.654169
0.654169
0.654169
0.654223
0.654223
0.654351
0.654476
0.654579
0.654612
0.654612
0.654612
0.654734
0.654937
0.655006
0.655006
0.65514
0.655364
0.655452
0.655599
0.655829
0.655901
0.656091
0.656286
0.656496
0.656758
0.657039
0.657273
0.657614
0.657922
0.65824
0.65868
0.659074
0.659633
0.660171
0.660915
0.66164
0.662664
0.663638
0.665305
0.666482
0.670319
0.670427
0.692129
2.16669
284.386
0.766889
0.712481
0.689745
0.678009
0.670974
0.666392
0.66319
0.660881
0.659124
0.657784
0.656701
0.655848
0.655123
0.654538
0.654037
0.653628
0.65326
0.652958
0.652678
0.652452
0.65223
0.652055
0.651889
0.651756
0.651618
0.651514
0.651412
0.651335
0.65124
0.651182
0.651129
0.651087
0.651029
0.650999
0.65097
0.650944
0.650891
0.650884
0.650868
0.650867
0.650864
0.650858
0.650837
0.650857
0.650857
0.650878
0.650874
0.650916
0.650916
0.650959
0.650959
0.651077
0.651077
0.651077
0.651132
0.651132
0.651261
0.651387
0.651491
0.651526
0.651527
0.651527
0.651648
0.651852
0.651926
0.651926
0.65206
0.652285
0.65238
0.652527
0.652758
0.652836
0.653026
0.653223
0.653435
0.653699
0.653984
0.654222
0.654565
0.654879
0.655199
0.655645
0.656042
0.656607
0.657148
0.657899
0.658626
0.65966
0.66063
0.66231
0.663481
0.667334
0.667384
0.689709
2.25427
283.323
0.766532
0.711183
0.687855
0.675758
0.668487
0.663743
0.660425
0.65803
0.656205
0.654814
0.653689
0.652802
0.652049
0.65144
0.650919
0.650493
0.65011
0.649796
0.649505
0.649268
0.649039
0.648855
0.648682
0.648544
0.648399
0.648291
0.648184
0.648103
0.648004
0.647942
0.647886
0.647841
0.647781
0.647749
0.647717
0.64769
0.647636
0.647627
0.64761
0.647607
0.647603
0.647596
0.647573
0.647592
0.647592
0.647611
0.647606
0.647648
0.647648
0.64769
0.647689
0.647808
0.647808
0.647808
0.647864
0.647864
0.647992
0.64812
0.648226
0.648263
0.648264
0.648263
0.648384
0.64859
0.648669
0.648669
0.648802
0.649029
0.649129
0.649277
0.649509
0.649593
0.649784
0.649984
0.650198
0.650463
0.650751
0.650994
0.651338
0.651658
0.651982
0.652433
0.652834
0.653405
0.653948
0.654706
0.655434
0.656478
0.657444
0.659138
0.660302
0.66417
0.66416
0.687125
2.34632
281.549
0.766166
0.709829
0.685876
0.673395
0.665874
0.660957
0.657515
0.655027
0.653132
0.651685
0.650515
0.649592
0.648809
0.648176
0.647633
0.647189
0.64679
0.646463
0.646159
0.645912
0.645673
0.645481
0.645301
0.645156
0.645005
0.644892
0.64478
0.644694
0.644591
0.644526
0.644466
0.644419
0.644356
0.644321
0.644287
0.644258
0.644203
0.644192
0.644173
0.644169
0.644163
0.644155
0.64413
0.644148
0.644148
0.644165
0.64416
0.6442
0.6442
0.644241
0.644241
0.64436
0.64436
0.64436
0.644416
0.644416
0.644544
0.644674
0.644781
0.644821
0.644822
0.644821
0.644941
0.645148
0.645233
0.645233
0.645366
0.645594
0.6457
0.645849
0.646082
0.646171
0.646363
0.646565
0.646781
0.647048
0.647339
0.647587
0.647932
0.648259
0.648586
0.649042
0.649447
0.650023
0.650569
0.651335
0.652064
0.653118
0.654079
0.655785
0.656944
0.660824
0.660754
0.684371
2.44221
279.057
0.76579
0.708421
0.683809
0.670921
0.663134
0.658035
0.65446
0.651874
0.649904
0.648397
0.64718
0.646219
0.645404
0.644743
0.644178
0.643715
0.643299
0.642957
0.642641
0.642383
0.642134
0.641933
0.641744
0.641593
0.641436
0.641316
0.641199
0.641109
0.641002
0.640932
0.640869
0.640818
0.640752
0.640715
0.640678
0.640648
0.64059
0.640578
0.640557
0.640551
0.640545
0.640535
0.640508
0.640525
0.640524
0.64054
0.640534
0.640573
0.640573
0.640613
0.640613
0.640732
0.640732
0.640732
0.640789
0.640789
0.640916
0.641047
0.641156
0.641199
0.6412
0.641199
0.641318
0.641526
0.641617
0.641617
0.641749
0.641978
0.642091
0.64224
0.642475
0.64257
0.642763
0.642967
0.643185
0.643454
0.643747
0.644
0.644347
0.644681
0.64501
0.645471
0.64588
0.646462
0.64701
0.647783
0.648513
0.649577
0.650533
0.652252
0.653403
0.657296
0.657164
0.681441
2.54111
275.848
0.765408
0.706961
0.681656
0.668338
0.660269
0.654975
0.651261
0.648571
0.64652
0.644951
0.643683
0.642681
0.641832
0.641143
0.640554
0.64007
0.639636
0.639279
0.638949
0.638679
0.63842
0.63821
0.638012
0.637853
0.637689
0.637564
0.63744
0.637346
0.637234
0.63716
0.637092
0.637039
0.63697
0.63693
0.63689
0.636858
0.636799
0.636784
0.636761
0.636754
0.636746
0.636735
0.636706
0.636721
0.636721
0.636734
0.636727
0.636765
0.636765
0.636803
0.636803
0.636923
0.636923
0.636923
0.63698
0.63698
0.637107
0.63724
0.63735
0.637396
0.637396
0.637396
0.637514
0.637723
0.63782
0.63782
0.637952
0.638181
0.6383
0.63845
0.638687
0.638787
0.638981
0.639188
0.639408
0.639678
0.639975
0.640232
0.64058
0.640921
0.641253
0.64172
0.642132
0.64272
0.64327
0.644051
0.644781
0.645855
0.646805
0.648536
0.649679
0.653583
0.653389
0.678326
2.64203
271.939
0.76502
0.705451
0.679418
0.665646
0.65728
0.651781
0.647918
0.645117
0.642981
0.641346
0.640024
0.638979
0.638094
0.637375
0.63676
0.636254
0.635802
0.635428
0.635084
0.634801
0.63453
0.63431
0.634104
0.633937
0.633765
0.633633
0.633504
0.633404
0.633288
0.633209
0.633137
0.63308
0.633008
0.632965
0.632922
0.632888
0.632827
0.63281
0.632785
0.632776
0.632766
0.632755
0.632723
0.632737
0.632736
0.632748
0.632739
0.632776
0.632776
0.632813
0.632813
0.632933
0.632933
0.632933
0.63299
0.63299
0.633116
0.633251
0.633362
0.633411
0.633411
0.633411
0.633528
0.633738
0.633841
0.633841
0.633972
0.634202
0.634328
0.634479
0.634716
0.634823
0.635018
0.635227
0.635449
0.635721
0.63602
0.636283
0.636631
0.636979
0.637314
0.637786
0.638201
0.638795
0.639348
0.640135
0.640865
0.641949
0.642893
0.644635
0.645771
0.649683
0.649427
0.675018
2.74374
267.355
0.764626
0.703894
0.677096
0.662847
0.654168
0.648451
0.644431
0.641513
0.639287
0.637582
0.636204
0.635112
0.634189
0.633439
0.632796
0.632267
0.631794
0.631404
0.631044
0.630748
0.630465
0.630235
0.630018
0.629843
0.629664
0.629525
0.629389
0.629284
0.629162
0.629079
0.629002
0.628942
0.628866
0.62882
0.628773
0.628737
0.628674
0.628654
0.628627
0.628617
0.628605
0.628593
0.628559
0.628571
0.62857
0.62858
0.628569
0.628605
0.628605
0.62864
0.62864
0.62876
0.62876
0.62876
0.628817
0.628817
0.628943
0.629079
0.629192
0.629244
0.629244
0.629244
0.62936
0.62957
0.629679
0.629679
0.62981
0.630041
0.630173
0.630325
0.630563
0.630676
0.630872
0.631083
0.631307
0.63158
0.631882
0.63215
0.6325
0.632854
0.633192
0.633669
0.634087
0.634687
0.635241
0.636036
0.636766
0.637859
0.638796
0.640548
0.641675
0.645594
0.645277
0.67151
2.84483
262.129
0.76423
0.702291
0.674695
0.659944
0.650933
0.644988
0.640802
0.637761
0.63544
0.633659
0.632222
0.631082
0.630118
0.629334
0.628663
0.628109
0.627615
0.627207
0.62683
0.626521
0.626225
0.625983
0.625756
0.625572
0.625385
0.625239
0.625096
0.624985
0.624858
0.624769
0.624688
0.624623
0.624544
0.624494
0.624444
0.624406
0.624341
0.624318
0.624289
0.624276
0.624263
0.624249
0.624213
0.624223
0.624223
0.62423
0.624218
0.624252
0.624252
0.624285
0.624285
0.624404
0.624405
0.624405
0.624462
0.624462
0.624587
0.624725
0.624839
0.624893
0.624894
0.624893
0.625009
0.625219
0.625335
0.625335
0.625465
0.625696
0.625835
0.625988
0.626227
0.626346
0.626542
0.626756
0.626982
0.627257
0.627561
0.627834
0.628184
0.628546
0.628886
0.629368
0.629789
0.630395
0.63095
0.631752
0.63248
0.633583
0.634514
0.636275
0.637393
0.641316
0.640938
0.667792
2.94367
256.301
0.763831
0.700645
0.672215
0.656938
0.647579
0.641393
0.637032
0.63386
0.631439
0.62958
0.628079
0.626888
0.625882
0.625062
0.62436
0.62378
0.623264
0.622836
0.622443
0.622118
0.621809
0.621556
0.621318
0.621124
0.620929
0.620775
0.620624
0.620507
0.620374
0.62028
0.620194
0.620125
0.620042
0.619988
0.619935
0.619894
0.619826
0.619801
0.619769
0.619754
0.619739
0.619724
0.619686
0.619694
0.619693
0.619698
0.619684
0.619716
0.619716
0.619748
0.619747
0.619866
0.619867
0.619867
0.619924
0.619924
0.620049
0.620187
0.620303
0.62036
0.62036
0.62036
0.620474
0.620685
0.620807
0.620807
0.620937
0.621168
0.621313
0.621467
0.621707
0.621832
0.62203
0.622245
0.622473
0.622749
0.623056
0.623334
0.623685
0.624053
0.624396
0.624883
0.625307
0.625918
0.626474
0.627282
0.628009
0.629121
0.630044
0.631813
0.632921
0.636847
0.63641
0.663855
3.03842
249.913
0.763431
0.698959
0.66966
0.653831
0.644107
0.637666
0.633122
0.629813
0.627286
0.625344
0.623776
0.62253
0.62148
0.620622
0.619888
0.619281
0.618741
0.618293
0.617881
0.617541
0.617218
0.616952
0.616703
0.616499
0.616294
0.616132
0.615974
0.615851
0.615712
0.615612
0.61552
0.615446
0.615359
0.615302
0.615244
0.615201
0.61513
0.615102
0.615068
0.615051
0.615033
0.615017
0.614977
0.614983
0.614982
0.614984
0.614968
0.614999
0.614999
0.615028
0.615027
0.615146
0.615146
0.615146
0.615203
0.615203
0.615327
0.615467
0.615583
0.615643
0.615644
0.615644
0.615757
0.615967
0.616096
0.616096
0.616226
0.616457
0.616607
0.616763
0.617004
0.617134
0.617333
0.617551
0.61778
0.618058
0.618367
0.61865
0.619001
0.619376
0.619721
0.620212
0.620639
0.621256
0.621813
0.622627
0.623352
0.624472
0.625387
0.627163
0.628261
0.632186
0.631692
0.659691
3.12712
243.012
0.763033
0.697235
0.667032
0.650626
0.640519
0.633812
0.629074
0.62562
0.622981
0.620952
0.619314
0.618011
0.616913
0.616016
0.615248
0.614613
0.614047
0.613578
0.613147
0.61279
0.612452
0.612173
0.611912
0.611698
0.611483
0.611313
0.611146
0.611016
0.61087
0.610765
0.610666
0.610588
0.610497
0.610435
0.610374
0.610327
0.610254
0.610223
0.610185
0.610166
0.610146
0.610129
0.610087
0.610091
0.610089
0.610089
0.61007
0.610099
0.610099
0.610127
0.610124
0.610242
0.610243
0.610243
0.6103
0.6103
0.610423
0.610564
0.610681
0.610744
0.610744
0.610744
0.610856
0.611066
0.611202
0.611202
0.611331
0.611561
0.611718
0.611875
0.612117
0.612253
0.612453
0.612673
0.612904
0.613183
0.613493
0.613781
0.614133
0.614514
0.614861
0.615357
0.615786
0.616408
0.616965
0.617785
0.618507
0.619635
0.620542
0.622323
0.62341
0.627332
0.626784
0.65529
3.20763
235.644
0.762636
0.695477
0.664335
0.647326
0.636817
0.62983
0.624889
0.621283
0.618527
0.616406
0.614694
0.613331
0.612183
0.611245
0.610441
0.609775
0.609184
0.608691
0.60824
0.607866
0.607512
0.60722
0.606945
0.60672
0.606496
0.606316
0.606141
0.606003
0.605851
0.605739
0.605635
0.605552
0.605456
0.605389
0.605324
0.605274
0.605198
0.605163
0.605123
0.605101
0.605079
0.60506
0.605017
0.605018
0.605015
0.605013
0.604991
0.605018
0.605018
0.605043
0.60504
0.605157
0.605158
0.605157
0.605214
0.605214
0.605336
0.605478
0.605596
0.605662
0.605662
0.605662
0.605773
0.605982
0.606125
0.606125
0.606253
0.606483
0.606645
0.606804
0.607046
0.607188
0.607389
0.607611
0.607843
0.608124
0.608435
0.608729
0.60908
0.609467
0.609816
0.610317
0.610747
0.611374
0.611931
0.612756
0.613475
0.61461
0.615508
0.617293
0.618369
0.622285
0.621685
0.650643
3.27774
227.855
0.762243
0.693688
0.661571
0.643934
0.633005
0.625724
0.62057
0.616804
0.613925
0.611708
0.609918
0.608492
0.607292
0.606309
0.605468
0.604771
0.604151
0.603635
0.603163
0.60277
0.6024
0.602093
0.601805
0.601568
0.601333
0.601144
0.60096
0.600814
0.600655
0.600536
0.600425
0.600337
0.600236
0.600165
0.600095
0.600042
0.599962
0.599924
0.59988
0.599856
0.599831
0.599811
0.599766
0.599765
0.599761
0.599756
0.599732
0.599757
0.599756
0.599779
0.599774
0.59989
0.599891
0.599891
0.599947
0.599947
0.600068
0.600211
0.60033
0.600398
0.600398
0.600398
0.600508
0.600716
0.600865
0.600865
0.600993
0.601222
0.60139
0.60155
0.601793
0.60194
0.602142
0.602366
0.6026
0.602881
0.603194
0.603492
0.603843
0.604236
0.604586
0.605092
0.605524
0.606155
0.606711
0.607542
0.608256
0.609398
0.610287
0.612072
0.613138
0.617044
0.616395
0.645742
3.33524
219.69
0.761854
0.69187
0.658745
0.640452
0.629084
0.621497
0.616119
0.612186
0.609178
0.606858
0.604987
0.603495
0.602239
0.601211
0.60033
0.599599
0.598951
0.598409
0.597915
0.597503
0.597116
0.596793
0.596491
0.596242
0.595996
0.595796
0.595603
0.595449
0.595282
0.595156
0.595039
0.594945
0.594839
0.594763
0.594688
0.594631
0.594549
0.594507
0.59446
0.594432
0.594404
0.594382
0.594336
0.594333
0.594327
0.59432
0.594292
0.594315
0.594315
0.594335
0.594328
0.594443
0.594444
0.594444
0.594499
0.594499
0.594619
0.594762
0.594882
0.594953
0.594953
0.594953
0.595061
0.595268
0.595424
0.595424
0.595551
0.595779
0.595953
0.596115
0.596357
0.59651
0.596712
0.596938
0.597174
0.597456
0.597769
0.598072
0.598422
0.598821
0.599173
0.599682
0.600115
0.600751
0.601305
0.602141
0.602851
0.603998
0.604877
0.606662
0.607716
0.611608
0.610916
0.640578
3.37793
211.19
0.761472
0.690028
0.655859
0.636885
0.625059
0.61715
0.611538
0.60743
0.604286
0.601861
0.599904
0.598342
0.597028
0.595952
0.595029
0.594264
0.593585
0.593017
0.592499