/*--------------------------------*- C++ -*----------------------------------*\
| =========                 |                                                 |
| \\      /  F ield         | OpenFOAM: The Open Source CFD Toolbox           |
|  \\    /   O peration     | Version:  v2012                                 |
|   \\  /    A nd           | Website:  www.openfoam.com                      |
|    \\/     M anipulation  |                                                 |
\*---------------------------------------------------------------------------*/
FoamFile
{
    version     2.0;
    format      ascii;
    class       volScalarField;
    location    "12";
    object      k;
}
// * * * * * * * * * * * * * * * * * * * * * * * * * * * * * * * * * * * * * //

dimensions      [0 2 -2 0 0 0 0];


internalField   nonuniform List<scalar> 
209825
(
0.00101984
0.000956767
0.000923671
0.000904023
0.000890879
0.000881483
0.000874333
0.000868796
0.00086429
0.000860665
0.000857573
0.000855037
0.000852799
0.000850923
0.000849259
0.000847863
0.000846576
0.000845498
0.000844474
0.000843624
0.000842795
0.000842109
0.000841447
0.000840914
0.000840361
0.000839926
0.000839485
0.000839151
0.000838761
0.000838484
0.000838236
0.000838022
0.000837789
0.000837606
0.000837385
0.00083722
0.000837068
0.000836945
0.00083681
0.000836707
0.000836562
0.000836454
0.000836353
0.00083628
0.000836187
0.000836113
0.000836052
0.000835968
0.000835906
0.000835856
0.000835744
0.000835721
0.000835709
0.000835683
0.000835593
0.000835651
0.00083565
0.000835649
0.000835625
0.000835702
0.000835702
0.0008357
0.000835827
0.000836093
0.000836096
0.000836095
0.000836201
0.000836509
0.000836657
0.000836657
0.000836799
0.000837062
0.000837364
0.000837635
0.000838005
0.000838241
0.000838467
0.000838734
0.000839103
0.000839526
0.000839954
0.000840528
0.000841017
0.000841619
0.000842206
0.000843096
0.00084388
0.000845149
0.000846111
0.000848122
0.000849358
0.000853237
0.000854169
0.00086773
0.00348044
0.00211972
0.00101984
0.000956761
0.000923658
0.000904006
0.000890858
0.000881458
0.000874306
0.000868767
0.00086426
0.000860634
0.000857541
0.000855004
0.000852765
0.000850888
0.000849224
0.000847827
0.000846539
0.000845461
0.000844436
0.000843586
0.000842757
0.000842071
0.000841409
0.000840875
0.000840322
0.000839886
0.000839446
0.000839111
0.000838721
0.000838443
0.000838195
0.000837982
0.000837749
0.000837566
0.000837344
0.00083718
0.000837027
0.000836903
0.000836768
0.000836666
0.000836521
0.000836413
0.000836311
0.000836238
0.000836146
0.000836071
0.00083601
0.000835926
0.000835865
0.000835814
0.000835702
0.00083568
0.000835667
0.000835641
0.000835552
0.000835609
0.000835609
0.000835607
0.000835584
0.00083566
0.00083566
0.000835658
0.000835786
0.000836051
0.000836054
0.000836054
0.000836159
0.000836467
0.000836615
0.000836615
0.000836758
0.00083702
0.000837323
0.000837594
0.000837963
0.0008382
0.000838426
0.000838693
0.000839062
0.000839485
0.000839913
0.000840487
0.000840976
0.000841578
0.000842166
0.000843056
0.00084384
0.000845109
0.000846072
0.000848082
0.000849319
0.000853199
0.000854129
0.000867714
0.00348487
0.00212536
0.00101984
0.000956727
0.000923597
0.000903925
0.000890762
0.000881352
0.000874191
0.000868646
0.000864132
0.000860502
0.000857405
0.000854864
0.000852623
0.000850743
0.000849077
0.000847678
0.000846388
0.000845308
0.000844282
0.000843431
0.0008426
0.000841913
0.00084125
0.000840715
0.000840161
0.000839725
0.000839283
0.000838949
0.000838557
0.000838279
0.000838031
0.000837817
0.000837583
0.0008374
0.000837178
0.000837013
0.000836859
0.000836736
0.000836601
0.000836498
0.000836352
0.000836244
0.000836143
0.000836069
0.000835977
0.000835902
0.000835841
0.000835757
0.000835695
0.000835644
0.000835533
0.00083551
0.000835497
0.000835471
0.000835382
0.000835439
0.000835438
0.000835437
0.000835413
0.00083549
0.00083549
0.000835488
0.000835615
0.00083588
0.000835884
0.000835883
0.000835989
0.000836297
0.000836445
0.000836445
0.000836588
0.00083685
0.000837153
0.000837424
0.000837793
0.00083803
0.000838257
0.000838524
0.000838893
0.000839317
0.000839745
0.000840319
0.000840808
0.000841411
0.000841999
0.00084289
0.000843674
0.000844943
0.000845906
0.000847917
0.000849154
0.000853035
0.000853961
0.000867594
0.00349651
0.00213868
0.00101983
0.000956669
0.000923493
0.000903787
0.000890601
0.000881173
0.000873998
0.000868441
0.000863918
0.00086028
0.000857176
0.00085463
0.000852383
0.000850499
0.000848829
0.000847427
0.000846134
0.000845051
0.000844023
0.000843169
0.000842337
0.000841647
0.000840983
0.000840446
0.000839891
0.000839454
0.000839011
0.000838675
0.000838283
0.000838004
0.000837754
0.000837539
0.000837305
0.000837121
0.000836898
0.000836733
0.000836579
0.000836455
0.000836319
0.000836216
0.00083607
0.000835961
0.000835859
0.000835786
0.000835693
0.000835618
0.000835556
0.000835472
0.00083541
0.000835359
0.000835248
0.000835225
0.000835212
0.000835185
0.000835096
0.000835153
0.000835152
0.000835151
0.000835127
0.000835203
0.000835203
0.000835202
0.000835329
0.000835594
0.000835597
0.000835597
0.000835703
0.00083601
0.00083616
0.000836159
0.000836302
0.000836564
0.000836868
0.000837139
0.000837508
0.000837746
0.000837973
0.00083824
0.00083861
0.000839033
0.000839462
0.000840037
0.000840526
0.00084113
0.000841718
0.000842609
0.000843394
0.000844664
0.000845627
0.000847639
0.000848876
0.000852759
0.000853678
0.000867383
0.00351531
0.00215956
0.00101983
0.000956587
0.000923346
0.000903594
0.000890374
0.00088092
0.000873725
0.000868151
0.000863616
0.000859966
0.000856853
0.000854299
0.000852045
0.000850155
0.000848479
0.000847072
0.000845776
0.000844689
0.000843657
0.0008428
0.000841965
0.000841273
0.000840606
0.000840067
0.00083951
0.000839071
0.000838626
0.000838289
0.000837895
0.000837615
0.000837364
0.000837148
0.000836912
0.000836727
0.000836504
0.000836337
0.000836183
0.000836058
0.000835921
0.000835818
0.000835671
0.000835562
0.00083546
0.000835386
0.000835292
0.000835217
0.000835155
0.000835071
0.000835008
0.000834958
0.000834846
0.000834822
0.000834809
0.000834783
0.000834693
0.000834749
0.000834749
0.000834748
0.000834724
0.0008348
0.0008348
0.000834798
0.000834924
0.00083519
0.000835194
0.000835194
0.000835299
0.000835606
0.000835757
0.000835756
0.000835899
0.000836162
0.000836465
0.000836736
0.000837106
0.000837344
0.000837572
0.00083784
0.000838209
0.000838634
0.000839062
0.000839638
0.000840128
0.000840733
0.000841321
0.000842214
0.000842998
0.00084427
0.000845233
0.000847246
0.000848483
0.000852369
0.000853277
0.00086708
0.00354165
0.00218817
0.00101982
0.000956481
0.000923156
0.000903343
0.000890079
0.000880592
0.000873371
0.000867777
0.000863224
0.00085956
0.000856435
0.00085387
0.000851607
0.000849709
0.000848026
0.000846613
0.000845311
0.000844219
0.000843183
0.000842322
0.000841483
0.000840788
0.000840118
0.000839576
0.000839017
0.000838575
0.000838128
0.000837789
0.000837393
0.000837111
0.000836858
0.000836641
0.000836404
0.000836217
0.000835993
0.000835825
0.000835669
0.000835544
0.000835406
0.000835302
0.000835155
0.000835045
0.000834941
0.000834867
0.000834773
0.000834698
0.000834635
0.00083455
0.000834488
0.000834437
0.000834325
0.000834301
0.000834288
0.000834261
0.00083417
0.000834226
0.000834226
0.000834225
0.0008342
0.000834276
0.000834276
0.000834275
0.000834401
0.000834666
0.00083467
0.00083467
0.000834775
0.000835082
0.000835234
0.000835234
0.000835377
0.000835639
0.000835943
0.000836214
0.000836584
0.000836824
0.000837053
0.000837321
0.00083769
0.000838115
0.000838544
0.000839121
0.000839612
0.000840218
0.000840807
0.000841701
0.000842485
0.000843759
0.000844722
0.000846736
0.000847972
0.000851862
0.000852757
0.000866686
0.00357594
0.00222462
0.00101981
0.000956351
0.000922922
0.000903035
0.000889716
0.000880188
0.000872935
0.000867315
0.000862741
0.00085906
0.000855919
0.000853342
0.000851068
0.00084916
0.000847468
0.000846047
0.000844738
0.000843641
0.000842599
0.000841733
0.000840889
0.00084019
0.000839516
0.000838971
0.000838408
0.000837964
0.000837514
0.000837172
0.000836774
0.00083649
0.000836234
0.000836016
0.000835777
0.000835589
0.000835363
0.000835194
0.000835037
0.00083491
0.000834771
0.000834666
0.000834518
0.000834407
0.000834303
0.000834228
0.000834133
0.000834057
0.000833994
0.000833909
0.000833846
0.000833795
0.000833682
0.000833658
0.000833644
0.000833617
0.000833526
0.000833582
0.000833581
0.00083358
0.000833555
0.000833631
0.000833631
0.00083363
0.000833755
0.00083402
0.000834025
0.000834025
0.00083413
0.000834436
0.00083459
0.00083459
0.000834733
0.000834995
0.000835299
0.000835571
0.000835941
0.000836182
0.000836412
0.000836681
0.000837051
0.000837476
0.000837905
0.000838483
0.000838975
0.000839584
0.000840172
0.000841068
0.000841852
0.000843128
0.000844091
0.000846106
0.000847343
0.000851236
0.000852115
0.000866198
0.00361861
0.00226898
0.0010198
0.000956197
0.000922645
0.000902668
0.000889285
0.000879708
0.000872417
0.000866766
0.000862166
0.000858464
0.000855305
0.000852712
0.000850425
0.000848505
0.000846803
0.000845373
0.000844056
0.000842951
0.000841902
0.000841031
0.000840182
0.000839478
0.000838799
0.00083825
0.000837683
0.000837235
0.000836782
0.000836437
0.000836037
0.000835749
0.000835492
0.00083527
0.00083503
0.00083484
0.000834612
0.000834442
0.000834283
0.000834155
0.000834014
0.000833908
0.000833759
0.000833647
0.000833542
0.000833466
0.000833371
0.000833294
0.00083323
0.000833145
0.00083308
0.000833029
0.000832917
0.000832892
0.000832878
0.00083285
0.000832758
0.000832813
0.000832813
0.000832812
0.000832787
0.000832862
0.000832862
0.000832861
0.000832985
0.000833251
0.000833256
0.000833256
0.000833361
0.000833666
0.000833823
0.000833822
0.000833965
0.000834228
0.000834532
0.000834803
0.000835174
0.000835417
0.000835648
0.000835918
0.000836287
0.000836714
0.000837143
0.000837722
0.000838216
0.000838826
0.000839415
0.000840313
0.000841097
0.000842376
0.000843338
0.000845354
0.000846591
0.000850489
0.00085135
0.000865616
0.00367009
0.00232131
0.00101978
0.000956019
0.000922323
0.000902243
0.000888784
0.00087915
0.000871814
0.000866127
0.000861498
0.000857771
0.000854591
0.00085198
0.000849678
0.000847744
0.00084603
0.000844589
0.000843262
0.000842149
0.000841092
0.000840214
0.000839358
0.000838649
0.000837964
0.000837411
0.00083684
0.000836387
0.00083593
0.000835582
0.000835178
0.000834888
0.000834627
0.000834403
0.00083416
0.000833968
0.000833738
0.000833566
0.000833405
0.000833275
0.000833133
0.000833026
0.000832876
0.000832763
0.000832656
0.000832579
0.000832483
0.000832405
0.00083234
0.000832255
0.00083219
0.000832138
0.000832026
0.000832
0.000831985
0.000831957
0.000831865
0.000831919
0.000831919
0.000831917
0.000831892
0.000831967
0.000831967
0.000831966
0.000832089
0.000832354
0.000832361
0.000832361
0.000832466
0.00083277
0.000832929
0.000832929
0.000833072
0.000833334
0.000833638
0.00083391
0.000834281
0.000834526
0.000834759
0.00083503
0.000835399
0.000835827
0.000836256
0.000836836
0.000837331
0.000837944
0.000838534
0.000839433
0.000840218
0.000841499
0.000842461
0.000844479
0.000845716
0.000849618
0.000850457
0.000864937
0.00373081
0.00238161
0.00101977
0.000955817
0.000921957
0.000901758
0.000888213
0.000878514
0.000871126
0.000865399
0.000860735
0.00085698
0.000853776
0.000851144
0.000848824
0.000846874
0.000845146
0.000843693
0.000842355
0.000841232
0.000840167
0.000839281
0.000838417
0.000837701
0.000837011
0.000836452
0.000835875
0.000835418
0.000834957
0.000834604
0.000834197
0.000833903
0.000833638
0.000833412
0.000833166
0.000832972
0.00083274
0.000832565
0.000832401
0.00083227
0.000832126
0.000832017
0.000831866
0.000831752
0.000831643
0.000831565
0.000831468
0.000831389
0.000831323
0.000831237
0.000831171
0.000831119
0.000831007
0.00083098
0.000830965
0.000830936
0.000830843
0.000830896
0.000830896
0.000830894
0.000830868
0.000830944
0.000830944
0.000830943
0.000831064
0.00083133
0.000831337
0.000831337
0.000831442
0.000831745
0.000831907
0.000831906
0.00083205
0.000832312
0.000832616
0.000832889
0.00083326
0.000833508
0.000833741
0.000834014
0.000834382
0.000834812
0.000835241
0.000835823
0.000836319
0.000836936
0.000837525
0.000838427
0.000839211
0.000840496
0.000841458
0.000843477
0.000844713
0.000848621
0.000849435
0.000864161
0.0038012
0.00244989
0.00101976
0.000955592
0.000921547
0.000901214
0.000887571
0.000877798
0.000870352
0.000864578
0.000859876
0.000856089
0.000852858
0.000850203
0.000847862
0.000845895
0.000844151
0.000842684
0.000841333
0.000840199
0.000839124
0.000838228
0.000837357
0.000836633
0.000835936
0.000835371
0.000834788
0.000834326
0.000833859
0.000833502
0.000833091
0.000832793
0.000832524
0.000832295
0.000832045
0.000831848
0.000831614
0.000831436
0.00083127
0.000831137
0.000830991
0.00083088
0.000830727
0.000830611
0.000830502
0.000830422
0.000830324
0.000830244
0.000830177
0.00083009
0.000830023
0.000829971
0.000829858
0.00082983
0.000829814
0.000829785
0.000829691
0.000829743
0.000829743
0.000829741
0.000829714
0.00082979
0.00082979
0.000829789
0.000829908
0.000830174
0.000830183
0.000830183
0.000830287
0.000830589
0.000830754
0.000830754
0.000830897
0.000831159
0.000831464
0.000831737
0.000832108
0.000832358
0.000832594
0.000832867
0.000833236
0.000833667
0.000834097
0.00083468
0.000835178
0.000835797
0.000836387
0.000837292
0.000838076
0.000839364
0.000840325
0.000842346
0.000843582
0.000847496
0.000848282
0.000863284
0.00388167
0.00252613
0.00101974
0.000955342
0.000921092
0.00090061
0.000886858
0.000877002
0.000869492
0.000863665
0.00085892
0.000855097
0.000851835
0.000849154
0.00084679
0.000844803
0.000843042
0.000841559
0.000840195
0.000839048
0.000837961
0.000837056
0.000836176
0.000835443
0.000834738
0.000834166
0.000833577
0.000833109
0.000832636
0.000832274
0.000831858
0.000831555
0.000831282
0.000831049
0.000830796
0.000830596
0.000830358
0.000830178
0.000830009
0.000829874
0.000829725
0.000829613
0.000829458
0.00082934
0.000829229
0.000829148
0.000829048
0.000828967
0.000828898
0.000828811
0.000828743
0.00082869
0.000828577
0.000828548
0.000828532
0.000828502
0.000828406
0.000828457
0.000828457
0.000828455
0.000828428
0.000828503
0.000828503
0.000828502
0.00082862
0.000828886
0.000828896
0.000828895
0.000829
0.0008293
0.000829468
0.000829468
0.000829611
0.000829874
0.000830179
0.000830452
0.000830823
0.000831077
0.000831314
0.000831589
0.000831957
0.00083239
0.00083282
0.000833405
0.000833904
0.000834527
0.000835118
0.000836025
0.000836809
0.000838101
0.000839062
0.000841083
0.000842319
0.00084624
0.000846994
0.000862306
0.00397259
0.00261028
0.00101972
0.00095507
0.000920593
0.000899945
0.000886072
0.000876125
0.000868543
0.000862659
0.000857866
0.000854003
0.000850707
0.000847997
0.000845608
0.000843599
0.000841818
0.000840318
0.000838938
0.000837778
0.000836678
0.000835762
0.000834871
0.000834129
0.000833415
0.000832835
0.000832239
0.000831764
0.000831285
0.000830918
0.000830497
0.000830189
0.000829911
0.000829673
0.000829416
0.000829213
0.000828972
0.000828789
0.000828616
0.000828478
0.000828327
0.000828212
0.000828055
0.000827936
0.000827822
0.00082774
0.000827638
0.000827556
0.000827486
0.000827398
0.000827329
0.000827275
0.000827161
0.000827131
0.000827114
0.000827084
0.000826987
0.000827036
0.000827036
0.000827035
0.000827006
0.000827081
0.000827081
0.00082708
0.000827196
0.000827462
0.000827473
0.000827473
0.000827577
0.000827875
0.000828048
0.000828048
0.000828191
0.000828453
0.000828758
0.000829032
0.000829403
0.00082966
0.000829899
0.000830176
0.000830544
0.000830978
0.000831409
0.000831995
0.000832497
0.000833124
0.000833714
0.000834625
0.000835408
0.000836704
0.000837664
0.000839687
0.000840922
0.00084485
0.00084557
0.000861223
0.00407432
0.00270233
0.0010197
0.000954774
0.00092005
0.000899221
0.000885215
0.000875167
0.000867505
0.000861558
0.000856712
0.000852805
0.000849472
0.00084673
0.000844313
0.00084228
0.000840477
0.000838958
0.000837561
0.000836386
0.000835272
0.000834343
0.000833441
0.00083269
0.000831966
0.000831377
0.000830773
0.000830291
0.000829805
0.000829431
0.000829005
0.000828691
0.000828407
0.000828165
0.000827904
0.000827697
0.000827452
0.000827265
0.00082709
0.000826949
0.000826794
0.000826678
0.000826518
0.000826397
0.000826281
0.000826197
0.000826093
0.00082601
0.000825938
0.000825849
0.000825778
0.000825724
0.00082561
0.000825578
0.00082556
0.000825529
0.000825432
0.000825479
0.000825479
0.000825477
0.000825448
0.000825522
0.000825522
0.000825521
0.000825635
0.000825901
0.000825914
0.000825914
0.000826017
0.000826313
0.00082649
0.00082649
0.000826633
0.000826895
0.000827201
0.000827475
0.000827847
0.000828106
0.000828348
0.000828626
0.000828994
0.00082943
0.000829861
0.000830449
0.000830952
0.000831583
0.000832174
0.000833089
0.000833871
0.000835171
0.00083613
0.000838155
0.000839389
0.000843325
0.000844007
0.000860032
0.00418711
0.00280225
0.00101969
0.000954456
0.000919462
0.000898435
0.000884284
0.000874127
0.000866378
0.000860361
0.000855458
0.000851503
0.000848129
0.000845352
0.000842905
0.000840845
0.000839018
0.000837479
0.000836063
0.000834871
0.000833742
0.0008328
0.000831885
0.000831122
0.000830388
0.00082979
0.000829177
0.000828687
0.000828193
0.000827813
0.00082738
0.00082706
0.00082677
0.000826524
0.000826257
0.000826046
0.000825797
0.000825607
0.000825427
0.000825283
0.000825125
0.000825006
0.000824844
0.000824721
0.000824602
0.000824516
0.000824411
0.000824325
0.000824252
0.000824162
0.000824089
0.000824035
0.00082392
0.000823887
0.000823868
0.000823836
0.000823737
0.000823783
0.000823783
0.000823781
0.000823751
0.000823824
0.000823825
0.000823824
0.000823935
0.0008242
0.000824215
0.000824215
0.000824318
0.000824612
0.000824793
0.000824793
0.000824937
0.000825198
0.000825504
0.000825778
0.00082615
0.000826414
0.000826657
0.000826938
0.000827305
0.000827743
0.000828174
0.000828764
0.000829269
0.000829905
0.000830496
0.000831414
0.000832195
0.0008335
0.000834458
0.000836483
0.000837716
0.00084166
0.000842303
0.000858732
0.00431116
0.00291003
0.00101967
0.000954116
0.000918831
0.00089759
0.000883281
0.000873004
0.000865161
0.000859068
0.000854103
0.000850095
0.000846677
0.000843861
0.000841381
0.000839293
0.00083744
0.000835878
0.000834441
0.000833231
0.000832086
0.000831129
0.000830201
0.000829426
0.00082868
0.000828072
0.00082745
0.000826951
0.000826449
0.000826061
0.000825621
0.000825294
0.000824998
0.000824746
0.000824474
0.000824258
0.000824005
0.000823811
0.000823627
0.000823479
0.000823318
0.000823196
0.000823032
0.000822906
0.000822784
0.000822696
0.000822589
0.000822501
0.000822426
0.000822336
0.000822261
0.000822206
0.00082209
0.000822055
0.000822035
0.000822002
0.000821902
0.000821946
0.000821946
0.000821944
0.000821912
0.000821986
0.000821986
0.000821985
0.000822094
0.000822359
0.000822375
0.000822374
0.000822477
0.000822769
0.000822955
0.000822955
0.000823098
0.00082336
0.000823666
0.000823941
0.000824312
0.00082458
0.000824825
0.000825108
0.000825475
0.000825915
0.000826346
0.000826938
0.000827445
0.000828085
0.000828677
0.000829598
0.000830378
0.000831688
0.000832645
0.000834671
0.000835903
0.000839855
0.000840454
0.000857318
0.00444656
0.00302567
0.00101965
0.000953753
0.000918156
0.000896683
0.000882204
0.000871798
0.000863854
0.000857679
0.000852645
0.000848581
0.000845115
0.000842258
0.000839742
0.000837622
0.000835741
0.000834155
0.000832696
0.000831466
0.000830303
0.00082933
0.000828387
0.000827599
0.000826841
0.000826221
0.000825589
0.00082508
0.000824569
0.000824173
0.000823726
0.000823392
0.000823089
0.000822831
0.000822553
0.000822332
0.000822075
0.000821876
0.000821687
0.000821536
0.000821371
0.000821246
0.000821078
0.00082095
0.000820825
0.000820734
0.000820625
0.000820536
0.000820458
0.000820367
0.00082029
0.000820234
0.000820117
0.000820081
0.000820059
0.000820026
0.000819924
0.000819966
0.000819966
0.000819964
0.000819931
0.000820004
0.000820004
0.000820003
0.000820109
0.000820373
0.000820391
0.000820391
0.000820493
0.000820783
0.000820973
0.000820973
0.000821117
0.000821378
0.000821684
0.000821959
0.000822331
0.000822602
0.00082285
0.000823135
0.000823501
0.000823944
0.000824374
0.000824969
0.000825478
0.000826123
0.000826714
0.00082764
0.000828419
0.000829733
0.000830688
0.000832716
0.000833945
0.000837906
0.000838459
0.000855786
0.00459327
0.00314921
0.00101963
0.00095337
0.000917437
0.000895717
0.000881055
0.000870509
0.000862455
0.000856191
0.000851085
0.00084696
0.000843441
0.00084054
0.000837985
0.000835831
0.00083392
0.000832307
0.000830824
0.000829573
0.000828391
0.000827401
0.000826442
0.00082564
0.000824868
0.000824237
0.000823593
0.000823074
0.000822553
0.000822149
0.000821693
0.000821351
0.00082104
0.000820776
0.000820492
0.000820266
0.000820003
0.000819799
0.000819606
0.00081945
0.000819281
0.000819153
0.000818982
0.000818851
0.000818723
0.00081863
0.000818518
0.000818426
0.000818347
0.000818254
0.000818175
0.000818118
0.000818001
0.000817963
0.000817939
0.000817905
0.000817802
0.000817841
0.000817841
0.000817839
0.000817805
0.000817877
0.000817877
0.000817876
0.000817979
0.000818242
0.000818262
0.000818262
0.000818364
0.00081865
0.000818846
0.000818846
0.00081899
0.000819251
0.000819557
0.000819833
0.000820204
0.000820479
0.00082073
0.000821017
0.000821383
0.000821827
0.000822258
0.000822854
0.000823365
0.000824015
0.000824607
0.000825536
0.000826314
0.000827632
0.000828587
0.000830614
0.000831841
0.00083581
0.000836316
0.000854134
0.00475107
0.00328068
0.00101962
0.000952966
0.000916676
0.00089469
0.000879831
0.000869136
0.000860964
0.000854606
0.000849421
0.00084523
0.000841656
0.000838706
0.000836109
0.000833919
0.000831976
0.000830334
0.000828826
0.000827552
0.000826349
0.00082534
0.000824365
0.000823547
0.00082276
0.000822116
0.00082146
0.000820931
0.000820399
0.000819985
0.000819521
0.000819171
0.000818851
0.00081858
0.00081829
0.000818058
0.00081779
0.000817581
0.000817382
0.000817222
0.000817048
0.000816916
0.000816742
0.000816608
0.000816476
0.00081638
0.000816266
0.000816172
0.00081609
0.000815996
0.000815914
0.000815857
0.000815738
0.000815698
0.000815673
0.000815638
0.000815534
0.00081557
0.00081557
0.000815567
0.000815532
0.000815602
0.000815603
0.000815601
0.000815702
0.000815964
0.000815986
0.000815986
0.000816087
0.000816371
0.000816572
0.000816572
0.000816715
0.000816976
0.000817282
0.000817558
0.000817929
0.000818208
0.000818462
0.000818751
0.000819116
0.000819563
0.000819994
0.000820592
0.000821105
0.00082176
0.000822352
0.000823285
0.000824061
0.000825384
0.000826337
0.000828364
0.000829589
0.000833566
0.000834021
0.000852356
0.00491959
0.00342012
0.0010196
0.000952541
0.000915873
0.000893604
0.000878535
0.00086768
0.000859381
0.000852921
0.000847652
0.000843391
0.000839757
0.000836756
0.000834115
0.000831886
0.000829907
0.000828235
0.000826699
0.000825401
0.000824176
0.000823147
0.000822153
0.000821319
0.000820517
0.000819859
0.00081919
0.000818649
0.000818106
0.000817682
0.000817208
0.000816849
0.000816521
0.000816242
0.000815944
0.000815706
0.000815432
0.000815218
0.000815013
0.000814848
0.00081467
0.000814534
0.000814356
0.000814218
0.000814083
0.000813984
0.000813866
0.00081377
0.000813686
0.00081359
0.000813505
0.000813447
0.000813328
0.000813285
0.000813258
0.000813223
0.000813117
0.000813151
0.000813151
0.000813147
0.00081311
0.00081318
0.00081318
0.000813179
0.000813275
0.000813536
0.00081356
0.00081356
0.000813661
0.000813942
0.000814148
0.000814148
0.000814291
0.000814552
0.000814858
0.000815134
0.000815505
0.000815788
0.000816045
0.000816336
0.000816701
0.000817149
0.00081758
0.000818181
0.000818695
0.000819356
0.000819947
0.000820884
0.000821658
0.000822986
0.000823937
0.000825964
0.000827186
0.000831171
0.000831573
0.000850448
0.00509819
0.00356759
0.00101959
0.000952098
0.000915028
0.000892458
0.000877165
0.00086614
0.000857707
0.000851138
0.000845779
0.000841443
0.000837745
0.000834689
0.000832
0.000829729
0.000827713
0.000826009
0.000824443
0.000823119
0.00082187
0.00082082
0.000819806
0.000818955
0.000818136
0.000817463
0.00081678
0.000816226
0.000815671
0.000815237
0.000814753
0.000814384
0.000814046
0.00081376
0.000813454
0.00081321
0.000812929
0.000812709
0.000812498
0.000812328
0.000812144
0.000812004
0.000811823
0.000811681
0.000811542
0.00081144
0.000811319
0.00081122
0.000811132
0.000811035
0.000810948
0.000810889
0.000810768
0.000810723
0.000810694
0.000810658
0.00081055
0.000810581
0.000810581
0.000810577
0.000810538
0.000810607
0.000810607
0.000810605
0.000810698
0.000810958
0.000810984
0.000810984
0.000811084
0.000811361
0.000811573
0.000811573
0.000811716
0.000811977
0.000812283
0.000812559
0.000812929
0.000813217
0.000813476
0.00081377
0.000814134
0.000814585
0.000815015
0.000815618
0.000816134
0.0008168
0.000817391
0.000818332
0.000819104
0.000820437
0.000821385
0.000823412
0.00082463
0.000828621
0.00082897
0.000848404
0.00528601
0.00372313
0.00101957
0.000951636
0.000914143
0.000891253
0.000875723
0.000864516
0.00085594
0.000849256
0.000843801
0.000839385
0.000835618
0.000832504
0.000829764
0.000827449
0.000825393
0.000823654
0.000822057
0.000820705
0.00081943
0.000818358
0.000817323
0.000816453
0.000815616
0.000814927
0.00081423
0.000813663
0.000813094
0.000812648
0.000812155
0.000811775
0.000811427
0.000811132
0.000810818
0.000810567
0.000810279
0.000810052
0.000809835
0.00080966
0.00080947
0.000809326
0.00080914
0.000808994
0.000808851
0.000808745
0.000808621
0.000808519
0.000808429
0.000808329
0.000808239
0.000808179
0.000808057
0.00080801
0.000807979
0.000807941
0.000807833
0.00080786
0.00080786
0.000807855
0.000807814
0.000807882
0.000807881
0.00080788
0.000807969
0.000808227
0.000808255
0.000808255
0.000808355
0.000808628
0.000808845
0.000808846
0.000808989
0.000809248
0.000809554
0.000809831
0.0008102
0.000810492
0.000810754
0.000811051
0.000811414
0.000811867
0.000812297
0.000812902
0.000813419
0.000814091
0.000814681
0.000815626
0.000816396
0.000817733
0.000818679
0.000820704
0.000821918
0.000825916
0.000826209
0.00084622
0.00548188
0.00388675
0.00101956
0.000951156
0.000913217
0.00088999
0.000874209
0.000862809
0.00085408
0.000847274
0.000841717
0.000837216
0.000833377
0.0008302
0.000827406
0.000825044
0.000822946
0.00082117
0.000819539
0.000818158
0.000816856
0.000815759
0.000814703
0.000813812
0.000812956
0.000812251
0.000811538
0.000810956
0.000810374
0.000809916
0.000809411
0.00080902
0.000808661
0.000808358
0.000808035
0.000807776
0.000807481
0.000807247
0.000807023
0.000806842
0.000806647
0.000806497
0.000806307
0.000806157
0.000806009
0.0008059
0.000805772
0.000805667
0.000805573
0.000805472
0.000805378
0.000805317
0.000805193
0.000805144
0.00080511
0.000805071
0.000804962
0.000804985
0.000804985
0.00080498
0.000804936
0.000805003
0.000805002
0.000805001
0.000805085
0.000805341
0.000805372
0.000805372
0.000805471
0.00080574
0.000805963
0.000805964
0.000806106
0.000806365
0.000806671
0.000806948
0.000807316
0.000807612
0.000807877
0.000808177
0.000808539
0.000808994
0.000809423
0.00081003
0.000810549
0.000811226
0.000811816
0.000812765
0.000813532
0.000814872
0.000815816
0.000817839
0.000819048
0.000823052
0.000823288
0.000843888
0.00568433
0.00405841
0.00101955
0.000950659
0.000912253
0.00088867
0.000872622
0.000861019
0.000852129
0.000845192
0.000839528
0.000834937
0.000831021
0.000827778
0.000824927
0.000822515
0.000820372
0.000818556
0.000816889
0.000815476
0.000814146
0.000813024
0.000811943
0.000811032
0.000810156
0.000809433
0.000808703
0.000808106
0.000807509
0.000807038
0.000806521
0.000806119
0.000805748
0.000805435
0.000805103
0.000804836
0.000804533
0.000804292
0.00080406
0.000803873
0.000803672
0.000803517
0.000803322
0.000803168
0.000803014
0.000802901
0.000802769
0.000802661
0.000802564
0.000802461
0.000802364
0.0008023
0.000802175
0.000802123
0.000802087
0.000802047
0.000801936
0.000801956
0.000801956
0.00080195
0.000801903
0.000801968
0.000801968
0.000801967
0.000802046
0.0008023
0.000802333
0.000802333
0.000802431
0.000802696
0.000802925
0.000802925
0.000803068
0.000803326
0.000803631
0.000803909
0.000804276
0.000804576
0.000804844
0.000805147
0.000805507
0.000805964
0.000806393
0.000807001
0.000807521
0.000808204
0.000808793
0.000809746
0.00081051
0.000811854
0.000812795
0.000814815
0.000816019
0.000820026
0.000820205
0.000841403
0.00589151
0.00423803
0.00101954
0.000950147
0.00091125
0.000887293
0.000870965
0.000859146
0.000850086
0.000843011
0.000837233
0.000832547
0.000828549
0.000825236
0.000822324
0.000819859
0.000817669
0.000815811
0.000814107
0.000812661
0.0008113
0.00081015
0.000809045
0.000808111
0.000807214
0.000806472
0.000805724
0.000805111
0.000804499
0.000804014
0.000803484
0.000803069
0.000802687
0.000802363
0.000802021
0.000801745
0.000801434
0.000801186
0.000800946
0.000800753
0.000800544
0.000800384
0.000800183
0.000800025
0.000799866
0.000799749
0.000799613
0.000799501
0.0007994
0.000799294
0.000799194
0.000799129
0.000799002
0.000798947
0.000798908
0.000798867
0.000798755
0.000798771
0.000798771
0.000798763
0.000798714
0.000798777
0.000798777
0.000798775
0.00079885
0.000799101
0.000799137
0.000799136
0.000799234
0.000799494
0.000799729
0.000799729
0.000799872
0.000800129
0.000800434
0.000800711
0.000801077
0.000801381
0.000801652
0.000801958
0.000802317
0.000802776
0.000803204
0.000803814
0.000804335
0.000805024
0.000805611
0.000806568
0.000807328
0.000808676
0.000809614
0.00081163
0.000812828
0.000816837
0.000816959
0.000838757
0.00610123
0.0044254
0.00101954
0.000949619
0.000910211
0.00088586
0.000869237
0.000857191
0.000847951
0.000840732
0.000834833
0.000830045
0.000825962
0.000822575
0.000819599
0.000817078
0.000814837
0.000812935
0.000811191
0.00080971
0.000808317
0.000807138
0.000806007
0.000805049
0.000804129
0.000803367
0.0008026
0.00080197
0.000801342
0.000800842
0.000800299
0.000799871
0.000799475
0.000799141
0.000798789
0.000798504
0.000798184
0.000797928
0.000797679
0.000797479
0.000797263
0.000797097
0.000796891
0.000796727
0.000796563
0.000796441
0.000796301
0.000796186
0.00079608
0.000795972
0.000795868
0.000795801
0.000795672
0.000795614
0.000795572
0.00079553
0.000795417
0.000795429
0.000795428