/*--------------------------------*- C++ -*----------------------------------*\
| =========                 |                                                 |
| \\      /  F ield         | OpenFOAM: The Open Source CFD Toolbox           |
|  \\    /   O peration     | Version:  v2012                                 |
|   \\  /    A nd           | Website:  www.openfoam.com                      |
|    \\/     M anipulation  |                                                 |
\*---------------------------------------------------------------------------*/
FoamFile
{
    version     2.0;
    format      ascii;
    class       volScalarField;
    location    "12";
    object      yPlus;
}
// * * * * * * * * * * * * * * * * * * * * * * * * * * * * * * * * * * * * * //

dimensions      [0 0 0 0 0 0 0];


internalField   uniform 0;

boundaryField
{
    inlet
    {
        type            calculated;
        value           uniform 0;
    }
    outlet
    {
        type            calculated;
        value           uniform 0;
    }
    topWall
    {
        type            calculated;
        value           nonuniform List<scalar> 
545
(
0.0994785
0.171977
0.220642
0.259264
0.291931
0.320484
0.345961
0.369012
0.390081
0.409485
0.427465
0.444206
0.459854
0.47453
0.488332
0.501344
0.513636
0.52527
0.536298
0.546767
0.556718
0.566188
0.575209
0.583811
0.59202
0.599861
0.607356
0.614525
0.621387
0.627958
0.634255
0.640291
0.646082
0.651639
0.656974
0.662099
0.667023
0.671755
0.676307
0.680684
0.684896
0.688951
0.692855
0.696614
0.700236
0.703726
0.70709
0.710333
0.71346
0.716477
0.719387
0.722195
0.724905
0.727522
0.730048
0.732488
0.734844
0.73712
0.73932
0.741445
0.7435
0.745485
0.747405
0.749261
0.751057
0.752793
0.754472
0.756097
0.757669
0.75919
0.760662
0.762087
0.763446
0.76476
0.766061
0.76735
0.768627
0.769891
0.771144
0.772384
0.773613
0.774831
0.776037
0.777232
0.778415
0.779587
0.780749
0.7819
0.783039
0.784169
0.785287
0.786396
0.787494
0.788582
0.789659
0.790729
0.791681
0.792531
0.79338
0.794228
0.795075
0.79592
0.796765
0.797608
0.79845
0.799292
0.800131
0.80097
0.801808
0.802644
0.803479
0.804313
0.805146
0.805978
0.806808
0.807637
0.808465
0.809291
0.810117
0.810941
0.811763
0.812585
0.813405
0.814223
0.815041
0.815856
0.816671
0.817484
0.818296
0.819106
0.819915
0.820723
0.821529
0.822333
0.823136
0.823938
0.824738
0.825537
0.826334
0.827129
0.827923
0.828715
0.829506
0.830295
0.831083
0.831869
0.832654
0.833436
0.834217
0.834997
0.835775
0.836551
0.837325
0.838098
0.838868
0.839638
0.840405
0.841171
0.841934
0.842696
0.843457
0.844215
0.844972
0.845726
0.846479
0.84723
0.847979
0.848726
0.849471
0.850215
0.850956
0.851695
0.852433
0.853168
0.853901
0.854633
0.855362
0.856089
0.856814
0.857537
0.858258
0.858977
0.859694
0.860408
0.861121
0.861831
0.862539
0.863245
0.863949
0.86465
0.865349
0.866046
0.866741
0.867433
0.868123
0.868811
0.869496
0.870179
0.87086
0.871538
0.872214
0.872887
0.873558
0.874227
0.874893
0.875557
0.876218
0.876876
0.877532
0.878186
0.878837
0.879485
0.880131
0.880774
0.881415
0.882053
0.882688
0.883321
0.88395
0.884578
0.885202
0.885824
0.886443
0.887059
0.887673
0.888283
0.888891
0.889496
0.890098
0.890698
0.891294
0.891888
0.892478
0.893066
0.893651
0.894233
0.894811
0.895387
0.89596
0.89653
0.897096
0.89766
0.89822
0.898778
0.899332
0.899883
0.900431
0.900976
0.901518
0.902057
0.902592
0.903124
0.903653
0.904178
0.904701
0.90522
0.905735
0.906248
0.906757
0.907262
0.907765
0.908263
0.908759
0.909251
0.909739
0.910224
0.910706
0.911184
0.91166
0.9121
0.912512
0.912925
0.913339
0.913754
0.91417
0.914587
0.915004
0.915423
0.915842
0.916262
0.916683
0.917104
0.917526
0.917948
0.91837
0.918793
0.919215
0.919638
0.92006
0.920482
0.920904
0.921326
0.921747
0.922167
0.922587
0.923006
0.923424
0.923841
0.924257
0.924671
0.925084
0.925496
0.925905
0.926313
0.926719
0.927123
0.927525
0.927924
0.928321
0.928715
0.929106
0.929494
0.929878
0.93026
0.930638
0.931012
0.931382
0.931749
0.932111
0.932468
0.932821
0.933169
0.933512
0.93385
0.934182
0.934509
0.934829
0.935144
0.935452
0.935754
0.936049
0.936337
0.936617
0.936891
0.937156
0.937413
0.937662
0.937903
0.938135
0.938357
0.938571
0.938775
0.938968
0.939152
0.939325
0.939488
0.93964
0.93978
0.939909
0.940026
0.94013
0.940222
0.940301
0.940367
0.940419
0.940458
0.940483
0.940493
0.940488
0.940469
0.940433
0.940382
0.940315
0.940232
0.940131
0.940014
0.939878
0.939726
0.939554
0.939365
0.939156
0.938928
0.93868
0.938413
0.938125
0.937817
0.937487
0.937137
0.936764
0.936369
0.935952
0.935512
0.935049
0.934563
0.934052
0.933518
0.932958
0.932375
0.931766
0.931132
0.930471
0.929785
0.929072
0.928333
0.927566
0.926772
0.92595
0.925101
0.924223
0.923318
0.922382
0.921419
0.920426
0.919404
0.918351
0.91727
0.916157
0.915016
0.913842
0.91264
0.911405
0.91014
0.908843
0.907517
0.906157
0.904768
0.903346
0.901893
0.900408
0.898893
0.897344
0.895766
0.894154
0.892513
0.890838
0.889134
0.887397
0.885631
0.883832
0.882004
0.880143
0.878254
0.876333
0.874384
0.872403
0.870395
0.868356
0.86629
0.864193
0.862071
0.859918
0.85774
0.855533
0.853302
0.851042
0.848759
0.846448
0.844115
0.841756
0.839374
0.836708
0.833773
0.830841
0.827922
0.825008
0.822108
0.819217
0.816341
0.813475
0.810627
0.807791
0.804974
0.802172
0.799391
0.796625
0.793883
0.791157
0.788456
0.785773
0.783115
0.780478
0.777867
0.775276
0.772714
0.770173
0.767661
0.765171
0.762712
0.760275
0.75787
0.755488
0.753138
0.750813
0.74852
0.746253
0.744018
0.741811
0.739636
0.737489
0.735376
0.73329
0.73124
0.729217
0.72723
0.725272
0.723349
0.721456
0.719598
0.717771
0.715981
0.714221
0.712497
0.710805
0.70915
0.707526
0.70594
0.704386
0.70287
0.701386
0.699941
0.698528
0.697154
0.695814
0.694512
0.693244
0.692015
0.69082
0.689665
0.688544
0.687463
0.686417
0.685411
0.684441
0.68351
0.682615
0.681761
0.680943
0.680165
0.679424
0.678724
0.678061
0.677439
0.676854
0.676311
0.675806
0.675341
0.674916
0.67453
0.674183
0.673873
0.673599
0.673362
0.673154
0.673003
0.672818
)
;
    }
    bottomWall
    {
        type            calculated;
        value           nonuniform List<scalar> 
449
(
0.0027558
0.00483956
0.00540674
0.00534843
0.00527059
0.0051809
0.00509018
0.00499654
0.00490156
0.00480849
0.00471964
0.00463638
0.00455905
0.0044874
0.00442071
0.00435928
0.00430206
0.0042489
0.00419954
0.00415326
0.00410998
0.00406932
0.00403097
0.003995
0.00396104
0.00392862
0.00389799
0.00386882
0.00384111
0.00381491
0.00378994
0.0037658
0.00374283
0.00372072
0.00369971
0.00367959
0.00366015
0.00364143
0.00362348
0.00360602
0.0035892
0.00357281
0.00355715
0.00354195
0.00352726
0.00351304
0.00349937
0.00348604
0.00347322
0.00346067
0.00344841
0.00343648
0.00342502
0.0034138
0.0034027
0.00339204
0.00338153
0.00337149
0.00336145
0.00335184
0.00334237
0.00333321
0.00332427
0.00331551
0.00330673
0.0032982
0.00328983
0.00328167
0.00327354
0.00326577
0.00325818
0.00325072
0.00324329
0.00323607
0.00322911
0.00322221
0.00321559
0.00320912
0.00320278
0.00319644
0.00319014
0.00318397
0.00317799
0.00317221
0.0031665
0.00316087
0.00315513
0.00314942
0.003144
0.00313872
0.00313353
0.00312848
0.00312344
0.00311853
0.00311369
0.00310877
0.00310393
0.00309925
0.00309467
0.00309017
0.00308573
0.00308133
0.00307712
0.00307284
0.00306859
0.0030643
0.00306012
0.00305579
0.00305184
0.00304785
0.00304412
0.00304043
0.00303673
0.00303317
0.00302954
0.00302583
0.00302213
0.00301854
0.00301503
0.00301142
0.00300786
0.00300455
0.00300125
0.00299812
0.00299505
0.00299201
0.00298881
0.0029857
0.00298245
0.00297921
0.00297601
0.00297303
0.00297018
0.00296736
0.00296458
0.00296198
0.00295934
0.00295671
0.0029541
0.0029514
0.00294881
0.00294596
0.00294313
0.00294023
0.00293732
0.00293452
0.00293177
0.00292919
0.00292655
0.00292414
0.00292175
0.00291957
0.00291719
0.00291501
0.00291272
0.00291027
0.00290787
0.00290541
0.00290297
0.00290041
0.00289809
0.00289584
0.00289366
0.00289169
0.00288955
0.00288723
0.0028849
0.00288268
0.00288033
0.00287802
0.00287572
0.00287342
0.00287122
0.00286913
0.00286709
0.00286525
0.00286323
0.00286148
0.00285959
0.00285753
0.00285562
0.00285369
0.0028516
0.00284964
0.00284772
0.00284577
0.00284368
0.00284166
0.00283973
0.00283792
0.00283615
0.00283423
0.00283232
0.00283061
0.00282856
0.00282655
0.00282446
0.00282239
0.00282014
0.00281809
0.0028161
0.00281408
0.00281217
0.00281037
0.00280858
0.0028067
0.00280503
0.00280324
0.00280145
0.00279963
0.00279785
0.00279594
0.00279395
0.00279178
0.00278992
0.00278795
0.00278596
0.00278391
0.00278171
0.00277972
0.00277781
0.00277584
0.00277407
0.002772
0.00277028
0.00276829
0.00276635
0.00276462
0.00276263
0.00276063
0.00275884
0.00275675
0.00275501
0.00275299
0.00275108
0.00274938
0.00274779
0.00274617
0.00274423
0.00274221
0.00274026
0.00273817
0.00273616
0.00273435
0.00273262
0.00273077
0.00272913
0.00272738
0.00272546
0.00272362
0.00272169
0.00271996
0.00271833
0.00271656
0.00271481
0.00271306
0.00271157
0.00270973
0.00270799
0.0027065
0.00270484
0.00270312
0.00270136
0.00269975
0.00269814
0.00269643
0.00269486
0.0026929
0.00269107
0.00268956
0.00268811
0.00268653
0.00268475
0.00268287
0.00268129
0.00267984
0.00267812
0.00267663
0.00267503
0.00267339
0.00267164
0.00267006
0.00266864
0.0026672
0.00266561
0.00266418
0.00266292
0.00266184
0.00266019
0.0026587
0.00265719
0.00265601
0.00265452
0.00265308
0.00265181
0.00265061
0.00264897
0.00264749
0.00264583
0.00264411
0.00264256
0.00264071
0.00263931
0.00263817
0.0026372
0.00263619
0.00263467
0.0026333
0.00263199
0.00263063
0.0026294
0.00262771
0.00262626
0.00262504
0.00262398
0.00262269
0.0026215
0.00262037
0.00261916
0.00261778
0.00261617
0.00261493
0.00261397
0.00261279
0.00261125
0.00260962
0.00260824
0.00260704
0.00260576
0.00260433
0.00260318
0.00260231
0.00260097
0.00259959
0.00259858
0.00259783
0.00259667
0.0025953
0.00259414
0.00259285
0.00259158
0.00259065
0.00258973
0.00258865
0.00258771
0.0025865
0.00258521
0.00258422
0.00258305
0.0025818
0.0025808
0.0025796
0.00257842
0.00257752
0.00257634
0.00257527
0.0025741
0.00257282
0.00257149
0.00257008
0.00256877
0.00256749
0.00256587
0.00256446
0.00256352
0.00256236
0.00256113
0.00256
0.00255878
0.00255772
0.00255688
0.00255578
0.00255477
0.00255391
0.00255267
0.00255174
0.00255105
0.00255037
0.00254942
0.00254831
0.00254704
0.00254617
0.00254549
0.00254457
0.00254389
0.00254343
0.00254265
0.00254186
0.00254117
0.00254023
0.00253957
0.00253879
0.00253829
0.00253751
0.00253683
0.00253607
0.00253508
0.00253421
0.00253328
0.00253227
0.00253166
0.00253101
0.00253044
0.00252996
0.00252917
0.00252848
0.00252794
0.00252732
0.00252642
0.00252582
0.00252523
0.0025247
0.00252417
0.00252365
0.00252282
0.00252219
0.00252161
0.00252099
0.00252045
0.0025201
0.00251981
0.00251933
0.00251867
0.00251823
0.0025177
0.00251723
0.00251686
0.00251617
0.00251567
0.00251519
0.00251458
0.00251408
0.00251376
0.00251329
0.00251259
0.00251211
0.00251161
0.00251107
0.00251071
0.0025103
0.00250972
0.00250931
0.00250894
0.00250846
0.00250786
0.00250757
0.00250705
0.00250679
0.00250606
)
;
    }
    symmetry
    {
        type            symmetryPlane;
    }
    frontAndBack
    {
        type            empty;
    }
}


// ************************************************************************* //
