/*--------------------------------*- C++ -*----------------------------------*\
| =========                 |                                                 |
| \\      /  F ield         | OpenFOAM: The Open Source CFD Toolbox           |
|  \\    /   O peration     | Version:  v2012                                 |
|   \\  /    A nd           | Website:  www.openfoam.com                      |
|    \\/     M anipulation  |                                                 |
\*---------------------------------------------------------------------------*/
FoamFile
{
    version     2.0;
    format      ascii;
    class       volScalarField;
    location    "17";
    object      k;
}
// * * * * * * * * * * * * * * * * * * * * * * * * * * * * * * * * * * * * * //

dimensions      [0 2 -2 0 0 0 0];


internalField   nonuniform List<scalar> 
209825
(
0.00101903
0.000943258
0.000899857
0.000873602
0.000856372
0.000844334
0.000835491
0.000828793
0.000823566
0.000819419
0.000816059
0.000813311
0.000811025
0.000809115
0.000807493
0.000806119
0.00080493
0.000803906
0.000803013
0.000802246
0.000801559
0.000800961
0.000800424
0.000799967
0.000799537
0.000799161
0.00079882
0.000798534
0.000798257
0.000798022
0.000797798
0.000797631
0.000797426
0.000797263
0.000797124
0.000797023
0.0007969
0.000796803
0.000796716
0.000796658
0.000796553
0.000796491
0.000796449
0.000796401
0.000796264
0.000796296
0.000796296
0.000796295
0.000796293
0.000796282
0.000796217
0.000796298
0.000796298
0.000796297
0.000796286
0.000796402
0.000796467
0.000796468
0.000796626
0.000796651
0.000796651
0.000796737
0.000796905
0.000797115
0.000797248
0.000797377
0.000797463
0.000797611
0.000797753
0.000797982
0.000798143
0.000798329
0.000798478
0.000798715
0.000798877
0.000799113
0.00079931
0.000799611
0.00079981
0.000800114
0.000800326
0.00080071
0.000800951
0.000801429
0.000801713
0.000802292
0.000802618
0.000803317
0.000803724
0.000804631
0.000805093
0.000806688
0.000806978
0.000818838
0.000872741
0.00226164
0.00101903
0.000943254
0.000899849
0.00087359
0.000856356
0.000844315
0.000835471
0.000828771
0.000823542
0.000819395
0.000816034
0.000813285
0.000810998
0.000809088
0.000807465
0.000806091
0.000804901
0.000803878
0.000802984
0.000802216
0.00080153
0.000800932
0.000800394
0.000799937
0.000799507
0.000799131
0.00079879
0.000798504
0.000798227
0.000797991
0.000797767
0.0007976
0.000797395
0.000797232
0.000797093
0.000796992
0.000796868
0.000796771
0.000796685
0.000796627
0.000796522
0.00079646
0.000796418
0.000796369
0.000796232
0.000796264
0.000796264
0.000796264
0.000796262
0.00079625
0.000796185
0.000796266
0.000796266
0.000796266
0.000796254
0.000796371
0.000796436
0.000796436
0.000796594
0.00079662
0.00079662
0.000796706
0.000796874
0.000797083
0.000797216
0.000797345
0.000797431
0.000797579
0.000797721
0.00079795
0.000798112
0.000798297
0.000798446
0.000798684
0.000798845
0.000799082
0.000799279
0.00079958
0.000799778
0.000800082
0.000800294
0.000800678
0.000800919
0.000801398
0.000801682
0.00080226
0.000802586
0.000803286
0.000803692
0.0008046
0.000805061
0.000806657
0.000806946
0.000818829
0.000872748
0.00226304
0.00101903
0.000943236
0.000899809
0.000873534
0.000856287
0.000844237
0.000835385
0.000828679
0.000823446
0.000819294
0.00081593
0.000813179
0.00081089
0.000808977
0.000807353
0.000805978
0.000804787
0.000803762
0.000802868
0.000802099
0.000801412
0.000800813
0.000800275
0.000799817
0.000799386
0.00079901
0.000798669
0.000798382
0.000798105
0.000797869
0.000797644
0.000797477
0.000797272
0.000797109
0.000796969
0.000796868
0.000796744
0.000796647
0.000796561
0.000796502
0.000796397
0.000796335
0.000796293
0.000796244
0.000796107
0.000796139
0.000796139
0.000796139
0.000796137
0.000796125
0.00079606
0.000796141
0.000796141
0.00079614
0.000796129
0.000796245
0.00079631
0.00079631
0.000796468
0.000796494
0.000796494
0.00079658
0.000796748
0.000796957
0.00079709
0.00079722
0.000797305
0.000797453
0.000797595
0.000797824
0.000797986
0.000798171
0.00079832
0.000798558
0.000798719
0.000798956
0.000799153
0.000799454
0.000799652
0.000799956
0.000800168
0.000800552
0.000800793
0.000801271
0.000801555
0.000802134
0.00080246
0.000803159
0.000803566
0.000804473
0.000804934
0.00080653
0.000806817
0.000818746
0.000872693
0.00226579
0.00101904
0.000943206
0.000899743
0.000873438
0.000856171
0.000844104
0.00083524
0.000828525
0.000823284
0.000819126
0.000815757
0.000813001
0.000810708
0.000808792
0.000807166
0.000805787
0.000804595
0.000803568
0.000802672
0.000801902
0.000801213
0.000800613
0.000800074
0.000799615
0.000799184
0.000798807
0.000798465
0.000798178
0.0007979
0.000797663
0.000797438
0.00079727
0.000797065
0.000796902
0.000796762
0.00079666
0.000796536
0.000796439
0.000796352
0.000796293
0.000796188
0.000796126
0.000796083
0.000796035
0.000795898
0.000795929
0.000795929
0.000795929
0.000795926
0.000795915
0.000795849
0.00079593
0.00079593
0.000795929
0.000795918
0.000796034
0.000796099
0.000796099
0.000796257
0.000796283
0.000796283
0.000796368
0.000796536
0.000796746
0.000796879
0.000797008
0.000797094
0.000797242
0.000797384
0.000797612
0.000797774
0.00079796
0.000798109
0.000798346
0.000798508
0.000798744
0.000798941
0.000799242
0.00079944
0.000799745
0.000799957
0.00080034
0.000800581
0.000801059
0.000801343
0.000801922
0.000802248
0.000802947
0.000803353
0.00080426
0.00080472
0.000806316
0.0008066
0.000818602
0.000872582
0.00226904
0.00101904
0.000943163
0.000899648
0.000873304
0.000856006
0.000843917
0.000835036
0.000828307
0.000823055
0.000818888
0.000815512
0.00081275
0.000810452
0.000808531
0.000806901
0.000805519
0.000804323
0.000803294
0.000802396
0.000801624
0.000800933
0.000800332
0.000799791
0.000799331
0.000798899
0.00079852
0.000798177
0.000797889
0.00079761
0.000797373
0.000797147
0.000796979
0.000796773
0.000796609
0.000796469
0.000796367
0.000796242
0.000796145
0.000796057
0.000795998
0.000795893
0.00079583
0.000795788
0.000795739
0.000795602
0.000795633
0.000795633
0.000795632
0.00079563
0.000795618
0.000795552
0.000795632
0.000795632
0.000795632
0.00079562
0.000795736
0.000795801
0.000795801
0.000795959
0.000795985
0.000795984
0.00079607
0.000796238
0.000796447
0.000796581
0.00079671
0.000796796
0.000796944
0.000797085
0.000797314
0.000797476
0.000797662
0.000797811
0.000798048
0.00079821
0.000798446
0.000798643
0.000798944
0.000799142
0.000799447
0.000799658
0.000800042
0.000800282
0.000800761
0.000801044
0.000801622
0.000801948
0.000802647
0.000803053
0.000803959
0.000804419
0.000806015
0.000806295
0.000818396
0.000872405
0.00227275
0.00101904
0.000943107
0.000899526
0.000873129
0.000855793
0.000843675
0.000834772
0.000828025
0.000822759
0.000818581
0.000815194
0.000812424
0.00081012
0.000808193
0.000806558
0.000805171
0.000803972
0.000802939
0.000802038
0.000801263
0.00080057
0.000799967
0.000799424
0.000798962
0.000798529
0.000798149
0.000797804
0.000797515
0.000797236
0.000796997
0.000796771
0.000796601
0.000796395
0.00079623
0.000796089
0.000795987
0.000795862
0.000795764
0.000795676
0.000795616
0.000795511
0.000795448
0.000795405
0.000795356
0.000795219
0.000795248
0.000795248
0.000795248
0.000795246
0.000795233
0.000795167
0.000795247
0.000795247
0.000795247
0.000795234
0.00079535
0.000795415
0.000795415
0.000795572
0.000795598
0.000795598
0.000795684
0.000795851
0.000796061
0.000796194
0.000796324
0.00079641
0.000796558
0.000796699
0.000796927
0.000797089
0.000797275
0.000797424
0.000797661
0.000797823
0.00079806
0.000798256
0.000798557
0.000798755
0.00079906
0.000799271
0.000799655
0.000799895
0.000800373
0.000800656
0.000801234
0.00080156
0.000802258
0.000802663
0.000803569
0.000804028
0.000805624
0.000805899
0.000818128
0.000872146
0.00227686
0.00101905
0.000943039
0.000899376
0.000872915
0.000855531
0.000843377
0.000834446
0.000827678
0.000822394
0.000818201
0.000814803
0.000812023
0.00080971
0.000807776
0.000806135
0.000804743
0.000803539
0.000802502
0.000801597
0.000800819
0.000800123
0.000799517
0.000798972
0.000798508
0.000798072
0.000797691
0.000797345
0.000797054
0.000796773
0.000796534
0.000796306
0.000796136
0.000795929
0.000795763
0.000795621
0.000795518
0.000795392
0.000795294
0.000795205
0.000795145
0.00079504
0.000794976
0.000794932
0.000794884
0.000794746
0.000794775
0.000794775
0.000794774
0.000794772
0.000794759
0.000794693
0.000794772
0.000794772
0.000794772
0.000794759
0.000794875
0.000794939
0.000794939
0.000795096
0.000795122
0.000795122
0.000795208
0.000795375
0.000795584
0.000795717
0.000795847
0.000795934
0.000796081
0.000796222
0.00079645
0.000796612
0.000796798
0.000796947
0.000797184
0.000797346
0.000797583
0.000797779
0.000798079
0.000798278
0.000798583
0.000798794
0.000799178
0.000799418
0.000799895
0.000800178
0.000800756
0.000801081
0.000801778
0.000802183
0.000803088
0.000803546
0.000805141
0.000805411
0.000817799
0.000871805
0.00228119
0.00101906
0.000942958
0.000899198
0.00087266
0.000855219
0.000843022
0.000834058
0.000827264
0.000821959
0.000817749
0.000814337
0.000811545
0.000809222
0.00080728
0.00080563
0.000804232
0.000803022
0.000801981
0.000801071
0.000800289
0.00079959
0.000798981
0.000798433
0.000797966
0.000797529
0.000797145
0.000796797
0.000796505
0.000796222
0.000795981
0.000795752
0.000795581
0.000795373
0.000795206
0.000795063
0.000794959
0.000794833
0.000794733
0.000794644
0.000794584
0.000794478
0.000794414
0.000794369
0.00079432
0.000794182
0.00079421
0.00079421
0.00079421
0.000794207
0.000794194
0.000794127
0.000794205
0.000794205
0.000794205
0.000794192
0.000794308
0.000794371
0.000794371
0.000794528
0.000794554
0.000794554
0.00079464
0.000794806
0.000795015
0.000795149
0.000795279
0.000795366
0.000795514
0.000795654
0.000795881
0.000796043
0.00079623
0.000796379
0.000796616
0.000796777
0.000797014
0.00079721
0.00079751
0.000797709
0.000798014
0.000798225
0.000798608
0.000798848
0.000799325
0.000799608
0.000800185
0.00080051
0.000801206
0.000801611
0.000802514
0.000802971
0.000804566
0.000804829
0.000817408
0.00087138
0.00228548
0.00101907
0.000942864
0.000898992
0.000872364
0.000854856
0.00084261
0.000833607
0.000826783
0.000821454
0.000817224
0.000813795
0.000810989
0.000808654
0.000806702
0.000805043
0.000803638
0.000802421
0.000801374
0.000800459
0.000799673
0.00079897
0.000798357
0.000797806
0.000797336
0.000796896
0.00079651
0.00079616
0.000795865
0.000795581
0.000795338
0.000795108
0.000794935
0.000794725
0.000794558
0.000794414
0.000794308
0.000794181
0.000794081
0.000793991
0.00079393
0.000793823
0.000793759
0.000793714
0.000793664
0.000793526
0.000793553
0.000793553
0.000793552
0.000793549
0.000793535
0.000793468
0.000793545
0.000793545
0.000793545
0.000793532
0.000793647
0.00079371
0.00079371
0.000793866
0.000793893
0.000793892
0.000793978
0.000794144
0.000794353
0.000794487
0.000794618
0.000794704
0.000794852
0.000794992
0.000795219
0.000795381
0.000795568
0.000795716
0.000795953
0.000796115
0.000796352
0.000796547
0.000796848
0.000797046
0.000797352
0.000797562
0.000797945
0.000798185
0.000798661
0.000798944
0.00079952
0.000799845
0.00080054
0.000800944
0.000801846
0.000802302
0.000803897
0.000804151
0.000816954
0.000870872
0.00228934
0.00101907
0.000942758
0.000898757
0.000872027
0.000854443
0.000842139
0.000833092
0.000826233
0.000820876
0.000816623
0.000813175
0.000810353
0.000808005
0.000806041
0.000804373
0.000802958
0.000801734
0.00080068
0.00079976
0.000798968
0.00079826
0.000797643
0.000797088
0.000796615
0.000796172
0.000795783
0.00079543
0.000795134
0.000794847
0.000794603
0.00079437
0.000794196
0.000793985
0.000793816
0.000793671
0.000793564
0.000793436
0.000793335
0.000793244
0.000793182
0.000793075
0.000793009
0.000792964
0.000792914
0.000792776
0.0007928
0.000792801
0.0007928
0.000792796
0.000792782
0.000792714
0.000792791
0.000792791
0.00079279
0.000792777
0.000792892
0.000792953
0.000792953
0.00079311
0.000793136
0.000793136
0.000793222
0.000793387
0.000793596
0.00079373
0.000793861
0.000793948
0.000794095
0.000794234
0.000794461
0.000794623
0.000794811
0.000794959
0.000795196
0.000795358
0.000795594
0.000795789
0.00079609
0.000796288
0.000796594
0.000796804
0.000797187
0.000797426
0.000797902
0.000798184
0.00079876
0.000799084
0.000799778
0.000800181
0.000801082
0.000801536
0.00080313
0.000803376
0.000816439
0.000870278
0.00229217
0.00101909
0.000942639
0.000898493
0.000871648
0.000853978
0.000841609
0.000832513
0.000825614
0.000820225
0.000815946
0.000812477
0.000809637
0.000807273
0.000805296
0.000803616
0.000802192
0.00080096
0.000799898
0.000798971
0.000798173
0.00079746
0.000796838
0.000796279
0.000795802
0.000795355
0.000794963
0.000794608
0.000794308
0.00079402
0.000793773
0.000793538
0.000793362
0.00079315
0.00079298
0.000792832
0.000792725
0.000792596
0.000792493
0.000792401
0.000792338
0.000792231
0.000792164
0.000792118
0.000792068
0.000791929
0.000791952
0.000791952
0.000791951
0.000791947
0.000791933
0.000791864
0.000791939
0.000791939
0.000791939
0.000791925
0.000792039
0.0007921
0.0007921
0.000792256
0.000792282
0.000792282
0.000792368
0.000792533
0.000792741
0.000792875
0.000793007
0.000793094
0.000793242
0.00079338
0.000793606
0.000793768
0.000793956
0.000794104
0.000794341
0.000794503
0.00079474
0.000794934
0.000795234
0.000795433
0.000795739
0.000795948
0.000796331
0.000796569
0.000797045
0.000797327
0.000797901
0.000798226
0.000798918
0.000799321
0.00080022
0.000800672
0.000802266
0.000802501
0.000815861
0.000869599
0.0022932
0.0010191
0.000942508
0.000898202
0.000871228
0.000853462
0.00084102
0.000831868
0.000824924
0.0008195
0.000815192
0.000811699
0.000808838
0.000806457
0.000804465
0.000802773
0.000801338
0.000800096
0.000799025
0.000798091
0.000797286
0.000796567
0.00079594
0.000795376
0.000794895
0.000794444
0.000794049
0.00079369
0.000793388
0.000793097
0.000792848
0.000792611
0.000792433
0.000792219
0.000792047
0.000791898
0.000791788
0.000791658
0.000791554
0.000791461
0.000791397
0.000791289
0.000791222
0.000791174
0.000791124
0.000790985
0.000791006
0.000791006
0.000791005
0.000791
0.000790985
0.000790916
0.00079099
0.00079099
0.000790989
0.000790975
0.000791089
0.000791148
0.000791148
0.000791304
0.00079133
0.00079133
0.000791416
0.000791579
0.000791788
0.000791922
0.000792054
0.000792142
0.00079229
0.000792427
0.000792652
0.000792814
0.000793003
0.000793151
0.000793387
0.000793549
0.000793786
0.000793979
0.00079428
0.000794478
0.000794784
0.000794993
0.000795377
0.000795614
0.000796089
0.00079637
0.000796944
0.000797268
0.000797959
0.00079836
0.000799258
0.000799708
0.000801301
0.000801526
0.000815219
0.000868833
0.00229145
0.00101911
0.000942365
0.000897881
0.000870765
0.000852893
0.000840371
0.000831156
0.000824164
0.0008187
0.00081436
0.00081084
0.000807957
0.000805557
0.000803548
0.000801842
0.000800395
0.000799142
0.000798062
0.000797119
0.000796307
0.000795581
0.000794948
0.000794379
0.000793893
0.000793438
0.000793039
0.000792677
0.000792371
0.000792077
0.000791825
0.000791586
0.000791405
0.000791189
0.000791015
0.000790864
0.000790753
0.000790622
0.000790517
0.000790422
0.000790357
0.000790248
0.00079018
0.000790131
0.00079008
0.000789941
0.00078996
0.00078996
0.000789959
0.000789954
0.000789938
0.000789867
0.00078994
0.00078994
0.00078994
0.000789924
0.000790038
0.000790096
0.000790096
0.000790251
0.000790278
0.000790277
0.000790363
0.000790526
0.000790734
0.000790869
0.000791001
0.000791089
0.000791237
0.000791373
0.000791598
0.00079176
0.000791949
0.000792097
0.000792333
0.000792495
0.000792732
0.000792924
0.000793225
0.000793423
0.00079373
0.000793938
0.000794321
0.000794558
0.000795033
0.000795313
0.000795885
0.000796209
0.000796898
0.000797299
0.000798194
0.000798642
0.000800235
0.000800447
0.000814513
0.00086798
0.00228695
0.00101913
0.00094221
0.000897532
0.00087026
0.000852271
0.00083966
0.000830378
0.000823331
0.000817825
0.000813448
0.000809899
0.000806991
0.00080457
0.000802543
0.000800822
0.00079936
0.000798096
0.000797006
0.000796053
0.000795233
0.0007945
0.000793861
0.000793286
0.000792794
0.000792335
0.000791931
0.000791565
0.000791256
0.000790958
0.000790704
0.000790461
0.000790278
0.000790061
0.000789884
0.000789731
0.000789618
0.000789485
0.000789379
0.000789282
0.000789217
0.000789106
0.000789037
0.000788987
0.000788935
0.000788796
0.000788813
0.000788813
0.000788811
0.000788805
0.000788789
0.000788717
0.000788788
0.000788788
0.000788788
0.000788772
0.000788885
0.000788942
0.000788942
0.000789097
0.000789123
0.000789123
0.000789208
0.00078937
0.000789578
0.000789713
0.000789846
0.000789934
0.000790082
0.000790218
0.000790441
0.000790603
0.000790793
0.00079094
0.000791176
0.000791338
0.000791575
0.000791767
0.000792067
0.000792265
0.000792572
0.00079278
0.000793163
0.000793399
0.000793873
0.000794152
0.000794724
0.000795047
0.000795735
0.000796134
0.000797027
0.000797472
0.000799065
0.000799265
0.000813742
0.000867037
0.00227971
0.00101914
0.000942043
0.000897155
0.000869713
0.000851596
0.000838889
0.000829531
0.000822426
0.000816872
0.000812456
0.000808874
0.000805939
0.000803495
0.000801449
0.00079971
0.000798234
0.000796957
0.000795855
0.000794893
0.000794064
0.000793323
0.000792676
0.000792095
0.000791597
0.000791133
0.000790724
0.000790354
0.000790041
0.000789739
0.000789482
0.000789236
0.00078905
0.000788831
0.000788652
0.000788496
0.000788382
0.000788247
0.000788139
0.00078804
0.000787973
0.000787862
0.000787791
0.00078774
0.000787688
0.000787549
0.000787563
0.000787562
0.00078756
0.000787554
0.000787537
0.000787464
0.000787533
0.000787534
0.000787533
0.000787517
0.000787629
0.000787684
0.000787684
0.000787838
0.000787864
0.000787864
0.00078795
0.000788111
0.000788318
0.000788453
0.000788587
0.000788675
0.000788823
0.000788958
0.00078918
0.000789343
0.000789533
0.00078968
0.000789915
0.000790077
0.000790314
0.000790505
0.000790805
0.000791004
0.000791311
0.000791518
0.000791901
0.000792136
0.000792609
0.000792888
0.000793458
0.00079378
0.000794466
0.000794864
0.000795755
0.000796197
0.00079779
0.000797976
0.000812905
0.000866003
0.00226979
0.00101916
0.000941865
0.000896749
0.000869123
0.000850868
0.000838055
0.000828617
0.000821447
0.000815841
0.000811383
0.000807766
0.000804801
0.000802332
0.000800265
0.000798507
0.000797015
0.000795723
0.000794609
0.000793636
0.000792797
0.000792047
0.000791393
0.000790804
0.000790301
0.00078983
0.000789417
0.000789041
0.000788724
0.000788419
0.000788158
0.000787909
0.00078772
0.000787498
0.000787317
0.000787158
0.000787041
0.000786905
0.000786795
0.000786694
0.000786626
0.000786514
0.000786442
0.000786389
0.000786336
0.000786197
0.000786209
0.000786208
0.000786205
0.000786198
0.00078618
0.000786106
0.000786174
0.000786174
0.000786173
0.000786156
0.000786267
0.000786321
0.000786321
0.000786474
0.000786501
0.0007865
0.000786586
0.000786746
0.000786953
0.000787088
0.000787222
0.000787311
0.000787459
0.000787592
0.000787814
0.000787976
0.000788167
0.000788313
0.000788549
0.000788711
0.000788948
0.000789138
0.000789438
0.000789636
0.000789944
0.00079015
0.000790532
0.000790767
0.000791239
0.000791517
0.000792086
0.000792407
0.000793091
0.000793488
0.000794376
0.000794815
0.000796407
0.00079658
0.000812
0.000864878
0.00225723
0.00101918
0.000941675
0.000896316
0.000868491
0.000850086
0.00083716
0.000827634
0.000820394
0.000814732
0.000810228
0.000806573
0.000803576
0.00080108
0.000798988
0.000797211
0.000795701
0.000794394
0.000793266
0.000792281
0.000791431
0.000790673
0.00079001
0.000789413
0.000788903
0.000788426
0.000788008
0.000787627
0.000787305
0.000786995
0.00078673
0.000786478
0.000786286
0.000786061
0.000785877
0.000785716
0.000785596
0.000785457
0.000785346
0.000785243
0.000785174
0.00078506
0.000784987
0.000784932
0.000784879
0.000784739
0.000784748
0.000784747
0.000784743
0.000784736
0.000784717
0.000784642
0.000784707
0.000784707
0.000784707
0.000784688
0.000784799
0.000784851
0.000784851
0.000785004
0.00078503
0.000785029
0.000785115
0.000785273
0.00078548
0.000785615
0.00078575
0.000785839
0.000785987
0.00078612
0.00078634
0.000786502
0.000786694
0.00078684
0.000787075
0.000787237
0.000787474
0.000787663
0.000787963
0.000788161
0.000788469
0.000788674
0.000789056
0.00078929
0.000789761
0.000790038
0.000790606
0.000790926
0.000791608
0.000792003
0.000792889
0.000793324
0.000794916
0.000795074
0.000811026
0.000863658
0.0022421
0.00101921
0.000941475
0.000895854
0.000867816
0.00084925
0.000836202
0.000826581
0.000819266
0.000813544
0.00080899
0.000805293
0.000802262
0.000799736
0.000797619
0.00079582
0.000794291
0.000792968
0.000791826
0.000790827
0.000789966
0.000789197
0.000788525
0.000787921
0.000787403
0.00078692
0.000786495
0.000786108
0.000785781
0.000785467
0.000785198
0.000784941
0.000784746
0.000784518
0.000784331
0.000784167
0.000784045
0.000783904
0.00078379
0.000783685
0.000783614
0.000783499
0.000783424
0.000783367
0.000783314
0.000783174
0.00078318
0.000783178
0.000783174
0.000783165
0.000783145
0.000783069
0.000783132
0.000783133
0.000783132
0.000783112
0.000783222
0.000783273
0.000783273
0.000783424
0.00078345
0.00078345
0.000783535
0.000783692
0.000783898
0.000784034
0.000784169
0.000784258
0.000784407
0.000784538
0.000784757
0.000784919
0.000785111
0.000785257
0.000785492
0.000785653
0.000785891
0.000786079
0.000786378
0.000786576
0.000786885
0.000787089
0.000787471
0.000787704
0.000788173
0.000788449
0.000789016
0.000789336
0.000790015
0.000790408
0.000791291
0.000791723
0.000793314
0.000793457
0.00080998
0.000862342
0.00222447
0.00101923
0.000941264
0.000895365
0.0008671
0.000848361
0.000835181
0.000825458
0.000818063
0.000812275
0.000807668
0.000803927
0.000800858
0.000798301
0.000796157
0.000794334
0.000792785
0.000791443
0.000790285
0.000789273
0.0007884
0.00078762
0.000786938
0.000786324
0.000785798
0.000785308
0.000784877
0.000784484
0.000784152
0.000783833
0.000783559
0.000783298
0.000783099
0.000782868
0.000782678
0.00078251
0.000782385
0.000782242
0.000782126
0.000782019
0.000781946
0.00078183
0.000781752
0.000781694
0.00078164
0.0007815
0.000781503
0.0007815
0.000781495
0.000781485
0.000781465
0.000781387
0.000781448
0.000781448
0.000781447
0.000781426
0.000781535
0.000781584
0.000781584
0.000781734
0.00078176
0.00078176
0.000781845
0.000782001
0.000782206
0.000782342
0.000782478
0.000782567
0.000782716
0.000782846
0.000783064
0.000783225
0.000783418
0.000783564
0.000783798
0.00078396
0.000784197
0.000784384
0.000784683
0.00078488
0.000785189
0.000785393
0.000785775
0.000786006
0.000786475
0.00078675
0.000787314
0.000787633
0.00078831
0.000788702
0.000789582
0.00079001
0.0007916
0.000791727
0.00080886
0.000860927
0.00220442
0.00101926
0.000941043
0.000894849
0.000866341
0.000847418
0.000834097
0.000824265
0.000816783
0.000810926
0.000806261
0.000802473
0.000799364
0.000796772
0.000794599
0.000792751
0.00079118
0.00078982
0.000788645
0.000787618
0.000786731
0.000785939
0.000785247
0.000784624
0.000784089
0.000783591
0.000783153
0.000782754
0.000782415
0.000782091
0.000781813
0.000781547
0.000781343
0.000781109
0.000780916
0.000780744
0.000780617
0.000780471
0.000780352
0.000780242
0.000780167
0.00078005
0.000779971
0.00077991
0.000779855
0.000779715
0.000779715
0.000779711
0.000779705
0.000779695
0.000779673
0.000779594
0.000779652
0.000779652
0.000779651
0.000779629
0.000779737
0.000779784
0.000779783
0.000779933
0.000779958
0.000779958
0.000780043
0.000780197
0.000780402
0.000780538
0.000780675
0.000780764
0.000780913
0.000781042
0.000781258
0.000781419
0.000781613
0.000781758
0.000781992
0.000782153
0.000782391
0.000782577
0.000782875
0.000783072
0.000783382
0.000783585
0.000783966
0.000784196
0.000784663
0.000784937
0.0007855
0.000785818
0.000786492
0.000786882
0.000787758
0.000788183
0.000789772
0.000789883
0.000807663
0.000859409
0.00218206
0.00101929
0.000940812
0.000894306
0.00086554
0.00084642
0.00083295
0.000823002
0.000815427
0.000809496
0.00080477
0.00080093
0.000797778
0.00079515
0.000792946
0.000791071
0.000789476
0.000788096
0.000786903
0.00078586
0.000784958
0.000784154
0.00078345
0.000782817
0.000782273
0.000781767
0.000781321
0.000780915
0.00078057
0.00078024
0.000779957
0.000779686
0.000779478
0.00077924
0.000779043
0.000778868
0.000778737
0.000778588
0.000778467
0.000778354
0.000778277
0.000778158
0.000778077
0.000778014
0.000777958
0.000777819
0.000777815
0.00077781
0.000777802
0.000777791
0.000777768
0.000777688
0.000777743
0.000777744
0.000777742
0.000777719
0.000777825
0.00077787
0.00077787
0.000778018
0.000778043
0.000778043
0.000778128
0.00077828
0.000778485
0.000778621
0.000778758
0.000778848
0.000778996
0.000779124
0.000779338
0.0007795
0.000779694
0.000779838
0.000780072
0.000780233
0.00078047
0.000780655
0.000780953
0.00078115
0.00078146
0.000781662
0.000782042
0.000782272
0.000782737
0.00078301
0.000783571
0.000783888
0.000784559
0.000784947
0.00078582
0.00078624
0.000787828
0.000787924
0.000806385
0.000857786
0.00215748
0.00101932
0.000940571
0.000893736
0.000864698
0.00084537
0.00083174
0.000821668
0.000813995
0.000807984
0.000803192
0.000799299
0.000796101
0.000793434
0.000791196
0.000789293
0.000787673
0.00078627
0.000785058
0.000783998
0.000783081
0.000782263
0.000781547
0.000780903
0.000780349
0.000779834
0.000779381
0.000778967
0.000778616
0.00077828
0.000777991
0.000777715
0.000777502
0.00077726
0.000777059
0.00077688
0.000776745
0.000776593
0.00077647
0.000776354
0.000776275
0.000776154
0.000776071
0.000776005
0.000775948
0.000775809
0.000775802
0.000775794
0.000775786
0.000775774
0.00077575
0.000775668
0.000775721
0.000775721
0.000775719
0.000775695
0.000775799
0.000775842
0.000775842
0.000775989
0.000776014
0.000776014
0.000776098
0.000776249
0.000776452
0.000776588
0.000776726
0.000776816
0.000776965
0.000777091
0.000777304
0.000777465
0.00077766
0.000777803
0.000778036
0.000778197
0.000778435
0.000778618
0.000778916
0.000779112
0.000779422
0.000779623
0.000780003
0.000780232
0.000780696
0.000780967
0.000781525
0.000781842
0.00078251
0.000782895
0.000783765
0.000784181
0.000785767
0.000785847
0.000805024
0.000856052
0.0021308
0.00101936
0.000940322
0.000893141
0.000863815
0.000844266
0.000830466
0.000820263
0.000812485
0.000806389
0.000801528
0.000797577
0.00079433
0.000791622
0.000789349
0.000787415
0.000785768
0.000784342
0.000783109
0.000782031
0.000781098
0.000780266
0.000779537
0.000778881
0.000778317
0.000777793
0.00077733
0.000776909
0.00077655
0.000776208
0.000775913
0.000775631
0.000775413
0.000775167
0.000774962
0.000774778
0.00077464
0.000774485
0.000774358
0.000774239
0.000774157
0.000774035
0.000773949
0.000773881
0.000773823
0.000773684
0.000773674
0.000773664
0.000773654
0.000773641
0.000773616
0.000773533
0.000773582
0.000773582
0.000773581
0.000773554
0.000773658
0.000773698
0.000773697
0.000773843
0.000773868
0.000773868
0.000773952
0.000774101
0.000774303
0.000774439
0.000774577
0.000774667
0.000774817
0.000774941
0.000775152
0.000775313
0.000775508
0.000775652
0.000775884
0.000776045
0.000776282
0.000776464
0.000776762
0.000776957
0.000777268
0.000777468
0.000777847
0.000778074
0.000778536
0.000778806
0.000779362
0.000779677
0.000780342
0.000780726
0.000781591
0.000782003
0.000783587
0.000783651
0.000803574
0.000854203
0.00210213
0.00101939
0.000940064
0.000892521
0.000862891
0.000843108
0.00082913
0.000818787
0.000810898
0.000804713
0.000799778
0.000795765
0.000792466
0.000789715
0.000787404
0.000785437
0.000783762
0.000782311
0.000781056
0.000779958
0.000779008
0.000778161
0.000777418
0.00077675
0.000776174
0.00077564
0.000775169
0.000774739
0.000774373
0.000774023
0.000773722
0.000773434
0.00077321
0.00077296
0.000772751
0.000772563
0.00077242
0.000772262
0.000772132
0.000772009
0.000771925
0.0007718
0.000771712
0.000771641
0.000771583
0.000771442
0.000771429
0.000771417
0.000771406
0.000771391
0.000771365
0.000771281
0.000771327
0.000771327
0.000771325
0.000771297
0.000771398
0.000771436
0.000771436
0.00077158
0.000771604
0.000771604
0.000771688
0.000771835
0.000772036
0.000772172
0.000772311
0.000772401
0.000772551
0.000772673
0.000772883
0.000773042
0.000773239
0.000773382
0.000773613
0.000773774
0.000774011
0.000774192
0.000774489
0.000774684
0.000774995
0.000775193
0.000775572
0.000775798
0.000776258
0.000776527
0.00077708
0.000777394
0.000778055
0.000778437
0.000779298
0.000779704
0.000781286
0.000781336
0.000802032
0.000852233
0.0020716
0.00101943
0.000939798
0.000891877
0.000861927
0.000841898
0.00082773
0.00081724
0.000809233
0.000802953
0.00079794
0.000793862
0.000790509
0.00078771
0.000785359
0.000783358
0.000781652
0.000780176
0.000778898
0.000777779
0.000776811
0.000775947
0.00077519
0.000774508
0.000773921
0.000773376
0.000772895
0.000772456
0.000772082
0.000771725
0.000771417
0.000771123
0.000770893
0.000770638
0.000770424
0.000770231
0.000770084
0.000769922
0.000769789
0.000769663
0.000769576
0.000769448
0.000769358
0.000769284
0.000769224
0.000769084
0.000769066
0.000769052
0.00076904
0.000769024
0.000768997
0.000768911
0.000768954
0.000768954
0.000768951
0.000768921
0.000769021
0.000769056
0.000769055
0.000769198
0.000769222
0.000769222
0.000769305
0.00076945
0.00076965
0.000769786
0.000769925
0.000770016
0.000770165
0.000770286
0.000770494
0.000770653
0.00077085
0.000770992
0.000771223
0.000771383
0.000771621
0.0007718
0.000772096
0.00077229
0.000772601
0.000772799
0.000773177
0.000773401
0.000773859
0.000774127
0.000774678
0.00077499
0.000775648
0.000776026
0.000776883
0.000777285
0.000778864
0.000778898
0.000800391
0.000850135
0.00203935
0.00101948
0.000939525
0.000891208
0.000860923
0.000840636
0.000826268
0.000815622
0.000807491
0.00080111
0.000796014
0.000791868
0.000788456
0.000785609
0.000783215
0.000781177
0.00077944
0.000777935
0.000776633
0.000775492
0.000774505
0.000773623
0.000772851
0.000772155
0.000771555
0.000770999
0.000770508
0.000770059
0.000769676
0.000769312
0.000768997
0.000768696
0.00076846
0.0007682
0.000767981
0.000767783
0.000767631
0.000767465
0.000767329
0.000767199
0.000767108
0.000766979
0.000766886
0.000766808
0.000766747
0.000766607
0.000766585
0.000766569
0.000766554
0.000766537
0.000766509
0.000766421
0.000766461
0.000766461
0.000766458
0.000766425
0.000766523
0.000766555