/*--------------------------------*- C++ -*----------------------------------*\
| =========                 |                                                 |
| \\      /  F ield         | OpenFOAM: The Open Source CFD Toolbox           |
|  \\    /   O peration     | Version:  v2012                                 |
|   \\  /    A nd           | Website:  www.openfoam.com                      |
|    \\/     M anipulation  |                                                 |
\*---------------------------------------------------------------------------*/
FoamFile
{
    version     2.0;
    format      ascii;
    class       volVectorField;
    location    "17";
    object      wallShearStress;
}
// * * * * * * * * * * * * * * * * * * * * * * * * * * * * * * * * * * * * * //

dimensions      [0 2 -2 0 0 0 0];


internalField   uniform (0 0 0);

boundaryField
{
    inlet
    {
        type            calculated;
        value           uniform (0 0 0);
    }
    outlet
    {
        type            calculated;
        value           uniform (0 0 0);
    }
    topWall
    {
        type            calculated;
        value           nonuniform List<vector> 
545
(
(3.26788e-08 -2.30158e-08 0)
(3.26693e-08 -6.43671e-08 0)
(3.26478e-08 -1.07364e-07 0)
(3.26076e-08 -1.49109e-07 0)
(3.25595e-08 -1.89052e-07 0)
(3.25085e-08 -2.27715e-07 0)
(3.24501e-08 -2.65428e-07 0)
(3.23851e-08 -3.02173e-07 0)
(3.23142e-08 -3.37869e-07 0)
(3.22378e-08 -3.72514e-07 0)
(3.21565e-08 -4.06153e-07 0)
(3.20708e-08 -4.38825e-07 0)
(3.1981e-08 -4.70553e-07 0)
(3.18877e-08 -5.01356e-07 0)
(3.17912e-08 -5.31256e-07 0)
(3.16918e-08 -5.60277e-07 0)
(3.15901e-08 -5.88443e-07 0)
(3.14861e-08 -6.15777e-07 0)
(3.13804e-08 -6.42302e-07 0)
(3.12731e-08 -6.6804e-07 0)
(3.11646e-08 -6.93013e-07 0)
(3.1055e-08 -7.17242e-07 0)
(3.09446e-08 -7.40749e-07 0)
(3.08336e-08 -7.63554e-07 0)
(3.07222e-08 -7.85678e-07 0)
(3.06107e-08 -8.0714e-07 0)
(3.04991e-08 -8.27961e-07 0)
(3.03876e-08 -8.48158e-07 0)
(3.02763e-08 -8.6775e-07 0)
(3.01655e-08 -8.86756e-07 0)
(3.00551e-08 -9.05194e-07 0)
(2.99454e-08 -9.23079e-07 0)
(2.98364e-08 -9.40429e-07 0)
(2.97282e-08 -9.57261e-07 0)
(2.96209e-08 -9.73589e-07 0)
(2.95146e-08 -9.89429e-07 0)
(2.94093e-08 -1.0048e-06 0)
(2.93051e-08 -1.01971e-06 0)
(2.9202e-08 -1.03417e-06 0)
(2.91002e-08 -1.0482e-06 0)
(2.89995e-08 -1.06182e-06 0)
(2.89002e-08 -1.07503e-06 0)
(2.88021e-08 -1.08785e-06 0)
(2.87054e-08 -1.10029e-06 0)
(2.86101e-08 -1.11236e-06 0)
(2.85161e-08 -1.12408e-06 0)
(2.84235e-08 -1.13544e-06 0)
(2.83322e-08 -1.14647e-06 0)
(2.82424e-08 -1.15718e-06 0)
(2.8154e-08 -1.16757e-06 0)
(2.8067e-08 -1.17766e-06 0)
(2.79814e-08 -1.18745e-06 0)
(2.78972e-08 -1.19695e-06 0)
(2.78144e-08 -1.20618e-06 0)
(2.77329e-08 -1.21513e-06 0)
(2.76529e-08 -1.22383e-06 0)
(2.75742e-08 -1.23227e-06 0)
(2.74969e-08 -1.24046e-06 0)
(2.74209e-08 -1.24842e-06 0)
(2.73462e-08 -1.25614e-06 0)
(2.72728e-08 -1.26364e-06 0)
(2.72007e-08 -1.27092e-06 0)
(2.71299e-08 -1.278e-06 0)
(2.70603e-08 -1.28487e-06 0)
(2.69919e-08 -1.29154e-06 0)
(2.69247e-08 -1.29801e-06 0)
(2.68587e-08 -1.30431e-06 0)
(2.67939e-08 -1.31042e-06 0)
(2.67302e-08 -1.31635e-06 0)
(2.66675e-08 -1.32212e-06 0)
(2.66067e-08 -1.32772e-06 0)
(2.65433e-08 -1.33315e-06 0)
(2.64822e-08 -1.33837e-06 0)
(2.6429e-08 -1.34344e-06 0)
(2.63767e-08 -1.34845e-06 0)
(2.63242e-08 -1.35343e-06 0)
(2.62718e-08 -1.35838e-06 0)
(2.62195e-08 -1.36331e-06 0)
(2.61671e-08 -1.3682e-06 0)
(2.61149e-08 -1.37306e-06 0)
(2.60626e-08 -1.37788e-06 0)
(2.60104e-08 -1.38268e-06 0)
(2.59583e-08 -1.38744e-06 0)
(2.59062e-08 -1.39217e-06 0)
(2.58541e-08 -1.39687e-06 0)
(2.58021e-08 -1.40154e-06 0)
(2.57502e-08 -1.40618e-06 0)
(2.56983e-08 -1.41079e-06 0)
(2.56465e-08 -1.41537e-06 0)
(2.55947e-08 -1.41992e-06 0)
(2.55431e-08 -1.42443e-06 0)
(2.54914e-08 -1.42892e-06 0)
(2.54402e-08 -1.43339e-06 0)
(2.53873e-08 -1.4378e-06 0)
(2.53426e-08 -1.44221e-06 0)
(2.52656e-08 -1.44655e-06 0)
(2.51807e-08 -1.45047e-06 0)
(2.51354e-08 -1.45409e-06 0)
(2.50948e-08 -1.45761e-06 0)
(2.50541e-08 -1.46107e-06 0)
(2.50134e-08 -1.46459e-06 0)
(2.49726e-08 -1.46814e-06 0)
(2.49316e-08 -1.47168e-06 0)
(2.48905e-08 -1.47522e-06 0)
(2.48491e-08 -1.47875e-06 0)
(2.48075e-08 -1.48229e-06 0)
(2.47658e-08 -1.48584e-06 0)
(2.47238e-08 -1.48938e-06 0)
(2.46817e-08 -1.49293e-06 0)
(2.46393e-08 -1.49648e-06 0)
(2.45968e-08 -1.50004e-06 0)
(2.45541e-08 -1.50359e-06 0)
(2.45112e-08 -1.50715e-06 0)
(2.44681e-08 -1.51071e-06 0)
(2.44248e-08 -1.51427e-06 0)
(2.43813e-08 -1.51783e-06 0)
(2.43376e-08 -1.5214e-06 0)
(2.42937e-08 -1.52496e-06 0)
(2.42496e-08 -1.52853e-06 0)
(2.42053e-08 -1.53211e-06 0)
(2.41609e-08 -1.53568e-06 0)
(2.41162e-08 -1.53925e-06 0)
(2.40714e-08 -1.54283e-06 0)
(2.40263e-08 -1.54641e-06 0)
(2.3981e-08 -1.54999e-06 0)
(2.39356e-08 -1.55357e-06 0)
(2.38899e-08 -1.55715e-06 0)
(2.38441e-08 -1.56074e-06 0)
(2.3798e-08 -1.56433e-06 0)
(2.37518e-08 -1.56791e-06 0)
(2.37053e-08 -1.5715e-06 0)
(2.36587e-08 -1.57509e-06 0)
(2.36118e-08 -1.57869e-06 0)
(2.35648e-08 -1.58228e-06 0)
(2.35175e-08 -1.58588e-06 0)
(2.34701e-08 -1.58947e-06 0)
(2.34224e-08 -1.59307e-06 0)
(2.33745e-08 -1.59667e-06 0)
(2.33264e-08 -1.60027e-06 0)
(2.32782e-08 -1.60387e-06 0)
(2.32297e-08 -1.60747e-06 0)
(2.3181e-08 -1.61107e-06 0)
(2.31321e-08 -1.61468e-06 0)
(2.3083e-08 -1.61828e-06 0)
(2.30337e-08 -1.62188e-06 0)
(2.29842e-08 -1.62549e-06 0)
(2.29344e-08 -1.6291e-06 0)
(2.28845e-08 -1.6327e-06 0)
(2.28344e-08 -1.63631e-06 0)
(2.2784e-08 -1.63992e-06 0)
(2.27335e-08 -1.64353e-06 0)
(2.26827e-08 -1.64714e-06 0)
(2.26317e-08 -1.65075e-06 0)
(2.25805e-08 -1.65436e-06 0)
(2.25291e-08 -1.65797e-06 0)
(2.24775e-08 -1.66158e-06 0)
(2.24257e-08 -1.66519e-06 0)
(2.23737e-08 -1.6688e-06 0)
(2.23215e-08 -1.67241e-06 0)
(2.2269e-08 -1.67602e-06 0)
(2.22164e-08 -1.67964e-06 0)
(2.21635e-08 -1.68325e-06 0)
(2.21104e-08 -1.68686e-06 0)
(2.20572e-08 -1.69047e-06 0)
(2.20037e-08 -1.69408e-06 0)
(2.195e-08 -1.69769e-06 0)
(2.1896e-08 -1.7013e-06 0)
(2.18419e-08 -1.70491e-06 0)
(2.17876e-08 -1.70852e-06 0)
(2.1733e-08 -1.71213e-06 0)
(2.16782e-08 -1.71573e-06 0)
(2.16233e-08 -1.71934e-06 0)
(2.15681e-08 -1.72295e-06 0)
(2.15127e-08 -1.72655e-06 0)
(2.14571e-08 -1.73016e-06 0)
(2.14012e-08 -1.73376e-06 0)
(2.13452e-08 -1.73737e-06 0)
(2.12889e-08 -1.74097e-06 0)
(2.12325e-08 -1.74457e-06 0)
(2.11758e-08 -1.74817e-06 0)
(2.11189e-08 -1.75177e-06 0)
(2.10618e-08 -1.75537e-06 0)
(2.10045e-08 -1.75896e-06 0)
(2.0947e-08 -1.76256e-06 0)
(2.08892e-08 -1.76615e-06 0)
(2.08313e-08 -1.76974e-06 0)
(2.07731e-08 -1.77333e-06 0)
(2.07147e-08 -1.77692e-06 0)
(2.06562e-08 -1.78051e-06 0)
(2.05974e-08 -1.7841e-06 0)
(2.05384e-08 -1.78768e-06 0)
(2.04791e-08 -1.79126e-06 0)
(2.04197e-08 -1.79484e-06 0)
(2.036e-08 -1.79842e-06 0)
(2.03002e-08 -1.80199e-06 0)
(2.02401e-08 -1.80557e-06 0)
(2.01798e-08 -1.80914e-06 0)
(2.01193e-08 -1.81271e-06 0)
(2.00586e-08 -1.81628e-06 0)
(1.99977e-08 -1.81984e-06 0)
(1.99366e-08 -1.8234e-06 0)
(1.98753e-08 -1.82696e-06 0)
(1.98137e-08 -1.83052e-06 0)
(1.97519e-08 -1.83407e-06 0)
(1.969e-08 -1.83762e-06 0)
(1.96278e-08 -1.84117e-06 0)
(1.95654e-08 -1.84472e-06 0)
(1.95028e-08 -1.84826e-06 0)
(1.944e-08 -1.8518e-06 0)
(1.9377e-08 -1.85533e-06 0)
(1.93137e-08 -1.85887e-06 0)
(1.92503e-08 -1.8624e-06 0)
(1.91866e-08 -1.86592e-06 0)
(1.91228e-08 -1.86945e-06 0)
(1.90587e-08 -1.87297e-06 0)
(1.89945e-08 -1.87648e-06 0)
(1.893e-08 -1.88e-06 0)
(1.88653e-08 -1.8835e-06 0)
(1.88004e-08 -1.88701e-06 0)
(1.87353e-08 -1.89051e-06 0)
(1.867e-08 -1.89401e-06 0)
(1.86045e-08 -1.8975e-06 0)
(1.85388e-08 -1.90099e-06 0)
(1.84728e-08 -1.90447e-06 0)
(1.84067e-08 -1.90795e-06 0)
(1.83404e-08 -1.91143e-06 0)
(1.82738e-08 -1.9149e-06 0)
(1.82071e-08 -1.91837e-06 0)
(1.81402e-08 -1.92183e-06 0)
(1.8073e-08 -1.92529e-06 0)
(1.80057e-08 -1.92874e-06 0)
(1.79381e-08 -1.93219e-06 0)
(1.78704e-08 -1.93564e-06 0)
(1.78024e-08 -1.93907e-06 0)
(1.77343e-08 -1.94251e-06 0)
(1.76659e-08 -1.94594e-06 0)
(1.75974e-08 -1.94936e-06 0)
(1.75287e-08 -1.95278e-06 0)
(1.74597e-08 -1.95619e-06 0)
(1.73906e-08 -1.9596e-06 0)
(1.73213e-08 -1.963e-06 0)
(1.72517e-08 -1.9664e-06 0)
(1.7182e-08 -1.96979e-06 0)
(1.71121e-08 -1.97317e-06 0)
(1.7042e-08 -1.97655e-06 0)
(1.69717e-08 -1.97992e-06 0)
(1.69012e-08 -1.98329e-06 0)
(1.68306e-08 -1.98665e-06 0)
(1.67597e-08 -1.99e-06 0)
(1.66886e-08 -1.99335e-06 0)
(1.66174e-08 -1.99669e-06 0)
(1.6546e-08 -2.00003e-06 0)
(1.64744e-08 -2.00336e-06 0)
(1.64026e-08 -2.00668e-06 0)
(1.63306e-08 -2.00999e-06 0)
(1.62584e-08 -2.0133e-06 0)
(1.61861e-08 -2.0166e-06 0)
(1.61135e-08 -2.0199e-06 0)
(1.60408e-08 -2.02318e-06 0)
(1.59679e-08 -2.02646e-06 0)
(1.58949e-08 -2.02974e-06 0)
(1.58216e-08 -2.033e-06 0)
(1.57482e-08 -2.03626e-06 0)
(1.56746e-08 -2.03951e-06 0)
(1.56008e-08 -2.04275e-06 0)
(1.55271e-08 -2.04599e-06 0)
(1.5452e-08 -2.04921e-06 0)
(1.53814e-08 -2.05248e-06 0)
(1.52859e-08 -2.0556e-06 0)
(1.51914e-08 -2.05857e-06 0)
(1.51266e-08 -2.06157e-06 0)
(1.50606e-08 -2.06442e-06 0)
(1.49958e-08 -2.06725e-06 0)
(1.49303e-08 -2.07013e-06 0)
(1.48641e-08 -2.07307e-06 0)
(1.47972e-08 -2.07601e-06 0)
(1.47295e-08 -2.07897e-06 0)
(1.46611e-08 -2.08194e-06 0)
(1.45918e-08 -2.08493e-06 0)
(1.45218e-08 -2.08794e-06 0)
(1.44509e-08 -2.09097e-06 0)
(1.43793e-08 -2.09401e-06 0)
(1.43068e-08 -2.09708e-06 0)
(1.42336e-08 -2.10016e-06 0)
(1.41595e-08 -2.10326e-06 0)
(1.40845e-08 -2.10637e-06 0)
(1.40088e-08 -2.10951e-06 0)
(1.39322e-08 -2.11266e-06 0)
(1.38547e-08 -2.11582e-06 0)
(1.37764e-08 -2.11901e-06 0)
(1.36972e-08 -2.12221e-06 0)
(1.36171e-08 -2.12542e-06 0)
(1.35362e-08 -2.12865e-06 0)
(1.34544e-08 -2.1319e-06 0)
(1.33717e-08 -2.13516e-06 0)
(1.32881e-08 -2.13844e-06 0)
(1.32036e-08 -2.14173e-06 0)
(1.31182e-08 -2.14503e-06 0)
(1.30319e-08 -2.14835e-06 0)
(1.29447e-08 -2.15169e-06 0)
(1.28566e-08 -2.15504e-06 0)
(1.27676e-08 -2.1584e-06 0)
(1.26776e-08 -2.16177e-06 0)
(1.25867e-08 -2.16515e-06 0)
(1.24949e-08 -2.16855e-06 0)
(1.24021e-08 -2.17196e-06 0)
(1.23084e-08 -2.17538e-06 0)
(1.22137e-08 -2.17881e-06 0)
(1.21181e-08 -2.18225e-06 0)
(1.20215e-08 -2.1857e-06 0)
(1.19239e-08 -2.18917e-06 0)
(1.18254e-08 -2.19263e-06 0)
(1.1726e-08 -2.19611e-06 0)
(1.16256e-08 -2.1996e-06 0)
(1.15241e-08 -2.20309e-06 0)
(1.14218e-08 -2.20659e-06 0)
(1.13184e-08 -2.2101e-06 0)
(1.12141e-08 -2.21361e-06 0)
(1.11088e-08 -2.21713e-06 0)
(1.10025e-08 -2.22065e-06 0)
(1.08953e-08 -2.22418e-06 0)
(1.0787e-08 -2.2277e-06 0)
(1.06778e-08 -2.23124e-06 0)
(1.05676e-08 -2.23477e-06 0)
(1.04564e-08 -2.2383e-06 0)
(1.03442e-08 -2.24184e-06 0)
(1.02311e-08 -2.24537e-06 0)
(1.01169e-08 -2.2489e-06 0)
(1.00018e-08 -2.25244e-06 0)
(9.88577e-09 -2.25596e-06 0)
(9.76872e-09 -2.25949e-06 0)
(9.6507e-09 -2.26301e-06 0)
(9.53172e-09 -2.26652e-06 0)
(9.41177e-09 -2.27003e-06 0)
(9.29087e-09 -2.27354e-06 0)
(9.16901e-09 -2.27703e-06 0)
(9.04621e-09 -2.28051e-06 0)
(8.92246e-09 -2.28399e-06 0)
(8.79778e-09 -2.28745e-06 0)
(8.67217e-09 -2.29091e-06 0)
(8.54563e-09 -2.29435e-06 0)
(8.41819e-09 -2.29777e-06 0)
(8.28983e-09 -2.30118e-06 0)
(8.16058e-09 -2.30458e-06 0)
(8.03044e-09 -2.30795e-06 0)
(7.89943e-09 -2.31131e-06 0)
(7.76755e-09 -2.31465e-06 0)
(7.63482e-09 -2.31797e-06 0)
(7.50124e-09 -2.32126e-06 0)
(7.36683e-09 -2.32454e-06 0)
(7.23161e-09 -2.32778e-06 0)
(7.09559e-09 -2.33101e-06 0)
(6.95878e-09 -2.3342e-06 0)
(6.82119e-09 -2.33737e-06 0)
(6.68286e-09 -2.3405e-06 0)
(6.54378e-09 -2.34361e-06 0)
(6.40399e-09 -2.34668e-06 0)
(6.2635e-09 -2.34972e-06 0)
(6.12232e-09 -2.35272e-06 0)
(5.98049e-09 -2.35569e-06 0)
(5.83801e-09 -2.35862e-06 0)
(5.69492e-09 -2.36151e-06 0)
(5.55123e-09 -2.36435e-06 0)
(5.40697e-09 -2.36716e-06 0)
(5.26217e-09 -2.36992e-06 0)
(5.11684e-09 -2.37263e-06 0)
(4.97102e-09 -2.37529e-06 0)
(4.82474e-09 -2.37791e-06 0)
(4.67801e-09 -2.38048e-06 0)
(4.53087e-09 -2.38299e-06 0)
(4.38336e-09 -2.38545e-06 0)
(4.23549e-09 -2.38785e-06 0)
(4.08731e-09 -2.39019e-06 0)
(3.93884e-09 -2.39248e-06 0)
(3.79012e-09 -2.3947e-06 0)
(3.64118e-09 -2.39686e-06 0)
(3.49207e-09 -2.39896e-06 0)
(3.3428e-09 -2.40099e-06 0)
(3.19343e-09 -2.40295e-06 0)
(3.04399e-09 -2.40485e-06 0)
(2.89451e-09 -2.40667e-06 0)
(2.74504e-09 -2.40842e-06 0)
(2.59563e-09 -2.41009e-06 0)
(2.4463e-09 -2.41168e-06 0)
(2.2971e-09 -2.4132e-06 0)
(2.14807e-09 -2.41464e-06 0)
(1.99926e-09 -2.41599e-06 0)
(1.85071e-09 -2.41726e-06 0)
(1.70247e-09 -2.41845e-06 0)
(1.55458e-09 -2.41954e-06 0)
(1.40709e-09 -2.42055e-06 0)
(1.26004e-09 -2.42146e-06 0)
(1.11349e-09 -2.42229e-06 0)
(9.67472e-10 -2.42301e-06 0)
(8.22044e-10 -2.42364e-06 0)
(6.77254e-10 -2.42418e-06 0)
(5.33152e-10 -2.42461e-06 0)
(3.89787e-10 -2.42494e-06 0)
(2.47212e-10 -2.42517e-06 0)
(1.05477e-10 -2.42529e-06 0)
(-3.5364e-11 -2.4253e-06 0)
(-1.75259e-10 -2.42521e-06 0)
(-3.14153e-10 -2.42501e-06 0)
(-4.51993e-10 -2.42469e-06 0)
(-5.88723e-10 -2.42426e-06 0)
(-7.24287e-10 -2.42372e-06 0)
(-8.5863e-10 -2.42306e-06 0)
(-9.91693e-10 -2.42229e-06 0)
(-1.12342e-09 -2.42139e-06 0)
(-1.25375e-09 -2.42038e-06 0)
(-1.38263e-09 -2.41924e-06 0)
(-1.50999e-09 -2.41798e-06 0)
(-1.63578e-09 -2.41659e-06 0)
(-1.75994e-09 -2.41509e-06 0)
(-1.88241e-09 -2.41345e-06 0)
(-2.00312e-09 -2.41169e-06 0)
(-2.12202e-09 -2.4098e-06 0)
(-2.23906e-09 -2.40777e-06 0)
(-2.35416e-09 -2.40562e-06 0)
(-2.46727e-09 -2.40334e-06 0)
(-2.57834e-09 -2.40093e-06 0)
(-2.68732e-09 -2.39839e-06 0)
(-2.79414e-09 -2.39571e-06 0)
(-2.89876e-09 -2.3929e-06 0)
(-3.00113e-09 -2.38996e-06 0)
(-3.1012e-09 -2.38688e-06 0)
(-3.19894e-09 -2.38367e-06 0)
(-3.2943e-09 -2.38033e-06 0)
(-3.38723e-09 -2.37685e-06 0)
(-3.47772e-09 -2.37324e-06 0)
(-3.56572e-09 -2.36949e-06 0)
(-3.65121e-09 -2.36561e-06 0)
(-3.73415e-09 -2.3616e-06 0)
(-3.81452e-09 -2.35746e-06 0)
(-3.8923e-09 -2.35318e-06 0)
(-3.96746e-09 -2.34877e-06 0)
(-4.03999e-09 -2.34423e-06 0)
(-4.10985e-09 -2.33956e-06 0)
(-4.17704e-09 -2.33476e-06 0)
(-4.24153e-09 -2.32983e-06 0)
(-4.3033e-09 -2.32478e-06 0)
(-4.36233e-09 -2.31959e-06 0)
(-4.41859e-09 -2.31429e-06 0)
(-4.47205e-09 -2.30885e-06 0)
(-4.52268e-09 -2.30329e-06 0)
(-4.57039e-09 -2.29762e-06 0)
(-4.61522e-09 -2.29181e-06 0)
(-4.6563e-09 -2.28591e-06 0)
(-4.69639e-09 -2.27975e-06 0)
(-4.73063e-09 -2.27379e-06 0)
(-4.75744e-09 -2.26694e-06 0)
(-4.78617e-09 -2.25896e-06 0)
(-4.81736e-09 -2.25122e-06 0)
(-4.84608e-09 -2.24345e-06 0)
(-4.87011e-09 -2.23559e-06 0)
(-4.89036e-09 -2.22766e-06 0)
(-4.9068e-09 -2.21972e-06 0)
(-4.9195e-09 -2.21176e-06 0)
(-4.92861e-09 -2.20378e-06 0)
(-4.93424e-09 -2.19579e-06 0)
(-4.93651e-09 -2.1878e-06 0)
(-4.93556e-09 -2.1798e-06 0)
(-4.93151e-09 -2.1718e-06 0)
(-4.92449e-09 -2.16382e-06 0)
(-4.91461e-09 -2.15585e-06 0)
(-4.90201e-09 -2.1479e-06 0)
(-4.88679e-09 -2.13997e-06 0)
(-4.86907e-09 -2.13207e-06 0)
(-4.84895e-09 -2.12419e-06 0)
(-4.82653e-09 -2.11636e-06 0)
(-4.8019e-09 -2.10856e-06 0)
(-4.77516e-09 -2.1008e-06 0)
(-4.74639e-09 -2.09309e-06 0)
(-4.71567e-09 -2.08542e-06 0)
(-4.68307e-09 -2.07781e-06 0)
(-4.64867e-09 -2.07025e-06 0)
(-4.61254e-09 -2.06275e-06 0)
(-4.57474e-09 -2.0553e-06 0)
(-4.53532e-09 -2.04792e-06 0)
(-4.49436e-09 -2.04061e-06 0)
(-4.4519e-09 -2.03336e-06 0)
(-4.40799e-09 -2.02619e-06 0)
(-4.3627e-09 -2.01908e-06 0)
(-4.31607e-09 -2.01205e-06 0)
(-4.26815e-09 -2.0051e-06 0)
(-4.21899e-09 -1.99822e-06 0)
(-4.16863e-09 -1.99143e-06 0)
(-4.11712e-09 -1.98472e-06 0)
(-4.06449e-09 -1.97809e-06 0)
(-4.01081e-09 -1.97155e-06 0)
(-3.95609e-09 -1.9651e-06 0)
(-3.90039e-09 -1.95874e-06 0)
(-3.84373e-09 -1.95246e-06 0)
(-3.78617e-09 -1.94628e-06 0)
(-3.72772e-09 -1.9402e-06 0)
(-3.66843e-09 -1.93421e-06 0)
(-3.60833e-09 -1.92832e-06 0)
(-3.54743e-09 -1.92252e-06 0)
(-3.48578e-09 -1.91683e-06 0)
(-3.4234e-09 -1.91123e-06 0)
(-3.3603e-09 -1.90574e-06 0)
(-3.29652e-09 -1.90035e-06 0)
(-3.23207e-09 -1.89506e-06 0)
(-3.16698e-09 -1.88988e-06 0)
(-3.10126e-09 -1.8848e-06 0)
(-3.03493e-09 -1.87983e-06 0)
(-2.968e-09 -1.87497e-06 0)
(-2.90049e-09 -1.87022e-06 0)
(-2.83241e-09 -1.86558e-06 0)
(-2.76379e-09 -1.86105e-06 0)
(-2.69462e-09 -1.85663e-06 0)
(-2.62493e-09 -1.85232e-06 0)
(-2.55473e-09 -1.84812e-06 0)
(-2.48403e-09 -1.84404e-06 0)
(-2.41284e-09 -1.84008e-06 0)
(-2.34118e-09 -1.83623e-06 0)
(-2.26905e-09 -1.83249e-06 0)
(-2.19647e-09 -1.82888e-06 0)
(-2.12345e-09 -1.82538e-06 0)
(-2.05e-09 -1.822e-06 0)
(-1.97614e-09 -1.81873e-06 0)
(-1.90187e-09 -1.81559e-06 0)
(-1.82721e-09 -1.81257e-06 0)
(-1.75216e-09 -1.80967e-06 0)
(-1.67672e-09 -1.80689e-06 0)
(-1.60091e-09 -1.80423e-06 0)
(-1.52474e-09 -1.8017e-06 0)
(-1.44819e-09 -1.79929e-06 0)
(-1.37128e-09 -1.797e-06 0)
(-1.294e-09 -1.79484e-06 0)
(-1.21635e-09 -1.7928e-06 0)
(-1.13834e-09 -1.79089e-06 0)
(-1.05998e-09 -1.7891e-06 0)
(-9.81298e-10 -1.78745e-06 0)
(-9.02345e-10 -1.78591e-06 0)
(-8.23223e-10 -1.78452e-06 0)
(-7.44077e-10 -1.78321e-06 0)
(-6.65179e-10 -1.78219e-06 0)
(-5.86744e-10 -1.78076e-06 0)
(-5.09459e-10 -1.78122e-06 0)
(-4.32363e-10 -1.77583e-06 0)
(-3.59351e-10 -1.78963e-06 0)
(-2.73357e-10 -1.73557e-06 0)
(-2.34551e-10 -1.87768e-06 0)
(-1.23809e-10 -1.63967e-06 0)
)
;
    }
    bottomWall
    {
        type            calculated;
        value           nonuniform List<vector> 
449
(
(-48.5817 -0.964782 0)
(-19.7732 -0.00515959 0)
(-14.3649 -0.00113417 0)
(-12.0602 -0.000543122 0)
(-10.6652 -0.000346412 0)
(-9.69488 -0.000245322 0)
(-8.98615 -0.000174768 0)
(-8.49603 -0.000104942 0)
(-8.26525 -1.2633e-05 0)
(-8.41161 0.000165568 0)
(-9.41438 0.000322406 0)
(-10.6448 0.000300387 0)
(-11.4953 0.000190379 0)
(-11.967 0.000103618 0)
(-12.2172 5.42711e-05 0)
(-12.3461 2.5915e-05 0)
(-12.3986 7.38935e-06 0)
(-12.398 -5.25317e-06 0)
(-12.3617 -1.32919e-05 0)
(-12.3042 -1.82618e-05 0)
(-12.2325 -2.1273e-05 0)
(-12.1535 -2.27159e-05 0)
(-12.0712 -2.3219e-05 0)
(-11.9881 -2.31545e-05 0)
(-11.9059 -2.27783e-05 0)
(-11.8251 -2.22405e-05 0)
(-11.7464 -2.15952e-05 0)
(-11.6698 -2.08962e-05 0)
(-11.5957 -2.01945e-05 0)
(-11.5239 -1.9514e-05 0)
(-11.4543 -1.88672e-05 0)
(-11.3868 -1.82553e-05 0)
(-11.3213 -1.76856e-05 0)
(-11.2576 -1.717e-05 0)
(-11.1956 -1.66897e-05 0)
(-11.1351 -1.62177e-05 0)
(-11.0762 -1.57692e-05 0)
(-11.0188 -1.53431e-05 0)
(-10.9628 -1.49424e-05 0)
(-10.908 -1.45589e-05 0)
(-10.8546 -1.41946e-05 0)
(-10.8023 -1.38436e-05 0)
(-10.7512 -1.35075e-05 0)
(-10.7012 -1.31843e-05 0)
(-10.6523 -1.28807e-05 0)
(-10.6043 -1.26013e-05 0)
(-10.5573 -1.23321e-05 0)
(-10.5112 -1.20667e-05 0)
(-10.466 -1.1808e-05 0)
(-10.4216 -1.15547e-05 0)
(-10.3781 -1.13048e-05 0)
(-10.3354 -1.10615e-05 0)
(-10.2936 -1.08228e-05 0)
(-10.2525 -1.05885e-05 0)
(-10.2123 -1.03614e-05 0)
(-10.1728 -1.0139e-05 0)
(-10.1342 -9.92199e-06 0)
(-10.0961 -9.71212e-06 0)
(-10.0589 -9.50638e-06 0)
(-10.0223 -9.30726e-06 0)
(-9.9865 -9.11406e-06 0)
(-9.95124 -8.9316e-06 0)
(-9.91667 -8.75356e-06 0)
(-9.88265 -8.57859e-06 0)
(-9.8493 -8.40268e-06 0)
(-9.81651 -8.23391e-06 0)
(-9.78433 -8.0679e-06 0)
(-9.7527 -7.90828e-06 0)
(-9.72165 -7.75188e-06 0)
(-9.69111 -7.60069e-06 0)
(-9.66112 -7.45287e-06 0)
(-9.63162 -7.31024e-06 0)
(-9.60263 -7.17031e-06 0)
(-9.57412 -7.03527e-06 0)
(-9.54608 -6.90309e-06 0)
(-9.51851 -6.77438e-06 0)
(-9.49138 -6.64985e-06 0)
(-9.46469 -6.52715e-06 0)
(-9.43843 -6.40943e-06 0)
(-9.41257 -6.29289e-06 0)
(-9.38714 -6.18152e-06 0)
(-9.36207 -6.071e-06 0)
(-9.33743 -5.96498e-06 0)
(-9.31311 -5.86028e-06 0)
(-9.28921 -5.75916e-06 0)
(-9.26562 -5.66012e-06 0)
(-9.24243 -5.56485e-06 0)
(-9.21952 -5.47546e-06 0)
(-9.19697 -5.38506e-06 0)
(-9.1747 -5.29719e-06 0)
(-9.15278 -5.20781e-06 0)
(-9.13115 -5.12383e-06 0)
(-9.10983 -5.03996e-06 0)
(-9.08881 -4.95878e-06 0)
(-9.06808 -4.87925e-06 0)
(-9.04763 -4.80177e-06 0)
(-9.02745 -4.72654e-06 0)
(-9.00755 -4.65202e-06 0)
(-8.98791 -4.57902e-06 0)
(-8.96854 -4.50916e-06 0)
(-8.94941 -4.4395e-06 0)
(-8.93054 -4.37077e-06 0)
(-8.91191 -4.30607e-06 0)
(-8.89351 -4.23963e-06 0)
(-8.87537 -4.17717e-06 0)
(-8.85743 -4.11465e-06 0)
(-8.83974 -4.05421e-06 0)
(-8.82223 -3.99552e-06 0)
(-8.80497 -3.93802e-06 0)
(-8.78789 -3.88122e-06 0)
(-8.77105 -3.82592e-06 0)
(-8.75437 -3.77209e-06 0)
(-8.73792 -3.71794e-06 0)
(-8.72165 -3.66546e-06 0)
(-8.70558 -3.61476e-06 0)
(-8.68968 -3.56443e-06 0)
(-8.67399 -3.51465e-06 0)
(-8.65845 -3.46806e-06 0)
(-8.6431 -3.42022e-06 0)
(-8.62792 -3.37299e-06 0)
(-8.61292 -3.32763e-06 0)
(-8.59807 -3.28299e-06 0)
(-8.58341 -3.23812e-06 0)
(-8.5689 -3.19579e-06 0)
(-8.55454 -3.15412e-06 0)
(-8.54035 -3.11197e-06 0)
(-8.52631 -3.07074e-06 0)
(-8.51242 -3.03127e-06 0)
(-8.49867 -2.993e-06 0)
(-8.48507 -2.95608e-06 0)
(-8.4716 -2.91806e-06 0)
(-8.45828 -2.88249e-06 0)
(-8.44508 -2.84502e-06 0)
(-8.43204 -2.80965e-06 0)
(-8.4191 -2.77411e-06 0)
(-8.40633 -2.73959e-06 0)
(-8.39365 -2.70395e-06 0)
(-8.38116 -2.67091e-06 0)
(-8.36873 -2.63734e-06 0)
(-8.35649 -2.60537e-06 0)
(-8.34431 -2.57293e-06 0)
(-8.33231 -2.54141e-06 0)
(-8.32037 -2.51161e-06 0)
(-8.3086 -2.48046e-06 0)
(-8.29689 -2.45106e-06 0)
(-8.28535 -2.42198e-06 0)
(-8.27387 -2.39526e-06 0)
(-8.26252 -2.36695e-06 0)
(-8.25125 -2.34003e-06 0)
(-8.24012 -2.31248e-06 0)
(-8.22906 -2.28635e-06 0)
(-8.21812 -2.26031e-06 0)
(-8.20726 -2.23441e-06 0)
(-8.19653 -2.20977e-06 0)
(-8.18586 -2.18556e-06 0)
(-8.1753 -2.16107e-06 0)
(-8.16482 -2.13563e-06 0)
(-8.15447 -2.11076e-06 0)
(-8.14418 -2.08638e-06 0)
(-8.13402 -2.06268e-06 0)
(-8.12392 -2.03856e-06 0)
(-8.11394 -2.01603e-06 0)
(-8.10402 -1.99448e-06 0)
(-8.09421 -1.97139e-06 0)
(-8.08447 -1.95071e-06 0)
(-8.07482 -1.92831e-06 0)
(-8.06526 -1.90618e-06 0)
(-8.05579 -1.88377e-06 0)
(-8.0464 -1.8629e-06 0)
(-8.0371 -1.84193e-06 0)
(-8.02788 -1.82199e-06 0)
(-8.01873 -1.80394e-06 0)
(-8.00965 -1.7854e-06 0)
(-8.00115 -1.77361e-06 0)
(-7.99312 -1.76498e-06 0)
(-7.98506 -1.74995e-06 0)
(-7.97699 -1.73556e-06 0)
(-7.96889 -1.72088e-06 0)
(-7.96078 -1.70372e-06 0)
(-7.95267 -1.68667e-06 0)
(-7.94455 -1.66877e-06 0)
(-7.93643 -1.65042e-06 0)
(-7.92832 -1.63364e-06 0)
(-7.92019 -1.61626e-06 0)
(-7.91208 -1.59835e-06 0)
(-7.90396 -1.58066e-06 0)
(-7.89585 -1.56129e-06 0)
(-7.88776 -1.54115e-06 0)
(-7.87969 -1.52228e-06 0)
(-7.87162 -1.50248e-06 0)
(-7.86358 -1.48361e-06 0)
(-7.85555 -1.46572e-06 0)
(-7.84754 -1.44722e-06 0)
(-7.83953 -1.42893e-06 0)
(-7.83155 -1.41165e-06 0)
(-7.82357 -1.39354e-06 0)
(-7.81562 -1.37604e-06 0)
(-7.80767 -1.35921e-06 0)
(-7.79975 -1.34148e-06 0)
(-7.79183 -1.32504e-06 0)
(-7.78393 -1.3094e-06 0)
(-7.77603 -1.29301e-06 0)
(-7.76816 -1.2774e-06 0)
(-7.76028 -1.2621e-06 0)
(-7.75243 -1.24598e-06 0)
(-7.74459 -1.23147e-06 0)
(-7.73675 -1.21578e-06 0)
(-7.72894 -1.20211e-06 0)
(-7.72111 -1.18702e-06 0)
(-7.71332 -1.17215e-06 0)
(-7.70552 -1.15941e-06 0)
(-7.69774 -1.14592e-06 0)
(-7.68995 -1.13151e-06 0)
(-7.68219 -1.11901e-06 0)
(-7.67441 -1.10315e-06 0)
(-7.66671 -1.08808e-06 0)
(-7.65897 -1.07514e-06 0)
(-7.65129 -1.05882e-06 0)
(-7.64362 -1.04715e-06 0)
(-7.63594 -1.03451e-06 0)
(-7.6283 -1.02182e-06 0)
(-7.62064 -1.00791e-06 0)
(-7.61304 -9.93207e-07 0)
(-7.60544 -9.79641e-07 0)
(-7.59789 -9.64812e-07 0)
(-7.59036 -9.49314e-07 0)
(-7.58289 -9.34492e-07 0)
(-7.57544 -9.1899e-07 0)
(-7.56805 -9.05185e-07 0)
(-7.56066 -8.93548e-07 0)
(-7.55331 -8.79555e-07 0)
(-7.546 -8.67091e-07 0)
(-7.5387 -8.55003e-07 0)
(-7.53143 -8.42961e-07 0)
(-7.52418 -8.3118e-07 0)
(-7.51696 -8.20949e-07 0)
(-7.50973 -8.07413e-07 0)
(-7.50259 -7.95815e-07 0)
(-7.49541 -7.83719e-07 0)
(-7.48835 -7.6928e-07 0)
(-7.48128 -7.59489e-07 0)
(-7.47424 -7.48285e-07 0)
(-7.46723 -7.36398e-07 0)
(-7.46026 -7.24306e-07 0)
(-7.45333 -7.13048e-07 0)
(-7.44644 -7.00125e-07 0)
(-7.43961 -6.88289e-07 0)
(-7.4328 -6.76646e-07 0)
(-7.42606 -6.65497e-07 0)
(-7.41933 -6.54216e-07 0)
(-7.41268 -6.42847e-07 0)
(-7.40603 -6.33933e-07 0)
(-7.39942 -6.22638e-07 0)
(-7.39287 -6.12697e-07 0)
(-7.38633 -6.03461e-07 0)
(-7.37984 -5.94007e-07 0)
(-7.37337 -5.82866e-07 0)
(-7.36698 -5.71776e-07 0)
(-7.36062 -5.62519e-07 0)
(-7.3543 -5.51943e-07 0)
(-7.34804 -5.44165e-07 0)
(-7.34177 -5.35726e-07 0)
(-7.33557 -5.28087e-07 0)
(-7.32934 -5.22293e-07 0)
(-7.32314 -5.12861e-07 0)
(-7.317 -5.04099e-07 0)
(-7.31088 -4.969e-07 0)
(-7.30478 -4.88414e-07 0)
(-7.29874 -4.80978e-07 0)
(-7.2927 -4.74419e-07 0)
(-7.2867 -4.66369e-07 0)
(-7.28073 -4.58984e-07 0)
(-7.27479 -4.49957e-07 0)
(-7.26894 -4.39426e-07 0)
(-7.26315 -4.30776e-07 0)
(-7.2574 -4.24732e-07 0)
(-7.25165 -4.1668e-07 0)
(-7.246 -4.09141e-07 0)
(-7.24032 -4.05383e-07 0)
(-7.23465 -3.9826e-07 0)
(-7.22906 -3.91081e-07 0)
(-7.22347 -3.87166e-07 0)
(-7.21787 -3.80961e-07 0)
(-7.21235 -3.75865e-07 0)
(-7.20677 -3.71328e-07 0)
(-7.20126 -3.64026e-07 0)
(-7.19579 -3.58721e-07 0)
(-7.19032 -3.53904e-07 0)
(-7.18488 -3.46939e-07 0)
(-7.17951 -3.42585e-07 0)
(-7.17408 -3.3654e-07 0)
(-7.16879 -3.30292e-07 0)
(-7.16345 -3.26077e-07 0)
(-7.15818 -3.20011e-07 0)
(-7.15292 -3.14478e-07 0)
(-7.14772 -3.10387e-07 0)
(-7.14249 -3.06971e-07 0)
(-7.13729 -3.02009e-07 0)
(-7.13211 -2.98816e-07 0)
(-7.1269 -2.96087e-07 0)
(-7.12171 -2.91216e-07 0)
(-7.11657 -2.86855e-07 0)
(-7.11142 -2.83327e-07 0)
(-7.10629 -2.7875e-07 0)
(-7.10119 -2.7567e-07 0)
(-7.09607 -2.71482e-07 0)
(-7.09102 -2.68007e-07 0)
(-7.08592 -2.66902e-07 0)
(-7.0808 -2.62569e-07 0)
(-7.07575 -2.57397e-07 0)
(-7.07073 -2.53841e-07 0)
(-7.06571 -2.48841e-07 0)
(-7.06078 -2.44585e-07 0)
(-7.05582 -2.42184e-07 0)
(-7.05088 -2.37821e-07 0)
(-7.046 -2.34498e-07 0)
(-7.04109 -2.32377e-07 0)
(-7.03619 -2.27934e-07 0)
(-7.03136 -2.23844e-07 0)
(-7.02654 -2.2074e-07 0)
(-7.02174 -2.16038e-07 0)
(-7.01702 -2.12432e-07 0)
(-7.01228 -2.10132e-07 0)
(-7.00755 -2.06437e-07 0)
(-7.00288 -2.0362e-07 0)
(-6.99818 -2.01912e-07 0)
(-6.99348 -1.98553e-07 0)
(-6.98884 -1.9594e-07 0)
(-6.98417 -1.94068e-07 0)
(-6.97951 -1.90864e-07 0)
(-6.97489 -1.88334e-07 0)
(-6.97026 -1.86474e-07 0)
(-6.96563 -1.82985e-07 0)
(-6.96108 -1.80815e-07 0)
(-6.95646 -1.78853e-07 0)
(-6.9519 -1.75739e-07 0)
(-6.94734 -1.73604e-07 0)
(-6.9428 -1.71855e-07 0)
(-6.93824 -1.69026e-07 0)
(-6.93375 -1.6661e-07 0)
(-6.92922 -1.64224e-07 0)
(-6.92476 -1.61868e-07 0)
(-6.92026 -1.60343e-07 0)
(-6.91579 -1.58544e-07 0)
(-6.91129 -1.57709e-07 0)
(-6.90677 -1.5758e-07 0)
(-6.90218 -1.54324e-07 0)
(-6.89776 -1.51775e-07 0)
(-6.89322 -1.48802e-07 0)
(-6.88888 -1.44661e-07 0)
(-6.88449 -1.42062e-07 0)
(-6.88022 -1.38707e-07 0)
(-6.87595 -1.37483e-07 0)
(-6.87165 -1.33868e-07 0)
(-6.86705 -1.28888e-07 0)
(-6.8621 -1.24668e-07 0)
(-6.85735 -1.22339e-07 0)
(-6.85258 -1.20593e-07 0)
(-6.84795 -1.1933e-07 0)
(-6.84328 -1.19356e-07 0)
(-6.83865 -1.18858e-07 0)
(-6.83401 -1.17867e-07 0)
(-6.82946 -1.16865e-07 0)
(-6.8249 -1.15282e-07 0)
(-6.82048 -1.12365e-07 0)
(-6.81615 -1.10008e-07 0)
(-6.81191 -1.0854e-07 0)
(-6.80769 -1.06058e-07 0)
(-6.80364 -1.04385e-07 0)
(-6.79956 -1.03837e-07 0)
(-6.79555 -1.02151e-07 0)
(-6.7916 -1.01387e-07 0)
(-6.78765 -9.95112e-08 0)
(-6.78384 -9.79101e-08 0)
(-6.78002 -9.67519e-08 0)
(-6.77631 -9.47163e-08 0)
(-6.77264 -9.34696e-08 0)
(-6.76903 -9.21879e-08 0)
(-6.76546 -9.102e-08 0)
(-6.76194 -9.01578e-08 0)
(-6.75844 -8.93864e-08 0)
(-6.75497 -8.70092e-08 0)
(-6.75166 -8.57578e-08 0)
(-6.74829 -8.46219e-08 0)
(-6.74507 -8.29301e-08 0)
(-6.74183 -8.24048e-08 0)
(-6.73865 -8.13813e-08 0)
(-6.73549 -8.13608e-08 0)
(-6.73231 -7.99208e-08 0)
(-6.72927 -7.95775e-08 0)
(-6.72611 -7.87939e-08 0)
(-6.72313 -7.6858e-08 0)
(-6.72012 -7.64037e-08 0)
(-6.71718 -7.48901e-08 0)
(-6.71429 -7.43324e-08 0)
(-6.71139 -7.24032e-08 0)
(-6.70865 -7.08083e-08 0)
(-6.70587 -7.01147e-08 0)
(-6.70319 -6.87218e-08 0)
(-6.70052 -6.92272e-08 0)
(-6.6978 -6.93445e-08 0)
(-6.69512 -7.03943e-08 0)
(-6.69231 -7.09532e-08 0)
(-6.68959 -6.98063e-08 0)
(-6.68687 -7.00858e-08 0)
(-6.68412 -6.86445e-08 0)
(-6.68152 -6.8874e-08 0)
(-6.67875 -6.87997e-08 0)
(-6.67616 -6.73786e-08 0)
(-6.6735 -6.68241e-08 0)
(-6.67095 -6.60771e-08 0)
(-6.66836 -6.53739e-08 0)
(-6.66586 -6.32975e-08 0)
(-6.66343 -6.25607e-08 0)
(-6.66099 -6.1782e-08 0)
(-6.65862 -6.01525e-08 0)
(-6.6563 -6.04049e-08 0)
(-6.65391 -6.10014e-08 0)
(-6.65155 -6.03742e-08 0)
(-6.64921 -5.97079e-08 0)
(-6.6469 -5.82378e-08 0)
(-6.64467 -5.6987e-08 0)
(-6.64246 -5.67685e-08 0)
(-6.64025 -5.63174e-08 0)
(-6.63808 -5.5275e-08 0)
(-6.63595 -5.61092e-08 0)
(-6.63371 -5.54365e-08 0)
(-6.63163 -5.54958e-08 0)
(-6.62938 -5.58917e-08 0)
(-6.62727 -5.51708e-08 0)
(-6.62509 -5.53511e-08 0)
(-6.62296 -5.41578e-08 0)
(-6.62087 -5.36851e-08 0)
(-6.61878 -5.25863e-08 0)
(-6.61678 -5.10788e-08 0)
(-6.61481 -5.1377e-08 0)
(-6.61278 -5.1719e-08 0)
(-6.61079 -5.1318e-08 0)
(-6.60878 -5.16491e-08 0)
(-6.60676 -5.10354e-08 0)
(-6.60481 -4.98576e-08 0)
(-6.60288 -5.07207e-08 0)
(-6.60086 -4.85463e-08 0)
(-6.59911 -5.03613e-08 0)
(-6.59693 -4.33147e-08 0)
(-6.59575 -5.74098e-08 0)
(-6.59243 -3.02445e-08 0)
(-6.59347 -4.38218e-08 0)
(-6.58887 -6.15746e-08 0)
)
;
    }
    symmetry
    {
        type            symmetryPlane;
    }
    frontAndBack
    {
        type            empty;
    }
}


// ************************************************************************* //
