/*--------------------------------*- C++ -*----------------------------------*\
| =========                 |                                                 |
| \\      /  F ield         | OpenFOAM: The Open Source CFD Toolbox           |
|  \\    /   O peration     | Version:  v2012                                 |
|   \\  /    A nd           | Website:  www.openfoam.com                      |
|    \\/     M anipulation  |                                                 |
\*---------------------------------------------------------------------------*/
FoamFile
{
    version     2.0;
    format      ascii;
    class       volScalarField;
    location    "43";
    object      nut;
}
// * * * * * * * * * * * * * * * * * * * * * * * * * * * * * * * * * * * * * //

dimensions      [0 2 -1 0 0 0 0];


internalField   nonuniform List<scalar> 
209825
(
1.23964e-07
1.23076e-07
1.22203e-07
1.21299e-07
1.20428e-07
1.19618e-07
1.18915e-07
1.183e-07
1.17789e-07
1.17344e-07
1.1698e-07
1.16658e-07
1.16397e-07
1.16161e-07
1.15972e-07
1.15796e-07
1.15656e-07
1.15523e-07
1.15419e-07
1.15317e-07
1.15238e-07
1.15158e-07
1.15098e-07
1.15035e-07
1.14989e-07
1.14939e-07
1.14902e-07
1.14862e-07
1.14834e-07
1.148e-07
1.14778e-07
1.14751e-07
1.14733e-07
1.14711e-07
1.14697e-07
1.14679e-07
1.14667e-07
1.14652e-07
1.14642e-07
1.1463e-07
1.14622e-07
1.14611e-07
1.14607e-07
1.14597e-07
1.14592e-07
1.14585e-07
1.14582e-07
1.14577e-07
1.14573e-07
1.14568e-07
1.14564e-07
1.14559e-07
1.14555e-07
1.14555e-07
1.1455e-07
1.14552e-07
1.14546e-07
1.14549e-07
1.14544e-07
1.14546e-07
1.14539e-07
1.14539e-07
1.14536e-07
1.14532e-07
1.14531e-07
1.14527e-07
1.14522e-07
1.14518e-07
1.14516e-07
1.14515e-07
1.14513e-07
1.14513e-07
1.14511e-07
1.14511e-07
1.14511e-07
1.14512e-07
1.14513e-07
1.14516e-07
1.14518e-07
1.14524e-07
1.14532e-07
1.14542e-07
1.14549e-07
1.1456e-07
1.14561e-07
1.14572e-07
1.14575e-07
1.14582e-07
1.14587e-07
1.14594e-07
1.146e-07
1.14597e-07
1.14625e-07
1.15729e-07
1.18758e-07
1.1621e-08
1.23964e-07
1.23076e-07
1.22203e-07
1.21299e-07
1.20428e-07
1.19618e-07
1.18916e-07
1.183e-07
1.17789e-07
1.17344e-07
1.1698e-07
1.16658e-07
1.16397e-07
1.16162e-07
1.15972e-07
1.15796e-07
1.15657e-07
1.15524e-07
1.1542e-07
1.15317e-07
1.15238e-07
1.15158e-07
1.15098e-07
1.15035e-07
1.14989e-07
1.14939e-07
1.14902e-07
1.14862e-07
1.14834e-07
1.14801e-07
1.14779e-07
1.14751e-07
1.14733e-07
1.14711e-07
1.14698e-07
1.14679e-07
1.14667e-07
1.14652e-07
1.14643e-07
1.1463e-07
1.14622e-07
1.14612e-07
1.14607e-07
1.14598e-07
1.14592e-07
1.14586e-07
1.14582e-07
1.14577e-07
1.14573e-07
1.14569e-07
1.14564e-07
1.1456e-07
1.14556e-07
1.14555e-07
1.1455e-07
1.14552e-07
1.14546e-07
1.14549e-07
1.14545e-07
1.14546e-07
1.14539e-07
1.14539e-07
1.14536e-07
1.14532e-07
1.14531e-07
1.14527e-07
1.14522e-07
1.14519e-07
1.14516e-07
1.14515e-07
1.14513e-07
1.14513e-07
1.14512e-07
1.14512e-07
1.14511e-07
1.14512e-07
1.14514e-07
1.14516e-07
1.14518e-07
1.14524e-07
1.14532e-07
1.14542e-07
1.1455e-07
1.14561e-07
1.14562e-07
1.14572e-07
1.14575e-07
1.14582e-07
1.14588e-07
1.14595e-07
1.146e-07
1.14597e-07
1.14625e-07
1.15731e-07
1.18759e-07
1.19766e-08
1.23964e-07
1.23076e-07
1.22203e-07
1.21299e-07
1.20428e-07
1.19618e-07
1.18916e-07
1.183e-07
1.17789e-07
1.17344e-07
1.1698e-07
1.16658e-07
1.16397e-07
1.16161e-07
1.15971e-07
1.15796e-07
1.15656e-07
1.15523e-07
1.15419e-07
1.15316e-07
1.15237e-07
1.15157e-07
1.15097e-07
1.15034e-07
1.14988e-07
1.14938e-07
1.14901e-07
1.14861e-07
1.14833e-07
1.14799e-07
1.14777e-07
1.1475e-07
1.14732e-07
1.1471e-07
1.14696e-07
1.14678e-07
1.14666e-07
1.14651e-07
1.14641e-07
1.14629e-07
1.14621e-07
1.1461e-07
1.14606e-07
1.14596e-07
1.14591e-07
1.14584e-07
1.14581e-07
1.14576e-07
1.14572e-07
1.14567e-07
1.14563e-07
1.14558e-07
1.14554e-07
1.14554e-07
1.14549e-07
1.1455e-07
1.14545e-07
1.14548e-07
1.14543e-07
1.14545e-07
1.14538e-07
1.14538e-07
1.14535e-07
1.14531e-07
1.1453e-07
1.14526e-07
1.14521e-07
1.14517e-07
1.14515e-07
1.14513e-07
1.14512e-07
1.14512e-07
1.1451e-07
1.1451e-07
1.14509e-07
1.14511e-07
1.14512e-07
1.14515e-07
1.14516e-07
1.14522e-07
1.1453e-07
1.14541e-07
1.14548e-07
1.14559e-07
1.1456e-07
1.14571e-07
1.14574e-07
1.14581e-07
1.14586e-07
1.14593e-07
1.14599e-07
1.14596e-07
1.14624e-07
1.15734e-07
1.18759e-07
1.24182e-08
1.23964e-07
1.23076e-07
1.22204e-07
1.21299e-07
1.20429e-07
1.19618e-07
1.18916e-07
1.183e-07
1.17789e-07
1.17344e-07
1.1698e-07
1.16658e-07
1.16396e-07
1.1616e-07
1.15971e-07
1.15795e-07
1.15655e-07
1.15522e-07
1.15418e-07
1.15315e-07
1.15236e-07
1.15156e-07
1.15096e-07
1.15033e-07
1.14987e-07
1.14936e-07
1.149e-07
1.1486e-07
1.14831e-07
1.14798e-07
1.14776e-07
1.14749e-07
1.14731e-07
1.14708e-07
1.14695e-07
1.14676e-07
1.14664e-07
1.14649e-07
1.1464e-07
1.14627e-07
1.14619e-07
1.14609e-07
1.14604e-07
1.14594e-07
1.14589e-07
1.14583e-07
1.14579e-07
1.14574e-07
1.1457e-07
1.14566e-07
1.14561e-07
1.14557e-07
1.14552e-07
1.14552e-07
1.14547e-07
1.14549e-07
1.14543e-07
1.14546e-07
1.14541e-07
1.14543e-07
1.14536e-07
1.14536e-07
1.14533e-07
1.14529e-07
1.14528e-07
1.14524e-07
1.14519e-07
1.14515e-07
1.14513e-07
1.14512e-07
1.1451e-07
1.1451e-07
1.14508e-07
1.14508e-07
1.14508e-07
1.14509e-07
1.1451e-07
1.14513e-07
1.14514e-07
1.1452e-07
1.14528e-07
1.14538e-07
1.14546e-07
1.14557e-07
1.14558e-07
1.14569e-07
1.14572e-07
1.14579e-07
1.14584e-07
1.14591e-07
1.14597e-07
1.14594e-07
1.14622e-07
1.15739e-07
1.18759e-07
1.29089e-08
1.23964e-07
1.23076e-07
1.22204e-07
1.213e-07
1.20429e-07
1.19619e-07
1.18917e-07
1.18301e-07
1.17789e-07
1.17344e-07
1.16979e-07
1.16657e-07
1.16396e-07
1.1616e-07
1.1597e-07
1.15794e-07
1.15654e-07
1.15521e-07
1.15416e-07
1.15314e-07
1.15235e-07
1.15155e-07
1.15094e-07
1.15031e-07
1.14985e-07
1.14934e-07
1.14898e-07
1.14858e-07
1.14829e-07
1.14796e-07
1.14774e-07
1.14747e-07
1.14729e-07
1.14706e-07
1.14693e-07
1.14674e-07
1.14662e-07
1.14647e-07
1.14638e-07
1.14625e-07
1.14617e-07
1.14607e-07
1.14602e-07
1.14592e-07
1.14587e-07
1.1458e-07
1.14577e-07
1.14572e-07
1.14568e-07
1.14563e-07
1.14559e-07
1.14554e-07
1.1455e-07
1.1455e-07
1.14545e-07
1.14546e-07
1.1454e-07
1.14543e-07
1.14539e-07
1.1454e-07
1.14534e-07
1.14534e-07
1.14531e-07
1.14527e-07
1.14526e-07
1.14522e-07
1.14517e-07
1.14513e-07
1.14511e-07
1.14509e-07
1.14508e-07
1.14507e-07
1.14506e-07
1.14506e-07
1.14505e-07
1.14507e-07
1.14508e-07
1.1451e-07
1.14512e-07
1.14518e-07
1.14526e-07
1.14536e-07
1.14543e-07
1.14555e-07
1.14556e-07
1.14566e-07
1.14569e-07
1.14576e-07
1.14582e-07
1.14589e-07
1.14594e-07
1.14591e-07
1.1462e-07
1.15746e-07
1.1876e-07
1.34412e-08
1.23964e-07
1.23076e-07
1.22204e-07
1.213e-07
1.2043e-07
1.1962e-07
1.18917e-07
1.18301e-07
1.1779e-07
1.17344e-07
1.16979e-07
1.16657e-07
1.16395e-07
1.16159e-07
1.15969e-07
1.15793e-07
1.15653e-07
1.15519e-07
1.15415e-07
1.15312e-07
1.15233e-07
1.15153e-07
1.15093e-07
1.15029e-07
1.14983e-07
1.14932e-07
1.14896e-07
1.14856e-07
1.14827e-07
1.14794e-07
1.14772e-07
1.14744e-07
1.14726e-07
1.14704e-07
1.1469e-07
1.14672e-07
1.1466e-07
1.14644e-07
1.14635e-07
1.14623e-07
1.14614e-07
1.14604e-07
1.14599e-07
1.1459e-07
1.14584e-07
1.14578e-07
1.14574e-07
1.14569e-07
1.14565e-07
1.14561e-07
1.14556e-07
1.14552e-07
1.14547e-07
1.14547e-07
1.14542e-07
1.14544e-07
1.14538e-07
1.14541e-07
1.14536e-07
1.14538e-07
1.14531e-07
1.14531e-07
1.14528e-07
1.14524e-07
1.14523e-07
1.14519e-07
1.14514e-07
1.1451e-07
1.14508e-07
1.14506e-07
1.14505e-07
1.14504e-07
1.14503e-07
1.14503e-07
1.14502e-07
1.14504e-07
1.14505e-07
1.14508e-07
1.14509e-07
1.14515e-07
1.14523e-07
1.14533e-07
1.1454e-07
1.14551e-07
1.14553e-07
1.14563e-07
1.14566e-07
1.14573e-07
1.14579e-07
1.14586e-07
1.14591e-07
1.14588e-07
1.14617e-07
1.15755e-07
1.18761e-07
1.40138e-08
1.23964e-07
1.23076e-07
1.22204e-07
1.21301e-07
1.20431e-07
1.19621e-07
1.18918e-07
1.18302e-07
1.1779e-07
1.17344e-07
1.16979e-07
1.16657e-07
1.16395e-07
1.16158e-07
1.15968e-07
1.15792e-07
1.15651e-07
1.15518e-07
1.15413e-07
1.1531e-07
1.15231e-07
1.15151e-07
1.1509e-07
1.15027e-07
1.1498e-07
1.1493e-07
1.14893e-07
1.14853e-07
1.14824e-07
1.14791e-07
1.14769e-07
1.14741e-07
1.14723e-07
1.14701e-07
1.14687e-07
1.14669e-07
1.14657e-07
1.14641e-07
1.14632e-07
1.1462e-07
1.14611e-07
1.14601e-07
1.14596e-07
1.14587e-07
1.14581e-07
1.14575e-07
1.14571e-07
1.14566e-07
1.14562e-07
1.14557e-07
1.14553e-07
1.14548e-07
1.14544e-07
1.14544e-07
1.14539e-07
1.1454e-07
1.14534e-07
1.14537e-07
1.14533e-07
1.14534e-07
1.14528e-07
1.14528e-07
1.14525e-07
1.14521e-07
1.1452e-07
1.14516e-07
1.14511e-07
1.14507e-07
1.14504e-07
1.14503e-07
1.14502e-07
1.14501e-07
1.145e-07
1.145e-07
1.14499e-07
1.14501e-07
1.14502e-07
1.14504e-07
1.14506e-07
1.14512e-07
1.14519e-07
1.14529e-07
1.14537e-07
1.14548e-07
1.14549e-07
1.1456e-07
1.14562e-07
1.1457e-07
1.14575e-07
1.14582e-07
1.14588e-07
1.14585e-07
1.14614e-07
1.15767e-07
1.18763e-07
1.46271e-08
1.23964e-07
1.23076e-07
1.22204e-07
1.21302e-07
1.20432e-07
1.19622e-07
1.18919e-07
1.18303e-07
1.17791e-07
1.17345e-07
1.16979e-07
1.16656e-07
1.16394e-07
1.16157e-07
1.15967e-07
1.1579e-07
1.1565e-07
1.15516e-07
1.15411e-07
1.15308e-07
1.15229e-07
1.15148e-07
1.15088e-07
1.15025e-07
1.14978e-07
1.14927e-07
1.14891e-07
1.1485e-07
1.14822e-07
1.14788e-07
1.14766e-07
1.14738e-07
1.1472e-07
1.14698e-07
1.14684e-07
1.14666e-07
1.14654e-07
1.14638e-07
1.14629e-07
1.14616e-07
1.14608e-07
1.14597e-07
1.14592e-07
1.14583e-07
1.14578e-07
1.14571e-07
1.14567e-07
1.14562e-07
1.14558e-07
1.14554e-07
1.14549e-07
1.14545e-07
1.14541e-07
1.1454e-07
1.14535e-07
1.14537e-07
1.14531e-07
1.14534e-07
1.14529e-07
1.14531e-07
1.14524e-07
1.14524e-07
1.14521e-07
1.14517e-07
1.14516e-07
1.14512e-07
1.14507e-07
1.14503e-07
1.14501e-07
1.14499e-07
1.14498e-07
1.14497e-07
1.14496e-07
1.14496e-07
1.14495e-07
1.14497e-07
1.14498e-07
1.145e-07
1.14502e-07
1.14508e-07
1.14515e-07
1.14525e-07
1.14533e-07
1.14544e-07
1.14545e-07
1.14556e-07
1.14558e-07
1.14566e-07
1.14571e-07
1.14578e-07
1.14583e-07
1.14581e-07
1.1461e-07
1.15782e-07
1.18765e-07
1.52816e-08
1.23964e-07
1.23076e-07
1.22205e-07
1.21303e-07
1.20433e-07
1.19624e-07
1.18921e-07
1.18304e-07
1.17792e-07
1.17345e-07
1.16979e-07
1.16656e-07
1.16394e-07
1.16156e-07
1.15966e-07
1.15789e-07
1.15648e-07
1.15514e-07
1.15409e-07
1.15306e-07
1.15226e-07
1.15146e-07
1.15085e-07
1.15022e-07
1.14975e-07
1.14924e-07
1.14888e-07
1.14847e-07
1.14818e-07
1.14785e-07
1.14762e-07
1.14735e-07
1.14717e-07
1.14694e-07
1.1468e-07
1.14662e-07
1.1465e-07
1.14634e-07
1.14625e-07
1.14612e-07
1.14604e-07
1.14593e-07
1.14588e-07
1.14579e-07
1.14574e-07
1.14567e-07
1.14563e-07
1.14558e-07
1.14554e-07
1.1455e-07
1.14545e-07
1.14541e-07
1.14536e-07
1.14536e-07
1.14531e-07
1.14533e-07
1.14527e-07
1.14529e-07
1.14525e-07
1.14527e-07
1.1452e-07
1.1452e-07
1.14517e-07
1.14513e-07
1.14512e-07
1.14508e-07
1.14503e-07
1.14499e-07
1.14497e-07
1.14495e-07
1.14494e-07
1.14493e-07
1.14492e-07
1.14492e-07
1.14491e-07
1.14493e-07
1.14494e-07
1.14496e-07
1.14498e-07
1.14503e-07
1.14511e-07
1.1452e-07
1.14528e-07
1.14539e-07
1.14541e-07
1.14551e-07
1.14554e-07
1.14561e-07
1.14566e-07
1.14574e-07
1.14579e-07
1.14576e-07
1.14606e-07
1.15799e-07
1.18767e-07
1.59781e-08
1.23964e-07
1.23076e-07
1.22205e-07
1.21304e-07
1.20435e-07
1.19625e-07
1.18922e-07
1.18306e-07
1.17793e-07
1.17346e-07
1.1698e-07
1.16656e-07
1.16393e-07
1.16155e-07
1.15964e-07
1.15787e-07
1.15646e-07
1.15512e-07
1.15407e-07
1.15303e-07
1.15224e-07
1.15143e-07
1.15082e-07
1.15019e-07
1.14972e-07
1.14921e-07
1.14884e-07
1.14843e-07
1.14815e-07
1.14781e-07
1.14758e-07
1.14731e-07
1.14713e-07
1.1469e-07
1.14676e-07
1.14658e-07
1.14646e-07
1.1463e-07
1.14621e-07
1.14608e-07
1.146e-07
1.14589e-07
1.14584e-07
1.14575e-07
1.14569e-07
1.14563e-07
1.14559e-07
1.14554e-07
1.1455e-07
1.14545e-07
1.14541e-07
1.14536e-07
1.14532e-07
1.14531e-07
1.14526e-07
1.14528e-07
1.14522e-07
1.14525e-07
1.1452e-07
1.14522e-07
1.14515e-07
1.14515e-07
1.14512e-07
1.14508e-07
1.14507e-07
1.14503e-07
1.14498e-07
1.14494e-07
1.14492e-07
1.14491e-07
1.14489e-07
1.14489e-07
1.14487e-07
1.14487e-07
1.14486e-07
1.14488e-07
1.14489e-07
1.14491e-07
1.14493e-07
1.14498e-07
1.14506e-07
1.14515e-07
1.14523e-07
1.14534e-07
1.14535e-07
1.14546e-07
1.14548e-07
1.14556e-07
1.14561e-07
1.14568e-07
1.14574e-07
1.14571e-07
1.14601e-07
1.1582e-07
1.18769e-07
1.67165e-08
1.23964e-07
1.23076e-07
1.22206e-07
1.21305e-07
1.20437e-07
1.19627e-07
1.18924e-07
1.18307e-07
1.17794e-07
1.17346e-07
1.1698e-07
1.16656e-07
1.16392e-07
1.16154e-07
1.15963e-07
1.15785e-07
1.15644e-07
1.1551e-07
1.15404e-07
1.15301e-07
1.15221e-07
1.1514e-07
1.15079e-07
1.15015e-07
1.14968e-07
1.14917e-07
1.1488e-07
1.14839e-07
1.1481e-07
1.14777e-07
1.14754e-07
1.14727e-07
1.14708e-07
1.14686e-07
1.14672e-07
1.14653e-07
1.14641e-07
1.14625e-07
1.14616e-07
1.14603e-07
1.14595e-07
1.14584e-07
1.14579e-07
1.1457e-07
1.14565e-07
1.14558e-07
1.14554e-07
1.14549e-07
1.14545e-07
1.1454e-07
1.14536e-07
1.14531e-07
1.14527e-07
1.14526e-07
1.14521e-07
1.14523e-07
1.14517e-07
1.1452e-07
1.14515e-07
1.14517e-07
1.1451e-07
1.1451e-07
1.14507e-07
1.14503e-07
1.14502e-07
1.14498e-07
1.14493e-07
1.14489e-07
1.14487e-07
1.14485e-07
1.14484e-07
1.14483e-07
1.14482e-07
1.14482e-07
1.14481e-07
1.14483e-07
1.14484e-07
1.14486e-07
1.14488e-07
1.14493e-07
1.145e-07
1.14509e-07
1.14517e-07
1.14528e-07
1.1453e-07
1.14541e-07
1.14543e-07
1.1455e-07
1.14555e-07
1.14563e-07
1.14568e-07
1.14566e-07
1.14596e-07
1.15844e-07
1.18772e-07
1.74959e-08
1.23964e-07
1.23076e-07
1.22206e-07
1.21306e-07
1.20439e-07
1.19629e-07
1.18927e-07
1.18309e-07
1.17795e-07
1.17347e-07
1.1698e-07
1.16656e-07
1.16392e-07
1.16153e-07
1.15962e-07
1.15784e-07
1.15642e-07
1.15507e-07
1.15402e-07
1.15298e-07
1.15218e-07
1.15136e-07
1.15075e-07
1.15011e-07
1.14964e-07
1.14913e-07
1.14876e-07
1.14835e-07
1.14806e-07
1.14772e-07
1.1475e-07
1.14722e-07
1.14704e-07
1.14681e-07
1.14667e-07
1.14648e-07
1.14636e-07
1.1462e-07
1.14611e-07
1.14598e-07
1.1459e-07
1.14579e-07
1.14574e-07
1.14564e-07
1.14559e-07
1.14552e-07
1.14549e-07
1.14544e-07
1.14539e-07
1.14535e-07
1.1453e-07
1.14526e-07
1.14521e-07
1.14521e-07
1.14516e-07
1.14517e-07
1.14511e-07
1.14514e-07
1.1451e-07
1.14511e-07
1.14505e-07
1.14504e-07
1.14501e-07
1.14498e-07
1.14496e-07
1.14492e-07
1.14487e-07
1.14484e-07
1.14481e-07
1.1448e-07
1.14478e-07
1.14478e-07
1.14476e-07
1.14476e-07
1.14475e-07
1.14477e-07
1.14478e-07
1.1448e-07
1.14482e-07
1.14487e-07
1.14494e-07
1.14503e-07
1.14511e-07
1.14521e-07
1.14524e-07
1.14534e-07
1.14536e-07
1.14544e-07
1.14549e-07
1.14557e-07
1.14561e-07
1.14559e-07
1.14591e-07
1.15871e-07
1.18775e-07
1.83157e-08
1.23964e-07
1.23075e-07
1.22207e-07
1.21308e-07
1.20441e-07
1.19632e-07
1.18929e-07
1.18311e-07
1.17797e-07
1.17348e-07
1.16981e-07
1.16655e-07
1.16391e-07
1.16152e-07
1.1596e-07
1.15782e-07
1.1564e-07
1.15505e-07
1.15399e-07
1.15294e-07
1.15214e-07
1.15133e-07
1.15071e-07
1.15007e-07
1.1496e-07
1.14908e-07
1.14871e-07
1.1483e-07
1.14801e-07
1.14767e-07
1.14745e-07
1.14717e-07
1.14698e-07
1.14676e-07
1.14662e-07
1.14643e-07
1.14631e-07
1.14615e-07
1.14605e-07
1.14593e-07
1.14584e-07
1.14573e-07
1.14568e-07
1.14559e-07
1.14553e-07
1.14546e-07
1.14543e-07
1.14538e-07
1.14533e-07
1.14529e-07
1.14524e-07
1.1452e-07
1.14515e-07
1.14515e-07
1.14509e-07
1.14511e-07
1.14505e-07
1.14508e-07
1.14504e-07
1.14505e-07
1.14498e-07
1.14498e-07
1.14495e-07
1.14491e-07
1.1449e-07
1.14486e-07
1.14481e-07
1.14478e-07
1.14475e-07
1.14474e-07
1.14472e-07
1.14471e-07
1.1447e-07
1.1447e-07
1.14469e-07
1.1447e-07
1.14471e-07
1.14474e-07
1.14476e-07
1.14481e-07
1.14487e-07
1.14496e-07
1.14504e-07
1.14514e-07
1.14517e-07
1.14528e-07
1.1453e-07
1.14538e-07
1.14542e-07
1.1455e-07
1.14555e-07
1.14553e-07
1.14585e-07
1.15902e-07
1.18777e-07
1.91781e-08
1.23963e-07
1.23075e-07
1.22207e-07
1.21309e-07
1.20443e-07
1.19635e-07
1.18932e-07
1.18313e-07
1.17799e-07
1.1735e-07
1.16981e-07
1.16655e-07
1.16391e-07
1.16151e-07
1.15959e-07
1.1578e-07
1.15637e-07
1.15502e-07
1.15396e-07
1.15291e-07
1.1521e-07
1.15129e-07
1.15067e-07
1.15003e-07
1.14955e-07
1.14904e-07
1.14867e-07
1.14825e-07
1.14796e-07
1.14762e-07
1.14739e-07
1.14711e-07
1.14693e-07
1.1467e-07
1.14656e-07
1.14637e-07
1.14625e-07
1.14609e-07
1.14599e-07
1.14586e-07
1.14578e-07
1.14567e-07
1.14562e-07
1.14552e-07
1.14547e-07
1.1454e-07
1.14536e-07
1.14531e-07
1.14527e-07
1.14522e-07
1.14518e-07
1.14513e-07
1.14509e-07
1.14508e-07
1.14503e-07
1.14504e-07
1.14499e-07
1.14501e-07
1.14497e-07
1.14498e-07
1.14492e-07
1.14492e-07
1.14488e-07
1.14485e-07
1.14483e-07
1.14479e-07
1.14475e-07
1.14471e-07
1.14468e-07
1.14467e-07
1.14465e-07
1.14465e-07
1.14463e-07
1.14463e-07
1.14462e-07
1.14464e-07
1.14465e-07
1.14467e-07
1.14469e-07
1.14474e-07
1.1448e-07
1.14489e-07
1.14496e-07
1.14507e-07
1.14509e-07
1.1452e-07
1.14522e-07
1.1453e-07
1.14535e-07
1.14543e-07
1.14547e-07
1.14545e-07
1.14578e-07
1.15936e-07
1.18779e-07
2.00861e-08
1.23963e-07
1.23075e-07
1.22208e-07
1.21311e-07
1.20446e-07
1.19638e-07
1.18934e-07
1.18316e-07
1.17801e-07
1.17351e-07
1.16982e-07
1.16655e-07
1.1639e-07
1.1615e-07
1.15957e-07
1.15777e-07
1.15635e-07
1.15499e-07
1.15392e-07
1.15287e-07
1.15206e-07
1.15124e-07
1.15063e-07
1.14998e-07
1.1495e-07
1.14899e-07
1.14861e-07
1.1482e-07
1.1479e-07
1.14756e-07
1.14733e-07
1.14705e-07
1.14687e-07
1.14664e-07
1.1465e-07
1.14631e-07
1.14618e-07
1.14602e-07
1.14593e-07
1.1458e-07
1.14571e-07
1.1456e-07
1.14555e-07
1.14546e-07
1.1454e-07
1.14533e-07
1.14529e-07
1.14524e-07
1.1452e-07
1.14515e-07
1.14511e-07
1.14506e-07
1.14502e-07
1.14501e-07
1.14496e-07
1.14497e-07
1.14491e-07
1.14494e-07
1.1449e-07
1.14491e-07
1.14485e-07
1.14484e-07
1.14481e-07
1.14477e-07
1.14476e-07
1.14472e-07
1.14467e-07
1.14464e-07
1.14461e-07
1.1446e-07
1.14458e-07
1.14457e-07
1.14456e-07
1.14456e-07
1.14455e-07
1.14456e-07
1.14457e-07
1.1446e-07
1.14461e-07
1.14466e-07
1.14472e-07
1.14481e-07
1.14488e-07
1.14499e-07
1.14501e-07
1.14512e-07
1.14514e-07
1.14522e-07
1.14527e-07
1.14535e-07
1.14539e-07
1.14538e-07
1.14571e-07
1.15975e-07
1.1878e-07
2.10423e-08
1.23963e-07
1.23075e-07
1.22208e-07
1.21313e-07
1.20449e-07
1.19641e-07
1.18938e-07
1.18319e-07
1.17803e-07
1.17352e-07
1.16983e-07
1.16656e-07
1.1639e-07
1.16149e-07
1.15955e-07
1.15775e-07
1.15632e-07
1.15496e-07
1.15389e-07
1.15283e-07
1.15202e-07
1.1512e-07
1.15058e-07
1.14993e-07
1.14945e-07
1.14893e-07
1.14856e-07
1.14814e-07
1.14784e-07
1.1475e-07
1.14727e-07
1.14699e-07
1.1468e-07
1.14657e-07
1.14643e-07
1.14624e-07
1.14611e-07
1.14595e-07
1.14586e-07
1.14573e-07
1.14564e-07
1.14553e-07
1.14548e-07
1.14538e-07
1.14533e-07
1.14526e-07
1.14522e-07
1.14517e-07
1.14512e-07
1.14508e-07
1.14503e-07
1.14499e-07
1.14494e-07
1.14493e-07
1.14488e-07
1.1449e-07
1.14484e-07
1.14486e-07
1.14482e-07
1.14483e-07
1.14477e-07
1.14477e-07
1.14473e-07
1.1447e-07
1.14468e-07
1.14465e-07
1.1446e-07
1.14456e-07
1.14453e-07
1.14452e-07
1.1445e-07
1.1445e-07
1.14448e-07
1.14448e-07
1.14447e-07
1.14448e-07
1.14449e-07
1.14452e-07
1.14454e-07
1.14458e-07
1.14464e-07
1.14472e-07
1.1448e-07
1.1449e-07
1.14493e-07
1.14504e-07
1.14506e-07
1.14514e-07
1.14518e-07
1.14526e-07
1.1453e-07
1.14529e-07
1.14563e-07
1.16018e-07
1.1878e-07
2.20499e-08
1.23963e-07
1.23075e-07
1.22209e-07
1.21315e-07
1.20452e-07
1.19644e-07
1.18941e-07
1.18322e-07
1.17805e-07
1.17354e-07
1.16984e-07
1.16656e-07
1.16389e-07
1.16148e-07
1.15953e-07
1.15773e-07
1.15629e-07
1.15492e-07
1.15385e-07
1.15279e-07
1.15198e-07
1.15115e-07
1.15053e-07
1.14987e-07
1.14939e-07
1.14887e-07
1.14849e-07
1.14808e-07
1.14778e-07
1.14743e-07
1.1472e-07
1.14692e-07
1.14673e-07
1.1465e-07
1.14636e-07
1.14616e-07
1.14604e-07
1.14588e-07
1.14578e-07
1.14565e-07
1.14557e-07
1.14546e-07
1.1454e-07
1.14531e-07
1.14525e-07
1.14518e-07
1.14514e-07
1.14509e-07
1.14504e-07
1.145e-07
1.14495e-07
1.1449e-07
1.14486e-07
1.14485e-07
1.1448e-07
1.14481e-07
1.14475e-07
1.14478e-07
1.14474e-07
1.14475e-07
1.14469e-07
1.14468e-07
1.14465e-07
1.14461e-07
1.1446e-07
1.14456e-07
1.14451e-07
1.14448e-07
1.14445e-07
1.14444e-07
1.14442e-07
1.14441e-07
1.1444e-07
1.1444e-07
1.14439e-07
1.1444e-07
1.14441e-07
1.14443e-07
1.14445e-07
1.14449e-07
1.14455e-07
1.14463e-07
1.1447e-07
1.1448e-07
1.14484e-07
1.14494e-07
1.14496e-07
1.14505e-07
1.14509e-07
1.14517e-07
1.14521e-07
1.1452e-07
1.14555e-07
1.16064e-07
1.18778e-07
2.3112e-08
1.23963e-07
1.23074e-07
1.2221e-07
1.21317e-07
1.20455e-07
1.19648e-07
1.18945e-07
1.18325e-07
1.17808e-07
1.17356e-07
1.16985e-07
1.16656e-07
1.16389e-07
1.16146e-07
1.15952e-07
1.1577e-07
1.15626e-07
1.15489e-07
1.15381e-07
1.15275e-07
1.15193e-07
1.1511e-07
1.15047e-07
1.14982e-07
1.14933e-07
1.14881e-07
1.14843e-07
1.14801e-07
1.14771e-07
1.14736e-07
1.14713e-07
1.14685e-07
1.14666e-07
1.14642e-07
1.14628e-07
1.14609e-07
1.14596e-07
1.1458e-07
1.1457e-07
1.14557e-07
1.14548e-07
1.14537e-07
1.14532e-07
1.14522e-07
1.14517e-07
1.14509e-07
1.14505e-07
1.145e-07
1.14496e-07
1.14491e-07
1.14486e-07
1.14482e-07
1.14477e-07
1.14477e-07
1.14471e-07
1.14473e-07
1.14467e-07
1.14469e-07
1.14465e-07
1.14466e-07
1.1446e-07
1.14459e-07
1.14456e-07
1.14453e-07
1.14451e-07
1.14447e-07
1.14443e-07
1.14439e-07
1.14436e-07
1.14435e-07
1.14433e-07
1.14432e-07
1.14431e-07
1.14431e-07
1.1443e-07
1.14431e-07
1.14432e-07
1.14434e-07
1.14436e-07
1.1444e-07
1.14446e-07
1.14453e-07
1.1446e-07
1.1447e-07
1.14474e-07
1.14484e-07
1.14486e-07
1.14495e-07
1.14499e-07
1.14508e-07
1.14511e-07
1.1451e-07
1.14547e-07
1.16115e-07
1.14171e-07
2.42321e-08
1.23963e-07
1.23074e-07
1.22211e-07
1.21319e-07
1.20458e-07
1.19652e-07
1.18949e-07
1.18328e-07
1.17811e-07
1.17358e-07
1.16986e-07
1.16656e-07
1.16388e-07
1.16145e-07
1.1595e-07
1.15768e-07
1.15623e-07
1.15485e-07
1.15377e-07
1.1527e-07
1.15188e-07
1.15104e-07
1.15042e-07
1.14976e-07
1.14927e-07
1.14874e-07
1.14836e-07
1.14794e-07
1.14764e-07
1.14729e-07
1.14706e-07
1.14677e-07
1.14658e-07
1.14634e-07
1.1462e-07
1.146e-07
1.14588e-07
1.14571e-07
1.14562e-07
1.14549e-07
1.1454e-07
1.14529e-07
1.14523e-07
1.14513e-07
1.14508e-07
1.145e-07
1.14496e-07
1.14491e-07
1.14487e-07
1.14482e-07
1.14477e-07
1.14473e-07
1.14468e-07
1.14467e-07
1.14462e-07
1.14463e-07
1.14457e-07
1.1446e-07
1.14455e-07
1.14457e-07
1.1445e-07
1.1445e-07
1.14447e-07
1.14443e-07
1.14442e-07
1.14438e-07
1.14433e-07
1.1443e-07
1.14427e-07
1.14425e-07
1.14424e-07
1.14423e-07
1.14421e-07
1.14421e-07
1.1442e-07
1.14421e-07
1.14422e-07
1.14424e-07
1.14426e-07
1.1443e-07
1.14436e-07
1.14443e-07
1.1445e-07
1.14459e-07
1.14464e-07
1.14474e-07
1.14476e-07
1.14485e-07
1.14488e-07
1.14497e-07
1.145e-07
1.145e-07
1.14538e-07
1.1617e-07
1.08068e-07
2.54135e-08
1.23962e-07
1.23074e-07
1.22211e-07
1.21321e-07
1.20462e-07
1.19656e-07
1.18953e-07
1.18332e-07
1.17814e-07
1.1736e-07
1.16987e-07
1.16657e-07
1.16388e-07
1.16144e-07
1.15948e-07
1.15765e-07
1.1562e-07
1.15481e-07
1.15372e-07
1.15265e-07
1.15182e-07
1.15098e-07
1.15035e-07
1.14969e-07
1.1492e-07
1.14867e-07
1.14829e-07
1.14786e-07
1.14756e-07
1.14721e-07
1.14698e-07
1.14669e-07
1.1465e-07
1.14626e-07
1.14611e-07
1.14592e-07
1.14579e-07
1.14562e-07
1.14553e-07
1.14539e-07
1.14531e-07
1.14519e-07
1.14514e-07
1.14504e-07
1.14498e-07
1.14491e-07
1.14487e-07
1.14481e-07
1.14477e-07
1.14472e-07
1.14467e-07
1.14463e-07
1.14458e-07
1.14457e-07
1.14452e-07
1.14453e-07
1.14447e-07
1.14449e-07
1.14445e-07
1.14446e-07
1.1444e-07
1.1444e-07
1.14437e-07
1.14433e-07
1.14432e-07
1.14428e-07
1.14423e-07
1.1442e-07
1.14417e-07
1.14415e-07
1.14413e-07
1.14413e-07
1.14411e-07
1.14411e-07
1.1441e-07
1.14411e-07
1.14412e-07
1.14414e-07
1.14416e-07
1.1442e-07
1.14425e-07
1.14432e-07
1.14439e-07
1.14448e-07
1.14452e-07
1.14463e-07
1.14465e-07
1.14474e-07
1.14477e-07
1.14486e-07
1.14489e-07
1.14489e-07
1.14528e-07
1.1623e-07
1.02616e-07
2.66598e-08
1.23962e-07
1.23073e-07
1.22212e-07
1.21324e-07
1.20466e-07
1.19661e-07
1.18957e-07
1.18336e-07
1.17817e-07
1.17362e-07
1.16989e-07
1.16657e-07
1.16387e-07
1.16143e-07
1.15946e-07
1.15762e-07
1.15616e-07
1.15477e-07
1.15368e-07
1.1526e-07
1.15177e-07
1.15092e-07
1.15029e-07
1.14962e-07
1.14913e-07
1.1486e-07
1.14821e-07
1.14778e-07
1.14748e-07
1.14713e-07
1.14689e-07
1.1466e-07
1.14641e-07
1.14617e-07
1.14602e-07
1.14582e-07
1.1457e-07
1.14553e-07
1.14543e-07
1.1453e-07
1.14521e-07
1.14509e-07
1.14504e-07
1.14494e-07
1.14488e-07
1.14481e-07
1.14477e-07
1.14471e-07
1.14467e-07
1.14462e-07
1.14457e-07
1.14452e-07
1.14448e-07
1.14447e-07
1.14441e-07
1.14443e-07
1.14437e-07
1.14439e-07
1.14435e-07
1.14436e-07
1.1443e-07
1.14429e-07
1.14426e-07
1.14422e-07
1.14421e-07
1.14417e-07
1.14413e-07
1.14409e-07
1.14406e-07
1.14404e-07
1.14403e-07
1.14402e-07
1.14401e-07
1.144e-07
1.14399e-07
1.144e-07
1.14401e-07
1.14403e-07
1.14405e-07
1.14409e-07
1.14413e-07
1.1442e-07
1.14427e-07
1.14436e-07
1.14441e-07
1.14451e-07
1.14453e-07
1.14462e-07
1.14465e-07
1.14474e-07
1.14477e-07
1.14477e-07
1.14518e-07
1.16294e-07
9.77425e-08
2.79745e-08
1.23962e-07
1.23073e-07
1.22213e-07
1.21326e-07
1.2047e-07
1.19665e-07
1.18962e-07
1.1834e-07
1.17821e-07
1.17365e-07
1.1699e-07
1.16658e-07
1.16387e-07
1.16141e-07
1.15943e-07
1.15759e-07
1.15613e-07
1.15472e-07
1.15363e-07
1.15254e-07
1.15171e-07
1.15086e-07
1.15022e-07
1.14955e-07
1.14906e-07
1.14852e-07
1.14813e-07
1.1477e-07
1.1474e-07
1.14704e-07
1.1468e-07
1.14651e-07
1.14631e-07
1.14607e-07
1.14592e-07
1.14573e-07
1.1456e-07
1.14543e-07
1.14533e-07
1.14519e-07
1.1451e-07
1.14499e-07
1.14493e-07
1.14483e-07
1.14478e-07
1.1447e-07
1.14466e-07
1.1446e-07
1.14456e-07
1.14451e-07
1.14446e-07
1.14442e-07
1.14437e-07
1.14436e-07
1.1443e-07
1.14431e-07
1.14426e-07
1.14428e-07
1.14423e-07
1.14425e-07
1.14419e-07
1.14418e-07
1.14415e-07
1.14411e-07
1.1441e-07
1.14406e-07
1.14401e-07
1.14398e-07
1.14395e-07
1.14393e-07
1.14391e-07
1.14391e-07
1.14389e-07
1.14389e-07
1.14388e-07
1.14388e-07
1.14389e-07
1.14391e-07
1.14393e-07
1.14397e-07
1.14402e-07
1.14408e-07
1.14415e-07
1.14423e-07
1.14428e-07
1.14438e-07
1.1444e-07
1.1445e-07
1.14453e-07
1.14462e-07
1.14464e-07
1.14465e-07
1.14507e-07
1.16361e-07
9.33834e-08
2.93611e-08
1.23962e-07
1.23073e-07
1.22214e-07
1.21329e-07
1.20474e-07
1.1967e-07
1.18967e-07
1.18345e-07
1.17824e-07
1.17368e-07
1.16992e-07
1.16658e-07
1.16387e-07
1.1614e-07
1.15941e-07
1.15756e-07
1.15609e-07
1.15468e-07
1.15358e-07
1.15248e-07
1.15165e-07
1.15079e-07
1.15015e-07
1.14948e-07
1.14898e-07
1.14844e-07
1.14805e-07
1.14761e-07
1.14731e-07
1.14694e-07
1.14671e-07
1.14641e-07
1.14622e-07
1.14597e-07
1.14582e-07
1.14562e-07
1.14549e-07
1.14532e-07
1.14522e-07
1.14509e-07
1.145e-07
1.14488e-07
1.14482e-07
1.14472e-07
1.14466e-07
1.14459e-07
1.14454e-07
1.14449e-07
1.14444e-07
1.14439e-07
1.14435e-07
1.1443e-07
1.14425e-07
1.14424e-07
1.14419e-07
1.1442e-07
1.14414e-07
1.14416e-07
1.14411e-07
1.14413e-07
1.14407e-07
1.14406e-07
1.14403e-07
1.14399e-07
1.14398e-07
1.14394e-07
1.1439e-07
1.14386e-07
1.14383e-07
1.14381e-07
1.14379e-07
1.14379e-07
1.14377e-07
1.14377e-07
1.14375e-07
1.14376e-07
1.14377e-07
1.14379e-07
1.14381e-07
1.14385e-07
1.14389e-07
1.14395e-07
1.14401e-07
1.14409e-07
1.14415e-07
1.14424e-07
1.14427e-07
1.14437e-07
1.14439e-07
1.14449e-07
1.14451e-07
1.14452e-07
1.14496e-07
1.16431e-07
8.94833e-08
3.08228e-08
1.23962e-07
1.23072e-07
1.22215e-07
1.21332e-07
1.20479e-07
1.19676e-07
1.18973e-07
1.1835e-07
1.17829e-07
1.17371e-07
1.16994e-07
1.16659e-07
1.16386e-07
1.16139e-07
1.15939e-07
1.15753e-07
1.15605e-07
1.15463e-07
1.15352e-07
1.15243e-07
1.15158e-07
1.15072e-07
1.15008e-07
1.1494e-07
1.1489e-07
1.14835e-07
1.14796e-07
1.14752e-07
1.14721e-07
1.14685e-07
1.14661e-07
1.14631e-07
1.14611e-07
1.14587e-07
1.14572e-07
1.14551e-07
1.14538e-07
1.14521e-07
1.14511e-07
1.14497e-07
1.14488e-07
1.14476e-07
1.1447e-07
1.1446e-07
1.14454e-07
1.14447e-07
1.14442e-07
1.14437e-07
1.14432e-07
1.14427e-07
1.14422e-07
1.14418e-07
1.14413e-07
1.14412e-07
1.14406e-07
1.14407e-07
1.14401e-07
1.14403e-07
1.14399e-07
1.144e-07
1.14394e-07
1.14393e-07
1.1439e-07
1.14387e-07
1.14385e-07
1.14382e-07
1.14377e-07
1.14373e-07
1.1437e-07
1.14369e-07
1.14367e-07
1.14366e-07
1.14364e-07
1.14364e-07
1.14363e-07
1.14363e-07
1.14364e-07
1.14366e-07
1.14368e-07
1.14371e-07
1.14376e-07
1.14381e-07
1.14388e-07
1.14395e-07
1.14401e-07
1.1441e-07
1.14413e-07
1.14423e-07
1.14425e-07
1.14435e-07
1.14437e-07
1.14438e-07
1.14484e-07
1.16503e-07
8.59951e-08
3.23622e-08
1.23961e-07
1.23072e-07
1.22216e-07
1.21335e-07
1.20483e-07
1.19681e-07
1.18978e-07
1.18355e-07
1.17833e-07
1.17374e-07
1.16996e-07
1.1666e-07
1.16386e-07
1.16137e-07
1.15937e-07
1.1575e-07
1.15601e-07
1.15458e-07
1.15347e-07
1.15236e-07
1.15152e-07
1.15065e-07
1.15e-07
1.14931e-07
1.14881e-07
1.14826e-07
1.14786e-07
1.14742e-07
1.14711e-07
1.14674e-07
1.1465e-07
1.1462e-07
1.146e-07
1.14576e-07
1.1456e-07
1.1454e-07
1.14527e-07
1.14509e-07
1.14499e-07
1.14485e-07
1.14476e-07
1.14464e-07
1.14458e-07
1.14448e-07
1.14442e-07
1.14434e-07
1.1443e-07
1.14424e-07
1.14419e-07
1.14415e-07
1.1441e-07
1.14405e-07
1.144e-07
1.14399e-07
1.14393e-07
1.14394e-07
1.14388e-07
1.1439e-07
1.14386e-07
1.14387e-07
1.14381e-07
1.1438e-07
1.14377e-07
1.14373e-07
1.14372e-07
1.14368e-07
1.14364e-07
1.1436e-07
1.14357e-07
1.14355e-07
1.14353e-07
1.14353e-07
1.14351e-07
1.1435e-07
1.14349e-07
1.1435e-07
1.1435e-07
1.14352e-07
1.14354e-07
1.14358e-07
1.14362e-07
1.14367e-07
1.14373e-07
1.14381e-07
1.14386e-07
1.14395e-07
1.14399e-07
1.14408e-07
1.14411e-07
1.1442e-07
1.14422e-07
1.14424e-07
1.14472e-07
1.16576e-07
8.28785e-08
3.39814e-08
1.23961e-07
1.23071e-07
1.22217e-07
1.21338e-07
1.20488e-07
1.19687e-07
1.18984e-07
1.1836e-07
1.17837e-07
1.17377e-07
1.16998e-07
1.16661e-07
1.16386e-07
1.16136e-07
1.15934e-07
1.15746e-07
1.15597e-07
1.15453e-07
1.15341e-07
1.1523e-07
1.15144e-07
1.15057e-07
1.14992e-07
1.14923e-07
1.14872e-07
1.14816e-07
1.14777e-07
1.14732e-07
1.14701e-07
1.14664e-07
1.14639e-07
1.14609e-07
1.14589e-07
1.14564e-07
1.14548e-07
1.14528e-07
1.14515e-07
1.14497e-07
1.14487e-07
1.14473e-07
1.14463e-07
1.14451e-07
1.14445e-07
1.14435e-07
1.14429e-07
1.14421e-07
1.14416e-07
1.14411e-07
1.14406e-07
1.14401e-07
1.14396e-07
1.14391e-07
1.14386e-07