/*--------------------------------*- C++ -*----------------------------------*\
| =========                 |                                                 |
| \\      /  F ield         | OpenFOAM: The Open Source CFD Toolbox           |
|  \\    /   O peration     | Version:  v2012                                 |
|   \\  /    A nd           | Website:  www.openfoam.com                      |
|    \\/     M anipulation  |                                                 |
\*---------------------------------------------------------------------------*/
FoamFile
{
    version     2.0;
    format      ascii;
    class       volScalarField;
    location    "43";
    object      yPlus;
}
// * * * * * * * * * * * * * * * * * * * * * * * * * * * * * * * * * * * * * //

dimensions      [0 0 0 0 0 0 0];


internalField   uniform 0;

boundaryField
{
    inlet
    {
        type            calculated;
        value           uniform 0;
    }
    outlet
    {
        type            calculated;
        value           uniform 0;
    }
    topWall
    {
        type            calculated;
        value           nonuniform List<scalar> 
545
(
0.111337
0.191979
0.246291
0.289515
0.326108
0.358129
0.386731
0.412643
0.43636
0.458237
0.478541
0.497478
0.515212
0.531875
0.547578
0.562412
0.576455
0.589774
0.602429
0.61447
0.625941
0.636883
0.647332
0.657319
0.666873
0.676022
0.684789
0.693195
0.701261
0.709005
0.716444
0.723595
0.730471
0.737087
0.743455
0.749587
0.755493
0.761186
0.766673
0.771965
0.777069
0.781995
0.786749
0.791339
0.795772
0.800055
0.804193
0.808192
0.812057
0.815795
0.81941
0.822906
0.826289
0.829563
0.832731
0.835798
0.838767
0.841642
0.844426
0.847123
0.849736
0.852268
0.854721
0.857098
0.859403
0.861637
0.863802
0.865903
0.867939
0.869914
0.87183
0.873689
0.875468
0.87719
0.878898
0.880593
0.882275
0.883943
0.885598
0.88724
0.888869
0.890486
0.89209
0.893682
0.895261
0.896828
0.898383
0.899926
0.901457
0.902977
0.904485
0.905981
0.907466
0.908939
0.910402
0.911853
0.913161
0.91433
0.9155
0.91667
0.917839
0.919009
0.920178
0.921347
0.922516
0.923685
0.924854
0.926022
0.927191
0.928359
0.929527
0.930694
0.931862
0.93303
0.934197
0.935364
0.93653
0.937697
0.938863
0.940029
0.941195
0.942361
0.943526
0.944691
0.945856
0.94702
0.948184
0.949348
0.950512
0.951675
0.952838
0.954001
0.955163
0.956325
0.957486
0.958647
0.959808
0.960969
0.962129
0.963288
0.964447
0.965606
0.966765
0.967923
0.96908
0.970237
0.971394
0.97255
0.973706
0.974861
0.976016
0.97717
0.978324
0.979477
0.98063
0.981782
0.982934
0.984085
0.985236
0.986386
0.987535
0.988684
0.989832
0.99098
0.992127
0.993273
0.994419
0.995564
0.996709
0.997852
0.998996
1.00014
1.00128
1.00242
1.00356
1.0047
1.00584
1.00698
1.00812
1.00925
1.01039
1.01152
1.01266
1.01379
1.01492
1.01606
1.01719
1.01832
1.01945
1.02058
1.0217
1.02283
1.02396
1.02508
1.02621
1.02733
1.02845
1.02957
1.03069
1.03181
1.03293
1.03405
1.03516
1.03628
1.03739
1.03851
1.03962
1.04073
1.04184
1.04295
1.04406
1.04517
1.04627
1.04738
1.04848
1.04958
1.05068
1.05178
1.05288
1.05398
1.05508
1.05617
1.05727
1.05836
1.05945
1.06054
1.06163
1.06272
1.0638
1.06489
1.06597
1.06705
1.06814
1.06921
1.07029
1.07137
1.07245
1.07352
1.07459
1.07566
1.07673
1.0778
1.07887
1.07993
1.081
1.08206
1.08312
1.08418
1.08524
1.08629
1.08735
1.0884
1.08945
1.0905
1.09155
1.09259
1.09364
1.09468
1.09572
1.09676
1.0978
1.09884
1.09987
1.1009
1.10193
1.10296
1.10399
1.10502
1.10604
1.107
1.10791
1.10883
1.10975
1.11068
1.11162
1.11256
1.11351
1.11447
1.11543
1.1164
1.11737
1.11835
1.11934
1.12033
1.12133
1.12234
1.12335
1.12437
1.1254
1.12643
1.12747
1.12851
1.12956
1.13062
1.13168
1.13275
1.13383
1.13491
1.13599
1.13709
1.13819
1.13929
1.1404
1.14152
1.14264
1.14377
1.1449
1.14604
1.14718
1.14833
1.14949
1.15065
1.15181
1.15298
1.15416
1.15534
1.15652
1.15771
1.15891
1.16011
1.16131
1.16252
1.16373
1.16495
1.16617
1.16739
1.16862
1.16985
1.17109
1.17233
1.17357
1.17481
1.17606
1.17731
1.17856
1.17982
1.18108
1.18234
1.1836
1.18487
1.18614
1.1874
1.18867
1.18994
1.19122
1.19249
1.19376
1.19503
1.19631
1.19758
1.19886
1.20013
1.2014
1.20267
1.20394
1.20521
1.20648
1.20775
1.20901
1.21027
1.21153
1.21279
1.21404
1.21529
1.21653
1.21778
1.21901
1.22025
1.22147
1.2227
1.22392
1.22513
1.22633
1.22754
1.22873
1.22992
1.23109
1.23227
1.23343
1.23459
1.23573
1.23687
1.238
1.23912
1.24023
1.24133
1.24242
1.2435
1.24457
1.24562
1.24667
1.2477
1.24872
1.24973
1.25072
1.2517
1.25267
1.25362
1.25455
1.25548
1.25638
1.25727
1.25815
1.25901
1.25985
1.26067
1.26148
1.26227
1.26304
1.26379
1.26453
1.26524
1.26594
1.26662
1.26727
1.26791
1.26853
1.26912
1.2697
1.27025
1.27078
1.27129
1.27178
1.27225
1.27269
1.27311
1.27351
1.27388
1.27423
1.27456
1.27487
1.27515
1.2754
1.27564
1.27584
1.27603
1.27619
1.27632
1.27643
1.27652
1.27658
1.27662
1.27663
1.27662
1.27658
1.27652
1.27643
1.27632
1.27619
1.27603
1.27582
1.27556
1.27527
1.27495
1.2746
1.27423
1.27383
1.2734
1.27296
1.27249
1.272
1.27149
1.27097
1.27042
1.26987
1.26929
1.26871
1.26811
1.2675
1.26687
1.26624
1.2656
1.26495
1.2643
1.26363
1.26297
1.26229
1.26162
1.26093
1.26025
1.25956
1.25887
1.25819
1.2575
1.25681
1.25612
1.25543
1.25475
1.25406
1.25338
1.25271
1.25204
1.25137
1.25071
1.25005
1.2494
1.24875
1.24811
1.24748
1.24686
1.24624
1.24564
1.24504
1.24445
1.24387
1.2433
1.24274
1.24219
1.24165
1.24112
1.2406
1.2401
1.2396
1.23912
1.23865
1.2382
1.23775
1.23732
1.23691
1.2365
1.23612
1.23574
1.23538
1.23504
1.23471
1.23439
1.23409
1.2338
1.23353
1.23328
1.23304
1.23282
1.23261
1.23242
1.23225
1.23209
1.23195
1.23182
1.23172
1.23162
1.23155
1.23149
1.23145
1.23143
1.23141
)
;
    }
    bottomWall
    {
        type            calculated;
        value           nonuniform List<scalar> 
449
(
0.139397
0.0889352
0.0758014
0.0694521
0.0653043
0.0622437
0.0598806
0.0581061
0.0570209
0.0570024
0.0591789
0.0632539
0.0664777
0.0683933
0.0694293
0.069985
0.0702529
0.0703356
0.0702817
0.0701543
0.0699742
0.069762
0.0695331
0.0692971
0.0690595
0.0688237
0.0685913
0.0683641
0.0681428
0.0679279
0.0677194
0.0675173
0.0673215
0.0671318
0.0669481
0.0667698
0.0665968
0.0664289
0.066266
0.0661078
0.0659541
0.0658046
0.0656593
0.0655178
0.06538
0.0652457
0.0651148
0.064987
0.0648624
0.0647404
0.0646208
0.0645033
0.0643879
0.0642744
0.064163
0.0640536
0.0639462
0.0638407
0.0637371
0.0636353
0.0635353
0.0634371
0.0633405
0.0632455
0.0631522
0.0630604
0.06297
0.0628811
0.0627936
0.0627075
0.0626226
0.062539
0.0624566
0.0623754
0.0622954
0.0622165
0.0621388
0.0620621
0.0619865
0.061912
0.0618385
0.061766
0.0616944
0.0616238
0.0615541
0.0614852
0.0614173
0.0613502
0.0612839
0.0612184
0.0611537
0.0610898
0.0610266
0.0609642
0.0609025
0.0608415
0.0607811
0.0607215
0.0606625
0.0606042
0.0605465
0.0604893
0.0604327
0.0603767
0.0603213
0.0602664
0.0602121
0.0601584
0.0601051
0.0600525
0.0600003
0.0599486
0.0598974
0.0598467
0.0597965
0.0597467
0.0596974
0.0596485
0.0596001
0.0595522
0.0595046
0.0594575
0.0594107
0.0593644
0.0593185
0.0592729
0.0592278
0.059183
0.0591386
0.0590945
0.0590508
0.0590075
0.0589645
0.0589218
0.0588795
0.0588375
0.0587958
0.0587544
0.0587134
0.0586726
0.0586322
0.058592
0.0585522
0.0585127
0.0584734
0.0584344
0.0583957
0.0583572
0.0583189
0.058281
0.0582432
0.0582058
0.0581686
0.0581316
0.0580949
0.0580584
0.0580222
0.0579861
0.0579504
0.0579148
0.0578795
0.0578444
0.0578095
0.0577749
0.0577404
0.0577062
0.0576722
0.0576384
0.0576047
0.0575713
0.0575381
0.0575051
0.0574723
0.0574415
0.0574125
0.0573833
0.0573542
0.0573249
0.0572955
0.057266
0.0572364
0.0572067
0.0571769
0.057147
0.057117
0.0570869
0.0570567
0.0570265
0.0569961
0.0569656
0.056935
0.0569044
0.0568736
0.0568428
0.0568118
0.0567808
0.0567497
0.0567184
0.0566871
0.0566557
0.0566242
0.0565927
0.056561
0.0565293
0.0564974
0.0564655
0.0564335
0.0564014
0.0563693
0.056337
0.0563047
0.0562722
0.0562397
0.0562071
0.0561744
0.0561416
0.0561087
0.0560758
0.0560428
0.0560097
0.0559765
0.0559433
0.05591
0.0558766
0.0558431
0.0558096
0.055776
0.0557423
0.0557086
0.0556748
0.0556409
0.0556069
0.0555729
0.0555389
0.0555047
0.0554705
0.0554362
0.0554019
0.0553675
0.0553331
0.0552986
0.055264
0.0552294
0.0551947
0.0551599
0.0551251
0.0550903
0.0550554
0.0550204
0.0549854
0.0549503
0.0549152
0.05488
0.0548448
0.0548096
0.0547743
0.0547389
0.0547035
0.0546681
0.0546326
0.054597
0.0545614
0.0545258
0.0544902
0.0544545
0.0544187
0.054383
0.0543471
0.0543113
0.0542754
0.0542395
0.0542035
0.0541676
0.0541315
0.0540954
0.0540593
0.0540231
0.0539869
0.0539507
0.0539145
0.0538782
0.0538419
0.0538056
0.0537693
0.0537329
0.0536965
0.0536602
0.0536238
0.0535873
0.0535509
0.0535144
0.053478
0.0534415
0.053405
0.0533685
0.053332
0.0532955
0.053259
0.0532225
0.0531859
0.0531494
0.0531129
0.0530764
0.0530398
0.0530033
0.0529668
0.0529302
0.0528937
0.0528572
0.0528207
0.0527842
0.0527477
0.0527112
0.0526747
0.0526383
0.0526018
0.0525654
0.0525289
0.0524925
0.0524561
0.0524198
0.0523834
0.0523471
0.0523107
0.0522744
0.0522382
0.0522019
0.0521657
0.0521295
0.0520933
0.0520571
0.0520209
0.0519847
0.0519486
0.0519125
0.0518764
0.0518404
0.0518043
0.0517684
0.0517324
0.0516965
0.0516606
0.0516248
0.051589
0.0515532
0.0515175
0.0514818
0.0514462
0.0514106
0.051375
0.0513395
0.051304
0.0512686
0.0512332
0.0511939
0.0511511
0.0511089
0.0510673
0.0510263
0.0509858
0.050946
0.0509066
0.0508679
0.0508296
0.0507918
0.0507546
0.0507178
0.0506815
0.0506457
0.0506103
0.0505754
0.0505409
0.0505068
0.0504732
0.0504399
0.0504071
0.0503746
0.0503426
0.0503109
0.0502795
0.0502486
0.050218
0.0501877
0.0501578
0.0501282
0.0500989
0.0500699
0.0500413
0.0500129
0.0499848
0.0499571
0.0499296
0.0499024
0.0498755
0.0498489
0.0498225
0.0497964
0.0497705
0.049745
0.0497196
0.0496945
0.0496696
0.0496451
0.0496206
0.0495965
0.0495726
0.0495489
0.0495254
0.0495021
0.049479
0.0494562
0.0494335
0.0494111
0.0493888
0.0493668
0.0493449
0.0493233
0.0493017
0.0492805
0.0492592
0.0492384
0.0492175
0.049197
0.0491764
0.0491563
0.049136
0.0491162
0.0490962
0.0490767
0.0490569
0.0490378
0.0490183
0.0489995
0.0489803
0.0489618
0.0489427
0.0489245
0.0489057
0.0488878
0.0488692
0.0488514
0.0488332
0.0488149
0.0487982
0.0487773
0.0487663
0.0487352
0.0487416
0.0486992
)
;
    }
    symmetry
    {
        type            symmetryPlane;
    }
    frontAndBack
    {
        type            empty;
    }
}


// ************************************************************************* //
