/*--------------------------------*- C++ -*----------------------------------*\
| =========                 |                                                 |
| \\      /  F ield         | OpenFOAM: The Open Source CFD Toolbox           |
|  \\    /   O peration     | Version:  v2012                                 |
|   \\  /    A nd           | Website:  www.openfoam.com                      |
|    \\/     M anipulation  |                                                 |
\*---------------------------------------------------------------------------*/
FoamFile
{
    version     2.0;
    format      ascii;
    class       volScalarField;
    location    "44.5";
    object      k;
}
// * * * * * * * * * * * * * * * * * * * * * * * * * * * * * * * * * * * * * //

dimensions      [0 2 -2 0 0 0 0];


internalField   nonuniform List<scalar> 
209825
(
0.00102414
0.000931667
0.000855468
0.000793496
0.000743893
0.000704369
0.000672845
0.000647439
0.000626795
0.000609778
0.000595645
0.000583742
0.000573663
0.000565022
0.000557586
0.000551118
0.000545476
0.000540513
0.000536132
0.000532243
0.000528772
0.000525672
0.000522877
0.000520369
0.000518084
0.000516031
0.00051414
0.00051244
0.000510858
0.000509436
0.000508101
0.000506904
0.000505765
0.00050475
0.000503775
0.000502911
0.000502067
0.000501325
0.000500593
0.000499956
0.000499318
0.000498765
0.000498211
0.000497734
0.000497244
0.000496831
0.000496402
0.000496043
0.000495664
0.000495349
0.000495013
0.000494739
0.000494445
0.000494212
0.000493945
0.00049375
0.000493511
0.000493343
0.000493133
0.000492987
0.000492801
0.00049267
0.000492511
0.000492391
0.000492258
0.000492157
0.000492021
0.00049193
0.000491817
0.000491753
0.00049166
0.000491611
0.000491534
0.000491493
0.000491419
0.000491379
0.000491315
0.000491285
0.000491232
0.000491212
0.000491169
0.000491165
0.000491152
0.000491173
0.000491173
0.000491219
0.000491219
0.000491286
0.000491297
0.000491378
0.000491388
0.000491461
0.000491655
0.000499666
0.000525486
0.00128159
0.00102414
0.000931667
0.000855468
0.000793496
0.000743892
0.000704367
0.000672842
0.000647435
0.00062679
0.000609773
0.000595638
0.000583735
0.000573655
0.000565013
0.000557577
0.000551109
0.000545466
0.000540503
0.000536121
0.000532232
0.000528761
0.00052566
0.000522865
0.000520357
0.000518072
0.000516019
0.000514128
0.000512428
0.000510845
0.000509423
0.000508088
0.000506891
0.000505752
0.000504737
0.000503762
0.000502897
0.000502054
0.000501311
0.00050058
0.000499942
0.000499304
0.000498751
0.000498197
0.00049772
0.00049723
0.000496817
0.000496388
0.000496029
0.00049565
0.000495335
0.000494999
0.000494724
0.000494431
0.000494197
0.000493931
0.000493736
0.000493497
0.000493328
0.000493119
0.000492972
0.000492786
0.000492655
0.000492496
0.000492377
0.000492243
0.000492142
0.000492006
0.000491916
0.000491802
0.000491738
0.000491646
0.000491597
0.000491519
0.000491478
0.000491404
0.000491365
0.0004913
0.000491271
0.000491217
0.000491197
0.000491155
0.00049115
0.000491137
0.000491158
0.000491158
0.000491204
0.000491204
0.000491271
0.000491282
0.000491363
0.000491373
0.000491446
0.00049164
0.000499666
0.000525478
0.00128231
0.00102414
0.000931668
0.000855469
0.000793495
0.000743888
0.000704358
0.000672829
0.000647417
0.000626768
0.000609748
0.00059561
0.000583704
0.000573622
0.000564978
0.00055754
0.00055107
0.000545426
0.000540461
0.000536078
0.000532188
0.000528716
0.000525614
0.000522818
0.00052031
0.000518024
0.00051597
0.000514078
0.000512378
0.000510795
0.000509372
0.000508037
0.000506839
0.0005057
0.000504684
0.000503709
0.000502844
0.000502
0.000501258
0.000500526
0.000499888
0.00049925
0.000498697
0.000498142
0.000497665
0.000497175
0.000496762
0.000496333
0.000495973
0.000495594
0.000495279
0.000494943
0.000494668
0.000494374
0.000494141
0.000493874
0.000493679
0.00049344
0.000493272
0.000493062
0.000492915
0.000492729
0.000492598
0.000492439
0.000492319
0.000492186
0.000492085
0.000491949
0.000491858
0.000491744
0.00049168
0.000491588
0.000491539
0.000491461
0.00049142
0.000491346
0.000491307
0.000491242
0.000491212
0.000491159
0.000491139
0.000491096
0.000491092
0.000491079
0.000491099
0.000491099
0.000491145
0.000491145
0.000491212
0.000491223
0.000491304
0.000491313
0.000491387
0.000491581
0.000499637
0.000525433
0.00128377
0.00102414
0.000931669
0.00085547
0.000793493
0.00074388
0.000704343
0.000672806
0.000647387
0.000626732
0.000609705
0.000595563
0.000583652
0.000573566
0.000564918
0.000557477
0.000551004
0.000545358
0.000540391
0.000536006
0.000532114
0.00052864
0.000525537
0.00052274
0.00052023
0.000517943
0.000515887
0.000513995
0.000512293
0.00051071
0.000509286
0.00050795
0.000506752
0.000505612
0.000504596
0.00050362
0.000502755
0.000501911
0.000501168
0.000500435
0.000499797
0.000499159
0.000498605
0.00049805
0.000497573
0.000497083
0.000496669
0.00049624
0.00049588
0.000495501
0.000495186
0.000494849
0.000494574
0.00049428
0.000494046
0.00049378
0.000493585
0.000493345
0.000493176
0.000492966
0.00049282
0.000492633
0.000492502
0.000492343
0.000492223
0.000492089
0.000491989
0.000491852
0.000491762
0.000491648
0.000491584
0.000491491
0.000491442
0.000491364
0.000491323
0.000491249
0.000491209
0.000491145
0.000491115
0.000491061
0.000491041
0.000490999
0.000490994
0.000490981
0.000491
0.000491
0.000491046
0.000491046
0.000491113
0.000491124
0.000491204
0.000491214
0.000491288
0.000491483
0.000499584
0.000525355
0.00128554
0.00102414
0.000931671
0.000855472
0.00079349
0.000743869
0.000704322
0.000672774
0.000647345
0.00062668
0.000609646
0.000595496
0.000583578
0.000573487
0.000564834
0.000557388
0.000550911
0.000545261
0.000540291
0.000535903
0.000532009
0.000528533
0.000525428
0.000522629
0.000520117
0.000517828
0.000515771
0.000513878
0.000512175
0.00051059
0.000509166
0.000507829
0.000506629
0.000505489
0.000504472
0.000503495
0.000502629
0.000501784
0.000501041
0.000500308
0.000499669
0.00049903
0.000498476
0.000497921
0.000497443
0.000496952
0.000496538
0.000496108
0.000495748
0.000495369
0.000495053
0.000494716
0.000494441
0.000494147
0.000493913
0.000493646
0.000493451
0.000493211
0.000493042
0.000492832
0.000492685
0.000492498
0.000492367
0.000492208
0.000492088
0.000491954
0.000491853
0.000491716
0.000491626
0.000491512
0.000491447
0.000491355
0.000491305
0.000491227
0.000491186
0.000491112
0.000491072
0.000491007
0.000490977
0.000490924
0.000490903
0.000490861
0.000490856
0.000490842
0.000490862
0.000490861
0.000490906
0.000490906
0.000490973
0.000490984
0.000491064
0.000491074
0.000491147
0.000491343
0.000499509
0.000525243
0.00128754
0.00102414
0.000931673
0.000855474
0.000793486
0.000743854
0.000704294
0.000672733
0.00064729
0.000626614
0.000609568
0.000595409
0.000583483
0.000573384
0.000564725
0.000557273
0.000550791
0.000545137
0.000540163
0.000535771
0.000531873
0.000528394
0.000525286
0.000522485
0.000519971
0.00051768
0.000515621
0.000513726
0.000512021
0.000510435
0.000509009
0.000507671
0.00050647
0.000505329
0.000504311
0.000503333
0.000502466
0.00050162
0.000500876
0.000500142
0.000499503
0.000498864
0.000498309
0.000497753
0.000497274
0.000496783
0.000496369
0.000495938
0.000495578
0.000495198
0.000494882
0.000494544
0.000494269
0.000493974
0.00049374
0.000493473
0.000493277
0.000493037
0.000492868
0.000492657
0.00049251
0.000492324
0.000492192
0.000492033
0.000491912
0.000491778
0.000491677
0.00049154
0.000491449
0.000491335
0.00049127
0.000491177
0.000491128
0.00049105
0.000491009
0.000490934
0.000490894
0.000490829
0.000490799
0.000490745
0.000490725
0.000490682
0.000490677
0.000490663
0.000490682
0.000490681
0.000490726
0.000490726
0.000490792
0.000490802
0.000490882
0.000490892
0.000490965
0.000491163
0.000499411
0.000525099
0.00128971
0.00102414
0.000931676
0.000855477
0.000793482
0.000743836
0.00070426
0.000672682
0.000647223
0.000626532
0.000609473
0.000595302
0.000583366
0.000573258
0.000564591
0.000557132
0.000550644
0.000544983
0.000540004
0.000535608
0.000531706
0.000528223
0.000525112
0.000522307
0.00051979
0.000517497
0.000515436
0.000513539
0.000511832
0.000510244
0.000508816
0.000507476
0.000506274
0.000505131
0.000504112
0.000503133
0.000502265
0.000501419
0.000500673
0.000499938
0.000499298
0.000498658
0.000498102
0.000497546
0.000497067
0.000496575
0.000496159
0.000495729
0.000495367
0.000494987
0.000494671
0.000494332
0.000494057
0.000493762
0.000493527
0.000493259
0.000493063
0.000492823
0.000492653
0.000492442
0.000492295
0.000492108
0.000491976
0.000491816
0.000491696
0.000491561
0.00049146
0.000491323
0.000491232
0.000491117
0.000491052
0.000490959
0.000490909
0.000490831
0.00049079
0.000490715
0.000490675
0.00049061
0.00049058
0.000490525
0.000490505
0.000490462
0.000490456
0.000490441
0.00049046
0.000490459
0.000490503
0.000490503
0.000490569
0.000490579
0.000490658
0.000490667
0.000490741
0.000490941
0.000499291
0.000524922
0.00129196
0.00102414
0.000931679
0.00085548
0.000793476
0.000743815
0.00070422
0.000672621
0.000647144
0.000626435
0.00060936
0.000595175
0.000583227
0.000573108
0.000564431
0.000556963
0.000550467
0.0005448
0.000539815
0.000535413
0.000531506
0.000528019
0.000524904
0.000522095
0.000519576
0.000517279
0.000515215
0.000513315
0.000511606
0.000510016
0.000508586
0.000507244
0.000506041
0.000504896
0.000503876
0.000502895
0.000502026
0.000501178
0.000500431
0.000499695
0.000499054
0.000498413
0.000497856
0.000497299
0.000496819
0.000496326
0.00049591
0.000495478
0.000495117
0.000494735
0.000494419
0.00049408
0.000493804
0.000493508
0.000493273
0.000493004
0.000492808
0.000492567
0.000492397
0.000492186
0.000492038
0.000491851
0.000491718
0.000491558
0.000491437
0.000491302
0.000491201
0.000491064
0.000490972
0.000490857
0.000490792
0.000490699
0.000490649
0.00049057
0.000490529
0.000490454
0.000490413
0.000490348
0.000490317
0.000490263
0.000490242
0.000490199
0.000490193
0.000490177
0.000490195
0.000490194
0.000490237
0.000490237
0.000490303
0.000490312
0.000490391
0.000490399
0.000490474
0.000490676
0.00049915
0.000524712
0.00129413
0.00102413
0.000931683
0.000855484
0.00079347
0.000743791
0.000704173
0.000672551
0.000647051
0.000626322
0.000609229
0.000595027
0.000583064
0.000572933
0.000564244
0.000556767
0.000550262
0.000544587
0.000539595
0.000535187
0.000531274
0.000527782
0.000524662
0.000521849
0.000519325
0.000517025
0.000514958
0.000513055
0.000511343
0.000509751
0.000508318
0.000506974
0.000505769
0.000504622
0.0005036
0.000502617
0.000501747
0.000500897
0.000500149
0.000499412
0.000498769
0.000498127
0.00049757
0.000497011
0.00049653
0.000496036
0.00049562
0.000495187
0.000494825
0.000494443
0.000494125
0.000493786
0.000493509
0.000493212
0.000492977
0.000492708
0.000492511
0.000492269
0.000492099
0.000491887
0.000491739
0.000491551
0.000491418
0.000491258
0.000491136
0.000491001
0.000490899
0.000490762
0.00049067
0.000490555
0.000490489
0.000490395
0.000490345
0.000490266
0.000490224
0.000490149
0.000490109
0.000490043
0.000490012
0.000489957
0.000489936
0.000489893
0.000489886
0.000489869
0.000489886
0.000489885
0.000489927
0.000489927
0.000489992
0.000490001
0.00049008
0.000490088
0.000490162
0.000490367
0.000498988
0.000524467
0.00129598
0.00102413
0.000931687
0.000855488
0.000793463
0.000743763
0.000704119
0.000672471
0.000646945
0.000626193
0.000609079
0.000594859
0.000582879
0.000572733
0.000564032
0.000556543
0.000550028
0.000544344
0.000539344
0.000534928
0.000531009
0.00052751
0.000524385
0.000521568
0.000519039
0.000516735
0.000514664
0.000512758
0.000511043
0.000509447
0.000508012
0.000506666
0.000505457
0.000504308
0.000503284
0.0005023
0.000501428
0.000500576
0.000499827
0.000499088
0.000498444
0.0004978
0.000497242
0.000496682
0.0004962
0.000495705
0.000495287
0.000494854
0.000494491
0.000494108
0.000493789
0.000493449
0.000493172
0.000492874
0.000492638
0.000492368
0.000492171
0.000491929
0.000491757
0.000491545
0.000491396
0.000491208
0.000491075
0.000490914
0.000490792
0.000490656
0.000490554
0.000490416
0.000490324
0.000490208
0.000490143
0.000490048
0.000489998
0.000489919
0.000489876
0.000489801
0.00048976
0.000489694
0.000489663
0.000489607
0.000489586
0.000489542
0.000489535
0.000489517
0.000489534
0.000489532
0.000489572
0.000489573
0.000489637
0.000489646
0.000489723
0.000489731
0.000489806
0.000490014
0.000498805
0.000524189
0.00129717
0.00102413
0.000931692
0.000855493
0.000793455
0.000743732
0.00070406
0.000672381
0.000646827
0.000626047
0.00060891
0.000594669
0.000582671
0.000572508
0.000563792
0.000556291
0.000549764
0.00054407
0.00053906
0.000534637
0.00053071
0.000527205
0.000524073
0.00052125
0.000518717
0.000516408
0.000514333
0.000512422
0.000510704
0.000509105
0.000507667
0.000506317
0.000505106
0.000503955
0.000502928
0.000501942
0.000501068
0.000500214
0.000499463
0.000498722
0.000498077
0.000497432
0.000496872
0.00049631
0.000495827
0.000495331
0.000494912
0.000494478
0.000494113
0.000493729
0.000493411
0.000493069
0.000492791
0.000492492
0.000492256
0.000491985
0.000491787
0.000491544
0.000491372
0.000491159
0.00049101
0.000490821
0.000490687
0.000490526
0.000490404
0.000490267
0.000490165
0.000490026
0.000489934
0.000489818
0.000489751
0.000489657
0.000489605
0.000489526
0.000489484
0.000489408
0.000489366
0.0004893
0.000489268
0.000489213
0.000489191
0.000489147
0.000489139
0.00048912
0.000489136
0.000489133
0.000489172
0.000489173
0.000489237
0.000489244
0.000489321
0.000489328
0.000489403
0.000489615
0.000498602
0.000523877
0.00129724
0.00102413
0.000931697
0.000855499
0.000793447
0.000743698
0.000703993
0.000672281
0.000646695
0.000625886
0.000608722
0.000594458
0.000582439
0.000572258
0.000563526
0.00055601
0.00054947
0.000543764
0.000538744
0.000534312
0.000530377
0.000526864
0.000523726
0.000520896
0.000518357
0.000516043
0.000513963
0.000512048
0.000510325
0.000508723
0.000507281
0.000505928
0.000504715
0.00050356
0.000502531
0.000501542
0.000500666
0.00049981
0.000499057
0.000498315
0.000497668
0.000497021
0.000496459
0.000495896
0.000495412
0.000494914
0.000494494
0.000494058
0.000493693
0.000493308
0.000492988
0.000492645
0.000492366
0.000492067
0.000491829
0.000491557
0.000491358
0.000491115
0.000490942
0.000490729
0.000490579
0.000490389
0.000490255
0.000490093
0.00048997
0.000489832
0.00048973
0.000489591
0.000489499
0.000489382
0.000489315
0.000489219
0.000489168
0.000489088
0.000489045
0.000488969
0.000488927
0.00048886
0.000488828
0.000488772
0.00048875
0.000488705
0.000488697
0.000488677
0.000488691
0.000488688
0.000488726
0.000488726
0.000488789
0.000488797
0.000488873
0.000488879
0.000488954
0.000489171
0.000498378
0.000523529
0.00129578
0.00102413
0.000931703
0.000855505
0.000793438
0.000743661
0.000703921
0.000672172
0.00064655
0.000625709
0.000608515
0.000594225
0.000582183
0.000571981
0.000563231
0.000555699
0.000549146
0.000543427
0.000538396
0.000533953
0.000530008
0.000526487
0.000523341
0.000520505
0.000517959
0.000515639
0.000513554
0.000511634
0.000509907
0.000508301
0.000506855
0.000505499
0.000504282
0.000503124
0.000502093
0.000501101
0.000500222
0.000499364
0.000498608
0.000497864
0.000497215
0.000496566
0.000496003
0.000495438
0.000494952
0.000494453
0.000494032
0.000493594
0.000493228
0.000492841
0.00049252
0.000492176
0.000491896
0.000491596
0.000491357
0.000491085
0.000490885
0.000490641
0.000490467
0.000490252
0.000490102
0.000489911
0.000489777
0.000489614
0.000489491
0.000489352
0.000489249
0.00048911
0.000489017
0.000488899
0.000488832
0.000488736
0.000488684
0.000488604
0.00048856
0.000488484
0.000488442
0.000488374
0.000488342
0.000488285
0.000488262
0.000488217
0.000488209
0.000488187
0.0004882
0.000488196
0.000488233
0.000488233
0.000488295
0.000488302
0.000488376
0.000488382
0.000488458
0.00048868
0.000498133
0.000523145
0.0012928
0.00102413
0.000931709
0.000855512
0.000793428
0.00074362
0.000703842
0.000672053
0.000646392
0.000625515
0.000608289
0.00059397
0.000581903
0.000571679
0.000562909
0.000555359
0.00054879
0.000543058
0.000538013
0.000533559
0.000529605
0.000526074
0.00052292
0.000520076
0.000517524
0.000515197
0.000513106
0.000511181
0.000509449
0.000507838
0.000506388
0.000505028
0.000503807
0.000502646
0.000501611
0.000500616
0.000499735
0.000498874
0.000498116
0.000497369
0.000496718
0.000496067
0.000495502
0.000494935
0.000494448
0.000493947
0.000493524
0.000493085
0.000492717
0.000492329
0.000492007
0.000491662
0.000491381
0.000491079
0.00049084
0.000490566
0.000490365
0.00049012
0.000489946
0.00048973
0.000489578
0.000489387
0.000489252
0.000489088
0.000488964
0.000488825
0.000488722
0.000488582
0.000488488
0.00048837
0.000488302
0.000488205
0.000488153
0.000488072
0.000488028
0.000487951
0.000487909
0.000487841
0.000487808
0.00048775
0.000487727
0.000487682
0.000487672
0.000487649
0.000487661
0.000487657
0.000487691
0.000487691
0.000487752
0.000487758
0.000487832
0.000487837
0.000487913
0.00048814
0.000497868
0.000522725
0.00128832
0.00102413
0.000931716
0.000855519
0.000793418
0.000743577
0.000703756
0.000671923
0.00064622
0.000625304
0.000608043
0.000593693
0.000581598
0.00057135
0.000562558
0.00055499
0.000548403
0.000542655
0.000537597
0.000533131
0.000529165
0.000525625
0.000522461
0.000519609
0.000517049
0.000514716
0.000512618
0.000510687
0.00050895
0.000507333
0.000505879
0.000504514
0.00050329
0.000502125
0.000501087
0.000500088
0.000499204
0.00049834
0.00049758
0.00049683
0.000496177
0.000495523
0.000494956
0.000494387
0.000493898
0.000493395
0.000492971
0.00049253
0.000492161
0.000491771
0.000491448
0.000491101
0.000490819
0.000490516
0.000490275
0.00049
0.000489798
0.000489552
0.000489377
0.00048916
0.000489008
0.000488816
0.00048868
0.000488515
0.000488391
0.00048825
0.000488147
0.000488006
0.000487912
0.000487793
0.000487724
0.000487627
0.000487574
0.000487492
0.000487448
0.00048737
0.000487327
0.000487259
0.000487225
0.000487167
0.000487143
0.000487097
0.000487087
0.000487062
0.000487073
0.000487068
0.000487101
0.0004871
0.00048716
0.000487166
0.000487238
0.000487242
0.000487319
0.000487553
0.000497583
0.000522267
0.00128236
0.00102413
0.000931724
0.000855527
0.000793407
0.00074353
0.000703664
0.000671784
0.000646035
0.000625077
0.000607778
0.000593394
0.000581269
0.000570995
0.000562179
0.00055459
0.000547984
0.00054222
0.000537147
0.000532667
0.000528689
0.000525138
0.000521965
0.000519103
0.000516535
0.000514194
0.000512089
0.000510152
0.000508409
0.000506786
0.000505327
0.000503958
0.000502729
0.00050156
0.000500518
0.000499516
0.000498628
0.000497762
0.000496998
0.000496246
0.00049559
0.000494934
0.000494365
0.000493793
0.000493302
0.000492797
0.000492371
0.000491928
0.000491557
0.000491166
0.000490842
0.000490493
0.00049021
0.000489905
0.000489664
0.000489387
0.000489184
0.000488937
0.00048876
0.000488543
0.000488389
0.000488196
0.000488059
0.000487894
0.000487769
0.000487627
0.000487523
0.000487382
0.000487287
0.000487167
0.000487098
0.000486999
0.000486946
0.000486863
0.000486819
0.000486741
0.000486697
0.000486628
0.000486594
0.000486535
0.00048651
0.000486464
0.000486453
0.000486427
0.000486436
0.00048643
0.000486461
0.00048646
0.000486518
0.000486523
0.000486594
0.000486598
0.000486675
0.000486916
0.000497276
0.000521769
0.00127497
0.00102413
0.000931731
0.000855536
0.000793395
0.00074348
0.000703566
0.000671635
0.000645836
0.000624833
0.000607493
0.000593073
0.000580915
0.000570612
0.000561771
0.000554159
0.000547534
0.000541751
0.000536662
0.000532167
0.000528177
0.000524613
0.000521429
0.000518558
0.00051598
0.000513631
0.000511519
0.000509575
0.000507825
0.000506197
0.000504733
0.000503358
0.000502124
0.000500951
0.000499905
0.000498899
0.000498007
0.000497137
0.000496371
0.000495616
0.000494957
0.000494298
0.000493726
0.000493153
0.000492659
0.000492152
0.000491724
0.000491279
0.000490907
0.000490514
0.000490187
0.000489838
0.000489553
0.000489246
0.000489003
0.000488725
0.000488521
0.000488272
0.000488095
0.000487876
0.000487722
0.000487528
0.00048739
0.000487223
0.000487097
0.000486955
0.00048685
0.000486708
0.000486613
0.000486492
0.000486422
0.000486322
0.000486268
0.000486185
0.00048614
0.000486061
0.000486017
0.000485947
0.000485912
0.000485853
0.000485827
0.00048578
0.000485768
0.000485741
0.000485749
0.000485741
0.00048577
0.000485769
0.000485826
0.00048583
0.000485899
0.000485902
0.000485979
0.000486228
0.000496946
0.000521231
0.00126618
0.00102412
0.00093174
0.000855545
0.000793383
0.000743427
0.000703462
0.000671476
0.000645624
0.000624572
0.000607188
0.000592729
0.000580536
0.000570202
0.000561334
0.000553698
0.00054705
0.000541248
0.000536142
0.000531632
0.000527626
0.00052405
0.000520855
0.000517973
0.000515386
0.000513027
0.000510907
0.000508955
0.000507199
0.000505564
0.000504094
0.000502714
0.000501475
0.000500297
0.000499246
0.000498236
0.000497341
0.000496467
0.000495697
0.000494939
0.000494277
0.000493615
0.000493041
0.000492464
0.000491969
0.000491459
0.000491029
0.000490582
0.000490208
0.000489812
0.000489485
0.000489133
0.000488847
0.000488538
0.000488294
0.000488015
0.000487809
0.000487559
0.00048738
0.00048716
0.000487005
0.00048681
0.00048667
0.000486503
0.000486376
0.000486232
0.000486127
0.000485985
0.000485888
0.000485766
0.000485695
0.000485595
0.00048554
0.000485456
0.00048541
0.000485331
0.000485286
0.000485215
0.00048518
0.000485119
0.000485094
0.000485046
0.000485033
0.000485004
0.00048501
0.000485002
0.000485028
0.000485027
0.000485082
0.000485085
0.000485152
0.000485155
0.000485233
0.00048549
0.000496593
0.000520648
0.00125603
0.00102412
0.000931748
0.000855555
0.000793371
0.000743372
0.000703351
0.000671307
0.000645399
0.000624295
0.000606864
0.000592362
0.000580132
0.000569765
0.000560867
0.000553205
0.000546534
0.000540712
0.000535586
0.000531059
0.000527039
0.000523449
0.00052024
0.000517347
0.00051475
0.000512382
0.000510253
0.000508293
0.000506529
0.000504888
0.000503411
0.000502025
0.000500781
0.000499597
0.000498542
0.000497527
0.000496628
0.00049575
0.000494977
0.000494214
0.000493549
0.000492885
0.000492307
0.000491728
0.00049123
0.000490718
0.000490285
0.000489836
0.000489459
0.000489062
0.000488733
0.000488379
0.000488091
0.000487781
0.000487535
0.000487254
0.000487047
0.000486795
0.000486615
0.000486394
0.000486237
0.000486041
0.0004859
0.000485732
0.000485604
0.000485459
0.000485353
0.00048521
0.000485113
0.00048499
0.000484918
0.000484817
0.000484761
0.000484676
0.000484629
0.000484549
0.000484504
0.000484432
0.000484396
0.000484335
0.000484308
0.000484259
0.000484246
0.000484215
0.00048422
0.00048421
0.000484234
0.000484232
0.000484286
0.000484288
0.000484353
0.000484355
0.000484433
0.0004847
0.000496216
0.00052002
0.00124458
0.00102412
0.000931757
0.000855566
0.000793358
0.000743313
0.000703234
0.000671129
0.00064516
0.000624001
0.000606519
0.000591973
0.000579703
0.000569301
0.000560371
0.000552681
0.000545985
0.00054014
0.000534995
0.000530449
0.000526413
0.000522808
0.000519586
0.000516681
0.000514072
0.000511694
0.000509556
0.000507587
0.000505815
0.000504166
0.000502683
0.00050129
0.00050004
0.000498851
0.000497791
0.000496771
0.000495867
0.000494985
0.000494208
0.000493442
0.000492774
0.000492106
0.000491525
0.000490943
0.000490442
0.000489927
0.000489492
0.00048904
0.000488661
0.000488262
0.00048793
0.000487575
0.000487285
0.000486972
0.000486726
0.000486442
0.000486234
0.000485981
0.000485799
0.000485576
0.000485418
0.000485221
0.000485079
0.000484909
0.000484781
0.000484634
0.000484528
0.000484383
0.000484286
0.000484161
0.000484088
0.000483986
0.000483929
0.000483844
0.000483796
0.000483716
0.000483669
0.000483597
0.00048356
0.000483497
0.00048347
0.000483421
0.000483406
0.000483374
0.000483377
0.000483365
0.000483387
0.000483385
0.000483436
0.000483438
0.000483501
0.000483502
0.000483581
0.000483858
0.000495811
0.000519343
0.00123187
0.00102412
0.000931767
0.000855577
0.000793345
0.000743252
0.000703111
0.00067094
0.000644909
0.00062369
0.000606155
0.000591561
0.000579248
0.000568808
0.000559845
0.000552125
0.000545402
0.000539534
0.000534367
0.000529802
0.000525748
0.000522128
0.000518892
0.000515973
0.000513352
0.000510963
0.000508815
0.000506837
0.000505057
0.0005034
0.000501909
0.00050051
0.000499253
0.000498059
0.000496993
0.000495968
0.000495059
0.000494173
0.000493391
0.000492621
0.000491949
0.000491277
0.000490694
0.000490108
0.000489604
0.000489086
0.000488649
0.000488194
0.000487813
0.000487411
0.000487077
0.000486719
0.000486428
0.000486113
0.000485865
0.000485579
0.00048537
0.000485114
0.000484932
0.000484707
0.000484548
0.000484349
0.000484206
0.000484034
0.000483905
0.000483757
0.00048365
0.000483504
0.000483406
0.00048328
0.000483206
0.000483103
0.000483045
0.000482958
0.00048291
0.000482829
0.000482782
0.000482708
0.00048267
0.000482607
0.000482579
0.000482528
0.000482513
0.000482479
0.00048248
0.000482467
0.000482487
0.000482483
0.000482532
0.000482534
0.000482594
0.000482594
0.000482674
0.000482962
0.000495378
0.000518613
0.00121798
0.00102412
0.000931777
0.00085559
0.000793331
0.000743188
0.000702983
0.000670743
0.000644643
0.000623362
0.00060577
0.000591126
0.000578768
0.000568288
0.000559289
0.000551537
0.000544786
0.000538892
0.000533702
0.000529117
0.000525045
0.000521407
0.000518156
0.000515223
0.00051259
0.000510189
0.000508031
0.000506042
0.000504253
0.000502588
0.000501089
0.000499682
0.00049842
0.000497219
0.000496147
0.000495116
0.000494203
0.000493311
0.000492525
0.000491751
0.000491075
0.000490399
0.000489812
0.000489223
0.000488716
0.000488195
0.000487754
0.000487297
0.000486913
0.000486509
0.000486173
0.000485813
0.000485519
0.000485202
0.000484952
0.000484664
0.000484453
0.000484196
0.000484011
0.000483785
0.000483624
0.000483424
0.00048328
0.000483107
0.000482976
0.000482827
0.000482718
0.000482572
0.000482473
0.000482346
0.000482271
0.000482166
0.000482107
0.000482019
0.000481971
0.000481888
0.000481841
0.000481766
0.000481727
0.000481663
0.000481633
0.000481582
0.000481565
0.000481531
0.000481529
0.000481514
0.000481532
0.000481527
0.000481574
0.000481575
0.000481632
0.000481632
0.000481712
0.000482011
0.00049491
0.000517828
0.00120297
0.00102412
0.000931787
0.000855603
0.000793318
0.000743122
0.000702848
0.000670536
0.000644365
0.000623018
0.000605366
0.000590668
0.000578262
0.000567739
0.000558703
0.000550917
0.000544136
0.000538215
0.000533001
0.000528394
0.000524302
0.000520647
0.000517379
0.000514431
0.000511785
0.000509372
0.000507201
0.000505203
0.000503404
0.000501729
0.000500223
0.000498808
0.000497538
0.00049633
0.000495252
0.000494216
0.000493297
0.0004924
0.00049161
0.00049083
0.00049015
0.00048947
0.00048888
0.000488286
0.000487776
0.000487252
0.000486809
0.000486348
0.000485962
0.000485554
0.000485216
0.000484853
0.000484558
0.000484238
0.000483986
0.000483696
0.000483483
0.000483224
0.000483038
0.00048281
0.000482647
0.000482445
0.0004823
0.000482125
0.000481993
0.000481842
0.000481733
0.000481586
0.000481485
0.000481357
0.000481281
0.000481175
0.000481115
0.000481026
0.000480977
0.000480893
0.000480844
0.000480769
0.000480729
0.000480663
0.000480633
0.00048058
0.000480563
0.000480527
0.000480524
0.000480506
0.000480522
0.000480516
0.00048056
0.00048056
0.000480614
0.000480614
0.000480694
0.000481006
0.000494401
0.000516988
0.0011869
0.00102411
0.000931798
0.000855616
0.000793304
0.000743053
0.000702708
0.000670319
0.000644074
0.000622657
0.000604942
0.000590187
0.00057773
0.000567163
0.000558086
0.000550265
0.000543452
0.000537502
0.000532263
0.000527633
0.000523519
0.000519845
0.00051656
0.000513597
0.000510936
0.00050851
0.000506327
0.000504318
0.000502508
0.000500824
0.000499309
0.000497886
0.000496608
0.000495393
0.000494309
0.000493266
0.000492341
0.000491439
0.000490644
0.000489859
0.000489175
0.000488491
0.000487896
0.000487299
0.000486785
0.000486257
0.000485811
0.000485347
0.000484958
0.000484547
0.000484207
0.000483841
0.000483543
0.000483221
0.000482967
0.000482675
0.00048246
0.000482199
0.000482011
0.00048178
0.000481616
0.000481413
0.000481266
0.000481089
0.000480956
0.000480803
0.000480693
0.000480545
0.000480443
0.000480314
0.000480236
0.000480128
0.000480067
0.000479978
0.000479927
0.000479843
0.000479793
0.000479716
0.000479675
0.000479609
0.000479577
0.000479523
0.000479504
0.000479468
0.000479463
0.000479443
0.000479456
0.000479448
0.000479489
0.00047949
0.00047954
0.000479539
0.000479621
0.000479945
0.000493845
0.000516088
0.00116986
0.00102411
0.000931809
0.000855631
0.00079329
0.000742982
0.000702562
0.000670094
0.00064377
0.00062228
0.000604498
0.000589683
0.000577173
0.000566558
0.000557439
0.00054958
0.000542734
0.000536754
0.000531487
0.000526833
0.000522697
0.000519003
0.0005157
0.00051272
0.000510043
0.000507603
0.000505408
0.000503386
0.000501566
0.000499872
0.000498347
0.000496916
0.00049563
0.000494408
0.000493316
0.000492267
0.000491336
0.000490428
0.000489627
0.000488837
0.000488148
0.000487459
0.00048686
0.000486259
0.000485742
0.00048521
0.00048476
0.000484293
0.000483901
0.000483487
0.000483144
0.000482775
0.000482475
0.00048215
0.000481894
0.000481599
0.000481382
0.000481119
0.000480929
0.000480696
0.000480531
0.000480325
0.000480176
0.000479998
0.000479864
0.000479709
0.000479598
0.000479448
0.000479346
0.000479214
0.000479136
0.000479026
0.000478964
0.000478873
0.000478822
0.000478736
0.000478686
0.000478608
0.000478566
0.000478498
0.000478465
0.00047841
0.00047839
0.000478352
0.000478345
0.000478323
0.000478333
0.000478324
0.000478362
0.000478362
0.000478409
0.000478408
0.000478489
0.000478827
0.000493233
0.000515126
0.0011519
0.00102411
0.000931821
0.000855646
0.000793276
0.000742908
0.000702411
0.000669859
0.000643453
0.000621886
0.000604034
0.000589156
0.00057659
0.000565925
0.000556762
0.000548863
0.000541981
0.000535969
0.000530674
0.000525993
0.000521834
0.000518119
0.000514797
0.000511799
0.000509107
0.000506652
0.000504443
0.000502409
0.000500577
0.000498872
0.000497338
0.000495897
0.000494603
0.000493372
0.000492273
0.000491217
0.000490279
0.000489365
0.000488559
0.000487764
0.000487069
0.000486376
0.000485772
0.000485166
0.000484645
0.000484109
0.000483656
0.000483185
0.00048279
0.000482373
0.000482027
0.000481655
0.000481352
0.000481024
0.000480766