/*--------------------------------*- C++ -*----------------------------------*\
| =========                 |                                                 |
| \\      /  F ield         | OpenFOAM: The Open Source CFD Toolbox           |
|  \\    /   O peration     | Version:  v2012                                 |
|   \\  /    A nd           | Website:  www.openfoam.com                      |
|    \\/     M anipulation  |                                                 |
\*---------------------------------------------------------------------------*/
FoamFile
{
    version     2.0;
    format      ascii;
    class       volVectorField;
    location    "44.5";
    object      wallShearStress;
}
// * * * * * * * * * * * * * * * * * * * * * * * * * * * * * * * * * * * * * //

dimensions      [0 2 -2 0 0 0 0];


internalField   uniform (0 0 0);

boundaryField
{
    inlet
    {
        type            calculated;
        value           uniform (0 0 0);
    }
    outlet
    {
        type            calculated;
        value           uniform (0 0 0);
    }
    topWall
    {
        type            calculated;
        value           nonuniform List<vector> 
545
(
(3.67465e-08 -2.58663e-08 0)
(3.67351e-08 -7.23583e-08 0)
(3.67151e-08 -1.20704e-07 0)
(3.66865e-08 -1.67652e-07 0)
(3.66507e-08 -2.12601e-07 0)
(3.66083e-08 -2.5613e-07 0)
(3.65599e-08 -2.98608e-07 0)
(3.65059e-08 -3.40015e-07 0)
(3.64468e-08 -3.80262e-07 0)
(3.6383e-08 -4.19346e-07 0)
(3.6315e-08 -4.57321e-07 0)
(3.62433e-08 -4.94229e-07 0)
(3.6168e-08 -5.30096e-07 0)
(3.60897e-08 -5.64943e-07 0)
(3.60087e-08 -5.98794e-07 0)
(3.59253e-08 -6.31676e-07 0)
(3.58397e-08 -6.63616e-07 0)
(3.57522e-08 -6.94639e-07 0)
(3.56632e-08 -7.24769e-07 0)
(3.55728e-08 -7.54031e-07 0)
(3.54813e-08 -7.82448e-07 0)
(3.53889e-08 -8.10045e-07 0)
(3.52957e-08 -8.36843e-07 0)
(3.5202e-08 -8.62865e-07 0)
(3.5108e-08 -8.88134e-07 0)
(3.50137e-08 -9.1267e-07 0)
(3.49194e-08 -9.36496e-07 0)
(3.48251e-08 -9.5963e-07 0)
(3.47311e-08 -9.82093e-07 0)
(3.46373e-08 -1.00391e-06 0)
(3.4544e-08 -1.02508e-06 0)
(3.44512e-08 -1.04565e-06 0)
(3.4359e-08 -1.06562e-06 0)
(3.42675e-08 -1.08501e-06 0)
(3.41768e-08 -1.10384e-06 0)
(3.40869e-08 -1.12212e-06 0)
(3.39979e-08 -1.13988e-06 0)
(3.39098e-08 -1.15712e-06 0)
(3.38228e-08 -1.17387e-06 0)
(3.37368e-08 -1.19013e-06 0)
(3.36519e-08 -1.20592e-06 0)
(3.35681e-08 -1.22126e-06 0)
(3.34855e-08 -1.23616e-06 0)
(3.3404e-08 -1.25062e-06 0)
(3.33238e-08 -1.26468e-06 0)
(3.32447e-08 -1.27833e-06 0)
(3.3167e-08 -1.29158e-06 0)
(3.30904e-08 -1.30446e-06 0)
(3.30152e-08 -1.31697e-06 0)
(3.29412e-08 -1.32913e-06 0)
(3.28685e-08 -1.34093e-06 0)
(3.27971e-08 -1.3524e-06 0)
(3.27269e-08 -1.36354e-06 0)
(3.26581e-08 -1.37437e-06 0)
(3.25905e-08 -1.38489e-06 0)
(3.25242e-08 -1.39511e-06 0)
(3.24592e-08 -1.40504e-06 0)
(3.23954e-08 -1.41469e-06 0)
(3.23329e-08 -1.42407e-06 0)
(3.22716e-08 -1.43318e-06 0)
(3.22116e-08 -1.44203e-06 0)
(3.21527e-08 -1.45064e-06 0)
(3.20951e-08 -1.459e-06 0)
(3.20387e-08 -1.46713e-06 0)
(3.19835e-08 -1.47503e-06 0)
(3.19294e-08 -1.48271e-06 0)
(3.18765e-08 -1.49018e-06 0)
(3.18248e-08 -1.49743e-06 0)
(3.17741e-08 -1.50449e-06 0)
(3.17246e-08 -1.51134e-06 0)
(3.16761e-08 -1.51801e-06 0)
(3.1629e-08 -1.52448e-06 0)
(3.15832e-08 -1.53071e-06 0)
(3.15381e-08 -1.53675e-06 0)
(3.14934e-08 -1.54273e-06 0)
(3.14489e-08 -1.54868e-06 0)
(3.14044e-08 -1.5546e-06 0)
(3.136e-08 -1.56049e-06 0)
(3.13156e-08 -1.56634e-06 0)
(3.12713e-08 -1.57215e-06 0)
(3.1227e-08 -1.57793e-06 0)
(3.11827e-08 -1.58368e-06 0)
(3.11385e-08 -1.58939e-06 0)
(3.10944e-08 -1.59507e-06 0)
(3.10503e-08 -1.60071e-06 0)
(3.10062e-08 -1.60632e-06 0)
(3.09622e-08 -1.6119e-06 0)
(3.09182e-08 -1.61744e-06 0)
(3.08743e-08 -1.62295e-06 0)
(3.08304e-08 -1.62843e-06 0)
(3.07866e-08 -1.63387e-06 0)
(3.07429e-08 -1.63928e-06 0)
(3.06992e-08 -1.64466e-06 0)
(3.06557e-08 -1.65e-06 0)
(3.06117e-08 -1.65533e-06 0)
(3.057e-08 -1.66056e-06 0)
(3.05314e-08 -1.66536e-06 0)
(3.0494e-08 -1.6697e-06 0)
(3.0458e-08 -1.67393e-06 0)
(3.04221e-08 -1.67818e-06 0)
(3.03861e-08 -1.68247e-06 0)
(3.035e-08 -1.68677e-06 0)
(3.03137e-08 -1.69107e-06 0)
(3.02772e-08 -1.69537e-06 0)
(3.02406e-08 -1.69967e-06 0)
(3.02038e-08 -1.70398e-06 0)
(3.01668e-08 -1.7083e-06 0)
(3.01296e-08 -1.71262e-06 0)
(3.00923e-08 -1.71695e-06 0)
(3.00547e-08 -1.72128e-06 0)
(3.0017e-08 -1.72561e-06 0)
(2.99791e-08 -1.72995e-06 0)
(2.99411e-08 -1.73429e-06 0)
(2.99028e-08 -1.73864e-06 0)
(2.98644e-08 -1.743e-06 0)
(2.98258e-08 -1.74735e-06 0)
(2.9787e-08 -1.75172e-06 0)
(2.97481e-08 -1.75608e-06 0)
(2.97089e-08 -1.76046e-06 0)
(2.96696e-08 -1.76483e-06 0)
(2.96301e-08 -1.76921e-06 0)
(2.95904e-08 -1.7736e-06 0)
(2.95505e-08 -1.77799e-06 0)
(2.95104e-08 -1.78238e-06 0)
(2.94702e-08 -1.78678e-06 0)
(2.94297e-08 -1.79119e-06 0)
(2.93891e-08 -1.79559e-06 0)
(2.93483e-08 -1.8e-06 0)
(2.93073e-08 -1.80442e-06 0)
(2.92661e-08 -1.80884e-06 0)
(2.92248e-08 -1.81326e-06 0)
(2.91832e-08 -1.81769e-06 0)
(2.91414e-08 -1.82213e-06 0)
(2.90995e-08 -1.82656e-06 0)
(2.90574e-08 -1.831e-06 0)
(2.9015e-08 -1.83545e-06 0)
(2.89725e-08 -1.8399e-06 0)
(2.89298e-08 -1.84435e-06 0)
(2.88869e-08 -1.8488e-06 0)
(2.88438e-08 -1.85327e-06 0)
(2.88005e-08 -1.85773e-06 0)
(2.8757e-08 -1.8622e-06 0)
(2.87134e-08 -1.86667e-06 0)
(2.86695e-08 -1.87114e-06 0)
(2.86254e-08 -1.87562e-06 0)
(2.85812e-08 -1.88011e-06 0)
(2.85367e-08 -1.88459e-06 0)
(2.84921e-08 -1.88908e-06 0)
(2.84472e-08 -1.89358e-06 0)
(2.84022e-08 -1.89807e-06 0)
(2.83569e-08 -1.90257e-06 0)
(2.83115e-08 -1.90708e-06 0)
(2.82658e-08 -1.91158e-06 0)
(2.822e-08 -1.91609e-06 0)
(2.8174e-08 -1.92061e-06 0)
(2.81277e-08 -1.92513e-06 0)
(2.80813e-08 -1.92965e-06 0)
(2.80346e-08 -1.93417e-06 0)
(2.79878e-08 -1.9387e-06 0)
(2.79407e-08 -1.94323e-06 0)
(2.78935e-08 -1.94776e-06 0)
(2.7846e-08 -1.95229e-06 0)
(2.77984e-08 -1.95683e-06 0)
(2.77505e-08 -1.96137e-06 0)
(2.77025e-08 -1.96592e-06 0)
(2.76542e-08 -1.97046e-06 0)
(2.76058e-08 -1.97501e-06 0)
(2.75571e-08 -1.97957e-06 0)
(2.75082e-08 -1.98412e-06 0)
(2.74591e-08 -1.98868e-06 0)
(2.74098e-08 -1.99324e-06 0)
(2.73604e-08 -1.9978e-06 0)
(2.73107e-08 -2.00237e-06 0)
(2.72608e-08 -2.00694e-06 0)
(2.72106e-08 -2.01151e-06 0)
(2.71603e-08 -2.01608e-06 0)
(2.71098e-08 -2.02065e-06 0)
(2.70591e-08 -2.02523e-06 0)
(2.70081e-08 -2.02981e-06 0)
(2.6957e-08 -2.03439e-06 0)
(2.69056e-08 -2.03897e-06 0)
(2.68541e-08 -2.04356e-06 0)
(2.68023e-08 -2.04815e-06 0)
(2.67503e-08 -2.05274e-06 0)
(2.66981e-08 -2.05733e-06 0)
(2.66457e-08 -2.06192e-06 0)
(2.65931e-08 -2.06652e-06 0)
(2.65403e-08 -2.07111e-06 0)
(2.64873e-08 -2.07571e-06 0)
(2.6434e-08 -2.08031e-06 0)
(2.63806e-08 -2.08491e-06 0)
(2.63269e-08 -2.08952e-06 0)
(2.62731e-08 -2.09412e-06 0)
(2.6219e-08 -2.09873e-06 0)
(2.61647e-08 -2.10333e-06 0)
(2.61102e-08 -2.10794e-06 0)
(2.60555e-08 -2.11255e-06 0)
(2.60005e-08 -2.11716e-06 0)
(2.59454e-08 -2.12177e-06 0)
(2.58901e-08 -2.12639e-06 0)
(2.58345e-08 -2.131e-06 0)
(2.57787e-08 -2.13561e-06 0)
(2.57228e-08 -2.14023e-06 0)
(2.56666e-08 -2.14485e-06 0)
(2.56102e-08 -2.14946e-06 0)
(2.55535e-08 -2.15408e-06 0)
(2.54967e-08 -2.1587e-06 0)
(2.54397e-08 -2.16332e-06 0)
(2.53824e-08 -2.16794e-06 0)
(2.5325e-08 -2.17256e-06 0)
(2.52673e-08 -2.17718e-06 0)
(2.52094e-08 -2.1818e-06 0)
(2.51513e-08 -2.18642e-06 0)
(2.5093e-08 -2.19104e-06 0)
(2.50345e-08 -2.19566e-06 0)
(2.49757e-08 -2.20028e-06 0)
(2.49168e-08 -2.2049e-06 0)
(2.48576e-08 -2.20953e-06 0)
(2.47983e-08 -2.21415e-06 0)
(2.47387e-08 -2.21877e-06 0)
(2.46789e-08 -2.22339e-06 0)
(2.46189e-08 -2.22801e-06 0)
(2.45587e-08 -2.23263e-06 0)
(2.44983e-08 -2.23725e-06 0)
(2.44376e-08 -2.24187e-06 0)
(2.43768e-08 -2.24648e-06 0)
(2.43157e-08 -2.2511e-06 0)
(2.42545e-08 -2.25572e-06 0)
(2.4193e-08 -2.26034e-06 0)
(2.41313e-08 -2.26495e-06 0)
(2.40694e-08 -2.26956e-06 0)
(2.40073e-08 -2.27418e-06 0)
(2.3945e-08 -2.27879e-06 0)
(2.38825e-08 -2.2834e-06 0)
(2.38198e-08 -2.28801e-06 0)
(2.37569e-08 -2.29262e-06 0)
(2.36937e-08 -2.29723e-06 0)
(2.36304e-08 -2.30183e-06 0)
(2.35668e-08 -2.30644e-06 0)
(2.35031e-08 -2.31104e-06 0)
(2.34391e-08 -2.31564e-06 0)
(2.33749e-08 -2.32024e-06 0)
(2.33106e-08 -2.32483e-06 0)
(2.3246e-08 -2.32943e-06 0)
(2.31812e-08 -2.33402e-06 0)
(2.31162e-08 -2.33861e-06 0)
(2.3051e-08 -2.3432e-06 0)
(2.29856e-08 -2.34779e-06 0)
(2.292e-08 -2.35238e-06 0)
(2.28542e-08 -2.35696e-06 0)
(2.27882e-08 -2.36154e-06 0)
(2.2722e-08 -2.36612e-06 0)
(2.26557e-08 -2.37069e-06 0)
(2.25891e-08 -2.37526e-06 0)
(2.25223e-08 -2.37983e-06 0)
(2.24553e-08 -2.3844e-06 0)
(2.23881e-08 -2.38896e-06 0)
(2.23207e-08 -2.39352e-06 0)
(2.22531e-08 -2.39808e-06 0)
(2.21853e-08 -2.40264e-06 0)
(2.21173e-08 -2.40719e-06 0)
(2.20492e-08 -2.41173e-06 0)
(2.19808e-08 -2.41628e-06 0)
(2.19122e-08 -2.42082e-06 0)
(2.18435e-08 -2.42536e-06 0)
(2.17745e-08 -2.42989e-06 0)
(2.17055e-08 -2.43442e-06 0)
(2.16358e-08 -2.43895e-06 0)
(2.1568e-08 -2.44345e-06 0)
(2.15027e-08 -2.44773e-06 0)
(2.14385e-08 -2.4518e-06 0)
(2.1375e-08 -2.45584e-06 0)
(2.13112e-08 -2.45992e-06 0)
(2.12467e-08 -2.46404e-06 0)
(2.11816e-08 -2.46821e-06 0)
(2.11157e-08 -2.4724e-06 0)
(2.10491e-08 -2.47662e-06 0)
(2.09817e-08 -2.48087e-06 0)
(2.09136e-08 -2.48516e-06 0)
(2.08448e-08 -2.48948e-06 0)
(2.07752e-08 -2.49383e-06 0)
(2.07048e-08 -2.49821e-06 0)
(2.06336e-08 -2.50263e-06 0)
(2.05617e-08 -2.50708e-06 0)
(2.0489e-08 -2.51156e-06 0)
(2.04155e-08 -2.51607e-06 0)
(2.03412e-08 -2.52062e-06 0)
(2.0266e-08 -2.5252e-06 0)
(2.01901e-08 -2.52981e-06 0)
(2.01134e-08 -2.53446e-06 0)
(2.00358e-08 -2.53913e-06 0)
(1.99573e-08 -2.54384e-06 0)
(1.98781e-08 -2.54858e-06 0)
(1.9798e-08 -2.55336e-06 0)
(1.9717e-08 -2.55816e-06 0)
(1.96351e-08 -2.563e-06 0)
(1.95524e-08 -2.56787e-06 0)
(1.94688e-08 -2.57278e-06 0)
(1.93844e-08 -2.57771e-06 0)
(1.9299e-08 -2.58268e-06 0)
(1.92127e-08 -2.58767e-06 0)
(1.91256e-08 -2.5927e-06 0)
(1.90375e-08 -2.59776e-06 0)
(1.89485e-08 -2.60286e-06 0)
(1.88585e-08 -2.60798e-06 0)
(1.87677e-08 -2.61313e-06 0)
(1.86759e-08 -2.61832e-06 0)
(1.85832e-08 -2.62353e-06 0)
(1.84895e-08 -2.62878e-06 0)
(1.83948e-08 -2.63405e-06 0)
(1.82992e-08 -2.63936e-06 0)
(1.82026e-08 -2.64469e-06 0)
(1.81051e-08 -2.65006e-06 0)
(1.80066e-08 -2.65545e-06 0)
(1.79071e-08 -2.66087e-06 0)
(1.78066e-08 -2.66632e-06 0)
(1.77051e-08 -2.6718e-06 0)
(1.76026e-08 -2.67731e-06 0)
(1.74991e-08 -2.68284e-06 0)
(1.73946e-08 -2.6884e-06 0)
(1.72891e-08 -2.69399e-06 0)
(1.71826e-08 -2.6996e-06 0)
(1.70751e-08 -2.70524e-06 0)
(1.69665e-08 -2.7109e-06 0)
(1.68569e-08 -2.71659e-06 0)
(1.67463e-08 -2.72231e-06 0)
(1.66347e-08 -2.72804e-06 0)
(1.6522e-08 -2.7338e-06 0)
(1.64083e-08 -2.73959e-06 0)
(1.62935e-08 -2.74539e-06 0)
(1.61777e-08 -2.75122e-06 0)
(1.60609e-08 -2.75707e-06 0)
(1.5943e-08 -2.76294e-06 0)
(1.58241e-08 -2.76882e-06 0)
(1.57041e-08 -2.77473e-06 0)
(1.55831e-08 -2.78066e-06 0)
(1.54611e-08 -2.7866e-06 0)
(1.5338e-08 -2.79256e-06 0)
(1.52138e-08 -2.79854e-06 0)
(1.50887e-08 -2.80453e-06 0)
(1.49625e-08 -2.81054e-06 0)
(1.48352e-08 -2.81656e-06 0)
(1.47069e-08 -2.8226e-06 0)
(1.45776e-08 -2.82864e-06 0)
(1.44473e-08 -2.8347e-06 0)
(1.4316e-08 -2.84077e-06 0)
(1.41836e-08 -2.84685e-06 0)
(1.40502e-08 -2.85294e-06 0)
(1.39158e-08 -2.85903e-06 0)
(1.37805e-08 -2.86514e-06 0)
(1.36441e-08 -2.87124e-06 0)
(1.35068e-08 -2.87736e-06 0)
(1.33684e-08 -2.88347e-06 0)
(1.32291e-08 -2.88959e-06 0)
(1.30889e-08 -2.89571e-06 0)
(1.29477e-08 -2.90183e-06 0)
(1.28056e-08 -2.90795e-06 0)
(1.26625e-08 -2.91407e-06 0)
(1.25186e-08 -2.92018e-06 0)
(1.23737e-08 -2.92629e-06 0)
(1.22279e-08 -2.93239e-06 0)
(1.20813e-08 -2.93849e-06 0)
(1.19338e-08 -2.94458e-06 0)
(1.17855e-08 -2.95066e-06 0)
(1.16364e-08 -2.95672e-06 0)
(1.14864e-08 -2.96278e-06 0)
(1.13357e-08 -2.96882e-06 0)
(1.11842e-08 -2.97484e-06 0)
(1.10319e-08 -2.98085e-06 0)
(1.08789e-08 -2.98684e-06 0)
(1.07252e-08 -2.99281e-06 0)
(1.05708e-08 -2.99876e-06 0)
(1.04158e-08 -3.00469e-06 0)
(1.02601e-08 -3.01059e-06 0)
(1.01037e-08 -3.01647e-06 0)
(9.94683e-09 -3.02231e-06 0)
(9.78935e-09 -3.02813e-06 0)
(9.63134e-09 -3.03392e-06 0)
(9.47281e-09 -3.03967e-06 0)
(9.3138e-09 -3.0454e-06 0)
(9.15434e-09 -3.05108e-06 0)
(8.99445e-09 -3.05673e-06 0)
(8.83417e-09 -3.06233e-06 0)
(8.67354e-09 -3.0679e-06 0)
(8.51258e-09 -3.07342e-06 0)
(8.35133e-09 -3.0789e-06 0)
(8.18982e-09 -3.08433e-06 0)
(8.02808e-09 -3.08972e-06 0)
(7.86617e-09 -3.09505e-06 0)
(7.7041e-09 -3.10033e-06 0)
(7.54192e-09 -3.10556e-06 0)
(7.37968e-09 -3.11073e-06 0)
(7.2174e-09 -3.11584e-06 0)
(7.05513e-09 -3.12089e-06 0)
(6.89291e-09 -3.12589e-06 0)
(6.73078e-09 -3.13081e-06 0)
(6.56878e-09 -3.13568e-06 0)
(6.40697e-09 -3.14047e-06 0)
(6.24537e-09 -3.1452e-06 0)
(6.08404e-09 -3.14986e-06 0)
(5.92302e-09 -3.15444e-06 0)
(5.76236e-09 -3.15895e-06 0)
(5.6021e-09 -3.16338e-06 0)
(5.4423e-09 -3.16773e-06 0)
(5.28298e-09 -3.17201e-06 0)
(5.12422e-09 -3.1762e-06 0)
(4.96605e-09 -3.18031e-06 0)
(4.80852e-09 -3.18433e-06 0)
(4.65168e-09 -3.18826e-06 0)
(4.49559e-09 -3.19211e-06 0)
(4.34028e-09 -3.19586e-06 0)
(4.18581e-09 -3.19952e-06 0)
(4.03224e-09 -3.20309e-06 0)
(3.87961e-09 -3.20656e-06 0)
(3.72796e-09 -3.20994e-06 0)
(3.57736e-09 -3.21321e-06 0)
(3.42786e-09 -3.21638e-06 0)
(3.27949e-09 -3.21945e-06 0)
(3.13232e-09 -3.22242e-06 0)
(2.98639e-09 -3.22528e-06 0)
(2.84176e-09 -3.22803e-06 0)
(2.69847e-09 -3.23068e-06 0)
(2.55657e-09 -3.23322e-06 0)
(2.41611e-09 -3.23564e-06 0)
(2.27715e-09 -3.23795e-06 0)
(2.13972e-09 -3.24015e-06 0)
(2.00388e-09 -3.24224e-06 0)
(1.86967e-09 -3.24421e-06 0)
(1.73714e-09 -3.24606e-06 0)
(1.60633e-09 -3.24779e-06 0)
(1.4773e-09 -3.24941e-06 0)
(1.35008e-09 -3.25091e-06 0)
(1.22472e-09 -3.25228e-06 0)
(1.10125e-09 -3.25354e-06 0)
(9.79732e-10 -3.25467e-06 0)
(8.6019e-10 -3.25568e-06 0)
(7.42669e-10 -3.25657e-06 0)
(6.27206e-10 -3.25734e-06 0)
(5.13839e-10 -3.25798e-06 0)
(4.02603e-10 -3.2585e-06 0)
(2.93535e-10 -3.25889e-06 0)
(1.86666e-10 -3.25916e-06 0)
(8.20311e-11 -3.2593e-06 0)
(-2.03403e-11 -3.25932e-06 0)
(-1.20414e-10 -3.25922e-06 0)
(-2.18177e-10 -3.25899e-06 0)
(-3.13532e-10 -3.25864e-06 0)
(-4.0676e-10 -3.25816e-06 0)
(-4.96622e-10 -3.25756e-06 0)
(-5.88582e-10 -3.25683e-06 0)
(-6.84853e-10 -3.25589e-06 0)
(-7.81337e-10 -3.25469e-06 0)
(-8.76231e-10 -3.25333e-06 0)
(-9.66827e-10 -3.25181e-06 0)
(-1.05298e-09 -3.25016e-06 0)
(-1.13474e-09 -3.24836e-06 0)
(-1.21217e-09 -3.24645e-06 0)
(-1.2854e-09 -3.24441e-06 0)
(-1.35453e-09 -3.24225e-06 0)
(-1.41971e-09 -3.23999e-06 0)
(-1.48105e-09 -3.23762e-06 0)
(-1.53867e-09 -3.23516e-06 0)
(-1.59268e-09 -3.23261e-06 0)
(-1.6432e-09 -3.22997e-06 0)
(-1.69034e-09 -3.22726e-06 0)
(-1.7342e-09 -3.22447e-06 0)
(-1.77489e-09 -3.22161e-06 0)
(-1.8125e-09 -3.21869e-06 0)
(-1.84714e-09 -3.21571e-06 0)
(-1.87889e-09 -3.21268e-06 0)
(-1.90785e-09 -3.2096e-06 0)
(-1.9341e-09 -3.20648e-06 0)
(-1.95774e-09 -3.20331e-06 0)
(-1.97883e-09 -3.20011e-06 0)
(-1.99747e-09 -3.19688e-06 0)
(-2.01372e-09 -3.19362e-06 0)
(-2.02766e-09 -3.19034e-06 0)
(-2.03937e-09 -3.18703e-06 0)
(-2.0489e-09 -3.18371e-06 0)
(-2.05634e-09 -3.18037e-06 0)
(-2.06173e-09 -3.17703e-06 0)
(-2.06515e-09 -3.17368e-06 0)
(-2.06665e-09 -3.17032e-06 0)
(-2.06629e-09 -3.16696e-06 0)
(-2.06412e-09 -3.16361e-06 0)
(-2.0602e-09 -3.16026e-06 0)
(-2.05458e-09 -3.15691e-06 0)
(-2.0473e-09 -3.15358e-06 0)
(-2.03842e-09 -3.15026e-06 0)
(-2.02799e-09 -3.14696e-06 0)
(-2.01604e-09 -3.14368e-06 0)
(-2.00261e-09 -3.14041e-06 0)
(-1.98776e-09 -3.13717e-06 0)
(-1.97152e-09 -3.13396e-06 0)
(-1.95393e-09 -3.13077e-06 0)
(-1.93502e-09 -3.12761e-06 0)
(-1.91483e-09 -3.12448e-06 0)
(-1.8934e-09 -3.12139e-06 0)
(-1.87076e-09 -3.11833e-06 0)
(-1.84695e-09 -3.11532e-06 0)
(-1.82199e-09 -3.11234e-06 0)
(-1.79592e-09 -3.1094e-06 0)
(-1.76876e-09 -3.1065e-06 0)
(-1.74055e-09 -3.10365e-06 0)
(-1.71131e-09 -3.10085e-06 0)
(-1.68108e-09 -3.09809e-06 0)
(-1.64988e-09 -3.09539e-06 0)
(-1.61774e-09 -3.09273e-06 0)
(-1.58468e-09 -3.09013e-06 0)
(-1.55074e-09 -3.08759e-06 0)
(-1.51593e-09 -3.08509e-06 0)
(-1.48028e-09 -3.08266e-06 0)
(-1.44381e-09 -3.08028e-06 0)
(-1.40656e-09 -3.07797e-06 0)
(-1.36855e-09 -3.07571e-06 0)
(-1.32979e-09 -3.07352e-06 0)
(-1.29032e-09 -3.07139e-06 0)
(-1.25016e-09 -3.06933e-06 0)
(-1.20934e-09 -3.06732e-06 0)
(-1.16786e-09 -3.06539e-06 0)
(-1.12577e-09 -3.06353e-06 0)
(-1.08308e-09 -3.06173e-06 0)
(-1.03982e-09 -3.06e-06 0)
(-9.96015e-10 -3.05835e-06 0)
(-9.51679e-10 -3.05676e-06 0)
(-9.06844e-10 -3.05525e-06 0)
(-8.61529e-10 -3.05381e-06 0)
(-8.1576e-10 -3.05244e-06 0)
(-7.6956e-10 -3.05115e-06 0)
(-7.22954e-10 -3.04994e-06 0)
(-6.75964e-10 -3.04879e-06 0)
(-6.28615e-10 -3.04773e-06 0)
(-5.8093e-10 -3.04674e-06 0)
(-5.32935e-10 -3.04583e-06 0)
(-4.84651e-10 -3.04499e-06 0)
(-4.36105e-10 -3.04426e-06 0)
(-3.87318e-10 -3.04352e-06 0)
(-3.38323e-10 -3.04314e-06 0)
(-2.89118e-10 -3.04191e-06 0)
(-2.39807e-10 -3.04379e-06 0)
(-1.90192e-10 -3.03552e-06 0)
(-1.40962e-10 -3.05995e-06 0)
(-9.06155e-11 -2.96816e-06 0)
(-4.2625e-11 -3.21184e-06 0)
(-1.03573e-11 -2.80521e-06 0)
)
;
    }
    bottomWall
    {
        type            calculated;
        value           nonuniform List<vector> 
449
(
(-48.4915 -0.963525 0)
(-19.7391 -0.0051498 0)
(-14.3395 -0.00113245 0)
(-12.0379 -0.000542692 0)
(-10.6428 -0.000347032 0)
(-9.66835 -0.00024769 0)
(-8.9476 -0.000181425 0)
(-8.4237 -0.000122025 0)
(-8.10881 -4.75981e-05 0)
(-8.0973 8.576e-05 0)
(-8.70595 0.000267006 0)
(-9.94981 0.000331443 0)
(-11.0041 0.000246105 0)
(-11.6585 0.000145966 0)
(-12.0206 8.00231e-05 0)
(-12.2174 4.18196e-05 0)
(-12.3134 1.80611e-05 0)
(-12.3441 1.83814e-06 0)
(-12.3263 -8.74724e-06 0)
(-12.2823 -1.50228e-05 0)
(-12.22 -1.91869e-05 0)
(-12.1463 -2.15295e-05 0)
(-12.067 -2.2596e-05 0)
(-11.9853 -2.29087e-05 0)
(-11.9034 -2.27778e-05 0)
(-11.8223 -2.24031e-05 0)
(-11.7427 -2.18735e-05 0)
(-11.665 -2.12294e-05 0)
(-11.5896 -2.05362e-05 0)
(-11.5166 -1.98271e-05 0)
(-11.4461 -1.91216e-05 0)
(-11.3778 -1.84313e-05 0)
(-11.3119 -1.77635e-05 0)
(-11.2483 -1.71206e-05 0)
(-11.1868 -1.65143e-05 0)
(-11.1273 -1.59458e-05 0)
(-11.0696 -1.5398e-05 0)
(-11.0139 -1.48683e-05 0)
(-10.9599 -1.43643e-05 0)
(-10.9076 -1.38858e-05 0)
(-10.8569 -1.34315e-05 0)
(-10.8078 -1.30007e-05 0)
(-10.7601 -1.25938e-05 0)
(-10.7137 -1.22069e-05 0)
(-10.6687 -1.18386e-05 0)
(-10.6249 -1.1488e-05 0)
(-10.5823 -1.11567e-05 0)
(-10.5408 -1.08391e-05 0)
(-10.5004 -1.05452e-05 0)
(-10.4609 -1.02868e-05 0)
(-10.4223 -1.00539e-05 0)
(-10.3844 -9.83497e-06 0)
(-10.3473 -9.62268e-06 0)
(-10.3109 -9.41379e-06 0)
(-10.2751 -9.20874e-06 0)
(-10.2401 -9.00584e-06 0)
(-10.2058 -8.80755e-06 0)
(-10.1721 -8.61558e-06 0)
(-10.1391 -8.42811e-06 0)
(-10.1068 -8.24613e-06 0)
(-10.075 -8.07061e-06 0)
(-10.0439 -7.90198e-06 0)
(-10.0133 -7.73793e-06 0)
(-9.98331 -7.57798e-06 0)
(-9.95386 -7.42278e-06 0)
(-9.92493 -7.27416e-06 0)
(-9.89651 -7.13052e-06 0)
(-9.86858 -6.9914e-06 0)
(-9.84113 -6.85539e-06 0)
(-9.81415 -6.72757e-06 0)
(-9.78758 -6.6056e-06 0)
(-9.76145 -6.4834e-06 0)
(-9.73574 -6.36358e-06 0)
(-9.71044 -6.24809e-06 0)
(-9.68554 -6.13655e-06 0)
(-9.66102 -6.02662e-06 0)
(-9.63689 -5.91989e-06 0)
(-9.61313 -5.81565e-06 0)
(-9.58973 -5.71435e-06 0)
(-9.56667 -5.61611e-06 0)
(-9.54396 -5.52046e-06 0)
(-9.52158 -5.42749e-06 0)
(-9.49953 -5.33722e-06 0)
(-9.47778 -5.24897e-06 0)
(-9.45635 -5.16305e-06 0)
(-9.43521 -5.0799e-06 0)
(-9.41436 -4.99866e-06 0)
(-9.3938 -4.92083e-06 0)
(-9.3735 -4.84445e-06 0)
(-9.35348 -4.76947e-06 0)
(-9.33371 -4.69676e-06 0)
(-9.3142 -4.62506e-06 0)
(-9.29494 -4.55559e-06 0)
(-9.27592 -4.48763e-06 0)
(-9.25715 -4.42048e-06 0)
(-9.2386 -4.35624e-06 0)
(-9.22028 -4.29282e-06 0)
(-9.20219 -4.23071e-06 0)
(-9.18432 -4.1709e-06 0)
(-9.16665 -4.11142e-06 0)
(-9.1492 -4.05634e-06 0)
(-9.13192 -4.00372e-06 0)
(-9.11483 -3.9494e-06 0)
(-9.09794 -3.89624e-06 0)
(-9.08124 -3.84346e-06 0)
(-9.06472 -3.79136e-06 0)
(-9.04839 -3.74156e-06 0)
(-9.03223 -3.69221e-06 0)
(-9.01625 -3.64326e-06 0)
(-9.00044 -3.59658e-06 0)
(-8.98479 -3.55021e-06 0)
(-8.96932 -3.50411e-06 0)
(-8.954 -3.46031e-06 0)
(-8.93884 -3.41687e-06 0)
(-8.92384 -3.37349e-06 0)
(-8.90899 -3.33216e-06 0)
(-8.89428 -3.29145e-06 0)
(-8.87972 -3.25059e-06 0)
(-8.86531 -3.21133e-06 0)
(-8.85103 -3.17318e-06 0)
(-8.83689 -3.13483e-06 0)
(-8.8229 -3.09748e-06 0)
(-8.80903 -3.06174e-06 0)
(-8.79529 -3.02578e-06 0)
(-8.78168 -2.99008e-06 0)
(-8.76819 -2.95609e-06 0)
(-8.75483 -2.92249e-06 0)
(-8.74159 -2.88884e-06 0)
(-8.72847 -2.85623e-06 0)
(-8.71546 -2.82476e-06 0)
(-8.70257 -2.79314e-06 0)
(-8.6898 -2.76175e-06 0)
(-8.67713 -2.73179e-06 0)
(-8.66457 -2.70229e-06 0)
(-8.65212 -2.67256e-06 0)
(-8.63978 -2.64363e-06 0)
(-8.62754 -2.61596e-06 0)
(-8.6154 -2.5881e-06 0)
(-8.60336 -2.56013e-06 0)
(-8.59142 -2.53348e-06 0)
(-8.57958 -2.50758e-06 0)
(-8.56783 -2.4813e-06 0)
(-8.55618 -2.45531e-06 0)
(-8.54462 -2.43052e-06 0)
(-8.53315 -2.40617e-06 0)
(-8.52176 -2.38142e-06 0)
(-8.51047 -2.35786e-06 0)
(-8.49926 -2.3364e-06 0)
(-8.48812 -2.31469e-06 0)
(-8.47707 -2.29178e-06 0)
(-8.4661 -2.26911e-06 0)
(-8.45521 -2.24728e-06 0)
(-8.4444 -2.22569e-06 0)
(-8.43367 -2.20394e-06 0)
(-8.42302 -2.18254e-06 0)
(-8.41244 -2.16196e-06 0)
(-8.40194 -2.14171e-06 0)
(-8.39152 -2.12128e-06 0)
(-8.38117 -2.10104e-06 0)
(-8.37089 -2.08158e-06 0)
(-8.36068 -2.06263e-06 0)
(-8.35055 -2.04344e-06 0)
(-8.34048 -2.02423e-06 0)
(-8.33049 -2.00579e-06 0)
(-8.32056 -1.98799e-06 0)
(-8.31069 -1.96999e-06 0)
(-8.3009 -1.95185e-06 0)
(-8.29117 -1.93428e-06 0)
(-8.2815 -1.91751e-06 0)
(-8.27189 -1.90058e-06 0)
(-8.26235 -1.88381e-06 0)
(-8.25287 -1.86689e-06 0)
(-8.24346 -1.84853e-06 0)
(-8.23464 -1.83521e-06 0)
(-8.22632 -1.82367e-06 0)
(-8.21798 -1.80762e-06 0)
(-8.20963 -1.79272e-06 0)
(-8.20125 -1.77905e-06 0)
(-8.19284 -1.76527e-06 0)
(-8.18441 -1.75129e-06 0)
(-8.17596 -1.73699e-06 0)
(-8.16748 -1.72319e-06 0)
(-8.15898 -1.70969e-06 0)
(-8.15045 -1.69628e-06 0)
(-8.1419 -1.68244e-06 0)
(-8.13333 -1.66846e-06 0)
(-8.12474 -1.65499e-06 0)
(-8.11612 -1.64177e-06 0)
(-8.10748 -1.62849e-06 0)
(-8.09882 -1.61492e-06 0)
(-8.09013 -1.60137e-06 0)
(-8.08143 -1.58825e-06 0)
(-8.0727 -1.5753e-06 0)
(-8.06395 -1.56217e-06 0)
(-8.05518 -1.54887e-06 0)
(-8.04638 -1.53578e-06 0)
(-8.03757 -1.52297e-06 0)
(-8.02874 -1.51033e-06 0)
(-8.01988 -1.4974e-06 0)
(-8.01101 -1.48435e-06 0)
(-8.00212 -1.47171e-06 0)
(-7.9932 -1.45928e-06 0)
(-7.98427 -1.44678e-06 0)
(-7.97532 -1.43412e-06 0)
(-7.96635 -1.42155e-06 0)
(-7.95736 -1.40929e-06 0)
(-7.94835 -1.3972e-06 0)
(-7.93932 -1.38488e-06 0)
(-7.93028 -1.37246e-06 0)
(-7.92122 -1.3604e-06 0)
(-7.91214 -1.34856e-06 0)
(-7.90304 -1.33673e-06 0)
(-7.89392 -1.32561e-06 0)
(-7.88478 -1.31466e-06 0)
(-7.87562 -1.30315e-06 0)
(-7.86644 -1.29154e-06 0)
(-7.85724 -1.27976e-06 0)
(-7.84803 -1.26802e-06 0)
(-7.8388 -1.25661e-06 0)
(-7.82956 -1.24535e-06 0)
(-7.8203 -1.23388e-06 0)
(-7.81103 -1.22236e-06 0)
(-7.80174 -1.21119e-06 0)
(-7.79244 -1.20026e-06 0)
(-7.78312 -1.18909e-06 0)
(-7.77379 -1.17782e-06 0)
(-7.76445 -1.1669e-06 0)
(-7.75509 -1.15624e-06 0)
(-7.74572 -1.14539e-06 0)
(-7.73633 -1.13442e-06 0)
(-7.72694 -1.12376e-06 0)
(-7.71753 -1.11336e-06 0)
(-7.70811 -1.10281e-06 0)
(-7.69867 -1.09214e-06 0)
(-7.68923 -1.08175e-06 0)
(-7.67977 -1.07161e-06 0)
(-7.6703 -1.06135e-06 0)
(-7.66082 -1.05096e-06 0)
(-7.65133 -1.04086e-06 0)
(-7.64183 -1.03099e-06 0)
(-7.63231 -1.021e-06 0)
(-7.62279 -1.01091e-06 0)
(-7.61326 -1.0011e-06 0)
(-7.60372 -9.91511e-07 0)
(-7.59417 -9.81778e-07 0)
(-7.58461 -9.71971e-07 0)
(-7.57504 -9.62457e-07 0)
(-7.56546 -9.53135e-07 0)
(-7.55587 -9.43649e-07 0)
(-7.54628 -9.34134e-07 0)
(-7.53668 -9.24917e-07 0)
(-7.52706 -9.15827e-07 0)
(-7.51744 -9.06597e-07 0)
(-7.50782 -8.97408e-07 0)
(-7.49819 -8.88478e-07 0)
(-7.48855 -8.79612e-07 0)
(-7.4789 -8.70644e-07 0)
(-7.46925 -8.61777e-07 0)
(-7.45959 -8.53127e-07 0)
(-7.44993 -8.44476e-07 0)
(-7.44026 -8.35759e-07 0)
(-7.43058 -8.27201e-07 0)
(-7.4209 -8.18831e-07 0)
(-7.41122 -8.10397e-07 0)
(-7.40153 -8.0194e-07 0)
(-7.39184 -7.93693e-07 0)
(-7.38214 -7.85565e-07 0)
(-7.37244 -7.77356e-07 0)
(-7.36273 -7.69189e-07 0)
(-7.35303 -7.61224e-07 0)
(-7.34332 -7.53302e-07 0)
(-7.3336 -7.45333e-07 0)
(-7.32389 -7.37789e-07 0)
(-7.31416 -7.30663e-07 0)
(-7.30442 -7.23186e-07 0)
(-7.29469 -7.15429e-07 0)
(-7.28495 -7.07849e-07 0)
(-7.27521 -7.00425e-07 0)
(-7.26547 -6.93e-07 0)
(-7.25573 -6.8559e-07 0)
(-7.24598 -6.78305e-07 0)
(-7.23624 -6.71018e-07 0)
(-7.2265 -6.63698e-07 0)
(-7.21675 -6.56517e-07 0)
(-7.20701 -6.49472e-07 0)
(-7.19727 -6.42379e-07 0)
(-7.18753 -6.3531e-07 0)
(-7.17779 -6.28417e-07 0)
(-7.16806 -6.21565e-07 0)
(-7.15832 -6.14673e-07 0)
(-7.14859 -6.07901e-07 0)
(-7.13887 -6.01264e-07 0)
(-7.12914 -5.94588e-07 0)
(-7.11942 -5.87925e-07 0)
(-7.1097 -5.8144e-07 0)
(-7.09998 -5.74988e-07 0)
(-7.09027 -5.68507e-07 0)
(-7.08057 -5.62135e-07 0)
(-7.07086 -5.55889e-07 0)
(-7.06116 -5.49604e-07 0)
(-7.05147 -5.43353e-07 0)
(-7.04179 -5.3726e-07 0)
(-7.0321 -5.31188e-07 0)
(-7.02243 -5.25094e-07 0)
(-7.01276 -5.19124e-07 0)
(-7.0031 -5.13247e-07 0)
(-6.99344 -5.07343e-07 0)
(-6.98379 -5.01487e-07 0)
(-6.97415 -4.95782e-07 0)
(-6.96451 -4.90067e-07 0)
(-6.95489 -4.84351e-07 0)
(-6.94527 -4.7877e-07 0)
(-6.93565 -4.73246e-07 0)
(-6.92605 -4.67699e-07 0)
(-6.91646 -4.62239e-07 0)
(-6.90687 -4.5689e-07 0)
(-6.8973 -4.51523e-07 0)
(-6.88773 -4.4618e-07 0)
(-6.87817 -4.40983e-07 0)
(-6.86862 -4.35793e-07 0)
(-6.85909 -4.30598e-07 0)
(-6.84956 -4.25521e-07 0)
(-6.84005 -4.20506e-07 0)
(-6.83054 -4.15473e-07 0)
(-6.82105 -4.10517e-07 0)
(-6.81156 -4.05662e-07 0)
(-6.80209 -4.00794e-07 0)
(-6.79263 -3.95959e-07 0)
(-6.78319 -3.9125e-07 0)
(-6.77375 -3.86794e-07 0)
(-6.76431 -3.82366e-07 0)
(-6.75489 -3.77796e-07 0)
(-6.74548 -3.73248e-07 0)
(-6.73608 -3.68694e-07 0)
(-6.72669 -3.64233e-07 0)
(-6.71732 -3.59863e-07 0)
(-6.70796 -3.55484e-07 0)
(-6.69861 -3.51126e-07 0)
(-6.68928 -3.46865e-07 0)
(-6.67996 -3.42596e-07 0)
(-6.67065 -3.38352e-07 0)
(-6.66136 -3.34215e-07 0)
(-6.65209 -3.30096e-07 0)
(-6.64283 -3.25982e-07 0)
(-6.63359 -3.21965e-07 0)
(-6.62435 -3.17981e-07 0)
(-6.61514 -3.14007e-07 0)
(-6.60594 -3.10097e-07 0)
(-6.59676 -3.06253e-07 0)
(-6.58759 -3.02388e-07 0)
(-6.57845 -2.98616e-07 0)
(-6.56931 -2.94808e-07 0)
(-6.5602 -2.91158e-07 0)
(-6.5511 -2.87637e-07 0)
(-6.54099 -2.83404e-07 0)
(-6.53 -2.7888e-07 0)
(-6.51918 -2.74783e-07 0)
(-6.5085 -2.70771e-07 0)
(-6.498 -2.66764e-07 0)
(-6.48764 -2.62894e-07 0)
(-6.47743 -2.59096e-07 0)
(-6.46737 -2.55379e-07 0)
(-6.45746 -2.51776e-07 0)
(-6.44767 -2.48238e-07 0)
(-6.43804 -2.44775e-07 0)
(-6.42853 -2.41423e-07 0)
(-6.41916 -2.38129e-07 0)
(-6.4099 -2.34897e-07 0)
(-6.40078 -2.31775e-07 0)
(-6.39177 -2.28704e-07 0)
(-6.38289 -2.2569e-07 0)
(-6.37412 -2.22773e-07 0)
(-6.36547 -2.1991e-07 0)
(-6.35692 -2.1709e-07 0)
(-6.34849 -2.14357e-07 0)
(-6.34015 -2.1168e-07 0)
(-6.33193 -2.09044e-07 0)
(-6.3238 -2.06476e-07 0)
(-6.31578 -2.03977e-07 0)
(-6.30785 -2.01509e-07 0)
(-6.30002 -1.99098e-07 0)
(-6.29227 -1.96767e-07 0)
(-6.28463 -1.94474e-07 0)
(-6.27706 -1.92195e-07 0)
(-6.26959 -1.89986e-07 0)
(-6.2622 -1.87897e-07 0)
(-6.2549 -1.8585e-07 0)
(-6.24767 -1.83777e-07 0)
(-6.24052 -1.8175e-07 0)
(-6.23345 -1.79748e-07 0)
(-6.22647 -1.7777e-07 0)
(-6.21955 -1.75829e-07 0)
(-6.21271 -1.73947e-07 0)
(-6.20594 -1.72081e-07 0)
(-6.19925 -1.70244e-07 0)
(-6.19262 -1.68447e-07 0)
(-6.18608 -1.66705e-07 0)
(-6.17959 -1.6497e-07 0)
(-6.17318 -1.63266e-07 0)
(-6.16682 -1.61596e-07 0)
(-6.16054 -1.59981e-07 0)
(-6.1543 -1.58367e-07 0)
(-6.14815 -1.56787e-07 0)
(-6.14204 -1.55228e-07 0)
(-6.13601 -1.53729e-07 0)
(-6.13002 -1.52223e-07 0)
(-6.1241 -1.50756e-07 0)
(-6.11823 -1.49293e-07 0)
(-6.11243 -1.47898e-07 0)
(-6.10666 -1.46491e-07 0)
(-6.10097 -1.45134e-07 0)
(-6.09531 -1.43752e-07 0)
(-6.08973 -1.42456e-07 0)
(-6.08417 -1.41141e-07 0)
(-6.07869 -1.39888e-07 0)
(-6.07322 -1.38581e-07 0)
(-6.06785 -1.37381e-07 0)
(-6.06248 -1.36137e-07 0)
(-6.0572 -1.34993e-07 0)
(-6.05192 -1.33765e-07 0)
(-6.04674 -1.32654e-07 0)
(-6.04155 -1.31465e-07 0)
(-6.03646 -1.30421e-07 0)
(-6.03135 -1.29261e-07 0)
(-6.02635 -1.28247e-07 0)
(-6.02132 -1.27106e-07 0)
(-6.01641 -1.26155e-07 0)
(-6.01145 -1.25056e-07 0)
(-6.00663 -1.24153e-07 0)
(-6.00174 -1.23058e-07 0)
(-5.997 -1.22201e-07 0)
(-5.99218 -1.21145e-07 0)
(-5.98753 -1.2036e-07 0)
(-5.98277 -1.19325e-07 0)
(-5.97819 -1.18584e-07 0)
(-5.97349 -1.17588e-07 0)
(-5.969 -1.16908e-07 0)
(-5.96435 -1.16031e-07 0)
(-5.95992 -1.153e-07 0)
(-5.95533 -1.14814e-07 0)
(-5.95094 -1.13461e-07 0)
(-5.94646 -1.1468e-07 0)
(-5.94197 -1.10283e-07 0)
(-5.93785 -1.18193e-07 0)
(-5.9327 -1.01218e-07 0)
(-5.92997 -1.31318e-07 0)
(-5.92235 -7.96897e-08 0)
(-5.9239 -1.09832e-07 0)
(-5.91348 -1.38123e-07 0)
)
;
    }
    symmetry
    {
        type            symmetryPlane;
    }
    frontAndBack
    {
        type            empty;
    }
}


// ************************************************************************* //
