/*--------------------------------*- C++ -*----------------------------------*\
| =========                 |                                                 |
| \\      /  F ield         | OpenFOAM: The Open Source CFD Toolbox           |
|  \\    /   O peration     | Version:  v2012                                 |
|   \\  /    A nd           | Website:  www.openfoam.com                      |
|    \\/     M anipulation  |                                                 |
\*---------------------------------------------------------------------------*/
FoamFile
{
    version     2.0;
    format      ascii;
    class       volScalarField;
    location    "44.5";
    object      yPlus;
}
// * * * * * * * * * * * * * * * * * * * * * * * * * * * * * * * * * * * * * //

dimensions      [0 0 0 0 0 0 0];


internalField   uniform 0;

boundaryField
{
    inlet
    {
        type            calculated;
        value           uniform 0;
    }
    outlet
    {
        type            calculated;
        value           uniform 0;
    }
    topWall
    {
        type            calculated;
        value           nonuniform List<scalar> 
545
(
0.111339
0.191981
0.246294
0.289518
0.326112
0.358133
0.386736
0.412649
0.436366
0.458244
0.478548
0.497486
0.51522
0.531884
0.547587
0.562421
0.576465
0.589785
0.60244
0.614481
0.625953
0.636896
0.647345
0.657333
0.666888
0.676037
0.684804
0.693211
0.701277
0.709022
0.716462
0.723613
0.73049
0.737106
0.743475
0.749607
0.755514
0.761207
0.766695
0.771987
0.777092
0.782018
0.786773
0.791364
0.795797
0.80008
0.804218
0.808218
0.812084
0.815822
0.819437
0.822934
0.826318
0.829591
0.83276
0.835827
0.838797
0.841672
0.844457
0.847154
0.849768
0.852299
0.854753
0.857131
0.859436
0.86167
0.863836
0.865937
0.867973
0.869949
0.871865
0.873724
0.875504
0.877226
0.878935
0.88063
0.882311
0.88398
0.885635
0.887278
0.888908
0.890524
0.892129
0.893721
0.8953
0.896868
0.898423
0.899966
0.901498
0.903018
0.904526
0.906022
0.907507
0.908981
0.910444
0.911896
0.913204
0.914374
0.915544
0.916714
0.917883
0.919053
0.920223
0.921392
0.922561
0.92373
0.924899
0.926068
0.927237
0.928405
0.929573
0.930741
0.931909
0.933077
0.934245
0.935412
0.936579
0.937746
0.938912
0.940079
0.941245
0.942411
0.943576
0.944742
0.945907
0.947071
0.948236
0.9494
0.950564
0.951727
0.952891
0.954054
0.955216
0.956378
0.95754
0.958702
0.959863
0.961024
0.962184
0.963344
0.964504
0.965663
0.966821
0.96798
0.969138
0.970295
0.971452
0.972609
0.973765
0.97492
0.976076
0.97723
0.978384
0.979538
0.980691
0.981844
0.982996
0.984147
0.985298
0.986449
0.987598
0.988748
0.989896
0.991044
0.992192
0.993339
0.994485
0.99563
0.996775
0.997919
0.999063
1.00021
1.00135
1.00249
1.00363
1.00477
1.00591
1.00705
1.00819
1.00932
1.01046
1.0116
1.01273
1.01386
1.015
1.01613
1.01726
1.01839
1.01952
1.02065
1.02178
1.02291
1.02403
1.02516
1.02628
1.02741
1.02853
1.02965
1.03077
1.03189
1.03301
1.03413
1.03525
1.03636
1.03748
1.03859
1.0397
1.04082
1.04193
1.04304
1.04415
1.04525
1.04636
1.04746
1.04857
1.04967
1.05077
1.05187
1.05297
1.05407
1.05517
1.05627
1.05736
1.05845
1.05955
1.06064
1.06173
1.06281
1.0639
1.06499
1.06607
1.06715
1.06824
1.06932
1.0704
1.07147
1.07255
1.07362
1.0747
1.07577
1.07684
1.07791
1.07898
1.08004
1.08111
1.08217
1.08323
1.08429
1.08535
1.0864
1.08746
1.08851
1.08957
1.09062
1.09166
1.09271
1.09376
1.0948
1.09584
1.09688
1.09792
1.09896
1.09999
1.10103
1.10206
1.10309
1.10412
1.10514
1.10617
1.10713
1.10804
1.10896
1.10988
1.11082
1.11175
1.1127
1.11365
1.1146
1.11556
1.11653
1.11751
1.11849
1.11948
1.12047
1.12147
1.12248
1.1235
1.12452
1.12554
1.12658
1.12762
1.12866
1.12971
1.13077
1.13183
1.1329
1.13398
1.13506
1.13615
1.13724
1.13834
1.13945
1.14056
1.14168
1.1428
1.14393
1.14507
1.14621
1.14735
1.1485
1.14966
1.15082
1.15199
1.15316
1.15434
1.15552
1.15671
1.1579
1.15909
1.16029
1.1615
1.16271
1.16392
1.16514
1.16636
1.16759
1.16882
1.17005
1.17129
1.17253
1.17377
1.17502
1.17627
1.17753
1.17878
1.18004
1.1813
1.18256
1.18383
1.1851
1.18637
1.18764
1.18891
1.19018
1.19146
1.19273
1.19401
1.19528
1.19656
1.19784
1.19911
1.20039
1.20167
1.20294
1.20421
1.20549
1.20676
1.20803
1.20929
1.21056
1.21182
1.21308
1.21434
1.21559
1.21684
1.21809
1.21933
1.22056
1.2218
1.22302
1.22425
1.22546
1.22668
1.22788
1.22908
1.23027
1.23145
1.23263
1.2338
1.23496
1.23611
1.23726
1.23839
1.23952
1.24063
1.24174
1.24284
1.24392
1.24499
1.24606
1.24711
1.24815
1.24917
1.25019
1.25119
1.25217
1.25315
1.2541
1.25505
1.25598
1.25689
1.25779
1.25867
1.25954
1.26039
1.26122
1.26204
1.26284
1.26362
1.26438
1.26513
1.26585
1.26656
1.26725
1.26791
1.26856
1.26919
1.26979
1.27038
1.27094
1.27149
1.27201
1.27251
1.27299
1.27344
1.27388
1.27429
1.27467
1.27504
1.27538
1.2757
1.27599
1.27626
1.27651
1.27673
1.27693
1.27711
1.27726
1.27739
1.27749
1.27757
1.27762
1.27765
1.27765
1.27763
1.27759
1.27752
1.27743
1.27731
1.27717
1.27699
1.27675
1.27648
1.27619
1.27586
1.27551
1.27514
1.27474
1.27431
1.27387
1.2734
1.27292
1.27242
1.2719
1.27137
1.27082
1.27026
1.26968
1.26909
1.2685
1.26789
1.26727
1.26665
1.26601
1.26537
1.26473
1.26408
1.26342
1.26277
1.2621
1.26144
1.26078
1.26011
1.25944
1.25878
1.25811
1.25744
1.25678
1.25612
1.25546
1.25481
1.25415
1.25351
1.25287
1.25223
1.2516
1.25097
1.25035
1.24974
1.24913
1.24854
1.24795
1.24737
1.2468
1.24623
1.24568
1.24513
1.2446
1.24408
1.24356
1.24306
1.24257
1.24209
1.24163
1.24117
1.24073
1.2403
1.23988
1.23948
1.23909
1.23871
1.23835
1.238
1.23766
1.23734
1.23704
1.23675
1.23647
1.23621
1.23596
1.23573
1.23551
1.23531
1.23513
1.23496
1.23481
1.23467
1.23455
1.23445
1.23436
1.23429
1.23423
1.23419
1.23417
1.23415
)
;
    }
    bottomWall
    {
        type            calculated;
        value           nonuniform List<scalar> 
449
(
0.139395
0.0889337
0.0758
0.0694507
0.0653025
0.0622412
0.0598763
0.058097
0.0570007
0.0569603
0.0590623
0.0631407
0.0664017
0.0683477
0.069401
0.0699668
0.0702411
0.0703286
0.0702777
0.0701524
0.0699741
0.0697628
0.0695346
0.069299
0.0690617
0.0688261
0.0685939
0.0683667
0.0681455
0.0679305
0.067722
0.0675199
0.0673241
0.0671344
0.0669506
0.0667723
0.0665992
0.0664312
0.0662683
0.06611
0.0659562
0.0658068
0.0656614
0.0655198
0.065382
0.0652477
0.0651167
0.0649889
0.0648642
0.0647422
0.0646225
0.064505
0.0643895
0.0642761
0.0641647
0.0640552
0.0639478
0.0638422
0.0637386
0.0636368
0.0635368
0.0634385
0.0633419
0.0632469
0.0631535
0.0630617
0.0629714
0.0628824
0.0627949
0.0627088
0.0626239
0.0625402
0.0624578
0.0623766
0.0622965
0.0622177
0.0621399
0.0620632
0.0619876
0.0619131
0.0618396
0.061767
0.0616954
0.0616248
0.0615551
0.0614862
0.0614183
0.0613511
0.0612848
0.0612193
0.0611546
0.0610907
0.0610275
0.060965
0.0609033
0.0608422
0.0607819
0.0607222
0.0606632
0.0606048
0.0605471
0.0604899
0.0604333
0.0603773
0.0603218
0.060267
0.0602126
0.0601588
0.0601056
0.0600529
0.0600007
0.059949
0.0598978
0.059847
0.0597968
0.059747
0.0596977
0.0596488
0.0596004
0.0595524
0.0595048
0.0594576
0.0594109
0.0593645
0.0593186
0.059273
0.0592278
0.059183
0.0591386
0.0590945
0.0590508
0.0590074
0.0589644
0.0589217
0.0588794
0.0588374
0.0587957
0.0587543
0.0587132
0.0586725
0.058632
0.0585919
0.058552
0.0585125
0.0584732
0.0584342
0.0583954
0.058357
0.0583187
0.0582807
0.058243
0.0582055
0.0581683
0.0581313
0.0580946
0.0580581
0.0580219
0.0579859
0.0579501
0.0579146
0.0578793
0.0578442
0.0578093
0.0577746
0.0577402
0.057706
0.0576719
0.0576381
0.0576045
0.0575711
0.0575379
0.0575049
0.0574721
0.0574413
0.0574123
0.0573832
0.057354
0.0573247
0.0572953
0.0572659
0.0572363
0.0572066
0.0571768
0.0571469
0.0571169
0.0570869
0.0570567
0.0570264
0.0569961
0.0569656
0.0569351
0.0569044
0.0568737
0.0568429
0.0568119
0.0567809
0.0567498
0.0567186
0.0566873
0.056656
0.0566245
0.056593
0.0565613
0.0565296
0.0564978
0.0564659
0.056434
0.0564019
0.0563698
0.0563376
0.0563053
0.0562729
0.0562404
0.0562078
0.0561752
0.0561424
0.0561096
0.0560767
0.0560437
0.0560107
0.0559775
0.0559443
0.0559111
0.0558777
0.0558443
0.0558108
0.0557773
0.0557437
0.05571
0.0556762
0.0556424
0.0556085
0.0555745
0.0555405
0.0555064
0.0554723
0.0554381
0.0554038
0.0553695
0.0553351
0.0553006
0.0552661
0.0552316
0.055197
0.0551623
0.0551275
0.0550928
0.0550579
0.055023
0.0549881
0.0549531
0.054918
0.0548829
0.0548478
0.0548126
0.0547773
0.054742
0.0547067
0.0546713
0.0546359
0.0546004
0.0545649
0.0545294
0.0544938
0.0544581
0.0544225
0.0543868
0.054351
0.0543152
0.0542794
0.0542436
0.0542077
0.0541717
0.0541358
0.0540997
0.0540637
0.0540276
0.0539914
0.0539553
0.0539191
0.0538829
0.0538466
0.0538104
0.0537741
0.0537378
0.0537014
0.0536651
0.0536287
0.0535923
0.0535559
0.0535195
0.0534831
0.0534467
0.0534102
0.0533737
0.0533373
0.0533008
0.0532643
0.0532278
0.0531912
0.0531547
0.0531182
0.0530817
0.0530451
0.0530086
0.0529721
0.0529355
0.052899
0.0528625
0.052826
0.0527894
0.0527529
0.0527164
0.0526799
0.0526434
0.0526069
0.0525704
0.052534
0.0524975
0.052461
0.0524246
0.0523882
0.0523518
0.0523154
0.052279
0.0522427
0.0522063
0.05217
0.0521337
0.0520975
0.0520612
0.0520249
0.0519886
0.0519524
0.0519162
0.05188
0.0518438
0.0518077
0.0517716
0.0517355
0.0516995
0.0516635
0.0516275
0.0515915
0.0515556
0.0515198
0.0514839
0.0514481
0.0514124
0.0513766
0.0513409
0.0513053
0.0512697
0.0512341
0.0511946
0.0511515
0.0511091
0.0510673
0.051026
0.0509853
0.0509452
0.0509056
0.0508666
0.0508281
0.0507901
0.0507525
0.0507155
0.050679
0.0506429
0.0506072
0.0505721
0.0505373
0.050503
0.0504691
0.0504356
0.0504025
0.0503698
0.0503374
0.0503055
0.0502739
0.0502427
0.0502118
0.0501813
0.0501511
0.0501212
0.0500917
0.0500625
0.0500335
0.0500049
0.0499765
0.0499485
0.0499208
0.0498934
0.0498661
0.0498393
0.0498126
0.0497863
0.0497602
0.0497343
0.0497087
0.0496834
0.0496583
0.0496334
0.0496088
0.0495844
0.0495602
0.0495363
0.0495125
0.049489
0.0494657
0.0494426
0.0494197
0.049397
0.0493745
0.0493522
0.0493301
0.0493082
0.0492864
0.049265
0.0492435
0.0492224
0.0492012
0.0491805
0.0491597
0.0491393
0.0491188
0.0490988
0.0490785
0.0490588
0.0490389
0.0490195
0.0489998
0.0489808
0.0489613
0.0489426
0.0489234
0.0489049
0.0488859
0.0488678
0.0488489
0.0488309
0.0488125
0.0487941
0.0487772
0.048756
0.0487448
0.0487135
0.0487198
0.048677
)
;
    }
    symmetry
    {
        type            symmetryPlane;
    }
    frontAndBack
    {
        type            empty;
    }
}


// ************************************************************************* //
