/*--------------------------------*- C++ -*----------------------------------*\
| =========                 |                                                 |
| \\      /  F ield         | OpenFOAM: The Open Source CFD Toolbox           |
|  \\    /   O peration     | Version:  v2012                                 |
|   \\  /    A nd           | Website:  www.openfoam.com                      |
|    \\/     M anipulation  |                                                 |
\*---------------------------------------------------------------------------*/
FoamFile
{
    version     2.0;
    format      ascii;
    class       volVectorField;
    location    "59";
    object      wallShearStress;
}
// * * * * * * * * * * * * * * * * * * * * * * * * * * * * * * * * * * * * * //

dimensions      [0 2 -2 0 0 0 0];


internalField   uniform (0 0 0);

boundaryField
{
    inlet
    {
        type            calculated;
        value           uniform (0 0 0);
    }
    outlet
    {
        type            calculated;
        value           uniform (0 0 0);
    }
    topWall
    {
        type            calculated;
        value           nonuniform List<vector> 
545
(
(7.00701e-08 -4.93236e-08 0)
(7.0046e-08 -1.37978e-07 0)
(7.00025e-08 -2.30159e-07 0)
(6.99433e-08 -3.19669e-07 0)
(6.98689e-08 -4.05361e-07 0)
(6.97811e-08 -4.88337e-07 0)
(6.96809e-08 -5.69302e-07 0)
(6.95693e-08 -6.48217e-07 0)
(6.94471e-08 -7.2491e-07 0)
(6.93153e-08 -7.99378e-07 0)
(6.91749e-08 -8.7172e-07 0)
(6.90266e-08 -9.42019e-07 0)
(6.88713e-08 -1.01032e-06 0)
(6.87097e-08 -1.07667e-06 0)
(6.85425e-08 -1.14111e-06 0)
(6.83703e-08 -1.2037e-06 0)
(6.81938e-08 -1.26448e-06 0)
(6.80135e-08 -1.3235e-06 0)
(6.78299e-08 -1.38082e-06 0)
(6.76436e-08 -1.43647e-06 0)
(6.74551e-08 -1.4905e-06 0)
(6.72647e-08 -1.54296e-06 0)
(6.70728e-08 -1.59389e-06 0)
(6.688e-08 -1.64333e-06 0)
(6.66864e-08 -1.69134e-06 0)
(6.64924e-08 -1.73794e-06 0)
(6.62983e-08 -1.78318e-06 0)
(6.61044e-08 -1.8271e-06 0)
(6.5911e-08 -1.86973e-06 0)
(6.57183e-08 -1.91112e-06 0)
(6.55265e-08 -1.9513e-06 0)
(6.53358e-08 -1.99031e-06 0)
(6.51464e-08 -2.02818e-06 0)
(6.49585e-08 -2.06494e-06 0)
(6.47721e-08 -2.10063e-06 0)
(6.45876e-08 -2.13528e-06 0)
(6.44049e-08 -2.16892e-06 0)
(6.42242e-08 -2.20158e-06 0)
(6.40456e-08 -2.23329e-06 0)
(6.38691e-08 -2.26408e-06 0)
(6.3695e-08 -2.29397e-06 0)
(6.35231e-08 -2.323e-06 0)
(6.33537e-08 -2.35119e-06 0)
(6.31867e-08 -2.37856e-06 0)
(6.30222e-08 -2.40514e-06 0)
(6.28603e-08 -2.43095e-06 0)
(6.27009e-08 -2.45602e-06 0)
(6.25441e-08 -2.48036e-06 0)
(6.23899e-08 -2.504e-06 0)
(6.22384e-08 -2.52697e-06 0)
(6.20894e-08 -2.54927e-06 0)
(6.19432e-08 -2.57094e-06 0)
(6.17995e-08 -2.59198e-06 0)
(6.16585e-08 -2.61242e-06 0)
(6.15201e-08 -2.63228e-06 0)
(6.13844e-08 -2.65157e-06 0)
(6.12512e-08 -2.67031e-06 0)
(6.11207e-08 -2.68852e-06 0)
(6.09927e-08 -2.70621e-06 0)
(6.08672e-08 -2.7234e-06 0)
(6.07443e-08 -2.7401e-06 0)
(6.06239e-08 -2.75633e-06 0)
(6.05059e-08 -2.7721e-06 0)
(6.03905e-08 -2.78742e-06 0)
(6.02774e-08 -2.80231e-06 0)
(6.01667e-08 -2.81679e-06 0)
(6.00583e-08 -2.83085e-06 0)
(5.99523e-08 -2.84452e-06 0)
(5.98486e-08 -2.85781e-06 0)
(5.97471e-08 -2.87072e-06 0)
(5.96477e-08 -2.88327e-06 0)
(5.95511e-08 -2.89546e-06 0)
(5.94572e-08 -2.90718e-06 0)
(5.9365e-08 -2.91856e-06 0)
(5.92738e-08 -2.92981e-06 0)
(5.91829e-08 -2.941e-06 0)
(5.90922e-08 -2.95215e-06 0)
(5.90016e-08 -2.96323e-06 0)
(5.8911e-08 -2.97423e-06 0)
(5.88206e-08 -2.98517e-06 0)
(5.87302e-08 -2.99604e-06 0)
(5.86399e-08 -3.00685e-06 0)
(5.85497e-08 -3.01759e-06 0)
(5.84597e-08 -3.02826e-06 0)
(5.83697e-08 -3.03887e-06 0)
(5.82799e-08 -3.04942e-06 0)
(5.81901e-08 -3.0599e-06 0)
(5.81005e-08 -3.07031e-06 0)
(5.8011e-08 -3.08067e-06 0)
(5.79216e-08 -3.09096e-06 0)
(5.78324e-08 -3.10118e-06 0)
(5.77432e-08 -3.11135e-06 0)
(5.76542e-08 -3.12145e-06 0)
(5.75654e-08 -3.13148e-06 0)
(5.74762e-08 -3.14148e-06 0)
(5.73893e-08 -3.15131e-06 0)
(5.73081e-08 -3.16031e-06 0)
(5.72318e-08 -3.16846e-06 0)
(5.71583e-08 -3.17641e-06 0)
(5.70853e-08 -3.18438e-06 0)
(5.70121e-08 -3.19243e-06 0)
(5.69387e-08 -3.2005e-06 0)
(5.68649e-08 -3.20856e-06 0)
(5.67908e-08 -3.21663e-06 0)
(5.67163e-08 -3.2247e-06 0)
(5.66415e-08 -3.23278e-06 0)
(5.65663e-08 -3.24088e-06 0)
(5.64908e-08 -3.24898e-06 0)
(5.64149e-08 -3.25709e-06 0)
(5.63387e-08 -3.2652e-06 0)
(5.62622e-08 -3.27333e-06 0)
(5.61852e-08 -3.28146e-06 0)
(5.6108e-08 -3.2896e-06 0)
(5.60303e-08 -3.29775e-06 0)
(5.59523e-08 -3.30591e-06 0)
(5.5874e-08 -3.31407e-06 0)
(5.57953e-08 -3.32225e-06 0)
(5.57162e-08 -3.33043e-06 0)
(5.56368e-08 -3.33861e-06 0)
(5.5557e-08 -3.34681e-06 0)
(5.54768e-08 -3.35501e-06 0)
(5.53963e-08 -3.36322e-06 0)
(5.53154e-08 -3.37144e-06 0)
(5.52342e-08 -3.37967e-06 0)
(5.51525e-08 -3.3879e-06 0)
(5.50705e-08 -3.39614e-06 0)
(5.49882e-08 -3.40438e-06 0)
(5.49054e-08 -3.41264e-06 0)
(5.48223e-08 -3.4209e-06 0)
(5.47388e-08 -3.42917e-06 0)
(5.4655e-08 -3.43744e-06 0)
(5.45707e-08 -3.44572e-06 0)
(5.44861e-08 -3.45401e-06 0)
(5.44011e-08 -3.46231e-06 0)
(5.43158e-08 -3.47061e-06 0)
(5.423e-08 -3.47891e-06 0)
(5.41439e-08 -3.48723e-06 0)
(5.40574e-08 -3.49555e-06 0)
(5.39705e-08 -3.50388e-06 0)
(5.38832e-08 -3.51221e-06 0)
(5.37956e-08 -3.52055e-06 0)
(5.37075e-08 -3.52889e-06 0)
(5.36191e-08 -3.53724e-06 0)
(5.35303e-08 -3.5456e-06 0)
(5.34411e-08 -3.55396e-06 0)
(5.33515e-08 -3.56233e-06 0)
(5.32615e-08 -3.5707e-06 0)
(5.31712e-08 -3.57908e-06 0)
(5.30804e-08 -3.58747e-06 0)
(5.29893e-08 -3.59586e-06 0)
(5.28978e-08 -3.60426e-06 0)
(5.28058e-08 -3.61266e-06 0)
(5.27135e-08 -3.62106e-06 0)
(5.26208e-08 -3.62947e-06 0)
(5.25277e-08 -3.63789e-06 0)
(5.24342e-08 -3.64631e-06 0)
(5.23403e-08 -3.65474e-06 0)
(5.2246e-08 -3.66317e-06 0)
(5.21513e-08 -3.6716e-06 0)
(5.20562e-08 -3.68004e-06 0)
(5.19607e-08 -3.68849e-06 0)
(5.18648e-08 -3.69693e-06 0)
(5.17686e-08 -3.70539e-06 0)
(5.16719e-08 -3.71384e-06 0)
(5.15748e-08 -3.7223e-06 0)
(5.14773e-08 -3.73077e-06 0)
(5.13794e-08 -3.73924e-06 0)
(5.12811e-08 -3.74771e-06 0)
(5.11824e-08 -3.75619e-06 0)
(5.10833e-08 -3.76467e-06 0)
(5.09838e-08 -3.77315e-06 0)
(5.08839e-08 -3.78164e-06 0)
(5.07836e-08 -3.79012e-06 0)
(5.06829e-08 -3.79862e-06 0)
(5.05817e-08 -3.80711e-06 0)
(5.04802e-08 -3.81561e-06 0)
(5.03783e-08 -3.82412e-06 0)
(5.02759e-08 -3.83262e-06 0)
(5.01732e-08 -3.84113e-06 0)
(5.007e-08 -3.84964e-06 0)
(4.99664e-08 -3.85815e-06 0)
(4.98624e-08 -3.86667e-06 0)
(4.9758e-08 -3.87518e-06 0)
(4.96532e-08 -3.8837e-06 0)
(4.9548e-08 -3.89222e-06 0)
(4.94424e-08 -3.90075e-06 0)
(4.93364e-08 -3.90927e-06 0)
(4.92299e-08 -3.9178e-06 0)
(4.91231e-08 -3.92633e-06 0)
(4.90158e-08 -3.93486e-06 0)
(4.89081e-08 -3.94339e-06 0)
(4.88e-08 -3.95192e-06 0)
(4.86915e-08 -3.96045e-06 0)
(4.85826e-08 -3.96899e-06 0)
(4.84733e-08 -3.97752e-06 0)
(4.83636e-08 -3.98606e-06 0)
(4.82534e-08 -3.9946e-06 0)
(4.81429e-08 -4.00314e-06 0)
(4.80319e-08 -4.01167e-06 0)
(4.79205e-08 -4.02021e-06 0)
(4.78087e-08 -4.02875e-06 0)
(4.76965e-08 -4.03729e-06 0)
(4.75838e-08 -4.04583e-06 0)
(4.74708e-08 -4.05437e-06 0)
(4.73574e-08 -4.06291e-06 0)
(4.72435e-08 -4.07145e-06 0)
(4.71292e-08 -4.07998e-06 0)
(4.70145e-08 -4.08852e-06 0)
(4.68994e-08 -4.09706e-06 0)
(4.67839e-08 -4.10559e-06 0)
(4.6668e-08 -4.11413e-06 0)
(4.65517e-08 -4.12266e-06 0)
(4.64349e-08 -4.13119e-06 0)
(4.63178e-08 -4.13972e-06 0)
(4.62002e-08 -4.14825e-06 0)
(4.60822e-08 -4.15678e-06 0)
(4.59638e-08 -4.1653e-06 0)
(4.5845e-08 -4.17383e-06 0)
(4.57258e-08 -4.18235e-06 0)
(4.56062e-08 -4.19087e-06 0)
(4.54862e-08 -4.19939e-06 0)
(4.53658e-08 -4.2079e-06 0)
(4.52449e-08 -4.21641e-06 0)
(4.51237e-08 -4.22492e-06 0)
(4.5002e-08 -4.23343e-06 0)
(4.488e-08 -4.24193e-06 0)
(4.47575e-08 -4.25043e-06 0)
(4.46346e-08 -4.25893e-06 0)
(4.45113e-08 -4.26742e-06 0)
(4.43877e-08 -4.27591e-06 0)
(4.42636e-08 -4.2844e-06 0)
(4.41391e-08 -4.29288e-06 0)
(4.40142e-08 -4.30136e-06 0)
(4.38889e-08 -4.30983e-06 0)
(4.37632e-08 -4.3183e-06 0)
(4.36372e-08 -4.32677e-06 0)
(4.35107e-08 -4.33523e-06 0)
(4.33838e-08 -4.34369e-06 0)
(4.32565e-08 -4.35214e-06 0)
(4.31289e-08 -4.36059e-06 0)
(4.30008e-08 -4.36903e-06 0)
(4.28723e-08 -4.37746e-06 0)
(4.27435e-08 -4.38589e-06 0)
(4.26142e-08 -4.39432e-06 0)
(4.24846e-08 -4.40274e-06 0)
(4.23546e-08 -4.41115e-06 0)
(4.22241e-08 -4.41956e-06 0)
(4.20933e-08 -4.42796e-06 0)
(4.19621e-08 -4.43635e-06 0)
(4.18306e-08 -4.44474e-06 0)
(4.16986e-08 -4.45312e-06 0)
(4.15663e-08 -4.4615e-06 0)
(4.14335e-08 -4.46986e-06 0)
(4.13004e-08 -4.47822e-06 0)
(4.1167e-08 -4.48658e-06 0)
(4.10331e-08 -4.49492e-06 0)
(4.08989e-08 -4.50326e-06 0)
(4.07643e-08 -4.51159e-06 0)
(4.06293e-08 -4.51991e-06 0)
(4.04939e-08 -4.52823e-06 0)
(4.03582e-08 -4.53653e-06 0)
(4.02221e-08 -4.54483e-06 0)
(4.00856e-08 -4.55312e-06 0)
(3.99488e-08 -4.5614e-06 0)
(3.98116e-08 -4.56967e-06 0)
(3.96741e-08 -4.57794e-06 0)
(3.95363e-08 -4.58618e-06 0)
(3.93974e-08 -4.59444e-06 0)
(3.92596e-08 -4.60262e-06 0)
(3.91284e-08 -4.61041e-06 0)
(3.90017e-08 -4.61782e-06 0)
(3.8875e-08 -4.62517e-06 0)
(3.87479e-08 -4.63258e-06 0)
(3.86197e-08 -4.64008e-06 0)
(3.84901e-08 -4.64765e-06 0)
(3.8359e-08 -4.65526e-06 0)
(3.82265e-08 -4.66293e-06 0)
(3.80926e-08 -4.67065e-06 0)
(3.79572e-08 -4.67843e-06 0)
(3.78204e-08 -4.68627e-06 0)
(3.7682e-08 -4.69416e-06 0)
(3.75422e-08 -4.70211e-06 0)
(3.74008e-08 -4.71012e-06 0)
(3.72579e-08 -4.71818e-06 0)
(3.71134e-08 -4.7263e-06 0)
(3.69674e-08 -4.73448e-06 0)
(3.68199e-08 -4.74271e-06 0)
(3.66707e-08 -4.75099e-06 0)
(3.652e-08 -4.75934e-06 0)
(3.63676e-08 -4.76774e-06 0)
(3.62136e-08 -4.77619e-06 0)
(3.6058e-08 -4.7847e-06 0)
(3.59007e-08 -4.79326e-06 0)
(3.57418e-08 -4.80188e-06 0)
(3.55812e-08 -4.81056e-06 0)
(3.54189e-08 -4.81929e-06 0)
(3.52549e-08 -4.82807e-06 0)
(3.50892e-08 -4.83691e-06 0)
(3.49217e-08 -4.8458e-06 0)
(3.47526e-08 -4.85474e-06 0)
(3.45816e-08 -4.86374e-06 0)
(3.4409e-08 -4.87279e-06 0)
(3.42345e-08 -4.88189e-06 0)
(3.40583e-08 -4.89105e-06 0)
(3.38802e-08 -4.90025e-06 0)
(3.37004e-08 -4.90951e-06 0)
(3.35187e-08 -4.91882e-06 0)
(3.33352e-08 -4.92817e-06 0)
(3.31498e-08 -4.93758e-06 0)
(3.29626e-08 -4.94704e-06 0)
(3.27736e-08 -4.95654e-06 0)
(3.25826e-08 -4.96609e-06 0)
(3.23898e-08 -4.97569e-06 0)
(3.21951e-08 -4.98534e-06 0)
(3.19985e-08 -4.99502e-06 0)
(3.18e-08 -5.00476e-06 0)
(3.15996e-08 -5.01454e-06 0)
(3.13973e-08 -5.02436e-06 0)
(3.1193e-08 -5.03423e-06 0)
(3.09868e-08 -5.04414e-06 0)
(3.07786e-08 -5.05408e-06 0)
(3.05685e-08 -5.06407e-06 0)
(3.03564e-08 -5.0741e-06 0)
(3.01424e-08 -5.08417e-06 0)
(2.99264e-08 -5.09427e-06 0)
(2.97085e-08 -5.10441e-06 0)
(2.94885e-08 -5.11458e-06 0)
(2.92667e-08 -5.12479e-06 0)
(2.90428e-08 -5.13502e-06 0)
(2.88169e-08 -5.1453e-06 0)
(2.85891e-08 -5.15559e-06 0)
(2.83593e-08 -5.16593e-06 0)
(2.81275e-08 -5.17628e-06 0)
(2.78937e-08 -5.18667e-06 0)
(2.76579e-08 -5.19707e-06 0)
(2.74202e-08 -5.2075e-06 0)
(2.71805e-08 -5.21796e-06 0)
(2.69388e-08 -5.22843e-06 0)
(2.66952e-08 -5.23892e-06 0)
(2.64496e-08 -5.24943e-06 0)
(2.62021e-08 -5.25995e-06 0)
(2.59526e-08 -5.2705e-06 0)
(2.57012e-08 -5.28104e-06 0)
(2.54479e-08 -5.29161e-06 0)
(2.51926e-08 -5.30217e-06 0)
(2.49355e-08 -5.31275e-06 0)
(2.46764e-08 -5.32333e-06 0)
(2.44155e-08 -5.33392e-06 0)
(2.41528e-08 -5.3445e-06 0)
(2.38882e-08 -5.35508e-06 0)
(2.36217e-08 -5.36566e-06 0)
(2.33535e-08 -5.37624e-06 0)
(2.30834e-08 -5.3868e-06 0)
(2.28116e-08 -5.39736e-06 0)
(2.2538e-08 -5.4079e-06 0)
(2.22628e-08 -5.41843e-06 0)
(2.19858e-08 -5.42894e-06 0)
(2.17072e-08 -5.43944e-06 0)
(2.14269e-08 -5.4499e-06 0)
(2.1145e-08 -5.46035e-06 0)
(2.08615e-08 -5.47077e-06 0)
(2.05764e-08 -5.48116e-06 0)
(2.02898e-08 -5.49152e-06 0)
(2.00018e-08 -5.50184e-06 0)
(1.97123e-08 -5.51212e-06 0)
(1.94214e-08 -5.52237e-06 0)
(1.91291e-08 -5.53257e-06 0)
(1.88355e-08 -5.54273e-06 0)
(1.85405e-08 -5.55283e-06 0)
(1.82444e-08 -5.56289e-06 0)
(1.7947e-08 -5.57289e-06 0)
(1.76485e-08 -5.58283e-06 0)
(1.73489e-08 -5.59271e-06 0)
(1.70482e-08 -5.60253e-06 0)
(1.67465e-08 -5.61227e-06 0)
(1.64439e-08 -5.62195e-06 0)
(1.61404e-08 -5.63155e-06 0)
(1.58361e-08 -5.64108e-06 0)
(1.55309e-08 -5.65052e-06 0)
(1.52251e-08 -5.65989e-06 0)
(1.49186e-08 -5.66916e-06 0)
(1.46116e-08 -5.67835e-06 0)
(1.43039e-08 -5.68744e-06 0)
(1.39959e-08 -5.69644e-06 0)
(1.36874e-08 -5.70532e-06 0)
(1.33787e-08 -5.71412e-06 0)
(1.30697e-08 -5.72279e-06 0)
(1.27605e-08 -5.73137e-06 0)
(1.24512e-08 -5.73982e-06 0)
(1.2142e-08 -5.74816e-06 0)
(1.18327e-08 -5.75637e-06 0)
(1.15237e-08 -5.76446e-06 0)
(1.12148e-08 -5.77242e-06 0)
(1.09062e-08 -5.78025e-06 0)
(1.05981e-08 -5.78794e-06 0)
(1.02904e-08 -5.79549e-06 0)
(9.98323e-09 -5.8029e-06 0)
(9.67676e-09 -5.81016e-06 0)
(9.371e-09 -5.81727e-06 0)
(9.0661e-09 -5.82423e-06 0)
(8.76209e-09 -5.83103e-06 0)
(8.45912e-09 -5.83767e-06 0)
(8.15723e-09 -5.84414e-06 0)
(7.85657e-09 -5.85045e-06 0)
(7.55719e-09 -5.85658e-06 0)
(7.25921e-09 -5.86255e-06 0)
(6.96272e-09 -5.86832e-06 0)
(6.66782e-09 -5.87393e-06 0)
(6.3746e-09 -5.87934e-06 0)
(6.08319e-09 -5.88458e-06 0)
(5.79364e-09 -5.88961e-06 0)
(5.50609e-09 -5.89446e-06 0)
(5.22062e-09 -5.8991e-06 0)
(4.93734e-09 -5.90355e-06 0)
(4.65634e-09 -5.90779e-06 0)
(4.37774e-09 -5.91184e-06 0)
(4.10161e-09 -5.91566e-06 0)
(3.82809e-09 -5.91929e-06 0)
(3.55723e-09 -5.92268e-06 0)
(3.28917e-09 -5.92588e-06 0)
(3.02399e-09 -5.92884e-06 0)
(2.76179e-09 -5.9316e-06 0)
(2.50266e-09 -5.93412e-06 0)
(2.24671e-09 -5.93643e-06 0)
(1.99402e-09 -5.93849e-06 0)
(1.74469e-09 -5.94035e-06 0)
(1.49879e-09 -5.94195e-06 0)
(1.25644e-09 -5.94334e-06 0)
(1.01771e-09 -5.94448e-06 0)
(7.82683e-10 -5.9454e-06 0)
(5.51447e-10 -5.94606e-06 0)
(3.24084e-10 -5.94651e-06 0)
(1.00671e-10 -5.9467e-06 0)
(-1.18715e-10 -5.94667e-06 0)
(-3.33997e-10 -5.94637e-06 0)
(-5.45106e-10 -5.94586e-06 0)
(-7.51968e-10 -5.94508e-06 0)
(-9.5452e-10 -5.94409e-06 0)
(-1.15269e-09 -5.94282e-06 0)
(-1.34642e-09 -5.94135e-06 0)
(-1.53564e-09 -5.9396e-06 0)
(-1.72031e-09 -5.93764e-06 0)
(-1.90035e-09 -5.93541e-06 0)
(-2.07573e-09 -5.93297e-06 0)
(-2.24637e-09 -5.93026e-06 0)
(-2.41227e-09 -5.92734e-06 0)
(-2.57325e-09 -5.92415e-06 0)
(-2.72973e-09 -5.92076e-06 0)
(-2.87962e-09 -5.91708e-06 0)
(-3.03105e-09 -5.91322e-06 0)
(-3.18953e-09 -5.90865e-06 0)
(-3.34786e-09 -5.90337e-06 0)
(-3.50128e-09 -5.89775e-06 0)
(-3.64672e-09 -5.89194e-06 0)
(-3.78364e-09 -5.88587e-06 0)
(-3.91219e-09 -5.87963e-06 0)
(-4.03252e-09 -5.87315e-06 0)
(-4.14491e-09 -5.86652e-06 0)
(-4.24953e-09 -5.85967e-06 0)
(-4.34672e-09 -5.8527e-06 0)
(-4.43665e-09 -5.84554e-06 0)
(-4.51964e-09 -5.83828e-06 0)
(-4.59585e-09 -5.83085e-06 0)
(-4.66556e-09 -5.82335e-06 0)
(-4.72894e-09 -5.8157e-06 0)
(-4.78626e-09 -5.80799e-06 0)
(-4.83765e-09 -5.80015e-06 0)
(-4.8834e-09 -5.79228e-06 0)
(-4.92361e-09 -5.78429e-06 0)
(-4.95856e-09 -5.77629e-06 0)
(-4.98834e-09 -5.76819e-06 0)
(-5.0132e-09 -5.7601e-06 0)
(-5.03322e-09 -5.75192e-06 0)
(-5.04867e-09 -5.74376e-06 0)
(-5.05959e-09 -5.73553e-06 0)
(-5.06623e-09 -5.72733e-06 0)
(-5.06864e-09 -5.71908e-06 0)
(-5.06704e-09 -5.71088e-06 0)
(-5.06149e-09 -5.70264e-06 0)
(-5.05219e-09 -5.69445e-06 0)
(-5.03919e-09 -5.68624e-06 0)
(-5.02268e-09 -5.6781e-06 0)
(-5.00269e-09 -5.66994e-06 0)
(-4.97942e-09 -5.66187e-06 0)
(-4.95288e-09 -5.65378e-06 0)
(-4.92327e-09 -5.64579e-06 0)
(-4.89059e-09 -5.63781e-06 0)
(-4.85501e-09 -5.62992e-06 0)
(-4.81656e-09 -5.62205e-06 0)
(-4.77539e-09 -5.61429e-06 0)
(-4.73151e-09 -5.60656e-06 0)
(-4.68508e-09 -5.59894e-06 0)
(-4.63609e-09 -5.59135e-06 0)
(-4.5847e-09 -5.5839e-06 0)
(-4.5309e-09 -5.57648e-06 0)
(-4.47484e-09 -5.56919e-06 0)
(-4.41651e-09 -5.56196e-06 0)
(-4.35604e-09 -5.55486e-06 0)
(-4.29343e-09 -5.54782e-06 0)
(-4.2288e-09 -5.54093e-06 0)
(-4.16215e-09 -5.5341e-06 0)
(-4.09359e-09 -5.52742e-06 0)
(-4.02312e-09 -5.52082e-06 0)
(-3.95085e-09 -5.51437e-06 0)
(-3.87676e-09 -5.508e-06 0)
(-3.80098e-09 -5.50179e-06 0)
(-3.72349e-09 -5.49566e-06 0)
(-3.64438e-09 -5.4897e-06 0)
(-3.56367e-09 -5.48383e-06 0)
(-3.48143e-09 -5.47813e-06 0)
(-3.39767e-09 -5.47253e-06 0)
(-3.31248e-09 -5.4671e-06 0)
(-3.22585e-09 -5.46178e-06 0)
(-3.13787e-09 -5.45663e-06 0)
(-3.04854e-09 -5.45159e-06 0)
(-2.95795e-09 -5.44673e-06 0)
(-2.86609e-09 -5.44199e-06 0)
(-2.77305e-09 -5.43742e-06 0)
(-2.67883e-09 -5.43298e-06 0)
(-2.5835e-09 -5.42872e-06 0)
(-2.48707e-09 -5.42459e-06 0)
(-2.38961e-09 -5.42064e-06 0)
(-2.29114e-09 -5.41682e-06 0)
(-2.19172e-09 -5.41319e-06 0)
(-2.09136e-09 -5.4097e-06 0)
(-1.99013e-09 -5.40639e-06 0)
(-1.88805e-09 -5.40323e-06 0)
(-1.78517e-09 -5.40025e-06 0)
(-1.6815e-09 -5.39742e-06 0)
(-1.57712e-09 -5.39478e-06 0)
(-1.47203e-09 -5.39229e-06 0)
(-1.3663e-09 -5.38998e-06 0)
(-1.25995e-09 -5.38783e-06 0)
(-1.15303e-09 -5.38587e-06 0)
(-1.04559e-09 -5.38406e-06 0)
(-9.37706e-10 -5.38248e-06 0)
(-8.29434e-10 -5.38092e-06 0)
(-7.20891e-10 -5.38003e-06 0)
(-6.12148e-10 -5.37768e-06 0)
(-5.03445e-10 -5.38085e-06 0)
(-3.94567e-10 -5.36612e-06 0)
(-2.86053e-10 -5.40924e-06 0)
(-1.77531e-10 -5.24692e-06 0)
(-6.36657e-11 -5.67768e-06 0)
(-2.2013e-12 -4.95887e-06 0)
)
;
    }
    bottomWall
    {
        type            calculated;
        value           nonuniform List<vector> 
449
(
(-52.6703 -0.955215 0)
(-34.7132 -0.00279521 0)
(-34.3355 -0.000252383 0)
(-32.9764 -0.000362691 0)
(-31.8522 -0.00031491 0)
(-30.8165 -0.000284007 0)
(-29.9003 -0.000248981 0)
(-29.1017 -0.000217056 0)
(-28.4021 -0.000190535 0)
(-27.7836 -0.000168806 0)
(-27.2317 -0.000150819 0)
(-26.7356 -0.000135745 0)
(-26.2863 -0.000123114 0)
(-25.8762 -0.000112452 0)
(-25.4996 -0.000103254 0)
(-25.1521 -9.52614e-05 0)
(-24.83 -8.82807e-05 0)
(-24.5302 -8.21539e-05 0)
(-24.25 -7.67555e-05 0)
(-23.987 -7.1942e-05 0)
(-23.7396 -6.76236e-05 0)
(-23.5062 -6.37395e-05 0)
(-23.2854 -6.0235e-05 0)
(-23.076 -5.7055e-05 0)
(-22.8769 -5.416e-05 0)
(-22.6873 -5.15039e-05 0)
(-22.5065 -4.90695e-05 0)
(-22.3336 -4.68311e-05 0)
(-22.1681 -4.47664e-05 0)
(-22.0093 -4.28513e-05 0)
(-21.857 -4.10758e-05 0)
(-21.7104 -3.94237e-05 0)
(-21.5694 -3.78864e-05 0)
(-21.4335 -3.64459e-05 0)
(-21.3023 -3.51006e-05 0)
(-21.1756 -3.38361e-05 0)
(-21.0532 -3.26533e-05 0)
(-20.9347 -3.1543e-05 0)
(-20.8199 -3.04969e-05 0)
(-20.7086 -2.95107e-05 0)
(-20.6006 -2.85798e-05 0)
(-20.4957 -2.77012e-05 0)
(-20.3937 -2.68665e-05 0)
(-20.2946 -2.60716e-05 0)
(-20.1982 -2.53169e-05 0)
(-20.1043 -2.45912e-05 0)
(-20.0128 -2.39001e-05 0)
(-19.9237 -2.32423e-05 0)
(-19.8369 -2.26049e-05 0)
(-19.7522 -2.20048e-05 0)
(-19.6695 -2.14238e-05 0)
(-19.5888 -2.08725e-05 0)
(-19.5099 -2.03461e-05 0)
(-19.4329 -1.98398e-05 0)
(-19.3576 -1.93582e-05 0)
(-19.2839 -1.88951e-05 0)
(-19.2118 -1.84531e-05 0)
(-19.1412 -1.80285e-05 0)
(-19.0721 -1.76215e-05 0)
(-19.0043 -1.72301e-05 0)
(-18.9379 -1.68539e-05 0)
(-18.8727 -1.64921e-05 0)
(-18.8088 -1.61433e-05 0)
(-18.7461 -1.58077e-05 0)
(-18.6846 -1.54843e-05 0)
(-18.6241 -1.51715e-05 0)
(-18.5647 -1.48708e-05 0)
(-18.5064 -1.45779e-05 0)
(-18.449 -1.42975e-05 0)
(-18.3927 -1.40232e-05 0)
(-18.3372 -1.376e-05 0)
(-18.2827 -1.35035e-05 0)
(-18.2291 -1.32553e-05 0)
(-18.1763 -1.30152e-05 0)
(-18.1243 -1.27806e-05 0)
(-18.0732 -1.2555e-05 0)
(-18.0228 -1.23344e-05 0)
(-17.9732 -1.21205e-05 0)
(-17.9243 -1.19135e-05 0)
(-17.8762 -1.17106e-05 0)
(-17.8287 -1.15149e-05 0)
(-17.782 -1.13239e-05 0)
(-17.7359 -1.11372e-05 0)
(-17.6904 -1.0957e-05 0)
(-17.6456 -1.07802e-05 0)
(-17.6014 -1.06084e-05 0)
(-17.5578 -1.0442e-05 0)
(-17.5147 -1.02783e-05 0)
(-17.4723 -1.01195e-05 0)
(-17.4304 -9.96513e-06 0)
(-17.389 -9.81336e-06 0)
(-17.3482 -9.66613e-06 0)
(-17.3079 -9.52297e-06 0)
(-17.268 -9.38208e-06 0)
(-17.2287 -9.24522e-06 0)
(-17.1899 -9.11212e-06 0)
(-17.1515 -8.98102e-06 0)
(-17.1136 -8.85342e-06 0)
(-17.0761 -8.72948e-06 0)
(-17.0391 -8.60722e-06 0)
(-17.0025 -8.48804e-06 0)
(-16.9663 -8.37236e-06 0)
(-16.9305 -8.25827e-06 0)
(-16.8951 -8.14671e-06 0)
(-16.8601 -8.03836e-06 0)
(-16.8255 -7.93189e-06 0)
(-16.7913 -7.82727e-06 0)
(-16.7575 -7.72542e-06 0)
(-16.724 -7.62597e-06 0)
(-16.6908 -7.52776e-06 0)
(-16.658 -7.43188e-06 0)
(-16.6256 -7.3386e-06 0)
(-16.5935 -7.24644e-06 0)
(-16.5617 -7.15615e-06 0)
(-16.5302 -7.0681e-06 0)
(-16.499 -6.98188e-06 0)
(-16.4682 -6.89667e-06 0)
(-16.4376 -6.81346e-06 0)
(-16.4073 -6.73221e-06 0)
(-16.3774 -6.65219e-06 0)
(-16.3477 -6.57342e-06 0)
(-16.3183 -6.49651e-06 0)
(-16.2892 -6.42124e-06 0)
(-16.2603 -6.34686e-06 0)
(-16.2317 -6.27387e-06 0)
(-16.2034 -6.20256e-06 0)
(-16.1753 -6.13253e-06 0)
(-16.1475 -6.06338e-06 0)
(-16.1199 -5.99558e-06 0)
(-16.0926 -5.92927e-06 0)
(-16.0655 -5.86401e-06 0)
(-16.0386 -5.79965e-06 0)
(-16.012 -5.73649e-06 0)
(-15.9856 -5.67466e-06 0)
(-15.9594 -5.61375e-06 0)
(-15.9334 -5.5537e-06 0)
(-15.9077 -5.49471e-06 0)
(-15.8821 -5.43693e-06 0)
(-15.8568 -5.37999e-06 0)
(-15.8317 -5.32385e-06 0)
(-15.8067 -5.26866e-06 0)
(-15.782 -5.21454e-06 0)
(-15.7575 -5.16126e-06 0)
(-15.7332 -5.10866e-06 0)
(-15.709 -5.05696e-06 0)
(-15.6851 -5.00616e-06 0)
(-15.6613 -4.95622e-06 0)
(-15.6377 -4.90686e-06 0)
(-15.6143 -4.85833e-06 0)
(-15.5911 -4.81056e-06 0)
(-15.568 -4.76364e-06 0)
(-15.5451 -4.71731e-06 0)
(-15.5224 -4.67162e-06 0)
(-15.4998 -4.62669e-06 0)
(-15.4774 -4.58248e-06 0)
(-15.4552 -4.53894e-06 0)
(-15.4331 -4.49591e-06 0)
(-15.4112 -4.45357e-06 0)
(-15.3895 -4.41187e-06 0)
(-15.3679 -4.37081e-06 0)
(-15.3464 -4.33031e-06 0)
(-15.3251 -4.2903e-06 0)
(-15.3039 -4.25097e-06 0)
(-15.2829 -4.21215e-06 0)
(-15.262 -4.17396e-06 0)
(-15.2413 -4.13618e-06 0)
(-15.2207 -4.099e-06 0)
(-15.2003 -4.06227e-06 0)
(-15.1799 -4.02626e-06 0)
(-15.1597 -3.99042e-06 0)
(-15.1397 -3.95537e-06 0)
(-15.1197 -3.92052e-06 0)
(-15.0999 -3.8839e-06 0)
(-15.0814 -3.85371e-06 0)
(-15.0639 -3.82699e-06 0)
(-15.0464 -3.79607e-06 0)
(-15.0288 -3.76579e-06 0)
(-15.0112 -3.73614e-06 0)
(-14.9935 -3.70638e-06 0)
(-14.9758 -3.67698e-06 0)
(-14.958 -3.6476e-06 0)
(-14.9402 -3.61841e-06 0)
(-14.9223 -3.58933e-06 0)
(-14.9044 -3.5604e-06 0)
(-14.8864 -3.53156e-06 0)
(-14.8684 -3.50286e-06 0)
(-14.8504 -3.47423e-06 0)
(-14.8323 -3.44576e-06 0)
(-14.8141 -3.4174e-06 0)
(-14.7959 -3.38917e-06 0)
(-14.7777 -3.36104e-06 0)
(-14.7594 -3.33303e-06 0)
(-14.741 -3.30514e-06 0)
(-14.7226 -3.2774e-06 0)
(-14.7042 -3.24977e-06 0)
(-14.6857 -3.22226e-06 0)
(-14.6672 -3.19486e-06 0)
(-14.6487 -3.16761e-06 0)
(-14.6301 -3.14049e-06 0)
(-14.6115 -3.1135e-06 0)
(-14.5928 -3.08664e-06 0)
(-14.5741 -3.05989e-06 0)
(-14.5553 -3.03328e-06 0)
(-14.5365 -3.00682e-06 0)
(-14.5177 -2.98048e-06 0)
(-14.4988 -2.95428e-06 0)
(-14.4799 -2.92819e-06 0)
(-14.461 -2.90227e-06 0)
(-14.442 -2.87647e-06 0)
(-14.423 -2.85082e-06 0)
(-14.404 -2.82528e-06 0)
(-14.3849 -2.79989e-06 0)
(-14.3658 -2.77466e-06 0)
(-14.3466 -2.74955e-06 0)
(-14.3274 -2.7246e-06 0)
(-14.3082 -2.69975e-06 0)
(-14.289 -2.67508e-06 0)
(-14.2697 -2.65052e-06 0)
(-14.2504 -2.62614e-06 0)
(-14.2311 -2.60186e-06 0)
(-14.2117 -2.57775e-06 0)
(-14.1923 -2.55377e-06 0)
(-14.1729 -2.52996e-06 0)
(-14.1534 -2.50626e-06 0)
(-14.134 -2.48273e-06 0)
(-14.1145 -2.45932e-06 0)
(-14.0949 -2.43609e-06 0)
(-14.0754 -2.41298e-06 0)
(-14.0558 -2.39003e-06 0)
(-14.0362 -2.36721e-06 0)
(-14.0166 -2.34455e-06 0)
(-13.9969 -2.32202e-06 0)
(-13.9772 -2.29967e-06 0)
(-13.9576 -2.27743e-06 0)
(-13.9378 -2.25536e-06 0)
(-13.9181 -2.23341e-06 0)
(-13.8984 -2.21166e-06 0)
(-13.8786 -2.19e-06 0)
(-13.8588 -2.16853e-06 0)
(-13.839 -2.14717e-06 0)
(-13.8191 -2.12602e-06 0)
(-13.7993 -2.10495e-06 0)
(-13.7794 -2.08407e-06 0)
(-13.7595 -2.0633e-06 0)
(-13.7397 -2.04273e-06 0)
(-13.7197 -2.02225e-06 0)
(-13.6998 -2.00197e-06 0)
(-13.6799 -1.98178e-06 0)
(-13.6599 -1.96181e-06 0)
(-13.64 -1.94193e-06 0)
(-13.62 -1.92223e-06 0)
(-13.6 -1.90264e-06 0)
(-13.58 -1.88325e-06 0)
(-13.56 -1.86396e-06 0)
(-13.5399 -1.84484e-06 0)
(-13.5199 -1.82585e-06 0)
(-13.4999 -1.80703e-06 0)
(-13.4798 -1.78833e-06 0)
(-13.4598 -1.76979e-06 0)
(-13.4397 -1.75138e-06 0)
(-13.4196 -1.73314e-06 0)
(-13.3995 -1.71503e-06 0)
(-13.3795 -1.69706e-06 0)
(-13.3594 -1.67924e-06 0)
(-13.3393 -1.66157e-06 0)
(-13.3192 -1.64404e-06 0)
(-13.2991 -1.62663e-06 0)
(-13.279 -1.60939e-06 0)
(-13.2589 -1.59228e-06 0)
(-13.2388 -1.57533e-06 0)
(-13.2186 -1.55848e-06 0)
(-13.1985 -1.54181e-06 0)
(-13.1784 -1.52526e-06 0)
(-13.1583 -1.50887e-06 0)
(-13.1382 -1.49257e-06 0)
(-13.1181 -1.47647e-06 0)
(-13.098 -1.46046e-06 0)
(-13.0779 -1.44463e-06 0)
(-13.0577 -1.42888e-06 0)
(-13.0376 -1.41333e-06 0)
(-13.0175 -1.39787e-06 0)
(-12.9974 -1.38257e-06 0)
(-12.9774 -1.36737e-06 0)
(-12.9573 -1.35236e-06 0)
(-12.9372 -1.33743e-06 0)
(-12.9171 -1.32267e-06 0)
(-12.897 -1.308e-06 0)
(-12.877 -1.29353e-06 0)
(-12.8569 -1.27912e-06 0)
(-12.8369 -1.26489e-06 0)
(-12.8168 -1.25075e-06 0)
(-12.7968 -1.23679e-06 0)
(-12.7768 -1.22289e-06 0)
(-12.7568 -1.20918e-06 0)
(-12.7368 -1.19555e-06 0)
(-12.7168 -1.18209e-06 0)
(-12.6968 -1.16871e-06 0)
(-12.6768 -1.1555e-06 0)
(-12.6568 -1.14238e-06 0)
(-12.6369 -1.12941e-06 0)
(-12.617 -1.11652e-06 0)
(-12.5971 -1.10381e-06 0)
(-12.5771 -1.09117e-06 0)
(-12.5572 -1.07869e-06 0)
(-12.5374 -1.06629e-06 0)
(-12.5175 -1.05405e-06 0)
(-12.4977 -1.0419e-06 0)
(-12.4778 -1.02988e-06 0)
(-12.458 -1.01797e-06 0)
(-12.4382 -1.00619e-06 0)
(-12.4184 -9.94504e-07 0)
(-12.3987 -9.8295e-07 0)
(-12.3789 -9.71507e-07 0)
(-12.3592 -9.60169e-07 0)
(-12.3395 -9.48945e-07 0)
(-12.3198 -9.37841e-07 0)
(-12.3001 -9.26846e-07 0)
(-12.2804 -9.15952e-07 0)
(-12.2608 -9.05176e-07 0)
(-12.2412 -8.94507e-07 0)
(-12.2216 -8.83948e-07 0)
(-12.202 -8.73485e-07 0)
(-12.1825 -8.63145e-07 0)
(-12.1629 -8.52897e-07 0)
(-12.1434 -8.42765e-07 0)
(-12.124 -8.32721e-07 0)
(-12.1045 -8.22802e-07 0)
(-12.0851 -8.12958e-07 0)
(-12.0656 -8.03243e-07 0)
(-12.0463 -7.93608e-07 0)
(-12.0269 -7.84094e-07 0)
(-12.0076 -7.74651e-07 0)
(-11.9882 -7.65343e-07 0)
(-11.9689 -7.56098e-07 0)
(-11.9497 -7.46978e-07 0)
(-11.9304 -7.37925e-07 0)
(-11.9112 -7.29005e-07 0)
(-11.892 -7.20143e-07 0)
(-11.8729 -7.11408e-07 0)
(-11.8538 -7.02737e-07 0)
(-11.8347 -6.94187e-07 0)
(-11.8156 -6.85695e-07 0)
(-11.7965 -6.77328e-07 0)
(-11.7775 -6.69022e-07 0)
(-11.7585 -6.60828e-07 0)
(-11.7396 -6.52703e-07 0)
(-11.7206 -6.44689e-07 0)
(-11.7017 -6.3673e-07 0)
(-11.6829 -6.28897e-07 0)
(-11.664 -6.21077e-07 0)
(-11.6452 -6.13445e-07 0)
(-11.6264 -6.05699e-07 0)
(-11.6077 -5.98283e-07 0)
(-11.589 -5.91074e-07 0)
(-11.5682 -5.82396e-07 0)
(-11.5456 -5.7316e-07 0)
(-11.5233 -5.64866e-07 0)
(-11.5013 -5.5675e-07 0)
(-11.4797 -5.48699e-07 0)
(-11.4584 -5.40855e-07 0)
(-11.4374 -5.33187e-07 0)
(-11.4166 -5.25692e-07 0)
(-11.3962 -5.18389e-07 0)
(-11.3761 -5.11233e-07 0)
(-11.3562 -5.04273e-07 0)
(-11.3366 -4.97452e-07 0)
(-11.3173 -4.90812e-07 0)
(-11.2982 -4.84303e-07 0)
(-11.2793 -4.77963e-07 0)
(-11.2607 -4.71745e-07 0)
(-11.2424 -4.65692e-07 0)
(-11.2243 -4.59747e-07 0)
(-11.2064 -4.53955e-07 0)
(-11.1887 -4.48274e-07 0)
(-11.1713 -4.42727e-07 0)
(-11.1541 -4.37283e-07 0)
(-11.1371 -4.31973e-07 0)
(-11.1203 -4.26763e-07 0)
(-11.1037 -4.21663e-07 0)
(-11.0873 -4.16669e-07 0)
(-11.0711 -4.11784e-07 0)
(-11.055 -4.06989e-07 0)
(-11.0392 -4.023e-07 0)
(-11.0235 -3.97697e-07 0)
(-11.0081 -3.93195e-07 0)
(-10.9927 -3.88772e-07 0)
(-10.9776 -3.84445e-07 0)
(-10.9627 -3.80196e-07 0)
(-10.9479 -3.76037e-07 0)
(-10.9332 -3.71945e-07 0)
(-10.9188 -3.67946e-07 0)
(-10.9044 -3.64011e-07 0)
(-10.8903 -3.6016e-07 0)
(-10.8762 -3.56371e-07 0)
(-10.8624 -3.52663e-07 0)
(-10.8486 -3.49015e-07 0)
(-10.835 -3.45442e-07 0)
(-10.8216 -3.41924e-07 0)
(-10.8083 -3.38482e-07 0)
(-10.7951 -3.35088e-07 0)
(-10.782 -3.3177e-07 0)
(-10.7691 -3.285e-07 0)
(-10.7563 -3.25294e-07 0)
(-10.7436 -3.22136e-07 0)
(-10.7311 -3.19046e-07 0)
(-10.7187 -3.16003e-07 0)
(-10.7064 -3.13007e-07 0)
(-10.6942 -3.10068e-07 0)
(-10.6821 -3.07182e-07 0)
(-10.6701 -3.04347e-07 0)
(-10.6583 -3.0155e-07 0)
(-10.6465 -2.98805e-07 0)
(-10.6349 -2.96112e-07 0)
(-10.6233 -2.93459e-07 0)
(-10.6119 -2.90855e-07 0)
(-10.6006 -2.88284e-07 0)
(-10.5894 -2.85778e-07 0)
(-10.5782 -2.83279e-07 0)
(-10.5672 -2.80881e-07 0)
(-10.5562 -2.78436e-07 0)
(-10.5454 -2.76145e-07 0)
(-10.5346 -2.73748e-07 0)
(-10.524 -2.71595e-07 0)
(-10.5133 -2.69205e-07 0)
(-10.5029 -2.67212e-07 0)
(-10.4924 -2.64817e-07 0)
(-10.4822 -2.63007e-07 0)
(-10.4718 -2.60565e-07 0)
(-10.4618 -2.58981e-07 0)
(-10.4516 -2.56453e-07 0)
(-10.4417 -2.55135e-07 0)
(-10.4316 -2.52506e-07 0)
(-10.4219 -2.51476e-07 0)
(-10.4119 -2.48742e-07 0)
(-10.4025 -2.47983e-07 0)
(-10.3925 -2.45239e-07 0)
(-10.3833 -2.44596e-07 0)
(-10.3733 -2.4221e-07 0)
(-10.3643 -2.41091e-07 0)
(-10.3545 -2.40184e-07 0)
(-10.3455 -2.36708e-07 0)
(-10.336 -2.40751e-07 0)
(-10.3266 -2.28792e-07 0)
(-10.3181 -2.48824e-07 0)
(-10.3071 -2.10991e-07 0)
(-10.3017 -2.6775e-07 0)
(-10.286 -1.74808e-07 0)
(-10.2883 -2.43539e-07 0)
(-10.2664 -2.86639e-07 0)
)
;
    }
    symmetry
    {
        type            symmetryPlane;
    }
    frontAndBack
    {
        type            empty;
    }
}


// ************************************************************************* //
