/*--------------------------------*- C++ -*----------------------------------*\
| =========                 |                                                 |
| \\      /  F ield         | OpenFOAM: The Open Source CFD Toolbox           |
|  \\    /   O peration     | Version:  v2012                                 |
|   \\  /    A nd           | Website:  www.openfoam.com                      |
|    \\/     M anipulation  |                                                 |
\*---------------------------------------------------------------------------*/
FoamFile
{
    version     2.0;
    format      ascii;
    class       volScalarField;
    location    "57.5";
    object      nut;
}
// * * * * * * * * * * * * * * * * * * * * * * * * * * * * * * * * * * * * * //

dimensions      [0 2 -1 0 0 0 0];


internalField   nonuniform List<scalar> 
209825
(
1.24127e-07
1.23497e-07
1.22294e-07
1.19538e-07
1.15172e-07
1.09716e-07
1.03783e-07
9.78398e-08
9.21665e-08
8.69067e-08
8.21046e-08
7.77682e-08
7.38605e-08
7.03571e-08
6.72037e-08
6.43771e-08
6.18224e-08
5.9527e-08
5.74394e-08
5.55585e-08
5.38358e-08
5.22794e-08
5.08432e-08
4.95436e-08
4.83342e-08
4.72392e-08
4.62107e-08
4.52806e-08
4.43989e-08
4.36026e-08
4.28402e-08
4.21545e-08
4.14908e-08
4.08964e-08
4.03144e-08
3.97967e-08
3.92831e-08
3.88298e-08
3.83743e-08
3.79762e-08
3.75701e-08
3.72192e-08
3.68556e-08
3.65448e-08
3.62171e-08
3.59416e-08
3.56457e-08
3.54005e-08
3.51315e-08
3.4914e-08
3.46687e-08
3.44741e-08
3.42503e-08
3.40761e-08
3.38727e-08
3.37153e-08
3.35277e-08
3.33883e-08
3.32148e-08
3.30897e-08
3.29311e-08
3.28173e-08
3.2671e-08
3.25673e-08
3.24332e-08
3.23376e-08
3.22153e-08
3.21279e-08
3.20137e-08
3.19334e-08
3.18276e-08
3.17549e-08
3.16582e-08
3.15934e-08
3.15015e-08
3.14393e-08
3.13492e-08
3.12892e-08
3.12004e-08
3.11423e-08
3.10548e-08
3.09987e-08
3.09121e-08
3.08571e-08
3.07695e-08
3.0716e-08
3.06294e-08
3.05771e-08
3.04923e-08
3.04414e-08
3.0357e-08
3.03055e-08
3.02125e-08
3.0473e-08
2.69702e-06
2.04548e-08
1.24127e-07
1.23497e-07
1.22294e-07
1.19538e-07
1.15173e-07
1.09718e-07
1.03785e-07
9.7842e-08
9.21689e-08
8.69091e-08
8.2107e-08
7.77707e-08
7.38629e-08
7.03594e-08
6.7206e-08
6.43792e-08
6.18244e-08
5.95289e-08
5.74413e-08
5.55602e-08
5.38374e-08
5.2281e-08
5.08447e-08
4.9545e-08
4.83355e-08
4.72404e-08
4.62119e-08
4.52817e-08
4.43999e-08
4.36036e-08
4.28412e-08
4.21554e-08
4.14917e-08
4.08973e-08
4.03152e-08
3.97974e-08
3.92838e-08
3.88305e-08
3.83749e-08
3.79768e-08
3.75707e-08
3.72197e-08
3.68561e-08
3.65453e-08
3.62176e-08
3.59421e-08
3.56462e-08
3.5401e-08
3.51319e-08
3.49144e-08
3.46691e-08
3.44744e-08
3.42506e-08
3.40765e-08
3.3873e-08
3.37156e-08
3.3528e-08
3.33886e-08
3.32151e-08
3.309e-08
3.29313e-08
3.28175e-08
3.26712e-08
3.25675e-08
3.24334e-08
3.23378e-08
3.22155e-08
3.21281e-08
3.20139e-08
3.19336e-08
3.18277e-08
3.17551e-08
3.16583e-08
3.15935e-08
3.15016e-08
3.14394e-08
3.13493e-08
3.12893e-08
3.12005e-08
3.11424e-08
3.10549e-08
3.09987e-08
3.09121e-08
3.08571e-08
3.07695e-08
3.07161e-08
3.06294e-08
3.05772e-08
3.04923e-08
3.04414e-08
3.03571e-08
3.03055e-08
3.02125e-08
3.04733e-08
2.69754e-06
2.06088e-08
1.24127e-07
1.23496e-07
1.22295e-07
1.1954e-07
1.15178e-07
1.09724e-07
1.03793e-07
9.78512e-08
9.21787e-08
8.69192e-08
8.2117e-08
7.77804e-08
7.38723e-08
7.03685e-08
6.72146e-08
6.43874e-08
6.18322e-08
5.95363e-08
5.74482e-08
5.55668e-08
5.38437e-08
5.22869e-08
5.08502e-08
4.95502e-08
4.83404e-08
4.72451e-08
4.62163e-08
4.52859e-08
4.44039e-08
4.36074e-08
4.28448e-08
4.21588e-08
4.14949e-08
4.09003e-08
4.03181e-08
3.98002e-08
3.92864e-08
3.8833e-08
3.83773e-08
3.79791e-08
3.75729e-08
3.72218e-08
3.68581e-08
3.65471e-08
3.62194e-08
3.59438e-08
3.56478e-08
3.54025e-08
3.51334e-08
3.49158e-08
3.46704e-08
3.44757e-08
3.42519e-08
3.40776e-08
3.38741e-08
3.37166e-08
3.3529e-08
3.33895e-08
3.3216e-08
3.30908e-08
3.29321e-08
3.28183e-08
3.26719e-08
3.25682e-08
3.24341e-08
3.23384e-08
3.22161e-08
3.21286e-08
3.20144e-08
3.19341e-08
3.18282e-08
3.17555e-08
3.16587e-08
3.15939e-08
3.15019e-08
3.14398e-08
3.13496e-08
3.12896e-08
3.12008e-08
3.11427e-08
3.10551e-08
3.09989e-08
3.09123e-08
3.08573e-08
3.07697e-08
3.07162e-08
3.06295e-08
3.05773e-08
3.04924e-08
3.04415e-08
3.03571e-08
3.03055e-08
3.02126e-08
3.04738e-08
2.69855e-06
2.08075e-08
1.24127e-07
1.23496e-07
1.22295e-07
1.19544e-07
1.15185e-07
1.09736e-07
1.03807e-07
9.78668e-08
9.21952e-08
8.6936e-08
8.21338e-08
7.77968e-08
7.38882e-08
7.03837e-08
6.72291e-08
6.44012e-08
6.18453e-08
5.95487e-08
5.746e-08
5.55778e-08
5.38541e-08
5.22967e-08
5.08596e-08
4.9559e-08
4.83488e-08
4.7253e-08
4.62238e-08
4.5293e-08
4.44106e-08
4.36138e-08
4.28508e-08
4.21645e-08
4.15003e-08
4.09055e-08
4.0323e-08
3.98048e-08
3.92909e-08
3.88372e-08
3.83813e-08
3.79829e-08
3.75765e-08
3.72253e-08
3.68614e-08
3.65503e-08
3.62224e-08
3.59466e-08
3.56505e-08
3.54051e-08
3.51359e-08
3.49181e-08
3.46727e-08
3.44779e-08
3.42539e-08
3.40796e-08
3.38759e-08
3.37184e-08
3.35307e-08
3.33911e-08
3.32175e-08
3.30923e-08
3.29335e-08
3.28196e-08
3.26732e-08
3.25694e-08
3.24352e-08
3.23395e-08
3.22171e-08
3.21296e-08
3.20153e-08
3.19349e-08
3.1829e-08
3.17563e-08
3.16594e-08
3.15946e-08
3.15026e-08
3.14404e-08
3.13501e-08
3.12901e-08
3.12012e-08
3.11431e-08
3.10555e-08
3.09993e-08
3.09127e-08
3.08576e-08
3.077e-08
3.07165e-08
3.06298e-08
3.05775e-08
3.04926e-08
3.04417e-08
3.03572e-08
3.03056e-08
3.02126e-08
3.04745e-08
2.70013e-06
2.10293e-08
1.24127e-07
1.23495e-07
1.22297e-07
1.1955e-07
1.15196e-07
1.09751e-07
1.03827e-07
9.78888e-08
9.22186e-08
8.69599e-08
8.21576e-08
7.782e-08
7.39107e-08
7.04052e-08
6.72497e-08
6.44207e-08
6.18639e-08
5.95662e-08
5.74765e-08
5.55935e-08
5.38689e-08
5.23107e-08
5.08728e-08
4.95715e-08
4.83606e-08
4.72641e-08
4.62343e-08
4.5303e-08
4.44201e-08
4.36227e-08
4.28593e-08
4.21726e-08
4.1508e-08
4.09128e-08
4.03299e-08
3.98115e-08
3.92971e-08
3.88432e-08
3.8387e-08
3.79883e-08
3.75817e-08
3.72302e-08
3.68661e-08
3.65548e-08
3.62267e-08
3.59507e-08
3.56544e-08
3.54088e-08
3.51394e-08
3.49215e-08
3.46759e-08
3.44809e-08
3.42568e-08
3.40824e-08
3.38786e-08
3.37209e-08
3.35331e-08
3.33934e-08
3.32197e-08
3.30944e-08
3.29355e-08
3.28215e-08
3.2675e-08
3.25711e-08
3.24368e-08
3.2341e-08
3.22185e-08
3.2131e-08
3.20166e-08
3.19362e-08
3.18301e-08
3.17574e-08
3.16605e-08
3.15956e-08
3.15035e-08
3.14413e-08
3.1351e-08
3.12909e-08
3.12019e-08
3.11438e-08
3.10561e-08
3.09999e-08
3.09132e-08
3.08581e-08
3.07704e-08
3.0717e-08
3.06301e-08
3.05778e-08
3.04929e-08
3.04419e-08
3.03574e-08
3.03058e-08
3.02128e-08
3.04756e-08
2.70234e-06
2.12645e-08
1.24126e-07
1.23494e-07
1.22298e-07
1.19557e-07
1.1521e-07
1.09772e-07
1.03852e-07
9.79174e-08
9.22489e-08
8.69908e-08
8.21884e-08
7.78502e-08
7.39398e-08
7.04332e-08
6.72764e-08
6.44461e-08
6.18879e-08
5.95889e-08
5.74981e-08
5.56138e-08
5.38881e-08
5.23289e-08
5.08899e-08
4.95877e-08
4.83759e-08
4.72787e-08
4.62481e-08
4.5316e-08
4.44324e-08
4.36344e-08
4.28704e-08
4.21832e-08
4.1518e-08
4.09223e-08
4.0339e-08
3.98201e-08
3.93053e-08
3.8851e-08
3.83944e-08
3.79954e-08
3.75884e-08
3.72366e-08
3.68722e-08
3.65606e-08
3.62322e-08
3.5956e-08
3.56594e-08
3.54136e-08
3.5144e-08
3.49259e-08
3.46801e-08
3.44849e-08
3.42607e-08
3.4086e-08
3.38821e-08
3.37243e-08
3.35362e-08
3.33965e-08
3.32226e-08
3.30971e-08
3.29381e-08
3.2824e-08
3.26773e-08
3.25734e-08
3.2439e-08
3.23431e-08
3.22205e-08
3.21328e-08
3.20184e-08
3.19378e-08
3.18317e-08
3.17589e-08
3.16619e-08
3.15969e-08
3.15047e-08
3.14424e-08
3.1352e-08
3.12919e-08
3.12029e-08
3.11447e-08
3.10569e-08
3.10007e-08
3.09138e-08
3.08588e-08
3.0771e-08
3.07176e-08
3.06306e-08
3.05783e-08
3.04933e-08
3.04423e-08
3.03577e-08
3.03061e-08
3.0213e-08
3.0477e-08
2.70526e-06
2.15096e-08
1.24126e-07
1.23493e-07
1.223e-07
1.19565e-07
1.15227e-07
1.09797e-07
1.03883e-07
9.79526e-08
9.22863e-08
8.7029e-08
8.22264e-08
7.78874e-08
7.39758e-08
7.04677e-08
6.73094e-08
6.44774e-08
6.19177e-08
5.96171e-08
5.75247e-08
5.5639e-08
5.39119e-08
5.23513e-08
5.09112e-08
4.96078e-08
4.83949e-08
4.72966e-08
4.62651e-08
4.53321e-08
4.44477e-08
4.36489e-08
4.28842e-08
4.21962e-08
4.15305e-08
4.09341e-08
4.03502e-08
3.98307e-08
3.93155e-08
3.88607e-08
3.84037e-08
3.80042e-08
3.75968e-08
3.72446e-08
3.68798e-08
3.65679e-08
3.62392e-08
3.59626e-08
3.56657e-08
3.54197e-08
3.51497e-08
3.49314e-08
3.46853e-08
3.44899e-08
3.42654e-08
3.40906e-08
3.38864e-08
3.37284e-08
3.35402e-08
3.34002e-08
3.32261e-08
3.31005e-08
3.29413e-08
3.28271e-08
3.26803e-08
3.25762e-08
3.24417e-08
3.23456e-08
3.22229e-08
3.21351e-08
3.20205e-08
3.19399e-08
3.18337e-08
3.17608e-08
3.16636e-08
3.15986e-08
3.15063e-08
3.14439e-08
3.13534e-08
3.12933e-08
3.12041e-08
3.11458e-08
3.10579e-08
3.10017e-08
3.09147e-08
3.08597e-08
3.07718e-08
3.07184e-08
3.06313e-08
3.0579e-08
3.04938e-08
3.04428e-08
3.03581e-08
3.03065e-08
3.02133e-08
3.04789e-08
2.70896e-06
2.17646e-08
1.24126e-07
1.23491e-07
1.22302e-07
1.19575e-07
1.15248e-07
1.09827e-07
1.03921e-07
9.79946e-08
9.23309e-08
8.70745e-08
8.22718e-08
7.79318e-08
7.40189e-08
7.0509e-08
6.73488e-08
6.45149e-08
6.19532e-08
5.96507e-08
5.75565e-08
5.56691e-08
5.39404e-08
5.23782e-08
5.09366e-08
4.96318e-08
4.84177e-08
4.73181e-08
4.62855e-08
4.53514e-08
4.4466e-08
4.36663e-08
4.29007e-08
4.22119e-08
4.15453e-08
4.09482e-08
4.03636e-08
3.98435e-08
3.93277e-08
3.88723e-08
3.84147e-08
3.80147e-08
3.76068e-08
3.72542e-08
3.68889e-08
3.65766e-08
3.62475e-08
3.59706e-08
3.56733e-08
3.54269e-08
3.51566e-08
3.4938e-08
3.46916e-08
3.4496e-08
3.42711e-08
3.4096e-08
3.38916e-08
3.37334e-08
3.35449e-08
3.34048e-08
3.32305e-08
3.31047e-08
3.29453e-08
3.28309e-08
3.26839e-08
3.25796e-08
3.24449e-08
3.23487e-08
3.22258e-08
3.21379e-08
3.20232e-08
3.19425e-08
3.1836e-08
3.17631e-08
3.16658e-08
3.16006e-08
3.15082e-08
3.14457e-08
3.13551e-08
3.12949e-08
3.12056e-08
3.11472e-08
3.10592e-08
3.10029e-08
3.09158e-08
3.08608e-08
3.07728e-08
3.07193e-08
3.06321e-08
3.05798e-08
3.04944e-08
3.04434e-08
3.03585e-08
3.0307e-08
3.02137e-08
3.04811e-08
2.71353e-06
2.2032e-08
1.24125e-07
1.23489e-07
1.22304e-07
1.19587e-07
1.15272e-07
1.09862e-07
1.03964e-07
9.80434e-08
9.23828e-08
8.71276e-08
8.23247e-08
7.79836e-08
7.4069e-08
7.05571e-08
6.73948e-08
6.45586e-08
6.19947e-08
5.969e-08
5.75937e-08
5.57042e-08
5.39736e-08
5.24096e-08
5.09663e-08
4.96599e-08
4.84443e-08
4.73433e-08
4.63094e-08
4.5374e-08
4.44875e-08
4.36866e-08
4.292e-08
4.22302e-08
4.15627e-08
4.09648e-08
4.03794e-08
3.98585e-08
3.93419e-08
3.88859e-08
3.84277e-08
3.8027e-08
3.76186e-08
3.72654e-08
3.68996e-08
3.65868e-08
3.62572e-08
3.59799e-08
3.56822e-08
3.54354e-08
3.51647e-08
3.49457e-08
3.4699e-08
3.4503e-08
3.42779e-08
3.41025e-08
3.38978e-08
3.37393e-08
3.35505e-08
3.34101e-08
3.32356e-08
3.31095e-08
3.29499e-08
3.28353e-08
3.26881e-08
3.25837e-08
3.24487e-08
3.23524e-08
3.22292e-08
3.21412e-08
3.20263e-08
3.19455e-08
3.18388e-08
3.17658e-08
3.16683e-08
3.16031e-08
3.15104e-08
3.14479e-08
3.13571e-08
3.12968e-08
3.12073e-08
3.11489e-08
3.10607e-08
3.10043e-08
3.09171e-08
3.08621e-08
3.07739e-08
3.07205e-08
3.06331e-08
3.05807e-08
3.04952e-08
3.04442e-08
3.03592e-08
3.03076e-08
3.02142e-08
3.04838e-08
2.71902e-06
2.23166e-08
1.24125e-07
1.23488e-07
1.22307e-07
1.19601e-07
1.15299e-07
1.09902e-07
1.04013e-07
9.80992e-08
9.24422e-08
8.71883e-08
8.23853e-08
7.80429e-08
7.41266e-08
7.06123e-08
6.74476e-08
6.46088e-08
6.20424e-08
5.97351e-08
5.76364e-08
5.57446e-08
5.40118e-08
5.24457e-08
5.10005e-08
4.96922e-08
4.84748e-08
4.73722e-08
4.63368e-08
4.54e-08
4.45121e-08
4.371e-08
4.29422e-08
4.22513e-08
4.15828e-08
4.09838e-08
4.03975e-08
3.98758e-08
3.93584e-08
3.89015e-08
3.84426e-08
3.80413e-08
3.76321e-08
3.72783e-08
3.6912e-08
3.65986e-08
3.62684e-08
3.59906e-08
3.56924e-08
3.54452e-08
3.51741e-08
3.49547e-08
3.47075e-08
3.45112e-08
3.42857e-08
3.41099e-08
3.39048e-08
3.37461e-08
3.3557e-08
3.34163e-08
3.32415e-08
3.31152e-08
3.29553e-08
3.28404e-08
3.26929e-08
3.25883e-08
3.24531e-08
3.23566e-08
3.22333e-08
3.21451e-08
3.20299e-08
3.1949e-08
3.18421e-08
3.17689e-08
3.16712e-08
3.16059e-08
3.15131e-08
3.14504e-08
3.13594e-08
3.12991e-08
3.12094e-08
3.11509e-08
3.10626e-08
3.10061e-08
3.09187e-08
3.08636e-08
3.07753e-08
3.07219e-08
3.06342e-08
3.05819e-08
3.04962e-08
3.04452e-08
3.03599e-08
3.03083e-08
3.02148e-08
3.0487e-08
2.72552e-06
2.26246e-08
1.24124e-07
1.23485e-07
1.22309e-07
1.19616e-07
1.1533e-07
1.09946e-07
1.04069e-07
9.81621e-08
9.25092e-08
8.72568e-08
8.24537e-08
7.811e-08
7.41916e-08
7.06747e-08
6.75072e-08
6.46655e-08
6.20963e-08
5.97861e-08
5.76848e-08
5.57902e-08
5.4055e-08
5.24865e-08
5.10391e-08
4.97287e-08
4.85094e-08
4.7405e-08
4.63678e-08
4.54294e-08
4.454e-08
4.37365e-08
4.29673e-08
4.22751e-08
4.16055e-08
4.10054e-08
4.04181e-08
3.98953e-08
3.9377e-08
3.89193e-08
3.84595e-08
3.80574e-08
3.76475e-08
3.7293e-08
3.6926e-08
3.6612e-08
3.62812e-08
3.60028e-08
3.57041e-08
3.54564e-08
3.51847e-08
3.49648e-08
3.47172e-08
3.45205e-08
3.42945e-08
3.41184e-08
3.39129e-08
3.37539e-08
3.35644e-08
3.34234e-08
3.32482e-08
3.31216e-08
3.29614e-08
3.28463e-08
3.26985e-08
3.25937e-08
3.24582e-08
3.23615e-08
3.22378e-08
3.21495e-08
3.20341e-08
3.1953e-08
3.18459e-08
3.17725e-08
3.16746e-08
3.16092e-08
3.15161e-08
3.14534e-08
3.13621e-08
3.13017e-08
3.12118e-08
3.11532e-08
3.10646e-08
3.10081e-08
3.09204e-08
3.08654e-08
3.07769e-08
3.07235e-08
3.06356e-08
3.05833e-08
3.04974e-08
3.04463e-08
3.03608e-08
3.03092e-08
3.02156e-08
3.04907e-08
2.73307e-06
2.29632e-08
1.24123e-07
1.23483e-07
1.22312e-07
1.19633e-07
1.15363e-07
1.09996e-07
1.04131e-07
9.82322e-08
9.25839e-08
8.73333e-08
8.25302e-08
7.81849e-08
7.42642e-08
7.07445e-08
6.7574e-08
6.4729e-08
6.21566e-08
5.98432e-08
5.77389e-08
5.58414e-08
5.41035e-08
5.25323e-08
5.10825e-08
4.97697e-08
4.85483e-08
4.74417e-08
4.64027e-08
4.54624e-08
4.45714e-08
4.37662e-08
4.29956e-08
4.2302e-08
4.1631e-08
4.10297e-08
4.04412e-08
3.99173e-08
3.93979e-08
3.89392e-08
3.84785e-08
3.80755e-08
3.76648e-08
3.73095e-08
3.69417e-08
3.6627e-08
3.62956e-08
3.60166e-08
3.57172e-08
3.54689e-08
3.51967e-08
3.49763e-08
3.47281e-08
3.4531e-08
3.43045e-08
3.4128e-08
3.3922e-08
3.37626e-08
3.35727e-08
3.34314e-08
3.32558e-08
3.31289e-08
3.29683e-08
3.28529e-08
3.27048e-08
3.25997e-08
3.2464e-08
3.2367e-08
3.2243e-08
3.21545e-08
3.20388e-08
3.19575e-08
3.18502e-08
3.17766e-08
3.16785e-08
3.16129e-08
3.15196e-08
3.14567e-08
3.13652e-08
3.13046e-08
3.12145e-08
3.11559e-08
3.10671e-08
3.10104e-08
3.09225e-08
3.08675e-08
3.07788e-08
3.07254e-08
3.06372e-08
3.05848e-08
3.04987e-08
3.04476e-08
3.03618e-08
3.03103e-08
3.02165e-08
3.04949e-08
2.74173e-06
2.33408e-08
1.24123e-07
1.2348e-07
1.22316e-07
1.19651e-07
1.154e-07
1.10051e-07
1.042e-07
9.83096e-08
9.26665e-08
8.74179e-08
8.26147e-08
7.82678e-08
7.43447e-08
7.08219e-08
6.7648e-08
6.47994e-08
6.22235e-08
5.99066e-08
5.7799e-08
5.58982e-08
5.41573e-08
5.25831e-08
5.11306e-08
4.98152e-08
4.85914e-08
4.74825e-08
4.64414e-08
4.54991e-08
4.46062e-08
4.37992e-08
4.3027e-08
4.23318e-08
4.16594e-08
4.10567e-08
4.04669e-08
3.99418e-08
3.94213e-08
3.89615e-08
3.84997e-08
3.80958e-08
3.76841e-08
3.73279e-08
3.69593e-08
3.66438e-08
3.63116e-08
3.60319e-08
3.57318e-08
3.54829e-08
3.521e-08
3.49891e-08
3.47404e-08
3.45427e-08
3.43157e-08
3.41387e-08
3.39322e-08
3.37724e-08
3.3582e-08
3.34403e-08
3.32643e-08
3.3137e-08
3.29761e-08
3.28604e-08
3.27119e-08
3.26065e-08
3.24704e-08
3.23732e-08
3.22489e-08
3.21602e-08
3.20442e-08
3.19627e-08
3.1855e-08
3.17813e-08
3.16828e-08
3.16171e-08
3.15235e-08
3.14605e-08
3.13688e-08
3.1308e-08
3.12177e-08
3.11589e-08
3.10698e-08
3.1013e-08
3.09248e-08
3.08698e-08
3.07809e-08
3.07275e-08
3.0639e-08
3.05867e-08
3.05002e-08
3.04491e-08
3.03631e-08
3.03115e-08
3.02176e-08
3.04998e-08
2.7515e-06
2.3766e-08
1.24122e-07
1.23477e-07
1.22319e-07
1.19671e-07
1.15441e-07
1.1011e-07
1.04274e-07
9.83944e-08
9.27571e-08
8.75108e-08
8.27076e-08
7.8359e-08
7.44332e-08
7.0907e-08
6.77294e-08
6.4877e-08
6.22972e-08
5.99765e-08
5.78652e-08
5.59608e-08
5.42166e-08
5.26392e-08
5.11837e-08
4.98654e-08
4.8639e-08
4.75276e-08
4.64841e-08
4.55396e-08
4.46447e-08
4.38357e-08
4.30617e-08
4.23648e-08
4.16908e-08
4.10865e-08
4.04953e-08
3.99688e-08
3.94471e-08
3.8986e-08
3.85232e-08
3.81181e-08
3.77055e-08
3.73483e-08
3.69787e-08
3.66624e-08
3.63294e-08
3.60489e-08
3.5748e-08
3.54984e-08
3.52249e-08
3.50033e-08
3.47539e-08
3.45556e-08
3.43281e-08
3.41506e-08
3.39436e-08
3.37833e-08
3.35924e-08
3.34503e-08
3.32738e-08
3.31461e-08
3.29847e-08
3.28687e-08
3.27198e-08
3.26141e-08
3.24776e-08
3.23801e-08
3.22554e-08
3.21665e-08
3.20501e-08
3.19684e-08
3.18604e-08
3.17865e-08
3.16877e-08
3.16218e-08
3.15279e-08
3.14647e-08
3.13727e-08
3.13118e-08
3.12212e-08
3.11623e-08
3.10729e-08
3.1016e-08
3.09275e-08
3.08725e-08
3.07834e-08
3.07299e-08
3.06412e-08
3.05888e-08
3.0502e-08
3.04509e-08
3.03645e-08
3.0313e-08
3.02189e-08
3.05053e-08
2.76239e-06
2.42483e-08
1.24121e-07
1.23474e-07
1.22323e-07
1.19692e-07
1.15485e-07
1.10175e-07
1.04356e-07
9.84867e-08
9.28558e-08
8.76121e-08
8.2809e-08
7.84585e-08
7.45299e-08
7.1e-08
6.78185e-08
6.49618e-08
6.23779e-08
6.00529e-08
5.79377e-08
5.60294e-08
5.42815e-08
5.27006e-08
5.12419e-08
4.99205e-08
4.86912e-08
4.7577e-08
4.6531e-08
4.5584e-08
4.46869e-08
4.38758e-08
4.30998e-08
4.2401e-08
4.17252e-08
4.11193e-08
4.05265e-08
3.99986e-08
3.94754e-08
3.90131e-08
3.85489e-08
3.81427e-08
3.77289e-08
3.73707e-08
3.70001e-08
3.66829e-08
3.63489e-08
3.60676e-08
3.57659e-08
3.55155e-08
3.52412e-08
3.50189e-08
3.47689e-08
3.457e-08
3.43418e-08
3.41637e-08
3.39561e-08
3.37953e-08
3.36038e-08
3.34613e-08
3.32843e-08
3.31562e-08
3.29943e-08
3.28779e-08
3.27286e-08
3.26225e-08
3.24856e-08
3.23878e-08
3.22627e-08
3.21735e-08
3.20567e-08
3.19748e-08
3.18664e-08
3.17923e-08
3.16932e-08
3.1627e-08
3.15328e-08
3.14695e-08
3.13771e-08
3.13161e-08
3.12252e-08
3.11661e-08
3.10764e-08
3.10194e-08
3.09306e-08
3.08755e-08
3.07861e-08
3.07327e-08
3.06436e-08
3.05912e-08
3.05041e-08
3.04529e-08
3.03662e-08
3.03147e-08
3.02204e-08
3.05114e-08
2.77434e-06
2.4797e-08
1.2412e-07
1.2347e-07
1.22327e-07
1.19715e-07
1.15532e-07
1.10245e-07
1.04444e-07
9.85866e-08
9.29627e-08
8.77219e-08
8.29191e-08
7.85667e-08
7.4635e-08
7.11011e-08
6.79154e-08
6.5054e-08
6.24657e-08
6.01362e-08
5.80166e-08
5.61041e-08
5.43523e-08
5.27676e-08
5.13053e-08
4.99805e-08
4.87481e-08
4.76309e-08
4.65822e-08
4.56325e-08
4.47329e-08
4.39195e-08
4.31414e-08
4.24405e-08
4.17628e-08
4.11551e-08
4.05606e-08
4.00311e-08
3.95064e-08
3.90426e-08
3.85771e-08
3.81696e-08
3.77546e-08
3.73953e-08
3.70236e-08
3.67053e-08
3.63703e-08
3.60881e-08
3.57855e-08
3.55343e-08
3.52591e-08
3.50361e-08
3.47853e-08
3.45857e-08
3.43568e-08
3.41781e-08
3.39698e-08
3.38086e-08
3.36164e-08
3.34734e-08
3.32958e-08
3.31672e-08
3.30048e-08
3.2888e-08
3.27382e-08
3.26317e-08
3.24944e-08
3.23962e-08
3.22707e-08
3.21812e-08
3.20641e-08
3.19819e-08
3.18731e-08
3.17987e-08
3.16993e-08
3.16329e-08
3.15383e-08
3.14748e-08
3.13821e-08
3.13209e-08
3.12296e-08
3.11704e-08
3.10804e-08
3.10232e-08
3.0934e-08
3.08789e-08
3.07892e-08
3.07358e-08
3.06463e-08
3.05939e-08
3.05064e-08
3.04552e-08
3.03681e-08
3.03166e-08
3.02222e-08
3.05183e-08
2.78727e-06
2.54221e-08
1.24119e-07
1.23466e-07
1.22331e-07
1.19739e-07
1.15583e-07
1.1032e-07
1.04538e-07
9.86942e-08
9.3078e-08
8.78405e-08
8.30379e-08
7.86836e-08
7.47487e-08
7.12105e-08
6.80202e-08
6.5154e-08
6.25608e-08
6.02264e-08
5.81022e-08
5.61852e-08
5.44291e-08
5.28402e-08
5.13742e-08
5.00457e-08
4.88099e-08
4.76895e-08
4.66377e-08
4.56853e-08
4.4783e-08
4.39671e-08
4.31866e-08
4.24835e-08
4.18038e-08
4.11941e-08
4.05977e-08
4.00664e-08
3.95401e-08
3.90748e-08
3.86078e-08
3.8199e-08
3.77826e-08
3.7422e-08
3.70491e-08
3.67298e-08
3.63937e-08
3.61104e-08
3.58068e-08
3.55548e-08
3.52787e-08
3.50549e-08
3.48032e-08
3.46029e-08
3.43732e-08
3.41938e-08
3.39849e-08
3.3823e-08
3.36302e-08
3.34866e-08
3.33085e-08
3.31794e-08
3.30164e-08
3.28991e-08
3.27488e-08
3.26419e-08
3.25041e-08
3.24056e-08
3.22796e-08
3.21897e-08
3.20722e-08
3.19897e-08
3.18805e-08
3.18059e-08
3.1706e-08
3.16394e-08
3.15444e-08
3.14807e-08
3.13876e-08
3.13262e-08
3.12346e-08
3.11752e-08
3.10848e-08
3.10275e-08
3.09379e-08
3.08826e-08
3.07927e-08
3.07392e-08
3.06494e-08
3.0597e-08
3.05091e-08
3.04578e-08
3.03703e-08
3.03188e-08
3.02243e-08
3.05258e-08
2.80102e-06
2.61335e-08
1.24118e-07
1.23462e-07
1.22336e-07
1.19765e-07
1.15636e-07
1.104e-07
1.04639e-07
9.88095e-08
9.32018e-08
8.79679e-08
8.31658e-08
7.88094e-08
7.48711e-08
7.13285e-08
6.81334e-08
6.52618e-08
6.26635e-08
6.03238e-08
5.81947e-08
5.62727e-08
5.45121e-08
5.29188e-08
5.14487e-08
5.01162e-08
4.88768e-08
4.77528e-08
4.66979e-08
4.57423e-08
4.48373e-08
4.40186e-08
4.32356e-08
4.25301e-08
4.18481e-08
4.12363e-08
4.0638e-08
4.01048e-08
3.95767e-08
3.91097e-08
3.86412e-08
3.82308e-08
3.7813e-08
3.74511e-08
3.70769e-08
3.67563e-08
3.64191e-08
3.61348e-08
3.58301e-08
3.55771e-08
3.53e-08
3.50753e-08
3.48227e-08
3.46216e-08
3.43912e-08
3.4211e-08
3.40013e-08
3.38388e-08
3.36453e-08
3.35011e-08
3.33223e-08
3.31926e-08
3.30291e-08
3.29113e-08
3.27605e-08
3.26531e-08
3.25148e-08
3.24158e-08
3.22893e-08
3.21991e-08
3.20811e-08
3.19983e-08
3.18887e-08
3.18137e-08
3.17134e-08
3.16465e-08
3.15512e-08
3.14872e-08
3.13937e-08
3.13321e-08
3.12401e-08
3.11805e-08
3.10897e-08
3.10323e-08
3.09422e-08
3.08869e-08
3.07967e-08
3.07431e-08
3.06529e-08
3.06005e-08
3.05121e-08
3.04609e-08
3.03729e-08
3.03214e-08
3.02266e-08
3.05342e-08
2.81542e-06
2.69411e-08
1.24117e-07
1.23458e-07
1.2234e-07
1.19793e-07
1.15693e-07
1.10486e-07
1.04747e-07
9.89327e-08
9.33343e-08
8.81044e-08
8.33029e-08
7.89444e-08
7.50026e-08
7.14552e-08
6.82549e-08
6.53778e-08
6.27739e-08
6.04286e-08
5.82942e-08
5.6367e-08
5.46015e-08
5.30034e-08
5.15289e-08
5.01922e-08
4.89489e-08
4.78212e-08
4.67628e-08
4.58039e-08
4.48958e-08
4.40742e-08
4.32885e-08
4.25804e-08
4.18961e-08
4.12819e-08
4.06815e-08
4.01463e-08
3.96163e-08
3.91475e-08
3.86772e-08
3.82653e-08
3.78459e-08
3.74826e-08
3.7107e-08
3.67851e-08
3.64466e-08
3.61611e-08
3.58553e-08
3.56013e-08
3.53231e-08
3.50975e-08
3.4844e-08
3.4642e-08
3.44106e-08
3.42297e-08
3.40192e-08
3.3856e-08
3.36617e-08
3.35169e-08
3.33374e-08
3.32071e-08
3.30429e-08
3.29246e-08
3.27732e-08
3.26653e-08
3.25264e-08
3.2427e-08
3.23e-08
3.22094e-08
3.20909e-08
3.20078e-08
3.18976e-08
3.18224e-08
3.17216e-08
3.16544e-08
3.15586e-08
3.14944e-08
3.14005e-08
3.13387e-08
3.12462e-08
3.11864e-08
3.10952e-08
3.10376e-08
3.09471e-08
3.08916e-08
3.08011e-08
3.07475e-08
3.06568e-08
3.06045e-08
3.05155e-08
3.04643e-08
3.03758e-08
3.03243e-08
3.02294e-08
3.05433e-08
2.83019e-06
2.78553e-08
1.24116e-07
1.23453e-07
1.22345e-07
1.19821e-07
1.15754e-07
1.10576e-07
1.04862e-07
9.90639e-08
9.34754e-08
8.825e-08
8.34493e-08
7.90887e-08
7.51432e-08
7.15908e-08
6.83851e-08
6.5502e-08
6.28923e-08
6.05411e-08
5.8401e-08
5.64681e-08
5.46975e-08
5.30943e-08
5.16151e-08
5.02739e-08
4.90264e-08
4.78947e-08
4.68326e-08
4.58701e-08
4.49588e-08
4.41341e-08
4.33455e-08
4.26346e-08
4.19477e-08
4.13311e-08
4.07284e-08
4.0191e-08
3.9659e-08
3.91883e-08
3.87162e-08
3.83024e-08
3.78815e-08
3.75166e-08
3.71395e-08
3.68162e-08
3.64764e-08
3.61896e-08
3.58826e-08
3.56274e-08
3.53481e-08
3.51215e-08
3.48669e-08
3.46641e-08
3.44318e-08
3.425e-08
3.40386e-08
3.38747e-08
3.36795e-08
3.3534e-08
3.33538e-08
3.32229e-08
3.3058e-08
3.29391e-08
3.2787e-08
3.26786e-08
3.25392e-08
3.24393e-08
3.23116e-08
3.22207e-08
3.21016e-08
3.20181e-08
3.19074e-08
3.18319e-08
3.17305e-08
3.16631e-08
3.15668e-08
3.15023e-08
3.14079e-08
3.13459e-08
3.12529e-08
3.1193e-08
3.11013e-08
3.10435e-08
3.09525e-08
3.08969e-08
3.0806e-08
3.07524e-08
3.06612e-08
3.0609e-08
3.05194e-08
3.04681e-08
3.03791e-08
3.03276e-08
3.02325e-08
3.05532e-08
2.845e-06
2.88863e-08
1.24115e-07
1.23448e-07
1.2235e-07
1.19851e-07
1.15817e-07
1.10672e-07
1.04983e-07
9.92031e-08
9.36254e-08
8.84049e-08
8.36052e-08
7.92425e-08
7.52933e-08
7.17356e-08
6.85242e-08
6.56348e-08
6.30189e-08
6.06613e-08
5.85153e-08
5.65765e-08
5.48003e-08
5.31917e-08
5.17075e-08
5.03614e-08
4.91095e-08
4.79735e-08
4.69075e-08
4.59412e-08
4.50264e-08
4.41983e-08
4.34067e-08
4.26928e-08
4.20032e-08
4.1384e-08
4.07788e-08
4.02391e-08
3.97049e-08
3.92321e-08
3.87581e-08
3.83425e-08
3.79198e-08
3.75532e-08
3.71745e-08
3.68498e-08
3.65085e-08
3.62204e-08
3.5912e-08
3.56557e-08
3.53752e-08
3.51474e-08
3.48918e-08
3.46879e-08
3.44546e-08
3.42719e-08
3.40596e-08
3.38949e-08
3.36989e-08
3.35526e-08
3.33716e-08
3.324e-08
3.30743e-08
3.29548e-08
3.28021e-08
3.26931e-08
3.2553e-08
3.24526e-08
3.23244e-08
3.2233e-08
3.21133e-08
3.20294e-08
3.19182e-08
3.18423e-08
3.17404e-08
3.16727e-08
3.15758e-08
3.1511e-08
3.14162e-08
3.13539e-08
3.12604e-08
3.12002e-08
3.1108e-08
3.105e-08
3.09586e-08
3.09028e-08
3.08115e-08
3.07578e-08
3.06662e-08
3.06139e-08
3.05238e-08
3.04725e-08
3.03829e-08
3.03314e-08
3.02361e-08
3.0564e-08
2.85946e-06
3.00442e-08
1.24114e-07
1.23443e-07
1.22354e-07
1.19883e-07
1.15884e-07
1.10773e-07
1.05112e-07
9.93504e-08
9.37844e-08
8.85694e-08
8.37709e-08
7.94061e-08
7.54529e-08
7.18898e-08
6.86724e-08
6.57764e-08
6.3154e-08
6.07897e-08
5.86373e-08
5.66921e-08
5.49101e-08
5.32957e-08
5.18063e-08
5.0455e-08
4.91984e-08
4.80578e-08
4.69877e-08
4.60173e-08
4.50988e-08
4.42672e-08
4.34723e-08
4.27552e-08
4.20627e-08
4.14407e-08
4.08329e-08
4.02907e-08
3.97542e-08
3.92792e-08
3.88031e-08
3.83855e-08
3.79609e-08
3.75925e-08
3.72122e-08
3.68859e-08
3.6543e-08
3.62535e-08
3.59437e-08
3.56861e-08
3.54043e-08
3.51754e-08
3.49186e-08
3.47137e-08
3.44793e-08
3.42956e-08
3.40823e-08
3.39168e-08
3.37198e-08
3.35727e-08
3.33908e-08
3.32585e-08
3.30921e-08
3.29719e-08
3.28184e-08
3.27088e-08
3.25681e-08
3.24672e-08
3.23382e-08
3.22463e-08
3.21261e-08
3.20418e-08
3.19299e-08
3.18536e-08
3.17512e-08
3.16831e-08
3.15857e-08
3.15206e-08
3.14252e-08
3.13626e-08
3.12687e-08
3.12083e-08
3.11155e-08
3.10573e-08
3.09653e-08
3.09094e-08
3.08176e-08
3.07638e-08
3.06717e-08
3.06195e-08
3.05287e-08
3.04774e-08
3.03872e-08
3.03357e-08
3.02402e-08
3.05755e-08
2.87307e-06
3.13391e-08
1.24113e-07
1.23438e-07
1.22359e-07
1.19915e-07
1.15954e-07
1.10878e-07
1.05247e-07
9.95058e-08
9.39525e-08
8.87434e-08
8.39465e-08
7.95796e-08
7.56224e-08
7.20536e-08
6.88299e-08
6.5927e-08
6.32977e-08
6.09263e-08
5.87672e-08
5.68154e-08
5.50271e-08
5.34067e-08
5.19117e-08
5.0555e-08
4.92933e-08
4.81479e-08
4.70733e-08
4.60987e-08
4.51762e-08
4.43408e-08
4.35424e-08
4.2822e-08
4.21263e-08
4.15014e-08
4.08909e-08
4.0346e-08
3.9807e-08
3.93296e-08
3.88513e-08
3.84316e-08
3.8005e-08
3.76348e-08
3.72526e-08
3.69246e-08
3.65801e-08
3.62891e-08
3.59778e-08
3.57188e-08
3.54356e-08
3.52055e-08
3.49474e-08
3.47414e-08
3.45059e-08
3.43212e-08
3.41068e-08
3.39404e-08
3.37424e-08
3.35945e-08
3.34117e-08
3.32786e-08
3.31113e-08
3.29904e-08
3.28362e-08
3.27259e-08
3.25844e-08
3.24829e-08
3.23533e-08
3.22609e-08
3.214e-08
3.20553e-08
3.19427e-08
3.1866e-08
3.1763e-08
3.16946e-08
3.15966e-08
3.15312e-08
3.14352e-08
3.13723e-08
3.12778e-08
3.12171e-08
3.11238e-08
3.10653e-08
3.09728e-08
3.09167e-08
3.08243e-08
3.07705e-08
3.06779e-08
3.06256e-08
3.05342e-08
3.0483e-08
3.0392e-08
3.03406e-08
3.02448e-08
3.05879e-08
2.88528e-06
3.27807e-08
1.24112e-07
1.23432e-07
1.22364e-07
1.19949e-07
1.16027e-07
1.10989e-07
1.05389e-07
9.96695e-08
9.41298e-08
8.89272e-08
8.41321e-08
7.97632e-08
7.5802e-08
7.22273e-08
6.89971e-08
6.60868e-08
6.34503e-08
6.10715e-08
5.89054e-08
5.69465e-08
5.51517e-08
5.35248e-08
5.20239e-08
5.06614e-08
4.93944e-08
4.82439e-08
4.71646e-08
4.61854e-08
4.52588e-08
4.44193e-08
4.36172e-08
4.28933e-08
4.21943e-08
4.15662e-08
4.09528e-08
4.04051e-08
3.98635e-08
3.93836e-08
3.89029e-08
3.8481e-08
3.80523e-08
3.768e-08
3.72959e-08
3.69662e-08
3.66199e-08
3.63273e-08
3.60144e-08
3.5754e-08
3.54693e-08
3.52379e-08
3.49785e-08
3.47713e-08
3.45345e-08
3.43487e-08
3.41331e-08
3.39658e-08
3.37667e-08
3.3618e-08
3.34342e-08
3.33002e-08
3.31321e-08
3.30104e-08
3.28554e-08
3.27444e-08
3.26022e-08
3.25001e-08
3.23696e-08
3.22768e-08
3.21551e-08
3.20699e-08
3.19567e-08
3.18796e-08
3.17759e-08
3.17071e-08
3.16085e-08
3.15427e-08
3.14461e-08
3.13829e-08
3.12878e-08
3.12268e-08
3.11329e-08
3.10742e-08
3.09811e-08
3.09248e-08
3.08318e-08
3.07779e-08
3.06848e-08
3.06325e-08
3.05404e-08
3.04892e-08
3.03975e-08
3.03461e-08
3.025e-08
3.06012e-08
2.89546e-06
3.43779e-08
1.24111e-07
1.23426e-07
1.22369e-07
1.19984e-07
1.16103e-07
1.11105e-07
1.05537e-07
9.98414e-08
9.43163e-08
8.9121e-08
8.4328e-08
7.99572e-08
7.59919e-08
7.24111e-08
6.91741e-08
6.62562e-08
6.36122e-08
6.12255e-08
5.9052e-08
5.70857e-08
5.5284e-08
5.36504e-08
5.21431e-08
5.07745e-08
4.9502e-08
4.8346e-08
4.72618e-08
4.62778e-08
4.53468e-08
4.4503e-08
4.3697e-08
4.29693e-08
4.22669e-08
4.16354e-08
4.10188e-08
4.04682e-08
3.99238e-08
3.94413e-08
3.89581e-08
3.85338e-08
3.81028e-08
3.77284e-08
3.73423e-08
3.70107e-08
3.66625e-08
3.63682e-08
3.60536e-08
3.57917e-08
3.55055e-08
3.52726e-08
3.50118e-08
3.48033e-08
3.45653e-08
3.43783e-08
3.41615e-08
3.39932e-08
3.3793e-08
3.36433e-08
3.34585e-08
3.33236e-08
3.31545e-08
3.30321e-08
3.28761e-08
3.27645e-08
3.26214e-08
3.25186e-08
3.23874e-08
3.2294e-08
3.21715e-08
3.20859e-08
3.19719e-08
3.18944e-08
3.179e-08
3.17207e-08
3.16215e-08
3.15553e-08
3.1458e-08
3.13946e-08
3.12988e-08
3.12375e-08
3.1143e-08
3.1084e-08
3.09902e-08
3.09337e-08
3.08401e-08
3.07862e-08
3.06925e-08
3.06401e-08
3.05474e-08
3.04962e-08
3.04037e-08
3.03522e-08
3.0256e-08
3.06153e-08
2.90291e-06
3.61388e-08
1.2411e-07
1.2342e-07
1.22374e-07
1.20021e-07
1.16182e-07
1.11226e-07
1.05693e-07
1.00022e-07
9.45122e-08
8.93248e-08
8.45344e-08
8.01618e-08
7.61923e-08
7.26052e-08
6.93612e-08
6.64354e-08
6.37835e-08
6.13887e-08
5.92074e-08
5.72333e-08
5.54243e-08
5.37835e-08
5.22697e-08
5.08947e-08
4.96163e-08
4.84545e-08
4.73651e-08
4.6376e-08
4.54403e-08
4.45921e-08
4.37819e-08
4.30502e-08
4.23441e-08
4.17091e-08
4.10893e-08
4.05355e-08
3.99882e-08
3.95028e-08
3.9017e-08
3.85902e-08
3.81568e-08
3.77802e-08
3.73919e-08
3.70582e-08
3.67081e-08
3.6412e-08
3.60956e-08
3.5832e-08
3.55442e-08