/*--------------------------------*- C++ -*----------------------------------*\
| =========                 |                                                 |
| \\      /  F ield         | OpenFOAM: The Open Source CFD Toolbox           |
|  \\    /   O peration     | Version:  v2012                                 |
|   \\  /    A nd           | Website:  www.openfoam.com                      |
|    \\/     M anipulation  |                                                 |
\*---------------------------------------------------------------------------*/
FoamFile
{
    version     2.0;
    format      ascii;
    class       volScalarField;
    location    "57.5";
    object      yPlus;
}
// * * * * * * * * * * * * * * * * * * * * * * * * * * * * * * * * * * * * * //

dimensions      [0 0 0 0 0 0 0];


internalField   uniform 0;

boundaryField
{
    inlet
    {
        type            calculated;
        value           uniform 0;
    }
    outlet
    {
        type            calculated;
        value           uniform 0;
    }
    topWall
    {
        type            calculated;
        value           nonuniform List<scalar> 
545
(
0.153623
0.2649
0.339841
0.399475
0.449959
0.494131
0.533584
0.569322
0.602029
0.632195
0.660188
0.686293
0.710736
0.7337
0.755336
0.775772
0.795115
0.813459
0.830884
0.84746
0.863249
0.878308
0.892684
0.906423
0.919565
0.932146
0.944198
0.955753
0.966838
0.977479
0.9877
0.997521
1.00696
1.01605
1.02479
1.0332
1.04131
1.04912
1.05665
1.0639
1.0709
1.07766
1.08417
1.09046
1.09654
1.1024
1.10807
1.11355
1.11884
1.12396
1.12891
1.13369
1.13832
1.1428
1.14713
1.15133
1.15539
1.15932
1.16313
1.16681
1.17038
1.17384
1.17719
1.18044
1.18359
1.18664
1.1896
1.19247
1.19525
1.19794
1.20056
1.2031
1.20552
1.20787
1.2102
1.21252
1.21481
1.21709
1.21934
1.22158
1.2238
1.22601
1.22819
1.23036
1.23252
1.23465
1.23677
1.23887
1.24096
1.24303
1.24508
1.24712
1.24914
1.25115
1.25314
1.25512
1.2569
1.25849
1.26008
1.26167
1.26326
1.26485
1.26644
1.26803
1.26962
1.27121
1.2728
1.27439
1.27598
1.27757
1.27916
1.28074
1.28233
1.28392
1.2855
1.28709
1.28867
1.29026
1.29184
1.29343
1.29501
1.29659
1.29817
1.29976
1.30134
1.30292
1.3045
1.30608
1.30766
1.30924
1.31081
1.31239
1.31397
1.31554
1.31712
1.31869
1.32027
1.32184
1.32341
1.32498
1.32655
1.32812
1.32969
1.33126
1.33283
1.3344
1.33596
1.33753
1.3391
1.34066
1.34222
1.34379
1.34535
1.34691
1.34847
1.35003
1.35158
1.35314
1.3547
1.35625
1.35781
1.35936
1.36091
1.36246
1.36401
1.36556
1.36711
1.36865
1.3702
1.37175
1.37329
1.37483
1.37637
1.37791
1.37945
1.38099
1.38253
1.38406
1.3856
1.38713
1.38866
1.39019
1.39172
1.39325
1.39477
1.3963
1.39782
1.39934
1.40087
1.40238
1.4039
1.40542
1.40694
1.40845
1.40996
1.41147
1.41298
1.41449
1.416
1.4175
1.419
1.42051
1.42201
1.4235
1.425
1.4265
1.42799
1.42948
1.43097
1.43246
1.43395
1.43543
1.43691
1.4384
1.43987
1.44135
1.44283
1.4443
1.44577
1.44724
1.44871
1.45018
1.45164
1.45311
1.45457
1.45603
1.45748
1.45894
1.46039
1.46184
1.46329
1.46473
1.46618
1.46762
1.46906
1.4705
1.47193
1.47337
1.4748
1.47623
1.47765
1.47908
1.4805
1.48192
1.48333
1.48475
1.48616
1.48757
1.48898
1.49039
1.49179
1.49319
1.49459
1.49598
1.49737
1.49876
1.50015
1.50154
1.50292
1.5043
1.50568
1.50705
1.50842
1.50979
1.51116
1.51252
1.51388
1.51524
1.51659
1.51787
1.51908
1.52029
1.52151
1.52274
1.52398
1.52522
1.52648
1.52774
1.52901
1.53029
1.53157
1.53287
1.53417
1.53548
1.5368
1.53812
1.53946
1.5408
1.54215
1.54351
1.54487
1.54625
1.54763
1.54902
1.55041
1.55182
1.55323
1.55464
1.55607
1.5575
1.55894
1.56039
1.56184
1.5633
1.56477
1.56625
1.56773
1.56921
1.57071
1.57221
1.57371
1.57523
1.57675
1.57827
1.5798
1.58134
1.58288
1.58442
1.58597
1.58753
1.58909
1.59066
1.59223
1.5938
1.59538
1.59696
1.59855
1.60014
1.60173
1.60333
1.60493
1.60653
1.60814
1.60975
1.61136
1.61297
1.61458
1.6162
1.61781
1.61943
1.62105
1.62267
1.62428
1.6259
1.62752
1.62914
1.63075
1.63237
1.63398
1.63559
1.6372
1.63881
1.64041
1.64201
1.64361
1.6452
1.64679
1.64838
1.64996
1.65153
1.6531
1.65466
1.65622
1.65777
1.65931
1.66084
1.66237
1.66389
1.66539
1.66689
1.66838
1.66986
1.67133
1.67279
1.67424
1.67567
1.67709
1.6785
1.6799
1.68128
1.68265
1.684
1.68534
1.68666
1.68797
1.68926
1.69053
1.69179
1.69302
1.69424
1.69544
1.69662
1.69778
1.69892
1.70004
1.70114
1.70221
1.70326
1.70429
1.7053
1.70628
1.70724
1.70817
1.70908
1.70997
1.71082
1.71165
1.71246
1.71323
1.71398
1.7147
1.71539
1.71605
1.71668
1.71728
1.71785
1.71839
1.7189
1.71938
1.71983
1.72024
1.72062
1.72097
1.72129
1.72157
1.72182
1.72204
1.72222
1.72236
1.72248
1.72256
1.7226
1.72261
1.72258
1.72252
1.72243
1.72229
1.72213
1.72192
1.72169
1.72141
1.72111
1.72076
1.72038
1.71997
1.71952
1.71903
1.71852
1.71796
1.71738
1.71668
1.71588
1.71504
1.71417
1.71325
1.71231
1.71134
1.71034
1.70932
1.70827
1.70719
1.70611
1.70499
1.70386
1.70271
1.70156
1.70038
1.6992
1.698
1.69679
1.69558
1.69436
1.69313
1.6919
1.69066
1.68942
1.68818
1.68694
1.6857
1.68446
1.68322
1.68199
1.68076
1.67953
1.67831
1.6771
1.67589
1.67469
1.6735
1.67232
1.67114
1.66998
1.66883
1.66769
1.66656
1.66545
1.66435
1.66326
1.66219
1.66114
1.66009
1.65907
1.65806
1.65707
1.65609
1.65514
1.6542
1.65329
1.65238
1.65151
1.65065
1.64981
1.64899
1.6482
1.64742
1.64667
1.64594
1.64524
1.64455
1.6439
1.64326
1.64265
1.64206
1.6415
1.64095
1.64044
1.63995
1.63949
1.63905
1.63864
1.63826
1.6379
1.63757
1.63726
1.63698
1.63673
1.63651
1.63631
1.63614
1.636
1.63588
1.63579
1.63573
1.63571
1.63568
)
;
    }
    bottomWall
    {
        type            calculated;
        value           nonuniform List<scalar> 
449
(
0.00273336
0.00479839
0.00537341
0.00532613
0.00525509
0.00515928
0.00506213
0.0049712
0.00488769
0.00481137
0.00474152
0.00467748
0.00461853
0.00456395
0.00451322
0.00446596
0.00442173
0.00438025
0.00434117
0.00430427
0.00426934
0.00423621
0.00420471
0.00417469
0.00414603
0.00411863
0.00409239
0.00406721
0.00404303
0.00401977
0.00399737
0.00397578
0.00395493
0.00393478
0.00391531
0.00389644
0.00387817
0.00386044
0.00384324
0.00382652
0.00381027
0.00379446
0.00377907
0.00376407
0.00374946
0.00373521
0.00372132
0.00370776
0.00369453
0.0036816
0.00366897
0.00365663
0.00364455
0.00363274
0.00362117
0.00360985
0.00359874
0.00358787
0.0035772
0.00356674
0.00355646
0.00354638
0.00353648
0.00352676
0.0035172
0.00350781
0.00349856
0.00348948
0.00348055
0.00347175
0.0034631
0.00345458
0.00344619
0.00343793
0.0034298
0.00342178
0.00341388
0.00340609
0.00339841
0.00339084
0.00338338
0.00337602
0.00336875
0.00336159
0.00335452
0.00334754
0.00334065
0.00333385
0.00332713
0.0033205
0.00331395
0.00330748
0.00330108
0.00329477
0.00328853
0.00328236
0.00327626
0.00327023
0.00326427
0.00325837
0.00325254
0.00324678
0.00324107
0.00323543
0.00322985
0.00322432
0.00321885
0.00321344
0.00320809
0.00320278
0.00319754
0.00319234
0.00318719
0.00318209
0.00317705
0.00317205
0.00316709
0.00316219
0.00315732
0.00315251
0.00314773
0.003143
0.00313832
0.00313367
0.00312906
0.0031245
0.00311997
0.00311548
0.00311103
0.00310662
0.00310225
0.00309791
0.0030936
0.00308933
0.0030851
0.0030809
0.00307673
0.0030726
0.0030685
0.00306442
0.00306039
0.00305638
0.0030524
0.00304845
0.00304453
0.00304064
0.00303678
0.00303295
0.00302914
0.00302536
0.00302161
0.00301789
0.00301419
0.00301052
0.00300687
0.00300325
0.00299965
0.00299608
0.00299253
0.002989
0.0029855
0.00298202
0.00297857
0.00297513
0.00297172
0.00296833
0.00296497
0.00296162
0.00295829
0.00295499
0.00295171
0.00294844
0.0029452
0.00294215
0.00293929
0.00293642
0.00293354
0.00293065
0.00292775
0.00292484
0.00292192
0.002919
0.00291606
0.00291312
0.00291017
0.0029072
0.00290423
0.00290126
0.00289827
0.00289527
0.00289227
0.00288926
0.00288624
0.00288321
0.00288017
0.00287713
0.00287408
0.00287102
0.00286795
0.00286488
0.00286179
0.00285871
0.00285561
0.0028525
0.00284939
0.00284627
0.00284315
0.00284001
0.00283687
0.00283373
0.00283058
0.00282742
0.00282425
0.00282108
0.0028179
0.00281471
0.00281152
0.00280832
0.00280512
0.00280191
0.00279869
0.00279547
0.00279225
0.00278902
0.00278578
0.00278253
0.00277929
0.00277603
0.00277277
0.00276951
0.00276624
0.00276297
0.00275969
0.00275641
0.00275312
0.00274983
0.00274653
0.00274323
0.00273993
0.00273662
0.0027333
0.00272999
0.00272667
0.00272334
0.00272001
0.00271668
0.00271335
0.00271001
0.00270667
0.00270332
0.00269997
0.00269662
0.00269327
0.00268991
0.00268655
0.00268319
0.00267982
0.00267645
0.00267309
0.00266971
0.00266634
0.00266296
0.00265958
0.0026562
0.00265282
0.00264943
0.00264605
0.00264266
0.00263927
0.00263588
0.00263249
0.00262909
0.0026257
0.0026223
0.00261891
0.00261551
0.00261211
0.00260871
0.00260532
0.00260191
0.00259851
0.00259511
0.00259171
0.00258831
0.00258491
0.0025815
0.0025781
0.0025747
0.0025713
0.00256789
0.00256449
0.00256109
0.00255769
0.00255429
0.00255089
0.00254749
0.00254409
0.0025407
0.0025373
0.0025339
0.00253051
0.00252712
0.00252373
0.00252033
0.00251695
0.00251356
0.00251017
0.00250679
0.0025034
0.00250002
0.00249664
0.00249327
0.00248989
0.00248652
0.00248315
0.00247978
0.00247641
0.00247305
0.00246968
0.00246632
0.00246297
0.00245961
0.00245626
0.00245291
0.00244956
0.00244622
0.00244288
0.00243954
0.00243621
0.00243287
0.00242955
0.00242622
0.0024229
0.00241958
0.00241626
0.00241295
0.00240964
0.00240634
0.00240304
0.00239974
0.00239645
0.00239316
0.00238987
0.00238659
0.00238331
0.00238004
0.00237677
0.0023735
0.00237024
0.00236698
0.00236373
0.00236048
0.00235724
0.002354
0.0023504
0.00234648
0.00234263
0.00233882
0.00233507
0.00233137
0.00232772
0.00232412
0.00232058
0.00231707
0.00231362
0.00231021
0.00230685
0.00230353
0.00230026
0.00229702
0.00229383
0.00229067
0.00228756
0.00228448
0.00228145
0.00227844
0.00227548
0.00227255
0.00226965
0.00226679
0.00226396
0.00226116
0.0022584
0.00225566
0.00225296
0.00225028
0.00224764
0.00224502
0.00224243
0.00223987
0.00223734
0.00223483
0.00223235
0.00222989
0.00222747
0.00222506
0.00222268
0.00222032
0.00221799
0.00221567
0.00221339
0.00221112
0.00220888
0.00220665
0.00220445
0.00220227
0.00220011
0.00219797
0.00219585
0.00219374
0.00219166
0.00218959
0.00218755
0.00218552
0.00218351
0.00218152
0.00217955
0.00217758
0.00217564
0.00217371
0.00217181
0.00216991
0.00216804
0.00216616
0.00216433
0.00216248
0.00216067
0.00215885
0.00215708
0.00215528
0.00215354
0.00215176
0.00215006
0.00214828
0.00214663
0.00214486
0.00214324
0.00214148
0.0021399
0.00213814
0.0021366
0.00213486
0.0021333
0.00213165
0.00212994
0.00212863
0.00212639
0.00212604
0.00212282
)
;
    }
    symmetry
    {
        type            symmetryPlane;
    }
    frontAndBack
    {
        type            empty;
    }
}


// ************************************************************************* //
