/*--------------------------------*- C++ -*----------------------------------*\
| =========                 |                                                 |
| \\      /  F ield         | OpenFOAM: The Open Source CFD Toolbox           |
|  \\    /   O peration     | Version:  v2012                                 |
|   \\  /    A nd           | Website:  www.openfoam.com                      |
|    \\/     M anipulation  |                                                 |
\*---------------------------------------------------------------------------*/
FoamFile
{
    version     2.0;
    format      ascii;
    class       volScalarField;
    location    "57";
    object      epsilon;
}
// * * * * * * * * * * * * * * * * * * * * * * * * * * * * * * * * * * * * * //

dimensions      [0 2 -3 0 0 0 0];


internalField   nonuniform List<scalar> 
209825
(
0.759996
0.634107
0.541346
0.473959
0.424894
0.38866
0.361304
0.340219
0.323591
0.310263
0.299363
0.290355
0.282771
0.276355
0.270825
0.266062
0.261876
0.258224
0.254961
0.252085
0.249478
0.247165
0.24504
0.243146
0.241385
0.239812
0.238333
0.237011
0.235754
0.234633
0.233554
0.232595
0.23166
0.230836
0.230022
0.229308
0.228595
0.227975
0.227347
0.226806
0.22625
0.225776
0.225283
0.224868
0.224431
0.224064
0.223673
0.223351
0.223006
0.222715
0.22241
0.222154
0.221882
0.221655
0.221403
0.221212
0.220991
0.220811
0.220624
0.220459
0.220291
0.22015
0.220005
0.219883
0.219754
0.219658
0.219533
0.219457
0.219355
0.219297
0.219208
0.219157
0.219082
0.21904
0.218975
0.21894
0.218884
0.218858
0.218813
0.218795
0.21876
0.218752
0.218732
0.218742
0.218739
0.218773
0.218773
0.218829
0.21884
0.218918
0.218936
0.219059
0.219113
0.221706
2.96701
582.71
0.759996
0.634108
0.541345
0.473958
0.424892
0.388656
0.361298
0.340212
0.323583
0.310254
0.299354
0.290345
0.28276
0.276344
0.270813
0.266051
0.261865
0.258212
0.254948
0.252072
0.249465
0.247152
0.245027
0.243133
0.241371
0.239799
0.238319
0.236998
0.23574
0.23462
0.23354
0.232581
0.231646
0.230822
0.230008
0.229294
0.228581
0.227961
0.227333
0.226792
0.226236
0.225762
0.225268
0.224853
0.224416
0.224049
0.223659
0.223336
0.222991
0.2227
0.222396
0.22214
0.221867
0.22164
0.221388
0.221197
0.220976
0.220796
0.220609
0.220444
0.220276
0.220135
0.21999
0.219868
0.219739
0.219643
0.219518
0.219442
0.21934
0.219281
0.219192
0.219141
0.219067
0.219025
0.218959
0.218925
0.218869
0.218842
0.218798
0.21878
0.218745
0.218737
0.218716
0.218727
0.218723
0.218758
0.218758
0.218813
0.218824
0.218903
0.21892
0.219043
0.219098
0.221694
2.97141
579.386
0.759996
0.634109
0.541343
0.47395
0.424877
0.388635
0.361272
0.340181
0.323549
0.310216
0.299314
0.290302
0.282716
0.276298
0.270766
0.266002
0.261814
0.258161
0.254896
0.25202
0.249411
0.247098
0.244972
0.243077
0.241316
0.239743
0.238263
0.236941
0.235683
0.234562
0.233482
0.232523
0.231588
0.230763
0.229949
0.229234
0.228521
0.227901
0.227273
0.226732
0.226176
0.225701
0.225208
0.224793
0.224355
0.223988
0.223598
0.223275
0.22293
0.222639
0.222334
0.222078
0.221805
0.221578
0.221326
0.221135
0.220914
0.220734
0.220547
0.220382
0.220214
0.220072
0.219928
0.219806
0.219676
0.21958
0.219455
0.219379
0.219277
0.219218
0.219129
0.219078
0.219003
0.218962
0.218896
0.218861
0.218805
0.218779
0.218734
0.218716
0.218681
0.218673
0.218652
0.218663
0.218659
0.218693
0.218693
0.218749
0.21876
0.218838
0.218855
0.218978
0.219033
0.221637
2.97905
575.265
0.759997
0.63411
0.54134
0.473937
0.424853
0.388601
0.361229
0.34013
0.323491
0.310153
0.299245
0.29023
0.282641
0.27622
0.270685
0.265919
0.26173
0.258075
0.254808
0.251931
0.249321
0.247006
0.24488
0.242984
0.241222
0.239648
0.238167
0.236845
0.235586
0.234465
0.233384
0.232425
0.231489
0.230664
0.22985
0.229135
0.228421
0.227801
0.227172
0.226631
0.226074
0.2256
0.225106
0.22469
0.224253
0.223886
0.223495
0.223172
0.222827
0.222535
0.22223
0.221974
0.221701
0.221474
0.221221
0.221031
0.22081
0.220629
0.220442
0.220276
0.220108
0.219967
0.219822
0.2197
0.21957
0.219474
0.219349
0.219273
0.219171
0.219112
0.219023
0.218971
0.218897
0.218855
0.218789
0.218754
0.218698
0.218671
0.218627
0.218609
0.218573
0.218565
0.218544
0.218554
0.218551
0.218584
0.218585
0.21864
0.21865
0.218728
0.218746
0.218868
0.218923
0.221539
2.99061
571.155
0.759999
0.634113
0.541335
0.473919
0.424819
0.388552
0.361167
0.340057
0.323409
0.310063
0.299149
0.290128
0.282534
0.276109
0.270571
0.265802
0.26161
0.257953
0.254684
0.251805
0.249194
0.246877
0.244749
0.242852
0.241089
0.239514
0.238032
0.236709
0.235449
0.234327
0.233246
0.232286
0.23135
0.230524
0.229709
0.228993
0.228279
0.227659
0.227029
0.226488
0.225931
0.225456
0.224961
0.224546
0.224108
0.22374
0.223349
0.223026
0.222681
0.222389
0.222084
0.221827
0.221554
0.221326
0.221074
0.220883
0.220662
0.220481
0.220293
0.220128
0.21996
0.219818
0.219673
0.219551
0.219421
0.219324
0.219199
0.219123
0.21902
0.218961
0.218872
0.218821
0.218746
0.218704
0.218638
0.218603
0.218546
0.21852
0.218475
0.218456
0.218421
0.218412
0.218391
0.218401
0.218397
0.218431
0.218431
0.218486
0.218496
0.218574
0.218591
0.218713
0.218768
0.221401
3.00652
567.402
0.76
0.634116
0.541329
0.473895
0.424775
0.388489
0.361087
0.339963
0.323303
0.309947
0.299025
0.289997
0.282396
0.275966
0.270423
0.26565
0.261455
0.257794
0.254524
0.251641
0.249028
0.24671
0.24458
0.242681
0.240916
0.23934
0.237857
0.236533
0.235272
0.234149
0.233067
0.232106
0.231169
0.230342
0.229527
0.22881
0.228096
0.227474
0.226845
0.226302
0.225745
0.225269
0.224774
0.224358
0.22392
0.223552
0.223161
0.222837
0.222491
0.222199
0.221894
0.221637
0.221363
0.221135
0.220882
0.220691
0.22047
0.220289
0.220101
0.219935
0.219767
0.219625
0.219479
0.219357
0.219227
0.21913
0.219005
0.218928
0.218825
0.218766
0.218677
0.218625
0.21855
0.218508
0.218441
0.218406
0.21835
0.218323
0.218278
0.218259
0.218223
0.218215
0.218193
0.218203
0.218199
0.218231
0.218231
0.218286
0.218296
0.218373
0.21839
0.218512
0.218567
0.221221
3.02718
564.171
0.760002
0.63412
0.541321
0.473865
0.424721
0.388411
0.360989
0.339847
0.323172
0.309804
0.298871
0.289834
0.282226
0.27579
0.270241
0.265463
0.261264
0.2576
0.254325
0.25144
0.248824
0.246503
0.244371
0.242471
0.240704
0.239126
0.237642
0.236316
0.235054
0.233929
0.232846
0.231884
0.230946
0.230118
0.229302
0.228585
0.227869
0.227247
0.226617
0.226074
0.225516
0.22504
0.224544
0.224127
0.223688
0.22332
0.222928
0.222604
0.222258
0.221965
0.221659
0.221402
0.221128
0.2209
0.220647
0.220455
0.220233
0.220052
0.219863
0.219698
0.219529
0.219386
0.219241
0.219118
0.218988
0.218891
0.218765
0.218688
0.218585
0.218526
0.218436
0.218384
0.218308
0.218266
0.2182
0.218164
0.218107
0.21808
0.218035
0.218016
0.21798
0.217971
0.217949
0.217958
0.217954
0.217985
0.217985
0.218039
0.218049
0.218126
0.218142
0.218264
0.218319
0.221
3.05303
561.521
0.760005
0.634125
0.541312
0.47383
0.424657
0.388319
0.360872
0.339709
0.323016
0.309633
0.298688
0.289641
0.282024
0.27558
0.270025
0.265241
0.261036
0.257367
0.254089
0.2512
0.248581
0.246258
0.244123
0.24222
0.240451
0.238871
0.237385
0.236057
0.234793
0.233668
0.232583
0.23162
0.23068
0.229852
0.229034
0.228316
0.227599
0.226977
0.226345
0.225801
0.225243
0.224766
0.224269
0.223852
0.223413
0.223044
0.222651
0.222327
0.22198
0.221687
0.22138
0.221122
0.220848
0.220619
0.220366
0.220173
0.219951
0.21977
0.219581
0.219415
0.219245
0.219103
0.218957
0.218834
0.218703
0.218605
0.21848
0.218402
0.218299
0.218239
0.218149
0.218097
0.218021
0.217979
0.217912
0.217876
0.217819
0.217791
0.217745
0.217727
0.21769
0.217681
0.217658
0.217667
0.217662
0.217693
0.217693
0.217746
0.217755
0.217832
0.217848
0.217969
0.218024
0.220738
3.08446
559.44
0.760008
0.634131
0.541302
0.47379
0.424582
0.388211
0.360736
0.339548
0.322835
0.309435
0.298476
0.289416
0.281789
0.275336
0.269773
0.264982
0.260772
0.257098
0.253815
0.250922
0.248299
0.245972
0.243834
0.241928
0.240157
0.238574
0.237086
0.235756
0.234491
0.233363
0.232277
0.231312
0.230372
0.229542
0.228723
0.228003
0.227286
0.226662
0.226029
0.225485
0.224925
0.224447
0.22395
0.223532
0.223092
0.222722
0.222329
0.222004
0.221656
0.221363
0.221055
0.220797
0.220522
0.220293
0.220039
0.219846
0.219623
0.219441
0.219252
0.219085
0.218916
0.218773
0.218626
0.218503
0.218371
0.218274
0.218148
0.21807
0.217966
0.217906
0.217815
0.217763
0.217687
0.217644
0.217577
0.217541
0.217483
0.217455
0.217409
0.21739
0.217353
0.217343
0.21732
0.217328
0.217322
0.217352
0.217352
0.217405
0.217414
0.217489
0.217505
0.217626
0.21768
0.220433
3.12187
557.867
0.760011
0.634137
0.54129
0.473744
0.424497
0.388089
0.360581
0.339366
0.322629
0.309209
0.298233
0.289159
0.28152
0.275057
0.269485
0.264687
0.26047
0.256789
0.253501
0.250603
0.247976
0.245645
0.243504
0.241595
0.239821
0.238236
0.236745
0.235413
0.234145
0.233016
0.231928
0.230961
0.230019
0.229187
0.228367
0.227647
0.226927
0.226302
0.225669
0.225123
0.224562
0.224084
0.223586
0.223167
0.222725
0.222355
0.221961
0.221635
0.221287
0.220992
0.220684
0.220426
0.22015
0.21992
0.219665
0.219472
0.219249
0.219066
0.218876
0.21871
0.218539
0.218396
0.218249
0.218125
0.217993
0.217895
0.217768
0.21769
0.217586
0.217525
0.217434
0.217382
0.217305
0.217262
0.217194
0.217158
0.2171
0.217071
0.217025
0.217005
0.216968
0.216957
0.216933
0.216941
0.216934
0.216963
0.216963
0.217015
0.217023
0.217098
0.217113
0.217233
0.217289
0.220086
3.16562
556.703
0.760015
0.634145
0.541277
0.473693
0.424402
0.387952
0.360407
0.33916
0.322397
0.308955
0.29796
0.288871
0.281218
0.274743
0.269161
0.264354
0.260129
0.256442
0.253148
0.250245
0.247613
0.245278
0.243133
0.24122
0.239442
0.237854
0.236361
0.235026
0.233756
0.232624
0.231534
0.230566
0.229622
0.228789
0.227967
0.227245
0.226524
0.225898
0.225263
0.224716
0.224154
0.223674
0.223175
0.222755
0.222313
0.221941
0.221546
0.22122
0.22087
0.220576
0.220267
0.220007
0.219731
0.219501
0.219245
0.219051
0.218827
0.218644
0.218454
0.218286
0.218115
0.217971
0.217824
0.2177
0.217567
0.217469
0.217341
0.217262
0.217158
0.217097
0.217005
0.216952
0.216875
0.216832
0.216763
0.216727
0.216668
0.216639
0.216592
0.216572
0.216534
0.216523
0.216498
0.216505
0.216498
0.216526
0.216525
0.216576
0.216584
0.216658
0.216672
0.216792
0.216847
0.219696
3.21605
555.824
0.760019
0.634153
0.541263
0.473636
0.424297
0.3878
0.360214
0.338932
0.322139
0.308673
0.297657
0.28855
0.280882
0.274394
0.268801
0.263984
0.259751
0.256056
0.252755
0.249846
0.247209
0.244869
0.242719
0.240803
0.239021
0.23743
0.235933
0.234595
0.233323
0.232189
0.231096
0.230126
0.229179
0.228345
0.227521
0.226797
0.226075
0.225447
0.224811
0.224262
0.223699
0.223218
0.222718
0.222297
0.221853
0.221481
0.221085
0.220757
0.220407
0.220112
0.219802
0.219542
0.219264
0.219033
0.218777
0.218582
0.218358
0.218174
0.217983
0.217815
0.217643
0.217499
0.21735
0.217226
0.217092
0.216994
0.216866
0.216786
0.216681
0.21662
0.216527
0.216474
0.216396
0.216352
0.216284
0.216246
0.216187
0.216158
0.21611
0.21609
0.216051
0.21604
0.216014
0.21602
0.216012
0.216038
0.216038
0.216088
0.216095
0.216168
0.216182
0.2163
0.216356
0.219263
3.27344
555.092
0.760023
0.634162
0.541247
0.473575
0.424182
0.387633
0.360001
0.338681
0.321856
0.308361
0.297323
0.288196
0.280512
0.274009
0.268404
0.263576
0.259334
0.25563
0.252322
0.249406
0.246763
0.244417
0.242263
0.240342
0.238557
0.236962
0.235461
0.234121
0.232845
0.231708
0.230613
0.22964
0.228692
0.227855
0.227029
0.226303
0.225579
0.22495
0.224312
0.223762
0.223198
0.222715
0.222214
0.221791
0.221347
0.220973
0.220576
0.220248
0.219896
0.2196
0.219289
0.219028
0.218749
0.218518
0.218261
0.218065
0.21784
0.217656
0.217463
0.217295
0.217122
0.216978
0.216828
0.216704
0.216569
0.21647
0.216341
0.216261
0.216155
0.216093
0.216
0.215947
0.215868
0.215824
0.215755
0.215717
0.215657
0.215627
0.215579
0.215558
0.215518
0.215507
0.21548
0.215485
0.215476
0.215501
0.2155
0.215549
0.215555
0.215627
0.21564
0.215758
0.215814
0.218787
3.33801
554.361
0.760028
0.634171
0.541231
0.473507
0.424056
0.387451
0.359769
0.338406
0.321546
0.308021
0.296958
0.287809
0.280107
0.273588
0.26797
0.26313
0.258877
0.255165
0.251848
0.248925
0.246275
0.243924
0.241764
0.239838
0.238048
0.236449
0.234945
0.233601
0.232322
0.231182
0.230085
0.229109
0.228158
0.227319
0.226491
0.225763
0.225037
0.224406
0.223766
0.223215
0.222649
0.222165
0.221662
0.221238
0.220792
0.220418
0.220019
0.219689
0.219337
0.21904
0.218728
0.218466
0.218186
0.217954
0.217696
0.217499
0.217273
0.217088
0.216895
0.216726
0.216553
0.216407
0.216257
0.216132
0.215996
0.215897
0.215767
0.215687
0.21558
0.215517
0.215424
0.215369
0.21529
0.215246
0.215175
0.215137
0.215077
0.215046
0.214997
0.214975
0.214936
0.214923
0.214896
0.214899
0.214889
0.214913
0.214912
0.214959
0.214965
0.215035
0.215048
0.215165
0.215222
0.218266
3.40991
553.484
0.760033
0.634182
0.541213
0.473435
0.42392
0.387254
0.359518
0.338109
0.321209
0.307652
0.296561
0.287389
0.279667
0.273131
0.267498
0.262645
0.258381
0.254658
0.251333
0.248402
0.245745
0.243387
0.241222
0.23929
0.237496
0.235892
0.234384
0.233036
0.231754
0.230611
0.22951
0.228531
0.227578
0.226736
0.225906
0.225176
0.224448
0.223815
0.223173
0.22262
0.222052
0.221567
0.221062
0.220637
0.220189
0.219813
0.219414
0.219083
0.218729
0.218431
0.218117
0.217854
0.217574
0.217341
0.217082
0.216884
0.216657
0.216471
0.216277
0.216108
0.215933
0.215787
0.215636
0.21551
0.215374
0.215273
0.215143
0.215062
0.214954
0.214891
0.214797
0.214742
0.214662
0.214617
0.214546
0.214507
0.214446
0.214415
0.214365
0.214343
0.214302
0.214289
0.21426
0.214262
0.214252
0.214274
0.214272
0.214318
0.214323
0.214392
0.214404
0.21452
0.214577
0.217702
3.4892
552.322
0.760038
0.634194
0.541194
0.473357
0.423774
0.387042
0.359248
0.337788
0.320847
0.307254
0.296133
0.286936
0.279192
0.272638
0.266988
0.262121
0.257845
0.254111
0.250777
0.247837
0.245172
0.242807
0.240635
0.238698
0.236899
0.23529
0.233778
0.232425
0.231139
0.229993
0.228889
0.227907
0.226951
0.226106
0.225273
0.224541
0.223811
0.223175
0.222532
0.221977
0.221407
0.22092
0.220413
0.219987
0.219538
0.21916
0.218759
0.218427
0.218072
0.217772
0.217458
0.217194
0.216912
0.216678
0.216418
0.216219
0.215991
0.215804
0.215609
0.215439
0.215264
0.215117
0.214964
0.214838
0.214701
0.2146
0.214469
0.214387
0.214278
0.214214
0.214119
0.214063
0.213983
0.213937
0.213865
0.213826
0.213764
0.213732
0.213681
0.213658
0.213617
0.213603
0.213574
0.213574
0.213562
0.213583
0.21358
0.213625
0.213629
0.213697
0.213708
0.213823
0.213881
0.217093
3.57582
550.743
0.760044
0.634206
0.541175
0.473275
0.423618
0.386815
0.358958
0.337444
0.320458
0.306827
0.295673
0.286448
0.278681
0.272107
0.26644
0.261558
0.257268
0.253523
0.250178
0.247229
0.244556
0.242184
0.240005
0.238062
0.236256
0.234643
0.233125
0.231769
0.230479
0.229328
0.228221
0.227236
0.226276
0.225429
0.224593
0.223858
0.223126
0.222488
0.221842
0.221285
0.220713
0.220224
0.219716
0.219287
0.218837
0.218458
0.218055
0.217721
0.217365
0.217064
0.216748
0.216483
0.2162
0.215965
0.215703
0.215504
0.215275
0.215087
0.214891
0.21472
0.214543
0.214396
0.214242
0.214115
0.213977
0.213875
0.213743
0.21366
0.213551
0.213486
0.21339
0.213334
0.213253
0.213206
0.213134
0.213093
0.21303
0.212998
0.212946
0.212923
0.21288
0.212866
0.212835
0.212835
0.212821
0.21284
0.212837
0.21288
0.212883
0.212949
0.212959
0.213073
0.213132
0.216439
3.66957
548.626
0.76005
0.63422
0.541154
0.473187
0.423452
0.386573
0.358649
0.337077
0.320042
0.30637
0.295182
0.285927
0.278135
0.271539
0.265854
0.260956
0.256652
0.252894
0.249538
0.246579
0.243897
0.241516
0.23933
0.23738
0.235569
0.233949
0.232427
0.231066
0.229771
0.228617
0.227505
0.226517
0.225554
0.224703
0.223865
0.223127
0.222392
0.221752
0.221103
0.220544
0.21997
0.219479
0.218969
0.218539
0.218086
0.217706
0.217301
0.216966
0.216608
0.216306
0.215988
0.215722
0.215437
0.215202
0.214939
0.214738
0.214508
0.214319
0.214122
0.21395
0.213772
0.213624
0.213469
0.213341
0.213201
0.213099
0.212966
0.212883
0.212772
0.212706
0.212609
0.212552
0.21247
0.212423
0.21235
0.212309
0.212245
0.212212
0.212159
0.212135
0.212091
0.212076
0.212045
0.212042
0.212027
0.212045
0.21204
0.212082
0.212084
0.212149
0.212158
0.212271
0.212331
0.21574
3.77013
545.869
0.760056
0.634234
0.541132
0.473095
0.423276
0.386316
0.35832
0.336687
0.319599
0.305883
0.294658
0.285373
0.277554
0.270935
0.265229
0.260314
0.255994
0.252223
0.248855
0.245885
0.243194
0.240804
0.238611
0.236654
0.234836
0.23321
0.231683
0.230316
0.229017
0.227858
0.226742
0.22575
0.224784
0.22393
0.223088
0.222348
0.221609
0.220967
0.220316
0.219754
0.219178
0.218685
0.218172
0.21774
0.217286
0.216904
0.216497
0.216161
0.215801
0.215497
0.215178
0.214911
0.214624
0.214388
0.214123
0.213921
0.21369
0.2135
0.213301
0.213129
0.21295
0.2128
0.212644
0.212516
0.212375
0.212272
0.212138
0.212053
0.211941
0.211875
0.211777
0.211719
0.211636
0.211588
0.211514
0.211472
0.211407
0.211374
0.211319
0.211294
0.21125
0.211234
0.211201
0.211198
0.211181
0.211196
0.211191
0.21123
0.211232
0.211295
0.211303
0.211415
0.211476
0.214995
3.87698
542.383
0.760063
0.634249
0.54111
0.472998
0.423091
0.386045
0.357973
0.336274
0.319131
0.305368
0.294103
0.284784
0.276936
0.270292
0.264566
0.259632
0.255296
0.25151
0.24813
0.245148
0.242447
0.240048
0.237846
0.235881
0.234056
0.232425
0.230891
0.229519
0.228215
0.227051
0.225932
0.224935
0.223965
0.223108
0.222263
0.221519
0.220778
0.220132
0.219479
0.218914
0.218336
0.21784
0.217326
0.216892
0.216435
0.216051
0.215643
0.215304
0.214943
0.214638
0.214317
0.214048
0.21376
0.213522
0.213256
0.213053
0.21282
0.212629
0.212429
0.212256
0.212075
0.211925
0.211768
0.211638
0.211496
0.211392
0.211257
0.211172
0.211058
0.210991
0.210892
0.210833
0.210749
0.210701
0.210626
0.210583
0.210517
0.210482
0.210427
0.210401
0.210355
0.210339
0.210305
0.2103
0.210281
0.210295
0.210289
0.210326
0.210327
0.210388
0.210394
0.210505
0.210567
0.214203
3.98939
538.096
0.760069
0.634266
0.541087
0.472896
0.422897
0.38576
0.357606
0.335837
0.318635
0.304822
0.293516
0.284161
0.276283
0.269613
0.263864
0.25891
0.254557
0.250756
0.247362
0.244368
0.241656
0.239247
0.237036
0.235064
0.233231
0.231593
0.230053
0.228675
0.227366
0.226197
0.225073
0.224072
0.223098
0.222237
0.221388
0.220641
0.219897
0.219248
0.218592
0.218025
0.217444
0.216946
0.216429
0.215993
0.215534
0.215148
0.214738
0.214397
0.214034
0.213727
0.213405
0.213134
0.212844
0.212605
0.212338
0.212133
0.211899
0.211707
0.211505
0.211331
0.211149
0.210998
0.210839
0.210709
0.210565
0.21046
0.210324
0.210238
0.210123
0.210055
0.209955
0.209895
0.20981
0.209761
0.209684
0.209641
0.209574
0.209538
0.209482
0.209455
0.209408
0.20939
0.209355
0.209349
0.209328
0.20934
0.209333
0.209368
0.209368
0.209426
0.209432
0.209541
0.209605
0.213364
4.10646
532.953
0.760076
0.634283
0.541064
0.47279
0.422693
0.38546
0.357221
0.335378
0.318114
0.304248
0.292897
0.283504
0.275594
0.268896
0.263123
0.258147
0.253777
0.249959
0.246551
0.243544
0.24082
0.238401
0.236181
0.2342
0.23236
0.230714
0.229168
0.227784
0.226469
0.225295
0.224166
0.223161
0.222182
0.221317
0.220465
0.219714
0.218966
0.218315
0.217655
0.217085
0.216501
0.216001
0.215482
0.215043
0.214582
0.214194
0.213782
0.213439
0.213074
0.212766
0.212441
0.212169
0.211877
0.211637
0.211368
0.211161
0.210926
0.210733
0.210529
0.210354
0.210171
0.210019
0.209858
0.209727
0.209581
0.209476
0.209339
0.209251
0.209135
0.209065
0.208964
0.208904
0.208818
0.208768
0.20869
0.208646
0.208577
0.208541
0.208483
0.208455
0.208407
0.208389
0.208352
0.208345
0.208322
0.208332
0.208323
0.208355
0.208355
0.208411
0.208416
0.208524
0.208589
0.212477
4.22699
526.916
0.760084
0.634301
0.54104
0.47268
0.42248
0.385146
0.356817
0.334896
0.317566
0.303644
0.292246
0.282813
0.274869
0.268141
0.262343
0.257345
0.252955
0.24912
0.245697
0.242676
0.239941
0.237511
0.235281
0.23329
0.231442
0.229788
0.228235
0.226845
0.225524
0.224345
0.22321
0.2222
0.221217
0.220348
0.219491
0.218737
0.217986
0.217331
0.216668
0.216096
0.215509
0.215006
0.214484
0.214042
0.213579
0.213189
0.212774
0.21243
0.212063
0.211752
0.211425
0.211152
0.210858
0.210617
0.210346
0.210138
0.209901
0.209706
0.209501
0.209325
0.20914
0.208987
0.208824
0.208693
0.208545
0.208439
0.2083
0.208211
0.208094
0.208023
0.207921
0.20786
0.207772
0.207721
0.207643
0.207598
0.207528
0.20749
0.207431
0.207402
0.207353
0.207333
0.207295
0.207286
0.207262
0.20727
0.20726
0.207289
0.207288
0.207342
0.207345
0.207452
0.207519
0.211541
4.34958
519.959
0.760091
0.63432
0.541015
0.472565
0.422258
0.384819
0.356395
0.334392
0.316992
0.303011
0.291564
0.282088
0.274108
0.267349
0.261524
0.256503
0.252092
0.24824
0.2448
0.241765
0.239017
0.236575
0.234334
0.232334
0.230477
0.228816
0.227255
0.225858
0.224531
0.223346
0.222206
0.221191
0.220204
0.219329
0.218469
0.217711
0.216956
0.216297
0.215631
0.215055
0.214465
0.21396
0.213435
0.212991
0.212525
0.212132
0.211716
0.211369
0.210999
0.210687
0.210358
0.210083
0.209788
0.209544
0.209272
0.209062
0.208824
0.208628
0.208421
0.208244
0.208057
0.207902
0.207738
0.207606
0.207456
0.207349
0.207209
0.207119
0.207
0.206928
0.206825
0.206762
0.206674
0.206622
0.206542
0.206496
0.206425
0.206386
0.206325
0.206296
0.206245
0.206224
0.206185
0.206174
0.206148
0.206153
0.206142
0.206168
0.206167
0.206218
0.20622
0.206325
0.206394
0.210555
4.47253
512.069
0.760098
0.63434
0.54099
0.472447
0.422028
0.384478
0.355954
0.333865
0.316392
0.30235
0.29085
0.28133
0.273311
0.26652
0.260667
0.255621
0.251189
0.247317
0.24386
0.24081
0.238048
0.235594
0.233343
0.231332
0.229466
0.227796
0.226228
0.224824
0.22349
0.222299
0.221153
0.220133
0.219141
0.218262
0.217397
0.216635
0.215876
0.215213
0.214544
0.213965
0.213372
0.212863
0.212335
0.211889
0.21142
0.211025
0.210606
0.210257
0.209885
0.209571
0.20924
0.208963
0.208665
0.20842
0.208146
0.207934
0.207694
0.207496
0.207288
0.20711
0.206921
0.206765
0.206599
0.206466
0.206315
0.206206
0.206065
0.205974
0.205853
0.20578
0.205675
0.205612
0.205522
0.205469
0.205388
0.20534
0.205268
0.205228
0.205166
0.205135
0.205083
0.205061
0.20502
0.205008
0.20498
0.204983
0.20497
0.204994
0.204992
0.205039
0.205041
0.205144
0.205215
0.209519
4.59388
503.248
0.760106
0.634361
0.540965
0.472326
0.42179
0.384124
0.355496
0.333317
0.315767
0.301659
0.290105
0.280538
0.272479
0.265653
0.259771
0.254699
0.250244
0.246352
0.242877
0.239811
0.237035
0.234568
0.232305
0.230285
0.228409
0.22673
0.225154
0.223742
0.222401
0.221204
0.220052
0.219026
0.218029
0.217145
0.216275
0.215509
0.214746
0.214079
0.213406
0.212824
0.212227
0.211715
0.211185
0.210735
0.210264
0.209866
0.209444
0.209093
0.208719
0.208403
0.208069
0.20779
0.20749
0.207244
0.206967
0.206754
0.206512
0.206313
0.206102
0.205923
0.205732
0.205576
0.205408
0.205273
0.20512
0.205011
0.204868
0.204775
0.204653
0.204579
0.204472
0.204408
0.204316
0.204262
0.20418
0.204132
0.204058
0.204017
0.203953
0.203921
0.203867
0.203844
0.203802
0.203789
0.203758
0.203759
0.203744
0.203765
0.203762
0.203806
0.203807
0.203908
0.203982
0.20843
4.71141
493.501
0.760114
0.634383
0.54094
0.4722
0.421543
0.383757
0.35502
0.332746
0.315117
0.300941
0.289329
0.279712
0.271612
0.26475
0.258836
0.253737
0.249258
0.245345
0.241852
0.238769
0.235978
0.233498
0.231223
0.229191
0.227305
0.225617
0.224032
0.222613
0.221265
0.22006
0.218902
0.217871
0.216867
0.215979
0.215104
0.214333
0.213566
0.212895
0.212218
0.211632
0.211032
0.210517
0.209983
0.209531
0.209056
0.208656
0.208231
0.207878
0.207501
0.207183
0.206847
0.206566
0.206264
0.206015
0.205737
0.205521
0.205278
0.205077
0.204865
0.204684
0.204491
0.204333
0.204163
0.204027
0.203873
0.203762
0.203617
0.203524
0.2034
0.203324
0.203216
0.20315
0.203058
0.203003
0.202919
0.202869
0.202794
0.202752
0.202686
0.202653
0.202598
0.202573
0.202529
0.202515
0.202483
0.202481
0.202464
0.202482
0.202478
0.202518
0.202518
0.202618
0.202694
0.207288
4.82262
482.845
0.760122
0.634406
0.540915
0.472072
0.421289
0.383377
0.354527
0.332155
0.314441
0.300194
0.288522
0.278854
0.27071
0.26381
0.257863
0.252735
0.248232
0.244296
0.240784
0.237683
0.234877
0.232382
0.230095
0.228051
0.226155
0.224457
0.222863
0.221436
0.22008
0.218868
0.217704
0.216666
0.215657
0.214763
0.213884
0.213108
0.212336
0.211661
0.21098
0.21039
0.209787
0.209268
0.208731
0.208275
0.207798
0.207395
0.206967
0.206611
0.206232
0.205911
0.205573
0.20529
0.204985
0.204735
0.204454
0.204237
0.203991
0.203789
0.203574
0.203392
0.203198
0.203038
0.202866
0.202729
0.202572
0.202461
0.202314
0.202219
0.202093
0.202017
0.201907
0.20184
0.201746
0.20169
0.201604
0.201554
0.201477
0.201433
0.201366
0.201332
0.201275
0.201249
0.201203
0.201187
0.201153
0.20115
0.20113
0.201145
0.20114
0.201177
0.201176
0.201274
0.201352
0.206092
4.9248
471.298
0.76013
0.634429
0.54089
0.471941
0.421028
0.382986
0.354018
0.331542
0.313741
0.29942
0.287684
0.277962
0.269773
0.262833
0.256852
0.251694
0.247165
0.243206
0.239673
0.236554
0.233732
0.231222
0.228921
0.226865
0.224958
0.22325
0.221648
0.220211
0.218848
0.217629
0.216458
0.215413
0.214399
0.213499
0.212614
0.211833
0.211057
0.210378
0.209692
0.209098
0.208491
0.207969
0.207428
0.206969
0.206489
0.206083
0.205652
0.205293
0.204911
0.204588
0.204247
0.203962
0.203655
0.203403
0.20312
0.202901
0.202653
0.202449
0.202232
0.202049
0.201852
0.201691
0.201517
0.201379
0.20122
0.201107
0.200959
0.200862
0.200734
0.200656
0.200545
0.200477
0.200381
0.200324
0.200237
0.200185
0.200106
0.200062
0.199993
0.199957
0.199898
0.199871
0.199823
0.199806
0.19977
0.199764
0.199742
0.199755
0.199747
0.199781
0.199779
0.199875
0.199955
0.204839
5.01506
458.884
0.760138
0.634454
0.540865
0.471807
0.42076
0.382583
0.353492
0.33091
0.313018
0.298618
0.286817
0.277039
0.268801
0.26182
0.255804
0.250614
0.246058
0.242075
0.238521
0.235383
0.232543
0.230018
0.227703
0.225635
0.223716
0.221997
0.220385
0.21894
0.217568
0.216341
0.215163
0.214112
0.213091
0.212185
0.211295
0.210509
0.209728
0.209044
0.208355
0.207757
0.207145
0.20662
0.206075
0.205613
0.205129
0.20472
0.204287
0.203924
0.20354
0.203214
0.20287
0.202583
0.202273
0.202019
0.201734
0.201512
0.201262
0.201057
0.200838
0.200653
0.200454
0.200292
0.200115
0.199976
0.199815
0.1997
0.19955
0.199452
0.199323
0.199243
0.19913
0.19906
0.198963
0.198905
0.198816
0.198763
0.198682
0.198637
0.198566
0.198529
0.198468
0.19844
0.19839
0.198371
0.198334
0.198326
0.198301
0.198311
0.198302
0.198332
0.198328
0.198423
0.198505
0.203529
5.09036
445.63
0.760146
0.634479
0.540841
0.471671
0.420485
0.382168
0.352951
0.330257
0.31227
0.29779
0.28592
0.276083
0.267796
0.260771
0.254718
0.249496
0.244911
0.240902
0.237326
0.234168
0.231311
0.22877
0.226441
0.224359
0.222428
0.220699
0.219076
0.217621
0.216241
0.215006
0.213821
0.212763
0.211736
0.210824
0.209928
0.209137
0.20835
0.207662
0.206967
0.206365
0.20575
0.20522
0.204672
0.204206
0.203719
0.203307
0.20287
0.202505
0.202117
0.201789
0.201442
0.201153
0.20084
0.200584
0.200297
0.200073
0.199821
0.199613
0.199392
0.199205
0.199004
0.19884
0.198662
0.198521
0.198357
0.198242
0.19809
0.19799
0.197859
0.197777
0.197662
0.197592
0.197493
0.197433
0.197343
0.197288
0.197206
0.197159
0.197086
0.197048
0.196985
0.196956
0.196904
0.196884
0.196844
0.196834
0.196806
0.196813
0.196802
0.196829
0.196824
0.196917
0.197001
0.202159
5.1476
431.564
0.760154
0.634506
0.540817
0.471532
0.420204
0.381743
0.352395
0.329586
0.3115
0.296935
0.284994
0.275097
0.266757
0.259688
0.253595
0.248339
0.243725
0.23969
0.236091
0.232912
0.230036
0.227478
0.225134
0.223038
0.221095
0.219354
0.217721
0.216257
0.214868
0.213624
0.212431
0.211366
0.210332
0.209414
0.208512
0.207715
0.206923
0.20623
0.205531
0.204924
0.204305
0.203771
0.203219
0.20275
0.202259
0.201843
0.201403
0.201035
0.200644
0.200314
0.199964
0.199672
0.199357
0.199098
0.198808
0.198582
0.198328
0.198118
0.197894
0.197706
0.197503
0.197338
0.197156
0.197014
0.196848
0.196731
0.196577
0.196476
0.196343
0.19626
0.196143
0.196071
0.19597
0.195909
0.195817
0.195761
0.195677
0.195629
0.195554
0.195514
0.19545
0.195419
0.195365
0.195343
0.195301
0.195289
0.195259
0.195263
0.19525
0.195274
0.195266
0.195357
0.195444
0.200728
5.18367
416.717
0.760162
0.634533
0.540793
0.471392
0.419918
0.381308
0.351824
0.328895
0.310707
0.296055
0.28404
0.274079
0.265686
0.258569
0.252436
0.247145
0.242499
0.238437
0.234814
0.231614
0.228719
0.226143
0.223783
0.221673
0.219718
0.217964
0.216321
0.214846
0.213448
0.212196
0.210995
0.209922
0.208881
0.207956
0.207048
0.206246
0.205448
0.20475
0.204046
0.203435
0.20281
0.202273
0.201717
0.201244
0.200749
0.20033
0.199887
0.199516
0.199121
0.198788
0.198435
0.198141
0.197822
0.197562
0.197269
0.197041
0.196784
0.196573
0.196346
0.196156
0.19595
0.195784
0.1956
0.195456
0.195288
0.195169
0.195014
0.194911
0.194775
0.194691
0.194572
0.194498
0.194396
0.194333
0.19424
0.194183
0.194097
0.194047
0.19397
0.193929
0.193862
0.193829
0.193773
0.19375
0.193706
0.193692
0.19366
0.193661
0.193645
0.193665
0.193656
0.193745
0.193834
0.199235
5.19567
401.126
0.76017
0.634561
0.54077
0.47125
0.419626
0.380864
0.351239
0.328187
0.309893
0.29515
0.283059
0.273031
0.264582
0.257416
0.251242
0.245914
0.241236
0.237146
0.233497
0.230274
0.227359
0.224766
0.22239
0.220265
0.218296
0.21653
0.214875
0.21339
0.211982
0.210721
0.209512
0.208431
0.207383
0.206452
0.205537
0.204729
0.203926
0.203222
0.202513
0.201897
0.201268
0.200726
0.200166
0.199689
0.19919
0.198768
0.198321
0.197946
0.197549
0.197213
0.196857
0.19656
0.196238
0.195976
0.19568
0.195449
0.19519
0.194977
0.194747
0.194556
0.194347
0.194179
0.193993
0.193848
0.193677
0.193557
0.193399
0.193295
0.193157
0.19307
0.19295
0.192875
0.19277
0.192706
0.192611
0.192552
0.192465
0.192413
0.192334
0.192291
0.192223
0.192188
0.19213
0.192105
0.192059
0.192043
0.192009
0.192007
0.191989
0.192005
0.191994
0.192081
0.192172
0.197677
5.18095
384.828
0.760178
0.63459
0.540748
0.471108
0.41933
0.380411
0.350641
0.327461
0.309058
0.294221
0.28205
0.271954
0.263446
0.25623
0.250012
0.244646
0.239935
0.235815
0.232141
0.228894
0.225959