/*--------------------------------*- C++ -*----------------------------------*\
| =========                 |                                                 |
| \\      /  F ield         | OpenFOAM: The Open Source CFD Toolbox           |
|  \\    /   O peration     | Version:  v2012                                 |
|   \\  /    A nd           | Website:  www.openfoam.com                      |
|    \\/     M anipulation  |                                                 |
\*---------------------------------------------------------------------------*/
FoamFile
{
    version     2.0;
    format      ascii;
    class       volScalarField;
    location    "57";
    object      k;
}
// * * * * * * * * * * * * * * * * * * * * * * * * * * * * * * * * * * * * * //

dimensions      [0 2 -2 0 0 0 0];


internalField   nonuniform List<scalar> 
209825
(
0.00102383
0.000932859
0.000857561
0.000793002
0.000736645
0.000687348
0.000644333
0.000606949
0.000574443
0.000546184
0.000521484
0.00049987
0.000480797
0.000463966
0.000448956
0.000435605
0.000423575
0.000412803
0.000403
0.000394176
0.000386072
0.000378749
0.000371964
0.000365818
0.000360072
0.000354865
0.000349949
0.000345498
0.000341257
0.000337425
0.000333735
0.000330416
0.000327185
0.000324293
0.000321445
0.000318913
0.000316389
0.000314163
0.000311915
0.000309953
0.000307942
0.000306205
0.000304398
0.000302857
0.000301227
0.000299856
0.000298381
0.000297159
0.00029582
0.000294728
0.00029351
0.000292533
0.000291421
0.000290546
0.000289529
0.000288745
0.000287814
0.000287111
0.000286257
0.000285623
0.000284843
0.00028427
0.000283555
0.000283037
0.000282383
0.000281914
0.000281313
0.00028089
0.000280336
0.000279954
0.000279444
0.0002791
0.000278637
0.000278332
0.000277894
0.000277604
0.00027718
0.000276903
0.000276491
0.000276227
0.000275826
0.000275575
0.000275184
0.000274948
0.000274566
0.000274349
0.000273975
0.000273779
0.000273415
0.000273239
0.000272881
0.000272728
0.000272356
0.000275187
0.00969824
0.0123476
0.00102383
0.000932859
0.000857561
0.000793002
0.000736645
0.000687349
0.000644334
0.00060695
0.000574444
0.000546184
0.000521484
0.000499869
0.000480796
0.000463964
0.000448954
0.000435603
0.000423573
0.0004128
0.000402996
0.000394172
0.000386068
0.000378745
0.000371959
0.000365814
0.000360067
0.00035486
0.000349943
0.000345493
0.000341251
0.000337419
0.000333729
0.000330409
0.000327178
0.000324286
0.000321438
0.000318906
0.000316382
0.000314156
0.000311908
0.000309945
0.000307934
0.000306197
0.000304391
0.000302849
0.000301219
0.000299848
0.000298373
0.000297151
0.000295812
0.00029472
0.000293501
0.000292525
0.000291413
0.000290538
0.000289521
0.000288737
0.000287805
0.000287102
0.000286248
0.000285614
0.000284834
0.000284261
0.000283547
0.000283029
0.000282374
0.000281905
0.000281304
0.000280881
0.000280327
0.000279945
0.000279435
0.000279091
0.000278628
0.000278322
0.000277885
0.000277595
0.000277171
0.000276894
0.000276482
0.000276218
0.000275816
0.000275565
0.000275174
0.000274938
0.000274557
0.00027434
0.000273965
0.000273769
0.000273406
0.000273229
0.000272872
0.000272719
0.000272346
0.000275181
0.00970537
0.0123568
0.00102383
0.000932858
0.000857561
0.000793004
0.000736648
0.000687352
0.000644337
0.000606952
0.000574444
0.000546182
0.00052148
0.000499864
0.000480788
0.000463955
0.000448943
0.000435591
0.000423559
0.000412784
0.00040298
0.000394154
0.000386048
0.000378724
0.000371937
0.000365791
0.000360044
0.000354835
0.000349918
0.000345467
0.000341224
0.000337392
0.000333701
0.000330381
0.000327149
0.000324257
0.000321408
0.000318876
0.000316351
0.000314125
0.000311876
0.000309913
0.000307902
0.000306164
0.000304358
0.000302816
0.000301186
0.000299814
0.000298339
0.000297116
0.000295777
0.000294685
0.000293466
0.000292489
0.000291377
0.000290502
0.000289485
0.000288701
0.000287769
0.000287065
0.000286211
0.000285577
0.000284797
0.000284224
0.000283509
0.000282991
0.000282336
0.000281867
0.000281266
0.000280843
0.000280289
0.000279907
0.000279397
0.000279052
0.000278589
0.000278284
0.000277846
0.000277556
0.000277131
0.000276855
0.000276442
0.000276178
0.000275777
0.000275526
0.000275135
0.000274899
0.000274517
0.0002743
0.000273925
0.000273729
0.000273365
0.000273189
0.000272831
0.000272678
0.000272306
0.000275147
0.0097159
0.0123682
0.00102383
0.000932857
0.000857562
0.000793006
0.000736653
0.000687357
0.000644342
0.000606955
0.000574445
0.00054618
0.000521474
0.000499855
0.000480776
0.000463939
0.000448925
0.000435569
0.000423535
0.000412758
0.000402951
0.000394123
0.000386016
0.00037869
0.000371901
0.000365753
0.000360004
0.000354794
0.000349876
0.000345423
0.000341179
0.000337346
0.000333654
0.000330333
0.0003271
0.000324207
0.000321358
0.000318824
0.000316299
0.000314072
0.000311823
0.000309859
0.000307847
0.000306109
0.000304302
0.000302759
0.000301129
0.000299757
0.000298281
0.000297058
0.000295718
0.000294626
0.000293407
0.000292429
0.000291317
0.000290441
0.000289424
0.000288639
0.000287707
0.000287003
0.000286149
0.000285515
0.000284734
0.000284161
0.000283446
0.000282928
0.000282273
0.000281803
0.000281202
0.000280778
0.000280224
0.000279842
0.000279332
0.000278987
0.000278524
0.000278218
0.000277781
0.00027749
0.000277065
0.000276788
0.000276376
0.000276112
0.00027571
0.000275459
0.000275068
0.000274832
0.000274449
0.000274232
0.000273858
0.000273661
0.000273298
0.000273121
0.000272763
0.00027261
0.000272237
0.000275089
0.00973129
0.0123839
0.00102383
0.000932856
0.000857562
0.00079301
0.000736659
0.000687365
0.000644349
0.000606959
0.000574445
0.000546176
0.000521466
0.000499842
0.000480758
0.000463917
0.000448899
0.000435539
0.000423501
0.00041272
0.00040291
0.000394079
0.000385969
0.00037864
0.000371849
0.000365699
0.000359948
0.000354736
0.000349816
0.000345362
0.000341116
0.000337281
0.000333588
0.000330265
0.000327031
0.000324136
0.000321286
0.000318752
0.000316225
0.000313998
0.000311747
0.000309783
0.00030777
0.000306031
0.000304223
0.00030268
0.000301048
0.000299676
0.000298199
0.000296976
0.000295635
0.000294543
0.000293323
0.000292345
0.000291232
0.000290356
0.000289338
0.000288553
0.00028762
0.000286916
0.000286062
0.000285427
0.000284646
0.000284072
0.000283357
0.000282838
0.000282183
0.000281713
0.000281111
0.000280688
0.000280133
0.000279751
0.00027924
0.000278895
0.000278432
0.000278126
0.000277688
0.000277397
0.000276972
0.000276695
0.000276282
0.000276018
0.000275616
0.000275365
0.000274973
0.000274737
0.000274354
0.000274137
0.000273762
0.000273566
0.000273202
0.000273025
0.000272667
0.000272514
0.000272141
0.000275007
0.00975226
0.0124047
0.00102383
0.000932855
0.000857562
0.000793014
0.000736667
0.000687374
0.000644357
0.000606965
0.000574446
0.000546171
0.000521455
0.000499825
0.000480736
0.000463889
0.000448865
0.0004355
0.000423457
0.000412672
0.000402858
0.000394023
0.000385909
0.000378577
0.000371782
0.000365629
0.000359875
0.000354661
0.000349738
0.000345282
0.000341034
0.000337197
0.000333502
0.000330177
0.000326942
0.000324045
0.000321194
0.000318658
0.00031613
0.000313901
0.000311649
0.000309684
0.00030767
0.00030593
0.000304121
0.000302577
0.000300944
0.000299571
0.000298094
0.000296869
0.000295528
0.000294435
0.000293214
0.000292235
0.000291122
0.000290245
0.000289227
0.000288441
0.000287508
0.000286803
0.000285948
0.000285313
0.000284531
0.000283957
0.000283241
0.000282722
0.000282066
0.000281597
0.000280994
0.00028057
0.000280015
0.000279633
0.000279121
0.000278776
0.000278312
0.000278006
0.000277568
0.000277277
0.000276852
0.000276574
0.000276161
0.000275897
0.000275494
0.000275243
0.000274851
0.000274615
0.000274231
0.000274014
0.000273639
0.000273442
0.000273078
0.000272901
0.000272542
0.000272389
0.000272016
0.0002749
0.00977954
0.0124315
0.00102383
0.000932853
0.000857563
0.00079302
0.000736677
0.000687386
0.000644368
0.000606971
0.000574447
0.000546166
0.000521442
0.000499804
0.000480708
0.000463854
0.000448823
0.000435452
0.000423403
0.000412612
0.000402793
0.000393953
0.000385835
0.000378498
0.0003717
0.000365543
0.000359786
0.000354568
0.000349643
0.000345183
0.000340933
0.000337093
0.000333396
0.000330069
0.000326832
0.000323933
0.00032108
0.000318542
0.000316012
0.000313782
0.000311529
0.000309562
0.000307546
0.000305805
0.000303995
0.00030245
0.000300816
0.000299441
0.000297963
0.000296738
0.000295396
0.000294301
0.00029308
0.000292101
0.000290986
0.000290109
0.00028909
0.000288303
0.000287369
0.000286664
0.000285808
0.000285172
0.00028439
0.000283816
0.000283099
0.00028258
0.000281923
0.000281453
0.00028085
0.000280425
0.00027987
0.000279487
0.000278975
0.00027863
0.000278165
0.000277859
0.00027742
0.000277129
0.000276703
0.000276425
0.000276012
0.000275747
0.000275344
0.000275093
0.0002747
0.000274464
0.00027408
0.000273863
0.000273486
0.00027329
0.000272925
0.000272748
0.000272388
0.000272235
0.000271862
0.000274769
0.0098138
0.0124649
0.00102383
0.000932851
0.000857564
0.000793026
0.000736689
0.000687401
0.000644381
0.000606979
0.000574449
0.000546159
0.000521427
0.00049978
0.000480675
0.000463812
0.000448774
0.000435395
0.000423339
0.000412541
0.000402716
0.000393871
0.000385747
0.000378405
0.000371603
0.000365441
0.00035968
0.000354458
0.000349529
0.000345066
0.000340813
0.00033697
0.00033327
0.000329941
0.000326701
0.0003238
0.000320944
0.000318404
0.000315873
0.00031364
0.000311386
0.000309417
0.0003074
0.000305657
0.000303845
0.000302298
0.000300664
0.000299288
0.000297808
0.000296582
0.000295239
0.000294143
0.00029292
0.00029194
0.000290825
0.000289946
0.000288926
0.000288139
0.000287204
0.000286498
0.000285642
0.000285005
0.000284222
0.000283647
0.00028293
0.00028241
0.000281752
0.000281282
0.000280678
0.000280253
0.000279697
0.000279314
0.000278801
0.000278455
0.00027799
0.000277684
0.000277244
0.000276952
0.000276526
0.000276248
0.000275834
0.000275569
0.000275166
0.000274914
0.000274521
0.000274284
0.000273899
0.000273682
0.000273305
0.000273108
0.000272743
0.000272565
0.000272205
0.000272052
0.000271679
0.000274613
0.00985569
0.0125055
0.00102383
0.000932849
0.000857564
0.000793034
0.000736703
0.000687417
0.000644396
0.000606989
0.000574451
0.000546151
0.00052141
0.000499752
0.000480637
0.000463765
0.000448717
0.000435329
0.000423265
0.00041246
0.000402627
0.000393775
0.000385645
0.000378297
0.000371489
0.000365323
0.000359557
0.000354331
0.000349397
0.00034493
0.000340674
0.000336827
0.000333124
0.000329792
0.000326549
0.000323645
0.000320787
0.000318244
0.00031571
0.000313476
0.000311219
0.000309248
0.000307229
0.000305485
0.000303671
0.000302123
0.000300487
0.000299109
0.000297628
0.0002964
0.000295056
0.000293959
0.000292735
0.000291754
0.000290637
0.000289758
0.000288737
0.000287949
0.000287013
0.000286306
0.000285448
0.000284811
0.000284027
0.000283451
0.000282733
0.000282212
0.000281554
0.000281083
0.000280478
0.000280053
0.000279496
0.000279112
0.000278599
0.000278252
0.000277787
0.00027748
0.00027704
0.000276747
0.00027632
0.000276042
0.000275627
0.000275362
0.000274958
0.000274706
0.000274312
0.000274075
0.00027369
0.000273472
0.000273094
0.000272897
0.000272531
0.000272353
0.000271992
0.000271839
0.000271466
0.000274433
0.00990579
0.0125539
0.00102383
0.000932846
0.000857565
0.000793042
0.000736719
0.000687436
0.000644414
0.000607001
0.000574453
0.000546143
0.00052139
0.000499721
0.000480594
0.00046371
0.000448652
0.000435254
0.000423181
0.000412367
0.000402526
0.000393666
0.000385529
0.000378175
0.00037136
0.000365188
0.000359416
0.000354185
0.000349247
0.000344776
0.000340515
0.000336664
0.000332957
0.000329621
0.000326375
0.000323468
0.000320607
0.000318062
0.000315525
0.000313288
0.000311029
0.000309056
0.000307035
0.000305288
0.000303473
0.000301922
0.000300284
0.000298905
0.000297423
0.000296193
0.000294847
0.000293749
0.000292523
0.000291541
0.000290423
0.000289542
0.00028852
0.000287731
0.000286794
0.000286086
0.000285227
0.000284589
0.000283804
0.000283227
0.000282508
0.000281986
0.000281328
0.000280855
0.00028025
0.000279824
0.000279266
0.000278882
0.000278368
0.000278021
0.000277554
0.000277247
0.000276806
0.000276513
0.000276085
0.000275807
0.000275391
0.000275125
0.000274721
0.000274468
0.000274073
0.000273836
0.00027345
0.000273232
0.000272854
0.000272656
0.000272289
0.000272111
0.000271749
0.000271596
0.000271223
0.000274228
0.00996461
0.0126105
0.00102383
0.000932843
0.000857566
0.000793052
0.000736737
0.000687458
0.000644434
0.000607014
0.000574457
0.000546134
0.000521369
0.000499686
0.000480547
0.00046365
0.00044858
0.00043517
0.000423087
0.000412262
0.000402413
0.000393543
0.000385399
0.000378037
0.000371216
0.000365036
0.000359259
0.000354022
0.000349078
0.000344602
0.000340336
0.000336481
0.00033277
0.00032943
0.00032618
0.00032327
0.000320405
0.000317857
0.000315317
0.000313077
0.000310815
0.000308839
0.000306816
0.000305067
0.000303249
0.000301697
0.000300057
0.000298675
0.000297191
0.00029596
0.000294612
0.000293512
0.000292285
0.000291301
0.000290182
0.0002893
0.000288276
0.000287486
0.000286547
0.000285838
0.000284978
0.000284339
0.000283553
0.000282975
0.000282255
0.000281732
0.000281072
0.000280599
0.000279993
0.000279566
0.000279008
0.000278623
0.000278108
0.00027776
0.000277293
0.000276984
0.000276543
0.000276249
0.000275821
0.000275542
0.000275125
0.000274859
0.000274453
0.0002742
0.000273805
0.000273567
0.00027318
0.000272962
0.000272583
0.000272385
0.000272017
0.000271838
0.000271475
0.000271322
0.000270949
0.000273998
0.0100326
0.0126758
0.00102383
0.00093284
0.000857567
0.000793063
0.000736758
0.000687482
0.000644456
0.000607029
0.000574461
0.000546125
0.000521345
0.000499647
0.000480494
0.000463583
0.0004485
0.000435078
0.000422982
0.000412147
0.000402287
0.000393408
0.000385254
0.000377884
0.000371055
0.000364868
0.000359084
0.00035384
0.000348891
0.000344408
0.000340138
0.000336277
0.000332562
0.000329217
0.000325963
0.000323049
0.00032018
0.000317628
0.000315086
0.000312842
0.000310577
0.000308599
0.000306572
0.000304821
0.000303001
0.000301446
0.000299803
0.00029842
0.000296934
0.0002957
0.000294351
0.000293249
0.00029202
0.000291034
0.000289913
0.00028903
0.000288005
0.000287213
0.000286273
0.000285563
0.000284701
0.000284061
0.000283273
0.000282695
0.000281973
0.00028145
0.000280789
0.000280315
0.000279707
0.000279279
0.00027872
0.000278334
0.000277818
0.00027747
0.000277001
0.000276692
0.00027625
0.000275956
0.000275526
0.000275247
0.000274829
0.000274562
0.000274156
0.000273902
0.000273506
0.000273268
0.00027288
0.000272661
0.000272281
0.000272082
0.000271713
0.000271534
0.000271171
0.000271017
0.000270645
0.000273743
0.0101099
0.0127501
0.00102383
0.000932836
0.000857568
0.000793074
0.00073678
0.000687509
0.000644481
0.000607046
0.000574466
0.000546115
0.00052132
0.000499606
0.000480437
0.00046351
0.000448413
0.000434976
0.000422868
0.00041202
0.000402149
0.000393259
0.000385096
0.000377715
0.000370878
0.000364683
0.000358891
0.00035364
0.000348684
0.000344196
0.000339919
0.000336053
0.000332333
0.000328983
0.000325724
0.000322805
0.000319933
0.000317377
0.000314831
0.000312584
0.000310315
0.000308333
0.000306304
0.00030455
0.000302727
0.000301169
0.000299524
0.000298139
0.00029665
0.000295414
0.000294062
0.000292959
0.000291728
0.00029074
0.000289617
0.000288732
0.000287705
0.000286912
0.000285971
0.000285259
0.000284396
0.000283754
0.000282965
0.000282385
0.000281662
0.000281138
0.000280475
0.000280001
0.000279391
0.000278963
0.000278402
0.000278016
0.000277498
0.000277149
0.00027668
0.00027637
0.000275927
0.000275632
0.000275201
0.000274921
0.000274502
0.000274235
0.000273828
0.000273574
0.000273176
0.000272937
0.000272548
0.000272329
0.000271948
0.000271749
0.000271379
0.000271199
0.000270834
0.000270681
0.000270308
0.000273463
0.0101968
0.0128336
0.00102383
0.000932832
0.000857569
0.000793087
0.000736804
0.000687538
0.000644509
0.000607065
0.000574472
0.000546106
0.000521293
0.000499561
0.000480375
0.000463432
0.000448318
0.000434866
0.000422744
0.000411882
0.000401999
0.000393097
0.000384923
0.000377532
0.000370685
0.000364481
0.000358681
0.000353422
0.000348459
0.000343963
0.00033968
0.000335808
0.000332082
0.000328727
0.000325463
0.000322539
0.000319663
0.000317102
0.000314552
0.000312301
0.000310029
0.000308043
0.000306011
0.000304253
0.000302427
0.000300867
0.000299219
0.000297831
0.000296339
0.000295101
0.000293747
0.000292641
0.000291409
0.000290419
0.000289294
0.000288407
0.000287378
0.000286583
0.00028564
0.000284926
0.000284062
0.000283419
0.000282628
0.000282047
0.000281322
0.000280797
0.000280133
0.000279657
0.000279046
0.000278617
0.000278055
0.000277667
0.000277149
0.000276799
0.000276328
0.000276018
0.000275573
0.000275278
0.000274846
0.000274565
0.000274145
0.000273877
0.000273468
0.000273214
0.000272815
0.000272576
0.000272186
0.000271966
0.000271583
0.000271384
0.000271012
0.000270832
0.000270466
0.000270313
0.00026994
0.000273157
0.0102932
0.0129266
0.00102383
0.000932827
0.00085757
0.000793101
0.000736831
0.000687571
0.000644539
0.000607086
0.00057448
0.000546096
0.000521265
0.000499514
0.000480309
0.000463347
0.000448216
0.000434747
0.00042261
0.000411733
0.000401836
0.000392921
0.000384736
0.000377334
0.000370477
0.000364262
0.000358454
0.000353186
0.000348215
0.000343711
0.000339422
0.000335543
0.00033181
0.000328449
0.00032518
0.000322251
0.000319369
0.000316804
0.000314249
0.000311994
0.000309718
0.000307729
0.000305692
0.000303931
0.000302102
0.000300538
0.000298887
0.000297496
0.000296002
0.000294761
0.000293405
0.000292297
0.000291061
0.000290069
0.000288942
0.000288053
0.000287022
0.000286225
0.00028528
0.000284565
0.000283699
0.000283054
0.000282262
0.000281679
0.000280953
0.000280426
0.00027976
0.000279283
0.000278671
0.000278241
0.000277677
0.000277288
0.000276768
0.000276418
0.000275946
0.000275635
0.000275188
0.000274892
0.000274459
0.000274177
0.000273756
0.000273488
0.000273078
0.000272823
0.000272422
0.000272183
0.000271791
0.000271571
0.000271187
0.000270987
0.000270614
0.000270433
0.000270066
0.000269912
0.00026954
0.000272826
0.0103987
0.0130291
0.00102383
0.000932822
0.000857571
0.000793115
0.000736859
0.000687606
0.000644573
0.000607109
0.000574489
0.000546086
0.000521236
0.000499464
0.000480239
0.000463256
0.000448107
0.00043462
0.000422466
0.000411573
0.000401662
0.000392733
0.000384534
0.00037712
0.000370252
0.000364027
0.000358208
0.000352931
0.000347952
0.00034344
0.000339142
0.000335256
0.000331517
0.000328149
0.000324874
0.000321939
0.000319052
0.000316482
0.000313922
0.000311662
0.000309382
0.000307388
0.000305348
0.000303583
0.00030175
0.000300183
0.000298529
0.000297135
0.000295638
0.000294394
0.000293035
0.000291924
0.000290686
0.000289692
0.000288562
0.000287671
0.000286637
0.000285839
0.000284891
0.000284174
0.000283306
0.00028266
0.000281865
0.000281281
0.000280553
0.000280025
0.000279357
0.000278879
0.000278265
0.000277834
0.000277268
0.000276879
0.000276357
0.000276006
0.000275532
0.00027522
0.000274772
0.000274476
0.000274041
0.000273759
0.000273336
0.000273067
0.000272655
0.0002724
0.000271998
0.000271758
0.000271365
0.000271144
0.000270758
0.000270558
0.000270183
0.000270002
0.000269633
0.000269479
0.000269108
0.000272469
0.0105129
0.0131412
0.00102383
0.000932817
0.000857572
0.000793131
0.00073689
0.000687644
0.000644609
0.000607136
0.000574499
0.000546077
0.000521205
0.000499411
0.000480164
0.00046316
0.000447991
0.000434484
0.000422312
0.000411402
0.000401475
0.000392531
0.000384319
0.000376891
0.000370011
0.000363774
0.000357945
0.000352658
0.000347669
0.000343148
0.000338843
0.000334949
0.000331203
0.000327828
0.000324546
0.000321605
0.000318712
0.000316136
0.000313571
0.000311306
0.000309021
0.000307023
0.000304979
0.00030321
0.000301373
0.000299802
0.000298144
0.000296746
0.000295246
0.000294
0.000292637
0.000291523
0.000290282
0.000289286
0.000288153
0.00028726
0.000286224
0.000285423
0.000284473
0.000283755
0.000282884
0.000282236
0.000281439
0.000280854
0.000280124
0.000279594
0.000278924
0.000278445
0.000277829
0.000277396
0.000276829
0.000276438
0.000275915
0.000275563
0.000275087
0.000274775
0.000274325
0.000274028
0.000273591
0.000273308
0.000272884
0.000272614
0.000272201
0.000271944
0.000271541
0.0002713
0.000270906
0.000270684
0.000270297
0.000270096
0.00026972
0.000269538
0.000269167
0.000269013
0.000268643
0.000272086
0.0106349
0.0132626
0.00102383
0.000932811
0.000857573
0.000793148
0.000736923
0.000687685
0.000644649
0.000607164
0.000574512
0.000546068
0.000521174
0.000499356
0.000480086
0.000463059
0.000447868
0.000434341
0.000422149
0.000411221
0.000401277
0.000392316
0.000384089
0.000376647
0.000369754
0.000363505
0.000357665
0.000352366
0.000347368
0.000342837
0.000338523
0.00033462
0.000330866
0.000327484
0.000324196
0.000321247
0.000318348
0.000315766
0.000313196
0.000310926
0.000308636
0.000306632
0.000304583
0.00030281
0.000300969
0.000299394
0.000297732
0.000296331
0.000294827
0.000293577
0.000292211
0.000291095
0.000289851
0.000288851
0.000287716
0.00028682
0.000285781
0.000284978
0.000284026
0.000283305
0.000282432
0.000281782
0.000280983
0.000280396
0.000279664
0.000279132
0.000278461
0.00027798
0.000277362
0.000276928
0.000276359
0.000275967
0.000275442
0.000275088
0.000274611
0.000274297
0.000273846
0.000273548
0.00027311
0.000272826
0.0002724
0.000272129
0.000271714
0.000271457
0.000271052
0.000270811
0.000270414
0.000270192
0.000269803
0.000269601
0.000269224
0.000269041
0.000268668
0.000268514
0.000268144
0.000271676
0.0107637
0.0133932
0.00102383
0.000932805
0.000857574
0.000793165
0.000736958
0.000687729
0.000644692
0.000607196
0.000574526
0.00054606
0.000521142
0.000499298
0.000480004
0.000462953
0.000447739
0.000434189
0.000421977
0.000411028
0.000401066
0.000392088
0.000383846
0.000376388
0.000369482
0.000363219
0.000357367
0.000352056
0.000347047
0.000342506
0.000338183
0.000334271
0.000330509
0.000327118
0.000323822
0.000320867
0.000317961
0.000315373
0.000312796
0.00031052
0.000308225
0.000306216
0.000304162
0.000302384
0.000300538
0.000298959
0.000297293
0.000295888
0.00029438
0.000293127
0.000291757
0.000290638
0.00028939
0.000288388
0.000287249
0.000286351
0.00028531
0.000284504
0.000283549
0.000282826
0.00028195
0.000281298
0.000280497
0.000279907
0.000279173
0.00027864
0.000277966
0.000277483
0.000276864
0.000276428
0.000275857
0.000275464
0.000274937
0.000274582
0.000274103
0.000273788
0.000273335
0.000273036
0.000272596
0.000272311
0.000271883
0.000271612
0.000271195
0.000270937
0.00027053
0.000270288
0.00026989
0.000269667
0.000269276
0.000269073
0.000268694
0.000268511
0.000268136
0.000267982
0.000267613
0.00027124
0.0108977
0.0135324
0.00102383
0.000932799
0.000857575
0.000793184
0.000736996
0.000687776
0.000644738
0.00060723
0.000574542
0.000546053
0.00052111
0.000499239
0.000479919
0.000462841
0.000447603
0.000434029
0.000421796
0.000410826
0.000400844
0.000391848
0.000383588
0.000376115
0.000369193
0.000362916
0.000357051
0.000351728
0.000346708
0.000342156
0.000337822
0.000333901
0.000330129
0.00032673
0.000323426
0.000320463
0.00031755
0.000314955
0.000312372
0.00031009
0.000307788
0.000305774
0.000303715
0.000301932
0.000300081
0.000298497
0.000296827
0.000295418
0.000293906
0.000292649
0.000291275
0.000290152
0.000288901
0.000287896
0.000286754
0.000285853
0.000284808
0.000284
0.000283042
0.000282316
0.000281438
0.000280783
0.00027998
0.000279388
0.000278652
0.000278116
0.000277441
0.000276956
0.000276334
0.000275897
0.000275324
0.000274929
0.0002744
0.000274044
0.000273563
0.000273247
0.000272792
0.000272491
0.00027205
0.000271764
0.000271334
0.000271062
0.000270643
0.000270384
0.000269975
0.000269732
0.000269332
0.000269108
0.000268716
0.000268512
0.000268131
0.000267947
0.00026757
0.000267416
0.000267047
0.000270776
0.0110351
0.0136798
0.00102383
0.000932792
0.000857576
0.000793204
0.000737035
0.000687826
0.000644787
0.000607268
0.000574561
0.000546047
0.000521077
0.000499178
0.00047983
0.000462725
0.000447461
0.000433862
0.000421605
0.000410613
0.000400611
0.000391595
0.000383317
0.000375826
0.000368889
0.000362597
0.000356718
0.000351382
0.00034635
0.000341786
0.000337442
0.000333509
0.000329729
0.00032632
0.000323008
0.000320036
0.000317116
0.000314513
0.000311923
0.000309634
0.000307327
0.000305307
0.000303242
0.000301453
0.000299597
0.000298009
0.000296334
0.00029492
0.000293404
0.000292142
0.000290765
0.000289638
0.000288384
0.000287375
0.00028623
0.000285325
0.000284277
0.000283466
0.000282505
0.000281777
0.000280896
0.000280239
0.000279433
0.000278839
0.000278099
0.000277562
0.000276884
0.000276397
0.000275773
0.000275334
0.000274759
0.000274363
0.000273831
0.000273474
0.000272991
0.000272673
0.000272217
0.000271915
0.000271471
0.000271184
0.000270752
0.000270479
0.000270058
0.000269798
0.000269388
0.000269144
0.000268741
0.000268517
0.000268122
0.000267918
0.000267535
0.000267349
0.00026697
0.000266816
0.000266449
0.000270285
0.0111736
0.0138343
0.00102383
0.000932785
0.000857576
0.000793224
0.000737077
0.000687879
0.00064484
0.000607309
0.000574582
0.000546042
0.000521045
0.000499116
0.000479739
0.000462604
0.000447313
0.000433687
0.000421406
0.00041039
0.000400367
0.000391329
0.000383033
0.000375523
0.00036857
0.000362261
0.000356368
0.000351018
0.000345972
0.000341396
0.00033704
0.000333097
0.000329307
0.000325888
0.000322567
0.000319586
0.000316658
0.000314047
0.00031145
0.000309154
0.00030684
0.000304814
0.000302743
0.000300948
0.000299087
0.000297493
0.000295813
0.000294395
0.000292874
0.000291608
0.000290227
0.000289096
0.000287837
0.000286825
0.000285676
0.000284768
0.000283717
0.000282902
0.000281938
0.000281207
0.000280323
0.000279663
0.000278854
0.000278258
0.000277516
0.000276976
0.000276296
0.000275807
0.00027518
0.00027474
0.000274162
0.000273764
0.00027323
0.000272871
0.000272386
0.000272067
0.000271608
0.000271305
0.000270859
0.000270571
0.000270137
0.000269863
0.00026944
0.000269179
0.000268766
0.000268522
0.000268117
0.000267891
0.000267495
0.000267289
0.000266904
0.000266718
0.000266336
0.000266182
0.000265816
0.000269765
0.0113107
0.0139949
0.00102383
0.000932777
0.000857577
0.000793245
0.000737122
0.000687935
0.000644897
0.000607353
0.000574606
0.000546039
0.000521013
0.000499052
0.000479645
0.00046248
0.00044716
0.000433505
0.000421199
0.000410157
0.000400111
0.000391052
0.000382735
0.000375206
0.000368235
0.00036191
0.000356001
0.000350635
0.000345577
0.000340987
0.000336619
0.000332664
0.000328863
0.000325434
0.000322103
0.000319114
0.000316177
0.000313557
0.000310953
0.000308649
0.000306328
0.000304295
0.000302218
0.000300417
0.00029855
0.000296951
0.000295266
0.000293842
0.000292316
0.000291046
0.00028966
0.000288524
0.000287262
0.000286245
0.000285093
0.000284181
0.000283126
0.000282309
0.000281341
0.000280607
0.00027972
0.000279057
0.000278245
0.000277646
0.000276902
0.00027636
0.000275676
0.000275186
0.000274556
0.000274114
0.000273533
0.000273133
0.000272597
0.000272237
0.000271749
0.000271429
0.000270968
0.000270663
0.000270215
0.000269925
0.000269489
0.000269214
0.000268788
0.000268527
0.000268111
0.000267866
0.000267459
0.000267232
0.000266833
0.000266627
0.000266239
0.000266052
0.000265668
0.000265513
0.000265149
0.000269215
0.0114432
0.0141602
0.00102383
0.000932769
0.000857577
0.000793268
0.000737168
0.000687995
0.000644958
0.000607401
0.000574633
0.000546038
0.000520981
0.000498988
0.000479549
0.000462351
0.000447001
0.000433317
0.000420983
0.000409915
0.000399845
0.000390762
0.000382425
0.000374875
0.000367886
0.000361542
0.000355617
0.000350235
0.000345162
0.000340558
0.000336178
0.000332211
0.000328398
0.000324958
0.000321618
0.000318618
0.000315672
0.000313044
0.000310431
0.000308119
0.000305791
0.000303751
0.000301667
0.000299859
0.000297986
0.000296381
0.00029469
0.000293261
0.00029173
0.000290455
0.000289064
0.000287924
0.000286658
0.000285637
0.00028448
0.000283565
0.000282506
0.000281685
0.000280714
0.000279977
0.000279086
0.000278421
0.000277605
0.000277004
0.000276256
0.000275712
0.000275025
0.000274532
0.0002739
0.000273455
0.000272872
0.000272471
0.000271932
0.00027157
0.00027108
0.000270758
0.000270294
0.000269988
0.000269538
0.000269247
0.000268808
0.000268531
0.000268104
0.000267841
0.000267423
0.000267177
0.000266767
0.00026654
0.000266138
0.00026593
0.000265541
0.000265352
0.000264965
0.000264811
0.000264448
0.000268636
0.0115678
0.0143284
0.00102383
0.000932761
0.000857577
0.000793291
0.000737217
0.000688058
0.000645022
0.000607453
0.000574663
0.000546039
0.000520951
0.000498923
0.000479451
0.000462219
0.000446837
0.000433122
0.00042076
0.000409664
0.000399569
0.000390461
0.000382101
0.00037453
0.000367521
0.000361158
0.000355216
0.000349818
0.00034473
0.000340111
0.000335718
0.000331737
0.000327913
0.00032446
0.000321109
0.000318099
0.000315144
0.000312506
0.000309885
0.000307565
0.000305229
0.000303181
0.00030109
0.000299276
0.000297396
0.000295785
0.000294088
0.000292653
0.000291117
0.000289836
0.00028844
0.000287296
0.000286024
0.000284999
0.000283838
0.000282919
0.000281856
0.000281032
0.000280057
0.000279316
0.000278422
0.000277753
0.000276935
0.00027633
0.000275579
0.000275032
0.000274342
0.000273847
0.000273212
0.000272765
0.000272179
0.000271776
0.000271234
0.00027087
0.000270378
0.000270054
0.000269588
0.000269281
0.000268827
0.000268535
0.000268094
0.000267816
0.000267386
0.000267122
0.000266701
0.000266454
0.000266041
0.000265813
0.000265409
0.0002652
0.000264808
0.000264618
0.000264228
0.000264074
0.000263712
0.000268026
0.0116805
0.0144973
0.00102383
0.000932752
0.000857577
0.000793314
0.000737267
0.000688125
0.000645091
0.000607508
0.000574697
0.000546043
0.000520922
0.000498858
0.000479351
0.000462084
0.000446669
0.000432921
0.000420529
0.000409404
0.000399282
0.000390149
0.000381766
0.000374172
0.000367142
0.000360759
0.000354799
0.000349383
0.000344279
0.000339645
0.000335237
0.000331243
0.000327406
0.000323942
0.000320579
0.000317558
0.000314593
0.000311945
0.000309315
0.000306986
0.000304642
0.000302586
0.000300487
0.000298666
0.000296779
0.000295161
0.000293458
0.000292017
0.000290475
0.00028919
0.000287788
0.000286639
0.000285362
0.000284333
0.000283167
0.000282244
0.000281177
0.000280348
0.000279369