/*--------------------------------*- C++ -*----------------------------------*\
| =========                 |                                                 |
| \\      /  F ield         | OpenFOAM: The Open Source CFD Toolbox           |
|  \\    /   O peration     | Version:  v2012                                 |
|   \\  /    A nd           | Website:  www.openfoam.com                      |
|    \\/     M anipulation  |                                                 |
\*---------------------------------------------------------------------------*/
FoamFile
{
    version     2.0;
    format      ascii;
    class       volScalarField;
    location    "57";
    object      nut;
}
// * * * * * * * * * * * * * * * * * * * * * * * * * * * * * * * * * * * * * //

dimensions      [0 2 -1 0 0 0 0];


internalField   nonuniform List<scalar> 
209825
(
1.24133e-07
1.23513e-07
1.22264e-07
1.19413e-07
1.14942e-07
1.09402e-07
1.03417e-07
9.74517e-08
9.17785e-08
8.65348e-08
8.17572e-08
7.74511e-08
7.35751e-08
7.01046e-08
6.69827e-08
6.41868e-08
6.16606e-08
5.93924e-08
5.73296e-08
5.54723e-08
5.37709e-08
5.22347e-08
5.08167e-08
4.95344e-08
4.83406e-08
4.72604e-08
4.62452e-08
4.53279e-08
4.44577e-08
4.36724e-08
4.292e-08
4.22438e-08
4.15889e-08
4.10028e-08
4.04283e-08
3.99179e-08
3.94111e-08
3.89642e-08
3.85147e-08
3.81222e-08
3.77216e-08
3.73756e-08
3.70169e-08
3.67105e-08
3.63872e-08
3.61157e-08
3.58237e-08
3.55821e-08
3.53167e-08
3.51024e-08
3.48604e-08
3.46686e-08
3.44479e-08
3.42764e-08
3.40757e-08
3.39206e-08
3.37357e-08
3.35985e-08
3.34273e-08
3.33044e-08
3.31479e-08
3.30359e-08
3.28916e-08
3.27897e-08
3.26574e-08
3.25634e-08
3.2443e-08
3.23568e-08
3.22443e-08
3.21651e-08
3.2061e-08
3.19895e-08
3.18944e-08
3.18305e-08
3.17401e-08
3.16788e-08
3.15902e-08
3.15309e-08
3.14435e-08
3.13861e-08
3.13e-08
3.12442e-08
3.11585e-08
3.11036e-08
3.10177e-08
3.09639e-08
3.08794e-08
3.08275e-08
3.07441e-08
3.06935e-08
3.06108e-08
3.05593e-08
3.04683e-08
3.07413e-08
2.85305e-06
2.35482e-08
1.24133e-07
1.23513e-07
1.22264e-07
1.19413e-07
1.14943e-07
1.09404e-07
1.03419e-07
9.74539e-08
9.17808e-08
8.65372e-08
8.17596e-08
7.74536e-08
7.35775e-08
7.01069e-08
6.69849e-08
6.41889e-08
6.16626e-08
5.93943e-08
5.73314e-08
5.5474e-08
5.37725e-08
5.22363e-08
5.08182e-08
4.95358e-08
4.83419e-08
4.72616e-08
4.62464e-08
4.5329e-08
4.44587e-08
4.36734e-08
4.2921e-08
4.22447e-08
4.15897e-08
4.10036e-08
4.04291e-08
3.99186e-08
3.94118e-08
3.89649e-08
3.85153e-08
3.81228e-08
3.77221e-08
3.73762e-08
3.70174e-08
3.6711e-08
3.63877e-08
3.61161e-08
3.58242e-08
3.55825e-08
3.53171e-08
3.51027e-08
3.48607e-08
3.4669e-08
3.44482e-08
3.42767e-08
3.4076e-08
3.39209e-08
3.3736e-08
3.35987e-08
3.34276e-08
3.33046e-08
3.31481e-08
3.30361e-08
3.28918e-08
3.27899e-08
3.26576e-08
3.25635e-08
3.24431e-08
3.23569e-08
3.22445e-08
3.21653e-08
3.20612e-08
3.19896e-08
3.18945e-08
3.18306e-08
3.17402e-08
3.16789e-08
3.15902e-08
3.1531e-08
3.14436e-08
3.13861e-08
3.13001e-08
3.12443e-08
3.11586e-08
3.11036e-08
3.10178e-08
3.09639e-08
3.08795e-08
3.08275e-08
3.07441e-08
3.06935e-08
3.06108e-08
3.05593e-08
3.04683e-08
3.07415e-08
2.85302e-06
2.37186e-08
1.24133e-07
1.23512e-07
1.22264e-07
1.19415e-07
1.14947e-07
1.0941e-07
1.03427e-07
9.74632e-08
9.17907e-08
8.65473e-08
8.17696e-08
7.74633e-08
7.35869e-08
7.01159e-08
6.69934e-08
6.41971e-08
6.16703e-08
5.94016e-08
5.73383e-08
5.54805e-08
5.37786e-08
5.22421e-08
5.08237e-08
4.95409e-08
4.83467e-08
4.72662e-08
4.62508e-08
4.53331e-08
4.44626e-08
4.36771e-08
4.29245e-08
4.2248e-08
4.15928e-08
4.10066e-08
4.04319e-08
3.99213e-08
3.94143e-08
3.89673e-08
3.85176e-08
3.8125e-08
3.77242e-08
3.73782e-08
3.70193e-08
3.67128e-08
3.63894e-08
3.61177e-08
3.58257e-08
3.5584e-08
3.53185e-08
3.51041e-08
3.4862e-08
3.46702e-08
3.44494e-08
3.42778e-08
3.4077e-08
3.39219e-08
3.37369e-08
3.35996e-08
3.34284e-08
3.33054e-08
3.31488e-08
3.30368e-08
3.28925e-08
3.27905e-08
3.26582e-08
3.25641e-08
3.24436e-08
3.23574e-08
3.22449e-08
3.21657e-08
3.20616e-08
3.199e-08
3.18948e-08
3.1831e-08
3.17405e-08
3.16792e-08
3.15905e-08
3.15312e-08
3.14438e-08
3.13863e-08
3.13002e-08
3.12444e-08
3.11587e-08
3.11038e-08
3.10179e-08
3.0964e-08
3.08795e-08
3.08276e-08
3.07442e-08
3.06935e-08
3.06108e-08
3.05593e-08
3.04683e-08
3.07419e-08
2.85187e-06
2.39323e-08
1.24133e-07
1.23512e-07
1.22265e-07
1.19419e-07
1.14955e-07
1.09422e-07
1.03441e-07
9.74789e-08
9.18073e-08
8.65641e-08
8.17864e-08
7.74797e-08
7.36027e-08
7.0131e-08
6.70079e-08
6.42107e-08
6.16833e-08
5.94138e-08
5.73499e-08
5.54914e-08
5.37889e-08
5.22518e-08
5.08328e-08
4.95496e-08
4.83549e-08
4.72739e-08
4.62581e-08
4.53401e-08
4.44692e-08
4.36833e-08
4.29303e-08
4.22536e-08
4.15981e-08
4.10116e-08
4.04367e-08
3.99259e-08
3.94186e-08
3.89714e-08
3.85215e-08
3.81287e-08
3.77277e-08
3.73815e-08
3.70225e-08
3.67158e-08
3.63923e-08
3.61205e-08
3.58283e-08
3.55865e-08
3.53209e-08
3.51063e-08
3.48641e-08
3.46722e-08
3.44513e-08
3.42797e-08
3.40788e-08
3.39236e-08
3.37385e-08
3.36011e-08
3.34298e-08
3.33067e-08
3.31501e-08
3.30381e-08
3.28936e-08
3.27916e-08
3.26592e-08
3.25651e-08
3.24446e-08
3.23583e-08
3.22457e-08
3.21665e-08
3.20623e-08
3.19906e-08
3.18954e-08
3.18315e-08
3.17411e-08
3.16797e-08
3.1591e-08
3.15316e-08
3.14442e-08
3.13867e-08
3.13005e-08
3.12447e-08
3.1159e-08
3.1104e-08
3.10181e-08
3.09643e-08
3.08797e-08
3.08277e-08
3.07442e-08
3.06936e-08
3.06108e-08
3.05593e-08
3.04682e-08
3.07424e-08
2.84985e-06
2.41657e-08
1.24133e-07
1.23511e-07
1.22266e-07
1.19425e-07
1.14966e-07
1.09438e-07
1.03461e-07
9.75011e-08
9.18307e-08
8.6588e-08
8.18101e-08
7.75028e-08
7.3625e-08
7.01524e-08
6.70282e-08
6.42301e-08
6.17016e-08
5.94311e-08
5.73663e-08
5.55068e-08
5.38035e-08
5.22655e-08
5.08458e-08
4.95619e-08
4.83665e-08
4.72849e-08
4.62685e-08
4.53499e-08
4.44785e-08
4.36921e-08
4.29387e-08
4.22615e-08
4.16056e-08
4.10187e-08
4.04435e-08
3.99323e-08
3.94247e-08
3.89772e-08
3.8527e-08
3.8134e-08
3.77327e-08
3.73863e-08
3.7027e-08
3.67201e-08
3.63964e-08
3.61244e-08
3.5832e-08
3.559e-08
3.53242e-08
3.51096e-08
3.48672e-08
3.46752e-08
3.44541e-08
3.42823e-08
3.40813e-08
3.39259e-08
3.37408e-08
3.36033e-08
3.34319e-08
3.33087e-08
3.3152e-08
3.30398e-08
3.28953e-08
3.27932e-08
3.26607e-08
3.25665e-08
3.24459e-08
3.23595e-08
3.22469e-08
3.21676e-08
3.20633e-08
3.19916e-08
3.18964e-08
3.18324e-08
3.17418e-08
3.16804e-08
3.15916e-08
3.15323e-08
3.14448e-08
3.13872e-08
3.1301e-08
3.12452e-08
3.11594e-08
3.11044e-08
3.10184e-08
3.09646e-08
3.08799e-08
3.08279e-08
3.07444e-08
3.06938e-08
3.06108e-08
3.05594e-08
3.04683e-08
3.07432e-08
2.84702e-06
2.44076e-08
1.24133e-07
1.2351e-07
1.22268e-07
1.19433e-07
1.14981e-07
1.09459e-07
1.03487e-07
9.75299e-08
9.18612e-08
8.66189e-08
8.18408e-08
7.75328e-08
7.3654e-08
7.01801e-08
6.70547e-08
6.42552e-08
6.17254e-08
5.94536e-08
5.73875e-08
5.55269e-08
5.38225e-08
5.22834e-08
5.08627e-08
4.95778e-08
4.83816e-08
4.72991e-08
4.62819e-08
4.53626e-08
4.44906e-08
4.37036e-08
4.29496e-08
4.22718e-08
4.16154e-08
4.1028e-08
4.04523e-08
3.99407e-08
3.94327e-08
3.89848e-08
3.85342e-08
3.81409e-08
3.77393e-08
3.73925e-08
3.70329e-08
3.67257e-08
3.64017e-08
3.61295e-08
3.58369e-08
3.55946e-08
3.53287e-08
3.51138e-08
3.48712e-08
3.4679e-08
3.44577e-08
3.42858e-08
3.40846e-08
3.39291e-08
3.37437e-08
3.36061e-08
3.34346e-08
3.33112e-08
3.31544e-08
3.30421e-08
3.28975e-08
3.27953e-08
3.26627e-08
3.25683e-08
3.24476e-08
3.23612e-08
3.22484e-08
3.21691e-08
3.20647e-08
3.19929e-08
3.18976e-08
3.18335e-08
3.17429e-08
3.16814e-08
3.15925e-08
3.15331e-08
3.14455e-08
3.13879e-08
3.13016e-08
3.12458e-08
3.11599e-08
3.11049e-08
3.10188e-08
3.0965e-08
3.08802e-08
3.08282e-08
3.07446e-08
3.0694e-08
3.0611e-08
3.05595e-08
3.04683e-08
3.07443e-08
2.84342e-06
2.46536e-08
1.24132e-07
1.23509e-07
1.2227e-07
1.19442e-07
1.14999e-07
1.09485e-07
1.03518e-07
9.75653e-08
9.18987e-08
8.66571e-08
8.18788e-08
7.75698e-08
7.36898e-08
7.02144e-08
6.70874e-08
6.42862e-08
6.17548e-08
5.94814e-08
5.74138e-08
5.55517e-08
5.38459e-08
5.23055e-08
5.08836e-08
4.95976e-08
4.84003e-08
4.73168e-08
4.62987e-08
4.53784e-08
4.45055e-08
4.37177e-08
4.2963e-08
4.22846e-08
4.16275e-08
4.10395e-08
4.04632e-08
3.99511e-08
3.94426e-08
3.89942e-08
3.85432e-08
3.81494e-08
3.77474e-08
3.74002e-08
3.70402e-08
3.67327e-08
3.64084e-08
3.61359e-08
3.58429e-08
3.56004e-08
3.53341e-08
3.5119e-08
3.48762e-08
3.46837e-08
3.44622e-08
3.42901e-08
3.40887e-08
3.3933e-08
3.37475e-08
3.36097e-08
3.34379e-08
3.33144e-08
3.31574e-08
3.3045e-08
3.29002e-08
3.27978e-08
3.26651e-08
3.25707e-08
3.24498e-08
3.23633e-08
3.22504e-08
3.21709e-08
3.20664e-08
3.19946e-08
3.18991e-08
3.1835e-08
3.17442e-08
3.16827e-08
3.15937e-08
3.15342e-08
3.14465e-08
3.13889e-08
3.13025e-08
3.12465e-08
3.11606e-08
3.11056e-08
3.10194e-08
3.09656e-08
3.08807e-08
3.08286e-08
3.07449e-08
3.06943e-08
3.06111e-08
3.05597e-08
3.04684e-08
3.07457e-08
2.83914e-06
2.49032e-08
1.24132e-07
1.23507e-07
1.22272e-07
1.19452e-07
1.1502e-07
1.09515e-07
1.03556e-07
9.76076e-08
9.19435e-08
8.67027e-08
8.19241e-08
7.76141e-08
7.37326e-08
7.02554e-08
6.71265e-08
6.43233e-08
6.179e-08
5.95147e-08
5.74453e-08
5.55814e-08
5.3874e-08
5.2332e-08
5.09087e-08
4.96212e-08
4.84226e-08
4.73379e-08
4.63187e-08
4.53974e-08
4.45235e-08
4.37347e-08
4.29791e-08
4.22999e-08
4.16421e-08
4.10533e-08
4.04763e-08
3.99635e-08
3.94544e-08
3.90054e-08
3.85539e-08
3.81596e-08
3.77571e-08
3.74095e-08
3.7049e-08
3.67412e-08
3.64164e-08
3.61435e-08
3.58502e-08
3.56074e-08
3.53407e-08
3.51253e-08
3.48822e-08
3.46895e-08
3.44677e-08
3.42953e-08
3.40936e-08
3.39377e-08
3.37519e-08
3.36139e-08
3.3442e-08
3.33183e-08
3.3161e-08
3.30485e-08
3.29035e-08
3.2801e-08
3.26681e-08
3.25735e-08
3.24524e-08
3.23658e-08
3.22528e-08
3.21732e-08
3.20685e-08
3.19966e-08
3.19009e-08
3.18368e-08
3.17459e-08
3.16843e-08
3.15951e-08
3.15356e-08
3.14477e-08
3.139e-08
3.13035e-08
3.12475e-08
3.11615e-08
3.11065e-08
3.10201e-08
3.09664e-08
3.08812e-08
3.08292e-08
3.07453e-08
3.06946e-08
3.06114e-08
3.05599e-08
3.04686e-08
3.07474e-08
2.83425e-06
2.5159e-08
1.24131e-07
1.23505e-07
1.22275e-07
1.19465e-07
1.15045e-07
1.09551e-07
1.036e-07
9.76569e-08
9.19956e-08
8.67558e-08
8.19769e-08
7.76657e-08
7.37825e-08
7.03032e-08
6.71721e-08
6.43666e-08
6.1831e-08
5.95535e-08
5.7482e-08
5.56161e-08
5.39068e-08
5.2363e-08
5.09379e-08
4.96488e-08
4.84488e-08
4.73626e-08
4.63421e-08
4.54195e-08
4.45445e-08
4.37546e-08
4.2998e-08
4.23178e-08
4.16591e-08
4.10694e-08
4.04917e-08
3.99781e-08
3.94683e-08
3.90187e-08
3.85665e-08
3.81715e-08
3.77685e-08
3.74203e-08
3.70594e-08
3.6751e-08
3.64258e-08
3.61525e-08
3.58587e-08
3.56155e-08
3.53485e-08
3.51327e-08
3.48892e-08
3.46962e-08
3.44741e-08
3.43014e-08
3.40994e-08
3.39433e-08
3.37572e-08
3.3619e-08
3.34467e-08
3.33228e-08
3.31654e-08
3.30526e-08
3.29074e-08
3.28047e-08
3.26716e-08
3.25768e-08
3.24556e-08
3.23688e-08
3.22556e-08
3.21759e-08
3.2071e-08
3.1999e-08
3.19032e-08
3.18389e-08
3.17478e-08
3.16861e-08
3.15968e-08
3.15372e-08
3.14492e-08
3.13914e-08
3.13047e-08
3.12487e-08
3.11625e-08
3.11075e-08
3.1021e-08
3.09673e-08
3.08819e-08
3.08299e-08
3.07459e-08
3.06951e-08
3.06117e-08
3.05602e-08
3.04688e-08
3.07495e-08
2.82882e-06
2.54255e-08
1.24131e-07
1.23503e-07
1.22278e-07
1.19479e-07
1.15073e-07
1.09591e-07
1.0365e-07
9.77131e-08
9.20553e-08
8.68166e-08
8.20374e-08
7.77248e-08
7.38397e-08
7.0358e-08
6.72244e-08
6.44163e-08
6.18782e-08
5.95981e-08
5.75242e-08
5.56559e-08
5.39444e-08
5.23985e-08
5.09715e-08
4.96805e-08
4.84788e-08
4.7391e-08
4.63689e-08
4.54449e-08
4.45686e-08
4.37775e-08
4.30197e-08
4.23384e-08
4.16786e-08
4.1088e-08
4.05093e-08
3.99949e-08
3.94843e-08
3.90338e-08
3.85809e-08
3.81853e-08
3.77816e-08
3.74328e-08
3.70713e-08
3.67624e-08
3.64366e-08
3.61628e-08
3.58686e-08
3.56249e-08
3.53574e-08
3.51412e-08
3.48973e-08
3.4704e-08
3.44815e-08
3.43084e-08
3.41061e-08
3.39497e-08
3.37633e-08
3.36248e-08
3.34523e-08
3.33281e-08
3.31703e-08
3.30574e-08
3.29119e-08
3.2809e-08
3.26757e-08
3.25807e-08
3.24592e-08
3.23723e-08
3.22589e-08
3.2179e-08
3.2074e-08
3.20018e-08
3.19058e-08
3.18414e-08
3.17501e-08
3.16883e-08
3.15988e-08
3.15391e-08
3.14509e-08
3.13931e-08
3.13062e-08
3.12501e-08
3.11637e-08
3.11087e-08
3.1022e-08
3.09684e-08
3.08828e-08
3.08307e-08
3.07465e-08
3.06957e-08
3.06121e-08
3.05606e-08
3.04691e-08
3.0752e-08
2.82295e-06
2.5709e-08
1.2413e-07
1.23501e-07
1.22281e-07
1.19495e-07
1.15104e-07
1.09637e-07
1.03706e-07
9.77766e-08
9.21226e-08
8.68852e-08
8.21057e-08
7.77916e-08
7.39043e-08
7.042e-08
6.72836e-08
6.44725e-08
6.19315e-08
5.96485e-08
5.75719e-08
5.5701e-08
5.3987e-08
5.24387e-08
5.10096e-08
4.97165e-08
4.85128e-08
4.74232e-08
4.63994e-08
4.54738e-08
4.4596e-08
4.38034e-08
4.30443e-08
4.23617e-08
4.17008e-08
4.11091e-08
4.05294e-08
4.0014e-08
3.95024e-08
3.90511e-08
3.85974e-08
3.8201e-08
3.77965e-08
3.7447e-08
3.70848e-08
3.67753e-08
3.64489e-08
3.61745e-08
3.58798e-08
3.56356e-08
3.53676e-08
3.5151e-08
3.49066e-08
3.47128e-08
3.44899e-08
3.43165e-08
3.41138e-08
3.3957e-08
3.37702e-08
3.36314e-08
3.34586e-08
3.33341e-08
3.31761e-08
3.30628e-08
3.2917e-08
3.28139e-08
3.26803e-08
3.25852e-08
3.24634e-08
3.23763e-08
3.22626e-08
3.21826e-08
3.20773e-08
3.2005e-08
3.19087e-08
3.18442e-08
3.17527e-08
3.16908e-08
3.16011e-08
3.15413e-08
3.14529e-08
3.1395e-08
3.13079e-08
3.12517e-08
3.11652e-08
3.11102e-08
3.10233e-08
3.09696e-08
3.08838e-08
3.08317e-08
3.07473e-08
3.06965e-08
3.06126e-08
3.05612e-08
3.04695e-08
3.07549e-08
2.81671e-06
2.60169e-08
1.24129e-07
1.23499e-07
1.22284e-07
1.19512e-07
1.15139e-07
1.09688e-07
1.03769e-07
9.78472e-08
9.21976e-08
8.69618e-08
8.2182e-08
7.78663e-08
7.39766e-08
7.04893e-08
6.73498e-08
6.45354e-08
6.19912e-08
5.9705e-08
5.76254e-08
5.57514e-08
5.40348e-08
5.24838e-08
5.10522e-08
4.97568e-08
4.8551e-08
4.74593e-08
4.64336e-08
4.55062e-08
4.46267e-08
4.38325e-08
4.30719e-08
4.23879e-08
4.17257e-08
4.11328e-08
4.05519e-08
4.00354e-08
3.95228e-08
3.90705e-08
3.86158e-08
3.82186e-08
3.78132e-08
3.7463e-08
3.71e-08
3.67898e-08
3.64628e-08
3.61878e-08
3.58924e-08
3.56476e-08
3.53791e-08
3.51619e-08
3.4917e-08
3.47228e-08
3.44994e-08
3.43256e-08
3.41224e-08
3.39653e-08
3.37781e-08
3.36389e-08
3.34657e-08
3.33409e-08
3.31825e-08
3.3069e-08
3.29229e-08
3.28195e-08
3.26856e-08
3.25902e-08
3.24682e-08
3.23809e-08
3.22669e-08
3.21868e-08
3.20811e-08
3.20087e-08
3.19122e-08
3.18475e-08
3.17558e-08
3.16937e-08
3.16038e-08
3.15439e-08
3.14552e-08
3.13972e-08
3.13098e-08
3.12536e-08
3.11669e-08
3.11118e-08
3.10247e-08
3.09711e-08
3.08849e-08
3.08328e-08
3.07482e-08
3.06974e-08
3.06132e-08
3.05618e-08
3.047e-08
3.07583e-08
2.81017e-06
2.63575e-08
1.24128e-07
1.23496e-07
1.22288e-07
1.19531e-07
1.15177e-07
1.09743e-07
1.03839e-07
9.79253e-08
9.22805e-08
8.70465e-08
8.22665e-08
7.79489e-08
7.40567e-08
7.05661e-08
6.74232e-08
6.46052e-08
6.20574e-08
5.97677e-08
5.76847e-08
5.58075e-08
5.40878e-08
5.25339e-08
5.10996e-08
4.98016e-08
4.85934e-08
4.74994e-08
4.64716e-08
4.55421e-08
4.46608e-08
4.38649e-08
4.31027e-08
4.24171e-08
4.17534e-08
4.11591e-08
4.05769e-08
4.00592e-08
3.95455e-08
3.90921e-08
3.86364e-08
3.82382e-08
3.78319e-08
3.74808e-08
3.7117e-08
3.6806e-08
3.64782e-08
3.62025e-08
3.59064e-08
3.56611e-08
3.53919e-08
3.51742e-08
3.49287e-08
3.47339e-08
3.451e-08
3.43357e-08
3.41321e-08
3.39746e-08
3.37869e-08
3.36473e-08
3.34737e-08
3.33486e-08
3.31898e-08
3.30759e-08
3.29295e-08
3.28258e-08
3.26916e-08
3.25959e-08
3.24735e-08
3.2386e-08
3.22717e-08
3.21914e-08
3.20855e-08
3.20128e-08
3.1916e-08
3.18512e-08
3.17592e-08
3.1697e-08
3.16068e-08
3.15468e-08
3.14579e-08
3.13997e-08
3.13121e-08
3.12557e-08
3.11688e-08
3.11137e-08
3.10264e-08
3.09728e-08
3.08863e-08
3.08342e-08
3.07493e-08
3.06984e-08
3.0614e-08
3.05626e-08
3.04706e-08
3.07622e-08
2.80339e-06
2.67392e-08
1.24127e-07
1.23493e-07
1.22292e-07
1.19552e-07
1.15219e-07
1.09804e-07
1.03914e-07
9.80108e-08
9.23715e-08
8.71395e-08
8.23593e-08
7.80397e-08
7.41447e-08
7.06506e-08
6.7504e-08
6.4682e-08
6.21304e-08
5.98367e-08
5.77501e-08
5.58693e-08
5.41463e-08
5.25892e-08
5.11519e-08
4.9851e-08
4.86402e-08
4.75436e-08
4.65136e-08
4.55819e-08
4.46985e-08
4.39006e-08
4.31366e-08
4.24493e-08
4.17841e-08
4.11882e-08
4.06046e-08
4.00855e-08
3.95706e-08
3.9116e-08
3.86592e-08
3.82599e-08
3.78526e-08
3.75005e-08
3.71358e-08
3.6824e-08
3.64953e-08
3.62189e-08
3.5922e-08
3.5676e-08
3.54061e-08
3.51878e-08
3.49417e-08
3.47463e-08
3.45218e-08
3.4347e-08
3.41428e-08
3.39849e-08
3.37966e-08
3.36567e-08
3.34826e-08
3.33571e-08
3.31978e-08
3.30836e-08
3.29368e-08
3.28328e-08
3.26982e-08
3.26022e-08
3.24795e-08
3.23917e-08
3.22771e-08
3.21966e-08
3.20903e-08
3.20175e-08
3.19204e-08
3.18554e-08
3.17631e-08
3.17007e-08
3.16102e-08
3.15501e-08
3.14609e-08
3.14026e-08
3.13147e-08
3.12582e-08
3.1171e-08
3.11159e-08
3.10283e-08
3.09748e-08
3.08879e-08
3.08357e-08
3.07506e-08
3.06997e-08
3.06149e-08
3.05635e-08
3.04714e-08
3.07667e-08
2.79638e-06
2.7171e-08
1.24127e-07
1.2349e-07
1.22296e-07
1.19575e-07
1.15264e-07
1.09871e-07
1.03997e-07
9.81039e-08
9.24706e-08
8.72409e-08
8.24605e-08
7.8139e-08
7.42409e-08
7.0743e-08
6.75923e-08
6.4766e-08
6.22102e-08
5.99123e-08
5.78217e-08
5.5937e-08
5.42103e-08
5.26497e-08
5.12092e-08
4.99052e-08
4.86915e-08
4.75922e-08
4.65596e-08
4.56255e-08
4.47399e-08
4.39399e-08
4.31739e-08
4.24847e-08
4.18177e-08
4.12202e-08
4.06351e-08
4.01145e-08
3.95981e-08
3.91423e-08
3.86842e-08
3.82837e-08
3.78753e-08
3.75222e-08
3.71565e-08
3.68438e-08
3.65142e-08
3.62369e-08
3.59392e-08
3.56924e-08
3.54217e-08
3.52027e-08
3.49559e-08
3.476e-08
3.45348e-08
3.43595e-08
3.41547e-08
3.39962e-08
3.38074e-08
3.36671e-08
3.34924e-08
3.33665e-08
3.32068e-08
3.30922e-08
3.29449e-08
3.28406e-08
3.27056e-08
3.26093e-08
3.24861e-08
3.23981e-08
3.22832e-08
3.22024e-08
3.20958e-08
3.20227e-08
3.19252e-08
3.186e-08
3.17674e-08
3.17049e-08
3.16141e-08
3.15537e-08
3.14643e-08
3.14058e-08
3.13176e-08
3.1261e-08
3.11736e-08
3.11184e-08
3.10305e-08
3.0977e-08
3.08898e-08
3.08376e-08
3.07521e-08
3.07011e-08
3.0616e-08
3.05647e-08
3.04724e-08
3.07717e-08
2.78917e-06
2.76618e-08
1.24126e-07
1.23486e-07
1.22301e-07
1.19599e-07
1.15313e-07
1.09942e-07
1.04086e-07
9.82046e-08
9.2578e-08
8.73509e-08
8.25704e-08
7.82467e-08
7.43454e-08
7.08435e-08
6.76884e-08
6.48574e-08
6.22971e-08
5.99946e-08
5.78997e-08
5.60107e-08
5.42801e-08
5.27157e-08
5.12717e-08
4.99642e-08
4.87474e-08
4.76451e-08
4.66098e-08
4.5673e-08
4.4785e-08
4.39827e-08
4.32146e-08
4.25234e-08
4.18545e-08
4.12551e-08
4.06684e-08
4.01462e-08
3.96283e-08
3.9171e-08
3.87116e-08
3.83099e-08
3.79003e-08
3.7546e-08
3.71792e-08
3.68654e-08
3.65348e-08
3.62566e-08
3.5958e-08
3.57104e-08
3.54389e-08
3.52192e-08
3.49716e-08
3.4775e-08
3.45491e-08
3.43732e-08
3.41677e-08
3.40088e-08
3.38193e-08
3.36785e-08
3.35033e-08
3.33768e-08
3.32166e-08
3.31016e-08
3.29539e-08
3.28492e-08
3.27137e-08
3.26171e-08
3.24935e-08
3.24052e-08
3.22899e-08
3.22088e-08
3.21018e-08
3.20285e-08
3.19307e-08
3.18652e-08
3.17723e-08
3.17095e-08
3.16184e-08
3.15579e-08
3.14681e-08
3.14095e-08
3.13209e-08
3.12642e-08
3.11764e-08
3.11212e-08
3.1033e-08
3.09795e-08
3.08919e-08
3.08397e-08
3.07538e-08
3.07028e-08
3.06174e-08
3.0566e-08
3.04735e-08
3.07773e-08
2.78172e-06
2.82203e-08
1.24125e-07
1.23482e-07
1.22306e-07
1.19624e-07
1.15365e-07
1.10019e-07
1.04182e-07
9.83131e-08
9.26939e-08
8.74696e-08
8.26891e-08
7.83632e-08
7.44585e-08
7.09522e-08
6.77925e-08
6.49565e-08
6.23912e-08
6.00839e-08
5.79843e-08
5.60907e-08
5.43559e-08
5.27873e-08
5.13395e-08
5.00284e-08
4.88082e-08
4.77027e-08
4.66644e-08
4.57248e-08
4.48341e-08
4.40293e-08
4.32589e-08
4.25654e-08
4.18945e-08
4.12932e-08
4.07046e-08
4.01807e-08
3.96612e-08
3.92023e-08
3.87414e-08
3.83383e-08
3.79274e-08
3.75719e-08
3.72039e-08
3.6889e-08
3.65574e-08
3.62782e-08
3.59786e-08
3.57301e-08
3.54577e-08
3.52372e-08
3.49888e-08
3.47914e-08
3.45648e-08
3.43882e-08
3.4182e-08
3.40225e-08
3.38324e-08
3.3691e-08
3.35152e-08
3.33882e-08
3.32275e-08
3.3112e-08
3.29638e-08
3.28586e-08
3.27227e-08
3.26257e-08
3.25017e-08
3.2413e-08
3.22973e-08
3.22159e-08
3.21085e-08
3.20349e-08
3.19367e-08
3.1871e-08
3.17777e-08
3.17147e-08
3.16232e-08
3.15625e-08
3.14723e-08
3.14136e-08
3.13247e-08
3.12678e-08
3.11796e-08
3.11244e-08
3.10359e-08
3.09824e-08
3.08943e-08
3.08421e-08
3.07559e-08
3.07048e-08
3.06189e-08
3.05676e-08
3.04749e-08
3.07835e-08
2.77394e-06
2.88552e-08
1.24124e-07
1.23478e-07
1.22311e-07
1.19651e-07
1.1542e-07
1.10101e-07
1.04284e-07
9.84295e-08
9.28183e-08
8.75972e-08
8.28169e-08
7.84886e-08
7.45804e-08
7.10694e-08
6.79047e-08
6.50633e-08
6.24929e-08
6.01802e-08
5.80756e-08
5.61771e-08
5.44378e-08
5.28647e-08
5.14128e-08
5.00978e-08
4.8874e-08
4.7765e-08
4.67235e-08
4.57808e-08
4.48873e-08
4.40798e-08
4.33068e-08
4.2611e-08
4.19378e-08
4.13344e-08
4.07439e-08
4.02181e-08
3.96968e-08
3.92363e-08
3.87738e-08
3.83692e-08
3.79569e-08
3.76001e-08
3.72308e-08
3.69147e-08
3.65819e-08
3.63016e-08
3.6001e-08
3.57516e-08
3.54781e-08
3.52567e-08
3.50075e-08
3.48094e-08
3.45819e-08
3.44045e-08
3.41976e-08
3.40375e-08
3.38466e-08
3.37047e-08
3.35282e-08
3.34007e-08
3.32394e-08
3.31234e-08
3.29746e-08
3.2869e-08
3.27326e-08
3.26352e-08
3.25106e-08
3.24217e-08
3.23054e-08
3.22238e-08
3.21159e-08
3.2042e-08
3.19433e-08
3.18774e-08
3.17837e-08
3.17205e-08
3.16286e-08
3.15677e-08
3.14771e-08
3.14182e-08
3.13288e-08
3.12718e-08
3.11832e-08
3.1128e-08
3.10391e-08
3.09856e-08
3.08971e-08
3.08449e-08
3.07582e-08
3.07071e-08
3.06208e-08
3.05694e-08
3.04766e-08
3.07904e-08
2.76573e-06
2.95748e-08
1.24122e-07
1.23474e-07
1.22316e-07
1.1968e-07
1.15479e-07
1.10188e-07
1.04394e-07
9.85538e-08
9.29513e-08
8.77339e-08
8.29538e-08
7.86232e-08
7.47112e-08
7.11953e-08
6.80253e-08
6.51782e-08
6.26022e-08
6.02839e-08
5.8174e-08
5.62702e-08
5.45259e-08
5.29481e-08
5.14918e-08
5.01725e-08
4.89449e-08
4.78321e-08
4.67872e-08
4.58412e-08
4.49447e-08
4.41342e-08
4.33586e-08
4.26602e-08
4.19847e-08
4.1379e-08
4.07863e-08
4.02585e-08
3.97354e-08
3.92731e-08
3.88089e-08
3.84027e-08
3.79888e-08
3.76306e-08
3.72599e-08
3.69426e-08
3.66085e-08
3.63271e-08
3.60252e-08
3.57748e-08
3.55003e-08
3.5278e-08
3.50278e-08
3.48288e-08
3.46005e-08
3.44223e-08
3.42146e-08
3.40538e-08
3.38622e-08
3.37196e-08
3.35425e-08
3.34143e-08
3.32523e-08
3.31359e-08
3.29865e-08
3.28804e-08
3.27434e-08
3.26456e-08
3.25204e-08
3.24311e-08
3.23144e-08
3.22324e-08
3.2124e-08
3.20498e-08
3.19507e-08
3.18845e-08
3.17903e-08
3.17269e-08
3.16345e-08
3.15734e-08
3.14824e-08
3.14233e-08
3.13335e-08
3.12763e-08
3.11873e-08
3.1132e-08
3.10428e-08
3.09892e-08
3.09003e-08
3.0848e-08
3.07609e-08
3.07098e-08
3.06229e-08
3.05716e-08
3.04786e-08
3.07979e-08
2.75688e-06
3.03871e-08
1.24121e-07
1.23469e-07
1.22321e-07
1.1971e-07
1.15542e-07
1.1028e-07
1.0451e-07
9.86862e-08
9.30932e-08
8.78797e-08
8.31001e-08
7.87671e-08
7.48511e-08
7.133e-08
6.81545e-08
6.53014e-08
6.27194e-08
6.03951e-08
5.82795e-08
5.63701e-08
5.46206e-08
5.30377e-08
5.15768e-08
5.02529e-08
4.90211e-08
4.79043e-08
4.68557e-08
4.59062e-08
4.50065e-08
4.41929e-08
4.34144e-08
4.27132e-08
4.20352e-08
4.1427e-08
4.08321e-08
4.03021e-08
3.97769e-08
3.93127e-08
3.88467e-08
3.84388e-08
3.80233e-08
3.76635e-08
3.72914e-08
3.69727e-08
3.66372e-08
3.63546e-08
3.60515e-08
3.58e-08
3.55244e-08
3.5301e-08
3.50498e-08
3.48499e-08
3.46207e-08
3.44417e-08
3.42331e-08
3.40715e-08
3.38791e-08
3.37358e-08
3.35579e-08
3.34292e-08
3.32665e-08
3.31495e-08
3.29994e-08
3.28928e-08
3.27552e-08
3.26569e-08
3.25312e-08
3.24415e-08
3.23242e-08
3.22419e-08
3.21329e-08
3.20584e-08
3.19588e-08
3.18923e-08
3.17976e-08
3.1734e-08
3.16411e-08
3.15798e-08
3.14883e-08
3.1429e-08
3.13388e-08
3.12814e-08
3.11919e-08
3.11365e-08
3.10469e-08
3.09933e-08
3.09039e-08
3.08516e-08
3.0764e-08
3.07128e-08
3.06255e-08
3.05741e-08
3.04809e-08
3.08062e-08
2.74717e-06
3.12997e-08
1.2412e-07
1.23464e-07
1.22326e-07
1.19742e-07
1.15607e-07
1.10378e-07
1.04633e-07
9.88266e-08
9.32439e-08
8.8035e-08
8.32559e-08
7.89204e-08
7.50005e-08
7.14739e-08
6.82925e-08
6.5433e-08
6.28448e-08
6.0514e-08
5.83924e-08
5.64771e-08
5.4722e-08
5.31337e-08
5.16678e-08
5.03391e-08
4.91028e-08
4.79818e-08
4.69293e-08
4.5976e-08
4.50728e-08
4.42559e-08
4.34743e-08
4.27702e-08
4.20894e-08
4.14787e-08
4.08813e-08
4.0349e-08
3.98217e-08
3.93554e-08
3.88875e-08
3.84777e-08
3.80604e-08
3.7699e-08
3.73253e-08
3.70051e-08
3.66682e-08
3.63843e-08
3.60799e-08
3.58272e-08
3.55504e-08
3.5326e-08
3.50736e-08
3.48728e-08
3.46425e-08
3.44626e-08
3.4253e-08
3.40907e-08
3.38974e-08
3.37534e-08
3.35747e-08
3.34453e-08
3.32819e-08
3.31642e-08
3.30135e-08
3.29063e-08
3.27681e-08
3.26693e-08
3.2543e-08
3.24528e-08
3.2335e-08
3.22523e-08
3.21428e-08
3.20679e-08
3.19677e-08
3.1901e-08
3.18057e-08
3.17418e-08
3.16484e-08
3.15869e-08
3.14949e-08
3.14354e-08
3.13446e-08
3.1287e-08
3.1197e-08
3.11415e-08
3.10516e-08
3.09979e-08
3.0908e-08
3.08557e-08
3.07675e-08
3.07163e-08
3.06284e-08
3.05771e-08
3.04836e-08
3.08152e-08
2.7363e-06
3.23197e-08
1.24119e-07
1.23459e-07
1.22332e-07
1.19775e-07
1.15676e-07
1.10481e-07
1.04764e-07
9.89753e-08
9.34037e-08
8.81997e-08
8.34215e-08
7.90835e-08
7.51594e-08
7.16272e-08
6.84396e-08
6.55734e-08
6.29785e-08
6.0641e-08
5.8513e-08
5.65913e-08
5.48304e-08
5.32363e-08
5.17651e-08
5.04313e-08
4.91903e-08
4.80647e-08
4.7008e-08
4.60507e-08
4.51438e-08
4.43233e-08
4.35386e-08
4.28313e-08
4.21476e-08
4.15341e-08
4.09341e-08
4.03994e-08
3.98697e-08
3.94013e-08
3.89312e-08
3.85195e-08
3.81004e-08
3.77372e-08
3.73617e-08
3.704e-08
3.67016e-08
3.64162e-08
3.61104e-08
3.58565e-08
3.55784e-08
3.53528e-08
3.50993e-08
3.48974e-08
3.46661e-08
3.44852e-08
3.42747e-08
3.41115e-08
3.39173e-08
3.37725e-08
3.3593e-08
3.34628e-08
3.32986e-08
3.31803e-08
3.30289e-08
3.2921e-08
3.27822e-08
3.26828e-08
3.25558e-08
3.24652e-08
3.23467e-08
3.22636e-08
3.21535e-08
3.20783e-08
3.19775e-08
3.19104e-08
3.18146e-08
3.17504e-08
3.16565e-08
3.15947e-08
3.15022e-08
3.14424e-08
3.13511e-08
3.12934e-08
3.12028e-08
3.11472e-08
3.10567e-08
3.10031e-08
3.09126e-08
3.08603e-08
3.07715e-08
3.07203e-08
3.06317e-08
3.05804e-08
3.04868e-08
3.08249e-08
2.72389e-06
3.34536e-08
1.24118e-07
1.23453e-07
1.22337e-07
1.19809e-07
1.15748e-07
1.10589e-07
1.04901e-07
9.91322e-08
9.35727e-08
8.83741e-08
8.35969e-08
7.92566e-08
7.53281e-08
7.179e-08
6.8596e-08
6.57227e-08
6.31208e-08
6.07762e-08
5.86414e-08
5.6713e-08
5.49459e-08
5.33457e-08
5.18689e-08
5.05296e-08
4.92837e-08
4.81533e-08
4.70922e-08
4.61305e-08
4.52197e-08
4.43955e-08
4.36072e-08
4.28966e-08
4.22098e-08
4.15934e-08
4.09907e-08
4.04533e-08
3.99212e-08
3.94504e-08
3.89782e-08
3.85644e-08
3.81432e-08
3.77782e-08
3.74009e-08
3.70775e-08
3.67375e-08
3.64506e-08
3.61433e-08
3.5888e-08
3.56085e-08
3.53818e-08
3.5127e-08
3.4924e-08
3.46915e-08
3.45096e-08
3.4298e-08
3.4134e-08
3.39387e-08
3.37931e-08
3.36127e-08
3.34817e-08
3.33167e-08
3.31977e-08
3.30455e-08
3.2937e-08
3.27974e-08
3.26975e-08
3.25698e-08
3.24787e-08
3.23596e-08
3.2276e-08
3.21653e-08
3.20897e-08
3.19883e-08
3.19208e-08
3.18245e-08
3.17599e-08
3.16654e-08
3.16033e-08
3.15103e-08
3.14502e-08
3.13584e-08
3.13004e-08
3.12093e-08
3.11535e-08
3.10626e-08
3.10088e-08
3.09178e-08
3.08656e-08
3.0776e-08
3.07248e-08
3.06356e-08
3.05843e-08
3.04905e-08
3.08353e-08
2.70952e-06
3.47067e-08
1.24116e-07
1.23448e-07
1.22343e-07
1.19845e-07
1.15824e-07
1.10702e-07
1.05045e-07
9.92974e-08
9.37509e-08
8.85583e-08
8.37825e-08
7.94398e-08
7.55069e-08
7.19626e-08
6.87619e-08
6.58812e-08
6.3272e-08
6.09199e-08
5.8778e-08
5.68426e-08
5.50689e-08
5.34622e-08
5.19795e-08
5.06344e-08
4.93832e-08
4.82476e-08
4.71819e-08
4.62157e-08
4.53008e-08
4.44725e-08
4.36806e-08
4.29664e-08
4.22764e-08
4.16568e-08
4.10511e-08
4.0511e-08
3.99763e-08
3.9503e-08
3.90284e-08
3.86124e-08
3.81891e-08
3.78221e-08
3.74429e-08
3.71178e-08
3.6776e-08
3.64875e-08
3.61786e-08
3.59219e-08
3.5641e-08
3.54129e-08
3.51568e-08
3.49526e-08
3.47189e-08
3.45359e-08
3.43232e-08
3.41583e-08
3.39619e-08
3.38154e-08
3.3634e-08
3.35022e-08
3.33363e-08
3.32166e-08
3.30635e-08
3.29544e-08
3.2814e-08
3.27135e-08
3.2585e-08
3.24934e-08
3.23736e-08
3.22896e-08
3.21781e-08
3.21021e-08
3.20001e-08
3.19322e-08
3.18352e-08
3.17703e-08
3.16753e-08
3.16128e-08
3.15192e-08
3.14589e-08
3.13664e-08
3.13082e-08
3.12165e-08
3.11605e-08
3.10691e-08
3.10153e-08
3.09237e-08
3.08714e-08
3.07812e-08
3.07299e-08
3.06401e-08
3.05888e-08
3.04947e-08
3.08465e-08
2.69271e-06
3.60836e-08
1.24115e-07
1.23441e-07
1.22349e-07
1.19882e-07
1.15902e-07
1.10821e-07
1.05196e-07
9.9471e-08
9.39385e-08
8.87525e-08
8.39783e-08
7.96333e-08
7.56959e-08
7.21453e-08
6.89376e-08
6.60491e-08
6.34323e-08
6.10723e-08
5.8923e-08
5.69801e-08
5.51995e-08
5.3586e-08
5.2097e-08
5.07459e-08
4.94891e-08
4.83481e-08
4.72774e-08
4.63064e-08
4.53871e-08
4.45546e-08
4.37588e-08
4.30408e-08
4.23473e-08
4.17244e-08
4.11157e-08
4.05725e-08
4.00351e-08
3.95592e-08
3.90821e-08
3.86637e-08
3.82382e-08
3.78691e-08
3.74879e-08
3.71609e-08
3.68172e-08
3.65271e-08
3.62165e-08
3.59583e-08
3.56758e-08
3.54463e-08
3.51888e-08
3.49834e-08
3.47484e-08
3.45643e-08
3.43503e-08
3.41844e-08
3.39869e-08
3.38394e-08
3.3657e-08
3.35244e-08
3.33575e-08
3.3237e-08
3.30831e-08
3.29732e-08
3.2832e-08
3.27309e-08
3.26015e-08
3.25094e-08
3.23888e-08
3.23043e-08
3.21922e-08
3.21157e-08
3.2013e-08
3.19447e-08
3.1847e-08
3.17818e-08
3.16861e-08
3.16233e-08
3.1529e-08
3.14684e-08
3.13754e-08
3.13169e-08
3.12245e-08
3.11684e-08
3.10763e-08
3.10224e-08
3.09302e-08
3.0878e-08
3.0787e-08
3.07358e-08
3.06452e-08
3.05939e-08
3.04995e-08
3.08584e-08
2.67292e-06
3.75869e-08
1.24114e-07
1.23435e-07
1.22354e-07
1.1992e-07
1.15984e-07
1.10944e-07
1.05354e-07
9.9653e-08
9.41355e-08
8.89568e-08
8.41846e-08
7.98373e-08
7.58955e-08
7.23383e-08
6.91234e-08
6.62268e-08
6.3602e-08
6.12337e-08
5.90766e-08
5.71259e-08
5.5338e-08
5.37174e-08
5.22218e-08
5.08642e-08
4.96015e-08
4.84548e-08
4.73789e-08
4.64028e-08
4.54789e-08
4.46419e-08
4.3842e-08
4.31201e-08
4.24229e-08
4.17965e-08
4.11845e-08
4.06382e-08
4.00979e-08
3.96191e-08
3.91395e-08
3.87186e-08
3.82907e-08
3.79193e-08
3.7536e-08
3.7207e-08
3.68614e-08
3.65694e-08
3.62571e-08
3.59972e-08
3.57131e-08