/*--------------------------------*- C++ -*----------------------------------*\
| =========                 |                                                 |
| \\      /  F ield         | OpenFOAM: The Open Source CFD Toolbox           |
|  \\    /   O peration     | Version:  v2012                                 |
|   \\  /    A nd           | Website:  www.openfoam.com                      |
|    \\/     M anipulation  |                                                 |
\*---------------------------------------------------------------------------*/
FoamFile
{
    version     2.0;
    format      ascii;
    class       volVectorField;
    location    "57";
    object      wallShearStress;
}
// * * * * * * * * * * * * * * * * * * * * * * * * * * * * * * * * * * * * * //

dimensions      [0 2 -2 0 0 0 0];


internalField   uniform (0 0 0);

boundaryField
{
    inlet
    {
        type            calculated;
        value           uniform (0 0 0);
    }
    outlet
    {
        type            calculated;
        value           uniform (0 0 0);
    }
    topWall
    {
        type            calculated;
        value           nonuniform List<vector> 
545
(
(6.99229e-08 -4.9219e-08 0)
(6.99017e-08 -1.3769e-07 0)
(6.98583e-08 -2.29682e-07 0)
(6.97979e-08 -3.19006e-07 0)
(6.97232e-08 -4.04521e-07 0)
(6.9635e-08 -4.87323e-07 0)
(6.95346e-08 -5.68118e-07 0)
(6.94226e-08 -6.46867e-07 0)
(6.93e-08 -7.23398e-07 0)
(6.91679e-08 -7.97708e-07 0)
(6.90271e-08 -8.69896e-07 0)
(6.88784e-08 -9.40045e-07 0)
(6.87227e-08 -1.0082e-06 0)
(6.85607e-08 -1.07441e-06 0)
(6.8393e-08 -1.13871e-06 0)
(6.82204e-08 -1.20116e-06 0)
(6.80435e-08 -1.2618e-06 0)
(6.78628e-08 -1.3207e-06 0)
(6.76788e-08 -1.37788e-06 0)
(6.74921e-08 -1.43341e-06 0)
(6.73031e-08 -1.48732e-06 0)
(6.71123e-08 -1.53966e-06 0)
(6.692e-08 -1.59047e-06 0)
(6.67267e-08 -1.63981e-06 0)
(6.65326e-08 -1.6877e-06 0)
(6.63382e-08 -1.73419e-06 0)
(6.61437e-08 -1.77933e-06 0)
(6.59495e-08 -1.82314e-06 0)
(6.57556e-08 -1.86568e-06 0)
(6.55625e-08 -1.90697e-06 0)
(6.53703e-08 -1.94706e-06 0)
(6.51792e-08 -1.98597e-06 0)
(6.49894e-08 -2.02375e-06 0)
(6.48011e-08 -2.06042e-06 0)
(6.46143e-08 -2.09602e-06 0)
(6.44294e-08 -2.13059e-06 0)
(6.42463e-08 -2.16415e-06 0)
(6.40652e-08 -2.19673e-06 0)
(6.38863e-08 -2.22836e-06 0)
(6.37095e-08 -2.25907e-06 0)
(6.35349e-08 -2.28889e-06 0)
(6.33628e-08 -2.31785e-06 0)
(6.3193e-08 -2.34596e-06 0)
(6.30257e-08 -2.37326e-06 0)
(6.28608e-08 -2.39977e-06 0)
(6.26985e-08 -2.42552e-06 0)
(6.25388e-08 -2.45052e-06 0)
(6.23817e-08 -2.4748e-06 0)
(6.22272e-08 -2.49838e-06 0)
(6.20753e-08 -2.52129e-06 0)
(6.19261e-08 -2.54353e-06 0)
(6.17795e-08 -2.56514e-06 0)
(6.16355e-08 -2.58613e-06 0)
(6.14942e-08 -2.60652e-06 0)
(6.13556e-08 -2.62632e-06 0)
(6.12195e-08 -2.64556e-06 0)
(6.10861e-08 -2.66425e-06 0)
(6.09552e-08 -2.68241e-06 0)
(6.08269e-08 -2.70005e-06 0)
(6.07012e-08 -2.71719e-06 0)
(6.0578e-08 -2.73385e-06 0)
(6.04573e-08 -2.75003e-06 0)
(6.03391e-08 -2.76576e-06 0)
(6.02234e-08 -2.78104e-06 0)
(6.011e-08 -2.79589e-06 0)
(5.99991e-08 -2.81032e-06 0)
(5.98905e-08 -2.82435e-06 0)
(5.97842e-08 -2.83798e-06 0)
(5.96802e-08 -2.85123e-06 0)
(5.95785e-08 -2.8641e-06 0)
(5.94789e-08 -2.87662e-06 0)
(5.93819e-08 -2.88877e-06 0)
(5.92876e-08 -2.90046e-06 0)
(5.91954e-08 -2.91181e-06 0)
(5.91041e-08 -2.92302e-06 0)
(5.90131e-08 -2.93419e-06 0)
(5.89222e-08 -2.9453e-06 0)
(5.88314e-08 -2.95635e-06 0)
(5.87407e-08 -2.96732e-06 0)
(5.86501e-08 -2.97823e-06 0)
(5.85595e-08 -2.98907e-06 0)
(5.84691e-08 -2.99984e-06 0)
(5.83788e-08 -3.01055e-06 0)
(5.82885e-08 -3.0212e-06 0)
(5.81984e-08 -3.03178e-06 0)
(5.81084e-08 -3.04229e-06 0)
(5.80185e-08 -3.05274e-06 0)
(5.79287e-08 -3.06312e-06 0)
(5.7839e-08 -3.07345e-06 0)
(5.77495e-08 -3.0837e-06 0)
(5.76601e-08 -3.0939e-06 0)
(5.75708e-08 -3.10403e-06 0)
(5.74816e-08 -3.11411e-06 0)
(5.73926e-08 -3.12411e-06 0)
(5.73036e-08 -3.13408e-06 0)
(5.72162e-08 -3.14388e-06 0)
(5.71336e-08 -3.15285e-06 0)
(5.7057e-08 -3.16099e-06 0)
(5.69837e-08 -3.1689e-06 0)
(5.69106e-08 -3.17685e-06 0)
(5.68374e-08 -3.18487e-06 0)
(5.67639e-08 -3.19292e-06 0)
(5.669e-08 -3.20096e-06 0)
(5.66158e-08 -3.20899e-06 0)
(5.65413e-08 -3.21704e-06 0)
(5.64663e-08 -3.2251e-06 0)
(5.63911e-08 -3.23317e-06 0)
(5.63155e-08 -3.24124e-06 0)
(5.62395e-08 -3.24933e-06 0)
(5.61631e-08 -3.25742e-06 0)
(5.60865e-08 -3.26552e-06 0)
(5.60094e-08 -3.27363e-06 0)
(5.5932e-08 -3.28174e-06 0)
(5.58543e-08 -3.28987e-06 0)
(5.57761e-08 -3.298e-06 0)
(5.56977e-08 -3.30614e-06 0)
(5.56188e-08 -3.31428e-06 0)
(5.55396e-08 -3.32244e-06 0)
(5.54601e-08 -3.3306e-06 0)
(5.53801e-08 -3.33877e-06 0)
(5.52998e-08 -3.34695e-06 0)
(5.52192e-08 -3.35513e-06 0)
(5.51382e-08 -3.36332e-06 0)
(5.50568e-08 -3.37152e-06 0)
(5.4975e-08 -3.37973e-06 0)
(5.48929e-08 -3.38794e-06 0)
(5.48103e-08 -3.39616e-06 0)
(5.47275e-08 -3.40439e-06 0)
(5.46442e-08 -3.41262e-06 0)
(5.45606e-08 -3.42086e-06 0)
(5.44766e-08 -3.42911e-06 0)
(5.43922e-08 -3.43736e-06 0)
(5.43075e-08 -3.44563e-06 0)
(5.42223e-08 -3.45389e-06 0)
(5.41368e-08 -3.46217e-06 0)
(5.40509e-08 -3.47045e-06 0)
(5.39647e-08 -3.47873e-06 0)
(5.3878e-08 -3.48703e-06 0)
(5.3791e-08 -3.49533e-06 0)
(5.37036e-08 -3.50363e-06 0)
(5.36158e-08 -3.51194e-06 0)
(5.35276e-08 -3.52026e-06 0)
(5.3439e-08 -3.52858e-06 0)
(5.33501e-08 -3.53691e-06 0)
(5.32607e-08 -3.54524e-06 0)
(5.3171e-08 -3.55358e-06 0)
(5.30809e-08 -3.56193e-06 0)
(5.29904e-08 -3.57028e-06 0)
(5.28995e-08 -3.57864e-06 0)
(5.28082e-08 -3.587e-06 0)
(5.27165e-08 -3.59537e-06 0)
(5.26245e-08 -3.60374e-06 0)
(5.2532e-08 -3.61212e-06 0)
(5.24392e-08 -3.6205e-06 0)
(5.23459e-08 -3.62888e-06 0)
(5.22523e-08 -3.63728e-06 0)
(5.21582e-08 -3.64567e-06 0)
(5.20638e-08 -3.65407e-06 0)
(5.1969e-08 -3.66248e-06 0)
(5.18737e-08 -3.67089e-06 0)
(5.17781e-08 -3.6793e-06 0)
(5.16821e-08 -3.68772e-06 0)
(5.15856e-08 -3.69615e-06 0)
(5.14888e-08 -3.70457e-06 0)
(5.13916e-08 -3.713e-06 0)
(5.1294e-08 -3.72144e-06 0)
(5.11959e-08 -3.72988e-06 0)
(5.10975e-08 -3.73832e-06 0)
(5.09987e-08 -3.74676e-06 0)
(5.08994e-08 -3.75521e-06 0)
(5.07998e-08 -3.76367e-06 0)
(5.06997e-08 -3.77212e-06 0)
(5.05993e-08 -3.78058e-06 0)
(5.04984e-08 -3.78904e-06 0)
(5.03971e-08 -3.79751e-06 0)
(5.02955e-08 -3.80598e-06 0)
(5.01934e-08 -3.81445e-06 0)
(5.00909e-08 -3.82292e-06 0)
(4.9988e-08 -3.8314e-06 0)
(4.98847e-08 -3.83988e-06 0)
(4.9781e-08 -3.84836e-06 0)
(4.96769e-08 -3.85684e-06 0)
(4.95723e-08 -3.86532e-06 0)
(4.94674e-08 -3.87381e-06 0)
(4.93621e-08 -3.8823e-06 0)
(4.92563e-08 -3.89079e-06 0)
(4.91501e-08 -3.89929e-06 0)
(4.90435e-08 -3.90778e-06 0)
(4.89365e-08 -3.91628e-06 0)
(4.88292e-08 -3.92477e-06 0)
(4.87213e-08 -3.93327e-06 0)
(4.86131e-08 -3.94177e-06 0)
(4.85045e-08 -3.95027e-06 0)
(4.83954e-08 -3.95878e-06 0)
(4.8286e-08 -3.96728e-06 0)
(4.81761e-08 -3.97578e-06 0)
(4.80658e-08 -3.98429e-06 0)
(4.79551e-08 -3.99279e-06 0)
(4.7844e-08 -4.0013e-06 0)
(4.77325e-08 -4.0098e-06 0)
(4.76205e-08 -4.01831e-06 0)
(4.75082e-08 -4.02681e-06 0)
(4.73954e-08 -4.03532e-06 0)
(4.72822e-08 -4.04382e-06 0)
(4.71686e-08 -4.05233e-06 0)
(4.70546e-08 -4.06083e-06 0)
(4.69402e-08 -4.06933e-06 0)
(4.68254e-08 -4.07784e-06 0)
(4.67102e-08 -4.08634e-06 0)
(4.65945e-08 -4.09484e-06 0)
(4.64784e-08 -4.10334e-06 0)
(4.6362e-08 -4.11184e-06 0)
(4.62451e-08 -4.12034e-06 0)
(4.61278e-08 -4.12883e-06 0)
(4.60101e-08 -4.13732e-06 0)
(4.5892e-08 -4.14582e-06 0)
(4.57734e-08 -4.15431e-06 0)
(4.56545e-08 -4.1628e-06 0)
(4.55352e-08 -4.17128e-06 0)
(4.54154e-08 -4.17977e-06 0)
(4.52952e-08 -4.18825e-06 0)
(4.51747e-08 -4.19673e-06 0)
(4.50537e-08 -4.2052e-06 0)
(4.49323e-08 -4.21368e-06 0)
(4.48105e-08 -4.22215e-06 0)
(4.46883e-08 -4.23061e-06 0)
(4.45657e-08 -4.23908e-06 0)
(4.44427e-08 -4.24754e-06 0)
(4.43193e-08 -4.25599e-06 0)
(4.41955e-08 -4.26445e-06 0)
(4.40712e-08 -4.2729e-06 0)
(4.39466e-08 -4.28134e-06 0)
(4.38216e-08 -4.28978e-06 0)
(4.36962e-08 -4.29822e-06 0)
(4.35703e-08 -4.30665e-06 0)
(4.34441e-08 -4.31508e-06 0)
(4.33175e-08 -4.32351e-06 0)
(4.31905e-08 -4.33192e-06 0)
(4.30631e-08 -4.34034e-06 0)
(4.29352e-08 -4.34875e-06 0)
(4.2807e-08 -4.35715e-06 0)
(4.26784e-08 -4.36555e-06 0)
(4.25494e-08 -4.37394e-06 0)
(4.24201e-08 -4.38233e-06 0)
(4.22903e-08 -4.39071e-06 0)
(4.21601e-08 -4.39908e-06 0)
(4.20295e-08 -4.40745e-06 0)
(4.18986e-08 -4.41581e-06 0)
(4.17673e-08 -4.42417e-06 0)
(4.16356e-08 -4.43252e-06 0)
(4.15035e-08 -4.44086e-06 0)
(4.1371e-08 -4.44919e-06 0)
(4.12381e-08 -4.45752e-06 0)
(4.11049e-08 -4.46584e-06 0)
(4.09713e-08 -4.47416e-06 0)
(4.08373e-08 -4.48246e-06 0)
(4.07029e-08 -4.49076e-06 0)
(4.05681e-08 -4.49905e-06 0)
(4.0433e-08 -4.50733e-06 0)
(4.02975e-08 -4.51561e-06 0)
(4.01617e-08 -4.52387e-06 0)
(4.00254e-08 -4.53213e-06 0)
(3.98888e-08 -4.54038e-06 0)
(3.97519e-08 -4.54862e-06 0)
(3.96146e-08 -4.55685e-06 0)
(3.94769e-08 -4.56507e-06 0)
(3.93389e-08 -4.57328e-06 0)
(3.92002e-08 -4.5815e-06 0)
(3.9064e-08 -4.58963e-06 0)
(3.89312e-08 -4.59738e-06 0)
(3.8802e-08 -4.60476e-06 0)
(3.86757e-08 -4.61207e-06 0)
(3.85486e-08 -4.61944e-06 0)
(3.84204e-08 -4.6269e-06 0)
(3.82908e-08 -4.63443e-06 0)
(3.81597e-08 -4.642e-06 0)
(3.80272e-08 -4.64963e-06 0)
(3.78932e-08 -4.65731e-06 0)
(3.77578e-08 -4.66505e-06 0)
(3.76209e-08 -4.67285e-06 0)
(3.74825e-08 -4.6807e-06 0)
(3.73426e-08 -4.68861e-06 0)
(3.72012e-08 -4.69657e-06 0)
(3.70582e-08 -4.70459e-06 0)
(3.69137e-08 -4.71267e-06 0)
(3.67676e-08 -4.7208e-06 0)
(3.662e-08 -4.72898e-06 0)
(3.64708e-08 -4.73723e-06 0)
(3.632e-08 -4.74552e-06 0)
(3.61675e-08 -4.75388e-06 0)
(3.60135e-08 -4.76228e-06 0)
(3.58578e-08 -4.77075e-06 0)
(3.57004e-08 -4.77926e-06 0)
(3.55414e-08 -4.78784e-06 0)
(3.53807e-08 -4.79646e-06 0)
(3.52183e-08 -4.80514e-06 0)
(3.50542e-08 -4.81387e-06 0)
(3.48884e-08 -4.82266e-06 0)
(3.47209e-08 -4.8315e-06 0)
(3.45516e-08 -4.84039e-06 0)
(3.43806e-08 -4.84934e-06 0)
(3.42078e-08 -4.85834e-06 0)
(3.40332e-08 -4.86738e-06 0)
(3.38569e-08 -4.87649e-06 0)
(3.36787e-08 -4.88564e-06 0)
(3.34988e-08 -4.89484e-06 0)
(3.3317e-08 -4.90409e-06 0)
(3.31334e-08 -4.91339e-06 0)
(3.29479e-08 -4.92274e-06 0)
(3.27606e-08 -4.93214e-06 0)
(3.25715e-08 -4.94158e-06 0)
(3.23804e-08 -4.95108e-06 0)
(3.21875e-08 -4.96061e-06 0)
(3.19927e-08 -4.9702e-06 0)
(3.1796e-08 -4.97983e-06 0)
(3.15974e-08 -4.9895e-06 0)
(3.13969e-08 -4.99922e-06 0)
(3.11944e-08 -5.00898e-06 0)
(3.099e-08 -5.01878e-06 0)
(3.07837e-08 -5.02862e-06 0)
(3.05754e-08 -5.0385e-06 0)
(3.03652e-08 -5.04843e-06 0)
(3.01531e-08 -5.05839e-06 0)
(2.99389e-08 -5.06838e-06 0)
(2.97228e-08 -5.07842e-06 0)
(2.95048e-08 -5.08849e-06 0)
(2.92848e-08 -5.09859e-06 0)
(2.90628e-08 -5.10873e-06 0)
(2.88388e-08 -5.11889e-06 0)
(2.86128e-08 -5.12909e-06 0)
(2.83849e-08 -5.13932e-06 0)
(2.8155e-08 -5.14957e-06 0)
(2.7923e-08 -5.15985e-06 0)
(2.76892e-08 -5.17016e-06 0)
(2.74533e-08 -5.18049e-06 0)
(2.72155e-08 -5.19085e-06 0)
(2.69757e-08 -5.20122e-06 0)
(2.6734e-08 -5.21162e-06 0)
(2.64902e-08 -5.22203e-06 0)
(2.62446e-08 -5.23246e-06 0)
(2.59969e-08 -5.2429e-06 0)
(2.57474e-08 -5.25335e-06 0)
(2.54959e-08 -5.26382e-06 0)
(2.52425e-08 -5.2743e-06 0)
(2.49871e-08 -5.28478e-06 0)
(2.47299e-08 -5.29527e-06 0)
(2.44708e-08 -5.30576e-06 0)
(2.42098e-08 -5.31626e-06 0)
(2.3947e-08 -5.32675e-06 0)
(2.36823e-08 -5.33724e-06 0)
(2.34158e-08 -5.34773e-06 0)
(2.31475e-08 -5.35821e-06 0)
(2.28774e-08 -5.36868e-06 0)
(2.26055e-08 -5.37915e-06 0)
(2.23319e-08 -5.38959e-06 0)
(2.20566e-08 -5.40003e-06 0)
(2.17796e-08 -5.41044e-06 0)
(2.15009e-08 -5.42083e-06 0)
(2.12206e-08 -5.4312e-06 0)
(2.09387e-08 -5.44155e-06 0)
(2.06551e-08 -5.45186e-06 0)
(2.03701e-08 -5.46215e-06 0)
(2.00835e-08 -5.4724e-06 0)
(1.97954e-08 -5.48262e-06 0)
(1.95059e-08 -5.4928e-06 0)
(1.9215e-08 -5.50294e-06 0)
(1.89227e-08 -5.51302e-06 0)
(1.86291e-08 -5.52307e-06 0)
(1.83342e-08 -5.53306e-06 0)
(1.80381e-08 -5.54301e-06 0)
(1.77407e-08 -5.55289e-06 0)
(1.74423e-08 -5.56272e-06 0)
(1.71427e-08 -5.57248e-06 0)
(1.68421e-08 -5.58218e-06 0)
(1.65404e-08 -5.59181e-06 0)
(1.62379e-08 -5.60137e-06 0)
(1.59345e-08 -5.61084e-06 0)
(1.56302e-08 -5.62025e-06 0)
(1.53252e-08 -5.62957e-06 0)
(1.50194e-08 -5.63881e-06 0)
(1.4713e-08 -5.64796e-06 0)
(1.44061e-08 -5.65702e-06 0)
(1.40986e-08 -5.66597e-06 0)
(1.37907e-08 -5.67484e-06 0)
(1.34824e-08 -5.6836e-06 0)
(1.31738e-08 -5.69226e-06 0)
(1.28649e-08 -5.7008e-06 0)
(1.2556e-08 -5.70924e-06 0)
(1.22469e-08 -5.71755e-06 0)
(1.19378e-08 -5.72575e-06 0)
(1.16288e-08 -5.73382e-06 0)
(1.13199e-08 -5.74177e-06 0)
(1.10113e-08 -5.74959e-06 0)
(1.0703e-08 -5.75727e-06 0)
(1.03951e-08 -5.76481e-06 0)
(1.00877e-08 -5.77222e-06 0)
(9.78081e-09 -5.77948e-06 0)
(9.47464e-09 -5.7866e-06 0)
(9.16921e-09 -5.79355e-06 0)
(8.86464e-09 -5.80036e-06 0)
(8.56099e-09 -5.807e-06 0)
(8.25839e-09 -5.81349e-06 0)
(7.95689e-09 -5.8198e-06 0)
(7.65663e-09 -5.82595e-06 0)
(7.35767e-09 -5.83192e-06 0)
(7.06013e-09 -5.83773e-06 0)
(6.76409e-09 -5.84334e-06 0)
(6.46967e-09 -5.84879e-06 0)
(6.17694e-09 -5.85403e-06 0)
(5.88603e-09 -5.8591e-06 0)
(5.597e-09 -5.86396e-06 0)
(5.30999e-09 -5.86865e-06 0)
(5.02507e-09 -5.87311e-06 0)
(4.74237e-09 -5.8774e-06 0)
(4.46196e-09 -5.88146e-06 0)
(4.18396e-09 -5.88533e-06 0)
(3.90845e-09 -5.88898e-06 0)
(3.63555e-09 -5.89243e-06 0)
(3.36535e-09 -5.89564e-06 0)
(3.09795e-09 -5.89866e-06 0)
(2.83344e-09 -5.90144e-06 0)
(2.57193e-09 -5.90402e-06 0)
(2.3135e-09 -5.90635e-06 0)
(2.05826e-09 -5.90847e-06 0)
(1.8063e-09 -5.91035e-06 0)
(1.55771e-09 -5.91202e-06 0)
(1.31258e-09 -5.91343e-06 0)
(1.071e-09 -5.91463e-06 0)
(8.33057e-10 -5.91558e-06 0)
(5.98841e-10 -5.91631e-06 0)
(3.68431e-10 -5.91678e-06 0)
(1.41912e-10 -5.91703e-06 0)
(-8.06378e-11 -5.91702e-06 0)
(-2.9914e-10 -5.91679e-06 0)
(-5.13517e-10 -5.9163e-06 0)
(-7.237e-10 -5.91559e-06 0)
(-9.29612e-10 -5.91461e-06 0)
(-1.13119e-09 -5.91341e-06 0)
(-1.32836e-09 -5.91194e-06 0)
(-1.52108e-09 -5.91026e-06 0)
(-1.70925e-09 -5.90831e-06 0)
(-1.89285e-09 -5.90614e-06 0)
(-2.07179e-09 -5.90371e-06 0)
(-2.24604e-09 -5.90106e-06 0)
(-2.41553e-09 -5.89814e-06 0)
(-2.58024e-09 -5.89501e-06 0)
(-2.74001e-09 -5.89161e-06 0)
(-2.89524e-09 -5.88801e-06 0)
(-3.04407e-09 -5.88413e-06 0)
(-3.19463e-09 -5.88003e-06 0)
(-3.35097e-09 -5.87523e-06 0)
(-3.50706e-09 -5.8697e-06 0)
(-3.65914e-09 -5.86382e-06 0)
(-3.80302e-09 -5.85775e-06 0)
(-3.93838e-09 -5.85143e-06 0)
(-4.06535e-09 -5.84495e-06 0)
(-4.1841e-09 -5.83821e-06 0)
(-4.29489e-09 -5.83134e-06 0)
(-4.39791e-09 -5.82425e-06 0)
(-4.49349e-09 -5.81705e-06 0)
(-4.5818e-09 -5.80965e-06 0)
(-4.66316e-09 -5.80216e-06 0)
(-4.73772e-09 -5.7945e-06 0)
(-4.80579e-09 -5.78677e-06 0)
(-4.8675e-09 -5.77889e-06 0)
(-4.92316e-09 -5.77096e-06 0)
(-4.97289e-09 -5.7629e-06 0)
(-5.01696e-09 -5.75481e-06 0)
(-5.0555e-09 -5.74661e-06 0)
(-5.08876e-09 -5.7384e-06 0)
(-5.11686e-09 -5.73009e-06 0)
(-5.14003e-09 -5.72179e-06 0)
(-5.15837e-09 -5.7134e-06 0)
(-5.17213e-09 -5.70504e-06 0)
(-5.18137e-09 -5.69661e-06 0)
(-5.18633e-09 -5.68822e-06 0)
(-5.18706e-09 -5.67978e-06 0)
(-5.1838e-09 -5.67139e-06 0)
(-5.17658e-09 -5.66296e-06 0)
(-5.16563e-09 -5.65459e-06 0)
(-5.15097e-09 -5.6462e-06 0)
(-5.13282e-09 -5.63788e-06 0)
(-5.11119e-09 -5.62954e-06 0)
(-5.08629e-09 -5.62129e-06 0)
(-5.05814e-09 -5.61304e-06 0)
(-5.02691e-09 -5.60488e-06 0)
(-4.99263e-09 -5.59673e-06 0)
(-4.95546e-09 -5.58868e-06 0)
(-4.91542e-09 -5.58065e-06 0)
(-4.87267e-09 -5.57273e-06 0)
(-4.82722e-09 -5.56484e-06 0)
(-4.77921e-09 -5.55707e-06 0)
(-4.72866e-09 -5.54933e-06 0)
(-4.6757e-09 -5.54173e-06 0)
(-4.62034e-09 -5.53416e-06 0)
(-4.56272e-09 -5.52674e-06 0)
(-4.50283e-09 -5.51936e-06 0)
(-4.4408e-09 -5.51212e-06 0)
(-4.37662e-09 -5.50495e-06 0)
(-4.31042e-09 -5.49792e-06 0)
(-4.2422e-09 -5.49096e-06 0)
(-4.17207e-09 -5.48416e-06 0)
(-4.10001e-09 -5.47743e-06 0)
(-4.02616e-09 -5.47085e-06 0)
(-3.95048e-09 -5.46436e-06 0)
(-3.8731e-09 -5.45803e-06 0)
(-3.794e-09 -5.45179e-06 0)
(-3.71329e-09 -5.44572e-06 0)
(-3.63095e-09 -5.43974e-06 0)
(-3.54709e-09 -5.43394e-06 0)
(-3.4617e-09 -5.42823e-06 0)
(-3.37486e-09 -5.4227e-06 0)
(-3.28658e-09 -5.41727e-06 0)
(-3.19695e-09 -5.41203e-06 0)
(-3.10595e-09 -5.40689e-06 0)
(-3.01368e-09 -5.40194e-06 0)
(-2.92014e-09 -5.39711e-06 0)
(-2.8254e-09 -5.39246e-06 0)
(-2.72947e-09 -5.38793e-06 0)
(-2.63243e-09 -5.38359e-06 0)
(-2.53428e-09 -5.37938e-06 0)
(-2.43509e-09 -5.37536e-06 0)
(-2.33488e-09 -5.37147e-06 0)
(-2.23371e-09 -5.36777e-06 0)
(-2.1316e-09 -5.36421e-06 0)
(-2.02861e-09 -5.36084e-06 0)
(-1.92477e-09 -5.35762e-06 0)
(-1.82012e-09 -5.35458e-06 0)
(-1.7147e-09 -5.3517e-06 0)
(-1.60855e-09 -5.349e-06 0)
(-1.50172e-09 -5.34646e-06 0)
(-1.39424e-09 -5.34411e-06 0)
(-1.28616e-09 -5.34192e-06 0)
(-1.17752e-09 -5.33992e-06 0)
(-1.06836e-09 -5.33807e-06 0)
(-9.58736e-10 -5.33645e-06 0)
(-8.48684e-10 -5.33486e-06 0)
(-7.38277e-10 -5.33394e-06 0)
(-6.27527e-10 -5.33157e-06 0)
(-5.16624e-10 -5.33468e-06 0)
(-4.05292e-10 -5.32005e-06 0)
(-2.94371e-10 -5.36278e-06 0)
(-1.83181e-10 -5.20185e-06 0)
(-6.84427e-11 -5.62889e-06 0)
(-4.93465e-12 -4.91626e-06 0)
)
;
    }
    bottomWall
    {
        type            calculated;
        value           nonuniform List<vector> 
449
(
(-52.6765 -0.955257 0)
(-34.7268 -0.00279541 0)
(-34.3392 -0.000254325 0)
(-32.9765 -0.000363399 0)
(-31.8513 -0.00031494 0)
(-30.8166 -0.000283777 0)
(-29.9011 -0.00024885 0)
(-29.1027 -0.000217027 0)
(-28.4031 -0.00019055 0)
(-27.7845 -0.00016883 0)
(-27.2325 -0.000150844 0)
(-26.7363 -0.000135768 0)
(-26.287 -0.000123135 0)
(-25.8768 -0.000112471 0)
(-25.5001 -0.00010327 0)
(-25.1526 -9.52756e-05 0)
(-24.8304 -8.82928e-05 0)
(-24.5306 -8.21642e-05 0)
(-24.2503 -7.67644e-05 0)
(-23.9873 -7.19495e-05 0)
(-23.7399 -6.763e-05 0)
(-23.5065 -6.3745e-05 0)
(-23.2857 -6.02397e-05 0)
(-23.0762 -5.7059e-05 0)
(-22.8772 -5.41632e-05 0)
(-22.6875 -5.15064e-05 0)
(-22.5067 -4.90722e-05 0)
(-22.3338 -4.68333e-05 0)
(-22.1682 -4.47682e-05 0)
(-22.0095 -4.28533e-05 0)
(-21.8571 -4.10775e-05 0)
(-21.7106 -3.94248e-05 0)
(-21.5696 -3.78871e-05 0)
(-21.4336 -3.64467e-05 0)
(-21.3025 -3.51022e-05 0)
(-21.1758 -3.38383e-05 0)
(-21.0533 -3.26561e-05 0)
(-20.9348 -3.15461e-05 0)
(-20.82 -3.04995e-05 0)
(-20.7087 -2.95131e-05 0)
(-20.6007 -2.8582e-05 0)
(-20.4958 -2.77032e-05 0)
(-20.3938 -2.6868e-05 0)
(-20.2947 -2.60724e-05 0)
(-20.1983 -2.53167e-05 0)
(-20.1044 -2.45903e-05 0)
(-20.0129 -2.38987e-05 0)
(-19.9238 -2.32407e-05 0)
(-19.837 -2.2603e-05 0)
(-19.7523 -2.20026e-05 0)
(-19.6696 -2.14219e-05 0)
(-19.5889 -2.08709e-05 0)
(-19.5101 -2.0345e-05 0)
(-19.4331 -1.98389e-05 0)
(-19.3577 -1.93575e-05 0)
(-19.2841 -1.88944e-05 0)
(-19.2119 -1.84526e-05 0)
(-19.1414 -1.80282e-05 0)
(-19.0722 -1.76213e-05 0)
(-19.0045 -1.72301e-05 0)
(-18.938 -1.68538e-05 0)
(-18.8729 -1.64923e-05 0)
(-18.809 -1.61434e-05 0)
(-18.7463 -1.58082e-05 0)
(-18.6847 -1.54846e-05 0)
(-18.6243 -1.51721e-05 0)
(-18.5649 -1.48714e-05 0)
(-18.5065 -1.45786e-05 0)
(-18.4492 -1.42987e-05 0)
(-18.3928 -1.4024e-05 0)
(-18.3374 -1.37614e-05 0)
(-18.2828 -1.35048e-05 0)
(-18.2292 -1.32568e-05 0)
(-18.1764 -1.30168e-05 0)
(-18.1244 -1.27821e-05 0)
(-18.0733 -1.25569e-05 0)
(-18.0229 -1.23359e-05 0)
(-17.9733 -1.21222e-05 0)
(-17.9244 -1.19154e-05 0)
(-17.8762 -1.17123e-05 0)
(-17.8288 -1.15169e-05 0)
(-17.782 -1.13256e-05 0)
(-17.7359 -1.11391e-05 0)
(-17.6905 -1.09591e-05 0)
(-17.6456 -1.07819e-05 0)
(-17.6014 -1.06103e-05 0)
(-17.5578 -1.04439e-05 0)
(-17.5147 -1.028e-05 0)
(-17.4723 -1.01213e-05 0)
(-17.4304 -9.96692e-06 0)
(-17.389 -9.81501e-06 0)
(-17.3482 -9.66799e-06 0)
(-17.3078 -9.52471e-06 0)
(-17.268 -9.38368e-06 0)
(-17.2287 -9.24701e-06 0)
(-17.1898 -9.11375e-06 0)
(-17.1514 -8.9825e-06 0)
(-17.1135 -8.85509e-06 0)
(-17.076 -8.73101e-06 0)
(-17.039 -8.60861e-06 0)
(-17.0024 -8.48959e-06 0)
(-16.9662 -8.37386e-06 0)
(-16.9304 -8.25956e-06 0)
(-16.895 -8.14811e-06 0)
(-16.86 -8.03988e-06 0)
(-16.8254 -7.93311e-06 0)
(-16.7912 -7.82854e-06 0)
(-16.7573 -7.72693e-06 0)
(-16.7238 -7.62724e-06 0)
(-16.6907 -7.52898e-06 0)
(-16.6579 -7.4333e-06 0)
(-16.6254 -7.33996e-06 0)
(-16.5933 -7.24763e-06 0)
(-16.5615 -7.15746e-06 0)
(-16.53 -7.06955e-06 0)
(-16.4988 -6.98309e-06 0)
(-16.468 -6.8979e-06 0)
(-16.4374 -6.81484e-06 0)
(-16.4071 -6.73364e-06 0)
(-16.3772 -6.6534e-06 0)
(-16.3475 -6.57475e-06 0)
(-16.3181 -6.49796e-06 0)
(-16.2889 -6.42256e-06 0)
(-16.2601 -6.3481e-06 0)
(-16.2315 -6.27526e-06 0)
(-16.2031 -6.204e-06 0)
(-16.175 -6.13385e-06 0)
(-16.1472 -6.06472e-06 0)
(-16.1196 -5.99705e-06 0)
(-16.0923 -5.93075e-06 0)
(-16.0652 -5.86538e-06 0)
(-16.0383 -5.80103e-06 0)
(-16.0117 -5.73798e-06 0)
(-15.9853 -5.67615e-06 0)
(-15.9591 -5.61514e-06 0)
(-15.9331 -5.5551e-06 0)
(-15.9073 -5.49621e-06 0)
(-15.8818 -5.43843e-06 0)
(-15.8565 -5.3814e-06 0)
(-15.8313 -5.3253e-06 0)
(-15.8064 -5.27016e-06 0)
(-15.7817 -5.2161e-06 0)
(-15.7571 -5.1627e-06 0)
(-15.7328 -5.11016e-06 0)
(-15.7087 -5.05846e-06 0)
(-15.6847 -5.00774e-06 0)
(-15.6609 -4.95769e-06 0)
(-15.6373 -4.90837e-06 0)
(-15.6139 -4.85984e-06 0)
(-15.5907 -4.81213e-06 0)
(-15.5676 -4.76517e-06 0)
(-15.5447 -4.71878e-06 0)
(-15.522 -4.67316e-06 0)
(-15.4994 -4.62823e-06 0)
(-15.477 -4.58406e-06 0)
(-15.4548 -4.54043e-06 0)
(-15.4327 -4.49744e-06 0)
(-15.4108 -4.45511e-06 0)
(-15.389 -4.41343e-06 0)
(-15.3674 -4.37236e-06 0)
(-15.3459 -4.33179e-06 0)
(-15.3246 -4.29186e-06 0)
(-15.3034 -4.25251e-06 0)
(-15.2824 -4.21372e-06 0)
(-15.2615 -4.17549e-06 0)
(-15.2408 -4.13768e-06 0)
(-15.2202 -4.10056e-06 0)
(-15.1997 -4.06379e-06 0)
(-15.1794 -4.02781e-06 0)
(-15.1592 -3.99192e-06 0)
(-15.1391 -3.95688e-06 0)
(-15.1192 -3.92207e-06 0)
(-15.0994 -3.88547e-06 0)
(-15.0808 -3.85533e-06 0)
(-15.0633 -3.8286e-06 0)
(-15.0458 -3.79765e-06 0)
(-15.0282 -3.76738e-06 0)
(-15.0106 -3.73768e-06 0)
(-14.9929 -3.7079e-06 0)
(-14.9752 -3.67848e-06 0)
(-14.9574 -3.64907e-06 0)
(-14.9396 -3.6199e-06 0)
(-14.9217 -3.59081e-06 0)
(-14.9038 -3.56184e-06 0)
(-14.8858 -3.533e-06 0)
(-14.8678 -3.50425e-06 0)
(-14.8497 -3.47564e-06 0)
(-14.8316 -3.44717e-06 0)
(-14.8134 -3.41877e-06 0)
(-14.7952 -3.39054e-06 0)
(-14.7769 -3.36237e-06 0)
(-14.7586 -3.33438e-06 0)
(-14.7403 -3.30648e-06 0)
(-14.7219 -3.27871e-06 0)
(-14.7035 -3.25108e-06 0)
(-14.685 -3.22354e-06 0)
(-14.6665 -3.19615e-06 0)
(-14.6479 -3.16889e-06 0)
(-14.6293 -3.14175e-06 0)
(-14.6107 -3.11476e-06 0)
(-14.592 -3.08785e-06 0)
(-14.5733 -3.06112e-06 0)
(-14.5545 -3.03449e-06 0)
(-14.5357 -3.00801e-06 0)
(-14.5169 -2.98165e-06 0)
(-14.498 -2.95544e-06 0)
(-14.4791 -2.92935e-06 0)
(-14.4602 -2.90341e-06 0)
(-14.4412 -2.87758e-06 0)
(-14.4222 -2.85192e-06 0)
(-14.4031 -2.82637e-06 0)
(-14.384 -2.80099e-06 0)
(-14.3649 -2.7757e-06 0)
(-14.3457 -2.75061e-06 0)
(-14.3265 -2.72561e-06 0)
(-14.3073 -2.70077e-06 0)
(-14.2881 -2.67606e-06 0)
(-14.2688 -2.6515e-06 0)
(-14.2495 -2.62709e-06 0)
(-14.2301 -2.6028e-06 0)
(-14.2108 -2.57867e-06 0)
(-14.1914 -2.55467e-06 0)
(-14.1719 -2.53084e-06 0)
(-14.1525 -2.50713e-06 0)
(-14.133 -2.48358e-06 0)
(-14.1135 -2.46014e-06 0)
(-14.094 -2.43691e-06 0)
(-14.0744 -2.41377e-06 0)
(-14.0548 -2.39081e-06 0)
(-14.0352 -2.36795e-06 0)
(-14.0156 -2.34529e-06 0)
(-13.9959 -2.32273e-06 0)
(-13.9762 -2.30036e-06 0)
(-13.9565 -2.27809e-06 0)
(-13.9368 -2.25601e-06 0)
(-13.9171 -2.23405e-06 0)
(-13.8973 -2.21227e-06 0)
(-13.8775 -2.19058e-06 0)
(-13.8577 -2.1691e-06 0)
(-13.8379 -2.14772e-06 0)
(-13.8181 -2.12655e-06 0)
(-13.7982 -2.10544e-06 0)
(-13.7784 -2.08455e-06 0)
(-13.7585 -2.06375e-06 0)
(-13.7386 -2.04317e-06 0)
(-13.7187 -2.02266e-06 0)
(-13.6987 -2.00236e-06 0)
(-13.6788 -1.98215e-06 0)
(-13.6588 -1.96217e-06 0)
(-13.6389 -1.94224e-06 0)
(-13.6189 -1.92254e-06 0)
(-13.5989 -1.90291e-06 0)
(-13.5789 -1.88352e-06 0)
(-13.5589 -1.86418e-06 0)
(-13.5388 -1.84506e-06 0)
(-13.5188 -1.82603e-06 0)
(-13.4988 -1.80721e-06 0)
(-13.4787 -1.78846e-06 0)
(-13.4587 -1.76991e-06 0)
(-13.4386 -1.75147e-06 0)
(-13.4185 -1.73323e-06 0)
(-13.3984 -1.71507e-06 0)
(-13.3784 -1.69709e-06 0)
(-13.3583 -1.67924e-06 0)
(-13.3382 -1.66156e-06 0)
(-13.3181 -1.64398e-06 0)
(-13.298 -1.62658e-06 0)
(-13.2779 -1.6093e-06 0)
(-13.2578 -1.59219e-06 0)
(-13.2376 -1.57517e-06 0)
(-13.2175 -1.55833e-06 0)
(-13.1974 -1.54163e-06 0)
(-13.1773 -1.52506e-06 0)
(-13.1572 -1.50863e-06 0)
(-13.1371 -1.49233e-06 0)
(-13.117 -1.4762e-06 0)
(-13.0969 -1.46017e-06 0)
(-13.0768 -1.4443e-06 0)
(-13.0567 -1.42855e-06 0)
(-13.0366 -1.41297e-06 0)
(-13.0165 -1.39748e-06 0)
(-12.9964 -1.38216e-06 0)
(-12.9763 -1.36695e-06 0)
(-12.9562 -1.35191e-06 0)
(-12.9361 -1.33696e-06 0)
(-12.9161 -1.32218e-06 0)
(-12.896 -1.3075e-06 0)
(-12.8759 -1.293e-06 0)
(-12.8559 -1.27856e-06 0)
(-12.8359 -1.26432e-06 0)
(-12.8158 -1.25016e-06 0)
(-12.7958 -1.23616e-06 0)
(-12.7758 -1.22225e-06 0)
(-12.7558 -1.20853e-06 0)
(-12.7358 -1.19487e-06 0)
(-12.7158 -1.18139e-06 0)
(-12.6959 -1.16799e-06 0)
(-12.6759 -1.15477e-06 0)
(-12.656 -1.14162e-06 0)
(-12.636 -1.12863e-06 0)
(-12.6161 -1.11573e-06 0)
(-12.5962 -1.103e-06 0)
(-12.5763 -1.09033e-06 0)
(-12.5564 -1.07784e-06 0)
(-12.5366 -1.06542e-06 0)
(-12.5167 -1.05317e-06 0)
(-12.4969 -1.04099e-06 0)
(-12.4771 -1.02897e-06 0)
(-12.4573 -1.01702e-06 0)
(-12.4375 -1.00523e-06 0)
(-12.4177 -9.93527e-07 0)
(-12.398 -9.81971e-07 0)
(-12.3782 -9.7049e-07 0)
(-12.3585 -9.59151e-07 0)
(-12.3388 -9.47909e-07 0)
(-12.3192 -9.36796e-07 0)
(-12.2995 -9.25772e-07 0)
(-12.2799 -9.1488e-07 0)
(-12.2603 -9.04079e-07 0)
(-12.2407 -8.93401e-07 0)
(-12.2211 -8.82821e-07 0)
(-12.2016 -8.72358e-07 0)
(-12.182 -8.6199e-07 0)
(-12.1625 -8.51738e-07 0)
(-12.1431 -8.4159e-07 0)
(-12.1236 -8.31539e-07 0)
(-12.1042 -8.21594e-07 0)
(-12.0848 -8.11754e-07 0)
(-12.0654 -8.02022e-07 0)
(-12.046 -7.92378e-07 0)
(-12.0267 -7.82846e-07 0)
(-12.0074 -7.73407e-07 0)
(-11.9881 -7.64077e-07 0)
(-11.9688 -7.54825e-07 0)
(-11.9496 -7.45695e-07 0)
(-11.9304 -7.36638e-07 0)
(-11.9112 -7.27702e-07 0)
(-11.8921 -7.18837e-07 0)
(-11.873 -7.10092e-07 0)
(-11.8539 -7.01408e-07 0)
(-11.8348 -6.92848e-07 0)
(-11.8158 -6.84354e-07 0)
(-11.7967 -6.75974e-07 0)
(-11.7778 -6.6766e-07 0)
(-11.7588 -6.59466e-07 0)
(-11.7399 -6.51332e-07 0)
(-11.721 -6.43308e-07 0)
(-11.7021 -6.35348e-07 0)
(-11.6833 -6.27509e-07 0)
(-11.6645 -6.19677e-07 0)
(-11.6458 -6.12046e-07 0)
(-11.627 -6.04296e-07 0)
(-11.6083 -5.96877e-07 0)
(-11.5896 -5.89628e-07 0)
(-11.5689 -5.8091e-07 0)
(-11.5464 -5.71673e-07 0)
(-11.5242 -5.63397e-07 0)
(-11.5022 -5.55281e-07 0)
(-11.4807 -5.47231e-07 0)
(-11.4594 -5.39398e-07 0)
(-11.4385 -5.31723e-07 0)
(-11.4178 -5.24235e-07 0)
(-11.3974 -5.16932e-07 0)
(-11.3773 -5.09777e-07 0)
(-11.3575 -5.02814e-07 0)
(-11.3379 -4.96004e-07 0)
(-11.3187 -4.89357e-07 0)
(-11.2996 -4.82853e-07 0)
(-11.2809 -4.76515e-07 0)
(-11.2623 -4.70301e-07 0)
(-11.2441 -4.64245e-07 0)
(-11.226 -4.58306e-07 0)
(-11.2082 -4.52519e-07 0)
(-11.1906 -4.46837e-07 0)
(-11.1732 -4.41294e-07 0)
(-11.156 -4.35856e-07 0)
(-11.1391 -4.30551e-07 0)
(-11.1223 -4.2534e-07 0)
(-11.1058 -4.20249e-07 0)
(-11.0894 -4.15261e-07 0)
(-11.0733 -4.10374e-07 0)
(-11.0573 -4.05584e-07 0)
(-11.0415 -4.00901e-07 0)
(-11.0259 -3.96301e-07 0)
(-11.0105 -3.91799e-07 0)
(-10.9952 -3.87382e-07 0)
(-10.9802 -3.83062e-07 0)
(-10.9652 -3.78816e-07 0)
(-10.9505 -3.74656e-07 0)
(-10.9359 -3.70572e-07 0)
(-10.9215 -3.6658e-07 0)
(-10.9072 -3.62649e-07 0)
(-10.8931 -3.58798e-07 0)
(-10.8791 -3.55017e-07 0)
(-10.8653 -3.51315e-07 0)
(-10.8516 -3.47674e-07 0)
(-10.8381 -3.44097e-07 0)
(-10.8247 -3.40589e-07 0)
(-10.8115 -3.37153e-07 0)
(-10.7983 -3.33765e-07 0)
(-10.7853 -3.30444e-07 0)
(-10.7724 -3.2718e-07 0)
(-10.7597 -3.23981e-07 0)
(-10.7471 -3.20829e-07 0)
(-10.7346 -3.1774e-07 0)
(-10.7222 -3.14697e-07 0)
(-10.71 -3.1171e-07 0)
(-10.6978 -3.0878e-07 0)
(-10.6858 -3.05897e-07 0)
(-10.6739 -3.03058e-07 0)
(-10.6621 -3.00271e-07 0)
(-10.6504 -2.97533e-07 0)
(-10.6388 -2.94851e-07 0)
(-10.6273 -2.92191e-07 0)
(-10.6159 -2.896e-07 0)
(-10.6046 -2.87027e-07 0)
(-10.5934 -2.84541e-07 0)
(-10.5823 -2.82034e-07 0)
(-10.5714 -2.79653e-07 0)
(-10.5604 -2.77192e-07 0)
(-10.5497 -2.7493e-07 0)
(-10.5389 -2.72522e-07 0)
(-10.5283 -2.7039e-07 0)
(-10.5178 -2.67986e-07 0)
(-10.5074 -2.66021e-07 0)
(-10.4969 -2.63608e-07 0)
(-10.4867 -2.61822e-07 0)
(-10.4764 -2.59371e-07 0)
(-10.4664 -2.57798e-07 0)
(-10.4563 -2.55273e-07 0)
(-10.4464 -2.53953e-07 0)
(-10.4364 -2.51345e-07 0)
(-10.4268 -2.50285e-07 0)
(-10.4168 -2.47605e-07 0)
(-10.4074 -2.46784e-07 0)
(-10.3975 -2.44132e-07 0)
(-10.3883 -2.43388e-07 0)
(-10.3784 -2.41123e-07 0)
(-10.3694 -2.39878e-07 0)
(-10.3597 -2.39093e-07 0)
(-10.3507 -2.35538e-07 0)
(-10.3412 -2.39565e-07 0)
(-10.3319 -2.27867e-07 0)
(-10.3234 -2.47138e-07 0)
(-10.3125 -2.10013e-07 0)
(-10.3071 -2.66935e-07 0)
(-10.2914 -1.74145e-07 0)
(-10.2937 -2.41947e-07 0)
(-10.2721 -2.84523e-07 0)
)
;
    }
    symmetry
    {
        type            symmetryPlane;
    }
    frontAndBack
    {
        type            empty;
    }
}


// ************************************************************************* //
