/*--------------------------------*- C++ -*----------------------------------*\
| =========                 |                                                 |
| \\      /  F ield         | OpenFOAM: The Open Source CFD Toolbox           |
|  \\    /   O peration     | Version:  v2012                                 |
|   \\  /    A nd           | Website:  www.openfoam.com                      |
|    \\/     M anipulation  |                                                 |
\*---------------------------------------------------------------------------*/
FoamFile
{
    version     2.0;
    format      ascii;
    class       volScalarField;
    location    "57";
    object      yPlus;
}
// * * * * * * * * * * * * * * * * * * * * * * * * * * * * * * * * * * * * * //

dimensions      [0 0 0 0 0 0 0];


internalField   uniform 0;

boundaryField
{
    inlet
    {
        type            calculated;
        value           uniform 0;
    }
    outlet
    {
        type            calculated;
        value           uniform 0;
    }
    topWall
    {
        type            calculated;
        value           nonuniform List<scalar> 
545
(
0.153582
0.264826
0.339744
0.399362
0.449832
0.493991
0.533433
0.569161
0.601859
0.632016
0.660002
0.686099
0.710535
0.733492
0.755122
0.775552
0.794889
0.813228
0.830647
0.847218
0.863003
0.878057
0.892428
0.906163
0.9193
0.931877
0.943926
0.955477
0.966558
0.977196
0.987413
0.997231
1.00667
1.01575
1.02449
1.0329
1.041
1.04881
1.05634
1.06359
1.07059
1.07734
1.08385
1.09014
1.09621
1.10208
1.10774
1.11322
1.11851
1.12362
1.12857
1.13335
1.13798
1.14245
1.14679
1.15098
1.15504
1.15897
1.16277
1.16646
1.17003
1.17349
1.17684
1.18008
1.18323
1.18628
1.18924
1.1921
1.19488
1.19758
1.20019
1.20273
1.20515
1.2075
1.20983
1.21214
1.21443
1.21671
1.21896
1.2212
1.22342
1.22563
1.22781
1.22998
1.23213
1.23427
1.23638
1.23849
1.24057
1.24264
1.24469
1.24673
1.24875
1.25076
1.25275
1.25472
1.2565
1.25809
1.25968
1.26127
1.26286
1.26445
1.26604
1.26763
1.26922
1.27081
1.2724
1.27399
1.27557
1.27716
1.27875
1.28034
1.28192
1.28351
1.28509
1.28668
1.28826
1.28985
1.29143
1.29301
1.29459
1.29618
1.29776
1.29934
1.30092
1.3025
1.30408
1.30566
1.30723
1.30881
1.31039
1.31196
1.31354
1.31511
1.31669
1.31826
1.31984
1.32141
1.32298
1.32455
1.32612
1.32769
1.32926
1.33083
1.33239
1.33396
1.33553
1.33709
1.33865
1.34022
1.34178
1.34334
1.3449
1.34646
1.34802
1.34958
1.35113
1.35269
1.35425
1.3558
1.35735
1.3589
1.36046
1.36201
1.36355
1.3651
1.36665
1.3682
1.36974
1.37128
1.37283
1.37437
1.37591
1.37745
1.37898
1.38052
1.38206
1.38359
1.38512
1.38666
1.38819
1.38972
1.39124
1.39277
1.3943
1.39582
1.39734
1.39886
1.40038
1.4019
1.40342
1.40494
1.40645
1.40796
1.40947
1.41098
1.41249
1.414
1.4155
1.41701
1.41851
1.42001
1.42151
1.42301
1.4245
1.426
1.42749
1.42898
1.43047
1.43196
1.43344
1.43493
1.43641
1.43789
1.43937
1.44084
1.44232
1.44379
1.44526
1.44673
1.4482
1.44966
1.45113
1.45259
1.45405
1.4555
1.45696
1.45841
1.45986
1.46131
1.46276
1.46421
1.46565
1.46709
1.46853
1.46996
1.4714
1.47283
1.47426
1.47569
1.47711
1.47854
1.47996
1.48138
1.48279
1.48421
1.48562
1.48703
1.48843
1.48984
1.49124
1.49264
1.49403
1.49543
1.49682
1.49821
1.49959
1.50098
1.50236
1.50374
1.50511
1.50649
1.50786
1.50922
1.51059
1.51195
1.51331
1.51467
1.51602
1.5173
1.5185
1.51971
1.52093
1.52216
1.5234
1.52464
1.52589
1.52715
1.52842
1.5297
1.53098
1.53228
1.53358
1.53489
1.5362
1.53753
1.53886
1.5402
1.54155
1.54291
1.54427
1.54564
1.54702
1.54841
1.5498
1.55121
1.55261
1.55403
1.55546
1.55689
1.55832
1.55977
1.56122
1.56268
1.56415
1.56562
1.5671
1.56859
1.57008
1.57158
1.57308
1.57459
1.57611
1.57763
1.57916
1.58069
1.58223
1.58377
1.58532
1.58688
1.58844
1.59
1.59157
1.59314
1.59472
1.5963
1.59788
1.59947
1.60106
1.60266
1.60425
1.60585
1.60746
1.60906
1.61067
1.61228
1.61389
1.6155
1.61712
1.61873
1.62035
1.62196
1.62358
1.62519
1.62681
1.62842
1.63003
1.63165
1.63326
1.63487
1.63647
1.63808
1.63968
1.64127
1.64287
1.64446
1.64604
1.64762
1.6492
1.65077
1.65234
1.6539
1.65545
1.65699
1.65853
1.66006
1.66158
1.6631
1.6646
1.6661
1.66758
1.66906
1.67052
1.67198
1.67342
1.67485
1.67627
1.67768
1.67907
1.68044
1.68181
1.68316
1.68449
1.68581
1.68711
1.6884
1.68966
1.69091
1.69215
1.69336
1.69455
1.69573
1.69688
1.69802
1.69913
1.70023
1.7013
1.70234
1.70337
1.70437
1.70535
1.7063
1.70723
1.70813
1.70901
1.70986
1.71068
1.71148
1.71225
1.71299
1.7137
1.71439
1.71504
1.71567
1.71626
1.71683
1.71736
1.71786
1.71833
1.71878
1.71918
1.71956
1.7199
1.72021
1.72048
1.72073
1.72093
1.72111
1.72125
1.72136
1.72143
1.72146
1.72146
1.72143
1.72136
1.72126
1.72112
1.72094
1.72073
1.72049
1.72021
1.71989
1.71954
1.71915
1.71873
1.71827
1.71778
1.71726
1.71669
1.7161
1.71539
1.71458
1.71373
1.71284
1.71192
1.71097
1.70999
1.70898
1.70794
1.70689
1.7058
1.7047
1.70358
1.70244
1.70128
1.70012
1.69893
1.69774
1.69653
1.69532
1.69409
1.69286
1.69162
1.69039
1.68914
1.68789
1.68664
1.68539
1.68414
1.6829
1.68165
1.68041
1.67917
1.67794
1.67671
1.67549
1.67427
1.67306
1.67186
1.67068
1.66949
1.66833
1.66717
1.66602
1.66489
1.66377
1.66266
1.66157
1.66049
1.65943
1.65838
1.65735
1.65633
1.65534
1.65436
1.6534
1.65245
1.65153
1.65063
1.64975
1.64888
1.64804
1.64721
1.64642
1.64564
1.64488
1.64415
1.64344
1.64275
1.64209
1.64145
1.64083
1.64024
1.63967
1.63913
1.63861
1.63812
1.63766
1.63722
1.6368
1.63642
1.63606
1.63572
1.63541
1.63513
1.63488
1.63465
1.63446
1.63428
1.63414
1.63402
1.63393
1.63387
1.63385
1.63382
)
;
    }
    bottomWall
    {
        type            calculated;
        value           nonuniform List<scalar> 
449
(
0.00273407
0.0047991
0.00537333
0.00532601
0.00525503
0.0051593
0.00506218
0.00497124
0.00488773
0.0048114
0.00474155
0.0046775
0.00461855
0.00456397
0.00451324
0.00446597
0.00442174
0.00438026
0.00434118
0.00430428
0.00426935
0.00423622
0.00420471
0.00417469
0.00414604
0.00411864
0.00409239
0.00406722
0.00404304
0.00401977
0.00399738
0.00397578
0.00395493
0.00393479
0.00391531
0.00389644
0.00387817
0.00386044
0.00384324
0.00382652
0.00381027
0.00379446
0.00377907
0.00376407
0.00374946
0.00373521
0.00372132
0.00370776
0.00369453
0.0036816
0.00366897
0.00365663
0.00364455
0.00363274
0.00362117
0.00360985
0.00359874
0.00358787
0.0035772
0.00356674
0.00355646
0.00354638
0.00353648
0.00352676
0.00351719
0.0035078
0.00349856
0.00348948
0.00348054
0.00347175
0.0034631
0.00345457
0.00344619
0.00343792
0.00342979
0.00342177
0.00341387
0.00340608
0.0033984
0.00339083
0.00338337
0.003376
0.00336874
0.00336157
0.0033545
0.00334752
0.00334063
0.00333383
0.00332711
0.00332048
0.00331393
0.00330746
0.00330106
0.00329475
0.0032885
0.00328233
0.00327623
0.0032702
0.00326424
0.00325835
0.00325252
0.00324675
0.00324105
0.0032354
0.00322982
0.00322429
0.00321883
0.00321341
0.00320806
0.00320275
0.0031975
0.00319231
0.00318716
0.00318206
0.00317701
0.00317201
0.00316706
0.00316215
0.00315729
0.00315247
0.0031477
0.00314297
0.00313828
0.00313363
0.00312903
0.00312446
0.00311993
0.00311544
0.00311099
0.00310658
0.0031022
0.00309786
0.00309356
0.00308929
0.00308505
0.00308085
0.00307668
0.00307255
0.00306845
0.00306437
0.00306034
0.00305633
0.00305235
0.0030484
0.00304448
0.00304059
0.00303673
0.00303289
0.00302909
0.00302531
0.00302156
0.00301783
0.00301413
0.00301046
0.00300681
0.00300319
0.00299959
0.00299602
0.00299247
0.00298894
0.00298544
0.00298196
0.0029785
0.00297507
0.00297165
0.00296826
0.0029649
0.00296155
0.00295822
0.00295492
0.00295163
0.00294837
0.00294512
0.00294208
0.00293922
0.00293634
0.00293346
0.00293057
0.00292767
0.00292476
0.00292184
0.00291892
0.00291598
0.00291304
0.00291008
0.00290712
0.00290415
0.00290117
0.00289818
0.00289519
0.00289218
0.00288917
0.00288615
0.00288312
0.00288008
0.00287704
0.00287399
0.00287093
0.00286786
0.00286478
0.0028617
0.00285861
0.00285551
0.0028524
0.00284929
0.00284617
0.00284305
0.00283991
0.00283677
0.00283362
0.00283047
0.00282731
0.00282414
0.00282097
0.00281779
0.0028146
0.00281141
0.00280821
0.00280501
0.0028018
0.00279858
0.00279536
0.00279213
0.0027889
0.00278566
0.00278242
0.00277917
0.00277591
0.00277265
0.00276939
0.00276612
0.00276284
0.00275956
0.00275628
0.00275299
0.0027497
0.0027464
0.0027431
0.00273979
0.00273648
0.00273317
0.00272985
0.00272653
0.0027232
0.00271988
0.00271654
0.00271321
0.00270987
0.00270652
0.00270318
0.00269983
0.00269648
0.00269312
0.00268976
0.0026864
0.00268304
0.00267967
0.0026763
0.00267294
0.00266956
0.00266619
0.00266281
0.00265943
0.00265605
0.00265266
0.00264928
0.00264589
0.0026425
0.00263911
0.00263572
0.00263233
0.00262893
0.00262554
0.00262214
0.00261875
0.00261535
0.00261195
0.00260855
0.00260515
0.00260174
0.00259835
0.00259494
0.00259154
0.00258814
0.00258474
0.00258133
0.00257793
0.00257452
0.00257112
0.00256772
0.00256432
0.00256092
0.00255752
0.00255411
0.00255072
0.00254731
0.00254392
0.00254052
0.00253712
0.00253373
0.00253033
0.00252694
0.00252355
0.00252016
0.00251677
0.00251338
0.00250999
0.00250661
0.00250322
0.00249984
0.00249646
0.00249309
0.00248971
0.00248634
0.00248297
0.0024796
0.00247623
0.00247287
0.0024695
0.00246614
0.00246279
0.00245943
0.00245608
0.00245273
0.00244938
0.00244604
0.0024427
0.00243936
0.00243603
0.0024327
0.00242937
0.00242604
0.00242272
0.0024194
0.00241609
0.00241278
0.00240947
0.00240617
0.00240287
0.00239957
0.00239628
0.00239299
0.0023897
0.00238642
0.00238314
0.00237987
0.0023766
0.00237333
0.00237008
0.00236682
0.00236357
0.00236032
0.00235708
0.00235384
0.00235024
0.00234632
0.00234247
0.00233866
0.00233491
0.00233121
0.00232757
0.00232397
0.00232043
0.00231693
0.00231348
0.00231007
0.00230671
0.00230339
0.00230012
0.00229688
0.0022937
0.00229054
0.00228743
0.00228435
0.00228132
0.00227832
0.00227535
0.00227242
0.00226953
0.00226667
0.00226384
0.00226104
0.00225828
0.00225554
0.00225284
0.00225017
0.00224753
0.00224491
0.00224233
0.00223976
0.00223724
0.00223473
0.00223225
0.00222979
0.00222737
0.00222496
0.00222259
0.00222023
0.0022179
0.00221559
0.0022133
0.00221103
0.0022088
0.00220657
0.00220437
0.00220219
0.00220004
0.00219789
0.00219578
0.00219367
0.00219159
0.00218953
0.00218749
0.00218546
0.00218345
0.00218146
0.00217949
0.00217752
0.00217559
0.00217366
0.00217176
0.00216986
0.00216799
0.00216612
0.00216428
0.00216243
0.00216063
0.00215881
0.00215704
0.00215524
0.00215351
0.00215172
0.00215003
0.00214825
0.0021466
0.00214483
0.00214322
0.00214145
0.00213988
0.00213812
0.00213658
0.00213484
0.00213328
0.00213164
0.00212993
0.00212862
0.00212638
0.00212603
0.00212281
)
;
    }
    symmetry
    {
        type            symmetryPlane;
    }
    frontAndBack
    {
        type            empty;
    }
}


// ************************************************************************* //
