/*--------------------------------*- C++ -*----------------------------------*\
| =========                 |                                                 |
| \\      /  F ield         | OpenFOAM: The Open Source CFD Toolbox           |
|  \\    /   O peration     | Version:  v2012                                 |
|   \\  /    A nd           | Website:  www.openfoam.com                      |
|    \\/     M anipulation  |                                                 |
\*---------------------------------------------------------------------------*/
FoamFile
{
    version     2.0;
    format      ascii;
    class       volScalarField;
    location    "48";
    object      nut;
}
// * * * * * * * * * * * * * * * * * * * * * * * * * * * * * * * * * * * * * //

dimensions      [0 2 -1 0 0 0 0];


internalField   nonuniform List<scalar> 
209825
(
1.24352e-07
1.2367e-07
1.21035e-07
1.16128e-07
1.09818e-07
1.03118e-07
9.66424e-08
9.07159e-08
8.54041e-08
8.07224e-08
7.65893e-08
7.29686e-08
6.97624e-08
6.69456e-08
6.44312e-08
6.22102e-08
6.02078e-08
5.84301e-08
5.68112e-08
5.53686e-08
5.40413e-08
5.28552e-08
5.17534e-08
5.07669e-08
4.98412e-08
4.90118e-08
4.82257e-08
4.75232e-08
4.68491e-08
4.62482e-08
4.56662e-08
4.51497e-08
4.46428e-08
4.41952e-08
4.37509e-08
4.33617e-08
4.297e-08
4.26299e-08
4.22832e-08
4.19851e-08
4.16763e-08
4.14139e-08
4.11372e-08
4.09047e-08
4.06567e-08
4.04513e-08
4.02272e-08
4.00445e-08
3.98424e-08
3.96805e-08
3.94954e-08
3.93523e-08
3.91845e-08
3.90577e-08
3.89038e-08
3.87884e-08
3.86513e-08
3.85482e-08
3.84209e-08
3.83322e-08
3.82118e-08
3.81317e-08
3.8022e-08
3.79496e-08
3.78485e-08
3.77835e-08
3.76913e-08
3.76268e-08
3.75445e-08
3.74863e-08
3.7412e-08
3.7357e-08
3.72875e-08
3.72358e-08
3.71703e-08
3.71174e-08
3.70538e-08
3.70014e-08
3.69388e-08
3.68882e-08
3.68277e-08
3.67787e-08
3.67204e-08
3.66723e-08
3.66165e-08
3.65685e-08
3.65159e-08
3.64672e-08
3.64178e-08
3.63705e-08
3.63183e-08
3.62628e-08
3.62115e-08
3.65451e-08
4.124e-06
2.84059e-08
1.24352e-07
1.2367e-07
1.21035e-07
1.16129e-07
1.09819e-07
1.0312e-07
9.66447e-08
9.07184e-08
8.54066e-08
8.07248e-08
7.65916e-08
7.29708e-08
6.97644e-08
6.69476e-08
6.4433e-08
6.22119e-08
6.02093e-08
5.84316e-08
5.68126e-08
5.53699e-08
5.40425e-08
5.28563e-08
5.17544e-08
5.07678e-08
4.9842e-08
4.90126e-08
4.82265e-08
4.75238e-08
4.68497e-08
4.62488e-08
4.56668e-08
4.51502e-08
4.46432e-08
4.41956e-08
4.37513e-08
4.3362e-08
4.29703e-08
4.26302e-08
4.22834e-08
4.19853e-08
4.16765e-08
4.14141e-08
4.11373e-08
4.09049e-08
4.06568e-08
4.04515e-08
4.02273e-08
4.00446e-08
3.98425e-08
3.96805e-08
3.94954e-08
3.93523e-08
3.91845e-08
3.90577e-08
3.89037e-08
3.87884e-08
3.86513e-08
3.85481e-08
3.84208e-08
3.83321e-08
3.82117e-08
3.81316e-08
3.80219e-08
3.79494e-08
3.78484e-08
3.77834e-08
3.76911e-08
3.76267e-08
3.75444e-08
3.74862e-08
3.74118e-08
3.73568e-08
3.72874e-08
3.72356e-08
3.71701e-08
3.71172e-08
3.70536e-08
3.70012e-08
3.69386e-08
3.6888e-08
3.68274e-08
3.67785e-08
3.67201e-08
3.66721e-08
3.66162e-08
3.65682e-08
3.65156e-08
3.6467e-08
3.64175e-08
3.63702e-08
3.6318e-08
3.62625e-08
3.62112e-08
3.65451e-08
4.12421e-06
2.86328e-08
1.24352e-07
1.2367e-07
1.21037e-07
1.16134e-07
1.09826e-07
1.03129e-07
9.66544e-08
9.07283e-08
8.54164e-08
8.07343e-08
7.66007e-08
7.29794e-08
6.97724e-08
6.6955e-08
6.44399e-08
6.22183e-08
6.02153e-08
5.84371e-08
5.68177e-08
5.53746e-08
5.40469e-08
5.28603e-08
5.17582e-08
5.07713e-08
4.98452e-08
4.90155e-08
4.82292e-08
4.75264e-08
4.6852e-08
4.62509e-08
4.56688e-08
4.5152e-08
4.46449e-08
4.41971e-08
4.37527e-08
4.33633e-08
4.29714e-08
4.26313e-08
4.22844e-08
4.19862e-08
4.16772e-08
4.14148e-08
4.11379e-08
4.09054e-08
4.06572e-08
4.04518e-08
4.02276e-08
4.00448e-08
3.98426e-08
3.96806e-08
3.94954e-08
3.93522e-08
3.91844e-08
3.90575e-08
3.89035e-08
3.87881e-08
3.8651e-08
3.85478e-08
3.84204e-08
3.83317e-08
3.82112e-08
3.81311e-08
3.80213e-08
3.79489e-08
3.78478e-08
3.77827e-08
3.76905e-08
3.7626e-08
3.75437e-08
3.74854e-08
3.74111e-08
3.73561e-08
3.72866e-08
3.72349e-08
3.71693e-08
3.71163e-08
3.70527e-08
3.70003e-08
3.69377e-08
3.68871e-08
3.68265e-08
3.67775e-08
3.67192e-08
3.66711e-08
3.66152e-08
3.65672e-08
3.65146e-08
3.64659e-08
3.64165e-08
3.63691e-08
3.63169e-08
3.62614e-08
3.62101e-08
3.65447e-08
4.12459e-06
2.89709e-08
1.24351e-07
1.2367e-07
1.21041e-07
1.16142e-07
1.09839e-07
1.03144e-07
9.66708e-08
9.07451e-08
8.5433e-08
8.07504e-08
7.66159e-08
7.29937e-08
6.97859e-08
6.69676e-08
6.44516e-08
6.22291e-08
6.02253e-08
5.84464e-08
5.68263e-08
5.53826e-08
5.40543e-08
5.28672e-08
5.17645e-08
5.07772e-08
4.98506e-08
4.90205e-08
4.82338e-08
4.75306e-08
4.6856e-08
4.62546e-08
4.56721e-08
4.51551e-08
4.46477e-08
4.41997e-08
4.3755e-08
4.33654e-08
4.29734e-08
4.2633e-08
4.22859e-08
4.19876e-08
4.16785e-08
4.14159e-08
4.11389e-08
4.09062e-08
4.06579e-08
4.04524e-08
4.0228e-08
4.00451e-08
3.98428e-08
3.96808e-08
3.94955e-08
3.93522e-08
3.91842e-08
3.90573e-08
3.89032e-08
3.87878e-08
3.86505e-08
3.85473e-08
3.84198e-08
3.8331e-08
3.82105e-08
3.81303e-08
3.80205e-08
3.7948e-08
3.78468e-08
3.77818e-08
3.76895e-08
3.76249e-08
3.75426e-08
3.74843e-08
3.74099e-08
3.73549e-08
3.72853e-08
3.72336e-08
3.7168e-08
3.7115e-08
3.70514e-08
3.69989e-08
3.69363e-08
3.68856e-08
3.6825e-08
3.6776e-08
3.67176e-08
3.66695e-08
3.66136e-08
3.65656e-08
3.65129e-08
3.64642e-08
3.64147e-08
3.63674e-08
3.63151e-08
3.62596e-08
3.62082e-08
3.65439e-08
4.12515e-06
2.93862e-08
1.24351e-07
1.2367e-07
1.21045e-07
1.16154e-07
1.09856e-07
1.03165e-07
9.66939e-08
9.07689e-08
8.54565e-08
8.0773e-08
7.66375e-08
7.3014e-08
6.98049e-08
6.69853e-08
6.44681e-08
6.22444e-08
6.02395e-08
5.84596e-08
5.68385e-08
5.53939e-08
5.40647e-08
5.28768e-08
5.17735e-08
5.07855e-08
4.98583e-08
4.90276e-08
4.82404e-08
4.75367e-08
4.68615e-08
4.62597e-08
4.56768e-08
4.51594e-08
4.46517e-08
4.42034e-08
4.37584e-08
4.33685e-08
4.29761e-08
4.26356e-08
4.22882e-08
4.19896e-08
4.16803e-08
4.14175e-08
4.11403e-08
4.09074e-08
4.06589e-08
4.04532e-08
4.02287e-08
4.00457e-08
3.98432e-08
3.9681e-08
3.94956e-08
3.93522e-08
3.91841e-08
3.90571e-08
3.89029e-08
3.87873e-08
3.86499e-08
3.85466e-08
3.8419e-08
3.83301e-08
3.82096e-08
3.81293e-08
3.80194e-08
3.79468e-08
3.78456e-08
3.77804e-08
3.76881e-08
3.76235e-08
3.7541e-08
3.74827e-08
3.74082e-08
3.73532e-08
3.72836e-08
3.72319e-08
3.71661e-08
3.71132e-08
3.70495e-08
3.6997e-08
3.69343e-08
3.68836e-08
3.6823e-08
3.67739e-08
3.67154e-08
3.66673e-08
3.66113e-08
3.65633e-08
3.65106e-08
3.64619e-08
3.64123e-08
3.63649e-08
3.63126e-08
3.62572e-08
3.62057e-08
3.65429e-08
4.12592e-06
2.98667e-08
1.2435e-07
1.2367e-07
1.21052e-07
1.16168e-07
1.09878e-07
1.03192e-07
9.67239e-08
9.07997e-08
8.5487e-08
8.08025e-08
7.66655e-08
7.30404e-08
6.98296e-08
6.70083e-08
6.44895e-08
6.22644e-08
6.0258e-08
5.84767e-08
5.68543e-08
5.54086e-08
5.40783e-08
5.28894e-08
5.17851e-08
5.07963e-08
4.98683e-08
4.90369e-08
4.82489e-08
4.75446e-08
4.68689e-08
4.62665e-08
4.56831e-08
4.51652e-08
4.4657e-08
4.42082e-08
4.37628e-08
4.33725e-08
4.29798e-08
4.26389e-08
4.22912e-08
4.19923e-08
4.16827e-08
4.14196e-08
4.11421e-08
4.0909e-08
4.06603e-08
4.04544e-08
4.02297e-08
4.00464e-08
3.98438e-08
3.96814e-08
3.94958e-08
3.93522e-08
3.9184e-08
3.90568e-08
3.89024e-08
3.87867e-08
3.86492e-08
3.85458e-08
3.84181e-08
3.83291e-08
3.82084e-08
3.8128e-08
3.8018e-08
3.79453e-08
3.78439e-08
3.77787e-08
3.76863e-08
3.76216e-08
3.7539e-08
3.74806e-08
3.74061e-08
3.7351e-08
3.72814e-08
3.72296e-08
3.71638e-08
3.71108e-08
3.7047e-08
3.69945e-08
3.69318e-08
3.68811e-08
3.68203e-08
3.67712e-08
3.67127e-08
3.66645e-08
3.66084e-08
3.65604e-08
3.65076e-08
3.64588e-08
3.64091e-08
3.63618e-08
3.63093e-08
3.6254e-08
3.62024e-08
3.65416e-08
4.1269e-06
3.0409e-08
1.24348e-07
1.23669e-07
1.21059e-07
1.16187e-07
1.09906e-07
1.03226e-07
9.67609e-08
9.08377e-08
8.55246e-08
8.08388e-08
7.67001e-08
7.3073e-08
6.98601e-08
6.70368e-08
6.4516e-08
6.2289e-08
6.02809e-08
5.84979e-08
5.6874e-08
5.54267e-08
5.40952e-08
5.2905e-08
5.17996e-08
5.08096e-08
4.98807e-08
4.90484e-08
4.82595e-08
4.75544e-08
4.68779e-08
4.62748e-08
4.56908e-08
4.51723e-08
4.46635e-08
4.42142e-08
4.37683e-08
4.33775e-08
4.29844e-08
4.2643e-08
4.22949e-08
4.19957e-08
4.16857e-08
4.14223e-08
4.11445e-08
4.09111e-08
4.0662e-08
4.04559e-08
4.02309e-08
4.00474e-08
3.98445e-08
3.96819e-08
3.9496e-08
3.93523e-08
3.91838e-08
3.90565e-08
3.89019e-08
3.87861e-08
3.86484e-08
3.85448e-08
3.84169e-08
3.83278e-08
3.82069e-08
3.81264e-08
3.80163e-08
3.79435e-08
3.7842e-08
3.77766e-08
3.76841e-08
3.76194e-08
3.75367e-08
3.74782e-08
3.74035e-08
3.73484e-08
3.72787e-08
3.7227e-08
3.7161e-08
3.7108e-08
3.70441e-08
3.69915e-08
3.69287e-08
3.68779e-08
3.68171e-08
3.67679e-08
3.67093e-08
3.66611e-08
3.66049e-08
3.65568e-08
3.65039e-08
3.64552e-08
3.64053e-08
3.6358e-08
3.63054e-08
3.62501e-08
3.61983e-08
3.654e-08
4.1281e-06
3.10148e-08
1.24347e-07
1.23669e-07
1.21068e-07
1.16208e-07
1.09939e-07
1.03266e-07
9.68051e-08
9.08831e-08
8.55695e-08
8.08822e-08
7.67414e-08
7.3112e-08
6.98967e-08
6.70709e-08
6.45478e-08
6.23184e-08
6.03082e-08
5.85232e-08
5.68975e-08
5.54485e-08
5.41154e-08
5.29238e-08
5.18169e-08
5.08257e-08
4.98956e-08
4.90621e-08
4.82723e-08
4.75662e-08
4.68888e-08
4.62849e-08
4.57e-08
4.51808e-08
4.46713e-08
4.42214e-08
4.37749e-08
4.33836e-08
4.29899e-08
4.2648e-08
4.22995e-08
4.19998e-08
4.16893e-08
4.14255e-08
4.11473e-08
4.09136e-08
4.06642e-08
4.04577e-08
4.02324e-08
4.00486e-08
3.98454e-08
3.96826e-08
3.94964e-08
3.93525e-08
3.91837e-08
3.90562e-08
3.89014e-08
3.87854e-08
3.86474e-08
3.85437e-08
3.84155e-08
3.83263e-08
3.82052e-08
3.81246e-08
3.80143e-08
3.79414e-08
3.78397e-08
3.77742e-08
3.76816e-08
3.76167e-08
3.75339e-08
3.74753e-08
3.74005e-08
3.73454e-08
3.72755e-08
3.72238e-08
3.71576e-08
3.71046e-08
3.70406e-08
3.6988e-08
3.6925e-08
3.68742e-08
3.68133e-08
3.67641e-08
3.67053e-08
3.66571e-08
3.66007e-08
3.65526e-08
3.64996e-08
3.64508e-08
3.64008e-08
3.63535e-08
3.63008e-08
3.62454e-08
3.61936e-08
3.65381e-08
4.12952e-06
3.16892e-08
1.24345e-07
1.23669e-07
1.21079e-07
1.16234e-07
1.09977e-07
1.03313e-07
9.68564e-08
9.0936e-08
8.56219e-08
8.09328e-08
7.67897e-08
7.31575e-08
6.99393e-08
6.71107e-08
6.45848e-08
6.23528e-08
6.03402e-08
5.85528e-08
5.6925e-08
5.5474e-08
5.4139e-08
5.29456e-08
5.18372e-08
5.08445e-08
4.9913e-08
4.90783e-08
4.82872e-08
4.758e-08
4.69016e-08
4.62967e-08
4.57109e-08
4.51908e-08
4.46806e-08
4.42299e-08
4.37827e-08
4.33907e-08
4.29963e-08
4.26539e-08
4.23048e-08
4.20046e-08
4.16936e-08
4.14294e-08
4.11507e-08
4.09166e-08
4.06667e-08
4.04599e-08
4.02342e-08
4.00501e-08
3.98465e-08
3.96834e-08
3.94969e-08
3.93527e-08
3.91836e-08
3.90558e-08
3.89008e-08
3.87845e-08
3.86463e-08
3.85424e-08
3.8414e-08
3.83246e-08
3.82033e-08
3.81225e-08
3.8012e-08
3.79389e-08
3.78371e-08
3.77714e-08
3.76787e-08
3.76137e-08
3.75307e-08
3.74719e-08
3.7397e-08
3.73418e-08
3.72718e-08
3.72201e-08
3.71538e-08
3.71008e-08
3.70366e-08
3.69839e-08
3.69208e-08
3.68699e-08
3.68089e-08
3.67596e-08
3.67007e-08
3.66524e-08
3.65959e-08
3.65478e-08
3.64945e-08
3.64458e-08
3.63956e-08
3.63482e-08
3.62954e-08
3.62401e-08
3.61881e-08
3.6536e-08
4.13113e-06
3.24407e-08
1.24343e-07
1.23668e-07
1.2109e-07
1.16262e-07
1.1002e-07
1.03366e-07
9.69152e-08
9.09964e-08
8.56818e-08
8.09908e-08
7.68449e-08
7.32096e-08
6.99882e-08
6.71563e-08
6.46273e-08
6.23924e-08
6.03769e-08
5.85869e-08
5.69566e-08
5.55033e-08
5.41662e-08
5.29708e-08
5.18605e-08
5.08661e-08
4.9933e-08
4.90968e-08
4.83044e-08
4.75959e-08
4.69163e-08
4.63103e-08
4.57234e-08
4.52024e-08
4.46912e-08
4.42397e-08
4.37916e-08
4.33989e-08
4.30038e-08
4.26608e-08
4.23109e-08
4.20102e-08
4.16986e-08
4.14338e-08
4.11546e-08
4.092e-08
4.06697e-08
4.04625e-08
4.02363e-08
4.00518e-08
3.98478e-08
3.96844e-08
3.94975e-08
3.9353e-08
3.91836e-08
3.90555e-08
3.89002e-08
3.87837e-08
3.86451e-08
3.8541e-08
3.84123e-08
3.83227e-08
3.82012e-08
3.81202e-08
3.80094e-08
3.79362e-08
3.78342e-08
3.77683e-08
3.76754e-08
3.76102e-08
3.7527e-08
3.74682e-08
3.73931e-08
3.73378e-08
3.72677e-08
3.7216e-08
3.71494e-08
3.70964e-08
3.7032e-08
3.69793e-08
3.69161e-08
3.68651e-08
3.68039e-08
3.67545e-08
3.66954e-08
3.66471e-08
3.65905e-08
3.65422e-08
3.64888e-08
3.644e-08
3.63896e-08
3.63423e-08
3.62892e-08
3.6234e-08
3.61818e-08
3.65337e-08
4.13291e-06
3.32797e-08
1.24341e-07
1.23668e-07
1.21103e-07
1.16294e-07
1.10069e-07
1.03427e-07
9.69814e-08
9.10647e-08
8.57495e-08
8.10563e-08
7.69074e-08
7.32686e-08
7.00435e-08
6.7208e-08
6.46755e-08
6.24371e-08
6.04184e-08
5.86255e-08
5.69923e-08
5.55365e-08
5.41969e-08
5.29993e-08
5.1887e-08
5.08906e-08
4.99557e-08
4.91179e-08
4.83239e-08
4.7614e-08
4.6933e-08
4.63257e-08
4.57377e-08
4.52156e-08
4.47033e-08
4.42509e-08
4.38019e-08
4.34083e-08
4.30124e-08
4.26686e-08
4.2318e-08
4.20165e-08
4.17043e-08
4.1439e-08
4.11591e-08
4.0924e-08
4.06731e-08
4.04654e-08
4.02388e-08
4.00539e-08
3.98494e-08
3.96856e-08
3.94983e-08
3.93534e-08
3.91836e-08
3.90552e-08
3.88996e-08
3.87827e-08
3.86439e-08
3.85395e-08
3.84105e-08
3.83206e-08
3.81989e-08
3.81176e-08
3.80066e-08
3.79332e-08
3.78309e-08
3.77648e-08
3.76717e-08
3.76064e-08
3.7523e-08
3.7464e-08
3.73887e-08
3.73334e-08
3.7263e-08
3.72113e-08
3.71445e-08
3.70915e-08
3.70269e-08
3.69741e-08
3.69107e-08
3.68597e-08
3.67983e-08
3.67488e-08
3.66896e-08
3.66412e-08
3.65843e-08
3.65361e-08
3.64824e-08
3.64336e-08
3.6383e-08
3.63356e-08
3.62824e-08
3.62272e-08
3.61748e-08
3.65312e-08
4.13481e-06
3.42189e-08
1.24339e-07
1.23667e-07
1.21118e-07
1.1633e-07
1.10124e-07
1.03494e-07
9.70552e-08
9.11408e-08
8.58251e-08
8.11295e-08
7.69773e-08
7.33345e-08
7.01055e-08
6.72658e-08
6.47294e-08
6.24872e-08
6.0465e-08
5.86687e-08
5.70325e-08
5.55737e-08
5.42315e-08
5.30314e-08
5.19167e-08
5.09182e-08
4.99813e-08
4.91415e-08
4.83458e-08
4.76343e-08
4.69518e-08
4.63431e-08
4.57538e-08
4.52304e-08
4.4717e-08
4.42635e-08
4.38134e-08
4.34189e-08
4.3022e-08
4.26774e-08
4.2326e-08
4.20238e-08
4.17108e-08
4.14448e-08
4.11643e-08
4.09286e-08
4.06771e-08
4.04688e-08
4.02416e-08
4.00562e-08
3.98513e-08
3.9687e-08
3.94993e-08
3.9354e-08
3.91837e-08
3.9055e-08
3.88989e-08
3.87818e-08
3.86425e-08
3.85379e-08
3.84085e-08
3.83184e-08
3.81963e-08
3.81148e-08
3.80035e-08
3.79298e-08
3.78273e-08
3.7761e-08
3.76677e-08
3.76022e-08
3.75185e-08
3.74593e-08
3.73838e-08
3.73284e-08
3.72579e-08
3.72062e-08
3.71391e-08
3.70861e-08
3.70213e-08
3.69684e-08
3.69048e-08
3.68537e-08
3.67921e-08
3.67425e-08
3.66831e-08
3.66346e-08
3.65775e-08
3.65292e-08
3.64753e-08
3.64265e-08
3.63756e-08
3.63282e-08
3.62747e-08
3.62196e-08
3.6167e-08
3.65284e-08
4.13674e-06
3.52726e-08
1.24336e-07
1.23666e-07
1.21134e-07
1.16369e-07
1.10184e-07
1.03567e-07
9.71368e-08
9.1225e-08
8.59088e-08
8.12106e-08
7.70547e-08
7.34077e-08
7.01741e-08
6.733e-08
6.47892e-08
6.25429e-08
6.05168e-08
5.87167e-08
5.70771e-08
5.56151e-08
5.42699e-08
5.3067e-08
5.19497e-08
5.09488e-08
5.00097e-08
4.91679e-08
4.83702e-08
4.76569e-08
4.69727e-08
4.63625e-08
4.57717e-08
4.52469e-08
4.47322e-08
4.42775e-08
4.38263e-08
4.34307e-08
4.30328e-08
4.26872e-08
4.23349e-08
4.20319e-08
4.17181e-08
4.14513e-08
4.11701e-08
4.09337e-08
4.06815e-08
4.04727e-08
4.02449e-08
4.0059e-08
3.98534e-08
3.96887e-08
3.95004e-08
3.93547e-08
3.9184e-08
3.90548e-08
3.88983e-08
3.87808e-08
3.86411e-08
3.85362e-08
3.84063e-08
3.8316e-08
3.81936e-08
3.81118e-08
3.80002e-08
3.79262e-08
3.78234e-08
3.77569e-08
3.76633e-08
3.75976e-08
3.75136e-08
3.74543e-08
3.73785e-08
3.7323e-08
3.72523e-08
3.72005e-08
3.71332e-08
3.70801e-08
3.70151e-08
3.69621e-08
3.68984e-08
3.68471e-08
3.67853e-08
3.67356e-08
3.66759e-08
3.66273e-08
3.65701e-08
3.65217e-08
3.64675e-08
3.64187e-08
3.63675e-08
3.632e-08
3.62663e-08
3.62113e-08
3.61584e-08
3.65254e-08
4.13858e-06
3.64563e-08
1.24333e-07
1.23666e-07
1.21151e-07
1.16412e-07
1.10249e-07
1.03648e-07
9.72261e-08
9.13174e-08
8.60007e-08
8.12997e-08
7.71398e-08
7.34881e-08
7.02498e-08
6.74007e-08
6.48551e-08
6.26042e-08
6.05738e-08
5.87697e-08
5.71263e-08
5.56607e-08
5.43123e-08
5.31063e-08
5.19862e-08
5.09827e-08
5.00411e-08
4.9197e-08
4.83972e-08
4.76819e-08
4.69959e-08
4.6384e-08
4.57915e-08
4.52653e-08
4.47491e-08
4.42931e-08
4.38406e-08
4.34439e-08
4.30449e-08
4.26982e-08
4.23449e-08
4.2041e-08
4.17262e-08
4.14587e-08
4.11766e-08
4.09395e-08
4.06865e-08
4.04771e-08
4.02486e-08
4.00621e-08
3.98559e-08
3.96907e-08
3.95018e-08
3.93556e-08
3.91843e-08
3.90547e-08
3.88978e-08
3.87799e-08
3.86397e-08
3.85344e-08
3.84041e-08
3.83134e-08
3.81906e-08
3.81086e-08
3.79966e-08
3.79224e-08
3.78192e-08
3.77524e-08
3.76586e-08
3.75926e-08
3.75084e-08
3.74488e-08
3.73727e-08
3.73172e-08
3.72462e-08
3.71944e-08
3.71268e-08
3.70737e-08
3.70083e-08
3.69553e-08
3.68913e-08
3.68399e-08
3.67779e-08
3.67281e-08
3.66682e-08
3.66195e-08
3.65619e-08
3.65135e-08
3.64591e-08
3.64102e-08
3.63586e-08
3.63112e-08
3.62572e-08
3.62022e-08
3.61491e-08
3.65222e-08
4.14016e-06
3.77866e-08
1.2433e-07
1.23665e-07
1.21169e-07
1.16458e-07
1.1032e-07
1.03736e-07
9.73234e-08
9.14182e-08
8.6101e-08
8.13971e-08
7.72329e-08
7.35761e-08
7.03325e-08
6.7478e-08
6.49273e-08
6.26714e-08
6.06363e-08
5.88278e-08
5.71802e-08
5.57108e-08
5.43588e-08
5.31495e-08
5.20263e-08
5.10199e-08
5.00756e-08
4.92291e-08
4.84269e-08
4.77095e-08
4.70214e-08
4.64076e-08
4.58133e-08
4.52855e-08
4.47678e-08
4.43103e-08
4.38564e-08
4.34584e-08
4.30582e-08
4.27104e-08
4.23559e-08
4.2051e-08
4.17352e-08
4.14668e-08
4.11838e-08
4.0946e-08
4.06922e-08
4.0482e-08
4.02527e-08
4.00656e-08
3.98587e-08
3.96929e-08
3.95034e-08
3.93567e-08
3.91848e-08
3.90548e-08
3.88973e-08
3.87789e-08
3.86382e-08
3.85326e-08
3.84018e-08
3.83108e-08
3.81876e-08
3.81052e-08
3.79928e-08
3.79183e-08
3.78148e-08
3.77476e-08
3.76536e-08
3.75873e-08
3.75028e-08
3.74429e-08
3.73665e-08
3.73109e-08
3.72397e-08
3.71878e-08
3.71199e-08
3.70668e-08
3.70011e-08
3.6948e-08
3.68837e-08
3.68322e-08
3.67699e-08
3.672e-08
3.66598e-08
3.6611e-08
3.65532e-08
3.65046e-08
3.64499e-08
3.64009e-08
3.6349e-08
3.63016e-08
3.62473e-08
3.61924e-08
3.6139e-08
3.65188e-08
4.14126e-06
3.92812e-08
1.24327e-07
1.23664e-07
1.21189e-07
1.16507e-07
1.10396e-07
1.03831e-07
9.74288e-08
9.15274e-08
8.62098e-08
8.15028e-08
7.7334e-08
7.36719e-08
7.04225e-08
6.75623e-08
6.5006e-08
6.27447e-08
6.07045e-08
5.88911e-08
5.72391e-08
5.57655e-08
5.44096e-08
5.31966e-08
5.20701e-08
5.10605e-08
5.01134e-08
4.92641e-08
4.84594e-08
4.77396e-08
4.70494e-08
4.64335e-08
4.58373e-08
4.53076e-08
4.47882e-08
4.43292e-08
4.38738e-08
4.34744e-08
4.30728e-08
4.27238e-08
4.23681e-08
4.20621e-08
4.17452e-08
4.14759e-08
4.11919e-08
4.09531e-08
4.06985e-08
4.04875e-08
4.02574e-08
4.00696e-08
3.98619e-08
3.96955e-08
3.95053e-08
3.93581e-08
3.91855e-08
3.9055e-08
3.88969e-08
3.87781e-08
3.86368e-08
3.85308e-08
3.83994e-08
3.8308e-08
3.81844e-08
3.81016e-08
3.79888e-08
3.7914e-08
3.78101e-08
3.77426e-08
3.76482e-08
3.75817e-08
3.74968e-08
3.74367e-08
3.73599e-08
3.73041e-08
3.72327e-08
3.71808e-08
3.71125e-08
3.70594e-08
3.69933e-08
3.69402e-08
3.68756e-08
3.68239e-08
3.67613e-08
3.67113e-08
3.66508e-08
3.66019e-08
3.65437e-08
3.64951e-08
3.644e-08
3.6391e-08
3.63388e-08
3.62913e-08
3.62366e-08
3.61818e-08
3.61281e-08
3.65152e-08
4.14158e-06
4.09584e-08
1.24323e-07
1.23662e-07
1.2121e-07
1.1656e-07
1.10478e-07
1.03934e-07
9.75424e-08
9.16452e-08
8.63273e-08
8.16171e-08
7.74434e-08
7.37755e-08
7.052e-08
6.76536e-08
6.50912e-08
6.28241e-08
6.07784e-08
5.89599e-08
5.7303e-08
5.58249e-08
5.44647e-08
5.32479e-08
5.21177e-08
5.11047e-08
5.01544e-08
4.93022e-08
4.84948e-08
4.77725e-08
4.70798e-08
4.64617e-08
4.58634e-08
4.53318e-08
4.48106e-08
4.43498e-08
4.38928e-08
4.34919e-08
4.30888e-08
4.27385e-08
4.23815e-08
4.20743e-08
4.17562e-08
4.14858e-08
4.12008e-08
4.09611e-08
4.07054e-08
4.04936e-08
4.02627e-08
4.00741e-08
3.98656e-08
3.96986e-08
3.95076e-08
3.93597e-08
3.91865e-08
3.90553e-08
3.88967e-08
3.87773e-08
3.86354e-08
3.8529e-08
3.8397e-08
3.83052e-08
3.81811e-08
3.80979e-08
3.79847e-08
3.79094e-08
3.78052e-08
3.77373e-08
3.76426e-08
3.75758e-08
3.74904e-08
3.74301e-08
3.73529e-08
3.7297e-08
3.72253e-08
3.71733e-08
3.71047e-08
3.70516e-08
3.6985e-08
3.69318e-08
3.68669e-08
3.68151e-08
3.67522e-08
3.6702e-08
3.66412e-08
3.65922e-08
3.65337e-08
3.64849e-08
3.64295e-08
3.63805e-08
3.63278e-08
3.62802e-08
3.62252e-08
3.61705e-08
3.61165e-08
3.65114e-08
4.14078e-06
4.28371e-08
1.24319e-07
1.23661e-07
1.21232e-07
1.16617e-07
1.10566e-07
1.04043e-07
9.76642e-08
9.17718e-08
8.64538e-08
8.17401e-08
7.75614e-08
7.38872e-08
7.06252e-08
6.77521e-08
6.51833e-08
6.29099e-08
6.08584e-08
5.90342e-08
5.73722e-08
5.58891e-08
5.45245e-08
5.33034e-08
5.21693e-08
5.11527e-08
5.0199e-08
4.93436e-08
4.85332e-08
4.78081e-08
4.71129e-08
4.64924e-08
4.58919e-08
4.53582e-08
4.48349e-08
4.43723e-08
4.39135e-08
4.3511e-08
4.31063e-08
4.27546e-08
4.23962e-08
4.20877e-08
4.17683e-08
4.14968e-08
4.12106e-08
4.09699e-08
4.07132e-08
4.05005e-08
4.02685e-08
4.00792e-08
3.98697e-08
3.9702e-08
3.95102e-08
3.93617e-08
3.91877e-08
3.90559e-08
3.88966e-08
3.87767e-08
3.86341e-08
3.85272e-08
3.83946e-08
3.83023e-08
3.81777e-08
3.80941e-08
3.79804e-08
3.79048e-08
3.78e-08
3.77318e-08
3.76367e-08
3.75695e-08
3.74838e-08
3.74231e-08
3.73455e-08
3.72894e-08
3.72175e-08
3.71653e-08
3.70963e-08
3.70433e-08
3.69763e-08
3.6923e-08
3.68577e-08
3.68058e-08
3.67426e-08
3.66922e-08
3.6631e-08
3.65818e-08
3.6523e-08
3.64741e-08
3.64183e-08
3.63692e-08
3.63161e-08
3.62685e-08
3.62131e-08
3.61584e-08
3.61042e-08
3.65073e-08
4.13841e-06
4.49367e-08
1.24315e-07
1.23659e-07
1.21256e-07
1.16677e-07
1.1066e-07
1.0416e-07
9.77944e-08
9.19073e-08
8.65893e-08
8.18722e-08
7.7688e-08
7.40073e-08
7.07384e-08
6.78582e-08
6.52825e-08
6.30024e-08
6.09445e-08
5.91144e-08
5.74468e-08
5.59585e-08
5.4589e-08
5.33633e-08
5.2225e-08
5.12045e-08
5.02471e-08
4.93884e-08
4.85748e-08
4.78467e-08
4.71488e-08
4.65257e-08
4.59227e-08
4.53868e-08
4.48613e-08
4.43968e-08
4.3936e-08
4.35318e-08
4.31254e-08
4.27721e-08
4.24122e-08
4.21023e-08
4.17816e-08
4.15088e-08
4.12214e-08
4.09796e-08
4.07217e-08
4.05081e-08
4.02751e-08
4.00848e-08
3.98744e-08
3.97059e-08
3.95133e-08
3.9364e-08
3.91892e-08
3.90568e-08
3.88968e-08
3.87762e-08
3.86329e-08
3.85255e-08
3.83922e-08
3.82995e-08
3.81743e-08
3.80902e-08
3.7976e-08
3.78999e-08
3.77947e-08
3.7726e-08
3.76305e-08
3.75631e-08
3.74769e-08
3.74159e-08
3.73378e-08
3.72815e-08
3.72093e-08
3.7157e-08
3.70876e-08
3.70346e-08
3.6967e-08
3.69137e-08
3.68481e-08
3.67959e-08
3.67324e-08
3.66818e-08
3.66203e-08
3.6571e-08
3.65117e-08
3.64627e-08
3.64065e-08
3.63574e-08
3.63037e-08
3.62561e-08
3.62003e-08
3.61457e-08
3.60911e-08
3.6503e-08
4.13398e-06
4.72768e-08
1.24311e-07
1.23657e-07
1.2128e-07
1.1674e-07
1.10758e-07
1.04284e-07
9.7933e-08
9.20519e-08
8.67341e-08
8.20134e-08
7.78235e-08
7.41359e-08
7.08596e-08
6.79719e-08
6.53888e-08
6.31016e-08
6.1037e-08
5.92005e-08
5.75269e-08
5.6033e-08
5.46584e-08
5.34278e-08
5.2285e-08
5.12603e-08
5.0299e-08
4.94366e-08
4.86196e-08
4.78884e-08
4.71875e-08
4.65616e-08
4.5956e-08
4.54177e-08
4.48899e-08
4.44233e-08
4.39605e-08
4.35544e-08
4.31462e-08
4.27912e-08
4.24296e-08
4.21183e-08
4.17961e-08
4.1522e-08
4.12332e-08
4.09903e-08
4.07312e-08
4.05165e-08
4.02824e-08
4.00912e-08
3.98798e-08
3.97104e-08
3.95168e-08
3.93668e-08
3.91911e-08
3.9058e-08
3.88972e-08
3.8776e-08
3.86319e-08
3.8524e-08
3.839e-08
3.82967e-08
3.81709e-08
3.80863e-08
3.79715e-08
3.7895e-08
3.77893e-08
3.77201e-08
3.76242e-08
3.75564e-08
3.74697e-08
3.74084e-08
3.73298e-08
3.72733e-08
3.72007e-08
3.71483e-08
3.70785e-08
3.70255e-08
3.69574e-08
3.69039e-08
3.68379e-08
3.67856e-08
3.67217e-08
3.6671e-08
3.6609e-08
3.65595e-08
3.64998e-08
3.64507e-08
3.6394e-08
3.63448e-08
3.62907e-08
3.6243e-08
3.61867e-08
3.61322e-08
3.60773e-08
3.64984e-08
4.12689e-06
4.98765e-08
1.24307e-07
1.23655e-07
1.21306e-07
1.16806e-07
1.10863e-07
1.04416e-07
9.80803e-08
9.22057e-08
8.68883e-08
8.21639e-08
7.79681e-08
7.42733e-08
7.09892e-08
6.80935e-08
6.55027e-08
6.32079e-08
6.11361e-08
5.92928e-08
5.76129e-08
5.6113e-08
5.47328e-08
5.34971e-08
5.23495e-08
5.13202e-08
5.03548e-08
4.94885e-08
4.86679e-08
4.79333e-08
4.72292e-08
4.66004e-08
4.5992e-08
4.54511e-08
4.49209e-08
4.44519e-08
4.39869e-08
4.35788e-08
4.31687e-08
4.28119e-08
4.24486e-08
4.21357e-08
4.18119e-08
4.15364e-08
4.12462e-08
4.1002e-08
4.07416e-08
4.05257e-08
4.02905e-08
4.00983e-08
3.98857e-08
3.97155e-08
3.95209e-08
3.937e-08
3.91934e-08
3.90596e-08
3.88979e-08
3.87761e-08
3.86311e-08
3.85226e-08
3.83878e-08
3.8294e-08
3.81676e-08
3.80825e-08
3.7967e-08
3.789e-08
3.77838e-08
3.77141e-08
3.76177e-08
3.75495e-08
3.74623e-08
3.74006e-08
3.73215e-08
3.72647e-08
3.71918e-08
3.71393e-08
3.7069e-08
3.7016e-08
3.69473e-08
3.68938e-08
3.68273e-08
3.67749e-08
3.67105e-08
3.66596e-08
3.65972e-08
3.65475e-08
3.64874e-08
3.64382e-08
3.6381e-08
3.63317e-08
3.6277e-08
3.62293e-08
3.61725e-08
3.61181e-08
3.60629e-08
3.64935e-08
4.11649e-06
5.27545e-08
1.24302e-07
1.23652e-07
1.21332e-07
1.16876e-07
1.10973e-07
1.04555e-07
9.82362e-08
9.23688e-08
8.7052e-08
8.2324e-08
7.81221e-08
7.44196e-08
7.11274e-08
6.82233e-08
6.56242e-08
6.33214e-08
6.1242e-08
5.93915e-08
5.77049e-08
5.61986e-08
5.48126e-08
5.35713e-08
5.24186e-08
5.13845e-08
5.04147e-08
4.95442e-08
4.87197e-08
4.79815e-08
4.7274e-08
4.66421e-08
4.60307e-08
4.5487e-08
4.49542e-08
4.44828e-08
4.40155e-08
4.36053e-08
4.3193e-08
4.28344e-08
4.24692e-08
4.21546e-08
4.18291e-08
4.15521e-08
4.12604e-08
4.10149e-08
4.0753e-08
4.0536e-08
4.02995e-08
4.01062e-08
3.98925e-08
3.97213e-08
3.95256e-08
3.93738e-08
3.91962e-08
3.90616e-08
3.88991e-08
3.87765e-08
3.86306e-08
3.85215e-08
3.83859e-08
3.82915e-08
3.81644e-08
3.80787e-08
3.79626e-08
3.78851e-08
3.77782e-08
3.7708e-08
3.76111e-08
3.75425e-08
3.74547e-08
3.73926e-08
3.73129e-08
3.72559e-08
3.71826e-08
3.71299e-08
3.70592e-08
3.70061e-08
3.69369e-08
3.68833e-08
3.68163e-08
3.67637e-08
3.66989e-08
3.66478e-08
3.65849e-08
3.65351e-08
3.64745e-08
3.64251e-08
3.63674e-08
3.63181e-08
3.62627e-08
3.62149e-08
3.61576e-08
3.61034e-08
3.60478e-08
3.64882e-08
4.10203e-06
5.59274e-08
1.24297e-07
1.2365e-07
1.2136e-07
1.16949e-07
1.11089e-07
1.04701e-07
9.84009e-08
9.25414e-08
8.72256e-08
8.24938e-08
7.82856e-08
7.45752e-08
7.12745e-08
6.83614e-08
6.57537e-08
6.34423e-08
6.1355e-08
5.94968e-08
5.78031e-08
5.62901e-08
5.48978e-08
5.36507e-08
5.24925e-08
5.14534e-08
5.04788e-08
4.96039e-08
4.87753e-08
4.80333e-08
4.73222e-08
4.66869e-08
4.60723e-08
4.55257e-08
4.49901e-08
4.45162e-08
4.40464e-08
4.36338e-08
4.32194e-08
4.28587e-08
4.24915e-08
4.21751e-08
4.18478e-08
4.15692e-08
4.12759e-08
4.10289e-08
4.07656e-08
4.05473e-08
4.03094e-08
4.0115e-08
3.99e-08
3.97278e-08
3.9531e-08
3.93783e-08
3.91996e-08
3.90641e-08
3.89006e-08
3.87773e-08
3.86305e-08
3.85207e-08
3.83842e-08
3.82891e-08
3.81613e-08
3.8075e-08
3.79582e-08
3.78801e-08
3.77726e-08
3.77019e-08
3.76045e-08
3.75354e-08
3.7447e-08
3.73845e-08
3.73042e-08
3.72469e-08
3.71732e-08
3.71203e-08
3.70491e-08
3.69959e-08
3.69262e-08
3.68725e-08
3.6805e-08
3.67522e-08
3.66868e-08
3.66355e-08
3.65722e-08
3.65222e-08
3.6461e-08
3.64115e-08
3.63532e-08
3.63038e-08
3.62479e-08
3.62e-08
3.61421e-08
3.6088e-08
3.6032e-08
3.64826e-08
4.08272e-06
5.9411e-08
1.24292e-07
1.23647e-07
1.21388e-07
1.17025e-07
1.1121e-07
1.04855e-07
9.85744e-08
9.27236e-08
8.74091e-08
8.26736e-08
7.84589e-08
7.47402e-08
7.14305e-08
6.85082e-08
6.58913e-08
6.3571e-08
6.14753e-08
5.9609e-08
5.79077e-08
5.63876e-08
5.49887e-08
5.37354e-08
5.25715e-08
5.15269e-08
5.05473e-08
4.96678e-08
4.88348e-08
4.80887e-08
4.73738e-08
4.67349e-08
4.6117e-08
4.55673e-08
4.50287e-08
4.4552e-08
4.40796e-08
4.36646e-08
4.32478e-08
4.2885e-08
4.25156e-08
4.21973e-08
4.18681e-08
4.15878e-08
4.12928e-08
4.10443e-08
4.07794e-08
4.05597e-08
4.03204e-08
4.01248e-08
3.99085e-08
3.97352e-08
3.95371e-08
3.93834e-08
3.92036e-08
3.90672e-08
3.89027e-08
3.87785e-08
3.86307e-08
3.85203e-08
3.83828e-08
3.82871e-08
3.81584e-08
3.80715e-08
3.7954e-08
3.78753e-08
3.77671e-08
3.76958e-08
3.75978e-08
3.75283e-08
3.74393e-08
3.73763e-08
3.72954e-08
3.72377e-08
3.71635e-08
3.71104e-08
3.70387e-08
3.69855e-08
3.69151e-08
3.68614e-08
3.67933e-08
3.67403e-08
3.66744e-08
3.66229e-08
3.65591e-08
3.65088e-08
3.64471e-08
3.63975e-08
3.63386e-08
3.62891e-08
3.62325e-08
3.61845e-08
3.61261e-08
3.6072e-08
3.60157e-08
3.64765e-08
4.0577e-06
6.32175e-08
1.24287e-07
1.23644e-07
1.21418e-07
1.17104e-07
1.11337e-07
1.05016e-07
9.87568e-08
9.29155e-08
8.76027e-08
8.28636e-08
7.86422e-08
7.4915e-08
7.1596e-08
6.86639e-08
6.60374e-08
6.37077e-08
6.16031e-08
5.97283e-08
5.8019e-08
5.64914e-08
5.50855e-08
5.38256e-08
5.26556e-08
5.16054e-08
5.06205e-08
4.9736e-08
4.88984e-08
4.81479e-08
4.7429e-08
4.67864e-08
4.61649e-08
4.56118e-08
4.50701e-08
4.45905e-08
4.41153e-08
4.36978e-08
4.32784e-08
4.29133e-08
4.25417e-08
4.22214e-08
4.18902e-08
4.16081e-08
4.13112e-08
4.10611e-08
4.07945e-08
4.05734e-08
4.03326e-08
4.01357e-08
3.99179e-08
3.97435e-08
3.95441e-08
3.93894e-08
3.92083e-08
3.90709e-08
3.89054e-08
3.87803e-08
3.86315e-08
3.85203e-08
3.83818e-08
3.82854e-08
3.81559e-08
3.80683e-08
3.79499e-08
3.78707e-08
3.77617e-08
3.76898e-08
3.75912e-08
3.75212e-08
3.74315e-08
3.73681e-08
3.72865e-08
3.72284e-08
3.71536e-08
3.71004e-08
3.70281e-08
3.69748e-08
3.69038e-08
3.68501e-08
3.67813e-08
3.67281e-08
3.66617e-08
3.661e-08
3.65456e-08
3.64951e-08
3.64328e-08
3.6383e-08
3.63235e-08
3.62739e-08
3.62166e-08
3.61685e-08
3.61094e-08
3.60555e-08
3.59988e-08
3.64698e-08
4.02608e-06
6.73543e-08
1.24282e-07
1.2364e-07
1.21448e-07
1.17186e-07
1.11469e-07
1.05185e-07
9.89481e-08
9.31173e-08
8.78066e-08
8.30639e-08
7.88357e-08
7.50997e-08
7.1771e-08
6.88287e-08
6.61922e-08
6.38527e-08
6.17386e-08
5.98549e-08
5.81373e-08
5.66017e-08
5.51885e-08
5.39217e-08
5.27452e-08
5.1689e-08
5.06985e-08
4.98088e-08
4.89662e-08
4.82112e-08
4.7488e-08
4.68414e-08
4.62161e-08
4.56596e-08
4.51145e-08
4.46318e-08
4.41536e-08
4.37334e-08
4.33114e-08
4.29439e-08
4.25699e-08
4.22474e-08
4.1914e-08
4.163e-08
4.13312e-08
4.10795e-08
4.08111e-08
4.05884e-08
4.0346e-08
4.01477e-08
3.99284e-08
3.97528e-08
3.95521e-08