/*--------------------------------*- C++ -*----------------------------------*\
| =========                 |                                                 |
| \\      /  F ield         | OpenFOAM: The Open Source CFD Toolbox           |
|  \\    /   O peration     | Version:  v2012                                 |
|   \\  /    A nd           | Website:  www.openfoam.com                      |
|    \\/     M anipulation  |                                                 |
\*---------------------------------------------------------------------------*/
FoamFile
{
    version     2.0;
    format      ascii;
    class       volScalarField;
    location    "48";
    object      yPlus;
}
// * * * * * * * * * * * * * * * * * * * * * * * * * * * * * * * * * * * * * //

dimensions      [0 0 0 0 0 0 0];


internalField   uniform 0;

boundaryField
{
    inlet
    {
        type            calculated;
        value           uniform 0;
    }
    outlet
    {
        type            calculated;
        value           uniform 0;
    }
    topWall
    {
        type            calculated;
        value           nonuniform List<scalar> 
545
(
0.152339
0.262695
0.337011
0.396145
0.446205
0.490003
0.529122
0.564556
0.596983
0.62689
0.65464
0.680518
0.704746
0.727507
0.748951
0.769204
0.788373
0.80655
0.823814
0.840237
0.85588
0.870796
0.885037
0.898645
0.91166
0.924118
0.936053
0.947494
0.958469
0.969003
0.97912
0.988841
0.998187
1.00718
1.01583
1.02415
1.03217
1.0399
1.04735
1.05452
1.06145
1.06813
1.07457
1.08079
1.0868
1.0926
1.0982
1.10361
1.10885
1.1139
1.11879
1.12352
1.1281
1.13252
1.13681
1.14095
1.14496
1.14884
1.15261
1.15625
1.15977
1.16319
1.1665
1.16971
1.17282
1.17583
1.17875
1.18158
1.18432
1.18699
1.18957
1.19207
1.19447
1.19679
1.19909
1.20137
1.20363
1.20588
1.2081
1.21031
1.2125
1.21468
1.21683
1.21897
1.2211
1.2232
1.22529
1.22737
1.22942
1.23146
1.23349
1.2355
1.23749
1.23947
1.24143
1.24338
1.24514
1.24671
1.24827
1.24984
1.25141
1.25298
1.25455
1.25611
1.25768
1.25925
1.26081
1.26238
1.26394
1.26551
1.26707
1.26863
1.2702
1.27176
1.27332
1.27488
1.27644
1.27801
1.27957
1.28113
1.28268
1.28424
1.2858
1.28736
1.28891
1.29047
1.29203
1.29358
1.29514
1.29669
1.29824
1.29979
1.30135
1.3029
1.30445
1.306
1.30754
1.30909
1.31064
1.31219
1.31373
1.31528
1.31682
1.31836
1.31991
1.32145
1.32299
1.32453
1.32607
1.3276
1.32914
1.33068
1.33221
1.33375
1.33528
1.33681
1.33834
1.33987
1.3414
1.34293
1.34446
1.34598
1.34751
1.34903
1.35056
1.35208
1.3536
1.35512
1.35664
1.35815
1.35967
1.36118
1.3627
1.36421
1.36572
1.36723
1.36874
1.37025
1.37175
1.37326
1.37476
1.37626
1.37776
1.37926
1.38076
1.38226
1.38375
1.38524
1.38674
1.38823
1.38972
1.3912
1.39269
1.39417
1.39566
1.39714
1.39862
1.4001
1.40157
1.40305
1.40452
1.40599
1.40746
1.40893
1.4104
1.41186
1.41333
1.41479
1.41625
1.4177
1.41916
1.42061
1.42207
1.42352
1.42497
1.42641
1.42786
1.4293
1.43074
1.43218
1.43362
1.43505
1.43648
1.43791
1.43934
1.44077
1.44219
1.44362
1.44504
1.44645
1.44787
1.44928
1.45069
1.4521
1.45351
1.45491
1.45632
1.45772
1.45911
1.46051
1.4619
1.46329
1.46468
1.46607
1.46745
1.46883
1.47021
1.47159
1.47296
1.47433
1.4757
1.47706
1.47843
1.47979
1.48114
1.4825
1.48385
1.4852
1.48655
1.48789
1.48923
1.49057
1.49191
1.49324
1.49457
1.4959
1.49723
1.49855
1.49987
1.50111
1.50228
1.50346
1.50465
1.50584
1.50705
1.50826
1.50947
1.5107
1.51194
1.51318
1.51443
1.51568
1.51695
1.51822
1.5195
1.52079
1.52208
1.52339
1.5247
1.52601
1.52734
1.52867
1.53001
1.53136
1.53271
1.53407
1.53544
1.53681
1.53819
1.53958
1.54097
1.54237
1.54378
1.54519
1.54661
1.54804
1.54947
1.55091
1.55235
1.5538
1.55526
1.55672
1.55819
1.55966
1.56113
1.56261
1.5641
1.56559
1.56709
1.56859
1.57009
1.5716
1.57311
1.57462
1.57614
1.57767
1.57919
1.58072
1.58225
1.58378
1.58532
1.58686
1.5884
1.58994
1.59148
1.59302
1.59457
1.59611
1.59766
1.5992
1.60075
1.6023
1.60384
1.60538
1.60693
1.60847
1.61001
1.61154
1.61308
1.61461
1.61614
1.61766
1.61918
1.6207
1.62221
1.62372
1.62522
1.62672
1.62821
1.62969
1.63117
1.63264
1.63411
1.63556
1.63701
1.63845
1.63987
1.64129
1.6427
1.6441
1.64549
1.64687
1.64823
1.64959
1.65093
1.65225
1.65357
1.65487
1.65615
1.65742
1.65868
1.65992
1.66114
1.66234
1.66353
1.6647
1.66585
1.66698
1.6681
1.66919
1.67026
1.67132
1.67235
1.67336
1.67434
1.67531
1.67625
1.67716
1.67806
1.67892
1.67977
1.68058
1.68137
1.68214
1.68287
1.68358
1.68426
1.68492
1.68554
1.68613
1.6867
1.68723
1.68773
1.68821
1.68865
1.68906
1.68943
1.68978
1.69009
1.69037
1.69061
1.69082
1.691
1.69114
1.69125
1.69132
1.69136
1.69136
1.69132
1.69126
1.69115
1.69101
1.69083
1.69062
1.69036
1.69008
1.68975
1.68939
1.68899
1.68856
1.68809
1.68758
1.68704
1.68646
1.68584
1.68519
1.6845
1.68378
1.68302
1.68222
1.6813
1.68024
1.67915
1.67802
1.67686
1.67568
1.67446
1.67322
1.67195
1.67067
1.66936
1.66803
1.66669
1.66533
1.66395
1.66257
1.66117
1.65977
1.65835
1.65693
1.6555
1.65407
1.65263
1.65119
1.64975
1.64831
1.64686
1.64543
1.64399
1.64256
1.64113
1.63971
1.63829
1.63688
1.63548
1.63409
1.6327
1.63133
1.62996
1.62862
1.62728
1.62595
1.62464
1.62334
1.62206
1.62079
1.61954
1.61831
1.61709
1.61589
1.61471
1.61355
1.6124
1.61128
1.61017
1.60909
1.60803
1.60699
1.60597
1.60498
1.60401
1.60306
1.60214
1.60124
1.60036
1.59951
1.59869
1.59789
1.59711
1.59637
1.59565
1.59496
1.59429
1.59365
1.59304
1.59246
1.5919
1.59138
1.59088
1.59041
1.58997
1.58957
1.58919
1.58884
1.58852
1.58823
1.58797
1.58774
1.58754
1.58737
1.58724
1.58713
1.58705
1.58702
1.58698
)
;
    }
    bottomWall
    {
        type            calculated;
        value           nonuniform List<scalar> 
449
(
0.00273776
0.00480009
0.00537419
0.00532715
0.00525634
0.00516047
0.00506314
0.00497204
0.00488841
0.004812
0.00474207
0.00467797
0.00461896
0.00456434
0.00451357
0.00446627
0.00442202
0.00438051
0.00434141
0.00430449
0.00426955
0.00423641
0.00420488
0.00417485
0.00414618
0.00411876
0.00409251
0.00406732
0.00404313
0.00401986
0.00399745
0.00397584
0.00395499
0.00393484
0.00391535
0.00389648
0.0038782
0.00386046
0.00384325
0.00382653
0.00381027
0.00379444
0.00377904
0.00376403
0.00374941
0.00373515
0.00372124
0.00370767
0.00369442
0.00368148
0.00366883
0.00365648
0.00364439
0.00363256
0.00362098
0.00360964
0.00359853
0.00358764
0.00357696
0.00356648
0.0035562
0.00354609
0.00353618
0.00352644
0.00351687
0.00350746
0.0034982
0.0034891
0.00348015
0.00347134
0.00346267
0.00345414
0.00344573
0.00343745
0.00342929
0.00342126
0.00341334
0.00340553
0.00339784
0.00339025
0.00338277
0.00337539
0.0033681
0.00336092
0.00335383
0.00334683
0.00333992
0.0033331
0.00332637
0.00331972
0.00331315
0.00330665
0.00330024
0.00329391
0.00328764
0.00328145
0.00327533
0.00326928
0.0032633
0.00325739
0.00325153
0.00324575
0.00324002
0.00323436
0.00322875
0.0032232
0.00321771
0.00321228
0.0032069
0.00320158
0.0031963
0.00319108
0.00318591
0.00318079
0.00317572
0.0031707
0.00316572
0.00316079
0.0031559
0.00315106
0.00314626
0.00314151
0.00313679
0.00313212
0.00312749
0.0031229
0.00311835
0.00311384
0.00310936
0.00310492
0.00310052
0.00309615
0.00309182
0.00308753
0.00308327
0.00307904
0.00307485
0.00307069
0.00306656
0.00306246
0.0030584
0.00305436
0.00305036
0.00304638
0.00304244
0.00303852
0.00303463
0.00303077
0.00302694
0.00302313
0.00301936
0.00301561
0.00301188
0.00300818
0.00300451
0.00300086
0.00299724
0.00299364
0.00299006
0.00298651
0.00298298
0.00297948
0.00297599
0.00297253
0.0029691
0.00296568
0.00296229
0.00295891
0.00295556
0.00295223
0.00294892
0.00294563
0.00294236
0.00293929
0.00293641
0.00293351
0.00293061
0.00292769
0.00292477
0.00292184
0.0029189
0.00291595
0.00291299
0.00291002
0.00290704
0.00290406
0.00290106
0.00289806
0.00289505
0.00289203
0.002889
0.00288597
0.00288292
0.00287987
0.00287681
0.00287374
0.00287067
0.00286758
0.00286449
0.00286139
0.00285828
0.00285517
0.00285205
0.00284892
0.00284578
0.00284264
0.00283949
0.00283633
0.00283316
0.00282999
0.00282682
0.00282363
0.00282044
0.00281724
0.00281404
0.00281083
0.00280761
0.00280439
0.00280116
0.00279793
0.00279469
0.00279144
0.00278819
0.00278493
0.00278167
0.0027784
0.00277513
0.00277185
0.00276857
0.00276528
0.00276199
0.0027587
0.00275539
0.00275209
0.00274878
0.00274546
0.00274214
0.00273882
0.00273549
0.00273216
0.00272883
0.00272549
0.00272215
0.0027188
0.00271545
0.0027121
0.00270874
0.00270539
0.00270202
0.00269866
0.00269529
0.00269192
0.00268855
0.00268518
0.00268179
0.00267842
0.00267503
0.00267165
0.00266826
0.00266488
0.00266148
0.00265809
0.00265469
0.0026513
0.0026479
0.00264451
0.0026411
0.00263771
0.0026343
0.0026309
0.00262749
0.00262409
0.00262068
0.00261728
0.00261387
0.00261047
0.00260705
0.00260365
0.00260024
0.00259683
0.00259342
0.00259002
0.00258661
0.0025832
0.00257979
0.00257639
0.00257298
0.00256958
0.00256617
0.00256277
0.00255936
0.00255596
0.00255256
0.00254916
0.00254576
0.00254236
0.00253897
0.00253557
0.00253218
0.00252879
0.0025254
0.00252201
0.00251863
0.00251524
0.00251186
0.00250848
0.00250511
0.00250172
0.00249836
0.00249498
0.00249162
0.00248825
0.00248489
0.00248152
0.00247817
0.00247481
0.00247147
0.00246811
0.00246477
0.00246142
0.00245809
0.00245475
0.00245142
0.00244809
0.00244477
0.00244144
0.00243813
0.00243481
0.0024315
0.00242819
0.00242489
0.00242159
0.0024183
0.002415
0.00241172
0.00240843
0.00240516
0.00240188
0.00239861
0.00239534
0.00239209
0.00238883
0.00238558
0.00238233
0.00237909
0.00237585
0.00237262
0.00236939
0.00236617
0.00236294
0.00235973
0.00235652
0.00235333
0.00235012
0.00234658
0.00234271
0.00233892
0.00233516
0.00233147
0.00232782
0.00232423
0.00232069
0.0023172
0.00231375
0.00231036
0.002307
0.0023037
0.00230043
0.00229722
0.00229403
0.0022909
0.0022878
0.00228474
0.00228172
0.00227874
0.00227579
0.00227288
0.00227
0.00226717
0.00226435
0.00226158
0.00225884
0.00225613
0.00225345
0.0022508
0.00224818
0.00224559
0.00224302
0.00224049
0.00223798
0.00223551
0.00223305
0.00223062
0.00222822
0.00222584
0.00222349
0.00222116
0.00221885
0.00221657
0.00221431
0.00221208
0.00220986
0.00220767
0.0022055
0.00220335
0.00220122
0.00219911
0.00219701
0.00219495
0.00219289
0.00219086
0.00218884
0.00218685
0.00218487
0.00218291
0.00218096
0.00217904
0.00217712
0.00217524
0.00217335
0.0021715
0.00216964
0.00216782
0.00216599
0.00216421
0.0021624
0.00216065
0.00215887
0.00215715
0.00215539
0.00215371
0.00215196
0.00215031
0.00214858
0.00214697
0.00214525
0.00214367
0.00214197
0.00214042
0.00213873
0.0021372
0.00213554
0.00213399
0.00213242
0.00213072
0.00212948
0.00212726
0.00212695
0.00212383
)
;
    }
    symmetry
    {
        type            symmetryPlane;
    }
    frontAndBack
    {
        type            empty;
    }
}


// ************************************************************************* //
