/*--------------------------------*- C++ -*----------------------------------*\
| =========                 |                                                 |
| \\      /  F ield         | OpenFOAM: The Open Source CFD Toolbox           |
|  \\    /   O peration     | Version:  v2012                                 |
|   \\  /    A nd           | Website:  www.openfoam.com                      |
|    \\/     M anipulation  |                                                 |
\*---------------------------------------------------------------------------*/
FoamFile
{
    version     2.0;
    format      ascii;
    class       volScalarField;
    location    "13.5";
    object      nut;
}
// * * * * * * * * * * * * * * * * * * * * * * * * * * * * * * * * * * * * * //

dimensions      [0 2 -1 0 0 0 0];


internalField   nonuniform List<scalar> 
209825
(
1.21957e-07
1.13686e-07
1.07855e-07
1.03989e-07
1.0126e-07
9.92378e-08
9.76603e-08
9.64129e-08
9.53835e-08
9.45424e-08
9.38203e-08
9.32191e-08
9.26892e-08
9.22384e-08
9.18364e-08
9.14951e-08
9.11814e-08
9.09148e-08
9.06636e-08
9.04511e-08
9.0247e-08
9.00737e-08
8.99069e-08
8.97691e-08
8.96307e-08
8.95164e-08
8.94019e-08
8.93119e-08
8.92142e-08
8.91355e-08
8.90637e-08
8.90034e-08
8.89409e-08
8.88888e-08
8.88286e-08
8.87812e-08
8.87399e-08
8.8702e-08
8.8662e-08
8.86303e-08
8.85899e-08
8.8558e-08
8.85285e-08
8.85023e-08
8.84755e-08
8.84498e-08
8.84304e-08
8.84032e-08
8.83833e-08
8.83647e-08
8.83393e-08
8.83112e-08
8.83047e-08
8.82951e-08
8.82599e-08
8.82646e-08
8.82475e-08
8.82301e-08
8.82069e-08
8.82199e-08
8.82199e-08
8.82197e-08
8.82216e-08
8.82532e-08
8.8254e-08
8.8254e-08
8.82587e-08
8.82832e-08
8.83305e-08
8.83121e-08
8.83097e-08
8.83555e-08
8.83993e-08
8.84323e-08
8.84865e-08
8.85234e-08
8.85463e-08
8.85806e-08
8.86108e-08
8.86695e-08
8.87195e-08
8.8794e-08
8.88573e-08
8.8935e-08
8.89876e-08
8.90968e-08
8.91593e-08
8.93199e-08
8.93887e-08
8.95953e-08
8.97041e-08
9.00194e-08
9.01195e-08
9.09167e-08
1.27349e-06
2.81505e-09
1.21957e-07
1.13688e-07
1.07856e-07
1.0399e-07
1.0126e-07
9.92383e-08
9.76606e-08
9.64129e-08
9.53833e-08
9.4542e-08
9.38197e-08
9.32184e-08
9.26883e-08
9.22374e-08
9.18354e-08
9.14939e-08
9.11802e-08
9.09135e-08
9.06622e-08
9.04496e-08
9.02455e-08
9.00721e-08
8.99052e-08
8.97674e-08
8.96289e-08
8.95147e-08
8.94001e-08
8.931e-08
8.92123e-08
8.91336e-08
8.90618e-08
8.90014e-08
8.89389e-08
8.88868e-08
8.88266e-08
8.87791e-08
8.87378e-08
8.86999e-08
8.86598e-08
8.86282e-08
8.85878e-08
8.85559e-08
8.85263e-08
8.85001e-08
8.84733e-08
8.84476e-08
8.84282e-08
8.8401e-08
8.83811e-08
8.83624e-08
8.8337e-08
8.8309e-08
8.83025e-08
8.82929e-08
8.82576e-08
8.82623e-08
8.82452e-08
8.82278e-08
8.82046e-08
8.82176e-08
8.82176e-08
8.82174e-08
8.82193e-08
8.82509e-08
8.82517e-08
8.82516e-08
8.82563e-08
8.82808e-08
8.83281e-08
8.83098e-08
8.83073e-08
8.83532e-08
8.83969e-08
8.84299e-08
8.84841e-08
8.85211e-08
8.85439e-08
8.85783e-08
8.86084e-08
8.86671e-08
8.87172e-08
8.87917e-08
8.8855e-08
8.89326e-08
8.89853e-08
8.90944e-08
8.9157e-08
8.93175e-08
8.93863e-08
8.95929e-08
8.97018e-08
9.00171e-08
9.01171e-08
9.09157e-08
1.27506e-06
2.85677e-09
1.21961e-07
1.13694e-07
1.07862e-07
1.03995e-07
1.01264e-07
9.92401e-08
9.76613e-08
9.64127e-08
9.53823e-08
9.45403e-08
9.38173e-08
9.32155e-08
9.26849e-08
9.22336e-08
9.18311e-08
9.14893e-08
9.11752e-08
9.09083e-08
9.06567e-08
9.04439e-08
9.02396e-08
9.0066e-08
8.98989e-08
8.97609e-08
8.96223e-08
8.95079e-08
8.93932e-08
8.9303e-08
8.92051e-08
8.91263e-08
8.90544e-08
8.89939e-08
8.89314e-08
8.88791e-08
8.88188e-08
8.87713e-08
8.873e-08
8.8692e-08
8.86518e-08
8.86201e-08
8.85797e-08
8.85477e-08
8.85181e-08
8.84919e-08
8.8465e-08
8.84393e-08
8.84199e-08
8.83927e-08
8.83727e-08
8.8354e-08
8.83286e-08
8.83005e-08
8.8294e-08
8.82843e-08
8.82491e-08
8.82538e-08
8.82366e-08
8.82192e-08
8.81959e-08
8.82089e-08
8.8209e-08
8.82088e-08
8.82106e-08
8.82421e-08
8.82429e-08
8.82429e-08
8.82476e-08
8.8272e-08
8.83193e-08
8.8301e-08
8.82985e-08
8.83443e-08
8.83881e-08
8.8421e-08
8.84752e-08
8.85122e-08
8.85351e-08
8.85694e-08
8.85995e-08
8.86582e-08
8.87082e-08
8.87828e-08
8.8846e-08
8.89237e-08
8.89763e-08
8.90855e-08
8.9148e-08
8.93085e-08
8.93774e-08
8.95838e-08
8.96927e-08
9.0008e-08
9.01077e-08
9.09091e-08
1.27978e-06
2.92336e-09
1.21967e-07
1.13706e-07
1.07872e-07
1.04002e-07
1.01269e-07
9.92432e-08
9.76625e-08
9.64124e-08
9.53806e-08
9.45374e-08
9.38135e-08
9.32107e-08
9.26792e-08
9.22272e-08
9.18241e-08
9.14817e-08
9.11671e-08
9.08997e-08
9.06477e-08
9.04345e-08
9.02298e-08
9.00559e-08
8.98885e-08
8.97502e-08
8.96113e-08
8.94967e-08
8.93817e-08
8.92913e-08
8.91932e-08
8.91142e-08
8.90421e-08
8.89815e-08
8.89188e-08
8.88665e-08
8.8806e-08
8.87584e-08
8.87169e-08
8.86788e-08
8.86386e-08
8.86068e-08
8.85662e-08
8.85342e-08
8.85045e-08
8.84783e-08
8.84513e-08
8.84255e-08
8.84061e-08
8.83788e-08
8.83588e-08
8.83401e-08
8.83146e-08
8.82865e-08
8.82799e-08
8.82703e-08
8.8235e-08
8.82396e-08
8.82224e-08
8.8205e-08
8.81816e-08
8.81945e-08
8.81946e-08
8.81944e-08
8.81961e-08
8.82276e-08
8.82283e-08
8.82283e-08
8.82331e-08
8.82574e-08
8.83047e-08
8.82865e-08
8.8284e-08
8.83296e-08
8.83734e-08
8.84063e-08
8.84604e-08
8.84975e-08
8.85204e-08
8.85548e-08
8.85848e-08
8.86435e-08
8.86935e-08
8.87679e-08
8.88312e-08
8.89089e-08
8.89615e-08
8.90706e-08
8.91331e-08
8.92936e-08
8.93624e-08
8.95686e-08
8.96775e-08
8.99928e-08
9.0092e-08
9.08979e-08
1.2875e-06
3.00881e-09
1.21975e-07
1.13721e-07
1.07887e-07
1.04013e-07
1.01276e-07
9.92476e-08
9.76644e-08
9.6412e-08
9.53783e-08
9.45335e-08
9.38081e-08
9.3204e-08
9.26714e-08
9.22184e-08
9.18143e-08
9.14711e-08
9.11558e-08
9.08877e-08
9.06351e-08
9.04213e-08
9.02161e-08
9.00417e-08
8.98739e-08
8.97352e-08
8.95959e-08
8.9481e-08
8.93657e-08
8.9275e-08
8.91766e-08
8.90974e-08
8.9025e-08
8.89642e-08
8.89012e-08
8.88487e-08
8.87881e-08
8.87403e-08
8.86986e-08
8.86604e-08
8.862e-08
8.85881e-08
8.85474e-08
8.85153e-08
8.84855e-08
8.84592e-08
8.84321e-08
8.84063e-08
8.83867e-08
8.83594e-08
8.83393e-08
8.83206e-08
8.82951e-08
8.82668e-08
8.82602e-08
8.82505e-08
8.82152e-08
8.82197e-08
8.82025e-08
8.8185e-08
8.81615e-08
8.81743e-08
8.81744e-08
8.81742e-08
8.81759e-08
8.82072e-08
8.8208e-08
8.82079e-08
8.82128e-08
8.82369e-08
8.82843e-08
8.82661e-08
8.82635e-08
8.8309e-08
8.83527e-08
8.83856e-08
8.84397e-08
8.84768e-08
8.84998e-08
8.85342e-08
8.85642e-08
8.86228e-08
8.86727e-08
8.87471e-08
8.88103e-08
8.88882e-08
8.89407e-08
8.90498e-08
8.91122e-08
8.92725e-08
8.93415e-08
8.95473e-08
8.96562e-08
8.99714e-08
9.00699e-08
9.08819e-08
1.29831e-06
3.11139e-09
1.21987e-07
1.13742e-07
1.07905e-07
1.04027e-07
1.01286e-07
9.92534e-08
9.76669e-08
9.64117e-08
9.53755e-08
9.45285e-08
9.38012e-08
9.31954e-08
9.26614e-08
9.2207e-08
9.18017e-08
9.14575e-08
9.11412e-08
9.08722e-08
9.06188e-08
9.04043e-08
9.01984e-08
9.00234e-08
8.9855e-08
8.97159e-08
8.95761e-08
8.94607e-08
8.9345e-08
8.92539e-08
8.91552e-08
8.90756e-08
8.90029e-08
8.89418e-08
8.88786e-08
8.88258e-08
8.8765e-08
8.87169e-08
8.8675e-08
8.86366e-08
8.8596e-08
8.85639e-08
8.85231e-08
8.84909e-08
8.8461e-08
8.84345e-08
8.84073e-08
8.83814e-08
8.83617e-08
8.83344e-08
8.83141e-08
8.82954e-08
8.82698e-08
8.82414e-08
8.82347e-08
8.8225e-08
8.81896e-08
8.8194e-08
8.81768e-08
8.81592e-08
8.81355e-08
8.81483e-08
8.81483e-08
8.81481e-08
8.81497e-08
8.81809e-08
8.81816e-08
8.81816e-08
8.81865e-08
8.82104e-08
8.82578e-08
8.82398e-08
8.82371e-08
8.82823e-08
8.8326e-08
8.83589e-08
8.84128e-08
8.84501e-08
8.84731e-08
8.85076e-08
8.85375e-08
8.8596e-08
8.86459e-08
8.87202e-08
8.87833e-08
8.88613e-08
8.89137e-08
8.90229e-08
8.90851e-08
8.92453e-08
8.93144e-08
8.95198e-08
8.96286e-08
8.99437e-08
9.00414e-08
9.08612e-08
1.31232e-06
3.23086e-09
1.22e-07
1.13767e-07
1.07928e-07
1.04044e-07
1.01298e-07
9.92608e-08
9.76702e-08
9.64114e-08
9.53721e-08
9.45225e-08
9.37928e-08
9.31849e-08
9.26491e-08
9.21931e-08
9.17863e-08
9.14407e-08
9.11232e-08
9.08532e-08
9.05988e-08
9.03834e-08
9.01767e-08
9.0001e-08
8.98319e-08
8.96921e-08
8.95517e-08
8.94358e-08
8.93195e-08
8.9228e-08
8.91288e-08
8.90488e-08
8.89757e-08
8.89142e-08
8.88507e-08
8.87976e-08
8.87365e-08
8.86881e-08
8.86459e-08
8.86073e-08
8.85664e-08
8.85342e-08
8.84932e-08
8.84608e-08
8.84308e-08
8.84041e-08
8.83768e-08
8.83507e-08
8.83309e-08
8.83035e-08
8.82831e-08
8.82643e-08
8.82387e-08
8.82102e-08
8.82033e-08
8.81936e-08
8.81581e-08
8.81623e-08
8.81452e-08
8.81275e-08
8.81036e-08
8.81161e-08
8.81162e-08
8.8116e-08
8.81174e-08
8.81485e-08
8.81491e-08
8.81491e-08
8.81541e-08
8.81778e-08
8.82253e-08
8.82073e-08
8.82046e-08
8.82495e-08
8.82932e-08
8.8326e-08
8.83798e-08
8.84172e-08
8.84403e-08
8.84748e-08
8.85047e-08
8.85631e-08
8.86128e-08
8.86871e-08
8.87501e-08
8.88282e-08
8.88805e-08
8.89897e-08
8.90517e-08
8.92118e-08
8.92809e-08
8.94858e-08
8.95946e-08
8.99095e-08
9.00062e-08
9.08356e-08
1.32963e-06
3.36786e-09
1.22017e-07
1.13797e-07
1.07955e-07
1.04065e-07
1.01312e-07
9.92696e-08
9.76741e-08
9.64112e-08
9.53682e-08
9.45154e-08
9.37829e-08
9.31726e-08
9.26345e-08
9.21766e-08
9.1768e-08
9.14209e-08
9.11019e-08
9.08306e-08
9.0575e-08
9.03586e-08
9.01509e-08
8.99743e-08
8.98043e-08
8.96638e-08
8.95227e-08
8.94061e-08
8.92892e-08
8.91971e-08
8.90975e-08
8.90169e-08
8.89433e-08
8.88814e-08
8.88174e-08
8.8764e-08
8.87026e-08
8.86539e-08
8.86113e-08
8.85724e-08
8.85312e-08
8.84987e-08
8.84575e-08
8.8425e-08
8.83948e-08
8.83679e-08
8.83404e-08
8.83142e-08
8.82943e-08
8.82668e-08
8.82462e-08
8.82273e-08
8.82016e-08
8.81729e-08
8.81659e-08
8.81562e-08
8.81206e-08
8.81246e-08
8.81074e-08
8.80896e-08
8.80655e-08
8.80779e-08
8.80779e-08
8.80778e-08
8.8079e-08
8.81099e-08
8.81104e-08
8.81105e-08
8.81155e-08
8.81389e-08
8.81864e-08
8.81687e-08
8.81658e-08
8.82104e-08
8.8254e-08
8.82868e-08
8.83404e-08
8.8378e-08
8.84012e-08
8.84357e-08
8.84655e-08
8.85238e-08
8.85734e-08
8.86476e-08
8.87105e-08
8.87887e-08
8.88409e-08
8.89501e-08
8.90119e-08
8.91718e-08
8.92411e-08
8.94453e-08
8.9554e-08
8.98688e-08
8.99643e-08
9.08051e-08
1.35034e-06
3.52374e-09
1.22035e-07
1.13833e-07
1.07987e-07
1.0409e-07
1.01329e-07
9.92801e-08
9.76789e-08
9.6411e-08
9.53638e-08
9.45072e-08
9.37714e-08
9.31583e-08
9.26176e-08
9.21574e-08
9.17468e-08
9.13978e-08
9.10772e-08
9.08044e-08
9.05474e-08
9.03297e-08
9.01209e-08
8.99432e-08
8.97723e-08
8.96308e-08
8.94889e-08
8.93716e-08
8.9254e-08
8.91612e-08
8.90609e-08
8.89798e-08
8.89056e-08
8.88432e-08
8.87787e-08
8.87249e-08
8.86631e-08
8.8614e-08
8.8571e-08
8.85317e-08
8.84903e-08
8.84575e-08
8.8416e-08
8.83833e-08
8.83529e-08
8.83258e-08
8.8298e-08
8.82717e-08
8.82516e-08
8.8224e-08
8.82032e-08
8.81843e-08
8.81584e-08
8.81295e-08
8.81223e-08
8.81126e-08
8.80769e-08
8.80807e-08
8.80635e-08
8.80455e-08
8.80211e-08
8.80333e-08
8.80334e-08
8.80332e-08
8.80342e-08
8.80649e-08
8.80654e-08
8.80654e-08
8.80706e-08
8.80935e-08
8.81412e-08
8.81237e-08
8.81206e-08
8.81648e-08
8.82083e-08
8.82411e-08
8.82946e-08
8.83324e-08
8.83556e-08
8.83902e-08
8.84198e-08
8.8478e-08
8.85274e-08
8.86016e-08
8.86644e-08
8.87428e-08
8.87948e-08
8.89039e-08
8.89655e-08
8.91252e-08
8.91946e-08
8.93981e-08
8.95067e-08
8.98213e-08
8.99154e-08
9.07695e-08
1.37454e-06
3.70052e-09
1.22057e-07
1.13873e-07
1.08024e-07
1.04118e-07
1.01349e-07
9.92922e-08
9.76845e-08
9.6411e-08
9.53589e-08
9.4498e-08
9.37585e-08
9.3142e-08
9.25984e-08
9.21356e-08
9.17226e-08
9.13715e-08
9.1049e-08
9.07744e-08
9.05159e-08
9.02968e-08
9.00866e-08
8.99078e-08
8.97357e-08
8.95932e-08
8.94503e-08
8.93321e-08
8.92137e-08
8.91201e-08
8.90192e-08
8.89374e-08
8.88625e-08
8.87996e-08
8.87345e-08
8.86802e-08
8.86179e-08
8.85684e-08
8.85249e-08
8.84853e-08
8.84434e-08
8.84103e-08
8.83685e-08
8.83355e-08
8.83049e-08
8.82776e-08
8.82496e-08
8.82231e-08
8.82027e-08
8.8175e-08
8.8154e-08
8.8135e-08
8.8109e-08
8.80799e-08
8.80725e-08
8.80627e-08
8.8027e-08
8.80305e-08
8.80133e-08
8.79951e-08
8.79704e-08
8.79823e-08
8.79824e-08
8.79822e-08
8.7983e-08
8.80134e-08
8.80138e-08
8.80139e-08
8.80192e-08
8.80417e-08
8.80894e-08
8.80722e-08
8.80689e-08
8.81126e-08
8.81561e-08
8.81888e-08
8.82421e-08
8.82801e-08
8.83034e-08
8.8338e-08
8.83676e-08
8.84256e-08
8.84748e-08
8.85489e-08
8.86115e-08
8.86901e-08
8.8742e-08
8.88511e-08
8.89124e-08
8.90719e-08
8.91414e-08
8.9344e-08
8.94526e-08
8.9767e-08
8.98594e-08
9.07288e-08
1.4023e-06
3.90076e-09
1.22081e-07
1.13918e-07
1.08065e-07
1.0415e-07
1.01371e-07
9.9306e-08
9.7691e-08
9.64112e-08
9.53535e-08
9.44878e-08
9.3744e-08
9.31238e-08
9.25769e-08
9.21111e-08
9.16954e-08
9.13419e-08
9.10172e-08
9.07407e-08
9.04804e-08
9.02596e-08
9.0048e-08
8.98678e-08
8.96944e-08
8.95508e-08
8.94068e-08
8.92876e-08
8.91682e-08
8.90738e-08
8.89721e-08
8.88895e-08
8.88139e-08
8.87503e-08
8.86846e-08
8.86298e-08
8.8567e-08
8.85169e-08
8.84729e-08
8.84329e-08
8.83905e-08
8.83571e-08
8.8315e-08
8.82817e-08
8.82508e-08
8.82233e-08
8.81949e-08
8.81682e-08
8.81476e-08
8.81197e-08
8.80984e-08
8.80793e-08
8.80532e-08
8.80238e-08
8.80163e-08
8.80064e-08
8.79706e-08
8.79738e-08
8.79566e-08
8.79382e-08
8.79131e-08
8.79247e-08
8.79248e-08
8.79246e-08
8.79251e-08
8.79553e-08
8.79556e-08
8.79557e-08
8.79611e-08
8.79832e-08
8.8031e-08
8.8014e-08
8.80105e-08
8.80538e-08
8.80971e-08
8.81298e-08
8.81828e-08
8.8221e-08
8.82444e-08
8.82792e-08
8.83085e-08
8.83664e-08
8.84154e-08
8.84893e-08
8.85518e-08
8.86306e-08
8.86823e-08
8.87914e-08
8.88524e-08
8.90116e-08
8.90813e-08
8.9283e-08
8.93914e-08
8.97056e-08
8.97961e-08
9.06828e-08
1.43369e-06
4.12771e-09
1.22107e-07
1.13968e-07
1.08111e-07
1.04185e-07
1.01396e-07
9.93216e-08
9.76984e-08
9.64115e-08
9.53477e-08
9.44766e-08
9.37281e-08
9.31036e-08
9.2553e-08
9.20839e-08
9.16652e-08
9.13091e-08
9.09819e-08
9.07032e-08
9.04409e-08
9.02183e-08
9.0005e-08
8.98233e-08
8.96485e-08
8.95035e-08
8.93584e-08
8.92381e-08
8.91176e-08
8.90222e-08
8.89196e-08
8.88362e-08
8.87597e-08
8.86954e-08
8.86289e-08
8.85735e-08
8.85101e-08
8.84595e-08
8.84148e-08
8.83744e-08
8.83315e-08
8.82977e-08
8.82552e-08
8.82216e-08
8.81904e-08
8.81626e-08
8.81338e-08
8.81069e-08
8.8086e-08
8.8058e-08
8.80364e-08
8.80172e-08
8.7991e-08
8.79613e-08
8.79535e-08
8.79435e-08
8.79076e-08
8.79106e-08
8.78933e-08
8.78747e-08
8.78491e-08
8.78605e-08
8.78605e-08
8.78604e-08
8.78605e-08
8.78904e-08
8.78906e-08
8.78907e-08
8.78963e-08
8.79178e-08
8.79657e-08
8.79491e-08
8.79453e-08
8.7988e-08
8.80312e-08
8.80638e-08
8.81166e-08
8.81551e-08
8.81786e-08
8.82134e-08
8.82426e-08
8.83003e-08
8.83491e-08
8.84229e-08
8.84852e-08
8.85641e-08
8.86157e-08
8.87247e-08
8.87854e-08
8.89443e-08
8.90141e-08
8.92147e-08
8.9323e-08
8.96369e-08
8.97255e-08
9.06313e-08
1.46874e-06
4.38518e-09
1.22135e-07
1.14023e-07
1.08162e-07
1.04225e-07
1.01424e-07
9.93392e-08
9.77069e-08
9.64122e-08
9.53414e-08
9.44644e-08
9.37106e-08
9.30815e-08
9.25267e-08
9.2054e-08
9.1632e-08
9.12728e-08
9.09429e-08
9.06618e-08
9.03973e-08
9.01727e-08
8.99575e-08
8.97741e-08
8.95977e-08
8.94514e-08
8.93048e-08
8.91833e-08
8.90616e-08
8.89652e-08
8.88616e-08
8.87772e-08
8.86997e-08
8.86346e-08
8.85674e-08
8.85113e-08
8.84473e-08
8.8396e-08
8.83507e-08
8.83097e-08
8.82663e-08
8.8232e-08
8.81891e-08
8.81552e-08
8.81236e-08
8.80954e-08
8.80663e-08
8.80391e-08
8.80179e-08
8.79897e-08
8.79678e-08
8.79485e-08
8.79221e-08
8.78921e-08
8.7884e-08
8.7874e-08
8.7838e-08
8.78406e-08
8.78233e-08
8.78044e-08
8.77783e-08
8.77894e-08
8.77894e-08
8.77893e-08
8.77891e-08
8.78186e-08
8.78187e-08
8.78187e-08
8.78246e-08
8.78455e-08
8.78934e-08
8.78772e-08
8.78732e-08
8.79152e-08
8.79583e-08
8.79909e-08
8.80433e-08
8.8082e-08
8.81057e-08
8.81406e-08
8.81696e-08
8.82271e-08
8.82757e-08
8.83493e-08
8.84113e-08
8.84906e-08
8.85419e-08
8.86508e-08
8.87112e-08
8.88697e-08
8.89397e-08
8.91392e-08
8.92473e-08
8.9561e-08
8.96472e-08
9.05743e-08
1.50747e-06
4.67764e-09
1.22166e-07
1.14083e-07
1.08218e-07
1.04268e-07
1.01455e-07
9.93587e-08
9.77165e-08
9.64132e-08
9.53349e-08
9.44513e-08
9.36916e-08
9.30574e-08
9.24981e-08
9.20213e-08
9.15956e-08
9.12332e-08
9.09003e-08
9.06166e-08
9.03495e-08
9.01228e-08
8.99055e-08
8.97203e-08
8.95421e-08
8.93942e-08
8.92461e-08
8.91233e-08
8.90003e-08
8.89027e-08
8.8798e-08
8.87125e-08
8.8634e-08
8.8568e-08
8.84999e-08
8.84431e-08
8.83784e-08
8.83264e-08
8.82803e-08
8.82387e-08
8.81947e-08
8.816e-08
8.81166e-08
8.80822e-08
8.80503e-08
8.80217e-08
8.79921e-08
8.79647e-08
8.79432e-08
8.79148e-08
8.78925e-08
8.78731e-08
8.78465e-08
8.78161e-08
8.78077e-08
8.77976e-08
8.77616e-08
8.77638e-08
8.77464e-08
8.77272e-08
8.77007e-08
8.77113e-08
8.77114e-08
8.77112e-08
8.77107e-08
8.77398e-08
8.77398e-08
8.77398e-08
8.77458e-08
8.77661e-08
8.7814e-08
8.77983e-08
8.7794e-08
8.78353e-08
8.78783e-08
8.79107e-08
8.79629e-08
8.80018e-08
8.80256e-08
8.80606e-08
8.80895e-08
8.81467e-08
8.8195e-08
8.82684e-08
8.83303e-08
8.84097e-08
8.84608e-08
8.85697e-08
8.86297e-08
8.87877e-08
8.8858e-08
8.90562e-08
8.91641e-08
8.94775e-08
8.95613e-08
9.05115e-08
1.54985e-06
5.01027e-09
1.222e-07
1.14149e-07
1.08279e-07
1.04316e-07
1.01489e-07
9.93804e-08
9.77273e-08
9.64146e-08
9.5328e-08
9.44373e-08
9.36713e-08
9.30315e-08
9.24671e-08
9.1986e-08
9.15562e-08
9.11902e-08
9.08541e-08
9.05674e-08
9.02976e-08
9.00685e-08
8.98489e-08
8.96617e-08
8.94816e-08
8.93319e-08
8.91822e-08
8.90579e-08
8.89334e-08
8.88345e-08
8.87287e-08
8.86421e-08
8.85624e-08
8.84954e-08
8.84264e-08
8.83688e-08
8.83033e-08
8.82505e-08
8.82036e-08
8.81614e-08
8.81167e-08
8.80814e-08
8.80375e-08
8.80027e-08
8.79703e-08
8.79414e-08
8.79113e-08
8.78836e-08
8.78617e-08
8.78331e-08
8.78104e-08
8.77908e-08
8.7764e-08
8.77332e-08
8.77245e-08
8.77144e-08
8.76783e-08
8.76801e-08
8.76626e-08
8.76431e-08
8.76159e-08
8.76262e-08
8.76263e-08
8.76261e-08
8.76251e-08
8.76538e-08
8.76536e-08
8.76536e-08
8.76598e-08
8.76795e-08
8.77273e-08
8.77122e-08
8.77076e-08
8.77481e-08
8.77909e-08
8.78233e-08
8.78751e-08
8.79143e-08
8.79382e-08
8.79733e-08
8.8002e-08
8.80589e-08
8.8107e-08
8.81802e-08
8.82417e-08
8.83214e-08
8.83722e-08
8.84811e-08
8.85407e-08
8.86983e-08
8.87687e-08
8.89656e-08
8.90732e-08
8.93863e-08
8.94675e-08
9.04428e-08
1.59581e-06
5.38903e-09
1.22235e-07
1.14219e-07
1.08346e-07
1.04368e-07
1.01526e-07
9.94042e-08
9.77394e-08
9.64165e-08
9.5321e-08
9.44224e-08
9.36495e-08
9.30036e-08
9.24338e-08
9.19479e-08
9.15137e-08
9.11439e-08
9.08041e-08
9.05143e-08
9.02416e-08
9.00097e-08
8.97877e-08
8.95983e-08
8.9416e-08
8.92645e-08
8.9113e-08
8.89871e-08
8.88611e-08
8.87608e-08
8.86536e-08
8.85658e-08
8.84848e-08
8.84168e-08
8.83467e-08
8.82882e-08
8.82218e-08
8.81682e-08
8.81204e-08
8.80776e-08
8.80321e-08
8.79963e-08
8.79518e-08
8.79165e-08
8.78837e-08
8.78542e-08
8.78236e-08
8.77956e-08
8.77732e-08
8.77445e-08
8.77213e-08
8.77016e-08
8.76745e-08
8.76434e-08
8.76343e-08
8.7624e-08
8.75879e-08
8.75893e-08
8.75718e-08
8.75518e-08
8.7524e-08
8.75339e-08
8.75339e-08
8.75337e-08
8.75322e-08
8.75605e-08
8.75602e-08
8.75601e-08
8.75666e-08
8.75855e-08
8.76333e-08
8.76188e-08
8.76138e-08
8.76535e-08
8.76961e-08
8.77284e-08
8.77798e-08
8.78193e-08
8.78433e-08
8.78785e-08
8.7907e-08
8.79637e-08
8.80114e-08
8.80844e-08
8.81457e-08
8.82256e-08
8.82761e-08
8.83849e-08
8.84441e-08
8.86011e-08
8.86717e-08
8.88673e-08
8.89746e-08
8.92874e-08
8.93657e-08
9.03679e-08
1.64526e-06
5.82076e-09
1.22273e-07
1.14295e-07
1.08417e-07
1.04425e-07
1.01567e-07
9.94304e-08
9.77529e-08
9.6419e-08
9.53138e-08
9.44068e-08
9.36264e-08
9.29739e-08
9.23983e-08
9.19071e-08
9.14682e-08
9.10941e-08
9.07504e-08
9.04571e-08
9.01812e-08
8.99466e-08
8.97219e-08
8.95301e-08
8.93455e-08
8.91919e-08
8.90385e-08
8.89108e-08
8.87831e-08
8.86813e-08
8.85727e-08
8.84835e-08
8.84012e-08
8.8332e-08
8.82608e-08
8.82013e-08
8.8134e-08
8.80795e-08
8.80307e-08
8.79871e-08
8.79409e-08
8.79044e-08
8.78593e-08
8.78235e-08
8.77901e-08
8.77602e-08
8.7729e-08
8.77007e-08
8.76778e-08
8.76488e-08
8.76251e-08
8.76053e-08
8.7578e-08
8.75464e-08
8.75369e-08
8.75265e-08
8.74904e-08
8.74913e-08
8.74737e-08
8.74533e-08
8.74249e-08
8.74343e-08
8.74342e-08
8.7434e-08
8.7432e-08
8.74598e-08
8.74593e-08
8.74592e-08
8.74659e-08
8.74841e-08
8.75318e-08
8.7518e-08
8.75126e-08
8.75514e-08
8.75938e-08
8.76259e-08
8.76769e-08
8.77167e-08
8.77409e-08
8.77762e-08
8.78044e-08
8.78608e-08
8.79082e-08
8.79809e-08
8.80419e-08
8.8122e-08
8.81723e-08
8.82809e-08
8.83397e-08
8.84961e-08
8.8567e-08
8.8761e-08
8.8868e-08
8.91804e-08
8.92557e-08
9.02867e-08
1.69803e-06
6.3133e-09
1.22313e-07
1.14377e-07
1.08495e-07
1.04486e-07
1.01611e-07
9.9459e-08
9.7768e-08
9.64222e-08
9.53066e-08
9.43904e-08
9.3602e-08
9.29424e-08
9.23604e-08
9.18636e-08
9.14195e-08
9.10409e-08
9.06931e-08
9.03961e-08
9.01167e-08
8.98789e-08
8.96514e-08
8.9457e-08
8.92699e-08
8.91141e-08
8.89586e-08
8.8829e-08
8.86995e-08
8.8596e-08
8.84859e-08
8.83952e-08
8.83114e-08
8.8241e-08
8.81686e-08
8.81081e-08
8.80398e-08
8.79842e-08
8.79344e-08
8.789e-08
8.78429e-08
8.78058e-08
8.776e-08
8.77235e-08
8.76896e-08
8.76592e-08
8.76273e-08
8.75986e-08
8.75753e-08
8.7546e-08
8.75218e-08
8.75018e-08
8.74742e-08
8.74422e-08
8.74322e-08
8.74218e-08
8.73857e-08
8.73861e-08
8.73682e-08
8.73474e-08
8.73183e-08
8.73271e-08
8.73271e-08
8.73269e-08
8.73243e-08
8.73516e-08
8.73508e-08
8.73507e-08
8.73577e-08
8.7375e-08
8.74226e-08
8.74096e-08
8.74038e-08
8.74416e-08
8.74837e-08
8.75157e-08
8.75662e-08
8.76064e-08
8.76307e-08
8.76661e-08
8.76941e-08
8.77502e-08
8.77972e-08
8.78696e-08
8.79302e-08
8.80107e-08
8.80606e-08
8.81691e-08
8.82274e-08
8.83832e-08
8.84542e-08
8.86467e-08
8.87532e-08
8.90653e-08
8.91374e-08
9.01989e-08
1.75391e-06
6.8756e-09
1.22355e-07
1.14463e-07
1.08577e-07
1.04551e-07
1.01658e-07
9.94903e-08
9.77846e-08
9.64262e-08
9.52994e-08
9.43735e-08
9.35764e-08
9.29091e-08
9.23203e-08
9.18175e-08
9.13679e-08
9.09843e-08
9.0632e-08
9.0331e-08
9.00479e-08
8.98068e-08
8.95762e-08
8.93789e-08
8.91893e-08
8.9031e-08
8.88733e-08
8.87417e-08
8.86101e-08
8.85049e-08
8.83931e-08
8.83009e-08
8.82155e-08
8.81438e-08
8.80699e-08
8.80083e-08
8.79389e-08
8.78824e-08
8.78314e-08
8.77862e-08
8.77381e-08
8.77002e-08
8.76537e-08
8.76166e-08
8.75821e-08
8.75511e-08
8.75185e-08
8.74895e-08
8.74656e-08
8.7436e-08
8.74112e-08
8.7391e-08
8.73631e-08
8.73306e-08
8.73201e-08
8.73096e-08
8.72736e-08
8.72735e-08
8.72554e-08
8.7234e-08
8.72042e-08
8.72125e-08
8.72124e-08
8.72122e-08
8.72089e-08
8.72357e-08
8.72345e-08
8.72345e-08
8.72418e-08
8.72583e-08
8.73056e-08
8.72935e-08
8.72872e-08
8.73241e-08
8.73659e-08
8.73978e-08
8.74477e-08
8.74881e-08
8.75126e-08
8.75481e-08
8.75759e-08
8.76317e-08
8.76783e-08
8.77504e-08
8.78106e-08
8.78913e-08
8.79409e-08
8.80492e-08
8.8107e-08
8.82621e-08
8.83334e-08
8.85242e-08
8.86303e-08
8.8942e-08
8.90107e-08
9.01043e-08
1.81261e-06
7.51787e-09
1.22399e-07
1.14555e-07
1.08666e-07
1.04622e-07
1.0171e-07
9.95243e-08
9.78031e-08
9.64311e-08
9.52924e-08
9.4356e-08
9.35496e-08
9.28742e-08
9.22781e-08
9.17687e-08
9.13132e-08
9.09244e-08
9.05673e-08
9.02619e-08
8.99749e-08
8.97302e-08
8.94962e-08
8.9296e-08
8.91034e-08
8.89427e-08
8.87825e-08
8.86487e-08
8.8515e-08
8.84078e-08
8.82943e-08
8.82004e-08
8.81133e-08
8.80401e-08
8.79649e-08
8.79021e-08
8.78315e-08
8.77738e-08
8.77217e-08
8.76755e-08
8.76265e-08
8.75877e-08
8.75404e-08
8.75026e-08
8.74674e-08
8.74358e-08
8.74025e-08
8.7373e-08
8.73486e-08
8.73187e-08
8.72933e-08
8.72728e-08
8.72446e-08
8.72116e-08
8.72006e-08
8.71899e-08
8.7154e-08
8.71533e-08
8.7135e-08
8.71131e-08
8.70825e-08
8.70901e-08
8.709e-08
8.70898e-08
8.70859e-08
8.71121e-08
8.71105e-08
8.71105e-08
8.71181e-08
8.71337e-08
8.71808e-08
8.71696e-08
8.71628e-08
8.71986e-08
8.72401e-08
8.72718e-08
8.73212e-08
8.73619e-08
8.73865e-08
8.74222e-08
8.74497e-08
8.75051e-08
8.75513e-08
8.76231e-08
8.76828e-08
8.77638e-08
8.7813e-08
8.79212e-08
8.79785e-08
8.81327e-08
8.82042e-08
8.83934e-08
8.84989e-08
8.88102e-08
8.88754e-08
9.00025e-08
1.87377e-06
8.25173e-09
1.22445e-07
1.14652e-07
1.0876e-07
1.04698e-07
1.01765e-07
9.95612e-08
9.78235e-08
9.64371e-08
9.52856e-08
9.43381e-08
9.35218e-08
9.28376e-08
9.22337e-08
9.17174e-08
9.12556e-08
9.08611e-08
9.04988e-08
9.01889e-08
8.98976e-08
8.96491e-08
8.94115e-08
8.92081e-08
8.90125e-08
8.8849e-08
8.86862e-08
8.85501e-08
8.84141e-08
8.83049e-08
8.81894e-08
8.80937e-08
8.80048e-08
8.79301e-08
8.78533e-08
8.77892e-08
8.77174e-08
8.76585e-08
8.7605e-08
8.75579e-08
8.75078e-08
8.74682e-08
8.742e-08
8.73815e-08
8.73455e-08
8.73133e-08
8.72791e-08
8.72492e-08
8.72242e-08
8.71939e-08
8.71678e-08
8.71472e-08
8.71185e-08
8.7085e-08
8.70735e-08
8.70627e-08
8.70268e-08
8.70256e-08
8.70069e-08
8.69845e-08
8.6953e-08
8.69599e-08
8.69598e-08
8.69596e-08
8.6955e-08
8.69806e-08
8.69786e-08
8.69787e-08
8.69865e-08
8.70011e-08
8.70479e-08
8.70378e-08
8.70305e-08
8.70651e-08
8.71062e-08
8.71378e-08
8.71866e-08
8.72276e-08
8.72523e-08
8.72881e-08
8.73154e-08
8.73704e-08
8.74161e-08
8.74876e-08
8.75469e-08
8.7628e-08
8.76769e-08
8.77849e-08
8.78417e-08
8.7995e-08
8.80667e-08
8.82541e-08
8.83591e-08
8.86698e-08
8.87313e-08
8.98933e-08
1.93695e-06
9.09018e-09
1.22493e-07
1.14754e-07
1.08859e-07
1.04778e-07
1.01825e-07
9.96012e-08
9.7846e-08
9.64442e-08
9.52792e-08
9.43199e-08
9.34931e-08
9.27996e-08
9.21873e-08
9.16636e-08
9.1195e-08
9.07946e-08
9.04268e-08
9.01119e-08
8.98161e-08
8.95634e-08
8.93221e-08
8.91153e-08
8.89164e-08
8.87499e-08
8.85844e-08
8.84457e-08
8.83073e-08
8.81959e-08
8.80784e-08
8.79808e-08
8.78899e-08
8.78136e-08
8.77351e-08
8.76697e-08
8.75965e-08
8.75363e-08
8.74815e-08
8.74333e-08
8.7382e-08
8.73415e-08
8.72924e-08
8.72531e-08
8.72163e-08
8.71833e-08
8.71484e-08
8.71179e-08
8.70923e-08
8.70617e-08
8.70348e-08
8.70139e-08
8.69849e-08
8.69509e-08
8.69387e-08
8.69277e-08
8.68919e-08
8.689e-08
8.68711e-08
8.68481e-08
8.68158e-08
8.68219e-08
8.68218e-08
8.68216e-08
8.68161e-08
8.68411e-08
8.68387e-08
8.68387e-08
8.68469e-08
8.68605e-08
8.6907e-08
8.68979e-08
8.68901e-08
8.69235e-08
8.69642e-08
8.69956e-08
8.70438e-08
8.7085e-08
8.71099e-08
8.71458e-08
8.71728e-08
8.72274e-08
8.72727e-08
8.73438e-08
8.74025e-08
8.74839e-08
8.75324e-08
8.76401e-08
8.76964e-08
8.78488e-08
8.79206e-08
8.81062e-08
8.82105e-08
8.85207e-08
8.85784e-08
8.97763e-08
2.00162e-06
1.00479e-08
1.22543e-07
1.14861e-07
1.08965e-07
1.04864e-07
1.01889e-07
9.96444e-08
9.78708e-08
9.64528e-08
9.52734e-08
9.43015e-08
9.34635e-08
9.27601e-08
9.2139e-08
9.16074e-08
9.11317e-08
9.07248e-08
9.03511e-08
9.0031e-08
8.97303e-08
8.94734e-08
8.9228e-08
8.90175e-08
8.88151e-08
8.86455e-08
8.8477e-08
8.83357e-08
8.81947e-08
8.8081e-08
8.79613e-08
8.78617e-08
8.77687e-08
8.76906e-08
8.76104e-08
8.75434e-08
8.74689e-08
8.74073e-08
8.7351e-08
8.73016e-08
8.72492e-08
8.72077e-08
8.71576e-08
8.71174e-08
8.70797e-08
8.7046e-08
8.70101e-08
8.69791e-08
8.69529e-08
8.69218e-08
8.68942e-08
8.6873e-08
8.68435e-08
8.6809e-08
8.67961e-08
8.6785e-08
8.67491e-08
8.67467e-08
8.67274e-08
8.67038e-08
8.66707e-08
8.66759e-08
8.66758e-08
8.66755e-08
8.66693e-08
8.66935e-08
8.66907e-08
8.66907e-08
8.66991e-08
8.67117e-08
8.67578e-08
8.67499e-08
8.67415e-08
8.67736e-08
8.68139e-08
8.68451e-08
8.68926e-08
8.69341e-08
8.69591e-08
8.69951e-08
8.70219e-08
8.70761e-08
8.71208e-08
8.71915e-08
8.72496e-08
8.73312e-08
8.73793e-08
8.74868e-08
8.75425e-08
8.76938e-08
8.77658e-08
8.79495e-08
8.80532e-08
8.83628e-08
8.84166e-08
8.96512e-08
2.06716e-06
1.11416e-08
1.22594e-07
1.14974e-07
1.09077e-07
1.04956e-07
1.01957e-07
9.96911e-08
9.7898e-08
9.64629e-08
9.52684e-08
9.42831e-08
9.34332e-08
9.27193e-08
9.20888e-08
9.15489e-08
9.10655e-08
9.06519e-08
9.0272e-08
8.99463e-08
8.96404e-08
8.93788e-08
8.91291e-08
8.89148e-08
8.87087e-08
8.85358e-08
8.83641e-08
8.822e-08
8.80762e-08
8.796e-08
8.7838e-08
8.77362e-08
8.7641e-08
8.7561e-08
8.7479e-08
8.74104e-08
8.73344e-08
8.72713e-08
8.72135e-08
8.71629e-08
8.71091e-08
8.70666e-08
8.70155e-08
8.69743e-08
8.69356e-08
8.69011e-08
8.68643e-08
8.68327e-08
8.68058e-08
8.67743e-08
8.67458e-08
8.67243e-08
8.66944e-08
8.66593e-08
8.66457e-08
8.66343e-08
8.65984e-08
8.65954e-08
8.65757e-08
8.65516e-08
8.65175e-08
8.65219e-08
8.65217e-08
8.65215e-08
8.65142e-08
8.65378e-08
8.65344e-08
8.65344e-08
8.65432e-08
8.65547e-08
8.66002e-08
8.65935e-08
8.65846e-08
8.66154e-08
8.66552e-08
8.66862e-08
8.6733e-08
8.67747e-08
8.67998e-08
8.6836e-08
8.68624e-08
8.69162e-08
8.69603e-08
8.70307e-08
8.70882e-08
8.71699e-08
8.72176e-08
8.73248e-08
8.738e-08
8.75301e-08
8.76022e-08
8.77841e-08
8.78869e-08
8.81957e-08
8.82456e-08
8.95176e-08
2.13286e-06
1.23892e-08
1.22646e-07
1.15092e-07
1.09195e-07
1.05053e-07
1.0203e-07
9.97414e-08
9.79279e-08
9.64747e-08
9.52641e-08
9.42647e-08
9.34023e-08
9.26774e-08
9.20369e-08
9.14882e-08
9.09967e-08
9.05758e-08
9.01893e-08
8.98577e-08
8.95464e-08
8.92799e-08
8.90256e-08
8.88071e-08
8.85971e-08
8.84207e-08
8.82457e-08
8.80986e-08
8.79519e-08
8.7833e-08
8.77086e-08
8.76044e-08
8.75069e-08
8.74249e-08
8.73409e-08
8.72707e-08
8.7193e-08
8.71283e-08
8.70689e-08
8.7017e-08
8.69619e-08
8.69182e-08
8.6866e-08
8.68238e-08
8.6784e-08
8.67487e-08
8.67108e-08
8.66787e-08
8.6651e-08
8.6619e-08
8.65896e-08
8.65678e-08
8.65374e-08
8.65017e-08
8.64873e-08
8.64758e-08
8.64398e-08
8.6436e-08
8.6416e-08
8.63913e-08
8.63563e-08
8.63597e-08
8.63595e-08
8.63592e-08
8.6351e-08
8.63739e-08
8.63698e-08
8.63699e-08
8.63789e-08
8.63893e-08
8.64343e-08
8.64288e-08
8.64193e-08
8.64488e-08
8.6488e-08
8.65188e-08
8.65649e-08
8.66067e-08
8.6632e-08
8.66683e-08
8.66944e-08
8.67477e-08
8.67913e-08
8.68611e-08
8.6918e-08
8.69999e-08
8.70471e-08
8.7154e-08
8.72086e-08
8.73575e-08
8.74297e-08
8.76096e-08
8.77115e-08
8.80193e-08
8.80655e-08
8.9375e-08
2.1979e-06
1.38106e-08
1.227e-07
1.15214e-07
1.09319e-07
1.05156e-07
1.02108e-07
9.97956e-08
9.79606e-08
9.64884e-08
9.5261e-08
9.42467e-08
9.33711e-08
9.26344e-08
9.19833e-08
9.14253e-08
9.09252e-08
9.04968e-08
9.01033e-08
8.97654e-08
8.94483e-08
8.91766e-08
8.89175e-08
8.86947e-08
8.84805e-08
8.83003e-08
8.81218e-08
8.79714e-08
8.78216e-08
8.77e-08
8.75729e-08
8.74663e-08
8.73663e-08
8.72822e-08
8.71961e-08
8.71241e-08
8.70447e-08
8.69784e-08
8.69172e-08
8.6864e-08
8.68073e-08
8.67625e-08
8.67091e-08
8.66658e-08
8.66249e-08
8.65887e-08
8.65497e-08
8.65169e-08
8.64884e-08
8.64559e-08
8.64256e-08