/*--------------------------------*- C++ -*----------------------------------*\
| =========                 |                                                 |
| \\      /  F ield         | OpenFOAM: The Open Source CFD Toolbox           |
|  \\    /   O peration     | Version:  v2012                                 |
|   \\  /    A nd           | Website:  www.openfoam.com                      |
|    \\/     M anipulation  |                                                 |
\*---------------------------------------------------------------------------*/
FoamFile
{
    version     2.0;
    format      ascii;
    class       volScalarField;
    location    "56";
    object      epsilon;
}
// * * * * * * * * * * * * * * * * * * * * * * * * * * * * * * * * * * * * * //

dimensions      [0 2 -3 0 0 0 0];


internalField   nonuniform List<scalar> 
209825
(
0.759933
0.634027
0.541591
0.474742
0.426253
0.390544
0.363635
0.342922
0.326601
0.313529
0.302842
0.294014
0.286583
0.280299
0.274882
0.270219
0.26612
0.262546
0.259351
0.256537
0.253985
0.251723
0.249644
0.247792
0.246069
0.244532
0.243086
0.241795
0.240565
0.239471
0.238416
0.237481
0.236568
0.235764
0.23497
0.234273
0.233578
0.232975
0.232362
0.231836
0.231295
0.230833
0.230353
0.229951
0.229526
0.22917
0.228791
0.228479
0.228144
0.227862
0.227568
0.22732
0.227057
0.226836
0.226594
0.226412
0.226198
0.226025
0.225845
0.225686
0.225527
0.225391
0.225255
0.225138
0.225018
0.224925
0.224808
0.224738
0.224644
0.224591
0.224508
0.224462
0.224393
0.224356
0.224297
0.224268
0.224219
0.224198
0.224161
0.224149
0.224122
0.224127
0.22412
0.224144
0.224144
0.224192
0.224197
0.224262
0.224281
0.224371
0.224396
0.224535
0.224595
0.227262
3.20635
603.526
0.759933
0.634027
0.54159
0.47474
0.42625
0.390539
0.363629
0.342915
0.326593
0.31352
0.302833
0.294004
0.286572
0.280288
0.27487
0.270207
0.266108
0.262533
0.259338
0.256524
0.253972
0.25171
0.24963
0.247778
0.246056
0.244519
0.243072
0.241781
0.240551
0.239457
0.238402
0.237467
0.236553
0.23575
0.234955
0.234259
0.233563
0.23296
0.232348
0.231821
0.23128
0.230819
0.230338
0.229936
0.229511
0.229155
0.228776
0.228464
0.228129
0.227847
0.227553
0.227305
0.227041
0.226821
0.226579
0.226396
0.226182
0.22601
0.22583
0.22567
0.225511
0.225376
0.22524
0.225122
0.225002
0.224909
0.224793
0.224723
0.224629
0.224576
0.224492
0.224446
0.224377
0.224341
0.224281
0.224252
0.224203
0.224183
0.224145
0.224134
0.224107
0.224111
0.224104
0.224128
0.224128
0.224176
0.224181
0.224246
0.224265
0.224355
0.22438
0.22452
0.224579
0.22725
3.2112
600.206
0.759934
0.634028
0.541588
0.474732
0.426234
0.390518
0.363602
0.342883
0.326557
0.313481
0.302791
0.293959
0.286526
0.28024
0.274821
0.270156
0.266056
0.26248
0.259284
0.25647
0.253917
0.251654
0.249574
0.247721
0.245998
0.244461
0.243013
0.241722
0.240492
0.239398
0.238342
0.237407
0.236493
0.235689
0.234894
0.234198
0.233502
0.232899
0.232286
0.23176
0.231218
0.230756
0.230276
0.229873
0.229448
0.229092
0.228713
0.228401
0.228066
0.227784
0.227489
0.227241
0.226978
0.226757
0.226515
0.226332
0.226118
0.225945
0.225766
0.225606
0.225447
0.225311
0.225175
0.225058
0.224938
0.224845
0.224728
0.224658
0.224564
0.224511
0.224427
0.224381
0.224312
0.224276
0.224216
0.224187
0.224138
0.224117
0.22408
0.224068
0.224041
0.224045
0.224038
0.224062
0.224062
0.22411
0.224114
0.224179
0.224199
0.224289
0.224314
0.224453
0.224512
0.227191
3.22014
596.23
0.759935
0.63403
0.541584
0.474717
0.426209
0.390481
0.363556
0.342829
0.326497
0.313414
0.30272
0.293885
0.286448
0.280159
0.274737
0.270071
0.265968
0.262391
0.259193
0.256377
0.253824
0.251559
0.249478
0.247625
0.245901
0.244363
0.242915
0.241623
0.240392
0.239297
0.238242
0.237305
0.236391
0.235587
0.234792
0.234095
0.233399
0.232795
0.232182
0.231655
0.231113
0.230652
0.230171
0.229768
0.229342
0.228986
0.228607
0.228294
0.227959
0.227677
0.227382
0.227134
0.226871
0.22665
0.226407
0.226225
0.22601
0.225837
0.225658
0.225498
0.225338
0.225203
0.225066
0.224949
0.224828
0.224736
0.224619
0.224548
0.224454
0.224401
0.224318
0.224271
0.224202
0.224165
0.224106
0.224077
0.224027
0.224007
0.223969
0.223957
0.22393
0.223934
0.223927
0.22395
0.22395
0.223998
0.224002
0.224067
0.224086
0.224176
0.224201
0.22434
0.224399
0.227091
3.23379
592.385
0.759937
0.634032
0.541578
0.474697
0.426172
0.390429
0.363491
0.342753
0.326411
0.313321
0.30262
0.293779
0.286337
0.280044
0.274619
0.269949
0.265845
0.262265
0.259065
0.256247
0.253692
0.251426
0.249344
0.247489
0.245764
0.244225
0.242776
0.241482
0.240251
0.239156
0.238099
0.237162
0.236248
0.235442
0.234647
0.233949
0.233253
0.232648
0.232035
0.231508
0.230966
0.230503
0.230022
0.229619
0.229193
0.228836
0.228457
0.228144
0.227809
0.227526
0.227231
0.226983
0.226719
0.226498
0.226255
0.226072
0.225858
0.225685
0.225505
0.225345
0.225185
0.225049
0.224913
0.224795
0.224674
0.224581
0.224464
0.224394
0.224299
0.224246
0.224162
0.224116
0.224047
0.22401
0.22395
0.223921
0.223871
0.22385
0.223813
0.223801
0.223773
0.223777
0.223769
0.223792
0.223792
0.223839
0.223844
0.223908
0.223927
0.224017
0.224041
0.22418
0.224239
0.226948
3.2526
589.02
0.759939
0.634036
0.541571
0.474671
0.426125
0.390362
0.363406
0.342654
0.3263
0.3132
0.30249
0.293642
0.286194
0.279896
0.274466
0.269792
0.265684
0.262101
0.258899
0.256078
0.253521
0.251253
0.249169
0.247313
0.245586
0.244045
0.242595
0.241301
0.240068
0.238972
0.237914
0.236976
0.236061
0.235255
0.234459
0.233761
0.233063
0.232458
0.231844
0.231317
0.230774
0.230311
0.22983
0.229426
0.229
0.228643
0.228262
0.227949
0.227613
0.227331
0.227035
0.226787
0.226522
0.226301
0.226058
0.225875
0.22566
0.225487
0.225307
0.225146
0.224986
0.22485
0.224713
0.224596
0.224475
0.224382
0.224264
0.224193
0.224099
0.224045
0.223961
0.223915
0.223845
0.223808
0.223748
0.223718
0.223669
0.223648
0.22361
0.223598
0.22357
0.223573
0.223565
0.223588
0.223587
0.223634
0.223638
0.223703
0.223721
0.22381
0.223835
0.223973
0.224032
0.226763
3.27699
586.299
0.759941
0.63404
0.541562
0.474639
0.426067
0.390279
0.363302
0.342532
0.326163
0.31305
0.30233
0.293473
0.286018
0.279713
0.274278
0.269599
0.265486
0.2619
0.258694
0.255871
0.25331
0.25104
0.248953
0.247095
0.245367
0.243824
0.242373
0.241077
0.239843
0.238745
0.237687
0.236748
0.235831
0.235024
0.234227
0.233528
0.23283
0.232224
0.23161
0.231081
0.230538
0.230074
0.229592
0.229188
0.228761
0.228403
0.228023
0.227709
0.227373
0.22709
0.226794
0.226545
0.22628
0.226059
0.225815
0.225632
0.225417
0.225243
0.225062
0.224902
0.224741
0.224605
0.224468
0.22435
0.224228
0.224135
0.224017
0.223946
0.223851
0.223797
0.223713
0.223667
0.223597
0.22356
0.223499
0.223469
0.223419
0.223398
0.22336
0.223347
0.223319
0.223322
0.223314
0.223336
0.223335
0.223381
0.223385
0.223449
0.223467
0.223556
0.22358
0.223718
0.223777
0.226535
3.30737
584.28
0.759944
0.634044
0.541551
0.4746
0.425997
0.390181
0.363179
0.342387
0.326
0.312873
0.30214
0.293272
0.285808
0.279495
0.274053
0.269369
0.265251
0.261659
0.25845
0.255623
0.253059
0.250786
0.248697
0.246836
0.245105
0.243561
0.242108
0.24081
0.239575
0.238475
0.237415
0.236475
0.235557
0.234749
0.233951
0.233251
0.232552
0.231945
0.23133
0.230801
0.230256
0.229792
0.229309
0.228904
0.228477
0.228119
0.227737
0.227423
0.227086
0.226803
0.226506
0.226257
0.225992
0.22577
0.225526
0.225342
0.225126
0.224952
0.224771
0.22461
0.224449
0.224313
0.224175
0.224057
0.223935
0.223841
0.223723
0.223652
0.223556
0.223502
0.223418
0.223371
0.223301
0.223263
0.223203
0.223173
0.223122
0.223101
0.223062
0.223049
0.223021
0.223023
0.223014
0.223035
0.223034
0.22308
0.223083
0.223147
0.223165
0.223253
0.223276
0.223413
0.223473
0.226264
3.34414
582.95
0.759947
0.63405
0.541539
0.474556
0.425917
0.390067
0.363036
0.342219
0.325811
0.312666
0.301919
0.293038
0.285564
0.279242
0.273792
0.269101
0.264977
0.26138
0.258166
0.255335
0.252767
0.250491
0.248398
0.246535
0.244802
0.243255
0.241799
0.2405
0.239262
0.238161
0.2371
0.236158
0.235239
0.234429
0.23363
0.232929
0.232229
0.231621
0.231004
0.230474
0.229929
0.229464
0.22898
0.228574
0.228146
0.227787
0.227405
0.227091
0.226753
0.226469
0.226172
0.225922
0.225656
0.225434
0.225189
0.225005
0.224789
0.224614
0.224433
0.224271
0.22411
0.223973
0.223835
0.223716
0.223594
0.2235
0.223381
0.22331
0.223214
0.223159
0.223074
0.223027
0.222957
0.222919
0.222858
0.222827
0.222776
0.222755
0.222716
0.222703
0.222674
0.222675
0.222666
0.222686
0.222685
0.22273
0.222733
0.222796
0.222813
0.2229
0.222923
0.22306
0.223119
0.225949
3.38768
582.244
0.759951
0.634056
0.541525
0.474506
0.425826
0.389938
0.362872
0.342027
0.325596
0.31243
0.301666
0.292772
0.285285
0.278953
0.273494
0.268795
0.264664
0.261061
0.257842
0.255006
0.252434
0.250154
0.248058
0.246191
0.244455
0.242905
0.241447
0.240145
0.238906
0.237803
0.236739
0.235796
0.234875
0.234064
0.233263
0.232561
0.231859
0.23125
0.230633
0.230101
0.229555
0.229089
0.228605
0.228198
0.227769
0.227409
0.227026
0.226711
0.226372
0.226087
0.22579
0.225539
0.225273
0.22505
0.224804
0.224619
0.224403
0.224228
0.224046
0.223884
0.223722
0.223585
0.223446
0.223327
0.223204
0.22311
0.222991
0.222919
0.222822
0.222767
0.222682
0.222635
0.222564
0.222525
0.222464
0.222433
0.222382
0.22236
0.22232
0.222307
0.222277
0.222278
0.222267
0.222287
0.222285
0.222329
0.222332
0.222394
0.222411
0.222497
0.22252
0.222656
0.222716
0.225591
3.4383
582.058
0.759955
0.634063
0.541509
0.47445
0.425724
0.389792
0.362689
0.341811
0.325353
0.312165
0.301382
0.292472
0.284971
0.278627
0.273159
0.26845
0.264312
0.260703
0.257477
0.254635
0.252059
0.249774
0.247674
0.245804
0.244064
0.242512
0.241051
0.239746
0.238504
0.237399
0.236334
0.235388
0.234466
0.233653
0.23285
0.232146
0.231443
0.230833
0.230214
0.229682
0.229134
0.228667
0.228181
0.227774
0.227344
0.226983
0.226599
0.226283
0.225944
0.225658
0.22536
0.225108
0.224841
0.224618
0.224371
0.224186
0.223969
0.223793
0.22361
0.223448
0.223286
0.223148
0.223008
0.222889
0.222765
0.222671
0.222551
0.222479
0.222381
0.222326
0.22224
0.222192
0.222121
0.222082
0.22202
0.221989
0.221937
0.221915
0.221874
0.221861
0.221831
0.221831
0.221819
0.221838
0.221836
0.221879
0.221881
0.221942
0.221959
0.222044
0.222066
0.222201
0.222261
0.225189
3.49631
582.264
0.75996
0.634071
0.541492
0.474387
0.425611
0.389631
0.362485
0.341572
0.325084
0.311871
0.301066
0.292138
0.284622
0.278265
0.272785
0.268067
0.263921
0.260303
0.257071
0.254223
0.251641
0.249351
0.247247
0.245373
0.243629
0.242074
0.240609
0.239302
0.238058
0.23695
0.235882
0.234934
0.23401
0.233195
0.232391
0.231685
0.23098
0.230369
0.229748
0.229214
0.228666
0.228197
0.22771
0.227302
0.22687
0.226509
0.226124
0.225807
0.225467
0.22518
0.224881
0.224628
0.22436
0.224136
0.223889
0.223703
0.223485
0.223309
0.223125
0.222963
0.2228
0.222661
0.222521
0.222401
0.222277
0.222182
0.222061
0.221988
0.221891
0.221835
0.221748
0.2217
0.221628
0.221589
0.221527
0.221495
0.221442
0.221419
0.221378
0.221364
0.221334
0.221333
0.22132
0.221338
0.221335
0.221377
0.221379
0.221439
0.221455
0.221539
0.221561
0.221695
0.221755
0.224742
3.56191
582.716
0.759965
0.63408
0.541474
0.474319
0.425487
0.389453
0.362261
0.341308
0.324787
0.311546
0.300719
0.291771
0.284238
0.277866
0.272374
0.267645
0.263489
0.259863
0.256623
0.253768
0.25118
0.248885
0.246776
0.244897
0.24315
0.24159
0.240123
0.238812
0.237565
0.236454
0.235384
0.234434
0.233507
0.23269
0.231884
0.231176
0.23047
0.229856
0.229234
0.228699
0.228149
0.227679
0.227191
0.226781
0.226348
0.225986
0.2256
0.225281
0.22494
0.224653
0.224352
0.224099
0.22383
0.223606
0.223358
0.22317
0.222952
0.222775
0.222591
0.222428
0.222263
0.222124
0.221983
0.221863
0.221738
0.221643
0.221521
0.221448
0.221349
0.221293
0.221206
0.221157
0.221084
0.221045
0.220982
0.22095
0.220896
0.220873
0.220831
0.220817
0.220786
0.220784
0.22077
0.220786
0.220783
0.220824
0.220825
0.220884
0.220899
0.220983
0.221003
0.221137
0.221197
0.22425
3.63527
583.261
0.75997
0.63409
0.541454
0.474245
0.425352
0.38926
0.362017
0.34102
0.324463
0.311191
0.300338
0.291368
0.283818
0.27743
0.271924
0.267183
0.263016
0.259381
0.256133
0.253271
0.250676
0.248375
0.246261
0.244377
0.242625
0.241061
0.23959
0.238276
0.237025
0.235912
0.234838
0.233886
0.232956
0.232137
0.231329
0.230619
0.229911
0.229296
0.228672
0.228135
0.227583
0.227112
0.226622
0.226211
0.225777
0.225413
0.225026
0.224706
0.224364
0.224076
0.223774
0.22352
0.22325
0.223025
0.222776
0.222588
0.222368
0.222191
0.222005
0.221842
0.221677
0.221537
0.221395
0.221275
0.221148
0.221052
0.22093
0.220856
0.220757
0.2207
0.220612
0.220563
0.220489
0.22045
0.220386
0.220353
0.220299
0.220275
0.220233
0.220217
0.220186
0.220183
0.220168
0.220183
0.220179
0.220218
0.220219
0.220277
0.220291
0.220373
0.220393
0.220526
0.220587
0.223713
3.71643
583.742
0.759976
0.634101
0.541433
0.474166
0.425206
0.38905
0.361752
0.340708
0.324111
0.310806
0.299925
0.290932
0.283361
0.276956
0.271435
0.266681
0.262503
0.258857
0.2556
0.25273
0.250129
0.247821
0.245701
0.243811
0.242055
0.240486
0.239011
0.237693
0.236439
0.235322
0.234246
0.23329
0.232358
0.231537
0.230726
0.230014
0.229303
0.228686
0.22806
0.227521
0.226968
0.226495
0.226004
0.225591
0.225156
0.224791
0.224402
0.224081
0.223738
0.223448
0.223145
0.22289
0.222619
0.222393
0.222143
0.221954
0.221734
0.221555
0.221369
0.221205
0.221039
0.220898
0.220755
0.220634
0.220507
0.220411
0.220288
0.220213
0.220112
0.220055
0.219967
0.219917
0.219843
0.219802
0.219738
0.219704
0.21965
0.219625
0.219582
0.219566
0.219534
0.219529
0.219513
0.219527
0.219522
0.21956
0.21956
0.219617
0.21963
0.219711
0.21973
0.219862
0.219923
0.223131
3.80536
584.008
0.759982
0.634112
0.541411
0.474081
0.425049
0.388825
0.361467
0.340372
0.323732
0.310391
0.29948
0.290461
0.282868
0.276444
0.270907
0.266138
0.261948
0.258292
0.255025
0.252146
0.249537
0.247222
0.245095
0.2432
0.241438
0.239865
0.238385
0.237063
0.235805
0.234685
0.233605
0.232646
0.231711
0.230887
0.230074
0.229359
0.228646
0.228027
0.227399
0.226859
0.226303
0.225829
0.225336
0.224921
0.224484
0.224118
0.223728
0.223406
0.223061
0.22277
0.222466
0.22221
0.221937
0.22171
0.221459
0.221269
0.221048
0.220868
0.220681
0.220516
0.220349
0.220208
0.220064
0.219942
0.219814
0.219717
0.219593
0.219517
0.219416
0.219358
0.219269
0.219218
0.219143
0.219102
0.219037
0.219003
0.218947
0.218922
0.218878
0.218861
0.218828
0.218823
0.218805
0.218818
0.218813
0.218848
0.218848
0.218904
0.218916
0.218995
0.219013
0.219144
0.219206
0.222502
3.90187
583.915
0.759988
0.634125
0.541387
0.47399
0.424881
0.388584
0.361161
0.340011
0.323325
0.309945
0.299001
0.289954
0.282338
0.275894
0.270339
0.265555
0.261352
0.257683
0.254406
0.251518
0.2489
0.246578
0.244444
0.242543
0.240775
0.239197
0.237712
0.236386
0.235123
0.233999
0.232916
0.231954
0.231016
0.230189
0.229372
0.228655
0.22794
0.227319
0.226688
0.226146
0.225588
0.225112
0.224617
0.224201
0.223762
0.223394
0.223002
0.222679
0.222333
0.222041
0.221735
0.221478
0.221204
0.220976
0.220724
0.220532
0.22031
0.22013
0.219941
0.219776
0.219607
0.219466
0.21932
0.219198
0.219068
0.218971
0.218846
0.21877
0.218667
0.218608
0.218518
0.218467
0.218391
0.21835
0.218283
0.218249
0.218192
0.218166
0.218121
0.218104
0.21807
0.218064
0.218044
0.218055
0.218049
0.218082
0.218082
0.218136
0.218147
0.218225
0.218242
0.218372
0.218435
0.221827
4.00563
583.33
0.759995
0.634138
0.541362
0.473893
0.424703
0.388327
0.360835
0.339626
0.32289
0.309468
0.29849
0.289413
0.281771
0.275305
0.269731
0.264931
0.260713
0.257032
0.253744
0.250846
0.248219
0.245888
0.243748
0.241839
0.240066
0.238482
0.236992
0.23566
0.234394
0.233265
0.232178
0.231213
0.230271
0.229441
0.228621
0.227902
0.227184
0.22656
0.225927
0.225382
0.224822
0.224344
0.223847
0.223429
0.222989
0.222619
0.222226
0.221901
0.221553
0.22126
0.220952
0.220694
0.220419
0.22019
0.219936
0.219744
0.21952
0.219339
0.219149
0.218983
0.218813
0.218671
0.218524
0.218401
0.21827
0.218172
0.218046
0.217969
0.217865
0.217805
0.217715
0.217662
0.217586
0.217544
0.217477
0.217441
0.217384
0.217357
0.217311
0.217293
0.217258
0.21725
0.217229
0.217239
0.217232
0.217263
0.217262
0.217315
0.217325
0.217401
0.217417
0.217545
0.217609
0.221106
4.11613
582.129
0.760002
0.634152
0.541336
0.473792
0.424514
0.388054
0.360488
0.339216
0.322427
0.308961
0.297945
0.288836
0.281167
0.274678
0.269084
0.264267
0.260033
0.256338
0.253038
0.250129
0.247493
0.245153
0.243005
0.241089
0.239309
0.237719
0.236223
0.234887
0.233615
0.232483
0.231391
0.230422
0.229477
0.228643
0.227821
0.227098
0.226377
0.22575
0.225115
0.224568
0.224006
0.223526
0.223027
0.222606
0.222164
0.221793
0.221397
0.221071
0.220721
0.220427
0.220118
0.219858
0.219581
0.219351
0.219096
0.218902
0.218678
0.218495
0.218304
0.218137
0.217966
0.217823
0.217675
0.217551
0.217419
0.21732
0.217193
0.217115
0.21701
0.216949
0.216857
0.216804
0.216727
0.216684
0.216616
0.21658
0.216521
0.216493
0.216446
0.216428
0.216392
0.216383
0.21636
0.216368
0.21636
0.216389
0.216388
0.216438
0.216447
0.216522
0.216537
0.216664
0.216728
0.220337
4.23268
580.21
0.76001
0.634168
0.54131
0.473685
0.424314
0.387766
0.360121
0.338782
0.321937
0.308423
0.297367
0.288224
0.280526
0.274012
0.268397
0.26356
0.25931
0.255601
0.252288
0.249367
0.246721
0.244372
0.242215
0.240292
0.238505
0.236908
0.235407
0.234065
0.232788
0.231651
0.230555
0.229582
0.228633
0.227796
0.22697
0.226244
0.22552
0.22489
0.224252
0.223703
0.223138
0.222656
0.222154
0.221732
0.221288
0.220914
0.220517
0.220189
0.219837
0.219541
0.219231
0.21897
0.218691
0.21846
0.218203
0.218008
0.217782
0.217599
0.217406
0.217238
0.217066
0.216921
0.216772
0.216648
0.216514
0.216414
0.216286
0.216207
0.216101
0.216039
0.215946
0.215893
0.215814
0.21577
0.215701
0.215664
0.215605
0.215576
0.215528
0.215508
0.215471
0.215461
0.215437
0.215443
0.215433
0.21546
0.215458
0.215507
0.215515
0.215588
0.215601
0.215727
0.215793
0.219519
4.35435
577.484
0.760018
0.634184
0.541282
0.473573
0.424105
0.387463
0.359735
0.338324
0.321419
0.307854
0.296755
0.287576
0.279848
0.273307
0.267669
0.262813
0.258545
0.254821
0.251494
0.248561
0.245903
0.243545
0.241379
0.239447
0.237653
0.236049
0.234542
0.233194
0.231912
0.23077
0.229669
0.228692
0.227739
0.226898
0.226068
0.225339
0.224612
0.223979
0.223338
0.222786
0.222219
0.221734
0.22123
0.220806
0.220359
0.219984
0.219585
0.219254
0.218901
0.218603
0.218291
0.218028
0.217748
0.217516
0.217257
0.217061
0.216834
0.216649
0.216455
0.216286
0.216112
0.215967
0.215816
0.21569
0.215555
0.215455
0.215325
0.215245
0.215138
0.215075
0.214981
0.214927
0.214847
0.214802
0.214732
0.214694
0.214634
0.214604
0.214554
0.214534
0.214496
0.214485
0.214459
0.214463
0.214452
0.214476
0.214474
0.214521
0.214527
0.214598
0.21461
0.214735
0.214802
0.218654
4.47998
573.875
0.760026
0.634201
0.541253
0.473456
0.423886
0.387144
0.359328
0.337842
0.320873
0.307255
0.296111
0.286894
0.279132
0.272563
0.266901
0.262024
0.257738
0.253997
0.250655
0.247709
0.24504
0.242671
0.240496
0.238556
0.236753
0.235142
0.233628
0.232274
0.230987
0.229839
0.228734
0.227752
0.226794
0.225949
0.225116
0.224383
0.223653
0.223017
0.222373
0.221817
0.221248
0.22076
0.220254
0.219827
0.219378
0.219001
0.218599
0.218267
0.217912
0.217612
0.217298
0.217034
0.216752
0.216518
0.216258
0.21606
0.215831
0.215645
0.21545
0.21528
0.215104
0.214958
0.214806
0.214679
0.214542
0.214441
0.214311
0.214229
0.21412
0.214057
0.213961
0.213906
0.213826
0.21378
0.213709
0.21367
0.213608
0.213577
0.213526
0.213505
0.213465
0.213453
0.213426
0.213428
0.213415
0.213437
0.213434
0.213478
0.213484
0.213553
0.213564
0.213686
0.213755
0.217739
4.60814
569.324
0.760034
0.634219
0.541224
0.473335
0.423656
0.38681
0.358902
0.337336
0.3203
0.306625
0.295433
0.286175
0.27838
0.271781
0.266093
0.261193
0.256888
0.253129
0.249772
0.246813
0.244131
0.241751
0.239566
0.237616
0.235806
0.234187
0.232666
0.231306
0.230012
0.228859
0.227748
0.226761
0.2258
0.22495
0.224113
0.223376
0.222642
0.222003
0.221356
0.220797
0.220225
0.219734
0.219225
0.218796
0.218345
0.217965
0.217562
0.217227
0.21687
0.216569
0.216252
0.215986
0.215702
0.215467
0.215205
0.215006
0.214776
0.214588
0.214391
0.21422
0.214043
0.213895
0.213741
0.213614
0.213475
0.213373
0.213241
0.213159
0.213049
0.212984
0.212887
0.212831
0.212749
0.212703
0.21263
0.21259
0.212527
0.212495
0.212443
0.212421
0.21238
0.212367
0.212337
0.212338
0.212323
0.212342
0.212338
0.212381
0.212385
0.212451
0.212461
0.212582
0.212653
0.216773
4.73715
563.783
0.760043
0.634238
0.541194
0.473209
0.423418
0.386462
0.358456
0.336806
0.319699
0.305965
0.294723
0.285422
0.27759
0.270959
0.265245
0.260321
0.255995
0.252218
0.248845
0.245871
0.243177
0.240784
0.238589
0.23663
0.23481
0.233184
0.231655
0.230288
0.228988
0.227829
0.226713
0.22572
0.224754
0.2239
0.223058
0.222318
0.22158
0.220937
0.220287
0.219725
0.219149
0.218657
0.218145
0.217713
0.217259
0.216877
0.216471
0.216134
0.215775
0.215472
0.215153
0.214886
0.214599
0.214363
0.214099
0.213898
0.213666
0.213477
0.213278
0.213106
0.212927
0.212779
0.212623
0.212495
0.212354
0.212251
0.212118
0.212034
0.211922
0.211856
0.211758
0.211701
0.211618
0.211571
0.211497
0.211456
0.211391
0.211358
0.211305
0.211281
0.211239
0.211225
0.211194
0.211192
0.211176
0.211192
0.211187
0.211227
0.21123
0.211294
0.211302
0.211422
0.211494
0.215756
4.86501
557.218
0.760051
0.634259
0.541164
0.473079
0.42317
0.386099
0.357991
0.336253
0.319072
0.305274
0.293979
0.284633
0.276763
0.270099
0.264356
0.259407
0.255059
0.251263
0.247873
0.244884
0.242176
0.239771
0.237564
0.235595
0.233767
0.232131
0.230595
0.229221
0.227914
0.226749
0.225627
0.224629
0.223658
0.222799
0.221953
0.221209
0.220467
0.21982
0.219166
0.218601
0.218022
0.217526
0.217011
0.216577
0.21612
0.215736
0.215327
0.214988
0.214627
0.214321
0.214
0.213731
0.213443
0.213205
0.212939
0.212736
0.212503
0.212312
0.212111
0.211938
0.211757
0.211608
0.21145
0.211321
0.211178
0.211074
0.21094
0.210854
0.210741
0.210674
0.210575
0.210516
0.210432
0.210384
0.210308
0.210266
0.2102
0.210166
0.210111
0.210087
0.210043
0.210027
0.209995
0.209991
0.209973
0.209987
0.20998
0.210017
0.210019
0.210081
0.210088
0.210206
0.21028
0.214687
4.98947
549.603
0.76006
0.63428
0.541133
0.472944
0.422913
0.385722
0.357507
0.335677
0.318418
0.304554
0.293203
0.28381
0.275899
0.2692
0.263427
0.258452
0.254082
0.250265
0.246857
0.243852
0.241129
0.238712
0.236493
0.234513
0.232675
0.231031
0.229486
0.228104
0.226791
0.225619
0.224491
0.223488
0.222511
0.221648
0.220797
0.220048
0.219302
0.218651
0.217994
0.217425
0.216843
0.216344
0.215826
0.215388
0.214929
0.214542
0.214131
0.213789
0.213425
0.213118
0.212794
0.212523
0.212233
0.211993
0.211725
0.21152
0.211285
0.211093
0.210891
0.210716
0.210534
0.210382
0.210223
0.210093
0.209948
0.209843
0.209707
0.20962
0.209505
0.209437
0.209336
0.209276
0.209191
0.209141
0.209065
0.209022
0.208954
0.208919
0.208863
0.208837
0.208791
0.208774
0.20874
0.208735
0.208714
0.208726
0.208717
0.208752
0.208753
0.208811
0.208817
0.208933
0.209009
0.213565
5.10799
540.922
0.760069
0.634302
0.541103
0.472806
0.422648
0.385332
0.357005
0.335078
0.317737
0.303804
0.292395
0.282951
0.274998
0.268263
0.262459
0.257456
0.253061
0.249223
0.245797
0.242774
0.240037
0.237606
0.235375
0.233384
0.231535
0.229882
0.228329
0.226939
0.225618
0.224439
0.223306
0.222296
0.221314
0.220445
0.219589
0.218836
0.218085
0.217431
0.216769
0.216197
0.215611
0.215109
0.214588
0.214147
0.213685
0.213295
0.212881
0.212537
0.212171
0.211861
0.211535
0.211262
0.210969
0.210728
0.210458
0.210251
0.210014
0.20982
0.209616
0.20944
0.209255
0.209103
0.208941
0.20881
0.208664
0.208557
0.208419
0.208331
0.208215
0.208145
0.208043
0.207982
0.207895
0.207844
0.207766
0.207722
0.207653
0.207617
0.207558
0.207531
0.207484
0.207466
0.20743
0.207423
0.2074
0.207409
0.207399
0.20743
0.20743
0.207486
0.20749
0.207605
0.207683
0.212388
5.21776
531.164
0.760079
0.634325
0.541072
0.472665
0.422374
0.384928
0.356485
0.334456
0.31703
0.303025
0.291555
0.282059
0.274061
0.267288
0.26145
0.256419
0.251999
0.248138
0.244692
0.241652
0.238899
0.236454
0.23421
0.232207
0.230348
0.228685
0.227123
0.225725
0.224396
0.22321
0.22207
0.221054
0.220066
0.219192
0.218331
0.217573
0.216818
0.216159
0.215493
0.214917
0.214328
0.213822
0.213297
0.212854
0.212388
0.211996
0.211579
0.211233
0.210863
0.210551
0.210223
0.209948
0.209652
0.209409
0.209137
0.208928
0.208689
0.208494
0.208287
0.20811
0.207923
0.20777
0.207606
0.207473
0.207325
0.207217
0.207078
0.206988
0.20687
0.206798
0.206695
0.206633
0.206544
0.206493
0.206413
0.206367
0.206297
0.206259
0.206199
0.206171
0.206122
0.206102
0.206065
0.206056
0.20603
0.206037
0.206025
0.206053
0.206052
0.206104
0.206107
0.20622
0.2063
0.211155
5.31579
520.326
0.760088
0.634349
0.541041
0.47252
0.422093
0.384512
0.355947
0.333813
0.316298
0.302216
0.290682
0.281132
0.273088
0.266275
0.260403
0.255341
0.250895
0.247011
0.243544
0.240485
0.237716
0.235255
0.232998
0.230983
0.229113
0.22744
0.225868
0.224461
0.223125
0.221931
0.220784
0.219762
0.218768
0.217888
0.217022
0.216259
0.215499
0.214836
0.214166
0.213586
0.212992
0.212483
0.211955
0.211508
0.211039
0.210644
0.210224
0.209875
0.209503
0.209189
0.208857
0.20858
0.208282
0.208037
0.207763
0.207551
0.207311
0.207113
0.206905
0.206726
0.206537
0.206382
0.206216
0.206082
0.205932
0.205823
0.205682
0.205591
0.20547
0.205397
0.205292
0.205229
0.205139
0.205086
0.205005
0.204958
0.204886
0.204847
0.204785
0.204755
0.204704
0.204684
0.204644
0.204633
0.204605
0.204609
0.204596
0.20462
0.204618
0.204667
0.204669
0.204779
0.204862
0.209864
5.3989
508.408
0.760097
0.634374
0.54101
0.472372
0.421804
0.384083
0.355392
0.333149
0.31554
0.30138
0.289779
0.280172
0.27208
0.265224
0.259316
0.254222
0.249749
0.24584
0.242352
0.239274
0.236488
0.234012
0.231741
0.229713
0.227831
0.226147
0.224566
0.223149
0.221805
0.220604
0.219449
0.21842
0.21742
0.216534
0.215663
0.214894
0.214129
0.213462
0.212787
0.212203
0.211605
0.211092
0.210561
0.21011
0.209638
0.209239
0.208817
0.208465
0.20809
0.207773
0.207439
0.20716
0.206859
0.206612
0.206335
0.206122
0.205879
0.20568
0.205469
0.205289
0.205098
0.204941
0.204773
0.204638
0.204485
0.204375
0.204231
0.204139
0.204017
0.203942
0.203835
0.203771
0.203679
0.203625
0.203542
0.203494
0.20342
0.203379
0.203316
0.203285
0.203232
0.20321
0.203168
0.203156
0.203126
0.203127
0.203111
0.203132
0.203129
0.203174
0.203175
0.203283
0.203368
0.208514
5.46381
495.415
0.760107
0.6344
0.540979
0.472221
0.421507
0.383642
0.35482
0.332463
0.314758
0.300515
0.288845
0.279178
0.271036
0.264136
0.258191
0.253064
0.248562
0.244628
0.241117
0.238019
0.235215
0.232722
0.230437
0.228395
0.226502
0.224806
0.223215
0.221789
0.220436
0.219227
0.218065
0.217029
0.216022
0.21513
0.214253
0.213479
0.212709
0.212036
0.211357
0.210769
0.210167
0.20965
0.209115
0.208661
0.208185
0.207783
0.207357
0.207002
0.206624
0.206305
0.205968
0.205686
0.205383
0.205134
0.204855
0.204639
0.204394
0.204193
0.203979
0.203798
0.203605
0.203446
0.203276
0.203139
0.202984
0.202873
0.202728
0.202634
0.202509
0.202433
0.202324
0.202258
0.202165
0.20211
0.202025
0.201976
0.2019
0.201858
0.201793
0.20176
0.201705
0.201682
0.201638
0.201624
0.201592
0.20159
0.201572
0.201589
0.201585
0.201626
0.201625
0.201732
0.201819
0.207104
5.50724
481.355
0.760116
0.634427
0.540949
0.472068
0.421205
0.383189
0.354232
0.331757
0.313952
0.299623
0.287881
0.278152
0.269957
0.263012
0.257027
0.251866
0.247334
0.243374
0.23984
0.23672
0.233897
0.231388
0.229087
0.227032
0.225126
0.223418
0.221817
0.220381
0.219019
0.217801
0.216632
0.215589
0.214575
0.213677
0.212793
0.212014
0.211238
0.210561
0.209877
0.209284
0.208678
0.208157
0.207618
0.20716
0.20668
0.206276
0.205846
0.205488
0.205107
0.204785
0.204445
0.204161
0.203855
0.203603
0.203322
0.203103
0.202856
0.202653
0.202437
0.202254
0.202058
0.201899
0.201726
0.201588
0.20143
0.201317
0.20117
0.201075
0.200948
0.200871
0.20076
0.200692
0.200597
0.200541
0.200454
0.200404
0.200326
0.200283
0.200215
0.200181
0.200124
0.200099
0.200053
0.200037
0.200003
0.199999
0.199978
0.199992
0.199986
0.200023
0.200021
0.200126
0.200215
0.20563
5.526
466.246
0.760126
0.634455
0.540919
0.471913
0.420896
0.382726
0.353629
0.331031
0.313122
0.298704
0.286887
0.277094
0.268844
0.261852
0.255826
0.250629
0.246066
0.242078
0.23852
0.235379
0.232536
0.230009
0.227693
0.225623
0.223704
0.221984
0.220372
0.218926
0.217555
0.216328
0.21515
0.2141
0.213079
0.212174
0.211284
0.210499
0.209718
0.209035
0.208346
0.207749
0.207138
0.206613
0.20607
0.205608
0.205125
0.204717
0.204284
0.203923
0.203538
0.203214
0.20287
0.202584
0.202275
0.202021
0.201737
0.201516
0.201266
0.201061
0.200843
0.200658
0.20046
0.200298
0.200123
0.199984
0.199823
0.199709
0.19956
0.199463
0.199334
0.199255
0.199142
0.199073
0.198976
0.198918
0.19883
0.198778
0.198698
0.198653
0.198584
0.198548
0.19849
0.198463
0.198415
0.198397
0.198361
0.198354
0.19833
0.198341
0.198333
0.198366
0.198363
0.198466
0.198557
0.204093
5.51723
450.11
0.760135
0.634483
0.54089
0.471756
0.420581
0.382253
0.353011
0.330287
0.312269
0.29776
0.285864
0.276005
0.267698
0.260656
0.254588
0.249354
0.244759
0.240742
0.237158
0.233994
0.231132
0.228586
0.226253
0.224169
0.222236
0.220504
0.21888
0.217424
0.216043
0.214807
0.213621
0.212562
0.211534
0.210622
0.209726
0.208935
0.208148
0.20746
0.206766
0.206164
0.205548
0.205019
0.204471
0.204006
0.203519
0.203107
0.202671
0.202306
0.201918
0.201591
0.201244
0.200955
0.200643
0.200387
0.2001
0.199877
0.199624
0.199417
0.199196
0.19901
0.198809
0.198646
0.198468
0.198327
0.198164
0.198049
0.197897
0.197798
0.197667
0.197586
0.197472
0.197401
0.197303
0.197243
0.197153
0.197099
0.197018
0.196971
0.1969
0.196863
0.196802
0.196773
0.196723
0.196703
0.196665
0.196656
0.196629
0.196637
0.196627
0.196656
0.196651
0.196752
0.196845
0.202489
5.47833
432.979
0.760144
0.634513
0.540861
0.471598
0.420261
0.38177
0.352379
0.329524
0.311394
0.29679
0.284813
0.274884
0.266518
0.259425
0.253314
0.248041
0.243412
0.239365
0.235755