/*--------------------------------*- C++ -*----------------------------------*\
| =========                 |                                                 |
| \\      /  F ield         | OpenFOAM: The Open Source CFD Toolbox           |
|  \\    /   O peration     | Version:  v2012                                 |
|   \\  /    A nd           | Website:  www.openfoam.com                      |
|    \\/     M anipulation  |                                                 |
\*---------------------------------------------------------------------------*/
FoamFile
{
    version     2.0;
    format      ascii;
    class       volScalarField;
    location    "56";
    object      k;
}
// * * * * * * * * * * * * * * * * * * * * * * * * * * * * * * * * * * * * * //

dimensions      [0 2 -2 0 0 0 0];


internalField   nonuniform List<scalar> 
209825
(
0.00102385
0.000932917
0.000857509
0.000792769
0.000736282
0.000686986
0.000644091
0.000606924
0.000574684
0.000546723
0.000522322
0.000501006
0.000482213
0.000465652
0.000450889
0.000437772
0.000425954
0.000415383
0.000405761
0.00039711
0.00038916
0.000381986
0.000375333
0.000369316
0.000363685
0.000358588
0.000353772
0.000349418
0.000345264
0.000341516
0.000337904
0.000334659
0.000331496
0.00032867
0.000325883
0.00032341
0.00032094
0.000318767
0.000316568
0.000314653
0.000312687
0.000310992
0.000309227
0.000307723
0.000306131
0.000304794
0.000303354
0.000302163
0.000300856
0.000299793
0.000298604
0.000297653
0.000296569
0.000295718
0.000294727
0.000293965
0.000293057
0.000292374
0.000291543
0.000290928
0.000290169
0.000289614
0.000288919
0.000288417
0.000287782
0.000287328
0.000286745
0.000286335
0.0002858
0.00028543
0.000284937
0.000284604
0.000284157
0.000283862
0.000283441
0.00028316
0.000282752
0.000282484
0.000282087
0.000281831
0.000281446
0.000281202
0.000280828
0.000280599
0.000280235
0.000280025
0.000279669
0.000279481
0.000279135
0.000278967
0.000278628
0.000278484
0.00027813
0.000281153
0.0112246
0.014393
0.00102385
0.000932917
0.000857509
0.00079277
0.000736283
0.000686987
0.000644091
0.000606924
0.000574684
0.000546723
0.000522321
0.000501006
0.000482212
0.00046565
0.000450887
0.00043777
0.000425951
0.000415379
0.000405757
0.000397105
0.000389156
0.000381981
0.000375328
0.000369311
0.000363679
0.000358582
0.000353766
0.000349412
0.000345257
0.00034151
0.000337897
0.000334652
0.000331489
0.000328663
0.000325876
0.000323402
0.000320933
0.00031876
0.000316561
0.000314645
0.000312679
0.000310984
0.000309219
0.000307715
0.000306123
0.000304786
0.000303346
0.000302155
0.000300848
0.000299784
0.000298595
0.000297644
0.00029656
0.000295709
0.000294718
0.000293956
0.000293048
0.000292365
0.000291534
0.000290919
0.00029016
0.000289605
0.00028891
0.000288408
0.000287773
0.000287318
0.000286736
0.000286326
0.00028579
0.000285421
0.000284928
0.000284594
0.000284148
0.000283853
0.000283431
0.00028315
0.000282742
0.000282474
0.000282078
0.000281822
0.000281436
0.000281193
0.000280818
0.000280589
0.000280225
0.000280015
0.000279659
0.000279471
0.000279125
0.000278957
0.000278618
0.000278474
0.00027812
0.000281147
0.0112316
0.0144039
0.00102385
0.000932917
0.000857509
0.000792771
0.000736286
0.00068699
0.000644094
0.000606926
0.000574684
0.000546721
0.000522317
0.000500999
0.000482204
0.00046564
0.000450875
0.000437756
0.000425936
0.000415363
0.000405739
0.000397086
0.000389135
0.000381959
0.000375305
0.000369287
0.000363654
0.000358556
0.000353739
0.000349385
0.000345229
0.000341481
0.000337868
0.000334622
0.000331459
0.000328632
0.000325844
0.00032337
0.0003209
0.000318727
0.000316528
0.000314612
0.000312645
0.00031095
0.000309184
0.00030768
0.000306088
0.000304751
0.00030331
0.000302119
0.000300811
0.000299748
0.000298559
0.000297607
0.000296523
0.000295671
0.00029468
0.000293918
0.00029301
0.000292327
0.000291496
0.000290881
0.000290121
0.000289566
0.000288871
0.000288369
0.000287734
0.000287279
0.000286696
0.000286286
0.000285751
0.000285381
0.000284888
0.000284554
0.000284108
0.000283812
0.000283391
0.00028311
0.000282701
0.000282433
0.000282037
0.000281781
0.000281395
0.000281151
0.000280777
0.000280548
0.000280184
0.000279974
0.000279617
0.000279429
0.000279083
0.000278915
0.000278576
0.000278432
0.000278078
0.000281111
0.0112401
0.0144207
0.00102385
0.000932916
0.00085751
0.000792774
0.00073629
0.000686995
0.000644098
0.000606928
0.000574684
0.000546717
0.00052231
0.000500988
0.00048219
0.000465622
0.000450854
0.000437733
0.00042591
0.000415334
0.000405708
0.000397053
0.0003891
0.000381922
0.000375266
0.000369246
0.000363612
0.000358513
0.000353694
0.000349338
0.000345182
0.000341433
0.000337818
0.000334572
0.000331407
0.00032858
0.000325791
0.000323316
0.000320846
0.000318672
0.000316472
0.000314555
0.000312588
0.000310892
0.000309126
0.000307621
0.000306028
0.000304691
0.00030325
0.000302058
0.00030075
0.000299686
0.000298497
0.000297545
0.00029646
0.000295608
0.000294617
0.000293854
0.000292946
0.000292263
0.000291431
0.000290816
0.000290056
0.0002895
0.000288805
0.000288303
0.000287667
0.000287213
0.00028663
0.00028622
0.000285684
0.000285314
0.00028482
0.000284487
0.00028404
0.000283744
0.000283323
0.000283041
0.000282633
0.000282365
0.000281968
0.000281712
0.000281326
0.000281082
0.000280708
0.000280478
0.000280114
0.000279904
0.000279547
0.000279359
0.000279012
0.000278845
0.000278505
0.000278361
0.000278007
0.000281051
0.0112519
0.0144452
0.00102385
0.000932915
0.00085751
0.000792778
0.000736297
0.000687003
0.000644105
0.000606931
0.000574683
0.000546711
0.000522299
0.000500973
0.000482169
0.000465597
0.000450825
0.000437699
0.000425873
0.000415293
0.000405664
0.000397006
0.00038905
0.000381869
0.000375211
0.000369189
0.000363553
0.000358451
0.000353631
0.000349273
0.000345115
0.000341364
0.000337748
0.0003345
0.000331335
0.000328506
0.000325716
0.00032324
0.000320768
0.000318593
0.000316392
0.000314475
0.000312507
0.000310811
0.000309043
0.000307538
0.000305944
0.000304606
0.000303164
0.000301972
0.000300664
0.000299599
0.000298409
0.000297457
0.000296371
0.000295519
0.000294527
0.000293764
0.000292856
0.000292172
0.00029134
0.000290724
0.000289964
0.000289408
0.000288713
0.00028821
0.000287574
0.000287119
0.000286536
0.000286125
0.000285589
0.000285219
0.000284725
0.000284391
0.000283944
0.000283648
0.000283226
0.000282945
0.000282536
0.000282268
0.000281871
0.000281614
0.000281228
0.000280984
0.00028061
0.00028038
0.000280015
0.000279805
0.000279448
0.00027926
0.000278913
0.000278745
0.000278405
0.000278261
0.000277907
0.000280964
0.0112676
0.0144784
0.00102385
0.000932913
0.000857511
0.000792783
0.000736305
0.000687012
0.000644112
0.000606935
0.000574682
0.000546704
0.000522286
0.000500953
0.000482143
0.000465565
0.000450787
0.000437656
0.000425825
0.000415241
0.000405607
0.000396945
0.000388986
0.000381801
0.00037514
0.000369114
0.000363476
0.000358372
0.000353549
0.000349189
0.000345029
0.000341276
0.000337658
0.000334408
0.000331241
0.00032841
0.000325619
0.000323142
0.000320669
0.000318492
0.00031629
0.000314372
0.000312402
0.000310705
0.000308937
0.00030743
0.000305836
0.000304497
0.000303054
0.000301861
0.000300552
0.000299487
0.000298296
0.000297343
0.000296257
0.000295404
0.000294411
0.000293648
0.000292739
0.000292054
0.000291221
0.000290605
0.000289845
0.000289288
0.000288593
0.00028809
0.000287453
0.000286997
0.000286414
0.000286003
0.000285466
0.000285096
0.000284602
0.000284267
0.00028382
0.000283524
0.000283102
0.00028282
0.000282411
0.000282142
0.000281745
0.000281488
0.000281102
0.000280858
0.000280482
0.000280253
0.000279888
0.000279677
0.00027932
0.000279131
0.000278784
0.000278616
0.000278275
0.000278131
0.000277777
0.000280853
0.0112879
0.0145211
0.00102385
0.000932912
0.000857512
0.000792789
0.000736316
0.000687024
0.000644122
0.00060694
0.00057468
0.000546695
0.000522269
0.000500929
0.000482111
0.000465526
0.000450741
0.000437603
0.000425766
0.000415176
0.000405538
0.00039687
0.000388906
0.000381718
0.000375053
0.000369023
0.000363381
0.000358274
0.000353448
0.000349085
0.000344922
0.000341167
0.000337547
0.000334294
0.000331125
0.000328292
0.0003255
0.00032302
0.000320545
0.000318368
0.000316164
0.000314244
0.000312273
0.000310575
0.000308805
0.000307298
0.000305702
0.000304362
0.000302918
0.000301724
0.000300414
0.000299348
0.000298156
0.000297202
0.000296115
0.000295262
0.000294269
0.000293504
0.000292594
0.000291909
0.000291076
0.000290459
0.000289698
0.000289141
0.000288445
0.000287941
0.000287304
0.000286848
0.000286264
0.000285853
0.000285315
0.000284944
0.00028445
0.000284115
0.000283667
0.000283371
0.000282948
0.000282666
0.000282256
0.000281988
0.00028159
0.000281333
0.000280946
0.000280702
0.000280326
0.000280096
0.00027973
0.00027952
0.000279162
0.000278973
0.000278625
0.000278457
0.000278116
0.000277972
0.000277618
0.000280715
0.0113134
0.014574
0.00102385
0.00093291
0.000857513
0.000792796
0.000736328
0.000687038
0.000644134
0.000606946
0.000574679
0.000546685
0.00052225
0.0005009
0.000482073
0.000465479
0.000450686
0.000437541
0.000425696
0.000415099
0.000405455
0.000396781
0.000388812
0.000381618
0.000374949
0.000368914
0.000363268
0.000358157
0.000353328
0.000348961
0.000344795
0.000341037
0.000337414
0.000334159
0.000330987
0.000328152
0.000325357
0.000322876
0.000320399
0.000318219
0.000316014
0.000314092
0.00031212
0.00031042
0.000308648
0.00030714
0.000305543
0.000304201
0.000302756
0.000301561
0.00030025
0.000299183
0.00029799
0.000297035
0.000295947
0.000295093
0.000294098
0.000293333
0.000292422
0.000291737
0.000290902
0.000290285
0.000289523
0.000288966
0.000288268
0.000287764
0.000287126
0.00028667
0.000286085
0.000285673
0.000285135
0.000284764
0.000284269
0.000283934
0.000283485
0.000283189
0.000282765
0.000282483
0.000282073
0.000281803
0.000281405
0.000281148
0.00028076
0.000280516
0.000280139
0.000279909
0.000279543
0.000279332
0.000278973
0.000278784
0.000278436
0.000278268
0.000277926
0.000277782
0.000277428
0.000280552
0.0113446
0.0146377
0.00102385
0.000932907
0.000857515
0.000792804
0.000736343
0.000687054
0.000644148
0.000606954
0.000574678
0.000546673
0.000522228
0.000500867
0.00048203
0.000465425
0.000450623
0.000437468
0.000425615
0.000415011
0.000405359
0.000396678
0.000388703
0.000381503
0.000374828
0.000368788
0.000363138
0.000358022
0.000353188
0.000348818
0.000344648
0.000340886
0.00033726
0.000334002
0.000330827
0.000327989
0.000325192
0.000322708
0.000320229
0.000318047
0.000315839
0.000313916
0.000311941
0.000310239
0.000308467
0.000306956
0.000305357
0.000304014
0.000302568
0.000301371
0.000300059
0.000298991
0.000297796
0.000296841
0.000295751
0.000294896
0.000293901
0.000293135
0.000292223
0.000291536
0.000290701
0.000290083
0.00028932
0.000288762
0.000288063
0.000287559
0.00028692
0.000286463
0.000285877
0.000285465
0.000284926
0.000284554
0.000284058
0.000283723
0.000283274
0.000282977
0.000282553
0.00028227
0.000281859
0.000281589
0.00028119
0.000280933
0.000280545
0.0002803
0.000279923
0.000279692
0.000279325
0.000279114
0.000278755
0.000278565
0.000278216
0.000278048
0.000277705
0.000277561
0.000277206
0.000280363
0.011382
0.0147126
0.00102384
0.000932905
0.000857516
0.000792814
0.00073636
0.000687073
0.000644164
0.000606962
0.000574677
0.00054666
0.000522203
0.000500829
0.00048198
0.000465364
0.000450551
0.000437386
0.000425524
0.000414909
0.000405249
0.000396561
0.000388578
0.000381372
0.00037469
0.000368645
0.000362989
0.000357867
0.000353029
0.000348654
0.000344481
0.000340714
0.000337085
0.000333823
0.000330645
0.000327804
0.000325003
0.000322517
0.000320035
0.00031785
0.00031564
0.000313714
0.000311738
0.000310034
0.000308259
0.000306747
0.000305146
0.000303801
0.000302353
0.000301155
0.000299841
0.000298771
0.000297576
0.000296619
0.000295528
0.000294672
0.000293675
0.000292908
0.000291995
0.000291307
0.000290471
0.000289852
0.000289088
0.000288529
0.000287829
0.000287324
0.000286684
0.000286226
0.00028564
0.000285227
0.000284687
0.000284315
0.000283818
0.000283482
0.000283032
0.000282735
0.00028231
0.000282026
0.000281615
0.000281345
0.000280945
0.000280687
0.000280298
0.000280053
0.000279675
0.000279444
0.000279076
0.000278865
0.000278505
0.000278315
0.000277965
0.000277796
0.000277452
0.000277308
0.000276954
0.000280148
0.0114258
0.0147992
0.00102384
0.000932902
0.000857518
0.000792825
0.000736378
0.000687094
0.000644182
0.000606972
0.000574676
0.000546646
0.000522175
0.000500787
0.000481925
0.000465296
0.000450471
0.000437294
0.000425421
0.000414796
0.000405127
0.000396429
0.000388439
0.000381224
0.000374536
0.000368484
0.000362821
0.000357694
0.000352851
0.00034847
0.000344292
0.000340521
0.000336887
0.000333621
0.00033044
0.000327595
0.000324791
0.000322301
0.000319817
0.000317629
0.000315416
0.000313488
0.000311509
0.000309802
0.000308025
0.000306511
0.000304908
0.000303562
0.000302112
0.000300912
0.000299596
0.000298524
0.000297327
0.000296369
0.000295277
0.000294419
0.000293421
0.000292652
0.000291738
0.000291049
0.000290212
0.000289592
0.000288826
0.000288266
0.000287566
0.00028706
0.000286419
0.00028596
0.000285372
0.000284959
0.000284418
0.000284045
0.000283547
0.000283211
0.00028276
0.000282462
0.000282036
0.000281752
0.00028134
0.000281069
0.000280668
0.00028041
0.00028002
0.000279775
0.000279396
0.000279165
0.000278796
0.000278584
0.000278223
0.000278033
0.000277682
0.000277513
0.000277168
0.000277024
0.00027667
0.000279907
0.0114762
0.0148977
0.00102384
0.000932898
0.000857519
0.000792836
0.000736399
0.000687118
0.000644203
0.000606984
0.000574675
0.000546631
0.000522145
0.000500742
0.000481865
0.000465221
0.000450382
0.000437192
0.000425307
0.000414671
0.000404991
0.000396283
0.000388284
0.000381061
0.000374364
0.000368305
0.000362635
0.000357502
0.000352652
0.000348266
0.000344082
0.000340306
0.000336668
0.000333397
0.000330212
0.000327363
0.000324555
0.000322062
0.000319574
0.000317383
0.000315167
0.000313236
0.000311254
0.000309545
0.000307765
0.000306249
0.000304644
0.000303295
0.000301843
0.000300641
0.000299323
0.00029825
0.000297051
0.000296091
0.000294997
0.000294138
0.000293138
0.000292368
0.000291452
0.000290762
0.000289923
0.000289302
0.000288535
0.000287974
0.000287273
0.000286765
0.000286123
0.000285664
0.000285075
0.000284661
0.000284119
0.000283745
0.000283246
0.000282909
0.000282457
0.000282158
0.000281732
0.000281447
0.000281034
0.000280763
0.000280361
0.000280102
0.000279711
0.000279465
0.000279085
0.000278854
0.000278484
0.000278272
0.00027791
0.000277719
0.000277367
0.000277197
0.000276851
0.000276707
0.000276353
0.000279639
0.0115332
0.0150083
0.00102384
0.000932894
0.000857521
0.000792849
0.000736422
0.000687144
0.000644226
0.000606997
0.000574675
0.000546615
0.000522112
0.000500692
0.000481798
0.000465138
0.000450284
0.00043708
0.000425182
0.000414533
0.000404842
0.000396123
0.000388114
0.000380881
0.000374176
0.000368108
0.000362431
0.00035729
0.000352434
0.000348041
0.000343852
0.00034007
0.000336426
0.000333151
0.00032996
0.000327107
0.000324296
0.000321798
0.000319306
0.000317112
0.000314893
0.000312958
0.000310973
0.000309261
0.000307479
0.00030596
0.000304352
0.000303001
0.000301546
0.000300342
0.000299022
0.000297947
0.000296746
0.000295784
0.000294688
0.000293827
0.000292826
0.000292055
0.000291137
0.000290446
0.000289605
0.000288983
0.000288215
0.000287652
0.000286949
0.000286441
0.000285798
0.000285337
0.000284747
0.000284332
0.000283789
0.000283414
0.000282914
0.000282576
0.000282123
0.000281823
0.000281396
0.000281111
0.000280696
0.000280424
0.000280021
0.000279762
0.00027937
0.000279124
0.000278743
0.000278511
0.00027814
0.000277927
0.000277564
0.000277373
0.00027702
0.000276849
0.000276502
0.000276358
0.000276004
0.000279345
0.0115968
0.015131
0.00102384
0.00093289
0.000857523
0.000792864
0.000736447
0.000687174
0.000644251
0.000607012
0.000574676
0.000546599
0.000522078
0.000500638
0.000481727
0.000465049
0.000450179
0.000436958
0.000425046
0.000414383
0.000404679
0.000395948
0.000387928
0.000380685
0.00037397
0.000367893
0.000362208
0.000357058
0.000352195
0.000347795
0.0003436
0.000339812
0.000336162
0.000332881
0.000329686
0.000326828
0.000324012
0.00032151
0.000319014
0.000316815
0.000314593
0.000312654
0.000310666
0.000308951
0.000307166
0.000305643
0.000304033
0.000302679
0.000301222
0.000300016
0.000298693
0.000297616
0.000296412
0.000295449
0.000294351
0.000293488
0.000292485
0.000291712
0.000290792
0.000290099
0.000289257
0.000288633
0.000287864
0.0002873
0.000286595
0.000286086
0.000285441
0.000284979
0.000284388
0.000283972
0.000283427
0.000283052
0.00028255
0.000282211
0.000281757
0.000281457
0.000281028
0.000280742
0.000280326
0.000280054
0.00027965
0.00027939
0.000278997
0.00027875
0.000278368
0.000278135
0.000277763
0.00027755
0.000277185
0.000276994
0.00027664
0.000276468
0.00027612
0.000275975
0.000275621
0.000279024
0.0116664
0.0152657
0.00102384
0.000932886
0.000857525
0.000792879
0.000736475
0.000687205
0.00064428
0.000607029
0.000574677
0.000546581
0.000522041
0.000500581
0.00048165
0.000464953
0.000450065
0.000436827
0.000424899
0.000414221
0.000404503
0.000395759
0.000387727
0.000380472
0.000373747
0.00036766
0.000361966
0.000356808
0.000351936
0.000347529
0.000343326
0.000339531
0.000335876
0.000332589
0.000329388
0.000326524
0.000323703
0.000321196
0.000318696
0.000316493
0.000314267
0.000312324
0.000310333
0.000308614
0.000306825
0.0003053
0.000303686
0.00030233
0.00030087
0.000299661
0.000298335
0.000297256
0.00029605
0.000295084
0.000293984
0.000293119
0.000292114
0.000291339
0.000290418
0.000289723
0.000288879
0.000288253
0.000287482
0.000286917
0.000286211
0.0002857
0.000285053
0.000284591
0.000283997
0.00028358
0.000283034
0.000282658
0.000282155
0.000281815
0.000281359
0.000281058
0.000280628
0.000280342
0.000279924
0.000279651
0.000279246
0.000278986
0.000278591
0.000278343
0.00027796
0.000277727
0.000277353
0.000277139
0.000276773
0.000276581
0.000276226
0.000276054
0.000275704
0.000275559
0.000275206
0.000278676
0.0117415
0.015412
0.00102384
0.000932881
0.000857527
0.000792895
0.000736505
0.00068724
0.000644311
0.000607049
0.00057468
0.000546564
0.000522002
0.00050052
0.000481568
0.00046485
0.000449943
0.000436686
0.000424741
0.000414047
0.000404314
0.000395556
0.000387511
0.000380243
0.000373507
0.000367409
0.000361705
0.000356537
0.000351657
0.000347241
0.000343031
0.000339229
0.000335567
0.000332273
0.000329066
0.000326197
0.00032337
0.000320858
0.000318353
0.000316146
0.000313915
0.000311968
0.000309972
0.00030825
0.000306457
0.000304929
0.000303312
0.000301952
0.000300489
0.000299277
0.000297949
0.000296867
0.000295658
0.00029469
0.000293588
0.000292721
0.000291713
0.000290936
0.000290012
0.000289316
0.00028847
0.000287843
0.000287069
0.000286503
0.000285795
0.000285282
0.000284634
0.00028417
0.000283575
0.000283157
0.000282609
0.000282232
0.000281727
0.000281387
0.000280929
0.000280628
0.000280196
0.000279909
0.00027949
0.000279216
0.000278809
0.000278548
0.000278152
0.000277904
0.000277519
0.000277285
0.00027691
0.000276696
0.000276328
0.000276135
0.000275779
0.000275606
0.000275254
0.00027511
0.000274756
0.0002783
0.0118211
0.0155697
0.00102384
0.000932875
0.000857529
0.000792913
0.000736537
0.000687278
0.000644344
0.00060707
0.000574684
0.000546546
0.000521961
0.000500456
0.000481481
0.000464741
0.000449813
0.000436536
0.000424573
0.000413861
0.000404112
0.000395338
0.000387279
0.000379998
0.00037325
0.00036714
0.000361425
0.000356247
0.000351358
0.000346933
0.000342715
0.000338904
0.000335235
0.000331934
0.000328721
0.000325845
0.000323013
0.000320495
0.000317985
0.000315772
0.000313536
0.000311585
0.000309585
0.000307859
0.000306062
0.00030453
0.000302909
0.000301546
0.00030008
0.000298865
0.000297534
0.000296449
0.000295237
0.000294266
0.000293161
0.000292292
0.000291282
0.000290503
0.000289577
0.000288878
0.00028803
0.000287401
0.000286626
0.000286057
0.000285347
0.000284833
0.000284183
0.000283718
0.000283121
0.000282701
0.000282152
0.000281773
0.000281267
0.000280926
0.000280467
0.000280164
0.000279731
0.000279443
0.000279022
0.000278748
0.000278339
0.000278077
0.00027768
0.000277431
0.000277044
0.00027681
0.000276433
0.000276218
0.000275849
0.000275656
0.000275297
0.000275124
0.00027477
0.000274626
0.000274273
0.000277897
0.011904
0.015738
0.00102384
0.00093287
0.000857532
0.000792932
0.000736571
0.000687318
0.000644381
0.000607094
0.000574689
0.000546528
0.000521919
0.000500389
0.00048139
0.000464626
0.000449675
0.000436377
0.000424394
0.000413663
0.000403897
0.000395106
0.000387032
0.000379737
0.000372976
0.000366853
0.000361127
0.000355938
0.000351039
0.000346604
0.000342376
0.000338558
0.00033488
0.000331572
0.000328351
0.000325469
0.000322631
0.000320107
0.000317591
0.000315373
0.000313132
0.000311176
0.000309171
0.00030744
0.000305639
0.000304103
0.000302479
0.000301112
0.000299642
0.000298423
0.000297089
0.000296001
0.000294787
0.000293813
0.000292705
0.000291833
0.00029082
0.000290039
0.000289111
0.00028841
0.000287559
0.000286928
0.000286151
0.00028558
0.000284868
0.000284353
0.000283701
0.000283234
0.000282635
0.000282214
0.000281663
0.000281283
0.000280775
0.000280432
0.000279972
0.000279668
0.000279233
0.000278944
0.000278521
0.000278246
0.000277836
0.000277573
0.000277174
0.000276924
0.000276536
0.000276301
0.000275923
0.000275707
0.000275336
0.000275142
0.000274782
0.000274608
0.000274252
0.000274108
0.000273755
0.000277466
0.0119888
0.0159161
0.00102384
0.000932863
0.000857534
0.000792951
0.000736608
0.000687362
0.000644421
0.00060712
0.000574695
0.00054651
0.000521876
0.000500318
0.000481294
0.000464504
0.00044953
0.000436209
0.000424204
0.000413453
0.000403669
0.000394861
0.00038677
0.000379459
0.000372684
0.000366548
0.00036081
0.000355609
0.000350699
0.000346254
0.000342017
0.000338189
0.000334503
0.000331186
0.000327958
0.000325069
0.000322223
0.000319693
0.000317171
0.000314947
0.000312701
0.00031074
0.00030873
0.000306994
0.000305189
0.000303648
0.00030202
0.000300649
0.000299175
0.000297953
0.000296615
0.000295524
0.000294306
0.00029333
0.000292218
0.000291344
0.000290328
0.000289544
0.000288613
0.00028791
0.000287057
0.000286424
0.000285644
0.000285072
0.000284357
0.00028384
0.000283186
0.000282717
0.000282116
0.000281694
0.000281141
0.000280759
0.000280249
0.000279905
0.000279443
0.000279138
0.000278701
0.000278411
0.000277987
0.000277711
0.000277299
0.000277035
0.000276635
0.000276384
0.000275994
0.000275758
0.000275378
0.000275161
0.000274789
0.000274593
0.000274232
0.000274057
0.000273699
0.000273554
0.000273203
0.000277007
0.0120734
0.0161029
0.00102384
0.000932857
0.000857536
0.000792972
0.000736647
0.000687408
0.000644465
0.000607149
0.000574703
0.000546492
0.000521831
0.000500245
0.000481194
0.000464377
0.000449377
0.000436031
0.000424005
0.000413232
0.000403428
0.000394601
0.000386493
0.000379166
0.000372376
0.000366225
0.000360474
0.00035526
0.000350339
0.000345882
0.000341635
0.000337797
0.000334103
0.000330777
0.000327541
0.000324644
0.000321792
0.000319254
0.000316726
0.000314496
0.000312243
0.000310276
0.000308261
0.00030652
0.00030471
0.000303165
0.000301532
0.000300157
0.000298679
0.000297453
0.000296112
0.000295017
0.000293796
0.000292816
0.000291702
0.000290824
0.000289805
0.000289019
0.000288085
0.000287379
0.000286524
0.000285888
0.000285105
0.000284531
0.000283814
0.000283295
0.000282638
0.000282168
0.000281565
0.000281141
0.000280586
0.000280203
0.000279691
0.000279346
0.000278881
0.000278575
0.000278136
0.000277845
0.000277419
0.000277142
0.000276728
0.000276464
0.000276061
0.000275809
0.000275417
0.000275181
0.000274798
0.000274581
0.000274206
0.00027401
0.000273647
0.000273471
0.000273111
0.000272966
0.000272615
0.000276519
0.0121557
0.0162972
0.00102384
0.00093285
0.000857538
0.000792994
0.000736688
0.000687458
0.000644511
0.00060718
0.000574714
0.000546475
0.000521786
0.00050017
0.00048109
0.000464243
0.000449217
0.000435846
0.000423795
0.000412999
0.000403175
0.000394327
0.000386202
0.000378857
0.000372051
0.000365884
0.000360119
0.000354892
0.000349958
0.00034549
0.000341232
0.000337384
0.00033368
0.000330345
0.000327101
0.000324195
0.000321335
0.00031879
0.000316255
0.000314018
0.000311759
0.000309786
0.000307766
0.000306019
0.000304204
0.000302654
0.000301016
0.000299636
0.000298154
0.000296924
0.000295579
0.00029448
0.000293255
0.000292272
0.000291154
0.000290273
0.000289251
0.000288462
0.000287525
0.000286817
0.000285958
0.00028532
0.000284535
0.000283958
0.000283239
0.000282718
0.000282058
0.000281586
0.000280981
0.000280555
0.000279997
0.000279613
0.000279099
0.000278752
0.000278286
0.000277979
0.000277538
0.000277245
0.000276817
0.000276539
0.000276123
0.000275857
0.000275453
0.0002752
0.000274806
0.000274569
0.000274184
0.000273966
0.000273589
0.000273392
0.000273027
0.00027285
0.000272488
0.000272343
0.000271993
0.000276001
0.0122331
0.0164971
0.00102384
0.000932843
0.00085754
0.000793017
0.000736732
0.000687511
0.000644561
0.000607215
0.000574726
0.000546459
0.00052174
0.000500093
0.000480982
0.000464105
0.000449051
0.000435651
0.000423576
0.000412755
0.000402909
0.00039404
0.000385895
0.000378531
0.000371709
0.000365526
0.000359746
0.000354505
0.000349558
0.000345077
0.000340808
0.000336948
0.000333234
0.000329889
0.000326636
0.000323721
0.000320853
0.0003183
0.000315758
0.000313514
0.000311249
0.000309269
0.000307243
0.00030549
0.00030367
0.000302114
0.000300471
0.000299087
0.0002976
0.000296366
0.000295016
0.000293913
0.000292684
0.000291698
0.000290576
0.000289692
0.000288666
0.000287874
0.000286934
0.000286223
0.000285361
0.00028472
0.000283932
0.000283353
0.000282631
0.000282108
0.000281446
0.000280972
0.000280364
0.000279936
0.000279376
0.00027899
0.000278474
0.000278126
0.000277657
0.000277348
0.000276905
0.000276611
0.000276181
0.000275902
0.000275484
0.000275217
0.00027481
0.000274557
0.00027416
0.000273922
0.000273535
0.000273316
0.000272937
0.000272739
0.000272371
0.000272193
0.000271829
0.000271684
0.000271335
0.000275454
0.0123025
0.0167008
0.00102384
0.000932835
0.000857542
0.000793041
0.000736778
0.000687568
0.000644615
0.000607253
0.00057474
0.000546445
0.000521694
0.000500013
0.00048087
0.000463962
0.000448878
0.000435449
0.000423347
0.000412501
0.000402631
0.00039374
0.000385575
0.000378191
0.00037135
0.00036515
0.000359355
0.000354098
0.000349138
0.000344643
0.000340362
0.000336491
0.000332766
0.00032941
0.000326147
0.000323223
0.000320347
0.000317785
0.000315235
0.000312983
0.000310711
0.000308725
0.000306692
0.000304934
0.000303107
0.000301546
0.000299898
0.000298508
0.000297017
0.000295778
0.000294423
0.000293317
0.000292083
0.000291093
0.000289967
0.00028908
0.00028805
0.000287255
0.000286311
0.000285597
0.000284732
0.000284089
0.000283297
0.000282716
0.000281991
0.000281465
0.000280801
0.000280325
0.000279714
0.000279284
0.000278721
0.000278334
0.000277815
0.000277465
0.000276994
0.000276684
0.000276238
0.000275943
0.000275511
0.00027523
0.00027481
0.000274542
0.000274133
0.000273878
0.00027348
0.000273241
0.000272851
0.000272631
0.00027225
0.000272051
0.000271681
0.000271502
0.000271135
0.00027099
0.000270642
0.000274875
0.0123606
0.0169057
0.00102384
0.000932827
0.000857544
0.000793066
0.000736827
0.000687627
0.000644672
0.000607294
0.000574758
0.000546431
0.000521648
0.000499932
0.000480756
0.000463813
0.000448698
0.000435239
0.000423109
0.000412236
0.000402341
0.000393426
0.00038524
0.000377835
0.000370976
0.000364757
0.000358945
0.000353673
0.000348698
0.000344189
0.000339895
0.000336011
0.000332275
0.000328908
0.000325635
0.000322701
0.000319815
0.000317245
0.000314687
0.000312427
0.000310148
0.000308154
0.000306114
0.000304349
0.000302517
0.000300949
0.000299296
0.000297901
0.000296404
0.00029516
0.000293801
0.00029269
0.000291452
0.000290457
0.000289328
0.000288436
0.000287403
0.000286604
0.000285657
0.00028494
0.000284071
0.000283425
0.00028263
0.000282046
0.000281318
0.00028079
0.000280122
0.000279644
0.00027903
0.000278599
0.000278033
0.000277644
0.000277122
0.000276771
0.000276297
0.000275985
0.000275538
0.000275241
0.000274806
0.000274524
0.000274101
0.000273832
0.000273421
0.000273165
0.000272764
0.000272524
0.000272132
0.000271911
0.000271527
0.000271327
0.000270954
0.000270774
0.000270405
0.000270259
0.000269913
0.000274265
0.0124038
0.0171091
0.00102384
0.000932818
0.000857546
0.000793092
0.000736878
0.000687691
0.000644734
0.000607339
0.000574778
0.000546419
0.000521602
0.00049985
0.000480638
0.000463661
0.000448513
0.000435022
0.000422862
0.000411961
0.00040204
0.0003931
0.000384891
0.000377464
0.000370585
0.000364347
0.000358518
0.000353228
0.000348238
0.000343715
0.000339407
0.00033551
0.000331761
0.000328383
0.000325099
0.000322155
0.000319259
0.00031668
0.000314113
0.000311845
0.000309557
0.000307556
0.000305509
0.000303737
0.000301898
0.000300325
0.000298665
0.000297265
0.000295762
0.000294513
0.000293149
0.000292033
0.00029079
0.000289792
0.000288657
0.000287762
0.000286725
0.000285922
0.000284971
0.00028425
0.000283379
0.000282729
0.000281931
0.000281344
0.000280613
0.000280082
0.000279411
0.00027893
0.000278314
0.00027788
0.000277312
0.00027692
0.000276396
0.000276043
0.000275566
0.000275253
0.000274803
0.000274505
0.000274067
0.000273784
0.000273358
0.000273088
0.000272674
0.000272417
0.000272013
0.000271772
0.000271377
0.000271155
0.000270769
0.000270568
0.000270192
0.000270011
0.000269639
0.000269493
0.000269148
0.000273622
0.0124279
0.0173076
0.00102383
0.000932809
0.000857548
0.000793119
0.000736931
0.000687757
0.000644799
0.000607388
0.000574801
0.000546409
0.000521557
0.000499767
0.000480519
0.000463504
0.000448322
0.000434797
0.000422607
0.000411675
0.000401728
0.000392761
0.000384528
0.000377079
0.000370179
0.000363921
0.000358073
0.000352765
0.000347759
0.00034322
0.000338898
0.000334987
0.000331226
0.000327835
0.00032454
0.000321585
0.000318679
0.00031609
0.000313513
0.000311237
0.000308941
0.000306932
0.000304877
0.000303098
0.000301252
0.000299672
0.000298006
0.0002966
0.000295091
0.000293837
0.000292467
0.000291346
0.000290099
0.000289095
0.000287956
0.000287057
0.000286015
0.000285209
0.000284254
0.00028353
0.000282654
0.000282001
0.000281199