/*--------------------------------*- C++ -*----------------------------------*\
| =========                 |                                                 |
| \\      /  F ield         | OpenFOAM: The Open Source CFD Toolbox           |
|  \\    /   O peration     | Version:  v2012                                 |
|   \\  /    A nd           | Website:  www.openfoam.com                      |
|    \\/     M anipulation  |                                                 |
\*---------------------------------------------------------------------------*/
FoamFile
{
    version     2.0;
    format      ascii;
    class       volVectorField;
    location    "56";
    object      wallShearStress;
}
// * * * * * * * * * * * * * * * * * * * * * * * * * * * * * * * * * * * * * //

dimensions      [0 2 -2 0 0 0 0];


internalField   uniform (0 0 0);

boundaryField
{
    inlet
    {
        type            calculated;
        value           uniform (0 0 0);
    }
    outlet
    {
        type            calculated;
        value           uniform (0 0 0);
    }
    topWall
    {
        type            calculated;
        value           nonuniform List<vector> 
545
(
(6.98444e-08 -4.91642e-08 0)
(6.98195e-08 -1.37535e-07 0)
(6.97727e-08 -2.29414e-07 0)
(6.97128e-08 -3.1863e-07 0)
(6.96379e-08 -4.0404e-07 0)
(6.95499e-08 -4.86741e-07 0)
(6.94494e-08 -5.67437e-07 0)
(6.93373e-08 -6.4609e-07 0)
(6.92147e-08 -7.22526e-07 0)
(6.90825e-08 -7.96745e-07 0)
(6.89415e-08 -8.68844e-07 0)
(6.87928e-08 -9.38905e-07 0)
(6.86369e-08 -1.00698e-06 0)
(6.84748e-08 -1.0731e-06 0)
(6.8307e-08 -1.13732e-06 0)
(6.81342e-08 -1.19969e-06 0)
(6.79571e-08 -1.26026e-06 0)
(6.77762e-08 -1.31908e-06 0)
(6.75921e-08 -1.37619e-06 0)
(6.74052e-08 -1.43165e-06 0)
(6.7216e-08 -1.48549e-06 0)
(6.7025e-08 -1.53776e-06 0)
(6.68326e-08 -1.58851e-06 0)
(6.66391e-08 -1.63778e-06 0)
(6.64448e-08 -1.68561e-06 0)
(6.62502e-08 -1.73204e-06 0)
(6.60556e-08 -1.77711e-06 0)
(6.58611e-08 -1.82087e-06 0)
(6.5667e-08 -1.86335e-06 0)
(6.54737e-08 -1.90458e-06 0)
(6.52813e-08 -1.94461e-06 0)
(6.509e-08 -1.98348e-06 0)
(6.49e-08 -2.0212e-06 0)
(6.47115e-08 -2.05782e-06 0)
(6.45245e-08 -2.09338e-06 0)
(6.43394e-08 -2.12789e-06 0)
(6.41561e-08 -2.16141e-06 0)
(6.39748e-08 -2.19394e-06 0)
(6.37957e-08 -2.22553e-06 0)
(6.36187e-08 -2.2562e-06 0)
(6.34439e-08 -2.28597e-06 0)
(6.32716e-08 -2.31489e-06 0)
(6.31016e-08 -2.34296e-06 0)
(6.29341e-08 -2.37022e-06 0)
(6.27691e-08 -2.3967e-06 0)
(6.26066e-08 -2.4224e-06 0)
(6.24467e-08 -2.44737e-06 0)
(6.22894e-08 -2.47161e-06 0)
(6.21347e-08 -2.49516e-06 0)
(6.19826e-08 -2.51803e-06 0)
(6.18332e-08 -2.54024e-06 0)
(6.16864e-08 -2.56182e-06 0)
(6.15423e-08 -2.58277e-06 0)
(6.14008e-08 -2.60313e-06 0)
(6.12619e-08 -2.62291e-06 0)
(6.11257e-08 -2.64212e-06 0)
(6.09921e-08 -2.66078e-06 0)
(6.08611e-08 -2.67891e-06 0)
(6.07326e-08 -2.69652e-06 0)
(6.06067e-08 -2.71364e-06 0)
(6.04834e-08 -2.73027e-06 0)
(6.03625e-08 -2.74643e-06 0)
(6.02441e-08 -2.76213e-06 0)
(6.01282e-08 -2.77738e-06 0)
(6.00147e-08 -2.79221e-06 0)
(5.99036e-08 -2.80662e-06 0)
(5.97948e-08 -2.82062e-06 0)
(5.96884e-08 -2.83423e-06 0)
(5.95843e-08 -2.84746e-06 0)
(5.94824e-08 -2.86031e-06 0)
(5.93827e-08 -2.87282e-06 0)
(5.92854e-08 -2.88494e-06 0)
(5.91911e-08 -2.89661e-06 0)
(5.90989e-08 -2.90794e-06 0)
(5.90074e-08 -2.91914e-06 0)
(5.89163e-08 -2.93029e-06 0)
(5.88253e-08 -2.94138e-06 0)
(5.87344e-08 -2.95241e-06 0)
(5.86436e-08 -2.96337e-06 0)
(5.85528e-08 -2.97426e-06 0)
(5.84622e-08 -2.98508e-06 0)
(5.83717e-08 -2.99583e-06 0)
(5.82812e-08 -3.00652e-06 0)
(5.81909e-08 -3.01715e-06 0)
(5.81006e-08 -3.02771e-06 0)
(5.80105e-08 -3.03821e-06 0)
(5.79205e-08 -3.04864e-06 0)
(5.78306e-08 -3.05901e-06 0)
(5.77409e-08 -3.06931e-06 0)
(5.76512e-08 -3.07955e-06 0)
(5.75617e-08 -3.08973e-06 0)
(5.74723e-08 -3.09985e-06 0)
(5.7383e-08 -3.1099e-06 0)
(5.7294e-08 -3.11989e-06 0)
(5.72047e-08 -3.12985e-06 0)
(5.71159e-08 -3.13961e-06 0)
(5.70335e-08 -3.14857e-06 0)
(5.6958e-08 -3.15671e-06 0)
(5.68844e-08 -3.1646e-06 0)
(5.68112e-08 -3.17254e-06 0)
(5.67379e-08 -3.18054e-06 0)
(5.66643e-08 -3.18858e-06 0)
(5.65903e-08 -3.1966e-06 0)
(5.6516e-08 -3.20462e-06 0)
(5.64414e-08 -3.21266e-06 0)
(5.63664e-08 -3.2207e-06 0)
(5.62911e-08 -3.22876e-06 0)
(5.62154e-08 -3.23682e-06 0)
(5.61393e-08 -3.24489e-06 0)
(5.60629e-08 -3.25296e-06 0)
(5.59862e-08 -3.26105e-06 0)
(5.59091e-08 -3.26914e-06 0)
(5.58316e-08 -3.27724e-06 0)
(5.57538e-08 -3.28535e-06 0)
(5.56756e-08 -3.29347e-06 0)
(5.5597e-08 -3.30159e-06 0)
(5.55181e-08 -3.30973e-06 0)
(5.54389e-08 -3.31787e-06 0)
(5.53592e-08 -3.32601e-06 0)
(5.52793e-08 -3.33417e-06 0)
(5.51989e-08 -3.34233e-06 0)
(5.51182e-08 -3.3505e-06 0)
(5.50371e-08 -3.35868e-06 0)
(5.49556e-08 -3.36686e-06 0)
(5.48738e-08 -3.37505e-06 0)
(5.47916e-08 -3.38325e-06 0)
(5.4709e-08 -3.39145e-06 0)
(5.46261e-08 -3.39967e-06 0)
(5.45428e-08 -3.40788e-06 0)
(5.44591e-08 -3.41611e-06 0)
(5.4375e-08 -3.42434e-06 0)
(5.42906e-08 -3.43258e-06 0)
(5.42058e-08 -3.44083e-06 0)
(5.41206e-08 -3.44908e-06 0)
(5.4035e-08 -3.45734e-06 0)
(5.3949e-08 -3.4656e-06 0)
(5.38627e-08 -3.47387e-06 0)
(5.3776e-08 -3.48215e-06 0)
(5.36889e-08 -3.49043e-06 0)
(5.36014e-08 -3.49872e-06 0)
(5.35136e-08 -3.50702e-06 0)
(5.34253e-08 -3.51532e-06 0)
(5.33367e-08 -3.52363e-06 0)
(5.32477e-08 -3.53194e-06 0)
(5.31583e-08 -3.54026e-06 0)
(5.30685e-08 -3.54858e-06 0)
(5.29783e-08 -3.55691e-06 0)
(5.28877e-08 -3.56524e-06 0)
(5.27967e-08 -3.57358e-06 0)
(5.27054e-08 -3.58193e-06 0)
(5.26136e-08 -3.59028e-06 0)
(5.25215e-08 -3.59864e-06 0)
(5.2429e-08 -3.607e-06 0)
(5.23361e-08 -3.61536e-06 0)
(5.22427e-08 -3.62373e-06 0)
(5.2149e-08 -3.63211e-06 0)
(5.20549e-08 -3.64049e-06 0)
(5.19604e-08 -3.64887e-06 0)
(5.18655e-08 -3.65726e-06 0)
(5.17702e-08 -3.66566e-06 0)
(5.16745e-08 -3.67405e-06 0)
(5.15784e-08 -3.68245e-06 0)
(5.14819e-08 -3.69086e-06 0)
(5.1385e-08 -3.69927e-06 0)
(5.12877e-08 -3.70768e-06 0)
(5.119e-08 -3.7161e-06 0)
(5.10919e-08 -3.72452e-06 0)
(5.09934e-08 -3.73295e-06 0)
(5.08944e-08 -3.74138e-06 0)
(5.07951e-08 -3.74981e-06 0)
(5.06954e-08 -3.75824e-06 0)
(5.05953e-08 -3.76668e-06 0)
(5.04947e-08 -3.77512e-06 0)
(5.03938e-08 -3.78357e-06 0)
(5.02924e-08 -3.79202e-06 0)
(5.01907e-08 -3.80047e-06 0)
(5.00885e-08 -3.80892e-06 0)
(4.9986e-08 -3.81738e-06 0)
(4.9883e-08 -3.82583e-06 0)
(4.97796e-08 -3.83429e-06 0)
(4.96758e-08 -3.84276e-06 0)
(4.95716e-08 -3.85122e-06 0)
(4.9467e-08 -3.85969e-06 0)
(4.9362e-08 -3.86816e-06 0)
(4.92565e-08 -3.87663e-06 0)
(4.91507e-08 -3.8851e-06 0)
(4.90444e-08 -3.89358e-06 0)
(4.89378e-08 -3.90206e-06 0)
(4.88307e-08 -3.91053e-06 0)
(4.87232e-08 -3.91901e-06 0)
(4.86153e-08 -3.92749e-06 0)
(4.8507e-08 -3.93597e-06 0)
(4.83983e-08 -3.94446e-06 0)
(4.82891e-08 -3.95294e-06 0)
(4.81796e-08 -3.96142e-06 0)
(4.80696e-08 -3.96991e-06 0)
(4.79592e-08 -3.97839e-06 0)
(4.78485e-08 -3.98688e-06 0)
(4.77373e-08 -3.99537e-06 0)
(4.76256e-08 -4.00385e-06 0)
(4.75136e-08 -4.01234e-06 0)
(4.74012e-08 -4.02082e-06 0)
(4.72883e-08 -4.02931e-06 0)
(4.71751e-08 -4.0378e-06 0)
(4.70614e-08 -4.04628e-06 0)
(4.69473e-08 -4.05477e-06 0)
(4.68328e-08 -4.06325e-06 0)
(4.67179e-08 -4.07173e-06 0)
(4.66026e-08 -4.08022e-06 0)
(4.64869e-08 -4.0887e-06 0)
(4.63707e-08 -4.09718e-06 0)
(4.62541e-08 -4.10566e-06 0)
(4.61372e-08 -4.11413e-06 0)
(4.60198e-08 -4.12261e-06 0)
(4.5902e-08 -4.13108e-06 0)
(4.57838e-08 -4.13956e-06 0)
(4.56652e-08 -4.14802e-06 0)
(4.55462e-08 -4.15649e-06 0)
(4.54267e-08 -4.16496e-06 0)
(4.53069e-08 -4.17342e-06 0)
(4.51867e-08 -4.18188e-06 0)
(4.5066e-08 -4.19034e-06 0)
(4.49449e-08 -4.1988e-06 0)
(4.48235e-08 -4.20725e-06 0)
(4.47016e-08 -4.2157e-06 0)
(4.45793e-08 -4.22415e-06 0)
(4.44566e-08 -4.23259e-06 0)
(4.43336e-08 -4.24103e-06 0)
(4.42101e-08 -4.24947e-06 0)
(4.40862e-08 -4.2579e-06 0)
(4.39619e-08 -4.26633e-06 0)
(4.38372e-08 -4.27475e-06 0)
(4.37121e-08 -4.28317e-06 0)
(4.35866e-08 -4.29159e-06 0)
(4.34606e-08 -4.3e-06 0)
(4.33343e-08 -4.30841e-06 0)
(4.32076e-08 -4.31681e-06 0)
(4.30805e-08 -4.32521e-06 0)
(4.29531e-08 -4.3336e-06 0)
(4.28252e-08 -4.34199e-06 0)
(4.26969e-08 -4.35037e-06 0)
(4.25682e-08 -4.35874e-06 0)
(4.24391e-08 -4.36711e-06 0)
(4.23097e-08 -4.37548e-06 0)
(4.21798e-08 -4.38384e-06 0)
(4.20496e-08 -4.39219e-06 0)
(4.19189e-08 -4.40054e-06 0)
(4.17879e-08 -4.40888e-06 0)
(4.16565e-08 -4.41721e-06 0)
(4.15247e-08 -4.42554e-06 0)
(4.13926e-08 -4.43386e-06 0)
(4.126e-08 -4.44217e-06 0)
(4.11271e-08 -4.45048e-06 0)
(4.09938e-08 -4.45877e-06 0)
(4.08601e-08 -4.46706e-06 0)
(4.0726e-08 -4.47535e-06 0)
(4.05916e-08 -4.48362e-06 0)
(4.04568e-08 -4.49189e-06 0)
(4.03216e-08 -4.50015e-06 0)
(4.0186e-08 -4.5084e-06 0)
(4.00501e-08 -4.51664e-06 0)
(3.99138e-08 -4.52488e-06 0)
(3.97771e-08 -4.5331e-06 0)
(3.96401e-08 -4.54132e-06 0)
(3.95027e-08 -4.54953e-06 0)
(3.93649e-08 -4.55773e-06 0)
(3.92268e-08 -4.56591e-06 0)
(3.90879e-08 -4.57411e-06 0)
(3.89489e-08 -4.58221e-06 0)
(3.88169e-08 -4.58994e-06 0)
(3.86903e-08 -4.59731e-06 0)
(3.85636e-08 -4.60459e-06 0)
(3.84366e-08 -4.61194e-06 0)
(3.83082e-08 -4.61938e-06 0)
(3.81785e-08 -4.62688e-06 0)
(3.80474e-08 -4.63444e-06 0)
(3.79148e-08 -4.64204e-06 0)
(3.77808e-08 -4.6497e-06 0)
(3.76453e-08 -4.65742e-06 0)
(3.75084e-08 -4.66519e-06 0)
(3.737e-08 -4.67302e-06 0)
(3.723e-08 -4.6809e-06 0)
(3.70885e-08 -4.68884e-06 0)
(3.69455e-08 -4.69684e-06 0)
(3.6801e-08 -4.70489e-06 0)
(3.66549e-08 -4.713e-06 0)
(3.65072e-08 -4.72116e-06 0)
(3.63579e-08 -4.72937e-06 0)
(3.62071e-08 -4.73764e-06 0)
(3.60546e-08 -4.74597e-06 0)
(3.59005e-08 -4.75435e-06 0)
(3.57448e-08 -4.76279e-06 0)
(3.55874e-08 -4.77128e-06 0)
(3.54283e-08 -4.77982e-06 0)
(3.52676e-08 -4.78842e-06 0)
(3.51051e-08 -4.79707e-06 0)
(3.4941e-08 -4.80578e-06 0)
(3.47752e-08 -4.81454e-06 0)
(3.46076e-08 -4.82335e-06 0)
(3.44383e-08 -4.83221e-06 0)
(3.42672e-08 -4.84113e-06 0)
(3.40944e-08 -4.85009e-06 0)
(3.39198e-08 -4.85911e-06 0)
(3.37434e-08 -4.86818e-06 0)
(3.35652e-08 -4.8773e-06 0)
(3.33852e-08 -4.88647e-06 0)
(3.32034e-08 -4.89569e-06 0)
(3.30197e-08 -4.90496e-06 0)
(3.28342e-08 -4.91428e-06 0)
(3.26469e-08 -4.92364e-06 0)
(3.24577e-08 -4.93306e-06 0)
(3.22666e-08 -4.94252e-06 0)
(3.20736e-08 -4.95202e-06 0)
(3.18788e-08 -4.96157e-06 0)
(3.1682e-08 -4.97116e-06 0)
(3.14834e-08 -4.98081e-06 0)
(3.12828e-08 -4.99049e-06 0)
(3.10803e-08 -5.00021e-06 0)
(3.08759e-08 -5.00998e-06 0)
(3.06695e-08 -5.01978e-06 0)
(3.04612e-08 -5.02963e-06 0)
(3.0251e-08 -5.03951e-06 0)
(3.00388e-08 -5.04943e-06 0)
(2.98246e-08 -5.0594e-06 0)
(2.96085e-08 -5.06939e-06 0)
(2.93904e-08 -5.07942e-06 0)
(2.91703e-08 -5.08948e-06 0)
(2.89483e-08 -5.09958e-06 0)
(2.87242e-08 -5.10971e-06 0)
(2.84982e-08 -5.11986e-06 0)
(2.82702e-08 -5.13005e-06 0)
(2.80403e-08 -5.14026e-06 0)
(2.78084e-08 -5.1505e-06 0)
(2.75745e-08 -5.16077e-06 0)
(2.73386e-08 -5.17106e-06 0)
(2.71007e-08 -5.18137e-06 0)
(2.68609e-08 -5.1917e-06 0)
(2.66191e-08 -5.20205e-06 0)
(2.63753e-08 -5.21241e-06 0)
(2.61296e-08 -5.2228e-06 0)
(2.5882e-08 -5.23319e-06 0)
(2.56324e-08 -5.2436e-06 0)
(2.53809e-08 -5.25402e-06 0)
(2.51274e-08 -5.26445e-06 0)
(2.48721e-08 -5.27488e-06 0)
(2.46148e-08 -5.28533e-06 0)
(2.43557e-08 -5.29577e-06 0)
(2.40947e-08 -5.30622e-06 0)
(2.38319e-08 -5.31666e-06 0)
(2.35672e-08 -5.3271e-06 0)
(2.33006e-08 -5.33753e-06 0)
(2.30323e-08 -5.34797e-06 0)
(2.27622e-08 -5.35838e-06 0)
(2.24904e-08 -5.36879e-06 0)
(2.22167e-08 -5.37918e-06 0)
(2.19414e-08 -5.38957e-06 0)
(2.16644e-08 -5.39992e-06 0)
(2.13857e-08 -5.41026e-06 0)
(2.11054e-08 -5.42057e-06 0)
(2.08235e-08 -5.43087e-06 0)
(2.054e-08 -5.44112e-06 0)
(2.02549e-08 -5.45135e-06 0)
(1.99683e-08 -5.46155e-06 0)
(1.96803e-08 -5.47171e-06 0)
(1.93908e-08 -5.48182e-06 0)
(1.90999e-08 -5.4919e-06 0)
(1.88077e-08 -5.50193e-06 0)
(1.85141e-08 -5.51192e-06 0)
(1.82192e-08 -5.52184e-06 0)
(1.79232e-08 -5.53173e-06 0)
(1.76259e-08 -5.54154e-06 0)
(1.73275e-08 -5.55131e-06 0)
(1.70279e-08 -5.561e-06 0)
(1.67274e-08 -5.57064e-06 0)
(1.64258e-08 -5.5802e-06 0)
(1.61234e-08 -5.58969e-06 0)
(1.582e-08 -5.5991e-06 0)
(1.55158e-08 -5.60844e-06 0)
(1.52109e-08 -5.61769e-06 0)
(1.49052e-08 -5.62686e-06 0)
(1.45989e-08 -5.63594e-06 0)
(1.42921e-08 -5.64493e-06 0)
(1.39847e-08 -5.65381e-06 0)
(1.36769e-08 -5.66261e-06 0)
(1.33687e-08 -5.67129e-06 0)
(1.30602e-08 -5.67988e-06 0)
(1.27515e-08 -5.68834e-06 0)
(1.24427e-08 -5.69671e-06 0)
(1.21337e-08 -5.70494e-06 0)
(1.18248e-08 -5.71307e-06 0)
(1.15159e-08 -5.72106e-06 0)
(1.12072e-08 -5.72893e-06 0)
(1.08987e-08 -5.73667e-06 0)
(1.05906e-08 -5.74428e-06 0)
(1.02829e-08 -5.75173e-06 0)
(9.97564e-09 -5.75906e-06 0)
(9.66898e-09 -5.76624e-06 0)
(9.363e-09 -5.77327e-06 0)
(9.05776e-09 -5.78014e-06 0)
(8.7534e-09 -5.78687e-06 0)
(8.44995e-09 -5.79342e-06 0)
(8.14756e-09 -5.79983e-06 0)
(7.84629e-09 -5.80605e-06 0)
(7.54625e-09 -5.81212e-06 0)
(7.24752e-09 -5.818e-06 0)
(6.95022e-09 -5.82372e-06 0)
(6.65442e-09 -5.82924e-06 0)
(6.36025e-09 -5.83459e-06 0)
(6.06777e-09 -5.83975e-06 0)
(5.77713e-09 -5.84472e-06 0)
(5.48838e-09 -5.84949e-06 0)
(5.20165e-09 -5.85408e-06 0)
(4.91703e-09 -5.85846e-06 0)
(4.63463e-09 -5.86264e-06 0)
(4.35453e-09 -5.86661e-06 0)
(4.07685e-09 -5.87039e-06 0)
(3.80168e-09 -5.87393e-06 0)
(3.52914e-09 -5.87729e-06 0)
(3.2593e-09 -5.8804e-06 0)
(2.99228e-09 -5.88332e-06 0)
(2.72816e-09 -5.886e-06 0)
(2.46707e-09 -5.88848e-06 0)
(2.20907e-09 -5.89071e-06 0)
(1.95428e-09 -5.89273e-06 0)
(1.70277e-09 -5.8945e-06 0)
(1.45466e-09 -5.89607e-06 0)
(1.21002e-09 -5.89738e-06 0)
(9.68957e-10 -5.89847e-06 0)
(7.3154e-10 -5.89931e-06 0)
(4.97866e-10 -5.89994e-06 0)
(2.68012e-10 -5.9003e-06 0)
(4.20635e-11 -5.90044e-06 0)
(-1.79902e-10 -5.90033e-06 0)
(-3.97806e-10 -5.89999e-06 0)
(-6.11574e-10 -5.89939e-06 0)
(-8.21135e-10 -5.89857e-06 0)
(-1.02641e-09 -5.89748e-06 0)
(-1.22735e-09 -5.89617e-06 0)
(-1.42387e-09 -5.89459e-06 0)
(-1.61591e-09 -5.8928e-06 0)
(-1.80342e-09 -5.89074e-06 0)
(-1.98633e-09 -5.88846e-06 0)
(-2.16459e-09 -5.88591e-06 0)
(-2.33815e-09 -5.88315e-06 0)
(-2.50695e-09 -5.88011e-06 0)
(-2.67097e-09 -5.87687e-06 0)
(-2.83005e-09 -5.87336e-06 0)
(-2.98456e-09 -5.86964e-06 0)
(-3.13266e-09 -5.86563e-06 0)
(-3.28117e-09 -5.86146e-06 0)
(-3.43695e-09 -5.85653e-06 0)
(-3.59349e-09 -5.85083e-06 0)
(-3.74453e-09 -5.84482e-06 0)
(-3.88757e-09 -5.83862e-06 0)
(-4.02196e-09 -5.83216e-06 0)
(-4.14799e-09 -5.82554e-06 0)
(-4.26578e-09 -5.81868e-06 0)
(-4.37561e-09 -5.81167e-06 0)
(-4.47767e-09 -5.80445e-06 0)
(-4.57229e-09 -5.79712e-06 0)
(-4.65965e-09 -5.78959e-06 0)
(-4.74006e-09 -5.78198e-06 0)
(-4.81368e-09 -5.77419e-06 0)
(-4.88081e-09 -5.76634e-06 0)
(-4.9416e-09 -5.75834e-06 0)
(-4.99633e-09 -5.75029e-06 0)
(-5.04514e-09 -5.74212e-06 0)
(-5.0883e-09 -5.73391e-06 0)
(-5.12592e-09 -5.7256e-06 0)
(-5.15828e-09 -5.71727e-06 0)
(-5.18547e-09 -5.70885e-06 0)
(-5.20775e-09 -5.70044e-06 0)
(-5.22519e-09 -5.69195e-06 0)
(-5.23805e-09 -5.68348e-06 0)
(-5.2464e-09 -5.67495e-06 0)
(-5.25047e-09 -5.66645e-06 0)
(-5.25031e-09 -5.65791e-06 0)
(-5.24616e-09 -5.64941e-06 0)
(-5.23805e-09 -5.64088e-06 0)
(-5.22621e-09 -5.63242e-06 0)
(-5.21067e-09 -5.62392e-06 0)
(-5.19163e-09 -5.61551e-06 0)
(-5.16912e-09 -5.60708e-06 0)
(-5.14333e-09 -5.59873e-06 0)
(-5.11429e-09 -5.59039e-06 0)
(-5.08218e-09 -5.58214e-06 0)
(-5.04701e-09 -5.5739e-06 0)
(-5.00895e-09 -5.56577e-06 0)
(-4.96802e-09 -5.55765e-06 0)
(-4.92438e-09 -5.54965e-06 0)
(-4.87804e-09 -5.54167e-06 0)
(-4.82915e-09 -5.53382e-06 0)
(-4.77771e-09 -5.526e-06 0)
(-4.72386e-09 -5.51832e-06 0)
(-4.66762e-09 -5.51068e-06 0)
(-4.60911e-09 -5.50318e-06 0)
(-4.54833e-09 -5.49572e-06 0)
(-4.48542e-09 -5.48842e-06 0)
(-4.42036e-09 -5.48117e-06 0)
(-4.35328e-09 -5.47408e-06 0)
(-4.28418e-09 -5.46705e-06 0)
(-4.21317e-09 -5.46017e-06 0)
(-4.14024e-09 -5.45338e-06 0)
(-4.06551e-09 -5.44674e-06 0)
(-3.98896e-09 -5.44018e-06 0)
(-3.91071e-09 -5.4338e-06 0)
(-3.83074e-09 -5.42749e-06 0)
(-3.74916e-09 -5.42136e-06 0)
(-3.66595e-09 -5.41533e-06 0)
(-3.58121e-09 -5.40947e-06 0)
(-3.49495e-09 -5.4037e-06 0)
(-3.40724e-09 -5.39812e-06 0)
(-3.31809e-09 -5.39265e-06 0)
(-3.22758e-09 -5.38735e-06 0)
(-3.13571e-09 -5.38217e-06 0)
(-3.04256e-09 -5.37717e-06 0)
(-2.94814e-09 -5.37229e-06 0)
(-2.85251e-09 -5.3676e-06 0)
(-2.7557e-09 -5.36303e-06 0)
(-2.65777e-09 -5.35865e-06 0)
(-2.55873e-09 -5.35439e-06 0)
(-2.45865e-09 -5.35033e-06 0)
(-2.35754e-09 -5.34641e-06 0)
(-2.25547e-09 -5.34267e-06 0)
(-2.15245e-09 -5.33908e-06 0)
(-2.04855e-09 -5.33567e-06 0)
(-1.94378e-09 -5.33242e-06 0)
(-1.83822e-09 -5.32935e-06 0)
(-1.73187e-09 -5.32644e-06 0)
(-1.62479e-09 -5.32372e-06 0)
(-1.51702e-09 -5.32115e-06 0)
(-1.4086e-09 -5.31877e-06 0)
(-1.29957e-09 -5.31656e-06 0)
(-1.18999e-09 -5.31454e-06 0)
(-1.07989e-09 -5.31267e-06 0)
(-9.69326e-10 -5.31104e-06 0)
(-8.58345e-10 -5.30943e-06 0)
(-7.47017e-10 -5.30849e-06 0)
(-6.35353e-10 -5.30612e-06 0)
(-5.23545e-10 -5.3092e-06 0)
(-4.11294e-10 -5.29462e-06 0)
(-2.99489e-10 -5.33713e-06 0)
(-1.87034e-10 -5.17696e-06 0)
(-7.21659e-11 -5.60196e-06 0)
(-7.15678e-12 -4.89273e-06 0)
)
;
    }
    bottomWall
    {
        type            calculated;
        value           nonuniform List<vector> 
449
(
(-52.6865 -0.955312 0)
(-34.7305 -0.00279712 0)
(-34.3373 -0.000255069 0)
(-32.9754 -0.000363115 0)
(-31.8516 -0.00031467 0)
(-30.8174 -0.000283688 0)
(-29.9019 -0.000248868 0)
(-29.1033 -0.000217063 0)
(-28.4036 -0.000190577 0)
(-27.7849 -0.000168849 0)
(-27.2329 -0.000150859 0)
(-26.7366 -0.000135781 0)
(-26.2873 -0.000123146 0)
(-25.877 -0.000112479 0)
(-25.5003 -0.000103277 0)
(-25.1528 -9.5281e-05 0)
(-24.8306 -8.82971e-05 0)
(-24.5308 -8.21678e-05 0)
(-24.2505 -7.67674e-05 0)
(-23.9875 -7.1952e-05 0)
(-23.7401 -6.76322e-05 0)
(-23.5066 -6.37468e-05 0)
(-23.2858 -6.02414e-05 0)
(-23.0764 -5.70602e-05 0)
(-22.8773 -5.41644e-05 0)
(-22.6877 -5.15077e-05 0)
(-22.5068 -4.9073e-05 0)
(-22.3339 -4.68341e-05 0)
(-22.1684 -4.47689e-05 0)
(-22.0096 -4.28538e-05 0)
(-21.8572 -4.10783e-05 0)
(-21.7107 -3.94264e-05 0)
(-21.5697 -3.78885e-05 0)
(-21.4337 -3.64472e-05 0)
(-21.3026 -3.51024e-05 0)
(-21.1759 -3.38385e-05 0)
(-21.0534 -3.26561e-05 0)
(-20.9349 -3.15465e-05 0)
(-20.8201 -3.04998e-05 0)
(-20.7088 -2.95134e-05 0)
(-20.6008 -2.85822e-05 0)
(-20.4959 -2.77031e-05 0)
(-20.3939 -2.68677e-05 0)
(-20.2948 -2.60719e-05 0)
(-20.1983 -2.5316e-05 0)
(-20.1044 -2.45898e-05 0)
(-20.013 -2.38981e-05 0)
(-19.9239 -2.324e-05 0)
(-19.8371 -2.26024e-05 0)
(-19.7524 -2.20022e-05 0)
(-19.6697 -2.1422e-05 0)
(-19.589 -2.08708e-05 0)
(-19.5102 -2.0345e-05 0)
(-19.4332 -1.98389e-05 0)
(-19.3578 -1.93576e-05 0)
(-19.2842 -1.88946e-05 0)
(-19.212 -1.84529e-05 0)
(-19.1415 -1.80287e-05 0)
(-19.0723 -1.76219e-05 0)
(-19.0045 -1.72308e-05 0)
(-18.9381 -1.68545e-05 0)
(-18.873 -1.64932e-05 0)
(-18.809 -1.61442e-05 0)
(-18.7464 -1.58092e-05 0)
(-18.6848 -1.54855e-05 0)
(-18.6243 -1.51733e-05 0)
(-18.5649 -1.48724e-05 0)
(-18.5066 -1.45798e-05 0)
(-18.4492 -1.42999e-05 0)
(-18.3928 -1.4025e-05 0)
(-18.3374 -1.37628e-05 0)
(-18.2829 -1.35059e-05 0)
(-18.2292 -1.32581e-05 0)
(-18.1764 -1.3018e-05 0)
(-18.1244 -1.27833e-05 0)
(-18.0733 -1.25583e-05 0)
(-18.0229 -1.23369e-05 0)
(-17.9733 -1.21235e-05 0)
(-17.9244 -1.19166e-05 0)
(-17.8762 -1.17134e-05 0)
(-17.8288 -1.15181e-05 0)
(-17.782 -1.13266e-05 0)
(-17.7359 -1.11401e-05 0)
(-17.6904 -1.09602e-05 0)
(-17.6456 -1.07828e-05 0)
(-17.6014 -1.06113e-05 0)
(-17.5578 -1.04448e-05 0)
(-17.5147 -1.02808e-05 0)
(-17.4722 -1.01222e-05 0)
(-17.4303 -9.96769e-06 0)
(-17.389 -9.8157e-06 0)
(-17.3481 -9.66887e-06 0)
(-17.3078 -9.52541e-06 0)
(-17.2679 -9.38432e-06 0)
(-17.2286 -9.24782e-06 0)
(-17.1898 -9.11439e-06 0)
(-17.1514 -8.98309e-06 0)
(-17.1134 -8.85587e-06 0)
(-17.076 -8.73163e-06 0)
(-17.0389 -8.6092e-06 0)
(-17.0023 -8.49032e-06 0)
(-16.9661 -8.37449e-06 0)
(-16.9303 -8.26014e-06 0)
(-16.8949 -8.1488e-06 0)
(-16.8599 -8.04056e-06 0)
(-16.8253 -7.93367e-06 0)
(-16.7911 -7.82921e-06 0)
(-16.7572 -7.72769e-06 0)
(-16.7237 -7.62782e-06 0)
(-16.6906 -7.52962e-06 0)
(-16.6578 -7.43407e-06 0)
(-16.6253 -7.34062e-06 0)
(-16.5932 -7.24828e-06 0)
(-16.5614 -7.15819e-06 0)
(-16.5299 -7.07033e-06 0)
(-16.4987 -6.98373e-06 0)
(-16.4679 -6.89861e-06 0)
(-16.4373 -6.81565e-06 0)
(-16.407 -6.73438e-06 0)
(-16.377 -6.65409e-06 0)
(-16.3473 -6.57554e-06 0)
(-16.3179 -6.49878e-06 0)
(-16.2888 -6.42328e-06 0)
(-16.2599 -6.34884e-06 0)
(-16.2313 -6.27609e-06 0)
(-16.203 -6.20484e-06 0)
(-16.1749 -6.13462e-06 0)
(-16.1471 -6.06552e-06 0)
(-16.1195 -5.99793e-06 0)
(-16.0921 -5.93161e-06 0)
(-16.065 -5.86617e-06 0)
(-16.0381 -5.80186e-06 0)
(-16.0115 -5.73888e-06 0)
(-15.9851 -5.67701e-06 0)
(-15.9589 -5.61596e-06 0)
(-15.9329 -5.55595e-06 0)
(-15.9071 -5.49712e-06 0)
(-15.8816 -5.43931e-06 0)
(-15.8563 -5.38226e-06 0)
(-15.8311 -5.32618e-06 0)
(-15.8062 -5.2711e-06 0)
(-15.7815 -5.21701e-06 0)
(-15.7569 -5.16358e-06 0)
(-15.7326 -5.11107e-06 0)
(-15.7084 -5.05939e-06 0)
(-15.6845 -5.00868e-06 0)
(-15.6607 -4.95857e-06 0)
(-15.6371 -4.90929e-06 0)
(-15.6137 -4.86075e-06 0)
(-15.5904 -4.81308e-06 0)
(-15.5673 -4.76605e-06 0)
(-15.5444 -4.71969e-06 0)
(-15.5217 -4.67408e-06 0)
(-15.4991 -4.62916e-06 0)
(-15.4767 -4.58498e-06 0)
(-15.4545 -4.54132e-06 0)
(-15.4324 -4.49836e-06 0)
(-15.4105 -4.45603e-06 0)
(-15.3887 -4.41436e-06 0)
(-15.3671 -4.37326e-06 0)
(-15.3456 -4.33271e-06 0)
(-15.3243 -4.29279e-06 0)
(-15.3031 -4.25341e-06 0)
(-15.2821 -4.21464e-06 0)
(-15.2612 -4.17637e-06 0)
(-15.2405 -4.13859e-06 0)
(-15.2198 -4.10147e-06 0)
(-15.1994 -4.06469e-06 0)
(-15.179 -4.0287e-06 0)
(-15.1588 -3.9928e-06 0)
(-15.1388 -3.95778e-06 0)
(-15.1188 -3.92296e-06 0)
(-15.099 -3.88638e-06 0)
(-15.0804 -3.85627e-06 0)
(-15.0629 -3.82953e-06 0)
(-15.0454 -3.79858e-06 0)
(-15.0278 -3.76829e-06 0)
(-15.0102 -3.73857e-06 0)
(-14.9925 -3.70878e-06 0)
(-14.9748 -3.67933e-06 0)
(-14.957 -3.64993e-06 0)
(-14.9392 -3.62075e-06 0)
(-14.9213 -3.59163e-06 0)
(-14.9033 -3.56267e-06 0)
(-14.8854 -3.53381e-06 0)
(-14.8673 -3.50505e-06 0)
(-14.8493 -3.47645e-06 0)
(-14.8311 -3.44794e-06 0)
(-14.813 -3.41955e-06 0)
(-14.7948 -3.39131e-06 0)
(-14.7765 -3.36313e-06 0)
(-14.7582 -3.33514e-06 0)
(-14.7398 -3.30722e-06 0)
(-14.7215 -3.27945e-06 0)
(-14.703 -3.2518e-06 0)
(-14.6845 -3.22426e-06 0)
(-14.666 -3.19687e-06 0)
(-14.6475 -3.16959e-06 0)
(-14.6288 -3.14245e-06 0)
(-14.6102 -3.11544e-06 0)
(-14.5915 -3.08854e-06 0)
(-14.5728 -3.06179e-06 0)
(-14.554 -3.03514e-06 0)
(-14.5352 -3.00867e-06 0)
(-14.5164 -2.98229e-06 0)
(-14.4975 -2.95608e-06 0)
(-14.4786 -2.92997e-06 0)
(-14.4596 -2.90402e-06 0)
(-14.4406 -2.87819e-06 0)
(-14.4216 -2.85252e-06 0)
(-14.4026 -2.82696e-06 0)
(-14.3835 -2.80156e-06 0)
(-14.3643 -2.77627e-06 0)
(-14.3452 -2.75117e-06 0)
(-14.326 -2.72615e-06 0)
(-14.3068 -2.70131e-06 0)
(-14.2875 -2.67657e-06 0)
(-14.2682 -2.65202e-06 0)
(-14.2489 -2.62758e-06 0)
(-14.2296 -2.60329e-06 0)
(-14.2102 -2.57914e-06 0)
(-14.1908 -2.55514e-06 0)
(-14.1714 -2.53129e-06 0)
(-14.1519 -2.50757e-06 0)
(-14.1324 -2.484e-06 0)
(-14.1129 -2.46057e-06 0)
(-14.0934 -2.43732e-06 0)
(-14.0738 -2.41416e-06 0)
(-14.0542 -2.39118e-06 0)
(-14.0346 -2.36832e-06 0)
(-14.015 -2.34565e-06 0)
(-13.9953 -2.32308e-06 0)
(-13.9756 -2.30069e-06 0)
(-13.9559 -2.27841e-06 0)
(-13.9362 -2.25632e-06 0)
(-13.9165 -2.23435e-06 0)
(-13.8967 -2.21255e-06 0)
(-13.8769 -2.19085e-06 0)
(-13.8571 -2.16936e-06 0)
(-13.8373 -2.14798e-06 0)
(-13.8175 -2.12678e-06 0)
(-13.7976 -2.10566e-06 0)
(-13.7777 -2.08476e-06 0)
(-13.7578 -2.06395e-06 0)
(-13.7379 -2.04335e-06 0)
(-13.718 -2.02282e-06 0)
(-13.6981 -2.00252e-06 0)
(-13.6781 -1.98229e-06 0)
(-13.6582 -1.9623e-06 0)
(-13.6382 -1.94235e-06 0)
(-13.6182 -1.92265e-06 0)
(-13.5982 -1.903e-06 0)
(-13.5782 -1.8836e-06 0)
(-13.5582 -1.86423e-06 0)
(-13.5382 -1.84512e-06 0)
(-13.5182 -1.82606e-06 0)
(-13.4981 -1.80723e-06 0)
(-13.4781 -1.78846e-06 0)
(-13.458 -1.76992e-06 0)
(-13.4379 -1.75146e-06 0)
(-13.4179 -1.7332e-06 0)
(-13.3978 -1.71501e-06 0)
(-13.3777 -1.69705e-06 0)
(-13.3576 -1.67917e-06 0)
(-13.3375 -1.66149e-06 0)
(-13.3174 -1.64387e-06 0)
(-13.2973 -1.62648e-06 0)
(-13.2772 -1.60917e-06 0)
(-13.2571 -1.59206e-06 0)
(-13.237 -1.57502e-06 0)
(-13.2169 -1.55819e-06 0)
(-13.1968 -1.54145e-06 0)
(-13.1767 -1.52488e-06 0)
(-13.1566 -1.50843e-06 0)
(-13.1365 -1.49213e-06 0)
(-13.1164 -1.47596e-06 0)
(-13.0963 -1.45994e-06 0)
(-13.0761 -1.44405e-06 0)
(-13.0561 -1.4283e-06 0)
(-13.036 -1.41269e-06 0)
(-13.0159 -1.3972e-06 0)
(-12.9958 -1.38187e-06 0)
(-12.9757 -1.36665e-06 0)
(-12.9556 -1.35158e-06 0)
(-12.9356 -1.33663e-06 0)
(-12.9155 -1.32184e-06 0)
(-12.8954 -1.30715e-06 0)
(-12.8754 -1.29262e-06 0)
(-12.8553 -1.27819e-06 0)
(-12.8353 -1.26393e-06 0)
(-12.8153 -1.24975e-06 0)
(-12.7953 -1.23574e-06 0)
(-12.7753 -1.22183e-06 0)
(-12.7553 -1.2081e-06 0)
(-12.7353 -1.19442e-06 0)
(-12.7153 -1.18094e-06 0)
(-12.6954 -1.16752e-06 0)
(-12.6754 -1.15429e-06 0)
(-12.6555 -1.14112e-06 0)
(-12.6355 -1.12814e-06 0)
(-12.6156 -1.11522e-06 0)
(-12.5957 -1.10247e-06 0)
(-12.5758 -1.0898e-06 0)
(-12.556 -1.0773e-06 0)
(-12.5361 -1.06486e-06 0)
(-12.5163 -1.05262e-06 0)
(-12.4965 -1.04042e-06 0)
(-12.4767 -1.02839e-06 0)
(-12.4569 -1.01643e-06 0)
(-12.4371 -1.00464e-06 0)
(-12.4174 -9.92921e-07 0)
(-12.3976 -9.81359e-07 0)
(-12.3779 -9.69866e-07 0)
(-12.3582 -9.58529e-07 0)
(-12.3385 -9.47271e-07 0)
(-12.3189 -9.36155e-07 0)
(-12.2992 -9.25122e-07 0)
(-12.2796 -9.14227e-07 0)
(-12.26 -9.03408e-07 0)
(-12.2404 -8.92734e-07 0)
(-12.2209 -8.82141e-07 0)
(-12.2014 -8.71673e-07 0)
(-12.1819 -8.61293e-07 0)
(-12.1624 -8.51047e-07 0)
(-12.1429 -8.40881e-07 0)
(-12.1235 -8.30827e-07 0)
(-12.104 -8.20875e-07 0)
(-12.0847 -8.11036e-07 0)
(-12.0653 -8.01289e-07 0)
(-12.0459 -7.91648e-07 0)
(-12.0266 -7.82107e-07 0)
(-12.0073 -7.72666e-07 0)
(-11.9881 -7.63324e-07 0)
(-11.9688 -7.54077e-07 0)
(-11.9496 -7.44935e-07 0)
(-11.9304 -7.35876e-07 0)
(-11.9113 -7.26936e-07 0)
(-11.8922 -7.1807e-07 0)
(-11.8731 -7.09311e-07 0)
(-11.854 -7.00629e-07 0)
(-11.8349 -6.92065e-07 0)
(-11.8159 -6.83566e-07 0)
(-11.7969 -6.7518e-07 0)
(-11.778 -6.6687e-07 0)
(-11.7591 -6.5867e-07 0)
(-11.7401 -6.5053e-07 0)
(-11.7213 -6.42507e-07 0)
(-11.7024 -6.34546e-07 0)
(-11.6836 -6.26699e-07 0)
(-11.6649 -6.18868e-07 0)
(-11.6461 -6.11239e-07 0)
(-11.6274 -6.03481e-07 0)
(-11.6088 -5.96067e-07 0)
(-11.5901 -5.88795e-07 0)
(-11.5694 -5.80054e-07 0)
(-11.5469 -5.70824e-07 0)
(-11.5247 -5.62552e-07 0)
(-11.5028 -5.54438e-07 0)
(-11.4813 -5.46394e-07 0)
(-11.4601 -5.38562e-07 0)
(-11.4391 -5.30885e-07 0)
(-11.4185 -5.23404e-07 0)
(-11.3982 -5.16097e-07 0)
(-11.3781 -5.08945e-07 0)
(-11.3583 -5.01984e-07 0)
(-11.3388 -4.95178e-07 0)
(-11.3196 -4.88526e-07 0)
(-11.3006 -4.82031e-07 0)
(-11.2818 -4.75692e-07 0)
(-11.2633 -4.6948e-07 0)
(-11.2451 -4.63426e-07 0)
(-11.227 -4.57492e-07 0)
(-11.2093 -4.51705e-07 0)
(-11.1917 -4.46024e-07 0)
(-11.1744 -4.40486e-07 0)
(-11.1572 -4.35049e-07 0)
(-11.1403 -4.29747e-07 0)
(-11.1236 -4.2454e-07 0)
(-11.1071 -4.19454e-07 0)
(-11.0907 -4.14465e-07 0)
(-11.0746 -4.09579e-07 0)
(-11.0587 -4.04795e-07 0)
(-11.0429 -4.00113e-07 0)
(-11.0273 -3.95514e-07 0)
(-11.012 -3.91015e-07 0)
(-10.9967 -3.86605e-07 0)
(-10.9817 -3.82286e-07 0)
(-10.9668 -3.78041e-07 0)
(-10.9521 -3.73884e-07 0)
(-10.9375 -3.69806e-07 0)
(-10.9232 -3.65815e-07 0)
(-10.9089 -3.61886e-07 0)
(-10.8948 -3.58039e-07 0)
(-10.8809 -3.54263e-07 0)
(-10.8671 -3.50561e-07 0)
(-10.8534 -3.46921e-07 0)
(-10.84 -3.43347e-07 0)
(-10.8266 -3.39847e-07 0)
(-10.8134 -3.36409e-07 0)
(-10.8002 -3.33024e-07 0)
(-10.7873 -3.29705e-07 0)
(-10.7744 -3.26447e-07 0)
(-10.7617 -3.23249e-07 0)
(-10.7491 -3.201e-07 0)
(-10.7367 -3.17013e-07 0)
(-10.7243 -3.13973e-07 0)
(-10.7121 -3.10992e-07 0)
(-10.7 -3.08063e-07 0)
(-10.688 -3.05181e-07 0)
(-10.6761 -3.02345e-07 0)
(-10.6643 -2.99566e-07 0)
(-10.6526 -2.96829e-07 0)
(-10.6411 -2.94151e-07 0)
(-10.6296 -2.91489e-07 0)
(-10.6183 -2.88908e-07 0)
(-10.607 -2.86335e-07 0)
(-10.5959 -2.83856e-07 0)
(-10.5848 -2.81345e-07 0)
(-10.5738 -2.78974e-07 0)
(-10.5629 -2.76507e-07 0)
(-10.5522 -2.74261e-07 0)
(-10.5415 -2.71845e-07 0)
(-10.5309 -2.69725e-07 0)
(-10.5204 -2.67315e-07 0)
(-10.51 -2.65365e-07 0)
(-10.4996 -2.62942e-07 0)
(-10.4894 -2.61169e-07 0)
(-10.4791 -2.58712e-07 0)
(-10.4692 -2.57146e-07 0)
(-10.459 -2.54624e-07 0)
(-10.4492 -2.53301e-07 0)
(-10.4392 -2.50704e-07 0)
(-10.4296 -2.4963e-07 0)
(-10.4197 -2.4698e-07 0)
(-10.4103 -2.46127e-07 0)
(-10.4004 -2.43522e-07 0)
(-10.3912 -2.42724e-07 0)
(-10.3814 -2.40521e-07 0)
(-10.3724 -2.39214e-07 0)
(-10.3627 -2.38494e-07 0)
(-10.3537 -2.34891e-07 0)
(-10.3443 -2.38932e-07 0)
(-10.335 -2.27319e-07 0)
(-10.3265 -2.46266e-07 0)
(-10.3157 -2.09521e-07 0)
(-10.3102 -2.66403e-07 0)
(-10.2946 -1.73763e-07 0)
(-10.2969 -2.41087e-07 0)
(-10.2753 -2.83375e-07 0)
)
;
    }
    symmetry
    {
        type            symmetryPlane;
    }
    frontAndBack
    {
        type            empty;
    }
}


// ************************************************************************* //
