/*--------------------------------*- C++ -*----------------------------------*\
| =========                 |                                                 |
| \\      /  F ield         | OpenFOAM: The Open Source CFD Toolbox           |
|  \\    /   O peration     | Version:  v2012                                 |
|   \\  /    A nd           | Website:  www.openfoam.com                      |
|    \\/     M anipulation  |                                                 |
\*---------------------------------------------------------------------------*/
FoamFile
{
    version     2.0;
    format      ascii;
    class       volScalarField;
    location    "56";
    object      yPlus;
}
// * * * * * * * * * * * * * * * * * * * * * * * * * * * * * * * * * * * * * //

dimensions      [0 0 0 0 0 0 0];


internalField   uniform 0;

boundaryField
{
    inlet
    {
        type            calculated;
        value           uniform 0;
    }
    outlet
    {
        type            calculated;
        value           uniform 0;
    }
    topWall
    {
        type            calculated;
        value           nonuniform List<scalar> 
545
(
0.153495
0.264677
0.339546
0.399126
0.449564
0.493696
0.533113
0.568819
0.601496
0.631635
0.659602
0.685683
0.710103
0.733046
0.754661
0.775078
0.794403
0.812729
0.830137
0.846697
0.862471
0.877514
0.891877
0.905602
0.91873
0.931298
0.943338
0.954881
0.965954
0.976584
0.986793
0.996604
1.00604
1.01511
1.02384
1.03225
1.04034
1.04815
1.05566
1.06291
1.0699
1.07665
1.08316
1.08944
1.09551
1.10137
1.10703
1.1125
1.11778
1.1229
1.12784
1.13262
1.13724
1.14171
1.14604
1.15023
1.15428
1.15821
1.16201
1.16569
1.16926
1.17272
1.17606
1.17931
1.18245
1.1855
1.18845
1.19131
1.19409
1.19678
1.19939
1.20193
1.20435
1.2067
1.20903
1.21134
1.21363
1.2159
1.21815
1.22039
1.22261
1.22481
1.22699
1.22916
1.23131
1.23344
1.23555
1.23765
1.23974
1.2418
1.24385
1.24589
1.24791
1.24991
1.2519
1.25387
1.25565
1.25724
1.25883
1.26042
1.262
1.26359
1.26518
1.26677
1.26836
1.26994
1.27153
1.27312
1.2747
1.27629
1.27787
1.27946
1.28104
1.28263
1.28421
1.28579
1.28737
1.28896
1.29054
1.29212
1.2937
1.29528
1.29686
1.29844
1.30002
1.3016
1.30317
1.30475
1.30633
1.3079
1.30948
1.31105
1.31262
1.3142
1.31577
1.31734
1.31891
1.32048
1.32205
1.32362
1.32519
1.32676
1.32832
1.32989
1.33146
1.33302
1.33458
1.33615
1.33771
1.33927
1.34083
1.34239
1.34395
1.34551
1.34706
1.34862
1.35017
1.35173
1.35328
1.35483
1.35638
1.35793
1.35948
1.36103
1.36258
1.36412
1.36567
1.36721
1.36875
1.3703
1.37184
1.37338
1.37491
1.37645
1.37799
1.37952
1.38105
1.38259
1.38412
1.38565
1.38718
1.3887
1.39023
1.39175
1.39328
1.3948
1.39632
1.39784
1.39936
1.40087
1.40239
1.4039
1.40541
1.40692
1.40843
1.40994
1.41145
1.41295
1.41445
1.41596
1.41746
1.41895
1.42045
1.42195
1.42344
1.42493
1.42642
1.42791
1.4294
1.43088
1.43236
1.43385
1.43533
1.4368
1.43828
1.43975
1.44123
1.4427
1.44417
1.44563
1.4471
1.44856
1.45002
1.45148
1.45294
1.45439
1.45584
1.4573
1.45874
1.46019
1.46164
1.46308
1.46452
1.46596
1.46739
1.46883
1.47026
1.47169
1.47312
1.47454
1.47596
1.47738
1.4788
1.48022
1.48163
1.48304
1.48445
1.48586
1.48726
1.48866
1.49006
1.49146
1.49285
1.49424
1.49563
1.49702
1.4984
1.49978
1.50116
1.50254
1.50391
1.50528
1.50665
1.50801
1.50937
1.51073
1.51209
1.51345
1.5148
1.51607
1.51727
1.51848
1.5197
1.52092
1.52215
1.5234
1.52465
1.5259
1.52717
1.52844
1.52973
1.53102
1.53231
1.53362
1.53493
1.53626
1.53759
1.53892
1.54027
1.54162
1.54298
1.54435
1.54573
1.54711
1.5485
1.5499
1.55131
1.55272
1.55414
1.55557
1.557
1.55845
1.55989
1.56135
1.56281
1.56428
1.56576
1.56724
1.56873
1.57022
1.57172
1.57323
1.57474
1.57626
1.57778
1.57931
1.58085
1.58239
1.58393
1.58548
1.58704
1.5886
1.59016
1.59173
1.5933
1.59488
1.59645
1.59804
1.59962
1.60121
1.60281
1.6044
1.606
1.6076
1.6092
1.61081
1.61241
1.61402
1.61563
1.61724
1.61884
1.62045
1.62206
1.62367
1.62528
1.62689
1.6285
1.6301
1.63171
1.63331
1.63491
1.63651
1.6381
1.63969
1.64128
1.64286
1.64444
1.64602
1.64759
1.64915
1.65071
1.65226
1.6538
1.65534
1.65687
1.6584
1.65991
1.66142
1.66291
1.6644
1.66588
1.66735
1.6688
1.67025
1.67168
1.67311
1.67451
1.67591
1.67729
1.67866
1.68002
1.68136
1.68268
1.68399
1.68528
1.68656
1.68782
1.68906
1.69028
1.69148
1.69267
1.69383
1.69498
1.6961
1.6972
1.69829
1.69934
1.70038
1.70139
1.70239
1.70335
1.70429
1.70521
1.7061
1.70696
1.7078
1.70861
1.7094
1.71016
1.71089
1.71159
1.71226
1.7129
1.71351
1.71409
1.71465
1.71516
1.71566
1.71611
1.71654
1.71693
1.71729
1.71762
1.71792
1.71818
1.7184
1.7186
1.71876
1.71888
1.71897
1.71903
1.71905
1.71903
1.71899
1.7189
1.71878
1.71862
1.71843
1.71821
1.71795
1.71765
1.71731
1.71694
1.71654
1.7161
1.71563
1.71512
1.71458
1.71399
1.71338
1.71266
1.71183
1.71095
1.71004
1.7091
1.70813
1.70712
1.7061
1.70504
1.70396
1.70286
1.70174
1.70059
1.69944
1.69826
1.69707
1.69586
1.69465
1.69342
1.69219
1.69095
1.6897
1.68844
1.68719
1.68592
1.68466
1.68339
1.68213
1.68086
1.67959
1.67833
1.67707
1.67581
1.67457
1.67332
1.67208
1.67085
1.66963
1.66841
1.66721
1.66601
1.66483
1.66366
1.6625
1.66135
1.66022
1.6591
1.65799
1.6569
1.65583
1.65476
1.65372
1.65269
1.65169
1.65069
1.64972
1.64877
1.64784
1.64692
1.64603
1.64515
1.6443
1.64347
1.64266
1.64187
1.64111
1.64036
1.63965
1.63895
1.63828
1.63763
1.63701
1.63641
1.63584
1.63528
1.63476
1.63426
1.6338
1.63335
1.63293
1.63254
1.63217
1.63183
1.63152
1.63124
1.63098
1.63075
1.63055
1.63038
1.63023
1.63011
1.63002
1.62996
1.62993
1.62991
)
;
    }
    bottomWall
    {
        type            calculated;
        value           nonuniform List<scalar> 
449
(
0.00273663
0.00479994
0.00537296
0.00532578
0.00525503
0.0051594
0.00506228
0.00497132
0.00488779
0.00481145
0.00474159
0.00467754
0.00461858
0.004564
0.00451326
0.00446599
0.00442176
0.00438027
0.00434119
0.00430429
0.00426936
0.00423623
0.00420473
0.00417471
0.00414605
0.00411865
0.0040924
0.00406723
0.00404304
0.00401978
0.00399738
0.00397578
0.00395494
0.00393479
0.00391531
0.00389645
0.00387818
0.00386045
0.00384324
0.00382652
0.00381028
0.00379446
0.00377907
0.00376408
0.00374947
0.00373522
0.00372133
0.00370777
0.00369453
0.00368161
0.00366897
0.00365664
0.00364455
0.00363274
0.00362117
0.00360985
0.00359875
0.00358787
0.0035772
0.00356673
0.00355646
0.00354638
0.00353647
0.00352675
0.00351718
0.00350779
0.00349855
0.00348947
0.00348053
0.00347173
0.00346308
0.00345456
0.00344617
0.0034379
0.00342976
0.00342174
0.00341384
0.00340605
0.00339837
0.0033908
0.00338334
0.00337597
0.00336871
0.00336154
0.00335446
0.00334748
0.00334059
0.00333379
0.00332707
0.00332044
0.00331389
0.00330741
0.00330102
0.0032947
0.00328846
0.00328228
0.00327618
0.00327015
0.00326419
0.00325829
0.00325246
0.00324669
0.00324099
0.00323534
0.00322976
0.00322423
0.00321876
0.00321335
0.00320799
0.00320269
0.00319744
0.00319224
0.00318709
0.00318199
0.00317694
0.00317194
0.00316698
0.00316207
0.00315721
0.00315239
0.00314762
0.00314288
0.00313819
0.00313355
0.00312894
0.00312437
0.00311984
0.00311535
0.0031109
0.00310648
0.00310211
0.00309777
0.00309346
0.00308919
0.00308495
0.00308075
0.00307658
0.00307244
0.00306834
0.00306426
0.00306022
0.00305621
0.00305223
0.00304828
0.00304436
0.00304047
0.0030366
0.00303277
0.00302896
0.00302518
0.00302143
0.0030177
0.003014
0.00301032
0.00300667
0.00300305
0.00299945
0.00299588
0.00299232
0.0029888
0.00298529
0.00298181
0.00297835
0.00297492
0.0029715
0.00296811
0.00296474
0.00296139
0.00295806
0.00295476
0.00295147
0.0029482
0.00294496
0.00294191
0.00293905
0.00293617
0.00293329
0.0029304
0.00292749
0.00292458
0.00292166
0.00291874
0.0029158
0.00291285
0.0029099
0.00290693
0.00290396
0.00290098
0.00289799
0.00289499
0.00289199
0.00288897
0.00288595
0.00288292
0.00287988
0.00287683
0.00287378
0.00287072
0.00286765
0.00286457
0.00286148
0.00285839
0.00285529
0.00285219
0.00284907
0.00284595
0.00284282
0.00283968
0.00283654
0.00283339
0.00283024
0.00282707
0.00282391
0.00282073
0.00281755
0.00281436
0.00281117
0.00280797
0.00280476
0.00280155
0.00279833
0.0027951
0.00279187
0.00278864
0.0027854
0.00278215
0.0027789
0.00277564
0.00277238
0.00276912
0.00276584
0.00276257
0.00275929
0.002756
0.00275271
0.00274942
0.00274612
0.00274281
0.0027395
0.00273619
0.00273288
0.00272956
0.00272623
0.00272291
0.00271958
0.00271624
0.0027129
0.00270956
0.00270622
0.00270287
0.00269952
0.00269616
0.00269281
0.00268945
0.00268608
0.00268272
0.00267935
0.00267598
0.00267261
0.00266923
0.00266586
0.00266247
0.00265909
0.00265571
0.00265233
0.00264894
0.00264555
0.00264216
0.00263877
0.00263537
0.00263198
0.00262858
0.00262519
0.00262179
0.00261839
0.00261499
0.00261159
0.00260819
0.00260479
0.00260138
0.00259798
0.00259458
0.00259118
0.00258777
0.00258437
0.00258096
0.00257756
0.00257415
0.00257075
0.00256735
0.00256395
0.00256054
0.00255714
0.00255374
0.00255034
0.00254694
0.00254354
0.00254014
0.00253674
0.00253335
0.00252995
0.00252656
0.00252317
0.00251977
0.00251638
0.00251299
0.00250961
0.00250622
0.00250284
0.00249946
0.00249608
0.0024927
0.00248933
0.00248595
0.00248258
0.00247921
0.00247585
0.00247248
0.00246912
0.00246576
0.0024624
0.00245905
0.0024557
0.00245235
0.002449
0.00244566
0.00244232
0.00243898
0.00243565
0.00243232
0.00242899
0.00242567
0.00242235
0.00241903
0.00241572
0.00241241
0.0024091
0.0024058
0.0024025
0.0023992
0.00239591
0.00239262
0.00238934
0.00238606
0.00238279
0.00237951
0.00237625
0.00237298
0.00236973
0.00236647
0.00236322
0.00235998
0.00235674
0.0023535
0.00234991
0.00234599
0.00234214
0.00233834
0.00233459
0.0023309
0.00232726
0.00232366
0.00232012
0.00231662
0.00231318
0.00230977
0.00230642
0.0023031
0.00229983
0.0022966
0.00229342
0.00229026
0.00228716
0.00228408
0.00228105
0.00227805
0.0022751
0.00227217
0.00226928
0.00226642
0.0022636
0.0022608
0.00225804
0.00225531
0.00225262
0.00224994
0.00224731
0.00224469
0.00224211
0.00223955
0.00223703
0.00223452
0.00223205
0.0022296
0.00222718
0.00222477
0.0022224
0.00222005
0.00221772
0.00221541
0.00221313
0.00221087
0.00220863
0.00220641
0.00220422
0.00220204
0.00219989
0.00219775
0.00219564
0.00219353
0.00219146
0.0021894
0.00218736
0.00218533
0.00218333
0.00218134
0.00217937
0.00217742
0.00217548
0.00217356
0.00217166
0.00216976
0.0021679
0.00216603
0.0021642
0.00216235
0.00216056
0.00215874
0.00215697
0.00215517
0.00215344
0.00215166
0.00214997
0.0021482
0.00214655
0.00214478
0.00214317
0.00214142
0.00213984
0.00213809
0.00213654
0.00213482
0.00213326
0.00213162
0.00212992
0.00212861
0.00212636
0.00212602
0.00212281
)
;
    }
    symmetry
    {
        type            symmetryPlane;
    }
    frontAndBack
    {
        type            empty;
    }
}


// ************************************************************************* //
