/*--------------------------------*- C++ -*----------------------------------*\
| =========                 |                                                 |
| \\      /  F ield         | OpenFOAM: The Open Source CFD Toolbox           |
|  \\    /   O peration     | Version:  v2012                                 |
|   \\  /    A nd           | Website:  www.openfoam.com                      |
|    \\/     M anipulation  |                                                 |
\*---------------------------------------------------------------------------*/
FoamFile
{
    version     2.0;
    format      ascii;
    class       volScalarField;
    location    "31.5";
    object      epsilon;
}
// * * * * * * * * * * * * * * * * * * * * * * * * * * * * * * * * * * * * * //

dimensions      [0 2 -3 0 0 0 0];


internalField   nonuniform List<scalar> 
209825
(
0.755503
0.642178
0.574708
0.533436
0.50658
0.488093
0.474715
0.46471
0.45696
0.450858
0.445909
0.441874
0.438491
0.435661
0.433224
0.431156
0.429335
0.427772
0.426367
0.425154
0.424045
0.42308
0.422185
0.421411
0.420681
0.420048
0.419443
0.418924
0.418423
0.417988
0.417565
0.417209
0.416857
0.416558
0.416257
0.416015
0.415762
0.415551
0.415336
0.415163
0.414983
0.414851
0.414701
0.414579
0.414453
0.414371
0.41426
0.414177
0.4141
0.41405
0.41395
0.413905
0.413878
0.413854
0.413827
0.413756
0.413799
0.413846
0.413846
0.413955
0.41398
0.41398
0.414055
0.414118
0.414201
0.414326
0.414442
0.414541
0.414636
0.414775
0.414883
0.415049
0.415185
0.415375
0.415509
0.415732
0.41586
0.416123
0.416271
0.416577
0.416749
0.41711
0.417308
0.417722
0.417954
0.418438
0.418712
0.419291
0.41962
0.420347
0.420727
0.421885
0.422209
0.427943
3.01624
556.577
0.755503
0.642176
0.574701
0.533424
0.506565
0.488076
0.474695
0.464689
0.456937
0.450835
0.445884
0.441849
0.438465
0.435634
0.433197
0.431129
0.429307
0.427744
0.426339
0.425125
0.424016
0.423052
0.422157
0.421382
0.420652
0.420019
0.419414
0.418895
0.418394
0.417959
0.417535
0.417179
0.416827
0.416528
0.416228
0.415985
0.415732
0.415521
0.415306
0.415133
0.414953
0.414821
0.414671
0.414549
0.414422
0.41434
0.41423
0.414146
0.41407
0.41402
0.41392
0.413874
0.413848
0.413823
0.413796
0.413726
0.413768
0.413816
0.413816
0.413924
0.413949
0.413949
0.414024
0.414088
0.41417
0.414295
0.414411
0.41451
0.414605
0.414744
0.414852
0.415018
0.415154
0.415344
0.415479
0.415701
0.415829
0.416092
0.41624
0.416546
0.416718
0.417079
0.417277
0.417691
0.417923
0.418407
0.418681
0.419259
0.419589
0.420316
0.420695
0.421854
0.422177
0.42792
3.02104
553.251
0.755506
0.642163
0.574667
0.533371
0.506497
0.487997
0.474608
0.464596
0.45684
0.450733
0.44578
0.441742
0.438355
0.435523
0.433084
0.431014
0.429191
0.427627
0.426221
0.425007
0.423897
0.422931
0.422036
0.42126
0.42053
0.419896
0.419291
0.418771
0.41827
0.417835
0.417411
0.417055
0.416702
0.416403
0.416102
0.41586
0.415606
0.415395
0.41518
0.415007
0.414827
0.414695
0.414544
0.414422
0.414296
0.414213
0.414103
0.414019
0.413943
0.413892
0.413793
0.413747
0.41372
0.413696
0.413669
0.413598
0.413641
0.413688
0.413688
0.413796
0.413821
0.413821
0.413896
0.413959
0.414042
0.414167
0.414282
0.414381
0.414476
0.414615
0.414723
0.414889
0.415025
0.415215
0.415349
0.415572
0.4157
0.415962
0.41611
0.416416
0.416588
0.416948
0.417147
0.417561
0.417792
0.418276
0.41855
0.419128
0.419457
0.420184
0.420563
0.421721
0.422043
0.427804
3.03085
549.303
0.755511
0.64214
0.574607
0.53328
0.506383
0.487865
0.474462
0.464439
0.456675
0.450562
0.445603
0.44156
0.43817
0.435334
0.432893
0.430821
0.428996
0.42743
0.426023
0.424806
0.423695
0.422729
0.421832
0.421056
0.420325
0.41969
0.419084
0.418564
0.418062
0.417626
0.417202
0.416845
0.416492
0.416193
0.415891
0.415649
0.415395
0.415183
0.414967
0.414794
0.414614
0.414482
0.414331
0.414208
0.414082
0.413999
0.413889
0.413805
0.413728
0.413678
0.413578
0.413532
0.413505
0.41348
0.413453
0.413382
0.413425
0.413471
0.413471
0.413579
0.413604
0.413604
0.413679
0.413742
0.413825
0.41395
0.414065
0.414164
0.414259
0.414397
0.414505
0.414671
0.414807
0.414997
0.415131
0.415353
0.415481
0.415743
0.415891
0.416197
0.416369
0.416728
0.416927
0.41734
0.417572
0.418055
0.418329
0.418906
0.419235
0.419961
0.420339
0.421497
0.421817
0.427605
3.04612
545.512
0.755518
0.642109
0.574523
0.533151
0.50622
0.487677
0.474255
0.464218
0.456442
0.450319
0.445353
0.441304
0.437909
0.435068
0.432623
0.430547
0.42872
0.427151
0.425742
0.424523
0.42341
0.422442
0.421544
0.420767
0.420034
0.419399
0.418792
0.41827
0.417768
0.417331
0.416906
0.416549
0.416195
0.415895
0.415593
0.41535
0.415095
0.414883
0.414667
0.414494
0.414313
0.41418
0.414029
0.413907
0.413779
0.413697
0.413586
0.413502
0.413425
0.413374
0.413274
0.413228
0.413201
0.413176
0.413149
0.413078
0.41312
0.413166
0.413166
0.413274
0.413298
0.413298
0.413373
0.413436
0.413518
0.413643
0.413758
0.413857
0.413952
0.41409
0.414197
0.414363
0.414499
0.414688
0.414822
0.415044
0.415172
0.415434
0.415581
0.415887
0.416058
0.416418
0.416616
0.417028
0.41726
0.417742
0.418016
0.418592
0.41892
0.419646
0.420023
0.42118
0.421498
0.427323
3.0673
542.226
0.755528
0.642067
0.574414
0.532985
0.50601
0.487434
0.473988
0.463931
0.45614
0.450005
0.445029
0.440972
0.437569
0.434723
0.432273
0.430193
0.428362
0.42679
0.425377
0.424156
0.423041
0.422071
0.421171
0.420392
0.419658
0.419021
0.418413
0.41789
0.417386
0.416948
0.416523
0.416164
0.41581
0.415509
0.415206
0.414962
0.414707
0.414495
0.414278
0.414104
0.413923
0.41379
0.413638
0.413515
0.413388
0.413304
0.413193
0.413109
0.413031
0.412981
0.412881
0.412834
0.412806
0.412781
0.412754
0.412682
0.412725
0.41277
0.41277
0.412877
0.412901
0.412901
0.412976
0.413039
0.413121
0.413245
0.413359
0.413459
0.413553
0.413691
0.413798
0.413964
0.414099
0.414288
0.414422
0.414644
0.414771
0.415033
0.41518
0.415485
0.415656
0.416014
0.416212
0.416624
0.416855
0.417337
0.41761
0.418185
0.418513
0.419237
0.419613
0.420769
0.421084
0.426957
3.09481
539.606
0.755539
0.642017
0.57428
0.53278
0.505751
0.487134
0.473658
0.463577
0.455768
0.449618
0.444629
0.440562
0.437151
0.434298
0.431841
0.429756
0.42792
0.426344
0.424928
0.423704
0.422586
0.421613
0.420711
0.41993
0.419194
0.418555
0.417945
0.417421
0.416916
0.416477
0.41605
0.41569
0.415335
0.415033
0.41473
0.414485
0.414229
0.414016
0.413798
0.413624
0.413442
0.413308
0.413156
0.413033
0.412904
0.412821
0.412709
0.412625
0.412547
0.412496
0.412395
0.412349
0.41232
0.412295
0.412268
0.412195
0.412237
0.412281
0.412281
0.412388
0.412412
0.412412
0.412487
0.412549
0.412631
0.412754
0.412869
0.412968
0.413062
0.413199
0.413306
0.413471
0.413606
0.413795
0.413928
0.41415
0.414277
0.414538
0.414685
0.414989
0.41516
0.415518
0.415715
0.416126
0.416357
0.416837
0.417109
0.417684
0.41801
0.418733
0.419108
0.420262
0.420573
0.426506
3.1291
537.711
0.755552
0.641957
0.574121
0.532536
0.505443
0.486778
0.473265
0.463156
0.455324
0.449157
0.444154
0.440074
0.436653
0.433792
0.431328
0.429236
0.427395
0.425814
0.424393
0.423165
0.422044
0.421068
0.420163
0.419379
0.418641
0.418
0.417388
0.416862
0.416356
0.415915
0.415487
0.415126
0.414769
0.414466
0.414162
0.413916
0.413659
0.413445
0.413227
0.413052
0.412869
0.412734
0.412582
0.412458
0.412329
0.412245
0.412133
0.412048
0.411969
0.411918
0.411817
0.41177
0.411741
0.411716
0.411688
0.411615
0.411657
0.411699
0.411699
0.411806
0.411829
0.411829
0.411903
0.411965
0.412047
0.41217
0.412284
0.412383
0.412476
0.412614
0.41272
0.412885
0.413019
0.413207
0.41334
0.413562
0.413688
0.413948
0.414095
0.414398
0.414569
0.414925
0.415122
0.415533
0.415762
0.416242
0.416513
0.417086
0.417412
0.418132
0.418506
0.419658
0.419965
0.42597
3.17061
536.529
0.755568
0.641888
0.573937
0.532254
0.505085
0.486365
0.472809
0.462667
0.454809
0.448621
0.443601
0.439507
0.436075
0.433203
0.43073
0.428631
0.426783
0.425197
0.423771
0.422539
0.421413
0.420434
0.419526
0.418739
0.417998
0.417355
0.416741
0.416213
0.415704
0.415262
0.414832
0.414469
0.414111
0.413807
0.413501
0.413254
0.412996
0.412781
0.412562
0.412386
0.412202
0.412067
0.411913
0.411789
0.41166
0.411575
0.411462
0.411376
0.411297
0.411246
0.411145
0.411097
0.411068
0.411042
0.411014
0.41094
0.410981
0.411023
0.411022
0.411128
0.411151
0.411151
0.411225
0.411287
0.411368
0.41149
0.411603
0.411703
0.411795
0.411932
0.412038
0.412202
0.412336
0.412524
0.412656
0.412877
0.413003
0.413263
0.413409
0.413711
0.413881
0.414237
0.414433
0.414842
0.415071
0.415549
0.41582
0.416391
0.416715
0.417434
0.417806
0.418956
0.419258
0.425347
3.21974
535.996
0.755586
0.641809
0.573728
0.531932
0.504678
0.485893
0.472288
0.462109
0.454221
0.448009
0.442969
0.43886
0.435414
0.432531
0.430048
0.427941
0.426085
0.424492
0.423061
0.421824
0.420693
0.41971
0.418798
0.418008
0.417264
0.416618
0.416001
0.415471
0.41496
0.414516
0.414084
0.41372
0.413359
0.413054
0.412747
0.412498
0.412239
0.412023
0.411803
0.411626
0.411441
0.411305
0.41115
0.411025
0.410895
0.410809
0.410696
0.41061
0.41053
0.410478
0.410377
0.410328
0.410298
0.410272
0.410244
0.41017
0.41021
0.41025
0.410249
0.410354
0.410377
0.410377
0.41045
0.410511
0.410592
0.410713
0.410826
0.410926
0.411017
0.411154
0.411259
0.411423
0.411556
0.411743
0.411875
0.412095
0.412221
0.41248
0.412625
0.412926
0.413096
0.41345
0.413646
0.414053
0.414282
0.414758
0.415028
0.415597
0.41592
0.416636
0.417006
0.418154
0.41845
0.424637
3.27688
536.012
0.755607
0.641722
0.573493
0.531571
0.504221
0.485363
0.471703
0.461481
0.45356
0.447321
0.442259
0.438131
0.43467
0.431774
0.42928
0.427163
0.425299
0.423699
0.422261
0.421018
0.419883
0.418895
0.417978
0.417184
0.416437
0.415788
0.415168
0.414635
0.414122
0.413675
0.413241
0.412875
0.412513
0.412206
0.411897
0.411647
0.411387
0.411169
0.410948
0.41077
0.410584
0.410446
0.410291
0.410165
0.410034
0.409947
0.409834
0.409747
0.409666
0.409613
0.409512
0.409462
0.409432
0.409405
0.409376
0.409301
0.409341
0.409379
0.409379
0.409482
0.409504
0.409504
0.409578
0.409638
0.409718
0.409838
0.409951
0.410051
0.410141
0.410277
0.410382
0.410545
0.410677
0.410864
0.410995
0.411215
0.41134
0.411597
0.411742
0.412043
0.412211
0.412564
0.412759
0.413165
0.413393
0.413867
0.414136
0.414702
0.415024
0.415737
0.416106
0.417251
0.417541
0.423839
3.34239
536.454
0.755629
0.641626
0.573234
0.531171
0.503713
0.484774
0.471053
0.460783
0.452824
0.446555
0.441469
0.437321
0.433842
0.430932
0.428426
0.426298
0.424424
0.422816
0.421371
0.420121
0.41898
0.417987
0.417066
0.416268
0.415516
0.414864
0.414241
0.413705
0.413189
0.41274
0.412303
0.411935
0.411571
0.411262
0.410951
0.4107
0.410438
0.410219
0.409996
0.409816
0.409629
0.409491
0.409334
0.409207
0.409075
0.408988
0.408873
0.408785
0.408704
0.408651
0.408549
0.408498
0.408467
0.408439
0.40841
0.408335
0.408374
0.40841
0.408409
0.408512
0.408533
0.408533
0.408606
0.408666
0.408745
0.408864
0.408977
0.409076
0.409166
0.409301
0.409405
0.409567
0.409698
0.409885
0.410015
0.410234
0.410358
0.410615
0.410759
0.411058
0.411226
0.411578
0.411772
0.412176
0.412403
0.412875
0.413143
0.413706
0.414027
0.414737
0.415103
0.416245
0.416528
0.422952
3.41658
537.185
0.755655
0.641521
0.57295
0.530732
0.503154
0.484126
0.470336
0.460014
0.452014
0.445711
0.440598
0.436427
0.432929
0.430003
0.427483
0.425344
0.42346
0.421842
0.420389
0.419132
0.417985
0.416986
0.41606
0.415257
0.414501
0.413844
0.413218
0.412679
0.41216
0.411708
0.411269
0.410898
0.410531
0.410221
0.409908
0.409654
0.409391
0.40917
0.408946
0.408765
0.408576
0.408436
0.408279
0.408151
0.408017
0.407929
0.407814
0.407725
0.407642
0.407589
0.407486
0.407435
0.407403
0.407374
0.407345
0.407268
0.407306
0.407341
0.40734
0.407441
0.407462
0.407462
0.407535
0.407593
0.407672
0.40779
0.407902
0.408001
0.40809
0.408224
0.408327
0.408489
0.408619
0.408805
0.408934
0.409152
0.409276
0.409531
0.409675
0.409972
0.410139
0.410489
0.410682
0.411085
0.41131
0.41178
0.412047
0.412608
0.412927
0.413633
0.413996
0.415136
0.415411
0.421976
3.49969
538.057
0.755682
0.641408
0.572641
0.530253
0.502544
0.483418
0.469554
0.459174
0.451128
0.444788
0.439645
0.43545
0.431931
0.428987
0.426452
0.424299
0.422404
0.420777
0.419315
0.41805
0.416895
0.41589
0.414958
0.41415
0.41339
0.412729
0.412099
0.411556
0.411033
0.410578
0.410136
0.409763
0.409394
0.409081
0.408766
0.40851
0.408244
0.408023
0.407796
0.407614
0.407424
0.407282
0.407123
0.406994
0.406859
0.40677
0.406654
0.406564
0.40648
0.406426
0.406323
0.406271
0.406238
0.406209
0.406179
0.406101
0.406138
0.40617
0.406169
0.406269
0.406289
0.406289
0.406361
0.406419
0.406497
0.406614
0.406725
0.406824
0.406912
0.407045
0.407147
0.407308
0.407437
0.407623
0.40775
0.407968
0.408091
0.408345
0.408487
0.408784
0.40895
0.409298
0.40949
0.40989
0.410115
0.410582
0.410847
0.411405
0.411722
0.412425
0.412786
0.413922
0.414189
0.420909
3.59189
538.926
0.755713
0.641287
0.572308
0.529735
0.501884
0.48265
0.468705
0.458262
0.450166
0.443786
0.43861
0.434387
0.430846
0.427883
0.425331
0.423165
0.421257
0.419618
0.418147
0.416874
0.415711
0.414699
0.413761
0.412947
0.412182
0.411516
0.410882
0.410335
0.409809
0.40935
0.408905
0.408529
0.408157
0.407841
0.407524
0.407266
0.406998
0.406775
0.406546
0.406362
0.40617
0.406028
0.405867
0.405737
0.405601
0.40551
0.405393
0.405302
0.405217
0.405162
0.405059
0.405005
0.404971
0.404941
0.404911
0.404832
0.404868
0.404898
0.404896
0.404995
0.405014
0.405014
0.405086
0.405142
0.405219
0.405335
0.405445
0.405544
0.405631
0.405764
0.405864
0.406024
0.406152
0.406337
0.406464
0.40668
0.406802
0.407055
0.407197
0.407491
0.407656
0.408002
0.408193
0.408591
0.408815
0.409279
0.409543
0.410098
0.410413
0.411111
0.411469
0.412601
0.41286
0.41975
3.69325
539.65
0.755745
0.641158
0.57195
0.529177
0.501173
0.481823
0.467789
0.457277
0.449127
0.442704
0.437492
0.43324
0.429674
0.42669
0.424121
0.421938
0.420017
0.418367
0.416885
0.415602
0.414431
0.413412
0.412467
0.411647
0.410876
0.410206
0.409566
0.409015
0.408485
0.408023
0.407574
0.407195
0.40682
0.406502
0.406181
0.405921
0.405651
0.405426
0.405195
0.405009
0.404816
0.404671
0.404509
0.404378
0.40424
0.404148
0.404029
0.403938
0.403851
0.403795
0.403692
0.403637
0.403601
0.40357
0.403539
0.40346
0.403495
0.403522
0.40352
0.403617
0.403635
0.403635
0.403706
0.403762
0.403838
0.403952
0.404061
0.40416
0.404246
0.404378
0.404477
0.404636
0.404763
0.404947
0.405072
0.405288
0.405409
0.40566
0.405801
0.406094
0.406257
0.406601
0.406791
0.407187
0.407409
0.407871
0.408132
0.408684
0.408997
0.409691
0.410045
0.411174
0.411424
0.418498
3.80371
540.097
0.755781
0.641021
0.571568
0.528581
0.500411
0.480935
0.466806
0.45622
0.448011
0.441541
0.436291
0.432007
0.428415
0.425408
0.422819
0.42062
0.418684
0.417021
0.415528
0.414235
0.413055
0.412028
0.411076
0.410249
0.409472
0.408796
0.408151
0.407595
0.407061
0.406595
0.406143
0.40576
0.405382
0.405061
0.404738
0.404475
0.404202
0.403974
0.403742
0.403554
0.403358
0.403212
0.403048
0.402915
0.402776
0.402682
0.402563
0.40247
0.402382
0.402325
0.402221
0.402165
0.402128
0.402096
0.402064
0.401984
0.402017
0.402042
0.402039
0.402135
0.402151
0.402151
0.402222
0.402277
0.402352
0.402464
0.402573
0.402672
0.402755
0.402887
0.402985
0.403143
0.403268
0.403451
0.403575
0.40379
0.40391
0.40416
0.404299
0.40459
0.404753
0.405094
0.405283
0.405676
0.405896
0.406355
0.406615
0.407163
0.407473
0.408163
0.408514
0.409639
0.409879
0.417153
3.92308
540.146
0.755819
0.640876
0.571163
0.527946
0.499598
0.479988
0.465755
0.45509
0.446818
0.440297
0.435006
0.430688
0.427067
0.424036
0.421426
0.419209
0.417257
0.41558
0.414075
0.412771
0.411582
0.410546
0.409586
0.408752
0.407968
0.407286
0.406636
0.406075
0.405536
0.405067
0.40461
0.404223
0.403842
0.403518
0.403191
0.402926
0.402651
0.40242
0.402185
0.401996
0.401797
0.401649
0.401484
0.401349
0.401208
0.401113
0.400992
0.400898
0.400808
0.400751
0.400646
0.400588
0.40055
0.400517
0.400485
0.400403
0.400435
0.400457
0.400453
0.400547
0.400563
0.400563
0.400633
0.400686
0.40076
0.400871
0.400979
0.401077
0.401159
0.40129
0.401387
0.401544
0.401667
0.401849
0.401972
0.402186
0.402305
0.402553
0.402691
0.40298
0.403141
0.40348
0.403667
0.404058
0.404277
0.404732
0.40499
0.405534
0.405842
0.406526
0.406874
0.407995
0.408225
0.415713
4.05101
539.696
0.75586
0.640725
0.570734
0.527273
0.498734
0.47898
0.464638
0.453887
0.445548
0.438972
0.433637
0.429282
0.42563
0.422573
0.419941
0.417704
0.415736
0.414044
0.412525
0.41121
0.41001
0.408965
0.407997
0.407155
0.406365
0.405676
0.40502
0.404454
0.40391
0.403436
0.402975
0.402585
0.402199
0.401871
0.401542
0.401274
0.400996
0.400763
0.400525
0.400333
0.400133
0.399982
0.399815
0.399679
0.399535
0.399439
0.399317
0.399221
0.39913
0.399071
0.398965
0.398906
0.398867
0.398832
0.3988
0.398717
0.398747
0.398767
0.398762
0.398854
0.398868
0.398868
0.398937
0.398989
0.399062
0.399171
0.399278
0.399376
0.399457
0.399586
0.399682
0.399837
0.39996
0.40014
0.400262
0.400474
0.400592
0.400838
0.400975
0.401261
0.401422
0.401758
0.401944
0.402331
0.402548
0.403
0.403257
0.403796
0.404101
0.40478
0.405124
0.406241
0.40646
0.414176
4.18694
538.648
0.755903
0.640567
0.570283
0.526562
0.49782
0.477913
0.463453
0.452611
0.444199
0.437566
0.432183
0.427789
0.424104
0.421019
0.418363
0.416106
0.414119
0.412412
0.410879
0.409552
0.408341
0.407286
0.406308
0.405458
0.40466
0.403965
0.403303
0.402731
0.402182
0.401703
0.401237
0.400842
0.400453
0.400122
0.399789
0.399517
0.399236
0.399001
0.39876
0.398566
0.398363
0.39821
0.398041
0.397903
0.397758
0.397659
0.397535
0.397439
0.397345
0.397285
0.397179
0.397118
0.397077
0.397041
0.397008
0.396924
0.396952
0.39697
0.396964
0.397053
0.397066
0.397066
0.397135
0.397185
0.397257
0.397364
0.397469
0.397568
0.397646
0.397774
0.397869
0.398023
0.398144
0.398323
0.398443
0.398654
0.398771
0.399015
0.399151
0.399435
0.399594
0.399927
0.400112
0.400496
0.400711
0.401159
0.401413
0.401948
0.402251
0.402925
0.403264
0.404376
0.404585
0.412542
4.33011
536.928
0.75595
0.640402
0.56981
0.525813
0.496857
0.476786
0.462201
0.451261
0.442773
0.436078
0.430644
0.426208
0.422488
0.419374
0.416692
0.414413
0.412407
0.410683
0.409135
0.407795
0.406572
0.405506
0.404519
0.403661
0.402855
0.402152
0.401484
0.400906
0.40035
0.399866
0.399396
0.398997
0.398603
0.398268
0.397931
0.397656
0.397372
0.397134
0.396891
0.396693
0.396488
0.396333
0.396161
0.396021
0.395874
0.395773
0.395648
0.39555
0.395454
0.395393
0.395286
0.395223
0.395181
0.395144
0.39511
0.395024
0.395051
0.395065
0.395058
0.395146
0.395157
0.395157
0.395225
0.395273
0.395344
0.395449
0.395553
0.395651
0.395728
0.395855
0.395948
0.396101
0.39622
0.396398
0.396516
0.396726
0.396842
0.397083
0.397218
0.397499
0.397656
0.397987
0.39817
0.398551
0.398764
0.399208
0.39946
0.39999
0.40029
0.400958
0.401293
0.4024
0.402598
0.410808
4.47952
534.476
0.755999
0.640232
0.569315
0.525028
0.495844
0.475599
0.460882
0.449839
0.441269
0.434508
0.429021
0.424541
0.420783
0.417637
0.414928
0.412626
0.4106
0.408857
0.407294
0.405939
0.404704
0.403627
0.402629
0.401762
0.400947
0.400238
0.399562
0.398977
0.398416
0.397927
0.397451
0.397047
0.396649
0.39631
0.395969
0.39569
0.395403
0.395161
0.394915
0.394715
0.394507
0.394349
0.394175
0.394033
0.393883
0.393781
0.393654
0.393554
0.393457
0.393394
0.393286
0.393222
0.393177
0.393139
0.393104
0.393017
0.393041
0.393053
0.393044
0.39313
0.39314
0.393139
0.393206
0.393253
0.393323
0.393426
0.393528
0.393626
0.393701
0.393826
0.393918
0.394069
0.394186
0.394363
0.39448
0.394688
0.394802
0.395041
0.395175
0.395454
0.395609
0.395936
0.396118
0.396495
0.396707
0.397147
0.397396
0.397921
0.398218
0.39888
0.399211
0.400313
0.400499
0.408973
4.63388
531.244
0.756051
0.640056
0.568799
0.524206
0.494782
0.474354
0.459496
0.448344
0.439687
0.432857
0.427312
0.422785
0.418988
0.415809
0.413071
0.410744
0.408696
0.406935
0.405354
0.403985
0.402736
0.401647
0.400639
0.399762
0.398938
0.398221
0.397537
0.396946
0.396378
0.395883
0.395402
0.394993
0.39459
0.394247
0.393901
0.393619
0.393328
0.393083
0.392833
0.392631
0.392419
0.392259
0.392082
0.391938
0.391786
0.391681
0.391552
0.391451
0.391351
0.391287
0.391178
0.391112
0.391066
0.391026
0.39099
0.390902
0.390924
0.390933
0.390923
0.391005
0.391014
0.391014
0.391079
0.391124
0.391193
0.391294
0.391395
0.391492
0.391565
0.391688
0.391779
0.391928
0.392043
0.392219
0.392334
0.39254
0.392653
0.39289
0.393022
0.393298
0.393452
0.393775
0.393955
0.394329
0.394538
0.394974
0.395221
0.395741
0.396035
0.39669
0.397016
0.398113
0.398288
0.407035
4.79166
527.195
0.756105
0.639875
0.568263
0.523349
0.493672
0.47305
0.458044
0.446776
0.438028
0.431124
0.425519
0.420942
0.417103
0.413888
0.41112
0.408767
0.406696
0.404915
0.403317
0.401932
0.400669
0.399567
0.398547
0.39766
0.396827
0.396101
0.395409
0.394811
0.394236
0.393735
0.393248
0.392834
0.392426
0.392078
0.391728
0.391442
0.391147
0.390899
0.390646
0.39044
0.390225
0.390062
0.389883
0.389737
0.389582
0.389475
0.389344
0.38924
0.389138
0.389073
0.388963
0.388894
0.388846
0.388805
0.388768
0.388679
0.388698
0.388705
0.388692
0.388772
0.388779
0.388779
0.388843
0.388886
0.388954
0.389052
0.389151
0.389249
0.389319
0.389441
0.38953
0.389678
0.389791
0.389964
0.390078
0.390282
0.390394
0.390628
0.390759
0.391031
0.391184
0.391504
0.391682
0.392051
0.392259
0.39269
0.392934
0.393448
0.393739
0.394388
0.394709
0.3958
0.395964
0.404992
4.95099
522.303
0.756163
0.639689
0.567708
0.522457
0.492514
0.471689
0.456526
0.445137
0.436292
0.42931
0.423642
0.419012
0.415129
0.411876
0.409076
0.406695
0.4046
0.402798
0.401181
0.399779
0.398501
0.397387
0.396355
0.395457
0.394613
0.393878
0.393178
0.392572
0.39199
0.391483
0.39099
0.39057
0.390156
0.389804
0.38945
0.389159
0.388859
0.388608
0.388351
0.388142
0.387924
0.387758
0.387576
0.387427
0.387269
0.38716
0.387027
0.386922
0.386817
0.38675
0.386639
0.386569
0.386518
0.386475
0.386437
0.386348
0.386363
0.386368
0.386353
0.38643
0.386436
0.386435
0.386498
0.386538
0.386605
0.386701
0.386799
0.386895
0.386963
0.387084
0.387171
0.387317
0.387428
0.3876
0.387711
0.387914
0.388024
0.388256
0.388385
0.388654
0.388805
0.389121
0.389297
0.389662
0.389868
0.390294
0.390536
0.391044
0.391331
0.391973
0.392289
0.393375
0.393527
0.402841
5.10969
516.55
0.756223
0.6395
0.567133
0.521532
0.491309
0.470271
0.454943
0.443426
0.434479
0.427415
0.42168
0.416994
0.413065
0.409773
0.406939
0.404529
0.402408
0.400584
0.398947
0.397528
0.396234
0.395106
0.394061
0.393151
0.392297
0.391553
0.390844
0.39023
0.389641
0.389127
0.388627
0.388201
0.387782
0.387424
0.387065
0.38677
0.386466
0.386211
0.38595
0.385738
0.385516
0.385347
0.385161
0.385011
0.38485
0.384738
0.384603
0.384496
0.384388
0.384319
0.384207
0.384135
0.384082
0.384037
0.383998
0.383908
0.38392
0.383922
0.383905
0.383979
0.383983
0.383981
0.384043
0.384081
0.384147
0.38424
0.384336
0.384432
0.384497
0.384616
0.384702
0.384846
0.384954
0.385125
0.385234
0.385435
0.385544
0.385772
0.385899
0.386166
0.386314
0.386627
0.386801
0.387162
0.387365
0.387786
0.388025
0.388527
0.388811
0.389445
0.389756
0.390836
0.390976
0.40058
5.26529
509.922
0.756286
0.639307
0.566542
0.520573
0.490059
0.468796
0.453296
0.441643
0.43259
0.42544
0.419634
0.41489
0.410912
0.407578
0.404709
0.402268
0.40012
0.398272
0.396615
0.395177
0.393867
0.392724
0.391666
0.390744
0.389879
0.389125
0.388407
0.387784
0.387187
0.386666
0.386159
0.385727
0.385302
0.384939
0.384575
0.384274
0.383966
0.383707
0.383442
0.383226
0.383001
0.382828
0.38264
0.382486
0.382323
0.382208
0.38207
0.381961
0.381851
0.38178
0.381667
0.381592
0.381537
0.38149
0.38145
0.381359
0.381367
0.381367
0.381347
0.381418
0.381421
0.381419
0.381479
0.381514
0.381579
0.381669
0.381763
0.381859
0.381921
0.382039
0.382122
0.382264
0.382371
0.382539
0.382647
0.382845
0.382952
0.383178
0.383303
0.383566
0.383713
0.384021
0.384193
0.38455
0.38475
0.385167
0.385402
0.385898
0.386178
0.386805
0.387111
0.388184
0.388313
0.398207
5.415
502.409
0.756352
0.639111
0.565933
0.519583
0.488764
0.467267
0.451585
0.439791
0.430626
0.423385
0.417505
0.4127
0.40867
0.405293
0.402386
0.399913
0.397737
0.395864
0.394185
0.392728
0.391401
0.390242
0.38917
0.388236
0.387359
0.386594
0.385866
0.385235
0.384629
0.384101
0.383587
0.383148
0.382717
0.382349
0.381979
0.381673
0.381361
0.381097
0.380828
0.380608
0.380379
0.380203
0.380011
0.379855
0.379688
0.37957
0.37943
0.379319
0.379206
0.379133
0.379018
0.378941
0.378884
0.378835
0.378794
0.378702
0.378706
0.378704
0.378681
0.378748
0.37875
0.378747
0.378806
0.378838
0.378901
0.378989
0.379081
0.379176
0.379235
0.379351
0.379432
0.379573
0.379677
0.379843
0.379949
0.380145
0.38025
0.380473
0.380596
0.380856
0.381
0.381304
0.381474
0.381826
0.382024
0.382435
0.382668
0.383157
0.383433
0.384052
0.384352
0.385418
0.385537
0.395718
5.55574
494
0.756421
0.638913
0.565308
0.518562
0.487426
0.465683
0.449812
0.43787
0.428586
0.421251
0.415293
0.410424
0.40634
0.402917
0.399971
0.397464
0.395259
0.39336
0.391658
0.390181
0.388835
0.387661
0.386574
0.385626
0.384737
0.383961
0.383223
0.382583
0.381968
0.381432
0.380911
0.380465
0.380027
0.379653
0.379277
0.378967
0.378649
0.378381
0.378108
0.377884
0.377651
0.377471
0.377276
0.377116
0.376946
0.376826
0.376683
0.376569
0.376454
0.376378
0.376262
0.376183
0.376122
0.376071
0.376029
0.375937
0.375936
0.375932
0.375906
0.375969
0.37597
0.375966
0.376023
0.376052
0.376114
0.376199
0.376289
0.376383
0.37644
0.376554
0.376633
0.376771
0.376873
0.377037
0.37714
0.377334
0.377437
0.377657
0.377779
0.378034
0.378177
0.378476
0.378644
0.378991
0.379186
0.379591
0.379821
0.380304
0.380576
0.381187
0.381481
0.38254
0.382647
0.39311
5.68421
484.686
0.756492
0.638712
0.564669
0.517512
0.486045
0.464046
0.447977
0.43588
0.426474
0.419038
0.413
0.408063
0.403922
0.400452
0.397465
0.394922
0.392686
0.390761
0.389034
0.387536
0.386171
0.38498
0.383877
0.382916
0.382014
0.381227
0.380478
0.379828
0.379204
0.37866
0.37813
0.377678
0.377233
0.376853
0.376471
0.376155
0.375832
0.37556
0.375282
0.375054
0.374816
0.374632
0.374434
0.374271
0.374098
0.373974
0.373828
0.373712
0.373593
0.373516
0.373398
0.373316
0.373253
0.3732
0.373156
0.373063
0.373059
0.373052
0.373023
0.373081
0.373082
0.373077
0.373131
0.373158
0.373219
0.3733
0.373388
0.373481
0.373534
0.373646
0.373724
0.37386
0.373959
0.374121
0.374222
0.374412
0.374515
0.37473
0.37485
0.375102
0.375242
0.375538
0.375702
0.376045
0.376237
0.376637
0.376863
0.377339
0.377607
0.37821
0.378498
0.379549
0.379646
0.390381
5.79688
474.455
0.756566
0.638511
0.564016
0.516433
0.484623
0.462358
0.446082
0.433823
0.424288
0.416749
0.410625
0.405618
0.401418
0.397898
0.394868
0.392288
0.39002
0.388066
0.386315
0.384794
0.383409
0.3822
0.381081
0.380105
0.379191
0.378391
0.377631
0.376971
0.376338
0.375785
0.375247
0.374788
0.374335
0.373949
0.373561
0.373239
0.372911
0.372633
0.37235
0.372118
0.371876
0.371688
0.371485
0.37132
0.371143
0.371016
0.370867
0.370749
0.370627
0.370547
0.370427
0.370342
0.370277
0.370221
0.370176
0.370083
0.370074
0.370065
0.370032
0.370086
0.370086
0.370079
0.370132
0.370154
0.370214
0.370292
0.370378
0.37047
0.37052
0.37063
0.370705
0.370839
0.370935
0.371095
0.371194
0.371382
0.371482
0.371694
0.371812
0.37206
0.372198
0.372488
0.372651
0.372988
0.373177
0.373571
0.373794
0.374262
0.374526
0.375121
0.375403
0.376446
0.376532
0.387528
5.89013
463.294
0.756643
0.638309
0.56335
0.515328
0.483162
0.460619
0.444128
0.4317
0.422031
0.414383
0.408171
0.40309
0.398828
0.395256
0.392181
0.389563
0.38726
0.385277
0.3835
0.381956
0.38055
0.379323
0.378187
0.377196
0.376267
0.375455
0.374684
0.374012
0.373369
0.372808
0.372262
0.371794
0.371334
0.370941
0.370547
0.370219
0.369885
0.369602
0.369314
0.369078
0.368831
0.368639
0.368432
0.368263
0.368082
0.367952
0.3678
0.367679
0.367553
0.367471
0.367349
0.367262
0.367194
0.367135
0.367089
0.366995
0.366981
0.36697
0.366933
0.366982
0.366983
0.366974
0.367024
0.367043
0.367102
0.367176
0.36726
0.36735
0.367398
0.367506
0.367578
0.36771
0.367803
0.367961
0.368057
0.368242
0.36834
0.368549
0.368665
0.368908
0.369044
0.369329
0.369489
0.369821
0.370007
0.370395
0.370614
0.371075
0.371335
0.371921
0.372197
0.373231
0.373307
0.384546
5.96029
451.189
0.756722
0.638106
0.562673
0.514198
0.481662
0.458831
0.442117
0.429513
0.419703
0.411943
0.405638
0.40048
0.396154
0.392527
0.389405
0.386747
0.384409
0.382395
0.38059
0.379022
0.377595
0.376348
0.375195
0.374188
0.373245
0.37242
0.371636
0.370954
0.3703
0.369729
0.369174
0.368699
0.368231
0.367831
0.36743
0.367096
0.366756
0.366468
0.366174
0.365933
0.365682
0.365485
0.365274
0.365102
0.364917
0.364783
0.364628
0.364504
0.364375
0.364289
0.364166
0.364076
0.364005
0.363944
0.363895
0.363801
0.363783
0.36377
0.363729
0.363773
0.363773
0.363762
0.363809
0.363825
0.363883
0.363953
0.364035
0.364124
0.364167
0.364273
0.364344
0.364473
0.364563
0.364718
0.364812
0.364994
0.36509
0.365295
0.365409
0.365648
0.365781
0.366062
0.366218
0.366545
0.366728
0.367109
0.367325
0.367779
0.368034
0.36861
0.368881
0.369905
0.369972
0.381433
6.00372
438.128
0.756804
0.637905
0.561986
0.513044
0.480126
0.456997
0.440049
0.427262
0.417307
0.409429
0.403028
0.39779
0.393396
0.389713
0.386542
0.383841
0.381467
0.379421
0.377587
0.375995
0.374545
0.373278
0.372106
0.371083
0.370124
0.369286
0.368489
0.367796
0.367131
0.366551
0.365987
0.365502
0.365027
0.364619
0.364211
0.363871
0.363524
0.363231
0.362932
0.362686
0.362429
0.362228
0.362013
0.361836
0.361647
0.361509
0.361351
0.361224
0.361092
0.361004
0.360878
0.360786
0.360711
0.360647
0.360597
0.360502
0.360479
0.360463
0.360419
0.360457
0.360457
0.360444
0.360489
0.360501
0.360558
0.360624
0.360703
0.36079
0.36083
0.360934
0.361002
0.361129
0.361216
0.361369
0.361459
0.361638
0.361733
0.361934
0.362045
0.36228
0.36241
0.362685
0.36284
0.36316
0.36334
0.363715
0.363927
0.364373
0.364623
0.365191
0.365455
0.366469
0.366527
0.378185
6.01711
424.101
0.756888
0.637704
0.56129
0.511868
0.478556
0.455117
0.437928
0.424951
0.414844
0.406843
0.400341
0.39502
0.390557
0.386814
0.383593
0.380848
0.378435
0.376356
0.374493