/*--------------------------------*- C++ -*----------------------------------*\
| =========                 |                                                 |
| \\      /  F ield         | OpenFOAM: The Open Source CFD Toolbox           |
|  \\    /   O peration     | Version:  v2012                                 |
|   \\  /    A nd           | Website:  www.openfoam.com                      |
|    \\/     M anipulation  |                                                 |
\*---------------------------------------------------------------------------*/
FoamFile
{
    version     2.0;
    format      ascii;
    class       volScalarField;
    location    "31.5";
    object      nut;
}
// * * * * * * * * * * * * * * * * * * * * * * * * * * * * * * * * * * * * * //

dimensions      [0 2 -1 0 0 0 0];


internalField   nonuniform List<scalar> 
209825
(
1.25029e-07
1.21168e-07
1.13898e-07
1.06035e-07
9.89795e-08
9.30747e-08
8.81837e-08
8.41502e-08
8.07667e-08
7.79288e-08
7.54967e-08
7.34212e-08
7.16074e-08
7.00403e-08
6.86447e-08
6.74276e-08
6.63277e-08
6.53628e-08
6.44788e-08
6.36996e-08
6.29764e-08
6.23384e-08
6.17378e-08
6.1207e-08
6.07026e-08
6.02579e-08
5.98308e-08
5.94525e-08
5.90876e-08
5.87672e-08
5.84516e-08
5.81753e-08
5.79022e-08
5.76653e-08
5.74287e-08
5.7224e-08
5.70157e-08
5.68381e-08
5.6655e-08
5.64993e-08
5.63377e-08
5.62009e-08
5.60578e-08
5.594e-08
5.58119e-08
5.57069e-08
5.55934e-08
5.55038e-08
5.54024e-08
5.53216e-08
5.52361e-08
5.51683e-08
5.5086e-08
5.50239e-08
5.49519e-08
5.49071e-08
5.48372e-08
5.47822e-08
5.47277e-08
5.46753e-08
5.46212e-08
5.45901e-08
5.45412e-08
5.45036e-08
5.44545e-08
5.44194e-08
5.43705e-08
5.43408e-08
5.42953e-08
5.42645e-08
5.42218e-08
5.42034e-08
5.4184e-08
5.41786e-08
5.41611e-08
5.41556e-08
5.41458e-08
5.41394e-08
5.41327e-08
5.4127e-08
5.41238e-08
5.4122e-08
5.41223e-08
5.41248e-08
5.41263e-08
5.41311e-08
5.41336e-08
5.41411e-08
5.41444e-08
5.41558e-08
5.4157e-08
5.41722e-08
5.41595e-08
5.45761e-08
3.29844e-06
2.2169e-08
1.25029e-07
1.21168e-07
1.13899e-07
1.06037e-07
9.89817e-08
9.30769e-08
8.81857e-08
8.41521e-08
8.07684e-08
7.79303e-08
7.54981e-08
7.34223e-08
7.16084e-08
7.00411e-08
6.86454e-08
6.74282e-08
6.63282e-08
6.53632e-08
6.44791e-08
6.36999e-08
6.29766e-08
6.23385e-08
6.17378e-08
6.1207e-08
6.07025e-08
6.02577e-08
5.98306e-08
5.94523e-08
5.90873e-08
5.8767e-08
5.84513e-08
5.8175e-08
5.79018e-08
5.76649e-08
5.74282e-08
5.72235e-08
5.70152e-08
5.68376e-08
5.66544e-08
5.64988e-08
5.63371e-08
5.62003e-08
5.60572e-08
5.59393e-08
5.58112e-08
5.57062e-08
5.55927e-08
5.55031e-08
5.54017e-08
5.53209e-08
5.52354e-08
5.51676e-08
5.50853e-08
5.50231e-08
5.49512e-08
5.49063e-08
5.48364e-08
5.47814e-08
5.47269e-08
5.46745e-08
5.46204e-08
5.45892e-08
5.45404e-08
5.45028e-08
5.44536e-08
5.44185e-08
5.43696e-08
5.434e-08
5.42944e-08
5.42636e-08
5.4221e-08
5.42025e-08
5.41831e-08
5.41776e-08
5.41602e-08
5.41547e-08
5.41448e-08
5.41384e-08
5.41318e-08
5.4126e-08
5.41228e-08
5.4121e-08
5.41213e-08
5.41238e-08
5.41253e-08
5.41301e-08
5.41326e-08
5.41401e-08
5.41434e-08
5.41548e-08
5.4156e-08
5.41712e-08
5.41585e-08
5.45756e-08
3.29878e-06
2.23458e-08
1.25029e-07
1.21172e-07
1.13906e-07
1.06046e-07
9.8991e-08
9.30859e-08
8.8194e-08
8.41595e-08
8.0775e-08
7.79361e-08
7.55031e-08
7.34267e-08
7.16122e-08
7.00444e-08
6.86481e-08
6.74305e-08
6.63301e-08
6.53647e-08
6.44802e-08
6.37007e-08
6.29771e-08
6.23388e-08
6.17378e-08
6.12068e-08
6.07021e-08
6.02572e-08
5.98298e-08
5.94514e-08
5.90863e-08
5.87657e-08
5.84499e-08
5.81735e-08
5.79002e-08
5.76632e-08
5.74264e-08
5.72216e-08
5.70132e-08
5.68355e-08
5.66522e-08
5.64965e-08
5.63348e-08
5.6198e-08
5.60547e-08
5.59368e-08
5.58086e-08
5.57036e-08
5.559e-08
5.55004e-08
5.53989e-08
5.53181e-08
5.52325e-08
5.51647e-08
5.50823e-08
5.50202e-08
5.49481e-08
5.49032e-08
5.48333e-08
5.47783e-08
5.47238e-08
5.46714e-08
5.46172e-08
5.4586e-08
5.45371e-08
5.44995e-08
5.44503e-08
5.44152e-08
5.43663e-08
5.43366e-08
5.4291e-08
5.42602e-08
5.42176e-08
5.41991e-08
5.41797e-08
5.41741e-08
5.41567e-08
5.41511e-08
5.41412e-08
5.41348e-08
5.41281e-08
5.41223e-08
5.41192e-08
5.41173e-08
5.41176e-08
5.41201e-08
5.41215e-08
5.41263e-08
5.41288e-08
5.41363e-08
5.41396e-08
5.41509e-08
5.41521e-08
5.41673e-08
5.41545e-08
5.45726e-08
3.29922e-06
2.25934e-08
1.25028e-07
1.21177e-07
1.13918e-07
1.06061e-07
9.90067e-08
9.3101e-08
8.82079e-08
8.4172e-08
8.07861e-08
7.79459e-08
7.55117e-08
7.34341e-08
7.16186e-08
7.00498e-08
6.86527e-08
6.74343e-08
6.63332e-08
6.53672e-08
6.44822e-08
6.37021e-08
6.29781e-08
6.23393e-08
6.17379e-08
6.12066e-08
6.07015e-08
6.02563e-08
5.98286e-08
5.94499e-08
5.90845e-08
5.87638e-08
5.84477e-08
5.81711e-08
5.78976e-08
5.76604e-08
5.74235e-08
5.72185e-08
5.70099e-08
5.68321e-08
5.66487e-08
5.64929e-08
5.6331e-08
5.61941e-08
5.60507e-08
5.59327e-08
5.58044e-08
5.56993e-08
5.55856e-08
5.54959e-08
5.53944e-08
5.53134e-08
5.52278e-08
5.51599e-08
5.50774e-08
5.50152e-08
5.49431e-08
5.48982e-08
5.48282e-08
5.47732e-08
5.47186e-08
5.46662e-08
5.4612e-08
5.45807e-08
5.45318e-08
5.44941e-08
5.44449e-08
5.44098e-08
5.43608e-08
5.43311e-08
5.42855e-08
5.42547e-08
5.4212e-08
5.41934e-08
5.41739e-08
5.41682e-08
5.41508e-08
5.41452e-08
5.41352e-08
5.41288e-08
5.41221e-08
5.41163e-08
5.4113e-08
5.41112e-08
5.41114e-08
5.41138e-08
5.41153e-08
5.412e-08
5.41225e-08
5.41299e-08
5.41332e-08
5.41445e-08
5.41457e-08
5.41608e-08
5.4148e-08
5.45677e-08
3.29984e-06
2.28858e-08
1.25027e-07
1.21184e-07
1.13934e-07
1.06082e-07
9.9029e-08
9.31223e-08
8.82276e-08
8.41897e-08
8.08018e-08
7.79597e-08
7.55238e-08
7.34446e-08
7.16276e-08
7.00576e-08
6.86593e-08
6.74398e-08
6.63377e-08
6.53708e-08
6.4485e-08
6.37042e-08
6.29795e-08
6.23401e-08
6.17382e-08
6.12063e-08
6.07008e-08
6.0255e-08
5.9827e-08
5.94479e-08
5.90822e-08
5.87611e-08
5.84447e-08
5.81678e-08
5.7894e-08
5.76566e-08
5.74194e-08
5.72142e-08
5.70054e-08
5.68273e-08
5.66438e-08
5.64877e-08
5.63257e-08
5.61886e-08
5.60451e-08
5.5927e-08
5.57985e-08
5.56933e-08
5.55795e-08
5.54896e-08
5.5388e-08
5.53069e-08
5.52211e-08
5.51532e-08
5.50706e-08
5.50084e-08
5.49362e-08
5.48911e-08
5.48211e-08
5.47661e-08
5.47113e-08
5.46589e-08
5.46046e-08
5.45733e-08
5.45243e-08
5.44866e-08
5.44373e-08
5.44022e-08
5.43531e-08
5.43234e-08
5.42778e-08
5.42469e-08
5.42042e-08
5.41854e-08
5.41658e-08
5.416e-08
5.41426e-08
5.41369e-08
5.41269e-08
5.41204e-08
5.41136e-08
5.41078e-08
5.41045e-08
5.41026e-08
5.41027e-08
5.41051e-08
5.41065e-08
5.41112e-08
5.41137e-08
5.4121e-08
5.41242e-08
5.41355e-08
5.41366e-08
5.41517e-08
5.41388e-08
5.45608e-08
3.3007e-06
2.32126e-08
1.25026e-07
1.21194e-07
1.13955e-07
1.06109e-07
9.90578e-08
9.31501e-08
8.82531e-08
8.42127e-08
8.08223e-08
7.79778e-08
7.55395e-08
7.34583e-08
7.16394e-08
7.00677e-08
6.86679e-08
6.7447e-08
6.63437e-08
6.53756e-08
6.44888e-08
6.3707e-08
6.29814e-08
6.23412e-08
6.17385e-08
6.1206e-08
6.06998e-08
6.02535e-08
5.98249e-08
5.94453e-08
5.90791e-08
5.87576e-08
5.84409e-08
5.81636e-08
5.78894e-08
5.76516e-08
5.74141e-08
5.72087e-08
5.69995e-08
5.68213e-08
5.66374e-08
5.64812e-08
5.63189e-08
5.61816e-08
5.60379e-08
5.59196e-08
5.5791e-08
5.56855e-08
5.55715e-08
5.54815e-08
5.53798e-08
5.52986e-08
5.52126e-08
5.51445e-08
5.50619e-08
5.49995e-08
5.49272e-08
5.48821e-08
5.48119e-08
5.47569e-08
5.4702e-08
5.46495e-08
5.45952e-08
5.45637e-08
5.45146e-08
5.44769e-08
5.44275e-08
5.43924e-08
5.43432e-08
5.43135e-08
5.42678e-08
5.42369e-08
5.41941e-08
5.41752e-08
5.41554e-08
5.41494e-08
5.41319e-08
5.41262e-08
5.41161e-08
5.41096e-08
5.41027e-08
5.40968e-08
5.40935e-08
5.40914e-08
5.40916e-08
5.40939e-08
5.40952e-08
5.40998e-08
5.41022e-08
5.41095e-08
5.41127e-08
5.41239e-08
5.41249e-08
5.41399e-08
5.41269e-08
5.45519e-08
3.30184e-06
2.35703e-08
1.25025e-07
1.21206e-07
1.13982e-07
1.06143e-07
9.90934e-08
9.31843e-08
8.82847e-08
8.42412e-08
8.08476e-08
7.80001e-08
7.5559e-08
7.34753e-08
7.16541e-08
7.00802e-08
6.86785e-08
6.7456e-08
6.6351e-08
6.53816e-08
6.44934e-08
6.37105e-08
6.29838e-08
6.23426e-08
6.17391e-08
6.12057e-08
6.06987e-08
6.02517e-08
5.98225e-08
5.94423e-08
5.90755e-08
5.87534e-08
5.84362e-08
5.81584e-08
5.78838e-08
5.76456e-08
5.74077e-08
5.72019e-08
5.69924e-08
5.68138e-08
5.66297e-08
5.64731e-08
5.63106e-08
5.61731e-08
5.6029e-08
5.59105e-08
5.57817e-08
5.56761e-08
5.55618e-08
5.54717e-08
5.53697e-08
5.52883e-08
5.52022e-08
5.51339e-08
5.50511e-08
5.49886e-08
5.49161e-08
5.48709e-08
5.48006e-08
5.47457e-08
5.46905e-08
5.4638e-08
5.45836e-08
5.4552e-08
5.45027e-08
5.4465e-08
5.44155e-08
5.43803e-08
5.43311e-08
5.43013e-08
5.42556e-08
5.42246e-08
5.41817e-08
5.41625e-08
5.41426e-08
5.41363e-08
5.41189e-08
5.4113e-08
5.41028e-08
5.40962e-08
5.40893e-08
5.40833e-08
5.40799e-08
5.40778e-08
5.40778e-08
5.408e-08
5.40813e-08
5.40858e-08
5.40882e-08
5.40954e-08
5.40985e-08
5.41096e-08
5.41106e-08
5.41255e-08
5.41123e-08
5.45409e-08
3.30329e-06
2.39591e-08
1.25023e-07
1.21221e-07
1.14013e-07
1.06183e-07
9.91359e-08
9.32253e-08
8.83225e-08
8.42752e-08
8.08779e-08
7.80268e-08
7.55824e-08
7.34956e-08
7.16717e-08
7.00953e-08
6.86913e-08
6.74668e-08
6.63599e-08
6.53888e-08
6.44991e-08
6.37148e-08
6.29868e-08
6.23444e-08
6.17398e-08
6.12054e-08
6.06975e-08
6.02497e-08
5.98196e-08
5.94387e-08
5.90712e-08
5.87485e-08
5.84306e-08
5.81523e-08
5.78772e-08
5.76385e-08
5.74001e-08
5.71939e-08
5.69839e-08
5.6805e-08
5.66204e-08
5.64636e-08
5.63007e-08
5.61629e-08
5.60185e-08
5.58997e-08
5.57706e-08
5.56648e-08
5.55503e-08
5.54599e-08
5.53577e-08
5.52761e-08
5.51897e-08
5.51213e-08
5.50384e-08
5.49757e-08
5.4903e-08
5.48577e-08
5.47872e-08
5.47323e-08
5.46769e-08
5.46243e-08
5.45697e-08
5.4538e-08
5.44885e-08
5.44508e-08
5.44012e-08
5.43659e-08
5.43166e-08
5.42867e-08
5.4241e-08
5.42099e-08
5.4167e-08
5.41475e-08
5.41274e-08
5.41208e-08
5.41034e-08
5.40974e-08
5.4087e-08
5.40804e-08
5.40733e-08
5.40672e-08
5.40637e-08
5.40615e-08
5.40615e-08
5.40635e-08
5.40648e-08
5.40691e-08
5.40714e-08
5.40785e-08
5.40815e-08
5.40925e-08
5.40935e-08
5.41083e-08
5.40949e-08
5.45279e-08
3.30511e-06
2.43824e-08
1.25021e-07
1.21237e-07
1.14049e-07
1.0623e-07
9.91853e-08
9.3273e-08
8.83665e-08
8.4315e-08
8.09133e-08
7.8058e-08
7.56098e-08
7.35194e-08
7.16923e-08
7.0113e-08
6.87064e-08
6.74794e-08
6.63704e-08
6.53973e-08
6.45058e-08
6.37198e-08
6.29903e-08
6.23466e-08
6.17407e-08
6.12051e-08
6.06962e-08
6.02473e-08
5.98163e-08
5.94345e-08
5.90662e-08
5.87428e-08
5.84242e-08
5.81453e-08
5.78695e-08
5.76303e-08
5.73913e-08
5.71846e-08
5.69741e-08
5.67947e-08
5.66098e-08
5.64525e-08
5.62892e-08
5.61511e-08
5.60064e-08
5.58872e-08
5.57578e-08
5.56517e-08
5.55369e-08
5.54462e-08
5.53438e-08
5.5262e-08
5.51753e-08
5.51067e-08
5.50235e-08
5.49607e-08
5.48877e-08
5.48423e-08
5.47716e-08
5.47166e-08
5.4661e-08
5.46083e-08
5.45536e-08
5.45217e-08
5.44721e-08
5.44343e-08
5.43845e-08
5.43493e-08
5.42998e-08
5.42698e-08
5.4224e-08
5.41929e-08
5.41498e-08
5.41301e-08
5.41097e-08
5.41027e-08
5.40853e-08
5.40791e-08
5.40686e-08
5.40619e-08
5.40547e-08
5.40485e-08
5.40449e-08
5.40426e-08
5.40424e-08
5.40444e-08
5.40455e-08
5.40497e-08
5.4052e-08
5.40589e-08
5.40619e-08
5.40727e-08
5.40736e-08
5.40882e-08
5.40747e-08
5.45128e-08
3.30733e-06
2.48458e-08
1.25019e-07
1.21256e-07
1.14091e-07
1.06284e-07
9.92419e-08
9.33276e-08
8.8417e-08
8.43606e-08
8.09539e-08
7.80938e-08
7.56412e-08
7.35468e-08
7.17159e-08
7.01334e-08
6.87237e-08
6.7494e-08
6.63825e-08
6.54071e-08
6.45135e-08
6.37257e-08
6.29945e-08
6.23492e-08
6.17418e-08
6.12049e-08
6.06947e-08
6.02447e-08
5.98126e-08
5.94299e-08
5.90606e-08
5.87363e-08
5.84169e-08
5.81373e-08
5.78608e-08
5.76209e-08
5.73813e-08
5.7174e-08
5.6963e-08
5.67831e-08
5.65976e-08
5.64399e-08
5.62762e-08
5.61376e-08
5.59924e-08
5.5873e-08
5.57432e-08
5.56367e-08
5.55216e-08
5.54306e-08
5.53279e-08
5.52458e-08
5.51588e-08
5.509e-08
5.50065e-08
5.49435e-08
5.48702e-08
5.48247e-08
5.47538e-08
5.46988e-08
5.46429e-08
5.45901e-08
5.45353e-08
5.45031e-08
5.44533e-08
5.44155e-08
5.43655e-08
5.43302e-08
5.42806e-08
5.42505e-08
5.42046e-08
5.41734e-08
5.41303e-08
5.41102e-08
5.40895e-08
5.4082e-08
5.40647e-08
5.40583e-08
5.40476e-08
5.40408e-08
5.40335e-08
5.40272e-08
5.40235e-08
5.40209e-08
5.40207e-08
5.40224e-08
5.40235e-08
5.40276e-08
5.40297e-08
5.40365e-08
5.40394e-08
5.405e-08
5.40508e-08
5.40653e-08
5.40516e-08
5.44956e-08
3.30997e-06
2.53567e-08
1.25017e-07
1.21276e-07
1.14137e-07
1.06344e-07
9.93057e-08
9.33893e-08
8.84741e-08
8.44122e-08
8.09998e-08
7.81345e-08
7.56768e-08
7.35779e-08
7.17428e-08
7.01565e-08
6.87434e-08
6.75106e-08
6.63963e-08
6.54184e-08
6.45224e-08
6.37325e-08
6.29992e-08
6.23522e-08
6.17431e-08
6.12047e-08
6.06931e-08
6.02418e-08
5.98085e-08
5.94247e-08
5.90543e-08
5.87291e-08
5.84088e-08
5.81283e-08
5.7851e-08
5.76104e-08
5.737e-08
5.71621e-08
5.69504e-08
5.677e-08
5.65839e-08
5.64257e-08
5.62614e-08
5.61224e-08
5.59768e-08
5.58569e-08
5.57267e-08
5.56199e-08
5.55043e-08
5.54131e-08
5.53099e-08
5.52276e-08
5.51402e-08
5.50712e-08
5.49874e-08
5.49242e-08
5.48506e-08
5.48048e-08
5.47337e-08
5.46787e-08
5.46225e-08
5.45696e-08
5.45145e-08
5.44822e-08
5.44321e-08
5.43942e-08
5.43441e-08
5.43086e-08
5.42589e-08
5.42287e-08
5.41828e-08
5.41515e-08
5.41082e-08
5.40877e-08
5.40667e-08
5.40587e-08
5.40415e-08
5.40348e-08
5.4024e-08
5.4017e-08
5.40095e-08
5.40031e-08
5.39992e-08
5.39965e-08
5.39961e-08
5.39977e-08
5.39987e-08
5.40026e-08
5.40046e-08
5.40112e-08
5.4014e-08
5.40245e-08
5.40251e-08
5.40394e-08
5.40255e-08
5.44763e-08
3.31303e-06
2.59239e-08
1.25014e-07
1.213e-07
1.14189e-07
1.06411e-07
9.93768e-08
9.34581e-08
8.85379e-08
8.44699e-08
8.10513e-08
7.818e-08
7.57168e-08
7.36128e-08
7.1773e-08
7.01825e-08
6.87656e-08
6.75293e-08
6.64118e-08
6.5431e-08
6.45325e-08
6.37402e-08
6.30047e-08
6.23557e-08
6.17448e-08
6.12047e-08
6.06915e-08
6.02387e-08
5.98041e-08
5.9419e-08
5.90475e-08
5.87212e-08
5.83998e-08
5.81184e-08
5.78402e-08
5.75987e-08
5.73575e-08
5.71489e-08
5.69365e-08
5.67554e-08
5.65687e-08
5.64099e-08
5.62451e-08
5.61056e-08
5.59594e-08
5.58391e-08
5.57084e-08
5.56012e-08
5.54852e-08
5.53935e-08
5.529e-08
5.52073e-08
5.51195e-08
5.50502e-08
5.49661e-08
5.49026e-08
5.48287e-08
5.47827e-08
5.47113e-08
5.46563e-08
5.45997e-08
5.45467e-08
5.44914e-08
5.44588e-08
5.44084e-08
5.43705e-08
5.43202e-08
5.42847e-08
5.42347e-08
5.42043e-08
5.41584e-08
5.4127e-08
5.40837e-08
5.40627e-08
5.40413e-08
5.40327e-08
5.40156e-08
5.40086e-08
5.39976e-08
5.39905e-08
5.39828e-08
5.39762e-08
5.39722e-08
5.39693e-08
5.39688e-08
5.39701e-08
5.3971e-08
5.39747e-08
5.39766e-08
5.3983e-08
5.39856e-08
5.3996e-08
5.39965e-08
5.40106e-08
5.39964e-08
5.44548e-08
3.31651e-06
2.65572e-08
1.2501e-07
1.21325e-07
1.14246e-07
1.06485e-07
9.94554e-08
9.35344e-08
8.86085e-08
8.45339e-08
8.11085e-08
7.82305e-08
7.57612e-08
7.36515e-08
7.18067e-08
7.02115e-08
6.87903e-08
6.75502e-08
6.64292e-08
6.54453e-08
6.45438e-08
6.37488e-08
6.3011e-08
6.23597e-08
6.17467e-08
6.12048e-08
6.06898e-08
6.02355e-08
5.97993e-08
5.94129e-08
5.904e-08
5.87125e-08
5.839e-08
5.81075e-08
5.78283e-08
5.75859e-08
5.73438e-08
5.71344e-08
5.69212e-08
5.67394e-08
5.65519e-08
5.63925e-08
5.6227e-08
5.6087e-08
5.59402e-08
5.58194e-08
5.56881e-08
5.55805e-08
5.5464e-08
5.53719e-08
5.5268e-08
5.51849e-08
5.50966e-08
5.5027e-08
5.49426e-08
5.48788e-08
5.48045e-08
5.47583e-08
5.46866e-08
5.46315e-08
5.45746e-08
5.45214e-08
5.44659e-08
5.4433e-08
5.43823e-08
5.43443e-08
5.42937e-08
5.42581e-08
5.4208e-08
5.41775e-08
5.41314e-08
5.40999e-08
5.40565e-08
5.40351e-08
5.40132e-08
5.4004e-08
5.39869e-08
5.39797e-08
5.39684e-08
5.39611e-08
5.39533e-08
5.39465e-08
5.39423e-08
5.39392e-08
5.39385e-08
5.39397e-08
5.39404e-08
5.39438e-08
5.39457e-08
5.39518e-08
5.39543e-08
5.39644e-08
5.39648e-08
5.39787e-08
5.39642e-08
5.44311e-08
3.32036e-06
2.72673e-08
1.25007e-07
1.21352e-07
1.14307e-07
1.06566e-07
9.95416e-08
9.36181e-08
8.86863e-08
8.46043e-08
8.11714e-08
7.82863e-08
7.58102e-08
7.36944e-08
7.18438e-08
7.02435e-08
6.88177e-08
6.75734e-08
6.64485e-08
6.54611e-08
6.45564e-08
6.37585e-08
6.3018e-08
6.23643e-08
6.1749e-08
6.1205e-08
6.06881e-08
6.0232e-08
5.97942e-08
5.94062e-08
5.90319e-08
5.87031e-08
5.83793e-08
5.80957e-08
5.78153e-08
5.75719e-08
5.73288e-08
5.71185e-08
5.69044e-08
5.67218e-08
5.65336e-08
5.63735e-08
5.62073e-08
5.60666e-08
5.59192e-08
5.57978e-08
5.5666e-08
5.55579e-08
5.54408e-08
5.53483e-08
5.52439e-08
5.51603e-08
5.50715e-08
5.50016e-08
5.49168e-08
5.48527e-08
5.4778e-08
5.47315e-08
5.46595e-08
5.46044e-08
5.4547e-08
5.44937e-08
5.44379e-08
5.44047e-08
5.43537e-08
5.43156e-08
5.42648e-08
5.4229e-08
5.41787e-08
5.4148e-08
5.41019e-08
5.40702e-08
5.40268e-08
5.40049e-08
5.39825e-08
5.39725e-08
5.39555e-08
5.3948e-08
5.39364e-08
5.3929e-08
5.39209e-08
5.39139e-08
5.39095e-08
5.39061e-08
5.39053e-08
5.39062e-08
5.39068e-08
5.391e-08
5.39117e-08
5.39176e-08
5.392e-08
5.39298e-08
5.39301e-08
5.39436e-08
5.39289e-08
5.44051e-08
3.32449e-06
2.80658e-08
1.25003e-07
1.21381e-07
1.14374e-07
1.06654e-07
9.96355e-08
9.37095e-08
8.87712e-08
8.46814e-08
8.12404e-08
7.83474e-08
7.58639e-08
7.37414e-08
7.18846e-08
7.02787e-08
6.88478e-08
6.75989e-08
6.64698e-08
6.54786e-08
6.45704e-08
6.37694e-08
6.30258e-08
6.23695e-08
6.17517e-08
6.12055e-08
6.06864e-08
6.02284e-08
5.97887e-08
5.93992e-08
5.90232e-08
5.8693e-08
5.83678e-08
5.8083e-08
5.78013e-08
5.75568e-08
5.73126e-08
5.71014e-08
5.68863e-08
5.67028e-08
5.65137e-08
5.63529e-08
5.61859e-08
5.60446e-08
5.58964e-08
5.57744e-08
5.56419e-08
5.55333e-08
5.54156e-08
5.53226e-08
5.52176e-08
5.51336e-08
5.50443e-08
5.4974e-08
5.48887e-08
5.48243e-08
5.47491e-08
5.47024e-08
5.463e-08
5.45748e-08
5.4517e-08
5.44635e-08
5.44074e-08
5.43739e-08
5.43225e-08
5.42844e-08
5.42332e-08
5.41974e-08
5.41468e-08
5.41159e-08
5.40696e-08
5.40378e-08
5.39944e-08
5.3972e-08
5.39489e-08
5.39383e-08
5.39213e-08
5.39134e-08
5.39015e-08
5.38939e-08
5.38856e-08
5.38784e-08
5.38738e-08
5.38701e-08
5.38692e-08
5.38697e-08
5.38702e-08
5.38731e-08
5.38747e-08
5.38803e-08
5.38825e-08
5.38921e-08
5.38922e-08
5.39054e-08
5.38904e-08
5.43768e-08
3.32879e-06
2.89645e-08
1.24999e-07
1.21413e-07
1.14446e-07
1.06749e-07
9.97373e-08
9.38087e-08
8.88636e-08
8.47653e-08
8.13155e-08
7.8414e-08
7.59226e-08
7.37927e-08
7.19293e-08
7.03173e-08
6.88808e-08
6.76269e-08
6.64933e-08
6.54978e-08
6.45858e-08
6.37814e-08
6.30346e-08
6.23753e-08
6.17549e-08
6.12062e-08
6.06848e-08
6.02247e-08
5.97831e-08
5.93917e-08
5.90139e-08
5.86822e-08
5.83555e-08
5.80693e-08
5.77863e-08
5.75406e-08
5.72952e-08
5.70829e-08
5.68667e-08
5.66824e-08
5.64923e-08
5.63307e-08
5.61628e-08
5.60207e-08
5.58717e-08
5.57491e-08
5.56159e-08
5.55067e-08
5.53884e-08
5.52948e-08
5.51893e-08
5.51048e-08
5.50148e-08
5.49441e-08
5.48584e-08
5.47936e-08
5.47178e-08
5.46709e-08
5.45981e-08
5.45427e-08
5.44845e-08
5.44308e-08
5.43744e-08
5.43405e-08
5.42887e-08
5.42505e-08
5.4199e-08
5.4163e-08
5.41123e-08
5.40811e-08
5.40347e-08
5.40028e-08
5.39593e-08
5.39363e-08
5.39126e-08
5.39012e-08
5.38843e-08
5.38759e-08
5.38638e-08
5.3856e-08
5.38473e-08
5.38399e-08
5.38351e-08
5.38311e-08
5.383e-08
5.38302e-08
5.38305e-08
5.38331e-08
5.38345e-08
5.38398e-08
5.38419e-08
5.38512e-08
5.38511e-08
5.3864e-08
5.38487e-08
5.43462e-08
3.33308e-06
2.99759e-08
1.24994e-07
1.21446e-07
1.14524e-07
1.06851e-07
9.9847e-08
9.39158e-08
8.89634e-08
8.48561e-08
8.13969e-08
7.84863e-08
7.59863e-08
7.38485e-08
7.19778e-08
7.03593e-08
6.89168e-08
6.76575e-08
6.65189e-08
6.5519e-08
6.46028e-08
6.37946e-08
6.30444e-08
6.2382e-08
6.17586e-08
6.12072e-08
6.06834e-08
6.0221e-08
5.97771e-08
5.93838e-08
5.90042e-08
5.86707e-08
5.83424e-08
5.80547e-08
5.77703e-08
5.75233e-08
5.72765e-08
5.70631e-08
5.68458e-08
5.66604e-08
5.64693e-08
5.63068e-08
5.61379e-08
5.59951e-08
5.58453e-08
5.57219e-08
5.5588e-08
5.54781e-08
5.53591e-08
5.52649e-08
5.51588e-08
5.50737e-08
5.49831e-08
5.4912e-08
5.48257e-08
5.47606e-08
5.46842e-08
5.46369e-08
5.45637e-08
5.45082e-08
5.44495e-08
5.43955e-08
5.43389e-08
5.43045e-08
5.42523e-08
5.4214e-08
5.41622e-08
5.41261e-08
5.4075e-08
5.40436e-08
5.39971e-08
5.3965e-08
5.39214e-08
5.38979e-08
5.38735e-08
5.38613e-08
5.38444e-08
5.38356e-08
5.38231e-08
5.3815e-08
5.38061e-08
5.37985e-08
5.37934e-08
5.37891e-08
5.37877e-08
5.37876e-08
5.37877e-08
5.379e-08
5.37912e-08
5.37962e-08
5.37981e-08
5.38071e-08
5.38068e-08
5.38193e-08
5.38037e-08
5.43132e-08
3.33712e-06
3.11126e-08
1.24989e-07
1.21481e-07
1.14606e-07
1.06961e-07
9.99647e-08
9.40311e-08
8.9071e-08
8.49541e-08
8.14848e-08
7.85644e-08
7.60552e-08
7.3909e-08
7.20305e-08
7.04049e-08
6.8956e-08
6.76908e-08
6.65468e-08
6.55421e-08
6.46215e-08
6.38092e-08
6.30553e-08
6.23894e-08
6.17629e-08
6.12087e-08
6.06821e-08
6.02172e-08
5.97711e-08
5.93756e-08
5.89939e-08
5.86586e-08
5.83286e-08
5.80393e-08
5.77532e-08
5.75048e-08
5.72567e-08
5.7042e-08
5.68234e-08
5.6637e-08
5.64447e-08
5.62813e-08
5.61114e-08
5.59677e-08
5.58169e-08
5.56928e-08
5.55581e-08
5.54476e-08
5.53277e-08
5.52329e-08
5.51261e-08
5.50405e-08
5.49491e-08
5.48775e-08
5.47907e-08
5.47251e-08
5.46482e-08
5.46004e-08
5.45268e-08
5.44712e-08
5.44119e-08
5.43578e-08
5.43007e-08
5.42659e-08
5.42133e-08
5.41749e-08
5.41226e-08
5.40864e-08
5.4035e-08
5.40034e-08
5.39567e-08
5.39245e-08
5.38807e-08
5.38567e-08
5.38316e-08
5.38186e-08
5.38016e-08
5.37922e-08
5.37794e-08
5.37711e-08
5.37618e-08
5.37539e-08
5.37486e-08
5.3744e-08
5.37423e-08
5.37419e-08
5.37418e-08
5.37437e-08
5.37448e-08
5.37494e-08
5.37511e-08
5.37598e-08
5.37593e-08
5.37713e-08
5.37554e-08
5.42777e-08
3.34062e-06
3.23874e-08
1.24983e-07
1.21519e-07
1.14694e-07
1.07077e-07
1.00091e-07
9.41546e-08
8.91866e-08
8.50595e-08
8.15795e-08
7.86486e-08
7.61296e-08
7.39743e-08
7.20874e-08
7.04542e-08
6.89984e-08
6.7727e-08
6.65772e-08
6.55673e-08
6.46419e-08
6.38253e-08
6.30673e-08
6.23978e-08
6.17679e-08
6.12105e-08
6.0681e-08
6.02135e-08
5.97648e-08
5.93671e-08
5.89832e-08
5.8646e-08
5.8314e-08
5.8023e-08
5.77352e-08
5.74853e-08
5.72356e-08
5.70196e-08
5.67997e-08
5.66121e-08
5.64186e-08
5.62541e-08
5.60832e-08
5.59386e-08
5.57868e-08
5.56619e-08
5.55262e-08
5.5415e-08
5.52942e-08
5.51988e-08
5.50912e-08
5.5005e-08
5.49129e-08
5.48408e-08
5.47533e-08
5.46873e-08
5.46097e-08
5.45615e-08
5.44874e-08
5.44316e-08
5.43718e-08
5.43174e-08
5.426e-08
5.42247e-08
5.41715e-08
5.4133e-08
5.40804e-08
5.40439e-08
5.39923e-08
5.39603e-08
5.39136e-08
5.38811e-08
5.38372e-08
5.38127e-08
5.37868e-08
5.3773e-08
5.37558e-08
5.37459e-08
5.37327e-08
5.37241e-08
5.37145e-08
5.37064e-08
5.37007e-08
5.36957e-08
5.36938e-08
5.3693e-08
5.36927e-08
5.36942e-08
5.36951e-08
5.36993e-08
5.37008e-08
5.37092e-08
5.37084e-08
5.37199e-08
5.37037e-08
5.42396e-08
3.34322e-06
3.38137e-08
1.24977e-07
1.21558e-07
1.14786e-07
1.07201e-07
1.00225e-07
9.42865e-08
8.93102e-08
8.51724e-08
8.1681e-08
7.87391e-08
7.62095e-08
7.40445e-08
7.21488e-08
7.05075e-08
6.90442e-08
6.77661e-08
6.66102e-08
6.55947e-08
6.46641e-08
6.38429e-08
6.30806e-08
6.24072e-08
6.17736e-08
6.12129e-08
6.06803e-08
6.02099e-08
5.97586e-08
5.93584e-08
5.89721e-08
5.86328e-08
5.82987e-08
5.80059e-08
5.77163e-08
5.74648e-08
5.72134e-08
5.6996e-08
5.67747e-08
5.65857e-08
5.6391e-08
5.62254e-08
5.60533e-08
5.59077e-08
5.57548e-08
5.5629e-08
5.54924e-08
5.53804e-08
5.52587e-08
5.51625e-08
5.50542e-08
5.49673e-08
5.48743e-08
5.48017e-08
5.47136e-08
5.46471e-08
5.45687e-08
5.45201e-08
5.44455e-08
5.43895e-08
5.43291e-08
5.42745e-08
5.42166e-08
5.41808e-08
5.41271e-08
5.40885e-08
5.40354e-08
5.39988e-08
5.39467e-08
5.39145e-08
5.38676e-08
5.38349e-08
5.37909e-08
5.37658e-08
5.37391e-08
5.37244e-08
5.37071e-08
5.36965e-08
5.3683e-08
5.36741e-08
5.36641e-08
5.36556e-08
5.36496e-08
5.36443e-08
5.36421e-08
5.36409e-08
5.36403e-08
5.36415e-08
5.36421e-08
5.3646e-08
5.36472e-08
5.36552e-08
5.36542e-08
5.36651e-08
5.36485e-08
5.41989e-08
3.34447e-06
3.54048e-08
1.24971e-07
1.21598e-07
1.14884e-07
1.07333e-07
1.00368e-07
9.44271e-08
8.94421e-08
8.5293e-08
8.17897e-08
7.8836e-08
7.62953e-08
7.412e-08
7.22147e-08
7.05648e-08
6.90937e-08
6.78084e-08
6.66459e-08
6.56244e-08
6.46884e-08
6.38622e-08
6.30952e-08
6.24176e-08
6.17801e-08
6.12159e-08
6.06799e-08
6.02065e-08
5.97523e-08
5.93495e-08
5.89607e-08
5.86191e-08
5.82828e-08
5.7988e-08
5.76965e-08
5.74432e-08
5.71901e-08
5.69712e-08
5.67483e-08
5.6558e-08
5.63619e-08
5.6195e-08
5.60217e-08
5.58751e-08
5.5721e-08
5.55942e-08
5.54566e-08
5.53437e-08
5.52212e-08
5.51241e-08
5.5015e-08
5.49274e-08
5.48335e-08
5.47603e-08
5.46715e-08
5.46044e-08
5.45253e-08
5.44762e-08
5.44011e-08
5.43449e-08
5.42838e-08
5.42289e-08
5.41706e-08
5.41343e-08
5.408e-08
5.40413e-08
5.39877e-08
5.39508e-08
5.38984e-08
5.38659e-08
5.38188e-08
5.37859e-08
5.37417e-08
5.37161e-08
5.36885e-08
5.3673e-08
5.36555e-08
5.36442e-08
5.36303e-08
5.3621e-08
5.36105e-08
5.36018e-08
5.35954e-08
5.35897e-08
5.35872e-08
5.35855e-08
5.35847e-08
5.35854e-08
5.35858e-08
5.35893e-08
5.35903e-08
5.35978e-08
5.35965e-08
5.36068e-08
5.359e-08
5.41554e-08
3.34388e-06
3.71732e-08
1.24964e-07
1.21641e-07
1.14986e-07
1.07471e-07
1.00519e-07
9.45763e-08
8.95825e-08
8.54216e-08
8.19056e-08
7.89395e-08
7.63871e-08
7.42009e-08
7.22855e-08
7.06264e-08
6.91468e-08
6.78539e-08
6.66845e-08
6.56566e-08
6.47147e-08
6.38832e-08
6.31113e-08
6.24293e-08
6.17876e-08
6.12196e-08
6.06801e-08
6.02034e-08
5.97461e-08
5.93405e-08
5.8949e-08
5.86049e-08
5.82664e-08
5.79695e-08
5.76758e-08
5.74207e-08
5.71657e-08
5.69451e-08
5.67206e-08
5.65289e-08
5.63313e-08
5.61632e-08
5.59885e-08
5.58407e-08
5.56854e-08
5.55576e-08
5.54189e-08
5.53051e-08
5.51815e-08
5.50837e-08
5.49736e-08
5.48852e-08
5.47904e-08
5.47166e-08
5.4627e-08
5.45594e-08
5.44794e-08
5.44298e-08
5.43541e-08
5.42976e-08
5.4236e-08
5.41807e-08
5.41219e-08
5.4085e-08
5.40301e-08
5.39913e-08
5.39371e-08
5.39001e-08
5.38473e-08
5.38144e-08
5.37672e-08
5.3734e-08
5.36896e-08
5.36635e-08
5.3635e-08
5.36186e-08
5.36008e-08
5.35887e-08
5.35745e-08
5.35648e-08
5.35539e-08
5.35448e-08
5.3538e-08
5.35318e-08
5.3529e-08
5.35269e-08
5.35258e-08
5.35261e-08
5.35262e-08
5.35292e-08
5.353e-08
5.35371e-08
5.35355e-08
5.35451e-08
5.3528e-08
5.41091e-08
3.34086e-06
3.91315e-08
1.24956e-07
1.21685e-07
1.15093e-07
1.07617e-07
1.00678e-07
9.47345e-08
8.97316e-08
8.55584e-08
8.20292e-08
7.905e-08
7.6485e-08
7.42873e-08
7.23612e-08
7.06924e-08
6.9204e-08
6.79029e-08
6.6726e-08
6.56915e-08
6.47433e-08
6.39062e-08
6.3129e-08
6.24422e-08
6.17961e-08
6.12241e-08
6.06807e-08
6.02006e-08
5.974e-08
5.93315e-08
5.89371e-08
5.85905e-08
5.82494e-08
5.79502e-08
5.76544e-08
5.73972e-08
5.71403e-08
5.6918e-08
5.66917e-08
5.64984e-08
5.62992e-08
5.61297e-08
5.59536e-08
5.58047e-08
5.56481e-08
5.55192e-08
5.53793e-08
5.52645e-08
5.51398e-08
5.50411e-08
5.493e-08
5.48409e-08
5.47451e-08
5.46705e-08
5.45802e-08
5.45119e-08
5.44311e-08
5.43809e-08
5.43046e-08
5.42478e-08
5.41855e-08
5.413e-08
5.40705e-08
5.40331e-08
5.39775e-08
5.39386e-08
5.38838e-08
5.38466e-08
5.37933e-08
5.37601e-08
5.37127e-08
5.36793e-08
5.36346e-08
5.36079e-08
5.35786e-08
5.35613e-08
5.35431e-08
5.35301e-08
5.35156e-08
5.35055e-08
5.3494e-08
5.34846e-08
5.34774e-08
5.34708e-08
5.34676e-08
5.3465e-08
5.34636e-08
5.34634e-08
5.34633e-08
5.34658e-08
5.34663e-08
5.34729e-08
5.3471e-08
5.34798e-08
5.34624e-08
5.40598e-08
3.33475e-06
4.1291e-08
1.24949e-07
1.2173e-07
1.15206e-07
1.07771e-07
1.00847e-07
9.49018e-08
8.98895e-08
8.57036e-08
8.21605e-08
7.91676e-08
7.65895e-08
7.43796e-08
7.24422e-08
7.07631e-08
6.92652e-08
6.79556e-08
6.67708e-08
6.57291e-08
6.47743e-08
6.39312e-08
6.31485e-08
6.24566e-08
6.18058e-08
6.12295e-08
6.06821e-08
6.01983e-08
5.97342e-08
5.93226e-08
5.89251e-08
5.85757e-08
5.8232e-08
5.79304e-08
5.76322e-08
5.73729e-08
5.71139e-08
5.68897e-08
5.66615e-08
5.64666e-08
5.62657e-08
5.60948e-08
5.59172e-08
5.5767e-08
5.56089e-08
5.54789e-08
5.53378e-08
5.5222e-08
5.50961e-08
5.49964e-08
5.48844e-08
5.47943e-08
5.46974e-08
5.46222e-08
5.4531e-08
5.44621e-08
5.43803e-08
5.43295e-08
5.42526e-08
5.41954e-08
5.41324e-08
5.40765e-08
5.40165e-08
5.39785e-08
5.39222e-08
5.38831e-08
5.38278e-08
5.37903e-08
5.37366e-08
5.37029e-08
5.36553e-08
5.36216e-08
5.35766e-08
5.35494e-08
5.35192e-08
5.3501e-08
5.34824e-08
5.34685e-08
5.34537e-08
5.3443e-08
5.34311e-08
5.34213e-08
5.34136e-08
5.34065e-08
5.34029e-08
5.33998e-08
5.33981e-08
5.33974e-08
5.33969e-08
5.33989e-08
5.33991e-08
5.34052e-08
5.34031e-08
5.34109e-08
5.33933e-08
5.40074e-08
3.32486e-06
4.36617e-08
1.2494e-07
1.21777e-07
1.15322e-07
1.07931e-07
1.01024e-07
9.50782e-08
9.00565e-08
8.58574e-08
8.22998e-08
7.92925e-08
7.67007e-08
7.44779e-08
7.25286e-08
7.08386e-08
6.93307e-08
6.80121e-08
6.6819e-08
6.57697e-08
6.48079e-08
6.39584e-08
6.31698e-08
6.24726e-08
6.18168e-08
6.1236e-08
6.06842e-08
6.01965e-08
5.97287e-08
5.93138e-08
5.8913e-08
5.85607e-08
5.82142e-08
5.79101e-08
5.76093e-08
5.73478e-08
5.70865e-08
5.68604e-08
5.66302e-08
5.64336e-08
5.62309e-08
5.60585e-08
5.58792e-08
5.57276e-08
5.55681e-08
5.54368e-08
5.52944e-08
5.51776e-08
5.50504e-08
5.49497e-08
5.48365e-08
5.47456e-08
5.46476e-08
5.45715e-08
5.44794e-08
5.44099e-08
5.43271e-08
5.42756e-08
5.4198e-08
5.41405e-08
5.40767e-08
5.40205e-08
5.39598e-08
5.39211e-08
5.38641e-08
5.38249e-08
5.37689e-08
5.37311e-08
5.36769e-08
5.36429e-08
5.3595e-08
5.35611e-08
5.35158e-08
5.3488e-08
5.3457e-08
5.34378e-08
5.34187e-08
5.34037e-08
5.33887e-08
5.33774e-08
5.33649e-08
5.33547e-08
5.33465e-08
5.33389e-08
5.33349e-08
5.33312e-08
5.33292e-08
5.33279e-08
5.33272e-08
5.33287e-08
5.33285e-08
5.33341e-08
5.33316e-08
5.33384e-08
5.33207e-08
5.39517e-08
3.31042e-06
4.62514e-08
1.24931e-07
1.21826e-07
1.15444e-07
1.081e-07
1.0121e-07
9.52641e-08
9.02328e-08
8.60201e-08
8.24475e-08
7.94251e-08
7.68188e-08
7.45825e-08
7.26207e-08
7.09193e-08
6.94009e-08
6.80726e-08
6.68707e-08
6.58134e-08
6.48442e-08
6.39881e-08
6.31932e-08
6.24903e-08
6.18292e-08
6.12436e-08
6.06873e-08
6.01954e-08
5.97237e-08
5.93052e-08
5.8901e-08
5.85456e-08
5.81961e-08
5.78894e-08
5.75859e-08
5.7322e-08
5.70583e-08
5.68301e-08
5.65978e-08
5.63993e-08
5.61948e-08
5.60207e-08
5.58397e-08
5.56867e-08
5.55256e-08
5.5393e-08
5.52492e-08
5.51312e-08
5.50028e-08
5.49009e-08
5.47866e-08