/*--------------------------------*- C++ -*----------------------------------*\
| =========                 |                                                 |
| \\      /  F ield         | OpenFOAM: The Open Source CFD Toolbox           |
|  \\    /   O peration     | Version:  v2012                                 |
|   \\  /    A nd           | Website:  www.openfoam.com                      |
|    \\/     M anipulation  |                                                 |
\*---------------------------------------------------------------------------*/
FoamFile
{
    version     2.0;
    format      ascii;
    class       volScalarField;
    location    "31.5";
    object      yPlus;
}
// * * * * * * * * * * * * * * * * * * * * * * * * * * * * * * * * * * * * * //

dimensions      [0 0 0 0 0 0 0];


internalField   uniform 0;

boundaryField
{
    inlet
    {
        type            calculated;
        value           uniform 0;
    }
    outlet
    {
        type            calculated;
        value           uniform 0;
    }
    topWall
    {
        type            calculated;
        value           nonuniform List<scalar> 
545
(
0.144614
0.249441
0.320004
0.376135
0.423646
0.465209
0.502324
0.535936
0.56669
0.595046
0.621352
0.645875
0.668829
0.690386
0.710689
0.729859
0.747997
0.76519
0.781514
0.797038
0.811818
0.825907
0.839352
0.852196
0.864475
0.876224
0.887475
0.898257
0.908596
0.918515
0.928038
0.937185
0.945975
0.954427
0.962556
0.970379
0.97791
0.985163
0.99215
0.998883
1.00537
1.01163
1.01767
1.0235
1.02912
1.03455
1.03979
1.04486
1.04975
1.05447
1.05904
1.06346
1.06773
1.07186
1.07586
1.07972
1.08346
1.08708
1.09058
1.09398
1.09726
1.10044
1.10352
1.1065
1.10939
1.11219
1.11491
1.11754
1.12009
1.12256
1.12495
1.12728
1.1295
1.13165
1.13378
1.1359
1.138
1.14008
1.14214
1.14418
1.14621
1.14823
1.15022
1.1522
1.15417
1.15612
1.15805
1.15996
1.16187
1.16375
1.16562
1.16748
1.16932
1.17114
1.17296
1.17475
1.17637
1.17782
1.17926
1.18071
1.18215
1.1836
1.18504
1.18648
1.18792
1.18936
1.1908
1.19224
1.19368
1.19512
1.19656
1.198
1.19943
1.20087
1.20231
1.20374
1.20517
1.20661
1.20804
1.20947
1.2109
1.21233
1.21376
1.21519
1.21662
1.21804
1.21947
1.22089
1.22232
1.22374
1.22516
1.22658
1.228
1.22942
1.23084
1.23226
1.23367
1.23509
1.2365
1.23792
1.23933
1.24074
1.24215
1.24356
1.24497
1.24637
1.24778
1.24918
1.25059
1.25199
1.25339
1.25479
1.25619
1.25759
1.25898
1.26038
1.26177
1.26316
1.26455
1.26594
1.26733
1.26872
1.2701
1.27149
1.27287
1.27425
1.27563
1.27701
1.27839
1.27977
1.28114
1.28251
1.28389
1.28526
1.28662
1.28799
1.28936
1.29072
1.29208
1.29344
1.2948
1.29616
1.29751
1.29887
1.30022
1.30157
1.30292
1.30427
1.30561
1.30696
1.3083
1.30964
1.31098
1.31231
1.31365
1.31498
1.31631
1.31764
1.31897
1.32029
1.32161
1.32294
1.32425
1.32557
1.32689
1.3282
1.32951
1.33082
1.33213
1.33343
1.33473
1.33603
1.33733
1.33863
1.33992
1.34121
1.3425
1.34379
1.34507
1.34636
1.34764
1.34891
1.35019
1.35146
1.35273
1.354
1.35527
1.35653
1.35779
1.35905
1.36031
1.36156
1.36281
1.36406
1.3653
1.36655
1.36779
1.36902
1.37026
1.37149
1.37272
1.37395
1.37517
1.37639
1.37761
1.37883
1.38004
1.38125
1.38246
1.38366
1.38487
1.38606
1.38726
1.38845
1.38964
1.39083
1.39201
1.39319
1.39437
1.39555
1.39672
1.39789
1.39905
1.40021
1.40137
1.40253
1.40368
1.40483
1.40598
1.40705
1.40807
1.40909
1.41012
1.41116
1.4122
1.41324
1.4143
1.41536
1.41642
1.41749
1.41857
1.41965
1.42074
1.42184
1.42294
1.42404
1.42516
1.42627
1.4274
1.42853
1.42966
1.4308
1.43194
1.43309
1.43425
1.43541
1.43657
1.43774
1.43892
1.4401
1.44128
1.44247
1.44366
1.44486
1.44606
1.44726
1.44847
1.44968
1.4509
1.45212
1.45334
1.45456
1.45579
1.45702
1.45826
1.45949
1.46073
1.46197
1.46322
1.46446
1.46571
1.46696
1.46821
1.46946
1.47071
1.47196
1.47321
1.47447
1.47572
1.47697
1.47822
1.47947
1.48072
1.48197
1.48322
1.48447
1.48571
1.48695
1.48819
1.48942
1.49066
1.49189
1.49311
1.49433
1.49555
1.49676
1.49797
1.49917
1.50037
1.50156
1.50275
1.50392
1.50509
1.50626
1.50741
1.50856
1.5097
1.51083
1.51195
1.51306
1.51416
1.51525
1.51632
1.51739
1.51845
1.51949
1.52052
1.52154
1.52254
1.52353
1.5245
1.52547
1.52641
1.52734
1.52825
1.52915
1.53003
1.53089
1.53173
1.53255
1.53336
1.53414
1.53491
1.53565
1.53637
1.53708
1.53775
1.53841
1.53904
1.53966
1.54024
1.5408
1.54134
1.54185
1.54233
1.54279
1.54322
1.54363
1.544
1.54435
1.54467
1.54496
1.54521
1.54544
1.54564
1.54581
1.54594
1.54605
1.54612
1.54615
1.54616
1.54613
1.54607
1.54597
1.54584
1.54567
1.54547
1.54523
1.54496
1.54465
1.5443
1.54392
1.5435
1.54304
1.54254
1.54201
1.54144
1.54083
1.54019
1.5395
1.53878
1.53802
1.53722
1.53639
1.53551
1.5346
1.53364
1.53265
1.53162
1.53056
1.52945
1.52831
1.52713
1.52591
1.52466
1.52337
1.52204
1.52068
1.51927
1.51784
1.5162
1.51437
1.51251
1.51063
1.50873
1.5068
1.50486
1.50291
1.50093
1.49895
1.49695
1.49495
1.49294
1.49092
1.4889
1.48687
1.48484
1.48281
1.48078
1.47876
1.47673
1.47472
1.4727
1.47069
1.46869
1.4667
1.46471
1.46274
1.46077
1.45883
1.45689
1.45496
1.45305
1.45116
1.44928
1.44742
1.44557
1.44374
1.44193
1.44015
1.43838
1.43663
1.4349
1.4332
1.43151
1.42986
1.42822
1.42661
1.42502
1.42346
1.42192
1.42042
1.41893
1.41748
1.41605
1.41465
1.41328
1.41194
1.41063
1.40935
1.40809
1.40687
1.40568
1.40452
1.40339
1.4023
1.40124
1.40021
1.39921
1.39825
1.39733
1.39643
1.39557
1.39475
1.39396
1.39321
1.39249
1.39181
1.39116
1.39056
1.38998
1.38945
1.38895
1.38849
1.38807
1.38768
1.38733
1.38702
1.38675
1.38652
1.38632
1.38617
1.38604
1.38597
1.38589
)
;
    }
    bottomWall
    {
        type            calculated;
        value           nonuniform List<scalar> 
449
(
0.00274115
0.00480756
0.00538089
0.00533285
0.00526112
0.00516463
0.0050668
0.00497527
0.00489134
0.00481462
0.0047444
0.00468001
0.00462081
0.00456603
0.00451517
0.00446776
0.00442337
0.00438167
0.00434238
0.00430521
0.00427005
0.00423666
0.00420493
0.0041747
0.00414586
0.00411829
0.0040919
0.00406659
0.00404229
0.00401891
0.00399641
0.0039747
0.00395375
0.00393348
0.00391389
0.00389489
0.00387648
0.0038586
0.00384124
0.00382435
0.00380792
0.0037919
0.00377631
0.00376109
0.00374626
0.00373176
0.00371762
0.00370379
0.0036903
0.00367708
0.00366417
0.00365153
0.00363916
0.00362704
0.00361518
0.00360354
0.00359214
0.00358094
0.00356996
0.00355917
0.00354859
0.00353818
0.00352796
0.0035179
0.00350803
0.00349829
0.00348874
0.00347932
0.00347007
0.00346094
0.00345197
0.00344311
0.0034344
0.0034258
0.00341736
0.003409
0.00340079
0.00339267
0.00338469
0.00337678
0.00336902
0.00336133
0.00335377
0.00334628
0.00333892
0.00333162
0.00332445
0.00331733
0.00331034
0.00330339
0.00329657
0.00328979
0.00328313
0.00327652
0.00327001
0.00326355
0.00325719
0.00325088
0.00324466
0.00323849
0.00323241
0.00322637
0.00322042
0.00321452
0.00320869
0.00320291
0.00319721
0.00319155
0.00318597
0.00318042
0.00317495
0.00316951
0.00316415
0.00315882
0.00315356
0.00314834
0.00314318
0.00313806
0.003133
0.00312797
0.00312301
0.00311807
0.0031132
0.00310835
0.00310356
0.0030988
0.0030941
0.00308943
0.00308481
0.00308021
0.00307568
0.00307116
0.0030667
0.00306226
0.00305788
0.00305351
0.0030492
0.0030449
0.00304066
0.00303644
0.00303226
0.00302811
0.003024
0.00301991
0.00301587
0.00301184
0.00300786
0.0030039
0.00299998
0.00299607
0.00299221
0.00298836
0.00298456
0.00298077
0.00297702
0.00297328
0.00296959
0.00296591
0.00296227
0.00295864
0.00295505
0.00295147
0.00294793
0.00294441
0.00294091
0.00293744
0.00293399
0.00293056
0.00292716
0.00292378
0.00292042
0.00291709
0.00291378
0.00291066
0.00290773
0.00290479
0.00290184
0.0028989
0.00289593
0.00289297
0.00289
0.00288702
0.00288403
0.00288104
0.00287804
0.00287503
0.00287201
0.002869
0.00286597
0.00286294
0.00285989
0.00285685
0.00285379
0.00285073
0.00284766
0.00284459
0.00284151
0.00283842
0.00283533
0.00283224
0.00282913
0.00282603
0.00282291
0.0028198
0.00281667
0.00281354
0.00281041
0.00280727
0.00280412
0.00280098
0.00279782
0.00279467
0.00279151
0.00278834
0.00278518
0.002782
0.00277883
0.00277564
0.00277246
0.00276927
0.00276608
0.00276288
0.00275968
0.00275647
0.00275327
0.00275006
0.00274685
0.00274363
0.00274042
0.00273719
0.00273397
0.00273074
0.00272752
0.00272428
0.00272105
0.00271781
0.00271458
0.00271133
0.0027081
0.00270485
0.00270162
0.00269837
0.00269513
0.00269188
0.00268863
0.00268538
0.00268213
0.00267888
0.00267563
0.00267238
0.00266912
0.00266588
0.00266262
0.00265937
0.00265611
0.00265286
0.0026496
0.00264635
0.00264309
0.00263984
0.00263658
0.00263333
0.00263008
0.00262682
0.00262357
0.00262032
0.00261707
0.00261383
0.00261058
0.00260734
0.00260409
0.00260085
0.00259761
0.00259438
0.00259114
0.00258791
0.00258468
0.00258144
0.00257823
0.002575
0.00257179
0.00256856
0.00256536
0.00256214
0.00255894
0.00255573
0.00255253
0.00254932
0.00254614
0.00254294
0.00253976
0.00253656
0.00253339
0.0025302
0.00252703
0.00252385
0.00252069
0.00251752
0.00251437
0.00251121
0.00250805
0.0025049
0.00250176
0.00249861
0.00249547
0.00249233
0.00248921
0.00248608
0.00248296
0.00247984
0.00247672
0.00247361
0.00247051
0.00246741
0.0024643
0.00246122
0.00245813
0.00245506
0.00245198
0.00244892
0.00244585
0.0024428
0.00243974
0.0024367
0.00243365
0.00243062
0.00242758
0.00242456
0.00242153
0.00241853
0.00241551
0.00241251
0.00240951
0.00240652
0.00240353
0.00240055
0.00239758
0.00239462
0.00239166
0.00238871
0.00238577
0.00238283
0.00237989
0.00237696
0.00237404
0.00237112
0.00236822
0.00236531
0.00236242
0.00235951
0.00235664
0.00235375
0.00235088
0.002348
0.00234485
0.00234138
0.00233801
0.00233465
0.00233137
0.00232811
0.00232493
0.00232177
0.00231869
0.00231562
0.00231262
0.00230964
0.00230672
0.00230382
0.00230098
0.00229816
0.00229539
0.00229265
0.00228995
0.00228729
0.00228466
0.00228206
0.00227949
0.00227695
0.00227445
0.00227197
0.00226954
0.00226711
0.00226474
0.00226238
0.00226006
0.00225774
0.00225549
0.00225323
0.00225102
0.00224881
0.00224665
0.00224449
0.00224238
0.00224026
0.00223819
0.00223612
0.00223409
0.00223206
0.00223008
0.00222809
0.00222614
0.0022242
0.00222229
0.00222039
0.00221851
0.00221665
0.00221482
0.00221299
0.00221119
0.00220939
0.00220763
0.00220587
0.00220414
0.0022024
0.00220071
0.002199
0.00219734
0.00219566
0.00219403
0.00219237
0.00219077
0.00218915
0.00218758
0.00218597
0.00218444
0.00218285
0.00218136
0.00217979
0.00217832
0.00217677
0.00217534
0.00217381
0.0021724
0.00217088
0.0021695
0.002168
0.00216663
0.00216517
0.0021638
0.00216237
0.002161
0.00215962
0.0021582
0.00215694
0.00215536
0.00215441
0.00215238
0.00215215
0.00214955
)
;
    }
    symmetry
    {
        type            symmetryPlane;
    }
    frontAndBack
    {
        type            empty;
    }
}


// ************************************************************************* //
