/*--------------------------------*- C++ -*----------------------------------*\
| =========                 |                                                 |
| \\      /  F ield         | OpenFOAM: The Open Source CFD Toolbox           |
|  \\    /   O peration     | Version:  v2012                                 |
|   \\  /    A nd           | Website:  www.openfoam.com                      |
|    \\/     M anipulation  |                                                 |
\*---------------------------------------------------------------------------*/
FoamFile
{
    version     2.0;
    format      ascii;
    class       volVectorField;
    location    "6";
    object      wallShearStress;
}
// * * * * * * * * * * * * * * * * * * * * * * * * * * * * * * * * * * * * * //

dimensions      [0 2 -2 0 0 0 0];


internalField   uniform (0 0 0);

boundaryField
{
    inlet
    {
        type            calculated;
        value           uniform (0 0 0);
    }
    outlet
    {
        type            calculated;
        value           uniform (0 0 0);
    }
    topWall
    {
        type            calculated;
        value           nonuniform List<vector> 
545
(
(9.47926e-09 -1.04654e-08 0)
(9.47497e-09 -2.92754e-08 0)
(9.4662e-09 -4.88312e-08 0)
(9.45323e-09 -6.78131e-08 0)
(9.43659e-09 -8.59748e-08 0)
(9.4167e-09 -1.03548e-07 0)
(9.39384e-09 -1.20679e-07 0)
(9.36822e-09 -1.3736e-07 0)
(9.34009e-09 -1.53551e-07 0)
(9.30971e-09 -1.69253e-07 0)
(9.27732e-09 -1.84485e-07 0)
(9.24312e-09 -1.99265e-07 0)
(9.2073e-09 -2.13603e-07 0)
(9.17006e-09 -2.27507e-07 0)
(9.13158e-09 -2.40989e-07 0)
(9.092e-09 -2.54058e-07 0)
(9.05148e-09 -2.66727e-07 0)
(9.01017e-09 -2.79007e-07 0)
(8.96819e-09 -2.90907e-07 0)
(8.92567e-09 -3.0244e-07 0)
(8.88271e-09 -3.13614e-07 0)
(8.83942e-09 -3.24441e-07 0)
(8.7959e-09 -3.34931e-07 0)
(8.75223e-09 -3.45094e-07 0)
(8.7085e-09 -3.5494e-07 0)
(8.66477e-09 -3.64478e-07 0)
(8.62113e-09 -3.73718e-07 0)
(8.57762e-09 -3.82669e-07 0)
(8.53431e-09 -3.91339e-07 0)
(8.49126e-09 -3.99739e-07 0)
(8.4485e-09 -4.07876e-07 0)
(8.40608e-09 -4.15758e-07 0)
(8.36405e-09 -4.23395e-07 0)
(8.32243e-09 -4.30792e-07 0)
(8.28125e-09 -4.37959e-07 0)
(8.24055e-09 -4.44903e-07 0)
(8.20035e-09 -4.5163e-07 0)
(8.16067e-09 -4.58148e-07 0)
(8.12153e-09 -4.64464e-07 0)
(8.08294e-09 -4.70584e-07 0)
(8.04493e-09 -4.76514e-07 0)
(8.0075e-09 -4.82261e-07 0)
(7.97067e-09 -4.87831e-07 0)
(7.93444e-09 -4.93228e-07 0)
(7.89881e-09 -4.9846e-07 0)
(7.8638e-09 -5.03531e-07 0)
(7.82941e-09 -5.08447e-07 0)
(7.79564e-09 -5.13212e-07 0)
(7.76249e-09 -5.17832e-07 0)
(7.72997e-09 -5.22311e-07 0)
(7.69806e-09 -5.26654e-07 0)
(7.66677e-09 -5.30865e-07 0)
(7.63609e-09 -5.34948e-07 0)
(7.60603e-09 -5.38908e-07 0)
(7.57658e-09 -5.42748e-07 0)
(7.54773e-09 -5.46473e-07 0)
(7.51948e-09 -5.50086e-07 0)
(7.49182e-09 -5.53591e-07 0)
(7.46474e-09 -5.5699e-07 0)
(7.43825e-09 -5.60289e-07 0)
(7.41232e-09 -5.63489e-07 0)
(7.38696e-09 -5.66594e-07 0)
(7.36216e-09 -5.69606e-07 0)
(7.3379e-09 -5.7253e-07 0)
(7.31418e-09 -5.75367e-07 0)
(7.291e-09 -5.78121e-07 0)
(7.26834e-09 -5.80793e-07 0)
(7.2462e-09 -5.83387e-07 0)
(7.22455e-09 -5.85905e-07 0)
(7.20342e-09 -5.88349e-07 0)
(7.18274e-09 -5.90723e-07 0)
(7.16269e-09 -5.93024e-07 0)
(7.14322e-09 -5.95235e-07 0)
(7.12406e-09 -5.97378e-07 0)
(7.10512e-09 -5.99496e-07 0)
(7.08625e-09 -6.016e-07 0)
(7.06742e-09 -6.03693e-07 0)
(7.04863e-09 -6.05771e-07 0)
(7.02988e-09 -6.07833e-07 0)
(7.01116e-09 -6.0988e-07 0)
(6.99248e-09 -6.11912e-07 0)
(6.97384e-09 -6.1393e-07 0)
(6.95524e-09 -6.15933e-07 0)
(6.93667e-09 -6.17922e-07 0)
(6.91815e-09 -6.19896e-07 0)
(6.89966e-09 -6.21856e-07 0)
(6.88122e-09 -6.23801e-07 0)
(6.86282e-09 -6.25733e-07 0)
(6.84445e-09 -6.27651e-07 0)
(6.82613e-09 -6.29555e-07 0)
(6.80786e-09 -6.31445e-07 0)
(6.78963e-09 -6.33321e-07 0)
(6.77143e-09 -6.35184e-07 0)
(6.75332e-09 -6.37032e-07 0)
(6.73506e-09 -6.38872e-07 0)
(6.7177e-09 -6.40678e-07 0)
(6.70164e-09 -6.4233e-07 0)
(6.68618e-09 -6.43826e-07 0)
(6.67126e-09 -6.45281e-07 0)
(6.65641e-09 -6.46741e-07 0)
(6.64154e-09 -6.48213e-07 0)
(6.62662e-09 -6.49687e-07 0)
(6.61164e-09 -6.51159e-07 0)
(6.5966e-09 -6.52629e-07 0)
(6.5815e-09 -6.541e-07 0)
(6.56634e-09 -6.55571e-07 0)
(6.55112e-09 -6.57043e-07 0)
(6.53585e-09 -6.58514e-07 0)
(6.52051e-09 -6.59985e-07 0)
(6.50511e-09 -6.61457e-07 0)
(6.48966e-09 -6.62928e-07 0)
(6.47414e-09 -6.64399e-07 0)
(6.45857e-09 -6.65871e-07 0)
(6.44293e-09 -6.67342e-07 0)
(6.42724e-09 -6.68813e-07 0)
(6.41148e-09 -6.70284e-07 0)
(6.39567e-09 -6.71755e-07 0)
(6.37979e-09 -6.73225e-07 0)
(6.36386e-09 -6.74696e-07 0)
(6.34786e-09 -6.76166e-07 0)
(6.33181e-09 -6.77636e-07 0)
(6.31569e-09 -6.79105e-07 0)
(6.29952e-09 -6.80575e-07 0)
(6.28328e-09 -6.82044e-07 0)
(6.26698e-09 -6.83512e-07 0)
(6.25063e-09 -6.84981e-07 0)
(6.23421e-09 -6.86449e-07 0)
(6.21773e-09 -6.87916e-07 0)
(6.2012e-09 -6.89383e-07 0)
(6.1846e-09 -6.9085e-07 0)
(6.16794e-09 -6.92316e-07 0)
(6.15122e-09 -6.93782e-07 0)
(6.13444e-09 -6.95247e-07 0)
(6.1176e-09 -6.96711e-07 0)
(6.1007e-09 -6.98175e-07 0)
(6.08374e-09 -6.99639e-07 0)
(6.06672e-09 -7.01101e-07 0)
(6.04964e-09 -7.02564e-07 0)
(6.0325e-09 -7.04025e-07 0)
(6.01529e-09 -7.05486e-07 0)
(5.99803e-09 -7.06945e-07 0)
(5.98071e-09 -7.08405e-07 0)
(5.96332e-09 -7.09863e-07 0)
(5.94588e-09 -7.1132e-07 0)
(5.92837e-09 -7.12777e-07 0)
(5.91081e-09 -7.14233e-07 0)
(5.89318e-09 -7.15688e-07 0)
(5.87549e-09 -7.17142e-07 0)
(5.85775e-09 -7.18595e-07 0)
(5.83994e-09 -7.20047e-07 0)
(5.82207e-09 -7.21498e-07 0)
(5.80415e-09 -7.22948e-07 0)
(5.78616e-09 -7.24397e-07 0)
(5.76811e-09 -7.25844e-07 0)
(5.75e-09 -7.27291e-07 0)
(5.73184e-09 -7.28736e-07 0)
(5.71361e-09 -7.30181e-07 0)
(5.69532e-09 -7.31624e-07 0)
(5.67697e-09 -7.33066e-07 0)
(5.65857e-09 -7.34506e-07 0)
(5.6401e-09 -7.35946e-07 0)
(5.62157e-09 -7.37384e-07 0)
(5.60299e-09 -7.3882e-07 0)
(5.58434e-09 -7.40256e-07 0)
(5.56564e-09 -7.41689e-07 0)
(5.54687e-09 -7.43122e-07 0)
(5.52805e-09 -7.44553e-07 0)
(5.50917e-09 -7.45982e-07 0)
(5.49023e-09 -7.4741e-07 0)
(5.47123e-09 -7.48836e-07 0)
(5.45217e-09 -7.50261e-07 0)
(5.43305e-09 -7.51684e-07 0)
(5.41387e-09 -7.53105e-07 0)
(5.39464e-09 -7.54525e-07 0)
(5.37534e-09 -7.55943e-07 0)
(5.35599e-09 -7.57359e-07 0)
(5.33658e-09 -7.58774e-07 0)
(5.31711e-09 -7.60186e-07 0)
(5.29759e-09 -7.61597e-07 0)
(5.27801e-09 -7.63006e-07 0)
(5.25836e-09 -7.64413e-07 0)
(5.23867e-09 -7.65818e-07 0)
(5.21891e-09 -7.67221e-07 0)
(5.1991e-09 -7.68622e-07 0)
(5.17923e-09 -7.70021e-07 0)
(5.1593e-09 -7.71418e-07 0)
(5.13932e-09 -7.72813e-07 0)
(5.11928e-09 -7.74205e-07 0)
(5.09918e-09 -7.75596e-07 0)
(5.07903e-09 -7.76984e-07 0)
(5.05882e-09 -7.7837e-07 0)
(5.03856e-09 -7.79754e-07 0)
(5.01824e-09 -7.81135e-07 0)
(4.99787e-09 -7.82515e-07 0)
(4.97744e-09 -7.83891e-07 0)
(4.95695e-09 -7.85266e-07 0)
(4.93641e-09 -7.86637e-07 0)
(4.91582e-09 -7.88007e-07 0)
(4.89517e-09 -7.89374e-07 0)
(4.87447e-09 -7.90738e-07 0)
(4.85371e-09 -7.921e-07 0)
(4.8329e-09 -7.93459e-07 0)
(4.81204e-09 -7.94815e-07 0)
(4.79113e-09 -7.96169e-07 0)
(4.77016e-09 -7.9752e-07 0)
(4.74913e-09 -7.98868e-07 0)
(4.72806e-09 -8.00214e-07 0)
(4.70693e-09 -8.01557e-07 0)
(4.68576e-09 -8.02896e-07 0)
(4.66453e-09 -8.04233e-07 0)
(4.64325e-09 -8.05567e-07 0)
(4.62191e-09 -8.06898e-07 0)
(4.60053e-09 -8.08226e-07 0)
(4.5791e-09 -8.09551e-07 0)
(4.55761e-09 -8.10873e-07 0)
(4.53608e-09 -8.12192e-07 0)
(4.5145e-09 -8.13507e-07 0)
(4.49287e-09 -8.14819e-07 0)
(4.47119e-09 -8.16129e-07 0)
(4.44946e-09 -8.17434e-07 0)
(4.42768e-09 -8.18737e-07 0)
(4.40585e-09 -8.20036e-07 0)
(4.38398e-09 -8.21332e-07 0)
(4.36206e-09 -8.22624e-07 0)
(4.34009e-09 -8.23913e-07 0)
(4.31808e-09 -8.25199e-07 0)
(4.29602e-09 -8.26481e-07 0)
(4.27391e-09 -8.27759e-07 0)
(4.25176e-09 -8.29034e-07 0)
(4.22956e-09 -8.30305e-07 0)
(4.20732e-09 -8.31573e-07 0)
(4.18503e-09 -8.32836e-07 0)
(4.1627e-09 -8.34096e-07 0)
(4.14033e-09 -8.35353e-07 0)
(4.11791e-09 -8.36605e-07 0)
(4.09545e-09 -8.37853e-07 0)
(4.07294e-09 -8.39098e-07 0)
(4.0504e-09 -8.40339e-07 0)
(4.02781e-09 -8.41575e-07 0)
(4.00519e-09 -8.42808e-07 0)
(3.98252e-09 -8.44037e-07 0)
(3.95981e-09 -8.45261e-07 0)
(3.93706e-09 -8.46481e-07 0)
(3.91427e-09 -8.47698e-07 0)
(3.89144e-09 -8.4891e-07 0)
(3.86858e-09 -8.50117e-07 0)
(3.84567e-09 -8.51321e-07 0)
(3.82273e-09 -8.5252e-07 0)
(3.79975e-09 -8.53715e-07 0)
(3.77674e-09 -8.54905e-07 0)
(3.75369e-09 -8.56091e-07 0)
(3.7306e-09 -8.57272e-07 0)
(3.70748e-09 -8.58449e-07 0)
(3.68432e-09 -8.59621e-07 0)
(3.66113e-09 -8.60789e-07 0)
(3.6379e-09 -8.61952e-07 0)
(3.61464e-09 -8.6311e-07 0)
(3.59135e-09 -8.64264e-07 0)
(3.56803e-09 -8.65413e-07 0)
(3.54467e-09 -8.66557e-07 0)
(3.52129e-09 -8.67696e-07 0)
(3.49787e-09 -8.6883e-07 0)
(3.47442e-09 -8.6996e-07 0)
(3.45095e-09 -8.71084e-07 0)
(3.42744e-09 -8.72204e-07 0)
(3.4039e-09 -8.73318e-07 0)
(3.38037e-09 -8.74427e-07 0)
(3.35666e-09 -8.75533e-07 0)
(3.33358e-09 -8.76626e-07 0)
(3.31145e-09 -8.77662e-07 0)
(3.28971e-09 -8.78644e-07 0)
(3.26825e-09 -8.79615e-07 0)
(3.24669e-09 -8.80591e-07 0)
(3.22496e-09 -8.81576e-07 0)
(3.20301e-09 -8.82566e-07 0)
(3.18086e-09 -8.83559e-07 0)
(3.1585e-09 -8.84555e-07 0)
(3.13593e-09 -8.85555e-07 0)
(3.11315e-09 -8.86558e-07 0)
(3.09015e-09 -8.87565e-07 0)
(3.06693e-09 -8.88576e-07 0)
(3.0435e-09 -8.89589e-07 0)
(3.01984e-09 -8.90606e-07 0)
(2.99597e-09 -8.91625e-07 0)
(2.97188e-09 -8.92648e-07 0)
(2.94757e-09 -8.93673e-07 0)
(2.92304e-09 -8.94701e-07 0)
(2.89828e-09 -8.95731e-07 0)
(2.8733e-09 -8.96764e-07 0)
(2.8481e-09 -8.97799e-07 0)
(2.82267e-09 -8.98835e-07 0)
(2.79701e-09 -8.99874e-07 0)
(2.77113e-09 -9.00914e-07 0)
(2.74501e-09 -9.01956e-07 0)
(2.71867e-09 -9.02999e-07 0)
(2.6921e-09 -9.04043e-07 0)
(2.66531e-09 -9.05088e-07 0)
(2.63828e-09 -9.06134e-07 0)
(2.61102e-09 -9.0718e-07 0)
(2.58353e-09 -9.08227e-07 0)
(2.55581e-09 -9.09273e-07 0)
(2.52786e-09 -9.1032e-07 0)
(2.49967e-09 -9.11367e-07 0)
(2.47126e-09 -9.12412e-07 0)
(2.44261e-09 -9.13457e-07 0)
(2.41374e-09 -9.14502e-07 0)
(2.38463e-09 -9.15544e-07 0)
(2.35529e-09 -9.16586e-07 0)
(2.32571e-09 -9.17625e-07 0)
(2.29591e-09 -9.18663e-07 0)
(2.26588e-09 -9.19698e-07 0)
(2.23562e-09 -9.2073e-07 0)
(2.20512e-09 -9.2176e-07 0)
(2.1744e-09 -9.22787e-07 0)
(2.14345e-09 -9.2381e-07 0)
(2.11228e-09 -9.24829e-07 0)
(2.08088e-09 -9.25844e-07 0)
(2.04925e-09 -9.26855e-07 0)
(2.0174e-09 -9.27861e-07 0)
(1.98533e-09 -9.28862e-07 0)
(1.95304e-09 -9.29858e-07 0)
(1.92053e-09 -9.30848e-07 0)
(1.8878e-09 -9.31832e-07 0)
(1.85485e-09 -9.32809e-07 0)
(1.8217e-09 -9.3378e-07 0)
(1.78832e-09 -9.34743e-07 0)
(1.75474e-09 -9.35699e-07 0)
(1.72096e-09 -9.36646e-07 0)
(1.68696e-09 -9.37586e-07 0)
(1.65277e-09 -9.38516e-07 0)
(1.61837e-09 -9.39438e-07 0)
(1.58378e-09 -9.40349e-07 0)
(1.54899e-09 -9.41251e-07 0)
(1.51402e-09 -9.42142e-07 0)
(1.47885e-09 -9.43022e-07 0)
(1.44351e-09 -9.43891e-07 0)
(1.40798e-09 -9.44748e-07 0)
(1.37227e-09 -9.45592e-07 0)
(1.3364e-09 -9.46424e-07 0)
(1.30036e-09 -9.47242e-07 0)
(1.26415e-09 -9.48047e-07 0)
(1.22778e-09 -9.48837e-07 0)
(1.19126e-09 -9.49613e-07 0)
(1.15459e-09 -9.50373e-07 0)
(1.11778e-09 -9.51117e-07 0)
(1.08082e-09 -9.51845e-07 0)
(1.04373e-09 -9.52556e-07 0)
(1.00652e-09 -9.5325e-07 0)
(9.69182e-10 -9.53926e-07 0)
(9.3173e-10 -9.54583e-07 0)
(8.94167e-10 -9.55221e-07 0)
(8.56502e-10 -9.5584e-07 0)
(8.1874e-10 -9.56438e-07 0)
(7.80889e-10 -9.57015e-07 0)
(7.42955e-10 -9.57571e-07 0)
(7.04947e-10 -9.58105e-07 0)
(6.66871e-10 -9.58616e-07 0)
(6.28735e-10 -9.59105e-07 0)
(5.90548e-10 -9.59569e-07 0)
(5.52318e-10 -9.60009e-07 0)
(5.14052e-10 -9.60424e-07 0)
(4.7576e-10 -9.60813e-07 0)
(4.37451e-10 -9.61176e-07 0)
(3.99133e-10 -9.61512e-07 0)
(3.60816e-10 -9.61821e-07 0)
(3.22509e-10 -9.62101e-07 0)
(2.84223e-10 -9.62353e-07 0)
(2.45966e-10 -9.62575e-07 0)
(2.0775e-10 -9.62767e-07 0)
(1.69584e-10 -9.62928e-07 0)
(1.3148e-10 -9.63058e-07 0)
(9.34471e-11 -9.63156e-07 0)
(5.54971e-11 -9.63222e-07 0)
(1.76412e-11 -9.63254e-07 0)
(-2.01094e-11 -9.63252e-07 0)
(-5.77431e-11 -9.63215e-07 0)
(-9.52482e-11 -9.63143e-07 0)
(-1.32613e-10 -9.63036e-07 0)
(-1.69825e-10 -9.62892e-07 0)
(-2.06872e-10 -9.62711e-07 0)
(-2.43742e-10 -9.62492e-07 0)
(-2.80422e-10 -9.62235e-07 0)
(-3.16899e-10 -9.61939e-07 0)
(-3.53162e-10 -9.61603e-07 0)
(-3.89196e-10 -9.61227e-07 0)
(-4.24988e-10 -9.6081e-07 0)
(-4.60526e-10 -9.60352e-07 0)
(-4.95797e-10 -9.59852e-07 0)
(-5.30786e-10 -9.5931e-07 0)
(-5.6548e-10 -9.58725e-07 0)
(-5.99866e-10 -9.58096e-07 0)
(-6.33931e-10 -9.57422e-07 0)
(-6.6766e-10 -9.56705e-07 0)
(-7.0104e-10 -9.55942e-07 0)
(-7.34058e-10 -9.55133e-07 0)
(-7.66699e-10 -9.54278e-07 0)
(-7.98951e-10 -9.53377e-07 0)
(-8.30799e-10 -9.52428e-07 0)
(-8.62229e-10 -9.51432e-07 0)
(-8.93229e-10 -9.50388e-07 0)
(-9.23785e-10 -9.49296e-07 0)
(-9.53883e-10 -9.48155e-07 0)
(-9.8351e-10 -9.46965e-07 0)
(-1.01265e-09 -9.45726e-07 0)
(-1.0413e-09 -9.44437e-07 0)
(-1.06944e-09 -9.43098e-07 0)
(-1.09705e-09 -9.41709e-07 0)
(-1.12413e-09 -9.40269e-07 0)
(-1.15066e-09 -9.38779e-07 0)
(-1.17663e-09 -9.37237e-07 0)
(-1.20203e-09 -9.35644e-07 0)
(-1.22684e-09 -9.34001e-07 0)
(-1.25106e-09 -9.32305e-07 0)
(-1.27468e-09 -9.30559e-07 0)
(-1.29768e-09 -9.2876e-07 0)
(-1.32005e-09 -9.26911e-07 0)
(-1.34178e-09 -9.25009e-07 0)
(-1.36287e-09 -9.23056e-07 0)
(-1.3833e-09 -9.21052e-07 0)
(-1.40306e-09 -9.18996e-07 0)
(-1.42216e-09 -9.16889e-07 0)
(-1.44056e-09 -9.1473e-07 0)
(-1.45828e-09 -9.12521e-07 0)
(-1.4753e-09 -9.10261e-07 0)
(-1.49162e-09 -9.0795e-07 0)
(-1.50722e-09 -9.0559e-07 0)
(-1.52211e-09 -9.03179e-07 0)
(-1.53628e-09 -9.00719e-07 0)
(-1.54972e-09 -8.98209e-07 0)
(-1.56243e-09 -8.95651e-07 0)
(-1.5744e-09 -8.93045e-07 0)
(-1.58563e-09 -8.90391e-07 0)
(-1.59613e-09 -8.87689e-07 0)
(-1.60588e-09 -8.84941e-07 0)
(-1.61488e-09 -8.82147e-07 0)
(-1.62313e-09 -8.79307e-07 0)
(-1.63064e-09 -8.76422e-07 0)
(-1.6374e-09 -8.73493e-07 0)
(-1.64342e-09 -8.70521e-07 0)
(-1.64869e-09 -8.67507e-07 0)
(-1.65321e-09 -8.6445e-07 0)
(-1.65699e-09 -8.61353e-07 0)
(-1.66003e-09 -8.58215e-07 0)
(-1.66234e-09 -8.55038e-07 0)
(-1.66391e-09 -8.51823e-07 0)
(-1.66475e-09 -8.48571e-07 0)
(-1.66488e-09 -8.45283e-07 0)
(-1.66427e-09 -8.41957e-07 0)
(-1.66303e-09 -8.38602e-07 0)
(-1.66072e-09 -8.35176e-07 0)
(-1.65744e-09 -8.31392e-07 0)
(-1.65341e-09 -8.27243e-07 0)
(-1.64825e-09 -8.23025e-07 0)
(-1.64214e-09 -8.1883e-07 0)
(-1.63518e-09 -8.14673e-07 0)
(-1.62744e-09 -8.10541e-07 0)
(-1.61896e-09 -8.06424e-07 0)
(-1.60978e-09 -8.02326e-07 0)
(-1.59994e-09 -7.98253e-07 0)
(-1.58948e-09 -7.94207e-07 0)
(-1.57843e-09 -7.90188e-07 0)
(-1.56683e-09 -7.86198e-07 0)
(-1.55471e-09 -7.82238e-07 0)
(-1.54211e-09 -7.78309e-07 0)
(-1.52906e-09 -7.74413e-07 0)
(-1.51557e-09 -7.70551e-07 0)
(-1.50169e-09 -7.66723e-07 0)
(-1.48743e-09 -7.62931e-07 0)
(-1.47282e-09 -7.59176e-07 0)
(-1.45789e-09 -7.55458e-07 0)
(-1.44264e-09 -7.51778e-07 0)
(-1.42711e-09 -7.48138e-07 0)
(-1.41131e-09 -7.44537e-07 0)
(-1.39527e-09 -7.40977e-07 0)
(-1.37899e-09 -7.37458e-07 0)
(-1.36249e-09 -7.3398e-07 0)
(-1.34579e-09 -7.30544e-07 0)
(-1.32889e-09 -7.27152e-07 0)
(-1.31183e-09 -7.23802e-07 0)
(-1.29459e-09 -7.20495e-07 0)
(-1.27721e-09 -7.17233e-07 0)
(-1.25967e-09 -7.14015e-07 0)
(-1.24201e-09 -7.10842e-07 0)
(-1.22421e-09 -7.07713e-07 0)
(-1.2063e-09 -7.0463e-07 0)
(-1.18828e-09 -7.01593e-07 0)
(-1.17015e-09 -6.98601e-07 0)
(-1.15192e-09 -6.95656e-07 0)
(-1.1336e-09 -6.92756e-07 0)
(-1.11519e-09 -6.89904e-07 0)
(-1.09669e-09 -6.87098e-07 0)
(-1.07812e-09 -6.84339e-07 0)
(-1.05946e-09 -6.81628e-07 0)
(-1.04074e-09 -6.78964e-07 0)
(-1.02194e-09 -6.76347e-07 0)
(-1.00307e-09 -6.73779e-07 0)
(-9.84132e-10 -6.71258e-07 0)
(-9.65131e-10 -6.68785e-07 0)
(-9.46065e-10 -6.66361e-07 0)
(-9.26936e-10 -6.63985e-07 0)
(-9.07746e-10 -6.61658e-07 0)
(-8.88494e-10 -6.59379e-07 0)
(-8.69182e-10 -6.5715e-07 0)
(-8.49811e-10 -6.54969e-07 0)
(-8.30379e-10 -6.52838e-07 0)
(-8.10889e-10 -6.50756e-07 0)
(-7.91339e-10 -6.48724e-07 0)
(-7.71731e-10 -6.46741e-07 0)
(-7.52064e-10 -6.44808e-07 0)
(-7.32338e-10 -6.42925e-07 0)
(-7.12554e-10 -6.41092e-07 0)
(-6.92711e-10 -6.3931e-07 0)
(-6.7281e-10 -6.37578e-07 0)
(-6.5285e-10 -6.35896e-07 0)
(-6.32833e-10 -6.34265e-07 0)
(-6.12758e-10 -6.32685e-07 0)
(-5.92625e-10 -6.31156e-07 0)
(-5.72435e-10 -6.29678e-07 0)
(-5.52188e-10 -6.28252e-07 0)
(-5.31886e-10 -6.26877e-07 0)
(-5.11528e-10 -6.25553e-07 0)
(-4.91115e-10 -6.24281e-07 0)
(-4.70648e-10 -6.23061e-07 0)
(-4.50129e-10 -6.21893e-07 0)
(-4.29558e-10 -6.20777e-07 0)
(-4.08937e-10 -6.19714e-07 0)
(-3.88267e-10 -6.18702e-07 0)
(-3.67549e-10 -6.17744e-07 0)
(-3.46785e-10 -6.16838e-07 0)
(-3.25977e-10 -6.15984e-07 0)
(-3.05127e-10 -6.15183e-07 0)
(-2.84237e-10 -6.14436e-07 0)
(-2.63308e-10 -6.13741e-07 0)
(-2.42343e-10 -6.131e-07 0)
(-2.21345e-10 -6.12511e-07 0)
(-2.00315e-10 -6.1198e-07 0)
(-1.79256e-10 -6.11485e-07 0)
(-1.58177e-10 -6.111e-07 0)
(-1.37065e-10 -6.10583e-07 0)
(-1.15985e-10 -6.10725e-07 0)
(-9.47477e-11 -6.08872e-07 0)
(-7.40247e-11 -6.13611e-07 0)
(-5.15856e-11 -5.9509e-07 0)
(-3.52467e-11 -6.4385e-07 0)
(-1.56769e-11 -5.62292e-07 0)
)
;
    }
    bottomWall
    {
        type            calculated;
        value           nonuniform List<vector> 
449
(
(-46.5204 -0.879898 0)
(-20.1271 -0.221957 0)
(-14.2545 -0.0269333 0)
(-11.9383 -0.0146398 0)
(-10.5736 -0.0106566 0)
(-9.62755 -0.00804003 0)
(-8.88493 -0.00643988 0)
(-8.28397 -0.00521281 0)
(-7.79075 -0.00431859 0)
(-7.37627 -0.0036734 0)
(-7.02031 -0.00317917 0)
(-6.71008 -0.00278282 0)
(-6.43676 -0.00245981 0)
(-6.19364 -0.0021941 0)
(-5.97554 -0.00197273 0)
(-5.77841 -0.00178579 0)
(-5.59908 -0.00162613 0)
(-5.43504 -0.00148854 0)
(-5.28421 -0.00136901 0)
(-5.14492 -0.0012644 0)
(-5.01575 -0.00117223 0)
(-4.89554 -0.00109054 0)
(-4.78329 -0.00101772 0)
(-4.67816 -0.000952506 0)
(-4.57942 -0.000893823 0)
(-4.48645 -0.000840796 0)
(-4.3987 -0.000792694 0)
(-4.31571 -0.000748903 0)
(-4.23704 -0.000708903 0)
(-4.16234 -0.000672251 0)
(-4.09129 -0.000638571 0)
(-4.02359 -0.000607537 0)
(-3.95899 -0.000578868 0)
(-3.89725 -0.000552322 0)
(-3.83817 -0.000527684 0)
(-3.78156 -0.000504771 0)
(-3.72726 -0.000483418 0)
(-3.6751 -0.000463481 0)
(-3.62495 -0.000444834 0)
(-3.57669 -0.000427363 0)
(-3.53019 -0.000410967 0)
(-3.48536 -0.000395556 0)
(-3.44209 -0.000381051 0)
(-3.40029 -0.000367379 0)
(-3.35988 -0.000354474 0)
(-3.32078 -0.000342279 0)
(-3.28294 -0.00033074 0)
(-3.24626 -0.00031981 0)
(-3.21071 -0.000309444 0)
(-3.17622 -0.000299603 0)
(-3.14274 -0.00029025 0)
(-3.11022 -0.000281353 0)
(-3.07861 -0.000272882 0)
(-3.04787 -0.000264809 0)
(-3.01797 -0.000257107 0)
(-2.98886 -0.000249755 0)
(-2.96051 -0.00024273 0)
(-2.93289 -0.000236012 0)
(-2.90596 -0.000229584 0)
(-2.8797 -0.000223428 0)
(-2.85408 -0.000217528 0)
(-2.82908 -0.00021187 0)
(-2.80466 -0.00020644 0)
(-2.7808 -0.000201226 0)
(-2.75749 -0.000196217 0)
(-2.73471 -0.0001914 0)
(-2.71243 -0.000186767 0)
(-2.69063 -0.000182307 0)
(-2.6693 -0.000178011 0)
(-2.64842 -0.000173872 0)
(-2.62797 -0.000169882 0)
(-2.60794 -0.000166033 0)
(-2.58832 -0.000162318 0)
(-2.56909 -0.000158732 0)
(-2.55024 -0.000155268 0)
(-2.53176 -0.000151919 0)
(-2.51362 -0.000148682 0)
(-2.49583 -0.000145551 0)
(-2.47838 -0.000142522 0)
(-2.46124 -0.000139589 0)
(-2.44441 -0.000136748 0)
(-2.42789 -0.000133997 0)
(-2.41166 -0.00013133 0)
(-2.39571 -0.000128744 0)
(-2.38004 -0.000126236 0)
(-2.36464 -0.000123803 0)
(-2.34949 -0.000121442 0)
(-2.3346 -0.000119149 0)
(-2.31995 -0.000116923 0)
(-2.30555 -0.000114759 0)
(-2.29137 -0.000112657 0)
(-2.27742 -0.000110614 0)
(-2.26369 -0.000108626 0)
(-2.25017 -0.000106694 0)
(-2.23687 -0.000104813 0)
(-2.22376 -0.000102983 0)
(-2.21085 -0.000101201 0)
(-2.19814 -9.94657e-05 0)
(-2.18561 -9.77756e-05 0)
(-2.17326 -9.61291e-05 0)
(-2.1611 -9.45245e-05 0)
(-2.1491 -9.29604e-05 0)
(-2.13728 -9.14354e-05 0)
(-2.12562 -8.99482e-05 0)
(-2.11413 -8.84974e-05 0)
(-2.10279 -8.7082e-05 0)
(-2.09161 -8.57006e-05 0)
(-2.08058 -8.43522e-05 0)
(-2.06969 -8.30358e-05 0)
(-2.05895 -8.17502e-05 0)
(-2.04835 -8.04945e-05 0)
(-2.03789 -7.92678e-05 0)
(-2.02756 -7.80691e-05 0)
(-2.01737 -7.68976e-05 0)
(-2.0073 -7.57524e-05 0)
(-1.99736 -7.46328e-05 0)
(-1.98754 -7.35379e-05 0)
(-1.97784 -7.2467e-05 0)
(-1.96826 -7.14194e-05 0)
(-1.9588 -7.03944e-05 0)
(-1.94945 -6.93914e-05 0)
(-1.94021 -6.84096e-05 0)
(-1.93108 -6.74486e-05 0)
(-1.92206 -6.65076e-05 0)
(-1.91314 -6.55862e-05 0)
(-1.90432 -6.46837e-05 0)
(-1.89561 -6.37997e-05 0)
(-1.88699 -6.29336e-05 0)
(-1.87847 -6.20849e-05 0)
(-1.87004 -6.12532e-05 0)
(-1.86171 -6.0438e-05 0)
(-1.85347 -5.96388e-05 0)
(-1.84532 -5.88553e-05 0)
(-1.83725 -5.8087e-05 0)
(-1.82927 -5.73335e-05 0)
(-1.82138 -5.65944e-05 0)
(-1.81357 -5.58694e-05 0)
(-1.80584 -5.51581e-05 0)
(-1.79819 -5.44601e-05 0)
(-1.79062 -5.3775e-05 0)
(-1.78312 -5.31027e-05 0)
(-1.77571 -5.24427e-05 0)
(-1.76836 -5.17948e-05 0)
(-1.7611 -5.11586e-05 0)
(-1.7539 -5.05338e-05 0)
(-1.74677 -4.99203e-05 0)
(-1.73972 -4.93176e-05 0)
(-1.73273 -4.87256e-05 0)
(-1.72581 -4.8144e-05 0)
(-1.71895 -4.75725e-05 0)
(-1.71216 -4.70109e-05 0)
(-1.70544 -4.6459e-05 0)
(-1.69878 -4.59166e-05 0)
(-1.69218 -4.53833e-05 0)
(-1.68564 -4.48591e-05 0)
(-1.67916 -4.43437e-05 0)
(-1.67274 -4.3837e-05 0)
(-1.66638 -4.33386e-05 0)
(-1.66007 -4.28484e-05 0)
(-1.65383 -4.23664e-05 0)
(-1.64763 -4.18921e-05 0)
(-1.6415 -4.14256e-05 0)
(-1.63541 -4.09666e-05 0)
(-1.62938 -4.0515e-05 0)
(-1.62341 -4.00706e-05 0)
(-1.61748 -3.96333e-05 0)
(-1.6116 -3.92029e-05 0)
(-1.60578 -3.87793e-05 0)
(-1.6 -3.83632e-05 0)
(-1.59427 -3.79503e-05 0)
(-1.58859 -3.75525e-05 0)
(-1.58295 -3.7159e-05 0)
(-1.57737 -3.66928e-05 0)
(-1.57215 -3.63529e-05 0)
(-1.56724 -3.61106e-05 0)
(-1.56231 -3.57427e-05 0)
(-1.55739 -3.53825e-05 0)
(-1.55246 -3.50447e-05 0)
(-1.54752 -3.47094e-05 0)
(-1.54258 -3.43757e-05 0)
(-1.53764 -3.40447e-05 0)
(-1.53268 -3.3716e-05 0)
(-1.52772 -3.33892e-05 0)
(-1.52276 -3.30644e-05 0)
(-1.51779 -3.27415e-05 0)
(-1.51282 -3.24204e-05 0)
(-1.50784 -3.21012e-05 0)
(-1.50286 -3.17839e-05 0)
(-1.49787 -3.14684e-05 0)
(-1.49288 -3.11548e-05 0)
(-1.48789 -3.0843e-05 0)
(-1.48289 -3.05331e-05 0)
(-1.47789 -3.0225e-05 0)
(-1.47288 -2.99189e-05 0)
(-1.46787 -2.96146e-05 0)
(-1.46286 -2.93122e-05 0)
(-1.45785 -2.90118e-05 0)
(-1.45283 -2.87132e-05 0)
(-1.44782 -2.84166e-05 0)
(-1.4428 -2.81219e-05 0)
(-1.43777 -2.78291e-05 0)
(-1.43275 -2.75383e-05 0)
(-1.42773 -2.72494e-05 0)
(-1.4227 -2.69625e-05 0)
(-1.41767 -2.66775e-05 0)
(-1.41265 -2.63945e-05 0)
(-1.40762 -2.61135e-05 0)
(-1.40259 -2.58344e-05 0)
(-1.39756 -2.55574e-05 0)
(-1.39253 -2.52823e-05 0)
(-1.3875 -2.50092e-05 0)
(-1.38247 -2.4738e-05 0)
(-1.37744 -2.44689e-05 0)
(-1.37242 -2.42018e-05 0)
(-1.36739 -2.39366e-05 0)
(-1.36237 -2.36735e-05 0)
(-1.35734 -2.34124e-05 0)
(-1.35232 -2.31533e-05 0)
(-1.3473 -2.28961e-05 0)
(-1.34228 -2.2641e-05 0)
(-1.33726 -2.23879e-05 0)
(-1.33225 -2.21368e-05 0)
(-1.32724 -2.18877e-05 0)
(-1.32223 -2.16405e-05 0)
(-1.31722 -2.13954e-05 0)
(-1.31222 -2.11523e-05 0)
(-1.30722 -2.09112e-05 0)
(-1.30222 -2.06721e-05 0)
(-1.29723 -2.0435e-05 0)
(-1.29224 -2.01999e-05 0)
(-1.28725 -1.99667e-05 0)
(-1.28227 -1.97356e-05 0)
(-1.27729 -1.95064e-05 0)
(-1.27232 -1.92792e-05 0)
(-1.26735 -1.9054e-05 0)
(-1.26239 -1.88308e-05 0)
(-1.25743 -1.86095e-05 0)
(-1.25248 -1.83902e-05 0)
(-1.24753 -1.81729e-05 0)
(-1.24259 -1.79575e-05 0)
(-1.23765 -1.7744e-05 0)
(-1.23272 -1.75325e-05 0)
(-1.22779 -1.73229e-05 0)
(-1.22287 -1.71153e-05 0)
(-1.21796 -1.69096e-05 0)
(-1.21305 -1.67057e-05 0)
(-1.20815 -1.65039e-05 0)
(-1.20326 -1.63039e-05 0)
(-1.19837 -1.61058e-05 0)
(-1.19349 -1.59096e-05 0)
(-1.18862 -1.57152e-05 0)
(-1.18376 -1.55228e-05 0)
(-1.1789 -1.53322e-05 0)
(-1.17405 -1.51435e-05 0)
(-1.1692 -1.49566e-05 0)
(-1.16437 -1.47716e-05 0)
(-1.15954 -1.45883e-05 0)
(-1.15473 -1.4407e-05 0)
(-1.14991 -1.42274e-05 0)
(-1.14511 -1.40496e-05 0)
(-1.14032 -1.38737e-05 0)
(-1.13553 -1.36995e-05 0)
(-1.13076 -1.35271e-05 0)
(-1.12599 -1.33565e-05 0)
(-1.12123 -1.31876e-05 0)
(-1.11649 -1.30205e-05 0)
(-1.11175 -1.28551e-05 0)
(-1.10702 -1.26914e-05 0)
(-1.1023 -1.25295e-05 0)
(-1.09758 -1.23693e-05 0)
(-1.09288 -1.22108e-05 0)
(-1.08819 -1.20539e-05 0)
(-1.08351 -1.18987e-05 0)
(-1.07884 -1.17453e-05 0)
(-1.07418 -1.15934e-05 0)
(-1.06953 -1.14432e-05 0)
(-1.06489 -1.12946e-05 0)
(-1.06026 -1.11477e-05 0)
(-1.05564 -1.10024e-05 0)
(-1.05103 -1.08586e-05 0)
(-1.04643 -1.07165e-05 0)
(-1.04185 -1.05759e-05 0)
(-1.03727 -1.04369e-05 0)
(-1.03271 -1.02995e-05 0)
(-1.02816 -1.01636e-05 0)
(-1.02361 -1.00292e-05 0)
(-1.01908 -9.89637e-06 0)
(-1.01456 -9.76503e-06 0)
(-1.01006 -9.63519e-06 0)
(-1.00556 -9.50683e-06 0)
(-1.00108 -9.37995e-06 0)
(-0.996606 -9.25453e-06 0)
(-0.992146 -9.13056e-06 0)
(-0.987697 -9.00803e-06 0)
(-0.983261 -8.88693e-06 0)
(-0.978837 -8.76724e-06 0)
(-0.974425 -8.64896e-06 0)
(-0.970026 -8.53206e-06 0)
(-0.965639 -8.41655e-06 0)
(-0.961264 -8.30241e-06 0)
(-0.956902 -8.18962e-06 0)
(-0.952552 -8.07818e-06 0)
(-0.948215 -7.96807e-06 0)
(-0.94389 -7.85928e-06 0)
(-0.939578 -7.7518e-06 0)
(-0.93528 -7.64561e-06 0)
(-0.930993 -7.54071e-06 0)
(-0.92672 -7.43709e-06 0)
(-0.92246 -7.33473e-06 0)
(-0.918213 -7.23362e-06 0)
(-0.913979 -7.13375e-06 0)
(-0.909758 -7.0351e-06 0)
(-0.90555 -6.93768e-06 0)
(-0.901355 -6.84145e-06 0)
(-0.897174 -6.74642e-06 0)
(-0.893006 -6.65257e-06 0)
(-0.888851 -6.55989e-06 0)
(-0.88471 -6.46836e-06 0)
(-0.880582 -6.37799e-06 0)
(-0.876468 -6.28874e-06 0)
(-0.872367 -6.20063e-06 0)
(-0.86828 -6.11362e-06 0)
(-0.864206 -6.02772e-06 0)
(-0.860146 -5.94291e-06 0)
(-0.8561 -5.85917e-06 0)
(-0.852067 -5.77651e-06 0)
(-0.848048 -5.6949e-06 0)
(-0.844043 -5.61433e-06 0)
(-0.840051 -5.53481e-06 0)
(-0.836074 -5.4563e-06 0)
(-0.83211 -5.37881e-06 0)
(-0.82816 -5.30232e-06 0)
(-0.824224 -5.22683e-06 0)
(-0.820302 -5.15231e-06 0)
(-0.816394 -5.07876e-06 0)
(-0.812499 -5.00618e-06 0)
(-0.808619 -4.93454e-06 0)
(-0.804753 -4.86384e-06 0)
(-0.800901 -4.79407e-06 0)
(-0.797062 -4.72522e-06 0)
(-0.793238 -4.65727e-06 0)
(-0.789428 -4.59022e-06 0)
(-0.785632 -4.52406e-06 0)
(-0.78185 -4.45877e-06 0)
(-0.778082 -4.39434e-06 0)
(-0.774329 -4.33076e-06 0)
(-0.770589 -4.26803e-06 0)
(-0.766864 -4.20612e-06 0)
(-0.763152 -4.14498e-06 0)
(-0.759455 -4.08472e-06 0)
(-0.755773 -4.02517e-06 0)
(-0.752104 -3.96502e-06 0)
(-0.748452 -3.90961e-06 0)
(-0.744807 -3.85685e-06 0)
(-0.740771 -3.78876e-06 0)
(-0.736394 -3.71676e-06 0)
(-0.732096 -3.65405e-06 0)
(-0.727868 -3.59359e-06 0)
(-0.723711 -3.53271e-06 0)
(-0.719624 -3.47303e-06 0)
(-0.715607 -3.41488e-06 0)
(-0.711656 -3.35829e-06 0)
(-0.707771 -3.3032e-06 0)
(-0.703949 -3.24956e-06 0)
(-0.700188 -3.19733e-06 0)
(-0.696488 -3.14647e-06 0)
(-0.692847 -3.09692e-06 0)
(-0.689262 -3.04865e-06 0)
(-0.685734 -3.00159e-06 0)
(-0.682259 -2.95571e-06 0)
(-0.678837 -2.91097e-06 0)
(-0.675467 -2.86733e-06 0)
(-0.672147 -2.82475e-06 0)
(-0.668877 -2.78318e-06 0)
(-0.665654 -2.74261e-06 0)
(-0.662478 -2.70298e-06 0)
(-0.659348 -2.66428e-06 0)
(-0.656262 -2.62647e-06 0)
(-0.65322 -2.58952e-06 0)
(-0.650221 -2.5534e-06 0)
(-0.647264 -2.51809e-06 0)
(-0.644347 -2.48355e-06 0)
(-0.64147 -2.44978e-06 0)
(-0.638632 -2.41673e-06 0)
(-0.635833 -2.38439e-06 0)
(-0.63307 -2.35274e-06 0)
(-0.630345 -2.32176e-06 0)
(-0.627655 -2.29142e-06 0)
(-0.625 -2.26171e-06 0)
(-0.62238 -2.2326e-06 0)
(-0.619793 -2.20409e-06 0)
(-0.617239 -2.17615e-06 0)
(-0.614717 -2.14876e-06 0)
(-0.612228 -2.12192e-06 0)
(-0.609769 -2.0956e-06 0)
(-0.60734 -2.06979e-06 0)
(-0.604942 -2.04447e-06 0)
(-0.602573 -2.01964e-06 0)
(-0.600232 -1.99528e-06 0)
(-0.59792 -1.97138e-06 0)
(-0.595636 -1.94792e-06 0)
(-0.593378 -1.92489e-06 0)
(-0.591147 -1.90229e-06 0)
(-0.588943 -1.8801e-06 0)
(-0.586764 -1.85831e-06 0)
(-0.58461 -1.8369e-06 0)
(-0.582482 -1.81588e-06 0)
(-0.580377 -1.79523e-06 0)
(-0.578297 -1.77495e-06 0)
(-0.576239 -1.75502e-06 0)
(-0.574206 -1.73543e-06 0)
(-0.572194 -1.71618e-06 0)
(-0.570205 -1.69726e-06 0)
(-0.568238 -1.67867e-06 0)
(-0.566293 -1.66039e-06 0)
(-0.564369 -1.64242e-06 0)
(-0.562465 -1.62475e-06 0)
(-0.560582 -1.60738e-06 0)
(-0.558719 -1.5903e-06 0)
(-0.556876 -1.57351e-06 0)
(-0.555053 -1.557e-06 0)
(-0.553248 -1.54076e-06 0)
(-0.551463 -1.5248e-06 0)
(-0.549696 -1.50911e-06 0)
(-0.547947 -1.49368e-06 0)
(-0.546216 -1.47852e-06 0)
(-0.544502 -1.46363e-06 0)
(-0.542806 -1.449e-06 0)
(-0.541127 -1.43463e-06 0)
(-0.539465 -1.42053e-06 0)
(-0.537818 -1.4067e-06 0)
(-0.536188 -1.39315e-06 0)
(-0.534574 -1.37989e-06 0)
(-0.532975 -1.36694e-06 0)
(-0.531391 -1.35432e-06 0)
(-0.529821 -1.34207e-06 0)
(-0.528266 -1.33023e-06 0)
(-0.526724 -1.31887e-06 0)
(-0.525195 -1.30807e-06 0)
(-0.523679 -1.2983e-06 0)
(-0.522173 -1.28877e-06 0)
(-0.520679 -1.28041e-06 0)
(-0.519193 -1.2825e-06 0)
(-0.517696 -1.26557e-06 0)
(-0.516254 -1.21705e-06 0)
(-0.514852 -1.63357e-06 0)
(-0.512423 -6.19333e-07 0)
(-0.513823 -5.58929e-07 0)
(-0.509662 -2.82349e-06 0)
)
;
    }
    symmetry
    {
        type            symmetryPlane;
    }
    frontAndBack
    {
        type            empty;
    }
}


// ************************************************************************* //
