/*--------------------------------*- C++ -*----------------------------------*\
| =========                 |                                                 |
| \\      /  F ield         | OpenFOAM: The Open Source CFD Toolbox           |
|  \\    /   O peration     | Version:  v2012                                 |
|   \\  /    A nd           | Website:  www.openfoam.com                      |
|    \\/     M anipulation  |                                                 |
\*---------------------------------------------------------------------------*/
FoamFile
{
    version     2.0;
    format      ascii;
    class       volScalarField;
    location    "6";
    object      yPlus;
}
// * * * * * * * * * * * * * * * * * * * * * * * * * * * * * * * * * * * * * //

dimensions      [0 0 0 0 0 0 0];


internalField   uniform 0;

boundaryField
{
    inlet
    {
        type            calculated;
        value           uniform 0;
    }
    outlet
    {
        type            calculated;
        value           uniform 0;
    }
    topWall
    {
        type            calculated;
        value           nonuniform List<scalar> 
545
(
0.0451558
0.0778621
0.0998859
0.117406
0.132231
0.145194
0.156763
0.167234
0.176808
0.185628
0.193803
0.201417
0.208537
0.215217
0.221502
0.227429
0.233031
0.238335
0.243364
0.248141
0.252684
0.257009
0.261131
0.265063
0.268817
0.272405
0.275837
0.27912
0.282265
0.285278
0.288167
0.290938
0.293598
0.296152
0.298605
0.300963
0.30323
0.30541
0.307508
0.309527
0.311471
0.313344
0.315148
0.316887
0.318563
0.32018
0.321739
0.323243
0.324695
0.326096
0.327449
0.328755
0.330017
0.331236
0.332414
0.333553
0.334654
0.335718
0.336748
0.337743
0.338706
0.339638
0.34054
0.341413
0.342258
0.343076
0.343868
0.344635
0.345378
0.346098
0.346795
0.347471
0.348117
0.348742
0.349361
0.349974
0.350582
0.351185
0.351782
0.352374
0.35296
0.353542
0.354118
0.354689
0.355256
0.355817
0.356373
0.356924
0.357471
0.358013
0.35855
0.359082
0.35961
0.360133
0.360651
0.361165
0.361628
0.362042
0.362455
0.362868
0.36328
0.363692
0.364104
0.364515
0.364925
0.365335
0.365745
0.366155
0.366563
0.366972
0.36738
0.367787
0.368194
0.368601
0.369007
0.369412
0.369817
0.370222
0.370626
0.37103
0.371433
0.371835
0.372238
0.372639
0.37304
0.373441
0.373841
0.37424
0.374639
0.375037
0.375435
0.375832
0.376229
0.376625
0.37702
0.377415
0.37781
0.378203
0.378597
0.378989
0.379381
0.379772
0.380163
0.380553
0.380943
0.381332
0.38172
0.382107
0.382494
0.382881
0.383266
0.383651
0.384035
0.384419
0.384802
0.385184
0.385566
0.385947
0.386327
0.386706
0.387085
0.387463
0.38784
0.388217
0.388593
0.388968
0.389342
0.389716
0.390088
0.39046
0.390832
0.391202
0.391572
0.391941
0.392309
0.392676
0.393043
0.393409
0.393774
0.394138
0.394501
0.394863
0.395225
0.395586
0.395945
0.396304
0.396663
0.39702
0.397376
0.397732
0.398086
0.39844
0.398793
0.399145
0.399496
0.399846
0.400195
0.400543
0.400891
0.401237
0.401582
0.401927
0.40227
0.402613
0.402954
0.403295
0.403634
0.403973
0.40431
0.404647
0.404982
0.405317
0.40565
0.405983
0.406314
0.406644
0.406973
0.407302
0.407629
0.407955
0.40828
0.408604
0.408926
0.409248
0.409569
0.409888
0.410206
0.410523
0.410839
0.411154
0.411468
0.411781
0.412092
0.412402
0.412711
0.413019
0.413326
0.413631
0.413936
0.414239
0.414541
0.414841
0.415141
0.415439
0.415736
0.416032
0.416326
0.416619
0.416911
0.417202
0.417491
0.417779
0.418066
0.418351
0.418635
0.418918
0.419199
0.419479
0.419758
0.420036
0.420312
0.420586
0.42086
0.421132
0.421402
0.421671
0.421939
0.422206
0.422471
0.42272
0.422954
0.423189
0.423424
0.423661
0.423899
0.424137
0.424376
0.424616
0.424857
0.425098
0.42534
0.425582
0.425825
0.426069
0.426314
0.426558
0.426804
0.427049
0.427296
0.427542
0.427789
0.428036
0.428283
0.428531
0.428779
0.429027
0.429275
0.429523
0.429771
0.430019
0.430266
0.430514
0.430762
0.431009
0.431256
0.431502
0.431748
0.431994
0.432239
0.432483
0.432727
0.43297
0.433212
0.433453
0.433693
0.433933
0.434171
0.434408
0.434644
0.434878
0.435111
0.435343
0.435573
0.435801
0.436028
0.436253
0.436476
0.436697
0.436916
0.437133
0.437348
0.43756
0.43777
0.437977
0.438182
0.438384
0.438583
0.438779
0.438972
0.439162
0.439349
0.439532
0.439711
0.439888
0.44006
0.440228
0.440393
0.440553
0.44071
0.440862
0.441009
0.441152
0.44129
0.441423
0.441552
0.441675
0.441793
0.441906
0.442013
0.442114
0.44221
0.4423
0.442383
0.442461
0.442532
0.442597
0.442655
0.442706
0.44275
0.442788
0.442818
0.44284
0.442856
0.442863
0.442863
0.442855
0.442838
0.442814
0.442781
0.442739
0.442689
0.44263
0.442562
0.442485
0.442399
0.442303
0.442198
0.442083
0.441958
0.441824
0.441679
0.441524
0.441359
0.441183
0.440996
0.440799
0.440591
0.440372
0.440142
0.439901
0.439648
0.439384
0.439108
0.438821
0.438522
0.438211
0.437889
0.437554
0.437207
0.436848
0.436477
0.436094
0.435698
0.43529
0.434869
0.434436
0.433991
0.433532
0.433062
0.432578
0.432082
0.431573
0.431052
0.430518
0.429972
0.429412
0.428841
0.428256
0.42766
0.42705
0.426429
0.425795
0.425148
0.42449
0.423819
0.423137
0.422442
0.421736
0.421018
0.420289
0.419548
0.418795
0.418032
0.417258
0.416473
0.415677
0.414871
0.414055
0.413228
0.412392
0.411451
0.41041
0.40937
0.408331
0.407293
0.406257
0.405223
0.404193
0.403166
0.402143
0.401124
0.40011
0.399101
0.398098
0.3971
0.396109
0.395124
0.394146
0.393175
0.392211
0.391255
0.390306
0.389366
0.388434
0.38751
0.386596
0.38569
0.384793
0.383906
0.383028
0.38216
0.381302
0.380453
0.379615
0.378788
0.37797
0.377164
0.376368
0.375583
0.374809
0.374046
0.373294
0.372554
0.371825
0.371108
0.370403
0.369709
0.369028
0.368358
0.367701
0.367056
0.366423
0.365803
0.365196
0.364601
0.36402
0.363451
0.362895
0.362352
0.361823
0.361307
0.360804
0.360315
0.35984
0.359378
0.35893
0.358496
0.358076
0.35767
0.357279
0.356901
0.356538
0.35619
0.355856
0.355536
0.355232
0.354942
0.354666
0.354406
0.354161
0.353931
0.353716
0.353516
0.353331
0.353161
0.353007
0.352868
0.352745
0.352637
0.352544
0.352467
0.352405
0.352358
0.35233
0.352307
)
;
    }
    bottomWall
    {
        type            calculated;
        value           nonuniform List<scalar> 
449
(
4.58185
3.01384
2.53621
2.321
2.18431
2.08431
2.00231
1.93341
1.87497
1.82441
1.77984
1.74007
1.70427
1.67177
1.64207
1.61476
1.58951
1.56605
1.54416
1.52368
1.50443
1.48629
1.46915
1.45292
1.4375
1.42284
1.40885
1.3955
1.38272
1.37048
1.35873
1.34744
1.33658
1.32612
1.31603
1.30629
1.29688
1.28777
1.27895
1.27041
1.26213
1.25409
1.24628
1.23869
1.2313
1.22412
1.21712
1.21031
1.20366
1.19718
1.19085
1.18467
1.17864
1.17274
1.16697
1.16133
1.15581
1.15041
1.14511
1.13993
1.13485
1.12986
1.12498
1.12018
1.11548
1.11086
1.10632
1.10187
1.09749
1.09319
1.08896
1.08481
1.08072
1.0767
1.07274
1.06884
1.06501
1.06123
1.05752
1.05385
1.05025
1.04669
1.04319
1.03973
1.03632
1.03297
1.02965
1.02638
1.02316
1.01998
1.01684
1.01374
1.01068
1.00765
1.00467
1.00172
0.998811
0.995935
0.993093
0.990284
0.987508
0.984764
0.982052
0.97937
0.976718
0.974096
0.971503
0.968937
0.966399
0.963889
0.961404
0.958946
0.956513
0.954105
0.951721
0.949362
0.947025
0.944712
0.942422
0.940154
0.937907
0.935682
0.933478
0.931294
0.929131
0.926988
0.924864
0.922759
0.920674
0.918606
0.916557
0.914526
0.912513
0.910516
0.908537
0.906575
0.904629
0.902699
0.900785
0.898887
0.897004
0.895137
0.893284
0.891446
0.889623
0.887814
0.886018
0.884237
0.88247
0.880715
0.878975
0.877247
0.875532
0.873829
0.872139
0.870462
0.868796
0.867142
0.865501
0.86387
0.862252
0.860644
0.859048
0.857463
0.855888
0.854325
0.852771
0.851228
0.849696
0.848173
0.846661
0.845158
0.843666
0.842268
0.840952
0.83963
0.838305
0.836978
0.835646
0.834311
0.832972
0.831629
0.830283
0.828933
0.827579
0.826223
0.824862
0.823498
0.822131
0.82076
0.819386
0.818008
0.816628
0.815244
0.813857
0.812466
0.811073
0.809677
0.808277
0.806875
0.805469
0.804061
0.80265
0.801236
0.799819
0.798399
0.796977
0.795552
0.794125
0.792695
0.791262
0.789827
0.788389
0.786949
0.785507
0.784062
0.782615
0.781166
0.779715
0.778261
0.776805
0.775348
0.773888
0.772426
0.770962
0.769497
0.768029
0.76656
0.765089
0.763616
0.762142
0.760665
0.759188
0.757708
0.756228
0.754745
0.753261
0.751776
0.75029
0.748802
0.747313
0.745823
0.744331
0.742838
0.741345
0.73985
0.738354
0.736857
0.735359
0.733861
0.732361
0.730861
0.72936
0.727858
0.726355
0.724852
0.723348
0.721843
0.720338
0.718833
0.717327
0.71582
0.714313
0.712806
0.711298
0.70979
0.708282
0.706774
0.705265
0.703757
0.702248
0.700739
0.69923
0.697722
0.696213
0.694704
0.693195
0.691687
0.690179
0.688671
0.687163
0.685655
0.684148
0.682641
0.681135
0.679629
0.678123
0.676618
0.675113
0.673609
0.672106
0.670603
0.6691
0.667599
0.666098
0.664598
0.663098
0.6616
0.660102
0.658605
0.657109
0.655614
0.654119
0.652626
0.651134
0.649642
0.648152
0.646663
0.645175
0.643688
0.642202
0.640717
0.639234
0.637752
0.636271
0.634791
0.633313
0.631836
0.63036
0.628886
0.627413
0.625941
0.624471
0.623002
0.621535
0.62007
0.618606
0.617143
0.615682
0.614223
0.612765
0.611309
0.609854
0.608402
0.606951
0.605501
0.604054
0.602608
0.601164
0.599722
0.598281
0.596843
0.595406
0.593971
0.592538
0.591107
0.589678
0.588251
0.586826
0.585403
0.583982
0.582563
0.581147
0.57973
0.578157
0.576446
0.574761
0.573099
0.57146
0.569845
0.568252
0.566681
0.565132
0.563604
0.562097
0.56061
0.559142
0.557694
0.556264
0.554853
0.55346
0.552085
0.550726
0.549385
0.54806
0.546751
0.545457
0.54418
0.542917
0.541669
0.540436
0.539217
0.538012
0.53682
0.535643
0.534478
0.533326
0.532187
0.53106
0.529946
0.528843
0.527752
0.526673
0.525606
0.524549
0.523504
0.522469
0.521445
0.520431
0.519428
0.518435
0.517451
0.516478
0.515514
0.514559
0.513614
0.512678
0.511751
0.510833
0.509924
0.509023
0.508131
0.507247
0.506371
0.505503
0.504644
0.503792
0.502948
0.502112
0.501283
0.500462
0.499647
0.498841
0.498041
0.497248
0.496462
0.495682
0.49491
0.494144
0.493384
0.492631
0.491884
0.491142
0.490407
0.489678
0.488954
0.488236
0.487523
0.486815
0.486112
0.485412
0.484718
0.484025
0.483327
0.482653
0.481997
0.480859
0.481516
0.479562
)
;
    }
    symmetry
    {
        type            symmetryPlane;
    }
    frontAndBack
    {
        type            empty;
    }
}


// ************************************************************************* //
