/*--------------------------------*- C++ -*----------------------------------*\
| =========                 |                                                 |
| \\      /  F ield         | OpenFOAM: The Open Source CFD Toolbox           |
|  \\    /   O peration     | Version:  v2012                                 |
|   \\  /    A nd           | Website:  www.openfoam.com                      |
|    \\/     M anipulation  |                                                 |
\*---------------------------------------------------------------------------*/
FoamFile
{
    version     2.0;
    format      ascii;
    class       volScalarField;
    location    "20";
    object      nut;
}
// * * * * * * * * * * * * * * * * * * * * * * * * * * * * * * * * * * * * * //

dimensions      [0 2 -1 0 0 0 0];


internalField   nonuniform List<scalar> 
209825
(
1.23907e-07
1.15911e-07
1.0797e-07
1.01854e-07
9.72754e-08
9.37926e-08
9.10442e-08
8.88451e-08
8.70246e-08
8.55199e-08
8.42316e-08
8.31431e-08
8.21899e-08
8.13705e-08
8.06378e-08
8.00059e-08
7.94302e-08
7.89314e-08
7.84687e-08
7.80668e-08
7.76889e-08
7.73597e-08
7.7045e-08
7.67743e-08
7.65123e-08
7.62864e-08
7.60638e-08
7.58753e-08
7.56896e-08
7.55262e-08
7.53672e-08
7.52335e-08
7.50996e-08
7.49868e-08
7.48701e-08
7.47682e-08
7.46679e-08
7.45841e-08
7.44954e-08
7.44236e-08
7.43462e-08
7.42814e-08
7.42162e-08
7.41603e-08
7.4101e-08
7.40534e-08
7.40079e-08
7.39668e-08
7.39186e-08
7.38852e-08
7.38483e-08
7.38032e-08
7.37695e-08
7.37518e-08
7.37161e-08
7.36953e-08
7.36652e-08
7.36348e-08
7.3594e-08
7.35639e-08
7.35593e-08
7.35518e-08
7.3517e-08
7.3518e-08
7.35086e-08
7.34964e-08
7.35107e-08
7.35155e-08
7.35267e-08
7.35575e-08
7.3568e-08
7.3578e-08
7.35905e-08
7.36131e-08
7.36268e-08
7.36637e-08
7.36819e-08
7.37298e-08
7.37488e-08
7.37946e-08
7.38152e-08
7.38738e-08
7.38969e-08
7.39718e-08
7.40037e-08
7.40873e-08
7.41271e-08
7.42139e-08
7.42644e-08
7.43711e-08
7.44243e-08
7.45716e-08
7.46074e-08
7.52268e-08
3.10333e-06
1.7394e-08
1.23907e-07
1.15912e-07
1.07972e-07
1.01856e-07
9.7277e-08
9.37939e-08
9.10453e-08
8.8846e-08
8.70253e-08
8.55203e-08
8.42318e-08
8.31432e-08
8.21899e-08
8.13704e-08
8.06376e-08
8.00055e-08
7.94298e-08
7.89309e-08
7.84682e-08
7.80661e-08
7.76882e-08
7.73589e-08
7.70442e-08
7.67734e-08
7.65113e-08
7.62855e-08
7.60628e-08
7.58742e-08
7.56885e-08
7.55251e-08
7.5366e-08
7.52323e-08
7.50984e-08
7.49856e-08
7.48688e-08
7.4767e-08
7.46666e-08
7.45828e-08
7.44941e-08
7.44222e-08
7.43449e-08
7.428e-08
7.42148e-08
7.41589e-08
7.40996e-08
7.4052e-08
7.40065e-08
7.39654e-08
7.39171e-08
7.38838e-08
7.38469e-08
7.38017e-08
7.3768e-08
7.37503e-08
7.37146e-08
7.36938e-08
7.36637e-08
7.36332e-08
7.35924e-08
7.35624e-08
7.35578e-08
7.35503e-08
7.35154e-08
7.35165e-08
7.3507e-08
7.34949e-08
7.35092e-08
7.35139e-08
7.35251e-08
7.35559e-08
7.35664e-08
7.35764e-08
7.35889e-08
7.36115e-08
7.36251e-08
7.3662e-08
7.36803e-08
7.37281e-08
7.37472e-08
7.3793e-08
7.38136e-08
7.38722e-08
7.38953e-08
7.39701e-08
7.40021e-08
7.40857e-08
7.41254e-08
7.42122e-08
7.42627e-08
7.43694e-08
7.44226e-08
7.45699e-08
7.46057e-08
7.52259e-08
3.104e-06
1.75433e-08
1.23909e-07
1.15919e-07
1.0798e-07
1.01863e-07
9.72834e-08
9.37992e-08
9.10494e-08
8.88492e-08
8.70276e-08
8.55219e-08
8.42327e-08
8.31436e-08
8.21897e-08
8.13697e-08
8.06365e-08
8.00041e-08
7.9428e-08
7.89288e-08
7.84658e-08
7.80634e-08
7.76853e-08
7.73559e-08
7.70409e-08
7.677e-08
7.65077e-08
7.62817e-08
7.60588e-08
7.58701e-08
7.56843e-08
7.55208e-08
7.53616e-08
7.52278e-08
7.50938e-08
7.49808e-08
7.4864e-08
7.47621e-08
7.46617e-08
7.45778e-08
7.4489e-08
7.44171e-08
7.43397e-08
7.42748e-08
7.42095e-08
7.41536e-08
7.40942e-08
7.40465e-08
7.4001e-08
7.39599e-08
7.39115e-08
7.38782e-08
7.38412e-08
7.37961e-08
7.37623e-08
7.37446e-08
7.37089e-08
7.36881e-08
7.36579e-08
7.36275e-08
7.35867e-08
7.35566e-08
7.35519e-08
7.35444e-08
7.35095e-08
7.35106e-08
7.3501e-08
7.34889e-08
7.35031e-08
7.35079e-08
7.3519e-08
7.35498e-08
7.35603e-08
7.35703e-08
7.35828e-08
7.36054e-08
7.3619e-08
7.36558e-08
7.36741e-08
7.37219e-08
7.37409e-08
7.37867e-08
7.38073e-08
7.38659e-08
7.38889e-08
7.39638e-08
7.39957e-08
7.40792e-08
7.4119e-08
7.42057e-08
7.42562e-08
7.43629e-08
7.4416e-08
7.45634e-08
7.4599e-08
7.5221e-08
3.10559e-06
1.77571e-08
1.23912e-07
1.1593e-07
1.07993e-07
1.01876e-07
9.72942e-08
9.3808e-08
9.10564e-08
8.88545e-08
8.70315e-08
8.55246e-08
8.42343e-08
8.31441e-08
8.21894e-08
8.13687e-08
8.06347e-08
8.00017e-08
7.9425e-08
7.89253e-08
7.84618e-08
7.80591e-08
7.76806e-08
7.73508e-08
7.70355e-08
7.67642e-08
7.65017e-08
7.62754e-08
7.60523e-08
7.58634e-08
7.56774e-08
7.55137e-08
7.53543e-08
7.52203e-08
7.50861e-08
7.49731e-08
7.48561e-08
7.4754e-08
7.46535e-08
7.45695e-08
7.44806e-08
7.44086e-08
7.4331e-08
7.42661e-08
7.42007e-08
7.41447e-08
7.40852e-08
7.40375e-08
7.39919e-08
7.39507e-08
7.39023e-08
7.38689e-08
7.38319e-08
7.37868e-08
7.37529e-08
7.37351e-08
7.36994e-08
7.36786e-08
7.36484e-08
7.36179e-08
7.35771e-08
7.35469e-08
7.35423e-08
7.35347e-08
7.34997e-08
7.35008e-08
7.34912e-08
7.34789e-08
7.34931e-08
7.34979e-08
7.35089e-08
7.35397e-08
7.35502e-08
7.35602e-08
7.35726e-08
7.35952e-08
7.36087e-08
7.36456e-08
7.36638e-08
7.37115e-08
7.37306e-08
7.37763e-08
7.37968e-08
7.38554e-08
7.38784e-08
7.39532e-08
7.39851e-08
7.40685e-08
7.41083e-08
7.4195e-08
7.42455e-08
7.4352e-08
7.44051e-08
7.45524e-08
7.45878e-08
7.52127e-08
3.10814e-06
1.80131e-08
1.23916e-07
1.15945e-07
1.08012e-07
1.01894e-07
9.73094e-08
9.38205e-08
9.10664e-08
8.88622e-08
8.70371e-08
8.55284e-08
8.42366e-08
8.31451e-08
8.21891e-08
8.13672e-08
8.06323e-08
7.99984e-08
7.94209e-08
7.89206e-08
7.84564e-08
7.80531e-08
7.7674e-08
7.73437e-08
7.70279e-08
7.67563e-08
7.64933e-08
7.62667e-08
7.60433e-08
7.5854e-08
7.56677e-08
7.55037e-08
7.53441e-08
7.52098e-08
7.50754e-08
7.49622e-08
7.4845e-08
7.47428e-08
7.4642e-08
7.45579e-08
7.44688e-08
7.43966e-08
7.4319e-08
7.42539e-08
7.41884e-08
7.41323e-08
7.40727e-08
7.40249e-08
7.39792e-08
7.39379e-08
7.38894e-08
7.3856e-08
7.38189e-08
7.37737e-08
7.37398e-08
7.37219e-08
7.36861e-08
7.36653e-08
7.3635e-08
7.36045e-08
7.35637e-08
7.35334e-08
7.35287e-08
7.35211e-08
7.3486e-08
7.3487e-08
7.34773e-08
7.3465e-08
7.34791e-08
7.34839e-08
7.34948e-08
7.35255e-08
7.3536e-08
7.3546e-08
7.35584e-08
7.35809e-08
7.35944e-08
7.36312e-08
7.36493e-08
7.3697e-08
7.3716e-08
7.37618e-08
7.37822e-08
7.38407e-08
7.38637e-08
7.39383e-08
7.39702e-08
7.40536e-08
7.40933e-08
7.41799e-08
7.42303e-08
7.43368e-08
7.43898e-08
7.45371e-08
7.4572e-08
7.52009e-08
3.11168e-06
1.83028e-08
1.23921e-07
1.15966e-07
1.08037e-07
1.01917e-07
9.73293e-08
9.38368e-08
9.10793e-08
8.88722e-08
8.70445e-08
8.55335e-08
8.42397e-08
8.31463e-08
8.21888e-08
8.13655e-08
8.06293e-08
7.99942e-08
7.94157e-08
7.89144e-08
7.84494e-08
7.80453e-08
7.76655e-08
7.73346e-08
7.70182e-08
7.6746e-08
7.64825e-08
7.62554e-08
7.60316e-08
7.58419e-08
7.56552e-08
7.54909e-08
7.53309e-08
7.51963e-08
7.50616e-08
7.49481e-08
7.48307e-08
7.47282e-08
7.46272e-08
7.45429e-08
7.44536e-08
7.43813e-08
7.43034e-08
7.42382e-08
7.41725e-08
7.41162e-08
7.40565e-08
7.40086e-08
7.39627e-08
7.39214e-08
7.38728e-08
7.38392e-08
7.38021e-08
7.37568e-08
7.37228e-08
7.37049e-08
7.3669e-08
7.36481e-08
7.36177e-08
7.35872e-08
7.35464e-08
7.3516e-08
7.35111e-08
7.35035e-08
7.34683e-08
7.34693e-08
7.34594e-08
7.3447e-08
7.3461e-08
7.34658e-08
7.34766e-08
7.35071e-08
7.35177e-08
7.35277e-08
7.354e-08
7.35625e-08
7.35759e-08
7.36126e-08
7.36306e-08
7.36782e-08
7.36972e-08
7.37429e-08
7.37633e-08
7.38217e-08
7.38447e-08
7.39191e-08
7.3951e-08
7.40342e-08
7.4074e-08
7.41604e-08
7.42108e-08
7.43171e-08
7.43701e-08
7.45173e-08
7.45517e-08
7.51856e-08
3.11629e-06
1.86234e-08
1.23927e-07
1.15991e-07
1.08068e-07
1.01946e-07
9.73539e-08
9.38569e-08
9.10954e-08
8.88847e-08
8.70538e-08
8.55399e-08
8.42435e-08
8.3148e-08
8.21885e-08
8.13635e-08
8.06257e-08
7.99892e-08
7.94094e-08
7.89069e-08
7.84408e-08
7.80358e-08
7.76551e-08
7.73234e-08
7.70063e-08
7.67334e-08
7.64693e-08
7.62416e-08
7.60172e-08
7.58271e-08
7.56399e-08
7.54751e-08
7.53147e-08
7.51798e-08
7.50447e-08
7.49308e-08
7.48131e-08
7.47104e-08
7.46091e-08
7.45245e-08
7.44349e-08
7.43624e-08
7.42843e-08
7.42188e-08
7.41529e-08
7.40965e-08
7.40366e-08
7.39885e-08
7.39425e-08
7.39011e-08
7.38523e-08
7.38186e-08
7.37814e-08
7.37361e-08
7.37019e-08
7.36839e-08
7.36479e-08
7.3627e-08
7.35964e-08
7.35659e-08
7.35251e-08
7.34946e-08
7.34896e-08
7.34819e-08
7.34465e-08
7.34474e-08
7.34374e-08
7.34248e-08
7.34388e-08
7.34435e-08
7.34541e-08
7.34846e-08
7.34951e-08
7.35052e-08
7.35174e-08
7.35398e-08
7.35531e-08
7.35897e-08
7.36076e-08
7.36551e-08
7.36741e-08
7.37197e-08
7.37401e-08
7.37984e-08
7.38213e-08
7.38955e-08
7.39274e-08
7.40104e-08
7.40501e-08
7.41364e-08
7.41867e-08
7.42929e-08
7.43457e-08
7.44929e-08
7.45267e-08
7.51669e-08
3.12201e-06
1.89755e-08
1.23935e-07
1.16021e-07
1.08104e-07
1.0198e-07
9.73832e-08
9.38811e-08
9.11147e-08
8.88996e-08
8.70649e-08
8.55476e-08
8.42482e-08
8.31501e-08
8.21882e-08
8.13611e-08
8.06214e-08
7.99833e-08
7.94019e-08
7.88981e-08
7.84307e-08
7.80245e-08
7.76428e-08
7.73101e-08
7.69921e-08
7.67184e-08
7.64536e-08
7.62252e-08
7.60002e-08
7.58094e-08
7.56217e-08
7.54564e-08
7.52954e-08
7.51601e-08
7.50245e-08
7.49103e-08
7.47921e-08
7.46891e-08
7.45874e-08
7.45025e-08
7.44127e-08
7.43398e-08
7.42615e-08
7.41958e-08
7.41297e-08
7.40731e-08
7.40129e-08
7.39646e-08
7.39184e-08
7.38769e-08
7.38279e-08
7.37941e-08
7.37568e-08
7.37114e-08
7.3677e-08
7.36588e-08
7.36228e-08
7.36018e-08
7.35711e-08
7.35405e-08
7.34997e-08
7.3469e-08
7.34639e-08
7.34562e-08
7.34206e-08
7.34214e-08
7.34112e-08
7.33984e-08
7.34122e-08
7.3417e-08
7.34274e-08
7.34577e-08
7.34683e-08
7.34783e-08
7.34904e-08
7.35128e-08
7.35259e-08
7.35624e-08
7.35802e-08
7.36276e-08
7.36465e-08
7.36921e-08
7.37123e-08
7.37705e-08
7.37934e-08
7.38673e-08
7.38992e-08
7.3982e-08
7.40217e-08
7.41078e-08
7.4158e-08
7.4264e-08
7.43167e-08
7.44638e-08
7.44969e-08
7.51445e-08
3.12889e-06
1.93619e-08
1.23943e-07
1.16055e-07
1.08147e-07
1.0202e-07
9.74176e-08
9.39094e-08
9.11373e-08
8.89172e-08
8.70779e-08
8.55567e-08
8.42539e-08
8.31526e-08
8.2188e-08
8.13584e-08
8.06166e-08
7.99764e-08
7.93933e-08
7.88879e-08
7.8419e-08
7.80115e-08
7.76285e-08
7.72948e-08
7.69757e-08
7.67011e-08
7.64353e-08
7.62062e-08
7.59803e-08
7.57889e-08
7.56005e-08
7.54346e-08
7.52731e-08
7.51371e-08
7.50011e-08
7.48863e-08
7.47678e-08
7.46643e-08
7.45623e-08
7.4477e-08
7.43868e-08
7.43136e-08
7.4235e-08
7.4169e-08
7.41026e-08
7.40458e-08
7.39853e-08
7.39368e-08
7.38904e-08
7.38487e-08
7.37995e-08
7.37655e-08
7.37281e-08
7.36826e-08
7.36481e-08
7.36297e-08
7.35936e-08
7.35725e-08
7.35416e-08
7.3511e-08
7.34702e-08
7.34393e-08
7.3434e-08
7.34262e-08
7.33904e-08
7.33911e-08
7.33806e-08
7.33677e-08
7.33813e-08
7.33862e-08
7.33963e-08
7.34264e-08
7.3437e-08
7.3447e-08
7.3459e-08
7.34813e-08
7.34943e-08
7.35306e-08
7.35483e-08
7.35955e-08
7.36144e-08
7.36599e-08
7.368e-08
7.37381e-08
7.37609e-08
7.38345e-08
7.38664e-08
7.39489e-08
7.39886e-08
7.40745e-08
7.41245e-08
7.42303e-08
7.42829e-08
7.44299e-08
7.44622e-08
7.51185e-08
3.13696e-06
1.97878e-08
1.23953e-07
1.16095e-07
1.08195e-07
1.02066e-07
9.74569e-08
9.39418e-08
9.11633e-08
8.89374e-08
8.7093e-08
8.55673e-08
8.42604e-08
8.31556e-08
8.21878e-08
8.13555e-08
8.06111e-08
7.99687e-08
7.93835e-08
7.88762e-08
7.84057e-08
7.79967e-08
7.76123e-08
7.72773e-08
7.6957e-08
7.66813e-08
7.64145e-08
7.61844e-08
7.59577e-08
7.57654e-08
7.55763e-08
7.54097e-08
7.52475e-08
7.51109e-08
7.49743e-08
7.4859e-08
7.474e-08
7.46361e-08
7.45335e-08
7.44479e-08
7.43572e-08
7.42837e-08
7.42047e-08
7.41384e-08
7.40716e-08
7.40145e-08
7.39538e-08
7.39051e-08
7.38584e-08
7.38165e-08
7.3767e-08
7.37329e-08
7.36953e-08
7.36498e-08
7.36149e-08
7.35964e-08
7.35602e-08
7.3539e-08
7.35079e-08
7.34772e-08
7.34364e-08
7.34053e-08
7.33997e-08
7.33919e-08
7.33558e-08
7.33564e-08
7.33457e-08
7.33325e-08
7.3346e-08
7.33508e-08
7.33607e-08
7.33906e-08
7.34012e-08
7.34112e-08
7.3423e-08
7.34452e-08
7.3458e-08
7.34942e-08
7.35117e-08
7.35588e-08
7.35777e-08
7.3623e-08
7.36431e-08
7.37009e-08
7.37237e-08
7.37969e-08
7.38288e-08
7.3911e-08
7.39507e-08
7.40363e-08
7.40862e-08
7.41918e-08
7.42442e-08
7.43911e-08
7.44225e-08
7.50889e-08
3.14623e-06
2.02597e-08
1.23964e-07
1.16139e-07
1.0825e-07
1.02117e-07
9.75014e-08
9.39786e-08
9.11928e-08
8.89603e-08
8.71102e-08
8.55794e-08
8.4268e-08
8.31592e-08
8.21878e-08
8.13523e-08
8.06051e-08
7.99601e-08
7.93726e-08
7.88632e-08
7.83908e-08
7.798e-08
7.7594e-08
7.72576e-08
7.69359e-08
7.6659e-08
7.63911e-08
7.61599e-08
7.59322e-08
7.5739e-08
7.5549e-08
7.53817e-08
7.52187e-08
7.50814e-08
7.49441e-08
7.48282e-08
7.47086e-08
7.46042e-08
7.45011e-08
7.4415e-08
7.43238e-08
7.42499e-08
7.41705e-08
7.41038e-08
7.40367e-08
7.39793e-08
7.39182e-08
7.38692e-08
7.38222e-08
7.37801e-08
7.37303e-08
7.3696e-08
7.36583e-08
7.36126e-08
7.35775e-08
7.35588e-08
7.35225e-08
7.35011e-08
7.34698e-08
7.3439e-08
7.33983e-08
7.33669e-08
7.33611e-08
7.33531e-08
7.33168e-08
7.33173e-08
7.33062e-08
7.32929e-08
7.33061e-08
7.3311e-08
7.33204e-08
7.33501e-08
7.33608e-08
7.33708e-08
7.33824e-08
7.34045e-08
7.34171e-08
7.34531e-08
7.34705e-08
7.35174e-08
7.35362e-08
7.35814e-08
7.36013e-08
7.3659e-08
7.36817e-08
7.37545e-08
7.37864e-08
7.38682e-08
7.39079e-08
7.39933e-08
7.4043e-08
7.41483e-08
7.42005e-08
7.43472e-08
7.43776e-08
7.50554e-08
3.15672e-06
2.07855e-08
1.23976e-07
1.16188e-07
1.08311e-07
1.02175e-07
9.75512e-08
9.40198e-08
9.12259e-08
8.89862e-08
8.71295e-08
8.5593e-08
8.42766e-08
8.31633e-08
8.21879e-08
8.13489e-08
8.05985e-08
7.99507e-08
7.93605e-08
7.88488e-08
7.83742e-08
7.79615e-08
7.75737e-08
7.72357e-08
7.69125e-08
7.66342e-08
7.6365e-08
7.61327e-08
7.59038e-08
7.57096e-08
7.55186e-08
7.53505e-08
7.51866e-08
7.50485e-08
7.49104e-08
7.47939e-08
7.46736e-08
7.45686e-08
7.44649e-08
7.43783e-08
7.42866e-08
7.42122e-08
7.41324e-08
7.40653e-08
7.39977e-08
7.394e-08
7.38785e-08
7.38292e-08
7.37818e-08
7.37395e-08
7.36893e-08
7.36549e-08
7.3617e-08
7.35712e-08
7.35358e-08
7.35169e-08
7.34803e-08
7.34588e-08
7.34273e-08
7.33964e-08
7.33557e-08
7.3324e-08
7.33179e-08
7.33099e-08
7.32732e-08
7.32736e-08
7.32622e-08
7.32486e-08
7.32615e-08
7.32664e-08
7.32755e-08
7.3305e-08
7.33156e-08
7.33257e-08
7.33371e-08
7.33591e-08
7.33715e-08
7.34073e-08
7.34244e-08
7.34711e-08
7.34898e-08
7.3535e-08
7.35547e-08
7.36122e-08
7.36347e-08
7.37072e-08
7.3739e-08
7.38204e-08
7.38601e-08
7.39452e-08
7.39947e-08
7.40997e-08
7.41517e-08
7.42983e-08
7.43275e-08
7.50181e-08
3.16839e-06
2.13742e-08
1.23989e-07
1.16242e-07
1.08378e-07
1.02239e-07
9.76065e-08
9.40656e-08
9.12628e-08
8.9015e-08
8.71512e-08
8.56083e-08
8.42863e-08
8.31681e-08
8.21883e-08
8.13454e-08
8.05913e-08
7.99404e-08
7.93473e-08
7.8833e-08
7.8356e-08
7.79412e-08
7.75514e-08
7.72115e-08
7.68867e-08
7.66069e-08
7.63362e-08
7.61026e-08
7.58725e-08
7.56771e-08
7.54851e-08
7.5316e-08
7.51511e-08
7.50122e-08
7.48732e-08
7.47559e-08
7.46349e-08
7.45293e-08
7.44249e-08
7.43377e-08
7.42455e-08
7.41706e-08
7.40902e-08
7.40227e-08
7.39546e-08
7.38965e-08
7.38347e-08
7.37849e-08
7.37372e-08
7.36946e-08
7.36441e-08
7.36094e-08
7.35712e-08
7.35254e-08
7.34896e-08
7.34704e-08
7.34337e-08
7.34121e-08
7.33803e-08
7.33493e-08
7.33086e-08
7.32766e-08
7.32702e-08
7.3262e-08
7.32251e-08
7.32253e-08
7.32134e-08
7.31996e-08
7.32122e-08
7.32172e-08
7.32259e-08
7.3255e-08
7.32657e-08
7.32758e-08
7.32869e-08
7.33088e-08
7.33209e-08
7.33565e-08
7.33735e-08
7.34199e-08
7.34385e-08
7.34835e-08
7.35032e-08
7.35603e-08
7.35828e-08
7.36548e-08
7.36865e-08
7.37676e-08
7.38072e-08
7.3892e-08
7.39413e-08
7.40459e-08
7.40976e-08
7.42441e-08
7.42721e-08
7.49768e-08
3.18118e-06
2.20356e-08
1.24002e-07
1.163e-07
1.08451e-07
1.02309e-07
9.76673e-08
9.41161e-08
9.13035e-08
8.90469e-08
8.71752e-08
8.56254e-08
8.42972e-08
8.31735e-08
8.21889e-08
8.13416e-08
8.05837e-08
7.99292e-08
7.9333e-08
7.88158e-08
7.83362e-08
7.7919e-08
7.7527e-08
7.71852e-08
7.68585e-08
7.6577e-08
7.63047e-08
7.60697e-08
7.58382e-08
7.56416e-08
7.54483e-08
7.52782e-08
7.51122e-08
7.49724e-08
7.48324e-08
7.47143e-08
7.45925e-08
7.44862e-08
7.4381e-08
7.42932e-08
7.42004e-08
7.41249e-08
7.4044e-08
7.39759e-08
7.39073e-08
7.38488e-08
7.37865e-08
7.37364e-08
7.36882e-08
7.36453e-08
7.35944e-08
7.35594e-08
7.35211e-08
7.3475e-08
7.3439e-08
7.34195e-08
7.33826e-08
7.33607e-08
7.33287e-08
7.32976e-08
7.32568e-08
7.32245e-08
7.32178e-08
7.32095e-08
7.31722e-08
7.31722e-08
7.31599e-08
7.31458e-08
7.31581e-08
7.3163e-08
7.31713e-08
7.32001e-08
7.32108e-08
7.32209e-08
7.32318e-08
7.32536e-08
7.32655e-08
7.33008e-08
7.33175e-08
7.33636e-08
7.33822e-08
7.3427e-08
7.34465e-08
7.35034e-08
7.35258e-08
7.35972e-08
7.36289e-08
7.37095e-08
7.37491e-08
7.38335e-08
7.38826e-08
7.39868e-08
7.40383e-08
7.41846e-08
7.42112e-08
7.49315e-08
3.19498e-06
2.27804e-08
1.24017e-07
1.16364e-07
1.08531e-07
1.02386e-07
9.77338e-08
9.41714e-08
9.13481e-08
8.90819e-08
8.72017e-08
8.56443e-08
8.43094e-08
8.31798e-08
8.21898e-08
8.13378e-08
8.05756e-08
7.99173e-08
7.93175e-08
7.87973e-08
7.83148e-08
7.7895e-08
7.75006e-08
7.71566e-08
7.68279e-08
7.65445e-08
7.62705e-08
7.60339e-08
7.58009e-08
7.56029e-08
7.54084e-08
7.5237e-08
7.50699e-08
7.4929e-08
7.4788e-08
7.4669e-08
7.45463e-08
7.44393e-08
7.43333e-08
7.42448e-08
7.41512e-08
7.40751e-08
7.39936e-08
7.3925e-08
7.38558e-08
7.37968e-08
7.3734e-08
7.36834e-08
7.36347e-08
7.35916e-08
7.35402e-08
7.35049e-08
7.34663e-08
7.34202e-08
7.33837e-08
7.33639e-08
7.33268e-08
7.33047e-08
7.32723e-08
7.32411e-08
7.32004e-08
7.31677e-08
7.31606e-08
7.31522e-08
7.31145e-08
7.31143e-08
7.31016e-08
7.30871e-08
7.30991e-08
7.3104e-08
7.31118e-08
7.31403e-08
7.3151e-08
7.31611e-08
7.31717e-08
7.31933e-08
7.32049e-08
7.32399e-08
7.32564e-08
7.33022e-08
7.33207e-08
7.33654e-08
7.33847e-08
7.34413e-08
7.34635e-08
7.35344e-08
7.35661e-08
7.36461e-08
7.36856e-08
7.37697e-08
7.38185e-08
7.39223e-08
7.39735e-08
7.41196e-08
7.41447e-08
7.4882e-08
3.20965e-06
2.362e-08
1.24033e-07
1.16432e-07
1.08618e-07
1.02469e-07
9.78061e-08
9.42317e-08
9.13969e-08
8.91203e-08
8.72308e-08
8.56652e-08
8.43229e-08
8.31868e-08
8.2191e-08
8.13339e-08
8.0567e-08
7.99046e-08
7.9301e-08
7.87773e-08
7.82917e-08
7.78691e-08
7.74721e-08
7.71257e-08
7.67948e-08
7.65094e-08
7.62335e-08
7.59952e-08
7.57606e-08
7.5561e-08
7.53651e-08
7.51925e-08
7.50241e-08
7.4882e-08
7.474e-08
7.46199e-08
7.44963e-08
7.43884e-08
7.42815e-08
7.41923e-08
7.40979e-08
7.40211e-08
7.39389e-08
7.38698e-08
7.37999e-08
7.37404e-08
7.3677e-08
7.3626e-08
7.35767e-08
7.35333e-08
7.34814e-08
7.34458e-08
7.3407e-08
7.33607e-08
7.33237e-08
7.33036e-08
7.32663e-08
7.3244e-08
7.32112e-08
7.31799e-08
7.31391e-08
7.31061e-08
7.30985e-08
7.309e-08
7.30519e-08
7.30515e-08
7.30383e-08
7.30235e-08
7.3035e-08
7.30399e-08
7.30472e-08
7.30753e-08
7.3086e-08
7.30961e-08
7.31065e-08
7.31279e-08
7.31392e-08
7.31739e-08
7.31901e-08
7.32356e-08
7.3254e-08
7.32985e-08
7.33176e-08
7.33738e-08
7.3396e-08
7.34662e-08
7.34978e-08
7.35773e-08
7.36168e-08
7.37004e-08
7.37489e-08
7.38523e-08
7.39032e-08
7.40491e-08
7.40726e-08
7.48283e-08
3.22498e-06
2.45663e-08
1.24049e-07
1.16505e-07
1.08711e-07
1.02558e-07
9.78844e-08
9.42972e-08
9.145e-08
8.91622e-08
8.72626e-08
8.56881e-08
8.4338e-08
8.31948e-08
8.21927e-08
8.13301e-08
8.05581e-08
7.98912e-08
7.92835e-08
7.87561e-08
7.82671e-08
7.78414e-08
7.74415e-08
7.70926e-08
7.67593e-08
7.64717e-08
7.61937e-08
7.59536e-08
7.57172e-08
7.5516e-08
7.53185e-08
7.51446e-08
7.49748e-08
7.48315e-08
7.46882e-08
7.45671e-08
7.44424e-08
7.43336e-08
7.42257e-08
7.41357e-08
7.40405e-08
7.39629e-08
7.388e-08
7.38102e-08
7.37397e-08
7.36796e-08
7.36156e-08
7.35641e-08
7.35142e-08
7.34704e-08
7.34179e-08
7.33821e-08
7.3343e-08
7.32964e-08
7.3259e-08
7.32385e-08
7.32009e-08
7.31784e-08
7.31453e-08
7.31138e-08
7.3073e-08
7.30396e-08
7.30316e-08
7.30229e-08
7.29843e-08
7.29837e-08
7.297e-08
7.29548e-08
7.29658e-08
7.29708e-08
7.29775e-08
7.30052e-08
7.30158e-08
7.3026e-08
7.3036e-08
7.30572e-08
7.30682e-08
7.31026e-08
7.31185e-08
7.31637e-08
7.31819e-08
7.32262e-08
7.32451e-08
7.3301e-08
7.3323e-08
7.33926e-08
7.34241e-08
7.3503e-08
7.35424e-08
7.36256e-08
7.36738e-08
7.37767e-08
7.38272e-08
7.39729e-08
7.39948e-08
7.47701e-08
3.2407e-06
2.56321e-08
1.24066e-07
1.16583e-07
1.08811e-07
1.02655e-07
9.79689e-08
9.43679e-08
9.15075e-08
8.92077e-08
8.72973e-08
8.57132e-08
8.43545e-08
8.32038e-08
8.2195e-08
8.13263e-08
8.05489e-08
7.98771e-08
7.9265e-08
7.87336e-08
7.82409e-08
7.78119e-08
7.74089e-08
7.70573e-08
7.67213e-08
7.64314e-08
7.61512e-08
7.5909e-08
7.56707e-08
7.54678e-08
7.52686e-08
7.50932e-08
7.49219e-08
7.47772e-08
7.46326e-08
7.45103e-08
7.43846e-08
7.42748e-08
7.41659e-08
7.40749e-08
7.39788e-08
7.39005e-08
7.38168e-08
7.37462e-08
7.3675e-08
7.36143e-08
7.35497e-08
7.34976e-08
7.3447e-08
7.34028e-08
7.33497e-08
7.33135e-08
7.32741e-08
7.32274e-08
7.31895e-08
7.31686e-08
7.31307e-08
7.3108e-08
7.30744e-08
7.30427e-08
7.30019e-08
7.29681e-08
7.29596e-08
7.29507e-08
7.29117e-08
7.29108e-08
7.28965e-08
7.2881e-08
7.28915e-08
7.28964e-08
7.29026e-08
7.29298e-08
7.29404e-08
7.29506e-08
7.29603e-08
7.29813e-08
7.29919e-08
7.3026e-08
7.30416e-08
7.30863e-08
7.31044e-08
7.31485e-08
7.31672e-08
7.32227e-08
7.32445e-08
7.33134e-08
7.33449e-08
7.34232e-08
7.34624e-08
7.35451e-08
7.3593e-08
7.36954e-08
7.37455e-08
7.38909e-08
7.3911e-08
7.47074e-08
3.25648e-06
2.68304e-08
1.24084e-07
1.16666e-07
1.08917e-07
1.02758e-07
9.80596e-08
9.44441e-08
9.15696e-08
8.92569e-08
8.73349e-08
8.57406e-08
8.43728e-08
8.3214e-08
8.21979e-08
8.13228e-08
8.05395e-08
7.98624e-08
7.92455e-08
7.87098e-08
7.82131e-08
7.77806e-08
7.73743e-08
7.70197e-08
7.6681e-08
7.63885e-08
7.61058e-08
7.58615e-08
7.56212e-08
7.54163e-08
7.52154e-08
7.50384e-08
7.48654e-08
7.47193e-08
7.45733e-08
7.44497e-08
7.43228e-08
7.42119e-08
7.41019e-08
7.40099e-08
7.39129e-08
7.38337e-08
7.37491e-08
7.36778e-08
7.36058e-08
7.35445e-08
7.34791e-08
7.34264e-08
7.33751e-08
7.33305e-08
7.32768e-08
7.32402e-08
7.32005e-08
7.31536e-08
7.3115e-08
7.30937e-08
7.30556e-08
7.30325e-08
7.29985e-08
7.29666e-08
7.29258e-08
7.28915e-08
7.28825e-08
7.28735e-08
7.28339e-08
7.28328e-08
7.28179e-08
7.2802e-08
7.28119e-08
7.28168e-08
7.28224e-08
7.2849e-08
7.28596e-08
7.28698e-08
7.28791e-08
7.28999e-08
7.29102e-08
7.29439e-08
7.29591e-08
7.30034e-08
7.30214e-08
7.30652e-08
7.30837e-08
7.31387e-08
7.31605e-08
7.32286e-08
7.32599e-08
7.33376e-08
7.33767e-08
7.34589e-08
7.35065e-08
7.36082e-08
7.3658e-08
7.38031e-08
7.38214e-08
7.46399e-08
3.2719e-06
2.81752e-08
1.24103e-07
1.16753e-07
1.0903e-07
1.02869e-07
9.81568e-08
9.45259e-08
9.16364e-08
8.931e-08
8.73757e-08
8.57705e-08
8.43928e-08
8.32254e-08
8.22014e-08
8.13194e-08
8.05299e-08
7.98472e-08
7.92251e-08
7.86848e-08
7.81839e-08
7.77476e-08
7.73377e-08
7.69799e-08
7.66382e-08
7.63429e-08
7.60577e-08
7.58111e-08
7.55685e-08
7.53616e-08
7.51587e-08
7.498e-08
7.48053e-08
7.46577e-08
7.45101e-08
7.43852e-08
7.4257e-08
7.4145e-08
7.40337e-08
7.39408e-08
7.38426e-08
7.37625e-08
7.3677e-08
7.3605e-08
7.3532e-08
7.347e-08
7.34039e-08
7.33505e-08
7.32984e-08
7.32534e-08
7.3199e-08
7.3162e-08
7.31219e-08
7.30748e-08
7.30356e-08
7.30138e-08
7.29754e-08
7.2952e-08
7.29175e-08
7.28854e-08
7.28446e-08
7.28099e-08
7.28002e-08
7.27911e-08
7.2751e-08
7.27495e-08
7.2734e-08
7.27177e-08
7.27269e-08
7.27318e-08
7.27367e-08
7.27629e-08
7.27734e-08
7.27835e-08
7.27925e-08
7.28131e-08
7.2823e-08
7.28562e-08
7.28711e-08
7.2915e-08
7.29328e-08
7.29763e-08
7.29946e-08
7.30491e-08
7.30707e-08
7.31381e-08
7.31693e-08
7.32462e-08
7.32852e-08
7.33668e-08
7.34141e-08
7.35152e-08
7.35645e-08
7.37092e-08
7.37257e-08
7.45676e-08
3.28649e-06
2.96805e-08
1.24122e-07
1.16845e-07
1.0915e-07
1.02986e-07
9.82607e-08
9.46136e-08
9.17082e-08
8.93673e-08
8.74198e-08
8.58029e-08
8.44149e-08
8.32381e-08
8.22058e-08
8.13165e-08
8.05202e-08
7.98315e-08
7.92039e-08
7.86587e-08
7.81532e-08
7.77128e-08
7.72992e-08
7.6938e-08
7.6593e-08
7.62948e-08
7.60068e-08
7.57577e-08
7.55128e-08
7.53037e-08
7.50987e-08
7.49182e-08
7.47417e-08
7.45923e-08
7.44431e-08
7.43168e-08
7.41871e-08
7.40739e-08
7.39613e-08
7.38673e-08
7.3768e-08
7.36869e-08
7.36005e-08
7.35275e-08
7.34536e-08
7.33909e-08
7.3324e-08
7.32699e-08
7.32169e-08
7.31714e-08
7.31163e-08
7.30788e-08
7.30384e-08
7.2991e-08
7.29512e-08
7.29289e-08
7.28901e-08
7.28664e-08
7.28314e-08
7.27991e-08
7.27582e-08
7.2723e-08
7.27127e-08
7.27034e-08
7.26628e-08
7.2661e-08
7.26448e-08
7.26281e-08
7.26366e-08
7.26414e-08
7.26456e-08
7.26712e-08
7.26816e-08
7.26918e-08
7.27004e-08
7.27206e-08
7.27302e-08
7.2763e-08
7.27775e-08
7.28209e-08
7.28385e-08
7.28817e-08
7.28997e-08
7.29538e-08
7.29752e-08
7.30417e-08
7.30728e-08
7.31489e-08
7.31878e-08
7.32688e-08
7.33157e-08
7.34162e-08
7.3465e-08
7.36093e-08
7.36238e-08
7.44902e-08
3.29969e-06
3.13609e-08
1.24142e-07
1.16942e-07
1.09277e-07
1.03111e-07
9.83713e-08
9.47072e-08
9.17851e-08
8.94288e-08
8.74674e-08
8.58381e-08
8.44389e-08
8.32523e-08
8.22112e-08
8.1314e-08
8.05105e-08
7.98154e-08
7.9182e-08
7.86315e-08
7.81212e-08
7.76764e-08
7.72587e-08
7.68938e-08
7.65454e-08
7.62441e-08
7.59532e-08
7.57014e-08
7.5454e-08
7.52425e-08
7.50354e-08
7.48529e-08
7.46743e-08
7.45232e-08
7.43722e-08
7.42444e-08
7.41132e-08
7.39987e-08
7.38847e-08
7.37895e-08
7.3689e-08
7.36069e-08
7.35194e-08
7.34455e-08
7.33706e-08
7.33071e-08
7.32393e-08
7.31845e-08
7.31305e-08
7.30844e-08
7.30287e-08
7.29907e-08
7.29498e-08
7.29022e-08
7.28617e-08
7.28388e-08
7.27997e-08
7.27757e-08
7.27401e-08
7.27075e-08
7.26666e-08
7.26309e-08
7.26199e-08
7.26104e-08
7.25692e-08
7.25671e-08
7.25501e-08
7.25331e-08
7.25407e-08
7.25455e-08
7.2549e-08
7.2574e-08
7.25843e-08
7.25944e-08
7.26026e-08
7.26226e-08
7.26317e-08
7.2664e-08
7.26781e-08
7.2721e-08
7.27384e-08
7.27813e-08
7.27991e-08
7.28525e-08
7.28738e-08
7.29395e-08
7.29704e-08
7.30457e-08
7.30844e-08
7.31648e-08
7.32113e-08
7.3311e-08
7.33594e-08
7.35032e-08
7.35157e-08
7.44074e-08
3.31084e-06
3.32307e-08
1.24162e-07
1.17043e-07
1.09411e-07
1.03243e-07
9.8489e-08
9.48071e-08
9.18674e-08
8.94948e-08
8.75187e-08
8.58762e-08
8.44653e-08
8.32682e-08
8.22176e-08
8.1312e-08
8.0501e-08
7.9799e-08
7.91594e-08
7.86033e-08
7.80878e-08
7.76384e-08
7.72164e-08
7.68476e-08
7.64955e-08
7.61909e-08
7.58968e-08
7.56422e-08
7.53921e-08
7.51781e-08
7.49686e-08
7.4784e-08
7.46034e-08
7.44504e-08
7.42975e-08
7.4168e-08
7.40353e-08
7.39194e-08
7.38039e-08
7.37074e-08
7.36056e-08
7.35224e-08
7.34337e-08
7.33589e-08
7.32829e-08
7.32186e-08
7.31498e-08
7.30942e-08
7.30392e-08
7.29925e-08
7.2936e-08
7.28975e-08
7.28562e-08
7.28083e-08
7.27671e-08
7.27436e-08
7.2704e-08
7.26797e-08
7.26435e-08
7.26106e-08
7.25697e-08
7.25335e-08
7.25218e-08
7.2512e-08
7.24703e-08
7.24677e-08
7.245e-08
7.24325e-08
7.24393e-08
7.2444e-08
7.24468e-08
7.24711e-08
7.24812e-08
7.24914e-08
7.24991e-08
7.25188e-08
7.25274e-08
7.25593e-08
7.2573e-08
7.26152e-08
7.26325e-08
7.2675e-08
7.26925e-08
7.27454e-08
7.27665e-08
7.28312e-08
7.2862e-08
7.29364e-08
7.29749e-08
7.30547e-08
7.31007e-08
7.31997e-08
7.32475e-08
7.33909e-08
7.34013e-08
7.43191e-08
3.31924e-06
3.53041e-08
1.24183e-07
1.17148e-07
1.09552e-07
1.03383e-07
9.86138e-08
9.49133e-08
9.19551e-08
8.95654e-08
8.75738e-08
8.59174e-08
8.4494e-08
8.32858e-08
8.22253e-08
8.13108e-08
8.04917e-08
7.97825e-08
7.91362e-08
7.85742e-08
7.80532e-08
7.75988e-08
7.71722e-08
7.67993e-08
7.64433e-08
7.61352e-08
7.58378e-08
7.55802e-08
7.53271e-08
7.51105e-08
7.48985e-08
7.47117e-08
7.45288e-08
7.43738e-08
7.42189e-08
7.40877e-08
7.39532e-08
7.38359e-08
7.37188e-08
7.3621e-08
7.35178e-08
7.34333e-08
7.33435e-08
7.32676e-08
7.31905e-08
7.31252e-08
7.30555e-08
7.2999e-08
7.2943e-08
7.28957e-08
7.28384e-08
7.27992e-08
7.27574e-08
7.27093e-08
7.26673e-08
7.26431e-08
7.26032e-08
7.25784e-08
7.25416e-08
7.25084e-08
7.24674e-08
7.24307e-08
7.24182e-08
7.24082e-08
7.23659e-08
7.23628e-08
7.23443e-08
7.23265e-08
7.23323e-08
7.23369e-08
7.23389e-08
7.23625e-08
7.23725e-08
7.23826e-08
7.23898e-08
7.24092e-08
7.24174e-08
7.24487e-08
7.2462e-08
7.25036e-08
7.25206e-08
7.25627e-08
7.258e-08
7.26322e-08
7.26531e-08
7.27169e-08
7.27475e-08
7.2821e-08
7.28593e-08
7.29384e-08
7.29839e-08
7.30821e-08
7.31294e-08
7.32721e-08
7.32805e-08
7.4225e-08
3.32411e-06
3.75942e-08
1.24204e-07
1.17258e-07
1.09699e-07
1.0353e-07
9.87459e-08
9.50262e-08
9.20487e-08
8.9641e-08
8.7633e-08
8.59619e-08
8.45254e-08
8.33054e-08
8.22344e-08
8.13105e-08
8.04828e-08
7.97659e-08
7.91126e-08
7.85443e-08
7.80175e-08
7.75579e-08
7.71263e-08
7.67491e-08
7.6389e-08
7.6077e-08
7.57761e-08
7.55153e-08
7.52592e-08
7.50398e-08
7.48251e-08
7.46359e-08
7.44506e-08
7.42934e-08
7.41365e-08
7.40034e-08
7.38671e-08
7.37482e-08
7.36294e-08
7.35302e-08
7.34256e-08
7.33398e-08
7.32487e-08
7.31717e-08
7.30933e-08
7.30271e-08
7.29564e-08
7.28989e-08
7.28418e-08
7.27938e-08
7.27356e-08
7.26958e-08
7.26535e-08
7.26051e-08
7.25622e-08
7.25374e-08
7.2497e-08
7.24717e-08
7.24343e-08
7.24008e-08
7.23597e-08
7.23224e-08
7.23091e-08
7.22989e-08
7.2256e-08
7.22524e-08
7.22331e-08
7.22149e-08
7.22196e-08
7.22241e-08
7.22252e-08
7.22481e-08
7.22579e-08
7.22679e-08
7.22747e-08
7.22937e-08
7.23014e-08
7.23322e-08
7.2345e-08
7.2386e-08
7.24028e-08
7.24444e-08
7.24614e-08
7.2513e-08
7.25337e-08
7.25964e-08
7.26268e-08
7.26994e-08
7.27374e-08
7.28158e-08
7.28609e-08
7.29582e-08
7.30049e-08
7.31469e-08
7.31532e-08
7.41249e-08
3.32459e-06
4.01131e-08
1.24225e-07
1.17372e-07
1.09854e-07
1.03685e-07
9.88855e-08
9.51459e-08
9.21482e-08
8.97216e-08
8.76964e-08
8.60099e-08
8.45595e-08
8.33272e-08
8.22449e-08
8.13111e-08
8.04744e-08
7.97494e-08
7.90886e-08
7.85136e-08
7.79807e-08
7.75155e-08
7.70788e-08
7.66969e-08
7.63324e-08
7.60165e-08
7.57117e-08
7.54476e-08
7.51882e-08
7.49658e-08
7.47483e-08
7.45567e-08
7.43688e-08
7.42094e-08
7.40502e-08
7.39151e-08
7.37769e-08
7.36563e-08
7.35358e-08
7.3435e-08
7.33288e-08
7.32417e-08
7.31492e-08
7.3071e-08
7.29914e-08
7.29242e-08
7.28523e-08
7.27939e-08
7.27356e-08
7.26868e-08
7.26278e-08
7.25872e-08
7.25444e-08