/*--------------------------------*- C++ -*----------------------------------*\
| =========                 |                                                 |
| \\      /  F ield         | OpenFOAM: The Open Source CFD Toolbox           |
|  \\    /   O peration     | Version:  v2012                                 |
|   \\  /    A nd           | Website:  www.openfoam.com                      |
|    \\/     M anipulation  |                                                 |
\*---------------------------------------------------------------------------*/
FoamFile
{
    version     2.0;
    format      ascii;
    class       volScalarField;
    location    "40";
    object      yPlus;
}
// * * * * * * * * * * * * * * * * * * * * * * * * * * * * * * * * * * * * * //

dimensions      [0 0 0 0 0 0 0];


internalField   uniform 0;

boundaryField
{
    inlet
    {
        type            calculated;
        value           uniform 0;
    }
    outlet
    {
        type            calculated;
        value           uniform 0;
    }
    topWall
    {
        type            calculated;
        value           nonuniform List<scalar> 
545
(
0.070829
0.12213
0.156675
0.184156
0.207409
0.227741
0.245888
0.262312
0.277328
0.291162
0.303985
0.315928
0.327096
0.337573
0.34743
0.356727
0.365513
0.373831
0.38172
0.389213
0.396338
0.403121
0.409585
0.415753
0.421641
0.427269
0.43265
0.437801
0.442732
0.447458
0.451989
0.456335
0.460507
0.464512
0.46836
0.472057
0.475613
0.479032
0.482322
0.485489
0.488538
0.491475
0.494305
0.497032
0.49966
0.502195
0.50464
0.506999
0.509276
0.511473
0.513595
0.515644
0.517623
0.519535
0.521383
0.523168
0.524895
0.526564
0.528178
0.529739
0.53125
0.532711
0.534125
0.535494
0.536819
0.538102
0.539344
0.540547
0.541712
0.54284
0.543934
0.544993
0.546007
0.546986
0.547957
0.548919
0.549872
0.550817
0.551754
0.552682
0.553602
0.554514
0.555417
0.556313
0.557201
0.558081
0.558953
0.559817
0.560674
0.561524
0.562366
0.563201
0.564028
0.564849
0.565662
0.566468
0.567193
0.567842
0.56849
0.569137
0.569784
0.57043
0.571075
0.571719
0.572363
0.573006
0.573649
0.574291
0.574932
0.575572
0.576212
0.576851
0.577489
0.578126
0.578763
0.579399
0.580034
0.580669
0.581302
0.581935
0.582567
0.583198
0.583829
0.584458
0.585087
0.585715
0.586342
0.586968
0.587594
0.588218
0.588842
0.589465
0.590087
0.590708
0.591328
0.591947
0.592565
0.593182
0.593799
0.594414
0.595029
0.595642
0.596255
0.596867
0.597477
0.598087
0.598696
0.599303
0.59991
0.600515
0.60112
0.601723
0.602326
0.602927
0.603528
0.604127
0.604725
0.605322
0.605918
0.606513
0.607107
0.607699
0.608291
0.608881
0.60947
0.610058
0.610645
0.611231
0.611815
0.612398
0.61298
0.613561
0.614141
0.614719
0.615296
0.615872
0.616447
0.61702
0.617592
0.618163
0.618732
0.6193
0.619867
0.620433
0.620997
0.62156
0.622121
0.622681
0.62324
0.623797
0.624353
0.624907
0.62546
0.626012
0.626562
0.627111
0.627658
0.628204
0.628748
0.629291
0.629833
0.630372
0.630911
0.631448
0.631983
0.632517
0.633049
0.633579
0.634108
0.634636
0.635162
0.635686
0.636208
0.636729
0.637249
0.637766
0.638282
0.638797
0.639309
0.63982
0.64033
0.640837
0.641343
0.641847
0.642349
0.64285
0.643349
0.643846
0.644341
0.644835
0.645326
0.645816
0.646304
0.64679
0.647275
0.647757
0.648238
0.648717
0.649193
0.649668
0.650141
0.650613
0.651082
0.651549
0.652014
0.652477
0.652939
0.653398
0.653856
0.654311
0.654764
0.655215
0.655665
0.656112
0.656557
0.657
0.657441
0.65788
0.658317
0.658751
0.659184
0.659614
0.660043
0.660469
0.660893
0.661314
0.661734
0.662151
0.662566
0.662956
0.663323
0.663691
0.664061
0.664432
0.664804
0.665177
0.665552
0.665927
0.666304
0.666682
0.667061
0.667441
0.667822
0.668204
0.668587
0.66897
0.669354
0.669739
0.670125
0.670511
0.670898
0.671285
0.671672
0.67206
0.672448
0.672836
0.673225
0.673613
0.674002
0.67439
0.674778
0.675166
0.675553
0.67594
0.676327
0.676713
0.677098
0.677483
0.677866
0.678249
0.678631
0.679011
0.67939
0.679768
0.680144
0.680519
0.680892
0.681263
0.681632
0.681999
0.682364
0.682727
0.683087
0.683445
0.6838
0.684152
0.684501
0.684847
0.68519
0.685529
0.685865
0.686197
0.686526
0.68685
0.68717
0.687486
0.687798
0.688105
0.688407
0.688704
0.688996
0.689282
0.689564
0.689839
0.690109
0.690372
0.69063
0.690881
0.691125
0.691362
0.691593
0.691816
0.692032
0.692241
0.692441
0.692634
0.692818
0.692994
0.693162
0.69332
0.69347
0.69361
0.69374
0.693861
0.693972
0.694073
0.694163
0.694243
0.694312
0.69437
0.694417
0.694452
0.694475
0.694486
0.694486
0.694472
0.694446
0.694407
0.694355
0.69429
0.694211
0.694118
0.694011
0.69389
0.693755
0.693604
0.693439
0.693259
0.693063
0.692852
0.692625
0.692382
0.692123
0.691847
0.691555
0.691246
0.69092
0.690576
0.690216
0.689838
0.689442
0.689029
0.688597
0.688147
0.687679
0.687192
0.686687
0.686163
0.68562
0.685059
0.684478
0.683878
0.683258
0.68262
0.681961
0.681284
0.680587
0.67987
0.679133
0.678377
0.677601
0.676806
0.67599
0.675155
0.674301
0.673426
0.672533
0.671619
0.670686
0.669734
0.668762
0.667772
0.666762
0.665733
0.664685
0.663619
0.662534
0.661431
0.66031
0.65917
0.658014
0.656839
0.655648
0.654439
0.653214
0.651972
0.650714
0.649441
0.648151
0.646847
0.64538
0.643757
0.642135
0.640515
0.638897
0.637283
0.635674
0.634069
0.63247
0.630877
0.629292
0.627714
0.626145
0.624584
0.623033
0.621492
0.619962
0.618442
0.616933
0.615437
0.613953
0.612481
0.611022
0.609577
0.608145
0.606728
0.605324
0.603935
0.602562
0.601203
0.59986
0.598532
0.597221
0.595926
0.594647
0.593385
0.592139
0.590911
0.5897
0.588506
0.58733
0.586172
0.585032
0.58391
0.582807
0.581722
0.580655
0.579608
0.57858
0.57757
0.57658
0.57561
0.574659
0.573728
0.572817
0.571925
0.571055
0.570204
0.569374
0.568564
0.567776
0.567008
0.566261
0.565536
0.564831
0.564148
0.563487
0.562847
0.562229
0.561633
0.56106
0.560508
0.559978
0.559471
0.558986
0.558524
0.558084
0.557668
0.557274
0.556903
0.556555
0.55623
0.555928
0.555649
0.555394
0.555162
0.554954
0.554769
0.554607
0.554469
0.554355
0.554264
0.554196
0.554155
0.554126
)
;
    }
    bottomWall
    {
        type            calculated;
        value           nonuniform List<scalar> 
449
(
0.13945
0.0889598
0.0758094
0.0694377
0.0652546
0.0621283
0.0596334
0.05757
0.0558191
0.054303
0.0529694
0.0517819
0.0507139
0.0497454
0.0488608
0.0480476
0.0472961
0.0465983
0.0459475
0.0453384
0.0447662
0.0442272
0.0437179
0.0432356
0.0427776
0.0423419
0.0419265
0.0415299
0.0411504
0.0407868
0.0404379
0.0401026
0.0397801
0.0394694
0.0391697
0.0388804
0.0386009
0.0383305
0.0380687
0.037815
0.0375689
0.0373301
0.0370982
0.0368728
0.0366535
0.0364402
0.0362324
0.0360299
0.0358325
0.03564
0.035452
0.0352685
0.0350893
0.0349141
0.0347428
0.0345752
0.0344112
0.0342506
0.0340934
0.0339393
0.0337883
0.0336403
0.0334951
0.0333527
0.0332129
0.0330756
0.0329409
0.0328085
0.0326785
0.0325507
0.0324251
0.0323015
0.03218
0.0320605
0.0319429
0.0318271
0.0317132
0.031601
0.0314905
0.0313816
0.0312744
0.0311687
0.0310645
0.0309618
0.0308606
0.0307607
0.0306623
0.0305651
0.0304693
0.0303747
0.0302813
0.0301892
0.0300982
0.0300084
0.0299196
0.029832
0.0297455
0.0296599
0.0295754
0.0294919
0.0294094
0.0293278
0.0292472
0.0291675
0.0290886
0.0290106
0.0289335
0.0288572
0.0287818
0.0287071
0.0286333
0.0285602
0.0284878
0.0284162
0.0283453
0.0282752
0.0282057
0.0281369
0.0280688
0.0280013
0.0279345
0.0278684
0.0278028
0.0277379
0.0276735
0.0276098
0.0275466
0.027484
0.027422
0.0273605
0.0272996
0.0272392
0.0271793
0.0271199
0.0270611
0.0270027
0.0269448
0.0268874
0.0268305
0.026774
0.026718
0.0266625
0.0266074
0.0265527
0.0264985
0.0264447
0.0263913
0.0263383
0.0262857
0.0262335
0.0261818
0.0261304
0.0260793
0.0260287
0.0259784
0.0259285
0.025879
0.0258298
0.025781
0.0257325
0.0256843
0.0256365
0.025589
0.0255419
0.025495
0.0254485
0.0254023
0.0253564
0.0253108
0.0252655
0.0252206
0.0251758
0.0251315
0.0250899
0.0250507
0.0250114
0.024972
0.0249325
0.0248929
0.0248532
0.0248133
0.0247734
0.0247333
0.0246932
0.0246529
0.0246125
0.0245721
0.0245315
0.0244908
0.02445
0.0244092
0.0243682
0.0243271
0.024286
0.0242447
0.0242033
0.0241619
0.0241203
0.0240787
0.024037
0.0239952
0.0239533
0.0239113
0.0238692
0.0238271
0.0237849
0.0237425
0.0237002
0.0236577
0.0236151
0.0235725
0.0235298
0.0234871
0.0234442
0.0234013
0.0233583
0.0233153
0.0232722
0.023229
0.0231858
0.0231425
0.0230991
0.0230557
0.0230122
0.0229687
0.0229251
0.0228814
0.0228377
0.0227939
0.0227501
0.0227063
0.0226624
0.0226184
0.0225744
0.0225304
0.0224863
0.0224421
0.022398
0.0223537
0.0223095
0.0222652
0.0222209
0.0221765
0.0221321
0.0220877
0.0220432
0.0219987
0.0219542
0.0219097
0.0218651
0.0218205
0.0217759
0.0217312
0.0216865
0.0216419
0.0215971
0.0215524
0.0215077
0.0214629
0.0214181
0.0213734
0.0213286
0.0212837
0.0212389
0.0211941
0.0211493
0.0211044
0.0210596
0.0210147
0.0209698
0.020925
0.0208801
0.0208353
0.0207904
0.0207455
0.0207007
0.0206558
0.020611
0.0205661
0.0205213
0.0204765
0.0204317
0.0203868
0.0203421
0.0202973
0.0202525
0.0202077
0.020163
0.0201183
0.0200736
0.0200289
0.0199842
0.0199396
0.0198949
0.0198503
0.0198057
0.0197612
0.0197166
0.0196721
0.0196276
0.0195832
0.0195388
0.0194944
0.01945
0.0194057
0.0193613
0.0193171
0.0192728
0.0192286
0.0191844
0.0191403
0.0190962
0.0190521
0.0190081
0.0189641
0.0189202
0.0188763
0.0188324
0.0187886
0.0187448
0.018701
0.0186573
0.0186137
0.0185701
0.0185265
0.018483
0.0184395
0.0183961
0.0183527
0.0183094
0.0182661
0.0182229
0.0181797
0.0181366
0.0180936
0.0180505
0.0180076
0.0179647
0.0179218
0.017879
0.0178363
0.0177936
0.017751
0.0177084
0.0176659
0.0176234
0.017581
0.0175387
0.0174964
0.0174542
0.0174121
0.01737
0.017328
0.017286
0.0172393
0.0171886
0.0171386
0.0170893
0.0170407
0.0169928
0.0169456
0.016899
0.0168531
0.0168078
0.0167631
0.016719
0.0166755
0.0166326
0.0165902
0.0165484
0.0165071
0.0164663
0.016426
0.0163862
0.0163469
0.0163081
0.0162697
0.0162318
0.0161944
0.0161574
0.0161208
0.0160846
0.0160488
0.0160135
0.0159785
0.0159439
0.0159097
0.0158759
0.0158424
0.0158093
0.0157766
0.0157441
0.0157121
0.0156803
0.0156489
0.0156178
0.015587
0.0155565
0.0155263
0.0154964
0.0154668
0.0154375
0.0154085
0.0153797
0.0153513
0.0153231
0.0152951
0.0152674
0.01524
0.0152128
0.0151858
0.0151591
0.0151327
0.0151064
0.0150804
0.0150546
0.0150291
0.0150037
0.0149786
0.0149537
0.014929
0.0149045
0.0148802
0.0148561
0.0148322
0.0148085
0.014785
0.0147616
0.0147385
0.0147155
0.0146927
0.0146701
0.0146476
0.0146253
0.0146032
0.0145812
0.0145594
0.0145377
0.0145161
0.0144947
0.0144734
0.0144522
0.0144311
0.0144098
0.0143893
0.0143689
0.0143351
0.0143539
0.0142945
)
;
    }
    symmetry
    {
        type            symmetryPlane;
    }
    frontAndBack
    {
        type            empty;
    }
}


// ************************************************************************* //
