/*--------------------------------*- C++ -*----------------------------------*\
| =========                 |                                                 |
| \\      /  F ield         | OpenFOAM: The Open Source CFD Toolbox           |
|  \\    /   O peration     | Version:  v2012                                 |
|   \\  /    A nd           | Website:  www.openfoam.com                      |
|    \\/     M anipulation  |                                                 |
\*---------------------------------------------------------------------------*/
FoamFile
{
    version     2.0;
    format      ascii;
    class       volVectorField;
    location    "49";
    object      wallShearStress;
}
// * * * * * * * * * * * * * * * * * * * * * * * * * * * * * * * * * * * * * //

dimensions      [0 2 -2 0 0 0 0];


internalField   uniform (0 0 0);

boundaryField
{
    inlet
    {
        type            calculated;
        value           uniform (0 0 0);
    }
    outlet
    {
        type            calculated;
        value           uniform (0 0 0);
    }
    topWall
    {
        type            calculated;
        value           nonuniform List<vector> 
545
(
(1.48726e-08 -1.0469e-08 0)
(1.48658e-08 -2.92884e-08 0)
(1.4852e-08 -4.88563e-08 0)
(1.48316e-08 -6.78502e-08 0)
(1.48054e-08 -8.6023e-08 0)
(1.47742e-08 -1.03606e-07 0)
(1.47382e-08 -1.20748e-07 0)
(1.4698e-08 -1.37438e-07 0)
(1.46538e-08 -1.53639e-07 0)
(1.46061e-08 -1.6935e-07 0)
(1.45552e-08 -1.84591e-07 0)
(1.45015e-08 -1.99379e-07 0)
(1.44453e-08 -2.13725e-07 0)
(1.43868e-08 -2.27638e-07 0)
(1.43264e-08 -2.41127e-07 0)
(1.42642e-08 -2.54204e-07 0)
(1.42006e-08 -2.6688e-07 0)
(1.41358e-08 -2.79166e-07 0)
(1.40699e-08 -2.91073e-07 0)
(1.40031e-08 -3.02612e-07 0)
(1.39357e-08 -3.13792e-07 0)
(1.38677e-08 -3.24625e-07 0)
(1.37994e-08 -3.35121e-07 0)
(1.37308e-08 -3.45289e-07 0)
(1.36621e-08 -3.5514e-07 0)
(1.35935e-08 -3.64683e-07 0)
(1.3525e-08 -3.73928e-07 0)
(1.34567e-08 -3.82883e-07 0)
(1.33887e-08 -3.91559e-07 0)
(1.33211e-08 -3.99962e-07 0)
(1.3254e-08 -4.08103e-07 0)
(1.31874e-08 -4.1599e-07 0)
(1.31214e-08 -4.2363e-07 0)
(1.3056e-08 -4.31031e-07 0)
(1.29914e-08 -4.38201e-07 0)
(1.29275e-08 -4.45148e-07 0)
(1.28644e-08 -4.51879e-07 0)
(1.28021e-08 -4.584e-07 0)
(1.27406e-08 -4.64718e-07 0)
(1.268e-08 -4.70841e-07 0)
(1.26204e-08 -4.76774e-07 0)
(1.25616e-08 -4.82524e-07 0)
(1.25038e-08 -4.88096e-07 0)
(1.24469e-08 -4.93496e-07 0)
(1.2391e-08 -4.9873e-07 0)
(1.2336e-08 -5.03803e-07 0)
(1.2282e-08 -5.08721e-07 0)
(1.2229e-08 -5.13488e-07 0)
(1.21769e-08 -5.1811e-07 0)
(1.21259e-08 -5.22591e-07 0)
(1.20758e-08 -5.26935e-07 0)
(1.20267e-08 -5.31148e-07 0)
(1.19785e-08 -5.35233e-07 0)
(1.19313e-08 -5.39194e-07 0)
(1.18851e-08 -5.43036e-07 0)
(1.18398e-08 -5.46762e-07 0)
(1.17954e-08 -5.50377e-07 0)
(1.1752e-08 -5.53883e-07 0)
(1.17095e-08 -5.57284e-07 0)
(1.16679e-08 -5.60583e-07 0)
(1.16272e-08 -5.63784e-07 0)
(1.15874e-08 -5.6689e-07 0)
(1.15485e-08 -5.69904e-07 0)
(1.15104e-08 -5.72829e-07 0)
(1.14732e-08 -5.75667e-07 0)
(1.14368e-08 -5.78421e-07 0)
(1.14012e-08 -5.81095e-07 0)
(1.13665e-08 -5.8369e-07 0)
(1.13325e-08 -5.86209e-07 0)
(1.12993e-08 -5.88654e-07 0)
(1.12669e-08 -5.91028e-07 0)
(1.12354e-08 -5.9333e-07 0)
(1.12049e-08 -5.95542e-07 0)
(1.11748e-08 -5.97686e-07 0)
(1.1145e-08 -5.99803e-07 0)
(1.11154e-08 -6.01909e-07 0)
(1.10859e-08 -6.04002e-07 0)
(1.10564e-08 -6.06081e-07 0)
(1.10269e-08 -6.08144e-07 0)
(1.09975e-08 -6.10191e-07 0)
(1.09682e-08 -6.12224e-07 0)
(1.09389e-08 -6.14242e-07 0)
(1.09097e-08 -6.16246e-07 0)
(1.08806e-08 -6.18235e-07 0)
(1.08515e-08 -6.2021e-07 0)
(1.08225e-08 -6.2217e-07 0)
(1.07935e-08 -6.24117e-07 0)
(1.07647e-08 -6.26049e-07 0)
(1.07358e-08 -6.27967e-07 0)
(1.07071e-08 -6.29872e-07 0)
(1.06784e-08 -6.31762e-07 0)
(1.06498e-08 -6.33639e-07 0)
(1.06212e-08 -6.35503e-07 0)
(1.05928e-08 -6.37351e-07 0)
(1.05641e-08 -6.39191e-07 0)
(1.05369e-08 -6.40998e-07 0)
(1.05118e-08 -6.42651e-07 0)
(1.04875e-08 -6.44147e-07 0)
(1.04641e-08 -6.45602e-07 0)
(1.04408e-08 -6.47062e-07 0)
(1.04174e-08 -6.48535e-07 0)
(1.0394e-08 -6.50009e-07 0)
(1.03705e-08 -6.51481e-07 0)
(1.03469e-08 -6.52952e-07 0)
(1.03232e-08 -6.54423e-07 0)
(1.02994e-08 -6.55895e-07 0)
(1.02755e-08 -6.57367e-07 0)
(1.02515e-08 -6.58838e-07 0)
(1.02274e-08 -6.6031e-07 0)
(1.02032e-08 -6.61782e-07 0)
(1.0179e-08 -6.63253e-07 0)
(1.01546e-08 -6.64725e-07 0)
(1.01302e-08 -6.66197e-07 0)
(1.01056e-08 -6.67668e-07 0)
(1.0081e-08 -6.6914e-07 0)
(1.00562e-08 -6.70611e-07 0)
(1.00314e-08 -6.72082e-07 0)
(1.00065e-08 -6.73553e-07 0)
(9.98147e-09 -6.75024e-07 0)
(9.95636e-09 -6.76494e-07 0)
(9.93115e-09 -6.77964e-07 0)
(9.90585e-09 -6.79434e-07 0)
(9.88045e-09 -6.80904e-07 0)
(9.85497e-09 -6.82373e-07 0)
(9.82938e-09 -6.83842e-07 0)
(9.8037e-09 -6.85311e-07 0)
(9.77793e-09 -6.86779e-07 0)
(9.75206e-09 -6.88247e-07 0)
(9.7261e-09 -6.89714e-07 0)
(9.70004e-09 -6.91181e-07 0)
(9.67389e-09 -6.92647e-07 0)
(9.64764e-09 -6.94113e-07 0)
(9.6213e-09 -6.95579e-07 0)
(9.59486e-09 -6.97043e-07 0)
(9.56833e-09 -6.98507e-07 0)
(9.5417e-09 -6.99971e-07 0)
(9.51498e-09 -7.01434e-07 0)
(9.48816e-09 -7.02896e-07 0)
(9.46125e-09 -7.04358e-07 0)
(9.43424e-09 -7.05819e-07 0)
(9.40714e-09 -7.07279e-07 0)
(9.37995e-09 -7.08738e-07 0)
(9.35266e-09 -7.10196e-07 0)
(9.32527e-09 -7.11654e-07 0)
(9.29779e-09 -7.13111e-07 0)
(9.27021e-09 -7.14567e-07 0)
(9.24254e-09 -7.16022e-07 0)
(9.21478e-09 -7.17476e-07 0)
(9.18692e-09 -7.18929e-07 0)
(9.15896e-09 -7.20381e-07 0)
(9.13092e-09 -7.21832e-07 0)
(9.10277e-09 -7.23282e-07 0)
(9.07453e-09 -7.24731e-07 0)
(9.0462e-09 -7.26179e-07 0)
(9.01778e-09 -7.27626e-07 0)
(8.98926e-09 -7.29072e-07 0)
(8.96064e-09 -7.30516e-07 0)
(8.93193e-09 -7.31959e-07 0)
(8.90313e-09 -7.33401e-07 0)
(8.87424e-09 -7.34842e-07 0)
(8.84525e-09 -7.36281e-07 0)
(8.81617e-09 -7.37719e-07 0)
(8.78699e-09 -7.39156e-07 0)
(8.75772e-09 -7.40591e-07 0)
(8.72836e-09 -7.42025e-07 0)
(8.6989e-09 -7.43458e-07 0)
(8.66935e-09 -7.44888e-07 0)
(8.63971e-09 -7.46318e-07 0)
(8.60998e-09 -7.47746e-07 0)
(8.58015e-09 -7.49172e-07 0)
(8.55024e-09 -7.50597e-07 0)
(8.52023e-09 -7.5202e-07 0)
(8.49012e-09 -7.53441e-07 0)
(8.45993e-09 -7.54861e-07 0)
(8.42965e-09 -7.56279e-07 0)
(8.39927e-09 -7.57695e-07 0)
(8.3688e-09 -7.59109e-07 0)
(8.33824e-09 -7.60522e-07 0)
(8.30759e-09 -7.61933e-07 0)
(8.27686e-09 -7.63341e-07 0)
(8.24603e-09 -7.64748e-07 0)
(8.21511e-09 -7.66153e-07 0)
(8.1841e-09 -7.67556e-07 0)
(8.153e-09 -7.68957e-07 0)
(8.12181e-09 -7.70356e-07 0)
(8.09053e-09 -7.71753e-07 0)
(8.05917e-09 -7.73148e-07 0)
(8.02771e-09 -7.7454e-07 0)
(7.99617e-09 -7.7593e-07 0)
(7.96454e-09 -7.77319e-07 0)
(7.93282e-09 -7.78704e-07 0)
(7.90102e-09 -7.80088e-07 0)
(7.86912e-09 -7.81469e-07 0)
(7.83715e-09 -7.82848e-07 0)
(7.80508e-09 -7.84225e-07 0)
(7.77293e-09 -7.85599e-07 0)
(7.74069e-09 -7.86971e-07 0)
(7.70837e-09 -7.8834e-07 0)
(7.67596e-09 -7.89706e-07 0)
(7.64347e-09 -7.91071e-07 0)
(7.61089e-09 -7.92432e-07 0)
(7.57823e-09 -7.93791e-07 0)
(7.54549e-09 -7.95147e-07 0)
(7.51266e-09 -7.96501e-07 0)
(7.47975e-09 -7.97851e-07 0)
(7.44676e-09 -7.992e-07 0)
(7.41368e-09 -8.00545e-07 0)
(7.38053e-09 -8.01887e-07 0)
(7.34729e-09 -8.03227e-07 0)
(7.31397e-09 -8.04563e-07 0)
(7.28058e-09 -8.05897e-07 0)
(7.2471e-09 -8.07228e-07 0)
(7.21354e-09 -8.08555e-07 0)
(7.1799e-09 -8.0988e-07 0)
(7.14619e-09 -8.11201e-07 0)
(7.1124e-09 -8.1252e-07 0)
(7.07853e-09 -8.13835e-07 0)
(7.04458e-09 -8.15147e-07 0)
(7.01055e-09 -8.16456e-07 0)
(6.97645e-09 -8.17761e-07 0)
(6.94228e-09 -8.19063e-07 0)
(6.90803e-09 -8.20362e-07 0)
(6.8737e-09 -8.21658e-07 0)
(6.8393e-09 -8.2295e-07 0)
(6.80483e-09 -8.24238e-07 0)
(6.77028e-09 -8.25523e-07 0)
(6.73567e-09 -8.26805e-07 0)
(6.70098e-09 -8.28083e-07 0)
(6.66622e-09 -8.29357e-07 0)
(6.63138e-09 -8.30628e-07 0)
(6.59648e-09 -8.31895e-07 0)
(6.56151e-09 -8.33158e-07 0)
(6.52647e-09 -8.34418e-07 0)
(6.49136e-09 -8.35673e-07 0)
(6.45619e-09 -8.36925e-07 0)
(6.42095e-09 -8.38173e-07 0)
(6.38564e-09 -8.39417e-07 0)
(6.35026e-09 -8.40658e-07 0)
(6.31482e-09 -8.41894e-07 0)
(6.27932e-09 -8.43126e-07 0)
(6.24375e-09 -8.44354e-07 0)
(6.20812e-09 -8.45578e-07 0)
(6.17243e-09 -8.46798e-07 0)
(6.13668e-09 -8.48013e-07 0)
(6.10086e-09 -8.49225e-07 0)
(6.06498e-09 -8.50432e-07 0)
(6.02905e-09 -8.51635e-07 0)
(5.99306e-09 -8.52833e-07 0)
(5.957e-09 -8.54027e-07 0)
(5.9209e-09 -8.55217e-07 0)
(5.88473e-09 -8.56402e-07 0)
(5.84851e-09 -8.57583e-07 0)
(5.81223e-09 -8.58759e-07 0)
(5.7759e-09 -8.59931e-07 0)
(5.73952e-09 -8.61098e-07 0)
(5.70308e-09 -8.62261e-07 0)
(5.6666e-09 -8.63418e-07 0)
(5.63006e-09 -8.64571e-07 0)
(5.59347e-09 -8.6572e-07 0)
(5.55683e-09 -8.66863e-07 0)
(5.52014e-09 -8.68002e-07 0)
(5.48341e-09 -8.69135e-07 0)
(5.44663e-09 -8.70264e-07 0)
(5.4098e-09 -8.71388e-07 0)
(5.37293e-09 -8.72507e-07 0)
(5.336e-09 -8.73621e-07 0)
(5.29909e-09 -8.74729e-07 0)
(5.26188e-09 -8.75833e-07 0)
(5.22574e-09 -8.76926e-07 0)
(5.19112e-09 -8.77962e-07 0)
(5.15703e-09 -8.78943e-07 0)
(5.12335e-09 -8.79913e-07 0)
(5.08952e-09 -8.80889e-07 0)
(5.05542e-09 -8.81873e-07 0)
(5.02099e-09 -8.82862e-07 0)
(4.98624e-09 -8.83854e-07 0)
(4.95115e-09 -8.8485e-07 0)
(4.91574e-09 -8.85849e-07 0)
(4.87999e-09 -8.86852e-07 0)
(4.8439e-09 -8.87858e-07 0)
(4.80748e-09 -8.88867e-07 0)
(4.77072e-09 -8.8988e-07 0)
(4.73361e-09 -8.90896e-07 0)
(4.69616e-09 -8.91915e-07 0)
(4.65837e-09 -8.92937e-07 0)
(4.62023e-09 -8.93961e-07 0)
(4.58175e-09 -8.94988e-07 0)
(4.54291e-09 -8.96018e-07 0)
(4.50373e-09 -8.97049e-07 0)
(4.46419e-09 -8.98083e-07 0)
(4.4243e-09 -8.99119e-07 0)
(4.38405e-09 -9.00157e-07 0)
(4.34345e-09 -9.01196e-07 0)
(4.3025e-09 -9.02237e-07 0)
(4.26118e-09 -9.03279e-07 0)
(4.21951e-09 -9.04322e-07 0)
(4.17748e-09 -9.05366e-07 0)
(4.13508e-09 -9.06411e-07 0)
(4.09233e-09 -9.07456e-07 0)
(4.04922e-09 -9.08502e-07 0)
(4.00574e-09 -9.09548e-07 0)
(3.96191e-09 -9.10593e-07 0)
(3.91771e-09 -9.11639e-07 0)
(3.87315e-09 -9.12683e-07 0)
(3.82822e-09 -9.13727e-07 0)
(3.78294e-09 -9.1477e-07 0)
(3.73729e-09 -9.15812e-07 0)
(3.69128e-09 -9.16852e-07 0)
(3.64491e-09 -9.17891e-07 0)
(3.59818e-09 -9.18927e-07 0)
(3.55108e-09 -9.19961e-07 0)
(3.50363e-09 -9.20992e-07 0)
(3.45582e-09 -9.22021e-07 0)
(3.40765e-09 -9.23046e-07 0)
(3.35913e-09 -9.24068e-07 0)
(3.31025e-09 -9.25086e-07 0)
(3.26102e-09 -9.261e-07 0)
(3.21144e-09 -9.2711e-07 0)
(3.16151e-09 -9.28115e-07 0)
(3.11123e-09 -9.29114e-07 0)
(3.0606e-09 -9.30109e-07 0)
(3.00964e-09 -9.31097e-07 0)
(2.95833e-09 -9.3208e-07 0)
(2.90668e-09 -9.33056e-07 0)
(2.85471e-09 -9.34025e-07 0)
(2.8024e-09 -9.34987e-07 0)
(2.74976e-09 -9.35941e-07 0)
(2.6968e-09 -9.36888e-07 0)
(2.64352e-09 -9.37826e-07 0)
(2.58992e-09 -9.38755e-07 0)
(2.53601e-09 -9.39675e-07 0)
(2.4818e-09 -9.40585e-07 0)
(2.42728e-09 -9.41485e-07 0)
(2.37247e-09 -9.42375e-07 0)
(2.31736e-09 -9.43254e-07 0)
(2.26197e-09 -9.44121e-07 0)
(2.20629e-09 -9.44976e-07 0)
(2.15034e-09 -9.45819e-07 0)
(2.09413e-09 -9.4665e-07 0)
(2.03765e-09 -9.47467e-07 0)
(1.98091e-09 -9.4827e-07 0)
(1.92393e-09 -9.49059e-07 0)
(1.86671e-09 -9.49833e-07 0)
(1.80926e-09 -9.50592e-07 0)
(1.75158e-09 -9.51335e-07 0)
(1.69369e-09 -9.52061e-07 0)
(1.63559e-09 -9.52771e-07 0)
(1.57729e-09 -9.53463e-07 0)
(1.5188e-09 -9.54138e-07 0)
(1.46013e-09 -9.54794e-07 0)
(1.40129e-09 -9.5543e-07 0)
(1.34229e-09 -9.56048e-07 0)
(1.28315e-09 -9.56644e-07 0)
(1.22386e-09 -9.57221e-07 0)
(1.16445e-09 -9.57775e-07 0)
(1.10492e-09 -9.58308e-07 0)
(1.04529e-09 -9.58818e-07 0)
(9.85574e-10 -9.59305e-07 0)
(9.25774e-10 -9.59768e-07 0)
(8.65908e-10 -9.60207e-07 0)
(8.0599e-10 -9.60621e-07 0)
(7.46033e-10 -9.61009e-07 0)
(6.86051e-10 -9.61371e-07 0)
(6.26059e-10 -9.61706e-07 0)
(5.6607e-10 -9.62014e-07 0)
(5.061e-10 -9.62293e-07 0)
(4.46164e-10 -9.62544e-07 0)
(3.86278e-10 -9.62765e-07 0)
(3.26457e-10 -9.62957e-07 0)
(2.66718e-10 -9.63117e-07 0)
(2.07077e-10 -9.63247e-07 0)
(1.47552e-10 -9.63344e-07 0)
(8.81591e-11 -9.63409e-07 0)
(2.89162e-11 -9.6344e-07 0)
(-3.01589e-11 -9.63438e-07 0)
(-8.90481e-11 -9.63401e-07 0)
(-1.47733e-10 -9.63329e-07 0)
(-2.06195e-10 -9.63222e-07 0)
(-2.64415e-10 -9.63078e-07 0)
(-3.22374e-10 -9.62897e-07 0)
(-3.80053e-10 -9.62678e-07 0)
(-4.37432e-10 -9.62421e-07 0)
(-4.9449e-10 -9.62125e-07 0)
(-5.51209e-10 -9.6179e-07 0)
(-6.07567e-10 -9.61414e-07 0)
(-6.63544e-10 -9.60998e-07 0)
(-7.1912e-10 -9.60541e-07 0)
(-7.74273e-10 -9.60042e-07 0)
(-8.28983e-10 -9.59501e-07 0)
(-8.83228e-10 -9.58917e-07 0)
(-9.36988e-10 -9.58289e-07 0)
(-9.90241e-10 -9.57617e-07 0)
(-1.04297e-09 -9.56901e-07 0)
(-1.09514e-09 -9.5614e-07 0)
(-1.14675e-09 -9.55333e-07 0)
(-1.19776e-09 -9.5448e-07 0)
(-1.24816e-09 -9.53581e-07 0)
(-1.29792e-09 -9.52635e-07 0)
(-1.34702e-09 -9.51641e-07 0)
(-1.39545e-09 -9.506e-07 0)
(-1.44318e-09 -9.49511e-07 0)
(-1.49019e-09 -9.48373e-07 0)
(-1.53646e-09 -9.47187e-07 0)
(-1.58197e-09 -9.45951e-07 0)
(-1.6267e-09 -9.44666e-07 0)
(-1.67062e-09 -9.43331e-07 0)
(-1.71372e-09 -9.41946e-07 0)
(-1.75598e-09 -9.4051e-07 0)
(-1.79738e-09 -9.39024e-07 0)
(-1.8379e-09 -9.37488e-07 0)
(-1.87752e-09 -9.35901e-07 0)
(-1.91623e-09 -9.34262e-07 0)
(-1.954e-09 -9.32573e-07 0)
(-1.99081e-09 -9.30832e-07 0)
(-2.02666e-09 -9.2904e-07 0)
(-2.06152e-09 -9.27197e-07 0)
(-2.09538e-09 -9.25302e-07 0)
(-2.12823e-09 -9.23356e-07 0)
(-2.16004e-09 -9.21359e-07 0)
(-2.1908e-09 -9.19311e-07 0)
(-2.22051e-09 -9.17212e-07 0)
(-2.24915e-09 -9.15062e-07 0)
(-2.2767e-09 -9.12862e-07 0)
(-2.30315e-09 -9.10611e-07 0)
(-2.3285e-09 -9.0831e-07 0)
(-2.35273e-09 -9.05959e-07 0)
(-2.37584e-09 -9.03559e-07 0)
(-2.39781e-09 -9.01109e-07 0)
(-2.41863e-09 -8.98611e-07 0)
(-2.43831e-09 -8.96064e-07 0)
(-2.45683e-09 -8.9347e-07 0)
(-2.4742e-09 -8.90828e-07 0)
(-2.49039e-09 -8.88139e-07 0)
(-2.50542e-09 -8.85404e-07 0)
(-2.51927e-09 -8.82624e-07 0)
(-2.53196e-09 -8.79798e-07 0)
(-2.54346e-09 -8.76928e-07 0)
(-2.55379e-09 -8.74015e-07 0)
(-2.56295e-09 -8.71058e-07 0)
(-2.57094e-09 -8.6806e-07 0)
(-2.57775e-09 -8.6502e-07 0)
(-2.5834e-09 -8.6194e-07 0)
(-2.58789e-09 -8.5882e-07 0)
(-2.59122e-09 -8.55661e-07 0)
(-2.59339e-09 -8.52465e-07 0)
(-2.59442e-09 -8.49233e-07 0)
(-2.59432e-09 -8.45965e-07 0)
(-2.59307e-09 -8.42659e-07 0)
(-2.59076e-09 -8.39327e-07 0)
(-2.58711e-09 -8.35921e-07 0)
(-2.58186e-09 -8.32161e-07 0)
(-2.57497e-09 -8.28044e-07 0)
(-2.56644e-09 -8.23854e-07 0)
(-2.55644e-09 -8.19687e-07 0)
(-2.54513e-09 -8.15562e-07 0)
(-2.5326e-09 -8.1146e-07 0)
(-2.51891e-09 -8.07375e-07 0)
(-2.50412e-09 -8.0331e-07 0)
(-2.48829e-09 -7.9927e-07 0)
(-2.47149e-09 -7.95258e-07 0)
(-2.45378e-09 -7.91273e-07 0)
(-2.43521e-09 -7.87318e-07 0)
(-2.41583e-09 -7.83394e-07 0)
(-2.39569e-09 -7.79501e-07 0)
(-2.37484e-09 -7.75642e-07 0)
(-2.35332e-09 -7.71817e-07 0)
(-2.33118e-09 -7.68028e-07 0)
(-2.30846e-09 -7.64275e-07 0)
(-2.28519e-09 -7.60559e-07 0)
(-2.26141e-09 -7.56881e-07 0)
(-2.23716e-09 -7.53242e-07 0)
(-2.21246e-09 -7.49643e-07 0)
(-2.18735e-09 -7.46084e-07 0)
(-2.16186e-09 -7.42566e-07 0)
(-2.136e-09 -7.39089e-07 0)
(-2.10982e-09 -7.35655e-07 0)
(-2.08332e-09 -7.32263e-07 0)
(-2.05654e-09 -7.28915e-07 0)
(-2.02949e-09 -7.2561e-07 0)
(-2.00219e-09 -7.22349e-07 0)
(-1.97466e-09 -7.19132e-07 0)
(-1.94691e-09 -7.1596e-07 0)
(-1.91896e-09 -7.12833e-07 0)
(-1.89083e-09 -7.09752e-07 0)
(-1.86253e-09 -7.06716e-07 0)
(-1.83406e-09 -7.03726e-07 0)
(-1.80544e-09 -7.00782e-07 0)
(-1.77669e-09 -6.97885e-07 0)
(-1.7478e-09 -6.95034e-07 0)
(-1.71879e-09 -6.92231e-07 0)
(-1.68966e-09 -6.89474e-07 0)
(-1.66042e-09 -6.86764e-07 0)
(-1.63108e-09 -6.84102e-07 0)
(-1.60164e-09 -6.81487e-07 0)
(-1.57211e-09 -6.7892e-07 0)
(-1.54249e-09 -6.76401e-07 0)
(-1.51278e-09 -6.7393e-07 0)
(-1.48299e-09 -6.71507e-07 0)
(-1.45313e-09 -6.69132e-07 0)
(-1.42318e-09 -6.66806e-07 0)
(-1.39316e-09 -6.64528e-07 0)
(-1.36307e-09 -6.62299e-07 0)
(-1.3329e-09 -6.60118e-07 0)
(-1.30267e-09 -6.57987e-07 0)
(-1.27236e-09 -6.55904e-07 0)
(-1.24199e-09 -6.5387e-07 0)
(-1.21155e-09 -6.51886e-07 0)
(-1.18104e-09 -6.49951e-07 0)
(-1.15046e-09 -6.48065e-07 0)
(-1.11981e-09 -6.46229e-07 0)
(-1.0891e-09 -6.44442e-07 0)
(-1.05832e-09 -6.42705e-07 0)
(-1.02748e-09 -6.41018e-07 0)
(-9.96568e-10 -6.39381e-07 0)
(-9.6559e-10 -6.37794e-07 0)
(-9.34546e-10 -6.36257e-07 0)
(-9.03437e-10 -6.34771e-07 0)
(-8.72262e-10 -6.33335e-07 0)
(-8.41023e-10 -6.31949e-07 0)
(-8.0972e-10 -6.30614e-07 0)
(-7.78353e-10 -6.29329e-07 0)
(-7.46923e-10 -6.28096e-07 0)
(-7.15432e-10 -6.26913e-07 0)
(-6.83881e-10 -6.25781e-07 0)
(-6.5227e-10 -6.247e-07 0)
(-6.20602e-10 -6.23671e-07 0)
(-5.88877e-10 -6.22692e-07 0)
(-5.57098e-10 -6.21766e-07 0)
(-5.25266e-10 -6.2089e-07 0)
(-4.93383e-10 -6.20066e-07 0)
(-4.61452e-10 -6.19294e-07 0)
(-4.29475e-10 -6.18573e-07 0)
(-3.97454e-10 -6.17904e-07 0)
(-3.65392e-10 -6.17288e-07 0)
(-3.33292e-10 -6.16721e-07 0)
(-3.01156e-10 -6.16212e-07 0)
(-2.68987e-10 -6.15738e-07 0)
(-2.36794e-10 -6.15372e-07 0)
(-2.04556e-10 -6.14872e-07 0)
(-1.72359e-10 -6.15033e-07 0)
(-1.39936e-10 -6.13183e-07 0)
(-1.08187e-10 -6.17971e-07 0)
(-7.42485e-11 -5.99332e-07 0)
(-4.7946e-11 -6.48449e-07 0)
(-2.00976e-11 -5.66323e-07 0)
)
;
    }
    bottomWall
    {
        type            calculated;
        value           nonuniform List<vector> 
449
(
(-48.5239 -0.963986 0)
(-19.7483 -0.00515441 0)
(-14.3414 -0.00113468 0)
(-12.0319 -0.000545447 0)
(-10.626 -0.00035148 0)
(-9.63219 -0.000255983 0)
(-8.87416 -0.000198477 0)
(-8.27067 -0.000159809 0)
(-7.77526 -0.00013232 0)
(-7.35865 -0.000111974 0)
(-7.00166 -9.63743e-05 0)
(-6.69124 -8.4068e-05 0)
(-6.4181 -7.41505e-05 0)
(-6.17531 -6.60233e-05 0)
(-5.95763 -5.92666e-05 0)
(-5.76099 -5.35774e-05 0)
(-5.58219 -4.87333e-05 0)
(-5.41869 -4.45686e-05 0)
(-5.26841 -4.09573e-05 0)
(-5.12965 -3.78018e-05 0)
(-5.001 -3.50256e-05 0)
(-4.8813 -3.2568e-05 0)
(-4.76953 -3.038e-05 0)
(-4.66487 -2.84222e-05 0)
(-4.56658 -2.6662e-05 0)
(-4.47403 -2.50728e-05 0)
(-4.38669 -2.36321e-05 0)
(-4.30408 -2.23214e-05 0)
(-4.22578 -2.11248e-05 0)
(-4.15144 -2.0029e-05 0)
(-4.08072 -1.90224e-05 0)
(-4.01334 -1.80953e-05 0)
(-3.94904 -1.72392e-05 0)
(-3.8876 -1.64467e-05 0)
(-3.8288 -1.57115e-05 0)
(-3.77245 -1.50278e-05 0)
(-3.7184 -1.43909e-05 0)
(-3.66649 -1.37964e-05 0)
(-3.61658 -1.32405e-05 0)
(-3.56854 -1.27197e-05 0)
(-3.52225 -1.22311e-05 0)
(-3.47762 -1.17719e-05 0)
(-3.43455 -1.13398e-05 0)
(-3.39294 -1.09325e-05 0)
(-3.35271 -1.05481e-05 0)
(-3.31379 -1.0185e-05 0)
(-3.27611 -9.84137e-06 0)
(-3.2396 -9.51592e-06 0)
(-3.2042 -9.20731e-06 0)
(-3.16986 -8.91435e-06 0)
(-3.13652 -8.63596e-06 0)
(-3.10413 -8.37116e-06 0)
(-3.07266 -8.11903e-06 0)
(-3.04205 -7.87876e-06 0)
(-3.01228 -7.64958e-06 0)
(-2.98329 -7.43079e-06 0)
(-2.95505 -7.22176e-06 0)
(-2.92754 -7.02188e-06 0)
(-2.90073 -6.83062e-06 0)
(-2.87457 -6.64746e-06 0)
(-2.84905 -6.47194e-06 0)
(-2.82414 -6.30361e-06 0)
(-2.79982 -6.14209e-06 0)
(-2.77606 -5.98699e-06 0)
(-2.75284 -5.83796e-06 0)
(-2.73014 -5.69468e-06 0)
(-2.70794 -5.55686e-06 0)
(-2.68622 -5.42419e-06 0)
(-2.66497 -5.29643e-06 0)
(-2.64417 -5.17331e-06 0)
(-2.6238 -5.05462e-06 0)
(-2.60385 -4.94014e-06 0)
(-2.58429 -4.82965e-06 0)
(-2.56513 -4.72298e-06 0)
(-2.54635 -4.61994e-06 0)
(-2.52793 -4.52036e-06 0)
(-2.50986 -4.42408e-06 0)
(-2.49213 -4.33096e-06 0)
(-2.47473 -4.24085e-06 0)
(-2.45765 -4.15362e-06 0)
(-2.44089 -4.06914e-06 0)
(-2.42442 -3.9873e-06 0)
(-2.40824 -3.90798e-06 0)
(-2.39235 -3.83108e-06 0)
(-2.37673 -3.75649e-06 0)
(-2.36137 -3.68413e-06 0)
(-2.34628 -3.61389e-06 0)
(-2.33143 -3.5457e-06 0)
(-2.31683 -3.47948e-06 0)
(-2.30247 -3.41514e-06 0)
(-2.28834 -3.35262e-06 0)
(-2.27443 -3.29184e-06 0)
(-2.26075 -3.23273e-06 0)
(-2.24727 -3.17524e-06 0)
(-2.234 -3.11931e-06 0)
(-2.22094 -3.06487e-06 0)
(-2.20807 -3.01187e-06 0)
(-2.19539 -2.96026e-06 0)
(-2.1829 -2.90999e-06 0)
(-2.17059 -2.86102e-06 0)
(-2.15846 -2.81329e-06 0)
(-2.1465 -2.76677e-06 0)
(-2.13471 -2.72141e-06 0)
(-2.12309 -2.67717e-06 0)
(-2.11163 -2.63402e-06 0)
(-2.10032 -2.59192e-06 0)
(-2.08917 -2.55083e-06 0)
(-2.07817 -2.51072e-06 0)
(-2.06732 -2.47156e-06 0)
(-2.05661 -2.43332e-06 0)
(-2.04604 -2.39597e-06 0)
(-2.0356 -2.35948e-06 0)
(-2.0253 -2.32382e-06 0)
(-2.01513 -2.28897e-06 0)
(-2.00509 -2.25491e-06 0)
(-1.99518 -2.2216e-06 0)
(-1.98539 -2.18903e-06 0)
(-1.97571 -2.15717e-06 0)
(-1.96616 -2.12601e-06 0)
(-1.95672 -2.09552e-06 0)
(-1.9474 -2.06568e-06 0)
(-1.93818 -2.03647e-06 0)
(-1.92907 -2.00788e-06 0)
(-1.92007 -1.97989e-06 0)
(-1.91118 -1.95248e-06 0)
(-1.90238 -1.92563e-06 0)
(-1.89369 -1.89933e-06 0)
(-1.88509 -1.87356e-06 0)
(-1.87659 -1.84831e-06 0)
(-1.86819 -1.82357e-06 0)
(-1.85987 -1.79931e-06 0)
(-1.85165 -1.77554e-06 0)
(-1.84352 -1.75223e-06 0)
(-1.83547 -1.72937e-06 0)
(-1.82751 -1.70695e-06 0)
(-1.81964 -1.68496e-06 0)
(-1.81184 -1.66339e-06 0)
(-1.80413 -1.64222e-06 0)
(-1.7965 -1.62145e-06 0)
(-1.78895 -1.60107e-06 0)
(-1.78147 -1.58107e-06 0)
(-1.77407 -1.56143e-06 0)
(-1.76674 -1.54215e-06 0)
(-1.75949 -1.52322e-06 0)
(-1.75231 -1.50463e-06 0)
(-1.7452 -1.48637e-06 0)
(-1.73816 -1.46844e-06 0)
(-1.73119 -1.45083e-06 0)
(-1.72428 -1.43352e-06 0)
(-1.71744 -1.41651e-06 0)
(-1.71067 -1.3998e-06 0)
(-1.70396 -1.38338e-06 0)
(-1.69731 -1.36724e-06 0)
(-1.69072 -1.35137e-06 0)
(-1.6842 -1.33577e-06 0)
(-1.67773 -1.32043e-06 0)
(-1.67133 -1.30535e-06 0)
(-1.66498 -1.29052e-06 0)
(-1.65869 -1.27593e-06 0)
(-1.65245 -1.26159e-06 0)
(-1.64627 -1.24747e-06 0)
(-1.64015 -1.23359e-06 0)
(-1.63408 -1.21993e-06 0)
(-1.62806 -1.20649e-06 0)
(-1.62209 -1.19327e-06 0)
(-1.61618 -1.18025e-06 0)
(-1.61031 -1.16744e-06 0)
(-1.6045 -1.15484e-06 0)
(-1.59873 -1.14245e-06 0)
(-1.59302 -1.13012e-06 0)
(-1.58735 -1.11843e-06 0)
(-1.58172 -1.10634e-06 0)
(-1.57615 -1.0932e-06 0)
(-1.57094 -1.08302e-06 0)
(-1.56604 -1.07479e-06 0)
(-1.56112 -1.06444e-06 0)
(-1.55621 -1.05375e-06 0)
(-1.55129 -1.04374e-06 0)
(-1.54636 -1.03371e-06 0)
(-1.54143 -1.02379e-06 0)
(-1.53649 -1.01394e-06 0)
(-1.53155 -1.00415e-06 0)
(-1.5266 -9.9442e-07 0)
(-1.52164 -9.8475e-07 0)
(-1.51668 -9.75136e-07 0)
(-1.51172 -9.65577e-07 0)
(-1.50675 -9.56074e-07 0)
(-1.50178 -9.46625e-07 0)
(-1.4968 -9.37232e-07 0)
(-1.49182 -9.27894e-07 0)
(-1.48683 -9.18612e-07 0)
(-1.48184 -9.09385e-07 0)
(-1.47685 -9.00214e-07 0)
(-1.47185 -8.91099e-07 0)
(-1.46685 -8.8204e-07 0)
(-1.46185 -8.73038e-07 0)
(-1.45685 -8.64092e-07 0)
(-1.45184 -8.55203e-07 0)
(-1.44683 -8.46371e-07 0)
(-1.44182 -8.37597e-07 0)
(-1.43681 -8.28881e-07 0)
(-1.43179 -8.20222e-07 0)
(-1.42677 -8.11621e-07 0)
(-1.42176 -8.03078e-07 0)
(-1.41674 -7.94594e-07 0)
(-1.41172 -7.86168e-07 0)
(-1.4067 -7.77801e-07 0)
(-1.40168 -7.69492e-07 0)
(-1.39666 -7.61243e-07 0)
(-1.39164 -7.53052e-07 0)
(-1.38662 -7.4492e-07 0)
(-1.3816 -7.36848e-07 0)
(-1.37658 -7.28835e-07 0)
(-1.37156 -7.20882e-07 0)
(-1.36654 -7.12987e-07 0)
(-1.36152 -7.05153e-07 0)
(-1.35651 -6.97378e-07 0)
(-1.35149 -6.89662e-07 0)
(-1.34648 -6.82006e-07 0)
(-1.34147 -6.7441e-07 0)
(-1.33646 -6.66873e-07 0)
(-1.33145 -6.59396e-07 0)
(-1.32645 -6.51979e-07 0)
(-1.32145 -6.44621e-07 0)
(-1.31645 -6.37322e-07 0)
(-1.31145 -6.30084e-07 0)
(-1.30646 -6.22904e-07 0)
(-1.30147 -6.15784e-07 0)
(-1.29648 -6.08724e-07 0)
(-1.2915 -6.01723e-07 0)
(-1.28652 -5.94781e-07 0)
(-1.28155 -5.87898e-07 0)
(-1.27658 -5.81074e-07 0)
(-1.27161 -5.74309e-07 0)
(-1.26665 -5.67602e-07 0)
(-1.2617 -5.60955e-07 0)
(-1.25674 -5.54366e-07 0)
(-1.2518 -5.47835e-07 0)
(-1.24686 -5.41362e-07 0)
(-1.24192 -5.34948e-07 0)
(-1.23699 -5.28592e-07 0)
(-1.23207 -5.22293e-07 0)
(-1.22715 -5.16052e-07 0)
(-1.22224 -5.09868e-07 0)
(-1.21733 -5.03742e-07 0)
(-1.21243 -4.97673e-07 0)
(-1.20754 -4.9166e-07 0)
(-1.20265 -4.85704e-07 0)
(-1.19777 -4.79805e-07 0)
(-1.1929 -4.73962e-07 0)
(-1.18803 -4.68175e-07 0)
(-1.18317 -4.62443e-07 0)
(-1.17832 -4.56767e-07 0)
(-1.17348 -4.51147e-07 0)
(-1.16864 -4.45581e-07 0)
(-1.16381 -4.4007e-07 0)
(-1.15899 -4.34614e-07 0)
(-1.15418 -4.29212e-07 0)
(-1.14937 -4.23864e-07 0)
(-1.14458 -4.1857e-07 0)
(-1.13979 -4.13329e-07 0)
(-1.13501 -4.08141e-07 0)
(-1.13024 -4.03007e-07 0)
(-1.12548 -3.97925e-07 0)
(-1.12073 -3.92895e-07 0)
(-1.11599 -3.87917e-07 0)
(-1.11125 -3.82991e-07 0)
(-1.10653 -3.78117e-07 0)
(-1.10182 -3.73294e-07 0)
(-1.09711 -3.68521e-07 0)
(-1.09242 -3.63799e-07 0)
(-1.08773 -3.59128e-07 0)
(-1.08305 -3.54506e-07 0)
(-1.07839 -3.49934e-07 0)
(-1.07373 -3.45411e-07 0)
(-1.06909 -3.40937e-07 0)
(-1.06445 -3.36511e-07 0)
(-1.05983 -3.32134e-07 0)
(-1.05522 -3.27805e-07 0)
(-1.05061 -3.23524e-07 0)
(-1.04602 -3.1929e-07 0)
(-1.04144 -3.15102e-07 0)
(-1.03687 -3.10962e-07 0)
(-1.03231 -3.06868e-07 0)
(-1.02776 -3.02819e-07 0)
(-1.02323 -2.98816e-07 0)
(-1.0187 -2.94859e-07 0)
(-1.01419 -2.90946e-07 0)
(-1.00969 -2.87079e-07 0)
(-1.0052 -2.83255e-07 0)
(-1.00072 -2.79475e-07 0)
(-0.996251 -2.75739e-07 0)
(-0.991796 -2.72045e-07 0)
(-0.987353 -2.68395e-07 0)
(-0.982922 -2.64787e-07 0)
(-0.978503 -2.61222e-07 0)
(-0.974096 -2.57698e-07 0)
(-0.969702 -2.54215e-07 0)
(-0.965319 -2.50774e-07 0)
(-0.96095 -2.47373e-07 0)
(-0.956592 -2.44013e-07 0)
(-0.952247 -2.40693e-07 0)
(-0.947915 -2.37413e-07 0)
(-0.943595 -2.34171e-07 0)
(-0.939288 -2.30969e-07 0)
(-0.934994 -2.27806e-07 0)
(-0.930713 -2.2468e-07 0)
(-0.926444 -2.21593e-07 0)
(-0.922189 -2.18543e-07 0)
(-0.917946 -2.15531e-07 0)
(-0.913717 -2.12555e-07 0)
(-0.909501 -2.09616e-07 0)
(-0.905297 -2.06713e-07 0)
(-0.901107 -2.03846e-07 0)
(-0.896931 -2.01015e-07 0)
(-0.892767 -1.98218e-07 0)
(-0.888617 -1.95457e-07 0)
(-0.88448 -1.9273e-07 0)
(-0.880357 -1.90037e-07 0)
(-0.876247 -1.87378e-07 0)
(-0.872151 -1.84753e-07 0)
(-0.868068 -1.8216e-07 0)
(-0.863999 -1.79601e-07 0)
(-0.859943 -1.77074e-07 0)
(-0.855901 -1.74579e-07 0)
(-0.851873 -1.72116e-07 0)
(-0.847858 -1.69684e-07 0)
(-0.843857 -1.67284e-07 0)
(-0.83987 -1.64914e-07 0)
(-0.835897 -1.62575e-07 0)
(-0.831937 -1.60266e-07 0)
(-0.827992 -1.57987e-07 0)
(-0.82406 -1.55738e-07 0)
(-0.820142 -1.53517e-07 0)
(-0.816238 -1.51326e-07 0)
(-0.812348 -1.49164e-07 0)
(-0.808472 -1.47029e-07 0)
(-0.80461 -1.44923e-07 0)
(-0.800762 -1.42844e-07 0)
(-0.796928 -1.40793e-07 0)
(-0.793107 -1.38769e-07 0)
(-0.789301 -1.36771e-07 0)
(-0.785509 -1.348e-07 0)
(-0.781731 -1.32855e-07 0)
(-0.777967 -1.30936e-07 0)
(-0.774218 -1.29042e-07 0)
(-0.770482 -1.27173e-07 0)
(-0.76676 -1.25329e-07 0)
(-0.763053 -1.23508e-07 0)
(-0.75936 -1.21715e-07 0)
(-0.75568 -1.19939e-07 0)
(-0.752016 -1.18152e-07 0)
(-0.748367 -1.16513e-07 0)
(-0.744726 -1.14886e-07 0)
(-0.740693 -1.12899e-07 0)
(-0.73632 -1.10789e-07 0)
(-0.732026 -1.08888e-07 0)
(-0.727801 -1.0709e-07 0)
(-0.723648 -1.0528e-07 0)
(-0.719565 -1.03505e-07 0)
(-0.71555 -1.01775e-07 0)
(-0.711602 -1.00092e-07 0)
(-0.70772 -9.84545e-08 0)
(-0.7039 -9.68602e-08 0)
(-0.700142 -9.53081e-08 0)
(-0.696444 -9.3797e-08 0)
(-0.692804 -9.23255e-08 0)
(-0.689221 -9.0892e-08 0)
(-0.685693 -8.94952e-08 0)
(-0.682219 -8.81339e-08 0)
(-0.678798 -8.68068e-08 0)
(-0.675428 -8.55127e-08 0)
(-0.672108 -8.42505e-08 0)
(-0.668836 -8.30191e-08 0)
(-0.665613 -8.18174e-08 0)
(-0.662435 -8.06444e-08 0)
(-0.659304 -7.94993e-08 0)
(-0.656216 -7.8381e-08 0)
(-0.653171 -7.72888e-08 0)
(-0.650169 -7.62217e-08 0)
(-0.647208 -7.51791e-08 0)
(-0.644288 -7.416e-08 0)
(-0.641407 -7.31638e-08 0)
(-0.638564 -7.21897e-08 0)
(-0.635759 -7.12371e-08 0)
(-0.632991 -7.03054e-08 0)
(-0.630259 -6.93938e-08 0)
(-0.627562 -6.85018e-08 0)
(-0.624899 -6.76289e-08 0)
(-0.622271 -6.67743e-08 0)
(-0.619675 -6.59378e-08 0)
(-0.617112 -6.51186e-08 0)
(-0.614581 -6.43163e-08 0)
(-0.612081 -6.35304e-08 0)
(-0.609611 -6.27605e-08 0)
(-0.607171 -6.20061e-08 0)
(-0.60476 -6.12668e-08 0)
(-0.602377 -6.05422e-08 0)
(-0.600023 -5.98318e-08 0)
(-0.597697 -5.91354e-08 0)
(-0.595397 -5.84524e-08 0)
(-0.593124 -5.77827e-08 0)
(-0.590876 -5.71258e-08 0)
(-0.588654 -5.64813e-08 0)
(-0.586458 -5.58491e-08 0)
(-0.584285 -5.52287e-08 0)
(-0.582137 -5.46199e-08 0)
(-0.580012 -5.40223e-08 0)
(-0.57791 -5.34358e-08 0)
(-0.575832 -5.286e-08 0)
(-0.573775 -5.22947e-08 0)
(-0.57174 -5.17397e-08 0)
(-0.569727 -5.11947e-08 0)
(-0.567735 -5.06594e-08 0)
(-0.565764 -5.01337e-08 0)
(-0.563813 -4.96173e-08 0)
(-0.561882 -4.91101e-08 0)
(-0.559971 -4.86119e-08 0)
(-0.558079 -4.81224e-08 0)
(-0.556206 -4.76416e-08 0)
(-0.554352 -4.71692e-08 0)
(-0.552516 -4.67052e-08 0)
(-0.550698 -4.62493e-08 0)
(-0.548898 -4.58016e-08 0)
(-0.547115 -4.53617e-08 0)
(-0.545349 -4.49298e-08 0)
(-0.5436 -4.45057e-08 0)
(-0.541867 -4.40895e-08 0)
(-0.54015 -4.3681e-08 0)
(-0.53845 -4.32804e-08 0)
(-0.536765 -4.28878e-08 0)
(-0.535094 -4.25034e-08 0)
(-0.533439 -4.21274e-08 0)
(-0.531799 -4.17603e-08 0)
(-0.530172 -4.14027e-08 0)
(-0.52856 -4.10556e-08 0)
(-0.52696 -4.07203e-08 0)
(-0.525374 -4.0398e-08 0)
(-0.5238 -4.00922e-08 0)
(-0.522237 -3.9815e-08 0)
(-0.520685 -3.95362e-08 0)
(-0.519144 -3.93153e-08 0)
(-0.517609 -3.93762e-08 0)
(-0.516064 -3.86949e-08 0)
(-0.514582 -3.78256e-08 0)
(-0.513104 -4.99884e-08 0)
(-0.510671 -1.39931e-08 0)
(-0.512021 -3.69024e-08 0)
(-0.507741 -5.56396e-08 0)
)
;
    }
    symmetry
    {
        type            symmetryPlane;
    }
    frontAndBack
    {
        type            empty;
    }
}


// ************************************************************************* //
