/*--------------------------------*- C++ -*----------------------------------*\
| =========                 |                                                 |
| \\      /  F ield         | OpenFOAM: The Open Source CFD Toolbox           |
|  \\    /   O peration     | Version:  v2012                                 |
|   \\  /    A nd           | Website:  www.openfoam.com                      |
|    \\/     M anipulation  |                                                 |
\*---------------------------------------------------------------------------*/
FoamFile
{
    version     2.0;
    format      ascii;
    class       volScalarField;
    location    "49";
    object      yPlus;
}
// * * * * * * * * * * * * * * * * * * * * * * * * * * * * * * * * * * * * * //

dimensions      [0 0 0 0 0 0 0];


internalField   uniform 0;

boundaryField
{
    inlet
    {
        type            calculated;
        value           uniform 0;
    }
    outlet
    {
        type            calculated;
        value           uniform 0;
    }
    topWall
    {
        type            calculated;
        value           nonuniform List<scalar> 
545
(
0.0708345
0.122139
0.156687
0.18417
0.207425
0.227759
0.245907
0.262332
0.277349
0.291184
0.304008
0.315952
0.327121
0.337599
0.347457
0.356755
0.365541
0.373861
0.38175
0.389243
0.396369
0.403153
0.409618
0.415786
0.421675
0.427303
0.432685
0.437836
0.442768
0.447494
0.452026
0.456372
0.460544
0.46455
0.468398
0.472096
0.475652
0.479072
0.482362
0.485529
0.488579
0.491516
0.494346
0.497073
0.499702
0.502237
0.504683
0.507042
0.509319
0.511516
0.513638
0.515687
0.517667
0.519579
0.521427
0.523213
0.524939
0.526609
0.528223
0.529785
0.531295
0.532757
0.534171
0.53554
0.536865
0.538148
0.53939
0.540594
0.541759
0.542888
0.543981
0.545041
0.546054
0.547034
0.548005
0.548967
0.549921
0.550866
0.551802
0.552731
0.553651
0.554563
0.555466
0.556362
0.55725
0.55813
0.559003
0.559867
0.560725
0.561574
0.562416
0.563251
0.564079
0.564899
0.565713
0.566519
0.567245
0.567893
0.568541
0.569189
0.569835
0.570481
0.571127
0.571771
0.572415
0.573059
0.573701
0.574343
0.574984
0.575625
0.576265
0.576904
0.577542
0.578179
0.578816
0.579452
0.580088
0.580722
0.581356
0.581989
0.582621
0.583252
0.583883
0.584513
0.585141
0.58577
0.586397
0.587023
0.587649
0.588273
0.588897
0.58952
0.590142
0.590763
0.591383
0.592003
0.592621
0.593239
0.593855
0.594471
0.595085
0.595699
0.596312
0.596923
0.597534
0.598144
0.598753
0.59936
0.599967
0.600573
0.601178
0.601781
0.602384
0.602985
0.603586
0.604185
0.604784
0.605381
0.605977
0.606572
0.607166
0.607758
0.60835
0.608941
0.60953
0.610118
0.610705
0.611291
0.611875
0.612459
0.613041
0.613622
0.614202
0.61478
0.615357
0.615933
0.616508
0.617082
0.617654
0.618225
0.618794
0.619363
0.619929
0.620495
0.621059
0.621622
0.622184
0.622744
0.623303
0.62386
0.624416
0.624971
0.625524
0.626076
0.626626
0.627175
0.627723
0.628269
0.628813
0.629356
0.629898
0.630438
0.630976
0.631513
0.632048
0.632582
0.633115
0.633645
0.634174
0.634702
0.635228
0.635752
0.636275
0.636796
0.637316
0.637834
0.63835
0.638864
0.639377
0.639888
0.640398
0.640905
0.641411
0.641916
0.642418
0.642919
0.643418
0.643915
0.644411
0.644904
0.645396
0.645886
0.646374
0.646861
0.647345
0.647828
0.648309
0.648788
0.649265
0.64974
0.650213
0.650684
0.651154
0.651621
0.652087
0.65255
0.653012
0.653471
0.653929
0.654384
0.654838
0.655289
0.655739
0.656186
0.656631
0.657075
0.657516
0.657955
0.658392
0.658827
0.659259
0.65969
0.660119
0.660545
0.660969
0.661391
0.661811
0.662228
0.662644
0.663034
0.663401
0.663769
0.664139
0.66451
0.664882
0.665256
0.66563
0.666006
0.666383
0.666762
0.667141
0.667521
0.667902
0.668284
0.668667
0.669051
0.669435
0.66982
0.670206
0.670593
0.670979
0.671367
0.671754
0.672143
0.672531
0.672919
0.673308
0.673697
0.674085
0.674474
0.674862
0.67525
0.675638
0.676026
0.676412
0.676799
0.677184
0.677569
0.677953
0.678336
0.678718
0.679098
0.679478
0.679856
0.680233
0.680608
0.680981
0.681352
0.681722
0.682089
0.682455
0.682818
0.683178
0.683536
0.683891
0.684244
0.684593
0.68494
0.685283
0.685623
0.685959
0.686292
0.686621
0.686945
0.687266
0.687582
0.687894
0.688202
0.688504
0.688802
0.689094
0.689381
0.689663
0.689939
0.690209
0.690473
0.690731
0.690982
0.691227
0.691465
0.691696
0.69192
0.692137
0.692346
0.692547
0.69274
0.692925
0.693101
0.693269
0.693428
0.693578
0.693719
0.69385
0.693972
0.694084
0.694185
0.694276
0.694356
0.694426
0.694485
0.694532
0.694568
0.694592
0.694604
0.694604
0.694591
0.694566
0.694528
0.694477
0.694412
0.694334
0.694242
0.694136
0.694016
0.693881
0.693732
0.693567
0.693388
0.693193
0.692983
0.692757
0.692514
0.692256
0.691981
0.69169
0.691382
0.691057
0.690715
0.690356
0.689979
0.689584
0.689171
0.688741
0.688292
0.687825
0.68734
0.686836
0.686313
0.685771
0.685211
0.684631
0.684032
0.683414
0.682777
0.68212
0.681444
0.680748
0.680033
0.679298
0.678543
0.677768
0.676974
0.676161
0.675327
0.674474
0.673601
0.672709
0.671797
0.670866
0.669915
0.668945
0.667956
0.666948
0.665921
0.664875
0.663811
0.662728
0.661626
0.660507
0.65937
0.658215
0.657042
0.655853
0.654646
0.653423
0.652183
0.650928
0.649656
0.648369
0.647067
0.645602
0.643982
0.642363
0.640745
0.63913
0.637519
0.635912
0.63431
0.632714
0.631124
0.629541
0.627966
0.626399
0.624842
0.623293
0.621755
0.620227
0.61871
0.617204
0.61571
0.614228
0.612759
0.611303
0.609861
0.608431
0.607016
0.605616
0.604229
0.602858
0.601502
0.600162
0.598837
0.597528
0.596235
0.594958
0.593699
0.592456
0.59123
0.590021
0.58883
0.587656
0.586501
0.585363
0.584243
0.583142
0.582059
0.580995
0.57995
0.578923
0.577916
0.576928
0.57596
0.575011
0.574082
0.573173
0.572283
0.571414
0.570566
0.569738
0.56893
0.568143
0.567377
0.566632
0.565908
0.565205
0.564524
0.563864
0.563226
0.562609
0.562015
0.561442
0.560892
0.560363
0.559857
0.559374
0.558913
0.558474
0.558058
0.557665
0.557295
0.556948
0.556624
0.556323
0.556045
0.555791
0.555559
0.555352
0.555167
0.555006
0.554868
0.554754
0.554664
0.554596
0.554556
0.554526
)
;
    }
    bottomWall
    {
        type            calculated;
        value           nonuniform List<scalar> 
449
(
0.139441
0.0889544
0.0758049
0.0694336
0.0652508
0.0621248
0.0596301
0.0575668
0.0558161
0.0543001
0.0529666
0.0517792
0.0507114
0.0497429
0.0488583
0.0480453
0.0472938
0.0465961
0.0459454
0.0453363
0.0447642
0.0442252
0.043716
0.0432336
0.0427757
0.0423401
0.0419247
0.0415281
0.0411486
0.0407851
0.0404362
0.040101
0.0397785
0.0394678
0.0391682
0.0388789
0.0385994
0.038329
0.0380672
0.0378135
0.0375675
0.0373287
0.0370968
0.0368714
0.0366522
0.0364388
0.0362311
0.0360286
0.0358312
0.0356387
0.0354508
0.0352673
0.0350881
0.0349129
0.0347416
0.034574
0.03441
0.0342495
0.0340922
0.0339382
0.0337872
0.0336392
0.033494
0.0333516
0.0332118
0.0330746
0.0329398
0.0328075
0.0326775
0.0325497
0.0324241
0.0323005
0.032179
0.0320595
0.0319419
0.0318262
0.0317122
0.0316
0.0314895
0.0313807
0.0312734
0.0311678
0.0310636
0.0309609
0.0308597
0.0307598
0.0306614
0.0305642
0.0304684
0.0303738
0.0302804
0.0301883
0.0300973
0.0300075
0.0299188
0.0298312
0.0297446
0.0296591
0.0295746
0.0294911
0.0294086
0.029327
0.0292464
0.0291666
0.0290878
0.0290098
0.0289327
0.0288564
0.028781
0.0287063
0.0286325
0.0285594
0.028487
0.0284154
0.0283445
0.0282744
0.0282049
0.0281361
0.028068
0.0280005
0.0279337
0.0278676
0.027802
0.0277371
0.0276728
0.027609
0.0275458
0.0274833
0.0274212
0.0273597
0.0272988
0.0272384
0.0271785
0.0271191
0.0270603
0.0270019
0.026944
0.0268866
0.0268297
0.0267732
0.0267172
0.0266617
0.0266066
0.0265519
0.0264977
0.0264438
0.0263905
0.0263375
0.0262849
0.0262327
0.0261809
0.0261295
0.0260785
0.0260279
0.0259776
0.0259277
0.0258781
0.0258289
0.0257801
0.0257316
0.0256834
0.0256356
0.0255881
0.025541
0.0254941
0.0254476
0.0254014
0.0253555
0.0253099
0.0252646
0.0252196
0.0251749
0.0251305
0.0250889
0.0250497
0.0250104
0.024971
0.0249315
0.0248919
0.0248521
0.0248123
0.0247723
0.0247323
0.0246921
0.0246518
0.0246115
0.024571
0.0245304
0.0244897
0.0244489
0.024408
0.024367
0.024326
0.0242848
0.0242435
0.0242021
0.0241607
0.0241191
0.0240775
0.0240357
0.0239939
0.023952
0.02391
0.0238679
0.0238258
0.0237835
0.0237412
0.0236988
0.0236563
0.0236138
0.0235711
0.0235284
0.0234856
0.0234428
0.0233998
0.0233568
0.0233138
0.0232707
0.0232275
0.0231842
0.0231409
0.0230975
0.023054
0.0230105
0.022967
0.0229234
0.0228797
0.0228359
0.0227922
0.0227483
0.0227044
0.0226605
0.0226165
0.0225725
0.0225284
0.0224843
0.0224401
0.0223959
0.0223517
0.0223074
0.0222631
0.0222187
0.0221743
0.0221299
0.0220854
0.0220409
0.0219964
0.0219519
0.0219073
0.0218627
0.021818
0.0217734
0.0217287
0.021684
0.0216393
0.0215945
0.0215497
0.021505
0.0214602
0.0214153
0.0213705
0.0213257
0.0212808
0.0212359
0.0211911
0.0211462
0.0211013
0.0210564
0.0210115
0.0209666
0.0209216
0.0208767
0.0208318
0.0207869
0.020742
0.0206971
0.0206522
0.0206073
0.0205624
0.0205175
0.0204726
0.0204277
0.0203828
0.020338
0.0202931
0.0202483
0.0202035
0.0201587
0.0201139
0.0200691
0.0200243
0.0199796
0.0199349
0.0198902
0.0198455
0.0198008
0.0197562
0.0197116
0.019667
0.0196224
0.0195779
0.0195334
0.0194889
0.0194444
0.0194
0.0193556
0.0193112
0.0192669
0.0192226
0.0191783
0.0191341
0.0190899
0.0190457
0.0190016
0.0189575
0.0189135
0.0188695
0.0188255
0.0187816
0.0187377
0.0186938
0.01865
0.0186062
0.0185625
0.0185188
0.0184752
0.0184316
0.0183881
0.0183446
0.0183012
0.0182578
0.0182144
0.0181711
0.0181279
0.0180847
0.0180415
0.0179984
0.0179554
0.0179124
0.0178695
0.0178266
0.0177838
0.017741
0.0176983
0.0176556
0.017613
0.0175705
0.017528
0.0174856
0.0174432
0.0174009
0.0173586
0.0173165
0.0172743
0.0172275
0.0171765
0.0171264
0.0170769
0.0170281
0.01698
0.0169325
0.0168858
0.0168396
0.0167941
0.0167492
0.0167049
0.0166612
0.0166181
0.0165755
0.0165335
0.016492
0.016451
0.0164105
0.0163705
0.016331
0.016292
0.0162534
0.0162153
0.0161777
0.0161404
0.0161036
0.0160673
0.0160313
0.0159957
0.0159606
0.0159258
0.0158914
0.0158573
0.0158237
0.0157904
0.0157574
0.0157248
0.0156925
0.0156605
0.0156289
0.0155976
0.0155666
0.0155359
0.0155055
0.0154754
0.0154456
0.0154161
0.0153869
0.0153579
0.0153292
0.0153008
0.0152727
0.0152448
0.0152171
0.0151897
0.0151626
0.0151357
0.015109
0.0150826
0.0150563
0.0150304
0.0150046
0.0149791
0.0149537
0.0149286
0.0149037
0.014879
0.0148545
0.0148302
0.0148061
0.0147822
0.0147585
0.0147349
0.0147116
0.0146884
0.0146654
0.0146426
0.0146199
0.0145974
0.0145751
0.0145529
0.0145309
0.014509
0.0144872
0.0144656
0.0144441
0.0144227
0.0144013
0.0143798
0.0143592
0.0143385
0.0143045
0.0143234
0.0142634
)
;
    }
    symmetry
    {
        type            symmetryPlane;
    }
    frontAndBack
    {
        type            empty;
    }
}


// ************************************************************************* //
