/*--------------------------------*- C++ -*----------------------------------*\
| =========                 |                                                 |
| \\      /  F ield         | OpenFOAM: The Open Source CFD Toolbox           |
|  \\    /   O peration     | Version:  v2012                                 |
|   \\  /    A nd           | Website:  www.openfoam.com                      |
|    \\/     M anipulation  |                                                 |
\*---------------------------------------------------------------------------*/
FoamFile
{
    version     2.0;
    format      ascii;
    class       volScalarField;
    location    "57";
    object      k;
}
// * * * * * * * * * * * * * * * * * * * * * * * * * * * * * * * * * * * * * //

dimensions      [0 2 -2 0 0 0 0];


internalField   nonuniform List<scalar> 
209825
(
0.0010239
0.000932298
0.000856649
0.000793172
0.000739871
0.000695145
0.000657795
0.00062651
0.00060031
0.000578184
0.000559455
0.000543434
0.000529697
0.000517791
0.000507453
0.000498389
0.000490428
0.000483379
0.000477121
0.000471538
0.000466533
0.00046204
0.000457972
0.000454308
0.000450958
0.000447932
0.000445141
0.000442617
0.000440266
0.000438142
0.000436142
0.000434341
0.000432625
0.000431087
0.000429604
0.000428282
0.000426993
0.000425851
0.000424723
0.000423731
0.000422739
0.000421876
0.000420997
0.000420242
0.000419463
0.000418801
0.000418106
0.000417525
0.000416903
0.000416392
0.000415833
0.000415384
0.000414879
0.000414482
0.000414028
0.000413675
0.000413267
0.000412953
0.000412587
0.000412308
0.000411976
0.00041173
0.000411429
0.000411212
0.000410939
0.000410745
0.000410497
0.000410326
0.000410103
0.00040995
0.000409747
0.000409609
0.000409429
0.00040931
0.000409142
0.00040903
0.000408871
0.000408766
0.000408615
0.000408515
0.000408371
0.000408277
0.00040814
0.000408053
0.000407926
0.000407843
0.000407728
0.000407656
0.000407544
0.000407489
0.000407395
0.000407268
0.000407363
0.00041386
0.000434726
0.0010465
0.0010239
0.000932298
0.000856649
0.000793173
0.000739871
0.000695145
0.000657794
0.000626509
0.000600308
0.000578181
0.000559452
0.000543431
0.000529693
0.000517786
0.000507448
0.000498384
0.000490422
0.000483373
0.000477115
0.000471532
0.000466526
0.000462032
0.000457965
0.0004543
0.00045095
0.000447924
0.000445132
0.000442608
0.000440257
0.000438133
0.000436133
0.000434332
0.000432616
0.000431078
0.000429595
0.000428273
0.000426984
0.000425842
0.000424714
0.000423722
0.000422729
0.000421866
0.000420987
0.000420232
0.000419453
0.000418791
0.000418096
0.000417515
0.000416893
0.000416382
0.000415823
0.000415374
0.000414869
0.000414471
0.000414017
0.000413664
0.000413257
0.000412943
0.000412576
0.000412297
0.000411966
0.00041172
0.000411418
0.000411201
0.000410928
0.000410734
0.000410486
0.000410315
0.000410092
0.000409939
0.000409736
0.000409598
0.000409418
0.000409299
0.000409131
0.000409019
0.00040886
0.000408755
0.000408604
0.000408504
0.00040836
0.000408266
0.000408129
0.000408042
0.000407915
0.000407832
0.000407717
0.000407645
0.000407532
0.000407478
0.000407383
0.000407257
0.000407352
0.000413861
0.000434721
0.00104709
0.0010239
0.000932298
0.00085665
0.000793173
0.000739871
0.000695143
0.00065779
0.000626503
0.0006003
0.00057817
0.000559439
0.000543415
0.000529675
0.000517767
0.000507427
0.000498361
0.000490397
0.000483347
0.000477088
0.000471503
0.000466496
0.000462002
0.000457934
0.000454268
0.000450917
0.000447891
0.000445098
0.000442574
0.000440222
0.000438098
0.000436097
0.000434295
0.000432579
0.00043104
0.000429557
0.000428235
0.000426945
0.000425803
0.000424675
0.000423682
0.00042269
0.000421826
0.000420947
0.000420192
0.000419412
0.000418751
0.000418055
0.000417474
0.000416851
0.000416341
0.000415781
0.000415332
0.000414827
0.000414429
0.000413976
0.000413622
0.000413214
0.0004129
0.000412534
0.000412254
0.000411923
0.000411677
0.000411375
0.000411158
0.000410885
0.000410691
0.000410443
0.000410272
0.000410049
0.000409895
0.000409692
0.000409555
0.000409374
0.000409255
0.000409087
0.000408975
0.000408816
0.000408711
0.00040856
0.00040846
0.000408316
0.000408222
0.000408085
0.000407998
0.00040787
0.000407788
0.000407672
0.0004076
0.000407488
0.000407433
0.000407339
0.000407212
0.000407308
0.000413841
0.000434688
0.00104827
0.0010239
0.000932298
0.00085665
0.000793174
0.000739871
0.000695141
0.000657784
0.000626493
0.000600286
0.000578152
0.000559416
0.000543388
0.000529645
0.000517733
0.00050739
0.000498322
0.000490356
0.000483303
0.000477042
0.000471456
0.000466447
0.000461951
0.000457881
0.000454214
0.000450862
0.000447835
0.000445041
0.000442516
0.000440163
0.000438038
0.000436036
0.000434234
0.000432517
0.000430977
0.000429494
0.000428171
0.000426881
0.000425738
0.000424609
0.000423617
0.000422623
0.000421759
0.00042088
0.000420125
0.000419345
0.000418683
0.000417987
0.000417405
0.000416782
0.000416272
0.000415712
0.000415263
0.000414757
0.000414359
0.000413905
0.000413552
0.000413144
0.000412829
0.000412463
0.000412183
0.000411852
0.000411605
0.000411303
0.000411086
0.000410813
0.000410618
0.000410371
0.000410199
0.000409976
0.000409823
0.000409619
0.000409482
0.000409301
0.000409182
0.000409014
0.000408902
0.000408743
0.000408638
0.000408486
0.000408387
0.000408242
0.000408148
0.000408011
0.000407923
0.000407796
0.000407714
0.000407598
0.000407526
0.000407413
0.000407359
0.000407264
0.000407138
0.000407234
0.000413804
0.000434631
0.00104982
0.0010239
0.000932298
0.000856651
0.000793175
0.00073987
0.000695137
0.000657776
0.000626478
0.000600265
0.000578125
0.000559384
0.000543351
0.000529602
0.000517686
0.000507339
0.000498267
0.000490297
0.000483241
0.000476977
0.000471388
0.000466377
0.000461879
0.000457807
0.000454138
0.000450785
0.000447755
0.00044496
0.000442434
0.00044008
0.000437953
0.00043595
0.000434147
0.00043243
0.000430889
0.000429405
0.000428081
0.00042679
0.000425646
0.000424517
0.000423524
0.00042253
0.000421665
0.000420786
0.00042003
0.000419249
0.000418586
0.00041789
0.000417308
0.000416685
0.000416174
0.000415614
0.000415164
0.000414658
0.00041426
0.000413806
0.000413452
0.000413044
0.000412729
0.000412362
0.000412083
0.000411751
0.000411504
0.000411202
0.000410984
0.000410711
0.000410517
0.000410269
0.000410097
0.000409873
0.00040972
0.000409517
0.000409379
0.000409198
0.000409079
0.000408911
0.000408799
0.000408639
0.000408534
0.000408382
0.000408283
0.000408137
0.000408044
0.000407906
0.000407819
0.000407691
0.000407609
0.000407493
0.00040742
0.000407308
0.000407253
0.000407159
0.000407032
0.00040713
0.000413752
0.000434551
0.00105156
0.0010239
0.000932297
0.000856652
0.000793177
0.00073987
0.000695132
0.000657765
0.00062646
0.000600239
0.000578091
0.000559342
0.000543302
0.000529547
0.000517625
0.000507273
0.000498195
0.000490221
0.000483161
0.000476893
0.000471301
0.000466287
0.000461786
0.000457711
0.00045404
0.000450684
0.000447653
0.000444856
0.000442327
0.000439972
0.000437844
0.000435839
0.000434035
0.000432316
0.000430774
0.000429289
0.000427964
0.000426672
0.000425528
0.000424397
0.000423403
0.000422409
0.000421543
0.000420663
0.000419906
0.000419125
0.000418462
0.000417765
0.000417183
0.000416559
0.000416048
0.000415487
0.000415037
0.00041453
0.000414132
0.000413677
0.000413323
0.000412914
0.0004126
0.000412232
0.000411952
0.00041162
0.000411373
0.000411071
0.000410853
0.000410579
0.000410385
0.000410136
0.000409964
0.000409741
0.000409587
0.000409383
0.000409245
0.000409065
0.000408945
0.000408777
0.000408664
0.000408505
0.0004084
0.000408247
0.000408148
0.000408002
0.000407909
0.000407771
0.000407683
0.000407556
0.000407473
0.000407356
0.000407284
0.000407171
0.000407117
0.000407022
0.000406896
0.000406995
0.000413684
0.000434446
0.00105345
0.0010239
0.000932297
0.000856654
0.000793178
0.00073987
0.000695126
0.000657751
0.000626437
0.000600206
0.000578049
0.000559291
0.000543242
0.000529479
0.00051755
0.000507191
0.000498107
0.000490128
0.000483063
0.00047679
0.000471194
0.000466175
0.000461671
0.000457593
0.000453919
0.00045056
0.000447526
0.000444727
0.000442196
0.000439839
0.000437709
0.000435703
0.000433896
0.000432176
0.000430633
0.000429146
0.00042782
0.000426527
0.000425381
0.00042425
0.000423255
0.000422259
0.000421393
0.000420512
0.000419754
0.000418972
0.000418309
0.000417611
0.000417028
0.000416404
0.000415891
0.00041533
0.00041488
0.000414373
0.000413974
0.000413518
0.000413164
0.000412755
0.00041244
0.000412072
0.000411791
0.000411459
0.000411212
0.000410909
0.000410691
0.000410416
0.000410222
0.000409973
0.000409801
0.000409577
0.000409423
0.000409219
0.000409081
0.0004089
0.00040878
0.000408611
0.000408499
0.000408339
0.000408234
0.000408081
0.000407981
0.000407836
0.000407742
0.000407604
0.000407516
0.000407388
0.000407305
0.000407189
0.000407116
0.000407003
0.000406948
0.000406853
0.000406727
0.000406828
0.000413601
0.000434317
0.00105541
0.0010239
0.000932297
0.000856655
0.000793181
0.000739869
0.000695119
0.000657735
0.00062641
0.000600168
0.000577999
0.00055923
0.000543171
0.000529399
0.00051746
0.000507093
0.000498002
0.000490016
0.000482945
0.000476667
0.000471066
0.000466043
0.000461534
0.000457452
0.000453774
0.000450412
0.000447376
0.000444573
0.00044204
0.00043968
0.000437548
0.00043554
0.000433731
0.000432009
0.000430464
0.000428976
0.000427648
0.000426354
0.000425207
0.000424074
0.000423078
0.000422081
0.000421214
0.000420331
0.000419573
0.00041879
0.000418126
0.000417427
0.000416844
0.000416218
0.000415705
0.000415143
0.000414692
0.000414185
0.000413785
0.000413329
0.000412974
0.000412564
0.000412249
0.00041188
0.0004116
0.000411266
0.000411019
0.000410716
0.000410497
0.000410223
0.000410027
0.000409778
0.000409606
0.000409381
0.000409227
0.000409023
0.000408885
0.000408703
0.000408583
0.000408414
0.000408302
0.000408141
0.000408036
0.000407883
0.000407783
0.000407637
0.000407543
0.000407405
0.000407317
0.000407188
0.000407105
0.000406988
0.000406916
0.000406802
0.000406747
0.000406652
0.000406526
0.00040663
0.000413504
0.000434165
0.0010573
0.0010239
0.000932297
0.000856657
0.000793183
0.000739869
0.000695111
0.000657716
0.000626379
0.000600123
0.000577941
0.000559159
0.000543088
0.000529305
0.000517357
0.00050698
0.000497881
0.000489887
0.000482809
0.000476524
0.000470917
0.000465888
0.000461375
0.000457289
0.000453606
0.000450241
0.0004472
0.000444395
0.000441858
0.000439495
0.00043736
0.00043535
0.000433539
0.000431815
0.000430268
0.000428778
0.000427448
0.000426152
0.000425004
0.000423869
0.000422872
0.000421874
0.000421005
0.000420122
0.000419362
0.000418578
0.000417913
0.000417213
0.000416629
0.000416002
0.000415489
0.000414926
0.000414474
0.000413966
0.000413566
0.000413109
0.000412753
0.000412343
0.000412027
0.000411657
0.000411376
0.000411043
0.000410795
0.000410491
0.000410272
0.000409997
0.000409801
0.000409552
0.000409379
0.000409154
0.000409
0.000408795
0.000408656
0.000408474
0.000408354
0.000408185
0.000408072
0.000407911
0.000407805
0.000407652
0.000407552
0.000407406
0.000407311
0.000407173
0.000407084
0.000406956
0.000406873
0.000406755
0.000406682
0.000406568
0.000406513
0.000406418
0.000406292
0.000406399
0.000413392
0.000433988
0.00105894
0.0010239
0.000932297
0.000856659
0.000793186
0.000739868
0.000695102
0.000657695
0.000626343
0.000600072
0.000577875
0.000559079
0.000542994
0.000529198
0.000517238
0.000506851
0.000497742
0.000489739
0.000482653
0.000476361
0.000470747
0.000465712
0.000461193
0.000457101
0.000453414
0.000450044
0.000447
0.00044419
0.00044165
0.000439284
0.000437146
0.000435133
0.00043332
0.000431593
0.000430044
0.000428551
0.000427219
0.000425922
0.000424771
0.000423635
0.000422636
0.000421636
0.000420767
0.000419882
0.000419121
0.000418336
0.000417669
0.000416968
0.000416383
0.000415755
0.000415241
0.000414677
0.000414224
0.000413715
0.000413314
0.000412857
0.0004125
0.000412089
0.000411772
0.000411403
0.000411121
0.000410786
0.000410538
0.000410233
0.000410014
0.000409738
0.000409542
0.000409292
0.000409119
0.000408894
0.000408739
0.000408534
0.000408395
0.000408212
0.000408092
0.000407922
0.000407809
0.000407648
0.000407542
0.000407388
0.000407288
0.000407141
0.000407046
0.000406907
0.000406819
0.00040669
0.000406606
0.000406488
0.000406415
0.000406301
0.000406245
0.00040615
0.000406024
0.000406134
0.000413266
0.000433786
0.00106005
0.0010239
0.000932297
0.000856662
0.00079319
0.000739867
0.000695092
0.000657671
0.000626303
0.000600015
0.000577801
0.000558988
0.000542888
0.000529078
0.000517104
0.000506705
0.000497585
0.000489572
0.000482477
0.000476177
0.000470555
0.000465513
0.000460988
0.00045689
0.000453198
0.000449823
0.000446774
0.00044396
0.000441416
0.000439046
0.000436905
0.000434888
0.000433072
0.000431342
0.00042979
0.000428295
0.000426962
0.000425661
0.000424509
0.000423371
0.00042237
0.000421369
0.000420497
0.000419611
0.000418849
0.000418062
0.000417394
0.000416692
0.000416105
0.000415477
0.000414961
0.000414396
0.000413943
0.000413432
0.000413031
0.000412572
0.000412215
0.000411803
0.000411486
0.000411115
0.000410833
0.000410497
0.000410248
0.000409943
0.000409723
0.000409447
0.00040925
0.000409
0.000408826
0.0004086
0.000408445
0.000408239
0.0004081
0.000407917
0.000407796
0.000407626
0.000407512
0.000407351
0.000407244
0.00040709
0.000406989
0.000406842
0.000406747
0.000406608
0.000406519
0.000406389
0.000406306
0.000406187
0.000406114
0.000405999
0.000405943
0.000405848
0.000405722
0.000405836
0.000413127
0.00043356
0.00106023
0.0010239
0.000932296
0.000856665
0.000793193
0.000739867
0.000695081
0.000657645
0.000626259
0.000599952
0.000577719
0.000558888
0.00054277
0.000528944
0.000516956
0.000506543
0.000497411
0.000489387
0.000482281
0.000475972
0.000470341
0.000465292
0.000460759
0.000456655
0.000452957
0.000449576
0.000446522
0.000443703
0.000441155
0.000438781
0.000436636
0.000434615
0.000432796
0.000431063
0.000429508
0.00042801
0.000426674
0.000425371
0.000424217
0.000423077
0.000422074
0.00042107
0.000420197
0.000419309
0.000418545
0.000417757
0.000417087
0.000416384
0.000415796
0.000415166
0.000414649
0.000414083
0.000413629
0.000413117
0.000412714
0.000412255
0.000411897
0.000411484
0.000411166
0.000410794
0.000410511
0.000410175
0.000409925
0.000409619
0.000409399
0.000409122
0.000408925
0.000408673
0.000408499
0.000408272
0.000408117
0.00040791
0.000407771
0.000407587
0.000407466
0.000407295
0.000407181
0.000407019
0.000406912
0.000406757
0.000406656
0.000406509
0.000406413
0.000406273
0.000406184
0.000406054
0.00040597
0.000405851
0.000405778
0.000405662
0.000405606
0.00040551
0.000405385
0.000405503
0.000412975
0.000433308
0.00105918
0.0010239
0.000932296
0.000856668
0.000793197
0.000739866
0.000695069
0.000657616
0.000626211
0.000599883
0.000577628
0.000558777
0.00054264
0.000528796
0.000516792
0.000506365
0.000497219
0.000489183
0.000482065
0.000475746
0.000470106
0.000465048
0.000460507
0.000456396
0.000452691
0.000449303
0.000446243
0.00044342
0.000440866
0.000438488
0.000436338
0.000434314
0.000432491
0.000430754
0.000429196
0.000427695
0.000426356
0.000425051
0.000423894
0.000422751
0.000421746
0.000420741
0.000419865
0.000418975
0.00041821
0.000417419
0.000416748
0.000416043
0.000415454
0.000414822
0.000414305
0.000413737
0.000413281
0.000412768
0.000412365
0.000411904
0.000411545
0.000411131
0.000410812
0.000410439
0.000410155
0.000409818
0.000409568
0.000409261
0.00040904
0.000408762
0.000408564
0.000408312
0.000408137
0.00040791
0.000407754
0.000407547
0.000407407
0.000407223
0.000407101
0.00040693
0.000406815
0.000406652
0.000406545
0.00040639
0.000406288
0.00040614
0.000406044
0.000405904
0.000405814
0.000405683
0.000405599
0.000405479
0.000405406
0.00040529
0.000405233
0.000405137
0.000405012
0.000405135
0.000412809
0.000433031
0.0010569
0.0010239
0.000932296
0.000856671
0.000793202
0.000739866
0.000695056
0.000657585
0.000626158
0.000599807
0.000577529
0.000558656
0.000542498
0.000528635
0.000516613
0.00050617
0.000497009
0.000488959
0.000481829
0.000475498
0.000469848
0.00046478
0.000460231
0.000456111
0.000452399
0.000449005
0.000445938
0.000443109
0.00044055
0.000438166
0.000436012
0.000433984
0.000432156
0.000430416
0.000428855
0.00042735
0.000426008
0.000424699
0.00042354
0.000422394
0.000421387
0.000420379
0.000419501
0.000418609
0.000417842
0.000417049
0.000416377
0.00041567
0.000415079
0.000414446
0.000413926
0.000413357
0.0004129
0.000412386
0.000411981
0.000411519
0.000411159
0.000410744
0.000410424
0.00041005
0.000409765
0.000409427
0.000409176
0.000408868
0.000408646
0.000408367
0.000408169
0.000407916
0.000407741
0.000407512
0.000407356
0.000407148
0.000407007
0.000406823
0.0004067
0.000406528
0.000406414
0.00040625
0.000406142
0.000405986
0.000405885
0.000405735
0.00040564
0.000405498
0.000405408
0.000405277
0.000405192
0.000405071
0.000404998
0.000404881
0.000404824
0.000404728
0.000404603
0.000404732
0.000412629
0.000432727
0.00105339
0.0010239
0.000932295
0.000856674
0.000793207
0.000739865
0.000695042
0.000657552
0.000626101
0.000599725
0.000577422
0.000558525
0.000542344
0.00052846
0.000516419
0.000505957
0.00049678
0.000488715
0.000481572
0.000475229
0.000469567
0.000464489
0.00045993
0.000455802
0.000452081
0.00044868
0.000445606
0.00044277
0.000440206
0.000437816
0.000435657
0.000433624
0.000431792
0.000430047
0.000428482
0.000426974
0.000425628
0.000424317
0.000423154
0.000422005
0.000420995
0.000419984
0.000419105
0.00041821
0.00041744
0.000416646
0.000415972
0.000415262
0.00041467
0.000414035
0.000413514
0.000412943
0.000412485
0.000411969
0.000411563
0.0004111
0.000410739
0.000410322
0.000410001
0.000409626
0.00040934
0.000409001
0.000408749
0.00040844
0.000408217
0.000407937
0.000407738
0.000407484
0.000407308
0.000407079
0.000406922
0.000406713
0.000406572
0.000406387
0.000406264
0.000406091
0.000405976
0.000405812
0.000405703
0.000405547
0.000405444
0.000405294
0.000405198
0.000405056
0.000404966
0.000404834
0.000404749
0.000404627
0.000404553
0.000404435
0.000404378
0.000404281
0.000404157
0.000404292
0.000412436
0.000432396
0.00104869
0.0010239
0.000932295
0.000856678
0.000793212
0.000739865
0.000695027
0.000657516
0.000626039
0.000599637
0.000577307
0.000558383
0.000542178
0.000528271
0.000516209
0.000505728
0.000496533
0.000488452
0.000481294
0.000474937
0.000469263
0.000464174
0.000459605
0.000455467
0.000451737
0.000448328
0.000445247
0.000442404
0.000439833
0.000437437
0.000435273
0.000433234
0.000431397
0.000429648
0.000428079
0.000426566
0.000425217
0.000423902
0.000422736
0.000421584
0.000420571
0.000419557
0.000418675
0.000417777
0.000417006
0.000416209
0.000415532
0.000414821
0.000414227
0.00041359
0.000413068
0.000412494
0.000412035
0.000411517
0.00041111
0.000410645
0.000410283
0.000409865
0.000409542
0.000409166
0.000408879
0.000408539
0.000408286
0.000407976
0.000407752
0.000407471
0.000407271
0.000407016
0.000406839
0.000406609
0.000406452
0.000406242
0.0004061
0.000405914
0.00040579
0.000405617
0.000405501
0.000405336
0.000405227
0.00040507
0.000404967
0.000404816
0.00040472
0.000404577
0.000404486
0.000404353
0.000404268
0.000404145
0.000404071
0.000403952
0.000403894
0.000403797
0.000403673
0.000403816
0.000412229
0.000432036
0.00104281
0.00102389
0.000932294
0.000856682
0.000793218
0.000739865
0.000695012
0.000657477
0.000625974
0.000599542
0.000577183
0.000558232
0.000542
0.000528068
0.000515983
0.000505482
0.000496268
0.000488169
0.000480995
0.000474624
0.000468936
0.000463835
0.000459254
0.000455106
0.000451367
0.000447949
0.00044486
0.000442009
0.000439431
0.000437029
0.000434858
0.000432814
0.000430972
0.000429218
0.000427644
0.000426127
0.000424774
0.000423454
0.000422285
0.00042113
0.000420114
0.000419097
0.000418212
0.000417311
0.000416537
0.000415738
0.000415059
0.000414345
0.000413749
0.00041311
0.000412586
0.000412011
0.00041155
0.00041103
0.000410621
0.000410155
0.000409791
0.000409371
0.000409048
0.00040867
0.000408382
0.00040804
0.000407786
0.000407475
0.00040725
0.000406968
0.000406768
0.000406511
0.000406334
0.000406103
0.000405944
0.000405734
0.000405591
0.000405404
0.00040528
0.000405106
0.000404989
0.000404823
0.000404714
0.000404555
0.000404452
0.000404301
0.000404203
0.00040406
0.000403968
0.000403834
0.000403749
0.000403625
0.000403551
0.000403431
0.000403372
0.000403275
0.000403151
0.000403302
0.000412007
0.000431646
0.0010358
0.00102389
0.000932294
0.000856686
0.000793224
0.000739864
0.000694995
0.000657437
0.000625904
0.000599442
0.000577051
0.00055807
0.000541809
0.000527851
0.000515742
0.000505218
0.000495983
0.000487866
0.000480675
0.000474288
0.000468586
0.000463471
0.000458879
0.000454719
0.00045097
0.000447542
0.000444444
0.000441585
0.000439
0.000436591
0.000434414
0.000432363
0.000430515
0.000428756
0.000427177
0.000425655
0.000424298
0.000422974
0.000421801
0.000420642
0.000419623
0.000418602
0.000417714
0.000416811
0.000416034
0.000415232
0.000414551
0.000413834
0.000413236
0.000412594
0.000412068
0.000411491
0.000411028
0.000410507
0.000410097
0.000409628
0.000409263
0.000408841
0.000408517
0.000408137
0.000407848
0.000407505
0.00040725
0.000406937
0.000406711
0.000406428
0.000406226
0.000405969
0.000405791
0.000405558
0.000405399
0.000405188
0.000405044
0.000404856
0.000404731
0.000404556
0.000404439
0.000404272
0.000404162
0.000404003
0.000403899
0.000403747
0.000403649
0.000403504
0.000403412
0.000403277
0.000403191
0.000403066
0.000402992
0.000402871
0.000402812
0.000402714
0.000402591
0.00040275
0.00041177
0.000431224
0.00102769
0.00102389
0.000932293
0.00085669
0.000793231
0.000739864
0.000694978
0.000657394
0.000625831
0.000599335
0.000576911
0.000557897
0.000541607
0.00052762
0.000515484
0.000504937
0.00049568
0.000487543
0.000480333
0.000473929
0.000468212
0.000463083
0.000458477
0.000454306
0.000450546
0.000447107
0.000444
0.000441133
0.000438539
0.000436122
0.000433938
0.000431881
0.000430028
0.000428262
0.000426678
0.000425151
0.000423789
0.000422461
0.000421284
0.00042012
0.000419097
0.000418073
0.000417182
0.000416275
0.000415496
0.00041469
0.000414007
0.000413288
0.000412687
0.000412043
0.000411515
0.000410935
0.00041047
0.000409947
0.000409535
0.000409064
0.000408698
0.000408275
0.000407948
0.000407567
0.000407277
0.000406932
0.000406676
0.000406361
0.000406135
0.00040585
0.000405647
0.000405389
0.000405209
0.000404976
0.000404816
0.000404603
0.000404459
0.00040427
0.000404145
0.000403968
0.00040385
0.000403682
0.000403572
0.000403411
0.000403307
0.000403154
0.000403055
0.000402909
0.000402817
0.000402681
0.000402595
0.000402469
0.000402394
0.000402271
0.000402212
0.000402114
0.000401991
0.000402159
0.000411516
0.000430769
0.00101851
0.00102389
0.000932292
0.000856695
0.000793237
0.000739864
0.00069496
0.000657349
0.000625753
0.000599222
0.000576763
0.000557715
0.000541392
0.000527375
0.000515211
0.000504638
0.000495358
0.000487199
0.00047997
0.000473548
0.000467814
0.00046267
0.00045805
0.000453866
0.000450094
0.000446645
0.000443528
0.000440651
0.000438049
0.000435624
0.000433432
0.000431368
0.000429508
0.000427736
0.000426146
0.000424614
0.000423247
0.000421914
0.000420732
0.000419565
0.000418538
0.00041751
0.000416615
0.000415705
0.000414922
0.000414113
0.000413427
0.000412705
0.000412102
0.000411455
0.000410925
0.000410343
0.000409876
0.00040935
0.000408936
0.000408464
0.000408095
0.00040767
0.000407342
0.000406959
0.000406668
0.000406321
0.000406064
0.000405748
0.00040552
0.000405233
0.00040503
0.00040477
0.000404589
0.000404355
0.000404194
0.00040398
0.000403835
0.000403645
0.000403519
0.000403341
0.000403222
0.000403053
0.000402942
0.000402781
0.000402676
0.000402521
0.000402422
0.000402275
0.000402182
0.000402045
0.000401958
0.000401831
0.000401756
0.000401632
0.000401572
0.000401473
0.000401351
0.000401529
0.000411244
0.000430277
0.00100832
0.00102389
0.000932292
0.000856699
0.000793245
0.000739865
0.000694941
0.000657302
0.000625671
0.000599103
0.000576606
0.000557522
0.000541164
0.000527116
0.000514922
0.000504322
0.000495016
0.000486835
0.000479585
0.000473143
0.000467392
0.000462232
0.000457597
0.000453399
0.000449615
0.000446154
0.000443026
0.000440139
0.000437528
0.000435094
0.000432894
0.000430822
0.000428955
0.000427177
0.000425581
0.000424043
0.000422671
0.000421332
0.000420146
0.000418974
0.000417943
0.000416911
0.000416012
0.000415098
0.000414312
0.0004135
0.000412811
0.000412086
0.00041148
0.00041083
0.000410297
0.000409713
0.000409244
0.000408716
0.0004083
0.000407825
0.000407455
0.000407028
0.000406698
0.000406313
0.00040602
0.000405671
0.000405413
0.000405095
0.000404866
0.000404578
0.000404373
0.000404112
0.00040393
0.000403694
0.000403532
0.000403317
0.000403172
0.00040298
0.000402853
0.000402674
0.000402555
0.000402385
0.000402273
0.00040211
0.000402004
0.000401849
0.000401749
0.000401601
0.000401508
0.000401369
0.000401282
0.000401153
0.000401077
0.000400952
0.000400892
0.000400792
0.000400671
0.000400859
0.000410951
0.000429746
0.000997159
0.00102389
0.000932291
0.000856704
0.000793253
0.000739865
0.000694922
0.000657253
0.000625586
0.000598979
0.000576442
0.000557319
0.000540925
0.000526843
0.000514617
0.000503988
0.000494656
0.00048645
0.000479178
0.000472716
0.000466946
0.000461768
0.000457118
0.000452906
0.000449108
0.000445634
0.000442495
0.000439597
0.000436976
0.000434533
0.000432325
0.000430245
0.000428371
0.000426585
0.000424983
0.000423439
0.00042206
0.000420717
0.000419525
0.000418348
0.000417313
0.000416276
0.000415374
0.000414455
0.000413666
0.00041285
0.000412158
0.000411429
0.000410821
0.000410168
0.000409633
0.000409045
0.000408574
0.000408043
0.000407625
0.000407148
0.000406776
0.000406346
0.000406015
0.000405628
0.000405334
0.000404983
0.000404723
0.000404403
0.000404173
0.000403883
0.000403677
0.000403414
0.000403232
0.000402994
0.000402831
0.000402614
0.000402468
0.000402275
0.000402147
0.000401967
0.000401847
0.000401676
0.000401563
0.000401399
0.000401292
0.000401136
0.000401035
0.000400886
0.000400792
0.000400652
0.000400564
0.000400434
0.000400358
0.000400232
0.00040017
0.00040007
0.000399949
0.000400149
0.000410634
0.000429175
0.000985088
0.00102389
0.00093229
0.000856709
0.000793261
0.000739866
0.000694902
0.000657202
0.000625496
0.000598848
0.00057627
0.000557106
0.000540673
0.000526555
0.000514296
0.000503636
0.000494276
0.000486045
0.000478748
0.000472265
0.000466475
0.00046128
0.000456613
0.000452385
0.000448572
0.000445086
0.000441934
0.000439025
0.000436394
0.000433941
0.000431724
0.000429635
0.000427753
0.00042596
0.000424351
0.0004228
0.000421416
0.000420066
0.000418869
0.000417687
0.000416647
0.000415605
0.000414699
0.000413776
0.000412983
0.000412163
0.000411467
0.000410735
0.000410124
0.000409467
0.00040893
0.000408339
0.000407865
0.000407332
0.000406912
0.000406432
0.000406058
0.000405626
0.000405293
0.000404904
0.000404608
0.000404255
0.000403993
0.000403672
0.00040344
0.000403148
0.000402941
0.000402676
0.000402492
0.000402253
0.000402089
0.000401871
0.000401724
0.00040153
0.000401401
0.00040122
0.000401099
0.000400926
0.000400812
0.000400647
0.000400539
0.000400381
0.00040028
0.00040013
0.000400035
0.000399894
0.000399805
0.000399673
0.000399597
0.000399469
0.000399407
0.000399306
0.000399186
0.000399397
0.000410287
0.000428563
0.000972162
0.00102389
0.000932289
0.000856715
0.000793269
0.000739867
0.000694881
0.000657148
0.000625403
0.000598712
0.000576089
0.000556883
0.00054041
0.000526253
0.000513959
0.000503267
0.000493877
0.000485618
0.000478297
0.000471791
0.00046598
0.000460765
0.00045608
0.000451836
0.000448009
0.000444508
0.000441344
0.000438423
0.00043578
0.000433317
0.00043109
0.000428992
0.000427102
0.000425301
0.000423684
0.000422126
0.000420736
0.00041938
0.000418177
0.000416989
0.000415944
0.000414898
0.000413987
0.00041306
0.000412262
0.000411438
0.000410739
0.000410003
0.000409389
0.000408729
0.000408188
0.000407594
0.000407118
0.000406582
0.000406159
0.000405677
0.000405301
0.000404866
0.000404531
0.000404139
0.000403842
0.000403486
0.000403223
0.0004029
0.000402666
0.000402373
0.000402165
0.000401898
0.000401713
0.000401472
0.000401307
0.000401087
0.000400939
0.000400743
0.000400613
0.000400431
0.000400309
0.000400134
0.00040002
0.000399853
0.000399745
0.000399585
0.000399483
0.000399332
0.000399236
0.000399094
0.000399004
0.000398871
0.000398794
0.000398665
0.000398602
0.000398499
0.000398381
0.000398604
0.000409903
0.000427906
0.000958439
0.00102389
0.000932288
0.00085672
0.000793278
0.000739868
0.00069486
0.000657094
0.000625307
0.00059857
0.000575901
0.00055665
0.000540134
0.000525938
0.000513607
0.00050288
0.000493459
0.000485171
0.000477824
0.000471294
0.00046546
0.000460225
0.000455522
0.00045126
0.000447417
0.000443901
0.000440723
0.000437789
0.000435135
0.000432661
0.000430424
0.000428316
0.000426417
0.000424608
0.000422984
0.000421418
0.000420021
0.000418658
0.00041745
0.000416256
0.000415205
0.000414153
0.000413238
0.000412306
0.000411504
0.000410676
0.000409973
0.000409233
0.000408615
0.000407952
0.000407408
0.000406811
0.000406332
0.000405792
0.000405367
0.000404882
0.000404503
0.000404066
0.000403729
0.000403335
0.000403035
0.000402678
0.000402413
0.000402087
0.000401852
0.000401557
0.000401347
0.000401078
0.000400892
0.000400649
0.000400483
0.000400261
0.000400112
0.000399915
0.000399784
0.0003996
0.000399477
0.000399301
0.000399185
0.000399017
0.000398908
0.000398747
0.000398644
0.000398491
0.000398395
0.000398251
0.000398161
0.000398026
0.000397948
0.000397818
0.000397754
0.00039765
0.000397533
0.000397769
0.000409478
0.000427203
0.000943982
0.00102388
0.000932286
0.000856726
0.000793288
0.00073987
0.000694839
0.000657037
0.000625206
0.000598422
0.000575706
0.000556408
0.000539846
0.000525608
0.000513238
0.000502476
0.000493021
0.000484704
0.000477328
0.000470773
0.000464916
0.000459659
0.000454936
0.000450656
0.000446796
0.000443265
0.000440073
0.000437125
0.000434458
0.000431972
0.000429725
0.000427607
0.000425699
0.00042388
0.000422248
0.000420675
0.00041927
0.0004179
0.000416686
0.000415485
0.000414429
0.000413372
0.000412451
0.000411514
0.000410708
0.000409875
0.000409168
0.000408424
0.000407802
0.000407135
0.000406588
0.000405987
0.000405505
0.000404963
0.000404535
0.000404047