/*--------------------------------*- C++ -*----------------------------------*\
| =========                 |                                                 |
| \\      /  F ield         | OpenFOAM: The Open Source CFD Toolbox           |
|  \\    /   O peration     | Version:  v2012                                 |
|   \\  /    A nd           | Website:  www.openfoam.com                      |
|    \\/     M anipulation  |                                                 |
\*---------------------------------------------------------------------------*/
FoamFile
{
    version     2.0;
    format      ascii;
    class       volScalarField;
    location    "57";
    object      omega;
}
// * * * * * * * * * * * * * * * * * * * * * * * * * * * * * * * * * * * * * //

dimensions      [0 0 -1 0 0 0 0];


internalField   nonuniform List<scalar> 
209825
(
8261.79
7570.21
6999.51
6539.08
6173.01
5883.51
5652.69
5467.22
5315.7
5191.01
5086.51
4998.71
4923.5
4859.3
4803.26
4754.87
4711.93
4674.54
4640.88
4611.39
4584.48
4560.83
4538.97
4519.72
4501.7
4485.86
4470.84
4457.66
4444.99
4433.93
4423.15
4413.8
4404.56
4396.59
4388.62
4381.8
4374.89
4369.02
4362.99
4357.9
4352.65
4348.24
4343.59
4339.77
4335.69
4332.35
4328.75
4325.79
4322.63
4320.05
4317.27
4315.02
4312.64
4310.61
4308.49
4306.72
4304.85
4303.3
4301.6
4300.26
4298.83
4297.72
4296.41
4295.5
4294.38
4293.6
4292.57
4291.92
4291.04
4290.54
4289.8
4289.4
4288.77
4288.43
4287.82
4287.45
4286.87
4286.54
4286.02
4285.75
4285.3
4285.08
4284.68
4284.53
4284.2
4284.17
4284.08
4284.25
4284.25
4284.55
4284.55
4285.19
4285.93
4313.96
4422.03
113070
8261.79
7570.21
6999.51
6539.08
6173
5883.49
5652.66
5467.18
5315.65
5190.95
5086.44
4998.64
4923.42
4859.21
4803.17
4754.78
4711.84
4674.44
4640.77
4611.29
4584.37
4560.72
4538.86
4519.61
4501.59
4485.75
4470.73
4457.54
4444.87
4433.81
4423.03
4413.67
4404.44
4396.47
4388.49
4381.67
4374.76
4368.89
4362.86
4357.77
4352.52
4348.11
4343.46
4339.64
4335.56
4332.22
4328.62
4325.66
4322.5
4319.92
4317.14
4314.89
4312.51
4310.48
4308.35
4306.59
4304.71
4303.16
4301.47
4300.12
4298.69
4297.59
4296.27
4295.36
4294.24
4293.47
4292.44
4291.78
4290.9
4290.4
4289.66
4289.26
4288.63
4288.29
4287.69
4287.32
4286.73
4286.4
4285.88
4285.61
4285.16
4284.95
4284.54
4284.39
4284.06
4284.04
4283.94
4284.11
4284.11
4284.41
4284.41
4285.05
4285.79
4313.87
4421.94
109771
8261.79
7570.22
6999.52
6539.06
6172.95
5883.41
5652.54
5467.03
5315.47
5190.74
5086.21
4998.39
4923.15
4858.93
4802.88
4754.47
4711.52
4674.11
4640.44
4610.94
4584.02
4560.36
4538.49
4519.24
4501.21
4485.37
4470.34
4457.15
4444.48
4433.41
4422.63
4413.27
4404.03
4396.06
4388.08
4381.26
4374.35
4368.48
4362.44
4357.35
4352.1
4347.69
4343.04
4339.22
4335.14
4331.79
4328.19
4325.23
4322.07
4319.48
4316.7
4314.46
4312.07
4310.04
4307.92
4306.15
4304.27
4302.72
4301.03
4299.68
4298.25
4297.14
4295.83
4294.92
4293.79
4293.02
4291.99
4291.34
4290.45
4289.96
4289.21
4288.81
4288.18
4287.84
4287.24
4286.86
4286.28
4285.95
4285.43
4285.16
4284.71
4284.49
4284.09
4283.94
4283.61
4283.58
4283.48
4283.65
4283.65
4283.95
4283.95
4284.59
4285.34
4313.51
4421.57
105984
8261.79
7570.23
6999.52
6539.03
6172.87
5883.26
5652.34
5466.77
5315.17
5190.39
5085.82
4997.96
4922.7
4858.45
4802.37
4753.94
4710.97
4673.55
4639.86
4610.35
4583.41
4559.75
4537.87
4518.6
4500.57
4484.71
4469.68
4456.48
4443.8
4432.73
4421.95
4412.58
4403.34
4395.36
4387.38
4380.55
4373.64
4367.76
4361.73
4356.63
4351.38
4346.96
4342.31
4338.48
4334.4
4331.06
4327.45
4324.49
4321.33
4318.74
4315.96
4313.71
4311.33
4309.29
4307.17
4305.4
4303.52
4301.97
4300.27
4298.92
4297.49
4296.38
4295.07
4294.16
4293.03
4292.26
4291.23
4290.57
4289.69
4289.19
4288.45
4288.04
4287.41
4287.07
4286.47
4286.09
4285.51
4285.18
4284.66
4284.39
4283.93
4283.72
4283.32
4283.16
4282.83
4282.8
4282.7
4282.87
4282.87
4283.17
4283.17
4283.8
4284.55
4312.88
4420.92
102090
8261.79
7570.24
6999.53
6538.99
6172.76
5883.06
5652.05
5466.4
5314.73
5189.89
5085.26
4997.36
4922.05
4857.76
4801.65
4753.19
4710.19
4672.74
4639.03
4609.5
4582.55
4558.87
4536.97
4517.7
4499.65
4483.78
4468.74
4455.53
4442.84
4431.76
4420.97
4411.6
4402.35
4394.37
4386.38
4379.55
4372.62
4366.75
4360.7
4355.61
4350.35
4345.93
4341.27
4337.44
4333.36
4330.01
4326.4
4323.44
4320.27
4317.68
4314.9
4312.65
4310.26
4308.23
4306.1
4304.33
4302.45
4300.89
4299.2
4297.85
4296.41
4295.3
4293.99
4293.07
4291.95
4291.17
4290.14
4289.48
4288.6
4288.1
4287.35
4286.95
4286.32
4285.97
4285.37
4285
4284.41
4284.08
4283.56
4283.28
4282.83
4282.61
4282.21
4282.06
4281.72
4281.69
4281.59
4281.75
4281.75
4282.05
4282.05
4282.68
4283.44
4311.97
4419.99
98192.5
8261.79
7570.27
6999.54
6538.94
6172.61
5882.8
5651.68
5465.92
5314.15
5189.23
5084.53
4996.56
4921.2
4856.86
4800.71
4752.21
4709.18
4671.7
4637.96
4608.4
4581.42
4557.72
4535.81
4516.51
4498.45
4482.57
4467.51
4454.29
4441.59
4430.5
4419.7
4410.32
4401.06
4393.07
4385.07
4378.23
4371.3
4365.42
4359.37
4354.27
4349
4344.58
4339.92
4336.09
4332
4328.65
4325.03
4322.07
4318.9
4316.3
4313.51
4311.26
4308.87
4306.84
4304.7
4302.93
4301.05
4299.49
4297.79
4296.44
4295
4293.89
4292.57
4291.66
4290.53
4289.75
4288.72
4288.06
4287.17
4286.67
4285.92
4285.52
4284.89
4284.54
4283.94
4283.56
4282.97
4282.64
4282.12
4281.85
4281.39
4281.17
4280.77
4280.61
4280.28
4280.25
4280.14
4280.3
4280.3
4280.59
4280.59
4281.22
4281.99
4310.79
4418.77
94332.3
8261.79
7570.29
6999.55
6538.88
6172.42
5882.47
5651.21
5465.33
5313.45
5188.42
5083.63
4995.58
4920.15
4855.75
4799.54
4750.99
4707.92
4670.4
4636.62
4607.04
4580.03
4556.3
4534.36
4515.05
4496.97
4481.07
4465.99
4452.76
4440.04
4428.94
4418.13
4408.73
4399.46
4391.46
4383.46
4376.61
4369.67
4363.78
4357.72
4352.62
4347.34
4342.91
4338.24
4334.41
4330.31
4326.96
4323.34
4320.37
4317.19
4314.59
4311.8
4309.55
4307.15
4305.11
4302.98
4301.2
4299.31
4297.76
4296.05
4294.7
4293.26
4292.15
4290.82
4289.91
4288.77
4288
4286.96
4286.3
4285.41
4284.91
4284.16
4283.75
4283.12
4282.77
4282.16
4281.79
4281.2
4280.87
4280.34
4280.07
4279.61
4279.39
4278.98
4278.83
4278.49
4278.46
4278.34
4278.5
4278.5
4278.79
4278.78
4279.41
4280.19
4309.33
4417.28
90528.2
8261.79
7570.32
6999.57
6538.8
6172.2
5882.09
5650.66
5464.62
5312.6
5187.45
5082.56
4994.41
4918.89
4854.42
4798.15
4749.54
4706.41
4668.85
4635.03
4605.4
4578.37
4554.61
4532.64
4513.3
4495.19
4479.27
4464.18
4450.92
4438.19
4427.07
4416.24
4406.84
4397.55
4389.54
4381.52
4374.66
4367.72
4361.82
4355.75
4350.64
4345.35
4340.92
4336.24
4332.4
4328.3
4324.93
4321.31
4318.33
4315.16
4312.55
4309.75
4307.49
4305.09
4303.05
4300.91
4299.13
4297.24
4295.68
4293.97
4292.62
4291.17
4290.06
4288.73
4287.81
4286.68
4285.9
4284.85
4284.19
4283.3
4282.8
4282.04
4281.63
4281
4280.65
4280.04
4279.67
4279.08
4278.74
4278.21
4277.94
4277.48
4277.26
4276.85
4276.69
4276.36
4276.32
4276.19
4276.35
4276.35
4276.63
4276.62
4277.25
4278.04
4307.58
4415.51
86788.9
8261.78
7570.36
6999.59
6538.71
6171.94
5881.64
5650.02
5463.8
5311.61
5186.33
5081.3
4993.05
4917.43
4852.87
4796.52
4747.84
4704.66
4667.04
4633.17
4603.5
4576.42
4552.63
4530.63
4511.26
4493.12
4477.17
4462.05
4448.78
4436.03
4424.89
4414.04
4404.62
4395.32
4387.3
4379.26
4372.4
4365.43
4359.53
4353.45
4348.32
4343.03
4338.59
4333.9
4330.05
4325.94
4322.57
4318.94
4315.96
4312.78
4310.17
4307.36
4305.1
4302.69
4300.65
4298.5
4296.72
4294.82
4293.26
4291.55
4290.19
4288.73
4287.62
4286.29
4285.37
4284.23
4283.44
4282.4
4281.74
4280.84
4280.33
4279.58
4279.16
4278.53
4278.18
4277.57
4277.19
4276.6
4276.26
4275.73
4275.45
4274.99
4274.77
4274.35
4274.19
4273.86
4273.82
4273.68
4273.83
4273.83
4274.1
4274.1
4274.72
4275.52
4305.55
4413.45
83117.3
8261.78
7570.4
6999.61
6538.61
6171.65
5881.12
5649.28
5462.86
5310.49
5185.04
5079.87
4991.49
4915.76
4851.1
4794.66
4745.9
4702.65
4664.97
4631.04
4601.32
4574.2
4550.36
4528.32
4508.92
4490.75
4474.77
4459.63
4446.33
4433.55
4422.39
4411.52
4402.08
4392.77
4384.73
4376.68
4369.8
4362.82
4356.9
4350.81
4345.67
4340.37
4335.92
4331.22
4327.36
4323.25
4319.87
4316.23
4313.24
4310.05
4307.43
4304.62
4302.35
4299.94
4297.89
4295.73
4293.95
4292.05
4290.48
4288.76
4287.4
4285.94
4284.82
4283.49
4282.56
4281.42
4280.63
4279.58
4278.92
4278.02
4277.51
4276.75
4276.33
4275.69
4275.34
4274.73
4274.35
4273.75
4273.41
4272.88
4272.6
4272.13
4271.91
4271.5
4271.33
4271
4270.95
4270.81
4270.95
4270.95
4271.21
4271.21
4271.82
4272.64
4303.22
4411.12
79511.5
8261.78
7570.45
6999.63
6538.5
6171.32
5880.54
5648.46
5461.8
5309.22
5183.58
5078.25
4989.73
4913.87
4849.1
4792.56
4743.72
4700.38
4662.63
4628.64
4598.86
4571.68
4547.8
4525.72
4506.27
4488.07
4472.06
4456.88
4443.56
4430.75
4419.57
4408.68
4399.22
4389.88
4381.82
4373.76
4366.86
4359.87
4353.93
4347.83
4342.68
4337.36
4332.9
4328.19
4324.33
4320.2
4316.81
4313.17
4310.17
4306.97
4304.34
4301.53
4299.25
4296.83
4294.77
4292.61
4290.82
4288.91
4287.34
4285.62
4284.25
4282.79
4281.66
4280.32
4279.39
4278.24
4277.45
4276.4
4275.73
4274.83
4274.32
4273.55
4273.13
4272.49
4272.14
4271.52
4271.14
4270.54
4270.2
4269.66
4269.38
4268.91
4268.68
4268.27
4268.1
4267.76
4267.71
4267.56
4267.7
4267.69
4267.95
4267.94
4268.55
4269.39
4300.6
4408.5
75965.9
8261.78
7570.5
6999.66
6538.37
6170.95
5879.9
5647.54
5460.63
5307.81
5181.96
5076.45
4987.76
4911.76
4846.87
4790.22
4741.28
4697.85
4660.02
4625.96
4596.12
4568.88
4544.94
4522.81
4503.32
4485.07
4469.03
4453.82
4440.46
4427.63
4416.42
4405.5
4396.02
4386.66
4378.58
4370.49
4363.58
4356.57
4350.62
4344.5
4339.34
4334.01
4329.53
4324.81
4320.93
4316.79
4313.4
4309.74
4306.73
4303.52
4300.89
4298.07
4295.78
4293.35
4291.29
4289.12
4287.33
4285.41
4283.83
4282.11
4280.73
4279.26
4278.13
4276.79
4275.85
4274.7
4273.91
4272.85
4272.18
4271.27
4270.75
4269.98
4269.56
4268.91
4268.56
4267.94
4267.55
4266.95
4266.61
4266.07
4265.78
4265.31
4265.08
4264.66
4264.49
4264.15
4264.09
4263.93
4264.06
4264.05
4264.3
4264.29
4264.89
4265.76
4297.68
4405.61
72476.7
8261.78
7570.56
6999.69
6538.24
6170.55
5879.2
5646.53
5459.33
5306.25
5180.18
5074.46
4985.6
4909.44
4844.41
4787.63
4738.58
4695.05
4657.13
4622.99
4593.08
4565.78
4541.78
4519.59
4500.06
4481.76
4465.68
4450.43
4437.04
4424.17
4412.93
4401.98
4392.47
4383.09
4374.99
4366.88
4359.95
4352.92
4346.95
4340.81
4335.64
4330.29
4325.8
4321.07
4317.18
4313.03
4309.62
4305.95
4302.93
4299.71
4297.07
4294.24
4291.94
4289.51
4287.44
4285.26
4283.46
4281.53
4279.95
4278.22
4276.84
4275.36
4274.23
4272.87
4271.93
4270.77
4269.98
4268.91
4268.24
4267.32
4266.8
4266.03
4265.6
4264.95
4264.59
4263.97
4263.58
4262.98
4262.63
4262.09
4261.8
4261.32
4261.09
4260.66
4260.49
4260.15
4260.08
4259.91
4260.04
4260.03
4260.26
4260.25
4260.85
4261.73
4294.45
4402.45
69050.3
8261.77
7570.62
6999.72
6538.09
6170.12
5878.43
5645.42
5457.91
5304.55
5178.22
5072.28
4983.22
4906.89
4841.71
4784.79
4735.62
4691.99
4653.97
4619.74
4589.75
4562.37
4538.31
4516.07
4496.48
4478.13
4462
4446.71
4433.28
4420.37
4409.1
4398.12
4388.59
4379.17
4371.05
4362.92
4355.96
4348.91
4342.92
4336.77
4331.58
4326.21
4321.71
4316.96
4313.05
4308.89
4305.47
4301.79
4298.76
4295.53
4292.88
4290.03
4287.73
4285.28
4283.21
4281.02
4279.21
4277.28
4275.69
4273.95
4272.56
4271.07
4269.94
4268.58
4267.63
4266.46
4265.66
4264.59
4263.91
4262.99
4262.46
4261.69
4261.26
4260.6
4260.24
4259.61
4259.22
4258.61
4258.26
4257.72
4257.42
4256.94
4256.7
4256.27
4256.1
4255.75
4255.68
4255.49
4255.62
4255.6
4255.83
4255.81
4256.4
4257.31
4290.91
4399.01
65693
8261.77
7570.69
6999.76
6537.93
6169.65
5877.6
5644.22
5456.37
5302.7
5176.1
5069.91
4980.64
4904.12
4838.76
4781.7
4732.4
4688.64
4650.52
4616.2
4586.12
4558.67
4534.54
4512.22
4492.57
4474.17
4457.99
4442.65
4429.18
4416.23
4404.93
4393.92
4384.35
4374.9
4366.75
4358.59
4351.61
4344.54
4338.53
4332.36
4327.14
4321.76
4317.24
4312.48
4308.56
4304.37
4300.94
4297.25
4294.21
4290.96
4288.3
4285.44
4283.13
4280.67
4278.59
4276.39
4274.58
4272.63
4271.04
4269.29
4267.89
4266.4
4265.25
4263.89
4262.94
4261.76
4260.95
4259.88
4259.19
4258.27
4257.73
4256.95
4256.52
4255.85
4255.49
4254.86
4254.47
4253.85
4253.5
4252.95
4252.65
4252.16
4251.92
4251.49
4251.31
4250.96
4250.88
4250.68
4250.79
4250.78
4250.99
4250.97
4251.55
4252.49
4287.05
4395.31
62410.2
8261.77
7570.76
6999.8
6537.77
6169.15
5876.7
5642.93
5454.71
5300.7
5173.8
5067.35
4977.84
4901.11
4835.58
4778.35
4728.91
4685.02
4646.79
4612.36
4582.19
4554.65
4530.44
4508.05
4488.34
4469.88
4453.65
4438.25
4424.74
4411.75
4400.4
4389.35
4379.75
4370.27
4362.09
4353.9
4346.9
4339.8
4333.77
4327.57
4322.34
4316.93
4312.39
4307.61
4303.68
4299.48
4296.03
4292.32
4289.27
4286.01
4283.34
4280.47
4278.14
4275.67
4273.58
4271.37
4269.55
4267.59
4265.99
4264.23
4262.83
4261.32
4260.18
4258.8
4257.84
4256.66
4255.84
4254.76
4254.07
4253.14
4252.6
4251.81
4251.37
4250.7
4250.33
4249.7
4249.3
4248.68
4248.33
4247.77
4247.47
4246.97
4246.73
4246.29
4246.11
4245.76
4245.67
4245.46
4245.56
4245.54
4245.74
4245.71
4246.29
4247.26
4282.86
4391.34
59207.2
8261.76
7570.84
6999.85
6537.59
6168.61
5875.74
5641.55
5452.92
5298.56
5171.33
5064.59
4974.84
4897.88
4832.15
4774.75
4725.15
4681.12
4642.76
4608.22
4577.95
4550.31
4526.02
4503.56
4483.78
4465.25
4448.96
4433.51
4419.94
4406.91
4395.52
4384.43
4374.79
4365.27
4357.06
4348.84
4341.81
4334.68
4328.63
4322.4
4317.15
4311.72
4307.16
4302.36
4298.41
4294.19
4290.73
4287.01
4283.94
4280.67
4277.98
4275.1
4272.76
4270.28
4268.17
4265.95
4264.12
4262.15
4260.54
4258.77
4257.37
4255.85
4254.69
4253.31
4252.34
4251.15
4250.33
4249.24
4248.54
4247.6
4247.06
4246.26
4245.81
4245.14
4244.77
4244.13
4243.73
4243.11
4242.74
4242.18
4241.87
4241.37
4241.13
4240.68
4240.49
4240.14
4240.04
4239.82
4239.91
4239.88
4240.07
4240.04
4240.6
4241.62
4278.33
4387.13
56088.8
8261.76
7570.92
6999.89
6537.41
6168.04
5874.72
5640.07
5451.02
5296.26
5168.69
5061.64
4971.61
4894.42
4828.48
4770.89
4721.12
4676.94
4638.45
4603.78
4573.4
4545.66
4521.28
4498.73
4478.88
4460.28
4443.93
4428.41
4414.8
4401.71
4390.27
4379.14
4369.46
4359.91
4351.66
4343.4
4336.34
4329.18
4323.1
4316.85
4311.57
4306.12
4301.54
4296.72
4292.75
4288.51
4285.03
4281.29
4278.21
4274.92
4272.22
4269.32
4266.97
4264.47
4262.36
4260.13
4258.28
4256.31
4254.69
4252.9
4251.49
4249.96
4248.8
4247.4
4246.43
4245.22
4244.4
4243.3
4242.6
4241.65
4241.1
4240.29
4239.84
4239.16
4238.79
4238.14
4237.74
4237.11
4236.74
4236.17
4235.86
4235.35
4235.1
4234.65
4234.46
4234.1
4234
4233.76
4233.84
4233.81
4233.98
4233.94
4234.5
4235.55
4273.45
4382.63
53059.7
8261.75
7571.01
6999.95
6537.21
6167.43
5873.64
5638.5
5448.99
5293.81
5165.87
5058.49
4968.18
4890.72
4824.55
4766.76
4716.81
4672.47
4633.83
4599.03
4568.53
4540.69
4516.21
4493.57
4473.63
4454.96
4438.54
4422.96
4409.29
4396.14
4384.66
4373.47
4363.75
4354.16
4345.88
4337.58
4330.49
4323.3
4317.19
4310.91
4305.61
4300.13
4295.53
4290.68
4286.69
4282.43
4278.93
4275.17
4272.08
4268.77
4266.06
4263.14
4260.77
4258.26
4256.14
4253.89
4252.04
4250.04
4248.42
4246.62
4245.2
4243.66
4242.48
4241.08
4240.1
4238.88
4238.05
4236.95
4236.24
4235.28
4234.72
4233.9
4233.45
4232.76
4232.38
4231.73
4231.32
4230.68
4230.31
4229.74
4229.42
4228.91
4228.65
4228.19
4227.99
4227.63
4227.52
4227.26
4227.34
4227.3
4227.46
4227.41
4227.95
4229.05
4268.2
4377.85
50123.8
8261.75
7571.1
7000.01
6537.01
6166.8
5872.49
5636.83
5446.84
5291.21
5162.88
5055.15
4964.52
4886.79
4820.38
4762.36
4712.22
4667.7
4628.91
4593.97
4563.35
4535.38
4510.8
4488.07
4468.05
4449.29
4432.8
4417.15
4403.41
4390.21
4378.67
4367.44
4357.67
4348.03
4339.71
4331.38
4324.24
4317.02
4310.88
4304.57
4299.24
4293.73
4289.11
4284.24
4280.22
4275.94
4272.43
4268.65
4265.53
4262.21
4259.48
4256.54
4254.16
4251.63
4249.5
4247.23
4245.37
4243.36
4241.73
4239.92
4238.49
4236.93
4235.75
4234.33
4233.34
4232.11
4231.28
4230.16
4229.44
4228.47
4227.91
4227.08
4226.62
4225.93
4225.54
4224.88
4224.47
4223.83
4223.45
4222.87
4222.55
4222.03
4221.76
4221.3
4221.09
4220.72
4220.61
4220.34
4220.4
4220.35
4220.5
4220.44
4220.97
4222.12
4262.57
4372.75
47284.9
8261.74
7571.2
7000.07
6536.8
6166.13
5871.29
5635.08
5444.56
5288.47
5159.71
5051.6
4960.64
4882.62
4815.95
4757.7
4707.35
4662.65
4623.69
4588.6
4557.84
4529.75
4505.06
4482.22
4462.11
4443.26
4426.69
4410.97
4397.17
4383.9
4372.31
4361.02
4351.2
4341.51
4333.15
4324.77
4317.61
4310.34
4304.17
4297.83
4292.47
4286.93
4282.28
4277.38
4273.35
4269.04
4265.51
4261.7
4258.57
4255.22
4252.48
4249.52
4247.13
4244.58
4242.43
4240.15
4238.28
4236.25
4234.61
4232.79
4231.34
4229.77
4228.58
4227.15
4226.15
4224.91
4224.07
4222.94
4222.22
4221.24
4220.66
4219.83
4219.36
4218.66
4218.26
4217.6
4217.18
4216.53
4216.15
4215.56
4215.23
4214.7
4214.43
4213.96
4213.75
4213.37
4213.25
4212.97
4213.02
4212.96
4213.09
4213.02
4213.55
4214.74
4256.55
4367.3
44546.6
8261.73
7571.3
7000.14
6536.58
6165.43
5870.02
5633.23
5442.17
5285.57
5156.36
5047.86
4956.54
4878.21
4811.26
4752.76
4702.2
4657.3
4618.16
4582.91
4552.01
4523.79
4498.98
4476.03
4455.81
4436.88
4420.22
4404.42
4390.55
4377.21
4365.56
4354.21
4344.34
4334.6
4326.19
4317.77
4310.57
4303.26
4297.06
4290.68
4285.29
4279.72
4275.04
4270.12
4266.05
4261.72
4258.16
4254.34
4251.19
4247.82
4245.05
4242.08
4239.66
4237.1
4234.94
4232.64
4230.75
4228.71
4227.05
4225.22
4223.77
4222.18
4220.98
4219.53
4218.52
4217.27
4216.42
4215.28
4214.55
4213.56
4212.97
4212.13
4211.65
4210.95
4210.54
4209.87
4209.45
4208.79
4208.41
4207.81
4207.47
4206.94
4206.66
4206.18
4205.96
4205.57
4205.44
4205.15
4205.18
4205.12
4205.23
4205.15
4205.67
4206.91
4250.1
4361.49
41911.8
8261.72
7571.41
7000.21
6536.35
6164.71
5868.7
5631.3
5439.65
5282.52
5152.84
5043.91
4952.23
4873.56
4806.32
4747.56
4696.76
4651.65
4612.32
4576.9
4545.84
4517.48
4492.55
4469.48
4449.16
4430.13
4413.38
4397.5
4383.55
4370.14
4358.43
4347.01
4337.09
4327.3
4318.84
4310.37
4303.12
4295.77
4289.53
4283.11
4277.69
4272.09
4267.38
4262.43
4258.34
4253.98
4250.4
4246.55
4243.37
4239.98
4237.2
4234.2
4231.77
4229.19
4227.01
4224.69
4222.79
4220.73
4219.06
4217.21
4215.75
4214.14
4212.93
4211.47
4210.45
4209.19
4208.32
4207.18
4206.43
4205.43
4204.84
4203.99
4203.5
4202.78
4202.37
4201.69
4201.27
4200.6
4200.21
4199.6
4199.26
4198.71
4198.43
4197.94
4197.72
4197.32
4197.18
4196.88
4196.9
4196.82
4196.92
4196.82
4197.33
4198.62
4243.21
4355.28
39383.3
8261.71
7571.52
7000.29
6536.12
6163.95
5867.31
5629.27
5437.01
5279.32
5149.14
5039.77
4947.69
4868.66
4801.11
4742.07
4691.03
4645.69
4606.17
4570.56
4539.35
4510.84
4485.77
4462.58
4442.15
4423.01
4406.17
4390.2
4376.17
4362.69
4350.9
4339.42
4329.44
4319.59
4311.08
4302.56
4295.26
4287.87
4281.59
4275.13
4269.67
4264.03
4259.3
4254.31
4250.19
4245.81
4242.2
4238.32
4235.13
4231.71
4228.91
4225.89
4223.44
4220.83
4218.64
4216.3
4214.38
4212.31
4210.63
4208.76
4207.28
4205.66
4204.44
4202.96
4201.93
4200.65
4199.78
4198.62
4197.87
4196.85
4196.25
4195.39
4194.89
4194.16
4193.75
4193.06
4192.63
4191.95
4191.55
4190.93
4190.59
4190.03
4189.74
4189.24
4189.01
4188.61
4188.46
4188.15
4188.15
4188.06
4188.14
4188.02
4188.52
4189.87
4235.86
4348.63
36963.5
8261.7
7571.64
7000.38
6535.89
6163.17
5865.88
5627.15
5434.26
5275.98
5145.27
5035.42
4942.93
4863.53
4795.65
4736.32
4685.01
4639.44
4599.71
4563.91
4532.52
4503.85
4478.64
4455.32
4434.77
4415.52
4398.59
4382.52
4368.41
4354.84
4342.98
4331.43
4321.39
4311.47
4302.91
4294.33
4286.99
4279.55
4273.23
4266.73
4261.23
4255.55
4250.79
4245.76
4241.61
4237.2
4233.56
4229.66
4226.44
4223
4220.17
4217.13
4214.66
4212.03
4209.82
4207.46
4205.53
4203.44
4201.74
4199.85
4198.36
4196.72
4195.49
4194
4192.95
4191.66
4190.78
4189.6
4188.84
4187.81
4187.2
4186.32
4185.82
4185.08
4184.66
4183.96
4183.52
4182.84
4182.43
4181.8
4181.45
4180.88
4180.59
4180.08
4179.84
4179.42
4179.27
4178.95
4178.93
4178.83
4178.89
4178.76
4179.25
4180.65
4228
4341.52
34654.4
8261.69
7571.76
7000.47
6535.65
6162.36
5864.38
5624.95
5431.38
5272.49
5141.22
5030.88
4937.94
4858.15
4789.93
4730.28
4678.7
4632.88
4592.93
4556.92
4525.36
4496.52
4471.16
4447.7
4427.03
4407.66
4390.62
4374.45
4360.25
4346.59
4334.66
4323.03
4312.92
4302.94
4294.32
4285.69
4278.3
4270.81
4264.44
4257.89
4252.36
4246.64
4241.84
4236.78
4232.6
4228.15
4224.49
4220.55
4217.31
4213.84
4210.99
4207.92
4205.43
4202.78
4200.55
4198.17
4196.22
4194.11
4192.39
4190.49
4188.99
4187.32
4186.08
4184.57
4183.51
4182.2
4181.31
4180.12
4179.35
4178.31
4177.68
4176.79
4176.28
4175.53
4175.1
4174.39
4173.95
4173.26
4172.84
4172.2
4171.84
4171.26
4170.96
4170.44
4170.19
4169.77
4169.61
4169.27
4169.24
4169.12
4169.17
4169.01
4169.49
4170.96
4219.61
4333.91
32457.8
8261.68
7571.88
7000.56
6535.4
6161.52
5862.83
5622.67
5428.39
5268.85
5137
5026.13
4932.74
4852.54
4783.95
4723.97
4672.1
4626.02
4585.83
4549.61
4517.86
4488.84
4463.32
4439.71
4418.91
4399.42
4382.26
4365.99
4351.7
4337.95
4325.93
4314.23
4304.05
4294
4285.32
4276.63
4269.18
4261.64
4255.22
4248.63
4243.05
4237.29
4232.45
4227.35
4223.14
4218.65
4214.96
4211
4207.73
4204.23
4201.36
4198.26
4195.74
4193.07
4190.82
4188.42
4186.45
4184.31
4182.59
4180.66
4179.14
4177.46
4176.2
4174.68
4173.61
4172.28
4171.37
4170.17
4169.39
4168.33
4167.7
4166.79
4166.27
4165.51
4165.07
4164.35
4163.9
4163.2
4162.77
4162.12
4161.75
4161.17
4160.85
4160.32
4160.06
4159.63
4159.46
4159.12
4159.07
4158.93
4158.96
4158.78
4159.25
4160.78
4210.65
4325.75
30375.4
8261.66
7572.01
7000.66
6535.16
6160.66
5861.24
5620.3
5425.29
5265.06
5132.6
5021.19
4927.31
4846.68
4777.7
4717.39
4665.21
4618.85
4578.41
4541.97
4510.01
4480.81
4455.13
4431.36
4410.42
4390.79
4373.53
4357.14
4342.75
4328.9
4316.8
4305.01
4294.76
4284.64
4275.9
4267.14
4259.64
4252.03
4245.57
4238.93
4233.31
4227.5
4222.62
4217.48
4213.23
4208.71
4204.99
4200.99
4197.69
4194.16
4191.26
4188.14
4185.6
4182.89
4180.63
4178.2
4176.22
4174.06
4172.31
4170.37
4168.83
4167.13
4165.86
4164.31
4163.23
4161.88
4160.96
4159.75
4158.95
4157.88
4157.23
4156.31
4155.78
4155
4154.56
4153.83
4153.37
4152.66
4152.23
4151.56
4151.19
4150.59
4150.26
4149.72
4149.45
4149.01
4148.83
4148.47
4148.41
4148.26
4148.27
4148.06
4148.53
4150.11
4201.07
4317.02
28408.3
8261.65
7572.14
7000.77
6534.91
6159.78
5859.59
5617.85
5422.07
5261.13
5128.04
5016.05
4921.66
4840.57
4771.2
4710.52
4658.02
4611.37
4570.68
4533.99
4501.83
4472.43
4446.57
4422.64
4401.55
4381.79
4364.4
4347.89
4333.4
4319.45
4307.26
4295.38
4285.05
4274.86
4266.04
4257.22
4249.66
4242
4235.48
4228.78
4223.12
4217.26
4212.34
4207.16
4202.88
4198.31
4194.56
4190.52
4187.2
4183.63
4180.71
4177.56
4174.99
4172.26
4169.97
4167.52
4165.51
4163.33
4161.57
4159.6
4158.05
4156.32
4155.04
4153.47
4152.37
4151.01
4150.08
4148.84
4148.03
4146.94
4146.29
4145.35
4144.81
4144.02
4143.56
4142.82
4142.35
4141.63
4141.19
4140.52
4140.13
4139.52
4139.18
4138.63
4138.35
4137.9
4137.71
4137.34
4137.26
4137.1
4137.08
4136.85
4137.31
4138.95
4190.89
4307.68
26557.9
8261.63
7572.27
7000.89
6534.66
6158.88
5857.89
5615.32
5418.74
5257.06
5123.3
5010.71
4915.79
4834.23
4764.43
4703.37
4650.54
4603.58
4562.62
4525.69
4493.3
4463.69
4437.65
4413.55
4392.31
4372.4
4354.88
4338.25
4323.64
4309.59
4297.31
4285.34
4274.93
4264.65
4255.76
4246.87
4239.24
4231.52
4224.95
4218.19
4212.48
4206.57
4201.61
4196.38
4192.06
4187.46
4183.67
4179.6
4176.24
4172.64
4169.69
4166.51
4163.91
4161.15
4158.84
4156.36
4154.33
4152.12
4150.35
4148.35
4146.79
4145.04
4143.73
4142.15
4141.03
4139.65
4138.7
4137.45
4136.63
4135.52
4134.85
4133.9
4133.34
4132.54
4132.07
4131.32
4130.85
4130.11
4129.66
4128.98
4128.58
4127.95
4127.61
4127.05
4126.76
4126.29
4126.09
4125.71
4125.61
4125.44
4125.4
4125.14
4125.59
4127.29
4180.09
4297.67
24825.3
8261.61
7572.41
7001.01
6534.41
6157.96
5856.15
5612.71
5415.31
5252.86
5118.4
5005.18
4909.71
4827.65
4757.41
4695.95
4642.77
4595.49
4554.24
4517.04
4484.42
4454.6
4428.37
4404.08
4382.69
4362.62
4344.97
4328.21
4313.48
4299.32
4286.94
4274.87
4264.37
4254.01
4245.05
4236.08
4228.39
4220.6
4213.97
4207.16
4201.39
4195.43
4190.43
4185.15
4180.79
4176.14
4172.31
4168.2
4164.81
4161.18
4158.2
4154.98
4152.36
4149.56
4147.23
4144.72
4142.68
4140.44
4138.64
4136.63
4135.04
4133.27
4131.95
4130.34
4129.21
4127.8
4126.84
4125.57
4124.74
4123.61
4122.93
4121.96
4121.39
4120.57
4120.09
4119.33
4118.85
4118.1
4117.64
4116.94
4116.53
4115.89
4115.54
4114.96
4114.66
4114.18
4113.97
4113.57
4113.46
4113.28
4113.22
4112.92
4113.36
4115.12
4168.67
4286.98
23211.3
8261.59
7572.55
7001.13
6534.16
6157.02
5854.36
5610.03
5411.76
5248.51
5113.33
4999.46
4903.41
4820.82
4750.13
4688.25
4634.7
4587.08
4545.54
4508.07
4475.2
4445.16
4418.72
4394.25
4372.68
4352.46
4334.66
4317.76
4302.92
4288.63
4276.15
4263.98
4253.39
4242.94
4233.9
4224.85
4217.1
4209.23
4202.54
4195.67
4189.85
4183.83
4178.78
4173.46
4169.05
4164.36
4160.49
4156.34
4152.92
4149.24
4146.23
4142.98
4140.33
4137.5
4135.15
4132.6
4130.54
4128.27
4126.45
4124.41
4122.81
4121.01
4119.67
4118.04
4116.89
4115.46
4114.49
4113.2
4112.35
4111.21
4110.5
4109.52
4108.94
4108.1
4107.61
4106.84
4106.34
4105.58
4105.11
4104.4
4103.98
4103.33
4102.96
4102.37
4102.06
4101.56
4101.34
4100.93
4100.81
4100.61
4100.53
4100.2
4100.63
4102.44
4156.64
4275.56
21711.7
8261.57
7572.69
7001.27
6533.91
6156.07
5852.54
5607.28
5408.12
5244.03
5108.1
4993.55
4896.89
4813.76
4742.59
4680.28
4626.34
4578.37
4536.52
4498.76
4465.64
4435.35
4408.71
4384.03
4362.29
4341.9
4323.95
4306.91
4291.94
4277.54
4264.94
4252.66
4241.98
4231.43
4222.32
4213.19
4205.36
4197.42
4190.67
4183.73
4177.86
4171.78
4166.68
4161.3
4156.84
4152.11
4148.2
4144.01
4140.55
4136.83
4133.79
4130.5
4127.82
4124.96
4122.58
4120
4117.91
4115.61
4113.78
4111.71
4110.09
4108.26
4106.9
4105.24
4104.08
4102.63
4101.63
4100.32
4099.46
4098.3
4097.58
4096.58
4095.98
4095.13
4094.63
4093.84
4093.33
4092.56
4092.08
4091.35
4090.92
4090.25
4089.88
4089.27
4088.95
4088.44
4088.2
4087.78
4087.64
4087.42
4087.32
4086.96
4087.38
4089.25
4143.98
4263.38
20321.7
8261.55
7572.84
7001.41
6533.66
6155.11
5850.67
5604.47
5404.38
5239.43
5102.71
4987.45
4890.16
4806.47
4734.79
4672.03
4617.69
4569.36
4527.17
4489.12
4455.73
4425.2
4398.33
4373.45
4351.52
4330.95
4312.85
4295.66
4280.55
4266.02
4253.31
4240.92
4230.14
4219.5
4210.29
4201.08
4193.17
4185.16
4178.34
4171.33
4165.4
4159.26
4154.1
4148.67
4144.17
4139.38
4135.43
4131.2
4127.7
4123.94
4120.87
4117.54
4114.83
4111.92
4109.52
4106.91
4104.79
4102.47
4100.61
4098.51
4096.87
4095.01
4093.63
4091.95
4090.77
4089.29
4088.28
4086.95
4086.07
4084.89
4084.16
4083.13
4082.52
4081.65
4081.14
4080.33
4079.82
4079.03
4078.54
4077.79
4077.35
4076.67
4076.28
4075.66
4075.33
4074.8
4074.55
4074.11
4073.95
4073.72
4073.61
4073.2
4073.62
4075.53
4130.7
4250.4
19036.5
8261.53
7572.99
7001.55
6533.42
6154.13
5848.77
5601.58
5400.54
5234.69
5097.16
4981.17
4883.23
4798.95
4726.75
4663.51
4608.75
4560.03
4517.51
4479.14
4445.48
4414.68
4387.59
4362.49
4340.37
4319.62
4301.35
4284
4268.76
4254.09
4241.26
4228.75
4217.87
4207.12
4197.83
4188.52
4180.53
4172.44
4165.55
4158.47
4152.48
4146.27
4141.07
4135.57
4131.03
4126.18
4122.19
4117.91
4114.37
4110.57
4107.46
4104.09
4101.34
4098.4
4095.97
4093.33
4091.18
4088.82
4086.94
4084.81
4083.15
4081.26
4079.86
4078.16
4076.95
4075.45
4074.42
4073.07
4072.17
4070.97
4070.22
4069.18
4068.55
4067.66
4067.14
4066.31
4065.79
4064.98
4064.48
4063.72
4063.27
4062.57
4062.17
4061.53
4061.19
4060.64
4060.38
4059.93
4059.75
4059.5
4059.37
4058.92
4059.33
4061.29
4116.79
4236.59
17850.7
8261.5
7573.13
7001.71
6533.18
6153.14
5846.84
5598.64
5396.6
5229.83
5091.46
4974.71
4876.09
4791.19
4718.45
4654.72
4599.52
4550.41
4507.53
4468.84
4434.88
4403.82
4376.48
4351.15
4328.83
4307.89
4289.45
4271.94
4256.55
4241.74
4228.78
4216.15
4205.16
4194.3
4184.92
4175.52
4167.45
4159.27
4152.31
4145.15
4139.1
4132.82
4127.56
4122.01
4117.41
4112.51
4108.47
4104.14
4100.56
4096.71
4093.56
4090.15
4087.37
4084.39
4081.93
4079.25
4077.08
4074.68
4072.78
4070.62
4068.94
4067.01
4065.59
4063.86
4062.63
4061.11
4060.06
4058.68
4057.77
4056.54
4055.78
4054.71
4054.07
4053.16
4052.62
4051.78
4051.25
4050.42
4049.91
4049.13
4048.67
4047.95
4047.54
4046.88
4046.53
4045.96
4045.69
4045.22
4045.02
4044.75
4044.61
4044.12
4044.52
4046.52
4102.26
4221.92
16758.9
8261.48
7573.29
7001.87
6532.94
6152.14
5844.87
5595.63
5392.58
5224.85
5085.61
4968.07
4868.74
4783.21
4709.9
4645.67
4590.01
4540.48
4497.24
4458.2
4423.94
4392.6
4365.01
4339.44
4316.91
4295.77
4277.15
4259.47
4243.93
4228.97
4215.88
4203.12
4192.02
4181.05
4171.57
4162.06
4153.91
4145.65
4138.6
4131.37
4125.25
4118.91
4113.58
4107.97
4103.31
4098.36
4094.27
4089.88
4086.26
4082.37
4079.18
4075.73
4072.91
4069.89
4067.39
4064.67
4062.48
4060.05
4058.12
4055.92
4054.22
4052.26
4050.82
4049.06
4047.81
4046.25
4045.19
4043.78
4042.85
4041.6
4040.82
4039.73
4039.07
4038.15
4037.59
4036.73
4036.18
4035.34
4034.82
4034.02
4033.55
4032.81
4032.39
4031.71
4031.34
4030.76
4030.47
4029.98
4029.77
4029.48
4029.32
4028.79
4029.19
4031.21
4087.09
4206.37
15755.3
8261.45
7573.44
7002.04
6532.71
6151.14
5842.88
5592.58
5388.48
5219.76
5079.62
4961.26
4861.2
4775.01
4701.12
4636.35
4580.22
4530.26
4486.63
4447.24
4412.66
4381.02
4353.17
4327.36
4304.61
4283.26
4264.45
4246.59
4230.89
4215.78
4202.56
4189.67
4178.44
4167.36
4157.77
4148.16
4139.92
4131.56
4124.44
4117.13
4110.94
4104.52
4099.13
4093.45
4088.74
4083.73
4079.59
4075.15
4071.48
4067.54
4064.31
4060.81
4057.95
4054.89
4052.36
4049.6
4047.37
4044.91
4042.95
4040.72
4038.99
4037
4035.54
4033.74
4032.47
4030.89
4029.8
4028.37
4027.42
4026.15
4025.35
4024.23
4023.56
4022.61
4022.04
4021.16
4020.6
4019.74
4019.2
4018.39
4017.9
4017.15
4016.71
4016.02
4015.63
4015.03
4014.73
4014.22
4013.99
4013.68
4013.5
4012.94
4013.32
4015.37
4071.3
4189.9
14834.1
8261.42
7573.59
7002.21
6532.49
6150.14
5840.87
5589.47
5384.3
5214.56
5073.49
4954.28
4853.47
4766.59
4692.09
4626.77
4570.15
4519.74
4475.71
4435.95
4401.05
4369.1
4340.98
4314.91
4291.93
4270.36
4251.36
4233.31
4217.45
4202.18
4188.81
4175.78
4164.44
4153.23
4143.53
4133.82
4125.48
4117.03
4109.82
4102.43
4096.16
4089.66
4084.21