/*--------------------------------*- C++ -*----------------------------------*\
| =========                 |                                                 |
| \\      /  F ield         | OpenFOAM: The Open Source CFD Toolbox           |
|  \\    /   O peration     | Version:  v2012                                 |
|   \\  /    A nd           | Website:  www.openfoam.com                      |
|    \\/     M anipulation  |                                                 |
\*---------------------------------------------------------------------------*/
FoamFile
{
    version     2.0;
    format      ascii;
    class       volVectorField;
    location    "57";
    object      wallShearStress;
}
// * * * * * * * * * * * * * * * * * * * * * * * * * * * * * * * * * * * * * //

dimensions      [0 2 -2 0 0 0 0];


internalField   uniform (0 0 0);

boundaryField
{
    inlet
    {
        type            calculated;
        value           uniform (0 0 0);
    }
    outlet
    {
        type            calculated;
        value           uniform (0 0 0);
    }
    topWall
    {
        type            calculated;
        value           nonuniform List<vector> 
545
(
(3.67412e-08 -2.58626e-08 0)
(3.67299e-08 -7.23479e-08 0)
(3.67099e-08 -1.20687e-07 0)
(3.66815e-08 -1.67628e-07 0)
(3.66457e-08 -2.12571e-07 0)
(3.66035e-08 -2.56094e-07 0)
(3.65553e-08 -2.98566e-07 0)
(3.65014e-08 -3.39969e-07 0)
(3.64425e-08 -3.8021e-07 0)
(3.63789e-08 -4.1929e-07 0)
(3.63111e-08 -4.57261e-07 0)
(3.62396e-08 -4.94165e-07 0)
(3.61646e-08 -5.30028e-07 0)
(3.60865e-08 -5.64871e-07 0)
(3.60058e-08 -5.9872e-07 0)
(3.59226e-08 -6.31599e-07 0)
(3.58372e-08 -6.63537e-07 0)
(3.57501e-08 -6.94558e-07 0)
(3.56613e-08 -7.24687e-07 0)
(3.55712e-08 -7.53947e-07 0)
(3.548e-08 -7.82363e-07 0)
(3.53879e-08 -8.09959e-07 0)
(3.5295e-08 -8.36756e-07 0)
(3.52016e-08 -8.62778e-07 0)
(3.51079e-08 -8.88047e-07 0)
(3.50139e-08 -9.12583e-07 0)
(3.49199e-08 -9.36409e-07 0)
(3.4826e-08 -9.59543e-07 0)
(3.47322e-08 -9.82007e-07 0)
(3.46388e-08 -1.00382e-06 0)
(3.45458e-08 -1.025e-06 0)
(3.44533e-08 -1.04557e-06 0)
(3.43614e-08 -1.06554e-06 0)
(3.42702e-08 -1.08493e-06 0)
(3.41798e-08 -1.10376e-06 0)
(3.40902e-08 -1.12205e-06 0)
(3.40015e-08 -1.13981e-06 0)
(3.39137e-08 -1.15705e-06 0)
(3.3827e-08 -1.1738e-06 0)
(3.37413e-08 -1.19006e-06 0)
(3.36567e-08 -1.20586e-06 0)
(3.35732e-08 -1.2212e-06 0)
(3.34908e-08 -1.23609e-06 0)
(3.34097e-08 -1.25056e-06 0)
(3.33297e-08 -1.26462e-06 0)
(3.32509e-08 -1.27827e-06 0)
(3.31734e-08 -1.29153e-06 0)
(3.30972e-08 -1.30441e-06 0)
(3.30222e-08 -1.31693e-06 0)
(3.29485e-08 -1.32908e-06 0)
(3.2876e-08 -1.34089e-06 0)
(3.28049e-08 -1.35236e-06 0)
(3.2735e-08 -1.36351e-06 0)
(3.26664e-08 -1.37434e-06 0)
(3.2599e-08 -1.38486e-06 0)
(3.2533e-08 -1.39508e-06 0)
(3.24682e-08 -1.40501e-06 0)
(3.24046e-08 -1.41467e-06 0)
(3.23423e-08 -1.42405e-06 0)
(3.22813e-08 -1.43316e-06 0)
(3.22215e-08 -1.44202e-06 0)
(3.21629e-08 -1.45063e-06 0)
(3.21055e-08 -1.45899e-06 0)
(3.20493e-08 -1.46713e-06 0)
(3.19943e-08 -1.47503e-06 0)
(3.19404e-08 -1.48271e-06 0)
(3.18877e-08 -1.49018e-06 0)
(3.18361e-08 -1.49744e-06 0)
(3.17857e-08 -1.50449e-06 0)
(3.17363e-08 -1.51135e-06 0)
(3.1688e-08 -1.51802e-06 0)
(3.16411e-08 -1.52449e-06 0)
(3.15955e-08 -1.53072e-06 0)
(3.15506e-08 -1.53677e-06 0)
(3.15061e-08 -1.54275e-06 0)
(3.14617e-08 -1.5487e-06 0)
(3.14174e-08 -1.55462e-06 0)
(3.13732e-08 -1.56052e-06 0)
(3.1329e-08 -1.56637e-06 0)
(3.12848e-08 -1.57219e-06 0)
(3.12407e-08 -1.57797e-06 0)
(3.11966e-08 -1.58372e-06 0)
(3.11525e-08 -1.58943e-06 0)
(3.11085e-08 -1.59511e-06 0)
(3.10646e-08 -1.60076e-06 0)
(3.10207e-08 -1.60637e-06 0)
(3.09768e-08 -1.61195e-06 0)
(3.0933e-08 -1.61749e-06 0)
(3.08893e-08 -1.623e-06 0)
(3.08456e-08 -1.62848e-06 0)
(3.0802e-08 -1.63393e-06 0)
(3.07584e-08 -1.63934e-06 0)
(3.07149e-08 -1.64473e-06 0)
(3.06715e-08 -1.65007e-06 0)
(3.06277e-08 -1.6554e-06 0)
(3.05862e-08 -1.66064e-06 0)
(3.05478e-08 -1.66544e-06 0)
(3.05107e-08 -1.66978e-06 0)
(3.04747e-08 -1.67401e-06 0)
(3.0439e-08 -1.67827e-06 0)
(3.04032e-08 -1.68256e-06 0)
(3.03672e-08 -1.68686e-06 0)
(3.0331e-08 -1.69116e-06 0)
(3.02947e-08 -1.69546e-06 0)
(3.02582e-08 -1.69977e-06 0)
(3.02215e-08 -1.70408e-06 0)
(3.01846e-08 -1.7084e-06 0)
(3.01476e-08 -1.71272e-06 0)
(3.01104e-08 -1.71705e-06 0)
(3.0073e-08 -1.72138e-06 0)
(3.00355e-08 -1.72572e-06 0)
(2.99977e-08 -1.73006e-06 0)
(2.99598e-08 -1.73441e-06 0)
(2.99217e-08 -1.73876e-06 0)
(2.98835e-08 -1.74312e-06 0)
(2.9845e-08 -1.74748e-06 0)
(2.98064e-08 -1.75185e-06 0)
(2.97676e-08 -1.75622e-06 0)
(2.97286e-08 -1.76059e-06 0)
(2.96894e-08 -1.76497e-06 0)
(2.965e-08 -1.76935e-06 0)
(2.96105e-08 -1.77374e-06 0)
(2.95708e-08 -1.77814e-06 0)
(2.95309e-08 -1.78253e-06 0)
(2.94908e-08 -1.78693e-06 0)
(2.94505e-08 -1.79134e-06 0)
(2.941e-08 -1.79575e-06 0)
(2.93694e-08 -1.80017e-06 0)
(2.93285e-08 -1.80458e-06 0)
(2.92875e-08 -1.80901e-06 0)
(2.92463e-08 -1.81344e-06 0)
(2.92049e-08 -1.81787e-06 0)
(2.91633e-08 -1.8223e-06 0)
(2.91215e-08 -1.82674e-06 0)
(2.90796e-08 -1.83119e-06 0)
(2.90374e-08 -1.83563e-06 0)
(2.89951e-08 -1.84009e-06 0)
(2.89525e-08 -1.84454e-06 0)
(2.89098e-08 -1.849e-06 0)
(2.88669e-08 -1.85347e-06 0)
(2.88238e-08 -1.85793e-06 0)
(2.87805e-08 -1.86241e-06 0)
(2.8737e-08 -1.86688e-06 0)
(2.86933e-08 -1.87136e-06 0)
(2.86494e-08 -1.87584e-06 0)
(2.86053e-08 -1.88033e-06 0)
(2.8561e-08 -1.88482e-06 0)
(2.85166e-08 -1.88931e-06 0)
(2.84719e-08 -1.89381e-06 0)
(2.8427e-08 -1.89831e-06 0)
(2.8382e-08 -1.90282e-06 0)
(2.83367e-08 -1.90732e-06 0)
(2.82913e-08 -1.91184e-06 0)
(2.82456e-08 -1.91635e-06 0)
(2.81998e-08 -1.92087e-06 0)
(2.81537e-08 -1.92539e-06 0)
(2.81075e-08 -1.92991e-06 0)
(2.8061e-08 -1.93444e-06 0)
(2.80144e-08 -1.93897e-06 0)
(2.79675e-08 -1.94351e-06 0)
(2.79205e-08 -1.94804e-06 0)
(2.78732e-08 -1.95258e-06 0)
(2.78258e-08 -1.95713e-06 0)
(2.77781e-08 -1.96167e-06 0)
(2.77303e-08 -1.96622e-06 0)
(2.76822e-08 -1.97077e-06 0)
(2.76339e-08 -1.97533e-06 0)
(2.75855e-08 -1.97988e-06 0)
(2.75368e-08 -1.98444e-06 0)
(2.74879e-08 -1.98901e-06 0)
(2.74389e-08 -1.99357e-06 0)
(2.73896e-08 -1.99814e-06 0)
(2.73401e-08 -2.00271e-06 0)
(2.72904e-08 -2.00728e-06 0)
(2.72405e-08 -2.01186e-06 0)
(2.71904e-08 -2.01643e-06 0)
(2.71401e-08 -2.02101e-06 0)
(2.70896e-08 -2.0256e-06 0)
(2.70389e-08 -2.03018e-06 0)
(2.6988e-08 -2.03477e-06 0)
(2.69368e-08 -2.03936e-06 0)
(2.68855e-08 -2.04395e-06 0)
(2.68339e-08 -2.04854e-06 0)
(2.67822e-08 -2.05313e-06 0)
(2.67302e-08 -2.05773e-06 0)
(2.66781e-08 -2.06233e-06 0)
(2.66257e-08 -2.06693e-06 0)
(2.65731e-08 -2.07153e-06 0)
(2.65203e-08 -2.07614e-06 0)
(2.64673e-08 -2.08074e-06 0)
(2.64141e-08 -2.08535e-06 0)
(2.63607e-08 -2.08996e-06 0)
(2.6307e-08 -2.09457e-06 0)
(2.62532e-08 -2.09918e-06 0)
(2.61992e-08 -2.10379e-06 0)
(2.61449e-08 -2.10841e-06 0)
(2.60904e-08 -2.11302e-06 0)
(2.60358e-08 -2.11764e-06 0)
(2.59809e-08 -2.12226e-06 0)
(2.59258e-08 -2.12688e-06 0)
(2.58705e-08 -2.1315e-06 0)
(2.5815e-08 -2.13612e-06 0)
(2.57592e-08 -2.14074e-06 0)
(2.57033e-08 -2.14536e-06 0)
(2.56471e-08 -2.14999e-06 0)
(2.55908e-08 -2.15461e-06 0)
(2.55342e-08 -2.15924e-06 0)
(2.54775e-08 -2.16386e-06 0)
(2.54205e-08 -2.16849e-06 0)
(2.53633e-08 -2.17312e-06 0)
(2.53059e-08 -2.17774e-06 0)
(2.52482e-08 -2.18237e-06 0)
(2.51904e-08 -2.187e-06 0)
(2.51324e-08 -2.19163e-06 0)
(2.50741e-08 -2.19626e-06 0)
(2.50157e-08 -2.20088e-06 0)
(2.4957e-08 -2.20551e-06 0)
(2.48981e-08 -2.21014e-06 0)
(2.4839e-08 -2.21477e-06 0)
(2.47798e-08 -2.2194e-06 0)
(2.47202e-08 -2.22403e-06 0)
(2.46605e-08 -2.22866e-06 0)
(2.46006e-08 -2.23328e-06 0)
(2.45405e-08 -2.23791e-06 0)
(2.44801e-08 -2.24254e-06 0)
(2.44196e-08 -2.24716e-06 0)
(2.43588e-08 -2.25179e-06 0)
(2.42979e-08 -2.25641e-06 0)
(2.42367e-08 -2.26104e-06 0)
(2.41753e-08 -2.26566e-06 0)
(2.41137e-08 -2.27029e-06 0)
(2.40519e-08 -2.27491e-06 0)
(2.39899e-08 -2.27953e-06 0)
(2.39277e-08 -2.28415e-06 0)
(2.38653e-08 -2.28877e-06 0)
(2.38027e-08 -2.29338e-06 0)
(2.37399e-08 -2.298e-06 0)
(2.36769e-08 -2.30261e-06 0)
(2.36136e-08 -2.30723e-06 0)
(2.35502e-08 -2.31184e-06 0)
(2.34865e-08 -2.31645e-06 0)
(2.34227e-08 -2.32106e-06 0)
(2.33587e-08 -2.32566e-06 0)
(2.32944e-08 -2.33027e-06 0)
(2.32299e-08 -2.33487e-06 0)
(2.31653e-08 -2.33947e-06 0)
(2.31004e-08 -2.34407e-06 0)
(2.30354e-08 -2.34867e-06 0)
(2.29701e-08 -2.35326e-06 0)
(2.29047e-08 -2.35785e-06 0)
(2.2839e-08 -2.36244e-06 0)
(2.27732e-08 -2.36703e-06 0)
(2.27071e-08 -2.37162e-06 0)
(2.26409e-08 -2.3762e-06 0)
(2.25744e-08 -2.38078e-06 0)
(2.25078e-08 -2.38536e-06 0)
(2.24409e-08 -2.38993e-06 0)
(2.23739e-08 -2.3945e-06 0)
(2.23067e-08 -2.39907e-06 0)
(2.22392e-08 -2.40364e-06 0)
(2.21716e-08 -2.4082e-06 0)
(2.21038e-08 -2.41276e-06 0)
(2.20358e-08 -2.41732e-06 0)
(2.19676e-08 -2.42187e-06 0)
(2.18992e-08 -2.42642e-06 0)
(2.18307e-08 -2.43096e-06 0)
(2.1762e-08 -2.4355e-06 0)
(2.16926e-08 -2.44005e-06 0)
(2.16252e-08 -2.44456e-06 0)
(2.15605e-08 -2.44885e-06 0)
(2.14967e-08 -2.45293e-06 0)
(2.14335e-08 -2.45698e-06 0)
(2.137e-08 -2.46107e-06 0)
(2.13059e-08 -2.46521e-06 0)
(2.12411e-08 -2.46938e-06 0)
(2.11756e-08 -2.47358e-06 0)
(2.11093e-08 -2.47782e-06 0)
(2.10423e-08 -2.48208e-06 0)
(2.09746e-08 -2.48638e-06 0)
(2.09061e-08 -2.49071e-06 0)
(2.08369e-08 -2.49508e-06 0)
(2.07669e-08 -2.49947e-06 0)
(2.06961e-08 -2.5039e-06 0)
(2.06246e-08 -2.50837e-06 0)
(2.05522e-08 -2.51286e-06 0)
(2.04791e-08 -2.51739e-06 0)
(2.04052e-08 -2.52195e-06 0)
(2.03305e-08 -2.52654e-06 0)
(2.0255e-08 -2.53117e-06 0)
(2.01787e-08 -2.53583e-06 0)
(2.01016e-08 -2.54052e-06 0)
(2.00236e-08 -2.54525e-06 0)
(1.99448e-08 -2.55e-06 0)
(1.98651e-08 -2.55479e-06 0)
(1.97846e-08 -2.55962e-06 0)
(1.97032e-08 -2.56447e-06 0)
(1.9621e-08 -2.56936e-06 0)
(1.95379e-08 -2.57428e-06 0)
(1.94539e-08 -2.57923e-06 0)
(1.9369e-08 -2.58422e-06 0)
(1.92833e-08 -2.58923e-06 0)
(1.91966e-08 -2.59428e-06 0)
(1.91091e-08 -2.59936e-06 0)
(1.90206e-08 -2.60447e-06 0)
(1.89312e-08 -2.60961e-06 0)
(1.88409e-08 -2.61479e-06 0)
(1.87497e-08 -2.61999e-06 0)
(1.86575e-08 -2.62523e-06 0)
(1.85644e-08 -2.6305e-06 0)
(1.84703e-08 -2.63579e-06 0)
(1.83753e-08 -2.64112e-06 0)
(1.82793e-08 -2.64648e-06 0)
(1.81824e-08 -2.65186e-06 0)
(1.80845e-08 -2.65728e-06 0)
(1.79856e-08 -2.66273e-06 0)
(1.78858e-08 -2.6682e-06 0)
(1.77849e-08 -2.6737e-06 0)
(1.76831e-08 -2.67923e-06 0)
(1.75803e-08 -2.68479e-06 0)
(1.74765e-08 -2.69038e-06 0)
(1.73717e-08 -2.69599e-06 0)
(1.72658e-08 -2.70163e-06 0)
(1.7159e-08 -2.7073e-06 0)
(1.70512e-08 -2.71299e-06 0)
(1.69423e-08 -2.71871e-06 0)
(1.68324e-08 -2.72445e-06 0)
(1.67215e-08 -2.73022e-06 0)
(1.66096e-08 -2.73601e-06 0)
(1.64967e-08 -2.74182e-06 0)
(1.63827e-08 -2.74766e-06 0)
(1.62677e-08 -2.75352e-06 0)
(1.61517e-08 -2.7594e-06 0)
(1.60346e-08 -2.7653e-06 0)
(1.59166e-08 -2.77122e-06 0)
(1.57974e-08 -2.77717e-06 0)
(1.56773e-08 -2.78313e-06 0)
(1.55561e-08 -2.78911e-06 0)
(1.54339e-08 -2.79511e-06 0)
(1.53107e-08 -2.80112e-06 0)
(1.51864e-08 -2.80715e-06 0)
(1.50611e-08 -2.8132e-06 0)
(1.49348e-08 -2.81926e-06 0)
(1.48075e-08 -2.82534e-06 0)
(1.46792e-08 -2.83143e-06 0)
(1.45498e-08 -2.83753e-06 0)
(1.44195e-08 -2.84364e-06 0)
(1.42881e-08 -2.84976e-06 0)
(1.41558e-08 -2.8559e-06 0)
(1.40225e-08 -2.86204e-06 0)
(1.38881e-08 -2.86819e-06 0)
(1.37529e-08 -2.87434e-06 0)
(1.36166e-08 -2.8805e-06 0)
(1.34794e-08 -2.88667e-06 0)
(1.33412e-08 -2.89284e-06 0)
(1.32021e-08 -2.89901e-06 0)
(1.30621e-08 -2.90519e-06 0)
(1.29211e-08 -2.91136e-06 0)
(1.27792e-08 -2.91753e-06 0)
(1.26365e-08 -2.9237e-06 0)
(1.24928e-08 -2.92987e-06 0)
(1.23483e-08 -2.93603e-06 0)
(1.2203e-08 -2.94219e-06 0)
(1.20568e-08 -2.94834e-06 0)
(1.19097e-08 -2.95448e-06 0)
(1.17619e-08 -2.96062e-06 0)
(1.16133e-08 -2.96674e-06 0)
(1.14639e-08 -2.97284e-06 0)
(1.13138e-08 -2.97894e-06 0)
(1.11629e-08 -2.98502e-06 0)
(1.10113e-08 -2.99108e-06 0)
(1.0859e-08 -2.99712e-06 0)
(1.0706e-08 -3.00315e-06 0)
(1.05525e-08 -3.00915e-06 0)
(1.03982e-08 -3.01513e-06 0)
(1.02434e-08 -3.02109e-06 0)
(1.0088e-08 -3.02702e-06 0)
(9.93209e-09 -3.03292e-06 0)
(9.77563e-09 -3.03879e-06 0)
(9.61868e-09 -3.04464e-06 0)
(9.46127e-09 -3.05045e-06 0)
(9.30343e-09 -3.05622e-06 0)
(9.14518e-09 -3.06196e-06 0)
(8.98657e-09 -3.06767e-06 0)
(8.82761e-09 -3.07333e-06 0)
(8.66835e-09 -3.07895e-06 0)
(8.50882e-09 -3.08453e-06 0)
(8.34905e-09 -3.09007e-06 0)
(8.18908e-09 -3.09556e-06 0)
(8.02894e-09 -3.101e-06 0)
(7.86868e-09 -3.10639e-06 0)
(7.70832e-09 -3.11173e-06 0)
(7.54791e-09 -3.11702e-06 0)
(7.3875e-09 -3.12225e-06 0)
(7.22711e-09 -3.12743e-06 0)
(7.06679e-09 -3.13254e-06 0)
(6.90658e-09 -3.1376e-06 0)
(6.74652e-09 -3.14259e-06 0)
(6.58666e-09 -3.14752e-06 0)
(6.42705e-09 -3.15238e-06 0)
(6.26771e-09 -3.15717e-06 0)
(6.10871e-09 -3.1619e-06 0)
(5.95008e-09 -3.16655e-06 0)
(5.79187e-09 -3.17113e-06 0)
(5.63412e-09 -3.17564e-06 0)
(5.4769e-09 -3.18007e-06 0)
(5.32023e-09 -3.18441e-06 0)
(5.16418e-09 -3.18868e-06 0)
(5.00878e-09 -3.19287e-06 0)
(4.85409e-09 -3.19697e-06 0)
(4.70015e-09 -3.20099e-06 0)
(4.54702e-09 -3.20492e-06 0)
(4.39474e-09 -3.20876e-06 0)
(4.24336e-09 -3.21251e-06 0)
(4.09294e-09 -3.21617e-06 0)
(3.94352e-09 -3.21973e-06 0)
(3.79515e-09 -3.2232e-06 0)
(3.64788e-09 -3.22657e-06 0)
(3.50176e-09 -3.22985e-06 0)
(3.35684e-09 -3.23302e-06 0)
(3.21317e-09 -3.23609e-06 0)
(3.07079e-09 -3.23907e-06 0)
(2.92977e-09 -3.24193e-06 0)
(2.79013e-09 -3.24469e-06 0)
(2.65194e-09 -3.24735e-06 0)
(2.51524e-09 -3.2499e-06 0)
(2.38007e-09 -3.25234e-06 0)
(2.24649e-09 -3.25467e-06 0)
(2.11453e-09 -3.25689e-06 0)
(1.98424e-09 -3.25899e-06 0)
(1.85567e-09 -3.26099e-06 0)
(1.72886e-09 -3.26287e-06 0)
(1.60386e-09 -3.26464e-06 0)
(1.48069e-09 -3.26629e-06 0)
(1.35941e-09 -3.26782e-06 0)
(1.24006e-09 -3.26924e-06 0)
(1.12266e-09 -3.27055e-06 0)
(1.00727e-09 -3.27173e-06 0)
(8.93911e-10 -3.2728e-06 0)
(7.82624e-10 -3.27375e-06 0)
(6.73443e-10 -3.27459e-06 0)
(5.66399e-10 -3.2753e-06 0)
(4.61524e-10 -3.2759e-06 0)
(3.58849e-10 -3.27637e-06 0)
(2.58402e-10 -3.27673e-06 0)
(1.60214e-10 -3.27697e-06 0)
(6.42921e-11 -3.27709e-06 0)
(-2.92597e-11 -3.2771e-06 0)
(-1.2075e-10 -3.27699e-06 0)
(-2.08766e-10 -3.27675e-06 0)
(-2.99138e-10 -3.2764e-06 0)
(-3.94173e-10 -3.27588e-06 0)
(-4.88944e-10 -3.27515e-06 0)
(-5.81919e-10 -3.27427e-06 0)
(-6.70838e-10 -3.27323e-06 0)
(-7.55415e-10 -3.27205e-06 0)
(-8.35704e-10 -3.27074e-06 0)
(-9.11789e-10 -3.26931e-06 0)
(-9.83775e-10 -3.26776e-06 0)
(-1.05179e-09 -3.26609e-06 0)
(-1.11595e-09 -3.26432e-06 0)
(-1.1764e-09 -3.26244e-06 0)
(-1.23324e-09 -3.26047e-06 0)
(-1.2866e-09 -3.25842e-06 0)
(-1.33658e-09 -3.25628e-06 0)
(-1.38329e-09 -3.25406e-06 0)
(-1.42685e-09 -3.25177e-06 0)
(-1.46734e-09 -3.24941e-06 0)
(-1.50488e-09 -3.24699e-06 0)
(-1.53956e-09 -3.24451e-06 0)
(-1.57147e-09 -3.24197e-06 0)
(-1.60071e-09 -3.23939e-06 0)
(-1.62736e-09 -3.23676e-06 0)
(-1.6515e-09 -3.23409e-06 0)
(-1.67322e-09 -3.23139e-06 0)
(-1.69259e-09 -3.22865e-06 0)
(-1.7097e-09 -3.22588e-06 0)
(-1.72461e-09 -3.22309e-06 0)
(-1.7374e-09 -3.22027e-06 0)
(-1.74814e-09 -3.21744e-06 0)
(-1.75689e-09 -3.21459e-06 0)
(-1.76371e-09 -3.21172e-06 0)
(-1.76866e-09 -3.20885e-06 0)
(-1.77182e-09 -3.20597e-06 0)
(-1.77322e-09 -3.20309e-06 0)
(-1.77293e-09 -3.20021e-06 0)
(-1.771e-09 -3.19733e-06 0)
(-1.76748e-09 -3.19445e-06 0)
(-1.76242e-09 -3.19158e-06 0)
(-1.75586e-09 -3.18872e-06 0)
(-1.74785e-09 -3.18588e-06 0)
(-1.73844e-09 -3.18304e-06 0)
(-1.72767e-09 -3.18023e-06 0)
(-1.71558e-09 -3.17743e-06 0)
(-1.7022e-09 -3.17465e-06 0)
(-1.68758e-09 -3.1719e-06 0)
(-1.67175e-09 -3.16917e-06 0)
(-1.65475e-09 -3.16646e-06 0)
(-1.63661e-09 -3.16379e-06 0)
(-1.61736e-09 -3.16114e-06 0)
(-1.59704e-09 -3.15853e-06 0)
(-1.57568e-09 -3.15595e-06 0)
(-1.55331e-09 -3.15341e-06 0)
(-1.52996e-09 -3.1509e-06 0)
(-1.50565e-09 -3.14844e-06 0)
(-1.48041e-09 -3.14601e-06 0)
(-1.45428e-09 -3.14363e-06 0)
(-1.42727e-09 -3.14128e-06 0)
(-1.39942e-09 -3.13899e-06 0)
(-1.37075e-09 -3.13673e-06 0)
(-1.34128e-09 -3.13453e-06 0)
(-1.31104e-09 -3.13237e-06 0)
(-1.28005e-09 -3.13027e-06 0)
(-1.24834e-09 -3.12821e-06 0)
(-1.21593e-09 -3.12621e-06 0)
(-1.18284e-09 -3.12426e-06 0)
(-1.1491e-09 -3.12236e-06 0)
(-1.11472e-09 -3.12052e-06 0)
(-1.07974e-09 -3.11873e-06 0)
(-1.04417e-09 -3.117e-06 0)
(-1.00803e-09 -3.11533e-06 0)
(-9.71349e-10 -3.11372e-06 0)
(-9.34147e-10 -3.11217e-06 0)
(-8.96444e-10 -3.11068e-06 0)
(-8.58263e-10 -3.10925e-06 0)
(-8.19623e-10 -3.10788e-06 0)
(-7.80549e-10 -3.10658e-06 0)
(-7.41058e-10 -3.10534e-06 0)
(-7.01175e-10 -3.10416e-06 0)
(-6.60918e-10 -3.10305e-06 0)
(-6.2031e-10 -3.10201e-06 0)
(-5.79371e-10 -3.10103e-06 0)
(-5.38122e-10 -3.10011e-06 0)
(-4.96585e-10 -3.09927e-06 0)
(-4.5478e-10 -3.09849e-06 0)
(-4.12729e-10 -3.09777e-06 0)
(-3.70455e-10 -3.09715e-06 0)
(-3.27977e-10 -3.09651e-06 0)
(-2.85325e-10 -3.09622e-06 0)
(-2.42504e-10 -3.09506e-06 0)
(-1.99592e-10 -3.09705e-06 0)
(-1.56473e-10 -3.0887e-06 0)
(-1.13491e-10 -3.11362e-06 0)
(-7.03455e-11 -3.02025e-06 0)
(-2.58308e-11 -3.26825e-06 0)
(-1.5707e-12 -2.8545e-06 0)
)
;
    }
    bottomWall
    {
        type            calculated;
        value           nonuniform List<vector> 
449
(
(-48.4818 -0.963391 0)
(-19.7352 -0.00514879 0)
(-14.3364 -0.00113233 0)
(-12.0348 -0.000542759 0)
(-10.6393 -0.000347333 0)
(-9.66327 -0.000248434 0)
(-8.93897 -0.000183379 0)
(-8.40518 -0.000126702 0)
(-8.06798 -5.67273e-05 0)
(-8.01551 5.61677e-05 0)
(-8.4598 0.000238956 0)
(-9.67466 0.000338489 0)
(-10.8079 0.000268301 0)
(-11.5375 0.000163298 0)
(-11.9451 9.04232e-05 0)
(-12.169 4.82501e-05 0)
(-12.283 2.23959e-05 0)
(-12.3261 4.88622e-06 0)
(-12.3172 -6.68423e-06 0)
(-12.2789 -1.36277e-05 0)
(-12.2208 -1.81938e-05 0)
(-12.1499 -2.08851e-05 0)
(-12.0724 -2.21721e-05 0)
(-11.992 -2.26346e-05 0)
(-11.9108 -2.26045e-05 0)
(-11.8302 -2.2299e-05 0)
(-11.7508 -2.18205e-05 0)
(-11.6733 -2.12114e-05 0)
(-11.5979 -2.05421e-05 0)
(-11.5248 -1.98507e-05 0)
(-11.4541 -1.91574e-05 0)
(-11.3858 -1.84745e-05 0)
(-11.3197 -1.78116e-05 0)
(-11.2559 -1.7172e-05 0)
(-11.1942 -1.65658e-05 0)
(-11.1345 -1.59976e-05 0)
(-11.0767 -1.54516e-05 0)
(-11.0207 -1.49214e-05 0)
(-10.9665 -1.44155e-05 0)
(-10.9141 -1.39351e-05 0)
(-10.8632 -1.34794e-05 0)
(-10.8139 -1.30469e-05 0)
(-10.766 -1.2638e-05 0)
(-10.7195 -1.22495e-05 0)
(-10.6743 -1.18791e-05 0)
(-10.6304 -1.15269e-05 0)
(-10.5876 -1.11946e-05 0)
(-10.546 -1.08761e-05 0)
(-10.5054 -1.05785e-05 0)
(-10.4659 -1.03167e-05 0)
(-10.4271 -1.0083e-05 0)
(-10.3891 -9.86273e-06 0)
(-10.3519 -9.64975e-06 0)
(-10.3153 -9.44057e-06 0)
(-10.2795 -9.23466e-06 0)
(-10.2444 -9.03116e-06 0)
(-10.21 -8.83226e-06 0)
(-10.1762 -8.63926e-06 0)
(-10.1431 -8.45125e-06 0)
(-10.1107 -8.26833e-06 0)
(-10.0789 -8.09168e-06 0)
(-10.0476 -7.92229e-06 0)
(-10.017 -7.7575e-06 0)
(-9.98691 -7.59697e-06 0)
(-9.95738 -7.44088e-06 0)
(-9.92838 -7.29146e-06 0)
(-9.8999 -7.14743e-06 0)
(-9.8719 -7.0081e-06 0)
(-9.84438 -6.87143e-06 0)
(-9.81734 -6.74233e-06 0)
(-9.79072 -6.61978e-06 0)
(-9.76453 -6.49748e-06 0)
(-9.73877 -6.37724e-06 0)
(-9.71342 -6.26142e-06 0)
(-9.68846 -6.14955e-06 0)
(-9.66389 -6.03928e-06 0)
(-9.63971 -5.93223e-06 0)
(-9.61589 -5.82761e-06 0)
(-9.59245 -5.72592e-06 0)
(-9.56934 -5.62732e-06 0)
(-9.54659 -5.53147e-06 0)
(-9.52416 -5.43821e-06 0)
(-9.50207 -5.34761e-06 0)
(-9.48028 -5.25926e-06 0)
(-9.45881 -5.17312e-06 0)
(-9.43763 -5.08972e-06 0)
(-9.41674 -5.00818e-06 0)
(-9.39614 -4.93014e-06 0)
(-9.3758 -4.85364e-06 0)
(-9.35574 -4.77844e-06 0)
(-9.33593 -4.70569e-06 0)
(-9.31639 -4.63392e-06 0)
(-9.29709 -4.56418e-06 0)
(-9.27804 -4.49617e-06 0)
(-9.25922 -4.42896e-06 0)
(-9.24065 -4.36459e-06 0)
(-9.22229 -4.30112e-06 0)
(-9.20416 -4.23881e-06 0)
(-9.18625 -4.17898e-06 0)
(-9.16855 -4.1195e-06 0)
(-9.15106 -4.06392e-06 0)
(-9.13375 -4.01116e-06 0)
(-9.11664 -3.95707e-06 0)
(-9.09971 -3.90381e-06 0)
(-9.08297 -3.85104e-06 0)
(-9.06643 -3.79892e-06 0)
(-9.05006 -3.74901e-06 0)
(-9.03387 -3.69961e-06 0)
(-9.01786 -3.65064e-06 0)
(-9.00202 -3.6038e-06 0)
(-8.98634 -3.55745e-06 0)
(-8.97083 -3.51132e-06 0)
(-8.95548 -3.46736e-06 0)
(-8.94029 -3.42391e-06 0)
(-8.92526 -3.3805e-06 0)
(-8.91037 -3.33902e-06 0)
(-8.89564 -3.29831e-06 0)
(-8.88105 -3.25744e-06 0)
(-8.86661 -3.21804e-06 0)
(-8.8523 -3.1799e-06 0)
(-8.83813 -3.14149e-06 0)
(-8.8241 -3.10399e-06 0)
(-8.8102 -3.0682e-06 0)
(-8.79643 -3.03221e-06 0)
(-8.7828 -2.99642e-06 0)
(-8.76928 -2.96233e-06 0)
(-8.75589 -2.92872e-06 0)
(-8.74262 -2.89501e-06 0)
(-8.72947 -2.86227e-06 0)
(-8.71644 -2.83075e-06 0)
(-8.70352 -2.79911e-06 0)
(-8.69072 -2.76758e-06 0)
(-8.67803 -2.7375e-06 0)
(-8.66544 -2.70797e-06 0)
(-8.65297 -2.6782e-06 0)
(-8.6406 -2.64912e-06 0)
(-8.62833 -2.62133e-06 0)
(-8.61617 -2.59343e-06 0)
(-8.6041 -2.56541e-06 0)
(-8.59214 -2.53861e-06 0)
(-8.58027 -2.51265e-06 0)
(-8.5685 -2.48632e-06 0)
(-8.55682 -2.46018e-06 0)
(-8.54524 -2.43529e-06 0)
(-8.53375 -2.41085e-06 0)
(-8.52234 -2.38607e-06 0)
(-8.51103 -2.36215e-06 0)
(-8.4998 -2.34044e-06 0)
(-8.48864 -2.31884e-06 0)
(-8.47757 -2.29591e-06 0)
(-8.46658 -2.27314e-06 0)
(-8.45567 -2.25122e-06 0)
(-8.44484 -2.22956e-06 0)
(-8.43409 -2.20772e-06 0)
(-8.42342 -2.18621e-06 0)
(-8.41283 -2.16551e-06 0)
(-8.40231 -2.14519e-06 0)
(-8.39187 -2.12466e-06 0)
(-8.3815 -2.10429e-06 0)
(-8.37121 -2.08473e-06 0)
(-8.36099 -2.06571e-06 0)
(-8.35084 -2.04643e-06 0)
(-8.34076 -2.02707e-06 0)
(-8.33075 -2.00853e-06 0)
(-8.32081 -1.99062e-06 0)
(-8.31093 -1.97254e-06 0)
(-8.30112 -1.95432e-06 0)
(-8.29138 -1.9366e-06 0)
(-8.2817 -1.91972e-06 0)
(-8.27208 -1.90271e-06 0)
(-8.26253 -1.88586e-06 0)
(-8.25304 -1.86879e-06 0)
(-8.24362 -1.85031e-06 0)
(-8.23479 -1.83695e-06 0)
(-8.22646 -1.8254e-06 0)
(-8.21812 -1.80928e-06 0)
(-8.20976 -1.79425e-06 0)
(-8.20137 -1.78045e-06 0)
(-8.19296 -1.76656e-06 0)
(-8.18452 -1.7525e-06 0)
(-8.17606 -1.7381e-06 0)
(-8.16758 -1.72418e-06 0)
(-8.15908 -1.71055e-06 0)
(-8.15055 -1.69704e-06 0)
(-8.14199 -1.68313e-06 0)
(-8.13342 -1.66904e-06 0)
(-8.12482 -1.65546e-06 0)
(-8.1162 -1.64213e-06 0)
(-8.10756 -1.62876e-06 0)
(-8.09889 -1.6151e-06 0)
(-8.09021 -1.60143e-06 0)
(-8.0815 -1.58821e-06 0)
(-8.07278 -1.57515e-06 0)
(-8.06403 -1.56192e-06 0)
(-8.05526 -1.54853e-06 0)
(-8.04647 -1.53532e-06 0)
(-8.03766 -1.52241e-06 0)
(-8.02883 -1.50966e-06 0)
(-8.01998 -1.49663e-06 0)
(-8.01111 -1.4835e-06 0)
(-8.00222 -1.47074e-06 0)
(-7.99332 -1.45821e-06 0)
(-7.98439 -1.44561e-06 0)
(-7.97545 -1.43285e-06 0)
(-7.96648 -1.42018e-06 0)
(-7.9575 -1.40781e-06 0)
(-7.94851 -1.39564e-06 0)
(-7.93949 -1.38321e-06 0)
(-7.93046 -1.37068e-06 0)
(-7.92141 -1.35852e-06 0)
(-7.91234 -1.34659e-06 0)
(-7.90326 -1.33451e-06 0)
(-7.89416 -1.32288e-06 0)
(-7.88503 -1.31189e-06 0)
(-7.87589 -1.30065e-06 0)
(-7.86673 -1.28903e-06 0)
(-7.85755 -1.27717e-06 0)
(-7.84836 -1.26533e-06 0)
(-7.83915 -1.25382e-06 0)
(-7.82993 -1.24248e-06 0)
(-7.82069 -1.23094e-06 0)
(-7.81144 -1.21932e-06 0)
(-7.80218 -1.20805e-06 0)
(-7.7929 -1.19703e-06 0)
(-7.78361 -1.18579e-06 0)
(-7.77431 -1.17444e-06 0)
(-7.76499 -1.16343e-06 0)
(-7.75566 -1.15267e-06 0)
(-7.74632 -1.14175e-06 0)
(-7.73697 -1.13072e-06 0)
(-7.7276 -1.11997e-06 0)
(-7.71823 -1.10948e-06 0)
(-7.70884 -1.09886e-06 0)
(-7.69944 -1.08813e-06 0)
(-7.69003 -1.07766e-06 0)
(-7.68061 -1.06744e-06 0)
(-7.67118 -1.05711e-06 0)
(-7.66173 -1.04667e-06 0)
(-7.65228 -1.0365e-06 0)
(-7.64282 -1.02656e-06 0)
(-7.63335 -1.0165e-06 0)
(-7.62387 -1.00636e-06 0)
(-7.61439 -9.96495e-07 0)
(-7.60489 -9.86838e-07 0)
(-7.59538 -9.77051e-07 0)
(-7.58587 -9.67204e-07 0)
(-7.57635 -9.57647e-07 0)
(-7.56682 -9.48283e-07 0)
(-7.55728 -9.38754e-07 0)
(-7.54773 -9.29198e-07 0)
(-7.53818 -9.19955e-07 0)
(-7.52863 -9.10842e-07 0)
(-7.51906 -9.01576e-07 0)
(-7.50949 -8.92352e-07 0)
(-7.49991 -8.83397e-07 0)
(-7.49033 -8.74517e-07 0)
(-7.48074 -8.65527e-07 0)
(-7.47114 -8.56639e-07 0)
(-7.46155 -8.47982e-07 0)
(-7.45194 -8.39333e-07 0)
(-7.44233 -8.30609e-07 0)
(-7.43272 -8.22045e-07 0)
(-7.4231 -8.13684e-07 0)
(-7.41347 -8.05259e-07 0)
(-7.40385 -7.96803e-07 0)
(-7.39422 -7.88557e-07 0)
(-7.38458 -7.80456e-07 0)
(-7.37494 -7.72268e-07 0)
(-7.36531 -7.64116e-07 0)
(-7.35566 -7.56183e-07 0)
(-7.34602 -7.48295e-07 0)
(-7.33637 -7.40357e-07 0)
(-7.32672 -7.32581e-07 0)
(-7.31706 -7.25394e-07 0)
(-7.3074 -7.18302e-07 0)
(-7.29772 -7.10772e-07 0)
(-7.28805 -7.03264e-07 0)
(-7.27837 -6.95849e-07 0)
(-7.2687 -6.88385e-07 0)
(-7.25902 -6.80975e-07 0)
(-7.24934 -6.73751e-07 0)
(-7.23966 -6.66545e-07 0)
(-7.22999 -6.59308e-07 0)
(-7.22031 -6.5221e-07 0)
(-7.21063 -6.45247e-07 0)
(-7.20095 -6.38236e-07 0)
(-7.19128 -6.31246e-07 0)
(-7.1816 -6.24446e-07 0)
(-7.17193 -6.17688e-07 0)
(-7.16225 -6.10895e-07 0)
(-7.15258 -6.0422e-07 0)
(-7.14291 -5.97692e-07 0)
(-7.13324 -5.91119e-07 0)
(-7.12358 -5.84558e-07 0)
(-7.11391 -5.78177e-07 0)
(-7.10425 -5.71841e-07 0)
(-7.09459 -5.65471e-07 0)
(-7.08494 -5.59213e-07 0)
(-7.07529 -5.53091e-07 0)
(-7.06563 -5.46934e-07 0)
(-7.05599 -5.40795e-07 0)
(-7.04635 -5.3482e-07 0)
(-7.03671 -5.28883e-07 0)
(-7.02707 -5.22916e-07 0)
(-7.01744 -5.17064e-07 0)
(-7.00782 -5.11325e-07 0)
(-6.9982 -5.05558e-07 0)
(-6.98858 -4.9983e-07 0)
(-6.97897 -4.94251e-07 0)
(-6.96936 -4.88685e-07 0)
(-6.95976 -4.83107e-07 0)
(-6.95016 -4.7765e-07 0)
(-6.94057 -4.7227e-07 0)
(-6.93099 -4.6687e-07 0)
(-6.92141 -4.61536e-07 0)
(-6.91184 -4.56328e-07 0)
(-6.90227 -4.51111e-07 0)
(-6.89271 -4.45904e-07 0)
(-6.88316 -4.40833e-07 0)
(-6.87361 -4.35793e-07 0)
(-6.86407 -4.30749e-07 0)
(-6.85454 -4.25794e-07 0)
(-6.84502 -4.20919e-07 0)
(-6.8355 -4.16038e-07 0)
(-6.82599 -4.11206e-07 0)
(-6.81649 -4.06484e-07 0)
(-6.807 -4.01762e-07 0)
(-6.79751 -3.97057e-07 0)
(-6.78804 -3.9246e-07 0)
(-6.77857 -3.88086e-07 0)
(-6.7691 -3.83817e-07 0)
(-6.75964 -3.79429e-07 0)
(-6.75018 -3.75009e-07 0)
(-6.74073 -3.70587e-07 0)
(-6.7313 -3.66222e-07 0)
(-6.72187 -3.61942e-07 0)
(-6.71245 -3.57671e-07 0)
(-6.70305 -3.53426e-07 0)
(-6.69365 -3.49296e-07 0)
(-6.68426 -3.4521e-07 0)
(-6.67488 -3.41126e-07 0)
(-6.66551 -3.37095e-07 0)
(-6.65616 -3.33099e-07 0)
(-6.64681 -3.29108e-07 0)
(-6.63747 -3.25189e-07 0)
(-6.62815 -3.21321e-07 0)
(-6.61883 -3.17466e-07 0)
(-6.60953 -3.13651e-07 0)
(-6.60024 -3.09917e-07 0)
(-6.59096 -3.06165e-07 0)
(-6.5817 -3.02483e-07 0)
(-6.57244 -2.9878e-07 0)
(-6.5632 -2.95232e-07 0)
(-6.55397 -2.91804e-07 0)
(-6.54371 -2.87719e-07 0)
(-6.53254 -2.8334e-07 0)
(-6.52154 -2.79342e-07 0)
(-6.51069 -2.75432e-07 0)
(-6.5 -2.71521e-07 0)
(-6.48945 -2.67732e-07 0)
(-6.47905 -2.64028e-07 0)
(-6.46879 -2.60391e-07 0)
(-6.45868 -2.5686e-07 0)
(-6.4487 -2.53402e-07 0)
(-6.43886 -2.50012e-07 0)
(-6.42914 -2.46725e-07 0)
(-6.41955 -2.43507e-07 0)
(-6.41009 -2.40339e-07 0)
(-6.40075 -2.37278e-07 0)
(-6.39152 -2.34271e-07 0)
(-6.38242 -2.31315e-07 0)
(-6.37343 -2.28447e-07 0)
(-6.36455 -2.25641e-07 0)
(-6.35578 -2.22868e-07 0)
(-6.34712 -2.20176e-07 0)
(-6.33855 -2.17546e-07 0)
(-6.3301 -2.14954e-07 0)
(-6.32173 -2.12417e-07 0)
(-6.31348 -2.09957e-07 0)
(-6.30531 -2.07523e-07 0)
(-6.29724 -2.05129e-07 0)
(-6.28926 -2.0281e-07 0)
(-6.28138 -2.00536e-07 0)
(-6.27357 -1.98399e-07 0)
(-6.26586 -1.96336e-07 0)
(-6.25821 -1.9421e-07 0)
(-6.25066 -1.92097e-07 0)
(-6.24319 -1.90005e-07 0)
(-6.2358 -1.8798e-07 0)
(-6.22848 -1.85993e-07 0)
(-6.22125 -1.84027e-07 0)
(-6.21408 -1.82097e-07 0)
(-6.207 -1.80229e-07 0)
(-6.19998 -1.78396e-07 0)
(-6.19305 -1.76588e-07 0)
(-6.18617 -1.74801e-07 0)
(-6.17937 -1.73062e-07 0)
(-6.17263 -1.71336e-07 0)
(-6.16597 -1.69632e-07 0)
(-6.15936 -1.67964e-07 0)
(-6.15283 -1.66347e-07 0)
(-6.14635 -1.64738e-07 0)
(-6.13994 -1.63151e-07 0)
(-6.13358 -1.61591e-07 0)
(-6.1273 -1.60085e-07 0)
(-6.12106 -1.58583e-07 0)
(-6.1149 -1.57105e-07 0)
(-6.10877 -1.55639e-07 0)
(-6.10272 -1.54232e-07 0)
(-6.0967 -1.52829e-07 0)
(-6.09076 -1.51456e-07 0)
(-6.08486 -1.50072e-07 0)
(-6.07902 -1.48758e-07 0)
(-6.07322 -1.47445e-07 0)
(-6.06749 -1.46173e-07 0)
(-6.06178 -1.44862e-07 0)
(-6.05616 -1.43638e-07 0)
(-6.05055 -1.4239e-07 0)
(-6.04502 -1.41224e-07 0)
(-6.0395 -1.39989e-07 0)
(-6.03407 -1.38851e-07 0)
(-6.02864 -1.37653e-07 0)
(-6.0233 -1.36589e-07 0)
(-6.01795 -1.35417e-07 0)
(-6.01271 -1.3438e-07 0)
(-6.00744 -1.33219e-07 0)
(-6.00228 -1.32253e-07 0)
(-5.99709 -1.31131e-07 0)
(-5.99203 -1.30219e-07 0)
(-5.98691 -1.29085e-07 0)
(-5.98193 -1.28229e-07 0)
(-5.97688 -1.27125e-07 0)
(-5.97198 -1.26358e-07 0)
(-5.96699 -1.2526e-07 0)
(-5.96219 -1.24546e-07 0)
(-5.95725 -1.23466e-07 0)
(-5.95253 -1.2284e-07 0)
(-5.94764 -1.21855e-07 0)
(-5.94299 -1.21202e-07 0)
(-5.93816 -1.20577e-07 0)
(-5.93356 -1.19322e-07 0)
(-5.92883 -1.20408e-07 0)
(-5.92414 -1.16072e-07 0)
(-5.91976 -1.24253e-07 0)
(-5.91439 -1.06501e-07 0)
(-5.91147 -1.37654e-07 0)
(-5.90354 -8.38632e-08 0)
(-5.90507 -1.16154e-07 0)
(-5.89417 -1.44528e-07 0)
)
;
    }
    symmetry
    {
        type            symmetryPlane;
    }
    frontAndBack
    {
        type            empty;
    }
}


// ************************************************************************* //
