/*--------------------------------*- C++ -*----------------------------------*\
| =========                 |                                                 |
| \\      /  F ield         | OpenFOAM: The Open Source CFD Toolbox           |
|  \\    /   O peration     | Version:  v2012                                 |
|   \\  /    A nd           | Website:  www.openfoam.com                      |
|    \\/     M anipulation  |                                                 |
\*---------------------------------------------------------------------------*/
FoamFile
{
    version     2.0;
    format      ascii;
    class       volScalarField;
    location    "57";
    object      yPlus;
}
// * * * * * * * * * * * * * * * * * * * * * * * * * * * * * * * * * * * * * //

dimensions      [0 0 0 0 0 0 0];


internalField   uniform 0;

boundaryField
{
    inlet
    {
        type            calculated;
        value           uniform 0;
    }
    outlet
    {
        type            calculated;
        value           uniform 0;
    }
    topWall
    {
        type            calculated;
        value           nonuniform List<scalar> 
545
(
0.111331
0.191967
0.246277
0.289498
0.326089
0.358108
0.38671
0.412621
0.436337
0.458213
0.478517
0.497454
0.515187
0.531851
0.547553
0.562387
0.576431
0.589751
0.602406
0.614447
0.625919
0.636862
0.647312
0.6573
0.666855
0.676005
0.684772
0.69318
0.701247
0.708992
0.716433
0.723584
0.730462
0.737079
0.743448
0.749581
0.755489
0.761183
0.766672
0.771965
0.77707
0.781997
0.786753
0.791345
0.795779
0.800063
0.804202
0.808202
0.812069
0.815809
0.819425
0.822922
0.826307
0.829581
0.832751
0.835819
0.838789
0.841665
0.844451
0.847149
0.849763
0.852296
0.85475
0.857129
0.859435
0.86167
0.863837
0.865938
0.867975
0.869952
0.871868
0.873728
0.875508
0.877231
0.878941
0.880636
0.882319
0.883988
0.885644
0.887287
0.888918
0.890535
0.89214
0.893733
0.895313
0.896881
0.898437
0.899981
0.901514
0.903034
0.904543
0.90604
0.907526
0.909001
0.910464
0.911916
0.913225
0.914396
0.915566
0.916737
0.917907
0.919078
0.920248
0.921418
0.922588
0.923757
0.924927
0.926096
0.927266
0.928435
0.929604
0.930773
0.931941
0.93311
0.934278
0.935446
0.936614
0.937781
0.938948
0.940116
0.941282
0.942449
0.943615
0.944781
0.945947
0.947113
0.948278
0.949443
0.950608
0.951772
0.952936
0.9541
0.955263
0.956426
0.957589
0.958751
0.959913
0.961075
0.962236
0.963397
0.964557
0.965717
0.966877
0.968036
0.969195
0.970353
0.971511
0.972669
0.973826
0.974982
0.976138
0.977294
0.978449
0.979604
0.980758
0.981911
0.983064
0.984217
0.985369
0.98652
0.987671
0.988821
0.989971
0.99112
0.992268
0.993416
0.994564
0.99571
0.996856
0.998002
0.999146
1.00029
1.00143
1.00258
1.00372
1.00486
1.006
1.00714
1.00828
1.00942
1.01056
1.01169
1.01283
1.01396
1.0151
1.01623
1.01736
1.0185
1.01963
1.02076
1.02189
1.02302
1.02414
1.02527
1.0264
1.02752
1.02865
1.02977
1.03089
1.03201
1.03313
1.03425
1.03537
1.03649
1.03761
1.03872
1.03983
1.04095
1.04206
1.04317
1.04428
1.04539
1.0465
1.04761
1.04871
1.04982
1.05092
1.05202
1.05312
1.05422
1.05532
1.05642
1.05752
1.05861
1.0597
1.0608
1.06189
1.06298
1.06407
1.06515
1.06624
1.06733
1.06841
1.06949
1.07057
1.07165
1.07273
1.07381
1.07488
1.07596
1.07703
1.0781
1.07917
1.08024
1.0813
1.08237
1.08343
1.08449
1.08555
1.08661
1.08767
1.08873
1.08978
1.09083
1.09188
1.09293
1.09398
1.09503
1.09607
1.09711
1.09815
1.09919
1.10023
1.10127
1.1023
1.10333
1.10436
1.10539
1.10642
1.10739
1.1083
1.10922
1.11014
1.11108
1.11202
1.11296
1.11391
1.11487
1.11584
1.11681
1.11779
1.11877
1.11976
1.12076
1.12177
1.12278
1.12379
1.12482
1.12585
1.12688
1.12792
1.12897
1.13003
1.13109
1.13216
1.13323
1.13431
1.13539
1.13649
1.13758
1.13869
1.1398
1.14091
1.14203
1.14316
1.14429
1.14543
1.14658
1.14773
1.14888
1.15004
1.15121
1.15238
1.15356
1.15474
1.15593
1.15712
1.15831
1.15952
1.16072
1.16193
1.16315
1.16437
1.16559
1.16682
1.16805
1.16929
1.17053
1.17177
1.17302
1.17427
1.17552
1.17678
1.17804
1.1793
1.18056
1.18183
1.1831
1.18438
1.18565
1.18693
1.18821
1.18949
1.19077
1.19205
1.19333
1.19462
1.1959
1.19719
1.19848
1.19976
1.20105
1.20233
1.20362
1.2049
1.20618
1.20747
1.20875
1.21002
1.2113
1.21257
1.21384
1.21511
1.21638
1.21764
1.2189
1.22015
1.22141
1.22265
1.22389
1.22513
1.22636
1.22759
1.22881
1.23002
1.23123
1.23243
1.23362
1.23481
1.23599
1.23716
1.23832
1.23947
1.24062
1.24175
1.24288
1.24399
1.2451
1.24619
1.24728
1.24835
1.24941
1.25046
1.25149
1.25252
1.25353
1.25453
1.25551
1.25648
1.25744
1.25838
1.25931
1.26022
1.26111
1.26199
1.26286
1.2637
1.26453
1.26535
1.26614
1.26692
1.26768
1.26842
1.26914
1.26985
1.27053
1.2712
1.27184
1.27247
1.27307
1.27366
1.27422
1.27477
1.27529
1.27579
1.27627
1.27673
1.27716
1.27758
1.27797
1.27834
1.27868
1.27901
1.27931
1.27959
1.27985
1.28008
1.28029
1.28047
1.28064
1.28078
1.2809
1.28099
1.28106
1.28111
1.28113
1.28113
1.28111
1.28107
1.281
1.2809
1.28076
1.28058
1.28038
1.28015
1.2799
1.27962
1.27932
1.27899
1.27864
1.27828
1.27789
1.27749
1.27707
1.27664
1.27619
1.27572
1.27525
1.27476
1.27426
1.27376
1.27324
1.27272
1.27218
1.27165
1.2711
1.27055
1.27
1.26944
1.26888
1.26831
1.26774
1.26718
1.26661
1.26604
1.26547
1.2649
1.26433
1.26376
1.2632
1.26264
1.26208
1.26152
1.26097
1.26043
1.25988
1.25935
1.25881
1.25829
1.25777
1.25726
1.25675
1.25625
1.25576
1.25527
1.2548
1.25433
1.25387
1.25342
1.25298
1.25255
1.25213
1.25172
1.25132
1.25093
1.25055
1.25018
1.24982
1.24948
1.24914
1.24882
1.24851
1.24821
1.24792
1.24765
1.24739
1.24714
1.2469
1.24668
1.24647
1.24627
1.24609
1.24592
1.24576
1.24562
1.24549
1.24537
1.24527
1.24518
1.24511
1.24505
1.245
1.24497
1.24496
1.24495
)
;
    }
    bottomWall
    {
        type            calculated;
        value           nonuniform List<scalar> 
449
(
0.139381
0.088925
0.0757919
0.0694419
0.0652917
0.0622249
0.0598475
0.0580331
0.0568571
0.0566719
0.0582213
0.0622615
0.0658072
0.0679919
0.0691827
0.069828
0.0701542
0.0702774
0.070252
0.0701426
0.0699765
0.0697731
0.0695502
0.0693181
0.0690831
0.068849
0.0686176
0.0683909
0.0681697
0.0679547
0.0677459
0.0675435
0.0673472
0.067157
0.0669727
0.0667939
0.0666203
0.0664518
0.0662883
0.0661295
0.0659753
0.0658253
0.0656794
0.0655374
0.0653991
0.0652644
0.065133
0.0650048
0.0648797
0.0647574
0.0646374
0.0645196
0.0644038
0.0642901
0.0641783
0.0640686
0.0639609
0.0638551
0.0637512
0.0636491
0.0635489
0.0634504
0.0633535
0.0632583
0.0631647
0.0630727
0.0629821
0.062893
0.0628053
0.062719
0.0626339
0.0625501
0.0624675
0.0623861
0.0623059
0.0622269
0.062149
0.0620722
0.0619964
0.0619217
0.0618481
0.0617754
0.0617037
0.0616329
0.0615631
0.0614941
0.061426
0.0613588
0.0612923
0.0612267
0.0611619
0.0610978
0.0610345
0.0609719
0.0609101
0.060849
0.0607885
0.0607287
0.0606696
0.0606111
0.0605533
0.060496
0.0604393
0.0603832
0.0603276
0.0602726
0.0602182
0.0601643
0.060111
0.0600581
0.0600058
0.059954
0.0599027
0.0598519
0.0598015
0.0597517
0.0597022
0.0596533
0.0596047
0.0595566
0.0595089
0.0594617
0.0594149
0.0593684
0.0593224
0.0592767
0.0592314
0.0591865
0.059142
0.0590978
0.059054
0.0590106
0.0589675
0.0589247
0.0588823
0.0588402
0.0587984
0.0587569
0.0587158
0.058675
0.0586344
0.0585942
0.0585542
0.0585146
0.0584752
0.0584361
0.0583973
0.0583588
0.0583205
0.0582824
0.0582446
0.0582071
0.0581698
0.0581328
0.058096
0.0580595
0.0580232
0.0579871
0.0579513
0.0579157
0.0578803
0.0578452
0.0578102
0.0577755
0.0577411
0.0577068
0.0576727
0.0576389
0.0576052
0.0575718
0.0575385
0.0575054
0.0574726
0.0574418
0.0574128
0.0573836
0.0573545
0.0573252
0.0572957
0.0572662
0.0572366
0.0572069
0.0571772
0.0571473
0.0571173
0.0570872
0.057057
0.0570267
0.0569964
0.0569659
0.0569353
0.0569047
0.056874
0.0568431
0.0568122
0.0567812
0.0567501
0.0567189
0.0566877
0.0566563
0.0566249
0.0565934
0.0565618
0.0565301
0.0564983
0.0564664
0.0564345
0.0564025
0.0563704
0.0563382
0.056306
0.0562736
0.0562412
0.0562087
0.0561761
0.0561434
0.0561107
0.0560779
0.056045
0.056012
0.0559789
0.0559458
0.0559126
0.0558794
0.0558461
0.0558127
0.0557792
0.0557457
0.0557121
0.0556785
0.0556448
0.055611
0.0555772
0.0555433
0.0555093
0.0554753
0.0554412
0.0554071
0.0553729
0.0553387
0.0553044
0.05527
0.0552356
0.0552012
0.0551667
0.0551321
0.0550975
0.0550628
0.0550281
0.0549934
0.0549586
0.0549237
0.0548888
0.0548539
0.0548189
0.0547838
0.0547488
0.0547136
0.0546785
0.0546433
0.054608
0.0545727
0.0545374
0.0545021
0.0544667
0.0544312
0.0543958
0.0543602
0.0543247
0.0542891
0.0542535
0.0542179
0.0541822
0.0541465
0.0541107
0.0540749
0.0540391
0.0540032
0.0539673
0.0539313
0.0538954
0.0538594
0.0538234
0.0537873
0.0537513
0.0537152
0.0536791
0.053643
0.0536068
0.0535706
0.0535345
0.0534983
0.053462
0.0534258
0.0533896
0.0533533
0.053317
0.0532807
0.0532444
0.0532081
0.0531718
0.0531354
0.0530991
0.0530627
0.0530263
0.0529899
0.0529535
0.0529172
0.0528808
0.0528443
0.0528079
0.0527715
0.0527351
0.0526987
0.0526622
0.0526258
0.0525894
0.0525529
0.0525165
0.0524801
0.0524437
0.0524072
0.0523708
0.0523344
0.052298
0.0522616
0.0522252
0.0521888
0.0521524
0.052116
0.0520796
0.0520432
0.0520068
0.0519703
0.051934
0.0518976
0.0518612
0.0518249
0.0517885
0.0517522
0.0517159
0.0516796
0.0516433
0.051607
0.0515707
0.0515345
0.0514983
0.0514621
0.0514259
0.0513897
0.0513536
0.0513175
0.0512814
0.0512453
0.0512052
0.0511615
0.0511184
0.0510758
0.0510339
0.0509924
0.0509516
0.0509112
0.0508714
0.0508321
0.0507933
0.0507549
0.0507171
0.0506797
0.0506428
0.0506063
0.0505702
0.0505346
0.0504994
0.0504645
0.0504301
0.0503961
0.0503625
0.0503292
0.0502963
0.0502638
0.0502316
0.0501998
0.0501683
0.0501371
0.0501063
0.0500757
0.0500455
0.0500156
0.049986
0.0499566
0.0499276
0.0498989
0.0498704
0.0498422
0.0498143
0.0497867
0.0497593
0.0497321
0.0497053
0.0496787
0.0496523
0.0496261
0.0496003
0.0495746
0.0495492
0.049524
0.049499
0.0494742
0.0494497
0.0494253
0.0494012
0.0493773
0.0493536
0.04933
0.0493068
0.0492836
0.0492607
0.0492379
0.0492154
0.0491929
0.0491708
0.0491487
0.0491269
0.0491051
0.0490837
0.0490622
0.0490411
0.0490199
0.0489992
0.0489783
0.0489579
0.0489372
0.0489172
0.0488967
0.048877
0.0488568
0.0488374
0.0488174
0.0487983
0.0487784
0.0487596
0.0487401
0.0487208
0.0487028
0.0486807
0.0486687
0.0486361
0.0486424
0.0485974
)
;
    }
    symmetry
    {
        type            symmetryPlane;
    }
    frontAndBack
    {
        type            empty;
    }
}


// ************************************************************************* //
