/*--------------------------------*- C++ -*----------------------------------*\
| =========                 |                                                 |
| \\      /  F ield         | OpenFOAM: The Open Source CFD Toolbox           |
|  \\    /   O peration     | Version:  v2012                                 |
|   \\  /    A nd           | Website:  www.openfoam.com                      |
|    \\/     M anipulation  |                                                 |
\*---------------------------------------------------------------------------*/
FoamFile
{
    version     2.0;
    format      ascii;
    class       volScalarField;
    location    "3.5";
    object      k;
}
// * * * * * * * * * * * * * * * * * * * * * * * * * * * * * * * * * * * * * //

dimensions      [0 2 -2 0 0 0 0];


internalField   nonuniform List<scalar> 
209825
(
0.00105893
0.00105503
0.00105447
0.00105435
0.0010543
0.00105429
0.00105428
0.00105428
0.00105428
0.00105428
0.00105428
0.00105429
0.00105429
0.00105429
0.00105429
0.00105429
0.00105429
0.00105429
0.00105429
0.0010543
0.0010543
0.0010543
0.0010543
0.0010543
0.0010543
0.00105431
0.00105431
0.00105431
0.00105431
0.00105431
0.00105431
0.00105432
0.00105432
0.00105432
0.00105432
0.00105433
0.00105433
0.00105433
0.00105433
0.00105434
0.00105434
0.00105435
0.00105435
0.00105435
0.00105435
0.00105436
0.00105436
0.00105437
0.00105437
0.00105438
0.00105438
0.00105439
0.00105439
0.00105439
0.00105438
0.00105439
0.00105439
0.0010544
0.0010544
0.00105441
0.00105441
0.00105442
0.00105442
0.00105442
0.00105442
0.00105444
0.00105444
0.00105445
0.00105445
0.00105445
0.00105449
0.00105449
0.00105451
0.00105451
0.00105455
0.00105455
0.00105455
0.0010546
0.0010546
0.00105464
0.00105465
0.00105473
0.00105476
0.00105482
0.00105494
0.00105498
0.00105515
0.00105532
0.00105561
0.00105592
0.00105677
0.0010571
0.00106272
0.00106252
0.00111776
0.00163018
0.00105892
0.00105501
0.00105445
0.00105433
0.00105428
0.00105427
0.00105426
0.00105426
0.00105426
0.00105426
0.00105426
0.00105427
0.00105427
0.00105427
0.00105427
0.00105427
0.00105427
0.00105427
0.00105427
0.00105428
0.00105428
0.00105428
0.00105428
0.00105428
0.00105428
0.00105429
0.00105429
0.00105429
0.00105429
0.00105429
0.00105429
0.0010543
0.0010543
0.00105431
0.00105431
0.00105431
0.00105431
0.00105432
0.00105432
0.00105432
0.00105432
0.00105433
0.00105433
0.00105433
0.00105433
0.00105434
0.00105434
0.00105435
0.00105435
0.00105436
0.00105436
0.00105437
0.00105437
0.00105437
0.00105436
0.00105437
0.00105437
0.00105438
0.00105438
0.00105439
0.00105439
0.0010544
0.0010544
0.0010544
0.0010544
0.00105442
0.00105442
0.00105443
0.00105443
0.00105443
0.00105447
0.00105447
0.0010545
0.0010545
0.00105453
0.00105453
0.00105453
0.00105458
0.00105458
0.00105462
0.00105463
0.00105471
0.00105474
0.0010548
0.00105492
0.00105497
0.00105513
0.0010553
0.0010556
0.00105591
0.00105675
0.00105709
0.00106271
0.00106251
0.00111775
0.00163099
0.00105887
0.00105493
0.00105436
0.00105424
0.00105419
0.00105418
0.00105417
0.00105417
0.00105417
0.00105417
0.00105417
0.00105417
0.00105417
0.00105418
0.00105418
0.00105418
0.00105418
0.00105418
0.00105418
0.00105418
0.00105418
0.00105419
0.00105419
0.00105419
0.00105419
0.00105419
0.00105419
0.0010542
0.0010542
0.0010542
0.0010542
0.00105421
0.00105421
0.00105421
0.00105421
0.00105422
0.00105422
0.00105422
0.00105422
0.00105423
0.00105423
0.00105424
0.00105424
0.00105424
0.00105424
0.00105425
0.00105425
0.00105426
0.00105426
0.00105427
0.00105427
0.00105428
0.00105428
0.00105428
0.00105427
0.00105428
0.00105428
0.00105428
0.00105428
0.0010543
0.0010543
0.00105431
0.00105431
0.00105431
0.00105431
0.00105433
0.00105433
0.00105434
0.00105434
0.00105434
0.00105438
0.00105438
0.0010544
0.0010544
0.00105444
0.00105444
0.00105444
0.00105449
0.00105449
0.00105453
0.00105454
0.00105462
0.00105465
0.00105471
0.00105483
0.00105488
0.00105505
0.00105522
0.00105551
0.00105582
0.00105667
0.00105701
0.00106264
0.00106246
0.00111767
0.00163369
0.00105878
0.00105479
0.00105421
0.00105408
0.00105403
0.00105402
0.00105401
0.00105401
0.00105401
0.00105401
0.00105401
0.00105401
0.00105401
0.00105402
0.00105402
0.00105402
0.00105402
0.00105402
0.00105402
0.00105402
0.00105402
0.00105403
0.00105403
0.00105403
0.00105403
0.00105403
0.00105403
0.00105404
0.00105404
0.00105404
0.00105404
0.00105405
0.00105405
0.00105405
0.00105405
0.00105406
0.00105406
0.00105406
0.00105406
0.00105407
0.00105407
0.00105408
0.00105408
0.00105408
0.00105408
0.00105409
0.00105409
0.0010541
0.0010541
0.00105411
0.00105411
0.00105412
0.00105412
0.00105412
0.00105411
0.00105412
0.00105412
0.00105413
0.00105413
0.00105414
0.00105414
0.00105415
0.00105415
0.00105415
0.00105415
0.00105417
0.00105417
0.00105418
0.00105418
0.00105418
0.00105422
0.00105422
0.00105425
0.00105425
0.00105428
0.00105428
0.00105428
0.00105433
0.00105433
0.00105438
0.00105438
0.00105447
0.0010545
0.00105456
0.00105468
0.00105473
0.0010549
0.00105507
0.00105537
0.00105568
0.00105654
0.00105688
0.00106252
0.00106236
0.00111751
0.00163783
0.00105866
0.00105459
0.00105399
0.00105386
0.00105381
0.0010538
0.00105378
0.00105378
0.00105378
0.00105378
0.00105378
0.00105379
0.00105379
0.00105379
0.00105379
0.00105379
0.00105379
0.00105379
0.00105379
0.0010538
0.0010538
0.0010538
0.0010538
0.0010538
0.0010538
0.00105381
0.00105381
0.00105381
0.00105381
0.00105382
0.00105382
0.00105382
0.00105382
0.00105383
0.00105383
0.00105383
0.00105383
0.00105384
0.00105384
0.00105384
0.00105384
0.00105385
0.00105385
0.00105386
0.00105386
0.00105387
0.00105387
0.00105387
0.00105387
0.00105389
0.00105389
0.0010539
0.0010539
0.0010539
0.00105389
0.00105389
0.00105389
0.0010539
0.0010539
0.00105392
0.00105392
0.00105393
0.00105393
0.00105393
0.00105393
0.00105394
0.00105394
0.00105396
0.00105396
0.00105396
0.001054
0.001054
0.00105402
0.00105402
0.00105406
0.00105406
0.00105406
0.00105411
0.00105411
0.00105416
0.00105416
0.00105425
0.00105428
0.00105434
0.00105446
0.00105451
0.00105468
0.00105486
0.00105516
0.00105548
0.00105634
0.00105669
0.00106235
0.00106223
0.00111728
0.00164344
0.00105849
0.00105434
0.00105371
0.00105357
0.00105352
0.0010535
0.00105349
0.00105349
0.00105349
0.00105349
0.00105349
0.00105349
0.00105349
0.00105349
0.00105349
0.0010535
0.0010535
0.0010535
0.0010535
0.0010535
0.0010535
0.00105351
0.00105351
0.00105351
0.00105351
0.00105351
0.00105351
0.00105352
0.00105352
0.00105352
0.00105352
0.00105353
0.00105353
0.00105353
0.00105353
0.00105354
0.00105354
0.00105354
0.00105354
0.00105355
0.00105355
0.00105356
0.00105356
0.00105357
0.00105357
0.00105357
0.00105357
0.00105358
0.00105358
0.00105359
0.00105359
0.00105361
0.00105361
0.00105361
0.0010536
0.0010536
0.0010536
0.00105361
0.00105361
0.00105363
0.00105363
0.00105364
0.00105364
0.00105364
0.00105364
0.00105365
0.00105365
0.00105367
0.00105367
0.00105367
0.00105371
0.00105371
0.00105374
0.00105374
0.00105377
0.00105377
0.00105377
0.00105383
0.00105383
0.00105387
0.00105388
0.00105397
0.001054
0.00105406
0.00105418
0.00105423
0.00105441
0.00105459
0.00105489
0.00105522
0.00105609
0.00105644
0.00106211
0.00106206
0.00111697
0.00165057
0.00105829
0.00105402
0.00105337
0.00105322
0.00105316
0.00105314
0.00105313
0.00105313
0.00105312
0.00105313
0.00105313
0.00105313
0.00105313
0.00105313
0.00105313
0.00105314
0.00105313
0.00105314
0.00105314
0.00105314
0.00105314
0.00105314
0.00105314
0.00105315
0.00105315
0.00105315
0.00105315
0.00105316
0.00105316
0.00105316
0.00105316
0.00105317
0.00105317
0.00105317
0.00105317
0.00105318
0.00105318
0.00105318
0.00105318
0.00105319
0.00105319
0.0010532
0.0010532
0.0010532
0.0010532
0.00105321
0.00105321
0.00105322
0.00105322
0.00105323
0.00105323
0.00105325
0.00105325
0.00105325
0.00105324
0.00105324
0.00105324
0.00105325
0.00105325
0.00105327
0.00105327
0.00105328
0.00105328
0.00105328
0.00105328
0.0010533
0.0010533
0.00105331
0.00105331
0.00105331
0.00105336
0.00105336
0.00105338
0.00105338
0.00105342
0.00105342
0.00105342
0.00105347
0.00105348
0.00105352
0.00105353
0.00105362
0.00105365
0.00105372
0.00105384
0.00105389
0.00105407
0.00105425
0.00105456
0.00105489
0.00105578
0.00105614
0.00106182
0.00106184
0.00111657
0.00165918
0.00105806
0.00105365
0.00105295
0.00105279
0.00105273
0.00105271
0.0010527
0.0010527
0.00105269
0.00105269
0.00105269
0.0010527
0.0010527
0.0010527
0.0010527
0.0010527
0.0010527
0.00105271
0.00105271
0.00105271
0.00105271
0.00105271
0.00105271
0.00105272
0.00105272
0.00105272
0.00105272
0.00105272
0.00105272
0.00105273
0.00105273
0.00105273
0.00105273
0.00105274
0.00105274
0.00105275
0.00105275
0.00105275
0.00105275
0.00105276
0.00105276
0.00105277
0.00105277
0.00105277
0.00105277
0.00105278
0.00105278
0.00105279
0.00105279
0.0010528
0.0010528
0.00105282
0.00105282
0.00105282
0.00105281
0.00105281
0.00105281
0.00105282
0.00105282
0.00105284
0.00105284
0.00105285
0.00105285
0.00105285
0.00105285
0.00105287
0.00105287
0.00105289
0.00105289
0.00105288
0.00105293
0.00105294
0.00105296
0.00105296
0.001053
0.001053
0.001053
0.00105305
0.00105306
0.0010531
0.00105311
0.0010532
0.00105323
0.0010533
0.00105343
0.00105348
0.00105366
0.00105385
0.00105417
0.0010545
0.0010554
0.00105577
0.00106146
0.0010616
0.00111607
0.00166923
0.00105778
0.00105321
0.00105247
0.0010523
0.00105223
0.00105221
0.00105219
0.00105219
0.00105219
0.00105219
0.00105219
0.00105219
0.00105219
0.0010522
0.0010522
0.0010522
0.0010522
0.0010522
0.0010522
0.00105221
0.00105221
0.00105221
0.00105221
0.00105221
0.00105221
0.00105222
0.00105222
0.00105222
0.00105222
0.00105223
0.00105223
0.00105223
0.00105223
0.00105224
0.00105224
0.00105224
0.00105224
0.00105225
0.00105225
0.00105226
0.00105226
0.00105227
0.00105227
0.00105227
0.00105227
0.00105228
0.00105228
0.00105229
0.00105229
0.0010523
0.0010523
0.00105232
0.00105232
0.00105232
0.00105231
0.00105231
0.00105231
0.00105232
0.00105232
0.00105234
0.00105234
0.00105236
0.00105236
0.00105236
0.00105235
0.00105237
0.00105237
0.00105239
0.00105239
0.00105239
0.00105244
0.00105244
0.00105246
0.00105246
0.0010525
0.0010525
0.0010525
0.00105256
0.00105257
0.00105261
0.00105262
0.00105271
0.00105275
0.00105282
0.00105295
0.001053
0.00105319
0.00105338
0.0010537
0.00105405
0.00105496
0.00105534
0.00106104
0.00106131
0.00111548
0.00168056
0.00105747
0.00105271
0.00105193
0.00105174
0.00105166
0.00105164
0.00105162
0.00105162
0.00105161
0.00105161
0.00105161
0.00105162
0.00105162
0.00105162
0.00105162
0.00105162
0.00105162
0.00105163
0.00105163
0.00105163
0.00105163
0.00105163
0.00105163
0.00105164
0.00105164
0.00105164
0.00105164
0.00105165
0.00105165
0.00105165
0.00105165
0.00105166
0.00105166
0.00105167
0.00105167
0.00105167
0.00105167
0.00105168
0.00105168
0.00105169
0.00105169
0.00105169
0.00105169
0.0010517
0.0010517
0.00105171
0.00105171
0.00105172
0.00105172
0.00105173
0.00105173
0.00105175
0.00105175
0.00105175
0.00105174
0.00105174
0.00105174
0.00105175
0.00105175
0.00105177
0.00105177
0.00105179
0.00105179
0.00105179
0.00105179
0.00105181
0.00105181
0.00105182
0.00105182
0.00105182
0.00105187
0.00105188
0.0010519
0.0010519
0.00105194
0.00105194
0.00105194
0.001052
0.00105201
0.00105205
0.00105207
0.00105216
0.00105219
0.00105227
0.0010524
0.00105246
0.00105265
0.00105285
0.00105318
0.00105353
0.00105446
0.00105485
0.00106055
0.00106099
0.00111481
0.00169296
0.00105712
0.00105215
0.00105131
0.0010511
0.00105101
0.00105099
0.00105097
0.00105097
0.00105096
0.00105096
0.00105096
0.00105096
0.00105096
0.00105097
0.00105097
0.00105097
0.00105097
0.00105098
0.00105098
0.00105098
0.00105098
0.00105098
0.00105098
0.00105099
0.00105099
0.00105099
0.00105099
0.001051
0.001051
0.001051
0.001051
0.00105101
0.00105101
0.00105102
0.00105102
0.00105102
0.00105102
0.00105103
0.00105103
0.00105104
0.00105104
0.00105105
0.00105105
0.00105105
0.00105105
0.00105106
0.00105106
0.00105107
0.00105107
0.00105109
0.00105109
0.0010511
0.0010511
0.0010511
0.00105109
0.0010511
0.0010511
0.00105111
0.00105111
0.00105113
0.00105113
0.00105114
0.00105114
0.00105114
0.00105114
0.00105116
0.00105116
0.00105118
0.00105118
0.00105118
0.00105124
0.00105124
0.00105126
0.00105126
0.0010513
0.0010513
0.0010513
0.00105137
0.00105137
0.00105142
0.00105144
0.00105153
0.00105157
0.00105165
0.00105178
0.00105184
0.00105204
0.00105224
0.00105258
0.00105294
0.00105389
0.0010543
0.00105998
0.00106063
0.00111411
0.00170603
0.00105674
0.00105153
0.00105062
0.00105039
0.00105029
0.00105027
0.00105024
0.00105024
0.00105023
0.00105024
0.00105023
0.00105024
0.00105024
0.00105024
0.00105024
0.00105025
0.00105025
0.00105025
0.00105025
0.00105025
0.00105025
0.00105026
0.00105026
0.00105026
0.00105026
0.00105027
0.00105027
0.00105027
0.00105027
0.00105028
0.00105028
0.00105028
0.00105028
0.00105029
0.00105029
0.0010503
0.0010503
0.00105031
0.00105031
0.00105032
0.00105032
0.00105032
0.00105032
0.00105033
0.00105033
0.00105034
0.00105034
0.00105035
0.00105035
0.00105037
0.00105037
0.00105038
0.00105038
0.00105038
0.00105037
0.00105038
0.00105038
0.00105039
0.00105039
0.00105041
0.00105041
0.00105043
0.00105043
0.00105043
0.00105043
0.00105045
0.00105045
0.00105046
0.00105046
0.00105046
0.00105052
0.00105053
0.00105055
0.00105055
0.00105059
0.00105059
0.00105059
0.00105066
0.00105067
0.00105071
0.00105073
0.00105083
0.00105087
0.00105095
0.00105109
0.00105115
0.00105135
0.00105156
0.00105191
0.00105228
0.00105325
0.00105368
0.00105934
0.00106023
0.00111342
0.00171925
0.00105632
0.00105085
0.00104986
0.0010496
0.0010495
0.00104947
0.00104944
0.00104944
0.00104943
0.00104943
0.00104943
0.00104943
0.00104943
0.00104944
0.00104944
0.00104944
0.00104944
0.00104945
0.00104945
0.00104945
0.00104945
0.00104945
0.00104945
0.00104946
0.00104946
0.00104946
0.00104946
0.00104947
0.00104947
0.00104948
0.00104948
0.00104948
0.00104948
0.00104949
0.00104949
0.0010495
0.0010495
0.00104951
0.00104951
0.00104952
0.00104952
0.00104953
0.00104953
0.00104953
0.00104953
0.00104955
0.00104954
0.00104955
0.00104955
0.00104957
0.00104957
0.00104959
0.00104959
0.00104959
0.00104957
0.00104958
0.00104958
0.00104959
0.00104959
0.00104962
0.00104962
0.00104963
0.00104963
0.00104963
0.00104963
0.00104966
0.00104966
0.00104967
0.00104967
0.00104967
0.00104974
0.00104974
0.00104976
0.00104977
0.00104981
0.00104981
0.00104981
0.00104988
0.00104989
0.00104993
0.00104995
0.00105005
0.00105009
0.00105018
0.00105032
0.00105039
0.0010506
0.00105081
0.00105117
0.00105155
0.00105254
0.00105299
0.00105862
0.00105981
0.0011128
0.00173184
0.00105586
0.0010501
0.00104903
0.00104874
0.00104863
0.00104859
0.00104856
0.00104856
0.00104855
0.00104855
0.00104855
0.00104855
0.00104855
0.00104855
0.00104855
0.00104856
0.00104856
0.00104856
0.00104856
0.00104857
0.00104857
0.00104857
0.00104857
0.00104858
0.00104858
0.00104858
0.00104858
0.00104859
0.00104859
0.0010486
0.0010486
0.0010486
0.0010486
0.00104861
0.00104861
0.00104862
0.00104862
0.00104863
0.00104863
0.00104864
0.00104864
0.00104865
0.00104865
0.00104866
0.00104866
0.00104867
0.00104867
0.00104868
0.00104868
0.00104869
0.00104869
0.00104871
0.00104871
0.00104871
0.0010487
0.00104871
0.00104871
0.00104872
0.00104872
0.00104874
0.00104874
0.00104876
0.00104876
0.00104876
0.00104876
0.00104878
0.00104879
0.0010488
0.0010488
0.0010488
0.00104887
0.00104888
0.0010489
0.0010489
0.00104895
0.00104895
0.00104895
0.00104902
0.00104903
0.00104907
0.0010491
0.0010492
0.00104924
0.00104933
0.00104948
0.00104955
0.00104976
0.00104999
0.00105035
0.00105074
0.00105176
0.00105222
0.00105781
0.00105935
0.00111227
0.00174315
0.00105537
0.00104929
0.00104812
0.0010478
0.00104767
0.00104763
0.0010476
0.00104759
0.00104758
0.00104758
0.00104758
0.00104759
0.00104759
0.00104759
0.00104759
0.00104759
0.00104759
0.0010476
0.0010476
0.0010476
0.0010476
0.00104761
0.00104761
0.00104761
0.00104761
0.00104762
0.00104762
0.00104763
0.00104763
0.00104763
0.00104763
0.00104764
0.00104764
0.00104765
0.00104765
0.00104766
0.00104766
0.00104767
0.00104767
0.00104768
0.00104768
0.00104769
0.00104769
0.0010477
0.0010477
0.00104771
0.00104771
0.00104772
0.00104772
0.00104774
0.00104774
0.00104776
0.00104776
0.00104776
0.00104774
0.00104775
0.00104775
0.00104776
0.00104776
0.00104779
0.00104779
0.00104781
0.00104781
0.00104781
0.00104781
0.00104783
0.00104784
0.00104785
0.00104785
0.00104785
0.00104792
0.00104794
0.00104795
0.00104796
0.001048
0.001048
0.001048
0.00104808
0.00104809
0.00104813
0.00104817
0.00104827
0.00104831
0.00104841
0.00104856
0.00104863
0.00104885
0.00104909
0.00104946
0.00104986
0.0010509
0.00105139
0.00105692
0.00105886
0.00111189
0.00175314
0.00105485
0.00104841
0.00104714
0.00104679
0.00104664
0.00104659
0.00104655
0.00104655
0.00104654
0.00104654
0.00104653
0.00104654
0.00104654
0.00104654
0.00104654
0.00104655
0.00104655
0.00104655
0.00104655
0.00104656
0.00104656
0.00104656
0.00104656
0.00104657
0.00104657
0.00104658
0.00104658
0.00104658
0.00104658
0.00104659
0.00104659
0.0010466
0.0010466
0.00104661
0.00104661
0.00104662
0.00104662
0.00104663
0.00104663
0.00104664
0.00104664
0.00104665
0.00104665
0.00104666
0.00104666
0.00104667
0.00104667
0.00104668
0.00104668
0.0010467
0.0010467
0.00104672
0.00104672
0.00104672
0.0010467
0.00104671
0.00104671
0.00104673
0.00104673
0.00104675
0.00104675
0.00104677
0.00104678
0.00104678
0.00104677
0.0010468
0.00104681
0.00104682
0.00104682
0.00104682
0.0010469
0.00104691
0.00104693
0.00104694
0.00104698
0.00104698
0.00104698
0.00104706
0.00104708
0.00104711
0.00104715
0.00104726
0.0010473
0.0010474
0.00104756
0.00104764
0.00104786
0.00104811
0.00104849
0.00104891
0.00104996
0.00105048
0.00105593
0.00105833
0.00111167
0.00176179
0.00105429
0.00104746
0.00104608
0.00104569
0.00104552
0.00104547
0.00104543
0.00104542
0.0010454
0.0010454
0.0010454
0.0010454
0.0010454
0.00104541
0.00104541
0.00104541
0.00104541
0.00104542
0.00104542
0.00104543
0.00104543
0.00104543
0.00104543
0.00104544
0.00104544
0.00104544
0.00104544
0.00104545
0.00104545
0.00104546
0.00104546
0.00104547
0.00104547
0.00104548
0.00104548
0.00104549
0.00104549
0.0010455
0.0010455
0.00104551
0.00104551
0.00104552
0.00104552
0.00104553
0.00104553
0.00104555
0.00104555
0.00104556
0.00104556
0.00104557
0.00104557
0.0010456
0.0010456
0.0010456
0.00104558
0.00104559
0.00104559
0.00104561
0.00104561
0.00104563
0.00104563
0.00104565
0.00104566
0.00104566
0.00104565
0.00104568
0.00104569
0.0010457
0.0010457
0.0010457
0.00104579
0.0010458
0.00104582
0.00104583
0.00104587
0.00104587
0.00104587
0.00104596
0.00104598
0.00104601
0.00104606
0.00104616
0.00104621
0.00104632
0.00104648
0.00104656
0.00104679
0.00104705
0.00104744
0.00104787
0.00104895
0.00104949
0.00105485
0.00105778
0.00111162
0.00176907
0.0010537
0.00104645
0.00104494
0.0010445
0.00104432
0.00104426
0.00104421
0.0010442
0.00104418
0.00104418
0.00104418
0.00104418
0.00104418
0.00104419
0.00104419
0.00104419
0.00104419
0.0010442
0.0010442
0.00104421
0.00104421
0.00104421
0.00104421
0.00104422
0.00104422
0.00104423
0.00104423
0.00104423
0.00104423
0.00104424
0.00104424
0.00104425
0.00104425
0.00104427
0.00104427
0.00104428
0.00104428
0.00104429
0.00104429
0.0010443
0.0010443
0.00104431
0.00104431
0.00104432
0.00104432
0.00104433
0.00104433
0.00104434
0.00104434
0.00104436
0.00104436
0.00104439
0.00104439
0.00104439
0.00104437
0.00104438
0.00104438
0.0010444
0.0010444
0.00104443
0.00104443
0.00104444
0.00104445
0.00104445
0.00104445
0.00104448
0.00104449
0.0010445
0.0010445
0.0010445
0.00104459
0.00104461
0.00104462
0.00104464
0.00104468
0.00104468
0.00104468
0.00104477
0.00104479
0.00104482
0.00104487
0.00104498
0.00104503
0.00104515
0.00104531
0.0010454
0.00104564
0.0010459
0.00104631
0.00104675
0.00104785
0.00104842
0.00105368
0.00105719
0.00111174
0.00177496
0.00105307
0.00104538
0.00104372
0.00104324
0.00104303
0.00104296
0.00104291
0.00104289
0.00104287
0.00104287
0.00104287
0.00104287
0.00104287
0.00104288
0.00104288
0.00104288
0.00104288
0.00104289
0.00104289
0.0010429
0.0010429
0.0010429
0.0010429
0.00104291
0.00104291
0.00104292
0.00104292
0.00104293
0.00104293
0.00104294
0.00104294
0.00104295
0.00104295
0.00104296
0.00104296
0.00104297
0.00104297
0.00104298
0.00104298
0.00104299
0.00104299
0.00104301
0.00104301
0.00104302
0.00104302
0.00104303
0.00104303
0.00104305
0.00104305
0.00104306
0.00104306
0.0010431
0.0010431
0.00104309
0.00104308
0.00104309
0.00104309
0.0010431
0.0010431
0.00104314
0.00104314
0.00104315
0.00104316
0.00104316
0.00104316
0.00104319
0.0010432
0.00104321
0.00104321
0.00104321
0.0010433
0.00104332
0.00104334
0.00104336
0.0010434
0.0010434
0.0010434
0.00104349
0.00104352
0.00104354
0.0010436
0.00104371
0.00104377
0.00104389
0.00104406
0.00104415
0.0010444
0.00104467
0.00104509
0.00104554
0.00104666
0.00104727
0.00105241
0.00105657
0.00111198
0.00177944
0.00105242
0.00104423
0.00104243
0.00104188
0.00104165
0.00104157
0.00104151
0.00104149
0.00104147
0.00104147
0.00104147
0.00104147
0.00104147
0.00104147
0.00104147
0.00104148
0.00104148
0.00104149
0.00104149
0.0010415
0.0010415
0.0010415
0.0010415
0.00104151
0.00104151
0.00104152
0.00104152
0.00104153
0.00104153
0.00104154
0.00104154
0.00104155
0.00104155
0.00104157
0.00104157
0.00104158
0.00104158
0.00104159
0.00104159
0.0010416
0.0010416
0.00104161
0.00104161
0.00104163
0.00104163
0.00104164
0.00104164
0.00104165
0.00104165
0.00104167
0.00104167
0.00104171
0.00104171
0.00104171
0.00104169
0.0010417
0.0010417
0.00104172
0.00104172
0.00104175
0.00104175
0.00104176
0.00104178
0.00104178
0.00104177
0.00104181
0.00104182
0.00104183
0.00104183
0.00104183
0.00104193
0.00104195
0.00104196
0.00104199
0.00104203
0.00104203
0.00104203
0.00104213
0.00104216
0.00104218
0.00104225
0.00104236
0.00104242
0.00104254
0.00104272
0.00104281
0.00104307
0.00104335
0.00104379
0.00104425
0.00104539
0.00104603
0.00105103
0.00105592
0.00111227
0.00178252
0.00105173
0.00104302
0.00104105
0.00104044
0.00104018
0.00104008
0.00104002
0.00104
0.00103998
0.00103998
0.00103997
0.00103997
0.00103997
0.00103998
0.00103998
0.00103998
0.00103998
0.00103999
0.00103999
0.00104
0.00104
0.00104001
0.00104001
0.00104002
0.00104002
0.00104003
0.00104003
0.00104004
0.00104004
0.00104005
0.00104005
0.00104006
0.00104006
0.00104008
0.00104008
0.00104009
0.00104009
0.0010401
0.0010401
0.00104011
0.00104011
0.00104013
0.00104013
0.00104014
0.00104014
0.00104016
0.00104016
0.00104017
0.00104017
0.00104019
0.00104019
0.00104023
0.00104023
0.00104023
0.0010402
0.00104022
0.00104022
0.00104024
0.00104024
0.00104027
0.00104027
0.00104028
0.0010403
0.0010403
0.0010403
0.00104033
0.00104035
0.00104036
0.00104036
0.00104036
0.00104046
0.00104049
0.00104049
0.00104053
0.00104057
0.00104057
0.00104057
0.00104067
0.0010407
0.00104072
0.0010408
0.00104091
0.00104097
0.00104111
0.00104129
0.00104138
0.00104165
0.00104194
0.00104239
0.00104286
0.00104403
0.0010447
0.00104955
0.00105522
0.00111251
0.00178419
0.00105102
0.00104175
0.00103958
0.00103891
0.00103862
0.00103851
0.00103843
0.00103841
0.00103839
0.00103838
0.00103838
0.00103838
0.00103838
0.00103838
0.00103838
0.00103839
0.00103839
0.0010384
0.0010384
0.00103841
0.00103841
0.00103842
0.00103842
0.00103842
0.00103842
0.00103844
0.00103844
0.00103845
0.00103845
0.00103846
0.00103846
0.00103847
0.00103847
0.00103849
0.00103849
0.0010385
0.0010385
0.00103851
0.00103851
0.00103853
0.00103853
0.00103854
0.00103854
0.00103856
0.00103856
0.00103858
0.00103858
0.00103859
0.00103859
0.00103861
0.00103861
0.00103865
0.00103865
0.00103865
0.00103863
0.00103864
0.00103864
0.00103866
0.00103866
0.0010387
0.0010387
0.00103871
0.00103873
0.00103873
0.00103872
0.00103876
0.00103878
0.00103879
0.00103879
0.00103879
0.0010389
0.00103893
0.00103893
0.00103897
0.00103902
0.00103902
0.00103902
0.00103912
0.00103915
0.00103917
0.00103925
0.00103937
0.00103944
0.00103958
0.00103976
0.00103986
0.00104014
0.00104044
0.0010409
0.00104139
0.00104257
0.00104328
0.00104796
0.00105449
0.00111266
0.00178445
0.00105027
0.0010404
0.00103803
0.00103728
0.00103696
0.00103683
0.00103675
0.00103673
0.0010367
0.00103669
0.00103668
0.00103669
0.00103668
0.00103669
0.00103669
0.0010367
0.0010367
0.00103671
0.00103671
0.00103671
0.00103671
0.00103672
0.00103672
0.00103673
0.00103673
0.00103674
0.00103674
0.00103676
0.00103676
0.00103677
0.00103677
0.00103678
0.00103678
0.00103681
0.00103681
0.00103682
0.00103682
0.00103683
0.00103683
0.00103685
0.00103685
0.00103686
0.00103686
0.00103688
0.00103687
0.0010369
0.0010369
0.00103691
0.00103691
0.00103693
0.00103693
0.00103698
0.00103698
0.00103697
0.00103695
0.00103696
0.00103696
0.00103699
0.00103699
0.00103703
0.00103703
0.00103703
0.00103706
0.00103706
0.00103705
0.00103709
0.00103712
0.00103712
0.00103712
0.00103712
0.00103724
0.00103727
0.00103727
0.00103732
0.00103736
0.00103736
0.00103736
0.00103747
0.00103751
0.00103752
0.00103761
0.00103773
0.0010378
0.00103795
0.00103814
0.00103824
0.00103853
0.00103885
0.00103931
0.00103981
0.00104101
0.00104177
0.00104627
0.00105371
0.00111274
0.00178336
0.0010495
0.00103899
0.0010364
0.00103557
0.0010352
0.00103506
0.00103497
0.00103494
0.0010349
0.0010349
0.00103489
0.00103489
0.00103489
0.00103489
0.00103489
0.0010349
0.0010349
0.00103491
0.00103491
0.00103492
0.00103492
0.00103493
0.00103493
0.00103494
0.00103494
0.00103495
0.00103495
0.00103496
0.00103496
0.00103498
0.00103498
0.00103499
0.00103499
0.00103502
0.00103502
0.00103503
0.00103503
0.00103504
0.00103504
0.00103506
0.00103506
0.00103508
0.00103508
0.00103509
0.00103509
0.00103511
0.00103511
0.00103513
0.00103513
0.00103515
0.00103515
0.0010352
0.0010352
0.0010352
0.00103517
0.00103519
0.00103519
0.00103521
0.00103521
0.00103525
0.00103526
0.00103526
0.00103529
0.00103529
0.00103528
0.00103532
0.00103535
0.00103536
0.00103536
0.00103535
0.00103548
0.00103551
0.00103551
0.00103557
0.00103561
0.00103561
0.00103561
0.00103572
0.00103576
0.00103577
0.00103587
0.00103599
0.00103607
0.00103622
0.00103642
0.00103653
0.00103682
0.00103715
0.00103763
0.00103814
0.00103935
0.00104016
0.00104447
0.00105288
0.00111271
0.00178089
0.00104871
0.00103751
0.00103468
0.00103375
0.00103335
0.00103318
0.00103308
0.00103304
0.00103301
0.001033
0.00103298
0.00103299
0.00103298
0.00103299
0.00103299
0.001033
0.001033
0.00103301
0.00103301
0.00103302
0.00103302
0.00103303
0.00103303
0.00103304
0.00103304
0.00103305
0.00103305
0.00103307
0.00103307
0.00103308
0.00103308
0.0010331
0.0010331
0.00103313
0.00103313
0.00103314
0.00103314
0.00103315
0.00103315
0.00103317
0.00103317
0.00103319
0.00103319
0.0010332
0.0010332
0.00103323
0.00103323
0.00103325
0.00103325
0.00103327
0.00103327
0.00103332
0.00103332
0.00103332
0.00103329
0.00103331
0.00103331
0.00103333
0.00103333
0.00103337
0.00103338
0.00103338
0.00103341
0.00103341
0.00103341
0.00103344
0.00103348
0.00103348
0.00103349
0.00103348
0.00103362
0.00103364
0.00103365
0.00103371
0.00103376
0.00103376
0.00103375
0.00103387
0.00103391
0.00103392
0.00103403
0.00103415
0.00103423
0.0010344
0.0010346
0.00103471
0.00103501
0.00103535
0.00103584
0.00103637
0.00103759
0.00103844
0.00104256
0.00105199
0.00111259
0.00177709
0.00104789
0.00103596
0.00103287
0.00103184
0.00103139
0.0010312
0.00103108
0.00103104
0.001031
0.00103099
0.00103098
0.00103098
0.00103097
0.00103098
0.00103098
0.00103099
0.00103099
0.001031
0.001031
0.00103101
0.00103101
0.00103102
0.00103102
0.00103103
0.00103103
0.00103105
0.00103105
0.00103106
0.00103106
0.00103108
0.00103108
0.0010311
0.0010311
0.00103113
0.00103113
0.00103114
0.00103114
0.00103116
0.00103116
0.00103117
0.00103117
0.0010312
0.0010312
0.00103121
0.00103121
0.00103124
0.00103123
0.00103125
0.00103125
0.00103128
0.00103128
0.00103133
0.00103133
0.00103133
0.0010313
0.00103132
0.00103132
0.00103135
0.00103135
0.00103139
0.00103139
0.00103139
0.00103143
0.00103143
0.00103143
0.00103146
0.00103151
0.00103151
0.00103151
0.0010315
0.00103165
0.00103168
0.00103168
0.00103175
0.00103179
0.0010318
0.00103179
0.00103192
0.00103196
0.00103196
0.00103208
0.0010322
0.00103229
0.00103246
0.00103267
0.00103278
0.0010331
0.00103345
0.00103395
0.00103449
0.00103572
0.00103663
0.00104054
0.00105103
0.00111235
0.00177199
0.00104705
0.00103435
0.00103098
0.00102983
0.00102932
0.00102911
0.00102898
0.00102893
0.00102889
0.00102888
0.00102886
0.00102886
0.00102885
0.00102886
0.00102886
0.00102887
0.00102887
0.00102888
0.00102888
0.00102889
0.00102889
0.0010289
0.0010289
0.00102892
0.00102892
0.00102893
0.00102893
0.00102895
0.00102895
0.00102896
0.00102896
0.00102899
0.00102899
0.00102902
0.00102902
0.00102903
0.00102903
0.00102905
0.00102905
0.00102907
0.00102907
0.00102909
0.00102909
0.00102911
0.0010291
0.00102913
0.00102913
0.00102915
0.00102915
0.00102918
0.00102917
0.00102924
0.00102924
0.00102923
0.0010292
0.00102922
0.00102922
0.00102925
0.00102925
0.00102929
0.0010293
0.0010293
0.00102934
0.00102934
0.00102934
0.00102937
0.00102942
0.00102942
0.00102942
0.00102942
0.00102957
0.0010296
0.0010296
0.00102968
0.00102973
0.00102973
0.00102972
0.00102985
0.00102989
0.00102989
0.00103002
0.00103014
0.00103024
0.00103042
0.00103063
0.00103075
0.00103108
0.00103144
0.00103195
0.0010325
0.00103375
0.0010347
0.0010384
0.00104999
0.001112
0.00176562
0.00104619
0.00103267
0.00102899
0.00102772
0.00102715
0.00102692
0.00102677
0.00102671
0.00102666
0.00102665
0.00102662
0.00102662
0.00102662
0.00102662
0.00102662
0.00102663
0.00102663
0.00102664
0.00102664
0.00102666
0.00102666
0.00102667
0.00102667
0.00102668
0.00102668
0.0010267
0.0010267
0.00102672
0.00102672
0.00102674
0.00102674
0.00102676
0.00102676
0.0010268
0.0010268
0.00102681
0.00102681
0.00102683
0.00102683
0.00102685
0.00102685
0.00102687
0.00102687
0.00102689
0.00102689
0.00102692
0.00102692
0.00102694
0.00102694
0.00102696
0.00102696
0.00102703
0.00102703
0.00102702
0.00102699
0.00102701
0.00102701
0.00102705
0.00102705
0.00102709
0.00102709
0.00102709
0.00102714
0.00102714
0.00102713
0.00102716
0.00102723
0.00102723
0.00102723
0.00102722
0.00102738
0.00102741
0.00102741
0.0010275
0.00102755
0.00102755
0.00102754
0.00102768
0.00102772
0.00102772
0.00102785
0.00102798
0.00102808
0.00102827
0.00102849
0.00102861