/*--------------------------------*- C++ -*----------------------------------*\
| =========                 |                                                 |
| \\      /  F ield         | OpenFOAM: The Open Source CFD Toolbox           |
|  \\    /   O peration     | Version:  v2012                                 |
|   \\  /    A nd           | Website:  www.openfoam.com                      |
|    \\/     M anipulation  |                                                 |
\*---------------------------------------------------------------------------*/
FoamFile
{
    version     2.0;
    format      ascii;
    class       volScalarField;
    location    "3.5";
    object      nut;
}
// * * * * * * * * * * * * * * * * * * * * * * * * * * * * * * * * * * * * * //

dimensions      [0 2 -1 0 0 0 0];


internalField   nonuniform List<scalar> 
209825
(
1.25452e-07
1.26152e-07
1.26387e-07
1.26483e-07
1.26534e-07
1.26561e-07
1.26578e-07
1.26589e-07
1.26596e-07
1.26601e-07
1.26605e-07
1.26607e-07
1.26609e-07
1.2661e-07
1.26612e-07
1.26612e-07
1.26612e-07
1.26612e-07
1.26612e-07
1.26611e-07
1.26611e-07
1.2661e-07
1.2661e-07
1.26609e-07
1.26609e-07
1.26607e-07
1.26607e-07
1.26605e-07
1.26605e-07
1.26603e-07
1.26603e-07
1.26601e-07
1.26601e-07
1.26598e-07
1.26598e-07
1.26595e-07
1.26595e-07
1.26592e-07
1.26592e-07
1.26588e-07
1.26588e-07
1.26584e-07
1.26584e-07
1.26579e-07
1.26579e-07
1.26576e-07
1.26576e-07
1.26571e-07
1.26571e-07
1.26567e-07
1.26567e-07
1.26558e-07
1.26557e-07
1.26553e-07
1.26552e-07
1.26545e-07
1.26545e-07
1.26545e-07
1.26545e-07
1.26543e-07
1.26543e-07
1.26541e-07
1.26541e-07
1.26534e-07
1.26534e-07
1.26534e-07
1.26534e-07
1.26531e-07
1.26531e-07
1.26518e-07
1.26519e-07
1.26516e-07
1.26518e-07
1.26515e-07
1.2652e-07
1.26512e-07
1.26511e-07
1.26512e-07
1.26512e-07
1.26518e-07
1.26511e-07
1.26522e-07
1.26511e-07
1.26518e-07
1.26531e-07
1.26518e-07
1.26535e-07
1.2654e-07
1.26546e-07
1.2657e-07
1.26613e-07
1.26629e-07
1.26946e-07
1.26886e-07
1.3014e-07
1.35788e-08
1.25452e-07
1.26153e-07
1.26388e-07
1.26484e-07
1.26535e-07
1.26562e-07
1.2658e-07
1.2659e-07
1.26598e-07
1.26602e-07
1.26607e-07
1.26609e-07
1.26611e-07
1.26612e-07
1.26613e-07
1.26613e-07
1.26614e-07
1.26613e-07
1.26614e-07
1.26613e-07
1.26613e-07
1.26612e-07
1.26612e-07
1.26611e-07
1.26611e-07
1.26609e-07
1.26609e-07
1.26607e-07
1.26607e-07
1.26605e-07
1.26605e-07
1.26602e-07
1.26602e-07
1.266e-07
1.266e-07
1.26597e-07
1.26597e-07
1.26593e-07
1.26593e-07
1.2659e-07
1.2659e-07
1.26586e-07
1.26586e-07
1.26581e-07
1.26581e-07
1.26577e-07
1.26577e-07
1.26572e-07
1.26572e-07
1.26568e-07
1.26568e-07
1.26559e-07
1.26558e-07
1.26555e-07
1.26553e-07
1.26547e-07
1.26547e-07
1.26546e-07
1.26546e-07
1.26545e-07
1.26545e-07
1.26543e-07
1.26543e-07
1.26536e-07
1.26536e-07
1.26536e-07
1.26536e-07
1.26533e-07
1.26533e-07
1.26519e-07
1.2652e-07
1.26517e-07
1.2652e-07
1.26517e-07
1.26521e-07
1.26513e-07
1.26513e-07
1.26513e-07
1.26514e-07
1.26519e-07
1.26513e-07
1.26523e-07
1.26513e-07
1.26519e-07
1.26532e-07
1.2652e-07
1.26536e-07
1.26541e-07
1.26547e-07
1.26571e-07
1.26615e-07
1.2663e-07
1.26948e-07
1.26888e-07
1.30143e-07
1.39691e-08
1.2545e-07
1.26152e-07
1.26389e-07
1.26486e-07
1.26537e-07
1.26564e-07
1.26582e-07
1.26592e-07
1.266e-07
1.26605e-07
1.26609e-07
1.26611e-07
1.26613e-07
1.26614e-07
1.26616e-07
1.26616e-07
1.26616e-07
1.26616e-07
1.26616e-07
1.26616e-07
1.26616e-07
1.26614e-07
1.26614e-07
1.26613e-07
1.26613e-07
1.26611e-07
1.26611e-07
1.26609e-07
1.26609e-07
1.26607e-07
1.26607e-07
1.26605e-07
1.26605e-07
1.26602e-07
1.26602e-07
1.26599e-07
1.26599e-07
1.26596e-07
1.26596e-07
1.26592e-07
1.26592e-07
1.26588e-07
1.26589e-07
1.26583e-07
1.26583e-07
1.2658e-07
1.2658e-07
1.26575e-07
1.26575e-07
1.26571e-07
1.26571e-07
1.26562e-07
1.26561e-07
1.26557e-07
1.26556e-07
1.26549e-07
1.26549e-07
1.26549e-07
1.26549e-07
1.26547e-07
1.26547e-07
1.26545e-07
1.26545e-07
1.26538e-07
1.26538e-07
1.26538e-07
1.26538e-07
1.26535e-07
1.26535e-07
1.26522e-07
1.26523e-07
1.26519e-07
1.26522e-07
1.26519e-07
1.26523e-07
1.26515e-07
1.26515e-07
1.26516e-07
1.26516e-07
1.26521e-07
1.26515e-07
1.26526e-07
1.26515e-07
1.26522e-07
1.26535e-07
1.26522e-07
1.26539e-07
1.26544e-07
1.2655e-07
1.26574e-07
1.26618e-07
1.26634e-07
1.26952e-07
1.26893e-07
1.30148e-07
1.4462e-08
1.25448e-07
1.26152e-07
1.2639e-07
1.26488e-07
1.2654e-07
1.26568e-07
1.26586e-07
1.26596e-07
1.26605e-07
1.26609e-07
1.26614e-07
1.26616e-07
1.26618e-07
1.26619e-07
1.2662e-07
1.2662e-07
1.26621e-07
1.26621e-07
1.26621e-07
1.2662e-07
1.2662e-07
1.26619e-07
1.26619e-07
1.26618e-07
1.26618e-07
1.26616e-07
1.26616e-07
1.26614e-07
1.26614e-07
1.26612e-07
1.26612e-07
1.26609e-07
1.26609e-07
1.26607e-07
1.26607e-07
1.26604e-07
1.26604e-07
1.26601e-07
1.26601e-07
1.26597e-07
1.26597e-07
1.26593e-07
1.26593e-07
1.26588e-07
1.26588e-07
1.26584e-07
1.26584e-07
1.2658e-07
1.2658e-07
1.26575e-07
1.26575e-07
1.26566e-07
1.26565e-07
1.26561e-07
1.2656e-07
1.26554e-07
1.26553e-07
1.26553e-07
1.26553e-07
1.26552e-07
1.26552e-07
1.26549e-07
1.26549e-07
1.26542e-07
1.26542e-07
1.26542e-07
1.26542e-07
1.26539e-07
1.26539e-07
1.26526e-07
1.26527e-07
1.26524e-07
1.26526e-07
1.26523e-07
1.26528e-07
1.2652e-07
1.26519e-07
1.2652e-07
1.2652e-07
1.26526e-07
1.2652e-07
1.2653e-07
1.2652e-07
1.26526e-07
1.26539e-07
1.26527e-07
1.26543e-07
1.26548e-07
1.26555e-07
1.26579e-07
1.26623e-07
1.26639e-07
1.26959e-07
1.26902e-07
1.30156e-07
1.50178e-08
1.25444e-07
1.26151e-07
1.26392e-07
1.26492e-07
1.26545e-07
1.26573e-07
1.26592e-07
1.26602e-07
1.26611e-07
1.26616e-07
1.2662e-07
1.26622e-07
1.26625e-07
1.26626e-07
1.26627e-07
1.26627e-07
1.26628e-07
1.26628e-07
1.26628e-07
1.26627e-07
1.26628e-07
1.26626e-07
1.26626e-07
1.26625e-07
1.26625e-07
1.26623e-07
1.26623e-07
1.26621e-07
1.26621e-07
1.26619e-07
1.26619e-07
1.26617e-07
1.26617e-07
1.26614e-07
1.26614e-07
1.26611e-07
1.26611e-07
1.26608e-07
1.26608e-07
1.26604e-07
1.26604e-07
1.266e-07
1.266e-07
1.26595e-07
1.26595e-07
1.26591e-07
1.26591e-07
1.26586e-07
1.26586e-07
1.26582e-07
1.26582e-07
1.26573e-07
1.26572e-07
1.26568e-07
1.26567e-07
1.2656e-07
1.2656e-07
1.2656e-07
1.2656e-07
1.26558e-07
1.26558e-07
1.26556e-07
1.26556e-07
1.26549e-07
1.26549e-07
1.26549e-07
1.26549e-07
1.26546e-07
1.26546e-07
1.26532e-07
1.26533e-07
1.2653e-07
1.26532e-07
1.2653e-07
1.26534e-07
1.26526e-07
1.26526e-07
1.26526e-07
1.26526e-07
1.26532e-07
1.26526e-07
1.26536e-07
1.26526e-07
1.26532e-07
1.26546e-07
1.26533e-07
1.2655e-07
1.26555e-07
1.26562e-07
1.26587e-07
1.26631e-07
1.26648e-07
1.26969e-07
1.26914e-07
1.30167e-07
1.563e-08
1.25439e-07
1.2615e-07
1.26395e-07
1.26497e-07
1.26551e-07
1.26581e-07
1.26599e-07
1.26611e-07
1.2662e-07
1.26625e-07
1.26629e-07
1.26631e-07
1.26634e-07
1.26635e-07
1.26637e-07
1.26637e-07
1.26637e-07
1.26637e-07
1.26638e-07
1.26637e-07
1.26637e-07
1.26636e-07
1.26636e-07
1.26635e-07
1.26635e-07
1.26633e-07
1.26633e-07
1.26631e-07
1.26631e-07
1.26629e-07
1.26629e-07
1.26626e-07
1.26626e-07
1.26623e-07
1.26623e-07
1.2662e-07
1.2662e-07
1.26617e-07
1.26617e-07
1.26613e-07
1.26613e-07
1.26609e-07
1.26609e-07
1.26604e-07
1.26604e-07
1.266e-07
1.266e-07
1.26595e-07
1.26595e-07
1.26591e-07
1.26591e-07
1.26582e-07
1.26581e-07
1.26577e-07
1.26576e-07
1.26569e-07
1.26569e-07
1.26568e-07
1.26568e-07
1.26567e-07
1.26567e-07
1.26565e-07
1.26565e-07
1.26557e-07
1.26557e-07
1.26558e-07
1.26558e-07
1.26554e-07
1.26554e-07
1.26541e-07
1.26542e-07
1.26538e-07
1.26541e-07
1.26538e-07
1.26543e-07
1.26534e-07
1.26534e-07
1.26535e-07
1.26535e-07
1.2654e-07
1.26534e-07
1.26545e-07
1.26534e-07
1.26541e-07
1.26555e-07
1.26542e-07
1.26559e-07
1.26565e-07
1.26572e-07
1.26596e-07
1.26642e-07
1.26659e-07
1.26982e-07
1.26931e-07
1.3018e-07
1.62987e-08
1.25434e-07
1.2615e-07
1.26399e-07
1.26503e-07
1.26559e-07
1.2659e-07
1.26609e-07
1.26621e-07
1.2663e-07
1.26636e-07
1.2664e-07
1.26643e-07
1.26646e-07
1.26647e-07
1.26648e-07
1.26649e-07
1.26649e-07
1.26649e-07
1.2665e-07
1.26649e-07
1.26649e-07
1.26648e-07
1.26648e-07
1.26647e-07
1.26647e-07
1.26645e-07
1.26645e-07
1.26643e-07
1.26643e-07
1.26641e-07
1.26641e-07
1.26638e-07
1.26638e-07
1.26635e-07
1.26635e-07
1.26632e-07
1.26632e-07
1.26629e-07
1.26629e-07
1.26625e-07
1.26625e-07
1.26621e-07
1.26621e-07
1.26616e-07
1.26616e-07
1.26612e-07
1.26612e-07
1.26607e-07
1.26607e-07
1.26602e-07
1.26602e-07
1.26593e-07
1.26592e-07
1.26588e-07
1.26587e-07
1.2658e-07
1.26579e-07
1.26579e-07
1.26579e-07
1.26578e-07
1.26578e-07
1.26576e-07
1.26576e-07
1.26568e-07
1.26568e-07
1.26569e-07
1.26569e-07
1.26565e-07
1.26565e-07
1.26552e-07
1.26553e-07
1.26549e-07
1.26551e-07
1.26549e-07
1.26554e-07
1.26545e-07
1.26545e-07
1.26545e-07
1.26546e-07
1.26551e-07
1.26545e-07
1.26556e-07
1.26545e-07
1.26552e-07
1.26566e-07
1.26553e-07
1.2657e-07
1.26576e-07
1.26584e-07
1.26609e-07
1.26655e-07
1.26673e-07
1.26997e-07
1.26951e-07
1.30196e-07
1.70259e-08
1.25427e-07
1.26149e-07
1.26403e-07
1.26511e-07
1.26569e-07
1.26601e-07
1.26621e-07
1.26634e-07
1.26643e-07
1.26649e-07
1.26654e-07
1.26657e-07
1.2666e-07
1.26661e-07
1.26662e-07
1.26663e-07
1.26664e-07
1.26663e-07
1.26664e-07
1.26663e-07
1.26663e-07
1.26662e-07
1.26662e-07
1.26661e-07
1.26661e-07
1.26659e-07
1.26659e-07
1.26657e-07
1.26657e-07
1.26655e-07
1.26655e-07
1.26653e-07
1.26653e-07
1.2665e-07
1.2665e-07
1.26647e-07
1.26647e-07
1.26643e-07
1.26643e-07
1.2664e-07
1.2664e-07
1.26636e-07
1.26636e-07
1.2663e-07
1.2663e-07
1.26626e-07
1.26626e-07
1.26621e-07
1.26621e-07
1.26616e-07
1.26616e-07
1.26607e-07
1.26605e-07
1.26602e-07
1.266e-07
1.26593e-07
1.26593e-07
1.26593e-07
1.26593e-07
1.26592e-07
1.26592e-07
1.26589e-07
1.26589e-07
1.26581e-07
1.26581e-07
1.26582e-07
1.26582e-07
1.26578e-07
1.26578e-07
1.26565e-07
1.26566e-07
1.26562e-07
1.26564e-07
1.26562e-07
1.26567e-07
1.26557e-07
1.26557e-07
1.26558e-07
1.26559e-07
1.26564e-07
1.26558e-07
1.26569e-07
1.26558e-07
1.26565e-07
1.26579e-07
1.26567e-07
1.26584e-07
1.26591e-07
1.26598e-07
1.26623e-07
1.26671e-07
1.26689e-07
1.27015e-07
1.26976e-07
1.30213e-07
1.78146e-08
1.2542e-07
1.26149e-07
1.26409e-07
1.2652e-07
1.26581e-07
1.26614e-07
1.26636e-07
1.26649e-07
1.26659e-07
1.26665e-07
1.2667e-07
1.26673e-07
1.26676e-07
1.26677e-07
1.26679e-07
1.2668e-07
1.26681e-07
1.2668e-07
1.26681e-07
1.2668e-07
1.26681e-07
1.26679e-07
1.2668e-07
1.26678e-07
1.26678e-07
1.26677e-07
1.26677e-07
1.26674e-07
1.26674e-07
1.26672e-07
1.26672e-07
1.2667e-07
1.2667e-07
1.26667e-07
1.26667e-07
1.26664e-07
1.26664e-07
1.2666e-07
1.2666e-07
1.26657e-07
1.26657e-07
1.26652e-07
1.26652e-07
1.26647e-07
1.26647e-07
1.26643e-07
1.26643e-07
1.26638e-07
1.26638e-07
1.26633e-07
1.26633e-07
1.26623e-07
1.26622e-07
1.26618e-07
1.26616e-07
1.26609e-07
1.26608e-07
1.26609e-07
1.26609e-07
1.26608e-07
1.26608e-07
1.26605e-07
1.26605e-07
1.26597e-07
1.26597e-07
1.26598e-07
1.26598e-07
1.26594e-07
1.26594e-07
1.2658e-07
1.26582e-07
1.26578e-07
1.2658e-07
1.26577e-07
1.26582e-07
1.26573e-07
1.26572e-07
1.26574e-07
1.26574e-07
1.2658e-07
1.26574e-07
1.26585e-07
1.26574e-07
1.26581e-07
1.26596e-07
1.26583e-07
1.266e-07
1.26607e-07
1.26615e-07
1.26641e-07
1.2669e-07
1.26709e-07
1.27036e-07
1.27006e-07
1.30233e-07
1.86678e-08
1.25411e-07
1.26148e-07
1.26415e-07
1.26531e-07
1.26594e-07
1.26629e-07
1.26652e-07
1.26666e-07
1.26677e-07
1.26683e-07
1.26689e-07
1.26692e-07
1.26695e-07
1.26697e-07
1.26699e-07
1.26699e-07
1.267e-07
1.267e-07
1.26701e-07
1.267e-07
1.267e-07
1.26699e-07
1.26699e-07
1.26698e-07
1.26698e-07
1.26696e-07
1.26696e-07
1.26694e-07
1.26694e-07
1.26692e-07
1.26692e-07
1.26689e-07
1.26689e-07
1.26687e-07
1.26687e-07
1.26684e-07
1.26683e-07
1.2668e-07
1.2668e-07
1.26676e-07
1.26676e-07
1.26672e-07
1.26672e-07
1.26666e-07
1.26666e-07
1.26662e-07
1.26662e-07
1.26657e-07
1.26657e-07
1.26652e-07
1.26652e-07
1.26642e-07
1.2664e-07
1.26636e-07
1.26635e-07
1.26628e-07
1.26627e-07
1.26627e-07
1.26627e-07
1.26626e-07
1.26626e-07
1.26624e-07
1.26624e-07
1.26615e-07
1.26615e-07
1.26616e-07
1.26616e-07
1.26612e-07
1.26612e-07
1.26598e-07
1.266e-07
1.26596e-07
1.26597e-07
1.26595e-07
1.266e-07
1.2659e-07
1.2659e-07
1.26591e-07
1.26592e-07
1.26597e-07
1.26592e-07
1.26603e-07
1.26591e-07
1.26599e-07
1.26614e-07
1.26601e-07
1.26618e-07
1.26626e-07
1.26635e-07
1.26661e-07
1.26711e-07
1.26731e-07
1.27059e-07
1.2704e-07
1.30256e-07
1.95884e-08
1.25402e-07
1.26147e-07
1.26422e-07
1.26543e-07
1.26609e-07
1.26646e-07
1.26671e-07
1.26686e-07
1.26697e-07
1.26704e-07
1.2671e-07
1.26713e-07
1.26717e-07
1.26719e-07
1.26721e-07
1.26721e-07
1.26722e-07
1.26722e-07
1.26723e-07
1.26723e-07
1.26723e-07
1.26722e-07
1.26722e-07
1.26721e-07
1.26721e-07
1.26719e-07
1.26719e-07
1.26717e-07
1.26717e-07
1.26715e-07
1.26715e-07
1.26712e-07
1.26712e-07
1.26709e-07
1.26709e-07
1.26706e-07
1.26706e-07
1.26702e-07
1.26702e-07
1.26698e-07
1.26698e-07
1.26694e-07
1.26694e-07
1.26688e-07
1.26688e-07
1.26684e-07
1.26684e-07
1.26679e-07
1.26679e-07
1.26673e-07
1.26673e-07
1.26664e-07
1.26661e-07
1.26657e-07
1.26656e-07
1.26649e-07
1.26647e-07
1.26648e-07
1.26648e-07
1.26647e-07
1.26647e-07
1.26644e-07
1.26645e-07
1.26636e-07
1.26635e-07
1.26637e-07
1.26637e-07
1.26632e-07
1.26632e-07
1.26618e-07
1.2662e-07
1.26616e-07
1.26617e-07
1.26616e-07
1.26621e-07
1.2661e-07
1.2661e-07
1.26611e-07
1.26612e-07
1.26617e-07
1.26612e-07
1.26623e-07
1.26612e-07
1.26619e-07
1.26635e-07
1.26622e-07
1.26639e-07
1.26648e-07
1.26657e-07
1.26683e-07
1.26735e-07
1.26756e-07
1.27085e-07
1.2708e-07
1.30285e-07
2.05786e-08
1.25391e-07
1.26146e-07
1.2643e-07
1.26556e-07
1.26626e-07
1.26666e-07
1.26692e-07
1.26708e-07
1.2672e-07
1.26727e-07
1.26734e-07
1.26738e-07
1.26741e-07
1.26743e-07
1.26745e-07
1.26746e-07
1.26747e-07
1.26748e-07
1.26748e-07
1.26748e-07
1.26748e-07
1.26747e-07
1.26747e-07
1.26746e-07
1.26746e-07
1.26744e-07
1.26744e-07
1.26742e-07
1.26742e-07
1.2674e-07
1.2674e-07
1.26737e-07
1.26737e-07
1.26735e-07
1.26735e-07
1.26731e-07
1.26731e-07
1.26728e-07
1.26728e-07
1.26724e-07
1.26724e-07
1.26719e-07
1.26719e-07
1.26713e-07
1.26713e-07
1.26709e-07
1.26709e-07
1.26703e-07
1.26703e-07
1.26698e-07
1.26698e-07
1.26688e-07
1.26685e-07
1.26681e-07
1.2668e-07
1.26672e-07
1.26671e-07
1.26671e-07
1.26671e-07
1.26671e-07
1.26671e-07
1.26668e-07
1.26668e-07
1.26659e-07
1.26658e-07
1.2666e-07
1.2666e-07
1.26655e-07
1.26655e-07
1.26641e-07
1.26643e-07
1.26639e-07
1.2664e-07
1.26638e-07
1.26644e-07
1.26633e-07
1.26632e-07
1.26634e-07
1.26635e-07
1.2664e-07
1.26635e-07
1.26646e-07
1.26635e-07
1.26642e-07
1.26659e-07
1.26646e-07
1.26663e-07
1.26673e-07
1.26682e-07
1.26709e-07
1.26762e-07
1.26784e-07
1.27114e-07
1.27124e-07
1.30324e-07
2.16393e-08
1.25379e-07
1.26145e-07
1.26438e-07
1.26571e-07
1.26645e-07
1.26687e-07
1.26715e-07
1.26732e-07
1.26745e-07
1.26753e-07
1.2676e-07
1.26764e-07
1.26768e-07
1.2677e-07
1.26773e-07
1.26774e-07
1.26775e-07
1.26775e-07
1.26776e-07
1.26776e-07
1.26776e-07
1.26775e-07
1.26775e-07
1.26774e-07
1.26774e-07
1.26773e-07
1.26773e-07
1.26771e-07
1.26771e-07
1.26768e-07
1.26768e-07
1.26766e-07
1.26766e-07
1.26763e-07
1.26763e-07
1.26759e-07
1.26759e-07
1.26756e-07
1.26756e-07
1.26751e-07
1.26751e-07
1.26747e-07
1.26747e-07
1.2674e-07
1.2674e-07
1.26736e-07
1.26736e-07
1.2673e-07
1.2673e-07
1.26725e-07
1.26725e-07
1.26715e-07
1.26712e-07
1.26708e-07
1.26706e-07
1.26699e-07
1.26697e-07
1.26698e-07
1.26698e-07
1.26697e-07
1.26697e-07
1.26694e-07
1.26694e-07
1.26684e-07
1.26684e-07
1.26686e-07
1.26686e-07
1.26681e-07
1.26681e-07
1.26666e-07
1.26669e-07
1.26664e-07
1.26665e-07
1.26664e-07
1.26669e-07
1.26658e-07
1.26657e-07
1.26659e-07
1.2666e-07
1.26665e-07
1.2666e-07
1.26672e-07
1.2666e-07
1.26668e-07
1.26685e-07
1.26672e-07
1.26689e-07
1.267e-07
1.26709e-07
1.26737e-07
1.26792e-07
1.26815e-07
1.27144e-07
1.27174e-07
1.30375e-07
2.27701e-08
1.25367e-07
1.26143e-07
1.26447e-07
1.26587e-07
1.26665e-07
1.2671e-07
1.2674e-07
1.26759e-07
1.26773e-07
1.26782e-07
1.26789e-07
1.26794e-07
1.26798e-07
1.26801e-07
1.26803e-07
1.26804e-07
1.26806e-07
1.26806e-07
1.26807e-07
1.26807e-07
1.26807e-07
1.26807e-07
1.26807e-07
1.26806e-07
1.26806e-07
1.26804e-07
1.26804e-07
1.26802e-07
1.26802e-07
1.26799e-07
1.26799e-07
1.26797e-07
1.26797e-07
1.26794e-07
1.26794e-07
1.2679e-07
1.2679e-07
1.26787e-07
1.26787e-07
1.26782e-07
1.26782e-07
1.26778e-07
1.26778e-07
1.2677e-07
1.2677e-07
1.26766e-07
1.26766e-07
1.26761e-07
1.26761e-07
1.26755e-07
1.26755e-07
1.26745e-07
1.26741e-07
1.26737e-07
1.26735e-07
1.26728e-07
1.26726e-07
1.26726e-07
1.26726e-07
1.26726e-07
1.26726e-07
1.26723e-07
1.26723e-07
1.26713e-07
1.26712e-07
1.26714e-07
1.26715e-07
1.26709e-07
1.26709e-07
1.26694e-07
1.26697e-07
1.26692e-07
1.26693e-07
1.26692e-07
1.26697e-07
1.26686e-07
1.26685e-07
1.26687e-07
1.26688e-07
1.26693e-07
1.26688e-07
1.267e-07
1.26688e-07
1.26696e-07
1.26714e-07
1.26701e-07
1.26717e-07
1.2673e-07
1.2674e-07
1.26768e-07
1.26825e-07
1.26849e-07
1.27177e-07
1.2723e-07
1.30443e-07
2.3971e-08
1.25353e-07
1.26142e-07
1.26457e-07
1.26604e-07
1.26687e-07
1.26736e-07
1.26768e-07
1.26788e-07
1.26803e-07
1.26813e-07
1.26821e-07
1.26826e-07
1.26831e-07
1.26834e-07
1.26836e-07
1.26838e-07
1.26839e-07
1.2684e-07
1.26841e-07
1.26841e-07
1.26842e-07
1.26841e-07
1.26841e-07
1.2684e-07
1.2684e-07
1.26838e-07
1.26838e-07
1.26836e-07
1.26836e-07
1.26834e-07
1.26834e-07
1.26831e-07
1.26831e-07
1.26828e-07
1.26828e-07
1.26825e-07
1.26824e-07
1.26821e-07
1.26821e-07
1.26816e-07
1.26816e-07
1.26811e-07
1.26811e-07
1.26804e-07
1.26804e-07
1.268e-07
1.268e-07
1.26794e-07
1.26794e-07
1.26788e-07
1.26788e-07
1.26777e-07
1.26774e-07
1.26769e-07
1.26767e-07
1.2676e-07
1.26757e-07
1.26758e-07
1.26758e-07
1.26758e-07
1.26758e-07
1.26755e-07
1.26755e-07
1.26744e-07
1.26743e-07
1.26746e-07
1.26746e-07
1.2674e-07
1.2674e-07
1.26725e-07
1.26728e-07
1.26723e-07
1.26723e-07
1.26723e-07
1.26728e-07
1.26716e-07
1.26715e-07
1.26717e-07
1.26719e-07
1.26723e-07
1.26719e-07
1.26731e-07
1.26719e-07
1.26727e-07
1.26745e-07
1.26732e-07
1.26749e-07
1.26762e-07
1.26773e-07
1.26802e-07
1.2686e-07
1.26886e-07
1.27212e-07
1.27291e-07
1.30528e-07
2.52466e-08
1.25338e-07
1.2614e-07
1.26467e-07
1.26623e-07
1.26711e-07
1.26763e-07
1.26798e-07
1.2682e-07
1.26836e-07
1.26847e-07
1.26856e-07
1.26861e-07
1.26866e-07
1.26869e-07
1.26873e-07
1.26874e-07
1.26876e-07
1.26877e-07
1.26878e-07
1.26878e-07
1.26879e-07
1.26878e-07
1.26878e-07
1.26877e-07
1.26877e-07
1.26875e-07
1.26875e-07
1.26873e-07
1.26873e-07
1.26871e-07
1.26871e-07
1.26868e-07
1.26868e-07
1.26866e-07
1.26866e-07
1.26862e-07
1.26862e-07
1.26858e-07
1.26858e-07
1.26853e-07
1.26853e-07
1.26848e-07
1.26848e-07
1.2684e-07
1.2684e-07
1.26836e-07
1.26836e-07
1.2683e-07
1.2683e-07
1.26823e-07
1.26823e-07
1.26813e-07
1.26809e-07
1.26804e-07
1.26802e-07
1.26794e-07
1.26791e-07
1.26793e-07
1.26793e-07
1.26792e-07
1.26792e-07
1.26789e-07
1.2679e-07
1.26778e-07
1.26777e-07
1.2678e-07
1.26781e-07
1.26774e-07
1.26774e-07
1.26759e-07
1.26762e-07
1.26757e-07
1.26756e-07
1.26757e-07
1.26762e-07
1.26749e-07
1.26747e-07
1.2675e-07
1.26753e-07
1.26757e-07
1.26752e-07
1.26765e-07
1.26752e-07
1.26761e-07
1.2678e-07
1.26767e-07
1.26783e-07
1.26798e-07
1.26809e-07
1.26838e-07
1.26899e-07
1.26926e-07
1.27249e-07
1.27359e-07
1.30633e-07
2.66019e-08
1.25322e-07
1.26137e-07
1.26478e-07
1.26642e-07
1.26737e-07
1.26793e-07
1.2683e-07
1.26854e-07
1.26872e-07
1.26883e-07
1.26893e-07
1.26899e-07
1.26905e-07
1.26908e-07
1.26912e-07
1.26913e-07
1.26916e-07
1.26917e-07
1.26918e-07
1.26918e-07
1.26919e-07
1.26918e-07
1.26918e-07
1.26917e-07
1.26918e-07
1.26916e-07
1.26916e-07
1.26914e-07
1.26914e-07
1.26911e-07
1.26911e-07
1.26909e-07
1.26909e-07
1.26906e-07
1.26906e-07
1.26902e-07
1.26902e-07
1.26898e-07
1.26898e-07
1.26893e-07
1.26893e-07
1.26888e-07
1.26888e-07
1.26879e-07
1.26879e-07
1.26875e-07
1.26875e-07
1.26869e-07
1.26869e-07
1.26862e-07
1.26862e-07
1.26852e-07
1.26847e-07
1.26842e-07
1.2684e-07
1.26832e-07
1.26829e-07
1.2683e-07
1.2683e-07
1.2683e-07
1.2683e-07
1.26826e-07
1.26827e-07
1.26815e-07
1.26814e-07
1.26817e-07
1.26818e-07
1.26811e-07
1.26811e-07
1.26795e-07
1.26798e-07
1.26793e-07
1.26792e-07
1.26793e-07
1.26798e-07
1.26785e-07
1.26783e-07
1.26786e-07
1.26789e-07
1.26792e-07
1.26788e-07
1.26801e-07
1.26788e-07
1.26797e-07
1.26817e-07
1.26804e-07
1.2682e-07
1.26836e-07
1.26848e-07
1.26878e-07
1.2694e-07
1.2697e-07
1.27289e-07
1.27433e-07
1.30759e-07
2.8042e-08
1.25305e-07
1.26134e-07
1.26489e-07
1.26663e-07
1.26764e-07
1.26824e-07
1.26864e-07
1.26891e-07
1.2691e-07
1.26923e-07
1.26933e-07
1.2694e-07
1.26946e-07
1.2695e-07
1.26954e-07
1.26956e-07
1.26958e-07
1.26959e-07
1.26961e-07
1.26961e-07
1.26962e-07
1.26961e-07
1.26961e-07
1.26961e-07
1.26961e-07
1.26959e-07
1.26959e-07
1.26957e-07
1.26957e-07
1.26955e-07
1.26955e-07
1.26952e-07
1.26952e-07
1.2695e-07
1.2695e-07
1.26945e-07
1.26945e-07
1.26941e-07
1.26941e-07
1.26936e-07
1.26936e-07
1.26931e-07
1.26931e-07
1.26922e-07
1.26922e-07
1.26918e-07
1.26918e-07
1.26911e-07
1.26911e-07
1.26904e-07
1.26904e-07
1.26893e-07
1.26888e-07
1.26883e-07
1.2688e-07
1.26873e-07
1.26869e-07
1.2687e-07
1.2687e-07
1.2687e-07
1.2687e-07
1.26866e-07
1.26868e-07
1.26855e-07
1.26853e-07
1.26857e-07
1.26858e-07
1.2685e-07
1.2685e-07
1.26834e-07
1.26838e-07
1.26833e-07
1.26831e-07
1.26832e-07
1.26838e-07
1.26824e-07
1.26821e-07
1.26825e-07
1.26828e-07
1.26831e-07
1.26827e-07
1.2684e-07
1.26827e-07
1.26837e-07
1.26857e-07
1.26844e-07
1.2686e-07
1.26877e-07
1.2689e-07
1.2692e-07
1.26984e-07
1.27016e-07
1.2733e-07
1.27514e-07
1.30906e-07
2.95724e-08
1.25287e-07
1.2613e-07
1.265e-07
1.26685e-07
1.26793e-07
1.26858e-07
1.26901e-07
1.2693e-07
1.2695e-07
1.26965e-07
1.26976e-07
1.26984e-07
1.26991e-07
1.26995e-07
1.26999e-07
1.27001e-07
1.27004e-07
1.27005e-07
1.27007e-07
1.27007e-07
1.27008e-07
1.27008e-07
1.27008e-07
1.27007e-07
1.27008e-07
1.27006e-07
1.27006e-07
1.27004e-07
1.27004e-07
1.27002e-07
1.27002e-07
1.26999e-07
1.26999e-07
1.26996e-07
1.26996e-07
1.26992e-07
1.26992e-07
1.26987e-07
1.26987e-07
1.26982e-07
1.26982e-07
1.26977e-07
1.26977e-07
1.26967e-07
1.26967e-07
1.26963e-07
1.26963e-07
1.26956e-07
1.26956e-07
1.26949e-07
1.26949e-07
1.26938e-07
1.26932e-07
1.26926e-07
1.26924e-07
1.26916e-07
1.26912e-07
1.26914e-07
1.26914e-07
1.26914e-07
1.26914e-07
1.2691e-07
1.26911e-07
1.26898e-07
1.26896e-07
1.269e-07
1.26901e-07
1.26893e-07
1.26893e-07
1.26877e-07
1.2688e-07
1.26875e-07
1.26872e-07
1.26875e-07
1.2688e-07
1.26865e-07
1.26862e-07
1.26867e-07
1.2687e-07
1.26873e-07
1.26869e-07
1.26882e-07
1.26869e-07
1.26879e-07
1.269e-07
1.26887e-07
1.26903e-07
1.26921e-07
1.26934e-07
1.26965e-07
1.27032e-07
1.27065e-07
1.27373e-07
1.27601e-07
1.3107e-07
3.11989e-08
1.25267e-07
1.26125e-07
1.26512e-07
1.26708e-07
1.26823e-07
1.26893e-07
1.2694e-07
1.26971e-07
1.26994e-07
1.27009e-07
1.27022e-07
1.2703e-07
1.27038e-07
1.27043e-07
1.27047e-07
1.2705e-07
1.27053e-07
1.27054e-07
1.27056e-07
1.27057e-07
1.27058e-07
1.27058e-07
1.27058e-07
1.27057e-07
1.27058e-07
1.27056e-07
1.27056e-07
1.27054e-07
1.27054e-07
1.27052e-07
1.27052e-07
1.27049e-07
1.27049e-07
1.27047e-07
1.27047e-07
1.27042e-07
1.27042e-07
1.27037e-07
1.27037e-07
1.27032e-07
1.27032e-07
1.27026e-07
1.27026e-07
1.27016e-07
1.27016e-07
1.27012e-07
1.27012e-07
1.27005e-07
1.27005e-07
1.26997e-07
1.26997e-07
1.26986e-07
1.2698e-07
1.26973e-07
1.26971e-07
1.26963e-07
1.26959e-07
1.2696e-07
1.2696e-07
1.26961e-07
1.26961e-07
1.26956e-07
1.26957e-07
1.26944e-07
1.26941e-07
1.26945e-07
1.26947e-07
1.26938e-07
1.26938e-07
1.26922e-07
1.26926e-07
1.2692e-07
1.26917e-07
1.2692e-07
1.26925e-07
1.2691e-07
1.26906e-07
1.26911e-07
1.26914e-07
1.26917e-07
1.26914e-07
1.26927e-07
1.26914e-07
1.26924e-07
1.26946e-07
1.26933e-07
1.26949e-07
1.26968e-07
1.26982e-07
1.27014e-07
1.27082e-07
1.27118e-07
1.27419e-07
1.27695e-07
1.31248e-07
3.29273e-08
1.25247e-07
1.2612e-07
1.26523e-07
1.26731e-07
1.26855e-07
1.2693e-07
1.26981e-07
1.27015e-07
1.2704e-07
1.27057e-07
1.27071e-07
1.2708e-07
1.27088e-07
1.27093e-07
1.27099e-07
1.27102e-07
1.27105e-07
1.27107e-07
1.27109e-07
1.2711e-07
1.27111e-07
1.27111e-07
1.27111e-07
1.27111e-07
1.27111e-07
1.2711e-07
1.2711e-07
1.27108e-07
1.27108e-07
1.27105e-07
1.27105e-07
1.27103e-07
1.27103e-07
1.271e-07
1.271e-07
1.27095e-07
1.27095e-07
1.2709e-07
1.2709e-07
1.27085e-07
1.27085e-07
1.27079e-07
1.27079e-07
1.27068e-07
1.27068e-07
1.27064e-07
1.27064e-07
1.27057e-07
1.27057e-07
1.27049e-07
1.27049e-07
1.27037e-07
1.2703e-07
1.27024e-07
1.27021e-07
1.27013e-07
1.27008e-07
1.27009e-07
1.27009e-07
1.2701e-07
1.2701e-07
1.27005e-07
1.27007e-07
1.26992e-07
1.2699e-07
1.26994e-07
1.26997e-07
1.26987e-07
1.26987e-07
1.2697e-07
1.26974e-07
1.26968e-07
1.26964e-07
1.26968e-07
1.26974e-07
1.26958e-07
1.26953e-07
1.26958e-07
1.26962e-07
1.26964e-07
1.26962e-07
1.26975e-07
1.26961e-07
1.26972e-07
1.26995e-07
1.26981e-07
1.26997e-07
1.27018e-07
1.27033e-07
1.27065e-07
1.27135e-07
1.27173e-07
1.27466e-07
1.27796e-07
1.31433e-07
3.47637e-08
1.25225e-07
1.26113e-07
1.26535e-07
1.26755e-07
1.26888e-07
1.26969e-07
1.27024e-07
1.27062e-07
1.27088e-07
1.27107e-07
1.27122e-07
1.27133e-07
1.27141e-07
1.27147e-07
1.27153e-07
1.27157e-07
1.2716e-07
1.27162e-07
1.27165e-07
1.27166e-07
1.27167e-07
1.27167e-07
1.27167e-07
1.27167e-07
1.27168e-07
1.27166e-07
1.27166e-07
1.27165e-07
1.27165e-07
1.27162e-07
1.27162e-07
1.27159e-07
1.27159e-07
1.27157e-07
1.27157e-07
1.27152e-07
1.27152e-07
1.27147e-07
1.27147e-07
1.27141e-07
1.27141e-07
1.27135e-07
1.27135e-07
1.27124e-07
1.27123e-07
1.27119e-07
1.27119e-07
1.27112e-07
1.27112e-07
1.27103e-07
1.27103e-07
1.27092e-07
1.27084e-07
1.27077e-07
1.27074e-07
1.27067e-07
1.27061e-07
1.27062e-07
1.27062e-07
1.27063e-07
1.27063e-07
1.27057e-07
1.2706e-07
1.27045e-07
1.27042e-07
1.27046e-07
1.27049e-07
1.27038e-07
1.27038e-07
1.27021e-07
1.27026e-07
1.2702e-07
1.27015e-07
1.27019e-07
1.27025e-07
1.27008e-07
1.27003e-07
1.27009e-07
1.27012e-07
1.27014e-07
1.27012e-07
1.27026e-07
1.27012e-07
1.27024e-07
1.27046e-07
1.27033e-07
1.27049e-07
1.27072e-07
1.27087e-07
1.27119e-07
1.27191e-07
1.27232e-07
1.27516e-07
1.27904e-07
1.31622e-07
3.67141e-08
1.25202e-07
1.26106e-07
1.26546e-07
1.2678e-07
1.26922e-07
1.2701e-07
1.2707e-07
1.2711e-07
1.2714e-07
1.2716e-07
1.27177e-07
1.27188e-07
1.27198e-07
1.27204e-07
1.27211e-07
1.27215e-07
1.27218e-07
1.27221e-07
1.27224e-07
1.27225e-07
1.27227e-07
1.27227e-07
1.27227e-07
1.27227e-07
1.27228e-07
1.27227e-07
1.27227e-07
1.27225e-07
1.27225e-07
1.27222e-07
1.27222e-07
1.2722e-07
1.2722e-07
1.27217e-07
1.27217e-07
1.27212e-07
1.27212e-07
1.27207e-07
1.27207e-07
1.27201e-07
1.27201e-07
1.27195e-07
1.27195e-07
1.27183e-07
1.27182e-07
1.27178e-07
1.27178e-07
1.2717e-07
1.2717e-07
1.27161e-07
1.27161e-07
1.2715e-07
1.27141e-07
1.27134e-07
1.2713e-07
1.27123e-07
1.27117e-07
1.27118e-07
1.27118e-07
1.27119e-07
1.27119e-07
1.27113e-07
1.27116e-07
1.271e-07
1.27097e-07
1.27101e-07
1.27105e-07
1.27093e-07
1.27093e-07
1.27076e-07
1.2708e-07
1.27074e-07
1.27068e-07
1.27074e-07
1.27079e-07
1.27062e-07
1.27056e-07
1.27062e-07
1.27066e-07
1.27067e-07
1.27066e-07
1.2708e-07
1.27066e-07
1.27078e-07
1.27101e-07
1.27088e-07
1.27103e-07
1.27128e-07
1.27144e-07
1.27177e-07
1.2725e-07
1.27294e-07
1.27568e-07
1.28019e-07
1.31817e-07
3.87851e-08
1.25178e-07
1.26097e-07
1.26557e-07
1.26806e-07
1.26957e-07
1.27052e-07
1.27117e-07
1.27161e-07
1.27193e-07
1.27216e-07
1.27234e-07
1.27246e-07
1.27257e-07
1.27265e-07
1.27271e-07
1.27276e-07
1.2728e-07
1.27283e-07
1.27286e-07
1.27288e-07
1.2729e-07
1.2729e-07
1.2729e-07
1.2729e-07
1.27292e-07
1.2729e-07
1.2729e-07
1.27289e-07
1.27289e-07
1.27286e-07
1.27286e-07
1.27284e-07
1.27284e-07
1.27281e-07
1.27281e-07
1.27276e-07
1.27276e-07
1.27271e-07
1.27271e-07
1.27265e-07
1.27265e-07
1.27258e-07
1.27258e-07
1.27245e-07
1.27244e-07
1.27241e-07
1.27241e-07
1.27232e-07
1.27232e-07
1.27223e-07
1.27223e-07
1.27211e-07
1.27202e-07
1.27194e-07
1.2719e-07
1.27183e-07
1.27176e-07
1.27177e-07
1.27177e-07
1.27178e-07
1.27179e-07
1.27171e-07
1.27175e-07
1.27158e-07
1.27155e-07
1.27159e-07
1.27163e-07
1.27151e-07
1.27151e-07
1.27133e-07
1.27138e-07
1.27131e-07
1.27125e-07
1.27131e-07
1.27137e-07
1.27119e-07
1.27112e-07
1.27119e-07
1.27123e-07
1.27124e-07
1.27123e-07
1.27137e-07
1.27122e-07
1.27135e-07
1.27159e-07
1.27146e-07
1.27161e-07
1.27187e-07
1.27204e-07
1.27237e-07
1.27312e-07
1.27359e-07
1.27623e-07
1.2814e-07
1.32016e-07
4.09821e-08
1.25153e-07
1.26087e-07
1.26568e-07
1.26831e-07
1.26993e-07
1.27096e-07
1.27166e-07
1.27214e-07
1.27249e-07
1.27274e-07
1.27294e-07
1.27308e-07
1.2732e-07
1.27328e-07
1.27335e-07
1.2734e-07
1.27345e-07
1.27348e-07
1.27352e-07
1.27354e-07
1.27356e-07
1.27356e-07
1.27356e-07
1.27357e-07
1.27359e-07
1.27357e-07
1.27357e-07
1.27356e-07
1.27356e-07
1.27354e-07
1.27354e-07
1.27351e-07
1.27351e-07
1.27349e-07
1.27349e-07
1.27343e-07
1.27343e-07
1.27338e-07
1.27338e-07
1.27331e-07
1.27332e-07
1.27325e-07
1.27325e-07
1.27311e-07
1.2731e-07
1.27306e-07
1.27306e-07
1.27298e-07
1.27298e-07
1.27288e-07
1.27288e-07
1.27276e-07
1.27266e-07
1.27257e-07
1.27253e-07
1.27247e-07
1.27238e-07
1.27239e-07
1.27239e-07
1.27241e-07
1.27241e-07
1.27233e-07
1.27237e-07
1.2722e-07
1.27216e-07
1.2722e-07
1.27225e-07
1.27212e-07
1.27212e-07
1.27194e-07
1.27199e-07
1.27192e-07
1.27184e-07
1.27192e-07
1.27198e-07
1.27179e-07
1.27171e-07
1.27178e-07
1.27182e-07
1.27183e-07
1.27182e-07
1.27197e-07
1.27182e-07
1.27196e-07
1.2722e-07
1.27207e-07
1.27222e-07
1.2725e-07
1.27267e-07
1.27301e-07
1.27377e-07
1.27427e-07
1.2768e-07
1.28268e-07
1.32219e-07
4.33105e-08
1.25127e-07
1.26076e-07
1.26577e-07
1.26857e-07
1.27031e-07
1.27142e-07
1.27217e-07
1.2727e-07
1.27308e-07
1.27335e-07
1.27357e-07
1.27372e-07
1.27385e-07
1.27394e-07
1.27403e-07
1.27408e-07
1.27413e-07
1.27417e-07
1.27421e-07
1.27423e-07
1.27426e-07
1.27426e-07
1.27426e-07
1.27428e-07
1.27429e-07
1.27428e-07
1.27428e-07
1.27427e-07
1.27427e-07
1.27424e-07
1.27424e-07
1.27422e-07
1.27422e-07
1.2742e-07
1.2742e-07
1.27414e-07
1.27414e-07
1.27408e-07
1.27408e-07
1.27402e-07
1.27402e-07
1.27395e-07
1.27395e-07
1.27381e-07
1.27379e-07
1.27376e-07
1.27376e-07
1.27367e-07
1.27367e-07
1.27356e-07
1.27356e-07