/*--------------------------------*- C++ -*----------------------------------*\
| =========                 |                                                 |
| \\      /  F ield         | OpenFOAM: The Open Source CFD Toolbox           |
|  \\    /   O peration     | Version:  v2012                                 |
|   \\  /    A nd           | Website:  www.openfoam.com                      |
|    \\/     M anipulation  |                                                 |
\*---------------------------------------------------------------------------*/
FoamFile
{
    version     2.0;
    format      ascii;
    class       volVectorField;
    location    "3.5";
    object      wallShearStress;
}
// * * * * * * * * * * * * * * * * * * * * * * * * * * * * * * * * * * * * * //

dimensions      [0 2 -2 0 0 0 0];


internalField   uniform (0 0 0);

boundaryField
{
    inlet
    {
        type            calculated;
        value           uniform (0 0 0);
    }
    outlet
    {
        type            calculated;
        value           uniform (0 0 0);
    }
    topWall
    {
        type            calculated;
        value           nonuniform List<vector> 
545
(
(5.42238e-09 -3.78562e-09 0)
(5.45108e-09 -1.07645e-08 0)
(5.3612e-09 -1.78495e-08 0)
(5.32601e-09 -2.46908e-08 0)
(5.30204e-09 -3.12097e-08 0)
(5.27904e-09 -3.74964e-08 0)
(5.2545e-09 -4.36103e-08 0)
(5.22794e-09 -4.95512e-08 0)
(5.19936e-09 -5.53052e-08 0)
(5.16895e-09 -6.08712e-08 0)
(5.13687e-09 -6.62557e-08 0)
(5.1033e-09 -7.14656e-08 0)
(5.06838e-09 -7.65047e-08 0)
(5.03227e-09 -8.13768e-08 0)
(4.99511e-09 -8.60856e-08 0)
(4.95705e-09 -9.06359e-08 0)
(4.9182e-09 -9.50318e-08 0)
(4.87868e-09 -9.92779e-08 0)
(4.8386e-09 -1.03378e-07 0)
(4.79806e-09 -1.07337e-07 0)
(4.75715e-09 -1.1116e-07 0)
(4.71596e-09 -1.14849e-07 0)
(4.67456e-09 -1.1841e-07 0)
(4.63301e-09 -1.21846e-07 0)
(4.5914e-09 -1.25161e-07 0)
(4.54977e-09 -1.2836e-07 0)
(4.50819e-09 -1.31447e-07 0)
(4.46668e-09 -1.34424e-07 0)
(4.42531e-09 -1.37296e-07 0)
(4.38409e-09 -1.40066e-07 0)
(4.34309e-09 -1.42739e-07 0)
(4.30231e-09 -1.45316e-07 0)
(4.26179e-09 -1.47802e-07 0)
(4.22154e-09 -1.50199e-07 0)
(4.18161e-09 -1.52511e-07 0)
(4.14198e-09 -1.5474e-07 0)
(4.10269e-09 -1.56891e-07 0)
(4.06373e-09 -1.58964e-07 0)
(4.02513e-09 -1.60964e-07 0)
(3.98689e-09 -1.62893e-07 0)
(3.94901e-09 -1.64753e-07 0)
(3.91149e-09 -1.66546e-07 0)
(3.87435e-09 -1.68276e-07 0)
(3.83757e-09 -1.69944e-07 0)
(3.80116e-09 -1.71553e-07 0)
(3.76511e-09 -1.73104e-07 0)
(3.72942e-09 -1.74601e-07 0)
(3.69408e-09 -1.76043e-07 0)
(3.6591e-09 -1.77435e-07 0)
(3.62444e-09 -1.78777e-07 0)
(3.59013e-09 -1.80071e-07 0)
(3.55613e-09 -1.81319e-07 0)
(3.52244e-09 -1.82523e-07 0)
(3.48906e-09 -1.83684e-07 0)
(3.45596e-09 -1.84804e-07 0)
(3.42314e-09 -1.85883e-07 0)
(3.39059e-09 -1.86924e-07 0)
(3.35828e-09 -1.87929e-07 0)
(3.32622e-09 -1.88897e-07 0)
(3.29438e-09 -1.89831e-07 0)
(3.26275e-09 -1.90731e-07 0)
(3.23131e-09 -1.91599e-07 0)
(3.20006e-09 -1.92436e-07 0)
(3.16897e-09 -1.93243e-07 0)
(3.13802e-09 -1.94022e-07 0)
(3.10721e-09 -1.94772e-07 0)
(3.07652e-09 -1.95495e-07 0)
(3.0459e-09 -1.96192e-07 0)
(3.01547e-09 -1.96866e-07 0)
(2.98465e-09 -1.97508e-07 0)
(2.95586e-09 -1.98155e-07 0)
(2.91858e-09 -1.98714e-07 0)
(2.88445e-09 -1.99279e-07 0)
(2.86481e-09 -1.99893e-07 0)
(2.84545e-09 -2.00413e-07 0)
(2.82618e-09 -2.0093e-07 0)
(2.80695e-09 -2.0146e-07 0)
(2.78776e-09 -2.01991e-07 0)
(2.76859e-09 -2.02511e-07 0)
(2.74945e-09 -2.03023e-07 0)
(2.73034e-09 -2.03529e-07 0)
(2.71126e-09 -2.0403e-07 0)
(2.6922e-09 -2.04525e-07 0)
(2.67318e-09 -2.05014e-07 0)
(2.65418e-09 -2.05498e-07 0)
(2.63521e-09 -2.05976e-07 0)
(2.61627e-09 -2.06448e-07 0)
(2.59736e-09 -2.06915e-07 0)
(2.57849e-09 -2.07377e-07 0)
(2.55963e-09 -2.07832e-07 0)
(2.54086e-09 -2.08284e-07 0)
(2.52191e-09 -2.08725e-07 0)
(2.50387e-09 -2.0918e-07 0)
(2.48211e-09 -2.09573e-07 0)
(2.47632e-09 -2.10204e-07 0)
(2.4028e-09 -2.10347e-07 0)
(2.30855e-09 -2.10554e-07 0)
(2.28773e-09 -2.11299e-07 0)
(2.27383e-09 -2.11566e-07 0)
(2.26161e-09 -2.1177e-07 0)
(2.24977e-09 -2.12065e-07 0)
(2.23798e-09 -2.12407e-07 0)
(2.22618e-09 -2.12738e-07 0)
(2.21435e-09 -2.13051e-07 0)
(2.20249e-09 -2.13361e-07 0)
(2.1906e-09 -2.13673e-07 0)
(2.17867e-09 -2.13986e-07 0)
(2.16671e-09 -2.14298e-07 0)
(2.15472e-09 -2.14608e-07 0)
(2.14269e-09 -2.14917e-07 0)
(2.13063e-09 -2.15225e-07 0)
(2.11854e-09 -2.15532e-07 0)
(2.10642e-09 -2.15838e-07 0)
(2.09426e-09 -2.16143e-07 0)
(2.08207e-09 -2.16447e-07 0)
(2.06985e-09 -2.1675e-07 0)
(2.05759e-09 -2.17052e-07 0)
(2.0453e-09 -2.17353e-07 0)
(2.03298e-09 -2.17653e-07 0)
(2.02063e-09 -2.17951e-07 0)
(2.00825e-09 -2.18249e-07 0)
(1.99583e-09 -2.18545e-07 0)
(1.98338e-09 -2.1884e-07 0)
(1.9709e-09 -2.19135e-07 0)
(1.95839e-09 -2.19427e-07 0)
(1.94584e-09 -2.19719e-07 0)
(1.93327e-09 -2.20009e-07 0)
(1.92066e-09 -2.20299e-07 0)
(1.90803e-09 -2.20587e-07 0)
(1.89536e-09 -2.20874e-07 0)
(1.88266e-09 -2.21159e-07 0)
(1.86993e-09 -2.21444e-07 0)
(1.85717e-09 -2.21727e-07 0)
(1.84437e-09 -2.22008e-07 0)
(1.83155e-09 -2.22289e-07 0)
(1.8187e-09 -2.22568e-07 0)
(1.80582e-09 -2.22846e-07 0)
(1.79291e-09 -2.23122e-07 0)
(1.77996e-09 -2.23397e-07 0)
(1.76699e-09 -2.23671e-07 0)
(1.75399e-09 -2.23944e-07 0)
(1.74096e-09 -2.24215e-07 0)
(1.7279e-09 -2.24484e-07 0)
(1.71481e-09 -2.24753e-07 0)
(1.70169e-09 -2.2502e-07 0)
(1.68855e-09 -2.25285e-07 0)
(1.67537e-09 -2.25549e-07 0)
(1.66217e-09 -2.25812e-07 0)
(1.64893e-09 -2.26072e-07 0)
(1.63567e-09 -2.26332e-07 0)
(1.62239e-09 -2.2659e-07 0)
(1.60907e-09 -2.26847e-07 0)
(1.59573e-09 -2.27102e-07 0)
(1.58236e-09 -2.27355e-07 0)
(1.56896e-09 -2.27607e-07 0)
(1.55554e-09 -2.27858e-07 0)
(1.54209e-09 -2.28107e-07 0)
(1.52861e-09 -2.28354e-07 0)
(1.5151e-09 -2.28599e-07 0)
(1.50157e-09 -2.28844e-07 0)
(1.48802e-09 -2.29086e-07 0)
(1.47444e-09 -2.29327e-07 0)
(1.46083e-09 -2.29566e-07 0)
(1.4472e-09 -2.29803e-07 0)
(1.43354e-09 -2.30039e-07 0)
(1.41986e-09 -2.30273e-07 0)
(1.40615e-09 -2.30505e-07 0)
(1.39242e-09 -2.30736e-07 0)
(1.37866e-09 -2.30965e-07 0)
(1.36488e-09 -2.31192e-07 0)
(1.35108e-09 -2.31418e-07 0)
(1.33725e-09 -2.31641e-07 0)
(1.3234e-09 -2.31863e-07 0)
(1.30953e-09 -2.32083e-07 0)
(1.29563e-09 -2.32301e-07 0)
(1.28171e-09 -2.32518e-07 0)
(1.26777e-09 -2.32732e-07 0)
(1.25381e-09 -2.32945e-07 0)
(1.23982e-09 -2.33156e-07 0)
(1.22581e-09 -2.33365e-07 0)
(1.21178e-09 -2.33572e-07 0)
(1.19774e-09 -2.33777e-07 0)
(1.18367e-09 -2.33981e-07 0)
(1.16958e-09 -2.34182e-07 0)
(1.15546e-09 -2.34381e-07 0)
(1.14133e-09 -2.34579e-07 0)
(1.12718e-09 -2.34774e-07 0)
(1.11301e-09 -2.34968e-07 0)
(1.09882e-09 -2.35159e-07 0)
(1.08462e-09 -2.35348e-07 0)
(1.07039e-09 -2.35536e-07 0)
(1.05615e-09 -2.35721e-07 0)
(1.04188e-09 -2.35904e-07 0)
(1.0276e-09 -2.36086e-07 0)
(1.01331e-09 -2.36265e-07 0)
(9.98991e-10 -2.36442e-07 0)
(9.8466e-10 -2.36617e-07 0)
(9.70312e-10 -2.36789e-07 0)
(9.55949e-10 -2.3696e-07 0)
(9.4157e-10 -2.37128e-07 0)
(9.27176e-10 -2.37295e-07 0)
(9.12766e-10 -2.37459e-07 0)
(8.98343e-10 -2.37621e-07 0)
(8.83904e-10 -2.3778e-07 0)
(8.69452e-10 -2.37938e-07 0)
(8.54987e-10 -2.38093e-07 0)
(8.40508e-10 -2.38246e-07 0)
(8.26016e-10 -2.38397e-07 0)
(8.11512e-10 -2.38545e-07 0)
(7.96996e-10 -2.38691e-07 0)
(7.82468e-10 -2.38835e-07 0)
(7.67929e-10 -2.38977e-07 0)
(7.53379e-10 -2.39116e-07 0)
(7.38819e-10 -2.39253e-07 0)
(7.24248e-10 -2.39387e-07 0)
(7.09668e-10 -2.39519e-07 0)
(6.95079e-10 -2.39649e-07 0)
(6.80481e-10 -2.39776e-07 0)
(6.65874e-10 -2.39901e-07 0)
(6.51259e-10 -2.40023e-07 0)
(6.36637e-10 -2.40143e-07 0)
(6.22008e-10 -2.40261e-07 0)
(6.07371e-10 -2.40375e-07 0)
(5.92729e-10 -2.40488e-07 0)
(5.78081e-10 -2.40598e-07 0)
(5.63428e-10 -2.40706e-07 0)
(5.48769e-10 -2.4081e-07 0)
(5.34107e-10 -2.40913e-07 0)
(5.1944e-10 -2.41013e-07 0)
(5.0477e-10 -2.4111e-07 0)
(4.90096e-10 -2.41205e-07 0)
(4.75421e-10 -2.41297e-07 0)
(4.60743e-10 -2.41386e-07 0)
(4.46063e-10 -2.41473e-07 0)
(4.31382e-10 -2.41558e-07 0)
(4.16701e-10 -2.41639e-07 0)
(4.0202e-10 -2.41718e-07 0)
(3.87339e-10 -2.41795e-07 0)
(3.72658e-10 -2.41868e-07 0)
(3.57979e-10 -2.41939e-07 0)
(3.43302e-10 -2.42007e-07 0)
(3.28627e-10 -2.42073e-07 0)
(3.13955e-10 -2.42135e-07 0)
(2.99287e-10 -2.42196e-07 0)
(2.84622e-10 -2.42253e-07 0)
(2.69962e-10 -2.42307e-07 0)
(2.55306e-10 -2.42359e-07 0)
(2.40656e-10 -2.42408e-07 0)
(2.26012e-10 -2.42454e-07 0)
(2.11374e-10 -2.42497e-07 0)
(1.96743e-10 -2.42538e-07 0)
(1.8212e-10 -2.42576e-07 0)
(1.67505e-10 -2.4261e-07 0)
(1.52898e-10 -2.42642e-07 0)
(1.383e-10 -2.42671e-07 0)
(1.23712e-10 -2.42698e-07 0)
(1.09134e-10 -2.42721e-07 0)
(9.45664e-11 -2.42742e-07 0)
(8.001e-11 -2.42759e-07 0)
(6.54655e-11 -2.42774e-07 0)
(5.09327e-11 -2.42786e-07 0)
(3.64141e-11 -2.42795e-07 0)
(2.1903e-11 -2.428e-07 0)
(7.43006e-12 -2.42805e-07 0)
(-7.13183e-12 -2.42801e-07 0)
(-2.12401e-11 -2.42812e-07 0)
(-3.71984e-11 -2.42768e-07 0)
(-4.52162e-11 -2.42947e-07 0)
(-8.68915e-11 -2.42682e-07 0)
(-1.40965e-10 -2.42496e-07 0)
(-1.57587e-10 -2.42851e-07 0)
(-1.67063e-10 -2.42794e-07 0)
(-1.74957e-10 -2.42657e-07 0)
(-1.826e-10 -2.42596e-07 0)
(-1.90315e-10 -2.42579e-07 0)
(-1.98176e-10 -2.42555e-07 0)
(-2.06196e-10 -2.42515e-07 0)
(-2.14375e-10 -2.42468e-07 0)
(-2.22715e-10 -2.42422e-07 0)
(-2.31215e-10 -2.42376e-07 0)
(-2.39873e-10 -2.42327e-07 0)
(-2.4869e-10 -2.42275e-07 0)
(-2.57663e-10 -2.42221e-07 0)
(-2.66791e-10 -2.42164e-07 0)
(-2.76073e-10 -2.42104e-07 0)
(-2.85509e-10 -2.42041e-07 0)
(-2.95096e-10 -2.41976e-07 0)
(-3.04834e-10 -2.41907e-07 0)
(-3.14721e-10 -2.41835e-07 0)
(-3.24755e-10 -2.4176e-07 0)
(-3.34936e-10 -2.41681e-07 0)
(-3.45262e-10 -2.41599e-07 0)
(-3.55731e-10 -2.41514e-07 0)
(-3.66341e-10 -2.41424e-07 0)
(-3.77092e-10 -2.41331e-07 0)
(-3.87981e-10 -2.41234e-07 0)
(-3.99007e-10 -2.41133e-07 0)
(-4.10168e-10 -2.41027e-07 0)
(-4.21462e-10 -2.40918e-07 0)
(-4.32887e-10 -2.40803e-07 0)
(-4.44442e-10 -2.40685e-07 0)
(-4.56124e-10 -2.40562e-07 0)
(-4.67932e-10 -2.40434e-07 0)
(-4.79862e-10 -2.40302e-07 0)
(-4.91914e-10 -2.40164e-07 0)
(-5.04085e-10 -2.40022e-07 0)
(-5.16373e-10 -2.39874e-07 0)
(-5.28775e-10 -2.39721e-07 0)
(-5.41289e-10 -2.39563e-07 0)
(-5.53913e-10 -2.39399e-07 0)
(-5.66644e-10 -2.3923e-07 0)
(-5.79479e-10 -2.39055e-07 0)
(-5.92417e-10 -2.38874e-07 0)
(-6.05453e-10 -2.38688e-07 0)
(-6.18586e-10 -2.38495e-07 0)
(-6.31813e-10 -2.38296e-07 0)
(-6.45129e-10 -2.38091e-07 0)
(-6.58534e-10 -2.37879e-07 0)
(-6.72023e-10 -2.37661e-07 0)
(-6.85593e-10 -2.37436e-07 0)
(-6.99241e-10 -2.37205e-07 0)
(-7.12964e-10 -2.36966e-07 0)
(-7.26759e-10 -2.3672e-07 0)
(-7.40621e-10 -2.36468e-07 0)
(-7.54547e-10 -2.36207e-07 0)
(-7.68534e-10 -2.3594e-07 0)
(-7.82577e-10 -2.35665e-07 0)
(-7.96673e-10 -2.35382e-07 0)
(-8.10818e-10 -2.35091e-07 0)
(-8.25008e-10 -2.34792e-07 0)
(-8.39238e-10 -2.34484e-07 0)
(-8.53505e-10 -2.34169e-07 0)
(-8.67803e-10 -2.33845e-07 0)
(-8.8213e-10 -2.33512e-07 0)
(-8.96479e-10 -2.33171e-07 0)
(-9.10846e-10 -2.3282e-07 0)
(-9.25227e-10 -2.3246e-07 0)
(-9.39617e-10 -2.32091e-07 0)
(-9.5401e-10 -2.31713e-07 0)
(-9.68402e-10 -2.31325e-07 0)
(-9.82787e-10 -2.30927e-07 0)
(-9.9716e-10 -2.30519e-07 0)
(-1.01152e-09 -2.301e-07 0)
(-1.02585e-09 -2.29672e-07 0)
(-1.04015e-09 -2.29233e-07 0)
(-1.05443e-09 -2.28784e-07 0)
(-1.06866e-09 -2.28323e-07 0)
(-1.08284e-09 -2.27852e-07 0)
(-1.09698e-09 -2.2737e-07 0)
(-1.11105e-09 -2.26876e-07 0)
(-1.12506e-09 -2.26371e-07 0)
(-1.13901e-09 -2.25854e-07 0)
(-1.15287e-09 -2.25325e-07 0)
(-1.16665e-09 -2.24784e-07 0)
(-1.18035e-09 -2.24232e-07 0)
(-1.19394e-09 -2.23667e-07 0)
(-1.20744e-09 -2.23089e-07 0)
(-1.22082e-09 -2.22499e-07 0)
(-1.23409e-09 -2.21897e-07 0)
(-1.24724e-09 -2.21281e-07 0)
(-1.26025e-09 -2.20652e-07 0)
(-1.27313e-09 -2.2001e-07 0)
(-1.28586e-09 -2.19355e-07 0)
(-1.29844e-09 -2.18686e-07 0)
(-1.31086e-09 -2.18004e-07 0)
(-1.32311e-09 -2.17308e-07 0)
(-1.33519e-09 -2.16598e-07 0)
(-1.34709e-09 -2.15874e-07 0)
(-1.3588e-09 -2.15136e-07 0)
(-1.37031e-09 -2.14383e-07 0)
(-1.38162e-09 -2.13617e-07 0)
(-1.39272e-09 -2.12835e-07 0)
(-1.4036e-09 -2.12039e-07 0)
(-1.41425e-09 -2.11229e-07 0)
(-1.42467e-09 -2.10404e-07 0)
(-1.43484e-09 -2.09563e-07 0)
(-1.44477e-09 -2.08708e-07 0)
(-1.45444e-09 -2.07838e-07 0)
(-1.46385e-09 -2.06953e-07 0)
(-1.47299e-09 -2.06052e-07 0)
(-1.48184e-09 -2.05136e-07 0)
(-1.49041e-09 -2.04205e-07 0)
(-1.49869e-09 -2.03259e-07 0)
(-1.50667e-09 -2.02297e-07 0)
(-1.51433e-09 -2.0132e-07 0)
(-1.52169e-09 -2.00328e-07 0)
(-1.52872e-09 -1.9932e-07 0)
(-1.53542e-09 -1.98296e-07 0)
(-1.54179e-09 -1.97257e-07 0)
(-1.54782e-09 -1.96203e-07 0)
(-1.5535e-09 -1.95134e-07 0)
(-1.55883e-09 -1.94049e-07 0)
(-1.5638e-09 -1.92948e-07 0)
(-1.5684e-09 -1.91833e-07 0)
(-1.57263e-09 -1.90702e-07 0)
(-1.57649e-09 -1.89556e-07 0)
(-1.57997e-09 -1.88395e-07 0)
(-1.58306e-09 -1.87219e-07 0)
(-1.58575e-09 -1.86028e-07 0)
(-1.58806e-09 -1.84823e-07 0)
(-1.58996e-09 -1.83603e-07 0)
(-1.59147e-09 -1.82368e-07 0)
(-1.59256e-09 -1.81119e-07 0)
(-1.59325e-09 -1.79856e-07 0)
(-1.59352e-09 -1.78579e-07 0)
(-1.59338e-09 -1.77288e-07 0)
(-1.59282e-09 -1.75983e-07 0)
(-1.59183e-09 -1.74664e-07 0)
(-1.59043e-09 -1.73333e-07 0)
(-1.58859e-09 -1.71988e-07 0)
(-1.58633e-09 -1.70631e-07 0)
(-1.58365e-09 -1.69261e-07 0)
(-1.58053e-09 -1.67879e-07 0)
(-1.57698e-09 -1.66484e-07 0)
(-1.57301e-09 -1.65078e-07 0)
(-1.5686e-09 -1.63661e-07 0)
(-1.56376e-09 -1.62232e-07 0)
(-1.55849e-09 -1.60792e-07 0)
(-1.55279e-09 -1.59342e-07 0)
(-1.54667e-09 -1.57882e-07 0)
(-1.54011e-09 -1.56412e-07 0)
(-1.53313e-09 -1.54933e-07 0)
(-1.52573e-09 -1.53444e-07 0)
(-1.51792e-09 -1.51947e-07 0)
(-1.50968e-09 -1.50442e-07 0)
(-1.50104e-09 -1.48929e-07 0)
(-1.49198e-09 -1.47408e-07 0)
(-1.48253e-09 -1.45881e-07 0)
(-1.47269e-09 -1.44346e-07 0)
(-1.46246e-09 -1.42806e-07 0)
(-1.45184e-09 -1.41261e-07 0)
(-1.44086e-09 -1.3971e-07 0)
(-1.42951e-09 -1.38154e-07 0)
(-1.4178e-09 -1.36595e-07 0)
(-1.40575e-09 -1.35031e-07 0)
(-1.39336e-09 -1.33464e-07 0)
(-1.38064e-09 -1.31895e-07 0)
(-1.3676e-09 -1.30323e-07 0)
(-1.35425e-09 -1.28749e-07 0)
(-1.34061e-09 -1.27175e-07 0)
(-1.32667e-09 -1.25599e-07 0)
(-1.31245e-09 -1.24023e-07 0)
(-1.29797e-09 -1.22448e-07 0)
(-1.28323e-09 -1.20873e-07 0)
(-1.26824e-09 -1.19299e-07 0)
(-1.253e-09 -1.1773e-07 0)
(-1.23756e-09 -1.16149e-07 0)
(-1.22183e-09 -1.14612e-07 0)
(-1.20615e-09 -1.12902e-07 0)
(-1.18912e-09 -1.1153e-07 0)
(-1.16623e-09 -1.09924e-07 0)
(-1.1419e-09 -1.07776e-07 0)
(-1.12107e-09 -1.05977e-07 0)
(-1.10116e-09 -1.04253e-07 0)
(-1.08155e-09 -1.02502e-07 0)
(-1.06209e-09 -1.00752e-07 0)
(-1.04274e-09 -9.90386e-08 0)
(-1.02352e-09 -9.73675e-08 0)
(-1.00443e-09 -9.57296e-08 0)
(-9.85497e-10 -9.41202e-08 0)
(-9.66728e-10 -9.254e-08 0)
(-9.48132e-10 -9.09903e-08 0)
(-9.2972e-10 -8.94708e-08 0)
(-9.11502e-10 -8.79813e-08 0)
(-8.93482e-10 -8.65209e-08 0)
(-8.75671e-10 -8.50896e-08 0)
(-8.5807e-10 -8.36867e-08 0)
(-8.40689e-10 -8.23125e-08 0)
(-8.23528e-10 -8.09659e-08 0)
(-8.06593e-10 -7.96472e-08 0)
(-7.89884e-10 -7.83555e-08 0)
(-7.73406e-10 -7.70909e-08 0)
(-7.57157e-10 -7.58525e-08 0)
(-7.41141e-10 -7.46405e-08 0)
(-7.25353e-10 -7.3454e-08 0)
(-7.098e-10 -7.22932e-08 0)
(-6.94472e-10 -7.11569e-08 0)
(-6.79379e-10 -7.00457e-08 0)
(-6.64507e-10 -6.89582e-08 0)
(-6.49867e-10 -6.78952e-08 0)
(-6.35444e-10 -6.68551e-08 0)
(-6.21249e-10 -6.58387e-08 0)
(-6.07267e-10 -6.48446e-08 0)
(-5.93506e-10 -6.38734e-08 0)
(-5.79954e-10 -6.29239e-08 0)
(-5.66618e-10 -6.19966e-08 0)
(-5.53485e-10 -6.10902e-08 0)
(-5.40561e-10 -6.02054e-08 0)
(-5.27835e-10 -5.93409e-08 0)
(-5.15312e-10 -5.84973e-08 0)
(-5.02981e-10 -5.76733e-08 0)
(-4.90846e-10 -5.68696e-08 0)
(-4.78896e-10 -5.60849e-08 0)
(-4.67137e-10 -5.53199e-08 0)
(-4.55556e-10 -5.45733e-08 0)
(-4.44157e-10 -5.38457e-08 0)
(-4.3293e-10 -5.31361e-08 0)
(-4.21878e-10 -5.24448e-08 0)
(-4.10992e-10 -5.17711e-08 0)
(-4.00271e-10 -5.1115e-08 0)
(-3.89709e-10 -5.0476e-08 0)
(-3.79305e-10 -4.98541e-08 0)
(-3.69052e-10 -4.92487e-08 0)
(-3.58949e-10 -4.866e-08 0)
(-3.48989e-10 -4.80873e-08 0)
(-3.3917e-10 -4.75308e-08 0)
(-3.29487e-10 -4.69899e-08 0)
(-3.19936e-10 -4.64647e-08 0)
(-3.10513e-10 -4.59546e-08 0)
(-3.01214e-10 -4.54599e-08 0)
(-2.92034e-10 -4.49799e-08 0)
(-2.82972e-10 -4.45149e-08 0)
(-2.74019e-10 -4.40641e-08 0)
(-2.65177e-10 -4.36281e-08 0)
(-2.56435e-10 -4.32058e-08 0)
(-2.47797e-10 -4.27981e-08 0)
(-2.39252e-10 -4.24037e-08 0)
(-2.30803e-10 -4.20235e-08 0)
(-2.22439e-10 -4.16564e-08 0)
(-2.14163e-10 -4.13032e-08 0)
(-2.05967e-10 -4.0963e-08 0)
(-1.97849e-10 -4.06361e-08 0)
(-1.89803e-10 -4.03222e-08 0)
(-1.81828e-10 -4.00213e-08 0)
(-1.73919e-10 -3.97331e-08 0)
(-1.66072e-10 -3.94577e-08 0)
(-1.58281e-10 -3.91949e-08 0)
(-1.50545e-10 -3.89447e-08 0)
(-1.42857e-10 -3.87068e-08 0)
(-1.35215e-10 -3.84816e-08 0)
(-1.27613e-10 -3.82683e-08 0)
(-1.20048e-10 -3.80677e-08 0)
(-1.12515e-10 -3.78789e-08 0)
(-1.05015e-10 -3.77027e-08 0)
(-9.75438e-11 -3.75381e-08 0)
(-9.01057e-11 -3.73863e-08 0)
(-8.27035e-11 -3.72453e-08 0)
(-7.53522e-11 -3.71197e-08 0)
(-6.80511e-11 -3.69948e-08 0)
(-6.08695e-11 -3.69179e-08 0)
(-5.36132e-11 -3.67301e-08 0)
(-4.70371e-11 -3.69444e-08 0)
(-3.79791e-11 -3.57746e-08 0)
(-3.88225e-11 -3.86468e-08 0)
(-2.2931e-11 -3.36988e-08 0)
)
;
    }
    bottomWall
    {
        type            calculated;
        value           nonuniform List<vector> 
449
(
(-48.6571 -0.965618 0)
(-19.8934 -0.00513022 0)
(-14.6732 -0.00106942 0)
(-12.657 -0.000457566 0)
(-11.5938 -0.000255658 0)
(-10.9435 -0.000163064 0)
(-10.5027 -0.00011366 0)
(-10.1823 -8.41618e-05 0)
(-9.93794 -6.49954e-05 0)
(-9.74535 -5.1663e-05 0)
(-9.59012 -4.18894e-05 0)
(-9.46298 -3.44663e-05 0)
(-9.3575 -2.87168e-05 0)
(-9.26895 -2.41911e-05 0)
(-9.19387 -2.05852e-05 0)
(-9.12958 -1.76777e-05 0)
(-9.07408 -1.53029e-05 0)
(-9.0258 -1.33458e-05 0)
(-8.98352 -1.17102e-05 0)
(-8.94629 -1.03366e-05 0)
(-8.9133 -9.16943e-06 0)
(-8.88397 -8.16883e-06 0)
(-8.85775 -7.3075e-06 0)
(-8.83424 -6.56153e-06 0)
(-8.81306 -5.91391e-06 0)
(-8.79394 -5.34403e-06 0)
(-8.77662 -4.84488e-06 0)
(-8.76087 -4.40207e-06 0)
(-8.74655 -4.01223e-06 0)
(-8.73344 -3.66531e-06 0)
(-8.72147 -3.34603e-06 0)
(-8.71052 -3.07685e-06 0)
(-8.70038 -2.83694e-06 0)
(-8.69106 -2.59834e-06 0)
(-8.68252 -2.39531e-06 0)
(-8.67457 -2.22944e-06 0)
(-8.66719 -2.05733e-06 0)
(-8.6604 -1.90081e-06 0)
(-8.65406 -1.76715e-06 0)
(-8.64819 -1.63245e-06 0)
(-8.64276 -1.52672e-06 0)
(-8.63762 -1.42296e-06 0)
(-8.6329 -1.30752e-06 0)
(-8.62851 -1.23481e-06 0)
(-8.6243 -1.16646e-06 0)
(-8.6204 -1.08697e-06 0)
(-8.6167 -1.02877e-06 0)
(-8.61321 -9.59381e-07 0)
(-8.61001 -8.90231e-07 0)
(-8.60697 -8.3747e-07 0)
(-8.60412 -7.76971e-07 0)
(-8.6015 -7.28734e-07 0)
(-8.59897 -7.06791e-07 0)
(-8.59652 -6.66836e-07 0)
(-8.59427 -6.16859e-07 0)
(-8.59214 -5.95549e-07 0)
(-8.59005 -5.66483e-07 0)
(-8.58811 -5.29822e-07 0)
(-8.58627 -5.08724e-07 0)
(-8.58449 -4.81372e-07 0)
(-8.58285 -4.45411e-07 0)
(-8.58131 -4.248e-07 0)
(-8.5798 -4.13597e-07 0)
(-8.57835 -3.87279e-07 0)
(-8.57702 -3.5381e-07 0)
(-8.57578 -3.37435e-07 0)
(-8.57456 -3.33362e-07 0)
(-8.57336 -3.22942e-07 0)
(-8.57222 -3.05842e-07 0)
(-8.57115 -2.88833e-07 0)
(-8.57012 -2.77245e-07 0)
(-8.56913 -2.61902e-07 0)
(-8.56822 -2.47982e-07 0)
(-8.56731 -2.39684e-07 0)
(-8.56645 -2.26396e-07 0)
(-8.56564 -2.1764e-07 0)
(-8.56484 -2.18018e-07 0)
(-8.56402 -2.15265e-07 0)
(-8.56326 -1.87048e-07 0)
(-8.56264 -1.62844e-07 0)
(-8.56201 -1.84229e-07 0)
(-8.56125 -1.92128e-07 0)
(-8.5606 -1.65479e-07 0)
(-8.56002 -1.62368e-07 0)
(-8.55938 -1.63561e-07 0)
(-8.55881 -1.31489e-07 0)
(-8.55839 -1.15236e-07 0)
(-8.5579 -1.43719e-07 0)
(-8.55728 -1.52963e-07 0)
(-8.55676 -1.33037e-07 0)
(-8.55628 -1.27998e-07 0)
(-8.55579 -1.20263e-07 0)
(-8.55537 -1.05017e-07 0)
(-8.55497 -1.05214e-07 0)
(-8.55454 -1.11006e-07 0)
(-8.55411 -1.01677e-07 0)
(-8.55376 -9.56716e-08 0)
(-8.55337 -1.09807e-07 0)
(-8.55292 -1.03937e-07 0)
(-8.55257 -7.99864e-08 0)
(-8.55228 -8.06817e-08 0)
(-8.55192 -9.56969e-08 0)
(-8.55153 -9.56064e-08 0)
(-8.55117 -8.8104e-08 0)
(-8.55084 -7.85064e-08 0)
(-8.55056 -6.94914e-08 0)
(-8.55029 -7.43321e-08 0)
(-8.54997 -6.66091e-08 0)
(-8.54974 -5.73495e-08 0)
(-8.54949 -7.1553e-08 0)
(-8.54916 -7.20101e-08 0)
(-8.54891 -5.95596e-08 0)
(-8.54866 -6.46604e-08 0)
(-8.54837 -7.16735e-08 0)
(-8.54809 -6.40004e-08 0)
(-8.54786 -5.0244e-08 0)
(-8.54767 -5.29265e-08 0)
(-8.54741 -6.48631e-08 0)
(-8.54714 -6.04509e-08 0)
(-8.54692 -5.598e-08 0)
(-8.54668 -5.64791e-08 0)
(-8.54645 -5.53925e-08 0)
(-8.54622 -5.93407e-08 0)
(-8.54598 -4.55927e-08 0)
(-8.54585 -2.51025e-08 0)
(-8.54574 -3.84853e-08 0)
(-8.5455 -5.97388e-08 0)
(-8.54524 -5.72711e-08 0)
(-8.54503 -4.92254e-08 0)
(-8.54483 -4.11405e-08 0)
(-8.54467 -3.93566e-08 0)
(-8.54448 -4.95272e-08 0)
(-8.54426 -4.0184e-08 0)
(-8.54413 -3.16907e-08 0)
(-8.54396 -4.47817e-08 0)
(-8.54375 -3.9603e-08 0)
(-8.54362 -3.35242e-08 0)
(-8.54345 -4.27688e-08 0)
(-8.54325 -3.74007e-08 0)
(-8.54311 -3.38937e-08 0)
(-8.54294 -3.957e-08 0)
(-8.54277 -3.42063e-08 0)
(-8.54264 -3.01038e-08 0)
(-8.54249 -3.38683e-08 0)
(-8.54233 -3.91793e-08 0)
(-8.54215 -4.47949e-08 0)
(-8.54195 -3.3846e-08 0)
(-8.54185 -2.61599e-08 0)
(-8.5417 -3.81209e-08 0)
(-8.54151 -3.15407e-08 0)
(-8.54142 -2.0448e-08 0)
(-8.54131 -3.05078e-08 0)
(-8.54114 -3.24274e-08 0)
(-8.541 -2.91105e-08 0)
(-8.54086 -3.45086e-08 0)
(-8.54069 -3.33375e-08 0)
(-8.54055 -2.97568e-08 0)
(-8.54042 -2.79431e-08 0)
(-8.54029 -2.81529e-08 0)
(-8.54015 -2.96232e-08 0)
(-8.54002 -2.95541e-08 0)
(-8.53988 -3.10294e-08 0)
(-8.53974 -2.40031e-08 0)
(-8.53965 -2.16344e-08 0)
(-8.53952 -3.146e-08 0)
(-8.53936 -2.44165e-08 0)
(-8.53929 -1.97406e-08 0)
(-8.53917 -3.02187e-08 0)
(-8.53901 -2.24179e-08 0)
(-8.53895 -1.70224e-08 0)
(-8.53884 -2.11864e-08 0)
(-8.53876 -1.70766e-08 0)
(-8.53866 1.46036e-09 0)
(-8.53876 2.29726e-08 0)
(-8.53891 3.97508e-08 0)
(-8.53917 5.50921e-08 0)
(-8.53945 5.00466e-08 0)
(-8.53964 2.19441e-08 0)
(-8.53966 -2.25187e-09 0)
(-8.53961 -1.45598e-08 0)
(-8.53952 -2.7672e-08 0)
(-8.53936 -3.00707e-08 0)
(-8.53922 -3.3494e-08 0)
(-8.53901 -4.6096e-08 0)
(-8.53876 -4.63967e-08 0)
(-8.53854 -4.59657e-08 0)
(-8.53828 -5.63717e-08 0)
(-8.53797 -5.51882e-08 0)
(-8.5377 -5.31497e-08 0)
(-8.53739 -6.14586e-08 0)
(-8.53705 -5.96192e-08 0)
(-8.53674 -5.71168e-08 0)
(-8.53642 -6.30676e-08 0)
(-8.53605 -6.25726e-08 0)
(-8.53572 -5.99045e-08 0)
(-8.53538 -6.08121e-08 0)
(-8.53503 -6.1721e-08 0)
(-8.53466 -6.33663e-08 0)
(-8.53429 -6.10007e-08 0)
(-8.53395 -5.95054e-08 0)
(-8.53358 -6.32347e-08 0)
(-8.5332 -6.03177e-08 0)
(-8.53285 -5.74562e-08 0)
(-8.53249 -6.12618e-08 0)
(-8.5321 -5.8965e-08 0)
(-8.53175 -5.58852e-08 0)
(-8.53139 -5.86289e-08 0)
(-8.531 -5.64304e-08 0)
(-8.53066 -5.38024e-08 0)
(-8.53029 -5.6104e-08 0)
(-8.52992 -5.43702e-08 0)
(-8.52957 -5.23958e-08 0)
(-8.52921 -5.37443e-08 0)
(-8.52884 -5.20815e-08 0)
(-8.52849 -5.1016e-08 0)
(-8.52813 -5.16776e-08 0)
(-8.52777 -4.97563e-08 0)
(-8.52743 -4.88464e-08 0)
(-8.52707 -4.83911e-08 0)
(-8.52673 -4.66657e-08 0)
(-8.52639 -4.66248e-08 0)
(-8.52604 -4.5423e-08 0)
(-8.52571 -4.37515e-08 0)
(-8.52537 -4.45089e-08 0)
(-8.52503 -4.30432e-08 0)
(-8.52471 -4.1191e-08 0)
(-8.52438 -4.22376e-08 0)
(-8.52405 -4.07738e-08 0)
(-8.52373 -3.90836e-08 0)
(-8.52341 -3.98591e-08 0)
(-8.52309 -3.83889e-08 0)
(-8.52278 -3.72104e-08 0)
(-8.52247 -3.74397e-08 0)
(-8.52215 -3.60918e-08 0)
(-8.52186 -3.51208e-08 0)
(-8.52155 -3.46226e-08 0)
(-8.52125 -3.36444e-08 0)
(-8.52096 -3.34506e-08 0)
(-8.52066 -3.25997e-08 0)
(-8.52037 -3.17307e-08 0)
(-8.52008 -3.19403e-08 0)
(-8.51979 -3.05432e-08 0)
(-8.51952 -2.94549e-08 0)
(-8.51924 -3.0137e-08 0)
(-8.51895 -2.90245e-08 0)
(-8.51869 -2.77466e-08 0)
(-8.51842 -2.82391e-08 0)
(-8.51814 -2.71754e-08 0)
(-8.51788 -2.58809e-08 0)
(-8.51762 -2.63453e-08 0)
(-8.51735 -2.56626e-08 0)
(-8.5171 -2.44857e-08 0)
(-8.51685 -2.43437e-08 0)
(-8.51659 -2.36939e-08 0)
(-8.51635 -2.30486e-08 0)
(-8.5161 -2.30384e-08 0)
(-8.51585 -2.23747e-08 0)
(-8.51561 -2.15921e-08 0)
(-8.51538 -2.15895e-08 0)
(-8.51514 -2.10402e-08 0)
(-8.5149 -2.03719e-08 0)
(-8.51467 -2.03122e-08 0)
(-8.51444 -1.98123e-08 0)
(-8.51422 -1.92522e-08 0)
(-8.51399 -1.89713e-08 0)
(-8.51377 -1.83272e-08 0)
(-8.51355 -1.76846e-08 0)
(-8.51334 -1.74708e-08 0)
(-8.51313 -1.71226e-08 0)
(-8.51292 -1.66081e-08 0)
(-8.51271 -1.64299e-08 0)
(-8.5125 -1.62884e-08 0)
(-8.5123 -1.5681e-08 0)
(-8.5121 -1.5219e-08 0)
(-8.5119 -1.51752e-08 0)
(-8.5117 -1.45463e-08 0)
(-8.51151 -1.39966e-08 0)
(-8.51132 -1.41961e-08 0)
(-8.51112 -1.36963e-08 0)
(-8.51094 -1.31459e-08 0)
(-8.51076 -1.33032e-08 0)
(-8.51057 -1.27947e-08 0)
(-8.51039 -1.2302e-08 0)
(-8.51021 -1.24568e-08 0)
(-8.51003 -1.20203e-08 0)
(-8.50986 -1.16117e-08 0)
(-8.50969 -1.17864e-08 0)
(-8.50951 -1.1315e-08 0)
(-8.50934 -1.0808e-08 0)
(-8.50918 -1.0899e-08 0)
(-8.50901 -1.0475e-08 0)
(-8.50885 -1.00378e-08 0)
(-8.50869 -1.01337e-08 0)
(-8.50852 -9.81597e-09 0)
(-8.50837 -9.45923e-09 0)
(-8.50821 -9.49764e-09 0)
(-8.50806 -9.16597e-09 0)
(-8.50791 -8.87275e-09 0)
(-8.50776 -8.93783e-09 0)
(-8.5076 -8.63205e-09 0)
(-8.50746 -8.29645e-09 0)
(-8.50731 -8.30468e-09 0)
(-8.50716 -8.0352e-09 0)
(-8.50702 -7.73035e-09 0)
(-8.50688 -7.71498e-09 0)
(-8.50674 -7.4854e-09 0)
(-8.50661 -7.24076e-09 0)
(-8.50647 -7.22171e-09 0)
(-8.50634 -6.99252e-09 0)
(-8.50621 -6.75618e-09 0)
(-8.50608 -6.76967e-09 0)
(-8.50594 -6.52739e-09 0)
(-8.50582 -6.28947e-09 0)
(-8.50569 -6.30921e-09 0)
(-8.50557 -6.12161e-09 0)
(-8.50544 -5.94854e-09 0)
(-8.50532 -5.93774e-09 0)
(-8.5052 -5.73004e-09 0)
(-8.50508 -5.54609e-09 0)
(-8.50496 -5.49811e-09 0)
(-8.50484 -5.32859e-09 0)
(-8.50473 -5.21996e-09 0)
(-8.50462 -5.14601e-09 0)
(-8.5045 -4.97688e-09 0)
(-8.50439 -4.8953e-09 0)
(-8.50428 -4.77317e-09 0)
(-8.50417 -4.61368e-09 0)
(-8.50407 -4.6128e-09 0)
(-8.50396 -4.48726e-09 0)
(-8.50385 -4.31335e-09 0)
(-8.50375 -4.30541e-09 0)
(-8.50365 -4.16588e-09 0)
(-8.50355 -4.03483e-09 0)
(-8.50345 -4.03438e-09 0)
(-8.50335 -3.87595e-09 0)
(-8.50325 -3.75584e-09 0)
(-8.50315 -3.80302e-09 0)
(-8.50306 -3.67904e-09 0)
(-8.50296 -3.5153e-09 0)
(-8.50287 -3.5041e-09 0)
(-8.50278 -3.3913e-09 0)
(-8.50269 -3.29009e-09 0)
(-8.5026 -3.33432e-09 0)
(-8.5025 -3.2477e-09 0)
(-8.50241 -3.10589e-09 0)
(-8.50233 -3.08162e-09 0)
(-8.50224 -3.00148e-09 0)
(-8.50215 -2.94516e-09 0)
(-8.50207 -2.91984e-09 0)
(-8.50198 -2.82329e-09 0)
(-8.5019 -2.75864e-09 0)
(-8.50182 -2.86543e-09 0)
(-8.50173 -2.2649e-09 0)
(-8.50168 -8.44588e-09 0)
(-8.50113 -1.28305e-08 0)
(-8.50073 -7.9563e-09 0)
(-8.50052 -4.29453e-09 0)
(-8.50041 -2.37652e-09 0)
(-8.50034 -1.50529e-09 0)
(-8.5003 -1.05252e-09 0)
(-8.50026 -7.55233e-10 0)
(-8.50024 -6.04934e-10 0)
(-8.50022 -4.83473e-10 0)
(-8.50021 -3.48627e-10 0)
(-8.5002 -2.89309e-10 0)
(-8.50019 -2.69796e-10 0)
(-8.50018 -2.33229e-10 0)
(-8.50017 -1.7115e-10 0)
(-8.50017 -1.31099e-10 0)
(-8.50016 -1.27095e-10 0)
(-8.50016 -1.41083e-10 0)
(-8.50015 -1.18242e-10 0)
(-8.50015 -8.20801e-11 0)
(-8.50015 -1.11091e-10 0)
(-8.50014 -8.48403e-11 0)
(-8.50014 -2.11235e-11 0)
(-8.50014 -3.26631e-11 0)
(-8.50014 -3.19431e-11 0)
(-8.50014 -5.92694e-11 0)
(-8.50014 -6.6522e-11 0)
(-8.50013 -8.53765e-12 0)
(-8.50013 -3.88464e-11 0)
(-8.50013 -5.24155e-11 0)
(-8.50013 -1.88415e-11 0)
(-8.50013 -4.13969e-11 0)
(-8.50013 -1.65901e-11 0)
(-8.50013 3.35248e-11 0)
(-8.50013 -3.00215e-11 0)
(-8.50013 -4.31751e-11 0)
(-8.50013 1.1811e-11 0)
(-8.50013 -4.65621e-11 0)
(-8.50012 -3.18975e-11 0)
(-8.50013 5.47014e-11 0)
(-8.50013 2.09618e-11 0)
(-8.50013 -2.99874e-11 0)
(-8.50013 -5.20429e-11 0)
(-8.50012 -8.92311e-12 0)
(-8.50013 5.6347e-11 0)
(-8.50013 2.52136e-11 0)
(-8.50013 -1.30112e-11 0)
(-8.50013 -2.38063e-11 0)
(-8.50013 -9.88866e-12 0)
(-8.50013 -2.69336e-11 0)
(-8.50012 -3.26717e-11 0)
(-8.50012 2.09561e-11 0)
(-8.50013 2.02258e-11 0)
(-8.50013 4.65997e-12 0)
(-8.50013 -2.45492e-11 0)
(-8.50012 -3.4565e-11 0)
(-8.50012 8.61993e-12 0)
(-8.50012 2.3234e-11 0)
(-8.50013 -5.464e-14 0)
(-8.50012 -1.18502e-11 0)
(-8.50012 1.22858e-11 0)
(-8.50013 -8.3555e-12 0)
(-8.50012 -3.65676e-11 0)
(-8.50012 -3.24556e-12 0)
(-8.50012 -1.29216e-11 0)
(-8.50012 -1.78488e-11 0)
(-8.50012 2.54262e-11 0)
(-8.50012 9.0156e-12 0)
(-8.50012 -2.17549e-12 0)
(-8.50012 1.17488e-11 0)
(-8.50012 1.35743e-11 0)
(-8.50013 2.7279e-11 0)
(-8.50013 1.76881e-11 0)
(-8.50013 6.12584e-12 0)
(-8.50013 -1.27899e-12 0)
(-8.50013 -2.24561e-11 0)
(-8.50012 -5.12908e-11 0)
(-8.50012 -2.32648e-11 0)
(-8.50012 2.98343e-11 0)
(-8.50012 -1.84809e-11 0)
(-8.50012 -2.09456e-11 0)
(-8.50012 2.13374e-11 0)
(-8.50012 -1.33213e-11 0)
(-8.50012 -1.24433e-11 0)
(-8.50012 7.74493e-12 0)
(-8.50012 1.21773e-12 0)
(-8.50012 1.10707e-11 0)
(-8.50012 7.47286e-12 0)
(-8.50012 -2.64057e-11 0)
(-8.50012 -5.97194e-12 0)
(-8.50012 1.40293e-11 0)
(-8.50012 -2.45096e-11 0)
(-8.50012 -4.7423e-11 0)
(-8.50012 1.02462e-10 0)
(-8.50013 2.2842e-11 0)
(-8.50012 -1.53943e-10 0)
)
;
    }
    symmetry
    {
        type            symmetryPlane;
    }
    frontAndBack
    {
        type            empty;
    }
}


// ************************************************************************* //
