/*--------------------------------*- C++ -*----------------------------------*\
| =========                 |                                                 |
| \\      /  F ield         | OpenFOAM: The Open Source CFD Toolbox           |
|  \\    /   O peration     | Version:  v2012                                 |
|   \\  /    A nd           | Website:  www.openfoam.com                      |
|    \\/     M anipulation  |                                                 |
\*---------------------------------------------------------------------------*/
FoamFile
{
    version     2.0;
    format      ascii;
    class       volScalarField;
    location    "3.5";
    object      yPlus;
}
// * * * * * * * * * * * * * * * * * * * * * * * * * * * * * * * * * * * * * //

dimensions      [0 0 0 0 0 0 0];


internalField   uniform 0;

boundaryField
{
    inlet
    {
        type            calculated;
        value           uniform 0;
    }
    outlet
    {
        type            calculated;
        value           uniform 0;
    }
    topWall
    {
        type            calculated;
        value           nonuniform List<scalar> 
545
(
0.0423867
0.0739621
0.0946557
0.111034
0.124871
0.136957
0.147732
0.15747
0.166358
0.174532
0.182093
0.189121
0.195677
0.201814
0.207572
0.212989
0.218095
0.222915
0.227473
0.231789
0.235881
0.239764
0.243454
0.246962
0.2503
0.253479
0.256509
0.259398
0.262155
0.264787
0.267302
0.269705
0.272002
0.274199
0.276302
0.278315
0.280242
0.282089
0.283858
0.285553
0.28718
0.288739
0.290235
0.29167
0.293047
0.29437
0.295639
0.296859
0.29803
0.299155
0.300236
0.301275
0.302274
0.303234
0.304157
0.305044
0.305897
0.306718
0.307507
0.308267
0.308997
0.3097
0.310376
0.311026
0.311652
0.312254
0.312833
0.313391
0.313927
0.314444
0.31494
0.315419
0.31587
0.316305
0.316734
0.317158
0.317576
0.31799
0.318398
0.318801
0.319198
0.319591
0.319978
0.320361
0.320739
0.321112
0.32148
0.321843
0.322202
0.322556
0.322905
0.323251
0.323591
0.323927
0.324258
0.324589
0.324868
0.325115
0.325362
0.325607
0.325851
0.326095
0.326337
0.326579
0.326819
0.327059
0.327298
0.327536
0.327773
0.328009
0.328244
0.328479
0.328712
0.328944
0.329176
0.329406
0.329635
0.329864
0.330091
0.330318
0.330543
0.330768
0.330991
0.331213
0.331435
0.331655
0.331874
0.332092
0.33231
0.332526
0.332741
0.332955
0.333167
0.333379
0.33359
0.333799
0.334008
0.334215
0.334421
0.334626
0.33483
0.335032
0.335234
0.335434
0.335633
0.335832
0.336028
0.336224
0.336418
0.336612
0.336803
0.336994
0.337184
0.337372
0.337559
0.337745
0.337929
0.338112
0.338294
0.338475
0.338654
0.338832
0.339009
0.339185
0.339359
0.339531
0.339703
0.339873
0.340041
0.340209
0.340375
0.340539
0.340702
0.340864
0.341025
0.341184
0.341341
0.341497
0.341652
0.341805
0.341957
0.342107
0.342256
0.342403
0.342549
0.342694
0.342836
0.342978
0.343118
0.343256
0.343393
0.343528
0.343662
0.343794
0.343924
0.344053
0.344181
0.344306
0.34443
0.344553
0.344674
0.344793
0.344911
0.345027
0.345141
0.345254
0.345365
0.345474
0.345582
0.345688
0.345792
0.345895
0.345996
0.346095
0.346192
0.346288
0.346382
0.346474
0.346564
0.346653
0.34674
0.346825
0.346908
0.346989
0.347069
0.347146
0.347222
0.347296
0.347368
0.347439
0.347507
0.347574
0.347638
0.347701
0.347762
0.347821
0.347878
0.347933
0.347986
0.348037
0.348086
0.348134
0.348179
0.348222
0.348264
0.348303
0.34834
0.348376
0.348409
0.348441
0.34847
0.348497
0.348522
0.348546
0.348566
0.348586
0.348603
0.348618
0.34863
0.348641
0.34865
0.348657
0.348661
0.348663
0.348664
0.348662
0.348658
0.348651
0.348645
0.348627
0.348607
0.348585
0.348562
0.348537
0.348512
0.348484
0.348456
0.348425
0.348394
0.34836
0.348325
0.348288
0.348249
0.348208
0.348165
0.34812
0.348074
0.348024
0.347973
0.347919
0.347863
0.347804
0.347743
0.347678
0.347612
0.347542
0.347469
0.347393
0.347315
0.347233
0.347148
0.347059
0.346967
0.346872
0.346773
0.34667
0.346564
0.346454
0.34634
0.346222
0.3461
0.345974
0.345843
0.345708
0.345569
0.345425
0.345277
0.345124
0.344966
0.344803
0.344635
0.344462
0.344284
0.3441
0.343911
0.343717
0.343517
0.343311
0.343099
0.342881
0.342657
0.342427
0.34219
0.341947
0.341698
0.341441
0.341178
0.340907
0.340629
0.340344
0.340052
0.339752
0.339444
0.339129
0.338805
0.338473
0.338133
0.337784
0.337427
0.337061
0.336686
0.336302
0.335908
0.335506
0.335093
0.334671
0.33424
0.333798
0.333346
0.332884
0.332411
0.331928
0.331434
0.330929
0.330413
0.329885
0.329346
0.328796
0.328234
0.32766
0.327074
0.326476
0.325866
0.325243
0.324608
0.323959
0.323298
0.322624
0.321937
0.321236
0.320522
0.319795
0.319054
0.318298
0.317529
0.316746
0.315949
0.315137
0.314311
0.313471
0.312616
0.311746
0.310862
0.309962
0.309048
0.308119
0.307174
0.306215
0.30524
0.30425
0.303244
0.302224
0.301187
0.300136
0.299069
0.297986
0.296888
0.295775
0.294646
0.293501
0.292341
0.291166
0.289975
0.288769
0.287548
0.286311
0.285059
0.283792
0.28251
0.281214
0.279902
0.278576
0.277235
0.27588
0.274511
0.273128
0.271731
0.27032
0.268895
0.267458
0.266007
0.264543
0.263067
0.261578
0.260078
0.258565
0.257041
0.255505
0.253958
0.2524
0.250833
0.249254
0.247666
0.246069
0.244462
0.242847
0.241223
0.239591
0.237951
0.236304
0.234466
0.232465
0.230484
0.228522
0.226578
0.224652
0.222745
0.220857
0.218988
0.217139
0.215309
0.2135
0.21171
0.20994
0.20819
0.206461
0.204752
0.203064
0.201397
0.19975
0.198124
0.196519
0.194934
0.193371
0.191828
0.190306
0.188805
0.187325
0.185865
0.184427
0.18301
0.181613
0.180237
0.178883
0.177548
0.176235
0.174942
0.173671
0.17242
0.17119
0.16998
0.168792
0.167623
0.166476
0.165349
0.164243
0.163157
0.162092
0.161048
0.160024
0.15902
0.158037
0.157075
0.156133
0.155212
0.154311
0.15343
0.15257
0.15173
0.150911
0.150112
0.149334
0.148576
0.147839
0.147121
0.146425
0.145749
0.145094
0.144459
0.143845
0.143251
0.142679
0.142126
0.141595
0.141084
0.140595
0.140126
0.139678
0.139251
0.138845
0.13846
0.138097
0.137754
0.137433
0.137133
0.136855
0.136598
0.136363
0.136149
0.135957
0.135785
0.135636
0.135503
0.135407
0.135269
)
;
    }
    bottomWall
    {
        type            calculated;
        value           nonuniform List<scalar> 
449
(
0.139632
0.0892805
0.0766769
0.0712142
0.0681577
0.0662187
0.0648712
0.063874
0.063103
0.0624886
0.0619889
0.0615766
0.0612325
0.0609421
0.0606948
0.0604822
0.0602981
0.0601374
0.0599964
0.059872
0.0597615
0.0596631
0.0595749
0.0594958
0.0594245
0.05936
0.0593015
0.0592483
0.0591998
0.0591554
0.0591149
0.0590778
0.0590434
0.0590117
0.0589828
0.0589557
0.0589306
0.0589076
0.058886
0.058866
0.0588475
0.05883
0.058814
0.058799
0.0587847
0.0587713
0.0587587
0.0587469
0.0587359
0.0587256
0.0587158
0.0587069
0.0586983
0.0586899
0.0586822
0.0586749
0.0586678
0.0586612
0.0586549
0.0586488
0.0586432
0.058638
0.0586328
0.0586278
0.0586233
0.0586191
0.0586149
0.0586108
0.0586069
0.0586032
0.0585997
0.0585963
0.0585932
0.0585901
0.0585872
0.0585844
0.0585817
0.0585789
0.0585763
0.0585742
0.058572
0.0585694
0.0585671
0.0585652
0.058563
0.058561
0.0585596
0.0585579
0.0585558
0.058554
0.0585524
0.0585507
0.0585493
0.0585479
0.0585464
0.058545
0.0585437
0.0585424
0.0585409
0.0585397
0.0585387
0.0585375
0.0585361
0.0585349
0.0585338
0.0585328
0.0585319
0.0585308
0.05853
0.0585291
0.058528
0.0585271
0.0585263
0.0585253
0.0585243
0.0585236
0.0585229
0.058522
0.0585211
0.0585203
0.0585195
0.0585187
0.0585179
0.0585171
0.0585167
0.0585163
0.0585155
0.0585146
0.0585139
0.0585132
0.0585127
0.058512
0.0585112
0.0585108
0.0585102
0.0585095
0.058509
0.0585085
0.0585078
0.0585073
0.0585067
0.0585061
0.0585057
0.0585052
0.0585046
0.058504
0.0585033
0.058503
0.0585025
0.0585018
0.0585015
0.0585011
0.0585005
0.0585001
0.0584996
0.058499
0.0584985
0.0584981
0.0584976
0.0584972
0.0584967
0.0584962
0.0584957
0.0584954
0.058495
0.0584945
0.0584942
0.0584938
0.0584933
0.0584931
0.0584927
0.0584924
0.0584921
0.0584924
0.0584929
0.0584938
0.0584948
0.0584954
0.0584955
0.0584953
0.058495
0.0584945
0.058494
0.0584933
0.0584924
0.0584916
0.0584907
0.0584897
0.0584888
0.0584877
0.0584865
0.0584855
0.0584844
0.0584831
0.058482
0.0584808
0.0584796
0.0584784
0.0584771
0.0584759
0.0584747
0.0584733
0.0584722
0.0584709
0.0584696
0.0584684
0.0584671
0.0584658
0.0584646
0.0584634
0.0584621
0.0584609
0.0584597
0.0584584
0.0584572
0.058456
0.0584547
0.0584536
0.0584524
0.0584512
0.05845
0.0584488
0.0584477
0.0584465
0.0584453
0.0584442
0.0584431
0.058442
0.0584409
0.0584398
0.0584387
0.0584376
0.0584366
0.0584355
0.0584345
0.0584334
0.0584324
0.0584314
0.0584304
0.0584294
0.0584284
0.0584274
0.0584265
0.0584255
0.0584245
0.0584236
0.0584227
0.0584217
0.0584208
0.0584199
0.058419
0.0584182
0.0584173
0.0584164
0.0584156
0.0584147
0.0584139
0.0584131
0.0584123
0.0584114
0.0584106
0.0584098
0.058409
0.0584083
0.0584075
0.0584067
0.058406
0.0584053
0.0584045
0.0584038
0.0584031
0.0584024
0.0584017
0.058401
0.0584003
0.0583996
0.058399
0.0583983
0.0583977
0.058397
0.0583964
0.0583958
0.0583952
0.0583945
0.0583939
0.0583933
0.0583927
0.0583921
0.0583916
0.058391
0.0583904
0.0583899
0.0583893
0.0583887
0.0583882
0.0583877
0.0583871
0.0583866
0.0583861
0.0583856
0.0583851
0.0583846
0.0583841
0.0583836
0.0583831
0.0583826
0.0583822
0.0583817
0.0583812
0.0583808
0.0583803
0.0583799
0.0583795
0.058379
0.0583786
0.0583782
0.0583778
0.0583773
0.0583769
0.0583765
0.0583761
0.0583757
0.0583753
0.0583749
0.0583746
0.0583742
0.0583738
0.0583735
0.0583731
0.0583727
0.0583724
0.058372
0.0583717
0.0583713
0.058371
0.0583706
0.0583703
0.05837
0.0583697
0.0583693
0.058369
0.0583687
0.0583684
0.0583681
0.0583678
0.0583675
0.0583672
0.0583669
0.0583666
0.0583663
0.058366
0.0583657
0.0583654
0.0583653
0.0583634
0.058362
0.0583613
0.0583609
0.0583607
0.0583605
0.0583604
0.0583603
0.0583602
0.0583602
0.0583602
0.0583601
0.0583601
0.0583601
0.0583601
0.05836
0.05836
0.05836
0.05836
0.05836
0.05836
0.05836
0.05836
0.05836
0.05836
0.05836
0.05836
0.05836
0.0583599
0.0583599
0.0583599
0.0583599
0.0583599
0.0583599
0.0583599
0.0583599
0.0583599
0.0583599
0.0583599
0.0583599
0.0583599
0.0583599
0.0583599
0.0583599
0.0583599
0.0583599
0.0583599
0.0583599
0.0583599
0.0583599
0.0583599
0.0583599
0.0583599
0.0583599
0.0583599
0.0583599
0.0583599
0.0583599
0.0583599
0.0583599
0.0583599
0.0583599
0.0583599
0.0583599
0.0583599
0.0583599
0.0583599
0.0583599
0.0583599
0.0583599
0.0583599
0.0583599
0.0583599
0.0583599
0.0583599
0.0583599
0.0583599
0.0583599
0.0583599
0.0583599
0.0583599
0.0583599
0.0583599
0.0583599
0.0583599
0.0583599
0.0583599
0.0583599
0.0583599
0.0583599
0.0583599
0.0583599
0.0583599
0.0583599
0.0583599
)
;
    }
    symmetry
    {
        type            symmetryPlane;
    }
    frontAndBack
    {
        type            empty;
    }
}


// ************************************************************************* //
