/*--------------------------------*- C++ -*----------------------------------*\
| =========                 |                                                 |
| \\      /  F ield         | OpenFOAM: The Open Source CFD Toolbox           |
|  \\    /   O peration     | Version:  v2012                                 |
|   \\  /    A nd           | Website:  www.openfoam.com                      |
|    \\/     M anipulation  |                                                 |
\*---------------------------------------------------------------------------*/
FoamFile
{
    version     2.0;
    format      ascii;
    class       volScalarField;
    location    "56.5";
    object      nut;
}
// * * * * * * * * * * * * * * * * * * * * * * * * * * * * * * * * * * * * * //

dimensions      [0 2 -1 0 0 0 0];


internalField   nonuniform List<scalar> 
209825
(
1.2414e-07
1.23528e-07
1.2223e-07
1.19282e-07
1.14705e-07
1.09083e-07
1.03048e-07
9.70634e-08
9.13924e-08
8.61666e-08
8.14149e-08
7.71401e-08
7.32965e-08
6.98594e-08
6.67692e-08
6.40044e-08
6.15067e-08
5.92658e-08
5.72278e-08
5.53941e-08
5.37139e-08
5.2198e-08
5.07981e-08
4.9533e-08
4.83547e-08
4.72892e-08
4.62874e-08
4.53827e-08
4.45239e-08
4.37495e-08
4.30071e-08
4.23404e-08
4.1694e-08
4.11162e-08
4.05494e-08
4.00461e-08
3.9546e-08
3.91055e-08
3.86619e-08
3.82751e-08
3.78798e-08
3.75388e-08
3.71849e-08
3.68829e-08
3.65639e-08
3.62963e-08
3.60083e-08
3.57702e-08
3.55085e-08
3.52973e-08
3.50585e-08
3.48697e-08
3.4652e-08
3.44831e-08
3.42852e-08
3.41324e-08
3.39502e-08
3.3815e-08
3.36463e-08
3.35254e-08
3.3371e-08
3.32609e-08
3.31186e-08
3.30184e-08
3.2888e-08
3.27954e-08
3.26769e-08
3.25919e-08
3.24812e-08
3.24031e-08
3.23008e-08
3.22303e-08
3.21368e-08
3.20739e-08
3.1985e-08
3.19245e-08
3.18373e-08
3.17788e-08
3.16928e-08
3.1636e-08
3.15515e-08
3.14958e-08
3.1411e-08
3.13561e-08
3.12721e-08
3.12179e-08
3.11357e-08
3.10839e-08
3.10021e-08
3.09518e-08
3.08707e-08
3.08193e-08
3.07302e-08
3.10191e-08
3.14592e-06
2.72413e-08
1.2414e-07
1.23528e-07
1.2223e-07
1.19283e-07
1.14706e-07
1.09085e-07
1.0305e-07
9.70656e-08
9.13948e-08
8.61691e-08
8.14173e-08
7.71426e-08
7.32989e-08
6.98616e-08
6.67714e-08
6.40064e-08
6.15086e-08
5.92677e-08
5.72296e-08
5.53957e-08
5.37155e-08
5.21995e-08
5.07995e-08
4.95343e-08
4.8356e-08
4.72904e-08
4.62885e-08
4.53838e-08
4.45249e-08
4.37505e-08
4.3008e-08
4.23412e-08
4.16949e-08
4.1117e-08
4.05501e-08
4.00469e-08
3.95467e-08
3.91061e-08
3.86625e-08
3.82757e-08
3.78803e-08
3.75394e-08
3.71854e-08
3.68833e-08
3.65644e-08
3.62968e-08
3.60088e-08
3.57706e-08
3.55088e-08
3.52976e-08
3.50589e-08
3.487e-08
3.46523e-08
3.44834e-08
3.42855e-08
3.41326e-08
3.39504e-08
3.38153e-08
3.36465e-08
3.35256e-08
3.33712e-08
3.32611e-08
3.31188e-08
3.30186e-08
3.28881e-08
3.27956e-08
3.2677e-08
3.2592e-08
3.24813e-08
3.24032e-08
3.23009e-08
3.22304e-08
3.21369e-08
3.2074e-08
3.19851e-08
3.19246e-08
3.18374e-08
3.17788e-08
3.16929e-08
3.1636e-08
3.15515e-08
3.14959e-08
3.1411e-08
3.13561e-08
3.12721e-08
3.1218e-08
3.11357e-08
3.1084e-08
3.10021e-08
3.09518e-08
3.08707e-08
3.08193e-08
3.07302e-08
3.10193e-08
3.1454e-06
2.74339e-08
1.2414e-07
1.23528e-07
1.22231e-07
1.19285e-07
1.14711e-07
1.09092e-07
1.03058e-07
9.7075e-08
9.14047e-08
8.61791e-08
8.14273e-08
7.71523e-08
7.33082e-08
6.98706e-08
6.67799e-08
6.40145e-08
6.15163e-08
5.92749e-08
5.72364e-08
5.54021e-08
5.37216e-08
5.22052e-08
5.08049e-08
4.95394e-08
4.83607e-08
4.72949e-08
4.62928e-08
4.53878e-08
4.45287e-08
4.37541e-08
4.30114e-08
4.23445e-08
4.16979e-08
4.11199e-08
4.05529e-08
4.00495e-08
3.95491e-08
3.91085e-08
3.86648e-08
3.82778e-08
3.78823e-08
3.75413e-08
3.71872e-08
3.68851e-08
3.6566e-08
3.62983e-08
3.60102e-08
3.5772e-08
3.55102e-08
3.52989e-08
3.50601e-08
3.48712e-08
3.46533e-08
3.44845e-08
3.42864e-08
3.41335e-08
3.39513e-08
3.38161e-08
3.36473e-08
3.35263e-08
3.33719e-08
3.32617e-08
3.31194e-08
3.30191e-08
3.28886e-08
3.27961e-08
3.26775e-08
3.25925e-08
3.24817e-08
3.24036e-08
3.23012e-08
3.22307e-08
3.21372e-08
3.20742e-08
3.19853e-08
3.19248e-08
3.18376e-08
3.1779e-08
3.1693e-08
3.16362e-08
3.15516e-08
3.14959e-08
3.14111e-08
3.13562e-08
3.12722e-08
3.1218e-08
3.11357e-08
3.1084e-08
3.10021e-08
3.09518e-08
3.08706e-08
3.08192e-08
3.07301e-08
3.10196e-08
3.1424e-06
2.76753e-08
1.2414e-07
1.23527e-07
1.22232e-07
1.19289e-07
1.14719e-07
1.09103e-07
1.03072e-07
9.70908e-08
9.14214e-08
8.6196e-08
8.1444e-08
7.71685e-08
7.33239e-08
6.98856e-08
6.67942e-08
6.4028e-08
6.15291e-08
5.9287e-08
5.72478e-08
5.54129e-08
5.37317e-08
5.22147e-08
5.08139e-08
4.95479e-08
4.83688e-08
4.73025e-08
4.63e-08
4.53946e-08
4.45352e-08
4.37602e-08
4.30172e-08
4.23499e-08
4.17031e-08
4.11248e-08
4.05575e-08
4.00539e-08
3.95533e-08
3.91125e-08
3.86685e-08
3.82814e-08
3.78857e-08
3.75445e-08
3.71902e-08
3.6888e-08
3.65688e-08
3.6301e-08
3.60127e-08
3.57744e-08
3.55124e-08
3.53011e-08
3.50621e-08
3.48731e-08
3.46552e-08
3.44862e-08
3.42881e-08
3.41351e-08
3.39528e-08
3.38175e-08
3.36486e-08
3.35276e-08
3.33731e-08
3.32629e-08
3.31204e-08
3.30201e-08
3.28896e-08
3.2797e-08
3.26783e-08
3.25932e-08
3.24824e-08
3.24043e-08
3.23018e-08
3.22313e-08
3.21377e-08
3.20747e-08
3.19858e-08
3.19252e-08
3.1838e-08
3.17793e-08
3.16933e-08
3.16364e-08
3.15518e-08
3.14961e-08
3.14113e-08
3.13564e-08
3.12723e-08
3.12181e-08
3.11357e-08
3.1084e-08
3.10021e-08
3.09517e-08
3.08705e-08
3.08191e-08
3.073e-08
3.102e-08
3.1373e-06
2.79385e-08
1.24139e-07
1.23527e-07
1.22233e-07
1.19295e-07
1.14731e-07
1.0912e-07
1.03092e-07
9.71132e-08
9.14449e-08
8.62198e-08
8.14676e-08
7.71916e-08
7.33461e-08
6.99068e-08
6.68144e-08
6.40472e-08
6.15472e-08
5.93041e-08
5.7264e-08
5.54281e-08
5.37461e-08
5.22283e-08
5.08267e-08
4.956e-08
4.83802e-08
4.73133e-08
4.63101e-08
4.54042e-08
4.45443e-08
4.37688e-08
4.30253e-08
4.23576e-08
4.17104e-08
4.11317e-08
4.05641e-08
4.00601e-08
3.95593e-08
3.91181e-08
3.86739e-08
3.82865e-08
3.78906e-08
3.75491e-08
3.71946e-08
3.68921e-08
3.65727e-08
3.63047e-08
3.60163e-08
3.57778e-08
3.55156e-08
3.53041e-08
3.5065e-08
3.48759e-08
3.46578e-08
3.44887e-08
3.42904e-08
3.41374e-08
3.39549e-08
3.38195e-08
3.36505e-08
3.35294e-08
3.33748e-08
3.32645e-08
3.31219e-08
3.30215e-08
3.28909e-08
3.27982e-08
3.26795e-08
3.25943e-08
3.24834e-08
3.24053e-08
3.23027e-08
3.22321e-08
3.21385e-08
3.20754e-08
3.19864e-08
3.19258e-08
3.18385e-08
3.17798e-08
3.16938e-08
3.16368e-08
3.15521e-08
3.14964e-08
3.14115e-08
3.13566e-08
3.12725e-08
3.12183e-08
3.11358e-08
3.10841e-08
3.10021e-08
3.09517e-08
3.08705e-08
3.0819e-08
3.07299e-08
3.10206e-08
3.13014e-06
2.82106e-08
1.24139e-07
1.23526e-07
1.22235e-07
1.19303e-07
1.14746e-07
1.09141e-07
1.03118e-07
9.71421e-08
9.14754e-08
8.62508e-08
8.14983e-08
7.72214e-08
7.33749e-08
6.99343e-08
6.68406e-08
6.4072e-08
6.15707e-08
5.93263e-08
5.7285e-08
5.54479e-08
5.37648e-08
5.22459e-08
5.08434e-08
4.95757e-08
4.8395e-08
4.73272e-08
4.63233e-08
4.54167e-08
4.45561e-08
4.378e-08
4.30359e-08
4.23677e-08
4.172e-08
4.11408e-08
4.05727e-08
4.00683e-08
3.9567e-08
3.91254e-08
3.86809e-08
3.82931e-08
3.78969e-08
3.75551e-08
3.72003e-08
3.68976e-08
3.65779e-08
3.63096e-08
3.60209e-08
3.57822e-08
3.55198e-08
3.53081e-08
3.50688e-08
3.48795e-08
3.46612e-08
3.4492e-08
3.42935e-08
3.41403e-08
3.39577e-08
3.38222e-08
3.3653e-08
3.35317e-08
3.3377e-08
3.32666e-08
3.31239e-08
3.30234e-08
3.28927e-08
3.27999e-08
3.2681e-08
3.25958e-08
3.24848e-08
3.24066e-08
3.23039e-08
3.22332e-08
3.21395e-08
3.20764e-08
3.19873e-08
3.19266e-08
3.18392e-08
3.17805e-08
3.16943e-08
3.16374e-08
3.15526e-08
3.14969e-08
3.14119e-08
3.1357e-08
3.12727e-08
3.12186e-08
3.1136e-08
3.10842e-08
3.10021e-08
3.09518e-08
3.08704e-08
3.0819e-08
3.07298e-08
3.10215e-08
3.12098e-06
2.84864e-08
1.24139e-07
1.23524e-07
1.22237e-07
1.19312e-07
1.14764e-07
1.09167e-07
1.03151e-07
9.71779e-08
9.15131e-08
8.6289e-08
8.15362e-08
7.72583e-08
7.34105e-08
6.99684e-08
6.6873e-08
6.41028e-08
6.15998e-08
5.93538e-08
5.73109e-08
5.54724e-08
5.37879e-08
5.22677e-08
5.08639e-08
4.95951e-08
4.84133e-08
4.73446e-08
4.63397e-08
4.54322e-08
4.45708e-08
4.37939e-08
4.30491e-08
4.23802e-08
4.17318e-08
4.1152e-08
4.05833e-08
4.00784e-08
3.95766e-08
3.91346e-08
3.86895e-08
3.83014e-08
3.79047e-08
3.75625e-08
3.72074e-08
3.69043e-08
3.65843e-08
3.63157e-08
3.60267e-08
3.57877e-08
3.55251e-08
3.53131e-08
3.50735e-08
3.4884e-08
3.46655e-08
3.4496e-08
3.42974e-08
3.4144e-08
3.39611e-08
3.38255e-08
3.36561e-08
3.35347e-08
3.33798e-08
3.32692e-08
3.31264e-08
3.30258e-08
3.28949e-08
3.2802e-08
3.2683e-08
3.25977e-08
3.24865e-08
3.24082e-08
3.23054e-08
3.22347e-08
3.21408e-08
3.20776e-08
3.19884e-08
3.19277e-08
3.18402e-08
3.17814e-08
3.16951e-08
3.16381e-08
3.15532e-08
3.14974e-08
3.14124e-08
3.13575e-08
3.12731e-08
3.1219e-08
3.11362e-08
3.10844e-08
3.10022e-08
3.09519e-08
3.08704e-08
3.0819e-08
3.07297e-08
3.10225e-08
3.1099e-06
2.87653e-08
1.24138e-07
1.23523e-07
1.2224e-07
1.19324e-07
1.14786e-07
1.09199e-07
1.03189e-07
9.72205e-08
9.15581e-08
8.63346e-08
8.15814e-08
7.73024e-08
7.34531e-08
7.00091e-08
6.69118e-08
6.41395e-08
6.16346e-08
5.93866e-08
5.7342e-08
5.55017e-08
5.38155e-08
5.22937e-08
5.08885e-08
4.96183e-08
4.84353e-08
4.73653e-08
4.63593e-08
4.54507e-08
4.45883e-08
4.38105e-08
4.30648e-08
4.23951e-08
4.17459e-08
4.11654e-08
4.05961e-08
4.00905e-08
3.95881e-08
3.91455e-08
3.86999e-08
3.83112e-08
3.79141e-08
3.75715e-08
3.72159e-08
3.69124e-08
3.6592e-08
3.6323e-08
3.60337e-08
3.57943e-08
3.55314e-08
3.53191e-08
3.50792e-08
3.48894e-08
3.46706e-08
3.45009e-08
3.4302e-08
3.41484e-08
3.39653e-08
3.38294e-08
3.36598e-08
3.35383e-08
3.33832e-08
3.32724e-08
3.31294e-08
3.30287e-08
3.28976e-08
3.28045e-08
3.26854e-08
3.25999e-08
3.24886e-08
3.24102e-08
3.23073e-08
3.22364e-08
3.21424e-08
3.20791e-08
3.19898e-08
3.1929e-08
3.18413e-08
3.17825e-08
3.16961e-08
3.1639e-08
3.15539e-08
3.14982e-08
3.1413e-08
3.13581e-08
3.12736e-08
3.12195e-08
3.11365e-08
3.10847e-08
3.10024e-08
3.0952e-08
3.08703e-08
3.0819e-08
3.07296e-08
3.10238e-08
3.09698e-06
2.90498e-08
1.24138e-07
1.23521e-07
1.22242e-07
1.19337e-07
1.14811e-07
1.09235e-07
1.03233e-07
9.72701e-08
9.16104e-08
8.63877e-08
8.16342e-08
7.73538e-08
7.35027e-08
7.00565e-08
6.6957e-08
6.41824e-08
6.16753e-08
5.9425e-08
5.73783e-08
5.55359e-08
5.38478e-08
5.23242e-08
5.09173e-08
4.96455e-08
4.8461e-08
4.73895e-08
4.63823e-08
4.54724e-08
4.46089e-08
4.383e-08
4.30833e-08
4.24126e-08
4.17625e-08
4.11812e-08
4.0611e-08
4.01047e-08
3.96016e-08
3.91583e-08
3.87121e-08
3.83228e-08
3.79251e-08
3.7582e-08
3.72258e-08
3.69219e-08
3.6601e-08
3.63316e-08
3.60419e-08
3.58021e-08
3.55388e-08
3.53262e-08
3.50859e-08
3.48958e-08
3.46767e-08
3.45067e-08
3.43075e-08
3.41536e-08
3.39702e-08
3.38341e-08
3.36643e-08
3.35425e-08
3.33871e-08
3.32762e-08
3.3133e-08
3.3032e-08
3.29008e-08
3.28076e-08
3.26882e-08
3.26026e-08
3.24911e-08
3.24126e-08
3.23095e-08
3.22385e-08
3.21443e-08
3.2081e-08
3.19914e-08
3.19305e-08
3.18427e-08
3.17838e-08
3.16972e-08
3.16401e-08
3.15548e-08
3.1499e-08
3.14138e-08
3.13588e-08
3.12741e-08
3.12201e-08
3.11369e-08
3.10851e-08
3.10026e-08
3.09522e-08
3.08704e-08
3.0819e-08
3.07295e-08
3.10255e-08
3.08231e-06
2.93449e-08
1.24137e-07
1.23519e-07
1.22246e-07
1.19351e-07
1.1484e-07
1.09276e-07
1.03284e-07
9.73268e-08
9.16703e-08
8.64486e-08
8.16945e-08
7.74127e-08
7.35595e-08
7.01109e-08
6.70089e-08
6.42316e-08
6.17219e-08
5.9469e-08
5.74199e-08
5.55751e-08
5.38849e-08
5.23592e-08
5.09504e-08
4.96767e-08
4.84904e-08
4.74174e-08
4.64087e-08
4.54974e-08
4.46325e-08
4.38523e-08
4.31045e-08
4.24327e-08
4.17816e-08
4.11993e-08
4.06282e-08
4.0121e-08
3.96171e-08
3.91731e-08
3.87261e-08
3.83362e-08
3.79378e-08
3.7594e-08
3.72373e-08
3.69328e-08
3.66114e-08
3.63416e-08
3.60513e-08
3.58111e-08
3.55473e-08
3.53343e-08
3.50937e-08
3.49032e-08
3.46837e-08
3.45134e-08
3.43138e-08
3.41597e-08
3.39759e-08
3.38396e-08
3.36694e-08
3.35474e-08
3.33918e-08
3.32806e-08
3.31371e-08
3.3036e-08
3.29045e-08
3.28111e-08
3.26915e-08
3.26058e-08
3.24941e-08
3.24154e-08
3.2312e-08
3.22409e-08
3.21465e-08
3.20831e-08
3.19934e-08
3.19324e-08
3.18444e-08
3.17854e-08
3.16986e-08
3.16414e-08
3.15559e-08
3.15001e-08
3.14147e-08
3.13598e-08
3.12749e-08
3.12209e-08
3.11374e-08
3.10856e-08
3.10029e-08
3.09525e-08
3.08704e-08
3.08191e-08
3.07295e-08
3.10275e-08
3.06599e-06
2.96571e-08
1.24136e-07
1.23517e-07
1.22249e-07
1.19368e-07
1.14872e-07
1.09323e-07
1.03341e-07
9.73908e-08
9.17378e-08
8.65172e-08
8.17627e-08
7.74792e-08
7.36238e-08
7.01724e-08
6.70675e-08
6.42872e-08
6.17746e-08
5.95189e-08
5.7467e-08
5.56196e-08
5.39269e-08
5.23988e-08
5.09878e-08
4.9712e-08
4.85239e-08
4.7449e-08
4.64386e-08
4.55256e-08
4.46593e-08
4.38777e-08
4.31286e-08
4.24555e-08
4.18033e-08
4.12198e-08
4.06477e-08
4.01395e-08
3.96347e-08
3.91898e-08
3.87421e-08
3.83513e-08
3.79522e-08
3.76078e-08
3.72504e-08
3.69453e-08
3.66232e-08
3.63529e-08
3.6062e-08
3.58214e-08
3.5557e-08
3.53436e-08
3.51025e-08
3.49116e-08
3.46917e-08
3.4521e-08
3.4321e-08
3.41666e-08
3.39825e-08
3.38458e-08
3.36753e-08
3.3553e-08
3.33971e-08
3.32856e-08
3.31419e-08
3.30405e-08
3.29087e-08
3.28151e-08
3.26952e-08
3.26094e-08
3.24974e-08
3.24186e-08
3.2315e-08
3.22437e-08
3.21491e-08
3.20855e-08
3.19956e-08
3.19345e-08
3.18463e-08
3.17872e-08
3.17002e-08
3.16429e-08
3.15572e-08
3.15013e-08
3.14158e-08
3.13608e-08
3.12757e-08
3.12218e-08
3.1138e-08
3.10862e-08
3.10033e-08
3.09528e-08
3.08706e-08
3.08192e-08
3.07295e-08
3.10298e-08
3.04815e-06
2.99945e-08
1.24135e-07
1.23515e-07
1.22253e-07
1.19386e-07
1.14908e-07
1.09374e-07
1.03405e-07
9.7462e-08
9.18131e-08
8.65938e-08
8.18389e-08
7.75535e-08
7.36956e-08
7.02413e-08
6.71331e-08
6.43495e-08
6.18337e-08
5.95747e-08
5.75198e-08
5.56694e-08
5.3974e-08
5.24432e-08
5.10298e-08
4.97516e-08
4.85614e-08
4.74844e-08
4.64721e-08
4.55574e-08
4.46894e-08
4.39062e-08
4.31556e-08
4.24811e-08
4.18276e-08
4.12429e-08
4.06697e-08
4.01604e-08
3.96545e-08
3.92087e-08
3.876e-08
3.83684e-08
3.79684e-08
3.76232e-08
3.72651e-08
3.69593e-08
3.66366e-08
3.63656e-08
3.60741e-08
3.58329e-08
3.5568e-08
3.53541e-08
3.51124e-08
3.49211e-08
3.47007e-08
3.45296e-08
3.43292e-08
3.41744e-08
3.39898e-08
3.38528e-08
3.3682e-08
3.35593e-08
3.3403e-08
3.32913e-08
3.31473e-08
3.30456e-08
3.29135e-08
3.28197e-08
3.26995e-08
3.26135e-08
3.25012e-08
3.24222e-08
3.23184e-08
3.22469e-08
3.21521e-08
3.20884e-08
3.19982e-08
3.19369e-08
3.18485e-08
3.17893e-08
3.17021e-08
3.16447e-08
3.15587e-08
3.15028e-08
3.14171e-08
3.13621e-08
3.12768e-08
3.12229e-08
3.11388e-08
3.10869e-08
3.10038e-08
3.09533e-08
3.08708e-08
3.08194e-08
3.07296e-08
3.10325e-08
3.02887e-06
3.03656e-08
1.24135e-07
1.23512e-07
1.22257e-07
1.19406e-07
1.14948e-07
1.09431e-07
1.03475e-07
9.75406e-08
9.18964e-08
8.66786e-08
8.19232e-08
7.76359e-08
7.37752e-08
7.03175e-08
6.72059e-08
6.44186e-08
6.18992e-08
5.96367e-08
5.75784e-08
5.57247e-08
5.40263e-08
5.24926e-08
5.10764e-08
4.97957e-08
4.8603e-08
4.75238e-08
4.65094e-08
4.55926e-08
4.47228e-08
4.39378e-08
4.31856e-08
4.25096e-08
4.18546e-08
4.12686e-08
4.06941e-08
4.01836e-08
3.96766e-08
3.92296e-08
3.87799e-08
3.83874e-08
3.79865e-08
3.76404e-08
3.72814e-08
3.69749e-08
3.66514e-08
3.63797e-08
3.60876e-08
3.58458e-08
3.55802e-08
3.53657e-08
3.51235e-08
3.49317e-08
3.47108e-08
3.45392e-08
3.43383e-08
3.41831e-08
3.39981e-08
3.38607e-08
3.36894e-08
3.35664e-08
3.34098e-08
3.32978e-08
3.31533e-08
3.30514e-08
3.2919e-08
3.28249e-08
3.27044e-08
3.26181e-08
3.25056e-08
3.24264e-08
3.23222e-08
3.22506e-08
3.21555e-08
3.20916e-08
3.20011e-08
3.19397e-08
3.1851e-08
3.17917e-08
3.17043e-08
3.16467e-08
3.15605e-08
3.15045e-08
3.14186e-08
3.13636e-08
3.1278e-08
3.12241e-08
3.11397e-08
3.10878e-08
3.10045e-08
3.09539e-08
3.08711e-08
3.08198e-08
3.07297e-08
3.10356e-08
3.00826e-06
3.07797e-08
1.24134e-07
1.23509e-07
1.22262e-07
1.19428e-07
1.14991e-07
1.09494e-07
1.03552e-07
9.76268e-08
9.19877e-08
8.67717e-08
8.20158e-08
7.77264e-08
7.38628e-08
7.04014e-08
6.7286e-08
6.44947e-08
6.19714e-08
5.97049e-08
5.76429e-08
5.57857e-08
5.40839e-08
5.2547e-08
5.11279e-08
4.98443e-08
4.8649e-08
4.75673e-08
4.65505e-08
4.56316e-08
4.47597e-08
4.39728e-08
4.32188e-08
4.25411e-08
4.18845e-08
4.1297e-08
4.0721e-08
4.02092e-08
3.9701e-08
3.92528e-08
3.8802e-08
3.84084e-08
3.80065e-08
3.76595e-08
3.72996e-08
3.69922e-08
3.66679e-08
3.63955e-08
3.61025e-08
3.58601e-08
3.55938e-08
3.53787e-08
3.51359e-08
3.49435e-08
3.4722e-08
3.45499e-08
3.43484e-08
3.41928e-08
3.40073e-08
3.38695e-08
3.36977e-08
3.35743e-08
3.34173e-08
3.33049e-08
3.31601e-08
3.30578e-08
3.29251e-08
3.28307e-08
3.27098e-08
3.26233e-08
3.25104e-08
3.2431e-08
3.23265e-08
3.22547e-08
3.21592e-08
3.20952e-08
3.20044e-08
3.19429e-08
3.18539e-08
3.17944e-08
3.17067e-08
3.1649e-08
3.15625e-08
3.15064e-08
3.14204e-08
3.13653e-08
3.12794e-08
3.12256e-08
3.11408e-08
3.10889e-08
3.10052e-08
3.09546e-08
3.08715e-08
3.08202e-08
3.073e-08
3.10392e-08
2.98639e-06
3.12457e-08
1.24133e-07
1.23506e-07
1.22267e-07
1.19452e-07
1.15037e-07
1.09561e-07
1.03635e-07
9.77207e-08
9.20872e-08
8.68731e-08
8.21168e-08
7.78252e-08
7.39585e-08
7.04932e-08
6.73736e-08
6.45779e-08
6.20503e-08
5.97796e-08
5.77137e-08
5.58525e-08
5.4147e-08
5.26066e-08
5.11843e-08
4.98975e-08
4.86994e-08
4.76149e-08
4.65957e-08
4.56743e-08
4.48002e-08
4.40112e-08
4.32553e-08
4.25756e-08
4.19174e-08
4.13282e-08
4.07507e-08
4.02374e-08
3.97278e-08
3.92784e-08
3.88263e-08
3.84315e-08
3.80285e-08
3.76805e-08
3.73196e-08
3.70113e-08
3.66861e-08
3.64128e-08
3.6119e-08
3.58758e-08
3.56088e-08
3.5393e-08
3.51495e-08
3.49565e-08
3.47343e-08
3.45617e-08
3.43597e-08
3.42035e-08
3.40174e-08
3.38792e-08
3.3707e-08
3.35831e-08
3.34256e-08
3.33128e-08
3.31676e-08
3.3065e-08
3.29318e-08
3.28371e-08
3.27158e-08
3.26291e-08
3.25158e-08
3.24362e-08
3.23313e-08
3.22593e-08
3.21635e-08
3.20992e-08
3.20082e-08
3.19465e-08
3.18572e-08
3.17976e-08
3.17095e-08
3.16517e-08
3.15649e-08
3.15087e-08
3.14224e-08
3.13672e-08
3.1281e-08
3.12273e-08
3.11421e-08
3.10901e-08
3.10062e-08
3.09555e-08
3.08721e-08
3.08208e-08
3.07304e-08
3.10433e-08
2.96332e-06
3.17728e-08
1.24132e-07
1.23502e-07
1.22272e-07
1.19477e-07
1.15088e-07
1.09634e-07
1.03726e-07
9.78222e-08
9.21951e-08
8.69832e-08
8.22266e-08
7.79326e-08
7.40624e-08
7.05929e-08
6.74689e-08
6.46685e-08
6.21363e-08
5.9861e-08
5.77907e-08
5.59252e-08
5.42159e-08
5.26716e-08
5.12458e-08
4.99556e-08
4.87544e-08
4.76669e-08
4.6645e-08
4.5721e-08
4.48445e-08
4.40532e-08
4.32951e-08
4.26134e-08
4.19533e-08
4.13623e-08
4.07831e-08
4.02683e-08
3.97571e-08
3.93063e-08
3.88529e-08
3.84569e-08
3.80526e-08
3.77035e-08
3.73415e-08
3.70322e-08
3.6706e-08
3.64318e-08
3.61371e-08
3.58931e-08
3.56252e-08
3.54087e-08
3.51645e-08
3.49708e-08
3.47479e-08
3.45747e-08
3.4372e-08
3.42154e-08
3.40286e-08
3.38899e-08
3.37171e-08
3.35928e-08
3.34348e-08
3.33216e-08
3.31759e-08
3.30729e-08
3.29393e-08
3.28442e-08
3.27225e-08
3.26355e-08
3.25219e-08
3.2442e-08
3.23367e-08
3.22644e-08
3.21683e-08
3.21038e-08
3.20124e-08
3.19505e-08
3.18609e-08
3.18011e-08
3.17127e-08
3.16547e-08
3.15676e-08
3.15112e-08
3.14246e-08
3.13695e-08
3.12829e-08
3.12292e-08
3.11436e-08
3.10916e-08
3.10073e-08
3.09566e-08
3.08728e-08
3.08215e-08
3.0731e-08
3.10479e-08
2.93906e-06
3.23698e-08
1.2413e-07
1.23498e-07
1.22277e-07
1.19504e-07
1.15141e-07
1.09712e-07
1.03823e-07
9.79316e-08
9.23114e-08
8.71021e-08
8.23451e-08
7.80486e-08
7.41749e-08
7.07009e-08
6.75721e-08
6.47666e-08
6.22295e-08
5.99492e-08
5.78742e-08
5.60042e-08
5.42906e-08
5.27422e-08
5.13125e-08
5.00187e-08
4.88141e-08
4.77235e-08
4.66985e-08
4.57717e-08
4.48926e-08
4.40988e-08
4.33384e-08
4.26545e-08
4.19923e-08
4.13994e-08
4.08184e-08
4.03018e-08
3.97891e-08
3.93367e-08
3.88819e-08
3.84845e-08
3.80789e-08
3.77285e-08
3.73654e-08
3.7055e-08
3.67277e-08
3.64525e-08
3.61569e-08
3.5912e-08
3.56432e-08
3.54259e-08
3.51808e-08
3.49864e-08
3.47628e-08
3.45889e-08
3.43855e-08
3.42283e-08
3.40409e-08
3.39017e-08
3.37283e-08
3.36035e-08
3.34449e-08
3.33313e-08
3.3185e-08
3.30816e-08
3.29476e-08
3.28521e-08
3.273e-08
3.26426e-08
3.25286e-08
3.24484e-08
3.23427e-08
3.22702e-08
3.21736e-08
3.21089e-08
3.20171e-08
3.1955e-08
3.1865e-08
3.1805e-08
3.17163e-08
3.16581e-08
3.15706e-08
3.15141e-08
3.14272e-08
3.1372e-08
3.12851e-08
3.12315e-08
3.11454e-08
3.10933e-08
3.10087e-08
3.09579e-08
3.08737e-08
3.08224e-08
3.07317e-08
3.10531e-08
2.9136e-06
3.30448e-08
1.24129e-07
1.23494e-07
1.22283e-07
1.19532e-07
1.15199e-07
1.09796e-07
1.03927e-07
9.8049e-08
9.24363e-08
8.72298e-08
8.24727e-08
7.81736e-08
7.42961e-08
7.08173e-08
6.76834e-08
6.48725e-08
6.23301e-08
6.00444e-08
5.79644e-08
5.60895e-08
5.43713e-08
5.28184e-08
5.13847e-08
5.0087e-08
4.88788e-08
4.77846e-08
4.67565e-08
4.58266e-08
4.49447e-08
4.41482e-08
4.33853e-08
4.26991e-08
4.20347e-08
4.14396e-08
4.08567e-08
4.03383e-08
3.98238e-08
3.93697e-08
3.89133e-08
3.85144e-08
3.81075e-08
3.77558e-08
3.73913e-08
3.70798e-08
3.67513e-08
3.64751e-08
3.61784e-08
3.59326e-08
3.56628e-08
3.54447e-08
3.51987e-08
3.50035e-08
3.47791e-08
3.46044e-08
3.44003e-08
3.42425e-08
3.40544e-08
3.39146e-08
3.37405e-08
3.36151e-08
3.34559e-08
3.33419e-08
3.31951e-08
3.30912e-08
3.29567e-08
3.28608e-08
3.27381e-08
3.26504e-08
3.25359e-08
3.24554e-08
3.23493e-08
3.22765e-08
3.21795e-08
3.21145e-08
3.20223e-08
3.196e-08
3.18696e-08
3.18094e-08
3.17203e-08
3.16619e-08
3.1574e-08
3.15174e-08
3.14302e-08
3.13749e-08
3.12877e-08
3.1234e-08
3.11475e-08
3.10954e-08
3.10103e-08
3.09595e-08
3.08748e-08
3.08236e-08
3.07327e-08
3.10588e-08
2.88687e-06
3.38057e-08
1.24128e-07
1.2349e-07
1.22288e-07
1.19563e-07
1.15259e-07
1.09885e-07
1.04038e-07
9.81743e-08
9.25699e-08
8.73667e-08
8.26094e-08
7.83077e-08
7.44262e-08
7.09423e-08
6.78031e-08
6.49863e-08
6.24383e-08
6.01469e-08
5.80616e-08
5.61813e-08
5.44582e-08
5.29006e-08
5.14625e-08
5.01606e-08
4.89485e-08
4.78506e-08
4.68191e-08
4.58859e-08
4.50009e-08
4.42015e-08
4.3436e-08
4.27472e-08
4.20804e-08
4.14831e-08
4.08981e-08
4.03777e-08
3.98613e-08
3.94055e-08
3.89474e-08
3.85469e-08
3.81384e-08
3.77853e-08
3.74195e-08
3.71066e-08
3.67769e-08
3.64996e-08
3.62017e-08
3.59549e-08
3.56841e-08
3.5465e-08
3.52181e-08
3.50221e-08
3.47968e-08
3.46213e-08
3.44164e-08
3.42579e-08
3.4069e-08
3.39286e-08
3.37539e-08
3.36279e-08
3.34681e-08
3.33535e-08
3.32061e-08
3.31017e-08
3.29666e-08
3.28704e-08
3.27471e-08
3.26591e-08
3.25441e-08
3.24632e-08
3.23566e-08
3.22835e-08
3.2186e-08
3.21208e-08
3.20282e-08
3.19656e-08
3.18747e-08
3.18144e-08
3.17248e-08
3.16663e-08
3.15779e-08
3.15211e-08
3.14335e-08
3.13782e-08
3.12906e-08
3.12369e-08
3.11499e-08
3.10977e-08
3.10123e-08
3.09614e-08
3.08762e-08
3.0825e-08
3.07339e-08
3.10651e-08
2.85874e-06
3.46596e-08
1.24127e-07
1.23485e-07
1.22294e-07
1.19594e-07
1.15324e-07
1.09979e-07
1.04156e-07
9.83078e-08
9.27124e-08
8.75127e-08
8.27555e-08
7.84511e-08
7.45655e-08
7.10762e-08
6.79312e-08
6.51083e-08
6.25543e-08
6.02569e-08
5.81658e-08
5.62799e-08
5.45516e-08
5.29889e-08
5.15462e-08
5.02397e-08
4.90234e-08
4.79215e-08
4.68864e-08
4.59496e-08
4.50615e-08
4.4259e-08
4.34906e-08
4.2799e-08
4.21297e-08
4.153e-08
4.09427e-08
4.04201e-08
3.99018e-08
3.94441e-08
3.89841e-08
3.85819e-08
3.81719e-08
3.78172e-08
3.74499e-08
3.71357e-08
3.68047e-08
3.65261e-08
3.6227e-08
3.59791e-08
3.57071e-08
3.54871e-08
3.52391e-08
3.50422e-08
3.4816e-08
3.46397e-08
3.44339e-08
3.42747e-08
3.4085e-08
3.39439e-08
3.37684e-08
3.36418e-08
3.34813e-08
3.33661e-08
3.32181e-08
3.31132e-08
3.29776e-08
3.28808e-08
3.2757e-08
3.26686e-08
3.2553e-08
3.24718e-08
3.23647e-08
3.22912e-08
3.21933e-08
3.21278e-08
3.20346e-08
3.19718e-08
3.18805e-08
3.18199e-08
3.17299e-08
3.16711e-08
3.15823e-08
3.15254e-08
3.14373e-08
3.1382e-08
3.12939e-08
3.12402e-08
3.11527e-08
3.11005e-08
3.10145e-08
3.09636e-08
3.08779e-08
3.08267e-08
3.07354e-08
3.1072e-08
2.82905e-06
3.56128e-08
1.24125e-07
1.2348e-07
1.223e-07
1.19627e-07
1.15391e-07
1.10079e-07
1.04281e-07
9.84495e-08
9.28639e-08
8.76682e-08
8.29111e-08
7.8604e-08
7.4714e-08
7.12191e-08
6.80681e-08
6.52388e-08
6.26784e-08
6.03745e-08
5.82774e-08
5.63855e-08
5.46516e-08
5.30835e-08
5.16358e-08
5.03245e-08
4.91038e-08
4.79977e-08
4.69586e-08
4.60181e-08
4.51265e-08
4.43207e-08
4.35492e-08
4.28547e-08
4.21827e-08
4.15804e-08
4.09908e-08
4.04658e-08
3.99453e-08
3.94856e-08
3.90237e-08
3.86197e-08
3.82079e-08
3.78516e-08
3.74827e-08
3.7167e-08
3.68346e-08
3.65547e-08
3.62543e-08
3.60052e-08
3.57321e-08
3.55109e-08
3.52619e-08
3.5064e-08
3.48368e-08
3.46596e-08
3.44529e-08
3.42929e-08
3.41023e-08
3.39605e-08
3.37842e-08
3.36569e-08
3.34957e-08
3.33799e-08
3.32313e-08
3.31258e-08
3.29895e-08
3.28922e-08
3.27678e-08
3.2679e-08
3.25628e-08
3.24813e-08
3.23735e-08
3.22998e-08
3.22013e-08
3.21354e-08
3.20418e-08
3.19787e-08
3.18869e-08
3.1826e-08
3.17355e-08
3.16766e-08
3.15872e-08
3.15301e-08
3.14415e-08
3.13862e-08
3.12976e-08
3.1244e-08
3.11559e-08
3.11037e-08
3.10172e-08
3.09662e-08
3.08799e-08
3.08287e-08
3.07373e-08
3.10795e-08
2.79756e-06
3.66708e-08
1.24124e-07
1.23475e-07
1.22307e-07
1.19662e-07
1.15462e-07
1.10184e-07
1.04413e-07
9.85995e-08
9.30244e-08
8.78332e-08
8.30765e-08
7.87666e-08
7.48722e-08
7.13714e-08
6.82141e-08
6.53778e-08
6.28108e-08
6.05001e-08
5.83965e-08
5.64983e-08
5.47585e-08
5.31847e-08
5.17316e-08
5.04152e-08
4.91898e-08
4.80791e-08
4.70359e-08
4.60914e-08
4.51961e-08
4.43868e-08
4.36121e-08
4.29145e-08
4.22396e-08
4.16345e-08
4.10423e-08
4.05149e-08
3.99921e-08
3.95302e-08
3.90662e-08
3.86603e-08
3.82466e-08
3.78886e-08
3.7518e-08
3.72008e-08
3.68668e-08
3.65855e-08
3.62837e-08
3.60334e-08
3.5759e-08
3.55367e-08
3.52865e-08
3.50876e-08
3.48593e-08
3.46812e-08
3.44734e-08
3.43127e-08
3.41211e-08
3.39785e-08
3.38014e-08
3.36734e-08
3.35114e-08
3.3395e-08
3.32455e-08
3.31395e-08
3.30025e-08
3.29047e-08
3.27796e-08
3.26903e-08
3.25736e-08
3.24916e-08
3.23833e-08
3.23092e-08
3.22101e-08
3.21439e-08
3.20497e-08
3.19863e-08
3.1894e-08
3.18329e-08
3.17419e-08
3.16826e-08
3.15928e-08
3.15354e-08
3.14464e-08
3.13909e-08
3.13019e-08
3.12483e-08
3.11596e-08
3.11073e-08
3.10203e-08
3.09692e-08
3.08824e-08
3.08312e-08
3.07395e-08
3.10876e-08
2.76399e-06
3.7838e-08
1.24123e-07
1.23469e-07
1.22313e-07
1.19698e-07
1.15537e-07
1.10295e-07
1.04552e-07
9.87578e-08
9.31942e-08
8.80079e-08
8.32518e-08
7.89391e-08
7.50401e-08
7.15332e-08
6.83692e-08
6.55258e-08
6.29517e-08
6.06338e-08
5.85235e-08
5.66185e-08
5.48725e-08
5.32925e-08
5.18339e-08
5.0512e-08
4.92817e-08
4.81661e-08
4.71185e-08
4.61697e-08
4.52706e-08
4.44575e-08
4.36793e-08
4.29784e-08
4.23004e-08
4.16924e-08
4.10975e-08
4.05675e-08
4.00422e-08
3.9578e-08
3.91118e-08
3.87038e-08
3.82882e-08
3.79283e-08
3.75559e-08
3.72371e-08
3.69014e-08
3.66186e-08
3.63154e-08
3.60637e-08
3.57879e-08
3.55644e-08
3.5313e-08
3.5113e-08
3.48835e-08
3.47044e-08
3.44956e-08
3.4334e-08
3.41414e-08
3.3998e-08
3.382e-08
3.36912e-08
3.35283e-08
3.34113e-08
3.32611e-08
3.31544e-08
3.30167e-08
3.29184e-08
3.27925e-08
3.27028e-08
3.25854e-08
3.2503e-08
3.2394e-08
3.23195e-08
3.22198e-08
3.21533e-08
3.20585e-08
3.19948e-08
3.19019e-08
3.18404e-08
3.17489e-08
3.16894e-08
3.1599e-08
3.15414e-08
3.14518e-08
3.13963e-08
3.13068e-08
3.12531e-08
3.11638e-08
3.11116e-08
3.10239e-08
3.09727e-08
3.08853e-08
3.08341e-08
3.07422e-08
3.10964e-08
2.72799e-06
3.91173e-08
1.24121e-07
1.23463e-07
1.22319e-07
1.19736e-07
1.15615e-07
1.10411e-07
1.04698e-07
9.89245e-08
9.33733e-08
8.81924e-08
8.34372e-08
7.91217e-08
7.5218e-08
7.17047e-08
6.85339e-08
6.56829e-08
6.31014e-08
6.0776e-08
5.86585e-08
5.67464e-08
5.49938e-08
5.34074e-08
5.19428e-08
5.06152e-08
4.93795e-08
4.82589e-08
4.72066e-08
4.62533e-08
4.535e-08
4.4533e-08
4.37511e-08
4.30467e-08
4.23655e-08
4.17543e-08
4.11565e-08
4.06237e-08
4.00959e-08
3.96292e-08
3.91607e-08
3.87505e-08
3.83327e-08
3.79708e-08
3.75966e-08
3.7276e-08
3.69386e-08
3.66543e-08
3.63494e-08
3.60963e-08
3.58191e-08
3.55943e-08
3.53416e-08
3.51404e-08
3.49097e-08
3.47295e-08
3.45196e-08
3.4357e-08
3.41634e-08
3.40191e-08
3.38401e-08
3.37105e-08
3.35468e-08
3.3429e-08
3.3278e-08
3.31706e-08
3.30321e-08
3.29332e-08
3.28066e-08
3.27163e-08
3.25982e-08
3.25154e-08
3.24057e-08
3.23308e-08
3.22304e-08
3.21635e-08
3.20681e-08
3.20041e-08
3.19106e-08
3.18489e-08
3.17567e-08
3.1697e-08
3.1606e-08
3.15482e-08
3.14579e-08
3.14023e-08
3.13122e-08
3.12585e-08
3.11686e-08
3.11164e-08
3.1028e-08
3.09768e-08
3.08887e-08
3.08375e-08
3.07453e-08
3.11058e-08
2.68917e-06
4.05102e-08
1.2412e-07
1.23457e-07
1.22326e-07
1.19775e-07
1.15696e-07
1.10532e-07
1.04851e-07
9.90997e-08
9.35618e-08
8.8387e-08
8.36329e-08
7.93147e-08
7.54062e-08
7.18863e-08
6.87083e-08
6.58494e-08
6.32601e-08
6.09268e-08
5.88017e-08
5.68822e-08
5.51227e-08
5.35294e-08
5.20586e-08
5.07249e-08
4.94837e-08
4.83577e-08
4.73004e-08
4.63424e-08
4.54347e-08
4.46134e-08
4.38277e-08
4.31195e-08
4.24349e-08
4.18204e-08
4.12195e-08
4.06838e-08
4.01532e-08
3.96839e-08
3.92129e-08
3.88004e-08
3.83804e-08
3.80164e-08
3.76401e-08
3.73177e-08
3.69785e-08
3.66924e-08
3.63859e-08
3.61313e-08
3.58525e-08
3.56264e-08
3.53723e-08
3.51698e-08
3.49379e-08
3.47566e-08
3.45454e-08
3.43819e-08
3.41871e-08
3.40419e-08
3.38619e-08
3.37314e-08
3.35667e-08
3.34481e-08
3.32963e-08
3.31882e-08
3.30489e-08
3.29493e-08
3.28219e-08
3.27311e-08
3.26123e-08
3.2529e-08
3.24186e-08
3.23432e-08
3.22421e-08
3.21748e-08
3.20788e-08
3.20144e-08
3.19202e-08
3.18582e-08
3.17654e-08
3.17054e-08
3.16137e-08
3.15557e-08
3.14648e-08
3.1409e-08
3.13184e-08
3.12646e-08
3.11741e-08
3.11219e-08
3.10327e-08
3.09815e-08
3.08926e-08
3.08415e-08
3.07491e-08
3.11159e-08
2.64711e-06
4.2016e-08
1.24118e-07
1.23451e-07
1.22332e-07
1.19815e-07
1.1578e-07
1.10658e-07
1.05011e-07
9.92834e-08
9.37599e-08
8.85917e-08
8.38391e-08
7.95182e-08
7.56048e-08
7.20781e-08
6.88927e-08
6.60256e-08
6.34282e-08
6.10865e-08
5.89536e-08
5.70262e-08
5.52594e-08
5.3659e-08
5.21816e-08
5.08414e-08
4.95943e-08
4.84626e-08
4.74002e-08
4.64371e-08
4.55248e-08
4.4699e-08
4.39092e-08
4.31971e-08
4.25088e-08
4.18909e-08
4.12867e-08
4.07479e-08
4.02144e-08
3.97423e-08
3.92687e-08
3.88537e-08
3.84313e-08
3.80652e-08
3.76867e-08
3.73623e-08
3.70212e-08
3.67333e-08
3.6425e-08
3.61689e-08