/*--------------------------------*- C++ -*----------------------------------*\
| =========                 |                                                 |
| \\      /  F ield         | OpenFOAM: The Open Source CFD Toolbox           |
|  \\    /   O peration     | Version:  v2012                                 |
|   \\  /    A nd           | Website:  www.openfoam.com                      |
|    \\/     M anipulation  |                                                 |
\*---------------------------------------------------------------------------*/
FoamFile
{
    version     2.0;
    format      ascii;
    class       volScalarField;
    location    "56.5";
    object      yPlus;
}
// * * * * * * * * * * * * * * * * * * * * * * * * * * * * * * * * * * * * * //

dimensions      [0 0 0 0 0 0 0];


internalField   uniform 0;

boundaryField
{
    inlet
    {
        type            calculated;
        value           uniform 0;
    }
    outlet
    {
        type            calculated;
        value           uniform 0;
    }
    topWall
    {
        type            calculated;
        value           nonuniform List<scalar> 
545
(
0.153541
0.264748
0.339643
0.399244
0.449698
0.493844
0.533274
0.568992
0.60168
0.631828
0.659805
0.685894
0.710322
0.733272
0.754895
0.775319
0.79465
0.812983
0.830396
0.846962
0.862741
0.87779
0.892157
0.905887
0.91902
0.931592
0.943637
0.955184
0.966261
0.976895
0.987108
0.996923
1.00636
1.01544
1.02417
1.03258
1.04068
1.04848
1.056
1.06326
1.07025
1.077
1.08351
1.0898
1.09587
1.10173
1.10739
1.11286
1.11815
1.12326
1.12821
1.13299
1.13762
1.14209
1.14642
1.15061
1.15467
1.1586
1.1624
1.16608
1.16965
1.17311
1.17646
1.1797
1.18285
1.18589
1.18885
1.19172
1.19449
1.19719
1.1998
1.20233
1.20476
1.20711
1.20944
1.21175
1.21404
1.21631
1.21857
1.2208
1.22302
1.22522
1.22741
1.22958
1.23173
1.23386
1.23598
1.23808
1.24016
1.24223
1.24428
1.24632
1.24834
1.25034
1.25233
1.2543
1.25608
1.25767
1.25926
1.26085
1.26244
1.26403
1.26562
1.26721
1.2688
1.27039
1.27197
1.27356
1.27515
1.27673
1.27832
1.27991
1.28149
1.28308
1.28466
1.28624
1.28783
1.28941
1.29099
1.29257
1.29416
1.29574
1.29732
1.2989
1.30048
1.30206
1.30363
1.30521
1.30679
1.30837
1.30994
1.31152
1.31309
1.31467
1.31624
1.31781
1.31938
1.32096
1.32253
1.3241
1.32567
1.32723
1.3288
1.33037
1.33193
1.3335
1.33506
1.33663
1.33819
1.33975
1.34131
1.34288
1.34443
1.34599
1.34755
1.34911
1.35066
1.35222
1.35377
1.35533
1.35688
1.35843
1.35998
1.36153
1.36308
1.36462
1.36617
1.36771
1.36926
1.3708
1.37234
1.37388
1.37542
1.37696
1.3785
1.38003
1.38157
1.3831
1.38463
1.38616
1.38769
1.38922
1.39075
1.39227
1.3938
1.39532
1.39684
1.39836
1.39988
1.4014
1.40292
1.40443
1.40594
1.40746
1.40897
1.41047
1.41198
1.41349
1.41499
1.41649
1.418
1.4195
1.42099
1.42249
1.42398
1.42548
1.42697
1.42846
1.42995
1.43143
1.43292
1.4344
1.43588
1.43736
1.43884
1.44031
1.44178
1.44326
1.44473
1.44619
1.44766
1.44912
1.45059
1.45205
1.45351
1.45496
1.45642
1.45787
1.45932
1.46077
1.46221
1.46366
1.4651
1.46654
1.46797
1.46941
1.47084
1.47227
1.4737
1.47513
1.47655
1.47797
1.47939
1.48081
1.48222
1.48364
1.48505
1.48645
1.48786
1.48926
1.49066
1.49206
1.49346
1.49485
1.49624
1.49763
1.49901
1.50039
1.50177
1.50315
1.50452
1.5059
1.50727
1.50863
1.51
1.51136
1.51271
1.51407
1.51542
1.5167
1.5179
1.51911
1.52033
1.52155
1.52279
1.52403
1.52528
1.52654
1.52781
1.52909
1.53037
1.53166
1.53296
1.53427
1.53558
1.53691
1.53824
1.53958
1.54092
1.54228
1.54364
1.54501
1.54639
1.54777
1.54917
1.55057
1.55198
1.55339
1.55481
1.55624
1.55768
1.55912
1.56057
1.56203
1.56349
1.56497
1.56644
1.56793
1.56942
1.57091
1.57241
1.57392
1.57544
1.57696
1.57848
1.58002
1.58155
1.58309
1.58464
1.58619
1.58775
1.58931
1.59088
1.59245
1.59402
1.5956
1.59718
1.59877
1.60036
1.60195
1.60354
1.60514
1.60674
1.60835
1.60995
1.61156
1.61317
1.61478
1.61639
1.618
1.61961
1.62122
1.62284
1.62445
1.62606
1.62767
1.62928
1.63089
1.6325
1.6341
1.63571
1.63731
1.6389
1.6405
1.64209
1.64368
1.64526
1.64684
1.64841
1.64998
1.65154
1.65309
1.65464
1.65618
1.65772
1.65925
1.66076
1.66227
1.66377
1.66527
1.66675
1.66822
1.66968
1.67113
1.67257
1.674
1.67541
1.67681
1.6782
1.67957
1.68093
1.68228
1.6836
1.68492
1.68621
1.6875
1.68876
1.69
1.69123
1.69244
1.69363
1.6948
1.69595
1.69708
1.69819
1.69927
1.70034
1.70138
1.7024
1.7034
1.70437
1.70532
1.70624
1.70713
1.708
1.70885
1.70967
1.71046
1.71122
1.71196
1.71266
1.71334
1.71399
1.71461
1.7152
1.71576
1.71628
1.71678
1.71724
1.71768
1.71808
1.71845
1.71878
1.71908
1.71935
1.71959
1.71979
1.71996
1.72009
1.72019
1.72025
1.72028
1.72027
1.72023
1.72015
1.72004
1.71989
1.71971
1.71949
1.71924
1.71895
1.71863
1.71826
1.71787
1.71744
1.71698
1.71647
1.71594
1.71537
1.71477
1.71405
1.71323
1.71236
1.71147
1.71054
1.70958
1.70858
1.70757
1.70652
1.70545
1.70436
1.70325
1.70211
1.70097
1.6998
1.69862
1.69743
1.69622
1.69501
1.69378
1.69255
1.69131
1.69006
1.68882
1.68756
1.68631
1.68504
1.68379
1.68253
1.68128
1.68002
1.67877
1.67752
1.67628
1.67504
1.67382
1.67259
1.67138
1.67017
1.66898
1.66778
1.66661
1.66544
1.66429
1.66315
1.66203
1.66091
1.65981
1.65873
1.65766
1.6566
1.65557
1.65455
1.65355
1.65256
1.65159
1.65064
1.64972
1.64881
1.64792
1.64705
1.6462
1.64537
1.64457
1.64379
1.64303
1.64229
1.64158
1.64088
1.64022
1.63957
1.63895
1.63836
1.63779
1.63724
1.63672
1.63623
1.63576
1.63532
1.6349
1.63451
1.63415
1.63381
1.6335
1.63322
1.63297
1.63274
1.63254
1.63237
1.63222
1.6321
1.63201
1.63195
1.63192
1.6319
)
;
    }
    bottomWall
    {
        type            calculated;
        value           nonuniform List<scalar> 
449
(
0.00273522
0.00479966
0.00537316
0.00532588
0.00525501
0.00515934
0.00506223
0.00497128
0.00488776
0.00481142
0.00474157
0.00467752
0.00461857
0.00456398
0.00451325
0.00446598
0.00442175
0.00438026
0.00434119
0.00430428
0.00426936
0.00423623
0.00420472
0.0041747
0.00414604
0.00411864
0.0040924
0.00406722
0.00404304
0.00401978
0.00399738
0.00397578
0.00395494
0.00393479
0.00391531
0.00389644
0.00387817
0.00386044
0.00384324
0.00382652
0.00381028
0.00379446
0.00377907
0.00376408
0.00374946
0.00373521
0.00372132
0.00370776
0.00369453
0.00368161
0.00366897
0.00365663
0.00364455
0.00363274
0.00362117
0.00360985
0.00359875
0.00358787
0.0035772
0.00356673
0.00355646
0.00354638
0.00353648
0.00352675
0.00351719
0.0035078
0.00349856
0.00348948
0.00348054
0.00347174
0.00346309
0.00345457
0.00344618
0.00343791
0.00342978
0.00342176
0.00341385
0.00340607
0.00339839
0.00339082
0.00338335
0.00337599
0.00336872
0.00336156
0.00335448
0.0033475
0.00334061
0.00333381
0.00332709
0.00332046
0.00331391
0.00330744
0.00330104
0.00329472
0.00328848
0.00328231
0.00327621
0.00327018
0.00326422
0.00325832
0.00325249
0.00324672
0.00324102
0.00323537
0.00322979
0.00322426
0.00321879
0.00321338
0.00320802
0.00320272
0.00319747
0.00319227
0.00318712
0.00318203
0.00317698
0.00317198
0.00316702
0.00316211
0.00315725
0.00315243
0.00314766
0.00314293
0.00313824
0.00313359
0.00312898
0.00312442
0.00311989
0.0031154
0.00311095
0.00310653
0.00310216
0.00309782
0.00309351
0.00308924
0.003085
0.0030808
0.00307663
0.0030725
0.00306839
0.00306432
0.00306028
0.00305627
0.00305229
0.00304834
0.00304442
0.00304053
0.00303667
0.00303283
0.00302903
0.00302525
0.00302149
0.00301777
0.00301407
0.00301039
0.00300674
0.00300312
0.00299952
0.00299595
0.0029924
0.00298887
0.00298537
0.00298189
0.00297843
0.00297499
0.00297158
0.00296819
0.00296482
0.00296147
0.00295815
0.00295484
0.00295155
0.00294829
0.00294504
0.002942
0.00293913
0.00293626
0.00293338
0.00293049
0.00292758
0.00292468
0.00292176
0.00291883
0.00291589
0.00291295
0.00290999
0.00290703
0.00290406
0.00290108
0.00289809
0.00289509
0.00289209
0.00288907
0.00288605
0.00288302
0.00287998
0.00287694
0.00287389
0.00287082
0.00286776
0.00286468
0.00286159
0.0028585
0.0028554
0.0028523
0.00284918
0.00284606
0.00284294
0.0028398
0.00283666
0.00283351
0.00283036
0.0028272
0.00282403
0.00282085
0.00281767
0.00281449
0.00281129
0.00280809
0.00280489
0.00280168
0.00279846
0.00279524
0.00279201
0.00278877
0.00278553
0.00278229
0.00277904
0.00277578
0.00277252
0.00276926
0.00276598
0.00276271
0.00275943
0.00275614
0.00275285
0.00274956
0.00274626
0.00274296
0.00273965
0.00273634
0.00273303
0.00272971
0.00272639
0.00272306
0.00271973
0.0027164
0.00271306
0.00270972
0.00270637
0.00270303
0.00269968
0.00269632
0.00269297
0.00268961
0.00268625
0.00268288
0.00267952
0.00267615
0.00267278
0.0026694
0.00266603
0.00266265
0.00265927
0.00265588
0.0026525
0.00264911
0.00264573
0.00264233
0.00263895
0.00263555
0.00263216
0.00262876
0.00262537
0.00262197
0.00261857
0.00261517
0.00261178
0.00260837
0.00260497
0.00260157
0.00259817
0.00259476
0.00259136
0.00258796
0.00258456
0.00258115
0.00257775
0.00257434
0.00257094
0.00256754
0.00256414
0.00256073
0.00255733
0.00255393
0.00255053
0.00254713
0.00254373
0.00254033
0.00253694
0.00253354
0.00253015
0.00252675
0.00252336
0.00251997
0.00251658
0.00251319
0.00250981
0.00250642
0.00250304
0.00249965
0.00249628
0.0024929
0.00248952
0.00248615
0.00248278
0.00247941
0.00247604
0.00247268
0.00246932
0.00246596
0.0024626
0.00245924
0.00245589
0.00245254
0.0024492
0.00244585
0.00244251
0.00243918
0.00243584
0.00243251
0.00242918
0.00242586
0.00242254
0.00241922
0.00241591
0.0024126
0.00240929
0.00240599
0.00240269
0.00239939
0.0023961
0.00239281
0.00238952
0.00238624
0.00238297
0.00237969
0.00237643
0.00237316
0.0023699
0.00236665
0.0023634
0.00236015
0.00235691
0.00235367
0.00235008
0.00234616
0.00234231
0.0023385
0.00233476
0.00233106
0.00232742
0.00232382
0.00232028
0.00231678
0.00231333
0.00230992
0.00230657
0.00230325
0.00229998
0.00229674
0.00229356
0.0022904
0.0022873
0.00228422
0.00228119
0.00227819
0.00227523
0.0022723
0.00226941
0.00226654
0.00226372
0.00226092
0.00225816
0.00225543
0.00225273
0.00225006
0.00224742
0.0022448
0.00224222
0.00223966
0.00223713
0.00223463
0.00223215
0.0022297
0.00222727
0.00222487
0.00222249
0.00222014
0.00221781
0.0022155
0.00221322
0.00221095
0.00220871
0.00220649
0.0022043
0.00220211
0.00219996
0.00219782
0.00219571
0.0021936
0.00219153
0.00218946
0.00218742
0.00218539
0.00218339
0.0021814
0.00217943
0.00217747
0.00217554
0.00217361
0.00217171
0.00216981
0.00216794
0.00216607
0.00216424
0.00216239
0.00216059
0.00215877
0.00215701
0.0021552
0.00215347
0.00215169
0.00215
0.00214822
0.00214657
0.00214481
0.00214319
0.00214143
0.00213986
0.0021381
0.00213656
0.00213483
0.00213327
0.00213163
0.00212992
0.00212861
0.00212637
0.00212603
0.00212281
)
;
    }
    symmetry
    {
        type            symmetryPlane;
    }
    frontAndBack
    {
        type            empty;
    }
}


// ************************************************************************* //
