/*--------------------------------*- C++ -*----------------------------------*\
| =========                 |                                                 |
| \\      /  F ield         | OpenFOAM: The Open Source CFD Toolbox           |
|  \\    /   O peration     | Version:  v2012                                 |
|   \\  /    A nd           | Website:  www.openfoam.com                      |
|    \\/     M anipulation  |                                                 |
\*---------------------------------------------------------------------------*/
FoamFile
{
    version     2.0;
    format      ascii;
    class       volScalarField;
    location    "52.5";
    object      k;
}
// * * * * * * * * * * * * * * * * * * * * * * * * * * * * * * * * * * * * * //

dimensions      [0 2 -2 0 0 0 0];


internalField   nonuniform List<scalar> 
209825
(
0.00102398
0.000932232
0.000856294
0.00079293
0.000740377
0.000696963
0.000661256
0.000631755
0.000607323
0.000586879
0.000569703
0.000555098
0.000542638
0.000531885
0.000522582
0.00051445
0.000507326
0.000501035
0.000495463
0.000490501
0.00048606
0.00048208
0.000478484
0.000475248
0.000472295
0.000469631
0.000467176
0.00046496
0.000462897
0.000461036
0.000459286
0.000457712
0.000456214
0.000454872
0.000453581
0.000452431
0.000451312
0.000450321
0.000449343
0.000448484
0.000447627
0.00044688
0.000446124
0.000445475
0.000444806
0.000444237
0.000443643
0.000443146
0.000442617
0.000442181
0.000441707
0.000441325
0.000440897
0.000440563
0.000440179
0.000439885
0.000439543
0.000439283
0.000438977
0.000438746
0.000438474
0.000438269
0.000438024
0.000437846
0.000437621
0.000437465
0.000437265
0.000437128
0.000436946
0.000436823
0.000436658
0.00043655
0.000436408
0.000436318
0.000436189
0.000436105
0.000435983
0.000435904
0.000435788
0.000435713
0.000435605
0.000435537
0.000435437
0.000435377
0.000435287
0.000435236
0.000435159
0.000435107
0.000435049
0.000435007
0.000434883
0.000434881
0.00043501
0.000442018
0.000464476
0.00112282
0.00102398
0.000932232
0.000856294
0.000792931
0.000740377
0.000696962
0.000661255
0.000631753
0.00060732
0.000586876
0.000569699
0.000555094
0.000542633
0.000531879
0.000522575
0.000514443
0.000507319
0.000501028
0.000495455
0.000490492
0.000486051
0.000482072
0.000478475
0.000475239
0.000472285
0.000469621
0.000467166
0.00046495
0.000462887
0.000461026
0.000459276
0.000457702
0.000456204
0.000454862
0.00045357
0.000452421
0.000451301
0.00045031
0.000449332
0.000448473
0.000447616
0.000446869
0.000446113
0.000445463
0.000444795
0.000444226
0.000443632
0.000443135
0.000442605
0.00044217
0.000441696
0.000441314
0.000440885
0.000440552
0.000440168
0.000439874
0.000439531
0.000439271
0.000438965
0.000438734
0.000438462
0.000438257
0.000438012
0.000437834
0.000437609
0.000437453
0.000437253
0.000437116
0.000436934
0.00043681
0.000436646
0.000436537
0.000436396
0.000436306
0.000436177
0.000436093
0.000435971
0.000435891
0.000435775
0.000435701
0.000435592
0.000435525
0.000435425
0.000435365
0.000435275
0.000435224
0.000435147
0.000435095
0.000435036
0.000434995
0.000434871
0.000434869
0.000434998
0.000442019
0.000464471
0.00112345
0.00102398
0.000932232
0.000856295
0.000792931
0.000740376
0.000696959
0.000661249
0.000631743
0.000607308
0.000586861
0.000569681
0.000555073
0.000542611
0.000531854
0.000522549
0.000514415
0.00050729
0.000500997
0.000495423
0.000490459
0.000486017
0.000482036
0.000478439
0.000475202
0.000472248
0.000469583
0.000467127
0.00046491
0.000462847
0.000460986
0.000459235
0.00045766
0.000456162
0.000454819
0.000453528
0.000452378
0.000451258
0.000450266
0.000449288
0.000448429
0.000447572
0.000446825
0.000446068
0.000445418
0.000444749
0.000444181
0.000443586
0.000443089
0.00044256
0.000442124
0.000441649
0.000441267
0.000440838
0.000440505
0.000440121
0.000439827
0.000439484
0.000439224
0.000438918
0.000438687
0.000438415
0.00043821
0.000437964
0.000437786
0.000437561
0.000437405
0.000437205
0.000437068
0.000436886
0.000436762
0.000436598
0.000436489
0.000436348
0.000436257
0.000436129
0.000436045
0.000435923
0.000435843
0.000435727
0.000435652
0.000435544
0.000435476
0.000435376
0.000435316
0.000435226
0.000435175
0.000435098
0.000435046
0.000434987
0.000434945
0.000434822
0.000434819
0.000434949
0.000441996
0.000464434
0.00112472
0.00102398
0.000932232
0.000856296
0.000792931
0.000740374
0.000696953
0.000661239
0.000631728
0.000607287
0.000586835
0.00056965
0.000555039
0.000542572
0.000531813
0.000522504
0.000514367
0.00050724
0.000500944
0.000495368
0.000490403
0.000485959
0.000481977
0.000478378
0.00047514
0.000472184
0.000469518
0.000467061
0.000464844
0.00046278
0.000460917
0.000459166
0.00045759
0.000456091
0.000454748
0.000453456
0.000452306
0.000451185
0.000450193
0.000449214
0.000448355
0.000447497
0.00044675
0.000445993
0.000445343
0.000444673
0.000444104
0.00044351
0.000443012
0.000442482
0.000442046
0.000441572
0.000441189
0.00044076
0.000440427
0.000440042
0.000439748
0.000439405
0.000439145
0.000438839
0.000438608
0.000438336
0.00043813
0.000437884
0.000437706
0.000437481
0.000437325
0.000437125
0.000436988
0.000436806
0.000436682
0.000436517
0.000436408
0.000436267
0.000436176
0.000436048
0.000435964
0.000435841
0.000435761
0.000435645
0.000435571
0.000435462
0.000435394
0.000435294
0.000435234
0.000435144
0.000435092
0.000435016
0.000434963
0.000434905
0.000434863
0.000434739
0.000434737
0.000434867
0.000441954
0.00046437
0.00112634
0.00102398
0.000932233
0.000856297
0.000792932
0.000740372
0.000696945
0.000661224
0.000631706
0.000607258
0.000586799
0.000569608
0.00055499
0.000542518
0.000531754
0.000522441
0.0005143
0.000507169
0.00050087
0.000495292
0.000490323
0.000485877
0.000481893
0.000478292
0.000475052
0.000472094
0.000469427
0.000466969
0.00046475
0.000462685
0.000460821
0.000459068
0.000457492
0.000455992
0.000454648
0.000453355
0.000452204
0.000451082
0.00045009
0.00044911
0.00044825
0.000447392
0.000446644
0.000445887
0.000445236
0.000444566
0.000443997
0.000443402
0.000442904
0.000442374
0.000441937
0.000441463
0.00044108
0.000440651
0.000440317
0.000439932
0.000439637
0.000439294
0.000439034
0.000438728
0.000438496
0.000438224
0.000438018
0.000437772
0.000437594
0.000437369
0.000437212
0.000437012
0.000436875
0.000436692
0.000436568
0.000436403
0.000436295
0.000436153
0.000436062
0.000435933
0.000435849
0.000435727
0.000435647
0.00043553
0.000435456
0.000435347
0.000435279
0.000435179
0.000435118
0.000435028
0.000434977
0.0004349
0.000434847
0.000434788
0.000434746
0.000434622
0.00043462
0.000434752
0.000441894
0.000464279
0.00112816
0.00102398
0.000932233
0.000856299
0.000792933
0.000740369
0.000696935
0.000661205
0.000631677
0.00060722
0.000586752
0.000569552
0.000554927
0.000542449
0.000531678
0.000522359
0.000514213
0.000507078
0.000500775
0.000495192
0.000490221
0.000485771
0.000481784
0.00047818
0.000474938
0.000471978
0.000469309
0.000466849
0.000464628
0.000462561
0.000460696
0.000458942
0.000457364
0.000455863
0.000454518
0.000453224
0.000452072
0.00045095
0.000449956
0.000448976
0.000448115
0.000447256
0.000446508
0.000445749
0.000445098
0.000444428
0.000443858
0.000443262
0.000442764
0.000442233
0.000441796
0.000441321
0.000440938
0.000440508
0.000440174
0.000439789
0.000439494
0.00043915
0.000438889
0.000438583
0.000438351
0.000438078
0.000437873
0.000437626
0.000437448
0.000437222
0.000437065
0.000436865
0.000436728
0.000436545
0.000436421
0.000436256
0.000436147
0.000436005
0.000435914
0.000435785
0.000435701
0.000435578
0.000435498
0.000435381
0.000435306
0.000435197
0.000435129
0.000435029
0.000434969
0.000434878
0.000434826
0.000434749
0.000434697
0.000434637
0.000434595
0.000434471
0.000434469
0.000434602
0.000441816
0.000464162
0.00113014
0.00102398
0.000932234
0.000856302
0.000792935
0.000740365
0.000696923
0.000661182
0.000631642
0.000607173
0.000586694
0.000569484
0.00055485
0.000542363
0.000531584
0.000522259
0.000514106
0.000506965
0.000500657
0.00049507
0.000490094
0.00048564
0.00048165
0.000478043
0.000474798
0.000471835
0.000469163
0.000466701
0.000464478
0.000462409
0.000460542
0.000458786
0.000457207
0.000455705
0.000454358
0.000453063
0.000451909
0.000450786
0.000449791
0.00044881
0.000447948
0.000447088
0.000446339
0.00044558
0.000444928
0.000444257
0.000443686
0.00044309
0.000442591
0.00044206
0.000441622
0.000441146
0.000440763
0.000440332
0.000439998
0.000439612
0.000439317
0.000438973
0.000438712
0.000438405
0.000438172
0.000437899
0.000437693
0.000437446
0.000437268
0.000437042
0.000436885
0.000436684
0.000436547
0.000436364
0.000436239
0.000436074
0.000435965
0.000435823
0.000435731
0.000435602
0.000435517
0.000435395
0.000435314
0.000435197
0.000435122
0.000435013
0.000434945
0.000434845
0.000434784
0.000434693
0.000434641
0.000434564
0.000434511
0.000434451
0.000434409
0.000434284
0.000434282
0.000434417
0.000441722
0.000464017
0.0011322
0.00102398
0.000932234
0.000856304
0.000792936
0.00074036
0.000696908
0.000661154
0.000631601
0.000607118
0.000586625
0.000569403
0.000554758
0.00054226
0.000531473
0.000522139
0.000513979
0.000506831
0.000500517
0.000494924
0.000489943
0.000485485
0.00048149
0.000477879
0.00047463
0.000471665
0.00046899
0.000466525
0.000464299
0.000462228
0.000460359
0.000458601
0.00045702
0.000455515
0.000454167
0.00045287
0.000451715
0.00045059
0.000449595
0.000448612
0.000447749
0.000446888
0.000446138
0.000445378
0.000444725
0.000444053
0.000443482
0.000442884
0.000442385
0.000441853
0.000441414
0.000440938
0.000440554
0.000440123
0.000439788
0.000439401
0.000439106
0.000438761
0.000438499
0.000438192
0.000437959
0.000437686
0.000437479
0.000437232
0.000437053
0.000436827
0.000436669
0.000436468
0.00043633
0.000436147
0.000436022
0.000435857
0.000435747
0.000435605
0.000435513
0.000435384
0.000435299
0.000435176
0.000435095
0.000434978
0.000434903
0.000434794
0.000434725
0.000434624
0.000434563
0.000434472
0.00043442
0.000434342
0.00043429
0.000434229
0.000434187
0.000434062
0.00043406
0.000434197
0.00044161
0.000463845
0.00113418
0.00102398
0.000932235
0.000856308
0.000792938
0.000740355
0.000696891
0.000661122
0.000631552
0.000607053
0.000586546
0.000569309
0.00055465
0.000542141
0.000531343
0.000521999
0.000513831
0.000506674
0.000500353
0.000494754
0.000489767
0.000485304
0.000481304
0.000477689
0.000474436
0.000471466
0.000468788
0.000466319
0.000464091
0.000462017
0.000460145
0.000458385
0.000456802
0.000455295
0.000453945
0.000452646
0.00045149
0.000450363
0.000449366
0.000448382
0.000447518
0.000446655
0.000445904
0.000445142
0.000444489
0.000443816
0.000443243
0.000442645
0.000442144
0.000441611
0.000441173
0.000440695
0.00044031
0.000439879
0.000439543
0.000439156
0.00043886
0.000438515
0.000438252
0.000437944
0.000437711
0.000437437
0.00043723
0.000436982
0.000436803
0.000436576
0.000436418
0.000436217
0.000436079
0.000435895
0.00043577
0.000435604
0.000435494
0.000435352
0.00043526
0.00043513
0.000435045
0.000434921
0.00043484
0.000434723
0.000434648
0.000434538
0.000434469
0.000434368
0.000434307
0.000434215
0.000434163
0.000434085
0.000434032
0.000433971
0.000433929
0.000433802
0.000433801
0.000433941
0.000441482
0.000463646
0.00113589
0.00102398
0.000932236
0.000856311
0.000792941
0.00074035
0.000696872
0.000661086
0.000631498
0.00060698
0.000586455
0.000569202
0.000554528
0.000542005
0.000531195
0.00052184
0.000513661
0.000506496
0.000500167
0.00049456
0.000489566
0.000485097
0.000481091
0.000477471
0.000474213
0.000471239
0.000468557
0.000466085
0.000463853
0.000461776
0.000459901
0.000458138
0.000456552
0.000455043
0.000453691
0.00045239
0.000451231
0.000450103
0.000449104
0.000448118
0.000447253
0.000446389
0.000445636
0.000444873
0.000444218
0.000443544
0.000442971
0.000442371
0.00044187
0.000441336
0.000440896
0.000440418
0.000440032
0.000439599
0.000439263
0.000438875
0.000438578
0.000438232
0.00043797
0.000437661
0.000437427
0.000437152
0.000436945
0.000436697
0.000436517
0.00043629
0.000436131
0.000435929
0.000435791
0.000435607
0.000435481
0.000435315
0.000435205
0.000435062
0.000434969
0.000434839
0.000434754
0.00043463
0.000434549
0.000434431
0.000434355
0.000434245
0.000434176
0.000434074
0.000434013
0.000433921
0.000433868
0.00043379
0.000433736
0.000433675
0.000433633
0.000433506
0.000433504
0.000433648
0.000441337
0.000463419
0.00113702
0.00102398
0.000932236
0.000856315
0.000792943
0.000740343
0.00069685
0.000661045
0.000631436
0.000606898
0.000586352
0.000569081
0.000554391
0.000541852
0.000531028
0.000521661
0.000513471
0.000506295
0.000499957
0.000494341
0.00048934
0.000484863
0.000480851
0.000477225
0.000473962
0.000470984
0.000468297
0.00046582
0.000463585
0.000461504
0.000459626
0.000457859
0.000456271
0.000454759
0.000453405
0.000452101
0.00045094
0.00044981
0.000448809
0.000447821
0.000446954
0.000446088
0.000445334
0.00044457
0.000443913
0.000443237
0.000442663
0.000442062
0.00044156
0.000441025
0.000440584
0.000440104
0.000439718
0.000439284
0.000438947
0.000438559
0.000438261
0.000437914
0.000437651
0.000437341
0.000437107
0.000436831
0.000436623
0.000436374
0.000436194
0.000435966
0.000435807
0.000435605
0.000435466
0.000435281
0.000435155
0.000434988
0.000434878
0.000434734
0.000434642
0.000434511
0.000434425
0.000434301
0.00043422
0.000434101
0.000434025
0.000433914
0.000433845
0.000433743
0.000433681
0.000433589
0.000433536
0.000433457
0.000433403
0.000433342
0.000433299
0.000433171
0.00043317
0.000433317
0.000441177
0.000463165
0.00113717
0.00102398
0.000932237
0.00085632
0.000792946
0.000740336
0.000696826
0.000661
0.000631368
0.000606806
0.000586239
0.000568947
0.000554238
0.000541682
0.000530842
0.000521461
0.000513258
0.000506072
0.000499722
0.000494098
0.000489088
0.000484603
0.000480584
0.000476952
0.000473683
0.000470698
0.000468006
0.000465525
0.000463285
0.0004612
0.000459319
0.000457549
0.000455957
0.000454442
0.000453085
0.000451778
0.000450615
0.000449482
0.000448479
0.00044749
0.00044662
0.000445753
0.000444997
0.000444231
0.000443573
0.000442896
0.00044232
0.000441718
0.000441214
0.000440677
0.000440236
0.000439755
0.000439368
0.000438933
0.000438595
0.000438205
0.000437907
0.000437559
0.000437295
0.000436984
0.000436749
0.000436473
0.000436265
0.000436015
0.000435834
0.000435605
0.000435446
0.000435243
0.000435103
0.000434918
0.000434792
0.000434624
0.000434513
0.000434369
0.000434276
0.000434145
0.000434059
0.000433934
0.000433852
0.000433733
0.000433657
0.000433546
0.000433476
0.000433373
0.000433311
0.000433218
0.000433165
0.000433086
0.000433032
0.000432969
0.000432926
0.000432797
0.000432796
0.000432948
0.000441001
0.000462881
0.00113599
0.00102398
0.000932238
0.000856325
0.000792949
0.000740329
0.0006968
0.00066095
0.000631292
0.000606706
0.000586114
0.0005688
0.000554069
0.000541495
0.000530638
0.000521241
0.000513024
0.000505825
0.000499464
0.000493829
0.000488809
0.000484316
0.000480289
0.000476649
0.000473374
0.000470383
0.000467686
0.000465199
0.000462955
0.000460865
0.000458979
0.000457206
0.00045561
0.000454092
0.000452732
0.000451422
0.000450256
0.000449121
0.000448115
0.000447123
0.000446252
0.000445382
0.000444624
0.000443856
0.000443197
0.000442518
0.00044194
0.000441337
0.000440832
0.000440294
0.000439851
0.000439369
0.00043898
0.000438544
0.000438205
0.000437814
0.000437515
0.000437166
0.000436901
0.00043659
0.000436354
0.000436077
0.000435868
0.000435617
0.000435435
0.000435206
0.000435046
0.000434842
0.000434702
0.000434516
0.00043439
0.000434221
0.00043411
0.000433965
0.000433872
0.00043374
0.000433653
0.000433528
0.000433446
0.000433327
0.00043325
0.000433138
0.000433068
0.000432965
0.000432902
0.000432809
0.000432755
0.000432675
0.000432621
0.000432558
0.000432514
0.000432384
0.000432384
0.00043254
0.000440809
0.000462569
0.00113347
0.00102397
0.000932239
0.00085633
0.000792952
0.000740321
0.000696771
0.000660896
0.000631211
0.000606596
0.000585977
0.000568638
0.000553885
0.00054129
0.000530414
0.000521
0.000512768
0.000505554
0.000499181
0.000493534
0.000488504
0.000484002
0.000479966
0.000476318
0.000473035
0.000470038
0.000467334
0.000464842
0.000462592
0.000460498
0.000458607
0.000456829
0.00045523
0.000453708
0.000452344
0.000451031
0.000449863
0.000448724
0.000447716
0.000446721
0.000445847
0.000444976
0.000444216
0.000443446
0.000442784
0.000442103
0.000441524
0.000440919
0.000440412
0.000439873
0.000439428
0.000438945
0.000438555
0.000438118
0.000437778
0.000437386
0.000437085
0.000436736
0.000436469
0.000436157
0.00043592
0.000435642
0.000435432
0.000435181
0.000434998
0.000434768
0.000434608
0.000434403
0.000434262
0.000434076
0.000433948
0.000433779
0.000433668
0.000433522
0.000433428
0.000433296
0.000433209
0.000433083
0.000433
0.00043288
0.000432803
0.000432691
0.00043262
0.000432516
0.000432453
0.000432359
0.000432305
0.000432224
0.000432169
0.000432106
0.000432062
0.000431931
0.000431931
0.000432093
0.000440602
0.000462227
0.00112965
0.00102397
0.000932241
0.000856336
0.000792956
0.000740312
0.000696741
0.000660838
0.000631122
0.000606477
0.000585829
0.000568463
0.000553685
0.000541067
0.00053017
0.000520738
0.000512489
0.00050526
0.000498873
0.000493214
0.000488173
0.000483659
0.000479614
0.000475958
0.000472667
0.000469662
0.000466952
0.000464453
0.000462197
0.000460097
0.000458202
0.000456419
0.000454816
0.000453289
0.000451922
0.000450606
0.000449434
0.000448292
0.000447281
0.000446283
0.000445407
0.000444532
0.00044377
0.000442998
0.000442335
0.000441651
0.000441071
0.000440463
0.000439955
0.000439414
0.000438968
0.000438483
0.000438092
0.000437653
0.000437312
0.000436919
0.000436617
0.000436266
0.000435999
0.000435685
0.000435448
0.000435168
0.000434958
0.000434705
0.000434522
0.000434291
0.000434129
0.000433924
0.000433782
0.000433595
0.000433467
0.000433298
0.000433186
0.000433039
0.000432945
0.000432811
0.000432724
0.000432597
0.000432514
0.000432394
0.000432316
0.000432203
0.000432132
0.000432027
0.000431964
0.000431869
0.000431814
0.000431733
0.000431678
0.000431613
0.000431569
0.000431436
0.000431437
0.000431605
0.000440379
0.000461854
0.00112454
0.00102397
0.000932242
0.000856342
0.000792961
0.000740303
0.000696708
0.000660776
0.000631027
0.000606349
0.00058567
0.000568274
0.000553469
0.000540826
0.000529907
0.000520455
0.000512187
0.000504942
0.00049854
0.000492867
0.000487813
0.000483289
0.000479234
0.000475567
0.000472268
0.000469255
0.000466537
0.000464032
0.00046177
0.000459664
0.000457763
0.000455975
0.000454367
0.000452836
0.000451465
0.000450144
0.000448969
0.000447823
0.000446809
0.000445809
0.00044493
0.000444052
0.000443288
0.000442513
0.000441847
0.000441162
0.000440579
0.00043997
0.00043946
0.000438916
0.000438469
0.000437982
0.00043759
0.00043715
0.000436807
0.000436412
0.000436109
0.000435757
0.000435489
0.000435174
0.000434935
0.000434654
0.000434443
0.000434189
0.000434005
0.000433773
0.000433611
0.000433404
0.000433262
0.000433074
0.000432946
0.000432775
0.000432663
0.000432515
0.000432421
0.000432286
0.000432198
0.000432071
0.000431987
0.000431866
0.000431788
0.000431674
0.000431602
0.000431497
0.000431433
0.000431337
0.000431282
0.0004312
0.000431144
0.000431079
0.000431034
0.000430901
0.000430901
0.000431077
0.000440139
0.000461449
0.00111818
0.00102397
0.000932243
0.000856349
0.000792965
0.000740294
0.000696673
0.000660709
0.000630925
0.000606212
0.000585499
0.000568071
0.000553237
0.000540568
0.000529624
0.00052015
0.000511863
0.0005046
0.000498181
0.000492494
0.000487427
0.00048289
0.000478823
0.000475147
0.000471838
0.000468816
0.00046609
0.000463578
0.000461309
0.000459196
0.00045729
0.000455496
0.000453883
0.000452348
0.000450972
0.000449647
0.000448467
0.000447318
0.000446301
0.000445297
0.000444415
0.000443534
0.000442767
0.00044199
0.000441322
0.000440634
0.000440049
0.000439437
0.000438925
0.00043838
0.000437931
0.000437442
0.000437048
0.000436606
0.000436262
0.000435866
0.000435561
0.000435208
0.000434938
0.000434622
0.000434382
0.0004341
0.000433888
0.000433633
0.000433448
0.000433215
0.000433052
0.000432844
0.000432701
0.000432512
0.000432383
0.000432212
0.000432098
0.00043195
0.000431855
0.00043172
0.000431631
0.000431503
0.000431419
0.000431296
0.000431218
0.000431103
0.000431031
0.000430925
0.00043086
0.000430764
0.000430708
0.000430625
0.000430569
0.000430503
0.000430458
0.000430323
0.000430324
0.000430507
0.000439882
0.00046101
0.00111059
0.00102397
0.000932244
0.000856356
0.00079297
0.000740284
0.000696636
0.000660638
0.000630816
0.000606065
0.000585316
0.000567854
0.000552988
0.000540291
0.000529322
0.000519824
0.000511516
0.000504233
0.000497797
0.000492094
0.000487012
0.000482462
0.000478383
0.000474696
0.000471376
0.000468346
0.000465611
0.00046309
0.000460814
0.000458695
0.000456782
0.000454982
0.000453364
0.000451823
0.000450442
0.000449113
0.000447929
0.000446776
0.000445755
0.000444747
0.000443862
0.000442978
0.000442208
0.000441428
0.000440757
0.000440066
0.000439479
0.000438865
0.000438351
0.000437804
0.000437353
0.000436862
0.000436467
0.000436023
0.000435677
0.000435279
0.000434973
0.000434618
0.000434347
0.000434029
0.000433788
0.000433505
0.000433292
0.000433035
0.000432849
0.000432615
0.000432451
0.000432242
0.000432099
0.000431908
0.000431779
0.000431606
0.000431492
0.000431343
0.000431247
0.000431111
0.000431022
0.000430892
0.000430808
0.000430685
0.000430606
0.00043049
0.000430417
0.00043031
0.000430245
0.000430148
0.000430091
0.000430007
0.000429951
0.000429883
0.000429838
0.000429702
0.000429703
0.000429895
0.000439607
0.000460535
0.00110181
0.00102397
0.000932245
0.000856364
0.000792976
0.000740273
0.000696598
0.000660563
0.000630701
0.00060591
0.000585121
0.000567624
0.000552724
0.000539996
0.000528999
0.000519476
0.000511145
0.000503842
0.000497387
0.000491666
0.000486569
0.000482005
0.000477913
0.000474214
0.000470884
0.000467843
0.000465099
0.000462569
0.000460285
0.000458159
0.000456239
0.000454433
0.000452808
0.000451262
0.000449876
0.000448542
0.000447354
0.000446196
0.000445171
0.000444159
0.000443271
0.000442383
0.00044161
0.000440826
0.000440153
0.00043946
0.00043887
0.000438253
0.000437737
0.000437187
0.000436734
0.000436241
0.000435844
0.000435398
0.000435051
0.000434651
0.000434343
0.000433986
0.000433714
0.000433395
0.000433153
0.000432868
0.000432653
0.000432395
0.000432209
0.000431973
0.000431808
0.000431598
0.000431454
0.000431262
0.000431132
0.000430958
0.000430844
0.000430694
0.000430597
0.000430459
0.00043037
0.000430239
0.000430154
0.00043003
0.00042995
0.000429834
0.00042976
0.000429652
0.000429587
0.000429488
0.000429431
0.000429346
0.000429289
0.000429221
0.000429175
0.000429037
0.000429039
0.000429239
0.000439313
0.000460023
0.0010919
0.00102397
0.000932247
0.000856371
0.000792981
0.000740262
0.000696557
0.000660483
0.000630579
0.000605745
0.000584915
0.000567379
0.000552443
0.000539683
0.000528656
0.000519106
0.00051075
0.000503425
0.00049695
0.000491211
0.000486098
0.000481518
0.000477413
0.0004737
0.000470359
0.000467307
0.000464553
0.000462015
0.000459722
0.000457587
0.00045566
0.000453847
0.000452216
0.000450664
0.000449273
0.000447933
0.00044674
0.000445578
0.000444548
0.000443533
0.00044264
0.000441749
0.000440973
0.000440186
0.000439509
0.000438813
0.00043822
0.000437601
0.000437082
0.00043653
0.000436075
0.000435579
0.00043518
0.000434732
0.000434383
0.000433981
0.000433672
0.000433313
0.000433039
0.000432718
0.000432475
0.000432188
0.000431973
0.000431713
0.000431525
0.000431288
0.000431122
0.000430911
0.000430766
0.000430573
0.000430442
0.000430267
0.000430152
0.000430001
0.000429903
0.000429765
0.000429674
0.000429543
0.000429457
0.000429332
0.000429251
0.000429134
0.00042906
0.000428951
0.000428884
0.000428785
0.000428726
0.000428641
0.000428584
0.000428514
0.000428467
0.000428328
0.000428331
0.000428541
0.000438998
0.000459469
0.0010809
0.00102396
0.000932248
0.00085638
0.000792988
0.000740251
0.000696514
0.0006604
0.000630451
0.000605571
0.000584697
0.00056712
0.000552146
0.000539351
0.000528293
0.000518714
0.000510333
0.000502984
0.000496487
0.000490729
0.000485597
0.000481002
0.000476882
0.000473156
0.000469801
0.000466738
0.000463974
0.000461425
0.000459123
0.00045698
0.000455046
0.000453225
0.000451588
0.000450029
0.000448632
0.000447286
0.000446088
0.000444921
0.000443887
0.000442867
0.00044197
0.000441075
0.000440295
0.000439504
0.000438825
0.000438125
0.00043753
0.000436907
0.000436386
0.000435831
0.000435374
0.000434875
0.000434475
0.000434024
0.000433673
0.000433269
0.000432958
0.000432597
0.000432322
0.000431999
0.000431754
0.000431466
0.000431249
0.000430988
0.000430799
0.00043056
0.000430393
0.00043018
0.000430034
0.00042984
0.000429708
0.000429532
0.000429416
0.000429264
0.000429165
0.000429026
0.000428934
0.000428802
0.000428715
0.000428589
0.000428508
0.000428389
0.000428314
0.000428205
0.000428137
0.000428037
0.000427978
0.000427891
0.000427833
0.000427762
0.000427715
0.000427574
0.000427577
0.000427798
0.000438659
0.000458873
0.00106885
0.00102396
0.000932249
0.000856389
0.000792994
0.00074024
0.00069647
0.000660313
0.000630316
0.000605389
0.000584468
0.000566847
0.000551833
0.000539001
0.000527909
0.0005183
0.000509891
0.000502517
0.000495998
0.000490219
0.000485068
0.000480456
0.000476319
0.000472579
0.000469211
0.000466136
0.00046336
0.000460801
0.00045849
0.000456338
0.000454395
0.000452567
0.000450922
0.000449356
0.000447952
0.000446601
0.000445397
0.000444225
0.000443186
0.000442161
0.00044126
0.000440361
0.000439577
0.000438782
0.000438099
0.000437396
0.000436798
0.000436172
0.000435648
0.00043509
0.00043463
0.000434129
0.000433726
0.000433273
0.00043292
0.000432514
0.000432201
0.000431838
0.000431561
0.000431236
0.00043099
0.0004307
0.000430482
0.000430218
0.000430028
0.000429788
0.00042962
0.000429405
0.000429258
0.000429063
0.00042893
0.000428753
0.000428636
0.000428482
0.000428383
0.000428242
0.00042815
0.000428016
0.000427929
0.000427802
0.00042772
0.0004276
0.000427524
0.000427413
0.000427345
0.000427244
0.000427183
0.000427096
0.000427037
0.000426964
0.000426917
0.000426775
0.000426778
0.00042701
0.000438293
0.000458232
0.00105583
0.00102396
0.000932251
0.000856398
0.000793002
0.000740229
0.000696424
0.000660222
0.000630175
0.000605197
0.000584227
0.00056656
0.000551504
0.000538633
0.000527505
0.000517864
0.000509425
0.000502025
0.000495482
0.000489681
0.00048451
0.000479879
0.000475726
0.00047197
0.000468589
0.0004655
0.000462712
0.000460142
0.00045782
0.000455659
0.000453707
0.00045187
0.000450218
0.000448645
0.000447235
0.000445877
0.000444667
0.000443489
0.000442445
0.000441415
0.00044051
0.000439605
0.000438818
0.000438019
0.000437332
0.000436625
0.000436024
0.000435395
0.000434868
0.000434306
0.000433844
0.000433341
0.000432935
0.000432479
0.000432124
0.000431715
0.000431401
0.000431036
0.000430757
0.00043043
0.000430182
0.00042989
0.00042967
0.000429405
0.000429213
0.000428972
0.000428802
0.000428586
0.000428438
0.000428241
0.000428107
0.000427929
0.00042781
0.000427655
0.000427555
0.000427413
0.00042732
0.000427185
0.000427097
0.000426969
0.000426886
0.000426765
0.000426688
0.000426576
0.000426507
0.000426404
0.000426343
0.000426254
0.000426195
0.000426121
0.000426073
0.000425929
0.000425933
0.000426177
0.000437892
0.000457544
0.00104189
0.00102396
0.000932252
0.000856407
0.000793009
0.000740217
0.000696376
0.000660127
0.000630028
0.000604997
0.000583975
0.00056626
0.000551158
0.000538246
0.000527081
0.000517406
0.000508936
0.000501508
0.000494939
0.000489114
0.000483923
0.000479272
0.000475101
0.000471329
0.000467932
0.00046483
0.00046203
0.000459448
0.000457115
0.000454943
0.000452982
0.000451137
0.000449476
0.000447895
0.000446478
0.000445113
0.000443897
0.000442713
0.000441664
0.000440628
0.000439718
0.000438809
0.000438017
0.000437214
0.000436523
0.000435812
0.000435208
0.000434575
0.000434045
0.00043348
0.000433015
0.000432508
0.0004321
0.000431642
0.000431284
0.000430873
0.000430556
0.000430189
0.000429908
0.000429579
0.000429329
0.000429035
0.000428814
0.000428547
0.000428354
0.00042811
0.000427939
0.000427721
0.000427572
0.000427374
0.000427239
0.000427059
0.000426939
0.000426783
0.000426682
0.000426538
0.000426444
0.000426308
0.000426219
0.000426089
0.000426006
0.000425883
0.000425806
0.000425692
0.000425623
0.000425519
0.000425457
0.000425366
0.000425306
0.000425231
0.000425182
0.000425037
0.000425041
0.000425297
0.000437452
0.000456807
0.00102709
0.00102395
0.000932253
0.000856417
0.000793017
0.000740205
0.000696326
0.000660029
0.000629875
0.000604788
0.000583712
0.000565946
0.000550796
0.000537841
0.000526636
0.000516925
0.000508423
0.000500965
0.000494369
0.00048852
0.000483305
0.000478634
0.000474445
0.000470655
0.000467243
0.000464126
0.000461312
0.000458717
0.000456373
0.000454191
0.000452219
0.000450365
0.000448695
0.000447106
0.000445681
0.00044431
0.000443087
0.000441896
0.000440841
0.0004398
0.000438885
0.000437971
0.000437174
0.000436366
0.000435672
0.000434956
0.000434348
0.000433711
0.000433178
0.00043261
0.000432142
0.000431632
0.000431222
0.00043076
0.0004304
0.000429986
0.000429667
0.000429297
0.000429014
0.000428683
0.000428431
0.000428134
0.000427912
0.000427643
0.000427448
0.000427203
0.000427031
0.000426811
0.00042666
0.00042646
0.000426324
0.000426143
0.000426022
0.000425864
0.000425762
0.000425617
0.000425522
0.000425384
0.000425294
0.000425163
0.000425079
0.000424955
0.000424877
0.000424762
0.000424691
0.000424586
0.000424523
0.000424431
0.00042437
0.000424293
0.000424244
0.000424097
0.000424102
0.00042437
0.000436965
0.00045602
0.0010115
0.00102395
0.000932254
0.000856427
0.000793026
0.000740193
0.000696276
0.000659927
0.000629716
0.000604571
0.000583438
0.000565618
0.000550419
0.000537418
0.000526171
0.000516422
0.000507885
0.000500396
0.000493771
0.000487897
0.000482659
0.000477966
0.000473757
0.000469949
0.00046652
0.000463387
0.000460559
0.000457951
0.000455595
0.000453401
0.000451419
0.000449554
0.000447876
0.000446278
0.000444846
0.000443466
0.000442237
0.000441039
0.000439978
0.00043893
0.00043801
0.00043709
0.000436289
0.000435476
0.000434777
0.000434057
0.000433446
0.000432805
0.000432268
0.000431696
0.000431225
0.000430711
0.000430298
0.000429834