/*--------------------------------*- C++ -*----------------------------------*\
| =========                 |                                                 |
| \\      /  F ield         | OpenFOAM: The Open Source CFD Toolbox           |
|  \\    /   O peration     | Version:  v2012                                 |
|   \\  /    A nd           | Website:  www.openfoam.com                      |
|    \\/     M anipulation  |                                                 |
\*---------------------------------------------------------------------------*/
FoamFile
{
    version     2.0;
    format      ascii;
    class       volScalarField;
    location    "52.5";
    object      nut;
}
// * * * * * * * * * * * * * * * * * * * * * * * * * * * * * * * * * * * * * //

dimensions      [0 2 -1 0 0 0 0];


internalField   nonuniform List<scalar> 
209825
(
1.23942e-07
1.23151e-07
1.22338e-07
1.21239e-07
1.19882e-07
1.18364e-07
1.16845e-07
1.1538e-07
1.14044e-07
1.1282e-07
1.1174e-07
1.10762e-07
1.09907e-07
1.09133e-07
1.08457e-07
1.0784e-07
1.07301e-07
1.06805e-07
1.06372e-07
1.05969e-07
1.05616e-07
1.05286e-07
1.04996e-07
1.04723e-07
1.04482e-07
1.04253e-07
1.04051e-07
1.03858e-07
1.03687e-07
1.03524e-07
1.03377e-07
1.03238e-07
1.03112e-07
1.02992e-07
1.02883e-07
1.02779e-07
1.02683e-07
1.02593e-07
1.02509e-07
1.0243e-07
1.02356e-07
1.02287e-07
1.02221e-07
1.0216e-07
1.02101e-07
1.02047e-07
1.01994e-07
1.01948e-07
1.01899e-07
1.01858e-07
1.01813e-07
1.01777e-07
1.01733e-07
1.01703e-07
1.01663e-07
1.01636e-07
1.016e-07
1.01576e-07
1.01544e-07
1.01521e-07
1.01491e-07
1.01469e-07
1.01442e-07
1.01422e-07
1.01396e-07
1.01377e-07
1.01354e-07
1.01338e-07
1.01315e-07
1.01298e-07
1.01277e-07
1.01261e-07
1.01242e-07
1.01229e-07
1.01213e-07
1.01202e-07
1.01187e-07
1.01176e-07
1.0116e-07
1.01149e-07
1.01134e-07
1.01123e-07
1.01109e-07
1.01098e-07
1.01084e-07
1.01071e-07
1.01054e-07
1.01037e-07
1.01023e-07
1.01005e-07
1.00976e-07
1.0096e-07
1.00972e-07
1.01931e-07
1.04492e-07
9.92815e-09
1.23942e-07
1.23151e-07
1.22337e-07
1.21239e-07
1.19882e-07
1.18365e-07
1.16845e-07
1.1538e-07
1.14044e-07
1.12821e-07
1.1174e-07
1.10763e-07
1.09908e-07
1.09133e-07
1.08457e-07
1.0784e-07
1.07302e-07
1.06806e-07
1.06372e-07
1.0597e-07
1.05617e-07
1.05287e-07
1.04996e-07
1.04723e-07
1.04482e-07
1.04254e-07
1.04051e-07
1.03859e-07
1.03688e-07
1.03524e-07
1.03378e-07
1.03238e-07
1.03112e-07
1.02992e-07
1.02883e-07
1.02779e-07
1.02684e-07
1.02593e-07
1.02509e-07
1.02431e-07
1.02356e-07
1.02287e-07
1.02221e-07
1.0216e-07
1.02101e-07
1.02048e-07
1.01994e-07
1.01948e-07
1.01899e-07
1.01859e-07
1.01814e-07
1.01777e-07
1.01733e-07
1.01703e-07
1.01663e-07
1.01636e-07
1.016e-07
1.01576e-07
1.01544e-07
1.01522e-07
1.01492e-07
1.0147e-07
1.01443e-07
1.01422e-07
1.01396e-07
1.01378e-07
1.01355e-07
1.01338e-07
1.01316e-07
1.01298e-07
1.01277e-07
1.01261e-07
1.01243e-07
1.01229e-07
1.01213e-07
1.01202e-07
1.01187e-07
1.01176e-07
1.01161e-07
1.0115e-07
1.01135e-07
1.01123e-07
1.01109e-07
1.01098e-07
1.01084e-07
1.01071e-07
1.01055e-07
1.01037e-07
1.01024e-07
1.01005e-07
1.00977e-07
1.0096e-07
1.00973e-07
1.01933e-07
1.04493e-07
1.02322e-08
1.23942e-07
1.23151e-07
1.22338e-07
1.2124e-07
1.19883e-07
1.18366e-07
1.16847e-07
1.15382e-07
1.14046e-07
1.12822e-07
1.11742e-07
1.10764e-07
1.09909e-07
1.09135e-07
1.08459e-07
1.07842e-07
1.07303e-07
1.06807e-07
1.06373e-07
1.05971e-07
1.05618e-07
1.05287e-07
1.04997e-07
1.04724e-07
1.04483e-07
1.04254e-07
1.04052e-07
1.03859e-07
1.03688e-07
1.03524e-07
1.03378e-07
1.03238e-07
1.03112e-07
1.02992e-07
1.02883e-07
1.02779e-07
1.02684e-07
1.02593e-07
1.02509e-07
1.02431e-07
1.02356e-07
1.02287e-07
1.02221e-07
1.0216e-07
1.02101e-07
1.02047e-07
1.01994e-07
1.01948e-07
1.01899e-07
1.01858e-07
1.01813e-07
1.01777e-07
1.01733e-07
1.01703e-07
1.01663e-07
1.01636e-07
1.016e-07
1.01576e-07
1.01544e-07
1.01521e-07
1.01491e-07
1.01469e-07
1.01442e-07
1.01422e-07
1.01396e-07
1.01377e-07
1.01354e-07
1.01338e-07
1.01315e-07
1.01298e-07
1.01277e-07
1.0126e-07
1.01242e-07
1.01229e-07
1.01213e-07
1.01202e-07
1.01187e-07
1.01176e-07
1.0116e-07
1.01149e-07
1.01134e-07
1.01123e-07
1.01109e-07
1.01098e-07
1.01084e-07
1.01071e-07
1.01054e-07
1.01037e-07
1.01023e-07
1.01005e-07
1.00976e-07
1.00959e-07
1.00972e-07
1.01936e-07
1.04494e-07
1.06097e-08
1.23942e-07
1.23151e-07
1.22338e-07
1.2124e-07
1.19884e-07
1.18368e-07
1.16849e-07
1.15385e-07
1.14049e-07
1.12825e-07
1.11745e-07
1.10767e-07
1.09912e-07
1.09137e-07
1.08461e-07
1.07844e-07
1.07305e-07
1.06809e-07
1.06375e-07
1.05972e-07
1.05619e-07
1.05289e-07
1.04998e-07
1.04725e-07
1.04484e-07
1.04255e-07
1.04052e-07
1.0386e-07
1.03689e-07
1.03525e-07
1.03379e-07
1.03239e-07
1.03113e-07
1.02992e-07
1.02883e-07
1.02779e-07
1.02684e-07
1.02593e-07
1.02509e-07
1.02431e-07
1.02356e-07
1.02287e-07
1.02221e-07
1.0216e-07
1.02101e-07
1.02047e-07
1.01994e-07
1.01948e-07
1.01899e-07
1.01858e-07
1.01813e-07
1.01777e-07
1.01733e-07
1.01703e-07
1.01663e-07
1.01636e-07
1.016e-07
1.01575e-07
1.01544e-07
1.01521e-07
1.01491e-07
1.01469e-07
1.01442e-07
1.01421e-07
1.01395e-07
1.01377e-07
1.01354e-07
1.01337e-07
1.01315e-07
1.01297e-07
1.01276e-07
1.0126e-07
1.01242e-07
1.01228e-07
1.01212e-07
1.01201e-07
1.01186e-07
1.01175e-07
1.0116e-07
1.01148e-07
1.01133e-07
1.01122e-07
1.01108e-07
1.01097e-07
1.01083e-07
1.0107e-07
1.01054e-07
1.01036e-07
1.01023e-07
1.01004e-07
1.00976e-07
1.00959e-07
1.00972e-07
1.01942e-07
1.04495e-07
1.10302e-08
1.23942e-07
1.23151e-07
1.22338e-07
1.21241e-07
1.19886e-07
1.18371e-07
1.16853e-07
1.15388e-07
1.14053e-07
1.12829e-07
1.11749e-07
1.10771e-07
1.09916e-07
1.09141e-07
1.08464e-07
1.07847e-07
1.07308e-07
1.06812e-07
1.06378e-07
1.05975e-07
1.05621e-07
1.05291e-07
1.05e-07
1.04727e-07
1.04485e-07
1.04257e-07
1.04054e-07
1.03861e-07
1.0369e-07
1.03526e-07
1.0338e-07
1.0324e-07
1.03114e-07
1.02993e-07
1.02884e-07
1.0278e-07
1.02684e-07
1.02594e-07
1.0251e-07
1.02431e-07
1.02356e-07
1.02287e-07
1.02221e-07
1.0216e-07
1.02101e-07
1.02047e-07
1.01994e-07
1.01948e-07
1.01899e-07
1.01858e-07
1.01813e-07
1.01776e-07
1.01732e-07
1.01702e-07
1.01663e-07
1.01635e-07
1.01599e-07
1.01575e-07
1.01543e-07
1.01521e-07
1.0149e-07
1.01468e-07
1.01442e-07
1.01421e-07
1.01395e-07
1.01376e-07
1.01354e-07
1.01337e-07
1.01314e-07
1.01297e-07
1.01276e-07
1.01259e-07
1.01241e-07
1.01228e-07
1.01212e-07
1.01201e-07
1.01186e-07
1.01174e-07
1.01159e-07
1.01148e-07
1.01133e-07
1.01122e-07
1.01107e-07
1.01096e-07
1.01082e-07
1.01069e-07
1.01053e-07
1.01036e-07
1.01022e-07
1.01004e-07
1.00975e-07
1.00958e-07
1.00971e-07
1.01949e-07
1.04497e-07
1.14864e-08
1.23942e-07
1.2315e-07
1.22338e-07
1.21242e-07
1.19889e-07
1.18374e-07
1.16857e-07
1.15394e-07
1.14058e-07
1.12835e-07
1.11754e-07
1.10776e-07
1.09921e-07
1.09146e-07
1.08469e-07
1.07851e-07
1.07312e-07
1.06815e-07
1.06381e-07
1.05978e-07
1.05625e-07
1.05294e-07
1.05003e-07
1.04729e-07
1.04488e-07
1.04259e-07
1.04056e-07
1.03863e-07
1.03692e-07
1.03528e-07
1.03381e-07
1.03241e-07
1.03115e-07
1.02994e-07
1.02885e-07
1.02781e-07
1.02685e-07
1.02595e-07
1.02511e-07
1.02432e-07
1.02357e-07
1.02288e-07
1.02222e-07
1.02161e-07
1.02101e-07
1.02048e-07
1.01994e-07
1.01948e-07
1.01899e-07
1.01858e-07
1.01813e-07
1.01777e-07
1.01732e-07
1.01702e-07
1.01663e-07
1.01635e-07
1.01599e-07
1.01575e-07
1.01543e-07
1.0152e-07
1.0149e-07
1.01468e-07
1.01441e-07
1.01421e-07
1.01394e-07
1.01376e-07
1.01353e-07
1.01336e-07
1.01314e-07
1.01296e-07
1.01275e-07
1.01259e-07
1.01241e-07
1.01227e-07
1.01211e-07
1.012e-07
1.01185e-07
1.01174e-07
1.01159e-07
1.01147e-07
1.01132e-07
1.01121e-07
1.01107e-07
1.01096e-07
1.01082e-07
1.01069e-07
1.01052e-07
1.01035e-07
1.01021e-07
1.01003e-07
1.00974e-07
1.00958e-07
1.00971e-07
1.0196e-07
1.04499e-07
1.19773e-08
1.23942e-07
1.2315e-07
1.22338e-07
1.21244e-07
1.19892e-07
1.18379e-07
1.16863e-07
1.154e-07
1.14065e-07
1.12842e-07
1.11761e-07
1.10783e-07
1.09927e-07
1.09152e-07
1.08475e-07
1.07857e-07
1.07317e-07
1.0682e-07
1.06386e-07
1.05982e-07
1.05629e-07
1.05298e-07
1.05006e-07
1.04733e-07
1.04491e-07
1.04262e-07
1.04059e-07
1.03866e-07
1.03694e-07
1.0353e-07
1.03383e-07
1.03243e-07
1.03117e-07
1.02996e-07
1.02887e-07
1.02782e-07
1.02687e-07
1.02596e-07
1.02512e-07
1.02433e-07
1.02358e-07
1.02289e-07
1.02222e-07
1.02161e-07
1.02102e-07
1.02048e-07
1.01995e-07
1.01949e-07
1.01899e-07
1.01859e-07
1.01813e-07
1.01777e-07
1.01733e-07
1.01703e-07
1.01663e-07
1.01635e-07
1.01599e-07
1.01575e-07
1.01543e-07
1.0152e-07
1.0149e-07
1.01468e-07
1.01441e-07
1.01421e-07
1.01394e-07
1.01376e-07
1.01353e-07
1.01336e-07
1.01314e-07
1.01296e-07
1.01275e-07
1.01259e-07
1.0124e-07
1.01227e-07
1.01211e-07
1.012e-07
1.01185e-07
1.01173e-07
1.01158e-07
1.01147e-07
1.01132e-07
1.0112e-07
1.01106e-07
1.01095e-07
1.01081e-07
1.01068e-07
1.01052e-07
1.01035e-07
1.01021e-07
1.01003e-07
1.00974e-07
1.00957e-07
1.00971e-07
1.01972e-07
1.04502e-07
1.25031e-08
1.23942e-07
1.2315e-07
1.22338e-07
1.21246e-07
1.19896e-07
1.18385e-07
1.1687e-07
1.15408e-07
1.14073e-07
1.1285e-07
1.11769e-07
1.10791e-07
1.09935e-07
1.09159e-07
1.08482e-07
1.07863e-07
1.07323e-07
1.06826e-07
1.06391e-07
1.05987e-07
1.05634e-07
1.05302e-07
1.05011e-07
1.04737e-07
1.04495e-07
1.04265e-07
1.04062e-07
1.03869e-07
1.03697e-07
1.03533e-07
1.03386e-07
1.03245e-07
1.03119e-07
1.02998e-07
1.02889e-07
1.02784e-07
1.02688e-07
1.02598e-07
1.02513e-07
1.02434e-07
1.02359e-07
1.0229e-07
1.02224e-07
1.02162e-07
1.02103e-07
1.02049e-07
1.01996e-07
1.01949e-07
1.019e-07
1.01859e-07
1.01814e-07
1.01777e-07
1.01733e-07
1.01703e-07
1.01663e-07
1.01636e-07
1.016e-07
1.01575e-07
1.01543e-07
1.01521e-07
1.0149e-07
1.01468e-07
1.01441e-07
1.01421e-07
1.01394e-07
1.01376e-07
1.01353e-07
1.01336e-07
1.01314e-07
1.01296e-07
1.01275e-07
1.01259e-07
1.0124e-07
1.01227e-07
1.01211e-07
1.01199e-07
1.01184e-07
1.01173e-07
1.01158e-07
1.01146e-07
1.01131e-07
1.0112e-07
1.01106e-07
1.01095e-07
1.01081e-07
1.01068e-07
1.01051e-07
1.01034e-07
1.0102e-07
1.01002e-07
1.00973e-07
1.00957e-07
1.00971e-07
1.01988e-07
1.04506e-07
1.30644e-08
1.23942e-07
1.23149e-07
1.22338e-07
1.21248e-07
1.199e-07
1.18391e-07
1.16878e-07
1.15417e-07
1.14083e-07
1.1286e-07
1.11779e-07
1.108e-07
1.09944e-07
1.09168e-07
1.0849e-07
1.07871e-07
1.07331e-07
1.06833e-07
1.06398e-07
1.05994e-07
1.05639e-07
1.05308e-07
1.05016e-07
1.04741e-07
1.04499e-07
1.04269e-07
1.04066e-07
1.03872e-07
1.03701e-07
1.03536e-07
1.03389e-07
1.03248e-07
1.03122e-07
1.03001e-07
1.02891e-07
1.02787e-07
1.02691e-07
1.026e-07
1.02515e-07
1.02436e-07
1.02361e-07
1.02291e-07
1.02225e-07
1.02164e-07
1.02104e-07
1.0205e-07
1.01997e-07
1.0195e-07
1.01901e-07
1.0186e-07
1.01815e-07
1.01778e-07
1.01734e-07
1.01704e-07
1.01664e-07
1.01636e-07
1.016e-07
1.01575e-07
1.01544e-07
1.01521e-07
1.0149e-07
1.01468e-07
1.01441e-07
1.01421e-07
1.01394e-07
1.01376e-07
1.01353e-07
1.01336e-07
1.01314e-07
1.01296e-07
1.01275e-07
1.01258e-07
1.0124e-07
1.01226e-07
1.0121e-07
1.01199e-07
1.01184e-07
1.01173e-07
1.01157e-07
1.01146e-07
1.01131e-07
1.0112e-07
1.01105e-07
1.01094e-07
1.0108e-07
1.01067e-07
1.01051e-07
1.01034e-07
1.0102e-07
1.01002e-07
1.00973e-07
1.00956e-07
1.00971e-07
1.02007e-07
1.04511e-07
1.36618e-08
1.23942e-07
1.23148e-07
1.22338e-07
1.2125e-07
1.19905e-07
1.18399e-07
1.16887e-07
1.15427e-07
1.14094e-07
1.12871e-07
1.1179e-07
1.10811e-07
1.09954e-07
1.09178e-07
1.08499e-07
1.0788e-07
1.07339e-07
1.06841e-07
1.06405e-07
1.06001e-07
1.05646e-07
1.05314e-07
1.05022e-07
1.04747e-07
1.04504e-07
1.04274e-07
1.04071e-07
1.03877e-07
1.03705e-07
1.0354e-07
1.03393e-07
1.03252e-07
1.03125e-07
1.03004e-07
1.02894e-07
1.02789e-07
1.02693e-07
1.02602e-07
1.02517e-07
1.02438e-07
1.02363e-07
1.02293e-07
1.02227e-07
1.02165e-07
1.02106e-07
1.02052e-07
1.01998e-07
1.01951e-07
1.01902e-07
1.01861e-07
1.01816e-07
1.01779e-07
1.01735e-07
1.01704e-07
1.01664e-07
1.01637e-07
1.01601e-07
1.01576e-07
1.01544e-07
1.01521e-07
1.01491e-07
1.01469e-07
1.01442e-07
1.01421e-07
1.01394e-07
1.01376e-07
1.01353e-07
1.01336e-07
1.01314e-07
1.01296e-07
1.01275e-07
1.01258e-07
1.0124e-07
1.01226e-07
1.0121e-07
1.01199e-07
1.01184e-07
1.01172e-07
1.01157e-07
1.01146e-07
1.0113e-07
1.01119e-07
1.01105e-07
1.01094e-07
1.01079e-07
1.01067e-07
1.01051e-07
1.01034e-07
1.0102e-07
1.01002e-07
1.00972e-07
1.00956e-07
1.00971e-07
1.02029e-07
1.04515e-07
1.42954e-08
1.23942e-07
1.23148e-07
1.22339e-07
1.21253e-07
1.19911e-07
1.18407e-07
1.16897e-07
1.15439e-07
1.14106e-07
1.12883e-07
1.11802e-07
1.10823e-07
1.09966e-07
1.09189e-07
1.0851e-07
1.0789e-07
1.07349e-07
1.0685e-07
1.06414e-07
1.06009e-07
1.05654e-07
1.05321e-07
1.05029e-07
1.04754e-07
1.04511e-07
1.0428e-07
1.04076e-07
1.03882e-07
1.0371e-07
1.03544e-07
1.03397e-07
1.03256e-07
1.03129e-07
1.03007e-07
1.02897e-07
1.02792e-07
1.02696e-07
1.02605e-07
1.0252e-07
1.02441e-07
1.02365e-07
1.02295e-07
1.02229e-07
1.02167e-07
1.02107e-07
1.02054e-07
1.02e-07
1.01953e-07
1.01904e-07
1.01862e-07
1.01817e-07
1.0178e-07
1.01736e-07
1.01705e-07
1.01665e-07
1.01638e-07
1.01601e-07
1.01577e-07
1.01545e-07
1.01522e-07
1.01491e-07
1.01469e-07
1.01442e-07
1.01421e-07
1.01395e-07
1.01376e-07
1.01353e-07
1.01336e-07
1.01314e-07
1.01296e-07
1.01275e-07
1.01258e-07
1.0124e-07
1.01226e-07
1.0121e-07
1.01199e-07
1.01183e-07
1.01172e-07
1.01157e-07
1.01145e-07
1.0113e-07
1.01119e-07
1.01104e-07
1.01093e-07
1.01079e-07
1.01067e-07
1.0105e-07
1.01033e-07
1.01019e-07
1.01002e-07
1.00972e-07
1.00956e-07
1.00971e-07
1.02054e-07
1.04521e-07
1.49643e-08
1.23942e-07
1.23147e-07
1.22339e-07
1.21256e-07
1.19917e-07
1.18416e-07
1.16909e-07
1.15452e-07
1.1412e-07
1.12897e-07
1.11816e-07
1.10837e-07
1.0998e-07
1.09202e-07
1.08522e-07
1.07902e-07
1.0736e-07
1.06861e-07
1.06424e-07
1.06018e-07
1.05663e-07
1.0533e-07
1.05037e-07
1.04761e-07
1.04518e-07
1.04287e-07
1.04082e-07
1.03888e-07
1.03715e-07
1.0355e-07
1.03402e-07
1.03261e-07
1.03133e-07
1.03012e-07
1.02901e-07
1.02796e-07
1.027e-07
1.02608e-07
1.02523e-07
1.02443e-07
1.02368e-07
1.02298e-07
1.02231e-07
1.0217e-07
1.0211e-07
1.02056e-07
1.02002e-07
1.01955e-07
1.01905e-07
1.01864e-07
1.01818e-07
1.01782e-07
1.01737e-07
1.01707e-07
1.01666e-07
1.01639e-07
1.01602e-07
1.01578e-07
1.01545e-07
1.01523e-07
1.01492e-07
1.0147e-07
1.01443e-07
1.01422e-07
1.01395e-07
1.01377e-07
1.01354e-07
1.01336e-07
1.01314e-07
1.01296e-07
1.01275e-07
1.01259e-07
1.0124e-07
1.01226e-07
1.0121e-07
1.01199e-07
1.01183e-07
1.01172e-07
1.01157e-07
1.01145e-07
1.0113e-07
1.01119e-07
1.01104e-07
1.01093e-07
1.01079e-07
1.01066e-07
1.0105e-07
1.01033e-07
1.01019e-07
1.01002e-07
1.00971e-07
1.00956e-07
1.00971e-07
1.02083e-07
1.04526e-07
1.56681e-08
1.23942e-07
1.23146e-07
1.22339e-07
1.21259e-07
1.19924e-07
1.18427e-07
1.16922e-07
1.15466e-07
1.14135e-07
1.12913e-07
1.11832e-07
1.10852e-07
1.09994e-07
1.09216e-07
1.08536e-07
1.07915e-07
1.07372e-07
1.06872e-07
1.06435e-07
1.06029e-07
1.05673e-07
1.05339e-07
1.05045e-07
1.04769e-07
1.04525e-07
1.04294e-07
1.04089e-07
1.03894e-07
1.03721e-07
1.03555e-07
1.03407e-07
1.03266e-07
1.03138e-07
1.03016e-07
1.02906e-07
1.028e-07
1.02704e-07
1.02612e-07
1.02527e-07
1.02447e-07
1.02371e-07
1.02301e-07
1.02234e-07
1.02172e-07
1.02112e-07
1.02058e-07
1.02004e-07
1.01957e-07
1.01907e-07
1.01866e-07
1.0182e-07
1.01783e-07
1.01739e-07
1.01708e-07
1.01668e-07
1.0164e-07
1.01604e-07
1.01579e-07
1.01546e-07
1.01523e-07
1.01493e-07
1.01471e-07
1.01443e-07
1.01423e-07
1.01396e-07
1.01377e-07
1.01354e-07
1.01337e-07
1.01314e-07
1.01297e-07
1.01275e-07
1.01259e-07
1.0124e-07
1.01227e-07
1.0121e-07
1.01199e-07
1.01183e-07
1.01172e-07
1.01157e-07
1.01145e-07
1.0113e-07
1.01118e-07
1.01104e-07
1.01093e-07
1.01078e-07
1.01066e-07
1.0105e-07
1.01033e-07
1.01019e-07
1.01002e-07
1.00971e-07
1.00956e-07
1.00972e-07
1.02116e-07
1.04532e-07
1.64088e-08
1.23941e-07
1.23145e-07
1.22339e-07
1.21262e-07
1.19931e-07
1.18438e-07
1.16936e-07
1.15482e-07
1.14152e-07
1.1293e-07
1.11849e-07
1.10869e-07
1.10011e-07
1.09231e-07
1.08551e-07
1.07929e-07
1.07386e-07
1.06885e-07
1.06447e-07
1.0604e-07
1.05683e-07
1.05349e-07
1.05055e-07
1.04778e-07
1.04534e-07
1.04302e-07
1.04097e-07
1.03902e-07
1.03728e-07
1.03562e-07
1.03414e-07
1.03272e-07
1.03144e-07
1.03021e-07
1.02911e-07
1.02805e-07
1.02708e-07
1.02616e-07
1.02531e-07
1.02451e-07
1.02375e-07
1.02304e-07
1.02237e-07
1.02175e-07
1.02115e-07
1.02061e-07
1.02006e-07
1.01959e-07
1.01909e-07
1.01868e-07
1.01822e-07
1.01785e-07
1.0174e-07
1.0171e-07
1.01669e-07
1.01641e-07
1.01605e-07
1.0158e-07
1.01548e-07
1.01525e-07
1.01494e-07
1.01472e-07
1.01444e-07
1.01423e-07
1.01397e-07
1.01378e-07
1.01355e-07
1.01338e-07
1.01315e-07
1.01297e-07
1.01276e-07
1.01259e-07
1.01241e-07
1.01227e-07
1.0121e-07
1.01199e-07
1.01184e-07
1.01172e-07
1.01157e-07
1.01145e-07
1.0113e-07
1.01118e-07
1.01104e-07
1.01093e-07
1.01078e-07
1.01066e-07
1.0105e-07
1.01033e-07
1.01019e-07
1.01002e-07
1.00971e-07
1.00956e-07
1.00973e-07
1.02153e-07
1.04537e-07
1.71889e-08
1.23941e-07
1.23144e-07
1.2234e-07
1.21266e-07
1.1994e-07
1.1845e-07
1.16951e-07
1.15499e-07
1.1417e-07
1.12949e-07
1.11868e-07
1.10887e-07
1.10028e-07
1.09249e-07
1.08567e-07
1.07945e-07
1.07401e-07
1.06899e-07
1.06461e-07
1.06053e-07
1.05695e-07
1.0536e-07
1.05066e-07
1.04788e-07
1.04544e-07
1.04311e-07
1.04106e-07
1.0391e-07
1.03736e-07
1.03569e-07
1.0342e-07
1.03278e-07
1.0315e-07
1.03027e-07
1.02916e-07
1.0281e-07
1.02713e-07
1.02621e-07
1.02535e-07
1.02455e-07
1.02379e-07
1.02308e-07
1.02241e-07
1.02179e-07
1.02118e-07
1.02064e-07
1.02009e-07
1.01962e-07
1.01912e-07
1.01871e-07
1.01824e-07
1.01787e-07
1.01742e-07
1.01712e-07
1.01671e-07
1.01643e-07
1.01607e-07
1.01581e-07
1.01549e-07
1.01526e-07
1.01495e-07
1.01473e-07
1.01445e-07
1.01425e-07
1.01398e-07
1.01379e-07
1.01355e-07
1.01338e-07
1.01316e-07
1.01298e-07
1.01276e-07
1.0126e-07
1.01241e-07
1.01227e-07
1.01211e-07
1.01199e-07
1.01184e-07
1.01172e-07
1.01157e-07
1.01145e-07
1.0113e-07
1.01118e-07
1.01104e-07
1.01092e-07
1.01078e-07
1.01066e-07
1.0105e-07
1.01033e-07
1.01018e-07
1.01002e-07
1.00971e-07
1.00956e-07
1.00974e-07
1.02193e-07
1.04542e-07
1.80109e-08
1.23941e-07
1.23143e-07
1.2234e-07
1.2127e-07
1.19948e-07
1.18463e-07
1.16968e-07
1.15518e-07
1.1419e-07
1.12969e-07
1.11888e-07
1.10907e-07
1.10048e-07
1.09267e-07
1.08585e-07
1.07962e-07
1.07417e-07
1.06915e-07
1.06475e-07
1.06067e-07
1.05708e-07
1.05373e-07
1.05078e-07
1.04799e-07
1.04554e-07
1.04321e-07
1.04115e-07
1.03919e-07
1.03744e-07
1.03577e-07
1.03428e-07
1.03285e-07
1.03157e-07
1.03034e-07
1.02922e-07
1.02816e-07
1.02718e-07
1.02626e-07
1.0254e-07
1.02459e-07
1.02383e-07
1.02312e-07
1.02245e-07
1.02183e-07
1.02122e-07
1.02067e-07
1.02012e-07
1.01965e-07
1.01915e-07
1.01873e-07
1.01827e-07
1.0179e-07
1.01745e-07
1.01714e-07
1.01673e-07
1.01645e-07
1.01608e-07
1.01583e-07
1.01551e-07
1.01527e-07
1.01497e-07
1.01474e-07
1.01447e-07
1.01426e-07
1.01399e-07
1.0138e-07
1.01356e-07
1.01339e-07
1.01317e-07
1.01299e-07
1.01277e-07
1.01261e-07
1.01242e-07
1.01228e-07
1.01211e-07
1.012e-07
1.01184e-07
1.01173e-07
1.01157e-07
1.01145e-07
1.0113e-07
1.01118e-07
1.01104e-07
1.01092e-07
1.01078e-07
1.01066e-07
1.0105e-07
1.01034e-07
1.01018e-07
1.01002e-07
1.00971e-07
1.00956e-07
1.00975e-07
1.02238e-07
1.04546e-07
1.88773e-08
1.23941e-07
1.23142e-07
1.2234e-07
1.21274e-07
1.19958e-07
1.18477e-07
1.16985e-07
1.15538e-07
1.14211e-07
1.12991e-07
1.1191e-07
1.10929e-07
1.10069e-07
1.09287e-07
1.08605e-07
1.0798e-07
1.07434e-07
1.06931e-07
1.06491e-07
1.06082e-07
1.05723e-07
1.05386e-07
1.0509e-07
1.04812e-07
1.04565e-07
1.04332e-07
1.04125e-07
1.03928e-07
1.03753e-07
1.03586e-07
1.03436e-07
1.03293e-07
1.03164e-07
1.03041e-07
1.02929e-07
1.02822e-07
1.02724e-07
1.02632e-07
1.02546e-07
1.02465e-07
1.02388e-07
1.02317e-07
1.02249e-07
1.02187e-07
1.02126e-07
1.02071e-07
1.02016e-07
1.01968e-07
1.01918e-07
1.01876e-07
1.0183e-07
1.01793e-07
1.01747e-07
1.01716e-07
1.01676e-07
1.01647e-07
1.01611e-07
1.01585e-07
1.01553e-07
1.01529e-07
1.01498e-07
1.01476e-07
1.01448e-07
1.01427e-07
1.014e-07
1.01381e-07
1.01358e-07
1.0134e-07
1.01318e-07
1.013e-07
1.01278e-07
1.01262e-07
1.01242e-07
1.01229e-07
1.01212e-07
1.012e-07
1.01185e-07
1.01173e-07
1.01157e-07
1.01146e-07
1.0113e-07
1.01119e-07
1.01104e-07
1.01092e-07
1.01077e-07
1.01066e-07
1.0105e-07
1.01034e-07
1.01019e-07
1.01002e-07
1.00971e-07
1.00957e-07
1.00976e-07
1.02287e-07
1.00326e-07
1.97911e-08
1.23941e-07
1.23141e-07
1.2234e-07
1.21279e-07
1.19968e-07
1.18492e-07
1.17004e-07
1.15559e-07
1.14234e-07
1.13015e-07
1.11933e-07
1.10952e-07
1.10091e-07
1.09309e-07
1.08626e-07
1.08e-07
1.07453e-07
1.06949e-07
1.06508e-07
1.06098e-07
1.05738e-07
1.05401e-07
1.05104e-07
1.04825e-07
1.04578e-07
1.04344e-07
1.04136e-07
1.03939e-07
1.03763e-07
1.03595e-07
1.03445e-07
1.03302e-07
1.03172e-07
1.03048e-07
1.02936e-07
1.02829e-07
1.02731e-07
1.02638e-07
1.02551e-07
1.0247e-07
1.02393e-07
1.02322e-07
1.02254e-07
1.02191e-07
1.0213e-07
1.02075e-07
1.0202e-07
1.01972e-07
1.01922e-07
1.0188e-07
1.01833e-07
1.01796e-07
1.0175e-07
1.01719e-07
1.01678e-07
1.0165e-07
1.01613e-07
1.01587e-07
1.01555e-07
1.01531e-07
1.015e-07
1.01477e-07
1.0145e-07
1.01429e-07
1.01402e-07
1.01383e-07
1.01359e-07
1.01342e-07
1.01319e-07
1.01301e-07
1.01279e-07
1.01263e-07
1.01243e-07
1.01229e-07
1.01213e-07
1.01201e-07
1.01185e-07
1.01174e-07
1.01158e-07
1.01146e-07
1.0113e-07
1.01119e-07
1.01104e-07
1.01093e-07
1.01078e-07
1.01066e-07
1.0105e-07
1.01034e-07
1.01019e-07
1.01003e-07
1.00971e-07
1.00957e-07
1.00978e-07
1.0234e-07
9.46822e-08
2.07551e-08
1.23941e-07
1.23139e-07
1.2234e-07
1.21284e-07
1.19979e-07
1.18508e-07
1.17025e-07
1.15582e-07
1.14259e-07
1.1304e-07
1.11959e-07
1.10977e-07
1.10116e-07
1.09333e-07
1.08648e-07
1.08022e-07
1.07474e-07
1.06969e-07
1.06527e-07
1.06115e-07
1.05755e-07
1.05416e-07
1.05119e-07
1.04839e-07
1.04591e-07
1.04356e-07
1.04148e-07
1.0395e-07
1.03774e-07
1.03606e-07
1.03455e-07
1.03311e-07
1.03181e-07
1.03057e-07
1.02944e-07
1.02837e-07
1.02738e-07
1.02645e-07
1.02558e-07
1.02476e-07
1.02399e-07
1.02328e-07
1.02259e-07
1.02196e-07
1.02135e-07
1.0208e-07
1.02024e-07
1.01976e-07
1.01926e-07
1.01883e-07
1.01837e-07
1.01799e-07
1.01754e-07
1.01722e-07
1.01681e-07
1.01653e-07
1.01616e-07
1.0159e-07
1.01557e-07
1.01533e-07
1.01502e-07
1.0148e-07
1.01452e-07
1.01431e-07
1.01404e-07
1.01384e-07
1.0136e-07
1.01343e-07
1.0132e-07
1.01302e-07
1.0128e-07
1.01264e-07
1.01244e-07
1.01231e-07
1.01213e-07
1.01202e-07
1.01186e-07
1.01174e-07
1.01158e-07
1.01147e-07
1.01131e-07
1.01119e-07
1.01104e-07
1.01093e-07
1.01078e-07
1.01066e-07
1.01051e-07
1.01035e-07
1.01019e-07
1.01003e-07
1.00971e-07
1.00958e-07
1.00979e-07
1.02398e-07
8.96494e-08
2.17725e-08
1.23941e-07
1.23138e-07
1.22341e-07
1.21289e-07
1.1999e-07
1.18525e-07
1.17046e-07
1.15607e-07
1.14285e-07
1.13067e-07
1.11986e-07
1.11003e-07
1.10142e-07
1.09358e-07
1.08672e-07
1.08045e-07
1.07496e-07
1.0699e-07
1.06547e-07
1.06134e-07
1.05773e-07
1.05433e-07
1.05135e-07
1.04854e-07
1.04606e-07
1.0437e-07
1.04161e-07
1.03963e-07
1.03786e-07
1.03617e-07
1.03465e-07
1.03321e-07
1.0319e-07
1.03066e-07
1.02953e-07
1.02845e-07
1.02746e-07
1.02652e-07
1.02565e-07
1.02483e-07
1.02406e-07
1.02334e-07
1.02265e-07
1.02202e-07
1.0214e-07
1.02085e-07
1.02029e-07
1.01981e-07
1.0193e-07
1.01888e-07
1.01841e-07
1.01803e-07
1.01757e-07
1.01726e-07
1.01684e-07
1.01656e-07
1.01618e-07
1.01593e-07
1.0156e-07
1.01536e-07
1.01505e-07
1.01482e-07
1.01454e-07
1.01433e-07
1.01405e-07
1.01386e-07
1.01362e-07
1.01345e-07
1.01322e-07
1.01304e-07
1.01282e-07
1.01265e-07
1.01246e-07
1.01232e-07
1.01214e-07
1.01203e-07
1.01187e-07
1.01175e-07
1.01159e-07
1.01147e-07
1.01131e-07
1.0112e-07
1.01105e-07
1.01093e-07
1.01078e-07
1.01066e-07
1.01051e-07
1.01035e-07
1.01019e-07
1.01004e-07
1.00972e-07
1.00958e-07
1.00981e-07
1.0246e-07
8.51565e-08
2.28463e-08
1.2394e-07
1.23137e-07
1.22341e-07
1.21294e-07
1.20002e-07
1.18543e-07
1.17069e-07
1.15633e-07
1.14313e-07
1.13095e-07
1.12015e-07
1.11032e-07
1.10169e-07
1.09384e-07
1.08698e-07
1.08069e-07
1.07519e-07
1.07012e-07
1.06568e-07
1.06154e-07
1.05792e-07
1.05451e-07
1.05152e-07
1.0487e-07
1.04621e-07
1.04385e-07
1.04175e-07
1.03976e-07
1.03799e-07
1.03629e-07
1.03477e-07
1.03332e-07
1.03201e-07
1.03076e-07
1.02962e-07
1.02854e-07
1.02754e-07
1.0266e-07
1.02573e-07
1.0249e-07
1.02413e-07
1.0234e-07
1.02271e-07
1.02208e-07
1.02146e-07
1.0209e-07
1.02034e-07
1.01986e-07
1.01935e-07
1.01892e-07
1.01845e-07
1.01807e-07
1.01761e-07
1.01729e-07
1.01688e-07
1.01659e-07
1.01622e-07
1.01596e-07
1.01562e-07
1.01539e-07
1.01507e-07
1.01484e-07
1.01456e-07
1.01435e-07
1.01408e-07
1.01388e-07
1.01364e-07
1.01347e-07
1.01324e-07
1.01306e-07
1.01284e-07
1.01267e-07
1.01247e-07
1.01233e-07
1.01216e-07
1.01204e-07
1.01188e-07
1.01176e-07
1.0116e-07
1.01148e-07
1.01132e-07
1.01121e-07
1.01105e-07
1.01094e-07
1.01078e-07
1.01067e-07
1.01052e-07
1.01036e-07
1.0102e-07
1.01004e-07
1.00972e-07
1.00959e-07
1.00984e-07
1.02527e-07
8.11411e-08
2.39798e-08
1.2394e-07
1.23135e-07
1.22341e-07
1.21299e-07
1.20014e-07
1.18562e-07
1.17093e-07
1.1566e-07
1.14343e-07
1.13126e-07
1.12045e-07
1.11062e-07
1.10199e-07
1.09413e-07
1.08725e-07
1.08095e-07
1.07545e-07
1.07036e-07
1.06591e-07
1.06176e-07
1.05812e-07
1.05471e-07
1.05171e-07
1.04888e-07
1.04638e-07
1.044e-07
1.0419e-07
1.0399e-07
1.03812e-07
1.03641e-07
1.03489e-07
1.03343e-07
1.03212e-07
1.03086e-07
1.02972e-07
1.02863e-07
1.02763e-07
1.02669e-07
1.02581e-07
1.02498e-07
1.0242e-07
1.02348e-07
1.02278e-07
1.02214e-07
1.02152e-07
1.02096e-07
1.0204e-07
1.01991e-07
1.0194e-07
1.01897e-07
1.01849e-07
1.01812e-07
1.01765e-07
1.01733e-07
1.01692e-07
1.01663e-07
1.01625e-07
1.01599e-07
1.01566e-07
1.01542e-07
1.0151e-07
1.01487e-07
1.01459e-07
1.01438e-07
1.0141e-07
1.0139e-07
1.01366e-07
1.01349e-07
1.01326e-07
1.01308e-07
1.01285e-07
1.01269e-07
1.01249e-07
1.01235e-07
1.01217e-07
1.01205e-07
1.01189e-07
1.01177e-07
1.01161e-07
1.01149e-07
1.01133e-07
1.01121e-07
1.01106e-07
1.01095e-07
1.01079e-07
1.01067e-07
1.01052e-07
1.01037e-07
1.0102e-07
1.01005e-07
1.00973e-07
1.0096e-07
1.00986e-07
1.02597e-07
7.75498e-08
2.51759e-08
1.2394e-07
1.23133e-07
1.22341e-07
1.21305e-07
1.20027e-07
1.18582e-07
1.17118e-07
1.15689e-07
1.14374e-07
1.13158e-07
1.12078e-07
1.11094e-07
1.1023e-07
1.09443e-07
1.08755e-07
1.08123e-07
1.07571e-07
1.07061e-07
1.06615e-07
1.06199e-07
1.05834e-07
1.05492e-07
1.05191e-07
1.04906e-07
1.04656e-07
1.04417e-07
1.04206e-07
1.04005e-07
1.03826e-07
1.03655e-07
1.03502e-07
1.03355e-07
1.03224e-07
1.03097e-07
1.02983e-07
1.02873e-07
1.02773e-07
1.02678e-07
1.0259e-07
1.02507e-07
1.02428e-07
1.02355e-07
1.02286e-07
1.02221e-07
1.02159e-07
1.02102e-07
1.02046e-07
1.01997e-07
1.01945e-07
1.01902e-07
1.01855e-07
1.01816e-07
1.0177e-07
1.01738e-07
1.01696e-07
1.01667e-07
1.01629e-07
1.01603e-07
1.01569e-07
1.01545e-07
1.01514e-07
1.0149e-07
1.01462e-07
1.0144e-07
1.01413e-07
1.01393e-07
1.01369e-07
1.01351e-07
1.01328e-07
1.0131e-07
1.01287e-07
1.01271e-07
1.01251e-07
1.01236e-07
1.01219e-07
1.01207e-07
1.0119e-07
1.01178e-07
1.01162e-07
1.0115e-07
1.01134e-07
1.01122e-07
1.01107e-07
1.01095e-07
1.0108e-07
1.01068e-07
1.01053e-07
1.01037e-07
1.01021e-07
1.01006e-07
1.00974e-07
1.00961e-07
1.00989e-07
1.02671e-07
7.43374e-08
2.64375e-08
1.2394e-07
1.23132e-07
1.22341e-07
1.21311e-07
1.20041e-07
1.18603e-07
1.17145e-07
1.1572e-07
1.14407e-07
1.13192e-07
1.12112e-07
1.11128e-07
1.10263e-07
1.09475e-07
1.08785e-07
1.08153e-07
1.076e-07
1.07088e-07
1.0664e-07
1.06223e-07
1.05857e-07
1.05514e-07
1.05212e-07
1.04926e-07
1.04675e-07
1.04435e-07
1.04223e-07
1.04021e-07
1.03842e-07
1.0367e-07
1.03516e-07
1.03369e-07
1.03236e-07
1.03109e-07
1.02994e-07
1.02884e-07
1.02784e-07
1.02688e-07
1.02599e-07
1.02516e-07
1.02437e-07
1.02363e-07
1.02293e-07
1.02229e-07
1.02166e-07
1.02109e-07
1.02052e-07
1.02003e-07
1.01951e-07
1.01908e-07
1.0186e-07
1.01822e-07
1.01775e-07
1.01743e-07
1.01701e-07
1.01671e-07
1.01633e-07
1.01607e-07
1.01573e-07
1.01549e-07
1.01517e-07
1.01494e-07
1.01465e-07
1.01443e-07
1.01416e-07
1.01396e-07
1.01371e-07
1.01354e-07
1.0133e-07
1.01312e-07
1.0129e-07
1.01273e-07
1.01253e-07
1.01238e-07
1.01221e-07
1.01208e-07
1.01192e-07
1.0118e-07
1.01163e-07
1.01151e-07
1.01135e-07
1.01123e-07
1.01108e-07
1.01096e-07
1.0108e-07
1.01069e-07
1.01054e-07
1.01038e-07
1.01022e-07
1.01007e-07
1.00975e-07
1.00963e-07
1.00992e-07
1.02746e-07
7.14651e-08
2.77671e-08
1.2394e-07
1.2313e-07
1.22341e-07
1.21317e-07
1.20055e-07
1.18625e-07
1.17173e-07
1.15752e-07
1.14441e-07
1.13228e-07
1.12148e-07
1.11164e-07
1.10298e-07
1.09509e-07
1.08818e-07
1.08184e-07
1.0763e-07
1.07117e-07
1.06668e-07
1.06249e-07
1.05882e-07
1.05537e-07
1.05234e-07
1.04947e-07
1.04695e-07
1.04454e-07
1.04242e-07
1.04039e-07
1.03858e-07
1.03685e-07
1.03531e-07
1.03383e-07
1.0325e-07
1.03122e-07
1.03006e-07
1.02896e-07
1.02795e-07
1.02698e-07
1.02609e-07
1.02525e-07
1.02446e-07
1.02372e-07
1.02302e-07
1.02237e-07
1.02174e-07
1.02117e-07
1.02059e-07
1.0201e-07
1.01958e-07
1.01914e-07
1.01866e-07
1.01827e-07
1.01781e-07
1.01748e-07
1.01706e-07
1.01676e-07
1.01638e-07
1.01611e-07
1.01577e-07
1.01553e-07
1.01521e-07
1.01497e-07
1.01468e-07
1.01447e-07
1.01419e-07
1.01399e-07
1.01374e-07
1.01356e-07
1.01333e-07
1.01315e-07
1.01292e-07
1.01275e-07
1.01255e-07
1.01241e-07
1.01223e-07
1.0121e-07
1.01193e-07
1.01182e-07
1.01165e-07
1.01153e-07
1.01137e-07
1.01125e-07
1.01109e-07
1.01097e-07
1.01081e-07
1.01069e-07
1.01055e-07
1.0104e-07
1.01023e-07
1.01008e-07
1.00976e-07
1.00964e-07
1.00995e-07
1.02823e-07
6.88998e-08
2.91666e-08
1.2394e-07
1.23128e-07
1.22341e-07
1.21323e-07
1.20069e-07
1.18648e-07
1.17202e-07
1.15785e-07
1.14478e-07
1.13266e-07
1.12186e-07
1.11201e-07
1.10335e-07
1.09545e-07
1.08853e-07
1.08217e-07
1.07661e-07
1.07147e-07
1.06697e-07
1.06277e-07
1.05908e-07
1.05562e-07
1.05257e-07
1.0497e-07
1.04716e-07
1.04475e-07
1.04261e-07
1.04057e-07
1.03876e-07
1.03702e-07
1.03547e-07
1.03398e-07
1.03264e-07
1.03136e-07
1.0302e-07
1.02908e-07
1.02807e-07
1.0271e-07
1.0262e-07
1.02536e-07
1.02456e-07
1.02382e-07
1.02311e-07
1.02246e-07
1.02182e-07
1.02125e-07
1.02067e-07
1.02017e-07
1.01965e-07
1.01921e-07