/*--------------------------------*- C++ -*----------------------------------*\
| =========                 |                                                 |
| \\      /  F ield         | OpenFOAM: The Open Source CFD Toolbox           |
|  \\    /   O peration     | Version:  v2012                                 |
|   \\  /    A nd           | Website:  www.openfoam.com                      |
|    \\/     M anipulation  |                                                 |
\*---------------------------------------------------------------------------*/
FoamFile
{
    version     2.0;
    format      ascii;
    class       volScalarField;
    location    "52.5";
    object      omega;
}
// * * * * * * * * * * * * * * * * * * * * * * * * * * * * * * * * * * * * * //

dimensions      [0 0 -1 0 0 0 0];


internalField   nonuniform List<scalar> 
209825
(
8261.77
7569.81
6999.44
6540.22
6175.9
5888.28
5659.28
5475.44
5325.36
5201.9
5098.49
5011.63
4937.24
4873.75
4818.35
4770.5
4728.07
4691.11
4657.85
4628.71
4602.12
4578.76
4557.17
4538.16
4520.36
4504.72
4489.89
4476.87
4464.36
4453.44
4442.81
4433.57
4424.46
4416.6
4408.73
4402
4395.18
4389.4
4383.45
4378.44
4373.26
4368.91
4364.33
4360.57
4356.55
4353.26
4349.71
4346.8
4343.69
4341.14
4338.41
4336.21
4333.87
4331.87
4329.79
4328.05
4326.21
4324.69
4323.03
4321.71
4320.32
4319.24
4317.96
4317.07
4315.98
4315.22
4314.22
4313.59
4312.73
4312.26
4311.54
4311.15
4310.54
4310.21
4309.62
4309.26
4308.69
4308.38
4307.88
4307.63
4307.2
4307
4306.62
4306.5
4306.2
4306.25
4306.19
4306.41
4306.41
4306.78
4306.78
4307.48
4308.2
4336.45
4445.08
113094
8261.77
7569.82
6999.44
6540.22
6175.89
5888.26
5659.25
5475.39
5325.3
5201.84
5098.42
5011.55
4937.16
4873.66
4818.26
4770.41
4727.97
4691.01
4657.74
4628.61
4602.02
4578.66
4557.06
4538.05
4520.25
4504.6
4489.77
4476.75
4464.24
4453.32
4442.69
4433.45
4424.34
4416.47
4408.6
4401.88
4395.06
4389.27
4383.32
4378.31
4373.13
4368.78
4364.2
4360.44
4356.42
4353.13
4349.58
4346.66
4343.56
4341.01
4338.28
4336.08
4333.74
4331.74
4329.65
4327.92
4326.08
4324.55
4322.89
4321.58
4320.18
4319.1
4317.82
4316.94
4315.84
4315.09
4314.08
4313.45
4312.59
4312.12
4311.4
4311.01
4310.4
4310.07
4309.48
4309.12
4308.56
4308.24
4307.74
4307.49
4307.06
4306.86
4306.48
4306.36
4306.06
4306.11
4306.05
4306.27
4306.27
4306.64
4306.64
4307.33
4308.06
4336.36
4444.98
109796
8261.77
7569.82
6999.45
6540.2
6175.84
5888.18
5659.13
5475.24
5325.12
5201.64
5098.19
5011.3
4936.89
4873.38
4817.96
4770.1
4727.65
4690.68
4657.4
4628.26
4601.66
4578.29
4556.69
4537.67
4519.87
4504.22
4489.38
4476.36
4463.85
4452.92
4442.28
4433.04
4423.93
4416.06
4408.19
4401.46
4394.64
4388.85
4382.9
4377.88
4372.7
4368.35
4363.77
4360
4355.98
4352.69
4349.14
4346.23
4343.12
4340.57
4337.84
4335.64
4333.3
4331.3
4329.21
4327.47
4325.63
4324.11
4322.45
4321.13
4319.74
4318.65
4317.37
4316.49
4315.39
4314.63
4313.63
4313
4312.14
4311.67
4310.95
4310.56
4309.95
4309.62
4309.03
4308.67
4308.1
4307.79
4307.29
4307.04
4306.6
4306.41
4306.03
4305.9
4305.6
4305.65
4305.59
4305.81
4305.81
4306.18
4306.18
4306.87
4307.6
4335.99
4444.6
106009
8261.77
7569.83
6999.45
6540.17
6175.75
5888.03
5658.92
5474.98
5324.81
5201.28
5097.79
5010.87
4936.42
4872.89
4817.44
4769.56
4727.09
4690.11
4656.82
4627.66
4601.05
4577.67
4556.05
4537.03
4519.21
4503.56
4488.71
4475.68
4463.16
4452.24
4441.59
4432.35
4423.23
4415.36
4407.48
4400.74
4393.92
4388.13
4382.17
4377.15
4371.97
4367.62
4363.03
4359.27
4355.24
4351.95
4348.4
4345.48
4342.37
4339.82
4337.09
4334.88
4332.54
4330.54
4328.45
4326.72
4324.87
4323.34
4321.69
4320.37
4318.97
4317.89
4316.6
4315.72
4314.62
4313.86
4312.86
4312.22
4311.37
4310.89
4310.17
4309.78
4309.17
4308.84
4308.25
4307.89
4307.32
4307.01
4306.51
4306.25
4305.82
4305.62
4305.24
4305.12
4304.82
4304.86
4304.8
4305.02
4305.02
4305.39
4305.39
4306.08
4306.81
4335.36
4443.94
102115
8261.77
7569.85
6999.46
6540.13
6175.63
5887.82
5658.62
5474.6
5324.36
5200.76
5097.22
5010.25
4935.76
4872.19
4816.71
4768.8
4726.3
4689.29
4655.98
4626.8
4600.17
4576.78
4555.15
4536.11
4518.28
4502.62
4487.76
4474.72
4462.19
4451.26
4440.61
4431.35
4422.23
4414.35
4406.46
4399.73
4392.9
4387.1
4381.14
4376.12
4370.93
4366.57
4361.98
4358.22
4354.19
4350.89
4347.34
4344.42
4341.3
4338.75
4336.02
4333.81
4331.47
4329.46
4327.37
4325.63
4323.79
4322.26
4320.6
4319.28
4317.88
4316.79
4315.51
4314.62
4313.52
4312.77
4311.76
4311.12
4310.27
4309.79
4309.07
4308.68
4308.07
4307.73
4307.14
4306.78
4306.21
4305.9
4305.4
4305.14
4304.71
4304.51
4304.13
4304
4303.7
4303.74
4303.68
4303.9
4303.9
4304.26
4304.26
4304.95
4305.69
4334.44
4443
98217.4
8261.77
7569.87
6999.47
6540.07
6175.47
5887.55
5658.23
5474.11
5323.77
5200.09
5096.48
5009.44
4934.9
4871.28
4815.75
4767.8
4725.27
4688.23
4654.89
4625.68
4599.03
4575.62
4553.97
4534.91
4517.07
4501.39
4486.52
4473.47
4460.93
4449.98
4439.32
4430.06
4420.92
4413.04
4405.14
4398.4
4391.56
4385.76
4379.79
4374.77
4369.57
4365.21
4360.62
4356.85
4352.81
4349.51
4345.95
4343.03
4339.91
4337.36
4334.62
4332.41
4330.06
4328.06
4325.96
4324.22
4322.38
4320.84
4319.18
4317.86
4316.46
4315.37
4314.08
4313.19
4312.09
4311.33
4310.32
4309.69
4308.83
4308.35
4307.63
4307.24
4306.62
4306.29
4305.7
4305.33
4304.76
4304.45
4303.95
4303.69
4303.25
4303.06
4302.67
4302.54
4302.24
4302.28
4302.22
4302.43
4302.43
4302.79
4302.79
4303.47
4304.22
4333.25
4441.77
94357.5
8261.77
7569.9
6999.48
6540
6175.28
5887.21
5657.76
5473.5
5323.05
5199.27
5095.56
5008.45
4933.83
4870.15
4814.57
4766.57
4724
4686.91
4653.54
4624.3
4597.62
4574.18
4552.51
4533.43
4515.57
4499.87
4484.98
4471.92
4459.36
4448.4
4437.73
4428.45
4419.31
4411.41
4403.51
4396.76
4389.91
4384.1
4378.13
4373.09
4367.89
4363.53
4358.92
4355.15
4351.11
4347.81
4344.24
4341.32
4338.19
4335.64
4332.89
4330.68
4328.32
4326.32
4324.22
4322.48
4320.63
4319.09
4317.42
4316.1
4314.7
4313.61
4312.32
4311.43
4310.32
4309.56
4308.55
4307.91
4307.05
4306.57
4305.84
4305.45
4304.84
4304.5
4303.91
4303.54
4302.97
4302.65
4302.15
4301.89
4301.46
4301.26
4300.87
4300.74
4300.44
4300.47
4300.4
4300.61
4300.61
4300.96
4300.96
4301.64
4302.4
4331.77
4440.25
90553.6
8261.77
7569.93
6999.49
6539.92
6175.04
5886.81
5657.19
5472.77
5322.18
5198.28
5094.46
5007.25
4932.55
4868.8
4813.15
4765.1
4722.47
4685.34
4651.92
4622.65
4595.93
4572.46
4550.76
4531.66
4513.77
4498.05
4483.14
4470.06
4457.49
4446.51
4435.82
4426.54
4417.37
4409.47
4401.56
4394.79
4387.94
4382.12
4376.13
4371.09
4365.88
4361.51
4356.9
4353.12
4349.07
4345.76
4342.19
4339.26
4336.13
4333.57
4330.82
4328.6
4326.25
4324.23
4322.13
4320.39
4318.53
4317
4315.32
4314
4312.59
4311.5
4310.2
4309.31
4308.2
4307.44
4306.42
4305.78
4304.92
4304.44
4303.71
4303.31
4302.7
4302.36
4301.76
4301.4
4300.83
4300.51
4300
4299.74
4299.3
4299.1
4298.71
4298.58
4298.28
4298.3
4298.23
4298.44
4298.43
4298.78
4298.78
4299.46
4300.23
4330.01
4438.44
86814.5
8261.77
7569.97
6999.51
6539.82
6174.77
5886.34
5656.52
5471.93
5321.17
5197.13
5093.18
5005.86
4931.06
4867.22
4811.5
4763.38
4720.69
4683.51
4650.04
4620.72
4593.97
4570.46
4548.72
4529.59
4511.68
4495.93
4481
4467.89
4455.3
4444.3
4433.6
4424.3
4415.12
4407.2
4399.27
4392.5
4385.63
4379.8
4373.81
4368.76
4363.54
4359.15
4354.54
4350.75
4346.7
4343.38
4339.8
4336.86
4333.73
4331.16
4328.41
4326.18
4323.82
4321.8
4319.7
4317.95
4316.09
4314.55
4312.87
4311.54
4310.13
4309.03
4307.74
4306.84
4305.73
4304.96
4303.94
4303.3
4302.43
4301.95
4301.22
4300.82
4300.2
4299.86
4299.26
4298.9
4298.32
4298
4297.49
4297.23
4296.79
4296.59
4296.2
4296.06
4295.76
4295.78
4295.7
4295.9
4295.9
4296.23
4296.23
4296.91
4297.69
4327.96
4436.35
83143.1
8261.77
7570.02
6999.53
6539.71
6174.47
5885.81
5655.77
5470.97
5320.02
5195.81
5091.72
5004.27
4929.36
4865.42
4809.61
4761.41
4718.65
4681.41
4647.88
4618.51
4591.71
4568.16
4546.39
4527.22
4509.27
4493.5
4478.54
4465.41
4452.79
4441.78
4431.05
4421.73
4412.54
4404.6
4396.66
4389.87
4382.99
4377.15
4371.14
4366.08
4360.85
4356.46
4351.83
4348.03
4343.97
4340.65
4337.06
4334.12
4330.97
4328.4
4325.64
4323.41
4321.04
4319.02
4316.91
4315.15
4313.29
4311.74
4310.06
4308.73
4307.31
4306.21
4304.91
4304.01
4302.89
4302.12
4301.1
4300.46
4299.59
4299.1
4298.36
4297.96
4297.34
4297
4296.4
4296.03
4295.45
4295.13
4294.62
4294.36
4293.91
4293.7
4293.31
4293.17
4292.87
4292.88
4292.8
4292.99
4292.99
4293.31
4293.32
4293.98
4294.78
4325.61
4433.98
79537.6
8261.77
7570.06
6999.55
6539.59
6174.12
5885.21
5654.91
5469.88
5318.73
5194.33
5090.07
5002.48
4927.44
4863.39
4807.48
4759.19
4716.35
4679.04
4645.44
4616.02
4589.17
4565.57
4543.75
4524.55
4506.56
4490.75
4475.76
4462.61
4449.96
4438.92
4428.17
4418.83
4409.62
4401.67
4393.7
4386.9
4380
4374.15
4368.13
4363.05
4357.81
4353.41
4348.77
4344.96
4340.89
4337.56
4333.96
4331.01
4327.86
4325.28
4322.51
4320.27
4317.9
4315.87
4313.75
4311.99
4310.12
4308.57
4306.89
4305.55
4304.12
4303.02
4301.71
4300.81
4299.69
4298.92
4297.89
4297.24
4296.37
4295.87
4295.13
4294.73
4294.11
4293.77
4293.16
4292.79
4292.21
4291.89
4291.37
4291.1
4290.66
4290.45
4290.05
4289.91
4289.61
4289.61
4289.51
4289.7
4289.7
4290.02
4290.02
4290.68
4291.5
4322.96
4431.32
75992.2
8261.77
7570.12
6999.57
6539.45
6173.74
5884.55
5653.97
5468.67
5317.28
5192.67
5088.24
5000.48
4925.3
4861.12
4805.1
4756.71
4713.78
4676.39
4642.73
4613.24
4586.32
4562.67
4540.81
4521.56
4503.53
4487.69
4472.66
4459.47
4446.8
4435.74
4424.96
4415.6
4406.36
4398.39
4390.41
4383.58
4376.67
4370.8
4364.76
4359.67
4354.42
4350
4345.35
4341.53
4337.45
4334.11
4330.5
4327.54
4324.38
4321.8
4319.02
4316.77
4314.39
4312.36
4310.23
4308.46
4306.58
4305.03
4303.34
4301.99
4300.56
4299.45
4298.14
4297.23
4296.11
4295.33
4294.3
4293.65
4292.77
4292.27
4291.53
4291.12
4290.49
4290.15
4289.54
4289.17
4288.59
4288.26
4287.74
4287.47
4287.02
4286.81
4286.41
4286.27
4285.96
4285.95
4285.85
4286.03
4286.02
4286.33
4286.33
4286.99
4287.83
4320.01
4428.37
72503.1
8261.76
7570.18
6999.6
6539.31
6173.32
5883.81
5652.93
5467.34
5315.69
5190.85
5086.21
4998.28
4922.94
4858.62
4802.47
4753.97
4710.95
4673.46
4639.72
4610.16
4583.18
4559.47
4537.55
4518.26
4500.18
4484.3
4469.23
4456.01
4443.3
4432.21
4421.4
4412.02
4402.75
4394.76
4386.75
4379.91
4372.98
4367.09
4361.04
4355.94
4350.66
4346.24
4341.57
4337.74
4333.65
4330.29
4326.67
4323.71
4320.53
4317.94
4315.15
4312.89
4310.5
4308.46
4306.33
4304.56
4302.67
4301.11
4299.41
4298.06
4296.62
4295.51
4294.19
4293.28
4292.14
4291.37
4290.33
4289.67
4288.79
4288.29
4287.54
4287.13
4286.49
4286.15
4285.54
4285.16
4284.58
4284.24
4283.72
4283.45
4282.99
4282.78
4282.38
4282.23
4281.92
4281.9
4281.79
4281.96
4281.96
4282.25
4282.25
4282.9
4283.77
4316.75
4425.15
69076.9
8261.76
7570.24
6999.63
6539.15
6172.86
5883.02
5651.79
5465.88
5313.95
5188.85
5083.99
4995.86
4920.34
4855.87
4799.59
4750.97
4707.83
4670.26
4636.42
4606.79
4579.73
4555.96
4533.98
4514.63
4496.51
4480.58
4465.47
4452.21
4439.46
4428.34
4417.5
4408.08
4398.79
4390.77
4382.75
4375.88
4368.93
4363.02
4356.95
4351.83
4346.54
4342.1
4337.42
4333.57
4329.46
4326.1
4322.47
4319.49
4316.31
4313.7
4310.9
4308.64
4306.24
4304.19
4302.04
4300.27
4298.37
4296.81
4295.1
4293.74
4292.29
4291.18
4289.85
4288.93
4287.79
4287.01
4285.97
4285.31
4284.41
4283.91
4283.15
4282.74
4282.1
4281.75
4281.14
4280.76
4280.17
4279.84
4279.31
4279.03
4278.57
4278.35
4277.95
4277.8
4277.49
4277.46
4277.33
4277.5
4277.49
4277.77
4277.77
4278.41
4279.3
4313.18
4421.65
65719.6
8261.76
7570.31
6999.66
6538.98
6172.37
5882.15
5650.55
5464.3
5312.05
5186.68
5081.57
4993.23
4917.52
4852.88
4796.45
4747.7
4704.44
4666.76
4632.83
4603.11
4575.98
4552.13
4530.09
4510.68
4492.5
4476.52
4461.37
4448.06
4435.28
4424.12
4413.24
4403.8
4394.47
4386.43
4378.38
4371.49
4364.51
4358.58
4352.49
4347.35
4342.04
4337.58
4332.89
4329.03
4324.9
4321.52
4317.88
4314.89
4311.7
4309.08
4306.27
4303.99
4301.58
4299.53
4297.37
4295.58
4293.68
4292.11
4290.39
4289.03
4287.57
4286.45
4285.11
4284.19
4283.04
4282.25
4281.2
4280.54
4279.64
4279.13
4278.37
4277.95
4277.31
4276.96
4276.34
4275.96
4275.36
4275.02
4274.49
4274.21
4273.75
4273.52
4273.11
4272.96
4272.65
4272.61
4272.47
4272.62
4272.62
4272.89
4272.88
4273.52
4274.44
4309.28
4417.87
62436.9
8261.76
7570.39
6999.7
6538.8
6171.84
5881.22
5649.22
5462.6
5310.01
5184.34
5078.96
4990.38
4914.47
4849.65
4793.05
4744.16
4700.77
4662.97
4628.94
4599.12
4571.91
4547.99
4525.87
4506.39
4488.16
4472.12
4456.92
4443.57
4430.74
4419.54
4408.63
4399.15
4389.79
4381.72
4373.63
4366.72
4359.72
4353.77
4347.65
4342.49
4337.16
4332.69
4327.97
4324.1
4319.96
4316.56
4312.91
4309.9
4306.69
4304.06
4301.24
4298.96
4296.53
4294.47
4292.3
4290.51
4288.59
4287.01
4285.29
4283.92
4282.45
4281.32
4279.98
4279.04
4277.89
4277.1
4276.04
4275.37
4274.46
4273.95
4273.18
4272.76
4272.11
4271.75
4271.13
4270.75
4270.15
4269.8
4269.27
4268.98
4268.51
4268.28
4267.87
4267.71
4267.39
4267.35
4267.19
4267.34
4267.33
4267.59
4267.57
4268.2
4269.15
4305.05
4413.82
59233.9
8261.75
7570.47
6999.74
6538.61
6171.28
5880.23
5647.79
5460.77
5307.81
5181.82
5076.15
4987.32
4911.18
4846.17
4789.39
4740.34
4696.82
4658.89
4624.75
4594.83
4567.52
4543.51
4521.32
4501.77
4483.47
4467.38
4452.12
4438.72
4425.84
4414.6
4403.65
4394.13
4384.74
4376.63
4368.52
4361.58
4354.54
4348.57
4342.43
4337.25
4331.9
4327.4
4322.67
4318.77
4314.62
4311.21
4307.54
4304.52
4301.29
4298.65
4295.81
4293.52
4291.08
4289.01
4286.83
4285.02
4283.1
4281.51
4279.77
4278.4
4276.92
4275.78
4274.43
4273.49
4272.33
4271.53
4270.46
4269.79
4268.87
4268.35
4267.58
4267.15
4266.49
4266.13
4265.51
4265.12
4264.51
4264.17
4263.62
4263.34
4262.86
4262.63
4262.2
4262.04
4261.72
4261.67
4261.5
4261.63
4261.62
4261.86
4261.85
4262.47
4263.45
4300.47
4409.51
56115.6
8261.75
7570.55
6999.79
6538.41
6170.68
5879.17
5646.27
5458.81
5305.46
5179.12
5073.14
4984.04
4907.66
4842.43
4785.47
4736.25
4692.57
4654.51
4620.24
4590.22
4562.8
4538.71
4516.43
4496.81
4478.44
4462.28
4446.96
4433.51
4420.58
4409.29
4398.3
4388.74
4379.31
4371.17
4363.02
4356.05
4348.99
4342.99
4336.82
4331.62
4326.24
4321.73
4316.97
4313.06
4308.88
4305.45
4301.76
4298.73
4295.49
4292.83
4289.98
4287.67
4285.22
4283.13
4280.94
4279.13
4277.19
4275.6
4273.85
4272.46
4270.97
4269.83
4268.47
4267.52
4266.35
4265.54
4264.47
4263.78
4262.86
4262.33
4261.55
4261.12
4260.46
4260.09
4259.46
4259.07
4258.46
4258.11
4257.56
4257.27
4256.78
4256.54
4256.12
4255.95
4255.62
4255.56
4255.38
4255.5
4255.48
4255.71
4255.69
4256.3
4257.32
4295.54
4404.93
53086.4
8261.75
7570.65
6999.84
6538.19
6170.04
5878.05
5644.65
5456.73
5302.95
5176.24
5069.93
4980.54
4903.9
4838.44
4781.27
4731.88
4688.03
4649.83
4615.43
4585.28
4557.76
4533.57
4511.2
4491.5
4473.05
4456.83
4441.45
4427.94
4414.95
4403.61
4392.57
4382.97
4373.5
4365.32
4357.14
4350.13
4343.04
4337.01
4330.81
4325.59
4320.18
4315.65
4310.87
4306.93
4302.73
4299.29
4295.58
4292.53
4289.27
4286.61
4283.73
4281.41
4278.94
4276.85
4274.64
4272.82
4270.87
4269.26
4267.5
4266.11
4264.6
4263.45
4262.08
4261.12
4259.94
4259.13
4258.05
4257.36
4256.43
4255.89
4255.1
4254.66
4254
4253.62
4252.99
4252.59
4251.97
4251.62
4251.06
4250.76
4250.27
4250.03
4249.6
4249.42
4249.09
4249.02
4248.82
4248.93
4248.91
4249.12
4249.09
4249.7
4250.76
4290.24
4400.05
50150.5
8261.74
7570.74
6999.89
6537.97
6169.38
5876.86
5642.94
5454.52
5300.3
5173.18
5066.52
4976.81
4899.9
4834.2
4776.81
4727.22
4683.2
4644.85
4610.3
4580.03
4552.39
4528.1
4505.63
4485.85
4467.32
4451.02
4435.57
4422
4408.95
4397.56
4386.46
4376.82
4367.3
4359.09
4350.86
4343.82
4336.69
4330.63
4324.41
4319.15
4313.72
4309.16
4304.35
4300.4
4296.18
4292.72
4288.99
4285.92
4282.64
4279.96
4277.07
4274.73
4272.25
4270.14
4267.92
4266.09
4264.12
4262.51
4260.73
4259.33
4257.81
4256.65
4255.27
4254.3
4253.11
4252.29
4251.2
4250.5
4249.56
4249.01
4248.22
4247.77
4247.1
4246.72
4246.08
4245.68
4245.05
4244.69
4244.13
4243.82
4243.33
4243.08
4242.64
4242.46
4242.12
4242.04
4241.82
4241.92
4241.9
4242.09
4242.06
4242.65
4243.76
4284.56
4394.85
47311.6
8261.74
7570.84
6999.95
6537.74
6168.68
5875.61
5641.12
5452.18
5297.48
5169.94
5062.9
4972.87
4895.65
4829.69
4772.07
4722.28
4678.07
4639.55
4604.85
4574.45
4546.69
4522.28
4499.71
4479.84
4461.22
4444.84
4429.31
4415.68
4402.57
4391.12
4379.97
4370.28
4360.71
4352.46
4344.19
4337.11
4329.94
4323.85
4317.59
4312.31
4306.85
4302.26
4297.43
4293.45
4289.21
4285.72
4281.97
4278.89
4275.59
4272.89
4269.98
4267.63
4265.12
4263.01
4260.77
4258.92
4256.94
4255.32
4253.53
4252.12
4250.58
4249.41
4248.02
4247.04
4245.84
4245.01
4243.91
4243.2
4242.25
4241.7
4240.89
4240.44
4239.76
4239.37
4238.72
4238.32
4237.69
4237.32
4236.75
4236.44
4235.93
4235.68
4235.23
4235.05
4234.7
4234.61
4234.38
4234.47
4234.43
4234.61
4234.57
4235.15
4236.31
4278.48
4389.31
44573.1
8261.73
7570.95
7000.02
6537.51
6167.94
5874.29
5639.22
5449.72
5294.52
5166.53
5059.08
4968.69
4891.17
4824.93
4767.06
4717.04
4672.64
4633.94
4599.09
4568.54
4540.64
4516.12
4493.44
4473.46
4454.75
4438.3
4422.69
4408.98
4395.81
4384.3
4373.09
4363.34
4353.73
4345.42
4337.11
4330
4322.79
4316.66
4310.37
4305.05
4299.56
4294.95
4290.09
4286.08
4281.81
4278.31
4274.53
4271.43
4268.11
4265.39
4262.46
4260.09
4257.57
4255.44
4253.18
4251.32
4249.32
4247.69
4245.89
4244.46
4242.91
4241.74
4240.32
4239.34
4238.12
4237.29
4236.17
4235.46
4234.5
4233.94
4233.12
4232.66
4231.97
4231.58
4230.92
4230.52
4229.88
4229.5
4228.92
4228.61
4228.09
4227.83
4227.38
4227.18
4226.83
4226.73
4226.49
4226.56
4226.52
4226.68
4226.62
4227.19
4228.4
4271.97
4383.4
41938.2
8261.72
7571.06
7000.08
6537.26
6167.18
5872.92
5637.22
5447.14
5291.4
5162.93
5055.06
4964.3
4886.44
4819.9
4761.77
4711.52
4666.91
4628.02
4592.99
4562.29
4534.26
4509.61
4486.81
4466.73
4447.92
4431.38
4415.68
4401.9
4388.66
4377.08
4365.81
4356.01
4346.34
4337.99
4329.63
4322.47
4315.22
4309.06
4302.72
4297.37
4291.85
4287.21
4282.32
4278.29
4273.99
4270.46
4266.66
4263.54
4260.19
4257.45
4254.51
4252.12
4249.57
4247.43
4245.15
4243.28
4241.26
4239.62
4237.8
4236.36
4234.8
4233.61
4232.19
4231.19
4229.96
4229.11
4227.99
4227.27
4226.29
4225.72
4224.89
4224.43
4223.73
4223.33
4222.67
4222.25
4221.61
4221.23
4220.64
4220.32
4219.79
4219.53
4219.06
4218.86
4218.5
4218.39
4218.13
4218.19
4218.14
4218.28
4218.21
4218.78
4220.03
4265.02
4377.08
39409.5
8261.71
7571.18
7000.16
6537.01
6166.38
5871.48
5635.13
5444.43
5288.12
5159.15
5050.83
4959.67
4881.46
4814.61
4756.2
4705.71
4660.87
4621.79
4586.58
4555.71
4527.53
4502.75
4479.82
4459.63
4440.72
4424.08
4408.3
4394.44
4381.11
4369.47
4358.13
4348.27
4338.54
4330.14
4321.73
4314.53
4307.23
4301.03
4294.66
4289.27
4283.71
4279.04
4274.11
4270.06
4265.73
4262.18
4258.35
4255.2
4251.84
4249.08
4246.11
4243.7
4241.14
4238.97
4236.68
4234.79
4232.76
4231.1
4229.26
4227.82
4226.23
4225.03
4223.59
4222.59
4221.34
4220.48
4219.35
4218.62
4217.63
4217.05
4216.21
4215.73
4215.02
4214.62
4213.95
4213.53
4212.87
4212.49
4211.89
4211.56
4211.03
4210.75
4210.28
4210.07
4209.7
4209.59
4209.31
4209.35
4209.29
4209.42
4209.33
4209.89
4211.2
4257.6
4370.33
36989.5
8261.71
7571.3
7000.24
6536.75
6165.56
5869.99
5632.95
5441.6
5284.7
5155.19
5046.4
4954.82
4876.24
4809.06
4750.36
4699.6
4654.52
4615.23
4579.83
4548.79
4520.45
4495.53
4472.47
4452.16
4433.14
4416.4
4400.52
4386.58
4373.17
4361.46
4350.05
4340.13
4330.34
4321.88
4313.42
4306.17
4298.82
4292.58
4286.16
4280.74
4275.14
4270.44
4265.48
4261.39
4257.03
4253.45
4249.6
4246.43
4243.04
4240.26
4237.26
4234.83
4232.25
4230.07
4227.75
4225.85
4223.79
4222.12
4220.27
4218.81
4217.21
4216
4214.54
4213.52
4212.26
4211.39
4210.24
4209.5
4208.5
4207.91
4207.06
4206.58
4205.86
4205.45
4204.77
4204.34
4203.67
4203.28
4202.67
4202.34
4201.79
4201.51
4201.03
4200.81
4200.43
4200.31
4200.02
4200.04
4199.97
4200.08
4199.98
4200.52
4201.89
4249.67
4363.12
34680.1
8261.7
7571.42
7000.32
6536.49
6164.71
5868.44
5630.68
5438.65
5281.12
5151.06
5041.77
4949.75
4870.77
4803.25
4744.23
4693.2
4647.87
4608.35
4572.75
4541.53
4513.02
4487.95
4464.75
4444.32
4425.18
4408.34
4392.36
4378.33
4364.83
4353.04
4341.56
4331.57
4321.72
4313.2
4304.68
4297.38
4289.98
4283.7
4277.24
4271.78
4266.13
4261.39
4256.4
4252.28
4247.89
4244.28
4240.4
4237.2
4233.78
4230.98
4227.96
4225.51
4222.9
4220.7
4218.37
4216.45
4214.37
4212.69
4210.82
4209.34
4207.72
4206.49
4205.02
4203.99
4202.71
4201.83
4200.67
4199.92
4198.91
4198.31
4197.44
4196.95
4196.21
4195.8
4195.11
4194.67
4194
4193.6
4192.98
4192.64
4192.08
4191.79
4191.3
4191.07
4190.69
4190.55
4190.25
4190.26
4190.17
4190.26
4190.14
4190.67
4192.1
4241.2
4355.39
32483.3
8261.68
7571.55
7000.41
6536.22
6163.83
5866.83
5628.32
5435.58
5277.39
5146.74
5036.93
4944.45
4865.05
4797.16
4737.82
4686.49
4640.91
4601.16
4565.33
4533.93
4505.24
4480.01
4456.67
4436.11
4416.84
4399.88
4383.8
4369.67
4356.09
4344.22
4332.66
4322.6
4312.67
4304.1
4295.52
4288.16
4280.71
4274.38
4267.87
4262.37
4256.68
4251.91
4246.88
4242.72
4238.3
4234.66
4230.75
4227.53
4224.08
4221.25
4218.2
4215.73
4213.09
4210.88
4208.52
4206.58
4204.48
4202.78
4200.89
4199.4
4197.76
4196.52
4195.03
4193.99
4192.69
4191.8
4190.63
4189.86
4188.83
4188.22
4187.34
4186.84
4186.09
4185.67
4184.97
4184.53
4183.84
4183.44
4182.81
4182.45
4181.89
4181.59
4181.09
4180.85
4180.45
4180.31
4180
4179.98
4179.88
4179.95
4179.82
4180.34
4181.82
4232.16
4347.13
30400.5
8261.67
7571.68
7000.51
6535.95
6162.93
5865.17
5625.88
5432.39
5273.52
5142.25
5031.89
4938.92
4859.09
4790.82
4731.12
4679.5
4633.63
4593.63
4557.59
4525.98
4497.11
4471.71
4448.21
4427.51
4408.11
4391.04
4374.84
4360.62
4346.94
4334.99
4323.34
4313.21
4303.21
4294.57
4285.92
4278.52
4271.01
4264.63
4258.07
4252.52
4246.79
4241.98
4236.9
4232.72
4228.25
4224.58
4220.64
4217.39
4213.91
4211.05
4207.98
4205.48
4202.82
4200.59
4198.2
4196.24
4194.12
4192.41
4190.5
4188.99
4187.33
4186.08
4184.56
4183.51
4182.19
4181.29
4180.1
4179.32
4178.28
4177.66
4176.76
4176.25
4175.49
4175.06
4174.35
4173.9
4173.2
4172.79
4172.15
4171.79
4171.21
4170.9
4170.38
4170.14
4169.73
4169.58
4169.25
4169.22
4169.1
4169.16
4169
4169.51
4171.05
4222.51
4338.28
28433.1
8261.66
7571.82
7000.62
6535.68
6162
5863.45
5623.35
5429.08
5269.5
5137.59
5026.64
4933.16
4852.88
4784.21
4724.15
4672.2
4626.04
4585.79
4549.5
4517.68
4488.61
4463.04
4439.38
4418.53
4398.99
4381.8
4365.49
4351.16
4337.38
4325.33
4313.6
4303.39
4293.32
4284.61
4275.9
4268.43
4260.86
4254.43
4247.81
4242.22
4236.44
4231.59
4226.47
4222.25
4217.75
4214.05
4210.07
4206.79
4203.27
4200.39
4197.29
4194.76
4192.07
4189.82
4187.41
4185.43
4183.29
4181.56
4179.62
4178.1
4176.41
4175.15
4173.62
4172.54
4171.21
4170.3
4169.09
4168.3
4167.24
4166.6
4165.7
4165.17
4164.4
4163.96
4163.23
4162.78
4162.07
4161.65
4161
4160.62
4160.03
4159.72
4159.19
4158.94
4158.51
4158.35
4158.01
4157.96
4157.83
4157.86
4157.68
4158.18
4159.78
4212.23
4328.82
26582.3
8261.64
7571.96
7000.72
6535.4
6161.05
5861.69
5620.74
5425.66
5265.33
5132.75
5021.2
4927.19
4846.42
4777.33
4716.89
4664.61
4618.14
4577.61
4541.08
4509.04
4479.76
4454.01
4430.17
4409.18
4389.49
4372.17
4355.73
4341.29
4327.4
4315.27
4303.44
4293.15
4282.99
4274.22
4265.43
4257.9
4250.27
4243.78
4237.11
4231.48
4225.64
4220.75
4215.59
4211.32
4206.78
4203.04
4199.03
4195.72
4192.17
4189.26
4186.12
4183.57
4180.85
4178.58
4176.14
4174.15
4171.97
4170.22
4168.27
4166.73
4165.02
4163.74
4162.18
4161.09
4159.74
4158.81
4157.59
4156.79
4155.71
4155.06
4154.14
4153.6
4152.81
4152.36
4151.63
4151.16
4150.44
4150.01
4149.35
4148.96
4148.36
4148.04
4147.49
4147.23
4146.8
4146.62
4146.27
4146.21
4146.06
4146.07
4145.85
4146.35
4148.01
4201.34
4318.7
24849.2
8261.63
7572.1
7000.84
6535.12
6160.08
5859.88
5618.05
5422.13
5261.02
5127.74
5015.56
4920.99
4839.72
4770.19
4709.35
4656.71
4609.93
4569.11
4532.32
4500.05
4470.55
4444.61
4420.59
4399.43
4379.59
4362.14
4345.57
4331.01
4317.01
4304.78
4292.85
4282.48
4272.24
4263.39
4254.53
4246.93
4239.24
4232.69
4225.96
4220.27
4214.39
4209.45
4204.24
4199.93
4195.35
4191.57
4187.52
4184.17
4180.59
4177.66
4174.48
4171.91
4169.16
4166.86
4164.39
4162.37
4160.18
4158.41
4156.42
4154.87
4153.13
4151.83
4150.26
4149.15
4147.78
4146.84
4145.59
4144.78
4143.68
4143.02
4142.08
4141.53
4140.73
4140.27
4139.52
4139.05
4138.31
4137.87
4137.19
4136.8
4136.19
4135.85
4135.29
4135.02
4134.57
4134.38
4134.02
4133.94
4133.78
4133.76
4133.52
4134.01
4135.72
4189.82
4307.88
23234.7
8261.61
7572.25
7000.96
6534.85
6159.1
5858.02
5615.29
5418.49
5256.57
5122.56
5009.72
4914.57
4832.78
4762.78
4701.53
4648.52
4601.4
4560.29
4523.22
4490.7
4460.98
4434.84
4410.63
4389.3
4369.3
4351.71
4335
4320.32
4306.21
4293.87
4281.84
4271.38
4261.04
4252.12
4243.18
4235.51
4227.75
4221.14
4214.35
4208.61
4202.67
4197.68
4192.42
4188.07
4183.44
4179.63
4175.53
4172.16
4168.54
4165.57
4162.36
4159.76
4156.97
4154.65
4152.15
4150.11
4147.89
4146.1
4144.09
4142.51
4140.75
4139.44
4137.84
4136.71
4135.32
4134.36
4133.1
4132.27
4131.16
4130.48
4129.52
4128.95
4128.14
4127.67
4126.91
4126.42
4125.68
4125.23
4124.53
4124.13
4123.5
4123.16
4122.59
4122.3
4121.84
4121.64
4121.26
4121.17
4120.99
4120.95
4120.67
4121.16
4122.92
4177.68
4296.33
21734.6
8261.59
7572.4
7001.09
6534.57
6158.09
5856.12
5612.45
5414.75
5251.98
5117.21
5003.69
4907.93
4825.6
4755.12
4693.43
4640.03
4592.56
4551.14
4513.78
4481.01
4451.05
4424.69
4400.29
4378.78
4358.62
4340.87
4324.02
4309.22
4294.98
4282.53
4270.39
4259.84
4249.41
4240.4
4231.38
4223.65
4215.81
4209.14
4202.28
4196.48
4190.48
4185.45
4180.13
4175.74
4171.07
4167.21
4163.07
4159.66
4156
4153
4149.76
4147.12
4144.3
4141.95
4139.42
4137.36
4135.1
4133.29
4131.26
4129.67
4127.87
4126.54
4124.92
4123.78
4122.36
4121.39
4120.1
4119.26
4118.13
4117.43
4116.45
4115.87
4115.05
4114.56
4113.78
4113.29
4112.53
4112.07
4111.36
4110.95
4110.31
4109.95
4109.36
4109.07
4108.59
4108.38
4107.98
4107.87
4107.68
4107.62
4107.31
4107.78
4109.6
4164.9
4284.02
20344
8261.57
7572.55
7001.23
6534.3
6157.07
5854.19
5609.54
5410.9
5247.26
5111.7
4997.47
4901.07
4818.17
4747.19
4685.05
4631.25
4583.41
4541.66
4504
4470.97
4440.76
4414.18
4389.57
4367.88
4347.54
4329.63
4312.63
4297.7
4283.33
4270.77
4258.52
4247.86
4237.34
4228.25
4219.14
4211.33
4203.41
4196.67
4189.75
4183.89
4177.83
4172.74
4167.38
4162.94
4158.21
4154.32
4150.13
4146.68
4142.98
4139.95
4136.67
4134
4131.14
4128.77
4126.2
4124.12
4121.83
4120
4117.93
4116.32
4114.5
4113.14
4111.5
4110.34
4108.89
4107.9
4106.6
4105.74
4104.59
4103.88
4102.88
4102.28
4101.44
4100.94
4100.15
4099.65
4098.88
4098.4
4097.68
4097.26
4096.59
4096.22
4095.62
4095.31
4094.82
4094.6
4094.19
4094.06
4093.85
4093.77
4093.42
4093.89
4095.75
4151.51
4270.91
19058.2
8261.55
7572.7
7001.37
6534.03
6156.04
5852.21
5606.56
5406.95
5242.41
5106.03
4991.06
4894.01
4810.51
4739.01
4676.39
4622.17
4573.95
4531.86
4493.89
4460.57
4430.11
4403.3
4378.47
4356.59
4336.06
4317.99
4300.84
4285.76
4271.26
4258.58
4246.21
4235.45
4224.83
4215.64
4206.44
4198.55
4190.56
4183.75
4176.76
4170.84
4164.71
4159.57
4154.15
4149.66
4144.88
4140.94
4136.71
4133.22
4129.47
4126.4
4123.08
4120.38
4117.48
4115.08
4112.48
4110.37
4108.05
4106.2
4104.1
4102.47
4100.62
4099.24
4097.57
4096.39
4094.92
4093.91
4092.59
4091.71
4090.53
4089.81
4088.79
4088.18
4087.32
4086.81
4086
4085.49
4084.7
4084.21
4083.47
4083.04
4082.36
4081.98
4081.36
4081.04
4080.53
4080.29
4079.87
4079.72
4079.5
4079.39
4079.01
4079.47
4081.37
4137.48
4256.96
17871.9
8261.52
7572.86
7001.52
6533.76
6155
5850.2
5603.52
5402.91
5237.43
5100.2
4984.46
4886.73
4802.62
4730.57
4667.46
4612.81
4564.18
4521.74
4483.44
4449.83
4419.1
4392.05
4366.99
4344.91
4324.19
4305.95
4288.63
4273.41
4258.77
4245.96
4233.47
4222.6
4211.87
4202.59
4193.3
4185.33
4177.25
4170.37
4163.3
4157.32
4151.12
4145.92
4140.44
4135.9
4131.06
4127.08
4122.8
4119.27
4115.48
4112.37
4109.01
4106.27
4103.33
4100.9
4098.26
4096.13
4093.77
4091.89
4089.77
4088.11
4086.23
4084.83
4083.13
4081.93
4080.44
4079.41
4078.06
4077.17
4075.97
4075.22
4074.19
4073.56
4072.68
4072.15
4071.33
4070.81
4070
4069.5
4068.75
4068.3
4067.6
4067.21
4066.58
4066.24
4065.71
4065.46
4065.02
4064.86
4064.61
4064.49
4064.07
4064.52
4066.46
4122.82
4242.15
16779.5
8261.5
7573.02
7001.68
6533.5
6153.95
5848.15
5600.41
5398.77
5232.33
5094.22
4977.69
4879.25
4794.5
4721.88
4658.26
4603.15
4554.11
4511.3
4472.66
4438.75
4407.73
4380.42
4355.13
4332.84
4311.92
4293.5
4276.01
4260.64
4245.85
4232.91
4220.29
4209.31
4198.47
4189.09
4179.7
4171.64
4163.47
4156.52
4149.37
4143.32
4137.06
4131.8
4126.25
4121.66
4116.76
4112.73
4108.4
4104.83
4100.99
4097.84
4094.43
4091.66
4088.68
4086.22
4083.54
4081.38
4078.99
4077.08
4074.93
4073.25
4071.33
4069.91
4068.18
4066.96
4065.44
4064.39
4063.02
4062.11
4060.89
4060.12
4059.06
4058.42
4057.52
4056.98
4056.14
4055.6
4054.78
4054.27
4053.5
4053.04
4052.32
4051.91
4051.26
4050.91
4050.36
4050.1
4049.64
4049.46
4049.2
4049.06
4048.59
4049.04
4051.01
4107.52
4226.46
15775.5
8261.47
7573.18
7001.85
6533.24
6152.89
5846.08
5597.26
5394.55
5227.11
5088.1
4970.74
4871.56
4786.15
4712.94
4648.79
4593.2
4543.73
4500.54
4461.54
4427.31
4396
4368.44
4342.89
4320.38
4299.26
4280.65
4262.98
4247.46
4232.51
4219.43
4206.68
4195.59
4184.62
4175.14
4165.65
4157.5
4149.24
4142.21
4134.98
4128.86
4122.52
4117.2
4111.58
4106.93
4101.98
4097.9
4093.51
4089.9
4086.01
4082.82
4079.37
4076.55
4073.53
4071.04
4068.32
4066.13
4063.7
4061.77
4059.58
4057.87
4055.92
4054.48
4052.72
4051.48
4049.92
4048.86
4047.46
4046.53
4045.28
4044.5
4043.42
4042.76
4041.83
4041.28
4040.42
4039.87
4039.03
4038.51
4037.72
4037.24
4036.51
4036.09
4035.42
4035.06
4034.49
4034.21
4033.73
4033.53
4033.25
4033.09
4032.58
4033.02
4035.01
4091.6
4209.84
14853.8
8261.44
7573.34
7002.02
6532.99
6151.83
5843.99
5594.05
5390.25
5221.78
5081.83
4963.62
4863.68
4777.58
4703.76
4639.05
4582.98
4533.06
4489.46
4450.09
4415.54
4383.92
4356.08
4330.28
4307.54
4286.2
4267.4
4249.55
4233.85
4218.75
4205.53
4192.64
4181.42
4170.33
4160.75
4151.15
4142.9
4134.55
4127.43
4120.12
4113.92
4107.51
4102.12
4096.44
4091.73
4086.71
4082.58
4078.14
4074.47
4070.53
4067.3