/*--------------------------------*- C++ -*----------------------------------*\
| =========                 |                                                 |
| \\      /  F ield         | OpenFOAM: The Open Source CFD Toolbox           |
|  \\    /   O peration     | Version:  v2012                                 |
|   \\  /    A nd           | Website:  www.openfoam.com                      |
|    \\/     M anipulation  |                                                 |
\*---------------------------------------------------------------------------*/
FoamFile
{
    version     2.0;
    format      ascii;
    class       volVectorField;
    location    "52.5";
    object      wallShearStress;
}
// * * * * * * * * * * * * * * * * * * * * * * * * * * * * * * * * * * * * * //

dimensions      [0 2 -2 0 0 0 0];


internalField   uniform (0 0 0);

boundaryField
{
    inlet
    {
        type            calculated;
        value           uniform (0 0 0);
    }
    outlet
    {
        type            calculated;
        value           uniform (0 0 0);
    }
    topWall
    {
        type            calculated;
        value           nonuniform List<vector> 
545
(
(3.67442e-08 -2.58646e-08 0)
(3.67328e-08 -7.23538e-08 0)
(3.67124e-08 -1.20696e-07 0)
(3.66839e-08 -1.6764e-07 0)
(3.66481e-08 -2.12586e-07 0)
(3.66059e-08 -2.56112e-07 0)
(3.65576e-08 -2.98587e-07 0)
(3.65038e-08 -3.39992e-07 0)
(3.64448e-08 -3.80236e-07 0)
(3.63812e-08 -4.19319e-07 0)
(3.63134e-08 -4.57292e-07 0)
(3.62418e-08 -4.94198e-07 0)
(3.61667e-08 -5.30064e-07 0)
(3.60886e-08 -5.64909e-07 0)
(3.60078e-08 -5.98759e-07 0)
(3.59246e-08 -6.31641e-07 0)
(3.58392e-08 -6.6358e-07 0)
(3.5752e-08 -6.94603e-07 0)
(3.56632e-08 -7.24733e-07 0)
(3.55731e-08 -7.53995e-07 0)
(3.54818e-08 -7.82413e-07 0)
(3.53896e-08 -8.10009e-07 0)
(3.52967e-08 -8.36808e-07 0)
(3.52033e-08 -8.62831e-07 0)
(3.51095e-08 -8.88101e-07 0)
(3.50155e-08 -9.12639e-07 0)
(3.49215e-08 -9.36465e-07 0)
(3.48275e-08 -9.59601e-07 0)
(3.47337e-08 -9.82066e-07 0)
(3.46402e-08 -1.00388e-06 0)
(3.45471e-08 -1.02506e-06 0)
(3.44546e-08 -1.04563e-06 0)
(3.43627e-08 -1.0656e-06 0)
(3.42714e-08 -1.08499e-06 0)
(3.4181e-08 -1.10382e-06 0)
(3.40913e-08 -1.12211e-06 0)
(3.40026e-08 -1.13987e-06 0)
(3.39148e-08 -1.15711e-06 0)
(3.3828e-08 -1.17386e-06 0)
(3.37422e-08 -1.19013e-06 0)
(3.36576e-08 -1.20592e-06 0)
(3.3574e-08 -1.22126e-06 0)
(3.34916e-08 -1.23616e-06 0)
(3.34104e-08 -1.25063e-06 0)
(3.33304e-08 -1.26469e-06 0)
(3.32516e-08 -1.27834e-06 0)
(3.31741e-08 -1.2916e-06 0)
(3.30978e-08 -1.30448e-06 0)
(3.30228e-08 -1.31699e-06 0)
(3.2949e-08 -1.32915e-06 0)
(3.28765e-08 -1.34096e-06 0)
(3.28053e-08 -1.35243e-06 0)
(3.27354e-08 -1.36358e-06 0)
(3.26667e-08 -1.37441e-06 0)
(3.25994e-08 -1.38493e-06 0)
(3.25333e-08 -1.39515e-06 0)
(3.24684e-08 -1.40508e-06 0)
(3.24048e-08 -1.41474e-06 0)
(3.23425e-08 -1.42412e-06 0)
(3.22814e-08 -1.43323e-06 0)
(3.22216e-08 -1.44209e-06 0)
(3.21629e-08 -1.4507e-06 0)
(3.21055e-08 -1.45907e-06 0)
(3.20493e-08 -1.4672e-06 0)
(3.19942e-08 -1.4751e-06 0)
(3.19403e-08 -1.48278e-06 0)
(3.18876e-08 -1.49025e-06 0)
(3.1836e-08 -1.49751e-06 0)
(3.17855e-08 -1.50456e-06 0)
(3.17361e-08 -1.51142e-06 0)
(3.16878e-08 -1.51809e-06 0)
(3.16408e-08 -1.52456e-06 0)
(3.15952e-08 -1.53079e-06 0)
(3.15503e-08 -1.53684e-06 0)
(3.15058e-08 -1.54282e-06 0)
(3.14614e-08 -1.54877e-06 0)
(3.14171e-08 -1.55469e-06 0)
(3.13728e-08 -1.56058e-06 0)
(3.13286e-08 -1.56644e-06 0)
(3.12843e-08 -1.57225e-06 0)
(3.12402e-08 -1.57804e-06 0)
(3.1196e-08 -1.58379e-06 0)
(3.1152e-08 -1.5895e-06 0)
(3.11079e-08 -1.59518e-06 0)
(3.10639e-08 -1.60083e-06 0)
(3.102e-08 -1.60644e-06 0)
(3.09761e-08 -1.61202e-06 0)
(3.09323e-08 -1.61756e-06 0)
(3.08885e-08 -1.62307e-06 0)
(3.08448e-08 -1.62855e-06 0)
(3.08011e-08 -1.634e-06 0)
(3.07575e-08 -1.63941e-06 0)
(3.0714e-08 -1.64479e-06 0)
(3.06706e-08 -1.65014e-06 0)
(3.06268e-08 -1.65547e-06 0)
(3.05849e-08 -1.6607e-06 0)
(3.05464e-08 -1.6655e-06 0)
(3.05096e-08 -1.66985e-06 0)
(3.04737e-08 -1.67408e-06 0)
(3.04379e-08 -1.67833e-06 0)
(3.04021e-08 -1.68263e-06 0)
(3.03661e-08 -1.68693e-06 0)
(3.03299e-08 -1.69123e-06 0)
(3.02935e-08 -1.69553e-06 0)
(3.0257e-08 -1.69984e-06 0)
(3.02203e-08 -1.70415e-06 0)
(3.01834e-08 -1.70847e-06 0)
(3.01464e-08 -1.71279e-06 0)
(3.01091e-08 -1.71712e-06 0)
(3.00717e-08 -1.72145e-06 0)
(3.00341e-08 -1.72579e-06 0)
(2.99964e-08 -1.73013e-06 0)
(2.99584e-08 -1.73448e-06 0)
(2.99203e-08 -1.73883e-06 0)
(2.9882e-08 -1.74318e-06 0)
(2.98435e-08 -1.74754e-06 0)
(2.98049e-08 -1.75191e-06 0)
(2.9766e-08 -1.75628e-06 0)
(2.9727e-08 -1.76065e-06 0)
(2.96878e-08 -1.76503e-06 0)
(2.96484e-08 -1.76942e-06 0)
(2.96089e-08 -1.7738e-06 0)
(2.95691e-08 -1.7782e-06 0)
(2.95292e-08 -1.78259e-06 0)
(2.94891e-08 -1.787e-06 0)
(2.94488e-08 -1.7914e-06 0)
(2.94083e-08 -1.79581e-06 0)
(2.93676e-08 -1.80023e-06 0)
(2.93267e-08 -1.80465e-06 0)
(2.92857e-08 -1.80907e-06 0)
(2.92444e-08 -1.8135e-06 0)
(2.9203e-08 -1.81793e-06 0)
(2.91614e-08 -1.82236e-06 0)
(2.91196e-08 -1.8268e-06 0)
(2.90776e-08 -1.83125e-06 0)
(2.90354e-08 -1.83569e-06 0)
(2.89931e-08 -1.84015e-06 0)
(2.89505e-08 -1.8446e-06 0)
(2.89077e-08 -1.84906e-06 0)
(2.88648e-08 -1.85352e-06 0)
(2.88216e-08 -1.85799e-06 0)
(2.87783e-08 -1.86246e-06 0)
(2.87348e-08 -1.86694e-06 0)
(2.86911e-08 -1.87142e-06 0)
(2.86471e-08 -1.8759e-06 0)
(2.8603e-08 -1.88039e-06 0)
(2.85587e-08 -1.88488e-06 0)
(2.85142e-08 -1.88937e-06 0)
(2.84695e-08 -1.89387e-06 0)
(2.84246e-08 -1.89837e-06 0)
(2.83796e-08 -1.90287e-06 0)
(2.83343e-08 -1.90738e-06 0)
(2.82888e-08 -1.91189e-06 0)
(2.82431e-08 -1.9164e-06 0)
(2.81972e-08 -1.92092e-06 0)
(2.81511e-08 -1.92544e-06 0)
(2.81049e-08 -1.92996e-06 0)
(2.80584e-08 -1.93449e-06 0)
(2.80117e-08 -1.93902e-06 0)
(2.79648e-08 -1.94356e-06 0)
(2.79177e-08 -1.94809e-06 0)
(2.78704e-08 -1.95263e-06 0)
(2.7823e-08 -1.95717e-06 0)
(2.77753e-08 -1.96172e-06 0)
(2.77274e-08 -1.96627e-06 0)
(2.76793e-08 -1.97082e-06 0)
(2.7631e-08 -1.97537e-06 0)
(2.75825e-08 -1.97993e-06 0)
(2.75338e-08 -1.98449e-06 0)
(2.74849e-08 -1.98905e-06 0)
(2.74358e-08 -1.99362e-06 0)
(2.73865e-08 -1.99818e-06 0)
(2.73369e-08 -2.00275e-06 0)
(2.72872e-08 -2.00732e-06 0)
(2.72373e-08 -2.0119e-06 0)
(2.71872e-08 -2.01648e-06 0)
(2.71368e-08 -2.02106e-06 0)
(2.70863e-08 -2.02564e-06 0)
(2.70355e-08 -2.03022e-06 0)
(2.69845e-08 -2.03481e-06 0)
(2.69334e-08 -2.0394e-06 0)
(2.6882e-08 -2.04399e-06 0)
(2.68304e-08 -2.04858e-06 0)
(2.67786e-08 -2.05317e-06 0)
(2.67266e-08 -2.05777e-06 0)
(2.66744e-08 -2.06237e-06 0)
(2.6622e-08 -2.06697e-06 0)
(2.65694e-08 -2.07157e-06 0)
(2.65166e-08 -2.07617e-06 0)
(2.64635e-08 -2.08078e-06 0)
(2.64103e-08 -2.08538e-06 0)
(2.63568e-08 -2.08999e-06 0)
(2.63031e-08 -2.0946e-06 0)
(2.62493e-08 -2.09921e-06 0)
(2.61952e-08 -2.10382e-06 0)
(2.61409e-08 -2.10844e-06 0)
(2.60864e-08 -2.11305e-06 0)
(2.60316e-08 -2.11767e-06 0)
(2.59767e-08 -2.12229e-06 0)
(2.59216e-08 -2.1269e-06 0)
(2.58662e-08 -2.13152e-06 0)
(2.58107e-08 -2.13614e-06 0)
(2.57549e-08 -2.14077e-06 0)
(2.56989e-08 -2.14539e-06 0)
(2.56427e-08 -2.15001e-06 0)
(2.55863e-08 -2.15463e-06 0)
(2.55297e-08 -2.15926e-06 0)
(2.54729e-08 -2.16388e-06 0)
(2.54159e-08 -2.16851e-06 0)
(2.53586e-08 -2.17314e-06 0)
(2.53012e-08 -2.17776e-06 0)
(2.52435e-08 -2.18239e-06 0)
(2.51856e-08 -2.18702e-06 0)
(2.51276e-08 -2.19164e-06 0)
(2.50693e-08 -2.19627e-06 0)
(2.50108e-08 -2.2009e-06 0)
(2.4952e-08 -2.20553e-06 0)
(2.48931e-08 -2.21015e-06 0)
(2.4834e-08 -2.21478e-06 0)
(2.47746e-08 -2.21941e-06 0)
(2.47151e-08 -2.22404e-06 0)
(2.46553e-08 -2.22866e-06 0)
(2.45954e-08 -2.23329e-06 0)
(2.45352e-08 -2.23792e-06 0)
(2.44748e-08 -2.24254e-06 0)
(2.44142e-08 -2.24717e-06 0)
(2.43534e-08 -2.25179e-06 0)
(2.42924e-08 -2.25642e-06 0)
(2.42311e-08 -2.26104e-06 0)
(2.41697e-08 -2.26566e-06 0)
(2.41081e-08 -2.27028e-06 0)
(2.40462e-08 -2.2749e-06 0)
(2.39842e-08 -2.27952e-06 0)
(2.39219e-08 -2.28414e-06 0)
(2.38595e-08 -2.28876e-06 0)
(2.37968e-08 -2.29338e-06 0)
(2.37339e-08 -2.29799e-06 0)
(2.36708e-08 -2.3026e-06 0)
(2.36075e-08 -2.30722e-06 0)
(2.3544e-08 -2.31183e-06 0)
(2.34803e-08 -2.31644e-06 0)
(2.34164e-08 -2.32104e-06 0)
(2.33523e-08 -2.32565e-06 0)
(2.3288e-08 -2.33025e-06 0)
(2.32235e-08 -2.33485e-06 0)
(2.31588e-08 -2.33945e-06 0)
(2.30939e-08 -2.34405e-06 0)
(2.30288e-08 -2.34865e-06 0)
(2.29635e-08 -2.35324e-06 0)
(2.2898e-08 -2.35783e-06 0)
(2.28322e-08 -2.36242e-06 0)
(2.27663e-08 -2.36701e-06 0)
(2.27002e-08 -2.37159e-06 0)
(2.26339e-08 -2.37617e-06 0)
(2.25674e-08 -2.38075e-06 0)
(2.25007e-08 -2.38532e-06 0)
(2.24338e-08 -2.3899e-06 0)
(2.23667e-08 -2.39447e-06 0)
(2.22994e-08 -2.39904e-06 0)
(2.22319e-08 -2.4036e-06 0)
(2.21642e-08 -2.40816e-06 0)
(2.20964e-08 -2.41272e-06 0)
(2.20283e-08 -2.41727e-06 0)
(2.19601e-08 -2.42182e-06 0)
(2.18916e-08 -2.42637e-06 0)
(2.1823e-08 -2.43092e-06 0)
(2.17542e-08 -2.43545e-06 0)
(2.16848e-08 -2.44e-06 0)
(2.16174e-08 -2.4445e-06 0)
(2.15526e-08 -2.44879e-06 0)
(2.14886e-08 -2.45288e-06 0)
(2.14254e-08 -2.45692e-06 0)
(2.13618e-08 -2.46101e-06 0)
(2.12977e-08 -2.46515e-06 0)
(2.12328e-08 -2.46932e-06 0)
(2.11672e-08 -2.47352e-06 0)
(2.11008e-08 -2.47775e-06 0)
(2.10338e-08 -2.48201e-06 0)
(2.0966e-08 -2.48631e-06 0)
(2.08975e-08 -2.49064e-06 0)
(2.08282e-08 -2.495e-06 0)
(2.07581e-08 -2.4994e-06 0)
(2.06873e-08 -2.50383e-06 0)
(2.06157e-08 -2.50829e-06 0)
(2.05433e-08 -2.51278e-06 0)
(2.04701e-08 -2.51731e-06 0)
(2.03961e-08 -2.52187e-06 0)
(2.03214e-08 -2.52646e-06 0)
(2.02458e-08 -2.53108e-06 0)
(2.01694e-08 -2.53574e-06 0)
(2.00922e-08 -2.54043e-06 0)
(2.00141e-08 -2.54515e-06 0)
(1.99352e-08 -2.54991e-06 0)
(1.98555e-08 -2.5547e-06 0)
(1.97749e-08 -2.55952e-06 0)
(1.96934e-08 -2.56437e-06 0)
(1.96111e-08 -2.56925e-06 0)
(1.95279e-08 -2.57417e-06 0)
(1.94439e-08 -2.57912e-06 0)
(1.93589e-08 -2.5841e-06 0)
(1.92731e-08 -2.58912e-06 0)
(1.91863e-08 -2.59416e-06 0)
(1.90987e-08 -2.59924e-06 0)
(1.90101e-08 -2.60435e-06 0)
(1.89206e-08 -2.60949e-06 0)
(1.88302e-08 -2.61466e-06 0)
(1.87389e-08 -2.61986e-06 0)
(1.86466e-08 -2.62509e-06 0)
(1.85534e-08 -2.63036e-06 0)
(1.84592e-08 -2.63565e-06 0)
(1.83641e-08 -2.64097e-06 0)
(1.8268e-08 -2.64633e-06 0)
(1.8171e-08 -2.65171e-06 0)
(1.8073e-08 -2.65712e-06 0)
(1.7974e-08 -2.66257e-06 0)
(1.7874e-08 -2.66804e-06 0)
(1.77731e-08 -2.67354e-06 0)
(1.76711e-08 -2.67906e-06 0)
(1.75682e-08 -2.68462e-06 0)
(1.74643e-08 -2.6902e-06 0)
(1.73593e-08 -2.69581e-06 0)
(1.72534e-08 -2.70145e-06 0)
(1.71464e-08 -2.70711e-06 0)
(1.70384e-08 -2.7128e-06 0)
(1.69295e-08 -2.71851e-06 0)
(1.68194e-08 -2.72425e-06 0)
(1.67084e-08 -2.73001e-06 0)
(1.65964e-08 -2.7358e-06 0)
(1.64833e-08 -2.7416e-06 0)
(1.63692e-08 -2.74744e-06 0)
(1.6254e-08 -2.75329e-06 0)
(1.61379e-08 -2.75917e-06 0)
(1.60207e-08 -2.76506e-06 0)
(1.59024e-08 -2.77098e-06 0)
(1.57831e-08 -2.77692e-06 0)
(1.56628e-08 -2.78287e-06 0)
(1.55415e-08 -2.78885e-06 0)
(1.54191e-08 -2.79484e-06 0)
(1.52957e-08 -2.80085e-06 0)
(1.51713e-08 -2.80688e-06 0)
(1.50459e-08 -2.81292e-06 0)
(1.49194e-08 -2.81897e-06 0)
(1.47919e-08 -2.82504e-06 0)
(1.46634e-08 -2.83112e-06 0)
(1.45339e-08 -2.83722e-06 0)
(1.44033e-08 -2.84332e-06 0)
(1.42718e-08 -2.84944e-06 0)
(1.41393e-08 -2.85557e-06 0)
(1.40057e-08 -2.8617e-06 0)
(1.38712e-08 -2.86784e-06 0)
(1.37357e-08 -2.87399e-06 0)
(1.35993e-08 -2.88015e-06 0)
(1.34618e-08 -2.8863e-06 0)
(1.33235e-08 -2.89247e-06 0)
(1.31841e-08 -2.89863e-06 0)
(1.30439e-08 -2.90479e-06 0)
(1.29027e-08 -2.91096e-06 0)
(1.27606e-08 -2.91712e-06 0)
(1.26176e-08 -2.92329e-06 0)
(1.24738e-08 -2.92944e-06 0)
(1.2329e-08 -2.9356e-06 0)
(1.21834e-08 -2.94174e-06 0)
(1.2037e-08 -2.94789e-06 0)
(1.18897e-08 -2.95402e-06 0)
(1.17416e-08 -2.96014e-06 0)
(1.15928e-08 -2.96625e-06 0)
(1.14431e-08 -2.97235e-06 0)
(1.12927e-08 -2.97843e-06 0)
(1.11416e-08 -2.9845e-06 0)
(1.09897e-08 -2.99055e-06 0)
(1.08371e-08 -2.99658e-06 0)
(1.06839e-08 -3.00259e-06 0)
(1.053e-08 -3.00858e-06 0)
(1.03755e-08 -3.01455e-06 0)
(1.02204e-08 -3.02049e-06 0)
(1.00647e-08 -3.02641e-06 0)
(9.9085e-09 -3.0323e-06 0)
(9.75174e-09 -3.03816e-06 0)
(9.59448e-09 -3.04398e-06 0)
(9.43676e-09 -3.04978e-06 0)
(9.2786e-09 -3.05554e-06 0)
(9.12003e-09 -3.06126e-06 0)
(8.96108e-09 -3.06695e-06 0)
(8.8018e-09 -3.0726e-06 0)
(8.6422e-09 -3.07821e-06 0)
(8.48232e-09 -3.08377e-06 0)
(8.32221e-09 -3.08929e-06 0)
(8.16188e-09 -3.09476e-06 0)
(8.00139e-09 -3.10018e-06 0)
(7.84076e-09 -3.10555e-06 0)
(7.68004e-09 -3.11088e-06 0)
(7.51926e-09 -3.11614e-06 0)
(7.35846e-09 -3.12135e-06 0)
(7.19769e-09 -3.12651e-06 0)
(7.03698e-09 -3.1316e-06 0)
(6.87638e-09 -3.13664e-06 0)
(6.71592e-09 -3.14161e-06 0)
(6.55566e-09 -3.14651e-06 0)
(6.39563e-09 -3.15135e-06 0)
(6.23588e-09 -3.15612e-06 0)
(6.07646e-09 -3.16082e-06 0)
(5.9174e-09 -3.16545e-06 0)
(5.75876e-09 -3.17e-06 0)
(5.60058e-09 -3.17448e-06 0)
(5.44292e-09 -3.17888e-06 0)
(5.2858e-09 -3.1832e-06 0)
(5.1293e-09 -3.18745e-06 0)
(4.97344e-09 -3.1916e-06 0)
(4.81829e-09 -3.19568e-06 0)
(4.66389e-09 -3.19966e-06 0)
(4.51028e-09 -3.20356e-06 0)
(4.35753e-09 -3.20737e-06 0)
(4.20567e-09 -3.21109e-06 0)
(4.05476e-09 -3.21471e-06 0)
(3.90484e-09 -3.21824e-06 0)
(3.75597e-09 -3.22168e-06 0)
(3.6082e-09 -3.22501e-06 0)
(3.46158e-09 -3.22825e-06 0)
(3.31615e-09 -3.23139e-06 0)
(3.17196e-09 -3.23442e-06 0)
(3.02907e-09 -3.23735e-06 0)
(2.88752e-09 -3.24018e-06 0)
(2.74736e-09 -3.2429e-06 0)
(2.60864e-09 -3.24551e-06 0)
(2.47141e-09 -3.24802e-06 0)
(2.3357e-09 -3.25041e-06 0)
(2.20158e-09 -3.2527e-06 0)
(2.06908e-09 -3.25487e-06 0)
(1.93826e-09 -3.25693e-06 0)
(1.80914e-09 -3.25888e-06 0)
(1.68179e-09 -3.26071e-06 0)
(1.55624e-09 -3.26242e-06 0)
(1.43253e-09 -3.26402e-06 0)
(1.3107e-09 -3.26551e-06 0)
(1.19079e-09 -3.26687e-06 0)
(1.07285e-09 -3.26812e-06 0)
(9.56912e-10 -3.26925e-06 0)
(8.43009e-10 -3.27026e-06 0)
(7.31178e-10 -3.27115e-06 0)
(6.21455e-10 -3.27193e-06 0)
(5.13871e-10 -3.27258e-06 0)
(4.0846e-10 -3.27311e-06 0)
(3.05252e-10 -3.27352e-06 0)
(2.04276e-10 -3.27382e-06 0)
(1.05563e-10 -3.27399e-06 0)
(9.12112e-12 -3.27404e-06 0)
(-8.49517e-11 -3.27398e-06 0)
(-1.76944e-10 -3.27379e-06 0)
(-2.65406e-10 -3.27349e-06 0)
(-3.56119e-10 -3.27307e-06 0)
(-4.51804e-10 -3.27246e-06 0)
(-5.47305e-10 -3.27164e-06 0)
(-6.40757e-10 -3.27065e-06 0)
(-7.30209e-10 -3.26952e-06 0)
(-8.15312e-10 -3.26825e-06 0)
(-8.96095e-10 -3.26684e-06 0)
(-9.72652e-10 -3.26531e-06 0)
(-1.04509e-09 -3.26366e-06 0)
(-1.11353e-09 -3.26189e-06 0)
(-1.1781e-09 -3.26002e-06 0)
(-1.23892e-09 -3.25805e-06 0)
(-1.29612e-09 -3.25597e-06 0)
(-1.34981e-09 -3.25382e-06 0)
(-1.4001e-09 -3.25157e-06 0)
(-1.4471e-09 -3.24925e-06 0)
(-1.49091e-09 -3.24686e-06 0)
(-1.53164e-09 -3.24439e-06 0)
(-1.56939e-09 -3.24187e-06 0)
(-1.60425e-09 -3.23928e-06 0)
(-1.63631e-09 -3.23664e-06 0)
(-1.66568e-09 -3.23396e-06 0)
(-1.69242e-09 -3.23122e-06 0)
(-1.71664e-09 -3.22845e-06 0)
(-1.7384e-09 -3.22564e-06 0)
(-1.7578e-09 -3.22279e-06 0)
(-1.7749e-09 -3.21992e-06 0)
(-1.78978e-09 -3.21702e-06 0)
(-1.8025e-09 -3.2141e-06 0)
(-1.81315e-09 -3.21116e-06 0)
(-1.82177e-09 -3.20821e-06 0)
(-1.82845e-09 -3.20524e-06 0)
(-1.83323e-09 -3.20226e-06 0)
(-1.83618e-09 -3.19928e-06 0)
(-1.83735e-09 -3.19629e-06 0)
(-1.8368e-09 -3.19331e-06 0)
(-1.83458e-09 -3.19032e-06 0)
(-1.83074e-09 -3.18735e-06 0)
(-1.82533e-09 -3.18437e-06 0)
(-1.8184e-09 -3.18141e-06 0)
(-1.80999e-09 -3.17847e-06 0)
(-1.80015e-09 -3.17553e-06 0)
(-1.78891e-09 -3.17262e-06 0)
(-1.77633e-09 -3.16972e-06 0)
(-1.76243e-09 -3.16684e-06 0)
(-1.74726e-09 -3.16399e-06 0)
(-1.73086e-09 -3.16117e-06 0)
(-1.71325e-09 -3.15837e-06 0)
(-1.69448e-09 -3.1556e-06 0)
(-1.67457e-09 -3.15286e-06 0)
(-1.65356e-09 -3.15016e-06 0)
(-1.63148e-09 -3.14749e-06 0)
(-1.60837e-09 -3.14486e-06 0)
(-1.58424e-09 -3.14226e-06 0)
(-1.55913e-09 -3.13971e-06 0)
(-1.53307e-09 -3.13719e-06 0)
(-1.50608e-09 -3.13473e-06 0)
(-1.47819e-09 -3.1323e-06 0)
(-1.44943e-09 -3.12992e-06 0)
(-1.41982e-09 -3.12759e-06 0)
(-1.38939e-09 -3.12531e-06 0)
(-1.35816e-09 -3.12307e-06 0)
(-1.32616e-09 -3.12089e-06 0)
(-1.29341e-09 -3.11876e-06 0)
(-1.25993e-09 -3.11668e-06 0)
(-1.22575e-09 -3.11466e-06 0)
(-1.1909e-09 -3.1127e-06 0)
(-1.15539e-09 -3.11079e-06 0)
(-1.11924e-09 -3.10894e-06 0)
(-1.08249e-09 -3.10715e-06 0)
(-1.04515e-09 -3.10542e-06 0)
(-1.00724e-09 -3.10375e-06 0)
(-9.68795e-10 -3.10214e-06 0)
(-9.29825e-10 -3.10059e-06 0)
(-8.90357e-10 -3.09911e-06 0)
(-8.50412e-10 -3.09769e-06 0)
(-8.10013e-10 -3.09634e-06 0)
(-7.6918e-10 -3.09505e-06 0)
(-7.27937e-10 -3.09383e-06 0)
(-6.86304e-10 -3.09268e-06 0)
(-6.44304e-10 -3.09159e-06 0)
(-6.01957e-10 -3.09057e-06 0)
(-5.59287e-10 -3.08963e-06 0)
(-5.16314e-10 -3.08875e-06 0)
(-4.73062e-10 -3.08794e-06 0)
(-4.29553e-10 -3.08719e-06 0)
(-3.85813e-10 -3.08655e-06 0)
(-3.41865e-10 -3.08588e-06 0)
(-2.97745e-10 -3.08557e-06 0)
(-2.53462e-10 -3.0844e-06 0)
(-2.09106e-10 -3.08636e-06 0)
(-1.64543e-10 -3.07802e-06 0)
(-1.2018e-10 -3.10285e-06 0)
(-7.54264e-11 -3.00979e-06 0)
(-2.99584e-11 -3.25692e-06 0)
(-3.63667e-12 -2.8446e-06 0)
)
;
    }
    bottomWall
    {
        type            calculated;
        value           nonuniform List<vector> 
449
(
(-48.4845 -0.963428 0)
(-19.7363 -0.00514906 0)
(-14.3373 -0.00113236 0)
(-12.0357 -0.000542732 0)
(-10.6403 -0.000347231 0)
(-9.66486 -0.000248194 0)
(-8.94169 -0.000182743 0)
(-8.41115 -0.000125114 0)
(-8.08163 -5.40431e-05 0)
(-8.04012 6.52168e-05 0)
(-8.53646 0.000248801 0)
(-9.7673 0.0003372 0)
(-10.8752 0.000260996 0)
(-11.5793 0.000157401 0)
(-11.9712 8.68472e-05 0)
(-12.1858 4.60259e-05 0)
(-12.2935 2.08953e-05 0)
(-12.3324 3.81773e-06 0)
(-12.3202 -7.41665e-06 0)
(-12.28 -1.41068e-05 0)
(-12.2204 -1.8539e-05 0)
(-12.1485 -2.11141e-05 0)
(-12.0704 -2.23238e-05 0)
(-11.9895 -2.27336e-05 0)
(-11.908 -2.26678e-05 0)
(-11.8273 -2.23373e-05 0)
(-11.7478 -2.184e-05 0)
(-11.6702 -2.12177e-05 0)
(-11.5948 -2.05396e-05 0)
(-11.5218 -1.98417e-05 0)
(-11.4512 -1.91442e-05 0)
(-11.3828 -1.84586e-05 0)
(-11.3168 -1.77939e-05 0)
(-11.2531 -1.71531e-05 0)
(-11.1914 -1.65468e-05 0)
(-11.1318 -1.59784e-05 0)
(-11.0741 -1.54316e-05 0)
(-11.0182 -1.49015e-05 0)
(-10.9641 -1.43961e-05 0)
(-10.9117 -1.39165e-05 0)
(-10.8609 -1.34613e-05 0)
(-10.8116 -1.30294e-05 0)
(-10.7638 -1.26213e-05 0)
(-10.7174 -1.22335e-05 0)
(-10.6723 -1.18639e-05 0)
(-10.6284 -1.15123e-05 0)
(-10.5857 -1.11805e-05 0)
(-10.5441 -1.08624e-05 0)
(-10.5036 -1.0566e-05 0)
(-10.4641 -1.03054e-05 0)
(-10.4254 -1.0072e-05 0)
(-10.3874 -9.85219e-06 0)
(-10.3502 -9.6395e-06 0)
(-10.3137 -9.43045e-06 0)
(-10.2779 -9.22486e-06 0)
(-10.2428 -9.02159e-06 0)
(-10.2085 -8.8229e-06 0)
(-10.1747 -8.63026e-06 0)
(-10.1417 -8.44245e-06 0)
(-10.1093 -8.25988e-06 0)
(-10.0775 -8.08364e-06 0)
(-10.0463 -7.91454e-06 0)
(-10.0157 -7.75002e-06 0)
(-9.98561 -7.58972e-06 0)
(-9.95612 -7.43396e-06 0)
(-9.92714 -7.28487e-06 0)
(-9.89868 -7.141e-06 0)
(-9.87071 -7.00175e-06 0)
(-9.84322 -6.86535e-06 0)
(-9.8162 -6.73672e-06 0)
(-9.7896 -6.61441e-06 0)
(-9.76343 -6.49218e-06 0)
(-9.73769 -6.3721e-06 0)
(-9.71236 -6.25639e-06 0)
(-9.68742 -6.14467e-06 0)
(-9.66287 -6.03455e-06 0)
(-9.63871 -5.92763e-06 0)
(-9.61491 -5.82316e-06 0)
(-9.59148 -5.72163e-06 0)
(-9.5684 -5.62318e-06 0)
(-9.54566 -5.52742e-06 0)
(-9.52325 -5.43428e-06 0)
(-9.50117 -5.34382e-06 0)
(-9.4794 -5.25553e-06 0)
(-9.45794 -5.16949e-06 0)
(-9.43677 -5.0862e-06 0)
(-9.4159 -5.00479e-06 0)
(-9.39531 -4.92688e-06 0)
(-9.37499 -4.85044e-06 0)
(-9.35494 -4.77531e-06 0)
(-9.33515 -4.70261e-06 0)
(-9.31561 -4.63089e-06 0)
(-9.29633 -4.56127e-06 0)
(-9.27729 -4.49332e-06 0)
(-9.25849 -4.42616e-06 0)
(-9.23992 -4.36185e-06 0)
(-9.22158 -4.29842e-06 0)
(-9.20346 -4.23621e-06 0)
(-9.18556 -4.17642e-06 0)
(-9.16787 -4.11697e-06 0)
(-9.15039 -4.06159e-06 0)
(-9.1331 -4.00891e-06 0)
(-9.11599 -3.95474e-06 0)
(-9.09907 -3.90154e-06 0)
(-9.08235 -3.84878e-06 0)
(-9.06581 -3.79669e-06 0)
(-9.04945 -3.74684e-06 0)
(-9.03327 -3.69746e-06 0)
(-9.01727 -3.64852e-06 0)
(-9.00143 -3.60174e-06 0)
(-8.98577 -3.55541e-06 0)
(-8.97027 -3.5093e-06 0)
(-8.95493 -3.4654e-06 0)
(-8.93974 -3.42197e-06 0)
(-8.92472 -3.37857e-06 0)
(-8.90984 -3.33716e-06 0)
(-8.89511 -3.29645e-06 0)
(-8.88053 -3.25559e-06 0)
(-8.8661 -3.21624e-06 0)
(-8.8518 -3.17811e-06 0)
(-8.83764 -3.13971e-06 0)
(-8.82362 -3.10227e-06 0)
(-8.80973 -3.06651e-06 0)
(-8.79597 -3.03053e-06 0)
(-8.78234 -2.99475e-06 0)
(-8.76883 -2.96069e-06 0)
(-8.75545 -2.92709e-06 0)
(-8.74219 -2.89339e-06 0)
(-8.72905 -2.86069e-06 0)
(-8.71602 -2.82918e-06 0)
(-8.70311 -2.79755e-06 0)
(-8.69031 -2.76605e-06 0)
(-8.67763 -2.736e-06 0)
(-8.66505 -2.70648e-06 0)
(-8.65258 -2.67671e-06 0)
(-8.64022 -2.64767e-06 0)
(-8.62796 -2.61991e-06 0)
(-8.6158 -2.59201e-06 0)
(-8.60374 -2.564e-06 0)
(-8.59179 -2.53723e-06 0)
(-8.57993 -2.51128e-06 0)
(-8.56816 -2.48495e-06 0)
(-8.55649 -2.45884e-06 0)
(-8.54491 -2.43398e-06 0)
(-8.53343 -2.40954e-06 0)
(-8.52203 -2.38477e-06 0)
(-8.51072 -2.36094e-06 0)
(-8.4995 -2.33927e-06 0)
(-8.48835 -2.31762e-06 0)
(-8.47728 -2.29469e-06 0)
(-8.46629 -2.27195e-06 0)
(-8.45539 -2.25004e-06 0)
(-8.44457 -2.22839e-06 0)
(-8.43382 -2.20656e-06 0)
(-8.42316 -2.18507e-06 0)
(-8.41257 -2.16439e-06 0)
(-8.40206 -2.14408e-06 0)
(-8.39162 -2.12357e-06 0)
(-8.38126 -2.10322e-06 0)
(-8.37098 -2.08368e-06 0)
(-8.36076 -2.06466e-06 0)
(-8.35061 -2.04539e-06 0)
(-8.34054 -2.02606e-06 0)
(-8.33053 -2.00754e-06 0)
(-8.3206 -1.98965e-06 0)
(-8.31072 -1.97157e-06 0)
(-8.30092 -1.95336e-06 0)
(-8.29118 -1.93567e-06 0)
(-8.28151 -1.91881e-06 0)
(-8.2719 -1.90181e-06 0)
(-8.26235 -1.88497e-06 0)
(-8.25286 -1.86793e-06 0)
(-8.24344 -1.84948e-06 0)
(-8.23462 -1.83612e-06 0)
(-8.2263 -1.82456e-06 0)
(-8.21795 -1.80845e-06 0)
(-8.2096 -1.79345e-06 0)
(-8.20121 -1.77967e-06 0)
(-8.19281 -1.7658e-06 0)
(-8.18437 -1.75176e-06 0)
(-8.17592 -1.73737e-06 0)
(-8.16744 -1.72347e-06 0)
(-8.15894 -1.70986e-06 0)
(-8.15041 -1.69638e-06 0)
(-8.14186 -1.68247e-06 0)
(-8.13329 -1.6684e-06 0)
(-8.1247 -1.65484e-06 0)
(-8.11608 -1.64152e-06 0)
(-8.10744 -1.62817e-06 0)
(-8.09878 -1.61452e-06 0)
(-8.0901 -1.60088e-06 0)
(-8.0814 -1.58767e-06 0)
(-8.07267 -1.57463e-06 0)
(-8.06392 -1.56141e-06 0)
(-8.05516 -1.54804e-06 0)
(-8.04637 -1.53485e-06 0)
(-8.03757 -1.52196e-06 0)
(-8.02874 -1.50922e-06 0)
(-8.01989 -1.49621e-06 0)
(-8.01102 -1.48309e-06 0)
(-8.00214 -1.47036e-06 0)
(-7.99323 -1.45785e-06 0)
(-7.98431 -1.44527e-06 0)
(-7.97537 -1.43252e-06 0)
(-7.96641 -1.41987e-06 0)
(-7.95743 -1.40753e-06 0)
(-7.94843 -1.39537e-06 0)
(-7.93942 -1.38296e-06 0)
(-7.93039 -1.37045e-06 0)
(-7.92134 -1.3583e-06 0)
(-7.91227 -1.3464e-06 0)
(-7.90319 -1.33434e-06 0)
(-7.89409 -1.32279e-06 0)
(-7.88497 -1.31184e-06 0)
(-7.87583 -1.30056e-06 0)
(-7.86666 -1.28894e-06 0)
(-7.85749 -1.2771e-06 0)
(-7.8483 -1.26528e-06 0)
(-7.83909 -1.25379e-06 0)
(-7.82987 -1.24247e-06 0)
(-7.82063 -1.23094e-06 0)
(-7.81138 -1.21934e-06 0)
(-7.80212 -1.2081e-06 0)
(-7.79284 -1.1971e-06 0)
(-7.78355 -1.18587e-06 0)
(-7.77424 -1.17454e-06 0)
(-7.76493 -1.16355e-06 0)
(-7.7556 -1.15282e-06 0)
(-7.74625 -1.14192e-06 0)
(-7.7369 -1.1309e-06 0)
(-7.72753 -1.12017e-06 0)
(-7.71815 -1.1097e-06 0)
(-7.70876 -1.0991e-06 0)
(-7.69936 -1.08839e-06 0)
(-7.68995 -1.07794e-06 0)
(-7.68053 -1.06774e-06 0)
(-7.67109 -1.05743e-06 0)
(-7.66165 -1.04701e-06 0)
(-7.65219 -1.03685e-06 0)
(-7.64273 -1.02694e-06 0)
(-7.63325 -1.0169e-06 0)
(-7.62377 -1.00678e-06 0)
(-7.61428 -9.96923e-07 0)
(-7.60478 -9.87291e-07 0)
(-7.59527 -9.77519e-07 0)
(-7.58575 -9.67686e-07 0)
(-7.57622 -9.58146e-07 0)
(-7.56669 -9.48803e-07 0)
(-7.55714 -9.3929e-07 0)
(-7.54759 -9.29748e-07 0)
(-7.53804 -9.20522e-07 0)
(-7.52847 -9.11426e-07 0)
(-7.5189 -9.02176e-07 0)
(-7.50932 -8.92967e-07 0)
(-7.49974 -8.84028e-07 0)
(-7.49015 -8.75162e-07 0)
(-7.48055 -8.66188e-07 0)
(-7.47095 -8.57313e-07 0)
(-7.46134 -8.4867e-07 0)
(-7.45173 -8.40032e-07 0)
(-7.44211 -8.31324e-07 0)
(-7.43249 -8.22773e-07 0)
(-7.42286 -8.14422e-07 0)
(-7.41323 -8.06008e-07 0)
(-7.40359 -7.97566e-07 0)
(-7.39395 -7.89333e-07 0)
(-7.38431 -7.81238e-07 0)
(-7.37466 -7.73057e-07 0)
(-7.36501 -7.64919e-07 0)
(-7.35536 -7.56994e-07 0)
(-7.3457 -7.49109e-07 0)
(-7.33604 -7.41177e-07 0)
(-7.32638 -7.33361e-07 0)
(-7.31672 -7.26217e-07 0)
(-7.30704 -7.19179e-07 0)
(-7.29736 -7.11617e-07 0)
(-7.28767 -7.04112e-07 0)
(-7.27798 -6.96699e-07 0)
(-7.26829 -6.89239e-07 0)
(-7.2586 -6.81839e-07 0)
(-7.24891 -6.74621e-07 0)
(-7.23922 -6.67413e-07 0)
(-7.22953 -6.60173e-07 0)
(-7.21984 -6.53075e-07 0)
(-7.21015 -6.46111e-07 0)
(-7.20046 -6.39096e-07 0)
(-7.19077 -6.32103e-07 0)
(-7.18108 -6.25302e-07 0)
(-7.17139 -6.18539e-07 0)
(-7.16171 -6.11738e-07 0)
(-7.15202 -6.05059e-07 0)
(-7.14234 -5.98525e-07 0)
(-7.13265 -5.91944e-07 0)
(-7.12298 -5.85375e-07 0)
(-7.1133 -5.78989e-07 0)
(-7.10362 -5.72643e-07 0)
(-7.09395 -5.6626e-07 0)
(-7.08428 -5.59991e-07 0)
(-7.07462 -5.5386e-07 0)
(-7.06495 -5.47688e-07 0)
(-7.05529 -5.41538e-07 0)
(-7.04564 -5.35555e-07 0)
(-7.03599 -5.29602e-07 0)
(-7.02634 -5.2362e-07 0)
(-7.0167 -5.17756e-07 0)
(-7.00706 -5.12001e-07 0)
(-6.99742 -5.06212e-07 0)
(-6.98779 -5.00465e-07 0)
(-6.97817 -4.94874e-07 0)
(-6.96855 -4.89285e-07 0)
(-6.95894 -4.83686e-07 0)
(-6.94933 -4.78215e-07 0)
(-6.93973 -4.72817e-07 0)
(-6.93013 -4.67392e-07 0)
(-6.92054 -4.6204e-07 0)
(-6.91096 -4.56813e-07 0)
(-6.90138 -4.51567e-07 0)
(-6.89182 -4.46335e-07 0)
(-6.88225 -4.41248e-07 0)
(-6.8727 -4.36184e-07 0)
(-6.86315 -4.3111e-07 0)
(-6.85361 -4.26139e-07 0)
(-6.84408 -4.21244e-07 0)
(-6.83456 -4.16331e-07 0)
(-6.82504 -4.11475e-07 0)
(-6.81553 -4.06735e-07 0)
(-6.80603 -4.01985e-07 0)
(-6.79654 -3.97252e-07 0)
(-6.78707 -3.92634e-07 0)
(-6.77759 -3.8826e-07 0)
(-6.76812 -3.83961e-07 0)
(-6.75865 -3.79521e-07 0)
(-6.7492 -3.75075e-07 0)
(-6.73975 -3.70621e-07 0)
(-6.73031 -3.66234e-07 0)
(-6.72088 -3.61934e-07 0)
(-6.71147 -3.5763e-07 0)
(-6.70206 -3.53356e-07 0)
(-6.69267 -3.49222e-07 0)
(-6.68328 -3.45112e-07 0)
(-6.67391 -3.40982e-07 0)
(-6.66454 -3.36925e-07 0)
(-6.65519 -3.329e-07 0)
(-6.64585 -3.28876e-07 0)
(-6.63652 -3.24935e-07 0)
(-6.6272 -3.2104e-07 0)
(-6.6179 -3.17155e-07 0)
(-6.6086 -3.13315e-07 0)
(-6.59933 -3.09557e-07 0)
(-6.59005 -3.05777e-07 0)
(-6.5808 -3.02071e-07 0)
(-6.57156 -2.98344e-07 0)
(-6.56234 -2.94769e-07 0)
(-6.55312 -2.91317e-07 0)
(-6.54288 -2.87197e-07 0)
(-6.53173 -2.82781e-07 0)
(-6.52076 -2.7876e-07 0)
(-6.50992 -2.74823e-07 0)
(-6.49926 -2.70883e-07 0)
(-6.48873 -2.6707e-07 0)
(-6.47836 -2.63337e-07 0)
(-6.46813 -2.59675e-07 0)
(-6.45805 -2.56125e-07 0)
(-6.44809 -2.52644e-07 0)
(-6.43828 -2.49234e-07 0)
(-6.4286 -2.45928e-07 0)
(-6.41905 -2.42686e-07 0)
(-6.40961 -2.39496e-07 0)
(-6.40031 -2.36414e-07 0)
(-6.39112 -2.33385e-07 0)
(-6.38205 -2.30408e-07 0)
(-6.37309 -2.27522e-07 0)
(-6.36425 -2.24696e-07 0)
(-6.35551 -2.21905e-07 0)
(-6.34689 -2.19199e-07 0)
(-6.33837 -2.16553e-07 0)
(-6.32995 -2.13943e-07 0)
(-6.32163 -2.11391e-07 0)
(-6.31342 -2.08918e-07 0)
(-6.30529 -2.06468e-07 0)
(-6.29726 -2.04061e-07 0)
(-6.28932 -2.01729e-07 0)
(-6.28148 -1.9944e-07 0)
(-6.27372 -1.9725e-07 0)
(-6.26605 -1.9517e-07 0)
(-6.25845 -1.93072e-07 0)
(-6.25095 -1.90953e-07 0)
(-6.24352 -1.88854e-07 0)
(-6.23618 -1.86823e-07 0)
(-6.2289 -1.84828e-07 0)
(-6.22172 -1.82862e-07 0)
(-6.2146 -1.80941e-07 0)
(-6.20756 -1.79073e-07 0)
(-6.20059 -1.77212e-07 0)
(-6.1937 -1.75372e-07 0)
(-6.18687 -1.73572e-07 0)
(-6.18012 -1.71828e-07 0)
(-6.17343 -1.70093e-07 0)
(-6.16682 -1.68382e-07 0)
(-6.16026 -1.66707e-07 0)
(-6.15378 -1.65086e-07 0)
(-6.14734 -1.63469e-07 0)
(-6.14099 -1.61878e-07 0)
(-6.13468 -1.60313e-07 0)
(-6.12845 -1.58804e-07 0)
(-6.12226 -1.57295e-07 0)
(-6.11614 -1.55815e-07 0)
(-6.11007 -1.54345e-07 0)
(-6.10407 -1.52938e-07 0)
(-6.09811 -1.51529e-07 0)
(-6.09222 -1.50154e-07 0)
(-6.08636 -1.48765e-07 0)
(-6.08058 -1.47453e-07 0)
(-6.07483 -1.46134e-07 0)
(-6.06915 -1.44863e-07 0)
(-6.06349 -1.43547e-07 0)
(-6.05792 -1.42325e-07 0)
(-6.05236 -1.41074e-07 0)
(-6.04689 -1.39909e-07 0)
(-6.04142 -1.38668e-07 0)
(-6.03604 -1.37534e-07 0)
(-6.03066 -1.36334e-07 0)
(-6.02537 -1.35273e-07 0)
(-6.02008 -1.34097e-07 0)
(-6.01488 -1.33064e-07 0)
(-6.00967 -1.31901e-07 0)
(-6.00457 -1.30938e-07 0)
(-5.99943 -1.29816e-07 0)
(-5.99441 -1.28905e-07 0)
(-5.98934 -1.27772e-07 0)
(-5.98442 -1.26916e-07 0)
(-5.97942 -1.25817e-07 0)
(-5.97458 -1.25047e-07 0)
(-5.96963 -1.23956e-07 0)
(-5.96488 -1.23237e-07 0)
(-5.95999 -1.22168e-07 0)
(-5.95532 -1.21533e-07 0)
(-5.95049 -1.20566e-07 0)
(-5.94589 -1.19898e-07 0)
(-5.94111 -1.19296e-07 0)
(-5.93656 -1.18017e-07 0)
(-5.93188 -1.19146e-07 0)
(-5.92723 -1.1477e-07 0)
(-5.92291 -1.22856e-07 0)
(-5.9176 -1.05283e-07 0)
(-5.91472 -1.36323e-07 0)
(-5.90686 -8.29736e-08 0)
(-5.90839 -1.14704e-07 0)
(-5.8976 -1.43079e-07 0)
)
;
    }
    symmetry
    {
        type            symmetryPlane;
    }
    frontAndBack
    {
        type            empty;
    }
}


// ************************************************************************* //
