/*--------------------------------*- C++ -*----------------------------------*\
| =========                 |                                                 |
| \\      /  F ield         | OpenFOAM: The Open Source CFD Toolbox           |
|  \\    /   O peration     | Version:  v2012                                 |
|   \\  /    A nd           | Website:  www.openfoam.com                      |
|    \\/     M anipulation  |                                                 |
\*---------------------------------------------------------------------------*/
FoamFile
{
    version     2.0;
    format      ascii;
    class       volScalarField;
    location    "52.5";
    object      yPlus;
}
// * * * * * * * * * * * * * * * * * * * * * * * * * * * * * * * * * * * * * //

dimensions      [0 0 0 0 0 0 0];


internalField   uniform 0;

boundaryField
{
    inlet
    {
        type            calculated;
        value           uniform 0;
    }
    outlet
    {
        type            calculated;
        value           uniform 0;
    }
    topWall
    {
        type            calculated;
        value           nonuniform List<scalar> 
545
(
0.111335
0.191975
0.246286
0.289508
0.326101
0.358121
0.386723
0.412635
0.436352
0.458229
0.478533
0.49747
0.515205
0.531868
0.547571
0.562406
0.57645
0.58977
0.602426
0.614467
0.625939
0.636882
0.647332
0.65732
0.666876
0.676026
0.684793
0.6932
0.701268
0.709013
0.716454
0.723606
0.730483
0.7371
0.74347
0.749603
0.755511
0.761204
0.766693
0.771986
0.777092
0.782019
0.786774
0.791366
0.7958
0.800084
0.804223
0.808224
0.812091
0.81583
0.819446
0.822944
0.826328
0.829602
0.832772
0.83584
0.83881
0.841686
0.844472
0.84717
0.849784
0.852317
0.854771
0.857149
0.859455
0.86169
0.863857
0.865958
0.867996
0.869972
0.871888
0.873748
0.875528
0.877251
0.87896
0.880656
0.882339
0.884008
0.885664
0.887307
0.888937
0.890555
0.89216
0.893752
0.895333
0.896901
0.898456
0.9
0.901533
0.903053
0.904562
0.906059
0.907545
0.909019
0.910483
0.911935
0.913243
0.914414
0.915585
0.916755
0.917925
0.919096
0.920266
0.921436
0.922606
0.923775
0.924945
0.926114
0.927283
0.928452
0.929621
0.93079
0.931959
0.933127
0.934295
0.935463
0.936631
0.937798
0.938965
0.940132
0.941299
0.942466
0.943632
0.944798
0.945963
0.947129
0.948294
0.949459
0.950623
0.951788
0.952952
0.954115
0.955279
0.956442
0.957604
0.958766
0.959928
0.96109
0.962251
0.963412
0.964572
0.965732
0.966891
0.968051
0.969209
0.970367
0.971525
0.972683
0.97384
0.974996
0.976152
0.977307
0.978462
0.979617
0.980771
0.981924
0.983077
0.98423
0.985381
0.986533
0.987683
0.988834
0.989983
0.991132
0.99228
0.993428
0.994575
0.995722
0.996868
0.998013
0.999158
1.0003
1.00144
1.00259
1.00373
1.00487
1.00601
1.00715
1.00829
1.00943
1.01056
1.0117
1.01284
1.01397
1.01511
1.01624
1.01737
1.01851
1.01964
1.02077
1.0219
1.02302
1.02415
1.02528
1.0264
1.02753
1.02865
1.02978
1.0309
1.03202
1.03314
1.03426
1.03538
1.03649
1.03761
1.03873
1.03984
1.04095
1.04207
1.04318
1.04429
1.04539
1.0465
1.04761
1.04871
1.04982
1.05092
1.05202
1.05313
1.05423
1.05532
1.05642
1.05752
1.05861
1.05971
1.0608
1.06189
1.06298
1.06407
1.06515
1.06624
1.06733
1.06841
1.06949
1.07057
1.07165
1.07273
1.0738
1.07488
1.07595
1.07702
1.0781
1.07916
1.08023
1.0813
1.08236
1.08343
1.08449
1.08555
1.08661
1.08766
1.08872
1.08977
1.09082
1.09188
1.09292
1.09397
1.09502
1.09606
1.0971
1.09814
1.09918
1.10022
1.10126
1.10229
1.10332
1.10435
1.10538
1.10641
1.10737
1.10829
1.10921
1.11013
1.11106
1.112
1.11295
1.1139
1.11486
1.11582
1.11679
1.11777
1.11876
1.11975
1.12074
1.12175
1.12276
1.12377
1.1248
1.12583
1.12686
1.1279
1.12895
1.13001
1.13107
1.13213
1.13321
1.13429
1.13537
1.13646
1.13756
1.13866
1.13977
1.14089
1.14201
1.14313
1.14427
1.1454
1.14655
1.1477
1.14885
1.15001
1.15118
1.15235
1.15352
1.1547
1.15589
1.15708
1.15828
1.15948
1.16068
1.16189
1.16311
1.16433
1.16555
1.16677
1.16801
1.16924
1.17048
1.17172
1.17297
1.17422
1.17547
1.17673
1.17798
1.17925
1.18051
1.18178
1.18305
1.18432
1.18559
1.18687
1.18815
1.18942
1.1907
1.19199
1.19327
1.19455
1.19583
1.19712
1.1984
1.19969
1.20097
1.20226
1.20354
1.20482
1.2061
1.20738
1.20866
1.20994
1.21121
1.21248
1.21375
1.21502
1.21628
1.21754
1.2188
1.22005
1.2213
1.22254
1.22378
1.22502
1.22625
1.22747
1.22869
1.2299
1.2311
1.2323
1.23349
1.23467
1.23585
1.23702
1.23818
1.23933
1.24047
1.2416
1.24272
1.24383
1.24494
1.24603
1.24711
1.24818
1.24923
1.25028
1.25131
1.25233
1.25334
1.25433
1.25531
1.25628
1.25723
1.25816
1.25909
1.25999
1.26088
1.26176
1.26262
1.26346
1.26428
1.26509
1.26588
1.26665
1.2674
1.26814
1.26885
1.26955
1.27023
1.27089
1.27153
1.27215
1.27274
1.27332
1.27388
1.27441
1.27493
1.27542
1.27589
1.27634
1.27677
1.27717
1.27755
1.27791
1.27825
1.27857
1.27886
1.27913
1.27937
1.27959
1.27979
1.27997
1.28012
1.28025
1.28035
1.28043
1.28049
1.28053
1.28054
1.28052
1.28049
1.28043
1.28035
1.28023
1.28007
1.27988
1.27966
1.27941
1.27914
1.27884
1.27851
1.27817
1.2778
1.27741
1.27701
1.27659
1.27615
1.27569
1.27522
1.27474
1.27424
1.27374
1.27322
1.27269
1.27215
1.27161
1.27105
1.27049
1.26993
1.26935
1.26878
1.2682
1.26762
1.26703
1.26644
1.26585
1.26526
1.26467
1.26408
1.26349
1.2629
1.26231
1.26173
1.26115
1.26057
1.25999
1.25942
1.25885
1.25829
1.25774
1.25718
1.25664
1.2561
1.25557
1.25504
1.25453
1.25402
1.25351
1.25302
1.25254
1.25206
1.25159
1.25114
1.25069
1.25025
1.24983
1.24941
1.24901
1.24861
1.24823
1.24786
1.2475
1.24715
1.24682
1.24649
1.24618
1.24588
1.2456
1.24533
1.24507
1.24482
1.24459
1.24437
1.24417
1.24398
1.2438
1.24364
1.24349
1.24335
1.24323
1.24313
1.24304
1.24296
1.2429
1.24285
1.24281
1.2428
1.24279
)
;
    }
    bottomWall
    {
        type            calculated;
        value           nonuniform List<scalar> 
449
(
0.139384
0.0889274
0.0757942
0.0694445
0.065295
0.06223
0.0598566
0.0580537
0.0569051
0.0567588
0.0584845
0.0625589
0.0660116
0.068115
0.0692583
0.0698762
0.0701842
0.0702952
0.0702605
0.0701457
0.0699753
0.0697692
0.0695444
0.0693111
0.0690752
0.0688405
0.0686088
0.0683819
0.0681608
0.0679458
0.0677371
0.0675348
0.0673387
0.0671487
0.0669646
0.0667859
0.0666125
0.0664442
0.0662809
0.0661223
0.0659683
0.0658185
0.0656728
0.065531
0.0653928
0.0652583
0.065127
0.064999
0.0648741
0.0647518
0.064632
0.0645143
0.0643986
0.064285
0.0641734
0.0640637
0.0639561
0.0638504
0.0637466
0.0636447
0.0635445
0.0634461
0.0633493
0.0632542
0.0631607
0.0630687
0.0629783
0.0628892
0.0628016
0.0627153
0.0626303
0.0625465
0.062464
0.0623827
0.0623026
0.0622236
0.0621458
0.062069
0.0619933
0.0619187
0.0618451
0.0617724
0.0617008
0.06163
0.0615602
0.0614913
0.0614233
0.0613561
0.0612897
0.0612241
0.0611593
0.0610953
0.061032
0.0609695
0.0609077
0.0608466
0.0607862
0.0607264
0.0606673
0.0606089
0.0605511
0.0604938
0.0604371
0.060381
0.0603255
0.0602706
0.0602162
0.0601623
0.060109
0.0600562
0.0600039
0.0599521
0.0599009
0.0598501
0.0597997
0.0597499
0.0597005
0.0596515
0.059603
0.059555
0.0595073
0.0594601
0.0594133
0.0593668
0.0593208
0.0592752
0.0592299
0.0591851
0.0591406
0.0590964
0.0590526
0.0590092
0.0589661
0.0589234
0.058881
0.0588389
0.0587971
0.0587557
0.0587146
0.0586737
0.0586332
0.058593
0.0585531
0.0585135
0.0584741
0.0584351
0.0583963
0.0583578
0.0583195
0.0582814
0.0582437
0.0582061
0.0581689
0.0581319
0.0580951
0.0580586
0.0580223
0.0579862
0.0579504
0.0579149
0.0578795
0.0578444
0.0578095
0.0577748
0.0577403
0.0577061
0.057672
0.0576382
0.0576046
0.0575711
0.0575379
0.0575048
0.057472
0.0574412
0.0574122
0.0573831
0.0573539
0.0573246
0.0572952
0.0572657
0.0572361
0.0572065
0.0571767
0.0571468
0.0571168
0.0570867
0.0570566
0.0570263
0.0569959
0.0569655
0.0569349
0.0569043
0.0568736
0.0568428
0.0568119
0.0567809
0.0567498
0.0567186
0.0566874
0.056656
0.0566246
0.0565931
0.0565615
0.0565298
0.056498
0.0564662
0.0564343
0.0564022
0.0563701
0.056338
0.0563057
0.0562734
0.056241
0.0562085
0.0561759
0.0561432
0.0561105
0.0560776
0.0560447
0.0560118
0.0559787
0.0559456
0.0559124
0.0558792
0.0558458
0.0558125
0.055779
0.0557455
0.0557119
0.0556782
0.0556445
0.0556108
0.0555769
0.055543
0.055509
0.055475
0.0554409
0.0554068
0.0553726
0.0553384
0.055304
0.0552697
0.0552353
0.0552008
0.0551663
0.0551317
0.0550971
0.0550624
0.0550276
0.0549929
0.054958
0.0549232
0.0548882
0.0548533
0.0548182
0.0547832
0.0547481
0.0547129
0.0546777
0.0546425
0.0546072
0.0545719
0.0545366
0.0545012
0.0544657
0.0544303
0.0543948
0.0543592
0.0543236
0.054288
0.0542524
0.0542167
0.054181
0.0541452
0.0541094
0.0540735
0.0540376
0.0540017
0.0539658
0.0539298
0.0538938
0.0538577
0.0538217
0.0537856
0.0537495
0.0537133
0.0536772
0.053641
0.0536048
0.0535686
0.0535324
0.0534961
0.0534598
0.0534236
0.0533873
0.0533509
0.0533146
0.0532783
0.0532419
0.0532055
0.0531691
0.0531327
0.0530963
0.0530599
0.0530235
0.0529871
0.0529506
0.0529142
0.0528777
0.0528413
0.0528048
0.0527683
0.0527319
0.0526954
0.0526589
0.0526225
0.052586
0.0525495
0.0525131
0.0524766
0.0524401
0.0524037
0.0523672
0.0523308
0.0522943
0.0522579
0.0522215
0.0521851
0.0521486
0.0521122
0.0520758
0.0520394
0.052003
0.0519665
0.0519302
0.0518938
0.0518574
0.0518211
0.0517847
0.0517484
0.0517121
0.0516758
0.0516395
0.0516033
0.051567
0.0515308
0.0514946
0.0514585
0.0514223
0.0513862
0.0513501
0.051314
0.051278
0.051242
0.0512019
0.0511583
0.0511153
0.0510728
0.051031
0.0509896
0.0509489
0.0509086
0.0508689
0.0508297
0.050791
0.0507528
0.0507151
0.0506778
0.050641
0.0506046
0.0505687
0.0505332
0.0504982
0.0504635
0.0504293
0.0503954
0.0503619
0.0503288
0.0502961
0.0502637
0.0502317
0.0502
0.0501687
0.0501377
0.0501071
0.0500767
0.0500467
0.0500169
0.0499875
0.0499583
0.0499295
0.0499009
0.0498727
0.0498446
0.049817
0.0497895
0.0497623
0.0497354
0.0497087
0.0496823
0.0496561
0.0496302
0.0496045
0.049579
0.0495538
0.0495288
0.0495041
0.0494795
0.0494552
0.049431
0.0494071
0.0493834
0.0493599
0.0493366
0.0493135
0.0492905
0.0492679
0.0492453
0.049223
0.0492007
0.0491788
0.0491569
0.0491353
0.0491137
0.0490926
0.0490713
0.0490504
0.0490294
0.0490089
0.0489882
0.0489681
0.0489476
0.0489278
0.0489075
0.0488881
0.048868
0.0488489
0.0488291
0.0488102
0.0487906
0.0487719
0.0487527
0.0487336
0.0487158
0.0486939
0.0486821
0.0486497
0.048656
0.0486116
)
;
    }
    symmetry
    {
        type            symmetryPlane;
    }
    frontAndBack
    {
        type            empty;
    }
}


// ************************************************************************* //
