/*--------------------------------*- C++ -*----------------------------------*\
| =========                 |                                                 |
| \\      /  F ield         | OpenFOAM: The Open Source CFD Toolbox           |
|  \\    /   O peration     | Version:  v2012                                 |
|   \\  /    A nd           | Website:  www.openfoam.com                      |
|    \\/     M anipulation  |                                                 |
\*---------------------------------------------------------------------------*/
FoamFile
{
    version     2.0;
    format      ascii;
    class       volScalarField;
    location    "22.5";
    object      epsilon;
}
// * * * * * * * * * * * * * * * * * * * * * * * * * * * * * * * * * * * * * //

dimensions      [0 2 -3 0 0 0 0];


internalField   nonuniform List<scalar> 
209825
(
0.755352
0.663579
0.616793
0.590464
0.573998
0.56291
0.554988
0.549132
0.544623
0.541106
0.538259
0.535961
0.534032
0.532431
0.531055
0.5299
0.528879
0.528014
0.527231
0.526566
0.525951
0.525425
0.524934
0.524521
0.524123
0.523787
0.523464
0.523198
0.52293
0.522705
0.522492
0.522321
0.522142
0.521998
0.521855
0.521749
0.521618
0.521523
0.521427
0.521358
0.52129
0.521243
0.521165
0.521122
0.521089
0.521059
0.520991
0.520983
0.520978
0.520968
0.520937
0.52102
0.52102
0.52102
0.521072
0.521072
0.521161
0.521299
0.521403
0.521564
0.521578
0.521578
0.521664
0.521797
0.522004
0.522146
0.52223
0.52237
0.522583
0.522742
0.522946
0.523171
0.523363
0.523585
0.523803
0.524053
0.524308
0.524643
0.524901
0.525315
0.525606
0.526084
0.526415
0.526998
0.527376
0.528116
0.52856
0.529506
0.530067
0.531298
0.531996
0.534192
0.534719
0.543255
2.92963
538.72
0.755352
0.663572
0.616778
0.590444
0.573974
0.562884
0.55496
0.549101
0.544591
0.541073
0.538226
0.535927
0.533997
0.532396
0.531019
0.529864
0.528843
0.527978
0.527195
0.526529
0.525914
0.525387
0.524897
0.524483
0.524086
0.523749
0.523426
0.52316
0.522892
0.522667
0.522453
0.522283
0.522104
0.52196
0.521817
0.52171
0.521579
0.521484
0.521388
0.521319
0.521251
0.521205
0.521126
0.521083
0.52105
0.52102
0.520952
0.520944
0.520939
0.520929
0.520898
0.520981
0.520981
0.520981
0.521033
0.521033
0.521122
0.52126
0.521364
0.521525
0.521539
0.521539
0.521625
0.521758
0.521965
0.522108
0.522191
0.522331
0.522544
0.522703
0.522907
0.523132
0.523324
0.523547
0.523764
0.524014
0.524269
0.524604
0.524863
0.525276
0.525567
0.526045
0.526376
0.526959
0.527337
0.528077
0.528522
0.529467
0.530029
0.53126
0.531957
0.534153
0.53468
0.54323
2.93436
535.387
0.75535
0.663535
0.616711
0.590355
0.573869
0.562768
0.554836
0.548971
0.544456
0.540934
0.538084
0.535783
0.533851
0.532248
0.53087
0.529713
0.528691
0.527824
0.527041
0.526374
0.525758
0.525231
0.52474
0.524326
0.523928
0.523591
0.523267
0.523002
0.522733
0.522508
0.522294
0.522123
0.521944
0.521799
0.521656
0.52155
0.521419
0.521323
0.521227
0.521158
0.52109
0.521043
0.520965
0.520921
0.520888
0.520858
0.520791
0.520783
0.520778
0.520767
0.520736
0.520819
0.520819
0.520818
0.520871
0.520871
0.52096
0.521098
0.521201
0.521362
0.521377
0.521376
0.521462
0.521596
0.521803
0.521945
0.522029
0.522169
0.522381
0.522541
0.522745
0.522969
0.523161
0.523384
0.523602
0.523852
0.524106
0.524441
0.5247
0.525113
0.525404
0.525882
0.526213
0.526796
0.527174
0.527914
0.528358
0.529303
0.529865
0.531095
0.531792
0.533988
0.534512
0.543089
2.94454
531.509
0.755347
0.663473
0.616595
0.590202
0.573691
0.562571
0.554626
0.548751
0.544228
0.5407
0.537845
0.535539
0.533604
0.531997
0.530617
0.529458
0.528434
0.527566
0.526781
0.526113
0.525496
0.524968
0.524476
0.524061
0.523662
0.523325
0.523
0.522734
0.522465
0.522239
0.522024
0.521853
0.521674
0.521529
0.521385
0.521278
0.521147
0.521051
0.520955
0.520886
0.520817
0.520771
0.520692
0.520648
0.520615
0.520585
0.520518
0.520509
0.520504
0.520494
0.520462
0.520545
0.520545
0.520544
0.520597
0.520597
0.520686
0.520824
0.520927
0.521088
0.521102
0.521102
0.521188
0.521321
0.521528
0.521671
0.521755
0.521895
0.522107
0.522267
0.52247
0.522695
0.522887
0.52311
0.523327
0.523577
0.523832
0.524167
0.524425
0.524838
0.525129
0.525607
0.525938
0.526521
0.526899
0.527638
0.528082
0.529027
0.529588
0.530818
0.531514
0.533709
0.534229
0.542847
2.96054
527.854
0.755343
0.663384
0.616432
0.589987
0.57344
0.562294
0.55433
0.548441
0.543906
0.540369
0.537506
0.535195
0.533254
0.531644
0.53026
0.529098
0.528071
0.527201
0.526413
0.525744
0.525125
0.524596
0.524102
0.523686
0.523286
0.522948
0.522622
0.522355
0.522085
0.521859
0.521644
0.521472
0.521292
0.521147
0.521003
0.520895
0.520764
0.520668
0.520571
0.520501
0.520432
0.520386
0.520307
0.520263
0.52023
0.520199
0.520132
0.520123
0.520118
0.520108
0.520075
0.520158
0.520158
0.520157
0.52021
0.52021
0.520298
0.520436
0.520539
0.5207
0.520715
0.520715
0.5208
0.520934
0.52114
0.521283
0.521367
0.521507
0.521719
0.521879
0.522082
0.522307
0.522499
0.522722
0.522939
0.523189
0.523444
0.523778
0.524037
0.52445
0.524741
0.525218
0.525549
0.526132
0.526509
0.527249
0.527692
0.528636
0.529196
0.530425
0.53112
0.533314
0.533829
0.542502
2.98278
524.768
0.755337
0.66327
0.616221
0.589708
0.573114
0.561935
0.553945
0.548038
0.543488
0.53994
0.537068
0.534748
0.532802
0.531186
0.529797
0.528631
0.5276
0.526727
0.525937
0.525265
0.524644
0.524113
0.523618
0.5232
0.522799
0.522459
0.522133
0.521864
0.521594
0.521366
0.52115
0.520978
0.520797
0.520651
0.520506
0.520398
0.520266
0.52017
0.520073
0.520003
0.519933
0.519886
0.519807
0.519763
0.519729
0.519699
0.519631
0.519623
0.519617
0.519607
0.519574
0.519656
0.519656
0.519656
0.519707
0.519707
0.519796
0.519934
0.520036
0.520197
0.520212
0.520212
0.520298
0.520431
0.520637
0.52078
0.520865
0.521004
0.521216
0.521376
0.521579
0.521804
0.521996
0.522219
0.522436
0.522686
0.52294
0.523275
0.523533
0.523946
0.524237
0.524714
0.525045
0.525627
0.526004
0.526743
0.527186
0.528128
0.528689
0.529916
0.53061
0.532801
0.533309
0.542055
3.01168
522.411
0.755331
0.663129
0.615962
0.589364
0.572712
0.561492
0.553472
0.547541
0.542974
0.539411
0.536527
0.534198
0.532243
0.530621
0.529226
0.528055
0.527021
0.526143
0.52535
0.524675
0.524051
0.523518
0.523021
0.522601
0.522198
0.521857
0.521529
0.521259
0.520987
0.520759
0.520542
0.520368
0.520187
0.52004
0.519895
0.519786
0.519653
0.519556
0.519459
0.519388
0.519318
0.519271
0.519191
0.519147
0.519113
0.519082
0.519015
0.519006
0.519
0.518989
0.518956
0.519037
0.519037
0.519037
0.519088
0.519088
0.519177
0.519314
0.519416
0.519577
0.519593
0.519593
0.519678
0.519811
0.520017
0.52016
0.520245
0.520385
0.520596
0.520756
0.520959
0.521184
0.521376
0.521599
0.521816
0.522066
0.522319
0.522654
0.522912
0.523325
0.523615
0.524093
0.524423
0.525005
0.525381
0.52612
0.526562
0.527503
0.528062
0.529288
0.52998
0.532169
0.532669
0.541504
3.04768
520.841
0.755323
0.662962
0.615653
0.588956
0.572235
0.560965
0.552909
0.54695
0.542361
0.538781
0.535883
0.533543
0.531579
0.529948
0.528546
0.527369
0.52633
0.525448
0.524651
0.523972
0.523345
0.522809
0.522309
0.521888
0.521482
0.521139
0.52081
0.520538
0.520265
0.520035
0.519817
0.519642
0.51946
0.519312
0.519166
0.519056
0.518923
0.518825
0.518727
0.518656
0.518585
0.518538
0.518458
0.518413
0.518378
0.518348
0.51828
0.51827
0.518264
0.518253
0.518219
0.5183
0.5183
0.5183
0.518351
0.518351
0.518439
0.518576
0.518678
0.518839
0.518854
0.518854
0.51894
0.519072
0.519278
0.519422
0.519507
0.519646
0.519857
0.520017
0.52022
0.520444
0.520637
0.52086
0.521077
0.521327
0.52158
0.521915
0.522172
0.522585
0.522875
0.523352
0.523681
0.524264
0.524639
0.525377
0.525818
0.526758
0.527316
0.528539
0.529229
0.531416
0.531907
0.540847
3.09118
520.044
0.755314
0.662769
0.615296
0.588482
0.57168
0.560353
0.552254
0.546263
0.541649
0.538049
0.535135
0.532781
0.530806
0.529165
0.527756
0.526572
0.525526
0.524639
0.523837
0.523155
0.522524
0.521985
0.521482
0.521058
0.52065
0.520305
0.519973
0.5197
0.519425
0.519193
0.518974
0.518798
0.518614
0.518465
0.518318
0.518208
0.518074
0.517975
0.517876
0.517804
0.517733
0.517685
0.517604
0.517559
0.517524
0.517493
0.517425
0.517415
0.517409
0.517397
0.517362
0.517442
0.517442
0.517442
0.517493
0.517493
0.517581
0.517718
0.517819
0.51798
0.517996
0.517996
0.518082
0.518213
0.518418
0.518563
0.518649
0.518787
0.518997
0.519158
0.51936
0.519585
0.519777
0.52
0.520217
0.520467
0.520719
0.521054
0.521311
0.521724
0.522013
0.52249
0.522819
0.523401
0.523775
0.524512
0.524953
0.52589
0.526448
0.527668
0.528356
0.53054
0.531019
0.540085
3.14259
519.953
0.755305
0.662551
0.614889
0.587942
0.571048
0.559655
0.551507
0.545479
0.540836
0.537213
0.53428
0.531911
0.529923
0.528272
0.526853
0.525661
0.524609
0.523716
0.522908
0.522221
0.521586
0.521043
0.520537
0.52011
0.519699
0.519352
0.519017
0.518742
0.518465
0.518232
0.518011
0.517833
0.517648
0.517498
0.51735
0.517238
0.517103
0.517004
0.516904
0.516831
0.516759
0.51671
0.51663
0.516584
0.516548
0.516517
0.516449
0.516438
0.516431
0.516419
0.516384
0.516463
0.516463
0.516463
0.516513
0.516513
0.5166
0.516737
0.516837
0.516998
0.517015
0.517015
0.517101
0.517232
0.517436
0.517581
0.517668
0.517806
0.518015
0.518176
0.518378
0.518602
0.518795
0.519018
0.519234
0.519485
0.519736
0.520071
0.520327
0.52074
0.521029
0.521506
0.521834
0.522415
0.522789
0.523525
0.523965
0.5249
0.525456
0.526673
0.527358
0.529539
0.530006
0.539216
3.20228
520.467
0.755295
0.662306
0.614433
0.587336
0.570337
0.558869
0.550667
0.544597
0.539921
0.536272
0.533319
0.530932
0.528929
0.527266
0.525837
0.524636
0.523576
0.522676
0.521862
0.52117
0.52053
0.519983
0.519473
0.519042
0.518628
0.518278
0.517941
0.517664
0.517385
0.51715
0.516926
0.516747
0.51656
0.516409
0.516259
0.516147
0.51601
0.51591
0.515809
0.515735
0.515662
0.515613
0.515532
0.515485
0.515448
0.515417
0.515349
0.515338
0.515331
0.515318
0.515281
0.515359
0.51536
0.515359
0.515409
0.515409
0.515496
0.515633
0.515732
0.515893
0.51591
0.51591
0.515996
0.516126
0.516329
0.516475
0.516563
0.5167
0.516909
0.517071
0.517271
0.517496
0.517688
0.517911
0.518128
0.518378
0.518629
0.518964
0.519219
0.519632
0.51992
0.520397
0.520724
0.521305
0.521677
0.522412
0.522851
0.523784
0.524338
0.525553
0.526235
0.528411
0.528864
0.538238
3.27061
521.465
0.755285
0.662036
0.613927
0.586663
0.569548
0.557997
0.549733
0.543616
0.538904
0.535225
0.532248
0.529842
0.527823
0.526147
0.524705
0.523495
0.522425
0.521518
0.520698
0.519999
0.519355
0.518803
0.518288
0.517854
0.517436
0.517083
0.516743
0.516463
0.516182
0.515944
0.515719
0.515538
0.515349
0.515196
0.515045
0.514931
0.514793
0.514692
0.51459
0.514515
0.514441
0.514391
0.514309
0.514262
0.514224
0.514193
0.514124
0.514112
0.514105
0.514092
0.514054
0.514131
0.514131
0.514131
0.514179
0.51418
0.514266
0.514403
0.514501
0.514662
0.514679
0.514679
0.514765
0.514895
0.515097
0.515244
0.515332
0.515469
0.515677
0.515839
0.516039
0.516264
0.516456
0.516679
0.516895
0.517146
0.517395
0.517731
0.517985
0.518397
0.518685
0.519162
0.519488
0.520068
0.52044
0.521173
0.521611
0.52254
0.523094
0.524304
0.524983
0.527155
0.527593
0.537151
3.34786
522.803
0.755274
0.66174
0.613373
0.585923
0.568679
0.557036
0.548703
0.542535
0.537782
0.534072
0.531068
0.528641
0.526604
0.524912
0.523458
0.522236
0.521157
0.520241
0.519413
0.518709
0.518058
0.517501
0.516982
0.516542
0.516121
0.515764
0.515421
0.515138
0.514854
0.514614
0.514387
0.514204
0.514013
0.513858
0.513705
0.51359
0.513451
0.513348
0.513245
0.513169
0.513094
0.513043
0.51296
0.512912
0.512874
0.512842
0.512773
0.51276
0.512752
0.512739
0.512699
0.512775
0.512775
0.512775
0.512823
0.512823
0.51291
0.513045
0.513142
0.513303
0.513321
0.513321
0.513407
0.513537
0.513738
0.513886
0.513974
0.514111
0.514318
0.51448
0.514679
0.514904
0.515096
0.51532
0.515535
0.515786
0.516034
0.51637
0.516624
0.517035
0.517322
0.517799
0.518123
0.518704
0.519073
0.519806
0.520242
0.521169
0.52172
0.522927
0.523602
0.52577
0.52619
0.535953
3.43427
524.337
0.755264
0.661419
0.612769
0.585117
0.567731
0.555986
0.547578
0.541353
0.536555
0.53281
0.529777
0.527326
0.52527
0.523561
0.522093
0.520859
0.519769
0.518844
0.518008
0.517296
0.516639
0.516076
0.515551
0.515107
0.514682
0.514321
0.513975
0.513688
0.513401
0.513159
0.512928
0.512743
0.51255
0.512394
0.512239
0.512122
0.511981
0.511877
0.511772
0.511695
0.511619
0.511567
0.511484
0.511434
0.511395
0.511363
0.511294
0.51128
0.511272
0.511258
0.511217
0.511292
0.511292
0.511291
0.511338
0.511338
0.511424
0.51156
0.511656
0.511816
0.511835
0.511835
0.511921
0.51205
0.51225
0.512398
0.512488
0.512623
0.51283
0.512993
0.513191
0.513416
0.513608
0.513831
0.514046
0.514297
0.514544
0.51488
0.515133
0.515544
0.51583
0.516306
0.51663
0.517209
0.517578
0.518308
0.518743
0.519667
0.520216
0.521419
0.522089
0.524252
0.524654
0.534643
3.53001
525.918
0.755253
0.661074
0.612116
0.584243
0.566702
0.554847
0.546357
0.540069
0.535223
0.531438
0.528375
0.525898
0.523819
0.522093
0.520609
0.519361
0.51826
0.517325
0.51648
0.51576
0.515096
0.514526
0.513996
0.513547
0.513117
0.512752
0.512402
0.512112
0.511822
0.511576
0.511343
0.511155
0.51096
0.510802
0.510644
0.510525
0.510383
0.510278
0.510171
0.510093
0.510015
0.509962
0.509878
0.509828
0.509788
0.509755
0.509685
0.509671
0.509662
0.509647
0.509605
0.509678
0.509678
0.509678
0.509724
0.509724
0.509809
0.509944
0.510038
0.510199
0.510219
0.510219
0.510305
0.510432
0.510631
0.51078
0.510871
0.511006
0.511212
0.511375
0.511572
0.511797
0.511989
0.512212
0.512426
0.512678
0.512923
0.513259
0.513511
0.513922
0.514207
0.514683
0.515005
0.515584
0.515951
0.51668
0.517113
0.518033
0.51858
0.519778
0.520444
0.522602
0.522984
0.53322
3.63512
527.405
0.755243
0.660705
0.611414
0.583302
0.565593
0.553618
0.545039
0.538683
0.533784
0.529957
0.526859
0.524355
0.522253
0.520506
0.519005
0.517743
0.516629
0.515683
0.514828
0.5141
0.513428
0.512852
0.512315
0.511861
0.511426
0.511056
0.510701
0.510408
0.510114
0.509865
0.509629
0.509438
0.509241
0.50908
0.50892
0.508799
0.508656
0.508548
0.50844
0.508361
0.508281
0.508227
0.508142
0.508091
0.508049
0.508016
0.507946
0.507931
0.507921
0.507905
0.507862
0.507933
0.507933
0.507933
0.507978
0.507978
0.508063
0.508197
0.50829
0.50845
0.508471
0.508471
0.508557
0.508683
0.508881
0.509031
0.509122
0.509257
0.509461
0.509625
0.509821
0.510046
0.510238
0.510461
0.510675
0.510927
0.511171
0.511506
0.511757
0.512167
0.512452
0.512927
0.513248
0.513826
0.514191
0.514918
0.51535
0.516266
0.516811
0.518004
0.518665
0.520818
0.521178
0.531681
3.74955
528.666
0.755234
0.660312
0.610664
0.582294
0.564404
0.552299
0.543624
0.537194
0.532238
0.528366
0.525231
0.522695
0.520568
0.5188
0.517281
0.516003
0.514875
0.513917
0.513052
0.512314
0.511634
0.51105
0.510507
0.510047
0.509606
0.509232
0.508872
0.508574
0.508277
0.508025
0.507785
0.507591
0.507391
0.507228
0.507065
0.506943
0.506797
0.506688
0.506578
0.506497
0.506416
0.506361
0.506274
0.506222
0.506179
0.506145
0.506075
0.506059
0.506048
0.506032
0.505986
0.506056
0.506056
0.506056
0.506099
0.506099
0.506184
0.506317
0.506409
0.506568
0.50659
0.50659
0.506676
0.506802
0.506998
0.507149
0.507241
0.507375
0.507578
0.507742
0.507937
0.508162
0.508354
0.508577
0.50879
0.509042
0.509285
0.50962
0.50987
0.51028
0.510563
0.511038
0.511357
0.511934
0.512298
0.513022
0.513452
0.514364
0.514907
0.516094
0.51675
0.518897
0.519235
0.530026
3.87311
529.58
0.755225
0.659895
0.609866
0.581219
0.563135
0.550889
0.542111
0.535602
0.530584
0.526663
0.523488
0.52092
0.518765
0.516974
0.515435
0.514141
0.512998
0.512027
0.51115
0.510402
0.509713
0.509122
0.508571
0.508104
0.507658
0.507278
0.506913
0.506611
0.506309
0.506054
0.50581
0.505613
0.50541
0.505244
0.505079
0.504954
0.504807
0.504696
0.504584
0.504501
0.504418
0.504361
0.504274
0.50422
0.504176
0.504142
0.504071
0.504053
0.504041
0.504025
0.503978
0.504045
0.504046
0.504045
0.504087
0.504087
0.504171
0.504304
0.504393
0.504553
0.504575
0.504575
0.504661
0.504786
0.504981
0.505133
0.505226
0.505359
0.505561
0.505725
0.505919
0.506143
0.506335
0.506558
0.506771
0.507023
0.507264
0.507599
0.507848
0.508257
0.508539
0.509013
0.509331
0.509907
0.510269
0.510991
0.511419
0.512326
0.512866
0.514048
0.514699
0.516839
0.517154
0.528252
4.00544
530.039
0.755217
0.659457
0.609021
0.580078
0.561786
0.54939
0.5405
0.533907
0.528822
0.524848
0.52163
0.519027
0.516843
0.515027
0.513467
0.512154
0.510996
0.510011
0.509122
0.508363
0.507664
0.507064
0.506506
0.506032
0.505579
0.505194
0.504824
0.504517
0.504211
0.503951
0.503704
0.503503
0.503297
0.503128
0.50296
0.502833
0.502683
0.50257
0.502456
0.502371
0.502286
0.502228
0.50214
0.502085
0.502039
0.502004
0.501933
0.501914
0.501901
0.501884
0.501835
0.5019
0.5019
0.5019
0.50194
0.50194
0.502023
0.502155
0.502243
0.502402
0.502425
0.502425
0.502512
0.502635
0.502828
0.502981
0.503075
0.503208
0.503408
0.503573
0.503765
0.50399
0.504181
0.504404
0.504616
0.504869
0.505108
0.505443
0.50569
0.506099
0.506379
0.506853
0.507169
0.507744
0.508103
0.508823
0.509249
0.510152
0.510689
0.511864
0.512509
0.514643
0.514933
0.526357
4.14598
529.953
0.755211
0.658996
0.60813
0.578871
0.560356
0.5478
0.538791
0.532107
0.526952
0.522921
0.519658
0.517016
0.514801
0.512959
0.511376
0.510043
0.508868
0.507868
0.506966
0.506196
0.505487
0.504878
0.504311
0.50383
0.50337
0.502979
0.502603
0.502291
0.50198
0.501716
0.501464
0.50126
0.50105
0.500879
0.500708
0.500578
0.500426
0.50031
0.500194
0.500107
0.50002
0.499961
0.499871
0.499814
0.499767
0.499731
0.499659
0.499639
0.499625
0.499607
0.499556
0.49962
0.49962
0.499619
0.499658
0.499658
0.49974
0.499871
0.499957
0.500115
0.50014
0.50014
0.500226
0.500348
0.500539
0.500693
0.500788
0.50092
0.501119
0.501284
0.501475
0.501699
0.50189
0.502114
0.502325
0.502577
0.502815
0.503149
0.503395
0.503803
0.504083
0.504555
0.50487
0.505443
0.505801
0.506517
0.506941
0.507839
0.508373
0.509542
0.510181
0.512307
0.512572
0.524339
4.29399
529.249
0.755206
0.658515
0.607192
0.577599
0.558847
0.54612
0.536984
0.530204
0.524973
0.520881
0.517569
0.514888
0.512639
0.510768
0.509161
0.507808
0.506614
0.505599
0.504683
0.5039
0.50318
0.502561
0.501986
0.501496
0.501029
0.500631
0.50025
0.499932
0.499616
0.499348
0.499091
0.498884
0.49867
0.498495
0.498321
0.498188
0.498033
0.497915
0.497796
0.497708
0.497619
0.497558
0.497466
0.497408
0.497359
0.497323
0.49725
0.497228
0.497213
0.497194
0.497142
0.497202
0.497203
0.497201
0.497239
0.497239
0.49732
0.49745
0.497534
0.497692
0.497717
0.497717
0.497803
0.497924
0.498114
0.498268
0.498365
0.498495
0.498693
0.498858
0.499048
0.499272
0.499462
0.499686
0.499896
0.500148
0.500384
0.500718
0.500963
0.501369
0.501648
0.502119
0.502432
0.503004
0.503359
0.504073
0.504495
0.505387
0.505918
0.50708
0.507712
0.509831
0.510069
0.522196
4.44845
527.854
0.755203
0.658013
0.60621
0.576262
0.557259
0.544351
0.53508
0.528196
0.522885
0.518729
0.515365
0.512641
0.510356
0.508455
0.506822
0.505447
0.504234
0.503202
0.502271
0.501475
0.500743
0.500114
0.499529
0.499031
0.498557
0.498152
0.497763
0.49744
0.497119
0.496845
0.496584
0.496372
0.496155
0.495976
0.495799
0.495663
0.495505
0.495385
0.495263
0.495173
0.495081
0.495018
0.494926
0.494866
0.494815
0.494778
0.494704
0.494681
0.494664
0.494645
0.49459
0.494648
0.494648
0.494647
0.494683
0.494682
0.494762
0.494891
0.494973
0.49513
0.495156
0.495156
0.495243
0.495363
0.49555
0.495705
0.495803
0.495933
0.496128
0.496294
0.496482
0.496706
0.496896
0.497119
0.497328
0.497581
0.497814
0.498149
0.498391
0.498797
0.499074
0.499544
0.499855
0.500426
0.500778
0.501489
0.501908
0.502794
0.503322
0.504477
0.505102
0.507213
0.507424
0.519924
4.60811
525.721
0.755203
0.657492
0.605183
0.574862
0.555593
0.542492
0.533077
0.526084
0.520688
0.516464
0.513044
0.510275
0.507952
0.50602
0.504359
0.50296
0.501727
0.500677
0.49973
0.498921
0.498176
0.497536
0.496941
0.496434
0.495951
0.495539
0.495144
0.494814
0.494487
0.494209
0.493943
0.493726
0.493505
0.493322
0.493141
0.493002
0.492841
0.492718
0.492594
0.492501
0.492407
0.492342
0.492248
0.492186
0.492133
0.492095
0.492021
0.491996
0.491978
0.491958
0.491901
0.491956
0.491956
0.491955
0.491988
0.491988
0.492067
0.492195
0.492274
0.49243
0.492457
0.492458
0.492544
0.492663
0.492848
0.493003
0.493102
0.493231
0.493425
0.493591
0.493778
0.494001
0.49419
0.494414
0.494622
0.494875
0.495106
0.495439
0.495681
0.496085
0.49636
0.49683
0.497138
0.497707
0.498057
0.498764
0.499181
0.500061
0.500585
0.501732
0.502351
0.504452
0.504637
0.517522
4.77142
522.812
0.755204
0.656953
0.604114
0.573398
0.553848
0.540544
0.530978
0.523869
0.518382
0.514086
0.510608
0.50779
0.505427
0.503461
0.501771
0.500348
0.499092
0.498024
0.49706
0.496236
0.495479
0.494827
0.494221
0.493704
0.493213
0.492793
0.49239
0.492054
0.491721
0.491437
0.491166
0.490945
0.490719
0.490532
0.490347
0.490204
0.490041
0.489915
0.489788
0.489692
0.489596
0.489529
0.489433
0.489369
0.489314
0.489275
0.489199
0.489173
0.489154
0.489133
0.489073
0.489126
0.489126
0.489124
0.489156
0.489155
0.489233
0.489359
0.489436
0.489592
0.48962
0.48962
0.489706
0.489823
0.490006
0.490162
0.490262
0.490391
0.490582
0.490749
0.490934
0.491156
0.491345
0.491569
0.491775
0.492028
0.492257
0.49259
0.49283
0.493233
0.493506
0.493975
0.494281
0.494848
0.495195
0.495898
0.496313
0.497187
0.497706
0.498845
0.499457
0.501548
0.501706
0.514985
4.93652
519.097
0.755208
0.656396
0.603003
0.571873
0.552027
0.538508
0.528782
0.521551
0.515968
0.511596
0.508056
0.505187
0.502781
0.500779
0.499059
0.497609
0.496331
0.495242
0.494261
0.493421
0.49265
0.491986
0.491368
0.490842
0.490341
0.489913
0.489503
0.489159
0.48882
0.488531
0.488254
0.488027
0.487797
0.487606
0.487417
0.487271
0.487104
0.486975
0.486845
0.486746
0.486647
0.486578
0.48648
0.486415
0.486357
0.486317
0.48624
0.486212
0.486191
0.486169
0.486108
0.486158
0.486157
0.486155
0.486185
0.486183
0.48626
0.486385
0.486459
0.486613
0.486643
0.486643
0.486729
0.486845
0.487025
0.487182
0.487283
0.487411
0.4876
0.487767
0.48795
0.488172
0.48836
0.488583
0.488788
0.489042
0.489268
0.489601
0.489838
0.49024
0.490511
0.490979
0.491282
0.491847
0.492192
0.492891
0.493303
0.49417
0.494686
0.495816
0.49642
0.498501
0.498631
0.512311
5.10125
514.551
0.755215
0.655823
0.601851
0.570287
0.55013
0.536384
0.52649
0.51913
0.513446
0.508993
0.505388
0.502465
0.500015
0.497975
0.496222
0.494744
0.493442
0.492332
0.491333
0.490476
0.48969
0.489013
0.488384
0.487847
0.487336
0.486899
0.486481
0.48613
0.485784
0.485489
0.485206
0.484974
0.484739
0.484544
0.48435
0.4842
0.48403
0.483898
0.483764
0.483663
0.48356
0.483489
0.483389
0.483322
0.483262
0.48322
0.483143
0.483113
0.48309
0.483067
0.483004
0.48305
0.48305
0.483047
0.483075
0.483072
0.483148
0.483271
0.483342
0.483496
0.483526
0.483526
0.483612
0.483727
0.483904
0.484061
0.484163
0.48429
0.484478
0.484644
0.484826
0.485047
0.485235
0.485457
0.485661
0.485914
0.486138
0.48647
0.486706
0.487106
0.487375
0.487841
0.488142
0.488705
0.489047
0.489742
0.49015
0.49101
0.491522
0.492643
0.493239
0.495309
0.495412
0.509495
5.26315
509.156
0.755225
0.655235
0.600661
0.568642
0.548158
0.534175
0.524103
0.516607
0.510817
0.506279
0.502605
0.499626
0.497128
0.495048
0.493261
0.491754
0.490426
0.489294
0.488275
0.487402
0.4866
0.485909
0.485267
0.484719
0.484198
0.483752
0.483325
0.482967
0.482614
0.482312
0.482022
0.481785
0.481545
0.481345
0.481146
0.480993
0.480819
0.480683
0.480546
0.480442
0.480336
0.480263
0.480161
0.480091
0.480028
0.479986
0.479907
0.479875
0.47985
0.479826
0.479761
0.479804
0.479804
0.4798
0.479825
0.479822
0.479897
0.480018
0.480086
0.480238
0.48027
0.48027
0.480355
0.480469
0.480643
0.480801
0.480904
0.48103
0.481215
0.481382
0.481561
0.481782
0.481968
0.482191
0.482393
0.482646
0.482868
0.483199
0.483432
0.483831
0.484098
0.484562
0.48486
0.485421
0.48576
0.48645
0.486855
0.487708
0.488215
0.489327
0.489915
0.491972
0.492048
0.506535
5.41942
502.893
0.755239
0.654633
0.599433
0.566939
0.546113
0.53188
0.521621
0.513983
0.508081
0.503454
0.499707
0.496668
0.494121
0.492
0.490177
0.488639
0.487284
0.486129
0.485089
0.484197
0.483379
0.482674
0.482019
0.481459
0.480927
0.480472
0.480035
0.479669
0.479309
0.479
0.478704
0.478461
0.478215
0.47801
0.477807
0.477648
0.477471
0.477332
0.477191
0.477084
0.476975
0.476898
0.476794
0.476722
0.476657
0.476613
0.476532
0.476499
0.476472
0.476447
0.476379
0.476418
0.476418
0.476414
0.476437
0.476433
0.476506
0.476626
0.47669
0.476841
0.476874
0.476874
0.476959
0.477071
0.477243
0.4774
0.477504
0.47763
0.477812
0.477979
0.478156
0.478376
0.478562
0.478784
0.478984
0.479238
0.479456
0.479786
0.480017
0.480414
0.480679
0.481141
0.481437
0.481994
0.482331
0.483015
0.483418
0.484263
0.484765
0.485868
0.486447
0.48849
0.48854
0.503425
5.567
495.743
0.755256
0.654018
0.598169
0.56518
0.543995
0.529501
0.519047
0.511259
0.505239
0.500519
0.496696
0.493595
0.490995
0.488829
0.486969
0.485398
0.484015
0.482836
0.481774
0.480863
0.480028
0.479308
0.478639
0.478067
0.477524
0.477058
0.476612
0.476237
0.475869
0.475553
0.47525
0.475001
0.474749
0.47454
0.474331
0.474168
0.473987
0.473844
0.473699
0.473588
0.473476
0.473397
0.47329
0.473216
0.473148
0.473102
0.47302
0.472984
0.472956
0.472929
0.472859
0.472895
0.472895
0.472889
0.47291
0.472905
0.472976
0.473094
0.473155
0.473304
0.473338
0.473338
0.473423
0.473533
0.473702
0.473859
0.473965
0.474089
0.474269
0.474436
0.474611
0.474829
0.475014
0.475236
0.475435
0.475688
0.475904
0.476232
0.476461
0.476857
0.477119
0.477579
0.477872
0.478426
0.478759
0.479439
0.479838
0.480675
0.481172
0.482265
0.482835
0.484863
0.484888
0.500161
5.70256
487.684
0.755277
0.653391
0.596871
0.563366
0.541808
0.52704
0.516381
0.508436
0.502293
0.497475
0.493572
0.490405
0.48775
0.485539
0.483638
0.482034
0.480621
0.479416
0.478331
0.477401
0.476548
0.475811
0.475128
0.474543
0.473988
0.473511
0.473056
0.472672
0.472295
0.471972
0.471662
0.471406
0.471148
0.470933
0.470719
0.470552
0.470366
0.470219
0.47007
0.469956
0.46984
0.469758
0.469649
0.469572
0.469501
0.469453
0.46937
0.469332
0.469301
0.469273
0.469201
0.469233
0.469233
0.469226
0.469245
0.469238
0.469308
0.469423
0.469481
0.469629
0.469663
0.469663
0.469748
0.469856
0.470022
0.470179
0.470286
0.470409
0.470586
0.470753
0.470926
0.471143
0.471327
0.471548
0.471745
0.471998
0.47221
0.472538
0.472765
0.473158
0.473417
0.473875
0.474165
0.474716
0.475046
0.47572
0.476115
0.476944
0.477436
0.478518
0.479079
0.481091
0.481091
0.49674
5.82257
478.692
0.755302
0.652755
0.595541
0.5615
0.539552
0.524498
0.513625
0.505515
0.499243
0.494322
0.490336
0.4871
0.484388
0.482128
0.480186
0.478546
0.477103
0.47587
0.474762
0.47381
0.472938
0.472185
0.471487
0.470888
0.470321
0.469833
0.469367
0.468974
0.468588
0.468258
0.46794
0.467677
0.467413
0.467192
0.466972
0.4668
0.46661
0.466459
0.466306
0.466188
0.466068
0.465983
0.465871
0.465791
0.465717
0.465667
0.465583
0.465542
0.465509
0.46548
0.465406
0.465434
0.465433
0.465426
0.465442
0.465433
0.465502
0.465615
0.465669
0.465814
0.465849
0.46585
0.465934
0.466041
0.466203
0.46636
0.466467
0.46659
0.466764
0.466931
0.467101
0.467317
0.467499
0.46772
0.467915
0.468167
0.468377
0.468703
0.468927
0.469318
0.469575
0.470031
0.470317
0.470865
0.471191
0.471859
0.472251
0.473071
0.473558
0.474629
0.47518
0.477175
0.477152
0.493155
5.92336
468.74
0.755332
0.65211
0.59418
0.559584
0.537229
0.521878
0.51078
0.502499
0.496092
0.491063
0.48699
0.483681
0.480909
0.478599
0.476614
0.474937
0.47346
0.4722
0.471066
0.470093
0.469201
0.468431
0.467716
0.467103
0.466523
0.466024
0.465547
0.465144
0.464749
0.46441
0.464084
0.463815
0.463544
0.463317
0.463092
0.462914
0.462719
0.462564
0.462406
0.462285
0.46216
0.462072
0.461957
0.461875
0.461797
0.461745
0.461659
0.461616
0.46158
0.461551
0.461474
0.461498
0.461497
0.461488
0.461502
0.461491
0.461558
0.461668
0.461718
0.461862
0.461898
0.461898
0.461983
0.462087
0.462246
0.462402
0.46251
0.462633
0.462803
0.46297
0.463137
0.463352
0.463533
0.463753
0.463946
0.464198
0.464404
0.464729
0.46495
0.465338
0.465592
0.466045
0.466328
0.466872
0.467196
0.467857
0.468245
0.469057
0.469537
0.470597
0.471139
0.473115
0.473069
0.489404
6.00123
457.799
0.755366
0.651458
0.592791
0.557619
0.534842
0.51918
0.507849
0.499388
0.492841
0.487699
0.483534
0.480151
0.477316
0.474952
0.472922
0.471206
0.469696
0.468406
0.467246
0.46625
0.465338
0.464549
0.463818
0.46319
0.462596
0.462084
0.461596
0.461183
0.460779
0.460431
0.460097
0.45982
0.459542
0.45931
0.459077
0.458894
0.458694
0.458535
0.458373
0.458247
0.458118
0.458026
0.457909
0.457823
0.457742
0.457688
0.4576
0.457555
0.457516
0.457485
0.457407
0.457426
0.457425
0.457415
0.457425
0.457412
0.457478
0.457585
0.457631
0.457773
0.457809
0.457809
0.457893
0.457996
0.458151
0.458307
0.458415
0.458537
0.458705
0.45887
0.459035
0.459249
0.459428
0.459647
0.459838
0.460089
0.460292
0.460615
0.460834
0.461219
0.46147
0.461921
0.4622
0.46274
0.46306
0.463714
0.464098
0.464901
0.465375
0.466423
0.466956
0.468912
0.468844
0.48548
6.0525
445.84
0.755405
0.650801
0.591376
0.555608
0.532393
0.516407
0.504833
0.496185
0.489491
0.484232
0.479971
0.476509
0.473609
0.47119
0.469112
0.467356
0.46581
0.464489
0.463302
0.462282
0.461348
0.460541
0.459792
0.459149
0.458541
0.458016
0.457516
0.457092
0.456678
0.456322
0.455979
0.455694
0.455409
0.45517
0.454931
0.454743
0.454537
0.454373
0.454206
0.454076
0.453942
0.453847
0.453726
0.453638
0.453553
0.453497
0.453407
0.453359
0.453317
0.453285
0.453205
0.45322
0.453218
0.453206
0.453214
0.453198
0.453263
0.453366
0.453408
0.453547
0.453585
0.453584
0.453668
0.453768
0.45392
0.454075
0.454184
0.454305
0.454469
0.454634
0.454797
0.455008
0.455185
0.455404
0.455592
0.455843
0.456043
0.456364
0.456579
0.456962
0.457209
0.457657
0.457933
0.458468
0.458784
0.459432
0.459812
0.460605
0.461073
0.462108
0.462631
0.464568
0.464478
0.481379
6.0737
432.835
0.755448
0.650139
0.589937
0.553554
0.529884
0.513562
0.501735
0.492892
0.486044
0.480663
0.476303
0.472759
0.46979
0.467314
0.465186
0.463387
0.461805
0.460452
0.459237
0.458191
0.457235