/*--------------------------------*- C++ -*----------------------------------*\
| =========                 |                                                 |
| \\      /  F ield         | OpenFOAM: The Open Source CFD Toolbox           |
|  \\    /   O peration     | Version:  v2012                                 |
|   \\  /    A nd           | Website:  www.openfoam.com                      |
|    \\/     M anipulation  |                                                 |
\*---------------------------------------------------------------------------*/
FoamFile
{
    version     2.0;
    format      ascii;
    class       volScalarField;
    location    "22.5";
    object      k;
}
// * * * * * * * * * * * * * * * * * * * * * * * * * * * * * * * * * * * * * //

dimensions      [0 2 -2 0 0 0 0];


internalField   nonuniform List<scalar> 
209825
(
0.00102182
0.000929355
0.000863845
0.000818383
0.000785848
0.000761744
0.000743115
0.000728419
0.000716416
0.000706572
0.000698225
0.000691203
0.000685094
0.000679858
0.000675201
0.000671183
0.000667542
0.000664383
0.000661468
0.000658929
0.000656554
0.000654481
0.000652509
0.000650803
0.000649161
0.000647739
0.000646349
0.000645159
0.000643995
0.000642974
0.000641974
0.00064113
0.000640284
0.00063957
0.000638845
0.000638224
0.000637585
0.000637059
0.000636509
0.000636062
0.000635593
0.000635204
0.000634789
0.000634451
0.000634097
0.000633812
0.000633501
0.000633274
0.000633001
0.000632804
0.000632587
0.000632417
0.000632212
0.00063209
0.000631939
0.000631822
0.000631697
0.00063163
0.000631518
0.000631429
0.000631376
0.00063132
0.000631154
0.000631206
0.000631206
0.000631205
0.000631277
0.000631394
0.000631497
0.000631678
0.000631849
0.000632048
0.000632184
0.000632405
0.000632551
0.000632831
0.000633013
0.000633387
0.000633608
0.000634044
0.000634283
0.000634783
0.000635066
0.000635659
0.000636009
0.000636741
0.000637164
0.000638046
0.000638554
0.000639665
0.000640259
0.000642063
0.000642462
0.000650204
0.0105502
0.0110491
0.00102182
0.000929355
0.000863843
0.000818377
0.000785839
0.000761732
0.000743101
0.000728404
0.000716399
0.000706554
0.000698206
0.000691183
0.000685073
0.000679836
0.000675178
0.00067116
0.000667518
0.000664358
0.000661443
0.000658904
0.000656528
0.000654455
0.000652483
0.000650777
0.000649134
0.000647712
0.000646322
0.000645132
0.000643967
0.000642946
0.000641946
0.000641102
0.000640256
0.000639541
0.000638817
0.000638195
0.000637557
0.000637031
0.000636481
0.000636033
0.000635564
0.000635175
0.00063476
0.000634422
0.000634068
0.000633783
0.000633472
0.000633245
0.000632972
0.000632774
0.000632557
0.000632388
0.000632183
0.00063206
0.00063191
0.000631792
0.000631667
0.000631601
0.000631488
0.000631399
0.000631346
0.00063129
0.000631124
0.000631176
0.000631176
0.000631175
0.000631247
0.000631364
0.000631467
0.000631648
0.000631819
0.000632018
0.000632154
0.000632375
0.000632521
0.0006328
0.000632983
0.000633357
0.000633578
0.000634014
0.000634253
0.000634752
0.000635036
0.000635629
0.000635979
0.00063671
0.000637134
0.000638015
0.000638524
0.000639635
0.000640228
0.000642033
0.000642431
0.000650185
0.0105594
0.0110612
0.00102183
0.000929354
0.000863828
0.000818348
0.000785797
0.00076168
0.00074304
0.000728335
0.000716324
0.000706474
0.000698122
0.000691095
0.000684982
0.000679742
0.000675082
0.000671062
0.000667418
0.000664256
0.000661339
0.000658799
0.000656422
0.000654347
0.000652375
0.000650667
0.000649024
0.000647601
0.00064621
0.000645019
0.000643854
0.000642832
0.000641831
0.000640987
0.00064014
0.000639425
0.0006387
0.000638078
0.000637439
0.000636913
0.000636363
0.000635915
0.000635446
0.000635056
0.00063464
0.000634302
0.000633948
0.000633663
0.000633352
0.000633124
0.000632851
0.000632654
0.000632436
0.000632266
0.000632062
0.000631939
0.000631788
0.00063167
0.000631545
0.000631479
0.000631366
0.000631277
0.000631224
0.000631168
0.000631002
0.000631054
0.000631054
0.000631053
0.000631124
0.000631241
0.000631344
0.000631524
0.000631696
0.000631895
0.000632031
0.000632252
0.000632398
0.000632677
0.000632859
0.000633233
0.000633454
0.00063389
0.000634129
0.000634628
0.000634911
0.000635505
0.000635854
0.000636585
0.000637008
0.00063789
0.000638398
0.000639509
0.000640102
0.000641906
0.000642302
0.00065008
0.0105791
0.011088
0.00102183
0.00092935
0.000863802
0.000818298
0.000785725
0.00076159
0.000742936
0.000728219
0.000716198
0.00070634
0.000697981
0.000690948
0.000684829
0.000679584
0.00067492
0.000670896
0.000667249
0.000664085
0.000661165
0.000658623
0.000656243
0.000654167
0.000652192
0.000650483
0.000648838
0.000647414
0.000646022
0.000644829
0.000643663
0.00064264
0.000641639
0.000640793
0.000639946
0.00063923
0.000638504
0.000637882
0.000637242
0.000636715
0.000636164
0.000635715
0.000635246
0.000634856
0.00063444
0.000634101
0.000633747
0.000633461
0.00063315
0.000632922
0.000632648
0.00063245
0.000632233
0.000632063
0.000631858
0.000631735
0.000631584
0.000631466
0.000631341
0.000631274
0.000631161
0.000631072
0.000631018
0.000630962
0.000630796
0.000630848
0.000630848
0.000630847
0.000630918
0.000631035
0.000631137
0.000631317
0.000631489
0.000631687
0.000631823
0.000632044
0.00063219
0.000632469
0.000632651
0.000633025
0.000633246
0.000633681
0.00063392
0.000634419
0.000634702
0.000635295
0.000635644
0.000636375
0.000636798
0.000637679
0.000638186
0.000639296
0.000639889
0.000641693
0.000642086
0.0006499
0.0106099
0.0111299
0.00102184
0.000929345
0.000863766
0.000818227
0.000785624
0.000761464
0.000742789
0.000728056
0.000716021
0.00070615
0.000697781
0.000690739
0.000684613
0.000679362
0.000674692
0.000670663
0.000667011
0.000663843
0.000660919
0.000658373
0.000655991
0.000653912
0.000651935
0.000650223
0.000648576
0.00064715
0.000645756
0.000644562
0.000643394
0.00064237
0.000641367
0.00064052
0.000639671
0.000638954
0.000638227
0.000637604
0.000636963
0.000636435
0.000635884
0.000635434
0.000634964
0.000634573
0.000634156
0.000633818
0.000633462
0.000633176
0.000632864
0.000632636
0.000632362
0.000632164
0.000631946
0.000631776
0.00063157
0.000631447
0.000631296
0.000631177
0.000631052
0.000630985
0.000630872
0.000630783
0.000630729
0.000630673
0.000630507
0.000630557
0.000630557
0.000630556
0.000630626
0.000630743
0.000630845
0.000631025
0.000631196
0.000631395
0.00063153
0.000631751
0.000631897
0.000632175
0.000632357
0.00063273
0.000632951
0.000633387
0.000633625
0.000634124
0.000634406
0.000634999
0.000635348
0.000636078
0.0006365
0.00063738
0.000637888
0.000638997
0.000639589
0.000641392
0.00064178
0.000649645
0.0106527
0.0111879
0.00102185
0.000929339
0.000863719
0.000818135
0.000785493
0.000761301
0.000742599
0.000727844
0.000715791
0.000705905
0.000697522
0.000690469
0.000684333
0.000679074
0.000674396
0.000670361
0.000666703
0.000663529
0.000660601
0.000658051
0.000655664
0.000653581
0.000651601
0.000649887
0.000648236
0.000646808
0.000645411
0.000644215
0.000643045
0.000642019
0.000641014
0.000640165
0.000639315
0.000638597
0.000637869
0.000637244
0.000636602
0.000636073
0.00063552
0.00063507
0.000634599
0.000634207
0.00063379
0.00063345
0.000633094
0.000632807
0.000632495
0.000632266
0.000631991
0.000631793
0.000631574
0.000631403
0.000631197
0.000631073
0.000630922
0.000630804
0.000630678
0.00063061
0.000630497
0.000630408
0.000630353
0.000630297
0.000630131
0.00063018
0.00063018
0.000630179
0.000630249
0.000630365
0.000630467
0.000630646
0.000630817
0.000631015
0.000631151
0.000631371
0.000631517
0.000631795
0.000631977
0.000632349
0.000632569
0.000633005
0.000633243
0.000633741
0.000634023
0.000634615
0.000634964
0.000635693
0.000636115
0.000636994
0.000637501
0.000638608
0.000639199
0.000641002
0.000641384
0.000649313
0.010708
0.0112627
0.00102186
0.000929331
0.000863661
0.000818023
0.000785332
0.0007611
0.000742365
0.000727583
0.000715507
0.000705602
0.000697204
0.000690137
0.000683989
0.000678719
0.000674032
0.000669988
0.000666323
0.000663143
0.000660208
0.000657653
0.000655262
0.000653174
0.00065119
0.000649472
0.000647818
0.000646387
0.000644987
0.000643788
0.000642615
0.000641587
0.00064058
0.000639729
0.000638877
0.000638157
0.000637427
0.000636801
0.000636157
0.000635627
0.000635073
0.000634621
0.000634149
0.000633756
0.000633337
0.000632997
0.00063264
0.000632352
0.000632039
0.000631809
0.000631534
0.000631335
0.000631115
0.000630944
0.000630738
0.000630613
0.000630462
0.000630343
0.000630216
0.000630149
0.000630035
0.000629945
0.000629891
0.000629834
0.000629668
0.000629716
0.000629716
0.000629715
0.000629783
0.0006299
0.00063
0.000630179
0.000630349
0.000630548
0.000630683
0.000630903
0.000631048
0.000631326
0.000631507
0.000631879
0.000632099
0.000632534
0.000632771
0.000633269
0.000633551
0.000634142
0.00063449
0.000635218
0.00063564
0.000636517
0.000637023
0.000638129
0.000638719
0.00064052
0.000640896
0.000648905
0.0107766
0.011355
0.00102187
0.000929322
0.000863593
0.000817889
0.000785141
0.000760861
0.000742087
0.000727273
0.00071517
0.000705243
0.000696825
0.000689741
0.000683579
0.000678296
0.000673599
0.000669545
0.000665871
0.000662682
0.000659741
0.000657179
0.000654782
0.000652689
0.0006507
0.000648978
0.00064732
0.000645884
0.000644481
0.000643279
0.000642103
0.000641072
0.000640062
0.000639209
0.000638355
0.000637632
0.0006369
0.000636272
0.000635627
0.000635095
0.000634539
0.000634086
0.000633612
0.000633219
0.000632799
0.000632457
0.000632099
0.00063181
0.000631496
0.000631265
0.000630989
0.000630789
0.000630569
0.000630398
0.00063019
0.000630065
0.000629913
0.000629794
0.000629666
0.000629598
0.000629485
0.000629394
0.000629339
0.000629283
0.000629116
0.000629163
0.000629163
0.000629161
0.000629229
0.000629345
0.000629444
0.000629622
0.000629792
0.000629991
0.000630125
0.000630345
0.00063049
0.000630767
0.000630948
0.000631319
0.000631538
0.000631972
0.00063221
0.000632706
0.000632988
0.000633578
0.000633925
0.000634652
0.000635073
0.000635949
0.000636454
0.000637559
0.000638146
0.000639946
0.000640314
0.000648419
0.010859
0.0114656
0.00102189
0.000929312
0.000863514
0.000817735
0.00078492
0.000760583
0.000741764
0.000726912
0.000714778
0.000704825
0.000696384
0.000689282
0.000683102
0.000677805
0.000673094
0.000669029
0.000665345
0.000662147
0.000659197
0.000656628
0.000654224
0.000652125
0.00065013
0.000648403
0.00064674
0.0006453
0.000643893
0.000642686
0.000641507
0.000640473
0.00063946
0.000638604
0.000637747
0.000637022
0.000636288
0.000635657
0.00063501
0.000634476
0.000633918
0.000633464
0.000632988
0.000632593
0.000632172
0.000631829
0.000631469
0.00063118
0.000630864
0.000630632
0.000630355
0.000630154
0.000629933
0.000629761
0.000629553
0.000629427
0.000629274
0.000629154
0.000629026
0.000628958
0.000628844
0.000628753
0.000628697
0.000628641
0.000628474
0.000628519
0.000628519
0.000628517
0.000628583
0.000628699
0.000628797
0.000628975
0.000629143
0.000629342
0.000629476
0.000629696
0.00062984
0.000630117
0.000630297
0.000630666
0.000630885
0.000631319
0.000631556
0.000632052
0.000632333
0.000632922
0.000633268
0.000633993
0.000634413
0.000635288
0.000635792
0.000636894
0.00063748
0.000639278
0.000639637
0.000647854
0.0109558
0.0115952
0.0010219
0.000929301
0.000863425
0.00081756
0.000784668
0.000760268
0.000741396
0.000726501
0.000714331
0.000704348
0.000695881
0.000688757
0.000682558
0.000677244
0.000672518
0.00066844
0.000664744
0.000661536
0.000658577
0.000655998
0.000653587
0.000651481
0.000649479
0.000647746
0.000646077
0.000644633
0.00064322
0.00064201
0.000640826
0.000639789
0.000638772
0.000637913
0.000637052
0.000636324
0.000635587
0.000634955
0.000634305
0.000633769
0.000633209
0.000632752
0.000632275
0.000631878
0.000631455
0.000631111
0.00063075
0.000630459
0.000630142
0.000629909
0.000629631
0.000629429
0.000629206
0.000629034
0.000628825
0.000628698
0.000628544
0.000628424
0.000628295
0.000628226
0.000628112
0.00062802
0.000627963
0.000627907
0.00062774
0.000627783
0.000627783
0.000627781
0.000627845
0.00062796
0.000628058
0.000628234
0.000628402
0.0006286
0.000628734
0.000628954
0.000629097
0.000629373
0.000629552
0.000629921
0.000630139
0.000630572
0.000630808
0.000631303
0.000631584
0.000632171
0.000632517
0.00063324
0.000633659
0.000634532
0.000635035
0.000636134
0.000636718
0.000638514
0.000638862
0.000647209
0.0110673
0.0117443
0.00102192
0.000929289
0.000863326
0.000817363
0.000784385
0.000759913
0.000740983
0.000726039
0.000713829
0.000703811
0.000695316
0.000688166
0.000681946
0.000676613
0.00067187
0.000667777
0.000664067
0.000660847
0.000657877
0.000655289
0.000652869
0.000650755
0.000648746
0.000647005
0.000645331
0.00064388
0.000642463
0.000641247
0.000640059
0.000639018
0.000637996
0.000637133
0.000636269
0.000635538
0.000634798
0.000634163
0.00063351
0.000632972
0.000632409
0.000631951
0.000631471
0.000631072
0.000630647
0.000630301
0.000629939
0.000629646
0.000629327
0.000629094
0.000628814
0.000628611
0.000628387
0.000628214
0.000628004
0.000627876
0.000627721
0.0006276
0.00062747
0.0006274
0.000627286
0.000627194
0.000627136
0.000627079
0.000626913
0.000626953
0.000626953
0.000626951
0.000627012
0.000627127
0.000627224
0.000627399
0.000627566
0.000627764
0.000627898
0.000628117
0.000628259
0.000628535
0.000628713
0.00062908
0.000629298
0.000629729
0.000629965
0.000630459
0.000630739
0.000631325
0.00063167
0.000632391
0.000632809
0.000633679
0.000634181
0.000635278
0.000635859
0.000637653
0.000637989
0.000646484
0.0111937
0.0119135
0.00102195
0.000929276
0.000863217
0.000817146
0.000784072
0.00075952
0.000740524
0.000725526
0.00071327
0.000703214
0.000694686
0.000687508
0.000681264
0.00067591
0.000671148
0.000667038
0.000663314
0.00066008
0.000657098
0.0006545
0.000652069
0.000649946
0.000647929
0.000646181
0.000644499
0.000643042
0.000641619
0.000640398
0.000639205
0.000638158
0.000637132
0.000636265
0.000635397
0.000634662
0.000633919
0.00063328
0.000632624
0.000632084
0.000631518
0.000631057
0.000630575
0.000630174
0.000629747
0.000629399
0.000629034
0.000628741
0.00062842
0.000628185
0.000627904
0.000627699
0.000627474
0.0006273
0.000627088
0.000626959
0.000626803
0.000626682
0.000626551
0.00062648
0.000626365
0.000626273
0.000626214
0.000626157
0.00062599
0.000626028
0.000626028
0.000626025
0.000626085
0.000626199
0.000626294
0.000626468
0.000626634
0.000626832
0.000626965
0.000627183
0.000627325
0.0006276
0.000627777
0.000628143
0.00062836
0.00062879
0.000629026
0.000629518
0.000629797
0.000630381
0.000630725
0.000631444
0.000631861
0.000632729
0.000633229
0.000634322
0.000634901
0.000636693
0.000637016
0.000645676
0.0113351
0.0121034
0.00102197
0.000929263
0.000863097
0.000816908
0.000783728
0.000759088
0.000740019
0.000724961
0.000712655
0.000702556
0.000693993
0.000686784
0.000680512
0.000675134
0.000670352
0.000666224
0.000662483
0.000659234
0.000656239
0.000653628
0.000651186
0.000649054
0.000647027
0.000645271
0.000643581
0.000642117
0.000640687
0.00063946
0.000638261
0.000637209
0.000636178
0.000635306
0.000634434
0.000633695
0.000632947
0.000632306
0.000631646
0.000631103
0.000630534
0.00063007
0.000629585
0.000629182
0.000628753
0.000628403
0.000628036
0.00062774
0.000627418
0.000627181
0.000626898
0.000626692
0.000626466
0.00062629
0.000626077
0.000625947
0.00062579
0.000625668
0.000625536
0.000625464
0.000625349
0.000625256
0.000625196
0.000625138
0.000624971
0.000625007
0.000625007
0.000625003
0.00062506
0.000625174
0.000625267
0.00062544
0.000625605
0.000625803
0.000625935
0.000626153
0.000626294
0.000626567
0.000626743
0.000627107
0.000627323
0.000627753
0.000627988
0.000628478
0.000628757
0.000629339
0.000629682
0.000630398
0.000630814
0.000631679
0.000632177
0.000633267
0.000633843
0.000635633
0.000635941
0.000644785
0.0114913
0.0123144
0.001022
0.000929248
0.000862968
0.00081665
0.000783353
0.000758616
0.000739467
0.000724344
0.000711983
0.000701838
0.000693234
0.000685991
0.00067969
0.000674286
0.000669481
0.000665332
0.000661572
0.000658308
0.000655298
0.000652674
0.00065022
0.000648076
0.000646039
0.000644274
0.000642576
0.000641104
0.000639667
0.000638432
0.000637227
0.00063617
0.000635133
0.000634256
0.000633378
0.000632635
0.000631883
0.000631238
0.000630575
0.000630028
0.000629456
0.000628989
0.000628501
0.000628096
0.000627663
0.000627311
0.000626942
0.000626644
0.000626319
0.000626081
0.000625796
0.000625589
0.00062536
0.000625184
0.00062497
0.000624838
0.000624679
0.000624557
0.000624423
0.00062435
0.000624234
0.000624141
0.000624079
0.000624021
0.000623855
0.000623887
0.000623887
0.000623883
0.000623937
0.00062405
0.000624141
0.000624313
0.000624476
0.000624674
0.000624805
0.000625023
0.000625163
0.000625435
0.00062561
0.000625972
0.000626187
0.000626615
0.00062685
0.000627338
0.000627616
0.000628196
0.000628538
0.000629251
0.000629666
0.000630528
0.000631024
0.00063211
0.000632683
0.00063447
0.000634763
0.00064381
0.0116619
0.0125469
0.00102202
0.000929234
0.00086283
0.000816371
0.000782948
0.000758105
0.00073887
0.000723674
0.000711253
0.000701057
0.00069241
0.000685129
0.000678796
0.000673364
0.000668533
0.000664362
0.000660583
0.000657301
0.000654274
0.000651636
0.000649168
0.000647013
0.000644965
0.000643189
0.000641482
0.000640002
0.000638556
0.000637314
0.000636102
0.000635039
0.000633996
0.000633113
0.00063223
0.000631482
0.000630725
0.000630076
0.000629409
0.000628858
0.000628282
0.000627812
0.00062732
0.000626913
0.000626477
0.000626123
0.000625751
0.000625451
0.000625124
0.000624883
0.000624596
0.000624387
0.000624157
0.000623979
0.000623763
0.00062363
0.00062347
0.000623346
0.000623211
0.000623138
0.000623021
0.000622927
0.000622864
0.000622805
0.000622639
0.000622668
0.000622668
0.000622663
0.000622713
0.000622826
0.000622915
0.000623085
0.000623247
0.000623445
0.000623575
0.000623792
0.000623931
0.000624202
0.000624375
0.000624736
0.00062495
0.000625377
0.00062561
0.000626097
0.000626374
0.000626952
0.000627292
0.000628003
0.000628415
0.000629274
0.000629768
0.00063085
0.00063142
0.000633203
0.00063348
0.000642748
0.0118462
0.0128012
0.00102205
0.000929219
0.000862682
0.000816072
0.000782512
0.000757555
0.000738225
0.000722951
0.000710465
0.000700214
0.00069152
0.000684199
0.00067783
0.000672367
0.000667509
0.000663314
0.000659513
0.000656211
0.000653167
0.000650513
0.000648031
0.000645863
0.000643802
0.000642016
0.000640298
0.000638808
0.000637354
0.000636104
0.000634884
0.000633814
0.000632765
0.000631876
0.000630987
0.000630234
0.000629472
0.000628818
0.000628146
0.000627591
0.000627011
0.000626538
0.000626043
0.000625632
0.000625193
0.000624836
0.000624461
0.000624159
0.000623829
0.000623586
0.000623298
0.000623087
0.000622854
0.000622675
0.000622457
0.000622322
0.000622161
0.000622036
0.000621899
0.000621824
0.000621707
0.000621612
0.000621547
0.000621489
0.000621322
0.000621348
0.000621348
0.000621342
0.000621389
0.0006215
0.000621588
0.000621756
0.000621917
0.000622114
0.000622243
0.000622459
0.000622597
0.000622867
0.000623039
0.000623397
0.00062361
0.000624035
0.000624268
0.000624753
0.000625029
0.000625604
0.000625943
0.00062665
0.000627061
0.000627916
0.000628408
0.000629486
0.000630051
0.000631832
0.000632091
0.000641599
0.0120432
0.0130775
0.00102209
0.000929204
0.000862525
0.000815753
0.000782046
0.000756966
0.000737534
0.000722176
0.000709619
0.000699308
0.000690563
0.000683198
0.000676791
0.000671295
0.000666407
0.000662186
0.000658361
0.000655039
0.000651976
0.000649304
0.000646807
0.000644624
0.000642551
0.000640753
0.000639024
0.000637524
0.00063606
0.000634802
0.000633573
0.000632496
0.000631439
0.000630544
0.000629648
0.000628889
0.000628122
0.000627463
0.000626786
0.000626227
0.000625643
0.000625165
0.000624666
0.000624252
0.00062381
0.00062345
0.000623072
0.000622768
0.000622435
0.00062219
0.000621898
0.000621685
0.00062145
0.00062127
0.00062105
0.000620914
0.00062075
0.000620625
0.000620486
0.00062041
0.000620291
0.000620195
0.000620129
0.00062007
0.000619904
0.000619926
0.000619926
0.000619919
0.000619961
0.000620072
0.000620157
0.000620324
0.000620483
0.00062068
0.000620808
0.000621023
0.00062116
0.000621428
0.000621599
0.000621955
0.000622167
0.000622589
0.000622821
0.000623304
0.000623579
0.000624151
0.000624488
0.000625192
0.000625602
0.000626452
0.000626942
0.000628015
0.000628576
0.000630354
0.000630593
0.000640361
0.0122516
0.0133759
0.00102212
0.00092919
0.000862359
0.000815414
0.00078155
0.000756338
0.000736796
0.000721347
0.000708714
0.000698339
0.00068954
0.000682128
0.000675679
0.000670147
0.000665228
0.000660978
0.000657128
0.000653783
0.000650699
0.000648009
0.000645495
0.000643297
0.00064121
0.000639398
0.000637657
0.000636147
0.000634673
0.000633405
0.000632168
0.000631082
0.000630018
0.000629115
0.000628213
0.000627448
0.000626674
0.00062601
0.000625328
0.000624764
0.000624175
0.000623693
0.00062319
0.000622772
0.000622327
0.000621964
0.000621582
0.000621275
0.000620939
0.000620691
0.000620397
0.000620182
0.000619945
0.000619762
0.000619541
0.000619402
0.000619237
0.00061911
0.000618969
0.000618892
0.000618772
0.000618676
0.000618607
0.000618548
0.000618382
0.000618401
0.0006184
0.000618392
0.00061843
0.00061854
0.000618622
0.000618787
0.000618944
0.000619141
0.000619268
0.000619482
0.000619617
0.000619884
0.000620053
0.000620407
0.000620617
0.000621038
0.000621269
0.000621749
0.000622023
0.000622593
0.000622928
0.000623628
0.000624035
0.000624882
0.000625369
0.000626437
0.000626994
0.000628767
0.000628987
0.000639031
0.0124695
0.0136963
0.00102216
0.000929175
0.000862186
0.000815056
0.000781025
0.000755671
0.000736012
0.000720466
0.000707752
0.000697308
0.000688449
0.000680986
0.000674493
0.000668923
0.000663969
0.000659689
0.000655812
0.000652442
0.000649337
0.000646627
0.000644095
0.000641881
0.000639778
0.000637953
0.000636199
0.000634677
0.000633191
0.000631913
0.000630667
0.000629573
0.000628499
0.000627589
0.000626679
0.000625907
0.000625127
0.000624458
0.00062377
0.000623201
0.000622607
0.000622121
0.000621613
0.000621191
0.000620742
0.000620375
0.00061999
0.00061968
0.000619341
0.00061909
0.000618794
0.000618576
0.000618336
0.000618152
0.000617928
0.000617787
0.00061762
0.000617492
0.000617349
0.00061727
0.000617149
0.000617052
0.000616981
0.000616922
0.000616756
0.000616771
0.00061677
0.000616761
0.000616794
0.000616902
0.000616982
0.000617145
0.0006173
0.000617496
0.000617622
0.000617835
0.000617969
0.000618234
0.000618401
0.000618752
0.000618961
0.00061938
0.00061961
0.000620088
0.00062036
0.000620926
0.00062126
0.000621956
0.000622361
0.000623203
0.000623688
0.00062475
0.000625302
0.000627071
0.000627271
0.000637608
0.0126948
0.0140384
0.00102219
0.000929161
0.000862004
0.000814679
0.00078047
0.000754965
0.000735182
0.000719532
0.00070673
0.000696213
0.000687291
0.000679774
0.000673234
0.000667622
0.000662632
0.000658319
0.000654413
0.000651017
0.000647888
0.000645157
0.000642605
0.000640373
0.000638254
0.000636414
0.000634646
0.000633112
0.000631615
0.000630326
0.000629069
0.000627966
0.000626883
0.000625965
0.000625047
0.000624268
0.000623481
0.000622806
0.000622112
0.000621537
0.000620938
0.000620447
0.000619934
0.000619508
0.000619054
0.000618684
0.000618295
0.000617982
0.000617639
0.000617385
0.000617086
0.000616865
0.000616622
0.000616436
0.00061621
0.000616067
0.000615898
0.000615768
0.000615623
0.000615542
0.000615421
0.000615322
0.000615249
0.000615189
0.000615024
0.000615035
0.000615034
0.000615023
0.00061505
0.000615158
0.000615235
0.000615396
0.000615549
0.000615744
0.000615868
0.00061608
0.000616213
0.000616476
0.000616641
0.00061699
0.000617197
0.000617613
0.000617842
0.000618317
0.000618588
0.000619151
0.000619483
0.000620174
0.000620577
0.000621414
0.000621896
0.000622952
0.0006235
0.000625264
0.000625442
0.00063609
0.0129248
0.0144016
0.00102223
0.000929148
0.000861815
0.000814284
0.000779886
0.000754222
0.000734305
0.000718544
0.00070565
0.000695054
0.000686065
0.00067849
0.000671899
0.000666244
0.000661214
0.000656867
0.00065293
0.000649506
0.000646352
0.000643598
0.000641025
0.000638775
0.000636639
0.000634783
0.000633
0.000631452
0.000629942
0.000628642
0.000627374
0.000626261
0.000625169
0.000624242
0.000623315
0.000622529
0.000621734
0.000621052
0.000620352
0.000619771
0.000619166
0.00061867
0.000618152
0.000617722
0.000617263
0.000616889
0.000616495
0.000616179
0.000615832
0.000615576
0.000615273
0.00061505
0.000614804
0.000614616
0.000614387
0.000614241
0.000614069
0.000613938
0.000613791
0.000613708
0.000613585
0.000613486
0.00061341
0.00061335
0.000613186
0.000613193
0.00061319
0.000613178
0.0006132
0.000613306
0.00061338
0.000613538
0.000613689
0.000613884
0.000614006
0.000614217
0.000614348
0.000614609
0.000614773
0.000615118
0.000615324
0.000615737
0.000615965
0.000616437
0.000616706
0.000617266
0.000617595
0.000618282
0.000618682
0.000619514
0.000619993
0.000621043
0.000621585
0.000623344
0.000623501
0.000634473
0.0131565
0.014785
0.00102228
0.000929136
0.000861618
0.000813871
0.000779273
0.00075344
0.000733382
0.000717504
0.000704512
0.000693832
0.000684772
0.000677135
0.000670491
0.000664788
0.000659717
0.000655333
0.000651362
0.000647909
0.000644728
0.00064195
0.000639355
0.000637085
0.00063493
0.000633057
0.000631259
0.000629696
0.000628173
0.00062686
0.00062558
0.000624458
0.000623355
0.000622418
0.000621483
0.000620688
0.000619885
0.000619197
0.000618489
0.000617903
0.000617291
0.000616789
0.000616265
0.000615831
0.000615367
0.000614989
0.000614591
0.000614271
0.00061392
0.00061366
0.000613354
0.000613128
0.000612878
0.000612688
0.000612456
0.000612308
0.000612134
0.000612001
0.000611851
0.000611766
0.000611642
0.000611541
0.000611464
0.000611403
0.00061124
0.000611242
0.000611238
0.000611225
0.00061124
0.000611345
0.000611415
0.000611572
0.00061172
0.000611914
0.000612034
0.000612244
0.000612373
0.000612632
0.000612794
0.000613136
0.00061334
0.000613751
0.000613977
0.000614446
0.000614714
0.00061527
0.000615596
0.000616278
0.000616676
0.000617502
0.000617978
0.000619021
0.000619558
0.000621311
0.000621445
0.000632755
0.0133862
0.0151873
0.00102232
0.000929125
0.000861415
0.000813441
0.000778633
0.000752621
0.000732414
0.000716412
0.000703315
0.000692547
0.000683411
0.000675709
0.000669007
0.000663255
0.000658139
0.000653716
0.00064971
0.000646226
0.000643016
0.000640212
0.000637594
0.000635302
0.000633128
0.000631237
0.000629422
0.000627844
0.000626307
0.000624981
0.000623688
0.000622554
0.000621441
0.000620494
0.000619549
0.000618745
0.000617934
0.000617239
0.000616523
0.00061593
0.000615312
0.000614804
0.000614274
0.000613835
0.000613366
0.000612984
0.00061258
0.000612257
0.000611901
0.000611638
0.000611328
0.000611098
0.000610845
0.000610653
0.000610418
0.000610267
0.00061009
0.000609956
0.000609803
0.000609716
0.00060959
0.000609488
0.000609408
0.000609346
0.000609184
0.000609183
0.000609177
0.000609163
0.000609171
0.000609275
0.000609341
0.000609495
0.00060964
0.000609833
0.000609952
0.00061016
0.000610287
0.000610544
0.000610704
0.000611042
0.000611244
0.000611652
0.000611877
0.000612343
0.000612609
0.00061316
0.000613485
0.000614161
0.000614556
0.000615377
0.000615849
0.000616885
0.000617416
0.000619163
0.000619274
0.000630933
0.0136099
0.0156067
0.00102237
0.000929115
0.000861206
0.000812994
0.000777965
0.000751765
0.0007314
0.000715267
0.00070206
0.000691198
0.000681982
0.000674211
0.000667449
0.000661644
0.000656481
0.000652017
0.000647973
0.000644455
0.000641215
0.000638384
0.000635741
0.000633427
0.000631231
0.000629322
0.000627488
0.000625895
0.000624342
0.000623002
0.000621697
0.000620551
0.000619426
0.000618468
0.000617513
0.0006167
0.00061588
0.000615176
0.000614453
0.000613853
0.000613228
0.000612714
0.000612178
0.000611733
0.000611259
0.000610872
0.000610463
0.000610135
0.000609775
0.000609508
0.000609194
0.000608961
0.000608704
0.000608509
0.000608271
0.000608118
0.000607937
0.000607801
0.000607645
0.000607556
0.000607428
0.000607325
0.000607242
0.000607179
0.000607019
0.000607013
0.000607005
0.00060699
0.000606991
0.000607093
0.000607155
0.000607306
0.000607449
0.000607641
0.000607758
0.000607964
0.00060809
0.000608344
0.000608501
0.000608836
0.000609036
0.000609441
0.000609664
0.000610126
0.00061039
0.000610938
0.00061126
0.000611931
0.000612323
0.000613137
0.000613605
0.000614634
0.000615159
0.000616899
0.000616987
0.000629004
0.0138229
0.016041
0.00102241
0.000929106
0.000860991
0.00081253
0.000777271
0.000750872
0.000730342
0.000714071
0.000700747
0.000689787
0.000680486
0.000672642
0.000665815
0.000659955
0.000654743
0.000650234
0.000646151
0.000642598
0.000639325
0.000636466
0.000633796
0.000631458
0.00062924
0.00062731
0.000625459
0.000623848
0.000622279
0.000620924
0.000619605
0.000618447
0.000617309
0.000616341
0.000615374
0.000614552
0.000613722
0.00061301
0.000612278
0.000611671
0.000611038
0.000610518
0.000609974
0.000609524
0.000609044
0.000608652
0.000608237
0.000607906
0.00060754
0.000607269
0.000606951
0.000606715
0.000606454
0.000606256
0.000606014
0.000605858
0.000605674
0.000605536
0.000605377
0.000605286
0.000605156
0.000605051
0.000604965
0.000604902
0.000604743
0.000604732
0.000604722
0.000604706
0.000604699
0.000604799
0.000604857
0.000605006
0.000605145
0.000605336
0.00060545
0.000605655
0.000605779
0.000606031
0.000606186
0.000606516
0.000606714
0.000607115
0.000607337
0.000607795
0.000608057
0.0006086
0.00060892
0.000609585
0.000609974
0.000610781
0.000611246
0.000612267
0.000612785
0.000614517
0.000614583
0.000626964
0.0140202
0.016487
0.00102246
0.0009291
0.000860772
0.000812052
0.000776551
0.000749944
0.00072924
0.000712823
0.000699377
0.000688313
0.000678922
0.000671001
0.000664107
0.000658188
0.000652923
0.000648368
0.000644243
0.000640653
0.000637346
0.000634457
0.000631759
0.000629396
0.000627155
0.000625203
0.000623332
0.000621703
0.000620117
0.000618747
0.000617412
0.000616241
0.00061509
0.00061411
0.000613132
0.000612299
0.000611459
0.000610739
0.000609998
0.000609383
0.000608742
0.000608215
0.000607664
0.000607208
0.000606721
0.000606324
0.000605904
0.000605567
0.000605197
0.000604921
0.000604599
0.000604359
0.000604093
0.000603892
0.000603647
0.000603488
0.0006033
0.00060316
0.000602998
0.000602904
0.000602772
0.000602666
0.000602576
0.000602512