/*--------------------------------*- C++ -*----------------------------------*\
| =========                 |                                                 |
| \\      /  F ield         | OpenFOAM: The Open Source CFD Toolbox           |
|  \\    /   O peration     | Version:  v2012                                 |
|   \\  /    A nd           | Website:  www.openfoam.com                      |
|    \\/     M anipulation  |                                                 |
\*---------------------------------------------------------------------------*/
FoamFile
{
    version     2.0;
    format      ascii;
    class       volScalarField;
    location    "22.5";
    object      nut;
}
// * * * * * * * * * * * * * * * * * * * * * * * * * * * * * * * * * * * * * //

dimensions      [0 2 -1 0 0 0 0];


internalField   nonuniform List<scalar> 
209825
(
1.24407e-07
1.17142e-07
1.08887e-07
1.02085e-07
9.68298e-08
9.27729e-08
8.9551e-08
8.69619e-08
8.48159e-08
8.30373e-08
8.15158e-08
8.0227e-08
7.90998e-08
7.81295e-08
7.72625e-08
7.65122e-08
7.58304e-08
7.52373e-08
7.46893e-08
7.42108e-08
7.37629e-08
7.33712e-08
7.29979e-08
7.2674e-08
7.23625e-08
7.20922e-08
7.18274e-08
7.15994e-08
7.13778e-08
7.11823e-08
7.09901e-08
7.08266e-08
7.06641e-08
7.0526e-08
7.03856e-08
7.0263e-08
7.01401e-08
7.00373e-08
6.99292e-08
6.98402e-08
6.97464e-08
6.96672e-08
6.95866e-08
6.95184e-08
6.94452e-08
6.93868e-08
6.93278e-08
6.92791e-08
6.922e-08
6.91782e-08
6.91349e-08
6.90869e-08
6.90422e-08
6.90154e-08
6.89756e-08
6.89499e-08
6.89109e-08
6.88781e-08
6.884e-08
6.87993e-08
6.87858e-08
6.87736e-08
6.87262e-08
6.872e-08
6.86927e-08
6.86738e-08
6.86784e-08
6.86855e-08
6.868e-08
6.86983e-08
6.87089e-08
6.87226e-08
6.87269e-08
6.87457e-08
6.87489e-08
6.87768e-08
6.87831e-08
6.88204e-08
6.88346e-08
6.88751e-08
6.88888e-08
6.89347e-08
6.89528e-08
6.90053e-08
6.90317e-08
6.90936e-08
6.91274e-08
6.91951e-08
6.92319e-08
6.93121e-08
6.93498e-08
6.94546e-08
6.94722e-08
7.00386e-08
3.41941e-06
2.03955e-08
1.24407e-07
1.17144e-07
1.08889e-07
1.02087e-07
9.68316e-08
9.27745e-08
8.95524e-08
8.6963e-08
8.48168e-08
8.3038e-08
8.15164e-08
8.02273e-08
7.91e-08
7.81296e-08
7.72625e-08
7.65121e-08
7.58302e-08
7.5237e-08
7.46889e-08
7.42104e-08
7.37624e-08
7.33706e-08
7.29973e-08
7.26733e-08
7.23618e-08
7.20914e-08
7.18266e-08
7.15985e-08
7.13769e-08
7.11814e-08
7.09891e-08
7.08257e-08
7.06631e-08
7.05249e-08
7.03846e-08
7.0262e-08
7.0139e-08
7.00362e-08
6.99281e-08
6.9839e-08
6.97452e-08
6.9666e-08
6.95854e-08
6.95172e-08
6.9444e-08
6.93855e-08
6.93265e-08
6.92778e-08
6.92187e-08
6.9177e-08
6.91336e-08
6.90856e-08
6.90409e-08
6.90141e-08
6.89743e-08
6.89486e-08
6.89096e-08
6.88768e-08
6.88386e-08
6.87979e-08
6.87845e-08
6.87723e-08
6.87249e-08
6.87186e-08
6.86913e-08
6.86725e-08
6.8677e-08
6.86841e-08
6.86786e-08
6.86969e-08
6.87074e-08
6.87211e-08
6.87255e-08
6.87443e-08
6.87475e-08
6.87754e-08
6.87816e-08
6.8819e-08
6.88331e-08
6.88736e-08
6.88873e-08
6.89332e-08
6.89513e-08
6.90038e-08
6.90302e-08
6.90921e-08
6.91259e-08
6.91936e-08
6.92304e-08
6.93106e-08
6.93483e-08
6.9453e-08
6.94707e-08
7.00378e-08
3.41988e-06
2.05674e-08
1.24408e-07
1.17149e-07
1.08897e-07
1.02095e-07
9.68389e-08
9.27808e-08
8.95576e-08
8.69672e-08
8.48202e-08
8.30406e-08
8.15183e-08
8.02286e-08
7.91008e-08
7.81299e-08
7.72623e-08
7.65115e-08
7.58292e-08
7.52358e-08
7.46874e-08
7.42086e-08
7.37603e-08
7.33683e-08
7.29949e-08
7.26707e-08
7.23589e-08
7.20884e-08
7.18235e-08
7.15953e-08
7.13735e-08
7.11779e-08
7.09855e-08
7.08219e-08
7.06592e-08
7.0521e-08
7.03805e-08
7.02579e-08
7.01348e-08
7.00319e-08
6.99238e-08
6.98346e-08
6.97408e-08
6.96615e-08
6.95808e-08
6.95125e-08
6.94393e-08
6.93808e-08
6.93217e-08
6.9273e-08
6.92139e-08
6.91721e-08
6.91287e-08
6.90806e-08
6.90359e-08
6.90091e-08
6.89693e-08
6.89435e-08
6.89045e-08
6.88717e-08
6.88335e-08
6.87928e-08
6.87793e-08
6.87671e-08
6.87197e-08
6.87133e-08
6.86861e-08
6.86672e-08
6.86717e-08
6.86788e-08
6.86732e-08
6.86914e-08
6.8702e-08
6.87157e-08
6.872e-08
6.87388e-08
6.8742e-08
6.87698e-08
6.87761e-08
6.88134e-08
6.88275e-08
6.8868e-08
6.88817e-08
6.89275e-08
6.89456e-08
6.89981e-08
6.90245e-08
6.90864e-08
6.91201e-08
6.91878e-08
6.92246e-08
6.93047e-08
6.93424e-08
6.94471e-08
6.94646e-08
7.00334e-08
3.42077e-06
2.08178e-08
1.2441e-07
1.1716e-07
1.08911e-07
1.02109e-07
9.68513e-08
9.27914e-08
8.95664e-08
8.69744e-08
8.48259e-08
8.3045e-08
8.15215e-08
8.02309e-08
7.91021e-08
7.81304e-08
7.72621e-08
7.65107e-08
7.58277e-08
7.52338e-08
7.46849e-08
7.42056e-08
7.3757e-08
7.33646e-08
7.29908e-08
7.26663e-08
7.23543e-08
7.20835e-08
7.18183e-08
7.15898e-08
7.13678e-08
7.1172e-08
7.09794e-08
7.08157e-08
7.06529e-08
7.05145e-08
7.03738e-08
7.0251e-08
7.01278e-08
7.00248e-08
6.99166e-08
6.98273e-08
6.97334e-08
6.9654e-08
6.95732e-08
6.95049e-08
6.94316e-08
6.9373e-08
6.93138e-08
6.9265e-08
6.92058e-08
6.9164e-08
6.91206e-08
6.90725e-08
6.90277e-08
6.90008e-08
6.89609e-08
6.89352e-08
6.88961e-08
6.88632e-08
6.88251e-08
6.87843e-08
6.87707e-08
6.87585e-08
6.87111e-08
6.87046e-08
6.86774e-08
6.86584e-08
6.86628e-08
6.86699e-08
6.86643e-08
6.86824e-08
6.8693e-08
6.87067e-08
6.87109e-08
6.87297e-08
6.87328e-08
6.87607e-08
6.87669e-08
6.88041e-08
6.88182e-08
6.88587e-08
6.88723e-08
6.89181e-08
6.89362e-08
6.89886e-08
6.9015e-08
6.90768e-08
6.91105e-08
6.91781e-08
6.92149e-08
6.9295e-08
6.93326e-08
6.94373e-08
6.94546e-08
7.00259e-08
3.42215e-06
2.11209e-08
1.24412e-07
1.17174e-07
1.0893e-07
1.02129e-07
9.68689e-08
9.28064e-08
8.95789e-08
8.69846e-08
8.4834e-08
8.30513e-08
8.15262e-08
8.02341e-08
7.9104e-08
7.81312e-08
7.72619e-08
7.65095e-08
7.58257e-08
7.5231e-08
7.46814e-08
7.42016e-08
7.37523e-08
7.33595e-08
7.29851e-08
7.26602e-08
7.23478e-08
7.20766e-08
7.1811e-08
7.15823e-08
7.136e-08
7.11639e-08
7.0971e-08
7.0807e-08
7.0644e-08
7.05053e-08
7.03645e-08
7.02415e-08
7.01181e-08
7.00149e-08
6.99065e-08
6.98172e-08
6.9723e-08
6.96436e-08
6.95626e-08
6.94941e-08
6.94207e-08
6.9362e-08
6.93027e-08
6.92538e-08
6.91946e-08
6.91526e-08
6.91092e-08
6.90611e-08
6.90162e-08
6.89892e-08
6.89493e-08
6.89234e-08
6.88843e-08
6.88514e-08
6.88132e-08
6.87724e-08
6.87587e-08
6.87465e-08
6.8699e-08
6.86924e-08
6.86652e-08
6.86462e-08
6.86504e-08
6.86574e-08
6.86518e-08
6.86698e-08
6.86803e-08
6.8694e-08
6.86982e-08
6.8717e-08
6.87201e-08
6.87478e-08
6.8754e-08
6.87911e-08
6.88052e-08
6.88456e-08
6.88592e-08
6.89049e-08
6.8923e-08
6.89753e-08
6.90017e-08
6.90633e-08
6.9097e-08
6.91645e-08
6.92013e-08
6.92813e-08
6.93188e-08
6.94236e-08
6.94406e-08
7.00153e-08
3.42405e-06
2.14671e-08
1.24415e-07
1.17193e-07
1.08956e-07
1.02154e-07
9.68917e-08
9.28259e-08
8.95951e-08
8.69979e-08
8.48446e-08
8.30595e-08
8.15323e-08
8.02383e-08
7.91066e-08
7.81323e-08
7.72616e-08
7.65081e-08
7.58232e-08
7.52275e-08
7.4677e-08
7.41964e-08
7.37464e-08
7.33529e-08
7.29779e-08
7.26524e-08
7.23394e-08
7.20678e-08
7.18017e-08
7.15725e-08
7.13498e-08
7.11534e-08
7.09602e-08
7.07959e-08
7.06325e-08
7.04936e-08
7.03525e-08
7.02292e-08
7.01056e-08
7.00022e-08
6.98936e-08
6.9804e-08
6.97097e-08
6.963e-08
6.95489e-08
6.94803e-08
6.94068e-08
6.93479e-08
6.92884e-08
6.92394e-08
6.918e-08
6.9138e-08
6.90945e-08
6.90463e-08
6.90013e-08
6.89742e-08
6.89342e-08
6.89083e-08
6.88691e-08
6.88361e-08
6.87979e-08
6.87571e-08
6.87432e-08
6.8731e-08
6.86835e-08
6.86767e-08
6.86495e-08
6.86304e-08
6.86343e-08
6.86414e-08
6.86356e-08
6.86535e-08
6.8664e-08
6.86776e-08
6.86818e-08
6.87005e-08
6.87035e-08
6.87312e-08
6.87373e-08
6.87743e-08
6.87884e-08
6.88287e-08
6.88423e-08
6.88879e-08
6.89059e-08
6.89581e-08
6.89844e-08
6.90459e-08
6.90796e-08
6.9147e-08
6.91837e-08
6.92636e-08
6.93011e-08
6.94058e-08
6.94224e-08
7.00016e-08
3.4265e-06
2.18531e-08
1.24419e-07
1.17216e-07
1.08987e-07
1.02186e-07
9.69199e-08
9.285e-08
8.96153e-08
8.70143e-08
8.48577e-08
8.30697e-08
8.15399e-08
8.02436e-08
7.91098e-08
7.81337e-08
7.72614e-08
7.65064e-08
7.58202e-08
7.52233e-08
7.46717e-08
7.419e-08
7.37391e-08
7.33448e-08
7.2969e-08
7.26428e-08
7.23292e-08
7.20569e-08
7.17903e-08
7.15606e-08
7.13374e-08
7.11405e-08
7.09469e-08
7.07822e-08
7.06184e-08
7.04791e-08
7.03377e-08
7.02142e-08
7.00902e-08
6.99866e-08
6.98777e-08
6.97878e-08
6.96933e-08
6.96134e-08
6.95321e-08
6.94633e-08
6.93896e-08
6.93305e-08
6.92709e-08
6.92217e-08
6.91622e-08
6.912e-08
6.90764e-08
6.90282e-08
6.8983e-08
6.89558e-08
6.89157e-08
6.88898e-08
6.88504e-08
6.88174e-08
6.87791e-08
6.87382e-08
6.87242e-08
6.87119e-08
6.86643e-08
6.86573e-08
6.86302e-08
6.86109e-08
6.86146e-08
6.86216e-08
6.86157e-08
6.86335e-08
6.86438e-08
6.86575e-08
6.86616e-08
6.86802e-08
6.86832e-08
6.87107e-08
6.87168e-08
6.87536e-08
6.87676e-08
6.88079e-08
6.88214e-08
6.88669e-08
6.88849e-08
6.89369e-08
6.89632e-08
6.90245e-08
6.90581e-08
6.91255e-08
6.91621e-08
6.92418e-08
6.92792e-08
6.93838e-08
6.94001e-08
6.99847e-08
3.42955e-06
2.22799e-08
1.24424e-07
1.17243e-07
1.09025e-07
1.02223e-07
9.69535e-08
9.28789e-08
8.96394e-08
8.70341e-08
8.48735e-08
8.3082e-08
8.15491e-08
8.02501e-08
7.91138e-08
7.81355e-08
7.72613e-08
7.65045e-08
7.58167e-08
7.52183e-08
7.46654e-08
7.41825e-08
7.37306e-08
7.33352e-08
7.29585e-08
7.26315e-08
7.2317e-08
7.2044e-08
7.17768e-08
7.15464e-08
7.13226e-08
7.11252e-08
7.0931e-08
7.07658e-08
7.06016e-08
7.04619e-08
7.03201e-08
7.01962e-08
7.00719e-08
6.99679e-08
6.98587e-08
6.97686e-08
6.96738e-08
6.95937e-08
6.95121e-08
6.94431e-08
6.93691e-08
6.93099e-08
6.92499e-08
6.92006e-08
6.91409e-08
6.90986e-08
6.90549e-08
6.90066e-08
6.89612e-08
6.89339e-08
6.88937e-08
6.88676e-08
6.88281e-08
6.8795e-08
6.87568e-08
6.87157e-08
6.87015e-08
6.86892e-08
6.86415e-08
6.86342e-08
6.86071e-08
6.85877e-08
6.85911e-08
6.85981e-08
6.8592e-08
6.86096e-08
6.86199e-08
6.86335e-08
6.86375e-08
6.86561e-08
6.8659e-08
6.86864e-08
6.86924e-08
6.8729e-08
6.8743e-08
6.87831e-08
6.87966e-08
6.88419e-08
6.88599e-08
6.89117e-08
6.89379e-08
6.8999e-08
6.90326e-08
6.90998e-08
6.91363e-08
6.92158e-08
6.92531e-08
6.93577e-08
6.93734e-08
6.99647e-08
3.43322e-06
2.27509e-08
1.24429e-07
1.17274e-07
1.09068e-07
1.02267e-07
9.69929e-08
9.29126e-08
8.96676e-08
8.70572e-08
8.48921e-08
8.30965e-08
8.156e-08
8.02577e-08
7.91186e-08
7.81377e-08
7.72612e-08
7.65023e-08
7.58126e-08
7.52126e-08
7.46581e-08
7.41739e-08
7.37206e-08
7.33241e-08
7.29464e-08
7.26183e-08
7.23029e-08
7.20291e-08
7.17611e-08
7.153e-08
7.13055e-08
7.11075e-08
7.09127e-08
7.07469e-08
7.05821e-08
7.04419e-08
7.02996e-08
7.01754e-08
7.00506e-08
6.99463e-08
6.98367e-08
6.97462e-08
6.96511e-08
6.95707e-08
6.94888e-08
6.94195e-08
6.93453e-08
6.92858e-08
6.92256e-08
6.91761e-08
6.91161e-08
6.90737e-08
6.90298e-08
6.89815e-08
6.89359e-08
6.89083e-08
6.8868e-08
6.88419e-08
6.88022e-08
6.87689e-08
6.87307e-08
6.86895e-08
6.86751e-08
6.86628e-08
6.8615e-08
6.86074e-08
6.85803e-08
6.85607e-08
6.85637e-08
6.85707e-08
6.85644e-08
6.85818e-08
6.8592e-08
6.86056e-08
6.86095e-08
6.8628e-08
6.86307e-08
6.8658e-08
6.86639e-08
6.87003e-08
6.87142e-08
6.87542e-08
6.87677e-08
6.88128e-08
6.88308e-08
6.88823e-08
6.89085e-08
6.89693e-08
6.90028e-08
6.90698e-08
6.91062e-08
6.91856e-08
6.92228e-08
6.93273e-08
6.93424e-08
6.99414e-08
3.43752e-06
2.3272e-08
1.24435e-07
1.1731e-07
1.09118e-07
1.02317e-07
9.70379e-08
9.29513e-08
8.97e-08
8.70838e-08
8.49134e-08
8.31132e-08
8.15725e-08
8.02666e-08
7.91242e-08
7.81404e-08
7.72612e-08
7.65e-08
7.58081e-08
7.52062e-08
7.46499e-08
7.41641e-08
7.37093e-08
7.33115e-08
7.29325e-08
7.26033e-08
7.22869e-08
7.20121e-08
7.17431e-08
7.15112e-08
7.12859e-08
7.10872e-08
7.08917e-08
7.07253e-08
7.05598e-08
7.04191e-08
7.02763e-08
7.01515e-08
7.00263e-08
6.99215e-08
6.98115e-08
6.97207e-08
6.96251e-08
6.95444e-08
6.94621e-08
6.93926e-08
6.9318e-08
6.92583e-08
6.91977e-08
6.9148e-08
6.90878e-08
6.90452e-08
6.90012e-08
6.89527e-08
6.89069e-08
6.88791e-08
6.88387e-08
6.88124e-08
6.87725e-08
6.87391e-08
6.87009e-08
6.86596e-08
6.86449e-08
6.86325e-08
6.85847e-08
6.85766e-08
6.85496e-08
6.85299e-08
6.85324e-08
6.85393e-08
6.85328e-08
6.855e-08
6.85601e-08
6.85737e-08
6.85774e-08
6.85958e-08
6.85984e-08
6.86256e-08
6.86314e-08
6.86675e-08
6.86813e-08
6.87212e-08
6.87346e-08
6.87795e-08
6.87974e-08
6.88487e-08
6.88748e-08
6.89354e-08
6.89687e-08
6.90356e-08
6.90719e-08
6.9151e-08
6.9188e-08
6.92925e-08
6.93069e-08
6.99148e-08
3.44244e-06
2.38508e-08
1.24441e-07
1.17351e-07
1.09174e-07
1.02373e-07
9.70888e-08
9.29952e-08
8.97367e-08
8.71139e-08
8.49377e-08
8.31322e-08
8.15868e-08
8.02767e-08
7.91306e-08
7.81435e-08
7.72613e-08
7.64974e-08
7.58032e-08
7.5199e-08
7.46408e-08
7.41531e-08
7.36967e-08
7.32973e-08
7.29169e-08
7.25865e-08
7.22688e-08
7.1993e-08
7.17229e-08
7.14901e-08
7.12639e-08
7.10644e-08
7.0868e-08
7.07009e-08
7.05347e-08
7.03934e-08
7.02499e-08
7.01247e-08
6.99989e-08
6.98936e-08
6.97831e-08
6.96919e-08
6.95959e-08
6.95148e-08
6.94321e-08
6.93622e-08
6.92873e-08
6.92272e-08
6.91663e-08
6.91164e-08
6.90559e-08
6.9013e-08
6.89688e-08
6.89203e-08
6.88742e-08
6.88462e-08
6.88056e-08
6.87791e-08
6.8739e-08
6.87055e-08
6.86672e-08
6.86258e-08
6.86108e-08
6.85983e-08
6.85505e-08
6.8542e-08
6.8515e-08
6.84951e-08
6.8497e-08
6.85039e-08
6.84972e-08
6.85141e-08
6.8524e-08
6.85376e-08
6.85412e-08
6.85595e-08
6.8562e-08
6.85889e-08
6.85947e-08
6.86305e-08
6.86442e-08
6.86838e-08
6.86972e-08
6.87419e-08
6.87598e-08
6.88107e-08
6.88368e-08
6.8897e-08
6.89303e-08
6.89969e-08
6.90331e-08
6.9112e-08
6.91488e-08
6.92532e-08
6.92668e-08
6.98849e-08
3.44797e-06
2.44961e-08
1.24448e-07
1.17395e-07
1.09236e-07
1.02436e-07
9.71458e-08
9.30442e-08
8.97779e-08
8.71478e-08
8.49649e-08
8.31536e-08
8.16029e-08
8.02882e-08
7.91379e-08
7.81471e-08
7.72616e-08
7.64947e-08
7.57977e-08
7.51912e-08
7.46307e-08
7.4141e-08
7.36827e-08
7.32817e-08
7.28997e-08
7.25678e-08
7.22487e-08
7.19717e-08
7.17005e-08
7.14665e-08
7.12393e-08
7.10389e-08
7.08417e-08
7.06738e-08
7.05068e-08
7.03647e-08
7.02206e-08
7.00948e-08
6.99683e-08
6.98625e-08
6.97514e-08
6.96597e-08
6.95632e-08
6.94817e-08
6.93986e-08
6.93283e-08
6.9253e-08
6.91926e-08
6.91313e-08
6.90811e-08
6.90203e-08
6.89771e-08
6.89327e-08
6.88841e-08
6.88377e-08
6.88094e-08
6.87686e-08
6.8742e-08
6.87017e-08
6.86679e-08
6.86297e-08
6.8588e-08
6.85727e-08
6.85602e-08
6.85123e-08
6.85033e-08
6.84764e-08
6.84562e-08
6.84576e-08
6.84644e-08
6.84574e-08
6.8474e-08
6.84838e-08
6.84973e-08
6.85008e-08
6.85189e-08
6.85213e-08
6.8548e-08
6.85536e-08
6.85891e-08
6.86028e-08
6.86422e-08
6.86555e-08
6.86999e-08
6.87177e-08
6.87684e-08
6.87943e-08
6.88542e-08
6.88873e-08
6.89537e-08
6.89897e-08
6.90683e-08
6.9105e-08
6.92093e-08
6.92221e-08
6.98515e-08
3.45404e-06
2.52184e-08
1.24455e-07
1.17444e-07
1.09304e-07
1.02506e-07
9.72088e-08
9.30987e-08
8.98236e-08
8.71855e-08
8.49953e-08
8.31774e-08
8.1621e-08
8.03012e-08
7.91462e-08
7.81514e-08
7.72621e-08
7.64919e-08
7.57919e-08
7.51826e-08
7.46196e-08
7.41277e-08
7.36673e-08
7.32644e-08
7.28807e-08
7.25472e-08
7.22266e-08
7.19482e-08
7.16757e-08
7.14406e-08
7.12122e-08
7.10109e-08
7.08126e-08
7.06438e-08
7.04759e-08
7.03331e-08
7.01882e-08
7.00617e-08
6.99345e-08
6.98281e-08
6.97165e-08
6.96242e-08
6.95272e-08
6.94452e-08
6.93615e-08
6.92909e-08
6.92151e-08
6.91543e-08
6.90925e-08
6.9042e-08
6.89809e-08
6.89374e-08
6.88928e-08
6.88441e-08
6.87973e-08
6.87687e-08
6.87277e-08
6.87009e-08
6.86603e-08
6.86264e-08
6.85881e-08
6.85463e-08
6.85307e-08
6.85181e-08
6.847e-08
6.84606e-08
6.84337e-08
6.84133e-08
6.84139e-08
6.84207e-08
6.84134e-08
6.84297e-08
6.84393e-08
6.84528e-08
6.8456e-08
6.84741e-08
6.84763e-08
6.85027e-08
6.85082e-08
6.85434e-08
6.85569e-08
6.85961e-08
6.86094e-08
6.86534e-08
6.86712e-08
6.87215e-08
6.87474e-08
6.88068e-08
6.88398e-08
6.8906e-08
6.89418e-08
6.90201e-08
6.90566e-08
6.91607e-08
6.91726e-08
6.98146e-08
3.46057e-06
2.6029e-08
1.24464e-07
1.17498e-07
1.09379e-07
1.02582e-07
9.72782e-08
9.31586e-08
8.9874e-08
8.72271e-08
8.50289e-08
8.32039e-08
8.16411e-08
8.03156e-08
7.91556e-08
7.81562e-08
7.72629e-08
7.6489e-08
7.57857e-08
7.51734e-08
7.46077e-08
7.41133e-08
7.36506e-08
7.32456e-08
7.28599e-08
7.25247e-08
7.22025e-08
7.19225e-08
7.16487e-08
7.14122e-08
7.11826e-08
7.09801e-08
7.07808e-08
7.0611e-08
7.04421e-08
7.02984e-08
7.01527e-08
7.00254e-08
6.98975e-08
6.97904e-08
6.96781e-08
6.95852e-08
6.94876e-08
6.94051e-08
6.93209e-08
6.92498e-08
6.91736e-08
6.91123e-08
6.905e-08
6.89992e-08
6.89377e-08
6.88939e-08
6.8849e-08
6.88001e-08
6.8753e-08
6.87241e-08
6.86829e-08
6.86559e-08
6.8615e-08
6.85808e-08
6.85425e-08
6.85005e-08
6.84844e-08
6.84718e-08
6.84237e-08
6.84136e-08
6.83869e-08
6.83661e-08
6.8366e-08
6.83727e-08
6.83651e-08
6.8381e-08
6.83904e-08
6.84039e-08
6.84069e-08
6.84248e-08
6.84268e-08
6.8453e-08
6.84584e-08
6.84931e-08
6.85066e-08
6.85455e-08
6.85587e-08
6.86024e-08
6.86201e-08
6.867e-08
6.86957e-08
6.87548e-08
6.87876e-08
6.88535e-08
6.88891e-08
6.89671e-08
6.90034e-08
6.91073e-08
6.91182e-08
6.9774e-08
3.46743e-06
2.69398e-08
1.24472e-07
1.17555e-07
1.09461e-07
1.02665e-07
9.73539e-08
9.32242e-08
8.99293e-08
8.72728e-08
8.50659e-08
8.32331e-08
8.16633e-08
8.03316e-08
7.9166e-08
7.81617e-08
7.72639e-08
7.64861e-08
7.57791e-08
7.51635e-08
7.45948e-08
7.40977e-08
7.36325e-08
7.32253e-08
7.28375e-08
7.25003e-08
7.21763e-08
7.18947e-08
7.16193e-08
7.13814e-08
7.11504e-08
7.09467e-08
7.07462e-08
7.05753e-08
7.04053e-08
7.02607e-08
7.0114e-08
6.9986e-08
6.98572e-08
6.97494e-08
6.96363e-08
6.95428e-08
6.94445e-08
6.93615e-08
6.92766e-08
6.92051e-08
6.91283e-08
6.90666e-08
6.90037e-08
6.89525e-08
6.88905e-08
6.88464e-08
6.88013e-08
6.87522e-08
6.87047e-08
6.86754e-08
6.8634e-08
6.86067e-08
6.85655e-08
6.85311e-08
6.84927e-08
6.84505e-08
6.8434e-08
6.84213e-08
6.83731e-08
6.83624e-08
6.83358e-08
6.83147e-08
6.83137e-08
6.83203e-08
6.83124e-08
6.83279e-08
6.83371e-08
6.83505e-08
6.83533e-08
6.83711e-08
6.83729e-08
6.83988e-08
6.8404e-08
6.84383e-08
6.84516e-08
6.84903e-08
6.85034e-08
6.85467e-08
6.85644e-08
6.86138e-08
6.86394e-08
6.8698e-08
6.87307e-08
6.87962e-08
6.88317e-08
6.89092e-08
6.89453e-08
6.90491e-08
6.90589e-08
6.97298e-08
3.47444e-06
2.79638e-08
1.24481e-07
1.17617e-07
1.09549e-07
1.02756e-07
9.74362e-08
9.32957e-08
8.99896e-08
8.73227e-08
8.51063e-08
8.32651e-08
8.16877e-08
8.03493e-08
7.91777e-08
7.8168e-08
7.72654e-08
7.64832e-08
7.57722e-08
7.51531e-08
7.45811e-08
7.4081e-08
7.36131e-08
7.32034e-08
7.28133e-08
7.2474e-08
7.2148e-08
7.18646e-08
7.15875e-08
7.13481e-08
7.11156e-08
7.09106e-08
7.07087e-08
7.05366e-08
7.03655e-08
7.02198e-08
7.00721e-08
6.99433e-08
6.98135e-08
6.9705e-08
6.95911e-08
6.94969e-08
6.93979e-08
6.93142e-08
6.92287e-08
6.91566e-08
6.90792e-08
6.9017e-08
6.89535e-08
6.89019e-08
6.88395e-08
6.87949e-08
6.87495e-08
6.87003e-08
6.86523e-08
6.86226e-08
6.85809e-08
6.85534e-08
6.85118e-08
6.84772e-08
6.84388e-08
6.83964e-08
6.83794e-08
6.83665e-08
6.83183e-08
6.8307e-08
6.82804e-08
6.82589e-08
6.8257e-08
6.82635e-08
6.82552e-08
6.82703e-08
6.82793e-08
6.82926e-08
6.82952e-08
6.83127e-08
6.83144e-08
6.83399e-08
6.8345e-08
6.83788e-08
6.8392e-08
6.84303e-08
6.84434e-08
6.84863e-08
6.85039e-08
6.85528e-08
6.85783e-08
6.86364e-08
6.86689e-08
6.87341e-08
6.87693e-08
6.88465e-08
6.88822e-08
6.89859e-08
6.89946e-08
6.96818e-08
3.48137e-06
2.91145e-08
1.2449e-07
1.17684e-07
1.09644e-07
1.02853e-07
9.75253e-08
9.33731e-08
9.00551e-08
8.73769e-08
8.51504e-08
8.33e-08
8.17145e-08
8.03688e-08
7.91906e-08
7.81752e-08
7.72673e-08
7.64804e-08
7.57651e-08
7.51421e-08
7.45665e-08
7.40633e-08
7.35923e-08
7.318e-08
7.27874e-08
7.24458e-08
7.21176e-08
7.18323e-08
7.15534e-08
7.13122e-08
7.10781e-08
7.08717e-08
7.06684e-08
7.0495e-08
7.03227e-08
7.01759e-08
7.00271e-08
6.98972e-08
6.97665e-08
6.96571e-08
6.95423e-08
6.94473e-08
6.93476e-08
6.92632e-08
6.91769e-08
6.91043e-08
6.90263e-08
6.89635e-08
6.88993e-08
6.88473e-08
6.87844e-08
6.87394e-08
6.86936e-08
6.86443e-08
6.85957e-08
6.85656e-08
6.85236e-08
6.84959e-08
6.84539e-08
6.8419e-08
6.83805e-08
6.83379e-08
6.83204e-08
6.83074e-08
6.82592e-08
6.82471e-08
6.82206e-08
6.81988e-08
6.81958e-08
6.82022e-08
6.81935e-08
6.82082e-08
6.82169e-08
6.82301e-08
6.82325e-08
6.82498e-08
6.82512e-08
6.82764e-08
6.82813e-08
6.83146e-08
6.83277e-08
6.83656e-08
6.83786e-08
6.8421e-08
6.84386e-08
6.8487e-08
6.85124e-08
6.85699e-08
6.86022e-08
6.8667e-08
6.8702e-08
6.87787e-08
6.88142e-08
6.89176e-08
6.89251e-08
6.96298e-08
3.48792e-06
3.04058e-08
1.245e-07
1.17754e-07
1.09745e-07
1.02958e-07
9.76211e-08
9.34566e-08
9.01259e-08
8.74357e-08
8.51982e-08
8.3338e-08
8.17437e-08
8.03902e-08
7.9205e-08
7.81833e-08
7.72696e-08
7.64777e-08
7.57577e-08
7.51306e-08
7.45512e-08
7.40445e-08
7.35703e-08
7.31551e-08
7.27597e-08
7.24157e-08
7.20852e-08
7.17978e-08
7.15169e-08
7.12739e-08
7.10381e-08
7.08301e-08
7.06253e-08
7.04505e-08
7.02768e-08
7.01287e-08
6.99787e-08
6.98479e-08
6.97161e-08
6.96057e-08
6.949e-08
6.93942e-08
6.92936e-08
6.92085e-08
6.91214e-08
6.90482e-08
6.89695e-08
6.89061e-08
6.88412e-08
6.87887e-08
6.87252e-08
6.86798e-08
6.86336e-08
6.85841e-08
6.8535e-08
6.85045e-08
6.84621e-08
6.84341e-08
6.83917e-08
6.83565e-08
6.8318e-08
6.82751e-08
6.82569e-08
6.82439e-08
6.81956e-08
6.81829e-08
6.81565e-08
6.81342e-08
6.813e-08
6.81363e-08
6.81272e-08
6.81414e-08
6.81498e-08
6.81629e-08
6.8165e-08
6.81821e-08
6.81833e-08
6.82081e-08
6.82128e-08
6.82456e-08
6.82585e-08
6.82961e-08
6.83089e-08
6.83509e-08
6.83684e-08
6.84163e-08
6.84415e-08
6.84984e-08
6.85305e-08
6.85948e-08
6.86296e-08
6.87058e-08
6.8741e-08
6.88441e-08
6.88504e-08
6.95739e-08
3.49373e-06
3.18522e-08
1.2451e-07
1.17829e-07
1.09853e-07
1.0307e-07
9.77241e-08
9.35465e-08
9.02022e-08
8.74992e-08
8.525e-08
8.33792e-08
8.17755e-08
8.04135e-08
7.92208e-08
7.81924e-08
7.72726e-08
7.64752e-08
7.57503e-08
7.51186e-08
7.45351e-08
7.40247e-08
7.3547e-08
7.31287e-08
7.27305e-08
7.23838e-08
7.20508e-08
7.17611e-08
7.1478e-08
7.12331e-08
7.09954e-08
7.07858e-08
7.05793e-08
7.0403e-08
7.02278e-08
7.00784e-08
6.99271e-08
6.97952e-08
6.96622e-08
6.95508e-08
6.94341e-08
6.93374e-08
6.92359e-08
6.915e-08
6.90621e-08
6.89882e-08
6.89087e-08
6.88446e-08
6.8779e-08
6.8726e-08
6.8662e-08
6.8616e-08
6.85694e-08
6.85197e-08
6.847e-08
6.8439e-08
6.83963e-08
6.83679e-08
6.83251e-08
6.82896e-08
6.8251e-08
6.82078e-08
6.81891e-08
6.81759e-08
6.81276e-08
6.81142e-08
6.80878e-08
6.80651e-08
6.80596e-08
6.80657e-08
6.80562e-08
6.80699e-08
6.8078e-08
6.8091e-08
6.80928e-08
6.81096e-08
6.81106e-08
6.8135e-08
6.81395e-08
6.81717e-08
6.81844e-08
6.82216e-08
6.82343e-08
6.82758e-08
6.82932e-08
6.83405e-08
6.83655e-08
6.84218e-08
6.84536e-08
6.85176e-08
6.85521e-08
6.86278e-08
6.86626e-08
6.87654e-08
6.87704e-08
6.95137e-08
3.49835e-06
3.34686e-08
1.24521e-07
1.17908e-07
1.09968e-07
1.03189e-07
9.78341e-08
9.36428e-08
9.02841e-08
8.75675e-08
8.53058e-08
8.34239e-08
8.181e-08
8.04391e-08
7.92382e-08
7.82026e-08
7.72763e-08
7.6473e-08
7.57427e-08
7.51063e-08
7.45183e-08
7.40039e-08
7.35226e-08
7.31009e-08
7.26995e-08
7.235e-08
7.20143e-08
7.17222e-08
7.14369e-08
7.11898e-08
7.095e-08
7.07386e-08
7.05304e-08
7.03525e-08
7.01757e-08
7.00249e-08
6.98723e-08
6.97391e-08
6.96049e-08
6.94924e-08
6.93746e-08
6.92769e-08
6.91744e-08
6.90877e-08
6.89989e-08
6.89242e-08
6.8844e-08
6.87792e-08
6.87128e-08
6.86592e-08
6.85945e-08
6.8548e-08
6.8501e-08
6.8451e-08
6.84007e-08
6.83691e-08
6.83261e-08
6.82974e-08
6.8254e-08
6.82182e-08
6.81795e-08
6.81361e-08
6.81167e-08
6.81034e-08
6.80552e-08
6.80409e-08
6.80145e-08
6.79913e-08
6.79845e-08
6.79904e-08
6.79804e-08
6.79935e-08
6.80014e-08
6.80142e-08
6.80157e-08
6.80323e-08
6.80329e-08
6.80569e-08
6.80613e-08
6.80928e-08
6.81053e-08
6.8142e-08
6.81547e-08
6.81956e-08
6.82129e-08
6.82596e-08
6.82844e-08
6.83401e-08
6.83716e-08
6.84351e-08
6.84693e-08
6.85444e-08
6.85789e-08
6.86814e-08
6.8685e-08
6.94492e-08
3.5013e-06
3.52696e-08
1.24531e-07
1.1799e-07
1.10089e-07
1.03316e-07
9.79516e-08
9.37458e-08
9.03719e-08
8.76409e-08
8.53659e-08
8.3472e-08
8.18475e-08
8.04669e-08
7.92574e-08
7.82141e-08
7.72808e-08
7.64713e-08
7.57352e-08
7.50936e-08
7.45009e-08
7.39822e-08
7.3497e-08
7.30717e-08
7.2667e-08
7.23144e-08
7.19759e-08
7.16812e-08
7.13933e-08
7.1144e-08
7.0902e-08
7.06888e-08
7.04786e-08
7.0299e-08
7.01204e-08
6.99682e-08
6.98141e-08
6.96796e-08
6.95441e-08
6.94305e-08
6.93114e-08
6.92127e-08
6.91092e-08
6.90216e-08
6.89318e-08
6.88563e-08
6.87752e-08
6.87097e-08
6.86424e-08
6.85882e-08
6.85229e-08
6.84757e-08
6.84282e-08
6.8378e-08
6.8327e-08
6.82949e-08
6.82515e-08
6.82224e-08
6.81785e-08
6.81423e-08
6.81035e-08
6.80598e-08
6.80397e-08
6.80263e-08
6.79781e-08
6.79631e-08
6.79367e-08
6.7913e-08
6.79046e-08
6.79104e-08
6.78998e-08
6.79124e-08
6.79198e-08
6.79325e-08
6.79337e-08
6.795e-08
6.79504e-08
6.79738e-08
6.7978e-08
6.80089e-08
6.80212e-08
6.80574e-08
6.807e-08
6.81103e-08
6.81275e-08
6.81735e-08
6.81981e-08
6.82531e-08
6.82844e-08
6.83473e-08
6.83812e-08
6.84558e-08
6.84899e-08
6.85919e-08
6.85942e-08
6.93801e-08
3.50197e-06
3.72708e-08
1.24542e-07
1.18077e-07
1.10217e-07
1.03451e-07
9.80765e-08
9.38557e-08
9.04658e-08
8.77195e-08
8.54305e-08
8.35239e-08
8.18879e-08
8.04972e-08
7.92785e-08
7.82269e-08
7.72863e-08
7.647e-08
7.57279e-08
7.50808e-08
7.4483e-08
7.39598e-08
7.34702e-08
7.30412e-08
7.26329e-08
7.22771e-08
7.19354e-08
7.1638e-08
7.13475e-08
7.10957e-08
7.08515e-08
7.06362e-08
7.04239e-08
7.02425e-08
7.00621e-08
6.99082e-08
6.97525e-08
6.96168e-08
6.94797e-08
6.93649e-08
6.92446e-08
6.91448e-08
6.90401e-08
6.89516e-08
6.88607e-08
6.87845e-08
6.87024e-08
6.86361e-08
6.85679e-08
6.85131e-08
6.8447e-08
6.83992e-08
6.83511e-08
6.83006e-08
6.82489e-08
6.82162e-08
6.81724e-08
6.81429e-08
6.80985e-08
6.80619e-08
6.8023e-08
6.7979e-08
6.79581e-08
6.79445e-08
6.78965e-08
6.78806e-08
6.78541e-08
6.78299e-08
6.782e-08
6.78255e-08
6.78143e-08
6.78263e-08
6.78334e-08
6.78459e-08
6.78467e-08
6.78627e-08
6.78628e-08
6.78857e-08
6.78897e-08
6.79199e-08
6.7932e-08
6.79677e-08
6.79801e-08
6.80198e-08
6.80369e-08
6.80822e-08
6.81066e-08
6.81608e-08
6.81918e-08
6.82542e-08
6.82877e-08
6.83617e-08
6.83954e-08
6.84969e-08
6.84978e-08
6.93064e-08
3.49972e-06
3.94863e-08
1.24553e-07
1.18168e-07
1.10352e-07
1.03593e-07
9.82091e-08
9.39727e-08
9.0566e-08
8.78036e-08
8.54997e-08
8.35797e-08
8.19316e-08
8.053e-08
7.93015e-08
7.82413e-08
7.72927e-08
7.64693e-08
7.57207e-08
7.50678e-08
7.44646e-08
7.39365e-08
7.34425e-08
7.30094e-08
7.25973e-08
7.2238e-08
7.18931e-08
7.15927e-08
7.12994e-08
7.1045e-08
7.07983e-08
7.05808e-08
7.03664e-08
7.0183e-08
7.00007e-08
6.98451e-08
6.96877e-08
6.95505e-08
6.94119e-08
6.92958e-08
6.91742e-08
6.90732e-08
6.89673e-08
6.88777e-08
6.87857e-08
6.87086e-08
6.86256e-08
6.85584e-08
6.84891e-08
6.84337e-08
6.83668e-08
6.83183e-08
6.82696e-08
6.82189e-08
6.81664e-08
6.81331e-08
6.80887e-08
6.80588e-08
6.80138e-08
6.79768e-08
6.79378e-08
6.78935e-08
6.78718e-08
6.78581e-08
6.78102e-08
6.77935e-08
6.77668e-08
6.77422e-08
6.77305e-08
6.77357e-08
6.77239e-08
6.77353e-08
6.7742e-08
6.77543e-08
6.77547e-08
6.77703e-08
6.77701e-08
6.77925e-08
6.77963e-08
6.78257e-08
6.78376e-08
6.78727e-08
6.7885e-08
6.79241e-08
6.7941e-08
6.79856e-08
6.80097e-08
6.80632e-08
6.80939e-08
6.81556e-08
6.81888e-08
6.82621e-08
6.82954e-08
6.83963e-08
6.83958e-08
6.92278e-08
3.49384e-06
4.19295e-08
1.24564e-07
1.18263e-07
1.10494e-07
1.03743e-07
9.83495e-08
9.40969e-08
9.06726e-08
8.78934e-08
8.55738e-08
8.36396e-08
8.19787e-08
8.05656e-08
7.93268e-08
7.82574e-08
7.73003e-08
7.64694e-08
7.57139e-08
7.50547e-08
7.44459e-08
7.39126e-08
7.34138e-08
7.29764e-08
7.25602e-08
7.21972e-08
7.18488e-08
7.15453e-08
7.1249e-08
7.09919e-08
7.07425e-08
7.05228e-08
7.0306e-08
7.01205e-08
6.99361e-08
6.97787e-08
6.96195e-08
6.94808e-08
6.93406e-08
6.9223e-08
6.91e-08
6.89977e-08
6.88906e-08
6.87999e-08
6.87067e-08
6.86286e-08
6.85446e-08
6.84765e-08
6.84062e-08
6.835e-08
6.82823e-08
6.82331e-08
6.81837e-08
6.81327e-08
6.80794e-08
6.80454e-08
6.80005e-08
6.79702e-08
6.79246e-08
6.78871e-08
6.78479e-08
6.78033e-08
6.77808e-08
6.77669e-08
6.77192e-08
6.77016e-08
6.76747e-08
6.76497e-08
6.76361e-08
6.7641e-08
6.76285e-08
6.76393e-08
6.76455e-08
6.76576e-08
6.76576e-08
6.76728e-08
6.76723e-08
6.76941e-08
6.76977e-08
6.77263e-08
6.77379e-08
6.77725e-08
6.77846e-08
6.7823e-08
6.78397e-08
6.78836e-08
6.79074e-08
6.79601e-08
6.79904e-08
6.80515e-08
6.80844e-08
6.81569e-08
6.81898e-08
6.82901e-08
6.82882e-08
6.9144e-08
3.48353e-06
4.46123e-08
1.24574e-07
1.18361e-07
1.10642e-07
1.03902e-07
9.84979e-08
9.42286e-08
9.0786e-08
8.7989e-08
8.5653e-08
8.37038e-08
8.20294e-08
8.06042e-08
7.93544e-08
7.82752e-08
7.73093e-08
7.64704e-08
7.57076e-08
7.50418e-08
7.44269e-08
7.38882e-08
7.33842e-08
7.29422e-08
7.25218e-08
7.21549e-08
7.18028e-08
7.14959e-08
7.11964e-08
7.09364e-08
7.06843e-08
7.0462e-08
7.02429e-08
7.00551e-08
6.98685e-08
6.97092e-08
6.95481e-08
6.94077e-08
6.92658e-08
6.91467e-08
6.90222e-08
6.89186e-08
6.88101e-08
6.87182e-08
6.86238e-08
6.85447e-08
6.84595e-08
6.83904e-08
6.8319e-08
6.8262e-08
6.81935e-08
6.81435e-08
6.80934e-08
6.8042e-08
6.79878e-08
6.79531e-08
6.79077e-08
6.7877e-08
6.78306e-08
6.77927e-08
6.77534e-08
6.77084e-08
6.7685e-08
6.76709e-08
6.76233e-08
6.76049e-08
6.75777e-08
6.75524e-08
6.75368e-08
6.75414e-08
6.75281e-08
6.75382e-08
6.75439e-08
6.75558e-08
6.75553e-08
6.75702e-08
6.75693e-08
6.75905e-08
6.75938e-08
6.76216e-08
6.7633e-08
6.76669e-08
6.76788e-08
6.77165e-08
6.77331e-08
6.77762e-08
6.77997e-08
6.78516e-08
6.78815e-08
6.79419e-08
6.79744e-08
6.80462e-08
6.80785e-08
6.81781e-08
6.81748e-08
6.90549e-08
3.46799e-06
4.75442e-08
1.24585e-07
1.18462e-07
1.10797e-07
1.04068e-07
9.86545e-08
9.43679e-08
9.09063e-08
8.80907e-08
8.57374e-08
8.37725e-08
8.20839e-08
8.0646e-08
7.93846e-08
7.82951e-08
7.73197e-08
7.64724e-08
7.57018e-08
7.50291e-08
7.44078e-08
7.38632e-08
7.33539e-08
7.29071e-08
7.2482e-08
7.2111e-08
7.1755e-08
7.14445e-08
7.11417e-08
7.08786e-08
7.06235e-08
7.03987e-08
7.01769e-08
6.99868e-08
6.97979e-08
6.96364e-08
6.94734e-08
6.93312e-08
6.91875e-08
6.90668e-08
6.89406e-08
6.88356e-08
6.87257e-08
6.86326e-08
6.85368e-08
6.84566e-08
6.83703e-08
6.83002e-08
6.82276e-08
6.81698e-08
6.81003e-08
6.80494e-08
6.79986e-08
6.79469e-08