/*--------------------------------*- C++ -*----------------------------------*\
| =========                 |                                                 |
| \\      /  F ield         | OpenFOAM: The Open Source CFD Toolbox           |
|  \\    /   O peration     | Version:  v2012                                 |
|   \\  /    A nd           | Website:  www.openfoam.com                      |
|    \\/     M anipulation  |                                                 |
\*---------------------------------------------------------------------------*/
FoamFile
{
    version     2.0;
    format      ascii;
    class       volScalarField;
    location    "33.5";
    object      epsilon;
}
// * * * * * * * * * * * * * * * * * * * * * * * * * * * * * * * * * * * * * //

dimensions      [0 2 -3 0 0 0 0];


internalField   nonuniform List<scalar> 
209825
(
0.755973
0.639727
0.568567
0.524278
0.495195
0.475076
0.460475
0.449533
0.441047
0.434354
0.428923
0.424489
0.42077
0.417655
0.414973
0.412693
0.410685
0.408959
0.407409
0.406066
0.404841
0.403773
0.402783
0.401923
0.401114
0.400409
0.399738
0.399158
0.3986
0.398114
0.397641
0.39724
0.396844
0.396507
0.396168
0.395891
0.395606
0.395366
0.395121
0.394922
0.394714
0.394557
0.394385
0.394244
0.394094
0.393992
0.393866
0.393766
0.393668
0.393608
0.393501
0.393434
0.393388
0.393351
0.393314
0.393219
0.393247
0.393249
0.393244
0.393331
0.39334
0.39334
0.393408
0.393459
0.393523
0.393622
0.393725
0.393825
0.393897
0.39402
0.394109
0.394256
0.394369
0.394545
0.394658
0.394866
0.394976
0.395211
0.395341
0.395614
0.395765
0.396086
0.396263
0.396633
0.396839
0.397269
0.397512
0.398023
0.398311
0.39895
0.399278
0.400281
0.400569
0.405877
2.98917
549.969
0.755974
0.639725
0.568561
0.524267
0.495182
0.47506
0.460457
0.449513
0.441025
0.434332
0.4289
0.424465
0.420746
0.417631
0.414948
0.412667
0.410659
0.408933
0.407383
0.40604
0.404814
0.403746
0.402756
0.401895
0.401086
0.400382
0.39971
0.39913
0.398572
0.398086
0.397613
0.397212
0.396816
0.396479
0.39614
0.395863
0.395577
0.395337
0.395092
0.394893
0.394685
0.394529
0.394356
0.394215
0.394065
0.393963
0.393838
0.393738
0.393639
0.393579
0.393472
0.393405
0.393359
0.393322
0.393285
0.39319
0.393218
0.39322
0.393215
0.393302
0.393311
0.393311
0.393379
0.39343
0.393494
0.393593
0.393696
0.393796
0.393868
0.393991
0.394079
0.394227
0.39434
0.394516
0.394629
0.394837
0.394947
0.395182
0.395311
0.395585
0.395736
0.396056
0.396233
0.396603
0.396809
0.39724
0.397482
0.397993
0.398281
0.39892
0.399248
0.400251
0.400539
0.405855
2.99421
546.651
0.755977
0.639715
0.568532
0.52422
0.495121
0.474988
0.460378
0.449428
0.440935
0.434238
0.428802
0.424365
0.420643
0.417526
0.414842
0.41256
0.410551
0.408823
0.407272
0.405928
0.404702
0.403633
0.402642
0.401781
0.400972
0.400267
0.399595
0.399014
0.398456
0.39797
0.397496
0.397094
0.396698
0.396361
0.396022
0.395745
0.395459
0.395218
0.394973
0.394774
0.394566
0.394409
0.394236
0.394095
0.393945
0.393843
0.393718
0.393617
0.393519
0.393459
0.393352
0.393284
0.393239
0.393201
0.393165
0.39307
0.393097
0.393099
0.393094
0.39318
0.393189
0.393189
0.393257
0.393308
0.393372
0.393471
0.393574
0.393674
0.393745
0.393868
0.393957
0.394104
0.394217
0.394393
0.394506
0.394714
0.394824
0.395058
0.395188
0.395461
0.395612
0.395932
0.39611
0.396479
0.396685
0.397115
0.397357
0.397868
0.398156
0.398795
0.399123
0.400125
0.400412
0.405745
3.00488
542.736
0.755982
0.639698
0.568481
0.52414
0.495018
0.474867
0.460243
0.449283
0.440782
0.434078
0.428637
0.424196
0.42047
0.41735
0.414663
0.412378
0.410367
0.408638
0.407085
0.40574
0.404512
0.403442
0.40245
0.401588
0.400778
0.400072
0.399399
0.398818
0.398259
0.397772
0.397298
0.396896
0.3965
0.396162
0.395822
0.395545
0.395258
0.395018
0.394772
0.394573
0.394365
0.394207
0.394034
0.393893
0.393743
0.393641
0.393515
0.393414
0.393316
0.393255
0.393148
0.393081
0.393035
0.392997
0.392961
0.392865
0.392892
0.392894
0.392889
0.392975
0.392984
0.392984
0.393052
0.393103
0.393166
0.393265
0.393368
0.393468
0.393539
0.393662
0.39375
0.393897
0.39401
0.394186
0.394299
0.394506
0.394616
0.394851
0.39498
0.395253
0.395404
0.395724
0.395901
0.39627
0.396476
0.396905
0.397147
0.397658
0.397945
0.398583
0.398911
0.399912
0.400198
0.405556
3.02158
539.001
0.755989
0.639674
0.56841
0.524027
0.494871
0.474696
0.460053
0.449078
0.440566
0.433853
0.428404
0.423956
0.420225
0.4171
0.414409
0.412122
0.410108
0.408376
0.406821
0.405473
0.404244
0.403172
0.402179
0.401316
0.400504
0.399797
0.399123
0.398541
0.397981
0.397494
0.397019
0.396616
0.396219
0.395881
0.395541
0.395262
0.394976
0.394735
0.394489
0.394289
0.39408
0.393922
0.393749
0.393608
0.393457
0.393354
0.393228
0.393128
0.393029
0.392968
0.392861
0.392793
0.392747
0.392709
0.392672
0.392577
0.392604
0.392605
0.3926
0.392686
0.392694
0.392694
0.392762
0.392812
0.392876
0.392974
0.393077
0.393177
0.393248
0.39337
0.393458
0.393605
0.393718
0.393893
0.394006
0.394213
0.394323
0.394557
0.394686
0.394959
0.39511
0.395429
0.395605
0.395974
0.396179
0.396609
0.39685
0.39736
0.397647
0.398284
0.398611
0.399612
0.399895
0.405288
3.04478
535.791
0.755999
0.639642
0.568317
0.52388
0.494682
0.474475
0.459807
0.448813
0.440286
0.43356
0.428102
0.423646
0.419908
0.416777
0.414081
0.411789
0.409771
0.408036
0.406478
0.405128
0.403896
0.402823
0.401827
0.400962
0.400149
0.399441
0.398766
0.398182
0.397621
0.397133
0.396657
0.396253
0.395855
0.395516
0.395175
0.394896
0.394609
0.394367
0.394121
0.39392
0.393711
0.393553
0.393379
0.393237
0.393086
0.392983
0.392857
0.392756
0.392657
0.392595
0.392488
0.39242
0.392374
0.392336
0.392298
0.392203
0.392229
0.39223
0.392224
0.39231
0.392318
0.392318
0.392385
0.392436
0.392499
0.392597
0.392699
0.392799
0.39287
0.392992
0.39308
0.393226
0.393339
0.393514
0.393626
0.393833
0.393943
0.394176
0.394305
0.394577
0.394728
0.395046
0.395222
0.39559
0.395795
0.396224
0.396465
0.396973
0.39726
0.397896
0.398222
0.399221
0.399503
0.40494
3.07493
533.271
0.756011
0.639604
0.568204
0.523699
0.494449
0.474202
0.459504
0.448486
0.43994
0.4332
0.427729
0.423263
0.419516
0.416379
0.413677
0.411379
0.409357
0.407617
0.406056
0.404702
0.403468
0.402392
0.401394
0.400527
0.399712
0.399001
0.398325
0.39774
0.397177
0.396688
0.396211
0.395806
0.395406
0.395067
0.394725
0.394445
0.394157
0.393914
0.393667
0.393466
0.393256
0.393097
0.392923
0.392781
0.392629
0.392526
0.392399
0.392298
0.392198
0.392136
0.392029
0.39196
0.391913
0.391875
0.391838
0.391742
0.391767
0.391768
0.391762
0.391847
0.391854
0.391854
0.391922
0.391972
0.392034
0.392132
0.392234
0.392334
0.392404
0.392526
0.392613
0.39276
0.392871
0.393046
0.393158
0.393364
0.393474
0.393707
0.393835
0.394107
0.394257
0.394574
0.394751
0.395118
0.395322
0.395749
0.39599
0.396497
0.396783
0.397417
0.397742
0.398741
0.399019
0.404512
3.11249
531.499
0.756025
0.639558
0.568069
0.523484
0.494171
0.473877
0.459143
0.448097
0.439529
0.432771
0.427286
0.422807
0.419051
0.415904
0.413195
0.410891
0.408863
0.407118
0.405552
0.404195
0.402957
0.401878
0.400878
0.400008
0.39919
0.398478
0.397799
0.397212
0.396649
0.396157
0.395679
0.395273
0.394872
0.394531
0.394188
0.393907
0.393618
0.393375
0.393127
0.392925
0.392714
0.392555
0.39238
0.392237
0.392084
0.39198
0.391853
0.391752
0.391651
0.391589
0.391481
0.391412
0.391365
0.391326
0.391289
0.391193
0.391217
0.391218
0.391211
0.391295
0.391302
0.391302
0.391369
0.391418
0.391481
0.391578
0.39168
0.391779
0.391849
0.39197
0.392057
0.392203
0.392314
0.392489
0.3926
0.392806
0.392915
0.393147
0.393276
0.393546
0.393696
0.394012
0.394188
0.394554
0.394758
0.395184
0.395424
0.39593
0.396215
0.396847
0.397171
0.398168
0.398443
0.404002
3.15792
530.465
0.756041
0.639506
0.567912
0.523235
0.49385
0.4735
0.458724
0.447646
0.439051
0.432272
0.42677
0.422278
0.418509
0.415353
0.412634
0.410323
0.408288
0.406538
0.404967
0.403606
0.402364
0.401281
0.400277
0.399404
0.398584
0.397869
0.397188
0.396599
0.396034
0.39554
0.39506
0.394653
0.394251
0.393908
0.393564
0.393282
0.392992
0.392748
0.392498
0.392296
0.392084
0.391924
0.391748
0.391604
0.391451
0.391346
0.391218
0.391116
0.391015
0.390953
0.390845
0.390775
0.390727
0.390688
0.39065
0.390554
0.390577
0.390577
0.39057
0.390653
0.390659
0.390659
0.390726
0.390775
0.390837
0.390934
0.391035
0.391134
0.391203
0.391324
0.391411
0.391556
0.391667
0.391841
0.391951
0.392157
0.392265
0.392497
0.392625
0.392894
0.393043
0.393359
0.393534
0.393899
0.394102
0.394527
0.394766
0.39527
0.395554
0.396184
0.396507
0.397502
0.397772
0.403411
3.21168
530.108
0.75606
0.639446
0.567735
0.522951
0.493483
0.473071
0.458246
0.44713
0.438506
0.431703
0.426182
0.421673
0.417891
0.414723
0.411995
0.409675
0.407633
0.405876
0.404299
0.402933
0.401686
0.400599
0.399591
0.398715
0.397892
0.397174
0.396491
0.395899
0.395331
0.394836
0.394354
0.393944
0.393541
0.393197
0.392851
0.392568
0.392276
0.392031
0.39178
0.391577
0.391364
0.391203
0.391026
0.390882
0.390728
0.390622
0.390494
0.390391
0.390289
0.390226
0.390118
0.390047
0.389999
0.389959
0.389921
0.389824
0.389846
0.389846
0.389837
0.38992
0.389926
0.389926
0.389992
0.39004
0.390102
0.390198
0.390298
0.390397
0.390465
0.390586
0.390672
0.390817
0.390927
0.3911
0.39121
0.391415
0.391523
0.391754
0.391881
0.392149
0.392298
0.392612
0.392787
0.39315
0.393353
0.393776
0.394014
0.394516
0.394799
0.395427
0.395748
0.396741
0.397007
0.402736
3.27417
530.33
0.756081
0.63938
0.567536
0.522633
0.493071
0.472588
0.457709
0.44655
0.437893
0.431063
0.425519
0.420992
0.417195
0.414014
0.411275
0.408945
0.406894
0.40513
0.403547
0.402175
0.400922
0.399831
0.398819
0.397939
0.397112
0.396391
0.395705
0.395111
0.39454
0.394043
0.393558
0.393147
0.392741
0.392396
0.392048
0.391763
0.39147
0.391224
0.390972
0.390767
0.390553
0.390391
0.390213
0.390068
0.389913
0.389807
0.389677
0.389574
0.389471
0.389408
0.389299
0.389228
0.389178
0.389138
0.389099
0.389003
0.389023
0.389023
0.389013
0.389094
0.389099
0.389099
0.389165
0.389213
0.389274
0.389369
0.389468
0.389567
0.389635
0.389755
0.38984
0.389984
0.390093
0.390266
0.390375
0.39058
0.390687
0.390917
0.391043
0.391311
0.391459
0.391772
0.391945
0.392307
0.392509
0.39293
0.393167
0.393668
0.393949
0.394575
0.394893
0.395884
0.396145
0.401978
3.34579
531.01
0.756104
0.639307
0.567317
0.52228
0.492614
0.472051
0.457111
0.445906
0.437211
0.430351
0.424782
0.420235
0.41642
0.413225
0.410473
0.408133
0.406073
0.4043
0.40271
0.401331
0.400073
0.398976
0.397959
0.397075
0.396244
0.39552
0.39483
0.394233
0.393659
0.39316
0.392673
0.392259
0.391851
0.391504
0.391154
0.390868
0.390573
0.390325
0.390072
0.389866
0.389651
0.389487
0.389308
0.389162
0.389006
0.388899
0.388768
0.388664
0.38856
0.388496
0.388387
0.388315
0.388265
0.388224
0.388185
0.388088
0.388106
0.388106
0.388094
0.388174
0.388179
0.388179
0.388245
0.388291
0.388352
0.388446
0.388545
0.388643
0.38871
0.388829
0.388914
0.389057
0.389165
0.389338
0.389446
0.389649
0.389756
0.389985
0.390111
0.390377
0.390524
0.390835
0.391008
0.391369
0.391569
0.391989
0.392225
0.392722
0.393003
0.393625
0.393942
0.39493
0.395185
0.401135
3.42688
532.015
0.75613
0.639228
0.567076
0.521893
0.492111
0.471461
0.456453
0.445195
0.436459
0.429566
0.42397
0.4194
0.415566
0.412355
0.409589
0.407237
0.405166
0.403385
0.401786
0.4004
0.399136
0.398033
0.397011
0.396122
0.395287
0.394559
0.393865
0.393265
0.392688
0.392185
0.391696
0.39128
0.390869
0.39052
0.390168
0.38988
0.389583
0.389334
0.389079
0.388872
0.388655
0.38849
0.38831
0.388163
0.388005
0.387897
0.387766
0.387661
0.387556
0.387491
0.387381
0.387308
0.387257
0.387215
0.387176
0.387078
0.387095
0.387094
0.387081
0.38716
0.387164
0.387164
0.387229
0.387274
0.387335
0.387427
0.387525
0.387624
0.387689
0.387808
0.387892
0.388035
0.388142
0.388313
0.388421
0.388623
0.388729
0.388956
0.389082
0.389346
0.389493
0.389803
0.389975
0.390333
0.390533
0.39095
0.391185
0.39168
0.391959
0.392578
0.392892
0.393877
0.394127
0.400208
3.51773
533.201
0.756158
0.639143
0.566814
0.521471
0.491563
0.470816
0.455735
0.444419
0.435638
0.428708
0.423082
0.418487
0.414632
0.411403
0.408622
0.406257
0.404175
0.402383
0.400776
0.399382
0.39811
0.397001
0.395973
0.395079
0.394239
0.393507
0.392809
0.392205
0.391625
0.391119
0.390627
0.390208
0.389795
0.389443
0.389089
0.388799
0.3885
0.388249
0.387992
0.387783
0.387565
0.387399
0.387217
0.387069
0.38691
0.3868
0.386668
0.386562
0.386456
0.38639
0.38628
0.386206
0.386154
0.386111
0.386071
0.385974
0.385988
0.385987
0.385973
0.38605
0.386053
0.386053
0.386117
0.386162
0.386222
0.386313
0.38641
0.386508
0.386572
0.38669
0.386773
0.386915
0.387021
0.387192
0.387298
0.3875
0.387605
0.387831
0.387956
0.388219
0.388364
0.388672
0.388843
0.389199
0.389398
0.389813
0.390046
0.390539
0.390816
0.391431
0.391743
0.392726
0.392968
0.399194
3.61852
534.425
0.756189
0.639051
0.566532
0.521015
0.490969
0.470117
0.454955
0.443577
0.434746
0.427775
0.422117
0.417495
0.413618
0.410369
0.407572
0.405192
0.403097
0.401295
0.399677
0.398275
0.396995
0.395879
0.394846
0.393945
0.3931
0.392363
0.391661
0.391053
0.390469
0.38996
0.389464
0.389042
0.388627
0.388273
0.387916
0.387623
0.387323
0.38707
0.386811
0.3866
0.38638
0.386212
0.386029
0.385879
0.385719
0.385608
0.385475
0.385368
0.385261
0.385194
0.385083
0.385008
0.384955
0.384911
0.384871
0.384772
0.384784
0.384783
0.384767
0.384843
0.384846
0.384845
0.384908
0.384952
0.385011
0.385101
0.385197
0.385295
0.385358
0.385475
0.385557
0.385698
0.385803
0.385972
0.386078
0.386278
0.386383
0.386607
0.386731
0.386992
0.387137
0.387443
0.387613
0.387967
0.388164
0.388576
0.388808
0.389298
0.389573
0.390185
0.390494
0.391473
0.391709
0.398093
3.72938
535.551
0.756223
0.638954
0.566229
0.520524
0.49033
0.469363
0.454114
0.442668
0.433783
0.426769
0.421075
0.416423
0.412521
0.409252
0.406436
0.404041
0.401933
0.400118
0.39849
0.397078
0.395791
0.394667
0.393626
0.39272
0.391869
0.391127
0.39042
0.389808
0.38922
0.388707
0.388208
0.387783
0.387364
0.387007
0.386648
0.386353
0.38605
0.385794
0.385534
0.385321
0.385099
0.384929
0.384744
0.384593
0.384432
0.384319
0.384185
0.384077
0.383968
0.3839
0.383788
0.383713
0.383658
0.383613
0.383572
0.383474
0.383484
0.383481
0.383464
0.383537
0.38354
0.383539
0.383601
0.383643
0.383702
0.38379
0.383885
0.383983
0.384044
0.384161
0.384242
0.384382
0.384485
0.384654
0.384758
0.384957
0.385062
0.385284
0.385407
0.385666
0.38581
0.386114
0.386282
0.386634
0.38683
0.38724
0.38747
0.387956
0.388229
0.388837
0.389144
0.39012
0.390348
0.396903
3.85026
536.449
0.756259
0.638851
0.565906
0.519999
0.489644
0.468555
0.453212
0.441692
0.432748
0.425688
0.419955
0.415272
0.411343
0.408051
0.405216
0.402804
0.400681
0.398854
0.397214
0.395792
0.394495
0.393363
0.392315
0.391402
0.390545
0.389797
0.389086
0.388468
0.387876
0.387359
0.386856
0.386428
0.386006
0.385646
0.385284
0.384986
0.38468
0.384423
0.38416
0.383945
0.383721
0.383549
0.383363
0.38321
0.383047
0.382933
0.382797
0.382688
0.382578
0.382508
0.382396
0.382319
0.382263
0.382217
0.382176
0.382077
0.382084
0.382081
0.382062
0.382133
0.382135
0.382133
0.382196
0.382236
0.382294
0.382381
0.382475
0.382572
0.382632
0.382747
0.382827
0.382966
0.383068
0.383236
0.383339
0.383536
0.38364
0.383861
0.383983
0.38424
0.384383
0.384684
0.384851
0.385201
0.385395
0.385802
0.386031
0.386513
0.386784
0.387388
0.387691
0.388663
0.388884
0.395625
3.98102
537.004
0.756297
0.638742
0.565563
0.51944
0.488914
0.467693
0.452248
0.440649
0.431642
0.424531
0.418758
0.41404
0.410082
0.406766
0.40391
0.401479
0.399341
0.397499
0.395848
0.394415
0.393108
0.391968
0.390911
0.389991
0.389128
0.388374
0.387656
0.387034
0.386437
0.385916
0.385409
0.384977
0.384551
0.384188
0.383823
0.383522
0.383214
0.382954
0.382688
0.382472
0.382245
0.382072
0.381883
0.381729
0.381564
0.381448
0.381311
0.3812
0.381088
0.381018
0.380905
0.380827
0.380769
0.380722
0.38068
0.380581
0.380586
0.380582
0.38056
0.38063
0.380631
0.380629
0.38069
0.380728
0.380786
0.380871
0.380964
0.38106
0.381118
0.381233
0.381312
0.38145
0.38155
0.381717
0.381818
0.382015
0.382117
0.382336
0.382457
0.382712
0.382854
0.383152
0.383319
0.383665
0.383858
0.384262
0.384489
0.384967
0.385236
0.385835
0.386135
0.387104
0.387317
0.394257
4.12132
537.112
0.756338
0.638629
0.565201
0.518848
0.488138
0.466776
0.451222
0.439538
0.430465
0.423299
0.417481
0.412727
0.408738
0.405396
0.402517
0.400067
0.397912
0.396056
0.394391
0.392946
0.391629
0.390479
0.389414
0.388487
0.387616
0.386856
0.386132
0.385505
0.384902
0.384377
0.383866
0.383429
0.383
0.382633
0.382265
0.381961
0.38165
0.381387
0.381119
0.3809
0.380671
0.380495
0.380305
0.380149
0.379982
0.379864
0.379725
0.379614
0.3795
0.379428
0.379314
0.379235
0.379175
0.379127
0.379084
0.378985
0.378987
0.378982
0.378958
0.379025
0.379026
0.379023
0.379083
0.37912
0.379177
0.37926
0.379352
0.379448
0.379504
0.379618
0.379695
0.379832
0.379931
0.380096
0.380197
0.380391
0.380493
0.38071
0.38083
0.381083
0.381223
0.381519
0.381684
0.382027
0.382219
0.382619
0.382844
0.383318
0.383585
0.384179
0.384476
0.385441
0.385645
0.392797
4.27062
536.689
0.756382
0.63851
0.56482
0.518222
0.487317
0.465804
0.450135
0.43836
0.429215
0.421992
0.416126
0.411332
0.407311
0.40394
0.401038
0.398567
0.396394
0.394522
0.392843
0.391385
0.390057
0.388897
0.387823
0.386887
0.386009
0.385242
0.384512
0.383879
0.383271
0.382741
0.382225
0.381784
0.381351
0.380981
0.380609
0.380301
0.379987
0.379722
0.379451
0.379229
0.378998
0.37882
0.378627
0.378469
0.3783
0.378181
0.37804
0.377927
0.377811
0.377738
0.377623
0.377542
0.377481
0.377431
0.377388
0.377289
0.377288
0.377282
0.377255
0.37732
0.37732
0.377317
0.377376
0.377411
0.377467
0.377548
0.377638
0.377734
0.377788
0.3779
0.377977
0.378112
0.37821
0.378373
0.378472
0.378665
0.378766
0.378981
0.379099
0.37935
0.379489
0.379782
0.379945
0.380286
0.380476
0.380872
0.381095
0.381565
0.38183
0.382419
0.382712
0.383672
0.383868
0.391244
4.42818
535.657
0.756428
0.638388
0.564421
0.517564
0.486451
0.464779
0.448986
0.437115
0.427893
0.420608
0.414692
0.409857
0.4058
0.4024
0.399472
0.396979
0.394786
0.392897
0.391203
0.389732
0.388392
0.387222
0.386138
0.385193
0.384307
0.383533
0.382796
0.382157
0.381543
0.381008
0.380487
0.380042
0.379604
0.37923
0.378854
0.378543
0.378226
0.377957
0.377683
0.377459
0.377225
0.377044
0.376849
0.37669
0.376518
0.376397
0.376254
0.37614
0.376022
0.375947
0.375832
0.375749
0.375686
0.375635
0.375591
0.375492
0.375488
0.37548
0.375451
0.375513
0.375513
0.375508
0.375566
0.375599
0.375655
0.375733
0.375822
0.375917
0.375969
0.37608
0.376156
0.376289
0.376385
0.376548
0.376645
0.376836
0.376936
0.377149
0.377266
0.377514
0.377651
0.377942
0.378103
0.37844
0.378628
0.379021
0.379242
0.379708
0.379969
0.380553
0.380842
0.381799
0.381985
0.389597
4.59297
533.955
0.756477
0.638261
0.564003
0.516874
0.485541
0.4637
0.447776
0.435803
0.4265
0.419149
0.41318
0.408299
0.404205
0.400773
0.397818
0.395302
0.393088
0.391181
0.389471
0.387987
0.386634
0.385452
0.384358
0.383404
0.382509
0.381727
0.380984
0.380338
0.379718
0.379177
0.378651
0.378201
0.377758
0.37738
0.377
0.376686
0.376365
0.376093
0.375816
0.375589
0.375352
0.375169
0.374971
0.37481
0.374635
0.374512
0.374368
0.374251
0.374132
0.374055
0.373938
0.373854
0.37379
0.373736
0.373692
0.373593
0.373586
0.373577
0.373545
0.373603
0.373603
0.373598
0.373654
0.373685
0.37374
0.373816
0.373903
0.373998
0.374048
0.374158
0.374231
0.374364
0.374458
0.374618
0.374714
0.374904
0.375002
0.375213
0.375329
0.375574
0.37571
0.375997
0.376157
0.376491
0.376677
0.377065
0.377284
0.377745
0.378004
0.378582
0.378867
0.379819
0.379997
0.387854
4.76372
531.539
0.756528
0.63813
0.563568
0.516152
0.484588
0.462567
0.446505
0.434424
0.425034
0.417614
0.411588
0.40666
0.402527
0.399061
0.396077
0.393536
0.391301
0.389375
0.387648
0.386148
0.384782
0.383588
0.382483
0.381519
0.380615
0.379825
0.379074
0.378421
0.377795
0.377248
0.376716
0.376261
0.375814
0.375431
0.375047
0.374729
0.374404
0.374129
0.373849
0.373619
0.373379
0.373193
0.372992
0.372828
0.372652
0.372526
0.37238
0.372262
0.37214
0.372061
0.371944
0.371857
0.371791
0.371736
0.37169
0.371592
0.371581
0.371571
0.371536
0.371591
0.371591
0.371584
0.371639
0.371668
0.371722
0.371796
0.371882
0.371975
0.372023
0.372131
0.372204
0.372334
0.372427
0.372586
0.37268
0.372867
0.372964
0.373172
0.373287
0.373529
0.373664
0.373947
0.374106
0.374436
0.37462
0.375004
0.375221
0.375677
0.375933
0.376505
0.376786
0.377734
0.377902
0.386013
4.93884
528.372
0.756582
0.637996
0.563117
0.515399
0.483592
0.461382
0.445173
0.432977
0.423497
0.416004
0.409917
0.40494
0.400764
0.397263
0.394249
0.391681
0.389423
0.387477
0.385732
0.384217
0.382836
0.38163
0.380513
0.379539
0.378625
0.377827
0.377067
0.376407
0.375774
0.375221
0.374683
0.374223
0.37377
0.373383
0.372994
0.372672
0.372343
0.372065
0.371781
0.371548
0.371304
0.371115
0.370912
0.370746
0.370567
0.370439
0.37029
0.37017
0.370046
0.369966
0.369847
0.369759
0.36969
0.369633
0.369587
0.369488
0.369474
0.369462
0.369425
0.369476
0.369476
0.369468
0.369521
0.369547
0.369601
0.369672
0.369756
0.369849
0.369894
0.370001
0.370072
0.370201
0.370291
0.370448
0.370541
0.370726
0.370822
0.371027
0.371141
0.37138
0.371513
0.371793
0.371949
0.372276
0.372458
0.372838
0.373052
0.373503
0.373756
0.374322
0.374598
0.375541
0.3757
0.384072
5.11644
524.428
0.756639
0.637859
0.562649
0.514616
0.482553
0.460144
0.443782
0.431465
0.421889
0.414318
0.408168
0.403138
0.398918
0.39538
0.392333
0.389738
0.387455
0.385488
0.383724
0.382192
0.380796
0.379576
0.378448
0.377463
0.376539
0.375731
0.374963
0.374295
0.373655
0.373096
0.372552
0.372086
0.371627
0.371235
0.370842
0.370515
0.370182
0.3699
0.369612
0.369376
0.369129
0.368937
0.368731
0.368562
0.36838
0.368249
0.368099
0.367977
0.36785
0.367768
0.367647
0.367558
0.367487
0.367428
0.36738
0.367281
0.367264
0.36725
0.36721
0.367258
0.367257
0.367248
0.367299
0.367323
0.367376
0.367445
0.367527
0.367618
0.367661
0.367767
0.367836
0.367963
0.368052
0.368207
0.368298
0.36848
0.368575
0.368778
0.368889
0.369126
0.369257
0.369533
0.369688
0.37001
0.37019
0.370566
0.370777
0.371223
0.371472
0.372032
0.372304
0.373241
0.373392
0.382029
5.29427
519.686
0.756698
0.637719
0.562166
0.513804
0.481472
0.458855
0.442331
0.429887
0.42021
0.412557
0.40634
0.401254
0.396988
0.39341
0.390329
0.387705
0.385397
0.383407
0.381623
0.380074
0.378662
0.377429
0.376287
0.37529
0.374356
0.373539
0.372762
0.372086
0.371438
0.370872
0.370321
0.369849
0.369385
0.368988
0.368589
0.368258
0.36792
0.367635
0.367343
0.367103
0.366853
0.366657
0.366448
0.366277
0.366092
0.365959
0.365805
0.365681
0.365552
0.365468
0.365346
0.365254
0.365181
0.36512
0.365071
0.364972
0.364951
0.364936
0.364893
0.364936
0.364936
0.364925
0.364974
0.364995
0.365048
0.365113
0.365194
0.365284
0.365324
0.365428
0.365496
0.365621
0.365707
0.365861
0.36595
0.36613
0.366223
0.366423
0.366533
0.366766
0.366895
0.367168
0.367321
0.367639
0.367816
0.368187
0.368396
0.368836
0.369082
0.369636
0.369903
0.370835
0.370976
0.379883
5.46978
514.129
0.75676
0.637577
0.561668
0.512963
0.480351
0.457515
0.440821
0.428244
0.41846
0.410721
0.404434
0.39929
0.394975
0.391356
0.388239
0.385584
0.383249
0.381236
0.379431
0.377863
0.376435
0.375186
0.374031
0.373022
0.372077
0.37125
0.370463
0.369779
0.369123
0.36855
0.367992
0.367514
0.367044
0.366641
0.366237
0.365901
0.365559
0.365269
0.364973
0.36473
0.364476
0.364277
0.364064
0.36389
0.363702
0.363566
0.36341
0.363284
0.363152
0.363065
0.362942
0.362848
0.362773
0.36271
0.362659
0.36256
0.362536
0.362519
0.362472
0.362511
0.362511
0.362499
0.362546
0.362563
0.362615
0.362678
0.362757
0.362845
0.362883
0.362985
0.363051
0.363175
0.363259
0.36341
0.363497
0.363674
0.363766
0.363963
0.364072
0.364302
0.364429
0.364698
0.364848
0.365162
0.365337
0.365703
0.365909
0.366343
0.366586
0.367133
0.367395
0.368321
0.368453
0.377629
5.64006
507.739
0.756824
0.637433
0.561157
0.512095
0.479191
0.456125
0.439253
0.426536
0.416641
0.408812
0.402451
0.397246
0.392879
0.389216
0.386062
0.383375
0.381011
0.378973
0.377147
0.375559
0.374114
0.37285
0.371681
0.370659
0.369702
0.368864
0.368068
0.367374
0.36671
0.366129
0.365564
0.36508
0.364603
0.364195
0.363785
0.363444
0.363097
0.362803
0.362503
0.362256
0.361997
0.361795
0.361579
0.361402
0.36121
0.361071
0.360913
0.360784
0.360649
0.360561
0.360436
0.360339
0.360262
0.360196
0.360145
0.360045
0.360017
0.359998
0.359949
0.359984
0.359983
0.359969
0.360013
0.360028
0.360079
0.360139
0.360216
0.360303
0.360337
0.360438
0.360502
0.360624
0.360705
0.360855
0.360939
0.361114
0.361205
0.361399
0.361505
0.361732
0.361857
0.362122
0.36227
0.362579
0.362752
0.363112
0.363316
0.363744
0.363983
0.364523
0.36478
0.3657
0.365824
0.375267
5.80192
500.498
0.75689
0.637288
0.560632
0.5112
0.477991
0.454687
0.437628
0.424765
0.414753
0.40683
0.400391
0.395122
0.390701
0.386992
0.383799
0.381078
0.378685
0.376621
0.374771
0.373163
0.371699
0.370419
0.369235
0.3682
0.367231
0.366382
0.365576
0.364873
0.3642
0.363611
0.363039
0.362547
0.362064
0.36165
0.361234
0.360888
0.360535
0.360237
0.359932
0.359681
0.359419
0.359212
0.358992
0.358812
0.358618
0.358475
0.358314
0.358183
0.358045
0.357954
0.357827
0.357729
0.357648
0.357581
0.357528
0.357427
0.357396
0.357375
0.357323
0.357353
0.357353
0.357336
0.357378
0.35739
0.35744
0.357496
0.357571
0.357657
0.357688
0.357788
0.357849
0.357969
0.358048
0.358195
0.358278
0.35845
0.358539
0.35873
0.358834
0.359057
0.35918
0.359441
0.359586
0.359891
0.360061
0.360416
0.360617
0.361039
0.361274
0.361807
0.362059
0.362973
0.363088
0.372793
5.95187
492.385
0.756959
0.637142
0.560096
0.51028
0.476754
0.453201
0.435947
0.422931
0.412797
0.404775
0.398255
0.392919
0.388441
0.384685
0.381451
0.378694
0.376269
0.374178
0.372305
0.370676
0.369193
0.367895
0.366696
0.365647
0.364665
0.363804
0.362987
0.362274
0.361592
0.360995
0.360415
0.359916
0.359426
0.359006
0.358584
0.358232
0.357874
0.357571
0.357262
0.357006
0.356739
0.356529
0.356305
0.356122
0.355924
0.355779
0.355614
0.355481
0.35534
0.355246
0.355117
0.355017
0.354933
0.354863
0.354808
0.354707
0.354672
0.35465
0.354594
0.354621
0.354619
0.354601
0.35464
0.354648
0.354698
0.354751
0.354823
0.354907
0.354936
0.355033
0.355092
0.35521
0.355287
0.355431
0.355512
0.355681
0.355768
0.355956
0.356059
0.356277
0.356398
0.356655
0.356798
0.357098
0.357265
0.357615
0.357812
0.358228
0.35846
0.358985
0.359231
0.360138
0.360245
0.370204
6.0862
483.376
0.75703
0.636996
0.559548
0.509336
0.475481
0.451668
0.434212
0.421035
0.410774
0.402648
0.396044
0.390637
0.386101
0.382294
0.379017
0.376223
0.373766
0.371647
0.369748
0.368097
0.366594
0.365279
0.364063
0.363
0.362004
0.361131
0.360303
0.35958
0.358888
0.358283
0.357694
0.357187
0.35669
0.356263
0.355835
0.355478
0.355114
0.354806
0.354492
0.354232
0.353961
0.353746
0.353518
0.353332
0.35313
0.352981
0.352813
0.352678
0.352533
0.352437
0.352306
0.352203
0.352117
0.352044
0.351987
0.351886
0.351847
0.351823
0.351764
0.351786
0.351784
0.351763
0.351799
0.351804
0.351853
0.351902
0.351973
0.352054
0.35208
0.352175
0.352232
0.352348
0.352422
0.352564
0.352642
0.352808
0.352894
0.353078
0.353179
0.353394
0.353513
0.353764
0.353905
0.3542
0.354365
0.354709
0.354902
0.355311
0.35554
0.356057
0.356298
0.357198
0.357297
0.367497
6.20103
473.44
0.757104
0.63685
0.558991
0.508369
0.474172
0.45009
0.432423
0.419079
0.408685
0.400452
0.393759
0.388279
0.38368
0.379822
0.376499
0.373667
0.371176
0.369027
0.367102
0.365428
0.363904
0.36257
0.361338
0.360259
0.359249
0.358364
0.357524
0.35679
0.356088
0.355474
0.354876
0.354362
0.353857
0.353424
0.352989
0.352625
0.352256
0.351943
0.351623
0.351359
0.351083
0.350864
0.350632
0.350442
0.350236
0.350084
0.349913
0.349774
0.349627
0.349527
0.349395
0.349289
0.3492
0.349124
0.349065
0.348963
0.34892
0.348894
0.348833
0.34885
0.348847
0.348824
0.348856
0.348859
0.348906
0.348951
0.34902
0.349099
0.349121
0.349215
0.34927
0.349384
0.349455
0.349594
0.34967
0.349833
0.349916
0.350097
0.350196
0.350407
0.350523
0.35077
0.350909
0.351198
0.35136
0.351698
0.351888
0.352291
0.352515
0.353024
0.35326
0.354152
0.354243
0.364669
6.29243
462.545
0.757179
0.636705
0.558425
0.50738
0.47283
0.448468
0.430581
0.417064
0.406531
0.398186
0.391401
0.385844
0.381181
0.377268
0.373899
0.371026
0.3685
0.36632
0.364368
0.362669
0.361123
0.35977
0.35852
0.357425
0.356401
0.355503
0.35465
0.353905
0.353193
0.352569
0.351963
0.35144
0.350927
0.350487
0.350046
0.349675
0.3493
0.348982
0.348656
0.348387
0.348106
0.347883
0.347647
0.347453
0.347243
0.347087
0.346913
0.346772
0.34662
0.346517
0.346383
0.346275
0.346182
0.346104
0.346043
0.345941
0.345893
0.345865
0.345801
0.345814
0.34581
0.345784
0.345812
0.345812
0.345858
0.345899
0.345965
0.346042
0.346061
0.346153
0.346205
0.346317
0.346385
0.346521
0.346595
0.346754
0.346836
0.347014
0.34711
0.347317
0.347431
0.347673
0.347809
0.348093
0.348251
0.348584
0.348771
0.349166
0.349386
0.349887
0.350117
0.351002
0.351085
0.361718
6.35647
450.658
0.757257
0.636561
0.55785
0.506372
0.471457
0.446804
0.428689
0.414992
0.404314
0.395852
0.388971
0.383334
0.378604
0.374634
0.371217
0.368302
0.365739
0.363527
0.361546
0.359822
0.358253
0.35688
0.355612
0.3545
0.353461
0.352549
0.351684
0.350927
0.350204
0.349571
0.348955
0.348424
0.347903
0.347455
0.347006
0.34663
0.346248
0.345924
0.345593
0.345319
0.345033
0.344805
0.344564
0.344366
0.344153
0.343992
0.343814
0.34367
0.343515
0.343409
0.343272
0.343161
0.343066
0.342985
0.342921
0.342818
0.342766
0.342737
0.34267
0.342678
0.342672
0.342644
0.342667
0.342666
0.342709
0.342746
0.34281
0.342884
0.342901
0.34299
0.343039
0.343149
0.343214
0.343348
0.343419
0.343575
0.343655
0.343828
0.343923
0.344125
0.344236
0.344474
0.344607
0.344885
0.345041
0.345367
0.34555
0.345938
0.346154
0.346647
0.346871
0.347747
0.347824
0.358641
6.38932
437.744
0.757336
0.636418
0.557269
0.505344
0.470053
0.4451
0.426748
0.412863
0.402035
0.393451
0.386471
0.380751
0.375951
0.371922
0.368454
0.365495
0.362894
0.360648
0.358638
0.356888