/*--------------------------------*- C++ -*----------------------------------*\
| =========                 |                                                 |
| \\      /  F ield         | OpenFOAM: The Open Source CFD Toolbox           |
|  \\    /   O peration     | Version:  v2012                                 |
|   \\  /    A nd           | Website:  www.openfoam.com                      |
|    \\/     M anipulation  |                                                 |
\*---------------------------------------------------------------------------*/
FoamFile
{
    version     2.0;
    format      ascii;
    class       volScalarField;
    location    "33.5";
    object      k;
}
// * * * * * * * * * * * * * * * * * * * * * * * * * * * * * * * * * * * * * //

dimensions      [0 2 -2 0 0 0 0];


internalField   nonuniform List<scalar> 
209825
(
0.00102466
0.000930509
0.000852622
0.000790598
0.000741923
0.000703751
0.000673299
0.000648744
0.00062848
0.000611655
0.000597358
0.000585218
0.00057466
0.000565554
0.000557474
0.00055043
0.000544078
0.000538501
0.0005334
0.0005289
0.000524728
0.00052104
0.000517575
0.00051451
0.000511599
0.000509027
0.00050656
0.000504377
0.000502267
0.000500413
0.000498591
0.000496997
0.000495419
0.00049405
0.000492679
0.000491502
0.000490301
0.000489275
0.00048822
0.000487326
0.000486396
0.00048562
0.000484799
0.000484123
0.000483392
0.000482803
0.000482155
0.000481639
0.000481069
0.000480621
0.000480113
0.000479728
0.000479285
0.000478947
0.000478552
0.000478263
0.000477925
0.000477669
0.000477371
0.000477166
0.000476898
0.000476718
0.0004765
0.000476353
0.000476139
0.000476026
0.000475842
0.00047575
0.000475578
0.000475497
0.00047534
0.000475285
0.000475176
0.000475169
0.000475147
0.000475195
0.000475195
0.000475287
0.000475304
0.000475417
0.000475467
0.000475613
0.000475695
0.000475888
0.000475996
0.000476235
0.000476369
0.000476664
0.000476825
0.000477209
0.000477384
0.00047799
0.000478088
0.00048309
0.0105847
0.0114454
0.00102466
0.000930509
0.000852623
0.000790598
0.000741921
0.000703748
0.000673294
0.000648738
0.000628472
0.000611646
0.000597348
0.000585207
0.000574648
0.000565542
0.000557461
0.000550416
0.000544063
0.000538486
0.000533385
0.000528884
0.000524712
0.000521024
0.000517559
0.000514493
0.000511582
0.000509009
0.000506542
0.000504359
0.000502249
0.000500395
0.000498572
0.000496978
0.0004954
0.000494031
0.00049266
0.000491483
0.000490281
0.000489256
0.0004882
0.000487307
0.000486377
0.0004856
0.000484779
0.000484103
0.000483372
0.000482783
0.000482135
0.000481619
0.000481049
0.000480601
0.000480093
0.000479707
0.000479265
0.000478926
0.000478531
0.000478242
0.000477905
0.000477649
0.00047735
0.000477145
0.000476877
0.000476697
0.000476479
0.000476332
0.000476118
0.000476005
0.000475821
0.000475729
0.000475557
0.000475476
0.000475318
0.000475264
0.000475155
0.000475148
0.000475126
0.000475174
0.000475174
0.000475265
0.000475282
0.000475396
0.000475445
0.000475591
0.000475673
0.000475866
0.000475974
0.000476213
0.000476347
0.000476642
0.000476803
0.000477187
0.000477362
0.000477968
0.000478065
0.000483075
0.0105948
0.0114576
0.00102466
0.000930512
0.000852624
0.000790594
0.00074191
0.00070373
0.000673269
0.000648707
0.000628435
0.000611605
0.000597303
0.000585158
0.000574596
0.000565487
0.000557403
0.000550356
0.000544001
0.000538423
0.00053332
0.000528817
0.000524643
0.000520954
0.000517488
0.000514421
0.000511509
0.000508936
0.000506468
0.000504284
0.000502173
0.000500318
0.000498495
0.0004969
0.000495322
0.000493952
0.00049258
0.000491403
0.000490201
0.000489175
0.000488119
0.000487225
0.000486295
0.000485518
0.000484696
0.00048402
0.000483289
0.0004827
0.000482051
0.000481535
0.000480964
0.000480516
0.000480008
0.000479622
0.000479179
0.000478841
0.000478446
0.000478156
0.000477819
0.000477563
0.000477263
0.000477059
0.00047679
0.000476611
0.000476392
0.000476245
0.000476031
0.000475918
0.000475734
0.000475642
0.000475469
0.000475388
0.000475231
0.000475176
0.000475067
0.00047506
0.000475037
0.000475085
0.000475085
0.000475176
0.000475193
0.000475306
0.000475355
0.000475501
0.000475584
0.000475776
0.000475884
0.000476123
0.000476256
0.000476551
0.000476712
0.000477096
0.00047727
0.000477876
0.000477973
0.000482998
0.0106171
0.0114836
0.00102466
0.000930516
0.000852625
0.000790587
0.000741892
0.000703699
0.000673227
0.000648654
0.000628374
0.000611535
0.000597226
0.000585075
0.000574508
0.000565394
0.000557306
0.000550255
0.000543897
0.000538315
0.000533209
0.000528704
0.000524528
0.000520837
0.000517369
0.0005143
0.000511386
0.000508811
0.000506342
0.000504157
0.000502045
0.000500189
0.000498364
0.000496769
0.00049519
0.000493819
0.000492446
0.000491268
0.000490065
0.000489039
0.000487982
0.000487088
0.000486156
0.00048538
0.000484557
0.000483881
0.000483148
0.000482559
0.00048191
0.000481393
0.000480823
0.000480374
0.000479865
0.00047948
0.000479036
0.000478697
0.000478302
0.000478012
0.000477674
0.000477418
0.000477118
0.000476914
0.000476645
0.000476465
0.000476246
0.000476099
0.000475884
0.000475771
0.000475587
0.000475495
0.000475322
0.000475241
0.000475083
0.000475028
0.000474919
0.000474911
0.000474888
0.000474936
0.000474935
0.000475026
0.000475043
0.000475156
0.000475205
0.000475351
0.000475433
0.000475625
0.000475733
0.000475971
0.000476104
0.000476399
0.000476559
0.000476942
0.000477116
0.000477722
0.000477818
0.000482865
0.0106522
0.0115243
0.00102466
0.000930521
0.000852628
0.000790578
0.000741866
0.000703655
0.000673167
0.00064858
0.000628286
0.000611436
0.000597117
0.000584958
0.000574383
0.000565262
0.000557168
0.000550112
0.000543749
0.000538163
0.000533053
0.000528545
0.000524365
0.000520671
0.0005172
0.000514129
0.000511213
0.000508636
0.000506165
0.000503978
0.000501864
0.000500006
0.00049818
0.000496583
0.000495003
0.000493631
0.000492257
0.000491078
0.000489874
0.000488847
0.000487789
0.000486894
0.000485962
0.000485184
0.000484361
0.000483684
0.000482951
0.000482361
0.000481711
0.000481194
0.000480622
0.000480173
0.000479664
0.000479278
0.000478834
0.000478495
0.000478099
0.000477808
0.00047747
0.000477213
0.000476914
0.000476709
0.000476439
0.000476259
0.00047604
0.000475892
0.000475677
0.000475564
0.00047538
0.000475287
0.000475115
0.000475033
0.000474875
0.00047482
0.000474711
0.000474703
0.000474679
0.000474725
0.000474725
0.000474815
0.000474831
0.000474944
0.000474993
0.000475138
0.000475219
0.000475411
0.000475519
0.000475756
0.000475889
0.000476183
0.000476343
0.000476726
0.000476899
0.000477504
0.000477599
0.000482678
0.0107009
0.0115805
0.00102466
0.000930528
0.000852631
0.000790565
0.000741832
0.000703599
0.00067309
0.000648483
0.000628173
0.000611308
0.000596977
0.000584807
0.000574222
0.000565092
0.00055699
0.000549927
0.000543558
0.000537966
0.000532852
0.000528339
0.000524155
0.000520457
0.000516982
0.000513908
0.000510989
0.000508409
0.000505935
0.000503746
0.00050163
0.00049977
0.000497942
0.000496343
0.000494761
0.000493388
0.000492012
0.000490831
0.000489626
0.000488598
0.000487539
0.000486642
0.000485709
0.00048493
0.000484106
0.000483428
0.000482694
0.000482104
0.000481453
0.000480935
0.000480363
0.000479913
0.000479403
0.000479016
0.000478572
0.000478232
0.000477835
0.000477545
0.000477206
0.000476949
0.000476648
0.000476443
0.000476173
0.000475992
0.000475773
0.000475625
0.00047541
0.000475296
0.000475111
0.000475018
0.000474846
0.000474764
0.000474606
0.00047455
0.000474441
0.000474432
0.000474407
0.000474452
0.000474452
0.000474541
0.000474557
0.000474669
0.000474717
0.000474862
0.000474943
0.000475134
0.000475241
0.000475478
0.00047561
0.000475904
0.000476064
0.000476445
0.000476618
0.000477222
0.000477314
0.000482434
0.010764
0.0116532
0.00102466
0.000930537
0.000852635
0.00079055
0.00074179
0.00070353
0.000672994
0.000648364
0.000628034
0.000611151
0.000596804
0.00058462
0.000574023
0.000564883
0.000556771
0.0005497
0.000543323
0.000537724
0.000532603
0.000528084
0.000523895
0.000520193
0.000516714
0.000513635
0.000510713
0.000508129
0.000505653
0.00050346
0.000501341
0.000499479
0.000497649
0.000496048
0.000494463
0.000493088
0.000491711
0.000490528
0.000489321
0.000488291
0.000487231
0.000486333
0.000485398
0.000484618
0.000483793
0.000483114
0.000482379
0.000481787
0.000481135
0.000480616
0.000480043
0.000479593
0.000479082
0.000478694
0.000478249
0.000477908
0.000477511
0.00047722
0.00047688
0.000476623
0.000476321
0.000476115
0.000475845
0.000475664
0.000475444
0.000475295
0.00047508
0.000474966
0.00047478
0.000474687
0.000474514
0.000474432
0.000474273
0.000474217
0.000474108
0.000474098
0.000474071
0.000474116
0.000474115
0.000474204
0.000474219
0.000474331
0.000474378
0.000474522
0.000474603
0.000474793
0.000474899
0.000475135
0.000475267
0.000475559
0.000475719
0.000476099
0.000476271
0.000476874
0.000476964
0.000482135
0.0108421
0.0117431
0.00102466
0.000930548
0.00085264
0.000790532
0.000741741
0.000703448
0.000672881
0.000648224
0.000627869
0.000610965
0.000596599
0.000584398
0.000573786
0.000564633
0.00055651
0.000549429
0.000543043
0.000537436
0.000532307
0.000527782
0.000523586
0.000519878
0.000516394
0.000513311
0.000510384
0.000507796
0.000505316
0.00050312
0.000500997
0.000499132
0.000497299
0.000495695
0.000494108
0.00049273
0.000491351
0.000490166
0.000488957
0.000487925
0.000486863
0.000485964
0.000485027
0.000484246
0.000483419
0.000482739
0.000482002
0.00048141
0.000480756
0.000480237
0.000479662
0.000479211
0.000478699
0.00047831
0.000477864
0.000477523
0.000477124
0.000476832
0.000476492
0.000476234
0.000475932
0.000475725
0.000475454
0.000475272
0.000475051
0.000474903
0.000474686
0.000474572
0.000474386
0.000474292
0.000474119
0.000474036
0.000473877
0.000473821
0.000473711
0.0004737
0.000473672
0.000473715
0.000473714
0.000473802
0.000473816
0.000473927
0.000473974
0.000474117
0.000474197
0.000474386
0.000474492
0.000474727
0.000474858
0.000475149
0.000475308
0.000475687
0.000475858
0.00047646
0.000476547
0.000481778
0.0109361
0.0118511
0.00102466
0.00093056
0.000852646
0.000790512
0.000741684
0.000703353
0.00067275
0.00064806
0.000627677
0.000610748
0.00059636
0.00058414
0.000573512
0.000564344
0.000556208
0.000549114
0.000542717
0.000537101
0.000531963
0.00052743
0.000523227
0.000519512
0.000516022
0.000512933
0.000510001
0.000507409
0.000504924
0.000502724
0.000500598
0.000498729
0.000496892
0.000495285
0.000493695
0.000492315
0.000490933
0.000489745
0.000488534
0.0004875
0.000486436
0.000485535
0.000484596
0.000483813
0.000482984
0.000482303
0.000481565
0.00048097
0.000480316
0.000479795
0.000479219
0.000478767
0.000478254
0.000477864
0.000477416
0.000477074
0.000476675
0.000476382
0.00047604
0.000475781
0.000475478
0.000475271
0.000474999
0.000474817
0.000474595
0.000474446
0.000474229
0.000474113
0.000473927
0.000473833
0.000473659
0.000473576
0.000473417
0.000473359
0.000473249
0.000473238
0.000473207
0.000473249
0.000473247
0.000473334
0.000473347
0.000473458
0.000473503
0.000473645
0.000473725
0.000473913
0.000474018
0.000474251
0.000474382
0.000474672
0.000474829
0.000475207
0.000475377
0.000475977
0.000476062
0.000481365
0.0110465
0.0119779
0.00102466
0.000930574
0.000852652
0.000790489
0.00074162
0.000703245
0.000672602
0.000647875
0.000627459
0.000610501
0.000596088
0.000583847
0.000573199
0.000564013
0.000555862
0.000548755
0.000542346
0.000536718
0.00053157
0.000527028
0.000522817
0.000519095
0.000515597
0.000512502
0.000509564
0.000506967
0.000504476
0.000502272
0.000500141
0.000498268
0.000496428
0.000494817
0.000493224
0.00049184
0.000490455
0.000489265
0.000488051
0.000487015
0.000485948
0.000485044
0.000484104
0.000483319
0.000482488
0.000481804
0.000481064
0.000480469
0.000479812
0.00047929
0.000478713
0.000478259
0.000477744
0.000477354
0.000476904
0.000476561
0.000476161
0.000475867
0.000475524
0.000475265
0.00047496
0.000474752
0.000474479
0.000474296
0.000474073
0.000473924
0.000473706
0.00047359
0.000473403
0.000473308
0.000473133
0.00047305
0.00047289
0.000472832
0.000472721
0.000472709
0.000472676
0.000472716
0.000472714
0.000472799
0.000472812
0.000472921
0.000472966
0.000473107
0.000473185
0.000473371
0.000473476
0.000473708
0.000473838
0.000474126
0.000474283
0.000474658
0.000474827
0.000475426
0.000475508
0.000480893
0.0111737
0.0121245
0.00102466
0.00093059
0.00085266
0.000790463
0.000741548
0.000703124
0.000672435
0.000647666
0.000627213
0.000610224
0.000595783
0.000583516
0.000572846
0.000563642
0.000555473
0.000548351
0.000541928
0.000536287
0.000531128
0.000526576
0.000522356
0.000518624
0.000515119
0.000512017
0.000509072
0.000506468
0.000503972
0.000501762
0.000499627
0.000497749
0.000495904
0.00049429
0.000492693
0.000491305
0.000489917
0.000488723
0.000487507
0.000486467
0.000485398
0.000484492
0.000483549
0.000482761
0.000481928
0.000481243
0.000480501
0.000479903
0.000479245
0.000478721
0.000478142
0.000477687
0.000477171
0.000476778
0.000476328
0.000475984
0.000475582
0.000475287
0.000474943
0.000474682
0.000474376
0.000474167
0.000473893
0.000473709
0.000473485
0.000473335
0.000473116
0.000472999
0.000472811
0.000472716
0.000472541
0.000472457
0.000472297
0.000472238
0.000472127
0.000472113
0.000472078
0.000472116
0.000472113
0.000472197
0.000472208
0.000472316
0.00047236
0.000472499
0.000472577
0.000472762
0.000472865
0.000473096
0.000473225
0.000473511
0.000473667
0.00047404
0.000474208
0.000474805
0.000474883
0.000480362
0.0113182
0.0122914
0.00102467
0.000930607
0.000852669
0.000790436
0.000741469
0.000702991
0.00067225
0.000647435
0.000626942
0.000609916
0.000595444
0.000583149
0.000572455
0.000563229
0.000555041
0.000547901
0.000541462
0.000535808
0.000530637
0.000526073
0.000521842
0.000518101
0.000514587
0.000511477
0.000508524
0.000505914
0.000503411
0.000501195
0.000499054
0.000497171
0.000495321
0.000493703
0.000492101
0.00049071
0.000489317
0.00048812
0.0004869
0.000485858
0.000484785
0.000483876
0.00048293
0.000482141
0.000481305
0.000480617
0.000479873
0.000479273
0.000478613
0.000478087
0.000477506
0.000477049
0.000476531
0.000476138
0.000475685
0.00047534
0.000474936
0.00047464
0.000474295
0.000474033
0.000473726
0.000473516
0.000473241
0.000473056
0.00047283
0.000472679
0.000472459
0.000472342
0.000472153
0.000472057
0.000471881
0.000471796
0.000471635
0.000471576
0.000471464
0.000471448
0.000471411
0.000471447
0.000471443
0.000471525
0.000471535
0.000471642
0.000471684
0.000471823
0.000471899
0.000472082
0.000472185
0.000472413
0.000472541
0.000472825
0.00047298
0.000473351
0.000473517
0.000474112
0.000474186
0.000479772
0.0114799
0.0124793
0.00102467
0.000930626
0.00085268
0.000790406
0.000741383
0.000702845
0.000672048
0.000647182
0.000626643
0.000609577
0.00059507
0.000582745
0.000572024
0.000562774
0.000554564
0.000547405
0.00054095
0.00053528
0.000530094
0.000525518
0.000521275
0.000517524
0.000514
0.000510881
0.00050792
0.000505302
0.000502792
0.000500569
0.000498422
0.000496534
0.000494678
0.000493055
0.000491448
0.000490052
0.000488655
0.000487455
0.000486231
0.000485185
0.000484109
0.000483197
0.000482248
0.000481455
0.000480617
0.000479927
0.00047918
0.000478578
0.000477915
0.000477388
0.000476804
0.000476346
0.000475826
0.00047543
0.000474976
0.000474629
0.000474224
0.000473926
0.000473579
0.000473316
0.000473007
0.000472796
0.00047252
0.000472334
0.000472107
0.000471955
0.000471734
0.000471615
0.000471425
0.000471328
0.000471152
0.000471067
0.000470905
0.000470844
0.000470732
0.000470715
0.000470675
0.000470708
0.000470704
0.000470783
0.000470792
0.000470898
0.000470939
0.000471075
0.00047115
0.000471332
0.000471433
0.00047166
0.000471787
0.000472069
0.000472222
0.000472591
0.000472755
0.000473348
0.000473417
0.000479121
0.011659
0.012689
0.00102467
0.000930647
0.000852691
0.000790374
0.00074129
0.000702687
0.000671827
0.000646905
0.000626317
0.000609208
0.000594662
0.000582304
0.000571553
0.000562276
0.000554043
0.000546864
0.000540389
0.000534702
0.000529501
0.00052491
0.000520655
0.000516892
0.000513357
0.000510228
0.000507258
0.000504632
0.000502114
0.000499884
0.00049773
0.000495835
0.000493974
0.000492345
0.000490733
0.000489333
0.000487931
0.000486726
0.000485497
0.000484448
0.000483368
0.000482453
0.0004815
0.000480705
0.000479863
0.00047917
0.000478421
0.000477816
0.000477151
0.000476621
0.000476035
0.000475575
0.000475053
0.000474655
0.000474199
0.000473851
0.000473443
0.000473144
0.000472795
0.000472531
0.00047222
0.000472008
0.00047173
0.000471543
0.000471314
0.000471162
0.000470939
0.00047082
0.000470628
0.000470531
0.000470353
0.000470267
0.000470104
0.000470043
0.000469929
0.000469911
0.000469868
0.000469899
0.000469893
0.000469971
0.000469978
0.000470082
0.000470121
0.000470257
0.00047033
0.00047051
0.00047061
0.000470834
0.00047096
0.000471239
0.000471391
0.000471757
0.00047192
0.00047251
0.000472575
0.00047841
0.011855
0.012921
0.00102467
0.00093067
0.000852704
0.000790341
0.000741191
0.000702516
0.00067159
0.000646606
0.000625964
0.000608807
0.00059422
0.000581825
0.000571041
0.000561736
0.000553478
0.000546275
0.00053978
0.000534075
0.000528857
0.00052425
0.000519981
0.000516205
0.000512659
0.000509519
0.000506539
0.000503903
0.000501377
0.000499139
0.000496977
0.000495076
0.000493208
0.000491573
0.000489955
0.000488549
0.000487142
0.000485933
0.0004847
0.000483646
0.000482562
0.000481643
0.000480687
0.000479888
0.000479043
0.000478347
0.000477594
0.000476987
0.000476319
0.000475787
0.000475199
0.000474736
0.000474211
0.000473812
0.000473353
0.000473003
0.000472594
0.000472293
0.000471942
0.000471676
0.000471364
0.00047115
0.00047087
0.000470682
0.000470451
0.000470298
0.000470074
0.000469953
0.000469761
0.000469662
0.000469483
0.000469397
0.000469233
0.00046917
0.000469056
0.000469036
0.00046899
0.000469019
0.000469011
0.000469086
0.000469093
0.000469195
0.000469232
0.000469365
0.000469437
0.000469615
0.000469713
0.000469935
0.00047006
0.000470336
0.000470487
0.00047085
0.00047101
0.000471598
0.000471658
0.000477636
0.0120673
0.0131758
0.00102467
0.000930695
0.000852719
0.000790306
0.000741084
0.000702334
0.000671334
0.000646285
0.000625584
0.000608376
0.000593744
0.000581309
0.00057049
0.000561154
0.000552867
0.00054564
0.000539122
0.000533396
0.00052816
0.000523537
0.000519252
0.000515463
0.000511904
0.000508752
0.000505761
0.000503115
0.00050058
0.000498334
0.000496163
0.000494254
0.000492379
0.000490738
0.000489113
0.000487702
0.000486289
0.000485075
0.000483837
0.000482778
0.00048169
0.000480767
0.000479806
0.000479004
0.000478155
0.000477457
0.0004767
0.00047609
0.000475419
0.000474884
0.000474293
0.000473828
0.0004733
0.000472899
0.000472438
0.000472086
0.000471674
0.000471371
0.000471018
0.000470751
0.000470437
0.000470221
0.00046994
0.00046975
0.000469517
0.000469363
0.000469138
0.000469016
0.000468822
0.000468722
0.000468542
0.000468455
0.00046829
0.000468226
0.000468111
0.000468089
0.00046804
0.000468065
0.000468057
0.000468128
0.000468134
0.000468234
0.000468269
0.000468401
0.000468471
0.000468646
0.000468743
0.000468963
0.000469085
0.000469359
0.000469508
0.000469868
0.000470026
0.000470611
0.000470665
0.0004768
0.012295
0.0134539
0.00102467
0.000930721
0.000852735
0.000790269
0.000740972
0.000702139
0.000671061
0.000645941
0.000625177
0.000607914
0.000593232
0.000580755
0.000569898
0.000560528
0.000552211
0.000544957
0.000538415
0.000532667
0.000527411
0.00052277
0.000518469
0.000514664
0.000511091
0.000507927
0.000504924
0.000502268
0.000499722
0.000497467
0.000495287
0.00049337
0.000491488
0.000489839
0.000488208
0.00048679
0.000485371
0.000484151
0.000482907
0.000481845
0.000480751
0.000479824
0.000478859
0.000478053
0.0004772
0.000476498
0.000475737
0.000475125
0.00047445
0.000473912
0.000473318
0.00047285
0.00047232
0.000471916
0.000471452
0.000471098
0.000470684
0.000470379
0.000470024
0.000469755
0.000469438
0.000469221
0.000468938
0.000468746
0.000468512
0.000468356
0.000468129
0.000468006
0.00046781
0.000467709
0.000467528
0.00046744
0.000467274
0.000467209
0.000467092
0.000467069
0.000467016
0.000467039
0.000467028
0.000467097
0.000467101
0.000467199
0.000467232
0.000467361
0.00046743
0.000467602
0.000467698
0.000467915
0.000468035
0.000468306
0.000468453
0.00046881
0.000468966
0.000469547
0.000469596
0.0004759
0.0125368
0.0137555
0.00102467
0.000930749
0.000852753
0.000790231
0.000740853
0.000701933
0.000670771
0.000645575
0.000624743
0.00060742
0.000592687
0.000580163
0.000569265
0.000559859
0.00055151
0.000544226
0.000537658
0.000531887
0.00052661
0.00052195
0.00051763
0.00051381
0.000510222
0.000507044
0.000504028
0.00050136
0.000498803
0.000496538
0.000494349
0.000492423
0.000490532
0.000488876
0.000487237
0.000485813
0.000484387
0.000483161
0.000481912
0.000480844
0.000479744
0.000478813
0.000477843
0.000477033
0.000476175
0.000475469
0.000474705
0.000474089
0.000473411
0.00047287
0.000472272
0.000471802
0.000471268
0.000470862
0.000470395
0.000470039
0.000469622
0.000469315
0.000468957
0.000468687
0.000468367
0.000468148
0.000467863
0.00046767
0.000467433
0.000467276
0.000467047
0.000466923
0.000466725
0.000466623
0.000466441
0.000466352
0.000466185
0.000466118
0.000466
0.000465974
0.000465919
0.000465939
0.000465926
0.000465991
0.000465993
0.000466089
0.00046612
0.000466247
0.000466313
0.000466483
0.000466577
0.000466791
0.00046691
0.000467177
0.000467323
0.000467676
0.000467828
0.000468406
0.00046845
0.000474935
0.012791
0.0140809
0.00102467
0.000930779
0.000852773
0.000790192
0.000740728
0.000701715
0.000670464
0.000645187
0.000624283
0.000606896
0.000592106
0.000579533
0.000568591
0.000559146
0.000550763
0.000543448
0.000536852
0.000531056
0.000525755
0.000521074
0.000516736
0.000512898
0.000509294
0.000506101
0.000503072
0.000500391
0.000497822
0.000495547
0.000493347
0.000491412
0.000489512
0.000487848
0.000486201
0.00048477
0.000483337
0.000482104
0.000480849
0.000479775
0.00047867
0.000477734
0.000476758
0.000475944
0.000475081
0.000474372
0.000473603
0.000472983
0.000472301
0.000471757
0.000471156
0.000470682
0.000470146
0.000469736
0.000469267
0.000468908
0.000468488
0.000468179
0.000467818
0.000467546
0.000467224
0.000467003
0.000466715
0.00046652
0.000466281
0.000466123
0.000465892
0.000465766
0.000465567
0.000465463
0.00046528
0.000465189
0.000465021
0.000464952
0.000464833
0.000464805
0.000464747
0.000464763
0.000464748
0.000464809
0.00046481
0.000464903
0.000464932
0.000465056
0.00046512
0.000465287
0.000465379
0.00046559
0.000465707
0.000465971
0.000466114
0.000466464
0.000466614
0.000467188
0.000467226
0.000473903
0.0130553
0.0144299
0.00102467
0.00093081
0.000852794
0.000790152
0.000740598
0.000701487
0.000670141
0.000644777
0.000623796
0.000606341
0.000591492
0.000578865
0.000567877
0.00055839
0.00054997
0.000542622
0.000535996
0.000530173
0.000524847
0.000520144
0.000515786
0.000511929
0.000508308
0.000505099
0.000502055
0.000499361
0.00049678
0.000494493
0.000492282
0.000490337
0.000488428
0.000486755
0.000485099
0.00048366
0.000482219
0.00048098
0.000479717
0.000478638
0.000477527
0.000476585
0.000475604
0.000474785
0.000473917
0.000473203
0.00047243
0.000471807
0.00047112
0.000470573
0.000469967
0.000469491
0.00046895
0.000468538
0.000468065
0.000467704
0.000467281
0.000466969
0.000466605
0.000466331
0.000466006
0.000465783
0.000465493
0.000465296
0.000465054
0.000464895
0.000464662
0.000464534
0.000464333
0.000464228
0.000464043
0.000463951
0.000463782
0.000463711
0.000463591
0.000463561
0.000463499
0.000463512
0.000463494
0.00046355
0.00046355
0.000463641
0.000463667
0.000463789
0.00046385
0.000464014
0.000464104
0.000464311
0.000464427
0.000464687
0.000464828
0.000465173
0.00046532
0.00046589
0.000465923
0.000472804
0.0133271
0.0148022
0.00102467
0.000930843
0.000852818
0.000790112
0.000740462
0.000701247
0.000669801
0.000644345
0.000623283
0.000605756
0.000590843
0.00057816
0.000567122
0.000557591
0.000549131
0.000541748
0.00053509
0.000529238
0.000523886
0.000519159
0.000514779
0.000510902
0.000507263
0.000504038
0.000500978
0.00049827
0.000495675
0.000493375
0.000491153
0.000489198
0.000487277
0.000485595
0.000483931
0.000482483
0.000481034
0.000479788
0.000478518
0.000477432
0.000476314
0.000475367
0.00047438
0.000473555
0.000472682
0.000471964
0.000471186
0.000470558
0.000469867
0.000469316
0.000468706
0.000468226
0.000467682
0.000467267
0.00046679
0.000466426
0.000466
0.000465685
0.000465319
0.000465042
0.000464714
0.000464489
0.000464196
0.000463998
0.000463753
0.000463592
0.000463357
0.000463227
0.000463024
0.000462917
0.000462731
0.000462637
0.000462467
0.000462394
0.000462272
0.00046224
0.000462175
0.000462184
0.000462163
0.000462215
0.000462214
0.000462301
0.000462324
0.000462443
0.000462502
0.000462663
0.000462751
0.000462954
0.000463068
0.000463324
0.000463463
0.000463804
0.000463948
0.000464513
0.00046454
0.000471635
0.0136032
0.0151973
0.00102467
0.000930878
0.000852843
0.000790071
0.000740322
0.000700997
0.000669445
0.000643893
0.000622744
0.00060514
0.000590159
0.000577417
0.000566326
0.000556748
0.000548246
0.000540825
0.000534133
0.000528251
0.000522871
0.000518119
0.000513716
0.000509818
0.000506159
0.000502916
0.00049984
0.000497116
0.000494507
0.000492194
0.000489959
0.000487993
0.000486062
0.00048437
0.000482695
0.000481239
0.000479781
0.000478527
0.000477249
0.000476156
0.000475032
0.000474078
0.000473085
0.000472255
0.000471376
0.000470653
0.00046987
0.000469237
0.000468542
0.000467987
0.000467372
0.000466889
0.000466341
0.000465922
0.000465441
0.000465074
0.000464645
0.000464327
0.000463957
0.000463678
0.000463347
0.00046312
0.000462824
0.000462623
0.000462375
0.000462213
0.000461975
0.000461844
0.000461638
0.00046153
0.000461342
0.000461247
0.000461075
0.000461
0.000460877
0.000460842
0.000460774
0.000460779
0.000460755
0.000460802
0.000460799
0.000460883
0.000460904
0.00046102
0.000461076
0.000461233
0.000461318
0.000461518
0.000461629
0.000461882
0.000462018
0.000462355
0.000462495
0.000463055
0.000463077
0.000470395
0.01388
0.0156141
0.00102467
0.000930914
0.000852871
0.00079003
0.000740177
0.000700737
0.000669074
0.000643419
0.000622179
0.000604495
0.000589442
0.000576637
0.00056549
0.000555862
0.000547316
0.000539855
0.000533127
0.000527212
0.000521803
0.000517024
0.000512596
0.000508676
0.000504996
0.000501734
0.00049864
0.0004959
0.000493276
0.000490949
0.000488701
0.000486722
0.00048478
0.000483077
0.000481392
0.000479927
0.00047846
0.000477197
0.000475911
0.000474811
0.000473679
0.000472719
0.000471719
0.000470883
0.000469998
0.00046927
0.000468481
0.000467844
0.000467143
0.000466584
0.000465965
0.000465478
0.000464925
0.000464503
0.000464018
0.000463648
0.000463214
0.000462894
0.00046252
0.000462239
0.000461904
0.000461674
0.000461376
0.000461173
0.000460922
0.000460757
0.000460517
0.000460383
0.000460176
0.000460066
0.000459876
0.000459779
0.000459606
0.000459529
0.000459404
0.000459367
0.000459296
0.000459297
0.000459269
0.000459311
0.000459307
0.000459386
0.000459404
0.000459517
0.00045957
0.000459724
0.000459807
0.000460003
0.000460111
0.000460359
0.000460493
0.000460825
0.000460961
0.000461517
0.000461532
0.000469083
0.014153
0.016051
0.00102467
0.000930952
0.000852901
0.000789989
0.000740028
0.000700468
0.000668688
0.000642925
0.000621589
0.000603819
0.000588692
0.00057582
0.000564613
0.000554933
0.000546339
0.000538836
0.00053207
0.000526121
0.000520681
0.000515873
0.000511419
0.000507475
0.000503773
0.000500492
0.000497379
0.000494622
0.000491981
0.00048964
0.000487378
0.000485386
0.000483431
0.000481717
0.000480021
0.000478546
0.000477069
0.000475798
0.000474503
0.000473395
0.000472255
0.000471289
0.000470282
0.00046944
0.000468548
0.000467814
0.000467019
0.000466377
0.000465671
0.000465107
0.000464483
0.000463992
0.000463435
0.000463009
0.00046252
0.000462146
0.000461709
0.000461385
0.000461008
0.000460724
0.000460385
0.000460153
0.000459851
0.000459646
0.000459391
0.000459225
0.000458982
0.000458846
0.000458636
0.000458524
0.000458332
0.000458234
0.000458059
0.00045798
0.000457852
0.000457813
0.000457739
0.000457736
0.000457704
0.000457741
0.000457735
0.00045781
0.000457825
0.000457935
0.000457985
0.000458134
0.000458214
0.000458406
0.000458512
0.000458756
0.000458886
0.000459213
0.000459346
0.000459896
0.000459906
0.000467695
0.0144176
0.016506
0.00102467
0.000930992
0.000852934
0.000789949
0.000739875
0.00070019
0.000668287
0.000642412
0.000620974
0.000603115
0.000587908
0.000574966
0.000563697
0.000553961
0.000545318
0.00053777
0.000530964
0.000524978
0.000519505
0.000514667
0.000510185
0.000506216
0.000502491
0.000499189
0.000496056
0.000493281
0.000490623
0.000488267
0.000485989
0.000483984
0.000482016
0.00048029
0.000478583
0.000477097
0.00047561
0.000474329
0.000473025
0.000471909
0.000470761
0.000469787
0.000468772
0.000467924
0.000467025
0.000466285
0.000465484
0.000464837
0.000464125
0.000463557
0.000462927
0.000462432
0.000461869
0.000461439
0.000460946
0.000460569
0.000460127
0.0004598
0.000459418
0.000459132
0.000458789
0.000458554
0.000458249
0.000458041
0.000457783
0.000457615
0.000457369
0.000457231
0.000457018
0.000456904
0.00045671
0.00045661
0.000456433
0.000456352
0.000456222
0.00045618
0.000456104
0.000456096
0.00045606
0.000456092
0.000456083
0.000456154
0.000456166
0.000456272
0.000456319
0.000456464
0.000456541
0.000456729
0.000456832
0.000457071
0.000457199
0.00045752
0.00045765
0.000458192
0.000458198
0.00046623
0.0146683
0.0169763
0.00102467
0.000931033
0.000852969
0.000789909
0.000739719
0.000699903
0.000667872
0.000641879
0.000620336
0.000602382
0.000587091
0.000574075
0.00056274
0.000552946
0.000544251
0.000536656
0.000529807
0.000523784
0.000518275
0.000513406
0.000508895
0.0005049
0.00050115
0.000497825
0.000494671
0.000491877
0.000489201
0.000486828
0.000484535
0.000482516
0.000480534
0.000478796
0.000477076
0.00047558
0.000474081
0.000472791
0.000471477
0.000470352
0.000469195
0.000468213
0.00046719
0.000466335
0.000465429
0.000464683
0.000463876
0.000463223
0.000462505
0.000461931
0.000461296
0.000460796
0.000460229
0.000459794
0.000459296
0.000458915
0.000458469
0.000458138
0.000457753
0.000457463
0.000457116
0.000456878
0.00045657
0.000456359
0.000456097