/*--------------------------------*- C++ -*----------------------------------*\
| =========                 |                                                 |
| \\      /  F ield         | OpenFOAM: The Open Source CFD Toolbox           |
|  \\    /   O peration     | Version:  v2012                                 |
|   \\  /    A nd           | Website:  www.openfoam.com                      |
|    \\/     M anipulation  |                                                 |
\*---------------------------------------------------------------------------*/
FoamFile
{
    version     2.0;
    format      ascii;
    class       volVectorField;
    location    "47.5";
    object      wallShearStress;
}
// * * * * * * * * * * * * * * * * * * * * * * * * * * * * * * * * * * * * * //

dimensions      [0 2 -2 0 0 0 0];


internalField   uniform (0 0 0);

boundaryField
{
    inlet
    {
        type            calculated;
        value           uniform (0 0 0);
    }
    outlet
    {
        type            calculated;
        value           uniform (0 0 0);
    }
    topWall
    {
        type            calculated;
        value           nonuniform List<vector> 
545
(
(1.48725e-08 -1.04689e-08 0)
(1.48656e-08 -2.92881e-08 0)
(1.48519e-08 -4.88558e-08 0)
(1.48315e-08 -6.78496e-08 0)
(1.48053e-08 -8.60222e-08 0)
(1.4774e-08 -1.03605e-07 0)
(1.47381e-08 -1.20746e-07 0)
(1.46978e-08 -1.37437e-07 0)
(1.46537e-08 -1.53638e-07 0)
(1.4606e-08 -1.69348e-07 0)
(1.45551e-08 -1.84589e-07 0)
(1.45014e-08 -1.99378e-07 0)
(1.44451e-08 -2.13723e-07 0)
(1.43867e-08 -2.27636e-07 0)
(1.43262e-08 -2.41124e-07 0)
(1.42641e-08 -2.54201e-07 0)
(1.42005e-08 -2.66877e-07 0)
(1.41356e-08 -2.79163e-07 0)
(1.40697e-08 -2.9107e-07 0)
(1.4003e-08 -3.02609e-07 0)
(1.39355e-08 -3.13789e-07 0)
(1.38676e-08 -3.24622e-07 0)
(1.37992e-08 -3.35118e-07 0)
(1.37307e-08 -3.45286e-07 0)
(1.3662e-08 -3.55137e-07 0)
(1.35934e-08 -3.6468e-07 0)
(1.35248e-08 -3.73924e-07 0)
(1.34565e-08 -3.82879e-07 0)
(1.33885e-08 -3.91555e-07 0)
(1.33209e-08 -3.99958e-07 0)
(1.32538e-08 -4.08099e-07 0)
(1.31872e-08 -4.15985e-07 0)
(1.31212e-08 -4.23625e-07 0)
(1.30559e-08 -4.31027e-07 0)
(1.29912e-08 -4.38197e-07 0)
(1.29273e-08 -4.45144e-07 0)
(1.28642e-08 -4.51874e-07 0)
(1.28019e-08 -4.58395e-07 0)
(1.27405e-08 -4.64714e-07 0)
(1.26799e-08 -4.70836e-07 0)
(1.26202e-08 -4.76769e-07 0)
(1.25614e-08 -4.82519e-07 0)
(1.25036e-08 -4.88091e-07 0)
(1.24467e-08 -4.93491e-07 0)
(1.23908e-08 -4.98725e-07 0)
(1.23358e-08 -5.03798e-07 0)
(1.22818e-08 -5.08716e-07 0)
(1.22288e-08 -5.13483e-07 0)
(1.21768e-08 -5.18104e-07 0)
(1.21257e-08 -5.22585e-07 0)
(1.20756e-08 -5.2693e-07 0)
(1.20265e-08 -5.31142e-07 0)
(1.19784e-08 -5.35227e-07 0)
(1.19312e-08 -5.39188e-07 0)
(1.18849e-08 -5.4303e-07 0)
(1.18396e-08 -5.46757e-07 0)
(1.17953e-08 -5.50371e-07 0)
(1.17519e-08 -5.53877e-07 0)
(1.17094e-08 -5.57278e-07 0)
(1.16678e-08 -5.60577e-07 0)
(1.16271e-08 -5.63778e-07 0)
(1.15873e-08 -5.66884e-07 0)
(1.15483e-08 -5.69898e-07 0)
(1.15102e-08 -5.72823e-07 0)
(1.1473e-08 -5.75661e-07 0)
(1.14366e-08 -5.78415e-07 0)
(1.14011e-08 -5.81089e-07 0)
(1.13663e-08 -5.83683e-07 0)
(1.13323e-08 -5.86202e-07 0)
(1.12992e-08 -5.88647e-07 0)
(1.12667e-08 -5.91022e-07 0)
(1.12352e-08 -5.93323e-07 0)
(1.12047e-08 -5.95536e-07 0)
(1.11746e-08 -5.97679e-07 0)
(1.11449e-08 -5.99797e-07 0)
(1.11153e-08 -6.01902e-07 0)
(1.10857e-08 -6.03996e-07 0)
(1.10562e-08 -6.06075e-07 0)
(1.10268e-08 -6.08137e-07 0)
(1.09974e-08 -6.10185e-07 0)
(1.09681e-08 -6.12217e-07 0)
(1.09388e-08 -6.14236e-07 0)
(1.09096e-08 -6.16239e-07 0)
(1.08804e-08 -6.18228e-07 0)
(1.08514e-08 -6.20203e-07 0)
(1.08223e-08 -6.22164e-07 0)
(1.07934e-08 -6.2411e-07 0)
(1.07645e-08 -6.26042e-07 0)
(1.07357e-08 -6.2796e-07 0)
(1.07069e-08 -6.29865e-07 0)
(1.06782e-08 -6.31755e-07 0)
(1.06496e-08 -6.33632e-07 0)
(1.0621e-08 -6.35496e-07 0)
(1.05926e-08 -6.37344e-07 0)
(1.05639e-08 -6.39184e-07 0)
(1.05367e-08 -6.40991e-07 0)
(1.05116e-08 -6.42644e-07 0)
(1.04874e-08 -6.4414e-07 0)
(1.04639e-08 -6.45595e-07 0)
(1.04406e-08 -6.47055e-07 0)
(1.04173e-08 -6.48527e-07 0)
(1.03938e-08 -6.50002e-07 0)
(1.03703e-08 -6.51474e-07 0)
(1.03467e-08 -6.52945e-07 0)
(1.0323e-08 -6.54416e-07 0)
(1.02992e-08 -6.55887e-07 0)
(1.02753e-08 -6.57359e-07 0)
(1.02513e-08 -6.58831e-07 0)
(1.02272e-08 -6.60303e-07 0)
(1.02031e-08 -6.61774e-07 0)
(1.01788e-08 -6.63246e-07 0)
(1.01544e-08 -6.64718e-07 0)
(1.013e-08 -6.66189e-07 0)
(1.01054e-08 -6.67661e-07 0)
(1.00808e-08 -6.69132e-07 0)
(1.00561e-08 -6.70603e-07 0)
(1.00312e-08 -6.72074e-07 0)
(1.00063e-08 -6.73545e-07 0)
(9.9813e-09 -6.75016e-07 0)
(9.95619e-09 -6.76486e-07 0)
(9.93098e-09 -6.77957e-07 0)
(9.90568e-09 -6.79426e-07 0)
(9.88029e-09 -6.80896e-07 0)
(9.8548e-09 -6.82365e-07 0)
(9.82921e-09 -6.83834e-07 0)
(9.80354e-09 -6.85303e-07 0)
(9.77776e-09 -6.86771e-07 0)
(9.75189e-09 -6.88239e-07 0)
(9.72593e-09 -6.89706e-07 0)
(9.69987e-09 -6.91173e-07 0)
(9.67372e-09 -6.92639e-07 0)
(9.64747e-09 -6.94105e-07 0)
(9.62113e-09 -6.95571e-07 0)
(9.59469e-09 -6.97035e-07 0)
(9.56816e-09 -6.98499e-07 0)
(9.54153e-09 -6.99963e-07 0)
(9.51481e-09 -7.01426e-07 0)
(9.488e-09 -7.02888e-07 0)
(9.46108e-09 -7.0435e-07 0)
(9.43408e-09 -7.0581e-07 0)
(9.40698e-09 -7.0727e-07 0)
(9.37978e-09 -7.0873e-07 0)
(9.35249e-09 -7.10188e-07 0)
(9.3251e-09 -7.11646e-07 0)
(9.29762e-09 -7.13103e-07 0)
(9.27004e-09 -7.14559e-07 0)
(9.24237e-09 -7.16014e-07 0)
(9.21461e-09 -7.17468e-07 0)
(9.18675e-09 -7.18921e-07 0)
(9.15879e-09 -7.20373e-07 0)
(9.13075e-09 -7.21824e-07 0)
(9.1026e-09 -7.23274e-07 0)
(9.07437e-09 -7.24723e-07 0)
(9.04603e-09 -7.26171e-07 0)
(9.01761e-09 -7.27618e-07 0)
(8.98909e-09 -7.29063e-07 0)
(8.96047e-09 -7.30508e-07 0)
(8.93176e-09 -7.31951e-07 0)
(8.90296e-09 -7.33393e-07 0)
(8.87407e-09 -7.34833e-07 0)
(8.84508e-09 -7.36273e-07 0)
(8.816e-09 -7.37711e-07 0)
(8.78682e-09 -7.39147e-07 0)
(8.75755e-09 -7.40583e-07 0)
(8.72819e-09 -7.42016e-07 0)
(8.69873e-09 -7.43449e-07 0)
(8.66918e-09 -7.4488e-07 0)
(8.63954e-09 -7.46309e-07 0)
(8.60981e-09 -7.47737e-07 0)
(8.57998e-09 -7.49163e-07 0)
(8.55006e-09 -7.50588e-07 0)
(8.52005e-09 -7.52011e-07 0)
(8.48995e-09 -7.53432e-07 0)
(8.45976e-09 -7.54852e-07 0)
(8.42947e-09 -7.5627e-07 0)
(8.3991e-09 -7.57686e-07 0)
(8.36863e-09 -7.591e-07 0)
(8.33807e-09 -7.60513e-07 0)
(8.30742e-09 -7.61923e-07 0)
(8.27668e-09 -7.63332e-07 0)
(8.24585e-09 -7.64739e-07 0)
(8.21493e-09 -7.66144e-07 0)
(8.18392e-09 -7.67547e-07 0)
(8.15282e-09 -7.68948e-07 0)
(8.12164e-09 -7.70347e-07 0)
(8.09036e-09 -7.71743e-07 0)
(8.05899e-09 -7.73138e-07 0)
(8.02754e-09 -7.74531e-07 0)
(7.996e-09 -7.75921e-07 0)
(7.96437e-09 -7.77309e-07 0)
(7.93265e-09 -7.78695e-07 0)
(7.90084e-09 -7.80078e-07 0)
(7.86895e-09 -7.8146e-07 0)
(7.83697e-09 -7.82839e-07 0)
(7.8049e-09 -7.84215e-07 0)
(7.77275e-09 -7.85589e-07 0)
(7.74052e-09 -7.86961e-07 0)
(7.70819e-09 -7.8833e-07 0)
(7.67579e-09 -7.89697e-07 0)
(7.64329e-09 -7.91061e-07 0)
(7.61072e-09 -7.92422e-07 0)
(7.57806e-09 -7.93781e-07 0)
(7.54531e-09 -7.95137e-07 0)
(7.51248e-09 -7.96491e-07 0)
(7.47957e-09 -7.97842e-07 0)
(7.44658e-09 -7.9919e-07 0)
(7.41351e-09 -8.00535e-07 0)
(7.38035e-09 -8.01877e-07 0)
(7.34711e-09 -8.03217e-07 0)
(7.3138e-09 -8.04553e-07 0)
(7.2804e-09 -8.05887e-07 0)
(7.24692e-09 -8.07217e-07 0)
(7.21336e-09 -8.08545e-07 0)
(7.17973e-09 -8.0987e-07 0)
(7.14601e-09 -8.11191e-07 0)
(7.11222e-09 -8.12509e-07 0)
(7.07835e-09 -8.13824e-07 0)
(7.0444e-09 -8.15136e-07 0)
(7.01037e-09 -8.16445e-07 0)
(6.97627e-09 -8.17751e-07 0)
(6.9421e-09 -8.19053e-07 0)
(6.90785e-09 -8.20352e-07 0)
(6.87352e-09 -8.21647e-07 0)
(6.83912e-09 -8.22939e-07 0)
(6.80465e-09 -8.24228e-07 0)
(6.7701e-09 -8.25513e-07 0)
(6.73549e-09 -8.26794e-07 0)
(6.7008e-09 -8.28072e-07 0)
(6.66604e-09 -8.29346e-07 0)
(6.6312e-09 -8.30617e-07 0)
(6.5963e-09 -8.31884e-07 0)
(6.56133e-09 -8.33147e-07 0)
(6.52629e-09 -8.34407e-07 0)
(6.49118e-09 -8.35662e-07 0)
(6.45601e-09 -8.36914e-07 0)
(6.42076e-09 -8.38162e-07 0)
(6.38546e-09 -8.39406e-07 0)
(6.35008e-09 -8.40647e-07 0)
(6.31464e-09 -8.41883e-07 0)
(6.27914e-09 -8.43115e-07 0)
(6.24357e-09 -8.44343e-07 0)
(6.20794e-09 -8.45567e-07 0)
(6.17225e-09 -8.46786e-07 0)
(6.13649e-09 -8.48002e-07 0)
(6.10068e-09 -8.49213e-07 0)
(6.0648e-09 -8.50421e-07 0)
(6.02887e-09 -8.51623e-07 0)
(5.99287e-09 -8.52822e-07 0)
(5.95682e-09 -8.54016e-07 0)
(5.92071e-09 -8.55206e-07 0)
(5.88454e-09 -8.56391e-07 0)
(5.84832e-09 -8.57572e-07 0)
(5.81205e-09 -8.58748e-07 0)
(5.77572e-09 -8.59919e-07 0)
(5.73933e-09 -8.61086e-07 0)
(5.7029e-09 -8.62249e-07 0)
(5.66641e-09 -8.63407e-07 0)
(5.62987e-09 -8.6456e-07 0)
(5.59328e-09 -8.65708e-07 0)
(5.55664e-09 -8.66851e-07 0)
(5.51996e-09 -8.6799e-07 0)
(5.48322e-09 -8.69123e-07 0)
(5.44644e-09 -8.70252e-07 0)
(5.40961e-09 -8.71376e-07 0)
(5.37274e-09 -8.72495e-07 0)
(5.33581e-09 -8.73608e-07 0)
(5.2989e-09 -8.74717e-07 0)
(5.26169e-09 -8.75821e-07 0)
(5.22555e-09 -8.76914e-07 0)
(5.19093e-09 -8.7795e-07 0)
(5.15683e-09 -8.7893e-07 0)
(5.12316e-09 -8.799e-07 0)
(5.08933e-09 -8.80876e-07 0)
(5.05522e-09 -8.81861e-07 0)
(5.0208e-09 -8.8285e-07 0)
(4.98604e-09 -8.83842e-07 0)
(4.95096e-09 -8.84837e-07 0)
(4.91555e-09 -8.85836e-07 0)
(4.8798e-09 -8.86839e-07 0)
(4.84371e-09 -8.87845e-07 0)
(4.80729e-09 -8.88855e-07 0)
(4.77052e-09 -8.89867e-07 0)
(4.73342e-09 -8.90883e-07 0)
(4.69597e-09 -8.91902e-07 0)
(4.65818e-09 -8.92924e-07 0)
(4.62004e-09 -8.93948e-07 0)
(4.58155e-09 -8.94975e-07 0)
(4.54272e-09 -8.96005e-07 0)
(4.50353e-09 -8.97036e-07 0)
(4.46399e-09 -8.9807e-07 0)
(4.4241e-09 -8.99106e-07 0)
(4.38386e-09 -9.00144e-07 0)
(4.34326e-09 -9.01183e-07 0)
(4.3023e-09 -9.02224e-07 0)
(4.26099e-09 -9.03266e-07 0)
(4.21931e-09 -9.04309e-07 0)
(4.17728e-09 -9.05353e-07 0)
(4.13489e-09 -9.06397e-07 0)
(4.09214e-09 -9.07443e-07 0)
(4.04902e-09 -9.08488e-07 0)
(4.00555e-09 -9.09534e-07 0)
(3.96171e-09 -9.1058e-07 0)
(3.91751e-09 -9.11625e-07 0)
(3.87295e-09 -9.1267e-07 0)
(3.82803e-09 -9.13714e-07 0)
(3.78274e-09 -9.14756e-07 0)
(3.73709e-09 -9.15798e-07 0)
(3.69108e-09 -9.16838e-07 0)
(3.64471e-09 -9.17877e-07 0)
(3.59798e-09 -9.18913e-07 0)
(3.55089e-09 -9.19947e-07 0)
(3.50343e-09 -9.20978e-07 0)
(3.45562e-09 -9.22007e-07 0)
(3.40746e-09 -9.23032e-07 0)
(3.35893e-09 -9.24054e-07 0)
(3.31005e-09 -9.25072e-07 0)
(3.26082e-09 -9.26086e-07 0)
(3.21124e-09 -9.27095e-07 0)
(3.16131e-09 -9.281e-07 0)
(3.11103e-09 -9.291e-07 0)
(3.0604e-09 -9.30094e-07 0)
(3.00944e-09 -9.31083e-07 0)
(2.95813e-09 -9.32065e-07 0)
(2.90648e-09 -9.33041e-07 0)
(2.8545e-09 -9.3401e-07 0)
(2.80219e-09 -9.34972e-07 0)
(2.74956e-09 -9.35926e-07 0)
(2.6966e-09 -9.36872e-07 0)
(2.64332e-09 -9.3781e-07 0)
(2.58972e-09 -9.38739e-07 0)
(2.53581e-09 -9.39659e-07 0)
(2.48159e-09 -9.40569e-07 0)
(2.42708e-09 -9.4147e-07 0)
(2.37226e-09 -9.42359e-07 0)
(2.31715e-09 -9.43238e-07 0)
(2.26176e-09 -9.44105e-07 0)
(2.20609e-09 -9.4496e-07 0)
(2.15014e-09 -9.45803e-07 0)
(2.09392e-09 -9.46634e-07 0)
(2.03744e-09 -9.47451e-07 0)
(1.98071e-09 -9.48254e-07 0)
(1.92373e-09 -9.49042e-07 0)
(1.8665e-09 -9.49817e-07 0)
(1.80905e-09 -9.50575e-07 0)
(1.75137e-09 -9.51318e-07 0)
(1.69348e-09 -9.52045e-07 0)
(1.63538e-09 -9.52754e-07 0)
(1.57708e-09 -9.53447e-07 0)
(1.51859e-09 -9.54121e-07 0)
(1.45992e-09 -9.54777e-07 0)
(1.40108e-09 -9.55413e-07 0)
(1.34208e-09 -9.5603e-07 0)
(1.28293e-09 -9.56627e-07 0)
(1.22365e-09 -9.57203e-07 0)
(1.16424e-09 -9.57758e-07 0)
(1.10471e-09 -9.5829e-07 0)
(1.04508e-09 -9.588e-07 0)
(9.85359e-10 -9.59287e-07 0)
(9.25558e-10 -9.5975e-07 0)
(8.65692e-10 -9.60189e-07 0)
(8.05774e-10 -9.60603e-07 0)
(7.45816e-10 -9.60991e-07 0)
(6.85834e-10 -9.61353e-07 0)
(6.25841e-10 -9.61688e-07 0)
(5.65851e-10 -9.61995e-07 0)
(5.05881e-10 -9.62274e-07 0)
(4.45944e-10 -9.62525e-07 0)
(3.86057e-10 -9.62746e-07 0)
(3.26236e-10 -9.62937e-07 0)
(2.66496e-10 -9.63098e-07 0)
(2.06855e-10 -9.63227e-07 0)
(1.47329e-10 -9.63324e-07 0)
(8.79361e-11 -9.63389e-07 0)
(2.86926e-11 -9.63421e-07 0)
(-3.0383e-11 -9.63418e-07 0)
(-8.92728e-11 -9.63381e-07 0)
(-1.47958e-10 -9.63309e-07 0)
(-2.06421e-10 -9.63201e-07 0)
(-2.64642e-10 -9.63057e-07 0)
(-3.22601e-10 -9.62876e-07 0)
(-3.80281e-10 -9.62657e-07 0)
(-4.3766e-10 -9.624e-07 0)
(-4.94719e-10 -9.62104e-07 0)
(-5.51438e-10 -9.61769e-07 0)
(-6.07797e-10 -9.61393e-07 0)
(-6.63775e-10 -9.60977e-07 0)
(-7.19351e-10 -9.6052e-07 0)
(-7.74505e-10 -9.60021e-07 0)
(-8.29215e-10 -9.59479e-07 0)
(-8.83461e-10 -9.58895e-07 0)
(-9.37222e-10 -9.58267e-07 0)
(-9.90475e-10 -9.57595e-07 0)
(-1.0432e-09 -9.56878e-07 0)
(-1.09538e-09 -9.56117e-07 0)
(-1.14698e-09 -9.5531e-07 0)
(-1.19799e-09 -9.54457e-07 0)
(-1.24839e-09 -9.53558e-07 0)
(-1.29816e-09 -9.52611e-07 0)
(-1.34726e-09 -9.51618e-07 0)
(-1.39569e-09 -9.50577e-07 0)
(-1.44342e-09 -9.49487e-07 0)
(-1.49043e-09 -9.48349e-07 0)
(-1.5367e-09 -9.47162e-07 0)
(-1.58221e-09 -9.45927e-07 0)
(-1.62694e-09 -9.44641e-07 0)
(-1.67086e-09 -9.43306e-07 0)
(-1.71396e-09 -9.41921e-07 0)
(-1.75623e-09 -9.40485e-07 0)
(-1.79763e-09 -9.38999e-07 0)
(-1.83815e-09 -9.37462e-07 0)
(-1.87777e-09 -9.35875e-07 0)
(-1.91647e-09 -9.34236e-07 0)
(-1.95424e-09 -9.32546e-07 0)
(-1.99106e-09 -9.30805e-07 0)
(-2.02691e-09 -9.29013e-07 0)
(-2.06177e-09 -9.2717e-07 0)
(-2.09563e-09 -9.25275e-07 0)
(-2.12847e-09 -9.23329e-07 0)
(-2.16029e-09 -9.21332e-07 0)
(-2.19105e-09 -9.19283e-07 0)
(-2.22076e-09 -9.17184e-07 0)
(-2.2494e-09 -9.15034e-07 0)
(-2.27695e-09 -9.12833e-07 0)
(-2.3034e-09 -9.10582e-07 0)
(-2.32875e-09 -9.08281e-07 0)
(-2.35298e-09 -9.0593e-07 0)
(-2.37609e-09 -9.03529e-07 0)
(-2.39806e-09 -9.01079e-07 0)
(-2.41888e-09 -8.98581e-07 0)
(-2.43856e-09 -8.96034e-07 0)
(-2.45708e-09 -8.93439e-07 0)
(-2.47445e-09 -8.90797e-07 0)
(-2.49064e-09 -8.88108e-07 0)
(-2.50567e-09 -8.85373e-07 0)
(-2.51953e-09 -8.82592e-07 0)
(-2.53221e-09 -8.79766e-07 0)
(-2.54371e-09 -8.76896e-07 0)
(-2.55405e-09 -8.73982e-07 0)
(-2.5632e-09 -8.71025e-07 0)
(-2.57119e-09 -8.68027e-07 0)
(-2.578e-09 -8.64986e-07 0)
(-2.58365e-09 -8.61906e-07 0)
(-2.58814e-09 -8.58786e-07 0)
(-2.59147e-09 -8.55627e-07 0)
(-2.59364e-09 -8.52431e-07 0)
(-2.59467e-09 -8.49198e-07 0)
(-2.59457e-09 -8.45929e-07 0)
(-2.59332e-09 -8.42624e-07 0)
(-2.59101e-09 -8.39292e-07 0)
(-2.58736e-09 -8.35885e-07 0)
(-2.5821e-09 -8.32125e-07 0)
(-2.57522e-09 -8.28007e-07 0)
(-2.56668e-09 -8.23816e-07 0)
(-2.55669e-09 -8.19649e-07 0)
(-2.54538e-09 -8.15524e-07 0)
(-2.53284e-09 -8.11422e-07 0)
(-2.51915e-09 -8.07336e-07 0)
(-2.50436e-09 -8.03271e-07 0)
(-2.48853e-09 -7.9923e-07 0)
(-2.47174e-09 -7.95217e-07 0)
(-2.45402e-09 -7.91233e-07 0)
(-2.43545e-09 -7.87277e-07 0)
(-2.41606e-09 -7.83352e-07 0)
(-2.39592e-09 -7.7946e-07 0)
(-2.37507e-09 -7.756e-07 0)
(-2.35355e-09 -7.71775e-07 0)
(-2.33141e-09 -7.67985e-07 0)
(-2.30869e-09 -7.64231e-07 0)
(-2.28542e-09 -7.60515e-07 0)
(-2.26164e-09 -7.56837e-07 0)
(-2.23738e-09 -7.53198e-07 0)
(-2.21269e-09 -7.49598e-07 0)
(-2.18758e-09 -7.46039e-07 0)
(-2.16208e-09 -7.4252e-07 0)
(-2.13623e-09 -7.39044e-07 0)
(-2.11004e-09 -7.35609e-07 0)
(-2.08354e-09 -7.32217e-07 0)
(-2.05676e-09 -7.28868e-07 0)
(-2.0297e-09 -7.25563e-07 0)
(-2.0024e-09 -7.22301e-07 0)
(-1.97487e-09 -7.19084e-07 0)
(-1.94712e-09 -7.15912e-07 0)
(-1.91917e-09 -7.12785e-07 0)
(-1.89104e-09 -7.09703e-07 0)
(-1.86273e-09 -7.06667e-07 0)
(-1.83426e-09 -7.03676e-07 0)
(-1.80565e-09 -7.00732e-07 0)
(-1.77689e-09 -6.97835e-07 0)
(-1.748e-09 -6.94984e-07 0)
(-1.71898e-09 -6.9218e-07 0)
(-1.68985e-09 -6.89423e-07 0)
(-1.66061e-09 -6.86713e-07 0)
(-1.63127e-09 -6.8405e-07 0)
(-1.60183e-09 -6.81435e-07 0)
(-1.57229e-09 -6.78868e-07 0)
(-1.54267e-09 -6.76348e-07 0)
(-1.51296e-09 -6.73877e-07 0)
(-1.48317e-09 -6.71454e-07 0)
(-1.4533e-09 -6.69079e-07 0)
(-1.42335e-09 -6.66752e-07 0)
(-1.39333e-09 -6.64474e-07 0)
(-1.36323e-09 -6.62244e-07 0)
(-1.33307e-09 -6.60064e-07 0)
(-1.30283e-09 -6.57932e-07 0)
(-1.27252e-09 -6.55849e-07 0)
(-1.24214e-09 -6.53815e-07 0)
(-1.2117e-09 -6.5183e-07 0)
(-1.18119e-09 -6.49895e-07 0)
(-1.15061e-09 -6.48009e-07 0)
(-1.11996e-09 -6.46172e-07 0)
(-1.08924e-09 -6.44386e-07 0)
(-1.05846e-09 -6.42648e-07 0)
(-1.02761e-09 -6.40961e-07 0)
(-9.96698e-10 -6.39324e-07 0)
(-9.65717e-10 -6.37737e-07 0)
(-9.3467e-10 -6.362e-07 0)
(-9.03557e-10 -6.34713e-07 0)
(-8.72379e-10 -6.33276e-07 0)
(-8.41136e-10 -6.31891e-07 0)
(-8.09829e-10 -6.30555e-07 0)
(-7.78459e-10 -6.29271e-07 0)
(-7.47026e-10 -6.28037e-07 0)
(-7.15531e-10 -6.26854e-07 0)
(-6.83976e-10 -6.25722e-07 0)
(-6.52361e-10 -6.24641e-07 0)
(-6.20689e-10 -6.23611e-07 0)
(-5.8896e-10 -6.22633e-07 0)
(-5.57177e-10 -6.21706e-07 0)
(-5.25341e-10 -6.2083e-07 0)
(-4.93455e-10 -6.20006e-07 0)
(-4.6152e-10 -6.19234e-07 0)
(-4.29539e-10 -6.18513e-07 0)
(-3.97514e-10 -6.17844e-07 0)
(-3.65448e-10 -6.17227e-07 0)
(-3.33344e-10 -6.16661e-07 0)
(-3.01204e-10 -6.16152e-07 0)
(-2.69031e-10 -6.15677e-07 0)
(-2.36834e-10 -6.15311e-07 0)
(-2.04592e-10 -6.14811e-07 0)
(-1.7239e-10 -6.14972e-07 0)
(-1.39963e-10 -6.13123e-07 0)
(-1.0821e-10 -6.1791e-07 0)
(-7.42667e-11 -5.99273e-07 0)
(-4.79634e-11 -6.48385e-07 0)
(-2.01075e-11 -5.66267e-07 0)
)
;
    }
    bottomWall
    {
        type            calculated;
        value           nonuniform List<vector> 
449
(
(-48.5247 -0.963997 0)
(-19.7486 -0.0051545 0)
(-14.3416 -0.0011347 0)
(-12.0321 -0.000545456 0)
(-10.6261 -0.000351486 0)
(-9.63234 -0.000255988 0)
(-8.87428 -0.000198481 0)
(-8.27079 -0.000159812 0)
(-7.77537 -0.000132322 0)
(-7.35875 -0.000111976 0)
(-7.00175 -9.6376e-05 0)
(-6.69133 -8.40695e-05 0)
(-6.41818 -7.41518e-05 0)
(-6.17539 -6.60245e-05 0)
(-5.9577 -5.92677e-05 0)
(-5.76106 -5.35783e-05 0)
(-5.58226 -4.87342e-05 0)
(-5.41876 -4.45694e-05 0)
(-5.26847 -4.0958e-05 0)
(-5.12971 -3.78025e-05 0)
(-5.00106 -3.50262e-05 0)
(-4.88135 -3.25685e-05 0)
(-4.76959 -3.03805e-05 0)
(-4.66492 -2.84227e-05 0)
(-4.56663 -2.66625e-05 0)
(-4.47408 -2.50732e-05 0)
(-4.38674 -2.36325e-05 0)
(-4.30412 -2.23218e-05 0)
(-4.22583 -2.11252e-05 0)
(-4.15148 -2.00293e-05 0)
(-4.08076 -1.90227e-05 0)
(-4.01338 -1.80956e-05 0)
(-3.94908 -1.72395e-05 0)
(-3.88764 -1.6447e-05 0)
(-3.82883 -1.57117e-05 0)
(-3.77249 -1.50281e-05 0)
(-3.71844 -1.43912e-05 0)
(-3.66653 -1.37967e-05 0)
(-3.61661 -1.32407e-05 0)
(-3.56857 -1.27199e-05 0)
(-3.52229 -1.22313e-05 0)
(-3.47766 -1.17721e-05 0)
(-3.43458 -1.13399e-05 0)
(-3.39297 -1.09327e-05 0)
(-3.35274 -1.05483e-05 0)
(-3.31382 -1.01851e-05 0)
(-3.27614 -9.84152e-06 0)
(-3.23963 -9.51607e-06 0)
(-3.20423 -9.20745e-06 0)
(-3.16989 -8.91448e-06 0)
(-3.13655 -8.63609e-06 0)
(-3.10416 -8.37128e-06 0)
(-3.07269 -8.11915e-06 0)
(-3.04208 -7.87888e-06 0)
(-3.0123 -7.64969e-06 0)
(-2.98331 -7.43091e-06 0)
(-2.95508 -7.22187e-06 0)
(-2.92757 -7.02199e-06 0)
(-2.90075 -6.83072e-06 0)
(-2.8746 -6.64756e-06 0)
(-2.84908 -6.47203e-06 0)
(-2.82417 -6.3037e-06 0)
(-2.79984 -6.14218e-06 0)
(-2.77608 -5.98707e-06 0)
(-2.75286 -5.83804e-06 0)
(-2.73016 -5.69477e-06 0)
(-2.70796 -5.55693e-06 0)
(-2.68625 -5.42427e-06 0)
(-2.66499 -5.2965e-06 0)
(-2.64419 -5.17339e-06 0)
(-2.62382 -5.05469e-06 0)
(-2.60387 -4.94021e-06 0)
(-2.58431 -4.82972e-06 0)
(-2.56515 -4.72305e-06 0)
(-2.54637 -4.62e-06 0)
(-2.52795 -4.52042e-06 0)
(-2.50988 -4.42414e-06 0)
(-2.49215 -4.33102e-06 0)
(-2.47475 -4.2409e-06 0)
(-2.45767 -4.15367e-06 0)
(-2.4409 -4.06919e-06 0)
(-2.42444 -3.98735e-06 0)
(-2.40826 -3.90803e-06 0)
(-2.39236 -3.83113e-06 0)
(-2.37674 -3.75654e-06 0)
(-2.36139 -3.68417e-06 0)
(-2.34629 -3.61394e-06 0)
(-2.33145 -3.54575e-06 0)
(-2.31685 -3.47952e-06 0)
(-2.30249 -3.41518e-06 0)
(-2.28836 -3.35266e-06 0)
(-2.27445 -3.29188e-06 0)
(-2.26076 -3.23277e-06 0)
(-2.24729 -3.17528e-06 0)
(-2.23402 -3.11934e-06 0)
(-2.22095 -3.0649e-06 0)
(-2.20808 -3.01191e-06 0)
(-2.19541 -2.9603e-06 0)
(-2.18291 -2.91003e-06 0)
(-2.17061 -2.86105e-06 0)
(-2.15848 -2.81333e-06 0)
(-2.14652 -2.7668e-06 0)
(-2.13473 -2.72144e-06 0)
(-2.12311 -2.6772e-06 0)
(-2.11164 -2.63405e-06 0)
(-2.10034 -2.59195e-06 0)
(-2.08919 -2.55086e-06 0)
(-2.07819 -2.51075e-06 0)
(-2.06733 -2.47159e-06 0)
(-2.05662 -2.43335e-06 0)
(-2.04605 -2.396e-06 0)
(-2.03561 -2.35951e-06 0)
(-2.02531 -2.32385e-06 0)
(-2.01515 -2.289e-06 0)
(-2.00511 -2.25493e-06 0)
(-1.99519 -2.22163e-06 0)
(-1.9854 -2.18905e-06 0)
(-1.97573 -2.1572e-06 0)
(-1.96617 -2.12603e-06 0)
(-1.95673 -2.09554e-06 0)
(-1.94741 -2.0657e-06 0)
(-1.93819 -2.03649e-06 0)
(-1.92909 -2.0079e-06 0)
(-1.92008 -1.97991e-06 0)
(-1.91119 -1.9525e-06 0)
(-1.90239 -1.92565e-06 0)
(-1.8937 -1.89935e-06 0)
(-1.8851 -1.87358e-06 0)
(-1.8766 -1.84833e-06 0)
(-1.8682 -1.82358e-06 0)
(-1.85988 -1.79933e-06 0)
(-1.85166 -1.77555e-06 0)
(-1.84353 -1.75224e-06 0)
(-1.83548 -1.72938e-06 0)
(-1.82752 -1.70696e-06 0)
(-1.81965 -1.68497e-06 0)
(-1.81185 -1.6634e-06 0)
(-1.80414 -1.64224e-06 0)
(-1.79651 -1.62147e-06 0)
(-1.78896 -1.60109e-06 0)
(-1.78148 -1.58108e-06 0)
(-1.77408 -1.56144e-06 0)
(-1.76676 -1.54216e-06 0)
(-1.7595 -1.52323e-06 0)
(-1.75232 -1.50464e-06 0)
(-1.74521 -1.48638e-06 0)
(-1.73817 -1.46845e-06 0)
(-1.7312 -1.45083e-06 0)
(-1.72429 -1.43353e-06 0)
(-1.71745 -1.41652e-06 0)
(-1.71068 -1.39981e-06 0)
(-1.70397 -1.38339e-06 0)
(-1.69732 -1.36724e-06 0)
(-1.69073 -1.35138e-06 0)
(-1.68421 -1.33578e-06 0)
(-1.67774 -1.32044e-06 0)
(-1.67134 -1.30536e-06 0)
(-1.66499 -1.29053e-06 0)
(-1.6587 -1.27594e-06 0)
(-1.65246 -1.26159e-06 0)
(-1.64628 -1.24748e-06 0)
(-1.64016 -1.2336e-06 0)
(-1.63409 -1.21994e-06 0)
(-1.62807 -1.2065e-06 0)
(-1.6221 -1.19327e-06 0)
(-1.61619 -1.18026e-06 0)
(-1.61032 -1.16744e-06 0)
(-1.60451 -1.15484e-06 0)
(-1.59874 -1.14245e-06 0)
(-1.59303 -1.13012e-06 0)
(-1.58736 -1.11844e-06 0)
(-1.58173 -1.10634e-06 0)
(-1.57616 -1.0932e-06 0)
(-1.57095 -1.08302e-06 0)
(-1.56605 -1.07479e-06 0)
(-1.56113 -1.06444e-06 0)
(-1.55622 -1.05375e-06 0)
(-1.5513 -1.04374e-06 0)
(-1.54637 -1.03371e-06 0)
(-1.54144 -1.02379e-06 0)
(-1.5365 -1.01394e-06 0)
(-1.53156 -1.00415e-06 0)
(-1.52661 -9.9442e-07 0)
(-1.52165 -9.84749e-07 0)
(-1.51669 -9.75134e-07 0)
(-1.51173 -9.65576e-07 0)
(-1.50676 -9.56072e-07 0)
(-1.50179 -9.46624e-07 0)
(-1.49681 -9.3723e-07 0)
(-1.49183 -9.27892e-07 0)
(-1.48684 -9.1861e-07 0)
(-1.48185 -9.09382e-07 0)
(-1.47686 -9.00211e-07 0)
(-1.47186 -8.91096e-07 0)
(-1.46686 -8.82037e-07 0)
(-1.46186 -8.73034e-07 0)
(-1.45686 -8.64088e-07 0)
(-1.45185 -8.55199e-07 0)
(-1.44684 -8.46367e-07 0)
(-1.44183 -8.37593e-07 0)
(-1.43682 -8.28876e-07 0)
(-1.4318 -8.20217e-07 0)
(-1.42679 -8.11616e-07 0)
(-1.42177 -8.03073e-07 0)
(-1.41675 -7.94588e-07 0)
(-1.41173 -7.86162e-07 0)
(-1.40671 -7.77795e-07 0)
(-1.40169 -7.69486e-07 0)
(-1.39667 -7.61236e-07 0)
(-1.39165 -7.53045e-07 0)
(-1.38663 -7.44913e-07 0)
(-1.38161 -7.36841e-07 0)
(-1.37659 -7.28828e-07 0)
(-1.37157 -7.20874e-07 0)
(-1.36655 -7.1298e-07 0)
(-1.36153 -7.05145e-07 0)
(-1.35652 -6.97369e-07 0)
(-1.3515 -6.89654e-07 0)
(-1.34649 -6.81997e-07 0)
(-1.34148 -6.74401e-07 0)
(-1.33647 -6.66864e-07 0)
(-1.33146 -6.59387e-07 0)
(-1.32646 -6.51969e-07 0)
(-1.32146 -6.44611e-07 0)
(-1.31646 -6.37312e-07 0)
(-1.31146 -6.30073e-07 0)
(-1.30647 -6.22894e-07 0)
(-1.30148 -6.15774e-07 0)
(-1.2965 -6.08713e-07 0)
(-1.29151 -6.01712e-07 0)
(-1.28654 -5.94769e-07 0)
(-1.28156 -5.87886e-07 0)
(-1.27659 -5.81062e-07 0)
(-1.27163 -5.74297e-07 0)
(-1.26666 -5.6759e-07 0)
(-1.26171 -5.60943e-07 0)
(-1.25676 -5.54353e-07 0)
(-1.25181 -5.47822e-07 0)
(-1.24687 -5.4135e-07 0)
(-1.24193 -5.34935e-07 0)
(-1.237 -5.28579e-07 0)
(-1.23208 -5.2228e-07 0)
(-1.22716 -5.16039e-07 0)
(-1.22225 -5.09855e-07 0)
(-1.21734 -5.03728e-07 0)
(-1.21244 -4.97659e-07 0)
(-1.20755 -4.91646e-07 0)
(-1.20266 -4.8569e-07 0)
(-1.19778 -4.7979e-07 0)
(-1.19291 -4.73947e-07 0)
(-1.18804 -4.6816e-07 0)
(-1.18319 -4.62428e-07 0)
(-1.17833 -4.56752e-07 0)
(-1.17349 -4.51131e-07 0)
(-1.16865 -4.45565e-07 0)
(-1.16383 -4.40054e-07 0)
(-1.15901 -4.34598e-07 0)
(-1.15419 -4.29196e-07 0)
(-1.14939 -4.23847e-07 0)
(-1.14459 -4.18553e-07 0)
(-1.13981 -4.13312e-07 0)
(-1.13503 -4.08124e-07 0)
(-1.13026 -4.02989e-07 0)
(-1.1255 -3.97907e-07 0)
(-1.12075 -3.92877e-07 0)
(-1.116 -3.879e-07 0)
(-1.11127 -3.82974e-07 0)
(-1.10655 -3.78099e-07 0)
(-1.10183 -3.73276e-07 0)
(-1.09713 -3.68503e-07 0)
(-1.09243 -3.63781e-07 0)
(-1.08775 -3.59109e-07 0)
(-1.08307 -3.54487e-07 0)
(-1.07841 -3.49915e-07 0)
(-1.07375 -3.45392e-07 0)
(-1.06911 -3.40918e-07 0)
(-1.06447 -3.36492e-07 0)
(-1.05985 -3.32115e-07 0)
(-1.05524 -3.27786e-07 0)
(-1.05063 -3.23504e-07 0)
(-1.04604 -3.1927e-07 0)
(-1.04146 -3.15083e-07 0)
(-1.03689 -3.10942e-07 0)
(-1.03233 -3.06847e-07 0)
(-1.02779 -3.02799e-07 0)
(-1.02325 -2.98796e-07 0)
(-1.01873 -2.94839e-07 0)
(-1.01421 -2.90926e-07 0)
(-1.00971 -2.87058e-07 0)
(-1.00522 -2.83234e-07 0)
(-1.00074 -2.79454e-07 0)
(-0.996276 -2.75718e-07 0)
(-0.991821 -2.72024e-07 0)
(-0.987378 -2.68374e-07 0)
(-0.982948 -2.64766e-07 0)
(-0.978529 -2.612e-07 0)
(-0.974123 -2.57676e-07 0)
(-0.969728 -2.54194e-07 0)
(-0.965346 -2.50752e-07 0)
(-0.960977 -2.47351e-07 0)
(-0.95662 -2.43991e-07 0)
(-0.952276 -2.40671e-07 0)
(-0.947944 -2.3739e-07 0)
(-0.943624 -2.34149e-07 0)
(-0.939318 -2.30947e-07 0)
(-0.935024 -2.27783e-07 0)
(-0.930743 -2.24658e-07 0)
(-0.926475 -2.2157e-07 0)
(-0.92222 -2.1852e-07 0)
(-0.917978 -2.15508e-07 0)
(-0.913749 -2.12532e-07 0)
(-0.909533 -2.09593e-07 0)
(-0.905331 -2.0669e-07 0)
(-0.901141 -2.03823e-07 0)
(-0.896965 -2.00991e-07 0)
(-0.892802 -1.98195e-07 0)
(-0.888652 -1.95434e-07 0)
(-0.884516 -1.92707e-07 0)
(-0.880393 -1.90014e-07 0)
(-0.876284 -1.87355e-07 0)
(-0.872188 -1.84729e-07 0)
(-0.868106 -1.82137e-07 0)
(-0.864037 -1.79577e-07 0)
(-0.859982 -1.7705e-07 0)
(-0.85594 -1.74555e-07 0)
(-0.851913 -1.72092e-07 0)
(-0.847899 -1.6966e-07 0)
(-0.843898 -1.6726e-07 0)
(-0.839912 -1.6489e-07 0)
(-0.835939 -1.62551e-07 0)
(-0.83198 -1.60242e-07 0)
(-0.828035 -1.57963e-07 0)
(-0.824104 -1.55713e-07 0)
(-0.820187 -1.53493e-07 0)
(-0.816283 -1.51302e-07 0)
(-0.812394 -1.49139e-07 0)
(-0.808519 -1.47005e-07 0)
(-0.804657 -1.44898e-07 0)
(-0.80081 -1.4282e-07 0)
(-0.796976 -1.40768e-07 0)
(-0.793157 -1.38744e-07 0)
(-0.789351 -1.36746e-07 0)
(-0.78556 -1.34775e-07 0)
(-0.781783 -1.3283e-07 0)
(-0.778019 -1.30911e-07 0)
(-0.77427 -1.29017e-07 0)
(-0.770535 -1.27149e-07 0)
(-0.766815 -1.25305e-07 0)
(-0.763108 -1.23484e-07 0)
(-0.759415 -1.2169e-07 0)
(-0.755737 -1.19915e-07 0)
(-0.752073 -1.18127e-07 0)
(-0.748425 -1.16489e-07 0)
(-0.744784 -1.14861e-07 0)
(-0.740753 -1.12875e-07 0)
(-0.736381 -1.10764e-07 0)
(-0.732088 -1.08864e-07 0)
(-0.727864 -1.07065e-07 0)
(-0.723711 -1.05255e-07 0)
(-0.719629 -1.03481e-07 0)
(-0.715616 -1.01751e-07 0)
(-0.711669 -1.00068e-07 0)
(-0.707787 -9.84301e-08 0)
(-0.703968 -9.68358e-08 0)
(-0.700211 -9.52837e-08 0)
(-0.696514 -9.37727e-08 0)
(-0.692875 -9.23011e-08 0)
(-0.689293 -9.08676e-08 0)
(-0.685766 -8.94709e-08 0)
(-0.682293 -8.81096e-08 0)
(-0.678873 -8.67825e-08 0)
(-0.675504 -8.54884e-08 0)
(-0.672185 -8.42262e-08 0)
(-0.668914 -8.29948e-08 0)
(-0.665692 -8.17931e-08 0)
(-0.662515 -8.06202e-08 0)
(-0.659384 -7.94751e-08 0)
(-0.656298 -7.83568e-08 0)
(-0.653254 -7.72646e-08 0)
(-0.650253 -7.61975e-08 0)
(-0.647293 -7.51549e-08 0)
(-0.644373 -7.41358e-08 0)
(-0.641493 -7.31396e-08 0)
(-0.638651 -7.21656e-08 0)
(-0.635847 -7.1213e-08 0)
(-0.63308 -7.02813e-08 0)
(-0.630349 -6.93697e-08 0)
(-0.627653 -6.84778e-08 0)
(-0.624992 -6.76048e-08 0)
(-0.622364 -6.67504e-08 0)
(-0.61977 -6.59138e-08 0)
(-0.617207 -6.50946e-08 0)
(-0.614677 -6.42924e-08 0)
(-0.612178 -6.35065e-08 0)
(-0.609709 -6.27366e-08 0)
(-0.607269 -6.19823e-08 0)
(-0.60486 -6.1243e-08 0)
(-0.602478 -6.05184e-08 0)
(-0.600125 -5.98081e-08 0)
(-0.597799 -5.91117e-08 0)
(-0.5955 -5.84288e-08 0)
(-0.593228 -5.7759e-08 0)
(-0.590982 -5.71021e-08 0)
(-0.588761 -5.64577e-08 0)
(-0.586565 -5.58255e-08 0)
(-0.584393 -5.52052e-08 0)
(-0.582246 -5.45964e-08 0)
(-0.580122 -5.39989e-08 0)
(-0.578021 -5.34124e-08 0)
(-0.575944 -5.28366e-08 0)
(-0.573888 -5.22714e-08 0)
(-0.571854 -5.17164e-08 0)
(-0.569842 -5.11714e-08 0)
(-0.567851 -5.06361e-08 0)
(-0.565881 -5.01104e-08 0)
(-0.563931 -4.95941e-08 0)
(-0.562001 -4.9087e-08 0)
(-0.56009 -4.85888e-08 0)
(-0.558199 -4.80993e-08 0)
(-0.556327 -4.76186e-08 0)
(-0.554474 -4.71462e-08 0)
(-0.552639 -4.66822e-08 0)
(-0.550822 -4.62264e-08 0)
(-0.549023 -4.57786e-08 0)
(-0.54724 -4.53388e-08 0)
(-0.545476 -4.4907e-08 0)
(-0.543727 -4.44829e-08 0)
(-0.541995 -4.40667e-08 0)
(-0.54028 -4.36582e-08 0)
(-0.53858 -4.32577e-08 0)
(-0.536896 -4.28651e-08 0)
(-0.535227 -4.24807e-08 0)
(-0.533572 -4.21048e-08 0)
(-0.531933 -4.17377e-08 0)
(-0.530307 -4.13802e-08 0)
(-0.528695 -4.1033e-08 0)
(-0.527097 -4.06977e-08 0)
(-0.525511 -4.03755e-08 0)
(-0.523938 -4.00697e-08 0)
(-0.522377 -3.97925e-08 0)
(-0.520825 -3.95138e-08 0)
(-0.519285 -3.92928e-08 0)
(-0.517751 -3.93536e-08 0)
(-0.516207 -3.86729e-08 0)
(-0.514726 -3.78035e-08 0)
(-0.513249 -4.99617e-08 0)
(-0.510817 -1.39796e-08 0)
(-0.512167 -3.68783e-08 0)
(-0.507889 -5.56136e-08 0)
)
;
    }
    symmetry
    {
        type            symmetryPlane;
    }
    frontAndBack
    {
        type            empty;
    }
}


// ************************************************************************* //
