/*--------------------------------*- C++ -*----------------------------------*\
| =========                 |                                                 |
| \\      /  F ield         | OpenFOAM: The Open Source CFD Toolbox           |
|  \\    /   O peration     | Version:  v2012                                 |
|   \\  /    A nd           | Website:  www.openfoam.com                      |
|    \\/     M anipulation  |                                                 |
\*---------------------------------------------------------------------------*/
FoamFile
{
    version     2.0;
    format      ascii;
    class       volScalarField;
    location    "7.5";
    object      k;
}
// * * * * * * * * * * * * * * * * * * * * * * * * * * * * * * * * * * * * * //

dimensions      [0 2 -2 0 0 0 0];


internalField   nonuniform List<scalar> 
209825
(
0.0010324
0.00100384
0.000993115
0.000987925
0.00098493
0.000983087
0.000981837
0.000980996
0.000980374
0.000979937
0.000979595
0.000979349
0.000979146
0.000979
0.000978876
0.000978786
0.000978697
0.00097864
0.000978595
0.000978559
0.00097851
0.000978488
0.00097847
0.00097845
0.000978401
0.000978402
0.000978401
0.000978397
0.00097838
0.00097839
0.00097839
0.000978398
0.000978386
0.000978451
0.000978451
0.000978453
0.000978447
0.000978489
0.000978489
0.000978499
0.000978499
0.000978563
0.000978563
0.000978568
0.000978567
0.000978657
0.000978681
0.000978694
0.000978694
0.000978707
0.000978707
0.000978822
0.000978822
0.000978821
0.000978812
0.000978855
0.000978855
0.000978986
0.00097904
0.00097904
0.000979038
0.000979172
0.000979197
0.000979197
0.000979195
0.000979319
0.000979456
0.000979532
0.000979532
0.000979532
0.000979692
0.000979857
0.000979865
0.000979981
0.000980193
0.000980284
0.000980284
0.000980424
0.000980675
0.000980898
0.0009811
0.000981362
0.000981623
0.000981878
0.000982251
0.000982689
0.000983164
0.000983746
0.000984556
0.000985421
0.000986703
0.000988809
0.000990138
0.00100507
0.00107126
0.00233712
0.0010324
0.00100383
0.000993094
0.000987899
0.000984901
0.000983056
0.000981804
0.000980963
0.00098034
0.000979903
0.000979559
0.000979313
0.00097911
0.000978964
0.00097884
0.000978749
0.00097866
0.000978603
0.000978558
0.000978522
0.000978473
0.000978451
0.000978433
0.000978412
0.000978364
0.000978365
0.000978364
0.00097836
0.000978342
0.000978353
0.000978353
0.000978361
0.000978348
0.000978413
0.000978413
0.000978415
0.000978409
0.000978452
0.000978452
0.000978461
0.000978461
0.000978526
0.000978526
0.00097853
0.000978529
0.000978619
0.000978643
0.000978657
0.000978657
0.00097867
0.000978669
0.000978784
0.000978784
0.000978784
0.000978774
0.000978818
0.000978818
0.000978949
0.000979002
0.000979003
0.000979
0.000979134
0.00097916
0.00097916
0.000979157
0.000979281
0.000979419
0.000979495
0.000979495
0.000979495
0.000979655
0.00097982
0.000979828
0.000979944
0.000980156
0.000980248
0.000980248
0.000980387
0.000980638
0.000980862
0.000981064
0.000981326
0.000981587
0.000981842
0.000982216
0.000982654
0.000983129
0.000983711
0.000984521
0.000985387
0.000986669
0.000988777
0.000990104
0.00100507
0.00107131
0.00233859
0.00103237
0.00100376
0.000992998
0.000987786
0.000984778
0.000982925
0.000981669
0.000980823
0.000980197
0.000979758
0.000979413
0.000979165
0.000978961
0.000978814
0.000978689
0.000978598
0.000978508
0.000978451
0.000978405
0.000978368
0.00097832
0.000978297
0.000978279
0.000978258
0.00097821
0.000978211
0.00097821
0.000978205
0.000978188
0.000978198
0.000978198
0.000978206
0.000978193
0.000978258
0.000978258
0.00097826
0.000978254
0.000978297
0.000978297
0.000978306
0.000978306
0.000978371
0.000978371
0.000978375
0.000978374
0.000978465
0.000978489
0.000978502
0.000978502
0.000978515
0.000978515
0.00097863
0.00097863
0.000978629
0.00097862
0.000978664
0.000978664
0.000978795
0.000978848
0.000978849
0.000978846
0.000978981
0.000979006
0.000979007
0.000979004
0.000979128
0.000979266
0.000979342
0.000979342
0.000979342
0.000979503
0.000979668
0.000979676
0.000979792
0.000980004
0.000980096
0.000980096
0.000980236
0.000980488
0.000980711
0.000980914
0.000981176
0.000981438
0.000981693
0.000982068
0.000982506
0.000982982
0.000983565
0.000984376
0.000985243
0.000986525
0.000988637
0.000989957
0.00100499
0.00107135
0.002342
0.00103234
0.00100364
0.000992835
0.000987596
0.000984571
0.000982705
0.00098144
0.000980588
0.000979957
0.000979514
0.000979166
0.000978916
0.00097871
0.000978561
0.000978435
0.000978343
0.000978252
0.000978195
0.000978148
0.000978111
0.000978062
0.000978039
0.00097802
0.000978
0.000977951
0.000977951
0.00097795
0.000977946
0.000977928
0.000977938
0.000977938
0.000977946
0.000977933
0.000977998
0.000977998
0.000978
0.000977994
0.000978036
0.000978036
0.000978046
0.000978045
0.00097811
0.00097811
0.000978115
0.000978114
0.000978204
0.000978229
0.000978242
0.000978242
0.000978255
0.000978255
0.00097837
0.00097837
0.000978369
0.00097836
0.000978404
0.000978404
0.000978535
0.000978589
0.000978589
0.000978587
0.000978722
0.000978748
0.000978748
0.000978746
0.00097887
0.000979008
0.000979085
0.000979085
0.000979085
0.000979246
0.000979411
0.000979421
0.000979537
0.000979748
0.000979842
0.000979842
0.000979982
0.000980234
0.000980458
0.000980661
0.000980924
0.000981187
0.000981443
0.000981818
0.000982258
0.000982734
0.000983319
0.00098413
0.000985
0.00098628
0.000988401
0.00098971
0.00100484
0.00107138
0.00234645
0.00103228
0.00100347
0.000992605
0.000987328
0.000984277
0.000982395
0.000981117
0.000980256
0.000979618
0.00097917
0.000978818
0.000978564
0.000978356
0.000978205
0.000978077
0.000977983
0.000977891
0.000977833
0.000977785
0.000977748
0.000977698
0.000977675
0.000977655
0.000977634
0.000977586
0.000977586
0.000977584
0.00097758
0.000977561
0.000977571
0.000977571
0.000977579
0.000977565
0.00097763
0.00097763
0.000977632
0.000977626
0.000977668
0.000977668
0.000977678
0.000977677
0.000977742
0.000977742
0.000977747
0.000977746
0.000977837
0.000977862
0.000977874
0.000977874
0.000977887
0.000977887
0.000978003
0.000978003
0.000978003
0.000977993
0.000978038
0.000978038
0.000978169
0.000978224
0.000978224
0.000978222
0.000978356
0.000978383
0.000978383
0.000978381
0.000978505
0.000978644
0.000978722
0.000978723
0.000978723
0.000978883
0.000979049
0.00097906
0.000979176
0.000979387
0.000979483
0.000979483
0.000979623
0.000979875
0.000980101
0.000980305
0.000980568
0.000980832
0.00098109
0.000981465
0.000981907
0.000982385
0.000982971
0.000983783
0.000984656
0.000985934
0.000988067
0.000989359
0.00100464
0.00107143
0.00235192
0.00103221
0.00100326
0.000992307
0.000986981
0.000983898
0.000981993
0.000980699
0.000979826
0.000979179
0.000978724
0.000978366
0.000978109
0.000977897
0.000977743
0.000977612
0.000977517
0.000977424
0.000977364
0.000977315
0.000977277
0.000977226
0.000977202
0.000977182
0.000977161
0.000977112
0.000977111
0.00097711
0.000977105
0.000977086
0.000977096
0.000977096
0.000977103
0.000977089
0.000977153
0.000977153
0.000977155
0.000977149
0.000977192
0.000977191
0.000977201
0.0009772
0.000977266
0.000977266
0.00097727
0.000977269
0.00097736
0.000977386
0.000977398
0.000977398
0.000977411
0.000977411
0.000977527
0.000977527
0.000977527
0.000977517
0.000977563
0.000977563
0.000977694
0.000977749
0.00097775
0.000977747
0.000977882
0.000977911
0.000977911
0.000977908
0.000978033
0.000978172
0.000978251
0.000978253
0.000978253
0.000978413
0.00097858
0.000978592
0.000978708
0.000978919
0.000979018
0.000979018
0.000979158
0.00097941
0.000979637
0.000979842
0.000980107
0.000980372
0.000980632
0.000981008
0.000981451
0.000981931
0.00098252
0.000983332
0.00098421
0.000985484
0.000987633
0.000988903
0.00100436
0.00107146
0.0023583
0.00103212
0.001003
0.000991941
0.000986553
0.00098343
0.000981497
0.000980184
0.000979296
0.000978638
0.000978174
0.00097781
0.000977547
0.000977331
0.000977173
0.00097704
0.000976943
0.000976847
0.000976786
0.000976735
0.000976696
0.000976645
0.00097662
0.000976599
0.000976577
0.000976528
0.000976527
0.000976525
0.000976519
0.0009765
0.000976509
0.000976509
0.000976516
0.000976502
0.000976566
0.000976566
0.000976568
0.000976561
0.000976604
0.000976604
0.000976613
0.000976612
0.000976678
0.000976678
0.000976683
0.000976681
0.000976773
0.0009768
0.000976812
0.000976812
0.000976824
0.000976824
0.000976941
0.000976941
0.00097694
0.000976931
0.000976977
0.000976977
0.000977109
0.000977165
0.000977165
0.000977163
0.000977298
0.000977328
0.000977328
0.000977325
0.00097745
0.00097759
0.00097767
0.000977673
0.000977673
0.000977833
0.000978002
0.000978016
0.000978132
0.000978342
0.000978443
0.000978444
0.000978585
0.000978837
0.000979065
0.000979271
0.000979538
0.000979805
0.000980067
0.000980444
0.000980889
0.000981371
0.000981962
0.000982776
0.000983659
0.000984929
0.000987097
0.00098834
0.00100403
0.00107149
0.00236543
0.00103202
0.00100268
0.000991506
0.000986044
0.000982873
0.000980907
0.00097957
0.000978664
0.000977993
0.000977519
0.000977147
0.000976877
0.000976656
0.000976494
0.000976358
0.000976258
0.00097616
0.000976096
0.000976044
0.000976004
0.000975951
0.000975925
0.000975904
0.000975881
0.000975832
0.00097583
0.000975827
0.000975821
0.000975801
0.00097581
0.00097581
0.000975816
0.000975801
0.000975865
0.000975865
0.000975867
0.00097586
0.000975903
0.000975903
0.000975912
0.000975911
0.000975977
0.000975977
0.000975982
0.00097598
0.000976073
0.000976101
0.000976112
0.000976112
0.000976124
0.000976124
0.000976242
0.000976241
0.000976241
0.000976232
0.000976279
0.000976279
0.000976411
0.000976468
0.000976468
0.000976466
0.000976601
0.000976632
0.000976633
0.00097663
0.000976756
0.000976896
0.000976978
0.000976982
0.000976982
0.000977141
0.000977311
0.000977328
0.000977444
0.000977654
0.000977758
0.000977759
0.0009779
0.000978153
0.000978383
0.000978591
0.000978859
0.000979128
0.000979392
0.000979771
0.000980219
0.000980702
0.000981298
0.000982112
0.000983002
0.000984267
0.000986457
0.000987668
0.00100363
0.00107147
0.00237301
0.0010319
0.00100232
0.000991001
0.000985453
0.000982225
0.000980221
0.000978856
0.00097793
0.000977243
0.000976757
0.000976375
0.000976098
0.000975871
0.000975704
0.000975564
0.00097546
0.00097536
0.000975294
0.00097524
0.000975198
0.000975144
0.000975117
0.000975094
0.000975071
0.000975021
0.000975018
0.000975015
0.000975008
0.000974988
0.000974996
0.000974996
0.000975002
0.000974986
0.00097505
0.00097505
0.000975051
0.000975044
0.000975087
0.000975087
0.000975096
0.000975095
0.000975161
0.000975161
0.000975166
0.000975164
0.000975257
0.000975287
0.000975297
0.000975297
0.000975309
0.000975309
0.000975427
0.000975427
0.000975427
0.000975418
0.000975466
0.000975466
0.000975598
0.000975656
0.000975656
0.000975654
0.00097579
0.000975823
0.000975823
0.000975821
0.000975947
0.000976088
0.000976172
0.000976178
0.000976178
0.000976336
0.000976508
0.000976527
0.000976643
0.000976853
0.00097696
0.000976962
0.000977103
0.000977357
0.000977588
0.000977798
0.000978068
0.00097834
0.000978607
0.000978986
0.000979438
0.000979924
0.000980523
0.000981338
0.000982235
0.000983495
0.00098571
0.000986884
0.00100316
0.00107138
0.00238061
0.00103176
0.00100191
0.000990425
0.000984779
0.000981486
0.000979438
0.00097804
0.00097709
0.000976386
0.000975886
0.000975493
0.000975208
0.000974973
0.000974801
0.000974656
0.000974548
0.000974445
0.000974376
0.00097432
0.000974276
0.000974221
0.000974192
0.000974168
0.000974144
0.000974093
0.00097409
0.000974086
0.000974079
0.000974058
0.000974066
0.000974065
0.00097407
0.000974053
0.000974117
0.000974117
0.000974118
0.00097411
0.000974153
0.000974153
0.000974163
0.000974161
0.000974228
0.000974228
0.000974232
0.00097423
0.000974324
0.000974355
0.000974365
0.000974365
0.000974377
0.000974377
0.000974496
0.000974496
0.000974495
0.000974486
0.000974536
0.000974536
0.000974668
0.000974728
0.000974728
0.000974725
0.000974862
0.000974897
0.000974897
0.000974895
0.000975021
0.000975164
0.000975249
0.000975257
0.000975257
0.000975415
0.000975588
0.00097561
0.000975727
0.000975936
0.000976047
0.00097605
0.000976192
0.000976446
0.00097668
0.000976891
0.000977163
0.000977437
0.000977708
0.000978089
0.000978544
0.000979032
0.000979636
0.000980452
0.000981358
0.000982611
0.000984855
0.000985986
0.00100262
0.00107119
0.00238761
0.00103161
0.00100144
0.000989778
0.00098402
0.000980654
0.000978555
0.000977121
0.000976144
0.000975419
0.000974904
0.000974499
0.000974203
0.000973961
0.000973782
0.000973632
0.00097352
0.000973413
0.000973341
0.000973283
0.000973236
0.000973179
0.000973149
0.000973124
0.000973099
0.000973047
0.000973043
0.000973038
0.00097303
0.000973008
0.000973016
0.000973015
0.000973019
0.000973001
0.000973065
0.000973065
0.000973066
0.000973057
0.0009731
0.0009731
0.000973109
0.000973108
0.000973175
0.000973175
0.000973179
0.000973177
0.000973272
0.000973305
0.000973313
0.000973313
0.000973325
0.000973326
0.000973445
0.000973445
0.000973445
0.000973436
0.000973488
0.000973488
0.000973619
0.00097368
0.00097368
0.000973678
0.000973815
0.000973852
0.000973853
0.00097385
0.000973977
0.000974121
0.000974209
0.000974219
0.000974219
0.000974376
0.000974551
0.000974577
0.000974693
0.000974902
0.000975017
0.00097502
0.000975163
0.000975418
0.000975654
0.000975867
0.000976142
0.000976419
0.000976693
0.000977076
0.000977535
0.000978026
0.000978635
0.000979452
0.000980367
0.000981613
0.000983888
0.000984973
0.00100202
0.00107091
0.00239317
0.00103144
0.00100093
0.00098906
0.000983176
0.000979729
0.000977572
0.000976097
0.000975091
0.000974343
0.000973809
0.00097339
0.000973084
0.000972832
0.000972647
0.00097249
0.000972374
0.000972262
0.000972187
0.000972125
0.000972077
0.000972018
0.000971986
0.000971959
0.000971934
0.000971881
0.000971875
0.000971869
0.000971861
0.000971838
0.000971844
0.000971844
0.000971847
0.000971828
0.000971891
0.000971891
0.000971892
0.000971883
0.000971926
0.000971926
0.000971935
0.000971933
0.000972001
0.000972001
0.000972005
0.000972003
0.000972098
0.000972133
0.00097214
0.00097214
0.000972152
0.000972152
0.000972273
0.000972273
0.000972273
0.000972264
0.000972318
0.000972317
0.000972449
0.000972512
0.000972512
0.000972509
0.000972647
0.000972687
0.000972687
0.000972685
0.000972812
0.000972958
0.000973048
0.00097306
0.00097306
0.000973217
0.000973394
0.000973423
0.00097354
0.000973748
0.000973867
0.000973872
0.000974016
0.00097427
0.000974509
0.000974725
0.000975003
0.000975283
0.000975561
0.000975945
0.000976409
0.000976903
0.000977517
0.000978336
0.000979261
0.000980498
0.000982808
0.00098384
0.00100134
0.00107052
0.0023962
0.00103126
0.00100037
0.000988269
0.000982247
0.000978708
0.000976488
0.000974968
0.000973927
0.000973154
0.0009726
0.000972166
0.000971847
0.000971586
0.000971392
0.000971228
0.000971107
0.000970991
0.000970912
0.000970847
0.000970796
0.000970734
0.0009707
0.000970672
0.000970645
0.000970591
0.000970584
0.000970577
0.000970568
0.000970544
0.00097055
0.00097055
0.000970552
0.000970531
0.000970594
0.000970593
0.000970594
0.000970585
0.000970628
0.000970627
0.000970636
0.000970634
0.000970703
0.000970703
0.000970706
0.000970704
0.0009708
0.000970837
0.000970844
0.000970844
0.000970856
0.000970856
0.000970977
0.000970977
0.000970977
0.000970968
0.000971024
0.000971024
0.000971155
0.00097122
0.00097122
0.000971218
0.000971356
0.000971399
0.000971399
0.000971396
0.000971525
0.000971672
0.000971764
0.000971779
0.000971779
0.000971935
0.000972114
0.000972147
0.000972264
0.000972472
0.000972595
0.000972603
0.000972747
0.000973002
0.000973244
0.000973462
0.000973743
0.000974026
0.000974309
0.000974695
0.000975163
0.00097566
0.000976281
0.0009771
0.000978036
0.000979265
0.000981611
0.000982587
0.0010006
0.00107002
0.0023967
0.00103107
0.000999756
0.000987407
0.000981231
0.000977591
0.000975302
0.000973731
0.000972653
0.000971851
0.000971275
0.000970823
0.000970491
0.000970219
0.000970016
0.000969845
0.000969717
0.000969596
0.000969513
0.000969444
0.00096939
0.000969326
0.00096929
0.00096926
0.000969232
0.000969176
0.000969168
0.00096916
0.00096915
0.000969125
0.00096913
0.00096913
0.00096913
0.000969108
0.00096917
0.00096917
0.000969171
0.00096916
0.000969203
0.000969203
0.000969212
0.000969209
0.000969278
0.000969279
0.000969282
0.000969279
0.000969377
0.000969416
0.000969421
0.000969421
0.000969433
0.000969433
0.000969555
0.000969556
0.000969555
0.000969547
0.000969605
0.000969605
0.000969736
0.000969802
0.000969803
0.0009698
0.000969939
0.000969986
0.000969985
0.000969983
0.000970112
0.000970261
0.000970356
0.000970374
0.000970374
0.000970529
0.00097071
0.000970748
0.000970865
0.000971071
0.0009712
0.00097121
0.000971354
0.00097161
0.000971855
0.000972076
0.00097236
0.000972647
0.000972934
0.000973322
0.000973796
0.000974296
0.000974923
0.000975743
0.000976692
0.00097791
0.000980296
0.000981211
0.000999776
0.00106941
0.0023947
0.00103086
0.000999094
0.000986471
0.000980128
0.000976377
0.000974011
0.000972385
0.000971266
0.000970432
0.000969833
0.000969362
0.000969014
0.00096873
0.000968517
0.000968338
0.000968204
0.000968077
0.000967989
0.000967916
0.000967859
0.000967792
0.000967754
0.000967721
0.000967691
0.000967635
0.000967625
0.000967616
0.000967605
0.000967578
0.000967583
0.000967582
0.000967581
0.000967557
0.000967619
0.000967619
0.000967619
0.000967608
0.000967651
0.000967651
0.000967659
0.000967656
0.000967726
0.000967726
0.00096773
0.000967726
0.000967825
0.000967866
0.000967871
0.000967871
0.000967882
0.000967882
0.000968006
0.000968006
0.000968006
0.000967998
0.000968058
0.000968058
0.000968189
0.000968257
0.000968258
0.000968255
0.000968394
0.000968445
0.000968444
0.000968442
0.000968572
0.000968722
0.00096882
0.000968842
0.000968842
0.000968996
0.000969179
0.000969222
0.00096934
0.000969545
0.000969678
0.000969691
0.000969836
0.000970092
0.000970341
0.000970564
0.000970852
0.000971142
0.000971435
0.000971825
0.000972304
0.000972808
0.000973441
0.000974262
0.000975224
0.000976432
0.000978858
0.000979709
0.000998876
0.0010687
0.00239018
0.00103064
0.000998383
0.000985464
0.000978937
0.000975066
0.000972616
0.000970929
0.000969765
0.000968897
0.000968271
0.000967779
0.000967415
0.000967117
0.000966893
0.000966706
0.000966564
0.000966431
0.000966337
0.00096626
0.0009662
0.00096613
0.000966088
0.000966053
0.000966022
0.000965964
0.000965952
0.000965942
0.00096593
0.000965902
0.000965906
0.000965905
0.000965903
0.000965876
0.000965938
0.000965938
0.000965938
0.000965925
0.000965968
0.000965968
0.000965976
0.000965973
0.000966044
0.000966044
0.000966047
0.000966043
0.000966143
0.000966186
0.00096619
0.00096619
0.000966201
0.000966201
0.000966326
0.000966327
0.000966326
0.000966318
0.000966381
0.000966381
0.000966512
0.000966583
0.000966583
0.00096658
0.00096672
0.000966775
0.000966774
0.000966772
0.000966902
0.000967054
0.000967155
0.000967182
0.000967182
0.000967334
0.000967519
0.000967567
0.000967686
0.00096789
0.000968029
0.000968044
0.00096819
0.000968447
0.000968698
0.000968925
0.000969216
0.00096951
0.000969809
0.000970201
0.000970686
0.000971194
0.000971834
0.000972656
0.000973631
0.000974828
0.000977297
0.000978078
0.000997895
0.00106786
0.00238318
0.00103041
0.000997624
0.000984383
0.000977658
0.000973655
0.000971114
0.000969361
0.000968148
0.000967243
0.000966588
0.000966074
0.000965692
0.000965379
0.000965143
0.000964945
0.000964795
0.000964656
0.000964557
0.000964475
0.00096441
0.000964337
0.000964292
0.000964254
0.000964222
0.000964162
0.000964148
0.000964136
0.000964123
0.000964094
0.000964097
0.000964096
0.000964092
0.000964063
0.000964124
0.000964124
0.000964124
0.00096411
0.000964153
0.000964153
0.000964161
0.000964157
0.000964229
0.000964229
0.000964231
0.000964228
0.000964328
0.000964374
0.000964377
0.000964377
0.000964388
0.000964388
0.000964515
0.000964515
0.000964514
0.000964507
0.000964573
0.000964572
0.000964702
0.000964776
0.000964776
0.000964774
0.000964914
0.000964972
0.000964972
0.00096497
0.000965101
0.000965255
0.000965359
0.000965391
0.00096539
0.000965541
0.000965728
0.000965782
0.000965902
0.000966104
0.000966248
0.000966268
0.000966414
0.000966671
0.000966926
0.000967156
0.000967451
0.000967749
0.000968054
0.000968448
0.000968939
0.00096945
0.000970099
0.00097092
0.00097191
0.000973095
0.000975608
0.000976318
0.000996829
0.0010669
0.00237374
0.00103016
0.000996816
0.000983229
0.00097629
0.000972146
0.000969506
0.000967681
0.000966415
0.00096547
0.000964783
0.000964244
0.000963842
0.000963513
0.000963265
0.000963056
0.000962897
0.00096275
0.000962645
0.000962557
0.000962489
0.000962412
0.000962364
0.000962323
0.000962289
0.000962226
0.000962211
0.000962197
0.000962183
0.000962153
0.000962154
0.000962152
0.000962147
0.000962116
0.000962176
0.000962176
0.000962175
0.000962161
0.000962204
0.000962204
0.000962211
0.000962207
0.000962279
0.000962279
0.000962282
0.000962277
0.000962379
0.000962427
0.00096243
0.00096243
0.00096244
0.00096244
0.000962568
0.000962568
0.000962568
0.00096256
0.000962629
0.000962629
0.000962759
0.000962835
0.000962835
0.000962833
0.000962973
0.000963036
0.000963036
0.000963034
0.000963165
0.000963322
0.000963429
0.000963466
0.000963466
0.000963614
0.000963803
0.000963863
0.000963984
0.000964186
0.000964335
0.000964358
0.000964506
0.000964763
0.000965022
0.000965254
0.000965553
0.000965856
0.000966167
0.000966563
0.000967061
0.000967576
0.000968232
0.000969054
0.000970059
0.000971232
0.000973789
0.000974424
0.000995673
0.00106582
0.00236191
0.0010299
0.00099596
0.000982003
0.000974834
0.000970537
0.00096779
0.000965888
0.000964564
0.000963575
0.000962854
0.000962288
0.000961865
0.000961518
0.000961256
0.000961035
0.000960867
0.000960712
0.0009606
0.000960507
0.000960433
0.000960352
0.000960301
0.000960257
0.00096022
0.000960156
0.000960138
0.000960122
0.000960107
0.000960075
0.000960075
0.000960073
0.000960067
0.000960033
0.000960092
0.000960091
0.000960091
0.000960075
0.000960118
0.000960118
0.000960125
0.00096012
0.000960193
0.000960193
0.000960195
0.00096019
0.000960293
0.000960344
0.000960345
0.000960345
0.000960355
0.000960355
0.000960485
0.000960485
0.000960485
0.000960477
0.00096055
0.00096055
0.000960678
0.000960757
0.000960757
0.000960755
0.000960897
0.000960964
0.000960964
0.000960962
0.000961094
0.000961253
0.000961363
0.000961406
0.000961406
0.000961552
0.000961744
0.000961809
0.000961932
0.000962132
0.000962286
0.000962315
0.000962463
0.00096272
0.000962983
0.000963219
0.000963522
0.000963829
0.000964147
0.000964545
0.000965049
0.000965568
0.000966233
0.000967054
0.000968075
0.000969235
0.000971838
0.000972395
0.000994423
0.0010646
0.00234775
0.00102964
0.000995058
0.000980705
0.000973289
0.000968827
0.000965966
0.00096398
0.000962594
0.000961557
0.0009608
0.000960204
0.000959758
0.000959393
0.000959115
0.000958882
0.000958703
0.000958539
0.00095842
0.00095832
0.000958242
0.000958156
0.000958101
0.000958053
0.000958014
0.000957948
0.000957927
0.00095791
0.000957893
0.00095786
0.000957859
0.000957855
0.000957848
0.000957811
0.000957869
0.000957868
0.000957867
0.00095785
0.000957893
0.000957893
0.0009579
0.000957894
0.000957968
0.000957968
0.00095797
0.000957964
0.000958068
0.000958122
0.000958122
0.000958122
0.000958132
0.000958132
0.000958263
0.000958263
0.000958263
0.000958256
0.000958332
0.000958332
0.00095846
0.000958541
0.000958542
0.000958539
0.000958681
0.000958754
0.000958754
0.000958752
0.000958885
0.000959046
0.000959159
0.000959207
0.000959208
0.000959353
0.000959546
0.000959618
0.000959742
0.000959941
0.000960101
0.000960134
0.000960283
0.00096054
0.000960807
0.000961046
0.000961354
0.000961666
0.00096199
0.000962391
0.000962902
0.000963425
0.000964098
0.000964919
0.000965956
0.000967103
0.00096975
0.000970228
0.000993073
0.00106325
0.00233133
0.00102936
0.000994109
0.000979335
0.000971654
0.000967016
0.000964032
0.000961957
0.000960504
0.000959416
0.000958619
0.000957992
0.00095752
0.000957135
0.00095684
0.000956594
0.000956404
0.00095623
0.000956103
0.000955996
0.000955912
0.000955822
0.000955763
0.000955711
0.000955669
0.0009556
0.000955577
0.000955557
0.00095554
0.000955505
0.000955502
0.000955498
0.000955488
0.000955449
0.000955505
0.000955505
0.000955504
0.000955485
0.000955528
0.000955528
0.000955534
0.000955527
0.000955602
0.000955602
0.000955603
0.000955597
0.000955702
0.000955758
0.000955759
0.000955758
0.000955768
0.000955767
0.0009559
0.000955901
0.0009559
0.000955893
0.000955974
0.000955973
0.0009561
0.000956185
0.000956185
0.000956183
0.000956325
0.000956403
0.000956403
0.000956401
0.000956535
0.000956699
0.000956815
0.000956869
0.000956872
0.000957014
0.000957208
0.000957286
0.000957413
0.000957611
0.000957776
0.000957814
0.000957965
0.000958221
0.000958493
0.000958735
0.000959048
0.000959364
0.000959696
0.000960099
0.000960616
0.000961143
0.000961826
0.000962645
0.0009637
0.000964832
0.000967525
0.000967921
0.000991617
0.00106176
0.00231272
0.00102907
0.000993116
0.000977894
0.000969931
0.000965105
0.000961988
0.000959817
0.000958292
0.000957149
0.00095631
0.000955649
0.00095515
0.000954743
0.000954431
0.000954169
0.000953967
0.000953784
0.000953647
0.000953533
0.000953443
0.000953348
0.000953284
0.000953228
0.000953184
0.000953112
0.000953085
0.000953063
0.000953044
0.000953008
0.000953004
0.000952998
0.000952987
0.000952944
0.000952999
0.000952999
0.000952997
0.000952977
0.000953019
0.000953019
0.000953025
0.000953017
0.000953093
0.000953093
0.000953094
0.000953087
0.000953194
0.000953252
0.000953252
0.000953252
0.000953261
0.00095326
0.000953395
0.000953395
0.000953395
0.000953388
0.000953472
0.000953472
0.000953597
0.000953685
0.000953686
0.000953684
0.000953826
0.00095391
0.00095391
0.000953908
0.000954043
0.00095421
0.000954328
0.000954389
0.000954393
0.000954533
0.000954729
0.000954813
0.000954943
0.000955139
0.000955309
0.000955353
0.000955505
0.000955762
0.000956037
0.000956283
0.0009566
0.000956921
0.00095726
0.000957665
0.00095819
0.00095872
0.000959413
0.000960231
0.000961303
0.000962421
0.000965158
0.000965471
0.000990048
0.00106011
0.00229201
0.00102878
0.000992078
0.000976381
0.000968119
0.000963092
0.000959834
0.00095756
0.000955959
0.000954757
0.000953872
0.000953174
0.000952647
0.000952216
0.000951884
0.000951607
0.000951392
0.000951197
0.000951051
0.000950929
0.000950833
0.000950731
0.000950663
0.000950603
0.000950555
0.00095048
0.00095045
0.000950426
0.000950405
0.000950367
0.000950361
0.000950354
0.000950341
0.000950295
0.000950348
0.000950348
0.000950346
0.000950324
0.000950366
0.000950366
0.000950372
0.000950363
0.000950439
0.000950439
0.00095044
0.000950432
0.00095054
0.0009506
0.0009506
0.0009506
0.000950609
0.000950608
0.000950744
0.000950744
0.000950744
0.000950738
0.000950826
0.000950826
0.00095095
0.000951041
0.000951042
0.00095104
0.000951183
0.000951273
0.000951273
0.000951271
0.000951406
0.000951576
0.000951697
0.000951765
0.000951772
0.000951908
0.000952105
0.000952196
0.000952328
0.000952523
0.000952699
0.000952749
0.000952902
0.000953158
0.000953438
0.000953688
0.00095401
0.000954334
0.000954682
0.000955089
0.000955621
0.000956155
0.000956857
0.000957673
0.000958763
0.000959866
0.000962647
0.000962877
0.000988359
0.00105831
0.0022693
0.00102847
0.000990997
0.000974799
0.000966218
0.000960977
0.000957569
0.000955186
0.000953502
0.000952237
0.000951303
0.000950567
0.000950008
0.000949552
0.0009492
0.000948905
0.000948676
0.000948469
0.000948313
0.000948183
0.000948079
0.000947972
0.000947897
0.000947832
0.000947781
0.000947703
0.00094767
0.000947643
0.00094762
0.00094758
0.000947572
0.000947564
0.000947549
0.0009475
0.000947551
0.000947551
0.000947549
0.000947525
0.000947567
0.000947567
0.000947571
0.000947561
0.000947638
0.000947638
0.000947638
0.00094763
0.000947739
0.000947802
0.000947802
0.000947801
0.00094781
0.000947808
0.000947946
0.000947947
0.000947947
0.00094794
0.000948033
0.000948034
0.000948156
0.000948251
0.000948251
0.000948249
0.000948392
0.000948488
0.000948489
0.000948487
0.000948623
0.000948795
0.00094892
0.000948994
0.000949004
0.000949137
0.000949335
0.000949432
0.000949568
0.000949761
0.000949942
0.00095
0.000950154
0.00095041
0.000950694
0.000950947
0.000951274
0.000951603
0.000951958
0.000952368
0.000952908
0.000953445
0.000954157
0.00095497
0.000956078
0.000957166
0.000959988
0.000960135
0.000986541
0.00105634
0.00224468
0.00102817
0.000989875
0.000973148
0.00096423
0.000958762
0.000955194
0.000952693
0.000950922
0.000949589
0.000948603
0.000947825
0.000947233
0.00094675
0.000946375
0.000946062
0.000945817
0.000945598
0.000945432
0.000945291
0.00094518
0.000945066
0.000944986
0.000944916
0.000944861
0.000944779
0.000944743
0.000944712
0.000944687
0.000944646
0.000944636
0.000944626
0.00094461
0.000944556
0.000944605
0.000944605
0.000944603
0.000944577
0.000944618
0.000944618
0.000944622
0.000944611
0.000944689
0.000944688
0.000944688
0.000944679
0.000944789
0.000944854
0.000944854
0.000944853
0.000944862
0.00094486
0.000945
0.000945
0.000945
0.000944994
0.000945092
0.000945093
0.000945212
0.000945311
0.000945311
0.000945309
0.000945453
0.000945556
0.000945556
0.000945554
0.000945691
0.000945866
0.000945994
0.000946075
0.000946089
0.000946217
0.000946416
0.000946521
0.00094666
0.000946852
0.000947038
0.000947102
0.000947258
0.000947513
0.000947802
0.000948059
0.00094839
0.000948724
0.000949088
0.000949499
0.000950047
0.000950587
0.000951309
0.000952119
0.000953245
0.000954317
0.000957179
0.000957244
0.000984585
0.0010542
0.00221827
0.00102785
0.000988712
0.000971428
0.000962154
0.000956445
0.000952707
0.000950082
0.000948217
0.000946813
0.00094577
0.000944948
0.00094432
0.000943808
0.00094341
0.000943077
0.000942816
0.000942583
0.000942405
0.000942254
0.000942135
0.000942014
0.000941928
0.000941852
0.000941793
0.000941707
0.000941667
0.000941633
0.000941606
0.000941562
0.00094155
0.000941538
0.00094152
0.000941463
0.000941509
0.000941509
0.000941507
0.000941479
0.000941519
0.000941519
0.000941523
0.00094151
0.000941588
0.000941588
0.000941588
0.000941577
0.000941688
0.000941756
0.000941756
0.000941755
0.000941763
0.000941761
0.000941903
0.000941903
0.000941903
0.000941897
0.000941999
0.000942001
0.000942118
0.000942221
0.000942221
0.000942219
0.000942363
0.000942473