/*--------------------------------*- C++ -*----------------------------------*\
| =========                 |                                                 |
| \\      /  F ield         | OpenFOAM: The Open Source CFD Toolbox           |
|  \\    /   O peration     | Version:  v2012                                 |
|   \\  /    A nd           | Website:  www.openfoam.com                      |
|    \\/     M anipulation  |                                                 |
\*---------------------------------------------------------------------------*/
FoamFile
{
    version     2.0;
    format      ascii;
    class       volScalarField;
    location    "7.5";
    object      nut;
}
// * * * * * * * * * * * * * * * * * * * * * * * * * * * * * * * * * * * * * //

dimensions      [0 2 -1 0 0 0 0];


internalField   nonuniform List<scalar> 
209825
(
1.24699e-07
1.25716e-07
1.26373e-07
1.26792e-07
1.27084e-07
1.27298e-07
1.27461e-07
1.27588e-07
1.2769e-07
1.27772e-07
1.2784e-07
1.27895e-07
1.27942e-07
1.27981e-07
1.28016e-07
1.28044e-07
1.28068e-07
1.28089e-07
1.28109e-07
1.28124e-07
1.28138e-07
1.2815e-07
1.2816e-07
1.28168e-07
1.28175e-07
1.28182e-07
1.28189e-07
1.28193e-07
1.282e-07
1.28204e-07
1.28207e-07
1.2821e-07
1.2821e-07
1.2822e-07
1.28225e-07
1.28223e-07
1.28222e-07
1.28226e-07
1.28228e-07
1.28224e-07
1.28224e-07
1.28228e-07
1.28228e-07
1.28209e-07
1.28206e-07
1.28218e-07
1.28221e-07
1.28213e-07
1.28213e-07
1.28198e-07
1.28198e-07
1.28192e-07
1.2818e-07
1.2817e-07
1.28169e-07
1.2816e-07
1.28146e-07
1.28155e-07
1.28157e-07
1.28157e-07
1.28157e-07
1.28155e-07
1.28158e-07
1.28139e-07
1.28126e-07
1.28142e-07
1.2816e-07
1.28149e-07
1.28149e-07
1.28122e-07
1.28125e-07
1.28133e-07
1.2811e-07
1.28124e-07
1.28152e-07
1.28139e-07
1.28126e-07
1.2812e-07
1.28137e-07
1.28166e-07
1.28165e-07
1.28187e-07
1.28201e-07
1.28196e-07
1.28224e-07
1.28252e-07
1.28273e-07
1.28308e-07
1.28357e-07
1.28409e-07
1.28498e-07
1.2863e-07
1.28737e-07
1.29794e-07
1.34451e-07
1.99545e-08
1.24699e-07
1.25715e-07
1.26373e-07
1.26792e-07
1.27084e-07
1.27298e-07
1.27461e-07
1.27589e-07
1.2769e-07
1.27772e-07
1.2784e-07
1.27896e-07
1.27943e-07
1.27982e-07
1.28016e-07
1.28044e-07
1.28068e-07
1.28089e-07
1.28109e-07
1.28125e-07
1.28139e-07
1.2815e-07
1.28161e-07
1.28168e-07
1.28176e-07
1.28183e-07
1.28189e-07
1.28194e-07
1.282e-07
1.28204e-07
1.28208e-07
1.2821e-07
1.2821e-07
1.28221e-07
1.28225e-07
1.28224e-07
1.28223e-07
1.28227e-07
1.28229e-07
1.28225e-07
1.28225e-07
1.28229e-07
1.28229e-07
1.28209e-07
1.28207e-07
1.28219e-07
1.28222e-07
1.28214e-07
1.28214e-07
1.28199e-07
1.28199e-07
1.28193e-07
1.28181e-07
1.28171e-07
1.2817e-07
1.2816e-07
1.28147e-07
1.28156e-07
1.28158e-07
1.28158e-07
1.28157e-07
1.28156e-07
1.28159e-07
1.2814e-07
1.28127e-07
1.28143e-07
1.28161e-07
1.28149e-07
1.28149e-07
1.28122e-07
1.28126e-07
1.28134e-07
1.28111e-07
1.28125e-07
1.28153e-07
1.28139e-07
1.28127e-07
1.28121e-07
1.28138e-07
1.28167e-07
1.28165e-07
1.28188e-07
1.28202e-07
1.28197e-07
1.28225e-07
1.28253e-07
1.28274e-07
1.28309e-07
1.28358e-07
1.2841e-07
1.28499e-07
1.28631e-07
1.28738e-07
1.29797e-07
1.34458e-07
2.05447e-08
1.24698e-07
1.25713e-07
1.2637e-07
1.26789e-07
1.27082e-07
1.27296e-07
1.27459e-07
1.27586e-07
1.27688e-07
1.2777e-07
1.27838e-07
1.27894e-07
1.27941e-07
1.2798e-07
1.28014e-07
1.28043e-07
1.28067e-07
1.28088e-07
1.28108e-07
1.28123e-07
1.28137e-07
1.28149e-07
1.28159e-07
1.28167e-07
1.28174e-07
1.28182e-07
1.28188e-07
1.28193e-07
1.28199e-07
1.28203e-07
1.28207e-07
1.28209e-07
1.28209e-07
1.2822e-07
1.28224e-07
1.28222e-07
1.28222e-07
1.28226e-07
1.28227e-07
1.28224e-07
1.28224e-07
1.28228e-07
1.28228e-07
1.28208e-07
1.28206e-07
1.28218e-07
1.28221e-07
1.28213e-07
1.28213e-07
1.28198e-07
1.28198e-07
1.28192e-07
1.2818e-07
1.2817e-07
1.28169e-07
1.2816e-07
1.28146e-07
1.28155e-07
1.28157e-07
1.28157e-07
1.28156e-07
1.28155e-07
1.28158e-07
1.28139e-07
1.28126e-07
1.28142e-07
1.2816e-07
1.28149e-07
1.28149e-07
1.28122e-07
1.28125e-07
1.28133e-07
1.2811e-07
1.28124e-07
1.28152e-07
1.28139e-07
1.28126e-07
1.2812e-07
1.28137e-07
1.28166e-07
1.28165e-07
1.28187e-07
1.28202e-07
1.28196e-07
1.28225e-07
1.28253e-07
1.28274e-07
1.28309e-07
1.28358e-07
1.2841e-07
1.28498e-07
1.28632e-07
1.28738e-07
1.29802e-07
1.34472e-07
2.12812e-08
1.24696e-07
1.25709e-07
1.26366e-07
1.26785e-07
1.27078e-07
1.27292e-07
1.27455e-07
1.27583e-07
1.27685e-07
1.27767e-07
1.27835e-07
1.27891e-07
1.27938e-07
1.27978e-07
1.28012e-07
1.28041e-07
1.28065e-07
1.28086e-07
1.28106e-07
1.28122e-07
1.28135e-07
1.28147e-07
1.28158e-07
1.28165e-07
1.28173e-07
1.2818e-07
1.28187e-07
1.28191e-07
1.28198e-07
1.28202e-07
1.28205e-07
1.28208e-07
1.28208e-07
1.28218e-07
1.28223e-07
1.28221e-07
1.28221e-07
1.28225e-07
1.28226e-07
1.28223e-07
1.28223e-07
1.28226e-07
1.28227e-07
1.28207e-07
1.28205e-07
1.28217e-07
1.2822e-07
1.28212e-07
1.28212e-07
1.28197e-07
1.28197e-07
1.28191e-07
1.28179e-07
1.28169e-07
1.28168e-07
1.28159e-07
1.28145e-07
1.28154e-07
1.28156e-07
1.28156e-07
1.28156e-07
1.28154e-07
1.28157e-07
1.28138e-07
1.28125e-07
1.28141e-07
1.2816e-07
1.28148e-07
1.28148e-07
1.28121e-07
1.28124e-07
1.28132e-07
1.2811e-07
1.28123e-07
1.28151e-07
1.28138e-07
1.28126e-07
1.28119e-07
1.28136e-07
1.28166e-07
1.28164e-07
1.28186e-07
1.28201e-07
1.28196e-07
1.28225e-07
1.28252e-07
1.28274e-07
1.28309e-07
1.28358e-07
1.2841e-07
1.28499e-07
1.28633e-07
1.28738e-07
1.2981e-07
1.34495e-07
2.21015e-08
1.24693e-07
1.25704e-07
1.2636e-07
1.26779e-07
1.27072e-07
1.27287e-07
1.27451e-07
1.27579e-07
1.27681e-07
1.27764e-07
1.27832e-07
1.27888e-07
1.27935e-07
1.27975e-07
1.28009e-07
1.28038e-07
1.28062e-07
1.28083e-07
1.28104e-07
1.28119e-07
1.28133e-07
1.28145e-07
1.28156e-07
1.28164e-07
1.28171e-07
1.28178e-07
1.28185e-07
1.2819e-07
1.28196e-07
1.282e-07
1.28204e-07
1.28206e-07
1.28207e-07
1.28217e-07
1.28221e-07
1.2822e-07
1.28219e-07
1.28223e-07
1.28225e-07
1.28222e-07
1.28222e-07
1.28225e-07
1.28226e-07
1.28206e-07
1.28204e-07
1.28216e-07
1.28219e-07
1.28211e-07
1.28211e-07
1.28196e-07
1.28196e-07
1.2819e-07
1.28178e-07
1.28168e-07
1.28167e-07
1.28158e-07
1.28144e-07
1.28153e-07
1.28155e-07
1.28155e-07
1.28155e-07
1.28153e-07
1.28157e-07
1.28138e-07
1.28124e-07
1.28141e-07
1.28159e-07
1.28147e-07
1.28147e-07
1.2812e-07
1.28124e-07
1.28132e-07
1.28109e-07
1.28123e-07
1.28151e-07
1.28138e-07
1.28125e-07
1.28119e-07
1.28136e-07
1.28166e-07
1.28164e-07
1.28186e-07
1.28201e-07
1.28196e-07
1.28225e-07
1.28253e-07
1.28274e-07
1.28309e-07
1.28359e-07
1.28411e-07
1.28499e-07
1.28634e-07
1.28738e-07
1.29821e-07
1.34527e-07
2.29942e-08
1.24689e-07
1.25697e-07
1.26353e-07
1.26773e-07
1.27066e-07
1.27281e-07
1.27445e-07
1.27574e-07
1.27676e-07
1.27759e-07
1.27828e-07
1.27884e-07
1.27932e-07
1.27972e-07
1.28006e-07
1.28035e-07
1.2806e-07
1.28081e-07
1.28101e-07
1.28117e-07
1.28131e-07
1.28143e-07
1.28154e-07
1.28162e-07
1.28169e-07
1.28177e-07
1.28183e-07
1.28188e-07
1.28194e-07
1.28199e-07
1.28203e-07
1.28205e-07
1.28205e-07
1.28215e-07
1.2822e-07
1.28219e-07
1.28218e-07
1.28222e-07
1.28224e-07
1.2822e-07
1.2822e-07
1.28224e-07
1.28225e-07
1.28205e-07
1.28203e-07
1.28215e-07
1.28218e-07
1.2821e-07
1.2821e-07
1.28195e-07
1.28195e-07
1.28189e-07
1.28177e-07
1.28167e-07
1.28166e-07
1.28157e-07
1.28144e-07
1.28152e-07
1.28154e-07
1.28154e-07
1.28154e-07
1.28152e-07
1.28156e-07
1.28137e-07
1.28124e-07
1.2814e-07
1.28158e-07
1.28147e-07
1.28147e-07
1.2812e-07
1.28123e-07
1.28131e-07
1.28109e-07
1.28123e-07
1.2815e-07
1.28138e-07
1.28125e-07
1.28119e-07
1.28136e-07
1.28166e-07
1.28164e-07
1.28186e-07
1.28202e-07
1.28196e-07
1.28225e-07
1.28253e-07
1.28275e-07
1.2831e-07
1.2836e-07
1.28412e-07
1.28501e-07
1.28637e-07
1.28739e-07
1.29835e-07
1.34567e-07
2.3957e-08
1.24685e-07
1.25689e-07
1.26345e-07
1.26764e-07
1.27058e-07
1.27274e-07
1.27439e-07
1.27567e-07
1.27671e-07
1.27754e-07
1.27823e-07
1.2788e-07
1.27928e-07
1.27968e-07
1.28003e-07
1.28032e-07
1.28056e-07
1.28078e-07
1.28099e-07
1.28115e-07
1.28129e-07
1.28141e-07
1.28152e-07
1.2816e-07
1.28167e-07
1.28175e-07
1.28181e-07
1.28186e-07
1.28193e-07
1.28197e-07
1.28201e-07
1.28204e-07
1.28204e-07
1.28214e-07
1.28219e-07
1.28217e-07
1.28217e-07
1.28221e-07
1.28223e-07
1.28219e-07
1.28219e-07
1.28223e-07
1.28224e-07
1.28204e-07
1.28202e-07
1.28214e-07
1.28217e-07
1.28209e-07
1.28209e-07
1.28195e-07
1.28195e-07
1.28189e-07
1.28177e-07
1.28167e-07
1.28166e-07
1.28156e-07
1.28143e-07
1.28152e-07
1.28154e-07
1.28154e-07
1.28153e-07
1.28152e-07
1.28155e-07
1.28137e-07
1.28123e-07
1.2814e-07
1.28158e-07
1.28147e-07
1.28147e-07
1.2812e-07
1.28123e-07
1.28131e-07
1.28109e-07
1.28123e-07
1.2815e-07
1.28138e-07
1.28126e-07
1.28119e-07
1.28136e-07
1.28166e-07
1.28165e-07
1.28187e-07
1.28202e-07
1.28197e-07
1.28226e-07
1.28254e-07
1.28277e-07
1.28312e-07
1.28362e-07
1.28414e-07
1.28503e-07
1.2864e-07
1.28741e-07
1.29854e-07
1.34616e-07
2.49905e-08
1.24679e-07
1.2568e-07
1.26334e-07
1.26755e-07
1.27049e-07
1.27265e-07
1.27431e-07
1.2756e-07
1.27664e-07
1.27748e-07
1.27817e-07
1.27874e-07
1.27923e-07
1.27963e-07
1.27999e-07
1.28028e-07
1.28053e-07
1.28075e-07
1.28096e-07
1.28112e-07
1.28126e-07
1.28138e-07
1.28149e-07
1.28158e-07
1.28165e-07
1.28173e-07
1.2818e-07
1.28185e-07
1.28191e-07
1.28195e-07
1.282e-07
1.28202e-07
1.28202e-07
1.28212e-07
1.28217e-07
1.28216e-07
1.28215e-07
1.2822e-07
1.28222e-07
1.28218e-07
1.28218e-07
1.28222e-07
1.28223e-07
1.28203e-07
1.28201e-07
1.28213e-07
1.28217e-07
1.28208e-07
1.28208e-07
1.28194e-07
1.28194e-07
1.28188e-07
1.28176e-07
1.28166e-07
1.28165e-07
1.28156e-07
1.28143e-07
1.28151e-07
1.28153e-07
1.28153e-07
1.28153e-07
1.28151e-07
1.28155e-07
1.28137e-07
1.28123e-07
1.28139e-07
1.28158e-07
1.28147e-07
1.28147e-07
1.2812e-07
1.28123e-07
1.28131e-07
1.2811e-07
1.28123e-07
1.28151e-07
1.28139e-07
1.28126e-07
1.2812e-07
1.28136e-07
1.28167e-07
1.28166e-07
1.28188e-07
1.28204e-07
1.28199e-07
1.28227e-07
1.28256e-07
1.28278e-07
1.28314e-07
1.28364e-07
1.28417e-07
1.28505e-07
1.28644e-07
1.28743e-07
1.29876e-07
1.3467e-07
2.60959e-08
1.24673e-07
1.25669e-07
1.26323e-07
1.26743e-07
1.27039e-07
1.27256e-07
1.27422e-07
1.27552e-07
1.27657e-07
1.27741e-07
1.27811e-07
1.27869e-07
1.27918e-07
1.27958e-07
1.27994e-07
1.28024e-07
1.28049e-07
1.28071e-07
1.28092e-07
1.28109e-07
1.28123e-07
1.28136e-07
1.28147e-07
1.28155e-07
1.28163e-07
1.28171e-07
1.28178e-07
1.28183e-07
1.28189e-07
1.28194e-07
1.28198e-07
1.282e-07
1.28201e-07
1.28211e-07
1.28216e-07
1.28215e-07
1.28214e-07
1.28219e-07
1.2822e-07
1.28217e-07
1.28217e-07
1.28221e-07
1.28222e-07
1.28202e-07
1.282e-07
1.28212e-07
1.28216e-07
1.28208e-07
1.28208e-07
1.28193e-07
1.28193e-07
1.28188e-07
1.28176e-07
1.28166e-07
1.28165e-07
1.28156e-07
1.28142e-07
1.28151e-07
1.28153e-07
1.28153e-07
1.28153e-07
1.28151e-07
1.28155e-07
1.28137e-07
1.28123e-07
1.28139e-07
1.28158e-07
1.28147e-07
1.28148e-07
1.28121e-07
1.28123e-07
1.28132e-07
1.28111e-07
1.28124e-07
1.28151e-07
1.2814e-07
1.28127e-07
1.28121e-07
1.28137e-07
1.28167e-07
1.28167e-07
1.28189e-07
1.28205e-07
1.28201e-07
1.28229e-07
1.28258e-07
1.28281e-07
1.28317e-07
1.28367e-07
1.2842e-07
1.28508e-07
1.2865e-07
1.28745e-07
1.29902e-07
1.3473e-07
2.72743e-08
1.24666e-07
1.25656e-07
1.2631e-07
1.26731e-07
1.27027e-07
1.27245e-07
1.27412e-07
1.27543e-07
1.27648e-07
1.27733e-07
1.27804e-07
1.27862e-07
1.27912e-07
1.27953e-07
1.27989e-07
1.28019e-07
1.28045e-07
1.28067e-07
1.28089e-07
1.28105e-07
1.2812e-07
1.28133e-07
1.28144e-07
1.28153e-07
1.28161e-07
1.28169e-07
1.28176e-07
1.28181e-07
1.28187e-07
1.28192e-07
1.28196e-07
1.28199e-07
1.28199e-07
1.28209e-07
1.28215e-07
1.28213e-07
1.28213e-07
1.28217e-07
1.28219e-07
1.28216e-07
1.28216e-07
1.2822e-07
1.28221e-07
1.28202e-07
1.28199e-07
1.28212e-07
1.28216e-07
1.28207e-07
1.28207e-07
1.28193e-07
1.28193e-07
1.28188e-07
1.28175e-07
1.28166e-07
1.28164e-07
1.28156e-07
1.28142e-07
1.28151e-07
1.28153e-07
1.28153e-07
1.28153e-07
1.28151e-07
1.28155e-07
1.28137e-07
1.28123e-07
1.28139e-07
1.28158e-07
1.28148e-07
1.28149e-07
1.28121e-07
1.28124e-07
1.28133e-07
1.28111e-07
1.28124e-07
1.28152e-07
1.28141e-07
1.28128e-07
1.28122e-07
1.28138e-07
1.28169e-07
1.28168e-07
1.2819e-07
1.28207e-07
1.28203e-07
1.28231e-07
1.28261e-07
1.28283e-07
1.2832e-07
1.2837e-07
1.28424e-07
1.28511e-07
1.28655e-07
1.28748e-07
1.29931e-07
1.34792e-07
2.85254e-08
1.24659e-07
1.25642e-07
1.26295e-07
1.26717e-07
1.27013e-07
1.27233e-07
1.27401e-07
1.27533e-07
1.27639e-07
1.27725e-07
1.27796e-07
1.27855e-07
1.27905e-07
1.27947e-07
1.27984e-07
1.28014e-07
1.2804e-07
1.28063e-07
1.28085e-07
1.28102e-07
1.28117e-07
1.2813e-07
1.28141e-07
1.2815e-07
1.28158e-07
1.28166e-07
1.28174e-07
1.28179e-07
1.28186e-07
1.2819e-07
1.28195e-07
1.28197e-07
1.28197e-07
1.28208e-07
1.28213e-07
1.28212e-07
1.28211e-07
1.28216e-07
1.28218e-07
1.28215e-07
1.28215e-07
1.2822e-07
1.2822e-07
1.28201e-07
1.28199e-07
1.28211e-07
1.28216e-07
1.28207e-07
1.28207e-07
1.28193e-07
1.28193e-07
1.28187e-07
1.28175e-07
1.28165e-07
1.28164e-07
1.28156e-07
1.28142e-07
1.28151e-07
1.28153e-07
1.28153e-07
1.28153e-07
1.28151e-07
1.28156e-07
1.28138e-07
1.28123e-07
1.2814e-07
1.28159e-07
1.28148e-07
1.2815e-07
1.28122e-07
1.28124e-07
1.28134e-07
1.28113e-07
1.28125e-07
1.28153e-07
1.28143e-07
1.2813e-07
1.28124e-07
1.28139e-07
1.2817e-07
1.2817e-07
1.28192e-07
1.28209e-07
1.28205e-07
1.28234e-07
1.28264e-07
1.28287e-07
1.28323e-07
1.28374e-07
1.28429e-07
1.28516e-07
1.28662e-07
1.28751e-07
1.29965e-07
1.34856e-07
2.98478e-08
1.2465e-07
1.25627e-07
1.26279e-07
1.26701e-07
1.26999e-07
1.27219e-07
1.27388e-07
1.27522e-07
1.27629e-07
1.27716e-07
1.27788e-07
1.27847e-07
1.27898e-07
1.27941e-07
1.27978e-07
1.28009e-07
1.28035e-07
1.28058e-07
1.2808e-07
1.28098e-07
1.28113e-07
1.28126e-07
1.28138e-07
1.28147e-07
1.28156e-07
1.28164e-07
1.28171e-07
1.28177e-07
1.28183e-07
1.28188e-07
1.28193e-07
1.28196e-07
1.28196e-07
1.28206e-07
1.28212e-07
1.28211e-07
1.2821e-07
1.28215e-07
1.28217e-07
1.28214e-07
1.28214e-07
1.28219e-07
1.2822e-07
1.282e-07
1.28198e-07
1.28211e-07
1.28215e-07
1.28207e-07
1.28207e-07
1.28193e-07
1.28193e-07
1.28187e-07
1.28175e-07
1.28165e-07
1.28164e-07
1.28156e-07
1.28142e-07
1.28151e-07
1.28153e-07
1.28153e-07
1.28153e-07
1.28151e-07
1.28156e-07
1.28138e-07
1.28124e-07
1.2814e-07
1.28159e-07
1.28149e-07
1.28151e-07
1.28123e-07
1.28125e-07
1.28135e-07
1.28114e-07
1.28127e-07
1.28154e-07
1.28145e-07
1.28132e-07
1.28126e-07
1.28141e-07
1.28172e-07
1.28172e-07
1.28194e-07
1.28212e-07
1.28209e-07
1.28237e-07
1.28267e-07
1.28291e-07
1.28327e-07
1.28378e-07
1.28434e-07
1.2852e-07
1.2867e-07
1.28755e-07
1.30003e-07
1.34924e-07
3.12376e-08
1.24641e-07
1.2561e-07
1.26261e-07
1.26684e-07
1.26983e-07
1.27204e-07
1.27375e-07
1.27509e-07
1.27617e-07
1.27705e-07
1.27778e-07
1.27839e-07
1.2789e-07
1.27933e-07
1.27971e-07
1.28003e-07
1.2803e-07
1.28053e-07
1.28076e-07
1.28093e-07
1.28109e-07
1.28123e-07
1.28135e-07
1.28144e-07
1.28153e-07
1.28161e-07
1.28169e-07
1.28175e-07
1.28181e-07
1.28186e-07
1.28191e-07
1.28194e-07
1.28194e-07
1.28205e-07
1.2821e-07
1.28209e-07
1.28208e-07
1.28214e-07
1.28216e-07
1.28213e-07
1.28213e-07
1.28218e-07
1.28219e-07
1.282e-07
1.28197e-07
1.2821e-07
1.28215e-07
1.28207e-07
1.28207e-07
1.28193e-07
1.28193e-07
1.28188e-07
1.28175e-07
1.28166e-07
1.28164e-07
1.28156e-07
1.28143e-07
1.28152e-07
1.28154e-07
1.28154e-07
1.28154e-07
1.28151e-07
1.28157e-07
1.28139e-07
1.28124e-07
1.28141e-07
1.2816e-07
1.2815e-07
1.28152e-07
1.28125e-07
1.28127e-07
1.28136e-07
1.28116e-07
1.28128e-07
1.28156e-07
1.28147e-07
1.28134e-07
1.28128e-07
1.28143e-07
1.28174e-07
1.28175e-07
1.28197e-07
1.28215e-07
1.28212e-07
1.2824e-07
1.28271e-07
1.28295e-07
1.28332e-07
1.28383e-07
1.2844e-07
1.28526e-07
1.28678e-07
1.28759e-07
1.30045e-07
1.34994e-07
3.26987e-08
1.24631e-07
1.25592e-07
1.26241e-07
1.26665e-07
1.26965e-07
1.27188e-07
1.2736e-07
1.27496e-07
1.27605e-07
1.27694e-07
1.27768e-07
1.2783e-07
1.27882e-07
1.27926e-07
1.27964e-07
1.27996e-07
1.28024e-07
1.28048e-07
1.28071e-07
1.28089e-07
1.28105e-07
1.28119e-07
1.28131e-07
1.28141e-07
1.2815e-07
1.28159e-07
1.28166e-07
1.28172e-07
1.28179e-07
1.28184e-07
1.28189e-07
1.28192e-07
1.28192e-07
1.28203e-07
1.28209e-07
1.28208e-07
1.28207e-07
1.28213e-07
1.28215e-07
1.28212e-07
1.28212e-07
1.28218e-07
1.28219e-07
1.28199e-07
1.28197e-07
1.2821e-07
1.28215e-07
1.28207e-07
1.28207e-07
1.28193e-07
1.28193e-07
1.28188e-07
1.28175e-07
1.28166e-07
1.28165e-07
1.28157e-07
1.28143e-07
1.28152e-07
1.28154e-07
1.28155e-07
1.28154e-07
1.28152e-07
1.28158e-07
1.2814e-07
1.28125e-07
1.28142e-07
1.28162e-07
1.28152e-07
1.28154e-07
1.28127e-07
1.28128e-07
1.28138e-07
1.28118e-07
1.2813e-07
1.28158e-07
1.28149e-07
1.28136e-07
1.28131e-07
1.28145e-07
1.28177e-07
1.28178e-07
1.282e-07
1.28218e-07
1.28216e-07
1.28244e-07
1.28275e-07
1.283e-07
1.28337e-07
1.28389e-07
1.28446e-07
1.28531e-07
1.28687e-07
1.28764e-07
1.30091e-07
1.35067e-07
3.4235e-08
1.2462e-07
1.25572e-07
1.2622e-07
1.26644e-07
1.26946e-07
1.27171e-07
1.27344e-07
1.27481e-07
1.27592e-07
1.27682e-07
1.27757e-07
1.27819e-07
1.27873e-07
1.27917e-07
1.27956e-07
1.27989e-07
1.28017e-07
1.28042e-07
1.28065e-07
1.28084e-07
1.281e-07
1.28114e-07
1.28127e-07
1.28137e-07
1.28147e-07
1.28156e-07
1.28164e-07
1.2817e-07
1.28177e-07
1.28182e-07
1.28188e-07
1.2819e-07
1.2819e-07
1.28201e-07
1.28207e-07
1.28207e-07
1.28206e-07
1.28211e-07
1.28214e-07
1.28212e-07
1.28211e-07
1.28217e-07
1.28218e-07
1.28199e-07
1.28197e-07
1.2821e-07
1.28215e-07
1.28207e-07
1.28207e-07
1.28193e-07
1.28193e-07
1.28188e-07
1.28176e-07
1.28166e-07
1.28165e-07
1.28157e-07
1.28144e-07
1.28153e-07
1.28155e-07
1.28155e-07
1.28155e-07
1.28152e-07
1.28159e-07
1.28141e-07
1.28126e-07
1.28143e-07
1.28163e-07
1.28153e-07
1.28156e-07
1.28129e-07
1.2813e-07
1.2814e-07
1.28121e-07
1.28133e-07
1.2816e-07
1.28152e-07
1.28139e-07
1.28133e-07
1.28147e-07
1.2818e-07
1.28181e-07
1.28203e-07
1.28222e-07
1.2822e-07
1.28249e-07
1.2828e-07
1.28305e-07
1.28343e-07
1.28394e-07
1.28453e-07
1.28538e-07
1.28697e-07
1.28769e-07
1.30141e-07
1.35142e-07
3.58506e-08
1.24609e-07
1.25551e-07
1.26197e-07
1.26622e-07
1.26925e-07
1.27151e-07
1.27326e-07
1.27465e-07
1.27577e-07
1.27669e-07
1.27745e-07
1.27808e-07
1.27863e-07
1.27908e-07
1.27948e-07
1.27982e-07
1.2801e-07
1.28035e-07
1.28059e-07
1.28078e-07
1.28095e-07
1.2811e-07
1.28123e-07
1.28134e-07
1.28143e-07
1.28152e-07
1.28161e-07
1.28167e-07
1.28174e-07
1.2818e-07
1.28186e-07
1.28188e-07
1.28188e-07
1.28199e-07
1.28206e-07
1.28205e-07
1.28204e-07
1.2821e-07
1.28213e-07
1.28211e-07
1.2821e-07
1.28216e-07
1.28218e-07
1.28198e-07
1.28196e-07
1.2821e-07
1.28216e-07
1.28207e-07
1.28207e-07
1.28193e-07
1.28193e-07
1.28189e-07
1.28176e-07
1.28167e-07
1.28166e-07
1.28158e-07
1.28144e-07
1.28154e-07
1.28156e-07
1.28156e-07
1.28156e-07
1.28153e-07
1.2816e-07
1.28143e-07
1.28127e-07
1.28144e-07
1.28164e-07
1.28155e-07
1.28159e-07
1.28131e-07
1.28132e-07
1.28142e-07
1.28123e-07
1.28135e-07
1.28162e-07
1.28155e-07
1.28142e-07
1.28137e-07
1.2815e-07
1.28183e-07
1.28184e-07
1.28206e-07
1.28226e-07
1.28225e-07
1.28253e-07
1.28285e-07
1.2831e-07
1.28349e-07
1.28401e-07
1.2846e-07
1.28544e-07
1.28707e-07
1.28774e-07
1.30195e-07
1.3522e-07
3.75496e-08
1.24596e-07
1.25528e-07
1.26173e-07
1.26598e-07
1.26903e-07
1.27131e-07
1.27308e-07
1.27448e-07
1.27561e-07
1.27654e-07
1.27732e-07
1.27797e-07
1.27852e-07
1.27898e-07
1.27939e-07
1.27973e-07
1.28003e-07
1.28028e-07
1.28053e-07
1.28073e-07
1.2809e-07
1.28105e-07
1.28119e-07
1.2813e-07
1.2814e-07
1.28149e-07
1.28158e-07
1.28164e-07
1.28172e-07
1.28177e-07
1.28183e-07
1.28186e-07
1.28186e-07
1.28197e-07
1.28204e-07
1.28204e-07
1.28203e-07
1.28209e-07
1.28212e-07
1.2821e-07
1.28209e-07
1.28216e-07
1.28217e-07
1.28198e-07
1.28196e-07
1.28209e-07
1.28216e-07
1.28207e-07
1.28207e-07
1.28193e-07
1.28193e-07
1.28189e-07
1.28176e-07
1.28167e-07
1.28166e-07
1.28159e-07
1.28145e-07
1.28155e-07
1.28157e-07
1.28157e-07
1.28157e-07
1.28154e-07
1.28161e-07
1.28145e-07
1.28128e-07
1.28145e-07
1.28166e-07
1.28157e-07
1.28161e-07
1.28133e-07
1.28134e-07
1.28144e-07
1.28126e-07
1.28138e-07
1.28164e-07
1.28158e-07
1.28146e-07
1.2814e-07
1.28153e-07
1.28186e-07
1.28188e-07
1.2821e-07
1.2823e-07
1.2823e-07
1.28258e-07
1.28291e-07
1.28316e-07
1.28356e-07
1.28408e-07
1.28468e-07
1.28552e-07
1.28719e-07
1.2878e-07
1.30253e-07
1.353e-07
3.93366e-08
1.24584e-07
1.25504e-07
1.26146e-07
1.26573e-07
1.26879e-07
1.27109e-07
1.27287e-07
1.27429e-07
1.27545e-07
1.27639e-07
1.27718e-07
1.27784e-07
1.2784e-07
1.27888e-07
1.27929e-07
1.27964e-07
1.27995e-07
1.28021e-07
1.28046e-07
1.28066e-07
1.28084e-07
1.281e-07
1.28114e-07
1.28125e-07
1.28136e-07
1.28145e-07
1.28154e-07
1.28161e-07
1.28169e-07
1.28175e-07
1.28181e-07
1.28184e-07
1.28184e-07
1.28195e-07
1.28202e-07
1.28202e-07
1.28201e-07
1.28207e-07
1.28211e-07
1.28209e-07
1.28208e-07
1.28215e-07
1.28217e-07
1.28198e-07
1.28196e-07
1.28209e-07
1.28216e-07
1.28208e-07
1.28208e-07
1.28194e-07
1.28194e-07
1.2819e-07
1.28177e-07
1.28168e-07
1.28167e-07
1.2816e-07
1.28146e-07
1.28156e-07
1.28158e-07
1.28158e-07
1.28158e-07
1.28155e-07
1.28162e-07
1.28146e-07
1.28129e-07
1.28147e-07
1.28168e-07
1.28159e-07
1.28164e-07
1.28136e-07
1.28136e-07
1.28147e-07
1.28129e-07
1.2814e-07
1.28167e-07
1.28161e-07
1.28149e-07
1.28144e-07
1.28156e-07
1.2819e-07
1.28192e-07
1.28214e-07
1.28235e-07
1.28236e-07
1.28264e-07
1.28297e-07
1.28323e-07
1.28363e-07
1.28415e-07
1.28477e-07
1.28559e-07
1.2873e-07
1.28786e-07
1.30315e-07
1.35382e-07
4.12162e-08
1.2457e-07
1.25478e-07
1.26118e-07
1.26546e-07
1.26853e-07
1.27085e-07
1.27265e-07
1.27409e-07
1.27526e-07
1.27622e-07
1.27703e-07
1.2777e-07
1.27828e-07
1.27876e-07
1.27919e-07
1.27955e-07
1.27986e-07
1.28013e-07
1.28039e-07
1.2806e-07
1.28078e-07
1.28094e-07
1.28109e-07
1.28121e-07
1.28131e-07
1.28141e-07
1.28151e-07
1.28158e-07
1.28166e-07
1.28172e-07
1.28179e-07
1.28182e-07
1.28182e-07
1.28193e-07
1.282e-07
1.282e-07
1.28199e-07
1.28206e-07
1.2821e-07
1.28208e-07
1.28207e-07
1.28214e-07
1.28216e-07
1.28197e-07
1.28195e-07
1.28209e-07
1.28216e-07
1.28208e-07
1.28208e-07
1.28194e-07
1.28194e-07
1.2819e-07
1.28178e-07
1.28168e-07
1.28167e-07
1.28161e-07
1.28147e-07
1.28157e-07
1.28159e-07
1.28159e-07
1.28159e-07
1.28156e-07
1.28164e-07
1.28148e-07
1.28131e-07
1.28148e-07
1.2817e-07
1.28161e-07
1.28167e-07
1.28139e-07
1.28138e-07
1.2815e-07
1.28133e-07
1.28144e-07
1.2817e-07
1.28165e-07
1.28153e-07
1.28148e-07
1.2816e-07
1.28194e-07
1.28197e-07
1.28218e-07
1.2824e-07
1.28241e-07
1.28269e-07
1.28303e-07
1.2833e-07
1.2837e-07
1.28423e-07
1.28486e-07
1.28568e-07
1.28743e-07
1.28792e-07
1.3038e-07
1.35466e-07
4.31928e-08
1.24556e-07
1.25451e-07
1.26088e-07
1.26516e-07
1.26826e-07
1.2706e-07
1.27242e-07
1.27388e-07
1.27507e-07
1.27605e-07
1.27687e-07
1.27755e-07
1.27814e-07
1.27864e-07
1.27907e-07
1.27944e-07
1.27976e-07
1.28004e-07
1.28031e-07
1.28052e-07
1.28072e-07
1.28088e-07
1.28103e-07
1.28115e-07
1.28126e-07
1.28137e-07
1.28147e-07
1.28154e-07
1.28163e-07
1.28169e-07
1.28176e-07
1.28179e-07
1.28179e-07
1.28191e-07
1.28198e-07
1.28198e-07
1.28197e-07
1.28204e-07
1.28209e-07
1.28206e-07
1.28206e-07
1.28213e-07
1.28216e-07
1.28197e-07
1.28195e-07
1.28209e-07
1.28216e-07
1.28208e-07
1.28208e-07
1.28195e-07
1.28194e-07
1.28191e-07
1.28178e-07
1.28169e-07
1.28168e-07
1.28162e-07
1.28148e-07
1.28159e-07
1.28161e-07
1.28161e-07
1.28161e-07
1.28157e-07
1.28165e-07
1.2815e-07
1.28132e-07
1.2815e-07
1.28172e-07
1.28164e-07
1.2817e-07
1.28142e-07
1.28141e-07
1.28152e-07
1.28136e-07
1.28147e-07
1.28173e-07
1.28169e-07
1.28157e-07
1.28152e-07
1.28164e-07
1.28198e-07
1.28201e-07
1.28223e-07
1.28245e-07
1.28248e-07
1.28275e-07
1.2831e-07
1.28337e-07
1.28378e-07
1.28431e-07
1.28495e-07
1.28576e-07
1.28755e-07
1.28799e-07
1.30448e-07
1.35552e-07
4.5271e-08
1.24541e-07
1.25422e-07
1.26057e-07
1.26485e-07
1.26797e-07
1.27032e-07
1.27217e-07
1.27365e-07
1.27486e-07
1.27586e-07
1.27669e-07
1.27739e-07
1.27799e-07
1.2785e-07
1.27895e-07
1.27933e-07
1.27966e-07
1.27995e-07
1.28022e-07
1.28045e-07
1.28064e-07
1.28081e-07
1.28097e-07
1.2811e-07
1.28121e-07
1.28132e-07
1.28142e-07
1.2815e-07
1.28159e-07
1.28166e-07
1.28173e-07
1.28177e-07
1.28176e-07
1.28188e-07
1.28195e-07
1.28196e-07
1.28195e-07
1.28202e-07
1.28207e-07
1.28205e-07
1.28204e-07
1.28212e-07
1.28215e-07
1.28196e-07
1.28194e-07
1.28208e-07
1.28216e-07
1.28209e-07
1.28209e-07
1.28195e-07
1.28195e-07
1.28192e-07
1.28179e-07
1.2817e-07
1.28169e-07
1.28163e-07
1.28149e-07
1.2816e-07
1.28162e-07
1.28162e-07
1.28162e-07
1.28158e-07
1.28167e-07
1.28153e-07
1.28134e-07
1.28152e-07
1.28174e-07
1.28166e-07
1.28173e-07
1.28146e-07
1.28144e-07
1.28155e-07
1.2814e-07
1.2815e-07
1.28177e-07
1.28173e-07
1.28162e-07
1.28157e-07
1.28168e-07
1.28202e-07
1.28206e-07
1.28228e-07
1.28251e-07
1.28254e-07
1.28282e-07
1.28316e-07
1.28344e-07
1.28386e-07
1.28439e-07
1.28505e-07
1.28585e-07
1.28768e-07
1.28806e-07
1.30519e-07
1.35639e-07
4.74553e-08
1.24526e-07
1.25391e-07
1.26023e-07
1.26453e-07
1.26766e-07
1.27004e-07
1.27191e-07
1.27341e-07
1.27464e-07
1.27565e-07
1.27651e-07
1.27722e-07
1.27784e-07
1.27836e-07
1.27882e-07
1.27921e-07
1.27955e-07
1.27985e-07
1.28013e-07
1.28036e-07
1.28057e-07
1.28074e-07
1.28091e-07
1.28104e-07
1.28116e-07
1.28127e-07
1.28138e-07
1.28146e-07
1.28155e-07
1.28162e-07
1.2817e-07
1.28174e-07
1.28173e-07
1.28185e-07
1.28193e-07
1.28194e-07
1.28193e-07
1.282e-07
1.28206e-07
1.28204e-07
1.28203e-07
1.28211e-07
1.28214e-07
1.28196e-07
1.28194e-07
1.28208e-07
1.28216e-07
1.28209e-07
1.28209e-07
1.28195e-07
1.28195e-07
1.28192e-07
1.28179e-07
1.28171e-07
1.2817e-07
1.28165e-07
1.28151e-07
1.28162e-07
1.28163e-07
1.28163e-07
1.28163e-07
1.2816e-07
1.28168e-07
1.28155e-07
1.28136e-07
1.28154e-07
1.28176e-07
1.28168e-07
1.28177e-07
1.28149e-07
1.28147e-07
1.28158e-07
1.28144e-07
1.28154e-07
1.2818e-07
1.28177e-07
1.28166e-07
1.28162e-07
1.28172e-07
1.28206e-07
1.28211e-07
1.28233e-07
1.28257e-07
1.28261e-07
1.28288e-07
1.28324e-07
1.28352e-07
1.28395e-07
1.28448e-07
1.28515e-07
1.28595e-07
1.28782e-07
1.28813e-07
1.30593e-07
1.35727e-07
4.97495e-08
1.2451e-07
1.2536e-07
1.25988e-07
1.26418e-07
1.26733e-07
1.26973e-07
1.27162e-07
1.27315e-07
1.2744e-07
1.27543e-07
1.27631e-07
1.27704e-07
1.27767e-07
1.27821e-07
1.27868e-07
1.27909e-07
1.27943e-07
1.27974e-07
1.28003e-07
1.28027e-07
1.28048e-07
1.28067e-07
1.28084e-07
1.28097e-07
1.2811e-07
1.28122e-07
1.28133e-07
1.28141e-07
1.28151e-07
1.28158e-07
1.28166e-07
1.2817e-07
1.2817e-07
1.28182e-07
1.2819e-07
1.28191e-07
1.2819e-07
1.28198e-07
1.28204e-07
1.28202e-07
1.28201e-07
1.2821e-07
1.28214e-07
1.28195e-07
1.28193e-07
1.28207e-07
1.28216e-07
1.28209e-07
1.28209e-07
1.28195e-07
1.28195e-07
1.28193e-07
1.2818e-07
1.28171e-07
1.2817e-07
1.28166e-07
1.28152e-07
1.28163e-07
1.28165e-07
1.28165e-07
1.28165e-07
1.28161e-07
1.2817e-07
1.28157e-07
1.28137e-07
1.28156e-07
1.28178e-07
1.28171e-07
1.2818e-07
1.28153e-07
1.2815e-07
1.28162e-07
1.28148e-07
1.28158e-07
1.28184e-07
1.28182e-07
1.28171e-07
1.28167e-07
1.28177e-07
1.28211e-07
1.28216e-07
1.28238e-07
1.28262e-07
1.28268e-07
1.28295e-07
1.28331e-07
1.2836e-07
1.28404e-07
1.28457e-07
1.28525e-07
1.28604e-07
1.28796e-07
1.28821e-07
1.30669e-07
1.35817e-07
5.21574e-08
1.24493e-07
1.25326e-07
1.25951e-07
1.26381e-07
1.26698e-07
1.26941e-07
1.27132e-07
1.27287e-07
1.27415e-07
1.2752e-07
1.27609e-07
1.27685e-07
1.27749e-07
1.27804e-07
1.27853e-07
1.27895e-07
1.27931e-07
1.27962e-07
1.27992e-07
1.28017e-07
1.28039e-07
1.28058e-07
1.28076e-07
1.2809e-07
1.28103e-07
1.28116e-07
1.28127e-07
1.28136e-07
1.28146e-07
1.28154e-07
1.28162e-07
1.28167e-07
1.28166e-07
1.28178e-07
1.28186e-07
1.28188e-07
1.28188e-07
1.28196e-07
1.28202e-07
1.282e-07
1.28199e-07
1.28209e-07
1.28213e-07
1.28194e-07
1.28192e-07
1.28207e-07
1.28216e-07
1.28209e-07
1.28209e-07
1.28196e-07
1.28196e-07
1.28193e-07
1.2818e-07
1.28172e-07
1.28171e-07
1.28167e-07
1.28153e-07
1.28164e-07
1.28166e-07
1.28166e-07
1.28166e-07
1.28162e-07
1.28171e-07
1.2816e-07
1.28139e-07
1.28158e-07
1.28181e-07
1.28174e-07
1.28184e-07
1.28157e-07
1.28153e-07
1.28165e-07
1.28152e-07
1.28162e-07
1.28188e-07
1.28186e-07
1.28176e-07
1.28172e-07
1.28181e-07
1.28215e-07
1.28222e-07
1.28243e-07
1.28268e-07
1.28275e-07
1.28302e-07
1.28339e-07
1.28369e-07
1.28413e-07
1.28466e-07
1.28536e-07
1.28614e-07
1.2881e-07
1.28828e-07
1.30747e-07
1.35906e-07
5.46817e-08
1.24476e-07
1.25292e-07
1.25912e-07
1.26343e-07
1.26661e-07
1.26906e-07
1.27101e-07
1.27258e-07
1.27388e-07
1.27496e-07
1.27587e-07
1.27664e-07
1.2773e-07
1.27787e-07
1.27837e-07
1.2788e-07
1.27917e-07
1.2795e-07
1.27981e-07
1.28006e-07
1.28029e-07
1.28049e-07
1.28067e-07
1.28083e-07
1.28096e-07
1.28109e-07
1.28121e-07
1.28131e-07
1.28141e-07
1.28149e-07
1.28158e-07
1.28163e-07
1.28162e-07
1.28174e-07
1.28183e-07
1.28185e-07
1.28185e-07
1.28193e-07
1.28199e-07
1.28198e-07
1.28196e-07
1.28207e-07
1.28211e-07
1.28193e-07
1.28191e-07
1.28206e-07
1.28215e-07
1.28209e-07
1.28209e-07
1.28196e-07
1.28196e-07
1.28194e-07
1.28181e-07
1.28172e-07
1.28171e-07
1.28168e-07
1.28154e-07
1.28166e-07
1.28167e-07
1.28167e-07
1.28167e-07
1.28163e-07
1.28173e-07
1.28162e-07
1.28141e-07
1.28159e-07
1.28183e-07
1.28176e-07
1.28187e-07
1.28161e-07
1.28156e-07
1.28168e-07
1.28156e-07
1.28165e-07
1.28191e-07
1.28191e-07
1.28181e-07
1.28177e-07
1.28186e-07
1.2822e-07
1.28227e-07
1.28249e-07
1.28275e-07
1.28282e-07
1.28309e-07
1.28347e-07
1.28377e-07
1.28422e-07
1.28475e-07
1.28546e-07
1.28624e-07
1.28824e-07
1.28835e-07
1.30825e-07
1.35996e-07
5.73243e-08
1.24459e-07
1.25255e-07
1.25871e-07
1.26302e-07
1.26622e-07
1.2687e-07
1.27067e-07
1.27227e-07
1.27359e-07
1.27469e-07
1.27563e-07
1.27642e-07
1.2771e-07
1.27768e-07
1.2782e-07
1.27864e-07
1.27903e-07
1.27936e-07
1.27968e-07
1.27995e-07
1.28019e-07
1.28039e-07
1.28058e-07
1.28074e-07
1.28089e-07
1.28102e-07
1.28115e-07
1.28125e-07
1.28135e-07
1.28144e-07
1.28153e-07
1.28158e-07
1.28158e-07
1.2817e-07
1.28179e-07
1.28182e-07
1.28181e-07
1.28189e-07
1.28196e-07
1.28195e-07
1.28194e-07
1.28205e-07
1.2821e-07
1.28191e-07
1.28189e-07
1.28205e-07
1.28214e-07
1.28208e-07