/*--------------------------------*- C++ -*----------------------------------*\
| =========                 |                                                 |
| \\      /  F ield         | OpenFOAM: The Open Source CFD Toolbox           |
|  \\    /   O peration     | Version:  v2012                                 |
|   \\  /    A nd           | Website:  www.openfoam.com                      |
|    \\/     M anipulation  |                                                 |
\*---------------------------------------------------------------------------*/
FoamFile
{
    version     2.0;
    format      ascii;
    class       volVectorField;
    location    "7.5";
    object      wallShearStress;
}
// * * * * * * * * * * * * * * * * * * * * * * * * * * * * * * * * * * * * * //

dimensions      [0 2 -2 0 0 0 0];


internalField   uniform (0 0 0);

boundaryField
{
    inlet
    {
        type            calculated;
        value           uniform (0 0 0);
    }
    outlet
    {
        type            calculated;
        value           uniform (0 0 0);
    }
    topWall
    {
        type            calculated;
        value           nonuniform List<vector> 
545
(
(1.55071e-08 -1.0876e-08 0)
(1.55469e-08 -3.06691e-08 0)
(1.54127e-08 -5.10075e-08 0)
(1.53518e-08 -7.06902e-08 0)
(1.53101e-08 -8.94908e-08 0)
(1.5266e-08 -1.07659e-07 0)
(1.52167e-08 -1.25355e-07 0)
(1.5163e-08 -1.42573e-07 0)
(1.51049e-08 -1.59274e-07 0)
(1.50429e-08 -1.75456e-07 0)
(1.49773e-08 -1.9114e-07 0)
(1.49085e-08 -2.06344e-07 0)
(1.48367e-08 -2.2108e-07 0)
(1.47623e-08 -2.35356e-07 0)
(1.46856e-08 -2.49184e-07 0)
(1.46069e-08 -2.62576e-07 0)
(1.45264e-08 -2.75545e-07 0)
(1.44444e-08 -2.881e-07 0)
(1.43611e-08 -3.00255e-07 0)
(1.42767e-08 -3.1202e-07 0)
(1.41914e-08 -3.23407e-07 0)
(1.41055e-08 -3.34427e-07 0)
(1.40189e-08 -3.45091e-07 0)
(1.39321e-08 -3.5541e-07 0)
(1.38449e-08 -3.65394e-07 0)
(1.37577e-08 -3.75054e-07 0)
(1.36705e-08 -3.84399e-07 0)
(1.35834e-08 -3.9344e-07 0)
(1.34965e-08 -4.02187e-07 0)
(1.34099e-08 -4.10648e-07 0)
(1.33237e-08 -4.18833e-07 0)
(1.3238e-08 -4.26751e-07 0)
(1.31529e-08 -4.34411e-07 0)
(1.30683e-08 -4.41821e-07 0)
(1.29844e-08 -4.48989e-07 0)
(1.29012e-08 -4.55923e-07 0)
(1.28187e-08 -4.62631e-07 0)
(1.2737e-08 -4.6912e-07 0)
(1.26561e-08 -4.75398e-07 0)
(1.25761e-08 -4.81472e-07 0)
(1.24969e-08 -4.87348e-07 0)
(1.24186e-08 -4.93034e-07 0)
(1.23412e-08 -4.98535e-07 0)
(1.22646e-08 -5.03857e-07 0)
(1.2189e-08 -5.09007e-07 0)
(1.21143e-08 -5.1399e-07 0)
(1.20405e-08 -5.18813e-07 0)
(1.19677e-08 -5.23479e-07 0)
(1.18957e-08 -5.27996e-07 0)
(1.18247e-08 -5.32366e-07 0)
(1.17545e-08 -5.36596e-07 0)
(1.16852e-08 -5.4069e-07 0)
(1.16168e-08 -5.44653e-07 0)
(1.15493e-08 -5.48489e-07 0)
(1.14826e-08 -5.52202e-07 0)
(1.14167e-08 -5.55796e-07 0)
(1.13516e-08 -5.59276e-07 0)
(1.12874e-08 -5.62644e-07 0)
(1.12238e-08 -5.65905e-07 0)
(1.11611e-08 -5.69062e-07 0)
(1.1099e-08 -5.72119e-07 0)
(1.10377e-08 -5.75079e-07 0)
(1.09771e-08 -5.77945e-07 0)
(1.09171e-08 -5.8072e-07 0)
(1.08577e-08 -5.83407e-07 0)
(1.07989e-08 -5.86008e-07 0)
(1.07407e-08 -5.88528e-07 0)
(1.0683e-08 -5.90968e-07 0)
(1.0626e-08 -5.93333e-07 0)
(1.05689e-08 -5.95614e-07 0)
(1.05147e-08 -5.97858e-07 0)
(1.045e-08 -5.99954e-07 0)
(1.03901e-08 -6.01996e-07 0)
(1.03494e-08 -6.04056e-07 0)
(1.03088e-08 -6.05993e-07 0)
(1.02683e-08 -6.07912e-07 0)
(1.02279e-08 -6.09844e-07 0)
(1.01875e-08 -6.11766e-07 0)
(1.01473e-08 -6.13667e-07 0)
(1.0107e-08 -6.15547e-07 0)
(1.00669e-08 -6.17412e-07 0)
(1.00268e-08 -6.19262e-07 0)
(9.98673e-09 -6.21096e-07 0)
(9.94674e-09 -6.22915e-07 0)
(9.90682e-09 -6.24717e-07 0)
(9.86696e-09 -6.26505e-07 0)
(9.82716e-09 -6.28277e-07 0)
(9.78741e-09 -6.30033e-07 0)
(9.74774e-09 -6.31775e-07 0)
(9.7081e-09 -6.33501e-07 0)
(9.66859e-09 -6.35214e-07 0)
(9.62888e-09 -6.36906e-07 0)
(9.5904e-09 -6.38612e-07 0)
(9.54702e-09 -6.40218e-07 0)
(9.52447e-09 -6.42116e-07 0)
(9.41249e-09 -6.43428e-07 0)
(9.27687e-09 -6.44677e-07 0)
(9.23963e-09 -6.46497e-07 0)
(9.20931e-09 -6.47736e-07 0)
(9.18105e-09 -6.48869e-07 0)
(9.15322e-09 -6.50134e-07 0)
(9.12535e-09 -6.51463e-07 0)
(9.0974e-09 -6.52772e-07 0)
(9.06935e-09 -6.54058e-07 0)
(9.04119e-09 -6.5534e-07 0)
(9.01292e-09 -6.56626e-07 0)
(8.98455e-09 -6.57913e-07 0)
(8.95607e-09 -6.592e-07 0)
(8.92747e-09 -6.60484e-07 0)
(8.89877e-09 -6.61767e-07 0)
(8.86996e-09 -6.63049e-07 0)
(8.84104e-09 -6.64329e-07 0)
(8.81201e-09 -6.65609e-07 0)
(8.78288e-09 -6.66888e-07 0)
(8.75363e-09 -6.68165e-07 0)
(8.72428e-09 -6.69441e-07 0)
(8.69482e-09 -6.70715e-07 0)
(8.66525e-09 -6.71989e-07 0)
(8.63557e-09 -6.73261e-07 0)
(8.60578e-09 -6.74531e-07 0)
(8.57589e-09 -6.758e-07 0)
(8.54588e-09 -6.77068e-07 0)
(8.51577e-09 -6.78334e-07 0)
(8.48556e-09 -6.79599e-07 0)
(8.45523e-09 -6.80862e-07 0)
(8.4248e-09 -6.82124e-07 0)
(8.39427e-09 -6.83384e-07 0)
(8.36362e-09 -6.84642e-07 0)
(8.33287e-09 -6.85899e-07 0)
(8.30202e-09 -6.87154e-07 0)
(8.27106e-09 -6.88407e-07 0)
(8.23999e-09 -6.89659e-07 0)
(8.20882e-09 -6.90908e-07 0)
(8.17755e-09 -6.92156e-07 0)
(8.14617e-09 -6.93403e-07 0)
(8.11469e-09 -6.94647e-07 0)
(8.0831e-09 -6.95889e-07 0)
(8.05141e-09 -6.9713e-07 0)
(8.01961e-09 -6.98368e-07 0)
(7.98772e-09 -6.99604e-07 0)
(7.95572e-09 -7.00839e-07 0)
(7.92362e-09 -7.02071e-07 0)
(7.89141e-09 -7.03301e-07 0)
(7.85911e-09 -7.0453e-07 0)
(7.8267e-09 -7.05755e-07 0)
(7.79419e-09 -7.06979e-07 0)
(7.76158e-09 -7.08201e-07 0)
(7.72888e-09 -7.0942e-07 0)
(7.69607e-09 -7.10637e-07 0)
(7.66316e-09 -7.11851e-07 0)
(7.63015e-09 -7.13064e-07 0)
(7.59704e-09 -7.14273e-07 0)
(7.56383e-09 -7.15481e-07 0)
(7.53052e-09 -7.16686e-07 0)
(7.49712e-09 -7.17888e-07 0)
(7.46362e-09 -7.19088e-07 0)
(7.43002e-09 -7.20285e-07 0)
(7.39632e-09 -7.2148e-07 0)
(7.36252e-09 -7.22672e-07 0)
(7.32863e-09 -7.23862e-07 0)
(7.29464e-09 -7.25048e-07 0)
(7.26055e-09 -7.26232e-07 0)
(7.22637e-09 -7.27413e-07 0)
(7.1921e-09 -7.28592e-07 0)
(7.15772e-09 -7.29767e-07 0)
(7.12326e-09 -7.3094e-07 0)
(7.0887e-09 -7.3211e-07 0)
(7.05404e-09 -7.33276e-07 0)
(7.01929e-09 -7.3444e-07 0)
(6.98445e-09 -7.35601e-07 0)
(6.94951e-09 -7.36758e-07 0)
(6.91448e-09 -7.37913e-07 0)
(6.87936e-09 -7.39064e-07 0)
(6.84415e-09 -7.40213e-07 0)
(6.80884e-09 -7.41358e-07 0)
(6.77345e-09 -7.42499e-07 0)
(6.73796e-09 -7.43638e-07 0)
(6.70238e-09 -7.44773e-07 0)
(6.66671e-09 -7.45905e-07 0)
(6.63095e-09 -7.47033e-07 0)
(6.5951e-09 -7.48158e-07 0)
(6.55916e-09 -7.4928e-07 0)
(6.52314e-09 -7.50397e-07 0)
(6.48702e-09 -7.51512e-07 0)
(6.45082e-09 -7.52623e-07 0)
(6.41453e-09 -7.5373e-07 0)
(6.37815e-09 -7.54833e-07 0)
(6.34168e-09 -7.55933e-07 0)
(6.30513e-09 -7.57029e-07 0)
(6.26849e-09 -7.58122e-07 0)
(6.23177e-09 -7.5921e-07 0)
(6.19496e-09 -7.60295e-07 0)
(6.15806e-09 -7.61375e-07 0)
(6.12109e-09 -7.62452e-07 0)
(6.08402e-09 -7.63525e-07 0)
(6.04688e-09 -7.64594e-07 0)
(6.00965e-09 -7.65659e-07 0)
(5.97234e-09 -7.66719e-07 0)
(5.93494e-09 -7.67776e-07 0)
(5.89747e-09 -7.68828e-07 0)
(5.85991e-09 -7.69876e-07 0)
(5.82227e-09 -7.7092e-07 0)
(5.78455e-09 -7.7196e-07 0)
(5.74676e-09 -7.72995e-07 0)
(5.70888e-09 -7.74026e-07 0)
(5.67092e-09 -7.75052e-07 0)
(5.63289e-09 -7.76074e-07 0)
(5.59478e-09 -7.77091e-07 0)
(5.55659e-09 -7.78104e-07 0)
(5.51833e-09 -7.79113e-07 0)
(5.47998e-09 -7.80116e-07 0)
(5.44157e-09 -7.81115e-07 0)
(5.40308e-09 -7.8211e-07 0)
(5.36451e-09 -7.83099e-07 0)
(5.32587e-09 -7.84084e-07 0)
(5.28716e-09 -7.85064e-07 0)
(5.24837e-09 -7.86039e-07 0)
(5.20952e-09 -7.87009e-07 0)
(5.17059e-09 -7.87975e-07 0)
(5.13159e-09 -7.88935e-07 0)
(5.09252e-09 -7.8989e-07 0)
(5.05338e-09 -7.9084e-07 0)
(5.01418e-09 -7.91785e-07 0)
(4.9749e-09 -7.92725e-07 0)
(4.93556e-09 -7.93659e-07 0)
(4.89615e-09 -7.94589e-07 0)
(4.85668e-09 -7.95513e-07 0)
(4.81714e-09 -7.96431e-07 0)
(4.77754e-09 -7.97345e-07 0)
(4.73787e-09 -7.98253e-07 0)
(4.69815e-09 -7.99155e-07 0)
(4.65836e-09 -8.00052e-07 0)
(4.61851e-09 -8.00943e-07 0)
(4.5786e-09 -8.01829e-07 0)
(4.53863e-09 -8.02709e-07 0)
(4.4986e-09 -8.03584e-07 0)
(4.45851e-09 -8.04453e-07 0)
(4.41837e-09 -8.05316e-07 0)
(4.37817e-09 -8.06173e-07 0)
(4.33791e-09 -8.07024e-07 0)
(4.29761e-09 -8.07869e-07 0)
(4.25725e-09 -8.08709e-07 0)
(4.21683e-09 -8.09542e-07 0)
(4.17637e-09 -8.1037e-07 0)
(4.13585e-09 -8.11191e-07 0)
(4.09529e-09 -8.12006e-07 0)
(4.05468e-09 -8.12816e-07 0)
(4.01402e-09 -8.13619e-07 0)
(3.97331e-09 -8.14415e-07 0)
(3.93256e-09 -8.15206e-07 0)
(3.89176e-09 -8.1599e-07 0)
(3.85093e-09 -8.16767e-07 0)
(3.81005e-09 -8.17539e-07 0)
(3.76912e-09 -8.18304e-07 0)
(3.72816e-09 -8.19062e-07 0)
(3.68716e-09 -8.19814e-07 0)
(3.64612e-09 -8.20559e-07 0)
(3.60505e-09 -8.21297e-07 0)
(3.56393e-09 -8.22029e-07 0)
(3.52279e-09 -8.22755e-07 0)
(3.48161e-09 -8.23473e-07 0)
(3.4404e-09 -8.24185e-07 0)
(3.39915e-09 -8.24889e-07 0)
(3.35791e-09 -8.25589e-07 0)
(3.3165e-09 -8.26274e-07 0)
(3.27582e-09 -8.2698e-07 0)
(3.23198e-09 -8.27601e-07 0)
(3.19979e-09 -8.28516e-07 0)
(3.11585e-09 -8.28856e-07 0)
(3.0179e-09 -8.29242e-07 0)
(2.97806e-09 -8.30311e-07 0)
(2.94509e-09 -8.3084e-07 0)
(2.915e-09 -8.31251e-07 0)
(2.88524e-09 -8.31777e-07 0)
(2.85497e-09 -8.32369e-07 0)
(2.82432e-09 -8.32951e-07 0)
(2.79327e-09 -8.3351e-07 0)
(2.76179e-09 -8.34065e-07 0)
(2.7299e-09 -8.34624e-07 0)
(2.69758e-09 -8.35185e-07 0)
(2.66483e-09 -8.35745e-07 0)
(2.63165e-09 -8.36304e-07 0)
(2.59804e-09 -8.36861e-07 0)
(2.56399e-09 -8.37417e-07 0)
(2.52952e-09 -8.37972e-07 0)
(2.4946e-09 -8.38525e-07 0)
(2.45926e-09 -8.39076e-07 0)
(2.42347e-09 -8.39625e-07 0)
(2.38725e-09 -8.40172e-07 0)
(2.3506e-09 -8.40716e-07 0)
(2.31351e-09 -8.41258e-07 0)
(2.27598e-09 -8.41797e-07 0)
(2.23802e-09 -8.42333e-07 0)
(2.19962e-09 -8.42865e-07 0)
(2.16079e-09 -8.43394e-07 0)
(2.12153e-09 -8.43918e-07 0)
(2.08183e-09 -8.44439e-07 0)
(2.04171e-09 -8.44955e-07 0)
(2.00116e-09 -8.45467e-07 0)
(1.96017e-09 -8.45974e-07 0)
(1.91877e-09 -8.46475e-07 0)
(1.87694e-09 -8.46972e-07 0)
(1.83469e-09 -8.47462e-07 0)
(1.79201e-09 -8.47946e-07 0)
(1.74892e-09 -8.48424e-07 0)
(1.70542e-09 -8.48895e-07 0)
(1.6615e-09 -8.49359e-07 0)
(1.61717e-09 -8.49816e-07 0)
(1.57243e-09 -8.50266e-07 0)
(1.52729e-09 -8.50707e-07 0)
(1.48174e-09 -8.5114e-07 0)
(1.4358e-09 -8.51564e-07 0)
(1.38946e-09 -8.51979e-07 0)
(1.34273e-09 -8.52385e-07 0)
(1.29561e-09 -8.52781e-07 0)
(1.24811e-09 -8.53167e-07 0)
(1.20023e-09 -8.53542e-07 0)
(1.15197e-09 -8.53907e-07 0)
(1.10333e-09 -8.5426e-07 0)
(1.05434e-09 -8.54601e-07 0)
(1.00497e-09 -8.5493e-07 0)
(9.55257e-10 -8.55247e-07 0)
(9.05188e-10 -8.5555e-07 0)
(8.54773e-10 -8.55841e-07 0)
(8.04018e-10 -8.56117e-07 0)
(7.52929e-10 -8.56379e-07 0)
(7.01511e-10 -8.56626e-07 0)
(6.49773e-10 -8.56858e-07 0)
(5.9772e-10 -8.57074e-07 0)
(5.45359e-10 -8.57274e-07 0)
(4.92699e-10 -8.57457e-07 0)
(4.39746e-10 -8.57624e-07 0)
(3.86509e-10 -8.57772e-07 0)
(3.32995e-10 -8.57902e-07 0)
(2.79214e-10 -8.58014e-07 0)
(2.25175e-10 -8.58106e-07 0)
(1.70885e-10 -8.58179e-07 0)
(1.16355e-10 -8.58231e-07 0)
(6.15954e-11 -8.58262e-07 0)
(6.61499e-12 -8.58272e-07 0)
(-4.85753e-11 -8.5826e-07 0)
(-1.03965e-10 -8.58226e-07 0)
(-1.59542e-10 -8.58168e-07 0)
(-2.15296e-10 -8.58087e-07 0)
(-2.71215e-10 -8.57982e-07 0)
(-3.27287e-10 -8.57852e-07 0)
(-3.83499e-10 -8.57696e-07 0)
(-4.39838e-10 -8.57515e-07 0)
(-4.96292e-10 -8.57306e-07 0)
(-5.52846e-10 -8.57071e-07 0)
(-6.09488e-10 -8.56808e-07 0)
(-6.66201e-10 -8.56517e-07 0)
(-7.22973e-10 -8.56196e-07 0)
(-7.79787e-10 -8.55846e-07 0)
(-8.36629e-10 -8.55465e-07 0)
(-8.93483e-10 -8.55054e-07 0)
(-9.50332e-10 -8.54611e-07 0)
(-1.00716e-09 -8.54136e-07 0)
(-1.06395e-09 -8.53628e-07 0)
(-1.12069e-09 -8.53087e-07 0)
(-1.17735e-09 -8.52512e-07 0)
(-1.23393e-09 -8.51902e-07 0)
(-1.29039e-09 -8.51257e-07 0)
(-1.34673e-09 -8.50576e-07 0)
(-1.40292e-09 -8.49858e-07 0)
(-1.45895e-09 -8.49103e-07 0)
(-1.51479e-09 -8.4831e-07 0)
(-1.57042e-09 -8.47479e-07 0)
(-1.62583e-09 -8.46608e-07 0)
(-1.681e-09 -8.45698e-07 0)
(-1.7359e-09 -8.44748e-07 0)
(-1.7905e-09 -8.43756e-07 0)
(-1.8448e-09 -8.42723e-07 0)
(-1.89877e-09 -8.41648e-07 0)
(-1.95239e-09 -8.4053e-07 0)
(-2.00563e-09 -8.39369e-07 0)
(-2.05847e-09 -8.38163e-07 0)
(-2.11089e-09 -8.36914e-07 0)
(-2.16286e-09 -8.35619e-07 0)
(-2.21437e-09 -8.34278e-07 0)
(-2.26539e-09 -8.32892e-07 0)
(-2.3159e-09 -8.31459e-07 0)
(-2.36587e-09 -8.29978e-07 0)
(-2.41528e-09 -8.2845e-07 0)
(-2.4641e-09 -8.26873e-07 0)
(-2.51232e-09 -8.25248e-07 0)
(-2.55991e-09 -8.23574e-07 0)
(-2.60684e-09 -8.2185e-07 0)
(-2.65309e-09 -8.20076e-07 0)
(-2.69865e-09 -8.18252e-07 0)
(-2.74348e-09 -8.16377e-07 0)
(-2.78756e-09 -8.14451e-07 0)
(-2.83087e-09 -8.12473e-07 0)
(-2.87338e-09 -8.10443e-07 0)
(-2.91509e-09 -8.08361e-07 0)
(-2.95595e-09 -8.06226e-07 0)
(-2.99595e-09 -8.04039e-07 0)
(-3.03507e-09 -8.01799e-07 0)
(-3.07329e-09 -7.99505e-07 0)
(-3.11058e-09 -7.97158e-07 0)
(-3.14692e-09 -7.94758e-07 0)
(-3.1823e-09 -7.92303e-07 0)
(-3.21669e-09 -7.89795e-07 0)
(-3.25007e-09 -7.87232e-07 0)
(-3.28243e-09 -7.84616e-07 0)
(-3.31373e-09 -7.81945e-07 0)
(-3.34397e-09 -7.7922e-07 0)
(-3.37312e-09 -7.76441e-07 0)
(-3.40117e-09 -7.73609e-07 0)
(-3.4281e-09 -7.70721e-07 0)
(-3.45388e-09 -7.67781e-07 0)
(-3.4785e-09 -7.64786e-07 0)
(-3.50194e-09 -7.61738e-07 0)
(-3.52419e-09 -7.58637e-07 0)
(-3.54523e-09 -7.55483e-07 0)
(-3.56503e-09 -7.52275e-07 0)
(-3.58359e-09 -7.49016e-07 0)
(-3.60088e-09 -7.45704e-07 0)
(-3.6169e-09 -7.42342e-07 0)
(-3.63163e-09 -7.38928e-07 0)
(-3.64505e-09 -7.35464e-07 0)
(-3.65716e-09 -7.31949e-07 0)
(-3.66794e-09 -7.28386e-07 0)
(-3.67739e-09 -7.24773e-07 0)
(-3.6855e-09 -7.21113e-07 0)
(-3.69226e-09 -7.17405e-07 0)
(-3.69767e-09 -7.13652e-07 0)
(-3.70173e-09 -7.09852e-07 0)
(-3.70445e-09 -7.06009e-07 0)
(-3.70582e-09 -7.02121e-07 0)
(-3.70585e-09 -6.9819e-07 0)
(-3.70454e-09 -6.94217e-07 0)
(-3.70192e-09 -6.90205e-07 0)
(-3.69798e-09 -6.86151e-07 0)
(-3.69273e-09 -6.82059e-07 0)
(-3.68619e-09 -6.77929e-07 0)
(-3.67838e-09 -6.73763e-07 0)
(-3.66929e-09 -6.69561e-07 0)
(-3.65895e-09 -6.65326e-07 0)
(-3.64738e-09 -6.61056e-07 0)
(-3.63458e-09 -6.56755e-07 0)
(-3.62057e-09 -6.52423e-07 0)
(-3.60538e-09 -6.48063e-07 0)
(-3.58901e-09 -6.43674e-07 0)
(-3.57148e-09 -6.39257e-07 0)
(-3.55278e-09 -6.34821e-07 0)
(-3.53301e-09 -6.30334e-07 0)
(-3.5117e-09 -6.25905e-07 0)
(-3.49194e-09 -6.2112e-07 0)
(-3.46226e-09 -6.1694e-07 0)
(-3.42037e-09 -6.12121e-07 0)
(-3.384e-09 -6.06088e-07 0)
(-3.35275e-09 -6.00712e-07 0)
(-3.32089e-09 -5.95456e-07 0)
(-3.28823e-09 -5.90127e-07 0)
(-3.25495e-09 -5.84796e-07 0)
(-3.22093e-09 -5.79537e-07 0)
(-3.18622e-09 -5.74356e-07 0)
(-3.1509e-09 -5.69234e-07 0)
(-3.11504e-09 -5.64165e-07 0)
(-3.07869e-09 -5.59151e-07 0)
(-3.0419e-09 -5.54198e-07 0)
(-3.00472e-09 -5.49304e-07 0)
(-2.96721e-09 -5.44472e-07 0)
(-2.9294e-09 -5.397e-07 0)
(-2.89136e-09 -5.3499e-07 0)
(-2.8531e-09 -5.30341e-07 0)
(-2.81468e-09 -5.25755e-07 0)
(-2.77612e-09 -5.21231e-07 0)
(-2.73747e-09 -5.16769e-07 0)
(-2.69873e-09 -5.1237e-07 0)
(-2.65995e-09 -5.08034e-07 0)
(-2.62114e-09 -5.0376e-07 0)
(-2.58233e-09 -4.99549e-07 0)
(-2.54354e-09 -4.95401e-07 0)
(-2.50478e-09 -4.91316e-07 0)
(-2.46607e-09 -4.87293e-07 0)
(-2.42742e-09 -4.83333e-07 0)
(-2.38885e-09 -4.79435e-07 0)
(-2.35036e-09 -4.756e-07 0)
(-2.31196e-09 -4.71827e-07 0)
(-2.27367e-09 -4.68116e-07 0)
(-2.2355e-09 -4.64467e-07 0)
(-2.19744e-09 -4.60879e-07 0)
(-2.1595e-09 -4.57353e-07 0)
(-2.1217e-09 -4.53889e-07 0)
(-2.08403e-09 -4.50485e-07 0)
(-2.04651e-09 -4.47143e-07 0)
(-2.00913e-09 -4.43861e-07 0)
(-1.97189e-09 -4.4064e-07 0)
(-1.93481e-09 -4.37479e-07 0)
(-1.89789e-09 -4.34377e-07 0)
(-1.86112e-09 -4.31336e-07 0)
(-1.82451e-09 -4.28354e-07 0)
(-1.78807e-09 -4.25431e-07 0)
(-1.75178e-09 -4.22566e-07 0)
(-1.71566e-09 -4.19761e-07 0)
(-1.67969e-09 -4.17014e-07 0)
(-1.64389e-09 -4.14325e-07 0)
(-1.60824e-09 -4.11694e-07 0)
(-1.57276e-09 -4.0912e-07 0)
(-1.53742e-09 -4.06604e-07 0)
(-1.50223e-09 -4.04145e-07 0)
(-1.46719e-09 -4.01742e-07 0)
(-1.4323e-09 -3.99397e-07 0)
(-1.39754e-09 -3.97107e-07 0)
(-1.36291e-09 -3.94874e-07 0)
(-1.32841e-09 -3.92697e-07 0)
(-1.29404e-09 -3.90575e-07 0)
(-1.25978e-09 -3.88509e-07 0)
(-1.22564e-09 -3.86498e-07 0)
(-1.1916e-09 -3.84543e-07 0)
(-1.15766e-09 -3.82642e-07 0)
(-1.12381e-09 -3.80796e-07 0)
(-1.09006e-09 -3.79005e-07 0)
(-1.05639e-09 -3.77268e-07 0)
(-1.02279e-09 -3.75586e-07 0)
(-9.89276e-10 -3.73957e-07 0)
(-9.55825e-10 -3.72383e-07 0)
(-9.22436e-10 -3.70864e-07 0)
(-8.89104e-10 -3.69397e-07 0)
(-8.55824e-10 -3.67985e-07 0)
(-8.2259e-10 -3.66627e-07 0)
(-7.89395e-10 -3.65322e-07 0)
(-7.56234e-10 -3.64071e-07 0)
(-7.23101e-10 -3.62873e-07 0)
(-6.89987e-10 -3.61729e-07 0)
(-6.56887e-10 -3.60638e-07 0)
(-6.23793e-10 -3.59601e-07 0)
(-5.90698e-10 -3.58617e-07 0)
(-5.57595e-10 -3.57687e-07 0)
(-5.2448e-10 -3.56811e-07 0)
(-4.9135e-10 -3.55988e-07 0)
(-4.58208e-10 -3.55219e-07 0)
(-4.25058e-10 -3.54502e-07 0)
(-3.91923e-10 -3.53843e-07 0)
(-3.58823e-10 -3.53227e-07 0)
(-3.25822e-10 -3.52697e-07 0)
(-2.92924e-10 -3.52114e-07 0)
(-2.60403e-10 -3.51931e-07 0)
(-2.27494e-10 -3.50625e-07 0)
(-1.97146e-10 -3.53124e-07 0)
(-1.56834e-10 -3.42283e-07 0)
(-1.55314e-10 -3.70133e-07 0)
(-9.02873e-11 -3.23058e-07 0)
)
;
    }
    bottomWall
    {
        type            calculated;
        value           nonuniform List<vector> 
449
(
(-48.7431 -0.96703 0)
(-19.8339 -0.0051772 0)
(-14.4094 -0.00113753 0)
(-12.0981 -0.000544612 0)
(-10.6998 -0.000347356 0)
(-9.72675 -0.000246587 0)
(-9.01255 -0.000178865 0)
(-8.49956 -0.0001189 0)
(-8.19312 -4.30776e-05 0)
(-8.19806 7.19366e-05 0)
(-8.67386 0.000201365 0)
(-9.56744 0.000240556 0)
(-10.3256 0.000175003 0)
(-10.7771 9.57675e-05 0)
(-10.9901 4.14922e-05 0)
(-11.0646 1.05113e-05 0)
(-11.0619 -7.56382e-06 0)
(-11.0104 -1.80584e-05 0)
(-10.9345 -2.39333e-05 0)
(-10.8418 -2.77011e-05 0)
(-10.7392 -2.97039e-05 0)
(-10.6321 -3.04365e-05 0)
(-10.5239 -3.04286e-05 0)
(-10.4164 -2.98789e-05 0)
(-10.3116 -2.91073e-05 0)
(-10.2091 -2.81085e-05 0)
(-10.111 -2.70657e-05 0)
(-10.0155 -2.59748e-05 0)
(-9.92478 -2.48793e-05 0)
(-9.83668 -2.38099e-05 0)
(-9.75324 -2.27815e-05 0)
(-9.67216 -2.17853e-05 0)
(-9.59555 -2.08047e-05 0)
(-9.5212 -1.99778e-05 0)
(-9.45023 -1.90739e-05 0)
(-9.38215 -1.8275e-05 0)
(-9.31665 -1.75758e-05 0)
(-9.25335 -1.68547e-05 0)
(-9.19286 -1.61759e-05 0)
(-9.13425 -1.55737e-05 0)
(-9.07793 -1.48835e-05 0)
(-9.02416 -1.43893e-05 0)
(-8.9712 -1.38509e-05 0)
(-8.92121 -1.32877e-05 0)
(-8.87219 -1.2888e-05 0)
(-8.82493 -1.24185e-05 0)
(-8.77921 -1.20056e-05 0)
(-8.73482 -1.15922e-05 0)
(-8.69199 -1.12369e-05 0)
(-8.65008 -1.07888e-05 0)
(-8.61046 -1.04631e-05 0)
(-8.57082 -1.00405e-05 0)
(-8.53427 -9.67396e-06 0)
(-8.49721 -9.43745e-06 0)
(-8.46225 -9.19046e-06 0)
(-8.42691 -8.91339e-06 0)
(-8.39392 -8.63858e-06 0)
(-8.36051 -8.42618e-06 0)
(-8.32901 -8.10203e-06 0)
(-8.29798 -7.89628e-06 0)
(-8.26789 -7.72639e-06 0)
(-8.23801 -7.54211e-06 0)
(-8.20923 -7.30162e-06 0)
(-8.18111 -7.08085e-06 0)
(-8.15391 -6.88322e-06 0)
(-8.12722 -6.61635e-06 0)
(-8.10201 -6.40639e-06 0)
(-8.07685 -6.22338e-06 0)
(-8.05295 -6.15652e-06 0)
(-8.02815 -6.05371e-06 0)
(-8.00496 -5.9082e-06 0)
(-7.98121 -5.77789e-06 0)
(-7.95896 -5.53792e-06 0)
(-7.93704 -5.41387e-06 0)
(-7.91566 -5.27209e-06 0)
(-7.89477 -5.19522e-06 0)
(-7.87388 -5.10624e-06 0)
(-7.85363 -4.91723e-06 0)
(-7.8342 -4.83829e-06 0)
(-7.81445 -4.75182e-06 0)
(-7.79566 -4.50599e-06 0)
(-7.77786 -4.43214e-06 0)
(-7.75953 -4.44014e-06 0)
(-7.74154 -4.37985e-06 0)
(-7.72364 -4.20619e-06 0)
(-7.70701 -4.18159e-06 0)
(-7.68919 -4.09455e-06 0)
(-7.67325 -3.8733e-06 0)
(-7.6572 -3.81662e-06 0)
(-7.6416 -3.82608e-06 0)
(-7.62538 -3.85465e-06 0)
(-7.60949 -3.73999e-06 0)
(-7.59417 -3.6995e-06 0)
(-7.57854 -3.50664e-06 0)
(-7.56481 -3.41623e-06 0)
(-7.54982 -3.50768e-06 0)
(-7.5352 -3.4769e-06 0)
(-7.52044 -3.37446e-06 0)
(-7.50665 -3.30711e-06 0)
(-7.49238 -3.18526e-06 0)
(-7.4796 -2.91672e-06 0)
(-7.46757 -2.87124e-06 0)
(-7.45505 -2.9029e-06 0)
(-7.44268 -2.92782e-06 0)
(-7.42989 -2.87664e-06 0)
(-7.41793 -2.7477e-06 0)
(-7.40622 -2.71214e-06 0)
(-7.39447 -2.75239e-06 0)
(-7.38237 -2.55895e-06 0)
(-7.37234 -2.40749e-06 0)
(-7.36147 -2.48784e-06 0)
(-7.35064 -2.4186e-06 0)
(-7.34036 -2.33343e-06 0)
(-7.33021 -2.31937e-06 0)
(-7.31998 -2.29539e-06 0)
(-7.31002 -2.20298e-06 0)
(-7.30057 -2.11653e-06 0)
(-7.29129 -2.12458e-06 0)
(-7.28171 -2.08122e-06 0)
(-7.27277 -2.12118e-06 0)
(-7.26277 -2.15377e-06 0)
(-7.25353 -2.0397e-06 0)
(-7.24453 -1.96188e-06 0)
(-7.23593 -1.97286e-06 0)
(-7.22678 -1.89362e-06 0)
(-7.21891 -1.73961e-06 0)
(-7.21111 -1.74337e-06 0)
(-7.20313 -1.74413e-06 0)
(-7.19531 -1.83036e-06 0)
(-7.18645 -1.8969e-06 0)
(-7.17799 -1.75731e-06 0)
(-7.17044 -1.67927e-06 0)
(-7.16262 -1.64899e-06 0)
(-7.15528 -1.58713e-06 0)
(-7.14802 -1.60254e-06 0)
(-7.14051 -1.58016e-06 0)
(-7.13342 -1.54835e-06 0)
(-7.12618 -1.50642e-06 0)
(-7.11943 -1.48427e-06 0)
(-7.11234 -1.45081e-06 0)
(-7.1059 -1.40987e-06 0)
(-7.09916 -1.40139e-06 0)
(-7.09275 -1.37251e-06 0)
(-7.08628 -1.30141e-06 0)
(-7.08052 -1.3257e-06 0)
(-7.07375 -1.52399e-06 0)
(-7.06606 -1.50119e-06 0)
(-7.0595 -1.35677e-06 0)
(-7.05317 -1.35483e-06 0)
(-7.04661 -1.25496e-06 0)
(-7.04124 -1.09646e-06 0)
(-7.03613 -1.14003e-06 0)
(-7.03025 -1.12704e-06 0)
(-7.0253 -1.10909e-06 0)
(-7.01958 -1.13894e-06 0)
(-7.01425 -1.15553e-06 0)
(-7.00834 -1.17358e-06 0)
(-7.00286 -1.07142e-06 0)
(-6.99795 -1.02774e-06 0)
(-6.99284 -9.87743e-07 0)
(-6.98828 -1.00396e-06 0)
(-6.983 -1.08431e-06 0)
(-6.97765 -9.80229e-07 0)
(-6.97337 -9.0738e-07 0)
(-6.96868 -9.93677e-07 0)
(-6.96353 -9.42736e-07 0)
(-6.95935 -8.72106e-07 0)
(-6.95486 -9.55992e-07 0)
(-6.94981 -9.3485e-07 0)
(-6.94553 -8.19746e-07 0)
(-6.94159 -8.86858e-07 0)
(-6.93659 -9.93159e-07 0)
(-6.93159 -8.96729e-07 0)
(-6.9278 -8.07547e-07 0)
(-6.92407 -8.95439e-07 0)
(-6.91961 -9.41633e-07 0)
(-6.91541 -9.72919e-07 0)
(-6.91053 -1.06089e-06 0)
(-6.90541 -1.00152e-06 0)
(-6.90103 -9.86522e-07 0)
(-6.89589 -1.04498e-06 0)
(-6.89083 -9.58893e-07 0)
(-6.88648 -8.89714e-07 0)
(-6.88198 -8.39392e-07 0)
(-6.87804 -7.49372e-07 0)
(-6.87439 -7.20926e-07 0)
(-6.87064 -6.72877e-07 0)
(-6.86742 -6.35505e-07 0)
(-6.864 -6.57674e-07 0)
(-6.86045 -6.1385e-07 0)
(-6.85744 -5.93522e-07 0)
(-6.85404 -6.21977e-07 0)
(-6.85064 -5.65802e-07 0)
(-6.84781 -5.54723e-07 0)
(-6.84446 -5.77632e-07 0)
(-6.8413 -5.25965e-07 0)
(-6.83847 -5.35492e-07 0)
(-6.83512 -5.51907e-07 0)
(-6.83204 -4.95433e-07 0)
(-6.8293 -5.13203e-07 0)
(-6.82593 -5.3676e-07 0)
(-6.82283 -4.87486e-07 0)
(-6.82 -4.99492e-07 0)
(-6.81669 -5.05887e-07 0)
(-6.81372 -4.55714e-07 0)
(-6.81097 -4.72707e-07 0)
(-6.80771 -4.80993e-07 0)
(-6.80481 -4.31474e-07 0)
(-6.80211 -4.55337e-07 0)
(-6.79881 -4.64747e-07 0)
(-6.79596 -4.37308e-07 0)
(-6.79297 -4.42725e-07 0)
(-6.78995 -4.12464e-07 0)
(-6.7873 -4.20982e-07 0)
(-6.78412 -4.45155e-07 0)
(-6.78107 -4.024e-07 0)
(-6.77841 -4.16874e-07 0)
(-6.77509 -4.38327e-07 0)
(-6.77208 -3.93207e-07 0)
(-6.76936 -4.00566e-07 0)
(-6.76616 -4.00649e-07 0)
(-6.76338 -3.62072e-07 0)
(-6.76069 -3.85137e-07 0)
(-6.75749 -3.85351e-07 0)
(-6.75475 -3.58452e-07 0)
(-6.7519 -3.6212e-07 0)
(-6.74903 -3.46847e-07 0)
(-6.74636 -3.38216e-07 0)
(-6.74357 -3.50951e-07 0)
(-6.74063 -3.46517e-07 0)
(-6.73787 -3.59832e-07 0)
(-6.73464 -3.72046e-07 0)
(-6.73161 -3.37226e-07 0)
(-6.72891 -3.36702e-07 0)
(-6.72582 -3.4237e-07 0)
(-6.72296 -3.16907e-07 0)
(-6.72025 -3.37944e-07 0)
(-6.71695 -3.44888e-07 0)
(-6.71406 -3.13034e-07 0)
(-6.71127 -3.25801e-07 0)
(-6.70807 -3.22708e-07 0)
(-6.70528 -3.02166e-07 0)
(-6.7024 -3.23127e-07 0)
(-6.69915 -3.1586e-07 0)
(-6.69635 -2.92141e-07 0)
(-6.69348 -3.17743e-07 0)
(-6.69011 -3.14437e-07 0)
(-6.68726 -2.82897e-07 0)
(-6.68445 -2.93275e-07 0)
(-6.68132 -2.84932e-07 0)
(-6.67862 -2.83766e-07 0)
(-6.67544 -2.8306e-07 0)
(-6.6727 -2.83424e-07 0)
(-6.66945 -2.83396e-07 0)
(-6.66665 -2.79018e-07 0)
(-6.66341 -2.83076e-07 0)
(-6.66045 -2.67382e-07 0)
(-6.6575 -2.88253e-07 0)
(-6.65401 -2.90301e-07 0)
(-6.65095 -2.63784e-07 0)
(-6.648 -2.81196e-07 0)
(-6.64446 -2.85048e-07 0)
(-6.64136 -2.57151e-07 0)
(-6.63841 -2.6986e-07 0)
(-6.63493 -2.74477e-07 0)
(-6.63181 -2.49401e-07 0)
(-6.62887 -2.60283e-07 0)
(-6.6254 -2.62656e-07 0)
(-6.62234 -2.48716e-07 0)
(-6.61916 -2.54709e-07 0)
(-6.61587 -2.42947e-07 0)
(-6.61293 -2.36338e-07 0)
(-6.60973 -2.3196e-07 0)
(-6.60683 -2.38416e-07 0)
(-6.60341 -2.39891e-07 0)
(-6.60041 -2.19808e-07 0)
(-6.59745 -2.34107e-07 0)
(-6.594 -2.32442e-07 0)
(-6.59103 -2.06477e-07 0)
(-6.58823 -2.15644e-07 0)
(-6.58494 -2.1679e-07 0)
(-6.58205 -1.95983e-07 0)
(-6.57928 -2.06464e-07 0)
(-6.57602 -2.08128e-07 0)
(-6.57315 -1.89146e-07 0)
(-6.57038 -2.00958e-07 0)
(-6.56709 -2.02448e-07 0)
(-6.56422 -1.83507e-07 0)
(-6.56144 -1.95037e-07 0)
(-6.55814 -1.95995e-07 0)
(-6.55528 -1.77466e-07 0)
(-6.5525 -1.86362e-07 0)
(-6.54928 -1.85327e-07 0)
(-6.54648 -1.69561e-07 0)
(-6.54371 -1.78692e-07 0)
(-6.54054 -1.75848e-07 0)
(-6.53782 -1.60742e-07 0)
(-6.53509 -1.74344e-07 0)
(-6.53183 -1.74159e-07 0)
(-6.52906 -1.55959e-07 0)
(-6.52637 -1.65415e-07 0)
(-6.52319 -1.65311e-07 0)
(-6.52045 -1.4852e-07 0)
(-6.51782 -1.55936e-07 0)
(-6.51474 -1.55217e-07 0)
(-6.51208 -1.41275e-07 0)
(-6.50946 -1.49263e-07 0)
(-6.50643 -1.47435e-07 0)
(-6.50383 -1.36627e-07 0)
(-6.50116 -1.4034e-07 0)
(-6.49835 -1.33808e-07 0)
(-6.49588 -1.31371e-07 0)
(-6.49311 -1.38231e-07 0)
(-6.49031 -1.28802e-07 0)
(-6.48786 -1.24386e-07 0)
(-6.48518 -1.30466e-07 0)
(-6.48243 -1.22951e-07 0)
(-6.48 -1.21292e-07 0)
(-6.47726 -1.23736e-07 0)
(-6.47468 -1.13847e-07 0)
(-6.47231 -1.16291e-07 0)
(-6.46957 -1.20446e-07 0)
(-6.46696 -1.11327e-07 0)
(-6.46457 -1.10437e-07 0)
(-6.46194 -1.10802e-07 0)
(-6.45949 -1.0393e-07 0)
(-6.45712 -1.06688e-07 0)
(-6.45448 -1.06051e-07 0)
(-6.4521 -9.89737e-08 0)
(-6.44974 -1.04107e-07 0)
(-6.44706 -1.03371e-07 0)
(-6.44469 -9.41709e-08 0)
(-6.4424 -9.74506e-08 0)
(-6.43981 -9.60748e-08 0)
(-6.43755 -8.96087e-08 0)
(-6.43523 -9.24763e-08 0)
(-6.43277 -9.03762e-08 0)
(-6.43052 -8.57207e-08 0)
(-6.42825 -8.88882e-08 0)
(-6.42578 -8.58241e-08 0)
(-6.42363 -7.84696e-08 0)
(-6.4215 -8.21365e-08 0)
(-6.4191 -8.08399e-08 0)
(-6.41701 -7.69834e-08 0)
(-6.41477 -7.89166e-08 0)
(-6.41252 -7.3981e-08 0)
(-6.41052 -7.13247e-08 0)
(-6.40837 -7.38485e-08 0)
(-6.40618 -7.17117e-08 0)
(-6.40411 -7.18312e-08 0)
(-6.40186 -7.07828e-08 0)
(-6.39981 -6.54851e-08 0)
(-6.39784 -7.00561e-08 0)
(-6.39546 -7.25145e-08 0)
(-6.39304 -6.36621e-08 0)
(-6.39077 -5.48205e-08 0)
(-6.38879 -5.42006e-08 0)
(-6.38657 -5.52126e-08 0)
(-6.38451 -5.49333e-08 0)
(-6.38231 -5.44609e-08 0)
(-6.38029 -5.35178e-08 0)
(-6.37817 -5.32859e-08 0)
(-6.37616 -5.16132e-08 0)
(-6.37417 -5.13782e-08 0)
(-6.37219 -4.93699e-08 0)
(-6.37035 -5.20585e-08 0)
(-6.36815 -5.29934e-08 0)
(-6.36623 -4.85108e-08 0)
(-6.36439 -4.96378e-08 0)
(-6.36239 -4.81682e-08 0)
(-6.36066 -4.62001e-08 0)
(-6.35881 -4.93007e-08 0)
(-6.35683 -4.73033e-08 0)
(-6.35513 -4.58297e-08 0)
(-6.35327 -4.55281e-08 0)
(-6.3516 -4.46593e-08 0)
(-6.34981 -4.27743e-08 0)
(-6.34828 -4.04365e-08 0)
(-6.34667 -4.14242e-08 0)
(-6.34507 -4.14184e-08 0)
(-6.34346 -4.12257e-08 0)
(-6.34187 -3.9841e-08 0)
(-6.34036 -3.96664e-08 0)
(-6.33879 -3.8679e-08 0)
(-6.33737 -3.71283e-08 0)
(-6.33592 -3.76565e-08 0)
(-6.33445 -3.59683e-08 0)
(-6.33313 -3.91498e-08 0)
(-6.33141 -4.03018e-08 0)
(-6.33 -3.57749e-08 0)
(-6.32864 -3.56711e-08 0)
(-6.32724 -3.53498e-08 0)
(-6.3259 -3.19493e-08 0)
(-6.32477 -3.40185e-08 0)
(-6.32326 -3.55555e-08 0)
(-6.32201 -3.03742e-08 0)
(-6.32091 -3.48642e-08 0)
(-6.3193 -3.47765e-08 0)
(-6.31821 -2.60717e-08 0)
(-6.31729 -3.10793e-08 0)
(-6.3158 -3.13919e-08 0)
(-6.31485 -2.30307e-08 0)
(-6.31403 -2.09549e-08 0)
(-6.31324 -2.12371e-08 0)
(-6.3124 -2.21997e-08 0)
(-6.31153 -2.19268e-08 0)
(-6.31071 -2.83054e-08 0)
(-6.30934 -2.81247e-08 0)
(-6.30852 -2.00653e-08 0)
(-6.30779 -1.85902e-08 0)
(-6.3071 -1.90848e-08 0)
(-6.30632 -1.93061e-08 0)
(-6.30561 -1.93755e-08 0)
(-6.30483 -2.86159e-08 0)
(-6.30338 -2.83849e-08 0)
(-6.30263 -1.67142e-08 0)
(-6.30211 -1.65321e-08 0)
(-6.30136 -1.84755e-08 0)
(-6.30068 -2.41061e-08 0)
(-6.29949 -2.30098e-08 0)
(-6.2989 -1.44792e-08 0)
(-6.29839 -1.41011e-08 0)
(-6.29783 -1.49904e-08 0)
(-6.29724 -2.18085e-08 0)
(-6.29614 -2.12356e-08 0)
(-6.29559 -1.3329e-08 0)
(-6.29512 -2.04156e-08 0)
(-6.29401 -2.13029e-08 0)
(-6.29347 -1.30194e-08 0)
(-6.29302 -1.92633e-08 0)
(-6.29198 -2.11015e-08 0)
(-6.29138 -1.37361e-08 0)
(-6.29092 -1.32084e-08 0)
(-6.29036 -1.49162e-08 0)
(-6.28977 -1.25826e-08 0)
(-6.28941 -8.84346e-09 0)
(-6.28911 -9.18398e-09 0)
(-6.28871 -1.1673e-08 0)
(-6.28822 -1.51168e-08 0)
(-6.28755 -1.50539e-08 0)
(-6.28706 -1.18683e-08 0)
(-6.28664 -1.08676e-08 0)
(-6.28623 -1.19324e-08 0)
(-6.28572 -2.04311e-08 0)
(-6.28464 -1.76537e-08 0)
(-6.28436 -8.12639e-09 0)
(-6.28403 -4.20388e-09 0)
(-6.28406 -2.42997e-08 0)
(-6.28213 -2.55762e-08 0)
)
;
    }
    symmetry
    {
        type            symmetryPlane;
    }
    frontAndBack
    {
        type            empty;
    }
}


// ************************************************************************* //
