/*--------------------------------*- C++ -*----------------------------------*\
| =========                 |                                                 |
| \\      /  F ield         | OpenFOAM: The Open Source CFD Toolbox           |
|  \\    /   O peration     | Version:  v2012                                 |
|   \\  /    A nd           | Website:  www.openfoam.com                      |
|    \\/     M anipulation  |                                                 |
\*---------------------------------------------------------------------------*/
FoamFile
{
    version     2.0;
    format      ascii;
    class       volScalarField;
    location    "7.5";
    object      yPlus;
}
// * * * * * * * * * * * * * * * * * * * * * * * * * * * * * * * * * * * * * //

dimensions      [0 0 0 0 0 0 0];


internalField   uniform 0;

boundaryField
{
    inlet
    {
        type            calculated;
        value           uniform 0;
    }
    outlet
    {
        type            calculated;
        value           uniform 0;
    }
    topWall
    {
        type            calculated;
        value           nonuniform List<scalar> 
545
(
0.0720107
0.124893
0.160042
0.18792
0.2115
0.232115
0.250507
0.267146
0.28235
0.296351
0.309319
0.32139
0.33267
0.343245
0.353186
0.362555
0.371401
0.37977
0.3877
0.395223
0.402372
0.40917
0.415644
0.421813
0.427697
0.433314
0.43868
0.44381
0.448716
0.453412
0.457909
0.462218
0.466348
0.470308
0.474109
0.477756
0.481258
0.484622
0.487854
0.490961
0.493949
0.496822
0.499586
0.502246
0.504806
0.507272
0.509646
0.511933
0.514137
0.516261
0.518308
0.520282
0.522185
0.524021
0.525792
0.527501
0.529149
0.530741
0.532277
0.53376
0.535192
0.536575
0.53791
0.5392
0.540446
0.54165
0.542814
0.543938
0.545025
0.546075
0.54709
0.548071
0.549006
0.549909
0.550802
0.551686
0.552562
0.553428
0.554286
0.555136
0.555976
0.556809
0.557633
0.558449
0.559256
0.560056
0.560847
0.561631
0.562407
0.563175
0.563935
0.564688
0.565434
0.566172
0.566902
0.567628
0.568267
0.568838
0.569407
0.569975
0.570542
0.571109
0.571674
0.572238
0.572802
0.573364
0.573925
0.574486
0.575045
0.575604
0.576161
0.576717
0.577273
0.577827
0.57838
0.578932
0.579483
0.580033
0.580582
0.581129
0.581676
0.582221
0.582766
0.583309
0.583851
0.584391
0.584931
0.585469
0.586007
0.586543
0.587077
0.587611
0.588143
0.588674
0.589204
0.589733
0.59026
0.590786
0.59131
0.591834
0.592356
0.592876
0.593396
0.593914
0.59443
0.594946
0.595459
0.595972
0.596483
0.596993
0.597501
0.598008
0.598513
0.599017
0.599519
0.60002
0.60052
0.601018
0.601514
0.602009
0.602502
0.602994
0.603485
0.603973
0.604461
0.604946
0.60543
0.605912
0.606393
0.606872
0.60735
0.607826
0.6083
0.608772
0.609243
0.609712
0.61018
0.610645
0.611109
0.611572
0.612032
0.612491
0.612948
0.613403
0.613856
0.614308
0.614757
0.615205
0.615651
0.616095
0.616538
0.616978
0.617417
0.617853
0.618288
0.618721
0.619152
0.61958
0.620007
0.620432
0.620855
0.621276
0.621695
0.622112
0.622527
0.62294
0.62335
0.623759
0.624166
0.62457
0.624972
0.625373
0.625771
0.626167
0.626561
0.626952
0.627342
0.627729
0.628114
0.628497
0.628877
0.629255
0.629632
0.630005
0.630377
0.630746
0.631113
0.631477
0.63184
0.632199
0.632557
0.632912
0.633265
0.633615
0.633963
0.634308
0.634651
0.634992
0.63533
0.635665
0.635998
0.636329
0.636657
0.636983
0.637306
0.637626
0.637944
0.638259
0.638572
0.638882
0.639189
0.639494
0.639796
0.640096
0.640392
0.640686
0.640978
0.641266
0.641552
0.641836
0.642116
0.642394
0.642669
0.642941
0.64321
0.643476
0.64374
0.644
0.64426
0.644494
0.644712
0.64493
0.645148
0.645366
0.645584
0.645802
0.646019
0.646237
0.646454
0.646672
0.646888
0.647105
0.647321
0.647536
0.647751
0.647965
0.648178
0.64839
0.648602
0.648812
0.649022
0.64923
0.649437
0.649642
0.649846
0.650049
0.65025
0.650449
0.650646
0.650841
0.651035
0.651226
0.651415
0.651601
0.651785
0.651966
0.652145
0.652321
0.652494
0.652663
0.65283
0.652993
0.653153
0.653309
0.653461
0.653609
0.653753
0.653893
0.654029
0.65416
0.654287
0.654408
0.654525
0.654636
0.654742
0.654843
0.654938
0.655027
0.65511
0.655187
0.655258
0.655322
0.655379
0.65543
0.655473
0.655509
0.655537
0.655557
0.65557
0.655574
0.65557
0.655558
0.655537
0.655506
0.655467
0.655417
0.655359
0.65529
0.655211
0.655122
0.655022
0.654911
0.654789
0.654656
0.654511
0.654354
0.654186
0.654004
0.653811
0.653604
0.653384
0.653151
0.652905
0.652644
0.652369
0.65208
0.651777
0.651458
0.651124
0.650775
0.65041
0.650029
0.649631
0.649218
0.648787
0.648339
0.647875
0.647392
0.646892
0.646374
0.645837
0.645282
0.644708
0.644115
0.643503
0.642871
0.642219
0.641548
0.640856
0.640143
0.63941
0.638656
0.637881
0.637084
0.636266
0.635426
0.634564
0.63368
0.632774
0.631845
0.630894
0.629919
0.628922
0.627902
0.626858
0.625791
0.6247
0.623586
0.622448
0.621286
0.6201
0.618891
0.617657
0.616399
0.615117
0.613811
0.612481
0.611126
0.609748
0.608345
0.606918
0.605467
0.603993
0.602494
0.600972
0.599426
0.597857
0.596265
0.594649
0.593011
0.59135
0.589666
0.58796
0.586232
0.584482
0.582711
0.580918
0.579105
0.577271
0.575416
0.573542
0.571648
0.569735
0.567803
0.565853
0.563884
0.561898
0.559895
0.557875
0.555837
0.553563
0.551068
0.548585
0.546114
0.543656
0.541212
0.538781
0.536366
0.533966
0.531583
0.529216
0.526868
0.524536
0.522224
0.519931
0.517658
0.515404
0.513171
0.510958
0.508767
0.506597
0.504449
0.502323
0.500219
0.498138
0.496081
0.494046
0.492035
0.490047
0.488084
0.486144
0.484229
0.482338
0.480472
0.478631
0.476815
0.475024
0.473259
0.471519
0.469805
0.468117
0.466455
0.464819
0.46321
0.461627
0.46007
0.45854
0.457037
0.455561
0.454112
0.452691
0.451296
0.449929
0.44859
0.447278
0.445994
0.444738
0.44351
0.44231
0.441138
0.439995
0.43888
0.437794
0.436736
0.435708
0.434708
0.433738
0.432796
0.431885
0.431002
0.430149
0.429326
0.428533
0.42777
0.427037
0.426334
0.425662
0.42502
0.424408
0.423828
0.423278
0.422759
0.422272
0.421815
0.42139
0.420997
0.420635
0.420305
0.420006
0.419739
0.419502
0.419298
0.41912
0.418995
0.418817
)
;
    }
    bottomWall
    {
        type            calculated;
        value           nonuniform List<scalar> 
449
(
0.139756
0.089147
0.0759844
0.0696242
0.0654771
0.0624289
0.0600933
0.058358
0.0572963
0.0573136
0.0589533
0.0619156
0.0643221
0.0657132
0.0663596
0.066584
0.0665758
0.0664208
0.0661914
0.0659102
0.0655975
0.0652696
0.0649366
0.0646041
0.0642785
0.0639582
0.0636502
0.0633488
0.0630612
0.0627807
0.0625139
0.0622535
0.0620065
0.0617658
0.0615351
0.0613131
0.0610987
0.0608908
0.0606914
0.0604976
0.0603108
0.060132
0.0599553
0.059788
0.0596235
0.0594645
0.0593103
0.0591601
0.0590149
0.0588725
0.0587375
0.0586021
0.058477
0.0583499
0.0582297
0.058108
0.0579942
0.0578787
0.0577695
0.0576618
0.0575572
0.0574531
0.0573526
0.0572543
0.057159
0.0570654
0.0569769
0.0568883
0.0568041
0.0567165
0.0566346
0.0565505
0.0564716
0.0563938
0.0563178
0.0562434
0.056169
0.0560967
0.0560273
0.0559566
0.0558893
0.0558254
0.0557596
0.0556949
0.0556305
0.0555706
0.0555063
0.0554487
0.0553907
0.0553343
0.0552755
0.0552179
0.0551623
0.0551055
0.0550555
0.055001
0.0549477
0.0548938
0.0548435
0.0547913
0.0547446
0.0547005
0.0546547
0.0546093
0.0545624
0.0545184
0.0544754
0.0544322
0.0543876
0.0543507
0.0543105
0.0542706
0.0542326
0.0541951
0.0541573
0.0541204
0.0540854
0.0540511
0.0540156
0.0539824
0.0539452
0.0539109
0.0538775
0.0538455
0.0538114
0.0537821
0.053753
0.0537233
0.0536941
0.0536611
0.0536295
0.0536012
0.053572
0.0535446
0.0535174
0.0534893
0.0534627
0.0534356
0.0534103
0.0533836
0.0533595
0.0533341
0.0533101
0.0532858
0.0532641
0.0532386
0.0532097
0.053185
0.0531611
0.0531364
0.0531161
0.0530969
0.0530747
0.053056
0.0530344
0.0530143
0.0529919
0.0529712
0.0529526
0.0529333
0.052916
0.052896
0.0528758
0.0528596
0.0528418
0.0528222
0.0528064
0.0527893
0.0527702
0.0527539
0.052739
0.0527199
0.052701
0.0526865
0.0526724
0.0526554
0.0526394
0.0526208
0.0526013
0.0525846
0.0525651
0.0525458
0.0525292
0.052512
0.052497
0.052483
0.0524687
0.0524564
0.0524434
0.0524298
0.0524183
0.0524053
0.0523923
0.0523815
0.0523687
0.0523566
0.0523458
0.052333
0.0523212
0.0523107
0.0522977
0.0522859
0.052275
0.0522623
0.0522509
0.0522404
0.0522279
0.0522168
0.0522064
0.0521937
0.0521828
0.0521713
0.0521597
0.0521496
0.0521373
0.0521256
0.0521154
0.0521026
0.052091
0.0520806
0.0520683
0.0520576
0.0520472
0.0520349
0.0520243
0.0520134
0.0520023
0.051992
0.0519813
0.05197
0.0519593
0.0519469
0.0519351
0.0519248
0.0519128
0.0519018
0.0518913
0.0518786
0.0518674
0.0518566
0.0518443
0.0518335
0.0518224
0.0518098
0.051799
0.0517879
0.0517748
0.0517638
0.0517529
0.0517408
0.0517303
0.051718
0.0517074
0.0516948
0.051684
0.0516714
0.0516599
0.0516485
0.0516349
0.0516231
0.0516116
0.0515979
0.0515859
0.0515744
0.0515609
0.0515488
0.0515373
0.0515238
0.0515119
0.0514996
0.0514868
0.0514753
0.0514629
0.0514516
0.0514382
0.0514266
0.051415
0.0514016
0.05139
0.0513791
0.0513662
0.051355
0.0513442
0.0513314
0.0513203
0.0513094
0.0512966
0.0512854
0.0512745
0.0512616
0.0512504
0.0512396
0.051227
0.051216
0.0512052
0.0511928
0.0511821
0.0511715
0.0511587
0.0511479
0.0511373
0.0511249
0.0511141
0.0511038
0.0510917
0.0510813
0.051071
0.0510591
0.0510489
0.0510385
0.0510274
0.0510177
0.0510068
0.0509958
0.0509862
0.0509757
0.0509649
0.0509553
0.0509445
0.0509344
0.0509251
0.0509143
0.050904
0.0508946
0.0508843
0.0508746
0.0508653
0.0508549
0.0508455
0.0508362
0.0508256
0.0508163
0.0508073
0.0507971
0.0507881
0.050779
0.0507693
0.0507604
0.0507514
0.0507417
0.0507332
0.0507248
0.0507153
0.050707
0.0506982
0.0506893
0.0506814
0.0506729
0.0506642
0.050656
0.0506472
0.0506391
0.0506313
0.0506218
0.0506123
0.0506033
0.0505954
0.0505866
0.0505785
0.0505698
0.0505618
0.0505534
0.0505454
0.0505375
0.0505296
0.0505224
0.0505136
0.050506
0.0504987
0.0504908
0.0504839
0.0504766
0.0504687
0.050462
0.0504546
0.050448
0.0504408
0.0504348
0.0504284
0.050422
0.0504156
0.0504093
0.0504033
0.0503971
0.0503914
0.0503856
0.0503798
0.0503746
0.0503677
0.0503621
0.0503567
0.0503511
0.0503458
0.0503413
0.0503353
0.0503303
0.0503259
0.0503195
0.0503152
0.0503115
0.0503056
0.0503018
0.0502985
0.0502954
0.050292
0.0502886
0.0502853
0.0502798
0.0502766
0.0502737
0.0502709
0.0502678
0.050265
0.0502619
0.0502561
0.0502531
0.050251
0.050248
0.0502453
0.0502406
0.0502382
0.0502362
0.050234
0.0502316
0.0502272
0.0502251
0.0502231
0.0502187
0.0502166
0.0502148
0.0502106
0.0502082
0.0502064
0.0502042
0.0502018
0.0502004
0.0501992
0.0501976
0.0501956
0.0501929
0.050191
0.0501893
0.0501877
0.0501857
0.0501813
0.0501802
0.0501789
0.050179
0.0501713
)
;
    }
    symmetry
    {
        type            symmetryPlane;
    }
    frontAndBack
    {
        type            empty;
    }
}


// ************************************************************************* //
