/*--------------------------------*- C++ -*----------------------------------*\
| =========                 |                                                 |
| \\      /  F ield         | OpenFOAM: The Open Source CFD Toolbox           |
|  \\    /   O peration     | Version:  v2012                                 |
|   \\  /    A nd           | Website:  www.openfoam.com                      |
|    \\/     M anipulation  |                                                 |
\*---------------------------------------------------------------------------*/
FoamFile
{
    version     2.0;
    format      ascii;
    class       volScalarField;
    location    "5";
    object      k;
}
// * * * * * * * * * * * * * * * * * * * * * * * * * * * * * * * * * * * * * //

dimensions      [0 2 -2 0 0 0 0];


internalField   nonuniform List<scalar> 
209825
(
0.00104649
0.00103449
0.00103134
0.00103018
0.00102961
0.00102934
0.00102916
0.00102907
0.001029
0.00102897
0.00102894
0.00102893
0.00102891
0.0010289
0.0010289
0.0010289
0.00102889
0.00102889
0.00102889
0.0010289
0.0010289
0.0010289
0.0010289
0.00102891
0.00102891
0.00102892
0.00102892
0.00102893
0.00102893
0.00102895
0.00102895
0.00102897
0.00102897
0.001029
0.001029
0.001029
0.001029
0.00102902
0.00102902
0.00102903
0.00102903
0.00102906
0.00102906
0.00102907
0.00102907
0.00102909
0.00102909
0.00102911
0.00102911
0.00102913
0.00102913
0.00102918
0.00102918
0.00102918
0.00102916
0.00102917
0.00102917
0.00102923
0.00102924
0.00102925
0.00102925
0.0010293
0.0010293
0.0010293
0.00102929
0.00102936
0.0010294
0.0010294
0.0010294
0.00102939
0.00102953
0.00102956
0.00102956
0.00102964
0.0010297
0.0010297
0.0010297
0.00102983
0.00102993
0.00102999
0.00103006
0.0010302
0.00103031
0.00103047
0.00103073
0.0010309
0.0010312
0.00103158
0.00103216
0.00103272
0.0010341
0.00103493
0.00103935
0.00104661
0.00110151
0.0019857
0.00104648
0.00103447
0.00103132
0.00103015
0.00102958
0.00102931
0.00102913
0.00102904
0.00102897
0.00102894
0.00102891
0.0010289
0.00102888
0.00102887
0.00102887
0.00102887
0.00102886
0.00102886
0.00102886
0.00102887
0.00102887
0.00102887
0.00102887
0.00102888
0.00102888
0.00102889
0.00102889
0.0010289
0.0010289
0.00102892
0.00102892
0.00102894
0.00102894
0.00102897
0.00102897
0.00102897
0.00102897
0.00102899
0.00102899
0.001029
0.001029
0.00102903
0.00102903
0.00102904
0.00102904
0.00102906
0.00102906
0.00102908
0.00102908
0.0010291
0.0010291
0.00102915
0.00102915
0.00102915
0.00102913
0.00102914
0.00102914
0.0010292
0.00102921
0.00102922
0.00102922
0.00102927
0.00102927
0.00102927
0.00102926
0.00102933
0.00102937
0.00102937
0.00102937
0.00102937
0.0010295
0.00102954
0.00102953
0.00102961
0.00102967
0.00102967
0.00102967
0.0010298
0.0010299
0.00102996
0.00103004
0.00103018
0.00103029
0.00103044
0.0010307
0.00103087
0.00103117
0.00103155
0.00103214
0.0010327
0.00103408
0.00103491
0.00103933
0.00104661
0.00110155
0.00198689
0.00104644
0.00103438
0.00103121
0.00103003
0.00102946
0.00102918
0.00102901
0.00102891
0.00102884
0.00102881
0.00102878
0.00102877
0.00102875
0.00102874
0.00102874
0.00102874
0.00102873
0.00102873
0.00102873
0.00102874
0.00102873
0.00102874
0.00102874
0.00102875
0.00102875
0.00102876
0.00102876
0.00102877
0.00102877
0.00102879
0.00102879
0.00102881
0.00102881
0.00102884
0.00102884
0.00102884
0.00102884
0.00102886
0.00102886
0.00102887
0.00102887
0.0010289
0.0010289
0.00102891
0.00102891
0.00102893
0.00102893
0.00102895
0.00102895
0.00102897
0.00102897
0.00102902
0.00102902
0.00102902
0.001029
0.00102901
0.00102901
0.00102907
0.00102908
0.00102909
0.00102909
0.00102914
0.00102914
0.00102914
0.00102913
0.0010292
0.00102924
0.00102924
0.00102924
0.00102924
0.00102937
0.00102941
0.00102941
0.00102948
0.00102955
0.00102955
0.00102955
0.00102968
0.00102978
0.00102984
0.00102991
0.00103005
0.00103016
0.00103031
0.00103058
0.00103075
0.00103105
0.00103143
0.00103202
0.00103258
0.00103396
0.0010348
0.00103921
0.00104655
0.00110157
0.00199015
0.00104637
0.00103423
0.00103103
0.00102984
0.00102926
0.00102897
0.00102879
0.0010287
0.00102863
0.00102859
0.00102856
0.00102855
0.00102853
0.00102852
0.00102852
0.00102852
0.00102851
0.00102851
0.00102851
0.00102852
0.00102851
0.00102852
0.00102852
0.00102853
0.00102853
0.00102854
0.00102854
0.00102855
0.00102855
0.00102857
0.00102857
0.00102858
0.00102858
0.00102862
0.00102862
0.00102862
0.00102862
0.00102864
0.00102864
0.00102865
0.00102865
0.00102868
0.00102868
0.00102869
0.00102869
0.00102871
0.00102871
0.00102873
0.00102873
0.00102875
0.00102875
0.0010288
0.0010288
0.0010288
0.00102878
0.00102879
0.00102879
0.00102885
0.00102886
0.00102887
0.00102887
0.00102892
0.00102892
0.00102892
0.00102891
0.00102898
0.00102903
0.00102903
0.00102902
0.00102902
0.00102915
0.00102919
0.00102919
0.00102927
0.00102933
0.00102933
0.00102933
0.00102946
0.00102956
0.00102962
0.0010297
0.00102984
0.00102995
0.0010301
0.00103037
0.00103054
0.00103084
0.00103123
0.00103182
0.00103238
0.00103377
0.00103461
0.00103901
0.00104645
0.00110159
0.00199476
0.00104627
0.00103403
0.00103077
0.00102956
0.00102897
0.00102867
0.00102849
0.00102839
0.00102832
0.00102828
0.00102825
0.00102824
0.00102822
0.00102821
0.00102821
0.0010282
0.0010282
0.0010282
0.0010282
0.0010282
0.0010282
0.00102821
0.00102821
0.00102822
0.00102822
0.00102823
0.00102823
0.00102824
0.00102824
0.00102826
0.00102826
0.00102827
0.00102827
0.00102831
0.00102831
0.00102831
0.00102831
0.00102833
0.00102833
0.00102834
0.00102834
0.00102837
0.00102837
0.00102838
0.00102838
0.0010284
0.0010284
0.00102842
0.00102842
0.00102844
0.00102844
0.00102849
0.00102849
0.00102849
0.00102847
0.00102848
0.00102848
0.00102854
0.00102855
0.00102856
0.00102856
0.00102861
0.00102861
0.00102861
0.00102861
0.00102868
0.00102872
0.00102872
0.00102872
0.00102871
0.00102885
0.00102889
0.00102889
0.00102896
0.00102903
0.00102903
0.00102903
0.00102916
0.00102926
0.00102932
0.0010294
0.00102954
0.00102965
0.00102981
0.00103007
0.00103025
0.00103055
0.00103094
0.00103153
0.0010321
0.00103349
0.00103434
0.00103871
0.00104631
0.00110164
0.0020007
0.00104614
0.00103376
0.00103044
0.0010292
0.00102859
0.00102829
0.0010281
0.001028
0.00102792
0.00102788
0.00102785
0.00102783
0.00102782
0.00102781
0.0010278
0.0010278
0.00102779
0.0010278
0.0010278
0.0010278
0.0010278
0.0010278
0.0010278
0.00102781
0.00102781
0.00102783
0.00102783
0.00102784
0.00102784
0.00102785
0.00102785
0.00102787
0.00102787
0.0010279
0.0010279
0.00102791
0.00102791
0.00102793
0.00102793
0.00102794
0.00102794
0.00102796
0.00102796
0.00102797
0.00102797
0.00102799
0.00102799
0.00102802
0.00102802
0.00102804
0.00102804
0.00102809
0.00102809
0.00102809
0.00102807
0.00102808
0.00102808
0.00102814
0.00102815
0.00102816
0.00102816
0.00102821
0.00102821
0.00102821
0.00102821
0.00102828
0.00102832
0.00102832
0.00102832
0.00102832
0.00102845
0.00102849
0.00102849
0.00102857
0.00102863
0.00102863
0.00102863
0.00102877
0.00102887
0.00102893
0.00102901
0.00102915
0.00102927
0.00102942
0.00102969
0.00102987
0.00103017
0.00103056
0.00103116
0.00103173
0.00103313
0.00103399
0.00103833
0.00104612
0.00110173
0.00200792
0.00104598
0.00103342
0.00103004
0.00102876
0.00102813
0.00102781
0.00102761
0.00102751
0.00102743
0.00102739
0.00102735
0.00102734
0.00102732
0.00102731
0.0010273
0.0010273
0.00102729
0.0010273
0.0010273
0.0010273
0.0010273
0.00102731
0.00102731
0.00102731
0.00102731
0.00102733
0.00102733
0.00102734
0.00102734
0.00102735
0.00102735
0.00102737
0.00102737
0.00102741
0.00102741
0.00102741
0.00102741
0.00102743
0.00102743
0.00102744
0.00102744
0.00102747
0.00102747
0.00102748
0.00102748
0.0010275
0.0010275
0.00102752
0.00102752
0.00102754
0.00102754
0.0010276
0.0010276
0.00102759
0.00102758
0.00102759
0.00102759
0.00102765
0.00102766
0.00102767
0.00102767
0.00102772
0.00102772
0.00102772
0.00102771
0.00102778
0.00102783
0.00102783
0.00102783
0.00102783
0.00102796
0.001028
0.001028
0.00102808
0.00102815
0.00102815
0.00102815
0.00102828
0.00102839
0.00102845
0.00102853
0.00102867
0.00102879
0.00102895
0.00102922
0.0010294
0.0010297
0.0010301
0.0010307
0.00103128
0.00103268
0.00103356
0.00103786
0.00104589
0.00110186
0.00201626
0.0010458
0.00103303
0.00102955
0.00102823
0.00102757
0.00102725
0.00102704
0.00102693
0.00102685
0.0010268
0.00102676
0.00102675
0.00102673
0.00102672
0.00102671
0.00102671
0.0010267
0.0010267
0.0010267
0.00102671
0.0010267
0.00102671
0.00102671
0.00102672
0.00102672
0.00102673
0.00102673
0.00102674
0.00102674
0.00102676
0.00102676
0.00102678
0.00102678
0.00102681
0.00102681
0.00102682
0.00102682
0.00102684
0.00102684
0.00102685
0.00102685
0.00102688
0.00102688
0.00102688
0.00102688
0.00102691
0.00102691
0.00102693
0.00102693
0.00102695
0.00102695
0.00102701
0.00102701
0.001027
0.00102699
0.001027
0.001027
0.00102706
0.00102707
0.00102708
0.00102708
0.00102713
0.00102713
0.00102713
0.00102713
0.0010272
0.00102725
0.00102725
0.00102725
0.00102724
0.00102738
0.00102742
0.00102742
0.0010275
0.00102757
0.00102757
0.00102757
0.0010277
0.00102781
0.00102788
0.00102796
0.0010281
0.00102822
0.00102838
0.00102865
0.00102884
0.00102915
0.00102955
0.00103015
0.00103074
0.00103215
0.00103304
0.0010373
0.00104561
0.00110206
0.00202552
0.00104558
0.00103257
0.00102899
0.00102761
0.00102693
0.00102659
0.00102637
0.00102625
0.00102616
0.00102612
0.00102608
0.00102606
0.00102604
0.00102603
0.00102602
0.00102602
0.00102601
0.00102601
0.00102601
0.00102601
0.00102601
0.00102602
0.00102602
0.00102602
0.00102602
0.00102604
0.00102604
0.00102605
0.00102605
0.00102606
0.00102606
0.00102608
0.00102608
0.00102612
0.00102612
0.00102613
0.00102613
0.00102615
0.00102615
0.00102616
0.00102616
0.00102619
0.00102619
0.00102619
0.00102619
0.00102622
0.00102622
0.00102624
0.00102624
0.00102626
0.00102626
0.00102632
0.00102632
0.00102632
0.0010263
0.00102631
0.00102631
0.00102637
0.00102639
0.00102639
0.00102639
0.00102645
0.00102645
0.00102645
0.00102644
0.00102651
0.00102656
0.00102656
0.00102656
0.00102656
0.0010267
0.00102674
0.00102674
0.00102682
0.0010269
0.0010269
0.00102689
0.00102703
0.00102714
0.00102721
0.00102729
0.00102744
0.00102756
0.00102772
0.001028
0.00102819
0.0010285
0.0010289
0.00102952
0.00103011
0.00103152
0.00103243
0.00103664
0.0010453
0.00110231
0.00203533
0.00104533
0.00103205
0.00102835
0.00102691
0.0010262
0.00102583
0.0010256
0.00102548
0.00102538
0.00102534
0.00102529
0.00102527
0.00102525
0.00102524
0.00102523
0.00102523
0.00102521
0.00102522
0.00102522
0.00102522
0.00102522
0.00102522
0.00102522
0.00102523
0.00102523
0.00102525
0.00102525
0.00102526
0.00102526
0.00102527
0.00102527
0.00102529
0.00102529
0.00102533
0.00102533
0.00102534
0.00102534
0.00102536
0.00102536
0.00102537
0.00102537
0.0010254
0.0010254
0.00102541
0.00102541
0.00102543
0.00102543
0.00102545
0.00102545
0.00102547
0.00102547
0.00102553
0.00102553
0.00102553
0.00102551
0.00102553
0.00102553
0.00102559
0.0010256
0.00102561
0.00102561
0.00102567
0.00102567
0.00102566
0.00102566
0.00102573
0.00102578
0.00102579
0.00102579
0.00102578
0.00102592
0.00102596
0.00102596
0.00102605
0.00102612
0.00102612
0.00102612
0.00102626
0.00102637
0.00102644
0.00102653
0.00102668
0.0010268
0.00102696
0.00102724
0.00102744
0.00102775
0.00102816
0.00102878
0.00102939
0.00103081
0.00103174
0.00103588
0.00104493
0.00110262
0.00204518
0.00104506
0.00103147
0.00102763
0.00102612
0.00102537
0.00102498
0.00102474
0.00102461
0.0010245
0.00102445
0.00102441
0.00102438
0.00102436
0.00102435
0.00102434
0.00102433
0.00102432
0.00102432
0.00102432
0.00102433
0.00102432
0.00102433
0.00102433
0.00102434
0.00102433
0.00102435
0.00102435
0.00102436
0.00102436
0.00102438
0.00102438
0.0010244
0.0010244
0.00102444
0.00102444
0.00102444
0.00102444
0.00102446
0.00102446
0.00102448
0.00102448
0.00102451
0.00102451
0.00102451
0.00102451
0.00102454
0.00102454
0.00102457
0.00102457
0.00102458
0.00102458
0.00102464
0.00102464
0.00102464
0.00102462
0.00102464
0.00102464
0.0010247
0.00102472
0.00102472
0.00102472
0.00102478
0.00102478
0.00102478
0.00102478
0.00102485
0.0010249
0.00102491
0.00102491
0.0010249
0.00102504
0.00102508
0.00102508
0.00102517
0.00102525
0.00102525
0.00102525
0.00102539
0.00102551
0.00102558
0.00102567
0.00102582
0.00102594
0.00102611
0.0010264
0.0010266
0.00102691
0.00102733
0.00102796
0.00102857
0.00103
0.00103096
0.00103503
0.00104452
0.00110296
0.00205437
0.00104476
0.00103082
0.00102682
0.00102524
0.00102445
0.00102404
0.00102378
0.00102363
0.00102352
0.00102347
0.00102342
0.00102339
0.00102337
0.00102335
0.00102334
0.00102334
0.00102332
0.00102333
0.00102333
0.00102333
0.00102332
0.00102333
0.00102333
0.00102334
0.00102334
0.00102335
0.00102335
0.00102336
0.00102336
0.00102338
0.00102338
0.0010234
0.0010234
0.00102344
0.00102344
0.00102345
0.00102345
0.00102347
0.00102347
0.00102348
0.00102348
0.00102351
0.00102351
0.00102352
0.00102352
0.00102354
0.00102354
0.00102357
0.00102357
0.00102359
0.00102359
0.00102365
0.00102365
0.00102365
0.00102363
0.00102365
0.00102365
0.00102371
0.00102373
0.00102374
0.00102374
0.0010238
0.0010238
0.0010238
0.00102379
0.00102386
0.00102392
0.00102392
0.00102392
0.00102392
0.00102406
0.0010241
0.0010241
0.0010242
0.00102428
0.00102428
0.00102428
0.00102442
0.00102454
0.00102462
0.00102471
0.00102486
0.00102498
0.00102515
0.00102545
0.00102566
0.00102598
0.0010264
0.00102703
0.00102765
0.00102909
0.00103008
0.00103408
0.00104406
0.00110332
0.00206194
0.00104443
0.0010301
0.00102594
0.00102427
0.00102343
0.00102299
0.00102271
0.00102256
0.00102244
0.00102238
0.00102232
0.00102229
0.00102227
0.00102225
0.00102224
0.00102224
0.00102222
0.00102222
0.00102222
0.00102222
0.00102222
0.00102223
0.00102223
0.00102223
0.00102223
0.00102225
0.00102225
0.00102226
0.00102226
0.00102227
0.00102227
0.0010223
0.0010223
0.00102234
0.00102234
0.00102234
0.00102234
0.00102237
0.00102237
0.00102238
0.00102238
0.00102241
0.00102241
0.00102242
0.00102242
0.00102244
0.00102244
0.00102248
0.00102248
0.00102249
0.00102249
0.00102256
0.00102256
0.00102256
0.00102254
0.00102255
0.00102255
0.00102262
0.00102264
0.00102264
0.00102264
0.0010227
0.00102271
0.0010227
0.0010227
0.00102277
0.00102283
0.00102284
0.00102284
0.00102283
0.00102298
0.00102302
0.00102302
0.00102312
0.0010232
0.0010232
0.0010232
0.00102334
0.00102347
0.00102355
0.00102365
0.0010238
0.00102392
0.0010241
0.0010244
0.00102461
0.00102494
0.00102536
0.00102601
0.00102664
0.00102808
0.00102911
0.00103302
0.00104356
0.00110364
0.00206771
0.00104407
0.00102933
0.00102497
0.00102321
0.00102231
0.00102184
0.00102154
0.00102138
0.00102125
0.00102118
0.00102112
0.00102109
0.00102106
0.00102105
0.00102103
0.00102103
0.00102101
0.00102101
0.00102101
0.00102101
0.001021
0.00102101
0.00102101
0.00102102
0.00102102
0.00102103
0.00102103
0.00102104
0.00102104
0.00102106
0.00102106
0.00102108
0.00102108
0.00102113
0.00102113
0.00102113
0.00102113
0.00102116
0.00102116
0.00102117
0.00102117
0.0010212
0.0010212
0.00102121
0.00102121
0.00102124
0.00102124
0.00102127
0.00102127
0.00102129
0.00102129
0.00102135
0.00102135
0.00102135
0.00102133
0.00102135
0.00102135
0.00102142
0.00102144
0.00102144
0.00102144
0.00102151
0.00102151
0.00102151
0.0010215
0.00102158
0.00102164
0.00102165
0.00102165
0.00102164
0.00102179
0.00102183
0.00102183
0.00102193
0.00102202
0.00102202
0.00102202
0.00102216
0.0010223
0.00102238
0.00102248
0.00102263
0.00102276
0.00102294
0.00102324
0.00102347
0.00102379
0.00102423
0.00102488
0.00102553
0.00102698
0.00102804
0.00103185
0.001043
0.00110388
0.00207167
0.00104369
0.00102849
0.00102392
0.00102206
0.0010211
0.00102059
0.00102027
0.00102009
0.00101995
0.00101988
0.00101981
0.00101978
0.00101975
0.00101973
0.00101971
0.00101971
0.00101969
0.00101969
0.00101969
0.00101969
0.00101968
0.00101969
0.00101969
0.0010197
0.00101969
0.00101971
0.00101971
0.00101972
0.00101972
0.00101974
0.00101974
0.00101976
0.00101976
0.00101981
0.00101981
0.00101981
0.00101981
0.00101984
0.00101984
0.00101985
0.00101985
0.00101989
0.00101989
0.0010199
0.00101989
0.00101992
0.00101992
0.00101995
0.00101995
0.00101997
0.00101997
0.00102004
0.00102004
0.00102004
0.00102002
0.00102004
0.00102004
0.00102011
0.00102013
0.00102014
0.00102014
0.0010202
0.0010202
0.0010202
0.0010202
0.00102027
0.00102034
0.00102035
0.00102035
0.00102034
0.00102049
0.00102053
0.00102054
0.00102063
0.00102073
0.00102073
0.00102073
0.00102088
0.00102102
0.0010211
0.00102121
0.00102136
0.00102149
0.00102167
0.00102198
0.00102221
0.00102255
0.00102299
0.00102365
0.00102431
0.00102577
0.00102687
0.00103058
0.00104239
0.00110403
0.0020738
0.00104328
0.00102758
0.00102279
0.00102081
0.00101979
0.00101924
0.00101889
0.00101869
0.00101855
0.00101846
0.00101839
0.00101836
0.00101832
0.0010183
0.00101828
0.00101827
0.00101826
0.00101826
0.00101826
0.00101826
0.00101825
0.00101825
0.00101825
0.00101826
0.00101825
0.00101827
0.00101827
0.00101828
0.00101828
0.0010183
0.0010183
0.00101833
0.00101833
0.00101838
0.00101838
0.00101838
0.00101838
0.00101841
0.00101841
0.00101842
0.00101842
0.00101846
0.00101846
0.00101847
0.00101847
0.00101849
0.00101849
0.00101853
0.00101853
0.00101854
0.00101854
0.00101862
0.00101862
0.00101862
0.0010186
0.00101861
0.00101861
0.00101869
0.00101872
0.00101872
0.00101872
0.00101878
0.00101878
0.00101878
0.00101878
0.00101885
0.00101892
0.00101893
0.00101893
0.00101893
0.00101909
0.00101913
0.00101913
0.00101923
0.00101933
0.00101933
0.00101933
0.00101948
0.00101962
0.00101972
0.00101982
0.00101998
0.00102011
0.00102029
0.00102061
0.00102086
0.00102119
0.00102164
0.00102232
0.00102299
0.00102445
0.00102559
0.00102919
0.00104173
0.00110409
0.00207411
0.00104285
0.00102661
0.00102157
0.00101946
0.00101837
0.00101778
0.0010174
0.00101719
0.00101703
0.00101694
0.00101686
0.00101682
0.00101678
0.00101676
0.00101674
0.00101673
0.00101671
0.00101671
0.00101671
0.00101671
0.00101669
0.0010167
0.0010167
0.00101671
0.0010167
0.00101672
0.00101672
0.00101673
0.00101673
0.00101675
0.00101675
0.00101678
0.00101678
0.00101683
0.00101683
0.00101683
0.00101683
0.00101686
0.00101686
0.00101688
0.00101688
0.00101691
0.00101691
0.00101692
0.00101692
0.00101695
0.00101695
0.00101699
0.00101699
0.001017
0.001017
0.00101708
0.00101708
0.00101708
0.00101706
0.00101708
0.00101708
0.00101715
0.00101718
0.00101718
0.00101718
0.00101725
0.00101725
0.00101725
0.00101725
0.00101732
0.00101739
0.00101741
0.00101741
0.00101741
0.00101756
0.00101761
0.00101761
0.00101771
0.00101782
0.00101782
0.00101782
0.00101797
0.00101812
0.00101822
0.00101833
0.00101848
0.00101862
0.00101881
0.00101913
0.00101939
0.00101973
0.00102019
0.00102087
0.00102156
0.00102302
0.00102421
0.0010277
0.00104101
0.00110405
0.00207261
0.0010424
0.00102558
0.00102027
0.00101802
0.00101685
0.00101621
0.00101581
0.00101557
0.0010154
0.0010153
0.00101521
0.00101517
0.00101512
0.0010151
0.00101508
0.00101507
0.00101504
0.00101504
0.00101504
0.00101504
0.00101503
0.00101503
0.00101503
0.00101504
0.00101503
0.00101505
0.00101505
0.00101506
0.00101506
0.00101508
0.00101508
0.00101511
0.00101511
0.00101517
0.00101517
0.00101517
0.00101517
0.0010152
0.0010152
0.00101521
0.00101521
0.00101525
0.00101525
0.00101526
0.00101526
0.00101529
0.00101529
0.00101533
0.00101533
0.00101535
0.00101534
0.00101542
0.00101542
0.00101542
0.0010154
0.00101542
0.00101542
0.0010155
0.00101553
0.00101553
0.00101553
0.0010156
0.00101561
0.0010156
0.0010156
0.00101568
0.00101575
0.00101577
0.00101577
0.00101577
0.00101593
0.00101597
0.00101597
0.00101608
0.0010162
0.0010162
0.0010162
0.00101635
0.0010165
0.0010166
0.00101672
0.00101688
0.00101702
0.00101721
0.00101754
0.0010178
0.00101815
0.00101862
0.00101931
0.00102001
0.00102148
0.00102272
0.00102608
0.00104023
0.00110391
0.00206931
0.00104192
0.00102448
0.00101888
0.00101648
0.00101523
0.00101454
0.0010141
0.00101384
0.00101365
0.00101354
0.00101345
0.00101339
0.00101335
0.00101332
0.0010133
0.00101328
0.00101326
0.00101326
0.00101326
0.00101325
0.00101324
0.00101325
0.00101325
0.00101325
0.00101324
0.00101327
0.00101327
0.00101328
0.00101328
0.0010133
0.0010133
0.00101332
0.00101332
0.00101338
0.00101338
0.00101339
0.00101339
0.00101342
0.00101342
0.00101343
0.00101343
0.00101347
0.00101347
0.00101348
0.00101348
0.00101351
0.00101351
0.00101355
0.00101355
0.00101357
0.00101357
0.00101365
0.00101365
0.00101365
0.00101363
0.00101365
0.00101365
0.00101373
0.00101377
0.00101377
0.00101376
0.00101383
0.00101384
0.00101384
0.00101384
0.00101391
0.00101399
0.00101401
0.00101401
0.00101401
0.00101418
0.00101422
0.00101422
0.00101433
0.00101446
0.00101446
0.00101446
0.00101461
0.00101477
0.00101488
0.001015
0.00101515
0.0010153
0.0010155
0.00101584
0.00101611
0.00101646
0.00101694
0.00101764
0.00101836
0.00101983
0.00102112
0.00102435
0.00103938
0.00110366
0.00206422
0.00104142
0.00102333
0.00101741
0.00101485
0.0010135
0.00101275
0.00101227
0.00101199
0.00101179
0.00101166
0.00101156
0.0010115
0.00101145
0.00101142
0.0010114
0.00101138
0.00101136
0.00101135
0.00101135
0.00101135
0.00101133
0.00101134
0.00101134
0.00101134
0.00101133
0.00101136
0.00101136
0.00101137
0.00101137
0.00101139
0.00101139
0.00101141
0.00101141
0.00101148
0.00101148
0.00101148
0.00101148
0.00101151
0.00101151
0.00101153
0.00101153
0.00101157
0.00101157
0.00101158
0.00101158
0.00101161
0.00101161
0.00101165
0.00101165
0.00101167
0.00101167
0.00101175
0.00101175
0.00101175
0.00101173
0.00101175
0.00101175
0.00101184
0.00101188
0.00101188
0.00101188
0.00101195
0.00101195
0.00101195
0.00101195
0.00101202
0.00101211
0.00101214
0.00101214
0.00101213
0.0010123
0.00101235
0.00101235
0.00101246
0.00101259
0.00101259
0.00101259
0.00101275
0.00101292
0.00101303
0.00101316
0.00101331
0.00101346
0.00101366
0.00101401
0.00101429
0.00101465
0.00101514
0.00101585
0.00101658
0.00101805
0.00101941
0.00102249
0.00103846
0.0011033
0.00205738
0.0010409
0.0010221
0.00101585
0.00101311
0.00101166
0.00101085
0.00101034
0.00101003
0.0010098
0.00100967
0.00100956
0.00100949
0.00100943
0.0010094
0.00100937
0.00100936
0.00100933
0.00100932
0.00100932
0.00100932
0.0010093
0.0010093
0.0010093
0.00100931
0.0010093
0.00100932
0.00100932
0.00100933
0.00100933
0.00100935
0.00100935
0.00100938
0.00100938
0.00100945
0.00100945
0.00100945
0.00100945
0.00100949
0.00100949
0.0010095
0.0010095
0.00100955
0.00100955
0.00100955
0.00100955
0.00100959
0.00100959
0.00100963
0.00100963
0.00100965
0.00100965
0.00100973
0.00100974
0.00100973
0.00100972
0.00100974
0.00100974
0.00100982
0.00100986
0.00100986
0.00100986
0.00100993
0.00100995
0.00100995
0.00100994
0.00101002
0.0010101
0.00101014
0.00101014
0.00101013
0.00101031
0.00101035
0.00101035
0.00101047
0.00101061
0.00101061
0.00101061
0.00101076
0.00101094
0.00101106
0.00101119
0.00101135
0.0010115
0.00101171
0.00101207
0.00101236
0.00101273
0.00101322
0.00101394
0.00101469
0.00101616
0.00101758
0.00102052
0.00103746
0.00110281
0.00204883
0.00104035
0.00102082
0.0010142
0.00101128
0.00100972
0.00100884
0.00100828
0.00100794
0.0010077
0.00100755
0.00100743
0.00100735
0.00100729
0.00100726
0.00100722
0.0010072
0.00100717
0.00100717
0.00100716
0.00100716
0.00100714
0.00100714
0.00100714
0.00100715
0.00100714
0.00100716
0.00100716
0.00100717
0.00100717
0.00100719
0.00100719
0.00100722
0.00100722
0.00100729
0.00100729
0.00100729
0.00100729
0.00100733
0.00100733
0.00100734
0.00100734
0.0010074
0.00100739
0.0010074
0.0010074
0.00100744
0.00100744
0.00100748
0.00100748
0.0010075
0.0010075
0.00100759
0.00100759
0.00100759
0.00100757
0.00100759
0.00100759
0.00100768
0.00100773
0.00100773
0.00100773
0.0010078
0.00100781
0.00100781
0.00100781
0.00100788
0.00100797
0.00100801
0.00100801
0.00100801
0.00100818
0.00100823
0.00100823
0.00100835
0.0010085
0.0010085
0.0010085
0.00100866
0.00100884
0.00100897
0.00100911
0.00100927
0.00100942
0.00100963
0.00101
0.0010103
0.00101068
0.00101118
0.00101191
0.00101268
0.00101414
0.00101563
0.00101841
0.00103637
0.0011022
0.00203861
0.0010398
0.00101948
0.00101247
0.00100934
0.00100766
0.00100672
0.00100611
0.00100574
0.00100547
0.0010053
0.00100517
0.00100509
0.00100502
0.00100498
0.00100494
0.00100492
0.00100489
0.00100488
0.00100488
0.00100487
0.00100485
0.00100485
0.00100485
0.00100486
0.00100484
0.00100487
0.00100487
0.00100488
0.00100488
0.0010049
0.0010049
0.00100493
0.00100493
0.00100501
0.00100501
0.00100501
0.00100501
0.00100505
0.00100505
0.00100506
0.00100506
0.00100511
0.00100511
0.00100512
0.00100512
0.00100516
0.00100516
0.00100521
0.00100521
0.00100522
0.00100522
0.00100532
0.00100532
0.00100532
0.0010053
0.00100532
0.00100532
0.00100541
0.00100546
0.00100546
0.00100546
0.00100553
0.00100555
0.00100555
0.00100554
0.00100562
0.00100571
0.00100576
0.00100576
0.00100576
0.00100594
0.00100598
0.00100598
0.00100611
0.00100627
0.00100627
0.00100627
0.00100643
0.00100662
0.00100675
0.0010069
0.00100706
0.00100721
0.00100743
0.0010078
0.00100812
0.0010085
0.00100901
0.00100975
0.00101054
0.00101199
0.00101356
0.00101617
0.0010352
0.00110146
0.00202677
0.00103922
0.00101808
0.00101066
0.00100731
0.0010055
0.00100447
0.00100381
0.00100341
0.00100311
0.00100293
0.00100279
0.0010027
0.00100262
0.00100258
0.00100253
0.00100251
0.00100247
0.00100247
0.00100246
0.00100245
0.00100243
0.00100243
0.00100243
0.00100243
0.00100242
0.00100244
0.00100244
0.00100245
0.00100245
0.00100248
0.00100248
0.00100251
0.00100251
0.00100259
0.00100259
0.00100259
0.00100259
0.00100263
0.00100263
0.00100264
0.00100264
0.0010027
0.0010027
0.00100271
0.00100271
0.00100275
0.00100275
0.0010028
0.0010028
0.00100281
0.00100281
0.00100291
0.00100291
0.00100291
0.00100289
0.00100292
0.00100292
0.00100301
0.00100306
0.00100307
0.00100306
0.00100314
0.00100316
0.00100316
0.00100315
0.00100323
0.00100333
0.00100338
0.00100338
0.00100337
0.00100356
0.00100361
0.00100361
0.00100373
0.0010039
0.0010039
0.0010039
0.00100406
0.00100426
0.0010044
0.00100456
0.00100472
0.00100488
0.0010051
0.00100548
0.00100581
0.0010062
0.00100672
0.00100746
0.00100827
0.00100971
0.00101137
0.0010138
0.00103392
0.00110057
0.00201337
0.00103863
0.00101662
0.00100875
0.00100517
0.00100322
0.00100211
0.00100139
0.00100095
0.00100063
0.00100043
0.00100027
0.00100017
0.00100009
0.00100004
0.000999992
0.000999965
0.000999927
0.000999918
0.00099991
0.000999901
0.000999874
0.000999878
0.000999878
0.000999878
0.000999861
0.000999886
0.000999886
0.000999896
0.000999896
0.000999919
0.000999919
0.000999951
0.000999951
0.00100004
0.00100004
0.00100004
0.00100004
0.00100008
0.00100008
0.00100009
0.00100009
0.00100016
0.00100016
0.00100016
0.00100016
0.0010002
0.0010002
0.00100026
0.00100026
0.00100027
0.00100027
0.00100037
0.00100037
0.00100037
0.00100035
0.00100038
0.00100038
0.00100047
0.00100053
0.00100054
0.00100053
0.00100061
0.00100063
0.00100063
0.00100062
0.0010007
0.0010008
0.00100086
0.00100086
0.00100086
0.00100105
0.0010011
0.0010011
0.00100123
0.00100141
0.00100141
0.00100141
0.00100157
0.00100178
0.00100192
0.00100209
0.00100225
0.00100241
0.00100264
0.00100302
0.00100337
0.00100376
0.00100429
0.00100504
0.00100587
0.0010073
0.00100904
0.00101129
0.00103254
0.00109952
0.00199848
0.00103802
0.0010151
0.00100677
0.00100293
0.00100084
0.000999633
0.000998851
0.000998369
0.000998019
0.000997798
0.000997624
0.000997515
0.000997421
0.000997366
0.000997315
0.000997285
0.000997243
0.000997232
0.000997223
0.000997212
0.000997184
0.000997186
0.000997186
0.000997184
0.000997165
0.000997191
0.000997191
0.000997201
0.000997201
0.000997224
0.000997224
0.000997257
0.000997257
0.000997347
0.000997347
0.000997348
0.000997346
0.000997393
0.000997393
0.000997405
0.000997405
0.000997472
0.000997472
0.000997477
0.000997474
0.000997519
0.000997519
0.00099758
0.00099758
0.000997593
0.000997592
0.0009977
0.0009977
0.000997699
0.00099768
0.000997708
0.000997707
0.000997803
0.000997869
0.00099787
0.000997868
0.000997942
0.000997969
0.000997969
0.000997963
0.000998037
0.000998145
0.000998211
0.000998211
0.000998209
0.000998403
0.000998452
0.000998452
0.000998584
0.000998776
0.000998779
0.000998778
0.000998941
0.000999154
0.000999311
0.000999483
0.000999646
0.00099981
0.00100004
0.00100044
0.00100079
0.00100119
0.00100173
0.00100249
0.00100334
0.00100476
0.00100658
0.00100865
0.00103103
0.00109832
0.00198217
0.0010374
0.00101352
0.0010047
0.0010006
0.000998335
0.000997033
0.000996185
0.000995658
0.000995276
0.000995034
0.000994842
0.000994722
0.000994619
0.000994556
0.0009945
0.000994466
0.000994421
0.000994407
0.000994396
0.000994384
0.000994354
0.000994355
0.000994355
0.000994352
0.000994329
0.000994356
0.000994356
0.000994366
0.000994365
0.000994389
0.000994389
0.000994423
0.000994423
0.000994518
0.000994518
0.000994519
0.000994516
0.000994566
0.000994566
0.000994578
0.000994578
0.000994649
0.000994649
0.000994654
0.000994651
0.000994698
0.000994698
0.000994763
0.000994763
0.000994775
0.000994773
0.000994886
0.000994886
0.000994885
0.000994866
0.000994896
0.000994895
0.000994993
0.000995065
0.000995066
0.000995064
0.000995138
0.000995169
0.000995169
0.000995163
0.000995236
0.000995348
0.000995423
0.000995423
0.000995421
0.00099562
0.00099567
0.000995671
0.000995804
0.000996008
0.000996011
0.000996011
0.000996175
0.000996396
0.000996561
0.000996742
0.000996906
0.000997072
0.000997308
0.00099771
0.000998082
0.000998487
0.000999035
0.000999798
0.00100067
0.00100207
0.00100399
0.00100587
0.00102939
0.00109693
0.00196451
0.00103677
0.0010119
0.00100255
0.000998155
0.000995723
0.000994312
0.000993392
0.000992817
0.0009924
0.000992134
0.000991924
0.000991791
0.000991677
0.000991607
0.000991545
0.000991507
0.000991458
0.000991442
0.000991429
0.000991415
0.000991382
0.000991383
0.000991382
0.000991377
0.000991351
0.000991379
0.000991379
0.000991389
0.000991388
0.000991412
0.000991412
0.000991447
0.000991447
0.000991547
0.000991547
0.000991547
0.000991544
0.000991597
0.000991597
0.000991609
0.000991609
0.000991685
0.000991685
0.000991689
0.000991685
0.000991736
0.000991736
0.000991804
0.000991804
0.000991815
0.000991813
0.000991931
0.000991931
0.00099193
0.000991911
0.000991943
0.000991942
0.000992042
0.000992119
0.000992121
0.000992119
0.000992193
0.000992229