/*--------------------------------*- C++ -*----------------------------------*\
| =========                 |                                                 |
| \\      /  F ield         | OpenFOAM: The Open Source CFD Toolbox           |
|  \\    /   O peration     | Version:  v2012                                 |
|   \\  /    A nd           | Website:  www.openfoam.com                      |
|    \\/     M anipulation  |                                                 |
\*---------------------------------------------------------------------------*/
FoamFile
{
    version     2.0;
    format      ascii;
    class       volScalarField;
    location    "5";
    object      omega;
}
// * * * * * * * * * * * * * * * * * * * * * * * * * * * * * * * * * * * * * //

dimensions      [0 0 -1 0 0 0 0];


internalField   nonuniform List<scalar> 
209825
(
8360.94
8202.17
8147.45
8122.35
8108.01
8099.41
8093.54
8089.65
8086.7
8084.68
8083.03
8081.89
8080.89
8080.22
8079.58
8079.18
8078.77
8078.53
8078.24
8078.11
8077.85
8077.85
8077.83
8077.77
8077.6
8077.72
8077.72
8077.82
8077.78
8077.97
8077.97
8078.19
8078.18
8078.44
8078.44
8078.76
8078.76
8079.14
8079.14
8079.57
8079.57
8080.06
8080.06
8080.98
8081.1
8081.31
8081.31
8081.92
8081.92
8082.67
8082.67
8083.77
8084.25
8084.68
8084.68
8085.39
8085.84
8086.04
8086.04
8086.19
8086.18
8086.75
8086.75
8087.83
8087.99
8087.99
8087.98
8088.88
8088.88
8090.05
8090.7
8091.36
8091.76
8091.76
8091.75
8092.99
8093.16
8094.11
8094.12
8094.12
8095.11
8095.11
8096.6
8097.7
8097.72
8099.3
8101
8102.37
8105.23
8107.42
8112.92
8116.19
8132.25
8161.33
8355.73
117720
8360.89
8202.02
8147.25
8122.11
8107.76
8099.14
8093.26
8089.36
8086.41
8084.38
8082.73
8081.58
8080.58
8079.91
8079.27
8078.87
8078.46
8078.22
8077.93
8077.79
8077.54
8077.53
8077.51
8077.46
8077.28
8077.4
8077.4
8077.5
8077.46
8077.65
8077.65
8077.87
8077.87
8078.12
8078.12
8078.44
8078.44
8078.82
8078.82
8079.25
8079.25
8079.74
8079.74
8080.67
8080.78
8080.99
8080.99
8081.61
8081.61
8082.35
8082.35
8083.46
8083.93
8084.36
8084.36
8085.08
8085.52
8085.72
8085.72
8085.87
8085.87
8086.44
8086.44
8087.52
8087.68
8087.68
8087.67
8088.57
8088.57
8089.74
8090.39
8091.05
8091.45
8091.45
8091.44
8092.68
8092.86
8093.81
8093.81
8093.81
8094.81
8094.81
8096.3
8097.39
8097.41
8099
8100.7
8102.07
8104.93
8107.12
8112.63
8115.9
8131.97
8161.1
8355.63
114427
8360.69
8201.48
8146.53
8121.28
8106.86
8098.2
8092.28
8088.36
8085.39
8083.35
8081.68
8080.53
8079.53
8078.85
8078.21
8077.8
8077.39
8077.14
8076.85
8076.71
8076.46
8076.45
8076.43
8076.37
8076.19
8076.31
8076.31
8076.41
8076.37
8076.56
8076.56
8076.78
8076.78
8077.03
8077.03
8077.35
8077.35
8077.73
8077.73
8078.16
8078.17
8078.65
8078.65
8079.58
8079.69
8079.91
8079.91
8080.52
8080.52
8081.27
8081.27
8082.37
8082.85
8083.28
8083.28
8084
8084.44
8084.64
8084.65
8084.79
8084.79
8085.36
8085.36
8086.44
8086.6
8086.61
8086.6
8087.5
8087.5
8088.67
8089.32
8089.98
8090.38
8090.38
8090.37
8091.61
8091.8
8092.75
8092.75
8092.75
8093.75
8093.75
8095.24
8096.35
8096.37
8097.96
8099.66
8101.03
8103.9
8106.1
8111.61
8114.9
8130.94
8160.27
8354.99
110647
8360.32
8200.53
8145.27
8119.85
8105.31
8096.57
8090.6
8086.64
8083.64
8081.58
8079.89
8078.73
8077.71
8077.02
8076.37
8075.96
8075.54
8075.29
8075
8074.86
8074.6
8074.59
8074.57
8074.51
8074.32
8074.44
8074.44
8074.54
8074.5
8074.69
8074.69
8074.9
8074.9
8075.15
8075.15
8075.48
8075.48
8075.86
8075.86
8076.29
8076.29
8076.78
8076.78
8077.7
8077.82
8078.03
8078.03
8078.65
8078.65
8079.4
8079.4
8080.51
8080.98
8081.42
8081.42
8082.13
8082.58
8082.79
8082.8
8082.94
8082.94
8083.51
8083.51
8084.59
8084.76
8084.76
8084.75
8085.66
8085.66
8086.83
8087.48
8088.14
8088.55
8088.55
8088.54
8089.78
8089.97
8090.93
8090.93
8090.93
8091.94
8091.94
8093.43
8094.54
8094.57
8096.16
8097.87
8099.25
8102.12
8104.34
8109.85
8113.16
8129.15
8158.81
8353.86
106763
8359.8
8199.18
8143.47
8117.79
8103.09
8094.25
8088.2
8084.18
8081.14
8079.05
8077.33
8076.15
8075.11
8074.41
8073.75
8073.33
8072.9
8072.65
8072.35
8072.2
8071.95
8071.93
8071.9
8071.84
8071.66
8071.77
8071.77
8071.87
8071.82
8072.01
8072.01
8072.23
8072.23
8072.48
8072.48
8072.8
8072.8
8073.18
8073.18
8073.61
8073.61
8074.1
8074.1
8075.03
8075.15
8075.36
8075.36
8075.98
8075.98
8076.73
8076.73
8077.84
8078.32
8078.77
8078.77
8079.47
8079.93
8080.14
8080.15
8080.29
8080.29
8080.87
8080.87
8081.95
8082.12
8082.12
8082.11
8083.03
8083.03
8084.2
8084.86
8085.52
8085.93
8085.93
8085.92
8087.17
8087.36
8088.33
8088.33
8088.33
8089.35
8089.35
8090.84
8091.97
8092.01
8093.6
8095.31
8096.71
8099.59
8101.81
8107.34
8110.68
8126.59
8156.73
8352.27
102879
8359.11
8197.41
8141.12
8115.11
8100.2
8091.21
8085.06
8080.97
8077.88
8075.74
8073.99
8072.78
8071.73
8071.01
8070.33
8069.9
8069.46
8069.2
8068.89
8068.74
8068.48
8068.46
8068.43
8068.37
8068.17
8068.29
8068.29
8068.38
8068.33
8068.52
8068.52
8068.73
8068.73
8068.98
8068.98
8069.3
8069.3
8069.68
8069.68
8070.12
8070.12
8070.61
8070.61
8071.54
8071.67
8071.87
8071.87
8072.49
8072.5
8073.25
8073.25
8074.36
8074.85
8075.3
8075.3
8076
8076.46
8076.68
8076.7
8076.83
8076.83
8077.42
8077.41
8078.5
8078.68
8078.68
8078.67
8079.59
8079.59
8080.77
8081.43
8082.1
8082.52
8082.52
8082.51
8083.76
8083.96
8084.93
8084.94
8084.94
8085.97
8085.97
8087.46
8088.6
8088.65
8090.25
8091.97
8093.38
8096.27
8098.52
8104.06
8107.44
8123.24
8154
8350.27
99034.1
8358.27
8195.22
8138.22
8111.8
8096.62
8087.46
8081.18
8077
8073.84
8071.65
8069.86
8068.61
8067.53
8066.79
8066.1
8065.66
8065.2
8064.93
8064.61
8064.46
8064.19
8064.17
8064.13
8064.06
8063.86
8063.98
8063.97
8064.06
8064.01
8064.2
8064.2
8064.41
8064.41
8064.65
8064.65
8064.97
8064.97
8065.35
8065.35
8065.79
8065.79
8066.28
8066.28
8067.22
8067.36
8067.56
8067.55
8068.18
8068.18
8068.94
8068.94
8070.05
8070.55
8071
8071
8071.71
8072.17
8072.4
8072.43
8072.55
8072.55
8073.14
8073.14
8074.23
8074.42
8074.42
8074.41
8075.34
8075.34
8076.53
8077.18
8077.85
8078.29
8078.29
8078.28
8079.53
8079.75
8080.73
8080.74
8080.74
8081.78
8081.78
8083.28
8084.44
8084.5
8086.1
8087.84
8089.26
8092.16
8094.43
8099.99
8103.43
8119.08
8150.63
8347.89
95248.7
8357.27
8192.62
8134.76
8107.84
8092.35
8082.98
8076.55
8072.26
8069.01
8066.75
8064.92
8063.63
8062.52
8061.75
8061.04
8060.57
8060.11
8059.82
8059.5
8059.33
8059.06
8059.03
8058.98
8058.91
8058.71
8058.81
8058.81
8058.9
8058.84
8059.03
8059.03
8059.23
8059.23
8059.48
8059.48
8059.8
8059.8
8060.17
8060.17
8060.61
8060.61
8061.11
8061.11
8062.05
8062.2
8062.39
8062.39
8063.02
8063.02
8063.79
8063.79
8064.9
8065.4
8065.87
8065.87
8066.56
8067.04
8067.28
8067.32
8067.43
8067.43
8068.03
8068.03
8069.12
8069.32
8069.32
8069.31
8070.26
8070.25
8071.45
8072.11
8072.78
8073.23
8073.23
8073.22
8074.48
8074.71
8075.7
8075.72
8075.71
8076.76
8076.77
8078.27
8079.45
8079.53
8081.13
8082.89
8084.33
8087.25
8089.54
8095.12
8098.62
8114.1
8146.59
8345.14
91531.2
8356.11
8189.6
8130.73
8103.23
8087.37
8077.75
8071.14
8066.72
8063.37
8061.04
8059.15
8057.82
8056.66
8055.87
8055.13
8054.65
8054.16
8053.86
8053.52
8053.35
8053.06
8053.03
8052.98
8052.9
8052.69
8052.79
8052.78
8052.87
8052.81
8052.99
8052.99
8053.19
8053.19
8053.43
8053.43
8053.75
8053.75
8054.13
8054.13
8054.57
8054.57
8055.06
8055.06
8056.02
8056.17
8056.36
8056.35
8056.99
8056.99
8057.77
8057.77
8058.89
8059.39
8059.87
8059.87
8060.56
8061.05
8061.3
8061.35
8061.45
8061.45
8062.06
8062.06
8063.16
8063.36
8063.36
8063.36
8064.32
8064.32
8065.51
8066.18
8066.86
8067.32
8067.32
8067.31
8068.58
8068.82
8069.82
8069.85
8069.85
8070.91
8070.92
8072.43
8073.63
8073.73
8075.33
8077.11
8078.57
8081.51
8083.83
8089.42
8093
8108.28
8141.88
8342.02
87884.3
8354.8
8186.15
8126.13
8097.96
8081.68
8071.76
8064.95
8060.38
8056.92
8054.51
8052.54
8051.16
8049.96
8049.13
8048.36
8047.85
8047.35
8047.04
8046.68
8046.49
8046.2
8046.15
8046.09
8046.01
8045.79
8045.89
8045.88
8045.96
8045.89
8046.07
8046.07
8046.27
8046.27
8046.51
8046.51
8046.82
8046.82
8047.2
8047.2
8047.64
8047.64
8048.14
8048.14
8049.1
8049.27
8049.44
8049.44
8050.08
8050.08
8050.87
8050.87
8051.99
8052.5
8053
8053
8053.68
8054.19
8054.44
8054.51
8054.6
8054.6
8055.23
8055.22
8056.32
8056.54
8056.54
8056.53
8057.51
8057.51
8058.72
8059.38
8060.07
8060.55
8060.55
8060.54
8061.82
8062.08
8063.09
8063.12
8063.12
8064.21
8064.21
8065.72
8066.96
8067.07
8068.68
8070.48
8071.97
8074.92
8077.28
8082.89
8086.56
8101.6
8136.49
8338.51
84306.3
8353.34
8182.28
8120.96
8092.03
8075.25
8065.01
8057.97
8053.23
8049.64
8047.13
8045.08
8043.64
8042.39
8041.52
8040.72
8040.18
8039.65
8039.32
8038.95
8038.75
8038.45
8038.39
8038.32
8038.23
8038
8038.09
8038.08
8038.15
8038.08
8038.26
8038.26
8038.45
8038.45
8038.69
8038.68
8039
8039
8039.37
8039.37
8039.82
8039.82
8040.32
8040.32
8041.29
8041.47
8041.63
8041.63
8042.28
8042.28
8043.08
8043.08
8044.21
8044.72
8045.23
8045.24
8045.91
8046.43
8046.7
8046.78
8046.86
8046.86
8047.5
8047.5
8048.6
8048.83
8048.83
8048.82
8049.82
8049.83
8051.04
8051.7
8052.4
8052.9
8052.9
8052.89
8054.17
8054.45
8055.48
8055.52
8055.52
8056.63
8056.63
8058.15
8059.42
8059.56
8061.17
8062.99
8064.51
8067.48
8069.88
8075.51
8079.27
8094.05
8130.4
8334.54
80791.2
8351.73
8177.99
8115.2
8085.42
8068.1
8057.49
8050.18
8045.25
8041.51
8038.89
8036.76
8035.24
8033.94
8033.02
8032.18
8031.62
8031.06
8030.71
8030.31
8030.1
8029.78
8029.71
8029.63
8029.54
8029.29
8029.38
8029.37
8029.43
8029.35
8029.53
8029.53
8029.72
8029.72
8029.95
8029.94
8030.26
8030.26
8030.63
8030.63
8031.07
8031.07
8031.58
8031.58
8032.56
8032.75
8032.91
8032.91
8033.56
8033.56
8034.38
8034.38
8035.5
8036.03
8036.56
8036.56
8037.23
8037.76
8038.05
8038.14
8038.21
8038.21
8038.87
8038.87
8039.97
8040.22
8040.22
8040.21
8041.22
8041.24
8042.45
8043.12
8043.83
8044.35
8044.35
8044.35
8045.64
8045.94
8046.98
8047.03
8047.03
8048.16
8048.16
8049.69
8050.99
8051.16
8052.78
8054.62
8056.17
8059.16
8061.6
8067.24
8071.12
8085.61
8123.6
8330.01
77329.2
8349.97
8173.27
8108.86
8078.12
8060.2
8049.18
8041.57
8036.43
8032.53
8029.78
8027.55
8025.95
8024.59
8023.62
8022.74
8022.14
8021.55
8021.17
8020.76
8020.53
8020.2
8020.11
8020.02
8019.92
8019.66
8019.74
8019.73
8019.78
8019.69
8019.86
8019.86
8020.05
8020.05
8020.27
8020.27
8020.58
8020.58
8020.95
8020.95
8021.4
8021.4
8021.9
8021.91
8022.89
8023.1
8023.25
8023.25
8023.91
8023.91
8024.74
8024.74
8025.87
8026.4
8026.96
8026.96
8027.61
8028.17
8028.47
8028.58
8028.64
8028.63
8029.31
8029.31
8030.41
8030.68
8030.68
8030.68
8031.71
8031.73
8032.96
8033.63
8034.34
8034.89
8034.89
8034.89
8036.18
8036.51
8037.57
8037.63
8037.63
8038.79
8038.79
8040.32
8041.66
8041.86
8043.48
8045.35
8046.94
8049.94
8052.43
8058.09
8062.09
8076.25
8116.08
8324.76
73924.3
8348.08
8168.13
8101.92
8070.14
8051.54
8040.06
8032.13
8026.75
8022.67
8019.78
8017.44
8015.76
8014.32
8013.3
8012.37
8011.73
8011.11
8010.71
8010.27
8010.02
8009.67
8009.57
8009.47
8009.36
8009.08
8009.16
8009.14
8009.18
8009.09
8009.25
8009.25
8009.44
8009.43
8009.65
8009.64
8009.95
8009.95
8010.33
8010.32
8010.77
8010.77
8011.28
8011.28
8012.28
8012.5
8012.64
8012.64
8013.31
8013.31
8014.16
8014.16
8015.29
8015.83
8016.41
8016.41
8017.05
8017.63
8017.95
8018.07
8018.12
8018.12
8018.82
8018.81
8019.92
8020.21
8020.21
8020.2
8021.25
8021.29
8022.52
8023.2
8023.92
8024.49
8024.5
8024.49
8025.8
8026.15
8027.23
8027.31
8027.31
8028.49
8028.49
8030.03
8031.41
8031.64
8033.27
8035.16
8036.79
8039.81
8042.35
8048.03
8052.16
8065.97
8107.81
8318.61
70582.4
8346.04
8162.57
8094.4
8061.46
8042.12
8030.14
8021.85
8016.21
8011.93
8008.89
8006.42
8004.65
8003.13
8002.05
8001.06
8000.38
7999.72
7999.29
7998.83
7998.56
7998.19
7998.07
7997.95
7997.83
7997.55
7997.61
7997.59
7997.62
7997.51
7997.68
7997.67
7997.85
7997.85
7998.06
7998.05
7998.36
7998.36
7998.73
7998.73
7999.18
7999.18
7999.69
7999.69
8000.7
8000.94
8001.06
8001.07
8001.74
8001.74
8002.61
8002.61
8003.75
8004.3
8004.9
8004.9
8005.53
8006.12
8006.46
8006.61
8006.65
8006.64
8007.36
8007.36
8008.47
8008.78
8008.79
8008.77
8009.85
8009.9
8011.13
8011.81
8012.55
8013.15
8013.16
8013.15
8014.47
8014.84
8015.94
8016.04
8016.04
8017.25
8017.25
8018.8
8020.22
8020.48
8022.12
8024.04
8025.71
8028.75
8031.34
8037.03
8041.32
8054.73
8098.79
8311.54
67309.2
8343.87
8156.58
8086.28
8052.09
8031.94
8019.41
8010.72
8004.79
8000.29
7997.08
7994.48
7992.6
7991
7989.84
7988.8
7988.07
7987.37
7986.91
7986.41
7986.12
7985.73
7985.6
7985.46
7985.33
7985.03
7985.08
7985.06
7985.08
7984.96
7985.12
7985.11
7985.29
7985.28
7985.49
7985.47
7985.77
7985.77
7986.14
7986.14
7986.59
7986.59
7987.11
7987.11
7988.13
7988.39
7988.5
7988.5
7989.19
7989.19
7990.08
7990.08
7991.22
7991.78
7992.41
7992.41
7993.02
7993.64
7994
7994.16
7994.19
7994.19
7994.93
7994.93
7996.04
7996.38
7996.38
7996.37
7997.46
7997.53
7998.78
7999.45
8000.2
8000.84
8000.85
8000.84
8002.17
8002.57
8003.69
8003.8
8003.8
8005.05
8005.05
8006.61
8008.07
8008.37
8010.02
8011.97
8013.67
8016.74
8019.39
8025.08
8029.54
8042.53
8089
8303.54
64109.8
8341.57
8150.18
8077.57
8042.01
8020.98
8007.84
7998.73
7992.48
7987.73
7984.34
7981.6
7979.6
7977.9
7976.67
7975.57
7974.79
7974.04
7973.54
7973.02
7972.7
7972.29
7972.13
7971.98
7971.84
7971.51
7971.56
7971.53
7971.53
7971.4
7971.55
7971.55
7971.72
7971.71
7971.91
7971.89
7972.19
7972.19
7972.55
7972.55
7973.01
7973.01
7973.52
7973.52
7974.56
7974.84
7974.94
7974.94
7975.64
7975.64
7976.55
7976.54
7977.69
7978.26
7978.92
7978.92
7979.52
7980.16
7980.54
7980.72
7980.74
7980.74
7981.51
7981.51
7982.61
7982.98
7982.99
7982.97
7984.09
7984.18
7985.43
7986.11
7986.87
7987.54
7987.54
7987.54
7988.88
7989.32
7990.45
7990.59
7990.59
7991.87
7991.88
7993.44
7994.95
7995.29
7996.95
7998.92
8000.67
8003.76
8006.47
8012.16
8016.8
8029.35
8078.4
8294.56
60989.2
8339.15
8143.37
8068.27
8031.22
8009.23
7995.44
7985.86
7979.26
7974.26
7970.67
7967.76
7965.64
7963.84
7962.53
7961.35
7960.51
7959.72
7959.18
7958.61
7958.27
7957.83
7957.66
7957.48
7957.33
7956.99
7957.02
7956.98
7956.97
7956.82
7956.97
7956.97
7957.13
7957.12
7957.31
7957.29
7957.58
7957.58
7957.94
7957.94
7958.4
7958.4
7958.91
7958.92
7959.97
7960.26
7960.35
7960.35
7961.06
7961.06
7961.99
7961.99
7963.13
7963.72
7964.41
7964.42
7964.99
7965.66
7966.07
7966.26
7966.28
7966.28
7967.07
7967.07
7968.18
7968.57
7968.58
7968.57
7969.7
7969.81
7971.08
7971.75
7972.52
7973.24
7973.24
7973.24
7974.6
7975.06
7976.22
7976.38
7976.38
7977.7
7977.7
7979.27
7980.83
7981.21
7982.88
7984.89
7986.68
7989.79
7992.56
7998.26
8003.09
8015.15
8066.99
8284.6
57951.8
8336.62
8136.15
8058.37
8019.72
7996.69
7982.2
7972.11
7965.14
7959.85
7956.04
7952.96
7950.7
7948.78
7947.38
7946.12
7945.22
7944.38
7943.79
7943.19
7942.82
7942.35
7942.15
7941.96
7941.79
7941.43
7941.44
7941.4
7941.38
7941.21
7941.36
7941.35
7941.5
7941.49
7941.67
7941.64
7941.93
7941.93
7942.29
7942.29
7942.75
7942.74
7943.27
7943.27
7944.34
7944.65
7944.73
7944.73
7945.45
7945.45
7946.4
7946.4
7947.54
7948.14
7948.87
7948.88
7949.43
7950.13
7950.56
7950.77
7950.78
7950.78
7951.61
7951.61
7952.71
7953.14
7953.15
7953.13
7954.29
7954.42
7955.7
7956.37
7957.16
7957.92
7957.92
7957.92
7959.28
7959.78
7960.96
7961.15
7961.15
7962.5
7962.52
7964.09
7965.7
7966.13
7967.81
7969.84
7971.69
7974.81
7977.65
7983.34
7988.39
7999.94
8054.73
8273.62
55001.7
8333.97
8128.52
8047.87
8007.51
7983.36
7968.11
7957.46
7950.09
7944.49
7940.44
7937.17
7934.76
7932.72
7931.22
7929.88
7928.92
7928.01
7927.38
7926.74
7926.32
7925.83
7925.6
7925.39
7925.2
7924.83
7924.82
7924.77
7924.73
7924.55
7924.69
7924.67
7924.82
7924.81
7924.98
7924.94
7925.23
7925.23
7925.58
7925.58
7926.04
7926.04
7926.56
7926.56
7927.65
7927.97
7928.04
7928.04
7928.77
7928.77
7929.75
7929.75
7930.9
7931.51
7932.27
7932.29
7932.81
7933.54
7933.99
7934.23
7934.24
7934.24
7935.09
7935.09
7936.19
7936.65
7936.66
7936.65
7937.83
7937.99
7939.27
7939.95
7940.75
7941.55
7941.55
7941.55
7942.93
7943.47
7944.67
7944.89
7944.89
7946.28
7946.3
7947.88
7949.53
7950.02
7951.71
7953.77
7955.66
7958.81
7961.72
7967.39
7972.68
7983.67
8041.6
8261.6
52142.9
8331.22
8120.5
8036.79
7994.58
7969.23
7953.15
7941.92
7934.1
7928.17
7923.86
7920.39
7917.82
7915.65
7914.04
7912.61
7911.57
7910.6
7909.92
7909.23
7908.78
7908.25
7908
7907.75
7907.55
7907.15
7907.13
7907.07
7907.02
7906.82
7906.94
7906.93
7907.06
7907.05
7907.21
7907.17
7907.45
7907.45
7907.79
7907.79
7908.25
7908.25
7908.78
7908.78
7909.88
7910.22
7910.28
7910.28
7911.02
7911.03
7912.03
7912.03
7913.18
7913.8
7914.6
7914.62
7915.11
7915.88
7916.36
7916.62
7916.62
7916.62
7917.51
7917.51
7918.6
7919.1
7919.11
7919.1
7920.3
7920.5
7921.79
7922.46
7923.27
7924.13
7924.13
7924.13
7925.52
7926.09
7927.32
7927.57
7927.57
7928.99
7929.03
7930.61
7932.32
7932.86
7934.56
7936.65
7938.59
7941.76
7944.74
7950.39
7955.93
7966.35
8027.56
8248.5
49378.7
8328.37
8112.08
8025.11
7980.93
7954.3
7937.33
7925.46
7917.18
7910.88
7906.3
7902.6
7899.86
7897.54
7895.82
7894.29
7893.17
7892.13
7891.39
7890.65
7890.16
7889.6
7889.31
7889.04
7888.82
7888.4
7888.36
7888.28
7888.22
7887.99
7888.11
7888.09
7888.22
7888.2
7888.35
7888.3
7888.57
7888.57
7888.91
7888.91
7889.37
7889.37
7889.9
7889.9
7891.01
7891.38
7891.43
7891.43
7892.18
7892.18
7893.22
7893.21
7894.36
7895
7895.83
7895.87
7896.32
7897.13
7897.63
7897.92
7897.92
7897.92
7898.84
7898.85
7899.93
7900.47
7900.48
7900.46
7901.69
7901.92
7903.22
7903.88
7904.72
7905.62
7905.63
7905.63
7907.03
7907.64
7908.89
7909.17
7909.18
7910.64
7910.69
7912.27
7914.03
7914.63
7916.34
7918.46
7920.46
7923.64
7926.7
7932.31
7938.13
7947.94
8012.6
8234.3
46712.2
8325.44
8103.29
8012.85
7966.57
7938.56
7920.64
7908.08
7899.3
7892.61
7887.73
7883.8
7880.86
7878.39
7876.54
7874.9
7873.7
7872.58
7871.78
7870.99
7870.46
7869.85
7869.53
7869.23
7868.99
7868.55
7868.48
7868.39
7868.31
7868.07
7868.18
7868.15
7868.27
7868.25
7868.38
7868.33
7868.59
7868.59
7868.92
7868.92
7869.38
7869.38
7869.9
7869.9
7871.04
7871.42
7871.46
7871.46
7872.23
7872.23
7873.29
7873.29
7874.44
7875.09
7875.95
7876.01
7876.42
7877.27
7877.8
7878.11
7878.11
7878.11
7879.07
7879.08
7880.15
7880.73
7880.74
7880.73
7881.98
7882.24
7883.56
7884.21
7885.06
7886.02
7886.03
7886.03
7887.45
7888.09
7889.37
7889.69
7889.69
7891.19
7891.26
7892.85
7894.66
7895.31
7897.04
7899.18
7901.24
7904.44
7907.58
7913.15
7919.25
7928.43
7996.66
8218.96
44146.1
8322.42
8094.12
8000.01
7951.49
7922.01
7903.08
7889.78
7880.45
7873.35
7868.15
7863.96
7860.82
7858.18
7856.19
7854.44
7853.14
7851.95
7851.08
7850.23
7849.65
7849
7848.64
7848.31
7848.05
7847.58
7847.49
7847.38
7847.29
7847.02
7847.12
7847.09
7847.19
7847.16
7847.29
7847.22
7847.48
7847.48
7847.8
7847.8
7848.25
7848.25
7848.78
7848.78
7849.93
7850.33
7850.36
7850.36
7851.14
7851.14
7852.24
7852.24
7853.38
7854.05
7854.95
7855.02
7855.39
7856.29
7856.84
7857.18
7857.18
7857.18
7858.18
7858.18
7859.24
7859.87
7859.88
7859.87
7861.14
7861.44
7862.77
7863.42
7864.29
7865.31
7865.31
7865.31
7866.75
7867.43
7868.73
7869.09
7869.1
7870.64
7870.73
7872.32
7874.17
7874.89
7876.64
7878.8
7880.92
7884.13
7887.35
7892.87
7899.28
7907.8
7979.71
8202.45
41682.8
8319.33
8084.59
7986.6
7935.69
7904.65
7884.63
7870.55
7860.64
7853.09
7847.54
7843.08
7839.72
7836.9
7834.76
7832.89
7831.49
7830.21
7829.27
7828.35
7827.72
7827.03
7826.63
7826.26
7825.97
7825.48
7825.36
7825.23
7825.13
7824.83
7824.92
7824.88
7824.97
7824.94
7825.05
7824.97
7825.22
7825.22
7825.53
7825.53
7825.98
7825.98
7826.51
7826.51
7827.68
7828.09
7828.11
7828.12
7828.91
7828.91
7830.04
7830.04
7831.17
7831.86
7832.8
7832.89
7833.21
7834.15
7834.73
7835.11
7835.1
7835.1
7836.15
7836.15
7837.19
7837.87
7837.88
7837.88
7839.17
7839.51
7840.85
7841.49
7842.38
7843.45
7843.46
7843.46
7844.91
7845.63
7846.96
7847.37
7847.38
7848.95
7849.07
7850.66
7852.56
7853.34
7855.11
7857.3
7859.47
7862.69
7866
7871.46
7878.19
7886.03
7961.7
8184.72
39324.1
8316.18
8074.7
7972.62
7919.19
7886.48
7865.3
7850.38
7839.85
7831.82
7825.9
7821.14
7817.55
7814.53
7812.24
7810.23
7808.72
7807.35
7806.33
7805.35
7804.66
7803.92
7803.47
7803.07
7802.75
7802.22
7802.08
7801.93
7801.81
7801.49
7801.56
7801.52
7801.6
7801.56
7801.65
7801.56
7801.8
7801.8
7802.1
7802.09
7802.55
7802.55
7803.07
7803.07
7804.26
7804.69
7804.7
7804.7
7805.51
7805.51
7806.67
7806.67
7807.8
7808.5
7809.49
7809.59
7809.87
7810.86
7811.46
7811.87
7811.87
7811.87
7812.96
7812.97
7813.98
7814.72
7814.72
7814.72
7816.03
7816.42
7817.78
7818.4
7819.31
7820.45
7820.46
7820.46
7821.92
7822.69
7824.04
7824.5
7824.51
7826.12
7826.27
7827.85
7829.8
7830.65
7832.44
7834.65
7836.88
7840.11
7843.51
7848.9
7855.95
7863.1
7942.61
8165.74
37071.7
8312.97
8064.48
7958.09
7901.98
7867.49
7845.09
7829.28
7818.07
7809.54
7803.22
7798.14
7794.29
7791.07
7788.61
7786.46
7784.83
7783.35
7782.25
7781.2
7780.45
7779.65
7779.16
7778.71
7778.37
7777.81
7777.64
7777.47
7777.32
7776.98
7777.03
7776.98
7777.05
7777
7777.08
7776.98
7777.2
7777.2
7777.49
7777.48
7777.93
7777.93
7778.45
7778.45
7779.66
7780.1
7780.11
7780.11
7780.92
7780.93
7782.13
7782.13
7783.25
7783.96
7784.99
7785.11
7785.34
7786.38
7787.01
7787.46
7787.46
7787.45
7788.59
7788.61
7789.6
7790.39
7790.39
7790.39
7791.73
7792.15
7793.53
7794.13
7795.07
7796.27
7796.29
7796.29
7797.77
7798.57
7799.95
7800.46
7800.47
7802.12
7802.31
7803.88
7805.88
7806.79
7808.6
7810.83
7813.13
7816.36
7819.86
7825.16
7832.56
7839
7922.36
8145.47
34926.9
8309.72
8053.93
7943
7884.07
7847.7
7823.99
7807.22
7795.31
7786.23
7779.49
7774.07
7769.95
7766.5
7763.86
7761.56
7759.8
7758.21
7757.02
7755.89
7755.07
7754.22
7753.68
7753.19
7752.81
7752.21
7752.01
7751.81
7751.65
7751.28
7751.32
7751.26
7751.31
7751.26
7751.31
7751.2
7751.41
7751.4
7751.68
7751.67
7752.11
7752.11
7752.64
7752.63
7753.85
7754.31
7754.32
7754.31
7755.14
7755.14
7756.38
7756.39
7757.5
7758.23
7759.29
7759.43
7759.62
7760.7
7761.36
7761.85
7761.85
7761.85
7763.02
7763.06
7764.01
7764.87
7764.87
7764.87
7766.23
7766.7
7768.1
7768.68
7769.64
7770.9
7770.93
7770.93
7772.42
7773.27
7774.67
7775.24
7775.25
7776.93
7777.17
7778.73
7780.78
7781.75
7783.59
7785.84
7788.2
7791.43
7795.02
7800.23
7807.98
7813.71
7900.93
8123.85
32890.6
8306.43
8043.07
7927.38
7865.47
7827.11
7802.01
7784.23
7771.56
7761.89
7754.7
7748.91
7744.5
7740.82
7737.98
7735.51
7733.62
7731.92
7730.63
7729.41
7728.52
7727.6
7727.01
7726.47
7726.05
7725.42
7725.19
7724.96
7724.78
7724.39
7724.4
7724.33
7724.36
7724.3
7724.34
7724.2
7724.41
7724.4
7724.66
7724.64
7725.08
7725.08
7725.6
7725.6
7726.83
7727.3
7727.31
7727.3
7728.14
7728.14
7729.42
7729.43
7730.52
7731.27
7732.38
7732.53
7732.68
7733.81
7734.5
7735.03
7735.03
7735.02
7736.24
7736.3
7737.21
7738.13
7738.13
7738.13
7739.51
7740.03
7741.46
7742.01
7743
7744.33
7744.37
7744.37
7745.87
7746.76
7748.18
7748.82
7748.83
7750.55
7750.83
7752.38
7754.47
7755.51
7757.38
7759.64
7762.07
7765.29
7768.98
7774.1
7782.19
7787.22
7878.24
8100.84
30963.5
8303.12
8031.91
7911.24
7846.18
7805.72
7779.14
7760.28
7746.81
7736.52
7728.84
7722.67
7717.95
7714
7710.96
7708.31
7706.28
7704.45
7703.06
7701.74
7700.78
7699.8
7699.14
7698.55
7698.1
7697.42
7697.15
7696.9
7696.7
7696.28
7696.26
7696.18
7696.19
7696.13
7696.14
7695.99
7696.18
7696.16
7696.41
7696.38
7696.82
7696.82
7697.33
7697.33
7698.58
7699.06
7699.06
7699.06
7699.91
7699.91
7701.23
7701.24
7702.32
7703.08
7704.24
7704.4
7704.51
7705.68
7706.4
7706.98
7706.98
7706.97
7708.23
7708.32
7709.18
7710.17
7710.17
7710.17
7711.57
7712.14
7713.59
7714.12
7715.13
7716.53
7716.58
7716.58
7718.1
7719.03
7720.48
7721.19
7721.19
7722.94
7723.28
7724.82
7726.95
7728.05
7729.95
7732.23
7734.72
7737.94
7741.72
7746.73
7755.17
7759.5
7854.26
8076.38
29146.1
8299.8
8020.46
7894.58
7826.21
7783.53
7755.39
7735.39
7721.06
7710.11
7701.91
7695.33
7690.28
7686.06
7682.79
7679.95
7677.76
7675.8
7674.29
7672.88
7671.84
7670.78
7670.07
7669.41
7668.92
7668.2
7667.89
7667.6
7667.38
7666.93
7666.9
7666.8
7666.79
7666.72
7666.71
7666.53
7666.71
7666.69
7666.92
7666.88
7667.32
7667.32
7667.82
7667.82
7669.09
7669.57
7669.57
7669.56
7670.42
7670.43
7671.78
7671.81
7672.86
7673.64
7674.84
7675.01
7675.09
7676.31
7677.05
7677.67
7677.68
7677.68
7678.97
7679.09
7679.9
7680.95
7680.97
7680.97
7682.39
7683.01
7684.48
7684.97
7686.03
7687.48
7687.56
7687.56
7689.09
7690.05
7691.53
7692.31
7692.31
7694.09
7694.5
7696.02
7698.19
7699.36
7701.29
7703.58
7706.14
7709.34
7713.22
7718.12
7726.89
7730.54
7828.91
8050.42
27438.7
8296.47
8008.76
7877.43
7805.58
7760.55
7730.76
7709.54
7694.31
7682.65
7673.91
7666.88
7661.48
7656.97
7653.46
7650.42
7648.06
7645.96
7644.33
7642.81
7641.68
7640.55
7639.76
7639.05
7638.51
7637.75
7637.39
7637.07
7636.82
7636.34
7636.28
7636.17
7636.14
7636.06
7636.02
7635.82
7635.99
7635.96
7636.18
7636.12
7636.55
7636.55
7637.04
7637.04
7638.33
7638.82
7638.82
7638.81
7639.68
7639.68
7641.07
7641.11
7642.14
7642.94
7644.18
7644.36
7644.41
7645.67
7646.44
7647.11
7647.13
7647.12
7648.45
7648.61
7649.36
7650.48
7650.51
7650.5
7651.95
7652.61
7654.11
7654.57
7655.66
7657.18
7657.27
7657.28
7658.82
7659.83
7661.32
7662.18
7662.18
7663.99
7664.47
7665.97
7668.17
7669.41
7671.38
7673.68
7676.3
7679.49
7683.47
7688.25
7697.34
7700.33
7802.15
8022.9
25841.4
8293.14
7996.8
7859.8
7784.29
7736.79
7705.26
7682.76
7666.56
7654.16
7644.83
7637.34
7631.56
7626.73
7622.97
7619.71
7617.18
7614.91
7613.16
7611.53
7610.3
7609.08
7608.22
7607.44
7606.86
7606.05
7605.65
7605.28
7605.01
7604.5
7604.41
7604.27
7604.23
7604.13
7604.07
7603.84
7604
7603.97
7604.16
7604.09
7604.52
7604.51
7604.99
7604.99
7606.29
7606.78
7606.79
7606.77
7607.65
7607.66
7609.08
7609.14
7610.13
7610.95
7612.25
7612.42
7612.45
7613.75
7614.55
7615.28
7615.3
7615.29
7616.66
7616.86
7617.54
7618.73
7618.77
7618.76
7620.23
7620.94
7622.47
7622.89
7624.02
7625.6
7625.72
7625.72
7627.28
7628.33
7629.84
7630.78
7630.79
7632.62
7633.17
7634.65
7636.89
7638.19
7640.19
7642.5
7645.19
7648.36
7652.44
7657.1
7666.5
7668.84
7773.93
7993.77
24354.2
8289.83
7984.62
7841.71
7762.37
7712.27
7678.89
7655.04
7637.82
7624.62
7614.67
7606.68
7600.5
7595.34
7591.3
7587.82
7585.09
7582.66
7580.77
7579.01
7577.69
7576.37
7575.44
7574.59
7573.95
7573.08
7572.64
7572.23
7571.93
7571.38
7571.26
7571.11
7571.04
7570.92
7570.85
7570.59
7570.73
7570.69
7570.86
7570.78
7571.19
7571.19
7571.65
7571.65
7572.97
7573.46
7573.46
7573.45
7574.34
7574.34
7575.8
7575.88
7576.83
7577.67
7579.01
7579.19
7579.2
7580.53
7581.36
7582.15
7582.17
7582.16
7583.57
7583.81
7584.42
7585.69
7585.73
7585.74
7587.22
7587.98
7589.55
7589.92
7591.09
7592.74
7592.88
7592.88
7594.45
7595.54
7597.07
7598.1
7598.11
7599.97
7600.59
7602.05
7604.32
7605.68
7607.73
7610.04
7612.79
7615.94
7620.12
7624.65
7634.33
7636.07
7744.17
7962.94
22975.1
8286.56
7972.23
7823.17
7739.83
7686.99
7651.67
7626.38
7608.08
7594.04
7583.44
7574.91
7568.3
7562.79
7558.46
7554.73
7551.79
7549.19
7547.15
7545.27
7543.83
7542.42
7541.4
7540.47
7539.77
7538.85
7538.35
7537.9
7537.57
7536.99
7536.84
7536.65
7536.57
7536.42
7536.33
7536.05
7536.17
7536.12
7536.26
7536.16
7536.57
7536.57
7537.02
7537.01
7538.34
7538.83
7538.84
7538.82
7539.72
7539.72
7541.21
7541.32
7542.22
7543.09
7544.48
7544.64
7544.65
7546.01
7546.86
7547.71
7547.75
7547.73
7549.18
7549.47
7549.99
7551.34
7551.4
7551.41
7552.91
7553.71
7555.31
7555.65
7556.85
7558.57
7558.74
7558.74
7560.32
7561.45
7563
7564.13
7564.13
7566.01
7566.72
7568.15
7570.45
7571.87
7573.96
7576.28
7579.1
7582.22
7586.49
7590.89
7600.82
7602
7712.84
7930.37
21698.3
8283.31
7959.66
7804.22
7716.68
7660.97
7623.6
7596.8
7577.35
7562.42
7551.12
7542.03
7534.96
7529.07
7524.43
7520.44
7517.29
7514.49
7512.3
7510.27
7508.72
7507.21
7506.1
7505.09
7504.33
7503.35
7502.79
7502.29
7501.92
7501.3
7501.11
7500.9
7500.8
7500.63
7500.52
7500.2
7500.3
7500.24
7500.36
7500.24
7500.63
7500.63
7501.07
7501.06
7502.4
7502.88
7502.89
7502.88
7503.78
7503.78
7505.31
7505.45
7506.29
7507.18
7508.62
7508.78
7508.77
7510.17
7511.05
7511.95
7512
7511.99
7513.47
7513.8
7514.24
7515.66
7515.75
7515.76
7517.28
7518.13
7519.77
7520.05
7521.3
7523.08
7523.28
7523.28
7524.87
7526.05
7527.61
7528.84
7528.84
7530.73
7531.53
7532.94
7535.27
7536.74
7538.88
7541.19
7544.08
7547.17
7551.54
7555.81
7565.95
7566.61
7679.86
7895.99
20518.7
8280.12
7946.92
7784.86
7692.94
7634.22
7594.7
7566.3
7545.64
7529.77
7517.72
7508.03
7500.48
7494.19
7489.23
7484.95
7481.57
7478.57
7476.21
7474.03
7472.36
7470.73
7469.53
7468.43
7467.6
7466.55
7465.93
7465.38
7464.97
7464.31
7464.09
7463.85
7463.72
7463.52
7463.39
7463.05
7463.13
7463.06
7463.15
7463
7463.38
7463.38
7463.79
7463.78
7465.13
7465.61
7465.62
7465.61
7466.51
7466.52
7468.07
7468.24
7469.03
7469.95
7471.43
7471.58
7471.57
7473
7473.89
7474.85
7474.93
7474.91
7476.43
7476.8
7477.17
7478.66
7478.77
7478.78
7480.32
7481.21
7482.89
7483.13
7484.42
7486.26
7486.5
7486.5
7488.1
7489.32
7490.89
7492.22
7492.22
7494.13
7495.02
7496.4
7498.75
7500.28
7502.47
7504.78
7507.73
7510.79
7515.24
7519.39
7529.71
7529.89
7645.17
7859.76
19430.7
8276.99
7934.05
7765.13
7668.64
7606.76
7564.97
7534.89
7512.95
7496.09
7483.26
7472.93
7464.87
7458.15
7452.83
7448.26
7444.63
7441.42
7438.87
7436.54
7434.73
7432.98
7431.68
7430.49
7429.58
7428.47
7427.78
7427.17
7426.72
7426.02
7425.75
7425.48
7425.33
7425.1
7424.95
7424.58
7424.63
7424.55
7424.61
7424.43
7424.8
7424.8
7425.19
7425.17
7426.53
7427.01
7427.02
7427
7427.91
7427.91
7429.49
7429.7
7430.42
7431.37
7432.9
7433.03
7433.03
7434.48
7435.4
7436.41
7436.51
7436.5
7438.05
7438.45
7438.75
7440.31
7440.45
7440.46
7442.01
7442.95
7444.67
7444.86
7446.19
7448.09
7448.37
7448.38
7449.98
7451.25
7452.83
7454.25
7454.27
7456.19
7457.17
7458.52
7460.9
7462.47
7464.71
7467.02
7470.04
7473.05
7477.6
7481.62
7492.07
7491.83
7608.7
7821.64
18428.4
8273.93
7921.05
7745.05
7643.8
7578.61
7534.44
7502.59
7479.3
7461.39
7447.72
7436.72
7428.12
7420.95
7415.26
7410.37
7406.47
7403.03
7400.29
7397.79
7395.84
7393.96
7392.54
7391.25
7390.27
7389.08
7388.33
7387.65
7387.16
7386.41
7386.1
7385.79
7385.61
7385.35
7385.18
7384.78
7384.8
7384.71
7384.73
7384.53
7384.88
7384.88
7385.25
7385.22
7386.58
7387.06
7387.07
7387.04