/*--------------------------------*- C++ -*----------------------------------*\
| =========                 |                                                 |
| \\      /  F ield         | OpenFOAM: The Open Source CFD Toolbox           |
|  \\    /   O peration     | Version:  v2012                                 |
|   \\  /    A nd           | Website:  www.openfoam.com                      |
|    \\/     M anipulation  |                                                 |
\*---------------------------------------------------------------------------*/
FoamFile
{
    version     2.0;
    format      ascii;
    class       volVectorField;
    location    "5";
    object      wallShearStress;
}
// * * * * * * * * * * * * * * * * * * * * * * * * * * * * * * * * * * * * * //

dimensions      [0 2 -2 0 0 0 0];


internalField   uniform (0 0 0);

boundaryField
{
    inlet
    {
        type            calculated;
        value           uniform (0 0 0);
    }
    outlet
    {
        type            calculated;
        value           uniform (0 0 0);
    }
    topWall
    {
        type            calculated;
        value           nonuniform List<vector> 
545
(
(8.9208e-09 -6.24484e-09 0)
(8.95198e-09 -1.76674e-08 0)
(8.84664e-09 -2.93476e-08 0)
(8.80233e-09 -4.06434e-08 0)
(8.76983e-09 -5.14196e-08 0)
(8.73748e-09 -6.18223e-08 0)
(8.7025e-09 -7.19463e-08 0)
(8.66436e-09 -8.17892e-08 0)
(8.62321e-09 -9.13288e-08 0)
(8.5793e-09 -1.00563e-07 0)
(8.53289e-09 -1.09504e-07 0)
(8.48424e-09 -1.18162e-07 0)
(8.43358e-09 -1.26543e-07 0)
(8.38113e-09 -1.34653e-07 0)
(8.32711e-09 -1.425e-07 0)
(8.27172e-09 -1.50089e-07 0)
(8.21515e-09 -1.57428e-07 0)
(8.15758e-09 -1.64524e-07 0)
(8.09915e-09 -1.71384e-07 0)
(8.04003e-09 -1.78015e-07 0)
(7.98035e-09 -1.84423e-07 0)
(7.92024e-09 -1.90615e-07 0)
(7.85981e-09 -1.96599e-07 0)
(7.79918e-09 -2.0238e-07 0)
(7.73843e-09 -2.07965e-07 0)
(7.67766e-09 -2.1336e-07 0)
(7.61695e-09 -2.18571e-07 0)
(7.55637e-09 -2.23605e-07 0)
(7.49598e-09 -2.28467e-07 0)
(7.43585e-09 -2.33163e-07 0)
(7.37602e-09 -2.37698e-07 0)
(7.31656e-09 -2.42078e-07 0)
(7.25748e-09 -2.46308e-07 0)
(7.19886e-09 -2.50393e-07 0)
(7.14068e-09 -2.54338e-07 0)
(7.08302e-09 -2.58149e-07 0)
(7.02586e-09 -2.61828e-07 0)
(6.96924e-09 -2.65382e-07 0)
(6.91318e-09 -2.68814e-07 0)
(6.85769e-09 -2.72129e-07 0)
(6.80277e-09 -2.75331e-07 0)
(6.74845e-09 -2.78423e-07 0)
(6.69471e-09 -2.8141e-07 0)
(6.64157e-09 -2.84295e-07 0)
(6.58902e-09 -2.87081e-07 0)
(6.53707e-09 -2.89773e-07 0)
(6.48569e-09 -2.92372e-07 0)
(6.43491e-09 -2.94884e-07 0)
(6.3847e-09 -2.9731e-07 0)
(6.33507e-09 -2.99654e-07 0)
(6.28598e-09 -3.01918e-07 0)
(6.23745e-09 -3.04106e-07 0)
(6.18945e-09 -3.06219e-07 0)
(6.14197e-09 -3.08261e-07 0)
(6.095e-09 -3.10233e-07 0)
(6.04852e-09 -3.12139e-07 0)
(6.00251e-09 -3.13981e-07 0)
(5.95697e-09 -3.15761e-07 0)
(5.91187e-09 -3.1748e-07 0)
(5.86719e-09 -3.19141e-07 0)
(5.82292e-09 -3.20746e-07 0)
(5.77904e-09 -3.22298e-07 0)
(5.73552e-09 -3.23797e-07 0)
(5.69234e-09 -3.25245e-07 0)
(5.6495e-09 -3.26645e-07 0)
(5.60695e-09 -3.27997e-07 0)
(5.5647e-09 -3.29304e-07 0)
(5.52267e-09 -3.30566e-07 0)
(5.48102e-09 -3.31788e-07 0)
(5.43903e-09 -3.32961e-07 0)
(5.39957e-09 -3.34127e-07 0)
(5.35033e-09 -3.35177e-07 0)
(5.30502e-09 -3.3622e-07 0)
(5.27673e-09 -3.37305e-07 0)
(5.24867e-09 -3.38279e-07 0)
(5.22072e-09 -3.39246e-07 0)
(5.19283e-09 -3.40227e-07 0)
(5.16497e-09 -3.41206e-07 0)
(5.13715e-09 -3.4217e-07 0)
(5.10937e-09 -3.4312e-07 0)
(5.08164e-09 -3.44062e-07 0)
(5.05394e-09 -3.44995e-07 0)
(5.02628e-09 -3.45919e-07 0)
(4.99867e-09 -3.46833e-07 0)
(4.9711e-09 -3.47738e-07 0)
(4.94357e-09 -3.48635e-07 0)
(4.91608e-09 -3.49522e-07 0)
(4.88864e-09 -3.504e-07 0)
(4.86125e-09 -3.51269e-07 0)
(4.83388e-09 -3.52129e-07 0)
(4.80662e-09 -3.52982e-07 0)
(4.77916e-09 -3.5382e-07 0)
(4.75279e-09 -3.54672e-07 0)
(4.72206e-09 -3.55449e-07 0)
(4.71008e-09 -3.565e-07 0)
(4.61858e-09 -3.56982e-07 0)
(4.50375e-09 -3.57511e-07 0)
(4.47569e-09 -3.58632e-07 0)
(4.45523e-09 -3.59194e-07 0)
(4.43661e-09 -3.59682e-07 0)
(4.41839e-09 -3.60282e-07 0)
(4.40021e-09 -3.60935e-07 0)
(4.38199e-09 -3.61575e-07 0)
(4.36373e-09 -3.62193e-07 0)
(4.3454e-09 -3.62806e-07 0)
(4.32702e-09 -3.63423e-07 0)
(4.30858e-09 -3.64042e-07 0)
(4.29008e-09 -3.64658e-07 0)
(4.27152e-09 -3.65273e-07 0)
(4.2529e-09 -3.65886e-07 0)
(4.23423e-09 -3.66498e-07 0)
(4.21549e-09 -3.67109e-07 0)
(4.1967e-09 -3.67719e-07 0)
(4.17785e-09 -3.68328e-07 0)
(4.15894e-09 -3.68935e-07 0)
(4.13997e-09 -3.6954e-07 0)
(4.12095e-09 -3.70145e-07 0)
(4.10186e-09 -3.70748e-07 0)
(4.08272e-09 -3.71349e-07 0)
(4.06352e-09 -3.7195e-07 0)
(4.04427e-09 -3.72548e-07 0)
(4.02495e-09 -3.73146e-07 0)
(4.00558e-09 -3.73742e-07 0)
(3.98615e-09 -3.74336e-07 0)
(3.96667e-09 -3.74929e-07 0)
(3.94713e-09 -3.7552e-07 0)
(3.92753e-09 -3.7611e-07 0)
(3.90787e-09 -3.76698e-07 0)
(3.88816e-09 -3.77285e-07 0)
(3.86839e-09 -3.7787e-07 0)
(3.84856e-09 -3.78454e-07 0)
(3.82868e-09 -3.79036e-07 0)
(3.80874e-09 -3.79616e-07 0)
(3.78874e-09 -3.80194e-07 0)
(3.76869e-09 -3.80771e-07 0)
(3.74859e-09 -3.81346e-07 0)
(3.72843e-09 -3.81919e-07 0)
(3.70821e-09 -3.82491e-07 0)
(3.68794e-09 -3.83061e-07 0)
(3.66761e-09 -3.83629e-07 0)
(3.64723e-09 -3.84195e-07 0)
(3.62679e-09 -3.8476e-07 0)
(3.6063e-09 -3.85322e-07 0)
(3.58576e-09 -3.85883e-07 0)
(3.56516e-09 -3.86441e-07 0)
(3.5445e-09 -3.86998e-07 0)
(3.5238e-09 -3.87553e-07 0)
(3.50304e-09 -3.88106e-07 0)
(3.48222e-09 -3.88657e-07 0)
(3.46136e-09 -3.89206e-07 0)
(3.44044e-09 -3.89753e-07 0)
(3.41947e-09 -3.90298e-07 0)
(3.39844e-09 -3.90841e-07 0)
(3.37737e-09 -3.91381e-07 0)
(3.35624e-09 -3.9192e-07 0)
(3.33506e-09 -3.92456e-07 0)
(3.31383e-09 -3.92991e-07 0)
(3.29254e-09 -3.93523e-07 0)
(3.27121e-09 -3.94053e-07 0)
(3.24983e-09 -3.94581e-07 0)
(3.22839e-09 -3.95106e-07 0)
(3.20691e-09 -3.9563e-07 0)
(3.18538e-09 -3.96151e-07 0)
(3.16379e-09 -3.96669e-07 0)
(3.14216e-09 -3.97186e-07 0)
(3.12048e-09 -3.977e-07 0)
(3.09875e-09 -3.98211e-07 0)
(3.07697e-09 -3.98721e-07 0)
(3.05514e-09 -3.99228e-07 0)
(3.03326e-09 -3.99732e-07 0)
(3.01134e-09 -4.00234e-07 0)
(2.98937e-09 -4.00733e-07 0)
(2.96736e-09 -4.01231e-07 0)
(2.94529e-09 -4.01725e-07 0)
(2.92318e-09 -4.02217e-07 0)
(2.90103e-09 -4.02706e-07 0)
(2.87883e-09 -4.03193e-07 0)
(2.85658e-09 -4.03677e-07 0)
(2.83429e-09 -4.04159e-07 0)
(2.81196e-09 -4.04638e-07 0)
(2.78958e-09 -4.05114e-07 0)
(2.76715e-09 -4.05588e-07 0)
(2.74469e-09 -4.06059e-07 0)
(2.72218e-09 -4.06526e-07 0)
(2.69963e-09 -4.06992e-07 0)
(2.67703e-09 -4.07454e-07 0)
(2.65439e-09 -4.07914e-07 0)
(2.63172e-09 -4.08371e-07 0)
(2.609e-09 -4.08825e-07 0)
(2.58624e-09 -4.09276e-07 0)
(2.56344e-09 -4.09724e-07 0)
(2.5406e-09 -4.10169e-07 0)
(2.51772e-09 -4.10612e-07 0)
(2.4948e-09 -4.11051e-07 0)
(2.47185e-09 -4.11487e-07 0)
(2.44885e-09 -4.1192e-07 0)
(2.42582e-09 -4.12351e-07 0)
(2.40275e-09 -4.12778e-07 0)
(2.37965e-09 -4.13202e-07 0)
(2.3565e-09 -4.13623e-07 0)
(2.33333e-09 -4.14041e-07 0)
(2.31011e-09 -4.14455e-07 0)
(2.28687e-09 -4.14867e-07 0)
(2.26358e-09 -4.15275e-07 0)
(2.24027e-09 -4.1568e-07 0)
(2.21692e-09 -4.16082e-07 0)
(2.19354e-09 -4.1648e-07 0)
(2.17012e-09 -4.16875e-07 0)
(2.14668e-09 -4.17267e-07 0)
(2.1232e-09 -4.17656e-07 0)
(2.09969e-09 -4.18041e-07 0)
(2.07615e-09 -4.18422e-07 0)
(2.05258e-09 -4.18801e-07 0)
(2.02899e-09 -4.19175e-07 0)
(2.00536e-09 -4.19547e-07 0)
(1.98171e-09 -4.19914e-07 0)
(1.95803e-09 -4.20279e-07 0)
(1.93432e-09 -4.2064e-07 0)
(1.91058e-09 -4.20997e-07 0)
(1.88682e-09 -4.2135e-07 0)
(1.86304e-09 -4.217e-07 0)
(1.83923e-09 -4.22047e-07 0)
(1.8154e-09 -4.22389e-07 0)
(1.79154e-09 -4.22728e-07 0)
(1.76766e-09 -4.23064e-07 0)
(1.74376e-09 -4.23395e-07 0)
(1.71983e-09 -4.23723e-07 0)
(1.69589e-09 -4.24047e-07 0)
(1.67192e-09 -4.24367e-07 0)
(1.64794e-09 -4.24683e-07 0)
(1.62394e-09 -4.24996e-07 0)
(1.59991e-09 -4.25305e-07 0)
(1.57588e-09 -4.25609e-07 0)
(1.55182e-09 -4.2591e-07 0)
(1.52775e-09 -4.26207e-07 0)
(1.50366e-09 -4.265e-07 0)
(1.47955e-09 -4.26789e-07 0)
(1.45543e-09 -4.27074e-07 0)
(1.4313e-09 -4.27355e-07 0)
(1.40716e-09 -4.27631e-07 0)
(1.383e-09 -4.27904e-07 0)
(1.35883e-09 -4.28173e-07 0)
(1.33465e-09 -4.28437e-07 0)
(1.31046e-09 -4.28697e-07 0)
(1.28626e-09 -4.28954e-07 0)
(1.26205e-09 -4.29205e-07 0)
(1.23783e-09 -4.29453e-07 0)
(1.21361e-09 -4.29697e-07 0)
(1.18938e-09 -4.29936e-07 0)
(1.16514e-09 -4.30171e-07 0)
(1.1409e-09 -4.30401e-07 0)
(1.11665e-09 -4.30627e-07 0)
(1.0924e-09 -4.30849e-07 0)
(1.06815e-09 -4.31067e-07 0)
(1.04389e-09 -4.3128e-07 0)
(1.01963e-09 -4.31489e-07 0)
(9.95377e-10 -4.31693e-07 0)
(9.7112e-10 -4.31892e-07 0)
(9.46864e-10 -4.32088e-07 0)
(9.22609e-10 -4.32278e-07 0)
(8.98356e-10 -4.32465e-07 0)
(8.74109e-10 -4.32646e-07 0)
(8.49858e-10 -4.32823e-07 0)
(8.25644e-10 -4.32997e-07 0)
(8.01303e-10 -4.3316e-07 0)
(7.77527e-10 -4.3334e-07 0)
(7.51388e-10 -4.33453e-07 0)
(7.35327e-10 -4.3383e-07 0)
(6.76535e-10 -4.33677e-07 0)
(6.03083e-10 -4.33611e-07 0)
(5.77578e-10 -4.34179e-07 0)
(5.60279e-10 -4.34251e-07 0)
(5.44749e-10 -4.34229e-07 0)
(5.29445e-10 -4.34301e-07 0)
(5.13992e-10 -4.34427e-07 0)
(4.98303e-10 -4.34544e-07 0)
(4.82361e-10 -4.3464e-07 0)
(4.66165e-10 -4.3473e-07 0)
(4.49714e-10 -4.34821e-07 0)
(4.33007e-10 -4.34913e-07 0)
(4.16046e-10 -4.35001e-07 0)
(3.98832e-10 -4.35086e-07 0)
(3.81365e-10 -4.35168e-07 0)
(3.63648e-10 -4.35248e-07 0)
(3.45679e-10 -4.35324e-07 0)
(3.27462e-10 -4.35397e-07 0)
(3.08997e-10 -4.35467e-07 0)
(2.90286e-10 -4.35534e-07 0)
(2.71329e-10 -4.35597e-07 0)
(2.52128e-10 -4.35656e-07 0)
(2.32684e-10 -4.35711e-07 0)
(2.13e-10 -4.35762e-07 0)
(1.93075e-10 -4.35809e-07 0)
(1.72913e-10 -4.35852e-07 0)
(1.52515e-10 -4.35891e-07 0)
(1.31882e-10 -4.35924e-07 0)
(1.11016e-10 -4.35953e-07 0)
(8.9919e-11 -4.35977e-07 0)
(6.85932e-11 -4.35996e-07 0)
(4.70406e-11 -4.3601e-07 0)
(2.52631e-11 -4.36018e-07 0)
(3.26308e-12 -4.3602e-07 0)
(-1.89572e-11 -4.36017e-07 0)
(-4.13955e-11 -4.36007e-07 0)
(-6.40491e-11 -4.35991e-07 0)
(-8.69157e-11 -4.35969e-07 0)
(-1.09992e-10 -4.3594e-07 0)
(-1.33277e-10 -4.35905e-07 0)
(-1.56765e-10 -4.35862e-07 0)
(-1.80456e-10 -4.35813e-07 0)
(-2.04344e-10 -4.35755e-07 0)
(-2.28428e-10 -4.3569e-07 0)
(-2.52704e-10 -4.35618e-07 0)
(-2.77169e-10 -4.35537e-07 0)
(-3.01818e-10 -4.35448e-07 0)
(-3.26649e-10 -4.3535e-07 0)
(-3.51657e-10 -4.35244e-07 0)
(-3.76838e-10 -4.35129e-07 0)
(-4.02189e-10 -4.35004e-07 0)
(-4.27706e-10 -4.3487e-07 0)
(-4.53383e-10 -4.34726e-07 0)
(-4.79217e-10 -4.34572e-07 0)
(-5.05202e-10 -4.34408e-07 0)
(-5.31335e-10 -4.34234e-07 0)
(-5.57609e-10 -4.34049e-07 0)
(-5.84021e-10 -4.33853e-07 0)
(-6.10564e-10 -4.33646e-07 0)
(-6.37234e-10 -4.33427e-07 0)
(-6.64025e-10 -4.33196e-07 0)
(-6.90931e-10 -4.32953e-07 0)
(-7.17947e-10 -4.32698e-07 0)
(-7.45065e-10 -4.32431e-07 0)
(-7.72281e-10 -4.3215e-07 0)
(-7.99588e-10 -4.31857e-07 0)
(-8.26979e-10 -4.3155e-07 0)
(-8.54448e-10 -4.31229e-07 0)
(-8.81988e-10 -4.30894e-07 0)
(-9.09591e-10 -4.30545e-07 0)
(-9.37251e-10 -4.30181e-07 0)
(-9.6496e-10 -4.29802e-07 0)
(-9.9271e-10 -4.29408e-07 0)
(-1.02049e-09 -4.28999e-07 0)
(-1.0483e-09 -4.28574e-07 0)
(-1.07613e-09 -4.28132e-07 0)
(-1.10397e-09 -4.27674e-07 0)
(-1.13181e-09 -4.272e-07 0)
(-1.15964e-09 -4.26708e-07 0)
(-1.18745e-09 -4.262e-07 0)
(-1.21524e-09 -4.25673e-07 0)
(-1.24299e-09 -4.25128e-07 0)
(-1.2707e-09 -4.24565e-07 0)
(-1.29835e-09 -4.23984e-07 0)
(-1.32595e-09 -4.23384e-07 0)
(-1.35346e-09 -4.22764e-07 0)
(-1.3809e-09 -4.22125e-07 0)
(-1.40824e-09 -4.21466e-07 0)
(-1.43547e-09 -4.20787e-07 0)
(-1.46259e-09 -4.20088e-07 0)
(-1.48959e-09 -4.19368e-07 0)
(-1.51645e-09 -4.18627e-07 0)
(-1.54316e-09 -4.17864e-07 0)
(-1.56971e-09 -4.1708e-07 0)
(-1.59609e-09 -4.16274e-07 0)
(-1.62229e-09 -4.15445e-07 0)
(-1.64829e-09 -4.14594e-07 0)
(-1.67409e-09 -4.13721e-07 0)
(-1.69967e-09 -4.12824e-07 0)
(-1.72502e-09 -4.11904e-07 0)
(-1.75013e-09 -4.1096e-07 0)
(-1.77499e-09 -4.09992e-07 0)
(-1.79958e-09 -4.09001e-07 0)
(-1.82389e-09 -4.07984e-07 0)
(-1.8479e-09 -4.06943e-07 0)
(-1.87162e-09 -4.05878e-07 0)
(-1.89501e-09 -4.04787e-07 0)
(-1.91808e-09 -4.0367e-07 0)
(-1.94081e-09 -4.02528e-07 0)
(-1.96318e-09 -4.01361e-07 0)
(-1.98518e-09 -4.00167e-07 0)
(-2.0068e-09 -3.98947e-07 0)
(-2.02802e-09 -3.977e-07 0)
(-2.04884e-09 -3.96427e-07 0)
(-2.06924e-09 -3.95127e-07 0)
(-2.0892e-09 -3.93801e-07 0)
(-2.10873e-09 -3.92447e-07 0)
(-2.12779e-09 -3.91066e-07 0)
(-2.14638e-09 -3.89657e-07 0)
(-2.1645e-09 -3.88221e-07 0)
(-2.18211e-09 -3.86758e-07 0)
(-2.19922e-09 -3.85267e-07 0)
(-2.21582e-09 -3.83748e-07 0)
(-2.23188e-09 -3.82201e-07 0)
(-2.2474e-09 -3.80626e-07 0)
(-2.26237e-09 -3.79023e-07 0)
(-2.27677e-09 -3.77393e-07 0)
(-2.2906e-09 -3.75734e-07 0)
(-2.30384e-09 -3.74047e-07 0)
(-2.31649e-09 -3.72333e-07 0)
(-2.32854e-09 -3.7059e-07 0)
(-2.33996e-09 -3.6882e-07 0)
(-2.35077e-09 -3.67022e-07 0)
(-2.36094e-09 -3.65196e-07 0)
(-2.37047e-09 -3.63342e-07 0)
(-2.37935e-09 -3.61461e-07 0)
(-2.38757e-09 -3.59552e-07 0)
(-2.39513e-09 -3.57616e-07 0)
(-2.40201e-09 -3.55653e-07 0)
(-2.40822e-09 -3.53663e-07 0)
(-2.41374e-09 -3.51646e-07 0)
(-2.41856e-09 -3.49603e-07 0)
(-2.42269e-09 -3.47534e-07 0)
(-2.42611e-09 -3.45439e-07 0)
(-2.42883e-09 -3.43317e-07 0)
(-2.43083e-09 -3.41171e-07 0)
(-2.43211e-09 -3.39e-07 0)
(-2.43267e-09 -3.36804e-07 0)
(-2.43251e-09 -3.34583e-07 0)
(-2.43161e-09 -3.32339e-07 0)
(-2.42999e-09 -3.30071e-07 0)
(-2.42763e-09 -3.2778e-07 0)
(-2.42453e-09 -3.25467e-07 0)
(-2.4207e-09 -3.23132e-07 0)
(-2.41613e-09 -3.20775e-07 0)
(-2.41082e-09 -3.18398e-07 0)
(-2.40479e-09 -3.16e-07 0)
(-2.39802e-09 -3.13582e-07 0)
(-2.39053e-09 -3.11145e-07 0)
(-2.38232e-09 -3.0869e-07 0)
(-2.37339e-09 -3.06217e-07 0)
(-2.36376e-09 -3.03726e-07 0)
(-2.35342e-09 -3.01219e-07 0)
(-2.3424e-09 -2.98697e-07 0)
(-2.3307e-09 -2.96159e-07 0)
(-2.31832e-09 -2.93607e-07 0)
(-2.30529e-09 -2.91041e-07 0)
(-2.29161e-09 -2.88462e-07 0)
(-2.2773e-09 -2.85871e-07 0)
(-2.26236e-09 -2.83269e-07 0)
(-2.24681e-09 -2.80656e-07 0)
(-2.23066e-09 -2.78034e-07 0)
(-2.21393e-09 -2.75402e-07 0)
(-2.19663e-09 -2.72763e-07 0)
(-2.17878e-09 -2.70116e-07 0)
(-2.16038e-09 -2.67463e-07 0)
(-2.14146e-09 -2.64802e-07 0)
(-2.12201e-09 -2.62142e-07 0)
(-2.10211e-09 -2.59459e-07 0)
(-2.08152e-09 -2.56829e-07 0)
(-2.06128e-09 -2.53953e-07 0)
(-2.03699e-09 -2.51538e-07 0)
(-2.00466e-09 -2.48735e-07 0)
(-1.9725e-09 -2.45121e-07 0)
(-1.94439e-09 -2.41997e-07 0)
(-1.91715e-09 -2.38971e-07 0)
(-1.89005e-09 -2.35903e-07 0)
(-1.86289e-09 -2.32836e-07 0)
(-1.83566e-09 -2.29824e-07 0)
(-1.80839e-09 -2.26872e-07 0)
(-1.78109e-09 -2.23967e-07 0)
(-1.75381e-09 -2.21103e-07 0)
(-1.72656e-09 -2.18281e-07 0)
(-1.69937e-09 -2.15503e-07 0)
(-1.67227e-09 -2.1277e-07 0)
(-1.64526e-09 -2.10081e-07 0)
(-1.61838e-09 -2.07436e-07 0)
(-1.59163e-09 -2.04834e-07 0)
(-1.56503e-09 -2.02276e-07 0)
(-1.5386e-09 -1.9976e-07 0)
(-1.51235e-09 -1.97288e-07 0)
(-1.48629e-09 -1.94857e-07 0)
(-1.46042e-09 -1.92469e-07 0)
(-1.43476e-09 -1.90123e-07 0)
(-1.40932e-09 -1.87818e-07 0)
(-1.3841e-09 -1.85554e-07 0)
(-1.3591e-09 -1.83331e-07 0)
(-1.33433e-09 -1.81148e-07 0)
(-1.30979e-09 -1.79006e-07 0)
(-1.28548e-09 -1.76903e-07 0)
(-1.26141e-09 -1.74839e-07 0)
(-1.23757e-09 -1.72814e-07 0)
(-1.21397e-09 -1.70827e-07 0)
(-1.19061e-09 -1.68879e-07 0)
(-1.16748e-09 -1.66968e-07 0)
(-1.14459e-09 -1.65094e-07 0)
(-1.12193e-09 -1.63258e-07 0)
(-1.0995e-09 -1.61458e-07 0)
(-1.0773e-09 -1.59694e-07 0)
(-1.05533e-09 -1.57966e-07 0)
(-1.03358e-09 -1.56274e-07 0)
(-1.01206e-09 -1.54617e-07 0)
(-9.90752e-10 -1.52994e-07 0)
(-9.69663e-10 -1.51406e-07 0)
(-9.48787e-10 -1.49851e-07 0)
(-9.28121e-10 -1.48331e-07 0)
(-9.0766e-10 -1.46844e-07 0)
(-8.87403e-10 -1.4539e-07 0)
(-8.67344e-10 -1.43968e-07 0)
(-8.47481e-10 -1.42579e-07 0)
(-8.27807e-10 -1.41222e-07 0)
(-8.0832e-10 -1.39897e-07 0)
(-7.89014e-10 -1.38603e-07 0)
(-7.69886e-10 -1.3734e-07 0)
(-7.50928e-10 -1.36108e-07 0)
(-7.3214e-10 -1.34907e-07 0)
(-7.13513e-10 -1.33736e-07 0)
(-6.95044e-10 -1.32595e-07 0)
(-6.76727e-10 -1.31484e-07 0)
(-6.58558e-10 -1.30403e-07 0)
(-6.40531e-10 -1.2935e-07 0)
(-6.22642e-10 -1.28327e-07 0)
(-6.04884e-10 -1.27333e-07 0)
(-5.87256e-10 -1.26367e-07 0)
(-5.69748e-10 -1.2543e-07 0)
(-5.52361e-10 -1.24521e-07 0)
(-5.35084e-10 -1.2364e-07 0)
(-5.17918e-10 -1.22787e-07 0)
(-5.00854e-10 -1.21962e-07 0)
(-4.83892e-10 -1.21164e-07 0)
(-4.67023e-10 -1.20393e-07 0)
(-4.50246e-10 -1.1965e-07 0)
(-4.33553e-10 -1.18934e-07 0)
(-4.16943e-10 -1.18245e-07 0)
(-4.00407e-10 -1.17582e-07 0)
(-3.83945e-10 -1.16947e-07 0)
(-3.67548e-10 -1.16337e-07 0)
(-3.51213e-10 -1.15755e-07 0)
(-3.34931e-10 -1.15198e-07 0)
(-3.18699e-10 -1.14668e-07 0)
(-3.02509e-10 -1.14164e-07 0)
(-2.86355e-10 -1.13686e-07 0)
(-2.70229e-10 -1.13234e-07 0)
(-2.54128e-10 -1.12809e-07 0)
(-2.38044e-10 -1.12409e-07 0)
(-2.21977e-10 -1.12036e-07 0)
(-2.05926e-10 -1.11688e-07 0)
(-1.89902e-10 -1.11367e-07 0)
(-1.73919e-10 -1.11069e-07 0)
(-1.58016e-10 -1.10808e-07 0)
(-1.42204e-10 -1.10538e-07 0)
(-1.26636e-10 -1.10403e-07 0)
(-1.10915e-10 -1.09924e-07 0)
(-9.65609e-11 -1.10645e-07 0)
(-7.70837e-11 -1.072e-07 0)
(-7.71599e-11 -1.15874e-07 0)
(-4.51973e-11 -1.01096e-07 0)
)
;
    }
    bottomWall
    {
        type            calculated;
        value           nonuniform List<vector> 
449
(
(-48.8115 -0.967986 0)
(-19.8667 -0.00518092 0)
(-14.4578 -0.0011299 0)
(-12.188 -0.000530281 0)
(-10.8533 -0.000328207 0)
(-9.95619 -0.000226318 0)
(-9.31351 -0.000163735 0)
(-8.84044 -0.000120331 0)
(-8.49083 -8.45064e-05 0)
(-8.25736 -5.26068e-05 0)
(-8.11827 -2.08021e-05 0)
(-8.09159 6.23781e-06 0)
(-8.12806 1.93304e-05 0)
(-8.19012 1.93043e-05 0)
(-8.23389 1.1135e-05 0)
(-8.2504 2.04987e-06 0)
(-8.23956 -5.22186e-06 0)
(-8.21041 -1.01532e-05 0)
(-8.16787 -1.33567e-05 0)
(-8.11768 -1.51013e-05 0)
(-8.06337 -1.59447e-05 0)
(-8.00738 -1.62593e-05 0)
(-7.95087 -1.62103e-05 0)
(-7.89506 -1.60049e-05 0)
(-7.83977 -1.56528e-05 0)
(-7.7862 -1.51803e-05 0)
(-7.73397 -1.47415e-05 0)
(-7.68325 -1.4154e-05 0)
(-7.63492 -1.36728e-05 0)
(-7.58735 -1.31619e-05 0)
(-7.54242 -1.26032e-05 0)
(-7.49859 -1.20952e-05 0)
(-7.457 -1.17621e-05 0)
(-7.41534 -1.11877e-05 0)
(-7.37769 -1.07497e-05 0)
(-7.33889 -1.05923e-05 0)
(-7.30221 -1.00374e-05 0)
(-7.26725 -9.64208e-06 0)
(-7.23324 -9.22895e-06 0)
(-7.20113 -8.76886e-06 0)
(-7.17026 -8.5817e-06 0)
(-7.13935 -8.29321e-06 0)
(-7.11049 -7.77708e-06 0)
(-7.08313 -7.73302e-06 0)
(-7.0544 -7.52864e-06 0)
(-7.02847 -7.1549e-06 0)
(-7.00229 -7.09767e-06 0)
(-6.97665 -6.79623e-06 0)
(-6.95269 -6.35959e-06 0)
(-6.93015 -6.12112e-06 0)
(-6.9078 -5.82888e-06 0)
(-6.88732 -5.56599e-06 0)
(-6.86678 -5.66536e-06 0)
(-6.84551 -5.4562e-06 0)
(-6.82644 -5.27554e-06 0)
(-6.80635 -5.14982e-06 0)
(-6.78814 -5.03174e-06 0)
(-6.76887 -4.85246e-06 0)
(-6.75192 -4.67059e-06 0)
(-6.73392 -4.70962e-06 0)
(-6.71666 -4.39014e-06 0)
(-6.70105 -4.07961e-06 0)
(-6.68598 -4.09474e-06 0)
(-6.67017 -3.95699e-06 0)
(-6.65617 -3.67987e-06 0)
(-6.64235 -3.59773e-06 0)
(-6.62887 -3.4785e-06 0)
(-6.61591 -3.55344e-06 0)
(-6.60177 -3.61685e-06 0)
(-6.58835 -3.32155e-06 0)
(-6.57643 -3.26899e-06 0)
(-6.56328 -3.18565e-06 0)
(-6.55199 -2.95906e-06 0)
(-6.54054 -2.97332e-06 0)
(-6.52905 -2.92639e-06 0)
(-6.51793 -2.79775e-06 0)
(-6.5074 -2.71945e-06 0)
(-6.49679 -2.79454e-06 0)
(-6.48564 -2.7168e-06 0)
(-6.47568 -2.34543e-06 0)
(-6.46736 -2.34242e-06 0)
(-6.45726 -2.64254e-06 0)
(-6.4466 -2.54522e-06 0)
(-6.43732 -2.32316e-06 0)
(-6.42831 -2.34768e-06 0)
(-6.41881 -2.24959e-06 0)
(-6.41062 -1.9105e-06 0)
(-6.40372 -1.98874e-06 0)
(-6.39475 -2.18459e-06 0)
(-6.38626 -2.21908e-06 0)
(-6.37705 -2.16579e-06 0)
(-6.36898 -1.99638e-06 0)
(-6.36108 -1.82868e-06 0)
(-6.35434 -1.67625e-06 0)
(-6.34762 -1.86512e-06 0)
(-6.33931 -1.91102e-06 0)
(-6.33222 -1.74751e-06 0)
(-6.32518 -1.75113e-06 0)
(-6.31801 -1.71497e-06 0)
(-6.31125 -1.53392e-06 0)
(-6.30552 -1.50297e-06 0)
(-6.29898 -1.5842e-06 0)
(-6.29256 -1.61264e-06 0)
(-6.28573 -1.61261e-06 0)
(-6.27932 -1.40721e-06 0)
(-6.27421 -1.23744e-06 0)
(-6.26916 -1.23927e-06 0)
(-6.26401 -1.13283e-06 0)
(-6.25982 -9.92089e-07 0)
(-6.25577 -1.13568e-06 0)
(-6.25035 -1.21187e-06 0)
(-6.24567 -1.17657e-06 0)
(-6.2405 -1.20291e-06 0)
(-6.23555 -1.21455e-06 0)
(-6.23028 -1.21263e-06 0)
(-6.22536 -1.06287e-06 0)
(-6.22132 -1.0135e-06 0)
(-6.21676 -1.14149e-06 0)
(-6.21164 -1.11851e-06 0)
(-6.20727 -1.08963e-06 0)
(-6.20236 -1.07962e-06 0)
(-6.19807 -1.00286e-06 0)
(-6.19379 -9.84801e-07 0)
(-6.18965 -8.77068e-07 0)
(-6.18629 -6.96754e-07 0)
(-6.18367 -7.21277e-07 0)
(-6.18006 -8.75148e-07 0)
(-6.17606 -9.73929e-07 0)
(-6.1716 -1.00012e-06 0)
(-6.16739 -8.59481e-07 0)
(-6.16414 -7.89138e-07 0)
(-6.16052 -8.35369e-07 0)
(-6.15686 -7.493e-07 0)
(-6.15399 -6.96702e-07 0)
(-6.15077 -7.4242e-07 0)
(-6.14749 -6.79351e-07 0)
(-6.1448 -6.66429e-07 0)
(-6.14161 -7.27687e-07 0)
(-6.13837 -6.72068e-07 0)
(-6.13565 -6.56688e-07 0)
(-6.13253 -7.23132e-07 0)
(-6.12922 -6.71784e-07 0)
(-6.12655 -6.29038e-07 0)
(-6.12359 -6.23565e-07 0)
(-6.12095 -6.82965e-07 0)
(-6.11744 -7.76216e-07 0)
(-6.11396 -6.75684e-07 0)
(-6.11135 -6.08116e-07 0)
(-6.10846 -6.49366e-07 0)
(-6.10547 -5.7209e-07 0)
(-6.10327 -5.07073e-07 0)
(-6.10086 -5.65209e-07 0)
(-6.09811 -5.70626e-07 0)
(-6.09562 -6.11876e-07 0)
(-6.09249 -6.44146e-07 0)
(-6.0897 -5.94483e-07 0)
(-6.08701 -5.49577e-07 0)
(-6.08464 -4.69941e-07 0)
(-6.08267 -4.67124e-07 0)
(-6.08032 -4.74582e-07 0)
(-6.07828 -4.62439e-07 0)
(-6.07603 -4.57175e-07 0)
(-6.07403 -3.86908e-07 0)
(-6.07242 -4.07396e-07 0)
(-6.07022 -4.65026e-07 0)
(-6.06807 -4.09014e-07 0)
(-6.06639 -4.22072e-07 0)
(-6.0641 -4.85991e-07 0)
(-6.06181 -4.28474e-07 0)
(-6.06005 -4.24106e-07 0)
(-6.05778 -4.83755e-07 0)
(-6.05546 -4.56291e-07 0)
(-6.05343 -3.9259e-07 0)
(-6.0518 -4.44424e-07 0)
(-6.04956 -5.60169e-07 0)
(-6.04701 -5.50066e-07 0)
(-6.04483 -4.69037e-07 0)
(-6.04296 -4.74987e-07 0)
(-6.04066 -5.27026e-07 0)
(-6.03824 -5.83695e-07 0)
(-6.03537 -5.71779e-07 0)
(-6.033 -4.76547e-07 0)
(-6.03095 -4.43352e-07 0)
(-6.02886 -3.97065e-07 0)
(-6.0272 -3.40087e-07 0)
(-6.02561 -3.35862e-07 0)
(-6.02397 -3.01164e-07 0)
(-6.02267 -2.76057e-07 0)
(-6.02123 -2.91656e-07 0)
(-6.01976 -2.60434e-07 0)
(-6.0186 -2.47982e-07 0)
(-6.01722 -2.66799e-07 0)
(-6.01584 -2.33132e-07 0)
(-6.01477 -2.23867e-07 0)
(-6.01346 -2.35938e-07 0)
(-6.01224 -2.21966e-07 0)
(-6.01106 -2.19646e-07 0)
(-6.00984 -2.10667e-07 0)
(-6.00873 -2.09255e-07 0)
(-6.0075 -2.24387e-07 0)
(-6.00619 -2.14792e-07 0)
(-6.00504 -2.05043e-07 0)
(-6.00382 -2.07763e-07 0)
(-6.00262 -1.93015e-07 0)
(-6.00154 -1.87983e-07 0)
(-6.00036 -1.95694e-07 0)
(-5.99917 -1.842e-07 0)
(-5.99811 -1.78121e-07 0)
(-5.99697 -1.83596e-07 0)
(-5.99583 -1.7383e-07 0)
(-5.99478 -1.77226e-07 0)
(-5.99356 -1.8458e-07 0)
(-5.99241 -1.66382e-07 0)
(-5.99139 -1.71993e-07 0)
(-5.99012 -1.84278e-07 0)
(-5.98893 -1.61058e-07 0)
(-5.98795 -1.63522e-07 0)
(-5.9867 -1.7482e-07 0)
(-5.98554 -1.57811e-07 0)
(-5.9845 -1.54205e-07 0)
(-5.98338 -1.50503e-07 0)
(-5.98237 -1.42529e-07 0)
(-5.98133 -1.43817e-07 0)
(-5.98029 -1.35528e-07 0)
(-5.97935 -1.31058e-07 0)
(-5.97834 -1.34988e-07 0)
(-5.97733 -1.26157e-07 0)
(-5.97643 -1.25202e-07 0)
(-5.97541 -1.32349e-07 0)
(-5.97438 -1.23612e-07 0)
(-5.97347 -1.28265e-07 0)
(-5.97235 -1.39574e-07 0)
(-5.97124 -1.26439e-07 0)
(-5.97031 -1.25803e-07 0)
(-5.96918 -1.33641e-07 0)
(-5.9681 -1.24496e-07 0)
(-5.9671 -1.25974e-07 0)
(-5.96597 -1.27002e-07 0)
(-5.96494 -1.24056e-07 0)
(-5.96383 -1.27741e-07 0)
(-5.96272 -1.19447e-07 0)
(-5.96173 -1.21685e-07 0)
(-5.96054 -1.34167e-07 0)
(-5.95932 -1.23905e-07 0)
(-5.95829 -1.18854e-07 0)
(-5.95713 -1.26725e-07 0)
(-5.95594 -1.17405e-07 0)
(-5.95493 -1.14012e-07 0)
(-5.95378 -1.23263e-07 0)
(-5.95257 -1.14823e-07 0)
(-5.95156 -1.11315e-07 0)
(-5.95039 -1.10769e-07 0)
(-5.94937 -1.11706e-07 0)
(-5.94816 -1.1437e-07 0)
(-5.94706 -1.13307e-07 0)
(-5.94584 -1.10018e-07 0)
(-5.94479 -1.06393e-07 0)
(-5.94362 -1.12614e-07 0)
(-5.94242 -1.04239e-07 0)
(-5.9414 -9.97283e-08 0)
(-5.94026 -1.08264e-07 0)
(-5.93904 -1.01919e-07 0)
(-5.93802 -9.77602e-08 0)
(-5.93686 -1.05696e-07 0)
(-5.93564 -9.82999e-08 0)
(-5.93463 -9.43722e-08 0)
(-5.93347 -1.02367e-07 0)
(-5.93225 -9.45991e-08 0)
(-5.93125 -9.04593e-08 0)
(-5.9301 -9.99042e-08 0)
(-5.92886 -9.32441e-08 0)
(-5.92785 -8.86543e-08 0)
(-5.92668 -8.81607e-08 0)
(-5.92566 -8.64017e-08 0)
(-5.92452 -8.41389e-08 0)
(-5.92353 -8.17308e-08 0)
(-5.92243 -8.67485e-08 0)
(-5.92129 -7.85905e-08 0)
(-5.92037 -7.23301e-08 0)
(-5.91938 -7.60759e-08 0)
(-5.91835 -7.11732e-08 0)
(-5.91746 -6.81201e-08 0)
(-5.91648 -7.35012e-08 0)
(-5.91544 -6.94361e-08 0)
(-5.91455 -6.78366e-08 0)
(-5.91352 -7.46331e-08 0)
(-5.91242 -6.98674e-08 0)
(-5.91151 -6.70763e-08 0)
(-5.91047 -7.3255e-08 0)
(-5.90935 -6.80982e-08 0)
(-5.90844 -6.33594e-08 0)
(-5.90745 -6.64879e-08 0)
(-5.90643 -6.21395e-08 0)
(-5.90554 -5.91229e-08 0)
(-5.90459 -6.26924e-08 0)
(-5.90358 -5.83063e-08 0)
(-5.90274 -5.64945e-08 0)
(-5.90177 -6.32665e-08 0)
(-5.9007 -5.91949e-08 0)
(-5.89983 -5.6243e-08 0)
(-5.89883 -6.14615e-08 0)
(-5.89778 -5.62312e-08 0)
(-5.89694 -5.23873e-08 0)
(-5.89599 -5.68672e-08 0)
(-5.89497 -5.25331e-08 0)
(-5.89415 -4.95445e-08 0)
(-5.89322 -5.35204e-08 0)
(-5.89225 -4.91354e-08 0)
(-5.89145 -4.56835e-08 0)
(-5.89058 -4.90859e-08 0)
(-5.88965 -4.58199e-08 0)
(-5.88888 -4.45934e-08 0)
(-5.88797 -4.88664e-08 0)
(-5.88702 -4.41787e-08 0)
(-5.88627 -4.10838e-08 0)
(-5.88543 -4.59391e-08 0)
(-5.88447 -4.38422e-08 0)
(-5.88369 -4.17042e-08 0)
(-5.8828 -4.29427e-08 0)
(-5.88195 -3.96775e-08 0)
(-5.88117 -4.03762e-08 0)
(-5.88027 -4.26449e-08 0)
(-5.87939 -3.84118e-08 0)
(-5.87865 -3.46193e-08 0)
(-5.87791 -3.49402e-08 0)
(-5.87714 -3.44941e-08 0)
(-5.87641 -3.39528e-08 0)
(-5.87565 -3.27714e-08 0)
(-5.87494 -3.30858e-08 0)
(-5.87415 -3.54667e-08 0)
(-5.87333 -3.29401e-08 0)
(-5.87264 -2.99212e-08 0)
(-5.87193 -3.07333e-08 0)
(-5.87119 -2.87266e-08 0)
(-5.87057 -2.74034e-08 0)
(-5.86988 -2.82985e-08 0)
(-5.8692 -2.86749e-08 0)
(-5.86847 -2.97418e-08 0)
(-5.86772 -2.90274e-08 0)
(-5.86701 -2.54253e-08 0)
(-5.86643 -2.33712e-08 0)
(-5.86582 -2.48021e-08 0)
(-5.86515 -2.37657e-08 0)
(-5.86457 -2.32875e-08 0)
(-5.86392 -2.47569e-08 0)
(-5.86325 -2.26946e-08 0)
(-5.86269 -2.0878e-08 0)
(-5.86211 -2.44861e-08 0)
(-5.86134 -2.58725e-08 0)
(-5.86066 -2.35195e-08 0)
(-5.86001 -2.1701e-08 0)
(-5.85942 -1.9857e-08 0)
(-5.85886 -2.4061e-08 0)
(-5.85802 -2.97839e-08 0)
(-5.85697 -2.61086e-08 0)
(-5.85617 -1.91644e-08 0)
(-5.85554 -1.76071e-08 0)
(-5.85487 -1.7258e-08 0)
(-5.85428 -1.56508e-08 0)
(-5.85374 -1.43608e-08 0)
(-5.85324 -1.34782e-08 0)
(-5.85276 -1.37609e-08 0)
(-5.85225 -1.35915e-08 0)
(-5.85178 -1.31684e-08 0)
(-5.8513 -1.28661e-08 0)
(-5.85085 -1.59323e-08 0)
(-5.85014 -1.72883e-08 0)
(-5.8496 -1.37678e-08 0)
(-5.84915 -1.2527e-08 0)
(-5.8487 -1.19364e-08 0)
(-5.84829 -1.38793e-08 0)
(-5.8477 -1.57899e-08 0)
(-5.84715 -1.33435e-08 0)
(-5.84674 -1.27417e-08 0)
(-5.84623 -1.38668e-08 0)
(-5.84573 -1.36997e-08 0)
(-5.84525 -1.21015e-08 0)
(-5.84486 -1.07466e-08 0)
(-5.84447 -1.23285e-08 0)
(-5.84398 -1.33261e-08 0)
(-5.84351 -1.2503e-08 0)
(-5.84308 -1.10404e-08 0)
(-5.84272 -9.18285e-09 0)
(-5.84242 -8.3647e-09 0)
(-5.84213 -8.68092e-09 0)
(-5.8418 -8.77955e-09 0)
(-5.8415 -8.58753e-09 0)
(-5.84119 -1.27824e-08 0)
(-5.84057 -1.33956e-08 0)
(-5.84022 -8.80842e-09 0)
(-5.83994 -9.72335e-09 0)
(-5.83952 -9.47886e-09 0)
(-5.83926 -6.87864e-09 0)
(-5.83903 -9.9199e-09 0)
(-5.83855 -1.03309e-08 0)
(-5.83829 -7.48598e-09 0)
(-5.83801 -1.18443e-08 0)
(-5.83743 -1.05928e-08 0)
(-5.83725 -3.5719e-09 0)
(-5.83719 -8.78859e-09 0)
(-5.83663 -9.96658e-09 0)
(-5.83647 -2.00526e-09 0)
(-5.8365 -1.47722e-09 0)
(-5.83638 -2.75669e-09 0)
(-5.8363 -1.79766e-09 0)
(-5.83625 -2.12159e-09 0)
(-5.83616 -7.98722e-09 0)
(-5.83569 -8.32933e-09 0)
(-5.83556 -2.32096e-09 0)
(-5.83552 -1.56586e-09 0)
(-5.83545 -2.3233e-09 0)
(-5.83536 -2.11175e-09 0)
(-5.83531 -1.83122e-09 0)
(-5.83524 -9.23409e-09 0)
(-5.83465 -8.7392e-09 0)
(-5.83461 1.10382e-09 0)
(-5.83474 -3.45361e-10 0)
(-5.8346 -3.38964e-09 0)
(-5.8345 -6.97789e-09 0)
(-5.83409 -5.3318e-09 0)
(-5.83412 8.98963e-10 0)
(-5.83417 4.32399e-10 0)
(-5.83415 -7.13587e-10 0)
(-5.83412 -5.87436e-09 0)
(-5.83373 -4.47568e-09 0)
(-5.8338 2.12432e-09 0)
(-5.8339 -5.65801e-09 0)
(-5.8334 -6.56618e-09 0)
(-5.83342 2.24911e-09 0)
(-5.83357 -5.74357e-09 0)
(-5.83301 -9.41981e-09 0)
(-5.83288 6.94108e-10 0)
(-5.83308 -5.99033e-10 0)
(-5.83285 -3.81338e-09 0)
(-5.83279 2.38441e-09 0)
(-5.83303 3.96643e-09 0)
(-5.83309 6.15198e-10 0)
(-5.83308 -8.46801e-10 0)
(-5.83303 -4.48512e-09 0)
(-5.83275 -3.96733e-09 0)
(-5.83274 1.20103e-09 0)
(-5.83285 1.37271e-09 0)
(-5.83285 -1.26073e-10 0)
(-5.83284 -5.37433e-09 0)
(-5.83247 -3.75632e-09 0)
(-5.83257 3.66674e-09 0)
(-5.83273 2.424e-09 0)
(-5.83275 -6.39073e-09 0)
(-5.83226 -6.91147e-09 0)
)
;
    }
    symmetry
    {
        type            symmetryPlane;
    }
    frontAndBack
    {
        type            empty;
    }
}


// ************************************************************************* //
