/*--------------------------------*- C++ -*----------------------------------*\
| =========                 |                                                 |
| \\      /  F ield         | OpenFOAM: The Open Source CFD Toolbox           |
|  \\    /   O peration     | Version:  v2012                                 |
|   \\  /    A nd           | Website:  www.openfoam.com                      |
|    \\/     M anipulation  |                                                 |
\*---------------------------------------------------------------------------*/
FoamFile
{
    version     2.0;
    format      ascii;
    class       volScalarField;
    location    "5";
    object      yPlus;
}
// * * * * * * * * * * * * * * * * * * * * * * * * * * * * * * * * * * * * * //

dimensions      [0 0 0 0 0 0 0];


internalField   uniform 0;

boundaryField
{
    inlet
    {
        type            calculated;
        value           uniform 0;
    }
    outlet
    {
        type            calculated;
        value           uniform 0;
    }
    topWall
    {
        type            calculated;
        value           nonuniform List<scalar> 
545
(
0.0545191
0.0947822
0.121389
0.142479
0.160305
0.17588
0.189769
0.202327
0.213794
0.224346
0.234112
0.243195
0.251674
0.259616
0.267074
0.274095
0.280718
0.286976
0.292899
0.298512
0.303839
0.308899
0.31371
0.31829
0.322652
0.326811
0.330779
0.334567
0.338185
0.341643
0.34495
0.348114
0.351143
0.354043
0.356822
0.359485
0.362039
0.364488
0.366837
0.369093
0.371258
0.373337
0.375334
0.377254
0.379098
0.380871
0.382576
0.384216
0.385794
0.387312
0.388772
0.390178
0.391532
0.392835
0.39409
0.395299
0.396464
0.397586
0.398667
0.399709
0.400713
0.401681
0.402614
0.403514
0.404381
0.405218
0.406024
0.406802
0.407553
0.408276
0.408974
0.409648
0.410287
0.410903
0.411512
0.412114
0.41271
0.413298
0.41388
0.414456
0.415025
0.415587
0.416143
0.416693
0.417237
0.417774
0.418305
0.41883
0.41935
0.419863
0.42037
0.420872
0.421368
0.421859
0.422342
0.422825
0.423242
0.423614
0.423984
0.424352
0.42472
0.425087
0.425453
0.425819
0.426183
0.426546
0.426908
0.427269
0.427629
0.427988
0.428346
0.428703
0.429059
0.429414
0.429768
0.43012
0.430472
0.430823
0.431172
0.431521
0.431868
0.432214
0.432559
0.432903
0.433246
0.433587
0.433928
0.434267
0.434605
0.434942
0.435278
0.435613
0.435946
0.436278
0.436609
0.436939
0.437267
0.437594
0.43792
0.438245
0.438568
0.438891
0.439211
0.439531
0.439849
0.440166
0.440482
0.440796
0.441109
0.44142
0.44173
0.442039
0.442347
0.442653
0.442957
0.44326
0.443562
0.443863
0.444161
0.444459
0.444755
0.445049
0.445343
0.445634
0.445924
0.446213
0.4465
0.446786
0.44707
0.447352
0.447633
0.447912
0.44819
0.448467
0.448741
0.449014
0.449286
0.449556
0.449824
0.45009
0.450355
0.450619
0.45088
0.45114
0.451398
0.451655
0.45191
0.452163
0.452414
0.452664
0.452912
0.453158
0.453403
0.453645
0.453886
0.454125
0.454362
0.454598
0.454831
0.455063
0.455293
0.455521
0.455747
0.455972
0.456194
0.456415
0.456633
0.45685
0.457065
0.457278
0.457489
0.457698
0.457905
0.45811
0.458313
0.458514
0.458713
0.45891
0.459105
0.459298
0.459489
0.459678
0.459864
0.460049
0.460232
0.460412
0.460591
0.460767
0.460941
0.461113
0.461283
0.461451
0.461616
0.461779
0.46194
0.462099
0.462256
0.462411
0.462563
0.462713
0.46286
0.463006
0.463149
0.46329
0.463429
0.463565
0.463699
0.46383
0.46396
0.464087
0.464211
0.464334
0.464453
0.464571
0.464686
0.464798
0.464909
0.465016
0.465122
0.465225
0.465325
0.465423
0.465518
0.465611
0.465702
0.46579
0.465875
0.465958
0.46604
0.466106
0.466165
0.466222
0.466279
0.466335
0.466389
0.466443
0.466495
0.466546
0.466596
0.466645
0.466692
0.466738
0.466783
0.466826
0.466867
0.466906
0.466944
0.46698
0.467014
0.467046
0.467076
0.467104
0.467129
0.467153
0.467174
0.467192
0.467208
0.467221
0.467231
0.467239
0.467244
0.467245
0.467244
0.467239
0.467231
0.467219
0.467204
0.467186
0.467163
0.467137
0.467107
0.467072
0.467034
0.466991
0.466943
0.466891
0.466835
0.466773
0.466707
0.466635
0.466559
0.466477
0.466389
0.466296
0.466197
0.466092
0.465981
0.465864
0.46574
0.46561
0.465474
0.46533
0.46518
0.465022
0.464857
0.464685
0.464505
0.464318
0.464122
0.463918
0.463706
0.463485
0.463256
0.463018
0.462771
0.462515
0.462249
0.461974
0.461689
0.461394
0.461089
0.460774
0.460448
0.460112
0.459765
0.459406
0.459037
0.458656
0.458263
0.457858
0.457442
0.457013
0.456572
0.456118
0.455651
0.455172
0.454679
0.454172
0.453652
0.453119
0.452571
0.452009
0.451433
0.450842
0.450236
0.449616
0.44898
0.448329
0.447662
0.44698
0.446282
0.445568
0.444837
0.444091
0.443327
0.442547
0.44175
0.440936
0.440105
0.439257
0.438391
0.437507
0.436605
0.435686
0.434748
0.433793
0.432819
0.431826
0.430815
0.429785
0.428737
0.42767
0.426584
0.425478
0.424354
0.423211
0.422048
0.420867
0.419665
0.418445
0.417206
0.415947
0.414668
0.413371
0.412054
0.410718
0.409363
0.407988
0.406595
0.405182
0.403751
0.4023
0.400832
0.399344
0.397839
0.396315
0.394773
0.393213
0.391635
0.39004
0.388428
0.386799
0.385153
0.38349
0.381812
0.380117
0.378407
0.376681
0.37494
0.373185
0.371415
0.369631
0.367834
0.366023
0.3642
0.362363
0.360515
0.358655
0.356784
0.3549
0.352802
0.350507
0.348231
0.345973
0.343731
0.341507
0.339301
0.337114
0.334945
0.332796
0.330666
0.328556
0.326466
0.324397
0.322348
0.32032
0.318314
0.316328
0.314365
0.312423
0.310502
0.308604
0.306728
0.304874
0.303043
0.301233
0.299447
0.297683
0.295941
0.294223
0.292527
0.290854
0.289204
0.287578
0.285974
0.284393
0.282836
0.281302
0.279791
0.278303
0.276839
0.275399
0.273982
0.272588
0.271218
0.269872
0.26855
0.267251
0.265976
0.264725
0.263498
0.262295
0.261116
0.259961
0.25883
0.257724
0.256641
0.255583
0.25455
0.253541
0.252557
0.251597
0.250662
0.249752
0.248867
0.248007
0.247171
0.246362
0.245577
0.244818
0.244084
0.243376
0.242693
0.242036
0.241404
0.2408
0.24022
0.239667
0.23914
0.238639
0.238165
0.237717
0.237296
0.236902
0.236534
0.236194
0.23588
0.235594
0.235333
0.235101
0.234894
0.234716
0.234558
0.234447
0.234289
)
;
    }
    bottomWall
    {
        type            calculated;
        value           nonuniform List<scalar> 
449
(
0.139854
0.0892207
0.076112
0.0698825
0.0659453
0.0631609
0.0610884
0.0595167
0.058328
0.0575205
0.057034
0.0569402
0.0570684
0.0572858
0.0574387
0.0574962
0.0574585
0.0573568
0.057208
0.0570319
0.0568408
0.0566431
0.0564429
0.0562445
0.0560472
0.0558554
0.0556677
0.0554849
0.0553101
0.0551375
0.054974
0.054814
0.0546618
0.0545089
0.0543704
0.0542272
0.0540915
0.0539619
0.0538355
0.0537159
0.0536006
0.0534849
0.0533767
0.0532739
0.0531658
0.053068
0.052969
0.052872
0.0527811
0.0526955
0.0526104
0.0525324
0.052454
0.0523727
0.0522997
0.0522227
0.0521528
0.0520787
0.0520134
0.0519441
0.0518775
0.0518171
0.0517588
0.0516976
0.0516433
0.0515897
0.0515373
0.0514869
0.0514319
0.0513796
0.0513331
0.0512817
0.0512376
0.0511928
0.0511478
0.0511042
0.0510629
0.0510213
0.0509775
0.0509383
0.0509056
0.0508658
0.0508238
0.0507872
0.0507517
0.0507142
0.0506818
0.0506545
0.050619
0.0505854
0.0505489
0.0505169
0.0504856
0.0504588
0.0504322
0.0503991
0.0503709
0.0503429
0.0503144
0.0502875
0.0502646
0.0502385
0.0502129
0.0501857
0.0501601
0.0501397
0.0501195
0.0500989
0.0500822
0.0500659
0.0500443
0.0500255
0.0500048
0.049985
0.0499638
0.0499441
0.0499279
0.0499096
0.049889
0.0498715
0.0498518
0.0498345
0.0498173
0.0498007
0.0497871
0.0497766
0.049762
0.049746
0.049728
0.049711
0.0496979
0.0496833
0.0496686
0.049657
0.049644
0.0496307
0.0496199
0.049607
0.0495939
0.049583
0.0495703
0.049557
0.0495461
0.0495342
0.0495235
0.0495093
0.0494952
0.0494847
0.049473
0.0494609
0.0494519
0.0494422
0.049431
0.049421
0.0494082
0.049397
0.049386
0.0493764
0.0493684
0.0493589
0.0493506
0.0493415
0.0493333
0.0493268
0.0493179
0.0493091
0.0493023
0.049293
0.0492837
0.0492765
0.0492673
0.0492579
0.0492496
0.049243
0.0492339
0.0492235
0.0492146
0.049207
0.0491976
0.0491878
0.0491761
0.0491664
0.0491581
0.0491496
0.0491428
0.0491363
0.0491296
0.0491243
0.0491185
0.0491125
0.0491077
0.0491021
0.0490965
0.0490921
0.0490868
0.0490818
0.0490769
0.049072
0.0490674
0.0490624
0.0490571
0.0490524
0.0490474
0.0490425
0.0490381
0.0490333
0.0490284
0.0490241
0.0490194
0.0490147
0.0490104
0.0490055
0.0490007
0.0489966
0.0489914
0.0489865
0.0489825
0.0489774
0.0489727
0.0489684
0.0489638
0.0489597
0.0489554
0.0489512
0.0489473
0.0489432
0.0489391
0.0489354
0.0489312
0.048927
0.0489233
0.0489187
0.0489141
0.0489103
0.0489057
0.0489012
0.0488972
0.0488925
0.0488883
0.0488838
0.0488792
0.0488752
0.0488703
0.0488653
0.0488611
0.0488563
0.0488514
0.0488473
0.0488425
0.0488376
0.0488334
0.0488287
0.0488245
0.0488195
0.048815
0.04881
0.0488057
0.0488009
0.0487959
0.0487918
0.0487871
0.0487821
0.0487779
0.0487731
0.0487681
0.048764
0.0487592
0.0487542
0.0487501
0.0487454
0.0487402
0.0487361
0.0487313
0.0487271
0.0487224
0.0487183
0.0487138
0.0487091
0.0487053
0.0487013
0.048697
0.0486934
0.0486893
0.048685
0.0486814
0.0486771
0.0486726
0.0486689
0.0486646
0.04866
0.0486562
0.0486521
0.0486479
0.0486443
0.0486404
0.0486362
0.0486328
0.0486287
0.0486243
0.0486208
0.0486167
0.0486123
0.0486088
0.0486049
0.0486007
0.0485974
0.0485935
0.0485895
0.0485862
0.0485826
0.0485788
0.0485756
0.0485719
0.048568
0.0485649
0.0485614
0.0485574
0.0485542
0.0485505
0.048547
0.0485438
0.0485401
0.0485365
0.0485334
0.0485304
0.0485272
0.0485241
0.048521
0.0485181
0.0485148
0.0485114
0.0485086
0.0485057
0.0485026
0.0485001
0.0484972
0.0484944
0.0484914
0.0484883
0.0484854
0.048483
0.0484804
0.0484777
0.0484753
0.0484726
0.0484698
0.0484675
0.0484651
0.0484619
0.0484591
0.0484564
0.048454
0.0484517
0.0484482
0.0484439
0.0484405
0.0484379
0.0484352
0.0484327
0.0484305
0.0484284
0.0484264
0.0484243
0.0484224
0.0484204
0.0484185
0.0484156
0.0484133
0.0484115
0.0484096
0.0484079
0.0484055
0.0484032
0.0484015
0.0483994
0.0483973
0.0483953
0.0483937
0.0483921
0.0483901
0.0483881
0.0483863
0.0483849
0.0483836
0.0483824
0.0483811
0.0483798
0.0483785
0.048376
0.0483745
0.0483734
0.0483716
0.0483705
0.0483696
0.0483676
0.0483665
0.0483654
0.048363
0.0483622
0.048362
0.0483596
0.048359
0.0483591
0.0483586
0.0483583
0.0483581
0.0483577
0.0483557
0.0483552
0.0483551
0.0483548
0.0483544
0.0483542
0.0483539
0.0483514
0.0483513
0.0483518
0.0483512
0.0483508
0.0483491
0.0483492
0.0483494
0.0483494
0.0483492
0.0483476
0.0483479
0.0483483
0.0483463
0.0483464
0.048347
0.0483446
0.0483441
0.0483449
0.048344
0.0483437
0.0483447
0.048345
0.0483449
0.0483447
0.0483436
0.0483435
0.048344
0.048344
0.048344
0.0483424
0.0483428
0.0483435
0.0483436
0.0483416
)
;
    }
    symmetry
    {
        type            symmetryPlane;
    }
    frontAndBack
    {
        type            empty;
    }
}


// ************************************************************************* //
