/*--------------------------------*- C++ -*----------------------------------*\
| =========                 |                                                 |
| \\      /  F ield         | OpenFOAM: The Open Source CFD Toolbox           |
|  \\    /   O peration     | Version:  v2012                                 |
|   \\  /    A nd           | Website:  www.openfoam.com                      |
|    \\/     M anipulation  |                                                 |
\*---------------------------------------------------------------------------*/
FoamFile
{
    version     2.0;
    format      ascii;
    class       volScalarField;
    location    "34";
    object      k;
}
// * * * * * * * * * * * * * * * * * * * * * * * * * * * * * * * * * * * * * //

dimensions      [0 2 -2 0 0 0 0];


internalField   nonuniform List<scalar> 
209825
(
0.0010237
0.000929945
0.000856593
0.00080132
0.000760101
0.000729038
0.00070522
0.00068656
0.000671692
0.00065962
0.000649702
0.000641428
0.000634471
0.000628547
0.000623475
0.000619089
0.000615277
0.000611941
0.000609004
0.000606409
0.0006041
0.000602048
0.0006002
0.00059855
0.00059705
0.000595711
0.000594475
0.000593373
0.000592345
0.000591434
0.000590573
0.000589807
0.000589083
0.000588445
0.000587827
0.000587283
0.000586753
0.000586299
0.000585846
0.000585457
0.000585068
0.000584746
0.00058441
0.000584125
0.000583844
0.000583606
0.000583353
0.000583147
0.000582929
0.000582758
0.000582586
0.000582448
0.000582291
0.000582169
0.000582051
0.000581938
0.000581832
0.000581751
0.000581638
0.000581579
0.000581487
0.000581439
0.000581347
0.0005813
0.000581183
0.000581205
0.000581233
0.000581233
0.00058123
0.00058128
0.00058128
0.00058136
0.000581372
0.000581464
0.000581506
0.000581618
0.000581659
0.00058177
0.000581823
0.000581948
0.00058201
0.000582147
0.000582217
0.000582372
0.000582455
0.000582633
0.000582725
0.000582929
0.000583028
0.000583274
0.000583375
0.00058367
0.000583913
0.000593444
0.000625705
0.00155442
0.0010237
0.000929945
0.000856592
0.000801318
0.000760097
0.000729032
0.000705213
0.000686552
0.000671682
0.00065961
0.00064969
0.000641416
0.000634458
0.000628534
0.000623461
0.000619074
0.000615262
0.000611926
0.000608988
0.000606394
0.000604084
0.000602032
0.000600184
0.000598534
0.000597034
0.000595694
0.000594459
0.000593356
0.000592328
0.000591417
0.000590556
0.00058979
0.000589065
0.000588428
0.000587809
0.000587266
0.000586735
0.000586281
0.000585827
0.000585439
0.00058505
0.000584728
0.000584391
0.000584107
0.000583826
0.000583588
0.000583335
0.000583128
0.00058291
0.00058274
0.000582567
0.000582429
0.000582272
0.00058215
0.000582032
0.000581919
0.000581813
0.000581732
0.000581619
0.000581561
0.000581468
0.000581421
0.000581328
0.000581281
0.000581164
0.000581187
0.000581214
0.000581214
0.000581211
0.000581261
0.000581261
0.000581341
0.000581353
0.000581445
0.000581487
0.000581598
0.00058164
0.00058175
0.000581804
0.000581929
0.000581991
0.000582128
0.000582198
0.000582353
0.000582436
0.000582614
0.000582706
0.000582909
0.000583009
0.000583254
0.000583356
0.000583651
0.000583894
0.000593442
0.000625695
0.00155532
0.0010237
0.000929946
0.00085659
0.000801309
0.00076008
0.000729008
0.000705183
0.000686517
0.000671642
0.000659566
0.000649643
0.000641366
0.000634405
0.000628479
0.000623405
0.000619016
0.000615203
0.000611866
0.000608926
0.000606331
0.00060402
0.000601968
0.000600118
0.000598468
0.000596967
0.000595627
0.000594391
0.000593288
0.000592259
0.000591348
0.000590486
0.00058972
0.000588995
0.000588357
0.000587738
0.000587195
0.000586664
0.000586209
0.000585756
0.000585368
0.000584978
0.000584656
0.000584319
0.000584034
0.000583753
0.000583515
0.000583262
0.000583055
0.000582837
0.000582667
0.000582494
0.000582356
0.000582199
0.000582077
0.000581959
0.000581845
0.000581739
0.000581658
0.000581545
0.000581487
0.000581394
0.000581346
0.000581254
0.000581207
0.00058109
0.000581112
0.00058114
0.00058114
0.000581136
0.000581186
0.000581186
0.000581266
0.000581278
0.000581369
0.000581412
0.000581523
0.000581565
0.000581675
0.000581728
0.000581853
0.000581915
0.000582052
0.000582122
0.000582277
0.000582359
0.000582538
0.00058263
0.000582833
0.000582932
0.000583178
0.000583279
0.000583574
0.000583817
0.000593401
0.000625635
0.0015571
0.0010237
0.000929949
0.000856586
0.000801293
0.000760052
0.000728968
0.000705132
0.000686457
0.000671575
0.000659492
0.000649564
0.000641282
0.000634317
0.000628388
0.00062331
0.000618919
0.000615103
0.000611764
0.000608822
0.000606225
0.000603913
0.000601859
0.000600009
0.000598357
0.000596855
0.000595514
0.000594277
0.000593174
0.000592144
0.000591232
0.00059037
0.000589603
0.000588878
0.000588239
0.00058762
0.000587076
0.000586544
0.00058609
0.000585636
0.000585247
0.000584857
0.000584535
0.000584198
0.000583913
0.000583632
0.000583393
0.00058314
0.000582933
0.000582715
0.000582544
0.000582371
0.000582233
0.000582076
0.000581953
0.000581835
0.000581721
0.000581615
0.000581534
0.000581421
0.000581362
0.000581269
0.000581222
0.000581129
0.000581082
0.000580965
0.000580987
0.000581014
0.000581014
0.000581011
0.000581061
0.00058106
0.00058114
0.000581152
0.000581243
0.000581285
0.000581396
0.000581438
0.000581548
0.000581601
0.000581726
0.000581788
0.000581925
0.000581995
0.000582149
0.000582232
0.00058241
0.000582502
0.000582705
0.000582804
0.000583049
0.00058315
0.000583445
0.000583689
0.000593329
0.000625531
0.00155918
0.0010237
0.000929952
0.00085658
0.000801271
0.000760012
0.000728911
0.00070506
0.000686372
0.000671479
0.000659387
0.000649451
0.000641163
0.000634193
0.000628258
0.000623176
0.000618781
0.000614962
0.00061162
0.000608676
0.000606076
0.000603762
0.000601706
0.000599854
0.000598201
0.000596698
0.000595356
0.000594117
0.000593012
0.000591982
0.000591069
0.000590206
0.000589438
0.000588712
0.000588073
0.000587453
0.000586908
0.000586376
0.000585921
0.000585467
0.000585078
0.000584687
0.000584364
0.000584027
0.000583742
0.00058346
0.000583221
0.000582968
0.000582761
0.000582542
0.000582371
0.000582198
0.000582059
0.000581902
0.000581779
0.000581661
0.000581547
0.000581441
0.000581359
0.000581246
0.000581187
0.000581094
0.000581047
0.000580954
0.000580907
0.00058079
0.000580811
0.000580838
0.000580838
0.000580834
0.000580883
0.000580883
0.000580962
0.000580974
0.000581065
0.000581107
0.000581218
0.000581259
0.000581369
0.000581422
0.000581547
0.000581609
0.000581746
0.000581815
0.000581969
0.000582052
0.00058223
0.000582321
0.000582524
0.000582623
0.000582868
0.000582969
0.000583264
0.000583508
0.000593225
0.000625383
0.00156152
0.0010237
0.000929955
0.000856572
0.000801242
0.00075996
0.000728837
0.000704967
0.000686263
0.000671356
0.000659252
0.000649306
0.000641009
0.000634031
0.00062809
0.000623003
0.000618603
0.000614779
0.000611433
0.000608486
0.000605883
0.000603566
0.000601508
0.000599654
0.000597998
0.000596493
0.000595149
0.000593909
0.000592803
0.000591772
0.000590857
0.000589993
0.000589225
0.000588498
0.000587858
0.000587236
0.000586691
0.000586158
0.000585702
0.000585248
0.000584858
0.000584467
0.000584143
0.000583806
0.00058352
0.000583238
0.000582998
0.000582744
0.000582537
0.000582318
0.000582147
0.000581973
0.000581834
0.000581677
0.000581554
0.000581435
0.000581321
0.000581214
0.000581133
0.00058102
0.00058096
0.000580867
0.00058082
0.000580726
0.000580679
0.000580562
0.000580582
0.000580609
0.000580609
0.000580605
0.000580653
0.000580653
0.000580732
0.000580744
0.000580834
0.000580876
0.000580987
0.000581028
0.000581138
0.00058119
0.000581315
0.000581377
0.000581513
0.000581582
0.000581736
0.000581819
0.000581996
0.000582087
0.00058229
0.000582389
0.000582634
0.000582734
0.000583028
0.000583274
0.00059309
0.000625191
0.00156407
0.00102371
0.00092996
0.000856562
0.000801207
0.000759896
0.000728746
0.000704852
0.000686128
0.000671204
0.000659085
0.000649127
0.000640819
0.000633832
0.000627884
0.000622789
0.000618383
0.000614554
0.000611203
0.000608252
0.000605646
0.000603325
0.000601264
0.000599406
0.000597749
0.000596241
0.000594895
0.000593654
0.000592546
0.000591512
0.000590596
0.000589731
0.000588961
0.000588233
0.000587592
0.00058697
0.000586423
0.00058589
0.000585433
0.000584977
0.000584587
0.000584195
0.000583871
0.000583532
0.000583246
0.000582963
0.000582724
0.000582469
0.000582261
0.000582042
0.00058187
0.000581696
0.000581557
0.000581399
0.000581276
0.000581156
0.000581042
0.000580935
0.000580853
0.00058074
0.000580681
0.000580587
0.000580539
0.000580446
0.000580399
0.000580281
0.000580301
0.000580326
0.000580326
0.000580322
0.00058037
0.00058037
0.000580448
0.000580459
0.00058055
0.000580591
0.000580702
0.000580742
0.000580852
0.000580904
0.000581029
0.00058109
0.000581226
0.000581295
0.000581449
0.000581531
0.000581708
0.000581799
0.000582001
0.0005821
0.000582344
0.000582444
0.000582738
0.000582985
0.000592925
0.000624956
0.00156671
0.00102371
0.000929966
0.000856551
0.000801166
0.000759821
0.000728638
0.000704716
0.000685967
0.000671023
0.000658887
0.000648914
0.000640593
0.000633595
0.000627637
0.000622535
0.000618121
0.000614286
0.000610929
0.000607973
0.000605362
0.000603037
0.000600972
0.000599112
0.000597451
0.000595941
0.000594593
0.000593348
0.000592238
0.000591203
0.000590285
0.000589418
0.000588647
0.000587917
0.000587275
0.000586651
0.000586104
0.000585569
0.000585112
0.000584655
0.000584264
0.000583871
0.000583546
0.000583207
0.00058292
0.000582636
0.000582396
0.000582141
0.000581933
0.000581713
0.00058154
0.000581365
0.000581226
0.000581067
0.000580944
0.000580824
0.00058071
0.000580602
0.00058052
0.000580407
0.000580347
0.000580253
0.000580205
0.000580111
0.000580064
0.000579946
0.000579965
0.000579989
0.000579989
0.000579985
0.000580031
0.000580032
0.000580109
0.00058012
0.00058021
0.000580251
0.000580361
0.000580402
0.000580511
0.000580563
0.000580687
0.000580748
0.000580884
0.000580953
0.000581106
0.000581188
0.000581364
0.000581455
0.000581657
0.000581755
0.000581999
0.000582098
0.000582392
0.00058264
0.000592731
0.000624676
0.00156925
0.00102371
0.000929973
0.000856538
0.000801117
0.000759733
0.000728513
0.000704557
0.00068578
0.000670812
0.000658656
0.000648666
0.00064033
0.00063332
0.00062735
0.000622238
0.000617816
0.000613974
0.00061061
0.000607648
0.000605032
0.000602702
0.000600633
0.000598769
0.000597104
0.000595591
0.00059424
0.000592993
0.000591881
0.000590843
0.000589923
0.000589054
0.000588281
0.00058755
0.000586906
0.000586281
0.000585732
0.000585196
0.000584737
0.000584279
0.000583887
0.000583493
0.000583167
0.000582827
0.00058254
0.000582255
0.000582014
0.000581759
0.00058155
0.000581329
0.000581156
0.00058098
0.00058084
0.000580681
0.000580557
0.000580437
0.000580323
0.000580214
0.000580132
0.000580018
0.000579958
0.000579863
0.000579815
0.000579722
0.000579674
0.000579556
0.000579573
0.000579597
0.000579597
0.000579592
0.000579638
0.000579638
0.000579715
0.000579725
0.000579815
0.000579856
0.000579965
0.000580005
0.000580114
0.000580166
0.000580289
0.00058035
0.000580485
0.000580554
0.000580706
0.000580788
0.000580964
0.000581054
0.000581255
0.000581353
0.000581596
0.000581695
0.000581988
0.000582238
0.000592506
0.000624351
0.0015714
0.00102372
0.00092998
0.000856524
0.000801063
0.000759633
0.00072837
0.000704377
0.000685567
0.000670572
0.000658392
0.000648382
0.00064003
0.000633005
0.000627023
0.000621899
0.000617468
0.000613616
0.000610246
0.000607276
0.000604654
0.000602319
0.000600245
0.000598376
0.000596708
0.000595191
0.000593836
0.000592586
0.000591471
0.000590431
0.000589509
0.000588638
0.000587863
0.000587129
0.000586483
0.000585857
0.000585307
0.000584769
0.000584309
0.00058385
0.000583456
0.000583061
0.000582734
0.000582393
0.000582105
0.000581819
0.000581578
0.000581321
0.000581111
0.00058089
0.000580716
0.00058054
0.000580399
0.00058024
0.000580115
0.000579994
0.000579879
0.00057977
0.000579688
0.000579573
0.000579513
0.000579418
0.00057937
0.000579276
0.000579228
0.00057911
0.000579125
0.000579148
0.000579148
0.000579142
0.000579187
0.000579187
0.000579263
0.000579273
0.000579363
0.000579403
0.000579512
0.000579551
0.00057966
0.000579711
0.000579834
0.000579895
0.000580029
0.000580097
0.000580249
0.00058033
0.000580506
0.000580596
0.000580796
0.000580894
0.000581136
0.000581234
0.000581527
0.000581779
0.000592252
0.000623981
0.00157275
0.00102372
0.000929989
0.000856508
0.000801002
0.000759521
0.00072821
0.000704174
0.000685328
0.000670301
0.000658096
0.000648063
0.000639691
0.00063265
0.000626653
0.000621518
0.000617075
0.000613214
0.000609834
0.000606858
0.000604229
0.000601887
0.000599808
0.000597934
0.000596261
0.00059474
0.000593381
0.000592128
0.00059101
0.000589966
0.000589041
0.000588168
0.00058739
0.000586655
0.000586007
0.000585378
0.000584827
0.000584287
0.000583825
0.000583365
0.00058297
0.000582574
0.000582246
0.000581904
0.000581614
0.000581327
0.000581085
0.000580827
0.000580617
0.000580395
0.00058022
0.000580043
0.000579902
0.000579741
0.000579616
0.000579495
0.000579379
0.000579269
0.000579187
0.000579072
0.000579011
0.000578915
0.000578867
0.000578773
0.000578724
0.000578606
0.00057862
0.000578642
0.000578641
0.000578635
0.000578678
0.000578678
0.000578754
0.000578763
0.000578852
0.000578891
0.000579
0.000579039
0.000579147
0.000579198
0.00057932
0.00057938
0.000579514
0.000579582
0.000579733
0.000579814
0.000579989
0.000580078
0.000580278
0.000580375
0.000580617
0.000580714
0.000581006
0.000581261
0.000591969
0.000623565
0.00157274
0.00102373
0.000929999
0.00085649
0.000800934
0.000759397
0.000728032
0.000703948
0.000685061
0.00067
0.000657765
0.000647708
0.000639314
0.000632254
0.000626242
0.000621092
0.000616637
0.000612765
0.000609376
0.000606391
0.000603754
0.000601406
0.00059932
0.00059744
0.000595762
0.000594236
0.000592874
0.000591616
0.000590494
0.000589448
0.00058852
0.000587643
0.000586863
0.000586125
0.000585475
0.000584845
0.000584291
0.00058375
0.000583286
0.000582824
0.000582428
0.00058203
0.0005817
0.000581357
0.000581066
0.000580778
0.000580535
0.000580276
0.000580065
0.000579842
0.000579666
0.000579488
0.000579346
0.000579185
0.000579059
0.000578937
0.000578821
0.00057871
0.000578627
0.000578512
0.00057845
0.000578354
0.000578306
0.000578211
0.000578162
0.000578044
0.000578056
0.000578076
0.000578076
0.000578069
0.000578111
0.000578111
0.000578185
0.000578194
0.000578282
0.000578321
0.000578429
0.000578467
0.000578575
0.000578625
0.000578747
0.000578807
0.00057894
0.000579007
0.000579158
0.000579238
0.000579412
0.000579501
0.0005797
0.000579796
0.000580037
0.000580133
0.000580424
0.000580683
0.000591657
0.000623104
0.00157086
0.00102373
0.000930009
0.000856471
0.00080086
0.00075926
0.000727836
0.0007037
0.000684768
0.000669668
0.000657401
0.000647315
0.000638898
0.000631818
0.000625787
0.000620622
0.000616153
0.000612269
0.000608869
0.000605874
0.000603229
0.000600873
0.000598781
0.000596895
0.000595211
0.00059368
0.000592313
0.000591051
0.000589925
0.000588875
0.000587943
0.000587064
0.000586281
0.00058554
0.000584888
0.000584255
0.000583699
0.000583156
0.00058269
0.000582226
0.000581828
0.000581428
0.000581098
0.000580753
0.00058046
0.000580171
0.000579927
0.000579667
0.000579455
0.00057923
0.000579054
0.000578875
0.000578732
0.00057857
0.000578443
0.00057832
0.000578204
0.000578092
0.000578009
0.000577893
0.000577831
0.000577734
0.000577685
0.00057759
0.000577541
0.000577423
0.000577432
0.000577451
0.000577451
0.000577443
0.000577483
0.000577483
0.000577557
0.000577565
0.000577652
0.00057769
0.000577797
0.000577835
0.000577942
0.000577992
0.000578113
0.000578172
0.000578305
0.000578371
0.000578521
0.000578601
0.000578773
0.000578862
0.00057906
0.000579156
0.000579396
0.000579491
0.000579781
0.000580044
0.000591316
0.000622594
0.00156712
0.00102374
0.000930021
0.00085645
0.000800779
0.000759112
0.000727622
0.000703428
0.000684447
0.000669305
0.000657002
0.000646886
0.000638443
0.000631339
0.000625289
0.000620107
0.000615623
0.000611726
0.000608314
0.000605309
0.000602654
0.00060029
0.000598189
0.000596297
0.000594606
0.00059307
0.000591697
0.000590431
0.0005893
0.000588246
0.000587311
0.000586428
0.000585642
0.000584898
0.000584243
0.000583607
0.000583049
0.000582504
0.000582036
0.00058157
0.00058117
0.000580769
0.000580436
0.00058009
0.000579796
0.000579505
0.00057926
0.000578999
0.000578785
0.00057856
0.000578382
0.000578202
0.000578058
0.000577895
0.000577767
0.000577643
0.000577527
0.000577414
0.00057733
0.000577213
0.00057715
0.000577053
0.000577004
0.000576908
0.000576859
0.000576741
0.000576747
0.000576765
0.000576765
0.000576756
0.000576794
0.000576794
0.000576867
0.000576874
0.000576961
0.000576997
0.000577104
0.000577141
0.000577247
0.000577296
0.000577417
0.000577475
0.000577607
0.000577674
0.000577822
0.000577901
0.000578073
0.000578161
0.000578358
0.000578453
0.000578692
0.000578787
0.000579076
0.000579343
0.000590946
0.000622037
0.00156155
0.00102375
0.000930034
0.000856428
0.000800692
0.000758951
0.00072739
0.000703134
0.000684098
0.000668911
0.000656568
0.000646419
0.000637947
0.000630819
0.000624747
0.000619546
0.000615046
0.000611134
0.000607709
0.000604692
0.000602027
0.000599654
0.000597545
0.000595645
0.000593948
0.000592405
0.000591026
0.000589755
0.00058862
0.000587561
0.000586622
0.000585735
0.000584945
0.000584198
0.00058354
0.000582902
0.000582341
0.000581793
0.000581323
0.000580854
0.000580453
0.000580049
0.000579715
0.000579367
0.000579072
0.000578779
0.000578532
0.00057827
0.000578055
0.000577828
0.000577649
0.000577468
0.000577323
0.000577159
0.000577031
0.000576905
0.000576788
0.000576674
0.00057659
0.000576472
0.000576409
0.000576311
0.000576261
0.000576165
0.000576115
0.000575997
0.000576001
0.000576017
0.000576017
0.000576007
0.000576043
0.000576043
0.000576114
0.00057612
0.000576207
0.000576242
0.000576348
0.000576385
0.00057649
0.000576538
0.000576658
0.000576716
0.000576847
0.000576913
0.00057706
0.000577139
0.000577309
0.000577397
0.000577593
0.000577687
0.000577925
0.000578018
0.000578306
0.000578579
0.000590545
0.000621429
0.00155417
0.00102375
0.000930048
0.000856405
0.000800599
0.000758778
0.00072714
0.000702816
0.000683722
0.000668484
0.000656099
0.000645914
0.00063741
0.000630256
0.000624161
0.000618939
0.000614421
0.000610493
0.000607054
0.000604025
0.000601349
0.000598965
0.000596847
0.000594939
0.000593234
0.000591684
0.0005903
0.000589022
0.000587882
0.000586818
0.000585875
0.000584984
0.00058419
0.00058344
0.000582778
0.000582137
0.000581573
0.000581022
0.00058055
0.000580079
0.000579675
0.000579269
0.000578933
0.000578583
0.000578286
0.000577992
0.000577743
0.00057748
0.000577264
0.000577035
0.000576855
0.000576672
0.000576526
0.000576361
0.000576232
0.000576105
0.000575987
0.000575872
0.000575787
0.000575669
0.000575605
0.000575506
0.000575455
0.000575359
0.000575309
0.000575191
0.000575191
0.000575206
0.000575206
0.000575194
0.000575229
0.000575228
0.000575298
0.000575304
0.000575389
0.000575424
0.000575528
0.000575564
0.000575669
0.000575716
0.000575835
0.000575892
0.000576022
0.000576087
0.000576234
0.000576312
0.000576481
0.000576568
0.000576763
0.000576856
0.000577093
0.000577185
0.000577472
0.000577751
0.000590115
0.000620771
0.00154504
0.00102376
0.000930063
0.00085638
0.0008005
0.000758593
0.000726872
0.000702475
0.000683317
0.000668026
0.000655595
0.00064537
0.000636833
0.000629649
0.000623529
0.000618285
0.000613747
0.000609803
0.000606349
0.000603306
0.000600617
0.000598222
0.000596095
0.000594177
0.000592465
0.000590907
0.000589516
0.000588232
0.000587086
0.000586018
0.000585069
0.000584174
0.000583376
0.000582621
0.000581956
0.000581311
0.000580745
0.000580191
0.000579716
0.000579242
0.000578836
0.000578428
0.000578089
0.000577738
0.000577439
0.000577143
0.000576892
0.000576627
0.00057641
0.00057618
0.000575998
0.000575813
0.000575666
0.000575501
0.00057537
0.000575242
0.000575123
0.000575007
0.000574921
0.000574802
0.000574737
0.000574637
0.000574586
0.000574489
0.000574439
0.000574321
0.000574318
0.000574331
0.000574331
0.000574318
0.00057435
0.00057435
0.000574418
0.000574423
0.000574507
0.00057454
0.000574644
0.000574679
0.000574782
0.000574829
0.000574947
0.000575004
0.000575133
0.000575197
0.000575342
0.000575419
0.000575588
0.000575674
0.000575867
0.00057596
0.000576195
0.000576286
0.000576572
0.000576857
0.000589652
0.000620058
0.00153419
0.00102377
0.000930079
0.000856354
0.000800395
0.000758395
0.000726587
0.00070211
0.000682884
0.000667535
0.000655054
0.000644788
0.000636214
0.000628999
0.000622851
0.000617584
0.000613025
0.000609062
0.000605591
0.000602534
0.000599832
0.000597425
0.000595287
0.00059336
0.000591639
0.000590073
0.000588675
0.000587384
0.000586232
0.000585158
0.000584204
0.000583304
0.000582502
0.000581743
0.000581074
0.000580425
0.000579855
0.000579298
0.00057882
0.000578344
0.000577935
0.000577524
0.000577183
0.000576829
0.000576528
0.00057623
0.000575978
0.000575711
0.000575492
0.000575261
0.000575078
0.000574891
0.000574743
0.000574576
0.000574443
0.000574314
0.000574195
0.000574077
0.000573991
0.00057387
0.000573805
0.000573704
0.000573652
0.000573554
0.000573504
0.000573386
0.000573379
0.000573391
0.00057339
0.000573376
0.000573407
0.000573406
0.000573472
0.000573476
0.000573559
0.000573591
0.000573694
0.000573728
0.00057383
0.000573876
0.000573993
0.000574049
0.000574177
0.00057424
0.000574384
0.000574461
0.000574627
0.000574713
0.000574905
0.000574996
0.00057523
0.00057532
0.000575605
0.000575897
0.000589158
0.00061929
0.00152168
0.00102378
0.000930097
0.000856328
0.000800283
0.000758186
0.000726283
0.000701722
0.000682424
0.000667012
0.000654478
0.000644166
0.000635554
0.000628305
0.000622128
0.000616835
0.000612253
0.00060827
0.000604782
0.000601708
0.000598992
0.000596573
0.000594423
0.000592486
0.000590755
0.000589181
0.000587774
0.000586477
0.000585318
0.000584238
0.000583278
0.000582373
0.000581566
0.000580802
0.000580129
0.000579477
0.000578903
0.000578343
0.000577861
0.000577382
0.000576971
0.000576557
0.000576214
0.000575857
0.000575554
0.000575254
0.000575
0.000574731
0.00057451
0.000574277
0.000574092
0.000573904
0.000573754
0.000573586
0.000573452
0.000573321
0.000573201
0.000573082
0.000572995
0.000572873
0.000572807
0.000572705
0.000572653
0.000572554
0.000572503
0.000572386
0.000572375
0.000572386
0.000572384
0.000572368
0.000572397
0.000572395
0.000572459
0.000572462
0.000572544
0.000572575
0.000572676
0.000572709
0.000572811
0.000572856
0.000572971
0.000573027
0.000573153
0.000573216
0.000573359
0.000573434
0.0005736
0.000573684
0.000573874
0.000573965
0.000574197
0.000574286
0.000574569
0.00057487
0.000588629
0.000618463
0.00150756
0.00102378
0.000930116
0.0008563
0.000800166
0.000757965
0.000725961
0.000701311
0.000681934
0.000666457
0.000653866
0.000643505
0.000634851
0.000627566
0.000621358
0.000616037
0.000611431
0.000607427
0.000603919
0.000600829
0.000598098
0.000595665
0.000593503
0.000591554
0.000589813
0.00058823
0.000586815
0.00058551
0.000584344
0.000583257
0.000582291
0.00058138
0.000580568
0.0005798
0.000579122
0.000578466
0.000577888
0.000577324
0.000576839
0.000576357
0.000575942
0.000575526
0.000575179
0.000574821
0.000574515
0.000574212
0.000573956
0.000573685
0.000573463
0.000573228
0.000573041
0.000572851
0.0005727
0.00057253
0.000572395
0.000572262
0.000572141
0.00057202
0.000571933
0.00057181
0.000571742
0.000571639
0.000571586
0.000571487
0.000571435
0.000571318
0.000571304
0.000571313
0.000571311
0.000571293
0.000571319
0.000571317
0.000571379
0.000571381
0.000571462
0.000571491
0.000571591
0.000571623
0.000571724
0.000571768
0.000571882
0.000571936
0.000572062
0.000572123
0.000572265
0.000572339
0.000572503
0.000572587
0.000572775
0.000572865
0.000573096
0.000573182
0.000573465
0.000573774
0.000588063
0.000617574
0.00149192
0.00102379
0.000930135
0.000856271
0.000800043
0.000757733
0.000725622
0.000700876
0.000681417
0.000665869
0.000653217
0.000642805
0.000634106
0.000626783
0.00062054
0.00061519
0.000610559
0.000606531
0.000603004
0.000599895
0.000597148
0.000594701
0.000592525
0.000590564
0.000588813
0.000587219
0.000585795
0.000584482
0.000583309
0.000582214
0.000581242
0.000580325
0.000579508
0.000578734
0.000578051
0.00057739
0.000576809
0.000576241
0.000575752
0.000575266
0.000574849
0.000574429
0.00057408
0.000573718
0.00057341
0.000573105
0.000572847
0.000572573
0.000572349
0.000572112
0.000571923
0.000571731
0.000571578
0.000571407
0.00057127
0.000571136
0.000571014
0.000570891
0.000570803
0.000570679
0.00057061
0.000570506
0.000570452
0.000570352
0.0005703
0.000570183
0.000570166
0.000570172
0.000570169
0.00057015
0.000570174
0.00057017
0.00057023
0.000570231
0.000570311
0.000570339
0.000570437
0.000570468
0.000570567
0.00057061
0.000570723
0.000570776
0.0005709
0.000570961
0.000571101
0.000571175
0.000571337
0.00057142
0.000571606
0.000571695
0.000571924
0.000572009
0.00057229
0.000572609
0.000587459
0.000616618
0.00147483
0.0010238
0.000930156
0.000856242
0.000799915
0.000757489
0.000725265
0.000700418
0.000680871
0.000665248
0.000652532
0.000642064
0.000633318
0.000625954
0.000619675
0.000614294
0.000609635
0.000605583
0.000602034
0.000598906
0.000596142
0.000593679
0.000591489
0.000589516
0.000587752
0.000586149
0.000584715
0.000583393
0.000582211
0.000581109
0.00058013
0.000579207
0.000578384
0.000577604
0.000576917
0.000576251
0.000575665
0.000575092
0.0005746
0.00057411
0.000573689
0.000573266
0.000572914
0.00057255
0.000572239
0.00057193
0.00057167
0.000571394
0.000571168
0.000570929
0.000570738
0.000570544
0.000570389
0.000570216
0.000570077
0.000569942
0.000569819
0.000569694
0.000569604
0.000569479
0.000569409
0.000569304
0.000569249
0.000569148
0.000569095
0.000568978
0.000568958
0.000568962
0.000568958
0.000568938
0.000568959
0.000568955
0.000569011
0.000569012
0.00056909
0.000569116
0.000569213
0.000569242
0.000569341
0.000569382
0.000569494
0.000569546
0.000569669
0.000569729
0.000569867
0.000569939
0.0005701
0.000570182
0.000570367
0.000570454
0.000570682
0.000570765
0.000571044
0.000571373
0.000586813
0.00061559
0.00145635
0.00102381
0.000930179
0.000856212
0.000799782
0.000757234
0.000724891
0.000699937
0.000680297
0.000664594
0.00065181
0.000641284
0.000632487
0.000625079
0.000618763
0.000613348
0.00060866
0.000604582
0.00060101
0.000597862
0.000595079
0.000592599
0.000590394
0.000588408
0.000586632
0.000585017
0.000583573
0.000582241
0.000581051
0.000579941
0.000578955
0.000578025
0.000577195
0.000576409
0.000575716
0.000575046
0.000574455
0.000573878
0.000573381
0.000572888
0.000572463
0.000572036
0.000571681
0.000571313
0.000571
0.000570688
0.000570426
0.000570147
0.000569919
0.000569677
0.000569484
0.000569287
0.000569131
0.000568956
0.000568816
0.000568678
0.000568554
0.000568427
0.000568337
0.00056821
0.000568139
0.000568032
0.000567976
0.000567874
0.000567821
0.000567704
0.000567681
0.000567682
0.000567678
0.000567655
0.000567674
0.000567668
0.000567722
0.000567722
0.000567799
0.000567823
0.000567918
0.000567946
0.000568043
0.000568083
0.000568193
0.000568244
0.000568366
0.000568425
0.000568561
0.000568632
0.000568791
0.000568872
0.000569055
0.000569142
0.000569367
0.000569448
0.000569725
0.000570066
0.000586117
0.000614489
0.00143659
0.00102382
0.000930202
0.000856181
0.000799643
0.000756968
0.000724499
0.000699433
0.000679694
0.000663907
0.000651051
0.000640463
0.000631613
0.000624159
0.000617802
0.000612352
0.000607633
0.000603528
0.000599931
0.000596761
0.000593958
0.000591461
0.00058924
0.000587239
0.00058545
0.000583823
0.000582368
0.000581027
0.000579827
0.000578709
0.000577715
0.000576777
0.000575941
0.000575149
0.00057445
0.000573774
0.000573179
0.000572597
0.000572096
0.000571598
0.000571169
0.000570739
0.000570379
0.000570009
0.000569692
0.000569377
0.000569112
0.000568831
0.0005686
0.000568356
0.000568161
0.000567962
0.000567803
0.000567626
0.000567484
0.000567344
0.000567219
0.00056709
0.000566999
0.000566871
0.000566798
0.00056669
0.000566633
0.00056653
0.000566476
0.000566359
0.000566333
0.000566332
0.000566326
0.000566301
0.000566318
0.000566311
0.000566361
0.000566361
0.000566436
0.000566457
0.000566551
0.000566578
0.000566674
0.000566712
0.000566821
0.000566871
0.00056699
0.000567048
0.000567182
0.000567253
0.00056741
0.000567489
0.00056767
0.000567756
0.000567979
0.000568058
0.000568334
0.000568687
0.000585365
0.000613311
0.00141562
0.00102383
0.000930227
0.00085615
0.000799499
0.00075669
0.000724091
0.000698906
0.000679064
0.000663188
0.000650255
0.000639602
0.000630695
0.000623192
0.000616793
0.000611306
0.000606553
0.000602419
0.000598796
0.000595603
0.00059278
0.000590264
0.000588026
0.00058601
0.000584207
0.000582567
0.000581101
0.000579749
0.00057854
0.000577412
0.00057641
0.000575465
0.000574621
0.000573822
0.000573118
0.000572435
0.000571835
0.000571248
0.000570742
0.000570239
0.000569807
0.000569372
0.000569009
0.000568635
0.000568315
0.000567997
0.000567729
0.000567445
0.000567212
0.000566965
0.000566768
0.000566566
0.000566405
0.000566226
0.000566082
0.00056594
0.000565813
0.000565683
0.00056559
0.00056546
0.000565386
0.000565276
0.000565218
0.000565114
0.00056506
0.000564942
0.000564913
0.000564909
0.000564902
0.000564876
0.000564889
0.000564881
0.000564927
0.000564927
0.000565
0.00056502
0.000565112
0.000565137
0.000565231
0.000565268
0.000565375
0.000565424
0.000565542
0.000565598
0.000565731
0.0005658
0.000565955
0.000566033
0.000566212
0.000566296
0.000566517
0.000566595
0.000566868
0.000567234
0.000584546
0.000612053
0.00139354
0.00102384
0.000930253
0.000856119
0.000799351
0.000756403
0.000723666
0.000698356
0.000678405
0.000662436
0.000649423
0.000638701
0.000629734
0.00062218
0.000615735
0.000610209
0.000605421
0.000601256
0.000597606
0.000594388
0.000591543
0.000589007
0.000586752
0.000584719
0.000582902
0.000581249
0.00057977
0.000578406
0.000577187
0.00057605
0.000575039
0.000574085
0.000573235
0.000572429
0.000571717
0.000571029
0.000570423
0.00056983
0.000569319
0.000568812
0.000568375
0.000567936
0.000567569
0.000567192
0.000566868
0.000566547
0.000566276
0.000565989
0.000565753
0.000565503
0.000565303
0.000565098
0.000564935
0.000564754
0.000564608
0.000564464
0.000564336
0.000564203