/*--------------------------------*- C++ -*----------------------------------*\
| =========                 |                                                 |
| \\      /  F ield         | OpenFOAM: The Open Source CFD Toolbox           |
|  \\    /   O peration     | Version:  v2012                                 |
|   \\  /    A nd           | Website:  www.openfoam.com                      |
|    \\/     M anipulation  |                                                 |
\*---------------------------------------------------------------------------*/
FoamFile
{
    version     2.0;
    format      ascii;
    class       volScalarField;
    location    "34";
    object      nut;
}
// * * * * * * * * * * * * * * * * * * * * * * * * * * * * * * * * * * * * * //

dimensions      [0 2 -1 0 0 0 0];


internalField   nonuniform List<scalar> 
209825
(
1.23924e-07
1.22941e-07
1.2234e-07
1.221e-07
1.2211e-07
1.22244e-07
1.22447e-07
1.22662e-07
1.2289e-07
1.23101e-07
1.23312e-07
1.23499e-07
1.23684e-07
1.23846e-07
1.24007e-07
1.24144e-07
1.24283e-07
1.24401e-07
1.24521e-07
1.24622e-07
1.24726e-07
1.24813e-07
1.24903e-07
1.24978e-07
1.25058e-07
1.25123e-07
1.25193e-07
1.2525e-07
1.25311e-07
1.25362e-07
1.25416e-07
1.2546e-07
1.2551e-07
1.25549e-07
1.25593e-07
1.25627e-07
1.25666e-07
1.25698e-07
1.25734e-07
1.25762e-07
1.25794e-07
1.25822e-07
1.25851e-07
1.25872e-07
1.25902e-07
1.25923e-07
1.25947e-07
1.25966e-07
1.25987e-07
1.26005e-07
1.26026e-07
1.26042e-07
1.2606e-07
1.26077e-07
1.26095e-07
1.26108e-07
1.26123e-07
1.26139e-07
1.26147e-07
1.2616e-07
1.26166e-07
1.26179e-07
1.26182e-07
1.26188e-07
1.26184e-07
1.26205e-07
1.26229e-07
1.26238e-07
1.26251e-07
1.26269e-07
1.26283e-07
1.26306e-07
1.26322e-07
1.26348e-07
1.26369e-07
1.26398e-07
1.26416e-07
1.2644e-07
1.26454e-07
1.26478e-07
1.26492e-07
1.26513e-07
1.26528e-07
1.26547e-07
1.26565e-07
1.26583e-07
1.26603e-07
1.26623e-07
1.26642e-07
1.26666e-07
1.26686e-07
1.26713e-07
1.26749e-07
1.27949e-07
1.31578e-07
1.37038e-08
1.23924e-07
1.22941e-07
1.2234e-07
1.22099e-07
1.2211e-07
1.22244e-07
1.22447e-07
1.22662e-07
1.2289e-07
1.23101e-07
1.23312e-07
1.23499e-07
1.23684e-07
1.23846e-07
1.24006e-07
1.24144e-07
1.24283e-07
1.24401e-07
1.24521e-07
1.24622e-07
1.24726e-07
1.24813e-07
1.24903e-07
1.24978e-07
1.25058e-07
1.25123e-07
1.25193e-07
1.2525e-07
1.25311e-07
1.25362e-07
1.25416e-07
1.2546e-07
1.2551e-07
1.25549e-07
1.25593e-07
1.25627e-07
1.25666e-07
1.25698e-07
1.25734e-07
1.25762e-07
1.25794e-07
1.25822e-07
1.25851e-07
1.25872e-07
1.25902e-07
1.25923e-07
1.25948e-07
1.25966e-07
1.25987e-07
1.26005e-07
1.26026e-07
1.26042e-07
1.2606e-07
1.26077e-07
1.26095e-07
1.26108e-07
1.26123e-07
1.26139e-07
1.26148e-07
1.2616e-07
1.26166e-07
1.2618e-07
1.26182e-07
1.26188e-07
1.26185e-07
1.26205e-07
1.26229e-07
1.26238e-07
1.26251e-07
1.26269e-07
1.26283e-07
1.26307e-07
1.26322e-07
1.26348e-07
1.2637e-07
1.26398e-07
1.26416e-07
1.2644e-07
1.26454e-07
1.26478e-07
1.26492e-07
1.26513e-07
1.26529e-07
1.26548e-07
1.26566e-07
1.26584e-07
1.26604e-07
1.26623e-07
1.26642e-07
1.26667e-07
1.26687e-07
1.26713e-07
1.26749e-07
1.27951e-07
1.3158e-07
1.41223e-08
1.23924e-07
1.22941e-07
1.2234e-07
1.22099e-07
1.22109e-07
1.22243e-07
1.22445e-07
1.2266e-07
1.22888e-07
1.23099e-07
1.23309e-07
1.23497e-07
1.23682e-07
1.23844e-07
1.24004e-07
1.24142e-07
1.24281e-07
1.24399e-07
1.24518e-07
1.24619e-07
1.24723e-07
1.2481e-07
1.24901e-07
1.24976e-07
1.25056e-07
1.25121e-07
1.2519e-07
1.25248e-07
1.25309e-07
1.25359e-07
1.25414e-07
1.25458e-07
1.25507e-07
1.25547e-07
1.25591e-07
1.25625e-07
1.25664e-07
1.25696e-07
1.25732e-07
1.2576e-07
1.25792e-07
1.2582e-07
1.25849e-07
1.2587e-07
1.25899e-07
1.2592e-07
1.25945e-07
1.25964e-07
1.25985e-07
1.26003e-07
1.26024e-07
1.2604e-07
1.26058e-07
1.26075e-07
1.26093e-07
1.26106e-07
1.26121e-07
1.26137e-07
1.26145e-07
1.26158e-07
1.26164e-07
1.26177e-07
1.2618e-07
1.26186e-07
1.26182e-07
1.26203e-07
1.26227e-07
1.26236e-07
1.26249e-07
1.26267e-07
1.2628e-07
1.26304e-07
1.2632e-07
1.26346e-07
1.26367e-07
1.26396e-07
1.26414e-07
1.26438e-07
1.26452e-07
1.26476e-07
1.2649e-07
1.26511e-07
1.26526e-07
1.26545e-07
1.26563e-07
1.26581e-07
1.26601e-07
1.26621e-07
1.2664e-07
1.26664e-07
1.26684e-07
1.26711e-07
1.26747e-07
1.27954e-07
1.3158e-07
1.46419e-08
1.23924e-07
1.22941e-07
1.22339e-07
1.22098e-07
1.22108e-07
1.2224e-07
1.22443e-07
1.22657e-07
1.22885e-07
1.23095e-07
1.23306e-07
1.23493e-07
1.23679e-07
1.2384e-07
1.24001e-07
1.24138e-07
1.24277e-07
1.24395e-07
1.24515e-07
1.24616e-07
1.2472e-07
1.24807e-07
1.24897e-07
1.24972e-07
1.25052e-07
1.25117e-07
1.25187e-07
1.25244e-07
1.25305e-07
1.25356e-07
1.25411e-07
1.25454e-07
1.25504e-07
1.25544e-07
1.25588e-07
1.25621e-07
1.25661e-07
1.25692e-07
1.25729e-07
1.25756e-07
1.25788e-07
1.25816e-07
1.25845e-07
1.25867e-07
1.25896e-07
1.25917e-07
1.25942e-07
1.2596e-07
1.25981e-07
1.25999e-07
1.2602e-07
1.26036e-07
1.26055e-07
1.26072e-07
1.26089e-07
1.26102e-07
1.26118e-07
1.26134e-07
1.26142e-07
1.26155e-07
1.26161e-07
1.26174e-07
1.26177e-07
1.26183e-07
1.26179e-07
1.26199e-07
1.26223e-07
1.26233e-07
1.26246e-07
1.26264e-07
1.26277e-07
1.26301e-07
1.26317e-07
1.26343e-07
1.26364e-07
1.26392e-07
1.2641e-07
1.26435e-07
1.26449e-07
1.26473e-07
1.26486e-07
1.26508e-07
1.26523e-07
1.26542e-07
1.2656e-07
1.26578e-07
1.26598e-07
1.26618e-07
1.26636e-07
1.26661e-07
1.26681e-07
1.26707e-07
1.26744e-07
1.27958e-07
1.3158e-07
1.52184e-08
1.23925e-07
1.22941e-07
1.22338e-07
1.22096e-07
1.22105e-07
1.22238e-07
1.22439e-07
1.22653e-07
1.22881e-07
1.23091e-07
1.23302e-07
1.23489e-07
1.23674e-07
1.23835e-07
1.23996e-07
1.24134e-07
1.24273e-07
1.2439e-07
1.2451e-07
1.24611e-07
1.24715e-07
1.24802e-07
1.24893e-07
1.24968e-07
1.25047e-07
1.25113e-07
1.25182e-07
1.25239e-07
1.25301e-07
1.25351e-07
1.25406e-07
1.2545e-07
1.25499e-07
1.25539e-07
1.25583e-07
1.25617e-07
1.25656e-07
1.25688e-07
1.25724e-07
1.25752e-07
1.25784e-07
1.25812e-07
1.25841e-07
1.25862e-07
1.25892e-07
1.25913e-07
1.25938e-07
1.25956e-07
1.25977e-07
1.25995e-07
1.26016e-07
1.26032e-07
1.2605e-07
1.26067e-07
1.26085e-07
1.26098e-07
1.26114e-07
1.2613e-07
1.26138e-07
1.26151e-07
1.26157e-07
1.2617e-07
1.26172e-07
1.26179e-07
1.26175e-07
1.26195e-07
1.26219e-07
1.26229e-07
1.26242e-07
1.2626e-07
1.26273e-07
1.26297e-07
1.26312e-07
1.26338e-07
1.2636e-07
1.26388e-07
1.26406e-07
1.2643e-07
1.26444e-07
1.26468e-07
1.26482e-07
1.26504e-07
1.26519e-07
1.26538e-07
1.26556e-07
1.26574e-07
1.26594e-07
1.26613e-07
1.26632e-07
1.26657e-07
1.26677e-07
1.26703e-07
1.26739e-07
1.27964e-07
1.3158e-07
1.58437e-08
1.23925e-07
1.22941e-07
1.22338e-07
1.22094e-07
1.22102e-07
1.22234e-07
1.22435e-07
1.22648e-07
1.22875e-07
1.23086e-07
1.23296e-07
1.23483e-07
1.23668e-07
1.23829e-07
1.2399e-07
1.24128e-07
1.24267e-07
1.24384e-07
1.24504e-07
1.24605e-07
1.24709e-07
1.24796e-07
1.24887e-07
1.24962e-07
1.25042e-07
1.25107e-07
1.25176e-07
1.25234e-07
1.25295e-07
1.25345e-07
1.254e-07
1.25444e-07
1.25494e-07
1.25533e-07
1.25578e-07
1.25611e-07
1.25651e-07
1.25682e-07
1.25719e-07
1.25746e-07
1.25778e-07
1.25806e-07
1.25836e-07
1.25857e-07
1.25886e-07
1.25907e-07
1.25932e-07
1.25951e-07
1.25972e-07
1.2599e-07
1.26011e-07
1.26027e-07
1.26045e-07
1.26062e-07
1.2608e-07
1.26093e-07
1.26109e-07
1.26125e-07
1.26133e-07
1.26145e-07
1.26152e-07
1.26165e-07
1.26167e-07
1.26174e-07
1.2617e-07
1.2619e-07
1.26214e-07
1.26224e-07
1.26237e-07
1.26254e-07
1.26268e-07
1.26292e-07
1.26307e-07
1.26333e-07
1.26354e-07
1.26383e-07
1.264e-07
1.26425e-07
1.26439e-07
1.26463e-07
1.26477e-07
1.26498e-07
1.26514e-07
1.26533e-07
1.26551e-07
1.26569e-07
1.26589e-07
1.26608e-07
1.26627e-07
1.26652e-07
1.26671e-07
1.26698e-07
1.26734e-07
1.27972e-07
1.31581e-07
1.65161e-08
1.23925e-07
1.22941e-07
1.22337e-07
1.22092e-07
1.22099e-07
1.22229e-07
1.22429e-07
1.22642e-07
1.22869e-07
1.23079e-07
1.23289e-07
1.23476e-07
1.23661e-07
1.23822e-07
1.23983e-07
1.24121e-07
1.24259e-07
1.24377e-07
1.24497e-07
1.24598e-07
1.24702e-07
1.24789e-07
1.2488e-07
1.24955e-07
1.25035e-07
1.251e-07
1.2517e-07
1.25227e-07
1.25288e-07
1.25339e-07
1.25394e-07
1.25437e-07
1.25487e-07
1.25527e-07
1.25571e-07
1.25605e-07
1.25644e-07
1.25676e-07
1.25712e-07
1.2574e-07
1.25772e-07
1.258e-07
1.25829e-07
1.2585e-07
1.2588e-07
1.25901e-07
1.25926e-07
1.25944e-07
1.25966e-07
1.25984e-07
1.26005e-07
1.26021e-07
1.26039e-07
1.26056e-07
1.26074e-07
1.26087e-07
1.26102e-07
1.26118e-07
1.26127e-07
1.26139e-07
1.26145e-07
1.26159e-07
1.26161e-07
1.26168e-07
1.26164e-07
1.26184e-07
1.26208e-07
1.26217e-07
1.2623e-07
1.26248e-07
1.26261e-07
1.26285e-07
1.26301e-07
1.26326e-07
1.26348e-07
1.26376e-07
1.26394e-07
1.26418e-07
1.26433e-07
1.26457e-07
1.26471e-07
1.26492e-07
1.26507e-07
1.26526e-07
1.26544e-07
1.26562e-07
1.26582e-07
1.26602e-07
1.26621e-07
1.26645e-07
1.26665e-07
1.26692e-07
1.26728e-07
1.27983e-07
1.31582e-07
1.72359e-08
1.23925e-07
1.22941e-07
1.22336e-07
1.22089e-07
1.22094e-07
1.22224e-07
1.22423e-07
1.22635e-07
1.22862e-07
1.23071e-07
1.23281e-07
1.23468e-07
1.23653e-07
1.23814e-07
1.23974e-07
1.24112e-07
1.24251e-07
1.24369e-07
1.24489e-07
1.24589e-07
1.24694e-07
1.24781e-07
1.24871e-07
1.24947e-07
1.25026e-07
1.25092e-07
1.25161e-07
1.25219e-07
1.2528e-07
1.25331e-07
1.25386e-07
1.25429e-07
1.25479e-07
1.25519e-07
1.25563e-07
1.25597e-07
1.25636e-07
1.25668e-07
1.25704e-07
1.25732e-07
1.25764e-07
1.25792e-07
1.25822e-07
1.25843e-07
1.25872e-07
1.25893e-07
1.25918e-07
1.25937e-07
1.25958e-07
1.25976e-07
1.25997e-07
1.26013e-07
1.26031e-07
1.26049e-07
1.26066e-07
1.2608e-07
1.26095e-07
1.26111e-07
1.26119e-07
1.26132e-07
1.26138e-07
1.26152e-07
1.26154e-07
1.26161e-07
1.26157e-07
1.26177e-07
1.262e-07
1.2621e-07
1.26223e-07
1.26241e-07
1.26254e-07
1.26278e-07
1.26293e-07
1.26319e-07
1.2634e-07
1.26369e-07
1.26386e-07
1.26411e-07
1.26425e-07
1.2645e-07
1.26463e-07
1.26485e-07
1.265e-07
1.26519e-07
1.26537e-07
1.26555e-07
1.26575e-07
1.26595e-07
1.26614e-07
1.26638e-07
1.26658e-07
1.26684e-07
1.26721e-07
1.27996e-07
1.31584e-07
1.8004e-08
1.23925e-07
1.22941e-07
1.22334e-07
1.22086e-07
1.22089e-07
1.22217e-07
1.22415e-07
1.22627e-07
1.22853e-07
1.23062e-07
1.23272e-07
1.23458e-07
1.23643e-07
1.23804e-07
1.23965e-07
1.24102e-07
1.24241e-07
1.24359e-07
1.24479e-07
1.2458e-07
1.24684e-07
1.24771e-07
1.24862e-07
1.24937e-07
1.25017e-07
1.25082e-07
1.25152e-07
1.25209e-07
1.25271e-07
1.25321e-07
1.25377e-07
1.2542e-07
1.2547e-07
1.2551e-07
1.25554e-07
1.25588e-07
1.25627e-07
1.25659e-07
1.25696e-07
1.25723e-07
1.25755e-07
1.25783e-07
1.25813e-07
1.25834e-07
1.25864e-07
1.25885e-07
1.2591e-07
1.25929e-07
1.2595e-07
1.25968e-07
1.25989e-07
1.26005e-07
1.26023e-07
1.2604e-07
1.26058e-07
1.26071e-07
1.26087e-07
1.26103e-07
1.26111e-07
1.26124e-07
1.2613e-07
1.26144e-07
1.26146e-07
1.26153e-07
1.26149e-07
1.26169e-07
1.26192e-07
1.26202e-07
1.26215e-07
1.26232e-07
1.26246e-07
1.26269e-07
1.26285e-07
1.26311e-07
1.26332e-07
1.2636e-07
1.26378e-07
1.26402e-07
1.26417e-07
1.26441e-07
1.26455e-07
1.26477e-07
1.26492e-07
1.26511e-07
1.26529e-07
1.26547e-07
1.26567e-07
1.26586e-07
1.26605e-07
1.2663e-07
1.2665e-07
1.26676e-07
1.26713e-07
1.28011e-07
1.31586e-07
1.8821e-08
1.23926e-07
1.22941e-07
1.22333e-07
1.22082e-07
1.22084e-07
1.2221e-07
1.22407e-07
1.22618e-07
1.22843e-07
1.23052e-07
1.23261e-07
1.23447e-07
1.23632e-07
1.23793e-07
1.23954e-07
1.24091e-07
1.2423e-07
1.24348e-07
1.24468e-07
1.24569e-07
1.24673e-07
1.2476e-07
1.24851e-07
1.24926e-07
1.25006e-07
1.25072e-07
1.25141e-07
1.25199e-07
1.2526e-07
1.25311e-07
1.25366e-07
1.2541e-07
1.2546e-07
1.255e-07
1.25544e-07
1.25578e-07
1.25617e-07
1.25649e-07
1.25686e-07
1.25713e-07
1.25746e-07
1.25774e-07
1.25803e-07
1.25825e-07
1.25854e-07
1.25875e-07
1.259e-07
1.25919e-07
1.2594e-07
1.25958e-07
1.25979e-07
1.25995e-07
1.26014e-07
1.26031e-07
1.26049e-07
1.26062e-07
1.26077e-07
1.26094e-07
1.26102e-07
1.26115e-07
1.26121e-07
1.26134e-07
1.26137e-07
1.26144e-07
1.2614e-07
1.26159e-07
1.26183e-07
1.26193e-07
1.26206e-07
1.26223e-07
1.26237e-07
1.2626e-07
1.26275e-07
1.26301e-07
1.26322e-07
1.2635e-07
1.26368e-07
1.26393e-07
1.26408e-07
1.26432e-07
1.26445e-07
1.26467e-07
1.26482e-07
1.26502e-07
1.26519e-07
1.26538e-07
1.26558e-07
1.26577e-07
1.26596e-07
1.26621e-07
1.2664e-07
1.26666e-07
1.26704e-07
1.2803e-07
1.31588e-07
1.96868e-08
1.23926e-07
1.22941e-07
1.22331e-07
1.22078e-07
1.22078e-07
1.22202e-07
1.22398e-07
1.22608e-07
1.22832e-07
1.2304e-07
1.23249e-07
1.23435e-07
1.2362e-07
1.23781e-07
1.23941e-07
1.24079e-07
1.24218e-07
1.24336e-07
1.24456e-07
1.24556e-07
1.24661e-07
1.24748e-07
1.24839e-07
1.24914e-07
1.24994e-07
1.2506e-07
1.2513e-07
1.25187e-07
1.25249e-07
1.25299e-07
1.25355e-07
1.25398e-07
1.25448e-07
1.25488e-07
1.25533e-07
1.25567e-07
1.25606e-07
1.25638e-07
1.25675e-07
1.25702e-07
1.25735e-07
1.25763e-07
1.25792e-07
1.25814e-07
1.25843e-07
1.25864e-07
1.25889e-07
1.25908e-07
1.25929e-07
1.25948e-07
1.25969e-07
1.25985e-07
1.26003e-07
1.2602e-07
1.26038e-07
1.26051e-07
1.26067e-07
1.26083e-07
1.26092e-07
1.26105e-07
1.26111e-07
1.26124e-07
1.26127e-07
1.26134e-07
1.2613e-07
1.26149e-07
1.26172e-07
1.26182e-07
1.26195e-07
1.26212e-07
1.26226e-07
1.26249e-07
1.26265e-07
1.2629e-07
1.26311e-07
1.2634e-07
1.26357e-07
1.26382e-07
1.26397e-07
1.26421e-07
1.26435e-07
1.26457e-07
1.26472e-07
1.26491e-07
1.26509e-07
1.26527e-07
1.26547e-07
1.26567e-07
1.26586e-07
1.2661e-07
1.2663e-07
1.26656e-07
1.26694e-07
1.28051e-07
1.31591e-07
2.06003e-08
1.23926e-07
1.22942e-07
1.22329e-07
1.22074e-07
1.22071e-07
1.22193e-07
1.22387e-07
1.22596e-07
1.2282e-07
1.23028e-07
1.23236e-07
1.23422e-07
1.23606e-07
1.23767e-07
1.23927e-07
1.24065e-07
1.24204e-07
1.24322e-07
1.24442e-07
1.24543e-07
1.24647e-07
1.24734e-07
1.24826e-07
1.24901e-07
1.24981e-07
1.25047e-07
1.25117e-07
1.25174e-07
1.25236e-07
1.25286e-07
1.25342e-07
1.25385e-07
1.25436e-07
1.25476e-07
1.2552e-07
1.25554e-07
1.25594e-07
1.25626e-07
1.25662e-07
1.2569e-07
1.25722e-07
1.2575e-07
1.2578e-07
1.25802e-07
1.25831e-07
1.25852e-07
1.25878e-07
1.25896e-07
1.25918e-07
1.25936e-07
1.25957e-07
1.25973e-07
1.25991e-07
1.26009e-07
1.26026e-07
1.2604e-07
1.26055e-07
1.26072e-07
1.2608e-07
1.26093e-07
1.26099e-07
1.26113e-07
1.26116e-07
1.26123e-07
1.26119e-07
1.26138e-07
1.26161e-07
1.26171e-07
1.26184e-07
1.26201e-07
1.26215e-07
1.26238e-07
1.26253e-07
1.26279e-07
1.263e-07
1.26328e-07
1.26345e-07
1.2637e-07
1.26385e-07
1.26409e-07
1.26423e-07
1.26445e-07
1.2646e-07
1.2648e-07
1.26497e-07
1.26516e-07
1.26536e-07
1.26555e-07
1.26574e-07
1.26599e-07
1.26618e-07
1.26644e-07
1.26683e-07
1.28076e-07
1.31594e-07
2.15605e-08
1.23927e-07
1.22942e-07
1.22327e-07
1.22069e-07
1.22063e-07
1.22183e-07
1.22376e-07
1.22584e-07
1.22806e-07
1.23013e-07
1.23222e-07
1.23407e-07
1.23591e-07
1.23752e-07
1.23912e-07
1.2405e-07
1.24189e-07
1.24307e-07
1.24427e-07
1.24528e-07
1.24632e-07
1.2472e-07
1.24811e-07
1.24886e-07
1.24966e-07
1.25032e-07
1.25102e-07
1.2516e-07
1.25222e-07
1.25272e-07
1.25328e-07
1.25371e-07
1.25422e-07
1.25462e-07
1.25506e-07
1.2554e-07
1.2558e-07
1.25612e-07
1.25649e-07
1.25677e-07
1.25709e-07
1.25737e-07
1.25767e-07
1.25788e-07
1.25818e-07
1.25839e-07
1.25864e-07
1.25883e-07
1.25905e-07
1.25923e-07
1.25944e-07
1.2596e-07
1.25979e-07
1.25996e-07
1.26014e-07
1.26027e-07
1.26043e-07
1.26059e-07
1.26068e-07
1.26081e-07
1.26087e-07
1.26101e-07
1.26104e-07
1.2611e-07
1.26107e-07
1.26125e-07
1.26148e-07
1.26159e-07
1.26172e-07
1.26188e-07
1.26202e-07
1.26225e-07
1.2624e-07
1.26266e-07
1.26287e-07
1.26315e-07
1.26332e-07
1.26357e-07
1.26372e-07
1.26396e-07
1.2641e-07
1.26433e-07
1.26447e-07
1.26467e-07
1.26485e-07
1.26504e-07
1.26523e-07
1.26543e-07
1.26561e-07
1.26586e-07
1.26606e-07
1.26631e-07
1.26671e-07
1.28104e-07
1.31597e-07
2.25701e-08
1.23927e-07
1.22942e-07
1.22325e-07
1.22064e-07
1.22055e-07
1.22172e-07
1.22363e-07
1.2257e-07
1.22792e-07
1.22998e-07
1.23206e-07
1.23391e-07
1.23575e-07
1.23735e-07
1.23896e-07
1.24033e-07
1.24172e-07
1.2429e-07
1.2441e-07
1.24511e-07
1.24616e-07
1.24703e-07
1.24795e-07
1.2487e-07
1.2495e-07
1.25016e-07
1.25086e-07
1.25144e-07
1.25206e-07
1.25257e-07
1.25312e-07
1.25356e-07
1.25406e-07
1.25447e-07
1.25491e-07
1.25525e-07
1.25565e-07
1.25597e-07
1.25634e-07
1.25662e-07
1.25694e-07
1.25722e-07
1.25752e-07
1.25774e-07
1.25803e-07
1.25825e-07
1.2585e-07
1.25869e-07
1.2589e-07
1.25909e-07
1.2593e-07
1.25946e-07
1.25965e-07
1.25982e-07
1.26e-07
1.26013e-07
1.26029e-07
1.26045e-07
1.26054e-07
1.26067e-07
1.26073e-07
1.26087e-07
1.2609e-07
1.26097e-07
1.26094e-07
1.26111e-07
1.26134e-07
1.26145e-07
1.26158e-07
1.26174e-07
1.26188e-07
1.26211e-07
1.26226e-07
1.26251e-07
1.26272e-07
1.263e-07
1.26318e-07
1.26343e-07
1.26358e-07
1.26382e-07
1.26396e-07
1.26419e-07
1.26433e-07
1.26454e-07
1.26471e-07
1.2649e-07
1.26509e-07
1.26529e-07
1.26548e-07
1.26572e-07
1.26592e-07
1.26617e-07
1.26657e-07
1.28135e-07
1.316e-07
2.36321e-08
1.23928e-07
1.22942e-07
1.22323e-07
1.22058e-07
1.22046e-07
1.22161e-07
1.2235e-07
1.22555e-07
1.22776e-07
1.22981e-07
1.23189e-07
1.23373e-07
1.23557e-07
1.23717e-07
1.23878e-07
1.24015e-07
1.24154e-07
1.24272e-07
1.24392e-07
1.24493e-07
1.24598e-07
1.24685e-07
1.24777e-07
1.24853e-07
1.24933e-07
1.24999e-07
1.25069e-07
1.25127e-07
1.25189e-07
1.2524e-07
1.25296e-07
1.25339e-07
1.2539e-07
1.2543e-07
1.25475e-07
1.25509e-07
1.25549e-07
1.25581e-07
1.25618e-07
1.25646e-07
1.25678e-07
1.25707e-07
1.25737e-07
1.25758e-07
1.25788e-07
1.25809e-07
1.25835e-07
1.25854e-07
1.25875e-07
1.25893e-07
1.25915e-07
1.25931e-07
1.25949e-07
1.25967e-07
1.25985e-07
1.25998e-07
1.26014e-07
1.2603e-07
1.26039e-07
1.26052e-07
1.26059e-07
1.26072e-07
1.26076e-07
1.26082e-07
1.2608e-07
1.26097e-07
1.2612e-07
1.2613e-07
1.26143e-07
1.26159e-07
1.26173e-07
1.26196e-07
1.26211e-07
1.26236e-07
1.26257e-07
1.26285e-07
1.26302e-07
1.26327e-07
1.26343e-07
1.26367e-07
1.26381e-07
1.26404e-07
1.26418e-07
1.26439e-07
1.26456e-07
1.26475e-07
1.26494e-07
1.26514e-07
1.26533e-07
1.26557e-07
1.26577e-07
1.26602e-07
1.26643e-07
1.2817e-07
1.31602e-07
2.47498e-08
1.23928e-07
1.22942e-07
1.2232e-07
1.22052e-07
1.22036e-07
1.22148e-07
1.22335e-07
1.22538e-07
1.22758e-07
1.22963e-07
1.2317e-07
1.23354e-07
1.23538e-07
1.23698e-07
1.23858e-07
1.23995e-07
1.24135e-07
1.24253e-07
1.24373e-07
1.24474e-07
1.24579e-07
1.24666e-07
1.24758e-07
1.24834e-07
1.24914e-07
1.2498e-07
1.25051e-07
1.25108e-07
1.25171e-07
1.25222e-07
1.25277e-07
1.25321e-07
1.25372e-07
1.25412e-07
1.25457e-07
1.25491e-07
1.25531e-07
1.25563e-07
1.256e-07
1.25629e-07
1.25661e-07
1.25689e-07
1.25719e-07
1.25741e-07
1.25771e-07
1.25792e-07
1.25818e-07
1.25837e-07
1.25858e-07
1.25877e-07
1.25898e-07
1.25915e-07
1.25933e-07
1.2595e-07
1.25968e-07
1.25982e-07
1.25998e-07
1.26014e-07
1.26023e-07
1.26036e-07
1.26043e-07
1.26056e-07
1.2606e-07
1.26067e-07
1.26064e-07
1.2608e-07
1.26103e-07
1.26114e-07
1.26127e-07
1.26142e-07
1.26157e-07
1.26179e-07
1.26194e-07
1.26219e-07
1.2624e-07
1.26268e-07
1.26285e-07
1.2631e-07
1.26326e-07
1.26351e-07
1.26365e-07
1.26387e-07
1.26402e-07
1.26422e-07
1.26439e-07
1.26459e-07
1.26478e-07
1.26498e-07
1.26517e-07
1.26541e-07
1.2656e-07
1.26586e-07
1.26627e-07
1.28209e-07
1.31604e-07
2.59267e-08
1.23929e-07
1.22942e-07
1.22318e-07
1.22045e-07
1.22026e-07
1.22135e-07
1.22319e-07
1.22521e-07
1.2274e-07
1.22944e-07
1.2315e-07
1.23334e-07
1.23517e-07
1.23677e-07
1.23837e-07
1.23974e-07
1.24113e-07
1.24231e-07
1.24352e-07
1.24453e-07
1.24558e-07
1.24646e-07
1.24737e-07
1.24813e-07
1.24894e-07
1.2496e-07
1.25031e-07
1.25088e-07
1.25151e-07
1.25202e-07
1.25258e-07
1.25302e-07
1.25353e-07
1.25393e-07
1.25438e-07
1.25472e-07
1.25512e-07
1.25545e-07
1.25582e-07
1.2561e-07
1.25643e-07
1.25671e-07
1.25701e-07
1.25723e-07
1.25752e-07
1.25774e-07
1.258e-07
1.25819e-07
1.2584e-07
1.25859e-07
1.2588e-07
1.25897e-07
1.25915e-07
1.25932e-07
1.25951e-07
1.25964e-07
1.2598e-07
1.25997e-07
1.26006e-07
1.26019e-07
1.26025e-07
1.26039e-07
1.26043e-07
1.2605e-07
1.26047e-07
1.26063e-07
1.26086e-07
1.26097e-07
1.2611e-07
1.26125e-07
1.26139e-07
1.26162e-07
1.26176e-07
1.26202e-07
1.26222e-07
1.2625e-07
1.26267e-07
1.26292e-07
1.26308e-07
1.26333e-07
1.26347e-07
1.2637e-07
1.26384e-07
1.26405e-07
1.26422e-07
1.26441e-07
1.2646e-07
1.2648e-07
1.26499e-07
1.26524e-07
1.26543e-07
1.26568e-07
1.26611e-07
1.28252e-07
1.31605e-07
2.71663e-08
1.23929e-07
1.22943e-07
1.22315e-07
1.22038e-07
1.22014e-07
1.2212e-07
1.22302e-07
1.22502e-07
1.2272e-07
1.22923e-07
1.23128e-07
1.23312e-07
1.23495e-07
1.23654e-07
1.23814e-07
1.23952e-07
1.24091e-07
1.24209e-07
1.24329e-07
1.24431e-07
1.24536e-07
1.24623e-07
1.24715e-07
1.24791e-07
1.24872e-07
1.24938e-07
1.25009e-07
1.25067e-07
1.2513e-07
1.25181e-07
1.25237e-07
1.25281e-07
1.25332e-07
1.25372e-07
1.25418e-07
1.25452e-07
1.25492e-07
1.25524e-07
1.25562e-07
1.2559e-07
1.25623e-07
1.25651e-07
1.25681e-07
1.25703e-07
1.25733e-07
1.25755e-07
1.2578e-07
1.25799e-07
1.25821e-07
1.25839e-07
1.25861e-07
1.25878e-07
1.25896e-07
1.25913e-07
1.25932e-07
1.25946e-07
1.25961e-07
1.25978e-07
1.25987e-07
1.26e-07
1.26007e-07
1.26021e-07
1.26025e-07
1.26032e-07
1.2603e-07
1.26045e-07
1.26067e-07
1.26078e-07
1.26091e-07
1.26106e-07
1.26121e-07
1.26143e-07
1.26157e-07
1.26182e-07
1.26203e-07
1.26231e-07
1.26248e-07
1.26273e-07
1.26289e-07
1.26314e-07
1.26328e-07
1.26351e-07
1.26365e-07
1.26386e-07
1.26403e-07
1.26423e-07
1.26442e-07
1.26461e-07
1.2648e-07
1.26505e-07
1.26524e-07
1.26549e-07
1.26593e-07
1.28298e-07
1.31604e-07
2.84723e-08
1.2393e-07
1.22943e-07
1.22312e-07
1.2203e-07
1.22003e-07
1.22105e-07
1.22284e-07
1.22482e-07
1.22698e-07
1.229e-07
1.23105e-07
1.23288e-07
1.23471e-07
1.2363e-07
1.2379e-07
1.23927e-07
1.24067e-07
1.24185e-07
1.24305e-07
1.24407e-07
1.24512e-07
1.246e-07
1.24692e-07
1.24768e-07
1.24849e-07
1.24915e-07
1.24986e-07
1.25044e-07
1.25107e-07
1.25158e-07
1.25214e-07
1.25259e-07
1.2531e-07
1.2535e-07
1.25396e-07
1.2543e-07
1.2547e-07
1.25503e-07
1.2554e-07
1.25568e-07
1.25601e-07
1.2563e-07
1.2566e-07
1.25682e-07
1.25712e-07
1.25734e-07
1.25759e-07
1.25779e-07
1.258e-07
1.25819e-07
1.2584e-07
1.25857e-07
1.25876e-07
1.25893e-07
1.25911e-07
1.25925e-07
1.25941e-07
1.25958e-07
1.25967e-07
1.2598e-07
1.25987e-07
1.26001e-07
1.26005e-07
1.26012e-07
1.2601e-07
1.26025e-07
1.26048e-07
1.26059e-07
1.26071e-07
1.26086e-07
1.26101e-07
1.26122e-07
1.26137e-07
1.26162e-07
1.26182e-07
1.2621e-07
1.26227e-07
1.26252e-07
1.26268e-07
1.26293e-07
1.26308e-07
1.26331e-07
1.26345e-07
1.26366e-07
1.26383e-07
1.26403e-07
1.26422e-07
1.26441e-07
1.2646e-07
1.26485e-07
1.26504e-07
1.26529e-07
1.26574e-07
1.28349e-07
1.31601e-07
2.98487e-08
1.23931e-07
1.22943e-07
1.22309e-07
1.22022e-07
1.2199e-07
1.22089e-07
1.22265e-07
1.22461e-07
1.22676e-07
1.22876e-07
1.23081e-07
1.23263e-07
1.23445e-07
1.23605e-07
1.23764e-07
1.23902e-07
1.24041e-07
1.24159e-07
1.2428e-07
1.24381e-07
1.24487e-07
1.24574e-07
1.24667e-07
1.24743e-07
1.24824e-07
1.2489e-07
1.24961e-07
1.2502e-07
1.25083e-07
1.25134e-07
1.2519e-07
1.25235e-07
1.25286e-07
1.25326e-07
1.25372e-07
1.25407e-07
1.25447e-07
1.2548e-07
1.25517e-07
1.25546e-07
1.25578e-07
1.25607e-07
1.25638e-07
1.2566e-07
1.25689e-07
1.25711e-07
1.25737e-07
1.25757e-07
1.25778e-07
1.25797e-07
1.25818e-07
1.25835e-07
1.25854e-07
1.25871e-07
1.2589e-07
1.25904e-07
1.25919e-07
1.25936e-07
1.25946e-07
1.25959e-07
1.25966e-07
1.2598e-07
1.25984e-07
1.25992e-07
1.2599e-07
1.26004e-07
1.26027e-07
1.26038e-07
1.2605e-07
1.26065e-07
1.26079e-07
1.26101e-07
1.26115e-07
1.2614e-07
1.2616e-07
1.26188e-07
1.26205e-07
1.2623e-07
1.26246e-07
1.26271e-07
1.26286e-07
1.26309e-07
1.26323e-07
1.26345e-07
1.26361e-07
1.26382e-07
1.264e-07
1.2642e-07
1.26439e-07
1.26464e-07
1.26483e-07
1.26507e-07
1.26553e-07
1.28403e-07
1.31391e-07
3.12993e-08
1.23931e-07
1.22943e-07
1.22306e-07
1.22014e-07
1.21977e-07
1.22072e-07
1.22245e-07
1.22439e-07
1.22651e-07
1.22851e-07
1.23055e-07
1.23236e-07
1.23418e-07
1.23577e-07
1.23737e-07
1.23874e-07
1.24013e-07
1.24131e-07
1.24252e-07
1.24354e-07
1.24459e-07
1.24547e-07
1.2464e-07
1.24716e-07
1.24797e-07
1.24864e-07
1.24935e-07
1.24994e-07
1.25057e-07
1.25108e-07
1.25165e-07
1.25209e-07
1.25261e-07
1.25301e-07
1.25347e-07
1.25382e-07
1.25422e-07
1.25455e-07
1.25493e-07
1.25521e-07
1.25554e-07
1.25583e-07
1.25613e-07
1.25636e-07
1.25666e-07
1.25688e-07
1.25713e-07
1.25733e-07
1.25755e-07
1.25773e-07
1.25795e-07
1.25812e-07
1.25831e-07
1.25848e-07
1.25867e-07
1.25881e-07
1.25897e-07
1.25914e-07
1.25923e-07
1.25937e-07
1.25944e-07
1.25958e-07
1.25962e-07
1.2597e-07
1.25968e-07
1.25982e-07
1.26004e-07
1.26015e-07
1.26028e-07
1.26042e-07
1.26057e-07
1.26078e-07
1.26092e-07
1.26117e-07
1.26137e-07
1.26165e-07
1.26181e-07
1.26207e-07
1.26223e-07
1.26248e-07
1.26263e-07
1.26286e-07
1.263e-07
1.26322e-07
1.26338e-07
1.26359e-07
1.26377e-07
1.26397e-07
1.26416e-07
1.26441e-07
1.2646e-07
1.26484e-07
1.26532e-07
1.28462e-07
1.25088e-07
3.2828e-08
1.23932e-07
1.22944e-07
1.22302e-07
1.22005e-07
1.21963e-07
1.22053e-07
1.22224e-07
1.22415e-07
1.22626e-07
1.22824e-07
1.23027e-07
1.23208e-07
1.2339e-07
1.23548e-07
1.23708e-07
1.23845e-07
1.23984e-07
1.24102e-07
1.24223e-07
1.24325e-07
1.24431e-07
1.24519e-07
1.24611e-07
1.24688e-07
1.24769e-07
1.24836e-07
1.24907e-07
1.24966e-07
1.25029e-07
1.25081e-07
1.25138e-07
1.25182e-07
1.25234e-07
1.25275e-07
1.25321e-07
1.25355e-07
1.25396e-07
1.25429e-07
1.25467e-07
1.25495e-07
1.25528e-07
1.25557e-07
1.25588e-07
1.2561e-07
1.2564e-07
1.25662e-07
1.25688e-07
1.25708e-07
1.2573e-07
1.25749e-07
1.2577e-07
1.25788e-07
1.25806e-07
1.25824e-07
1.25842e-07
1.25857e-07
1.25872e-07
1.25889e-07
1.25899e-07
1.25913e-07
1.2592e-07
1.25934e-07
1.25939e-07
1.25946e-07
1.25945e-07
1.25958e-07
1.2598e-07
1.25992e-07
1.26004e-07
1.26018e-07
1.26033e-07
1.26053e-07
1.26068e-07
1.26092e-07
1.26112e-07
1.2614e-07
1.26156e-07
1.26182e-07
1.26198e-07
1.26223e-07
1.26238e-07
1.26262e-07
1.26276e-07
1.26298e-07
1.26314e-07
1.26335e-07
1.26353e-07
1.26373e-07
1.26392e-07
1.26417e-07
1.26435e-07
1.2646e-07
1.26509e-07
1.28523e-07
1.19435e-07
3.44386e-08
1.23933e-07
1.22944e-07
1.22299e-07
1.21996e-07
1.21949e-07
1.22034e-07
1.22201e-07
1.2239e-07
1.22599e-07
1.22796e-07
1.22998e-07
1.23178e-07
1.23359e-07
1.23518e-07
1.23677e-07
1.23814e-07
1.23953e-07
1.24071e-07
1.24193e-07
1.24294e-07
1.244e-07
1.24488e-07
1.24581e-07
1.24658e-07
1.24739e-07
1.24806e-07
1.24878e-07
1.24937e-07
1.25e-07
1.25052e-07
1.25109e-07
1.25154e-07
1.25205e-07
1.25246e-07
1.25292e-07
1.25327e-07
1.25368e-07
1.25401e-07
1.25439e-07
1.25468e-07
1.25501e-07
1.2553e-07
1.25561e-07
1.25583e-07
1.25613e-07
1.25636e-07
1.25662e-07
1.25681e-07
1.25704e-07
1.25722e-07
1.25744e-07
1.25761e-07
1.2578e-07
1.25798e-07
1.25816e-07
1.25831e-07
1.25847e-07
1.25864e-07
1.25874e-07
1.25887e-07
1.25895e-07
1.25909e-07
1.25914e-07
1.25921e-07
1.2592e-07
1.25933e-07
1.25955e-07
1.25967e-07
1.25979e-07
1.25992e-07
1.26007e-07
1.26027e-07
1.26042e-07
1.26066e-07
1.26086e-07
1.26113e-07
1.2613e-07
1.26155e-07
1.26171e-07
1.26197e-07
1.26212e-07
1.26236e-07
1.2625e-07
1.26272e-07
1.26288e-07
1.26309e-07
1.26327e-07
1.26348e-07
1.26366e-07
1.26392e-07
1.2641e-07
1.26434e-07
1.26485e-07
1.28588e-07
1.14377e-07
3.61344e-08
1.23934e-07
1.22945e-07
1.22295e-07
1.21987e-07
1.21933e-07
1.22014e-07
1.22178e-07
1.22363e-07
1.22571e-07
1.22766e-07
1.22967e-07
1.23146e-07
1.23327e-07
1.23485e-07
1.23645e-07
1.23781e-07
1.23921e-07
1.24039e-07
1.2416e-07
1.24262e-07
1.24368e-07
1.24456e-07
1.24549e-07
1.24626e-07
1.24708e-07
1.24775e-07
1.24847e-07
1.24906e-07
1.24969e-07
1.25021e-07
1.25078e-07
1.25123e-07
1.25175e-07
1.25216e-07
1.25263e-07
1.25298e-07
1.25339e-07
1.25372e-07
1.2541e-07
1.25439e-07
1.25472e-07
1.25501e-07
1.25532e-07
1.25555e-07
1.25585e-07
1.25607e-07
1.25633e-07
1.25653e-07
1.25676e-07
1.25694e-07
1.25716e-07
1.25734e-07
1.25753e-07
1.2577e-07
1.25789e-07
1.25804e-07
1.25819e-07
1.25837e-07
1.25847e-07
1.25861e-07
1.25868e-07
1.25882e-07
1.25887e-07
1.25895e-07
1.25895e-07
1.25907e-07
1.25929e-07
1.2594e-07
1.25952e-07
1.25965e-07
1.2598e-07
1.26e-07
1.26015e-07
1.26039e-07
1.26058e-07
1.26085e-07
1.26102e-07
1.26127e-07
1.26143e-07
1.26169e-07
1.26184e-07
1.26208e-07
1.26223e-07
1.26245e-07
1.26261e-07
1.26282e-07
1.263e-07
1.26321e-07
1.26339e-07
1.26365e-07
1.26383e-07
1.26406e-07
1.26459e-07
1.28655e-07
1.0985e-07
3.79184e-08
1.23934e-07
1.22945e-07
1.22292e-07
1.21977e-07
1.21918e-07
1.21993e-07
1.22153e-07
1.22336e-07
1.22541e-07
1.22735e-07
1.22934e-07
1.23113e-07
1.23294e-07
1.23451e-07
1.2361e-07
1.23747e-07
1.23886e-07
1.24004e-07
1.24126e-07
1.24227e-07
1.24334e-07
1.24422e-07
1.24516e-07
1.24592e-07
1.24674e-07
1.24742e-07
1.24814e-07
1.24873e-07
1.24937e-07
1.24989e-07
1.25046e-07
1.25091e-07
1.25143e-07
1.25185e-07
1.25231e-07
1.25267e-07
1.25308e-07
1.25341e-07
1.25379e-07
1.25408e-07
1.25442e-07
1.2547e-07
1.25502e-07
1.25525e-07
1.25555e-07
1.25577e-07
1.25604e-07
1.25624e-07
1.25646e-07
1.25665e-07
1.25687e-07
1.25705e-07
1.25724e-07
1.25741e-07
1.2576e-07
1.25775e-07
1.2579e-07
1.25808e-07
1.25818e-07
1.25832e-07
1.2584e-07
1.25854e-07
1.25859e-07
1.25867e-07
1.25867e-07
1.25879e-07
1.25901e-07
1.25912e-07
1.25924e-07
1.25937e-07
1.25952e-07
1.25971e-07
1.25986e-07
1.2601e-07
1.26029e-07
1.26056e-07
1.26073e-07
1.26098e-07
1.26114e-07
1.26139e-07
1.26155e-07
1.26179e-07
1.26194e-07
1.26216e-07
1.26232e-07
1.26254e-07
1.26271e-07
1.26292e-07
1.26311e-07
1.26337e-07
1.26354e-07
1.26377e-07
1.26432e-07
1.28722e-07
1.05804e-07
3.97926e-08
1.23935e-07
1.22946e-07
1.22288e-07
1.21967e-07
1.21901e-07
1.21971e-07
1.22127e-07
1.22307e-07
1.2251e-07
1.22702e-07
1.229e-07
1.23078e-07
1.23258e-07
1.23415e-07
1.23574e-07
1.2371e-07
1.2385e-07
1.23968e-07
1.2409e-07
1.24191e-07
1.24298e-07
1.24386e-07
1.2448e-07
1.24557e-07
1.24639e-07
1.24707e-07
1.24779e-07
1.24838e-07
1.24903e-07
1.24955e-07
1.25012e-07
1.25058e-07
1.2511e-07
1.25151e-07
1.25198e-07
1.25234e-07
1.25275e-07
1.25308e-07
1.25346e-07
1.25376e-07
1.2541e-07
1.25438e-07
1.2547e-07
1.25493e-07
1.25523e-07
1.25546e-07
1.25572e-07
1.25592e-07
1.25615e-07
1.25634e-07
1.25656e-07
1.25674e-07
1.25693e-07