/*--------------------------------*- C++ -*----------------------------------*\
| =========                 |                                                 |
| \\      /  F ield         | OpenFOAM: The Open Source CFD Toolbox           |
|  \\    /   O peration     | Version:  v2012                                 |
|   \\  /    A nd           | Website:  www.openfoam.com                      |
|    \\/     M anipulation  |                                                 |
\*---------------------------------------------------------------------------*/
FoamFile
{
    version     2.0;
    format      ascii;
    class       volScalarField;
    location    "34";
    object      omega;
}
// * * * * * * * * * * * * * * * * * * * * * * * * * * * * * * * * * * * * * //

dimensions      [0 0 -1 0 0 0 0];


internalField   nonuniform List<scalar> 
209825
(
8260.67
7564.15
7001.75
6562.84
6224.7
5963.78
5759.39
5597.17
5465.8
5358.37
5268.78
5193.79
5129.75
5075.24
5027.76
4986.84
4950.6
4919.1
4890.77
4866
4843.42
4823.62
4805.32
4789.23
4774.19
4760.99
4748.48
4737.51
4726.99
4717.83
4708.9
4701.17
4693.53
4686.97
4680.39
4674.81
4669.14
4664.35
4659.4
4655.29
4651.01
4647.42
4643.66
4640.62
4637.31
4634.64
4631.72
4629.4
4626.9
4624.89
4622.75
4621.07
4619.16
4617.56
4615.99
4614.6
4613.2
4611.97
4610.78
4609.85
4608.9
4608.04
4607.22
4606.61
4605.82
4605.26
4604.61
4604.26
4603.75
4603.5
4603.01
4602.77
4602.3
4602.08
4601.64
4601.48
4601.16
4601.14
4601.06
4601.17
4601.17
4601.48
4601.48
4602.01
4602.01
4602.76
4602.76
4603.66
4603.76
4604.8
4604.88
4606.25
4606.85
4638.13
4755.38
113430
8260.67
7564.16
7001.75
6562.83
6224.68
5963.75
5759.35
5597.11
5465.73
5358.29
5268.69
5193.7
5129.66
5075.13
5027.65
4986.73
4950.49
4918.98
4890.65
4865.88
4843.3
4823.49
4805.19
4789.1
4774.06
4760.86
4748.35
4737.38
4726.85
4717.69
4708.76
4701.03
4693.39
4686.82
4680.25
4674.67
4668.99
4664.2
4659.25
4655.14
4650.86
4647.27
4643.52
4640.47
4637.16
4634.49
4631.57
4629.25
4626.75
4624.74
4622.6
4620.91
4619.01
4617.41
4615.83
4614.45
4613.04
4611.82
4610.63
4609.7
4608.74
4607.88
4607.06
4606.46
4605.66
4605.11
4604.45
4604.1
4603.6
4603.34
4602.86
4602.61
4602.15
4601.92
4601.48
4601.33
4601
4600.99
4600.9
4601.02
4601.01
4601.32
4601.32
4601.85
4601.85
4602.6
4602.6
4603.5
4603.6
4604.64
4604.72
4606.09
4606.69
4638.03
4755.25
110132
8260.68
7564.16
7001.74
6562.79
6224.59
5963.62
5759.18
5596.91
5465.49
5358.03
5268.4
5193.39
5129.32
5074.79
5027.29
4986.36
4950.1
4918.58
4890.25
4865.47
4842.88
4823.06
4804.75
4788.66
4773.61
4760.41
4747.9
4736.92
4726.39
4717.22
4708.29
4700.56
4692.92
4686.35
4679.77
4674.19
4668.51
4663.72
4658.77
4654.66
4650.37
4646.78
4643.03
4639.98
4636.67
4634
4631.08
4628.76
4626.25
4624.24
4622.1
4620.41
4618.51
4616.91
4615.33
4613.95
4612.54
4611.31
4610.12
4609.19
4608.24
4607.37
4606.55
4605.95
4605.16
4604.6
4603.94
4603.59
4603.09
4602.83
4602.34
4602.1
4601.63
4601.41
4600.97
4600.81
4600.49
4600.47
4600.39
4600.5
4600.5
4600.8
4600.8
4601.33
4601.33
4602.08
4602.08
4602.98
4603.08
4604.12
4604.19
4605.56
4606.17
4637.62
4754.79
106346
8260.68
7564.18
7001.73
6562.72
6224.44
5963.39
5758.88
5596.55
5465.08
5357.56
5267.89
5192.85
5128.75
5074.19
5026.67
4985.71
4949.44
4917.9
4889.55
4864.76
4842.16
4822.33
4804.01
4787.91
4772.85
4759.64
4747.12
4736.14
4725.61
4716.43
4707.49
4699.75
4692.11
4685.54
4678.96
4673.37
4667.69
4662.89
4657.94
4653.82
4649.54
4645.94
4642.19
4639.14
4635.82
4633.15
4630.23
4627.91
4625.4
4623.38
4621.24
4619.56
4617.65
4616.05
4614.47
4613.08
4611.67
4610.45
4609.26
4608.33
4607.37
4606.51
4605.68
4605.08
4604.28
4603.72
4603.07
4602.72
4602.21
4601.96
4601.47
4601.22
4600.76
4600.53
4600.09
4599.93
4599.61
4599.59
4599.5
4599.62
4599.61
4599.91
4599.91
4600.44
4600.44
4601.19
4601.19
4602.08
4602.18
4603.22
4603.3
4604.67
4605.27
4636.9
4754
102453
8260.69
7564.2
7001.72
6562.62
6224.23
5963.07
5758.46
5596.03
5464.49
5356.9
5267.18
5192.08
5127.94
5073.33
5025.78
4984.8
4948.5
4916.94
4888.56
4863.75
4841.13
4821.29
4802.96
4786.84
4771.77
4758.55
4746.02
4735.03
4724.49
4715.3
4706.36
4698.61
4690.96
4684.38
4677.8
4672.21
4666.52
4661.72
4656.76
4652.64
4648.35
4644.75
4640.99
4637.94
4634.62
4631.95
4629.02
4626.7
4624.19
4622.17
4620.02
4618.34
4616.43
4614.83
4613.24
4611.86
4610.44
4609.21
4608.02
4607.09
4606.13
4605.27
4604.44
4603.83
4603.04
4602.48
4601.82
4601.47
4600.96
4600.71
4600.22
4599.97
4599.5
4599.28
4598.84
4598.68
4598.36
4598.34
4598.24
4598.36
4598.35
4598.65
4598.65
4599.17
4599.17
4599.92
4599.92
4600.81
4600.91
4601.95
4602.02
4603.39
4604
4635.87
4752.85
98557.8
8260.69
7564.23
7001.7
6562.49
6223.96
5962.65
5757.9
5595.36
5463.71
5356.04
5266.24
5191.07
5126.88
5072.22
5024.62
4983.6
4947.26
4915.67
4887.27
4862.43
4839.79
4819.93
4801.58
4785.44
4770.36
4757.13
4744.58
4733.58
4723.02
4713.83
4704.87
4697.12
4689.46
4682.88
4676.28
4670.68
4664.99
4660.18
4655.22
4651.09
4646.8
4643.2
4639.43
4636.37
4633.05
4630.38
4627.44
4625.12
4622.6
4620.58
4618.44
4616.75
4614.83
4613.23
4611.64
4610.26
4608.84
4607.61
4606.41
4605.48
4604.52
4603.65
4602.83
4602.22
4601.42
4600.86
4600.2
4599.85
4599.34
4599.08
4598.59
4598.34
4597.87
4597.65
4597.2
4597.05
4596.72
4596.7
4596.6
4596.71
4596.71
4597
4597
4597.52
4597.52
4598.26
4598.26
4599.15
4599.25
4600.28
4600.36
4601.72
4602.34
4634.52
4751.37
94699.6
8260.7
7564.27
7001.68
6562.32
6223.62
5962.14
5757.22
5594.53
5462.76
5354.98
5265.08
5189.83
5125.56
5070.84
5023.19
4982.12
4945.74
4914.11
4885.67
4860.8
4838.13
4818.25
4799.87
4783.72
4768.61
4755.36
4742.8
4731.78
4721.21
4712.01
4703.04
4695.27
4687.6
4681.01
4674.41
4668.8
4663.1
4658.28
4653.31
4649.18
4644.88
4641.27
4637.5
4634.44
4631.11
4628.43
4625.49
4623.16
4620.65
4618.62
4616.47
4614.77
4612.86
4611.25
4609.66
4608.27
4606.85
4605.62
4604.42
4603.49
4602.52
4601.65
4600.82
4600.21
4599.41
4598.85
4598.19
4597.83
4597.32
4597.06
4596.57
4596.33
4595.85
4595.63
4595.18
4595.03
4594.7
4594.67
4594.57
4594.68
4594.67
4594.96
4594.96
4595.47
4595.47
4596.21
4596.21
4597.1
4597.19
4598.22
4598.29
4599.66
4600.28
4632.86
4749.54
90897.7
8260.71
7564.31
7001.65
6562.13
6223.22
5961.52
5756.41
5593.55
5461.62
5353.7
5263.69
5188.34
5123.99
5069.2
5021.48
4980.35
4943.92
4912.24
4883.76
4858.86
4836.15
4816.23
4797.83
4781.65
4766.52
4753.25
4740.67
4729.63
4719.05
4709.83
4700.84
4693.06
4685.38
4678.78
4672.16
4666.55
4660.83
4656.01
4651.03
4646.89
4642.58
4638.97
4635.19
4632.12
4628.79
4626.1
4623.16
4620.82
4618.3
4616.27
4614.11
4612.42
4610.5
4608.89
4607.29
4605.9
4604.48
4603.24
4602.04
4601.1
4600.13
4599.26
4598.43
4597.81
4597.01
4596.45
4595.78
4595.43
4594.91
4594.65
4594.16
4593.91
4593.44
4593.21
4592.76
4592.6
4592.28
4592.25
4592.14
4592.24
4592.23
4592.52
4592.51
4593.02
4593.02
4593.76
4593.76
4594.64
4594.73
4595.76
4595.83
4597.19
4597.81
4630.87
4747.35
87160.8
8260.72
7564.36
7001.62
6561.91
6222.75
5960.8
5755.46
5592.39
5460.29
5352.22
5262.08
5186.61
5122.16
5067.28
5019.48
4978.28
4941.79
4910.06
4881.53
4856.58
4833.84
4813.89
4795.45
4779.24
4764.08
4750.79
4738.18
4727.13
4716.52
4707.28
4698.28
4690.49
4682.79
4676.17
4669.54
4663.92
4658.19
4653.36
4648.37
4644.22
4639.9
4636.28
4632.49
4629.42
4626.08
4623.39
4620.44
4618.09
4615.57
4613.53
4611.37
4609.66
4607.74
4606.13
4604.53
4603.13
4601.7
4600.46
4599.26
4598.31
4597.34
4596.47
4595.63
4595.01
4594.21
4593.64
4592.97
4592.61
4592.1
4591.83
4591.34
4591.09
4590.62
4590.39
4589.94
4589.78
4589.45
4589.42
4589.3
4589.4
4589.39
4589.66
4589.66
4590.17
4590.17
4590.89
4590.89
4591.77
4591.86
4592.88
4592.95
4594.31
4594.94
4628.55
4744.81
83491.6
8260.74
7564.42
7001.59
6561.66
6222.22
5959.99
5754.38
5591.08
5458.77
5350.53
5260.23
5184.63
5120.06
5065.08
5017.2
4975.92
4939.36
4907.56
4878.98
4853.98
4831.19
4811.2
4792.72
4776.48
4761.29
4747.97
4735.33
4724.25
4713.63
4704.37
4695.35
4687.53
4679.82
4673.19
4666.54
4660.9
4655.16
4650.32
4645.32
4641.16
4636.83
4633.2
4629.4
4626.32
4622.97
4620.27
4617.32
4614.97
4612.43
4610.39
4608.22
4606.51
4604.58
4602.96
4601.36
4599.96
4598.53
4597.28
4596.07
4595.12
4594.14
4593.27
4592.43
4591.81
4591
4590.43
4589.76
4589.39
4588.87
4588.61
4588.11
4587.86
4587.38
4587.16
4586.7
4586.54
4586.22
4586.17
4586.05
4586.14
4586.13
4586.4
4586.4
4586.89
4586.89
4587.61
4587.61
4588.48
4588.56
4589.58
4589.65
4591.01
4591.64
4625.9
4741.92
79888.4
8260.75
7564.49
7001.55
6561.37
6221.62
5959.07
5753.16
5589.6
5457.06
5348.62
5258.14
5182.4
5117.7
5062.61
5014.62
4973.25
4936.61
4904.75
4876.1
4851.04
4828.2
4808.16
4789.64
4773.36
4758.14
4744.78
4732.11
4721.01
4710.36
4701.07
4692.03
4684.2
4676.47
4669.81
4663.15
4657.5
4651.74
4646.89
4641.87
4637.7
4633.36
4629.72
4625.91
4622.82
4619.46
4616.75
4613.79
4611.43
4608.89
4606.84
4604.66
4602.95
4601.01
4599.39
4597.78
4596.37
4594.93
4593.69
4592.47
4591.51
4590.53
4589.65
4588.8
4588.18
4587.37
4586.8
4586.12
4585.75
4585.23
4584.96
4584.46
4584.21
4583.73
4583.5
4583.05
4582.88
4582.55
4582.51
4582.37
4582.46
4582.44
4582.7
4582.7
4583.19
4583.19
4583.89
4583.89
4584.76
4584.84
4585.86
4585.92
4587.28
4587.92
4622.92
4738.66
76345.4
8260.77
7564.56
7001.51
6561.06
6220.96
5958.05
5751.81
5587.95
5455.15
5346.49
5255.82
5179.91
5115.06
5059.84
5011.74
4970.27
4933.54
4901.6
4872.88
4847.76
4824.86
4804.77
4786.2
4769.88
4754.61
4741.22
4728.52
4717.39
4706.7
4697.39
4688.33
4680.47
4672.72
4666.05
4659.37
4653.69
4647.92
4643.05
4638.02
4633.84
4629.48
4625.83
4622.01
4618.91
4615.54
4612.82
4609.85
4607.48
4604.93
4602.87
4600.69
4598.96
4597.02
4595.39
4593.77
4592.36
4590.92
4589.67
4588.44
4587.48
4586.49
4585.61
4584.76
4584.13
4583.32
4582.74
4582.06
4581.69
4581.16
4580.89
4580.38
4580.13
4579.65
4579.42
4578.96
4578.79
4578.46
4578.41
4578.26
4578.35
4578.33
4578.58
4578.58
4579.05
4579.05
4579.75
4579.75
4580.61
4580.69
4581.69
4581.75
4583.11
4583.76
4619.6
4735.05
72858.3
8260.79
7564.64
7001.47
6560.72
6220.23
5956.92
5750.31
5586.13
5453.05
5344.14
5253.26
5177.16
5112.15
5056.79
5008.56
4966.98
4930.15
4898.12
4869.33
4844.13
4821.17
4801.02
4782.4
4766.03
4750.72
4737.28
4724.55
4713.38
4702.66
4693.33
4684.23
4676.35
4668.57
4661.88
4655.18
4649.49
4643.7
4638.81
4633.76
4629.56
4625.19
4621.53
4617.69
4614.58
4611.2
4608.47
4605.49
4603.11
4600.55
4598.48
4596.29
4594.56
4592.61
4590.97
4589.34
4587.93
4586.48
4585.22
4583.99
4583.02
4582.03
4581.14
4580.28
4579.65
4578.83
4578.25
4577.56
4577.18
4576.65
4576.38
4575.87
4575.61
4575.13
4574.9
4574.44
4574.27
4573.94
4573.88
4573.72
4573.8
4573.77
4574.01
4574.01
4574.47
4574.47
4575.16
4575.16
4576.01
4576.08
4577.08
4577.14
4578.5
4579.16
4615.92
4731.08
69433.6
8260.81
7564.73
7001.42
6560.35
6219.44
5955.69
5748.68
5584.14
5450.74
5341.56
5250.45
5174.15
5108.96
5053.44
5005.07
4963.37
4926.44
4894.31
4865.42
4840.16
4817.12
4796.9
4778.22
4761.8
4746.44
4732.96
4720.19
4708.98
4698.23
4688.86
4679.73
4671.83
4664.02
4657.3
4650.58
4644.87
4639.06
4634.15
4629.08
4624.87
4620.48
4616.8
4612.96
4609.83
4606.44
4603.7
4600.7
4598.31
4595.74
4593.67
4591.46
4589.72
4587.76
4586.12
4584.48
4583.06
4581.6
4580.34
4579.09
4578.12
4577.12
4576.23
4575.36
4574.72
4573.9
4573.32
4572.62
4572.24
4571.7
4571.42
4570.91
4570.65
4570.17
4569.93
4569.47
4569.29
4568.96
4568.9
4568.73
4568.81
4568.77
4569
4568.99
4569.44
4569.44
4570.12
4570.12
4570.96
4571.03
4572.02
4572.07
4573.43
4574.1
4611.9
4726.74
66077.4
8260.83
7564.82
7001.38
6559.95
6218.58
5954.36
5746.91
5581.98
5448.24
5338.77
5247.39
5170.87
5105.48
5049.79
5001.28
4959.44
4922.38
4890.15
4861.17
4835.82
4812.7
4792.42
4773.67
4757.19
4741.78
4728.25
4715.43
4704.18
4693.39
4683.99
4674.83
4666.89
4659.05
4652.31
4645.56
4639.83
4633.99
4629.07
4623.98
4619.75
4615.35
4611.65
4607.79
4604.64
4601.24
4598.49
4595.48
4593.08
4590.49
4588.41
4586.19
4584.44
4582.47
4580.82
4579.17
4577.74
4576.28
4575.01
4573.76
4572.78
4571.77
4570.87
4569.99
4569.35
4568.52
4567.93
4567.23
4566.85
4566.3
4566.02
4565.5
4565.24
4564.75
4564.52
4564.05
4563.87
4563.54
4563.47
4563.29
4563.35
4563.31
4563.53
4563.52
4563.96
4563.96
4564.62
4564.62
4565.45
4565.52
4566.5
4566.54
4567.9
4568.59
4607.51
4722.04
62795.3
8260.85
7564.92
7001.33
6559.52
6217.66
5952.93
5745.01
5579.65
5445.54
5335.74
5244.09
5167.32
5101.72
5045.85
4997.16
4955.19
4918
4885.65
4856.57
4831.12
4807.92
4787.56
4768.74
4752.2
4736.73
4723.15
4710.27
4698.98
4688.15
4678.71
4669.51
4661.54
4653.67
4646.9
4640.12
4634.36
4628.5
4623.56
4618.45
4614.2
4609.77
4606.06
4602.18
4599.02
4595.6
4592.83
4589.81
4587.4
4584.8
4582.7
4580.47
4578.71
4576.74
4575.08
4573.42
4571.98
4570.5
4569.23
4567.97
4566.98
4565.96
4565.06
4564.17
4563.53
4562.69
4562.1
4561.38
4560.99
4560.44
4560.15
4559.63
4559.37
4558.88
4558.64
4558.17
4557.98
4557.65
4557.57
4557.38
4557.44
4557.38
4557.59
4557.59
4558.01
4558.01
4558.65
4558.65
4559.47
4559.53
4560.51
4560.55
4561.9
4562.61
4602.75
4716.97
59592.5
8260.87
7565.03
7001.28
6559.06
6216.67
5951.4
5742.96
5577.14
5442.63
5332.48
5240.53
5163.5
5097.67
5041.59
4992.73
4950.6
4913.27
4880.8
4851.6
4826.05
4802.76
4782.32
4763.42
4746.81
4731.28
4717.64
4704.71
4693.37
4682.49
4673.01
4663.77
4655.77
4647.86
4641.06
4634.25
4628.46
4622.58
4617.61
4612.47
4608.2
4603.76
4600.03
4596.13
4592.95
4589.51
4586.73
4583.69
4581.27
4578.66
4576.55
4574.3
4572.53
4570.54
4568.87
4567.2
4565.76
4564.27
4562.99
4561.71
4560.72
4559.69
4558.79
4557.88
4557.23
4556.39
4555.79
4555.07
4554.68
4554.11
4553.82
4553.3
4553.03
4552.54
4552.29
4551.82
4551.63
4551.29
4551.21
4551
4551.05
4550.99
4551.18
4551.18
4551.58
4551.58
4552.21
4552.21
4553.02
4553.07
4554.04
4554.07
4555.43
4556.15
4597.62
4711.53
56473.9
8260.89
7565.15
7001.23
6558.58
6215.62
5949.76
5740.77
5574.46
5439.52
5329
5236.72
5159.41
5093.33
5037.03
4987.98
4945.68
4908.19
4875.59
4846.27
4820.61
4797.22
4776.69
4757.71
4741.03
4725.42
4711.72
4698.74
4687.34
4676.41
4666.89
4657.6
4649.56
4641.62
4634.79
4627.94
4622.13
4616.21
4611.22
4606.06
4601.76
4597.3
4593.55
4589.62
4586.43
4582.97
4580.18
4577.12
4574.68
4572.05
4569.93
4567.67
4565.89
4563.89
4562.21
4560.52
4559.07
4557.57
4556.28
4555
4553.99
4552.95
4552.04
4551.13
4550.47
4549.62
4549.02
4548.29
4547.89
4547.31
4547.02
4546.49
4546.22
4545.72
4545.47
4544.99
4544.8
4544.46
4544.37
4544.15
4544.19
4544.12
4544.3
4544.29
4544.67
4544.67
4545.28
4545.28
4546.08
4546.13
4547.08
4547.12
4548.47
4549.21
4592.09
4705.72
53444
8260.92
7565.28
7001.18
6558.07
6214.51
5948.02
5738.44
5571.61
5436.2
5325.28
5232.65
5155.03
5088.69
5032.16
4982.9
4940.42
4902.77
4870.02
4840.57
4814.79
4791.29
4770.67
4751.6
4734.84
4719.16
4705.39
4692.34
4680.9
4669.91
4660.33
4651.01
4642.92
4634.94
4628.07
4621.19
4615.35
4609.4
4604.38
4599.19
4594.87
4590.38
4586.61
4582.66
4579.45
4575.97
4573.16
4570.09
4567.63
4564.98
4562.85
4560.57
4558.77
4556.76
4555.07
4553.37
4551.91
4550.4
4549.1
4547.8
4546.79
4545.74
4544.82
4543.89
4543.23
4542.37
4541.76
4541.02
4540.61
4540.03
4539.73
4539.19
4538.92
4538.42
4538.17
4537.69
4537.49
4537.14
4537.04
4536.82
4536.84
4536.76
4536.92
4536.91
4537.28
4537.28
4537.87
4537.87
4538.66
4538.7
4539.64
4539.66
4541.01
4541.78
4586.16
4699.55
50506.9
8260.94
7565.41
7001.13
6557.53
6213.33
5946.18
5735.97
5568.58
5432.68
5321.33
5228.32
5150.38
5083.75
5026.98
4977.49
4934.81
4896.99
4864.09
4834.49
4808.59
4784.98
4764.25
4745.09
4728.24
4712.48
4698.65
4685.53
4674.02
4662.97
4653.35
4643.97
4635.84
4627.82
4620.91
4613.99
4608.11
4602.13
4597.08
4591.86
4587.51
4583
4579.2
4575.23
4572
4568.5
4565.67
4562.58
4560.1
4557.44
4555.29
4552.99
4551.18
4549.16
4547.45
4545.74
4544.27
4542.75
4541.44
4540.13
4539.1
4538.04
4537.11
4536.18
4535.5
4534.63
4534.02
4533.27
4532.85
4532.26
4531.96
4531.41
4531.14
4530.63
4530.37
4529.88
4529.68
4529.32
4529.22
4528.99
4529
4528.9
4529.06
4529.04
4529.39
4529.38
4529.95
4529.96
4530.73
4530.76
4531.69
4531.71
4533.06
4533.85
4579.82
4693.01
47666.4
8260.97
7565.55
7001.08
6556.97
6212.1
5944.24
5733.36
5565.37
5428.95
5317.14
5223.74
5145.45
5078.52
5021.48
4971.75
4928.87
4890.86
4857.79
4828.04
4802.01
4778.27
4757.43
4738.17
4721.23
4705.38
4691.47
4678.28
4666.71
4655.6
4645.92
4636.49
4628.31
4620.24
4613.29
4606.33
4600.42
4594.4
4589.32
4584.07
4579.69
4575.15
4571.33
4567.33
4564.08
4560.56
4557.7
4554.59
4552.1
4549.42
4547.25
4544.94
4543.11
4541.07
4539.35
4537.63
4536.14
4534.61
4533.29
4531.96
4530.92
4529.85
4528.92
4527.96
4527.28
4526.4
4525.78
4525.02
4524.6
4524
4523.68
4523.13
4522.85
4522.34
4522.08
4521.59
4521.37
4521.01
4520.9
4520.66
4520.66
4520.55
4520.69
4520.66
4520.99
4520.99
4521.54
4521.54
4522.3
4522.33
4523.23
4523.25
4524.6
4525.41
4573.04
4686.1
44925.9
8260.99
7565.7
7001.03
6556.39
6210.8
5942.2
5730.62
5562
5425.01
5312.72
5218.89
5140.24
5072.98
5015.65
4965.68
4922.57
4884.36
4851.11
4821.21
4795.03
4771.16
4750.21
4730.84
4713.8
4697.86
4683.87
4670.6
4658.96
4647.79
4638.05
4628.56
4620.33
4612.21
4605.22
4598.22
4592.26
4586.21
4581.09
4575.8
4571.4
4566.82
4562.98
4558.95
4555.67
4552.13
4549.26
4546.12
4543.61
4540.91
4538.72
4536.39
4534.54
4532.49
4530.76
4529.02
4527.52
4525.97
4524.64
4523.3
4522.25
4521.16
4520.22
4519.25
4518.56
4517.67
4517.04
4516.27
4515.84
4515.23
4514.91
4514.35
4514.06
4513.54
4513.28
4512.78
4512.56
4512.19
4512.08
4511.83
4511.81
4511.68
4511.81
4511.77
4512.08
4512.08
4512.61
4512.61
4513.35
4513.37
4514.26
4514.28
4515.62
4516.47
4565.8
4678.78
42288.5
8261.02
7565.86
7000.98
6555.78
6209.45
5940.06
5727.74
5558.45
5420.87
5308.07
5213.79
5134.74
5067.14
5009.51
4959.27
4915.92
4877.5
4844.07
4813.99
4787.66
4763.65
4742.57
4723.09
4705.95
4689.91
4675.83
4662.48
4650.77
4639.53
4629.72
4620.17
4611.89
4603.72
4596.68
4589.63
4583.63
4577.54
4572.38
4567.06
4562.63
4558.02
4554.15
4550.09
4546.78
4543.21
4540.32
4537.16
4534.63
4531.91
4529.7
4527.35
4525.48
4523.41
4521.67
4519.91
4518.4
4516.83
4515.49
4514.13
4513.07
4511.96
4511.02
4510.03
4509.34
4508.43
4507.8
4507.02
4506.57
4505.95
4505.62
4505.05
4504.76
4504.24
4503.97
4503.46
4503.24
4502.86
4502.74
4502.48
4502.45
4502.3
4502.41
4502.37
4502.66
4502.66
4503.16
4503.16
4503.88
4503.9
4504.77
4504.78
4506.12
4507
4558.09
4671.04
39756.9
8261.05
7566.03
7000.93
6555.15
6208.04
5937.82
5724.72
5554.72
5416.52
5303.18
5208.42
5128.96
5060.99
5003.05
4952.52
4908.92
4870.28
4836.64
4806.38
4779.9
4755.74
4734.53
4714.92
4697.67
4681.53
4667.36
4653.92
4642.13
4630.81
4620.94
4611.32
4602.99
4594.76
4587.67
4580.57
4574.53
4568.39
4563.2
4557.84
4553.37
4548.72
4544.82
4540.74
4537.4
4533.81
4530.89
4527.71
4525.15
4522.4
4520.18
4517.8
4515.92
4513.83
4512.07
4510.29
4508.77
4507.18
4505.83
4504.45
4503.38
4502.26
4501.3
4500.3
4499.59
4498.68
4498.04
4497.24
4496.79
4496.15
4495.82
4495.24
4494.94
4494.41
4494.14
4493.63
4493.39
4493.01
4492.87
4492.61
4492.56
4492.4
4492.5
4492.44
4492.71
4492.7
4493.18
4493.18
4493.88
4493.89
4494.75
4494.75
4496.09
4497
4549.89
4662.83
37333.4
8261.07
7566.2
7000.89
6554.51
6206.57
5935.49
5721.56
5550.82
5411.97
5298.05
5202.79
5122.89
5054.54
4996.26
4945.43
4901.57
4862.68
4828.84
4798.39
4771.73
4747.41
4726.06
4706.32
4688.96
4672.71
4658.44
4644.91
4633.03
4621.64
4611.7
4602.01
4593.61
4585.32
4578.18
4571.03
4564.94
4558.76
4553.53
4548.13
4543.62
4538.94
4535.01
4530.88
4527.52
4523.9
4520.95
4517.75
4515.17
4512.39
4510.15
4507.75
4505.85
4503.74
4501.96
4500.16
4498.62
4497.02
4495.66
4494.26
4493.17
4492.03
4491.07
4490.05
4489.33
4488.41
4487.75
4486.94
4486.48
4485.83
4485.49
4484.9
4484.59
4484.06
4483.78
4483.26
4483.02
4482.63
4482.48
4482.21
4482.15
4481.97
4482.05
4481.98
4482.23
4482.22
4482.67
4482.67
4483.35
4483.36
4484.19
4484.19
4485.52
4486.47
4541.16
4654.11
35020.2
8261.1
7566.38
7000.85
6553.84
6205.05
5933.07
5718.28
5546.76
5407.21
5292.69
5196.9
5116.54
5047.78
4989.14
4937.99
4893.86
4854.72
4820.65
4789.99
4763.16
4738.67
4717.17
4697.3
4679.81
4663.44
4649.07
4635.44
4623.48
4612
4601.98
4592.23
4583.77
4575.41
4568.22
4561.01
4554.87
4548.64
4543.36
4537.92
4533.37
4528.65
4524.69
4520.53
4517.14
4513.48
4510.51
4507.28
4504.67
4501.87
4499.6
4497.18
4495.26
4493.13
4491.33
4489.51
4487.96
4486.34
4484.96
4483.55
4482.44
4481.29
4480.31
4479.27
4478.54
4477.6
4476.94
4476.12
4475.64
4474.98
4474.63
4474.03
4473.72
4473.17
4472.89
4472.36
4472.11
4471.71
4471.56
4471.27
4471.2
4471.01
4471.07
4470.99
4471.21
4471.2
4471.62
4471.62
4472.27
4472.28
4473.08
4473.08
4474.41
4475.4
4531.88
4644.85
32818.9
8261.12
7566.56
7000.82
6553.16
6203.49
5930.56
5714.86
5542.52
5402.25
5287.09
5190.74
5109.9
5040.71
4981.7
4930.22
4885.78
4846.38
4812.08
4781.21
4754.18
4729.52
4707.86
4687.84
4670.22
4653.74
4639.25
4625.52
4613.47
4601.9
4591.8
4581.97
4573.44
4565.02
4557.76
4550.5
4544.31
4538.02
4532.7
4527.21
4522.63
4517.86
4513.86
4509.67
4506.25
4502.56
4499.56
4496.29
4493.66
4490.84
4488.54
4486.09
4484.14
4481.99
4480.18
4478.34
4476.77
4475.13
4473.74
4472.3
4471.18
4470.01
4469.02
4467.96
4467.22
4466.27
4465.59
4464.76
4464.27
4463.59
4463.23
4462.62
4462.3
4461.75
4461.46
4460.92
4460.66
4460.25
4460.09
4459.79
4459.71
4459.5
4459.54
4459.45
4459.64
4459.63
4460.02
4460.02
4460.65
4460.65
4461.43
4461.43
4462.75
4463.78
4522.01
4635.01
30731.2
8261.15
7566.76
7000.78
6552.46
6201.87
5927.96
5711.31
5538.12
5397.09
5281.26
5184.33
5102.98
5033.33
4973.93
4922.09
4877.35
4837.66
4803.11
4772.02
4744.79
4719.94
4698.12
4677.95
4660.2
4643.58
4628.98
4615.14
4602.99
4591.32
4581.15
4571.23
4562.63
4554.14
4546.82
4539.49
4533.25
4526.91
4521.54
4516
4511.37
4506.57
4502.53
4498.3
4494.84
4491.11
4488.08
4484.79
4482.13
4479.27
4476.96
4474.48
4472.51
4470.33
4468.5
4466.63
4465.05
4463.39
4461.98
4460.52
4459.39
4458.19
4457.19
4456.11
4455.36
4454.39
4453.71
4452.85
4452.35
4451.66
4451.29
4450.66
4450.34
4449.78
4449.48
4448.94
4448.67
4448.25
4448.08
4447.77
4447.67
4447.45
4447.47
4447.36
4447.53
4447.51
4447.87
4447.87
4448.47
4448.47
4449.22
4449.22
4450.53
4451.6
4511.5
4624.53
28758.3
8261.18
7566.96
7000.76
6551.74
6200.2
5925.27
5707.64
5533.55
5391.72
5275.2
5177.65
5095.77
5025.65
4965.83
4913.62
4868.55
4828.57
4793.76
4762.43
4734.99
4709.95
4687.96
4667.62
4649.72
4632.97
4618.25
4604.29
4592.04
4580.27
4570.01
4560.01
4551.33
4542.76
4535.38
4527.99
4521.69
4515.29
4509.87
4504.28
4499.61
4494.75
4490.68
4486.4
4482.91
4479.15
4476.09
4472.76
4470.07
4467.18
4464.84
4462.33
4460.34
4458.14
4456.29
4454.39
4452.79
4451.1
4449.68
4448.2
4447.05
4445.83
4444.82
4443.72
4442.95
4441.97
4441.27
4440.4
4439.89
4439.18
4438.8
4438.16
4437.83
4437.26
4436.95
4436.4
4436.12
4435.69
4435.51
4435.19
4435.08
4434.84
4434.84
4434.71
4434.86
4434.83
4435.16
4435.16
4435.73
4435.73
4436.45
4436.44
4437.75
4438.87
4500.32
4613.4
26901.4
8261.2
7567.17
7000.74
6551.02
6198.49
5922.49
5703.84
5528.82
5386.16
5268.91
5170.72
5088.27
5017.66
4957.4
4904.81
4859.4
4819.11
4784.02
4752.44
4724.78
4699.53
4677.36
4656.85
4638.8
4621.9
4607.06
4592.98
4580.62
4568.75
4558.39
4548.3
4539.54
4530.9
4523.45
4515.98
4509.62
4503.16
4497.69
4492.05
4487.32
4482.42
4478.31
4473.99
4470.46
4466.66
4463.56
4460.2
4457.48
4454.56
4452.19
4449.65
4447.63
4445.41
4443.53
4441.61
4439.99
4438.28
4436.84
4435.34
4434.17
4432.93
4431.9
4430.78
4430
4428.99
4428.29
4427.4
4426.87
4426.15
4425.75
4425.1
4424.76
4424.18
4423.87
4423.31
4423.02
4422.58
4422.38
4422.04
4421.93
4421.68
4421.65
4421.51
4421.63
4421.59
4421.89
4421.89
4422.42
4422.42
4423.11
4423.1
4424.4
4425.56
4488.45
4601.56
25161.6
8261.22
7567.38
7000.72
6550.28
6196.74
5919.64
5699.93
5523.93
5380.4
5262.39
5163.53
5080.5
5009.36
4948.65
4895.65
4849.88
4809.26
4773.89
4742.05
4714.15
4688.69
4666.32
4645.64
4627.43
4610.38
4595.4
4581.19
4568.72
4556.74
4546.29
4536.1
4527.26
4518.53
4511.01
4503.47
4497.05
4490.52
4485
4479.3
4474.52
4469.57
4465.41
4461.05
4457.48
4453.63
4450.5
4447.1
4444.36
4441.4
4439
4436.43
4434.38
4432.13
4430.23
4428.28
4426.64
4424.91
4423.45
4421.92
4420.73
4419.47
4418.43
4417.28
4416.48
4415.46
4414.75
4413.84
4413.3
4412.55
4412.15
4411.48
4411.13
4410.54
4410.22
4409.65
4409.35
4408.9
4408.69
4408.34
4408.21
4407.94
4407.9
4407.73
4407.84
4407.78
4408.05
4408.04
4408.54
4408.55
4409.19
4409.19
4410.48
4411.68
4475.86
4588.99
23539.6
8261.25
7567.6
7000.71
6549.53
6194.94
5916.71
5695.89
5518.89
5374.46
5255.65
5156.09
5072.44
5000.76
4939.57
4886.14
4840
4799.04
4763.37
4731.25
4703.11
4677.42
4654.86
4633.98
4615.61
4598.4
4583.28
4568.94
4556.35
4544.25
4533.7
4523.41
4514.48
4505.67
4498.07
4490.45
4483.96
4477.37
4471.78
4466.02
4461.2
4456.19
4451.99
4447.57
4443.96
4440.08
4436.91
4433.47
4430.69
4427.7
4425.27
4422.66
4420.58
4418.3
4416.38
4414.4
4412.74
4410.98
4409.51
4407.95
4406.74
4405.45
4404.4
4403.23
4402.41
4401.37
4400.64
4399.72
4399.16
4398.4
4397.98
4397.3
4396.94
4396.33
4396.01
4395.43
4395.12
4394.65
4394.43
4394.06
4393.92
4393.64
4393.58
4393.39
4393.47
4393.4
4393.64
4393.62
4394.09
4394.09
4394.7
4394.7
4395.99
4397.22
4462.57
4575.64
22032
8261.27
7567.83
7000.71
6548.78
6193.11
5913.71
5691.74
5513.69
5368.32
5248.68
5148.39
5064.1
4991.85
4930.17
4876.29
4829.75
4788.44
4752.46
4720.05
4691.65
4665.73
4642.95
4621.88
4603.33
4585.96
4570.69
4556.21
4543.49
4531.27
4520.61
4510.22
4501.2
4492.29
4484.62
4476.92
4470.36
4463.7
4458.05
4452.23
4447.35
4442.29
4438.03
4433.57
4429.91
4425.98
4422.78
4419.3
4416.48
4413.45
4410.99
4408.34
4406.23
4403.92
4401.98
4399.97
4398.29
4396.5
4395
4393.42
4392.19
4390.87
4389.8
4388.61
4387.78
4386.72
4385.97
4385.03
4384.45
4383.67
4383.24
4382.54
4382.17
4381.55
4381.22
4380.63
4380.31
4379.82
4379.59
4379.21
4379.06
4378.76
4378.68
4378.47
4378.53
4378.44
4378.64
4378.62
4379.05
4379.06
4379.63
4379.63
4380.9
4382.18
4448.56
4561.48
20634
8261.29
7568.07
7000.72
6548.01
6191.25
5910.63
5687.48
5508.35
5361.99
5241.5
5140.44
5055.49
4982.65
4920.44
4866.1
4819.15
4777.47
4741.15
4708.44
4679.78
4653.61
4630.61
4609.33
4590.6
4573.05
4557.63
4543
4530.16
4517.81
4507.04
4496.54
4487.42
4478.42
4470.65
4462.88
4456.24
4449.5
4443.79
4437.9
4432.97
4427.84
4423.54
4419.02
4415.32
4411.34
4408.1
4404.58
4401.72
4398.65
4396.16
4393.47
4391.33
4388.99
4387.02
4384.98
4383.27
4381.45
4379.94
4378.33
4377.08
4375.73
4374.64
4373.43
4372.57
4371.49
4370.73
4369.77
4369.18
4368.37
4367.92
4367.21
4366.83
4366.2
4365.86
4365.25
4364.92
4364.42
4364.18
4363.78
4363.61
4363.3
4363.21
4362.97
4363
4362.89
4363.07
4363.04
4363.43
4363.44
4363.97
4363.97
4365.23
4366.54
4433.83
4546.48
19340.9
8261.3
7568.3
7000.74
6547.25
6189.35
5907.49
5683.12
5502.86
5355.49
5234.1
5132.25
5046.6
4973.14
4910.39
4855.57
4808.19
4766.12
4729.46
4696.43
4667.49
4641.06
4617.83
4596.34
4577.41
4559.69
4544.11
4529.32
4516.34
4503.86
4492.97
4482.35
4473.14
4464.03
4456.18
4448.31
4441.6
4434.79
4429.01
4423.05
4418.05
4412.87
4408.52
4403.94
4400.19
4396.16
4392.87
4389.31
4386.41
4383.3
4380.77
4378.05
4375.87
4373.5
4371.5
4369.43
4367.69
4365.85
4364.31
4362.67
4361.39
4360.02
4358.91
4357.67
4356.8
4355.69
4354.92
4353.93
4353.32
4352.5
4352.03
4351.31
4350.91
4350.27
4349.91
4349.3
4348.95
4348.44
4348.18
4347.76
4347.58
4347.25
4347.14
4346.89
4346.9
4346.77
4346.91
4346.87
4347.23
4347.23
4347.72
4347.71
4348.97
4350.31
4418.37
4530.59
18147.4
8261.32
7568.55
7000.76
6546.48
6187.43
5904.29
5678.65
5497.23
5348.81
5226.49
5123.82
5037.44
4963.35
4900.03
4844.7
4796.87
4754.4
4717.38
4684.02
4654.79
4628.09
4604.62
4582.9
4563.78
4545.86
4530.11
4515.16
4502.03
4489.42
4478.4
4467.67
4458.34
4449.14
4441.19
4433.24
4426.44
4419.54
4413.69
4407.67
4402.6
4397.35
4392.95
4388.31
4384.51
4380.43
4377.1
4373.49
4370.55
4367.4
4364.83
4362.06
4359.86
4357.44
4355.42
4353.31
4351.55
4349.67
4348.11
4346.44
4345.14
4343.73
4342.61
4341.34
4340.45
4339.32
4338.53
4337.52
4336.89
4336.04
4335.56
4334.82
4334.4
4333.75
4333.38
4332.76
4332.4
4331.87
4331.6
4331.16
4330.97
4330.62
4330.49
4330.23
4330.2
4330.05
4330.17
4330.11
4330.43
4330.43
4330.87
4330.87
4332.11
4333.48
4402.18
4513.78
17048
8261.33
7568.8
7000.79
6545.72
6185.48
5901.02
5674.09
5491.46
5341.96
5218.67
5115.15
5028.02
4953.26
4889.35
4833.49
4785.2
4742.3
4704.91
4671.21
4641.67
4614.69
4590.97
4569.01
4549.68
4531.57
4515.64
4500.52
4487.25
4474.49
4463.34
4452.48
4443.05
4433.73
4425.69
4417.64
4410.76
4403.78
4397.85
4391.75
4386.62
4381.3
4376.84
4372.14
4368.29
4364.15
4360.77
4357.11
4354.13
4350.93
4348.33
4345.52
4343.28
4340.83
4338.77
4336.62
4334.84
4332.92
4331.34
4329.64
4328.31
4326.87
4325.73
4324.43
4323.52
4322.36
4321.56
4320.52
4319.88
4319.01
4318.51
4317.74
4317.32
4316.65
4316.27
4315.63
4315.26
4314.71
4314.42
4313.97
4313.76
4313.39
4313.25
4312.97
4312.92
4312.74
4312.83
4312.75
4313.03
4313.03
4313.43
4313.42
4314.66
4316.05
4385.26
4496.03
16037.2
8261.35
7569.05
7000.84
6544.95
6183.52
5897.71
5669.44
5485.57
5334.94
5210.66
5106.24
5018.34
4942.88
4878.36
4821.96
4773.18
4729.84
4692.06
4658
4628.15
4600.87
4576.89
4554.68
4535.14
4516.81
4500.7
4485.41
4471.98
4459.06
4447.79
4436.79
4427.25
4417.81
4409.67
4401.52
4394.55
4387.48
4381.48
4375.3
4370.1
4364.71
4360.19
4355.42
4351.51
4347.32
4343.89
4340.18
4337.16
4333.91
4331.26
4328.41
4326.13
4323.64
4321.56
4319.37
4317.55
4315.6
4314
4312.26
4310.91
4309.44
4308.28
4306.94
4306.01
4304.83
4304
4302.94
4302.28
4301.38
4300.87
4300.08
4299.64
4298.95
4298.57
4297.91
4297.52
4296.96
4296.66
4296.18
4295.96
4295.57
4295.42
4295.11
4295.04
4294.83
4294.89
4294.79
4295.04
4295.03
4295.4
4295.38
4296.6
4298.01
4367.59
4477.3
15108.9
8261.36
7569.31
7000.89
6544.19
6181.53
5894.35
5664.7
5479.55
5327.76
5202.45
5097.11
5008.4
4932.22
4867.07
4810.09
4760.81
4717.01
4678.83
4644.4
4614.21
4586.63
4562.37
4539.91
4520.14
4501.6
4485.3
4469.82
4456.23
4443.15
4431.74
4420.61
4410.94
4401.38
4393.14
4384.88
4377.82
4370.66
4364.57
4358.31
4353.04
4347.58
4342.99
4338.16
4334.19
4329.94
4326.46
4322.7
4319.63
4316.33