/*--------------------------------*- C++ -*----------------------------------*\
| =========                 |                                                 |
| \\      /  F ield         | OpenFOAM: The Open Source CFD Toolbox           |
|  \\    /   O peration     | Version:  v2012                                 |
|   \\  /    A nd           | Website:  www.openfoam.com                      |
|    \\/     M anipulation  |                                                 |
\*---------------------------------------------------------------------------*/
FoamFile
{
    version     2.0;
    format      ascii;
    class       volVectorField;
    location    "34";
    object      wallShearStress;
}
// * * * * * * * * * * * * * * * * * * * * * * * * * * * * * * * * * * * * * //

dimensions      [0 2 -2 0 0 0 0];


internalField   uniform (0 0 0);

boundaryField
{
    inlet
    {
        type            calculated;
        value           uniform (0 0 0);
    }
    outlet
    {
        type            calculated;
        value           uniform (0 0 0);
    }
    topWall
    {
        type            calculated;
        value           nonuniform List<vector> 
545
(
(3.66789e-08 -2.58185e-08 0)
(3.66678e-08 -7.22261e-08 0)
(3.66467e-08 -1.20483e-07 0)
(3.66175e-08 -1.67343e-07 0)
(3.6581e-08 -2.12207e-07 0)
(3.65379e-08 -2.55653e-07 0)
(3.64887e-08 -2.98049e-07 0)
(3.64338e-08 -3.39375e-07 0)
(3.63737e-08 -3.79542e-07 0)
(3.63088e-08 -4.18547e-07 0)
(3.62397e-08 -4.56444e-07 0)
(3.61666e-08 -4.93275e-07 0)
(3.60901e-08 -5.29065e-07 0)
(3.60105e-08 -5.63836e-07 0)
(3.59281e-08 -5.97612e-07 0)
(3.58432e-08 -6.30421e-07 0)
(3.57561e-08 -6.62287e-07 0)
(3.56672e-08 -6.93237e-07 0)
(3.55766e-08 -7.23295e-07 0)
(3.54847e-08 -7.52485e-07 0)
(3.53916e-08 -7.80832e-07 0)
(3.52976e-08 -8.08358e-07 0)
(3.52028e-08 -8.35086e-07 0)
(3.51075e-08 -8.61039e-07 0)
(3.50118e-08 -8.8624e-07 0)
(3.49159e-08 -9.10708e-07 0)
(3.48199e-08 -9.34466e-07 0)
(3.4724e-08 -9.57534e-07 0)
(3.46283e-08 -9.79932e-07 0)
(3.45329e-08 -1.00168e-06 0)
(3.4438e-08 -1.02279e-06 0)
(3.43435e-08 -1.0433e-06 0)
(3.42497e-08 -1.0632e-06 0)
(3.41566e-08 -1.08253e-06 0)
(3.40642e-08 -1.1013e-06 0)
(3.39727e-08 -1.11952e-06 0)
(3.38821e-08 -1.13722e-06 0)
(3.37925e-08 -1.1544e-06 0)
(3.37039e-08 -1.17109e-06 0)
(3.36163e-08 -1.18729e-06 0)
(3.35299e-08 -1.20303e-06 0)
(3.34446e-08 -1.21831e-06 0)
(3.33604e-08 -1.23315e-06 0)
(3.32775e-08 -1.24757e-06 0)
(3.31958e-08 -1.26156e-06 0)
(3.31153e-08 -1.27516e-06 0)
(3.30361e-08 -1.28837e-06 0)
(3.29581e-08 -1.30119e-06 0)
(3.28815e-08 -1.31365e-06 0)
(3.28061e-08 -1.32576e-06 0)
(3.2732e-08 -1.33751e-06 0)
(3.26593e-08 -1.34894e-06 0)
(3.25878e-08 -1.36003e-06 0)
(3.25176e-08 -1.37081e-06 0)
(3.24487e-08 -1.38129e-06 0)
(3.23812e-08 -1.39146e-06 0)
(3.23149e-08 -1.40135e-06 0)
(3.22498e-08 -1.41096e-06 0)
(3.21861e-08 -1.42029e-06 0)
(3.21236e-08 -1.42936e-06 0)
(3.20624e-08 -1.43818e-06 0)
(3.20024e-08 -1.44674e-06 0)
(3.19436e-08 -1.45507e-06 0)
(3.18861e-08 -1.46316e-06 0)
(3.18297e-08 -1.47102e-06 0)
(3.17745e-08 -1.47866e-06 0)
(3.17205e-08 -1.48609e-06 0)
(3.16677e-08 -1.49331e-06 0)
(3.1616e-08 -1.50033e-06 0)
(3.15654e-08 -1.50715e-06 0)
(3.15158e-08 -1.51378e-06 0)
(3.14676e-08 -1.52022e-06 0)
(3.14208e-08 -1.52642e-06 0)
(3.13749e-08 -1.53243e-06 0)
(3.13294e-08 -1.53837e-06 0)
(3.1284e-08 -1.54429e-06 0)
(3.12387e-08 -1.55018e-06 0)
(3.11934e-08 -1.55604e-06 0)
(3.11482e-08 -1.56186e-06 0)
(3.1103e-08 -1.56764e-06 0)
(3.10579e-08 -1.57339e-06 0)
(3.10127e-08 -1.57911e-06 0)
(3.09677e-08 -1.58479e-06 0)
(3.09227e-08 -1.59043e-06 0)
(3.08777e-08 -1.59605e-06 0)
(3.08328e-08 -1.60162e-06 0)
(3.07879e-08 -1.60717e-06 0)
(3.07431e-08 -1.61268e-06 0)
(3.06983e-08 -1.61816e-06 0)
(3.06536e-08 -1.6236e-06 0)
(3.0609e-08 -1.62902e-06 0)
(3.05644e-08 -1.6344e-06 0)
(3.05198e-08 -1.63974e-06 0)
(3.04754e-08 -1.64505e-06 0)
(3.04308e-08 -1.65035e-06 0)
(3.03873e-08 -1.65555e-06 0)
(3.03468e-08 -1.66032e-06 0)
(3.03089e-08 -1.66464e-06 0)
(3.02722e-08 -1.66884e-06 0)
(3.02356e-08 -1.67307e-06 0)
(3.0199e-08 -1.67733e-06 0)
(3.01622e-08 -1.6816e-06 0)
(3.01253e-08 -1.68588e-06 0)
(3.00881e-08 -1.69015e-06 0)
(3.00508e-08 -1.69442e-06 0)
(3.00133e-08 -1.69871e-06 0)
(2.99756e-08 -1.703e-06 0)
(2.99378e-08 -1.70729e-06 0)
(2.98997e-08 -1.71159e-06 0)
(2.98615e-08 -1.71589e-06 0)
(2.98231e-08 -1.7202e-06 0)
(2.97845e-08 -1.72451e-06 0)
(2.97458e-08 -1.72882e-06 0)
(2.97068e-08 -1.73314e-06 0)
(2.96677e-08 -1.73747e-06 0)
(2.96284e-08 -1.7418e-06 0)
(2.95889e-08 -1.74613e-06 0)
(2.95492e-08 -1.75047e-06 0)
(2.95093e-08 -1.75481e-06 0)
(2.94693e-08 -1.75916e-06 0)
(2.9429e-08 -1.76351e-06 0)
(2.93886e-08 -1.76787e-06 0)
(2.9348e-08 -1.77223e-06 0)
(2.93072e-08 -1.77659e-06 0)
(2.92662e-08 -1.78096e-06 0)
(2.9225e-08 -1.78533e-06 0)
(2.91836e-08 -1.78971e-06 0)
(2.9142e-08 -1.79409e-06 0)
(2.91003e-08 -1.79847e-06 0)
(2.90583e-08 -1.80286e-06 0)
(2.90162e-08 -1.80725e-06 0)
(2.89738e-08 -1.81165e-06 0)
(2.89313e-08 -1.81605e-06 0)
(2.88886e-08 -1.82046e-06 0)
(2.88456e-08 -1.82487e-06 0)
(2.88025e-08 -1.82928e-06 0)
(2.87592e-08 -1.83369e-06 0)
(2.87157e-08 -1.83811e-06 0)
(2.8672e-08 -1.84254e-06 0)
(2.86281e-08 -1.84696e-06 0)
(2.8584e-08 -1.85139e-06 0)
(2.85397e-08 -1.85583e-06 0)
(2.84952e-08 -1.86027e-06 0)
(2.84505e-08 -1.86471e-06 0)
(2.84056e-08 -1.86915e-06 0)
(2.83605e-08 -1.8736e-06 0)
(2.83152e-08 -1.87805e-06 0)
(2.82697e-08 -1.88251e-06 0)
(2.8224e-08 -1.88697e-06 0)
(2.81781e-08 -1.89143e-06 0)
(2.8132e-08 -1.89589e-06 0)
(2.80857e-08 -1.90036e-06 0)
(2.80392e-08 -1.90483e-06 0)
(2.79925e-08 -1.90931e-06 0)
(2.79455e-08 -1.91378e-06 0)
(2.78984e-08 -1.91826e-06 0)
(2.78511e-08 -1.92275e-06 0)
(2.78036e-08 -1.92723e-06 0)
(2.77558e-08 -1.93172e-06 0)
(2.77079e-08 -1.93621e-06 0)
(2.76597e-08 -1.94071e-06 0)
(2.76114e-08 -1.94521e-06 0)
(2.75628e-08 -1.94971e-06 0)
(2.7514e-08 -1.95421e-06 0)
(2.74651e-08 -1.95871e-06 0)
(2.74159e-08 -1.96322e-06 0)
(2.73665e-08 -1.96773e-06 0)
(2.73169e-08 -1.97225e-06 0)
(2.7267e-08 -1.97676e-06 0)
(2.7217e-08 -1.98128e-06 0)
(2.71668e-08 -1.9858e-06 0)
(2.71163e-08 -1.99032e-06 0)
(2.70657e-08 -1.99485e-06 0)
(2.70148e-08 -1.99937e-06 0)
(2.69637e-08 -2.0039e-06 0)
(2.69124e-08 -2.00843e-06 0)
(2.68609e-08 -2.01296e-06 0)
(2.68092e-08 -2.0175e-06 0)
(2.67573e-08 -2.02204e-06 0)
(2.67052e-08 -2.02658e-06 0)
(2.66528e-08 -2.03112e-06 0)
(2.66002e-08 -2.03566e-06 0)
(2.65474e-08 -2.0402e-06 0)
(2.64945e-08 -2.04475e-06 0)
(2.64412e-08 -2.04929e-06 0)
(2.63878e-08 -2.05384e-06 0)
(2.63342e-08 -2.05839e-06 0)
(2.62803e-08 -2.06295e-06 0)
(2.62263e-08 -2.0675e-06 0)
(2.6172e-08 -2.07205e-06 0)
(2.61175e-08 -2.07661e-06 0)
(2.60628e-08 -2.08117e-06 0)
(2.60078e-08 -2.08572e-06 0)
(2.59527e-08 -2.09028e-06 0)
(2.58973e-08 -2.09484e-06 0)
(2.58417e-08 -2.0994e-06 0)
(2.57859e-08 -2.10397e-06 0)
(2.57299e-08 -2.10853e-06 0)
(2.56737e-08 -2.11309e-06 0)
(2.56173e-08 -2.11766e-06 0)
(2.55606e-08 -2.12222e-06 0)
(2.55037e-08 -2.12679e-06 0)
(2.54466e-08 -2.13135e-06 0)
(2.53893e-08 -2.13592e-06 0)
(2.53318e-08 -2.14049e-06 0)
(2.5274e-08 -2.14505e-06 0)
(2.52161e-08 -2.14962e-06 0)
(2.51579e-08 -2.15419e-06 0)
(2.50995e-08 -2.15876e-06 0)
(2.50409e-08 -2.16333e-06 0)
(2.49821e-08 -2.1679e-06 0)
(2.4923e-08 -2.17246e-06 0)
(2.48637e-08 -2.17703e-06 0)
(2.48043e-08 -2.1816e-06 0)
(2.47446e-08 -2.18617e-06 0)
(2.46846e-08 -2.19074e-06 0)
(2.46245e-08 -2.1953e-06 0)
(2.45641e-08 -2.19987e-06 0)
(2.45036e-08 -2.20444e-06 0)
(2.44428e-08 -2.209e-06 0)
(2.43818e-08 -2.21357e-06 0)
(2.43206e-08 -2.21813e-06 0)
(2.42591e-08 -2.22269e-06 0)
(2.41975e-08 -2.22726e-06 0)
(2.41356e-08 -2.23182e-06 0)
(2.40735e-08 -2.23638e-06 0)
(2.40112e-08 -2.24094e-06 0)
(2.39487e-08 -2.2455e-06 0)
(2.3886e-08 -2.25006e-06 0)
(2.38231e-08 -2.25461e-06 0)
(2.37599e-08 -2.25917e-06 0)
(2.36965e-08 -2.26372e-06 0)
(2.36329e-08 -2.26827e-06 0)
(2.35691e-08 -2.27282e-06 0)
(2.35051e-08 -2.27737e-06 0)
(2.34409e-08 -2.28192e-06 0)
(2.33764e-08 -2.28647e-06 0)
(2.33118e-08 -2.29101e-06 0)
(2.32469e-08 -2.29555e-06 0)
(2.31819e-08 -2.30009e-06 0)
(2.31166e-08 -2.30463e-06 0)
(2.30511e-08 -2.30917e-06 0)
(2.29853e-08 -2.3137e-06 0)
(2.29194e-08 -2.31823e-06 0)
(2.28533e-08 -2.32276e-06 0)
(2.27869e-08 -2.32728e-06 0)
(2.27204e-08 -2.33181e-06 0)
(2.26536e-08 -2.33633e-06 0)
(2.25867e-08 -2.34085e-06 0)
(2.25195e-08 -2.34536e-06 0)
(2.24521e-08 -2.34987e-06 0)
(2.23845e-08 -2.35438e-06 0)
(2.23167e-08 -2.35889e-06 0)
(2.22487e-08 -2.36339e-06 0)
(2.21805e-08 -2.3679e-06 0)
(2.21121e-08 -2.37239e-06 0)
(2.20435e-08 -2.37689e-06 0)
(2.19747e-08 -2.38138e-06 0)
(2.19057e-08 -2.38586e-06 0)
(2.18364e-08 -2.39035e-06 0)
(2.1767e-08 -2.39483e-06 0)
(2.16974e-08 -2.3993e-06 0)
(2.16276e-08 -2.40377e-06 0)
(2.15576e-08 -2.40824e-06 0)
(2.14873e-08 -2.41271e-06 0)
(2.14169e-08 -2.41717e-06 0)
(2.13463e-08 -2.42162e-06 0)
(2.12754e-08 -2.42608e-06 0)
(2.12051e-08 -2.4305e-06 0)
(2.11374e-08 -2.4347e-06 0)
(2.1072e-08 -2.43871e-06 0)
(2.10074e-08 -2.44268e-06 0)
(2.09423e-08 -2.44668e-06 0)
(2.08766e-08 -2.45074e-06 0)
(2.08101e-08 -2.45483e-06 0)
(2.0743e-08 -2.45895e-06 0)
(2.0675e-08 -2.46309e-06 0)
(2.06063e-08 -2.46727e-06 0)
(2.05369e-08 -2.47148e-06 0)
(2.04667e-08 -2.47572e-06 0)
(2.03957e-08 -2.47999e-06 0)
(2.03239e-08 -2.4843e-06 0)
(2.02513e-08 -2.48863e-06 0)
(2.0178e-08 -2.493e-06 0)
(2.01038e-08 -2.49739e-06 0)
(2.00288e-08 -2.50182e-06 0)
(1.99529e-08 -2.50628e-06 0)
(1.98763e-08 -2.51078e-06 0)
(1.97988e-08 -2.5153e-06 0)
(1.97205e-08 -2.51985e-06 0)
(1.96413e-08 -2.52444e-06 0)
(1.95613e-08 -2.52905e-06 0)
(1.94803e-08 -2.5337e-06 0)
(1.93986e-08 -2.53838e-06 0)
(1.93159e-08 -2.54309e-06 0)
(1.92324e-08 -2.54783e-06 0)
(1.91479e-08 -2.5526e-06 0)
(1.90626e-08 -2.5574e-06 0)
(1.89763e-08 -2.56223e-06 0)
(1.88891e-08 -2.56709e-06 0)
(1.88011e-08 -2.57198e-06 0)
(1.8712e-08 -2.5769e-06 0)
(1.86221e-08 -2.58185e-06 0)
(1.85312e-08 -2.58683e-06 0)
(1.84393e-08 -2.59184e-06 0)
(1.83465e-08 -2.59688e-06 0)
(1.82527e-08 -2.60195e-06 0)
(1.8158e-08 -2.60705e-06 0)
(1.80623e-08 -2.61217e-06 0)
(1.79656e-08 -2.61732e-06 0)
(1.78679e-08 -2.6225e-06 0)
(1.77692e-08 -2.62771e-06 0)
(1.76695e-08 -2.63295e-06 0)
(1.75689e-08 -2.63821e-06 0)
(1.74672e-08 -2.6435e-06 0)
(1.73645e-08 -2.64882e-06 0)
(1.72607e-08 -2.65416e-06 0)
(1.7156e-08 -2.65952e-06 0)
(1.70502e-08 -2.66492e-06 0)
(1.69434e-08 -2.67033e-06 0)
(1.68355e-08 -2.67577e-06 0)
(1.67266e-08 -2.68124e-06 0)
(1.66166e-08 -2.68673e-06 0)
(1.65056e-08 -2.69224e-06 0)
(1.63936e-08 -2.69777e-06 0)
(1.62804e-08 -2.70333e-06 0)
(1.61663e-08 -2.7089e-06 0)
(1.6051e-08 -2.7145e-06 0)
(1.59347e-08 -2.72012e-06 0)
(1.58173e-08 -2.72575e-06 0)
(1.56989e-08 -2.73141e-06 0)
(1.55793e-08 -2.73708e-06 0)
(1.54587e-08 -2.74277e-06 0)
(1.53371e-08 -2.74848e-06 0)
(1.52143e-08 -2.75421e-06 0)
(1.50905e-08 -2.75994e-06 0)
(1.49656e-08 -2.7657e-06 0)
(1.48396e-08 -2.77147e-06 0)
(1.47126e-08 -2.77725e-06 0)
(1.45845e-08 -2.78304e-06 0)
(1.44553e-08 -2.78885e-06 0)
(1.43251e-08 -2.79466e-06 0)
(1.41937e-08 -2.80049e-06 0)
(1.40614e-08 -2.80632e-06 0)
(1.39279e-08 -2.81217e-06 0)
(1.37935e-08 -2.81802e-06 0)
(1.36579e-08 -2.82387e-06 0)
(1.35214e-08 -2.82973e-06 0)
(1.33838e-08 -2.83559e-06 0)
(1.32451e-08 -2.84146e-06 0)
(1.31055e-08 -2.84733e-06 0)
(1.29648e-08 -2.8532e-06 0)
(1.28231e-08 -2.85907e-06 0)
(1.26804e-08 -2.86493e-06 0)
(1.25368e-08 -2.8708e-06 0)
(1.23921e-08 -2.87666e-06 0)
(1.22465e-08 -2.88251e-06 0)
(1.20999e-08 -2.88836e-06 0)
(1.19524e-08 -2.8942e-06 0)
(1.1804e-08 -2.90003e-06 0)
(1.16547e-08 -2.90585e-06 0)
(1.15044e-08 -2.91165e-06 0)
(1.13533e-08 -2.91745e-06 0)
(1.12012e-08 -2.92323e-06 0)
(1.10484e-08 -2.92899e-06 0)
(1.08947e-08 -2.93474e-06 0)
(1.07402e-08 -2.94046e-06 0)
(1.05849e-08 -2.94617e-06 0)
(1.04288e-08 -2.95185e-06 0)
(1.02719e-08 -2.95751e-06 0)
(1.01143e-08 -2.96314e-06 0)
(9.95605e-09 -2.96875e-06 0)
(9.79706e-09 -2.97432e-06 0)
(9.63741e-09 -2.97987e-06 0)
(9.47713e-09 -2.98539e-06 0)
(9.31623e-09 -2.99087e-06 0)
(9.15474e-09 -2.99631e-06 0)
(8.9927e-09 -3.00172e-06 0)
(8.83012e-09 -3.00709e-06 0)
(8.66705e-09 -3.01242e-06 0)
(8.50351e-09 -3.0177e-06 0)
(8.33953e-09 -3.02294e-06 0)
(8.17515e-09 -3.02813e-06 0)
(8.0104e-09 -3.03328e-06 0)
(7.84531e-09 -3.03837e-06 0)
(7.67991e-09 -3.04341e-06 0)
(7.51426e-09 -3.0484e-06 0)
(7.34837e-09 -3.05334e-06 0)
(7.18229e-09 -3.05821e-06 0)
(7.01607e-09 -3.06302e-06 0)
(6.84973e-09 -3.06778e-06 0)
(6.68331e-09 -3.07246e-06 0)
(6.51687e-09 -3.07709e-06 0)
(6.35044e-09 -3.08164e-06 0)
(6.18407e-09 -3.08613e-06 0)
(6.01779e-09 -3.09054e-06 0)
(5.85166e-09 -3.09488e-06 0)
(5.68572e-09 -3.09914e-06 0)
(5.52001e-09 -3.10333e-06 0)
(5.35458e-09 -3.10743e-06 0)
(5.18948e-09 -3.11145e-06 0)
(5.02476e-09 -3.11539e-06 0)
(4.86046e-09 -3.11925e-06 0)
(4.69664e-09 -3.12301e-06 0)
(4.53334e-09 -3.12669e-06 0)
(4.37062e-09 -3.13027e-06 0)
(4.20853e-09 -3.13376e-06 0)
(4.04712e-09 -3.13716e-06 0)
(3.88643e-09 -3.14045e-06 0)
(3.72654e-09 -3.14365e-06 0)
(3.56747e-09 -3.14675e-06 0)
(3.4093e-09 -3.14974e-06 0)
(3.25207e-09 -3.15263e-06 0)
(3.09584e-09 -3.15541e-06 0)
(2.94067e-09 -3.15809e-06 0)
(2.7866e-09 -3.16065e-06 0)
(2.63369e-09 -3.1631e-06 0)
(2.48199e-09 -3.16544e-06 0)
(2.33157e-09 -3.16766e-06 0)
(2.18248e-09 -3.16977e-06 0)
(2.03476e-09 -3.17176e-06 0)
(1.88847e-09 -3.17363e-06 0)
(1.74368e-09 -3.17537e-06 0)
(1.60042e-09 -3.177e-06 0)
(1.45876e-09 -3.1785e-06 0)
(1.31874e-09 -3.17988e-06 0)
(1.18042e-09 -3.18113e-06 0)
(1.04385e-09 -3.18225e-06 0)
(9.09071e-10 -3.18325e-06 0)
(7.76144e-10 -3.18411e-06 0)
(6.45114e-10 -3.18485e-06 0)
(5.16027e-10 -3.18545e-06 0)
(3.88931e-10 -3.18593e-06 0)
(2.63872e-10 -3.18626e-06 0)
(1.40894e-10 -3.18647e-06 0)
(2.00423e-11 -3.18654e-06 0)
(-9.86415e-11 -3.18648e-06 0)
(-2.15115e-10 -3.18629e-06 0)
(-3.29338e-10 -3.18595e-06 0)
(-4.4127e-10 -3.18549e-06 0)
(-5.50873e-10 -3.18488e-06 0)
(-6.58111e-10 -3.18415e-06 0)
(-7.62946e-10 -3.18327e-06 0)
(-8.65344e-10 -3.18226e-06 0)
(-9.65271e-10 -3.18112e-06 0)
(-1.0627e-09 -3.17983e-06 0)
(-1.15757e-09 -3.17842e-06 0)
(-1.25002e-09 -3.17687e-06 0)
(-1.33925e-09 -3.17517e-06 0)
(-1.42855e-09 -3.17336e-06 0)
(-1.52231e-09 -3.1712e-06 0)
(-1.61785e-09 -3.16864e-06 0)
(-1.71075e-09 -3.16592e-06 0)
(-1.79909e-09 -3.16306e-06 0)
(-1.88269e-09 -3.16006e-06 0)
(-1.96162e-09 -3.15693e-06 0)
(-2.03598e-09 -3.15368e-06 0)
(-2.10588e-09 -3.15031e-06 0)
(-2.17146e-09 -3.14683e-06 0)
(-2.23283e-09 -3.14325e-06 0)
(-2.29014e-09 -3.13957e-06 0)
(-2.34351e-09 -3.1358e-06 0)
(-2.39306e-09 -3.13195e-06 0)
(-2.43891e-09 -3.12802e-06 0)
(-2.48116e-09 -3.12403e-06 0)
(-2.51994e-09 -3.11996e-06 0)
(-2.55535e-09 -3.11584e-06 0)
(-2.58749e-09 -3.11166e-06 0)
(-2.61647e-09 -3.10744e-06 0)
(-2.64239e-09 -3.10317e-06 0)
(-2.66533e-09 -3.09886e-06 0)
(-2.6854e-09 -3.09451e-06 0)
(-2.70269e-09 -3.09014e-06 0)
(-2.71727e-09 -3.08574e-06 0)
(-2.72924e-09 -3.08132e-06 0)
(-2.73867e-09 -3.07688e-06 0)
(-2.74564e-09 -3.07243e-06 0)
(-2.75022e-09 -3.06797e-06 0)
(-2.75249e-09 -3.0635e-06 0)
(-2.75252e-09 -3.05903e-06 0)
(-2.75038e-09 -3.05457e-06 0)
(-2.74612e-09 -3.05011e-06 0)
(-2.73982e-09 -3.04566e-06 0)
(-2.73152e-09 -3.04122e-06 0)
(-2.7213e-09 -3.03679e-06 0)
(-2.70921e-09 -3.03239e-06 0)
(-2.69529e-09 -3.028e-06 0)
(-2.67961e-09 -3.02364e-06 0)
(-2.66222e-09 -3.01931e-06 0)
(-2.64315e-09 -3.015e-06 0)
(-2.62246e-09 -3.01073e-06 0)
(-2.6002e-09 -3.00649e-06 0)
(-2.5764e-09 -3.00229e-06 0)
(-2.55111e-09 -2.99813e-06 0)
(-2.52438e-09 -2.99402e-06 0)
(-2.49623e-09 -2.98994e-06 0)
(-2.46671e-09 -2.98592e-06 0)
(-2.43585e-09 -2.98194e-06 0)
(-2.4037e-09 -2.97801e-06 0)
(-2.37028e-09 -2.97414e-06 0)
(-2.33563e-09 -2.97032e-06 0)
(-2.29978e-09 -2.96656e-06 0)
(-2.26276e-09 -2.96286e-06 0)
(-2.2246e-09 -2.95922e-06 0)
(-2.18534e-09 -2.95564e-06 0)
(-2.145e-09 -2.95213e-06 0)
(-2.10361e-09 -2.94868e-06 0)
(-2.0612e-09 -2.9453e-06 0)
(-2.01779e-09 -2.94199e-06 0)
(-1.97342e-09 -2.93875e-06 0)
(-1.92811e-09 -2.93559e-06 0)
(-1.88188e-09 -2.9325e-06 0)
(-1.83477e-09 -2.92948e-06 0)
(-1.7868e-09 -2.92654e-06 0)
(-1.73799e-09 -2.92368e-06 0)
(-1.68837e-09 -2.9209e-06 0)
(-1.63796e-09 -2.9182e-06 0)
(-1.58679e-09 -2.91558e-06 0)
(-1.53489e-09 -2.91304e-06 0)
(-1.48228e-09 -2.91059e-06 0)
(-1.42898e-09 -2.90823e-06 0)
(-1.37502e-09 -2.90595e-06 0)
(-1.32043e-09 -2.90376e-06 0)
(-1.26523e-09 -2.90166e-06 0)
(-1.20944e-09 -2.89965e-06 0)
(-1.15309e-09 -2.89773e-06 0)
(-1.09621e-09 -2.8959e-06 0)
(-1.03881e-09 -2.89417e-06 0)
(-9.80933e-10 -2.89252e-06 0)
(-9.22596e-10 -2.89097e-06 0)
(-8.63823e-10 -2.88952e-06 0)
(-8.04645e-10 -2.88816e-06 0)
(-7.45086e-10 -2.8869e-06 0)
(-6.85177e-10 -2.88574e-06 0)
(-6.24945e-10 -2.88466e-06 0)
(-5.64426e-10 -2.88371e-06 0)
(-5.03648e-10 -2.88277e-06 0)
(-4.42664e-10 -2.8822e-06 0)
(-3.81474e-10 -2.88086e-06 0)
(-3.20251e-10 -2.88247e-06 0)
(-2.58601e-10 -2.8745e-06 0)
(-1.97914e-10 -2.89752e-06 0)
(-1.33867e-10 -2.81051e-06 0)
(-8.05267e-11 -3.04116e-06 0)
(-3.08143e-11 -2.65612e-06 0)
)
;
    }
    bottomWall
    {
        type            calculated;
        value           nonuniform List<vector> 
449
(
(-48.5079 -0.963752 0)
(-19.7455 -0.00515154 0)
(-14.3444 -0.00113272 0)
(-12.0424 -0.000542685 0)
(-10.6477 -0.000346742 0)
(-9.67486 -0.000246881 0)
(-8.95807 -0.00017926 0)
(-8.44513 -0.0001168 0)
(-8.15537 -3.68039e-05 0)
(-8.19362 0.00011615 0)
(-8.96328 0.000291295 0)
(-10.2136 0.000321606 0)
(-11.1923 0.000225097 0)
(-11.7764 0.000129689 0)
(-12.0954 7.01243e-05 0)
(-12.266 3.56538e-05 0)
(-12.3449 1.38429e-05 0)
(-12.363 -1.04606e-06 0)
(-12.3374 -1.06336e-05 0)
(-12.2879 -1.64265e-05 0)
(-12.2212 -2.01614e-05 0)
(-12.1449 -2.21265e-05 0)
(-12.0639 -2.29879e-05 0)
(-11.9812 -2.31732e-05 0)
(-11.8985 -2.29555e-05 0)
(-11.8169 -2.25195e-05 0)
(-11.7369 -2.19462e-05 0)
(-11.6591 -2.12705e-05 0)
(-11.5836 -2.05537e-05 0)
(-11.5106 -1.98275e-05 0)
(-11.44 -1.91096e-05 0)
(-11.3718 -1.84106e-05 0)
(-11.306 -1.7737e-05 0)
(-11.2425 -1.70898e-05 0)
(-11.1811 -1.6482e-05 0)
(-11.1217 -1.59125e-05 0)
(-11.0642 -1.53629e-05 0)
(-11.0086 -1.4833e-05 0)
(-10.9547 -1.43298e-05 0)
(-10.9026 -1.38527e-05 0)
(-10.852 -1.33994e-05 0)
(-10.803 -1.29698e-05 0)
(-10.7554 -1.25641e-05 0)
(-10.7092 -1.21786e-05 0)
(-10.6642 -1.18122e-05 0)
(-10.6205 -1.14631e-05 0)
(-10.578 -1.11324e-05 0)
(-10.5366 -1.08158e-05 0)
(-10.4963 -1.05247e-05 0)
(-10.4569 -1.0269e-05 0)
(-10.4183 -1.00367e-05 0)
(-10.3805 -9.81844e-06 0)
(-10.3434 -9.60667e-06 0)
(-10.3071 -9.3977e-06 0)
(-10.2714 -9.19275e-06 0)
(-10.2364 -8.9899e-06 0)
(-10.2022 -8.79099e-06 0)
(-10.1686 -8.59865e-06 0)
(-10.1357 -8.41047e-06 0)
(-10.1034 -8.22789e-06 0)
(-10.0717 -8.05178e-06 0)
(-10.0406 -7.88262e-06 0)
(-10.0101 -7.718e-06 0)
(-9.98021 -7.55726e-06 0)
(-9.95084 -7.40115e-06 0)
(-9.922 -7.25163e-06 0)
(-9.89367 -7.1074e-06 0)
(-9.86583 -6.96743e-06 0)
(-9.83848 -6.83086e-06 0)
(-9.8116 -6.70262e-06 0)
(-9.78514 -6.57991e-06 0)
(-9.75911 -6.45685e-06 0)
(-9.73351 -6.33726e-06 0)
(-9.70832 -6.22195e-06 0)
(-9.68352 -6.10978e-06 0)
(-9.65912 -5.99944e-06 0)
(-9.63509 -5.89211e-06 0)
(-9.61144 -5.78781e-06 0)
(-9.58816 -5.68656e-06 0)
(-9.56522 -5.58843e-06 0)
(-9.54262 -5.49304e-06 0)
(-9.52035 -5.40012e-06 0)
(-9.49841 -5.31022e-06 0)
(-9.47678 -5.22238e-06 0)
(-9.45545 -5.13691e-06 0)
(-9.43442 -5.05492e-06 0)
(-9.41367 -4.97513e-06 0)
(-9.39321 -4.89756e-06 0)
(-9.37301 -4.82118e-06 0)
(-9.35308 -4.7462e-06 0)
(-9.33341 -4.67371e-06 0)
(-9.31399 -4.6025e-06 0)
(-9.29483 -4.53389e-06 0)
(-9.2759 -4.46648e-06 0)
(-9.25721 -4.40006e-06 0)
(-9.23875 -4.33672e-06 0)
(-9.22052 -4.27384e-06 0)
(-9.2025 -4.21284e-06 0)
(-9.1847 -4.15358e-06 0)
(-9.16711 -4.09526e-06 0)
(-9.14971 -4.04213e-06 0)
(-9.13249 -3.99011e-06 0)
(-9.11547 -3.93614e-06 0)
(-9.09863 -3.88384e-06 0)
(-9.08198 -3.83193e-06 0)
(-9.06551 -3.78065e-06 0)
(-9.04922 -3.73187e-06 0)
(-9.0331 -3.68344e-06 0)
(-9.01716 -3.63526e-06 0)
(-9.00138 -3.58962e-06 0)
(-8.98576 -3.54422e-06 0)
(-8.97031 -3.49895e-06 0)
(-8.95501 -3.45617e-06 0)
(-8.93986 -3.41358e-06 0)
(-8.92487 -3.371e-06 0)
(-8.91003 -3.33064e-06 0)
(-8.89532 -3.29071e-06 0)
(-8.88077 -3.25074e-06 0)
(-8.86635 -3.21249e-06 0)
(-8.85207 -3.17509e-06 0)
(-8.83792 -3.13755e-06 0)
(-8.8239 -3.10113e-06 0)
(-8.81001 -3.06608e-06 0)
(-8.79625 -3.03086e-06 0)
(-8.78261 -2.99606e-06 0)
(-8.7691 -2.96286e-06 0)
(-8.7557 -2.92998e-06 0)
(-8.74242 -2.89706e-06 0)
(-8.72926 -2.86522e-06 0)
(-8.71621 -2.83444e-06 0)
(-8.70327 -2.80349e-06 0)
(-8.69045 -2.77279e-06 0)
(-8.67773 -2.74355e-06 0)
(-8.66511 -2.71468e-06 0)
(-8.6526 -2.68552e-06 0)
(-8.64019 -2.65726e-06 0)
(-8.62789 -2.63027e-06 0)
(-8.61567 -2.60292e-06 0)
(-8.60356 -2.5755e-06 0)
(-8.59155 -2.54949e-06 0)
(-8.57963 -2.52413e-06 0)
(-8.5678 -2.49832e-06 0)
(-8.55606 -2.47291e-06 0)
(-8.54442 -2.4486e-06 0)
(-8.53286 -2.42493e-06 0)
(-8.52138 -2.40248e-06 0)
(-8.50998 -2.38078e-06 0)
(-8.49866 -2.35848e-06 0)
(-8.48742 -2.3358e-06 0)
(-8.47626 -2.31297e-06 0)
(-8.46518 -2.29069e-06 0)
(-8.45419 -2.26918e-06 0)
(-8.44327 -2.24791e-06 0)
(-8.43242 -2.22651e-06 0)
(-8.42166 -2.20549e-06 0)
(-8.41097 -2.18521e-06 0)
(-8.40036 -2.16525e-06 0)
(-8.38981 -2.14513e-06 0)
(-8.37934 -2.12521e-06 0)
(-8.36895 -2.10606e-06 0)
(-8.35862 -2.08733e-06 0)
(-8.34835 -2.06838e-06 0)
(-8.33816 -2.04946e-06 0)
(-8.32804 -2.03132e-06 0)
(-8.31798 -2.01378e-06 0)
(-8.30799 -1.99591e-06 0)
(-8.29806 -1.97794e-06 0)
(-8.28819 -1.96066e-06 0)
(-8.27839 -1.94413e-06 0)
(-8.26865 -1.92725e-06 0)
(-8.25897 -1.91061e-06 0)
(-8.24935 -1.89395e-06 0)
(-8.2398 -1.87567e-06 0)
(-8.23085 -1.86234e-06 0)
(-8.2224 -1.85081e-06 0)
(-8.21394 -1.83488e-06 0)
(-8.20546 -1.82019e-06 0)
(-8.19695 -1.80665e-06 0)
(-8.18841 -1.79287e-06 0)
(-8.17984 -1.77889e-06 0)
(-8.17126 -1.76474e-06 0)
(-8.16264 -1.75111e-06 0)
(-8.154 -1.73765e-06 0)
(-8.14533 -1.72417e-06 0)
(-8.13664 -1.71037e-06 0)
(-8.12792 -1.69656e-06 0)
(-8.11918 -1.68317e-06 0)
(-8.11042 -1.66994e-06 0)
(-8.10162 -1.65659e-06 0)
(-8.09281 -1.64304e-06 0)
(-8.08397 -1.6296e-06 0)
(-8.07511 -1.61647e-06 0)
(-8.06622 -1.6035e-06 0)
(-8.05731 -1.59033e-06 0)
(-8.04838 -1.577e-06 0)
(-8.03943 -1.56394e-06 0)
(-8.03045 -1.55112e-06 0)
(-8.02145 -1.53839e-06 0)
(-8.01243 -1.52542e-06 0)
(-8.00339 -1.51241e-06 0)
(-7.99433 -1.49974e-06 0)
(-7.98524 -1.4873e-06 0)
(-7.97614 -1.4747e-06 0)
(-7.96701 -1.46193e-06 0)
(-7.95786 -1.44935e-06 0)
(-7.9487 -1.43708e-06 0)
(-7.93951 -1.42491e-06 0)
(-7.9303 -1.41263e-06 0)
(-7.92107 -1.40059e-06 0)
(-7.91182 -1.38946e-06 0)
(-7.90254 -1.37828e-06 0)
(-7.89324 -1.36614e-06 0)
(-7.88392 -1.3537e-06 0)
(-7.87459 -1.34169e-06 0)
(-7.86523 -1.32997e-06 0)
(-7.85586 -1.31811e-06 0)
(-7.84648 -1.30605e-06 0)
(-7.83708 -1.29421e-06 0)
(-7.82766 -1.28271e-06 0)
(-7.81822 -1.27116e-06 0)
(-7.80877 -1.25938e-06 0)
(-7.7993 -1.24773e-06 0)
(-7.78982 -1.23642e-06 0)
(-7.78033 -1.22515e-06 0)
(-7.77081 -1.21364e-06 0)
(-7.76129 -1.20218e-06 0)
(-7.75175 -1.19109e-06 0)
(-7.7422 -1.18007e-06 0)
(-7.73263 -1.16881e-06 0)
(-7.72306 -1.15758e-06 0)
(-7.71347 -1.1467e-06 0)
(-7.70387 -1.13592e-06 0)
(-7.69425 -1.12491e-06 0)
(-7.68463 -1.11393e-06 0)
(-7.675 -1.10328e-06 0)
(-7.66535 -1.09273e-06 0)
(-7.6557 -1.08198e-06 0)
(-7.64603 -1.07126e-06 0)
(-7.63636 -1.06084e-06 0)
(-7.62667 -1.05052e-06 0)
(-7.61698 -1.04003e-06 0)
(-7.60728 -1.02958e-06 0)
(-7.59758 -1.01941e-06 0)
(-7.58786 -1.00931e-06 0)
(-7.57814 -9.99068e-07 0)
(-7.56841 -9.8889e-07 0)
(-7.55868 -9.78955e-07 0)
(-7.54894 -9.69064e-07 0)
(-7.53919 -9.59063e-07 0)
(-7.52944 -9.4916e-07 0)
(-7.51968 -9.39477e-07 0)
(-7.50992 -9.29802e-07 0)
(-7.50016 -9.20041e-07 0)
(-7.4904 -9.10424e-07 0)
(-7.48063 -9.01003e-07 0)
(-7.47085 -8.91551e-07 0)
(-7.46108 -8.82024e-07 0)
(-7.4513 -8.72698e-07 0)
(-7.44153 -8.63538e-07 0)
(-7.43175 -8.543e-07 0)
(-7.42197 -8.45021e-07 0)
(-7.41219 -8.35991e-07 0)
(-7.40241 -8.27053e-07 0)
(-7.39263 -8.18036e-07 0)
(-7.38286 -8.09058e-07 0)
(-7.37308 -8.0031e-07 0)
(-7.36331 -7.91589e-07 0)
(-7.35354 -7.82803e-07 0)
(-7.34377 -7.74125e-07 0)
(-7.334 -7.65687e-07 0)
(-7.32424 -7.57598e-07 0)
(-7.31447 -7.49544e-07 0)
(-7.3047 -7.41293e-07 0)
(-7.29494 -7.33076e-07 0)
(-7.28518 -7.24755e-07 0)
(-7.27543 -7.16468e-07 0)
(-7.26568 -7.08371e-07 0)
(-7.25594 -7.00298e-07 0)
(-7.24621 -6.92155e-07 0)
(-7.23649 -6.84179e-07 0)
(-7.22677 -6.76371e-07 0)
(-7.21706 -6.68491e-07 0)
(-7.20736 -6.60624e-07 0)
(-7.19767 -6.52985e-07 0)
(-7.18798 -6.45383e-07 0)
(-7.17831 -6.37715e-07 0)
(-7.16865 -6.30188e-07 0)
(-7.159 -6.22823e-07 0)
(-7.14935 -6.15399e-07 0)
(-7.13973 -6.07973e-07 0)
(-7.13011 -6.00777e-07 0)
(-7.1205 -5.93613e-07 0)
(-7.11091 -5.86408e-07 0)
(-7.10133 -5.79325e-07 0)
(-7.09176 -5.72411e-07 0)
(-7.0822 -5.65433e-07 0)
(-7.07266 -5.58493e-07 0)
(-7.06313 -5.51742e-07 0)
(-7.05362 -5.45036e-07 0)
(-7.04412 -5.38281e-07 0)
(-7.03463 -5.3168e-07 0)
(-7.02516 -5.25186e-07 0)
(-7.01571 -5.18667e-07 0)
(-7.00627 -5.12184e-07 0)
(-6.99684 -5.05893e-07 0)
(-6.98744 -4.99594e-07 0)
(-6.97805 -4.93307e-07 0)
(-6.96867 -4.8715e-07 0)
(-6.95931 -4.81092e-07 0)
(-6.94997 -4.74997e-07 0)
(-6.94065 -4.69002e-07 0)
(-6.93135 -4.63138e-07 0)
(-6.92206 -4.57281e-07 0)
(-6.91279 -4.51437e-07 0)
(-6.90354 -4.45764e-07 0)
(-6.8943 -4.4013e-07 0)
(-6.88509 -4.34515e-07 0)
(-6.87589 -4.28994e-07 0)
(-6.86671 -4.23578e-07 0)
(-6.85755 -4.1813e-07 0)
(-6.84841 -4.12744e-07 0)
(-6.83928 -4.07476e-07 0)
(-6.83018 -4.02232e-07 0)
(-6.82109 -3.97e-07 0)
(-6.81203 -3.91899e-07 0)
(-6.80299 -3.86845e-07 0)
(-6.79397 -3.81806e-07 0)
(-6.78496 -3.76844e-07 0)
(-6.77598 -3.71977e-07 0)
(-6.76702 -3.67105e-07 0)
(-6.75808 -3.62336e-07 0)
(-6.74916 -3.57776e-07 0)
(-6.74025 -3.53219e-07 0)
(-6.73136 -3.48583e-07 0)
(-6.7225 -3.44039e-07 0)
(-6.71365 -3.39522e-07 0)
(-6.70484 -3.35028e-07 0)
(-6.69603 -3.30599e-07 0)
(-6.68726 -3.26249e-07 0)
(-6.6785 -3.21905e-07 0)
(-6.66977 -3.17617e-07 0)
(-6.66105 -3.13419e-07 0)
(-6.65237 -3.09241e-07 0)
(-6.6437 -3.05085e-07 0)
(-6.63506 -3.01036e-07 0)
(-6.62643 -2.9701e-07 0)
(-6.61784 -2.93011e-07 0)
(-6.60926 -2.89074e-07 0)
(-6.60072 -2.85199e-07 0)
(-6.59219 -2.81322e-07 0)
(-6.58369 -2.77552e-07 0)
(-6.5752 -2.73746e-07 0)
(-6.56676 -2.70139e-07 0)
(-6.55831 -2.6661e-07 0)
(-6.54896 -2.6229e-07 0)
(-6.5388 -2.57728e-07 0)
(-6.52882 -2.53648e-07 0)
(-6.51897 -2.4969e-07 0)
(-6.5093 -2.45737e-07 0)
(-6.49976 -2.41921e-07 0)
(-6.49038 -2.38164e-07 0)
(-6.48114 -2.34486e-07 0)
(-6.47205 -2.30908e-07 0)
(-6.46309 -2.27406e-07 0)
(-6.45428 -2.23978e-07 0)
(-6.44558 -2.20673e-07 0)
(-6.43703 -2.17447e-07 0)
(-6.42858 -2.14296e-07 0)
(-6.42028 -2.11251e-07 0)
(-6.41207 -2.08272e-07 0)
(-6.404 -2.05351e-07 0)
(-6.39602 -2.02518e-07 0)
(-6.38816 -1.99748e-07 0)
(-6.3804 -1.97031e-07 0)
(-6.37276 -1.94387e-07 0)
(-6.36521 -1.91819e-07 0)
(-6.35777 -1.893e-07 0)
(-6.35041 -1.8684e-07 0)
(-6.34316 -1.84454e-07 0)
(-6.33599 -1.82115e-07 0)
(-6.32893 -1.79811e-07 0)
(-6.32194 -1.77574e-07 0)
(-6.31505 -1.75388e-07 0)
(-6.30823 -1.73234e-07 0)
(-6.30151 -1.71132e-07 0)
(-6.29485 -1.69091e-07 0)
(-6.28829 -1.67095e-07 0)
(-6.28179 -1.65121e-07 0)
(-6.27538 -1.63202e-07 0)
(-6.26904 -1.61325e-07 0)
(-6.26278 -1.59478e-07 0)
(-6.25657 -1.57654e-07 0)
(-6.25045 -1.55886e-07 0)
(-6.24439 -1.54159e-07 0)
(-6.2384 -1.52465e-07 0)
(-6.23247 -1.5079e-07 0)
(-6.22662 -1.49187e-07 0)
(-6.22081 -1.47628e-07 0)
(-6.21508 -1.46101e-07 0)
(-6.20939 -1.44574e-07 0)
(-6.20378 -1.43096e-07 0)
(-6.1982 -1.41632e-07 0)
(-6.19271 -1.4019e-07 0)
(-6.18725 -1.38742e-07 0)
(-6.18186 -1.37342e-07 0)
(-6.17651 -1.35955e-07 0)
(-6.17124 -1.34612e-07 0)
(-6.16599 -1.33262e-07 0)
(-6.16082 -1.31976e-07 0)
(-6.15567 -1.30688e-07 0)
(-6.1506 -1.29464e-07 0)
(-6.14555 -1.28212e-07 0)
(-6.14058 -1.27033e-07 0)
(-6.13563 -1.25834e-07 0)
(-6.13075 -1.2472e-07 0)
(-6.12588 -1.23559e-07 0)
(-6.12109 -1.22486e-07 0)
(-6.1163 -1.21362e-07 0)
(-6.1116 -1.20335e-07 0)
(-6.1069 -1.1924e-07 0)
(-6.10228 -1.18241e-07 0)
(-6.09765 -1.1716e-07 0)
(-6.09313 -1.16208e-07 0)
(-6.08857 -1.15172e-07 0)
(-6.08412 -1.14266e-07 0)
(-6.07964 -1.13256e-07 0)
(-6.07527 -1.12377e-07 0)
(-6.07086 -1.11401e-07 0)
(-6.06656 -1.10561e-07 0)
(-6.06221 -1.09621e-07 0)
(-6.058 -1.08806e-07 0)
(-6.05371 -1.07898e-07 0)
(-6.04956 -1.0712e-07 0)
(-6.04534 -1.06271e-07 0)
(-6.04126 -1.05534e-07 0)
(-6.03709 -1.04755e-07 0)
(-6.03307 -1.04037e-07 0)
(-6.02896 -1.03388e-07 0)
(-6.02499 -1.02602e-07 0)
(-6.02094 -1.02338e-07 0)
(-6.01699 -1.01e-07 0)
(-6.01304 -1.02242e-07 0)
(-6.00899 -9.81782e-08 0)
(-6.00538 -1.05462e-07 0)
(-6.00073 -9.00691e-08 0)
(-5.99838 -1.17395e-07 0)
(-5.99148 -7.07268e-08 0)
(-5.99299 -9.67008e-08 0)
(-5.98366 -1.23924e-07 0)
)
;
    }
    symmetry
    {
        type            symmetryPlane;
    }
    frontAndBack
    {
        type            empty;
    }
}


// ************************************************************************* //
