/*--------------------------------*- C++ -*----------------------------------*\
| =========                 |                                                 |
| \\      /  F ield         | OpenFOAM: The Open Source CFD Toolbox           |
|  \\    /   O peration     | Version:  v2012                                 |
|   \\  /    A nd           | Website:  www.openfoam.com                      |
|    \\/     M anipulation  |                                                 |
\*---------------------------------------------------------------------------*/
FoamFile
{
    version     2.0;
    format      ascii;
    class       volScalarField;
    location    "41";
    object      k;
}
// * * * * * * * * * * * * * * * * * * * * * * * * * * * * * * * * * * * * * //

dimensions      [0 2 -2 0 0 0 0];


internalField   nonuniform List<scalar> 
209825
(
0.00102414
0.000931175
0.000855281
0.000794754
0.000747316
0.000710197
0.000680997
0.000657705
0.000638919
0.000623521
0.000610786
0.000600098
0.000591072
0.000583353
0.000576724
0.000570968
0.000565955
0.000561553
0.000557671
0.00055423
0.000551162
0.000548426
0.000545961
0.000543753
0.000541742
0.000539938
0.000538277
0.000536787
0.000535399
0.000534156
0.000532989
0.000531943
0.000530949
0.000530067
0.000529219
0.000528468
0.000527735
0.000527093
0.00052646
0.000525911
0.00052536
0.000524887
0.000524414
0.000524004
0.000523586
0.000523237
0.000522872
0.000522568
0.000522247
0.00052198
0.000521698
0.000521472
0.000521233
0.000521035
0.000520821
0.000520662
0.000520465
0.000520333
0.00052016
0.000520045
0.00051989
0.000519794
0.000519661
0.000519574
0.000519468
0.00051937
0.000519263
0.000519204
0.000519132
0.000519095
0.000519031
0.000519
0.000518941
0.000518916
0.000518861
0.000518856
0.000518842
0.000518865
0.000518865
0.000518918
0.000518918
0.000518989
0.000518997
0.000519074
0.000519095
0.000519182
0.000519214
0.000519316
0.000519356
0.000519481
0.000519524
0.00051964
0.000519854
0.000528347
0.000555964
0.00136274
0.00102414
0.000931175
0.000855281
0.000794754
0.000747314
0.000710194
0.000680993
0.0006577
0.000638912
0.000623514
0.000610778
0.000600089
0.000591063
0.000583343
0.000576713
0.000570957
0.000565944
0.000561541
0.000557659
0.000554218
0.000551149
0.000548414
0.000545948
0.00054374
0.000541728
0.000539925
0.000538264
0.000536773
0.000535385
0.000534142
0.000532974
0.000531929
0.000530935
0.000530053
0.000529204
0.000528454
0.00052772
0.000527078
0.000526445
0.000525896
0.000525345
0.000524872
0.000524398
0.000523989
0.000523571
0.000523221
0.000522857
0.000522552
0.000522231
0.000521965
0.000521683
0.000521457
0.000521217
0.00052102
0.000520806
0.000520646
0.000520449
0.000520318
0.000520144
0.00052003
0.000519875
0.000519778
0.000519646
0.000519558
0.000519453
0.000519354
0.000519247
0.000519189
0.000519116
0.000519079
0.000519015
0.000518984
0.000518925
0.0005189
0.000518845
0.00051884
0.000518826
0.000518849
0.000518849
0.000518902
0.000518902
0.000518973
0.000518981
0.000519058
0.000519079
0.000519165
0.000519197
0.0005193
0.000519339
0.000519464
0.000519507
0.000519623
0.000519838
0.000528346
0.000555956
0.00136351
0.00102414
0.000931176
0.000855281
0.000794751
0.000747307
0.000710182
0.000680975
0.000657678
0.000638886
0.000623483
0.000610744
0.000600053
0.000591024
0.000583302
0.00057667
0.000570913
0.000565898
0.000561494
0.00055761
0.000554168
0.000551099
0.000548362
0.000545896
0.000543687
0.000541675
0.00053987
0.000538209
0.000536718
0.000535329
0.000534085
0.000532918
0.000531872
0.000530877
0.000529995
0.000529146
0.000528395
0.000527661
0.000527019
0.000526386
0.000525837
0.000525286
0.000524813
0.000524339
0.000523929
0.000523511
0.000523161
0.000522796
0.000522492
0.00052217
0.000521904
0.000521622
0.000521395
0.000521156
0.000520958
0.000520744
0.000520585
0.000520387
0.000520256
0.000520082
0.000519968
0.000519813
0.000519716
0.000519583
0.000519496
0.00051939
0.000519292
0.000519184
0.000519126
0.000519053
0.000519017
0.000518952
0.000518921
0.000518862
0.000518837
0.000518782
0.000518777
0.000518763
0.000518786
0.000518786
0.000518839
0.000518839
0.000518909
0.000518917
0.000518994
0.000519015
0.000519101
0.000519133
0.000519235
0.000519275
0.0005194
0.000519443
0.000519559
0.000519774
0.000528314
0.000555906
0.00136507
0.00102414
0.000931178
0.000855282
0.000794746
0.000747294
0.00071016
0.000680945
0.000657639
0.00063884
0.000623432
0.000610687
0.000599991
0.000590958
0.000583233
0.000576598
0.000570838
0.00056582
0.000561414
0.000557528
0.000554085
0.000551014
0.000548275
0.000545808
0.000543598
0.000541584
0.000539779
0.000538117
0.000536625
0.000535236
0.000533991
0.000532823
0.000531776
0.000530781
0.000529898
0.000529049
0.000528298
0.000527563
0.000526921
0.000526287
0.000525738
0.000525186
0.000524713
0.000524238
0.000523828
0.00052341
0.00052306
0.000522695
0.00052239
0.000522069
0.000521802
0.000521519
0.000521293
0.000521053
0.000520855
0.000520641
0.000520481
0.000520284
0.000520152
0.000519978
0.000519864
0.000519709
0.000519612
0.000519479
0.000519392
0.000519286
0.000519187
0.00051908
0.000519021
0.000518948
0.000518912
0.000518847
0.000518816
0.000518757
0.000518732
0.000518677
0.000518672
0.000518657
0.00051868
0.000518679
0.000518732
0.000518732
0.000518803
0.00051881
0.000518887
0.000518908
0.000518994
0.000519026
0.000519128
0.000519167
0.000519292
0.000519335
0.000519451
0.000519667
0.000528256
0.00055582
0.00136691
0.00102414
0.000931181
0.000855282
0.000794739
0.000747276
0.000710129
0.000680902
0.000657585
0.000638776
0.00062336
0.000610607
0.000599904
0.000590866
0.000583135
0.000576496
0.000570732
0.000565711
0.000561302
0.000557413
0.000553967
0.000550894
0.000548153
0.000545684
0.000543472
0.000541457
0.000539651
0.000537987
0.000536494
0.000535104
0.000533858
0.000532688
0.000531641
0.000530645
0.000529761
0.000528911
0.00052816
0.000527424
0.000526781
0.000526147
0.000525597
0.000525045
0.000524571
0.000524096
0.000523686
0.000523267
0.000522917
0.000522552
0.000522246
0.000521925
0.000521658
0.000521375
0.000521148
0.000520908
0.00052071
0.000520496
0.000520336
0.000520138
0.000520006
0.000519832
0.000519717
0.000519562
0.000519465
0.000519332
0.000519244
0.000519138
0.00051904
0.000518932
0.000518874
0.0005188
0.000518764
0.000518699
0.000518668
0.000518608
0.000518583
0.000518529
0.000518523
0.000518508
0.00051853
0.00051853
0.000518582
0.000518582
0.000518652
0.000518659
0.000518736
0.000518757
0.000518843
0.000518874
0.000518976
0.000519016
0.00051914
0.000519183
0.000519299
0.000519516
0.000528172
0.000555699
0.001369
0.00102414
0.000931184
0.000855283
0.00079473
0.000747252
0.00071009
0.000680847
0.000657515
0.000638694
0.000623266
0.000610503
0.000599792
0.000590746
0.000583009
0.000576364
0.000570595
0.000565569
0.000561156
0.000557264
0.000553814
0.000550738
0.000547995
0.000545524
0.000543309
0.000541292
0.000539484
0.000537819
0.000536324
0.000534932
0.000533685
0.000532515
0.000531466
0.000530469
0.000529584
0.000528733
0.000527981
0.000527245
0.000526601
0.000525966
0.000525416
0.000524863
0.000524388
0.000523913
0.000523502
0.000523083
0.000522732
0.000522366
0.000522061
0.000521738
0.000521471
0.000521188
0.000520961
0.00052072
0.000520522
0.000520307
0.000520147
0.000519949
0.000519817
0.000519642
0.000519528
0.000519372
0.000519274
0.000519142
0.000519054
0.000518947
0.000518849
0.000518741
0.000518682
0.000518608
0.000518572
0.000518507
0.000518476
0.000518416
0.000518391
0.000518336
0.00051833
0.000518314
0.000518336
0.000518335
0.000518387
0.000518387
0.000518457
0.000518464
0.000518541
0.000518561
0.000518647
0.000518678
0.00051878
0.000518819
0.000518943
0.000518985
0.000519101
0.00051932
0.000528064
0.000555541
0.00137127
0.00102414
0.000931188
0.000855285
0.00079472
0.000747224
0.000710041
0.000680778
0.000657429
0.000638592
0.00062315
0.000610375
0.000599654
0.000590599
0.000582853
0.000576201
0.000570425
0.000565394
0.000560976
0.00055708
0.000553626
0.000550546
0.0005478
0.000545326
0.000543109
0.000541089
0.000539279
0.000537611
0.000536115
0.000534721
0.000533472
0.0005323
0.00053125
0.000530252
0.000529366
0.000528514
0.00052776
0.000527023
0.000526379
0.000525743
0.000525192
0.000524638
0.000524163
0.000523687
0.000523275
0.000522855
0.000522504
0.000522137
0.000521831
0.000521508
0.00052124
0.000520957
0.00052073
0.000520488
0.00052029
0.000520074
0.000519914
0.000519716
0.000519583
0.000519409
0.000519293
0.000519137
0.00051904
0.000518907
0.000518818
0.000518712
0.000518613
0.000518505
0.000518446
0.000518372
0.000518335
0.00051827
0.000518238
0.000518179
0.000518153
0.000518098
0.000518092
0.000518076
0.000518097
0.000518096
0.000518147
0.000518147
0.000518216
0.000518223
0.000518299
0.000518319
0.000518405
0.000518436
0.000518537
0.000518576
0.0005187
0.000518742
0.000518858
0.000519078
0.000527932
0.000555347
0.00137362
0.00102414
0.000931193
0.000855286
0.000794707
0.000747189
0.000709983
0.000680697
0.000657327
0.000638471
0.000623012
0.000610223
0.000599489
0.000590423
0.000582668
0.000576007
0.000570224
0.000565186
0.000560762
0.00055686
0.000553402
0.000550318
0.000547568
0.00054509
0.000542869
0.000540847
0.000539034
0.000537364
0.000535865
0.000534469
0.000533219
0.000532045
0.000530993
0.000529993
0.000529106
0.000528252
0.000527497
0.000526759
0.000526113
0.000525477
0.000524924
0.00052437
0.000523894
0.000523417
0.000523004
0.000522583
0.000522231
0.000521864
0.000521558
0.000521234
0.000520966
0.000520682
0.000520454
0.000520212
0.000520013
0.000519797
0.000519636
0.000519437
0.000519305
0.00051913
0.000519014
0.000518858
0.00051876
0.000518626
0.000518538
0.000518431
0.000518332
0.000518224
0.000518164
0.00051809
0.000518053
0.000517987
0.000517956
0.000517896
0.00051787
0.000517815
0.000517808
0.000517791
0.000517811
0.00051781
0.00051786
0.00051786
0.000517929
0.000517936
0.000518012
0.000518031
0.000518116
0.000518147
0.000518248
0.000518287
0.00051841
0.000518451
0.000518567
0.00051879
0.000527775
0.000555116
0.00137589
0.00102414
0.000931198
0.000855288
0.000794692
0.00074715
0.000709916
0.000680603
0.000657208
0.00063833
0.000622852
0.000610046
0.000599297
0.000590218
0.000582452
0.000575782
0.00056999
0.000564944
0.000560513
0.000556605
0.000553141
0.000550052
0.000547297
0.000544815
0.000542591
0.000540565
0.000538748
0.000537075
0.000535574
0.000534176
0.000532923
0.000531747
0.000530693
0.000529692
0.000528803
0.000527947
0.000527191
0.000526452
0.000525804
0.000525166
0.000524613
0.000524057
0.00052358
0.000523102
0.000522689
0.000522267
0.000521914
0.000521547
0.000521239
0.000520915
0.000520646
0.000520361
0.000520132
0.00051989
0.000519691
0.000519474
0.000519313
0.000519113
0.00051898
0.000518805
0.000518689
0.000518532
0.000518434
0.0005183
0.000518211
0.000518104
0.000518005
0.000517896
0.000517836
0.000517761
0.000517724
0.000517658
0.000517626
0.000517566
0.00051754
0.000517485
0.000517478
0.00051746
0.000517479
0.000517478
0.000517527
0.000517526
0.000517595
0.000517601
0.000517676
0.000517695
0.00051778
0.000517811
0.000517911
0.000517949
0.000518072
0.000518113
0.000518229
0.000518455
0.000527595
0.000554849
0.00137781
0.00102414
0.000931204
0.00085529
0.000794675
0.000747105
0.000709839
0.000680496
0.000657072
0.000638169
0.000622669
0.000609844
0.000599079
0.000589985
0.000582206
0.000575524
0.000569722
0.000564667
0.000560228
0.000556313
0.000552842
0.000549747
0.000546988
0.000544501
0.000542272
0.000540242
0.000538422
0.000536746
0.000535241
0.000533841
0.000532585
0.000531407
0.000530351
0.000529347
0.000528456
0.000527599
0.000526841
0.0005261
0.000525451
0.000524812
0.000524257
0.0005237
0.000523222
0.000522742
0.000522328
0.000521905
0.000521552
0.000521183
0.000520875
0.00052055
0.00052028
0.000519994
0.000519765
0.000519522
0.000519322
0.000519104
0.000518943
0.000518743
0.000518609
0.000518433
0.000518316
0.000518159
0.00051806
0.000517926
0.000517837
0.000517729
0.00051763
0.000517521
0.000517461
0.000517385
0.000517347
0.000517281
0.000517249
0.000517189
0.000517163
0.000517108
0.0005171
0.00051708
0.000517099
0.000517097
0.000517145
0.000517145
0.000517212
0.000517218
0.000517293
0.000517311
0.000517396
0.000517426
0.000517525
0.000517564
0.000517686
0.000517726
0.000517842
0.000518071
0.000527392
0.000554544
0.00137904
0.00102414
0.000931211
0.000855293
0.000794657
0.000747055
0.000709753
0.000680375
0.00065692
0.000637988
0.000622463
0.000609617
0.000598832
0.000589722
0.000581928
0.000575233
0.00056942
0.000564355
0.000559907
0.000555984
0.000552506
0.000549404
0.000546639
0.000544146
0.000541913
0.000539879
0.000538054
0.000536374
0.000534866
0.000533462
0.000532204
0.000531022
0.000529964
0.000528958
0.000528065
0.000527205
0.000526446
0.000525703
0.000525052
0.000524411
0.000523855
0.000523297
0.000522817
0.000522336
0.000521921
0.000521497
0.000521142
0.000520772
0.000520463
0.000520137
0.000519867
0.00051958
0.00051935
0.000519106
0.000518906
0.000518687
0.000518525
0.000518324
0.00051819
0.000518013
0.000517896
0.000517739
0.000517639
0.000517504
0.000517415
0.000517307
0.000517208
0.000517098
0.000517037
0.000516961
0.000516923
0.000516856
0.000516824
0.000516763
0.000516737
0.000516681
0.000516673
0.000516652
0.00051667
0.000516667
0.000516714
0.000516714
0.00051678
0.000516785
0.00051686
0.000516878
0.000516962
0.000516991
0.00051709
0.000517128
0.00051725
0.000517289
0.000517405
0.000517638
0.000527166
0.000554202
0.00137906
0.00102414
0.000931219
0.000855295
0.000794636
0.000746999
0.000709658
0.000680241
0.000656751
0.000637787
0.000622235
0.000609364
0.000598558
0.000589429
0.000581619
0.00057491
0.000569083
0.000564007
0.000559549
0.000555617
0.000552131
0.000549022
0.000546249
0.000543751
0.000541512
0.000539473
0.000537644
0.00053596
0.000534448
0.00053304
0.000531778
0.000530594
0.000529533
0.000528524
0.000527628
0.000526767
0.000526005
0.00052526
0.000524608
0.000523965
0.000523407
0.000522847
0.000522366
0.000521883
0.000521467
0.000521042
0.000520685
0.000520315
0.000520004
0.000519677
0.000519406
0.000519118
0.000518887
0.000518642
0.000518441
0.000518222
0.000518059
0.000517857
0.000517722
0.000517545
0.000517427
0.000517269
0.000517169
0.000517034
0.000516943
0.000516835
0.000516736
0.000516626
0.000516564
0.000516487
0.000516448
0.000516381
0.000516349
0.000516288
0.000516261
0.000516206
0.000516196
0.000516174
0.000516191
0.000516188
0.000516233
0.000516233
0.000516298
0.000516303
0.000516377
0.000516394
0.000516477
0.000516506
0.000516605
0.000516642
0.000516763
0.000516802
0.000516918
0.000517155
0.000526918
0.000553821
0.00137747
0.00102414
0.000931228
0.000855298
0.000794614
0.000746938
0.000709554
0.000680094
0.000656564
0.000637566
0.000621982
0.000609085
0.000598255
0.000589106
0.000581277
0.000574552
0.000568712
0.000563623
0.000559154
0.000555211
0.000551717
0.000548599
0.00054582
0.000543315
0.000541069
0.000539025
0.000537191
0.000535502
0.000533985
0.000532574
0.000531308
0.00053012
0.000529056
0.000528044
0.000527146
0.000526282
0.000525517
0.00052477
0.000524116
0.000523471
0.000522911
0.000522349
0.000521866
0.000521383
0.000520965
0.000520538
0.00052018
0.000519808
0.000519497
0.000519169
0.000518896
0.000518607
0.000518375
0.000518129
0.000517927
0.000517707
0.000517543
0.000517341
0.000517205
0.000517027
0.000516909
0.00051675
0.000516649
0.000516514
0.000516422
0.000516314
0.000516214
0.000516103
0.000516041
0.000515964
0.000515924
0.000515856
0.000515824
0.000515762
0.000515735
0.000515679
0.000515669
0.000515646
0.000515661
0.000515658
0.000515701
0.000515701
0.000515765
0.000515769
0.000515842
0.000515859
0.000515942
0.00051597
0.000516068
0.000516105
0.000516225
0.000516262
0.000516379
0.000516621
0.000526646
0.000553401
0.00137425
0.00102414
0.000931237
0.000855302
0.00079459
0.000746872
0.00070944
0.000679934
0.00065636
0.000637324
0.000621706
0.000608779
0.000597924
0.000588752
0.000580904
0.000574161
0.000568305
0.000563202
0.000558721
0.000554767
0.000551262
0.000548136
0.000545348
0.000542836
0.000540584
0.000538533
0.000536693
0.000534999
0.000533478
0.000532062
0.000530792
0.000529601
0.000528533
0.000527518
0.000526616
0.000525749
0.000524982
0.000524233
0.000523576
0.000522929
0.000522367
0.000521803
0.000521319
0.000520833
0.000520414
0.000519985
0.000519626
0.000519253
0.00051894
0.00051861
0.000518337
0.000518047
0.000517814
0.000517567
0.000517364
0.000517142
0.000516978
0.000516774
0.000516638
0.000516459
0.00051634
0.00051618
0.000516079
0.000515942
0.000515851
0.000515741
0.000515642
0.00051553
0.000515467
0.000515389
0.000515349
0.00051528
0.000515247
0.000515185
0.000515158
0.000515102
0.000515091
0.000515066
0.00051508
0.000515076
0.000515117
0.000515117
0.00051518
0.000515184
0.000515256
0.000515272
0.000515354
0.000515381
0.000515479
0.000515515
0.000515634
0.000515671
0.000515787
0.000516034
0.000526351
0.000552941
0.00136943
0.00102414
0.000931247
0.000855306
0.000794564
0.0007468
0.000709316
0.00067976
0.000656139
0.000637061
0.000621407
0.000608447
0.000597563
0.000588367
0.000580497
0.000573735
0.000567862
0.000562744
0.000558249
0.000554283
0.000550768
0.000547632
0.000544835
0.000542314
0.000540055
0.000537997
0.000536151
0.000534452
0.000532925
0.000531505
0.00053023
0.000529035
0.000527963
0.000526944
0.00052604
0.000525169
0.0005244
0.000523647
0.000522988
0.000522338
0.000521774
0.000521208
0.000520722
0.000520234
0.000519813
0.000519383
0.000519022
0.000518647
0.000518333
0.000518002
0.000517727
0.000517436
0.000517201
0.000516953
0.000516749
0.000516526
0.000516361
0.000516156
0.000516019
0.000515839
0.00051572
0.000515559
0.000515457
0.00051532
0.000515227
0.000515117
0.000515017
0.000514905
0.000514841
0.000514762
0.000514721
0.000514652
0.000514619
0.000514556
0.000514529
0.000514472
0.000514461
0.000514434
0.000514447
0.000514442
0.000514481
0.000514481
0.000514542
0.000514545
0.000514617
0.000514632
0.000514713
0.000514739
0.000514836
0.000514871
0.00051499
0.000515025
0.000515142
0.000515396
0.000526033
0.000552439
0.00136305
0.00102414
0.000931258
0.000855311
0.000794536
0.000746723
0.000709184
0.000679572
0.000655901
0.000636777
0.000621083
0.000608088
0.000597174
0.00058795
0.000580057
0.000573274
0.000567382
0.000562248
0.000557738
0.000553759
0.000550232
0.000547085
0.000544279
0.000541749
0.000539482
0.000537417
0.000535564
0.000533858
0.000532327
0.0005309
0.000529621
0.000528421
0.000527345
0.000526323
0.000525414
0.000524541
0.000523768
0.000523012
0.00052235
0.000521698
0.000521131
0.000520563
0.000520074
0.000519585
0.000519162
0.000518729
0.000518367
0.00051799
0.000517675
0.000517342
0.000517066
0.000516773
0.000516538
0.000516287
0.000516083
0.000515859
0.000515692
0.000515487
0.000515348
0.000515167
0.000515047
0.000514885
0.000514782
0.000514644
0.000514551
0.00051444
0.00051434
0.000514227
0.000514163
0.000514082
0.000514041
0.000513971
0.000513937
0.000513874
0.000513847
0.000513789
0.000513777
0.000513749
0.00051376
0.000513754
0.000513791
0.00051379
0.00051385
0.000513853
0.000513923
0.000513937
0.000514018
0.000514043
0.000514139
0.000514174
0.000514292
0.000514326
0.000514442
0.000514703
0.000525691
0.000551895
0.00135513
0.00102414
0.00093127
0.000855316
0.000794507
0.000746641
0.000709042
0.000679371
0.000655645
0.000636472
0.000620735
0.000607703
0.000596755
0.000587502
0.000579583
0.000572777
0.000566866
0.000561714
0.000557188
0.000553195
0.000549654
0.000546496
0.000543679
0.00054114
0.000538864
0.000536791
0.000534931
0.000533219
0.000531681
0.000530249
0.000528965
0.000527759
0.000526679
0.000525652
0.00052474
0.000523863
0.000523086
0.000522327
0.000521663
0.000521007
0.000520438
0.000519867
0.000519376
0.000518884
0.000518459
0.000518025
0.000517661
0.000517281
0.000516964
0.00051663
0.000516353
0.000516058
0.000515821
0.00051557
0.000515364
0.000515138
0.000514971
0.000514764
0.000514624
0.000514442
0.000514321
0.000514159
0.000514054
0.000513916
0.000513821
0.00051371
0.00051361
0.000513496
0.00051343
0.000513349
0.000513307
0.000513237
0.000513202
0.000513138
0.00051311
0.000513052
0.000513039
0.000513009
0.000513019
0.000513012
0.000513046
0.000513046
0.000513104
0.000513106
0.000513175
0.000513188
0.000513268
0.000513293
0.000513387
0.000513421
0.000513538
0.000513571
0.000513687
0.000513956
0.000525323
0.000551305
0.00134572
0.00102414
0.000931282
0.000855321
0.000794476
0.000746554
0.000708891
0.000679156
0.000655372
0.000636146
0.000620362
0.000607289
0.000596306
0.000587022
0.000579075
0.000572245
0.000566312
0.000561141
0.000556598
0.000552589
0.000549035
0.000545864
0.000543036
0.000540487
0.000538201
0.00053612
0.000534252
0.000532532
0.000530987
0.000529549
0.000528259
0.000527049
0.000525964
0.000524932
0.000524016
0.000523134
0.000522354
0.000521592
0.000520924
0.000520265
0.000519693
0.00051912
0.000518626
0.000518131
0.000517704
0.000517268
0.000516901
0.00051652
0.000516202
0.000515865
0.000515586
0.00051529
0.000515052
0.000514798
0.000514591
0.000514364
0.000514195
0.000513987
0.000513846
0.000513663
0.000513541
0.000513378
0.000513272
0.000513133
0.000513038
0.000512925
0.000512825
0.00051271
0.000512643
0.000512561
0.000512518
0.000512447
0.000512412
0.000512348
0.000512319
0.00051226
0.000512246
0.000512215
0.000512223
0.000512214
0.000512246
0.000512246
0.000512302
0.000512303
0.000512371
0.000512383
0.000512462
0.000512486
0.000512579
0.000512613
0.000512728
0.000512759
0.000512876
0.000513153
0.00052493
0.000550669
0.00133486
0.00102414
0.000931295
0.000855327
0.000794443
0.000746462
0.00070873
0.000678929
0.000655081
0.000635799
0.000619965
0.000606849
0.000595827
0.000586509
0.000578533
0.000571677
0.00056572
0.000560529
0.000555967
0.000551942
0.000548373
0.000545189
0.000542348
0.000539788
0.000537492
0.000535401
0.000533525
0.000531797
0.000530246
0.000528801
0.000527505
0.000526289
0.000525198
0.000524162
0.000523241
0.000522355
0.000521571
0.000520805
0.000520133
0.000519472
0.000518897
0.00051832
0.000517823
0.000517326
0.000516896
0.000516457
0.000516089
0.000515706
0.000515385
0.000515047
0.000514766
0.000514468
0.000514228
0.000513973
0.000513764
0.000513535
0.000513366
0.000513156
0.000513014
0.00051283
0.000512706
0.000512542
0.000512435
0.000512295
0.000512199
0.000512085
0.000511985
0.000511868
0.000511801
0.000511717
0.000511674
0.000511602
0.000511566
0.000511501
0.000511472
0.000511413
0.000511398
0.000511365
0.000511371
0.000511361
0.00051139
0.000511389
0.000511443
0.000511444
0.000511511
0.000511522
0.000511599
0.000511622
0.000511714
0.000511747
0.000511861
0.000511891
0.000512008
0.000512294
0.000524509
0.000549982
0.00132261
0.00102414
0.000931309
0.000855334
0.000794409
0.000746365
0.000708561
0.000678687
0.000654772
0.000635431
0.000619544
0.000606381
0.000595318
0.000585964
0.000577956
0.000571072
0.000565091
0.000559877
0.000555295
0.000551253
0.000547668
0.000544469
0.000541615
0.000539043
0.000536737
0.000534636
0.000532751
0.000531014
0.000529455
0.000528003
0.000526701
0.000525478
0.000524382
0.000523341
0.000522415
0.000521524
0.000520736
0.000519966
0.000519291
0.000518625
0.000518047
0.000517467
0.000516967
0.000516467
0.000516035
0.000515593
0.000515223
0.000514837
0.000514514
0.000514174
0.000513891
0.000513591
0.000513349
0.000513092
0.000512882
0.000512652
0.000512481
0.000512269
0.000512126
0.00051194
0.000511816
0.00051165
0.000511542
0.000511401
0.000511303
0.000511189
0.000511088
0.000510971
0.000510902
0.000510817
0.000510773
0.0005107
0.000510663
0.000510598
0.000510568
0.000510508
0.000510492
0.000510458
0.000510462
0.00051045
0.000510478
0.000510476
0.000510527
0.000510528
0.000510593
0.000510603
0.000510679
0.0005107
0.000510792
0.000510823
0.000510936
0.000510964
0.000511082
0.000511378
0.000524059
0.000549242
0.00130904
0.00102414
0.000931323
0.000855341
0.000794374
0.000746263
0.000708383
0.000678433
0.000654447
0.000635041
0.000619097
0.000605885
0.000594778
0.000585386
0.000577344
0.000570431
0.000564423
0.000559185
0.000554583
0.000550521
0.000546919
0.000543705
0.000540837
0.000538252
0.000535934
0.000533823
0.000531928
0.000530182
0.000528615
0.000527155
0.000525846
0.000524617
0.000523515
0.000522468
0.000521536
0.000520641
0.000519848
0.000519074
0.000518395
0.000517725
0.000517143
0.00051656
0.000516057
0.000515554
0.000515119
0.000514674
0.000514301
0.000513913
0.000513588
0.000513245
0.000512961
0.000512659
0.000512415
0.000512156
0.000511945
0.000511712
0.000511539
0.000511326
0.000511182
0.000510995
0.000510869
0.000510702
0.000510593
0.00051045
0.000510352
0.000510236
0.000510135
0.000510016
0.000509947
0.00050986
0.000509815
0.000509741
0.000509704
0.000509637
0.000509607
0.000509546
0.000509529
0.000509493
0.000509495
0.000509482
0.000509507
0.000509504
0.000509553
0.000509553
0.000509617
0.000509625
0.0005097
0.00050972
0.000509811
0.000509841
0.000509952
0.000509979
0.000510097
0.000510403
0.000523577
0.000548444
0.00129419
0.00102414
0.000931339
0.000855349
0.000794338
0.000746157
0.000708195
0.000678165
0.000654104
0.00063463
0.000618626
0.000605361
0.000594208
0.000584775
0.000576697
0.000569752
0.000563716
0.000558453
0.000553828
0.000549746
0.000546126
0.000542895
0.000540012
0.000537414
0.000535084
0.000532961
0.000531056
0.000529301
0.000527725
0.000526257
0.00052494
0.000523704
0.000522596
0.000521542
0.000520605
0.000519705
0.000518907
0.000518128
0.000517445
0.000516771
0.000516185
0.000515598
0.000515092
0.000514585
0.000514148
0.0005137
0.000513324
0.000512933
0.000512606
0.000512261
0.000511974
0.00051167
0.000511424
0.000511163
0.00051095
0.000510715
0.000510541
0.000510326
0.00051018
0.000509991
0.000509864
0.000509696
0.000509586
0.000509442
0.000509342
0.000509225
0.000509124
0.000509004
0.000508933
0.000508845
0.000508799
0.000508723
0.000508685
0.000508618
0.000508587
0.000508526
0.000508507
0.00050847
0.00050847
0.000508455
0.000508477
0.000508474
0.00050852
0.00050852
0.000508581
0.000508589
0.000508662
0.000508681
0.00050877
0.000508799
0.000508909
0.000508934
0.000509052
0.00050937
0.000523057
0.000547588
0.00127815
0.00102414
0.000931355
0.000855357
0.0007943
0.000746046
0.000707999
0.000677884
0.000653743
0.000634198
0.000618131
0.00060481
0.000593607
0.000584131
0.000576015
0.000569036
0.00056297
0.000557681
0.000553031
0.000548928
0.000545288
0.00054204
0.000539142
0.000536529
0.000534185
0.000532051
0.000530134
0.000528369
0.000526784
0.000525307
0.000523983
0.000522739
0.000521624
0.000520564
0.000519621
0.000518715
0.000517912
0.000517128
0.00051644
0.000515762
0.000515172
0.000514581
0.000514072
0.000513561
0.000513121
0.00051267
0.000512291
0.000511897
0.000511567
0.00051122
0.000510931
0.000510624
0.000510376
0.000510112
0.000509898
0.000509661
0.000509485
0.000509268
0.00050912
0.00050893
0.000508801
0.000508632
0.00050852
0.000508375
0.000508274
0.000508156
0.000508054
0.000507932
0.000507861
0.000507771
0.000507724
0.000507647
0.000507608
0.00050754
0.000507508
0.000507446
0.000507427
0.000507388
0.000507386
0.000507368
0.000507388
0.000507384
0.000507426
0.000507426
0.000507486
0.000507492
0.000507564
0.000507581
0.000507669
0.000507697
0.000507805
0.000507828
0.000507947
0.000508276
0.000522493
0.000546669
0.00126099
0.00102413
0.000931371
0.000855367
0.000794262
0.000745931
0.000707795
0.00067759
0.000653365
0.000633745
0.00061761
0.00060423
0.000592975
0.000583454
0.000575297
0.000568282
0.000562184
0.000556867
0.000552192
0.000548066
0.000544406
0.000541139
0.000538224
0.000535596
0.000533238
0.000531091
0.000529163
0.000527387
0.000525791
0.000524306
0.000522973
0.000521721
0.000520599
0.000519532
0.000518583
0.00051767
0.000516862
0.000516073
0.00051538
0.000514697
0.000514103
0.000513508
0.000512995
0.000512481
0.000512037
0.000511582
0.000511201
0.000510804
0.000510471
0.000510121
0.00050983
0.00050952
0.00050927
0.000509004
0.000508787
0.000508548
0.00050837
0.000508152
0.000508002
0.00050781
0.00050768
0.000507508
0.000507395
0.000507249
0.000507146
0.000507027
0.000506924
0.000506802
0.000506729
0.000506637
0.000506589
0.000506511
0.000506471
0.000506402
0.000506369
0.000506307
0.000506286
0.000506246
0.000506242
0.000506222
0.000506239
0.000506234
0.000506272
0.000506272
0.000506329
0.000506334
0.000506405
0.00050642
0.000506506
0.000506534
0.00050664
0.000506661
0.00050678
0.000507122
0.000521879
0.000545687
0.00124279
0.00102413
0.000931388
0.000855377
0.000794222
0.000745811
0.000707582
0.000677283
0.000652971
0.000633271
0.000617065
0.000603623
0.000592313
0.000582743
0.000574544
0.000567491
0.000561359
0.000556012
0.00055131
0.00054716
0.000543478
0.000540192
0.000537259
0.000534614
0.000532242
0.000530081
0.00052814
0.000526353
0.000524747
0.000523252
0.00052191
0.00052065
0.00051952
0.000518446
0.00051749
0.000516571
0.000515757
0.000514962
0.000514264
0.000513576
0.000512978
0.000512379
0.000511861
0.000511343
0.000510895
0.000510437
0.000510053
0.000509652
0.000509317
0.000508963
0.00050867
0.000508357
0.000508105
0.000507836
0.000507618
0.000507376
0.000507196
0.000506976
0.000506824
0.00050663
0.000506498
0.000506326
0.000506211
0.000506063
0.000505959
0.000505838
0.000505735
0.000505611
0.000505536
0.000505443
0.000505393
0.000505314
0.000505273
0.000505203
0.00050517
0.000505106
0.000505084
0.000505043
0.000505037
0.000505014
0.000505029
0.000505022
0.000505057
0.000505057
0.000505111
0.000505115
0.000505184
0.000505198
0.000505282
0.000505308
0.000505412
0.000505431
0.000505551
0.000505907
0.000521205
0.000544637
0.00122362
0.00102413
0.000931406
0.000855387
0.000794181
0.000745688
0.000707361
0.000676964
0.000652559
0.000632776
0.000616496
0.000602988
0.00059162
0.000581999
0.000573754
0.000566662
0.000560494
0.000555116
0.000550385
0.00054621
0.000542505
0.000539198
0.000536246
0.000533584
0.000531196
0.000529021
0.000527067
0.000525268
0.000523651
0.000522145
0.000520794
0.000519525
0.000518387
0.000517305
0.000516342
0.000515416
0.000514596
0.000513795
0.000513092
0.000512399
0.000511796
0.000511192
0.00051067
0.000510147
0.000509696
0.000509234
0.000508846
0.000508442
0.000508104
0.000507747
0.000507451
0.000507136
0.000506881
0.000506609