/*--------------------------------*- C++ -*----------------------------------*\
| =========                 |                                                 |
| \\      /  F ield         | OpenFOAM: The Open Source CFD Toolbox           |
|  \\    /   O peration     | Version:  v2012                                 |
|   \\  /    A nd           | Website:  www.openfoam.com                      |
|    \\/     M anipulation  |                                                 |
\*---------------------------------------------------------------------------*/
FoamFile
{
    version     2.0;
    format      ascii;
    class       volScalarField;
    location    "41";
    object      nut;
}
// * * * * * * * * * * * * * * * * * * * * * * * * * * * * * * * * * * * * * //

dimensions      [0 2 -1 0 0 0 0];


internalField   nonuniform List<scalar> 
209825
(
1.23964e-07
1.23046e-07
1.22191e-07
1.21389e-07
1.20685e-07
1.20076e-07
1.1958e-07
1.19162e-07
1.18833e-07
1.18554e-07
1.18337e-07
1.18147e-07
1.18003e-07
1.17873e-07
1.17777e-07
1.17685e-07
1.17621e-07
1.17556e-07
1.17513e-07
1.17466e-07
1.17438e-07
1.17404e-07
1.17386e-07
1.17361e-07
1.1735e-07
1.17332e-07
1.17325e-07
1.17312e-07
1.17309e-07
1.173e-07
1.173e-07
1.17292e-07
1.17293e-07
1.17289e-07
1.17292e-07
1.17289e-07
1.17291e-07
1.17289e-07
1.17293e-07
1.17292e-07
1.17295e-07
1.17296e-07
1.17301e-07
1.17301e-07
1.17305e-07
1.17307e-07
1.17312e-07
1.17314e-07
1.17317e-07
1.17319e-07
1.17321e-07
1.17323e-07
1.17326e-07
1.1733e-07
1.17332e-07
1.17338e-07
1.17337e-07
1.17345e-07
1.17345e-07
1.1735e-07
1.17347e-07
1.17351e-07
1.17351e-07
1.17351e-07
1.17353e-07
1.17348e-07
1.17347e-07
1.17348e-07
1.17351e-07
1.17352e-07
1.17354e-07
1.17355e-07
1.17356e-07
1.17358e-07
1.1736e-07
1.17367e-07
1.17376e-07
1.17387e-07
1.17397e-07
1.17414e-07
1.17423e-07
1.17441e-07
1.17447e-07
1.17462e-07
1.17467e-07
1.17479e-07
1.17486e-07
1.17496e-07
1.17505e-07
1.17515e-07
1.17525e-07
1.17525e-07
1.17556e-07
1.18688e-07
1.21834e-07
1.20361e-08
1.23964e-07
1.23046e-07
1.22191e-07
1.21389e-07
1.20685e-07
1.20076e-07
1.1958e-07
1.19163e-07
1.18834e-07
1.18554e-07
1.18337e-07
1.18147e-07
1.18004e-07
1.17873e-07
1.17777e-07
1.17685e-07
1.17621e-07
1.17556e-07
1.17513e-07
1.17466e-07
1.17438e-07
1.17404e-07
1.17386e-07
1.17361e-07
1.1735e-07
1.17332e-07
1.17326e-07
1.17313e-07
1.1731e-07
1.173e-07
1.173e-07
1.17292e-07
1.17294e-07
1.17289e-07
1.17292e-07
1.17289e-07
1.17291e-07
1.17289e-07
1.17293e-07
1.17292e-07
1.17296e-07
1.17296e-07
1.17301e-07
1.17301e-07
1.17305e-07
1.17307e-07
1.17312e-07
1.17314e-07
1.17317e-07
1.17319e-07
1.17322e-07
1.17323e-07
1.17326e-07
1.1733e-07
1.17332e-07
1.17338e-07
1.17337e-07
1.17345e-07
1.17345e-07
1.1735e-07
1.17347e-07
1.17352e-07
1.17351e-07
1.17351e-07
1.17353e-07
1.17349e-07
1.17348e-07
1.17348e-07
1.17351e-07
1.17353e-07
1.17354e-07
1.17355e-07
1.17356e-07
1.17358e-07
1.1736e-07
1.17367e-07
1.17376e-07
1.17387e-07
1.17398e-07
1.17414e-07
1.17423e-07
1.17441e-07
1.17447e-07
1.17462e-07
1.17467e-07
1.17479e-07
1.17487e-07
1.17496e-07
1.17505e-07
1.17515e-07
1.17525e-07
1.17526e-07
1.17556e-07
1.1869e-07
1.21835e-07
1.24043e-08
1.23964e-07
1.23046e-07
1.22191e-07
1.21389e-07
1.20685e-07
1.20076e-07
1.1958e-07
1.19162e-07
1.18833e-07
1.18553e-07
1.18336e-07
1.18147e-07
1.18003e-07
1.17872e-07
1.17776e-07
1.17684e-07
1.1762e-07
1.17555e-07
1.17512e-07
1.17465e-07
1.17437e-07
1.17403e-07
1.17385e-07
1.1736e-07
1.17349e-07
1.17331e-07
1.17324e-07
1.17311e-07
1.17308e-07
1.17298e-07
1.17298e-07
1.17291e-07
1.17292e-07
1.17288e-07
1.17291e-07
1.17287e-07
1.1729e-07
1.17288e-07
1.17292e-07
1.17291e-07
1.17294e-07
1.17294e-07
1.173e-07
1.17299e-07
1.17304e-07
1.17305e-07
1.1731e-07
1.17312e-07
1.17316e-07
1.17317e-07
1.1732e-07
1.17322e-07
1.17324e-07
1.17329e-07
1.1733e-07
1.17336e-07
1.17336e-07
1.17343e-07
1.17344e-07
1.17349e-07
1.17346e-07
1.1735e-07
1.17349e-07
1.1735e-07
1.17351e-07
1.17347e-07
1.17346e-07
1.17347e-07
1.17349e-07
1.17351e-07
1.17353e-07
1.17354e-07
1.17355e-07
1.17357e-07
1.17359e-07
1.17365e-07
1.17375e-07
1.17386e-07
1.17396e-07
1.17412e-07
1.17421e-07
1.17439e-07
1.17446e-07
1.1746e-07
1.17465e-07
1.17478e-07
1.17485e-07
1.17494e-07
1.17503e-07
1.17514e-07
1.17523e-07
1.17524e-07
1.17555e-07
1.18693e-07
1.21836e-07
1.28615e-08
1.23964e-07
1.23046e-07
1.22191e-07
1.21389e-07
1.20685e-07
1.20075e-07
1.19579e-07
1.19162e-07
1.18832e-07
1.18552e-07
1.18335e-07
1.18146e-07
1.18002e-07
1.17871e-07
1.17775e-07
1.17683e-07
1.17618e-07
1.17553e-07
1.1751e-07
1.17463e-07
1.17435e-07
1.17401e-07
1.17383e-07
1.17358e-07
1.17347e-07
1.17329e-07
1.17322e-07
1.17309e-07
1.17306e-07
1.17296e-07
1.17296e-07
1.17289e-07
1.1729e-07
1.17286e-07
1.17289e-07
1.17285e-07
1.17288e-07
1.17286e-07
1.1729e-07
1.17289e-07
1.17292e-07
1.17292e-07
1.17298e-07
1.17297e-07
1.17302e-07
1.17303e-07
1.17308e-07
1.1731e-07
1.17314e-07
1.17315e-07
1.17318e-07
1.17319e-07
1.17322e-07
1.17327e-07
1.17328e-07
1.17334e-07
1.17334e-07
1.17341e-07
1.17341e-07
1.17346e-07
1.17343e-07
1.17348e-07
1.17347e-07
1.17348e-07
1.17349e-07
1.17345e-07
1.17344e-07
1.17345e-07
1.17347e-07
1.17349e-07
1.1735e-07
1.17352e-07
1.17353e-07
1.17354e-07
1.17356e-07
1.17363e-07
1.17372e-07
1.17383e-07
1.17394e-07
1.1741e-07
1.17419e-07
1.17437e-07
1.17443e-07
1.17458e-07
1.17463e-07
1.17475e-07
1.17483e-07
1.17492e-07
1.17501e-07
1.17511e-07
1.17521e-07
1.17522e-07
1.17553e-07
1.18698e-07
1.21836e-07
1.33693e-08
1.23964e-07
1.23046e-07
1.22191e-07
1.21389e-07
1.20685e-07
1.20075e-07
1.19579e-07
1.19161e-07
1.18832e-07
1.18551e-07
1.18334e-07
1.18144e-07
1.18e-07
1.17869e-07
1.17773e-07
1.17681e-07
1.17617e-07
1.17551e-07
1.17508e-07
1.17461e-07
1.17433e-07
1.17399e-07
1.1738e-07
1.17356e-07
1.17344e-07
1.17326e-07
1.1732e-07
1.17307e-07
1.17304e-07
1.17294e-07
1.17294e-07
1.17286e-07
1.17288e-07
1.17283e-07
1.17286e-07
1.17282e-07
1.17285e-07
1.17283e-07
1.17287e-07
1.17286e-07
1.17289e-07
1.17289e-07
1.17295e-07
1.17295e-07
1.17299e-07
1.173e-07
1.17305e-07
1.17308e-07
1.17311e-07
1.17313e-07
1.17315e-07
1.17317e-07
1.1732e-07
1.17324e-07
1.17325e-07
1.17331e-07
1.17331e-07
1.17338e-07
1.17339e-07
1.17344e-07
1.17341e-07
1.17345e-07
1.17345e-07
1.17345e-07
1.17347e-07
1.17342e-07
1.17341e-07
1.17342e-07
1.17344e-07
1.17346e-07
1.17348e-07
1.17349e-07
1.1735e-07
1.17352e-07
1.17354e-07
1.1736e-07
1.17369e-07
1.1738e-07
1.17391e-07
1.17407e-07
1.17416e-07
1.17434e-07
1.17441e-07
1.17455e-07
1.1746e-07
1.17473e-07
1.1748e-07
1.17489e-07
1.17498e-07
1.17508e-07
1.17518e-07
1.17519e-07
1.1755e-07
1.18705e-07
1.21836e-07
1.39202e-08
1.23964e-07
1.23046e-07
1.22191e-07
1.21389e-07
1.20685e-07
1.20075e-07
1.19579e-07
1.19161e-07
1.18831e-07
1.1855e-07
1.18333e-07
1.18143e-07
1.17998e-07
1.17867e-07
1.17771e-07
1.17679e-07
1.17614e-07
1.17549e-07
1.17506e-07
1.17459e-07
1.1743e-07
1.17396e-07
1.17378e-07
1.17353e-07
1.17341e-07
1.17323e-07
1.17317e-07
1.17304e-07
1.17301e-07
1.17291e-07
1.17291e-07
1.17283e-07
1.17284e-07
1.1728e-07
1.17283e-07
1.17279e-07
1.17282e-07
1.1728e-07
1.17284e-07
1.17283e-07
1.17286e-07
1.17286e-07
1.17292e-07
1.17291e-07
1.17296e-07
1.17297e-07
1.17302e-07
1.17304e-07
1.17308e-07
1.17309e-07
1.17312e-07
1.17313e-07
1.17316e-07
1.1732e-07
1.17322e-07
1.17328e-07
1.17328e-07
1.17335e-07
1.17335e-07
1.1734e-07
1.17337e-07
1.17342e-07
1.17341e-07
1.17342e-07
1.17343e-07
1.17339e-07
1.17338e-07
1.17339e-07
1.17341e-07
1.17343e-07
1.17344e-07
1.17346e-07
1.17347e-07
1.17348e-07
1.1735e-07
1.17357e-07
1.17366e-07
1.17377e-07
1.17387e-07
1.17403e-07
1.17412e-07
1.1743e-07
1.17437e-07
1.17452e-07
1.17457e-07
1.17469e-07
1.17476e-07
1.17486e-07
1.17495e-07
1.17505e-07
1.17514e-07
1.17515e-07
1.17546e-07
1.18714e-07
1.21837e-07
1.45127e-08
1.23964e-07
1.23046e-07
1.22191e-07
1.21389e-07
1.20685e-07
1.20075e-07
1.19578e-07
1.1916e-07
1.1883e-07
1.18549e-07
1.18331e-07
1.18141e-07
1.17996e-07
1.17865e-07
1.17768e-07
1.17676e-07
1.17611e-07
1.17546e-07
1.17503e-07
1.17455e-07
1.17427e-07
1.17393e-07
1.17374e-07
1.17349e-07
1.17338e-07
1.1732e-07
1.17313e-07
1.173e-07
1.17297e-07
1.17287e-07
1.17287e-07
1.17279e-07
1.17281e-07
1.17276e-07
1.17279e-07
1.17275e-07
1.17278e-07
1.17276e-07
1.1728e-07
1.17279e-07
1.17282e-07
1.17282e-07
1.17288e-07
1.17287e-07
1.17292e-07
1.17293e-07
1.17298e-07
1.173e-07
1.17304e-07
1.17305e-07
1.17308e-07
1.17309e-07
1.17312e-07
1.17317e-07
1.17318e-07
1.17324e-07
1.17324e-07
1.17331e-07
1.17331e-07
1.17336e-07
1.17333e-07
1.17338e-07
1.17337e-07
1.17338e-07
1.17339e-07
1.17335e-07
1.17334e-07
1.17335e-07
1.17337e-07
1.17339e-07
1.1734e-07
1.17342e-07
1.17343e-07
1.17345e-07
1.17346e-07
1.17353e-07
1.17362e-07
1.17373e-07
1.17383e-07
1.17399e-07
1.17408e-07
1.17426e-07
1.17433e-07
1.17447e-07
1.17452e-07
1.17465e-07
1.17472e-07
1.17481e-07
1.1749e-07
1.17501e-07
1.1751e-07
1.17511e-07
1.17543e-07
1.18725e-07
1.21839e-07
1.51473e-08
1.23964e-07
1.23046e-07
1.22192e-07
1.21389e-07
1.20686e-07
1.20075e-07
1.19578e-07
1.19159e-07
1.18829e-07
1.18547e-07
1.18329e-07
1.18138e-07
1.17994e-07
1.17862e-07
1.17765e-07
1.17673e-07
1.17608e-07
1.17543e-07
1.17499e-07
1.17452e-07
1.17423e-07
1.17389e-07
1.1737e-07
1.17345e-07
1.17334e-07
1.17316e-07
1.17309e-07
1.17296e-07
1.17293e-07
1.17283e-07
1.17283e-07
1.17275e-07
1.17276e-07
1.17272e-07
1.17275e-07
1.17271e-07
1.17274e-07
1.17271e-07
1.17275e-07
1.17275e-07
1.17278e-07
1.17278e-07
1.17283e-07
1.17283e-07
1.17287e-07
1.17289e-07
1.17294e-07
1.17296e-07
1.17299e-07
1.17301e-07
1.17303e-07
1.17305e-07
1.17308e-07
1.17312e-07
1.17314e-07
1.1732e-07
1.17319e-07
1.17327e-07
1.17327e-07
1.17332e-07
1.17329e-07
1.17333e-07
1.17333e-07
1.17333e-07
1.17335e-07
1.17331e-07
1.1733e-07
1.1733e-07
1.17333e-07
1.17334e-07
1.17336e-07
1.17337e-07
1.17338e-07
1.1734e-07
1.17342e-07
1.17348e-07
1.17357e-07
1.17368e-07
1.17378e-07
1.17394e-07
1.17403e-07
1.17421e-07
1.17428e-07
1.17443e-07
1.17448e-07
1.1746e-07
1.17467e-07
1.17477e-07
1.17486e-07
1.17496e-07
1.17505e-07
1.17506e-07
1.17538e-07
1.1874e-07
1.2184e-07
1.58246e-08
1.23964e-07
1.23046e-07
1.22192e-07
1.2139e-07
1.20686e-07
1.20075e-07
1.19577e-07
1.19158e-07
1.18827e-07
1.18546e-07
1.18327e-07
1.18136e-07
1.17991e-07
1.17859e-07
1.17762e-07
1.1767e-07
1.17604e-07
1.17539e-07
1.17495e-07
1.17448e-07
1.17419e-07
1.17384e-07
1.17366e-07
1.17341e-07
1.17329e-07
1.17311e-07
1.17304e-07
1.17291e-07
1.17288e-07
1.17278e-07
1.17278e-07
1.1727e-07
1.17271e-07
1.17267e-07
1.1727e-07
1.17266e-07
1.17269e-07
1.17266e-07
1.1727e-07
1.1727e-07
1.17273e-07
1.17273e-07
1.17278e-07
1.17278e-07
1.17282e-07
1.17284e-07
1.17289e-07
1.17291e-07
1.17294e-07
1.17296e-07
1.17298e-07
1.173e-07
1.17303e-07
1.17307e-07
1.17308e-07
1.17315e-07
1.17314e-07
1.17322e-07
1.17322e-07
1.17327e-07
1.17324e-07
1.17328e-07
1.17328e-07
1.17328e-07
1.1733e-07
1.17326e-07
1.17325e-07
1.17325e-07
1.17328e-07
1.17329e-07
1.17331e-07
1.17332e-07
1.17333e-07
1.17335e-07
1.17337e-07
1.17343e-07
1.17352e-07
1.17363e-07
1.17373e-07
1.17389e-07
1.17398e-07
1.17415e-07
1.17422e-07
1.17437e-07
1.17442e-07
1.17455e-07
1.17462e-07
1.17471e-07
1.1748e-07
1.17491e-07
1.175e-07
1.17501e-07
1.17533e-07
1.18757e-07
1.21842e-07
1.65452e-08
1.23964e-07
1.23046e-07
1.22192e-07
1.2139e-07
1.20686e-07
1.20075e-07
1.19577e-07
1.19157e-07
1.18826e-07
1.18544e-07
1.18325e-07
1.18133e-07
1.17988e-07
1.17856e-07
1.17759e-07
1.17666e-07
1.176e-07
1.17534e-07
1.17491e-07
1.17443e-07
1.17414e-07
1.1738e-07
1.17361e-07
1.17336e-07
1.17324e-07
1.17306e-07
1.17299e-07
1.17286e-07
1.17283e-07
1.17273e-07
1.17272e-07
1.17265e-07
1.17266e-07
1.17261e-07
1.17264e-07
1.17261e-07
1.17263e-07
1.17261e-07
1.17265e-07
1.17264e-07
1.17267e-07
1.17267e-07
1.17273e-07
1.17272e-07
1.17277e-07
1.17278e-07
1.17283e-07
1.17285e-07
1.17288e-07
1.1729e-07
1.17293e-07
1.17294e-07
1.17297e-07
1.17301e-07
1.17303e-07
1.17309e-07
1.17308e-07
1.17316e-07
1.17316e-07
1.17321e-07
1.17318e-07
1.17322e-07
1.17322e-07
1.17322e-07
1.17324e-07
1.1732e-07
1.17319e-07
1.1732e-07
1.17322e-07
1.17324e-07
1.17325e-07
1.17327e-07
1.17327e-07
1.17329e-07
1.17331e-07
1.17338e-07
1.17346e-07
1.17356e-07
1.17367e-07
1.17382e-07
1.17391e-07
1.17409e-07
1.17416e-07
1.17431e-07
1.17436e-07
1.17449e-07
1.17455e-07
1.17465e-07
1.17474e-07
1.17485e-07
1.17494e-07
1.17495e-07
1.17527e-07
1.18777e-07
1.21844e-07
1.73091e-08
1.23964e-07
1.23046e-07
1.22192e-07
1.21391e-07
1.20686e-07
1.20075e-07
1.19576e-07
1.19156e-07
1.18824e-07
1.18542e-07
1.18322e-07
1.1813e-07
1.17985e-07
1.17852e-07
1.17755e-07
1.17661e-07
1.17596e-07
1.1753e-07
1.17486e-07
1.17438e-07
1.17409e-07
1.17374e-07
1.17356e-07
1.1733e-07
1.17319e-07
1.173e-07
1.17293e-07
1.1728e-07
1.17277e-07
1.17267e-07
1.17266e-07
1.17259e-07
1.1726e-07
1.17255e-07
1.17258e-07
1.17254e-07
1.17257e-07
1.17255e-07
1.17259e-07
1.17258e-07
1.17261e-07
1.17261e-07
1.17266e-07
1.17266e-07
1.1727e-07
1.17272e-07
1.17277e-07
1.17279e-07
1.17282e-07
1.17284e-07
1.17286e-07
1.17288e-07
1.17291e-07
1.17295e-07
1.17296e-07
1.17302e-07
1.17302e-07
1.17309e-07
1.1731e-07
1.17315e-07
1.17312e-07
1.17316e-07
1.17316e-07
1.17316e-07
1.17318e-07
1.17314e-07
1.17313e-07
1.17313e-07
1.17316e-07
1.17317e-07
1.17319e-07
1.1732e-07
1.17321e-07
1.17323e-07
1.17325e-07
1.17331e-07
1.17339e-07
1.1735e-07
1.1736e-07
1.17375e-07
1.17384e-07
1.17402e-07
1.17409e-07
1.17424e-07
1.17429e-07
1.17442e-07
1.17449e-07
1.17459e-07
1.17467e-07
1.17478e-07
1.17487e-07
1.17488e-07
1.17521e-07
1.188e-07
1.21847e-07
1.81154e-08
1.23964e-07
1.23046e-07
1.22193e-07
1.21391e-07
1.20687e-07
1.20075e-07
1.19576e-07
1.19155e-07
1.18823e-07
1.18539e-07
1.1832e-07
1.18127e-07
1.17981e-07
1.17848e-07
1.1775e-07
1.17657e-07
1.17591e-07
1.17525e-07
1.17481e-07
1.17432e-07
1.17403e-07
1.17368e-07
1.1735e-07
1.17324e-07
1.17312e-07
1.17294e-07
1.17287e-07
1.17274e-07
1.1727e-07
1.1726e-07
1.1726e-07
1.17252e-07
1.17253e-07
1.17248e-07
1.17251e-07
1.17248e-07
1.1725e-07
1.17248e-07
1.17252e-07
1.17251e-07
1.17254e-07
1.17254e-07
1.1726e-07
1.17259e-07
1.17263e-07
1.17265e-07
1.1727e-07
1.17272e-07
1.17275e-07
1.17277e-07
1.17279e-07
1.17281e-07
1.17284e-07
1.17288e-07
1.17289e-07
1.17295e-07
1.17295e-07
1.17302e-07
1.17303e-07
1.17308e-07
1.17305e-07
1.17309e-07
1.17309e-07
1.17309e-07
1.17311e-07
1.17307e-07
1.17306e-07
1.17306e-07
1.17309e-07
1.1731e-07
1.17312e-07
1.17313e-07
1.17314e-07
1.17316e-07
1.17318e-07
1.17324e-07
1.17332e-07
1.17342e-07
1.17353e-07
1.17368e-07
1.17377e-07
1.17394e-07
1.17401e-07
1.17416e-07
1.17421e-07
1.17435e-07
1.17441e-07
1.17451e-07
1.1746e-07
1.17471e-07
1.17479e-07
1.17481e-07
1.17514e-07
1.18827e-07
1.21849e-07
1.89633e-08
1.23964e-07
1.23046e-07
1.22193e-07
1.21392e-07
1.20687e-07
1.20075e-07
1.19575e-07
1.19154e-07
1.18821e-07
1.18537e-07
1.18317e-07
1.18124e-07
1.17977e-07
1.17844e-07
1.17745e-07
1.17652e-07
1.17586e-07
1.17519e-07
1.17475e-07
1.17426e-07
1.17397e-07
1.17362e-07
1.17343e-07
1.17318e-07
1.17306e-07
1.17287e-07
1.1728e-07
1.17267e-07
1.17263e-07
1.17253e-07
1.17253e-07
1.17245e-07
1.17246e-07
1.17241e-07
1.17244e-07
1.1724e-07
1.17243e-07
1.1724e-07
1.17244e-07
1.17243e-07
1.17246e-07
1.17246e-07
1.17252e-07
1.17251e-07
1.17256e-07
1.17257e-07
1.17262e-07
1.17264e-07
1.17267e-07
1.17269e-07
1.17272e-07
1.17273e-07
1.17276e-07
1.1728e-07
1.17282e-07
1.17288e-07
1.17287e-07
1.17295e-07
1.17295e-07
1.173e-07
1.17297e-07
1.17301e-07
1.17301e-07
1.17302e-07
1.17303e-07
1.17299e-07
1.17298e-07
1.17299e-07
1.17301e-07
1.17303e-07
1.17304e-07
1.17306e-07
1.17307e-07
1.17308e-07
1.1731e-07
1.17316e-07
1.17324e-07
1.17334e-07
1.17345e-07
1.17359e-07
1.17369e-07
1.17386e-07
1.17393e-07
1.17408e-07
1.17413e-07
1.17426e-07
1.17433e-07
1.17443e-07
1.17451e-07
1.17463e-07
1.17471e-07
1.17473e-07
1.17507e-07
1.18858e-07
1.21851e-07
1.98554e-08
1.23964e-07
1.23046e-07
1.22193e-07
1.21392e-07
1.20688e-07
1.20075e-07
1.19575e-07
1.19153e-07
1.18819e-07
1.18534e-07
1.18313e-07
1.1812e-07
1.17973e-07
1.17839e-07
1.1774e-07
1.17646e-07
1.1758e-07
1.17513e-07
1.17468e-07
1.1742e-07
1.1739e-07
1.17355e-07
1.17336e-07
1.1731e-07
1.17298e-07
1.1728e-07
1.17273e-07
1.17259e-07
1.17256e-07
1.17245e-07
1.17245e-07
1.17237e-07
1.17238e-07
1.17233e-07
1.17236e-07
1.17232e-07
1.17235e-07
1.17232e-07
1.17236e-07
1.17235e-07
1.17238e-07
1.17238e-07
1.17244e-07
1.17243e-07
1.17247e-07
1.17249e-07
1.17254e-07
1.17256e-07
1.17259e-07
1.17261e-07
1.17263e-07
1.17265e-07
1.17268e-07
1.17272e-07
1.17273e-07
1.17279e-07
1.17279e-07
1.17286e-07
1.17287e-07
1.17292e-07
1.17289e-07
1.17293e-07
1.17293e-07
1.17293e-07
1.17295e-07
1.17291e-07
1.1729e-07
1.17291e-07
1.17293e-07
1.17294e-07
1.17296e-07
1.17298e-07
1.17298e-07
1.173e-07
1.17302e-07
1.17308e-07
1.17316e-07
1.17326e-07
1.17336e-07
1.1735e-07
1.1736e-07
1.17377e-07
1.17384e-07
1.17399e-07
1.17404e-07
1.17418e-07
1.17424e-07
1.17434e-07
1.17442e-07
1.17454e-07
1.17462e-07
1.17464e-07
1.17499e-07
1.18892e-07
1.21852e-07
2.07943e-08
1.23964e-07
1.23046e-07
1.22194e-07
1.21393e-07
1.20688e-07
1.20075e-07
1.19574e-07
1.19151e-07
1.18817e-07
1.18531e-07
1.1831e-07
1.18116e-07
1.17968e-07
1.17834e-07
1.17735e-07
1.1764e-07
1.17573e-07
1.17506e-07
1.17461e-07
1.17413e-07
1.17383e-07
1.17347e-07
1.17328e-07
1.17302e-07
1.1729e-07
1.17271e-07
1.17264e-07
1.17251e-07
1.17247e-07
1.17237e-07
1.17236e-07
1.17228e-07
1.17229e-07
1.17224e-07
1.17227e-07
1.17223e-07
1.17226e-07
1.17223e-07
1.17227e-07
1.17226e-07
1.17229e-07
1.17229e-07
1.17235e-07
1.17234e-07
1.17238e-07
1.1724e-07
1.17245e-07
1.17247e-07
1.1725e-07
1.17252e-07
1.17254e-07
1.17256e-07
1.17259e-07
1.17263e-07
1.17264e-07
1.1727e-07
1.1727e-07
1.17277e-07
1.17278e-07
1.17283e-07
1.1728e-07
1.17284e-07
1.17284e-07
1.17284e-07
1.17286e-07
1.17282e-07
1.17281e-07
1.17282e-07
1.17284e-07
1.17286e-07
1.17287e-07
1.17289e-07
1.1729e-07
1.17291e-07
1.17293e-07
1.17299e-07
1.17306e-07
1.17316e-07
1.17326e-07
1.1734e-07
1.1735e-07
1.17367e-07
1.17374e-07
1.17389e-07
1.17395e-07
1.17408e-07
1.17414e-07
1.17425e-07
1.17433e-07
1.17444e-07
1.17452e-07
1.17454e-07
1.1749e-07
1.1893e-07
1.21853e-07
2.17831e-08
1.23964e-07
1.23046e-07
1.22194e-07
1.21393e-07
1.20689e-07
1.20075e-07
1.19574e-07
1.1915e-07
1.18815e-07
1.18528e-07
1.18306e-07
1.18111e-07
1.17963e-07
1.17828e-07
1.17729e-07
1.17633e-07
1.17567e-07
1.17499e-07
1.17454e-07
1.17405e-07
1.17375e-07
1.17339e-07
1.1732e-07
1.17294e-07
1.17282e-07
1.17263e-07
1.17256e-07
1.17242e-07
1.17238e-07
1.17227e-07
1.17227e-07
1.17219e-07
1.1722e-07
1.17215e-07
1.17218e-07
1.17214e-07
1.17217e-07
1.17214e-07
1.17218e-07
1.17217e-07
1.1722e-07
1.1722e-07
1.17225e-07
1.17225e-07
1.17229e-07
1.1723e-07
1.17235e-07
1.17237e-07
1.17241e-07
1.17242e-07
1.17245e-07
1.17246e-07
1.17249e-07
1.17253e-07
1.17255e-07
1.17261e-07
1.1726e-07
1.17268e-07
1.17268e-07
1.17273e-07
1.1727e-07
1.17274e-07
1.17274e-07
1.17275e-07
1.17277e-07
1.17273e-07
1.17272e-07
1.17272e-07
1.17274e-07
1.17276e-07
1.17278e-07
1.17279e-07
1.1728e-07
1.17282e-07
1.17284e-07
1.17289e-07
1.17297e-07
1.17306e-07
1.17316e-07
1.1733e-07
1.17339e-07
1.17356e-07
1.17364e-07
1.17379e-07
1.17384e-07
1.17398e-07
1.17404e-07
1.17414e-07
1.17422e-07
1.17434e-07
1.17442e-07
1.17444e-07
1.17481e-07
1.18972e-07
1.21853e-07
2.28248e-08
1.23964e-07
1.23046e-07
1.22194e-07
1.21394e-07
1.20689e-07
1.20075e-07
1.19573e-07
1.19149e-07
1.18812e-07
1.18525e-07
1.18302e-07
1.18106e-07
1.17958e-07
1.17822e-07
1.17722e-07
1.17627e-07
1.17559e-07
1.17491e-07
1.17446e-07
1.17397e-07
1.17367e-07
1.17331e-07
1.17311e-07
1.17285e-07
1.17273e-07
1.17253e-07
1.17246e-07
1.17232e-07
1.17228e-07
1.17218e-07
1.17217e-07
1.17209e-07
1.1721e-07
1.17205e-07
1.17208e-07
1.17204e-07
1.17206e-07
1.17204e-07
1.17208e-07
1.17207e-07
1.1721e-07
1.17209e-07
1.17215e-07
1.17214e-07
1.17219e-07
1.1722e-07
1.17225e-07
1.17227e-07
1.1723e-07
1.17232e-07
1.17234e-07
1.17236e-07
1.17239e-07
1.17243e-07
1.17244e-07
1.1725e-07
1.1725e-07
1.17257e-07
1.17257e-07
1.17263e-07
1.1726e-07
1.17264e-07
1.17264e-07
1.17264e-07
1.17266e-07
1.17263e-07
1.17261e-07
1.17262e-07
1.17264e-07
1.17266e-07
1.17267e-07
1.17269e-07
1.1727e-07
1.17271e-07
1.17273e-07
1.17279e-07
1.17286e-07
1.17295e-07
1.17305e-07
1.17318e-07
1.17328e-07
1.17345e-07
1.17352e-07
1.17368e-07
1.17373e-07
1.17386e-07
1.17392e-07
1.17403e-07
1.17411e-07
1.17423e-07
1.17431e-07
1.17433e-07
1.17471e-07
1.19018e-07
1.2185e-07
2.39228e-08
1.23963e-07
1.23046e-07
1.22195e-07
1.21395e-07
1.2069e-07
1.20076e-07
1.19573e-07
1.19147e-07
1.1881e-07
1.18522e-07
1.18298e-07
1.18101e-07
1.17952e-07
1.17816e-07
1.17715e-07
1.17619e-07
1.17552e-07
1.17483e-07
1.17438e-07
1.17388e-07
1.17357e-07
1.17321e-07
1.17302e-07
1.17275e-07
1.17263e-07
1.17243e-07
1.17236e-07
1.17222e-07
1.17218e-07
1.17207e-07
1.17207e-07
1.17199e-07
1.17199e-07
1.17194e-07
1.17197e-07
1.17193e-07
1.17196e-07
1.17193e-07
1.17197e-07
1.17196e-07
1.17199e-07
1.17198e-07
1.17204e-07
1.17203e-07
1.17207e-07
1.17209e-07
1.17214e-07
1.17216e-07
1.17219e-07
1.17221e-07
1.17223e-07
1.17225e-07
1.17227e-07
1.17232e-07
1.17233e-07
1.17239e-07
1.17239e-07
1.17246e-07
1.17246e-07
1.17251e-07
1.17249e-07
1.17253e-07
1.17253e-07
1.17253e-07
1.17255e-07
1.17252e-07
1.17251e-07
1.17251e-07
1.17253e-07
1.17255e-07
1.17256e-07
1.17258e-07
1.17259e-07
1.1726e-07
1.17262e-07
1.17268e-07
1.17275e-07
1.17283e-07
1.17293e-07
1.17306e-07
1.17316e-07
1.17332e-07
1.1734e-07
1.17355e-07
1.17361e-07
1.17374e-07
1.1738e-07
1.17392e-07
1.17399e-07
1.17411e-07
1.17419e-07
1.17421e-07
1.1746e-07
1.19068e-07
1.19588e-07
2.50806e-08
1.23963e-07
1.23046e-07
1.22195e-07
1.21396e-07
1.20691e-07
1.20076e-07
1.19572e-07
1.19145e-07
1.18807e-07
1.18518e-07
1.18294e-07
1.18096e-07
1.17946e-07
1.17809e-07
1.17708e-07
1.17611e-07
1.17543e-07
1.17474e-07
1.17428e-07
1.17378e-07
1.17348e-07
1.17311e-07
1.17291e-07
1.17265e-07
1.17252e-07
1.17233e-07
1.17225e-07
1.17211e-07
1.17207e-07
1.17196e-07
1.17196e-07
1.17187e-07
1.17188e-07
1.17183e-07
1.17185e-07
1.17181e-07
1.17184e-07
1.17181e-07
1.17185e-07
1.17184e-07
1.17187e-07
1.17187e-07
1.17192e-07
1.17191e-07
1.17196e-07
1.17197e-07
1.17202e-07
1.17204e-07
1.17207e-07
1.17209e-07
1.17211e-07
1.17213e-07
1.17215e-07
1.1722e-07
1.17221e-07
1.17227e-07
1.17227e-07
1.17234e-07
1.17234e-07
1.17239e-07
1.17237e-07
1.17241e-07
1.17241e-07
1.17241e-07
1.17243e-07
1.1724e-07
1.17239e-07
1.17239e-07
1.17241e-07
1.17243e-07
1.17244e-07
1.17246e-07
1.17247e-07
1.17248e-07
1.1725e-07
1.17256e-07
1.17262e-07
1.17271e-07
1.17281e-07
1.17293e-07
1.17303e-07
1.17319e-07
1.17327e-07
1.17342e-07
1.17348e-07
1.17362e-07
1.17368e-07
1.17379e-07
1.17386e-07
1.17399e-07
1.17406e-07
1.17409e-07
1.17449e-07
1.19123e-07
1.13189e-07
2.63015e-08
1.23963e-07
1.23046e-07
1.22196e-07
1.21396e-07
1.20692e-07
1.20076e-07
1.19571e-07
1.19144e-07
1.18805e-07
1.18515e-07
1.18289e-07
1.18091e-07
1.1794e-07
1.17802e-07
1.177e-07
1.17603e-07
1.17534e-07
1.17465e-07
1.17419e-07
1.17368e-07
1.17338e-07
1.17301e-07
1.17281e-07
1.17254e-07
1.17241e-07
1.17221e-07
1.17214e-07
1.17199e-07
1.17195e-07
1.17184e-07
1.17184e-07
1.17175e-07
1.17176e-07
1.1717e-07
1.17173e-07
1.17169e-07
1.17172e-07
1.17169e-07
1.17173e-07
1.17171e-07
1.17174e-07
1.17174e-07
1.1718e-07
1.17179e-07
1.17183e-07
1.17184e-07
1.17189e-07
1.17191e-07
1.17195e-07
1.17196e-07
1.17199e-07
1.172e-07
1.17203e-07
1.17207e-07
1.17208e-07
1.17214e-07
1.17214e-07
1.17221e-07
1.17222e-07
1.17227e-07
1.17224e-07
1.17228e-07
1.17229e-07
1.17229e-07
1.17231e-07
1.17227e-07
1.17226e-07
1.17227e-07
1.17229e-07
1.1723e-07
1.17232e-07
1.17233e-07
1.17234e-07
1.17236e-07
1.17238e-07
1.17243e-07
1.1725e-07
1.17258e-07
1.17268e-07
1.1728e-07
1.1729e-07
1.17305e-07
1.17313e-07
1.17329e-07
1.17334e-07
1.17348e-07
1.17354e-07
1.17366e-07
1.17373e-07
1.17385e-07
1.17392e-07
1.17395e-07
1.17437e-07
1.19182e-07
1.07467e-07
2.75894e-08
1.23963e-07
1.23046e-07
1.22196e-07
1.21397e-07
1.20693e-07
1.20076e-07
1.19571e-07
1.19142e-07
1.18802e-07
1.18511e-07
1.18284e-07
1.18085e-07
1.17933e-07
1.17794e-07
1.17692e-07
1.17594e-07
1.17525e-07
1.17455e-07
1.17409e-07
1.17358e-07
1.17327e-07
1.17289e-07
1.17269e-07
1.17242e-07
1.17229e-07
1.17209e-07
1.17201e-07
1.17187e-07
1.17183e-07
1.17172e-07
1.17171e-07
1.17163e-07
1.17163e-07
1.17158e-07
1.1716e-07
1.17156e-07
1.17159e-07
1.17156e-07
1.17159e-07
1.17158e-07
1.17161e-07
1.17161e-07
1.17166e-07
1.17166e-07
1.1717e-07
1.17171e-07
1.17176e-07
1.17178e-07
1.17181e-07
1.17183e-07
1.17185e-07
1.17187e-07
1.17189e-07
1.17194e-07
1.17195e-07
1.17201e-07
1.172e-07
1.17208e-07
1.17208e-07
1.17213e-07
1.17211e-07
1.17215e-07
1.17215e-07
1.17215e-07
1.17217e-07
1.17214e-07
1.17213e-07
1.17213e-07
1.17215e-07
1.17217e-07
1.17219e-07
1.1722e-07
1.17221e-07
1.17223e-07
1.17225e-07
1.1723e-07
1.17236e-07
1.17244e-07
1.17254e-07
1.17265e-07
1.17275e-07
1.1729e-07
1.17298e-07
1.17314e-07
1.1732e-07
1.17334e-07
1.17339e-07
1.17351e-07
1.17358e-07
1.17371e-07
1.17377e-07
1.17381e-07
1.17424e-07
1.19245e-07
1.02353e-07
2.89477e-08
1.23963e-07
1.23046e-07
1.22197e-07
1.21398e-07
1.20693e-07
1.20076e-07
1.1957e-07
1.1914e-07
1.18799e-07
1.18506e-07
1.18279e-07
1.18078e-07
1.17926e-07
1.17786e-07
1.17684e-07
1.17585e-07
1.17515e-07
1.17445e-07
1.17398e-07
1.17347e-07
1.17315e-07
1.17278e-07
1.17257e-07
1.1723e-07
1.17217e-07
1.17196e-07
1.17189e-07
1.17174e-07
1.1717e-07
1.17158e-07
1.17158e-07
1.17149e-07
1.1715e-07
1.17144e-07
1.17146e-07
1.17142e-07
1.17145e-07
1.17142e-07
1.17145e-07
1.17144e-07
1.17147e-07
1.17147e-07
1.17152e-07
1.17151e-07
1.17156e-07
1.17157e-07
1.17161e-07
1.17164e-07
1.17167e-07
1.17169e-07
1.17171e-07
1.17173e-07
1.17175e-07
1.17179e-07
1.17181e-07
1.17187e-07
1.17186e-07
1.17193e-07
1.17194e-07
1.17199e-07
1.17197e-07
1.17201e-07
1.17201e-07
1.17201e-07
1.17203e-07
1.172e-07
1.17199e-07
1.17199e-07
1.17201e-07
1.17203e-07
1.17204e-07
1.17206e-07
1.17207e-07
1.17208e-07
1.1721e-07
1.17216e-07
1.17222e-07
1.1723e-07
1.17239e-07
1.1725e-07
1.1726e-07
1.17275e-07
1.17283e-07
1.17298e-07
1.17304e-07
1.17318e-07
1.17324e-07
1.17336e-07
1.17343e-07
1.17356e-07
1.17362e-07
1.17366e-07
1.1741e-07
1.19311e-07
9.77789e-08
3.038e-08
1.23963e-07
1.23046e-07
1.22197e-07
1.21399e-07
1.20694e-07
1.20077e-07
1.1957e-07
1.19138e-07
1.18796e-07
1.18502e-07
1.18273e-07
1.18072e-07
1.17918e-07
1.17778e-07
1.17675e-07
1.17575e-07
1.17505e-07
1.17434e-07
1.17387e-07
1.17335e-07
1.17303e-07
1.17265e-07
1.17244e-07
1.17217e-07
1.17203e-07
1.17183e-07
1.17175e-07
1.1716e-07
1.17156e-07
1.17144e-07
1.17143e-07
1.17135e-07
1.17135e-07
1.17129e-07
1.17132e-07
1.17128e-07
1.1713e-07
1.17127e-07
1.17131e-07
1.17129e-07
1.17132e-07
1.17132e-07
1.17137e-07
1.17137e-07
1.17141e-07
1.17142e-07
1.17146e-07
1.17148e-07
1.17152e-07
1.17153e-07
1.17156e-07
1.17158e-07
1.1716e-07
1.17164e-07
1.17165e-07
1.17172e-07
1.17171e-07
1.17178e-07
1.17179e-07
1.17184e-07
1.17182e-07
1.17185e-07
1.17186e-07
1.17186e-07
1.17188e-07
1.17185e-07
1.17184e-07
1.17184e-07
1.17186e-07
1.17188e-07
1.17189e-07
1.17191e-07
1.17192e-07
1.17193e-07
1.17195e-07
1.172e-07
1.17207e-07
1.17214e-07
1.17223e-07
1.17234e-07
1.17244e-07
1.17258e-07
1.17266e-07
1.17282e-07
1.17288e-07
1.17302e-07
1.17308e-07
1.1732e-07
1.17327e-07
1.1734e-07
1.17346e-07
1.1735e-07
1.17396e-07
1.1938e-07
9.3686e-08
3.18896e-08
1.23963e-07
1.23046e-07
1.22198e-07
1.214e-07
1.20695e-07
1.20077e-07
1.19569e-07
1.19136e-07
1.18793e-07
1.18498e-07
1.18268e-07
1.18065e-07
1.17911e-07
1.17769e-07
1.17665e-07
1.17565e-07
1.17494e-07
1.17422e-07
1.17375e-07
1.17322e-07
1.1729e-07
1.17252e-07
1.17231e-07
1.17203e-07
1.1719e-07
1.17169e-07
1.17161e-07
1.17145e-07
1.17141e-07
1.17129e-07
1.17128e-07
1.1712e-07
1.1712e-07
1.17114e-07
1.17117e-07
1.17112e-07
1.17115e-07
1.17111e-07
1.17115e-07
1.17114e-07
1.17117e-07
1.17116e-07
1.17121e-07
1.17121e-07
1.17125e-07
1.17126e-07
1.17131e-07
1.17133e-07
1.17136e-07
1.17138e-07
1.1714e-07
1.17142e-07
1.17144e-07
1.17148e-07
1.1715e-07
1.17156e-07
1.17155e-07
1.17162e-07
1.17163e-07
1.17168e-07
1.17166e-07
1.17169e-07
1.1717e-07
1.1717e-07
1.17172e-07
1.1717e-07
1.17168e-07
1.17169e-07
1.1717e-07
1.17172e-07
1.17174e-07
1.17175e-07
1.17176e-07
1.17178e-07
1.1718e-07
1.17185e-07
1.17191e-07
1.17198e-07
1.17207e-07
1.17217e-07
1.17227e-07
1.17241e-07
1.17249e-07
1.17264e-07
1.17271e-07
1.17285e-07
1.1729e-07
1.17303e-07
1.17309e-07
1.17323e-07
1.17328e-07
1.17333e-07
1.17381e-07
1.19452e-07
9.00251e-08
3.34792e-08
1.23963e-07
1.23046e-07
1.22199e-07
1.21401e-07
1.20697e-07
1.20078e-07
1.19568e-07
1.19134e-07
1.18789e-07
1.18493e-07
1.18262e-07
1.18058e-07
1.17902e-07
1.1776e-07
1.17655e-07
1.17554e-07
1.17483e-07
1.1741e-07
1.17362e-07
1.17309e-07
1.17277e-07
1.17238e-07
1.17217e-07
1.17188e-07
1.17175e-07
1.17154e-07
1.17146e-07
1.1713e-07
1.17126e-07
1.17114e-07
1.17113e-07
1.17104e-07
1.17104e-07
1.17098e-07
1.171e-07
1.17096e-07
1.17098e-07
1.17095e-07
1.17099e-07
1.17097e-07
1.171e-07
1.171e-07
1.17105e-07
1.17104e-07
1.17108e-07
1.17109e-07
1.17114e-07
1.17116e-07
1.17119e-07
1.17121e-07
1.17123e-07
1.17125e-07
1.17127e-07
1.17132e-07
1.17133e-07
1.17139e-07
1.17138e-07
1.17145e-07
1.17146e-07
1.17151e-07
1.17149e-07
1.17153e-07
1.17153e-07
1.17154e-07
1.17156e-07
1.17153e-07
1.17152e-07
1.17152e-07
1.17154e-07
1.17155e-07
1.17157e-07
1.17158e-07
1.17159e-07
1.17161e-07
1.17163e-07
1.17168e-07
1.17174e-07
1.17181e-07
1.17189e-07
1.17199e-07
1.17209e-07
1.17222e-07
1.17231e-07
1.17246e-07
1.17252e-07
1.17267e-07
1.17272e-07
1.17285e-07
1.17291e-07
1.17305e-07
1.1731e-07
1.17315e-07
1.17365e-07
1.19524e-07
8.67539e-08
3.51509e-08
1.23963e-07
1.23046e-07
1.22199e-07
1.21403e-07
1.20698e-07
1.20078e-07
1.19568e-07
1.19132e-07
1.18786e-07
1.18488e-07
1.18256e-07
1.1805e-07
1.17894e-07
1.17751e-07
1.17645e-07
1.17543e-07
1.17471e-07
1.17398e-07
1.17349e-07
1.17296e-07
1.17263e-07
1.17224e-07
1.17202e-07
1.17173e-07
1.17159e-07
1.17138e-07
1.1713e-07
1.17114e-07
1.17109e-07
1.17097e-07
1.17096e-07
1.17087e-07
1.17087e-07
1.17081e-07
1.17083e-07
1.17079e-07
1.17081e-07
1.17078e-07
1.17081e-07
1.1708e-07
1.17083e-07
1.17082e-07
1.17087e-07
1.17087e-07
1.17091e-07
1.17092e-07
1.17096e-07
1.17098e-07
1.17102e-07