/*--------------------------------*- C++ -*----------------------------------*\
| =========                 |                                                 |
| \\      /  F ield         | OpenFOAM: The Open Source CFD Toolbox           |
|  \\    /   O peration     | Version:  v2012                                 |
|   \\  /    A nd           | Website:  www.openfoam.com                      |
|    \\/     M anipulation  |                                                 |
\*---------------------------------------------------------------------------*/
FoamFile
{
    version     2.0;
    format      ascii;
    class       volVectorField;
    location    "41";
    object      wallShearStress;
}
// * * * * * * * * * * * * * * * * * * * * * * * * * * * * * * * * * * * * * //

dimensions      [0 2 -2 0 0 0 0];


internalField   uniform (0 0 0);

boundaryField
{
    inlet
    {
        type            calculated;
        value           uniform (0 0 0);
    }
    outlet
    {
        type            calculated;
        value           uniform (0 0 0);
    }
    topWall
    {
        type            calculated;
        value           nonuniform List<vector> 
545
(
(3.6742e-08 -2.58632e-08 0)
(3.67307e-08 -7.23496e-08 0)
(3.67105e-08 -1.20689e-07 0)
(3.66818e-08 -1.67631e-07 0)
(3.66459e-08 -2.12575e-07 0)
(3.66034e-08 -2.56098e-07 0)
(3.65549e-08 -2.9857e-07 0)
(3.65007e-08 -3.39971e-07 0)
(3.64414e-08 -3.80212e-07 0)
(3.63775e-08 -4.19291e-07 0)
(3.63093e-08 -4.5726e-07 0)
(3.62373e-08 -4.94162e-07 0)
(3.61619e-08 -5.30023e-07 0)
(3.60834e-08 -5.64863e-07 0)
(3.60021e-08 -5.98708e-07 0)
(3.59184e-08 -6.31585e-07 0)
(3.58326e-08 -6.63519e-07 0)
(3.57449e-08 -6.94535e-07 0)
(3.56556e-08 -7.24659e-07 0)
(3.55649e-08 -7.53915e-07 0)
(3.54732e-08 -7.82326e-07 0)
(3.53805e-08 -8.09916e-07 0)
(3.5287e-08 -8.36707e-07 0)
(3.51931e-08 -8.62723e-07 0)
(3.50987e-08 -8.87985e-07 0)
(3.50042e-08 -9.12515e-07 0)
(3.49096e-08 -9.36334e-07 0)
(3.48151e-08 -9.59461e-07 0)
(3.47207e-08 -9.81918e-07 0)
(3.46267e-08 -1.00372e-06 0)
(3.45331e-08 -1.0249e-06 0)
(3.444e-08 -1.04546e-06 0)
(3.43475e-08 -1.06542e-06 0)
(3.42558e-08 -1.0848e-06 0)
(3.41648e-08 -1.10363e-06 0)
(3.40746e-08 -1.1219e-06 0)
(3.39853e-08 -1.13965e-06 0)
(3.3897e-08 -1.15689e-06 0)
(3.38097e-08 -1.17363e-06 0)
(3.37234e-08 -1.18988e-06 0)
(3.36382e-08 -1.20567e-06 0)
(3.35542e-08 -1.221e-06 0)
(3.34713e-08 -1.23589e-06 0)
(3.33896e-08 -1.25035e-06 0)
(3.33091e-08 -1.2644e-06 0)
(3.32298e-08 -1.27804e-06 0)
(3.31518e-08 -1.29129e-06 0)
(3.3075e-08 -1.30417e-06 0)
(3.29995e-08 -1.31667e-06 0)
(3.29253e-08 -1.32882e-06 0)
(3.28524e-08 -1.34062e-06 0)
(3.27807e-08 -1.35208e-06 0)
(3.27103e-08 -1.36322e-06 0)
(3.26413e-08 -1.37404e-06 0)
(3.25735e-08 -1.38455e-06 0)
(3.25069e-08 -1.39477e-06 0)
(3.24417e-08 -1.40469e-06 0)
(3.23777e-08 -1.41434e-06 0)
(3.2315e-08 -1.42371e-06 0)
(3.22535e-08 -1.43282e-06 0)
(3.21932e-08 -1.44167e-06 0)
(3.21342e-08 -1.45027e-06 0)
(3.20764e-08 -1.45863e-06 0)
(3.20198e-08 -1.46675e-06 0)
(3.19644e-08 -1.47465e-06 0)
(3.19101e-08 -1.48232e-06 0)
(3.1857e-08 -1.48978e-06 0)
(3.18051e-08 -1.49703e-06 0)
(3.17543e-08 -1.50408e-06 0)
(3.17046e-08 -1.51093e-06 0)
(3.16559e-08 -1.5176e-06 0)
(3.16086e-08 -1.52406e-06 0)
(3.15626e-08 -1.53029e-06 0)
(3.15174e-08 -1.53633e-06 0)
(3.14726e-08 -1.5423e-06 0)
(3.14279e-08 -1.54824e-06 0)
(3.13833e-08 -1.55416e-06 0)
(3.13387e-08 -1.56005e-06 0)
(3.12942e-08 -1.56589e-06 0)
(3.12497e-08 -1.5717e-06 0)
(3.12053e-08 -1.57748e-06 0)
(3.11609e-08 -1.58322e-06 0)
(3.11165e-08 -1.58893e-06 0)
(3.10722e-08 -1.5946e-06 0)
(3.10279e-08 -1.60024e-06 0)
(3.09837e-08 -1.60585e-06 0)
(3.09395e-08 -1.61142e-06 0)
(3.08954e-08 -1.61696e-06 0)
(3.08514e-08 -1.62246e-06 0)
(3.08073e-08 -1.62794e-06 0)
(3.07634e-08 -1.63338e-06 0)
(3.07195e-08 -1.63878e-06 0)
(3.06757e-08 -1.64416e-06 0)
(3.0632e-08 -1.6495e-06 0)
(3.05879e-08 -1.65482e-06 0)
(3.05459e-08 -1.66005e-06 0)
(3.0507e-08 -1.66484e-06 0)
(3.04696e-08 -1.66918e-06 0)
(3.04334e-08 -1.67341e-06 0)
(3.03974e-08 -1.67766e-06 0)
(3.03613e-08 -1.68194e-06 0)
(3.03251e-08 -1.68624e-06 0)
(3.02886e-08 -1.69053e-06 0)
(3.02521e-08 -1.69483e-06 0)
(3.02153e-08 -1.69913e-06 0)
(3.01783e-08 -1.70344e-06 0)
(3.01412e-08 -1.70775e-06 0)
(3.01039e-08 -1.71206e-06 0)
(3.00665e-08 -1.71639e-06 0)
(3.00288e-08 -1.72071e-06 0)
(2.9991e-08 -1.72504e-06 0)
(2.9953e-08 -1.72938e-06 0)
(2.99148e-08 -1.73372e-06 0)
(2.98764e-08 -1.73806e-06 0)
(2.98379e-08 -1.74241e-06 0)
(2.97991e-08 -1.74677e-06 0)
(2.97602e-08 -1.75113e-06 0)
(2.97211e-08 -1.75549e-06 0)
(2.96818e-08 -1.75986e-06 0)
(2.96424e-08 -1.76423e-06 0)
(2.96027e-08 -1.76861e-06 0)
(2.95629e-08 -1.77299e-06 0)
(2.95229e-08 -1.77738e-06 0)
(2.94827e-08 -1.78177e-06 0)
(2.94423e-08 -1.78616e-06 0)
(2.94017e-08 -1.79056e-06 0)
(2.93609e-08 -1.79496e-06 0)
(2.932e-08 -1.79937e-06 0)
(2.92789e-08 -1.80378e-06 0)
(2.92375e-08 -1.8082e-06 0)
(2.9196e-08 -1.81262e-06 0)
(2.91543e-08 -1.81704e-06 0)
(2.91124e-08 -1.82147e-06 0)
(2.90703e-08 -1.8259e-06 0)
(2.9028e-08 -1.83034e-06 0)
(2.89856e-08 -1.83478e-06 0)
(2.89429e-08 -1.83922e-06 0)
(2.89001e-08 -1.84367e-06 0)
(2.8857e-08 -1.84812e-06 0)
(2.88138e-08 -1.85258e-06 0)
(2.87703e-08 -1.85704e-06 0)
(2.87267e-08 -1.8615e-06 0)
(2.86829e-08 -1.86597e-06 0)
(2.86388e-08 -1.87044e-06 0)
(2.85946e-08 -1.87491e-06 0)
(2.85502e-08 -1.87939e-06 0)
(2.85056e-08 -1.88387e-06 0)
(2.84608e-08 -1.88836e-06 0)
(2.84158e-08 -1.89284e-06 0)
(2.83706e-08 -1.89734e-06 0)
(2.83252e-08 -1.90183e-06 0)
(2.82796e-08 -1.90633e-06 0)
(2.82338e-08 -1.91083e-06 0)
(2.81878e-08 -1.91534e-06 0)
(2.81415e-08 -1.91985e-06 0)
(2.80951e-08 -1.92436e-06 0)
(2.80485e-08 -1.92887e-06 0)
(2.80017e-08 -1.93339e-06 0)
(2.79547e-08 -1.93791e-06 0)
(2.79075e-08 -1.94244e-06 0)
(2.78601e-08 -1.94696e-06 0)
(2.78125e-08 -1.95149e-06 0)
(2.77647e-08 -1.95603e-06 0)
(2.77166e-08 -1.96056e-06 0)
(2.76684e-08 -1.9651e-06 0)
(2.762e-08 -1.96964e-06 0)
(2.75713e-08 -1.97419e-06 0)
(2.75225e-08 -1.97873e-06 0)
(2.74734e-08 -1.98328e-06 0)
(2.74242e-08 -1.98784e-06 0)
(2.73747e-08 -1.99239e-06 0)
(2.7325e-08 -1.99695e-06 0)
(2.72752e-08 -2.00151e-06 0)
(2.72251e-08 -2.00607e-06 0)
(2.71748e-08 -2.01063e-06 0)
(2.71243e-08 -2.0152e-06 0)
(2.70736e-08 -2.01977e-06 0)
(2.70227e-08 -2.02434e-06 0)
(2.69715e-08 -2.02891e-06 0)
(2.69202e-08 -2.03349e-06 0)
(2.68686e-08 -2.03806e-06 0)
(2.68169e-08 -2.04264e-06 0)
(2.67649e-08 -2.04722e-06 0)
(2.67128e-08 -2.05181e-06 0)
(2.66604e-08 -2.05639e-06 0)
(2.66078e-08 -2.06098e-06 0)
(2.6555e-08 -2.06557e-06 0)
(2.6502e-08 -2.07016e-06 0)
(2.64487e-08 -2.07475e-06 0)
(2.63953e-08 -2.07934e-06 0)
(2.63417e-08 -2.08394e-06 0)
(2.62878e-08 -2.08853e-06 0)
(2.62337e-08 -2.09313e-06 0)
(2.61794e-08 -2.09773e-06 0)
(2.61249e-08 -2.10233e-06 0)
(2.60702e-08 -2.10693e-06 0)
(2.60153e-08 -2.11153e-06 0)
(2.59602e-08 -2.11614e-06 0)
(2.59048e-08 -2.12074e-06 0)
(2.58493e-08 -2.12535e-06 0)
(2.57935e-08 -2.12995e-06 0)
(2.57375e-08 -2.13456e-06 0)
(2.56813e-08 -2.13917e-06 0)
(2.56249e-08 -2.14378e-06 0)
(2.55683e-08 -2.14839e-06 0)
(2.55115e-08 -2.153e-06 0)
(2.54544e-08 -2.15761e-06 0)
(2.53972e-08 -2.16222e-06 0)
(2.53397e-08 -2.16683e-06 0)
(2.5282e-08 -2.17144e-06 0)
(2.52241e-08 -2.17606e-06 0)
(2.5166e-08 -2.18067e-06 0)
(2.51077e-08 -2.18528e-06 0)
(2.50491e-08 -2.18989e-06 0)
(2.49904e-08 -2.19451e-06 0)
(2.49314e-08 -2.19912e-06 0)
(2.48723e-08 -2.20373e-06 0)
(2.48129e-08 -2.20835e-06 0)
(2.47533e-08 -2.21296e-06 0)
(2.46935e-08 -2.21757e-06 0)
(2.46334e-08 -2.22218e-06 0)
(2.45732e-08 -2.2268e-06 0)
(2.45127e-08 -2.23141e-06 0)
(2.44521e-08 -2.23602e-06 0)
(2.43912e-08 -2.24063e-06 0)
(2.43301e-08 -2.24524e-06 0)
(2.42688e-08 -2.24985e-06 0)
(2.42073e-08 -2.25445e-06 0)
(2.41456e-08 -2.25906e-06 0)
(2.40837e-08 -2.26367e-06 0)
(2.40215e-08 -2.26827e-06 0)
(2.39592e-08 -2.27288e-06 0)
(2.38966e-08 -2.27748e-06 0)
(2.38339e-08 -2.28208e-06 0)
(2.37709e-08 -2.28668e-06 0)
(2.37077e-08 -2.29128e-06 0)
(2.36443e-08 -2.29588e-06 0)
(2.35807e-08 -2.30047e-06 0)
(2.35169e-08 -2.30507e-06 0)
(2.34529e-08 -2.30966e-06 0)
(2.33887e-08 -2.31425e-06 0)
(2.33242e-08 -2.31884e-06 0)
(2.32596e-08 -2.32343e-06 0)
(2.31947e-08 -2.32801e-06 0)
(2.31297e-08 -2.33259e-06 0)
(2.30644e-08 -2.33718e-06 0)
(2.2999e-08 -2.34175e-06 0)
(2.29333e-08 -2.34633e-06 0)
(2.28675e-08 -2.35091e-06 0)
(2.28014e-08 -2.35548e-06 0)
(2.27351e-08 -2.36005e-06 0)
(2.26686e-08 -2.36461e-06 0)
(2.2602e-08 -2.36918e-06 0)
(2.25351e-08 -2.37374e-06 0)
(2.2468e-08 -2.3783e-06 0)
(2.24007e-08 -2.38285e-06 0)
(2.23333e-08 -2.38741e-06 0)
(2.22656e-08 -2.39195e-06 0)
(2.21977e-08 -2.3965e-06 0)
(2.21296e-08 -2.40104e-06 0)
(2.20614e-08 -2.40558e-06 0)
(2.19929e-08 -2.41012e-06 0)
(2.19242e-08 -2.41465e-06 0)
(2.18554e-08 -2.41918e-06 0)
(2.17863e-08 -2.42371e-06 0)
(2.17171e-08 -2.42823e-06 0)
(2.16477e-08 -2.43275e-06 0)
(2.15778e-08 -2.43727e-06 0)
(2.15095e-08 -2.44175e-06 0)
(2.14438e-08 -2.44602e-06 0)
(2.13794e-08 -2.45008e-06 0)
(2.13157e-08 -2.45411e-06 0)
(2.12516e-08 -2.45817e-06 0)
(2.11869e-08 -2.46229e-06 0)
(2.11214e-08 -2.46644e-06 0)
(2.10553e-08 -2.47062e-06 0)
(2.09884e-08 -2.47483e-06 0)
(2.09207e-08 -2.47907e-06 0)
(2.08524e-08 -2.48334e-06 0)
(2.07832e-08 -2.48765e-06 0)
(2.07133e-08 -2.49199e-06 0)
(2.06426e-08 -2.49636e-06 0)
(2.05712e-08 -2.50076e-06 0)
(2.0499e-08 -2.5052e-06 0)
(2.04259e-08 -2.50967e-06 0)
(2.03521e-08 -2.51417e-06 0)
(2.02775e-08 -2.5187e-06 0)
(2.0202e-08 -2.52326e-06 0)
(2.01258e-08 -2.52786e-06 0)
(2.00487e-08 -2.53249e-06 0)
(1.99708e-08 -2.53715e-06 0)
(1.9892e-08 -2.54185e-06 0)
(1.98124e-08 -2.54657e-06 0)
(1.97319e-08 -2.55133e-06 0)
(1.96506e-08 -2.55612e-06 0)
(1.95684e-08 -2.56094e-06 0)
(1.94853e-08 -2.5658e-06 0)
(1.94013e-08 -2.57068e-06 0)
(1.93165e-08 -2.5756e-06 0)
(1.92307e-08 -2.58055e-06 0)
(1.91441e-08 -2.58553e-06 0)
(1.90565e-08 -2.59054e-06 0)
(1.8968e-08 -2.59558e-06 0)
(1.88786e-08 -2.60065e-06 0)
(1.87883e-08 -2.60576e-06 0)
(1.8697e-08 -2.61089e-06 0)
(1.86048e-08 -2.61606e-06 0)
(1.85116e-08 -2.62125e-06 0)
(1.84175e-08 -2.62648e-06 0)
(1.83224e-08 -2.63173e-06 0)
(1.82264e-08 -2.63702e-06 0)
(1.81294e-08 -2.64233e-06 0)
(1.80313e-08 -2.64767e-06 0)
(1.79324e-08 -2.65305e-06 0)
(1.78324e-08 -2.65844e-06 0)
(1.77314e-08 -2.66387e-06 0)
(1.76294e-08 -2.66933e-06 0)
(1.75265e-08 -2.67481e-06 0)
(1.74225e-08 -2.68032e-06 0)
(1.73175e-08 -2.68585e-06 0)
(1.72115e-08 -2.69142e-06 0)
(1.71044e-08 -2.697e-06 0)
(1.69964e-08 -2.70262e-06 0)
(1.68873e-08 -2.70825e-06 0)
(1.67771e-08 -2.71392e-06 0)
(1.6666e-08 -2.7196e-06 0)
(1.65538e-08 -2.72531e-06 0)
(1.64405e-08 -2.73104e-06 0)
(1.63262e-08 -2.7368e-06 0)
(1.62109e-08 -2.74257e-06 0)
(1.60945e-08 -2.74837e-06 0)
(1.59771e-08 -2.75419e-06 0)
(1.58586e-08 -2.76003e-06 0)
(1.57391e-08 -2.76588e-06 0)
(1.56185e-08 -2.77176e-06 0)
(1.54969e-08 -2.77765e-06 0)
(1.53742e-08 -2.78356e-06 0)
(1.52505e-08 -2.78949e-06 0)
(1.51257e-08 -2.79543e-06 0)
(1.49998e-08 -2.80139e-06 0)
(1.4873e-08 -2.80736e-06 0)
(1.4745e-08 -2.81335e-06 0)
(1.46161e-08 -2.81935e-06 0)
(1.44861e-08 -2.82536e-06 0)
(1.4355e-08 -2.83138e-06 0)
(1.4223e-08 -2.83741e-06 0)
(1.40899e-08 -2.84345e-06 0)
(1.39558e-08 -2.84949e-06 0)
(1.38207e-08 -2.85555e-06 0)
(1.36846e-08 -2.86161e-06 0)
(1.35474e-08 -2.86767e-06 0)
(1.34093e-08 -2.87374e-06 0)
(1.32702e-08 -2.87981e-06 0)
(1.31301e-08 -2.88588e-06 0)
(1.29891e-08 -2.89196e-06 0)
(1.28471e-08 -2.89803e-06 0)
(1.27042e-08 -2.9041e-06 0)
(1.25603e-08 -2.91017e-06 0)
(1.24155e-08 -2.91623e-06 0)
(1.22698e-08 -2.92229e-06 0)
(1.21232e-08 -2.92834e-06 0)
(1.19757e-08 -2.93439e-06 0)
(1.18274e-08 -2.94042e-06 0)
(1.16782e-08 -2.94644e-06 0)
(1.15281e-08 -2.95246e-06 0)
(1.13773e-08 -2.95845e-06 0)
(1.12256e-08 -2.96444e-06 0)
(1.10732e-08 -2.9704e-06 0)
(1.092e-08 -2.97635e-06 0)
(1.07661e-08 -2.98228e-06 0)
(1.06114e-08 -2.98819e-06 0)
(1.04561e-08 -2.99407e-06 0)
(1.03001e-08 -2.99993e-06 0)
(1.01434e-08 -3.00577e-06 0)
(9.98608e-09 -3.01158e-06 0)
(9.82818e-09 -3.01735e-06 0)
(9.6697e-09 -3.0231e-06 0)
(9.51067e-09 -3.02882e-06 0)
(9.35113e-09 -3.0345e-06 0)
(9.19109e-09 -3.04015e-06 0)
(9.03059e-09 -3.04576e-06 0)
(8.86966e-09 -3.05133e-06 0)
(8.70833e-09 -3.05685e-06 0)
(8.54664e-09 -3.06234e-06 0)
(8.38461e-09 -3.06778e-06 0)
(8.22228e-09 -3.07317e-06 0)
(8.05969e-09 -3.07852e-06 0)
(7.89687e-09 -3.08382e-06 0)
(7.73385e-09 -3.08906e-06 0)
(7.57068e-09 -3.09425e-06 0)
(7.40739e-09 -3.09939e-06 0)
(7.24403e-09 -3.10446e-06 0)
(7.08063e-09 -3.10948e-06 0)
(6.91723e-09 -3.11444e-06 0)
(6.75387e-09 -3.11933e-06 0)
(6.5906e-09 -3.12416e-06 0)
(6.42747e-09 -3.12892e-06 0)
(6.2645e-09 -3.13361e-06 0)
(6.10175e-09 -3.13823e-06 0)
(5.93926e-09 -3.14277e-06 0)
(5.77708e-09 -3.14725e-06 0)
(5.61526e-09 -3.15164e-06 0)
(5.45383e-09 -3.15596e-06 0)
(5.29285e-09 -3.16019e-06 0)
(5.13237e-09 -3.16435e-06 0)
(4.97244e-09 -3.16842e-06 0)
(4.81309e-09 -3.1724e-06 0)
(4.65439e-09 -3.17629e-06 0)
(4.49638e-09 -3.1801e-06 0)
(4.33912e-09 -3.18381e-06 0)
(4.18264e-09 -3.18743e-06 0)
(4.02701e-09 -3.19096e-06 0)
(3.87228e-09 -3.19439e-06 0)
(3.71849e-09 -3.19772e-06 0)
(3.56569e-09 -3.20095e-06 0)
(3.41395e-09 -3.20407e-06 0)
(3.2633e-09 -3.2071e-06 0)
(3.1138e-09 -3.21002e-06 0)
(2.96551e-09 -3.21283e-06 0)
(2.81847e-09 -3.21553e-06 0)
(2.67274e-09 -3.21812e-06 0)
(2.52836e-09 -3.22061e-06 0)
(2.38538e-09 -3.22298e-06 0)
(2.24386e-09 -3.22523e-06 0)
(2.10385e-09 -3.22738e-06 0)
(1.96539e-09 -3.2294e-06 0)
(1.82854e-09 -3.23131e-06 0)
(1.69333e-09 -3.2331e-06 0)
(1.55983e-09 -3.23477e-06 0)
(1.42807e-09 -3.23631e-06 0)
(1.2981e-09 -3.23774e-06 0)
(1.16997e-09 -3.23904e-06 0)
(1.04371e-09 -3.24023e-06 0)
(9.19384e-10 -3.24128e-06 0)
(7.9702e-10 -3.24221e-06 0)
(6.76663e-10 -3.24302e-06 0)
(5.58353e-10 -3.2437e-06 0)
(4.4213e-10 -3.24426e-06 0)
(3.28033e-10 -3.24468e-06 0)
(2.16097e-10 -3.24498e-06 0)
(1.06359e-10 -3.24516e-06 0)
(-1.14649e-12 -3.2452e-06 0)
(-1.06385e-10 -3.24512e-06 0)
(-2.09327e-10 -3.24491e-06 0)
(-3.09936e-10 -3.24457e-06 0)
(-4.08199e-10 -3.24411e-06 0)
(-5.04021e-10 -3.24351e-06 0)
(-5.97653e-10 -3.2428e-06 0)
(-6.87913e-10 -3.24195e-06 0)
(-7.79696e-10 -3.24097e-06 0)
(-8.76218e-10 -3.23975e-06 0)
(-9.73411e-10 -3.23824e-06 0)
(-1.06849e-09 -3.23657e-06 0)
(-1.15927e-09 -3.23474e-06 0)
(-1.24552e-09 -3.23277e-06 0)
(-1.32729e-09 -3.23067e-06 0)
(-1.40467e-09 -3.22844e-06 0)
(-1.47778e-09 -3.22609e-06 0)
(-1.54673e-09 -3.22362e-06 0)
(-1.61165e-09 -3.22105e-06 0)
(-1.67267e-09 -3.21837e-06 0)
(-1.7299e-09 -3.2156e-06 0)
(-1.78347e-09 -3.21274e-06 0)
(-1.83348e-09 -3.20979e-06 0)
(-1.88005e-09 -3.20677e-06 0)
(-1.92328e-09 -3.20368e-06 0)
(-1.96328e-09 -3.20052e-06 0)
(-2.00014e-09 -3.19729e-06 0)
(-2.03397e-09 -3.19401e-06 0)
(-2.06486e-09 -3.19068e-06 0)
(-2.09289e-09 -3.1873e-06 0)
(-2.11817e-09 -3.18388e-06 0)
(-2.14076e-09 -3.18042e-06 0)
(-2.16077e-09 -3.17692e-06 0)
(-2.17826e-09 -3.17339e-06 0)
(-2.19332e-09 -3.16984e-06 0)
(-2.20601e-09 -3.16627e-06 0)
(-2.21641e-09 -3.16268e-06 0)
(-2.22459e-09 -3.15907e-06 0)
(-2.23062e-09 -3.15545e-06 0)
(-2.23456e-09 -3.15182e-06 0)
(-2.23648e-09 -3.14819e-06 0)
(-2.23642e-09 -3.14456e-06 0)
(-2.23446e-09 -3.14093e-06 0)
(-2.23064e-09 -3.1373e-06 0)
(-2.22503e-09 -3.13369e-06 0)
(-2.21767e-09 -3.13008e-06 0)
(-2.20861e-09 -3.12648e-06 0)
(-2.1979e-09 -3.12291e-06 0)
(-2.18559e-09 -3.11935e-06 0)
(-2.17172e-09 -3.11581e-06 0)
(-2.15634e-09 -3.1123e-06 0)
(-2.13948e-09 -3.10881e-06 0)
(-2.1212e-09 -3.10535e-06 0)
(-2.10152e-09 -3.10192e-06 0)
(-2.08049e-09 -3.09853e-06 0)
(-2.05815e-09 -3.09517e-06 0)
(-2.03452e-09 -3.09184e-06 0)
(-2.00964e-09 -3.08856e-06 0)
(-1.98355e-09 -3.08532e-06 0)
(-1.95628e-09 -3.08212e-06 0)
(-1.92786e-09 -3.07897e-06 0)
(-1.89832e-09 -3.07586e-06 0)
(-1.86769e-09 -3.0728e-06 0)
(-1.836e-09 -3.06979e-06 0)
(-1.80328e-09 -3.06684e-06 0)
(-1.76956e-09 -3.06394e-06 0)
(-1.73487e-09 -3.06109e-06 0)
(-1.69922e-09 -3.0583e-06 0)
(-1.66265e-09 -3.05557e-06 0)
(-1.62519e-09 -3.0529e-06 0)
(-1.58686e-09 -3.05029e-06 0)
(-1.54768e-09 -3.04775e-06 0)
(-1.50768e-09 -3.04527e-06 0)
(-1.46689e-09 -3.04285e-06 0)
(-1.42534e-09 -3.0405e-06 0)
(-1.38303e-09 -3.03822e-06 0)
(-1.34001e-09 -3.03601e-06 0)
(-1.29629e-09 -3.03386e-06 0)
(-1.25191e-09 -3.03179e-06 0)
(-1.20687e-09 -3.02979e-06 0)
(-1.16122e-09 -3.02787e-06 0)
(-1.11497e-09 -3.02602e-06 0)
(-1.06814e-09 -3.02424e-06 0)
(-1.02076e-09 -3.02254e-06 0)
(-9.72864e-10 -3.02092e-06 0)
(-9.24461e-10 -3.01938e-06 0)
(-8.75582e-10 -3.01791e-06 0)
(-8.26249e-10 -3.01652e-06 0)
(-7.76487e-10 -3.01522e-06 0)
(-7.26318e-10 -3.01399e-06 0)
(-6.75769e-10 -3.01285e-06 0)
(-6.24862e-10 -3.01179e-06 0)
(-5.73624e-10 -3.01081e-06 0)
(-5.22082e-10 -3.00991e-06 0)
(-4.70269e-10 -3.00912e-06 0)
(-4.18214e-10 -3.00833e-06 0)
(-3.65968e-10 -3.0079e-06 0)
(-3.13545e-10 -3.00663e-06 0)
(-2.61084e-10 -3.00845e-06 0)
(-2.08341e-10 -3.00024e-06 0)
(-1.56148e-10 -3.02436e-06 0)
(-1.0223e-10 -2.93361e-06 0)
(-5.26066e-11 -3.17441e-06 0)
(-1.56249e-11 -2.77255e-06 0)
)
;
    }
    bottomWall
    {
        type            calculated;
        value           nonuniform List<vector> 
449
(
(-48.4958 -0.963585 0)
(-19.7408 -0.00515025 0)
(-14.3408 -0.00113252 0)
(-12.0391 -0.000542683 0)
(-10.6442 -0.00034694 0)
(-9.67021 -0.000247445 0)
(-8.95066 -0.000180774 0)
(-8.43006 -0.000120475 0)
(-8.12259 -4.43828e-05 0)
(-8.12601 9.54608e-05 0)
(-8.78714 0.000274996 0)
(-10.0337 0.00032836 0)
(-11.0636 0.00023936 0)
(-11.6955 0.000140802 0)
(-12.0441 7.69293e-05 0)
(-12.2327 3.98981e-05 0)
(-12.3234 1.67358e-05 0)
(-12.3501 9.21369e-07 0)
(-12.3297 -9.35346e-06 0)
(-12.284 -1.54741e-05 0)
(-12.2202 -1.95007e-05 0)
(-12.1457 -2.17213e-05 0)
(-12.0658 -2.27222e-05 0)
(-11.9838 -2.29936e-05 0)
(-11.9017 -2.28345e-05 0)
(-11.8204 -2.24402e-05 0)
(-11.7407 -2.18965e-05 0)
(-11.663 -2.12422e-05 0)
(-11.5875 -2.05412e-05 0)
(-11.5145 -1.98264e-05 0)
(-11.444 -1.91167e-05 0)
(-11.3758 -1.84235e-05 0)
(-11.3099 -1.77538e-05 0)
(-11.2463 -1.71095e-05 0)
(-11.1848 -1.65027e-05 0)
(-11.1254 -1.59338e-05 0)
(-11.0678 -1.53854e-05 0)
(-11.0121 -1.48557e-05 0)
(-10.9581 -1.43519e-05 0)
(-10.9059 -1.38739e-05 0)
(-10.8553 -1.34197e-05 0)
(-10.8062 -1.29893e-05 0)
(-10.7585 -1.25828e-05 0)
(-10.7122 -1.21963e-05 0)
(-10.6672 -1.18285e-05 0)
(-10.6234 -1.14783e-05 0)
(-10.5809 -1.11471e-05 0)
(-10.5394 -1.08298e-05 0)
(-10.499 -1.05369e-05 0)
(-10.4596 -1.02795e-05 0)
(-10.421 -1.00468e-05 0)
(-10.3831 -9.82823e-06 0)
(-10.346 -9.61607e-06 0)
(-10.3096 -9.40728e-06 0)
(-10.2739 -9.20242e-06 0)
(-10.2389 -8.99975e-06 0)
(-10.2046 -8.80169e-06 0)
(-10.171 -8.60993e-06 0)
(-10.138 -8.42256e-06 0)
(-10.1057 -8.24086e-06 0)
(-10.074 -8.06566e-06 0)
(-10.0428 -7.89723e-06 0)
(-10.0123 -7.73336e-06 0)
(-9.98228 -7.57354e-06 0)
(-9.95285 -7.41861e-06 0)
(-9.92393 -7.27004e-06 0)
(-9.89553 -7.1265e-06 0)
(-9.86761 -6.9874e-06 0)
(-9.84018 -6.85153e-06 0)
(-9.81321 -6.72399e-06 0)
(-9.78667 -6.60207e-06 0)
(-9.76054 -6.47976e-06 0)
(-9.73485 -6.35988e-06 0)
(-9.70957 -6.24444e-06 0)
(-9.68468 -6.13287e-06 0)
(-9.66018 -6.02295e-06 0)
(-9.63606 -5.91621e-06 0)
(-9.61231 -5.8119e-06 0)
(-9.58893 -5.71059e-06 0)
(-9.56589 -5.61227e-06 0)
(-9.54319 -5.51656e-06 0)
(-9.52083 -5.42353e-06 0)
(-9.49879 -5.33322e-06 0)
(-9.47706 -5.24489e-06 0)
(-9.45565 -5.15891e-06 0)
(-9.43453 -5.07571e-06 0)
(-9.4137 -4.99439e-06 0)
(-9.39315 -4.9165e-06 0)
(-9.37287 -4.84014e-06 0)
(-9.35287 -4.76516e-06 0)
(-9.33312 -4.69234e-06 0)
(-9.31363 -4.62055e-06 0)
(-9.29439 -4.55105e-06 0)
(-9.27539 -4.48304e-06 0)
(-9.25663 -4.41585e-06 0)
(-9.23811 -4.35158e-06 0)
(-9.21981 -4.28816e-06 0)
(-9.20174 -4.22606e-06 0)
(-9.18388 -4.16622e-06 0)
(-9.16623 -4.10673e-06 0)
(-9.1488 -4.05175e-06 0)
(-9.13154 -3.9992e-06 0)
(-9.11448 -3.9448e-06 0)
(-9.09761 -3.89168e-06 0)
(-9.08092 -3.83892e-06 0)
(-9.06443 -3.78679e-06 0)
(-9.04811 -3.7371e-06 0)
(-9.03197 -3.68775e-06 0)
(-9.01601 -3.63882e-06 0)
(-9.00022 -3.59223e-06 0)
(-8.9846 -3.54589e-06 0)
(-8.96914 -3.49984e-06 0)
(-8.95384 -3.45611e-06 0)
(-8.9387 -3.41276e-06 0)
(-8.92371 -3.36943e-06 0)
(-8.90888 -3.3282e-06 0)
(-8.89419 -3.28754e-06 0)
(-8.87965 -3.24678e-06 0)
(-8.86525 -3.20762e-06 0)
(-8.85099 -3.16954e-06 0)
(-8.83687 -3.1313e-06 0)
(-8.82289 -3.09407e-06 0)
(-8.80904 -3.05841e-06 0)
(-8.79531 -3.02253e-06 0)
(-8.78171 -2.98697e-06 0)
(-8.76824 -2.9531e-06 0)
(-8.75489 -2.91959e-06 0)
(-8.74167 -2.88604e-06 0)
(-8.72856 -2.85357e-06 0)
(-8.71557 -2.8222e-06 0)
(-8.70269 -2.79068e-06 0)
(-8.68992 -2.75944e-06 0)
(-8.67727 -2.72961e-06 0)
(-8.66472 -2.70021e-06 0)
(-8.65228 -2.67059e-06 0)
(-8.63994 -2.6418e-06 0)
(-8.62771 -2.61427e-06 0)
(-8.61558 -2.5865e-06 0)
(-8.60355 -2.55864e-06 0)
(-8.59162 -2.53211e-06 0)
(-8.57978 -2.50634e-06 0)
(-8.56803 -2.48017e-06 0)
(-8.55639 -2.45429e-06 0)
(-8.54483 -2.42963e-06 0)
(-8.53336 -2.4054e-06 0)
(-8.52198 -2.38072e-06 0)
(-8.5107 -2.35756e-06 0)
(-8.49949 -2.33641e-06 0)
(-8.48835 -2.31458e-06 0)
(-8.47729 -2.29167e-06 0)
(-8.46632 -2.26908e-06 0)
(-8.45543 -2.24736e-06 0)
(-8.44462 -2.22585e-06 0)
(-8.43389 -2.20421e-06 0)
(-8.42324 -2.18294e-06 0)
(-8.41266 -2.16247e-06 0)
(-8.40216 -2.1423e-06 0)
(-8.39173 -2.12197e-06 0)
(-8.38137 -2.10185e-06 0)
(-8.37109 -2.0825e-06 0)
(-8.36088 -2.06363e-06 0)
(-8.35074 -2.04453e-06 0)
(-8.34067 -2.02543e-06 0)
(-8.33067 -2.0071e-06 0)
(-8.32073 -1.98941e-06 0)
(-8.31086 -1.97148e-06 0)
(-8.30105 -1.95343e-06 0)
(-8.29132 -1.93598e-06 0)
(-8.28164 -1.91931e-06 0)
(-8.27202 -1.90245e-06 0)
(-8.26247 -1.88576e-06 0)
(-8.25298 -1.86894e-06 0)
(-8.24356 -1.85066e-06 0)
(-8.23472 -1.83739e-06 0)
(-8.2264 -1.82588e-06 0)
(-8.21805 -1.80989e-06 0)
(-8.20968 -1.79507e-06 0)
(-8.20129 -1.78149e-06 0)
(-8.19288 -1.76779e-06 0)
(-8.18443 -1.75387e-06 0)
(-8.17596 -1.73965e-06 0)
(-8.16748 -1.72593e-06 0)
(-8.15896 -1.7125e-06 0)
(-8.15042 -1.69915e-06 0)
(-8.14185 -1.68539e-06 0)
(-8.13327 -1.67149e-06 0)
(-8.12466 -1.65809e-06 0)
(-8.11602 -1.64494e-06 0)
(-8.10736 -1.63172e-06 0)
(-8.09868 -1.61821e-06 0)
(-8.08998 -1.60474e-06 0)
(-8.08126 -1.59168e-06 0)
(-8.07251 -1.5788e-06 0)
(-8.06374 -1.56572e-06 0)
(-8.05495 -1.55249e-06 0)
(-8.04613 -1.53946e-06 0)
(-8.0373 -1.52672e-06 0)
(-8.02844 -1.51413e-06 0)
(-8.01956 -1.50125e-06 0)
(-8.01067 -1.48826e-06 0)
(-8.00175 -1.47567e-06 0)
(-7.99281 -1.46331e-06 0)
(-7.98385 -1.45084e-06 0)
(-7.97488 -1.43823e-06 0)
(-7.96588 -1.42571e-06 0)
(-7.95686 -1.41351e-06 0)
(-7.94783 -1.40147e-06 0)
(-7.93877 -1.38918e-06 0)
(-7.9297 -1.3768e-06 0)
(-7.92061 -1.3648e-06 0)
(-7.9115 -1.35305e-06 0)
(-7.90237 -1.34177e-06 0)
(-7.89321 -1.33077e-06 0)
(-7.88404 -1.31937e-06 0)
(-7.87484 -1.30781e-06 0)
(-7.86563 -1.29621e-06 0)
(-7.8564 -1.28443e-06 0)
(-7.84715 -1.27273e-06 0)
(-7.83789 -1.26136e-06 0)
(-7.82861 -1.25012e-06 0)
(-7.81932 -1.23865e-06 0)
(-7.81001 -1.22715e-06 0)
(-7.80068 -1.21602e-06 0)
(-7.79134 -1.20511e-06 0)
(-7.78199 -1.19395e-06 0)
(-7.77262 -1.18268e-06 0)
(-7.76324 -1.17179e-06 0)
(-7.75384 -1.16116e-06 0)
(-7.74442 -1.1503e-06 0)
(-7.735 -1.13932e-06 0)
(-7.72556 -1.12868e-06 0)
(-7.71611 -1.1183e-06 0)
(-7.70665 -1.10774e-06 0)
(-7.69717 -1.09704e-06 0)
(-7.68768 -1.08666e-06 0)
(-7.67818 -1.07654e-06 0)
(-7.66867 -1.06625e-06 0)
(-7.65914 -1.05584e-06 0)
(-7.64961 -1.04574e-06 0)
(-7.64006 -1.03587e-06 0)
(-7.6305 -1.02584e-06 0)
(-7.62093 -1.01571e-06 0)
(-7.61136 -1.00589e-06 0)
(-7.60177 -9.96281e-07 0)
(-7.59217 -9.86494e-07 0)
(-7.58256 -9.76644e-07 0)
(-7.57295 -9.67111e-07 0)
(-7.56332 -9.57747e-07 0)
(-7.55369 -9.482e-07 0)
(-7.54405 -9.38652e-07 0)
(-7.5344 -9.29408e-07 0)
(-7.52474 -9.20264e-07 0)
(-7.51507 -9.10967e-07 0)
(-7.5054 -9.01735e-07 0)
(-7.49572 -8.92763e-07 0)
(-7.48604 -8.83822e-07 0)
(-7.47634 -8.74772e-07 0)
(-7.46665 -8.65854e-07 0)
(-7.45694 -8.57149e-07 0)
(-7.44723 -8.48412e-07 0)
(-7.43752 -8.39616e-07 0)
(-7.4278 -8.31007e-07 0)
(-7.41807 -8.22571e-07 0)
(-7.40834 -8.14044e-07 0)
(-7.39861 -8.055e-07 0)
(-7.38888 -7.97185e-07 0)
(-7.37914 -7.88959e-07 0)
(-7.36939 -7.80656e-07 0)
(-7.35965 -7.72417e-07 0)
(-7.3499 -7.64375e-07 0)
(-7.34015 -7.5634e-07 0)
(-7.3304 -7.4839e-07 0)
(-7.32064 -7.41002e-07 0)
(-7.31087 -7.33669e-07 0)
(-7.3011 -7.25845e-07 0)
(-7.29133 -7.17974e-07 0)
(-7.28155 -7.10304e-07 0)
(-7.27178 -7.02727e-07 0)
(-7.26201 -6.95176e-07 0)
(-7.25224 -6.87707e-07 0)
(-7.24246 -6.80329e-07 0)
(-7.23269 -6.72924e-07 0)
(-7.22292 -6.65486e-07 0)
(-7.21315 -6.58193e-07 0)
(-7.20339 -6.51031e-07 0)
(-7.19362 -6.43817e-07 0)
(-7.18386 -6.36639e-07 0)
(-7.17411 -6.2964e-07 0)
(-7.16435 -6.22674e-07 0)
(-7.1546 -6.15659e-07 0)
(-7.14486 -6.08778e-07 0)
(-7.13512 -6.02026e-07 0)
(-7.12538 -5.9523e-07 0)
(-7.11565 -5.88455e-07 0)
(-7.10592 -5.81866e-07 0)
(-7.0962 -5.75292e-07 0)
(-7.08648 -5.68688e-07 0)
(-7.07678 -5.6221e-07 0)
(-7.06707 -5.55855e-07 0)
(-7.05738 -5.49447e-07 0)
(-7.04769 -5.43088e-07 0)
(-7.03801 -5.36897e-07 0)
(-7.02833 -5.30708e-07 0)
(-7.01867 -5.24494e-07 0)
(-7.00901 -5.1843e-07 0)
(-6.99936 -5.1244e-07 0)
(-6.98972 -5.06417e-07 0)
(-6.98009 -5.00464e-07 0)
(-6.97047 -4.94667e-07 0)
(-6.96086 -4.88834e-07 0)
(-6.95126 -4.83008e-07 0)
(-6.94167 -4.77343e-07 0)
(-6.93209 -4.71714e-07 0)
(-6.92252 -4.66058e-07 0)
(-6.91296 -4.60515e-07 0)
(-6.90341 -4.55065e-07 0)
(-6.89388 -4.49594e-07 0)
(-6.88435 -4.44169e-07 0)
(-6.87484 -4.38892e-07 0)
(-6.86534 -4.33602e-07 0)
(-6.85586 -4.28321e-07 0)
(-6.84638 -4.23175e-07 0)
(-6.83692 -4.1807e-07 0)
(-6.82747 -4.12951e-07 0)
(-6.81804 -4.07935e-07 0)
(-6.80862 -4.02999e-07 0)
(-6.79921 -3.98053e-07 0)
(-6.78982 -3.9316e-07 0)
(-6.78044 -3.88391e-07 0)
(-6.77107 -3.83826e-07 0)
(-6.76171 -3.79331e-07 0)
(-6.75236 -3.7476e-07 0)
(-6.74303 -3.70177e-07 0)
(-6.73371 -3.65568e-07 0)
(-6.72441 -3.61042e-07 0)
(-6.71512 -3.56568e-07 0)
(-6.70585 -3.52097e-07 0)
(-6.69659 -3.4769e-07 0)
(-6.68735 -3.4337e-07 0)
(-6.67813 -3.39046e-07 0)
(-6.66892 -3.34764e-07 0)
(-6.65973 -3.30581e-07 0)
(-6.65056 -3.26411e-07 0)
(-6.64141 -3.22255e-07 0)
(-6.63227 -3.18199e-07 0)
(-6.62315 -3.14169e-07 0)
(-6.61405 -3.10156e-07 0)
(-6.60497 -3.06212e-07 0)
(-6.59591 -3.02326e-07 0)
(-6.58686 -2.98427e-07 0)
(-6.57784 -2.94625e-07 0)
(-6.56882 -2.90778e-07 0)
(-6.55984 -2.87102e-07 0)
(-6.55086 -2.83548e-07 0)
(-6.54091 -2.79256e-07 0)
(-6.53008 -2.74686e-07 0)
(-6.51943 -2.70558e-07 0)
(-6.50892 -2.66523e-07 0)
(-6.49858 -2.62496e-07 0)
(-6.48839 -2.58611e-07 0)
(-6.47836 -2.54799e-07 0)
(-6.46846 -2.51072e-07 0)
(-6.45872 -2.47457e-07 0)
(-6.44911 -2.4391e-07 0)
(-6.43964 -2.40435e-07 0)
(-6.4303 -2.37071e-07 0)
(-6.4211 -2.33768e-07 0)
(-6.41202 -2.30529e-07 0)
(-6.40307 -2.27401e-07 0)
(-6.39424 -2.24329e-07 0)
(-6.38553 -2.21315e-07 0)
(-6.37693 -2.18403e-07 0)
(-6.36845 -2.15547e-07 0)
(-6.36007 -2.1274e-07 0)
(-6.35181 -2.1002e-07 0)
(-6.34365 -2.07361e-07 0)
(-6.3356 -2.04739e-07 0)
(-6.32764 -2.02176e-07 0)
(-6.31979 -1.99679e-07 0)
(-6.31202 -1.97215e-07 0)
(-6.30436 -1.94801e-07 0)
(-6.29679 -1.92461e-07 0)
(-6.28931 -1.90162e-07 0)
(-6.28192 -1.87891e-07 0)
(-6.27462 -1.85685e-07 0)
(-6.2674 -1.83532e-07 0)
(-6.26027 -1.81423e-07 0)
(-6.25321 -1.79397e-07 0)
(-6.24624 -1.77442e-07 0)
(-6.23933 -1.75483e-07 0)
(-6.23252 -1.73539e-07 0)
(-6.22576 -1.71621e-07 0)
(-6.2191 -1.69759e-07 0)
(-6.21249 -1.67915e-07 0)
(-6.20597 -1.661e-07 0)
(-6.1995 -1.64321e-07 0)
(-6.19312 -1.62597e-07 0)
(-6.18678 -1.60884e-07 0)
(-6.18054 -1.59203e-07 0)
(-6.17434 -1.57551e-07 0)
(-6.16822 -1.55956e-07 0)
(-6.16214 -1.54363e-07 0)
(-6.15614 -1.52808e-07 0)
(-6.15019 -1.51267e-07 0)
(-6.14432 -1.49786e-07 0)
(-6.13848 -1.483e-07 0)
(-6.13272 -1.46856e-07 0)
(-6.12699 -1.45409e-07 0)
(-6.12135 -1.44032e-07 0)
(-6.11573 -1.42645e-07 0)
(-6.11019 -1.41312e-07 0)
(-6.10468 -1.39948e-07 0)
(-6.09925 -1.3867e-07 0)
(-6.09384 -1.37372e-07 0)
(-6.08851 -1.36145e-07 0)
(-6.08319 -1.34863e-07 0)
(-6.07796 -1.33685e-07 0)
(-6.07274 -1.3246e-07 0)
(-6.06761 -1.31342e-07 0)
(-6.06247 -1.3014e-07 0)
(-6.05743 -1.29049e-07 0)
(-6.05238 -1.27883e-07 0)
(-6.04743 -1.26858e-07 0)
(-6.04246 -1.25725e-07 0)
(-6.0376 -1.24734e-07 0)
(-6.0327 -1.2362e-07 0)
(-6.02793 -1.22682e-07 0)
(-6.02311 -1.21613e-07 0)
(-6.01842 -1.20725e-07 0)
(-6.01367 -1.19671e-07 0)
(-6.00907 -1.18818e-07 0)
(-6.00438 -1.17802e-07 0)
(-5.99985 -1.17013e-07 0)
(-5.99523 -1.16033e-07 0)
(-5.99078 -1.15288e-07 0)
(-5.98621 -1.1435e-07 0)
(-5.98184 -1.13647e-07 0)
(-5.97733 -1.12837e-07 0)
(-5.97302 -1.12076e-07 0)
(-5.96857 -1.11658e-07 0)
(-5.96428 -1.10288e-07 0)
(-5.95994 -1.11517e-07 0)
(-5.95556 -1.07199e-07 0)
(-5.95157 -1.14956e-07 0)
(-5.94655 -9.83682e-08 0)
(-5.94392 -1.27773e-07 0)
(-5.93648 -7.73774e-08 0)
(-5.93802 -1.06429e-07 0)
(-5.92788 -1.34555e-07 0)
)
;
    }
    symmetry
    {
        type            symmetryPlane;
    }
    frontAndBack
    {
        type            empty;
    }
}


// ************************************************************************* //
