/*--------------------------------*- C++ -*----------------------------------*\
| =========                 |                                                 |
| \\      /  F ield         | OpenFOAM: The Open Source CFD Toolbox           |
|  \\    /   O peration     | Version:  v2012                                 |
|   \\  /    A nd           | Website:  www.openfoam.com                      |
|    \\/     M anipulation  |                                                 |
\*---------------------------------------------------------------------------*/
FoamFile
{
    version     2.0;
    format      ascii;
    class       volScalarField;
    location    "41";
    object      yPlus;
}
// * * * * * * * * * * * * * * * * * * * * * * * * * * * * * * * * * * * * * //

dimensions      [0 0 0 0 0 0 0];


internalField   uniform 0;

boundaryField
{
    inlet
    {
        type            calculated;
        value           uniform 0;
    }
    outlet
    {
        type            calculated;
        value           uniform 0;
    }
    topWall
    {
        type            calculated;
        value           nonuniform List<scalar> 
545
(
0.111332
0.191969
0.246279
0.2895
0.326092
0.358111
0.386712
0.412622
0.436338
0.458214
0.478516
0.497452
0.515185
0.531847
0.547548
0.56238
0.576423
0.589741
0.602395
0.614434
0.625904
0.636845
0.647292
0.657278
0.666832
0.675979
0.684745
0.69315
0.701214
0.708958
0.716396
0.723545
0.730421
0.737035
0.743402
0.749533
0.755439
0.76113
0.766616
0.771907
0.77701
0.781935
0.786688
0.791277
0.795709
0.799991
0.804128
0.808126
0.811991
0.815727
0.819341
0.822837
0.826219
0.829492
0.832659
0.835725
0.838693
0.841567
0.844351
0.847047
0.849659
0.85219
0.854642
0.857019
0.859323
0.861556
0.863721
0.865821
0.867857
0.869831
0.871746
0.873604
0.875383
0.877105
0.878812
0.880506
0.882187
0.883855
0.88551
0.887151
0.88878
0.890396
0.891999
0.89359
0.895169
0.896736
0.89829
0.899832
0.901363
0.902882
0.904389
0.905885
0.907369
0.908842
0.910304
0.911754
0.913061
0.914231
0.9154
0.916569
0.917738
0.918907
0.920076
0.921244
0.922413
0.923581
0.924749
0.925917
0.927085
0.928253
0.92942
0.930588
0.931755
0.932922
0.934088
0.935255
0.936421
0.937587
0.938753
0.939918
0.941083
0.942248
0.943413
0.944577
0.945741
0.946905
0.948069
0.949232
0.950395
0.951558
0.95272
0.953882
0.955044
0.956205
0.957366
0.958526
0.959686
0.960846
0.962006
0.963165
0.964323
0.965481
0.966639
0.967796
0.968953
0.97011
0.971266
0.972421
0.973576
0.974731
0.975885
0.977038
0.978192
0.979344
0.980496
0.981648
0.982799
0.983949
0.985099
0.986248
0.987397
0.988545
0.989692
0.990839
0.991985
0.993131
0.994276
0.99542
0.996564
0.997707
0.99885
0.999991
1.00113
1.00227
1.00341
1.00455
1.00569
1.00683
1.00796
1.0091
1.01023
1.01137
1.0125
1.01363
1.01477
1.0159
1.01703
1.01816
1.01929
1.02041
1.02154
1.02267
1.02379
1.02492
1.02604
1.02716
1.02828
1.0294
1.03052
1.03164
1.03276
1.03387
1.03499
1.0361
1.03722
1.03833
1.03944
1.04055
1.04166
1.04277
1.04388
1.04498
1.04609
1.04719
1.04829
1.04939
1.05049
1.05159
1.05269
1.05379
1.05488
1.05598
1.05707
1.05816
1.05925
1.06034
1.06143
1.06252
1.0636
1.06468
1.06577
1.06685
1.06793
1.06901
1.07008
1.07116
1.07223
1.07331
1.07438
1.07545
1.07652
1.07758
1.07865
1.07971
1.08077
1.08184
1.08289
1.08395
1.08501
1.08606
1.08712
1.08817
1.08922
1.09027
1.09131
1.09236
1.0934
1.09444
1.09548
1.09652
1.09756
1.09859
1.09962
1.10065
1.10168
1.10271
1.10374
1.10476
1.10578
1.10675
1.10765
1.10857
1.10949
1.11042
1.11135
1.11229
1.11324
1.1142
1.11516
1.11612
1.1171
1.11808
1.11906
1.12005
1.12105
1.12206
1.12307
1.12408
1.12511
1.12614
1.12717
1.12822
1.12927
1.13032
1.13138
1.13245
1.13352
1.1346
1.13568
1.13678
1.13787
1.13897
1.14008
1.1412
1.14232
1.14344
1.14457
1.14571
1.14685
1.148
1.14915
1.15031
1.15147
1.15264
1.15381
1.15499
1.15617
1.15736
1.15855
1.15974
1.16094
1.16215
1.16336
1.16457
1.16579
1.16701
1.16823
1.16946
1.17069
1.17193
1.17317
1.17441
1.17565
1.1769
1.17815
1.1794
1.18066
1.18191
1.18317
1.18443
1.18569
1.18696
1.18822
1.18949
1.19076
1.19202
1.19329
1.19456
1.19583
1.1971
1.19837
1.19963
1.2009
1.20217
1.20343
1.2047
1.20596
1.20722
1.20848
1.20973
1.21098
1.21223
1.21348
1.21472
1.21596
1.2172
1.21843
1.21965
1.22087
1.22209
1.2233
1.2245
1.2257
1.2269
1.22808
1.22926
1.23043
1.23159
1.23275
1.2339
1.23503
1.23616
1.23728
1.23839
1.23949
1.24058
1.24166
1.24273
1.24379
1.24483
1.24587
1.24689
1.2479
1.24889
1.24987
1.25084
1.25179
1.25273
1.25366
1.25456
1.25546
1.25634
1.2572
1.25804
1.25887
1.25968
1.26047
1.26124
1.262
1.26274
1.26346
1.26416
1.26484
1.2655
1.26614
1.26675
1.26735
1.26793
1.26849
1.26902
1.26953
1.27002
1.27049
1.27094
1.27136
1.27176
1.27214
1.27249
1.27282
1.27312
1.27341
1.27366
1.2739
1.2741
1.27429
1.27445
1.27458
1.27469
1.27478
1.27484
1.27487
1.27488
1.27486
1.27482
1.27476
1.27467
1.27455
1.27441
1.27425
1.27406
1.27382
1.27352
1.27319
1.27283
1.27245
1.27203
1.27159
1.27113
1.27065
1.27014
1.26961
1.26907
1.2685
1.26792
1.26733
1.26671
1.26609
1.26545
1.2648
1.26414
1.26347
1.2628
1.26211
1.26142
1.26072
1.26001
1.2593
1.25859
1.25787
1.25715
1.25643
1.2557
1.25498
1.25426
1.25353
1.25281
1.25209
1.25137
1.25065
1.24994
1.24923
1.24853
1.24783
1.24713
1.24645
1.24576
1.24509
1.24442
1.24376
1.24311
1.24246
1.24183
1.2412
1.24058
1.23998
1.23938
1.23879
1.23822
1.23765
1.2371
1.23656
1.23603
1.23552
1.23501
1.23452
1.23405
1.23358
1.23314
1.2327
1.23228
1.23187
1.23148
1.23111
1.23074
1.2304
1.23007
1.22975
1.22946
1.22917
1.22891
1.22866
1.22843
1.22821
1.22801
1.22783
1.22766
1.22751
1.22738
1.22727
1.22717
1.22709
1.22703
1.22699
1.22696
1.22695
)
;
    }
    bottomWall
    {
        type            calculated;
        value           nonuniform List<scalar> 
449
(
0.139401
0.0889375
0.0758035
0.0694543
0.0653068
0.0622472
0.0598866
0.0581189
0.0570492
0.0570612
0.059337
0.0634063
0.0665809
0.068456
0.0694686
0.0700106
0.0702694
0.0703456
0.0702875
0.0701571
0.0699748
0.0697611
0.0695314
0.0692947
0.0690567
0.0688206
0.068588
0.0683607
0.0681393
0.0679243
0.0677158
0.0675138
0.0673181
0.0671284
0.0669448
0.0667665
0.0665936
0.0664258
0.0662629
0.0661048
0.0659511
0.0658018
0.0656565
0.0655151
0.0653773
0.0652431
0.0651123
0.0649846
0.06486
0.064738
0.0646185
0.064501
0.0643856
0.0642722
0.0641609
0.0640515
0.0639441
0.0638386
0.0637351
0.0636333
0.0635334
0.0634352
0.0633386
0.0632437
0.0631503
0.0630585
0.0629682
0.0628794
0.0627919
0.0627058
0.0626209
0.0625373
0.0624549
0.0623738
0.0622938
0.0622149
0.0621372
0.0620606
0.0619851
0.0619106
0.0618371
0.0617646
0.061693
0.0616224
0.0615528
0.061484
0.0614161
0.061349
0.0612828
0.0612173
0.0611527
0.0610888
0.0610256
0.0609632
0.0609016
0.0608406
0.0607803
0.0607207
0.0606618
0.0606035
0.0605458
0.0604887
0.0604321
0.0603762
0.0603208
0.060266
0.0602117
0.060158
0.0601048
0.0600522
0.06
0.0599484
0.0598972
0.0598466
0.0597964
0.0597467
0.0596974
0.0596486
0.0596002
0.0595522
0.0595047
0.0594576
0.0594109
0.0593646
0.0593187
0.0592732
0.0592281
0.0591833
0.0591389
0.0590949
0.0590512
0.0590079
0.0589649
0.0589222
0.0588799
0.0588379
0.0587963
0.0587549
0.0587139
0.0586732
0.0586327
0.0585926
0.0585527
0.0585132
0.0584739
0.0584349
0.0583962
0.0583577
0.0583195
0.0582815
0.0582438
0.0582063
0.0581691
0.0581321
0.0580954
0.0580589
0.0580226
0.0579866
0.0579508
0.0579153
0.0578799
0.0578448
0.0578099
0.0577753
0.0577408
0.0577065
0.0576725
0.0576386
0.057605
0.0575716
0.0575383
0.0575052
0.0574724
0.0574416
0.0574126
0.0573834
0.0573542
0.0573249
0.0572955
0.0572659
0.0572363
0.0572066
0.0571767
0.0571468
0.0571168
0.0570866
0.0570564
0.0570261
0.0569957
0.0569651
0.0569345
0.0569038
0.056873
0.0568421
0.0568111
0.05678
0.0567489
0.0567176
0.0566862
0.0566548
0.0566232
0.0565916
0.0565599
0.056528
0.0564962
0.0564642
0.0564321
0.0563999
0.0563677
0.0563354
0.056303
0.0562705
0.0562379
0.0562052
0.0561724
0.0561395
0.0561066
0.0560735
0.0560405
0.0560073
0.055974
0.0559407
0.0559073
0.0558738
0.0558402
0.0558066
0.0557729
0.0557392
0.0557053
0.0556714
0.0556374
0.0556034
0.0555693
0.0555351
0.0555009
0.0554666
0.0554322
0.0553977
0.0553633
0.0553287
0.0552941
0.0552594
0.0552247
0.0551899
0.055155
0.0551201
0.0550851
0.0550501
0.0550151
0.0549799
0.0549448
0.0549095
0.0548743
0.0548389
0.0548036
0.0547681
0.0547327
0.0546972
0.0546616
0.054626
0.0545904
0.0545547
0.054519
0.0544832
0.0544474
0.0544116
0.0543757
0.0543398
0.0543038
0.0542679
0.0542319
0.0541958
0.0541597
0.0541236
0.0540874
0.0540512
0.054015
0.0539787
0.0539424
0.0539061
0.0538698
0.0538334
0.053797
0.0537607
0.0537243
0.0536878
0.0536514
0.053615
0.0535785
0.053542
0.0535055
0.0534691
0.0534326
0.0533961
0.0533596
0.053323
0.0532865
0.05325
0.0532135
0.053177
0.0531405
0.053104
0.0530675
0.053031
0.0529945
0.052958
0.0529215
0.052885
0.0528486
0.0528121
0.0527757
0.0527393
0.0527029
0.0526665
0.0526301
0.0525937
0.0525574
0.0525211
0.0524848
0.0524485
0.0524123
0.052376
0.0523398
0.0523036
0.0522675
0.0522314
0.0521953
0.0521592
0.0521232
0.0520872
0.0520512
0.0520152
0.0519792
0.0519433
0.0519074
0.0518715
0.0518357
0.0517999
0.0517642
0.0517284
0.0516928
0.0516572
0.0516216
0.051586
0.0515505
0.0515151
0.0514797
0.0514443
0.051409
0.0513737
0.0513385
0.0513034
0.0512683
0.0512332
0.0511942
0.0511518
0.0511101
0.0510689
0.0510283
0.0509883
0.0509489
0.0509099
0.0508716
0.0508337
0.0507964
0.0507596
0.0507232
0.0506873
0.050652
0.050617
0.0505825
0.0505484
0.0505148
0.0504816
0.0504488
0.0504164
0.0503844
0.0503527
0.0503215
0.0502905
0.05026
0.0502298
0.0502
0.0501705
0.0501413
0.0501124
0.0500839
0.0500557
0.0500278
0.0500001
0.0499728
0.0499457
0.049919
0.0498924
0.0498662
0.0498403
0.0498146
0.0497891
0.049764
0.049739
0.0497144
0.0496899
0.0496657
0.0496417
0.0496179
0.0495944
0.0495711
0.049548
0.0495251
0.0495024
0.04948
0.0494577
0.0494357
0.0494137
0.0493921
0.0493705
0.0493493
0.0493281
0.0493072
0.0492864
0.0492659
0.0492453
0.0492252
0.049205
0.0491852
0.0491652
0.0491458
0.0491261
0.049107
0.0490876
0.0490688
0.0490497
0.0490312
0.0490123
0.0489941
0.0489754
0.0489575
0.0489391
0.0489214
0.0489032
0.0488856
0.0488678
0.0488499
0.0488335
0.0488129
0.0488021
0.0487715
0.0487779
0.0487362
)
;
    }
    symmetry
    {
        type            symmetryPlane;
    }
    frontAndBack
    {
        type            empty;
    }
}


// ************************************************************************* //
