/*--------------------------------*- C++ -*----------------------------------*\
| =========                 |                                                 |
| \\      /  F ield         | OpenFOAM: The Open Source CFD Toolbox           |
|  \\    /   O peration     | Version:  v2012                                 |
|   \\  /    A nd           | Website:  www.openfoam.com                      |
|    \\/     M anipulation  |                                                 |
\*---------------------------------------------------------------------------*/
FoamFile
{
    version     2.0;
    format      ascii;
    class       volScalarField;
    location    "20";
    object      nut;
}
// * * * * * * * * * * * * * * * * * * * * * * * * * * * * * * * * * * * * * //

dimensions      [0 2 -1 0 0 0 0];


internalField   nonuniform List<scalar> 
209825
(
1.23789e-07
1.23581e-07
1.2404e-07
1.24648e-07
1.25217e-07
1.25704e-07
1.26117e-07
1.26465e-07
1.26767e-07
1.27023e-07
1.27249e-07
1.27444e-07
1.27619e-07
1.2777e-07
1.27909e-07
1.28029e-07
1.28141e-07
1.28237e-07
1.28328e-07
1.28408e-07
1.28484e-07
1.2855e-07
1.28613e-07
1.28669e-07
1.28722e-07
1.28768e-07
1.28814e-07
1.28854e-07
1.28893e-07
1.28927e-07
1.28961e-07
1.28993e-07
1.29022e-07
1.29044e-07
1.2907e-07
1.29094e-07
1.2912e-07
1.29137e-07
1.29158e-07
1.29178e-07
1.29197e-07
1.29206e-07
1.29226e-07
1.29245e-07
1.29249e-07
1.29258e-07
1.29274e-07
1.29283e-07
1.29299e-07
1.29305e-07
1.29313e-07
1.29327e-07
1.29334e-07
1.2934e-07
1.29353e-07
1.29362e-07
1.29363e-07
1.29363e-07
1.29387e-07
1.29399e-07
1.29388e-07
1.29404e-07
1.29423e-07
1.29451e-07
1.29454e-07
1.29483e-07
1.295e-07
1.29513e-07
1.29529e-07
1.29538e-07
1.29564e-07
1.29569e-07
1.2959e-07
1.29596e-07
1.29606e-07
1.29622e-07
1.29636e-07
1.29653e-07
1.2967e-07
1.29692e-07
1.29702e-07
1.29727e-07
1.29742e-07
1.29773e-07
1.29793e-07
1.29835e-07
1.29861e-07
1.29911e-07
1.29942e-07
1.30006e-07
1.30042e-07
1.30156e-07
1.30192e-07
1.31257e-07
1.35839e-07
1.84183e-08
1.23789e-07
1.23581e-07
1.2404e-07
1.24648e-07
1.25217e-07
1.25703e-07
1.26117e-07
1.26465e-07
1.26766e-07
1.27023e-07
1.27249e-07
1.27444e-07
1.27619e-07
1.2777e-07
1.27909e-07
1.28029e-07
1.28141e-07
1.28237e-07
1.28328e-07
1.28408e-07
1.28484e-07
1.2855e-07
1.28614e-07
1.28669e-07
1.28722e-07
1.28768e-07
1.28814e-07
1.28854e-07
1.28893e-07
1.28927e-07
1.28961e-07
1.28993e-07
1.29023e-07
1.29044e-07
1.2907e-07
1.29094e-07
1.2912e-07
1.29137e-07
1.29158e-07
1.29178e-07
1.29197e-07
1.29206e-07
1.29226e-07
1.29245e-07
1.29249e-07
1.29258e-07
1.29274e-07
1.29283e-07
1.29299e-07
1.29305e-07
1.29313e-07
1.29327e-07
1.29334e-07
1.29341e-07
1.29353e-07
1.29362e-07
1.29363e-07
1.29363e-07
1.29387e-07
1.29399e-07
1.29388e-07
1.29404e-07
1.29423e-07
1.29451e-07
1.29455e-07
1.29483e-07
1.295e-07
1.29513e-07
1.2953e-07
1.29539e-07
1.29564e-07
1.29569e-07
1.2959e-07
1.29597e-07
1.29606e-07
1.29622e-07
1.29637e-07
1.29653e-07
1.2967e-07
1.29693e-07
1.29703e-07
1.29727e-07
1.29742e-07
1.29773e-07
1.29793e-07
1.29835e-07
1.29861e-07
1.29911e-07
1.29942e-07
1.30006e-07
1.30042e-07
1.30156e-07
1.30192e-07
1.31259e-07
1.35843e-07
1.8974e-08
1.23789e-07
1.2358e-07
1.24038e-07
1.24646e-07
1.25215e-07
1.25701e-07
1.26114e-07
1.26462e-07
1.26763e-07
1.2702e-07
1.27246e-07
1.27441e-07
1.27616e-07
1.27767e-07
1.27906e-07
1.28026e-07
1.28138e-07
1.28234e-07
1.28325e-07
1.28405e-07
1.28481e-07
1.28547e-07
1.28611e-07
1.28666e-07
1.28719e-07
1.28765e-07
1.28811e-07
1.28851e-07
1.2889e-07
1.28925e-07
1.28958e-07
1.28991e-07
1.2902e-07
1.29041e-07
1.29067e-07
1.29092e-07
1.29117e-07
1.29134e-07
1.29155e-07
1.29176e-07
1.29195e-07
1.29204e-07
1.29223e-07
1.29242e-07
1.29246e-07
1.29255e-07
1.29271e-07
1.29281e-07
1.29297e-07
1.29303e-07
1.2931e-07
1.29324e-07
1.29332e-07
1.29338e-07
1.29351e-07
1.2936e-07
1.29361e-07
1.29361e-07
1.29385e-07
1.29396e-07
1.29386e-07
1.29401e-07
1.29421e-07
1.29449e-07
1.29452e-07
1.29481e-07
1.29498e-07
1.29511e-07
1.29527e-07
1.29536e-07
1.29562e-07
1.29567e-07
1.29588e-07
1.29594e-07
1.29603e-07
1.2962e-07
1.29634e-07
1.29651e-07
1.29668e-07
1.2969e-07
1.297e-07
1.29725e-07
1.2974e-07
1.2977e-07
1.29791e-07
1.29833e-07
1.29859e-07
1.29909e-07
1.2994e-07
1.30003e-07
1.3004e-07
1.30154e-07
1.30189e-07
1.31261e-07
1.35846e-07
1.96637e-08
1.23789e-07
1.23579e-07
1.24035e-07
1.24642e-07
1.25211e-07
1.25696e-07
1.2611e-07
1.26458e-07
1.26759e-07
1.27015e-07
1.27242e-07
1.27436e-07
1.27611e-07
1.27763e-07
1.27901e-07
1.28022e-07
1.28134e-07
1.2823e-07
1.28321e-07
1.28401e-07
1.28477e-07
1.28543e-07
1.28606e-07
1.28662e-07
1.28715e-07
1.28761e-07
1.28807e-07
1.28847e-07
1.28886e-07
1.28921e-07
1.28954e-07
1.28986e-07
1.29016e-07
1.29037e-07
1.29063e-07
1.29088e-07
1.29113e-07
1.2913e-07
1.29151e-07
1.29172e-07
1.29191e-07
1.292e-07
1.29219e-07
1.29238e-07
1.29243e-07
1.29251e-07
1.29267e-07
1.29277e-07
1.29293e-07
1.29299e-07
1.29306e-07
1.2932e-07
1.29328e-07
1.29334e-07
1.29347e-07
1.29356e-07
1.29357e-07
1.29357e-07
1.29381e-07
1.29392e-07
1.29382e-07
1.29398e-07
1.29417e-07
1.29445e-07
1.29448e-07
1.29477e-07
1.29494e-07
1.29507e-07
1.29523e-07
1.29533e-07
1.29558e-07
1.29563e-07
1.29584e-07
1.2959e-07
1.296e-07
1.29616e-07
1.29631e-07
1.29647e-07
1.29664e-07
1.29687e-07
1.29697e-07
1.29721e-07
1.29736e-07
1.29767e-07
1.29787e-07
1.29829e-07
1.29855e-07
1.29905e-07
1.29936e-07
1.3e-07
1.30036e-07
1.3015e-07
1.30186e-07
1.31264e-07
1.35851e-07
2.04285e-08
1.2379e-07
1.23577e-07
1.24032e-07
1.24638e-07
1.25205e-07
1.25691e-07
1.26104e-07
1.26452e-07
1.26753e-07
1.27009e-07
1.27236e-07
1.2743e-07
1.27606e-07
1.27757e-07
1.27895e-07
1.28016e-07
1.28128e-07
1.28224e-07
1.28315e-07
1.28395e-07
1.28471e-07
1.28537e-07
1.28601e-07
1.28656e-07
1.2871e-07
1.28755e-07
1.28802e-07
1.28842e-07
1.28881e-07
1.28915e-07
1.28949e-07
1.28981e-07
1.29011e-07
1.29032e-07
1.29058e-07
1.29083e-07
1.29108e-07
1.29125e-07
1.29146e-07
1.29167e-07
1.29186e-07
1.29195e-07
1.29214e-07
1.29233e-07
1.29238e-07
1.29247e-07
1.29262e-07
1.29272e-07
1.29288e-07
1.29294e-07
1.29301e-07
1.29316e-07
1.29323e-07
1.29329e-07
1.29342e-07
1.29351e-07
1.29352e-07
1.29352e-07
1.29376e-07
1.29388e-07
1.29377e-07
1.29393e-07
1.29412e-07
1.2944e-07
1.29444e-07
1.29472e-07
1.29489e-07
1.29502e-07
1.29519e-07
1.29528e-07
1.29553e-07
1.29559e-07
1.29579e-07
1.29586e-07
1.29595e-07
1.29611e-07
1.29626e-07
1.29643e-07
1.2966e-07
1.29682e-07
1.29692e-07
1.29716e-07
1.29732e-07
1.29762e-07
1.29783e-07
1.29825e-07
1.29851e-07
1.299e-07
1.29932e-07
1.29995e-07
1.30032e-07
1.30145e-07
1.30181e-07
1.31268e-07
1.35856e-07
2.12574e-08
1.2379e-07
1.23574e-07
1.24027e-07
1.24631e-07
1.25198e-07
1.25683e-07
1.26096e-07
1.26444e-07
1.26745e-07
1.27002e-07
1.27228e-07
1.27423e-07
1.27598e-07
1.27749e-07
1.27888e-07
1.28008e-07
1.2812e-07
1.28217e-07
1.28308e-07
1.28388e-07
1.28464e-07
1.2853e-07
1.28594e-07
1.28649e-07
1.28703e-07
1.28749e-07
1.28795e-07
1.28835e-07
1.28874e-07
1.28909e-07
1.28942e-07
1.28975e-07
1.29004e-07
1.29026e-07
1.29052e-07
1.29076e-07
1.29102e-07
1.29119e-07
1.2914e-07
1.2916e-07
1.29179e-07
1.29188e-07
1.29208e-07
1.29227e-07
1.29232e-07
1.2924e-07
1.29256e-07
1.29266e-07
1.29282e-07
1.29288e-07
1.29295e-07
1.2931e-07
1.29317e-07
1.29323e-07
1.29336e-07
1.29345e-07
1.29346e-07
1.29346e-07
1.2937e-07
1.29382e-07
1.29371e-07
1.29387e-07
1.29406e-07
1.29434e-07
1.29438e-07
1.29466e-07
1.29483e-07
1.29497e-07
1.29513e-07
1.29522e-07
1.29548e-07
1.29553e-07
1.29574e-07
1.2958e-07
1.2959e-07
1.29606e-07
1.29621e-07
1.29637e-07
1.29654e-07
1.29676e-07
1.29687e-07
1.29711e-07
1.29726e-07
1.29757e-07
1.29777e-07
1.29819e-07
1.29845e-07
1.29895e-07
1.29926e-07
1.29989e-07
1.30026e-07
1.3014e-07
1.30175e-07
1.31274e-07
1.35862e-07
2.21479e-08
1.2379e-07
1.23572e-07
1.24021e-07
1.24624e-07
1.2519e-07
1.25674e-07
1.26087e-07
1.26435e-07
1.26736e-07
1.26992e-07
1.27219e-07
1.27414e-07
1.27589e-07
1.2774e-07
1.27879e-07
1.28e-07
1.28112e-07
1.28208e-07
1.283e-07
1.2838e-07
1.28456e-07
1.28522e-07
1.28586e-07
1.28641e-07
1.28695e-07
1.28741e-07
1.28787e-07
1.28827e-07
1.28866e-07
1.28901e-07
1.28935e-07
1.28967e-07
1.28996e-07
1.29018e-07
1.29044e-07
1.29068e-07
1.29094e-07
1.29111e-07
1.29132e-07
1.29153e-07
1.29172e-07
1.29181e-07
1.29201e-07
1.2922e-07
1.29224e-07
1.29233e-07
1.29249e-07
1.29259e-07
1.29275e-07
1.29281e-07
1.29288e-07
1.29302e-07
1.2931e-07
1.29316e-07
1.29329e-07
1.29338e-07
1.29339e-07
1.29339e-07
1.29363e-07
1.29375e-07
1.29364e-07
1.2938e-07
1.29399e-07
1.29427e-07
1.29431e-07
1.29459e-07
1.29476e-07
1.2949e-07
1.29506e-07
1.29515e-07
1.29541e-07
1.29546e-07
1.29567e-07
1.29574e-07
1.29583e-07
1.29599e-07
1.29614e-07
1.29631e-07
1.29647e-07
1.2967e-07
1.2968e-07
1.29704e-07
1.2972e-07
1.2975e-07
1.29771e-07
1.29813e-07
1.29838e-07
1.29888e-07
1.29919e-07
1.29983e-07
1.30019e-07
1.30133e-07
1.30168e-07
1.31282e-07
1.35869e-07
2.31005e-08
1.2379e-07
1.23568e-07
1.24014e-07
1.24615e-07
1.2518e-07
1.25664e-07
1.26077e-07
1.26424e-07
1.26725e-07
1.26982e-07
1.27208e-07
1.27403e-07
1.27579e-07
1.2773e-07
1.27869e-07
1.27989e-07
1.28102e-07
1.28198e-07
1.2829e-07
1.2837e-07
1.28446e-07
1.28512e-07
1.28576e-07
1.28632e-07
1.28685e-07
1.28731e-07
1.28778e-07
1.28818e-07
1.28857e-07
1.28892e-07
1.28925e-07
1.28958e-07
1.28987e-07
1.29009e-07
1.29035e-07
1.2906e-07
1.29085e-07
1.29103e-07
1.29124e-07
1.29144e-07
1.29163e-07
1.29172e-07
1.29192e-07
1.29211e-07
1.29216e-07
1.29225e-07
1.29241e-07
1.2925e-07
1.29266e-07
1.29272e-07
1.2928e-07
1.29294e-07
1.29302e-07
1.29308e-07
1.29321e-07
1.2933e-07
1.29331e-07
1.29331e-07
1.29355e-07
1.29367e-07
1.29356e-07
1.29372e-07
1.29391e-07
1.29419e-07
1.29423e-07
1.29451e-07
1.29469e-07
1.29482e-07
1.29498e-07
1.29508e-07
1.29533e-07
1.29538e-07
1.29559e-07
1.29566e-07
1.29575e-07
1.29591e-07
1.29606e-07
1.29623e-07
1.2964e-07
1.29662e-07
1.29672e-07
1.29697e-07
1.29712e-07
1.29743e-07
1.29763e-07
1.29805e-07
1.29831e-07
1.2988e-07
1.29911e-07
1.29975e-07
1.30011e-07
1.30125e-07
1.3016e-07
1.31291e-07
1.35877e-07
2.4116e-08
1.2379e-07
1.23564e-07
1.24006e-07
1.24605e-07
1.25169e-07
1.25652e-07
1.26064e-07
1.26412e-07
1.26713e-07
1.26969e-07
1.27196e-07
1.27391e-07
1.27566e-07
1.27718e-07
1.27857e-07
1.27978e-07
1.2809e-07
1.28187e-07
1.28278e-07
1.28359e-07
1.28435e-07
1.28501e-07
1.28565e-07
1.28621e-07
1.28675e-07
1.2872e-07
1.28767e-07
1.28807e-07
1.28847e-07
1.28881e-07
1.28915e-07
1.28947e-07
1.28977e-07
1.28999e-07
1.29025e-07
1.29049e-07
1.29075e-07
1.29092e-07
1.29113e-07
1.29134e-07
1.29153e-07
1.29162e-07
1.29182e-07
1.29201e-07
1.29206e-07
1.29215e-07
1.29231e-07
1.29241e-07
1.29257e-07
1.29263e-07
1.29271e-07
1.29285e-07
1.29293e-07
1.29299e-07
1.29311e-07
1.29321e-07
1.29321e-07
1.29321e-07
1.29345e-07
1.29357e-07
1.29347e-07
1.29363e-07
1.29382e-07
1.2941e-07
1.29414e-07
1.29442e-07
1.29459e-07
1.29473e-07
1.29489e-07
1.29499e-07
1.29524e-07
1.29529e-07
1.2955e-07
1.29557e-07
1.29566e-07
1.29582e-07
1.29597e-07
1.29614e-07
1.29631e-07
1.29653e-07
1.29664e-07
1.29688e-07
1.29703e-07
1.29734e-07
1.29754e-07
1.29796e-07
1.29822e-07
1.29872e-07
1.29903e-07
1.29966e-07
1.30002e-07
1.30116e-07
1.3015e-07
1.31303e-07
1.35885e-07
2.5195e-08
1.2379e-07
1.23559e-07
1.23997e-07
1.24593e-07
1.25156e-07
1.25638e-07
1.2605e-07
1.26398e-07
1.26699e-07
1.26955e-07
1.27182e-07
1.27377e-07
1.27553e-07
1.27704e-07
1.27844e-07
1.27964e-07
1.28077e-07
1.28174e-07
1.28266e-07
1.28346e-07
1.28422e-07
1.28488e-07
1.28553e-07
1.28608e-07
1.28662e-07
1.28708e-07
1.28755e-07
1.28795e-07
1.28835e-07
1.28869e-07
1.28903e-07
1.28936e-07
1.28965e-07
1.28987e-07
1.29013e-07
1.29038e-07
1.29064e-07
1.29081e-07
1.29102e-07
1.29123e-07
1.29142e-07
1.29151e-07
1.29171e-07
1.2919e-07
1.29195e-07
1.29204e-07
1.2922e-07
1.2923e-07
1.29246e-07
1.29252e-07
1.2926e-07
1.29274e-07
1.29282e-07
1.29288e-07
1.29301e-07
1.2931e-07
1.29311e-07
1.29311e-07
1.29335e-07
1.29347e-07
1.29337e-07
1.29352e-07
1.29371e-07
1.294e-07
1.29403e-07
1.29432e-07
1.29449e-07
1.29463e-07
1.29479e-07
1.29488e-07
1.29514e-07
1.29519e-07
1.2954e-07
1.29547e-07
1.29556e-07
1.29573e-07
1.29588e-07
1.29604e-07
1.29621e-07
1.29644e-07
1.29654e-07
1.29678e-07
1.29694e-07
1.29724e-07
1.29745e-07
1.29786e-07
1.29812e-07
1.29862e-07
1.29893e-07
1.29956e-07
1.29992e-07
1.30106e-07
1.3014e-07
1.31317e-07
1.35895e-07
2.63374e-08
1.2379e-07
1.23554e-07
1.23987e-07
1.2458e-07
1.25141e-07
1.25623e-07
1.26034e-07
1.26382e-07
1.26683e-07
1.26939e-07
1.27166e-07
1.27361e-07
1.27537e-07
1.27689e-07
1.27828e-07
1.27949e-07
1.28062e-07
1.28159e-07
1.28251e-07
1.28331e-07
1.28408e-07
1.28474e-07
1.28539e-07
1.28594e-07
1.28649e-07
1.28695e-07
1.28741e-07
1.28781e-07
1.28821e-07
1.28856e-07
1.2889e-07
1.28922e-07
1.28952e-07
1.28974e-07
1.29e-07
1.29025e-07
1.29051e-07
1.29068e-07
1.2909e-07
1.2911e-07
1.2913e-07
1.29139e-07
1.29159e-07
1.29178e-07
1.29183e-07
1.29192e-07
1.29208e-07
1.29218e-07
1.29234e-07
1.2924e-07
1.29248e-07
1.29262e-07
1.2927e-07
1.29276e-07
1.29289e-07
1.29298e-07
1.29299e-07
1.29299e-07
1.29323e-07
1.29335e-07
1.29325e-07
1.29341e-07
1.2936e-07
1.29388e-07
1.29392e-07
1.29421e-07
1.29438e-07
1.29452e-07
1.29468e-07
1.29477e-07
1.29502e-07
1.29508e-07
1.29529e-07
1.29536e-07
1.29545e-07
1.29561e-07
1.29577e-07
1.29593e-07
1.2961e-07
1.29633e-07
1.29643e-07
1.29667e-07
1.29683e-07
1.29713e-07
1.29734e-07
1.29775e-07
1.29801e-07
1.29851e-07
1.29881e-07
1.29945e-07
1.29981e-07
1.30095e-07
1.30128e-07
1.31333e-07
1.35906e-07
2.75412e-08
1.2379e-07
1.23549e-07
1.23976e-07
1.24566e-07
1.25125e-07
1.25606e-07
1.26017e-07
1.26364e-07
1.26665e-07
1.26922e-07
1.27149e-07
1.27344e-07
1.2752e-07
1.27672e-07
1.27812e-07
1.27933e-07
1.28046e-07
1.28143e-07
1.28235e-07
1.28315e-07
1.28392e-07
1.28459e-07
1.28523e-07
1.28579e-07
1.28633e-07
1.2868e-07
1.28726e-07
1.28767e-07
1.28807e-07
1.28841e-07
1.28875e-07
1.28908e-07
1.28938e-07
1.2896e-07
1.28986e-07
1.29011e-07
1.29037e-07
1.29054e-07
1.29076e-07
1.29096e-07
1.29116e-07
1.29125e-07
1.29145e-07
1.29164e-07
1.2917e-07
1.29178e-07
1.29194e-07
1.29204e-07
1.29221e-07
1.29227e-07
1.29235e-07
1.29249e-07
1.29257e-07
1.29263e-07
1.29276e-07
1.29285e-07
1.29286e-07
1.29286e-07
1.2931e-07
1.29322e-07
1.29312e-07
1.29328e-07
1.29347e-07
1.29375e-07
1.29379e-07
1.29408e-07
1.29425e-07
1.29439e-07
1.29455e-07
1.29465e-07
1.2949e-07
1.29496e-07
1.29517e-07
1.29524e-07
1.29533e-07
1.29549e-07
1.29565e-07
1.29581e-07
1.29598e-07
1.29621e-07
1.29631e-07
1.29655e-07
1.29671e-07
1.29701e-07
1.29722e-07
1.29763e-07
1.29789e-07
1.29838e-07
1.29869e-07
1.29932e-07
1.29968e-07
1.30083e-07
1.30115e-07
1.31351e-07
1.35918e-07
2.88038e-08
1.23791e-07
1.23543e-07
1.23964e-07
1.2455e-07
1.25107e-07
1.25587e-07
1.25998e-07
1.26345e-07
1.26646e-07
1.26902e-07
1.2713e-07
1.27325e-07
1.27501e-07
1.27654e-07
1.27793e-07
1.27915e-07
1.28028e-07
1.28125e-07
1.28217e-07
1.28298e-07
1.28375e-07
1.28441e-07
1.28506e-07
1.28562e-07
1.28617e-07
1.28663e-07
1.2871e-07
1.2875e-07
1.2879e-07
1.28825e-07
1.28859e-07
1.28892e-07
1.28922e-07
1.28944e-07
1.28971e-07
1.28995e-07
1.29021e-07
1.29039e-07
1.2906e-07
1.29081e-07
1.29101e-07
1.2911e-07
1.2913e-07
1.29149e-07
1.29155e-07
1.29164e-07
1.2918e-07
1.2919e-07
1.29206e-07
1.29212e-07
1.29221e-07
1.29235e-07
1.29243e-07
1.29249e-07
1.29261e-07
1.29271e-07
1.29271e-07
1.29272e-07
1.29296e-07
1.29308e-07
1.29298e-07
1.29314e-07
1.29332e-07
1.29361e-07
1.29365e-07
1.29394e-07
1.29411e-07
1.29426e-07
1.29442e-07
1.29451e-07
1.29476e-07
1.29482e-07
1.29503e-07
1.29511e-07
1.2952e-07
1.29536e-07
1.29551e-07
1.29568e-07
1.29585e-07
1.29607e-07
1.29618e-07
1.29642e-07
1.29658e-07
1.29688e-07
1.29708e-07
1.2975e-07
1.29775e-07
1.29825e-07
1.29856e-07
1.29919e-07
1.29954e-07
1.3007e-07
1.30101e-07
1.31372e-07
1.35932e-07
3.01282e-08
1.23791e-07
1.23536e-07
1.23951e-07
1.24532e-07
1.25087e-07
1.25566e-07
1.25977e-07
1.26323e-07
1.26624e-07
1.26881e-07
1.27109e-07
1.27304e-07
1.27481e-07
1.27633e-07
1.27773e-07
1.27895e-07
1.28008e-07
1.28105e-07
1.28198e-07
1.28279e-07
1.28356e-07
1.28423e-07
1.28488e-07
1.28544e-07
1.28598e-07
1.28645e-07
1.28692e-07
1.28732e-07
1.28773e-07
1.28808e-07
1.28842e-07
1.28875e-07
1.28905e-07
1.28927e-07
1.28953e-07
1.28978e-07
1.29004e-07
1.29022e-07
1.29044e-07
1.29064e-07
1.29084e-07
1.29094e-07
1.29113e-07
1.29133e-07
1.29139e-07
1.29148e-07
1.29164e-07
1.29174e-07
1.2919e-07
1.29197e-07
1.29205e-07
1.29219e-07
1.29227e-07
1.29234e-07
1.29246e-07
1.29256e-07
1.29256e-07
1.29256e-07
1.2928e-07
1.29292e-07
1.29283e-07
1.29299e-07
1.29317e-07
1.29346e-07
1.2935e-07
1.29379e-07
1.29396e-07
1.29411e-07
1.29427e-07
1.29436e-07
1.29461e-07
1.29468e-07
1.29489e-07
1.29496e-07
1.29505e-07
1.29521e-07
1.29537e-07
1.29554e-07
1.2957e-07
1.29593e-07
1.29604e-07
1.29628e-07
1.29643e-07
1.29674e-07
1.29694e-07
1.29735e-07
1.29761e-07
1.2981e-07
1.29841e-07
1.29904e-07
1.29939e-07
1.30055e-07
1.30086e-07
1.31396e-07
1.35947e-07
3.15178e-08
1.23791e-07
1.23529e-07
1.23936e-07
1.24513e-07
1.25066e-07
1.25544e-07
1.25954e-07
1.263e-07
1.26601e-07
1.26858e-07
1.27086e-07
1.27282e-07
1.27458e-07
1.27611e-07
1.27751e-07
1.27873e-07
1.27987e-07
1.28084e-07
1.28177e-07
1.28258e-07
1.28336e-07
1.28402e-07
1.28467e-07
1.28524e-07
1.28579e-07
1.28625e-07
1.28672e-07
1.28713e-07
1.28753e-07
1.28788e-07
1.28823e-07
1.28856e-07
1.28886e-07
1.28909e-07
1.28935e-07
1.2896e-07
1.28986e-07
1.29004e-07
1.29025e-07
1.29046e-07
1.29066e-07
1.29076e-07
1.29096e-07
1.29115e-07
1.29121e-07
1.2913e-07
1.29146e-07
1.29156e-07
1.29173e-07
1.29179e-07
1.29188e-07
1.29202e-07
1.29211e-07
1.29217e-07
1.29229e-07
1.29239e-07
1.29239e-07
1.29239e-07
1.29263e-07
1.29276e-07
1.29267e-07
1.29282e-07
1.293e-07
1.2933e-07
1.29334e-07
1.29362e-07
1.2938e-07
1.29394e-07
1.29411e-07
1.2942e-07
1.29445e-07
1.29451e-07
1.29473e-07
1.2948e-07
1.29489e-07
1.29505e-07
1.29521e-07
1.29538e-07
1.29554e-07
1.29577e-07
1.29588e-07
1.29612e-07
1.29628e-07
1.29658e-07
1.29678e-07
1.29719e-07
1.29745e-07
1.29794e-07
1.29825e-07
1.29888e-07
1.29923e-07
1.30039e-07
1.30069e-07
1.31422e-07
1.35963e-07
3.29762e-08
1.23792e-07
1.23521e-07
1.23921e-07
1.24493e-07
1.25043e-07
1.2552e-07
1.25929e-07
1.26275e-07
1.26576e-07
1.26833e-07
1.27061e-07
1.27257e-07
1.27434e-07
1.27587e-07
1.27728e-07
1.27849e-07
1.27963e-07
1.28061e-07
1.28154e-07
1.28236e-07
1.28313e-07
1.2838e-07
1.28446e-07
1.28502e-07
1.28557e-07
1.28604e-07
1.28651e-07
1.28692e-07
1.28733e-07
1.28768e-07
1.28802e-07
1.28835e-07
1.28866e-07
1.28888e-07
1.28915e-07
1.2894e-07
1.28966e-07
1.28984e-07
1.29006e-07
1.29027e-07
1.29047e-07
1.29057e-07
1.29076e-07
1.29096e-07
1.29102e-07
1.29111e-07
1.29127e-07
1.29137e-07
1.29154e-07
1.29161e-07
1.2917e-07
1.29184e-07
1.29192e-07
1.29198e-07
1.2921e-07
1.2922e-07
1.29221e-07
1.29221e-07
1.29245e-07
1.29257e-07
1.29249e-07
1.29264e-07
1.29282e-07
1.29312e-07
1.29316e-07
1.29345e-07
1.29362e-07
1.29377e-07
1.29393e-07
1.29403e-07
1.29427e-07
1.29434e-07
1.29456e-07
1.29463e-07
1.29472e-07
1.29488e-07
1.29504e-07
1.29521e-07
1.29537e-07
1.2956e-07
1.29571e-07
1.29595e-07
1.29611e-07
1.29641e-07
1.29661e-07
1.29702e-07
1.29728e-07
1.29777e-07
1.29808e-07
1.29871e-07
1.29906e-07
1.30022e-07
1.30051e-07
1.3145e-07
1.3598e-07
3.45074e-08
1.23792e-07
1.23513e-07
1.23904e-07
1.24471e-07
1.25019e-07
1.25494e-07
1.25902e-07
1.26248e-07
1.26549e-07
1.26806e-07
1.27035e-07
1.27231e-07
1.27408e-07
1.27561e-07
1.27702e-07
1.27824e-07
1.27938e-07
1.28036e-07
1.2813e-07
1.28211e-07
1.28289e-07
1.28356e-07
1.28422e-07
1.28479e-07
1.28534e-07
1.28581e-07
1.28629e-07
1.28669e-07
1.2871e-07
1.28745e-07
1.2878e-07
1.28813e-07
1.28844e-07
1.28867e-07
1.28893e-07
1.28918e-07
1.28945e-07
1.28963e-07
1.28985e-07
1.29006e-07
1.29026e-07
1.29036e-07
1.29056e-07
1.29075e-07
1.29082e-07
1.29091e-07
1.29107e-07
1.29117e-07
1.29134e-07
1.29141e-07
1.2915e-07
1.29164e-07
1.29173e-07
1.29179e-07
1.2919e-07
1.29201e-07
1.29201e-07
1.29201e-07
1.29225e-07
1.29238e-07
1.29229e-07
1.29245e-07
1.29263e-07
1.29292e-07
1.29297e-07
1.29326e-07
1.29343e-07
1.29358e-07
1.29374e-07
1.29384e-07
1.29408e-07
1.29415e-07
1.29437e-07
1.29445e-07
1.29454e-07
1.29469e-07
1.29486e-07
1.29503e-07
1.29519e-07
1.29542e-07
1.29553e-07
1.29577e-07
1.29593e-07
1.29623e-07
1.29643e-07
1.29684e-07
1.2971e-07
1.29759e-07
1.2979e-07
1.29852e-07
1.29887e-07
1.30003e-07
1.30032e-07
1.31482e-07
1.35999e-07
3.61152e-08
1.23792e-07
1.23504e-07
1.23886e-07
1.24448e-07
1.24992e-07
1.25466e-07
1.25874e-07
1.26219e-07
1.2652e-07
1.26778e-07
1.27006e-07
1.27202e-07
1.2738e-07
1.27533e-07
1.27675e-07
1.27797e-07
1.27912e-07
1.2801e-07
1.28104e-07
1.28185e-07
1.28264e-07
1.28331e-07
1.28397e-07
1.28454e-07
1.28509e-07
1.28556e-07
1.28604e-07
1.28645e-07
1.28686e-07
1.28722e-07
1.28756e-07
1.2879e-07
1.28821e-07
1.28844e-07
1.2887e-07
1.28895e-07
1.28922e-07
1.2894e-07
1.28962e-07
1.28983e-07
1.29004e-07
1.29014e-07
1.29033e-07
1.29053e-07
1.2906e-07
1.29069e-07
1.29085e-07
1.29096e-07
1.29112e-07
1.29119e-07
1.29129e-07
1.29143e-07
1.29152e-07
1.29158e-07
1.29169e-07
1.2918e-07
1.2918e-07
1.2918e-07
1.29204e-07
1.29217e-07
1.29209e-07
1.29224e-07
1.29242e-07
1.29272e-07
1.29276e-07
1.29305e-07
1.29322e-07
1.29338e-07
1.29354e-07
1.29364e-07
1.29388e-07
1.29395e-07
1.29417e-07
1.29425e-07
1.29434e-07
1.2945e-07
1.29466e-07
1.29483e-07
1.29499e-07
1.29523e-07
1.29534e-07
1.29558e-07
1.29574e-07
1.29604e-07
1.29624e-07
1.29665e-07
1.2969e-07
1.29739e-07
1.2977e-07
1.29832e-07
1.29867e-07
1.29984e-07
1.30011e-07
1.31516e-07
1.36019e-07
3.78036e-08
1.23793e-07
1.23495e-07
1.23868e-07
1.24423e-07
1.24964e-07
1.25436e-07
1.25843e-07
1.26189e-07
1.2649e-07
1.26747e-07
1.26975e-07
1.27172e-07
1.2735e-07
1.27504e-07
1.27645e-07
1.27768e-07
1.27883e-07
1.27982e-07
1.28076e-07
1.28157e-07
1.28236e-07
1.28304e-07
1.2837e-07
1.28427e-07
1.28483e-07
1.2853e-07
1.28578e-07
1.28619e-07
1.2866e-07
1.28696e-07
1.28731e-07
1.28764e-07
1.28796e-07
1.28819e-07
1.28845e-07
1.28871e-07
1.28897e-07
1.28916e-07
1.28938e-07
1.28959e-07
1.2898e-07
1.2899e-07
1.2901e-07
1.2903e-07
1.29037e-07
1.29046e-07
1.29062e-07
1.29072e-07
1.29089e-07
1.29096e-07
1.29106e-07
1.2912e-07
1.29129e-07
1.29135e-07
1.29146e-07
1.29157e-07
1.29157e-07
1.29158e-07
1.29181e-07
1.29194e-07
1.29187e-07
1.29202e-07
1.2922e-07
1.2925e-07
1.29254e-07
1.29283e-07
1.29301e-07
1.29317e-07
1.29332e-07
1.29342e-07
1.29367e-07
1.29374e-07
1.29396e-07
1.29404e-07
1.29413e-07
1.29428e-07
1.29445e-07
1.29462e-07
1.29478e-07
1.29502e-07
1.29513e-07
1.29537e-07
1.29553e-07
1.29583e-07
1.29603e-07
1.29644e-07
1.29669e-07
1.29718e-07
1.29749e-07
1.29811e-07
1.29845e-07
1.29963e-07
1.29989e-07
1.31552e-07
1.3604e-07
3.95767e-08
1.23794e-07
1.23485e-07
1.23848e-07
1.24397e-07
1.24934e-07
1.25404e-07
1.25811e-07
1.26156e-07
1.26457e-07
1.26714e-07
1.26943e-07
1.2714e-07
1.27318e-07
1.27472e-07
1.27614e-07
1.27737e-07
1.27852e-07
1.27951e-07
1.28046e-07
1.28128e-07
1.28207e-07
1.28275e-07
1.28341e-07
1.28398e-07
1.28454e-07
1.28502e-07
1.2855e-07
1.28591e-07
1.28633e-07
1.28669e-07
1.28704e-07
1.28737e-07
1.28769e-07
1.28792e-07
1.28819e-07
1.28844e-07
1.28871e-07
1.2889e-07
1.28912e-07
1.28933e-07
1.28954e-07
1.28965e-07
1.28984e-07
1.29005e-07
1.29012e-07
1.29021e-07
1.29037e-07
1.29048e-07
1.29065e-07
1.29072e-07
1.29082e-07
1.29096e-07
1.29105e-07
1.29111e-07
1.29122e-07
1.29133e-07
1.29133e-07
1.29134e-07
1.29157e-07
1.29171e-07
1.29163e-07
1.29179e-07
1.29196e-07
1.29226e-07
1.29231e-07
1.2926e-07
1.29277e-07
1.29294e-07
1.29309e-07
1.29319e-07
1.29343e-07
1.29351e-07
1.29373e-07
1.29381e-07
1.29391e-07
1.29406e-07
1.29423e-07
1.2944e-07
1.29456e-07
1.29479e-07
1.29491e-07
1.29515e-07
1.29531e-07
1.29561e-07
1.29581e-07
1.29621e-07
1.29647e-07
1.29696e-07
1.29726e-07
1.29788e-07
1.29822e-07
1.2994e-07
1.29966e-07
1.31591e-07
1.36063e-07
4.14386e-08
1.23794e-07
1.23475e-07
1.23827e-07
1.24369e-07
1.24903e-07
1.25371e-07
1.25776e-07
1.26121e-07
1.26422e-07
1.26679e-07
1.26908e-07
1.27105e-07
1.27284e-07
1.27438e-07
1.27581e-07
1.27704e-07
1.2782e-07
1.27919e-07
1.28014e-07
1.28096e-07
1.28175e-07
1.28244e-07
1.2831e-07
1.28368e-07
1.28424e-07
1.28472e-07
1.2852e-07
1.28562e-07
1.28604e-07
1.2864e-07
1.28675e-07
1.28709e-07
1.2874e-07
1.28764e-07
1.28791e-07
1.28816e-07
1.28844e-07
1.28862e-07
1.28885e-07
1.28906e-07
1.28927e-07
1.28938e-07
1.28957e-07
1.28978e-07
1.28985e-07
1.28994e-07
1.29011e-07
1.29021e-07
1.29038e-07
1.29046e-07
1.29056e-07
1.2907e-07
1.2908e-07
1.29085e-07
1.29096e-07
1.29107e-07
1.29108e-07
1.29108e-07
1.29132e-07
1.29145e-07
1.29138e-07
1.29154e-07
1.29171e-07
1.29201e-07
1.29206e-07
1.29235e-07
1.29252e-07
1.29269e-07
1.29285e-07
1.29295e-07
1.29319e-07
1.29327e-07
1.29349e-07
1.29357e-07
1.29367e-07
1.29382e-07
1.29399e-07
1.29416e-07
1.29432e-07
1.29456e-07
1.29467e-07
1.29491e-07
1.29507e-07
1.29537e-07
1.29557e-07
1.29597e-07
1.29623e-07
1.29672e-07
1.29702e-07
1.29764e-07
1.29798e-07
1.29916e-07
1.29941e-07
1.31633e-07
1.36086e-07
4.33932e-08
1.23795e-07
1.23465e-07
1.23805e-07
1.2434e-07
1.2487e-07
1.25335e-07
1.25739e-07
1.26084e-07
1.26384e-07
1.26642e-07
1.26871e-07
1.27069e-07
1.27248e-07
1.27403e-07
1.27545e-07
1.27669e-07
1.27785e-07
1.27885e-07
1.2798e-07
1.28063e-07
1.28142e-07
1.28211e-07
1.28278e-07
1.28335e-07
1.28392e-07
1.2844e-07
1.28489e-07
1.28531e-07
1.28573e-07
1.28609e-07
1.28645e-07
1.28678e-07
1.2871e-07
1.28734e-07
1.28761e-07
1.28787e-07
1.28814e-07
1.28833e-07
1.28855e-07
1.28877e-07
1.28898e-07
1.28909e-07
1.28929e-07
1.28949e-07
1.28957e-07
1.28966e-07
1.28983e-07
1.28994e-07
1.29011e-07
1.29018e-07
1.29029e-07
1.29043e-07
1.29053e-07
1.29058e-07
1.29069e-07
1.2908e-07
1.29081e-07
1.29081e-07
1.29105e-07
1.29118e-07
1.29111e-07
1.29127e-07
1.29144e-07
1.29175e-07
1.2918e-07
1.29208e-07
1.29226e-07
1.29243e-07
1.29258e-07
1.29269e-07
1.29293e-07
1.29301e-07
1.29323e-07
1.29331e-07
1.29341e-07
1.29356e-07
1.29374e-07
1.29391e-07
1.29407e-07
1.2943e-07
1.29442e-07
1.29466e-07
1.29482e-07
1.29512e-07
1.29532e-07
1.29572e-07
1.29598e-07
1.29646e-07
1.29676e-07
1.29738e-07
1.29772e-07
1.29891e-07
1.29915e-07
1.31676e-07
1.3611e-07
4.54441e-08
1.23796e-07
1.23454e-07
1.23782e-07
1.24309e-07
1.24834e-07
1.25298e-07
1.25701e-07
1.26044e-07
1.26345e-07
1.26603e-07
1.26832e-07
1.2703e-07
1.2721e-07
1.27365e-07
1.27508e-07
1.27632e-07
1.27748e-07
1.27848e-07
1.27944e-07
1.28027e-07
1.28107e-07
1.28176e-07
1.28243e-07
1.28301e-07
1.28358e-07
1.28406e-07
1.28456e-07
1.28498e-07
1.2854e-07
1.28576e-07
1.28612e-07
1.28646e-07
1.28678e-07
1.28702e-07
1.2873e-07
1.28755e-07
1.28783e-07
1.28802e-07
1.28824e-07
1.28846e-07
1.28867e-07
1.28879e-07
1.28898e-07
1.28919e-07
1.28927e-07
1.28937e-07
1.28954e-07
1.28964e-07
1.28981e-07
1.28989e-07
1.29e-07
1.29014e-07
1.29024e-07
1.2903e-07
1.2904e-07
1.29051e-07
1.29052e-07
1.29053e-07
1.29076e-07
1.29089e-07
1.29083e-07
1.29099e-07
1.29115e-07
1.29146e-07
1.29152e-07
1.2918e-07
1.29198e-07
1.29216e-07
1.29231e-07
1.29242e-07
1.29265e-07
1.29274e-07
1.29296e-07
1.29304e-07
1.29314e-07
1.29329e-07
1.29347e-07
1.29364e-07
1.2938e-07
1.29404e-07
1.29416e-07
1.2944e-07
1.29456e-07
1.29486e-07
1.29505e-07
1.29545e-07
1.29571e-07
1.29619e-07
1.29649e-07
1.29711e-07
1.29744e-07
1.29864e-07
1.29888e-07
1.31722e-07
1.36134e-07
4.75942e-08
1.23797e-07
1.23443e-07
1.23758e-07
1.24277e-07
1.24797e-07
1.25258e-07
1.2566e-07
1.26003e-07
1.26304e-07
1.26561e-07
1.26791e-07
1.26989e-07
1.27169e-07
1.27325e-07
1.27468e-07
1.27593e-07
1.2771e-07
1.2781e-07
1.27906e-07
1.2799e-07
1.2807e-07
1.28139e-07
1.28207e-07
1.28265e-07
1.28322e-07
1.28371e-07
1.2842e-07
1.28463e-07
1.28505e-07
1.28542e-07
1.28578e-07
1.28612e-07
1.28644e-07
1.28669e-07
1.28696e-07
1.28722e-07
1.2875e-07
1.28769e-07
1.28792e-07
1.28813e-07
1.28835e-07
1.28847e-07
1.28866e-07
1.28887e-07
1.28896e-07
1.28905e-07
1.28922e-07
1.28933e-07
1.2895e-07
1.28958e-07
1.28969e-07
1.28983e-07
1.28994e-07
1.28999e-07
1.29009e-07
1.2902e-07
1.29022e-07
1.29022e-07
1.29046e-07
1.29059e-07
1.29054e-07
1.29069e-07
1.29085e-07
1.29117e-07
1.29122e-07
1.29151e-07
1.29168e-07
1.29187e-07
1.29202e-07
1.29213e-07
1.29236e-07
1.29245e-07
1.29267e-07
1.29276e-07
1.29286e-07
1.29301e-07
1.29319e-07
1.29336e-07
1.29352e-07
1.29376e-07
1.29388e-07
1.29412e-07
1.29428e-07
1.29458e-07
1.29477e-07
1.29517e-07
1.29542e-07
1.29591e-07
1.29621e-07
1.29682e-07
1.29715e-07
1.29836e-07
1.29858e-07
1.31769e-07
1.36158e-07
4.98461e-08
1.23797e-07
1.23431e-07
1.23733e-07
1.24243e-07
1.24758e-07
1.25217e-07
1.25617e-07
1.25959e-07
1.2626e-07
1.26518e-07
1.26748e-07
1.26946e-07
1.27127e-07
1.27282e-07
1.27427e-07
1.27551e-07
1.27669e-07
1.2777e-07
1.27866e-07
1.2795e-07
1.28031e-07
1.281e-07
1.28168e-07
1.28227e-07
1.28285e-07
1.28333e-07
1.28383e-07
1.28426e-07
1.28468e-07
1.28505e-07
1.28542e-07
1.28576e-07
1.28609e-07
1.28633e-07
1.28661e-07
1.28687e-07
1.28715e-07
1.28735e-07
1.28757e-07
1.28779e-07
1.28801e-07
1.28813e-07
1.28832e-07
1.28854e-07
1.28863e-07
1.28872e-07
1.28889e-07
1.289e-07
1.28917e-07
1.28926e-07
1.28937e-07
1.28951e-07
1.28962e-07
1.28967e-07
1.28977e-07
1.28988e-07
1.2899e-07
1.2899e-07
1.29014e-07
1.29027e-07
1.29022e-07
1.29038e-07
1.29054e-07
1.29085e-07
1.29091e-07
1.29119e-07
1.29137e-07
1.29156e-07
1.29171e-07
1.29182e-07
1.29205e-07
1.29215e-07
1.29237e-07
1.29246e-07
1.29256e-07
1.29271e-07
1.29289e-07
1.29306e-07
1.29322e-07
1.29346e-07
1.29358e-07
1.29382e-07
1.29398e-07
1.29428e-07
1.29448e-07
1.29487e-07
1.29513e-07
1.29561e-07
1.29591e-07
1.29652e-07
1.29684e-07
1.29806e-07
1.29828e-07
1.31817e-07
1.36181e-07
5.22009e-08
1.23799e-07
1.23419e-07
1.23707e-07
1.24207e-07
1.24718e-07
1.25173e-07
1.25572e-07
1.25914e-07
1.26214e-07
1.26472e-07
1.26702e-07
1.26901e-07
1.27082e-07
1.27238e-07
1.27383e-07
1.27508e-07
1.27626e-07
1.27727e-07
1.27824e-07
1.27908e-07
1.27989e-07
1.28059e-07
1.28128e-07
1.28187e-07
1.28245e-07
1.28294e-07
1.28344e-07
1.28387e-07
1.2843e-07
1.28467e-07
1.28504e-07
1.28538e-07
1.28571e-07
1.28596e-07
1.28624e-07
1.2865e-07
1.28678e-07
1.28698e-07
1.28721e-07
1.28743e-07
1.28765e-07
1.28777e-07
1.28797e-07
1.28818e-07
1.28828e-07
1.28837e-07
1.28854e-07
1.28865e-07
1.28883e-07
1.28891e-07