/*--------------------------------*- C++ -*----------------------------------*\
| =========                 |                                                 |
| \\      /  F ield         | OpenFOAM: The Open Source CFD Toolbox           |
|  \\    /   O peration     | Version:  v2012                                 |
|   \\  /    A nd           | Website:  www.openfoam.com                      |
|    \\/     M anipulation  |                                                 |
\*---------------------------------------------------------------------------*/
FoamFile
{
    version     2.0;
    format      ascii;
    class       volScalarField;
    location    "20";
    object      yPlus;
}
// * * * * * * * * * * * * * * * * * * * * * * * * * * * * * * * * * * * * * //

dimensions      [0 0 0 0 0 0 0];


internalField   uniform 0;

boundaryField
{
    inlet
    {
        type            calculated;
        value           uniform 0;
    }
    outlet
    {
        type            calculated;
        value           uniform 0;
    }
    topWall
    {
        type            calculated;
        value           nonuniform List<scalar> 
545
(
0.108116
0.186415
0.239161
0.28113
0.31665
0.347725
0.375477
0.400612
0.423611
0.444819
0.464496
0.482842
0.500016
0.516147
0.531342
0.54569
0.559268
0.572141
0.584365
0.595991
0.607062
0.617617
0.627691
0.637316
0.64652
0.655327
0.663763
0.671848
0.679602
0.687042
0.694187
0.70105
0.707647
0.71399
0.720093
0.725966
0.731621
0.737068
0.742316
0.747375
0.752252
0.756956
0.761494
0.765873
0.7701
0.774181
0.778123
0.781931
0.78561
0.789166
0.792602
0.795925
0.799139
0.802247
0.805254
0.808163
0.810978
0.813703
0.816341
0.818894
0.821367
0.823762
0.826082
0.82833
0.830507
0.832617
0.834661
0.836643
0.838564
0.840427
0.842232
0.843983
0.845659
0.847279
0.848887
0.850481
0.852063
0.853631
0.855186
0.856729
0.85826
0.859778
0.861283
0.862777
0.864258
0.865728
0.867186
0.868632
0.870066
0.871489
0.872901
0.874302
0.875691
0.877069
0.878437
0.879794
0.881014
0.882106
0.883197
0.884288
0.885378
0.886468
0.887558
0.888647
0.889736
0.890825
0.891913
0.893
0.894088
0.895174
0.896261
0.897346
0.898432
0.899517
0.900601
0.901685
0.902769
0.903852
0.904934
0.906016
0.907097
0.908178
0.909259
0.910338
0.911418
0.912496
0.913574
0.914652
0.915729
0.916805
0.917881
0.918956
0.92003
0.921104
0.922177
0.923249
0.924321
0.925392
0.926462
0.927532
0.928601
0.929669
0.930737
0.931803
0.932869
0.933935
0.934999
0.936063
0.937126
0.938188
0.939249
0.940309
0.941369
0.942428
0.943486
0.944543
0.945599
0.946654
0.947709
0.948762
0.949815
0.950866
0.951917
0.952967
0.954016
0.955063
0.95611
0.957156
0.958201
0.959245
0.960288
0.961329
0.96237
0.96341
0.964448
0.965486
0.966522
0.967557
0.968591
0.969624
0.970656
0.971687
0.972717
0.973745
0.974772
0.975798
0.976823
0.977846
0.978868
0.979889
0.980909
0.981928
0.982945
0.983961
0.984975
0.985988
0.987
0.988011
0.98902
0.990028
0.991034
0.992039
0.993042
0.994044
0.995045
0.996044
0.997042
0.998038
0.999033
1.00003
1.00102
1.00201
1.003
1.00398
1.00497
1.00595
1.00693
1.00791
1.00889
1.00987
1.01085
1.01182
1.01279
1.01376
1.01473
1.0157
1.01666
1.01763
1.01859
1.01955
1.02051
1.02146
1.02242
1.02337
1.02432
1.02527
1.02622
1.02716
1.0281
1.02905
1.02998
1.03092
1.03186
1.03279
1.03372
1.03465
1.03558
1.0365
1.03742
1.03835
1.03926
1.04018
1.0411
1.04201
1.04292
1.04383
1.04473
1.04563
1.04654
1.04743
1.04833
1.04923
1.05012
1.05101
1.05189
1.05278
1.05366
1.05454
1.05542
1.05625
1.05702
1.05781
1.0586
1.05939
1.06019
1.06099
1.0618
1.06261
1.06342
1.06425
1.06507
1.0659
1.06674
1.06758
1.06842
1.06927
1.07013
1.07099
1.07185
1.07272
1.07359
1.07446
1.07534
1.07623
1.07711
1.07801
1.0789
1.0798
1.0807
1.08161
1.08252
1.08344
1.08435
1.08528
1.0862
1.08713
1.08806
1.08899
1.08993
1.09087
1.09181
1.09276
1.0937
1.09465
1.09561
1.09656
1.09752
1.09848
1.09944
1.1004
1.10136
1.10232
1.10329
1.10426
1.10522
1.10619
1.10716
1.10813
1.1091
1.11007
1.11104
1.11201
1.11298
1.11394
1.11491
1.11588
1.11684
1.11781
1.11877
1.11973
1.12068
1.12164
1.12259
1.12354
1.12449
1.12543
1.12637
1.1273
1.12823
1.12916
1.13008
1.131
1.13191
1.13282
1.13372
1.13461
1.1355
1.13638
1.13726
1.13813
1.13899
1.13984
1.14068
1.14152
1.14234
1.14316
1.14397
1.14476
1.14555
1.14633
1.14709
1.14784
1.14859
1.14932
1.15003
1.15074
1.15143
1.15211
1.15277
1.15342
1.15405
1.15467
1.15528
1.15586
1.15643
1.15699
1.15753
1.15805
1.15855
1.15903
1.1595
1.15994
1.16037
1.16077
1.16116
1.16152
1.16187
1.16219
1.16249
1.16277
1.16302
1.16326
1.16346
1.16365
1.16381
1.16395
1.16406
1.16414
1.1642
1.16424
1.16424
1.16422
1.16418
1.16411
1.164
1.16388
1.16372
1.16353
1.16332
1.16307
1.1628
1.1625
1.16217
1.16181
1.16142
1.16099
1.16054
1.16006
1.15955
1.159
1.15843
1.15782
1.15718
1.15652
1.15582
1.15509
1.15433
1.15353
1.15271
1.15186
1.15097
1.15006
1.14911
1.14813
1.14712
1.14609
1.14502
1.14392
1.14279
1.14164
1.14032
1.13884
1.13734
1.13582
1.13428
1.13273
1.13116
1.12958
1.12798
1.12637
1.12475
1.12313
1.12149
1.11985
1.11821
1.11656
1.11491
1.11326
1.11161
1.10995
1.1083
1.10665
1.10501
1.10337
1.10173
1.1001
1.09848
1.09686
1.09525
1.09365
1.09206
1.09048
1.08892
1.08736
1.08582
1.08429
1.08277
1.08127
1.07978
1.07831
1.07685
1.07541
1.07399
1.07258
1.0712
1.06983
1.06848
1.06715
1.06584
1.06455
1.06328
1.06203
1.0608
1.0596
1.05842
1.05726
1.05612
1.05501
1.05392
1.05286
1.05182
1.0508
1.04982
1.04885
1.04791
1.047
1.04612
1.04526
1.04443
1.04363
1.04285
1.04211
1.04139
1.0407
1.04003
1.0394
1.0388
1.03822
1.03768
1.03716
1.03668
1.03622
1.0358
1.03541
1.03504
1.03471
1.03441
1.03414
1.0339
1.0337
1.03352
1.03337
1.03325
1.03318
1.03309
)
;
    }
    bottomWall
    {
        type            calculated;
        value           nonuniform List<scalar> 
449
(
0.139493
0.0889923
0.0758515
0.0695008
0.0653571
0.0623111
0.0599851
0.0583139
0.0574761
0.0579145
0.0612117
0.0651472
0.0677661
0.0691851
0.0699281
0.0703091
0.0704662
0.0704681
0.0703662
0.0702027
0.0699967
0.069768
0.0695284
0.0692855
0.0690437
0.0688057
0.0685727
0.0683461
0.0681264
0.0679138
0.0677084
0.0675099
0.0673181
0.0671326
0.0669533
0.0667792
0.0666104
0.0664466
0.0662875
0.0661328
0.0659822
0.0658353
0.0656921
0.0655521
0.0654154
0.0652815
0.0651502
0.0650207
0.064893
0.0647671
0.0646432
0.0645211
0.064401
0.0642827
0.0641664
0.0640518
0.0639392
0.0638282
0.063719
0.0636113
0.0635054
0.0634011
0.0632983
0.0631971
0.0630973
0.0629988
0.0629017
0.062806
0.0627117
0.0626187
0.062527
0.0624366
0.0623474
0.0622595
0.0621727
0.0620871
0.0620026
0.0619192
0.0618369
0.0617557
0.0616755
0.0615963
0.0615182
0.0614409
0.0613647
0.0612893
0.0612149
0.0611414
0.0610688
0.060997
0.060926
0.0608558
0.0607864
0.0607178
0.06065
0.0605829
0.0605166
0.0604509
0.0603861
0.0603219
0.0602585
0.0601957
0.0601336
0.0600721
0.0600114
0.0599512
0.0598916
0.0598327
0.0597744
0.0597167
0.0596595
0.0596029
0.0595469
0.0594914
0.0594365
0.0593821
0.0593282
0.0592749
0.059222
0.0591696
0.0591177
0.0590663
0.0590154
0.0589649
0.0589149
0.0588654
0.0588162
0.0587676
0.0587193
0.0586715
0.058624
0.0585771
0.0585304
0.0584842
0.0584383
0.0583929
0.0583477
0.0583031
0.0582587
0.0582148
0.0581711
0.0581279
0.058085
0.0580425
0.0580002
0.0579584
0.0579169
0.0578757
0.0578348
0.0577943
0.057754
0.0577141
0.0576745
0.0576352
0.0575961
0.0575575
0.057519
0.0574809
0.057443
0.0574055
0.0573681
0.0573311
0.0572943
0.0572578
0.0572215
0.0571855
0.0571498
0.0571143
0.0570791
0.0570441
0.0570094
0.0569748
0.0569406
0.0569085
0.0568783
0.0568479
0.0568174
0.0567869
0.0567563
0.0567256
0.0566948
0.056664
0.0566331
0.0566022
0.0565712
0.0565402
0.0565091
0.056478
0.0564469
0.0564156
0.0563844
0.0563531
0.0563218
0.0562905
0.0562591
0.0562277
0.0561962
0.0561648
0.0561333
0.0561018
0.0560702
0.0560386
0.0560071
0.0559755
0.0559439
0.0559124
0.0558808
0.0558493
0.0558177
0.0557862
0.0557546
0.0557231
0.0556916
0.0556602
0.0556287
0.0555973
0.0555659
0.0555344
0.0555031
0.0554717
0.0554404
0.0554091
0.0553778
0.0553465
0.0553153
0.0552841
0.055253
0.0552219
0.0551909
0.0551599
0.0551289
0.055098
0.0550672
0.0550364
0.0550056
0.054975
0.0549444
0.0549139
0.0548834
0.054853
0.0548227
0.0547925
0.0547623
0.0547322
0.0547022
0.0546722
0.0546423
0.0546125
0.0545828
0.0545532
0.0545237
0.0544943
0.054465
0.0544358
0.0544066
0.0543776
0.0543486
0.0543198
0.054291
0.0542624
0.0542339
0.0542055
0.0541772
0.054149
0.0541208
0.0540929
0.054065
0.0540372
0.0540094
0.0539818
0.0539543
0.0539269
0.0538995
0.0538723
0.0538452
0.0538182
0.0537913
0.0537646
0.0537379
0.0537113
0.0536849
0.0536586
0.0536323
0.0536062
0.0535801
0.0535542
0.0535283
0.0535025
0.0534768
0.0534512
0.0534257
0.0534003
0.053375
0.0533499
0.0533248
0.0532998
0.0532749
0.0532501
0.0532254
0.0532008
0.0531762
0.0531518
0.0531274
0.0531031
0.0530789
0.0530547
0.0530307
0.0530067
0.0529827
0.0529588
0.0529351
0.0529114
0.0528878
0.0528643
0.0528408
0.0528175
0.0527942
0.0527711
0.052748
0.052725
0.0527021
0.0526793
0.0526566
0.052634
0.0526115
0.0525891
0.0525667
0.0525445
0.0525223
0.0525002
0.0524781
0.0524562
0.0524342
0.0524125
0.0523907
0.052369
0.0523474
0.0523259
0.0523043
0.052283
0.0522616
0.0522404
0.0522191
0.052198
0.0521768
0.0521559
0.0521347
0.0521138
0.0520928
0.052072
0.0520512
0.0520305
0.05201
0.0519894
0.051967
0.0519428
0.0519193
0.0518961
0.0518735
0.0518511
0.0518291
0.0518073
0.0517859
0.0517646
0.0517437
0.051723
0.0517027
0.0516826
0.0516629
0.0516434
0.0516243
0.0516054
0.0515867
0.0515683
0.0515501
0.0515321
0.0515144
0.0514969
0.0514797
0.0514626
0.0514458
0.0514291
0.0514127
0.0513965
0.0513805
0.0513648
0.0513492
0.0513338
0.0513186
0.0513035
0.0512886
0.0512738
0.0512592
0.0512448
0.0512306
0.0512164
0.0512026
0.0511889
0.0511754
0.051162
0.0511488
0.0511357
0.0511227
0.0511096
0.0510967
0.0510837
0.0510711
0.0510583
0.0510457
0.0510331
0.0510208
0.0510083
0.0509961
0.050984
0.0509721
0.0509603
0.0509488
0.0509372
0.0509258
0.0509144
0.0509031
0.050892
0.050881
0.0508701
0.0508593
0.0508488
0.050838
0.0508276
0.050817
0.0508066
0.0507961
0.0507857
0.0507754
0.0507651
0.0507549
0.0507448
0.0507348
0.0507247
0.0507149
0.0507049
0.0506952
0.0506855
0.0506756
0.0506666
0.0506554
0.0506496
0.0506327
0.0506375
0.0506148
)
;
    }
    symmetry
    {
        type            symmetryPlane;
    }
    frontAndBack
    {
        type            empty;
    }
}


// ************************************************************************* //
