/*--------------------------------*- C++ -*----------------------------------*\
| =========                 |                                                 |
| \\      /  F ield         | OpenFOAM: The Open Source CFD Toolbox           |
|  \\    /   O peration     | Version:  v2012                                 |
|   \\  /    A nd           | Website:  www.openfoam.com                      |
|    \\/     M anipulation  |                                                 |
\*---------------------------------------------------------------------------*/
FoamFile
{
    version     2.0;
    format      ascii;
    class       volScalarField;
    location    "31";
    object      epsilon;
}
// * * * * * * * * * * * * * * * * * * * * * * * * * * * * * * * * * * * * * //

dimensions      [0 2 -3 0 0 0 0];


internalField   nonuniform List<scalar> 
209825
(
0.755395
0.642893
0.576399
0.535902
0.509611
0.491535
0.478462
0.468692
0.461126
0.455171
0.450342
0.446406
0.443106
0.440347
0.437971
0.435955
0.43418
0.432658
0.43129
0.430108
0.429028
0.428089
0.427218
0.426464
0.425754
0.425138
0.42455
0.424046
0.423559
0.423137
0.422726
0.422381
0.422039
0.42175
0.421459
0.421225
0.42098
0.420776
0.420568
0.420402
0.420229
0.420103
0.419958
0.41984
0.41972
0.419642
0.419535
0.419456
0.419385
0.419336
0.419238
0.419199
0.419176
0.419155
0.419131
0.419067
0.419113
0.419172
0.419172
0.419287
0.419315
0.419315
0.419391
0.419457
0.419546
0.419677
0.419794
0.419893
0.419995
0.420137
0.42025
0.420421
0.420563
0.420756
0.420895
0.421121
0.421254
0.421524
0.421676
0.421991
0.422169
0.422539
0.422743
0.423168
0.423407
0.423904
0.424187
0.424783
0.425123
0.425874
0.426267
0.427468
0.427801
0.433653
3.03331
557.74
0.755396
0.64289
0.576392
0.53589
0.509595
0.491516
0.478442
0.46867
0.461102
0.455147
0.450316
0.44638
0.44308
0.44032
0.437943
0.435928
0.434152
0.43263
0.431261
0.430079
0.428999
0.42806
0.427188
0.426435
0.425725
0.425109
0.42452
0.424016
0.423529
0.423107
0.422696
0.422351
0.422009
0.42172
0.421429
0.421195
0.420949
0.420745
0.420537
0.420371
0.420198
0.420072
0.419927
0.41981
0.419689
0.419611
0.419505
0.419425
0.419354
0.419306
0.419208
0.419168
0.419145
0.419124
0.4191
0.419036
0.419082
0.419141
0.419141
0.419256
0.419284
0.419284
0.41936
0.419426
0.419515
0.419645
0.419763
0.419862
0.419963
0.420106
0.420219
0.42039
0.420532
0.420724
0.420864
0.42109
0.421223
0.421492
0.421645
0.42196
0.422137
0.422507
0.422711
0.423137
0.423375
0.423873
0.424155
0.424751
0.425091
0.425843
0.426235
0.427436
0.427769
0.43363
3.03815
554.414
0.755399
0.642876
0.576355
0.535835
0.509526
0.491436
0.478353
0.468575
0.461003
0.455043
0.45021
0.446271
0.442968
0.440206
0.437828
0.435811
0.434035
0.432511
0.431142
0.429959
0.428877
0.427938
0.427066
0.426312
0.425601
0.424985
0.424396
0.423891
0.423404
0.422981
0.42257
0.422225
0.421883
0.421593
0.421302
0.421068
0.420822
0.420618
0.42041
0.420243
0.42007
0.419944
0.419799
0.419681
0.41956
0.419483
0.419376
0.419296
0.419225
0.419177
0.419078
0.419039
0.419016
0.418994
0.41897
0.418907
0.418952
0.419012
0.419012
0.419126
0.419154
0.419154
0.41923
0.419296
0.419384
0.419515
0.419632
0.419732
0.419833
0.419975
0.420088
0.420259
0.420401
0.420593
0.420733
0.420959
0.421092
0.421361
0.421513
0.421828
0.422005
0.422375
0.422579
0.423004
0.423243
0.42374
0.424023
0.424618
0.424958
0.425709
0.426101
0.427302
0.427634
0.433513
3.04805
550.479
0.755404
0.642852
0.576294
0.535741
0.509408
0.4913
0.478204
0.468415
0.460835
0.454869
0.45003
0.446087
0.44278
0.440015
0.437634
0.435615
0.433836
0.432311
0.43094
0.429755
0.428673
0.427732
0.426859
0.426104
0.425393
0.424775
0.424186
0.423681
0.423193
0.422769
0.422358
0.422012
0.421669
0.421379
0.421088
0.420853
0.420607
0.420403
0.420194
0.420028
0.419854
0.419728
0.419582
0.419465
0.419344
0.419266
0.419159
0.419079
0.419007
0.418959
0.418861
0.418821
0.418798
0.418776
0.418752
0.418688
0.418734
0.418792
0.418792
0.418906
0.418934
0.418934
0.41901
0.419076
0.419164
0.419295
0.419412
0.419511
0.419613
0.419755
0.419867
0.420038
0.420179
0.420372
0.420512
0.420737
0.42087
0.421139
0.421291
0.421606
0.421783
0.422153
0.422356
0.422781
0.423019
0.423516
0.423798
0.424393
0.424733
0.425483
0.425875
0.427075
0.427405
0.433311
3.06348
546.715
0.755411
0.642818
0.576206
0.535609
0.509242
0.491109
0.477993
0.46819
0.460598
0.454622
0.449775
0.445826
0.442514
0.439745
0.43736
0.435337
0.433556
0.432028
0.430654
0.429468
0.428384
0.427441
0.426567
0.425811
0.425098
0.42448
0.423889
0.423383
0.422895
0.42247
0.422058
0.421711
0.421368
0.421078
0.420785
0.42055
0.420304
0.420099
0.41989
0.419723
0.419549
0.419422
0.419276
0.419158
0.419037
0.418959
0.418852
0.418772
0.4187
0.418651
0.418553
0.418513
0.41849
0.418468
0.418443
0.418379
0.418425
0.418483
0.418483
0.418596
0.418624
0.418624
0.4187
0.418766
0.418854
0.418984
0.419101
0.4192
0.419301
0.419443
0.419555
0.419726
0.419867
0.42006
0.420199
0.420424
0.420557
0.420826
0.420978
0.421292
0.421469
0.421838
0.422041
0.422465
0.422703
0.423199
0.423481
0.424075
0.424415
0.425163
0.425555
0.426754
0.427081
0.433026
3.08487
543.466
0.75542
0.642774
0.576093
0.535437
0.509026
0.49086
0.477719
0.467897
0.46029
0.454302
0.449446
0.445488
0.442169
0.439394
0.437004
0.434977
0.433192
0.431661
0.430284
0.429095
0.428009
0.427065
0.426188
0.42543
0.424716
0.424096
0.423505
0.422997
0.422507
0.422082
0.421668
0.421321
0.420977
0.420686
0.420393
0.420157
0.41991
0.419705
0.419495
0.419328
0.419153
0.419026
0.41888
0.418762
0.41864
0.418561
0.418454
0.418373
0.418301
0.418252
0.418154
0.418113
0.41809
0.418068
0.418043
0.417979
0.418024
0.418081
0.418081
0.418194
0.418222
0.418222
0.418297
0.418363
0.418451
0.418581
0.418698
0.418797
0.418897
0.419039
0.419151
0.419321
0.419462
0.419654
0.419793
0.420018
0.420151
0.420419
0.420571
0.420884
0.421061
0.421429
0.421632
0.422056
0.422294
0.422789
0.42307
0.423663
0.424002
0.424749
0.425139
0.426337
0.426661
0.432655
3.11266
540.897
0.755431
0.64272
0.575953
0.535226
0.50876
0.490553
0.477383
0.467536
0.45991
0.453908
0.449039
0.445072
0.441744
0.438962
0.436566
0.434534
0.432744
0.431208
0.429829
0.428636
0.427547
0.4266
0.425721
0.424961
0.424245
0.423624
0.42303
0.422521
0.42203
0.421604
0.421189
0.420841
0.420496
0.420203
0.419909
0.419673
0.419425
0.419219
0.419009
0.418841
0.418666
0.418538
0.418391
0.418272
0.41815
0.418071
0.417963
0.417882
0.41781
0.417761
0.417662
0.417621
0.417597
0.417575
0.41755
0.417485
0.41753
0.417586
0.417586
0.417699
0.417726
0.417726
0.417801
0.417867
0.417954
0.418084
0.4182
0.418299
0.418399
0.418541
0.418652
0.418823
0.418963
0.419155
0.419293
0.419518
0.41965
0.419918
0.420069
0.420382
0.420558
0.420926
0.421129
0.421551
0.421788
0.422282
0.422563
0.423155
0.423493
0.424239
0.424628
0.425824
0.426144
0.432198
3.14728
539.064
0.755444
0.642656
0.575788
0.534974
0.508444
0.490189
0.476981
0.467107
0.459459
0.453438
0.448555
0.444576
0.441238
0.438447
0.436044
0.434005
0.43221
0.43067
0.429285
0.428089
0.426997
0.426047
0.425165
0.424402
0.423684
0.423061
0.422465
0.421955
0.421462
0.421034
0.420618
0.420268
0.419922
0.419629
0.419333
0.419096
0.418847
0.41864
0.418429
0.41826
0.418085
0.417956
0.417809
0.417689
0.417567
0.417487
0.417379
0.417297
0.417224
0.417175
0.417076
0.417035
0.41701
0.416988
0.416963
0.416897
0.416941
0.416996
0.416996
0.417108
0.417135
0.417135
0.417211
0.417275
0.417362
0.417491
0.417608
0.417707
0.417806
0.417947
0.418058
0.418228
0.418368
0.418559
0.418697
0.418922
0.419053
0.419321
0.419472
0.419784
0.419959
0.420326
0.420528
0.42095
0.421187
0.421679
0.42196
0.42255
0.422886
0.42363
0.424018
0.425212
0.425528
0.431655
3.18917
537.955
0.755459
0.642582
0.575596
0.534683
0.508077
0.489766
0.476516
0.466608
0.458934
0.452893
0.447993
0.443999
0.44065
0.437849
0.435437
0.433391
0.431589
0.430043
0.428654
0.427453
0.426357
0.425403
0.424518
0.423753
0.423032
0.422406
0.421808
0.421295
0.420801
0.420371
0.419953
0.419602
0.419254
0.41896
0.418663
0.418425
0.418175
0.417967
0.417755
0.417586
0.417409
0.41728
0.417131
0.417011
0.416888
0.416808
0.416699
0.416617
0.416543
0.416494
0.416395
0.416352
0.416328
0.416304
0.416279
0.416213
0.416257
0.41631
0.41631
0.416422
0.416448
0.416448
0.416523
0.416588
0.416674
0.416802
0.416918
0.417017
0.417116
0.417257
0.417367
0.417537
0.417676
0.417867
0.418004
0.418229
0.418359
0.418626
0.418777
0.419088
0.419263
0.419629
0.41983
0.420251
0.420486
0.420978
0.421257
0.421846
0.422181
0.422923
0.423309
0.424501
0.424811
0.431024
3.23873
537.507
0.755477
0.642499
0.575378
0.534352
0.507659
0.489283
0.475984
0.466039
0.458335
0.45227
0.44735
0.443341
0.439978
0.437165
0.434744
0.432689
0.43088
0.429328
0.427933
0.426727
0.425626
0.424668
0.42378
0.423011
0.422286
0.421658
0.421058
0.420543
0.420046
0.419614
0.419194
0.418842
0.418492
0.418196
0.417898
0.417659
0.417407
0.417198
0.416985
0.416815
0.416637
0.416507
0.416358
0.416237
0.416113
0.416032
0.415922
0.41584
0.415765
0.415716
0.415616
0.415573
0.415548
0.415524
0.415498
0.415431
0.415475
0.415527
0.415527
0.415637
0.415663
0.415663
0.415738
0.415802
0.415888
0.416015
0.416131
0.41623
0.416328
0.416468
0.416578
0.416747
0.416885
0.417076
0.417213
0.417437
0.417567
0.417832
0.417983
0.418292
0.418467
0.418832
0.419033
0.419452
0.419687
0.420176
0.420455
0.421041
0.421375
0.422114
0.422498
0.423688
0.423993
0.430305
3.29635
537.62
0.755497
0.642406
0.575134
0.533979
0.507189
0.488741
0.475387
0.465399
0.457661
0.451569
0.446628
0.4426
0.439222
0.436396
0.433964
0.4319
0.430082
0.428522
0.427121
0.425909
0.424803
0.423841
0.422948
0.422175
0.421447
0.420816
0.420213
0.419695
0.419196
0.418762
0.41834
0.417985
0.417634
0.417336
0.417037
0.416795
0.416543
0.416333
0.416118
0.415946
0.415768
0.415636
0.415486
0.415365
0.41524
0.415158
0.415048
0.414965
0.414889
0.414839
0.414739
0.414695
0.414669
0.414645
0.414619
0.414551
0.414594
0.414644
0.414644
0.414754
0.414779
0.414779
0.414854
0.414917
0.415002
0.415129
0.415244
0.415343
0.41544
0.41558
0.415689
0.415857
0.415995
0.416185
0.416321
0.416544
0.416674
0.416939
0.417088
0.417397
0.417571
0.417934
0.418134
0.418552
0.418786
0.419274
0.419551
0.420135
0.420468
0.421204
0.421586
0.422773
0.423071
0.429497
3.36238
538.167
0.755519
0.642303
0.574864
0.533567
0.506668
0.488138
0.474722
0.464687
0.456912
0.45079
0.445824
0.441775
0.43838
0.43554
0.433095
0.43102
0.429193
0.427625
0.426217
0.424999
0.423887
0.422919
0.422022
0.421245
0.420513
0.419878
0.419272
0.418751
0.418249
0.417813
0.417388
0.417031
0.416678
0.416379
0.416077
0.415834
0.41558
0.415369
0.415153
0.41498
0.4148
0.414667
0.414516
0.414394
0.414267
0.414185
0.414074
0.41399
0.413914
0.413863
0.413763
0.413718
0.413691
0.413667
0.41364
0.413571
0.413614
0.413662
0.413661
0.41377
0.413794
0.413794
0.413869
0.413932
0.414016
0.414142
0.414256
0.414356
0.414452
0.414591
0.414699
0.414867
0.415003
0.415193
0.415328
0.415551
0.41568
0.415944
0.416092
0.4164
0.416573
0.416935
0.417134
0.41755
0.417783
0.418269
0.418545
0.419126
0.419458
0.420191
0.42057
0.421754
0.422045
0.428599
3.43711
539.013
0.755544
0.642191
0.574568
0.533113
0.506095
0.487475
0.473991
0.463903
0.456086
0.44993
0.444937
0.440866
0.437452
0.434596
0.432138
0.430051
0.428214
0.426636
0.42522
0.423995
0.422876
0.421903
0.421001
0.420219
0.419483
0.418844
0.418234
0.41771
0.417205
0.416766
0.416339
0.41598
0.415624
0.415322
0.415019
0.414774
0.414518
0.414305
0.414088
0.413913
0.413732
0.413598
0.413446
0.413323
0.413195
0.413111
0.413
0.412915
0.412838
0.412786
0.412686
0.41264
0.412612
0.412587
0.41256
0.41249
0.412532
0.412578
0.412577
0.412685
0.412708
0.412708
0.412783
0.412845
0.412928
0.413053
0.413167
0.413266
0.413361
0.413499
0.413607
0.413774
0.413909
0.414099
0.414233
0.414455
0.414583
0.414846
0.414994
0.4153
0.415472
0.415832
0.41603
0.416444
0.416677
0.41716
0.417435
0.418013
0.418343
0.419072
0.419449
0.42063
0.420913
0.42761
3.52078
540.01
0.755572
0.64207
0.574247
0.532619
0.505469
0.486751
0.473192
0.463046
0.455183
0.448991
0.443968
0.439872
0.436437
0.433564
0.43109
0.42899
0.427141
0.425554
0.424129
0.422896
0.42177
0.420791
0.419883
0.419096
0.418355
0.417712
0.417098
0.416571
0.416062
0.41562
0.41519
0.414828
0.41447
0.414166
0.413861
0.413614
0.413356
0.413141
0.412922
0.412746
0.412563
0.412428
0.412274
0.41215
0.412021
0.411936
0.411824
0.411739
0.41166
0.411608
0.411507
0.41146
0.411431
0.411405
0.411378
0.411307
0.411348
0.411391
0.411391
0.411497
0.41152
0.41152
0.411594
0.411655
0.411738
0.411861
0.411974
0.412073
0.412167
0.412305
0.412412
0.412577
0.412712
0.412901
0.413034
0.413255
0.413383
0.413644
0.413791
0.414095
0.414267
0.414625
0.414822
0.415234
0.415465
0.415946
0.41622
0.416795
0.417123
0.417848
0.418222
0.4194
0.419674
0.426529
3.61355
541.01
0.755601
0.64194
0.573899
0.532085
0.504791
0.485965
0.472325
0.462115
0.454203
0.447971
0.442915
0.438792
0.435334
0.432442
0.429951
0.427837
0.425976
0.424378
0.422943
0.421702
0.420568
0.419582
0.418668
0.417875
0.41713
0.416482
0.415864
0.415332
0.41482
0.414374
0.413941
0.413576
0.413215
0.412909
0.412601
0.412352
0.412092
0.411876
0.411655
0.411477
0.411292
0.411156
0.411001
0.410875
0.410745
0.410659
0.410545
0.410459
0.410379
0.410327
0.410225
0.410177
0.410147
0.41012
0.410093
0.41002
0.41006
0.410101
0.4101
0.410205
0.410227
0.410227
0.410301
0.410361
0.410443
0.410565
0.410677
0.410777
0.410869
0.411006
0.411112
0.411277
0.41141
0.411598
0.41173
0.41195
0.412077
0.412337
0.412483
0.412786
0.412956
0.413312
0.413509
0.413918
0.414148
0.414626
0.414898
0.41547
0.415796
0.416517
0.416888
0.418063
0.418328
0.425356
3.71547
541.872
0.755634
0.641802
0.573527
0.53151
0.504061
0.485118
0.471389
0.461111
0.453145
0.446869
0.441777
0.437625
0.434143
0.431229
0.428721
0.426592
0.424717
0.423107
0.421661
0.420411
0.419269
0.418276
0.417355
0.416556
0.415805
0.415152
0.414529
0.413993
0.413477
0.413028
0.412591
0.412223
0.411859
0.41155
0.41124
0.410988
0.410726
0.410508
0.410285
0.410105
0.409919
0.40978
0.409624
0.409497
0.409365
0.409278
0.409163
0.409076
0.408994
0.408941
0.408839
0.40879
0.408759
0.408731
0.408703
0.408629
0.408668
0.408706
0.408705
0.408808
0.40883
0.40883
0.408903
0.408962
0.409043
0.409163
0.409275
0.409374
0.409466
0.409602
0.409706
0.40987
0.410002
0.410189
0.41032
0.41054
0.410666
0.410924
0.411069
0.41137
0.411539
0.411893
0.412088
0.412496
0.412724
0.413199
0.41347
0.414038
0.414362
0.415079
0.415446
0.416617
0.416872
0.424088
3.82648
542.463
0.755669
0.641656
0.573129
0.530895
0.503279
0.48421
0.470385
0.460033
0.452008
0.445685
0.440555
0.436371
0.432862
0.429926
0.427398
0.425252
0.423363
0.42174
0.420283
0.419023
0.417872
0.416871
0.415942
0.415137
0.41438
0.413721
0.413093
0.412553
0.412032
0.411579
0.411139
0.410768
0.4104
0.410089
0.409775
0.409521
0.409257
0.409036
0.408811
0.40863
0.408441
0.408301
0.408142
0.408014
0.407881
0.407792
0.407676
0.407588
0.407505
0.407451
0.407348
0.407297
0.407265
0.407236
0.407208
0.407133
0.407171
0.407206
0.407205
0.407306
0.407326
0.407326
0.407399
0.407457
0.407537
0.407656
0.407767
0.407866
0.407956
0.408091
0.408194
0.408357
0.408488
0.408674
0.408804
0.409022
0.409147
0.409403
0.409548
0.409847
0.410015
0.410366
0.41056
0.410965
0.411192
0.411664
0.411933
0.412497
0.412818
0.413531
0.413895
0.415061
0.415306
0.422725
3.94637
542.66
0.755706
0.641501
0.572707
0.53024
0.502444
0.48324
0.469312
0.45888
0.450792
0.444418
0.439247
0.435029
0.431491
0.428531
0.425983
0.423819
0.421914
0.420277
0.418808
0.417537
0.416376
0.415366
0.41443
0.413618
0.412854
0.412189
0.411556
0.411011
0.410485
0.410028
0.409584
0.409209
0.408838
0.408524
0.408207
0.40795
0.407683
0.40746
0.407233
0.407049
0.406858
0.406716
0.406556
0.406426
0.406291
0.406201
0.406084
0.405994
0.405909
0.405855
0.405751
0.405699
0.405666
0.405636
0.405606
0.40553
0.405567
0.405599
0.405597
0.405697
0.405716
0.405716
0.405788
0.405845
0.405924
0.406041
0.406151
0.40625
0.406338
0.406472
0.406575
0.406736
0.406866
0.407051
0.407179
0.407397
0.40752
0.407775
0.407918
0.408215
0.408382
0.408731
0.408924
0.409325
0.409551
0.41002
0.410286
0.410847
0.411166
0.411873
0.412233
0.413395
0.41363
0.421267
4.07477
542.36
0.755747
0.641339
0.572261
0.529545
0.501558
0.482209
0.468171
0.457653
0.449497
0.443069
0.437854
0.433599
0.430031
0.427044
0.424474
0.42229
0.420368
0.418717
0.417235
0.415952
0.414781
0.413762
0.412817
0.411997
0.411226
0.410556
0.409916
0.409366
0.408836
0.408374
0.407926
0.407547
0.407172
0.406854
0.406534
0.406274
0.406004
0.405779
0.405549
0.405363
0.40517
0.405026
0.404864
0.404733
0.404595
0.404503
0.404385
0.404294
0.404208
0.404152
0.404048
0.403994
0.403959
0.403928
0.403898
0.403821
0.403855
0.403885
0.403883
0.40398
0.403998
0.403998
0.40407
0.404125
0.404203
0.404318
0.404427
0.404526
0.404613
0.404746
0.404847
0.405007
0.405135
0.405319
0.405446
0.405662
0.405785
0.406038
0.40618
0.406474
0.40664
0.406986
0.407178
0.407576
0.4078
0.408266
0.40853
0.409086
0.409402
0.410104
0.41046
0.411618
0.411842
0.41971
4.21111
541.466
0.75579
0.641169
0.57179
0.528811
0.50062
0.481117
0.46696
0.456351
0.448123
0.441637
0.436374
0.43208
0.428479
0.425465
0.42287
0.420666
0.418726
0.41706
0.415563
0.414268
0.413086
0.412057
0.411103
0.410275
0.409497
0.408819
0.408174
0.407617
0.407082
0.406616
0.406163
0.40578
0.405401
0.405079
0.404756
0.404493
0.40422
0.403992
0.403759
0.403571
0.403375
0.403229
0.403065
0.402932
0.402792
0.402699
0.402579
0.402487
0.402398
0.402342
0.402237
0.402181
0.402145
0.402113
0.402082
0.402003
0.402036
0.402063
0.40206
0.402156
0.402172
0.402172
0.402243
0.402297
0.402373
0.402487
0.402595
0.402694
0.402778
0.40291
0.40301
0.403169
0.403295
0.403478
0.403603
0.403818
0.40394
0.404191
0.404331
0.404624
0.404788
0.405131
0.405321
0.405717
0.405939
0.4064
0.406663
0.407214
0.407528
0.408224
0.408576
0.409729
0.409941
0.418055
4.35462
539.899
0.755836
0.640993
0.571297
0.528039
0.49963
0.479963
0.465681
0.454975
0.44667
0.440122
0.434809
0.430473
0.426836
0.423793
0.421173
0.418947
0.416987
0.415304
0.413793
0.412484
0.411291
0.410251
0.409287
0.408451
0.407664
0.40698
0.406328
0.405765
0.405224
0.404753
0.404295
0.403907
0.403524
0.403199
0.402872
0.402606
0.40233
0.402099
0.401863
0.401672
0.401474
0.401325
0.401159
0.401024
0.400882
0.400787
0.400665
0.400572
0.400481
0.400423
0.400318
0.400261
0.400223
0.400189
0.400158
0.400078
0.400109
0.400133
0.400128
0.400222
0.400237
0.400237
0.400307
0.400359
0.400434
0.400546
0.400653
0.400751
0.400834
0.400965
0.401063
0.40122
0.401345
0.401527
0.401651
0.401864
0.401985
0.402233
0.402373
0.402662
0.402825
0.403165
0.403354
0.403746
0.403966
0.404424
0.404684
0.40523
0.405541
0.406231
0.406579
0.407727
0.407928
0.416299
4.50426
537.597
0.755885
0.640811
0.570781
0.527228
0.49859
0.478749
0.464334
0.453524
0.445138
0.438524
0.433157
0.428776
0.425103
0.422028
0.41938
0.417131
0.415151
0.41345
0.411923
0.410601
0.409394
0.408343
0.40737
0.406524
0.405729
0.405037
0.404378
0.403809
0.403262
0.402785
0.402322
0.40193
0.401542
0.401213
0.400882
0.400612
0.400332
0.400098
0.399859
0.399666
0.399465
0.399313
0.399145
0.399008
0.398864
0.398767
0.398644
0.398548
0.398456
0.398397
0.39829
0.398231
0.398191
0.398157
0.398124
0.398043
0.398072
0.398093
0.398087
0.398178
0.398192
0.398192
0.398261
0.398312
0.398386
0.398495
0.398601
0.398699
0.39878
0.398909
0.399006
0.399162
0.399285
0.399465
0.399587
0.3998
0.399918
0.400165
0.400303
0.40059
0.400751
0.401088
0.401275
0.401663
0.401881
0.402335
0.402593
0.403134
0.403442
0.404126
0.404469
0.405612
0.4058
0.41444
4.65875
534.512
0.755936
0.640622
0.570244
0.52638
0.4975
0.477474
0.462918
0.451999
0.443526
0.436842
0.431418
0.426991
0.423278
0.420169
0.417493
0.415219
0.413218
0.411497
0.409953
0.408616
0.407397
0.406334
0.405349
0.404494
0.40369
0.40299
0.402323
0.401748
0.401194
0.400712
0.400243
0.399846
0.399453
0.39912
0.398785
0.398511
0.398228
0.39799
0.397748
0.397552
0.397348
0.397194
0.397023
0.396884
0.396738
0.396638
0.396513
0.396416
0.396322
0.396261
0.396153
0.396093
0.396051
0.396015
0.395981
0.395899
0.395926
0.395943
0.395936
0.396025
0.396037
0.396037
0.396105
0.396154
0.396227
0.396334
0.396438
0.396536
0.396615
0.396743
0.396838
0.396992
0.397113
0.397292
0.397413
0.397623
0.397741
0.397985
0.398121
0.398405
0.398565
0.398898
0.399084
0.399469
0.399685
0.400134
0.400389
0.400925
0.401229
0.401907
0.402245
0.403383
0.403559
0.412476
4.81651
530.604
0.755991
0.640428
0.569685
0.525495
0.49636
0.476139
0.461435
0.4504
0.441835
0.435078
0.429593
0.425116
0.421361
0.418217
0.415511
0.41321
0.411186
0.409446
0.407884
0.406532
0.405298
0.404223
0.403227
0.402361
0.401548
0.400839
0.400164
0.399581
0.399021
0.398533
0.398058
0.397656
0.397258
0.39692
0.39658
0.396303
0.396016
0.395775
0.39553
0.39533
0.395123
0.394966
0.394792
0.394651
0.394502
0.3944
0.394274
0.394175
0.394078
0.394016
0.393907
0.393845
0.393801
0.393763
0.393729
0.393645
0.393669
0.393684
0.393675
0.393761
0.393772
0.393772
0.393839
0.393885
0.393957
0.394062
0.394165
0.394263
0.394339
0.394465
0.394559
0.394711
0.39483
0.395008
0.395127
0.395335
0.395452
0.395693
0.395828
0.396109
0.396267
0.396597
0.39678
0.397161
0.397375
0.39782
0.398072
0.398603
0.398904
0.399574
0.399908
0.401039
0.401204
0.410407
4.97566
525.845
0.756048
0.640229
0.569106
0.524574
0.495171
0.474746
0.459884
0.448727
0.440065
0.43323
0.427683
0.423152
0.419353
0.416172
0.413434
0.411106
0.409057
0.407296
0.405716
0.404346
0.403098
0.402009
0.401001
0.400124
0.399301
0.398584
0.397901
0.39731
0.396743
0.396248
0.395767
0.395359
0.394956
0.394614
0.394269
0.393987
0.393696
0.393452
0.393203
0.393
0.392789
0.39263
0.392453
0.39231
0.392158
0.392054
0.391925
0.391824
0.391725
0.391661
0.391552
0.391487
0.391441
0.391401
0.391366
0.391281
0.391303
0.391314
0.391304
0.391387
0.391396
0.391396
0.391462
0.391506
0.391577
0.391679
0.39178
0.391878
0.391952
0.392076
0.392168
0.392319
0.392436
0.392612
0.392729
0.392935
0.39305
0.393289
0.393422
0.3937
0.393856
0.394182
0.394364
0.394741
0.394952
0.395392
0.395642
0.396167
0.396464
0.397127
0.397456
0.398581
0.398733
0.408228
5.13401
520.215
0.756108
0.640025
0.568507
0.523619
0.493933
0.473294
0.458267
0.446981
0.438218
0.431301
0.425686
0.4211
0.417255
0.414034
0.411262
0.408905
0.406831
0.405047
0.403447
0.40206
0.400796
0.399694
0.398673
0.397785
0.396951
0.396224
0.395532
0.394933
0.394359
0.393857
0.39337
0.392956
0.392548
0.3922
0.39185
0.391564
0.391268
0.391021
0.390768
0.390562
0.390347
0.390184
0.390005
0.389859
0.389704
0.389598
0.389467
0.389364
0.389262
0.389196
0.389086
0.389019
0.388971
0.38893
0.388894
0.388807
0.388826
0.388834
0.388822
0.388902
0.38891
0.388909
0.388974
0.389016
0.389085
0.389185
0.389284
0.389381
0.389453
0.389576
0.389666
0.389815
0.389929
0.390104
0.390218
0.390423
0.390536
0.390772
0.390904
0.391179
0.391333
0.391655
0.391835
0.392207
0.392416
0.392851
0.393098
0.393617
0.39391
0.394566
0.394889
0.396009
0.396149
0.405937
5.28906
513.699
0.756171
0.639818
0.567889
0.522629
0.492649
0.471784
0.456584
0.445163
0.436293
0.429289
0.423604
0.41896
0.415065
0.411803
0.408995
0.406607
0.404507
0.4027
0.401079
0.399674
0.398393
0.397276
0.396242
0.395342
0.394497
0.39376
0.393059
0.392452
0.391869
0.391361
0.390867
0.390446
0.390032
0.389679
0.389324
0.389033
0.388733
0.388481
0.388224
0.388015
0.387797
0.387631
0.387448
0.3873
0.387142
0.387032
0.386899
0.386794
0.38669
0.386622
0.386511
0.386441
0.386391
0.386348
0.386311
0.386223
0.386238
0.386244
0.386229
0.386307
0.386313
0.386311
0.386375
0.386414
0.386482
0.386579
0.386677
0.386773
0.386842
0.386964
0.387052
0.387199
0.387311
0.387483
0.387596
0.387799
0.38791
0.388143
0.388273
0.388545
0.388697
0.389015
0.389192
0.38956
0.389767
0.390197
0.39044
0.390953
0.391243
0.391891
0.392209
0.393321
0.393449
0.403533
5.438
506.282
0.756237
0.639607
0.567254
0.521606
0.491319
0.470218
0.454836
0.443273
0.43429
0.427196
0.421437
0.416732
0.412785
0.40948
0.406635
0.404215
0.402086
0.400254
0.398612
0.397187
0.395889
0.394757
0.393708
0.392796
0.391939
0.391192
0.390481
0.389865
0.389274
0.388759
0.388257
0.38783
0.38741
0.387051
0.386691
0.386395
0.38609
0.385834
0.385573
0.38536
0.385138
0.384968
0.384783
0.384631
0.38447
0.384358
0.384222
0.384115
0.384008
0.383939
0.383826
0.383754
0.383701
0.383656
0.383618
0.383529
0.383541
0.383544
0.383526
0.3836
0.383605
0.383603
0.383665
0.383701
0.383768
0.383862
0.383958
0.384054
0.38412
0.38424
0.384326
0.384471
0.384581
0.384751
0.384862
0.385062
0.385172
0.385402
0.38553
0.385798
0.385948
0.386262
0.386437
0.3868
0.387005
0.387429
0.387669
0.388175
0.388461
0.389102
0.389413
0.390519
0.390635
0.401011
5.57774
497.953
0.756306
0.639393
0.566602
0.520552
0.489944
0.468596
0.453024
0.441313
0.432212
0.425023
0.419186
0.414416
0.410416
0.407065
0.40418
0.401727
0.399568
0.397711
0.396045
0.394601
0.393284
0.392136
0.391073
0.390147
0.389278
0.38852
0.387799
0.387174
0.386574
0.386051
0.385542
0.385108
0.384681
0.384317
0.383951
0.38365
0.38334
0.38308
0.382814
0.382597
0.382371
0.382198
0.382008
0.381854
0.38169
0.381575
0.381436
0.381327
0.381217
0.381145
0.381031
0.380957
0.380902
0.380854
0.380815
0.380725
0.380733
0.380734
0.380713
0.380783
0.380787
0.380784
0.380844
0.380878
0.380943
0.381035
0.381128
0.381224
0.381287
0.381405
0.381489
0.381632
0.381739
0.381907
0.382016
0.382214
0.382322
0.382548
0.382675
0.382939
0.383087
0.383396
0.383569
0.383928
0.384129
0.384548
0.384785
0.385284
0.385566
0.386198
0.386504
0.387602
0.387707
0.398369
5.70495
488.7
0.756377
0.639177
0.565935
0.519467
0.488525
0.46692
0.451149
0.439282
0.430058
0.42277
0.416851
0.412014
0.407958
0.404559
0.401633
0.399144
0.396955
0.39507
0.393381
0.391915
0.39058
0.389414
0.388336
0.387396
0.386515
0.385745
0.385014
0.384379
0.38377
0.383238
0.382722
0.382281
0.381847
0.381477
0.381105
0.380798
0.380483
0.380218
0.379948
0.379727
0.379497
0.379319
0.379126
0.378969
0.378801
0.378683
0.378542
0.37843
0.378317
0.378243
0.378127
0.378051
0.377993
0.377943
0.377902
0.377812
0.377815
0.377814
0.37779
0.377856
0.377858
0.377855
0.377913
0.377944
0.378008
0.378096
0.378188
0.378282
0.378343
0.378458
0.37854
0.378681
0.378786
0.378952
0.379058
0.379254
0.37936
0.379583
0.379708
0.379968
0.380113
0.380418
0.380589
0.380942
0.381141
0.381553
0.381788
0.382279
0.382557
0.383181
0.383481
0.38457
0.384664
0.395605
5.8161
478.508
0.756452
0.63896
0.565253
0.518353
0.487064
0.46519
0.449212
0.437183
0.42783
0.420438
0.414435
0.409527
0.405411
0.401962
0.398994
0.396468
0.394246
0.392333
0.390619
0.389131
0.387776
0.386593
0.385498
0.384544
0.383649
0.382868
0.382125
0.38148
0.380861
0.380322
0.379797
0.379349
0.378907
0.378531
0.378153
0.37784
0.37752
0.37725
0.376975
0.37675
0.376515
0.376333
0.376137
0.375976
0.375805
0.375683
0.375539
0.375425
0.375309
0.375233
0.375115
0.375036
0.374975
0.374923
0.374881
0.37479
0.374789
0.374785
0.374758
0.374819
0.374821
0.374816
0.374872
0.3749
0.374963
0.375047
0.375137
0.37523
0.375288
0.375402
0.375481
0.37562
0.375721
0.375886
0.375989
0.376182
0.376287
0.376506
0.376629
0.376885
0.377028
0.377328
0.377496
0.377844
0.37804
0.378447
0.378677
0.379162
0.379436
0.380051
0.380344
0.381425
0.381508
0.392713
5.90756
467.363
0.756529
0.638742
0.564558
0.517211
0.485562
0.463409
0.447215
0.435017
0.425529
0.418029
0.411936
0.406955
0.402778
0.399276
0.396263
0.393698
0.391443
0.389501
0.38776
0.386249
0.384873
0.383672
0.38256
0.381591
0.380682
0.379888
0.379134
0.378478
0.37785
0.377301
0.376768
0.376312
0.375863
0.37548
0.375095
0.374777
0.374451
0.374176
0.373896
0.373666
0.373427
0.373241
0.37304
0.372876
0.372701
0.372576
0.372429
0.372313
0.372193
0.372114
0.371995
0.371913
0.37185
0.371795
0.371751
0.37166
0.371654
0.371647
0.371617
0.371674
0.371674
0.371668
0.371722
0.371746
0.371808
0.371889
0.371977
0.372069
0.372123
0.372235
0.372312
0.372448
0.372547
0.372709
0.37281
0.373
0.373103
0.373319
0.373439
0.373691
0.373832
0.374127
0.374292
0.374635
0.374828
0.375228
0.375455
0.375933
0.376202
0.376808
0.377095
0.378167
0.37824
0.389692
5.97565
455.249
0.756608
0.638523
0.563851
0.516043
0.484021
0.461579
0.445159
0.432785
0.423157
0.415543
0.409358
0.4043
0.400058
0.396502
0.393442
0.390837
0.388546
0.386573
0.384805
0.38327
0.381873
0.380652
0.379523
0.378538
0.377615
0.376808
0.376041
0.375374
0.374736
0.374178
0.373636
0.373171
0.372715
0.372325
0.371933
0.371609
0.371277
0.370997
0.370711
0.370477
0.370233
0.370043
0.369838
0.36967
0.369492
0.369363
0.369213
0.369093
0.36897
0.368888
0.368768
0.368683
0.368616
0.368559
0.368514
0.368422
0.368411
0.368402
0.368368
0.36842
0.36842
0.368412
0.368464
0.368484
0.368545
0.368622
0.368708
0.368798
0.368849
0.368959
0.369034
0.369167
0.369263
0.369423
0.369521
0.369709
0.369809
0.370021
0.370139
0.370387
0.370525
0.370815
0.370978
0.371315
0.371505
0.371899
0.372122
0.372592
0.372856
0.373453
0.373734
0.374796
0.374859
0.386537
6.01673
442.153
0.756691
0.638305
0.563133
0.514851
0.482443
0.459699
0.443046
0.430488
0.420714
0.412982
0.406701
0.401563
0.397254
0.393641
0.390532
0.387885
0.385558
0.383552
0.381756
0.380196
0.378776
0.377535
0.376388
0.375386
0.374448
0.373627
0.372848
0.37217
0.37152
0.370953
0.370401
0.369929
0.369464
0.369067
0.368668
0.368337
0.367999
0.367714
0.367423
0.367183
0.366934
0.366739
0.36653
0.366359
0.366176
0.366044
0.36589
0.365768
0.365641
0.365557
0.365434
0.365346
0.365277
0.365217
0.36517
0.365077
0.365062
0.36505
0.365012
0.365059
0.365058
0.365049
0.365097
0.365114
0.365174
0.365248
0.36533
0.36542
0.365466
0.365574
0.365647
0.365778
0.365871
0.366028
0.366124
0.366308
0.366406
0.366614
0.36673
0.366973
0.367109
0.367394
0.367554
0.367885
0.368071
0.368459
0.368678
0.36914
0.3694
0.369988
0.370262
0.371313
0.371367
0.383246
6.02753
428.065
0.756776
0.638088
0.562406
0.513635
0.480829
0.457773
0.440878
0.428129
0.418203
0.410348
0.403966
0.398745
0.394366
0.390694
0.387534
0.384843
0.382478
0.380439
0.378613
0.377027
0.375583
0.374322
0.373155