/*--------------------------------*- C++ -*----------------------------------*\
| =========                 |                                                 |
| \\      /  F ield         | OpenFOAM: The Open Source CFD Toolbox           |
|  \\    /   O peration     | Version:  v2012                                 |
|   \\  /    A nd           | Website:  www.openfoam.com                      |
|    \\/     M anipulation  |                                                 |
\*---------------------------------------------------------------------------*/
FoamFile
{
    version     2.0;
    format      ascii;
    class       volScalarField;
    location    "31";
    object      k;
}
// * * * * * * * * * * * * * * * * * * * * * * * * * * * * * * * * * * * * * //

dimensions      [0 2 -2 0 0 0 0];


internalField   nonuniform List<scalar> 
209825
(
0.00102441
0.000929656
0.000852955
0.000793457
0.000747727
0.000712377
0.000684427
0.000662028
0.000643604
0.000628357
0.000615417
0.000604452
0.00059492
0.000586712
0.000579426
0.000573086
0.000567365
0.000562354
0.000557764
0.000553724
0.000549973
0.000546666
0.000543551
0.000540804
0.000538192
0.000535891
0.000533678
0.000531726
0.000529841
0.000528185
0.000526555
0.000525136
0.000523731
0.000522516
0.0005213
0.000520257
0.00051919
0.000518284
0.00051735
0.000516562
0.000515743
0.000515061
0.00051434
0.000513748
0.000513107
0.000512594
0.000512027
0.000511582
0.000511089
0.000510702
0.000510266
0.00050994
0.00050956
0.000509271
0.000508938
0.0005087
0.000508417
0.000508202
0.000507964
0.000507796
0.000507572
0.000507439
0.000507268
0.000507136
0.000506971
0.000506891
0.000506741
0.000506668
0.00050652
0.000506472
0.000506365
0.000506408
0.000506408
0.000506511
0.000506523
0.000506639
0.00050668
0.000506818
0.000506885
0.000507056
0.000507154
0.000507379
0.000507509
0.000507786
0.000507942
0.000508273
0.000508461
0.000508865
0.000509091
0.000509608
0.000509856
0.000510661
0.000510805
0.000516272
0.0106425
0.0118511
0.00102441
0.000929657
0.000852956
0.000793456
0.000747724
0.000712373
0.000684421
0.000662019
0.000643595
0.000628346
0.000615405
0.000604439
0.000594906
0.000586697
0.000579411
0.00057307
0.000567349
0.000562337
0.000557747
0.000553706
0.000549955
0.000546647
0.000543533
0.000540786
0.000538172
0.000535872
0.000533659
0.000531707
0.000529821
0.000528165
0.000526534
0.000525115
0.00052371
0.000522495
0.000521279
0.000520236
0.000519169
0.000518263
0.000517328
0.00051654
0.000515721
0.00051504
0.000514319
0.000513726
0.000513085
0.000512572
0.000512005
0.00051156
0.000511067
0.00051068
0.000510243
0.000509918
0.000509538
0.000509249
0.000508916
0.000508677
0.000508394
0.000508179
0.000507941
0.000507774
0.00050755
0.000507416
0.000507245
0.000507113
0.000506948
0.000506868
0.000506718
0.000506645
0.000506497
0.000506449
0.000506342
0.000506385
0.000506385
0.000506488
0.0005065
0.000506616
0.000506657
0.000506795
0.000506862
0.000507032
0.000507131
0.000507356
0.000507485
0.000507763
0.000507918
0.00050825
0.000508437
0.000508842
0.000509068
0.000509584
0.000509832
0.000510637
0.000510781
0.000516256
0.0106514
0.0118627
0.00102441
0.000929659
0.000852955
0.000793448
0.000747708
0.000712349
0.000684389
0.000661981
0.000643551
0.000628297
0.000615352
0.000604382
0.000594847
0.000586635
0.000579345
0.000573003
0.00056728
0.000562266
0.000557674
0.000553632
0.000549879
0.00054657
0.000543454
0.000540706
0.000538092
0.00053579
0.000533576
0.000531624
0.000529737
0.000528081
0.000526449
0.00052503
0.000523624
0.000522409
0.000521192
0.000520149
0.000519081
0.000518174
0.000517239
0.000516451
0.000515632
0.00051495
0.000514228
0.000513635
0.000512994
0.000512482
0.000511914
0.000511469
0.000510975
0.000510588
0.000510151
0.000509826
0.000509445
0.000509156
0.000508823
0.000508584
0.000508301
0.000508086
0.000507848
0.00050768
0.000507456
0.000507322
0.000507151
0.000507019
0.000506854
0.000506773
0.000506624
0.000506551
0.000506403
0.000506354
0.000506247
0.00050629
0.00050629
0.000506392
0.000506404
0.00050652
0.000506561
0.000506699
0.000506765
0.000506936
0.000507034
0.000507259
0.000507388
0.000507665
0.000507821
0.000508152
0.00050834
0.000508744
0.000508969
0.000509485
0.000509733
0.000510538
0.000510681
0.000516172
0.0106689
0.0118859
0.00102441
0.000929664
0.000852954
0.000793435
0.000747681
0.000712307
0.000684336
0.000661917
0.000643477
0.000628215
0.000615263
0.000604287
0.000594746
0.000586529
0.000579235
0.000572889
0.000567162
0.000562145
0.000557551
0.000553506
0.000549751
0.00054644
0.000543322
0.000540573
0.000537957
0.000535654
0.000533438
0.000531484
0.000529596
0.000527939
0.000526307
0.000524886
0.000523479
0.000522263
0.000521045
0.000520001
0.000518933
0.000518026
0.00051709
0.000516301
0.000515481
0.000514799
0.000514077
0.000513483
0.000512841
0.000512329
0.00051176
0.000511315
0.000510821
0.000510433
0.000509996
0.00050967
0.00050929
0.000509
0.000508667
0.000508428
0.000508144
0.000507929
0.000507691
0.000507522
0.000507298
0.000507164
0.000506993
0.000506861
0.000506695
0.000506615
0.000506465
0.000506392
0.000506243
0.000506195
0.000506087
0.00050613
0.000506129
0.000506231
0.000506243
0.000506358
0.000506399
0.000506537
0.000506603
0.000506773
0.000506871
0.000507096
0.000507225
0.000507502
0.000507657
0.000507988
0.000508175
0.000508579
0.000508804
0.00050932
0.000509567
0.000510371
0.000510513
0.000516028
0.0106959
0.0119217
0.00102442
0.000929669
0.000852952
0.000793417
0.000747642
0.000712249
0.00068426
0.000661825
0.000643372
0.000628099
0.000615137
0.000604152
0.000594603
0.000586379
0.00057908
0.000572728
0.000566997
0.000561976
0.000557377
0.000553329
0.000549571
0.000546257
0.000543136
0.000540384
0.000537766
0.00053546
0.000533243
0.000531287
0.000529398
0.000527739
0.000526105
0.000524683
0.000523275
0.000522057
0.000520838
0.000519794
0.000518724
0.000517816
0.000516879
0.00051609
0.000515269
0.000514586
0.000513863
0.000513269
0.000512626
0.000512113
0.000511544
0.000511098
0.000510603
0.000510215
0.000509778
0.000509451
0.00050907
0.00050878
0.000508446
0.000508207
0.000507923
0.000507707
0.000507469
0.0005073
0.000507076
0.000506941
0.000506769
0.000506637
0.000506471
0.000506391
0.000506241
0.000506168
0.000506019
0.00050597
0.000505862
0.000505903
0.000505903
0.000506004
0.000506015
0.000506131
0.000506171
0.000506309
0.000506374
0.000506544
0.000506642
0.000506866
0.000506995
0.000507271
0.000507426
0.000507756
0.000507943
0.000508346
0.000508571
0.000509086
0.000509332
0.000510136
0.000510276
0.000515825
0.0107333
0.0119711
0.00102442
0.000929677
0.00085295
0.000793393
0.000747592
0.000712174
0.000684161
0.000661707
0.000643236
0.000627948
0.000614973
0.000603977
0.000594418
0.000586186
0.000578878
0.00057252
0.000566782
0.000561755
0.000557152
0.000553099
0.000549337
0.000546019
0.000542895
0.000540139
0.000537518
0.00053521
0.00053299
0.000531032
0.00052914
0.000527479
0.000525844
0.00052442
0.00052301
0.000521791
0.00052057
0.000519524
0.000518454
0.000517544
0.000516606
0.000515815
0.000514993
0.00051431
0.000513586
0.000512991
0.000512347
0.000511833
0.000511263
0.000510817
0.000510321
0.000509933
0.000509494
0.000509167
0.000508786
0.000508495
0.000508161
0.000507921
0.000507636
0.00050742
0.000507181
0.000507012
0.000506787
0.000506652
0.00050648
0.000506348
0.000506181
0.000506101
0.00050595
0.000505877
0.000505728
0.000505679
0.00050557
0.00050561
0.000505609
0.00050571
0.00050572
0.000505835
0.000505875
0.000506012
0.000506078
0.000506247
0.000506344
0.000506568
0.000506696
0.000506972
0.000507126
0.000507456
0.000507642
0.000508044
0.000508268
0.000508782
0.000509028
0.000509831
0.000509968
0.000515561
0.0107817
0.0120347
0.00102442
0.000929686
0.000852948
0.000793363
0.000747531
0.000712081
0.000684041
0.000661562
0.00064307
0.000627763
0.000614772
0.000603761
0.00059419
0.000585947
0.00057863
0.000572263
0.000566518
0.000561484
0.000556875
0.000552816
0.000549048
0.000545726
0.000542597
0.000539838
0.000537213
0.000534902
0.000532679
0.000530718
0.000528823
0.00052716
0.000525522
0.000524096
0.000522684
0.000521463
0.00052024
0.000519193
0.00051812
0.000517209
0.00051627
0.000515478
0.000514654
0.000513969
0.000513244
0.000512648
0.000512004
0.000511488
0.000510918
0.00051047
0.000509974
0.000509584
0.000509145
0.000508817
0.000508435
0.000508144
0.000507809
0.000507568
0.000507283
0.000507067
0.000506826
0.000506657
0.000506432
0.000506296
0.000506124
0.000505991
0.000505824
0.000505743
0.000505592
0.000505519
0.000505369
0.00050532
0.00050521
0.000505249
0.000505247
0.000505347
0.000505357
0.000505472
0.000505511
0.000505647
0.000505712
0.000505881
0.000505978
0.0005062
0.000506328
0.000506603
0.000506757
0.000507085
0.000507271
0.000507672
0.000507896
0.000508408
0.000508653
0.000509455
0.00050959
0.000515236
0.0108418
0.0121133
0.00102442
0.000929698
0.000852945
0.000793329
0.000747458
0.000711972
0.000683897
0.000661389
0.000642871
0.000627542
0.000614532
0.000603505
0.00059392
0.000585664
0.000578335
0.000571958
0.000566203
0.000561161
0.000556544
0.000552479
0.000548705
0.000545377
0.000542243
0.000539479
0.00053685
0.000534535
0.000532308
0.000530344
0.000528446
0.000526779
0.000525138
0.00052371
0.000522295
0.000521072
0.000519847
0.000518797
0.000517723
0.00051681
0.000515869
0.000515075
0.00051425
0.000513564
0.000512837
0.00051224
0.000511594
0.000511078
0.000510506
0.000510057
0.00050956
0.000509169
0.000508729
0.0005084
0.000508017
0.000507726
0.000507389
0.000507148
0.000506862
0.000506645
0.000506404
0.000506234
0.000506008
0.000505872
0.000505699
0.000505566
0.000505398
0.000505317
0.000505166
0.000505092
0.000504942
0.000504892
0.000504781
0.000504819
0.000504816
0.000504915
0.000504924
0.000505038
0.000505077
0.000505213
0.000505277
0.000505445
0.000505541
0.000505762
0.00050589
0.000506163
0.000506317
0.000506644
0.000506829
0.000507228
0.000507452
0.000507963
0.000508206
0.000509007
0.000509138
0.00051485
0.0109143
0.0122077
0.00102443
0.000929711
0.000852942
0.000793289
0.000747375
0.000711845
0.000683731
0.000661188
0.000642641
0.000627287
0.000614254
0.000603208
0.000593605
0.000585334
0.000577992
0.000571603
0.000565838
0.000560786
0.00055616
0.000552087
0.000548306
0.000544972
0.000541832
0.000539062
0.000536428
0.000534108
0.000531877
0.000529908
0.000528006
0.000526337
0.000524692
0.000523261
0.000521843
0.000520617
0.000519389
0.000518337
0.000517261
0.000516346
0.000515403
0.000514607
0.00051378
0.000513092
0.000512364
0.000511765
0.000511117
0.0005106
0.000510026
0.000509577
0.000509078
0.000508687
0.000508245
0.000507915
0.000507531
0.000507238
0.000506901
0.000506659
0.000506372
0.000506154
0.000505912
0.000505742
0.000505515
0.000505378
0.000505204
0.000505071
0.000504903
0.000504821
0.000504669
0.000504595
0.000504445
0.000504394
0.000504282
0.000504318
0.000504314
0.000504412
0.000504421
0.000504534
0.000504571
0.000504706
0.00050477
0.000504937
0.000505032
0.000505252
0.000505379
0.000505652
0.000505804
0.00050613
0.000506315
0.000506713
0.000506935
0.000507444
0.000507687
0.000508486
0.000508613
0.000514402
0.0109996
0.0123185
0.00102443
0.000929726
0.000852939
0.000793245
0.00074728
0.0007117
0.000683542
0.00066096
0.000642379
0.000626995
0.000613937
0.000602868
0.000593246
0.000584958
0.000577601
0.000571198
0.00056542
0.000560358
0.000555722
0.00055164
0.00054785
0.000544508
0.000541362
0.000538586
0.000535946
0.00053362
0.000531384
0.000529411
0.000527504
0.000525831
0.000524183
0.000522747
0.000521326
0.000520097
0.000518867
0.000517812
0.000516733
0.000515815
0.00051487
0.000514072
0.000513243
0.000512553
0.000511823
0.000511222
0.000510573
0.000510054
0.000509479
0.000509027
0.000508527
0.000508135
0.000507692
0.000507361
0.000506975
0.000506682
0.000506343
0.0005061
0.000505812
0.000505594
0.000505351
0.00050518
0.000504952
0.000504814
0.000504639
0.000504506
0.000504336
0.000504254
0.000504101
0.000504027
0.000503876
0.000503825
0.000503712
0.000503745
0.000503741
0.000503837
0.000503845
0.000503957
0.000503994
0.000504128
0.000504191
0.000504357
0.000504451
0.00050467
0.000504796
0.000505067
0.000505219
0.000505543
0.000505727
0.000506123
0.000506344
0.000506851
0.000507092
0.00050789
0.000508013
0.00051389
0.0110981
0.0124462
0.00102443
0.000929742
0.000852935
0.000793195
0.000747174
0.000711539
0.00068333
0.000660704
0.000642085
0.000626668
0.000613581
0.000602487
0.000592842
0.000584535
0.00057716
0.000570742
0.000564951
0.000559876
0.000555228
0.000551136
0.000547337
0.000543987
0.000540832
0.000538049
0.000535402
0.000533071
0.000530829
0.000528851
0.000526939
0.000525261
0.000523608
0.000522169
0.000520745
0.000519512
0.000518278
0.00051722
0.000516138
0.000515218
0.000514269
0.000513469
0.000512638
0.000511945
0.000511213
0.000510611
0.000509959
0.000509438
0.000508862
0.000508409
0.000507907
0.000507513
0.000507068
0.000506736
0.000506349
0.000506055
0.000505715
0.000505471
0.000505181
0.000504962
0.000504718
0.000504546
0.000504317
0.000504178
0.000504002
0.000503869
0.000503698
0.000503615
0.000503462
0.000503387
0.000503236
0.000503184
0.000503069
0.0005031
0.000503095
0.000503189
0.000503196
0.000503307
0.000503343
0.000503476
0.000503538
0.000503702
0.000503796
0.000504013
0.000504138
0.000504408
0.000504559
0.000504881
0.000505064
0.000505458
0.000505678
0.000506183
0.000506423
0.000507218
0.000507336
0.000513315
0.0112102
0.0125915
0.00102444
0.000929761
0.000852932
0.00079314
0.000747056
0.00071136
0.000683095
0.00066042
0.000641758
0.000626304
0.000613185
0.000602063
0.000592393
0.000584064
0.00057667
0.000570235
0.000564428
0.000559339
0.000554679
0.000550575
0.000546766
0.000543406
0.000540243
0.000537452
0.000534797
0.000532459
0.000530211
0.000528227
0.00052631
0.000524626
0.000522969
0.000521526
0.000520096
0.00051886
0.000517622
0.000516561
0.000515475
0.000514552
0.0005136
0.000512798
0.000511963
0.000511269
0.000510534
0.000509929
0.000509276
0.000508753
0.000508174
0.000507719
0.000507215
0.00050682
0.000506374
0.00050604
0.000505651
0.000505356
0.000505014
0.000504769
0.000504478
0.000504258
0.000504012
0.000503839
0.000503609
0.00050347
0.000503292
0.000503158
0.000502987
0.000502903
0.000502749
0.000502673
0.000502522
0.000502469
0.000502352
0.000502382
0.000502375
0.000502467
0.000502473
0.000502583
0.000502617
0.000502749
0.00050281
0.000502973
0.000503066
0.000503281
0.000503406
0.000503673
0.000503823
0.000504144
0.000504326
0.000504717
0.000504936
0.000505438
0.000505676
0.00050647
0.000506582
0.000512675
0.0113359
0.0127548
0.00102444
0.000929782
0.000852929
0.000793081
0.000746928
0.000711164
0.000682837
0.000660107
0.000641398
0.000625903
0.000612748
0.000601596
0.000591899
0.000583546
0.00057613
0.000569676
0.000563852
0.000558747
0.000554073
0.000549957
0.000546136
0.000542766
0.000539593
0.000536793
0.00053413
0.000531784
0.000529529
0.000527538
0.000525615
0.000523926
0.000522263
0.000520815
0.000519381
0.00051814
0.000516898
0.000515833
0.000514743
0.000513817
0.000512862
0.000512056
0.000511219
0.000510521
0.000509784
0.000509177
0.000508521
0.000507996
0.000507415
0.000506958
0.000506452
0.000506055
0.000505607
0.000505271
0.000504881
0.000504584
0.000504241
0.000503994
0.000503702
0.00050348
0.000503233
0.000503059
0.000502828
0.000502687
0.000502509
0.000502374
0.000502201
0.000502116
0.000501961
0.000501886
0.000501733
0.00050168
0.000501561
0.000501588
0.00050158
0.000501669
0.000501674
0.000501783
0.000501816
0.000501947
0.000502006
0.000502168
0.00050226
0.000502473
0.000502596
0.000502862
0.000503011
0.000503329
0.00050351
0.000503899
0.000504117
0.000504616
0.000504852
0.000505643
0.00050575
0.000511969
0.0114752
0.0129364
0.00102445
0.000929804
0.000852926
0.000793017
0.00074679
0.00071095
0.000682556
0.000659767
0.000641006
0.000625466
0.000612272
0.000601085
0.000591358
0.000582979
0.00057554
0.000569064
0.000563221
0.0005581
0.00055341
0.00054928
0.000545446
0.000542064
0.000538881
0.000536071
0.000533399
0.000531045
0.000528782
0.000526784
0.000524854
0.000523159
0.00052149
0.000520037
0.000518597
0.000517352
0.000516105
0.000515035
0.000513942
0.000513012
0.000512053
0.000511244
0.000510403
0.000509703
0.000508962
0.000508353
0.000507694
0.000507166
0.000506583
0.000506124
0.000505616
0.000505217
0.000504766
0.000504429
0.000504037
0.000503738
0.000503393
0.000503145
0.000502851
0.000502628
0.000502379
0.000502204
0.000501972
0.000501829
0.00050165
0.000501515
0.00050134
0.000501254
0.000501099
0.000501022
0.000500869
0.000500815
0.000500694
0.000500718
0.000500708
0.000500795
0.000500799
0.000500906
0.000500938
0.000501068
0.000501126
0.000501286
0.000501376
0.000501588
0.00050171
0.000501973
0.000502121
0.000502437
0.000502616
0.000503003
0.000503218
0.000503715
0.000503949
0.000504737
0.000504838
0.000511198
0.0116276
0.0131367
0.00102445
0.000929829
0.000852924
0.000792949
0.00074664
0.00071072
0.000682252
0.000659398
0.000640581
0.000624992
0.000611755
0.000600531
0.000590772
0.000582363
0.000574898
0.0005684
0.000562536
0.000557396
0.00055269
0.000548544
0.000544697
0.000541302
0.000538107
0.000535286
0.000532605
0.000530241
0.00052797
0.000525964
0.000524026
0.000522325
0.000520649
0.00051919
0.000517745
0.000516494
0.000515242
0.000514168
0.00051307
0.000512136
0.000511173
0.00051036
0.000509515
0.000508812
0.000508068
0.000507456
0.000506794
0.000506264
0.000505677
0.000505216
0.000504705
0.000504304
0.000503851
0.000503512
0.000503118
0.000502818
0.00050247
0.000502221
0.000501925
0.000501701
0.00050145
0.000501274
0.000501039
0.000500896
0.000500715
0.000500579
0.000500403
0.000500316
0.000500159
0.000500082
0.000499928
0.000499873
0.000499751
0.000499772
0.00049976
0.000499843
0.000499847
0.000499952
0.000499982
0.00050011
0.000500167
0.000500325
0.000500414
0.000500623
0.000500744
0.000501005
0.000501152
0.000501465
0.000501643
0.000502027
0.000502241
0.000502734
0.000502965
0.000503751
0.000503845
0.000510359
0.0117927
0.013356
0.00102446
0.000929856
0.000852922
0.000792876
0.00074648
0.000710473
0.000681926
0.000659001
0.000640123
0.000624481
0.000611198
0.000599933
0.000590138
0.000581698
0.000574205
0.000567682
0.000561796
0.000556636
0.000551911
0.000547749
0.000543886
0.000540478
0.00053727
0.000534438
0.000531745
0.000529372
0.000527091
0.000525077
0.000523131
0.000521422
0.00051974
0.000518274
0.000516822
0.000515566
0.000514308
0.000513229
0.000512126
0.000511188
0.00051022
0.000509404
0.000508555
0.000507848
0.0005071
0.000506485
0.00050582
0.000505287
0.000504698
0.000504234
0.00050372
0.000503317
0.000502861
0.00050252
0.000502123
0.000501821
0.000501472
0.00050122
0.000500923
0.000500697
0.000500444
0.000500266
0.000500031
0.000499886
0.000499703
0.000499566
0.000499389
0.000499301
0.000499143
0.000499065
0.00049891
0.000498853
0.00049873
0.000498747
0.000498733
0.000498813
0.000498816
0.000498919
0.000498947
0.000499074
0.000499129
0.000499285
0.000499373
0.00049958
0.000499699
0.000499957
0.000500102
0.000500413
0.000500589
0.00050097
0.000501182
0.000501672
0.000501901
0.000502684
0.00050277
0.000509452
0.0119694
0.0135943
0.00102447
0.000929884
0.000852921
0.0007928
0.00074631
0.00071021
0.000681577
0.000658577
0.000639632
0.000623933
0.0006106
0.000599291
0.000589458
0.000580984
0.000573461
0.00056691
0.000561
0.000555818
0.000551074
0.000546894
0.000543014
0.000539591
0.000536369
0.000533525
0.000530821
0.000528437
0.000526145
0.000524122
0.000522168
0.000520451
0.000518761
0.000517288
0.000515829
0.000514567
0.000513303
0.000512219
0.00051111
0.000510167
0.000509195
0.000508374
0.000507521
0.00050681
0.000506058
0.00050544
0.000504771
0.000504235
0.000503642
0.000503176
0.000502659
0.000502253
0.000501795
0.000501452
0.000501052
0.000500748
0.000500396
0.000500143
0.000499843
0.000499616
0.00049936
0.000499181
0.000498944
0.000498797
0.000498612
0.000498475
0.000498296
0.000498207
0.000498047
0.000497969
0.000497813
0.000497755
0.00049763
0.000497644
0.000497627
0.000497704
0.000497705
0.000497806
0.000497833
0.000497957
0.000498011
0.000498165
0.000498251
0.000498455
0.000498573
0.000498828
0.000498972
0.00049928
0.000499454
0.000499832
0.000500042
0.000500528
0.000500754
0.000501534
0.000501613
0.000508476
0.0121565
0.0138517
0.00102447
0.000929915
0.000852921
0.00079272
0.000746131
0.00070993
0.000681205
0.000658124
0.000639109
0.000623347
0.000609961
0.000598605
0.00058873
0.00058022
0.000572664
0.000566085
0.000560148
0.000554943
0.000550177
0.000545978
0.000542081
0.000538641
0.000535405
0.000532547
0.00052983
0.000527434
0.000525132
0.000523099
0.000521135
0.00051941
0.000517711
0.000516231
0.000514765
0.000513496
0.000512225
0.000511135
0.000510021
0.000509073
0.000508095
0.00050727
0.000506412
0.000505697
0.000504941
0.000504319
0.000503646
0.000503107
0.000502511
0.000502042
0.000501521
0.000501113
0.000500652
0.000500306
0.000499903
0.000499597
0.000499243
0.000498987
0.000498685
0.000498456
0.000498198
0.000498018
0.000497778
0.00049763
0.000497443
0.000497305
0.000497124
0.000497033
0.000496873
0.000496793
0.000496636
0.000496577
0.00049645
0.00049646
0.000496441
0.000496513
0.000496514
0.000496613
0.000496637
0.00049676
0.000496812
0.000496964
0.000497048
0.000497249
0.000497365
0.000497618
0.00049776
0.000498064
0.000498237
0.000498611
0.000498819
0.000499301
0.000499524
0.0005003
0.000500371
0.000507429
0.0123525
0.0141278
0.00102448
0.000929948
0.000852921
0.000792636
0.000745941
0.000709634
0.000680811
0.000657643
0.000638552
0.000622725
0.000609281
0.000597875
0.000587956
0.000579406
0.000571815
0.000565205
0.00055924
0.00055401
0.000549221
0.000545001
0.000541085
0.000537628
0.000534376
0.000531503
0.000528773
0.000526365
0.000524051
0.000522008
0.000520033
0.000518298
0.000516591
0.000515103
0.000513629
0.000512353
0.000511075
0.000509979
0.000508858
0.000507904
0.000506921
0.000506091
0.000505228
0.000504509
0.000503748
0.000503122
0.000502445
0.000501902
0.000501303
0.00050083
0.000500306
0.000499895
0.00049943
0.000499082
0.000498676
0.000498368
0.000498011
0.000497753
0.000497448
0.000497218
0.000496957
0.000496775
0.000496533
0.000496383
0.000496194
0.000496055
0.000495872
0.00049578
0.000495617
0.000495537
0.000495379
0.000495319
0.00049519
0.000495196
0.000495173
0.000495241
0.000495242
0.000495338
0.00049536
0.000495481
0.00049553
0.00049568
0.000495762
0.00049596
0.000496075
0.000496324
0.000496464
0.000496765
0.000496936
0.000497306
0.000497512
0.000497989
0.000498209
0.000498982
0.000499045
0.00050631
0.0125551
0.0144224
0.00102448
0.000929983
0.000852923
0.000792549
0.000745743
0.000709322
0.000680395
0.000657135
0.000637964
0.000622066
0.000608561
0.000597101
0.000587134
0.000578542
0.000570914
0.00056427
0.000558276
0.000553018
0.000548205
0.000543963
0.000540026
0.000536551
0.000533282
0.000530394
0.000527649
0.000525227
0.000522901
0.000520846
0.000518861
0.000517116
0.0005154
0.000513903
0.00051242
0.000511136
0.000509851
0.000508748
0.000507621
0.000506661
0.000505672
0.000504837
0.000503968
0.000503244
0.000502478
0.000501848
0.000501167
0.00050062
0.000500016
0.00049954
0.000499013
0.000498598
0.00049813
0.000497779
0.00049737
0.00049706
0.000496699
0.000496439
0.000496131
0.000495899
0.000495635
0.000495451
0.000495207
0.000495055
0.000494864
0.000494724
0.000494538
0.000494445
0.000494281
0.0004942
0.00049404
0.000493979
0.000493849
0.000493851
0.000493824
0.000493887
0.000493887
0.00049398
0.000494
0.000494118
0.000494166
0.000494313
0.000494393
0.000494588
0.000494701
0.000494947
0.000495085
0.000495382
0.000495551
0.000495917
0.00049612
0.000496593
0.00049681
0.000497578
0.000497633
0.000505117
0.0127621
0.0147347
0.00102449
0.00093002
0.000852926
0.00079246
0.000745535
0.000708995
0.000679958
0.0006566
0.000637342
0.00062137
0.000607799
0.000596282
0.000586264
0.000577628
0.000569961
0.000563281
0.000557255
0.000551968
0.000547129
0.000542863
0.000538905
0.00053541
0.000532122
0.000529218
0.000526457
0.000524022
0.000521682
0.000519615
0.000517618
0.000515863
0.000514136
0.00051263
0.000511138
0.000509846
0.000508553
0.000507443
0.000506308
0.000505342
0.000504347
0.000503506
0.000502631
0.000501902
0.000501131
0.000500496
0.00049981
0.00049926
0.000498651
0.000498172
0.00049764
0.000497223
0.000496751
0.000496396
0.000495984
0.000495671
0.000495307
0.000495044
0.000494734
0.000494499
0.000494232
0.000494047
0.0004938
0.000493646
0.000493453
0.000493311
0.000493123
0.000493029
0.000492863
0.00049278
0.000492619
0.000492556
0.000492425
0.000492423
0.000492392
0.00049245
0.000492449
0.000492539
0.000492557
0.000492673
0.000492718
0.000492862
0.00049294
0.000493132
0.000493242
0.000493484
0.000493621
0.000493914
0.000494081
0.000494442
0.000494643
0.000495111
0.000495324
0.000496088
0.000496135
0.000503849
0.0129703
0.0150638
0.0010245
0.000930059
0.00085293
0.000792367
0.000745319
0.000708653
0.000679499
0.000656037
0.000636689
0.000620637
0.000606997
0.000595419
0.000585348
0.000576664
0.000568954
0.000562237
0.000556176
0.000550859
0.000545992
0.000541701
0.00053772
0.000534204
0.000530897
0.000527975
0.000525197
0.000522747
0.000520393
0.000518313
0.000516303
0.000514537
0.0005128
0.000511284
0.000509782
0.000508482
0.00050718
0.000506062
0.00050492
0.000503947
0.000502945
0.000502098
0.000501217
0.000500483
0.000499706
0.000499067
0.000498375
0.00049782
0.000497207
0.000496724
0.000496188
0.000495767
0.000495291
0.000494933
0.000494518
0.000494201
0.000493834
0.000493569
0.000493255
0.000493018
0.000492748
0.00049256
0.000492311
0.000492155
0.000491959
0.000491816
0.000491626
0.000491529
0.000491361
0.000491278
0.000491116
0.000491051
0.000490918
0.000490912
0.000490877
0.00049093
0.000490927
0.000491014
0.000491029
0.000491142
0.000491185
0.000491327
0.000491402
0.00049159
0.000491698
0.000491937
0.000492071
0.000492361
0.000492525
0.000492881
0.000493079
0.000493543
0.000493752
0.00049451
0.000494549
0.000502504
0.0131765
0.0154082
0.0010245
0.0009301
0.000852936
0.000792273
0.000745095
0.000708296
0.00067902
0.000655448
0.000636004
0.000619868
0.000606155
0.000594513
0.000584384
0.00057565
0.000567895
0.000561138
0.000555041
0.000549692
0.000544795
0.000540477
0.000536472
0.000532933
0.000529606
0.000526665
0.00052387
0.000521403
0.000519034
0.000516941
0.000514917
0.00051314
0.00051139
0.000509864
0.000508353
0.000507043
0.000505731
0.000504605
0.000503455
0.000502475
0.000501466
0.000500613
0.000499725
0.000498985
0.000498202
0.000497558
0.000496861
0.000496302
0.000495684
0.000495196
0.000494655
0.000494231
0.00049375
0.000493389
0.00049297
0.00049265
0.00049228
0.000492011
0.000491694
0.000491455
0.000491181
0.000490991
0.00049074
0.000490581
0.000490382
0.000490238
0.000490045
0.000489946
0.000489777
0.000489692
0.000489528
0.000489462
0.000489327
0.000489317
0.000489277
0.000489325
0.000489321
0.000489404
0.000489416
0.000489527
0.000489566
0.000489705
0.000489778
0.000489963
0.000490068
0.000490303
0.000490435
0.00049072
0.000490882
0.000491233
0.000491429
0.000491887
0.000492092
0.000492845
0.000492876
0.000501079
0.0133766
0.0157662
0.00102451
0.000930143
0.000852944
0.000792176
0.000744863
0.000707926
0.00067852
0.000654833
0.000635288
0.000619064
0.000605272
0.000593562
0.000583373
0.000574586
0.000566784
0.000559984
0.000553849
0.000548465
0.000543537
0.000539191
0.000535159
0.000531598
0.000528248
0.000525287
0.000522474
0.00051999
0.000517605
0.000515497
0.00051346
0.000511669
0.000509908
0.00050837
0.000506848
0.000505528
0.000504207
0.000503073
0.000501914
0.000500926
0.000499909
0.000499049
0.000498154
0.000497409
0.000496619
0.000495969
0.000495267
0.000494703
0.000494079
0.000493587
0.000493041
0.000492613
0.000492128
0.000491763
0.00049134
0.000491017
0.000490643
0.000490371
0.000490051
0.000489809
0.000489532
0.000489339
0.000489085
0.000488923
0.000488721
0.000488576
0.00048838
0.00048828
0.000488107
0.000488021
0.000487856
0.000487788
0.000487652
0.000487637
0.000487593
0.000487635
0.000487629
0.000487708
0.000487718
0.000487825
0.000487862
0.000487998
0.000488068
0.000488248
0.000488352
0.000488582
0.000488712
0.000488992
0.000489151
0.000489498
0.00048969
0.000490142
0.000490344
0.00049109
0.000491113
0.000499573
0.0135664
0.0161355
0.00102452
0.000930188
0.000852953
0.000792078
0.000744624
0.000707542
0.000678001
0.000654193
0.000634541
0.000618223
0.00060435
0.000592568
0.000582316
0.000573472
0.00056562
0.000558776
0.0005526
0.00054718
0.000542219
0.000537843
0.000533783
0.000530197
0.000526824
0.000523842
0.000521009
0.000518507
0.000516105
0.000513982
0.00051193
0.000510126
0.000508351
0.000506802
0.000505268
0.000503939
0.000502607
0.000501463
0.000500295
0.0004993
0.000498274
0.000497407
0.000496505
0.000495753
0.000494956
0.000494301
0.000493592
0.000493023
0.000492394
0.000491897
0.000491346
0.000490914
0.000490424
0.000490055
0.000489628
0.000489302
0.000488923
0.000488648
0.000488324
0.000488079
0.000487798
0.000487603
0.000487346
0.000487181
0.000486976
0.000486829
0.000486631
0.000486528
0.000486353
0.000486266
0.000486098
0.000486029
0.000485891
0.000485873
0.000485823
0.00048586
0.000485852
0.000485926
0.000485933
0.000486037
0.000486071
0.000486203
0.00048627
0.000486447
0.000486548
0.000486773
0.0004869
0.000487176
0.000487333
0.000487674
0.000487863
0.000488309
0.000488507
0.000489246
0.000489261
0.000497984
0.0137409
0.0165131
0.00102452
0.000930236
0.000852965
0.000791979
0.000744378
0.000707144
0.000677462
0.000653527
0.000633763
0.000617347
0.000603388
0.000591531
0.000581211
0.000572309
0.000564404
0.000557512
0.000551294
0.000545836
0.000540839
0.000536432
0.000532343
0.000528731
0.000525333
0.000522329
0.000519475
0.000516955
0.000514535
0.000512395
0.000510327
0.000508509
0.000506721
0.00050516
0.000503614
0.000502273
0.00050093
0.000499777
0.000498599
0.000497595
0.000496561
0.000495687
0.000494776
0.000494017
0.000493214
0.000492553
0.000491837
0.000491263
0.000490628
0.000490126
0.00048957
0.000489133
0.000488638
0.000488265
0.000487832
0.000487503
0.00048712
0.000486842
0.000486513
0.000486266
0.000485981
0.000485783
0.000485522
0.000485355
0.000485146
0.000484998