/*--------------------------------*- C++ -*----------------------------------*\
| =========                 |                                                 |
| \\      /  F ield         | OpenFOAM: The Open Source CFD Toolbox           |
|  \\    /   O peration     | Version:  v2012                                 |
|   \\  /    A nd           | Website:  www.openfoam.com                      |
|    \\/     M anipulation  |                                                 |
\*---------------------------------------------------------------------------*/
FoamFile
{
    version     2.0;
    format      ascii;
    class       volScalarField;
    location    "31";
    object      nut;
}
// * * * * * * * * * * * * * * * * * * * * * * * * * * * * * * * * * * * * * //

dimensions      [0 2 -1 0 0 0 0];


internalField   nonuniform List<scalar> 
209825
(
1.25031e-07
1.2099e-07
1.13598e-07
1.05731e-07
9.87392e-08
9.29199e-08
8.8115e-08
8.41603e-08
8.08465e-08
7.80694e-08
7.56902e-08
7.36606e-08
7.18873e-08
7.03554e-08
6.89911e-08
6.78016e-08
6.67265e-08
6.57836e-08
6.49195e-08
6.41582e-08
6.34512e-08
6.28279e-08
6.22406e-08
6.17221e-08
6.1229e-08
6.07946e-08
6.03771e-08
6.00075e-08
5.96511e-08
5.93382e-08
5.90297e-08
5.87599e-08
5.84933e-08
5.82621e-08
5.80313e-08
5.78315e-08
5.76281e-08
5.7455e-08
5.72763e-08
5.71245e-08
5.69669e-08
5.68336e-08
5.66942e-08
5.65793e-08
5.64545e-08
5.63522e-08
5.62418e-08
5.61548e-08
5.60561e-08
5.59777e-08
5.58951e-08
5.58291e-08
5.5749e-08
5.56886e-08
5.5619e-08
5.55754e-08
5.55074e-08
5.54527e-08
5.54008e-08
5.53491e-08
5.52966e-08
5.52674e-08
5.52202e-08
5.51828e-08
5.51352e-08
5.51006e-08
5.50527e-08
5.50239e-08
5.49784e-08
5.49493e-08
5.49113e-08
5.48984e-08
5.48798e-08
5.48771e-08
5.48613e-08
5.4857e-08
5.48487e-08
5.48435e-08
5.48381e-08
5.48341e-08
5.48323e-08
5.48329e-08
5.48344e-08
5.48392e-08
5.48419e-08
5.48491e-08
5.4853e-08
5.48632e-08
5.4868e-08
5.48824e-08
5.48852e-08
5.4904e-08
5.48922e-08
5.53168e-08
3.36056e-06
2.26636e-08
1.25031e-07
1.2099e-07
1.136e-07
1.05733e-07
9.87414e-08
9.29221e-08
8.81171e-08
8.41622e-08
8.08482e-08
7.80709e-08
7.56915e-08
7.36618e-08
7.18883e-08
7.03563e-08
6.89918e-08
6.78022e-08
6.67269e-08
6.5784e-08
6.49198e-08
6.41584e-08
6.34514e-08
6.28279e-08
6.22407e-08
6.1722e-08
6.12289e-08
6.07945e-08
6.03769e-08
6.00073e-08
5.96508e-08
5.93379e-08
5.90294e-08
5.87596e-08
5.84928e-08
5.82617e-08
5.80308e-08
5.7831e-08
5.76276e-08
5.74544e-08
5.72757e-08
5.71239e-08
5.69663e-08
5.68329e-08
5.66935e-08
5.65787e-08
5.64538e-08
5.63515e-08
5.62411e-08
5.61541e-08
5.60554e-08
5.5977e-08
5.58944e-08
5.58284e-08
5.57482e-08
5.56878e-08
5.56182e-08
5.55745e-08
5.55066e-08
5.54518e-08
5.53999e-08
5.53482e-08
5.52957e-08
5.52666e-08
5.52193e-08
5.51819e-08
5.51343e-08
5.50997e-08
5.50518e-08
5.5023e-08
5.49775e-08
5.49484e-08
5.49104e-08
5.48974e-08
5.48789e-08
5.48761e-08
5.48604e-08
5.48561e-08
5.48477e-08
5.48425e-08
5.48371e-08
5.48331e-08
5.48313e-08
5.48319e-08
5.48334e-08
5.48382e-08
5.48409e-08
5.48481e-08
5.4852e-08
5.48622e-08
5.4867e-08
5.48814e-08
5.48841e-08
5.49029e-08
5.48911e-08
5.53162e-08
3.36081e-06
2.28441e-08
1.25031e-07
1.20994e-07
1.13607e-07
1.05742e-07
9.87507e-08
9.2931e-08
8.81252e-08
8.41695e-08
8.08546e-08
7.80765e-08
7.56964e-08
7.3666e-08
7.18919e-08
7.03593e-08
6.89943e-08
6.78043e-08
6.67287e-08
6.57853e-08
6.49208e-08
6.41591e-08
6.34518e-08
6.28281e-08
6.22406e-08
6.17217e-08
6.12284e-08
6.07938e-08
6.0376e-08
6.00063e-08
5.96496e-08
5.93366e-08
5.90279e-08
5.8758e-08
5.84911e-08
5.82599e-08
5.80289e-08
5.7829e-08
5.76255e-08
5.74522e-08
5.72734e-08
5.71216e-08
5.69639e-08
5.68305e-08
5.6691e-08
5.65761e-08
5.64511e-08
5.63488e-08
5.62384e-08
5.61513e-08
5.60525e-08
5.5974e-08
5.58914e-08
5.58254e-08
5.57451e-08
5.56848e-08
5.56151e-08
5.55714e-08
5.55034e-08
5.54486e-08
5.53967e-08
5.5345e-08
5.52925e-08
5.52633e-08
5.5216e-08
5.51785e-08
5.51309e-08
5.50963e-08
5.50484e-08
5.50195e-08
5.49741e-08
5.4945e-08
5.49069e-08
5.48939e-08
5.48753e-08
5.48725e-08
5.48567e-08
5.48524e-08
5.4844e-08
5.48388e-08
5.48334e-08
5.48293e-08
5.48275e-08
5.48281e-08
5.48296e-08
5.48344e-08
5.4837e-08
5.48442e-08
5.48481e-08
5.48582e-08
5.4863e-08
5.48774e-08
5.48801e-08
5.48989e-08
5.48871e-08
5.53132e-08
3.36091e-06
2.30975e-08
1.2503e-07
1.20999e-07
1.13619e-07
1.05757e-07
9.87663e-08
9.29459e-08
8.81389e-08
8.41817e-08
8.08654e-08
7.8086e-08
7.57047e-08
7.36731e-08
7.1898e-08
7.03645e-08
6.89987e-08
6.7808e-08
6.67316e-08
6.57876e-08
6.49225e-08
6.41603e-08
6.34525e-08
6.28284e-08
6.22405e-08
6.17213e-08
6.12276e-08
6.07926e-08
6.03746e-08
6.00046e-08
5.96477e-08
5.93344e-08
5.90255e-08
5.87554e-08
5.84884e-08
5.82569e-08
5.80257e-08
5.78257e-08
5.76221e-08
5.74486e-08
5.72697e-08
5.71177e-08
5.69599e-08
5.68264e-08
5.66868e-08
5.65718e-08
5.64467e-08
5.63443e-08
5.62338e-08
5.61466e-08
5.60478e-08
5.59692e-08
5.58865e-08
5.58204e-08
5.57401e-08
5.56797e-08
5.56099e-08
5.55662e-08
5.54981e-08
5.54434e-08
5.53914e-08
5.53396e-08
5.52871e-08
5.52578e-08
5.52104e-08
5.5173e-08
5.51253e-08
5.50907e-08
5.50428e-08
5.50139e-08
5.49684e-08
5.49393e-08
5.49011e-08
5.4888e-08
5.48694e-08
5.48664e-08
5.48507e-08
5.48463e-08
5.48379e-08
5.48327e-08
5.48272e-08
5.48231e-08
5.48213e-08
5.48218e-08
5.48233e-08
5.4828e-08
5.48306e-08
5.48377e-08
5.48416e-08
5.48517e-08
5.48565e-08
5.48708e-08
5.48735e-08
5.48923e-08
5.48803e-08
5.53082e-08
3.36096e-06
2.3397e-08
1.25029e-07
1.21007e-07
1.13636e-07
1.05778e-07
9.87884e-08
9.2967e-08
8.81582e-08
8.41991e-08
8.08808e-08
7.80995e-08
7.57164e-08
7.36833e-08
7.19067e-08
7.03719e-08
6.90049e-08
6.78131e-08
6.67358e-08
6.57909e-08
6.4925e-08
6.41621e-08
6.34536e-08
6.28289e-08
6.22404e-08
6.17207e-08
6.12265e-08
6.07911e-08
6.03727e-08
6.00023e-08
5.96451e-08
5.93314e-08
5.90222e-08
5.87518e-08
5.84845e-08
5.82528e-08
5.80214e-08
5.78211e-08
5.76173e-08
5.74436e-08
5.72645e-08
5.71123e-08
5.69544e-08
5.68207e-08
5.66809e-08
5.65658e-08
5.64406e-08
5.63381e-08
5.62274e-08
5.61401e-08
5.60411e-08
5.59625e-08
5.58796e-08
5.58135e-08
5.57331e-08
5.56726e-08
5.56027e-08
5.55589e-08
5.54908e-08
5.5436e-08
5.53839e-08
5.53321e-08
5.52795e-08
5.52501e-08
5.52027e-08
5.51653e-08
5.51175e-08
5.50829e-08
5.50349e-08
5.50059e-08
5.49604e-08
5.49313e-08
5.4893e-08
5.48797e-08
5.48611e-08
5.4858e-08
5.48422e-08
5.48378e-08
5.48293e-08
5.4824e-08
5.48185e-08
5.48144e-08
5.48125e-08
5.48129e-08
5.48144e-08
5.4819e-08
5.48216e-08
5.48287e-08
5.48325e-08
5.48425e-08
5.48473e-08
5.48616e-08
5.48642e-08
5.48829e-08
5.48709e-08
5.53011e-08
3.36103e-06
2.3732e-08
1.25028e-07
1.21018e-07
1.13657e-07
1.05806e-07
9.88172e-08
9.29945e-08
8.81834e-08
8.42217e-08
8.09008e-08
7.8117e-08
7.57316e-08
7.36965e-08
7.1918e-08
7.03816e-08
6.9013e-08
6.78199e-08
6.67412e-08
6.57953e-08
6.49283e-08
6.41644e-08
6.34551e-08
6.28296e-08
6.22404e-08
6.172e-08
6.12252e-08
6.07893e-08
6.03703e-08
5.99994e-08
5.96417e-08
5.93276e-08
5.9018e-08
5.87472e-08
5.84795e-08
5.82475e-08
5.80158e-08
5.78152e-08
5.76111e-08
5.74372e-08
5.72578e-08
5.71055e-08
5.69473e-08
5.68134e-08
5.66734e-08
5.65581e-08
5.64327e-08
5.633e-08
5.62191e-08
5.61317e-08
5.60326e-08
5.59538e-08
5.58708e-08
5.58045e-08
5.5724e-08
5.56634e-08
5.55934e-08
5.55496e-08
5.54813e-08
5.54265e-08
5.53743e-08
5.53224e-08
5.52697e-08
5.52403e-08
5.51927e-08
5.51553e-08
5.51075e-08
5.50728e-08
5.50247e-08
5.49957e-08
5.49502e-08
5.4921e-08
5.48826e-08
5.4869e-08
5.48503e-08
5.48471e-08
5.48313e-08
5.48268e-08
5.48182e-08
5.48129e-08
5.48073e-08
5.48031e-08
5.48011e-08
5.48015e-08
5.48029e-08
5.48075e-08
5.481e-08
5.4817e-08
5.48208e-08
5.48307e-08
5.48354e-08
5.48496e-08
5.48522e-08
5.48709e-08
5.48587e-08
5.52919e-08
3.36114e-06
2.40988e-08
1.25027e-07
1.2103e-07
1.13684e-07
1.0584e-07
9.88526e-08
9.30284e-08
8.82145e-08
8.42496e-08
8.09255e-08
7.81387e-08
7.57506e-08
7.37129e-08
7.19321e-08
7.03936e-08
6.90231e-08
6.78283e-08
6.67481e-08
6.58007e-08
6.49325e-08
6.41674e-08
6.34571e-08
6.28305e-08
6.22404e-08
6.17192e-08
6.12237e-08
6.0787e-08
6.03673e-08
5.99959e-08
5.96376e-08
5.9323e-08
5.90129e-08
5.87416e-08
5.84735e-08
5.82411e-08
5.80089e-08
5.78081e-08
5.76035e-08
5.74294e-08
5.72497e-08
5.7097e-08
5.69385e-08
5.68044e-08
5.66641e-08
5.65486e-08
5.6423e-08
5.63201e-08
5.6209e-08
5.61215e-08
5.60221e-08
5.59432e-08
5.58599e-08
5.57935e-08
5.57129e-08
5.56521e-08
5.5582e-08
5.5538e-08
5.54696e-08
5.54149e-08
5.53624e-08
5.53105e-08
5.52577e-08
5.52282e-08
5.51805e-08
5.5143e-08
5.50951e-08
5.50604e-08
5.50122e-08
5.49831e-08
5.49376e-08
5.49083e-08
5.48697e-08
5.48559e-08
5.48372e-08
5.48338e-08
5.48178e-08
5.48132e-08
5.48045e-08
5.47992e-08
5.47935e-08
5.47892e-08
5.47872e-08
5.47874e-08
5.47888e-08
5.47933e-08
5.47958e-08
5.48026e-08
5.48063e-08
5.48162e-08
5.48208e-08
5.48349e-08
5.48375e-08
5.4856e-08
5.48438e-08
5.52806e-08
3.36134e-06
2.44979e-08
1.25026e-07
1.21045e-07
1.13716e-07
1.05881e-07
9.88949e-08
9.30688e-08
8.82516e-08
8.42829e-08
8.09551e-08
7.81647e-08
7.57732e-08
7.37325e-08
7.1949e-08
7.0408e-08
6.90353e-08
6.78384e-08
6.67564e-08
6.58073e-08
6.49375e-08
6.41711e-08
6.34594e-08
6.28317e-08
6.22405e-08
6.17184e-08
6.12219e-08
6.07844e-08
6.03639e-08
5.99917e-08
5.96327e-08
5.93175e-08
5.90068e-08
5.8735e-08
5.84664e-08
5.82335e-08
5.80008e-08
5.77995e-08
5.75946e-08
5.742e-08
5.724e-08
5.7087e-08
5.69282e-08
5.67937e-08
5.66532e-08
5.65374e-08
5.64115e-08
5.63084e-08
5.6197e-08
5.61092e-08
5.60097e-08
5.59305e-08
5.5847e-08
5.57805e-08
5.56996e-08
5.56388e-08
5.55684e-08
5.55244e-08
5.54558e-08
5.5401e-08
5.53484e-08
5.52964e-08
5.52434e-08
5.52137e-08
5.51659e-08
5.51284e-08
5.50803e-08
5.50456e-08
5.49973e-08
5.49682e-08
5.49226e-08
5.48932e-08
5.48544e-08
5.48403e-08
5.48215e-08
5.48179e-08
5.48018e-08
5.47971e-08
5.47883e-08
5.47829e-08
5.47771e-08
5.47727e-08
5.47706e-08
5.47707e-08
5.4772e-08
5.47763e-08
5.47788e-08
5.47855e-08
5.47892e-08
5.47989e-08
5.48035e-08
5.48175e-08
5.482e-08
5.48384e-08
5.48259e-08
5.52672e-08
3.36168e-06
2.49324e-08
1.25024e-07
1.21062e-07
1.13753e-07
1.05928e-07
9.89441e-08
9.3116e-08
8.8295e-08
8.43219e-08
8.09896e-08
7.81951e-08
7.57997e-08
7.37555e-08
7.19688e-08
7.04249e-08
6.90496e-08
6.78503e-08
6.67661e-08
6.58151e-08
6.49435e-08
6.41755e-08
6.34623e-08
6.28332e-08
6.22408e-08
6.17174e-08
6.12199e-08
6.07814e-08
6.036e-08
5.9987e-08
5.96271e-08
5.93112e-08
5.89998e-08
5.87274e-08
5.84581e-08
5.82246e-08
5.79914e-08
5.77896e-08
5.75842e-08
5.74092e-08
5.72287e-08
5.70753e-08
5.69161e-08
5.67814e-08
5.66404e-08
5.65243e-08
5.63981e-08
5.62948e-08
5.61831e-08
5.6095e-08
5.59952e-08
5.59158e-08
5.5832e-08
5.57653e-08
5.56842e-08
5.56232e-08
5.55526e-08
5.55084e-08
5.54397e-08
5.53849e-08
5.5332e-08
5.52799e-08
5.52268e-08
5.5197e-08
5.5149e-08
5.51114e-08
5.50632e-08
5.50284e-08
5.498e-08
5.49508e-08
5.49051e-08
5.48756e-08
5.48366e-08
5.48222e-08
5.48032e-08
5.47993e-08
5.47832e-08
5.47784e-08
5.47694e-08
5.47639e-08
5.4758e-08
5.47535e-08
5.47513e-08
5.47513e-08
5.47525e-08
5.47566e-08
5.4759e-08
5.47656e-08
5.47692e-08
5.47788e-08
5.47833e-08
5.47971e-08
5.47995e-08
5.48178e-08
5.48052e-08
5.52516e-08
3.36218e-06
2.54081e-08
1.25022e-07
1.21082e-07
1.13795e-07
1.05981e-07
9.90004e-08
9.31701e-08
8.83447e-08
8.43666e-08
8.10293e-08
7.823e-08
7.58302e-08
7.37819e-08
7.19915e-08
7.04443e-08
6.9066e-08
6.7864e-08
6.67773e-08
6.58241e-08
6.49505e-08
6.41805e-08
6.34656e-08
6.2835e-08
6.22411e-08
6.17165e-08
6.12177e-08
6.0778e-08
6.03556e-08
5.99816e-08
5.96208e-08
5.93041e-08
5.89919e-08
5.87187e-08
5.84487e-08
5.82146e-08
5.79807e-08
5.77784e-08
5.75724e-08
5.73969e-08
5.72159e-08
5.70621e-08
5.69024e-08
5.67672e-08
5.66259e-08
5.65094e-08
5.63829e-08
5.62792e-08
5.61671e-08
5.60788e-08
5.59787e-08
5.5899e-08
5.58149e-08
5.5748e-08
5.56667e-08
5.56054e-08
5.55345e-08
5.54902e-08
5.54213e-08
5.53665e-08
5.53133e-08
5.52611e-08
5.52079e-08
5.51778e-08
5.51296e-08
5.5092e-08
5.50436e-08
5.50087e-08
5.49602e-08
5.49309e-08
5.48852e-08
5.48556e-08
5.48163e-08
5.48015e-08
5.47824e-08
5.47782e-08
5.47619e-08
5.47569e-08
5.47478e-08
5.47422e-08
5.47362e-08
5.47315e-08
5.47292e-08
5.4729e-08
5.47301e-08
5.47341e-08
5.47364e-08
5.47428e-08
5.47463e-08
5.47558e-08
5.47602e-08
5.47739e-08
5.47762e-08
5.47943e-08
5.47814e-08
5.52339e-08
3.36287e-06
2.59325e-08
1.2502e-07
1.21104e-07
1.13843e-07
1.06042e-07
9.90639e-08
9.32311e-08
8.84009e-08
8.44172e-08
8.10742e-08
7.82695e-08
7.58648e-08
7.38119e-08
7.20174e-08
7.04664e-08
6.90847e-08
6.78796e-08
6.67901e-08
6.58344e-08
6.49584e-08
6.41864e-08
6.34695e-08
6.28372e-08
6.22416e-08
6.17155e-08
6.12153e-08
6.07744e-08
6.03507e-08
5.99756e-08
5.96138e-08
5.92961e-08
5.8983e-08
5.8709e-08
5.84381e-08
5.82033e-08
5.79687e-08
5.77658e-08
5.75591e-08
5.73831e-08
5.72014e-08
5.70472e-08
5.68869e-08
5.67514e-08
5.66095e-08
5.64927e-08
5.63657e-08
5.62617e-08
5.61492e-08
5.60605e-08
5.59601e-08
5.58801e-08
5.57956e-08
5.57285e-08
5.56468e-08
5.55854e-08
5.55142e-08
5.54697e-08
5.54005e-08
5.53458e-08
5.52922e-08
5.524e-08
5.51865e-08
5.51562e-08
5.51077e-08
5.50701e-08
5.50215e-08
5.49866e-08
5.49379e-08
5.49084e-08
5.48627e-08
5.48329e-08
5.47934e-08
5.47782e-08
5.47589e-08
5.47543e-08
5.47379e-08
5.47328e-08
5.47235e-08
5.47177e-08
5.47115e-08
5.47068e-08
5.47043e-08
5.47039e-08
5.47049e-08
5.47087e-08
5.47109e-08
5.47172e-08
5.47206e-08
5.47298e-08
5.47341e-08
5.47476e-08
5.47498e-08
5.47678e-08
5.47547e-08
5.5214e-08
3.36376e-06
2.65144e-08
1.25017e-07
1.21128e-07
1.13895e-07
1.06109e-07
9.91347e-08
9.32992e-08
8.84637e-08
8.44738e-08
8.11246e-08
7.83138e-08
7.59035e-08
7.38456e-08
7.20464e-08
7.04913e-08
6.91057e-08
6.78972e-08
6.68046e-08
6.5846e-08
6.49674e-08
6.41931e-08
6.3474e-08
6.28397e-08
6.22423e-08
6.17145e-08
6.12127e-08
6.07704e-08
6.03454e-08
5.99691e-08
5.9606e-08
5.92873e-08
5.89731e-08
5.86982e-08
5.84264e-08
5.81908e-08
5.79554e-08
5.77517e-08
5.75443e-08
5.73677e-08
5.71854e-08
5.70306e-08
5.68698e-08
5.67337e-08
5.65913e-08
5.6474e-08
5.63466e-08
5.62421e-08
5.61292e-08
5.60402e-08
5.59393e-08
5.5859e-08
5.57741e-08
5.57067e-08
5.56248e-08
5.55631e-08
5.54915e-08
5.54469e-08
5.53774e-08
5.53226e-08
5.52687e-08
5.52163e-08
5.51627e-08
5.51321e-08
5.50833e-08
5.50456e-08
5.49969e-08
5.49619e-08
5.4913e-08
5.48834e-08
5.48376e-08
5.48077e-08
5.47679e-08
5.47522e-08
5.47327e-08
5.47277e-08
5.47112e-08
5.47058e-08
5.46963e-08
5.46904e-08
5.46841e-08
5.46792e-08
5.46766e-08
5.4676e-08
5.46768e-08
5.46804e-08
5.46825e-08
5.46885e-08
5.46918e-08
5.47008e-08
5.4705e-08
5.47183e-08
5.47204e-08
5.47382e-08
5.47248e-08
5.51919e-08
3.36484e-06
2.71637e-08
1.25014e-07
1.21155e-07
1.13953e-07
1.06184e-07
9.9213e-08
9.33747e-08
8.85333e-08
8.45366e-08
8.11804e-08
7.83631e-08
7.59466e-08
7.38831e-08
7.20787e-08
7.0519e-08
6.91292e-08
6.79169e-08
6.68208e-08
6.5859e-08
6.49776e-08
6.42006e-08
6.34791e-08
6.28426e-08
6.22432e-08
6.17135e-08
6.121e-08
6.0766e-08
6.03395e-08
5.99619e-08
5.95975e-08
5.92776e-08
5.89623e-08
5.86864e-08
5.84136e-08
5.8177e-08
5.79407e-08
5.77363e-08
5.75281e-08
5.73507e-08
5.71677e-08
5.70123e-08
5.68508e-08
5.67142e-08
5.65712e-08
5.64534e-08
5.63254e-08
5.62206e-08
5.61072e-08
5.60177e-08
5.59165e-08
5.58357e-08
5.57504e-08
5.56827e-08
5.56004e-08
5.55384e-08
5.54665e-08
5.54216e-08
5.53518e-08
5.5297e-08
5.52427e-08
5.51902e-08
5.51363e-08
5.51054e-08
5.50564e-08
5.50187e-08
5.49696e-08
5.49345e-08
5.48855e-08
5.48557e-08
5.48099e-08
5.47798e-08
5.47397e-08
5.47235e-08
5.47037e-08
5.46982e-08
5.46817e-08
5.4676e-08
5.46663e-08
5.46602e-08
5.46537e-08
5.46486e-08
5.46459e-08
5.4645e-08
5.46457e-08
5.46491e-08
5.4651e-08
5.46568e-08
5.466e-08
5.46688e-08
5.46729e-08
5.4686e-08
5.46879e-08
5.47054e-08
5.46918e-08
5.51674e-08
3.36607e-06
2.78913e-08
1.25011e-07
1.21183e-07
1.14016e-07
1.06265e-07
9.92989e-08
9.34576e-08
8.86099e-08
8.46057e-08
8.1242e-08
7.84174e-08
7.59942e-08
7.39245e-08
7.21145e-08
7.05496e-08
6.91552e-08
6.79387e-08
6.68388e-08
6.58736e-08
6.49889e-08
6.42091e-08
6.34849e-08
6.2846e-08
6.22443e-08
6.17126e-08
6.12071e-08
6.07615e-08
6.03333e-08
5.99542e-08
5.95883e-08
5.92671e-08
5.89506e-08
5.86735e-08
5.83996e-08
5.8162e-08
5.79247e-08
5.77194e-08
5.75103e-08
5.73322e-08
5.71484e-08
5.69923e-08
5.68301e-08
5.66929e-08
5.65492e-08
5.64309e-08
5.63023e-08
5.6197e-08
5.60831e-08
5.59931e-08
5.58914e-08
5.58103e-08
5.57244e-08
5.56564e-08
5.55737e-08
5.55114e-08
5.5439e-08
5.5394e-08
5.53238e-08
5.5269e-08
5.52142e-08
5.51616e-08
5.51074e-08
5.50762e-08
5.50269e-08
5.49891e-08
5.49398e-08
5.49046e-08
5.48553e-08
5.48254e-08
5.47794e-08
5.47492e-08
5.47088e-08
5.4692e-08
5.4672e-08
5.4666e-08
5.46493e-08
5.46434e-08
5.46334e-08
5.46272e-08
5.46204e-08
5.46151e-08
5.46122e-08
5.46111e-08
5.46116e-08
5.46147e-08
5.46165e-08
5.46221e-08
5.46251e-08
5.46337e-08
5.46376e-08
5.46504e-08
5.46522e-08
5.46695e-08
5.46555e-08
5.51407e-08
3.36737e-06
2.87087e-08
1.25007e-07
1.21214e-07
1.14085e-07
1.06354e-07
9.93924e-08
9.3548e-08
8.86936e-08
8.46814e-08
8.13094e-08
7.84769e-08
7.60463e-08
7.39699e-08
7.21537e-08
7.05833e-08
6.91839e-08
6.79628e-08
6.68587e-08
6.58897e-08
6.50016e-08
6.42185e-08
6.34915e-08
6.28499e-08
6.22457e-08
6.17118e-08
6.12042e-08
6.07566e-08
6.03267e-08
5.99459e-08
5.95785e-08
5.92558e-08
5.89379e-08
5.86596e-08
5.83845e-08
5.81458e-08
5.79074e-08
5.77011e-08
5.74911e-08
5.73121e-08
5.71274e-08
5.69706e-08
5.68076e-08
5.66697e-08
5.65253e-08
5.64064e-08
5.62772e-08
5.61714e-08
5.60568e-08
5.59664e-08
5.58641e-08
5.57825e-08
5.56961e-08
5.56278e-08
5.55446e-08
5.5482e-08
5.54092e-08
5.53638e-08
5.52933e-08
5.52384e-08
5.51832e-08
5.51304e-08
5.50759e-08
5.50444e-08
5.49947e-08
5.49568e-08
5.49073e-08
5.48719e-08
5.48225e-08
5.47923e-08
5.47463e-08
5.47159e-08
5.46751e-08
5.46578e-08
5.46374e-08
5.46308e-08
5.4614e-08
5.46078e-08
5.45975e-08
5.45911e-08
5.45841e-08
5.45786e-08
5.45755e-08
5.45741e-08
5.45745e-08
5.45773e-08
5.45789e-08
5.45842e-08
5.45871e-08
5.45954e-08
5.45991e-08
5.46117e-08
5.46133e-08
5.46303e-08
5.4616e-08
5.51115e-08
3.36863e-06
2.96278e-08
1.25003e-07
1.21247e-07
1.14158e-07
1.06449e-07
9.94938e-08
9.36462e-08
8.87845e-08
8.47637e-08
8.13828e-08
7.85418e-08
7.61033e-08
7.40195e-08
7.21967e-08
7.06202e-08
6.92153e-08
6.79892e-08
6.68805e-08
6.59074e-08
6.50155e-08
6.42291e-08
6.34988e-08
6.28544e-08
6.22475e-08
6.17111e-08
6.12013e-08
6.07516e-08
6.03197e-08
5.99371e-08
5.95679e-08
5.92437e-08
5.89243e-08
5.86447e-08
5.83682e-08
5.81284e-08
5.78887e-08
5.76814e-08
5.74703e-08
5.72904e-08
5.71048e-08
5.69471e-08
5.67833e-08
5.66447e-08
5.64995e-08
5.638e-08
5.62501e-08
5.61436e-08
5.60284e-08
5.59375e-08
5.58346e-08
5.57525e-08
5.56655e-08
5.55968e-08
5.55132e-08
5.54502e-08
5.53768e-08
5.53312e-08
5.52603e-08
5.52054e-08
5.51496e-08
5.50967e-08
5.50419e-08
5.501e-08
5.49599e-08
5.49219e-08
5.4872e-08
5.48366e-08
5.47869e-08
5.47565e-08
5.47104e-08
5.46798e-08
5.46387e-08
5.46207e-08
5.45999e-08
5.45927e-08
5.45758e-08
5.45692e-08
5.45586e-08
5.4552e-08
5.45448e-08
5.45391e-08
5.45357e-08
5.4534e-08
5.45342e-08
5.45367e-08
5.45382e-08
5.45432e-08
5.45459e-08
5.45539e-08
5.45574e-08
5.45697e-08
5.45712e-08
5.45878e-08
5.45731e-08
5.50799e-08
3.36967e-06
3.06612e-08
1.24999e-07
1.21283e-07
1.14237e-07
1.06552e-07
9.96031e-08
9.37523e-08
8.8883e-08
8.48528e-08
8.14624e-08
7.86123e-08
7.61651e-08
7.40735e-08
7.22434e-08
7.06604e-08
6.92495e-08
6.80181e-08
6.69045e-08
6.59269e-08
6.50309e-08
6.42407e-08
6.3507e-08
6.28595e-08
6.22497e-08
6.17107e-08
6.11983e-08
6.07464e-08
6.03123e-08
5.99278e-08
5.95568e-08
5.92309e-08
5.89098e-08
5.86288e-08
5.83508e-08
5.81097e-08
5.78687e-08
5.76603e-08
5.74481e-08
5.72671e-08
5.70805e-08
5.69219e-08
5.67572e-08
5.66178e-08
5.64718e-08
5.63515e-08
5.62209e-08
5.61138e-08
5.59979e-08
5.59064e-08
5.58029e-08
5.57203e-08
5.56326e-08
5.55634e-08
5.54793e-08
5.54159e-08
5.5342e-08
5.52961e-08
5.52247e-08
5.51697e-08
5.51134e-08
5.50603e-08
5.50051e-08
5.49728e-08
5.49223e-08
5.48843e-08
5.4834e-08
5.47985e-08
5.47485e-08
5.47179e-08
5.46716e-08
5.46408e-08
5.45994e-08
5.45808e-08
5.45596e-08
5.45516e-08
5.45346e-08
5.45276e-08
5.45168e-08
5.45099e-08
5.45024e-08
5.44964e-08
5.44928e-08
5.44908e-08
5.44907e-08
5.44929e-08
5.44942e-08
5.44989e-08
5.45014e-08
5.45091e-08
5.45125e-08
5.45245e-08
5.45257e-08
5.45419e-08
5.45269e-08
5.50459e-08
3.37027e-06
3.18214e-08
1.24994e-07
1.2132e-07
1.14321e-07
1.06662e-07
9.97205e-08
9.38664e-08
8.8989e-08
8.4949e-08
8.15484e-08
7.86884e-08
7.62321e-08
7.4132e-08
7.22941e-08
7.07041e-08
6.92868e-08
6.80496e-08
6.69306e-08
6.59482e-08
6.50478e-08
6.42536e-08
6.35162e-08
6.28653e-08
6.22524e-08
6.17105e-08
6.11955e-08
6.07411e-08
6.03047e-08
5.99181e-08
5.9545e-08
5.92173e-08
5.88945e-08
5.86119e-08
5.83323e-08
5.80898e-08
5.78475e-08
5.76378e-08
5.74243e-08
5.72423e-08
5.70546e-08
5.6895e-08
5.67293e-08
5.65891e-08
5.64421e-08
5.63211e-08
5.61896e-08
5.60819e-08
5.59652e-08
5.5873e-08
5.57689e-08
5.56857e-08
5.55973e-08
5.55276e-08
5.5443e-08
5.53792e-08
5.53046e-08
5.52584e-08
5.51865e-08
5.51315e-08
5.50746e-08
5.50212e-08
5.49658e-08
5.4933e-08
5.4882e-08
5.48439e-08
5.47933e-08
5.47576e-08
5.47073e-08
5.46765e-08
5.46301e-08
5.45991e-08
5.45574e-08
5.4538e-08
5.45163e-08
5.45074e-08
5.44904e-08
5.4483e-08
5.44718e-08
5.44647e-08
5.44569e-08
5.44506e-08
5.44468e-08
5.44444e-08
5.44441e-08
5.44459e-08
5.4447e-08
5.44513e-08
5.44537e-08
5.4461e-08
5.44642e-08
5.44758e-08
5.44768e-08
5.44926e-08
5.44773e-08
5.50092e-08
3.37013e-06
3.31213e-08
1.24989e-07
1.21359e-07
1.14411e-07
1.06779e-07
9.9846e-08
9.39887e-08
8.91029e-08
8.50525e-08
8.1641e-08
7.87705e-08
7.63043e-08
7.41952e-08
7.2349e-08
7.07514e-08
6.93272e-08
6.80837e-08
6.69591e-08
6.59715e-08
6.50663e-08
6.42679e-08
6.35264e-08
6.28719e-08
6.22556e-08
6.17107e-08
6.11927e-08
6.07357e-08
6.02968e-08
5.9908e-08
5.95327e-08
5.9203e-08
5.88784e-08
5.8594e-08
5.83128e-08
5.80687e-08
5.78249e-08
5.76139e-08
5.73991e-08
5.72159e-08
5.7027e-08
5.68664e-08
5.66996e-08
5.65585e-08
5.64105e-08
5.62887e-08
5.61563e-08
5.60479e-08
5.59303e-08
5.58375e-08
5.57326e-08
5.56488e-08
5.55597e-08
5.54895e-08
5.54042e-08
5.534e-08
5.52648e-08
5.52181e-08
5.51458e-08
5.50906e-08
5.50332e-08
5.49796e-08
5.49237e-08
5.48904e-08
5.4839e-08
5.48007e-08
5.47497e-08
5.47138e-08
5.46632e-08
5.46321e-08
5.45856e-08
5.45544e-08
5.45124e-08
5.44923e-08
5.447e-08
5.44602e-08
5.44432e-08
5.44353e-08
5.44237e-08
5.44164e-08
5.44082e-08
5.44017e-08
5.43975e-08
5.43947e-08
5.43942e-08
5.43957e-08
5.43966e-08
5.44005e-08
5.44026e-08
5.44095e-08
5.44125e-08
5.44238e-08
5.44246e-08
5.44399e-08
5.44242e-08
5.497e-08
3.36891e-06
3.45738e-08
1.24983e-07
1.214e-07
1.14505e-07
1.06904e-07
9.99798e-08
9.41195e-08
8.92248e-08
8.51633e-08
8.17404e-08
7.88587e-08
7.6382e-08
7.42632e-08
7.24081e-08
7.08025e-08
6.93709e-08
6.81207e-08
6.699e-08
6.59969e-08
6.50866e-08
6.42835e-08
6.35378e-08
6.28793e-08
6.22594e-08
6.17112e-08
6.11902e-08
6.07303e-08
6.02888e-08
5.98975e-08
5.95199e-08
5.91881e-08
5.88614e-08
5.85752e-08
5.82922e-08
5.80465e-08
5.7801e-08
5.75887e-08
5.73724e-08
5.7188e-08
5.69978e-08
5.68361e-08
5.66681e-08
5.6526e-08
5.6377e-08
5.62543e-08
5.6121e-08
5.60117e-08
5.58933e-08
5.57997e-08
5.56941e-08
5.56096e-08
5.55196e-08
5.54489e-08
5.5363e-08
5.52982e-08
5.52223e-08
5.51753e-08
5.51024e-08
5.50471e-08
5.4989e-08
5.49352e-08
5.48789e-08
5.48451e-08
5.47931e-08
5.47548e-08
5.47033e-08
5.46673e-08
5.46163e-08
5.4585e-08
5.45383e-08
5.45068e-08
5.44646e-08
5.44437e-08
5.44208e-08
5.441e-08
5.43929e-08
5.43845e-08
5.43725e-08
5.43649e-08
5.43564e-08
5.43495e-08
5.4345e-08
5.43419e-08
5.43411e-08
5.43421e-08
5.43428e-08
5.43463e-08
5.43482e-08
5.43547e-08
5.43575e-08
5.43684e-08
5.43689e-08
5.43836e-08
5.43676e-08
5.49279e-08
3.36617e-06
3.61921e-08
1.24977e-07
1.21443e-07
1.14605e-07
1.07036e-07
1.00122e-07
9.42587e-08
8.93548e-08
8.52818e-08
8.18467e-08
7.89532e-08
7.64653e-08
7.43362e-08
7.24717e-08
7.08575e-08
6.9418e-08
6.81607e-08
6.70235e-08
6.60244e-08
6.51087e-08
6.43007e-08
6.35504e-08
6.28877e-08
6.2264e-08
6.17123e-08
6.11879e-08
6.0725e-08
6.02806e-08
5.98868e-08
5.95066e-08
5.91726e-08
5.88437e-08
5.85556e-08
5.82706e-08
5.80232e-08
5.7776e-08
5.75621e-08
5.73443e-08
5.71585e-08
5.6967e-08
5.68041e-08
5.66349e-08
5.64917e-08
5.63415e-08
5.62178e-08
5.60836e-08
5.59735e-08
5.58541e-08
5.57597e-08
5.56533e-08
5.5568e-08
5.54772e-08
5.54059e-08
5.53193e-08
5.5254e-08
5.51774e-08
5.51298e-08
5.50564e-08
5.50009e-08
5.49422e-08
5.48881e-08
5.48313e-08
5.4797e-08
5.47445e-08
5.4706e-08
5.4654e-08
5.46178e-08
5.45665e-08
5.45348e-08
5.4488e-08
5.44563e-08
5.44139e-08
5.43921e-08
5.43685e-08
5.43567e-08
5.43396e-08
5.43306e-08
5.43182e-08
5.43102e-08
5.43013e-08
5.42941e-08
5.42893e-08
5.42857e-08
5.42846e-08
5.42852e-08
5.42856e-08
5.42887e-08
5.42904e-08
5.42964e-08
5.4299e-08
5.43094e-08
5.43097e-08
5.43238e-08
5.43075e-08
5.48831e-08
3.36141e-06
3.79886e-08
1.24971e-07
1.21488e-07
1.1471e-07
1.07176e-07
1.00273e-07
9.44066e-08
8.94933e-08
8.54082e-08
8.19602e-08
7.90543e-08
7.65545e-08
7.44145e-08
7.25399e-08
7.09165e-08
6.94687e-08
6.82039e-08
6.70597e-08
6.60543e-08
6.51328e-08
6.43195e-08
6.35643e-08
6.28972e-08
6.22694e-08
6.17139e-08
6.11859e-08
6.07198e-08
6.02724e-08
5.98758e-08
5.94929e-08
5.91565e-08
5.88253e-08
5.85351e-08
5.8248e-08
5.79988e-08
5.77497e-08
5.75342e-08
5.73148e-08
5.71276e-08
5.69345e-08
5.67704e-08
5.65999e-08
5.64556e-08
5.63042e-08
5.61795e-08
5.60441e-08
5.59331e-08
5.58127e-08
5.57175e-08
5.56102e-08
5.55242e-08
5.54324e-08
5.53605e-08
5.52731e-08
5.52073e-08
5.51298e-08
5.50818e-08
5.50078e-08
5.49521e-08
5.48927e-08
5.48383e-08
5.4781e-08
5.47462e-08
5.4693e-08
5.46544e-08
5.46019e-08
5.45655e-08
5.45138e-08
5.44818e-08
5.44348e-08
5.44028e-08
5.43602e-08
5.43376e-08
5.43132e-08
5.43003e-08
5.42832e-08
5.42735e-08
5.42607e-08
5.42523e-08
5.4243e-08
5.42354e-08
5.42302e-08
5.42262e-08
5.42248e-08
5.42249e-08
5.42251e-08
5.42277e-08
5.42292e-08
5.42347e-08
5.4237e-08
5.4247e-08
5.4247e-08
5.42604e-08
5.42437e-08
5.48352e-08
3.35407e-06
3.99752e-08
1.24964e-07
1.21535e-07
1.14819e-07
1.07323e-07
1.00432e-07
9.45634e-08
8.96404e-08
8.55426e-08
8.20812e-08
7.9162e-08
7.66498e-08
7.44983e-08
7.2613e-08
7.09799e-08
6.95232e-08
6.82504e-08
6.70987e-08
6.60867e-08
6.5159e-08
6.43401e-08
6.35797e-08
6.29079e-08
6.22756e-08
6.17161e-08
6.11844e-08
6.07149e-08
6.02642e-08
5.98647e-08
5.94789e-08
5.914e-08
5.88063e-08
5.85138e-08
5.82246e-08
5.79733e-08
5.77223e-08
5.75051e-08
5.72839e-08
5.70952e-08
5.69006e-08
5.67351e-08
5.65631e-08
5.64177e-08
5.62649e-08
5.61391e-08
5.60026e-08
5.58907e-08
5.57692e-08
5.56731e-08
5.55648e-08
5.5478e-08
5.53852e-08
5.53126e-08
5.52245e-08
5.51581e-08
5.50797e-08
5.50311e-08
5.49565e-08
5.49005e-08
5.48405e-08
5.47857e-08
5.47279e-08
5.46925e-08
5.46387e-08
5.46e-08
5.45469e-08
5.45103e-08
5.44581e-08
5.44258e-08
5.43786e-08
5.43464e-08
5.43035e-08
5.42801e-08
5.42548e-08
5.4241e-08
5.42236e-08
5.42132e-08
5.41999e-08
5.41912e-08
5.41814e-08
5.41735e-08
5.41679e-08
5.41634e-08
5.41617e-08
5.41612e-08
5.41612e-08
5.41632e-08
5.41645e-08
5.41695e-08
5.41715e-08
5.4181e-08
5.41807e-08
5.41933e-08
5.41764e-08
5.47843e-08
3.34352e-06
4.21627e-08
1.24956e-07
1.21583e-07
1.14934e-07
1.07478e-07
1.006e-07
9.47292e-08
8.97962e-08
8.56852e-08
8.22098e-08
7.92768e-08
7.67514e-08
7.45877e-08
7.26911e-08
7.10478e-08
6.95817e-08
6.83003e-08
6.71409e-08
6.61217e-08
6.51874e-08
6.43626e-08
6.35967e-08
6.29199e-08
6.22829e-08
6.17192e-08
6.11835e-08
6.07103e-08
6.02561e-08
5.98535e-08
5.94647e-08
5.9123e-08
5.87867e-08
5.84919e-08
5.82003e-08
5.79469e-08
5.76938e-08
5.74747e-08
5.72517e-08
5.70613e-08
5.68651e-08
5.66981e-08
5.65247e-08
5.6378e-08
5.62238e-08
5.60969e-08
5.59592e-08
5.58462e-08
5.57235e-08
5.56265e-08
5.55172e-08
5.54295e-08
5.53356e-08
5.52624e-08
5.51734e-08
5.51063e-08
5.50271e-08
5.49779e-08
5.49026e-08
5.48464e-08
5.47855e-08
5.47305e-08
5.46721e-08
5.4636e-08
5.45815e-08
5.45427e-08
5.4489e-08
5.44521e-08
5.43996e-08
5.43669e-08
5.43194e-08
5.42869e-08
5.42438e-08
5.42197e-08
5.41934e-08
5.41785e-08
5.41609e-08
5.41497e-08
5.4136e-08
5.41269e-08
5.41165e-08
5.41082e-08
5.41022e-08
5.40972e-08
5.40951e-08
5.40942e-08
5.40938e-08
5.40953e-08
5.40963e-08
5.41008e-08
5.41025e-08
5.41115e-08
5.41109e-08
5.41226e-08
5.41054e-08
5.47302e-08
3.32905e-06
4.45604e-08
1.24948e-07
1.21632e-07
1.15054e-07
1.07639e-07
1.00777e-07
9.49042e-08
8.9961e-08
8.58364e-08
8.23463e-08
7.93988e-08
7.68596e-08
7.4683e-08
7.27745e-08
7.11204e-08
6.96444e-08
6.8354e-08
6.71862e-08
6.61596e-08
6.52183e-08
6.43872e-08
6.36154e-08
6.29333e-08
6.22914e-08
6.17232e-08
6.11832e-08
6.07061e-08
6.02483e-08
5.98423e-08
5.94503e-08
5.91058e-08
5.87666e-08
5.84693e-08
5.81752e-08
5.79196e-08
5.76642e-08
5.74432e-08
5.72182e-08
5.70261e-08
5.68281e-08
5.66596e-08
5.64846e-08
5.63365e-08
5.61809e-08
5.60527e-08
5.59137e-08
5.57997e-08
5.56757e-08
5.55777e-08
5.54673e-08
5.53787e-08
5.52837e-08
5.52097e-08
5.51198e-08
5.50521e-08
5.49718e-08
5.4922e-08
5.48461e-08
5.47895e-08
5.47279e-08
5.46725e-08
5.46135e-08
5.45767e-08
5.45215e-08
5.44826e-08
5.44283e-08
5.43911e-08
5.43381e-08
5.43049e-08
5.42573e-08
5.42245e-08
5.4181e-08
5.41562e-08
5.4129e-08
5.4113e-08
5.40951e-08
5.4083e-08
5.40689e-08
5.40593e-08
5.40484e-08
5.40397e-08
5.40332e-08
5.40277e-08
5.40252e-08
5.40237e-08
5.4023e-08
5.4024e-08
5.40246e-08
5.40286e-08
5.40299e-08
5.40384e-08
5.40374e-08
5.40481e-08
5.40308e-08
5.46727e-08
3.30992e-06
4.71753e-08
1.2494e-07
1.21683e-07
1.15178e-07
1.07809e-07
1.00963e-07
9.50885e-08
9.01351e-08
8.59964e-08
8.24909e-08
7.95282e-08
7.69745e-08
7.47845e-08
7.28635e-08
7.1198e-08
6.97114e-08
6.84115e-08
6.7235e-08
6.62004e-08
6.52518e-08
6.4414e-08
6.3636e-08
6.29483e-08
6.23011e-08
6.17281e-08
6.11836e-08
6.07025e-08
6.02407e-08
5.98313e-08
5.94358e-08
5.90882e-08
5.87461e-08
5.84462e-08
5.81494e-08
5.78915e-08
5.76337e-08
5.74107e-08
5.71835e-08
5.69896e-08
5.67897e-08
5.66196e-08
5.64428e-08
5.62934e-08
5.61362e-08
5.60067e-08
5.58663e-08
5.57511e-08
5.56259e-08
5.55268e-08
5.54153e-08
5.53257e-08