/*--------------------------------*- C++ -*----------------------------------*\
| =========                 |                                                 |
| \\      /  F ield         | OpenFOAM: The Open Source CFD Toolbox           |
|  \\    /   O peration     | Version:  v2012                                 |
|   \\  /    A nd           | Website:  www.openfoam.com                      |
|    \\/     M anipulation  |                                                 |
\*---------------------------------------------------------------------------*/
FoamFile
{
    version     2.0;
    format      ascii;
    class       volScalarField;
    location    "31";
    object      yPlus;
}
// * * * * * * * * * * * * * * * * * * * * * * * * * * * * * * * * * * * * * //

dimensions      [0 0 0 0 0 0 0];


internalField   uniform 0;

boundaryField
{
    inlet
    {
        type            calculated;
        value           uniform 0;
    }
    outlet
    {
        type            calculated;
        value           uniform 0;
    }
    topWall
    {
        type            calculated;
        value           nonuniform List<scalar> 
545
(
0.144153
0.24865
0.318999
0.374955
0.422317
0.463749
0.500747
0.534252
0.564907
0.593173
0.619394
0.643838
0.666717
0.688204
0.70844
0.727546
0.745624
0.762759
0.779029
0.7945
0.80923
0.823271
0.83667
0.849469
0.861705
0.873414
0.884625
0.895369
0.90567
0.915554
0.925043
0.934157
0.942915
0.951336
0.959435
0.967229
0.974732
0.981958
0.988918
0.995627
1.00209
1.00833
1.01434
1.02015
1.02575
1.03116
1.03638
1.04142
1.04629
1.051
1.05555
1.05995
1.0642
1.06832
1.0723
1.07615
1.07987
1.08348
1.08696
1.09034
1.09361
1.09678
1.09985
1.10282
1.10569
1.10848
1.11119
1.1138
1.11634
1.1188
1.12119
1.1235
1.12572
1.12786
1.12998
1.13209
1.13417
1.13624
1.1383
1.14034
1.14236
1.14436
1.14635
1.14832
1.15027
1.15221
1.15414
1.15604
1.15794
1.15981
1.16168
1.16352
1.16535
1.16717
1.16898
1.17076
1.17237
1.17381
1.17525
1.17669
1.17813
1.17956
1.181
1.18244
1.18387
1.18531
1.18674
1.18817
1.1896
1.19104
1.19247
1.1939
1.19533
1.19676
1.19818
1.19961
1.20104
1.20246
1.20389
1.20531
1.20674
1.20816
1.20958
1.211
1.21242
1.21384
1.21526
1.21668
1.2181
1.21951
1.22093
1.22234
1.22375
1.22517
1.22658
1.22799
1.2294
1.2308
1.23221
1.23362
1.23502
1.23642
1.23783
1.23923
1.24063
1.24203
1.24343
1.24482
1.24622
1.24762
1.24901
1.2504
1.25179
1.25318
1.25457
1.25596
1.25734
1.25873
1.26011
1.2615
1.26288
1.26426
1.26563
1.26701
1.26839
1.26976
1.27113
1.2725
1.27387
1.27524
1.27661
1.27798
1.27934
1.2807
1.28206
1.28342
1.28478
1.28613
1.28749
1.28884
1.29019
1.29154
1.29289
1.29424
1.29558
1.29692
1.29827
1.2996
1.30094
1.30228
1.30361
1.30494
1.30627
1.3076
1.30893
1.31025
1.31158
1.3129
1.31422
1.31553
1.31685
1.31816
1.31947
1.32078
1.32209
1.32339
1.3247
1.326
1.32729
1.32859
1.32989
1.33118
1.33247
1.33376
1.33504
1.33632
1.33761
1.33888
1.34016
1.34143
1.34271
1.34398
1.34524
1.34651
1.34777
1.34903
1.35029
1.35154
1.35279
1.35404
1.35529
1.35654
1.35778
1.35902
1.36026
1.36149
1.36272
1.36395
1.36518
1.3664
1.36762
1.36884
1.37006
1.37127
1.37248
1.37369
1.37489
1.37609
1.37729
1.37849
1.37968
1.38087
1.38206
1.38324
1.38442
1.3856
1.38678
1.38795
1.38912
1.39028
1.39145
1.39261
1.39376
1.39492
1.39607
1.39721
1.39836
1.3995
1.40063
1.4017
1.40271
1.40372
1.40474
1.40577
1.4068
1.40784
1.40889
1.40994
1.41099
1.41206
1.41312
1.4142
1.41528
1.41636
1.41746
1.41855
1.41966
1.42076
1.42188
1.423
1.42412
1.42525
1.42639
1.42753
1.42867
1.42982
1.43097
1.43213
1.4333
1.43447
1.43564
1.43682
1.438
1.43918
1.44037
1.44157
1.44276
1.44396
1.44517
1.44637
1.44759
1.4488
1.45002
1.45124
1.45246
1.45368
1.45491
1.45614
1.45737
1.4586
1.45983
1.46107
1.4623
1.46354
1.46478
1.46602
1.46726
1.4685
1.46973
1.47097
1.47221
1.47345
1.47468
1.47592
1.47715
1.47838
1.47961
1.48084
1.48206
1.48328
1.4845
1.48571
1.48692
1.48813
1.48933
1.49053
1.49172
1.4929
1.49408
1.49526
1.49643
1.49759
1.49874
1.49989
1.50102
1.50215
1.50327
1.50439
1.50549
1.50658
1.50766
1.50873
1.50979
1.51084
1.51188
1.5129
1.51392
1.51491
1.5159
1.51687
1.51782
1.51876
1.51969
1.5206
1.52149
1.52237
1.52322
1.52407
1.52489
1.52569
1.52647
1.52724
1.52798
1.52871
1.52941
1.53009
1.53074
1.53138
1.53199
1.53258
1.53314
1.53368
1.53419
1.53468
1.53514
1.53558
1.53599
1.53637
1.53672
1.53704
1.53734
1.5376
1.53784
1.53804
1.53822
1.53836
1.53847
1.53855
1.5386
1.53861
1.53859
1.53854
1.53845
1.53833
1.53817
1.53798
1.53775
1.53749
1.53719
1.53686
1.53648
1.53608
1.53563
1.53515
1.53463
1.53407
1.53347
1.53284
1.53217
1.53146
1.53071
1.52993
1.5291
1.52824
1.52734
1.5264
1.52542
1.52441
1.52335
1.52226
1.52113
1.51996
1.51875
1.51751
1.51623
1.51492
1.51356
1.51217
1.51075
1.50929
1.50762
1.50576
1.50387
1.50196
1.50003
1.49808
1.49611
1.49413
1.49212
1.49012
1.48809
1.48607
1.48403
1.48199
1.47994
1.47789
1.47584
1.47379
1.47173
1.46969
1.46764
1.4656
1.46356
1.46154
1.45951
1.4575
1.45549
1.45351
1.45152
1.44955
1.4476
1.44566
1.44373
1.44182
1.43992
1.43804
1.43618
1.43434
1.43251
1.43071
1.42892
1.42716
1.42542
1.4237
1.42201
1.42034
1.41868
1.41706
1.41546
1.41389
1.41234
1.41082
1.40932
1.40786
1.40642
1.40501
1.40363
1.40228
1.40095
1.39966
1.3984
1.39717
1.39597
1.3948
1.39367
1.39257
1.39149
1.39046
1.38946
1.38849
1.38755
1.38665
1.38579
1.38496
1.38416
1.3834
1.38268
1.38199
1.38134
1.38073
1.38015
1.37961
1.37911
1.37865
1.37822
1.37783
1.37748
1.37717
1.3769
1.37666
1.37646
1.3763
1.37618
1.37611
1.37603
)
;
    }
    bottomWall
    {
        type            calculated;
        value           nonuniform List<scalar> 
449
(
0.00274159
0.00480797
0.00538115
0.00533308
0.00526135
0.00516483
0.00506698
0.00497545
0.00489149
0.00481475
0.00474451
0.00468011
0.00462092
0.00456615
0.00451528
0.00446784
0.00442342
0.00438167
0.00434235
0.00430515
0.00426997
0.00423657
0.00420484
0.00417461
0.00414577
0.0041182
0.00409181
0.00406651
0.00404221
0.00401883
0.00399633
0.00397461
0.00395365
0.00393337
0.00391376
0.00389474
0.00387632
0.00385841
0.00384103
0.0038241
0.00380765
0.0037916
0.00377598
0.00376073
0.00374586
0.00373133
0.00371716
0.00370329
0.00368976
0.00367651
0.00366356
0.00365088
0.00363848
0.00362632
0.00361443
0.00360275
0.00359131
0.00358008
0.00356907
0.00355825
0.00354764
0.00353719
0.00352695
0.00351686
0.00350695
0.0034972
0.00348762
0.00347817
0.00346889
0.00345973
0.00345073
0.00344185
0.00343312
0.0034245
0.00341603
0.00340765
0.00339942
0.00339127
0.00338327
0.00337535
0.00336757
0.00335986
0.00335228
0.00334477
0.0033374
0.00333008
0.00332289
0.00331576
0.00330875
0.00330179
0.00329495
0.00328816
0.00328149
0.00327486
0.00326834
0.00326186
0.0032555
0.00324917
0.00324295
0.00323676
0.00323067
0.00322462
0.00321867
0.00321275
0.00320692
0.00320113
0.00319543
0.00318975
0.00318417
0.00317861
0.00317314
0.00316769
0.00316232
0.00315699
0.00315173
0.00314649
0.00314134
0.0031362
0.00313115
0.00312611
0.00312114
0.0031162
0.00311133
0.00310648
0.00310169
0.00309692
0.00309222
0.00308754
0.00308293
0.00307833
0.00307379
0.00306928
0.00306482
0.00306038
0.00305599
0.00305162
0.00304731
0.00304302
0.00303877
0.00303455
0.00303038
0.00302622
0.00302212
0.00301803
0.00301399
0.00300997
0.00300599
0.00300202
0.0029981
0.0029942
0.00299034
0.00298649
0.00298269
0.0029789
0.00297516
0.00297142
0.00296773
0.00296406
0.00296042
0.00295679
0.00295321
0.00294963
0.0029461
0.00294257
0.00293908
0.00293561
0.00293217
0.00292874
0.00292535
0.00292197
0.00291862
0.00291529
0.00291198
0.00290887
0.00290594
0.002903
0.00290006
0.00289711
0.00289416
0.0028912
0.00288823
0.00288525
0.00288227
0.00287928
0.00287628
0.00287328
0.00287027
0.00286726
0.00286423
0.00286121
0.00285816
0.00285513
0.00285207
0.00284902
0.00284595
0.00284289
0.00283981
0.00283674
0.00283365
0.00283056
0.00282746
0.00282436
0.00282125
0.00281814
0.00281502
0.0028119
0.00280877
0.00280564
0.0028025
0.00279936
0.00279622
0.00279307
0.00278992
0.00278676
0.0027836
0.00278044
0.00277727
0.00277409
0.00277092
0.00276773
0.00276455
0.00276136
0.00275817
0.00275497
0.00275178
0.00274857
0.00274538
0.00274216
0.00273896
0.00273574
0.00273254
0.00272931
0.0027261
0.00272287
0.00271965
0.00271642
0.0027132
0.00270996
0.00270674
0.00270351
0.00270028
0.00269705
0.00269381
0.00269058
0.00268734
0.0026841
0.00268086
0.00267762
0.00267438
0.00267114
0.0026679
0.00266466
0.00266142
0.00265818
0.00265493
0.0026517
0.00264845
0.00264521
0.00264196
0.00263872
0.00263548
0.00263224
0.002629
0.00262576
0.00262252
0.00261929
0.00261605
0.00261282
0.00260959
0.00260636
0.00260312
0.0025999
0.00259668
0.00259345
0.00259023
0.00258701
0.0025838
0.00258058
0.00257738
0.00257416
0.00257097
0.00256776
0.00256457
0.00256137
0.00255818
0.00255498
0.0025518
0.00254861
0.00254544
0.00254226
0.0025391
0.00253592
0.00253276
0.00252959
0.00252644
0.00252328
0.00252013
0.00251698
0.00251384
0.0025107
0.00250756
0.00250443
0.0025013
0.00249817
0.00249504
0.00249192
0.00248881
0.0024857
0.0024826
0.0024795
0.0024764
0.00247331
0.00247022
0.00246713
0.00246405
0.00246099
0.00245791
0.00245486
0.0024518
0.00244876
0.0024457
0.00244267
0.00243963
0.00243661
0.00243358
0.00243057
0.00242754
0.00242455
0.00242153
0.00241855
0.00241555
0.00241257
0.00240958
0.00240662
0.00240364
0.00240069
0.00239773
0.00239479
0.00239185
0.00238892
0.00238599
0.00238307
0.00238016
0.00237725
0.00237435
0.00237145
0.00236856
0.00236567
0.0023628
0.00235992
0.00235706
0.00235419
0.00235134
0.00234848
0.00234535
0.00234191
0.00233856
0.00233523
0.00233197
0.00232874
0.00232558
0.00232244
0.00231938
0.00231634
0.00231336
0.0023104
0.0023075
0.00230462
0.0023018
0.00229901
0.00229626
0.00229354
0.00229086
0.00228821
0.0022856
0.00228302
0.00228047
0.00227795
0.00227547
0.00227301
0.0022706
0.00226819
0.00226584
0.00226349
0.00226119
0.0022589
0.00225666
0.00225442
0.00225223
0.00225003
0.00224789
0.00224574
0.00224364
0.00224154
0.00223949
0.00223743
0.00223542
0.0022334
0.00223143
0.00222946
0.00222753
0.0022256
0.0022237
0.00222181
0.00221995
0.00221811
0.00221628
0.00221447
0.00221268
0.0022109
0.00220915
0.0022074
0.00220568
0.00220397
0.00220228
0.00220059
0.00219894
0.00219727
0.00219565
0.00219401
0.00219242
0.00219081
0.00218926
0.00218766
0.00218614
0.00218457
0.00218308
0.00218152
0.00218007
0.00217853
0.00217711
0.00217559
0.00217419
0.00217268
0.00217131
0.00216982
0.00216846
0.002167
0.00216565
0.00216422
0.00216286
0.00216149
0.00216008
0.00215883
0.00215727
0.00215632
0.0021543
0.00215407
0.0021515
)
;
    }
    symmetry
    {
        type            symmetryPlane;
    }
    frontAndBack
    {
        type            empty;
    }
}


// ************************************************************************* //
