/*--------------------------------*- C++ -*----------------------------------*\
| =========                 |                                                 |
| \\      /  F ield         | OpenFOAM: The Open Source CFD Toolbox           |
|  \\    /   O peration     | Version:  v2012                                 |
|   \\  /    A nd           | Website:  www.openfoam.com                      |
|    \\/     M anipulation  |                                                 |
\*---------------------------------------------------------------------------*/
FoamFile
{
    version     2.0;
    format      ascii;
    class       volScalarField;
    location    "16";
    object      yPlus;
}
// * * * * * * * * * * * * * * * * * * * * * * * * * * * * * * * * * * * * * //

dimensions      [0 0 0 0 0 0 0];


internalField   uniform 0;

boundaryField
{
    inlet
    {
        type            calculated;
        value           uniform 0;
    }
    outlet
    {
        type            calculated;
        value           uniform 0;
    }
    topWall
    {
        type            calculated;
        value           nonuniform List<scalar> 
545
(
0.0691967
0.119353
0.153102
0.179946
0.202658
0.222516
0.240238
0.256275
0.270936
0.284442
0.296958
0.308613
0.31951
0.329732
0.339347
0.348414
0.35698
0.36509
0.372779
0.380079
0.387021
0.393627
0.399923
0.405927
0.411659
0.417135
0.42237
0.427379
0.432175
0.436769
0.441173
0.445396
0.449448
0.453338
0.457074
0.460664
0.464114
0.467432
0.470623
0.473694
0.47665
0.479496
0.482238
0.48488
0.487426
0.48988
0.492247
0.49453
0.496732
0.498858
0.50091
0.50289
0.504803
0.506651
0.508436
0.510161
0.511827
0.513439
0.514996
0.516503
0.51796
0.519369
0.520733
0.522052
0.523329
0.524565
0.525761
0.526919
0.528041
0.529127
0.530179
0.531199
0.532173
0.533115
0.534048
0.534973
0.535889
0.536797
0.537696
0.538588
0.539471
0.540347
0.541214
0.542074
0.542926
0.54377
0.544607
0.545436
0.546258
0.547072
0.547879
0.548679
0.549472
0.550258
0.551037
0.551809
0.552503
0.553124
0.553743
0.554362
0.55498
0.555597
0.556214
0.55683
0.557445
0.558059
0.558673
0.559286
0.559898
0.56051
0.56112
0.56173
0.562339
0.562948
0.563555
0.564162
0.564768
0.565373
0.565977
0.56658
0.567183
0.567784
0.568385
0.568985
0.569584
0.570182
0.570779
0.571375
0.571971
0.572565
0.573159
0.573751
0.574343
0.574934
0.575524
0.576112
0.5767
0.577287
0.577873
0.578458
0.579041
0.579624
0.580206
0.580787
0.581366
0.581945
0.582522
0.583099
0.583674
0.584249
0.584822
0.585394
0.585965
0.586535
0.587104
0.587671
0.588238
0.588803
0.589367
0.58993
0.590492
0.591053
0.591612
0.59217
0.592727
0.593283
0.593838
0.594391
0.594943
0.595493
0.596043
0.596591
0.597138
0.597684
0.598228
0.598771
0.599312
0.599853
0.600391
0.600929
0.601465
0.602
0.602533
0.603065
0.603596
0.604125
0.604653
0.605179
0.605704
0.606227
0.606749
0.60727
0.607788
0.608306
0.608822
0.609336
0.609849
0.61036
0.61087
0.611378
0.611885
0.61239
0.612894
0.613396
0.613896
0.614394
0.614891
0.615387
0.615881
0.616373
0.616863
0.617352
0.617839
0.618324
0.618808
0.619289
0.61977
0.620248
0.620725
0.621199
0.621672
0.622144
0.622613
0.623081
0.623547
0.624011
0.624473
0.624933
0.625392
0.625848
0.626303
0.626756
0.627207
0.627656
0.628103
0.628548
0.628991
0.629432
0.629871
0.630308
0.630744
0.631177
0.631608
0.632037
0.632464
0.63289
0.633313
0.633734
0.634152
0.634569
0.634984
0.635396
0.635807
0.636215
0.636621
0.637025
0.637427
0.637827
0.638224
0.63862
0.639013
0.639404
0.639792
0.640179
0.640563
0.640944
0.641324
0.641701
0.642076
0.642428
0.642758
0.643089
0.643422
0.643755
0.644089
0.644424
0.64476
0.645097
0.645434
0.645772
0.646111
0.64645
0.64679
0.647131
0.647472
0.647813
0.648155
0.648497
0.648839
0.649181
0.649524
0.649866
0.650209
0.650551
0.650893
0.651235
0.651576
0.651917
0.652258
0.652598
0.652938
0.653276
0.653614
0.653951
0.654287
0.654622
0.654955
0.655288
0.655619
0.655948
0.656276
0.656602
0.656927
0.657249
0.65757
0.657888
0.658204
0.658518
0.658829
0.659137
0.659443
0.659746
0.660046
0.660343
0.660636
0.660926
0.661212
0.661495
0.661774
0.662049
0.66232
0.662586
0.662848
0.663105
0.663357
0.663605
0.663847
0.664084
0.664316
0.664542
0.664762
0.664976
0.665184
0.665385
0.66558
0.665768
0.66595
0.666124
0.66629
0.66645
0.666601
0.666744
0.66688
0.667007
0.667125
0.667235
0.667335
0.667427
0.667509
0.667581
0.667644
0.667696
0.667738
0.667769
0.66779
0.6678
0.667798
0.667785
0.667761
0.667724
0.667675
0.667614
0.66754
0.667453
0.667354
0.66724
0.667114
0.666973
0.666819
0.66665
0.666467
0.666269
0.666056
0.665828
0.665584
0.665325
0.66505
0.664759
0.664451
0.664127
0.663787
0.663429
0.663054
0.662662
0.662253
0.661825
0.66138
0.660916
0.660435
0.659935
0.659416
0.658878
0.658322
0.657746
0.657151
0.656536
0.655902
0.655249
0.654575
0.653882
0.653169
0.652435
0.651682
0.650908
0.650114
0.649299
0.648464
0.647608
0.646732
0.645835
0.644918
0.64398
0.643022
0.642043
0.641044
0.640024
0.638984
0.637923
0.636842
0.635741
0.63462
0.633479
0.632318
0.631138
0.629938
0.628719
0.62748
0.626223
0.624946
0.623652
0.622339
0.621008
0.619659
0.618292
0.616909
0.615508
0.614091
0.612657
0.611208
0.609743
0.608098
0.606281
0.604466
0.602656
0.60085
0.599049
0.597255
0.595468
0.593688
0.591917
0.590155
0.588402
0.58666
0.584929
0.583209
0.5815
0.579804
0.578121
0.576451
0.574795
0.573153
0.571525
0.569913
0.568315
0.566733
0.565167
0.563617
0.562083
0.560566
0.559066
0.557584
0.556119
0.554672
0.553242
0.551831
0.550439
0.549065
0.54771
0.546374
0.545057
0.54376
0.542482
0.541225
0.539987
0.538769
0.537572
0.536395
0.535239
0.534104
0.53299
0.531897
0.530825
0.529775
0.528746
0.52774
0.526755
0.525792
0.524852
0.523934
0.523038
0.522166
0.521316
0.520489
0.519685
0.518904
0.518147
0.517414
0.516704
0.516018
0.515356
0.514718
0.514104
0.513514
0.512949
0.512409
0.511893
0.511402
0.510936
0.510494
0.510078
0.509688
0.509322
0.508982
0.508667
0.508378
0.508114
0.507876
0.507663
0.507477
0.507316
0.507181
0.507072
0.506987
0.506934
0.506886
)
;
    }
    bottomWall
    {
        type            calculated;
        value           nonuniform List<scalar> 
449
(
0.139552
0.0890186
0.075859
0.0694823
0.0652959
0.0621671
0.0596703
0.0576052
0.055853
0.0543359
0.0530014
0.0518132
0.0507447
0.0497759
0.0488911
0.0480779
0.0473267
0.0466292
0.0459791
0.0453707
0.0447995
0.0442617
0.0437538
0.043273
0.0428168
0.042383
0.0419698
0.0415754
0.0411984
0.0408375
0.0404914
0.0401592
0.0398398
0.0395324
0.0392362
0.0389506
0.0386748
0.0384083
0.0381505
0.0379009
0.0376592
0.0374248
0.0371974
0.0369766
0.0367621
0.0365536
0.0363507
0.0361533
0.035961
0.0357736
0.035591
0.0354129
0.0352391
0.0350694
0.0349037
0.0347418
0.0345835
0.0344288
0.0342774
0.0341293
0.0339843
0.0338423
0.0337032
0.0335669
0.0334333
0.0333023
0.0331739
0.0330478
0.0329242
0.0328028
0.0326836
0.0325666
0.0324516
0.0323386
0.0322276
0.0321185
0.0320112
0.0319057
0.0318019
0.0316998
0.0315994
0.0315005
0.0314032
0.0313073
0.0312129
0.03112
0.0310284
0.0309382
0.0308493
0.0307617
0.0306753
0.0305902
0.0305063
0.0304235
0.0303418
0.0302612
0.0301818
0.0301034
0.030026
0.0299496
0.0298742
0.0297998
0.0297263
0.0296537
0.0295821
0.0295113
0.0294414
0.0293723
0.029304
0.0292366
0.0291699
0.0291041
0.029039
0.0289746
0.028911
0.0288481
0.0287859
0.0287243
0.0286635
0.0286033
0.0285438
0.0284849
0.0284266
0.028369
0.0283119
0.0282555
0.0281996
0.0281443
0.0280896
0.0280354
0.0279818
0.0279287
0.0278761
0.027824
0.0277725
0.0277214
0.0276709
0.0276208
0.0275712
0.027522
0.0274733
0.0274251
0.0273773
0.0273299
0.027283
0.0272365
0.0271904
0.0271447
0.0270994
0.0270546
0.0270101
0.026966
0.0269223
0.0268789
0.0268359
0.0267933
0.0267511
0.0267092
0.0266676
0.0266264
0.0265855
0.026545
0.0265048
0.0264649
0.0264254
0.0263861
0.0263472
0.0263085
0.0262702
0.0262322
0.0261945
0.026157
0.0261199
0.0260851
0.0260524
0.0260196
0.0259868
0.0259539
0.025921
0.0258881
0.0258551
0.025822
0.0257889
0.0257557
0.0257225
0.0256892
0.0256559
0.0256225
0.025589
0.0255556
0.025522
0.0254884
0.0254548
0.0254211
0.0253874
0.0253536
0.0253198
0.0252859
0.025252
0.0252181
0.0251841
0.0251501
0.0251161
0.025082
0.0250479
0.0250138
0.0249796
0.0249454
0.0249112
0.0248769
0.0248427
0.0248084
0.0247741
0.0247397
0.0247054
0.024671
0.0246366
0.0246022
0.0245678
0.0245334
0.024499
0.0244646
0.0244301
0.0243957
0.0243613
0.0243268
0.0242924
0.0242579
0.0242235
0.0241891
0.0241546
0.0241202
0.0240858
0.0240514
0.024017
0.0239826
0.0239482
0.0239139
0.0238796
0.0238452
0.0238109
0.0237767
0.0237424
0.0237082
0.023674
0.0236398
0.0236056
0.0235715
0.0235374
0.0235034
0.0234693
0.0234353
0.0234014
0.0233674
0.0233335
0.0232997
0.0232659
0.0232321
0.0231984
0.0231647
0.0231311
0.0230975
0.0230639
0.0230304
0.022997
0.0229636
0.0229303
0.022897
0.0228637
0.0228306
0.0227974
0.0227644
0.0227314
0.0226984
0.0226655
0.0226327
0.0226
0.0225673
0.0225346
0.0225021
0.0224696
0.0224371
0.0224048
0.0223725
0.0223403
0.0223081
0.022276
0.022244
0.0222121
0.0221803
0.0221485
0.0221168
0.0220852
0.0220536
0.0220222
0.0219908
0.0219595
0.0219283
0.0218971
0.0218661
0.0218351
0.0218042
0.0217734
0.0217427
0.0217121
0.0216816
0.0216511
0.0216208
0.0215905
0.0215603
0.0215303
0.0215003
0.0214704
0.0214406
0.0214109
0.0213813
0.0213518
0.0213223
0.021293
0.0212638
0.0212347
0.0212056
0.0211767
0.0211479
0.0211191
0.0210905
0.021062
0.0210336
0.0210052
0.020977
0.0209489
0.0209209
0.0208929
0.0208651
0.0208374
0.0208098
0.0207823
0.0207549
0.0207277
0.0207005
0.0206734
0.0206464
0.0206196
0.0205928
0.0205662
0.0205396
0.0205132
0.0204869
0.0204606
0.0204345
0.0204085
0.0203826
0.0203568
0.0203311
0.0203026
0.0202716
0.0202411
0.0202111
0.0201816
0.0201527
0.0201243
0.0200964
0.020069
0.0200421
0.0200157
0.0199897
0.0199642
0.0199391
0.0199144
0.0198901
0.0198663
0.0198428
0.0198197
0.019797
0.0197746
0.0197526
0.0197309
0.0197095
0.0196885
0.0196678
0.0196474
0.0196273
0.0196075
0.019588
0.0195688
0.0195498
0.0195311
0.0195127
0.0194945
0.0194766
0.019459
0.0194415
0.0194244
0.0194074
0.0193907
0.0193742
0.0193579
0.0193418
0.0193259
0.0193102
0.0192948
0.0192795
0.0192644
0.0192495
0.0192348
0.0192203
0.0192059
0.0191917
0.0191777
0.0191639
0.0191502
0.0191367
0.0191233
0.0191101
0.0190971
0.0190842
0.0190714
0.0190588
0.0190463
0.019034
0.0190218
0.0190097
0.0189978
0.018986
0.0189743
0.0189628
0.0189514
0.0189401
0.0189289
0.0189178
0.0189068
0.018896
0.0188853
0.0188746
0.0188641
0.0188537
0.0188434
0.0188331
0.018823
0.0188129
0.018803
0.0187931
0.0187832
0.0187734
0.0187636
0.0187543
0.0187387
0.0187477
0.01872
)
;
    }
    symmetry
    {
        type            symmetryPlane;
    }
    frontAndBack
    {
        type            empty;
    }
}


// ************************************************************************* //
