/*--------------------------------*- C++ -*----------------------------------*\
| =========                 |                                                 |
| \\      /  F ield         | OpenFOAM: The Open Source CFD Toolbox           |
|  \\    /   O peration     | Version:  v2012                                 |
|   \\  /    A nd           | Website:  www.openfoam.com                      |
|    \\/     M anipulation  |                                                 |
\*---------------------------------------------------------------------------*/
FoamFile
{
    version     2.0;
    format      ascii;
    class       volScalarField;
    location    "51";
    object      nut;
}
// * * * * * * * * * * * * * * * * * * * * * * * * * * * * * * * * * * * * * //

dimensions      [0 2 -1 0 0 0 0];


internalField   nonuniform List<scalar> 
209825
(
1.23946e-07
1.23147e-07
1.22317e-07
1.21225e-07
1.19914e-07
1.18479e-07
1.17065e-07
1.15719e-07
1.14503e-07
1.13396e-07
1.12426e-07
1.11551e-07
1.1079e-07
1.10102e-07
1.09504e-07
1.08959e-07
1.08486e-07
1.08049e-07
1.0767e-07
1.07317e-07
1.0701e-07
1.06722e-07
1.0647e-07
1.06232e-07
1.06024e-07
1.05825e-07
1.05651e-07
1.05484e-07
1.05338e-07
1.05196e-07
1.05071e-07
1.0495e-07
1.04843e-07
1.04739e-07
1.04647e-07
1.04557e-07
1.04476e-07
1.04399e-07
1.04328e-07
1.0426e-07
1.04197e-07
1.04138e-07
1.04082e-07
1.04031e-07
1.03981e-07
1.03935e-07
1.03891e-07
1.03852e-07
1.03811e-07
1.03776e-07
1.03738e-07
1.03707e-07
1.0367e-07
1.03645e-07
1.03611e-07
1.03589e-07
1.03559e-07
1.03539e-07
1.03512e-07
1.03494e-07
1.03468e-07
1.03449e-07
1.03427e-07
1.03409e-07
1.03387e-07
1.03372e-07
1.03353e-07
1.03339e-07
1.03319e-07
1.03304e-07
1.03286e-07
1.03272e-07
1.03257e-07
1.03246e-07
1.03233e-07
1.03224e-07
1.03212e-07
1.03203e-07
1.0319e-07
1.03181e-07
1.03169e-07
1.0316e-07
1.03149e-07
1.0314e-07
1.03128e-07
1.03117e-07
1.03103e-07
1.03088e-07
1.03078e-07
1.03061e-07
1.0304e-07
1.03027e-07
1.03043e-07
1.04026e-07
1.06653e-07
1.0169e-08
1.23946e-07
1.23147e-07
1.22317e-07
1.21225e-07
1.19914e-07
1.18479e-07
1.17066e-07
1.15719e-07
1.14503e-07
1.13397e-07
1.12426e-07
1.11551e-07
1.10791e-07
1.10102e-07
1.09505e-07
1.0896e-07
1.08486e-07
1.0805e-07
1.07671e-07
1.07318e-07
1.07011e-07
1.06722e-07
1.06471e-07
1.06233e-07
1.06024e-07
1.05826e-07
1.05651e-07
1.05485e-07
1.05338e-07
1.05196e-07
1.05071e-07
1.04951e-07
1.04843e-07
1.0474e-07
1.04647e-07
1.04558e-07
1.04477e-07
1.04399e-07
1.04328e-07
1.04261e-07
1.04198e-07
1.04138e-07
1.04083e-07
1.04031e-07
1.03981e-07
1.03936e-07
1.03891e-07
1.03852e-07
1.03811e-07
1.03777e-07
1.03739e-07
1.03708e-07
1.0367e-07
1.03646e-07
1.03612e-07
1.0359e-07
1.03559e-07
1.03539e-07
1.03512e-07
1.03494e-07
1.03468e-07
1.0345e-07
1.03428e-07
1.0341e-07
1.03388e-07
1.03372e-07
1.03353e-07
1.03339e-07
1.0332e-07
1.03304e-07
1.03286e-07
1.03273e-07
1.03257e-07
1.03247e-07
1.03234e-07
1.03225e-07
1.03212e-07
1.03203e-07
1.03191e-07
1.03181e-07
1.03169e-07
1.0316e-07
1.03149e-07
1.0314e-07
1.03129e-07
1.03118e-07
1.03103e-07
1.03088e-07
1.03078e-07
1.03061e-07
1.0304e-07
1.03027e-07
1.03043e-07
1.04028e-07
1.06654e-07
1.04804e-08
1.23946e-07
1.23147e-07
1.22317e-07
1.21226e-07
1.19914e-07
1.1848e-07
1.17067e-07
1.15721e-07
1.14505e-07
1.13398e-07
1.12428e-07
1.11553e-07
1.10792e-07
1.10103e-07
1.09506e-07
1.0896e-07
1.08487e-07
1.08051e-07
1.07671e-07
1.07319e-07
1.07011e-07
1.06723e-07
1.06471e-07
1.06233e-07
1.06025e-07
1.05826e-07
1.05652e-07
1.05485e-07
1.05338e-07
1.05196e-07
1.05071e-07
1.04951e-07
1.04843e-07
1.0474e-07
1.04647e-07
1.04557e-07
1.04477e-07
1.04399e-07
1.04328e-07
1.0426e-07
1.04197e-07
1.04138e-07
1.04083e-07
1.04031e-07
1.03981e-07
1.03935e-07
1.03891e-07
1.03852e-07
1.0381e-07
1.03776e-07
1.03738e-07
1.03707e-07
1.0367e-07
1.03645e-07
1.03611e-07
1.03589e-07
1.03558e-07
1.03539e-07
1.03512e-07
1.03493e-07
1.03468e-07
1.03449e-07
1.03427e-07
1.03409e-07
1.03387e-07
1.03372e-07
1.03353e-07
1.03338e-07
1.03319e-07
1.03304e-07
1.03286e-07
1.03272e-07
1.03257e-07
1.03246e-07
1.03233e-07
1.03224e-07
1.03212e-07
1.03203e-07
1.0319e-07
1.03181e-07
1.03168e-07
1.03159e-07
1.03148e-07
1.03139e-07
1.03128e-07
1.03117e-07
1.03103e-07
1.03087e-07
1.03077e-07
1.03061e-07
1.03039e-07
1.03026e-07
1.03043e-07
1.04031e-07
1.06655e-07
1.08671e-08
1.23946e-07
1.23146e-07
1.22317e-07
1.21226e-07
1.19916e-07
1.18482e-07
1.17069e-07
1.15723e-07
1.14507e-07
1.13401e-07
1.1243e-07
1.11555e-07
1.10794e-07
1.10105e-07
1.09508e-07
1.08962e-07
1.08488e-07
1.08052e-07
1.07673e-07
1.0732e-07
1.07012e-07
1.06724e-07
1.06472e-07
1.06234e-07
1.06025e-07
1.05827e-07
1.05652e-07
1.05485e-07
1.05338e-07
1.05197e-07
1.05072e-07
1.04951e-07
1.04843e-07
1.0474e-07
1.04647e-07
1.04557e-07
1.04476e-07
1.04399e-07
1.04328e-07
1.0426e-07
1.04197e-07
1.04138e-07
1.04082e-07
1.0403e-07
1.0398e-07
1.03935e-07
1.0389e-07
1.03851e-07
1.0381e-07
1.03776e-07
1.03738e-07
1.03707e-07
1.03669e-07
1.03645e-07
1.03611e-07
1.03588e-07
1.03558e-07
1.03538e-07
1.03511e-07
1.03493e-07
1.03467e-07
1.03448e-07
1.03426e-07
1.03409e-07
1.03386e-07
1.03371e-07
1.03352e-07
1.03338e-07
1.03318e-07
1.03303e-07
1.03285e-07
1.03271e-07
1.03256e-07
1.03245e-07
1.03232e-07
1.03223e-07
1.03211e-07
1.03202e-07
1.03189e-07
1.0318e-07
1.03168e-07
1.03159e-07
1.03147e-07
1.03138e-07
1.03127e-07
1.03116e-07
1.03102e-07
1.03087e-07
1.03077e-07
1.0306e-07
1.03038e-07
1.03025e-07
1.03042e-07
1.04036e-07
1.06656e-07
1.12975e-08
1.23946e-07
1.23146e-07
1.22317e-07
1.21227e-07
1.19918e-07
1.18485e-07
1.17072e-07
1.15726e-07
1.14511e-07
1.13404e-07
1.12433e-07
1.11558e-07
1.10797e-07
1.10108e-07
1.0951e-07
1.08965e-07
1.08491e-07
1.08054e-07
1.07675e-07
1.07322e-07
1.07014e-07
1.06725e-07
1.06473e-07
1.06235e-07
1.06026e-07
1.05828e-07
1.05653e-07
1.05486e-07
1.05339e-07
1.05197e-07
1.05072e-07
1.04951e-07
1.04844e-07
1.0474e-07
1.04647e-07
1.04558e-07
1.04477e-07
1.04399e-07
1.04328e-07
1.0426e-07
1.04197e-07
1.04138e-07
1.04082e-07
1.0403e-07
1.0398e-07
1.03935e-07
1.0389e-07
1.03851e-07
1.0381e-07
1.03775e-07
1.03737e-07
1.03706e-07
1.03669e-07
1.03644e-07
1.0361e-07
1.03588e-07
1.03557e-07
1.03538e-07
1.03511e-07
1.03492e-07
1.03466e-07
1.03448e-07
1.03426e-07
1.03408e-07
1.03386e-07
1.0337e-07
1.03351e-07
1.03337e-07
1.03318e-07
1.03302e-07
1.03284e-07
1.03271e-07
1.03255e-07
1.03244e-07
1.03231e-07
1.03223e-07
1.0321e-07
1.03201e-07
1.03188e-07
1.03179e-07
1.03167e-07
1.03158e-07
1.03146e-07
1.03137e-07
1.03126e-07
1.03115e-07
1.03101e-07
1.03086e-07
1.03076e-07
1.03059e-07
1.03037e-07
1.03025e-07
1.03041e-07
1.04044e-07
1.06658e-07
1.17646e-08
1.23946e-07
1.23146e-07
1.22317e-07
1.21228e-07
1.1992e-07
1.18488e-07
1.17077e-07
1.15731e-07
1.14515e-07
1.13409e-07
1.12438e-07
1.11563e-07
1.10801e-07
1.10112e-07
1.09514e-07
1.08968e-07
1.08494e-07
1.08057e-07
1.07678e-07
1.07324e-07
1.07016e-07
1.06727e-07
1.06475e-07
1.06237e-07
1.06028e-07
1.05829e-07
1.05654e-07
1.05487e-07
1.0534e-07
1.05198e-07
1.05073e-07
1.04952e-07
1.04844e-07
1.04741e-07
1.04648e-07
1.04558e-07
1.04477e-07
1.04399e-07
1.04328e-07
1.0426e-07
1.04197e-07
1.04138e-07
1.04082e-07
1.0403e-07
1.0398e-07
1.03935e-07
1.0389e-07
1.03851e-07
1.03809e-07
1.03775e-07
1.03737e-07
1.03706e-07
1.03668e-07
1.03644e-07
1.0361e-07
1.03587e-07
1.03557e-07
1.03537e-07
1.0351e-07
1.03492e-07
1.03466e-07
1.03447e-07
1.03425e-07
1.03407e-07
1.03385e-07
1.0337e-07
1.03351e-07
1.03336e-07
1.03317e-07
1.03302e-07
1.03283e-07
1.0327e-07
1.03254e-07
1.03244e-07
1.03231e-07
1.03222e-07
1.03209e-07
1.032e-07
1.03187e-07
1.03178e-07
1.03166e-07
1.03157e-07
1.03145e-07
1.03137e-07
1.03125e-07
1.03114e-07
1.031e-07
1.03085e-07
1.03075e-07
1.03058e-07
1.03036e-07
1.03024e-07
1.03041e-07
1.04054e-07
1.0666e-07
1.22672e-08
1.23946e-07
1.23146e-07
1.22317e-07
1.2123e-07
1.19923e-07
1.18492e-07
1.17082e-07
1.15737e-07
1.14521e-07
1.13415e-07
1.12444e-07
1.11568e-07
1.10807e-07
1.10117e-07
1.09519e-07
1.08973e-07
1.08498e-07
1.08061e-07
1.07681e-07
1.07328e-07
1.0702e-07
1.0673e-07
1.06478e-07
1.06239e-07
1.0603e-07
1.05831e-07
1.05656e-07
1.05489e-07
1.05342e-07
1.052e-07
1.05074e-07
1.04953e-07
1.04846e-07
1.04742e-07
1.04649e-07
1.04559e-07
1.04478e-07
1.044e-07
1.04328e-07
1.04261e-07
1.04197e-07
1.04138e-07
1.04082e-07
1.0403e-07
1.0398e-07
1.03935e-07
1.0389e-07
1.03851e-07
1.03809e-07
1.03775e-07
1.03737e-07
1.03706e-07
1.03668e-07
1.03643e-07
1.03609e-07
1.03587e-07
1.03556e-07
1.03536e-07
1.0351e-07
1.03491e-07
1.03465e-07
1.03447e-07
1.03424e-07
1.03407e-07
1.03384e-07
1.03369e-07
1.0335e-07
1.03335e-07
1.03316e-07
1.03301e-07
1.03283e-07
1.03269e-07
1.03254e-07
1.03243e-07
1.0323e-07
1.03221e-07
1.03208e-07
1.03199e-07
1.03187e-07
1.03177e-07
1.03165e-07
1.03156e-07
1.03144e-07
1.03136e-07
1.03124e-07
1.03113e-07
1.03099e-07
1.03084e-07
1.03074e-07
1.03057e-07
1.03035e-07
1.03023e-07
1.0304e-07
1.04067e-07
1.06663e-07
1.28054e-08
1.23946e-07
1.23145e-07
1.22318e-07
1.21232e-07
1.19927e-07
1.18497e-07
1.17088e-07
1.15744e-07
1.14528e-07
1.13422e-07
1.12451e-07
1.11575e-07
1.10813e-07
1.10123e-07
1.09525e-07
1.08978e-07
1.08503e-07
1.08066e-07
1.07686e-07
1.07332e-07
1.07023e-07
1.06734e-07
1.06481e-07
1.06242e-07
1.06033e-07
1.05834e-07
1.05659e-07
1.05491e-07
1.05344e-07
1.05202e-07
1.05076e-07
1.04955e-07
1.04847e-07
1.04743e-07
1.0465e-07
1.0456e-07
1.04479e-07
1.04401e-07
1.04329e-07
1.04261e-07
1.04198e-07
1.04139e-07
1.04083e-07
1.04031e-07
1.0398e-07
1.03935e-07
1.0389e-07
1.03851e-07
1.03809e-07
1.03775e-07
1.03737e-07
1.03705e-07
1.03668e-07
1.03643e-07
1.03609e-07
1.03587e-07
1.03556e-07
1.03536e-07
1.03509e-07
1.03491e-07
1.03465e-07
1.03446e-07
1.03424e-07
1.03406e-07
1.03384e-07
1.03368e-07
1.03349e-07
1.03335e-07
1.03315e-07
1.033e-07
1.03282e-07
1.03268e-07
1.03253e-07
1.03242e-07
1.03229e-07
1.0322e-07
1.03207e-07
1.03198e-07
1.03186e-07
1.03176e-07
1.03164e-07
1.03155e-07
1.03143e-07
1.03134e-07
1.03123e-07
1.03112e-07
1.03098e-07
1.03083e-07
1.03073e-07
1.03057e-07
1.03034e-07
1.03022e-07
1.03039e-07
1.04082e-07
1.06666e-07
1.33801e-08
1.23946e-07
1.23145e-07
1.22318e-07
1.21234e-07
1.19931e-07
1.18503e-07
1.17095e-07
1.15752e-07
1.14537e-07
1.1343e-07
1.12459e-07
1.11583e-07
1.10821e-07
1.10131e-07
1.09532e-07
1.08984e-07
1.08509e-07
1.08072e-07
1.07691e-07
1.07336e-07
1.07028e-07
1.06738e-07
1.06485e-07
1.06246e-07
1.06037e-07
1.05837e-07
1.05662e-07
1.05494e-07
1.05346e-07
1.05204e-07
1.05078e-07
1.04957e-07
1.04849e-07
1.04744e-07
1.04651e-07
1.04561e-07
1.0448e-07
1.04402e-07
1.0433e-07
1.04262e-07
1.04199e-07
1.04139e-07
1.04083e-07
1.04031e-07
1.03981e-07
1.03935e-07
1.0389e-07
1.03851e-07
1.03809e-07
1.03775e-07
1.03737e-07
1.03705e-07
1.03668e-07
1.03643e-07
1.03609e-07
1.03586e-07
1.03556e-07
1.03536e-07
1.03509e-07
1.0349e-07
1.03464e-07
1.03446e-07
1.03423e-07
1.03406e-07
1.03383e-07
1.03368e-07
1.03349e-07
1.03334e-07
1.03315e-07
1.03299e-07
1.03281e-07
1.03267e-07
1.03252e-07
1.03241e-07
1.03228e-07
1.03219e-07
1.03207e-07
1.03197e-07
1.03185e-07
1.03175e-07
1.03163e-07
1.03154e-07
1.03142e-07
1.03133e-07
1.03122e-07
1.03111e-07
1.03097e-07
1.03082e-07
1.03072e-07
1.03056e-07
1.03033e-07
1.03021e-07
1.03039e-07
1.04101e-07
1.0667e-07
1.39917e-08
1.23946e-07
1.23144e-07
1.22318e-07
1.21236e-07
1.19935e-07
1.1851e-07
1.17104e-07
1.15761e-07
1.14546e-07
1.1344e-07
1.12469e-07
1.11592e-07
1.1083e-07
1.10139e-07
1.09539e-07
1.08992e-07
1.08516e-07
1.08078e-07
1.07697e-07
1.07342e-07
1.07033e-07
1.06743e-07
1.0649e-07
1.0625e-07
1.06041e-07
1.05841e-07
1.05665e-07
1.05497e-07
1.05349e-07
1.05207e-07
1.05081e-07
1.04959e-07
1.04851e-07
1.04746e-07
1.04653e-07
1.04563e-07
1.04481e-07
1.04403e-07
1.04331e-07
1.04263e-07
1.042e-07
1.0414e-07
1.04084e-07
1.04032e-07
1.03982e-07
1.03936e-07
1.03891e-07
1.03851e-07
1.0381e-07
1.03775e-07
1.03737e-07
1.03706e-07
1.03668e-07
1.03643e-07
1.03609e-07
1.03586e-07
1.03555e-07
1.03535e-07
1.03508e-07
1.0349e-07
1.03464e-07
1.03445e-07
1.03423e-07
1.03405e-07
1.03382e-07
1.03367e-07
1.03348e-07
1.03333e-07
1.03314e-07
1.03299e-07
1.0328e-07
1.03267e-07
1.03251e-07
1.0324e-07
1.03227e-07
1.03218e-07
1.03206e-07
1.03196e-07
1.03184e-07
1.03174e-07
1.03162e-07
1.03153e-07
1.03141e-07
1.03132e-07
1.03121e-07
1.0311e-07
1.03096e-07
1.03081e-07
1.03071e-07
1.03055e-07
1.03032e-07
1.0302e-07
1.03038e-07
1.04122e-07
1.06674e-07
1.46402e-08
1.23946e-07
1.23144e-07
1.22318e-07
1.21238e-07
1.19941e-07
1.18518e-07
1.17113e-07
1.15771e-07
1.14557e-07
1.13451e-07
1.12479e-07
1.11603e-07
1.1084e-07
1.10148e-07
1.09548e-07
1.09e-07
1.08524e-07
1.08086e-07
1.07704e-07
1.07349e-07
1.07039e-07
1.06749e-07
1.06495e-07
1.06255e-07
1.06045e-07
1.05845e-07
1.05669e-07
1.05501e-07
1.05353e-07
1.0521e-07
1.05084e-07
1.04962e-07
1.04853e-07
1.04749e-07
1.04655e-07
1.04565e-07
1.04483e-07
1.04405e-07
1.04333e-07
1.04265e-07
1.04201e-07
1.04141e-07
1.04085e-07
1.04033e-07
1.03982e-07
1.03936e-07
1.03891e-07
1.03852e-07
1.0381e-07
1.03775e-07
1.03737e-07
1.03706e-07
1.03668e-07
1.03643e-07
1.03609e-07
1.03586e-07
1.03555e-07
1.03535e-07
1.03508e-07
1.03489e-07
1.03464e-07
1.03445e-07
1.03422e-07
1.03405e-07
1.03382e-07
1.03366e-07
1.03347e-07
1.03333e-07
1.03313e-07
1.03298e-07
1.0328e-07
1.03266e-07
1.0325e-07
1.03239e-07
1.03226e-07
1.03217e-07
1.03205e-07
1.03195e-07
1.03183e-07
1.03173e-07
1.03161e-07
1.03152e-07
1.0314e-07
1.03131e-07
1.0312e-07
1.03109e-07
1.03095e-07
1.0308e-07
1.0307e-07
1.03054e-07
1.03031e-07
1.03018e-07
1.03037e-07
1.04148e-07
1.06679e-07
1.53249e-08
1.23946e-07
1.23143e-07
1.22319e-07
1.21241e-07
1.19947e-07
1.18526e-07
1.17123e-07
1.15783e-07
1.14569e-07
1.13463e-07
1.12492e-07
1.11614e-07
1.10851e-07
1.10159e-07
1.09559e-07
1.0901e-07
1.08533e-07
1.08094e-07
1.07712e-07
1.07356e-07
1.07046e-07
1.06755e-07
1.06501e-07
1.06261e-07
1.0605e-07
1.0585e-07
1.05674e-07
1.05505e-07
1.05357e-07
1.05214e-07
1.05087e-07
1.04965e-07
1.04856e-07
1.04752e-07
1.04658e-07
1.04567e-07
1.04485e-07
1.04407e-07
1.04335e-07
1.04266e-07
1.04203e-07
1.04143e-07
1.04086e-07
1.04034e-07
1.03983e-07
1.03937e-07
1.03892e-07
1.03852e-07
1.03811e-07
1.03776e-07
1.03737e-07
1.03706e-07
1.03668e-07
1.03643e-07
1.03609e-07
1.03586e-07
1.03555e-07
1.03535e-07
1.03508e-07
1.03489e-07
1.03463e-07
1.03444e-07
1.03422e-07
1.03404e-07
1.03382e-07
1.03366e-07
1.03347e-07
1.03332e-07
1.03313e-07
1.03297e-07
1.03279e-07
1.03265e-07
1.0325e-07
1.03239e-07
1.03225e-07
1.03216e-07
1.03204e-07
1.03194e-07
1.03182e-07
1.03172e-07
1.0316e-07
1.0315e-07
1.03139e-07
1.0313e-07
1.03118e-07
1.03108e-07
1.03094e-07
1.03079e-07
1.03069e-07
1.03053e-07
1.0303e-07
1.03017e-07
1.03037e-07
1.04176e-07
1.06684e-07
1.60453e-08
1.23945e-07
1.23142e-07
1.22319e-07
1.21244e-07
1.19953e-07
1.18536e-07
1.17135e-07
1.15795e-07
1.14583e-07
1.13477e-07
1.12505e-07
1.11627e-07
1.10863e-07
1.10171e-07
1.0957e-07
1.09021e-07
1.08543e-07
1.08103e-07
1.07721e-07
1.07364e-07
1.07054e-07
1.06762e-07
1.06508e-07
1.06267e-07
1.06056e-07
1.05855e-07
1.05679e-07
1.0551e-07
1.05361e-07
1.05218e-07
1.05091e-07
1.04969e-07
1.0486e-07
1.04755e-07
1.04661e-07
1.0457e-07
1.04488e-07
1.04409e-07
1.04337e-07
1.04268e-07
1.04204e-07
1.04144e-07
1.04088e-07
1.04035e-07
1.03984e-07
1.03938e-07
1.03893e-07
1.03853e-07
1.03811e-07
1.03777e-07
1.03738e-07
1.03707e-07
1.03669e-07
1.03643e-07
1.03609e-07
1.03586e-07
1.03555e-07
1.03535e-07
1.03508e-07
1.03489e-07
1.03463e-07
1.03444e-07
1.03422e-07
1.03404e-07
1.03381e-07
1.03365e-07
1.03346e-07
1.03332e-07
1.03312e-07
1.03297e-07
1.03278e-07
1.03265e-07
1.03249e-07
1.03238e-07
1.03224e-07
1.03215e-07
1.03203e-07
1.03193e-07
1.0318e-07
1.03171e-07
1.03159e-07
1.03149e-07
1.03138e-07
1.03129e-07
1.03117e-07
1.03107e-07
1.03093e-07
1.03078e-07
1.03067e-07
1.03052e-07
1.03028e-07
1.03016e-07
1.03036e-07
1.04209e-07
1.06689e-07
1.68034e-08
1.23945e-07
1.23141e-07
1.22319e-07
1.21248e-07
1.1996e-07
1.18546e-07
1.17147e-07
1.15809e-07
1.14598e-07
1.13492e-07
1.1252e-07
1.11642e-07
1.10877e-07
1.10184e-07
1.09582e-07
1.09032e-07
1.08555e-07
1.08114e-07
1.07731e-07
1.07374e-07
1.07063e-07
1.0677e-07
1.06515e-07
1.06274e-07
1.06063e-07
1.05862e-07
1.05685e-07
1.05515e-07
1.05366e-07
1.05222e-07
1.05095e-07
1.04973e-07
1.04864e-07
1.04758e-07
1.04664e-07
1.04573e-07
1.04491e-07
1.04412e-07
1.04339e-07
1.04271e-07
1.04206e-07
1.04146e-07
1.0409e-07
1.04037e-07
1.03986e-07
1.0394e-07
1.03894e-07
1.03854e-07
1.03812e-07
1.03777e-07
1.03739e-07
1.03707e-07
1.03669e-07
1.03644e-07
1.03609e-07
1.03587e-07
1.03555e-07
1.03535e-07
1.03508e-07
1.03489e-07
1.03463e-07
1.03444e-07
1.03421e-07
1.03403e-07
1.03381e-07
1.03365e-07
1.03346e-07
1.03331e-07
1.03312e-07
1.03296e-07
1.03278e-07
1.03264e-07
1.03248e-07
1.03237e-07
1.03224e-07
1.03214e-07
1.03202e-07
1.03192e-07
1.03179e-07
1.0317e-07
1.03157e-07
1.03148e-07
1.03137e-07
1.03127e-07
1.03116e-07
1.03106e-07
1.03092e-07
1.03077e-07
1.03066e-07
1.03051e-07
1.03027e-07
1.03015e-07
1.03036e-07
1.04245e-07
1.06694e-07
1.76018e-08
1.23945e-07
1.2314e-07
1.2232e-07
1.21252e-07
1.19968e-07
1.18557e-07
1.17161e-07
1.15825e-07
1.14614e-07
1.13508e-07
1.12536e-07
1.11657e-07
1.10892e-07
1.10199e-07
1.09596e-07
1.09045e-07
1.08567e-07
1.08125e-07
1.07741e-07
1.07384e-07
1.07072e-07
1.06779e-07
1.06524e-07
1.06282e-07
1.0607e-07
1.05868e-07
1.05691e-07
1.05521e-07
1.05372e-07
1.05228e-07
1.051e-07
1.04977e-07
1.04868e-07
1.04762e-07
1.04668e-07
1.04576e-07
1.04494e-07
1.04414e-07
1.04342e-07
1.04273e-07
1.04209e-07
1.04148e-07
1.04092e-07
1.04039e-07
1.03988e-07
1.03941e-07
1.03895e-07
1.03855e-07
1.03813e-07
1.03778e-07
1.03739e-07
1.03708e-07
1.0367e-07
1.03644e-07
1.0361e-07
1.03587e-07
1.03556e-07
1.03535e-07
1.03508e-07
1.03489e-07
1.03463e-07
1.03444e-07
1.03421e-07
1.03403e-07
1.0338e-07
1.03365e-07
1.03345e-07
1.03331e-07
1.03311e-07
1.03296e-07
1.03277e-07
1.03263e-07
1.03248e-07
1.03236e-07
1.03223e-07
1.03213e-07
1.03201e-07
1.03191e-07
1.03178e-07
1.03169e-07
1.03156e-07
1.03147e-07
1.03135e-07
1.03126e-07
1.03114e-07
1.03104e-07
1.03091e-07
1.03076e-07
1.03065e-07
1.0305e-07
1.03026e-07
1.03014e-07
1.03036e-07
1.04285e-07
1.06698e-07
1.8443e-08
1.23945e-07
1.23139e-07
1.2232e-07
1.21255e-07
1.19976e-07
1.18569e-07
1.17176e-07
1.15841e-07
1.14631e-07
1.13526e-07
1.12553e-07
1.11674e-07
1.10909e-07
1.10214e-07
1.09611e-07
1.09059e-07
1.0858e-07
1.08138e-07
1.07753e-07
1.07395e-07
1.07083e-07
1.06789e-07
1.06533e-07
1.06291e-07
1.06078e-07
1.05876e-07
1.05698e-07
1.05528e-07
1.05378e-07
1.05233e-07
1.05106e-07
1.04982e-07
1.04872e-07
1.04766e-07
1.04672e-07
1.0458e-07
1.04497e-07
1.04418e-07
1.04345e-07
1.04276e-07
1.04211e-07
1.04151e-07
1.04094e-07
1.04041e-07
1.03989e-07
1.03943e-07
1.03897e-07
1.03857e-07
1.03815e-07
1.03779e-07
1.0374e-07
1.03709e-07
1.03671e-07
1.03645e-07
1.0361e-07
1.03587e-07
1.03556e-07
1.03536e-07
1.03508e-07
1.03489e-07
1.03463e-07
1.03444e-07
1.03421e-07
1.03403e-07
1.0338e-07
1.03364e-07
1.03345e-07
1.0333e-07
1.03311e-07
1.03295e-07
1.03277e-07
1.03263e-07
1.03247e-07
1.03236e-07
1.03222e-07
1.03213e-07
1.032e-07
1.0319e-07
1.03177e-07
1.03168e-07
1.03155e-07
1.03146e-07
1.03134e-07
1.03125e-07
1.03113e-07
1.03103e-07
1.0309e-07
1.03075e-07
1.03064e-07
1.03049e-07
1.03024e-07
1.03013e-07
1.03035e-07
1.0433e-07
1.06701e-07
1.93296e-08
1.23945e-07
1.23138e-07
1.2232e-07
1.2126e-07
1.19985e-07
1.18582e-07
1.17192e-07
1.15859e-07
1.1465e-07
1.13545e-07
1.12572e-07
1.11693e-07
1.10927e-07
1.10231e-07
1.09627e-07
1.09075e-07
1.08595e-07
1.08151e-07
1.07766e-07
1.07407e-07
1.07094e-07
1.068e-07
1.06543e-07
1.063e-07
1.06087e-07
1.05884e-07
1.05706e-07
1.05535e-07
1.05385e-07
1.0524e-07
1.05112e-07
1.04988e-07
1.04878e-07
1.04771e-07
1.04676e-07
1.04584e-07
1.04501e-07
1.04421e-07
1.04348e-07
1.04279e-07
1.04214e-07
1.04153e-07
1.04096e-07
1.04043e-07
1.03992e-07
1.03945e-07
1.03899e-07
1.03858e-07
1.03816e-07
1.03781e-07
1.03742e-07
1.0371e-07
1.03671e-07
1.03646e-07
1.03611e-07
1.03588e-07
1.03557e-07
1.03536e-07
1.03508e-07
1.03489e-07
1.03463e-07
1.03444e-07
1.03421e-07
1.03403e-07
1.0338e-07
1.03364e-07
1.03345e-07
1.0333e-07
1.0331e-07
1.03295e-07
1.03276e-07
1.03262e-07
1.03246e-07
1.03235e-07
1.03221e-07
1.03212e-07
1.03199e-07
1.03189e-07
1.03176e-07
1.03167e-07
1.03154e-07
1.03145e-07
1.03133e-07
1.03124e-07
1.03112e-07
1.03102e-07
1.03088e-07
1.03074e-07
1.03063e-07
1.03048e-07
1.03023e-07
1.03012e-07
1.03035e-07
1.04378e-07
1.03068e-07
2.02647e-08
1.23945e-07
1.23137e-07
1.22321e-07
1.21264e-07
1.19995e-07
1.18596e-07
1.17209e-07
1.15878e-07
1.1467e-07
1.13565e-07
1.12593e-07
1.11713e-07
1.10946e-07
1.1025e-07
1.09645e-07
1.09091e-07
1.0861e-07
1.08166e-07
1.0778e-07
1.0742e-07
1.07106e-07
1.06811e-07
1.06554e-07
1.0631e-07
1.06097e-07
1.05893e-07
1.05714e-07
1.05543e-07
1.05392e-07
1.05247e-07
1.05118e-07
1.04994e-07
1.04883e-07
1.04777e-07
1.04681e-07
1.04589e-07
1.04506e-07
1.04425e-07
1.04352e-07
1.04283e-07
1.04218e-07
1.04157e-07
1.04099e-07
1.04046e-07
1.03994e-07
1.03947e-07
1.03901e-07
1.0386e-07
1.03818e-07
1.03782e-07
1.03743e-07
1.03711e-07
1.03673e-07
1.03647e-07
1.03612e-07
1.03589e-07
1.03557e-07
1.03536e-07
1.03509e-07
1.03489e-07
1.03463e-07
1.03444e-07
1.03421e-07
1.03403e-07
1.0338e-07
1.03364e-07
1.03344e-07
1.03329e-07
1.0331e-07
1.03294e-07
1.03276e-07
1.03262e-07
1.03246e-07
1.03234e-07
1.0322e-07
1.03211e-07
1.03198e-07
1.03188e-07
1.03175e-07
1.03166e-07
1.03153e-07
1.03144e-07
1.03132e-07
1.03122e-07
1.0311e-07
1.031e-07
1.03087e-07
1.03073e-07
1.03061e-07
1.03047e-07
1.03022e-07
1.03011e-07
1.03035e-07
1.04431e-07
9.72671e-08
2.12511e-08
1.23944e-07
1.23136e-07
1.22321e-07
1.21269e-07
1.20005e-07
1.18611e-07
1.17228e-07
1.15899e-07
1.14692e-07
1.13587e-07
1.12615e-07
1.11734e-07
1.10967e-07
1.10269e-07
1.09664e-07
1.09109e-07
1.08627e-07
1.08182e-07
1.07795e-07
1.07434e-07
1.0712e-07
1.06824e-07
1.06566e-07
1.06321e-07
1.06107e-07
1.05903e-07
1.05723e-07
1.05551e-07
1.054e-07
1.05254e-07
1.05125e-07
1.05e-07
1.0489e-07
1.04782e-07
1.04687e-07
1.04594e-07
1.0451e-07
1.0443e-07
1.04356e-07
1.04287e-07
1.04221e-07
1.0416e-07
1.04102e-07
1.04048e-07
1.03997e-07
1.03949e-07
1.03903e-07
1.03862e-07
1.0382e-07
1.03784e-07
1.03745e-07
1.03713e-07
1.03674e-07
1.03648e-07
1.03613e-07
1.0359e-07
1.03558e-07
1.03537e-07
1.03509e-07
1.0349e-07
1.03464e-07
1.03444e-07
1.03421e-07
1.03403e-07
1.0338e-07
1.03364e-07
1.03344e-07
1.03329e-07
1.0331e-07
1.03294e-07
1.03275e-07
1.03261e-07
1.03245e-07
1.03234e-07
1.0322e-07
1.0321e-07
1.03197e-07
1.03187e-07
1.03174e-07
1.03165e-07
1.03152e-07
1.03142e-07
1.0313e-07
1.03121e-07
1.03109e-07
1.03099e-07
1.03086e-07
1.03072e-07
1.0306e-07
1.03046e-07
1.0302e-07
1.0301e-07
1.03035e-07
1.04489e-07
9.20924e-08
2.2292e-08
1.23944e-07
1.23135e-07
1.22322e-07
1.21274e-07
1.20015e-07
1.18626e-07
1.17247e-07
1.15921e-07
1.14715e-07
1.13611e-07
1.12638e-07
1.11757e-07
1.10989e-07
1.10291e-07
1.09684e-07
1.09128e-07
1.08645e-07
1.08199e-07
1.07811e-07
1.07449e-07
1.07134e-07
1.06837e-07
1.06578e-07
1.06333e-07
1.06118e-07
1.05913e-07
1.05733e-07
1.05561e-07
1.05409e-07
1.05262e-07
1.05133e-07
1.05008e-07
1.04896e-07
1.04789e-07
1.04692e-07
1.046e-07
1.04516e-07
1.04435e-07
1.04361e-07
1.04291e-07
1.04225e-07
1.04164e-07
1.04106e-07
1.04052e-07
1.04e-07
1.03952e-07
1.03905e-07
1.03865e-07
1.03822e-07
1.03786e-07
1.03746e-07
1.03714e-07
1.03675e-07
1.03649e-07
1.03614e-07
1.03591e-07
1.03559e-07
1.03538e-07
1.0351e-07
1.0349e-07
1.03464e-07
1.03445e-07
1.03421e-07
1.03403e-07
1.0338e-07
1.03364e-07
1.03344e-07
1.03329e-07
1.03309e-07
1.03294e-07
1.03275e-07
1.03261e-07
1.03245e-07
1.03233e-07
1.03219e-07
1.03209e-07
1.03196e-07
1.03186e-07
1.03173e-07
1.03164e-07
1.03151e-07
1.03141e-07
1.03129e-07
1.0312e-07
1.03107e-07
1.03098e-07
1.03085e-07
1.03071e-07
1.03059e-07
1.03045e-07
1.03019e-07
1.03009e-07
1.03036e-07
1.04551e-07
8.7473e-08
2.33906e-08
1.23944e-07
1.23133e-07
1.22322e-07
1.21279e-07
1.20026e-07
1.18643e-07
1.17268e-07
1.15944e-07
1.1474e-07
1.13636e-07
1.12663e-07
1.11781e-07
1.11012e-07
1.10313e-07
1.09706e-07
1.09149e-07
1.08665e-07
1.08218e-07
1.07829e-07
1.07466e-07
1.07149e-07
1.06852e-07
1.06592e-07
1.06346e-07
1.0613e-07
1.05924e-07
1.05744e-07
1.05571e-07
1.05418e-07
1.05271e-07
1.05141e-07
1.05015e-07
1.04904e-07
1.04796e-07
1.04699e-07
1.04606e-07
1.04521e-07
1.0444e-07
1.04366e-07
1.04295e-07
1.04229e-07
1.04168e-07
1.04109e-07
1.04055e-07
1.04003e-07
1.03955e-07
1.03908e-07
1.03867e-07
1.03824e-07
1.03788e-07
1.03748e-07
1.03716e-07
1.03677e-07
1.03651e-07
1.03615e-07
1.03592e-07
1.0356e-07
1.03539e-07
1.03511e-07
1.03491e-07
1.03465e-07
1.03445e-07
1.03422e-07
1.03403e-07
1.0338e-07
1.03364e-07
1.03344e-07
1.03329e-07
1.03309e-07
1.03294e-07
1.03275e-07
1.0326e-07
1.03244e-07
1.03232e-07
1.03218e-07
1.03209e-07
1.03195e-07
1.03186e-07
1.03172e-07
1.03163e-07
1.0315e-07
1.0314e-07
1.03128e-07
1.03118e-07
1.03106e-07
1.03096e-07
1.03084e-07
1.0307e-07
1.03057e-07
1.03044e-07
1.03018e-07
1.03008e-07
1.03036e-07
1.04617e-07
8.33444e-08
2.45501e-08
1.23944e-07
1.23132e-07
1.22322e-07
1.21284e-07
1.20038e-07
1.1866e-07
1.17289e-07
1.15968e-07
1.14766e-07
1.13662e-07
1.1269e-07
1.11807e-07
1.11037e-07
1.10337e-07
1.09729e-07
1.09171e-07
1.08686e-07
1.08237e-07
1.07847e-07
1.07483e-07
1.07166e-07
1.06867e-07
1.06606e-07
1.06359e-07
1.06143e-07
1.05936e-07
1.05755e-07
1.05581e-07
1.05428e-07
1.0528e-07
1.0515e-07
1.05024e-07
1.04911e-07
1.04803e-07
1.04706e-07
1.04612e-07
1.04527e-07
1.04446e-07
1.04371e-07
1.043e-07
1.04234e-07
1.04172e-07
1.04113e-07
1.04059e-07
1.04006e-07
1.03959e-07
1.03911e-07
1.0387e-07
1.03827e-07
1.03791e-07
1.03751e-07
1.03718e-07
1.03679e-07
1.03653e-07
1.03617e-07
1.03593e-07
1.03561e-07
1.0354e-07
1.03512e-07
1.03492e-07
1.03465e-07
1.03446e-07
1.03422e-07
1.03404e-07
1.03381e-07
1.03364e-07
1.03344e-07
1.03329e-07
1.03309e-07
1.03293e-07
1.03274e-07
1.0326e-07
1.03244e-07
1.03232e-07
1.03218e-07
1.03208e-07
1.03194e-07
1.03185e-07
1.03171e-07
1.03162e-07
1.03148e-07
1.03139e-07
1.03127e-07
1.03117e-07
1.03104e-07
1.03095e-07
1.03082e-07
1.03069e-07
1.03056e-07
1.03043e-07
1.03016e-07
1.03006e-07
1.03036e-07
1.04687e-07
7.96518e-08
2.57736e-08
1.23944e-07
1.2313e-07
1.22323e-07
1.2129e-07
1.2005e-07
1.18679e-07
1.17312e-07
1.15994e-07
1.14793e-07
1.13691e-07
1.12718e-07
1.11835e-07
1.11064e-07
1.10363e-07
1.09753e-07
1.09194e-07
1.08708e-07
1.08258e-07
1.07867e-07
1.07502e-07
1.07183e-07
1.06884e-07
1.06622e-07
1.06374e-07
1.06157e-07
1.05949e-07
1.05767e-07
1.05593e-07
1.05439e-07
1.05291e-07
1.05159e-07
1.05033e-07
1.0492e-07
1.04811e-07
1.04713e-07
1.04619e-07
1.04534e-07
1.04452e-07
1.04377e-07
1.04306e-07
1.04239e-07
1.04177e-07
1.04118e-07
1.04063e-07
1.0401e-07
1.03962e-07
1.03915e-07
1.03873e-07
1.0383e-07
1.03793e-07
1.03753e-07
1.03721e-07
1.03681e-07
1.03654e-07
1.03619e-07
1.03595e-07
1.03563e-07
1.03541e-07
1.03513e-07
1.03493e-07
1.03466e-07
1.03446e-07
1.03423e-07
1.03404e-07
1.03381e-07
1.03364e-07
1.03344e-07
1.03329e-07
1.03309e-07
1.03293e-07
1.03274e-07
1.0326e-07
1.03243e-07
1.03232e-07
1.03217e-07
1.03207e-07
1.03194e-07
1.03184e-07
1.0317e-07
1.03161e-07
1.03147e-07
1.03138e-07
1.03125e-07
1.03116e-07
1.03103e-07
1.03094e-07
1.03081e-07
1.03068e-07
1.03055e-07
1.03042e-07
1.03015e-07
1.03005e-07
1.03037e-07
1.0476e-07
7.63487e-08
2.70641e-08
1.23944e-07
1.23129e-07
1.22323e-07
1.21296e-07
1.20063e-07
1.18698e-07
1.17336e-07
1.16021e-07
1.14822e-07
1.1372e-07
1.12747e-07
1.11864e-07
1.11092e-07
1.1039e-07
1.09779e-07
1.09219e-07
1.08731e-07
1.0828e-07
1.07888e-07
1.07521e-07
1.07202e-07
1.06901e-07
1.06639e-07
1.0639e-07
1.06172e-07
1.05963e-07
1.0578e-07
1.05605e-07
1.05451e-07
1.05301e-07
1.0517e-07
1.05042e-07
1.04929e-07
1.04819e-07
1.04721e-07
1.04627e-07
1.04541e-07
1.04459e-07
1.04383e-07
1.04312e-07
1.04245e-07
1.04182e-07
1.04123e-07
1.04068e-07
1.04014e-07
1.03966e-07
1.03918e-07
1.03877e-07
1.03833e-07
1.03796e-07
1.03756e-07
1.03723e-07
1.03683e-07
1.03657e-07
1.03621e-07
1.03597e-07
1.03564e-07
1.03542e-07
1.03514e-07
1.03494e-07
1.03467e-07
1.03447e-07
1.03423e-07
1.03405e-07
1.03381e-07
1.03365e-07
1.03344e-07
1.03329e-07
1.03309e-07
1.03294e-07
1.03274e-07
1.0326e-07
1.03243e-07
1.03231e-07
1.03217e-07
1.03207e-07
1.03193e-07
1.03183e-07
1.0317e-07
1.0316e-07
1.03146e-07
1.03137e-07
1.03124e-07
1.03115e-07
1.03102e-07
1.03092e-07
1.0308e-07
1.03066e-07
1.03054e-07
1.03041e-07
1.03014e-07
1.03004e-07
1.03038e-07
1.04835e-07
7.3395e-08
2.84239e-08
1.23943e-07
1.23127e-07
1.22323e-07
1.21302e-07
1.20076e-07
1.18718e-07
1.17362e-07
1.1605e-07
1.14853e-07
1.13752e-07
1.12779e-07
1.11895e-07
1.11122e-07
1.10419e-07
1.09807e-07
1.09245e-07
1.08756e-07
1.08304e-07
1.0791e-07
1.07542e-07
1.07222e-07
1.0692e-07
1.06656e-07
1.06406e-07
1.06187e-07
1.05978e-07
1.05794e-07
1.05618e-07
1.05463e-07
1.05313e-07
1.05181e-07
1.05053e-07
1.04939e-07
1.04828e-07
1.0473e-07
1.04635e-07
1.04549e-07
1.04466e-07
1.0439e-07
1.04318e-07
1.04251e-07
1.04187e-07
1.04128e-07
1.04073e-07
1.04019e-07
1.0397e-07
1.03922e-07
1.0388e-07
1.03836e-07
1.03799e-07
1.03759e-07
1.03726e-07
1.03686e-07
1.03659e-07
1.03623e-07
1.03599e-07
1.03566e-07
1.03544e-07
1.03515e-07
1.03495e-07
1.03468e-07
1.03448e-07
1.03424e-07
1.03406e-07
1.03382e-07
1.03365e-07
1.03345e-07
1.0333e-07
1.03309e-07
1.03294e-07
1.03274e-07
1.0326e-07
1.03243e-07
1.03231e-07
1.03216e-07
1.03206e-07
1.03192e-07
1.03182e-07
1.03169e-07
1.03159e-07
1.03145e-07
1.03136e-07
1.03123e-07
1.03114e-07
1.031e-07
1.03091e-07
1.03078e-07
1.03065e-07
1.03052e-07
1.03039e-07
1.03012e-07
1.03003e-07
1.03038e-07
1.04911e-07
7.07569e-08
2.98552e-08
1.23943e-07
1.23126e-07
1.22323e-07
1.21308e-07
1.2009e-07
1.18739e-07
1.17388e-07
1.1608e-07
1.14885e-07
1.13785e-07
1.12812e-07
1.11927e-07
1.11154e-07
1.10449e-07
1.09836e-07
1.09272e-07
1.08782e-07
1.08329e-07
1.07934e-07
1.07565e-07
1.07243e-07
1.0694e-07
1.06675e-07
1.06424e-07
1.06204e-07
1.05994e-07
1.05809e-07
1.05632e-07
1.05476e-07
1.05325e-07
1.05192e-07
1.05064e-07
1.04949e-07
1.04838e-07
1.04739e-07
1.04643e-07
1.04557e-07
1.04473e-07
1.04397e-07
1.04325e-07
1.04257e-07
1.04193e-07
1.04134e-07
1.04078e-07
1.04024e-07
1.03975e-07
1.03926e-07
1.03884e-07
1.0384e-07
1.03803e-07