/*--------------------------------*- C++ -*----------------------------------*\
| =========                 |                                                 |
| \\      /  F ield         | OpenFOAM: The Open Source CFD Toolbox           |
|  \\    /   O peration     | Version:  v2012                                 |
|   \\  /    A nd           | Website:  www.openfoam.com                      |
|    \\/     M anipulation  |                                                 |
\*---------------------------------------------------------------------------*/
FoamFile
{
    version     2.0;
    format      ascii;
    class       volScalarField;
    location    "51";
    object      omega;
}
// * * * * * * * * * * * * * * * * * * * * * * * * * * * * * * * * * * * * * //

dimensions      [0 0 -1 0 0 0 0];


internalField   nonuniform List<scalar> 
209825
(
8261.76
7569.65
6999.42
6540.71
6177.11
5890.27
5662.01
5478.83
5329.34
5206.39
5103.42
5016.94
4942.88
4879.68
4824.54
4776.92
4734.69
4697.91
4664.81
4635.81
4609.36
4586.11
4564.63
4545.71
4528.01
4512.44
4497.69
4484.74
4472.3
4461.44
4450.86
4441.67
4432.61
4424.79
4416.96
4410.27
4403.49
4397.74
4391.82
4386.84
4381.69
4377.37
4372.81
4369.08
4365.08
4361.81
4358.28
4355.39
4352.3
4349.78
4347.06
4344.88
4342.56
4340.57
4338.5
4336.78
4334.96
4333.44
4331.8
4330.49
4329.11
4328.04
4326.77
4325.9
4324.82
4324.07
4323.07
4322.45
4321.61
4321.14
4320.43
4320.05
4319.45
4319.12
4318.54
4318.18
4317.62
4317.32
4316.83
4316.58
4316.16
4315.97
4315.6
4315.48
4315.22
4315.28
4315.24
4315.48
4315.48
4315.88
4315.88
4316.59
4317.32
4345.65
4454.51
113104
8261.76
7569.65
6999.42
6540.7
6177.09
5890.25
5661.98
5478.79
5329.29
5206.33
5103.35
5016.87
4942.8
4879.6
4824.45
4776.83
4734.59
4697.81
4664.7
4635.71
4609.25
4586
4564.52
4545.6
4527.89
4512.33
4497.57
4484.62
4472.18
4461.31
4450.74
4441.55
4432.48
4424.66
4416.83
4410.15
4403.36
4397.61
4391.69
4386.71
4381.56
4377.24
4372.68
4368.95
4364.95
4361.68
4358.15
4355.26
4352.17
4349.64
4346.93
4344.75
4342.42
4340.44
4338.37
4336.64
4334.82
4333.3
4331.66
4330.35
4328.98
4327.9
4326.63
4325.76
4324.68
4323.93
4322.93
4322.31
4321.47
4321
4320.29
4319.91
4319.31
4318.98
4318.4
4318.04
4317.48
4317.18
4316.69
4316.44
4316.02
4315.83
4315.46
4315.34
4315.08
4315.14
4315.1
4315.34
4315.34
4315.74
4315.74
4316.45
4317.17
4345.55
4454.41
109806
8261.76
7569.66
6999.42
6540.69
6177.05
5890.16
5661.85
5478.64
5329.1
5206.12
5103.12
5016.61
4942.53
4879.31
4824.15
4776.52
4734.27
4697.47
4664.36
4635.36
4608.89
4585.64
4564.14
4545.22
4527.51
4511.94
4497.18
4484.22
4471.78
4460.91
4450.33
4441.14
4432.07
4424.25
4416.42
4409.73
4402.94
4397.19
4391.27
4386.28
4381.13
4376.81
4372.25
4368.51
4364.52
4361.24
4357.71
4354.82
4351.73
4349.2
4346.49
4344.3
4341.98
4339.99
4337.92
4336.2
4334.37
4332.86
4331.21
4329.91
4328.53
4327.45
4326.18
4325.31
4324.23
4323.48
4322.48
4321.86
4321.01
4320.55
4319.84
4319.46
4318.85
4318.53
4317.94
4317.58
4317.03
4316.72
4316.23
4315.98
4315.56
4315.37
4315
4314.88
4314.62
4314.68
4314.64
4314.88
4314.88
4315.27
4315.27
4315.98
4316.71
4345.19
4454.03
106019
8261.76
7569.67
6999.43
6540.66
6176.96
5890.02
5661.64
5478.37
5328.79
5205.76
5102.72
5016.17
4942.06
4878.82
4823.63
4775.98
4733.71
4696.9
4663.77
4634.75
4608.27
4585.01
4563.51
4544.58
4526.85
4511.28
4496.51
4483.55
4471.09
4460.22
4449.63
4440.44
4431.37
4423.54
4415.7
4409.01
4402.22
4396.47
4390.54
4385.55
4380.4
4376.07
4371.51
4367.77
4363.77
4360.5
4356.97
4354.07
4350.98
4348.45
4345.73
4343.55
4341.22
4339.23
4337.16
4335.44
4333.61
4332.09
4330.45
4329.14
4327.76
4326.68
4325.41
4324.54
4323.45
4322.7
4321.71
4321.08
4320.24
4319.77
4319.06
4318.68
4318.07
4317.75
4317.16
4316.8
4316.24
4315.94
4315.45
4315.2
4314.77
4314.58
4314.21
4314.1
4313.83
4313.89
4313.84
4314.08
4314.08
4314.48
4314.48
4315.19
4315.92
4344.55
4453.37
102125
8261.76
7569.69
6999.44
6540.61
6176.84
5889.8
5661.34
5477.99
5328.33
5205.24
5102.14
5015.55
4941.4
4878.11
4822.89
4775.21
4732.91
4696.08
4662.93
4633.89
4607.4
4584.12
4562.6
4543.65
4525.92
4510.33
4495.55
4482.58
4470.12
4459.24
4448.64
4439.44
4430.36
4422.53
4414.69
4407.99
4401.2
4395.43
4389.51
4384.51
4379.35
4375.02
4370.46
4366.72
4362.71
4359.44
4355.9
4353
4349.91
4347.38
4344.66
4342.47
4340.14
4338.15
4336.08
4334.35
4332.52
4331
4329.35
4328.05
4326.66
4325.58
4324.31
4323.44
4322.35
4321.6
4320.6
4319.98
4319.13
4318.66
4317.95
4317.57
4316.96
4316.63
4316.05
4315.69
4315.13
4314.82
4314.33
4314.08
4313.66
4313.47
4313.09
4312.98
4312.7
4312.76
4312.72
4312.95
4312.95
4313.34
4313.34
4314.05
4314.79
4343.63
4452.41
98227.7
8261.76
7569.71
6999.44
6540.55
6176.67
5889.53
5660.95
5477.49
5327.74
5204.57
5101.39
5014.74
4940.53
4877.2
4821.93
4774.21
4731.88
4695.01
4661.83
4632.77
4606.25
4582.95
4561.41
4542.45
4524.7
4509.1
4494.31
4481.32
4468.85
4457.96
4447.35
4438.14
4429.05
4421.21
4413.36
4406.65
4399.86
4394.09
4388.15
4383.16
4377.99
4373.66
4369.09
4365.34
4361.33
4358.05
4354.51
4351.61
4348.51
4345.98
4343.26
4341.06
4338.73
4336.74
4334.66
4332.93
4331.1
4329.58
4327.93
4326.62
4325.23
4324.15
4322.88
4322
4320.92
4320.16
4319.16
4318.54
4317.69
4317.22
4316.5
4316.12
4315.51
4315.18
4314.6
4314.24
4313.68
4313.37
4312.87
4312.63
4312.2
4312.01
4311.63
4311.51
4311.24
4311.29
4311.25
4311.48
4311.48
4311.86
4311.86
4312.57
4313.32
4342.44
4451.18
94367.8
8261.76
7569.74
6999.45
6540.48
6176.47
5889.18
5660.47
5476.88
5327.01
5203.73
5100.47
5013.73
4939.45
4876.06
4820.74
4772.97
4730.59
4693.69
4660.47
4631.38
4604.83
4581.51
4559.94
4540.96
4523.19
4507.57
4492.76
4479.76
4467.27
4456.37
4445.75
4436.53
4427.43
4419.58
4411.72
4405
4398.2
4392.42
4386.48
4381.47
4376.3
4371.96
4367.39
4363.63
4359.62
4356.34
4352.79
4349.89
4346.79
4344.25
4341.52
4339.32
4336.99
4334.99
4332.91
4331.18
4329.35
4327.82
4326.17
4324.85
4323.47
4322.38
4321.11
4320.23
4319.14
4318.38
4317.38
4316.75
4315.9
4315.43
4314.71
4314.33
4313.72
4313.39
4312.8
4312.44
4311.88
4311.57
4311.07
4310.82
4310.39
4310.2
4309.82
4309.7
4309.43
4309.48
4309.43
4309.66
4309.65
4310.03
4310.03
4310.74
4311.49
4340.95
4449.65
90564
8261.76
7569.77
6999.47
6540.39
6176.24
5888.78
5659.89
5476.14
5326.14
5202.74
5099.36
5012.53
4938.17
4874.7
4819.31
4771.48
4729.06
4692.11
4658.85
4629.72
4603.13
4579.78
4558.19
4539.18
4521.38
4505.74
4490.91
4477.9
4465.39
4454.47
4443.84
4434.6
4425.49
4417.63
4409.76
4403.03
4396.21
4390.43
4384.48
4379.46
4374.29
4369.94
4365.36
4361.6
4357.58
4354.29
4350.74
4347.83
4344.72
4342.17
4339.44
4337.24
4334.9
4332.9
4330.82
4329.08
4327.24
4325.72
4324.06
4322.74
4321.35
4320.27
4318.99
4318.1
4317.01
4316.25
4315.25
4314.62
4313.76
4313.29
4312.57
4312.18
4311.57
4311.24
4310.65
4310.29
4309.72
4309.41
4308.91
4308.66
4308.23
4308.04
4307.66
4307.54
4307.26
4307.3
4307.25
4307.47
4307.47
4307.84
4307.84
4308.54
4309.31
4339.18
4447.83
86825
8261.76
7569.81
6999.48
6540.29
6175.96
5888.3
5659.22
5475.29
5325.12
5201.58
5098.07
5011.13
4936.67
4873.11
4817.65
4769.75
4727.27
4690.26
4656.95
4627.78
4601.16
4577.76
4556.14
4537.1
4519.28
4503.61
4488.76
4475.72
4463.19
4452.25
4441.6
4432.35
4423.22
4415.35
4407.46
4400.73
4393.9
4388.1
4382.14
4377.12
4371.93
4367.57
4362.98
4359.22
4355.19
4351.89
4348.34
4345.42
4342.3
4339.75
4337.02
4334.81
4332.46
4330.46
4328.37
4326.63
4324.79
4323.26
4321.6
4320.28
4318.88
4317.79
4316.51
4315.62
4314.53
4313.77
4312.76
4312.12
4311.27
4310.79
4310.07
4309.68
4309.07
4308.73
4308.14
4307.78
4307.21
4306.9
4306.4
4306.14
4305.71
4305.51
4305.13
4305.01
4304.73
4304.77
4304.7
4304.92
4304.92
4305.29
4305.29
4305.98
4306.76
4337.12
4445.73
83153.7
8261.76
7569.85
6999.5
6540.18
6175.65
5887.76
5658.45
5474.32
5323.96
5200.25
5096.6
5009.53
4934.95
4871.3
4815.75
4767.77
4725.22
4688.15
4654.78
4625.56
4598.89
4575.46
4553.79
4534.72
4516.86
4501.17
4486.29
4473.22
4460.67
4449.72
4439.04
4429.78
4420.63
4412.74
4404.84
4398.09
4391.24
4385.44
4379.46
4374.43
4369.23
4364.86
4360.26
4356.49
4352.45
4349.15
4345.58
4342.66
4339.54
4336.98
4334.24
4332.02
4329.67
4327.66
4325.57
4323.83
4321.98
4320.44
4318.78
4317.45
4316.05
4314.96
4313.67
4312.78
4311.68
4310.92
4309.9
4309.27
4308.41
4307.93
4307.2
4306.81
4306.19
4305.86
4305.26
4304.9
4304.33
4304.01
4303.51
4303.25
4302.82
4302.62
4302.23
4302.11
4301.83
4301.86
4301.79
4302
4302
4302.36
4302.36
4303.05
4303.84
4334.77
4443.33
79548.2
8261.76
7569.9
6999.52
6540.06
6175.3
5887.15
5657.59
5473.22
5322.65
5198.75
5094.94
5007.73
4933.02
4869.26
4813.6
4765.54
4722.9
4685.76
4652.34
4623.05
4596.33
4572.85
4551.14
4532.03
4514.14
4498.41
4483.5
4470.41
4457.83
4446.85
4436.15
4426.86
4417.7
4409.79
4401.87
4395.1
4388.24
4382.42
4376.44
4371.39
4366.18
4361.8
4357.19
4353.41
4349.36
4346.05
4342.47
4339.54
4336.41
4333.85
4331.1
4328.88
4326.52
4324.5
4322.4
4320.65
4318.8
4317.26
4315.59
4314.26
4312.85
4311.76
4310.46
4309.57
4308.46
4307.7
4306.68
4306.04
4305.18
4304.69
4303.96
4303.57
4302.95
4302.61
4302.01
4301.65
4301.07
4300.76
4300.25
4299.99
4299.55
4299.35
4298.96
4298.83
4298.55
4298.57
4298.5
4298.7
4298.7
4299.04
4299.05
4299.73
4300.54
4332.11
4440.65
76002.9
8261.76
7569.96
6999.54
6539.92
6174.91
5886.48
5656.63
5472
5321.19
5197.09
5093.09
5005.71
4930.86
4866.97
4811.21
4763.05
4720.32
4683.1
4649.6
4620.26
4593.47
4569.94
4548.18
4529.03
4511.1
4495.33
4480.38
4467.26
4454.65
4443.65
4432.92
4423.61
4414.42
4406.5
4398.56
4391.77
4384.9
4379.06
4373.06
4368
4362.77
4358.38
4353.76
4349.96
4345.91
4342.58
4339
4336.06
4332.92
4330.35
4327.59
4325.36
4322.99
4320.97
4318.86
4317.11
4315.25
4313.7
4312.02
4310.69
4309.28
4308.18
4306.88
4305.98
4304.87
4304.1
4303.08
4302.43
4301.56
4301.08
4300.34
4299.94
4299.32
4298.98
4298.38
4298.01
4297.44
4297.11
4296.61
4296.34
4295.9
4295.69
4295.3
4295.17
4294.88
4294.9
4294.82
4295.01
4295.01
4295.34
4295.35
4296.02
4296.86
4329.15
4437.69
72513.9
8261.76
7570.02
6999.57
6539.77
6174.48
5885.74
5655.58
5470.65
5319.58
5195.25
5091.04
5003.49
4928.48
4864.45
4808.56
4760.29
4717.47
4680.16
4646.58
4617.16
4590.32
4566.72
4544.91
4525.71
4507.73
4491.92
4476.94
4463.78
4451.14
4440.1
4429.35
4420.02
4410.8
4402.85
4394.89
4388.09
4381.19
4375.34
4369.32
4364.24
4359
4354.6
4349.96
4346.15
4342.08
4338.75
4335.15
4332.2
4329.05
4326.47
4323.7
4321.47
4319.09
4317.07
4314.95
4313.19
4311.32
4309.77
4308.08
4306.74
4305.32
4304.22
4302.91
4302.01
4300.89
4300.11
4299.09
4298.44
4297.57
4297.07
4296.33
4295.93
4295.31
4294.96
4294.36
4293.99
4293.41
4293.09
4292.57
4292.31
4291.86
4291.65
4291.26
4291.12
4290.83
4290.83
4290.74
4290.93
4290.93
4291.25
4291.25
4291.92
4292.78
4325.87
4434.44
69087.8
8261.76
7570.08
6999.6
6539.6
6174.02
5884.93
5654.43
5469.18
5317.82
5193.23
5088.81
5001.06
4925.87
4861.69
4805.66
4757.27
4714.34
4676.94
4643.27
4613.77
4586.85
4563.19
4541.32
4522.07
4504.04
4488.19
4473.16
4459.96
4447.28
4436.21
4425.43
4416.07
4406.82
4398.85
4390.86
4384.04
4377.12
4371.25
4365.21
4360.12
4354.86
4350.44
4345.79
4341.97
4337.89
4334.54
4330.93
4327.97
4324.81
4322.22
4319.44
4317.19
4314.81
4312.77
4310.65
4308.88
4307
4305.44
4303.75
4302.41
4300.97
4299.87
4298.55
4297.64
4296.52
4295.74
4294.71
4294.06
4293.17
4292.68
4291.93
4291.53
4290.9
4290.55
4289.94
4289.57
4288.99
4288.66
4288.14
4287.87
4287.42
4287.21
4286.81
4286.67
4286.38
4286.37
4286.27
4286.45
4286.44
4286.75
4286.75
4287.42
4288.3
4322.28
4430.91
65730.5
8261.75
7570.16
6999.63
6539.43
6173.51
5884.05
5653.18
5467.58
5315.91
5191.05
5086.37
4998.41
4923.03
4858.68
4802.51
4753.98
4710.93
4673.42
4639.65
4610.07
4583.07
4559.35
4537.41
4518.1
4500.01
4484.11
4469.03
4455.8
4443.08
4431.97
4421.16
4411.76
4402.49
4394.49
4386.47
4379.62
4372.68
4366.79
4360.73
4355.62
4350.34
4345.91
4341.24
4337.4
4333.31
4329.95
4326.33
4323.35
4320.18
4317.58
4314.78
4312.53
4310.13
4308.09
4305.95
4304.18
4302.29
4300.73
4299.03
4297.67
4296.23
4295.12
4293.8
4292.88
4291.75
4290.97
4289.93
4289.27
4288.38
4287.88
4287.13
4286.72
4286.09
4285.74
4285.12
4284.75
4284.16
4283.83
4283.31
4283.03
4282.58
4282.36
4281.96
4281.81
4281.52
4281.5
4281.38
4281.56
4281.55
4281.85
4281.84
4282.5
4283.41
4318.37
4427.1
62447.8
8261.75
7570.23
6999.67
6539.24
6172.97
5883.11
5651.83
5465.86
5313.85
5188.68
5083.74
4995.54
4919.96
4855.43
4799.09
4750.42
4707.23
4669.61
4635.74
4606.07
4578.98
4555.18
4533.17
4513.79
4495.64
4479.69
4464.56
4451.28
4438.52
4427.37
4416.52
4407.09
4397.78
4389.75
4381.71
4374.84
4367.87
4361.96
4355.87
4350.74
4345.44
4340.99
4336.31
4332.45
4328.34
4324.96
4321.33
4318.34
4315.16
4312.54
4309.74
4307.47
4305.06
4303.01
4300.86
4299.08
4297.18
4295.61
4293.9
4292.54
4291.09
4289.97
4288.64
4287.72
4286.58
4285.79
4284.74
4284.08
4283.18
4282.68
4281.92
4281.51
4280.86
4280.51
4279.9
4279.52
4278.92
4278.59
4278.06
4277.78
4277.32
4277.1
4276.69
4276.55
4276.25
4276.22
4276.09
4276.25
4276.24
4276.52
4276.52
4277.17
4278.11
4314.12
4423.02
59244.9
8261.75
7570.31
6999.71
6539.04
6172.4
5882.1
5650.38
5464.01
5311.63
5186.14
5080.91
4992.46
4916.65
4851.92
4795.4
4746.58
4703.25
4665.51
4631.52
4601.75
4574.57
4550.68
4528.59
4509.15
4490.93
4474.92
4459.74
4446.41
4433.6
4422.41
4411.52
4402.05
4392.71
4384.65
4376.57
4369.67
4362.67
4356.74
4350.63
4345.48
4340.16
4335.69
4330.98
4327.11
4322.98
4319.59
4315.94
4312.94
4309.73
4307.11
4304.29
4302.01
4299.59
4297.53
4295.37
4293.57
4291.66
4290.09
4288.36
4287
4285.54
4284.41
4283.07
4282.14
4280.99
4280.2
4279.14
4278.48
4277.57
4277.06
4276.29
4275.88
4275.23
4274.87
4274.25
4273.87
4273.27
4272.93
4272.4
4272.11
4271.64
4271.42
4271.01
4270.86
4270.55
4270.51
4270.37
4270.52
4270.51
4270.78
4270.77
4271.41
4272.38
4309.53
4418.68
56126.6
8261.75
7570.4
6999.75
6538.83
6171.79
5881.02
5648.84
5462.03
5309.26
5183.41
5077.87
4989.15
4913.1
4848.16
4791.45
4742.46
4698.98
4661.1
4627
4597.11
4569.83
4545.85
4523.68
4504.16
4485.88
4469.8
4454.56
4441.18
4428.31
4417.08
4406.14
4396.64
4387.25
4379.16
4371.05
4364.12
4357.09
4351.13
4344.99
4339.82
4334.47
4329.98
4325.25
4321.37
4317.21
4313.81
4310.14
4307.13
4303.9
4301.27
4298.43
4296.14
4293.7
4291.63
4289.46
4287.66
4285.73
4284.15
4282.42
4281.04
4279.57
4278.43
4277.08
4276.15
4274.99
4274.19
4273.13
4272.45
4271.54
4271.02
4270.25
4269.82
4269.17
4268.81
4268.18
4267.8
4267.19
4266.85
4266.31
4266.02
4265.54
4265.31
4264.9
4264.74
4264.43
4264.38
4264.22
4264.36
4264.35
4264.6
4264.58
4265.22
4266.23
4304.58
4414.06
53097.4
8261.74
7570.49
6999.8
6538.61
6171.14
5879.88
5647.2
5459.93
5306.73
5180.51
5074.64
4985.62
4909.32
4844.14
4787.23
4738.06
4694.42
4656.4
4622.15
4592.15
4564.76
4540.69
4518.43
4498.83
4480.47
4464.33
4449.02
4435.58
4422.66
4411.38
4400.39
4390.84
4381.42
4373.28
4365.14
4358.18
4351.12
4345.12
4338.96
4333.76
4328.39
4323.88
4319.13
4315.22
4311.04
4307.62
4303.93
4300.9
4297.66
4295.01
4292.16
4289.85
4287.4
4285.32
4283.13
4281.32
4279.38
4277.79
4276.05
4274.66
4273.17
4272.03
4270.67
4269.73
4268.56
4267.75
4266.68
4266
4265.08
4264.55
4263.77
4263.34
4262.68
4262.31
4261.68
4261.29
4260.68
4260.33
4259.78
4259.49
4259.01
4258.78
4258.35
4258.19
4257.87
4257.82
4257.64
4257.77
4257.75
4257.99
4257.96
4258.59
4259.64
4299.26
4409.14
50161.4
8261.74
7570.59
6999.85
6538.39
6170.46
5878.67
5645.46
5457.69
5304.04
5177.43
5071.2
4981.87
4905.29
4839.87
4782.74
4733.38
4689.56
4651.38
4617
4586.87
4559.36
4535.19
4512.83
4493.14
4474.7
4458.49
4443.11
4429.61
4416.63
4405.29
4394.25
4384.66
4375.19
4367.02
4358.84
4351.84
4344.74
4338.72
4332.53
4327.3
4321.9
4317.37
4312.59
4308.66
4304.46
4301.02
4297.31
4294.26
4291.01
4288.34
4285.47
4283.15
4280.68
4278.59
4276.38
4274.56
4272.61
4271.01
4269.25
4267.85
4266.35
4265.2
4263.83
4262.88
4261.69
4260.88
4259.8
4259.11
4258.18
4257.65
4256.86
4256.42
4255.75
4255.38
4254.75
4254.35
4253.73
4253.38
4252.82
4252.53
4252.04
4251.8
4251.36
4251.2
4250.88
4250.81
4250.61
4250.73
4250.71
4250.93
4250.9
4251.51
4252.61
4293.56
4403.9
47322.5
8261.73
7570.69
6999.91
6538.15
6169.74
5877.4
5643.63
5455.33
5301.21
5174.16
5067.55
4977.89
4901.01
4835.34
4777.97
4728.4
4684.4
4646.06
4611.52
4581.26
4553.63
4529.34
4506.88
4487.1
4468.57
4452.28
4436.83
4423.26
4410.22
4398.83
4387.73
4378.09
4368.57
4360.36
4352.13
4345.1
4337.97
4331.91
4325.68
4320.43
4315
4310.44
4305.63
4301.68
4297.46
4294
4290.27
4287.2
4283.92
4281.24
4278.35
4276.01
4273.53
4271.42
4269.2
4267.37
4265.4
4263.79
4262.02
4260.61
4259.1
4257.94
4256.55
4255.59
4254.39
4253.57
4252.48
4251.79
4250.85
4250.3
4249.51
4249.06
4248.39
4248.01
4247.36
4246.97
4246.34
4245.98
4245.42
4245.12
4244.62
4244.37
4243.93
4243.76
4243.43
4243.35
4243.14
4243.25
4243.22
4243.42
4243.38
4243.99
4245.13
4287.45
4398.32
44583.9
8261.73
7570.8
6999.97
6537.9
6169
5876.07
5641.7
5452.85
5298.21
5170.71
5063.71
4973.69
4896.49
4830.54
4772.93
4723.14
4678.94
4640.42
4605.72
4575.32
4547.55
4523.15
4500.57
4480.7
4462.08
4445.7
4430.17
4416.53
4403.42
4391.97
4380.82
4371.12
4361.56
4353.3
4345.03
4337.95
4330.78
4324.69
4318.43
4313.14
4307.68
4303.09
4298.26
4294.28
4290.03
4286.55
4282.8
4279.71
4276.41
4273.71
4270.8
4268.45
4265.94
4263.82
4261.59
4259.74
4257.75
4256.13
4254.34
4252.93
4251.4
4250.23
4248.83
4247.86
4246.65
4245.82
4244.72
4244.01
4243.06
4242.51
4241.7
4241.25
4240.57
4240.18
4239.53
4239.13
4238.5
4238.13
4237.56
4237.25
4236.74
4236.49
4236.04
4235.86
4235.53
4235.44
4235.21
4235.3
4235.27
4235.45
4235.4
4236
4237.19
4280.92
4392.37
41949
8261.72
7570.91
7000.04
6537.65
6168.22
5874.67
5639.68
5450.23
5295.06
5167.09
5059.65
4969.26
4891.73
4825.48
4767.61
4717.58
4673.17
4634.46
4599.6
4569.04
4541.13
4516.6
4493.91
4473.93
4455.21
4438.75
4423.13
4409.42
4396.24
4384.72
4373.51
4363.76
4354.13
4345.83
4337.51
4330.39
4323.18
4317.05
4310.75
4305.43
4299.93
4295.32
4290.45
4286.45
4282.18
4278.67
4274.89
4271.78
4268.46
4265.74
4262.81
4260.44
4257.92
4255.78
4253.52
4251.66
4249.66
4248.03
4246.23
4244.8
4243.25
4242.07
4240.66
4239.67
4238.45
4237.62
4236.5
4235.79
4234.83
4234.26
4233.45
4232.99
4232.29
4231.9
4231.25
4230.84
4230.2
4229.82
4229.24
4228.93
4228.41
4228.15
4227.7
4227.51
4227.17
4227.07
4226.82
4226.9
4226.86
4227.02
4226.96
4227.55
4228.79
4273.94
4386.01
39420.2
8261.71
7571.03
7000.11
6537.39
6167.4
5873.22
5637.56
5447.5
5291.76
5163.28
5055.39
4964.6
4886.72
4820.16
4762.01
4711.73
4667.1
4628.19
4593.14
4562.42
4534.37
4509.7
4486.89
4466.8
4447.97
4431.41
4415.71
4401.92
4388.66
4377.08
4365.79
4355.99
4346.3
4337.95
4329.58
4322.41
4315.16
4308.99
4302.65
4297.29
4291.76
4287.12
4282.22
4278.19
4273.88
4270.35
4266.55
4263.42
4260.07
4257.33
4254.38
4251.99
4249.44
4247.29
4245.02
4243.14
4241.12
4239.47
4237.65
4236.22
4234.65
4233.46
4232.03
4231.03
4229.8
4228.95
4227.83
4227.1
4226.13
4225.56
4224.73
4224.26
4223.56
4223.16
4222.49
4222.08
4221.43
4221.05
4220.46
4220.14
4219.61
4219.35
4218.88
4218.69
4218.33
4218.23
4217.97
4218.03
4217.97
4218.12
4218.05
4218.62
4219.92
4266.49
4379.22
37000.1
8261.71
7571.15
7000.19
6537.12
6166.56
5871.7
5635.36
5444.64
5288.3
5159.28
5050.92
4959.72
4881.46
4814.57
4756.12
4705.59
4660.71
4621.6
4586.36
4555.47
4527.25
4502.45
4479.5
4459.29
4440.35
4423.7
4407.9
4394.02
4380.68
4369.03
4357.67
4347.8
4338.06
4329.65
4321.23
4314.02
4306.71
4300.5
4294.12
4288.73
4283.15
4278.48
4273.55
4269.48
4265.15
4261.59
4257.76
4254.61
4251.23
4248.47
4245.5
4243.08
4240.52
4238.35
4236.05
4234.16
4232.12
4230.46
4228.62
4227.17
4225.59
4224.39
4222.94
4221.93
4220.68
4219.83
4218.69
4217.96
4216.97
4216.38
4215.54
4215.06
4214.35
4213.95
4213.27
4212.85
4212.19
4211.81
4211.21
4210.88
4210.34
4210.07
4209.6
4209.39
4209.03
4208.91
4208.64
4208.68
4208.62
4208.75
4208.66
4209.22
4210.58
4258.53
4371.96
34690.6
8261.7
7571.28
7000.27
6536.85
6165.7
5870.12
5633.06
5441.65
5284.69
5155.11
5046.25
4954.6
4875.95
4808.72
4749.95
4699.14
4654.02
4614.68
4579.24
4548.17
4519.79
4494.83
4471.74
4451.41
4432.35
4415.59
4399.69
4385.73
4372.3
4360.57
4349.14
4339.21
4329.4
4320.93
4312.45
4305.19
4297.83
4291.58
4285.15
4279.72
4274.11
4269.4
4264.43
4260.33
4255.97
4252.38
4248.52
4245.34
4241.94
4239.16
4236.16
4233.72
4231.13
4228.95
4226.63
4224.72
4222.66
4220.99
4219.13
4217.67
4216.06
4214.85
4213.38
4212.36
4211.1
4210.23
4209.08
4208.33
4207.33
4206.74
4205.88
4205.4
4204.67
4204.26
4203.58
4203.15
4202.48
4202.09
4201.48
4201.14
4200.6
4200.31
4199.83
4199.61
4199.24
4199.12
4198.83
4198.85
4198.78
4198.89
4198.78
4199.34
4200.75
4250.04
4364.19
32493.7
8261.69
7571.41
7000.36
6536.57
6164.8
5868.49
5630.67
5438.55
5280.92
5150.76
5041.37
4949.26
4870.19
4802.59
4743.5
4692.4
4647.01
4607.44
4571.78
4540.52
4511.96
4486.85
4463.62
4443.15
4423.97
4407.1
4391.09
4377.04
4363.52
4351.71
4340.2
4330.2
4320.32
4311.79
4303.25
4295.93
4288.52
4282.22
4275.75
4270.28
4264.62
4259.87
4254.87
4250.74
4246.34
4242.72
4238.83
4235.63
4232.2
4229.39
4226.36
4223.9
4221.29
4219.08
4216.74
4214.82
4212.73
4211.04
4209.17
4207.69
4206.06
4204.83
4203.36
4202.32
4201.04
4200.16
4198.99
4198.24
4197.22
4196.62
4195.75
4195.25
4194.51
4194.1
4193.4
4192.97
4192.29
4191.89
4191.27
4190.92
4190.36
4190.07
4189.58
4189.35
4188.97
4188.84
4188.53
4188.54
4188.45
4188.54
4188.42
4188.96
4190.43
4240.97
4355.88
30410.7
8261.67
7571.55
7000.46
6536.29
6163.88
5866.81
5628.19
5435.32
5277.01
5146.23
5036.29
4943.69
4864.19
4796.21
4736.77
4685.36
4639.69
4599.88
4563.99
4532.53
4503.78
4478.51
4455.12
4434.51
4415.2
4398.22
4382.1
4367.94
4354.33
4342.43
4330.84
4320.76
4310.81
4302.22
4293.61
4286.24
4278.77
4272.42
4265.9
4260.38
4254.68
4249.9
4244.85
4240.69
4236.25
4232.6
4228.68
4225.45
4221.99
4219.15
4216.09
4213.61
4210.97
4208.75
4206.38
4204.44
4202.33
4200.63
4198.73
4197.24
4195.59
4194.35
4192.85
4191.8
4190.5
4189.61
4188.42
4187.66
4186.62
4186.01
4185.13
4184.62
4183.87
4183.44
4182.74
4182.3
4181.61
4181.2
4180.57
4180.21
4179.64
4179.34
4178.84
4178.6
4178.21
4178.06
4177.75
4177.74
4177.63
4177.7
4177.56
4178.09
4179.62
4231.28
4346.98
28443.2
8261.66
7571.68
7000.56
6536
6162.93
5865.07
5625.63
5431.98
5272.95
5141.52
5031
4937.9
4857.94
4789.55
4729.75
4678.02
4632.06
4591.98
4555.86
4524.19
4495.25
4469.79
4446.24
4425.49
4406.04
4388.93
4372.7
4358.43
4344.72
4332.73
4321.06
4310.9
4300.87
4292.21
4283.54
4276.11
4268.58
4262.18
4255.6
4250.04
4244.29
4239.47
4234.38
4230.18
4225.7
4222.02
4218.06
4214.8
4211.31
4208.45
4205.36
4202.85
4200.18
4197.94
4195.55
4193.58
4191.46
4189.73
4187.81
4186.3
4184.63
4183.37
4181.86
4180.79
4179.47
4178.57
4177.37
4176.59
4175.54
4174.91
4174.02
4173.5
4172.74
4172.3
4171.58
4171.13
4170.43
4170.01
4169.37
4169.01
4168.43
4168.12
4167.6
4167.35
4166.95
4166.79
4166.47
4166.43
4166.31
4166.36
4166.19
4166.72
4168.3
4220.96
4337.47
26592.2
8261.65
7571.83
7000.66
6535.72
6161.96
5863.27
5622.99
5428.52
5268.74
5136.64
5025.52
4931.87
4851.43
4782.62
4722.44
4670.38
4624.11
4583.76
4547.39
4515.5
4486.35
4460.71
4436.99
4416.08
4396.49
4379.25
4362.89
4348.52
4334.7
4322.62
4310.85
4300.61
4290.5
4281.77
4273.03
4265.54
4257.95
4251.49
4244.86
4239.25
4233.45
4228.58
4223.44
4219.2
4214.69
4210.97
4206.98
4203.69
4200.16
4197.27
4194.15
4191.62
4188.92
4186.65
4184.23
4182.25
4180.1
4178.35
4176.41
4174.88
4173.19
4171.92
4170.38
4169.3
4167.96
4167.04
4165.82
4165.03
4163.97
4163.32
4162.41
4161.88
4161.1
4160.66
4159.93
4159.47
4158.76
4158.33
4157.68
4157.3
4156.71
4156.39
4155.86
4155.6
4155.18
4155.02
4154.68
4154.63
4154.49
4154.52
4154.33
4154.84
4156.48
4210.03
4327.3
24858.9
8261.63
7571.97
7000.78
6535.43
6160.97
5861.44
5620.27
5424.95
5264.39
5131.59
5019.83
4925.63
4844.69
4775.43
4714.85
4662.44
4615.85
4575.22
4538.58
4506.45
4477.09
4451.26
4427.35
4406.29
4386.55
4369.17
4352.68
4338.19
4324.26
4312.08
4300.21
4289.89
4279.7
4270.89
4262.08
4254.52
4246.86
4240.35
4233.66
4228
4222.14
4217.23
4212.05
4207.77
4203.21
4199.45
4195.42
4192.1
4188.53
4185.61
4182.46
4179.9
4177.17
4174.88
4172.43
4170.43
4168.25
4166.49
4164.52
4162.98
4161.25
4159.97
4158.41
4157.31
4155.95
4155.02
4153.78
4152.98
4151.89
4151.24
4150.31
4149.76
4148.97
4148.52
4147.77
4147.31
4146.58
4146.15
4145.48
4145.09
4144.49
4144.16
4143.61
4143.35
4142.91
4142.73
4142.38
4142.32
4142.16
4142.17
4141.95
4142.46
4144.15
4198.47
4316.43
23244.2
8261.61
7572.12
7000.9
6535.14
6159.97
5859.55
5617.46
5421.27
5259.89
5126.36
5013.94
4919.16
4837.7
4767.98
4706.98
4654.2
4607.27
4566.34
4529.43
4497.06
4467.47
4441.44
4417.34
4396.11
4376.2
4358.69
4342.06
4327.45
4313.4
4301.12
4289.15
4278.74
4268.46
4259.57
4250.68
4243.05
4235.32
4228.75
4222
4216.28
4210.37
4205.41
4200.18
4195.86
4191.25
4187.46
4183.39
4180.03
4176.43
4173.48
4170.29
4167.7
4164.94
4162.63
4160.14
4158.12
4155.91
4154.13
4152.14
4150.57
4148.83
4147.52
4145.94
4144.82
4143.44
4142.49
4141.24
4140.42
4139.32
4138.65
4137.7
4137.14
4136.34
4135.87
4135.11
4134.64
4133.9
4133.45
4132.77
4132.37
4131.75
4131.41
4130.85
4130.58
4130.13
4129.94
4129.57
4129.49
4129.33
4129.3
4129.05
4129.55
4131.3
4186.29
4304.84
21743.8
8261.6
7572.27
7001.03
6534.86
6158.94
5857.62
5614.59
5417.49
5255.26
5120.96
5007.86
4912.47
4830.46
4760.26
4698.83
4645.66
4598.38
4557.14
4519.94
4487.31
4457.48
4431.24
4406.95
4385.54
4365.47
4347.8
4331.03
4316.3
4302.12
4289.73
4277.65
4267.15
4256.77
4247.81
4238.83
4231.13
4223.33
4216.69
4209.88
4204.11
4198.14
4193.13
4187.84
4183.47
4178.82
4174.99
4170.87
4167.48
4163.84
4160.86
4157.64
4155.02
4152.21
4149.88
4147.37
4145.32
4143.08
4141.28
4139.26
4137.67
4135.9
4134.57
4132.97
4131.84
4130.43
4129.46
4128.19
4127.36
4126.23
4125.55
4124.58
4124.01
4123.19
4122.71
4121.94
4121.46
4120.7
4120.25
4119.55
4119.14
4118.51
4118.15
4117.58
4117.29
4116.83
4116.63
4116.25
4116.15
4115.97
4115.92
4115.63
4116.13
4117.92
4173.47
4292.47
20353.1
8261.58
7572.43
7001.16
6534.57
6157.9
5855.65
5611.64
5413.6
5250.49
5115.41
5001.59
4905.56
4822.98
4752.28
4690.39
4636.82
4589.18
4547.61
4510.11
4477.21
4447.14
4420.68
4396.17
4374.58
4354.33
4336.51
4319.59
4304.72
4290.42
4277.91
4265.72
4255.12
4244.65
4235.6
4226.53
4218.76
4210.88
4204.18
4197.29
4191.46
4185.43
4180.37
4175.03
4170.62
4165.91
4162.04
4157.88
4154.45
4150.77
4147.75
4144.49
4141.84
4139
4136.64
4134.09
4132.02
4129.75
4127.93
4125.88
4124.27
4122.47
4121.12
4119.49
4118.34
4116.91
4115.93
4114.64
4113.79
4112.64
4111.94
4110.95
4110.37
4109.53
4109.04
4108.26
4107.76
4106.99
4106.53
4105.81
4105.39
4104.74
4104.38
4103.79
4103.49
4103.01
4102.79
4102.4
4102.28
4102.08
4102.01
4101.69
4102.18
4104.02
4160.02
4279.3
19067.1
8261.55
7572.59
7001.3
6534.29
6156.84
5853.64
5608.62
5409.6
5245.59
5109.68
4995.13
4898.44
4815.27
4744.04
4681.68
4627.68
4579.66
4537.75
4499.94
4466.76
4436.43
4409.74
4385.02
4363.23
4342.8
4324.81
4307.73
4292.73
4278.29
4265.67
4253.36
4242.65
4232.08
4222.94
4213.78
4205.93
4197.97
4191.2
4184.24
4178.35
4172.26
4167.14
4161.74
4157.28
4152.53
4148.61
4144.4
4140.93
4137.2
4134.15
4130.85
4128.17
4125.29
4122.9
4120.32
4118.22
4115.91
4114.07
4111.99
4110.37
4108.53
4107.17
4105.51
4104.34
4102.88
4101.88
4100.57
4099.7
4098.54
4097.82
4096.81
4096.21
4095.35
4094.85
4094.05
4093.54
4092.76
4092.28
4091.55
4091.12
4090.45
4090.08
4089.47
4089.16
4088.66
4088.44
4088.02
4087.89
4087.67
4087.58
4087.22
4087.7
4089.59
4145.95
4265.3
17880.5
8261.53
7572.74
7001.45
6534.01
6155.78
5851.6
5605.54
5405.52
5240.57
5103.81
4988.48
4891.11
4807.32
4735.55
4672.69
4618.26
4569.83
4527.57
4489.43
4455.96
4425.36
4398.42
4373.48
4351.49
4330.87
4312.71
4295.47
4280.32
4265.74
4252.99
4240.56
4229.74
4219.06
4209.83
4200.58
4192.64
4184.6
4177.76
4170.72
4164.77
4158.61
4153.43
4147.98
4143.46
4138.65
4134.69
4130.43
4126.92
4123.15
4120.06
4116.72
4114
4111.08
4108.66
4106.04
4103.92
4101.58
4099.71
4097.6
4095.95
4094.09
4092.7
4091.01
4089.82
4088.34
4087.32
4085.98
4085.1
4083.91
4083.18
4082.15
4081.53
4080.66
4080.14
4079.32
4078.81
4078.01
4077.52
4076.77
4076.33
4075.64
4075.25
4074.63
4074.3
4073.79
4073.55
4073.12
4072.97
4072.73
4072.62
4072.22
4072.69
4074.62
4131.23
4250.44
16787.9
8261.51
7572.91
7001.61
6533.74
6154.71
5849.52
5602.4
5401.34
5235.41
5097.77
4981.65
4883.57
4799.14
4726.8
4663.43
4608.54
4559.7
4517.06
4478.58
4444.82
4413.93
4386.74
4361.56
4339.36
4318.54
4300.2
4282.79
4267.49
4252.76
4239.88
4227.32
4216.39
4205.6
4196.27
4186.92
4178.9
4170.77
4163.85
4156.74
4150.72
4144.48
4139.25
4133.73
4129.16
4124.29
4120.28
4115.97
4112.42
4108.6
4105.47
4102.09
4099.33
4096.37
4093.92
4091.26
4089.11
4086.74
4084.84
4082.7
4081.03
4079.13
4077.72
4076.01
4074.79
4073.28
4072.25
4070.88
4069.98
4068.77
4068.02
4066.97
4066.33
4065.44
4064.91
4064.07
4063.54
4062.73
4062.22
4061.46
4061.01
4060.3
4059.9
4059.26
4058.92
4058.38
4058.13
4057.68
4057.51
4057.26
4057.13
4056.69
4057.15
4059.1
4115.89
4234.68
15783.6
8261.48
7573.07
7001.77
6533.47
6153.62
5847.42
5599.2
5397.07
5230.14
5091.59
4974.64
4875.82
4790.73
4717.8
4653.9
4598.53
4549.26
4506.24
4467.4
4433.32
4402.14
4374.69
4349.26
4326.84
4305.81
4287.29
4269.7
4254.24
4239.36
4226.34
4213.65
4202.6
4191.69
4182.26
4172.81
4164.7
4156.47
4149.47
4142.28
4136.19
4129.88
4124.59
4119
4114.38
4109.45
4105.39
4101.03
4097.43
4093.56
4090.39
4086.96
4084.16
4081.16
4078.68
4075.98
4073.8
4071.39
4069.47
4067.29
4065.6
4063.66
4062.23
4060.48
4059.25
4057.71
4056.65
4055.26
4054.34
4053.11
4052.33
4051.26
4050.61
4049.69
4049.15
4048.29
4047.75
4046.92
4046.4
4045.62
4045.15
4044.43
4044.01
4043.36
4043
4042.44
4042.18
4041.71
4041.52
4041.25
4041.1
4040.62
4041.07
4043.05
4099.91
4218
14861.7
8261.45
7573.23
7001.94
6533.21
6152.54
5845.29
5595.95
5392.72
5224.76
5085.26
4967.46
4867.88
4782.1
4708.56
4644.1
4588.24
4538.52
4495.1
4455.89
4421.48
4389.99
4362.27
4336.58
4313.94
4292.69
4273.98
4256.2
4240.57
4225.53
4212.37
4199.54
4188.37
4177.34
4167.8
4158.24
4150.03
4141.72
4134.63
4127.36
4121.19
4114.81
4109.45
4103.79
4099.11
4094.12
4090
4085.59