/*--------------------------------*- C++ -*----------------------------------*\
| =========                 |                                                 |
| \\      /  F ield         | OpenFOAM: The Open Source CFD Toolbox           |
|  \\    /   O peration     | Version:  v2012                                 |
|   \\  /    A nd           | Website:  www.openfoam.com                      |
|    \\/     M anipulation  |                                                 |
\*---------------------------------------------------------------------------*/
FoamFile
{
    version     2.0;
    format      ascii;
    class       volVectorField;
    location    "51";
    object      wallShearStress;
}
// * * * * * * * * * * * * * * * * * * * * * * * * * * * * * * * * * * * * * //

dimensions      [0 2 -2 0 0 0 0];


internalField   uniform (0 0 0);

boundaryField
{
    inlet
    {
        type            calculated;
        value           uniform (0 0 0);
    }
    outlet
    {
        type            calculated;
        value           uniform (0 0 0);
    }
    topWall
    {
        type            calculated;
        value           nonuniform List<vector> 
545
(
(3.67447e-08 -2.58651e-08 0)
(3.67334e-08 -7.23548e-08 0)
(3.67134e-08 -1.20698e-07 0)
(3.66849e-08 -1.67644e-07 0)
(3.66491e-08 -2.12591e-07 0)
(3.66068e-08 -2.56118e-07 0)
(3.65586e-08 -2.98594e-07 0)
(3.65047e-08 -3.4e-07 0)
(3.64457e-08 -3.80245e-07 0)
(3.63821e-08 -4.19329e-07 0)
(3.63142e-08 -4.57303e-07 0)
(3.62426e-08 -4.9421e-07 0)
(3.61676e-08 -5.30076e-07 0)
(3.60894e-08 -5.64922e-07 0)
(3.60086e-08 -5.98773e-07 0)
(3.59253e-08 -6.31656e-07 0)
(3.584e-08 -6.63596e-07 0)
(3.57527e-08 -6.94619e-07 0)
(3.56639e-08 -7.2475e-07 0)
(3.55737e-08 -7.54012e-07 0)
(3.54824e-08 -7.82431e-07 0)
(3.53902e-08 -8.10028e-07 0)
(3.52973e-08 -8.36827e-07 0)
(3.52038e-08 -8.62851e-07 0)
(3.511e-08 -8.88121e-07 0)
(3.5016e-08 -9.12659e-07 0)
(3.49219e-08 -9.36485e-07 0)
(3.48278e-08 -9.59621e-07 0)
(3.4734e-08 -9.82087e-07 0)
(3.46405e-08 -1.0039e-06 0)
(3.45474e-08 -1.02508e-06 0)
(3.44548e-08 -1.04565e-06 0)
(3.43629e-08 -1.06562e-06 0)
(3.42716e-08 -1.08501e-06 0)
(3.41811e-08 -1.10385e-06 0)
(3.40914e-08 -1.12213e-06 0)
(3.40026e-08 -1.13989e-06 0)
(3.39148e-08 -1.15714e-06 0)
(3.3828e-08 -1.17388e-06 0)
(3.37422e-08 -1.19015e-06 0)
(3.36575e-08 -1.20594e-06 0)
(3.3574e-08 -1.22128e-06 0)
(3.34915e-08 -1.23618e-06 0)
(3.34103e-08 -1.25065e-06 0)
(3.33303e-08 -1.26471e-06 0)
(3.32515e-08 -1.27836e-06 0)
(3.31739e-08 -1.29162e-06 0)
(3.30976e-08 -1.3045e-06 0)
(3.30225e-08 -1.31702e-06 0)
(3.29487e-08 -1.32917e-06 0)
(3.28762e-08 -1.34098e-06 0)
(3.2805e-08 -1.35245e-06 0)
(3.2735e-08 -1.3636e-06 0)
(3.26664e-08 -1.37443e-06 0)
(3.2599e-08 -1.38495e-06 0)
(3.25328e-08 -1.39517e-06 0)
(3.2468e-08 -1.4051e-06 0)
(3.24044e-08 -1.41476e-06 0)
(3.2342e-08 -1.42414e-06 0)
(3.22809e-08 -1.43325e-06 0)
(3.22211e-08 -1.44211e-06 0)
(3.21624e-08 -1.45072e-06 0)
(3.2105e-08 -1.45908e-06 0)
(3.20487e-08 -1.46722e-06 0)
(3.19937e-08 -1.47512e-06 0)
(3.19397e-08 -1.4828e-06 0)
(3.1887e-08 -1.49027e-06 0)
(3.18354e-08 -1.49753e-06 0)
(3.17849e-08 -1.50458e-06 0)
(3.17355e-08 -1.51144e-06 0)
(3.16871e-08 -1.51811e-06 0)
(3.16402e-08 -1.52458e-06 0)
(3.15945e-08 -1.53081e-06 0)
(3.15496e-08 -1.53686e-06 0)
(3.1505e-08 -1.54284e-06 0)
(3.14607e-08 -1.54879e-06 0)
(3.14163e-08 -1.55471e-06 0)
(3.1372e-08 -1.5606e-06 0)
(3.13278e-08 -1.56646e-06 0)
(3.12836e-08 -1.57227e-06 0)
(3.12394e-08 -1.57805e-06 0)
(3.11953e-08 -1.5838e-06 0)
(3.11512e-08 -1.58952e-06 0)
(3.11071e-08 -1.5952e-06 0)
(3.10631e-08 -1.60084e-06 0)
(3.10192e-08 -1.60645e-06 0)
(3.09753e-08 -1.61203e-06 0)
(3.09315e-08 -1.61758e-06 0)
(3.08877e-08 -1.62309e-06 0)
(3.0844e-08 -1.62857e-06 0)
(3.08003e-08 -1.63401e-06 0)
(3.07567e-08 -1.63943e-06 0)
(3.07131e-08 -1.64481e-06 0)
(3.06697e-08 -1.65015e-06 0)
(3.06259e-08 -1.65548e-06 0)
(3.05843e-08 -1.66072e-06 0)
(3.05458e-08 -1.66552e-06 0)
(3.05086e-08 -1.66986e-06 0)
(3.04727e-08 -1.6741e-06 0)
(3.04369e-08 -1.67835e-06 0)
(3.0401e-08 -1.68264e-06 0)
(3.0365e-08 -1.68694e-06 0)
(3.03288e-08 -1.69124e-06 0)
(3.02925e-08 -1.69554e-06 0)
(3.02559e-08 -1.69985e-06 0)
(3.02192e-08 -1.70416e-06 0)
(3.01823e-08 -1.70848e-06 0)
(3.01452e-08 -1.7128e-06 0)
(3.0108e-08 -1.71713e-06 0)
(3.00706e-08 -1.72146e-06 0)
(3.0033e-08 -1.7258e-06 0)
(2.99952e-08 -1.73014e-06 0)
(2.99573e-08 -1.73449e-06 0)
(2.99191e-08 -1.73884e-06 0)
(2.98808e-08 -1.74319e-06 0)
(2.98423e-08 -1.74756e-06 0)
(2.98037e-08 -1.75192e-06 0)
(2.97648e-08 -1.75629e-06 0)
(2.97258e-08 -1.76066e-06 0)
(2.96866e-08 -1.76504e-06 0)
(2.96472e-08 -1.76943e-06 0)
(2.96076e-08 -1.77382e-06 0)
(2.95678e-08 -1.77821e-06 0)
(2.95279e-08 -1.7826e-06 0)
(2.94877e-08 -1.78701e-06 0)
(2.94474e-08 -1.79141e-06 0)
(2.94069e-08 -1.79582e-06 0)
(2.93662e-08 -1.80024e-06 0)
(2.93254e-08 -1.80465e-06 0)
(2.92843e-08 -1.80908e-06 0)
(2.9243e-08 -1.8135e-06 0)
(2.92016e-08 -1.81794e-06 0)
(2.916e-08 -1.82237e-06 0)
(2.91181e-08 -1.82681e-06 0)
(2.90761e-08 -1.83125e-06 0)
(2.90339e-08 -1.8357e-06 0)
(2.89916e-08 -1.84015e-06 0)
(2.8949e-08 -1.84461e-06 0)
(2.89062e-08 -1.84907e-06 0)
(2.88632e-08 -1.85353e-06 0)
(2.88201e-08 -1.858e-06 0)
(2.87767e-08 -1.86247e-06 0)
(2.87332e-08 -1.86694e-06 0)
(2.86895e-08 -1.87142e-06 0)
(2.86455e-08 -1.8759e-06 0)
(2.86014e-08 -1.88039e-06 0)
(2.85571e-08 -1.88488e-06 0)
(2.85126e-08 -1.88937e-06 0)
(2.84678e-08 -1.89387e-06 0)
(2.84229e-08 -1.89837e-06 0)
(2.83778e-08 -1.90287e-06 0)
(2.83325e-08 -1.90738e-06 0)
(2.8287e-08 -1.91189e-06 0)
(2.82413e-08 -1.91641e-06 0)
(2.81954e-08 -1.92092e-06 0)
(2.81493e-08 -1.92544e-06 0)
(2.8103e-08 -1.92997e-06 0)
(2.80565e-08 -1.93449e-06 0)
(2.80098e-08 -1.93902e-06 0)
(2.79629e-08 -1.94356e-06 0)
(2.79158e-08 -1.94809e-06 0)
(2.78685e-08 -1.95263e-06 0)
(2.7821e-08 -1.95717e-06 0)
(2.77733e-08 -1.96172e-06 0)
(2.77254e-08 -1.96627e-06 0)
(2.76773e-08 -1.97082e-06 0)
(2.7629e-08 -1.97537e-06 0)
(2.75805e-08 -1.97993e-06 0)
(2.75318e-08 -1.98449e-06 0)
(2.74828e-08 -1.98905e-06 0)
(2.74337e-08 -1.99361e-06 0)
(2.73844e-08 -1.99818e-06 0)
(2.73348e-08 -2.00275e-06 0)
(2.72851e-08 -2.00732e-06 0)
(2.72351e-08 -2.0119e-06 0)
(2.7185e-08 -2.01647e-06 0)
(2.71346e-08 -2.02105e-06 0)
(2.70841e-08 -2.02563e-06 0)
(2.70333e-08 -2.03022e-06 0)
(2.69823e-08 -2.0348e-06 0)
(2.69311e-08 -2.03939e-06 0)
(2.68797e-08 -2.04398e-06 0)
(2.68281e-08 -2.04857e-06 0)
(2.67763e-08 -2.05317e-06 0)
(2.67243e-08 -2.05776e-06 0)
(2.66721e-08 -2.06236e-06 0)
(2.66196e-08 -2.06696e-06 0)
(2.6567e-08 -2.07156e-06 0)
(2.65141e-08 -2.07616e-06 0)
(2.64611e-08 -2.08077e-06 0)
(2.64078e-08 -2.08537e-06 0)
(2.63543e-08 -2.08998e-06 0)
(2.63006e-08 -2.09459e-06 0)
(2.62467e-08 -2.0992e-06 0)
(2.61926e-08 -2.10381e-06 0)
(2.61383e-08 -2.10842e-06 0)
(2.60838e-08 -2.11304e-06 0)
(2.6029e-08 -2.11766e-06 0)
(2.59741e-08 -2.12227e-06 0)
(2.59189e-08 -2.12689e-06 0)
(2.58635e-08 -2.13151e-06 0)
(2.5808e-08 -2.13613e-06 0)
(2.57522e-08 -2.14075e-06 0)
(2.56962e-08 -2.14537e-06 0)
(2.56399e-08 -2.14999e-06 0)
(2.55835e-08 -2.15462e-06 0)
(2.55269e-08 -2.15924e-06 0)
(2.547e-08 -2.16387e-06 0)
(2.5413e-08 -2.16849e-06 0)
(2.53557e-08 -2.17312e-06 0)
(2.52983e-08 -2.17774e-06 0)
(2.52406e-08 -2.18237e-06 0)
(2.51827e-08 -2.18699e-06 0)
(2.51246e-08 -2.19162e-06 0)
(2.50662e-08 -2.19625e-06 0)
(2.50077e-08 -2.20088e-06 0)
(2.4949e-08 -2.2055e-06 0)
(2.489e-08 -2.21013e-06 0)
(2.48309e-08 -2.21476e-06 0)
(2.47715e-08 -2.21938e-06 0)
(2.47119e-08 -2.22401e-06 0)
(2.46521e-08 -2.22864e-06 0)
(2.45921e-08 -2.23326e-06 0)
(2.45319e-08 -2.23789e-06 0)
(2.44715e-08 -2.24251e-06 0)
(2.44109e-08 -2.24714e-06 0)
(2.43501e-08 -2.25176e-06 0)
(2.4289e-08 -2.25639e-06 0)
(2.42278e-08 -2.26101e-06 0)
(2.41663e-08 -2.26563e-06 0)
(2.41047e-08 -2.27025e-06 0)
(2.40428e-08 -2.27487e-06 0)
(2.39807e-08 -2.27949e-06 0)
(2.39184e-08 -2.28411e-06 0)
(2.38559e-08 -2.28873e-06 0)
(2.37932e-08 -2.29334e-06 0)
(2.37303e-08 -2.29795e-06 0)
(2.36672e-08 -2.30257e-06 0)
(2.36039e-08 -2.30718e-06 0)
(2.35404e-08 -2.31179e-06 0)
(2.34766e-08 -2.3164e-06 0)
(2.34127e-08 -2.321e-06 0)
(2.33486e-08 -2.32561e-06 0)
(2.32843e-08 -2.33021e-06 0)
(2.32197e-08 -2.33481e-06 0)
(2.3155e-08 -2.33941e-06 0)
(2.309e-08 -2.34401e-06 0)
(2.30249e-08 -2.3486e-06 0)
(2.29595e-08 -2.35319e-06 0)
(2.2894e-08 -2.35778e-06 0)
(2.28283e-08 -2.36237e-06 0)
(2.27623e-08 -2.36696e-06 0)
(2.26962e-08 -2.37154e-06 0)
(2.26298e-08 -2.37612e-06 0)
(2.25633e-08 -2.3807e-06 0)
(2.24966e-08 -2.38527e-06 0)
(2.24296e-08 -2.38985e-06 0)
(2.23625e-08 -2.39442e-06 0)
(2.22952e-08 -2.39898e-06 0)
(2.22277e-08 -2.40355e-06 0)
(2.21599e-08 -2.40811e-06 0)
(2.2092e-08 -2.41266e-06 0)
(2.2024e-08 -2.41722e-06 0)
(2.19557e-08 -2.42177e-06 0)
(2.18872e-08 -2.42631e-06 0)
(2.18185e-08 -2.43086e-06 0)
(2.17497e-08 -2.43539e-06 0)
(2.16803e-08 -2.43993e-06 0)
(2.16128e-08 -2.44444e-06 0)
(2.1548e-08 -2.44873e-06 0)
(2.14841e-08 -2.45281e-06 0)
(2.14208e-08 -2.45686e-06 0)
(2.13572e-08 -2.46094e-06 0)
(2.1293e-08 -2.46508e-06 0)
(2.12281e-08 -2.46925e-06 0)
(2.11624e-08 -2.47345e-06 0)
(2.10961e-08 -2.47768e-06 0)
(2.1029e-08 -2.48194e-06 0)
(2.09612e-08 -2.48624e-06 0)
(2.08926e-08 -2.49057e-06 0)
(2.08232e-08 -2.49493e-06 0)
(2.07531e-08 -2.49933e-06 0)
(2.06823e-08 -2.50375e-06 0)
(2.06106e-08 -2.50821e-06 0)
(2.05382e-08 -2.5127e-06 0)
(2.0465e-08 -2.51723e-06 0)
(2.0391e-08 -2.52179e-06 0)
(2.03162e-08 -2.52638e-06 0)
(2.02406e-08 -2.531e-06 0)
(2.01641e-08 -2.53566e-06 0)
(2.00868e-08 -2.54035e-06 0)
(2.00087e-08 -2.54507e-06 0)
(1.99298e-08 -2.54982e-06 0)
(1.985e-08 -2.55461e-06 0)
(1.97694e-08 -2.55943e-06 0)
(1.96879e-08 -2.56428e-06 0)
(1.96055e-08 -2.56916e-06 0)
(1.95223e-08 -2.57408e-06 0)
(1.94382e-08 -2.57902e-06 0)
(1.93532e-08 -2.584e-06 0)
(1.92673e-08 -2.58902e-06 0)
(1.91805e-08 -2.59406e-06 0)
(1.90928e-08 -2.59914e-06 0)
(1.90042e-08 -2.60424e-06 0)
(1.89147e-08 -2.60938e-06 0)
(1.88242e-08 -2.61455e-06 0)
(1.87328e-08 -2.61975e-06 0)
(1.86405e-08 -2.62498e-06 0)
(1.85472e-08 -2.63024e-06 0)
(1.8453e-08 -2.63554e-06 0)
(1.83578e-08 -2.64086e-06 0)
(1.82617e-08 -2.64621e-06 0)
(1.81646e-08 -2.65159e-06 0)
(1.80665e-08 -2.657e-06 0)
(1.79675e-08 -2.66244e-06 0)
(1.78675e-08 -2.66791e-06 0)
(1.77665e-08 -2.67341e-06 0)
(1.76645e-08 -2.67893e-06 0)
(1.75615e-08 -2.68449e-06 0)
(1.74575e-08 -2.69007e-06 0)
(1.73525e-08 -2.69567e-06 0)
(1.72465e-08 -2.70131e-06 0)
(1.71394e-08 -2.70697e-06 0)
(1.70314e-08 -2.71265e-06 0)
(1.69223e-08 -2.71836e-06 0)
(1.68123e-08 -2.7241e-06 0)
(1.67012e-08 -2.72986e-06 0)
(1.6589e-08 -2.73564e-06 0)
(1.64759e-08 -2.74145e-06 0)
(1.63617e-08 -2.74728e-06 0)
(1.62465e-08 -2.75313e-06 0)
(1.61303e-08 -2.759e-06 0)
(1.6013e-08 -2.7649e-06 0)
(1.58947e-08 -2.77081e-06 0)
(1.57753e-08 -2.77675e-06 0)
(1.56549e-08 -2.7827e-06 0)
(1.55335e-08 -2.78867e-06 0)
(1.54111e-08 -2.79466e-06 0)
(1.52876e-08 -2.80067e-06 0)
(1.51631e-08 -2.80669e-06 0)
(1.50375e-08 -2.81273e-06 0)
(1.4911e-08 -2.81878e-06 0)
(1.47834e-08 -2.82484e-06 0)
(1.46548e-08 -2.83092e-06 0)
(1.45252e-08 -2.83701e-06 0)
(1.43945e-08 -2.84312e-06 0)
(1.42629e-08 -2.84923e-06 0)
(1.41303e-08 -2.85535e-06 0)
(1.39967e-08 -2.86148e-06 0)
(1.38621e-08 -2.86762e-06 0)
(1.37265e-08 -2.87376e-06 0)
(1.35899e-08 -2.87991e-06 0)
(1.34524e-08 -2.88607e-06 0)
(1.33139e-08 -2.89223e-06 0)
(1.31745e-08 -2.89838e-06 0)
(1.30341e-08 -2.90455e-06 0)
(1.28928e-08 -2.91071e-06 0)
(1.27506e-08 -2.91687e-06 0)
(1.26075e-08 -2.92302e-06 0)
(1.24635e-08 -2.92918e-06 0)
(1.23187e-08 -2.93532e-06 0)
(1.2173e-08 -2.94147e-06 0)
(1.20264e-08 -2.9476e-06 0)
(1.1879e-08 -2.95373e-06 0)
(1.17308e-08 -2.95984e-06 0)
(1.15818e-08 -2.96595e-06 0)
(1.1432e-08 -2.97204e-06 0)
(1.12815e-08 -2.97812e-06 0)
(1.11302e-08 -2.98418e-06 0)
(1.09782e-08 -2.99022e-06 0)
(1.08255e-08 -2.99625e-06 0)
(1.06721e-08 -3.00225e-06 0)
(1.05181e-08 -3.00824e-06 0)
(1.03635e-08 -3.0142e-06 0)
(1.02082e-08 -3.02013e-06 0)
(1.00524e-08 -3.02604e-06 0)
(9.89601e-09 -3.03192e-06 0)
(9.7391e-09 -3.03777e-06 0)
(9.58169e-09 -3.0436e-06 0)
(9.42381e-09 -3.04938e-06 0)
(9.26549e-09 -3.05514e-06 0)
(9.10676e-09 -3.06085e-06 0)
(8.94766e-09 -3.06653e-06 0)
(8.78821e-09 -3.07217e-06 0)
(8.62844e-09 -3.07777e-06 0)
(8.4684e-09 -3.08332e-06 0)
(8.30811e-09 -3.08883e-06 0)
(8.14761e-09 -3.09429e-06 0)
(7.98695e-09 -3.09971e-06 0)
(7.82614e-09 -3.10507e-06 0)
(7.66524e-09 -3.11038e-06 0)
(7.50428e-09 -3.11564e-06 0)
(7.3433e-09 -3.12084e-06 0)
(7.18234e-09 -3.12598e-06 0)
(7.02144e-09 -3.13106e-06 0)
(6.86065e-09 -3.13609e-06 0)
(6.7e-09 -3.14105e-06 0)
(6.53954e-09 -3.14594e-06 0)
(6.37932e-09 -3.15077e-06 0)
(6.21937e-09 -3.15552e-06 0)
(6.05974e-09 -3.16021e-06 0)
(5.90048e-09 -3.16483e-06 0)
(5.74163e-09 -3.16937e-06 0)
(5.58324e-09 -3.17383e-06 0)
(5.42536e-09 -3.17822e-06 0)
(5.26804e-09 -3.18253e-06 0)
(5.11132e-09 -3.18675e-06 0)
(4.95524e-09 -3.19089e-06 0)
(4.79987e-09 -3.19495e-06 0)
(4.64525e-09 -3.19892e-06 0)
(4.49142e-09 -3.20281e-06 0)
(4.33844e-09 -3.2066e-06 0)
(4.18635e-09 -3.2103e-06 0)
(4.03521e-09 -3.21391e-06 0)
(3.88507e-09 -3.21742e-06 0)
(3.73597e-09 -3.22083e-06 0)
(3.58796e-09 -3.22415e-06 0)
(3.4411e-09 -3.22737e-06 0)
(3.29544e-09 -3.23049e-06 0)
(3.15102e-09 -3.2335e-06 0)
(3.00789e-09 -3.23642e-06 0)
(2.8661e-09 -3.23922e-06 0)
(2.7257e-09 -3.24192e-06 0)
(2.58674e-09 -3.24451e-06 0)
(2.44927e-09 -3.247e-06 0)
(2.31332e-09 -3.24937e-06 0)
(2.17896e-09 -3.25163e-06 0)
(2.04622e-09 -3.25378e-06 0)
(1.91515e-09 -3.25582e-06 0)
(1.7858e-09 -3.25774e-06 0)
(1.6582e-09 -3.25954e-06 0)
(1.53241e-09 -3.26124e-06 0)
(1.40846e-09 -3.26281e-06 0)
(1.28639e-09 -3.26427e-06 0)
(1.16625e-09 -3.26561e-06 0)
(1.04807e-09 -3.26683e-06 0)
(9.31897e-10 -3.26793e-06 0)
(8.17758e-10 -3.26891e-06 0)
(7.05694e-10 -3.26977e-06 0)
(5.95739e-10 -3.27051e-06 0)
(4.87926e-10 -3.27114e-06 0)
(3.82287e-10 -3.27164e-06 0)
(2.78854e-10 -3.27202e-06 0)
(1.77655e-10 -3.27228e-06 0)
(7.8722e-11 -3.27242e-06 0)
(-1.79342e-11 -3.27244e-06 0)
(-1.12209e-10 -3.27234e-06 0)
(-2.04417e-10 -3.27212e-06 0)
(-2.93261e-10 -3.27178e-06 0)
(-3.84348e-10 -3.27132e-06 0)
(-4.79791e-10 -3.27067e-06 0)
(-5.75264e-10 -3.26981e-06 0)
(-6.69181e-10 -3.26878e-06 0)
(-7.58868e-10 -3.2676e-06 0)
(-8.44174e-10 -3.26628e-06 0)
(-9.25165e-10 -3.26483e-06 0)
(-1.00192e-09 -3.26325e-06 0)
(-1.07454e-09 -3.26155e-06 0)
(-1.14315e-09 -3.25974e-06 0)
(-1.20788e-09 -3.25781e-06 0)
(-1.26885e-09 -3.25579e-06 0)
(-1.32618e-09 -3.25367e-06 0)
(-1.37998e-09 -3.25146e-06 0)
(-1.43038e-09 -3.24917e-06 0)
(-1.47747e-09 -3.2468e-06 0)
(-1.52136e-09 -3.24436e-06 0)
(-1.56216e-09 -3.24185e-06 0)
(-1.59996e-09 -3.23927e-06 0)
(-1.63486e-09 -3.23664e-06 0)
(-1.66696e-09 -3.23395e-06 0)
(-1.69634e-09 -3.23121e-06 0)
(-1.72309e-09 -3.22843e-06 0)
(-1.7473e-09 -3.2256e-06 0)
(-1.76904e-09 -3.22274e-06 0)
(-1.78841e-09 -3.21985e-06 0)
(-1.80546e-09 -3.21693e-06 0)
(-1.82028e-09 -3.21398e-06 0)
(-1.83294e-09 -3.21101e-06 0)
(-1.84351e-09 -3.20802e-06 0)
(-1.85204e-09 -3.20502e-06 0)
(-1.85861e-09 -3.202e-06 0)
(-1.86327e-09 -3.19897e-06 0)
(-1.86609e-09 -3.19594e-06 0)
(-1.86712e-09 -3.19291e-06 0)
(-1.86642e-09 -3.18987e-06 0)
(-1.86403e-09 -3.18684e-06 0)
(-1.86001e-09 -3.18382e-06 0)
(-1.85441e-09 -3.1808e-06 0)
(-1.84728e-09 -3.17779e-06 0)
(-1.83865e-09 -3.1748e-06 0)
(-1.82858e-09 -3.17182e-06 0)
(-1.81711e-09 -3.16885e-06 0)
(-1.80427e-09 -3.16591e-06 0)
(-1.79011e-09 -3.16299e-06 0)
(-1.77467e-09 -3.1601e-06 0)
(-1.75797e-09 -3.15723e-06 0)
(-1.74006e-09 -3.15438e-06 0)
(-1.72098e-09 -3.15157e-06 0)
(-1.70074e-09 -3.14879e-06 0)
(-1.6794e-09 -3.14605e-06 0)
(-1.65697e-09 -3.14334e-06 0)
(-1.63349e-09 -3.14066e-06 0)
(-1.60899e-09 -3.13803e-06 0)
(-1.58349e-09 -3.13543e-06 0)
(-1.55703e-09 -3.13288e-06 0)
(-1.52963e-09 -3.13037e-06 0)
(-1.50133e-09 -3.12791e-06 0)
(-1.47213e-09 -3.12549e-06 0)
(-1.44208e-09 -3.12313e-06 0)
(-1.4112e-09 -3.12081e-06 0)
(-1.37951e-09 -3.11854e-06 0)
(-1.34703e-09 -3.11632e-06 0)
(-1.3138e-09 -3.11416e-06 0)
(-1.27983e-09 -3.11205e-06 0)
(-1.24514e-09 -3.11e-06 0)
(-1.20977e-09 -3.108e-06 0)
(-1.17374e-09 -3.10606e-06 0)
(-1.13706e-09 -3.10418e-06 0)
(-1.09976e-09 -3.10236e-06 0)
(-1.06187e-09 -3.10061e-06 0)
(-1.0234e-09 -3.09891e-06 0)
(-9.84385e-10 -3.09728e-06 0)
(-9.44837e-10 -3.0957e-06 0)
(-9.04783e-10 -3.0942e-06 0)
(-8.64244e-10 -3.09276e-06 0)
(-8.23243e-10 -3.09138e-06 0)
(-7.81802e-10 -3.09007e-06 0)
(-7.39944e-10 -3.08884e-06 0)
(-6.97689e-10 -3.08766e-06 0)
(-6.55062e-10 -3.08656e-06 0)
(-6.12083e-10 -3.08552e-06 0)
(-5.68775e-10 -3.08456e-06 0)
(-5.2516e-10 -3.08366e-06 0)
(-4.8126e-10 -3.08285e-06 0)
(-4.37097e-10 -3.08209e-06 0)
(-3.92693e-10 -3.08143e-06 0)
(-3.48068e-10 -3.08075e-06 0)
(-3.03249e-10 -3.08043e-06 0)
(-2.58235e-10 -3.07925e-06 0)
(-2.1311e-10 -3.0812e-06 0)
(-1.67729e-10 -3.07287e-06 0)
(-1.22554e-10 -3.09765e-06 0)
(-7.69152e-11 -3.00475e-06 0)
(-3.12252e-11 -3.25144e-06 0)
(-4.40659e-12 -2.83984e-06 0)
)
;
    }
    bottomWall
    {
        type            calculated;
        value           nonuniform List<vector> 
449
(
(-48.4856 -0.963443 0)
(-19.7367 -0.00514918 0)
(-14.3377 -0.00113237 0)
(-12.0361 -0.000542723 0)
(-10.6407 -0.000347195 0)
(-9.66544 -0.000248105 0)
(-8.9427 -0.000182511 0)
(-8.41332 -0.000124572 0)
(-8.08636 -5.29204e-05 0)
(-8.05005 6.88658e-05 0)
(-8.5664 0.000252223 0)
(-9.80072 0.000336301 0)
(-10.8988 0.000258253 0)
(-11.5937 0.000155292 0)
(-11.9802 8.5595e-05 0)
(-12.1915 4.52549e-05 0)
(-12.2971 2.03783e-05 0)
(-12.3345 3.45039e-06 0)
(-12.3212 -7.66847e-06 0)
(-12.2803 -1.4273e-05 0)
(-12.2203 -1.86591e-05 0)
(-12.148 -2.11937e-05 0)
(-12.0696 -2.2376e-05 0)
(-11.9886 -2.27669e-05 0)
(-11.9071 -2.26882e-05 0)
(-11.8263 -2.23489e-05 0)
(-11.7467 -2.18451e-05 0)
(-11.6692 -2.12185e-05 0)
(-11.5938 -2.05375e-05 0)
(-11.5208 -1.98376e-05 0)
(-11.4501 -1.91387e-05 0)
(-11.3819 -1.84523e-05 0)
(-11.3159 -1.77871e-05 0)
(-11.2521 -1.7146e-05 0)
(-11.1905 -1.65398e-05 0)
(-11.1309 -1.59714e-05 0)
(-11.0732 -1.54245e-05 0)
(-11.0174 -1.48946e-05 0)
(-10.9633 -1.43896e-05 0)
(-10.9109 -1.39102e-05 0)
(-10.8601 -1.34552e-05 0)
(-10.8109 -1.30236e-05 0)
(-10.7631 -1.26157e-05 0)
(-10.7167 -1.22281e-05 0)
(-10.6716 -1.18587e-05 0)
(-10.6277 -1.15073e-05 0)
(-10.585 -1.11755e-05 0)
(-10.5435 -1.08576e-05 0)
(-10.503 -1.05617e-05 0)
(-10.4635 -1.03015e-05 0)
(-10.4248 -1.00682e-05 0)
(-10.3868 -9.84861e-06 0)
(-10.3497 -9.63602e-06 0)
(-10.3132 -9.42704e-06 0)
(-10.2774 -9.22158e-06 0)
(-10.2423 -9.01841e-06 0)
(-10.208 -8.81983e-06 0)
(-10.1743 -8.62734e-06 0)
(-10.1412 -8.43962e-06 0)
(-10.1088 -8.25718e-06 0)
(-10.077 -8.08109e-06 0)
(-10.0458 -7.91209e-06 0)
(-10.0152 -7.74766e-06 0)
(-9.98518 -7.58743e-06 0)
(-9.95569 -7.43177e-06 0)
(-9.92673 -7.28278e-06 0)
(-9.89828 -7.13895e-06 0)
(-9.87031 -6.99972e-06 0)
(-9.84283 -6.86339e-06 0)
(-9.81582 -6.7349e-06 0)
(-9.78923 -6.61266e-06 0)
(-9.76306 -6.49044e-06 0)
(-9.73733 -6.37042e-06 0)
(-9.712 -6.25473e-06 0)
(-9.68707 -6.14306e-06 0)
(-9.66253 -6.03298e-06 0)
(-9.63837 -5.92609e-06 0)
(-9.61458 -5.82168e-06 0)
(-9.59116 -5.72019e-06 0)
(-9.56808 -5.62179e-06 0)
(-9.54535 -5.52606e-06 0)
(-9.52294 -5.43297e-06 0)
(-9.50087 -5.34255e-06 0)
(-9.4791 -5.25429e-06 0)
(-9.45765 -5.16828e-06 0)
(-9.43649 -5.08503e-06 0)
(-9.41562 -5.00366e-06 0)
(-9.39503 -4.92579e-06 0)
(-9.37472 -4.84937e-06 0)
(-9.35467 -4.77427e-06 0)
(-9.33489 -4.70158e-06 0)
(-9.31535 -4.62987e-06 0)
(-9.29608 -4.5603e-06 0)
(-9.27704 -4.49236e-06 0)
(-9.25824 -4.42521e-06 0)
(-9.23968 -4.36093e-06 0)
(-9.22134 -4.29752e-06 0)
(-9.20323 -4.23533e-06 0)
(-9.18533 -4.17555e-06 0)
(-9.16764 -4.1161e-06 0)
(-9.15017 -4.06079e-06 0)
(-9.13287 -4.00813e-06 0)
(-9.11577 -3.95394e-06 0)
(-9.09886 -3.90075e-06 0)
(-9.08213 -3.848e-06 0)
(-9.0656 -3.79591e-06 0)
(-9.04925 -3.74608e-06 0)
(-9.03307 -3.6967e-06 0)
(-9.01707 -3.64777e-06 0)
(-9.00124 -3.60101e-06 0)
(-8.98557 -3.55468e-06 0)
(-8.97008 -3.50857e-06 0)
(-8.95474 -3.4647e-06 0)
(-8.93956 -3.42127e-06 0)
(-8.92454 -3.37787e-06 0)
(-8.90967 -3.33648e-06 0)
(-8.89494 -3.29577e-06 0)
(-8.88036 -3.25491e-06 0)
(-8.86593 -3.21557e-06 0)
(-8.85164 -3.17744e-06 0)
(-8.83748 -3.13905e-06 0)
(-8.82346 -3.10162e-06 0)
(-8.80958 -3.06587e-06 0)
(-8.79581 -3.02988e-06 0)
(-8.78219 -2.99411e-06 0)
(-8.76869 -2.96007e-06 0)
(-8.7553 -2.92647e-06 0)
(-8.74204 -2.89277e-06 0)
(-8.72891 -2.86008e-06 0)
(-8.71588 -2.82857e-06 0)
(-8.70297 -2.79694e-06 0)
(-8.69018 -2.76546e-06 0)
(-8.6775 -2.73542e-06 0)
(-8.66493 -2.70589e-06 0)
(-8.65246 -2.67613e-06 0)
(-8.6401 -2.6471e-06 0)
(-8.62784 -2.61934e-06 0)
(-8.61569 -2.59145e-06 0)
(-8.60363 -2.56344e-06 0)
(-8.59168 -2.53668e-06 0)
(-8.57982 -2.51073e-06 0)
(-8.56806 -2.48441e-06 0)
(-8.55639 -2.45831e-06 0)
(-8.54482 -2.43345e-06 0)
(-8.53333 -2.40902e-06 0)
(-8.52194 -2.38425e-06 0)
(-8.51063 -2.36045e-06 0)
(-8.49941 -2.3388e-06 0)
(-8.48826 -2.31714e-06 0)
(-8.47719 -2.29421e-06 0)
(-8.46621 -2.27147e-06 0)
(-8.45531 -2.24957e-06 0)
(-8.44449 -2.22793e-06 0)
(-8.43375 -2.2061e-06 0)
(-8.42309 -2.18462e-06 0)
(-8.4125 -2.16395e-06 0)
(-8.40199 -2.14364e-06 0)
(-8.39156 -2.12314e-06 0)
(-8.3812 -2.1028e-06 0)
(-8.37091 -2.08326e-06 0)
(-8.3607 -2.06425e-06 0)
(-8.35055 -2.04499e-06 0)
(-8.34048 -2.02567e-06 0)
(-8.33048 -2.00716e-06 0)
(-8.32054 -1.98927e-06 0)
(-8.31067 -1.97121e-06 0)
(-8.30087 -1.95299e-06 0)
(-8.29114 -1.93532e-06 0)
(-8.28146 -1.91847e-06 0)
(-8.27185 -1.90147e-06 0)
(-8.26231 -1.88464e-06 0)
(-8.25282 -1.86761e-06 0)
(-8.2434 -1.84917e-06 0)
(-8.23458 -1.83581e-06 0)
(-8.22626 -1.82426e-06 0)
(-8.21792 -1.80815e-06 0)
(-8.20956 -1.79316e-06 0)
(-8.20118 -1.77939e-06 0)
(-8.19278 -1.76553e-06 0)
(-8.18434 -1.75149e-06 0)
(-8.17589 -1.73712e-06 0)
(-8.16741 -1.72323e-06 0)
(-8.15891 -1.70963e-06 0)
(-8.15039 -1.69615e-06 0)
(-8.14184 -1.68225e-06 0)
(-8.13327 -1.66819e-06 0)
(-8.12468 -1.65464e-06 0)
(-8.11606 -1.64134e-06 0)
(-8.10742 -1.62799e-06 0)
(-8.09876 -1.61435e-06 0)
(-8.09008 -1.60071e-06 0)
(-8.08138 -1.58752e-06 0)
(-8.07266 -1.57449e-06 0)
(-8.06391 -1.56128e-06 0)
(-8.05514 -1.54791e-06 0)
(-8.04636 -1.53473e-06 0)
(-8.03755 -1.52185e-06 0)
(-8.02873 -1.50913e-06 0)
(-8.01988 -1.49613e-06 0)
(-8.01101 -1.48301e-06 0)
(-8.00213 -1.47029e-06 0)
(-7.99322 -1.45779e-06 0)
(-7.9843 -1.44522e-06 0)
(-7.97536 -1.43248e-06 0)
(-7.9664 -1.41984e-06 0)
(-7.95742 -1.4075e-06 0)
(-7.94842 -1.39535e-06 0)
(-7.93941 -1.38296e-06 0)
(-7.93038 -1.37046e-06 0)
(-7.92133 -1.35832e-06 0)
(-7.91226 -1.34643e-06 0)
(-7.90318 -1.33437e-06 0)
(-7.89408 -1.32287e-06 0)
(-7.88496 -1.31195e-06 0)
(-7.87581 -1.30064e-06 0)
(-7.86665 -1.28902e-06 0)
(-7.85747 -1.27719e-06 0)
(-7.84828 -1.26538e-06 0)
(-7.83908 -1.2539e-06 0)
(-7.82985 -1.24259e-06 0)
(-7.82061 -1.23107e-06 0)
(-7.81136 -1.21948e-06 0)
(-7.8021 -1.20824e-06 0)
(-7.79282 -1.19725e-06 0)
(-7.78353 -1.18604e-06 0)
(-7.77422 -1.17471e-06 0)
(-7.7649 -1.16374e-06 0)
(-7.75557 -1.15301e-06 0)
(-7.74623 -1.14212e-06 0)
(-7.73687 -1.13111e-06 0)
(-7.7275 -1.12039e-06 0)
(-7.71812 -1.10993e-06 0)
(-7.70873 -1.09934e-06 0)
(-7.69932 -1.08864e-06 0)
(-7.68991 -1.0782e-06 0)
(-7.68049 -1.06801e-06 0)
(-7.67105 -1.0577e-06 0)
(-7.6616 -1.0473e-06 0)
(-7.65215 -1.03715e-06 0)
(-7.64268 -1.02724e-06 0)
(-7.6332 -1.01721e-06 0)
(-7.62371 -1.00709e-06 0)
(-7.61422 -9.97249e-07 0)
(-7.60471 -9.87626e-07 0)
(-7.5952 -9.77862e-07 0)
(-7.58568 -9.68034e-07 0)
(-7.57615 -9.58502e-07 0)
(-7.56661 -9.49166e-07 0)
(-7.55706 -9.39661e-07 0)
(-7.54751 -9.30126e-07 0)
(-7.53795 -9.20906e-07 0)
(-7.52838 -9.11816e-07 0)
(-7.5188 -9.02575e-07 0)
(-7.50922 -8.93372e-07 0)
(-7.49963 -8.84438e-07 0)
(-7.49004 -8.75576e-07 0)
(-7.48044 -8.66609e-07 0)
(-7.47083 -8.57739e-07 0)
(-7.46122 -8.491e-07 0)
(-7.4516 -8.40466e-07 0)
(-7.44198 -8.31763e-07 0)
(-7.43235 -8.23217e-07 0)
(-7.42272 -8.14868e-07 0)
(-7.41308 -8.06457e-07 0)
(-7.40344 -7.98019e-07 0)
(-7.39379 -7.89789e-07 0)
(-7.38414 -7.81695e-07 0)
(-7.37449 -7.73516e-07 0)
(-7.36483 -7.65382e-07 0)
(-7.35518 -7.57459e-07 0)
(-7.34551 -7.49574e-07 0)
(-7.33585 -7.41642e-07 0)
(-7.32618 -7.3384e-07 0)
(-7.31651 -7.26699e-07 0)
(-7.30682 -7.19633e-07 0)
(-7.29713 -7.12068e-07 0)
(-7.28744 -7.04574e-07 0)
(-7.27775 -6.97163e-07 0)
(-7.26805 -6.89702e-07 0)
(-7.25836 -6.82303e-07 0)
(-7.24866 -6.75084e-07 0)
(-7.23896 -6.67871e-07 0)
(-7.22926 -6.60626e-07 0)
(-7.21957 -6.53525e-07 0)
(-7.20987 -6.46557e-07 0)
(-7.20017 -6.39536e-07 0)
(-7.19048 -6.32541e-07 0)
(-7.18078 -6.25736e-07 0)
(-7.17108 -6.18965e-07 0)
(-7.16139 -6.12158e-07 0)
(-7.1517 -6.05475e-07 0)
(-7.14201 -5.98933e-07 0)
(-7.13232 -5.92344e-07 0)
(-7.12263 -5.85771e-07 0)
(-7.11295 -5.79378e-07 0)
(-7.10327 -5.73021e-07 0)
(-7.09359 -5.6663e-07 0)
(-7.08392 -5.60356e-07 0)
(-7.07424 -5.54214e-07 0)
(-7.06457 -5.48032e-07 0)
(-7.05491 -5.41876e-07 0)
(-7.04525 -5.35884e-07 0)
(-7.03559 -5.29917e-07 0)
(-7.02594 -5.23927e-07 0)
(-7.01629 -5.18055e-07 0)
(-7.00664 -5.12286e-07 0)
(-6.997 -5.06483e-07 0)
(-6.98737 -5.00729e-07 0)
(-6.97774 -4.95127e-07 0)
(-6.96812 -4.89522e-07 0)
(-6.9585 -4.83913e-07 0)
(-6.94889 -4.78434e-07 0)
(-6.93928 -4.73021e-07 0)
(-6.92968 -4.67583e-07 0)
(-6.92009 -4.62222e-07 0)
(-6.9105 -4.5698e-07 0)
(-6.90092 -4.51719e-07 0)
(-6.89135 -4.46478e-07 0)
(-6.88179 -4.41378e-07 0)
(-6.87223 -4.36297e-07 0)
(-6.86268 -4.31211e-07 0)
(-6.85314 -4.26229e-07 0)
(-6.8436 -4.21318e-07 0)
(-6.83408 -4.16391e-07 0)
(-6.82456 -4.11526e-07 0)
(-6.81505 -4.06771e-07 0)
(-6.80555 -4.02007e-07 0)
(-6.79606 -3.97263e-07 0)
(-6.78658 -3.92629e-07 0)
(-6.77711 -3.88251e-07 0)
(-6.76764 -3.8394e-07 0)
(-6.75817 -3.79476e-07 0)
(-6.74872 -3.75013e-07 0)
(-6.73927 -3.70547e-07 0)
(-6.72984 -3.66148e-07 0)
(-6.72041 -3.61832e-07 0)
(-6.711 -3.57516e-07 0)
(-6.7016 -3.53235e-07 0)
(-6.69221 -3.49102e-07 0)
(-6.68282 -3.44975e-07 0)
(-6.67345 -3.40818e-07 0)
(-6.66409 -3.36746e-07 0)
(-6.65474 -3.32709e-07 0)
(-6.64541 -3.28673e-07 0)
(-6.63609 -3.24718e-07 0)
(-6.62677 -3.20811e-07 0)
(-6.61748 -3.16914e-07 0)
(-6.60819 -3.13062e-07 0)
(-6.59892 -3.0929e-07 0)
(-6.58966 -3.05499e-07 0)
(-6.58042 -3.01781e-07 0)
(-6.57118 -2.98041e-07 0)
(-6.56197 -2.94456e-07 0)
(-6.55276 -2.90993e-07 0)
(-6.54253 -2.86857e-07 0)
(-6.5314 -2.82425e-07 0)
(-6.52044 -2.78392e-07 0)
(-6.50962 -2.74444e-07 0)
(-6.49897 -2.70491e-07 0)
(-6.48846 -2.66668e-07 0)
(-6.47811 -2.62925e-07 0)
(-6.46789 -2.59253e-07 0)
(-6.45782 -2.55695e-07 0)
(-6.44789 -2.52205e-07 0)
(-6.43809 -2.48783e-07 0)
(-6.42843 -2.45468e-07 0)
(-6.41889 -2.42216e-07 0)
(-6.40948 -2.39017e-07 0)
(-6.40019 -2.35927e-07 0)
(-6.39102 -2.32889e-07 0)
(-6.38198 -2.29904e-07 0)
(-6.37304 -2.27012e-07 0)
(-6.36422 -2.24179e-07 0)
(-6.3555 -2.21382e-07 0)
(-6.3469 -2.1867e-07 0)
(-6.33839 -2.16018e-07 0)
(-6.33 -2.13401e-07 0)
(-6.3217 -2.10845e-07 0)
(-6.31351 -2.08366e-07 0)
(-6.3054 -2.05911e-07 0)
(-6.2974 -2.03499e-07 0)
(-6.28948 -2.01164e-07 0)
(-6.28166 -1.98871e-07 0)
(-6.27392 -1.96655e-07 0)
(-6.26628 -1.94566e-07 0)
(-6.2587 -1.92483e-07 0)
(-6.25122 -1.90362e-07 0)
(-6.24381 -1.88262e-07 0)
(-6.23649 -1.86231e-07 0)
(-6.22924 -1.84242e-07 0)
(-6.22208 -1.82282e-07 0)
(-6.21498 -1.80347e-07 0)
(-6.20797 -1.78465e-07 0)
(-6.20102 -1.76599e-07 0)
(-6.19416 -1.74757e-07 0)
(-6.18735 -1.72955e-07 0)
(-6.18063 -1.71209e-07 0)
(-6.17396 -1.69471e-07 0)
(-6.16737 -1.67759e-07 0)
(-6.16084 -1.66083e-07 0)
(-6.15438 -1.64461e-07 0)
(-6.14797 -1.62843e-07 0)
(-6.14164 -1.61251e-07 0)
(-6.13536 -1.59685e-07 0)
(-6.12915 -1.58176e-07 0)
(-6.12298 -1.56666e-07 0)
(-6.1169 -1.55186e-07 0)
(-6.11085 -1.53714e-07 0)
(-6.10487 -1.52308e-07 0)
(-6.09893 -1.50897e-07 0)
(-6.09307 -1.49523e-07 0)
(-6.08724 -1.48133e-07 0)
(-6.08148 -1.46822e-07 0)
(-6.07575 -1.45502e-07 0)
(-6.0701 -1.44232e-07 0)
(-6.06447 -1.42915e-07 0)
(-6.05892 -1.41695e-07 0)
(-6.05338 -1.40443e-07 0)
(-6.04793 -1.3928e-07 0)
(-6.04249 -1.38038e-07 0)
(-6.03714 -1.36907e-07 0)
(-6.03178 -1.35706e-07 0)
(-6.02652 -1.34648e-07 0)
(-6.02125 -1.33471e-07 0)
(-6.01608 -1.32439e-07 0)
(-6.01089 -1.31277e-07 0)
(-6.00581 -1.30316e-07 0)
(-6.00069 -1.29195e-07 0)
(-5.99571 -1.28285e-07 0)
(-5.99066 -1.27154e-07 0)
(-5.98576 -1.26298e-07 0)
(-5.98078 -1.25203e-07 0)
(-5.97597 -1.24431e-07 0)
(-5.97105 -1.23346e-07 0)
(-5.96632 -1.22623e-07 0)
(-5.96146 -1.21563e-07 0)
(-5.95681 -1.20923e-07 0)
(-5.952 -1.19966e-07 0)
(-5.94743 -1.1929e-07 0)
(-5.94267 -1.18701e-07 0)
(-5.93814 -1.17409e-07 0)
(-5.93349 -1.18561e-07 0)
(-5.92886 -1.1416e-07 0)
(-5.92457 -1.22221e-07 0)
(-5.91928 -1.04744e-07 0)
(-5.91642 -1.35677e-07 0)
(-5.90858 -8.25408e-08 0)
(-5.91012 -1.14036e-07 0)
(-5.89938 -1.42411e-07 0)
)
;
    }
    symmetry
    {
        type            symmetryPlane;
    }
    frontAndBack
    {
        type            empty;
    }
}


// ************************************************************************* //
