/*--------------------------------*- C++ -*----------------------------------*\
| =========                 |                                                 |
| \\      /  F ield         | OpenFOAM: The Open Source CFD Toolbox           |
|  \\    /   O peration     | Version:  v2012                                 |
|   \\  /    A nd           | Website:  www.openfoam.com                      |
|    \\/     M anipulation  |                                                 |
\*---------------------------------------------------------------------------*/
FoamFile
{
    version     2.0;
    format      ascii;
    class       volScalarField;
    location    "29";
    object      k;
}
// * * * * * * * * * * * * * * * * * * * * * * * * * * * * * * * * * * * * * //

dimensions      [0 2 -2 0 0 0 0];


internalField   nonuniform List<scalar> 
209825
(
0.00102275
0.000929603
0.00086075
0.000811612
0.000776371
0.00075048
0.00073093
0.000715772
0.000703772
0.000694084
0.000686153
0.000679562
0.000674034
0.000669343
0.000665333
0.000661876
0.000658877
0.000656259
0.000653955
0.000651928
0.000650125
0.000648529
0.000647089
0.000645812
0.000644651
0.000643617
0.000642661
0.000641815
0.000641025
0.000640332
0.000639669
0.000639091
0.000638545
0.000638063
0.00063759
0.000637184
0.00063679
0.000636457
0.000636117
0.000635837
0.000635556
0.000635325
0.000635071
0.00063488
0.000634682
0.000634503
0.000634321
0.000634181
0.000634038
0.000633942
0.000633832
0.000633733
0.000633631
0.000633569
0.000633483
0.000633404
0.000633356
0.000633275
0.000633223
0.000633193
0.000633127
0.000633112
0.000633075
0.000633139
0.00063315
0.000633244
0.000633312
0.000633447
0.000633472
0.000633587
0.000633616
0.000633724
0.000633794
0.000633945
0.000634019
0.000634175
0.000634256
0.000634426
0.000634515
0.0006347
0.000634798
0.000635008
0.000635122
0.000635358
0.000635483
0.000635746
0.000635887
0.000636191
0.00063635
0.000636724
0.000636885
0.000637409
0.000637664
0.000647858
0.000685049
0.00172605
0.00102275
0.000929603
0.000860748
0.000811608
0.000776365
0.000750472
0.00073092
0.000715761
0.00070376
0.00069407
0.000686138
0.000679547
0.000674018
0.000669327
0.000665316
0.000661859
0.000658859
0.000656241
0.000653936
0.000651909
0.000650106
0.00064851
0.00064707
0.000645792
0.000644631
0.000643597
0.000642641
0.000641795
0.000641005
0.000640312
0.000639649
0.000639071
0.000638524
0.000638042
0.000637569
0.000637163
0.000636769
0.000636436
0.000636096
0.000635816
0.000635535
0.000635304
0.00063505
0.000634858
0.00063466
0.000634481
0.0006343
0.00063416
0.000634017
0.000633921
0.00063381
0.000633712
0.000633609
0.000633547
0.000633461
0.000633382
0.000633334
0.000633253
0.000633201
0.000633171
0.000633105
0.00063309
0.000633053
0.000633117
0.000633129
0.000633222
0.00063329
0.000633425
0.00063345
0.000633565
0.000633594
0.000633702
0.000633772
0.000633923
0.000633997
0.000634153
0.000634234
0.000634404
0.000634493
0.000634678
0.000634776
0.000634986
0.0006351
0.000635336
0.000635461
0.000635724
0.000635865
0.000636169
0.000636327
0.000636702
0.000636863
0.000637387
0.000637642
0.000647855
0.000685038
0.00172706
0.00102275
0.000929603
0.000860741
0.000811591
0.000776339
0.000750437
0.000730878
0.000715713
0.000703707
0.000694014
0.000686078
0.000679484
0.000673953
0.00066926
0.000665247
0.000661788
0.000658787
0.000656168
0.000653862
0.000651834
0.00065003
0.000648433
0.000646993
0.000645714
0.000644553
0.000643518
0.000642561
0.000641715
0.000640924
0.000640231
0.000639567
0.000638989
0.000638442
0.00063796
0.000637487
0.00063708
0.000636686
0.000636353
0.000636013
0.000635732
0.000635451
0.00063522
0.000634966
0.000634774
0.000634576
0.000634397
0.000634215
0.000634075
0.000633932
0.000633836
0.000633725
0.000633627
0.000633524
0.000633462
0.000633376
0.000633297
0.000633249
0.000633168
0.000633115
0.000633085
0.00063302
0.000633004
0.000632967
0.000633031
0.000633042
0.000633135
0.000633203
0.000633339
0.000633363
0.000633478
0.000633507
0.000633615
0.000633685
0.000633836
0.00063391
0.000634066
0.000634146
0.000634317
0.000634405
0.000634591
0.000634689
0.000634899
0.000635012
0.000635248
0.000635373
0.000635636
0.000635777
0.00063608
0.000636239
0.000636614
0.000636775
0.000637298
0.000637553
0.000647805
0.000684966
0.00172906
0.00102276
0.000929604
0.000860728
0.000811562
0.000776293
0.000750377
0.000730807
0.000715632
0.000703619
0.000693919
0.000685978
0.000679379
0.000673844
0.000669147
0.000665132
0.00066167
0.000658667
0.000656045
0.000653738
0.000651708
0.000649902
0.000648304
0.000646863
0.000645583
0.000644421
0.000643385
0.000642428
0.00064158
0.000640789
0.000640095
0.000639431
0.000638852
0.000638305
0.000637822
0.000637348
0.000636941
0.000636547
0.000636213
0.000635873
0.000635592
0.000635311
0.00063508
0.000634825
0.000634633
0.000634435
0.000634255
0.000634073
0.000633933
0.00063379
0.000633693
0.000633583
0.000633484
0.000633381
0.000633319
0.000633233
0.000633154
0.000633106
0.000633024
0.000632972
0.000632942
0.000632876
0.00063286
0.000632823
0.000632887
0.000632898
0.000632991
0.000633059
0.000633194
0.000633218
0.000633333
0.000633362
0.000633469
0.000633539
0.00063369
0.000633764
0.00063392
0.000634
0.000634171
0.000634259
0.000634444
0.000634542
0.000634752
0.000634866
0.000635101
0.000635226
0.000635489
0.000635629
0.000635933
0.000636091
0.000636465
0.000636626
0.00063715
0.000637404
0.000647717
0.000684844
0.00173139
0.00102276
0.000929604
0.00086071
0.00081152
0.000776229
0.000750293
0.000730706
0.000715518
0.000703494
0.000693785
0.000685836
0.000679231
0.00067369
0.000668988
0.000664969
0.000661503
0.000658496
0.000655872
0.000653562
0.00065153
0.000649723
0.000648123
0.000646679
0.000645398
0.000644234
0.000643198
0.000642239
0.00064139
0.000640598
0.000639903
0.000639239
0.000638659
0.000638111
0.000637627
0.000637153
0.000636746
0.000636351
0.000636017
0.000635676
0.000635394
0.000635113
0.000634881
0.000634626
0.000634434
0.000634235
0.000634056
0.000633873
0.000633733
0.000633589
0.000633493
0.000633382
0.000633283
0.00063318
0.000633117
0.000633031
0.000632952
0.000632904
0.000632822
0.000632769
0.000632739
0.000632674
0.000632658
0.00063262
0.000632684
0.000632694
0.000632787
0.000632855
0.000632989
0.000633013
0.000633128
0.000633156
0.000633264
0.000633334
0.000633485
0.000633558
0.000633714
0.000633794
0.000633965
0.000634053
0.000634238
0.000634336
0.000634545
0.000634659
0.000634894
0.000635019
0.000635281
0.000635422
0.000635725
0.000635883
0.000636257
0.000636417
0.00063694
0.000637195
0.000647592
0.00068467
0.00173401
0.00102276
0.000929604
0.000860687
0.000811466
0.000776145
0.000750184
0.000730576
0.000715371
0.000703332
0.000693611
0.000685652
0.000679038
0.00067349
0.000668782
0.000664757
0.000661287
0.000658276
0.000655648
0.000653334
0.0006513
0.000649489
0.000647887
0.000646441
0.000645158
0.000643993
0.000642955
0.000641994
0.000641145
0.000640351
0.000639655
0.000638989
0.000638409
0.00063786
0.000637375
0.000636901
0.000636492
0.000636096
0.000635762
0.000635421
0.000635138
0.000634856
0.000634624
0.000634369
0.000634176
0.000633977
0.000633797
0.000633614
0.000633473
0.000633329
0.000633232
0.000633121
0.000633022
0.000632919
0.000632856
0.00063277
0.00063269
0.000632642
0.00063256
0.000632507
0.000632477
0.000632411
0.000632395
0.000632356
0.00063242
0.00063243
0.000632522
0.00063259
0.000632724
0.000632748
0.000632862
0.000632891
0.000632998
0.000633068
0.000633218
0.000633292
0.000633448
0.000633527
0.000633697
0.000633785
0.00063397
0.000634068
0.000634277
0.00063439
0.000634625
0.00063475
0.000635012
0.000635152
0.000635455
0.000635612
0.000635986
0.000636146
0.000636669
0.000636924
0.00064743
0.000684444
0.00173687
0.00102277
0.000929605
0.000860659
0.0008114
0.000776043
0.00075005
0.000730417
0.00071519
0.000703133
0.000693397
0.000685426
0.000678801
0.000673244
0.000668528
0.000664496
0.00066102
0.000658004
0.000655371
0.000653054
0.000651015
0.000649202
0.000647597
0.000646148
0.000644863
0.000643695
0.000642655
0.000641693
0.000640842
0.000640047
0.000639349
0.000638682
0.0006381
0.00063755
0.000637064
0.000636589
0.00063618
0.000635783
0.000635448
0.000635106
0.000634823
0.00063454
0.000634307
0.000634051
0.000633858
0.000633658
0.000633478
0.000633295
0.000633153
0.000633009
0.000632912
0.0006328
0.000632701
0.000632597
0.000632534
0.000632447
0.000632368
0.000632319
0.000632238
0.000632184
0.000632153
0.000632088
0.000632071
0.000632032
0.000632094
0.000632104
0.000632196
0.000632264
0.000632397
0.00063242
0.000632535
0.000632563
0.00063267
0.00063274
0.00063289
0.000632963
0.000633119
0.000633198
0.000633368
0.000633456
0.00063364
0.000633737
0.000633946
0.000634059
0.000634294
0.000634418
0.000634679
0.00063482
0.000635122
0.000635279
0.000635652
0.000635811
0.000636334
0.000636589
0.000647231
0.000684167
0.00173983
0.00102278
0.000929605
0.000860625
0.000811321
0.000775921
0.000749891
0.000730226
0.000714974
0.000702896
0.000693142
0.000685156
0.000678519
0.000672951
0.000668226
0.000664186
0.000660702
0.00065768
0.000655042
0.00065272
0.000650677
0.000648859
0.00064725
0.000645799
0.000644511
0.00064334
0.000642298
0.000641334
0.00064048
0.000639683
0.000638984
0.000638315
0.000637732
0.00063718
0.000636694
0.000636217
0.000635807
0.000635409
0.000635073
0.00063473
0.000634446
0.000634163
0.000633929
0.000633673
0.000633478
0.000633278
0.000633098
0.000632914
0.000632772
0.000632627
0.000632529
0.000632417
0.000632317
0.000632213
0.00063215
0.000632063
0.000631983
0.000631934
0.000631852
0.000631798
0.000631768
0.000631702
0.000631685
0.000631644
0.000631706
0.000631715
0.000631807
0.000631874
0.000632007
0.00063203
0.000632144
0.000632172
0.000632279
0.000632348
0.000632498
0.000632571
0.000632726
0.000632805
0.000632975
0.000633062
0.000633246
0.000633343
0.000633552
0.000633664
0.000633898
0.000634022
0.000634283
0.000634423
0.000634724
0.000634882
0.000635254
0.000635412
0.000635934
0.00063619
0.000646995
0.000683838
0.00174268
0.00102279
0.000929606
0.000860586
0.00081123
0.00077578
0.000749706
0.000730005
0.000714723
0.00070262
0.000692845
0.000684842
0.00067819
0.00067261
0.000667873
0.000663824
0.000660332
0.000657303
0.000654658
0.00065233
0.000650282
0.00064846
0.000646847
0.000645392
0.0006441
0.000642927
0.000641882
0.000640915
0.000640059
0.00063926
0.000638559
0.000637889
0.000637303
0.00063675
0.000636262
0.000635784
0.000635373
0.000634973
0.000634636
0.000634292
0.000634008
0.000633723
0.000633489
0.000633232
0.000633037
0.000632836
0.000632654
0.00063247
0.000632327
0.000632182
0.000632083
0.000631971
0.000631871
0.000631766
0.000631702
0.000631615
0.000631535
0.000631485
0.000631404
0.000631349
0.000631318
0.000631252
0.000631235
0.000631193
0.000631254
0.000631262
0.000631354
0.000631421
0.000631553
0.000631575
0.000631689
0.000631717
0.000631824
0.000631892
0.000632041
0.000632114
0.000632269
0.000632348
0.000632517
0.000632604
0.000632787
0.000632884
0.000633092
0.000633204
0.000633438
0.000633562
0.000633822
0.000633961
0.000634262
0.000634418
0.00063479
0.000634948
0.000635469
0.000635725
0.000646723
0.000683456
0.00174511
0.0010228
0.000929607
0.000860542
0.000811127
0.000775619
0.000749495
0.000729753
0.000714436
0.000702305
0.000692507
0.000684484
0.000677815
0.00067222
0.000667471
0.000663411
0.00065991
0.000656872
0.00065422
0.000651885
0.000649831
0.000648004
0.000646386
0.000644927
0.000643631
0.000642454
0.000641406
0.000640436
0.000639578
0.000638776
0.000638073
0.0006374
0.000636813
0.000636258
0.000635769
0.000635289
0.000634876
0.000634475
0.000634137
0.000633792
0.000633506
0.00063322
0.000632985
0.000632727
0.000632531
0.000632329
0.000632147
0.000631962
0.000631819
0.000631672
0.000631573
0.00063146
0.00063136
0.000631254
0.00063119
0.000631103
0.000631022
0.000630971
0.00063089
0.000630835
0.000630804
0.000630738
0.00063072
0.000630677
0.000630737
0.000630744
0.000630835
0.000630902
0.000631034
0.000631055
0.000631168
0.000631196
0.000631302
0.00063137
0.000631519
0.000631591
0.000631746
0.000631824
0.000631993
0.00063208
0.000632263
0.000632359
0.000632566
0.000632678
0.000632911
0.000633034
0.000633294
0.000633433
0.000633732
0.000633889
0.000634259
0.000634416
0.000634937
0.000635193
0.000646416
0.000683022
0.00174667
0.00102281
0.000929609
0.000860493
0.000811011
0.000775438
0.000749258
0.000729469
0.000714113
0.00070195
0.000692125
0.00068408
0.000677392
0.00067178
0.000667017
0.000662945
0.000659433
0.000656386
0.000653725
0.000651383
0.000649323
0.000647489
0.000645866
0.000644402
0.000643102
0.000641921
0.000640869
0.000639896
0.000639035
0.00063823
0.000637524
0.000636849
0.00063626
0.000635703
0.000635211
0.00063473
0.000634316
0.000633913
0.000633573
0.000633227
0.00063294
0.000632653
0.000632417
0.000632157
0.00063196
0.000631758
0.000631575
0.000631389
0.000631245
0.000631097
0.000630997
0.000630884
0.000630783
0.000630677
0.000630612
0.000630524
0.000630443
0.000630392
0.000630311
0.000630255
0.000630224
0.000630157
0.000630139
0.000630095
0.000630153
0.00063016
0.00063025
0.000630317
0.000630447
0.000630468
0.000630581
0.000630608
0.000630714
0.000630781
0.000630929
0.000631002
0.000631155
0.000631234
0.000631401
0.000631488
0.00063167
0.000631767
0.000631973
0.000632084
0.000632316
0.000632439
0.000632698
0.000632836
0.000633135
0.000633291
0.00063366
0.000633816
0.000634336
0.000634593
0.000646072
0.000682534
0.00174673
0.00102282
0.00092961
0.000860439
0.000810882
0.000775237
0.000748995
0.000729153
0.000713754
0.000701556
0.000691701
0.00068363
0.00067692
0.000671291
0.000666512
0.000662425
0.000658901
0.000655844
0.000653174
0.000650824
0.000648755
0.000646916
0.000645287
0.000643817
0.000642512
0.000641327
0.00064027
0.000639294
0.000638429
0.000637621
0.000636912
0.000636235
0.000635643
0.000635083
0.00063459
0.000634107
0.00063369
0.000633286
0.000632945
0.000632597
0.000632308
0.00063202
0.000631782
0.000631522
0.000631324
0.00063112
0.000630937
0.000630749
0.000630605
0.000630456
0.000630355
0.000630241
0.00063014
0.000630033
0.000629967
0.000629879
0.000629797
0.000629746
0.000629664
0.000629607
0.000629576
0.000629509
0.00062949
0.000629445
0.000629502
0.000629507
0.000629597
0.000629664
0.000629793
0.000629812
0.000629925
0.000629951
0.000630057
0.000630124
0.000630272
0.000630343
0.000630497
0.000630575
0.000630741
0.000630828
0.000631009
0.000631105
0.00063131
0.000631422
0.000631653
0.000631775
0.000632033
0.000632171
0.000632468
0.000632623
0.000632991
0.000633146
0.000633666
0.000633924
0.000645693
0.000681992
0.00174471
0.00102283
0.000929613
0.00086038
0.000810741
0.000775016
0.000748705
0.000728805
0.000713359
0.00070112
0.000691232
0.000683133
0.0006764
0.00067075
0.000665953
0.000661852
0.000658314
0.000655245
0.000652564
0.000650205
0.000648129
0.000646281
0.000644646
0.00064317
0.00064186
0.000640669
0.000639609
0.000638628
0.000637759
0.000636948
0.000636236
0.000635555
0.000634961
0.000634399
0.000633903
0.000633417
0.000632999
0.000632593
0.00063225
0.0006319
0.00063161
0.00063132
0.000631081
0.000630819
0.00063062
0.000630415
0.000630231
0.000630042
0.000629897
0.000629747
0.000629645
0.00062953
0.000629428
0.00062932
0.000629254
0.000629165
0.000629083
0.000629031
0.000628949
0.000628891
0.00062886
0.000628793
0.000628773
0.000628726
0.000628782
0.000628786
0.000628875
0.000628941
0.00062907
0.000629088
0.0006292
0.000629226
0.000629331
0.000629397
0.000629544
0.000629616
0.000629768
0.000629846
0.000630012
0.000630098
0.000630278
0.000630374
0.000630578
0.000630689
0.000630919
0.000631041
0.000631297
0.000631435
0.000631731
0.000631885
0.000632252
0.000632405
0.000632925
0.000633184
0.000645278
0.000681395
0.0017406
0.00102284
0.000929615
0.000860315
0.000810588
0.000774776
0.000748388
0.000728425
0.000712926
0.000700644
0.000690719
0.000682589
0.00067583
0.000670157
0.000665341
0.000661223
0.000657671
0.000654588
0.000651896
0.000649527
0.000647441
0.000645586
0.000643943
0.000642461
0.000641144
0.000639948
0.000638883
0.000637897
0.000637024
0.00063621
0.000635494
0.00063481
0.000634212
0.000633647
0.000633149
0.000632661
0.000632241
0.000631832
0.000631487
0.000631135
0.000630843
0.000630552
0.000630312
0.000630049
0.000629848
0.000629641
0.000629456
0.000629267
0.00062912
0.000628969
0.000628866
0.00062875
0.000628647
0.000628538
0.000628471
0.000628382
0.000628299
0.000628246
0.000628165
0.000628106
0.000628074
0.000628006
0.000627986
0.000627938
0.000627991
0.000627995
0.000628083
0.000628149
0.000628275
0.000628293
0.000628404
0.000628429
0.000628534
0.0006286
0.000628746
0.000628817
0.000628969
0.000629045
0.000629211
0.000629296
0.000629476
0.000629571
0.000629774
0.000629884
0.000630113
0.000630235
0.00063049
0.000630627
0.000630922
0.000631075
0.00063144
0.000631593
0.000632112
0.000632373
0.000644827
0.000680743
0.00173444
0.00102286
0.000929618
0.000860246
0.000810422
0.000774515
0.000748045
0.000728013
0.000712455
0.000700126
0.000690161
0.000681998
0.000675209
0.000669512
0.000664675
0.000660539
0.00065697
0.000653873
0.000651169
0.000648788
0.000646693
0.000644829
0.000643177
0.000641688
0.000640365
0.000639163
0.000638092
0.000637101
0.000636224
0.000635405
0.000634685
0.000633998
0.000633397
0.000632829
0.000632328
0.000631837
0.000631414
0.000631003
0.000630656
0.000630302
0.000630008
0.000629715
0.000629473
0.000629208
0.000629006
0.000628798
0.000628612
0.000628421
0.000628273
0.000628121
0.000628016
0.000627899
0.000627796
0.000627686
0.000627618
0.000627529
0.000627445
0.000627391
0.000627309
0.000627249
0.000627217
0.000627149
0.000627128
0.000627078
0.000627129
0.000627132
0.000627219
0.000627284
0.00062741
0.000627426
0.000627536
0.000627561
0.000627666
0.00062773
0.000627875
0.000627946
0.000628097
0.000628173
0.000628337
0.000628422
0.000628601
0.000628696
0.000628898
0.000629007
0.000629235
0.000629356
0.00062961
0.000629747
0.00063004
0.000630192
0.000630556
0.000630707
0.000631225
0.000631488
0.000644339
0.000680033
0.00172626
0.00102288
0.000929622
0.000860173
0.000810244
0.000774234
0.000747674
0.000727567
0.000711947
0.000699566
0.000689557
0.000681357
0.000674538
0.000668814
0.000663954
0.000659797
0.000656211
0.000653099
0.000650381
0.000647988
0.000645882
0.000644008
0.000642348
0.000640851
0.00063952
0.000638312
0.000637235
0.000636239
0.000635356
0.000634533
0.000633809
0.000633118
0.000632513
0.000631941
0.000631437
0.000630944
0.000630518
0.000630104
0.000629755
0.000629399
0.000629103
0.000628807
0.000628564
0.000628297
0.000628093
0.000627884
0.000627696
0.000627504
0.000627355
0.000627201
0.000627095
0.000626977
0.000626873
0.000626762
0.000626693
0.000626603
0.000626518
0.000626464
0.000626382
0.000626321
0.000626288
0.00062622
0.000626198
0.000626146
0.000626195
0.000626197
0.000626282
0.000626347
0.000626471
0.000626486
0.000626596
0.00062662
0.000626724
0.000626788
0.000626931
0.000627001
0.000627152
0.000627227
0.000627391
0.000627475
0.000627653
0.000627747
0.000627948
0.000628057
0.000628283
0.000628404
0.000628656
0.000628792
0.000629084
0.000629235
0.000629597
0.000629746
0.000630264
0.000630529
0.000643814
0.000679264
0.00171611
0.00102289
0.000929626
0.000860094
0.000810053
0.000773934
0.000747277
0.000727088
0.000711401
0.000698963
0.000688908
0.000680669
0.000673815
0.000668063
0.000663177
0.000658999
0.000655394
0.000652265
0.000649532
0.000647126
0.000645008
0.000643123
0.000641454
0.000639948
0.000638609
0.000637394
0.00063631
0.000635309
0.000634421
0.000633592
0.000632863
0.000632168
0.000631559
0.000630984
0.000630477
0.00062998
0.000629551
0.000629135
0.000628783
0.000628424
0.000628126
0.000627828
0.000627583
0.000627315
0.000627108
0.000626897
0.000626709
0.000626515
0.000626364
0.000626209
0.000626102
0.000625982
0.000625878
0.000625765
0.000625695
0.000625604
0.000625519
0.000625463
0.000625381
0.000625319
0.000625286
0.000625217
0.000625194
0.000625141
0.000625187
0.000625187
0.000625272
0.000625336
0.000625458
0.000625472
0.000625581
0.000625604
0.000625708
0.00062577
0.000625913
0.000625983
0.000626132
0.000626207
0.000626369
0.000626453
0.00062663
0.000626723
0.000626922
0.000627031
0.000627256
0.000627376
0.000627627
0.000627761
0.000628052
0.000628202
0.000628562
0.00062871
0.000629226
0.000629495
0.000643251
0.000678434
0.00170404
0.00102291
0.000929631
0.000860012
0.000809851
0.000773613
0.000746852
0.000726576
0.000710817
0.000698319
0.000688212
0.00067993
0.00067304
0.000667257
0.000662344
0.000658142
0.000654517
0.00065137
0.000648621
0.0006462
0.000644069
0.000642173
0.000640494
0.000638978
0.000637632
0.000636408
0.000635318
0.00063431
0.000633416
0.000632582
0.000631848
0.000631148
0.000630535
0.000629956
0.000629445
0.000628945
0.000628513
0.000628094
0.000627739
0.000627378
0.000627077
0.000626777
0.000626529
0.000626259
0.000626051
0.000625838
0.000625648
0.000625452
0.0006253
0.000625143
0.000625035
0.000624914
0.000624808
0.000624695
0.000624623
0.000624531
0.000624445
0.000624388
0.000624306
0.000624243
0.000624209
0.000624139
0.000624116
0.00062406
0.000624103
0.000624103
0.000624186
0.00062425
0.00062437
0.000624383
0.00062449
0.000624513
0.000624616
0.000624678
0.000624819
0.000624888
0.000625036
0.000625111
0.000625271
0.000625355
0.00062553
0.000625623
0.000625821
0.000625928
0.000626152
0.000626271
0.000626521
0.000626655
0.000626943
0.000627092
0.00062745
0.000627596
0.000628112
0.000628384
0.000642648
0.000677542
0.0016901
0.00102293
0.000929637
0.000859924
0.000809636
0.000773273
0.0007464
0.000726031
0.000710194
0.000697631
0.00068747
0.000679142
0.000672213
0.000666396
0.000661454
0.000657227
0.000653579
0.000650413
0.000647646
0.000645211
0.000643066
0.000641158
0.000639467
0.000637942
0.000636586
0.000635354
0.000634256
0.000633241
0.000632341
0.000631501
0.000630762
0.000630058
0.00062944
0.000628856
0.000628341
0.000627838
0.000627402
0.000626979
0.000626622
0.000626258
0.000625954
0.000625651
0.000625402
0.00062513
0.000624919
0.000624704
0.000624512
0.000624315
0.000624162
0.000624003
0.000623892
0.00062377
0.000623663
0.000623549
0.000623476
0.000623383
0.000623296
0.000623238
0.000623156
0.000623091
0.000623056
0.000622986
0.000622962
0.000622904
0.000622944
0.000622943
0.000623025
0.000623088
0.000623205
0.000623217
0.000623323
0.000623345
0.000623447
0.000623508
0.000623648
0.000623716
0.000623863
0.000623937
0.000624097
0.000624179
0.000624354
0.000624445
0.000624642
0.000624749
0.000624971
0.000625089
0.000625337
0.00062547
0.000625756
0.000625904
0.00062626
0.000626404
0.000626919
0.000627196
0.000642005
0.000676583
0.00167437
0.00102295
0.000929644
0.000859833
0.00080941
0.000772912
0.000745922
0.000725453
0.000709532
0.0006969
0.000686681
0.000678303
0.000671333
0.000665479
0.000660507
0.000656253
0.000652581
0.000649393
0.000646609
0.000644157
0.000641997
0.000640076
0.000638373
0.000636837
0.000635471
0.000634231
0.000633125
0.000632102
0.000631196
0.000630349
0.000629605
0.000628895
0.000628272
0.000627683
0.000627164
0.000626657
0.000626218
0.000625791
0.00062543
0.000625063
0.000624757
0.000624451
0.000624199
0.000623925
0.000623712
0.000623495
0.000623302
0.000623103
0.000622947
0.000622786
0.000622674
0.00062255
0.000622442
0.000622326
0.000622252
0.000622158
0.000622071
0.000622011
0.000621929
0.000621862
0.000621827
0.000621756
0.000621731
0.000621671
0.000621708
0.000621705
0.000621786
0.000621848
0.000621963
0.000621973
0.000622079
0.000622099
0.000622201
0.00062226
0.000622399
0.000622466
0.000622613
0.000622685
0.000622843
0.000622925
0.000623098
0.000623189
0.000623384
0.00062349
0.000623711
0.000623828
0.000624074
0.000624206
0.000624491
0.000624637
0.000624991
0.000625133
0.000625647
0.000625929
0.000641318
0.000675554
0.00165693
0.00102297
0.000929651
0.000859738
0.000809172
0.000772533
0.000745416
0.000724841
0.000708831
0.000696125
0.000685844
0.000677414
0.000670399
0.000664507
0.000659501
0.000655218
0.000651521
0.000648311
0.000645506
0.000643037
0.000640862
0.000638926
0.000637211
0.000635663
0.000634287
0.000633037
0.000631922
0.000630892
0.000629978
0.000629125
0.000628374
0.000627658
0.00062703
0.000626437
0.000625913
0.000625402
0.000624959
0.000624529
0.000624164
0.000623794
0.000623485
0.000623176
0.000622921
0.000622644
0.000622428
0.000622209
0.000622014
0.000621813
0.000621656
0.000621493
0.000621379
0.000621253
0.000621144
0.000621026
0.00062095
0.000620856
0.000620767
0.000620706
0.000620624
0.000620555
0.00062052
0.000620448
0.000620422
0.00062036
0.000620394
0.000620389
0.000620468
0.00062053
0.000620642
0.00062065
0.000620755
0.000620774
0.000620875
0.000620933
0.00062107
0.000621137
0.000621282
0.000621354
0.000621511
0.000621592
0.000621764
0.000621854
0.000622047
0.000622152
0.000622371
0.000622487
0.000622731
0.000622862
0.000623144
0.00062329
0.000623641
0.000623781
0.000624294
0.000624581
0.000640587
0.000674451
0.00163785
0.00102299
0.000929659
0.000859639
0.000808923
0.000772133
0.000744884
0.000724196
0.000708092
0.000695307
0.00068496
0.000676474
0.000669411
0.000663478
0.000658437
0.000654123
0.000650399
0.000647165
0.000644339
0.000641851
0.000639659
0.000637708
0.000635979
0.000634419
0.000633032
0.000631772
0.000630648
0.000629609
0.000628688
0.000627827
0.00062707
0.000626348
0.000625714
0.000625115
0.000624587
0.000624071
0.000623624
0.00062319
0.000622821
0.000622448
0.000622135
0.000621823
0.000621566
0.000621286
0.000621068
0.000620846
0.000620649
0.000620446
0.000620287
0.000620122
0.000620005
0.000619878
0.000619767
0.000619648
0.00061957
0.000619475
0.000619385
0.000619322
0.00061924
0.00061917
0.000619133
0.000619061
0.000619034
0.00061897
0.000619
0.000618994
0.000619071
0.000619132
0.000619241
0.000619248
0.000619351
0.000619369
0.00061947
0.000619526
0.000619662
0.000619728
0.000619871
0.000619942
0.000620097
0.000620178
0.000620348
0.000620437
0.000620628
0.000620732
0.000620949
0.000621065
0.000621307
0.000621437
0.000621717
0.000621861
0.00062221
0.000622347
0.000622859
0.000623152
0.000639807
0.00067327
0.00161722
0.00102302
0.000929669
0.000859537
0.000808663
0.000771715
0.000744324
0.000723518
0.000707313
0.000694446
0.000684028
0.000675483
0.000668369
0.000662393
0.000657313
0.000652967
0.000649214
0.000645955
0.000643106
0.000640598
0.000638388
0.000636421
0.000634678
0.000633105
0.000631706
0.000630435
0.000629301
0.000628253
0.000627323
0.000626455
0.000625691
0.000624963
0.000624323
0.000623718
0.000623185
0.000622664
0.000622213
0.000621774
0.000621402
0.000621024
0.000620708
0.000620393
0.000620132
0.00061985
0.000619629
0.000619405
0.000619206
0.000619
0.000618838
0.000618671
0.000618553
0.000618423
0.000618311
0.00061819
0.000618111
0.000618014
0.000617923
0.000617859
0.000617776
0.000617704
0.000617667
0.000617593
0.000617565
0.0006175
0.000617526
0.000617518
0.000617593
0.000617653
0.000617758
0.000617764
0.000617866
0.000617883
0.000617983
0.000618038
0.000618172
0.000618237
0.000618379
0.000618448
0.000618602
0.000618682
0.00061885
0.000618938
0.000619128
0.000619231
0.000619446
0.00061956
0.0006198
0.000619929
0.000620206
0.000620349
0.000620695
0.000620831
0.000621341
0.000621641
0.000638976
0.000672004
0.00159514
0.00102304
0.000929679
0.000859431
0.000808392
0.000771278
0.000743739
0.000722806
0.000706496
0.00069354
0.000683048
0.00067444
0.000667272
0.00066125
0.00065613
0.000651749
0.000647965
0.000644679
0.000641807
0.000639278
0.000637049
0.000635065
0.000633306
0.000631719
0.000630308
0.000629025
0.000627881
0.000626824
0.000625885
0.000625009
0.000624237
0.000623501
0.000622855
0.000622245
0.000621706
0.00062118
0.000620724
0.00062028
0.000619904
0.000619523
0.000619203
0.000618884
0.00061862
0.000618335
0.000618111
0.000617883
0.000617682
0.000617474
0.00061731
0.000617141
0.00061702
0.000616888
0.000616775
0.000616652
0.000616571
0.000616473
0.00061638
0.000616314
0.000616231
0.000616157
0.000616119
0.000616044
0.000616016
0.000615948
0.000615971
0.00061596
0.000616034
0.000616092
0.000616194
0.000616199
0.000616299
0.000616315
0.000616413
0.000616467
0.000616599
0.000616663
0.000616804
0.000616872
0.000617024
0.000617103
0.000617269
0.000617357
0.000617544
0.000617646
0.000617859
0.000617972
0.00061821
0.000618337
0.000618613
0.000618754
0.000619097
0.00061923
0.000619739
0.000620047
0.000638087
0.000670649
0.0015717
0.00102307
0.000929691
0.000859322
0.000808111
0.000770822
0.000743127
0.000722061
0.00070564
0.000692591
0.00068202
0.000673346
0.000666121
0.00066005
0.000654888
0.000650469
0.000646653
0.000643339
0.000640441
0.000637889
0.00063564
0.000633638
0.000631863
0.000630262
0.000628836
0.000627541
0.000626386
0.000625319
0.000624371
0.000623486
0.000622706
0.000621963
0.000621311
0.000620693
0.000620149
0.000619617
0.000619156
0.000618708
0.000618327
0.000617942
0.000617618
0.000617295
0.000617028
0.00061674
0.000616512
0.000616282
0.000616078
0.000615868
0.000615701
0.000615529
0.000615405
0.000615272
0.000615157
0.000615032
0.000614949
0.00061485
0.000614756
0.000614688
0.000614604
0.000614528
0.000614489
0.000614413
0.000614384
0.000614314
0.000614333
0.00061432
0.000614392
0.000614449
0.000614547
0.00061455
0.000614648
0.000614663
0.000614761
0.000614812
0.000614943
0.000615006
0.000615145
0.000615212
0.000615362
0.00061544
0.000615605
0.000615691
0.000615876
0.000615977
0.000616187
0.0006163
0.000616535
0.000616661
0.000616934
0.000617073
0.000617414
0.000617544
0.000618052
0.000618368
0.000637131
0.000669203
0.00154701
0.00102309
0.000929704
0.00085921
0.000807819
0.000770348
0.000742489
0.000721284
0.000704745
0.000691598
0.000680944
0.000672199
0.000664914
0.000658791
0.000653584
0.000649127
0.000645277
0.000641932
0.000639008
0.000636432
0.000634162
0.00063214
0.000630348
0.000628731
0.000627292
0.000625984
0.000624817
0.000623739
0.00062278
0.000621886
0.000621098
0.000620348
0.000619688
0.000619064
0.000618513
0.000617976
0.000617509
0.000617056
0.00061667
0.00061628
0.000615953
0.000615625
0.000615355
0.000615063
0.000614832
0.000614599
0.000614393
0.000614179
0.000614011
0.000613835
0.000613709
0.000613573
0.000613457
0.000613329
0.000613244
0.000613143
0.000613048