/*--------------------------------*- C++ -*----------------------------------*\
| =========                 |                                                 |
| \\      /  F ield         | OpenFOAM: The Open Source CFD Toolbox           |
|  \\    /   O peration     | Version:  v2012                                 |
|   \\  /    A nd           | Website:  www.openfoam.com                      |
|    \\/     M anipulation  |                                                 |
\*---------------------------------------------------------------------------*/
FoamFile
{
    version     2.0;
    format      ascii;
    class       volScalarField;
    location    "29";
    object      omega;
}
// * * * * * * * * * * * * * * * * * * * * * * * * * * * * * * * * * * * * * //

dimensions      [0 0 -1 0 0 0 0];


internalField   nonuniform List<scalar> 
209825
(
8257.8
7559.3
7012.01
6599.48
6290.52
6056.81
5876.11
5733.93
5619.47
5526.28
5448.81
5384.15
5329.05
5282.24
5241.53
5206.5
5175.52
5148.63
5124.47
5103.38
5084.16
5067.34
5051.79
5038.15
5025.42
5014.26
5003.68
4994.42
4985.55
4977.84
4970.32
4963.84
4957.43
4951.94
4946.45
4941.82
4937.07
4933.1
4928.98
4925.63
4922.06
4919.1
4916.06
4913.57
4910.83
4908.67
4906.27
4904.47
4902.46
4900.92
4899.28
4897.93
4896.33
4895.15
4893.94
4892.81
4891.75
4890.85
4890.14
4889.49
4888.78
4888.18
4887.76
4887.21
4886.65
4886.35
4886.06
4885.91
4885.61
4885.41
4884.98
4884.86
4884.6
4884.77
4884.77
4885.13
4885.13
4885.67
4885.67
4886.41
4886.41
4887.31
4887.39
4888.39
4888.63
4889.7
4890.03
4891.22
4891.6
4893.02
4893.31
4895.32
4895.89
4929.84
5056.95
113762
8257.8
7559.3
7012.01
6599.46
6290.49
6056.76
5876.04
5733.86
5619.39
5526.19
5448.71
5384.04
5328.94
5282.12
5241.4
5206.37
5175.39
5148.49
5124.33
5103.23
5084.02
5067.19
5051.64
5038
5025.27
5014.11
5003.52
4994.26
4985.39
4977.68
4970.16
4963.68
4957.27
4951.78
4946.28
4941.65
4936.91
4932.93
4928.82
4925.46
4921.89
4918.94
4915.89
4913.4
4910.66
4908.5
4906.11
4904.3
4902.29
4900.75
4899.11
4897.76
4896.16
4894.98
4893.77
4892.64
4891.58
4890.68
4889.97
4889.32
4888.61
4888
4887.59
4887.03
4886.48
4886.17
4885.89
4885.74
4885.43
4885.23
4884.8
4884.69
4884.42
4884.6
4884.6
4884.95
4884.95
4885.49
4885.49
4886.24
4886.24
4887.14
4887.22
4888.22
4888.45
4889.52
4889.86
4891.05
4891.42
4892.84
4893.13
4895.14
4895.72
4929.73
5056.8
110464
8257.8
7559.31
7011.99
6599.39
6290.36
6056.58
5875.82
5733.59
5619.09
5525.86
5448.36
5383.67
5328.54
5281.7
5240.98
5205.94
5174.94
5148.03
5123.87
5102.76
5083.54
5066.7
5051.15
5037.5
5024.76
5013.6
5003.01
4993.75
4984.87
4977.16
4969.64
4963.15
4956.73
4951.24
4945.75
4941.11
4936.37
4932.39
4928.27
4924.92
4921.34
4918.39
4915.34
4912.85
4910.11
4907.94
4905.55
4903.75
4901.73
4900.2
4898.55
4897.2
4895.6
4894.42
4893.21
4892.08
4891.02
4890.12
4889.4
4888.75
4888.04
4887.44
4887.02
4886.47
4885.91
4885.6
4885.32
4885.17
4884.86
4884.66
4884.23
4884.12
4883.85
4884.03
4884.02
4884.38
4884.38
4884.91
4884.92
4885.66
4885.66
4886.56
4886.64
4887.64
4887.87
4888.94
4889.28
4890.47
4890.84
4892.26
4892.55
4894.56
4895.13
4929.28
5056.27
106679
8257.81
7559.33
7011.95
6599.26
6290.14
6056.26
5875.42
5733.13
5618.57
5525.29
5447.75
5383.02
5327.86
5281
5240.25
5205.19
5174.17
5147.24
5123.06
5101.94
5082.71
5065.86
5050.3
5036.65
5023.9
5012.73
5002.13
4992.86
4983.98
4976.26
4968.73
4962.24
4955.82
4950.33
4944.83
4940.19
4935.44
4931.46
4927.34
4923.98
4920.4
4917.45
4914.4
4911.9
4909.16
4907
4904.6
4902.8
4900.78
4899.24
4897.59
4896.24
4894.64
4893.46
4892.25
4891.12
4890.05
4889.15
4888.43
4887.78
4887.07
4886.47
4886.05
4885.49
4884.94
4884.63
4884.35
4884.19
4883.89
4883.68
4883.25
4883.14
4882.87
4883.04
4883.04
4883.4
4883.39
4883.93
4883.93
4884.67
4884.67
4885.57
4885.65
4886.64
4886.88
4887.94
4888.28
4889.47
4889.84
4891.26
4891.55
4893.56
4894.13
4928.48
5055.34
102788
8257.83
7559.35
7011.9
6599.09
6289.82
6055.82
5874.86
5732.47
5617.83
5524.48
5446.87
5382.1
5326.9
5279.99
5239.21
5204.12
5173.07
5146.12
5121.92
5100.78
5081.53
5064.67
5049.09
5035.43
5022.66
5011.48
5000.88
4991.6
4982.71
4974.98
4967.45
4960.95
4954.52
4949.02
4943.52
4938.88
4934.12
4930.14
4926.01
4922.65
4919.07
4916.11
4913.05
4910.56
4907.81
4905.64
4903.25
4901.44
4899.42
4897.88
4896.23
4894.88
4893.27
4892.09
4890.88
4889.74
4888.68
4887.77
4887.05
4886.4
4885.69
4885.08
4884.66
4884.11
4883.55
4883.24
4882.96
4882.8
4882.49
4882.29
4881.86
4881.75
4881.48
4881.65
4881.64
4881.99
4881.99
4882.52
4882.52
4883.26
4883.27
4884.16
4884.24
4885.23
4885.47
4886.53
4886.86
4888.05
4888.42
4889.84
4890.13
4892.13
4892.71
4927.33
5054.03
98893
8257.85
7559.38
7011.83
6598.85
6289.41
6055.24
5874.13
5731.61
5616.86
5523.42
5445.74
5380.9
5325.63
5278.68
5237.85
5202.72
5171.64
5144.66
5120.43
5099.27
5079.99
5063.11
5047.52
5033.83
5021.06
5009.86
4999.24
4989.95
4981.05
4973.31
4965.77
4959.27
4952.83
4947.32
4941.81
4937.16
4932.4
4928.41
4924.28
4920.91
4917.33
4914.36
4911.3
4908.8
4906.05
4903.88
4901.48
4899.67
4897.65
4896.1
4894.45
4893.09
4891.48
4890.3
4889.09
4887.95
4886.88
4885.98
4885.25
4884.6
4883.89
4883.28
4882.85
4882.3
4881.74
4881.43
4881.14
4880.99
4880.68
4880.48
4880.05
4879.93
4879.65
4879.82
4879.82
4880.16
4880.16
4880.69
4880.69
4881.43
4881.43
4882.32
4882.39
4883.39
4883.62
4884.68
4885.01
4886.2
4886.57
4887.99
4888.27
4890.28
4890.85
4925.83
5052.31
95036.1
8257.87
7559.41
7011.74
6598.57
6288.9
6054.52
5873.23
5730.55
5615.67
5522.11
5444.33
5379.41
5324.07
5277.06
5236.17
5200.99
5169.87
5142.85
5118.59
5097.39
5078.09
5061.19
5045.57
5031.86
5019.06
5007.85
4997.22
4987.91
4979
4971.25
4963.69
4957.18
4950.73
4945.22
4939.69
4935.04
4930.27
4926.27
4922.13
4918.76
4915.17
4912.2
4909.13
4906.63
4903.87
4901.7
4899.29
4897.48
4895.45
4893.9
4892.24
4890.89
4889.27
4888.09
4886.87
4885.73
4884.66
4883.75
4883.03
4882.37
4881.66
4881.04
4880.62
4880.06
4879.5
4879.19
4878.9
4878.74
4878.43
4878.23
4877.8
4877.68
4877.4
4877.56
4877.56
4877.9
4877.9
4878.42
4878.42
4879.15
4879.15
4880.04
4880.12
4881.11
4881.34
4882.4
4882.73
4883.91
4884.28
4885.69
4885.97
4887.98
4888.55
4923.98
5050.19
91235.6
8257.9
7559.45
7011.64
6598.22
6288.29
6053.66
5872.15
5729.29
5614.24
5520.55
5442.65
5377.63
5322.21
5275.11
5234.16
5198.92
5167.75
5140.69
5116.38
5095.15
5075.82
5058.88
5043.23
5029.51
5016.68
5005.45
4994.8
4985.48
4976.55
4968.78
4961.21
4954.68
4948.22
4942.7
4937.16
4932.5
4927.72
4923.71
4919.57
4916.19
4912.59
4909.61
4906.54
4904.03
4901.27
4899.09
4896.67
4894.86
4892.82
4891.27
4889.61
4888.25
4886.63
4885.44
4884.22
4883.08
4882.01
4881.09
4880.36
4879.71
4878.99
4878.37
4877.94
4877.39
4876.82
4876.51
4876.21
4876.05
4875.74
4875.54
4875.11
4874.99
4874.7
4874.86
4874.86
4875.19
4875.19
4875.71
4875.71
4876.43
4876.43
4877.32
4877.39
4878.38
4878.6
4879.66
4879.99
4881.17
4881.53
4882.94
4883.23
4885.23
4885.8
4921.76
5047.66
87500.3
8257.93
7559.5
7011.53
6597.83
6287.58
6052.66
5870.89
5727.81
5612.58
5518.73
5440.69
5375.55
5320.03
5272.85
5231.82
5196.52
5165.28
5138.16
5113.81
5092.54
5073.16
5056.19
5040.51
5026.75
5013.91
5002.65
4991.97
4982.63
4973.68
4965.9
4958.31
4951.77
4945.3
4939.76
4934.21
4929.53
4924.74
4920.73
4916.57
4913.18
4909.57
4906.59
4903.51
4900.99
4898.23
4896.04
4893.62
4891.8
4889.76
4888.2
4886.53
4885.17
4883.55
4882.35
4881.13
4879.98
4878.91
4877.99
4877.25
4876.59
4875.87
4875.25
4874.82
4874.26
4873.7
4873.38
4873.08
4872.92
4872.6
4872.4
4871.97
4871.84
4871.56
4871.71
4871.7
4872.03
4872.03
4872.54
4872.54
4873.26
4873.26
4874.14
4874.2
4875.19
4875.41
4876.47
4876.79
4877.97
4878.33
4879.74
4880.02
4882.02
4882.6
4919.19
5044.72
83833
8257.96
7559.55
7011.39
6597.38
6286.77
6051.52
5869.46
5726.12
5610.68
5516.64
5438.45
5373.18
5317.54
5270.26
5229.14
5193.76
5162.45
5135.27
5110.86
5089.54
5070.12
5053.11
5037.39
5023.6
5010.72
4999.44
4988.74
4979.37
4970.4
4962.6
4954.99
4948.43
4941.94
4936.39
4930.83
4926.14
4921.33
4917.31
4913.14
4909.74
4906.12
4903.13
4900.04
4897.52
4894.74
4892.55
4890.12
4888.29
4886.24
4884.68
4883
4881.64
4880.01
4878.81
4877.58
4876.43
4875.35
4874.43
4873.69
4873.02
4872.3
4871.68
4871.24
4870.68
4870.11
4869.79
4869.49
4869.32
4869.01
4868.8
4868.37
4868.24
4867.95
4868.1
4868.08
4868.41
4868.4
4868.91
4868.91
4869.62
4869.62
4870.49
4870.56
4871.54
4871.76
4872.81
4873.13
4874.3
4874.66
4876.07
4876.34
4878.34
4878.92
4916.24
5041.35
80231.9
8258
7559.61
7011.25
6596.87
6285.87
6050.23
5867.85
5724.22
5608.53
5514.3
5435.93
5370.5
5314.73
5267.33
5226.11
5190.64
5159.26
5132.01
5107.54
5086.16
5066.69
5049.63
5033.87
5020.05
5007.13
4995.82
4985.08
4975.69
4966.69
4958.87
4951.24
4944.66
4938.15
4932.58
4927
4922.3
4917.48
4913.44
4909.26
4905.85
4902.22
4899.22
4896.12
4893.59
4890.8
4888.6
4886.17
4884.33
4882.28
4880.7
4879.02
4877.65
4876.02
4874.81
4873.57
4872.42
4871.34
4870.41
4869.66
4868.99
4868.27
4867.64
4867.19
4866.64
4866.06
4865.73
4865.43
4865.26
4864.94
4864.74
4864.3
4864.17
4863.87
4864.01
4864
4864.31
4864.31
4864.8
4864.8
4865.51
4865.51
4866.38
4866.43
4867.41
4867.63
4868.67
4868.99
4870.16
4870.52
4871.91
4872.18
4874.19
4874.76
4912.93
5037.57
76691.2
8258.05
7559.68
7011.09
6596.31
6284.86
6048.81
5866.05
5722.11
5606.15
5511.68
5433.11
5367.51
5311.59
5264.07
5222.74
5187.17
5155.69
5128.37
5103.82
5082.38
5062.86
5045.75
5029.94
5016.07
5003.12
4991.77
4981
4971.58
4962.55
4954.71
4947.05
4940.45
4933.92
4928.33
4922.73
4918.01
4913.18
4909.13
4904.93
4901.51
4897.87
4894.85
4891.74
4889.2
4886.4
4884.19
4881.75
4879.9
4877.84
4876.26
4874.57
4873.19
4871.55
4870.34
4869.1
4867.94
4866.85
4865.91
4865.16
4864.49
4863.76
4863.12
4862.67
4862.12
4861.54
4861.2
4860.89
4860.72
4860.4
4860.19
4859.76
4859.63
4859.32
4859.45
4859.43
4859.74
4859.74
4860.22
4860.22
4860.91
4860.91
4861.77
4861.83
4862.8
4863.01
4864.05
4864.36
4865.53
4865.88
4867.28
4867.54
4869.55
4870.12
4909.23
5033.36
73205.9
8258.09
7559.76
7010.91
6595.7
6283.76
6047.24
5864.07
5719.78
5603.51
5508.79
5430
5364.21
5308.13
5260.46
5219.01
5183.32
5151.76
5124.34
5099.72
5078.21
5058.62
5041.45
5025.59
5011.68
4998.68
4987.29
4976.49
4967.03
4957.98
4950.1
4942.42
4935.79
4929.24
4923.63
4918.01
4913.27
4908.42
4904.35
4900.14
4896.7
4893.05
4890.02
4886.89
4884.34
4881.53
4879.31
4876.86
4875
4872.93
4871.34
4869.64
4868.26
4866.62
4865.4
4864.14
4862.98
4861.88
4860.94
4860.18
4859.5
4858.77
4858.13
4857.67
4857.11
4856.53
4856.19
4855.87
4855.7
4855.37
4855.17
4854.73
4854.6
4854.28
4854.41
4854.38
4854.67
4854.67
4855.15
4855.14
4855.83
4855.83
4856.68
4856.73
4857.7
4857.9
4858.94
4859.25
4860.41
4860.75
4862.14
4862.4
4864.41
4864.98
4905.16
5028.71
69782.6
8258.15
7559.85
7010.73
6595.03
6282.55
6045.52
5861.9
5717.22
5600.63
5505.62
5426.59
5360.6
5304.33
5256.51
5214.92
5179.11
5147.43
5119.92
5095.21
5073.63
5053.97
5036.74
5020.82
5006.86
4993.81
4982.38
4971.53
4962.04
4952.95
4945.04
4937.33
4930.68
4924.1
4918.47
4912.82
4908.07
4903.19
4899.11
4894.88
4891.42
4887.75
4884.72
4881.57
4879.01
4876.19
4873.96
4871.49
4869.62
4867.54
4865.94
4864.23
4862.84
4861.19
4859.96
4858.7
4857.54
4856.43
4855.48
4854.71
4854.03
4853.29
4852.64
4852.18
4851.62
4851.03
4850.69
4850.36
4850.18
4849.85
4849.65
4849.21
4849.07
4848.75
4848.86
4848.83
4849.11
4849.11
4849.57
4849.57
4850.24
4850.24
4851.09
4851.13
4852.09
4852.29
4853.32
4853.62
4854.78
4855.12
4856.51
4856.76
4858.76
4859.34
4900.7
5023.63
66427.3
8258.2
7559.94
7010.52
6594.31
6281.25
6043.66
5859.55
5714.45
5597.49
5502.18
5422.89
5356.66
5300.2
5252.21
5210.46
5174.52
5142.72
5115.11
5090.31
5068.64
5048.9
5031.6
5015.62
5001.6
4988.5
4977.02
4966.13
4956.6
4947.47
4939.53
4931.78
4925.1
4918.49
4912.84
4907.17
4902.39
4897.49
4893.39
4889.14
4885.67
4881.98
4878.93
4875.77
4873.19
4870.36
4868.12
4865.64
4863.76
4861.67
4860.05
4858.33
4856.93
4855.28
4854.04
4852.77
4851.6
4850.48
4849.53
4848.74
4848.06
4847.31
4846.66
4846.19
4845.62
4845.03
4844.68
4844.34
4844.17
4843.83
4843.62
4843.19
4843.04
4842.71
4842.82
4842.78
4843.05
4843.05
4843.49
4843.49
4844.15
4844.15
4844.99
4845.03
4845.98
4846.17
4847.2
4847.49
4848.64
4848.98
4850.35
4850.6
4852.61
4853.19
4895.84
5018.11
63145.7
8258.26
7560.04
7010.31
6593.53
6279.84
6041.66
5857.01
5711.45
5594.1
5498.45
5418.87
5352.4
5295.73
5247.54
5205.63
5169.55
5137.62
5109.9
5084.99
5063.23
5043.4
5026.03
5009.98
4995.9
4982.74
4971.21
4960.27
4950.7
4941.53
4933.55
4925.77
4919.06
4912.42
4906.73
4901.04
4896.23
4891.31
4887.19
4882.92
4879.42
4875.72
4872.65
4869.47
4866.88
4864.03
4861.78
4859.29
4857.39
4855.29
4853.67
4851.93
4850.53
4848.86
4847.61
4846.33
4845.16
4844.03
4843.07
4842.27
4841.58
4840.82
4840.17
4839.68
4839.12
4838.52
4838.16
4837.82
4837.64
4837.3
4837.09
4836.65
4836.5
4836.16
4836.26
4836.21
4836.47
4836.47
4836.9
4836.9
4837.54
4837.54
4838.37
4838.4
4839.35
4839.53
4840.55
4840.84
4841.98
4842.31
4843.68
4843.92
4845.93
4846.52
4890.57
5012.13
59943
8258.32
7560.15
7010.08
6592.71
6278.34
6039.51
5854.28
5708.23
5590.46
5494.45
5414.55
5347.82
5290.91
5242.52
5200.43
5164.19
5132.13
5104.27
5079.25
5057.39
5037.48
5020.03
5003.9
4989.75
4976.53
4964.94
4953.95
4944.33
4935.11
4927.09
4919.28
4912.53
4905.86
4900.14
4894.42
4889.59
4884.64
4880.49
4876.2
4872.69
4868.96
4865.87
4862.68
4860.07
4857.21
4854.94
4852.43
4850.53
4848.41
4846.77
4845.02
4843.61
4841.93
4840.67
4839.39
4838.2
4837.06
4836.09
4835.29
4834.59
4833.82
4833.16
4832.67
4832.1
4831.49
4831.13
4830.78
4830.59
4830.25
4830.03
4829.59
4829.44
4829.09
4829.18
4829.12
4829.37
4829.36
4829.78
4829.78
4830.41
4830.41
4831.22
4831.25
4832.19
4832.36
4833.37
4833.65
4834.79
4835.12
4836.48
4836.71
4838.72
4839.31
4884.9
5005.7
56824
8258.39
7560.27
7009.85
6591.83
6276.73
6037.21
5851.37
5704.78
5586.55
5490.15
5409.93
5342.9
5285.74
5237.13
5194.85
5158.44
5126.22
5098.24
5073.1
5051.13
5031.12
5013.58
4997.37
4983.15
4969.86
4958.21
4947.16
4937.49
4928.23
4920.16
4912.3
4905.52
4898.81
4893.06
4887.31
4882.45
4877.47
4873.3
4868.98
4865.45
4861.7
4858.59
4855.38
4852.75
4849.87
4847.59
4845.07
4843.14
4841.01
4839.36
4837.6
4836.17
4834.49
4833.22
4831.92
4830.73
4829.58
4828.6
4827.78
4827.07
4826.3
4825.63
4825.12
4824.56
4823.94
4823.57
4823.21
4823.01
4822.66
4822.45
4822.01
4821.85
4821.49
4821.57
4821.51
4821.73
4821.73
4822.13
4822.13
4822.74
4822.74
4823.54
4823.56
4824.49
4824.66
4825.66
4825.93
4827.06
4827.38
4828.74
4828.96
4830.97
4831.57
4878.81
4998.81
53793.2
8258.46
7560.39
7009.6
6590.91
6275.03
6034.77
5848.27
5701.11
5582.39
5485.57
5404.99
5337.65
5280.22
5231.38
5188.89
5152.3
5119.92
5091.79
5066.52
5044.43
5024.31
5006.68
4990.39
4976.09
4962.72
4951.01
4939.9
4930.18
4920.86
4912.75
4904.84
4898.02
4891.27
4885.49
4879.69
4874.81
4869.8
4865.6
4861.26
4857.7
4853.93
4850.8
4847.56
4844.92
4842.02
4839.72
4837.18
4835.24
4833.09
4831.43
4829.65
4828.21
4826.52
4825.23
4823.92
4822.72
4821.56
4820.57
4819.74
4819.02
4818.24
4817.56
4817.05
4816.48
4815.85
4815.48
4815.1
4814.9
4814.55
4814.33
4813.88
4813.72
4813.36
4813.42
4813.35
4813.56
4813.56
4813.94
4813.94
4814.53
4814.53
4815.31
4815.33
4816.25
4816.41
4817.4
4817.67
4818.79
4819.1
4820.45
4820.67
4822.67
4823.28
4872.28
4991.44
50854.8
8258.53
7560.53
7009.34
6589.93
6273.24
6032.18
5844.98
5697.21
5577.97
5480.7
5399.73
5332.06
5274.34
5225.25
5182.53
5145.75
5113.2
5084.91
5059.5
5037.29
5017.06
4999.33
4982.94
4968.56
4955.12
4943.34
4932.16
4922.37
4913
4904.84
4896.88
4890.02
4883.23
4877.41
4871.58
4866.66
4861.62
4857.39
4853.02
4849.43
4845.64
4842.49
4839.22
4836.56
4833.64
4831.33
4828.77
4826.81
4824.65
4822.97
4821.17
4819.72
4818.01
4816.72
4815.39
4814.18
4813.01
4812.01
4811.16
4810.44
4809.65
4808.96
4808.43
4807.86
4807.22
4806.84
4806.45
4806.25
4805.89
4805.67
4805.22
4805.05
4804.68
4804.73
4804.64
4804.84
4804.83
4805.2
4805.2
4805.77
4805.77
4806.54
4806.55
4807.46
4807.6
4808.59
4808.85
4809.96
4810.27
4811.6
4811.81
4813.82
4814.44
4865.31
4983.6
48012.5
8258.61
7560.68
7009.08
6588.91
6271.35
6029.46
5841.5
5693.09
5573.28
5475.54
5394.16
5326.14
5268.1
5218.75
5175.79
5138.8
5106.06
5077.61
5052.05
5029.71
5009.36
4991.52
4975.03
4960.56
4947.03
4935.18
4923.93
4914.08
4904.64
4896.43
4888.42
4881.51
4874.67
4868.81
4862.95
4857.99
4852.92
4848.66
4844.26
4840.64
4836.82
4833.65
4830.36
4827.68
4824.74
4822.4
4819.82
4817.85
4815.66
4813.96
4812.15
4810.69
4808.97
4807.66
4806.32
4805.1
4803.92
4802.9
4802.04
4801.3
4800.5
4799.81
4799.27
4798.69
4798.04
4797.65
4797.25
4797.04
4796.67
4796.45
4796
4795.83
4795.45
4795.48
4795.39
4795.57
4795.55
4795.9
4795.9
4796.45
4796.45
4797.2
4797.21
4798.1
4798.24
4799.22
4799.46
4800.56
4800.86
4802.19
4802.39
4804.4
4805.03
4857.88
4975.27
45269.7
8258.69
7560.83
7008.8
6587.84
6269.36
6026.58
5837.84
5688.73
5568.34
5470.09
5388.27
5319.87
5261.51
5211.86
5168.66
5131.45
5098.5
5069.88
5044.16
5021.68
5001.19
4983.24
4966.65
4952.08
4938.46
4926.53
4915.2
4905.29
4895.79
4887.52
4879.46
4872.49
4865.61
4859.71
4853.79
4848.8
4843.69
4839.4
4834.96
4831.32
4827.47
4824.27
4820.96
4818.25
4815.29
4812.93
4810.33
4808.34
4806.13
4804.42
4802.59
4801.11
4799.38
4798.05
4796.7
4795.47
4794.27
4793.24
4792.36
4791.62
4790.8
4790.1
4789.54
4788.96
4788.31
4787.91
4787.49
4787.28
4786.9
4786.67
4786.22
4786.04
4785.66
4785.67
4785.56
4785.73
4785.71
4786.03
4786.03
4786.56
4786.56
4787.29
4787.3
4788.18
4788.3
4789.28
4789.51
4790.6
4790.89
4792.2
4792.4
4794.4
4795.05
4849.98
4966.43
42629.6
8258.77
7560.99
7008.52
6586.73
6267.28
6023.57
5833.99
5684.15
5563.13
5464.35
5382.06
5313.26
5254.55
5204.6
5161.12
5123.68
5090.52
5061.71
5035.82
5013.19
4992.57
4974.49
4957.78
4943.11
4929.4
4917.38
4905.98
4896
4886.42
4878.09
4869.97
4862.96
4856.02
4850.07
4844.12
4839.08
4833.93
4829.61
4825.14
4821.46
4817.58
4814.36
4811.01
4808.28
4805.29
4802.91
4800.29
4798.28
4796.05
4794.32
4792.47
4790.97
4789.23
4787.88
4786.51
4785.27
4784.06
4783.02
4782.12
4781.37
4780.54
4779.83
4779.26
4778.67
4778
4777.59
4777.17
4776.94
4776.55
4776.33
4775.87
4775.69
4775.31
4775.3
4775.17
4775.32
4775.3
4775.6
4775.6
4776.1
4776.1
4776.81
4776.81
4777.68
4777.79
4778.75
4778.98
4780.06
4780.34
4781.64
4781.82
4783.83
4784.49
4841.59
4957.09
40094.8
8258.85
7561.17
7008.23
6585.57
6265.11
6020.42
5829.95
5679.35
5557.66
5458.31
5375.53
5306.31
5247.22
5196.95
5153.19
5115.49
5082.11
5053.11
5027.04
5004.25
4983.48
4965.27
4948.44
4933.66
4919.85
4907.74
4896.25
4886.19
4876.55
4868.15
4859.97
4852.9
4845.91
4839.91
4833.9
4828.83
4823.64
4819.28
4814.77
4811.06
4807.14
4803.89
4800.51
4797.76
4794.74
4792.34
4789.7
4787.66
4785.41
4783.66
4781.79
4780.28
4778.51
4777.15
4775.77
4774.51
4773.28
4772.23
4771.31
4770.55
4769.71
4768.98
4768.4
4767.81
4767.13
4766.71
4766.27
4766.04
4765.64
4765.41
4764.94
4764.75
4764.37
4764.35
4764.2
4764.34
4764.3
4764.58
4764.58
4765.06
4765.05
4765.74
4765.74
4766.6
4766.7
4767.65
4767.86
4768.93
4769.2
4770.49
4770.66
4772.66
4773.35
4832.69
4947.22
37667.6
8258.94
7561.35
7007.94
6584.37
6262.86
6017.13
5825.73
5674.32
5551.93
5451.98
5368.68
5299.01
5239.53
5188.92
5144.86
5106.89
5073.28
5044.06
5017.8
4994.84
4973.92
4955.57
4938.61
4923.72
4909.8
4897.6
4886.02
4875.87
4866.15
4857.69
4849.44
4842.31
4835.26
4829.21
4823.15
4818.03
4812.8
4808.4
4803.85
4800.1
4796.16
4792.87
4789.46
4786.68
4783.64
4781.21
4778.54
4776.48
4774.21
4772.43
4770.54
4769.01
4767.23
4765.85
4764.45
4763.18
4761.93
4760.87
4759.93
4759.15
4758.3
4757.56
4756.96
4756.36
4755.67
4755.24
4754.79
4754.54
4754.13
4753.9
4753.43
4753.24
4752.85
4752.81
4752.65
4752.76
4752.72
4752.98
4752.97
4753.43
4753.42
4754.08
4754.08
4754.92
4755.01
4755.94
4756.14
4757.2
4757.46
4758.74
4758.9
4760.9
4761.61
4823.25
4936.82
35350.3
8259.03
7561.54
7007.65
6583.13
6260.51
6013.71
5821.33
5669.06
5545.94
5445.35
5361.51
5291.36
5231.47
5180.5
5136.12
5097.87
5064
5034.57
5008.1
4984.97
4963.88
4945.39
4928.29
4913.28
4899.25
4886.94
4875.26
4865.04
4855.23
4846.69
4838.37
4831.18
4824.07
4817.97
4811.86
4806.69
4801.41
4796.97
4792.37
4788.59
4784.61
4781.29
4777.84
4775.03
4771.96
4769.51
4766.81
4764.73
4762.43
4760.63
4758.71
4757.17
4755.37
4753.97
4752.55
4751.27
4750
4748.92
4747.96
4747.17
4746.31
4745.56
4744.93
4744.33
4743.63
4743.19
4742.72
4742.46
4742.04
4741.8
4741.32
4741.13
4740.74
4740.68
4740.5
4740.6
4740.55
4740.78
4740.77
4741.2
4741.19
4741.83
4741.83
4742.64
4742.72
4743.64
4743.83
4744.87
4745.12
4746.38
4746.54
4748.54
4749.27
4813.24
4925.85
33144.4
8259.11
7561.75
7007.35
6581.86
6258.09
6010.15
5816.75
5663.59
5539.69
5438.44
5354.01
5283.37
5223.04
5171.69
5126.97
5088.43
5054.3
5024.63
4997.95
4974.62
4953.36
4934.71
4917.48
4902.34
4888.18
4875.77
4863.99
4853.68
4843.78
4835.17
4826.77
4819.51
4812.34
4806.18
4800.01
4794.79
4789.46
4784.97
4780.34
4776.52
4772.49
4769.14
4765.66
4762.82
4759.72
4757.24
4754.51
4752.4
4750.07
4748.25
4746.31
4744.74
4742.93
4741.51
4740.06
4738.77
4737.49
4736.39
4735.41
4734.6
4733.72
4732.96
4732.32
4731.71
4730.99
4730.54
4730.05
4729.79
4729.35
4729.11
4728.62
4728.42
4728.03
4727.96
4727.75
4727.84
4727.77
4727.98
4727.97
4728.36
4728.36
4728.97
4728.97
4729.76
4729.82
4730.73
4730.9
4731.94
4732.18
4733.42
4733.56
4735.57
4736.32
4802.62
4914.28
31051.5
8259.2
7561.96
7007.05
6580.55
6255.58
6006.47
5811.99
5657.89
5533.18
5431.23
5346.2
5275.03
5214.24
5162.49
5117.42
5078.57
5044.15
5014.23
4987.33
4963.81
4942.36
4923.55
4906.16
4890.89
4876.61
4864.08
4852.2
4841.79
4831.8
4823.11
4814.63
4807.3
4800.06
4793.84
4787.61
4782.34
4776.95
4772.42
4767.73
4763.87
4759.81
4756.42
4752.9
4750.03
4746.89
4744.38
4741.63
4739.48
4737.13
4735.29
4733.31
4731.73
4729.89
4728.45
4726.99
4725.68
4724.38
4723.26
4722.26
4721.43
4720.54
4719.76
4719.1
4718.48
4717.75
4717.29
4716.78
4716.51
4716.06
4715.81
4715.32
4715.11
4714.71
4714.63
4714.4
4714.47
4714.39
4714.58
4714.56
4714.92
4714.92
4715.49
4715.49
4716.26
4716.32
4717.21
4717.37
4718.38
4718.61
4719.84
4719.97
4721.97
4722.75
4791.34
4902.08
29072.9
8259.3
7562.18
7006.75
6579.21
6252.99
6002.65
5807.06
5651.98
5526.42
5423.73
5338.06
5266.34
5205.07
5152.9
5107.45
5068.28
5033.57
5003.39
4976.25
4952.52
4930.88
4911.9
4894.35
4878.94
4864.52
4851.87
4839.88
4829.36
4819.28
4810.5
4801.94
4794.54
4787.22
4780.94
4774.65
4769.32
4763.88
4759.3
4754.56
4750.65
4746.55
4743.12
4739.56
4736.65
4733.48
4730.94
4728.15
4725.98
4723.6
4721.73
4719.73
4718.12
4716.26
4714.8
4713.31
4711.99
4710.66
4709.53
4708.5
4707.66
4706.75
4705.96
4705.28
4704.65
4703.91
4703.43
4702.9
4702.62
4702.16
4701.91
4701.4
4701.19
4700.78
4700.68
4700.44
4700.49
4700.39
4700.56
4700.53
4700.87
4700.86
4701.4
4701.4
4702.15
4702.19
4703.07
4703.21
4704.21
4704.43
4705.64
4705.75
4707.75
4708.56
4779.36
4889.19
27209.7
8259.39
7562.41
7006.45
6577.83
6250.33
5998.71
5801.95
5645.85
5519.4
5415.94
5329.61
5257.31
5195.54
5142.92
5097.08
5057.56
5022.54
4992.09
4964.7
4940.75
4918.91
4899.75
4882.03
4866.47
4851.91
4839.14
4827.02
4816.41
4806.22
4797.35
4788.7
4781.22
4773.83
4767.48
4761.12
4755.73
4750.23
4745.6
4740.81
4736.86
4732.7
4729.24
4725.63
4722.69
4719.48
4716.91
4714.09
4711.89
4709.48
4707.58
4705.54
4703.92
4702.03
4700.55
4699.04
4697.69
4696.35
4695.2
4694.14
4693.28
4692.35
4691.55
4690.84
4690.21
4689.45
4688.96
4688.41
4688.12
4687.64
4687.38
4686.87
4686.65
4686.23
4686.12
4685.87
4685.89
4685.78
4685.92
4685.88
4686.18
4686.18
4686.69
4686.69
4687.41
4687.44
4688.29
4688.42
4689.41
4689.61
4690.8
4690.91
4692.91
4693.74
4766.62
4875.58
25462.9
8259.48
7562.65
7006.15
6576.43
6247.6
5994.66
5796.68
5639.51
5512.13
5407.87
5320.83
5247.94
5185.63
5132.55
5086.3
5046.42
5011.07
4980.34
4952.69
4928.5
4906.45
4887.1
4869.21
4853.49
4838.78
4825.88
4813.64
4802.91
4792.62
4783.65
4774.91
4767.35
4759.87
4753.45
4747.02
4741.57
4736.01
4731.32
4726.48
4722.48
4718.28
4714.77
4711.12
4708.14
4704.89
4702.29
4699.43
4697.2
4694.75
4692.82
4690.76
4689.1
4687.2
4685.69
4684.15
4682.79
4681.42
4680.25
4679.17
4678.29
4677.34
4676.52
4675.79
4675.15
4674.37
4673.87
4673.3
4672.99
4672.5
4672.24
4671.71
4671.48
4671.06
4670.94
4670.67
4670.67
4670.54
4670.66
4670.61
4670.88
4670.87
4671.34
4671.34
4672.03
4672.05
4672.89
4673
4673.97
4674.16
4675.33
4675.42
4677.42
4678.28
4753.06
4861.21
23833.2
8259.57
7562.91
7005.85
6575.01
6244.79
5990.48
5791.25
5632.96
5504.61
5399.51
5311.75
5238.22
5175.35
5121.8
5075.11
5034.85
4999.17
4968.13
4940.21
4915.78
4893.5
4873.95
4855.87
4839.99
4825.13
4812.09
4799.71
4788.87
4778.46
4769.4
4760.56
4752.91
4745.35
4738.86
4732.35
4726.84
4721.21
4716.47
4711.57
4707.51
4703.26
4699.71
4696.01
4692.99
4689.7
4687.06
4684.17
4681.9
4679.42
4677.46
4675.36
4673.68
4671.75
4670.22
4668.65
4667.27
4665.88
4664.69
4663.58
4662.68
4661.71
4660.88
4660.12
4659.47
4658.67
4658.15
4657.57
4657.25
4656.74
4656.46
4655.93
4655.69
4655.26
4655.13
4654.84
4654.82
4654.67
4654.76
4654.7
4654.94
4654.93
4655.36
4655.36
4656.02
4656.03
4656.85
4656.94
4657.89
4658.07
4659.22
4659.3
4661.29
4662.18
4738.69
4846.04
22318.2
8259.67
7563.17
7005.56
6573.56
6241.93
5986.2
5785.65
5626.21
5496.84
5390.87
5302.35
5228.16
5164.71
5110.65
5063.51
5022.86
4986.81
4955.46
4927.25
4902.57
4880.06
4860.3
4842.03
4825.97
4810.95
4797.76
4785.25
4774.28
4763.76
4754.59
4745.65
4737.91
4730.26
4723.69
4717.11
4711.52
4705.83
4701.03
4696.06
4691.96
4687.65
4684.05
4680.3
4677.24
4673.91
4671.23
4668.3
4666
4663.48
4661.48
4659.35
4657.65
4655.69
4654.13
4652.53
4651.13
4649.71
4648.51
4647.36
4646.45
4645.45
4644.6
4643.82
4643.16
4642.35
4641.81
4641.2
4640.86
4640.34
4640.06
4639.51
4639.27
4638.82
4638.68
4638.38
4638.33
4638.16
4638.24
4638.15
4638.37
4638.35
4638.74
4638.74
4639.36
4639.37
4640.16
4640.24
4641.17
4641.33
4642.46
4642.53
4644.52
4645.43
4723.48
4830.03
20913
8259.76
7563.44
7005.28
6572.09
6239
5981.8
5779.9
5619.26
5488.84
5381.96
5292.64
5217.76
5153.71
5099.11
5051.51
5010.44
4974.02
4942.34
4913.83
4888.88
4866.12
4846.15
4827.67
4811.43
4796.24
4782.9
4770.25
4759.15
4748.5
4739.22
4730.18
4722.35
4714.6
4707.95
4701.28
4695.63
4689.86
4684.99
4679.97
4675.8
4671.44
4667.79
4663.99
4660.89
4657.51
4654.8
4651.82
4649.48
4646.93
4644.9
4642.73
4640.99
4639.01
4637.42
4635.79
4634.37
4632.92
4631.7
4630.52
4629.59
4628.57
4627.7
4626.89
4626.22
4625.38
4624.83
4624.2
4623.85
4623.31
4623.01
4622.46
4622.2
4621.75
4621.59
4621.28
4621.21
4621.02
4621.07
4620.97
4621.15
4621.12
4621.48
4621.48
4622.06
4622.06
4622.82
4622.89
4623.8
4623.94
4625.05
4625.11
4627.09
4628.03
4707.43
4813.13
19612.7
8259.85
7563.72
7005
6570.6
6236.02
5977.31
5774
5612.11
5480.6
5372.77
5282.62
5207.03
5142.34
5087.2
5039.1
4997.6
4960.79
4928.76
4899.94
4874.71
4851.7
4831.49
4812.81
4796.38
4781
4767.51
4754.7
4743.47
4732.69
4723.3
4714.14
4706.21
4698.37
4691.63
4684.88
4679.15
4673.3
4668.37
4663.28
4659.06
4654.63
4650.94
4647.08
4643.93
4640.5
4637.75
4634.73
4632.35
4629.76
4627.69
4625.48
4623.72
4621.7
4620.08
4618.43
4616.99
4615.51
4614.26
4613.05
4612.09
4611.05
4610.17
4609.33
4608.64
4607.79
4607.22
4606.56
4606.2
4605.63
4605.33
4604.76
4604.49
4604.03
4603.86
4603.53
4603.45
4603.24
4603.26
4603.14
4603.29
4603.25
4603.57
4603.56
4604.11
4604.11
4604.84
4604.89
4605.77
4605.9
4606.98
4607.03
4609.01
4609.96
4690.54
4795.32
18412.2
8259.94
7564.01
7004.73
6569.11
6232.99
5972.72
5767.96
5604.78
5472.13
5363.32
5272.31
5195.97
5130.62
5074.9
5026.29
4984.33
4947.12
4914.74
4885.58
4860.07
4836.78
4816.34
4797.43
4780.8
4765.24
4751.58
4738.61
4727.24
4716.33
4706.81
4697.54
4689.5
4681.56
4674.73
4667.89
4662.08
4656.16
4651.16
4645.99
4641.71
4637.22
4633.47
4629.56
4626.36
4622.89
4620.09
4617.02
4614.6
4611.97
4609.86
4607.62
4605.82
4603.77
4602.12
4600.44
4598.97
4597.46
4596.19
4594.95
4593.97
4592.9
4591.99
4591.12
4590.42
4589.55
4588.96
4588.28
4587.9
4587.32
4587
4586.42
4586.14
4585.66
4585.48
4585.14
4585.04
4584.81
4584.8
4584.66
4584.78
4584.73
4585.01
4585
4585.5
4585.49
4586.19
4586.23
4587.09
4587.21
4588.26
4588.29
4590.27
4591.24
4672.79
4776.55
17306.1
8260.03
7564.31
7004.47
6567.6
6229.91
5968.03
5761.78
5597.26
5463.44
5353.6
5261.7
5184.58
5118.55
5062.23
5013.08
4970.65
4933.02
4900.26
4870.76
4844.94
4821.37
4800.68
4781.54
4764.71
4748.95
4735.12
4721.98
4710.47
4699.41
4689.77
4680.37
4672.23
4664.18
4657.26
4650.32
4644.42
4638.42
4633.35
4628.11
4623.76
4619.21
4615.4
4611.43
4608.18
4604.65
4601.81
4598.7
4596.24
4593.56
4591.42
4589.12
4587.29
4585.21
4583.53
4581.81
4580.32
4578.78
4577.48
4576.21
4575.2
4574.11
4573.18
4572.28
4571.56
4570.67
4570.07
4569.36
4568.96
4568.35
4568.02
4567.43
4567.14
4566.65
4566.45
4566.09
4565.97
4565.73
4565.69
4565.53
4565.62
4565.55
4565.79
4565.78
4566.23
4566.23
4566.89
4566.91
4567.75
4567.85
4568.86
4568.89
4570.86
4571.84
4654.18
4756.79
16288.7
8260.12
7564.61
7004.22
6566.08
6226.79
5963.26
5755.46
5589.57
5454.53
5343.63
5250.8
5172.87
5106.12
5049.18
4999.47
4956.56
4918.48
4885.33
4855.48
4829.34
4805.48
4784.53
4765.14
4748.09
4732.13
4718.12
4704.81
4693.14
4681.93
4672.16
4662.63
4654.38
4646.22
4639.2
4632.16
4626.18
4620.09
4614.94
4609.63
4605.21
4600.59
4596.73
4592.69
4589.38
4585.81
4582.91
4579.75
4577.25
4574.52
4572.34
4570
4568.14
4566.03
4564.31
4562.55
4561.03
4559.46
4558.14
4556.83
4555.8
4554.67
4553.73
4552.79
4552.06
4551.14
4550.52
4549.78
4549.37
4548.74
4548.4
4547.79
4547.48
4546.98
4546.77
4546.39
4546.26
4545.99
4545.93
4545.74
4545.81
4545.72
4545.92
4545.9
4546.3
4546.3
4546.92
4546.93
4547.74
4547.82
4548.81
4548.83
4550.78
4551.78
4634.69
4736
15354.2
8260.2
7564.93
7003.99
6564.57
6223.63
5958.41
5749.02
5581.7
5445.4
5333.41
5239.61
5160.84
5093.36
5035.76
4985.48
4942.05
4903.51
4869.95
4839.73
4813.26
4789.1
4767.88
4748.24
4730.96
4714.79
4700.58
4687.1
4675.27
4663.9
4654
4644.33
4635.96
4627.68
4620.56
4613.42
4607.35
4601.17
4595.94
4590.55
4586.06
4581.37
4577.44
4573.34
4569.98
4566.34
4563.4
4560.19
4557.64
4554.86