/*--------------------------------*- C++ -*----------------------------------*\
| =========                 |                                                 |
| \\      /  F ield         | OpenFOAM: The Open Source CFD Toolbox           |
|  \\    /   O peration     | Version:  v2012                                 |
|   \\  /    A nd           | Website:  www.openfoam.com                      |
|    \\/     M anipulation  |                                                 |
\*---------------------------------------------------------------------------*/
FoamFile
{
    version     2.0;
    format      ascii;
    class       volVectorField;
    location    "29";
    object      wallShearStress;
}
// * * * * * * * * * * * * * * * * * * * * * * * * * * * * * * * * * * * * * //

dimensions      [0 2 -2 0 0 0 0];


internalField   uniform (0 0 0);

boundaryField
{
    inlet
    {
        type            calculated;
        value           uniform (0 0 0);
    }
    outlet
    {
        type            calculated;
        value           uniform (0 0 0);
    }
    topWall
    {
        type            calculated;
        value           nonuniform List<vector> 
545
(
(3.64867e-08 -2.56825e-08 0)
(3.64761e-08 -7.18494e-08 0)
(3.6453e-08 -1.19852e-07 0)
(3.64226e-08 -1.66464e-07 0)
(3.63852e-08 -2.11089e-07 0)
(3.6341e-08 -2.54302e-07 0)
(3.62906e-08 -2.96468e-07 0)
(3.62344e-08 -3.3757e-07 0)
(3.61728e-08 -3.77516e-07 0)
(3.61064e-08 -4.16305e-07 0)
(3.60356e-08 -4.5399e-07 0)
(3.59608e-08 -4.90613e-07 0)
(3.58825e-08 -5.26198e-07 0)
(3.5801e-08 -5.60768e-07 0)
(3.57166e-08 -5.94347e-07 0)
(3.56297e-08 -6.26961e-07 0)
(3.55406e-08 -6.58637e-07 0)
(3.54495e-08 -6.89399e-07 0)
(3.53568e-08 -7.19273e-07 0)
(3.52627e-08 -7.48282e-07 0)
(3.51674e-08 -7.7645e-07 0)
(3.50711e-08 -8.038e-07 0)
(3.49741e-08 -8.30356e-07 0)
(3.48766e-08 -8.5614e-07 0)
(3.47786e-08 -8.81174e-07 0)
(3.46804e-08 -9.05478e-07 0)
(3.45822e-08 -9.29075e-07 0)
(3.4484e-08 -9.51985e-07 0)
(3.4386e-08 -9.74227e-07 0)
(3.42883e-08 -9.95821e-07 0)
(3.41911e-08 -1.01679e-06 0)
(3.40944e-08 -1.03714e-06 0)
(3.39984e-08 -1.0569e-06 0)
(3.3903e-08 -1.07609e-06 0)
(3.38085e-08 -1.09472e-06 0)
(3.37148e-08 -1.1128e-06 0)
(3.3622e-08 -1.13036e-06 0)
(3.35302e-08 -1.14741e-06 0)
(3.34395e-08 -1.16397e-06 0)
(3.33498e-08 -1.18005e-06 0)
(3.32613e-08 -1.19566e-06 0)
(3.31739e-08 -1.21082e-06 0)
(3.30877e-08 -1.22554e-06 0)
(3.30028e-08 -1.23983e-06 0)
(3.29191e-08 -1.25371e-06 0)
(3.28366e-08 -1.2672e-06 0)
(3.27554e-08 -1.28029e-06 0)
(3.26756e-08 -1.29301e-06 0)
(3.2597e-08 -1.30536e-06 0)
(3.25198e-08 -1.31736e-06 0)
(3.24438e-08 -1.32901e-06 0)
(3.23692e-08 -1.34034e-06 0)
(3.2296e-08 -1.35133e-06 0)
(3.2224e-08 -1.36202e-06 0)
(3.21534e-08 -1.37239e-06 0)
(3.20841e-08 -1.38248e-06 0)
(3.20161e-08 -1.39227e-06 0)
(3.19494e-08 -1.40179e-06 0)
(3.1884e-08 -1.41104e-06 0)
(3.18198e-08 -1.42002e-06 0)
(3.1757e-08 -1.42875e-06 0)
(3.16954e-08 -1.43724e-06 0)
(3.1635e-08 -1.44548e-06 0)
(3.15759e-08 -1.4535e-06 0)
(3.1518e-08 -1.46128e-06 0)
(3.14613e-08 -1.46885e-06 0)
(3.14058e-08 -1.4762e-06 0)
(3.13515e-08 -1.48335e-06 0)
(3.12983e-08 -1.4903e-06 0)
(3.12462e-08 -1.49705e-06 0)
(3.11953e-08 -1.50362e-06 0)
(3.11454e-08 -1.50999e-06 0)
(3.10971e-08 -1.51612e-06 0)
(3.10501e-08 -1.52207e-06 0)
(3.10035e-08 -1.52796e-06 0)
(3.0957e-08 -1.53381e-06 0)
(3.09106e-08 -1.53964e-06 0)
(3.08642e-08 -1.54544e-06 0)
(3.08179e-08 -1.5512e-06 0)
(3.07716e-08 -1.55692e-06 0)
(3.07253e-08 -1.56261e-06 0)
(3.06791e-08 -1.56826e-06 0)
(3.06329e-08 -1.57388e-06 0)
(3.05868e-08 -1.57946e-06 0)
(3.05407e-08 -1.58501e-06 0)
(3.04947e-08 -1.59053e-06 0)
(3.04487e-08 -1.59601e-06 0)
(3.04028e-08 -1.60147e-06 0)
(3.03569e-08 -1.60688e-06 0)
(3.03111e-08 -1.61227e-06 0)
(3.02654e-08 -1.61762e-06 0)
(3.02197e-08 -1.62294e-06 0)
(3.01741e-08 -1.62823e-06 0)
(3.01284e-08 -1.63348e-06 0)
(3.00831e-08 -1.63872e-06 0)
(3.00369e-08 -1.64385e-06 0)
(2.99932e-08 -1.64856e-06 0)
(2.99544e-08 -1.65284e-06 0)
(2.99169e-08 -1.65699e-06 0)
(2.98796e-08 -1.66116e-06 0)
(2.98421e-08 -1.66538e-06 0)
(2.98045e-08 -1.6696e-06 0)
(2.97668e-08 -1.67382e-06 0)
(2.97288e-08 -1.67804e-06 0)
(2.96906e-08 -1.68227e-06 0)
(2.96523e-08 -1.6865e-06 0)
(2.96138e-08 -1.69074e-06 0)
(2.95751e-08 -1.69498e-06 0)
(2.95362e-08 -1.69922e-06 0)
(2.94972e-08 -1.70347e-06 0)
(2.94579e-08 -1.70773e-06 0)
(2.94185e-08 -1.71199e-06 0)
(2.93789e-08 -1.71625e-06 0)
(2.93391e-08 -1.72052e-06 0)
(2.92991e-08 -1.72479e-06 0)
(2.92589e-08 -1.72906e-06 0)
(2.92185e-08 -1.73334e-06 0)
(2.91779e-08 -1.73763e-06 0)
(2.91372e-08 -1.74191e-06 0)
(2.90962e-08 -1.74621e-06 0)
(2.90551e-08 -1.7505e-06 0)
(2.90138e-08 -1.7548e-06 0)
(2.89723e-08 -1.75911e-06 0)
(2.89306e-08 -1.76341e-06 0)
(2.88886e-08 -1.76773e-06 0)
(2.88466e-08 -1.77204e-06 0)
(2.88043e-08 -1.77636e-06 0)
(2.87618e-08 -1.78069e-06 0)
(2.87191e-08 -1.78501e-06 0)
(2.86762e-08 -1.78934e-06 0)
(2.86331e-08 -1.79368e-06 0)
(2.85899e-08 -1.79802e-06 0)
(2.85464e-08 -1.80236e-06 0)
(2.85027e-08 -1.80671e-06 0)
(2.84588e-08 -1.81106e-06 0)
(2.84148e-08 -1.81541e-06 0)
(2.83705e-08 -1.81977e-06 0)
(2.8326e-08 -1.82412e-06 0)
(2.82814e-08 -1.82849e-06 0)
(2.82365e-08 -1.83285e-06 0)
(2.81914e-08 -1.83722e-06 0)
(2.81462e-08 -1.8416e-06 0)
(2.81007e-08 -1.84597e-06 0)
(2.8055e-08 -1.85035e-06 0)
(2.80091e-08 -1.85474e-06 0)
(2.7963e-08 -1.85912e-06 0)
(2.79167e-08 -1.86351e-06 0)
(2.78702e-08 -1.8679e-06 0)
(2.78235e-08 -1.8723e-06 0)
(2.77766e-08 -1.8767e-06 0)
(2.77295e-08 -1.8811e-06 0)
(2.76822e-08 -1.8855e-06 0)
(2.76347e-08 -1.88991e-06 0)
(2.75869e-08 -1.89432e-06 0)
(2.7539e-08 -1.89873e-06 0)
(2.74908e-08 -1.90315e-06 0)
(2.74425e-08 -1.90756e-06 0)
(2.73939e-08 -1.91198e-06 0)
(2.73451e-08 -1.91641e-06 0)
(2.72961e-08 -1.92083e-06 0)
(2.72469e-08 -1.92526e-06 0)
(2.71975e-08 -1.92969e-06 0)
(2.71479e-08 -1.93412e-06 0)
(2.7098e-08 -1.93856e-06 0)
(2.7048e-08 -1.943e-06 0)
(2.69977e-08 -1.94743e-06 0)
(2.69473e-08 -1.95188e-06 0)
(2.68966e-08 -1.95632e-06 0)
(2.68457e-08 -1.96077e-06 0)
(2.67945e-08 -1.96521e-06 0)
(2.67432e-08 -1.96966e-06 0)
(2.66917e-08 -1.97411e-06 0)
(2.66399e-08 -1.97857e-06 0)
(2.65879e-08 -1.98302e-06 0)
(2.65357e-08 -1.98748e-06 0)
(2.64833e-08 -1.99194e-06 0)
(2.64307e-08 -1.9964e-06 0)
(2.63779e-08 -2.00086e-06 0)
(2.63248e-08 -2.00533e-06 0)
(2.62715e-08 -2.00979e-06 0)
(2.6218e-08 -2.01426e-06 0)
(2.61643e-08 -2.01873e-06 0)
(2.61104e-08 -2.0232e-06 0)
(2.60562e-08 -2.02767e-06 0)
(2.60019e-08 -2.03214e-06 0)
(2.59473e-08 -2.03661e-06 0)
(2.58925e-08 -2.04108e-06 0)
(2.58375e-08 -2.04556e-06 0)
(2.57822e-08 -2.05004e-06 0)
(2.57268e-08 -2.05451e-06 0)
(2.56711e-08 -2.05899e-06 0)
(2.56152e-08 -2.06347e-06 0)
(2.55591e-08 -2.06795e-06 0)
(2.55027e-08 -2.07243e-06 0)
(2.54462e-08 -2.07691e-06 0)
(2.53894e-08 -2.08139e-06 0)
(2.53324e-08 -2.08587e-06 0)
(2.52751e-08 -2.09036e-06 0)
(2.52177e-08 -2.09484e-06 0)
(2.516e-08 -2.09932e-06 0)
(2.51021e-08 -2.10381e-06 0)
(2.5044e-08 -2.10829e-06 0)
(2.49857e-08 -2.11277e-06 0)
(2.49272e-08 -2.11726e-06 0)
(2.48684e-08 -2.12174e-06 0)
(2.48094e-08 -2.12622e-06 0)
(2.47502e-08 -2.13071e-06 0)
(2.46907e-08 -2.13519e-06 0)
(2.46311e-08 -2.13967e-06 0)
(2.45712e-08 -2.14416e-06 0)
(2.45111e-08 -2.14864e-06 0)
(2.44508e-08 -2.15312e-06 0)
(2.43902e-08 -2.1576e-06 0)
(2.43295e-08 -2.16208e-06 0)
(2.42685e-08 -2.16656e-06 0)
(2.42073e-08 -2.17104e-06 0)
(2.41459e-08 -2.17552e-06 0)
(2.40842e-08 -2.18e-06 0)
(2.40223e-08 -2.18448e-06 0)
(2.39603e-08 -2.18895e-06 0)
(2.38979e-08 -2.19343e-06 0)
(2.38354e-08 -2.1979e-06 0)
(2.37727e-08 -2.20237e-06 0)
(2.37097e-08 -2.20684e-06 0)
(2.36465e-08 -2.21131e-06 0)
(2.35831e-08 -2.21578e-06 0)
(2.35194e-08 -2.22025e-06 0)
(2.34556e-08 -2.22471e-06 0)
(2.33915e-08 -2.22918e-06 0)
(2.33272e-08 -2.23364e-06 0)
(2.32627e-08 -2.2381e-06 0)
(2.3198e-08 -2.24256e-06 0)
(2.31331e-08 -2.24701e-06 0)
(2.30679e-08 -2.25147e-06 0)
(2.30025e-08 -2.25592e-06 0)
(2.29369e-08 -2.26037e-06 0)
(2.28711e-08 -2.26482e-06 0)
(2.28051e-08 -2.26926e-06 0)
(2.27388e-08 -2.2737e-06 0)
(2.26724e-08 -2.27814e-06 0)
(2.26057e-08 -2.28258e-06 0)
(2.25388e-08 -2.28702e-06 0)
(2.24717e-08 -2.29145e-06 0)
(2.24043e-08 -2.29588e-06 0)
(2.23368e-08 -2.30031e-06 0)
(2.22691e-08 -2.30473e-06 0)
(2.22011e-08 -2.30915e-06 0)
(2.21329e-08 -2.31357e-06 0)
(2.20645e-08 -2.31798e-06 0)
(2.19959e-08 -2.32239e-06 0)
(2.19271e-08 -2.3268e-06 0)
(2.18581e-08 -2.3312e-06 0)
(2.17889e-08 -2.3356e-06 0)
(2.17194e-08 -2.34e-06 0)
(2.16498e-08 -2.34439e-06 0)
(2.15799e-08 -2.34878e-06 0)
(2.15099e-08 -2.35317e-06 0)
(2.14396e-08 -2.35755e-06 0)
(2.13691e-08 -2.36193e-06 0)
(2.12985e-08 -2.3663e-06 0)
(2.12276e-08 -2.37067e-06 0)
(2.11565e-08 -2.37503e-06 0)
(2.10852e-08 -2.37939e-06 0)
(2.10137e-08 -2.38375e-06 0)
(2.0942e-08 -2.3881e-06 0)
(2.08701e-08 -2.39245e-06 0)
(2.0798e-08 -2.39678e-06 0)
(2.07258e-08 -2.40113e-06 0)
(2.06527e-08 -2.40543e-06 0)
(2.05819e-08 -2.40952e-06 0)
(2.05153e-08 -2.41343e-06 0)
(2.04495e-08 -2.41729e-06 0)
(2.03833e-08 -2.42119e-06 0)
(2.03164e-08 -2.42514e-06 0)
(2.02488e-08 -2.42912e-06 0)
(2.01805e-08 -2.43312e-06 0)
(2.01114e-08 -2.43716e-06 0)
(2.00415e-08 -2.44122e-06 0)
(1.99708e-08 -2.44531e-06 0)
(1.98993e-08 -2.44944e-06 0)
(1.98271e-08 -2.45359e-06 0)
(1.9754e-08 -2.45777e-06 0)
(1.96802e-08 -2.46199e-06 0)
(1.96055e-08 -2.46623e-06 0)
(1.953e-08 -2.4705e-06 0)
(1.94536e-08 -2.4748e-06 0)
(1.93764e-08 -2.47914e-06 0)
(1.92984e-08 -2.4835e-06 0)
(1.92195e-08 -2.48789e-06 0)
(1.91398e-08 -2.49231e-06 0)
(1.90591e-08 -2.49676e-06 0)
(1.89776e-08 -2.50124e-06 0)
(1.88953e-08 -2.50574e-06 0)
(1.8812e-08 -2.51028e-06 0)
(1.87278e-08 -2.51485e-06 0)
(1.86427e-08 -2.51944e-06 0)
(1.85568e-08 -2.52406e-06 0)
(1.84698e-08 -2.52872e-06 0)
(1.8382e-08 -2.5334e-06 0)
(1.82932e-08 -2.53811e-06 0)
(1.82035e-08 -2.54284e-06 0)
(1.81129e-08 -2.54761e-06 0)
(1.80213e-08 -2.5524e-06 0)
(1.79287e-08 -2.55722e-06 0)
(1.78351e-08 -2.56206e-06 0)
(1.77406e-08 -2.56693e-06 0)
(1.76451e-08 -2.57183e-06 0)
(1.75486e-08 -2.57676e-06 0)
(1.74511e-08 -2.58171e-06 0)
(1.73526e-08 -2.58669e-06 0)
(1.72532e-08 -2.59169e-06 0)
(1.71527e-08 -2.59672e-06 0)
(1.70511e-08 -2.60177e-06 0)
(1.69486e-08 -2.60685e-06 0)
(1.6845e-08 -2.61195e-06 0)
(1.67404e-08 -2.61708e-06 0)
(1.66348e-08 -2.62223e-06 0)
(1.65281e-08 -2.6274e-06 0)
(1.64203e-08 -2.63259e-06 0)
(1.63115e-08 -2.63781e-06 0)
(1.62017e-08 -2.64304e-06 0)
(1.60908e-08 -2.6483e-06 0)
(1.59788e-08 -2.65358e-06 0)
(1.58657e-08 -2.65888e-06 0)
(1.57516e-08 -2.6642e-06 0)
(1.56364e-08 -2.66953e-06 0)
(1.55201e-08 -2.67489e-06 0)
(1.54028e-08 -2.68026e-06 0)
(1.52843e-08 -2.68565e-06 0)
(1.51648e-08 -2.69105e-06 0)
(1.50442e-08 -2.69647e-06 0)
(1.49225e-08 -2.70191e-06 0)
(1.47997e-08 -2.70736e-06 0)
(1.46758e-08 -2.71282e-06 0)
(1.45509e-08 -2.7183e-06 0)
(1.44248e-08 -2.72379e-06 0)
(1.42977e-08 -2.72928e-06 0)
(1.41694e-08 -2.73479e-06 0)
(1.40401e-08 -2.74031e-06 0)
(1.39097e-08 -2.74584e-06 0)
(1.37782e-08 -2.75137e-06 0)
(1.36456e-08 -2.75692e-06 0)
(1.3512e-08 -2.76246e-06 0)
(1.33773e-08 -2.76801e-06 0)
(1.32415e-08 -2.77357e-06 0)
(1.31046e-08 -2.77913e-06 0)
(1.29667e-08 -2.78469e-06 0)
(1.28277e-08 -2.79025e-06 0)
(1.26877e-08 -2.79581e-06 0)
(1.25467e-08 -2.80137e-06 0)
(1.24046e-08 -2.80693e-06 0)
(1.22615e-08 -2.81248e-06 0)
(1.21174e-08 -2.81803e-06 0)
(1.19723e-08 -2.82357e-06 0)
(1.18262e-08 -2.8291e-06 0)
(1.16791e-08 -2.83462e-06 0)
(1.15311e-08 -2.84014e-06 0)
(1.13821e-08 -2.84564e-06 0)
(1.12321e-08 -2.85113e-06 0)
(1.10812e-08 -2.85661e-06 0)
(1.09294e-08 -2.86207e-06 0)
(1.07767e-08 -2.86751e-06 0)
(1.06231e-08 -2.87293e-06 0)
(1.04687e-08 -2.87834e-06 0)
(1.03134e-08 -2.88372e-06 0)
(1.01572e-08 -2.88908e-06 0)
(1.00003e-08 -2.89441e-06 0)
(9.84256e-09 -2.89972e-06 0)
(9.68405e-09 -2.905e-06 0)
(9.52481e-09 -2.91025e-06 0)
(9.36484e-09 -2.91547e-06 0)
(9.20417e-09 -2.92065e-06 0)
(9.04282e-09 -2.92581e-06 0)
(8.88083e-09 -2.93092e-06 0)
(8.71821e-09 -2.936e-06 0)
(8.55501e-09 -2.94103e-06 0)
(8.39123e-09 -2.94603e-06 0)
(8.22692e-09 -2.95098e-06 0)
(8.06211e-09 -2.95588e-06 0)
(7.89682e-09 -2.96074e-06 0)
(7.73109e-09 -2.96555e-06 0)
(7.56495e-09 -2.97031e-06 0)
(7.39843e-09 -2.97501e-06 0)
(7.23158e-09 -2.97966e-06 0)
(7.06443e-09 -2.98426e-06 0)
(6.89701e-09 -2.98879e-06 0)
(6.72937e-09 -2.99326e-06 0)
(6.56153e-09 -2.99767e-06 0)
(6.39355e-09 -3.00201e-06 0)
(6.22546e-09 -3.00629e-06 0)
(6.05731e-09 -3.0105e-06 0)
(5.88913e-09 -3.01464e-06 0)
(5.72097e-09 -3.0187e-06 0)
(5.55288e-09 -3.02269e-06 0)
(5.38489e-09 -3.0266e-06 0)
(5.21706e-09 -3.03043e-06 0)
(5.04944e-09 -3.03419e-06 0)
(4.88207e-09 -3.03785e-06 0)
(4.71499e-09 -3.04144e-06 0)
(4.54826e-09 -3.04493e-06 0)
(4.38193e-09 -3.04834e-06 0)
(4.21605e-09 -3.05165e-06 0)
(4.05067e-09 -3.05487e-06 0)
(3.88583e-09 -3.058e-06 0)
(3.72161e-09 -3.06102e-06 0)
(3.55804e-09 -3.06395e-06 0)
(3.39518e-09 -3.06678e-06 0)
(3.23308e-09 -3.0695e-06 0)
(3.07181e-09 -3.07212e-06 0)
(2.91141e-09 -3.07463e-06 0)
(2.75195e-09 -3.07703e-06 0)
(2.59347e-09 -3.07932e-06 0)
(2.43604e-09 -3.08149e-06 0)
(2.27971e-09 -3.08356e-06 0)
(2.12454e-09 -3.0855e-06 0)
(1.97058e-09 -3.08733e-06 0)
(1.8179e-09 -3.08904e-06 0)
(1.66656e-09 -3.09063e-06 0)
(1.5166e-09 -3.09209e-06 0)
(1.36809e-09 -3.09343e-06 0)
(1.22108e-09 -3.09465e-06 0)
(1.07564e-09 -3.09574e-06 0)
(9.31813e-10 -3.09669e-06 0)
(7.89661e-10 -3.09752e-06 0)
(6.49237e-10 -3.09822e-06 0)
(5.10598e-10 -3.09879e-06 0)
(3.73796e-10 -3.09922e-06 0)
(2.38885e-10 -3.09951e-06 0)
(1.05916e-10 -3.09968e-06 0)
(-2.50598e-11 -3.0997e-06 0)
(-1.53992e-10 -3.09959e-06 0)
(-2.80831e-10 -3.09934e-06 0)
(-4.05529e-10 -3.09895e-06 0)
(-5.2804e-10 -3.09842e-06 0)
(-6.48317e-10 -3.09776e-06 0)
(-7.66316e-10 -3.09695e-06 0)
(-8.81992e-10 -3.096e-06 0)
(-9.95305e-10 -3.09491e-06 0)
(-1.10621e-09 -3.09368e-06 0)
(-1.21467e-09 -3.09231e-06 0)
(-1.32065e-09 -3.09079e-06 0)
(-1.4241e-09 -3.08914e-06 0)
(-1.525e-09 -3.08734e-06 0)
(-1.6233e-09 -3.08541e-06 0)
(-1.71897e-09 -3.08333e-06 0)
(-1.81199e-09 -3.08111e-06 0)
(-1.9023e-09 -3.07876e-06 0)
(-1.98996e-09 -3.07627e-06 0)
(-2.07462e-09 -3.07361e-06 0)
(-2.15761e-09 -3.07086e-06 0)
(-2.24423e-09 -3.06765e-06 0)
(-2.33372e-09 -3.06391e-06 0)
(-2.42019e-09 -3.06004e-06 0)
(-2.50186e-09 -3.05604e-06 0)
(-2.57866e-09 -3.05191e-06 0)
(-2.65067e-09 -3.04766e-06 0)
(-2.71801e-09 -3.04329e-06 0)
(-2.78078e-09 -3.03883e-06 0)
(-2.83914e-09 -3.03426e-06 0)
(-2.89321e-09 -3.02961e-06 0)
(-2.94313e-09 -3.02487e-06 0)
(-2.98905e-09 -3.02005e-06 0)
(-3.03107e-09 -3.01516e-06 0)
(-3.06933e-09 -3.01021e-06 0)
(-3.10394e-09 -3.0052e-06 0)
(-3.13503e-09 -3.00014e-06 0)
(-3.1627e-09 -2.99503e-06 0)
(-3.18707e-09 -2.98987e-06 0)
(-3.20824e-09 -2.98468e-06 0)
(-3.22632e-09 -2.97946e-06 0)
(-3.24141e-09 -2.97422e-06 0)
(-3.25359e-09 -2.96895e-06 0)
(-3.26297e-09 -2.96366e-06 0)
(-3.26964e-09 -2.95836e-06 0)
(-3.27368e-09 -2.95305e-06 0)
(-3.27517e-09 -2.94774e-06 0)
(-3.2742e-09 -2.94243e-06 0)
(-3.27084e-09 -2.93712e-06 0)
(-3.26517e-09 -2.93182e-06 0)
(-3.25726e-09 -2.92653e-06 0)
(-3.24718e-09 -2.92125e-06 0)
(-3.235e-09 -2.916e-06 0)
(-3.22077e-09 -2.91076e-06 0)
(-3.20457e-09 -2.90555e-06 0)
(-3.18645e-09 -2.90037e-06 0)
(-3.16647e-09 -2.89522e-06 0)
(-3.14468e-09 -2.8901e-06 0)
(-3.12115e-09 -2.88502e-06 0)
(-3.09591e-09 -2.87998e-06 0)
(-3.06902e-09 -2.87498e-06 0)
(-3.04053e-09 -2.87002e-06 0)
(-3.01048e-09 -2.86512e-06 0)
(-2.97891e-09 -2.86026e-06 0)
(-2.94588e-09 -2.85546e-06 0)
(-2.91141e-09 -2.85071e-06 0)
(-2.87556e-09 -2.84601e-06 0)
(-2.83836e-09 -2.84138e-06 0)
(-2.79984e-09 -2.83681e-06 0)
(-2.76004e-09 -2.8323e-06 0)
(-2.719e-09 -2.82786e-06 0)
(-2.67674e-09 -2.82348e-06 0)
(-2.63331e-09 -2.81918e-06 0)
(-2.58873e-09 -2.81494e-06 0)
(-2.54303e-09 -2.81078e-06 0)
(-2.49624e-09 -2.8067e-06 0)
(-2.44839e-09 -2.80269e-06 0)
(-2.39951e-09 -2.79875e-06 0)
(-2.34963e-09 -2.7949e-06 0)
(-2.29876e-09 -2.79113e-06 0)
(-2.24695e-09 -2.78745e-06 0)
(-2.19421e-09 -2.78384e-06 0)
(-2.14057e-09 -2.78033e-06 0)
(-2.08605e-09 -2.7769e-06 0)
(-2.03068e-09 -2.77356e-06 0)
(-1.97448e-09 -2.77031e-06 0)
(-1.91748e-09 -2.76715e-06 0)
(-1.85971e-09 -2.76409e-06 0)
(-1.80118e-09 -2.76112e-06 0)
(-1.74192e-09 -2.75824e-06 0)
(-1.68196e-09 -2.75547e-06 0)
(-1.62131e-09 -2.75278e-06 0)
(-1.56001e-09 -2.7502e-06 0)
(-1.49807e-09 -2.74772e-06 0)
(-1.43553e-09 -2.74534e-06 0)
(-1.3724e-09 -2.74306e-06 0)
(-1.30872e-09 -2.74088e-06 0)
(-1.24449e-09 -2.73881e-06 0)
(-1.17976e-09 -2.73684e-06 0)
(-1.11454e-09 -2.73497e-06 0)
(-1.04886e-09 -2.73322e-06 0)
(-9.82751e-10 -2.73156e-06 0)
(-9.16234e-10 -2.73002e-06 0)
(-8.49337e-10 -2.72858e-06 0)
(-7.82092e-10 -2.72726e-06 0)
(-7.14527e-10 -2.72603e-06 0)
(-6.46676e-10 -2.72494e-06 0)
(-5.78566e-10 -2.72388e-06 0)
(-5.10245e-10 -2.72319e-06 0)
(-4.41695e-10 -2.72177e-06 0)
(-3.7312e-10 -2.72317e-06 0)
(-3.03977e-10 -2.71554e-06 0)
(-2.36212e-10 -2.7372e-06 0)
(-1.63431e-10 -2.65494e-06 0)
(-1.08053e-10 -2.87277e-06 0)
(-4.63017e-11 -2.50898e-06 0)
)
;
    }
    bottomWall
    {
        type            calculated;
        value           nonuniform List<vector> 
449
(
(-48.5208 -0.963931 0)
(-19.7503 -0.00515292 0)
(-14.3481 -0.00113295 0)
(-12.0457 -0.000542717 0)
(-10.6512 -0.000346594 0)
(-9.67918 -0.000246415 0)
(-8.9647 -0.000177979 0)
(-8.45827 -0.00011364 0)
(-8.18381 -3.03992e-05 0)
(-8.25109 0.000131788 0)
(-9.09998 0.000302925 0)
(-10.3511 0.000316181 0)
(-11.291 0.000214285 0)
(-11.8388 0.000121263 0)
(-12.1354 6.49404e-05 0)
(-12.2923 3.24243e-05 0)
(-12.3623 1.16438e-05 0)
(-12.3739 -2.5403e-06 0)
(-12.3443 -1.16182e-05 0)
(-12.2918 -1.71479e-05 0)
(-12.223 -2.06544e-05 0)
(-12.1453 -2.24549e-05 0)
(-12.0634 -2.32094e-05 0)
(-11.98 -2.33239e-05 0)
(-11.8968 -2.30574e-05 0)
(-11.815 -2.25873e-05 0)
(-11.7348 -2.19902e-05 0)
(-11.6568 -2.12982e-05 0)
(-11.5813 -2.057e-05 0)
(-11.5082 -1.98354e-05 0)
(-11.4376 -1.91121e-05 0)
(-11.3695 -1.84094e-05 0)
(-11.3037 -1.77332e-05 0)
(-11.2401 -1.70839e-05 0)
(-11.1788 -1.64753e-05 0)
(-11.1194 -1.59052e-05 0)
(-11.0619 -1.53547e-05 0)
(-11.0063 -1.48241e-05 0)
(-10.9525 -1.432e-05 0)
(-10.9004 -1.38428e-05 0)
(-10.8499 -1.33889e-05 0)
(-10.8009 -1.29576e-05 0)
(-10.7534 -1.25495e-05 0)
(-10.7072 -1.21625e-05 0)
(-10.6623 -1.17931e-05 0)
(-10.6187 -1.14405e-05 0)
(-10.5763 -1.11067e-05 0)
(-10.535 -1.07849e-05 0)
(-10.4948 -1.04906e-05 0)
(-10.4555 -1.02338e-05 0)
(-10.4171 -1.00006e-05 0)
(-10.3794 -9.78253e-06 0)
(-10.3425 -9.56687e-06 0)
(-10.3063 -9.35427e-06 0)
(-10.2708 -9.1449e-06 0)
(-10.236 -8.93723e-06 0)
(-10.202 -8.73665e-06 0)
(-10.1686 -8.54202e-06 0)
(-10.1359 -8.35256e-06 0)
(-10.1038 -8.17139e-06 0)
(-10.0724 -7.99703e-06 0)
(-10.0415 -7.8278e-06 0)
(-10.0113 -7.66318e-06 0)
(-9.98156 -7.50546e-06 0)
(-9.95237 -7.35442e-06 0)
(-9.92371 -7.2073e-06 0)
(-9.89555 -7.06446e-06 0)
(-9.86789 -6.92536e-06 0)
(-9.8407 -6.79258e-06 0)
(-9.81395 -6.6699e-06 0)
(-9.78761 -6.55192e-06 0)
(-9.76168 -6.43311e-06 0)
(-9.73617 -6.3161e-06 0)
(-9.71105 -6.20197e-06 0)
(-9.68634 -6.09103e-06 0)
(-9.662 -5.98358e-06 0)
(-9.63803 -5.87946e-06 0)
(-9.61442 -5.7787e-06 0)
(-9.59116 -5.68114e-06 0)
(-9.56824 -5.58665e-06 0)
(-9.54563 -5.49528e-06 0)
(-9.52334 -5.40595e-06 0)
(-9.50137 -5.31911e-06 0)
(-9.47969 -5.23387e-06 0)
(-9.45831 -5.15053e-06 0)
(-9.43721 -5.07026e-06 0)
(-9.4164 -4.99159e-06 0)
(-9.39585 -4.91572e-06 0)
(-9.37557 -4.84145e-06 0)
(-9.35555 -4.76893e-06 0)
(-9.33578 -4.69887e-06 0)
(-9.31625 -4.62995e-06 0)
(-9.29696 -4.56358e-06 0)
(-9.27789 -4.49827e-06 0)
(-9.25906 -4.43413e-06 0)
(-9.24045 -4.37254e-06 0)
(-9.22205 -4.31172e-06 0)
(-9.20387 -4.25245e-06 0)
(-9.18589 -4.19654e-06 0)
(-9.1681 -4.14369e-06 0)
(-9.15048 -4.09141e-06 0)
(-9.13306 -4.03768e-06 0)
(-9.11582 -3.98392e-06 0)
(-9.09877 -3.93262e-06 0)
(-9.0819 -3.88179e-06 0)
(-9.06521 -3.83137e-06 0)
(-9.0487 -3.78339e-06 0)
(-9.03235 -3.73561e-06 0)
(-9.01617 -3.68832e-06 0)
(-9.00016 -3.64346e-06 0)
(-8.98429 -3.59841e-06 0)
(-8.9686 -3.55397e-06 0)
(-8.95305 -3.51181e-06 0)
(-8.93766 -3.46945e-06 0)
(-8.92241 -3.42761e-06 0)
(-8.90732 -3.38779e-06 0)
(-8.89235 -3.34796e-06 0)
(-8.87754 -3.30858e-06 0)
(-8.86286 -3.27074e-06 0)
(-8.84831 -3.23332e-06 0)
(-8.83389 -3.19612e-06 0)
(-8.81961 -3.16005e-06 0)
(-8.80545 -3.12497e-06 0)
(-8.79142 -3.08986e-06 0)
(-8.77751 -3.05527e-06 0)
(-8.76373 -3.02224e-06 0)
(-8.75006 -2.98925e-06 0)
(-8.73651 -2.95617e-06 0)
(-8.72307 -2.92456e-06 0)
(-8.70975 -2.89368e-06 0)
(-8.69653 -2.86243e-06 0)
(-8.68343 -2.83185e-06 0)
(-8.67044 -2.80278e-06 0)
(-8.65755 -2.77341e-06 0)
(-8.64476 -2.74401e-06 0)
(-8.63208 -2.71593e-06 0)
(-8.6195 -2.6886e-06 0)
(-8.60701 -2.66078e-06 0)
(-8.59463 -2.63348e-06 0)
(-8.58234 -2.6074e-06 0)
(-8.57015 -2.58178e-06 0)
(-8.55804 -2.55641e-06 0)
(-8.54603 -2.53268e-06 0)
(-8.53409 -2.50968e-06 0)
(-8.52224 -2.48555e-06 0)
(-8.51048 -2.46072e-06 0)
(-8.4988 -2.43666e-06 0)
(-8.48721 -2.41343e-06 0)
(-8.47571 -2.39034e-06 0)
(-8.46429 -2.36704e-06 0)
(-8.45295 -2.34446e-06 0)
(-8.4417 -2.32266e-06 0)
(-8.43052 -2.30091e-06 0)
(-8.41942 -2.27886e-06 0)
(-8.4084 -2.25752e-06 0)
(-8.39746 -2.23701e-06 0)
(-8.38659 -2.21649e-06 0)
(-8.37579 -2.19563e-06 0)
(-8.36508 -2.17538e-06 0)
(-8.35443 -2.15599e-06 0)
(-8.34386 -2.13662e-06 0)
(-8.33335 -2.1169e-06 0)
(-8.32292 -2.09763e-06 0)
(-8.31256 -2.0792e-06 0)
(-8.30226 -2.06098e-06 0)
(-8.29203 -2.04234e-06 0)
(-8.28187 -2.02398e-06 0)
(-8.27178 -2.0064e-06 0)
(-8.26175 -1.98942e-06 0)
(-8.25178 -1.97174e-06 0)
(-8.24188 -1.95448e-06 0)
(-8.23203 -1.93757e-06 0)
(-8.22226 -1.91878e-06 0)
(-8.2131 -1.90489e-06 0)
(-8.20447 -1.89315e-06 0)
(-8.1958 -1.87711e-06 0)
(-8.18713 -1.86213e-06 0)
(-8.17842 -1.84819e-06 0)
(-8.16969 -1.83373e-06 0)
(-8.16092 -1.81918e-06 0)
(-8.15214 -1.80471e-06 0)
(-8.14333 -1.79062e-06 0)
(-8.1345 -1.77665e-06 0)
(-8.12563 -1.76244e-06 0)
(-8.11675 -1.74798e-06 0)
(-8.10784 -1.73377e-06 0)
(-8.09891 -1.71985e-06 0)
(-8.08995 -1.70608e-06 0)
(-8.08097 -1.692e-06 0)
(-8.07197 -1.67776e-06 0)
(-8.06294 -1.66386e-06 0)
(-8.05389 -1.65023e-06 0)
(-8.04483 -1.63662e-06 0)
(-8.03573 -1.62274e-06 0)
(-8.02662 -1.60881e-06 0)
(-8.01748 -1.59529e-06 0)
(-8.00833 -1.58199e-06 0)
(-7.99915 -1.56853e-06 0)
(-7.98996 -1.55484e-06 0)
(-7.98074 -1.54139e-06 0)
(-7.97151 -1.52826e-06 0)
(-7.96225 -1.51523e-06 0)
(-7.95297 -1.50194e-06 0)
(-7.94367 -1.48873e-06 0)
(-7.93436 -1.47617e-06 0)
(-7.92502 -1.4643e-06 0)
(-7.91566 -1.45207e-06 0)
(-7.90627 -1.43902e-06 0)
(-7.89688 -1.42596e-06 0)
(-7.88746 -1.41329e-06 0)
(-7.87803 -1.40058e-06 0)
(-7.86858 -1.38762e-06 0)
(-7.85912 -1.37469e-06 0)
(-7.84964 -1.36219e-06 0)
(-7.84015 -1.34974e-06 0)
(-7.83064 -1.33704e-06 0)
(-7.82113 -1.3242e-06 0)
(-7.8116 -1.31184e-06 0)
(-7.80205 -1.29963e-06 0)
(-7.79249 -1.28715e-06 0)
(-7.78293 -1.2745e-06 0)
(-7.77335 -1.26228e-06 0)
(-7.76376 -1.25027e-06 0)
(-7.75416 -1.23806e-06 0)
(-7.74455 -1.22567e-06 0)
(-7.73494 -1.21361e-06 0)
(-7.72532 -1.2018e-06 0)
(-7.71568 -1.18984e-06 0)
(-7.70604 -1.17773e-06 0)
(-7.6964 -1.16588e-06 0)
(-7.68674 -1.15431e-06 0)
(-7.67708 -1.14262e-06 0)
(-7.66742 -1.13083e-06 0)
(-7.65775 -1.11925e-06 0)
(-7.64807 -1.10794e-06 0)
(-7.63839 -1.09652e-06 0)
(-7.62871 -1.08501e-06 0)
(-7.61902 -1.0737e-06 0)
(-7.60933 -1.06261e-06 0)
(-7.59964 -1.05143e-06 0)
(-7.58994 -1.04015e-06 0)
(-7.58025 -1.02907e-06 0)
(-7.57055 -1.01821e-06 0)
(-7.56085 -1.00725e-06 0)
(-7.55116 -9.96222e-07 0)
(-7.54146 -9.85431e-07 0)
(-7.53177 -9.74843e-07 0)
(-7.52208 -9.64143e-07 0)
(-7.51239 -9.53413e-07 0)
(-7.5027 -9.42941e-07 0)
(-7.49301 -9.32661e-07 0)
(-7.48333 -9.22239e-07 0)
(-7.47365 -9.11845e-07 0)
(-7.46398 -9.01695e-07 0)
(-7.45431 -8.91671e-07 0)
(-7.44465 -8.8152e-07 0)
(-7.43499 -8.71435e-07 0)
(-7.42534 -8.61582e-07 0)
(-7.41569 -8.51762e-07 0)
(-7.40606 -8.41865e-07 0)
(-7.39643 -8.32069e-07 0)
(-7.38681 -8.22511e-07 0)
(-7.37719 -8.12935e-07 0)
(-7.36759 -8.03302e-07 0)
(-7.358 -7.93834e-07 0)
(-7.34841 -7.84559e-07 0)
(-7.33884 -7.75154e-07 0)
(-7.32928 -7.65766e-07 0)
(-7.31973 -7.56595e-07 0)
(-7.3102 -7.47706e-07 0)
(-7.30067 -7.38966e-07 0)
(-7.29115 -7.30217e-07 0)
(-7.28165 -7.21448e-07 0)
(-7.27215 -7.12678e-07 0)
(-7.26268 -7.03842e-07 0)
(-7.25321 -6.95207e-07 0)
(-7.24376 -6.86732e-07 0)
(-7.23433 -6.78247e-07 0)
(-7.22491 -6.69743e-07 0)
(-7.21551 -6.61521e-07 0)
(-7.20612 -6.53327e-07 0)
(-7.19676 -6.4509e-07 0)
(-7.1874 -6.36953e-07 0)
(-7.17807 -6.29044e-07 0)
(-7.16875 -6.2106e-07 0)
(-7.15945 -6.13106e-07 0)
(-7.15017 -6.05342e-07 0)
(-7.14091 -5.97696e-07 0)
(-7.13166 -5.90014e-07 0)
(-7.12244 -5.82432e-07 0)
(-7.11323 -5.75057e-07 0)
(-7.10405 -5.67672e-07 0)
(-7.09487 -5.60287e-07 0)
(-7.08573 -5.53094e-07 0)
(-7.0766 -5.45992e-07 0)
(-7.0675 -5.38872e-07 0)
(-7.05841 -5.31825e-07 0)
(-7.04935 -5.2497e-07 0)
(-7.0403 -5.18096e-07 0)
(-7.03128 -5.11238e-07 0)
(-7.02228 -5.04552e-07 0)
(-7.0133 -4.97941e-07 0)
(-7.00434 -4.91316e-07 0)
(-6.99542 -4.84795e-07 0)
(-6.9865 -4.78432e-07 0)
(-6.97762 -4.72071e-07 0)
(-6.96874 -4.6575e-07 0)
(-6.95991 -4.59589e-07 0)
(-6.95108 -4.53504e-07 0)
(-6.94229 -4.47408e-07 0)
(-6.93351 -4.41424e-07 0)
(-6.92477 -4.35578e-07 0)
(-6.91603 -4.29759e-07 0)
(-6.90733 -4.23967e-07 0)
(-6.89865 -4.18358e-07 0)
(-6.88999 -4.12761e-07 0)
(-6.88135 -4.07197e-07 0)
(-6.87275 -4.01718e-07 0)
(-6.86415 -3.96352e-07 0)
(-6.85559 -3.90971e-07 0)
(-6.84705 -3.85689e-07 0)
(-6.83853 -3.80515e-07 0)
(-6.83004 -3.75393e-07 0)
(-6.82157 -3.70275e-07 0)
(-6.81312 -3.65296e-07 0)
(-6.8047 -3.60341e-07 0)
(-6.7963 -3.55418e-07 0)
(-6.78793 -3.5055e-07 0)
(-6.77958 -3.45787e-07 0)
(-6.77126 -3.41029e-07 0)
(-6.76296 -3.36324e-07 0)
(-6.75469 -3.31718e-07 0)
(-6.74644 -3.27161e-07 0)
(-6.73821 -3.22611e-07 0)
(-6.73002 -3.1818e-07 0)
(-6.72185 -3.13777e-07 0)
(-6.7137 -3.09474e-07 0)
(-6.70558 -3.05248e-07 0)
(-6.69748 -3.01125e-07 0)
(-6.6894 -2.96954e-07 0)
(-6.68135 -2.92852e-07 0)
(-6.67333 -2.88811e-07 0)
(-6.66533 -2.84827e-07 0)
(-6.65735 -2.80847e-07 0)
(-6.6494 -2.76967e-07 0)
(-6.64148 -2.73082e-07 0)
(-6.63358 -2.69248e-07 0)
(-6.62571 -2.6544e-07 0)
(-6.61787 -2.61776e-07 0)
(-6.61004 -2.58105e-07 0)
(-6.60225 -2.54557e-07 0)
(-6.59447 -2.50966e-07 0)
(-6.58674 -2.47567e-07 0)
(-6.579 -2.44165e-07 0)
(-6.57045 -2.39879e-07 0)
(-6.56116 -2.3539e-07 0)
(-6.55206 -2.31425e-07 0)
(-6.54308 -2.27617e-07 0)
(-6.53427 -2.23817e-07 0)
(-6.52559 -2.20133e-07 0)
(-6.51707 -2.16505e-07 0)
(-6.50868 -2.12975e-07 0)
(-6.50044 -2.09537e-07 0)
(-6.49231 -2.06233e-07 0)
(-6.48432 -2.03046e-07 0)
(-6.47644 -1.99981e-07 0)
(-6.4687 -1.97001e-07 0)
(-6.46105 -1.9408e-07 0)
(-6.45354 -1.91225e-07 0)
(-6.44611 -1.88447e-07 0)
(-6.43881 -1.85736e-07 0)
(-6.4316 -1.83073e-07 0)
(-6.42451 -1.80512e-07 0)
(-6.4175 -1.78017e-07 0)
(-6.4106 -1.75592e-07 0)
(-6.40378 -1.73244e-07 0)
(-6.39707 -1.7096e-07 0)
(-6.39043 -1.68719e-07 0)
(-6.38389 -1.66531e-07 0)
(-6.37742 -1.64396e-07 0)
(-6.37104 -1.62273e-07 0)
(-6.36474 -1.60207e-07 0)
(-6.35853 -1.58203e-07 0)
(-6.35238 -1.56266e-07 0)
(-6.34632 -1.54363e-07 0)
(-6.34032 -1.52508e-07 0)
(-6.33441 -1.507e-07 0)
(-6.32855 -1.48899e-07 0)
(-6.32277 -1.47142e-07 0)
(-6.31705 -1.45412e-07 0)
(-6.31141 -1.43742e-07 0)
(-6.30582 -1.42099e-07 0)
(-6.30031 -1.405e-07 0)
(-6.29484 -1.38947e-07 0)
(-6.28946 -1.3742e-07 0)
(-6.28411 -1.35911e-07 0)
(-6.27884 -1.34437e-07 0)
(-6.27361 -1.32997e-07 0)
(-6.26845 -1.31607e-07 0)
(-6.26332 -1.30216e-07 0)
(-6.25827 -1.28864e-07 0)
(-6.25326 -1.27502e-07 0)
(-6.24831 -1.26166e-07 0)
(-6.2434 -1.2485e-07 0)
(-6.23856 -1.23571e-07 0)
(-6.23375 -1.2235e-07 0)
(-6.229 -1.21162e-07 0)
(-6.22428 -1.19997e-07 0)
(-6.21963 -1.18848e-07 0)
(-6.21499 -1.17729e-07 0)
(-6.21043 -1.16657e-07 0)
(-6.20588 -1.15583e-07 0)
(-6.2014 -1.14554e-07 0)
(-6.19693 -1.13513e-07 0)
(-6.19253 -1.12524e-07 0)
(-6.18814 -1.11518e-07 0)
(-6.18382 -1.10569e-07 0)
(-6.1795 -1.0956e-07 0)
(-6.17526 -1.08614e-07 0)
(-6.17101 -1.07624e-07 0)
(-6.16685 -1.06728e-07 0)
(-6.16268 -1.05783e-07 0)
(-6.15858 -1.04939e-07 0)
(-6.15448 -1.0401e-07 0)
(-6.15046 -1.03209e-07 0)
(-6.14641 -1.02297e-07 0)
(-6.14247 -1.01521e-07 0)
(-6.13848 -1.00631e-07 0)
(-6.1346 -9.98804e-08 0)
(-6.13068 -9.90251e-08 0)
(-6.12687 -9.83104e-08 0)
(-6.123 -9.75085e-08 0)
(-6.11925 -9.68254e-08 0)
(-6.11543 -9.60718e-08 0)
(-6.11174 -9.54422e-08 0)
(-6.10798 -9.47874e-08 0)
(-6.10434 -9.41452e-08 0)
(-6.10062 -9.35966e-08 0)
(-6.09703 -9.28388e-08 0)
(-6.09337 -9.26643e-08 0)
(-6.08978 -9.13759e-08 0)
(-6.08623 -9.26424e-08 0)
(-6.08254 -8.88388e-08 0)
(-6.0793 -9.56475e-08 0)
(-6.07505 -8.15174e-08 0)
(-6.07297 -1.06632e-07 0)
(-6.06665 -6.38303e-08 0)
(-6.06811 -8.67362e-08 0)
(-6.05964 -1.12606e-07 0)
)
;
    }
    symmetry
    {
        type            symmetryPlane;
    }
    frontAndBack
    {
        type            empty;
    }
}


// ************************************************************************* //
