/*--------------------------------*- C++ -*----------------------------------*\
| =========                 |                                                 |
| \\      /  F ield         | OpenFOAM: The Open Source CFD Toolbox           |
|  \\    /   O peration     | Version:  v2012                                 |
|   \\  /    A nd           | Website:  www.openfoam.com                      |
|    \\/     M anipulation  |                                                 |
\*---------------------------------------------------------------------------*/
FoamFile
{
    version     2.0;
    format      ascii;
    class       volScalarField;
    location    "29";
    object      yPlus;
}
// * * * * * * * * * * * * * * * * * * * * * * * * * * * * * * * * * * * * * //

dimensions      [0 0 0 0 0 0 0];


internalField   uniform 0;

boundaryField
{
    inlet
    {
        type            calculated;
        value           uniform 0;
    }
    outlet
    {
        type            calculated;
        value           uniform 0;
    }
    topWall
    {
        type            calculated;
        value           nonuniform List<scalar> 
545
(
0.11094
0.191304
0.245422
0.288489
0.324949
0.356851
0.385347
0.41116
0.434786
0.456577
0.4768
0.49566
0.51332
0.529913
0.545547
0.560316
0.574295
0.587554
0.600149
0.612131
0.623546
0.634433
0.644828
0.654763
0.664266
0.673365
0.682082
0.690441
0.69846
0.706158
0.713552
0.720659
0.727492
0.734065
0.740392
0.746483
0.75235
0.758003
0.763452
0.768706
0.773774
0.778663
0.783382
0.787938
0.792337
0.796586
0.800691
0.804658
0.808492
0.812199
0.815784
0.819251
0.822605
0.82585
0.828991
0.83203
0.834973
0.837822
0.840581
0.843253
0.845841
0.848349
0.850779
0.853133
0.855415
0.857627
0.859772
0.861851
0.863867
0.865822
0.867718
0.869557
0.871318
0.873022
0.874712
0.876389
0.878052
0.879703
0.88134
0.882964
0.884575
0.886174
0.88776
0.889334
0.890895
0.892444
0.893982
0.895507
0.89702
0.898522
0.900012
0.90149
0.902957
0.904413
0.905858
0.907292
0.908583
0.909739
0.910894
0.912049
0.913203
0.914358
0.915512
0.916667
0.917821
0.918974
0.920128
0.921281
0.922434
0.923587
0.924739
0.925892
0.927044
0.928195
0.929347
0.930498
0.931649
0.9328
0.93395
0.9351
0.936249
0.937399
0.938548
0.939696
0.940844
0.941992
0.94314
0.944287
0.945434
0.94658
0.947726
0.948871
0.950016
0.951161
0.952305
0.953449
0.954592
0.955735
0.956878
0.95802
0.959161
0.960302
0.961442
0.962582
0.963722
0.964861
0.965999
0.967137
0.968274
0.96941
0.970546
0.971682
0.972817
0.973951
0.975085
0.976218
0.97735
0.978482
0.979613
0.980743
0.981873
0.983002
0.984131
0.985258
0.986385
0.987512
0.988637
0.989762
0.990886
0.992009
0.993132
0.994253
0.995374
0.996494
0.997614
0.998732
0.99985
1.00097
1.00208
1.0032
1.00431
1.00543
1.00654
1.00765
1.00876
1.00987
1.01098
1.01209
1.01319
1.0143
1.0154
1.01651
1.01761
1.01871
1.01981
1.02091
1.02201
1.02311
1.0242
1.0253
1.02639
1.02749
1.02858
1.02967
1.03076
1.03185
1.03294
1.03402
1.03511
1.03619
1.03727
1.03836
1.03944
1.04051
1.04159
1.04267
1.04374
1.04482
1.04589
1.04696
1.04803
1.0491
1.05017
1.05123
1.0523
1.05336
1.05442
1.05548
1.05654
1.05759
1.05865
1.0597
1.06076
1.06181
1.06286
1.0639
1.06495
1.066
1.06704
1.06808
1.06912
1.07016
1.07119
1.07223
1.07326
1.07429
1.07532
1.07635
1.07738
1.0784
1.07943
1.08045
1.08147
1.08248
1.0835
1.08451
1.08553
1.08654
1.08754
1.08855
1.08956
1.09056
1.09156
1.09256
1.09355
1.09455
1.09554
1.09653
1.09752
1.09845
1.09933
1.10022
1.10111
1.102
1.10291
1.10382
1.10473
1.10565
1.10658
1.10751
1.10845
1.1094
1.11035
1.1113
1.11226
1.11323
1.11421
1.11519
1.11617
1.11716
1.11816
1.11916
1.12017
1.12119
1.1222
1.12323
1.12426
1.1253
1.12634
1.12738
1.12843
1.12949
1.13055
1.13162
1.13269
1.13377
1.13485
1.13594
1.13703
1.13812
1.13923
1.14033
1.14144
1.14255
1.14367
1.14479
1.14592
1.14705
1.14818
1.14932
1.15046
1.1516
1.15275
1.1539
1.15505
1.15621
1.15737
1.15853
1.1597
1.16086
1.16203
1.1632
1.16438
1.16555
1.16673
1.1679
1.16908
1.17026
1.17144
1.17262
1.17381
1.17499
1.17617
1.17735
1.17853
1.17971
1.18089
1.18207
1.18325
1.18443
1.1856
1.18677
1.18794
1.18911
1.19028
1.19144
1.1926
1.19375
1.19491
1.19605
1.1972
1.19833
1.19947
1.2006
1.20172
1.20283
1.20395
1.20505
1.20615
1.20724
1.20832
1.20939
1.21046
1.21152
1.21257
1.21361
1.21464
1.21566
1.21667
1.21767
1.21866
1.21964
1.2206
1.22156
1.2225
1.22343
1.22435
1.22525
1.22614
1.22701
1.22787
1.22871
1.22954
1.23036
1.23115
1.23193
1.23269
1.23344
1.23417
1.23488
1.23557
1.23624
1.23689
1.23753
1.23814
1.23873
1.23931
1.23986
1.24039
1.24089
1.24138
1.24184
1.24228
1.2427
1.24309
1.24346
1.24381
1.24413
1.24442
1.24469
1.24494
1.24516
1.24535
1.24552
1.24566
1.24577
1.24586
1.24592
1.24596
1.24596
1.24594
1.24589
1.24581
1.24571
1.24558
1.24541
1.24522
1.24501
1.24476
1.24448
1.24418
1.24385
1.24349
1.2431
1.24268
1.24223
1.24176
1.24126
1.24073
1.24017
1.23952
1.23877
1.23798
1.23718
1.23634
1.23548
1.2346
1.23369
1.23276
1.23182
1.23085
1.22988
1.22888
1.22787
1.22685
1.22582
1.22477
1.22372
1.22266
1.22159
1.22051
1.21943
1.21835
1.21726
1.21616
1.21507
1.21398
1.21288
1.21179
1.21069
1.2096
1.20851
1.20743
1.20635
1.20527
1.2042
1.20314
1.20208
1.20103
1.19999
1.19895
1.19793
1.19691
1.19591
1.19491
1.19393
1.19296
1.192
1.19105
1.19011
1.18919
1.18829
1.18739
1.18652
1.18565
1.18481
1.18397
1.18316
1.18236
1.18158
1.18082
1.18007
1.17934
1.17864
1.17794
1.17727
1.17662
1.17599
1.17538
1.17478
1.17421
1.17366
1.17313
1.17262
1.17214
1.17167
1.17123
1.17081
1.17041
1.17003
1.16968
1.16935
1.16904
1.16876
1.1685
1.16826
1.16804
1.16785
1.16769
1.16754
1.16742
1.16733
1.16726
1.16722
1.16717
)
;
    }
    bottomWall
    {
        type            calculated;
        value           nonuniform List<scalar> 
449
(
0.139437
0.0889591
0.0758227
0.0694733
0.0653282
0.0622761
0.0599336
0.0582161
0.0572638
0.0574987
0.0603841
0.0644015
0.0672619
0.0688742
0.0697316
0.0701808
0.0703805
0.0704133
0.0703292
0.0701794
0.0699827
0.0697601
0.0695243
0.0692836
0.0690427
0.0688047
0.0685709
0.0683427
0.0681209
0.0679057
0.0676971
0.0674951
0.0672995
0.0671101
0.0669267
0.0667487
0.066576
0.0664085
0.066246
0.0660881
0.0659348
0.0657858
0.0656408
0.0654998
0.0653624
0.0652286
0.0650981
0.0649709
0.0648469
0.0647255
0.0646064
0.0644895
0.0643746
0.0642618
0.0641511
0.0640425
0.0639359
0.0638312
0.0637285
0.0636276
0.0635285
0.0634311
0.0633354
0.0632414
0.0631488
0.0630578
0.0629683
0.0628802
0.0627935
0.0627082
0.0626239
0.0625409
0.0624591
0.0623785
0.0622991
0.0622208
0.0621436
0.0620674
0.0619923
0.0619181
0.061845
0.0617727
0.0617014
0.061631
0.0615614
0.0614928
0.0614249
0.0613579
0.0612916
0.0612261
0.0611614
0.0610974
0.0610341
0.0609715
0.0609096
0.0608483
0.0607877
0.0607278
0.0606684
0.0606096
0.0605514
0.0604937
0.0604366
0.06038
0.060324
0.0602686
0.0602137
0.0601592
0.0601053
0.0600519
0.059999
0.0599466
0.0598946
0.0598431
0.059792
0.0597414
0.0596912
0.0596415
0.0595921
0.0595432
0.0594947
0.0594466
0.0593988
0.0593515
0.0593045
0.0592579
0.0592117
0.0591658
0.0591203
0.0590752
0.0590303
0.0589858
0.0589417
0.0588979
0.0588543
0.0588112
0.0587683
0.0587257
0.0586835
0.0586415
0.0585998
0.0585584
0.0585173
0.0584764
0.0584358
0.0583954
0.0583554
0.0583156
0.058276
0.0582368
0.0581978
0.058159
0.0581205
0.0580822
0.0580442
0.0580064
0.0579689
0.0579315
0.0578945
0.0578576
0.057821
0.0577846
0.0577484
0.0577124
0.0576767
0.0576411
0.0576058
0.0575707
0.0575358
0.057501
0.0574665
0.0574322
0.0573981
0.0573661
0.057336
0.0573057
0.0572754
0.0572449
0.0572143
0.0571836
0.0571529
0.057122
0.057091
0.0570598
0.0570287
0.0569973
0.0569659
0.0569344
0.0569028
0.0568711
0.0568393
0.0568074
0.0567754
0.0567433
0.0567111
0.0566789
0.0566465
0.056614
0.0565815
0.0565488
0.0565161
0.0564833
0.0564504
0.0564174
0.0563843
0.0563511
0.0563178
0.0562844
0.0562509
0.0562174
0.0561838
0.0561501
0.0561163
0.0560824
0.0560485
0.0560145
0.0559805
0.0559464
0.0559122
0.0558779
0.0558436
0.0558092
0.0557748
0.0557403
0.0557058
0.0556712
0.0556365
0.0556018
0.0555671
0.0555323
0.0554975
0.0554626
0.0554277
0.0553927
0.0553577
0.0553227
0.0552876
0.0552525
0.0552173
0.0551821
0.0551469
0.0551117
0.0550764
0.0550411
0.0550058
0.0549705
0.0549352
0.0548998
0.0548644
0.0548291
0.0547937
0.0547582
0.0547228
0.0546874
0.054652
0.0546165
0.0545811
0.0545457
0.0545102
0.0544748
0.0544394
0.0544039
0.0543685
0.0543331
0.0542977
0.0542624
0.054227
0.0541917
0.0541564
0.0541211
0.0540858
0.0540506
0.0540153
0.0539801
0.0539449
0.0539097
0.0538746
0.0538395
0.0538045
0.0537695
0.0537345
0.0536995
0.0536646
0.0536298
0.0535949
0.0535602
0.0535254
0.0534908
0.0534561
0.0534215
0.053387
0.0533525
0.0533181
0.0532837
0.0532494
0.0532151
0.0531809
0.0531467
0.0531126
0.0530786
0.0530446
0.0530107
0.0529768
0.052943
0.0529093
0.0528756
0.052842
0.0528085
0.052775
0.0527416
0.0527083
0.052675
0.0526418
0.0526087
0.0525756
0.0525426
0.0525096
0.0524768
0.052444
0.0524113
0.0523786
0.052346
0.0523135
0.052281
0.0522487
0.0522164
0.0521841
0.052152
0.0521199
0.0520879
0.0520559
0.0520241
0.0519923
0.0519606
0.051929
0.0518975
0.051866
0.0518346
0.0518033
0.0517721
0.0517409
0.0517098
0.0516788
0.0516479
0.0516171
0.0515863
0.0515556
0.051525
0.0514945
0.0514641
0.0514337
0.0514034
0.0513733
0.0513431
0.0513097
0.0512734
0.0512378
0.0512027
0.0511683
0.0511343
0.0511009
0.051068
0.0510356
0.0510037
0.0509723
0.0509413
0.0509109
0.0508808
0.0508512
0.0508219
0.0507931
0.0507647
0.0507367
0.050709
0.0506817
0.0506548
0.0506282
0.0506019
0.050576
0.0505504
0.0505251
0.0505001
0.0504755
0.0504511
0.050427
0.0504031
0.0503796
0.0503563
0.0503333
0.0503106
0.0502881
0.0502658
0.0502439
0.0502221
0.0502006
0.0501792
0.0501582
0.0501373
0.0501166
0.0500962
0.050076
0.0500559
0.0500361
0.0500164
0.049997
0.0499777
0.0499587
0.0499398
0.0499211
0.0499025
0.0498842
0.0498659
0.0498479
0.0498299
0.0498122
0.0497946
0.0497772
0.0497598
0.0497427
0.0497256
0.0497088
0.049692
0.0496755
0.049659
0.0496427
0.0496264
0.0496105
0.0495944
0.0495787
0.0495629
0.0495474
0.0495318
0.0495166
0.0495012
0.0494863
0.049471
0.0494563
0.0494412
0.0494266
0.0494118
0.0493973
0.0493829
0.0493679
0.0493547
0.0493375
0.049329
0.0493034
0.0493093
0.0492749
)
;
    }
    symmetry
    {
        type            symmetryPlane;
    }
    frontAndBack
    {
        type            empty;
    }
}


// ************************************************************************* //
