/*--------------------------------*- C++ -*----------------------------------*\
| =========                 |                                                 |
| \\      /  F ield         | OpenFOAM: The Open Source CFD Toolbox           |
|  \\    /   O peration     | Version:  v2012                                 |
|   \\  /    A nd           | Website:  www.openfoam.com                      |
|    \\/     M anipulation  |                                                 |
\*---------------------------------------------------------------------------*/
FoamFile
{
    version     2.0;
    format      ascii;
    class       volScalarField;
    location    "16.5";
    object      k;
}
// * * * * * * * * * * * * * * * * * * * * * * * * * * * * * * * * * * * * * //

dimensions      [0 2 -2 0 0 0 0];


internalField   nonuniform List<scalar> 
209825
(
0.00101901
0.000944838
0.000902982
0.000877853
0.000861417
0.000849958
0.000841552
0.000835194
0.000830236
0.000826309
0.00082313
0.000820534
0.000818375
0.000816574
0.000815046
0.000813753
0.000812635
0.000811673
0.000810835
0.000810116
0.000809473
0.000808913
0.000808411
0.000807985
0.000807582
0.000807231
0.000806914
0.00080665
0.000806391
0.000806173
0.000805966
0.000805813
0.000805618
0.000805469
0.000805343
0.000805252
0.000805137
0.000805049
0.000804972
0.000804919
0.000804818
0.000804764
0.000804729
0.000804684
0.000804555
0.000804603
0.000804603
0.000804603
0.000804602
0.000804593
0.000804535
0.000804627
0.000804627
0.000804627
0.000804618
0.000804738
0.000804811
0.000804811
0.000804973
0.000804996
0.000804996
0.000805082
0.00080526
0.000805469
0.000805596
0.000805717
0.000805801
0.000805953
0.000806106
0.00080634
0.000806496
0.000806677
0.000806832
0.000807071
0.000807231
0.00080747
0.000807676
0.000807976
0.000808174
0.000808476
0.000808698
0.000809084
0.000809336
0.000809821
0.000810116
0.000810703
0.000811039
0.00081176
0.000812179
0.000813115
0.000813597
0.000815263
0.000815555
0.00082754
0.0008823
0.00228541
0.00101901
0.000944834
0.000902973
0.00087784
0.000861401
0.000849939
0.000841531
0.000835171
0.000830212
0.000826285
0.000823104
0.000820507
0.000818348
0.000816547
0.000815018
0.000813725
0.000812606
0.000811644
0.000810806
0.000810087
0.000809443
0.000808883
0.000808381
0.000807954
0.000807552
0.000807201
0.000806884
0.000806619
0.00080636
0.000806141
0.000805935
0.000805781
0.000805587
0.000805438
0.000805312
0.000805221
0.000805105
0.000805017
0.00080494
0.000804887
0.000804786
0.000804732
0.000804697
0.000804652
0.000804523
0.000804571
0.000804571
0.000804571
0.00080457
0.000804561
0.000804503
0.000804595
0.000804595
0.000804595
0.000804586
0.000804706
0.000804779
0.000804779
0.00080494
0.000804964
0.000804964
0.00080505
0.000805228
0.000805437
0.000805563
0.000805684
0.000805769
0.000805921
0.000806074
0.000806308
0.000806464
0.000806645
0.0008068
0.000807039
0.000807199
0.000807438
0.000807644
0.000807944
0.000808142
0.000808444
0.000808666
0.000809052
0.000809304
0.000809789
0.000810084
0.000810671
0.000811007
0.000811728
0.000812147
0.000813083
0.000813565
0.000815231
0.000815523
0.00082753
0.000882309
0.00228683
0.00101901
0.000944815
0.000902932
0.000877782
0.000861329
0.000849858
0.000841442
0.000835077
0.000830114
0.000826182
0.000822999
0.000820399
0.000818238
0.000816434
0.000814904
0.000813609
0.000812489
0.000811526
0.000810687
0.000809967
0.000809322
0.000808762
0.000808259
0.000807832
0.000807429
0.000807077
0.00080676
0.000806495
0.000806236
0.000806017
0.00080581
0.000805656
0.000805462
0.000805312
0.000805186
0.000805095
0.000804979
0.000804891
0.000804814
0.00080476
0.000804659
0.000804605
0.00080457
0.000804525
0.000804396
0.000804443
0.000804444
0.000804443
0.000804442
0.000804434
0.000804375
0.000804468
0.000804468
0.000804467
0.000804458
0.000804578
0.000804651
0.000804651
0.000804812
0.000804836
0.000804836
0.000804922
0.0008051
0.000805309
0.000805435
0.000805557
0.000805641
0.000805793
0.000805946
0.00080618
0.000806336
0.000806517
0.000806672
0.000806911
0.000807071
0.00080731
0.000807516
0.000807816
0.000808014
0.000808317
0.000808538
0.000808924
0.000809176
0.000809661
0.000809956
0.000810543
0.000810878
0.0008116
0.000812019
0.000812954
0.000813436
0.000815102
0.000815392
0.000827446
0.000882256
0.0022896
0.00101901
0.000944781
0.000902861
0.000877682
0.000861209
0.000849721
0.000841294
0.000834919
0.000829948
0.00082601
0.000822821
0.000820217
0.000818052
0.000816245
0.000814712
0.000813415
0.000812293
0.000811328
0.000810487
0.000809766
0.00080912
0.000808559
0.000808055
0.000807627
0.000807223
0.000806871
0.000806552
0.000806286
0.000806027
0.000805807
0.0008056
0.000805446
0.000805251
0.000805101
0.000804975
0.000804883
0.000804767
0.000804679
0.000804601
0.000804548
0.000804447
0.000804392
0.000804357
0.000804312
0.000804183
0.00080423
0.00080423
0.00080423
0.000804228
0.00080422
0.000804161
0.000804253
0.000804253
0.000804253
0.000804244
0.000804363
0.000804436
0.000804436
0.000804598
0.000804621
0.000804621
0.000804708
0.000804885
0.000805094
0.00080522
0.000805342
0.000805426
0.000805578
0.000805731
0.000805965
0.000806121
0.000806302
0.000806457
0.000806696
0.000806857
0.000807095
0.000807301
0.000807601
0.000807799
0.000808102
0.000808323
0.000808709
0.000808961
0.000809445
0.00080974
0.000810328
0.000810663
0.000811384
0.000811803
0.000812738
0.000813219
0.000814885
0.000815172
0.000827299
0.000882148
0.00229289
0.00101901
0.000944734
0.000902762
0.000877542
0.000861038
0.000849529
0.000841084
0.000834695
0.000829714
0.000825767
0.000822571
0.00081996
0.00081779
0.000815979
0.000814442
0.000813142
0.000812016
0.000811049
0.000810206
0.000809483
0.000808835
0.000808272
0.000807766
0.000807337
0.000806932
0.000806579
0.00080626
0.000805993
0.000805733
0.000805512
0.000805304
0.000805149
0.000804954
0.000804804
0.000804677
0.000804585
0.000804468
0.000804379
0.000804302
0.000804248
0.000804147
0.000804092
0.000804056
0.000804011
0.000803882
0.000803928
0.000803928
0.000803928
0.000803927
0.000803918
0.000803859
0.000803951
0.000803951
0.000803951
0.000803941
0.000804061
0.000804133
0.000804134
0.000804294
0.000804318
0.000804318
0.000804405
0.000804582
0.00080479
0.000804917
0.000805039
0.000805124
0.000805275
0.000805428
0.000805661
0.000805818
0.000805999
0.000806154
0.000806393
0.000806554
0.000806792
0.000806998
0.000807298
0.000807496
0.000807799
0.00080802
0.000808406
0.000808657
0.000809142
0.000809437
0.000810024
0.000810359
0.00081108
0.000811498
0.000812433
0.000812914
0.000814579
0.000814862
0.000827089
0.000881975
0.00229665
0.00101902
0.000944673
0.000902633
0.00087736
0.000860818
0.000849279
0.000840812
0.000834406
0.00082941
0.000825451
0.000822246
0.000819628
0.000817451
0.000815634
0.000814092
0.000812787
0.000811658
0.000810687
0.000809841
0.000809115
0.000808465
0.0008079
0.000807393
0.000806962
0.000806555
0.000806201
0.00080588
0.000805612
0.000805351
0.00080513
0.00080492
0.000804765
0.000804569
0.000804418
0.00080429
0.000804198
0.000804081
0.000803992
0.000803914
0.000803859
0.000803758
0.000803703
0.000803667
0.000803622
0.000803492
0.000803537
0.000803538
0.000803537
0.000803536
0.000803527
0.000803468
0.000803559
0.000803559
0.000803559
0.000803549
0.000803668
0.000803741
0.000803741
0.000803902
0.000803926
0.000803926
0.000804012
0.000804189
0.000804397
0.000804524
0.000804646
0.000804731
0.000804882
0.000805035
0.000805268
0.000805425
0.000805607
0.000805761
0.000806
0.000806161
0.0008064
0.000806605
0.000806905
0.000807103
0.000807406
0.000807627
0.000808013
0.000808264
0.000808749
0.000809043
0.00080963
0.000809965
0.000810685
0.000811103
0.000812037
0.000812517
0.000814183
0.00081446
0.000826817
0.000881721
0.00230082
0.00101902
0.000944599
0.000902475
0.000877137
0.000860547
0.000848972
0.000840477
0.000834049
0.000829036
0.000825063
0.000821846
0.000819218
0.000817032
0.000815208
0.00081366
0.00081235
0.000811216
0.000810241
0.000809392
0.000808662
0.00080801
0.000807442
0.000806932
0.000806499
0.000806091
0.000805734
0.000805412
0.000805143
0.00080488
0.000804658
0.000804448
0.000804291
0.000804095
0.000803943
0.000803814
0.000803721
0.000803604
0.000803514
0.000803435
0.00080338
0.000803278
0.000803223
0.000803186
0.000803141
0.000803011
0.000803056
0.000803056
0.000803055
0.000803054
0.000803045
0.000802985
0.000803076
0.000803076
0.000803075
0.000803066
0.000803185
0.000803257
0.000803257
0.000803417
0.000803441
0.000803441
0.000803528
0.000803704
0.000803913
0.00080404
0.000804162
0.000804247
0.000804398
0.00080455
0.000804784
0.000804941
0.000805122
0.000805277
0.000805516
0.000805676
0.000805915
0.00080612
0.000806421
0.000806619
0.000806922
0.000807142
0.000807528
0.000807779
0.000808263
0.000808558
0.000809144
0.000809479
0.000810198
0.000810616
0.000811549
0.000812028
0.000813693
0.000813964
0.000826481
0.000881382
0.00230523
0.00101903
0.00094451
0.000902287
0.000876871
0.000860224
0.000848606
0.000840079
0.000833625
0.000828591
0.000824601
0.000821369
0.000818729
0.000816534
0.000814701
0.000813145
0.000811829
0.00081069
0.00080971
0.000808856
0.000808123
0.000807466
0.000806895
0.000806383
0.000805948
0.000805537
0.000805179
0.000804855
0.000804583
0.00080432
0.000804096
0.000803884
0.000803727
0.000803529
0.000803376
0.000803246
0.000803152
0.000803034
0.000802944
0.000802864
0.000802809
0.000802707
0.000802651
0.000802614
0.000802568
0.000802438
0.000802481
0.000802481
0.000802481
0.000802479
0.00080247
0.00080241
0.000802499
0.000802499
0.000802499
0.000802489
0.000802608
0.000802679
0.000802679
0.00080284
0.000802864
0.000802864
0.00080295
0.000803127
0.000803335
0.000803462
0.000803585
0.00080367
0.000803821
0.000803972
0.000804205
0.000804363
0.000804545
0.000804699
0.000804938
0.000805099
0.000805338
0.000805542
0.000805843
0.000806041
0.000806344
0.000806564
0.00080695
0.000807201
0.000807685
0.000807979
0.000808565
0.000808899
0.000809618
0.000810035
0.000810967
0.000811445
0.00081311
0.000813373
0.000826083
0.000880959
0.00230961
0.00101903
0.000944408
0.000902069
0.000876563
0.000859849
0.000848181
0.000839615
0.000833131
0.000828073
0.000824063
0.000820815
0.000818161
0.000815954
0.000814111
0.000812547
0.000811222
0.000810077
0.000809091
0.000808232
0.000807494
0.000806834
0.000806259
0.000805744
0.000805305
0.000804892
0.000804531
0.000804205
0.000803932
0.000803666
0.000803441
0.000803228
0.000803069
0.00080287
0.000802716
0.000802585
0.00080249
0.000802371
0.00080228
0.000802199
0.000802144
0.000802041
0.000801984
0.000801947
0.000801901
0.00080177
0.000801812
0.000801812
0.000801812
0.00080181
0.0008018
0.000801739
0.000801828
0.000801829
0.000801828
0.000801818
0.000801937
0.000802007
0.000802007
0.000802167
0.000802192
0.000802192
0.000802278
0.000802454
0.000802662
0.000802789
0.000802913
0.000802998
0.000803149
0.0008033
0.000803532
0.00080369
0.000803872
0.000804026
0.000804265
0.000804426
0.000804665
0.000804869
0.00080517
0.000805368
0.000805671
0.000805891
0.000806277
0.000806527
0.000807011
0.000807304
0.00080789
0.000808224
0.000808942
0.000809358
0.000810289
0.000810765
0.00081243
0.000812685
0.000825621
0.000880449
0.00231355
0.00101904
0.000944292
0.000901821
0.000876212
0.000859421
0.000847696
0.000839086
0.000832567
0.000827481
0.000823448
0.000820181
0.000817511
0.000815291
0.000813436
0.000811862
0.000810529
0.000809376
0.000808384
0.000807519
0.000806776
0.000806111
0.000805532
0.000805013
0.000804571
0.000804155
0.000803791
0.000803463
0.000803187
0.00080292
0.000802692
0.000802477
0.000802317
0.000802117
0.000801961
0.000801829
0.000801733
0.000801613
0.000801521
0.000801439
0.000801383
0.00080128
0.000801222
0.000801184
0.000801138
0.000801006
0.000801047
0.000801047
0.000801047
0.000801045
0.000801034
0.000800973
0.000801061
0.000801061
0.000801061
0.00080105
0.000801168
0.000801238
0.000801238
0.000801398
0.000801423
0.000801422
0.000801509
0.000801684
0.000801892
0.00080202
0.000802144
0.000802229
0.00080238
0.00080253
0.000802762
0.00080292
0.000803103
0.000803257
0.000803496
0.000803656
0.000803895
0.000804099
0.0008044
0.000804598
0.000804902
0.000805121
0.000805507
0.000805757
0.00080624
0.000806533
0.000807118
0.000807452
0.000808168
0.000808584
0.000809514
0.000809988
0.000811652
0.000811897
0.000825095
0.000879852
0.00231647
0.00101905
0.000944163
0.000901542
0.000875817
0.00085894
0.00084715
0.00083849
0.000831932
0.000826814
0.000822755
0.000819467
0.000816779
0.000814543
0.000812676
0.00081109
0.000809748
0.000808586
0.000807586
0.000806714
0.000805965
0.000805295
0.000804712
0.000804188
0.000803743
0.000803323
0.000802957
0.000802625
0.000802347
0.000802077
0.000801848
0.000801631
0.000801468
0.000801267
0.00080111
0.000800976
0.000800879
0.000800758
0.000800664
0.000800582
0.000800525
0.000800421
0.000800363
0.000800323
0.000800277
0.000800145
0.000800184
0.000800184
0.000800184
0.000800182
0.00080017
0.000800108
0.000800195
0.000800195
0.000800195
0.000800184
0.000800302
0.000800371
0.000800371
0.00080053
0.000800555
0.000800555
0.000800641
0.000800816
0.000801023
0.000801151
0.000801276
0.000801362
0.000801513
0.000801661
0.000801893
0.000802052
0.000802235
0.000802388
0.000802627
0.000802788
0.000803027
0.00080323
0.000803531
0.000803729
0.000804033
0.000804252
0.000804638
0.000804887
0.00080537
0.000805663
0.000806247
0.000806581
0.000807295
0.000807711
0.000808639
0.000809111
0.000810775
0.000811009
0.000824506
0.000879168
0.00231758
0.00101906
0.00094402
0.000901234
0.000875378
0.000858405
0.000846543
0.000837827
0.000831225
0.000826071
0.000821984
0.000818671
0.000815963
0.00081371
0.000811828
0.00081023
0.000808876
0.000807705
0.000806697
0.000805818
0.000805062
0.000804386
0.000803798
0.000803269
0.000802819
0.000802396
0.000802026
0.000801691
0.00080141
0.000801138
0.000800906
0.000800686
0.000800522
0.000800319
0.00080016
0.000800025
0.000799926
0.000799804
0.000799709
0.000799625
0.000799567
0.000799463
0.000799404
0.000799363
0.000799317
0.000799184
0.000799222
0.000799221
0.000799221
0.000799218
0.000799207
0.000799144
0.000799229
0.00079923
0.000799229
0.000799218
0.000799335
0.000799403
0.000799403
0.000799562
0.000799587
0.000799587
0.000799673
0.000799847
0.000800054
0.000800183
0.000800308
0.000800394
0.000800545
0.000800693
0.000800924
0.000801083
0.000801266
0.00080142
0.000801658
0.000801819
0.000802058
0.000802261
0.000802562
0.00080276
0.000803065
0.000803283
0.000803669
0.000803917
0.0008044
0.000804691
0.000805275
0.000805608
0.000806322
0.000806736
0.000807662
0.000808132
0.000809796
0.000810018
0.000823851
0.000878395
0.00231589
0.00101907
0.000943864
0.000900896
0.000874896
0.000857816
0.000845873
0.000837096
0.000830444
0.000825252
0.000821132
0.000817793
0.000815062
0.000812791
0.000810892
0.00080928
0.000807914
0.000806732
0.000805715
0.000804827
0.000804064
0.000803382
0.000802787
0.000802253
0.000801799
0.000801371
0.000800997
0.000800659
0.000800375
0.000800099
0.000799865
0.000799643
0.000799477
0.000799272
0.000799111
0.000798974
0.000798873
0.00079875
0.000798654
0.000798568
0.000798509
0.000798404
0.000798344
0.000798302
0.000798255
0.000798122
0.000798158
0.000798157
0.000798157
0.000798154
0.000798142
0.000798078
0.000798162
0.000798162
0.000798162
0.00079815
0.000798267
0.000798333
0.000798333
0.000798492
0.000798517
0.000798516
0.000798603
0.000798776
0.000798983
0.000799112
0.000799238
0.000799325
0.000799475
0.000799622
0.000799853
0.000800011
0.000800196
0.000800349
0.000800587
0.000800748
0.000800987
0.000801189
0.00080149
0.000801688
0.000801994
0.000802211
0.000802597
0.000802845
0.000803327
0.000803618
0.000804201
0.000804533
0.000805245
0.000805659
0.000806583
0.00080705
0.000808714
0.000808924
0.000823131
0.000877533
0.00231141
0.00101908
0.000943695
0.000900527
0.00087437
0.000857172
0.000845141
0.000836295
0.00082959
0.000824354
0.000820199
0.000816831
0.000814075
0.000811782
0.000809866
0.000808238
0.000806859
0.000805665
0.000804638
0.000803741
0.00080297
0.00080228
0.000801679
0.000801139
0.00080068
0.000800248
0.00079987
0.000799527
0.000799239
0.000798961
0.000798723
0.000798499
0.00079833
0.000798123
0.00079796
0.00079782
0.000797718
0.000797593
0.000797496
0.000797409
0.000797349
0.000797243
0.000797182
0.000797139
0.000797091
0.000796958
0.000796991
0.00079699
0.00079699
0.000796986
0.000796973
0.000796908
0.000796991
0.000796991
0.000796991
0.000796978
0.000797094
0.00079716
0.00079716
0.000797318
0.000797343
0.000797343
0.000797429
0.000797601
0.000797808
0.000797937
0.000798064
0.000798151
0.000798301
0.000798447
0.000798677
0.000798836
0.000799021
0.000799174
0.000799412
0.000799574
0.000799813
0.000800013
0.000800314
0.000800513
0.000800819
0.000801035
0.000801421
0.000801668
0.00080215
0.00080244
0.000803022
0.000803354
0.000804064
0.000804477
0.000805399
0.000805864
0.000807526
0.000807723
0.000822345
0.000876579
0.00230417
0.0010191
0.000943512
0.000900128
0.000873799
0.000856474
0.000844346
0.000835425
0.000828661
0.000823378
0.000819184
0.000815783
0.000813001
0.000810685
0.000808749
0.000807104
0.00080571
0.000804504
0.000803465
0.000802558
0.000801778
0.00080108
0.000800472
0.000799926
0.000799461
0.000799023
0.000798641
0.000798294
0.000798002
0.00079772
0.00079748
0.000797252
0.00079708
0.000796871
0.000796706
0.000796564
0.00079646
0.000796333
0.000796234
0.000796146
0.000796084
0.000795978
0.000795915
0.000795871
0.000795822
0.000795688
0.000795719
0.000795719
0.000795718
0.000795714
0.0007957
0.000795634
0.000795715
0.000795715
0.000795715
0.000795701
0.000795817
0.000795881
0.000795881
0.000796039
0.000796064
0.000796063
0.00079615
0.000796321
0.000796528
0.000796657
0.000796785
0.000796872
0.000797022
0.000797167
0.000797396
0.000797555
0.000797741
0.000797893
0.000798131
0.000798293
0.000798532
0.000798732
0.000799033
0.000799232
0.000799538
0.000799754
0.00080014
0.000800386
0.000800867
0.000801156
0.000801737
0.000802069
0.000802776
0.000803188
0.000804108
0.00080457
0.000806232
0.000806414
0.00082149
0.000875532
0.00229422
0.00101911
0.000943317
0.000899699
0.000873184
0.00085572
0.000843486
0.000834485
0.000827657
0.000822322
0.000818085
0.00081465
0.000811838
0.000809497
0.000807539
0.000805876
0.000804466
0.000803246
0.000802194
0.000801276
0.000800487
0.000799781
0.000799165
0.000798612
0.00079814
0.000797697
0.00079731
0.000796958
0.000796662
0.000796376
0.000796132
0.000795901
0.000795726
0.000795515
0.000795347
0.000795203
0.000795096
0.000794968
0.000794867
0.000794777
0.000794714
0.000794606
0.000794542
0.000794496
0.000794448
0.000794313
0.000794341
0.000794341
0.000794339
0.000794335
0.00079432
0.000794253
0.000794332
0.000794332
0.000794332
0.000794318
0.000794433
0.000794495
0.000794496
0.000794652
0.000794677
0.000794677
0.000794764
0.000794934
0.00079514
0.000795269
0.000795398
0.000795486
0.000795636
0.000795779
0.000796008
0.000796167
0.000796354
0.000796505
0.000796743
0.000796905
0.000797144
0.000797343
0.000797644
0.000797843
0.000798149
0.000798365
0.00079875
0.000798996
0.000799476
0.000799764
0.000800345
0.000800675
0.000801381
0.000801791
0.000802708
0.000803167
0.000804829
0.000804996
0.000820566
0.000874391
0.0022816
0.00101913
0.00094311
0.000899241
0.000872525
0.00085491
0.000842563
0.000833474
0.000826576
0.000821186
0.000816903
0.00081343
0.000810585
0.000808218
0.000806237
0.000804554
0.000803126
0.00080189
0.000800825
0.000799896
0.000799095
0.00079838
0.000797756
0.000797195
0.000796716
0.000796268
0.000795874
0.000795518
0.000795217
0.000794927
0.000794679
0.000794444
0.000794267
0.000794053
0.000793882
0.000793735
0.000793626
0.000793496
0.000793393
0.0007933
0.000793237
0.000793128
0.000793062
0.000793015
0.000792965
0.00079283
0.000792855
0.000792855
0.000792853
0.000792848
0.000792832
0.000792764
0.000792841
0.000792841
0.00079284
0.000792826
0.00079294
0.000793001
0.000793001
0.000793157
0.000793182
0.000793182
0.000793269
0.000793437
0.000793643
0.000793773
0.000793903
0.000793991
0.00079414
0.000794283
0.00079451
0.00079467
0.000794857
0.000795008
0.000795246
0.000795408
0.000795647
0.000795845
0.000796146
0.000796345
0.000796652
0.000796866
0.000797252
0.000797496
0.000797975
0.000798263
0.000798842
0.000799172
0.000799875
0.000800284
0.000801199
0.000801654
0.000803315
0.000803466
0.000819572
0.000873154
0.00226639
0.00101915
0.000942891
0.000898753
0.000871822
0.000854045
0.000841575
0.000832392
0.000825419
0.000819968
0.000815636
0.000812121
0.000809242
0.000806845
0.000804839
0.000803134
0.000801688
0.000800436
0.000799356
0.000798414
0.000797602
0.000796877
0.000796243
0.000795675
0.000795188
0.000794733
0.000794334
0.000793972
0.000793666
0.000793371
0.00079312
0.000792881
0.000792699
0.000792483
0.000792309
0.000792159
0.000792048
0.000791915
0.00079181
0.000791716
0.00079165
0.00079154
0.000791473
0.000791423
0.000791373
0.000791238
0.000791259
0.000791259
0.000791257
0.000791251
0.000791235
0.000791164
0.00079124
0.00079124
0.000791239
0.000791223
0.000791337
0.000791396
0.000791396
0.000791552
0.000791577
0.000791576
0.000791663
0.000791831
0.000792036
0.000792166
0.000792296
0.000792385
0.000792535
0.000792675
0.000792902
0.000793062
0.00079325
0.0007934
0.000793638
0.0007938
0.000794039
0.000794236
0.000794537
0.000794736
0.000795043
0.000795257
0.000795642
0.000795885
0.000796364
0.00079665
0.000797228
0.000797557
0.000798258
0.000798665
0.000799578
0.000800029
0.000801689
0.000801824
0.000818503
0.000871817
0.00224865
0.00101917
0.00094266
0.000898236
0.000871074
0.000853124
0.000840523
0.000831238
0.000824184
0.000818668
0.000814283
0.000810724
0.000807808
0.000805379
0.000803346
0.000801618
0.000800151
0.000798881
0.000797786
0.00079683
0.000796006
0.000795269
0.000794627
0.000794049
0.000793555
0.000793092
0.000792687
0.000792318
0.000792008
0.000791708
0.000791452
0.000791208
0.000791023
0.000790804
0.000790627
0.000790473
0.000790359
0.000790224
0.000790118
0.00079002
0.000789953
0.000789842
0.000789773
0.000789721
0.000789671
0.000789534
0.000789553
0.000789552
0.00078955
0.000789543
0.000789526
0.000789454
0.000789527
0.000789527
0.000789526
0.000789509
0.000789622
0.000789679
0.00078968
0.000789834
0.000789859
0.000789858
0.000789945
0.000790112
0.000790316
0.000790446
0.000790578
0.000790667
0.000790816
0.000790956
0.000791181
0.000791341
0.00079153
0.00079168
0.000791917
0.000792079
0.000792318
0.000792514
0.000792815
0.000793014
0.000793322
0.000793535
0.00079392
0.000794162
0.000794639
0.000794925
0.000795501
0.000795829
0.000796528
0.000796933
0.000797843
0.000798291
0.00079995
0.000800068
0.000817359
0.00087038
0.00222847
0.0010192
0.000942418
0.00089769
0.000870282
0.000852147
0.000839405
0.000830011
0.000822871
0.000817286
0.000812843
0.000809237
0.000806281
0.000803818
0.000801756
0.000800003
0.000798514
0.000797225
0.000796114
0.000795142
0.000794305
0.000793557
0.000792904
0.000792316
0.000791814
0.000791344
0.000790931
0.000790557
0.00079024
0.000789935
0.000789674
0.000789426
0.000789237
0.000789014
0.000788834
0.000788677
0.00078856
0.000788422
0.000788313
0.000788213
0.000788144
0.000788031
0.00078796
0.000787907
0.000787856
0.000787719
0.000787734
0.000787733
0.00078773
0.000787722
0.000787704
0.00078763
0.000787701
0.000787701
0.0007877
0.000787682
0.000787794
0.000787849
0.000787849
0.000788003
0.000788028
0.000788027
0.000788114
0.000788279
0.000788483
0.000788613
0.000788745
0.000788835
0.000788985
0.000789122
0.000789346
0.000789507
0.000789696
0.000789846
0.000790083
0.000790245
0.000790484
0.000790679
0.000790979
0.000791178
0.000791486
0.000791698
0.000792083
0.000792324
0.000792801
0.000793084
0.00079366
0.000793987
0.000794683
0.000795086
0.000795992
0.000796436
0.000798094
0.000798195
0.000816136
0.000868838
0.00220595
0.00101922
0.000942164
0.000897116
0.000869447
0.000851114
0.000838222
0.000828712
0.00082148
0.00081582
0.000811316
0.000807659
0.000804661
0.000802162
0.000800068
0.000798288
0.000796776
0.000795467
0.000794337
0.00079335
0.000792499
0.000791738
0.000791074
0.000790476
0.000789964
0.000789486
0.000789066
0.000788685
0.000788362
0.000788051
0.000787785
0.000787532
0.000787339
0.000787113
0.000786929
0.000786768
0.000786648
0.000786508
0.000786396
0.000786293
0.000786222
0.000786108
0.000786035
0.000785979
0.000785927
0.00078579
0.000785801
0.0007858
0.000785795
0.000785787
0.000785767
0.000785692
0.00078576
0.00078576
0.000785759
0.00078574
0.000785851
0.000785904
0.000785904
0.000786057
0.000786081
0.000786081
0.000786167
0.000786331
0.000786534
0.000786664
0.000786798
0.000786888
0.000787037
0.000787173
0.000787396
0.000787556
0.000787747
0.000787896
0.000788132
0.000788294
0.000788534
0.000788727
0.000789028
0.000789226
0.000789535
0.000789746
0.000790131
0.00079037
0.000790845
0.000791128
0.000791702
0.000792028
0.000792721
0.000793123
0.000794025
0.000794465
0.000796121
0.000796205
0.000814831
0.000867188
0.00218118
0.00101925
0.000941901
0.000896513
0.000868568
0.000850026
0.000836974
0.00082734
0.00082001
0.000814271
0.000809701
0.000805991
0.000802946
0.000800409
0.000798282
0.000796474
0.000794936
0.000793605
0.000792457
0.000791453
0.000790586
0.000789812
0.000789135
0.000788527
0.000788005
0.000787519
0.000787091
0.000786702
0.000786372
0.000786056
0.000785784
0.000785526
0.000785328
0.000785098
0.00078491
0.000784745
0.000784621
0.000784478
0.000784364
0.000784258
0.000784185
0.000784069
0.000783994
0.000783936
0.000783883
0.000783745
0.000783753
0.000783751
0.000783745
0.000783736
0.000783715
0.000783639
0.000783703
0.000783703
0.000783703
0.000783682
0.000783791
0.000783842
0.000783842
0.000783994
0.000784018
0.000784018
0.000784104
0.000784266
0.000784469
0.000784599
0.000784733
0.000784824
0.000784973
0.000785107
0.000785329
0.000785489
0.00078568
0.000785829
0.000786065
0.000786227
0.000786466
0.000786658
0.000786959
0.000787157
0.000787466
0.000787676
0.00078806
0.000788299
0.000788773
0.000789054
0.000789626
0.000789951
0.000790641
0.000791041
0.00079194
0.000792375
0.000794029
0.000794096
0.000813439
0.000865425
0.00215429
0.00101928
0.000941627
0.000895884
0.000867646
0.000848882
0.000835661
0.000825895
0.00081846
0.000812637
0.000807998
0.00080423
0.000801137
0.000798558
0.000796396
0.000794557
0.000792994
0.000791639
0.00079047
0.000789448
0.000788565
0.000787777
0.000787088
0.000786468
0.000785936
0.00078544
0.000785003
0.000784606
0.00078427
0.000783947
0.00078367
0.000783406
0.000783203
0.000782968
0.000782776
0.000782607
0.00078248
0.000782334
0.000782216
0.000782107
0.000782032
0.000781914
0.000781837
0.000781776
0.000781722
0.000781584
0.000781588
0.000781585
0.000781578
0.000781568
0.000781546
0.000781467
0.000781529
0.000781529
0.000781528
0.000781506
0.000781614
0.000781663
0.000781663
0.000781813
0.000781837
0.000781836
0.000781923
0.000782083
0.000782285
0.000782415
0.00078255
0.000782642
0.000782791
0.000782923
0.000783143
0.000783303
0.000783495
0.000783643
0.000783879
0.000784041
0.00078428
0.000784471
0.000784771
0.000784969
0.000785279
0.000785487
0.000785871
0.000786108
0.000786581
0.000786861
0.00078743
0.000787754
0.000788441
0.000788839
0.000789734
0.000790164
0.000791816
0.000791866
0.000811957
0.000863545
0.00212539
0.00101931
0.000941344
0.000895227
0.000866682
0.000847683
0.000834282
0.000824377
0.000816831
0.000810919
0.000806206
0.000802377
0.000799232
0.00079661
0.00079441
0.000792539
0.000790947
0.000789568
0.000788377
0.000787336
0.000786436
0.000785632
0.000784929
0.000784297
0.000783754
0.000783248
0.000782803
0.000782397
0.000782053
0.000781723
0.00078144
0.00078117
0.000780962
0.000780723
0.000780527
0.000780353
0.000780221
0.000780072
0.000779952
0.000779839
0.000779761
0.000779641
0.000779562
0.000779498
0.000779443
0.000779305
0.000779305
0.0007793
0.000779292
0.000779281
0.000779258
0.000779178
0.000779236
0.000779236
0.000779235
0.000779211
0.000779318
0.000779364
0.000779364
0.000779513
0.000779536
0.000779536
0.000779622
0.000779781
0.000779982
0.000780111
0.000780247
0.000780339
0.000780489
0.000780619
0.000780837
0.000780997
0.00078119
0.000781337
0.000781572
0.000781734
0.000781974
0.000782163
0.000782463
0.00078266
0.000782971
0.000783178
0.000783561
0.000783797
0.000784268
0.000784546
0.000785114
0.000785436
0.00078612
0.000786515
0.000787406
0.000787832
0.000789481
0.000789514
0.00081038
0.000861541
0.00209461
0.00101935
0.000941052
0.000894544
0.000865676
0.000846429
0.000832839
0.000822786
0.000815123
0.000809115
0.000804325
0.000800431
0.000797231
0.000794563
0.000792323
0.000790417
0.000788795
0.00078739
0.000786176
0.000785114
0.000784196
0.000783377
0.000782659
0.000782014
0.000781459
0.000780942
0.000780488
0.000780073
0.000779721
0.000779384
0.000779094
0.000778818
0.000778604
0.00077836
0.00077816
0.000777981
0.000777845
0.000777692
0.000777569
0.000777453
0.000777372
0.00077725
0.000777168
0.000777101
0.000777045
0.000776907
0.000776903
0.000776896
0.000776887
0.000776874
0.00077685
0.000776768
0.000776823
0.000776823
0.000776821
0.000776796
0.000776901
0.000776944
0.000776944
0.000777092
0.000777114
0.000777114
0.000777201
0.000777357
0.000777557
0.000777687
0.000777823
0.000777916
0.000778065
0.000778194
0.00077841
0.00077857
0.000778764
0.00077891
0.000779145
0.000779306
0.000779546
0.000779733
0.000780032
0.00078023
0.000780541
0.000780747
0.00078113
0.000781364
0.000781833
0.00078211
0.000782675
0.000782996
0.000783676
0.000784069
0.000784956
0.000785376
0.000787021
0.000787039
0.000808701
0.000859408
0.00206208
0.00101939
0.000940752
0.000893837
0.000864628
0.000845121
0.000831331
0.000821122
0.000813335
0.000807227
0.000802354
0.000798391
0.000795134
0.000792416
0.000790134
0.000788192
0.000786538
0.000785106
0.000783867
0.000782784
0.000781846
0.00078101
0.000780277
0.000779618
0.00077905
0.000778522
0.000778058
0.000777634
0.000777273
0.000776928
0.000776631
0.000776348
0.000776128
0.00077588
0.000775674
0.00077549
0.00077535
0.000775193
0.000775066
0.000774946
0.000774863
0.000774738
0.000774653
0.000774584
0.000774527
0.000774388
0.00077438
0.000774371
0.00077436
0.000774346
0.00077432
0.000774237
0.000774289
0.000774288
0.000774287