/*--------------------------------*- C++ -*----------------------------------*\
| =========                 |                                                 |
| \\      /  F ield         | OpenFOAM: The Open Source CFD Toolbox           |
|  \\    /   O peration     | Version:  v2012                                 |
|   \\  /    A nd           | Website:  www.openfoam.com                      |
|    \\/     M anipulation  |                                                 |
\*---------------------------------------------------------------------------*/
FoamFile
{
    version     2.0;
    format      ascii;
    class       volScalarField;
    location    "16.5";
    object      nut;
}
// * * * * * * * * * * * * * * * * * * * * * * * * * * * * * * * * * * * * * //

dimensions      [0 2 -1 0 0 0 0];


internalField   nonuniform List<scalar> 
209825
(
1.2386e-07
1.24051e-07
1.24709e-07
1.2535e-07
1.25882e-07
1.26312e-07
1.26666e-07
1.26959e-07
1.27208e-07
1.27419e-07
1.27602e-07
1.2776e-07
1.279e-07
1.28021e-07
1.28131e-07
1.28227e-07
1.28314e-07
1.2839e-07
1.28461e-07
1.28524e-07
1.28582e-07
1.28633e-07
1.28682e-07
1.28725e-07
1.28765e-07
1.288e-07
1.28835e-07
1.28865e-07
1.28894e-07
1.2892e-07
1.28946e-07
1.2897e-07
1.28988e-07
1.29003e-07
1.29025e-07
1.29044e-07
1.29061e-07
1.29072e-07
1.2909e-07
1.29105e-07
1.29113e-07
1.29119e-07
1.29141e-07
1.2915e-07
1.29141e-07
1.29156e-07
1.29165e-07
1.29171e-07
1.29183e-07
1.2919e-07
1.29203e-07
1.2921e-07
1.2921e-07
1.2921e-07
1.29214e-07
1.29219e-07
1.2922e-07
1.2922e-07
1.29246e-07
1.29251e-07
1.29231e-07
1.29243e-07
1.29271e-07
1.29294e-07
1.29286e-07
1.29306e-07
1.29319e-07
1.29326e-07
1.29351e-07
1.29366e-07
1.29376e-07
1.29375e-07
1.2939e-07
1.29388e-07
1.29412e-07
1.29427e-07
1.29436e-07
1.29456e-07
1.29469e-07
1.2948e-07
1.29494e-07
1.2952e-07
1.29537e-07
1.29574e-07
1.29599e-07
1.29644e-07
1.29671e-07
1.29727e-07
1.29763e-07
1.29837e-07
1.29881e-07
1.30024e-07
1.30057e-07
1.31107e-07
1.35868e-07
1.98052e-08
1.2386e-07
1.24051e-07
1.24709e-07
1.2535e-07
1.25881e-07
1.26311e-07
1.26665e-07
1.26959e-07
1.27208e-07
1.27419e-07
1.27602e-07
1.2776e-07
1.279e-07
1.28021e-07
1.28131e-07
1.28227e-07
1.28314e-07
1.2839e-07
1.28461e-07
1.28524e-07
1.28582e-07
1.28633e-07
1.28682e-07
1.28725e-07
1.28765e-07
1.288e-07
1.28835e-07
1.28865e-07
1.28894e-07
1.2892e-07
1.28946e-07
1.28971e-07
1.28989e-07
1.29004e-07
1.29025e-07
1.29045e-07
1.29061e-07
1.29072e-07
1.2909e-07
1.29105e-07
1.29113e-07
1.29119e-07
1.29141e-07
1.2915e-07
1.29141e-07
1.29156e-07
1.29165e-07
1.29171e-07
1.29183e-07
1.29191e-07
1.29204e-07
1.2921e-07
1.2921e-07
1.29211e-07
1.29215e-07
1.29219e-07
1.2922e-07
1.2922e-07
1.29246e-07
1.29251e-07
1.29232e-07
1.29243e-07
1.29272e-07
1.29295e-07
1.29287e-07
1.29306e-07
1.2932e-07
1.29326e-07
1.29351e-07
1.29366e-07
1.29377e-07
1.29375e-07
1.2939e-07
1.29388e-07
1.29412e-07
1.29427e-07
1.29436e-07
1.29456e-07
1.29469e-07
1.2948e-07
1.29494e-07
1.2952e-07
1.29537e-07
1.29574e-07
1.29599e-07
1.29644e-07
1.29671e-07
1.29727e-07
1.29763e-07
1.29837e-07
1.29881e-07
1.30024e-07
1.30058e-07
1.31109e-07
1.35872e-07
2.04e-08
1.2386e-07
1.2405e-07
1.24707e-07
1.25347e-07
1.25879e-07
1.26309e-07
1.26663e-07
1.26956e-07
1.27205e-07
1.27416e-07
1.27599e-07
1.27757e-07
1.27897e-07
1.28018e-07
1.28128e-07
1.28224e-07
1.28311e-07
1.28387e-07
1.28458e-07
1.28521e-07
1.2858e-07
1.28631e-07
1.28679e-07
1.28722e-07
1.28762e-07
1.28797e-07
1.28832e-07
1.28862e-07
1.28892e-07
1.28917e-07
1.28943e-07
1.28968e-07
1.28986e-07
1.29001e-07
1.29022e-07
1.29042e-07
1.29058e-07
1.29069e-07
1.29087e-07
1.29102e-07
1.2911e-07
1.29116e-07
1.29138e-07
1.29147e-07
1.29138e-07
1.29153e-07
1.29162e-07
1.29169e-07
1.29181e-07
1.29188e-07
1.29201e-07
1.29208e-07
1.29208e-07
1.29208e-07
1.29212e-07
1.29216e-07
1.29218e-07
1.29218e-07
1.29244e-07
1.29248e-07
1.29229e-07
1.29241e-07
1.29269e-07
1.29292e-07
1.29284e-07
1.29304e-07
1.29317e-07
1.29324e-07
1.29348e-07
1.29364e-07
1.29374e-07
1.29373e-07
1.29388e-07
1.29386e-07
1.29409e-07
1.29425e-07
1.29434e-07
1.29454e-07
1.29466e-07
1.29478e-07
1.29492e-07
1.29518e-07
1.29535e-07
1.29572e-07
1.29597e-07
1.29641e-07
1.29669e-07
1.29725e-07
1.29761e-07
1.29835e-07
1.29879e-07
1.30022e-07
1.30055e-07
1.31111e-07
1.35878e-07
2.1138e-08
1.2386e-07
1.24048e-07
1.24704e-07
1.25344e-07
1.25875e-07
1.26304e-07
1.26658e-07
1.26951e-07
1.272e-07
1.27411e-07
1.27595e-07
1.27752e-07
1.27893e-07
1.28014e-07
1.28124e-07
1.28219e-07
1.28307e-07
1.28383e-07
1.28454e-07
1.28517e-07
1.28575e-07
1.28626e-07
1.28675e-07
1.28718e-07
1.28758e-07
1.28793e-07
1.28828e-07
1.28858e-07
1.28888e-07
1.28913e-07
1.28939e-07
1.28964e-07
1.28982e-07
1.28997e-07
1.29018e-07
1.29038e-07
1.29054e-07
1.29065e-07
1.29083e-07
1.29098e-07
1.29106e-07
1.29113e-07
1.29134e-07
1.29143e-07
1.29134e-07
1.29149e-07
1.29159e-07
1.29165e-07
1.29177e-07
1.29184e-07
1.29197e-07
1.29204e-07
1.29204e-07
1.29204e-07
1.29208e-07
1.29213e-07
1.29214e-07
1.29214e-07
1.2924e-07
1.29245e-07
1.29225e-07
1.29237e-07
1.29266e-07
1.29288e-07
1.29281e-07
1.293e-07
1.29314e-07
1.2932e-07
1.29345e-07
1.2936e-07
1.29371e-07
1.29369e-07
1.29384e-07
1.29382e-07
1.29406e-07
1.29422e-07
1.2943e-07
1.2945e-07
1.29463e-07
1.29474e-07
1.29488e-07
1.29515e-07
1.29531e-07
1.29568e-07
1.29593e-07
1.29638e-07
1.29665e-07
1.29722e-07
1.29758e-07
1.29832e-07
1.29876e-07
1.30018e-07
1.30051e-07
1.31114e-07
1.35886e-07
2.19563e-08
1.23859e-07
1.24045e-07
1.24699e-07
1.25338e-07
1.25869e-07
1.26298e-07
1.26652e-07
1.26945e-07
1.27194e-07
1.27405e-07
1.27589e-07
1.27746e-07
1.27887e-07
1.28008e-07
1.28118e-07
1.28214e-07
1.28301e-07
1.28377e-07
1.28448e-07
1.28511e-07
1.2857e-07
1.28621e-07
1.2867e-07
1.28712e-07
1.28753e-07
1.28788e-07
1.28823e-07
1.28853e-07
1.28882e-07
1.28908e-07
1.28934e-07
1.28959e-07
1.28977e-07
1.28992e-07
1.29013e-07
1.29033e-07
1.29049e-07
1.2906e-07
1.29078e-07
1.29093e-07
1.29101e-07
1.29108e-07
1.29129e-07
1.29138e-07
1.29129e-07
1.29144e-07
1.29154e-07
1.2916e-07
1.29172e-07
1.29179e-07
1.29192e-07
1.29199e-07
1.29199e-07
1.292e-07
1.29204e-07
1.29208e-07
1.29209e-07
1.29209e-07
1.29235e-07
1.2924e-07
1.29221e-07
1.29232e-07
1.29261e-07
1.29284e-07
1.29276e-07
1.29296e-07
1.29309e-07
1.29316e-07
1.2934e-07
1.29356e-07
1.29366e-07
1.29365e-07
1.2938e-07
1.29378e-07
1.29402e-07
1.29417e-07
1.29426e-07
1.29446e-07
1.29459e-07
1.2947e-07
1.29484e-07
1.2951e-07
1.29527e-07
1.29564e-07
1.29589e-07
1.29634e-07
1.29661e-07
1.29717e-07
1.29753e-07
1.29827e-07
1.29871e-07
1.30014e-07
1.30047e-07
1.31118e-07
1.35896e-07
2.28431e-08
1.23859e-07
1.24041e-07
1.24694e-07
1.25331e-07
1.25861e-07
1.26291e-07
1.26644e-07
1.26937e-07
1.27187e-07
1.27397e-07
1.27581e-07
1.27739e-07
1.2788e-07
1.28001e-07
1.28111e-07
1.28206e-07
1.28294e-07
1.2837e-07
1.28441e-07
1.28504e-07
1.28563e-07
1.28614e-07
1.28663e-07
1.28706e-07
1.28746e-07
1.28781e-07
1.28816e-07
1.28846e-07
1.28876e-07
1.28902e-07
1.28927e-07
1.28952e-07
1.2897e-07
1.28985e-07
1.29007e-07
1.29027e-07
1.29043e-07
1.29054e-07
1.29072e-07
1.29087e-07
1.29095e-07
1.29101e-07
1.29123e-07
1.29132e-07
1.29123e-07
1.29138e-07
1.29148e-07
1.29154e-07
1.29166e-07
1.29173e-07
1.29186e-07
1.29193e-07
1.29193e-07
1.29194e-07
1.29198e-07
1.29202e-07
1.29203e-07
1.29203e-07
1.29229e-07
1.29234e-07
1.29215e-07
1.29227e-07
1.29255e-07
1.29278e-07
1.2927e-07
1.2929e-07
1.29304e-07
1.2931e-07
1.29335e-07
1.2935e-07
1.29361e-07
1.29359e-07
1.29374e-07
1.29372e-07
1.29396e-07
1.29412e-07
1.2942e-07
1.29441e-07
1.29454e-07
1.29465e-07
1.29479e-07
1.29505e-07
1.29522e-07
1.29559e-07
1.29584e-07
1.29629e-07
1.29656e-07
1.29712e-07
1.29748e-07
1.29822e-07
1.29866e-07
1.30009e-07
1.30041e-07
1.31124e-07
1.35907e-07
2.3796e-08
1.23858e-07
1.24037e-07
1.24687e-07
1.25323e-07
1.25853e-07
1.26282e-07
1.26635e-07
1.26928e-07
1.27178e-07
1.27388e-07
1.27572e-07
1.2773e-07
1.27871e-07
1.27992e-07
1.28102e-07
1.28198e-07
1.28286e-07
1.28361e-07
1.28433e-07
1.28496e-07
1.28555e-07
1.28606e-07
1.28655e-07
1.28698e-07
1.28738e-07
1.28773e-07
1.28808e-07
1.28838e-07
1.28868e-07
1.28894e-07
1.2892e-07
1.28945e-07
1.28963e-07
1.28978e-07
1.28999e-07
1.29019e-07
1.29036e-07
1.29047e-07
1.29065e-07
1.2908e-07
1.29088e-07
1.29094e-07
1.29116e-07
1.29125e-07
1.29116e-07
1.29131e-07
1.29141e-07
1.29147e-07
1.29159e-07
1.29166e-07
1.29179e-07
1.29186e-07
1.29186e-07
1.29187e-07
1.29191e-07
1.29195e-07
1.29197e-07
1.29197e-07
1.29223e-07
1.29227e-07
1.29208e-07
1.2922e-07
1.29248e-07
1.29271e-07
1.29264e-07
1.29283e-07
1.29297e-07
1.29304e-07
1.29328e-07
1.29343e-07
1.29354e-07
1.29353e-07
1.29368e-07
1.29366e-07
1.2939e-07
1.29406e-07
1.29414e-07
1.29434e-07
1.29447e-07
1.29459e-07
1.29473e-07
1.29499e-07
1.29516e-07
1.29553e-07
1.29578e-07
1.29623e-07
1.2965e-07
1.29706e-07
1.29742e-07
1.29816e-07
1.2986e-07
1.30003e-07
1.30034e-07
1.31132e-07
1.35918e-07
2.48152e-08
1.23858e-07
1.24032e-07
1.24678e-07
1.25313e-07
1.25842e-07
1.26271e-07
1.26624e-07
1.26917e-07
1.27167e-07
1.27378e-07
1.27562e-07
1.2772e-07
1.2786e-07
1.27982e-07
1.28092e-07
1.28188e-07
1.28276e-07
1.28351e-07
1.28423e-07
1.28486e-07
1.28545e-07
1.28596e-07
1.28645e-07
1.28688e-07
1.28729e-07
1.28764e-07
1.28799e-07
1.28829e-07
1.28859e-07
1.28885e-07
1.28911e-07
1.28936e-07
1.28954e-07
1.28969e-07
1.2899e-07
1.2901e-07
1.29027e-07
1.29038e-07
1.29056e-07
1.29071e-07
1.2908e-07
1.29086e-07
1.29107e-07
1.29117e-07
1.29108e-07
1.29123e-07
1.29132e-07
1.29139e-07
1.29151e-07
1.29158e-07
1.29171e-07
1.29178e-07
1.29178e-07
1.29179e-07
1.29183e-07
1.29187e-07
1.29189e-07
1.29189e-07
1.29215e-07
1.2922e-07
1.292e-07
1.29212e-07
1.29241e-07
1.29264e-07
1.29256e-07
1.29276e-07
1.2929e-07
1.29296e-07
1.29321e-07
1.29336e-07
1.29347e-07
1.29346e-07
1.29361e-07
1.29359e-07
1.29383e-07
1.29398e-07
1.29407e-07
1.29427e-07
1.2944e-07
1.29452e-07
1.29465e-07
1.29492e-07
1.29508e-07
1.29545e-07
1.29571e-07
1.29616e-07
1.29643e-07
1.29699e-07
1.29735e-07
1.29809e-07
1.29852e-07
1.29996e-07
1.30027e-07
1.31141e-07
1.3593e-07
2.59015e-08
1.23857e-07
1.24026e-07
1.24669e-07
1.25302e-07
1.2583e-07
1.26259e-07
1.26612e-07
1.26905e-07
1.27154e-07
1.27365e-07
1.2755e-07
1.27708e-07
1.27848e-07
1.2797e-07
1.2808e-07
1.28176e-07
1.28264e-07
1.2834e-07
1.28412e-07
1.28475e-07
1.28534e-07
1.28585e-07
1.28635e-07
1.28677e-07
1.28718e-07
1.28753e-07
1.28789e-07
1.28819e-07
1.28849e-07
1.28875e-07
1.289e-07
1.28926e-07
1.28944e-07
1.28959e-07
1.2898e-07
1.29e-07
1.29017e-07
1.29028e-07
1.29046e-07
1.29062e-07
1.2907e-07
1.29076e-07
1.29098e-07
1.29107e-07
1.29099e-07
1.29113e-07
1.29123e-07
1.29129e-07
1.29142e-07
1.29149e-07
1.29162e-07
1.29169e-07
1.29169e-07
1.29169e-07
1.29174e-07
1.29178e-07
1.2918e-07
1.2918e-07
1.29206e-07
1.29211e-07
1.29192e-07
1.29203e-07
1.29232e-07
1.29255e-07
1.29247e-07
1.29267e-07
1.29281e-07
1.29288e-07
1.29312e-07
1.29327e-07
1.29338e-07
1.29337e-07
1.29352e-07
1.29351e-07
1.29374e-07
1.2939e-07
1.29399e-07
1.29419e-07
1.29432e-07
1.29444e-07
1.29457e-07
1.29484e-07
1.295e-07
1.29537e-07
1.29563e-07
1.29607e-07
1.29635e-07
1.29691e-07
1.29727e-07
1.29801e-07
1.29844e-07
1.29987e-07
1.30018e-07
1.31153e-07
1.35943e-07
2.70557e-08
1.23856e-07
1.24019e-07
1.24658e-07
1.25289e-07
1.25816e-07
1.26245e-07
1.26598e-07
1.26891e-07
1.2714e-07
1.27351e-07
1.27536e-07
1.27694e-07
1.27835e-07
1.27957e-07
1.28067e-07
1.28163e-07
1.28251e-07
1.28327e-07
1.284e-07
1.28463e-07
1.28522e-07
1.28573e-07
1.28623e-07
1.28665e-07
1.28706e-07
1.28741e-07
1.28777e-07
1.28807e-07
1.28837e-07
1.28863e-07
1.28889e-07
1.28914e-07
1.28932e-07
1.28948e-07
1.28969e-07
1.28989e-07
1.29006e-07
1.29017e-07
1.29035e-07
1.29051e-07
1.29059e-07
1.29065e-07
1.29087e-07
1.29096e-07
1.29088e-07
1.29103e-07
1.29112e-07
1.29119e-07
1.29131e-07
1.29138e-07
1.29151e-07
1.29159e-07
1.29159e-07
1.29159e-07
1.29164e-07
1.29168e-07
1.2917e-07
1.2917e-07
1.29195e-07
1.29201e-07
1.29182e-07
1.29193e-07
1.29222e-07
1.29245e-07
1.29238e-07
1.29258e-07
1.29271e-07
1.29278e-07
1.29302e-07
1.29317e-07
1.29329e-07
1.29328e-07
1.29343e-07
1.29341e-07
1.29365e-07
1.29381e-07
1.2939e-07
1.2941e-07
1.29423e-07
1.29435e-07
1.29448e-07
1.29475e-07
1.29491e-07
1.29528e-07
1.29554e-07
1.29598e-07
1.29626e-07
1.29682e-07
1.29718e-07
1.29792e-07
1.29835e-07
1.29978e-07
1.30008e-07
1.31167e-07
1.35957e-07
2.82775e-08
1.23856e-07
1.24011e-07
1.24646e-07
1.25275e-07
1.25801e-07
1.26229e-07
1.26582e-07
1.26875e-07
1.27125e-07
1.27336e-07
1.27521e-07
1.27679e-07
1.2782e-07
1.27942e-07
1.28052e-07
1.28149e-07
1.28237e-07
1.28313e-07
1.28385e-07
1.28449e-07
1.28508e-07
1.28559e-07
1.28609e-07
1.28652e-07
1.28693e-07
1.28728e-07
1.28764e-07
1.28794e-07
1.28824e-07
1.2885e-07
1.28876e-07
1.28901e-07
1.2892e-07
1.28935e-07
1.28957e-07
1.28977e-07
1.28994e-07
1.29005e-07
1.29023e-07
1.29038e-07
1.29047e-07
1.29053e-07
1.29075e-07
1.29084e-07
1.29076e-07
1.29091e-07
1.29101e-07
1.29107e-07
1.2912e-07
1.29127e-07
1.29139e-07
1.29147e-07
1.29147e-07
1.29148e-07
1.29152e-07
1.29157e-07
1.29158e-07
1.29158e-07
1.29184e-07
1.29189e-07
1.2917e-07
1.29182e-07
1.29211e-07
1.29234e-07
1.29227e-07
1.29247e-07
1.29261e-07
1.29268e-07
1.29292e-07
1.29307e-07
1.29318e-07
1.29317e-07
1.29333e-07
1.29331e-07
1.29355e-07
1.29371e-07
1.29379e-07
1.29399e-07
1.29413e-07
1.29425e-07
1.29438e-07
1.29465e-07
1.29481e-07
1.29518e-07
1.29543e-07
1.29588e-07
1.29616e-07
1.29672e-07
1.29708e-07
1.29781e-07
1.29825e-07
1.29968e-07
1.29997e-07
1.31182e-07
1.35971e-07
2.95647e-08
1.23855e-07
1.24003e-07
1.24632e-07
1.25259e-07
1.25784e-07
1.26211e-07
1.26564e-07
1.26857e-07
1.27107e-07
1.27319e-07
1.27503e-07
1.27662e-07
1.27803e-07
1.27925e-07
1.28036e-07
1.28132e-07
1.28221e-07
1.28297e-07
1.2837e-07
1.28433e-07
1.28493e-07
1.28544e-07
1.28594e-07
1.28637e-07
1.28678e-07
1.28713e-07
1.28749e-07
1.2878e-07
1.2881e-07
1.28836e-07
1.28862e-07
1.28887e-07
1.28906e-07
1.28921e-07
1.28943e-07
1.28963e-07
1.2898e-07
1.28991e-07
1.29009e-07
1.29025e-07
1.29034e-07
1.2904e-07
1.29062e-07
1.29071e-07
1.29063e-07
1.29077e-07
1.29088e-07
1.29094e-07
1.29107e-07
1.29114e-07
1.29127e-07
1.29134e-07
1.29134e-07
1.29135e-07
1.2914e-07
1.29144e-07
1.29146e-07
1.29146e-07
1.29172e-07
1.29177e-07
1.29158e-07
1.2917e-07
1.29198e-07
1.29222e-07
1.29215e-07
1.29235e-07
1.29249e-07
1.29256e-07
1.2928e-07
1.29295e-07
1.29307e-07
1.29306e-07
1.29321e-07
1.2932e-07
1.29343e-07
1.29359e-07
1.29368e-07
1.29388e-07
1.29402e-07
1.29414e-07
1.29427e-07
1.29454e-07
1.2947e-07
1.29507e-07
1.29532e-07
1.29577e-07
1.29605e-07
1.29661e-07
1.29696e-07
1.2977e-07
1.29813e-07
1.29957e-07
1.29985e-07
1.31201e-07
1.35987e-07
3.09141e-08
1.23854e-07
1.23994e-07
1.24617e-07
1.25241e-07
1.25765e-07
1.26192e-07
1.26545e-07
1.26838e-07
1.27088e-07
1.273e-07
1.27485e-07
1.27643e-07
1.27785e-07
1.27907e-07
1.28018e-07
1.28115e-07
1.28204e-07
1.2828e-07
1.28353e-07
1.28416e-07
1.28476e-07
1.28527e-07
1.28577e-07
1.2862e-07
1.28662e-07
1.28697e-07
1.28733e-07
1.28764e-07
1.28794e-07
1.2882e-07
1.28846e-07
1.28872e-07
1.2889e-07
1.28906e-07
1.28928e-07
1.28948e-07
1.28965e-07
1.28976e-07
1.28994e-07
1.2901e-07
1.29019e-07
1.29025e-07
1.29047e-07
1.29057e-07
1.29049e-07
1.29063e-07
1.29073e-07
1.2908e-07
1.29093e-07
1.291e-07
1.29112e-07
1.2912e-07
1.2912e-07
1.29121e-07
1.29126e-07
1.2913e-07
1.29132e-07
1.29132e-07
1.29158e-07
1.29163e-07
1.29145e-07
1.29157e-07
1.29185e-07
1.29209e-07
1.29202e-07
1.29222e-07
1.29236e-07
1.29243e-07
1.29267e-07
1.29282e-07
1.29294e-07
1.29293e-07
1.29309e-07
1.29308e-07
1.29331e-07
1.29347e-07
1.29356e-07
1.29376e-07
1.29389e-07
1.29401e-07
1.29415e-07
1.29442e-07
1.29458e-07
1.29495e-07
1.2952e-07
1.29565e-07
1.29593e-07
1.29649e-07
1.29684e-07
1.29758e-07
1.29801e-07
1.29945e-07
1.29972e-07
1.31221e-07
1.36004e-07
3.23287e-08
1.23852e-07
1.23984e-07
1.24601e-07
1.25222e-07
1.25745e-07
1.26171e-07
1.26524e-07
1.26817e-07
1.27067e-07
1.27279e-07
1.27464e-07
1.27623e-07
1.27765e-07
1.27887e-07
1.27998e-07
1.28095e-07
1.28184e-07
1.28261e-07
1.28334e-07
1.28397e-07
1.28457e-07
1.28509e-07
1.28559e-07
1.28603e-07
1.28644e-07
1.28679e-07
1.28716e-07
1.28746e-07
1.28777e-07
1.28803e-07
1.28829e-07
1.28855e-07
1.28874e-07
1.28889e-07
1.28911e-07
1.28931e-07
1.28949e-07
1.2896e-07
1.28978e-07
1.28994e-07
1.29003e-07
1.29009e-07
1.29031e-07
1.29041e-07
1.29033e-07
1.29047e-07
1.29058e-07
1.29065e-07
1.29077e-07
1.29084e-07
1.29097e-07
1.29105e-07
1.29105e-07
1.29106e-07
1.29111e-07
1.29115e-07
1.29117e-07
1.29117e-07
1.29143e-07
1.29149e-07
1.2913e-07
1.29142e-07
1.2917e-07
1.29194e-07
1.29187e-07
1.29208e-07
1.29222e-07
1.29229e-07
1.29253e-07
1.29267e-07
1.2928e-07
1.29279e-07
1.29295e-07
1.29294e-07
1.29317e-07
1.29333e-07
1.29342e-07
1.29362e-07
1.29376e-07
1.29388e-07
1.29402e-07
1.29429e-07
1.29445e-07
1.29482e-07
1.29507e-07
1.29552e-07
1.29579e-07
1.29635e-07
1.29671e-07
1.29745e-07
1.29788e-07
1.29932e-07
1.29957e-07
1.31244e-07
1.36021e-07
3.38119e-08
1.23851e-07
1.23973e-07
1.24584e-07
1.25201e-07
1.25723e-07
1.26148e-07
1.26501e-07
1.26794e-07
1.27044e-07
1.27256e-07
1.27442e-07
1.27601e-07
1.27743e-07
1.27865e-07
1.27977e-07
1.28074e-07
1.28163e-07
1.2824e-07
1.28313e-07
1.28377e-07
1.28437e-07
1.28489e-07
1.2854e-07
1.28583e-07
1.28624e-07
1.2866e-07
1.28697e-07
1.28727e-07
1.28758e-07
1.28784e-07
1.28811e-07
1.28836e-07
1.28856e-07
1.28871e-07
1.28893e-07
1.28913e-07
1.28931e-07
1.28942e-07
1.28961e-07
1.28976e-07
1.28986e-07
1.28992e-07
1.29014e-07
1.29024e-07
1.29016e-07
1.2903e-07
1.29041e-07
1.29048e-07
1.29061e-07
1.29068e-07
1.2908e-07
1.29088e-07
1.29088e-07
1.29089e-07
1.29095e-07
1.29099e-07
1.29101e-07
1.29101e-07
1.29127e-07
1.29133e-07
1.29114e-07
1.29127e-07
1.29154e-07
1.29178e-07
1.29172e-07
1.29192e-07
1.29207e-07
1.29214e-07
1.29237e-07
1.29252e-07
1.29265e-07
1.29265e-07
1.2928e-07
1.29279e-07
1.29303e-07
1.29319e-07
1.29327e-07
1.29347e-07
1.29361e-07
1.29374e-07
1.29388e-07
1.29414e-07
1.29431e-07
1.29468e-07
1.29493e-07
1.29538e-07
1.29565e-07
1.29621e-07
1.29657e-07
1.2973e-07
1.29773e-07
1.29918e-07
1.29941e-07
1.31269e-07
1.3604e-07
3.53676e-08
1.2385e-07
1.23961e-07
1.24565e-07
1.25179e-07
1.25699e-07
1.26123e-07
1.26476e-07
1.26769e-07
1.27019e-07
1.27232e-07
1.27417e-07
1.27577e-07
1.27719e-07
1.27842e-07
1.27954e-07
1.28051e-07
1.28141e-07
1.28218e-07
1.28291e-07
1.28355e-07
1.28416e-07
1.28468e-07
1.28518e-07
1.28562e-07
1.28604e-07
1.2864e-07
1.28676e-07
1.28707e-07
1.28738e-07
1.28764e-07
1.28791e-07
1.28817e-07
1.28836e-07
1.28852e-07
1.28874e-07
1.28894e-07
1.28912e-07
1.28923e-07
1.28941e-07
1.28958e-07
1.28967e-07
1.28973e-07
1.28995e-07
1.29005e-07
1.28998e-07
1.29012e-07
1.29023e-07
1.2903e-07
1.29043e-07
1.2905e-07
1.29062e-07
1.2907e-07
1.29071e-07
1.29072e-07
1.29077e-07
1.29082e-07
1.29084e-07
1.29084e-07
1.29109e-07
1.29115e-07
1.29097e-07
1.2911e-07
1.29137e-07
1.29161e-07
1.29155e-07
1.29176e-07
1.2919e-07
1.29198e-07
1.29221e-07
1.29235e-07
1.29249e-07
1.29248e-07
1.29264e-07
1.29264e-07
1.29287e-07
1.29303e-07
1.29312e-07
1.29332e-07
1.29346e-07
1.29359e-07
1.29372e-07
1.29399e-07
1.29415e-07
1.29452e-07
1.29477e-07
1.29522e-07
1.2955e-07
1.29605e-07
1.29641e-07
1.29715e-07
1.29757e-07
1.29902e-07
1.29925e-07
1.31297e-07
1.3606e-07
3.69995e-08
1.23849e-07
1.23949e-07
1.24545e-07
1.25155e-07
1.25673e-07
1.26097e-07
1.26449e-07
1.26742e-07
1.26993e-07
1.27205e-07
1.27391e-07
1.27551e-07
1.27694e-07
1.27817e-07
1.27929e-07
1.28027e-07
1.28117e-07
1.28194e-07
1.28268e-07
1.28332e-07
1.28392e-07
1.28445e-07
1.28495e-07
1.28539e-07
1.28581e-07
1.28617e-07
1.28654e-07
1.28685e-07
1.28716e-07
1.28743e-07
1.28769e-07
1.28795e-07
1.28815e-07
1.28831e-07
1.28853e-07
1.28873e-07
1.28891e-07
1.28903e-07
1.28921e-07
1.28937e-07
1.28947e-07
1.28953e-07
1.28975e-07
1.28985e-07
1.28978e-07
1.28992e-07
1.29003e-07
1.2901e-07
1.29023e-07
1.2903e-07
1.29043e-07
1.29051e-07
1.29051e-07
1.29053e-07
1.29058e-07
1.29063e-07
1.29065e-07
1.29065e-07
1.2909e-07
1.29097e-07
1.29078e-07
1.29091e-07
1.29119e-07
1.29143e-07
1.29137e-07
1.29158e-07
1.29172e-07
1.2918e-07
1.29203e-07
1.29217e-07
1.29232e-07
1.29231e-07
1.29247e-07
1.29247e-07
1.2927e-07
1.29286e-07
1.29295e-07
1.29315e-07
1.29329e-07
1.29342e-07
1.29355e-07
1.29382e-07
1.29399e-07
1.29435e-07
1.2946e-07
1.29506e-07
1.29533e-07
1.29589e-07
1.29624e-07
1.29698e-07
1.2974e-07
1.29886e-07
1.29907e-07
1.31327e-07
1.36082e-07
3.87117e-08
1.23848e-07
1.23936e-07
1.24523e-07
1.25129e-07
1.25645e-07
1.26068e-07
1.2642e-07
1.26714e-07
1.26964e-07
1.27177e-07
1.27363e-07
1.27523e-07
1.27666e-07
1.2779e-07
1.27902e-07
1.28e-07
1.28091e-07
1.28168e-07
1.28242e-07
1.28307e-07
1.28367e-07
1.2842e-07
1.28471e-07
1.28515e-07
1.28557e-07
1.28593e-07
1.2863e-07
1.28662e-07
1.28693e-07
1.28719e-07
1.28746e-07
1.28772e-07
1.28792e-07
1.28808e-07
1.2883e-07
1.28851e-07
1.28869e-07
1.28881e-07
1.28899e-07
1.28915e-07
1.28925e-07
1.28932e-07
1.28953e-07
1.28964e-07
1.28957e-07
1.28971e-07
1.28982e-07
1.2899e-07
1.29003e-07
1.29009e-07
1.29022e-07
1.2903e-07
1.29031e-07
1.29032e-07
1.29038e-07
1.29043e-07
1.29045e-07
1.29045e-07
1.2907e-07
1.29077e-07
1.29058e-07
1.29072e-07
1.29099e-07
1.29123e-07
1.29118e-07
1.29139e-07
1.29153e-07
1.29161e-07
1.29184e-07
1.29198e-07
1.29213e-07
1.29212e-07
1.29229e-07
1.29228e-07
1.29251e-07
1.29267e-07
1.29276e-07
1.29296e-07
1.29311e-07
1.29324e-07
1.29338e-07
1.29364e-07
1.29381e-07
1.29418e-07
1.29442e-07
1.29488e-07
1.29515e-07
1.29571e-07
1.29606e-07
1.2968e-07
1.29722e-07
1.29868e-07
1.29887e-07
1.3136e-07
1.36104e-07
4.05083e-08
1.23846e-07
1.23922e-07
1.245e-07
1.25101e-07
1.25615e-07
1.26038e-07
1.2639e-07
1.26683e-07
1.26934e-07
1.27147e-07
1.27333e-07
1.27494e-07
1.27637e-07
1.27761e-07
1.27874e-07
1.27972e-07
1.28063e-07
1.28141e-07
1.28215e-07
1.2828e-07
1.28341e-07
1.28394e-07
1.28445e-07
1.28489e-07
1.28531e-07
1.28568e-07
1.28605e-07
1.28636e-07
1.28668e-07
1.28695e-07
1.28722e-07
1.28748e-07
1.28768e-07
1.28784e-07
1.28806e-07
1.28827e-07
1.28845e-07
1.28857e-07
1.28876e-07
1.28892e-07
1.28902e-07
1.28909e-07
1.2893e-07
1.28941e-07
1.28935e-07
1.28948e-07
1.2896e-07
1.28967e-07
1.2898e-07
1.28987e-07
1.28999e-07
1.29008e-07
1.29009e-07
1.2901e-07
1.29016e-07
1.29021e-07
1.29023e-07
1.29023e-07
1.29049e-07
1.29055e-07
1.29037e-07
1.29051e-07
1.29078e-07
1.29102e-07
1.29097e-07
1.29118e-07
1.29133e-07
1.29141e-07
1.29163e-07
1.29178e-07
1.29193e-07
1.29193e-07
1.29209e-07
1.29209e-07
1.29232e-07
1.29248e-07
1.29257e-07
1.29277e-07
1.29292e-07
1.29305e-07
1.29318e-07
1.29345e-07
1.29362e-07
1.29399e-07
1.29423e-07
1.29469e-07
1.29496e-07
1.29552e-07
1.29587e-07
1.29661e-07
1.29702e-07
1.29849e-07
1.29867e-07
1.31395e-07
1.36127e-07
4.23932e-08
1.23845e-07
1.23907e-07
1.24476e-07
1.25072e-07
1.25584e-07
1.26006e-07
1.26357e-07
1.2665e-07
1.26901e-07
1.27114e-07
1.27302e-07
1.27462e-07
1.27606e-07
1.2773e-07
1.27844e-07
1.27942e-07
1.28033e-07
1.28111e-07
1.28186e-07
1.28251e-07
1.28312e-07
1.28365e-07
1.28417e-07
1.28461e-07
1.28504e-07
1.28541e-07
1.28578e-07
1.2861e-07
1.28641e-07
1.28668e-07
1.28695e-07
1.28722e-07
1.28742e-07
1.28758e-07
1.28781e-07
1.28801e-07
1.2882e-07
1.28832e-07
1.28851e-07
1.28867e-07
1.28878e-07
1.28884e-07
1.28906e-07
1.28917e-07
1.28911e-07
1.28924e-07
1.28936e-07
1.28944e-07
1.28957e-07
1.28963e-07
1.28976e-07
1.28985e-07
1.28985e-07
1.28987e-07
1.28993e-07
1.28998e-07
1.29e-07
1.29e-07
1.29026e-07
1.29033e-07
1.29015e-07
1.29028e-07
1.29055e-07
1.2908e-07
1.29075e-07
1.29096e-07
1.29111e-07
1.29119e-07
1.29142e-07
1.29156e-07
1.29171e-07
1.29171e-07
1.29188e-07
1.29188e-07
1.29211e-07
1.29227e-07
1.29236e-07
1.29256e-07
1.29271e-07
1.29285e-07
1.29298e-07
1.29325e-07
1.29342e-07
1.29378e-07
1.29403e-07
1.29448e-07
1.29476e-07
1.29531e-07
1.29567e-07
1.2964e-07
1.29682e-07
1.29829e-07
1.29845e-07
1.31432e-07
1.36151e-07
4.43705e-08
1.23844e-07
1.23892e-07
1.2445e-07
1.25041e-07
1.25551e-07
1.25971e-07
1.26322e-07
1.26615e-07
1.26867e-07
1.2708e-07
1.27268e-07
1.27428e-07
1.27573e-07
1.27697e-07
1.27811e-07
1.2791e-07
1.28001e-07
1.2808e-07
1.28155e-07
1.2822e-07
1.28282e-07
1.28335e-07
1.28387e-07
1.28432e-07
1.28475e-07
1.28512e-07
1.28549e-07
1.28581e-07
1.28613e-07
1.2864e-07
1.28668e-07
1.28694e-07
1.28715e-07
1.28731e-07
1.28753e-07
1.28774e-07
1.28793e-07
1.28805e-07
1.28824e-07
1.28841e-07
1.28851e-07
1.28858e-07
1.28879e-07
1.28891e-07
1.28885e-07
1.28898e-07
1.28911e-07
1.28918e-07
1.28932e-07
1.28938e-07
1.2895e-07
1.2896e-07
1.2896e-07
1.28962e-07
1.28969e-07
1.28974e-07
1.28976e-07
1.28976e-07
1.29001e-07
1.29008e-07
1.28991e-07
1.29004e-07
1.29031e-07
1.29056e-07
1.29051e-07
1.29073e-07
1.29088e-07
1.29096e-07
1.29119e-07
1.29132e-07
1.29149e-07
1.29149e-07
1.29166e-07
1.29166e-07
1.29188e-07
1.29205e-07
1.29214e-07
1.29234e-07
1.29249e-07
1.29263e-07
1.29276e-07
1.29304e-07
1.2932e-07
1.29357e-07
1.29381e-07
1.29427e-07
1.29454e-07
1.2951e-07
1.29545e-07
1.29618e-07
1.29659e-07
1.29807e-07
1.29821e-07
1.31471e-07
1.36176e-07
4.64439e-08
1.23842e-07
1.23876e-07
1.24423e-07
1.25009e-07
1.25516e-07
1.25935e-07
1.26285e-07
1.26578e-07
1.2683e-07
1.27044e-07
1.27232e-07
1.27393e-07
1.27538e-07
1.27663e-07
1.27777e-07
1.27876e-07
1.27968e-07
1.28047e-07
1.28122e-07
1.28188e-07
1.2825e-07
1.28303e-07
1.28355e-07
1.284e-07
1.28444e-07
1.28481e-07
1.28519e-07
1.28551e-07
1.28583e-07
1.2861e-07
1.28638e-07
1.28664e-07
1.28685e-07
1.28702e-07
1.28724e-07
1.28746e-07
1.28764e-07
1.28777e-07
1.28796e-07
1.28813e-07
1.28824e-07
1.2883e-07
1.28852e-07
1.28864e-07
1.28858e-07
1.28871e-07
1.28884e-07
1.28892e-07
1.28905e-07
1.28912e-07
1.28923e-07
1.28933e-07
1.28934e-07
1.28936e-07
1.28943e-07
1.28948e-07
1.2895e-07
1.2895e-07
1.28975e-07
1.28983e-07
1.28965e-07
1.28979e-07
1.29006e-07
1.29031e-07
1.29027e-07
1.29049e-07
1.29064e-07
1.29072e-07
1.29094e-07
1.29108e-07
1.29124e-07
1.29125e-07
1.29142e-07
1.29142e-07
1.29165e-07
1.29181e-07
1.29191e-07
1.2921e-07
1.29226e-07
1.29241e-07
1.29253e-07
1.29281e-07
1.29297e-07
1.29334e-07
1.29358e-07
1.29404e-07
1.29431e-07
1.29487e-07
1.29522e-07
1.29595e-07
1.29636e-07
1.29784e-07
1.29796e-07
1.31512e-07
1.36201e-07
4.8617e-08
1.23841e-07
1.23859e-07
1.24395e-07
1.24974e-07
1.25478e-07
1.25896e-07
1.26246e-07
1.26539e-07
1.26791e-07
1.27005e-07
1.27193e-07
1.27355e-07
1.275e-07
1.27626e-07
1.2774e-07
1.2784e-07
1.27932e-07
1.28012e-07
1.28087e-07
1.28153e-07
1.28216e-07
1.2827e-07
1.28322e-07
1.28367e-07
1.28411e-07
1.28448e-07
1.28486e-07
1.28519e-07
1.28551e-07
1.28579e-07
1.28606e-07
1.28633e-07
1.28655e-07
1.28671e-07
1.28694e-07
1.28715e-07
1.28734e-07
1.28747e-07
1.28766e-07
1.28783e-07
1.28794e-07
1.28801e-07
1.28822e-07
1.28835e-07
1.2883e-07
1.28842e-07
1.28855e-07
1.28863e-07
1.28877e-07
1.28883e-07
1.28895e-07
1.28905e-07
1.28906e-07
1.28908e-07
1.28915e-07
1.2892e-07
1.28923e-07
1.28923e-07
1.28948e-07
1.28956e-07
1.28938e-07
1.28952e-07
1.28979e-07
1.29005e-07
1.29e-07
1.29022e-07
1.29038e-07
1.29046e-07
1.29068e-07
1.29082e-07
1.29099e-07
1.291e-07
1.29117e-07
1.29117e-07
1.2914e-07
1.29156e-07
1.29166e-07
1.29186e-07
1.29201e-07
1.29216e-07
1.29229e-07
1.29256e-07
1.29273e-07
1.29309e-07
1.29334e-07
1.29379e-07
1.29407e-07
1.29462e-07
1.29497e-07
1.2957e-07
1.29611e-07
1.2976e-07
1.2977e-07
1.31554e-07
1.36226e-07
5.08925e-08
1.2384e-07
1.23842e-07
1.24366e-07
1.24938e-07
1.25439e-07
1.25856e-07
1.26205e-07
1.26498e-07
1.2675e-07
1.26964e-07
1.27153e-07
1.27315e-07
1.27461e-07
1.27587e-07
1.27702e-07
1.27802e-07
1.27895e-07
1.27974e-07
1.2805e-07
1.28117e-07
1.2818e-07
1.28234e-07
1.28287e-07
1.28332e-07
1.28376e-07
1.28414e-07
1.28452e-07
1.28485e-07
1.28517e-07
1.28545e-07
1.28573e-07
1.286e-07
1.28622e-07
1.28639e-07
1.28662e-07
1.28683e-07
1.28702e-07
1.28715e-07
1.28734e-07
1.28751e-07
1.28763e-07
1.2877e-07
1.28791e-07
1.28804e-07
1.288e-07
1.28812e-07
1.28825e-07
1.28833e-07
1.28847e-07
1.28854e-07
1.28865e-07
1.28875e-07
1.28876e-07
1.28879e-07
1.28886e-07
1.28892e-07
1.28894e-07
1.28894e-07
1.28919e-07
1.28927e-07
1.2891e-07
1.28924e-07
1.2895e-07
1.28976e-07
1.28972e-07
1.28995e-07
1.2901e-07
1.29019e-07
1.29041e-07
1.29054e-07
1.29072e-07
1.29073e-07
1.2909e-07
1.29091e-07
1.29113e-07
1.2913e-07
1.2914e-07
1.29159e-07
1.29175e-07
1.2919e-07
1.29203e-07
1.29231e-07
1.29247e-07
1.29283e-07
1.29308e-07
1.29354e-07
1.29381e-07
1.29436e-07
1.29471e-07
1.29544e-07
1.29585e-07
1.29734e-07
1.29743e-07
1.31597e-07
1.36251e-07
5.32727e-08
1.23838e-07
1.23824e-07
1.24335e-07
1.24901e-07
1.25398e-07
1.25813e-07
1.26162e-07
1.26455e-07
1.26707e-07
1.26921e-07
1.27111e-07
1.27273e-07
1.27419e-07
1.27546e-07
1.27661e-07
1.27762e-07
1.27855e-07
1.27935e-07
1.28012e-07
1.28078e-07
1.28142e-07
1.28196e-07
1.28249e-07
1.28295e-07
1.2834e-07
1.28378e-07
1.28416e-07
1.28449e-07
1.28482e-07
1.2851e-07
1.28538e-07
1.28565e-07
1.28587e-07
1.28605e-07
1.28628e-07
1.28649e-07
1.28669e-07
1.28682e-07
1.28701e-07
1.28718e-07
1.2873e-07
1.28737e-07
1.28759e-07
1.28772e-07
1.28768e-07
1.2878e-07
1.28794e-07
1.28802e-07
1.28816e-07
1.28822e-07
1.28833e-07
1.28843e-07
1.28845e-07
1.28848e-07
1.28856e-07
1.28861e-07
1.28864e-07
1.28864e-07
1.28888e-07
1.28896e-07
1.2888e-07
1.28894e-07
1.2892e-07
1.28947e-07
1.28943e-07
1.28966e-07
1.28981e-07
1.2899e-07
1.29012e-07
1.29025e-07
1.29043e-07
1.29044e-07
1.29062e-07
1.29063e-07
1.29085e-07
1.29102e-07
1.29112e-07
1.29131e-07
1.29147e-07
1.29163e-07
1.29176e-07
1.29203e-07
1.2922e-07
1.29256e-07
1.29281e-07
1.29326e-07
1.29354e-07
1.29409e-07
1.29444e-07
1.29517e-07
1.29557e-07
1.29706e-07
1.29714e-07
1.31641e-07
1.36276e-07
5.57584e-08
1.23837e-07
1.23805e-07
1.24303e-07
1.24861e-07
1.25355e-07
1.25768e-07
1.26117e-07
1.26409e-07
1.26662e-07
1.26876e-07
1.27066e-07
1.27229e-07
1.27376e-07
1.27502e-07
1.27619e-07
1.27719e-07
1.27813e-07
1.27894e-07
1.27971e-07
1.28038e-07
1.28102e-07
1.28157e-07
1.2821e-07
1.28256e-07
1.28301e-07
1.28339e-07
1.28378e-07
1.28411e-07
1.28444e-07
1.28473e-07
1.28501e-07
1.28529e-07
1.28551e-07
1.28569e-07
1.28592e-07
1.28613e-07
1.28633e-07
1.28647e-07
1.28666e-07
1.28683e-07
1.28696e-07
1.28703e-07
1.28724e-07
1.28738e-07
1.28734e-07
1.28746e-07
1.2876e-07
1.28768e-07
1.28783e-07
1.28789e-07
1.288e-07