/*--------------------------------*- C++ -*----------------------------------*\
| =========                 |                                                 |
| \\      /  F ield         | OpenFOAM: The Open Source CFD Toolbox           |
|  \\    /   O peration     | Version:  v2012                                 |
|   \\  /    A nd           | Website:  www.openfoam.com                      |
|    \\/     M anipulation  |                                                 |
\*---------------------------------------------------------------------------*/
FoamFile
{
    version     2.0;
    format      ascii;
    class       volScalarField;
    location    "5";
    object      epsilon;
}
// * * * * * * * * * * * * * * * * * * * * * * * * * * * * * * * * * * * * * //

dimensions      [0 2 -3 0 0 0 0];


internalField   nonuniform List<scalar> 
209825
(
0.807738
0.799771
0.798304
0.797864
0.797662
0.797564
0.797503
0.797467
0.797437
0.79742
0.797402
0.797392
0.797374
0.797373
0.797372
0.79737
0.797365
0.797365
0.797362
0.797365
0.797363
0.79737
0.79737
0.797377
0.797377
0.797387
0.797387
0.797398
0.797398
0.797411
0.797411
0.797423
0.797423
0.797435
0.797435
0.797448
0.797448
0.797463
0.797463
0.797477
0.797477
0.797493
0.797493
0.79751
0.79751
0.797529
0.797529
0.797545
0.797545
0.797566
0.797566
0.797586
0.797586
0.797585
0.797589
0.797589
0.797606
0.797606
0.797637
0.797637
0.797637
0.79763
0.797661
0.797661
0.797677
0.797677
0.797739
0.797739
0.797739
0.797776
0.797776
0.797776
0.797826
0.797826
0.797918
0.797923
0.797981
0.79802
0.798058
0.798058
0.798171
0.798192
0.798328
0.798444
0.798555
0.798764
0.798986
0.799309
0.799785
0.800265
0.801487
0.802141
0.80797
0.810982
1.00629
187.33
0.807725
0.799747
0.798275
0.797833
0.79763
0.797532
0.797471
0.797434
0.797405
0.797387
0.797369
0.797359
0.797341
0.79734
0.797339
0.797337
0.797332
0.797332
0.797329
0.797332
0.79733
0.797336
0.797336
0.797344
0.797344
0.797354
0.797354
0.797365
0.797365
0.797378
0.797378
0.797389
0.797389
0.797402
0.797402
0.797414
0.797414
0.79743
0.79743
0.797444
0.797444
0.79746
0.79746
0.797477
0.797477
0.797496
0.797496
0.797512
0.797512
0.797533
0.797533
0.797553
0.797553
0.797552
0.797556
0.797556
0.797573
0.797573
0.797604
0.797604
0.797604
0.797597
0.797628
0.797628
0.797645
0.797645
0.797706
0.797706
0.797706
0.797744
0.797744
0.797743
0.797793
0.797793
0.797885
0.797891
0.797948
0.797988
0.798026
0.798026
0.798139
0.798161
0.798296
0.798413
0.798524
0.798733
0.798956
0.799279
0.799757
0.800237
0.801461
0.802116
0.807948
0.810979
1.00663
184.688
0.807652
0.799623
0.798135
0.797686
0.79748
0.797381
0.797319
0.797281
0.797251
0.797234
0.797215
0.797205
0.797187
0.797185
0.797184
0.797182
0.797177
0.797177
0.797174
0.797177
0.797175
0.797181
0.797181
0.797189
0.797189
0.797199
0.797199
0.79721
0.79721
0.797223
0.797223
0.797235
0.797235
0.797247
0.797247
0.79726
0.79726
0.797275
0.797275
0.79729
0.79729
0.797305
0.797305
0.797322
0.797322
0.797342
0.797342
0.797358
0.797358
0.797379
0.797379
0.797399
0.797399
0.797399
0.797402
0.797402
0.797419
0.797419
0.797451
0.797451
0.797451
0.797444
0.797475
0.797475
0.797492
0.797492
0.797554
0.797554
0.797553
0.797591
0.797592
0.797591
0.797641
0.797641
0.797734
0.79774
0.797797
0.797838
0.797876
0.797876
0.79799
0.798012
0.798148
0.798266
0.798378
0.798588
0.798812
0.799137
0.799617
0.8001
0.801328
0.801989
0.807815
0.810929
1.00728
181.694
0.807526
0.799411
0.797896
0.797437
0.797226
0.797124
0.797059
0.797021
0.79699
0.796972
0.796953
0.796943
0.796924
0.796922
0.796921
0.796919
0.796914
0.796914
0.79691
0.796913
0.796911
0.796918
0.796918
0.796925
0.796925
0.796935
0.796935
0.796946
0.796946
0.796959
0.796959
0.796971
0.796971
0.796984
0.796984
0.796997
0.796997
0.797013
0.797012
0.797027
0.797027
0.797043
0.797043
0.79706
0.79706
0.797079
0.797079
0.797096
0.797096
0.797117
0.797117
0.797137
0.797137
0.797137
0.797141
0.797141
0.797158
0.797158
0.79719
0.79719
0.797189
0.797182
0.797215
0.797215
0.797231
0.797231
0.797294
0.797294
0.797294
0.797332
0.797332
0.797332
0.797383
0.797383
0.797476
0.797483
0.79754
0.797582
0.797621
0.797621
0.797735
0.797758
0.797895
0.798015
0.798128
0.798339
0.798566
0.798894
0.799378
0.799865
0.8011
0.801769
0.807582
0.810838
1.0083
179.04
0.807347
0.799111
0.797558
0.797084
0.796866
0.796759
0.796692
0.796652
0.79662
0.796601
0.796582
0.796571
0.796551
0.79655
0.796548
0.796546
0.796541
0.79654
0.796537
0.796539
0.796537
0.796544
0.796544
0.796551
0.796551
0.796561
0.796561
0.796573
0.796573
0.796586
0.796586
0.796598
0.796598
0.79661
0.79661
0.796624
0.796624
0.79664
0.79664
0.796654
0.796654
0.79667
0.79667
0.796688
0.796688
0.796707
0.796707
0.796724
0.796724
0.796746
0.796746
0.796766
0.796766
0.796766
0.79677
0.79677
0.796788
0.796788
0.79682
0.79682
0.79682
0.796812
0.796846
0.796846
0.796862
0.796862
0.796926
0.796926
0.796926
0.796965
0.796965
0.796965
0.797017
0.797017
0.797111
0.797119
0.797176
0.797219
0.797258
0.797258
0.797374
0.797397
0.797536
0.797659
0.797773
0.797987
0.798217
0.798549
0.799038
0.799531
0.800775
0.801455
0.807248
0.810706
1.00976
176.993
0.807115
0.798722
0.797119
0.796626
0.796397
0.796286
0.796215
0.796173
0.796139
0.79612
0.796099
0.796088
0.796068
0.796066
0.796064
0.796061
0.796056
0.796055
0.796051
0.796054
0.796051
0.796058
0.796058
0.796065
0.796065
0.796076
0.796076
0.796087
0.796087
0.796101
0.796101
0.796113
0.796113
0.796126
0.796126
0.796139
0.796139
0.796156
0.796156
0.79617
0.79617
0.796187
0.796187
0.796204
0.796204
0.796224
0.796224
0.796242
0.796241
0.796263
0.796263
0.796284
0.796284
0.796284
0.796288
0.796288
0.796306
0.796306
0.796339
0.796339
0.796339
0.796332
0.796366
0.796366
0.796383
0.796383
0.796447
0.796448
0.796447
0.796488
0.796488
0.796488
0.79654
0.79654
0.796637
0.796646
0.796702
0.796747
0.796787
0.796787
0.796905
0.796929
0.797069
0.797196
0.797312
0.797528
0.797762
0.798099
0.798596
0.799095
0.800351
0.801046
0.806808
0.810533
1.01174
175.649
0.806831
0.798243
0.796578
0.79606
0.79582
0.795702
0.795627
0.795582
0.795547
0.795525
0.795504
0.795491
0.795471
0.795468
0.795466
0.795463
0.795457
0.795457
0.795452
0.795455
0.795452
0.795459
0.795458
0.795466
0.795466
0.795476
0.795476
0.795488
0.795488
0.795502
0.795502
0.795514
0.795514
0.795527
0.795527
0.795541
0.795541
0.795558
0.795558
0.795573
0.795573
0.79559
0.79559
0.795608
0.795608
0.795628
0.795628
0.795646
0.795646
0.795668
0.795668
0.795689
0.795689
0.795689
0.795693
0.795693
0.795712
0.795712
0.795746
0.795746
0.795746
0.795739
0.795774
0.795774
0.795791
0.795791
0.795857
0.795857
0.795857
0.795899
0.795899
0.795899
0.795953
0.795953
0.796051
0.796062
0.796117
0.796165
0.796206
0.796206
0.796326
0.796351
0.796493
0.796624
0.796742
0.796962
0.7972
0.797544
0.798049
0.798557
0.799825
0.800538
0.806262
0.810319
1.01435
175.016
0.806495
0.797673
0.795934
0.795386
0.795131
0.795005
0.794925
0.794878
0.794839
0.794816
0.794793
0.79478
0.794758
0.794755
0.794752
0.794749
0.794743
0.794742
0.794738
0.79474
0.794737
0.794743
0.794743
0.794751
0.794751
0.794761
0.794761
0.794773
0.794773
0.794787
0.794787
0.7948
0.7948
0.794814
0.794813
0.794827
0.794827
0.794845
0.794845
0.79486
0.79486
0.794877
0.794877
0.794896
0.794896
0.794917
0.794917
0.794935
0.794935
0.794957
0.794957
0.794979
0.79498
0.79498
0.794984
0.794984
0.795004
0.795004
0.795039
0.795038
0.795038
0.795031
0.795068
0.795068
0.795085
0.795084
0.795152
0.795153
0.795152
0.795196
0.795196
0.795196
0.795252
0.795252
0.795352
0.795365
0.79542
0.79547
0.795513
0.795513
0.795635
0.795661
0.795805
0.795941
0.796062
0.796285
0.79653
0.79688
0.797395
0.797912
0.799196
0.799931
0.805604
0.810062
1.01768
175.039
0.806106
0.797011
0.795185
0.794603
0.79433
0.794194
0.794108
0.794057
0.794016
0.793991
0.793966
0.793952
0.793929
0.793925
0.793922
0.793918
0.793912
0.793911
0.793905
0.793907
0.793904
0.79391
0.79391
0.793918
0.793917
0.793928
0.793928
0.793941
0.793941
0.793955
0.793955
0.793968
0.793968
0.793982
0.793982
0.793996
0.793996
0.794015
0.794015
0.79403
0.79403
0.794048
0.794048
0.794067
0.794067
0.794088
0.794088
0.794106
0.794106
0.79413
0.79413
0.794152
0.794153
0.794153
0.794157
0.794157
0.794178
0.794178
0.794214
0.794214
0.794214
0.794206
0.794245
0.794245
0.794262
0.794262
0.794332
0.794332
0.794332
0.794378
0.794378
0.794377
0.794435
0.794435
0.794537
0.794553
0.794607
0.79466
0.794704
0.794704
0.79483
0.794857
0.795004
0.795146
0.795269
0.795497
0.795748
0.796106
0.796632
0.79716
0.798461
0.79922
0.804833
0.809762
1.02184
175.627
0.805665
0.796257
0.79433
0.793707
0.793414
0.793267
0.793174
0.793118
0.793073
0.793046
0.79302
0.793004
0.79298
0.792975
0.792971
0.792967
0.792961
0.792959
0.792953
0.792955
0.792951
0.792957
0.792957
0.792965
0.792964
0.792975
0.792975
0.792988
0.792988
0.793003
0.793003
0.793016
0.793016
0.79303
0.79303
0.793045
0.793045
0.793065
0.793065
0.79308
0.79308
0.793098
0.793098
0.793118
0.793118
0.79314
0.79314
0.793159
0.793159
0.793183
0.793183
0.793205
0.793208
0.793208
0.793211
0.793211
0.793234
0.793234
0.793271
0.793271
0.79327
0.793263
0.793304
0.793304
0.793321
0.793321
0.793393
0.793393
0.793393
0.793441
0.793441
0.793441
0.7935
0.7935
0.793605
0.793624
0.793676
0.793733
0.793779
0.79378
0.793908
0.793936
0.794086
0.794235
0.794362
0.794594
0.794852
0.795219
0.795757
0.796298
0.797616
0.798405
0.803945
0.809416
1.02695
176.666
0.805173
0.795411
0.793367
0.792697
0.792381
0.792221
0.79212
0.792059
0.79201
0.791981
0.791952
0.791935
0.791909
0.791903
0.791899
0.791894
0.791887
0.791885
0.791879
0.79188
0.791875
0.791882
0.791881
0.791889
0.791888
0.7919
0.7919
0.791913
0.791913
0.791928
0.791928
0.791942
0.791942
0.791957
0.791957
0.791972
0.791972
0.791992
0.791992
0.792008
0.792008
0.792027
0.792027
0.792048
0.792047
0.79207
0.79207
0.792089
0.792089
0.792114
0.792114
0.792137
0.79214
0.79214
0.792144
0.792144
0.792168
0.792168
0.792206
0.792206
0.792205
0.792198
0.792241
0.792241
0.792258
0.792258
0.792333
0.792333
0.792333
0.792384
0.792384
0.792384
0.792445
0.792445
0.792553
0.792575
0.792626
0.792686
0.792735
0.792735
0.792868
0.792897
0.79305
0.793207
0.793337
0.793574
0.79384
0.794217
0.794768
0.795322
0.79666
0.797481
0.802936
0.809024
1.03312
178.023
0.80463
0.79447
0.792296
0.791573
0.79123
0.791055
0.790945
0.790877
0.790824
0.790792
0.79076
0.790742
0.790714
0.790707
0.790702
0.790697
0.790689
0.790686
0.790679
0.79068
0.790675
0.790681
0.79068
0.790688
0.790687
0.790699
0.790699
0.790712
0.790712
0.790729
0.790729
0.790743
0.790743
0.790758
0.790758
0.790774
0.790774
0.790795
0.790795
0.790811
0.790811
0.790831
0.79083
0.790852
0.790852
0.790875
0.790875
0.790895
0.790895
0.790921
0.790921
0.790944
0.790949
0.790949
0.790953
0.790953
0.790978
0.790978
0.791018
0.791017
0.791017
0.79101
0.791056
0.791055
0.791072
0.791072
0.79115
0.79115
0.79115
0.791203
0.791203
0.791203
0.791267
0.791267
0.791379
0.791404
0.791454
0.791518
0.79157
0.79157
0.791706
0.791737
0.791893
0.792058
0.792192
0.792434
0.792709
0.793097
0.793663
0.794231
0.795589
0.796446
0.801804
0.808581
1.0405
179.562
0.804037
0.793436
0.791114
0.790331
0.789958
0.789766
0.789645
0.789571
0.789513
0.789477
0.789442
0.789422
0.789392
0.789384
0.789377
0.789372
0.789363
0.78936
0.789352
0.789352
0.789346
0.789353
0.789352
0.78936
0.789359
0.789371
0.789371
0.789385
0.789385
0.789401
0.789401
0.789416
0.789416
0.789432
0.789432
0.789448
0.789448
0.789471
0.789471
0.789487
0.789487
0.789507
0.789507
0.78953
0.78953
0.789554
0.789554
0.789575
0.789574
0.789601
0.789601
0.789624
0.789631
0.789631
0.789634
0.789634
0.789662
0.789662
0.789703
0.789703
0.789702
0.789695
0.789744
0.789744
0.78976
0.78976
0.789841
0.789841
0.789842
0.789898
0.789898
0.789898
0.789964
0.789964
0.790079
0.790109
0.790156
0.790226
0.79028
0.79028
0.79042
0.790453
0.790613
0.790787
0.790925
0.791173
0.791456
0.791856
0.792437
0.793021
0.7944
0.795296
0.800545
0.808086
1.0492
181.145
0.803394
0.792306
0.789821
0.78897
0.788563
0.788353
0.788219
0.788137
0.788073
0.788033
0.787995
0.787973
0.787941
0.787931
0.787923
0.787917
0.787907
0.787904
0.787895
0.787895
0.787888
0.787894
0.787893
0.787901
0.7879
0.787912
0.787912
0.787926
0.787926
0.787944
0.787944
0.787959
0.787959
0.787975
0.787975
0.787993
0.787993
0.788017
0.788017
0.788034
0.788033
0.788054
0.788054
0.788078
0.788078
0.788102
0.788102
0.788124
0.788124
0.788151
0.788151
0.788175
0.788183
0.788183
0.788187
0.788187
0.788216
0.788216
0.788259
0.788259
0.788258
0.788251
0.788303
0.788303
0.788319
0.788319
0.788404
0.788404
0.788404
0.788464
0.788464
0.788464
0.788533
0.788533
0.788652
0.788686
0.788731
0.788806
0.788863
0.788863
0.789008
0.789043
0.789206
0.78939
0.789532
0.789786
0.790079
0.790491
0.791089
0.791689
0.793089
0.794029
0.799157
0.807533
1.05934
182.643
0.802703
0.791082
0.788415
0.787489
0.787043
0.786811
0.786665
0.786574
0.786503
0.786459
0.786417
0.786392
0.786357
0.786346
0.786337
0.78633
0.786319
0.786315
0.786306
0.786304
0.786296
0.786303
0.786302
0.786309
0.786308
0.786321
0.78632
0.786335
0.786335
0.786353
0.786353
0.786369
0.786369
0.786386
0.786386
0.786404
0.786404
0.78643
0.78643
0.786447
0.786447
0.786468
0.786468
0.786493
0.786493
0.786519
0.786519
0.786541
0.786541
0.786569
0.786569
0.786594
0.786603
0.786603
0.786607
0.786607
0.786639
0.786639
0.786683
0.786683
0.786682
0.786675
0.786731
0.786731
0.786747
0.786747
0.786836
0.786836
0.786836
0.786899
0.786899
0.786899
0.786971
0.786971
0.787094
0.787132
0.787176
0.787256
0.787317
0.787317
0.787466
0.787503
0.78767
0.787864
0.788011
0.788272
0.788575
0.789
0.789614
0.790232
0.791653
0.79264
0.797637
0.806919
1.07105
183.934
0.801964
0.789762
0.786894
0.785884
0.785397
0.785141
0.784978
0.784878
0.7848
0.784751
0.784704
0.784677
0.784639
0.784626
0.784615
0.784607
0.784595
0.78459
0.78458
0.784578
0.784569
0.784575
0.784574
0.784581
0.78458
0.784593
0.784593
0.784608
0.784608
0.784627
0.784627
0.784643
0.784643
0.784661
0.784661
0.784679
0.784679
0.784707
0.784707
0.784724
0.784724
0.784747
0.784746
0.784773
0.784773
0.784799
0.784799
0.784823
0.784823
0.784852
0.784852
0.784877
0.784889
0.784888
0.784892
0.784892
0.784926
0.784926
0.784972
0.784972
0.784972
0.784964
0.785024
0.785024
0.78504
0.78504
0.785133
0.785133
0.785133
0.7852
0.7852
0.7852
0.785275
0.785275
0.785403
0.785446
0.785487
0.785573
0.785637
0.785637
0.785792
0.785831
0.786002
0.786208
0.786359
0.786626
0.78694
0.787379
0.788011
0.788647
0.790089
0.791127
0.795983
0.806236
1.08444
184.912
0.801179
0.788346
0.785258
0.784155
0.78362
0.783338
0.783158
0.783046
0.782961
0.782906
0.782855
0.782824
0.782783
0.782768
0.782755
0.782746
0.782733
0.782727
0.782716
0.782713
0.782703
0.782709
0.782707
0.782714
0.782713
0.782726
0.782726
0.782741
0.782741
0.782761
0.782761
0.782778
0.782778
0.782797
0.782796
0.782816
0.782816
0.782845
0.782845
0.782863
0.782863
0.782886
0.782886
0.782914
0.782914
0.782942
0.782942
0.782966
0.782966
0.782997
0.782997
0.783021
0.783036
0.783035
0.783039
0.783039
0.783076
0.783076
0.783124
0.783124
0.783123
0.783115
0.78318
0.783181
0.783195
0.783195
0.783292
0.783293
0.783293
0.783364
0.783364
0.783364
0.783443
0.783443
0.783575
0.783623
0.783662
0.783754
0.783822
0.783823
0.783983
0.784023
0.784199
0.784416
0.784573
0.784846
0.785172
0.785624
0.786275
0.786929
0.788392
0.789486
0.794191
0.805479
1.0996
185.485
0.800349
0.786835
0.783505
0.7823
0.781712
0.7814
0.781202
0.781077
0.780982
0.780921
0.780865
0.780831
0.780786
0.780769
0.780754
0.780744
0.780729
0.780722
0.78071
0.780706
0.780694
0.7807
0.780698
0.780705
0.780703
0.780716
0.780716
0.780732
0.780732
0.780753
0.780753
0.780771
0.780771
0.78079
0.78079
0.780811
0.780811
0.780842
0.780842
0.78086
0.78086
0.780884
0.780884
0.780914
0.780914
0.780942
0.780942
0.780967
0.780967
0.781
0.780999
0.781024
0.781041
0.781041
0.781045
0.781045
0.781085
0.781085
0.781134
0.781134
0.781134
0.781126
0.781195
0.781197
0.78121
0.78121
0.781312
0.781312
0.781312
0.781388
0.781388
0.781388
0.781471
0.781471
0.781608
0.781661
0.781697
0.781796
0.781869
0.781869
0.782035
0.782077
0.782257
0.782487
0.782649
0.782929
0.783266
0.783733
0.784403
0.785077
0.786559
0.787712
0.792258
0.804641
1.11661
185.58
0.799475
0.785228
0.781634
0.780317
0.779671
0.779326
0.779106
0.778968
0.778863
0.778795
0.778732
0.778694
0.778645
0.778625
0.778609
0.778597
0.778581
0.778573
0.778559
0.778555
0.778541
0.778546
0.778544
0.778551
0.778548
0.778562
0.778562
0.778578
0.778578
0.7786
0.7786
0.778619
0.778618
0.778639
0.778638
0.77866
0.77866
0.778694
0.778694
0.778712
0.778712
0.778737
0.778737
0.778768
0.778768
0.778798
0.778798
0.778824
0.778824
0.778858
0.778858
0.778883
0.778902
0.778902
0.778906
0.778906
0.77895
0.77895
0.779001
0.779001
0.779
0.778992
0.779066
0.779069
0.779081
0.779081
0.779188
0.779188
0.779188
0.779269
0.779269
0.779269
0.779355
0.779355
0.779498
0.779556
0.779589
0.779695
0.779773
0.779774
0.779945
0.77999
0.780173
0.780416
0.780584
0.780872
0.78122
0.781702
0.782391
0.783086
0.784586
0.785802
0.790181
0.803716
1.13553
185.141
0.798559
0.783525
0.779645
0.778203
0.777493
0.777111
0.776868
0.776715
0.776598
0.776523
0.776454
0.776411
0.776358
0.776335
0.776316
0.776302
0.776284
0.776275
0.77626
0.776255
0.776239
0.776244
0.776241
0.776248
0.776245
0.776258
0.776258
0.776275
0.776275
0.776298
0.776298
0.776317
0.776317
0.776338
0.776338
0.776361
0.776361
0.776397
0.776397
0.776416
0.776415
0.776441
0.776441
0.776475
0.776475
0.776505
0.776505
0.776533
0.776533
0.776568
0.776568
0.776593
0.776616
0.776616
0.776619
0.776619
0.776667
0.776667
0.77672
0.77672
0.776719
0.776711
0.77679
0.776795
0.776805
0.776805
0.776917
0.776918
0.776918
0.777003
0.777003
0.777003
0.777094
0.777094
0.777241
0.777305
0.777336
0.777449
0.777533
0.777533
0.77771
0.777757
0.777944
0.778202
0.778375
0.77867
0.779029
0.779527
0.780235
0.780951
0.782468
0.783753
0.787955
0.802695
1.15638
184.122
0.797603
0.781727
0.777535
0.775958
0.775178
0.774755
0.774486
0.774316
0.774187
0.774102
0.774026
0.773978
0.77392
0.773894
0.773872
0.773857
0.773837
0.773827
0.77381
0.773803
0.773786
0.77379
0.773787
0.773793
0.773789
0.773803
0.773803
0.77382
0.77382
0.773844
0.773844
0.773864
0.773864
0.773886
0.773886
0.773909
0.773909
0.773948
0.773948
0.773967
0.773967
0.773994
0.773994
0.77403
0.77403
0.774061
0.774061
0.77409
0.77409
0.774127
0.774127
0.774151
0.774178
0.774178
0.774181
0.774181
0.774234
0.774234
0.774288
0.774288
0.774287
0.774279
0.774363
0.774369
0.774378
0.774378
0.774495
0.774497
0.774497
0.774587
0.774587
0.774587
0.774682
0.774682
0.774835
0.774905
0.774933
0.775053
0.775143
0.775143
0.775327
0.775376
0.775567
0.775839
0.776018
0.77632
0.776691
0.777204
0.777932
0.778671
0.780202
0.781559
0.785576
0.80157
1.17915
182.501
0.796609
0.779834
0.775305
0.773579
0.772721
0.772255
0.771957
0.771768
0.771625
0.77153
0.771446
0.771393
0.771329
0.771299
0.771275
0.771257
0.771235
0.771223
0.771204
0.771197
0.771178
0.771181
0.771177
0.771183
0.771178
0.771192
0.771192
0.77121
0.77121
0.771234
0.771234
0.771255
0.771255
0.771278
0.771278
0.771303
0.771303
0.771344
0.771344
0.771364
0.771364
0.771392
0.771392
0.77143
0.771429
0.771463
0.771463
0.771493
0.771493
0.771531
0.771531
0.771555
0.771586
0.771586
0.771589
0.771588
0.771646
0.771646
0.771702
0.771702
0.771701
0.771692
0.771782
0.77179
0.771797
0.771797
0.77192
0.771922
0.771922
0.772018
0.772018
0.772018
0.772118
0.772118
0.772276
0.772353
0.772377
0.772505
0.772601
0.772601
0.772791
0.772842
0.773037
0.773324
0.77351
0.773819
0.774202
0.774731
0.775478
0.776239
0.777782
0.779217
0.78304
0.80033
1.20379
180.272
0.795578
0.777848
0.772953
0.771066
0.770123
0.769607
0.769278
0.769067
0.768909
0.768804
0.768711
0.768651
0.768582
0.768548
0.76852
0.7685
0.768475
0.768462
0.768441
0.768432
0.768411
0.768414
0.768409
0.768414
0.768408
0.768423
0.768422
0.76844
0.76844
0.768466
0.768466
0.768488
0.768488
0.768512
0.768511
0.768537
0.768537
0.768582
0.768582
0.768602
0.768602
0.768631
0.768631
0.768671
0.768671
0.768705
0.768705
0.768737
0.768737
0.768777
0.768776
0.7688
0.768835
0.768835
0.768838
0.768838
0.7689
0.768901
0.768958
0.768958
0.768957
0.768948
0.769043
0.769054
0.769059
0.769059
0.769188
0.76919
0.76919
0.769292
0.769292
0.769292
0.769397
0.769397
0.769561
0.769644
0.769665
0.7698
0.769904
0.769904
0.7701
0.770153
0.770352
0.770654
0.770847
0.771163
0.771558
0.772102
0.772869
0.773653
0.775205
0.776722
0.780343
0.798963
1.23019
177.441
0.794512
0.775767
0.770479
0.768416
0.76738
0.76681
0.766446
0.766213
0.766037
0.76592
0.765817
0.765751
0.765675
0.765636
0.765604
0.765582
0.765554
0.765539
0.765516
0.765506
0.765482
0.765484
0.765479
0.765483
0.765476
0.765491
0.76549
0.765508
0.765508
0.765535
0.765535
0.765557
0.765557
0.765582
0.765582
0.765609
0.765609
0.765657
0.765657
0.765677
0.765677
0.765707
0.765707
0.76575
0.76575
0.765786
0.765786
0.765819
0.765819
0.765861
0.76586
0.765883
0.765923
0.765923
0.765926
0.765925
0.765993
0.765995
0.766053
0.766053
0.766052
0.766043
0.766144
0.766156
0.76616
0.76616
0.766294
0.766298
0.766298
0.766405
0.766406
0.766406
0.766515
0.766515
0.766685
0.766775
0.766793
0.766936
0.767047
0.767047
0.76725
0.767305
0.767508
0.767825
0.768025
0.768348
0.768754
0.769314
0.7701
0.770908
0.772466
0.774071
0.777481
0.797459
1.25819
174.026
0.793414
0.773595
0.767883
0.765628
0.76449
0.763861
0.763458
0.7632
0.763006
0.762876
0.762762
0.762688
0.762605
0.762561
0.762525
0.7625
0.762469
0.762452
0.762426
0.762415
0.762389
0.762389
0.762383
0.762386
0.762378
0.762393
0.762392
0.76241
0.76241
0.762437
0.762437
0.762461
0.762461
0.762487
0.762487
0.762515
0.762515
0.762566
0.762566
0.762587
0.762587
0.762618
0.762618
0.762664
0.762664
0.762701
0.762701
0.762735
0.762735
0.762779
0.762779
0.7628
0.762846
0.762846
0.762848
0.762847
0.762921
0.762924
0.762982
0.762982
0.762982
0.762972
0.763079
0.763093
0.763096
0.763096
0.763236
0.763241
0.763241
0.763355
0.763355
0.763355
0.76347
0.76347
0.763646
0.763742
0.763757
0.763908
0.764027
0.764028
0.764237
0.764294
0.7645
0.764834
0.76504
0.76537
0.765787
0.766363
0.767168
0.768
0.769561
0.771259
0.77445
0.795803
1.28757
170.056
0.792287
0.771332
0.765164
0.762701
0.761452
0.760758
0.760313
0.760027
0.759812
0.759668
0.759542
0.75946
0.759368
0.759318
0.759278
0.759249
0.759215
0.759196
0.759168
0.759154
0.759126
0.759126
0.759118
0.75912
0.759111
0.759125
0.759124
0.759142
0.759142
0.759171
0.759171
0.759195
0.759195
0.759222
0.759222
0.759251
0.759251
0.759306
0.759306
0.759327
0.759327
0.759359
0.759359
0.759408
0.759408
0.759446
0.759446
0.759483
0.759483
0.759528
0.759528
0.759548
0.759599
0.759599
0.759602
0.7596
0.75968
0.759685
0.759744
0.759744
0.759743
0.759733
0.759847
0.759862
0.759864
0.759864
0.76001
0.760017
0.760016
0.760136
0.760137
0.760137
0.760257
0.760257
0.760439
0.760542
0.760554
0.760713
0.760841
0.760841
0.761057
0.761116
0.761325
0.761675
0.761889
0.762226
0.762654
0.763246
0.764067
0.764925
0.766484
0.768282
0.771245
0.793981
1.31804
165.568
0.791132
0.768979
0.762322
0.759633
0.758263
0.757499
0.757008
0.756691
0.756453
0.756293
0.756154
0.756062
0.755962
0.755906
0.75586
0.755828
0.75579
0.755768
0.755737
0.755722
0.755691
0.755689
0.755681
0.755681
0.75567
0.755684
0.755683
0.755701
0.755701
0.75573
0.75573
0.755756
0.755756
0.755784
0.755784
0.755814
0.755814
0.755873
0.755873
0.755894
0.755894
0.755928
0.755927
0.755979
0.755979
0.756019
0.756019
0.756057
0.756057
0.756104
0.756104
0.756122
0.756181
0.75618
0.756182
0.756181
0.756267
0.756275
0.756333
0.756333
0.756332
0.756322
0.756441
0.756459
0.75646
0.756459
0.756613
0.75662
0.75662
0.756746
0.756747
0.756747
0.756873
0.756873
0.757061
0.757172
0.757181
0.757346
0.757484
0.757485
0.757707
0.757768
0.757979
0.758346
0.758568
0.758911
0.759349
0.759957
0.760795
0.761679
0.763233
0.765135
0.767863
0.791978
1.34922
160.608
0.789953
0.766538
0.759357
0.756425
0.754923
0.754081
0.753539
0.753189
0.752926
0.752749
0.752595
0.752493
0.752384
0.75232
0.752269
0.752233
0.75219
0.752166
0.752131
0.752114
0.752081
0.752077
0.752068
0.752066
0.752053
0.752067
0.752065
0.752084
0.752083
0.752113
0.752113
0.752139
0.752139
0.752168
0.752168
0.7522
0.7522
0.752263
0.752263
0.752284
0.752284
0.752319
0.752318
0.752374
0.752374
0.752415
0.752415
0.752455
0.752455
0.752504
0.752504
0.75252
0.752585
0.752585
0.752587
0.752585
0.752677
0.752689
0.752746
0.752746
0.752745
0.752734
0.752861
0.75288
0.75288
0.75288
0.753039
0.753049
0.753049
0.753182
0.753183
0.753182
0.753314
0.753314
0.753508
0.753626
0.753633
0.753805
0.753953
0.753954
0.754183
0.754245
0.754459
0.754843
0.755072
0.755422
0.75587
0.756492
0.757347
0.758257
0.759802
0.761813
0.7643
0.789776
1.38067
155.226
0.788752
0.764011
0.756271
0.753075
0.75143
0.750503
0.749906
0.749518
0.749228
0.749032
0.748862
0.748749
0.748629
0.748558
0.7485
0.748459
0.748412
0.748385
0.748347
0.748328
0.748291
0.748286
0.748275
0.748272
0.748256
0.74827
0.748267
0.748286
0.748284
0.748316
0.748316
0.748342
0.748342
0.748372
0.748372
0.748405
0.748405
0.748473
0.748472
0.748493
0.748493
0.74853
0.748529
0.748589
0.748589
0.748631
0.748631
0.748673
0.748673
0.748724
0.748723
0.748738
0.74881
0.74881
0.748811
0.748809
0.748908
0.748924
0.748979
0.748979
0.748979
0.748967
0.7491
0.749121
0.749121
0.74912
0.749286
0.749298
0.749298
0.749438
0.749439
0.749439
0.749577
0.749577
0.749777
0.749902
0.749906
0.750086
0.750244
0.750246
0.750481
0.750545
0.750761
0.751161
0.751398
0.751754
0.752212
0.752849
0.753718
0.754655
0.756187
0.75831
0.760553
0.78736
1.41188
149.476
0.787532
0.761401
0.753063
0.749582
0.747782
0.746762
0.746105
0.745677
0.745357
0.745139
0.744952
0.744826
0.744695
0.744615
0.744551
0.744505
0.744453
0.744422
0.74438
0.744358
0.744318
0.744311
0.744298
0.744294
0.744276
0.744289
0.744285
0.744304
0.744301
0.744334
0.744334
0.744361
0.744361
0.744392
0.744392
0.744426
0.744426
0.744498
0.744498
0.744519
0.744519
0.744556
0.744556
0.74462
0.74462
0.744663
0.744663
0.744707
0.744707
0.744759
0.744759
0.744772
0.744851
0.744851
0.744852
0.74485
0.744955
0.744976
0.74503
0.74503
0.745029
0.745017
0.745157
0.74518
0.74518
0.745178
0.745351
0.745365
0.745365
0.745512
0.745513
0.745513
0.745657
0.745657
0.745863
0.745995
0.745998
0.746184
0.746354
0.746356
0.746598
0.746662
0.74688
0.747297
0.747542
0.747904
0.748371
0.749022
0.749905
0.750868
0.752384
0.754621
0.756618
0.784711
1.44226
143.415
0.786297
0.75871
0.749734
0.745947
0.743978
0.742858
0.742135
0.741662
0.74131
0.741069
0.740862
0.740723
0.740579
0.74049
0.740417
0.740366
0.740309
0.740274
0.740227
0.740203
0.74016
0.740151
0.740136
0.740129
0.740109
0.740121
0.740117
0.740134
0.740131
0.740165
0.740165
0.740193
0.740193
0.740225
0.740225
0.74026
0.74026
0.740337
0.740336
0.740357
0.740357
0.740395
0.740395
0.740463
0.740463
0.740508
0.740508
0.740554
0.740553
0.740608
0.740608
0.740619
0.740705
0.740705
0.740705
0.740703
0.740815
0.740842
0.740893
0.740893
0.740892
0.74088
0.741026
0.741051
0.741051
0.741049
0.741229
0.741246
0.741246
0.7414
0.741402
0.741401
0.741552
0.741551
0.741764
0.741903
0.741904
0.742097
0.742278
0.742281
0.742529
0.742594
0.742813
0.743247
0.743501
0.743868
0.744343
0.745008
0.745902
0.746893
0.748389
0.750741
0.752493
0.78181
1.47114
137.101
0.785048
0.755941
0.746286
0.742168
0.740017
0.738788
0.737993
0.737472
0.737084
0.736817
0.736589
0.736436
0.736278
0.736179
0.736098
0.73604
0.735977
0.735937
0.735886
0.735859
0.735812
0.7358
0.735783
0.735775
0.735751
0.735762
0.735757
0.735774
0.73577
0.735805
0.735804
0.735833
0.735833
0.735866
0.735866
0.735902
0.735902
0.735984
0.735983
0.736004
0.736004
0.736043
0.736043
0.736116
0.736116
0.736162
0.736162
0.73621
0.736209
0.736266
0.736266
0.736274
0.736368
0.736368
0.736368
0.736365
0.736484
0.736517
0.736566
0.736566
0.736565
0.736552
0.736705
0.736733
0.736733
0.73673
0.736916
0.736937
0.736937
0.737098
0.7371
0.737099
0.737257
0.737256
0.737475
0.73762
0.737621
0.73782
0.738013
0.738018
0.738272
0.738337
0.738557
0.739007
0.739269
0.739642
0.740124
0.740802
0.741707
0.742725
0.744197
0.746664
0.748173
0.778639
1.49782
130.593
0.78379
0.753096
0.74272
0.738248
0.7359
0.734552
0.733678
0.733105
0.732677
0.732383
0.732132
0.731962
0.73179
0.731679
0.731588
0.731524
0.731454
0.731409
0.731353
0.731323
0.731271
0.731257
0.731237
0.731228
0.7312
0.73121
0.731204
0.73122
0.731215
0.73125
0.73125
0.731279
0.731279
0.731313
0.731312
0.731349
0.731349
0.731436
0.731436
0.731456
0.731456
0.731497
0.731496
0.731575
0.731574
0.731622
0.731621
0.731671
0.73167
0.731729
0.731729
0.731736
0.731837
0.731837
0.731837
0.731834
0.731959
0.731999
0.732045
0.732045
0.732044
0.73203
0.732191
0.732221
0.732221
0.732218
0.73241
0.732435
0.732435
0.732603
0.732605
0.732605
0.732769
0.732768
0.732993
0.733145
0.733145
0.733349
0.733555
0.733562
0.733822
0.733887
0.734108
0.734573
0.734844
0.735222
0.735711
0.736401
0.737315
0.73836
0.739806
0.742384
0.743656
0.77518
1.52156
123.946
0.782526
0.75018
0.739038
0.734185
0.731624
0.730148
0.729189
0.728558
0.728088
0.727763
0.727487
0.727299
0.727111
0.726988
0.726886
0.726815
0.726737
0.726687
0.726626
0.726592
0.726535
0.726519
0.726496
0.726484
0.726453
0.726462
0.726454
0.726469
0.726463
0.726498
0.726498
0.726527
0.726527
0.726561
0.726561
0.726599
0.726599
0.726691
0.726691
0.726711
0.726711
0.726752
0.726752
0.726836
0.726835
0.726884
0.726883
0.726935
0.726934
0.726995
0.726995
0.726999
0.727108
0.727108
0.727108
0.727104
0.727236
0.727284
0.727327
0.727327
0.727326
0.727311
0.727479
0.727512
0.727512
0.727508
0.727707
0.727736
0.727736
0.727912
0.727913
0.727913
0.728085
0.728084
0.728315
0.728473
0.728474
0.728682
0.728901
0.728911
0.729176
0.72924
0.729461
0.729942
0.730222
0.730605
0.7311
0.731801
0.732722
0.733794
0.735211
0.737897
0.738937
0.771413
1.54158
117.215
0.781259
0.747196
0.735242
0.729982
0.727191
0.725575
0.724525
0.723831
0.723314
0.722955
0.722653
0.722445
0.722239
0.722102
0.721989
0.72191
0.721823
0.721768
0.7217
0.721662
0.721601
0.721581