/*--------------------------------*- C++ -*----------------------------------*\
| =========                 |                                                 |
| \\      /  F ield         | OpenFOAM: The Open Source CFD Toolbox           |
|  \\    /   O peration     | Version:  v2012                                 |
|   \\  /    A nd           | Website:  www.openfoam.com                      |
|    \\/     M anipulation  |                                                 |
\*---------------------------------------------------------------------------*/
FoamFile
{
    version     2.0;
    format      ascii;
    class       volScalarField;
    location    "5";
    object      k;
}
// * * * * * * * * * * * * * * * * * * * * * * * * * * * * * * * * * * * * * //

dimensions      [0 2 -2 0 0 0 0];


internalField   nonuniform List<scalar> 
209825
(
0.00104009
0.00102126
0.00101487
0.00101188
0.00101013
0.00100904
0.00100826
0.00100773
0.00100731
0.00100701
0.00100674
0.00100656
0.00100636
0.00100625
0.00100616
0.0010061
0.00100602
0.00100597
0.0010059
0.00100588
0.00100582
0.00100583
0.00100581
0.00100583
0.00100581
0.00100586
0.00100586
0.00100591
0.00100591
0.00100603
0.00100603
0.00100604
0.00100604
0.00100607
0.00100607
0.00100611
0.00100611
0.00100611
0.0010061
0.0010061
0.00100609
0.00100612
0.00100612
0.00100612
0.0010061
0.00100613
0.00100613
0.00100612
0.00100617
0.00100617
0.00100617
0.00100624
0.00100624
0.00100624
0.00100622
0.0010063
0.0010063
0.0010063
0.00100628
0.00100633
0.00100633
0.00100633
0.00100646
0.00100651
0.00100652
0.00100651
0.00100663
0.00100663
0.00100663
0.00100663
0.00100676
0.00100676
0.00100692
0.00100695
0.00100695
0.00100694
0.0010071
0.00100718
0.00100737
0.00100743
0.00100755
0.00100755
0.00100774
0.00100806
0.00100831
0.00100854
0.00100901
0.00100948
0.00101018
0.00101092
0.00101273
0.00101389
0.00101965
0.00102697
0.00138382
0.000726259
0.00104008
0.00102124
0.00101485
0.00101185
0.00101009
0.001009
0.00100823
0.0010077
0.00100727
0.00100698
0.0010067
0.00100653
0.00100632
0.00100622
0.00100612
0.00100606
0.00100598
0.00100593
0.00100586
0.00100584
0.00100578
0.00100579
0.00100577
0.00100579
0.00100577
0.00100582
0.00100582
0.00100587
0.00100587
0.00100599
0.00100599
0.001006
0.001006
0.00100603
0.00100603
0.00100607
0.00100607
0.00100607
0.00100606
0.00100606
0.00100605
0.00100608
0.00100608
0.00100608
0.00100606
0.00100609
0.00100609
0.00100608
0.00100613
0.00100613
0.00100613
0.0010062
0.0010062
0.0010062
0.00100618
0.00100626
0.00100626
0.00100625
0.00100624
0.00100629
0.00100629
0.00100629
0.00100642
0.00100647
0.00100647
0.00100647
0.00100659
0.00100659
0.00100659
0.00100659
0.00100672
0.00100672
0.00100688
0.00100691
0.00100691
0.0010069
0.00100706
0.00100714
0.00100733
0.00100739
0.00100751
0.00100751
0.0010077
0.00100803
0.00100827
0.00100851
0.00100897
0.00100944
0.00101015
0.00101089
0.0010127
0.00101385
0.00101962
0.00102695
0.00138443
0.00072954
0.00104005
0.00102116
0.00101474
0.00101172
0.00100996
0.00100886
0.00100808
0.00100754
0.00100712
0.00100682
0.00100654
0.00100637
0.00100616
0.00100605
0.00100596
0.00100589
0.00100581
0.00100577
0.0010057
0.00100567
0.00100561
0.00100562
0.00100561
0.00100562
0.0010056
0.00100565
0.00100565
0.00100571
0.0010057
0.00100582
0.00100582
0.00100583
0.00100583
0.00100586
0.00100586
0.0010059
0.0010059
0.0010059
0.00100589
0.00100589
0.00100588
0.00100591
0.00100591
0.00100591
0.00100589
0.00100592
0.00100592
0.00100591
0.00100596
0.00100596
0.00100596
0.00100603
0.00100603
0.00100603
0.00100601
0.00100609
0.00100609
0.00100609
0.00100607
0.00100612
0.00100612
0.00100612
0.00100625
0.00100631
0.00100631
0.0010063
0.00100642
0.00100642
0.00100642
0.00100642
0.00100655
0.00100655
0.00100672
0.00100674
0.00100674
0.00100674
0.00100689
0.00100698
0.00100717
0.00100722
0.00100735
0.00100735
0.00100754
0.00100786
0.00100811
0.00100834
0.00100882
0.00100928
0.00100999
0.00101074
0.00101255
0.00101371
0.00101946
0.00102687
0.00138605
0.000736186
0.00103999
0.00102102
0.00101455
0.00101151
0.00100973
0.00100862
0.00100783
0.00100729
0.00100686
0.00100655
0.00100627
0.00100609
0.00100589
0.00100578
0.00100568
0.00100561
0.00100553
0.00100549
0.00100542
0.00100539
0.00100533
0.00100534
0.00100532
0.00100534
0.00100532
0.00100537
0.00100537
0.00100542
0.00100542
0.00100553
0.00100553
0.00100555
0.00100555
0.00100558
0.00100558
0.00100561
0.00100561
0.00100561
0.0010056
0.0010056
0.00100559
0.00100563
0.00100563
0.00100563
0.0010056
0.00100563
0.00100563
0.00100563
0.00100568
0.00100568
0.00100567
0.00100574
0.00100574
0.00100574
0.00100573
0.0010058
0.0010058
0.0010058
0.00100579
0.00100584
0.00100584
0.00100583
0.00100597
0.00100602
0.00100602
0.00100602
0.00100614
0.00100614
0.00100614
0.00100613
0.00100627
0.00100627
0.00100643
0.00100646
0.00100646
0.00100646
0.00100661
0.0010067
0.00100689
0.00100694
0.00100707
0.00100707
0.00100726
0.00100759
0.00100784
0.00100807
0.00100855
0.00100901
0.00100973
0.00101048
0.00101229
0.00101346
0.0010192
0.00102673
0.00138867
0.000746241
0.00103991
0.00102081
0.00101428
0.00101121
0.0010094
0.00100828
0.00100748
0.00100692
0.00100649
0.00100618
0.00100589
0.00100571
0.0010055
0.00100539
0.00100529
0.00100522
0.00100514
0.00100509
0.00100502
0.00100499
0.00100493
0.00100494
0.00100492
0.00100494
0.00100492
0.00100497
0.00100497
0.00100502
0.00100502
0.00100513
0.00100513
0.00100514
0.00100514
0.00100518
0.00100518
0.00100521
0.00100521
0.00100521
0.0010052
0.0010052
0.00100519
0.00100522
0.00100522
0.00100522
0.0010052
0.00100523
0.00100523
0.00100522
0.00100527
0.00100527
0.00100527
0.00100534
0.00100534
0.00100534
0.00100532
0.0010054
0.0010054
0.0010054
0.00100539
0.00100543
0.00100543
0.00100543
0.00100557
0.00100562
0.00100562
0.00100562
0.00100574
0.00100574
0.00100574
0.00100573
0.00100587
0.00100587
0.00100604
0.00100606
0.00100606
0.00100606
0.00100622
0.0010063
0.00100649
0.00100655
0.00100668
0.00100668
0.00100687
0.0010072
0.00100745
0.00100769
0.00100816
0.00100864
0.00100936
0.00101011
0.00101193
0.00101311
0.00101882
0.00102653
0.00139239
0.000759694
0.0010398
0.00102055
0.00101394
0.00101082
0.00100898
0.00100783
0.00100702
0.00100645
0.00100601
0.00100569
0.0010054
0.00100521
0.001005
0.00100488
0.00100478
0.00100471
0.00100463
0.00100458
0.0010045
0.00100448
0.00100441
0.00100442
0.0010044
0.00100442
0.0010044
0.00100445
0.00100445
0.0010045
0.00100449
0.00100461
0.00100461
0.00100462
0.00100462
0.00100465
0.00100465
0.00100469
0.00100469
0.00100469
0.00100468
0.00100468
0.00100467
0.0010047
0.0010047
0.0010047
0.00100468
0.00100471
0.00100471
0.0010047
0.00100475
0.00100475
0.00100474
0.00100482
0.00100482
0.00100482
0.0010048
0.00100488
0.00100488
0.00100488
0.00100486
0.00100491
0.00100491
0.00100491
0.00100505
0.0010051
0.0010051
0.0010051
0.00100522
0.00100522
0.00100522
0.00100522
0.00100536
0.00100536
0.00100552
0.00100555
0.00100555
0.00100555
0.00100571
0.00100579
0.00100598
0.00100605
0.00100618
0.00100618
0.00100637
0.0010067
0.00100695
0.00100719
0.00100767
0.00100815
0.00100887
0.00100963
0.00101146
0.00101266
0.00101833
0.00102626
0.0013973
0.000776485
0.00103967
0.00102023
0.00101352
0.00101034
0.00100846
0.00100729
0.00100645
0.00100588
0.00100542
0.00100509
0.0010048
0.0010046
0.00100438
0.00100426
0.00100416
0.00100408
0.00100399
0.00100394
0.00100387
0.00100384
0.00100378
0.00100378
0.00100376
0.00100378
0.00100376
0.0010038
0.0010038
0.00100385
0.00100385
0.00100396
0.00100397
0.00100398
0.00100398
0.00100401
0.00100401
0.00100405
0.00100405
0.00100404
0.00100404
0.00100404
0.00100402
0.00100406
0.00100406
0.00100406
0.00100403
0.00100406
0.00100406
0.00100406
0.0010041
0.0010041
0.0010041
0.00100417
0.00100417
0.00100417
0.00100415
0.00100423
0.00100423
0.00100423
0.00100422
0.00100427
0.00100427
0.00100426
0.0010044
0.00100446
0.00100446
0.00100446
0.00100458
0.00100458
0.00100458
0.00100458
0.00100472
0.00100472
0.00100488
0.00100491
0.00100491
0.00100491
0.00100507
0.00100516
0.00100535
0.00100542
0.00100555
0.00100555
0.00100574
0.00100608
0.00100634
0.00100658
0.00100706
0.00100754
0.00100827
0.00100904
0.00101088
0.00101209
0.00101772
0.00102593
0.00140351
0.000796508
0.00103951
0.00101985
0.00101301
0.00100976
0.00100784
0.00100664
0.00100578
0.00100518
0.00100471
0.00100438
0.00100407
0.00100387
0.00100365
0.00100352
0.00100341
0.00100333
0.00100324
0.00100319
0.00100311
0.00100308
0.00100302
0.00100302
0.001003
0.00100301
0.00100299
0.00100304
0.00100303
0.00100308
0.00100308
0.0010032
0.0010032
0.00100321
0.00100321
0.00100324
0.00100324
0.00100328
0.00100328
0.00100328
0.00100327
0.00100327
0.00100325
0.00100329
0.00100329
0.00100329
0.00100326
0.00100329
0.00100329
0.00100329
0.00100333
0.00100333
0.00100333
0.0010034
0.0010034
0.0010034
0.00100339
0.00100346
0.00100346
0.00100346
0.00100345
0.0010035
0.0010035
0.0010035
0.00100364
0.00100369
0.00100369
0.00100369
0.00100381
0.00100382
0.00100382
0.00100381
0.00100396
0.00100396
0.00100413
0.00100416
0.00100416
0.00100415
0.00100432
0.00100441
0.0010046
0.00100467
0.0010048
0.0010048
0.00100499
0.00100533
0.0010056
0.00100585
0.00100633
0.00100682
0.00100756
0.00100833
0.00101018
0.00101142
0.00101699
0.00102554
0.00141112
0.000819611
0.00103934
0.0010194
0.00101243
0.0010091
0.00100712
0.00100588
0.001005
0.00100438
0.00100389
0.00100355
0.00100323
0.00100302
0.00100279
0.00100266
0.00100254
0.00100246
0.00100237
0.00100231
0.00100223
0.0010022
0.00100213
0.00100213
0.00100211
0.00100212
0.0010021
0.00100214
0.00100214
0.00100219
0.00100219
0.0010023
0.0010023
0.00100231
0.00100231
0.00100235
0.00100235
0.00100238
0.00100238
0.00100238
0.00100238
0.00100237
0.00100236
0.00100239
0.00100239
0.00100239
0.00100236
0.0010024
0.0010024
0.00100239
0.00100244
0.00100244
0.00100243
0.00100251
0.00100251
0.00100251
0.00100249
0.00100257
0.00100257
0.00100257
0.00100256
0.00100261
0.00100261
0.0010026
0.00100274
0.0010028
0.0010028
0.0010028
0.00100292
0.00100293
0.00100293
0.00100292
0.00100307
0.00100308
0.00100324
0.00100327
0.00100327
0.00100327
0.00100343
0.00100353
0.00100373
0.0010038
0.00100393
0.00100393
0.00100413
0.00100447
0.00100474
0.00100499
0.00100548
0.00100598
0.00100672
0.00100751
0.00100936
0.00101063
0.00101614
0.00102508
0.00142026
0.000845601
0.00103913
0.0010189
0.00101177
0.00100834
0.0010063
0.00100502
0.0010041
0.00100346
0.00100296
0.00100259
0.00100227
0.00100205
0.00100181
0.00100167
0.00100155
0.00100146
0.00100136
0.00100131
0.00100122
0.00100119
0.00100112
0.00100111
0.00100109
0.0010011
0.00100108
0.00100112
0.00100112
0.00100117
0.00100116
0.00100128
0.00100128
0.00100129
0.00100129
0.00100132
0.00100132
0.00100136
0.00100136
0.00100136
0.00100135
0.00100135
0.00100133
0.00100137
0.00100137
0.00100137
0.00100134
0.00100137
0.00100137
0.00100136
0.00100141
0.00100141
0.00100141
0.00100148
0.00100148
0.00100148
0.00100146
0.00100154
0.00100154
0.00100154
0.00100153
0.00100158
0.00100158
0.00100158
0.00100172
0.00100178
0.00100178
0.00100178
0.0010019
0.00100191
0.00100191
0.00100191
0.00100205
0.00100206
0.00100223
0.00100226
0.00100226
0.00100226
0.00100243
0.00100252
0.00100272
0.0010028
0.00100294
0.00100294
0.00100313
0.00100348
0.00100376
0.00100401
0.0010045
0.00100501
0.00100576
0.00100656
0.00100843
0.00100972
0.00101516
0.00102454
0.00143105
0.000874252
0.00103891
0.00101834
0.00101102
0.00100748
0.00100538
0.00100404
0.00100309
0.00100243
0.0010019
0.00100152
0.00100118
0.00100095
0.0010007
0.00100055
0.00100043
0.00100034
0.00100023
0.00100017
0.00100008
0.00100005
0.000999971
0.000999968
0.000999945
0.000999951
0.000999924
0.000999968
0.000999964
0.00100001
0.00100001
0.00100012
0.00100013
0.00100013
0.00100013
0.00100016
0.00100016
0.0010002
0.0010002
0.0010002
0.0010002
0.00100019
0.00100018
0.00100021
0.00100021
0.00100021
0.00100018
0.00100021
0.00100021
0.00100021
0.00100025
0.00100025
0.00100025
0.00100032
0.00100032
0.00100032
0.0010003
0.00100039
0.00100039
0.00100039
0.00100037
0.00100042
0.00100042
0.00100042
0.00100056
0.00100063
0.00100063
0.00100062
0.00100075
0.00100076
0.00100076
0.00100076
0.00100091
0.00100092
0.00100108
0.00100112
0.00100112
0.00100112
0.00100129
0.00100139
0.00100159
0.00100167
0.00100181
0.00100181
0.00100201
0.00100236
0.00100264
0.00100291
0.0010034
0.00100392
0.00100468
0.00100549
0.00100737
0.0010087
0.00101404
0.00102394
0.00144363
0.000905309
0.00103866
0.00101771
0.00101019
0.00100653
0.00100435
0.00100296
0.00100197
0.00100127
0.00100072
0.00100032
0.000999967
0.000999727
0.000999467
0.000999311
0.000999179
0.000999081
0.000998971
0.000998904
0.000998813
0.000998772
0.000998694
0.000998688
0.000998662
0.000998666
0.000998637
0.00099868
0.000998675
0.000998721
0.000998716
0.000998834
0.000998837
0.000998843
0.000998843
0.000998873
0.000998872
0.000998911
0.000998911
0.00099891
0.000998906
0.000998902
0.000998884
0.000998916
0.000998916
0.000998914
0.000998887
0.000998918
0.000998918
0.000998911
0.000998959
0.000998959
0.000998953
0.00099903
0.000999031
0.000999029
0.00099901
0.000999094
0.000999094
0.000999093
0.00099908
0.000999133
0.000999133
0.000999129
0.000999272
0.000999338
0.000999338
0.000999335
0.000999468
0.000999477
0.000999477
0.000999474
0.000999626
0.000999642
0.000999806
0.000999849
0.000999849
0.000999848
0.00100001
0.00100012
0.00100032
0.00100041
0.00100056
0.00100056
0.00100075
0.00100111
0.0010014
0.00100167
0.00100217
0.00100269
0.00100347
0.00100429
0.00100618
0.00100755
0.0010128
0.00102326
0.00145814
0.000938498
0.00103839
0.00101702
0.00100928
0.00100549
0.00100321
0.00100176
0.00100073
0.000999998
0.000999419
0.000999003
0.000998628
0.000998374
0.000998102
0.000997937
0.000997795
0.000997691
0.000997575
0.000997504
0.000997408
0.000997363
0.000997282
0.000997273
0.000997244
0.000997246
0.000997214
0.000997255
0.000997249
0.000997294
0.000997288
0.000997406
0.00099741
0.000997415
0.000997415
0.000997444
0.000997443
0.000997482
0.000997482
0.000997481
0.000997478
0.000997473
0.000997453
0.000997486
0.000997486
0.000997484
0.000997456
0.000997487
0.000997487
0.00099748
0.000997528
0.000997528
0.000997521
0.000997599
0.000997599
0.000997598
0.000997578
0.000997664
0.000997663
0.000997663
0.000997649
0.000997703
0.000997703
0.0009977
0.000997844
0.000997913
0.000997913
0.00099791
0.000998045
0.000998057
0.000998057
0.000998054
0.000998208
0.000998228
0.000998392
0.000998439
0.000998439
0.000998437
0.000998607
0.000998717
0.000998921
0.000999014
0.000999164
0.000999164
0.000999358
0.000999721
0.00100002
0.0010003
0.00100081
0.00100134
0.00100213
0.00100297
0.00100486
0.00100627
0.00101142
0.0010225
0.0014747
0.000973535
0.0010381
0.00101627
0.00100828
0.00100434
0.00100197
0.00100045
0.000999365
0.0009986
0.000997991
0.000997553
0.000997158
0.000996889
0.000996604
0.000996428
0.000996277
0.000996166
0.000996043
0.000995966
0.000995865
0.000995817
0.000995731
0.000995718
0.000995687
0.000995686
0.000995651
0.000995691
0.000995683
0.000995727
0.00099572
0.000995839
0.000995842
0.000995846
0.000995846
0.000995875
0.000995873
0.000995913
0.000995913
0.000995912
0.000995909
0.000995904
0.000995883
0.000995915
0.000995915
0.000995913
0.000995884
0.000995915
0.000995915
0.000995907
0.000995955
0.000995955
0.000995948
0.000996027
0.000996027
0.000996026
0.000996006
0.000996093
0.000996093
0.000996092
0.000996078
0.000996133
0.000996133
0.00099613
0.000996275
0.000996347
0.000996347
0.000996344
0.000996483
0.000996496
0.000996496
0.000996493
0.000996651
0.000996674
0.000996839
0.00099689
0.000996889
0.000996888
0.000997059
0.000997175
0.000997382
0.00099748
0.000997634
0.000997634
0.00099783
0.000998199
0.000998512
0.000998794
0.000999305
0.00099985
0.00100065
0.0010015
0.00100341
0.00100487
0.0010099
0.00102166
0.00149344
0.00101013
0.00103779
0.00101547
0.0010072
0.0010031
0.00100062
0.000999027
0.000997884
0.000997078
0.000996436
0.000995972
0.000995557
0.000995271
0.000994972
0.000994783
0.000994622
0.000994502
0.000994371
0.00099429
0.000994182
0.00099413
0.000994039
0.000994023
0.000993988
0.000993985
0.000993946
0.000993984
0.000993974
0.000994017
0.000994008
0.000994128
0.000994132
0.000994135
0.000994135
0.000994163
0.000994161
0.000994201
0.0009942
0.0009942
0.000994197
0.000994192
0.000994169
0.0009942
0.0009942
0.000994198
0.000994169
0.000994199
0.000994199
0.000994192
0.000994239
0.000994239
0.000994231
0.000994311
0.000994311
0.00099431
0.000994289
0.000994378
0.000994378
0.000994377
0.000994364
0.00099442
0.00099442
0.000994416
0.000994563
0.000994638
0.000994638
0.000994635
0.000994777
0.000994793
0.000994793
0.00099479
0.000994951
0.000994979
0.000995143
0.000995198
0.000995198
0.000995197
0.000995371
0.000995492
0.0009957
0.000995805
0.000995964
0.000995964
0.000996161
0.000996536
0.000996859
0.000997149
0.000997665
0.000998223
0.000999038
0.000999906
0.00100182
0.00100333
0.00100824
0.00102073
0.00151449
0.00104801
0.00103746
0.0010146
0.00100603
0.00100175
0.000999158
0.000997484
0.000996281
0.000995429
0.000994752
0.00099426
0.000993821
0.000993517
0.000993201
0.000992999
0.000992826
0.000992698
0.000992559
0.000992471
0.000992356
0.000992299
0.000992203
0.000992183
0.000992145
0.000992139
0.000992097
0.000992132
0.000992121
0.000992161
0.000992151
0.000992271
0.000992276
0.000992278
0.000992278
0.000992304
0.000992302
0.000992342
0.000992342
0.000992342
0.000992339
0.000992333
0.000992309
0.00099234
0.00099234
0.000992338
0.000992307
0.000992337
0.000992337
0.000992329
0.000992376
0.000992376
0.000992368
0.000992449
0.000992449
0.000992447
0.000992426
0.000992517
0.000992517
0.000992516
0.000992502
0.00099256
0.00099256
0.000992556
0.000992704
0.000992783
0.000992783
0.00099278
0.000992925
0.000992944
0.000992944
0.000992941
0.000993105
0.000993138
0.000993302
0.000993362
0.000993362
0.000993361
0.000993537
0.000993664
0.000993875
0.000993987
0.000994151
0.000994151
0.000994348
0.000994729
0.000995064
0.000995362
0.000995884
0.000996454
0.000997282
0.000998166
0.00100009
0.00100165
0.00100643
0.0010197
0.00153795
0.0010869
0.00103711
0.00101367
0.00100478
0.00100031
0.000997586
0.000995823
0.000994554
0.000993653
0.000992935
0.000992414
0.000991948
0.000991625
0.000991291
0.000991075
0.000990889
0.000990751
0.000990602
0.000990507
0.000990386
0.000990323
0.000990221
0.000990197
0.000990155
0.000990145
0.000990099
0.000990131
0.000990118
0.000990157
0.000990145
0.000990266
0.00099027
0.000990272
0.000990271
0.000990297
0.000990293
0.000990335
0.000990334
0.000990334
0.000990332
0.000990326
0.0009903
0.00099033
0.00099033
0.000990327
0.000990295
0.000990325
0.000990325
0.000990317
0.000990364
0.000990364
0.000990355
0.000990437
0.000990437
0.000990435
0.000990414
0.000990506
0.000990507
0.000990506
0.000990491
0.00099055
0.00099055
0.000990546
0.000990696
0.000990778
0.000990778
0.000990775
0.000990924
0.000990946
0.000990946
0.000990943
0.00099111
0.000991149
0.000991312
0.000991377
0.000991378
0.000991377
0.000991555
0.000991688
0.000991901
0.000992021
0.00099219
0.00099219
0.000992388
0.000992776
0.000993122
0.000993429
0.000993957
0.000994539
0.000995381
0.000996283
0.000998216
0.000999839
0.00100447
0.00101858
0.00156392
0.00112654
0.00103674
0.00101268
0.00100344
0.000998763
0.000995902
0.000994042
0.000992701
0.000991746
0.000990986
0.000990431
0.000989937
0.000989592
0.000989239
0.000989006
0.000988806
0.000988658
0.000988499
0.000988396
0.000988267
0.000988199
0.00098809
0.000988061
0.000988014
0.000988002
0.00098795
0.00098798
0.000987965
0.000988002
0.000987988
0.000988109
0.000988113
0.000988114
0.000988113
0.000988138
0.000988133
0.000988175
0.000988175
0.000988175
0.000988172
0.000988166
0.000988138
0.000988167
0.000988167
0.000988165
0.000988132
0.000988161
0.00098816
0.000988153
0.000988199
0.000988199
0.000988189
0.000988272
0.000988272
0.00098827
0.000988248
0.000988343
0.000988344
0.000988342
0.000988327
0.000988388
0.000988388
0.000988383
0.000988535
0.000988621
0.000988621
0.000988618
0.000988771
0.000988796
0.000988796
0.000988792
0.000988963
0.000989008
0.000989171
0.000989242
0.000989242
0.000989242
0.000989422
0.000989562
0.000989777
0.000989904
0.00099008
0.00099008
0.000990279
0.000990673
0.000991031
0.000991347
0.000991881
0.000992476
0.000993331
0.000994253
0.000996191
0.000997879
0.00100236
0.00101736
0.00159245
0.00116671
0.00103635
0.00101163
0.00100202
0.000997117
0.000994106
0.00099214
0.000990721
0.000989708
0.000988901
0.00098831
0.000987786
0.000987416
0.000987042
0.000986792
0.000986577
0.000986416
0.000986246
0.000986135
0.000985997
0.000985923
0.000985807
0.000985772
0.000985721
0.000985705
0.000985649
0.000985675
0.000985658
0.000985692
0.000985676
0.000985797
0.000985801
0.000985801
0.0009858
0.000985824
0.000985818
0.00098586
0.00098586
0.00098586
0.000985858
0.000985851
0.000985822
0.00098585
0.000985849
0.000985847
0.000985812
0.000985841
0.00098584
0.000985832
0.000985878
0.000985878
0.000985868
0.000985951
0.000985951
0.00098595
0.000985927
0.000986024
0.000986025
0.000986023
0.000986008
0.000986069
0.000986069
0.000986065
0.000986219
0.000986308
0.000986308
0.000986306
0.000986462
0.000986491
0.000986491
0.000986487
0.000986661
0.000986713
0.000986874
0.000986951
0.000986952
0.000986952
0.000987135
0.000987282
0.000987499
0.000987634
0.000987816
0.000987816
0.000988016
0.000988417
0.000988787
0.000989114
0.000989653
0.000990262
0.00099113
0.000992071
0.000994013
0.00099577
0.00100009
0.00101602
0.00162358
0.00120719
0.00103594
0.00101053
0.00100052
0.000995368
0.000992196
0.000990117
0.000988613
0.000987536
0.000986678
0.000986048
0.000985491
0.000985096
0.000984698
0.000984429
0.000984197
0.000984024
0.000983842
0.000983721
0.000983574
0.000983493
0.00098337
0.000983329
0.000983272
0.000983252
0.000983191
0.000983214
0.000983194
0.000983225
0.000983206
0.000983328
0.000983331
0.000983331
0.00098333
0.000983352
0.000983345
0.000983387
0.000983387
0.000983387
0.000983385
0.000983378
0.000983347
0.000983374
0.000983373
0.00098337
0.000983334
0.000983362
0.000983362
0.000983354
0.000983399
0.000983399
0.000983387
0.000983471
0.000983472
0.00098347
0.000983446
0.000983546
0.000983547
0.000983545
0.000983529
0.000983592
0.000983592
0.000983588
0.000983743
0.000983837
0.000983837
0.000983834
0.000983995
0.000984028
0.000984028
0.000984023
0.000984201
0.000984261
0.00098442
0.000984503
0.000984505
0.000984505
0.00098469
0.000984844
0.000985064
0.000985207
0.000985395
0.000985396
0.000985596
0.000986004
0.000986387
0.000986724
0.000987269
0.000987892
0.000988773
0.000989735
0.000991678
0.00099351
0.000997659
0.00101457
0.00165731
0.00124782
0.00103552
0.00100936
0.000998928
0.000993518
0.000990171
0.00098797
0.000986375
0.00098523
0.000984317
0.000983645
0.000983051
0.000982628
0.000982205
0.000981916
0.000981666
0.000981478
0.000981283
0.000981152
0.000980995
0.000980906
0.000980774
0.000980727
0.000980665
0.000980641
0.000980573
0.000980593
0.00098057
0.000980598
0.000980576
0.000980697
0.0009807
0.0009807
0.000980698
0.000980718
0.000980711
0.000980753
0.000980753
0.000980753
0.000980751
0.000980743
0.00098071
0.000980736
0.000980735
0.000980732
0.000980694
0.000980722
0.000980721
0.000980713
0.000980757
0.000980757
0.000980745
0.00098083
0.00098083
0.000980829
0.000980804
0.000980906
0.000980907
0.000980905
0.000980888
0.000980953
0.000980953
0.000980948
0.000981105
0.000981203
0.000981204
0.000981201
0.000981366
0.000981403
0.000981403
0.000981398
0.000981579
0.000981647
0.000981805
0.000981893
0.000981898
0.000981898
0.000982085
0.000982247
0.000982468
0.00098262
0.000982815
0.000982815
0.000983017
0.000983431
0.000983828
0.000984176
0.000984727
0.000985362
0.000986257
0.00098724
0.000989182
0.000991094
0.000995063
0.00101299
0.00169359
0.00128843
0.00103509
0.00100815
0.000997255
0.000991566
0.000988032
0.0009857
0.000984007
0.000982787
0.000981815
0.000981097
0.000980464
0.00098001
0.000979561
0.000979249
0.000978979
0.000978777
0.000978567
0.000978426
0.000978257
0.00097816
0.000978019
0.000977965
0.000977896
0.000977868
0.000977794
0.000977809
0.000977783
0.000977808
0.000977782
0.000977903
0.000977905
0.000977905
0.000977903
0.000977921
0.000977912
0.000977955
0.000977955
0.000977954
0.000977952
0.000977944
0.000977909
0.000977934
0.000977933
0.00097793
0.00097789
0.000977916
0.000977916
0.000977907
0.000977951
0.000977951
0.000977937
0.000978023
0.000978023
0.000978022
0.000977996
0.0009781
0.000978101
0.000978099
0.000978082
0.000978148
0.000978149
0.000978143
0.000978302
0.000978404
0.000978405
0.000978402
0.000978571
0.000978613
0.000978613
0.000978608
0.000978792
0.000978869
0.000979025
0.00097912
0.000979126
0.000979126
0.000979316
0.000979485
0.000979708
0.000979868
0.000980072
0.000980072
0.000980275
0.000980694
0.000981105
0.000981465
0.000982021
0.000982671
0.000983578
0.000984582
0.00098652
0.000988518
0.000992299
0.00101127
0.00173231
0.00132891
0.00103464
0.00100687
0.000995499
0.000989512
0.000985778
0.000983304
0.000981506
0.000980207
0.000979171
0.000978403
0.000977728
0.000977241
0.000976763
0.000976427
0.000976136
0.000975917
0.000975692
0.000975538
0.000975357
0.000975251
0.000975101
0.000975039
0.000974963
0.00097493
0.00097485
0.00097486
0.00097483
0.000974852
0.000974822
0.000974942
0.000974944
0.000974944
0.000974941
0.000974957
0.000974946
0.000974989
0.000974989
0.000974988
0.000974987
0.000974978
0.000974941
0.000974964
0.000974963
0.000974959
0.000974917
0.000974943
0.000974943
0.000974934
0.000974977
0.000974976
0.000974961
0.000975048
0.000975048
0.000975046
0.000975019
0.000975126
0.000975127
0.000975125
0.000975108
0.000975175
0.000975175
0.00097517
0.000975331
0.000975437
0.000975438
0.000975436
0.000975608
0.000975655
0.000975655
0.00097565
0.000975837
0.000975923
0.000976077
0.000976178
0.000976187
0.000976187
0.00097638
0.000976557
0.000976781
0.00097695
0.000977162
0.000977162
0.000977365
0.000977791
0.000978216
0.000978587
0.000979149
0.000979813
0.000980732
0.000981759
0.000983689
0.000985779
0.000989361
0.00100941
0.00177329
0.00136917
0.00103418
0.00100555
0.00099366
0.000987356
0.000983409
0.000980784
0.000978872
0.000977487
0.000976382
0.000975561
0.000974841
0.000974319
0.000973809
0.000973447
0.000973133
0.000972897
0.000972654
0.000972488
0.000972294
0.000972178
0.000972017
0.000971947
0.000971864
0.000971825
0.000971738
0.000971744
0.000971709
0.000971727
0.000971693
0.000971811
0.000971812
0.000971812
0.000971809
0.000971823
0.000971811
0.000971853
0.000971853
0.000971852
0.00097185
0.000971841
0.000971802
0.000971823
0.000971823
0.000971818
0.000971774
0.000971799
0.000971798
0.000971789
0.000971831
0.000971831
0.000971814
0.000971901
0.000971902
0.0009719
0.000971871
0.000971981
0.000971982
0.00097198
0.000971961
0.000972031
0.000972031
0.000972025
0.000972188
0.000972299
0.000972299
0.000972297
0.000972474
0.000972525
0.000972525
0.00097252
0.000972711
0.000972807
0.000972958
0.000973065
0.000973078
0.000973077
0.000973273
0.000973458
0.000973684
0.000973861
0.000974082
0.000974082
0.000974286
0.000974717
0.000975156
0.000975541
0.000976108
0.000976785
0.000977715
0.000978765
0.000980684
0.000982872
0.000986247
0.00100739
0.0018163
0.00140912
0.00103371
0.00100417
0.00099174
0.000985099
0.000980923
0.000978136
0.000976103
0.000974627
0.000973449
0.000972571
0.000971802
0.000971241
0.000970698
0.000970308
0.000969969
0.000969713
0.000969453
0.000969272
0.000969064
0.000968937
0.000968766
0.000968686
0.000968594
0.00096855
0.000968456
0.000968456
0.000968417
0.000968431
0.000968391
0.000968508
0.000968508
0.000968508
0.000968504
0.000968516
0.000968501
0.000968543
0.000968543
0.000968543
0.00096854
0.00096853
0.00096849
0.000968509
0.000968509
0.000968503
0.000968456
0.00096848
0.00096848
0.00096847
0.000968511
0.00096851
0.000968492
0.00096858
0.00096858
0.000968578
0.000968548
0.00096866
0.000968661
0.000968659
0.00096864
0.000968712
0.000968711
0.000968705
0.00096887
0.000968985
0.000968986
0.000968984
0.000969165
0.000969221
0.000969221
0.000969216
0.00096941
0.000969516
0.000969664
0.000969778
0.000969795
0.000969794
0.000969992
0.000970186
0.000970412
0.000970598
0.000970828
0.000970829
0.000971034
0.00097147
0.000971923
0.00097232
0.000972893
0.000973583
0.000974523
0.000975597
0.000977502
0.000979793
0.000982952
0.0010052
0.00186101
0.00144873
0.00103323
0.00100274
0.00098974
0.000982741
0.000978322
0.000975363
0.0009732
0.000971626
0.000970369
0.000969429
0.000968608
0.000968006
0.000967427
0.000967006
0.000966641
0.000966364
0.000966084
0.000965888
0.000965664
0.000965527
0.000965343
0.000965254
0.000965153
0.000965102
0.000965
0.000964994
0.00096495
0.00096496
0.000964914
0.000965029
0.000965029
0.000965029
0.000965024
0.000965034
0.000965016
0.000965057
0.000965057
0.000965057
0.000965054
0.000965043
0.000965001
0.000965018
0.000965017
0.00096501
0.000964961
0.000964984
0.000964984
0.000964974
0.000965013
0.000965013
0.000964992
0.000965081
0.000965081
0.000965079
0.000965048
0.000965162
0.000965163
0.000965161
0.000965141
0.000965214
0.000965213
0.000965207
0.000965373
0.000965494
0.000965495
0.000965492
0.000965677
0.000965739
0.000965739
0.000965734
0.000965932
0.000966047
0.000966192
0.000966312
0.000966334
0.000966333
0.000966534
0.000966736
0.000966964
0.000967158
0.000967398
0.000967398
0.000967604
0.000968045
0.000968512
0.000968924
0.0009695
0.000970204
0.000971153
0.000972251
0.000974138
0.000976536
0.000979475
0.00100284
0.00190701
0.00148797
0.00103274
0.00100127
0.000987661
0.000980282
0.000975605
0.000972462
0.000970162
0.000968482
0.000967141
0.000966135
0.000965258
0.000964612
0.000963994
0.000963541
0.000963146
0.000962847
0.000962546
0.000962334
0.000962094
0.000961944
0.000961747
0.000961647
0.000961536
0.000961479
0.000961369
0.000961356
0.000961307
0.000961311
0.00096126
0.000961371
0.000961371
0.00096137
0.000961365
0.000961372
0.000961351
0.000961392
0.000961391
0.000961391
0.000961388
0.000961376
0.000961332
0.000961347
0.000961346
0.000961338
0.000961286
0.000961308
0.000961307
0.000961297
0.000961335
0.000961334
0.000961312
0.000961401
0.000961401
0.000961399