/*--------------------------------*- C++ -*----------------------------------*\
| =========                 |                                                 |
| \\      /  F ield         | OpenFOAM: The Open Source CFD Toolbox           |
|  \\    /   O peration     | Version:  v2012                                 |
|   \\  /    A nd           | Website:  www.openfoam.com                      |
|    \\/     M anipulation  |                                                 |
\*---------------------------------------------------------------------------*/
FoamFile
{
    version     2.0;
    format      ascii;
    class       volScalarField;
    location    "5";
    object      yPlus;
}
// * * * * * * * * * * * * * * * * * * * * * * * * * * * * * * * * * * * * * //

dimensions      [0 0 0 0 0 0 0];


internalField   uniform 0;

boundaryField
{
    inlet
    {
        type            calculated;
        value           uniform 0;
    }
    outlet
    {
        type            calculated;
        value           uniform 0;
    }
    topWall
    {
        type            calculated;
        value           nonuniform List<scalar> 
545
(
0.0544947
0.0947744
0.121367
0.142439
0.160246
0.175801
0.189668
0.202202
0.213644
0.224169
0.233907
0.242959
0.251406
0.259314
0.266737
0.273722
0.280307
0.286526
0.292409
0.297981
0.303265
0.308282
0.31305
0.317586
0.321904
0.326017
0.329939
0.333681
0.337253
0.340665
0.343926
0.347043
0.350026
0.35288
0.355612
0.358229
0.360737
0.363141
0.365445
0.367655
0.369776
0.371811
0.373765
0.37564
0.377442
0.379173
0.380836
0.382434
0.383971
0.385448
0.38687
0.388236
0.389551
0.390816
0.392034
0.393206
0.394334
0.39542
0.396466
0.397473
0.398444
0.399378
0.400278
0.401145
0.401981
0.402786
0.403562
0.40431
0.405031
0.405725
0.406394
0.40704
0.407652
0.408242
0.408824
0.4094
0.409969
0.410531
0.411086
0.411635
0.412177
0.412713
0.413242
0.413765
0.414282
0.414793
0.415297
0.415796
0.416288
0.416775
0.417255
0.41773
0.4182
0.418663
0.41912
0.419576
0.419969
0.420318
0.420666
0.421012
0.421357
0.421701
0.422044
0.422386
0.422727
0.423067
0.423406
0.423743
0.424079
0.424415
0.424749
0.425082
0.425413
0.425744
0.426073
0.426402
0.426729
0.427054
0.427379
0.427702
0.428024
0.428345
0.428665
0.428983
0.4293
0.429616
0.42993
0.430243
0.430555
0.430866
0.431175
0.431483
0.431789
0.432095
0.432399
0.432701
0.433002
0.433302
0.4336
0.433897
0.434193
0.434487
0.434779
0.43507
0.43536
0.435648
0.435935
0.436221
0.436504
0.436787
0.437068
0.437347
0.437625
0.437901
0.438176
0.438449
0.438721
0.438991
0.439259
0.439526
0.439791
0.440055
0.440317
0.440577
0.440836
0.441093
0.441349
0.441602
0.441854
0.442105
0.442353
0.442601
0.442846
0.443089
0.443331
0.443571
0.443809
0.444046
0.444281
0.444514
0.444745
0.444974
0.445202
0.445428
0.445651
0.445873
0.446093
0.446312
0.446528
0.446743
0.446955
0.447166
0.447375
0.447582
0.447786
0.447989
0.44819
0.448389
0.448586
0.448781
0.448974
0.449165
0.449354
0.449541
0.449726
0.449909
0.45009
0.450268
0.450445
0.45062
0.450792
0.450962
0.45113
0.451296
0.45146
0.451622
0.451781
0.451938
0.452094
0.452246
0.452397
0.452546
0.452692
0.452836
0.452977
0.453117
0.453254
0.453389
0.453521
0.453652
0.45378
0.453905
0.454028
0.454149
0.454268
0.454384
0.454498
0.454609
0.454718
0.454824
0.454928
0.45503
0.455129
0.455226
0.45532
0.455412
0.455501
0.455588
0.455672
0.455754
0.455833
0.45591
0.455984
0.456055
0.456124
0.45619
0.456254
0.456315
0.456374
0.45643
0.456483
0.456533
0.456581
0.456626
0.456669
0.456709
0.456746
0.45678
0.456814
0.456833
0.456848
0.456862
0.456873
0.456883
0.456892
0.456899
0.456904
0.456908
0.45691
0.45691
0.456908
0.456904
0.456897
0.456889
0.456879
0.456866
0.456851
0.456833
0.456813
0.45679
0.456765
0.456736
0.456705
0.456671
0.456634
0.456594
0.45655
0.456503
0.456453
0.456399
0.456341
0.45628
0.456215
0.456145
0.456072
0.455995
0.455913
0.455827
0.455736
0.455641
0.455541
0.455436
0.455326
0.455211
0.455091
0.454965
0.454834
0.454697
0.454555
0.454406
0.454251
0.454091
0.453924
0.45375
0.45357
0.453383
0.453189
0.452988
0.452779
0.452564
0.452341
0.45211
0.451871
0.451624
0.451369
0.451106
0.450834
0.450554
0.450264
0.449966
0.449658
0.449341
0.449015
0.448678
0.448332
0.447976
0.447609
0.447232
0.446844
0.446446
0.446036
0.445615
0.445183
0.444739
0.444284
0.443816
0.443336
0.442844
0.442339
0.441822
0.441292
0.440748
0.440191
0.439621
0.439036
0.438438
0.437826
0.437199
0.436557
0.435901
0.43523
0.434543
0.433841
0.433123
0.43239
0.43164
0.430874
0.430091
0.429291
0.428475
0.427641
0.426789
0.42592
0.425033
0.424128
0.423205
0.422263
0.421303
0.420323
0.419325
0.418307
0.41727
0.416214
0.415138
0.414041
0.412926
0.41179
0.410634
0.409458
0.408261
0.407044
0.405807
0.404549
0.403271
0.401973
0.400654
0.399314
0.397954
0.396574
0.395174
0.393753
0.392312
0.39085
0.389369
0.387868
0.386348
0.384807
0.383247
0.381668
0.38007
0.378452
0.376816
0.375162
0.373489
0.371798
0.370089
0.368363
0.36662
0.364859
0.363082
0.361288
0.359478
0.357653
0.355811
0.353955
0.352084
0.350199
0.348299
0.346386
0.344459
0.34252
0.340568
0.338604
0.336628
0.334641
0.332644
0.330635
0.328618
0.326591
0.324554
0.322284
0.319808
0.317357
0.314929
0.312523
0.31014
0.307781
0.305446
0.303135
0.300848
0.298586
0.29635
0.294138
0.291953
0.289793
0.287659
0.285552
0.283471
0.281416
0.279389
0.277388
0.275414
0.273467
0.271547
0.269654
0.267788
0.26595
0.264139
0.262356
0.260599
0.25887
0.257169
0.255495
0.253848
0.252229
0.250637
0.249074
0.247536
0.246027
0.244545
0.24309
0.241662
0.240263
0.238889
0.237544
0.236225
0.234934
0.233668
0.232431
0.23122
0.230037
0.228879
0.227749
0.226645
0.225568
0.224517
0.223493
0.222494
0.221524
0.220577
0.219659
0.218765
0.217899
0.217057
0.216243
0.215452
0.21469
0.213951
0.21324
0.212552
0.211892
0.211256
0.210647
0.210061
0.209502
0.208967
0.208459
0.207975
0.207517
0.207083
0.206676
0.206292
0.205935
0.205601
0.205295
0.205012
0.204756
0.204524
0.204317
0.204134
0.203976
0.203841
0.203726
0.203648
0.203547
)
;
    }
    bottomWall
    {
        type            calculated;
        value           nonuniform List<scalar> 
449
(
0.00262507
0.00502314
0.00544625
0.00526205
0.00504334
0.0048334
0.00465643
0.00451168
0.00439124
0.00428871
0.00420186
0.00412632
0.00406332
0.00400842
0.00395746
0.00391119
0.00387251
0.00383334
0.00380275
0.00377287
0.00374702
0.00372299
0.00370081
0.00368101
0.00366535
0.00364665
0.00363094
0.00361483
0.00360009
0.00358847
0.00357862
0.00356553
0.0035537
0.00354183
0.00353149
0.00352345
0.00351472
0.00350582
0.00349957
0.00349153
0.00348436
0.0034759
0.00346905
0.00346301
0.00345531
0.003449
0.00344318
0.00343723
0.003433
0.00342956
0.00342398
0.00341918
0.00341626
0.00341246
0.00340742
0.00340319
0.00339952
0.00339628
0.00339356
0.00338935
0.00338667
0.00338281
0.00338062
0.00337814
0.003375
0.00337291
0.0033716
0.00336876
0.0033651
0.00336278
0.00336173
0.0033594
0.00335571
0.00335265
0.00334994
0.00334768
0.00334575
0.00334483
0.00334445
0.00334386
0.00334189
0.00333934
0.00333728
0.00333648
0.00333658
0.00333629
0.00333344
0.00333034
0.00332911
0.00332847
0.0033281
0.00332773
0.00332739
0.00332747
0.0033272
0.00332545
0.00332368
0.00332257
0.00332224
0.00332167
0.00332039
0.00331988
0.00331965
0.00331951
0.00331949
0.00331941
0.00331849
0.00331613
0.00331493
0.00331394
0.00331344
0.0033131
0.00331297
0.00331289
0.00331298
0.00331217
0.00331098
0.00331088
0.00331077
0.00330914
0.00330803
0.00330785
0.0033073
0.00330696
0.00330685
0.00330694
0.00330715
0.00330724
0.00330679
0.00330466
0.00330357
0.00330284
0.00330263
0.00330212
0.00330167
0.00330186
0.0033021
0.00330197
0.00330162
0.00330169
0.00330242
0.00330251
0.00330206
0.003301
0.00330061
0.00330014
0.00329984
0.00330007
0.00330004
0.00329955
0.00329829
0.00329749
0.00329744
0.00329772
0.00329746
0.0032969
0.00329719
0.00329734
0.00329741
0.00329744
0.00329687
0.00329615
0.00329596
0.00329597
0.00329551
0.00329524
0.00329522
0.00329528
0.00329515
0.0032953
0.00329564
0.00329545
0.00329414
0.00329369
0.00329405
0.00329432
0.00329396
0.00329384
0.00329371
0.00329367
0.0032937
0.00329335
0.00329279
0.00329343
0.00329407
0.0032939
0.00329287
0.00329254
0.00329212
0.00329234
0.00329294
0.00329292
0.00329249
0.00329237
0.0032924
0.00329227
0.00329106
0.00329063
0.00329031
0.00328966
0.00328963
0.00328962
0.00328951
0.00328975
0.00328958
0.00328856
0.00328715
0.00328696
0.00328722
0.00328794
0.00328849
0.00328858
0.00328805
0.00328807
0.00328792
0.00328807
0.00328855
0.00328842
0.00328796
0.00328835
0.00328817
0.00328758
0.00328753
0.00328737
0.00328694
0.00328664
0.00328662
0.00328621
0.00328604
0.00328567
0.00328506
0.00328453
0.00328303
0.00328235
0.00328257
0.00328273
0.00328298
0.00328337
0.00328293
0.00328246
0.00328198
0.00328158
0.00328236
0.0032826
0.00328295
0.00328281
0.00328212
0.00328226
0.00328198
0.0032806
0.00328004
0.00327984
0.00327978
0.00328032
0.0032804
0.00328069
0.00328004
0.00327851
0.00327793
0.00327821
0.00327896
0.00327884
0.00327814
0.00327775
0.00327768
0.00327764
0.00327789
0.00327792
0.00327739
0.00327702
0.00327696
0.00327732
0.00327794
0.00327777
0.0032773
0.00327723
0.00327711
0.003277
0.00327731
0.00327723
0.00327644
0.00327599
0.00327609
0.00327637
0.00327683
0.00327688
0.00327678
0.00327639
0.00327565
0.00327573
0.00327557
0.00327509
0.00327527
0.00327534
0.00327535
0.00327611
0.00327686
0.00327699
0.00327679
0.00327654
0.00327625
0.00327587
0.0032758
0.0032755
0.00327561
0.00327568
0.00327563
0.00327542
0.00327485
0.00327428
0.00327401
0.00327393
0.00327373
0.00327395
0.00327521
0.0032752
0.00327475
0.00327483
0.00327399
0.00327315
0.003273
0.00327283
0.00327342
0.00327464
0.00327512
0.00327478
0.00327408
0.00327343
0.00327316
0.00327314
0.00327341
0.00327416
0.00327522
0.00327511
0.00327405
0.00327321
0.00327308
0.00327336
0.003273
0.00327228
0.00327195
0.00327167
0.00327209
0.00327268
0.00327334
0.00327345
0.00327328
0.00327376
0.00327395
0.00327364
0.00327343
0.00327325
0.0032727
0.00327243
0.00327219
0.0032719
0.00327245
0.0032731
0.00327251
0.00327217
0.00327261
0.00327266
0.00327282
0.00327276
0.00327251
0.00327217
0.00327235
0.00327214
0.00327167
0.00327194
0.00327214
0.00327187
0.00327174
0.00327187
0.00327194
0.00327176
0.00327181
0.00327167
0.00327174
0.00327204
0.00327192
0.00327195
0.00327144
0.00327128
0.00327203
0.00327257
0.00327235
0.00327234
0.00327244
0.00327203
0.00327166
0.00327136
0.00327087
0.00327121
0.00327148
0.00327169
0.00327169
0.00327161
0.00327195
0.00327169
0.00327108
0.00327069
0.003271
0.00327116
0.00327045
0.00327016
0.00327048
0.00327064
0.0032704
0.00327027
0.00327097
0.00327095
0.00327093
0.00327152
0.00327181
0.00327156
0.00327125
0.00327099
0.00327094
0.00327142
0.00327158
0.00327145
0.00327155
0.00327138
0.00327112
0.00327115
0.00327105
0.00327038
0.00326976
0.00327001
0.00327072
0.00327078
0.00327085
0.00327138
0.00327159
0.0032715
0.00327101
0.00327098
0.00327098
0.00327109
0.00327094
0.00327057
0.00327008
0.00327005
0.00327035
0.00327029
0.00327033
0.00327049
0.00327112
)
;
    }
    symmetry
    {
        type            symmetryPlane;
    }
    frontAndBack
    {
        type            empty;
    }
}


// ************************************************************************* //
