/*--------------------------------*- C++ -*----------------------------------*\
| =========                 |                                                 |
| \\      /  F ield         | OpenFOAM: The Open Source CFD Toolbox           |
|  \\    /   O peration     | Version:  v2012                                 |
|   \\  /    A nd           | Website:  www.openfoam.com                      |
|    \\/     M anipulation  |                                                 |
\*---------------------------------------------------------------------------*/
FoamFile
{
    version     2.0;
    format      ascii;
    class       volScalarField;
    location    "38";
    object      k;
}
// * * * * * * * * * * * * * * * * * * * * * * * * * * * * * * * * * * * * * //

dimensions      [0 2 -2 0 0 0 0];


internalField   nonuniform List<scalar> 
209825
(
0.00102404
0.000930654
0.000855448
0.000796742
0.000751653
0.000716938
0.000689938
0.000668579
0.000651447
0.000637468
0.000625941
0.000616294
0.000608163
0.000601224
0.000595272
0.000590113
0.000585625
0.000581689
0.00057822
0.000575151
0.000572416
0.000569981
0.000567787
0.000565824
0.000564038
0.000562439
0.000560966
0.000559647
0.000558418
0.000557321
0.00055629
0.000555367
0.000554492
0.000553718
0.000552972
0.000552314
0.000551669
0.00055111
0.000550558
0.00055008
0.0005496
0.000549194
0.000548783
0.000548427
0.00054807
0.000547771
0.000547457
0.000547197
0.000546921
0.000546695
0.00054646
0.000546275
0.000546075
0.000545907
0.000545738
0.000545602
0.000545442
0.000545338
0.000545192
0.000545102
0.000544974
0.000544903
0.000544791
0.000544729
0.000544623
0.000544534
0.000544477
0.000544452
0.000544408
0.000544386
0.000544336
0.000544329
0.000544311
0.000544348
0.000544348
0.000544419
0.000544422
0.000544501
0.000544516
0.0005446
0.000544632
0.000544728
0.000544766
0.000544869
0.000544917
0.000545038
0.000545096
0.000545237
0.000545301
0.000545471
0.000545538
0.000545714
0.000545941
0.000554874
0.000584275
0.00143941
0.00102404
0.000930654
0.000855448
0.000796741
0.000751651
0.000716934
0.000689933
0.000668572
0.00065144
0.000637459
0.000625931
0.000616284
0.000608152
0.000601212
0.00059526
0.000590101
0.000585612
0.000581676
0.000578207
0.000575137
0.000572402
0.000569967
0.000567773
0.00056581
0.000564023
0.000562424
0.000560951
0.000559632
0.000558403
0.000557306
0.000556274
0.000555352
0.000554476
0.000553703
0.000552956
0.000552298
0.000551653
0.000551094
0.000550542
0.000550064
0.000549583
0.000549177
0.000548766
0.000548411
0.000548053
0.000547755
0.000547441
0.00054718
0.000546905
0.000546678
0.000546443
0.000546258
0.000546058
0.000545891
0.000545721
0.000545585
0.000545425
0.000545321
0.000545175
0.000545085
0.000544957
0.000544886
0.000544774
0.000544712
0.000544606
0.000544517
0.00054446
0.000544435
0.000544391
0.000544369
0.000544319
0.000544312
0.000544294
0.000544331
0.000544331
0.000544402
0.000544405
0.000544484
0.000544498
0.000544583
0.000544615
0.000544711
0.000544749
0.000544851
0.0005449
0.00054502
0.000545079
0.00054522
0.000545283
0.000545453
0.00054552
0.000545696
0.000545924
0.000554873
0.000584266
0.00144023
0.00102404
0.000930655
0.000855448
0.000796736
0.00075164
0.000716917
0.000689911
0.000668545
0.000651408
0.000637423
0.000625892
0.000616242
0.000608108
0.000601166
0.000595212
0.000590051
0.000585561
0.000581623
0.000578153
0.000575082
0.000572346
0.00056991
0.000567715
0.000565752
0.000563964
0.000562365
0.000560891
0.000559572
0.000558342
0.000557244
0.000556213
0.00055529
0.000554414
0.00055364
0.000552893
0.000552235
0.00055159
0.000551031
0.000550478
0.00055
0.000549519
0.000549113
0.000548702
0.000548346
0.000547988
0.000547689
0.000547376
0.000547115
0.000546839
0.000546612
0.000546377
0.000546192
0.000545992
0.000545824
0.000545655
0.000545519
0.000545359
0.000545255
0.000545108
0.000545018
0.00054489
0.00054482
0.000544707
0.000544645
0.000544539
0.00054445
0.000544393
0.000544367
0.000544324
0.000544302
0.000544252
0.000544245
0.000544226
0.000544263
0.000544263
0.000544334
0.000544337
0.000544416
0.00054443
0.000544515
0.000544547
0.000544642
0.00054468
0.000544783
0.000544831
0.000544951
0.00054501
0.000545151
0.000545214
0.000545384
0.000545451
0.000545627
0.000545855
0.000554837
0.000584213
0.00144188
0.00102404
0.000930657
0.000855447
0.000796728
0.000751622
0.000716888
0.000689872
0.000668498
0.000651354
0.000637363
0.000625827
0.000616171
0.000608034
0.000601088
0.00059513
0.000589967
0.000585474
0.000581535
0.000578063
0.00057499
0.000572252
0.000569815
0.000567619
0.000565654
0.000563866
0.000562265
0.000560791
0.00055947
0.00055824
0.000557141
0.000556109
0.000555186
0.000554309
0.000553535
0.000552788
0.000552129
0.000551483
0.000550924
0.00055037
0.000549892
0.000549411
0.000549004
0.000548593
0.000548237
0.000547879
0.00054758
0.000547266
0.000547005
0.000546729
0.000546502
0.000546267
0.000546081
0.000545881
0.000545713
0.000545544
0.000545407
0.000545247
0.000545143
0.000544997
0.000544907
0.000544778
0.000544707
0.000544595
0.000544533
0.000544426
0.000544337
0.00054428
0.000544255
0.000544211
0.000544189
0.000544139
0.000544132
0.000544113
0.00054415
0.000544149
0.00054422
0.000544223
0.000544302
0.000544316
0.0005444
0.000544432
0.000544528
0.000544565
0.000544668
0.000544716
0.000544836
0.000544894
0.000545035
0.000545098
0.000545268
0.000545335
0.000545511
0.00054574
0.000554773
0.00058412
0.0014438
0.00102404
0.00093066
0.000855446
0.000796716
0.000751596
0.000716848
0.000689818
0.000668432
0.000651277
0.000637278
0.000625734
0.000616072
0.000607928
0.000600977
0.000595016
0.000589848
0.000585352
0.00058141
0.000577935
0.00057486
0.00057212
0.00056968
0.000567483
0.000565516
0.000563727
0.000562125
0.000560649
0.000559327
0.000558095
0.000556996
0.000555963
0.000555039
0.000554162
0.000553386
0.000552639
0.000551979
0.000551333
0.000550773
0.000550219
0.00054974
0.000549259
0.000548852
0.00054844
0.000548084
0.000547725
0.000547426
0.000547111
0.00054685
0.000546574
0.000546347
0.000546111
0.000545925
0.000545725
0.000545557
0.000545387
0.000545251
0.00054509
0.000544986
0.000544839
0.000544749
0.00054462
0.000544549
0.000544437
0.000544374
0.000544268
0.000544179
0.000544121
0.000544096
0.000544052
0.000544029
0.00054398
0.000543972
0.000543953
0.000543989
0.000543989
0.000544059
0.000544062
0.00054414
0.000544154
0.000544239
0.00054427
0.000544366
0.000544403
0.000544505
0.000544554
0.000544673
0.000544731
0.000544872
0.000544935
0.000545105
0.000545171
0.000545347
0.000545577
0.000554682
0.000583988
0.00144597
0.00102405
0.000930664
0.000855444
0.0007967
0.000751562
0.000716795
0.000689749
0.000668347
0.000651179
0.000637168
0.000625614
0.000615943
0.000607792
0.000600835
0.000594867
0.000589695
0.000585194
0.000581248
0.00057777
0.000574691
0.000571948
0.000569506
0.000567306
0.000565338
0.000563546
0.000561943
0.000560465
0.000559142
0.000557909
0.000556808
0.000555774
0.000554849
0.000553971
0.000553194
0.000552446
0.000551785
0.000551139
0.000550577
0.000550023
0.000549544
0.000549061
0.000548654
0.000548242
0.000547885
0.000547526
0.000547226
0.000546911
0.000546649
0.000546373
0.000546145
0.000545909
0.000545723
0.000545522
0.000545354
0.000545184
0.000545047
0.000544886
0.000544782
0.000544635
0.000544544
0.000544416
0.000544344
0.000544232
0.000544169
0.000544063
0.000543973
0.000543916
0.00054389
0.000543846
0.000543823
0.000543773
0.000543765
0.000543746
0.000543781
0.000543781
0.000543851
0.000543853
0.000543931
0.000543945
0.000544029
0.00054406
0.000544156
0.000544193
0.000544295
0.000544343
0.000544462
0.00054452
0.000544661
0.000544724
0.000544893
0.000544959
0.000545135
0.000545366
0.000554564
0.000583817
0.00144834
0.00102405
0.000930669
0.000855442
0.000796681
0.000751521
0.000716731
0.000689663
0.000668242
0.000651057
0.000637032
0.000625466
0.000615784
0.000607624
0.000600659
0.000594684
0.000589506
0.000585
0.000581048
0.000577566
0.000574484
0.000571737
0.000569292
0.000567089
0.000565118
0.000563324
0.000561718
0.000560238
0.000558913
0.000557679
0.000556577
0.000555541
0.000554614
0.000553735
0.000552957
0.000552208
0.000551546
0.000550898
0.000550336
0.000549781
0.000549301
0.000548818
0.00054841
0.000547997
0.000547639
0.00054728
0.000546979
0.000546664
0.000546402
0.000546125
0.000545897
0.00054566
0.000545474
0.000545272
0.000545104
0.000544933
0.000544796
0.000544635
0.00054453
0.000544383
0.000544292
0.000544163
0.000544092
0.000543979
0.000543916
0.00054381
0.00054372
0.000543662
0.000543635
0.000543591
0.000543569
0.000543519
0.00054351
0.00054349
0.000543525
0.000543524
0.000543593
0.000543596
0.000543674
0.000543687
0.000543771
0.000543802
0.000543897
0.000543934
0.000544036
0.000544083
0.000544202
0.00054426
0.0005444
0.000544463
0.000544632
0.000544698
0.000544873
0.000545106
0.000554419
0.000583606
0.00145079
0.00102405
0.000930675
0.00085544
0.000796659
0.000751472
0.000716654
0.00068956
0.000668117
0.000650912
0.00063687
0.000625289
0.000615595
0.000607424
0.000600449
0.000594466
0.00058928
0.000584767
0.00058081
0.000577322
0.000574236
0.000571485
0.000569036
0.000566829
0.000564855
0.000563058
0.00056145
0.000559968
0.000558641
0.000557404
0.0005563
0.000555262
0.000554334
0.000553453
0.000552675
0.000551924
0.000551261
0.000550612
0.000550049
0.000549493
0.000549012
0.000548528
0.000548119
0.000547705
0.000547347
0.000546986
0.000546685
0.000546369
0.000546106
0.000545829
0.0005456
0.000545363
0.000545176
0.000544974
0.000544805
0.000544634
0.000544497
0.000544335
0.00054423
0.000544083
0.000543992
0.000543862
0.00054379
0.000543677
0.000543614
0.000543508
0.000543418
0.000543359
0.000543332
0.000543288
0.000543265
0.000543215
0.000543206
0.000543185
0.000543218
0.000543218
0.000543287
0.000543289
0.000543366
0.000543379
0.000543463
0.000543493
0.000543588
0.000543624
0.000543726
0.000543774
0.000543892
0.00054395
0.000544089
0.000544151
0.00054432
0.000544386
0.000544561
0.000544796
0.000554248
0.000583356
0.00145315
0.00102405
0.000930681
0.000855438
0.000796633
0.000751415
0.000716565
0.000689441
0.000667971
0.000650744
0.000636682
0.000625084
0.000615375
0.000607191
0.000600205
0.000594212
0.000589018
0.000584497
0.000580533
0.00057704
0.000573947
0.000571191
0.000568738
0.000566528
0.00056455
0.000562749
0.000561138
0.000559653
0.000558324
0.000557084
0.000555978
0.000554939
0.000554009
0.000553126
0.000552345
0.000551593
0.000550929
0.000550279
0.000549714
0.000549157
0.000548675
0.00054819
0.00054778
0.000547365
0.000547006
0.000546644
0.000546343
0.000546026
0.000545762
0.000545484
0.000545255
0.000545017
0.00054483
0.000544627
0.000544458
0.000544286
0.000544148
0.000543986
0.000543881
0.000543733
0.000543641
0.000543511
0.000543439
0.000543326
0.000543262
0.000543156
0.000543066
0.000543006
0.000542979
0.000542934
0.000542911
0.000542861
0.000542852
0.00054283
0.000542862
0.000542862
0.000542929
0.000542931
0.000543008
0.000543021
0.000543104
0.000543134
0.000543228
0.000543264
0.000543366
0.000543413
0.000543531
0.000543588
0.000543727
0.000543789
0.000543957
0.000544022
0.000544197
0.000544435
0.000554051
0.000583067
0.00145515
0.00102405
0.000930689
0.000855436
0.000796603
0.00075135
0.000716463
0.000689306
0.000667806
0.000650552
0.000636467
0.00062485
0.000615124
0.000606926
0.000599926
0.000593922
0.000588718
0.000584189
0.000580217
0.000576716
0.000573617
0.000570856
0.000568397
0.000566182
0.0005642
0.000562396
0.000560781
0.000559293
0.000557961
0.000556719
0.00055561
0.000554568
0.000553636
0.000552751
0.000551969
0.000551214
0.000550549
0.000549897
0.000549331
0.000548772
0.000548289
0.000547803
0.000547392
0.000546976
0.000546616
0.000546253
0.000545951
0.000545633
0.000545369
0.00054509
0.00054486
0.000544622
0.000544433
0.00054423
0.00054406
0.000543888
0.00054375
0.000543587
0.000543481
0.000543332
0.00054324
0.00054311
0.000543038
0.000542923
0.00054286
0.000542753
0.000542663
0.000542603
0.000542575
0.00054253
0.000542507
0.000542456
0.000542447
0.000542423
0.000542454
0.000542454
0.000542521
0.000542522
0.000542598
0.00054261
0.000542693
0.000542723
0.000542817
0.000542852
0.000542953
0.000543
0.000543117
0.000543174
0.000543313
0.000543374
0.000543542
0.000543606
0.00054378
0.000544021
0.000553828
0.000582737
0.00145641
0.00102405
0.000930698
0.000855433
0.00079657
0.000751277
0.00071635
0.000689154
0.000667619
0.000650336
0.000636226
0.000624586
0.000614841
0.000606626
0.000599612
0.000593596
0.00058838
0.000583841
0.00057986
0.000576351
0.000573246
0.000570478
0.000568013
0.000565793
0.000563806
0.000561998
0.000560379
0.000558887
0.000557551
0.000556306
0.000555195
0.00055415
0.000553215
0.000552328
0.000551544
0.000550788
0.00055012
0.000549467
0.000548899
0.000548339
0.000547854
0.000547367
0.000546954
0.000546537
0.000546176
0.000545812
0.000545509
0.00054519
0.000544925
0.000544645
0.000544414
0.000544175
0.000543986
0.000543782
0.000543611
0.000543438
0.000543299
0.000543136
0.000543029
0.00054288
0.000542788
0.000542657
0.000542584
0.00054247
0.000542405
0.000542299
0.000542209
0.000542147
0.000542119
0.000542073
0.00054205
0.000541999
0.000541989
0.000541964
0.000541994
0.000541994
0.000542059
0.00054206
0.000542136
0.000542147
0.00054223
0.000542259
0.000542352
0.000542387
0.000542488
0.000542534
0.000542651
0.000542707
0.000542845
0.000542906
0.000543073
0.000543136
0.00054331
0.000543555
0.000553581
0.000582366
0.0014564
0.00102405
0.000930707
0.00085543
0.000796534
0.000751197
0.000716223
0.000688985
0.000667412
0.000650096
0.000635957
0.000624293
0.000614526
0.000606292
0.000599262
0.000593231
0.000588003
0.000583453
0.000579462
0.000575944
0.000572831
0.000570056
0.000567585
0.000565359
0.000563367
0.000561553
0.00055993
0.000558434
0.000557095
0.000555846
0.000554731
0.000553684
0.000552746
0.000551857
0.00055107
0.000550311
0.000549642
0.000548986
0.000548417
0.000547855
0.000547369
0.00054688
0.000546466
0.000546047
0.000545685
0.00054532
0.000545015
0.000544695
0.000544429
0.000544148
0.000543917
0.000543676
0.000543486
0.000543282
0.000543111
0.000542936
0.000542797
0.000542633
0.000542526
0.000542376
0.000542283
0.000542152
0.000542078
0.000541963
0.000541899
0.000541792
0.000541701
0.000541639
0.00054161
0.000541564
0.00054154
0.000541489
0.000541479
0.000541452
0.000541481
0.00054148
0.000541544
0.000541545
0.00054162
0.000541631
0.000541713
0.000541741
0.000541834
0.000541868
0.000541968
0.000542014
0.00054213
0.000542186
0.000542323
0.000542383
0.00054255
0.000542612
0.000542786
0.000543035
0.000553307
0.000581953
0.00145468
0.00102405
0.000930717
0.000855427
0.000796494
0.000751109
0.000716085
0.000688799
0.000667184
0.000649831
0.00063566
0.000623969
0.000614179
0.000605924
0.000598876
0.000592829
0.000587587
0.000583024
0.000579023
0.000575495
0.000572373
0.00056959
0.000567112
0.000564879
0.000562881
0.000561062
0.000559434
0.000557934
0.00055659
0.000555337
0.000554219
0.000553168
0.000552228
0.000551335
0.000550546
0.000549785
0.000549113
0.000548455
0.000547884
0.00054732
0.000546832
0.000546341
0.000545925
0.000545506
0.000545142
0.000544776
0.00054447
0.000544149
0.000543881
0.000543599
0.000543367
0.000543125
0.000542934
0.000542729
0.000542557
0.000542381
0.000542242
0.000542076
0.000541969
0.000541818
0.000541725
0.000541593
0.000541519
0.000541403
0.000541338
0.000541231
0.00054114
0.000541077
0.000541047
0.000541
0.000540976
0.000540925
0.000540914
0.000540886
0.000540913
0.000540912
0.000540975
0.000540975
0.000541049
0.000541059
0.000541141
0.000541168
0.00054126
0.000541294
0.000541393
0.000541438
0.000541554
0.000541609
0.000541745
0.000541805
0.000541971
0.000542033
0.000542206
0.00054246
0.000553009
0.000581498
0.00145124
0.00102406
0.000930729
0.000855424
0.000796451
0.000751013
0.000715933
0.000688596
0.000666935
0.000649542
0.000635336
0.000623614
0.000613798
0.000605521
0.000598453
0.000592389
0.000587131
0.000582555
0.000578541
0.000575003
0.00057187
0.000569079
0.000566593
0.000564353
0.000562348
0.000560523
0.00055889
0.000557384
0.000556036
0.000554779
0.000553657
0.000552603
0.000551659
0.000550763
0.000549971
0.000549207
0.000548533
0.000547873
0.0005473
0.000546733
0.000546243
0.00054575
0.000545333
0.000544911
0.000544546
0.000544178
0.000543871
0.000543548
0.00054328
0.000542997
0.000542763
0.00054252
0.000542328
0.000542122
0.000541949
0.000541773
0.000541632
0.000541466
0.000541357
0.000541206
0.000541112
0.000540979
0.000540905
0.000540788
0.000540723
0.000540616
0.000540524
0.00054046
0.00054043
0.000540382
0.000540357
0.000540306
0.000540294
0.000540265
0.000540291
0.000540289
0.00054035
0.00054035
0.000540423
0.000540432
0.000540513
0.000540539
0.000540631
0.000540664
0.000540763
0.000540807
0.000540922
0.000540976
0.000541112
0.000541171
0.000541336
0.000541397
0.00054157
0.000541829
0.000552685
0.000581
0.00144611
0.00102406
0.000930741
0.000855421
0.000796405
0.000750909
0.000715769
0.000688376
0.000666664
0.000649227
0.000634983
0.000623229
0.000613384
0.000605082
0.000597992
0.000591909
0.000586634
0.000582043
0.000578016
0.000574466
0.000571323
0.000568522
0.000566027
0.00056378
0.000561768
0.000559937
0.000558297
0.000556786
0.000555433
0.000554171
0.000553045
0.000551986
0.000551039
0.00055014
0.000549344
0.000548577
0.0005479
0.000547238
0.000546662
0.000546093
0.000545601
0.000545106
0.000544687
0.000544263
0.000543897
0.000543527
0.000543218
0.000542894
0.000542625
0.00054234
0.000542105
0.000541861
0.000541668
0.00054146
0.000541286
0.000541109
0.000540967
0.0005408
0.000540691
0.000540539
0.000540444
0.00054031
0.000540235
0.000540118
0.000540052
0.000539945
0.000539853
0.000539787
0.000539756
0.000539708
0.000539683
0.000539631
0.000539618
0.000539588
0.000539612
0.000539609
0.000539668
0.000539668
0.00053974
0.000539748
0.000539828
0.000539854
0.000539945
0.000539977
0.000540075
0.000540119
0.000540232
0.000540286
0.000540421
0.00054048
0.000540643
0.000540703
0.000540876
0.000541141
0.000552336
0.000580456
0.00143932
0.00102406
0.000930755
0.000855418
0.000796355
0.000750797
0.000715593
0.000688138
0.000666372
0.000648888
0.000634602
0.000622812
0.000612936
0.000604607
0.000597494
0.00059139
0.000586097
0.00058149
0.000577448
0.000573885
0.000570731
0.000567919
0.000565415
0.000563159
0.000561139
0.000559301
0.000557654
0.000556138
0.000554779
0.000553512
0.000552381
0.000551318
0.000550367
0.000549464
0.000548665
0.000547895
0.000547215
0.00054655
0.000545971
0.0005454
0.000544905
0.000544408
0.000543987
0.000543561
0.000543193
0.000542821
0.000542511
0.000542185
0.000541914
0.000541628
0.000541392
0.000541146
0.000540952
0.000540742
0.000540568
0.000540389
0.000540247
0.000540078
0.000539968
0.000539815
0.00053972
0.000539585
0.000539509
0.000539391
0.000539324
0.000539217
0.000539125
0.000539057
0.000539026
0.000538976
0.000538951
0.000538899
0.000538885
0.000538853
0.000538875
0.000538872
0.000538929
0.000538929
0.000538999
0.000539007
0.000539086
0.000539111
0.000539201
0.000539232
0.000539329
0.000539372
0.000539485
0.000539538
0.000539672
0.00053973
0.000539892
0.000539951
0.000540123
0.000540395
0.00055196
0.000579867
0.00143091
0.00102406
0.000930769
0.000855415
0.000796303
0.000750678
0.000715404
0.000687883
0.000666058
0.000648523
0.000634192
0.000622364
0.000612454
0.000604096
0.000596957
0.000590831
0.000585518
0.000580893
0.000576836
0.000573259
0.000570092
0.000567269
0.000564755
0.000562489
0.000560461
0.000558615
0.000556962
0.000555438
0.000554074
0.000552802
0.000551666
0.000550598
0.000549642
0.000548735
0.000547932
0.000547159
0.000546476
0.000545807
0.000545226
0.000544651
0.000544155
0.000543655
0.000543231
0.000542803
0.000542433
0.000542059
0.000541747
0.00054142
0.000541147
0.000540859
0.000540622
0.000540375
0.000540179
0.000539968
0.000539792
0.000539612
0.000539469
0.000539299
0.000539188
0.000539034
0.000538938
0.000538803
0.000538725
0.000538607
0.000538539
0.000538432
0.000538339
0.00053827
0.000538238
0.000538187
0.000538162
0.000538109
0.000538095
0.000538061
0.000538081
0.000538077
0.000538131
0.000538131
0.0005382
0.000538207
0.000538285
0.000538309
0.000538398
0.000538428
0.000538525
0.000538567
0.000538678
0.000538731
0.000538863
0.000538921
0.000539082
0.000539139
0.000539311
0.000539591
0.000551556
0.000579229
0.00142091
0.00102407
0.000930784
0.000855412
0.000796247
0.000750552
0.000715202
0.000687611
0.000665723
0.000648132
0.000633754
0.000621884
0.000611938
0.000603548
0.000596382
0.000590232
0.000584897
0.000580253
0.000576179
0.000572587
0.000569407
0.000566571
0.000564046
0.000561771
0.000559733
0.000557879
0.000556218
0.000554688
0.000553316
0.000552039
0.000550897
0.000549824
0.000548864
0.000547952
0.000547146
0.000546368
0.000545681
0.000545009
0.000544425
0.000543848
0.000543348
0.000542846
0.00054242
0.000541989
0.000541617
0.000541241
0.000540927
0.000540597
0.000540323
0.000540034
0.000539795
0.000539546
0.000539348
0.000539136
0.000538959
0.000538777
0.000538634
0.000538462
0.00053835
0.000538195
0.000538098
0.000537962
0.000537884
0.000537765
0.000537696
0.000537588
0.000537495
0.000537424
0.000537391
0.000537339
0.000537313
0.00053726
0.000537245
0.000537209
0.000537228
0.000537223
0.000537274
0.000537274
0.000537342
0.000537348
0.000537425
0.000537447
0.000537535
0.000537565
0.00053766
0.000537701
0.000537812
0.000537863
0.000537994
0.000538051
0.000538211
0.000538267
0.000538438
0.000538727
0.000551124
0.00057854
0.00140939
0.00102407
0.000930801
0.000855409
0.000796188
0.000750418
0.000714988
0.000687322
0.000665366
0.000647716
0.000633286
0.000621371
0.000611387
0.000602964
0.000595767
0.000589591
0.000584234
0.00057957
0.000575477
0.000571869
0.000568674
0.000565826
0.000563288
0.000561002
0.000558955
0.000557092
0.000555423
0.000553885
0.000552507
0.000551222
0.000550075
0.000548996
0.000548031
0.000547115
0.000546304
0.000545522
0.000544831
0.000544156
0.000543568
0.000542988
0.000542485
0.00054198
0.000541551
0.000541118
0.000540744
0.000540365
0.000540049
0.000539718
0.000539442
0.00053915
0.00053891
0.000538659
0.00053846
0.000538246
0.000538068
0.000537884
0.000537739
0.000537567
0.000537453
0.000537297
0.000537199
0.000537061
0.000536982
0.000536863
0.000536793
0.000536685
0.000536591
0.000536519
0.000536484
0.000536432
0.000536405
0.000536351
0.000536335
0.000536298
0.000536314
0.000536308
0.000536357
0.000536357
0.000536422
0.000536427
0.000536503
0.000536525
0.000536612
0.00053664
0.000536734
0.000536774
0.000536884
0.000536935
0.000537064
0.00053712
0.000537279
0.000537334
0.000537504
0.000537802
0.000550661
0.000577798
0.00139639
0.00102407
0.000930818
0.000855406
0.000796126
0.000750276
0.000714762
0.000687016
0.000664988
0.000647275
0.00063279
0.000620827
0.000610801
0.000602342
0.000595114
0.00058891
0.000583528
0.000578842
0.00057473
0.000571104
0.000567894
0.000565031
0.000562481
0.000560183
0.000558126
0.000556253
0.000554575
0.000553029
0.000551643
0.000550352
0.000549198
0.000548114
0.000547143
0.000546222
0.000545406
0.00054462
0.000543925
0.000543246
0.000542654
0.00054207
0.000541565
0.000541057
0.000540625
0.000540189
0.000539812
0.000539431
0.000539113
0.000538779
0.000538501
0.000538208
0.000537965
0.000537712
0.000537512
0.000537296
0.000537117
0.000536931
0.000536785
0.000536611
0.000536497
0.000536339
0.00053624
0.000536101
0.000536021
0.0005359
0.00053583
0.000535721
0.000535627
0.000535553
0.000535517
0.000535464
0.000535436
0.000535382
0.000535365
0.000535326
0.00053534
0.000535333
0.000535378
0.000535378
0.000535442
0.000535446
0.000535521
0.000535541
0.000535626
0.000535654
0.000535747
0.000535786
0.000535894
0.000535944
0.000536072
0.000536127
0.000536285
0.000536338
0.000536508
0.000536815
0.000550166
0.000576999
0.00138199
0.00102407
0.000930836
0.000855404
0.000796062
0.000750127
0.000714524
0.000686692
0.000664588
0.000646807
0.000632263
0.00062025
0.00061018
0.000601682
0.00059442
0.000588187
0.000582778
0.000578069
0.000573936
0.000570292
0.000567065
0.000564187
0.000561623
0.000559313
0.000557244
0.000555361
0.000553674
0.000552119
0.000550726
0.000549427
0.000548267
0.000547176
0.0005462
0.000545273
0.000544452
0.000543661
0.000542962
0.000542278
0.000541683
0.000541095
0.000540586
0.000540075
0.00053964
0.000539201
0.000538822
0.000538438
0.000538117
0.000537781
0.000537501
0.000537205
0.000536961
0.000536706
0.000536504
0.000536286
0.000536105
0.000535918
0.000535771
0.000535595
0.000535479
0.000535321
0.00053522
0.00053508
0.000534999
0.000534877
0.000534805
0.000534696
0.000534601
0.000534526
0.000534489
0.000534434
0.000534406
0.000534351
0.000534333
0.000534292
0.000534304
0.000534295
0.000534338
0.000534337
0.000534399
0.000534402
0.000534475
0.000534494
0.000534579
0.000534605
0.000534697
0.000534734
0.000534841
0.00053489
0.000535017
0.000535071
0.000535227
0.000535278
0.000535448
0.000535766
0.000549637
0.000576138
0.00136624
0.00102407
0.000930856
0.000855402
0.000795995
0.000749972
0.000714273
0.000686352
0.000664166
0.000646314
0.000631708
0.000619641
0.000609523
0.000600985
0.000593687
0.000587421
0.000581985
0.000577251
0.000573096
0.000569432
0.000566187
0.000563293
0.000560715
0.000558391
0.000556311
0.000554416
0.000552719
0.000551155
0.000549753
0.000548447
0.000547279
0.000546182
0.000545199
0.000544266
0.00054344
0.000542644
0.00054194
0.000541252
0.000540653
0.000540061
0.000539549
0.000539034
0.000538595
0.000538154
0.000537772
0.000537385
0.000537061
0.000536723
0.00053644
0.000536142
0.000535896
0.000535639
0.000535435
0.000535215
0.000535033
0.000534843
0.000534695
0.000534517
0.0005344
0.00053424
0.000534138
0.000533997
0.000533914
0.000533791
0.000533718
0.000533609
0.000533514
0.000533436
0.000533398
0.000533342
0.000533313
0.000533257
0.000533238
0.000533196
0.000533205
0.000533195
0.000533234
0.000533234
0.000533293
0.000533295
0.000533367
0.000533384
0.000533467
0.000533492
0.000533583
0.000533619
0.000533725
0.000533772
0.000533898
0.000533951
0.000534106
0.000534155
0.000534324
0.000534654
0.000549068
0.000575213
0.00134923
0.00102408
0.000930876
0.0008554
0.000795926
0.000749809
0.000714011
0.000685994
0.000663722
0.000645795
0.000631123
0.000618999
0.000608831
0.000600249
0.000592913
0.000586614
0.000581148
0.000576387
0.000572209
0.000568524
0.00056526
0.000562349
0.000559755
0.000557418
0.000555324
0.000553418
0.00055171
0.000550136
0.000548725
0.000547411
0.000546235
0.000545131
0.000544142
0.000543202
0.00054237
0.000541569
0.00054086
0.000540167
0.000539564
0.000538968
0.000538452
0.000537933
0.000537491
0.000537046
0.000536661
0.000536271
0.000535945
0.000535603
0.000535319
0.000535018
0.00053477
0.00053451
0.000534304
0.000534082
0.000533898
0.000533706
0.000533556
0.000533377
0.000533258
0.000533097
0.000532994
0.000532851
0.000532767
0.000532643
0.000532569
0.000532459
0.000532363
0.000532283
0.000532244
0.000532186
0.000532157
0.000532099
0.00053208
0.000532036
0.000532043
0.000532031
0.000532067
0.000532066
0.000532122
0.000532124
0.000532194
0.000532209
0.000532291
0.000532315
0.000532404
0.000532439
0.000532543
0.00053259
0.000532713
0.000532765
0.000532919
0.000532966
0.000533135
0.000533476
0.000548453
0.000574222
0.00133103
0.00102408
0.000930897
0.000855399
0.000795854
0.00074964
0.000713736
0.00068562
0.000663257
0.000645251
0.000630509
0.000618324
0.000608103
0.000599475
0.000592098
0.000585764
0.000580266
0.000575478
0.000571274
0.000567567
0.000564282
0.000561354
0.000558743
0.000556391
0.000554284
0.000552365
0.000550646
0.000549062
0.000547641
0.000546318
0.000545134
0.000544022
0.000543026
0.00054208
0.000541242
0.000540434
0.000539721
0.000539023
0.000538415
0.000537814
0.000537294
0.000536771
0.000536325
0.000535877
0.000535488
0.000535095
0.000534766
0.000534422
0.000534135
0.000533832
0.000533581
0.000533319
0.00053311
0.000532886
0.000532701
0.000532506
0.000532355
0.000532173
0.000532053
0.00053189
0.000531786
0.000531641
0.000531556
0.000531431
0.000531355
0.000531245
0.000531148
0.000531066
0.000531025
0.000530966
0.000530936
0.000530878
0.000530857
0.000530812
0.000530816
0.000530802
0.000530835
0.000530833
0.000530887
0.000530888
0.000530956
0.00053097
0.00053105
0.000531072
0.00053116
0.000531194
0.000531296
0.000531341
0.000531463
0.000531514
0.000531666
0.000531711
0.000531879
0.000532234
0.000547784
0.000573161
0.00131173
0.00102408
0.000930919
0.000855398
0.00079578
0.000749464
0.00071345
0.000685229
0.000662771
0.00064468
0.000629865
0.000617616
0.00060734
0.000598663
0.000591243
0.000584871
0.00057934
0.000574522
0.000570292
0.000566561
0.000563255
0.000560307
0.000557679
0.000555311
0.000553189
0.000551258
0.000549526
0.000547931
0.0005465
0.000545168
0.000543975
0.000542855
0.000541851
0.000540899
0.000540054
0.00053924
0.000538521
0.000537818
0.000537205
0.000536599
0.000536075
0.000535548
0.000535098
0.000534646
0.000534254
0.000533857
0.000533525
0.000533178
0.000532888
0.000532582
0.000532329
0.000532064
0.000531853
0.000531627
0.000531439
0.000531242
0.00053109
0.000530906
0.000530784
0.000530619
0.000530513
0.000530367
0.000530281
0.000530154
0.000530077
0.000529966
0.000529869
0.000529785
0.000529742
0.000529681
0.00052965
0.000529591
0.000529569
0.000529523
0.000529525
0.000529508
0.000529537
0.000529535
0.000529585
0.000529586
0.000529652
0.000529664
0.000529743
0.000529763
0.00052985
0.000529882
0.000529983
0.000530026
0.000530147
0.000530196
0.000530346
0.00053039
0.000530557
0.000530924
0.000547052
0.000572029
0.0012914
0.00102408
0.000930942
0.000855398
0.000795704
0.000749282
0.000713153
0.000684822
0.000662264
0.000644085
0.000629192
0.000616875
0.00060654
0.000597812
0.000590347
0.000583935
0.000578368
0.000573519
0.000569261
0.000565505
0.000562177
0.000559208
0.000556562
0.000554177
0.000552041
0.000550095
0.000548351
0.000546744
0.000545302
0.000543959
0.000542758
0.000541629
0.000540618
0.000539657
0.000538806
0.000537986
0.000537261
0.000536552
0.000535933
0.000535323
0.000534794
0.000534262
0.000533809
0.000533352
0.000532957
0.000532556
0.000532221
0.00053187
0.000531578
0.000531269
0.000531014
0.000530746
0.000530532
0.000530303
0.000530114