/*--------------------------------*- C++ -*----------------------------------*\
| =========                 |                                                 |
| \\      /  F ield         | OpenFOAM: The Open Source CFD Toolbox           |
|  \\    /   O peration     | Version:  v2012                                 |
|   \\  /    A nd           | Website:  www.openfoam.com                      |
|    \\/     M anipulation  |                                                 |
\*---------------------------------------------------------------------------*/
FoamFile
{
    version     2.0;
    format      ascii;
    class       volScalarField;
    location    "38";
    object      nut;
}
// * * * * * * * * * * * * * * * * * * * * * * * * * * * * * * * * * * * * * //

dimensions      [0 2 -1 0 0 0 0];


internalField   nonuniform List<scalar> 
209825
(
1.23956e-07
1.22996e-07
1.22207e-07
1.21607e-07
1.2119e-07
1.20897e-07
1.20712e-07
1.20583e-07
1.20513e-07
1.20465e-07
1.20452e-07
1.20443e-07
1.20459e-07
1.2047e-07
1.20499e-07
1.2052e-07
1.20556e-07
1.20581e-07
1.20619e-07
1.20646e-07
1.20683e-07
1.2071e-07
1.20746e-07
1.20772e-07
1.20806e-07
1.2083e-07
1.20862e-07
1.20885e-07
1.20914e-07
1.20935e-07
1.20963e-07
1.20981e-07
1.21007e-07
1.21025e-07
1.21049e-07
1.21065e-07
1.21086e-07
1.21101e-07
1.21122e-07
1.21136e-07
1.21153e-07
1.21168e-07
1.21186e-07
1.21197e-07
1.21214e-07
1.21226e-07
1.21241e-07
1.21252e-07
1.21264e-07
1.21274e-07
1.21286e-07
1.21295e-07
1.21306e-07
1.21317e-07
1.21327e-07
1.21338e-07
1.21345e-07
1.21358e-07
1.21363e-07
1.21372e-07
1.21373e-07
1.21383e-07
1.21386e-07
1.21391e-07
1.21391e-07
1.21389e-07
1.21398e-07
1.21405e-07
1.21413e-07
1.21416e-07
1.21421e-07
1.21427e-07
1.21436e-07
1.21452e-07
1.21465e-07
1.21488e-07
1.215e-07
1.21523e-07
1.21535e-07
1.21557e-07
1.2157e-07
1.2159e-07
1.21599e-07
1.21616e-07
1.21627e-07
1.21641e-07
1.21655e-07
1.21668e-07
1.21682e-07
1.21697e-07
1.21712e-07
1.21721e-07
1.21755e-07
1.22924e-07
1.26262e-07
1.27054e-08
1.23956e-07
1.22996e-07
1.22207e-07
1.21607e-07
1.21189e-07
1.20897e-07
1.20712e-07
1.20583e-07
1.20513e-07
1.20465e-07
1.20452e-07
1.20443e-07
1.20459e-07
1.2047e-07
1.20499e-07
1.2052e-07
1.20556e-07
1.20582e-07
1.20619e-07
1.20646e-07
1.20684e-07
1.2071e-07
1.20746e-07
1.20772e-07
1.20806e-07
1.2083e-07
1.20862e-07
1.20885e-07
1.20914e-07
1.20935e-07
1.20963e-07
1.20981e-07
1.21007e-07
1.21025e-07
1.21049e-07
1.21065e-07
1.21086e-07
1.21101e-07
1.21122e-07
1.21136e-07
1.21154e-07
1.21168e-07
1.21186e-07
1.21197e-07
1.21214e-07
1.21226e-07
1.21241e-07
1.21252e-07
1.21265e-07
1.21274e-07
1.21286e-07
1.21296e-07
1.21307e-07
1.21317e-07
1.21327e-07
1.21338e-07
1.21345e-07
1.21358e-07
1.21363e-07
1.21372e-07
1.21374e-07
1.21384e-07
1.21386e-07
1.21391e-07
1.21392e-07
1.21389e-07
1.21398e-07
1.21405e-07
1.21413e-07
1.21417e-07
1.21421e-07
1.21427e-07
1.21437e-07
1.21452e-07
1.21466e-07
1.21488e-07
1.215e-07
1.21523e-07
1.21535e-07
1.21557e-07
1.2157e-07
1.2159e-07
1.21599e-07
1.21616e-07
1.21627e-07
1.21642e-07
1.21655e-07
1.21668e-07
1.21682e-07
1.21697e-07
1.21712e-07
1.21722e-07
1.21755e-07
1.22926e-07
1.26264e-07
1.30939e-08
1.23956e-07
1.22996e-07
1.22207e-07
1.21606e-07
1.21189e-07
1.20897e-07
1.20711e-07
1.20582e-07
1.20512e-07
1.20464e-07
1.20451e-07
1.20442e-07
1.20457e-07
1.20468e-07
1.20498e-07
1.20519e-07
1.20554e-07
1.2058e-07
1.20618e-07
1.20644e-07
1.20682e-07
1.20708e-07
1.20745e-07
1.2077e-07
1.20804e-07
1.20828e-07
1.2086e-07
1.20883e-07
1.20912e-07
1.20933e-07
1.20961e-07
1.20979e-07
1.21005e-07
1.21023e-07
1.21048e-07
1.21063e-07
1.21084e-07
1.21099e-07
1.2112e-07
1.21134e-07
1.21152e-07
1.21166e-07
1.21185e-07
1.21195e-07
1.21212e-07
1.21224e-07
1.21239e-07
1.2125e-07
1.21263e-07
1.21272e-07
1.21284e-07
1.21294e-07
1.21305e-07
1.21315e-07
1.21325e-07
1.21336e-07
1.21343e-07
1.21356e-07
1.21361e-07
1.2137e-07
1.21372e-07
1.21382e-07
1.21384e-07
1.21389e-07
1.2139e-07
1.21387e-07
1.21396e-07
1.21403e-07
1.21411e-07
1.21415e-07
1.21419e-07
1.21425e-07
1.21435e-07
1.2145e-07
1.21464e-07
1.21486e-07
1.21498e-07
1.21521e-07
1.21533e-07
1.21555e-07
1.21568e-07
1.21588e-07
1.21597e-07
1.21614e-07
1.21625e-07
1.2164e-07
1.21653e-07
1.21666e-07
1.2168e-07
1.21695e-07
1.2171e-07
1.2172e-07
1.21753e-07
1.22929e-07
1.26264e-07
1.35762e-08
1.23956e-07
1.22996e-07
1.22207e-07
1.21606e-07
1.21188e-07
1.20896e-07
1.2071e-07
1.20581e-07
1.20511e-07
1.20462e-07
1.20449e-07
1.2044e-07
1.20455e-07
1.20466e-07
1.20496e-07
1.20516e-07
1.20552e-07
1.20577e-07
1.20615e-07
1.20641e-07
1.20679e-07
1.20705e-07
1.20742e-07
1.20767e-07
1.20802e-07
1.20826e-07
1.20858e-07
1.2088e-07
1.2091e-07
1.2093e-07
1.20958e-07
1.20977e-07
1.21003e-07
1.21021e-07
1.21045e-07
1.21061e-07
1.21082e-07
1.21097e-07
1.21117e-07
1.21131e-07
1.21149e-07
1.21163e-07
1.21182e-07
1.21192e-07
1.21209e-07
1.21221e-07
1.21237e-07
1.21248e-07
1.2126e-07
1.2127e-07
1.21282e-07
1.21291e-07
1.21302e-07
1.21312e-07
1.21323e-07
1.21333e-07
1.2134e-07
1.21354e-07
1.21358e-07
1.21368e-07
1.21369e-07
1.21379e-07
1.21382e-07
1.21387e-07
1.21387e-07
1.21385e-07
1.21394e-07
1.21401e-07
1.21408e-07
1.21412e-07
1.21416e-07
1.21422e-07
1.21432e-07
1.21447e-07
1.21461e-07
1.21484e-07
1.21496e-07
1.21518e-07
1.2153e-07
1.21552e-07
1.21566e-07
1.21585e-07
1.21595e-07
1.21611e-07
1.21622e-07
1.21637e-07
1.2165e-07
1.21663e-07
1.21677e-07
1.21693e-07
1.21708e-07
1.21717e-07
1.2175e-07
1.22933e-07
1.26264e-07
1.41116e-08
1.23956e-07
1.22996e-07
1.22207e-07
1.21606e-07
1.21188e-07
1.20894e-07
1.20708e-07
1.20579e-07
1.20508e-07
1.20459e-07
1.20446e-07
1.20437e-07
1.20452e-07
1.20463e-07
1.20492e-07
1.20513e-07
1.20549e-07
1.20574e-07
1.20612e-07
1.20638e-07
1.20676e-07
1.20702e-07
1.20739e-07
1.20764e-07
1.20798e-07
1.20822e-07
1.20854e-07
1.20877e-07
1.20906e-07
1.20927e-07
1.20955e-07
1.20973e-07
1.20999e-07
1.21017e-07
1.21041e-07
1.21057e-07
1.21078e-07
1.21093e-07
1.21114e-07
1.21128e-07
1.21146e-07
1.2116e-07
1.21178e-07
1.21189e-07
1.21206e-07
1.21218e-07
1.21233e-07
1.21244e-07
1.21257e-07
1.21266e-07
1.21278e-07
1.21288e-07
1.21299e-07
1.21309e-07
1.21319e-07
1.2133e-07
1.21337e-07
1.2135e-07
1.21355e-07
1.21364e-07
1.21366e-07
1.21376e-07
1.21378e-07
1.21383e-07
1.21384e-07
1.21381e-07
1.2139e-07
1.21397e-07
1.21405e-07
1.21409e-07
1.21413e-07
1.21419e-07
1.21429e-07
1.21444e-07
1.21458e-07
1.2148e-07
1.21492e-07
1.21514e-07
1.21527e-07
1.21548e-07
1.21562e-07
1.21582e-07
1.21591e-07
1.21608e-07
1.21619e-07
1.21634e-07
1.21647e-07
1.2166e-07
1.21674e-07
1.21689e-07
1.21704e-07
1.21714e-07
1.21747e-07
1.2294e-07
1.26264e-07
1.46923e-08
1.23956e-07
1.22996e-07
1.22207e-07
1.21605e-07
1.21186e-07
1.20893e-07
1.20706e-07
1.20576e-07
1.20506e-07
1.20456e-07
1.20443e-07
1.20433e-07
1.20448e-07
1.20459e-07
1.20489e-07
1.20509e-07
1.20545e-07
1.2057e-07
1.20608e-07
1.20634e-07
1.20672e-07
1.20698e-07
1.20734e-07
1.2076e-07
1.20794e-07
1.20818e-07
1.2085e-07
1.20872e-07
1.20902e-07
1.20922e-07
1.20951e-07
1.20969e-07
1.20995e-07
1.21013e-07
1.21037e-07
1.21053e-07
1.21074e-07
1.21089e-07
1.2111e-07
1.21124e-07
1.21141e-07
1.21156e-07
1.21174e-07
1.21185e-07
1.21202e-07
1.21214e-07
1.21229e-07
1.2124e-07
1.21253e-07
1.21262e-07
1.21274e-07
1.21283e-07
1.21295e-07
1.21305e-07
1.21315e-07
1.21326e-07
1.21333e-07
1.21346e-07
1.21351e-07
1.2136e-07
1.21362e-07
1.21372e-07
1.21374e-07
1.21379e-07
1.2138e-07
1.21377e-07
1.21386e-07
1.21393e-07
1.21401e-07
1.21405e-07
1.21409e-07
1.21415e-07
1.21424e-07
1.21439e-07
1.21453e-07
1.21476e-07
1.21488e-07
1.2151e-07
1.21522e-07
1.21544e-07
1.21558e-07
1.21577e-07
1.21587e-07
1.21604e-07
1.21614e-07
1.21629e-07
1.21642e-07
1.21656e-07
1.2167e-07
1.21685e-07
1.217e-07
1.21709e-07
1.21743e-07
1.22949e-07
1.26265e-07
1.53169e-08
1.23956e-07
1.22997e-07
1.22207e-07
1.21604e-07
1.21185e-07
1.20891e-07
1.20704e-07
1.20573e-07
1.20502e-07
1.20453e-07
1.20439e-07
1.20429e-07
1.20444e-07
1.20455e-07
1.20484e-07
1.20504e-07
1.2054e-07
1.20565e-07
1.20603e-07
1.20629e-07
1.20667e-07
1.20693e-07
1.20729e-07
1.20754e-07
1.20789e-07
1.20813e-07
1.20845e-07
1.20867e-07
1.20897e-07
1.20917e-07
1.20946e-07
1.20964e-07
1.2099e-07
1.21008e-07
1.21032e-07
1.21048e-07
1.21069e-07
1.21084e-07
1.21105e-07
1.21119e-07
1.21136e-07
1.21151e-07
1.21169e-07
1.2118e-07
1.21197e-07
1.21209e-07
1.21224e-07
1.21235e-07
1.21248e-07
1.21257e-07
1.21269e-07
1.21278e-07
1.2129e-07
1.213e-07
1.2131e-07
1.21321e-07
1.21328e-07
1.21341e-07
1.21346e-07
1.21355e-07
1.21357e-07
1.21367e-07
1.21369e-07
1.21374e-07
1.21375e-07
1.21373e-07
1.21382e-07
1.21388e-07
1.21396e-07
1.214e-07
1.21404e-07
1.2141e-07
1.21419e-07
1.21434e-07
1.21448e-07
1.21471e-07
1.21483e-07
1.21505e-07
1.21517e-07
1.21539e-07
1.21552e-07
1.21572e-07
1.21582e-07
1.21599e-07
1.21609e-07
1.21624e-07
1.21637e-07
1.21651e-07
1.21665e-07
1.2168e-07
1.21695e-07
1.21704e-07
1.21738e-07
1.2296e-07
1.26266e-07
1.59857e-08
1.23956e-07
1.22997e-07
1.22207e-07
1.21604e-07
1.21184e-07
1.20889e-07
1.20701e-07
1.2057e-07
1.20498e-07
1.20448e-07
1.20434e-07
1.20424e-07
1.20439e-07
1.20449e-07
1.20479e-07
1.20499e-07
1.20534e-07
1.20559e-07
1.20597e-07
1.20623e-07
1.20661e-07
1.20687e-07
1.20723e-07
1.20749e-07
1.20783e-07
1.20807e-07
1.20839e-07
1.20861e-07
1.20891e-07
1.20911e-07
1.2094e-07
1.20958e-07
1.20984e-07
1.21002e-07
1.21026e-07
1.21042e-07
1.21063e-07
1.21078e-07
1.21099e-07
1.21113e-07
1.2113e-07
1.21145e-07
1.21163e-07
1.21174e-07
1.21191e-07
1.21203e-07
1.21218e-07
1.21229e-07
1.21242e-07
1.21251e-07
1.21263e-07
1.21273e-07
1.21284e-07
1.21294e-07
1.21305e-07
1.21315e-07
1.21322e-07
1.21335e-07
1.2134e-07
1.2135e-07
1.21351e-07
1.21361e-07
1.21364e-07
1.21369e-07
1.2137e-07
1.21367e-07
1.21376e-07
1.21383e-07
1.2139e-07
1.21394e-07
1.21399e-07
1.21405e-07
1.21414e-07
1.21428e-07
1.21442e-07
1.21465e-07
1.21477e-07
1.21499e-07
1.21511e-07
1.21533e-07
1.21546e-07
1.21566e-07
1.21576e-07
1.21593e-07
1.21603e-07
1.21619e-07
1.21631e-07
1.21645e-07
1.21659e-07
1.21674e-07
1.21689e-07
1.21698e-07
1.21732e-07
1.22973e-07
1.26268e-07
1.66994e-08
1.23956e-07
1.22997e-07
1.22206e-07
1.21603e-07
1.21182e-07
1.20886e-07
1.20697e-07
1.20566e-07
1.20494e-07
1.20443e-07
1.20429e-07
1.20419e-07
1.20433e-07
1.20443e-07
1.20472e-07
1.20493e-07
1.20528e-07
1.20553e-07
1.2059e-07
1.20617e-07
1.20654e-07
1.2068e-07
1.20717e-07
1.20742e-07
1.20776e-07
1.208e-07
1.20832e-07
1.20855e-07
1.20884e-07
1.20905e-07
1.20933e-07
1.20951e-07
1.20977e-07
1.20995e-07
1.21019e-07
1.21035e-07
1.21056e-07
1.21071e-07
1.21092e-07
1.21106e-07
1.21124e-07
1.21138e-07
1.21157e-07
1.21167e-07
1.21184e-07
1.21196e-07
1.21212e-07
1.21223e-07
1.21235e-07
1.21245e-07
1.21257e-07
1.21266e-07
1.21277e-07
1.21288e-07
1.21298e-07
1.21309e-07
1.21315e-07
1.21329e-07
1.21334e-07
1.21343e-07
1.21345e-07
1.21355e-07
1.21357e-07
1.21362e-07
1.21363e-07
1.21361e-07
1.2137e-07
1.21376e-07
1.21384e-07
1.21388e-07
1.21392e-07
1.21398e-07
1.21407e-07
1.21422e-07
1.21436e-07
1.21458e-07
1.2147e-07
1.21492e-07
1.21504e-07
1.21526e-07
1.2154e-07
1.21559e-07
1.21569e-07
1.21586e-07
1.21597e-07
1.21612e-07
1.21625e-07
1.21638e-07
1.21652e-07
1.21668e-07
1.21682e-07
1.21692e-07
1.21726e-07
1.2299e-07
1.26269e-07
1.74587e-08
1.23957e-07
1.22997e-07
1.22206e-07
1.21602e-07
1.2118e-07
1.20883e-07
1.20694e-07
1.20561e-07
1.20489e-07
1.20438e-07
1.20423e-07
1.20412e-07
1.20427e-07
1.20437e-07
1.20465e-07
1.20485e-07
1.20521e-07
1.20545e-07
1.20583e-07
1.20609e-07
1.20647e-07
1.20673e-07
1.20709e-07
1.20734e-07
1.20769e-07
1.20792e-07
1.20825e-07
1.20847e-07
1.20877e-07
1.20897e-07
1.20925e-07
1.20944e-07
1.20969e-07
1.20987e-07
1.21012e-07
1.21027e-07
1.21049e-07
1.21064e-07
1.21085e-07
1.21099e-07
1.21116e-07
1.21131e-07
1.21149e-07
1.2116e-07
1.21177e-07
1.21189e-07
1.21204e-07
1.21215e-07
1.21228e-07
1.21237e-07
1.21249e-07
1.21259e-07
1.2127e-07
1.2128e-07
1.21291e-07
1.21301e-07
1.21308e-07
1.21321e-07
1.21326e-07
1.21336e-07
1.21338e-07
1.21347e-07
1.2135e-07
1.21355e-07
1.21356e-07
1.21354e-07
1.21362e-07
1.21369e-07
1.21377e-07
1.21381e-07
1.21385e-07
1.21391e-07
1.214e-07
1.21414e-07
1.21428e-07
1.2145e-07
1.21462e-07
1.21484e-07
1.21497e-07
1.21518e-07
1.21532e-07
1.21552e-07
1.21561e-07
1.21579e-07
1.21589e-07
1.21604e-07
1.21617e-07
1.21631e-07
1.21644e-07
1.2166e-07
1.21675e-07
1.21684e-07
1.21719e-07
1.2301e-07
1.26271e-07
1.82636e-08
1.23957e-07
1.22997e-07
1.22206e-07
1.216e-07
1.21178e-07
1.2088e-07
1.20689e-07
1.20556e-07
1.20483e-07
1.20431e-07
1.20416e-07
1.20405e-07
1.20419e-07
1.20429e-07
1.20458e-07
1.20477e-07
1.20513e-07
1.20537e-07
1.20575e-07
1.20601e-07
1.20638e-07
1.20664e-07
1.20701e-07
1.20726e-07
1.2076e-07
1.20784e-07
1.20816e-07
1.20838e-07
1.20868e-07
1.20888e-07
1.20917e-07
1.20935e-07
1.20961e-07
1.20979e-07
1.21003e-07
1.21019e-07
1.2104e-07
1.21055e-07
1.21076e-07
1.2109e-07
1.21108e-07
1.21122e-07
1.21141e-07
1.21151e-07
1.21168e-07
1.2118e-07
1.21196e-07
1.21207e-07
1.2122e-07
1.21229e-07
1.21241e-07
1.21251e-07
1.21262e-07
1.21272e-07
1.21282e-07
1.21293e-07
1.213e-07
1.21313e-07
1.21318e-07
1.21328e-07
1.2133e-07
1.21339e-07
1.21342e-07
1.21347e-07
1.21348e-07
1.21346e-07
1.21354e-07
1.21361e-07
1.21369e-07
1.21373e-07
1.21377e-07
1.21383e-07
1.21392e-07
1.21406e-07
1.2142e-07
1.21442e-07
1.21454e-07
1.21476e-07
1.21488e-07
1.2151e-07
1.21523e-07
1.21543e-07
1.21553e-07
1.2157e-07
1.21581e-07
1.21596e-07
1.21609e-07
1.21622e-07
1.21636e-07
1.21652e-07
1.21666e-07
1.21676e-07
1.21711e-07
1.23032e-07
1.26274e-07
1.9113e-08
1.23957e-07
1.22997e-07
1.22206e-07
1.21599e-07
1.21175e-07
1.20876e-07
1.20685e-07
1.20551e-07
1.20477e-07
1.20424e-07
1.20409e-07
1.20397e-07
1.20411e-07
1.20421e-07
1.20449e-07
1.20469e-07
1.20504e-07
1.20528e-07
1.20566e-07
1.20591e-07
1.20629e-07
1.20655e-07
1.20691e-07
1.20716e-07
1.20751e-07
1.20775e-07
1.20807e-07
1.20829e-07
1.20859e-07
1.20879e-07
1.20907e-07
1.20926e-07
1.20952e-07
1.20969e-07
1.20994e-07
1.2101e-07
1.21031e-07
1.21046e-07
1.21067e-07
1.21081e-07
1.21099e-07
1.21113e-07
1.21132e-07
1.21142e-07
1.21159e-07
1.21171e-07
1.21187e-07
1.21198e-07
1.2121e-07
1.2122e-07
1.21232e-07
1.21242e-07
1.21253e-07
1.21263e-07
1.21273e-07
1.21284e-07
1.21291e-07
1.21304e-07
1.21309e-07
1.21319e-07
1.21321e-07
1.2133e-07
1.21333e-07
1.21338e-07
1.2134e-07
1.21337e-07
1.21346e-07
1.21352e-07
1.2136e-07
1.21364e-07
1.21369e-07
1.21374e-07
1.21383e-07
1.21397e-07
1.21411e-07
1.21432e-07
1.21444e-07
1.21466e-07
1.21478e-07
1.215e-07
1.21514e-07
1.21534e-07
1.21543e-07
1.21561e-07
1.21571e-07
1.21587e-07
1.21599e-07
1.21613e-07
1.21627e-07
1.21643e-07
1.21657e-07
1.21666e-07
1.21703e-07
1.23059e-07
1.26276e-07
2.00061e-08
1.23957e-07
1.22997e-07
1.22205e-07
1.21598e-07
1.21173e-07
1.20872e-07
1.2068e-07
1.20545e-07
1.2047e-07
1.20417e-07
1.204e-07
1.20389e-07
1.20402e-07
1.20411e-07
1.20439e-07
1.20459e-07
1.20494e-07
1.20518e-07
1.20555e-07
1.20581e-07
1.20619e-07
1.20645e-07
1.20681e-07
1.20706e-07
1.2074e-07
1.20764e-07
1.20796e-07
1.20818e-07
1.20848e-07
1.20869e-07
1.20897e-07
1.20915e-07
1.20941e-07
1.20959e-07
1.20984e-07
1.20999e-07
1.21021e-07
1.21036e-07
1.21057e-07
1.21071e-07
1.21089e-07
1.21103e-07
1.21121e-07
1.21132e-07
1.21149e-07
1.21161e-07
1.21177e-07
1.21188e-07
1.212e-07
1.2121e-07
1.21222e-07
1.21232e-07
1.21243e-07
1.21253e-07
1.21263e-07
1.21274e-07
1.21281e-07
1.21294e-07
1.213e-07
1.21309e-07
1.21311e-07
1.21321e-07
1.21324e-07
1.21329e-07
1.2133e-07
1.21328e-07
1.21336e-07
1.21343e-07
1.21351e-07
1.21355e-07
1.21359e-07
1.21365e-07
1.21373e-07
1.21386e-07
1.214e-07
1.21422e-07
1.21434e-07
1.21456e-07
1.21468e-07
1.2149e-07
1.21503e-07
1.21523e-07
1.21533e-07
1.21551e-07
1.21561e-07
1.21577e-07
1.21589e-07
1.21603e-07
1.21617e-07
1.21633e-07
1.21647e-07
1.21656e-07
1.21693e-07
1.23088e-07
1.26278e-07
2.09455e-08
1.23957e-07
1.22998e-07
1.22205e-07
1.21596e-07
1.2117e-07
1.20868e-07
1.20674e-07
1.20538e-07
1.20462e-07
1.20409e-07
1.20392e-07
1.20379e-07
1.20392e-07
1.20401e-07
1.20429e-07
1.20448e-07
1.20483e-07
1.20507e-07
1.20544e-07
1.2057e-07
1.20608e-07
1.20633e-07
1.2067e-07
1.20695e-07
1.20729e-07
1.20753e-07
1.20785e-07
1.20807e-07
1.20837e-07
1.20857e-07
1.20886e-07
1.20904e-07
1.2093e-07
1.20948e-07
1.20972e-07
1.20988e-07
1.2101e-07
1.21025e-07
1.21046e-07
1.2106e-07
1.21077e-07
1.21092e-07
1.2111e-07
1.21121e-07
1.21138e-07
1.2115e-07
1.21166e-07
1.21177e-07
1.21189e-07
1.21199e-07
1.21211e-07
1.21221e-07
1.21232e-07
1.21242e-07
1.21253e-07
1.21263e-07
1.2127e-07
1.21284e-07
1.21289e-07
1.21298e-07
1.213e-07
1.2131e-07
1.21313e-07
1.21318e-07
1.2132e-07
1.21317e-07
1.21326e-07
1.21332e-07
1.2134e-07
1.21344e-07
1.21349e-07
1.21354e-07
1.21362e-07
1.21376e-07
1.21389e-07
1.21411e-07
1.21423e-07
1.21445e-07
1.21457e-07
1.21478e-07
1.21492e-07
1.21512e-07
1.21522e-07
1.2154e-07
1.2155e-07
1.21566e-07
1.21578e-07
1.21592e-07
1.21606e-07
1.21622e-07
1.21636e-07
1.21645e-07
1.21683e-07
1.23121e-07
1.26279e-07
2.19341e-08
1.23957e-07
1.22998e-07
1.22205e-07
1.21595e-07
1.21166e-07
1.20863e-07
1.20668e-07
1.20531e-07
1.20454e-07
1.204e-07
1.20382e-07
1.20369e-07
1.20382e-07
1.2039e-07
1.20418e-07
1.20437e-07
1.20471e-07
1.20495e-07
1.20533e-07
1.20558e-07
1.20595e-07
1.20621e-07
1.20657e-07
1.20682e-07
1.20717e-07
1.20741e-07
1.20773e-07
1.20795e-07
1.20825e-07
1.20845e-07
1.20873e-07
1.20892e-07
1.20918e-07
1.20936e-07
1.2096e-07
1.20976e-07
1.20998e-07
1.21012e-07
1.21033e-07
1.21048e-07
1.21065e-07
1.2108e-07
1.21098e-07
1.21109e-07
1.21126e-07
1.21138e-07
1.21154e-07
1.21165e-07
1.21178e-07
1.21187e-07
1.21199e-07
1.21209e-07
1.2122e-07
1.21231e-07
1.21241e-07
1.21252e-07
1.21259e-07
1.21272e-07
1.21277e-07
1.21287e-07
1.21289e-07
1.21299e-07
1.21302e-07
1.21307e-07
1.21308e-07
1.21306e-07
1.21314e-07
1.21321e-07
1.21329e-07
1.21333e-07
1.21338e-07
1.21343e-07
1.21351e-07
1.21364e-07
1.21378e-07
1.21398e-07
1.21411e-07
1.21432e-07
1.21444e-07
1.21466e-07
1.21479e-07
1.215e-07
1.2151e-07
1.21528e-07
1.21538e-07
1.21554e-07
1.21566e-07
1.2158e-07
1.21594e-07
1.2161e-07
1.21624e-07
1.21633e-07
1.21672e-07
1.23159e-07
1.2628e-07
2.29749e-08
1.23957e-07
1.22998e-07
1.22204e-07
1.21593e-07
1.21163e-07
1.20858e-07
1.20662e-07
1.20523e-07
1.20445e-07
1.2039e-07
1.20372e-07
1.20358e-07
1.2037e-07
1.20378e-07
1.20406e-07
1.20424e-07
1.20459e-07
1.20483e-07
1.2052e-07
1.20545e-07
1.20582e-07
1.20608e-07
1.20644e-07
1.20669e-07
1.20704e-07
1.20727e-07
1.20759e-07
1.20782e-07
1.20811e-07
1.20832e-07
1.2086e-07
1.20879e-07
1.20905e-07
1.20923e-07
1.20947e-07
1.20963e-07
1.20984e-07
1.20999e-07
1.2102e-07
1.21035e-07
1.21052e-07
1.21067e-07
1.21085e-07
1.21096e-07
1.21113e-07
1.21125e-07
1.21141e-07
1.21152e-07
1.21165e-07
1.21175e-07
1.21187e-07
1.21196e-07
1.21207e-07
1.21218e-07
1.21228e-07
1.21239e-07
1.21246e-07
1.21259e-07
1.21265e-07
1.21274e-07
1.21276e-07
1.21286e-07
1.21289e-07
1.21294e-07
1.21296e-07
1.21294e-07
1.21302e-07
1.21309e-07
1.21316e-07
1.21321e-07
1.21325e-07
1.21331e-07
1.21338e-07
1.21351e-07
1.21365e-07
1.21385e-07
1.21398e-07
1.21419e-07
1.21431e-07
1.21453e-07
1.21466e-07
1.21486e-07
1.21497e-07
1.21515e-07
1.21525e-07
1.21541e-07
1.21553e-07
1.21568e-07
1.21581e-07
1.21597e-07
1.21611e-07
1.2162e-07
1.2166e-07
1.232e-07
1.2628e-07
2.40712e-08
1.23957e-07
1.22998e-07
1.22204e-07
1.21591e-07
1.2116e-07
1.20853e-07
1.20655e-07
1.20515e-07
1.20436e-07
1.20379e-07
1.2036e-07
1.20346e-07
1.20358e-07
1.20366e-07
1.20393e-07
1.20411e-07
1.20445e-07
1.20469e-07
1.20506e-07
1.20531e-07
1.20568e-07
1.20594e-07
1.2063e-07
1.20655e-07
1.20689e-07
1.20713e-07
1.20745e-07
1.20767e-07
1.20797e-07
1.20818e-07
1.20846e-07
1.20864e-07
1.2089e-07
1.20908e-07
1.20933e-07
1.20949e-07
1.2097e-07
1.20985e-07
1.21006e-07
1.2102e-07
1.21038e-07
1.21053e-07
1.21071e-07
1.21082e-07
1.21099e-07
1.21111e-07
1.21127e-07
1.21138e-07
1.21151e-07
1.21161e-07
1.21173e-07
1.21183e-07
1.21194e-07
1.21204e-07
1.21215e-07
1.21226e-07
1.21232e-07
1.21246e-07
1.21251e-07
1.21261e-07
1.21263e-07
1.21273e-07
1.21276e-07
1.21281e-07
1.21283e-07
1.21281e-07
1.21289e-07
1.21295e-07
1.21303e-07
1.21307e-07
1.21312e-07
1.21318e-07
1.21325e-07
1.21337e-07
1.21351e-07
1.21371e-07
1.21384e-07
1.21405e-07
1.21417e-07
1.21438e-07
1.21451e-07
1.21472e-07
1.21483e-07
1.21501e-07
1.21511e-07
1.21527e-07
1.21539e-07
1.21554e-07
1.21567e-07
1.21584e-07
1.21597e-07
1.21606e-07
1.21647e-07
1.23245e-07
1.26278e-07
2.52264e-08
1.23957e-07
1.22999e-07
1.22203e-07
1.21589e-07
1.21156e-07
1.20847e-07
1.20647e-07
1.20506e-07
1.20426e-07
1.20368e-07
1.20348e-07
1.20334e-07
1.20345e-07
1.20352e-07
1.20379e-07
1.20397e-07
1.20431e-07
1.20454e-07
1.20491e-07
1.20516e-07
1.20553e-07
1.20578e-07
1.20615e-07
1.20639e-07
1.20674e-07
1.20698e-07
1.2073e-07
1.20752e-07
1.20782e-07
1.20802e-07
1.20831e-07
1.20849e-07
1.20875e-07
1.20893e-07
1.20918e-07
1.20934e-07
1.20955e-07
1.2097e-07
1.20991e-07
1.21005e-07
1.21023e-07
1.21038e-07
1.21057e-07
1.21067e-07
1.21084e-07
1.21096e-07
1.21112e-07
1.21123e-07
1.21136e-07
1.21146e-07
1.21158e-07
1.21168e-07
1.21179e-07
1.2119e-07
1.212e-07
1.21211e-07
1.21218e-07
1.21231e-07
1.21237e-07
1.21246e-07
1.21249e-07
1.21258e-07
1.21262e-07
1.21267e-07
1.21269e-07
1.21267e-07
1.21275e-07
1.21281e-07
1.21289e-07
1.21293e-07
1.21298e-07
1.21304e-07
1.2131e-07
1.21322e-07
1.21336e-07
1.21356e-07
1.21369e-07
1.2139e-07
1.21402e-07
1.21423e-07
1.21436e-07
1.21457e-07
1.21467e-07
1.21486e-07
1.21496e-07
1.21512e-07
1.21524e-07
1.21539e-07
1.21552e-07
1.21569e-07
1.21582e-07
1.21591e-07
1.21633e-07
1.23294e-07
1.26274e-07
2.64442e-08
1.23957e-07
1.22999e-07
1.22203e-07
1.21587e-07
1.21152e-07
1.20841e-07
1.20639e-07
1.20496e-07
1.20415e-07
1.20356e-07
1.20336e-07
1.2032e-07
1.20331e-07
1.20337e-07
1.20364e-07
1.20381e-07
1.20415e-07
1.20438e-07
1.20475e-07
1.205e-07
1.20537e-07
1.20562e-07
1.20599e-07
1.20623e-07
1.20658e-07
1.20681e-07
1.20713e-07
1.20736e-07
1.20766e-07
1.20786e-07
1.20814e-07
1.20833e-07
1.20859e-07
1.20877e-07
1.20902e-07
1.20917e-07
1.20939e-07
1.20954e-07
1.20975e-07
1.20989e-07
1.21007e-07
1.21022e-07
1.21041e-07
1.21051e-07
1.21068e-07
1.21081e-07
1.21096e-07
1.21108e-07
1.21121e-07
1.21131e-07
1.21143e-07
1.21152e-07
1.21163e-07
1.21174e-07
1.21184e-07
1.21195e-07
1.21202e-07
1.21216e-07
1.21221e-07
1.21231e-07
1.21233e-07
1.21243e-07
1.21246e-07
1.21252e-07
1.21254e-07
1.21252e-07
1.21259e-07
1.21266e-07
1.21274e-07
1.21278e-07
1.21283e-07
1.21288e-07
1.21295e-07
1.21307e-07
1.2132e-07
1.2134e-07
1.21352e-07
1.21373e-07
1.21385e-07
1.21407e-07
1.21419e-07
1.2144e-07
1.21451e-07
1.21469e-07
1.21479e-07
1.21497e-07
1.21508e-07
1.21523e-07
1.21536e-07
1.21553e-07
1.21566e-07
1.21575e-07
1.21619e-07
1.23347e-07
1.22361e-07
2.77281e-08
1.23958e-07
1.22999e-07
1.22203e-07
1.21585e-07
1.21147e-07
1.20834e-07
1.20631e-07
1.20486e-07
1.20404e-07
1.20344e-07
1.20322e-07
1.20306e-07
1.20316e-07
1.20322e-07
1.20348e-07
1.20365e-07
1.20399e-07
1.20421e-07
1.20458e-07
1.20483e-07
1.2052e-07
1.20545e-07
1.20581e-07
1.20606e-07
1.2064e-07
1.20664e-07
1.20696e-07
1.20718e-07
1.20748e-07
1.20768e-07
1.20797e-07
1.20815e-07
1.20842e-07
1.20859e-07
1.20884e-07
1.209e-07
1.20922e-07
1.20937e-07
1.20958e-07
1.20972e-07
1.2099e-07
1.21005e-07
1.21024e-07
1.21034e-07
1.21051e-07
1.21064e-07
1.21079e-07
1.21091e-07
1.21104e-07
1.21114e-07
1.21126e-07
1.21136e-07
1.21147e-07
1.21157e-07
1.21168e-07
1.21179e-07
1.21186e-07
1.21199e-07
1.21205e-07
1.21215e-07
1.21217e-07
1.21227e-07
1.2123e-07
1.21235e-07
1.21238e-07
1.21236e-07
1.21243e-07
1.2125e-07
1.21258e-07
1.21262e-07
1.21267e-07
1.21272e-07
1.21279e-07
1.2129e-07
1.21304e-07
1.21322e-07
1.21335e-07
1.21356e-07
1.21368e-07
1.21389e-07
1.21402e-07
1.21423e-07
1.21434e-07
1.21452e-07
1.21462e-07
1.2148e-07
1.21491e-07
1.21506e-07
1.21519e-07
1.21537e-07
1.21548e-07
1.21558e-07
1.21603e-07
1.23404e-07
1.1616e-07
2.9082e-08
1.23958e-07
1.23e-07
1.22202e-07
1.21583e-07
1.21143e-07
1.20828e-07
1.20622e-07
1.20476e-07
1.20391e-07
1.2033e-07
1.20308e-07
1.20291e-07
1.203e-07
1.20305e-07
1.20331e-07
1.20348e-07
1.20381e-07
1.20404e-07
1.2044e-07
1.20464e-07
1.20501e-07
1.20526e-07
1.20563e-07
1.20587e-07
1.20622e-07
1.20645e-07
1.20677e-07
1.20699e-07
1.2073e-07
1.2075e-07
1.20778e-07
1.20797e-07
1.20823e-07
1.20841e-07
1.20866e-07
1.20882e-07
1.20904e-07
1.20919e-07
1.2094e-07
1.20954e-07
1.20972e-07
1.20986e-07
1.21005e-07
1.21016e-07
1.21033e-07
1.21046e-07
1.21061e-07
1.21073e-07
1.21086e-07
1.21096e-07
1.21108e-07
1.21118e-07
1.21129e-07
1.2114e-07
1.2115e-07
1.21161e-07
1.21168e-07
1.21181e-07
1.21187e-07
1.21197e-07
1.212e-07
1.21209e-07
1.21213e-07
1.21218e-07
1.21221e-07
1.21219e-07
1.21226e-07
1.21233e-07
1.2124e-07
1.21245e-07
1.2125e-07
1.21255e-07
1.21262e-07
1.21273e-07
1.21286e-07
1.21304e-07
1.21317e-07
1.21338e-07
1.2135e-07
1.21371e-07
1.21383e-07
1.21404e-07
1.21415e-07
1.21434e-07
1.21444e-07
1.21462e-07
1.21473e-07
1.21488e-07
1.21501e-07
1.21519e-07
1.2153e-07
1.2154e-07
1.21586e-07
1.23466e-07
1.10612e-07
3.05096e-08
1.23958e-07
1.23e-07
1.22202e-07
1.2158e-07
1.21138e-07
1.20821e-07
1.20613e-07
1.20464e-07
1.20379e-07
1.20316e-07
1.20293e-07
1.20274e-07
1.20283e-07
1.20288e-07
1.20313e-07
1.20329e-07
1.20362e-07
1.20385e-07
1.20421e-07
1.20445e-07
1.20482e-07
1.20507e-07
1.20543e-07
1.20567e-07
1.20602e-07
1.20625e-07
1.20658e-07
1.2068e-07
1.2071e-07
1.2073e-07
1.20759e-07
1.20777e-07
1.20804e-07
1.20821e-07
1.20846e-07
1.20862e-07
1.20884e-07
1.20899e-07
1.2092e-07
1.20935e-07
1.20953e-07
1.20967e-07
1.20986e-07
1.20997e-07
1.21014e-07
1.21026e-07
1.21042e-07
1.21054e-07
1.21067e-07
1.21077e-07
1.21089e-07
1.21099e-07
1.2111e-07
1.21121e-07
1.21131e-07
1.21142e-07
1.21149e-07
1.21163e-07
1.21169e-07
1.21179e-07
1.21181e-07
1.21191e-07
1.21194e-07
1.212e-07
1.21203e-07
1.212e-07
1.21208e-07
1.21214e-07
1.21222e-07
1.21227e-07
1.21232e-07
1.21237e-07
1.21243e-07
1.21254e-07
1.21267e-07
1.21284e-07
1.21298e-07
1.21318e-07
1.2133e-07
1.21351e-07
1.21363e-07
1.21385e-07
1.21396e-07
1.21414e-07
1.21425e-07
1.21442e-07
1.21453e-07
1.21469e-07
1.21481e-07
1.215e-07
1.21511e-07
1.21521e-07
1.21569e-07
1.23531e-07
1.05649e-07
3.20145e-08
1.23958e-07
1.23e-07
1.22201e-07
1.21578e-07
1.21133e-07
1.20813e-07
1.20603e-07
1.20453e-07
1.20365e-07
1.20301e-07
1.20277e-07
1.20257e-07
1.20265e-07
1.20269e-07
1.20294e-07
1.2031e-07
1.20343e-07
1.20365e-07
1.20401e-07
1.20425e-07
1.20462e-07
1.20486e-07
1.20522e-07
1.20547e-07
1.20581e-07
1.20604e-07
1.20637e-07
1.20659e-07
1.20689e-07
1.20709e-07
1.20738e-07
1.20756e-07
1.20783e-07
1.20801e-07
1.20826e-07
1.20842e-07
1.20864e-07
1.20879e-07
1.209e-07
1.20914e-07
1.20932e-07
1.20947e-07
1.20966e-07
1.20977e-07
1.20994e-07
1.21006e-07
1.21022e-07
1.21034e-07
1.21047e-07
1.21057e-07
1.21069e-07
1.21079e-07
1.2109e-07
1.21101e-07
1.21111e-07
1.21123e-07
1.2113e-07
1.21143e-07
1.21149e-07
1.21159e-07
1.21162e-07
1.21171e-07
1.21175e-07
1.2118e-07
1.21183e-07
1.21181e-07
1.21189e-07
1.21195e-07
1.21203e-07
1.21208e-07
1.21213e-07
1.21218e-07
1.21224e-07
1.21234e-07
1.21247e-07
1.21264e-07
1.21278e-07
1.21297e-07
1.21309e-07
1.2133e-07
1.21343e-07
1.21364e-07
1.21375e-07
1.21394e-07
1.21404e-07
1.21422e-07
1.21433e-07
1.21449e-07
1.21461e-07
1.2148e-07
1.21491e-07
1.21501e-07
1.2155e-07
1.23599e-07
1.01208e-07
3.36e-08
1.23958e-07
1.23001e-07
1.22201e-07
1.21575e-07
1.21128e-07
1.20805e-07
1.20593e-07
1.2044e-07
1.20351e-07
1.20286e-07
1.2026e-07
1.20239e-07
1.20247e-07
1.2025e-07
1.20274e-07
1.20289e-07
1.20322e-07
1.20343e-07
1.20379e-07
1.20403e-07
1.2044e-07
1.20464e-07
1.20501e-07
1.20525e-07
1.20559e-07
1.20582e-07
1.20615e-07
1.20637e-07
1.20667e-07
1.20687e-07
1.20716e-07
1.20734e-07
1.20761e-07
1.20779e-07
1.20804e-07
1.2082e-07
1.20842e-07
1.20857e-07
1.20878e-07
1.20892e-07
1.20911e-07
1.20925e-07
1.20944e-07
1.20955e-07
1.20973e-07
1.20985e-07
1.21001e-07
1.21012e-07
1.21026e-07
1.21036e-07
1.21048e-07
1.21058e-07
1.21069e-07
1.2108e-07
1.2109e-07
1.21102e-07
1.21109e-07
1.21122e-07
1.21128e-07
1.21138e-07
1.21141e-07
1.2115e-07
1.21154e-07
1.2116e-07
1.21163e-07
1.21161e-07
1.21168e-07
1.21175e-07
1.21183e-07
1.21187e-07
1.21193e-07
1.21198e-07
1.21204e-07
1.21213e-07
1.21226e-07
1.21242e-07
1.21256e-07
1.21276e-07
1.21288e-07
1.21308e-07
1.2132e-07
1.21342e-07
1.21353e-07
1.21372e-07
1.21382e-07
1.214e-07
1.21411e-07
1.21428e-07
1.21439e-07
1.21459e-07
1.21469e-07
1.21479e-07
1.21531e-07
1.23669e-07
9.72356e-08
3.5269e-08
1.23958e-07
1.23001e-07
1.222e-07
1.21572e-07
1.21123e-07
1.20797e-07
1.20582e-07
1.20427e-07
1.20336e-07
1.20269e-07
1.20242e-07
1.20221e-07
1.20227e-07
1.20229e-07
1.20253e-07
1.20268e-07
1.203e-07
1.20321e-07
1.20357e-07
1.2038e-07
1.20417e-07
1.20441e-07
1.20478e-07
1.20501e-07
1.20536e-07
1.20559e-07
1.20592e-07
1.20613e-07
1.20644e-07
1.20664e-07
1.20693e-07
1.20711e-07
1.20738e-07
1.20755e-07
1.20781e-07
1.20797e-07
1.20819e-07
1.20834e-07
1.20855e-07
1.2087e-07
1.20888e-07
1.20902e-07
1.20922e-07
1.20933e-07
1.2095e-07
1.20962e-07
1.20978e-07
1.2099e-07
1.21003e-07
1.21013e-07
1.21026e-07
1.21036e-07
1.21047e-07
1.21058e-07
1.21068e-07
1.21079e-07
1.21086e-07
1.211e-07
1.21106e-07
1.21116e-07
1.21119e-07
1.21128e-07
1.21133e-07
1.21138e-07
1.21142e-07
1.2114e-07
1.21147e-07
1.21153e-07
1.21161e-07
1.21166e-07
1.21171e-07
1.21176e-07
1.21182e-07
1.21191e-07
1.21204e-07
1.2122e-07
1.21234e-07
1.21252e-07
1.21265e-07
1.21285e-07
1.21297e-07
1.21318e-07
1.2133e-07
1.21349e-07
1.21359e-07
1.21378e-07
1.21388e-07
1.21405e-07
1.21417e-07
1.21436e-07
1.21446e-07
1.21456e-07
1.2151e-07
1.23739e-07
9.36853e-08
3.70235e-08
1.23958e-07
1.23002e-07
1.222e-07
1.2157e-07
1.21117e-07
1.20788e-07
1.20571e-07
1.20414e-07
1.20321e-07
1.20252e-07
1.20223e-07
1.20201e-07
1.20206e-07
1.20208e-07
1.20231e-07
1.20245e-07
1.20277e-07
1.20298e-07
1.20333e-07
1.20356e-07
1.20393e-07
1.20417e-07
1.20453e-07
1.20477e-07
1.20512e-07
1.20535e-07
1.20567e-07
1.20589e-07
1.20619e-07
1.20639e-07
1.20668e-07
1.20687e-07
1.20713e-07
1.20731e-07
1.20756e-07
1.20772e-07
1.20795e-07
1.2081e-07
1.20831e-07
1.20845e-07
1.20864e-07
1.20878e-07
1.20898e-07
1.20909e-07
1.20926e-07
1.20938e-07
1.20954e-07
1.20966e-07
1.20979e-07
1.2099e-07
1.21002e-07