/*--------------------------------*- C++ -*----------------------------------*\
| =========                 |                                                 |
| \\      /  F ield         | OpenFOAM: The Open Source CFD Toolbox           |
|  \\    /   O peration     | Version:  v2012                                 |
|   \\  /    A nd           | Website:  www.openfoam.com                      |
|    \\/     M anipulation  |                                                 |
\*---------------------------------------------------------------------------*/
FoamFile
{
    version     2.0;
    format      ascii;
    class       volScalarField;
    location    "38";
    object      omega;
}
// * * * * * * * * * * * * * * * * * * * * * * * * * * * * * * * * * * * * * //

dimensions      [0 0 -1 0 0 0 0];


internalField   nonuniform List<scalar> 
209825
(
8261.33
7566.52
6999.97
6551.8
6202.3
5930.13
5715.58
5544.53
5405.6
5291.73
5196.61
5116.89
5048.73
4990.65
4940.04
4896.38
4857.69
4824.03
4793.76
4767.27
4743.11
4721.91
4702.31
4685.08
4668.95
4654.8
4641.38
4629.6
4618.3
4608.45
4598.85
4590.53
4582.31
4575.24
4568.16
4562.13
4556.01
4550.83
4545.49
4541.02
4536.39
4532.51
4528.43
4525.1
4521.52
4518.61
4515.44
4512.89
4510.15
4507.93
4505.55
4503.67
4501.61
4499.85
4498.07
4496.56
4494.99
4493.64
4492.25
4491.17
4490.06
4489.11
4488.1
4487.4
4486.5
4485.86
4485.06
4484.59
4483.96
4483.63
4483.06
4482.78
4482.27
4482.02
4481.51
4481.25
4480.84
4480.66
4480.32
4480.22
4479.98
4480.05
4480.02
4480.24
4480.25
4480.69
4480.69
4481.36
4481.36
4482.2
4482.2
4483.3
4483.95
4513.98
4627.47
113291
8261.33
7566.52
6999.97
6551.79
6202.28
5930.1
5715.53
5544.48
5405.54
5291.66
5196.53
5116.8
5048.64
4990.56
4939.94
4896.28
4857.59
4823.92
4793.65
4767.16
4743
4721.79
4702.19
4684.95
4668.83
4654.67
4641.25
4629.47
4618.17
4608.32
4598.72
4590.39
4582.18
4575.11
4568.02
4561.99
4555.87
4550.69
4545.35
4540.88
4536.25
4532.37
4528.29
4524.96
4521.38
4518.47
4515.3
4512.75
4510.01
4507.78
4505.41
4503.53
4501.47
4499.7
4497.93
4496.41
4494.84
4493.49
4492.11
4491.02
4489.91
4488.96
4487.95
4487.25
4486.35
4485.71
4484.91
4484.44
4483.81
4483.48
4482.92
4482.64
4482.13
4481.87
4481.36
4481.1
4480.69
4480.51
4480.17
4480.07
4479.83
4479.9
4479.87
4480.09
4480.09
4480.54
4480.54
4481.21
4481.21
4482.05
4482.05
4483.15
4483.8
4513.88
4627.35
109992
8261.33
7566.53
6999.97
6551.76
6202.21
5930
5715.39
5544.3
5405.32
5291.42
5196.26
5116.51
5048.34
4990.24
4939.6
4895.93
4857.23
4823.55
4793.27
4766.77
4742.6
4721.39
4701.78
4684.54
4668.41
4654.25
4640.82
4629.04
4617.74
4607.88
4598.28
4589.95
4581.73
4574.66
4567.57
4561.54
4555.41
4550.23
4544.89
4540.42
4535.79
4531.9
4527.82
4524.49
4520.91
4518
4514.83
4512.27
4509.54
4507.31
4504.93
4503.05
4500.99
4499.23
4497.45
4495.93
4494.36
4493.01
4491.63
4490.54
4489.43
4488.48
4487.46
4486.76
4485.87
4485.23
4484.42
4483.96
4483.32
4482.99
4482.43
4482.15
4481.64
4481.38
4480.87
4480.62
4480.2
4480.02
4479.68
4479.58
4479.34
4479.41
4479.38
4479.6
4479.6
4480.04
4480.04
4480.71
4480.72
4481.55
4481.55
4482.65
4483.3
4513.49
4626.93
106206
8261.33
7566.55
6999.97
6551.71
6202.09
5929.8
5715.13
5543.98
5404.95
5291
5195.8
5116.02
5047.81
4989.68
4939.03
4895.33
4856.61
4822.92
4792.62
4766.11
4741.93
4720.7
4701.09
4683.84
4667.7
4653.52
4640.09
4628.31
4616.99
4607.13
4597.52
4589.19
4580.97
4573.89
4566.8
4560.77
4554.64
4549.45
4544.1
4539.63
4535
4531.11
4527.02
4523.7
4520.11
4517.2
4514.03
4511.47
4508.73
4506.5
4504.12
4502.24
4500.17
4498.41
4496.63
4495.11
4493.54
4492.19
4490.8
4489.72
4488.6
4487.65
4486.64
4485.94
4485.04
4484.4
4483.59
4483.13
4482.49
4482.16
4481.59
4481.31
4480.8
4480.54
4480.03
4479.78
4479.36
4479.18
4478.84
4478.74
4478.5
4478.57
4478.53
4478.75
4478.75
4479.19
4479.19
4479.86
4479.86
4480.7
4480.7
4481.8
4482.45
4512.8
4626.18
102313
8261.34
7566.57
6999.96
6551.63
6201.92
5929.53
5714.76
5543.52
5404.42
5290.4
5195.14
5115.31
5047.06
4988.89
4938.2
4894.48
4855.73
4822.02
4791.7
4765.16
4740.96
4719.72
4700.09
4682.83
4666.68
4652.49
4639.05
4627.26
4615.93
4606.06
4596.45
4588.11
4579.88
4572.8
4565.7
4559.66
4553.53
4548.34
4542.98
4538.51
4533.87
4529.98
4525.89
4522.56
4518.97
4516.05
4512.88
4510.32
4507.57
4505.34
4502.96
4501.08
4499.01
4497.25
4495.47
4493.95
4492.37
4491.02
4489.63
4488.54
4487.43
4486.48
4485.46
4484.76
4483.86
4483.22
4482.41
4481.94
4481.3
4480.97
4480.4
4480.12
4479.61
4479.35
4478.84
4478.59
4478.17
4477.99
4477.65
4477.54
4477.3
4477.37
4477.33
4477.55
4477.55
4477.98
4477.98
4478.65
4478.65
4479.48
4479.48
4480.58
4481.24
4511.82
4625.12
98416.9
8261.34
7566.59
6999.96
6551.54
6201.7
5929.18
5714.28
5542.93
5403.72
5289.62
5194.29
5114.39
5046.08
4987.86
4937.13
4893.36
4854.58
4820.84
4790.49
4763.93
4739.71
4718.45
4698.8
4681.52
4665.35
4651.15
4637.69
4625.89
4614.55
4604.67
4595.05
4586.7
4578.46
4571.37
4564.27
4558.22
4552.08
4546.88
4541.52
4537.05
4532.4
4528.5
4524.41
4521.07
4517.48
4514.56
4511.38
4508.82
4506.07
4503.84
4501.45
4499.57
4497.5
4495.73
4493.95
4492.42
4490.85
4489.49
4488.1
4487.01
4485.89
4484.94
4483.92
4483.22
4482.31
4481.67
4480.86
4480.39
4479.75
4479.42
4478.85
4478.57
4478.06
4477.8
4477.29
4477.03
4476.61
4476.43
4476.09
4475.98
4475.74
4475.8
4475.76
4475.97
4475.97
4476.41
4476.41
4477.07
4477.07
4477.89
4477.9
4478.99
4479.66
4510.54
4623.74
94558.1
8261.35
7566.63
6999.95
6551.42
6201.42
5928.74
5713.68
5542.19
5402.86
5288.65
5193.23
5113.25
5044.87
4986.59
4935.8
4891.98
4853.16
4819.38
4788.99
4762.4
4738.15
4716.86
4697.19
4679.89
4663.7
4649.49
4636.01
4624.19
4612.84
4602.95
4593.31
4584.96
4576.71
4569.61
4562.49
4556.44
4550.29
4545.08
4539.72
4535.23
4530.58
4526.68
4522.58
4519.24
4515.64
4512.71
4509.53
4506.96
4504.21
4501.97
4499.59
4497.69
4495.62
4493.85
4492.06
4490.54
4488.96
4487.6
4486.21
4485.11
4483.99
4483.04
4482.02
4481.31
4480.41
4479.76
4478.95
4478.48
4477.83
4477.5
4476.93
4476.65
4476.13
4475.87
4475.36
4475.1
4474.68
4474.5
4474.15
4474.05
4473.8
4473.86
4473.82
4474.03
4474.03
4474.45
4474.45
4475.11
4475.11
4475.93
4475.93
4477.03
4477.7
4508.95
4622.03
90755.5
8261.35
7566.67
6999.95
6551.28
6201.1
5928.21
5712.97
5541.32
5401.84
5287.5
5191.96
5111.89
5043.42
4985.07
4934.21
4890.34
4851.46
4817.63
4787.2
4760.58
4736.29
4714.97
4695.27
4677.95
4661.73
4647.5
4634
4622.16
4610.8
4600.89
4591.24
4582.87
4574.61
4567.49
4560.37
4554.3
4548.14
4542.93
4537.56
4533.06
4528.41
4524.49
4520.39
4517.04
4513.43
4510.5
4507.32
4504.74
4501.99
4499.74
4497.35
4495.45
4493.38
4491.6
4489.81
4488.28
4486.7
4485.34
4483.94
4482.84
4481.72
4480.76
4479.74
4479.03
4478.12
4477.48
4476.66
4476.19
4475.54
4475.21
4474.63
4474.35
4473.83
4473.57
4473.06
4472.8
4472.37
4472.19
4471.84
4471.74
4471.49
4471.54
4471.49
4471.7
4471.7
4472.12
4472.12
4472.77
4472.77
4473.58
4473.58
4474.68
4475.35
4507.05
4620
87017.8
8261.36
7566.71
6999.94
6551.11
6200.72
5927.61
5712.15
5540.3
5400.65
5286.16
5190.49
5110.3
5041.73
4983.29
4932.36
4888.42
4849.48
4815.59
4785.12
4758.45
4734.12
4712.77
4693.03
4675.68
4659.44
4645.18
4631.66
4619.8
4608.41
4598.49
4588.82
4580.43
4572.15
4565.03
4557.89
4551.81
4545.64
4540.42
4535.03
4530.53
4525.86
4521.94
4517.83
4514.47
4510.86
4507.93
4504.73
4502.15
4499.39
4497.14
4494.74
4492.84
4490.76
4488.98
4487.18
4485.65
4484.06
4482.7
4481.3
4480.2
4479.07
4478.11
4477.08
4476.37
4475.46
4474.81
4473.99
4473.51
4472.86
4472.53
4471.95
4471.66
4471.15
4470.88
4470.37
4470.11
4469.68
4469.5
4469.15
4469.04
4468.78
4468.83
4468.78
4468.98
4468.98
4469.39
4469.39
4470.03
4470.04
4470.84
4470.84
4471.93
4472.62
4504.84
4617.64
83347.8
8261.36
7566.77
6999.93
6550.93
6200.29
5926.91
5711.2
5539.13
5399.28
5284.62
5188.8
5108.48
5039.8
4981.26
4930.24
4886.22
4847.21
4813.26
4782.73
4756.01
4731.64
4710.24
4690.47
4673.08
4656.81
4642.52
4628.97
4617.09
4605.68
4595.73
4586.04
4577.64
4569.34
4562.2
4555.05
4548.96
4542.77
4537.54
4532.14
4527.63
4522.95
4519.02
4514.9
4511.53
4507.91
4504.97
4501.77
4499.18
4496.41
4494.16
4491.75
4489.84
4487.76
4485.97
4484.17
4482.63
4481.04
4479.68
4478.27
4477.16
4476.03
4475.07
4474.03
4473.31
4472.4
4471.75
4470.93
4470.45
4469.79
4469.45
4468.88
4468.59
4468.07
4467.8
4467.29
4467.02
4466.59
4466.41
4466.05
4465.94
4465.69
4465.73
4465.67
4465.86
4465.86
4466.26
4466.26
4466.9
4466.9
4467.7
4467.7
4468.79
4469.48
4502.32
4614.95
79743.7
8261.37
7566.83
6999.93
6550.72
6199.8
5926.13
5710.14
5537.82
5397.74
5282.89
5186.9
5106.43
5037.62
4978.97
4927.84
4883.74
4844.64
4810.63
4780.03
4753.25
4728.83
4707.39
4687.57
4670.14
4653.83
4639.51
4625.94
4614.03
4602.59
4592.62
4582.91
4574.48
4566.17
4559.01
4551.84
4545.73
4539.53
4534.29
4528.87
4524.35
4519.66
4515.72
4511.59
4508.21
4504.58
4501.63
4498.42
4495.83
4493.05
4490.79
4488.37
4486.46
4484.36
4482.57
4480.77
4479.23
4477.62
4476.26
4474.84
4473.73
4472.59
4471.63
4470.58
4469.86
4468.95
4468.29
4467.47
4466.99
4466.33
4465.98
4465.4
4465.11
4464.59
4464.32
4463.8
4463.54
4463.1
4462.91
4462.56
4462.45
4462.18
4462.22
4462.16
4462.34
4462.34
4462.73
4462.73
4463.36
4463.36
4464.15
4464.15
4465.24
4465.94
4499.47
4611.94
76199.7
8261.38
7566.89
6999.92
6550.49
6199.26
5925.27
5708.96
5536.35
5396.03
5280.96
5184.78
5104.15
5035.19
4976.41
4925.17
4880.97
4841.79
4807.69
4777.02
4750.18
4725.7
4704.21
4684.34
4666.87
4650.52
4636.16
4622.55
4610.61
4599.14
4589.14
4579.41
4570.96
4562.63
4555.45
4548.25
4542.13
4535.91
4530.65
4525.23
4520.69
4515.98
4512.03
4507.89
4504.5
4500.86
4497.9
4494.68
4492.08
4489.29
4487.02
4484.6
4482.67
4480.57
4478.78
4476.96
4475.42
4473.81
4472.44
4471.01
4469.9
4468.75
4467.78
4466.73
4466.01
4465.09
4464.43
4463.6
4463.12
4462.45
4462.11
4461.52
4461.23
4460.7
4460.43
4459.91
4459.64
4459.21
4459.01
4458.66
4458.54
4458.27
4458.3
4458.23
4458.4
4458.4
4458.78
4458.78
4459.4
4459.4
4460.18
4460.18
4461.27
4461.98
4496.3
4608.59
72711.8
8261.39
7566.97
6999.92
6550.24
6198.67
5924.31
5707.66
5534.74
5394.14
5278.83
5182.44
5101.63
5032.51
4973.59
4922.22
4877.91
4838.63
4804.44
4773.7
4746.78
4722.23
4700.68
4680.76
4663.24
4646.85
4632.45
4618.8
4606.83
4595.33
4585.3
4575.53
4567.06
4558.7
4551.5
4544.29
4538.15
4531.91
4526.63
4521.19
4516.63
4511.92
4507.95
4503.79
4500.4
4496.74
4493.77
4490.54
4487.93
4485.13
4482.85
4480.42
4478.49
4476.38
4474.58
4472.75
4471.2
4469.59
4468.21
4466.78
4465.66
4464.5
4463.53
4462.47
4461.75
4460.82
4460.16
4459.32
4458.83
4458.16
4457.81
4457.22
4456.93
4456.4
4456.13
4455.6
4455.33
4454.89
4454.7
4454.33
4454.21
4453.94
4453.96
4453.88
4454.05
4454.04
4454.41
4454.41
4455.02
4455.03
4455.79
4455.79
4456.87
4457.6
4492.79
4604.92
69286.6
8261.4
7567.05
6999.91
6549.96
6198.03
5923.27
5706.24
5532.98
5392.08
5276.5
5179.88
5098.86
5029.56
4970.49
4918.99
4874.55
4835.16
4800.88
4770.04
4743.05
4718.43
4696.82
4676.84
4659.27
4642.82
4628.38
4614.69
4602.67
4591.14
4581.08
4571.28
4562.79
4554.4
4547.17
4539.93
4533.77
4527.51
4522.22
4516.76
4512.19
4507.45
4503.47
4499.29
4495.89
4492.22
4489.24
4485.99
4483.37
4480.56
4478.27
4475.83
4473.89
4471.77
4469.96
4468.13
4466.57
4464.95
4463.56
4462.13
4461
4459.83
4458.86
4457.8
4457.06
4456.13
4455.47
4454.62
4454.13
4453.45
4453.1
4452.5
4452.2
4451.67
4451.4
4450.87
4450.6
4450.15
4449.95
4449.59
4449.46
4449.19
4449.2
4449.11
4449.27
4449.26
4449.62
4449.62
4450.21
4450.22
4450.97
4450.97
4452.04
4452.8
4488.95
4600.91
65930
8261.4
7567.14
6999.9
6549.67
6197.33
5922.15
5704.7
5531.06
5389.83
5273.97
5177.09
5095.85
5026.36
4967.12
4915.46
4870.89
4831.38
4797
4766.07
4738.99
4714.29
4692.61
4672.56
4654.93
4638.43
4623.94
4610.2
4598.15
4586.57
4576.48
4566.65
4558.12
4549.7
4542.45
4535.19
4529
4522.72
4517.4
4511.92
4507.33
4502.58
4498.58
4494.39
4490.97
4487.29
4484.29
4481.03
4478.4
4475.58
4473.28
4470.82
4468.87
4466.75
4464.93
4463.09
4461.52
4459.89
4458.5
4457.05
4455.92
4454.74
4453.76
4452.69
4451.95
4451.01
4450.34
4449.49
4448.99
4448.31
4447.95
4447.35
4447.05
4446.51
4446.24
4445.71
4445.43
4444.98
4444.78
4444.41
4444.28
4444.01
4444
4443.9
4444.05
4444.04
4444.38
4444.38
4444.96
4444.97
4445.71
4445.71
4446.78
4447.55
4484.75
4596.58
62647.6
8261.41
7567.23
6999.9
6549.36
6196.58
5920.93
5703.04
5529
5387.41
5271.23
5174.08
5092.6
5022.9
4963.47
4911.65
4866.93
4827.29
4792.79
4761.76
4734.59
4709.8
4688.04
4667.93
4650.23
4633.67
4619.13
4605.34
4593.24
4581.62
4571.49
4561.62
4553.06
4544.61
4537.33
4530.04
4523.82
4517.52
4512.18
4506.67
4502.07
4497.29
4493.28
4489.07
4485.63
4481.93
4478.92
4475.65
4473.01
4470.17
4467.86
4465.39
4463.43
4461.3
4459.47
4457.61
4456.04
4454.4
4453
4451.55
4450.4
4449.22
4448.23
4447.15
4446.41
4445.46
4444.79
4443.93
4443.42
4442.73
4442.37
4441.77
4441.46
4440.92
4440.64
4440.11
4439.82
4439.37
4439.16
4438.79
4438.66
4438.38
4438.36
4438.25
4438.39
4438.37
4438.7
4438.7
4439.27
4439.27
4440
4440
4441.06
4441.86
4480.21
4591.92
59444.8
8261.42
7567.33
6999.9
6549.02
6195.79
5919.63
5701.26
5526.78
5384.8
5268.28
5170.83
5089.1
5019.16
4959.54
4907.54
4862.67
4822.89
4788.26
4757.11
4729.84
4704.96
4683.12
4662.93
4645.16
4628.54
4613.94
4600.09
4587.95
4576.28
4566.11
4556.2
4547.6
4539.11
4531.8
4524.48
4518.24
4511.91
4506.54
4501.01
4496.38
4491.59
4487.56
4483.33
4479.87
4476.16
4473.13
4469.85
4467.19
4464.33
4462.01
4459.53
4457.56
4455.41
4453.57
4451.71
4450.12
4448.47
4447.07
4445.6
4444.45
4443.26
4442.27
4441.17
4440.42
4439.47
4438.79
4437.92
4437.41
4436.71
4436.34
4435.73
4435.42
4434.88
4434.59
4434.06
4433.77
4433.31
4433.1
4432.72
4432.58
4432.3
4432.27
4432.15
4432.28
4432.26
4432.57
4432.57
4433.12
4433.12
4433.84
4433.83
4434.9
4435.71
4475.29
4586.93
56326.4
8261.43
7567.44
6999.9
6548.67
6194.94
5918.25
5699.36
5524.4
5382.01
5265.12
5167.36
5085.34
5015.16
4955.32
4903.13
4858.09
4818.16
4783.4
4752.12
4724.74
4699.77
4677.83
4657.56
4639.72
4623.02
4608.36
4594.46
4582.26
4570.54
4560.32
4550.37
4541.73
4533.21
4525.86
4518.51
4512.24
4505.87
4500.49
4494.93
4490.28
4485.46
4481.41
4477.16
4473.68
4469.95
4466.91
4463.61
4460.93
4458.06
4455.73
4453.23
4451.25
4449.08
4447.24
4445.36
4443.77
4442.1
4440.69
4439.21
4438.05
4436.85
4435.85
4434.75
4433.99
4433.02
4432.34
4431.47
4430.95
4430.24
4429.87
4429.25
4428.93
4428.38
4428.1
4427.56
4427.27
4426.8
4426.58
4426.2
4426.05
4425.77
4425.73
4425.59
4425.71
4425.68
4425.98
4425.98
4426.52
4426.52
4427.21
4427.21
4428.26
4429.11
4470.01
4581.62
53296.8
8261.44
7567.55
6999.9
6548.3
6194.04
5916.77
5697.33
5521.88
5379.03
5261.76
5163.65
5081.33
5010.89
4950.81
4898.42
4853.2
4813.1
4778.2
4746.79
4719.29
4694.21
4672.18
4651.81
4633.9
4617.13
4602.4
4588.43
4576.17
4564.4
4554.13
4544.13
4535.46
4526.89
4519.51
4512.12
4505.82
4499.42
4494
4488.42
4483.74
4478.9
4474.83
4470.55
4467.06
4463.3
4460.25
4456.92
4454.23
4451.35
4449
4446.49
4444.49
4442.31
4440.45
4438.56
4436.96
4435.28
4433.86
4432.37
4431.2
4429.98
4428.98
4427.87
4427.1
4426.12
4425.44
4424.55
4424.03
4423.31
4422.93
4422.3
4421.98
4421.43
4421.14
4420.59
4420.3
4419.83
4419.6
4419.21
4419.06
4418.77
4418.73
4418.57
4418.68
4418.64
4418.92
4418.92
4419.44
4419.44
4420.11
4420.11
4421.16
4422.04
4464.32
4575.99
50360.2
8261.45
7567.67
6999.9
6547.91
6193.09
5915.22
5695.19
5519.2
5375.88
5258.18
5159.7
5077.07
5006.34
4946.02
4893.4
4847.99
4807.72
4772.66
4741.11
4713.49
4688.28
4666.15
4645.69
4627.69
4610.84
4596.04
4582
4569.68
4557.85
4547.53
4537.48
4528.76
4520.15
4512.73
4505.3
4498.96
4492.53
4487.09
4481.48
4476.77
4471.9
4467.81
4463.5
4459.99
4456.21
4453.14
4449.8
4447.09
4444.18
4441.82
4439.29
4437.27
4435.08
4433.22
4431.31
4429.69
4428
4426.57
4425.07
4423.89
4422.66
4421.65
4420.52
4419.75
4418.76
4418.07
4417.18
4416.64
4415.92
4415.53
4414.89
4414.57
4414.01
4413.71
4413.16
4412.86
4412.38
4412.15
4411.76
4411.6
4411.31
4411.25
4411.08
4411.17
4411.13
4411.39
4411.39
4411.89
4411.89
4412.54
4412.54
4413.59
4414.49
4458.24
4570.03
47520.4
8261.46
7567.8
6999.91
6547.5
6192.09
5913.58
5692.92
5516.36
5372.53
5254.39
5155.53
5072.55
5001.52
4940.93
4888.08
4842.46
4802
4766.77
4735.07
4707.32
4681.99
4659.75
4639.19
4621.09
4604.16
4589.28
4575.17
4562.78
4550.89
4540.52
4530.41
4521.64
4512.98
4505.52
4498.05
4491.68
4485.21
4479.73
4474.09
4469.36
4464.45
4460.34
4456.01
4452.47
4448.67
4445.57
4442.21
4439.49
4436.56
4434.18
4431.63
4429.6
4427.4
4425.52
4423.59
4421.97
4420.26
4418.82
4417.3
4416.11
4414.87
4413.85
4412.71
4411.92
4410.93
4410.23
4409.33
4408.78
4408.05
4407.65
4407.01
4406.68
4406.11
4405.81
4405.26
4404.95
4404.46
4404.23
4403.82
4403.66
4403.36
4403.29
4403.11
4403.19
4403.14
4403.38
4403.37
4403.85
4403.85
4404.49
4404.49
4405.52
4406.47
4451.73
4563.7
44780.8
8261.47
7567.94
6999.92
6547.08
6191.05
5911.85
5690.54
5513.37
5369.01
5250.4
5151.11
5067.77
4996.42
4935.55
4882.45
4836.6
4795.95
4760.54
4728.68
4700.79
4675.33
4652.97
4632.29
4614.1
4597.07
4582.11
4567.92
4555.47
4543.51
4533.08
4522.91
4514.09
4505.39
4497.88
4490.36
4483.95
4477.45
4471.94
4466.26
4461.49
4456.56
4452.42
4448.06
4444.5
4440.67
4437.55
4434.17
4431.42
4428.48
4426.08
4423.51
4421.46
4419.24
4417.35
4415.4
4413.77
4412.05
4410.6
4409.07
4407.86
4406.6
4405.57
4404.42
4403.63
4402.62
4401.91
4401
4400.45
4399.7
4399.3
4398.65
4398.31
4397.73
4397.43
4396.87
4396.56
4396.06
4395.82
4395.41
4395.24
4394.93
4394.85
4394.65
4394.72
4394.66
4394.88
4394.87
4395.33
4395.33
4395.94
4395.94
4396.97
4397.95
4444.77
4556.99
42144.5
8261.48
7568.08
6999.94
6546.64
6189.96
5910.05
5688.03
5510.23
5365.3
5246.18
5146.46
5062.73
4991.04
4929.88
4876.51
4830.43
4789.55
4753.97
4721.93
4693.88
4668.28
4645.8
4625.01
4606.71
4589.59
4574.54
4560.27
4547.74
4535.71
4525.21
4514.99
4506.11
4497.35
4489.8
4482.23
4475.78
4469.23
4463.69
4457.97
4453.17
4448.21
4444.04
4439.65
4436.06
4432.21
4429.07
4425.66
4422.89
4419.93
4417.51
4414.92
4412.85
4410.61
4408.7
4406.74
4405.09
4403.36
4401.9
4400.35
4399.13
4397.86
4396.82
4395.65
4394.85
4393.83
4393.11
4392.19
4391.63
4390.87
4390.45
4389.79
4389.45
4388.87
4388.56
4387.99
4387.67
4387.17
4386.92
4386.5
4386.33
4386.01
4385.92
4385.7
4385.76
4385.68
4385.89
4385.87
4386.31
4386.31
4386.9
4386.89
4387.92
4388.94
4437.35
4549.86
39614.1
8261.49
7568.22
6999.95
6546.19
6188.82
5908.16
5685.41
5506.94
5361.4
5241.76
5141.57
5057.43
4985.38
4923.9
4870.25
4823.92
4782.82
4747.03
4714.82
4686.61
4660.86
4638.24
4617.33
4598.92
4581.69
4566.55
4552.19
4539.59
4527.48
4516.92
4506.62
4497.69
4488.87
4481.27
4473.66
4467.16
4460.57
4454.98
4449.23
4444.39
4439.39
4435.19
4430.77
4427.16
4423.28
4420.11
4416.68
4413.89
4410.9
4408.46
4405.85
4403.77
4401.5
4399.58
4397.6
4395.94
4394.18
4392.71
4391.14
4389.92
4388.62
4387.58
4386.39
4385.57
4384.54
4383.82
4382.88
4382.31
4381.54
4381.12
4380.45
4380.09
4379.51
4379.19
4378.62
4378.29
4377.78
4377.53
4377.09
4376.91
4376.59
4376.49
4376.26
4376.3
4376.21
4376.39
4376.37
4376.79
4376.79
4377.34
4377.35
4378.36
4379.42
4429.44
4542.28
37192.1
8261.5
7568.38
6999.98
6545.73
6187.64
5906.19
5682.68
5503.5
5357.33
5237.13
5136.44
5051.88
4979.44
4917.63
4863.67
4817.08
4775.75
4739.75
4707.34
4678.96
4653.05
4630.29
4609.25
4590.73
4573.39
4558.15
4543.69
4531.01
4518.82
4508.18
4497.82
4488.83
4479.95
4472.29
4464.62
4458.08
4451.44
4445.82
4440.02
4435.15
4430.11
4425.88
4421.43
4417.78
4413.87
4410.68
4407.22
4404.41
4401.39
4398.94
4396.3
4394.19
4391.91
4389.97
4387.97
4386.29
4384.52
4383.03
4381.45
4380.21
4378.9
4377.84
4376.64
4375.81
4374.76
4374.03
4373.08
4372.5
4371.71
4371.28
4370.6
4370.24
4369.64
4369.32
4368.74
4368.41
4367.89
4367.63
4367.19
4367
4366.66
4366.55
4366.31
4366.33
4366.23
4366.39
4366.37
4366.75
4366.75
4367.28
4367.29
4368.29
4369.4
4421.01
4534.21
34880.6
8261.51
7568.54
7000
6545.25
6186.42
5904.15
5679.83
5499.91
5353.07
5232.28
5131.07
5046.06
4973.22
4911.05
4856.78
4809.91
4768.33
4732.11
4699.49
4670.93
4644.86
4621.95
4600.77
4582.12
4564.66
4549.32
4534.77
4521.99
4509.72
4499.01
4488.57
4479.52
4470.57
4462.86
4455.14
4448.54
4441.85
4436.18
4430.34
4425.44
4420.36
4416.09
4411.6
4407.93
4403.98
4400.77
4397.28
4394.44
4391.4
4388.92
4386.25
4384.13
4381.82
4379.87
4377.84
4376.15
4374.36
4372.86
4371.26
4370
4368.67
4367.6
4366.38
4365.54
4364.48
4363.74
4362.77
4362.18
4361.38
4360.94
4360.25
4359.88
4359.27
4358.95
4358.36
4358.02
4357.49
4357.22
4356.77
4356.57
4356.22
4356.11
4355.85
4355.85
4355.73
4355.88
4355.84
4356.2
4356.2
4356.71
4356.71
4357.7
4358.86
4412.02
4525.62
32681.2
8261.52
7568.7
7000.04
6544.76
6185.16
5902.03
5676.87
5496.17
5348.63
5227.22
5125.47
5039.98
4966.72
4904.18
4849.57
4802.41
4760.56
4724.1
4691.28
4662.52
4636.27
4613.21
4591.88
4573.1
4555.52
4540.07
4525.41
4512.55
4500.18
4489.39
4478.88
4469.75
4460.74
4452.97
4445.18
4438.54
4431.8
4426.08
4420.19
4415.24
4410.12
4405.82
4401.3
4397.59
4393.61
4390.36
4386.85
4383.98
4380.91
4378.41
4375.72
4373.57
4371.24
4369.27
4367.22
4365.51
4363.7
4362.18
4360.56
4359.29
4357.94
4356.86
4355.62
4354.77
4353.69
4352.94
4351.96
4351.35
4350.54
4350.09
4349.38
4349
4348.39
4348.05
4347.46
4347.11
4346.57
4346.29
4345.83
4345.62
4345.27
4345.14
4344.87
4344.85
4344.72
4344.84
4344.8
4345.13
4345.13
4345.6
4345.61
4346.59
4347.8
4402.45
4516.46
30595.6
8261.52
7568.88
7000.07
6544.26
6183.86
5899.84
5673.79
5492.28
5344.01
5221.95
5119.63
5033.64
4959.93
4897
4842.05
4794.57
4752.44
4715.74
4682.69
4653.73
4627.3
4604.07
4582.58
4563.67
4545.96
4530.39
4515.62
4502.66
4490.2
4479.32
4468.73
4459.53
4450.44
4442.61
4434.76
4428.06
4421.27
4415.5
4409.56
4404.57
4399.41
4395.07
4390.5
4386.76
4382.75
4379.47
4375.92
4373.03
4369.93
4367.4
4364.68
4362.51
4360.15
4358.16
4356.09
4354.36
4352.53
4351
4349.36
4348.07
4346.69
4345.6
4344.34
4343.48
4342.38
4341.62
4340.62
4340.01
4339.18
4338.72
4338
4337.61
4336.98
4336.64
4336.04
4335.68
4335.13
4334.84
4334.37
4334.15
4333.79
4333.65
4333.37
4333.33
4333.18
4333.28
4333.23
4333.53
4333.53
4333.97
4333.97
4334.95
4336.2
4392.24
4506.69
28625.1
8261.53
7569.05
7000.12
6543.75
6182.53
5897.58
5670.61
5488.25
5339.21
5216.48
5113.56
5027.03
4952.86
4889.52
4834.2
4786.4
4743.98
4707.01
4673.72
4644.56
4617.92
4594.52
4572.87
4553.82
4535.97
4520.28
4505.39
4492.32
4479.77
4468.8
4458.12
4448.84
4439.69
4431.79
4423.87
4417.11
4410.26
4404.44
4398.45
4393.42
4388.2
4383.82
4379.22
4375.44
4371.39
4368.08
4364.5
4361.57
4358.44
4355.89
4353.14
4350.94
4348.56
4346.55
4344.45
4342.7
4340.84
4339.3
4337.64
4336.33
4334.93
4333.83
4332.55
4331.67
4330.56
4329.78
4328.77
4328.14
4327.3
4326.82
4326.09
4325.69
4325.05
4324.71
4324.09
4323.73
4323.17
4322.87
4322.38
4322.16
4321.78
4321.63
4321.34
4321.28
4321.11
4321.19
4321.12
4321.4
4321.4
4321.81
4321.81
4322.77
4324.08
4381.38
4496.28
26770.8
8261.53
7569.24
7000.17
6543.24
6181.16
5895.25
5667.33
5484.08
5334.24
5210.8
5107.25
5020.17
4945.51
4881.74
4826.03
4777.89
4735.16
4697.92
4664.38
4634.99
4608.16
4584.57
4562.75
4543.54
4525.55
4509.73
4494.72
4481.55
4468.88
4457.83
4447.05
4437.7
4428.46
4420.49
4412.51
4405.69
4398.77
4392.9
4386.85
4381.77
4376.51
4372.09
4367.44
4363.62
4359.53
4356.18
4352.57
4349.61
4346.45
4343.87
4341.09
4338.86
4336.45
4334.42
4332.3
4330.53
4328.65
4327.09
4325.4
4324.07
4322.65
4321.53
4320.24
4319.34
4318.21
4317.42
4316.39
4315.75
4314.89
4314.4
4313.65
4313.24
4312.59
4312.24
4311.61
4311.24
4310.67
4310.36
4309.86
4309.63
4309.23
4309.07
4308.77
4308.7
4308.5
4308.57
4308.48
4308.73
4308.73
4309.11
4309.1
4310.05
4311.41
4369.86
4485.18
25033.8
8261.54
7569.43
7000.22
6542.72
6179.76
5892.85
5663.94
5479.77
5329.09
5204.92
5100.71
5013.06
4937.88
4873.66
4817.55
4769.05
4725.99
4688.47
4654.67
4625.05
4597.99
4574.22
4552.22
4532.85
4514.7
4498.75
4483.61
4470.32
4457.55
4446.39
4435.52
4426.08
4416.76
4408.72
4400.66
4393.78
4386.79
4380.87
4374.76
4369.63
4364.32
4359.85
4355.15
4351.3
4347.16
4343.78
4340.13
4337.14
4333.94
4331.33
4328.52
4326.27
4323.83
4321.77
4319.62
4317.83
4315.92
4314.35
4312.63
4311.29
4309.85
4308.71
4307.39
4306.48
4305.33
4304.53
4303.48
4302.83
4301.94
4301.44
4300.68
4300.26
4299.6
4299.23
4298.6
4298.22
4297.63
4297.31
4296.8
4296.55
4296.15
4295.98
4295.65
4295.57
4295.35
4295.4
4295.29
4295.52
4295.51
4295.86
4295.84
4296.78
4298.19
4357.68
4473.35
23415
8261.54
7569.62
7000.29
6542.19
6178.32
5890.39
5660.45
5475.32
5323.78
5198.83
5093.94
5005.68
4929.97
4865.28
4808.74
4759.87
4716.48
4678.65
4644.57
4614.71
4587.43
4563.45
4541.26
4521.73
4503.42
4487.33
4472.05
4458.65
4445.75
4434.5
4423.53
4414
4404.59
4396.47
4388.33
4381.38
4374.33
4368.34
4362.18
4356.99
4351.62
4347.12
4342.37
4338.47
4334.29
4330.87
4327.18
4324.16
4320.92
4318.28
4315.44
4313.15
4310.69
4308.61
4306.42
4304.61
4302.68
4301.08
4299.34
4297.98
4296.51
4295.36
4294.01
4293.08
4291.91
4291.1
4290.03
4289.36
4288.46
4287.95
4287.17
4286.73
4286.06
4285.69
4285.04
4284.65
4284.05
4283.72
4283.2
4282.94
4282.51
4282.33
4282
4281.9
4281.66
4281.68
4281.56
4281.76
4281.74
4282.06
4282.03
4282.96
4284.42
4344.84
4460.76
21910.5
8261.54
7569.82
7000.36
6541.66
6176.87
5887.87
5656.86
5470.74
5318.29
5192.54
5086.94
4998.06
4921.79
4856.6
4799.62
4750.36
4706.61
4668.47
4634.1
4603.98
4576.47
4552.28
4529.89
4510.18
4491.71
4475.46
4460.05
4446.52
4433.5
4422.14
4411.06
4401.44
4391.94
4383.74
4375.52
4368.5
4361.37
4355.33
4349.1
4343.86
4338.43
4333.87
4329.07
4325.13
4320.91
4317.45
4313.72
4310.66
4307.39
4304.71
4301.83
4299.51
4297.02
4294.91
4292.7
4290.87
4288.9
4287.28
4285.52
4284.13
4282.64
4281.47
4280.1
4279.15
4277.96
4277.13
4276.05
4275.36
4274.44
4273.91
4273.11
4272.67
4271.98
4271.59
4270.93
4270.54
4269.92
4269.58
4269.04
4268.77
4268.33
4268.14
4267.79
4267.68
4267.43
4267.42
4267.27
4267.44
4267.42
4267.71
4267.67
4268.59
4270.09
4331.33
4447.36
20515.6
8261.54
7570.02
7000.44
6541.13
6175.38
5885.29
5653.18
5466.03
5312.65
5186.06
5079.71
4990.18
4913.32
4847.62
4790.18
4740.51
4696.39
4657.93
4623.26
4592.87
4565.1
4540.69
4518.1
4498.21
4479.56
4463.16
4447.6
4433.93
4420.79
4409.31
4398.13
4388.41
4378.81
4370.52
4362.22
4355.12
4347.93
4341.81
4335.52
4330.22
4324.73
4320.12
4315.27
4311.28
4307.01
4303.51
4299.73
4296.64
4293.32
4290.62
4287.7
4285.35
4282.82
4280.69
4278.44
4276.58
4274.59
4272.95
4271.16
4269.75
4268.22
4267.04
4265.65
4264.68
4263.46
4262.62
4261.51
4260.81
4259.87
4259.32
4258.51
4258.05
4257.35
4256.95
4256.28
4255.87
4255.24
4254.89
4254.34
4254.05
4253.6
4253.39
4253.02
4252.9
4252.63
4252.6
4252.43
4252.57
4252.54
4252.8
4252.74
4253.65
4255.2
4317.14
4433.14
19225.5
8261.53
7570.23
7000.52
6540.6
6173.87
5882.66
5649.42
5461.2
5306.84
5179.39
5072.27
4982.05
4904.59
4838.35
4780.43
4730.34
4685.83
4647.02
4612.04
4581.37
4553.34
4528.7
4505.89
4485.8
4466.98
4450.42
4434.7
4420.89
4407.62
4396.02
4384.72
4374.9
4365.2
4356.82
4348.43
4341.26
4333.98
4327.8
4321.44
4316.08
4310.52
4305.86
4300.95
4296.91
4292.59
4289.05
4285.23
4282.1
4278.74
4275.99
4273.03
4270.65
4268.08
4265.93
4263.64
4261.76
4259.74
4258.08
4256.25
4254.83
4253.27
4252.07
4250.65
4249.66
4248.42
4247.56
4246.43
4245.72
4244.75
4244.19
4243.35
4242.88
4242.16
4241.76
4241.07
4240.65
4240.01
4239.64
4239.07
4238.78
4238.3
4238.09
4237.7
4237.56
4237.27
4237.22
4237.02
4237.14
4237.1
4237.32
4237.25
4238.15
4239.73
4302.28
4418.05
18034.9
8261.53
7570.44
7000.62
6540.07
6172.35
5879.98
5645.57
5456.25
5300.88
5172.53
5064.61
4973.68
4895.59
4828.79
4770.37
4719.83
4674.92
4635.75
4600.44
4569.48
4541.18
4516.3
4493.27
4472.98
4453.96
4437.23
4421.35
4407.4
4393.98
4382.26
4370.84
4360.91
4351.1
4342.64
4334.16
4326.9
4319.54
4313.29
4306.85
4301.43
4295.81
4291.09
4286.12
4282.03
4277.66
4274.07
4270.2
4267.03
4263.62
4260.84
4257.84
4255.42
4252.82
4250.63
4248.31
4246.41
4244.35
4242.67
4240.81
4239.36
4237.77
4236.55
4235.1
4234.09
4232.83
4231.95
4230.8
4230.07
4229.08
4228.5
4227.64
4227.16
4226.42
4226
4225.3
4224.88
4224.22
4223.84
4223.25
4222.94
4222.45
4222.22
4221.81
4221.66
4221.35
4221.28
4221.06
4221.15
4221.1
4221.29
4221.2
4222.08
4223.7
4286.74
4402.06
16938.4
8261.52
7570.65
7000.72
6539.54
6170.8
5877.25
5641.63
5451.18
5294.77
5165.49
5056.73
4965.07
4886.32
4818.94
4759.99
4708.99
4663.66
4624.12
4588.47
4557.2
4528.63
4503.49
4480.22
4459.72
4440.5
4423.6
4407.54
4393.45
4379.89
4368.04
4356.49
4346.45
4336.53
4327.97
4319.39
4312.04
4304.6
4298.27
4291.76
4286.27
4280.58
4275.8
4270.77
4266.63
4262.2
4258.56
4254.64
4251.43
4247.98
4245.16
4242.11
4239.66
4237.01
4234.8
4232.44
4230.51
4228.41
4226.71
4224.82
4223.35
4221.73
4220.48
4219
4217.97
4216.68
4215.79
4214.61
4213.86
4212.85
4212.25
4211.38
4210.87
4210.12
4209.69
4208.98
4208.54
4207.86
4207.47
4206.86
4206.54
4206.03
4205.78
4205.36
4205.19
4204.86
4204.77
4204.52
4204.59
4204.52
4204.68
4204.57
4205.44
4207.09
4270.52
4385.14
15930.3
8261.51
7570.87
7000.84
6539.01
6169.25
5874.48
5637.63
5446
5288.52
5158.27
5048.65
4956.22
4876.79
4808.81
4749.32
4697.84
4652.07
4612.14
4576.13
4544.55
4515.67
4490.28
4466.76
4446.04
4426.62
4409.52
4393.3
4379.04
4365.33
4353.34
4341.66
4331.5
4321.47
4312.81
4304.12
4296.69
4289.16
4282.75
4276.16
4270.6
4264.84
4260
4254.9
4250.7
4246.22
4242.53
4238.56
4235.3
4231.8
4228.94
4225.85
4223.36
4220.67
4218.43
4216.03
4214.07
4211.93
4210.2
4208.28
4206.79
4205.13
4203.86
4202.36
4201.3
4199.98
4199.07
4197.87
4197.1
4196.06
4195.45
4194.55
4194.03
4193.26
4192.82
4192.09
4191.63
4190.94
4190.53
4189.91
4189.57
4189.04
4188.78
4188.34
4188.15
4187.81
4187.7
4187.42
4187.46
4187.37
4187.5
4187.37
4188.23
4189.89
4253.61
4367.27
15004.7
8261.5
7571.09
7000.96
6538.5
6167.68
5871.67
5633.55
5440.71
5282.12
5150.88
5040.36
4947.15
4867
4798.39
4738.34
4686.36
4640.13
4599.8
4563.42
4531.51
4502.33
4476.66
4452.89
4431.94
4412.3
4395.01
4378.6
4364.18
4350.31
4338.18
4326.36
4316.08
4305.93
4297.16
4288.37
4280.85
4273.21
4266.73
4260.05
4254.42
4248.58
4243.68
4238.52
4234.26
4229.71
4225.97
4221.95
4218.64
4215.09
4212.19
4209.05
4206.52
4203.79