/*--------------------------------*- C++ -*----------------------------------*\
| =========                 |                                                 |
| \\      /  F ield         | OpenFOAM: The Open Source CFD Toolbox           |
|  \\    /   O peration     | Version:  v2012                                 |
|   \\  /    A nd           | Website:  www.openfoam.com                      |
|    \\/     M anipulation  |                                                 |
\*---------------------------------------------------------------------------*/
FoamFile
{
    version     2.0;
    format      ascii;
    class       volScalarField;
    location    "38";
    object      yPlus;
}
// * * * * * * * * * * * * * * * * * * * * * * * * * * * * * * * * * * * * * //

dimensions      [0 0 0 0 0 0 0];


internalField   uniform 0;

boundaryField
{
    inlet
    {
        type            calculated;
        value           uniform 0;
    }
    outlet
    {
        type            calculated;
        value           uniform 0;
    }
    topWall
    {
        type            calculated;
        value           nonuniform List<scalar> 
545
(
0.111312
0.191935
0.246235
0.289448
0.326033
0.358045
0.386641
0.412546
0.436256
0.458128
0.478426
0.497357
0.515085
0.531743
0.547441
0.562269
0.576307
0.589622
0.602272
0.614308
0.625774
0.636712
0.647155
0.657138
0.666688
0.675832
0.684594
0.692996
0.701058
0.708797
0.716233
0.723379
0.730251
0.736863
0.743227
0.749354
0.755257
0.760945
0.766429
0.771717
0.776818
0.781739
0.78649
0.791077
0.795506
0.799785
0.803919
0.807915
0.811777
0.815512
0.819123
0.822617
0.825997
0.829267
0.832432
0.835496
0.838462
0.841334
0.844116
0.84681
0.84942
0.851949
0.854399
0.856774
0.859076
0.861308
0.863471
0.865569
0.867603
0.869576
0.871489
0.873346
0.875123
0.876843
0.878549
0.880242
0.881921
0.883587
0.88524
0.88688
0.888508
0.890122
0.891724
0.893314
0.894891
0.896456
0.898009
0.89955
0.901079
0.902596
0.904102
0.905596
0.907079
0.90855
0.91001
0.91146
0.912765
0.913933
0.915101
0.916269
0.917437
0.918605
0.919772
0.920939
0.922107
0.923274
0.92444
0.925607
0.926774
0.92794
0.929106
0.930272
0.931438
0.932603
0.933768
0.934933
0.936098
0.937263
0.938427
0.939591
0.940755
0.941919
0.943082
0.944245
0.945408
0.94657
0.947732
0.948894
0.950055
0.951216
0.952377
0.953538
0.954698
0.955857
0.957017
0.958176
0.959334
0.960493
0.96165
0.962808
0.963965
0.965121
0.966278
0.967433
0.968588
0.969743
0.970898
0.972051
0.973205
0.974358
0.97551
0.976662
0.977813
0.978964
0.980114
0.981264
0.982413
0.983562
0.98471
0.985857
0.987004
0.98815
0.989296
0.990441
0.991586
0.992729
0.993873
0.995015
0.996157
0.997298
0.998438
0.999578
1.00072
1.00186
1.00299
1.00413
1.00527
1.0064
1.00754
1.00867
1.0098
1.01094
1.01207
1.0132
1.01433
1.01546
1.01658
1.01771
1.01884
1.01996
1.02109
1.02221
1.02334
1.02446
1.02558
1.0267
1.02782
1.02894
1.03005
1.03117
1.03228
1.0334
1.03451
1.03562
1.03673
1.03784
1.03895
1.04006
1.04117
1.04227
1.04338
1.04448
1.04558
1.04668
1.04778
1.04888
1.04998
1.05108
1.05217
1.05327
1.05436
1.05545
1.05654
1.05763
1.05872
1.0598
1.06089
1.06197
1.06306
1.06414
1.06522
1.06629
1.06737
1.06845
1.06952
1.07059
1.07166
1.07273
1.0738
1.07487
1.07594
1.077
1.07806
1.07912
1.08018
1.08124
1.0823
1.08335
1.0844
1.08546
1.08651
1.08755
1.0886
1.08964
1.09069
1.09173
1.09277
1.09381
1.09484
1.09588
1.09691
1.09794
1.09897
1.1
1.10103
1.10205
1.10307
1.10409
1.10511
1.10607
1.10698
1.10789
1.10881
1.10973
1.11066
1.1116
1.11254
1.11349
1.11445
1.11541
1.11638
1.11736
1.11834
1.11933
1.12032
1.12132
1.12233
1.12334
1.12436
1.12539
1.12642
1.12746
1.1285
1.12955
1.13061
1.13167
1.13274
1.13381
1.13489
1.13598
1.13707
1.13817
1.13927
1.14038
1.14149
1.14261
1.14374
1.14487
1.14601
1.14715
1.14829
1.14944
1.1506
1.15176
1.15293
1.1541
1.15528
1.15646
1.15764
1.15883
1.16002
1.16122
1.16242
1.16363
1.16484
1.16605
1.16727
1.16849
1.16971
1.17094
1.17217
1.1734
1.17464
1.17588
1.17712
1.17836
1.17961
1.18086
1.18211
1.18336
1.18461
1.18586
1.18712
1.18837
1.18963
1.19089
1.19215
1.1934
1.19466
1.19592
1.19718
1.19843
1.19969
1.20094
1.20219
1.20345
1.20469
1.20594
1.20719
1.20843
1.20967
1.2109
1.21213
1.21336
1.21459
1.21581
1.21702
1.21823
1.21944
1.22064
1.22183
1.22302
1.2242
1.22538
1.22655
1.22771
1.22886
1.23
1.23114
1.23227
1.23339
1.2345
1.2356
1.23669
1.23777
1.23884
1.23989
1.24094
1.24197
1.243
1.24401
1.245
1.24599
1.24696
1.24791
1.24886
1.24978
1.2507
1.25159
1.25247
1.25334
1.25419
1.25502
1.25584
1.25663
1.25741
1.25817
1.25892
1.25964
1.26035
1.26103
1.2617
1.26234
1.26297
1.26357
1.26416
1.26472
1.26526
1.26578
1.26627
1.26675
1.2672
1.26762
1.26803
1.26841
1.26877
1.2691
1.26941
1.26969
1.26995
1.27019
1.2704
1.27059
1.27075
1.27088
1.27099
1.27108
1.27114
1.27117
1.27118
1.27116
1.27112
1.27105
1.27095
1.27083
1.27068
1.27051
1.27031
1.27009
1.26984
1.26953
1.26916
1.26876
1.26833
1.26786
1.26738
1.26687
1.26633
1.26577
1.26519
1.26459
1.26397
1.26333
1.26268
1.26201
1.26133
1.26063
1.25992
1.2592
1.25847
1.25773
1.25698
1.25622
1.25546
1.25469
1.25392
1.25314
1.25236
1.25157
1.25079
1.25
1.24921
1.24842
1.24763
1.24684
1.24606
1.24527
1.24449
1.24372
1.24294
1.24217
1.24141
1.24065
1.2399
1.23916
1.23842
1.23769
1.23696
1.23625
1.23554
1.23485
1.23416
1.23349
1.23282
1.23216
1.23152
1.23089
1.23027
1.22966
1.22906
1.22848
1.22791
1.22735
1.22681
1.22628
1.22577
1.22527
1.22479
1.22432
1.22386
1.22343
1.223
1.2226
1.22221
1.22184
1.22148
1.22114
1.22082
1.22051
1.22023
1.21996
1.21971
1.21947
1.21926
1.21906
1.21888
1.21872
1.21858
1.21845
1.21835
1.21826
1.21819
1.21814
1.21812
1.21809
)
;
    }
    bottomWall
    {
        type            calculated;
        value           nonuniform List<scalar> 
449
(
0.139407
0.0889415
0.0758071
0.0694579
0.065311
0.0622531
0.0598964
0.0581396
0.0570951
0.0571565
0.0595819
0.0636417
0.0667423
0.0685553
0.0695313
0.070051
0.0702954
0.070361
0.0702966
0.0701615
0.0699755
0.0697598
0.0695286
0.0692911
0.0690524
0.0688159
0.0685831
0.0683556
0.0681341
0.0679191
0.0677106
0.0675086
0.067313
0.0671234
0.0669399
0.0667617
0.0665889
0.0664212
0.0662584
0.0661004
0.0659468
0.0657976
0.0656524
0.0655111
0.0653734
0.0652393
0.0651085
0.0649809
0.0648564
0.0647345
0.064615
0.0644976
0.0643822
0.0642689
0.0641576
0.0640482
0.0639409
0.0638355
0.063732
0.0636303
0.0635304
0.0634322
0.0633356
0.0632408
0.0631475
0.0630557
0.0629655
0.0628766
0.0627892
0.0627032
0.0626183
0.0625348
0.0624525
0.0623714
0.0622915
0.0622127
0.062135
0.0620585
0.061983
0.0619086
0.0618352
0.0617628
0.0616914
0.0616208
0.0615513
0.0614826
0.0614148
0.0613478
0.0612816
0.0612163
0.0611517
0.0610879
0.0610249
0.0609626
0.060901
0.0608401
0.0607799
0.0607204
0.0606616
0.0606033
0.0605458
0.0604887
0.0604323
0.0603764
0.0603211
0.0602663
0.0602122
0.0601585
0.0601054
0.0600528
0.0600007
0.0599491
0.0598981
0.0598474
0.0597973
0.0597476
0.0596984
0.0596496
0.0596013
0.0595534
0.0595059
0.0594588
0.0594122
0.0593659
0.05932
0.0592745
0.0592294
0.0591846
0.0591402
0.0590962
0.0590525
0.0590092
0.0589662
0.0589236
0.0588812
0.0588392
0.0587975
0.0587562
0.0587151
0.0586743
0.0586339
0.0585937
0.0585538
0.0585142
0.0584749
0.0584359
0.0583971
0.0583586
0.0583203
0.0582822
0.0582444
0.0582069
0.0581696
0.0581326
0.0580958
0.0580592
0.0580229
0.0579868
0.0579509
0.0579153
0.0578799
0.0578446
0.0578097
0.0577749
0.0577403
0.057706
0.0576718
0.0576379
0.0576042
0.0575706
0.0575372
0.0575041
0.0574711
0.0574402
0.0574111
0.0573818
0.0573525
0.0573231
0.0572936
0.0572639
0.0572342
0.0572043
0.0571744
0.0571443
0.0571142
0.0570839
0.0570536
0.0570231
0.0569926
0.0569619
0.0569312
0.0569003
0.0568694
0.0568383
0.0568072
0.0567759
0.0567446
0.0567132
0.0566817
0.0566501
0.0566184
0.0565866
0.0565547
0.0565227
0.0564906
0.0564585
0.0564262
0.0563939
0.0563615
0.056329
0.0562964
0.0562637
0.0562309
0.056198
0.056165
0.056132
0.0560988
0.0560656
0.0560323
0.0559989
0.0559655
0.0559319
0.0558983
0.0558647
0.0558309
0.0557971
0.0557632
0.0557292
0.0556951
0.055661
0.0556268
0.0555926
0.0555582
0.0555239
0.0554894
0.0554549
0.0554203
0.0553857
0.055351
0.0553162
0.0552813
0.0552465
0.0552115
0.0551765
0.0551415
0.0551063
0.0550712
0.055036
0.0550007
0.0549654
0.05493
0.0548946
0.0548591
0.0548236
0.054788
0.0547524
0.0547168
0.0546811
0.0546454
0.0546096
0.0545738
0.0545379
0.0545021
0.0544661
0.0544302
0.0543942
0.0543582
0.0543222
0.0542861
0.05425
0.0542139
0.0541777
0.0541415
0.0541053
0.054069
0.0540327
0.0539964
0.0539601
0.0539237
0.0538873
0.053851
0.0538146
0.0537782
0.0537418
0.0537053
0.0536689
0.0536325
0.0535961
0.0535596
0.0535232
0.0534868
0.0534503
0.0534139
0.0533775
0.053341
0.0533046
0.0532682
0.0532318
0.0531954
0.053159
0.0531227
0.0530863
0.05305
0.0530136
0.0529773
0.052941
0.0529048
0.0528685
0.0528323
0.0527961
0.0527599
0.0527237
0.0526876
0.0526515
0.0526154
0.0525794
0.0525433
0.0525073
0.0524714
0.0524355
0.0523996
0.0523637
0.0523279
0.0522921
0.0522564
0.0522206
0.052185
0.0521493
0.0521137
0.0520782
0.0520426
0.0520071
0.0519716
0.0519362
0.0519008
0.0518655
0.0518302
0.0517949
0.0517597
0.0517246
0.0516895
0.0516544
0.0516195
0.0515845
0.0515496
0.0515148
0.05148
0.0514453
0.0514106
0.051376
0.0513415
0.051307
0.0512726
0.0512382
0.0512
0.0511585
0.0511176
0.0510773
0.0510376
0.0509985
0.0509599
0.0509219
0.0508844
0.0508474
0.050811
0.050775
0.0507395
0.0507045
0.05067
0.0506359
0.0506023
0.0505691
0.0505363
0.050504
0.050472
0.0504404
0.0504093
0.0503785
0.0503481
0.050318
0.0502884
0.050259
0.05023
0.0502013
0.050173
0.0501449
0.0501173
0.0500898
0.0500628
0.0500359
0.0500094
0.0499832
0.0499572
0.0499315
0.0499061
0.0498809
0.049856
0.0498313
0.0498069
0.0497827
0.0497588
0.0497351
0.0497116
0.0496884
0.0496654
0.0496425
0.04962
0.0495976
0.0495755
0.0495535
0.0495318
0.0495102
0.0494889
0.0494676
0.0494467
0.0494258
0.0494053
0.0493847
0.0493646
0.0493443
0.0493245
0.0493046
0.0492852
0.0492656
0.0492464
0.0492271
0.0492083
0.0491893
0.0491708
0.049152
0.0491338
0.0491153
0.0490974
0.0490791
0.0490615
0.0490435
0.0490262
0.0490083
0.0489912
0.0489736
0.0489566
0.0489395
0.048922
0.0489063
0.0488863
0.0488759
0.0488462
0.0488525
0.0488122
)
;
    }
    symmetry
    {
        type            symmetryPlane;
    }
    frontAndBack
    {
        type            empty;
    }
}


// ************************************************************************* //
