/*--------------------------------*- C++ -*----------------------------------*\
| =========                 |                                                 |
| \\      /  F ield         | OpenFOAM: The Open Source CFD Toolbox           |
|  \\    /   O peration     | Version:  v2012                                 |
|   \\  /    A nd           | Website:  www.openfoam.com                      |
|    \\/     M anipulation  |                                                 |
\*---------------------------------------------------------------------------*/
FoamFile
{
    version     2.0;
    format      ascii;
    class       volScalarField;
    location    "22.5";
    object      yPlus;
}
// * * * * * * * * * * * * * * * * * * * * * * * * * * * * * * * * * * * * * //

dimensions      [0 0 0 0 0 0 0];


internalField   uniform 0;

boundaryField
{
    inlet
    {
        type            calculated;
        value           uniform 0;
    }
    outlet
    {
        type            calculated;
        value           uniform 0;
    }
    topWall
    {
        type            calculated;
        value           nonuniform List<scalar> 
545
(
0.0704735
0.121525
0.155897
0.183239
0.206374
0.226603
0.244657
0.260996
0.275934
0.289696
0.302452
0.314332
0.32544
0.335861
0.345665
0.354911
0.363648
0.37192
0.379765
0.387215
0.394299
0.401043
0.407469
0.4136
0.419454
0.425047
0.430396
0.435514
0.440416
0.445112
0.449614
0.453932
0.458076
0.462056
0.465878
0.469551
0.473082
0.476479
0.479746
0.482891
0.485919
0.488835
0.491644
0.494352
0.496961
0.499478
0.501905
0.504246
0.506506
0.508686
0.510792
0.512825
0.514789
0.516686
0.518519
0.52029
0.522003
0.523658
0.525259
0.526808
0.528306
0.529755
0.531157
0.532514
0.533828
0.5351
0.536331
0.537524
0.538679
0.539797
0.540881
0.541931
0.542935
0.543906
0.544868
0.545821
0.546766
0.547702
0.54863
0.549549
0.55046
0.551363
0.552259
0.553146
0.554025
0.554897
0.55576
0.556617
0.557465
0.558306
0.55914
0.559967
0.560786
0.561598
0.562403
0.563201
0.563919
0.564561
0.565202
0.565843
0.566482
0.567121
0.56776
0.568398
0.569035
0.569671
0.570307
0.570942
0.571576
0.572209
0.572842
0.573474
0.574105
0.574735
0.575365
0.575994
0.576622
0.57725
0.577876
0.578502
0.579127
0.579751
0.580374
0.580997
0.581618
0.582239
0.582859
0.583478
0.584096
0.584713
0.58533
0.585945
0.58656
0.587173
0.587786
0.588398
0.589009
0.589619
0.590228
0.590836
0.591443
0.592049
0.592654
0.593258
0.593861
0.594463
0.595064
0.595665
0.596264
0.596861
0.597458
0.598054
0.598649
0.599243
0.599835
0.600427
0.601017
0.601607
0.602195
0.602782
0.603368
0.603953
0.604536
0.605119
0.6057
0.60628
0.606859
0.607436
0.608013
0.608588
0.609162
0.609735
0.610306
0.610877
0.611446
0.612013
0.61258
0.613145
0.613709
0.614271
0.614833
0.615392
0.615951
0.616508
0.617064
0.617618
0.618171
0.618723
0.619273
0.619822
0.62037
0.620915
0.62146
0.622003
0.622545
0.623085
0.623624
0.624161
0.624696
0.625231
0.625763
0.626294
0.626824
0.627352
0.627879
0.628403
0.628927
0.629448
0.629969
0.630487
0.631004
0.631519
0.632033
0.632545
0.633055
0.633564
0.634071
0.634576
0.635079
0.635581
0.636081
0.63658
0.637076
0.637571
0.638064
0.638555
0.639045
0.639533
0.640019
0.640503
0.640985
0.641465
0.641944
0.64242
0.642895
0.643368
0.643839
0.644308
0.644775
0.645241
0.645704
0.646165
0.646625
0.647082
0.647538
0.647991
0.648443
0.648892
0.649339
0.649785
0.650228
0.650669
0.651109
0.651546
0.651981
0.652414
0.652844
0.653273
0.6537
0.654124
0.654546
0.654967
0.655384
0.6558
0.656214
0.656625
0.657034
0.657441
0.657846
0.658226
0.658583
0.658941
0.659301
0.659662
0.660024
0.660387
0.660752
0.661117
0.661484
0.661851
0.662219
0.662589
0.662959
0.66333
0.663701
0.664074
0.664447
0.66482
0.665194
0.665569
0.665944
0.666319
0.666694
0.66707
0.667446
0.667822
0.668197
0.668573
0.668949
0.669324
0.669699
0.670074
0.670448
0.670821
0.671194
0.671566
0.671938
0.672308
0.672677
0.673046
0.673413
0.673778
0.674143
0.674505
0.674866
0.675226
0.675583
0.675938
0.676292
0.676643
0.676991
0.677338
0.677681
0.678022
0.67836
0.678695
0.679027
0.679355
0.67968
0.680002
0.68032
0.680633
0.680943
0.681249
0.68155
0.681847
0.682139
0.682426
0.682708
0.682985
0.683257
0.683523
0.683784
0.684038
0.684286
0.684529
0.684764
0.684993
0.685215
0.685431
0.685638
0.685839
0.686032
0.686217
0.686394
0.686562
0.686722
0.686874
0.687016
0.68715
0.687274
0.687388
0.687493
0.687587
0.687672
0.687746
0.687809
0.687862
0.687903
0.687933
0.687951
0.687957
0.687952
0.687934
0.687903
0.68786
0.687804
0.687734
0.687651
0.687554
0.687444
0.687319
0.68718
0.687026
0.686857
0.686674
0.686475
0.68626
0.68603
0.685784
0.685521
0.685243
0.684947
0.684635
0.684306
0.68396
0.683597
0.683215
0.682817
0.6824
0.681965
0.681512
0.68104
0.68055
0.680041
0.679513
0.678966
0.6784
0.677815
0.67721
0.676586
0.675943
0.675279
0.674596
0.673893
0.67317
0.672427
0.671664
0.670881
0.670077
0.669254
0.66841
0.667547
0.666663
0.665759
0.664835
0.663891
0.662927
0.661943
0.66094
0.659916
0.658873
0.657811
0.656729
0.655628
0.654508
0.653369
0.652211
0.651035
0.64984
0.648627
0.647397
0.646148
0.644883
0.6436
0.642301
0.640985
0.639652
0.638305
0.636941
0.635408
0.633713
0.632019
0.630327
0.628639
0.626954
0.625275
0.6236
0.621932
0.620271
0.618618
0.616972
0.615336
0.613709
0.612092
0.610485
0.60889
0.607305
0.605733
0.604173
0.602626
0.601092
0.599572
0.598065
0.596573
0.595095
0.593633
0.592185
0.590753
0.589337
0.587936
0.586553
0.585185
0.583835
0.582501
0.581185
0.579886
0.578605
0.577342
0.576097
0.57487
0.573662
0.572473
0.571302
0.57015
0.569018
0.567905
0.566812
0.565738
0.564684
0.56365
0.562637
0.561643
0.560671
0.559719
0.558788
0.557877
0.556988
0.556121
0.555274
0.55445
0.553647
0.552865
0.552106
0.551369
0.550654
0.549962
0.549292
0.548645
0.548021
0.547419
0.546841
0.546286
0.545754
0.545245
0.54476
0.544299
0.543861
0.543447
0.543057
0.542691
0.542349
0.542031
0.541738
0.541468
0.541223
0.541003
0.540807
0.540635
0.540488
0.540366
0.540268
0.540194
0.540149
0.540113
)
;
    }
    bottomWall
    {
        type            calculated;
        value           nonuniform List<scalar> 
449
(
0.139501
0.0889887
0.0758338
0.0694595
0.0652747
0.0621471
0.0596512
0.0575869
0.0558352
0.0543185
0.0529843
0.0517962
0.0507278
0.0497589
0.0488738
0.0480603
0.0473085
0.0466104
0.0459594
0.04535
0.0447776
0.0442384
0.0437289
0.0432464
0.0427883
0.0423525
0.041937
0.0415403
0.0411607
0.0407971
0.0404482
0.0401129
0.0397903
0.0394797
0.03918
0.0388908
0.0386114
0.038341
0.0380793
0.0378258
0.0375799
0.0373413
0.0371095
0.0368843
0.0366653
0.0364521
0.0362446
0.0360424
0.0358453
0.035653
0.0354654
0.0352823
0.0351034
0.0349285
0.0347576
0.0345904
0.0344269
0.0342667
0.03411
0.0339564
0.0338059
0.0336583
0.0335137
0.0333718
0.0332325
0.0330959
0.0329617
0.03283
0.0327005
0.0325733
0.0324484
0.0323255
0.0322047
0.0320858
0.0319689
0.0318539
0.0317406
0.0316292
0.0315194
0.0314113
0.0313049
0.0312
0.0310966
0.0309947
0.0308943
0.0307953
0.0306977
0.0306014
0.0305064
0.0304127
0.0303203
0.030229
0.030139
0.03005
0.0299623
0.0298756
0.02979
0.0297055
0.029622
0.0295395
0.0294579
0.0293774
0.0292977
0.0292191
0.0291413
0.0290643
0.0289883
0.0289131
0.0288387
0.0287651
0.0286924
0.0286204
0.0285491
0.0284787
0.0284089
0.0283399
0.0282716
0.028204
0.028137
0.0280707
0.0280051
0.0279401
0.0278758
0.0278121
0.0277489
0.0276864
0.0276245
0.0275631
0.0275023
0.0274421
0.0273824
0.0273233
0.0272647
0.0272066
0.027149
0.0270919
0.0270354
0.0269793
0.0269237
0.0268685
0.0268138
0.0267596
0.0267059
0.0266525
0.0265997
0.0265472
0.0264952
0.0264436
0.0263924
0.0263416
0.0262912
0.0262411
0.0261915
0.0261423
0.0260934
0.0260449
0.0259968
0.0259491
0.0259016
0.0258546
0.0258079
0.0257615
0.0257155
0.0256698
0.0256244
0.0255793
0.0255346
0.0254902
0.0254461
0.0254023
0.0253588
0.0253155
0.0252727
0.0252325
0.0251947
0.0251567
0.0251187
0.0250806
0.0250424
0.0250041
0.0249657
0.0249272
0.0248886
0.02485
0.0248112
0.0247724
0.0247334
0.0246944
0.0246553
0.0246161
0.0245769
0.0245375
0.0244981
0.0244586
0.024419
0.0243793
0.0243395
0.0242997
0.0242598
0.0242199
0.0241798
0.0241397
0.0240995
0.0240593
0.024019
0.0239786
0.0239382
0.0238977
0.0238571
0.0238165
0.0237758
0.0237351
0.0236943
0.0236535
0.0236126
0.0235717
0.0235307
0.0234897
0.0234486
0.0234075
0.0233663
0.0233251
0.0232838
0.0232425
0.0232012
0.0231599
0.0231185
0.023077
0.0230356
0.0229941
0.0229525
0.022911
0.0228694
0.0228278
0.0227862
0.0227445
0.0227028
0.0226611
0.0226194
0.0225777
0.0225359
0.0224942
0.0224524
0.0224106
0.0223688
0.022327
0.0222852
0.0222434
0.0222016
0.0221597
0.0221179
0.0220761
0.0220342
0.0219924
0.0219506
0.0219088
0.0218669
0.0218251
0.0217833
0.0217415
0.0216997
0.021658
0.0216162
0.0215744
0.0215327
0.021491
0.0214493
0.0214076
0.021366
0.0213243
0.0212827
0.0212411
0.0211995
0.021158
0.0211165
0.021075
0.0210336
0.0209921
0.0209507
0.0209094
0.020868
0.0208268
0.0207855
0.0207443
0.0207031
0.020662
0.0206209
0.0205798
0.0205388
0.0204978
0.0204569
0.020416
0.0203752
0.0203344
0.0202937
0.020253
0.0202124
0.0201718
0.0201312
0.0200908
0.0200503
0.02001
0.0199697
0.0199294
0.0198892
0.0198491
0.019809
0.019769
0.019729
0.0196892
0.0196493
0.0196096
0.0195699
0.0195303
0.0194907
0.0194512
0.0194118
0.0193724
0.0193331
0.0192939
0.0192548
0.0192157
0.0191767
0.0191378
0.0190989
0.0190602
0.0190215
0.0189829
0.0189443
0.0189058
0.0188675
0.0188292
0.0187909
0.0187528
0.0187147
0.0186767
0.0186388
0.018601
0.0185633
0.0185257
0.0184881
0.0184506
0.0184132
0.0183759
0.0183387
0.0183016
0.0182646
0.0182276
0.0181907
0.018154
0.0181173
0.0180807
0.0180442
0.0180078
0.0179673
0.0179234
0.0178801
0.0178375
0.0177956
0.0177542
0.0177136
0.0176735
0.017634
0.0175952
0.0175569
0.0175192
0.017482
0.0174454
0.0174093
0.0173737
0.0173386
0.017304
0.0172699
0.0172363
0.0172031
0.0171703
0.017138
0.0171061
0.0170746
0.0170435
0.0170128
0.0169825
0.0169526
0.0169231
0.0168939
0.0168651
0.0168366
0.0168085
0.0167807
0.0167533
0.0167262
0.0166994
0.0166729
0.0166467
0.0166208
0.0165951
0.0165698
0.0165448
0.01652
0.0164955
0.0164713
0.0164474
0.0164237
0.0164002
0.016377
0.0163541
0.0163313
0.0163089
0.0162866
0.0162646
0.0162428
0.0162212
0.0161998
0.0161787
0.0161577
0.016137
0.0161164
0.0160961
0.016076
0.016056
0.0160362
0.0160166
0.0159972
0.015978
0.015959
0.0159401
0.0159214
0.0159028
0.0158845
0.0158663
0.0158482
0.0158303
0.0158126
0.015795
0.0157775
0.0157602
0.015743
0.015726
0.015709
0.0156922
0.0156755
0.0156589
0.0156424
0.0156258
0.0156096
0.0155938
0.0155675
0.0155825
0.0155358
)
;
    }
    symmetry
    {
        type            symmetryPlane;
    }
    frontAndBack
    {
        type            empty;
    }
}


// ************************************************************************* //
