/*--------------------------------*- C++ -*----------------------------------*\
| =========                 |                                                 |
| \\      /  F ield         | OpenFOAM: The Open Source CFD Toolbox           |
|  \\    /   O peration     | Version:  v2012                                 |
|   \\  /    A nd           | Website:  www.openfoam.com                      |
|    \\/     M anipulation  |                                                 |
\*---------------------------------------------------------------------------*/
FoamFile
{
    version     2.0;
    format      ascii;
    class       volScalarField;
    location    "8.5";
    object      nut;
}
// * * * * * * * * * * * * * * * * * * * * * * * * * * * * * * * * * * * * * //

dimensions      [0 2 -1 0 0 0 0];


internalField   nonuniform List<scalar> 
209825
(
1.20513e-07
1.144e-07
1.11101e-07
1.09129e-07
1.078e-07
1.06853e-07
1.06133e-07
1.05583e-07
1.05135e-07
1.04782e-07
1.04478e-07
1.04237e-07
1.0402e-07
1.03844e-07
1.03689e-07
1.03563e-07
1.03444e-07
1.03349e-07
1.03255e-07
1.03183e-07
1.03107e-07
1.0305e-07
1.02994e-07
1.02954e-07
1.02906e-07
1.02876e-07
1.02842e-07
1.02821e-07
1.02787e-07
1.02778e-07
1.0277e-07
1.02758e-07
1.02744e-07
1.02731e-07
1.02712e-07
1.02705e-07
1.02701e-07
1.02691e-07
1.02685e-07
1.02674e-07
1.02658e-07
1.0265e-07
1.02646e-07
1.02636e-07
1.02627e-07
1.02617e-07
1.02611e-07
1.02591e-07
1.02592e-07
1.02586e-07
1.02577e-07
1.02581e-07
1.02581e-07
1.02581e-07
1.0257e-07
1.02593e-07
1.02579e-07
1.02575e-07
1.02565e-07
1.02583e-07
1.02582e-07
1.02581e-07
1.02604e-07
1.02629e-07
1.02629e-07
1.02629e-07
1.02651e-07
1.02683e-07
1.02683e-07
1.02662e-07
1.02694e-07
1.02746e-07
1.02778e-07
1.02821e-07
1.02834e-07
1.02809e-07
1.02838e-07
1.0288e-07
1.0293e-07
1.02984e-07
1.03039e-07
1.0308e-07
1.03109e-07
1.03159e-07
1.03242e-07
1.03326e-07
1.03423e-07
1.03545e-07
1.03677e-07
1.03864e-07
1.03997e-07
1.04505e-07
1.0456e-07
1.05843e-07
3.40819e-07
5.42295e-10
1.20513e-07
1.14401e-07
1.11102e-07
1.09129e-07
1.078e-07
1.06852e-07
1.06132e-07
1.05581e-07
1.05133e-07
1.0478e-07
1.04476e-07
1.04235e-07
1.04018e-07
1.03842e-07
1.03687e-07
1.0356e-07
1.03441e-07
1.03346e-07
1.03252e-07
1.0318e-07
1.03104e-07
1.03047e-07
1.02991e-07
1.0295e-07
1.02903e-07
1.02873e-07
1.02839e-07
1.02818e-07
1.02784e-07
1.02775e-07
1.02767e-07
1.02755e-07
1.02741e-07
1.02728e-07
1.02709e-07
1.02702e-07
1.02698e-07
1.02688e-07
1.02681e-07
1.0267e-07
1.02654e-07
1.02646e-07
1.02642e-07
1.02632e-07
1.02623e-07
1.02613e-07
1.02608e-07
1.02587e-07
1.02588e-07
1.02582e-07
1.02573e-07
1.02577e-07
1.02577e-07
1.02577e-07
1.02566e-07
1.02589e-07
1.02575e-07
1.02571e-07
1.02562e-07
1.02579e-07
1.02578e-07
1.02578e-07
1.02601e-07
1.02625e-07
1.02625e-07
1.02625e-07
1.02647e-07
1.02679e-07
1.02679e-07
1.02658e-07
1.02691e-07
1.02742e-07
1.02774e-07
1.02817e-07
1.02831e-07
1.02806e-07
1.02834e-07
1.02876e-07
1.02927e-07
1.0298e-07
1.03035e-07
1.03076e-07
1.03105e-07
1.03156e-07
1.03238e-07
1.03322e-07
1.03419e-07
1.03541e-07
1.03673e-07
1.0386e-07
1.03994e-07
1.04502e-07
1.04557e-07
1.05842e-07
3.41112e-07
5.53662e-10
1.20518e-07
1.14405e-07
1.11104e-07
1.09129e-07
1.07798e-07
1.06849e-07
1.06127e-07
1.05576e-07
1.05127e-07
1.04773e-07
1.04469e-07
1.04227e-07
1.04009e-07
1.03832e-07
1.03677e-07
1.0355e-07
1.03431e-07
1.03336e-07
1.03241e-07
1.03168e-07
1.03092e-07
1.03036e-07
1.02979e-07
1.02939e-07
1.02891e-07
1.02861e-07
1.02827e-07
1.02806e-07
1.02771e-07
1.02763e-07
1.02754e-07
1.02742e-07
1.02728e-07
1.02715e-07
1.02696e-07
1.02689e-07
1.02685e-07
1.02675e-07
1.02668e-07
1.02657e-07
1.02641e-07
1.02633e-07
1.02629e-07
1.02619e-07
1.0261e-07
1.026e-07
1.02594e-07
1.02574e-07
1.02575e-07
1.02569e-07
1.0256e-07
1.02564e-07
1.02564e-07
1.02564e-07
1.02553e-07
1.02576e-07
1.02562e-07
1.02557e-07
1.02548e-07
1.02565e-07
1.02564e-07
1.02564e-07
1.02587e-07
1.02612e-07
1.02612e-07
1.02612e-07
1.02633e-07
1.02666e-07
1.02666e-07
1.02645e-07
1.02677e-07
1.02729e-07
1.02761e-07
1.02803e-07
1.02817e-07
1.02792e-07
1.02821e-07
1.02863e-07
1.02913e-07
1.02967e-07
1.03022e-07
1.03063e-07
1.03092e-07
1.03142e-07
1.03225e-07
1.03309e-07
1.03406e-07
1.03528e-07
1.0366e-07
1.03847e-07
1.0398e-07
1.04488e-07
1.04543e-07
1.05832e-07
3.41912e-07
5.70905e-10
1.20525e-07
1.14413e-07
1.11107e-07
1.09129e-07
1.07795e-07
1.06844e-07
1.0612e-07
1.05566e-07
1.05116e-07
1.04761e-07
1.04456e-07
1.04213e-07
1.03994e-07
1.03817e-07
1.03661e-07
1.03534e-07
1.03414e-07
1.03318e-07
1.03223e-07
1.0315e-07
1.03074e-07
1.03017e-07
1.0296e-07
1.02919e-07
1.02871e-07
1.02841e-07
1.02806e-07
1.02785e-07
1.02751e-07
1.02742e-07
1.02734e-07
1.02721e-07
1.02707e-07
1.02694e-07
1.02675e-07
1.02668e-07
1.02663e-07
1.02653e-07
1.02646e-07
1.02636e-07
1.0262e-07
1.02611e-07
1.02607e-07
1.02597e-07
1.02588e-07
1.02578e-07
1.02572e-07
1.02552e-07
1.02553e-07
1.02547e-07
1.02537e-07
1.02542e-07
1.02542e-07
1.02541e-07
1.0253e-07
1.02553e-07
1.02539e-07
1.02535e-07
1.02526e-07
1.02543e-07
1.02542e-07
1.02541e-07
1.02565e-07
1.02589e-07
1.02589e-07
1.02589e-07
1.02611e-07
1.02643e-07
1.02643e-07
1.02622e-07
1.02654e-07
1.02706e-07
1.02738e-07
1.02781e-07
1.02795e-07
1.0277e-07
1.02798e-07
1.0284e-07
1.02891e-07
1.02944e-07
1.02999e-07
1.0304e-07
1.03069e-07
1.0312e-07
1.03202e-07
1.03286e-07
1.03384e-07
1.03506e-07
1.03638e-07
1.03825e-07
1.03959e-07
1.04466e-07
1.04521e-07
1.05814e-07
3.4321e-07
5.92494e-10
1.20536e-07
1.14423e-07
1.11113e-07
1.0913e-07
1.07791e-07
1.06836e-07
1.0611e-07
1.05554e-07
1.05101e-07
1.04744e-07
1.04437e-07
1.04193e-07
1.03973e-07
1.03795e-07
1.03638e-07
1.0351e-07
1.0339e-07
1.03293e-07
1.03198e-07
1.03124e-07
1.03047e-07
1.0299e-07
1.02933e-07
1.02892e-07
1.02843e-07
1.02813e-07
1.02778e-07
1.02757e-07
1.02722e-07
1.02713e-07
1.02704e-07
1.02692e-07
1.02677e-07
1.02664e-07
1.02645e-07
1.02638e-07
1.02633e-07
1.02623e-07
1.02616e-07
1.02605e-07
1.02589e-07
1.02581e-07
1.02577e-07
1.02566e-07
1.02557e-07
1.02547e-07
1.02542e-07
1.02521e-07
1.02522e-07
1.02516e-07
1.02506e-07
1.0251e-07
1.0251e-07
1.0251e-07
1.02499e-07
1.02522e-07
1.02508e-07
1.02503e-07
1.02494e-07
1.02511e-07
1.0251e-07
1.0251e-07
1.02533e-07
1.02558e-07
1.02558e-07
1.02558e-07
1.02579e-07
1.02612e-07
1.02612e-07
1.0259e-07
1.02622e-07
1.02674e-07
1.02706e-07
1.02749e-07
1.02763e-07
1.02738e-07
1.02767e-07
1.02809e-07
1.02859e-07
1.02913e-07
1.02968e-07
1.03009e-07
1.03038e-07
1.03089e-07
1.03171e-07
1.03255e-07
1.03352e-07
1.03475e-07
1.03607e-07
1.03794e-07
1.03928e-07
1.04435e-07
1.0449e-07
1.05788e-07
3.45026e-07
6.17839e-10
1.2055e-07
1.14437e-07
1.1112e-07
1.0913e-07
1.07786e-07
1.06827e-07
1.06096e-07
1.05537e-07
1.05082e-07
1.04723e-07
1.04414e-07
1.04168e-07
1.03947e-07
1.03767e-07
1.03609e-07
1.0348e-07
1.03359e-07
1.03262e-07
1.03165e-07
1.03091e-07
1.03014e-07
1.02956e-07
1.02898e-07
1.02856e-07
1.02808e-07
1.02776e-07
1.02742e-07
1.0272e-07
1.02685e-07
1.02676e-07
1.02667e-07
1.02654e-07
1.02639e-07
1.02626e-07
1.02606e-07
1.02599e-07
1.02594e-07
1.02584e-07
1.02577e-07
1.02566e-07
1.0255e-07
1.02541e-07
1.02537e-07
1.02527e-07
1.02518e-07
1.02507e-07
1.02502e-07
1.02481e-07
1.02482e-07
1.02476e-07
1.02466e-07
1.0247e-07
1.0247e-07
1.0247e-07
1.02458e-07
1.02481e-07
1.02467e-07
1.02463e-07
1.02453e-07
1.0247e-07
1.0247e-07
1.02469e-07
1.02492e-07
1.02517e-07
1.02517e-07
1.02517e-07
1.02538e-07
1.02571e-07
1.02571e-07
1.02549e-07
1.02581e-07
1.02633e-07
1.02665e-07
1.02708e-07
1.02723e-07
1.02698e-07
1.02726e-07
1.02768e-07
1.02818e-07
1.02872e-07
1.02927e-07
1.02968e-07
1.02998e-07
1.03048e-07
1.03131e-07
1.03215e-07
1.03312e-07
1.03435e-07
1.03566e-07
1.03754e-07
1.03887e-07
1.04394e-07
1.04449e-07
1.05755e-07
3.47385e-07
6.46682e-10
1.20567e-07
1.14454e-07
1.11129e-07
1.09131e-07
1.0778e-07
1.06815e-07
1.0608e-07
1.05517e-07
1.05059e-07
1.04697e-07
1.04385e-07
1.04137e-07
1.03914e-07
1.03733e-07
1.03573e-07
1.03443e-07
1.0332e-07
1.03222e-07
1.03125e-07
1.0305e-07
1.02972e-07
1.02913e-07
1.02855e-07
1.02813e-07
1.02763e-07
1.02732e-07
1.02697e-07
1.02674e-07
1.02639e-07
1.02629e-07
1.0262e-07
1.02607e-07
1.02592e-07
1.02579e-07
1.02559e-07
1.02551e-07
1.02547e-07
1.02536e-07
1.02529e-07
1.02518e-07
1.02502e-07
1.02493e-07
1.02488e-07
1.02478e-07
1.02469e-07
1.02458e-07
1.02453e-07
1.02432e-07
1.02433e-07
1.02426e-07
1.02416e-07
1.0242e-07
1.0242e-07
1.0242e-07
1.02408e-07
1.02431e-07
1.02417e-07
1.02412e-07
1.02403e-07
1.0242e-07
1.02419e-07
1.02419e-07
1.02442e-07
1.02466e-07
1.02466e-07
1.02466e-07
1.02487e-07
1.0252e-07
1.0252e-07
1.02499e-07
1.0253e-07
1.02583e-07
1.02615e-07
1.02657e-07
1.02673e-07
1.02648e-07
1.02676e-07
1.02718e-07
1.02768e-07
1.02821e-07
1.02877e-07
1.02918e-07
1.02948e-07
1.02998e-07
1.03081e-07
1.03165e-07
1.03262e-07
1.03385e-07
1.03516e-07
1.03705e-07
1.03838e-07
1.04344e-07
1.04399e-07
1.05714e-07
3.50312e-07
6.78948e-10
1.20587e-07
1.14474e-07
1.11139e-07
1.09132e-07
1.07773e-07
1.06801e-07
1.06061e-07
1.05493e-07
1.05031e-07
1.04665e-07
1.04351e-07
1.04101e-07
1.03875e-07
1.03692e-07
1.03531e-07
1.03399e-07
1.03275e-07
1.03176e-07
1.03077e-07
1.03001e-07
1.02922e-07
1.02863e-07
1.02804e-07
1.02761e-07
1.02711e-07
1.02679e-07
1.02643e-07
1.0262e-07
1.02585e-07
1.02574e-07
1.02565e-07
1.02551e-07
1.02536e-07
1.02522e-07
1.02502e-07
1.02495e-07
1.02489e-07
1.02479e-07
1.02471e-07
1.0246e-07
1.02444e-07
1.02435e-07
1.0243e-07
1.0242e-07
1.0241e-07
1.024e-07
1.02394e-07
1.02374e-07
1.02374e-07
1.02367e-07
1.02357e-07
1.02361e-07
1.02361e-07
1.0236e-07
1.02349e-07
1.02372e-07
1.02357e-07
1.02352e-07
1.02343e-07
1.0236e-07
1.02359e-07
1.02359e-07
1.02382e-07
1.02406e-07
1.02406e-07
1.02406e-07
1.02427e-07
1.0246e-07
1.0246e-07
1.02439e-07
1.0247e-07
1.02522e-07
1.02555e-07
1.02597e-07
1.02613e-07
1.02588e-07
1.02616e-07
1.02658e-07
1.02708e-07
1.02761e-07
1.02817e-07
1.02859e-07
1.02888e-07
1.02939e-07
1.03021e-07
1.03106e-07
1.03202e-07
1.03326e-07
1.03457e-07
1.03646e-07
1.03779e-07
1.04284e-07
1.04339e-07
1.05665e-07
3.53832e-07
7.14695e-10
1.20611e-07
1.14498e-07
1.11152e-07
1.09133e-07
1.07765e-07
1.06786e-07
1.06039e-07
1.05465e-07
1.04998e-07
1.04629e-07
1.04311e-07
1.04058e-07
1.0383e-07
1.03645e-07
1.03481e-07
1.03348e-07
1.03222e-07
1.03121e-07
1.03022e-07
1.02945e-07
1.02865e-07
1.02804e-07
1.02744e-07
1.02701e-07
1.0265e-07
1.02617e-07
1.0258e-07
1.02557e-07
1.02521e-07
1.0251e-07
1.025e-07
1.02487e-07
1.02471e-07
1.02457e-07
1.02436e-07
1.02428e-07
1.02423e-07
1.02412e-07
1.02405e-07
1.02393e-07
1.02377e-07
1.02368e-07
1.02363e-07
1.02352e-07
1.02343e-07
1.02332e-07
1.02326e-07
1.02306e-07
1.02305e-07
1.02299e-07
1.02288e-07
1.02292e-07
1.02291e-07
1.02291e-07
1.0228e-07
1.02303e-07
1.02288e-07
1.02283e-07
1.02273e-07
1.0229e-07
1.02289e-07
1.02289e-07
1.02312e-07
1.02336e-07
1.02336e-07
1.02336e-07
1.02357e-07
1.0239e-07
1.0239e-07
1.02368e-07
1.02399e-07
1.02452e-07
1.02484e-07
1.02527e-07
1.02543e-07
1.02518e-07
1.02546e-07
1.02588e-07
1.02638e-07
1.02691e-07
1.02747e-07
1.02789e-07
1.02819e-07
1.0287e-07
1.02952e-07
1.03037e-07
1.03133e-07
1.03257e-07
1.03387e-07
1.03577e-07
1.0371e-07
1.04214e-07
1.04269e-07
1.05608e-07
3.57967e-07
7.54094e-10
1.20637e-07
1.14525e-07
1.11166e-07
1.09135e-07
1.07756e-07
1.06768e-07
1.06013e-07
1.05434e-07
1.04962e-07
1.04588e-07
1.04266e-07
1.04009e-07
1.03778e-07
1.0359e-07
1.03425e-07
1.03289e-07
1.03162e-07
1.03059e-07
1.02958e-07
1.0288e-07
1.02799e-07
1.02737e-07
1.02676e-07
1.02631e-07
1.0258e-07
1.02546e-07
1.02509e-07
1.02485e-07
1.02449e-07
1.02437e-07
1.02426e-07
1.02412e-07
1.02396e-07
1.02382e-07
1.02361e-07
1.02353e-07
1.02347e-07
1.02336e-07
1.02328e-07
1.02317e-07
1.023e-07
1.0229e-07
1.02285e-07
1.02275e-07
1.02265e-07
1.02254e-07
1.02248e-07
1.02228e-07
1.02227e-07
1.0222e-07
1.0221e-07
1.02212e-07
1.02212e-07
1.02212e-07
1.022e-07
1.02223e-07
1.02208e-07
1.02203e-07
1.02193e-07
1.02211e-07
1.0221e-07
1.02209e-07
1.02232e-07
1.02256e-07
1.02256e-07
1.02256e-07
1.02277e-07
1.0231e-07
1.0231e-07
1.02288e-07
1.02319e-07
1.02371e-07
1.02404e-07
1.02446e-07
1.02463e-07
1.02439e-07
1.02466e-07
1.02508e-07
1.02558e-07
1.02611e-07
1.02667e-07
1.02709e-07
1.0274e-07
1.0279e-07
1.02872e-07
1.02957e-07
1.03054e-07
1.03178e-07
1.03308e-07
1.03498e-07
1.03631e-07
1.04133e-07
1.04189e-07
1.05542e-07
3.62742e-07
7.97398e-10
1.20667e-07
1.14556e-07
1.11182e-07
1.09137e-07
1.07747e-07
1.06748e-07
1.05985e-07
1.05398e-07
1.0492e-07
1.04541e-07
1.04215e-07
1.03955e-07
1.0372e-07
1.03529e-07
1.03361e-07
1.03223e-07
1.03094e-07
1.0299e-07
1.02887e-07
1.02807e-07
1.02724e-07
1.02661e-07
1.02599e-07
1.02554e-07
1.02501e-07
1.02467e-07
1.02429e-07
1.02404e-07
1.02367e-07
1.02355e-07
1.02343e-07
1.02329e-07
1.02312e-07
1.02297e-07
1.02276e-07
1.02267e-07
1.02262e-07
1.0225e-07
1.02242e-07
1.0223e-07
1.02213e-07
1.02203e-07
1.02198e-07
1.02187e-07
1.02177e-07
1.02166e-07
1.0216e-07
1.0214e-07
1.02139e-07
1.02132e-07
1.02121e-07
1.02123e-07
1.02123e-07
1.02123e-07
1.02111e-07
1.02134e-07
1.02119e-07
1.02113e-07
1.02103e-07
1.0212e-07
1.02119e-07
1.02119e-07
1.02141e-07
1.02165e-07
1.02165e-07
1.02165e-07
1.02186e-07
1.0222e-07
1.0222e-07
1.02198e-07
1.02227e-07
1.02281e-07
1.02314e-07
1.02355e-07
1.02373e-07
1.02349e-07
1.02376e-07
1.02418e-07
1.02467e-07
1.02521e-07
1.02577e-07
1.02619e-07
1.0265e-07
1.02701e-07
1.02782e-07
1.02868e-07
1.02964e-07
1.03088e-07
1.03218e-07
1.03409e-07
1.03542e-07
1.04043e-07
1.04098e-07
1.05469e-07
3.68177e-07
8.44963e-10
1.207e-07
1.14591e-07
1.11201e-07
1.0914e-07
1.07736e-07
1.06726e-07
1.05954e-07
1.05359e-07
1.04874e-07
1.0449e-07
1.04158e-07
1.03894e-07
1.03656e-07
1.03462e-07
1.0329e-07
1.0315e-07
1.03018e-07
1.02912e-07
1.02807e-07
1.02725e-07
1.02641e-07
1.02577e-07
1.02514e-07
1.02467e-07
1.02413e-07
1.02378e-07
1.02339e-07
1.02314e-07
1.02276e-07
1.02263e-07
1.0225e-07
1.02235e-07
1.02218e-07
1.02203e-07
1.02181e-07
1.02172e-07
1.02166e-07
1.02154e-07
1.02145e-07
1.02134e-07
1.02116e-07
1.02106e-07
1.02101e-07
1.0209e-07
1.0208e-07
1.02068e-07
1.02062e-07
1.02041e-07
1.02041e-07
1.02033e-07
1.02022e-07
1.02024e-07
1.02024e-07
1.02023e-07
1.02011e-07
1.02034e-07
1.02019e-07
1.02012e-07
1.02002e-07
1.0202e-07
1.02019e-07
1.02018e-07
1.0204e-07
1.02064e-07
1.02064e-07
1.02064e-07
1.02085e-07
1.02119e-07
1.02119e-07
1.02097e-07
1.02126e-07
1.02179e-07
1.02212e-07
1.02254e-07
1.02273e-07
1.02249e-07
1.02275e-07
1.02317e-07
1.02366e-07
1.0242e-07
1.02476e-07
1.02519e-07
1.0255e-07
1.02601e-07
1.02682e-07
1.02768e-07
1.02864e-07
1.02988e-07
1.03118e-07
1.03309e-07
1.03442e-07
1.03941e-07
1.03997e-07
1.05386e-07
3.74291e-07
8.9722e-10
1.20736e-07
1.14629e-07
1.11222e-07
1.09144e-07
1.07725e-07
1.06703e-07
1.0592e-07
1.05316e-07
1.04824e-07
1.04433e-07
1.04096e-07
1.03827e-07
1.03584e-07
1.03387e-07
1.03212e-07
1.03069e-07
1.02934e-07
1.02826e-07
1.02719e-07
1.02636e-07
1.0255e-07
1.02484e-07
1.02419e-07
1.02371e-07
1.02316e-07
1.0228e-07
1.0224e-07
1.02213e-07
1.02175e-07
1.02161e-07
1.02148e-07
1.02132e-07
1.02115e-07
1.02099e-07
1.02077e-07
1.02067e-07
1.0206e-07
1.02048e-07
1.02039e-07
1.02027e-07
1.02009e-07
1.01999e-07
1.01993e-07
1.01982e-07
1.01972e-07
1.0196e-07
1.01954e-07
1.01933e-07
1.01932e-07
1.01924e-07
1.01912e-07
1.01914e-07
1.01914e-07
1.01913e-07
1.01901e-07
1.01923e-07
1.01908e-07
1.01901e-07
1.01891e-07
1.01908e-07
1.01908e-07
1.01907e-07
1.01929e-07
1.01952e-07
1.01952e-07
1.01952e-07
1.01973e-07
1.02007e-07
1.02007e-07
1.01985e-07
1.02013e-07
1.02067e-07
1.02101e-07
1.02142e-07
1.02161e-07
1.02138e-07
1.02164e-07
1.02205e-07
1.02254e-07
1.02308e-07
1.02364e-07
1.02408e-07
1.02439e-07
1.0249e-07
1.02571e-07
1.02657e-07
1.02753e-07
1.02878e-07
1.03006e-07
1.03199e-07
1.03332e-07
1.03829e-07
1.03884e-07
1.05295e-07
3.81099e-07
9.5468e-10
1.20775e-07
1.1467e-07
1.11245e-07
1.09148e-07
1.07713e-07
1.06677e-07
1.05883e-07
1.0527e-07
1.04769e-07
1.04371e-07
1.04028e-07
1.03753e-07
1.03507e-07
1.03305e-07
1.03127e-07
1.0298e-07
1.02843e-07
1.02732e-07
1.02623e-07
1.02537e-07
1.02449e-07
1.02382e-07
1.02316e-07
1.02266e-07
1.0221e-07
1.02172e-07
1.02131e-07
1.02104e-07
1.02064e-07
1.02049e-07
1.02035e-07
1.02019e-07
1.02001e-07
1.01985e-07
1.01962e-07
1.01952e-07
1.01944e-07
1.01932e-07
1.01922e-07
1.0191e-07
1.01892e-07
1.01881e-07
1.01875e-07
1.01864e-07
1.01853e-07
1.01841e-07
1.01835e-07
1.01814e-07
1.01812e-07
1.01804e-07
1.01792e-07
1.01793e-07
1.01793e-07
1.01792e-07
1.01779e-07
1.01802e-07
1.01786e-07
1.01779e-07
1.01769e-07
1.01786e-07
1.01785e-07
1.01785e-07
1.01807e-07
1.0183e-07
1.0183e-07
1.0183e-07
1.0185e-07
1.01885e-07
1.01885e-07
1.01862e-07
1.0189e-07
1.01944e-07
1.01978e-07
1.02019e-07
1.02039e-07
1.02016e-07
1.02041e-07
1.02083e-07
1.02132e-07
1.02186e-07
1.02241e-07
1.02286e-07
1.02317e-07
1.02369e-07
1.02449e-07
1.02536e-07
1.02631e-07
1.02756e-07
1.02884e-07
1.03078e-07
1.03211e-07
1.03706e-07
1.03761e-07
1.05195e-07
3.88613e-07
1.01793e-09
1.20817e-07
1.14716e-07
1.1127e-07
1.09153e-07
1.077e-07
1.06649e-07
1.05843e-07
1.05219e-07
1.04709e-07
1.04304e-07
1.03954e-07
1.03674e-07
1.03422e-07
1.03216e-07
1.03034e-07
1.02884e-07
1.02743e-07
1.02629e-07
1.02518e-07
1.0243e-07
1.0234e-07
1.02271e-07
1.02203e-07
1.02152e-07
1.02094e-07
1.02055e-07
1.02013e-07
1.01984e-07
1.01944e-07
1.01928e-07
1.01913e-07
1.01896e-07
1.01877e-07
1.0186e-07
1.01836e-07
1.01826e-07
1.01818e-07
1.01805e-07
1.01795e-07
1.01782e-07
1.01764e-07
1.01753e-07
1.01746e-07
1.01735e-07
1.01724e-07
1.01711e-07
1.01705e-07
1.01684e-07
1.01682e-07
1.01674e-07
1.01661e-07
1.01661e-07
1.01661e-07
1.01661e-07
1.01647e-07
1.0167e-07
1.01654e-07
1.01647e-07
1.01636e-07
1.01653e-07
1.01652e-07
1.01652e-07
1.01673e-07
1.01696e-07
1.01696e-07
1.01696e-07
1.01716e-07
1.01751e-07
1.01751e-07
1.01728e-07
1.01755e-07
1.0181e-07
1.01844e-07
1.01884e-07
1.01906e-07
1.01883e-07
1.01908e-07
1.01949e-07
1.01998e-07
1.02052e-07
1.02108e-07
1.02153e-07
1.02185e-07
1.02236e-07
1.02316e-07
1.02403e-07
1.02498e-07
1.02624e-07
1.02751e-07
1.02946e-07
1.03078e-07
1.03571e-07
1.03625e-07
1.05085e-07
3.96837e-07
1.08764e-09
1.20863e-07
1.14765e-07
1.11298e-07
1.09159e-07
1.07687e-07
1.0662e-07
1.058e-07
1.05165e-07
1.04645e-07
1.04231e-07
1.03875e-07
1.03588e-07
1.03331e-07
1.0312e-07
1.02933e-07
1.0278e-07
1.02636e-07
1.02519e-07
1.02405e-07
1.02314e-07
1.02222e-07
1.02151e-07
1.02081e-07
1.02028e-07
1.01969e-07
1.01928e-07
1.01884e-07
1.01855e-07
1.01813e-07
1.01796e-07
1.0178e-07
1.01762e-07
1.01743e-07
1.01725e-07
1.01701e-07
1.0169e-07
1.01681e-07
1.01668e-07
1.01657e-07
1.01644e-07
1.01625e-07
1.01614e-07
1.01607e-07
1.01595e-07
1.01584e-07
1.01571e-07
1.01564e-07
1.01543e-07
1.01541e-07
1.01532e-07
1.01519e-07
1.01519e-07
1.01518e-07
1.01518e-07
1.01504e-07
1.01526e-07
1.0151e-07
1.01503e-07
1.01492e-07
1.01508e-07
1.01508e-07
1.01507e-07
1.01529e-07
1.01551e-07
1.01551e-07
1.01551e-07
1.01571e-07
1.01606e-07
1.01606e-07
1.01583e-07
1.01609e-07
1.01664e-07
1.01698e-07
1.01739e-07
1.01761e-07
1.01739e-07
1.01763e-07
1.01805e-07
1.01853e-07
1.01907e-07
1.01963e-07
1.02008e-07
1.02041e-07
1.02092e-07
1.02172e-07
1.02259e-07
1.02354e-07
1.0248e-07
1.02607e-07
1.02802e-07
1.02934e-07
1.03425e-07
1.03478e-07
1.04966e-07
4.0577e-07
1.16456e-09
1.20911e-07
1.14819e-07
1.11329e-07
1.09166e-07
1.07673e-07
1.0659e-07
1.05754e-07
1.05107e-07
1.04577e-07
1.04154e-07
1.0379e-07
1.03496e-07
1.03233e-07
1.03017e-07
1.02825e-07
1.02667e-07
1.0252e-07
1.024e-07
1.02283e-07
1.0219e-07
1.02095e-07
1.02022e-07
1.01949e-07
1.01895e-07
1.01834e-07
1.01792e-07
1.01746e-07
1.01716e-07
1.01673e-07
1.01654e-07
1.01637e-07
1.01618e-07
1.01598e-07
1.0158e-07
1.01555e-07
1.01543e-07
1.01534e-07
1.0152e-07
1.01508e-07
1.01495e-07
1.01476e-07
1.01464e-07
1.01456e-07
1.01444e-07
1.01433e-07
1.0142e-07
1.01412e-07
1.01391e-07
1.01389e-07
1.01379e-07
1.01365e-07
1.01365e-07
1.01364e-07
1.01364e-07
1.0135e-07
1.01372e-07
1.01356e-07
1.01347e-07
1.01336e-07
1.01353e-07
1.01352e-07
1.01352e-07
1.01373e-07
1.01395e-07
1.01394e-07
1.01394e-07
1.01414e-07
1.0145e-07
1.0145e-07
1.01427e-07
1.01452e-07
1.01507e-07
1.01542e-07
1.01582e-07
1.01605e-07
1.01583e-07
1.01607e-07
1.01648e-07
1.01696e-07
1.0175e-07
1.01806e-07
1.01852e-07
1.01885e-07
1.01937e-07
1.02016e-07
1.02103e-07
1.02198e-07
1.02325e-07
1.0245e-07
1.02646e-07
1.02779e-07
1.03267e-07
1.0332e-07
1.04837e-07
4.15403e-07
1.24956e-09
1.20962e-07
1.14876e-07
1.11362e-07
1.09174e-07
1.0766e-07
1.06557e-07
1.05706e-07
1.05046e-07
1.04504e-07
1.04071e-07
1.03699e-07
1.03398e-07
1.03128e-07
1.02906e-07
1.0271e-07
1.02548e-07
1.02396e-07
1.02272e-07
1.02152e-07
1.02056e-07
1.01959e-07
1.01883e-07
1.01808e-07
1.01752e-07
1.01689e-07
1.01645e-07
1.01598e-07
1.01566e-07
1.01522e-07
1.01502e-07
1.01483e-07
1.01464e-07
1.01443e-07
1.01424e-07
1.01398e-07
1.01385e-07
1.01376e-07
1.01361e-07
1.01349e-07
1.01335e-07
1.01315e-07
1.01303e-07
1.01295e-07
1.01282e-07
1.0127e-07
1.01257e-07
1.0125e-07
1.01228e-07
1.01225e-07
1.01215e-07
1.01201e-07
1.01199e-07
1.01199e-07
1.01199e-07
1.01184e-07
1.01206e-07
1.01189e-07
1.0118e-07
1.01169e-07
1.01185e-07
1.01185e-07
1.01184e-07
1.01205e-07
1.01227e-07
1.01226e-07
1.01226e-07
1.01246e-07
1.01282e-07
1.01282e-07
1.01259e-07
1.01283e-07
1.01338e-07
1.01373e-07
1.01413e-07
1.01437e-07
1.01416e-07
1.0144e-07
1.01481e-07
1.01528e-07
1.01582e-07
1.01638e-07
1.01684e-07
1.01718e-07
1.0177e-07
1.01849e-07
1.01936e-07
1.0203e-07
1.02157e-07
1.02282e-07
1.02479e-07
1.02611e-07
1.03097e-07
1.03149e-07
1.04698e-07
4.25715e-07
1.34362e-09
1.21016e-07
1.14938e-07
1.11399e-07
1.09184e-07
1.07646e-07
1.06524e-07
1.05656e-07
1.04981e-07
1.04427e-07
1.03984e-07
1.03602e-07
1.03293e-07
1.03017e-07
1.02789e-07
1.02587e-07
1.0242e-07
1.02264e-07
1.02136e-07
1.02012e-07
1.01913e-07
1.01813e-07
1.01735e-07
1.01658e-07
1.01599e-07
1.01535e-07
1.01489e-07
1.0144e-07
1.01406e-07
1.01361e-07
1.0134e-07
1.01319e-07
1.01299e-07
1.01277e-07
1.01257e-07
1.0123e-07
1.01216e-07
1.01206e-07
1.01191e-07
1.01178e-07
1.01164e-07
1.01143e-07
1.01131e-07
1.01122e-07
1.01109e-07
1.01097e-07
1.01083e-07
1.01075e-07
1.01053e-07
1.0105e-07
1.0104e-07
1.01025e-07
1.01023e-07
1.01022e-07
1.01022e-07
1.01007e-07
1.01028e-07
1.01011e-07
1.01002e-07
1.0099e-07
1.01006e-07
1.01006e-07
1.01005e-07
1.01026e-07
1.01047e-07
1.01047e-07
1.01047e-07
1.01066e-07
1.01102e-07
1.01102e-07
1.01079e-07
1.01102e-07
1.01158e-07
1.01193e-07
1.01232e-07
1.01258e-07
1.01238e-07
1.0126e-07
1.01301e-07
1.01348e-07
1.01402e-07
1.01458e-07
1.01505e-07
1.01539e-07
1.01591e-07
1.01669e-07
1.01757e-07
1.01851e-07
1.01978e-07
1.02102e-07
1.023e-07
1.02432e-07
1.02915e-07
1.02965e-07
1.04548e-07
4.36675e-07
1.44781e-09
1.21073e-07
1.15003e-07
1.11438e-07
1.09195e-07
1.07632e-07
1.06489e-07
1.05603e-07
1.04913e-07
1.04346e-07
1.03891e-07
1.035e-07
1.03182e-07
1.02898e-07
1.02664e-07
1.02456e-07
1.02284e-07
1.02124e-07
1.01992e-07
1.01864e-07
1.01762e-07
1.01659e-07
1.01578e-07
1.01498e-07
1.01437e-07
1.0137e-07
1.01322e-07
1.01272e-07
1.01236e-07
1.01189e-07
1.01167e-07
1.01145e-07
1.01123e-07
1.011e-07
1.01079e-07
1.01051e-07
1.01037e-07
1.01026e-07
1.0101e-07
1.00996e-07
1.00982e-07
1.0096e-07
1.00947e-07
1.00938e-07
1.00925e-07
1.00912e-07
1.00898e-07
1.0089e-07
1.00867e-07
1.00864e-07
1.00853e-07
1.00837e-07
1.00835e-07
1.00834e-07
1.00833e-07
1.00818e-07
1.00839e-07
1.00822e-07
1.00812e-07
1.008e-07
1.00816e-07
1.00816e-07
1.00815e-07
1.00835e-07
1.00855e-07
1.00855e-07
1.00855e-07
1.00874e-07
1.0091e-07
1.00911e-07
1.00887e-07
1.00909e-07
1.00965e-07
1.01001e-07
1.01039e-07
1.01066e-07
1.01047e-07
1.01069e-07
1.01109e-07
1.01156e-07
1.01209e-07
1.01265e-07
1.01313e-07
1.01348e-07
1.014e-07
1.01478e-07
1.01566e-07
1.01659e-07
1.01787e-07
1.0191e-07
1.02109e-07
1.0224e-07
1.02721e-07
1.02769e-07
1.04388e-07
4.4824e-07
1.56337e-09
1.21132e-07
1.15073e-07
1.11481e-07
1.09208e-07
1.07619e-07
1.06453e-07
1.05548e-07
1.04841e-07
1.0426e-07
1.03794e-07
1.03392e-07
1.03065e-07
1.02774e-07
1.02532e-07
1.02318e-07
1.02141e-07
1.01975e-07
1.01839e-07
1.01707e-07
1.01601e-07
1.01495e-07
1.01411e-07
1.01328e-07
1.01265e-07
1.01196e-07
1.01146e-07
1.01093e-07
1.01056e-07
1.01007e-07
1.00983e-07
1.00959e-07
1.00937e-07
1.00912e-07
1.0089e-07
1.00861e-07
1.00846e-07
1.00834e-07
1.00818e-07
1.00803e-07
1.00788e-07
1.00766e-07
1.00752e-07
1.00743e-07
1.00729e-07
1.00716e-07
1.00701e-07
1.00693e-07
1.0067e-07
1.00666e-07
1.00655e-07
1.00638e-07
1.00635e-07
1.00634e-07
1.00633e-07
1.00617e-07
1.00637e-07
1.0062e-07
1.0061e-07
1.00597e-07
1.00613e-07
1.00613e-07
1.00612e-07
1.00632e-07
1.00652e-07
1.00651e-07
1.00651e-07
1.0067e-07
1.00707e-07
1.00707e-07
1.00683e-07
1.00704e-07
1.0076e-07
1.00796e-07
1.00835e-07
1.00862e-07
1.00844e-07
1.00865e-07
1.00905e-07
1.00951e-07
1.01005e-07
1.01061e-07
1.01109e-07
1.01145e-07
1.01197e-07
1.01274e-07
1.01363e-07
1.01455e-07
1.01584e-07
1.01705e-07
1.01905e-07
1.02036e-07
1.02514e-07
1.02561e-07
1.04216e-07
4.60349e-07
1.69177e-09
1.21194e-07
1.15147e-07
1.11527e-07
1.09223e-07
1.07606e-07
1.06416e-07
1.0549e-07
1.04767e-07
1.04171e-07
1.03692e-07
1.03279e-07
1.02943e-07
1.02642e-07
1.02393e-07
1.02173e-07
1.01989e-07
1.01818e-07
1.01678e-07
1.01541e-07
1.01432e-07
1.01322e-07
1.01234e-07
1.01149e-07
1.01083e-07
1.01011e-07
1.00959e-07
1.00904e-07
1.00865e-07
1.00815e-07
1.00788e-07
1.00763e-07
1.00739e-07
1.00713e-07
1.00691e-07
1.0066e-07
1.00644e-07
1.00632e-07
1.00614e-07
1.00599e-07
1.00583e-07
1.0056e-07
1.00546e-07
1.00535e-07
1.00521e-07
1.00508e-07
1.00492e-07
1.00484e-07
1.0046e-07
1.00456e-07
1.00444e-07
1.00427e-07
1.00423e-07
1.00422e-07
1.00421e-07
1.00404e-07
1.00424e-07
1.00407e-07
1.00396e-07
1.00383e-07
1.00398e-07
1.00398e-07
1.00397e-07
1.00417e-07
1.00436e-07
1.00435e-07
1.00436e-07
1.00453e-07
1.0049e-07
1.00491e-07
1.00467e-07
1.00487e-07
1.00543e-07
1.0058e-07
1.00618e-07
1.00646e-07
1.00629e-07
1.00649e-07
1.00689e-07
1.00735e-07
1.00788e-07
1.00844e-07
1.00893e-07
1.00929e-07
1.00981e-07
1.01058e-07
1.01147e-07
1.01239e-07
1.01368e-07
1.01488e-07
1.01689e-07
1.01819e-07
1.02294e-07
1.02339e-07
1.04032e-07
4.72926e-07
1.83459e-09
1.21259e-07
1.15226e-07
1.11577e-07
1.09241e-07
1.07594e-07
1.06379e-07
1.05431e-07
1.04689e-07
1.04078e-07
1.03585e-07
1.0316e-07
1.02814e-07
1.02504e-07
1.02248e-07
1.0202e-07
1.0183e-07
1.01653e-07
1.01508e-07
1.01367e-07
1.01253e-07
1.01139e-07
1.01049e-07
1.0096e-07
1.00891e-07
1.00816e-07
1.00762e-07
1.00705e-07
1.00664e-07
1.00612e-07
1.00583e-07
1.00556e-07
1.00531e-07
1.00504e-07
1.0048e-07
1.00448e-07
1.00431e-07
1.00418e-07
1.00399e-07
1.00383e-07
1.00366e-07
1.00343e-07
1.00328e-07
1.00317e-07
1.00302e-07
1.00288e-07
1.00272e-07
1.00263e-07
1.00239e-07
1.00234e-07
1.00222e-07
1.00204e-07
1.00199e-07
1.00198e-07
1.00197e-07
1.00179e-07
1.00199e-07
1.00181e-07
1.0017e-07
1.00157e-07
1.00172e-07
1.00172e-07
1.0017e-07
1.0019e-07
1.00208e-07
1.00207e-07
1.00207e-07
1.00225e-07
1.00262e-07
1.00263e-07
1.00239e-07
1.00257e-07
1.00314e-07
1.00351e-07
1.00388e-07
1.00417e-07
1.00402e-07
1.00421e-07
1.00461e-07
1.00506e-07
1.00559e-07
1.00615e-07
1.00665e-07
1.00701e-07
1.00753e-07
1.00829e-07
1.00919e-07
1.0101e-07
1.01139e-07
1.01258e-07
1.0146e-07
1.01589e-07
1.02061e-07
1.02104e-07
1.03837e-07
4.85876e-07
1.99362e-09
1.21326e-07
1.15308e-07
1.11631e-07
1.0926e-07
1.07583e-07
1.06341e-07
1.05371e-07
1.04609e-07
1.03981e-07
1.03474e-07
1.03036e-07
1.02679e-07
1.0236e-07
1.02095e-07
1.01859e-07
1.01663e-07
1.0148e-07
1.01329e-07
1.01184e-07
1.01065e-07
1.00948e-07
1.00853e-07
1.00761e-07
1.00689e-07
1.00612e-07
1.00555e-07
1.00495e-07
1.00452e-07
1.00398e-07
1.00367e-07
1.00339e-07
1.00311e-07
1.00283e-07
1.00258e-07
1.00225e-07
1.00206e-07
1.00192e-07
1.00173e-07
1.00155e-07
1.00138e-07
1.00114e-07
1.00098e-07
1.00086e-07
1.00071e-07
1.00056e-07
1.0004e-07
1.0003e-07
1.00006e-07
1e-07
9.99881e-08
9.99695e-08
9.99631e-08
9.99622e-08
9.99608e-08
9.99424e-08
9.99616e-08
9.99438e-08
9.99314e-08
9.99178e-08
9.99324e-08
9.99324e-08
9.9931e-08
9.99505e-08
9.9967e-08
9.99667e-08
9.99668e-08
9.9984e-08
1.00021e-07
1.00023e-07
9.99979e-08
1.00015e-07
1.00072e-07
1.00109e-07
1.00146e-07
1.00176e-07
1.00162e-07
1.00181e-07
1.0022e-07
1.00264e-07
1.00317e-07
1.00373e-07
1.00423e-07
1.0046e-07
1.00513e-07
1.00588e-07
1.00678e-07
1.00768e-07
1.00898e-07
1.01016e-07
1.01218e-07
1.01347e-07
1.01816e-07
1.01856e-07
1.03628e-07
4.99084e-07
2.17091e-09
1.21396e-07
1.15396e-07
1.11688e-07
1.09282e-07
1.07572e-07
1.06302e-07
1.05308e-07
1.04526e-07
1.0388e-07
1.03358e-07
1.02907e-07
1.02538e-07
1.02209e-07
1.01935e-07
1.01692e-07
1.01488e-07
1.01299e-07
1.01142e-07
1.00992e-07
1.00869e-07
1.00747e-07
1.00648e-07
1.00553e-07
1.00477e-07
1.00397e-07
1.00337e-07
1.00275e-07
1.00229e-07
1.00173e-07
1.00141e-07
1.0011e-07
1.00081e-07
1.00051e-07
1.00024e-07
9.99901e-08
9.99704e-08
9.99551e-08
9.99349e-08
9.99162e-08
9.98982e-08
9.98732e-08
9.98567e-08
9.98438e-08
9.98285e-08
9.98128e-08
9.97955e-08
9.97856e-08
9.97608e-08
9.97542e-08
9.97418e-08
9.97225e-08
9.97152e-08
9.97141e-08
9.97125e-08
9.96933e-08
9.97119e-08
9.96938e-08
9.96807e-08
9.96668e-08
9.9681e-08
9.96809e-08
9.96793e-08
9.96985e-08
9.9714e-08
9.97136e-08
9.97137e-08
9.97305e-08
9.97678e-08
9.97694e-08
9.97446e-08
9.97596e-08
9.98169e-08
9.98548e-08
9.98911e-08
9.9922e-08
9.99092e-08
9.99273e-08
9.99659e-08
1.0001e-07
1.00063e-07
1.00118e-07
1.00169e-07
1.00206e-07
1.00259e-07
1.00334e-07
1.00424e-07
1.00513e-07
1.00644e-07
1.0076e-07
1.00963e-07
1.01091e-07
1.01556e-07
1.01594e-07
1.03406e-07
5.12414e-07
2.36872e-09
1.21467e-07
1.15487e-07
1.11749e-07
1.09307e-07
1.07563e-07
1.06264e-07
1.05245e-07
1.04441e-07
1.03777e-07
1.03238e-07
1.02773e-07
1.02392e-07
1.02053e-07
1.01769e-07
1.01517e-07
1.01306e-07
1.0111e-07
1.00947e-07
1.00791e-07
1.00663e-07
1.00537e-07
1.00434e-07
1.00335e-07
1.00256e-07
1.00172e-07
1.00109e-07
1.00044e-07
9.99963e-08
9.9938e-08
9.9903e-08
9.98701e-08
9.98394e-08
9.98073e-08
9.97795e-08
9.9744e-08
9.9723e-08
9.97065e-08
9.96853e-08
9.96654e-08
9.96466e-08
9.96206e-08
9.96034e-08
9.95896e-08
9.95737e-08
9.95573e-08
9.95393e-08
9.95288e-08
9.95036e-08
9.94962e-08
9.94834e-08
9.94635e-08