/*--------------------------------*- C++ -*----------------------------------*\
| =========                 |                                                 |
| \\      /  F ield         | OpenFOAM: The Open Source CFD Toolbox           |
|  \\    /   O peration     | Version:  v2012                                 |
|   \\  /    A nd           | Website:  www.openfoam.com                      |
|    \\/     M anipulation  |                                                 |
\*---------------------------------------------------------------------------*/
FoamFile
{
    version     2.0;
    format      ascii;
    class       volVectorField;
    location    "8.5";
    object      wallShearStress;
}
// * * * * * * * * * * * * * * * * * * * * * * * * * * * * * * * * * * * * * //

dimensions      [0 2 -2 0 0 0 0];


internalField   uniform (0 0 0);

boundaryField
{
    inlet
    {
        type            calculated;
        value           uniform (0 0 0);
    }
    outlet
    {
        type            calculated;
        value           uniform (0 0 0);
    }
    topWall
    {
        type            calculated;
        value           nonuniform List<vector> 
545
(
(1.91395e-08 -1.34392e-08 0)
(1.91724e-08 -3.78283e-08 0)
(1.90338e-08 -6.29381e-08 0)
(1.89661e-08 -8.72528e-08 0)
(1.89098e-08 -1.10475e-07 0)
(1.88512e-08 -1.32912e-07 0)
(1.87868e-08 -1.54763e-07 0)
(1.87163e-08 -1.76018e-07 0)
(1.86399e-08 -1.96631e-07 0)
(1.85583e-08 -2.16598e-07 0)
(1.84719e-08 -2.35944e-07 0)
(1.83812e-08 -2.54693e-07 0)
(1.82866e-08 -2.72858e-07 0)
(1.81886e-08 -2.90451e-07 0)
(1.80875e-08 -3.07486e-07 0)
(1.79839e-08 -3.23978e-07 0)
(1.78779e-08 -3.39941e-07 0)
(1.77701e-08 -3.55391e-07 0)
(1.76606e-08 -3.70341e-07 0)
(1.75497e-08 -3.84807e-07 0)
(1.74378e-08 -3.98802e-07 0)
(1.73251e-08 -4.1234e-07 0)
(1.72118e-08 -4.25436e-07 0)
(1.70981e-08 -4.38102e-07 0)
(1.69842e-08 -4.50353e-07 0)
(1.68703e-08 -4.622e-07 0)
(1.67565e-08 -4.73658e-07 0)
(1.6643e-08 -4.84738e-07 0)
(1.65299e-08 -4.95453e-07 0)
(1.64173e-08 -5.05814e-07 0)
(1.63054e-08 -5.15833e-07 0)
(1.61942e-08 -5.25521e-07 0)
(1.60838e-08 -5.34889e-07 0)
(1.59743e-08 -5.43949e-07 0)
(1.58658e-08 -5.52709e-07 0)
(1.57584e-08 -5.6118e-07 0)
(1.56519e-08 -5.69373e-07 0)
(1.55467e-08 -5.77295e-07 0)
(1.54425e-08 -5.84957e-07 0)
(1.53396e-08 -5.92367e-07 0)
(1.52379e-08 -5.99533e-07 0)
(1.51374e-08 -6.06464e-07 0)
(1.50382e-08 -6.13168e-07 0)
(1.49402e-08 -6.19653e-07 0)
(1.48435e-08 -6.25926e-07 0)
(1.47481e-08 -6.31993e-07 0)
(1.46539e-08 -6.37863e-07 0)
(1.4561e-08 -6.43542e-07 0)
(1.44694e-08 -6.49036e-07 0)
(1.4379e-08 -6.54351e-07 0)
(1.42898e-08 -6.59495e-07 0)
(1.42019e-08 -6.64471e-07 0)
(1.41152e-08 -6.69287e-07 0)
(1.40296e-08 -6.73947e-07 0)
(1.39453e-08 -6.78457e-07 0)
(1.3862e-08 -6.82821e-07 0)
(1.37799e-08 -6.87045e-07 0)
(1.36989e-08 -6.91134e-07 0)
(1.36189e-08 -6.95091e-07 0)
(1.354e-08 -6.98922e-07 0)
(1.3462e-08 -7.0263e-07 0)
(1.33851e-08 -7.06219e-07 0)
(1.33091e-08 -7.09694e-07 0)
(1.3234e-08 -7.13058e-07 0)
(1.31597e-08 -7.16315e-07 0)
(1.30864e-08 -7.19469e-07 0)
(1.30138e-08 -7.22522e-07 0)
(1.2942e-08 -7.25477e-07 0)
(1.28711e-08 -7.28342e-07 0)
(1.28002e-08 -7.31106e-07 0)
(1.27329e-08 -7.33823e-07 0)
(1.26537e-08 -7.36357e-07 0)
(1.25801e-08 -7.38835e-07 0)
(1.25283e-08 -7.41328e-07 0)
(1.24768e-08 -7.43669e-07 0)
(1.24255e-08 -7.45995e-07 0)
(1.23743e-08 -7.48332e-07 0)
(1.23232e-08 -7.50657e-07 0)
(1.22721e-08 -7.52956e-07 0)
(1.22211e-08 -7.5523e-07 0)
(1.21702e-08 -7.57484e-07 0)
(1.21194e-08 -7.5972e-07 0)
(1.20687e-08 -7.61937e-07 0)
(1.2018e-08 -7.64134e-07 0)
(1.19674e-08 -7.66312e-07 0)
(1.19169e-08 -7.68471e-07 0)
(1.18664e-08 -7.70611e-07 0)
(1.18161e-08 -7.72732e-07 0)
(1.17658e-08 -7.74834e-07 0)
(1.17157e-08 -7.76918e-07 0)
(1.16656e-08 -7.78985e-07 0)
(1.16154e-08 -7.81026e-07 0)
(1.15665e-08 -7.83078e-07 0)
(1.15122e-08 -7.85028e-07 0)
(1.14816e-08 -7.87312e-07 0)
(1.13507e-08 -7.88871e-07 0)
(1.11921e-08 -7.90411e-07 0)
(1.11445e-08 -7.926e-07 0)
(1.11061e-08 -7.94071e-07 0)
(1.10699e-08 -7.95454e-07 0)
(1.10342e-08 -7.96982e-07 0)
(1.09984e-08 -7.98579e-07 0)
(1.09625e-08 -8.00156e-07 0)
(1.09265e-08 -8.01706e-07 0)
(1.08904e-08 -8.0325e-07 0)
(1.08541e-08 -8.04799e-07 0)
(1.08177e-08 -8.06349e-07 0)
(1.07812e-08 -8.07898e-07 0)
(1.07445e-08 -8.09443e-07 0)
(1.07077e-08 -8.10987e-07 0)
(1.06708e-08 -8.12529e-07 0)
(1.06337e-08 -8.1407e-07 0)
(1.05965e-08 -8.15609e-07 0)
(1.05592e-08 -8.17146e-07 0)
(1.05217e-08 -8.18681e-07 0)
(1.04841e-08 -8.20215e-07 0)
(1.04463e-08 -8.21746e-07 0)
(1.04085e-08 -8.23276e-07 0)
(1.03704e-08 -8.24803e-07 0)
(1.03323e-08 -8.26329e-07 0)
(1.0294e-08 -8.27852e-07 0)
(1.02556e-08 -8.29374e-07 0)
(1.02171e-08 -8.30893e-07 0)
(1.01784e-08 -8.3241e-07 0)
(1.01396e-08 -8.33925e-07 0)
(1.01007e-08 -8.35438e-07 0)
(1.00616e-08 -8.36948e-07 0)
(1.00225e-08 -8.38456e-07 0)
(9.98313e-09 -8.39962e-07 0)
(9.94368e-09 -8.41465e-07 0)
(9.90411e-09 -8.42966e-07 0)
(9.8644e-09 -8.44464e-07 0)
(9.82457e-09 -8.4596e-07 0)
(9.78461e-09 -8.47454e-07 0)
(9.74452e-09 -8.48944e-07 0)
(9.7043e-09 -8.50433e-07 0)
(9.66396e-09 -8.51918e-07 0)
(9.62349e-09 -8.53401e-07 0)
(9.5829e-09 -8.54881e-07 0)
(9.54218e-09 -8.56358e-07 0)
(9.50134e-09 -8.57832e-07 0)
(9.46037e-09 -8.59304e-07 0)
(9.41928e-09 -8.60772e-07 0)
(9.37806e-09 -8.62238e-07 0)
(9.33672e-09 -8.637e-07 0)
(9.29526e-09 -8.6516e-07 0)
(9.25368e-09 -8.66616e-07 0)
(9.21198e-09 -8.6807e-07 0)
(9.17015e-09 -8.6952e-07 0)
(9.12821e-09 -8.70967e-07 0)
(9.08614e-09 -8.7241e-07 0)
(9.04396e-09 -8.73851e-07 0)
(9.00165e-09 -8.75288e-07 0)
(8.95923e-09 -8.76721e-07 0)
(8.91669e-09 -8.78152e-07 0)
(8.87403e-09 -8.79578e-07 0)
(8.83125e-09 -8.81002e-07 0)
(8.78836e-09 -8.82421e-07 0)
(8.74535e-09 -8.83838e-07 0)
(8.70222e-09 -8.8525e-07 0)
(8.65898e-09 -8.86659e-07 0)
(8.61562e-09 -8.88064e-07 0)
(8.57215e-09 -8.89465e-07 0)
(8.52856e-09 -8.90863e-07 0)
(8.48486e-09 -8.92256e-07 0)
(8.44105e-09 -8.93646e-07 0)
(8.39712e-09 -8.95032e-07 0)
(8.35308e-09 -8.96413e-07 0)
(8.30893e-09 -8.97791e-07 0)
(8.26467e-09 -8.99165e-07 0)
(8.2203e-09 -9.00534e-07 0)
(8.17581e-09 -9.01899e-07 0)
(8.13122e-09 -9.0326e-07 0)
(8.08652e-09 -9.04617e-07 0)
(8.0417e-09 -9.0597e-07 0)
(7.99678e-09 -9.07318e-07 0)
(7.95175e-09 -9.08662e-07 0)
(7.90661e-09 -9.10001e-07 0)
(7.86137e-09 -9.11336e-07 0)
(7.81601e-09 -9.12666e-07 0)
(7.77055e-09 -9.13991e-07 0)
(7.72499e-09 -9.15312e-07 0)
(7.67932e-09 -9.16629e-07 0)
(7.63355e-09 -9.1794e-07 0)
(7.58767e-09 -9.19247e-07 0)
(7.54168e-09 -9.20549e-07 0)
(7.4956e-09 -9.21846e-07 0)
(7.44941e-09 -9.23138e-07 0)
(7.40312e-09 -9.24425e-07 0)
(7.35672e-09 -9.25707e-07 0)
(7.31023e-09 -9.26984e-07 0)
(7.26364e-09 -9.28256e-07 0)
(7.21694e-09 -9.29523e-07 0)
(7.17015e-09 -9.30785e-07 0)
(7.12326e-09 -9.32041e-07 0)
(7.07627e-09 -9.33292e-07 0)
(7.02918e-09 -9.34537e-07 0)
(6.982e-09 -9.35777e-07 0)
(6.93472e-09 -9.37012e-07 0)
(6.88734e-09 -9.38241e-07 0)
(6.83987e-09 -9.39465e-07 0)
(6.79231e-09 -9.40683e-07 0)
(6.74465e-09 -9.41895e-07 0)
(6.69691e-09 -9.43102e-07 0)
(6.64906e-09 -9.44302e-07 0)
(6.60113e-09 -9.45497e-07 0)
(6.55311e-09 -9.46686e-07 0)
(6.505e-09 -9.4787e-07 0)
(6.4568e-09 -9.49047e-07 0)
(6.40851e-09 -9.50218e-07 0)
(6.36014e-09 -9.51383e-07 0)
(6.31168e-09 -9.52542e-07 0)
(6.26314e-09 -9.53695e-07 0)
(6.21451e-09 -9.54842e-07 0)
(6.16579e-09 -9.55982e-07 0)
(6.117e-09 -9.57116e-07 0)
(6.06812e-09 -9.58244e-07 0)
(6.01916e-09 -9.59365e-07 0)
(5.97013e-09 -9.60479e-07 0)
(5.92101e-09 -9.61587e-07 0)
(5.87182e-09 -9.62689e-07 0)
(5.82255e-09 -9.63784e-07 0)
(5.7732e-09 -9.64872e-07 0)
(5.72378e-09 -9.65954e-07 0)
(5.67428e-09 -9.67029e-07 0)
(5.62472e-09 -9.68096e-07 0)
(5.57508e-09 -9.69157e-07 0)
(5.52537e-09 -9.70211e-07 0)
(5.47559e-09 -9.71258e-07 0)
(5.42574e-09 -9.72298e-07 0)
(5.37583e-09 -9.73331e-07 0)
(5.32585e-09 -9.74357e-07 0)
(5.27581e-09 -9.75375e-07 0)
(5.2257e-09 -9.76386e-07 0)
(5.17553e-09 -9.7739e-07 0)
(5.12529e-09 -9.78387e-07 0)
(5.075e-09 -9.79376e-07 0)
(5.02465e-09 -9.80358e-07 0)
(4.97424e-09 -9.81332e-07 0)
(4.92378e-09 -9.82298e-07 0)
(4.87326e-09 -9.83257e-07 0)
(4.82268e-09 -9.84208e-07 0)
(4.77205e-09 -9.85152e-07 0)
(4.72138e-09 -9.86088e-07 0)
(4.67065e-09 -9.87016e-07 0)
(4.61987e-09 -9.87936e-07 0)
(4.56905e-09 -9.88848e-07 0)
(4.51817e-09 -9.89752e-07 0)
(4.46726e-09 -9.90648e-07 0)
(4.4163e-09 -9.91536e-07 0)
(4.3653e-09 -9.92415e-07 0)
(4.31426e-09 -9.93287e-07 0)
(4.26318e-09 -9.9415e-07 0)
(4.21206e-09 -9.95005e-07 0)
(4.1609e-09 -9.95852e-07 0)
(4.10971e-09 -9.9669e-07 0)
(4.05849e-09 -9.9752e-07 0)
(4.00724e-09 -9.98341e-07 0)
(3.95595e-09 -9.99154e-07 0)
(3.90464e-09 -9.99958e-07 0)
(3.85329e-09 -1.00075e-06 0)
(3.80193e-09 -1.00154e-06 0)
(3.75053e-09 -1.00232e-06 0)
(3.69914e-09 -1.00309e-06 0)
(3.64756e-09 -1.00384e-06 0)
(3.59671e-09 -1.00462e-06 0)
(3.54266e-09 -1.0053e-06 0)
(3.50208e-09 -1.00632e-06 0)
(3.40427e-09 -1.00665e-06 0)
(3.28863e-09 -1.00707e-06 0)
(3.23824e-09 -1.00828e-06 0)
(3.19789e-09 -1.00883e-06 0)
(3.15958e-09 -1.00928e-06 0)
(3.12137e-09 -1.00985e-06 0)
(3.08278e-09 -1.01049e-06 0)
(3.0437e-09 -1.01111e-06 0)
(3.00411e-09 -1.01172e-06 0)
(2.96401e-09 -1.01231e-06 0)
(2.92339e-09 -1.01291e-06 0)
(2.88226e-09 -1.01351e-06 0)
(2.84061e-09 -1.01411e-06 0)
(2.79844e-09 -1.0147e-06 0)
(2.75575e-09 -1.01529e-06 0)
(2.71255e-09 -1.01588e-06 0)
(2.66883e-09 -1.01647e-06 0)
(2.6246e-09 -1.01705e-06 0)
(2.57985e-09 -1.01763e-06 0)
(2.53459e-09 -1.0182e-06 0)
(2.48881e-09 -1.01877e-06 0)
(2.44253e-09 -1.01934e-06 0)
(2.39573e-09 -1.0199e-06 0)
(2.34841e-09 -1.02046e-06 0)
(2.3006e-09 -1.02101e-06 0)
(2.25227e-09 -1.02156e-06 0)
(2.20343e-09 -1.0221e-06 0)
(2.15409e-09 -1.02263e-06 0)
(2.10425e-09 -1.02316e-06 0)
(2.0539e-09 -1.02368e-06 0)
(2.00306e-09 -1.02419e-06 0)
(1.95172e-09 -1.02469e-06 0)
(1.89988e-09 -1.02519e-06 0)
(1.84755e-09 -1.02568e-06 0)
(1.79473e-09 -1.02616e-06 0)
(1.74142e-09 -1.02663e-06 0)
(1.68763e-09 -1.02709e-06 0)
(1.63336e-09 -1.02755e-06 0)
(1.57861e-09 -1.02799e-06 0)
(1.52339e-09 -1.02842e-06 0)
(1.46769e-09 -1.02884e-06 0)
(1.41153e-09 -1.02925e-06 0)
(1.35491e-09 -1.02965e-06 0)
(1.29783e-09 -1.03003e-06 0)
(1.2403e-09 -1.0304e-06 0)
(1.18232e-09 -1.03076e-06 0)
(1.1239e-09 -1.03111e-06 0)
(1.06504e-09 -1.03144e-06 0)
(1.00575e-09 -1.03176e-06 0)
(9.46028e-10 -1.03206e-06 0)
(8.8589e-10 -1.03234e-06 0)
(8.25339e-10 -1.03261e-06 0)
(7.64381e-10 -1.03286e-06 0)
(7.03023e-10 -1.0331e-06 0)
(6.41274e-10 -1.03332e-06 0)
(5.79139e-10 -1.03352e-06 0)
(5.16628e-10 -1.0337e-06 0)
(4.53747e-10 -1.03386e-06 0)
(3.90507e-10 -1.034e-06 0)
(3.26916e-10 -1.03412e-06 0)
(2.62982e-10 -1.03422e-06 0)
(1.98716e-10 -1.0343e-06 0)
(1.34128e-10 -1.03436e-06 0)
(6.92264e-11 -1.03439e-06 0)
(4.0233e-12 -1.0344e-06 0)
(-6.14707e-11 -1.03438e-06 0)
(-1.27245e-10 -1.03434e-06 0)
(-1.93286e-10 -1.03428e-06 0)
(-2.59584e-10 -1.03419e-06 0)
(-3.26125e-10 -1.03407e-06 0)
(-3.92897e-10 -1.03392e-06 0)
(-4.59886e-10 -1.03375e-06 0)
(-5.2708e-10 -1.03355e-06 0)
(-5.94462e-10 -1.03332e-06 0)
(-6.62021e-10 -1.03306e-06 0)
(-7.29739e-10 -1.03276e-06 0)
(-7.97604e-10 -1.03244e-06 0)
(-8.65597e-10 -1.03208e-06 0)
(-9.33705e-10 -1.0317e-06 0)
(-1.00191e-09 -1.03127e-06 0)
(-1.07019e-09 -1.03082e-06 0)
(-1.13854e-09 -1.03032e-06 0)
(-1.20693e-09 -1.0298e-06 0)
(-1.27535e-09 -1.02923e-06 0)
(-1.34378e-09 -1.02863e-06 0)
(-1.41219e-09 -1.02799e-06 0)
(-1.48057e-09 -1.02731e-06 0)
(-1.54891e-09 -1.02659e-06 0)
(-1.61717e-09 -1.02583e-06 0)
(-1.68534e-09 -1.02503e-06 0)
(-1.7534e-09 -1.02419e-06 0)
(-1.82132e-09 -1.02331e-06 0)
(-1.88908e-09 -1.02238e-06 0)
(-1.95666e-09 -1.02141e-06 0)
(-2.02405e-09 -1.02039e-06 0)
(-2.0912e-09 -1.01933e-06 0)
(-2.15811e-09 -1.01823e-06 0)
(-2.22474e-09 -1.01707e-06 0)
(-2.29107e-09 -1.01587e-06 0)
(-2.35708e-09 -1.01462e-06 0)
(-2.42275e-09 -1.01332e-06 0)
(-2.48803e-09 -1.01196e-06 0)
(-2.55292e-09 -1.01056e-06 0)
(-2.61738e-09 -1.00911e-06 0)
(-2.68139e-09 -1.00761e-06 0)
(-2.74492e-09 -1.00605e-06 0)
(-2.80794e-09 -1.00444e-06 0)
(-2.87043e-09 -1.00277e-06 0)
(-2.93236e-09 -1.00105e-06 0)
(-2.99369e-09 -9.99277e-07 0)
(-3.05441e-09 -9.97447e-07 0)
(-3.11448e-09 -9.95557e-07 0)
(-3.17388e-09 -9.93613e-07 0)
(-3.23258e-09 -9.91608e-07 0)
(-3.29055e-09 -9.89547e-07 0)
(-3.34775e-09 -9.87425e-07 0)
(-3.40417e-09 -9.85246e-07 0)
(-3.45977e-09 -9.83004e-07 0)
(-3.51453e-09 -9.80703e-07 0)
(-3.56841e-09 -9.7834e-07 0)
(-3.6214e-09 -9.75917e-07 0)
(-3.67345e-09 -9.7343e-07 0)
(-3.72455e-09 -9.70883e-07 0)
(-3.77466e-09 -9.6827e-07 0)
(-3.82376e-09 -9.65597e-07 0)
(-3.87182e-09 -9.62858e-07 0)
(-3.91882e-09 -9.60058e-07 0)
(-3.96472e-09 -9.57191e-07 0)
(-4.00951e-09 -9.54262e-07 0)
(-4.05315e-09 -9.51267e-07 0)
(-4.09562e-09 -9.48208e-07 0)
(-4.1369e-09 -9.45083e-07 0)
(-4.17696e-09 -9.41895e-07 0)
(-4.21577e-09 -9.3864e-07 0)
(-4.25333e-09 -9.35321e-07 0)
(-4.28958e-09 -9.31936e-07 0)
(-4.32453e-09 -9.28487e-07 0)
(-4.35814e-09 -9.24971e-07 0)
(-4.3904e-09 -9.21391e-07 0)
(-4.42128e-09 -9.17746e-07 0)
(-4.45075e-09 -9.14037e-07 0)
(-4.47881e-09 -9.10262e-07 0)
(-4.50542e-09 -9.06424e-07 0)
(-4.53057e-09 -9.02521e-07 0)
(-4.55425e-09 -8.98555e-07 0)
(-4.57642e-09 -8.94525e-07 0)
(-4.59707e-09 -8.90432e-07 0)
(-4.61618e-09 -8.86277e-07 0)
(-4.63375e-09 -8.8206e-07 0)
(-4.64973e-09 -8.77782e-07 0)
(-4.66414e-09 -8.73443e-07 0)
(-4.67694e-09 -8.69044e-07 0)
(-4.68813e-09 -8.64587e-07 0)
(-4.69769e-09 -8.6007e-07 0)
(-4.70563e-09 -8.55496e-07 0)
(-4.71191e-09 -8.50865e-07 0)
(-4.71655e-09 -8.4618e-07 0)
(-4.71954e-09 -8.41438e-07 0)
(-4.72088e-09 -8.36644e-07 0)
(-4.72056e-09 -8.31796e-07 0)
(-4.71861e-09 -8.26899e-07 0)
(-4.715e-09 -8.21949e-07 0)
(-4.70978e-09 -8.16953e-07 0)
(-4.70293e-09 -8.11906e-07 0)
(-4.69448e-09 -8.06816e-07 0)
(-4.68442e-09 -8.01678e-07 0)
(-4.67281e-09 -7.965e-07 0)
(-4.65961e-09 -7.91276e-07 0)
(-4.64489e-09 -7.86014e-07 0)
(-4.62862e-09 -7.8071e-07 0)
(-4.61087e-09 -7.75371e-07 0)
(-4.59161e-09 -7.69993e-07 0)
(-4.57091e-09 -7.64584e-07 0)
(-4.54875e-09 -7.59137e-07 0)
(-4.52518e-09 -7.53663e-07 0)
(-4.5002e-09 -7.48157e-07 0)
(-4.47387e-09 -7.42623e-07 0)
(-4.44613e-09 -7.37067e-07 0)
(-4.4172e-09 -7.31461e-07 0)
(-4.38644e-09 -7.25912e-07 0)
(-4.35639e-09 -7.1999e-07 0)
(-4.31657e-09 -7.14711e-07 0)
(-4.26465e-09 -7.08671e-07 0)
(-4.21583e-09 -7.01253e-07 0)
(-4.17101e-09 -6.94543e-07 0)
(-4.1264e-09 -6.87974e-07 0)
(-4.08124e-09 -6.81356e-07 0)
(-4.03532e-09 -6.74752e-07 0)
(-3.98867e-09 -6.68241e-07 0)
(-3.94137e-09 -6.61826e-07 0)
(-3.89348e-09 -6.55493e-07 0)
(-3.84508e-09 -6.49233e-07 0)
(-3.79624e-09 -6.43048e-07 0)
(-3.74702e-09 -6.36943e-07 0)
(-3.69747e-09 -6.30919e-07 0)
(-3.64767e-09 -6.24977e-07 0)
(-3.59764e-09 -6.19113e-07 0)
(-3.54746e-09 -6.13332e-07 0)
(-3.49715e-09 -6.07631e-07 0)
(-3.44678e-09 -6.02013e-07 0)
(-3.39636e-09 -5.96475e-07 0)
(-3.34595e-09 -5.91021e-07 0)
(-3.29556e-09 -5.85645e-07 0)
(-3.24524e-09 -5.80354e-07 0)
(-3.19498e-09 -5.75141e-07 0)
(-3.14486e-09 -5.70012e-07 0)
(-3.09484e-09 -5.64961e-07 0)
(-3.04499e-09 -5.59995e-07 0)
(-2.99528e-09 -5.55105e-07 0)
(-2.94576e-09 -5.50299e-07 0)
(-2.89642e-09 -5.45569e-07 0)
(-2.84729e-09 -5.40923e-07 0)
(-2.79835e-09 -5.36353e-07 0)
(-2.74965e-09 -5.31865e-07 0)
(-2.70115e-09 -5.27452e-07 0)
(-2.65291e-09 -5.23121e-07 0)
(-2.60488e-09 -5.18865e-07 0)
(-2.55711e-09 -5.14689e-07 0)
(-2.50957e-09 -5.10587e-07 0)
(-2.46229e-09 -5.06566e-07 0)
(-2.41525e-09 -5.02617e-07 0)
(-2.36849e-09 -4.98748e-07 0)
(-2.32197e-09 -4.94951e-07 0)
(-2.27573e-09 -4.91233e-07 0)
(-2.22973e-09 -4.87585e-07 0)
(-2.18401e-09 -4.84016e-07 0)
(-2.13854e-09 -4.80516e-07 0)
(-2.09334e-09 -4.77094e-07 0)
(-2.0484e-09 -4.73741e-07 0)
(-2.00372e-09 -4.70465e-07 0)
(-1.95929e-09 -4.67257e-07 0)
(-1.91513e-09 -4.64124e-07 0)
(-1.87121e-09 -4.61059e-07 0)
(-1.82755e-09 -4.58068e-07 0)
(-1.78411e-09 -4.55145e-07 0)
(-1.74093e-09 -4.52295e-07 0)
(-1.69797e-09 -4.49511e-07 0)
(-1.65524e-09 -4.468e-07 0)
(-1.61272e-09 -4.44155e-07 0)
(-1.57043e-09 -4.41581e-07 0)
(-1.52833e-09 -4.39073e-07 0)
(-1.48645e-09 -4.36635e-07 0)
(-1.44475e-09 -4.34263e-07 0)
(-1.40325e-09 -4.3196e-07 0)
(-1.36192e-09 -4.29722e-07 0)
(-1.32078e-09 -4.27553e-07 0)
(-1.27979e-09 -4.25448e-07 0)
(-1.23898e-09 -4.23412e-07 0)
(-1.19831e-09 -4.21439e-07 0)
(-1.15781e-09 -4.19534e-07 0)
(-1.11744e-09 -4.17692e-07 0)
(-1.07721e-09 -4.15917e-07 0)
(-1.0371e-09 -4.14205e-07 0)
(-9.97125e-10 -4.1256e-07 0)
(-9.57253e-10 -4.10978e-07 0)
(-9.17488e-10 -4.09461e-07 0)
(-8.77807e-10 -4.08007e-07 0)
(-8.38207e-10 -4.06618e-07 0)
(-7.98663e-10 -4.05292e-07 0)
(-7.59162e-10 -4.04031e-07 0)
(-7.19679e-10 -4.02832e-07 0)
(-6.80194e-10 -4.01699e-07 0)
(-6.40678e-10 -4.00628e-07 0)
(-6.01109e-10 -3.99622e-07 0)
(-5.61466e-10 -3.98678e-07 0)
(-5.21744e-10 -3.97801e-07 0)
(-4.81957e-10 -3.96986e-07 0)
(-4.42168e-10 -3.9624e-07 0)
(-4.02485e-10 -3.95547e-07 0)
(-3.63129e-10 -3.94955e-07 0)
(-3.24309e-10 -3.94309e-07 0)
(-2.86563e-10 -3.94112e-07 0)
(-2.49186e-10 -3.92659e-07 0)
(-2.14937e-10 -3.95468e-07 0)
(-1.70067e-10 -3.83336e-07 0)
(-1.62923e-10 -4.14537e-07 0)
(-9.26401e-11 -3.61835e-07 0)
)
;
    }
    bottomWall
    {
        type            calculated;
        value           nonuniform List<vector> 
449
(
(-53.1902 -0.962077 0)
(-35.0336 -0.00281637 0)
(-34.7232 -0.000229201 0)
(-33.4673 -0.000342588 0)
(-32.3718 -0.000328814 0)
(-31.1961 -0.000335697 0)
(-30.0504 -0.000314748 0)
(-29.0212 -0.000278353 0)
(-28.127 -0.000241288 0)
(-27.3525 -0.00020909 0)
(-26.6789 -0.000182278 0)
(-26.0879 -0.00016041 0)
(-25.5638 -0.000142537 0)
(-25.0952 -0.000126634 0)
(-24.6804 -0.000113101 0)
(-24.3045 -0.000102469 0)
(-23.9623 -9.28153e-05 0)
(-23.6528 -8.47431e-05 0)
(-23.3658 -7.82116e-05 0)
(-23.101 -7.17872e-05 0)
(-22.8584 -6.64405e-05 0)
(-22.6304 -6.15215e-05 0)
(-22.4217 -5.7134e-05 0)
(-22.2237 -5.39199e-05 0)
(-22.037 -5.02539e-05 0)
(-21.8647 -4.65574e-05 0)
(-21.7038 -4.36526e-05 0)
(-21.5515 -4.09482e-05 0)
(-21.4092 -3.87861e-05 0)
(-21.2717 -3.72978e-05 0)
(-21.1396 -3.51527e-05 0)
(-21.0173 -3.28073e-05 0)
(-20.9016 -3.10451e-05 0)
(-20.7915 -2.95256e-05 0)
(-20.6863 -2.84493e-05 0)
(-20.5835 -2.73118e-05 0)
(-20.4863 -2.58408e-05 0)
(-20.3938 -2.48747e-05 0)
(-20.3032 -2.3863e-05 0)
(-20.2179 -2.25937e-05 0)
(-20.1364 -2.14236e-05 0)
(-20.0594 -2.03834e-05 0)
(-19.9852 -1.96731e-05 0)
(-19.9132 -1.88509e-05 0)
(-19.8448 -1.79708e-05 0)
(-19.7789 -1.747e-05 0)
(-19.7139 -1.69446e-05 0)
(-19.6516 -1.64392e-05 0)
(-19.5901 -1.60975e-05 0)
(-19.5301 -1.54191e-05 0)
(-19.4735 -1.46452e-05 0)
(-19.4192 -1.43088e-05 0)
(-19.3648 -1.41649e-05 0)
(-19.3113 -1.34232e-05 0)
(-19.2625 -1.27137e-05 0)
(-19.2142 -1.23681e-05 0)
(-19.1677 -1.20822e-05 0)
(-19.1213 -1.18207e-05 0)
(-19.0767 -1.12748e-05 0)
(-19.0344 -1.10003e-05 0)
(-18.9916 -1.07007e-05 0)
(-18.9514 -1.04592e-05 0)
(-18.9102 -1.03688e-05 0)
(-18.8706 -9.83678e-06 0)
(-18.8336 -9.31054e-06 0)
(-18.798 -9.13636e-06 0)
(-18.7621 -8.99375e-06 0)
(-18.7273 -8.5416e-06 0)
(-18.6949 -8.17535e-06 0)
(-18.6628 -8.2976e-06 0)
(-18.6292 -8.23063e-06 0)
(-18.5976 -7.80235e-06 0)
(-18.5673 -7.30778e-06 0)
(-18.5394 -7.18949e-06 0)
(-18.5098 -7.07306e-06 0)
(-18.4827 -6.88193e-06 0)
(-18.4544 -6.99908e-06 0)
(-18.4261 -7.10072e-06 0)
(-18.3969 -7.05241e-06 0)
(-18.369 -6.68933e-06 0)
(-18.3427 -6.33355e-06 0)
(-18.3176 -6.16811e-06 0)
(-18.2924 -6.19651e-06 0)
(-18.2669 -6.26402e-06 0)
(-18.2411 -6.22064e-06 0)
(-18.2159 -5.89303e-06 0)
(-18.1928 -5.15398e-06 0)
(-18.1737 -4.93194e-06 0)
(-18.1521 -5.31892e-06 0)
(-18.1295 -5.45972e-06 0)
(-18.1066 -5.57963e-06 0)
(-18.0829 -5.55284e-06 0)
(-18.0602 -5.41779e-06 0)
(-18.0375 -5.46557e-06 0)
(-18.0143 -5.20594e-06 0)
(-17.9938 -4.68523e-06 0)
(-17.975 -4.55501e-06 0)
(-17.9554 -4.61518e-06 0)
(-17.9359 -4.58217e-06 0)
(-17.9165 -4.56824e-06 0)
(-17.897 -4.46287e-06 0)
(-17.8784 -4.42789e-06 0)
(-17.859 -4.42917e-06 0)
(-17.8404 -4.15705e-06 0)
(-17.8236 -3.90808e-06 0)
(-17.8071 -3.81651e-06 0)
(-17.791 -3.49021e-06 0)
(-17.7773 -3.34381e-06 0)
(-17.7622 -3.62301e-06 0)
(-17.7458 -3.74317e-06 0)
(-17.7295 -4.00099e-06 0)
(-17.7108 -4.08777e-06 0)
(-17.6937 -4.14978e-06 0)
(-17.6744 -4.11458e-06 0)
(-17.6577 -3.72271e-06 0)
(-17.6418 -3.38299e-06 0)
(-17.6281 -3.15498e-06 0)
(-17.6141 -3.25152e-06 0)
(-17.5993 -3.14747e-06 0)
(-17.5863 -2.80599e-06 0)
(-17.5745 -2.86595e-06 0)
(-17.5607 -3.14079e-06 0)
(-17.5464 -3.27394e-06 0)
(-17.5313 -3.33743e-06 0)
(-17.5163 -3.32008e-06 0)
(-17.5014 -3.15387e-06 0)
(-17.4879 -2.98019e-06 0)
(-17.4745 -2.80129e-06 0)
(-17.4626 -2.50646e-06 0)
(-17.4519 -2.37703e-06 0)
(-17.4411 -2.39543e-06 0)
(-17.43 -2.58968e-06 0)
(-17.4173 -2.68054e-06 0)
(-17.4054 -2.45958e-06 0)
(-17.3947 -2.59881e-06 0)
(-17.3814 -2.85314e-06 0)
(-17.3683 -2.80661e-06 0)
(-17.3555 -2.78052e-06 0)
(-17.3426 -2.74143e-06 0)
(-17.3302 -2.70419e-06 0)
(-17.3176 -2.62956e-06 0)
(-17.3057 -2.34464e-06 0)
(-17.2958 -1.87998e-06 0)
(-17.2883 -1.77204e-06 0)
(-17.2792 -1.9601e-06 0)
(-17.2698 -1.86236e-06 0)
(-17.2617 -1.9705e-06 0)
(-17.2512 -2.26456e-06 0)
(-17.2402 -2.21775e-06 0)
(-17.2302 -2.17047e-06 0)
(-17.2195 -2.19641e-06 0)
(-17.209 -2.11402e-06 0)
(-17.1992 -2.20952e-06 0)
(-17.1877 -2.38226e-06 0)
(-17.1762 -2.11752e-06 0)
(-17.1675 -1.80378e-06 0)
(-17.1589 -1.95106e-06 0)
(-17.1486 -1.96061e-06 0)
(-17.14 -1.64433e-06 0)
(-17.1329 -1.62895e-06 0)
(-17.1242 -1.78453e-06 0)
(-17.1155 -1.67476e-06 0)
(-17.1079 -1.88046e-06 0)
(-17.0969 -2.08467e-06 0)
(-17.0874 -1.66389e-06 0)
(-17.0808 -1.48429e-06 0)
(-17.0728 -1.7563e-06 0)
(-17.0633 -1.75434e-06 0)
(-17.0555 -1.52571e-06 0)
(-17.0483 -1.59186e-06 0)
(-17.0397 -1.45001e-06 0)
(-17.0339 -1.27623e-06 0)
(-17.0271 -1.2241e-06 0)
(-17.0221 -1.17314e-06 0)
(-17.0164 -1.42164e-06 0)
(-17.0092 -1.67073e-06 0)
(-17.001 -1.7356e-06 0)
(-16.9932 -1.48101e-06 0)
(-16.9873 -1.07768e-06 0)
(-16.9832 -9.29657e-07 0)
(-16.9785 -1.03067e-06 0)
(-16.9733 -9.62124e-07 0)
(-16.9693 -9.61075e-07 0)
(-16.9639 -1.34083e-06 0)
(-16.956 -1.46034e-06 0)
(-16.9493 -1.34914e-06 0)
(-16.9423 -1.21235e-06 0)
(-16.937 -9.13308e-07 0)
(-16.933 -1.01348e-06 0)
(-16.9263 -1.33558e-06 0)
(-16.9188 -1.18505e-06 0)
(-16.9137 -9.0593e-07 0)
(-16.9091 -1.13065e-06 0)
(-16.9013 -1.2173e-06 0)
(-16.8957 -1.01886e-06 0)
(-16.89 -9.45463e-07 0)
(-16.8851 -8.20254e-07 0)
(-16.8808 -8.68249e-07 0)
(-16.8751 -9.81005e-07 0)
(-16.8694 -9.33438e-07 0)
(-16.8642 -8.80852e-07 0)
(-16.8589 -1.03224e-06 0)
(-16.8516 -1.13371e-06 0)
(-16.8451 -9.84473e-07 0)
(-16.8396 -8.2303e-07 0)
(-16.8349 -8.04267e-07 0)
(-16.8296 -9.4481e-07 0)
(-16.8229 -9.00501e-07 0)
(-16.8181 -8.44898e-07 0)
(-16.8119 -1.03066e-06 0)
(-16.8043 -1.12845e-06 0)
(-16.7969 -9.48173e-07 0)
(-16.7918 -6.95033e-07 0)
(-16.7875 -8.42862e-07 0)
(-16.7801 -1.03941e-06 0)
(-16.7731 -1.05626e-06 0)
(-16.7653 -9.8572e-07 0)
(-16.7592 -7.65724e-07 0)
(-16.7545 -8.11619e-07 0)
(-16.7474 -9.38504e-07 0)
(-16.7408 -7.34592e-07 0)
(-16.7367 -5.19598e-07 0)
(-16.7332 -5.34817e-07 0)
(-16.7287 -7.04456e-07 0)
(-16.7224 -7.74385e-07 0)
(-16.7169 -6.81992e-07 0)
(-16.7118 -7.1833e-07 0)
(-16.7056 -7.18626e-07 0)
(-16.7005 -5.80009e-07 0)
(-16.6964 -5.43487e-07 0)
(-16.6918 -4.86642e-07 0)
(-16.6885 -3.52811e-07 0)
(-16.686 -4.25349e-07 0)
(-16.6814 -5.75594e-07 0)
(-16.6762 -5.00745e-07 0)
(-16.6727 -4.55139e-07 0)
(-16.6682 -6.15052e-07 0)
(-16.6618 -6.27908e-07 0)
(-16.657 -5.2847e-07 0)
(-16.6524 -5.57503e-07 0)
(-16.647 -5.37708e-07 0)
(-16.6425 -4.57937e-07 0)
(-16.6384 -4.9274e-07 0)
(-16.6331 -5.82256e-07 0)
(-16.6273 -5.18282e-07 0)
(-16.6233 -3.97508e-07 0)
(-16.6197 -4.81264e-07 0)
(-16.6139 -4.67139e-07 0)
(-16.6105 -2.96461e-07 0)
(-16.6081 -2.59594e-07 0)
(-16.6053 -4.02294e-07 0)
(-16.5996 -6.07646e-07 0)
(-16.5925 -6.25123e-07 0)
(-16.5865 -4.71147e-07 0)
(-16.5825 -4.30728e-07 0)
(-16.5773 -4.78492e-07 0)
(-16.5723 -3.78764e-07 0)
(-16.5691 -3.25193e-07 0)
(-16.5651 -4.66764e-07 0)
(-16.5586 -4.80774e-07 0)
(-16.5543 -2.9883e-07 0)
(-16.5519 -2.32342e-07 0)
(-16.5489 -3.31621e-07 0)
(-16.5441 -3.49795e-07 0)
(-16.5407 -3.16292e-07 0)
(-16.5366 -3.95488e-07 0)
(-16.5311 -3.75499e-07 0)
(-16.5275 -2.65181e-07 0)
(-16.5246 -2.96178e-07 0)
(-16.5201 -3.22635e-07 0)
(-16.5164 -3.21576e-07 0)
(-16.5118 -3.17615e-07 0)
(-16.5083 -2.54936e-07 0)
(-16.5052 -2.83563e-07 0)
(-16.5008 -3.27269e-07 0)
(-16.4965 -2.67775e-07 0)
(-16.4936 -2.49416e-07 0)
(-16.4896 -3.65635e-07 0)
(-16.4834 -3.67103e-07 0)
(-16.4794 -2.9502e-07 0)
(-16.4751 -2.61464e-07 0)
(-16.472 -2.73321e-07 0)
(-16.4673 -2.94699e-07 0)
(-16.4635 -2.40909e-07 0)
(-16.4603 -2.66034e-07 0)
(-16.4555 -3.12205e-07 0)
(-16.4508 -3.17918e-07 0)
(-16.4459 -2.79964e-07 0)
(-16.4423 -2.54935e-07 0)
(-16.438 -2.90957e-07 0)
(-16.4332 -2.50323e-07 0)
(-16.4301 -2.2201e-07 0)
(-16.426 -2.98417e-07 0)
(-16.4202 -2.98548e-07 0)
(-16.4162 -2.94644e-07 0)
(-16.4105 -2.97147e-07 0)
(-16.4062 -2.29197e-07 0)
(-16.4028 -2.41704e-07 0)
(-16.398 -2.26589e-07 0)
(-16.3951 -1.85832e-07 0)
(-16.3917 -2.09514e-07 0)
(-16.3878 -1.77784e-07 0)
(-16.3854 -1.14235e-07 0)
(-16.3837 -1.43445e-07 0)
(-16.38 -2.76753e-07 0)
(-16.3733 -3.25603e-07 0)
(-16.3678 -2.95809e-07 0)
(-16.3621 -2.81935e-07 0)
(-16.3571 -2.122e-07 0)
(-16.354 -1.75965e-07 0)
(-16.3503 -2.00767e-07 0)
(-16.3462 -1.69769e-07 0)
(-16.3436 -1.27503e-07 0)
(-16.341 -1.91203e-07 0)
(-16.3357 -2.38775e-07 0)
(-16.3312 -1.89948e-07 0)
(-16.3279 -1.66545e-07 0)
(-16.3243 -1.82756e-07 0)
(-16.3203 -1.76903e-07 0)
(-16.3168 -1.37521e-07 0)
(-16.3144 -1.26338e-07 0)
(-16.3113 -1.81296e-07 0)
(-16.3063 -2.07467e-07 0)
(-16.302 -1.48906e-07 0)
(-16.2997 -1.16703e-07 0)
(-16.2966 -1.52639e-07 0)
(-16.2925 -1.56048e-07 0)
(-16.2894 -1.50797e-07 0)
(-16.2854 -1.40949e-07 0)
(-16.2826 -1.2897e-07 0)
(-16.2791 -1.82311e-07 0)
(-16.2737 -2.00299e-07 0)
(-16.2693 -1.41155e-07 0)
(-16.2667 -1.03105e-07 0)
(-16.2642 -1.20449e-07 0)
(-16.2607 -1.49872e-07 0)
(-16.2565 -1.31606e-07 0)
(-16.2539 -9.69611e-08 0)
(-16.2515 -1.0134e-07 0)
(-16.2485 -9.04522e-08 0)
(-16.2467 -7.04905e-08 0)
(-16.2448 -1.09812e-07 0)
(-16.2406 -1.36296e-07 0)
(-16.2371 -1.34251e-07 0)
(-16.233 -1.3564e-07 0)
(-16.2295 -1.03638e-07 0)
(-16.2272 -9.58978e-08 0)
(-16.2239 -1.12566e-07 0)
(-16.2207 -8.27416e-08 0)
(-16.2192 -5.65133e-08 0)
(-16.2173 -6.55076e-08 0)
(-16.2153 -6.28646e-08 0)
(-16.2136 -6.9164e-08 0)
(-16.211 -6.76297e-08 0)
(-16.2092 -6.63253e-08 0)
(-16.2061 -9.83021e-08 0)
(-16.2016 -1.04706e-07 0)
(-16.198 -1.03756e-07 0)
(-16.1936 -1.1852e-07 0)
(-16.1888 -1.39209e-07 0)
(-16.1828 -1.42175e-07 0)
(-16.178 -1.00851e-07 0)
(-16.1752 -6.3168e-08 0)
(-16.1733 -5.89625e-08 0)
(-16.1708 -5.83312e-08 0)
(-16.1689 -4.99795e-08 0)
(-16.167 -4.77019e-08 0)
(-16.1653 -4.11987e-08 0)
(-16.1639 -4.83527e-08 0)
(-16.1615 -7.89108e-08 0)
(-16.1578 -8.32238e-08 0)
(-16.1551 -5.48949e-08 0)
(-16.1536 -4.55829e-08 0)
(-16.1517 -4.30605e-08 0)
(-16.1504 -2.48497e-08 0)
(-16.1498 -2.38159e-08 0)
(-16.1485 -5.15696e-08 0)
(-16.1458 -7.31061e-08 0)
(-16.1429 -6.45192e-08 0)
(-16.1408 -5.2856e-08 0)
(-16.1388 -4.30783e-08 0)
(-16.1375 -3.37986e-08 0)
(-16.1363 -3.81199e-08 0)
(-16.1346 -4.29213e-08 0)
(-16.1329 -5.0964e-08 0)
(-16.1307 -5.30916e-08 0)
(-16.1289 -4.42916e-08 0)
(-16.1273 -3.55948e-08 0)
(-16.1262 -2.03036e-08 0)
(-16.1259 -1.02674e-08 0)
(-16.1255 -1.25547e-08 0)
(-16.1249 -2.65718e-08 0)
(-16.1234 -4.46071e-08 0)
(-16.1214 -5.30697e-08 0)
(-16.1193 -4.55571e-08 0)
(-16.118 -3.68481e-08 0)
(-16.1165 -2.8345e-08 0)
(-16.1158 -2.50737e-08 0)
(-16.1146 -2.6753e-08 0)
(-16.1138 -1.20034e-08 0)
(-16.1138 -2.28221e-09 0)
(-16.1137 -1.09581e-08 0)
(-16.113 -2.43947e-08 0)
(-16.1119 -2.64347e-08 0)
(-16.111 -2.74022e-08 0)
(-16.1098 -3.14254e-08 0)
(-16.1086 -3.84509e-08 0)
(-16.1068 -4.1226e-08 0)
(-16.1054 -3.39168e-08 0)
(-16.1042 -4.55495e-08 0)
(-16.1019 -3.74574e-08 0)
(-16.1013 -1.58052e-08 0)
(-16.1007 -1.85485e-08 0)
(-16.0999 -1.77593e-08 0)
(-16.0994 -3.55912e-09 0)
(-16.0998 1.32116e-08 0)
(-16.1005 1.25989e-08 0)
(-16.1008 2.95361e-09 0)
(-16.1007 -1.35571e-08 0)
(-16.0997 -4.07781e-08 0)
(-16.0975 -5.43485e-08 0)
(-16.0954 -4.28567e-08 0)
(-16.0942 -2.52591e-08 0)
(-16.0935 -1.57576e-08 0)
(-16.093 -7.59374e-09 0)
(-16.093 -9.20222e-09 0)
(-16.0924 -1.23178e-08 0)
(-16.0921 -1.01793e-08 0)
(-16.0917 -2.15237e-08 0)
(-16.0904 -4.13578e-08 0)
(-16.0884 -3.82278e-08 0)
(-16.0874 -2.99403e-08 0)
(-16.086 -3.30912e-08 0)
(-16.0849 -3.09883e-08 0)
(-16.0837 -1.55554e-08 0)
(-16.0837 2.43537e-09 0)
(-16.084 -5.22336e-09 0)
(-16.0834 -1.67568e-08 0)
(-16.0826 -1.84651e-08 0)
(-16.0819 -2.16386e-08 0)
(-16.081 -1.9558e-08 0)
(-16.0805 -6.5881e-09 0)
(-16.0806 3.27138e-10 0)
(-16.0806 -1.23564e-08 0)
(-16.0796 -1.84802e-08 0)
(-16.0791 -1.70108e-08 0)
(-16.0783 -1.21486e-08 0)
(-16.0782 -1.3027e-08 0)
(-16.0773 -1.24808e-08 0)
)
;
    }
    symmetry
    {
        type            symmetryPlane;
    }
    frontAndBack
    {
        type            empty;
    }
}


// ************************************************************************* //
