/*--------------------------------*- C++ -*----------------------------------*\
| =========                 |                                                 |
| \\      /  F ield         | OpenFOAM: The Open Source CFD Toolbox           |
|  \\    /   O peration     | Version:  v2012                                 |
|   \\  /    A nd           | Website:  www.openfoam.com                      |
|    \\/     M anipulation  |                                                 |
\*---------------------------------------------------------------------------*/
FoamFile
{
    version     2.0;
    format      ascii;
    class       volScalarField;
    location    "8.5";
    object      yPlus;
}
// * * * * * * * * * * * * * * * * * * * * * * * * * * * * * * * * * * * * * //

dimensions      [0 0 0 0 0 0 0];


internalField   uniform 0;

boundaryField
{
    inlet
    {
        type            calculated;
        value           uniform 0;
    }
    outlet
    {
        type            calculated;
        value           uniform 0;
    }
    topWall
    {
        type            calculated;
        value           nonuniform List<scalar> 
545
(
0.0800712
0.138711
0.177771
0.208777
0.234994
0.257906
0.278344
0.29683
0.313718
0.329265
0.343664
0.357061
0.369577
0.381307
0.392332
0.402717
0.412521
0.421792
0.430574
0.438904
0.446815
0.454336
0.461496
0.468316
0.474819
0.481025
0.486951
0.492614
0.49803
0.503211
0.50817
0.512921
0.517473
0.521837
0.526023
0.530039
0.533894
0.537596
0.541152
0.544569
0.547854
0.551012
0.554049
0.556972
0.559784
0.562491
0.565098
0.567608
0.570026
0.572356
0.574601
0.576765
0.578851
0.580863
0.582804
0.584676
0.586482
0.588225
0.589906
0.59153
0.593097
0.594611
0.596072
0.597483
0.598846
0.600163
0.601436
0.602665
0.603853
0.605001
0.606111
0.607184
0.608205
0.609191
0.610167
0.611134
0.61209
0.613036
0.613973
0.6149
0.615818
0.616726
0.617626
0.618516
0.619397
0.620269
0.621132
0.621986
0.622832
0.623669
0.624497
0.625318
0.626129
0.626933
0.627728
0.628518
0.629215
0.629837
0.630457
0.631075
0.631693
0.63231
0.632925
0.633539
0.634152
0.634764
0.635375
0.635984
0.636592
0.637199
0.637805
0.63841
0.639013
0.639615
0.640216
0.640815
0.641413
0.64201
0.642605
0.643199
0.643792
0.644384
0.644974
0.645563
0.64615
0.646736
0.64732
0.647903
0.648485
0.649065
0.649644
0.650221
0.650797
0.651371
0.651944
0.652515
0.653085
0.653653
0.65422
0.654785
0.655349
0.655911
0.656471
0.65703
0.657587
0.658143
0.658697
0.659249
0.659799
0.660348
0.660895
0.661441
0.661985
0.662527
0.663067
0.663606
0.664143
0.664678
0.665211
0.665743
0.666272
0.6668
0.667326
0.66785
0.668373
0.668893
0.669412
0.669929
0.670443
0.670956
0.671467
0.671976
0.672483
0.672988
0.673491
0.673992
0.674492
0.674989
0.675484
0.675977
0.676468
0.676956
0.677443
0.677928
0.67841
0.678891
0.679369
0.679845
0.680319
0.680791
0.681261
0.681728
0.682193
0.682656
0.683117
0.683576
0.684032
0.684486
0.684937
0.685387
0.685834
0.686278
0.686721
0.687161
0.687598
0.688033
0.688466
0.688896
0.689324
0.68975
0.690173
0.690593
0.691011
0.691427
0.69184
0.69225
0.692658
0.693063
0.693466
0.693866
0.694264
0.694659
0.695051
0.695441
0.695828
0.696212
0.696594
0.696973
0.697349
0.697722
0.698093
0.698461
0.698826
0.699189
0.699548
0.699905
0.700259
0.70061
0.700959
0.701304
0.701646
0.701986
0.702323
0.702656
0.702987
0.703315
0.70364
0.703962
0.704281
0.704597
0.704909
0.705219
0.705526
0.705829
0.70613
0.706427
0.706722
0.707013
0.707301
0.707586
0.707868
0.708146
0.708421
0.708693
0.708962
0.709228
0.70949
0.709749
0.710006
0.710238
0.710453
0.710668
0.710883
0.711097
0.711311
0.711524
0.711737
0.711949
0.71216
0.712371
0.712581
0.71279
0.712998
0.713205
0.713411
0.713616
0.713819
0.714021
0.714222
0.71442
0.714618
0.714813
0.715006
0.715198
0.715387
0.715574
0.715759
0.715941
0.716121
0.716298
0.716473
0.716644
0.716812
0.716977
0.717139
0.717297
0.717452
0.717603
0.717751
0.717894
0.718033
0.718167
0.718298
0.718423
0.718544
0.71866
0.718771
0.718876
0.718976
0.71907
0.719159
0.719241
0.719318
0.719388
0.719452
0.719508
0.719558
0.7196
0.719636
0.719664
0.719684
0.719696
0.7197
0.719695
0.719682
0.71966
0.719629
0.719589
0.719539
0.719479
0.71941
0.71933
0.71924
0.719139
0.719027
0.718903
0.718769
0.718622
0.718464
0.718293
0.71811
0.717913
0.717705
0.717482
0.717246
0.716996
0.716732
0.716453
0.71616
0.715852
0.715528
0.715189
0.714834
0.714463
0.714076
0.713671
0.71325
0.712811
0.712356
0.711881
0.711389
0.710879
0.71035
0.709801
0.709234
0.708646
0.708039
0.707412
0.706765
0.706096
0.705407
0.704696
0.703964
0.70321
0.702434
0.701635
0.700815
0.699971
0.699104
0.698214
0.697301
0.696363
0.695402
0.694416
0.693406
0.692371
0.691311
0.690226
0.689117
0.687981
0.68682
0.685633
0.684421
0.683182
0.681917
0.680626
0.679308
0.677964
0.676593
0.675196
0.673771
0.67232
0.670842
0.669337
0.667805
0.666246
0.66466
0.663047
0.661408
0.659741
0.658048
0.656328
0.654582
0.652809
0.65101
0.649185
0.647334
0.645457
0.643555
0.641627
0.639675
0.637698
0.635697
0.63367
0.631621
0.629547
0.627452
0.625332
0.623191
0.621026
0.618842
0.616634
0.614408
0.612159
0.609893
0.607605
0.6053
0.602975
0.600635
0.598273
0.59564
0.592748
0.589875
0.587017
0.584177
0.581354
0.578551
0.575766
0.573002
0.570259
0.567537
0.564837
0.56216
0.559506
0.556875
0.55427
0.551688
0.549132
0.5466
0.544096
0.541616
0.539164
0.536737
0.534339
0.531967
0.529624
0.527307
0.52502
0.52276
0.520529
0.518326
0.516154
0.514008
0.511894
0.509808
0.507753
0.505726
0.503731
0.501764
0.499829
0.497923
0.49605
0.494205
0.492393
0.49061
0.48886
0.487139
0.485451
0.483793
0.482169
0.480574
0.479013
0.477481
0.475984
0.474517
0.473084
0.471681
0.470312
0.468974
0.46767
0.466398
0.465159
0.463952
0.46278
0.461639
0.460532
0.459458
0.458418
0.45741
0.456437
0.455497
0.454591
0.453719
0.452881
0.452076
0.451306
0.45057
0.449869
0.449202
0.44857
0.447972
0.44741
0.446882
0.446391
0.445934
0.445514
0.445129
0.44478
0.444466
0.444188
0.443942
0.443732
0.443548
0.443422
0.443246
)
;
    }
    bottomWall
    {
        type            calculated;
        value           nonuniform List<scalar> 
449
(
0.00273906
0.0048253
0.0054157
0.00538307
0.00531113
0.00517611
0.00502175
0.00487389
0.00474114
0.00462371
0.0045201
0.00442812
0.00434568
0.00427131
0.00420533
0.00414496
0.00408978
0.00403967
0.00399282
0.00394943
0.0039096
0.00387186
0.00383744
0.00380441
0.0037732
0.00374447
0.00371759
0.00369209
0.0036683
0.00364503
0.00362258
0.00360194
0.00358237
0.00356373
0.00354586
0.00352823
0.00351164
0.00349581
0.0034802
0.00346559
0.00345163
0.0034385
0.00342582
0.00341347
0.00340181
0.00339053
0.0033793
0.00336858
0.00335786
0.00334745
0.00333767
0.00332829
0.00331876
0.00330942
0.00330102
0.00329261
0.00328459
0.00327648
0.00326876
0.00326142
0.00325396
0.00324698
0.00323972
0.00323275
0.00322626
0.00321997
0.00321361
0.00320751
0.00320191
0.00319631
0.00319035
0.00318482
0.00317956
0.0031748
0.00316963
0.00316501
0.00316
0.003155
0.00314971
0.0031447
0.00314001
0.00313561
0.00313115
0.00312658
0.00312191
0.00311736
0.00311331
0.00311009
0.00310622
0.00310217
0.00309803
0.00309369
0.00308958
0.00308541
0.00308113
0.00307751
0.00307418
0.00307066
0.00306714
0.0030636
0.00306005
0.00305667
0.00305311
0.00304971
0.00304666
0.00304368
0.00304081
0.00303849
0.00303582
0.0030329
0.00302997
0.00302648
0.00302335
0.00301972
0.0030167
0.00301384
0.00301145
0.00300894
0.00300625
0.00300396
0.00300192
0.0029994
0.00299677
0.00299403
0.00299129
0.0029885
0.00298602
0.00298354
0.00298139
0.00297952
0.00297759
0.00297557
0.00297318
0.00297105
0.00296907
0.00296654
0.00296412
0.00296172
0.00295937
0.00295711
0.00295475
0.00295254
0.00295078
0.0029495
0.00294781
0.00294613
0.00294468
0.0029427
0.00294067
0.00293884
0.00293685
0.00293495
0.0029331
0.00293086
0.00292872
0.00292716
0.00292553
0.00292361
0.00292204
0.00292075
0.00291916
0.00291759
0.00291621
0.00291412
0.00291243
0.00291127
0.00290975
0.00290799
0.00290659
0.00290525
0.00290364
0.0029026
0.00290139
0.00290054
0.00289946
0.00289805
0.00289648
0.00289502
0.00289398
0.00289325
0.00289231
0.00289136
0.00289071
0.00288968
0.00288813
0.00288686
0.00288559
0.00288468
0.002884
0.00288269
0.00288128
0.00288038
0.00287953
0.00287805
0.00287705
0.00287603
0.00287521
0.00287449
0.00287343
0.0028724
0.00287147
0.00287047
0.00286906
0.00286785
0.00286688
0.00286607
0.00286512
0.0028639
0.00286304
0.00286184
0.00286035
0.00285896
0.00285806
0.0028573
0.00285588
0.00285455
0.00285305
0.00285194
0.00285109
0.00284974
0.00284855
0.00284787
0.00284725
0.00284645
0.0028453
0.00284434
0.00284344
0.00284232
0.00284145
0.00284074
0.00283994
0.00283941
0.00283904
0.00283824
0.00283728
0.00283663
0.00283573
0.00283454
0.00283374
0.00283294
0.00283197
0.00283116
0.00283037
0.00282934
0.00282828
0.00282758
0.00282695
0.00282587
0.00282534
0.00282498
0.0028245
0.00282343
0.0028221
0.00282097
0.00282022
0.00281923
0.00281838
0.00281793
0.00281719
0.00281591
0.00281511
0.00281473
0.00281422
0.00281337
0.00281278
0.002812
0.00281096
0.00281029
0.00280981
0.002809
0.00280836
0.00280749
0.00280683
0.00280629
0.00280548
0.00280465
0.00280413
0.00280335
0.00280218
0.00280148
0.00280072
0.00280015
0.00279925
0.00279857
0.00279798
0.00279706
0.00279618
0.00279529
0.00279467
0.00279387
0.002793
0.00279246
0.00279163
0.00279052
0.00278976
0.00278862
0.00278774
0.00278705
0.00278617
0.00278567
0.00278505
0.00278435
0.00278395
0.00278368
0.00278299
0.00278172
0.0027807
0.00277962
0.00277872
0.0027782
0.00277753
0.00277676
0.00277634
0.00277583
0.00277476
0.00277394
0.00277332
0.00277264
0.00277196
0.00277134
0.00277091
0.00277035
0.00276938
0.00276849
0.00276805
0.0027675
0.00276677
0.00276622
0.0027655
0.002765
0.00276431
0.0027632
0.00276233
0.00276188
0.00276144
0.00276084
0.00276008
0.00275961
0.00275919
0.00275866
0.00275834
0.00275799
0.00275719
0.00275649
0.00275564
0.00275496
0.00275453
0.00275385
0.00275323
0.00275302
0.00275272
0.00275237
0.00275209
0.00275159
0.00275129
0.00275075
0.00274986
0.00274915
0.00274834
0.00274745
0.00274627
0.00274536
0.00274485
0.0027445
0.00274407
0.00274378
0.00274345
0.00274315
0.00274292
0.00274245
0.00274172
0.00274124
0.00274097
0.00274056
0.00274034
0.00274027
0.00274002
0.00273952
0.00273897
0.00273856
0.00273818
0.00273795
0.00273773
0.00273744
0.00273707
0.00273659
0.00273628
0.00273599
0.0027358
0.00273578
0.00273571
0.00273564
0.0027354
0.00273501
0.00273459
0.00273433
0.00273405
0.00273393
0.00273367
0.00273354
0.00273358
0.00273362
0.00273346
0.00273326
0.00273316
0.00273297
0.00273271
0.00273235
0.00273211
0.00273189
0.00273139
0.00273129
0.00273118
0.00273098
0.00273085
0.00273093
0.00273112
0.00273119
0.00273119
0.00273098
0.00273056
0.00273015
0.00272993
0.00272981
0.00272974
0.00272973
0.0027296
0.00272963
0.00272961
0.00272936
0.00272891
0.00272873
0.00272845
0.0027282
0.00272795
0.00272799
0.00272808
0.00272796
0.00272782
0.00272766
0.00272751
0.00272745
0.00272753
0.00272752
0.00272732
0.00272724
0.0027271
0.00272704
0.00272682
)
;
    }
    symmetry
    {
        type            symmetryPlane;
    }
    frontAndBack
    {
        type            empty;
    }
}


// ************************************************************************* //
