/*--------------------------------*- C++ -*----------------------------------*\
| =========                 |                                                 |
| \\      /  F ield         | OpenFOAM: The Open Source CFD Toolbox           |
|  \\    /   O peration     | Version:  v2012                                 |
|   \\  /    A nd           | Website:  www.openfoam.com                      |
|    \\/     M anipulation  |                                                 |
\*---------------------------------------------------------------------------*/
FoamFile
{
    version     2.0;
    format      ascii;
    class       volScalarField;
    location    "10.5";
    object      k;
}
// * * * * * * * * * * * * * * * * * * * * * * * * * * * * * * * * * * * * * //

dimensions      [0 2 -2 0 0 0 0];


internalField   nonuniform List<scalar> 
209825
(
0.00102351
0.000976335
0.000954984
0.000943457
0.000936305
0.000931544
0.000928157
0.0009257
0.000923829
0.000922407
0.000921276
0.00092039
0.000919663
0.000919081
0.000918593
0.000918199
0.000917853
0.000917573
0.000917335
0.000917141
0.000916954
0.000916808
0.000916679
0.000916577
0.000916454
0.000916373
0.000916305
0.000916251
0.00091618
0.000916141
0.000916107
0.000916071
0.00091598
0.00091599
0.000915989
0.000915982
0.000915938
0.000915952
0.000915952
0.00091595
0.00091592
0.000915976
0.000915976
0.000915975
0.000915956
0.000916084
0.000916113
0.000916113
0.000916111
0.000916123
0.000916123
0.000916276
0.000916276
0.000916276
0.000916273
0.000916403
0.000916406
0.000916519
0.000916633
0.000916633
0.000916632
0.000916769
0.000916945
0.000916954
0.000916954
0.000917074
0.00091727
0.000917468
0.0009176
0.000917662
0.000917736
0.000917945
0.000918103
0.000918245
0.000918429
0.000918703
0.000918834
0.000918988
0.000919201
0.000919515
0.000919793
0.000920139
0.000920492
0.000920906
0.000921291
0.000921855
0.000922385
0.000923121
0.000923791
0.000924989
0.000925761
0.000928352
0.000928756
0.000943235
0.00100937
0.00246114
0.00102351
0.000976326
0.000954967
0.000943436
0.000936281
0.000931517
0.000928128
0.00092567
0.000923798
0.000922374
0.000921242
0.000920356
0.000919628
0.000919046
0.000918558
0.000918164
0.000917817
0.000917537
0.000917299
0.000917104
0.000916918
0.000916771
0.000916642
0.00091654
0.000916417
0.000916336
0.000916268
0.000916214
0.000916142
0.000916103
0.00091607
0.000916034
0.000915942
0.000915952
0.000915952
0.000915944
0.0009159
0.000915914
0.000915914
0.000915912
0.000915882
0.000915938
0.000915938
0.000915937
0.000915918
0.000916047
0.000916075
0.000916075
0.000916073
0.000916085
0.000916085
0.000916238
0.000916239
0.000916238
0.000916236
0.000916365
0.000916368
0.000916481
0.000916596
0.000916596
0.000916595
0.000916731
0.000916908
0.000916917
0.000916917
0.000917037
0.000917232
0.00091743
0.000917562
0.000917624
0.000917699
0.000917908
0.000918066
0.000918207
0.000918392
0.000918666
0.000918797
0.000918951
0.000919164
0.000919478
0.000919756
0.000920102
0.000920455
0.00092087
0.000921255
0.000921818
0.000922349
0.000923085
0.000923755
0.000924953
0.000925726
0.000928317
0.000928719
0.000943227
0.0010094
0.0024627
0.0010235
0.000976278
0.000954892
0.000943343
0.000936176
0.000931403
0.000928007
0.000925543
0.000923667
0.00092224
0.000921106
0.000920217
0.000919488
0.000918904
0.000918414
0.000918019
0.000917671
0.000917391
0.000917151
0.000916956
0.000916769
0.000916622
0.000916493
0.00091639
0.000916267
0.000916185
0.000916117
0.000916063
0.000915991
0.000915952
0.000915919
0.000915882
0.00091579
0.0009158
0.0009158
0.000915792
0.000915748
0.000915762
0.000915762
0.000915759
0.00091573
0.000915786
0.000915786
0.000915785
0.000915765
0.000915894
0.000915922
0.000915922
0.00091592
0.000915933
0.000915932
0.000916085
0.000916086
0.000916086
0.000916083
0.000916212
0.000916216
0.000916329
0.000916443
0.000916443
0.000916442
0.000916579
0.000916755
0.000916765
0.000916765
0.000916885
0.00091708
0.000917278
0.00091741
0.000917473
0.000917548
0.000917757
0.000917914
0.000918056
0.00091824
0.000918515
0.000918647
0.000918801
0.000919014
0.000919328
0.000919606
0.000919952
0.000920306
0.00092072
0.000921106
0.00092167
0.0009222
0.000922936
0.000923607
0.000924806
0.000925578
0.00092817
0.000928568
0.000943133
0.00100939
0.00246587
0.00102349
0.000976197
0.000954766
0.000943186
0.000935998
0.00093121
0.000927803
0.000925331
0.000923448
0.000922015
0.000920876
0.000919984
0.000919251
0.000918665
0.000918173
0.000917776
0.000917427
0.000917144
0.000916904
0.000916708
0.00091652
0.000916372
0.000916242
0.000916139
0.000916015
0.000915933
0.000915864
0.000915809
0.000915738
0.000915698
0.000915664
0.000915628
0.000915536
0.000915545
0.000915545
0.000915537
0.000915492
0.000915506
0.000915506
0.000915504
0.000915474
0.000915529
0.000915529
0.000915528
0.000915509
0.000915637
0.000915666
0.000915666
0.000915664
0.000915676
0.000915676
0.000915829
0.000915829
0.000915829
0.000915826
0.000915956
0.00091596
0.000916072
0.000916187
0.000916187
0.000916186
0.000916322
0.000916499
0.000916509
0.000916509
0.000916629
0.000916824
0.000917023
0.000917155
0.000917219
0.000917293
0.000917502
0.00091766
0.000917803
0.000917987
0.000918261
0.000918394
0.000918548
0.000918761
0.000919075
0.000919354
0.000919701
0.000920054
0.00092047
0.000920855
0.00092142
0.00092195
0.000922687
0.000923357
0.000924557
0.000925329
0.000927922
0.000928314
0.000942966
0.00100934
0.00246982
0.00102346
0.000976082
0.000954587
0.000942964
0.000935748
0.000930938
0.000927516
0.000925031
0.000923138
0.000921698
0.000920552
0.000919654
0.000918918
0.000918328
0.000917833
0.000917433
0.000917082
0.000916797
0.000916555
0.000916357
0.000916168
0.000916019
0.000915888
0.000915784
0.000915659
0.000915576
0.000915507
0.000915452
0.00091538
0.000915339
0.000915305
0.000915269
0.000915176
0.000915185
0.000915185
0.000915176
0.000915132
0.000915145
0.000915145
0.000915143
0.000915112
0.000915167
0.000915167
0.000915166
0.000915147
0.000915275
0.000915304
0.000915304
0.000915302
0.000915314
0.000915314
0.000915467
0.000915467
0.000915467
0.000915464
0.000915594
0.000915599
0.00091571
0.000915825
0.000915825
0.000915825
0.000915961
0.000916138
0.000916149
0.000916149
0.000916269
0.000916464
0.000916663
0.000916796
0.00091686
0.000916935
0.000917143
0.000917302
0.000917445
0.000917629
0.000917904
0.000918037
0.000918192
0.000918405
0.000918719
0.000918999
0.000919346
0.0009197
0.000920116
0.000920501
0.000921067
0.000921597
0.000922336
0.000923005
0.000924206
0.000924977
0.000927572
0.000927956
0.000942727
0.00100925
0.00247452
0.00102343
0.000975934
0.000954355
0.000942678
0.000935423
0.000930586
0.000927143
0.000924642
0.000922736
0.000921286
0.000920133
0.000919228
0.000918485
0.000917891
0.000917392
0.000916989
0.000916634
0.000916347
0.000916103
0.000915903
0.000915713
0.000915562
0.000915429
0.000915324
0.000915198
0.000915115
0.000915045
0.000914989
0.000914916
0.000914875
0.00091484
0.000914803
0.00091471
0.000914719
0.000914718
0.000914709
0.000914664
0.000914678
0.000914678
0.000914675
0.000914644
0.000914699
0.000914699
0.000914698
0.000914678
0.000914806
0.000914834
0.000914834
0.000914832
0.000914844
0.000914844
0.000914997
0.000914998
0.000914998
0.000914995
0.000915125
0.00091513
0.000915241
0.000915357
0.000915357
0.000915356
0.000915492
0.00091567
0.000915682
0.000915682
0.000915802
0.000915996
0.000916196
0.000916329
0.000916395
0.00091647
0.000916678
0.000916837
0.000916981
0.000917164
0.00091744
0.000917574
0.00091773
0.000917943
0.000918258
0.000918538
0.000918885
0.000919239
0.000919657
0.000920042
0.000920609
0.000921139
0.000921879
0.000922548
0.000923751
0.000924521
0.000927118
0.000927491
0.000942416
0.0010091
0.00247989
0.0010234
0.000975751
0.000954069
0.000942325
0.000935023
0.000930153
0.000926684
0.000924163
0.000922242
0.000920779
0.000919615
0.000918702
0.000917953
0.000917352
0.000916848
0.000916441
0.000916083
0.000915793
0.000915545
0.000915343
0.000915151
0.000914998
0.000914864
0.000914757
0.00091463
0.000914545
0.000914474
0.000914417
0.000914344
0.000914302
0.000914267
0.000914229
0.000914136
0.000914144
0.000914143
0.000914134
0.000914088
0.000914101
0.000914101
0.000914098
0.000914066
0.000914121
0.000914121
0.00091412
0.000914099
0.000914228
0.000914256
0.000914256
0.000914254
0.000914266
0.000914265
0.000914419
0.000914419
0.000914419
0.000914416
0.000914547
0.000914553
0.000914663
0.000914779
0.000914779
0.000914778
0.000914914
0.000915093
0.000915106
0.000915106
0.000915226
0.00091542
0.00091562
0.000915754
0.000915821
0.000915896
0.000916105
0.000916264
0.000916408
0.000916592
0.000916868
0.000917004
0.000917161
0.000917374
0.000917689
0.000917969
0.000918317
0.000918672
0.00091909
0.000919477
0.000920044
0.000920575
0.000921316
0.000921984
0.000923189
0.000923958
0.000926557
0.000926917
0.000942031
0.00100889
0.00248574
0.00102335
0.000975535
0.00095373
0.000941905
0.000934547
0.000929636
0.000926137
0.000923593
0.000921653
0.000920175
0.000918999
0.000918076
0.000917318
0.00091671
0.000916201
0.000915788
0.000915425
0.000915131
0.000914881
0.000914676
0.000914481
0.000914326
0.00091419
0.000914082
0.000913953
0.000913867
0.000913794
0.000913736
0.000913662
0.000913619
0.000913583
0.000913545
0.000913452
0.000913459
0.000913457
0.000913447
0.000913401
0.000913414
0.000913413
0.00091341
0.000913378
0.000913432
0.000913432
0.000913431
0.00091341
0.000913538
0.000913566
0.000913566
0.000913564
0.000913576
0.000913575
0.000913729
0.000913729
0.000913729
0.000913726
0.000913857
0.000913864
0.000913974
0.00091409
0.00091409
0.00091409
0.000914225
0.000914405
0.00091442
0.00091442
0.000914539
0.000914733
0.000914933
0.000915069
0.000915138
0.000915213
0.000915421
0.000915581
0.000915726
0.000915909
0.000916186
0.000916323
0.000916482
0.000916695
0.00091701
0.000917291
0.00091764
0.000917995
0.000918415
0.000918802
0.000919371
0.000919901
0.000920645
0.000921311
0.000922519
0.000923287
0.000925888
0.000926233
0.000941574
0.00100858
0.00249179
0.0010233
0.000975284
0.000953337
0.000941417
0.000933995
0.000929036
0.000925501
0.000922929
0.000920968
0.000919472
0.000918282
0.000917347
0.000916579
0.000915963
0.000915447
0.000915028
0.00091466
0.000914362
0.000914107
0.000913899
0.000913701
0.000913544
0.000913405
0.000913295
0.000913165
0.000913077
0.000913003
0.000912944
0.000912868
0.000912824
0.000912787
0.000912749
0.000912655
0.000912661
0.000912658
0.000912648
0.000912602
0.000912613
0.000912613
0.000912609
0.000912576
0.000912629
0.000912629
0.000912628
0.000912607
0.000912735
0.000912763
0.000912763
0.000912761
0.000912772
0.000912772
0.000912926
0.000912926
0.000912926
0.000912923
0.000913054
0.000913063
0.000913171
0.000913288
0.000913288
0.000913288
0.000913423
0.000913604
0.00091362
0.00091362
0.00091374
0.000913933
0.000914134
0.00091427
0.000914341
0.000914417
0.000914624
0.000914785
0.000914931
0.000915115
0.000915392
0.000915531
0.00091569
0.000915903
0.00091622
0.000916501
0.000916852
0.000917207
0.000917629
0.000918016
0.000918586
0.000919117
0.000919863
0.000920528
0.000921738
0.000922505
0.000925109
0.000925436
0.000941042
0.00100816
0.0024976
0.00102325
0.000975
0.000952889
0.000940861
0.000933364
0.000928351
0.000924775
0.000922171
0.000920185
0.000918669
0.000917463
0.000916514
0.000915735
0.00091511
0.000914585
0.000914159
0.000913785
0.000913482
0.000913223
0.000913011
0.000912809
0.000912649
0.000912508
0.000912395
0.000912263
0.000912173
0.000912098
0.000912037
0.00091196
0.000911915
0.000911877
0.000911838
0.000911743
0.000911748
0.000911745
0.000911735
0.000911687
0.000911698
0.000911698
0.000911693
0.000911659
0.000911712
0.000911712
0.000911711
0.000911689
0.000911816
0.000911844
0.000911844
0.000911842
0.000911854
0.000911853
0.000912007
0.000912007
0.000912007
0.000912005
0.000912136
0.000912146
0.000912252
0.000912371
0.000912371
0.00091237
0.000912506
0.000912687
0.000912706
0.000912706
0.000912825
0.000913017
0.00091322
0.000913357
0.000913431
0.000913506
0.000913713
0.000913875
0.000914022
0.000914205
0.000914483
0.000914624
0.000914786
0.000914999
0.000915315
0.000915597
0.000915949
0.000916305
0.000916729
0.000917116
0.000917688
0.000918219
0.000918968
0.000919631
0.000920845
0.000921609
0.000924217
0.000924523
0.000940435
0.00100764
0.00250253
0.00102318
0.000974681
0.000952386
0.000940236
0.000932654
0.000927579
0.000923957
0.000921317
0.000919303
0.000917764
0.000916539
0.000915575
0.000914783
0.000914147
0.000913613
0.000913179
0.000912799
0.00091249
0.000912226
0.00091201
0.000911804
0.00091164
0.000911496
0.000911381
0.000911247
0.000911155
0.000911077
0.000911015
0.000910936
0.00091089
0.00091085
0.000910811
0.000910715
0.000910719
0.000910716
0.000910704
0.000910656
0.000910666
0.000910665
0.00091066
0.000910625
0.000910677
0.000910677
0.000910676
0.000910653
0.000910781
0.000910808
0.000910808
0.000910806
0.000910817
0.000910817
0.000910971
0.000910971
0.000910971
0.000910968
0.0009111
0.000911112
0.000911217
0.000911336
0.000911336
0.000911335
0.000911471
0.000911653
0.000911675
0.000911674
0.000911793
0.000911985
0.000912188
0.000912326
0.000912403
0.000912479
0.000912686
0.000912848
0.000912997
0.00091318
0.000913458
0.000913602
0.000913765
0.000913978
0.000914295
0.000914578
0.000914931
0.000915287
0.000915714
0.000916102
0.000916675
0.000917206
0.000917958
0.000918619
0.000919837
0.000920599
0.00092321
0.000923494
0.000939752
0.001007
0.00250571
0.00102312
0.000974328
0.000951828
0.000939541
0.000931864
0.000926721
0.000923046
0.000920366
0.00091832
0.000916756
0.00091551
0.000914528
0.000913722
0.000913074
0.00091253
0.000912087
0.0009117
0.000911384
0.000911114
0.000910893
0.000910683
0.000910515
0.000910368
0.00091025
0.000910113
0.000910018
0.000909938
0.000909874
0.000909794
0.000909747
0.000909706
0.000909665
0.000909569
0.000909571
0.000909567
0.000909554
0.000909506
0.000909515
0.000909514
0.000909508
0.000909472
0.000909523
0.000909523
0.000909522
0.000909498
0.000909625
0.000909653
0.000909653
0.000909651
0.000909662
0.000909661
0.000909815
0.000909816
0.000909816
0.000909813
0.000909945
0.000909959
0.000910061
0.000910182
0.000910182
0.000910181
0.000910316
0.0009105
0.000910524
0.000910524
0.000910642
0.000910833
0.000911038
0.000911177
0.000911257
0.000911333
0.000911539
0.000911703
0.000911853
0.000912035
0.000912315
0.000912461
0.000912626
0.000912839
0.000913157
0.00091344
0.000913795
0.000914152
0.000914581
0.000914969
0.000915545
0.000916076
0.000916831
0.00091749
0.000918711
0.000919471
0.000922086
0.000922345
0.000938992
0.00100625
0.00250601
0.00102304
0.000973942
0.000951214
0.000938776
0.000930994
0.000925774
0.000922042
0.000919317
0.000917235
0.000915643
0.000914373
0.000913373
0.000912551
0.000911889
0.000911333
0.000910881
0.000910485
0.000910162
0.000909886
0.000909659
0.000909445
0.000909273
0.000909121
0.000909
0.00090886
0.000908763
0.000908681
0.000908615
0.000908533
0.000908483
0.00090844
0.000908399
0.000908302
0.000908302
0.000908298
0.000908284
0.000908235
0.000908242
0.000908242
0.000908235
0.000908197
0.000908247
0.000908247
0.000908246
0.000908221
0.000908348
0.000908376
0.000908376
0.000908374
0.000908384
0.000908384
0.000908538
0.000908538
0.000908538
0.000908535
0.000908668
0.000908684
0.000908784
0.000908906
0.000908906
0.000908906
0.00090904
0.000909226
0.000909253
0.000909252
0.00090937
0.000909561
0.000909766
0.000909907
0.00090999
0.000910066
0.000910272
0.000910437
0.000910588
0.00091077
0.000911051
0.000911199
0.000911366
0.000911579
0.000911899
0.000912183
0.000912539
0.000912897
0.000913328
0.000913717
0.000914295
0.000914826
0.000915585
0.000916242
0.000917466
0.000918224
0.000920843
0.000921074
0.000938153
0.00100539
0.00250343
0.00102296
0.000973521
0.000950545
0.00093794
0.000930042
0.000924738
0.000920942
0.000918168
0.000916047
0.000914423
0.000913128
0.000912107
0.000911267
0.00091059
0.000910022
0.000909559
0.000909154
0.000908822
0.000908539
0.000908306
0.000908087
0.00090791
0.000907754
0.000907629
0.000907487
0.000907386
0.000907301
0.000907233
0.000907149
0.000907098
0.000907053
0.000907011
0.000906913
0.000906912
0.000906906
0.000906891
0.000906841
0.000906847
0.000906846
0.000906839
0.0009068
0.000906849
0.000906849
0.000906847
0.000906821
0.000906948
0.000906975
0.000906975
0.000906973
0.000906983
0.000906982
0.000907137
0.000907137
0.000907137
0.000907134
0.000907268
0.000907286
0.000907384
0.000907507
0.000907507
0.000907507
0.000907641
0.000907827
0.000907858
0.000907858
0.000907975
0.000908164
0.00090837
0.000908513
0.000908599
0.000908676
0.000908882
0.000909048
0.0009092
0.000909383
0.000909664
0.000909815
0.000909985
0.000910198
0.000910518
0.000910803
0.000911162
0.000911519
0.000911954
0.000912344
0.000912924
0.000913454
0.000914217
0.000914872
0.0009161
0.000916855
0.000919478
0.00091968
0.000937233
0.00100441
0.00249798
0.00102288
0.000973067
0.00094982
0.000937033
0.000929009
0.000923612
0.000919747
0.000916918
0.000914755
0.000913096
0.000911773
0.000910728
0.000909869
0.000909176
0.000908594
0.000908119
0.000907704
0.000907364
0.000907073
0.000906833
0.000906608
0.000906426
0.000906265
0.000906136
0.00090599
0.000905887
0.000905798
0.000905728
0.000905642
0.000905588
0.000905542
0.000905498
0.0009054
0.000905396
0.000905389
0.000905373
0.000905322
0.000905327
0.000905326
0.000905318
0.000905277
0.000905324
0.000905324
0.000905323
0.000905296
0.000905422
0.000905449
0.000905449
0.000905447
0.000905457
0.000905456
0.00090561
0.000905611
0.000905611
0.000905608
0.000905742
0.000905762
0.000905857
0.000905982
0.000905982
0.000905982
0.000906115
0.000906304
0.000906338
0.000906338
0.000906455
0.000906643
0.00090685
0.000906994
0.000907084
0.000907162
0.000907367
0.000907534
0.000907688
0.00090787
0.000908152
0.000908307
0.000908479
0.000908692
0.000909013
0.000909299
0.00090966
0.000910018
0.000910455
0.000910846
0.000911429
0.000911959
0.000912725
0.000913378
0.00091461
0.000915362
0.000917989
0.00091816
0.000936231
0.00100332
0.0024897
0.00102279
0.00097258
0.000949039
0.000936054
0.000927892
0.000922395
0.000918454
0.000915567
0.000913356
0.00091166
0.000910306
0.000909236
0.000908356
0.000907645
0.000907047
0.00090656
0.000906133
0.000905784
0.000905484
0.000905237
0.000905005
0.000904818
0.000904652
0.000904519
0.000904369
0.000904262
0.000904171
0.000904097
0.000904009
0.000903953
0.000903904
0.000903859
0.00090376
0.000903754
0.000903745
0.000903729
0.000903677
0.00090368
0.000903678
0.000903669
0.000903627
0.000903673
0.000903673
0.000903671
0.000903643
0.000903769
0.000903795
0.000903795
0.000903793
0.000903803
0.000903801
0.000903956
0.000903957
0.000903957
0.000903953
0.000904088
0.000904111
0.000904203
0.00090433
0.00090433
0.000904329
0.000904463
0.000904652
0.000904691
0.000904691
0.000904807
0.000904994
0.000905202
0.000905348
0.000905442
0.000905521
0.000905725
0.000905893
0.00090605
0.000906231
0.000906514
0.000906672
0.000906847
0.00090706
0.000907382
0.000907669
0.000908031
0.00090839
0.000908831
0.000909222
0.000909807
0.000910337
0.000911108
0.000911758
0.000912995
0.000913743
0.000916374
0.000916512
0.000935143
0.00100211
0.00247863
0.0010227
0.000972061
0.000948202
0.000935004
0.000926693
0.000921086
0.000917063
0.000914112
0.000911851
0.000910114
0.000908727
0.000907629
0.000906725
0.000905995
0.000905381
0.00090488
0.000904441
0.000904081
0.000903772
0.000903517
0.000903278
0.000903085
0.000902914
0.000902776
0.000902622
0.00090251
0.000902415
0.000902339
0.000902248
0.00090219
0.000902138
0.000902092
0.000901992
0.000901984
0.000901973
0.000901955
0.000901903
0.000901905
0.000901902
0.000901892
0.000901848
0.000901892
0.000901892
0.00090189
0.00090186
0.000901986
0.000902012
0.000902012
0.00090201
0.00090202
0.000902017
0.000902172
0.000902173
0.000902173
0.000902169
0.000902305
0.00090233
0.000902419
0.000902548
0.000902548
0.000902548
0.00090268
0.000902871
0.000902915
0.000902915
0.00090303
0.000903215
0.000903425
0.000903572
0.000903671
0.000903751
0.000903954
0.000904124
0.000904282
0.000904463
0.000904747
0.000904908
0.000905086
0.000905299
0.000905622
0.000905911
0.000906275
0.000906634
0.000907079
0.00090747
0.000908058
0.000908588
0.000909363
0.00091001
0.000911251
0.000911995
0.000914631
0.000914733
0.000933967
0.00100077
0.00246483
0.0010226
0.000971509
0.00094731
0.000933882
0.00092541
0.000919686
0.000915573
0.000912553
0.000910237
0.000908456
0.000907033
0.000905905
0.000904977
0.000904225
0.000903594
0.000903077
0.000902625
0.000902253
0.000901935
0.000901671
0.000901425
0.000901225
0.000901048
0.000900904
0.000900746
0.00090063
0.000900532
0.000900452
0.000900358
0.000900297
0.000900243
0.000900195
0.000900093
0.000900083
0.000900071
0.000900052
0.000899998
0.000899999
0.000899995
0.000899984
0.000899937
0.00089998
0.000899981
0.000899978
0.000899947
0.000900072
0.000900097
0.000900097
0.000900095
0.000900105
0.000900102
0.000900257
0.000900258
0.000900258
0.000900254
0.00090039
0.000900419
0.000900504
0.000900635
0.000900635
0.000900634
0.000900767
0.000900959
0.000901008
0.000901007
0.000901122
0.000901305
0.000901516
0.000901665
0.000901769
0.000901849
0.000902052
0.000902223
0.000902383
0.000902564
0.000902849
0.000903013
0.000903195
0.000903408
0.000903733
0.000904021
0.000904388
0.000904748
0.000905196
0.000905588
0.000906179
0.000906708
0.000907488
0.000908131
0.000909377
0.000910117
0.000912757
0.000912823
0.000932699
0.000999307
0.00244836
0.0010225
0.000970925
0.000946363
0.000932688
0.000924043
0.000918192
0.000913984
0.000910889
0.000908514
0.000906685
0.000905223
0.000904063
0.000903108
0.000902334
0.000901683
0.00090115
0.000900684
0.0009003
0.000899971
0.000899698
0.000899444
0.000899236
0.000899052
0.000898904
0.00089874
0.00089862
0.000898517
0.000898434
0.000898337
0.000898273
0.000898216
0.000898166
0.000898063
0.00089805
0.000898036
0.000898016
0.000897961
0.00089796
0.000897956
0.000897943
0.000897895
0.000897936
0.000897936
0.000897933
0.0008979
0.000898024
0.000898049
0.00089805
0.000898047
0.000898056
0.000898053
0.000898208
0.000898209
0.000898209
0.000898205
0.000898342
0.000898373
0.000898455
0.000898588
0.000898588
0.000898588
0.000898719
0.000898913
0.000898967
0.000898967
0.000899081
0.000899262
0.000899475
0.000899625
0.000899733
0.000899815
0.000900018
0.00090019
0.000900352
0.000900532
0.000900819
0.000900986
0.000901171
0.000901384
0.00090171
0.000902
0.000902369
0.000902729
0.000903181
0.000903574
0.000904168
0.000904696
0.000905481
0.000906121
0.000907371
0.000908107
0.00091075
0.000910778
0.000931336
0.000997715
0.00242931
0.0010224
0.00097031
0.000945362
0.000931422
0.000922592
0.000916605
0.000912295
0.00090912
0.000906681
0.000904801
0.000903298
0.000902103
0.000901119
0.000900321
0.000899649
0.000899098
0.000898617
0.000898219
0.000897878
0.000897595
0.000897332
0.000897117
0.000896926
0.000896771
0.000896603
0.000896478
0.00089637
0.000896283
0.000896183
0.000896115
0.000896056
0.000896004
0.000895899
0.000895884
0.000895868
0.000895846
0.00089579
0.000895787
0.000895782
0.000895768
0.000895717
0.000895756
0.000895756
0.000895754
0.000895718
0.000895842
0.000895867
0.000895867
0.000895865
0.000895873
0.000895869
0.000896024
0.000896025
0.000896025
0.000896021
0.000896158
0.000896193
0.000896271
0.000896406
0.000896406
0.000896406
0.000896537
0.000896732
0.000896792
0.000896792
0.000896904
0.000897084
0.000897298
0.00089745
0.000897563
0.000897647
0.000897849
0.000898021
0.000898186
0.000898366
0.000898653
0.000898825
0.000899013
0.000899226
0.000899553
0.000899844
0.000900216
0.000900576
0.000901032
0.000901425
0.000902023
0.00090255
0.000903339
0.000903976
0.00090523
0.000905962
0.000908608
0.000908597
0.000929873
0.00099599
0.00240776
0.00102229
0.000969665
0.000944305
0.000930085
0.000921057
0.000914925
0.000910504
0.000907243
0.000904737
0.000902802
0.000901254
0.000900022
0.000899007
0.000898183
0.000897489
0.000896918
0.000896421
0.00089601
0.000895656
0.000895362
0.00089509
0.000894866
0.000894668
0.000894506
0.000894332
0.000894202
0.000894089
0.000893998
0.000893894
0.000893823
0.00089376
0.000893707
0.0008936
0.000893582
0.000893563
0.00089354
0.000893483
0.000893478
0.000893471
0.000893456
0.000893403
0.00089344
0.00089344
0.000893437
0.0008934
0.000893522
0.000893547
0.000893547
0.000893545
0.000893553
0.000893548
0.000893702
0.000893704
0.000893704
0.0008937
0.000893837
0.000893876
0.000893949
0.000894087
0.000894086
0.000894086
0.000894217
0.000894413
0.000894479
0.00089448
0.000894591
0.000894769
0.000894984
0.000895138
0.000895256
0.000895341
0.000895543
0.000895717
0.000895884
0.000896063
0.000896351
0.000896526
0.000896719
0.000896932
0.00089726
0.000897552
0.000897926
0.000898287
0.000898747
0.000899141
0.000899741
0.000900267
0.000901062
0.000901695
0.000902952
0.00090368
0.000906328
0.000906278
0.000928305
0.000994126
0.00238382
0.00102218
0.000968991
0.000943195
0.000928676
0.000919437
0.000913151
0.000908613
0.00090526
0.000902682
0.000900688
0.000899092
0.00089782
0.000896772
0.000895919
0.000895202
0.000894611
0.000894096
0.000893669
0.000893302
0.000892997
0.000892714
0.000892481
0.000892275
0.000892107
0.000891927
0.000891791
0.000891673
0.000891577
0.000891469
0.000891395
0.000891328
0.000891273
0.000891164
0.000891142
0.000891121
0.000891096
0.000891039
0.000891032
0.000891023
0.000891007
0.000890951
0.000890986
0.000890986
0.000890983
0.000890943
0.000891065
0.000891089
0.000891089
0.000891086
0.000891094
0.000891089
0.000891242
0.000891244
0.000891244
0.00089124
0.000891378
0.000891419
0.000891489
0.000891628
0.000891628
0.000891628
0.000891758
0.000891956
0.000892028
0.00089203
0.000892139
0.000892315
0.000892531
0.000892687
0.00089281
0.000892897
0.000893098
0.000893273
0.000893443
0.000893622
0.000893911
0.000894089
0.000894286
0.000894499
0.000894829
0.000895122
0.000895498
0.000895859
0.000896323
0.000896718
0.000897321
0.000897846
0.000898646
0.000899275
0.000900536
0.000901259
0.00090391
0.000903818
0.000926626
0.00099212
0.00235758
0.00102207
0.000968287
0.000942032
0.000927196
0.000917734
0.000911282
0.000906619
0.000903169
0.000900513
0.000898457
0.00089681
0.000895496
0.000894412
0.00089353
0.000892786
0.000892174
0.000891641
0.000891197
0.000890816
0.000890498
0.000890205
0.000889962
0.000889747
0.000889572
0.000889385
0.000889243
0.000889119
0.000889019
0.000888907
0.000888828
0.000888758
0.0008887
0.000888589
0.000888564
0.00088854
0.000888514
0.000888454
0.000888445
0.000888435
0.000888418
0.00088836
0.000888392
0.000888392
0.000888388
0.000888346
0.000888466
0.000888491
0.00088849
0.000888488
0.000888495
0.000888489
0.000888642
0.000888644
0.000888644
0.000888639
0.000888777
0.000888822
0.000888887
0.00088903
0.00088903
0.00088903
0.000889159
0.000889358
0.000889436
0.000889439
0.000889547
0.00088972
0.000889937
0.000890095
0.000890224
0.000890313
0.000890514
0.000890689
0.000890862
0.00089104
0.00089133
0.000891512
0.000891713
0.000891927
0.000892258
0.000892551
0.000892931
0.000893291
0.00089376
0.000894154
0.000894761
0.000895285
0.00089609
0.000896715
0.000897979
0.000898697
0.00090135
0.000901217
0.000924831
0.000989965
0.00232918
0.00102196
0.000967556
0.000940817
0.000925645
0.000915946
0.000909319
0.000904524
0.00090097
0.000898232
0.000896109
0.000894408
0.000893048
0.000891927
0.000891013
0.000890242
0.000889606
0.000889053
0.000888592
0.000888196
0.000887865
0.00088756
0.000887307
0.000887083
0.000886899
0.000886705
0.000886556
0.000886427
0.000886322
0.000886205
0.000886122
0.000886048
0.000885987
0.000885874
0.000885845
0.000885819
0.000885791
0.000885729
0.000885718
0.000885706
0.000885687
0.000885627
0.000885657
0.000885657
0.000885652
0.000885607
0.000885727
0.00088575
0.00088575
0.000885747
0.000885754
0.000885747
0.000885899
0.000885901
0.000885901
0.000885896
0.000886035
0.000886083
0.000886143
0.000886288
0.000886289
0.000886289
0.000886418
0.000886617
0.000886702
0.000886707
0.000886812
0.000886983
0.000887202
0.000887361
0.000887495
0.000887587
0.000887787
0.000887964
0.000888139
0.000888317
0.000888607
0.000888793
0.000888998
0.000889212
0.000889544
0.000889838
0.000890221
0.000890582
0.000891054
0.000891449
0.000892059
0.000892581
0.000893391
0.000894013
0.00089528
0.000895992
0.000898648
0.000898471
0.000922912
0.000987656
0.00229872
0.00102185
0.000966798
0.00093955
0.000924024
0.000914074
0.000907262
0.000902326
0.000898662
0.000895837
0.000893644
0.000891884
0.000890477
0.000889316
0.000888367
0.000887568
0.000886907
0.000886333
0.000885853
0.000885441
0.000885095
0.000884778
0.000884514
0.00088428
0.000884088
0.000883887
0.000883731
0.000883595
0.000883484
0.000883362
0.000883275
0.000883196
0.000883133
0.000883017
0.000882984
0.000882955
0.000882925
0.000882862
0.000882848
0.000882835
0.000882814
0.000882752
0.000882779
0.000882779
0.000882773
0.000882725
0.000882843
0.000882866
0.000882866
0.000882864
0.00088287
0.000882861
0.000883012
0.000883015
0.000883015
0.00088301
0.000883149
0.0008832
0.000883255
0.000883403
0.000883404
0.000883404
0.000883532
0.000883733
0.000883824
0.000883831
0.000883934
0.000884102
0.000884322
0.000884483
0.000884623
0.000884717
0.000884917
0.000885094
0.000885272
0.00088545
0.000885741
0.00088593
0.00088614
0.000886354
0.000886688
0.000886982
0.000887368
0.000887728
0.000888205
0.0008886
0.000889214
0.000889734
0.000890549
0.000891166
0.000892435
0.000893142
0.000895799
0.00089558
0.000920863
0.000985184
0.00226635
0.00102174
0.000966015
0.000938233
0.000922334
0.000912118
0.000905111
0.000900026
0.000896246
0.000893328
0.00089106
0.000889239
0.00088778
0.000886577
0.000885592
0.000884762
0.000884075
0.000883478
0.000882979
0.000882549
0.000882189
0.000881858
0.000881582
0.000881338
0.000881136
0.000880927
0.000880764
0.000880621
0.000880505
0.000880378
0.000880286
0.000880202
0.000880136
0.000880017
0.00087998
0.000879948
0.000879916
0.000879851
0.000879835
0.000879819
0.000879797
0.000879732
0.000879756
0.000879756
0.000879749
0.000879699
0.000879815
0.000879838
0.000879837
0.000879835
0.00087984
0.00087983
0.000879981
0.000879983
0.000879983
0.000879978