/*--------------------------------*- C++ -*----------------------------------*\
| =========                 |                                                 |
| \\      /  F ield         | OpenFOAM: The Open Source CFD Toolbox           |
|  \\    /   O peration     | Version:  v2012                                 |
|   \\  /    A nd           | Website:  www.openfoam.com                      |
|    \\/     M anipulation  |                                                 |
\*---------------------------------------------------------------------------*/
FoamFile
{
    version     2.0;
    format      ascii;
    class       volScalarField;
    location    "10.5";
    object      nut;
}
// * * * * * * * * * * * * * * * * * * * * * * * * * * * * * * * * * * * * * //

dimensions      [0 2 -1 0 0 0 0];


internalField   nonuniform List<scalar> 
209825
(
1.24285e-07
1.25129e-07
1.25879e-07
1.26414e-07
1.26806e-07
1.27106e-07
1.27343e-07
1.27536e-07
1.27695e-07
1.27827e-07
1.27939e-07
1.28034e-07
1.28117e-07
1.28188e-07
1.28251e-07
1.28305e-07
1.28352e-07
1.28394e-07
1.28433e-07
1.28466e-07
1.28496e-07
1.28523e-07
1.28547e-07
1.28568e-07
1.28586e-07
1.28604e-07
1.2862e-07
1.28634e-07
1.28647e-07
1.28659e-07
1.28671e-07
1.28679e-07
1.28678e-07
1.28689e-07
1.28703e-07
1.28709e-07
1.2871e-07
1.28717e-07
1.28729e-07
1.2873e-07
1.28728e-07
1.28739e-07
1.2875e-07
1.28736e-07
1.28733e-07
1.28751e-07
1.28756e-07
1.28753e-07
1.28754e-07
1.28746e-07
1.28746e-07
1.28748e-07
1.28732e-07
1.28731e-07
1.28731e-07
1.28728e-07
1.28713e-07
1.28724e-07
1.28735e-07
1.28735e-07
1.28725e-07
1.28724e-07
1.28748e-07
1.28736e-07
1.28712e-07
1.28729e-07
1.28757e-07
1.28762e-07
1.28781e-07
1.28766e-07
1.28747e-07
1.28758e-07
1.2875e-07
1.28755e-07
1.28781e-07
1.28796e-07
1.28792e-07
1.28792e-07
1.28786e-07
1.28819e-07
1.28836e-07
1.2885e-07
1.28882e-07
1.28903e-07
1.28921e-07
1.2896e-07
1.28995e-07
1.29041e-07
1.2909e-07
1.29167e-07
1.29226e-07
1.29415e-07
1.29452e-07
1.30562e-07
1.356e-07
2.11234e-08
1.24285e-07
1.25129e-07
1.25879e-07
1.26413e-07
1.26806e-07
1.27106e-07
1.27343e-07
1.27536e-07
1.27695e-07
1.27827e-07
1.27939e-07
1.28035e-07
1.28117e-07
1.28188e-07
1.28251e-07
1.28305e-07
1.28353e-07
1.28394e-07
1.28433e-07
1.28467e-07
1.28497e-07
1.28523e-07
1.28547e-07
1.28568e-07
1.28587e-07
1.28604e-07
1.28621e-07
1.28634e-07
1.28647e-07
1.28659e-07
1.28671e-07
1.28679e-07
1.28679e-07
1.2869e-07
1.28703e-07
1.2871e-07
1.2871e-07
1.28718e-07
1.28729e-07
1.28731e-07
1.28729e-07
1.2874e-07
1.2875e-07
1.28736e-07
1.28733e-07
1.28751e-07
1.28756e-07
1.28754e-07
1.28754e-07
1.28747e-07
1.28747e-07
1.28748e-07
1.28732e-07
1.28732e-07
1.28731e-07
1.28729e-07
1.28713e-07
1.28724e-07
1.28736e-07
1.28736e-07
1.28725e-07
1.28724e-07
1.28749e-07
1.28737e-07
1.28713e-07
1.2873e-07
1.28757e-07
1.28763e-07
1.28781e-07
1.28766e-07
1.28748e-07
1.28758e-07
1.2875e-07
1.28756e-07
1.28782e-07
1.28796e-07
1.28792e-07
1.28793e-07
1.28786e-07
1.2882e-07
1.28836e-07
1.28851e-07
1.28883e-07
1.28903e-07
1.28922e-07
1.2896e-07
1.28996e-07
1.29042e-07
1.29091e-07
1.29168e-07
1.29227e-07
1.29416e-07
1.29453e-07
1.30565e-07
1.35606e-07
2.17518e-08
1.24284e-07
1.25127e-07
1.25877e-07
1.26411e-07
1.26803e-07
1.27103e-07
1.2734e-07
1.27533e-07
1.27692e-07
1.27824e-07
1.27936e-07
1.28032e-07
1.28115e-07
1.28185e-07
1.28248e-07
1.28302e-07
1.2835e-07
1.28392e-07
1.28431e-07
1.28464e-07
1.28494e-07
1.28521e-07
1.28545e-07
1.28566e-07
1.28584e-07
1.28602e-07
1.28618e-07
1.28632e-07
1.28645e-07
1.28657e-07
1.28669e-07
1.28677e-07
1.28676e-07
1.28687e-07
1.28701e-07
1.28708e-07
1.28708e-07
1.28715e-07
1.28727e-07
1.28729e-07
1.28726e-07
1.28738e-07
1.28748e-07
1.28734e-07
1.28731e-07
1.28749e-07
1.28754e-07
1.28752e-07
1.28752e-07
1.28745e-07
1.28745e-07
1.28746e-07
1.2873e-07
1.2873e-07
1.28729e-07
1.28727e-07
1.28711e-07
1.28722e-07
1.28734e-07
1.28734e-07
1.28723e-07
1.28722e-07
1.28747e-07
1.28735e-07
1.28711e-07
1.28728e-07
1.28755e-07
1.28761e-07
1.28779e-07
1.28764e-07
1.28746e-07
1.28757e-07
1.28748e-07
1.28754e-07
1.2878e-07
1.28795e-07
1.28791e-07
1.28791e-07
1.28784e-07
1.28818e-07
1.28834e-07
1.28849e-07
1.28881e-07
1.28902e-07
1.2892e-07
1.28959e-07
1.28994e-07
1.2904e-07
1.29089e-07
1.29166e-07
1.29226e-07
1.29415e-07
1.29451e-07
1.30568e-07
1.35616e-07
2.2532e-08
1.24283e-07
1.25124e-07
1.25872e-07
1.26406e-07
1.26798e-07
1.27098e-07
1.27336e-07
1.27528e-07
1.27687e-07
1.2782e-07
1.27932e-07
1.28028e-07
1.2811e-07
1.28181e-07
1.28244e-07
1.28298e-07
1.28346e-07
1.28388e-07
1.28427e-07
1.2846e-07
1.28491e-07
1.28517e-07
1.28541e-07
1.28562e-07
1.28581e-07
1.28598e-07
1.28615e-07
1.28628e-07
1.28642e-07
1.28653e-07
1.28666e-07
1.28674e-07
1.28673e-07
1.28684e-07
1.28698e-07
1.28704e-07
1.28705e-07
1.28712e-07
1.28724e-07
1.28725e-07
1.28723e-07
1.28734e-07
1.28745e-07
1.28731e-07
1.28728e-07
1.28746e-07
1.28751e-07
1.28749e-07
1.28749e-07
1.28742e-07
1.28742e-07
1.28743e-07
1.28727e-07
1.28727e-07
1.28726e-07
1.28724e-07
1.28709e-07
1.28719e-07
1.28731e-07
1.28731e-07
1.2872e-07
1.28719e-07
1.28744e-07
1.28732e-07
1.28708e-07
1.28725e-07
1.28752e-07
1.28758e-07
1.28776e-07
1.28762e-07
1.28743e-07
1.28754e-07
1.28746e-07
1.28752e-07
1.28777e-07
1.28792e-07
1.28788e-07
1.28789e-07
1.28782e-07
1.28815e-07
1.28832e-07
1.28847e-07
1.28879e-07
1.289e-07
1.28918e-07
1.28957e-07
1.28992e-07
1.29038e-07
1.29087e-07
1.29164e-07
1.29224e-07
1.29413e-07
1.29449e-07
1.30572e-07
1.35631e-07
2.33987e-08
1.24281e-07
1.25119e-07
1.25867e-07
1.264e-07
1.26792e-07
1.27092e-07
1.2733e-07
1.27523e-07
1.27682e-07
1.27814e-07
1.27927e-07
1.28022e-07
1.28105e-07
1.28176e-07
1.28239e-07
1.28293e-07
1.28341e-07
1.28383e-07
1.28422e-07
1.28456e-07
1.28486e-07
1.28512e-07
1.28537e-07
1.28558e-07
1.28576e-07
1.28594e-07
1.2861e-07
1.28624e-07
1.28637e-07
1.28649e-07
1.28662e-07
1.28669e-07
1.28669e-07
1.2868e-07
1.28694e-07
1.287e-07
1.28701e-07
1.28708e-07
1.2872e-07
1.28722e-07
1.28719e-07
1.2873e-07
1.28741e-07
1.28727e-07
1.28724e-07
1.28742e-07
1.28747e-07
1.28745e-07
1.28745e-07
1.28738e-07
1.28738e-07
1.2874e-07
1.28724e-07
1.28723e-07
1.28723e-07
1.2872e-07
1.28705e-07
1.28716e-07
1.28728e-07
1.28728e-07
1.28717e-07
1.28716e-07
1.28741e-07
1.28729e-07
1.28705e-07
1.28722e-07
1.28749e-07
1.28755e-07
1.28773e-07
1.28759e-07
1.2874e-07
1.28751e-07
1.28743e-07
1.28749e-07
1.28774e-07
1.28789e-07
1.28785e-07
1.28786e-07
1.28779e-07
1.28813e-07
1.28829e-07
1.28844e-07
1.28876e-07
1.28897e-07
1.28916e-07
1.28954e-07
1.2899e-07
1.29036e-07
1.29085e-07
1.29162e-07
1.29221e-07
1.29411e-07
1.29446e-07
1.30579e-07
1.35652e-07
2.43393e-08
1.24279e-07
1.25113e-07
1.2586e-07
1.26393e-07
1.26785e-07
1.27085e-07
1.27323e-07
1.27515e-07
1.27674e-07
1.27807e-07
1.2792e-07
1.28016e-07
1.28099e-07
1.2817e-07
1.28233e-07
1.28287e-07
1.28335e-07
1.28377e-07
1.28416e-07
1.2845e-07
1.2848e-07
1.28507e-07
1.28531e-07
1.28552e-07
1.28571e-07
1.28588e-07
1.28605e-07
1.28619e-07
1.28632e-07
1.28644e-07
1.28657e-07
1.28664e-07
1.28664e-07
1.28675e-07
1.28689e-07
1.28696e-07
1.28696e-07
1.28703e-07
1.28715e-07
1.28717e-07
1.28715e-07
1.28726e-07
1.28736e-07
1.28722e-07
1.2872e-07
1.28738e-07
1.28743e-07
1.2874e-07
1.28741e-07
1.28734e-07
1.28734e-07
1.28735e-07
1.28719e-07
1.28719e-07
1.28719e-07
1.28716e-07
1.28701e-07
1.28712e-07
1.28724e-07
1.28724e-07
1.28713e-07
1.28712e-07
1.28737e-07
1.28725e-07
1.28701e-07
1.28718e-07
1.28745e-07
1.28751e-07
1.2877e-07
1.28755e-07
1.28737e-07
1.28747e-07
1.28739e-07
1.28745e-07
1.28771e-07
1.28786e-07
1.28782e-07
1.28783e-07
1.28776e-07
1.28809e-07
1.28826e-07
1.28841e-07
1.28873e-07
1.28894e-07
1.28913e-07
1.28951e-07
1.28987e-07
1.29033e-07
1.29082e-07
1.2916e-07
1.29219e-07
1.29409e-07
1.29443e-07
1.30588e-07
1.35677e-07
2.53513e-08
1.24276e-07
1.25106e-07
1.25851e-07
1.26384e-07
1.26776e-07
1.27076e-07
1.27314e-07
1.27507e-07
1.27666e-07
1.27799e-07
1.27912e-07
1.28008e-07
1.28091e-07
1.28162e-07
1.28225e-07
1.2828e-07
1.28328e-07
1.2837e-07
1.2841e-07
1.28443e-07
1.28474e-07
1.285e-07
1.28525e-07
1.28546e-07
1.28565e-07
1.28582e-07
1.28599e-07
1.28613e-07
1.28626e-07
1.28638e-07
1.28651e-07
1.28659e-07
1.28659e-07
1.28669e-07
1.28683e-07
1.2869e-07
1.2869e-07
1.28698e-07
1.28709e-07
1.28711e-07
1.28709e-07
1.2872e-07
1.28731e-07
1.28717e-07
1.28714e-07
1.28733e-07
1.28738e-07
1.28735e-07
1.28736e-07
1.28729e-07
1.28729e-07
1.2873e-07
1.28715e-07
1.28714e-07
1.28714e-07
1.28711e-07
1.28696e-07
1.28707e-07
1.28719e-07
1.28719e-07
1.28708e-07
1.28707e-07
1.28732e-07
1.28721e-07
1.28697e-07
1.28713e-07
1.28741e-07
1.28746e-07
1.28765e-07
1.28751e-07
1.28733e-07
1.28743e-07
1.28735e-07
1.28741e-07
1.28767e-07
1.28782e-07
1.28778e-07
1.28779e-07
1.28772e-07
1.28805e-07
1.28823e-07
1.28837e-07
1.28869e-07
1.28891e-07
1.28909e-07
1.28948e-07
1.28984e-07
1.2903e-07
1.29079e-07
1.29157e-07
1.29216e-07
1.29406e-07
1.2944e-07
1.306e-07
1.35706e-07
2.6435e-08
1.24273e-07
1.25098e-07
1.25841e-07
1.26373e-07
1.26765e-07
1.27065e-07
1.27303e-07
1.27496e-07
1.27656e-07
1.27789e-07
1.27902e-07
1.27998e-07
1.28082e-07
1.28153e-07
1.28217e-07
1.28272e-07
1.2832e-07
1.28362e-07
1.28402e-07
1.28435e-07
1.28466e-07
1.28493e-07
1.28517e-07
1.28538e-07
1.28557e-07
1.28575e-07
1.28592e-07
1.28606e-07
1.28619e-07
1.28631e-07
1.28644e-07
1.28652e-07
1.28652e-07
1.28663e-07
1.28677e-07
1.28684e-07
1.28684e-07
1.28691e-07
1.28703e-07
1.28705e-07
1.28703e-07
1.28714e-07
1.28725e-07
1.28711e-07
1.28708e-07
1.28726e-07
1.28731e-07
1.28729e-07
1.2873e-07
1.28723e-07
1.28723e-07
1.28724e-07
1.28709e-07
1.28708e-07
1.28708e-07
1.28706e-07
1.28691e-07
1.28701e-07
1.28713e-07
1.28714e-07
1.28703e-07
1.28701e-07
1.28727e-07
1.28716e-07
1.28691e-07
1.28708e-07
1.28736e-07
1.28741e-07
1.2876e-07
1.28747e-07
1.28728e-07
1.28739e-07
1.28731e-07
1.28737e-07
1.28762e-07
1.28777e-07
1.28774e-07
1.28775e-07
1.28768e-07
1.28801e-07
1.28818e-07
1.28833e-07
1.28865e-07
1.28887e-07
1.28906e-07
1.28944e-07
1.2898e-07
1.29027e-07
1.29076e-07
1.29154e-07
1.29213e-07
1.29404e-07
1.29436e-07
1.30614e-07
1.35736e-07
2.75915e-08
1.24269e-07
1.25088e-07
1.2583e-07
1.26361e-07
1.26753e-07
1.27053e-07
1.27292e-07
1.27485e-07
1.27645e-07
1.27778e-07
1.27892e-07
1.27988e-07
1.28072e-07
1.28143e-07
1.28207e-07
1.28262e-07
1.2831e-07
1.28353e-07
1.28392e-07
1.28426e-07
1.28457e-07
1.28484e-07
1.28509e-07
1.2853e-07
1.28549e-07
1.28567e-07
1.28584e-07
1.28598e-07
1.28612e-07
1.28624e-07
1.28636e-07
1.28644e-07
1.28645e-07
1.28655e-07
1.2867e-07
1.28676e-07
1.28677e-07
1.28684e-07
1.28696e-07
1.28698e-07
1.28696e-07
1.28707e-07
1.28718e-07
1.28705e-07
1.28701e-07
1.2872e-07
1.28725e-07
1.28723e-07
1.28723e-07
1.28716e-07
1.28716e-07
1.28718e-07
1.28702e-07
1.28702e-07
1.28702e-07
1.28699e-07
1.28685e-07
1.28695e-07
1.28707e-07
1.28707e-07
1.28696e-07
1.28695e-07
1.28721e-07
1.2871e-07
1.28686e-07
1.28703e-07
1.2873e-07
1.28736e-07
1.28755e-07
1.28741e-07
1.28723e-07
1.28733e-07
1.28726e-07
1.28731e-07
1.28757e-07
1.28772e-07
1.28769e-07
1.2877e-07
1.28764e-07
1.28796e-07
1.28814e-07
1.28829e-07
1.28861e-07
1.28883e-07
1.28902e-07
1.28941e-07
1.28976e-07
1.29023e-07
1.29072e-07
1.2915e-07
1.2921e-07
1.29401e-07
1.29431e-07
1.3063e-07
1.35768e-07
2.88215e-08
1.24265e-07
1.25077e-07
1.25816e-07
1.26347e-07
1.26739e-07
1.2704e-07
1.27278e-07
1.27472e-07
1.27632e-07
1.27765e-07
1.27879e-07
1.27976e-07
1.2806e-07
1.28132e-07
1.28196e-07
1.28251e-07
1.283e-07
1.28342e-07
1.28382e-07
1.28416e-07
1.28447e-07
1.28474e-07
1.28499e-07
1.28521e-07
1.2854e-07
1.28558e-07
1.28575e-07
1.28589e-07
1.28603e-07
1.28615e-07
1.28628e-07
1.28636e-07
1.28636e-07
1.28647e-07
1.28662e-07
1.28668e-07
1.28669e-07
1.28676e-07
1.28688e-07
1.2869e-07
1.28688e-07
1.28699e-07
1.2871e-07
1.28697e-07
1.28694e-07
1.28712e-07
1.28717e-07
1.28715e-07
1.28716e-07
1.28709e-07
1.28709e-07
1.28711e-07
1.28695e-07
1.28695e-07
1.28695e-07
1.28692e-07
1.28678e-07
1.28688e-07
1.28701e-07
1.28701e-07
1.2869e-07
1.28688e-07
1.28714e-07
1.28704e-07
1.28679e-07
1.28696e-07
1.28723e-07
1.28729e-07
1.28749e-07
1.28736e-07
1.28717e-07
1.28728e-07
1.2872e-07
1.28726e-07
1.28752e-07
1.28767e-07
1.28764e-07
1.28765e-07
1.28759e-07
1.28791e-07
1.28809e-07
1.28824e-07
1.28856e-07
1.28878e-07
1.28897e-07
1.28936e-07
1.28972e-07
1.29019e-07
1.29068e-07
1.29147e-07
1.29206e-07
1.29398e-07
1.29427e-07
1.3065e-07
1.358e-07
3.01248e-08
1.2426e-07
1.25065e-07
1.25802e-07
1.26332e-07
1.26723e-07
1.27024e-07
1.27263e-07
1.27457e-07
1.27617e-07
1.27751e-07
1.27866e-07
1.27963e-07
1.28047e-07
1.28119e-07
1.28183e-07
1.28239e-07
1.28288e-07
1.2833e-07
1.28371e-07
1.28405e-07
1.28436e-07
1.28464e-07
1.28489e-07
1.2851e-07
1.2853e-07
1.28548e-07
1.28565e-07
1.28579e-07
1.28593e-07
1.28605e-07
1.28618e-07
1.28627e-07
1.28627e-07
1.28638e-07
1.28652e-07
1.28659e-07
1.2866e-07
1.28667e-07
1.28679e-07
1.28682e-07
1.28679e-07
1.2869e-07
1.28702e-07
1.28689e-07
1.28685e-07
1.28704e-07
1.28709e-07
1.28707e-07
1.28708e-07
1.28701e-07
1.28701e-07
1.28703e-07
1.28688e-07
1.28687e-07
1.28687e-07
1.28685e-07
1.28671e-07
1.28681e-07
1.28693e-07
1.28693e-07
1.28682e-07
1.28681e-07
1.28707e-07
1.28697e-07
1.28673e-07
1.28689e-07
1.28716e-07
1.28723e-07
1.28742e-07
1.28729e-07
1.28711e-07
1.28721e-07
1.28714e-07
1.2872e-07
1.28745e-07
1.28761e-07
1.28758e-07
1.2876e-07
1.28753e-07
1.28785e-07
1.28803e-07
1.28819e-07
1.2885e-07
1.28873e-07
1.28892e-07
1.28931e-07
1.28968e-07
1.29015e-07
1.29064e-07
1.29143e-07
1.29202e-07
1.29394e-07
1.29421e-07
1.30672e-07
1.35833e-07
3.14992e-08
1.24255e-07
1.25052e-07
1.25785e-07
1.26315e-07
1.26706e-07
1.27007e-07
1.27246e-07
1.27441e-07
1.27601e-07
1.27736e-07
1.27851e-07
1.27948e-07
1.28033e-07
1.28105e-07
1.2817e-07
1.28226e-07
1.28275e-07
1.28318e-07
1.28358e-07
1.28393e-07
1.28424e-07
1.28452e-07
1.28477e-07
1.28499e-07
1.28518e-07
1.28537e-07
1.28554e-07
1.28568e-07
1.28582e-07
1.28595e-07
1.28608e-07
1.28616e-07
1.28617e-07
1.28628e-07
1.28642e-07
1.28649e-07
1.2865e-07
1.28658e-07
1.2867e-07
1.28672e-07
1.2867e-07
1.28681e-07
1.28692e-07
1.2868e-07
1.28676e-07
1.28694e-07
1.28699e-07
1.28698e-07
1.28699e-07
1.28692e-07
1.28692e-07
1.28694e-07
1.28679e-07
1.28679e-07
1.28678e-07
1.28676e-07
1.28663e-07
1.28673e-07
1.28685e-07
1.28685e-07
1.28674e-07
1.28673e-07
1.28699e-07
1.2869e-07
1.28665e-07
1.28682e-07
1.28709e-07
1.28715e-07
1.28735e-07
1.28723e-07
1.28704e-07
1.28714e-07
1.28707e-07
1.28713e-07
1.28739e-07
1.28754e-07
1.28752e-07
1.28754e-07
1.28747e-07
1.28779e-07
1.28797e-07
1.28813e-07
1.28844e-07
1.28868e-07
1.28887e-07
1.28926e-07
1.28962e-07
1.2901e-07
1.29059e-07
1.29138e-07
1.29197e-07
1.2939e-07
1.29416e-07
1.30697e-07
1.35868e-07
3.29406e-08
1.24249e-07
1.25037e-07
1.25767e-07
1.26296e-07
1.26687e-07
1.26988e-07
1.27228e-07
1.27423e-07
1.27584e-07
1.27719e-07
1.27834e-07
1.27932e-07
1.28017e-07
1.2809e-07
1.28155e-07
1.28211e-07
1.2826e-07
1.28304e-07
1.28344e-07
1.28379e-07
1.28411e-07
1.28439e-07
1.28464e-07
1.28486e-07
1.28506e-07
1.28524e-07
1.28542e-07
1.28556e-07
1.28571e-07
1.28583e-07
1.28596e-07
1.28605e-07
1.28606e-07
1.28617e-07
1.28632e-07
1.28638e-07
1.28639e-07
1.28647e-07
1.28659e-07
1.28662e-07
1.28659e-07
1.2867e-07
1.28682e-07
1.2867e-07
1.28666e-07
1.28684e-07
1.28689e-07
1.28688e-07
1.28689e-07
1.28683e-07
1.28683e-07
1.28685e-07
1.2867e-07
1.2867e-07
1.28669e-07
1.28667e-07
1.28654e-07
1.28664e-07
1.28677e-07
1.28677e-07
1.28665e-07
1.28664e-07
1.2869e-07
1.28682e-07
1.28657e-07
1.28673e-07
1.287e-07
1.28707e-07
1.28727e-07
1.28715e-07
1.28697e-07
1.28707e-07
1.287e-07
1.28705e-07
1.28731e-07
1.28747e-07
1.28745e-07
1.28747e-07
1.28741e-07
1.28772e-07
1.28791e-07
1.28806e-07
1.28838e-07
1.28862e-07
1.28881e-07
1.2892e-07
1.28957e-07
1.29005e-07
1.29053e-07
1.29134e-07
1.29192e-07
1.29386e-07
1.29409e-07
1.30725e-07
1.35903e-07
3.44524e-08
1.24243e-07
1.25021e-07
1.25748e-07
1.26275e-07
1.26667e-07
1.26968e-07
1.27208e-07
1.27403e-07
1.27565e-07
1.277e-07
1.27816e-07
1.27914e-07
1.27999e-07
1.28073e-07
1.28138e-07
1.28195e-07
1.28245e-07
1.28288e-07
1.28329e-07
1.28365e-07
1.28396e-07
1.28424e-07
1.2845e-07
1.28472e-07
1.28493e-07
1.28511e-07
1.28529e-07
1.28543e-07
1.28558e-07
1.28571e-07
1.28584e-07
1.28593e-07
1.28594e-07
1.28605e-07
1.2862e-07
1.28627e-07
1.28628e-07
1.28635e-07
1.28648e-07
1.2865e-07
1.28648e-07
1.28659e-07
1.28671e-07
1.28659e-07
1.28655e-07
1.28673e-07
1.28678e-07
1.28677e-07
1.28678e-07
1.28672e-07
1.28672e-07
1.28674e-07
1.2866e-07
1.28659e-07
1.28659e-07
1.28657e-07
1.28644e-07
1.28654e-07
1.28667e-07
1.28667e-07
1.28655e-07
1.28654e-07
1.2868e-07
1.28673e-07
1.28648e-07
1.28664e-07
1.28691e-07
1.28698e-07
1.28718e-07
1.28707e-07
1.28689e-07
1.28699e-07
1.28692e-07
1.28697e-07
1.28723e-07
1.28739e-07
1.28737e-07
1.2874e-07
1.28734e-07
1.28765e-07
1.28784e-07
1.28799e-07
1.28831e-07
1.28855e-07
1.28875e-07
1.28914e-07
1.28951e-07
1.28999e-07
1.29048e-07
1.29129e-07
1.29187e-07
1.29382e-07
1.29402e-07
1.30756e-07
1.3594e-07
3.6038e-08
1.24237e-07
1.25004e-07
1.25727e-07
1.26253e-07
1.26644e-07
1.26946e-07
1.27186e-07
1.27382e-07
1.27544e-07
1.2768e-07
1.27796e-07
1.27895e-07
1.27981e-07
1.28055e-07
1.2812e-07
1.28177e-07
1.28228e-07
1.28272e-07
1.28313e-07
1.28349e-07
1.28381e-07
1.28409e-07
1.28435e-07
1.28457e-07
1.28478e-07
1.28497e-07
1.28515e-07
1.28529e-07
1.28544e-07
1.28557e-07
1.2857e-07
1.2858e-07
1.28581e-07
1.28592e-07
1.28607e-07
1.28614e-07
1.28615e-07
1.28623e-07
1.28635e-07
1.28638e-07
1.28635e-07
1.28647e-07
1.28659e-07
1.28647e-07
1.28643e-07
1.28661e-07
1.28666e-07
1.28665e-07
1.28667e-07
1.28661e-07
1.28661e-07
1.28663e-07
1.28649e-07
1.28649e-07
1.28648e-07
1.28647e-07
1.28634e-07
1.28644e-07
1.28657e-07
1.28657e-07
1.28645e-07
1.28643e-07
1.2867e-07
1.28664e-07
1.28638e-07
1.28655e-07
1.28681e-07
1.28688e-07
1.28709e-07
1.28698e-07
1.2868e-07
1.2869e-07
1.28684e-07
1.28689e-07
1.28715e-07
1.28731e-07
1.28729e-07
1.28732e-07
1.28726e-07
1.28757e-07
1.28776e-07
1.28792e-07
1.28824e-07
1.28848e-07
1.28868e-07
1.28908e-07
1.28944e-07
1.28993e-07
1.29042e-07
1.29123e-07
1.29181e-07
1.29377e-07
1.29395e-07
1.30789e-07
1.35978e-07
3.77016e-08
1.2423e-07
1.24985e-07
1.25704e-07
1.26229e-07
1.2662e-07
1.26922e-07
1.27162e-07
1.27359e-07
1.27522e-07
1.27658e-07
1.27775e-07
1.27874e-07
1.2796e-07
1.28035e-07
1.28101e-07
1.28158e-07
1.28209e-07
1.28254e-07
1.28295e-07
1.28331e-07
1.28364e-07
1.28392e-07
1.28419e-07
1.28441e-07
1.28462e-07
1.28481e-07
1.28499e-07
1.28514e-07
1.28529e-07
1.28542e-07
1.28556e-07
1.28565e-07
1.28567e-07
1.28578e-07
1.28593e-07
1.286e-07
1.28602e-07
1.28609e-07
1.28622e-07
1.28625e-07
1.28622e-07
1.28633e-07
1.28646e-07
1.28634e-07
1.2863e-07
1.28648e-07
1.28654e-07
1.28653e-07
1.28655e-07
1.28649e-07
1.28649e-07
1.28651e-07
1.28637e-07
1.28637e-07
1.28636e-07
1.28635e-07
1.28623e-07
1.28632e-07
1.28645e-07
1.28645e-07
1.28633e-07
1.28632e-07
1.28659e-07
1.28653e-07
1.28628e-07
1.28644e-07
1.28671e-07
1.28678e-07
1.28699e-07
1.28689e-07
1.28671e-07
1.2868e-07
1.28674e-07
1.2868e-07
1.28705e-07
1.28722e-07
1.28721e-07
1.28724e-07
1.28718e-07
1.28749e-07
1.28768e-07
1.28784e-07
1.28816e-07
1.28841e-07
1.28861e-07
1.28901e-07
1.28937e-07
1.28987e-07
1.29035e-07
1.29117e-07
1.29175e-07
1.29372e-07
1.29387e-07
1.30826e-07
1.36018e-07
3.94471e-08
1.24223e-07
1.24965e-07
1.25679e-07
1.26203e-07
1.26594e-07
1.26896e-07
1.27137e-07
1.27334e-07
1.27497e-07
1.27634e-07
1.27752e-07
1.27851e-07
1.27939e-07
1.28014e-07
1.2808e-07
1.28138e-07
1.2819e-07
1.28234e-07
1.28276e-07
1.28313e-07
1.28346e-07
1.28374e-07
1.28401e-07
1.28424e-07
1.28445e-07
1.28464e-07
1.28483e-07
1.28498e-07
1.28513e-07
1.28526e-07
1.2854e-07
1.2855e-07
1.28552e-07
1.28563e-07
1.28578e-07
1.28586e-07
1.28587e-07
1.28595e-07
1.28608e-07
1.2861e-07
1.28608e-07
1.28619e-07
1.28632e-07
1.28621e-07
1.28617e-07
1.28635e-07
1.2864e-07
1.28639e-07
1.28641e-07
1.28636e-07
1.28636e-07
1.28638e-07
1.28624e-07
1.28624e-07
1.28624e-07
1.28623e-07
1.28611e-07
1.2862e-07
1.28633e-07
1.28634e-07
1.28621e-07
1.2862e-07
1.28647e-07
1.28643e-07
1.28617e-07
1.28633e-07
1.28659e-07
1.28667e-07
1.28688e-07
1.28678e-07
1.28661e-07
1.2867e-07
1.28665e-07
1.2867e-07
1.28695e-07
1.28712e-07
1.28711e-07
1.28715e-07
1.28709e-07
1.28739e-07
1.28759e-07
1.28775e-07
1.28807e-07
1.28833e-07
1.28853e-07
1.28893e-07
1.2893e-07
1.2898e-07
1.29028e-07
1.2911e-07
1.29168e-07
1.29366e-07
1.29378e-07
1.30865e-07
1.36058e-07
4.12786e-08
1.24215e-07
1.24944e-07
1.25653e-07
1.26175e-07
1.26566e-07
1.26868e-07
1.2711e-07
1.27307e-07
1.27471e-07
1.27609e-07
1.27727e-07
1.27827e-07
1.27915e-07
1.27991e-07
1.28058e-07
1.28116e-07
1.28168e-07
1.28213e-07
1.28256e-07
1.28293e-07
1.28326e-07
1.28355e-07
1.28382e-07
1.28406e-07
1.28427e-07
1.28446e-07
1.28465e-07
1.2848e-07
1.28496e-07
1.28509e-07
1.28523e-07
1.28533e-07
1.28536e-07
1.28547e-07
1.28562e-07
1.2857e-07
1.28572e-07
1.28579e-07
1.28592e-07
1.28595e-07
1.28593e-07
1.28604e-07
1.28617e-07
1.28606e-07
1.28602e-07
1.2862e-07
1.28625e-07
1.28625e-07
1.28627e-07
1.28622e-07
1.28622e-07
1.28625e-07
1.28611e-07
1.28611e-07
1.2861e-07
1.28609e-07
1.28598e-07
1.28607e-07
1.28621e-07
1.28621e-07
1.28608e-07
1.28607e-07
1.28634e-07
1.28631e-07
1.28605e-07
1.28621e-07
1.28647e-07
1.28655e-07
1.28676e-07
1.28668e-07
1.2865e-07
1.28659e-07
1.28654e-07
1.28659e-07
1.28685e-07
1.28701e-07
1.28701e-07
1.28705e-07
1.287e-07
1.2873e-07
1.28749e-07
1.28766e-07
1.28798e-07
1.28824e-07
1.28844e-07
1.28885e-07
1.28922e-07
1.28972e-07
1.2902e-07
1.29103e-07
1.29161e-07
1.2936e-07
1.29369e-07
1.30907e-07
1.361e-07
4.32004e-08
1.24207e-07
1.24922e-07
1.25625e-07
1.26146e-07
1.26536e-07
1.26838e-07
1.27081e-07
1.27279e-07
1.27443e-07
1.27582e-07
1.27701e-07
1.27802e-07
1.2789e-07
1.27966e-07
1.28034e-07
1.28093e-07
1.28146e-07
1.28191e-07
1.28234e-07
1.28271e-07
1.28305e-07
1.28335e-07
1.28362e-07
1.28386e-07
1.28407e-07
1.28427e-07
1.28446e-07
1.28462e-07
1.28477e-07
1.28491e-07
1.28505e-07
1.28516e-07
1.28518e-07
1.2853e-07
1.28545e-07
1.28553e-07
1.28555e-07
1.28563e-07
1.28576e-07
1.28579e-07
1.28576e-07
1.28587e-07
1.28601e-07
1.28591e-07
1.28586e-07
1.28604e-07
1.28609e-07
1.28609e-07
1.28612e-07
1.28607e-07
1.28607e-07
1.2861e-07
1.28597e-07
1.28596e-07
1.28596e-07
1.28595e-07
1.28585e-07
1.28593e-07
1.28607e-07
1.28607e-07
1.28595e-07
1.28593e-07
1.2862e-07
1.28618e-07
1.28592e-07
1.28608e-07
1.28634e-07
1.28642e-07
1.28664e-07
1.28656e-07
1.28639e-07
1.28648e-07
1.28643e-07
1.28647e-07
1.28673e-07
1.2869e-07
1.2869e-07
1.28695e-07
1.28689e-07
1.28719e-07
1.28739e-07
1.28756e-07
1.28788e-07
1.28815e-07
1.28835e-07
1.28876e-07
1.28913e-07
1.28964e-07
1.29012e-07
1.29096e-07
1.29153e-07
1.29353e-07
1.29359e-07
1.30952e-07
1.36142e-07
4.52166e-08
1.24199e-07
1.24898e-07
1.25596e-07
1.26114e-07
1.26504e-07
1.26807e-07
1.2705e-07
1.27248e-07
1.27414e-07
1.27553e-07
1.27672e-07
1.27774e-07
1.27863e-07
1.2794e-07
1.28009e-07
1.28068e-07
1.28121e-07
1.28167e-07
1.28211e-07
1.28248e-07
1.28283e-07
1.28313e-07
1.28341e-07
1.28364e-07
1.28386e-07
1.28406e-07
1.28426e-07
1.28442e-07
1.28458e-07
1.28472e-07
1.28486e-07
1.28497e-07
1.285e-07
1.28511e-07
1.28527e-07
1.28535e-07
1.28537e-07
1.28545e-07
1.28558e-07
1.28562e-07
1.28559e-07
1.2857e-07
1.28584e-07
1.28574e-07
1.28569e-07
1.28587e-07
1.28593e-07
1.28593e-07
1.28596e-07
1.28591e-07
1.28591e-07
1.28594e-07
1.28581e-07
1.28581e-07
1.28581e-07
1.2858e-07
1.2857e-07
1.28579e-07
1.28592e-07
1.28592e-07
1.2858e-07
1.28578e-07
1.28606e-07
1.28605e-07
1.28579e-07
1.28594e-07
1.2862e-07
1.28628e-07
1.2865e-07
1.28643e-07
1.28627e-07
1.28635e-07
1.28631e-07
1.28635e-07
1.28661e-07
1.28678e-07
1.28679e-07
1.28684e-07
1.28679e-07
1.28708e-07
1.28728e-07
1.28746e-07
1.28777e-07
1.28805e-07
1.28825e-07
1.28866e-07
1.28903e-07
1.28955e-07
1.29003e-07
1.29087e-07
1.29145e-07
1.29345e-07
1.29348e-07
1.30999e-07
1.36185e-07
4.73315e-08
1.2419e-07
1.24873e-07
1.25564e-07
1.26081e-07
1.2647e-07
1.26773e-07
1.27017e-07
1.27216e-07
1.27382e-07
1.27522e-07
1.27642e-07
1.27745e-07
1.27835e-07
1.27912e-07
1.27982e-07
1.28042e-07
1.28095e-07
1.28142e-07
1.28186e-07
1.28224e-07
1.28259e-07
1.28289e-07
1.28318e-07
1.28342e-07
1.28364e-07
1.28385e-07
1.28404e-07
1.28421e-07
1.28437e-07
1.28451e-07
1.28466e-07
1.28477e-07
1.2848e-07
1.28492e-07
1.28507e-07
1.28516e-07
1.28519e-07
1.28526e-07
1.2854e-07
1.28543e-07
1.28541e-07
1.28552e-07
1.28566e-07
1.28557e-07
1.28551e-07
1.28569e-07
1.28575e-07
1.28575e-07
1.28579e-07
1.28574e-07
1.28574e-07
1.28577e-07
1.28565e-07
1.28565e-07
1.28564e-07
1.28564e-07
1.28555e-07
1.28563e-07
1.28577e-07
1.28577e-07
1.28564e-07
1.28562e-07
1.2859e-07
1.28591e-07
1.28565e-07
1.2858e-07
1.28606e-07
1.28614e-07
1.28636e-07
1.2863e-07
1.28614e-07
1.28622e-07
1.28618e-07
1.28622e-07
1.28648e-07
1.28666e-07
1.28667e-07
1.28672e-07
1.28667e-07
1.28696e-07
1.28717e-07
1.28734e-07
1.28766e-07
1.28794e-07
1.28815e-07
1.28856e-07
1.28893e-07
1.28946e-07
1.28993e-07
1.29078e-07
1.29135e-07
1.29337e-07
1.29337e-07
1.31048e-07
1.36229e-07
4.95488e-08
1.24181e-07
1.24847e-07
1.25531e-07
1.26046e-07
1.26435e-07
1.26738e-07
1.26982e-07
1.27181e-07
1.27349e-07
1.2749e-07
1.27611e-07
1.27714e-07
1.27805e-07
1.27883e-07
1.27953e-07
1.28014e-07
1.28068e-07
1.28115e-07
1.2816e-07
1.28198e-07
1.28234e-07
1.28264e-07
1.28293e-07
1.28318e-07
1.28341e-07
1.28361e-07
1.28382e-07
1.28398e-07
1.28415e-07
1.28429e-07
1.28444e-07
1.28456e-07
1.28459e-07
1.28471e-07
1.28487e-07
1.28495e-07
1.28498e-07
1.28506e-07
1.2852e-07
1.28524e-07
1.28521e-07
1.28532e-07
1.28547e-07
1.28538e-07
1.28532e-07
1.2855e-07
1.28556e-07
1.28557e-07
1.2856e-07
1.28556e-07
1.28556e-07
1.2856e-07
1.28548e-07
1.28547e-07
1.28547e-07
1.28547e-07
1.28538e-07
1.28546e-07
1.28561e-07
1.2856e-07
1.28547e-07
1.28546e-07
1.28574e-07
1.28576e-07
1.2855e-07
1.28565e-07
1.2859e-07
1.28599e-07
1.28621e-07
1.28616e-07
1.286e-07
1.28608e-07
1.28604e-07
1.28609e-07
1.28634e-07
1.28652e-07
1.28654e-07
1.2866e-07
1.28655e-07
1.28683e-07
1.28705e-07
1.28722e-07
1.28754e-07
1.28782e-07
1.28804e-07
1.28845e-07
1.28883e-07
1.28935e-07
1.28983e-07
1.29069e-07
1.29126e-07
1.29328e-07
1.29325e-07
1.31099e-07
1.36273e-07
5.1872e-08
1.24172e-07
1.24819e-07
1.25496e-07
1.26009e-07
1.26397e-07
1.267e-07
1.26945e-07
1.27145e-07
1.27313e-07
1.27455e-07
1.27577e-07
1.27681e-07
1.27773e-07
1.27852e-07
1.27922e-07
1.27984e-07
1.28039e-07
1.28086e-07
1.28132e-07
1.28171e-07
1.28207e-07
1.28238e-07
1.28267e-07
1.28292e-07
1.28316e-07
1.28337e-07
1.28357e-07
1.28374e-07
1.28391e-07
1.28406e-07
1.28421e-07
1.28433e-07
1.28437e-07
1.28449e-07
1.28465e-07
1.28474e-07
1.28477e-07
1.28485e-07
1.28499e-07
1.28503e-07
1.28501e-07
1.28511e-07
1.28527e-07
1.28518e-07
1.28512e-07
1.2853e-07
1.28536e-07
1.28537e-07
1.28541e-07
1.28537e-07
1.28537e-07
1.28541e-07
1.28529e-07
1.28529e-07
1.28529e-07
1.28528e-07
1.28521e-07
1.28528e-07
1.28543e-07
1.28543e-07
1.2853e-07
1.28528e-07
1.28556e-07
1.2856e-07
1.28534e-07
1.28548e-07
1.28573e-07
1.28582e-07
1.28605e-07
1.28601e-07
1.28585e-07
1.28593e-07
1.2859e-07
1.28594e-07
1.2862e-07
1.28638e-07
1.2864e-07
1.28647e-07
1.28642e-07
1.2867e-07
1.28691e-07
1.2871e-07
1.28741e-07
1.2877e-07
1.28792e-07
1.28833e-07
1.28871e-07
1.28924e-07
1.28971e-07
1.29058e-07
1.29115e-07
1.29319e-07
1.29312e-07
1.31151e-07
1.36318e-07
5.43042e-08
1.24162e-07
1.24791e-07
1.2546e-07
1.2597e-07
1.26357e-07
1.26661e-07
1.26905e-07
1.27107e-07
1.27276e-07
1.27418e-07
1.27541e-07
1.27646e-07
1.27739e-07
1.27818e-07
1.2789e-07
1.27952e-07
1.28008e-07
1.28056e-07
1.28102e-07
1.28142e-07
1.28178e-07
1.2821e-07
1.2824e-07
1.28266e-07
1.28289e-07
1.28311e-07
1.28332e-07
1.28349e-07
1.28366e-07
1.28381e-07
1.28397e-07
1.28409e-07
1.28413e-07
1.28425e-07
1.28441e-07
1.28451e-07
1.28455e-07
1.28463e-07
1.28477e-07
1.28481e-07
1.28479e-07
1.28489e-07
1.28505e-07
1.28497e-07
1.28491e-07
1.28509e-07
1.28515e-07
1.28516e-07
1.28521e-07
1.28517e-07
1.28517e-07
1.28521e-07
1.2851e-07
1.2851e-07
1.28509e-07
1.28509e-07
1.28502e-07
1.2851e-07
1.28524e-07
1.28525e-07
1.28511e-07
1.28509e-07
1.28538e-07
1.28543e-07
1.28517e-07
1.28531e-07
1.28556e-07
1.28565e-07
1.28588e-07
1.28584e-07
1.2857e-07
1.28578e-07
1.28574e-07
1.28579e-07
1.28604e-07
1.28623e-07
1.28625e-07
1.28633e-07
1.28628e-07
1.28656e-07
1.28677e-07
1.28696e-07
1.28727e-07
1.28757e-07
1.28779e-07
1.28821e-07
1.28859e-07
1.28913e-07
1.2896e-07
1.29047e-07
1.29104e-07
1.29308e-07
1.29298e-07
1.31204e-07
1.36362e-07
5.68474e-08
1.24153e-07
1.24761e-07
1.25422e-07
1.25928e-07
1.26315e-07
1.26619e-07
1.26864e-07
1.27066e-07
1.27236e-07
1.2738e-07
1.27503e-07
1.27609e-07
1.27703e-07
1.27783e-07
1.27856e-07
1.27919e-07
1.27975e-07
1.28024e-07
1.28071e-07
1.28111e-07
1.28148e-07
1.28181e-07
1.28211e-07
1.28237e-07
1.28261e-07
1.28283e-07
1.28304e-07
1.28322e-07
1.2834e-07
1.28355e-07
1.28371e-07
1.28384e-07
1.28389e-07
1.284e-07
1.28417e-07
1.28427e-07
1.28431e-07
1.28439e-07
1.28453e-07
1.28458e-07
1.28456e-07
1.28466e-07
1.28483e-07
1.28475e-07
1.28468e-07
1.28486e-07
1.28492e-07
1.28494e-07
1.28499e-07
1.28495e-07
1.28496e-07
1.285e-07
1.28489e-07
1.28489e-07
1.28489e-07
1.28489e-07
1.28483e-07
1.2849e-07
1.28505e-07
1.28505e-07
1.28491e-07
1.28489e-07
1.28518e-07
1.28525e-07
1.28499e-07
1.28513e-07
1.28537e-07
1.28547e-07
1.2857e-07
1.28567e-07
1.28553e-07
1.28561e-07
1.28558e-07
1.28562e-07
1.28588e-07
1.28606e-07
1.28609e-07
1.28618e-07
1.28613e-07
1.28641e-07
1.28663e-07
1.28681e-07
1.28712e-07
1.28743e-07
1.28765e-07
1.28808e-07
1.28845e-07
1.289e-07
1.28947e-07
1.29035e-07
1.29091e-07
1.29297e-07
1.29283e-07
1.31258e-07
1.36405e-07
5.95026e-08
1.24142e-07
1.2473e-07
1.25382e-07
1.25885e-07
1.26271e-07
1.26575e-07
1.26821e-07
1.27024e-07
1.27195e-07
1.27339e-07
1.27464e-07
1.27571e-07
1.27665e-07
1.27746e-07
1.2782e-07
1.27884e-07
1.27941e-07
1.27991e-07
1.28038e-07
1.28079e-07
1.28116e-07
1.28149e-07
1.2818e-07
1.28207e-07
1.28232e-07
1.28254e-07
1.28276e-07
1.28294e-07
1.28312e-07
1.28328e-07
1.28344e-07
1.28357e-07
1.28362e-07
1.28374e-07
1.28391e-07
1.28401e-07
1.28406e-07
1.28414e-07
1.28428e-07
1.28433e-07
1.28431e-07
1.28441e-07
1.28459e-07
1.28452e-07
1.28445e-07
1.28463e-07
1.28469e-07
1.28471e-07