/*--------------------------------*- C++ -*----------------------------------*\
| =========                 |                                                 |
| \\      /  F ield         | OpenFOAM: The Open Source CFD Toolbox           |
|  \\    /   O peration     | Version:  v2012                                 |
|   \\  /    A nd           | Website:  www.openfoam.com                      |
|    \\/     M anipulation  |                                                 |
\*---------------------------------------------------------------------------*/
FoamFile
{
    version     2.0;
    format      ascii;
    class       volScalarField;
    location    "10.5";
    object      yPlus;
}
// * * * * * * * * * * * * * * * * * * * * * * * * * * * * * * * * * * * * * //

dimensions      [0 0 0 0 0 0 0];


internalField   uniform 0;

boundaryField
{
    inlet
    {
        type            calculated;
        value           uniform 0;
    }
    outlet
    {
        type            calculated;
        value           uniform 0;
    }
    topWall
    {
        type            calculated;
        value           nonuniform List<scalar> 
545
(
0.0875263
0.151384
0.194234
0.228226
0.256983
0.282124
0.304561
0.324865
0.343428
0.36053
0.37638
0.391143
0.404946
0.417897
0.43008
0.441571
0.45243
0.462711
0.472461
0.481721
0.490526
0.498908
0.506897
0.514518
0.521794
0.528747
0.535396
0.541758
0.54785
0.553687
0.559283
0.56465
0.5698
0.574745
0.579494
0.584058
0.588445
0.592663
0.596721
0.600626
0.604385
0.608005
0.611491
0.61485
0.618088
0.621208
0.624217
0.627119
0.629919
0.63262
0.635227
0.637743
0.640173
0.64252
0.644786
0.646975
0.64909
0.651134
0.65311
0.655019
0.656866
0.658651
0.660378
0.662048
0.663663
0.665226
0.666738
0.668201
0.669617
0.670987
0.672314
0.673599
0.674824
0.676009
0.677183
0.678346
0.679499
0.68064
0.681771
0.682892
0.684003
0.685103
0.686193
0.687274
0.688344
0.689405
0.690455
0.691497
0.692529
0.693551
0.694565
0.695569
0.696564
0.69755
0.698526
0.699497
0.700359
0.70113
0.701901
0.70267
0.703439
0.704207
0.704974
0.70574
0.706505
0.707269
0.708033
0.708795
0.709557
0.710318
0.711078
0.711837
0.712595
0.713352
0.714108
0.714863
0.715617
0.716371
0.717123
0.717874
0.718624
0.719373
0.720121
0.720868
0.721615
0.722359
0.723103
0.723846
0.724588
0.725329
0.726068
0.726807
0.727544
0.72828
0.729015
0.729749
0.730481
0.731213
0.731943
0.732672
0.7334
0.734127
0.734852
0.735576
0.736299
0.737021
0.737741
0.73846
0.739178
0.739894
0.740609
0.741323
0.742036
0.742747
0.743456
0.744165
0.744872
0.745577
0.746281
0.746984
0.747685
0.748385
0.749083
0.74978
0.750476
0.751169
0.751862
0.752553
0.753242
0.75393
0.754616
0.755301
0.755984
0.756665
0.757345
0.758023
0.7587
0.759375
0.760048
0.76072
0.76139
0.762058
0.762724
0.763389
0.764052
0.764714
0.765373
0.766031
0.766687
0.767341
0.767994
0.768644
0.769293
0.76994
0.770585
0.771228
0.771869
0.772509
0.773146
0.773782
0.774415
0.775047
0.775676
0.776304
0.77693
0.777553
0.778175
0.778794
0.779412
0.780027
0.780641
0.781252
0.781861
0.782468
0.783073
0.783676
0.784277
0.784875
0.785471
0.786065
0.786657
0.787247
0.787834
0.788419
0.789002
0.789582
0.79016
0.790736
0.79131
0.791881
0.792449
0.793016
0.79358
0.794141
0.794701
0.795257
0.795812
0.796363
0.796913
0.797459
0.798004
0.798546
0.799085
0.799622
0.800156
0.800687
0.801216
0.801742
0.802266
0.802787
0.803305
0.803821
0.804334
0.804844
0.805352
0.805857
0.806359
0.806858
0.807355
0.807849
0.80834
0.808828
0.809313
0.809795
0.810275
0.810752
0.811225
0.811696
0.812165
0.812598
0.813006
0.813414
0.813825
0.814236
0.81465
0.815064
0.81548
0.815898
0.816316
0.816736
0.817157
0.817579
0.818001
0.818425
0.81885
0.819276
0.819702
0.820129
0.820556
0.820984
0.821412
0.821841
0.82227
0.822699
0.823128
0.823557
0.823986
0.824415
0.824844
0.825272
0.825699
0.826126
0.826553
0.826978
0.827402
0.827825
0.828248
0.828668
0.829088
0.829505
0.829921
0.830335
0.830747
0.831157
0.831565
0.83197
0.832373
0.832773
0.83317
0.833564
0.833954
0.834341
0.834725
0.835105
0.835481
0.835853
0.836221
0.836584
0.836942
0.837296
0.837645
0.837988
0.838326
0.838658
0.838984
0.839304
0.839618
0.839925
0.840225
0.840519
0.840805
0.841083
0.841354
0.841617
0.841871
0.842118
0.842355
0.842583
0.842802
0.843012
0.843212
0.843401
0.84358
0.843749
0.843907
0.844053
0.844188
0.844311
0.844423
0.844521
0.844607
0.84468
0.84474
0.844786
0.844819
0.844837
0.84484
0.844829
0.844802
0.84476
0.844703
0.844629
0.844539
0.844431
0.844307
0.844166
0.844006
0.843829
0.843633
0.843419
0.843185
0.842932
0.84266
0.842367
0.842055
0.841721
0.841367
0.840991
0.840594
0.840175
0.839734
0.83927
0.838783
0.838274
0.837741
0.837184
0.836604
0.835999
0.83537
0.834716
0.834037
0.833332
0.832603
0.831847
0.831066
0.830258
0.829424
0.828564
0.827676
0.826762
0.82582
0.824851
0.823855
0.822831
0.82178
0.8207
0.819593
0.818457
0.817294
0.816102
0.814883
0.813635
0.812359
0.811054
0.809722
0.808361
0.806973
0.805556
0.804112
0.80264
0.80114
0.799613
0.798059
0.796477
0.794869
0.793234
0.791572
0.789884
0.78817
0.78643
0.784665
0.782875
0.781059
0.77922
0.777356
0.775468
0.773558
0.771624
0.769669
0.767689
0.765469
0.763028
0.760589
0.758153
0.755722
0.753297
0.750878
0.748466
0.746063
0.74367
0.741287
0.738915
0.736555
0.734208
0.731875
0.729557
0.727253
0.724966
0.722695
0.720441
0.718204
0.715986
0.713787
0.711607
0.709447
0.707307
0.705187
0.703089
0.701013
0.698958
0.696926
0.694916
0.69293
0.690967
0.689027
0.687112
0.685222
0.683356
0.681515
0.6797
0.67791
0.676147
0.67441
0.672699
0.671015
0.669358
0.667728
0.666126
0.664551
0.663004
0.661486
0.659996
0.658535
0.657102
0.655699
0.654324
0.652979
0.651664
0.650379
0.649124
0.647899
0.646704
0.64554
0.644408
0.643305
0.642235
0.641195
0.640188
0.639212
0.638268
0.637357
0.636478
0.635631
0.634817
0.634036
0.633288
0.632574
0.631893
0.631245
0.630632
0.630052
0.629506
0.628994
0.628517
0.628075
0.627667
0.627294
0.626957
0.626655
0.626389
0.62616
0.62597
0.625811
0.625712
0.625561
)
;
    }
    bottomWall
    {
        type            calculated;
        value           nonuniform List<scalar> 
449
(
0.139642
0.0890795
0.0759251
0.0695666
0.0654174
0.0623671
0.0600383
0.0583655
0.0575376
0.0579673
0.0611469
0.0649029
0.0674153
0.0687859
0.069506
0.0698632
0.0699927
0.0699578
0.0698106
0.0695964
0.0693332
0.0690402
0.0687314
0.0684143
0.0680964
0.0677798
0.0674693
0.0671643
0.0668683
0.0665795
0.0663004
0.0660292
0.0657671
0.0655134
0.0652683
0.065031
0.064802
0.0645804
0.064366
0.0641587
0.0639579
0.0637633
0.0635753
0.0633921
0.0632155
0.0630428
0.0628766
0.0627135
0.0625569
0.0624026
0.0622546
0.0621087
0.0619683
0.0618301
0.061697
0.0615658
0.061439
0.0613144
0.0611935
0.0610748
0.0609597
0.0608464
0.0607366
0.060628
0.0605231
0.060419
0.0603186
0.060219
0.060123
0.060028
0.0599356
0.0598447
0.0597554
0.059668
0.0595822
0.0594984
0.0594161
0.0593353
0.0592557
0.0591782
0.0591012
0.0590266
0.0589528
0.0588811
0.0588095
0.0587399
0.0586715
0.0586038
0.0585378
0.0584721
0.0584092
0.0583452
0.0582839
0.0582216
0.0581616
0.0581019
0.0580435
0.0579853
0.0579283
0.0578721
0.0578161
0.0577617
0.0577084
0.0576566
0.0576048
0.0575541
0.0575034
0.0574545
0.0574053
0.0573569
0.0573094
0.0572629
0.0572165
0.0571711
0.0571261
0.0570821
0.0570381
0.056996
0.0569541
0.0569131
0.0568728
0.0568329
0.0567929
0.0567539
0.0567151
0.0566764
0.0566387
0.0566013
0.0565645
0.0565283
0.0564924
0.0564571
0.0564227
0.0563882
0.0563552
0.0563217
0.0562891
0.0562564
0.0562242
0.0561918
0.0561602
0.0561285
0.0560974
0.0560665
0.0560354
0.0560058
0.0559755
0.0559451
0.055914
0.0558844
0.0558544
0.055827
0.0557995
0.0557735
0.0557478
0.055722
0.0556968
0.0556708
0.0556456
0.0556203
0.055595
0.0555705
0.0555462
0.0555211
0.0554977
0.0554746
0.0554509
0.0554281
0.0554053
0.055382
0.055359
0.055337
0.0553153
0.0552941
0.0552745
0.0552548
0.0552353
0.0552163
0.0551962
0.0551761
0.0551552
0.0551336
0.0551135
0.0550939
0.0550749
0.0550571
0.0550389
0.0550208
0.0550039
0.0549865
0.0549691
0.0549526
0.0549353
0.054918
0.0549016
0.0548844
0.0548673
0.0548511
0.0548341
0.0548173
0.0548013
0.0547845
0.0547678
0.054752
0.0547352
0.0547191
0.0547035
0.0546867
0.0546712
0.0546546
0.0546382
0.0546222
0.0546057
0.0545905
0.0545756
0.0545594
0.0545446
0.0545285
0.0545114
0.0544966
0.0544816
0.0544671
0.0544523
0.0544369
0.0544229
0.0544082
0.0543945
0.0543811
0.0543672
0.0543538
0.0543406
0.0543259
0.0543113
0.0542965
0.0542815
0.054268
0.0542554
0.0542411
0.0542274
0.0542135
0.0541996
0.0541877
0.0541748
0.0541616
0.0541489
0.0541371
0.0541229
0.0541096
0.0540964
0.0540837
0.0540722
0.0540599
0.0540484
0.054035
0.0540231
0.0540116
0.0539987
0.053987
0.0539747
0.0539622
0.0539494
0.0539363
0.0539225
0.0539102
0.0538986
0.0538853
0.053873
0.0538609
0.0538485
0.0538351
0.0538218
0.0538091
0.0537968
0.0537857
0.053773
0.0537603
0.0537489
0.0537351
0.0537219
0.0537106
0.0536974
0.0536844
0.0536733
0.0536603
0.0536473
0.0536362
0.0536232
0.05361
0.0535984
0.0535852
0.0535721
0.0535595
0.0535464
0.0535343
0.0535214
0.0535085
0.0534963
0.0534846
0.0534706
0.0534575
0.0534459
0.0534323
0.0534189
0.0534076
0.0533943
0.053382
0.05337
0.0533574
0.0533458
0.0533331
0.0533204
0.0533093
0.0532965
0.0532837
0.0532724
0.0532597
0.0532472
0.0532364
0.0532239
0.0532117
0.0532011
0.0531888
0.0531767
0.053166
0.0531537
0.0531418
0.0531312
0.0531189
0.053107
0.0530965
0.0530842
0.0530724
0.0530619
0.0530497
0.0530381
0.0530276
0.0530156
0.053004
0.0529938
0.052982
0.0529703
0.0529602
0.0529484
0.0529375
0.0529258
0.0529148
0.0529051
0.0528941
0.0528833
0.0528737
0.0528623
0.052852
0.0528415
0.052831
0.0528197
0.0528081
0.0527979
0.0527863
0.0527754
0.0527634
0.0527528
0.0527417
0.0527313
0.0527213
0.0527111
0.0527002
0.0526894
0.0526798
0.0526704
0.0526597
0.0526503
0.0526406
0.0526318
0.0526233
0.0526146
0.0526071
0.0525981
0.05259
0.0525813
0.0525732
0.0525651
0.0525575
0.0525496
0.052542
0.0525349
0.0525269
0.0525195
0.0525121
0.052505
0.0524977
0.0524909
0.0524845
0.0524769
0.0524703
0.0524629
0.0524564
0.0524502
0.0524434
0.0524374
0.052431
0.0524244
0.0524181
0.0524124
0.0524073
0.0524012
0.0523957
0.0523903
0.0523845
0.0523795
0.0523742
0.0523694
0.0523643
0.0523599
0.0523551
0.0523497
0.0523453
0.0523405
0.0523358
0.0523315
0.0523257
0.0523211
0.0523168
0.0523121
0.0523081
0.0523033
0.0522987
0.0522952
0.0522907
0.0522863
0.052283
0.0522783
0.0522747
0.052271
0.0522677
0.0522641
0.0522601
0.0522569
0.0522536
0.0522497
0.0522461
0.0522425
0.0522389
0.0522358
0.0522327
0.0522278
0.0522252
0.0522202
0.0522217
0.0522109
)
;
    }
    symmetry
    {
        type            symmetryPlane;
    }
    frontAndBack
    {
        type            empty;
    }
}


// ************************************************************************* //
