/*--------------------------------*- C++ -*----------------------------------*\
| =========                 |                                                 |
| \\      /  F ield         | OpenFOAM: The Open Source CFD Toolbox           |
|  \\    /   O peration     | Version:  v2012                                 |
|   \\  /    A nd           | Website:  www.openfoam.com                      |
|    \\/     M anipulation  |                                                 |
\*---------------------------------------------------------------------------*/
FoamFile
{
    version     2.0;
    format      ascii;
    class       volScalarField;
    location    "44";
    object      epsilon;
}
// * * * * * * * * * * * * * * * * * * * * * * * * * * * * * * * * * * * * * //

dimensions      [0 2 -3 0 0 0 0];


internalField   nonuniform List<scalar> 
209825
(
0.758446
0.634086
0.548948
0.491471
0.451852
0.423659
0.402865
0.387099
0.374788
0.365009
0.357047
0.350507
0.345013
0.340389
0.336403
0.332992
0.32999
0.32739
0.32506
0.323023
0.32117
0.319541
0.318037
0.316711
0.315472
0.314379
0.313343
0.31243
0.311558
0.310791
0.310046
0.309395
0.308758
0.308206
0.307655
0.307183
0.306709
0.306304
0.30589
0.305542
0.305179
0.304881
0.304569
0.304314
0.304037
0.303816
0.303581
0.303391
0.303178
0.303018
0.302845
0.302691
0.302542
0.30241
0.302303
0.30219
0.302065
0.301995
0.30189
0.301819
0.301773
0.301705
0.301672
0.301619
0.301606
0.301576
0.301604
0.301604
0.301598
0.301638
0.301638
0.301708
0.301712
0.301794
0.301819
0.301911
0.30195
0.302057
0.302105
0.302224
0.302285
0.302427
0.302502
0.302671
0.302764
0.302966
0.303078
0.30332
0.303451
0.303753
0.303895
0.304342
0.304494
0.30819
3.0959
575.212
0.758446
0.634086
0.548946
0.491466
0.451844
0.423649
0.402853
0.387086
0.374774
0.364994
0.357031
0.350491
0.344996
0.340372
0.336386
0.332974
0.329972
0.327371
0.325041
0.323004
0.321151
0.319522
0.318017
0.316691
0.315452
0.314359
0.313323
0.31241
0.311538
0.31077
0.310025
0.309375
0.308737
0.308185
0.307634
0.307162
0.306688
0.306283
0.305869
0.305521
0.305158
0.304859
0.304548
0.304293
0.304016
0.303795
0.303559
0.303369
0.303156
0.302996
0.302824
0.30267
0.30252
0.302388
0.302281
0.302169
0.302044
0.301974
0.301868
0.301797
0.301752
0.301684
0.30165
0.301598
0.301584
0.301555
0.301582
0.301582
0.301576
0.301616
0.301616
0.301686
0.30169
0.301772
0.301797
0.301889
0.301928
0.302035
0.302083
0.302202
0.302263
0.302405
0.30248
0.302649
0.302742
0.302944
0.303055
0.303297
0.303428
0.30373
0.303873
0.30432
0.304471
0.308174
3.10091
571.893
0.758448
0.634085
0.548935
0.491443
0.451811
0.423607
0.402804
0.387031
0.374714
0.36493
0.356964
0.350422
0.344924
0.340298
0.336311
0.332898
0.329894
0.327292
0.324961
0.322923
0.32107
0.31944
0.317935
0.316608
0.315368
0.314274
0.313238
0.312325
0.311452
0.310685
0.309939
0.309288
0.30865
0.308098
0.307547
0.307075
0.306601
0.306196
0.305781
0.305433
0.30507
0.304771
0.304459
0.304204
0.303926
0.303705
0.30347
0.30328
0.303067
0.302906
0.302734
0.30258
0.30243
0.302298
0.302191
0.302078
0.301953
0.301883
0.301778
0.301706
0.301661
0.301593
0.301559
0.301507
0.301493
0.301463
0.30149
0.30149
0.301484
0.301524
0.301524
0.301594
0.301598
0.30168
0.301705
0.301797
0.301836
0.301943
0.30199
0.30211
0.30217
0.302312
0.302387
0.302556
0.302649
0.30285
0.302962
0.303204
0.303334
0.303636
0.303778
0.304225
0.304377
0.30809
3.11086
567.934
0.758452
0.634083
0.548916
0.491405
0.451754
0.423535
0.40272
0.386937
0.374613
0.364823
0.356852
0.350305
0.344804
0.340175
0.336184
0.332769
0.329763
0.327159
0.324827
0.322788
0.320932
0.319302
0.317795
0.316468
0.315227
0.314132
0.313096
0.312182
0.311308
0.31054
0.309794
0.309142
0.308504
0.307952
0.3074
0.306927
0.306453
0.306047
0.305632
0.305284
0.30492
0.304621
0.304309
0.304054
0.303776
0.303555
0.303319
0.303129
0.302915
0.302755
0.302582
0.302428
0.302278
0.302146
0.302038
0.301926
0.301801
0.30173
0.301625
0.301553
0.301507
0.301439
0.301406
0.301353
0.301339
0.301309
0.301336
0.301336
0.30133
0.301369
0.301369
0.301439
0.301442
0.301524
0.301549
0.301641
0.30168
0.301786
0.301834
0.301953
0.302014
0.302155
0.30223
0.302399
0.302491
0.302693
0.302804
0.303045
0.303176
0.303477
0.303619
0.304066
0.304217
0.307947
3.12628
564.119
0.758457
0.634081
0.54889
0.49135
0.451674
0.423434
0.402602
0.386805
0.37447
0.364671
0.356693
0.350139
0.344633
0.339999
0.336005
0.332586
0.329578
0.326972
0.324637
0.322596
0.320739
0.319106
0.317598
0.31627
0.315028
0.313932
0.312894
0.311979
0.311104
0.310336
0.309588
0.308936
0.308297
0.307744
0.307192
0.306719
0.306244
0.305838
0.305422
0.305073
0.30471
0.30441
0.304097
0.303842
0.303564
0.303342
0.303106
0.302916
0.302702
0.302541
0.302368
0.302214
0.302064
0.301931
0.301823
0.301711
0.301585
0.301514
0.301409
0.301337
0.301291
0.301223
0.301189
0.301136
0.301122
0.301091
0.301118
0.301118
0.301111
0.30115
0.30115
0.301219
0.301223
0.301304
0.301329
0.301421
0.301459
0.301566
0.301613
0.301732
0.301792
0.301933
0.302008
0.302176
0.302268
0.30247
0.30258
0.302821
0.302952
0.303252
0.303394
0.30384
0.30399
0.307745
3.14763
560.793
0.758463
0.634077
0.548855
0.491279
0.451569
0.423302
0.402448
0.386634
0.374285
0.364474
0.356486
0.349925
0.344412
0.339772
0.335773
0.33235
0.329338
0.326728
0.32439
0.322347
0.320487
0.318853
0.317343
0.316012
0.314769
0.313671
0.312632
0.311716
0.31084
0.31007
0.309322
0.308669
0.308029
0.307476
0.306922
0.306448
0.305973
0.305566
0.30515
0.3048
0.304436
0.304136
0.303823
0.303567
0.303288
0.303066
0.30283
0.302639
0.302425
0.302263
0.30209
0.301936
0.301785
0.301652
0.301544
0.301431
0.301305
0.301235
0.301129
0.301056
0.30101
0.300942
0.300907
0.300854
0.30084
0.300809
0.300835
0.300835
0.300828
0.300866
0.300866
0.300935
0.300938
0.301019
0.301044
0.301135
0.301174
0.30128
0.301327
0.301445
0.301505
0.301645
0.30172
0.301888
0.30198
0.30218
0.302291
0.302531
0.302661
0.302961
0.303102
0.303548
0.303697
0.307482
3.17536
558.123
0.758471
0.634073
0.548813
0.491191
0.451441
0.42314
0.402259
0.386424
0.374057
0.364231
0.356232
0.34966
0.344139
0.339493
0.335487
0.332059
0.329042
0.326428
0.324087
0.32204
0.320178
0.31854
0.317028
0.315695
0.31445
0.313351
0.31231
0.311392
0.310515
0.309744
0.308994
0.30834
0.307699
0.307144
0.30659
0.306115
0.305639
0.305231
0.304814
0.304464
0.304099
0.303798
0.303485
0.303228
0.302949
0.302726
0.302489
0.302298
0.302083
0.301922
0.301748
0.301593
0.301442
0.301309
0.3012
0.301087
0.300961
0.300889
0.300783
0.300711
0.300664
0.300595
0.300561
0.300507
0.300493
0.300461
0.300486
0.300486
0.300479
0.300516
0.300516
0.300584
0.300588
0.300668
0.300692
0.300783
0.300821
0.300927
0.300974
0.301091
0.301151
0.301291
0.301365
0.301532
0.301624
0.301824
0.301934
0.302173
0.302303
0.302602
0.302743
0.303187
0.303336
0.307159
3.20991
556.167
0.75848
0.634068
0.548762
0.491087
0.451289
0.422948
0.402035
0.386173
0.373785
0.363943
0.355929
0.349346
0.343815
0.33916
0.335147
0.331712
0.32869
0.326071
0.323725
0.321674
0.319809
0.318168
0.316653
0.315318
0.31407
0.312968
0.311926
0.311006
0.310127
0.309354
0.308603
0.307948
0.307306
0.30675
0.306194
0.305718
0.305241
0.304832
0.304414
0.304063
0.303698
0.303396
0.303082
0.302824
0.302544
0.302321
0.302084
0.301892
0.301676
0.301514
0.30134
0.301184
0.301033
0.300899
0.30079
0.300677
0.30055
0.300478
0.300372
0.300299
0.300252
0.300183
0.300147
0.300094
0.300079
0.300046
0.30007
0.30007
0.300063
0.300099
0.300099
0.300167
0.30017
0.30025
0.300273
0.300364
0.300402
0.300507
0.300553
0.30067
0.30073
0.300869
0.300943
0.301109
0.3012
0.301399
0.301509
0.301747
0.301876
0.302174
0.302314
0.302758
0.302905
0.306775
3.25173
554.915
0.758491
0.634063
0.548704
0.490967
0.451112
0.422724
0.401773
0.385882
0.373469
0.363607
0.355577
0.34898
0.343437
0.338772
0.334751
0.331309
0.32828
0.325655
0.323305
0.321249
0.319379
0.317735
0.316217
0.314879
0.313628
0.312524
0.311479
0.310557
0.309676
0.308902
0.308149
0.307492
0.306848
0.306291
0.305734
0.305257
0.304778
0.304369
0.303949
0.303597
0.303231
0.302928
0.302613
0.302355
0.302074
0.30185
0.301612
0.301419
0.301203
0.30104
0.300866
0.30071
0.300557
0.300423
0.300313
0.3002
0.300072
0.3
0.299894
0.29982
0.299772
0.299703
0.299667
0.299613
0.299598
0.299564
0.299587
0.299587
0.299579
0.299615
0.299614
0.299681
0.299684
0.299763
0.299786
0.299876
0.299913
0.300018
0.300064
0.30018
0.300239
0.300378
0.300451
0.300616
0.300707
0.300905
0.301014
0.301252
0.30138
0.301677
0.301816
0.302258
0.302404
0.306329
3.30123
554.303
0.758503
0.634057
0.548638
0.49083
0.450911
0.42247
0.401476
0.385549
0.373109
0.363224
0.355175
0.348562
0.343006
0.33833
0.334299
0.330848
0.327812
0.325181
0.322824
0.320764
0.318889
0.317241
0.315719
0.314377
0.313123
0.312017
0.310969
0.310045
0.309161
0.308385
0.30763
0.306971
0.306325
0.305766
0.305208
0.304729
0.304249
0.303839
0.303418
0.303065
0.302697
0.302394
0.302077
0.301818
0.301537
0.301312
0.301073
0.30088
0.300663
0.300499
0.300324
0.300167
0.300014
0.299879
0.299769
0.299655
0.299527
0.299454
0.299347
0.299273
0.299224
0.299155
0.299118
0.299064
0.299048
0.299014
0.299035
0.299035
0.299026
0.299061
0.299061
0.299126
0.299128
0.299207
0.29923
0.299319
0.299356
0.29946
0.299505
0.299621
0.299679
0.299817
0.29989
0.300054
0.300144
0.300341
0.300449
0.300685
0.300813
0.301108
0.301247
0.301688
0.301833
0.305821
3.35882
554.235
0.758516
0.63405
0.548565
0.490677
0.450685
0.422184
0.401141
0.385176
0.372704
0.362793
0.354723
0.348093
0.342521
0.337832
0.33379
0.33033
0.327286
0.324647
0.322284
0.320217
0.318338
0.316685
0.315158
0.313813
0.312555
0.311445
0.310394
0.309467
0.308581
0.307802
0.307045
0.306385
0.305737
0.305176
0.304616
0.304136
0.303654
0.303242
0.30282
0.302466
0.302097
0.301792
0.301474
0.301214
0.300932
0.300706
0.300466
0.300272
0.300054
0.29989
0.299713
0.299556
0.299403
0.299267
0.299155
0.299041
0.298913
0.298839
0.298732
0.298657
0.298607
0.298537
0.2985
0.298445
0.298429
0.298393
0.298414
0.298414
0.298404
0.298437
0.298437
0.298502
0.298503
0.298582
0.298603
0.298692
0.298728
0.298831
0.298876
0.298991
0.299049
0.299185
0.299258
0.299421
0.29951
0.299706
0.299813
0.300048
0.300175
0.300469
0.300606
0.301045
0.301189
0.305249
3.42484
554.584
0.758531
0.634043
0.548483
0.490507
0.450435
0.421866
0.40077
0.384761
0.372254
0.362314
0.35422
0.34757
0.341982
0.337279
0.333224
0.329753
0.3267
0.324053
0.321682
0.319609
0.317724
0.316065
0.314534
0.313184
0.311923
0.310809
0.309755
0.308825
0.307936
0.307154
0.306395
0.305732
0.305082
0.304519
0.303957
0.303475
0.302991
0.302578
0.302154
0.301799
0.301428
0.301122
0.300803
0.300542
0.300258
0.300031
0.29979
0.299595
0.299377
0.299211
0.299034
0.298876
0.298722
0.298585
0.298472
0.298358
0.298229
0.298154
0.298047
0.29797
0.29792
0.29785
0.297812
0.297757
0.29774
0.297703
0.297722
0.297722
0.297711
0.297743
0.297743
0.297806
0.297807
0.297885
0.297905
0.297994
0.298029
0.298131
0.298175
0.298289
0.298346
0.298482
0.298554
0.298715
0.298804
0.298998
0.299105
0.299338
0.299464
0.299756
0.299892
0.30033
0.300472
0.304615
3.4996
555.214
0.758548
0.634035
0.548395
0.490321
0.45016
0.421517
0.400361
0.384304
0.371758
0.361786
0.353666
0.346994
0.341387
0.336668
0.3326
0.329117
0.326053
0.323397
0.321019
0.318938
0.317046
0.315382
0.313846
0.312491
0.311225
0.310107
0.309049
0.308116
0.307224
0.306439
0.305677
0.305011
0.304359
0.303794
0.30323
0.302746
0.30226
0.301845
0.30142
0.301063
0.300691
0.300383
0.300063
0.2998
0.299515
0.299287
0.299045
0.298849
0.298629
0.298463
0.298285
0.298126
0.29797
0.297833
0.297719
0.297605
0.297474
0.297399
0.297291
0.297214
0.297163
0.297092
0.297053
0.296997
0.296979
0.296941
0.296959
0.296959
0.296947
0.296978
0.296977
0.297039
0.29704
0.297116
0.297136
0.297224
0.297257
0.297359
0.297402
0.297515
0.297572
0.297706
0.297777
0.297938
0.298025
0.298218
0.298324
0.298555
0.29868
0.298971
0.299105
0.299542
0.299682
0.303916
3.58334
555.979
0.758566
0.634027
0.548298
0.490119
0.44986
0.421136
0.399914
0.383804
0.371216
0.361209
0.35306
0.346364
0.340737
0.336
0.331917
0.328422
0.325346
0.32268
0.320293
0.318204
0.316305
0.314635
0.313093
0.311732
0.310462
0.30934
0.308277
0.30734
0.306445
0.305657
0.304892
0.304223
0.303568
0.303001
0.302434
0.301948
0.30146
0.301043
0.300616
0.300257
0.299883
0.299575
0.299252
0.298989
0.298702
0.298473
0.298229
0.298032
0.297811
0.297643
0.297464
0.297305
0.297148
0.29701
0.296895
0.29678
0.296649
0.296573
0.296463
0.296385
0.296333
0.296262
0.296222
0.296166
0.296147
0.296108
0.296124
0.296123
0.296111
0.29614
0.296138
0.296199
0.296199
0.296275
0.296294
0.29638
0.296413
0.296514
0.296556
0.296669
0.296724
0.296857
0.296927
0.297086
0.297173
0.297364
0.297469
0.297699
0.297823
0.298111
0.298244
0.298678
0.298817
0.303153
3.67622
556.732
0.758585
0.634019
0.548195
0.4899
0.449535
0.420723
0.39943
0.383262
0.370627
0.360583
0.352402
0.345679
0.34003
0.335275
0.331176
0.327666
0.324578
0.321901
0.319503
0.317407
0.3155
0.313822
0.312274
0.310908
0.309632
0.308505
0.307438
0.306497
0.305598
0.304806
0.304038
0.303366
0.302708
0.302138
0.301569
0.301081
0.300591
0.300171
0.299742
0.299382
0.299006
0.298695
0.298371
0.298106
0.297818
0.297588
0.297342
0.297144
0.296922
0.296753
0.296572
0.296412
0.296254
0.296115
0.295999
0.295883
0.295751
0.295674
0.295564
0.295485
0.295432
0.29536
0.295319
0.295262
0.295242
0.295202
0.295216
0.295215
0.295201
0.295229
0.295227
0.295285
0.295286
0.29536
0.295378
0.295464
0.295496
0.295595
0.295637
0.295748
0.295802
0.295934
0.296003
0.296161
0.296247
0.296436
0.29654
0.296767
0.29689
0.297176
0.297307
0.29774
0.297877
0.302325
3.77828
557.33
0.758606
0.634011
0.548084
0.489665
0.449186
0.420278
0.398908
0.382678
0.369992
0.359907
0.351692
0.34494
0.339267
0.334491
0.330374
0.326849
0.323747
0.321059
0.318651
0.316545
0.314629
0.312944
0.311389
0.310017
0.308735
0.307603
0.306531
0.305586
0.304682
0.303887
0.303115
0.30244
0.301779
0.301206
0.300634
0.300143
0.29965
0.299229
0.298798
0.298435
0.298057
0.297745
0.297419
0.297152
0.296863
0.29663
0.296383
0.296184
0.29596
0.29579
0.295608
0.295447
0.295288
0.295148
0.29503
0.294914
0.29478
0.294702
0.294592
0.294512
0.294457
0.294384
0.294342
0.294285
0.294264
0.294222
0.294235
0.294234
0.294218
0.294244
0.294242
0.294298
0.294298
0.294371
0.294388
0.294473
0.294504
0.294602
0.294643
0.294752
0.294806
0.294936
0.295004
0.29516
0.295245
0.295432
0.295535
0.29576
0.295882
0.296165
0.296295
0.296726
0.296861
0.301431
3.88946
557.638
0.758628
0.634003
0.547966
0.489415
0.448813
0.419802
0.398348
0.382051
0.369311
0.35918
0.350928
0.344146
0.338447
0.333649
0.329513
0.325971
0.322855
0.320153
0.317734
0.315618
0.313693
0.312
0.310437
0.309058
0.30777
0.306633
0.305556
0.304606
0.303698
0.302898
0.302122
0.301444
0.300779
0.300203
0.299628
0.299135
0.298639
0.298216
0.297782
0.297417
0.297037
0.296723
0.296395
0.296126
0.295835
0.295601
0.295352
0.295151
0.294926
0.294754
0.294571
0.294409
0.294249
0.294107
0.293988
0.293871
0.293736
0.293657
0.293546
0.293464
0.293409
0.293335
0.293292
0.293234
0.293212
0.293169
0.29318
0.293178
0.293161
0.293185
0.293182
0.293236
0.293236
0.293308
0.293323
0.293407
0.293437
0.293534
0.293573
0.293682
0.293734
0.293863
0.29393
0.294084
0.294168
0.294353
0.294454
0.294677
0.294797
0.295078
0.295207
0.295635
0.295768
0.30047
4.00954
557.536
0.758652
0.633994
0.547841
0.489148
0.448415
0.419294
0.39775
0.381381
0.368582
0.358404
0.350112
0.343297
0.33757
0.332747
0.328591
0.325031
0.321899
0.319184
0.316753
0.314625
0.312691
0.310989
0.309418
0.308032
0.306738
0.305594
0.304512
0.303556
0.302643
0.30184
0.30106
0.300378
0.299709
0.29913
0.298551
0.298055
0.297557
0.29713
0.296694
0.296327
0.295944
0.295628
0.295298
0.295027
0.294734
0.294499
0.294248
0.294045
0.293819
0.293645
0.293461
0.293297
0.293136
0.292993
0.292872
0.292754
0.292619
0.292538
0.292426
0.292343
0.292286
0.292212
0.292167
0.292108
0.292085
0.292041
0.29205
0.292047
0.292029
0.292051
0.292047
0.292099
0.292099
0.292169
0.292183
0.292266
0.292294
0.29239
0.292428
0.292535
0.292587
0.292713
0.29278
0.292931
0.293014
0.293197
0.293297
0.293518
0.293636
0.293915
0.294041
0.294467
0.294598
0.299443
4.13813
556.915
0.758677
0.633986
0.54771
0.488866
0.447993
0.418754
0.397114
0.380668
0.367807
0.357577
0.349243
0.342392
0.336635
0.331787
0.327608
0.324029
0.320881
0.318151
0.315706
0.313568
0.311623
0.309911
0.308332
0.306938
0.305637
0.304486
0.303398
0.302437
0.301519
0.300711
0.299926
0.29924
0.298568
0.297985
0.297403
0.296903
0.296402
0.295973
0.295534
0.295164
0.294779
0.29446
0.294128
0.293856
0.29356
0.293323
0.29307
0.292866
0.292638
0.292463
0.292277
0.292112
0.291949
0.291805
0.291682
0.291563
0.291426
0.291344
0.291231
0.291147
0.291088
0.291013
0.290967
0.290908
0.290883
0.290838
0.290844
0.290841
0.290821
0.290841
0.290837
0.290886
0.290886
0.290954
0.290967
0.291048
0.291075
0.291169
0.291207
0.291312
0.291362
0.291487
0.291552
0.291702
0.291783
0.291964
0.292063
0.292281
0.292398
0.292673
0.292798
0.293221
0.293351
0.298347
4.27464
555.677
0.758703
0.633978
0.547572
0.488569
0.447547
0.418183
0.396441
0.379912
0.366984
0.356699
0.34832
0.341431
0.335642
0.330767
0.326565
0.322965
0.319799
0.317053
0.314595
0.312444
0.310488
0.308766
0.307178
0.305776
0.304466
0.303309
0.302215
0.301248
0.300324
0.299511
0.298722
0.298031
0.297355
0.296768
0.296182
0.295679
0.295175
0.294742
0.2943
0.293928
0.293541
0.293219
0.292885
0.29261
0.292313
0.292073
0.291818
0.291612
0.291383
0.291205
0.291018
0.290851
0.290687
0.290542
0.290416
0.290297
0.290159
0.290075
0.289961
0.289876
0.289816
0.28974
0.289692
0.289632
0.289605
0.289559
0.289563
0.289559
0.289538
0.289556
0.28955
0.289597
0.289596
0.289663
0.289675
0.289754
0.28978
0.289872
0.289908
0.290012
0.290061
0.290184
0.290248
0.290395
0.290476
0.290653
0.290751
0.290966
0.291082
0.291354
0.291476
0.291897
0.292025
0.297182
4.41827
553.745
0.758731
0.63397
0.547429
0.488257
0.447077
0.41758
0.395731
0.379114
0.366115
0.355771
0.347344
0.340415
0.334591
0.329687
0.32546
0.321839
0.318653
0.315891
0.313418
0.311253
0.309285
0.307553
0.305955
0.304544
0.303227
0.302062
0.300961
0.299988
0.299058
0.29824
0.297446
0.29675
0.296069
0.295479
0.294889
0.294383
0.293874
0.293439
0.292994
0.292619
0.292229
0.291905
0.291567
0.29129
0.290991
0.290749
0.290492
0.290284
0.290053
0.289873
0.289684
0.289516
0.28935
0.289203
0.289076
0.288956
0.288816
0.288731
0.288616
0.288529
0.288467
0.28839
0.288341
0.28828
0.288252
0.288204
0.288206
0.288201
0.288178
0.288194
0.288187
0.28823
0.28823
0.288295
0.288305
0.288383
0.288407
0.288498
0.288533
0.288635
0.288683
0.288804
0.288866
0.289011
0.28909
0.289265
0.289361
0.289573
0.289687
0.289956
0.290076
0.290495
0.29062
0.295948
4.56795
551.055
0.758759
0.633963
0.547279
0.48793
0.446585
0.416947
0.394982
0.378273
0.365198
0.354793
0.346314
0.339342
0.333483
0.328547
0.324294
0.32065
0.317444
0.314664
0.312175
0.309996
0.308016
0.306272
0.304664
0.303244
0.301918
0.300746
0.299637
0.298657
0.297722
0.296898
0.296098
0.295398
0.294712
0.294117
0.293523
0.293013
0.292501
0.292062
0.291614
0.291236
0.290842
0.290516
0.290176
0.289896
0.289594
0.28935
0.289091
0.288881
0.288647
0.288466
0.288275
0.288106
0.287937
0.287789
0.28766
0.287539
0.287397
0.287311
0.287195
0.287106
0.287042
0.286964
0.286913
0.286851
0.286822
0.286774
0.286772
0.286766
0.286742
0.286755
0.286747
0.286788
0.286787
0.286849
0.286858
0.286935
0.286957
0.287046
0.28708
0.28718
0.287226
0.287345
0.287406
0.287549
0.287626
0.287798
0.287893
0.288102
0.288214
0.28848
0.288597
0.289013
0.289137
0.294642
4.72236
547.554
0.758789
0.633956
0.547124
0.487589
0.446069
0.416283
0.394197
0.37739
0.364235
0.353764
0.345231
0.338214
0.332316
0.327348
0.323066
0.319398
0.316171
0.313371
0.310866
0.308672
0.306679
0.304923
0.303304
0.301874
0.300539
0.299359
0.298242
0.297256
0.296313
0.295483
0.294678
0.293973
0.293282
0.292682
0.292085
0.29157
0.291054
0.290612
0.29016
0.289779
0.289382
0.289053
0.28871
0.288428
0.288123
0.287877
0.287615
0.287403
0.287167
0.286984
0.28679
0.28662
0.286449
0.2863
0.286168
0.286046
0.285903
0.285814
0.285697
0.285607
0.285541
0.285462
0.285409
0.285346
0.285315
0.285266
0.285262
0.285255
0.285228
0.28524
0.28523
0.285267
0.285267
0.285327
0.285334
0.285408
0.285429
0.285517
0.285549
0.285647
0.285692
0.285808
0.285868
0.286008
0.286084
0.286253
0.286346
0.286552
0.286662
0.286924
0.287039
0.287452
0.287575
0.293264
4.87989
543.204
0.758821
0.633949
0.546963
0.487234
0.445531
0.415589
0.393376
0.376464
0.363225
0.352686
0.344095
0.33703
0.331091
0.326089
0.321777
0.318083
0.314833
0.312014
0.309491
0.307282
0.305274
0.303506
0.301875
0.300435
0.29909
0.297901
0.296777
0.295783
0.294834
0.293997
0.293186
0.292475
0.291779
0.291175
0.290572
0.290054
0.289533
0.289088
0.288632
0.288247
0.287848
0.287515
0.287169
0.286884
0.286577
0.286328
0.286063
0.285849
0.285611
0.285426
0.28523
0.285058
0.284885
0.284734
0.2846
0.284477
0.284332
0.284242
0.284123
0.284031
0.283963
0.283883
0.283828
0.283764
0.283731
0.283681
0.283675
0.283666
0.283638
0.283647
0.283636
0.28367
0.283669
0.283726
0.283732
0.283804
0.283824
0.283909
0.283939
0.284036
0.284079
0.284193
0.284251
0.284388
0.284463
0.284629
0.28472
0.284923
0.285031
0.285289
0.285402
0.285812
0.285933
0.291813
5.03859
537.975
0.758853
0.633944
0.546798
0.486866
0.44497
0.414865
0.392518
0.375497
0.36217
0.351557
0.342906
0.33579
0.329809
0.32477
0.320427
0.316705
0.313432
0.310592
0.30805
0.305824
0.303802
0.30202
0.300377
0.298926
0.297571
0.296373
0.29524
0.294239
0.293282
0.292439
0.291622
0.290905
0.290204
0.289594
0.288987
0.288464
0.287939
0.287489
0.28703
0.286642
0.286238
0.285903
0.285553
0.285266
0.284955
0.284704
0.284437
0.28422
0.28398
0.283792
0.283594
0.28342
0.283245
0.283092
0.282955
0.282831
0.282685
0.282592
0.282473
0.282379
0.282309
0.282228
0.282171
0.282105
0.28207
0.282019
0.28201
0.282
0.28197
0.281977
0.281964
0.281995
0.281993
0.282048
0.282052
0.282123
0.28214
0.282224
0.282252
0.282346
0.282388
0.282499
0.282556
0.28269
0.282763
0.282926
0.283015
0.283214
0.28332
0.283575
0.283685
0.284092
0.284211
0.290286
5.19623
531.845
0.758886
0.633939
0.546627
0.486485
0.444389
0.414112
0.391624
0.374489
0.361068
0.350378
0.341664
0.334495
0.328469
0.323391
0.319015
0.315265
0.311967
0.309105
0.306543
0.3043
0.302262
0.300466
0.298811
0.297348
0.295983
0.294775
0.293633
0.292623
0.291659
0.290809
0.289985
0.289263
0.288555
0.28794
0.287328
0.2868
0.286271
0.285817
0.285353
0.284962
0.284555
0.284216
0.283863
0.283572
0.283259
0.283005
0.282734
0.282516
0.282273
0.282082
0.281882
0.281706
0.281529
0.281374
0.281235
0.281109
0.280961
0.280867
0.280745
0.280649
0.280577
0.280495
0.280436
0.280369
0.280332
0.28028
0.280268
0.280256
0.280225
0.280229
0.280215
0.280242
0.28024
0.280291
0.280295
0.280363
0.280378
0.28046
0.280486
0.280578
0.280618
0.280727
0.280782
0.280913
0.280984
0.281144
0.281231
0.281427
0.281531
0.281782
0.281889
0.282292
0.28241
0.288683
5.35024
524.798
0.758921
0.633935
0.546453
0.486092
0.443786
0.41333
0.390695
0.373439
0.359921
0.349151
0.34037
0.333145
0.327071
0.321954
0.317543
0.313762
0.310438
0.307553
0.304971
0.302709
0.300655
0.298844
0.297175
0.295701
0.294324
0.293106
0.291955
0.290937
0.289965
0.289107
0.288276
0.287548
0.286834
0.286214
0.285596
0.285063
0.284529
0.284071
0.283603
0.283207
0.282796
0.282454
0.282097
0.281804
0.281487
0.28123
0.280957
0.280736
0.28049
0.280297
0.280094
0.279916
0.279737
0.27958
0.279438
0.279311
0.279161
0.279064
0.278942
0.278844
0.278769
0.278686
0.278624
0.278556
0.278517
0.278464
0.278449
0.278436
0.278403
0.278404
0.278388
0.278412
0.278408
0.278457
0.278459
0.278524
0.278538
0.278617
0.278642
0.278732
0.27877
0.278876
0.278929
0.279058
0.279127
0.279283
0.279368
0.27956
0.279662
0.279909
0.280013
0.280413
0.28053
0.287001
5.49775
516.821
0.758956
0.633932
0.546275
0.485687
0.443163
0.41252
0.389731
0.37235
0.358729
0.347874
0.339024
0.33174
0.325617
0.320457
0.31601
0.312198
0.308846
0.305936
0.303332
0.301052
0.29898
0.297155
0.295472
0.293984
0.292596
0.291367
0.290207
0.289179
0.288199
0.287334
0.286495
0.28576
0.28504
0.284414
0.283791
0.283253
0.282714
0.282251
0.281778
0.281379
0.280964
0.280618
0.280257
0.27996
0.279641
0.27938
0.279104
0.27888
0.278632
0.278436
0.278231
0.27805
0.277869
0.27771
0.277565
0.277437
0.277284
0.277186
0.277061
0.276961
0.276884
0.276799
0.276736
0.276667
0.276625
0.276571
0.276552
0.276538
0.276504
0.276502
0.276483
0.276505
0.2765
0.276544
0.276546
0.276609
0.27662
0.276697
0.27672
0.276807
0.276843
0.276947
0.276998
0.277123
0.27719
0.277343
0.277427
0.277614
0.277714
0.277956
0.278058
0.278454
0.27857
0.28524
5.63561
507.901
0.758992
0.633931
0.546093
0.48527
0.442521
0.411683
0.388733
0.371221
0.357492
0.34655
0.337626
0.330281
0.324105
0.318901
0.314416
0.310571
0.30719
0.304255
0.301629
0.299329
0.297239
0.295397
0.293699
0.292199
0.290798
0.289559
0.288388
0.287351
0.286362
0.285489
0.284643
0.283901
0.283174
0.282542
0.281912
0.281369
0.280825
0.280357
0.27988
0.279476
0.279057
0.278707
0.278343
0.278042
0.277719
0.277456
0.277176
0.276949
0.276698
0.2765
0.276291
0.276109
0.275925
0.275764
0.275615
0.275486
0.275331
0.275231
0.275105
0.275003
0.274923
0.274837
0.274771
0.2747
0.274656
0.274601
0.274579
0.274563
0.274527
0.274523
0.274502
0.27452
0.274514
0.274555
0.274555
0.274615
0.274625
0.274699
0.274719
0.274805
0.274838
0.27494
0.274988
0.275111
0.275175
0.275325
0.275406
0.27559
0.275687
0.275925
0.276024
0.276416
0.276531
0.283395
5.76042
498.028
0.75903
0.63393
0.545908
0.484843
0.44186
0.410819
0.387702
0.370053
0.356213
0.345178
0.336177
0.328768
0.322538
0.317288
0.312763
0.308883
0.305472
0.302511
0.299861
0.297539
0.295431
0.293572
0.291859
0.290345
0.288932
0.287681
0.286499
0.285452
0.284454
0.283573
0.282719
0.281969
0.281236
0.280597
0.279962
0.279413
0.278863
0.278391
0.277908
0.2775
0.277077
0.276723
0.276354
0.27605
0.275723
0.275457
0.275173
0.274944
0.27469
0.274488
0.274277
0.274093
0.273906
0.273742
0.273591
0.27346
0.273303
0.2732
0.273072
0.272968
0.272886
0.272798
0.272729
0.272657
0.27261
0.272554
0.272529
0.272512
0.272474
0.272468
0.272443
0.272458
0.272451
0.272487
0.272487
0.272544
0.272552
0.272623
0.272642
0.272724
0.272756
0.272854
0.272901
0.27302
0.273083
0.273228
0.273307
0.273486
0.273581
0.273815
0.273911
0.274299
0.274413
0.281467
5.86859
487.19
0.759067
0.633931
0.545721
0.484407
0.441181
0.40993
0.386638
0.368847
0.35489
0.343759
0.334678
0.327202
0.320916
0.315617
0.311051
0.307135
0.303692
0.300703
0.298028
0.295685
0.293557
0.291681
0.289952
0.288423
0.286996
0.285733
0.28454
0.283484
0.282476
0.281586
0.280723
0.279967
0.279226
0.278581
0.277939
0.277384
0.276828
0.276351
0.275864
0.275451
0.275023
0.274665
0.274292
0.273984
0.273654
0.273384
0.273097
0.272864
0.272607
0.272402
0.272188
0.272001
0.271811
0.271646
0.271491
0.271358
0.271199
0.271093
0.270964
0.270858
0.270772
0.270683
0.270612
0.270538
0.270489
0.270431
0.270402
0.270384
0.270344
0.270336
0.270309
0.27032
0.270311
0.270343
0.270342
0.270395
0.270401
0.27047
0.270487
0.270567
0.270596
0.270691
0.270736
0.270851
0.270912
0.271053
0.27113
0.271305
0.271397
0.271627
0.271719
0.272103
0.272216
0.279452
5.95643
475.375
0.759106
0.633934
0.545531
0.483961
0.440484
0.409016
0.385544
0.367603
0.353525
0.342294
0.33313
0.325584
0.319239
0.313889
0.30928
0.305326
0.301851
0.298832
0.296132
0.293766
0.291617
0.289723
0.287977
0.286433
0.284993
0.283717
0.282513
0.281446
0.280428
0.279529
0.278658
0.277893
0.277145
0.276493
0.275844
0.275284
0.274722
0.274239
0.273746
0.273329
0.272896
0.272534
0.272156
0.271845
0.27151
0.271237
0.270946
0.27071
0.27045
0.270242
0.270024
0.269835
0.269642
0.269475
0.269316
0.269182
0.26902
0.268912
0.268781
0.268672
0.268584
0.268493
0.268419
0.268344
0.268292
0.268233
0.2682
0.26818
0.268139
0.268128
0.268098
0.268107
0.268095
0.268124
0.268121
0.268171
0.268175
0.268241
0.268255
0.268332
0.268359
0.268451
0.268493
0.268605
0.268664
0.268801
0.268876
0.269046
0.269136
0.26936
0.26945
0.26983
0.269942
0.277349
6.02023
462.571
0.759145
0.633938
0.54534
0.483506
0.439772
0.408078
0.384418
0.366324
0.352119
0.340783
0.331533
0.323914
0.317507
0.312106
0.307451
0.303458
0.299948
0.2969
0.294173
0.291783
0.289613
0.2877
0.285937
0.284377
0.282923
0.281634
0.280417
0.279339
0.27831
0.277402
0.276522
0.275749
0.274993
0.274334
0.273679
0.273112
0.272544
0.272056
0.271557
0.271135
0.270697
0.27033
0.269948
0.269632
0.269294
0.269017
0.268722
0.268483
0.268219
0.268008
0.267787
0.267596
0.2674
0.26723
0.267068
0.266931
0.266767
0.266656
0.266523
0.266412
0.266321
0.266228
0.266151
0.266075
0.266019
0.265959
0.265923
0.265901
0.265858
0.265845
0.265812
0.265818
0.265804
0.265828
0.265825
0.26587
0.265873
0.265935
0.265947
0.266021
0.266046
0.266135
0.266175
0.266283
0.266339
0.266472
0.266545
0.266711
0.266798
0.267017
0.267103
0.267479
0.26759
0.275154
6.05631
448.771
0.759185
0.633944
0.545147
0.483044
0.439044
0.407117
0.383263
0.365009
0.350673
0.339229
0.329889
0.322194
0.315723
0.310267
0.305565
0.301532
0.297986
0.294906
0.292152
0.289737
0.287545
0.285612
0.283831
0.282255
0.280785
0.279483
0.278254
0.277164
0.276125
0.275207
0.274318
0.273536
0.272772
0.272105
0.271443
0.270869
0.270295
0.269801
0.269297
0.268869
0.268426
0.268055
0.267668
0.267348
0.267005
0.266724
0.266426
0.266183
0.265916
0.265701
0.265477
0.265283
0.265084
0.264911
0.264745
0.264607
0.264441
0.264327
0.264191
0.264078
0.263984
0.263889
0.26381
0.263731
0.263673
0.263611
0.263571
0.263548
0.263502
0.263487
0.263452
0.263454
0.263438
0.263458
0.263453
0.263494
0.263495
0.263554
0.263564
0.263635
0.263657
0.263743
0.26378
0.263885
0.263938
0.264068
0.264137
0.264299
0.264383
0.264597
0.26468
0.265051
0.265162
0.272867
6.06139
433.969
0.759225
0.633951
0.544953
0.482575
0.438302
0.406135
0.38208
0.36366
0.349188
0.337631
0.328198
0.320424
0.313887
0.308374
0.303623
0.299547
0.295965
0.292852
0.290069
0.287629
0.285414
0.28346