/*--------------------------------*- C++ -*----------------------------------*\
| =========                 |                                                 |
| \\      /  F ield         | OpenFOAM: The Open Source CFD Toolbox           |
|  \\    /   O peration     | Version:  v2012                                 |
|   \\  /    A nd           | Website:  www.openfoam.com                      |
|    \\/     M anipulation  |                                                 |
\*---------------------------------------------------------------------------*/
FoamFile
{
    version     2.0;
    format      ascii;
    class       volScalarField;
    location    "44";
    object      k;
}
// * * * * * * * * * * * * * * * * * * * * * * * * * * * * * * * * * * * * * //

dimensions      [0 2 -2 0 0 0 0];


internalField   nonuniform List<scalar> 
209825
(
0.00102439
0.000932955
0.000855282
0.000789067
0.000733222
0.000686729
0.000648011
0.000615781
0.000588635
0.000565707
0.000546035
0.000529154
0.000514402
0.00050158
0.000490191
0.000480189
0.000471178
0.000463205
0.000455931
0.000449464
0.000443493
0.000438167
0.000433196
0.000428754
0.000424563
0.000420817
0.000417248
0.000414065
0.000410994
0.000408267
0.000405609
0.000403258
0.000400939
0.000398901
0.000396865
0.000395092
0.0003933
0.000391752
0.000390164
0.000388807
0.000387393
0.0003862
0.000384937
0.000383886
0.000382756
0.000381827
0.000380813
0.000379991
0.000379077
0.00037835
0.000377527
0.000376882
0.000376141
0.00037557
0.000374902
0.000374396
0.000373791
0.000373346
0.000372799
0.000372407
0.00037191
0.000371568
0.000371116
0.000370813
0.000370409
0.00037014
0.000369778
0.000369536
0.000369213
0.000368997
0.000368709
0.000368517
0.000368263
0.000368094
0.000367856
0.000367696
0.000367471
0.000367324
0.000367118
0.000366989
0.000366803
0.000366692
0.000366526
0.000366434
0.000366291
0.00036622
0.000366104
0.000366055
0.000365982
0.000365952
0.000365876
0.000365923
0.000365912
0.000369669
0.0108661
0.0127197
0.00102439
0.000932955
0.000855283
0.000789068
0.000733223
0.000686729
0.000648011
0.00061578
0.000588633
0.000565704
0.00054603
0.000529149
0.000514397
0.000501573
0.000490184
0.000480181
0.00047117
0.000463197
0.000455923
0.000449455
0.000443483
0.000438157
0.000433186
0.000428743
0.000424552
0.000420806
0.000417237
0.000414053
0.000410982
0.000408255
0.000405597
0.000403246
0.000400926
0.000398889
0.000396853
0.00039508
0.000393287
0.000391739
0.000390151
0.000388794
0.00038738
0.000386187
0.000384924
0.000383872
0.000382743
0.000381813
0.000380799
0.000379977
0.000379064
0.000378336
0.000377513
0.000376868
0.000376126
0.000375556
0.000374888
0.000374381
0.000373777
0.000373332
0.000372785
0.000372393
0.000371895
0.000371554
0.000371102
0.000370798
0.000370394
0.000370126
0.000369763
0.000369521
0.000369198
0.000368982
0.000368695
0.000368502
0.000368248
0.000368079
0.000367841
0.000367681
0.000367456
0.000367309
0.000367103
0.000366974
0.000366787
0.000366677
0.000366511
0.000366419
0.000366276
0.000366205
0.000366088
0.000366039
0.000365966
0.000365937
0.00036586
0.000365908
0.000365896
0.000369658
0.010875
0.0127312
0.00102438
0.000932956
0.000855285
0.00078907
0.000733224
0.000686727
0.000648005
0.00061577
0.000588619
0.000565686
0.00054601
0.000529125
0.00051437
0.000501544
0.000490152
0.000480147
0.000471134
0.000463159
0.000455884
0.000449415
0.000443441
0.000438114
0.000433141
0.000428698
0.000424506
0.000420759
0.000417189
0.000414004
0.000410933
0.000408205
0.000405546
0.000403195
0.000400874
0.000398836
0.000396799
0.000395026
0.000393233
0.000391684
0.000390096
0.000388739
0.000387324
0.000386131
0.000384867
0.000383816
0.000382686
0.000381756
0.000380742
0.000379919
0.000379005
0.000378277
0.000377455
0.000376809
0.000376067
0.000375496
0.000374828
0.000374322
0.000373717
0.000373272
0.000372725
0.000372332
0.000371835
0.000371493
0.000371041
0.000370737
0.000370333
0.000370064
0.000369701
0.00036946
0.000369136
0.00036892
0.000368632
0.00036844
0.000368186
0.000368017
0.000367779
0.000367618
0.000367393
0.000367247
0.00036704
0.000366911
0.000366724
0.000366614
0.000366448
0.000366355
0.000366212
0.000366141
0.000366024
0.000365975
0.000365902
0.000365872
0.000365795
0.000365843
0.000365831
0.000369603
0.0108917
0.0127529
0.00102438
0.000932956
0.000855288
0.000789074
0.000733225
0.000686724
0.000647995
0.000615753
0.000588596
0.000565657
0.000545975
0.000529085
0.000514325
0.000501494
0.000490099
0.00048009
0.000471074
0.000463096
0.000455818
0.000449346
0.00044337
0.000438041
0.000433066
0.000428621
0.000424427
0.000420679
0.000417107
0.000413922
0.000410849
0.00040812
0.00040546
0.000403108
0.000400786
0.000398747
0.00039671
0.000394935
0.000393142
0.000391592
0.000390003
0.000388645
0.00038723
0.000386036
0.000384772
0.00038372
0.000382589
0.000381659
0.000380644
0.000379821
0.000378907
0.000378179
0.000377356
0.00037671
0.000375968
0.000375396
0.000374728
0.000374221
0.000373616
0.00037317
0.000372623
0.000372231
0.000371733
0.000371391
0.000370938
0.000370634
0.00037023
0.000369961
0.000369598
0.000369356
0.000369032
0.000368816
0.000368528
0.000368335
0.000368081
0.000367912
0.000367674
0.000367513
0.000367288
0.000367141
0.000366934
0.000366805
0.000366618
0.000366507
0.000366341
0.000366248
0.000366105
0.000366034
0.000365917
0.000365867
0.000365794
0.000365764
0.000365687
0.000365734
0.000365722
0.000369509
0.0109172
0.012786
0.00102438
0.000932958
0.000855293
0.00078908
0.000733227
0.000686719
0.000647981
0.00061573
0.000588563
0.000565615
0.000545925
0.000529027
0.000514261
0.000501424
0.000490023
0.00048001
0.000470988
0.000463007
0.000455724
0.000449249
0.00044327
0.000437938
0.000432961
0.000428513
0.000424317
0.000420566
0.000416993
0.000413805
0.000410731
0.000408
0.000405339
0.000402985
0.000400662
0.000398621
0.000396583
0.000394808
0.000393013
0.000391462
0.000389872
0.000388513
0.000387098
0.000385903
0.000384638
0.000383585
0.000382453
0.000381523
0.000380507
0.000379683
0.000378769
0.00037804
0.000377216
0.00037657
0.000375827
0.000375255
0.000374586
0.000374079
0.000373473
0.000373028
0.00037248
0.000372087
0.000371589
0.000371246
0.000370793
0.000370489
0.000370084
0.000369815
0.000369452
0.00036921
0.000368885
0.000368669
0.000368381
0.000368187
0.000367933
0.000367764
0.000367526
0.000367364
0.000367139
0.000366992
0.000366785
0.000366655
0.000366468
0.000366357
0.000366191
0.000366097
0.000365954
0.000365882
0.000365765
0.000365715
0.000365641
0.000365611
0.000365533
0.00036558
0.000365567
0.000369376
0.0109523
0.0128315
0.00102438
0.000932959
0.0008553
0.000789087
0.00073323
0.000686712
0.000647963
0.0006157
0.000588521
0.000565561
0.00054586
0.000528953
0.000514178
0.000501334
0.000489925
0.000479905
0.000470878
0.000462891
0.000455603
0.000449124
0.000443141
0.000437805
0.000432824
0.000428373
0.000424174
0.00042042
0.000416844
0.000413654
0.000410577
0.000407845
0.000405181
0.000402826
0.000400501
0.000398459
0.000396419
0.000394642
0.000392846
0.000391294
0.000389703
0.000388343
0.000386926
0.00038573
0.000384464
0.00038341
0.000382277
0.000381346
0.000380329
0.000379505
0.00037859
0.00037786
0.000377035
0.000376388
0.000375645
0.000375072
0.000374403
0.000373895
0.000373289
0.000372843
0.000372294
0.000371901
0.000371402
0.000371059
0.000370606
0.000370301
0.000369896
0.000369626
0.000369262
0.00036902
0.000368695
0.000368478
0.00036819
0.000367996
0.000367742
0.000367572
0.000367333
0.000367172
0.000366946
0.000366799
0.000366591
0.000366462
0.000366274
0.000366163
0.000365996
0.000365902
0.000365758
0.000365686
0.000365569
0.000365518
0.000365444
0.000365413
0.000365334
0.00036538
0.000365367
0.000369203
0.0109978
0.0128901
0.00102438
0.000932961
0.000855308
0.000789097
0.000733233
0.000686704
0.000647941
0.000615662
0.000588469
0.000565495
0.000545781
0.000528862
0.000514076
0.000501222
0.000489805
0.000479777
0.000470742
0.000462748
0.000455455
0.00044897
0.000442982
0.000437641
0.000432655
0.0004282
0.000423998
0.000420241
0.000416661
0.000413468
0.000410389
0.000407653
0.000404988
0.00040263
0.000400303
0.000398258
0.000396217
0.000394438
0.00039264
0.000391087
0.000389494
0.000388132
0.000386714
0.000385517
0.000384249
0.000383194
0.000382061
0.000381128
0.000380111
0.000379285
0.000378369
0.000377638
0.000376813
0.000376165
0.00037542
0.000374847
0.000374177
0.000373668
0.000373061
0.000372615
0.000372065
0.000371672
0.000371172
0.000370828
0.000370375
0.000370069
0.000369663
0.000369393
0.000369029
0.000368786
0.000368461
0.000368243
0.000367955
0.000367761
0.000367506
0.000367336
0.000367097
0.000366935
0.000366709
0.000366561
0.000366353
0.000366223
0.000366035
0.000365923
0.000365755
0.000365661
0.000365517
0.000365444
0.000365326
0.000365275
0.0003652
0.000365169
0.000365088
0.000365135
0.00036512
0.00036899
0.0110544
0.0129628
0.00102438
0.000932962
0.000855317
0.000789108
0.000733238
0.000686695
0.000647915
0.000615618
0.000588407
0.000565417
0.000545687
0.000528754
0.000513955
0.000501089
0.000489662
0.000479624
0.000470581
0.000462579
0.000455278
0.000448786
0.000442792
0.000437446
0.000432455
0.000427995
0.000423788
0.000420027
0.000416444
0.000413247
0.000410164
0.000407426
0.000404757
0.000402396
0.000400066
0.00039802
0.000395976
0.000394195
0.000392395
0.00039084
0.000389245
0.000387882
0.000386461
0.000385263
0.000383994
0.000382937
0.000381802
0.000380869
0.00037985
0.000379023
0.000378105
0.000377374
0.000376547
0.000375898
0.000375153
0.000374579
0.000373908
0.000373398
0.00037279
0.000372343
0.000371793
0.000371398
0.000370898
0.000370554
0.000370099
0.000369793
0.000369387
0.000369116
0.000368751
0.000368508
0.000368182
0.000367964
0.000367674
0.00036748
0.000367225
0.000367054
0.000366815
0.000366652
0.000366426
0.000366278
0.000366069
0.000365938
0.000365749
0.000365637
0.000365469
0.000365375
0.00036523
0.000365156
0.000365038
0.000364986
0.00036491
0.000364879
0.000364796
0.000364842
0.000364827
0.000368738
0.0111227
0.0130501
0.00102437
0.000932965
0.000855328
0.000789121
0.000733243
0.000686684
0.000647885
0.000615567
0.000588335
0.000565326
0.000545578
0.000528629
0.000513815
0.000500935
0.000489495
0.000479446
0.000470393
0.000462382
0.000455073
0.000448573
0.000442572
0.000437219
0.000432222
0.000427757
0.000423544
0.000419778
0.00041619
0.00041299
0.000409903
0.000407161
0.000404489
0.000402125
0.000399792
0.000397743
0.000395696
0.000393912
0.00039211
0.000390552
0.000388955
0.00038759
0.000386168
0.000384968
0.000383697
0.000382639
0.000381502
0.000380567
0.000379546
0.000378718
0.000377799
0.000377066
0.000376239
0.000375589
0.000374842
0.000374267
0.000373595
0.000373084
0.000372475
0.000372027
0.000371476
0.000371081
0.000370579
0.000370234
0.000369779
0.000369472
0.000369065
0.000368794
0.000368428
0.000368184
0.000367857
0.000367639
0.000367348
0.000367154
0.000366897
0.000366727
0.000366486
0.000366324
0.000366096
0.000365948
0.000365738
0.000365607
0.000365418
0.000365305
0.000365136
0.000365041
0.000364895
0.000364821
0.000364702
0.000364649
0.000364573
0.00036454
0.000364456
0.000364501
0.000364485
0.000368444
0.0112032
0.0131529
0.00102437
0.000932967
0.000855341
0.000789135
0.000733248
0.000686673
0.000647851
0.00061551
0.000588254
0.000565223
0.000545455
0.000528486
0.000513655
0.00050076
0.000489306
0.000479244
0.000470179
0.000462157
0.000454838
0.00044833
0.00044232
0.00043696
0.000431956
0.000427484
0.000423266
0.000419494
0.000415902
0.000412696
0.000409605
0.000406859
0.000404182
0.000401815
0.000399479
0.000397426
0.000395376
0.00039359
0.000391784
0.000390224
0.000388625
0.000387257
0.000385833
0.00038463
0.000383358
0.000382298
0.000381159
0.000380222
0.0003792
0.00037837
0.00037745
0.000376715
0.000375886
0.000375235
0.000374487
0.000373911
0.000373237
0.000372726
0.000372115
0.000371666
0.000371114
0.000370718
0.000370215
0.000369869
0.000369413
0.000369106
0.000368697
0.000368425
0.000368058
0.000367813
0.000367486
0.000367267
0.000366976
0.000366781
0.000366524
0.000366352
0.000366111
0.000365948
0.00036572
0.000365571
0.000365361
0.000365229
0.000365039
0.000364925
0.000364756
0.00036466
0.000364513
0.000364438
0.000364318
0.000364265
0.000364187
0.000364154
0.000364067
0.000364112
0.000364095
0.00036811
0.0112963
0.0132716
0.00102437
0.00093297
0.000855355
0.000789152
0.000733255
0.00068666
0.000647813
0.000615445
0.000588164
0.000565107
0.000545316
0.000528326
0.000513476
0.000500563
0.000489093
0.000479017
0.000469939
0.000461905
0.000454575
0.000448056
0.000442038
0.000436669
0.000431657
0.000427178
0.000422953
0.000419175
0.000415577
0.000412366
0.000409269
0.000406518
0.000403838
0.000401466
0.000399126
0.00039707
0.000395016
0.000393227
0.000391418
0.000389855
0.000388253
0.000386883
0.000385456
0.000384251
0.000382976
0.000381914
0.000380773
0.000379834
0.00037881
0.000377979
0.000377056
0.00037632
0.000375489
0.000374836
0.000374087
0.00037351
0.000372834
0.000372322
0.00037171
0.000371259
0.000370706
0.000370309
0.000369805
0.000369458
0.000369
0.000368692
0.000368282
0.00036801
0.000367642
0.000367396
0.000367068
0.000366848
0.000366556
0.00036636
0.000366103
0.000365931
0.000365689
0.000365525
0.000365296
0.000365146
0.000364935
0.000364803
0.000364612
0.000364497
0.000364327
0.00036423
0.000364083
0.000364007
0.000363886
0.000363832
0.000363753
0.000363719
0.00036363
0.000363674
0.000363655
0.000367735
0.0114024
0.0134069
0.00102437
0.000932973
0.00085537
0.000789171
0.000733264
0.000686646
0.000647772
0.000615375
0.000588064
0.000564979
0.000545162
0.000528149
0.000513277
0.000500345
0.000488857
0.000478764
0.000469672
0.000461624
0.000454282
0.000447752
0.000441723
0.000436345
0.000431324
0.000426837
0.000422604
0.00041882
0.000415215
0.000411998
0.000408896
0.00040614
0.000403454
0.000401078
0.000398733
0.000396673
0.000394615
0.000392822
0.00039101
0.000389444
0.000387838
0.000386465
0.000385035
0.000383828
0.00038255
0.000381486
0.000380342
0.000379402
0.000378375
0.000377542
0.000376617
0.00037588
0.000375047
0.000374393
0.000373641
0.000373062
0.000372385
0.000371872
0.000371258
0.000370806
0.000370251
0.000369853
0.000369348
0.000369
0.000368541
0.000368232
0.000367821
0.000367547
0.000367178
0.000366932
0.000366602
0.000366382
0.000366089
0.000365892
0.000365634
0.000365461
0.000365218
0.000365054
0.000364824
0.000364674
0.000364461
0.000364328
0.000364136
0.000364021
0.000363849
0.000363752
0.000363603
0.000363527
0.000363404
0.000363349
0.000363269
0.000363234
0.000363142
0.000363185
0.000363165
0.000367317
0.0115216
0.0135593
0.00102436
0.000932976
0.000855387
0.000789192
0.000733273
0.000686632
0.000647728
0.000615297
0.000587954
0.000564839
0.000544994
0.000527954
0.000513059
0.000500105
0.000488597
0.000478487
0.000469378
0.000461315
0.00045396
0.000447417
0.000441377
0.000435988
0.000430958
0.000426462
0.000422221
0.000418428
0.000414816
0.000411593
0.000408484
0.000405722
0.000403031
0.000400649
0.0003983
0.000396235
0.000394173
0.000392376
0.00039056
0.00038899
0.000387381
0.000386005
0.000384572
0.000383362
0.000382081
0.000381014
0.000379868
0.000378925
0.000377896
0.00037706
0.000376133
0.000375394
0.000374559
0.000373903
0.000373149
0.000372569
0.00037189
0.000371375
0.00037076
0.000370307
0.00036975
0.00036935
0.000368843
0.000368495
0.000368034
0.000367724
0.000367311
0.000367037
0.000366667
0.000366419
0.000366089
0.000365867
0.000365573
0.000365375
0.000365116
0.000364942
0.000364699
0.000364534
0.000364303
0.000364151
0.000363938
0.000363804
0.000363611
0.000363495
0.000363322
0.000363224
0.000363073
0.000362996
0.000362872
0.000362816
0.000362734
0.000362698
0.000362604
0.000362646
0.000362625
0.000366858
0.0116538
0.013729
0.00102436
0.000932979
0.000855406
0.000789215
0.000733284
0.000686617
0.00064768
0.000615214
0.000587836
0.000564687
0.00054481
0.000527742
0.000512821
0.000499843
0.000488314
0.000478184
0.000469057
0.000460978
0.000453608
0.000447051
0.000440999
0.000435598
0.000430557
0.000426051
0.000421801
0.000418
0.00041438
0.000411149
0.000408034
0.000405265
0.000402568
0.000400181
0.000397826
0.000395756
0.000393689
0.000391888
0.000390068
0.000388494
0.000386881
0.000385501
0.000384064
0.000382851
0.000381567
0.000380497
0.000379348
0.000378402
0.000377371
0.000376533
0.000375604
0.000374862
0.000374024
0.000373367
0.000372611
0.000372029
0.000371348
0.000370831
0.000370214
0.000369759
0.0003692
0.0003688
0.000368291
0.000367941
0.000367479
0.000367167
0.000366754
0.000366478
0.000366106
0.000365858
0.000365526
0.000365303
0.000365008
0.000364809
0.000364549
0.000364374
0.00036413
0.000363964
0.000363732
0.00036358
0.000363365
0.00036323
0.000363035
0.000362919
0.000362744
0.000362645
0.000362494
0.000362415
0.00036229
0.000362232
0.000362149
0.000362112
0.000362014
0.000362056
0.000362033
0.000366356
0.0117986
0.0139165
0.00102435
0.000932983
0.000855426
0.00078924
0.000733296
0.000686601
0.000647629
0.000615124
0.000587708
0.000564522
0.000544612
0.000527512
0.000512563
0.000499559
0.000488007
0.000477855
0.000468709
0.000460612
0.000453225
0.000446654
0.000440588
0.000435174
0.000430122
0.000425605
0.000421345
0.000417535
0.000413906
0.000410667
0.000407544
0.000404769
0.000402065
0.000399671
0.000397311
0.000395236
0.000393163
0.000391357
0.000389532
0.000387954
0.000386337
0.000384953
0.000383512
0.000382296
0.000381008
0.000379935
0.000378783
0.000377834
0.0003768
0.00037596
0.000375027
0.000374283
0.000373443
0.000372783
0.000372025
0.000371441
0.000370758
0.000370239
0.00036962
0.000369164
0.000368603
0.000368201
0.00036769
0.000367339
0.000366875
0.000366562
0.000366147
0.000365869
0.000365496
0.000365247
0.000364913
0.00036469
0.000364393
0.000364194
0.000363931
0.000363756
0.00036351
0.000363344
0.000363111
0.000362957
0.000362741
0.000362606
0.000362409
0.000362292
0.000362116
0.000362016
0.000361862
0.000361783
0.000361656
0.000361597
0.000361512
0.000361474
0.000361373
0.000361414
0.000361389
0.000365811
0.0119556
0.0141218
0.00102435
0.000932987
0.000855448
0.000789268
0.000733309
0.000686586
0.000647575
0.000615029
0.000587571
0.000564346
0.000544399
0.000527266
0.000512285
0.000499253
0.000487676
0.000477501
0.000468333
0.000460217
0.000452813
0.000446226
0.000440144
0.000434717
0.000429652
0.000425124
0.000420852
0.000417032
0.000413394
0.000410146
0.000407015
0.000404232
0.000401521
0.000399121
0.000396754
0.000394673
0.000392595
0.000390783
0.000388953
0.000387371
0.000385748
0.000384361
0.000382916
0.000381695
0.000380404
0.000379327
0.000378172
0.00037722
0.000376182
0.000375339
0.000374404
0.000373658
0.000372815
0.000372152
0.000371392
0.000370805
0.00037012
0.000369599
0.000368977
0.000368519
0.000367957
0.000367553
0.00036704
0.000366687
0.000366221
0.000365907
0.00036549
0.000365211
0.000364837
0.000364586
0.000364251
0.000364026
0.000363728
0.000363527
0.000363264
0.000363088
0.00036284
0.000362673
0.000362438
0.000362284
0.000362067
0.00036193
0.000361732
0.000361613
0.000361436
0.000361334
0.00036118
0.000361099
0.00036097
0.00036091
0.000360823
0.000360784
0.000360679
0.000360719
0.000360692
0.000365222
0.0121237
0.0143452
0.00102434
0.000932991
0.000855472
0.000789298
0.000733325
0.00068657
0.000647518
0.000614927
0.000587425
0.000564158
0.000544171
0.000527002
0.000511988
0.000498926
0.000487321
0.000477121
0.000467931
0.000459794
0.00045237
0.000445766
0.000439668
0.000434226
0.000429147
0.000424606
0.000420323
0.000416492
0.000412844
0.000409587
0.000406446
0.000403655
0.000400936
0.000398529
0.000396155
0.000394068
0.000391983
0.000390166
0.00038833
0.000386743
0.000385115
0.000383723
0.000382274
0.000381049
0.000379753
0.000378674
0.000377514
0.000376559
0.000375517
0.000374672
0.000373733
0.000372984
0.000372138
0.000371473
0.00037071
0.000370121
0.000369433
0.00036891
0.000368286
0.000367826
0.000367261
0.000366855
0.00036634
0.000365985
0.000365518
0.000365202
0.000364783
0.000364503
0.000364126
0.000363874
0.000363537
0.000363311
0.000363011
0.00036281
0.000362545
0.000362368
0.000362119
0.000361951
0.000361714
0.000361559
0.00036134
0.000361202
0.000361003
0.000360883
0.000360704
0.000360601
0.000360445
0.000360362
0.000360232
0.00036017
0.000360081
0.00036004
0.000359932
0.000359971
0.000359942
0.000364589
0.0123018
0.0145864
0.00102434
0.000932995
0.000855497
0.00078933
0.000733342
0.000686554
0.000647459
0.000614821
0.000587271
0.000563958
0.000543929
0.000526721
0.000511672
0.000498577
0.000486942
0.000476715
0.000467501
0.000459341
0.000451897
0.000445274
0.000439159
0.000433701
0.000428607
0.000424053
0.000419757
0.000415914
0.000412255
0.000408988
0.000405838
0.000403038
0.00040031
0.000397895
0.000395514
0.000393419
0.000391329
0.000389505
0.000387663
0.00038607
0.000384438
0.000383041
0.000381586
0.000380357
0.000379057
0.000377973
0.000376809
0.000375851
0.000374805
0.000373956
0.000373014
0.000372262
0.000371413
0.000370746
0.000369979
0.000369388
0.000368697
0.000368172
0.000367545
0.000367083
0.000366515
0.000366108
0.00036559
0.000365234
0.000364764
0.000364446
0.000364025
0.000363743
0.000363365
0.000363111
0.000362773
0.000362545
0.000362244
0.000362041
0.000361774
0.000361596
0.000361346
0.000361176
0.000360939
0.000360782
0.000360562
0.000360422
0.000360221
0.0003601
0.000359919
0.000359815
0.000359656
0.000359573
0.00035944
0.000359377
0.000359286
0.000359243
0.000359131
0.000359169
0.000359139
0.000363911
0.0124882
0.0148453
0.00102433
0.000932999
0.000855523
0.000789364
0.000733361
0.000686538
0.000647397
0.000614708
0.000587109
0.000563747
0.000543673
0.000526423
0.000511336
0.000498206
0.00048654
0.000476284
0.000467043
0.00045886
0.000451394
0.00044475
0.000438617
0.000433141
0.000428032
0.000423463
0.000419154
0.000415299
0.000411627
0.000408349
0.000405189
0.000402379
0.000399643
0.000397219
0.00039483
0.000392728
0.00039063
0.0003888
0.000386952
0.000385353
0.000383714
0.000382312
0.000380852
0.000379619
0.000378314
0.000377226
0.000376057
0.000375095
0.000374045
0.000373193
0.000372247
0.000371492
0.000370639
0.000369969
0.000369199
0.000368605
0.000367911
0.000367384
0.000366754
0.00036629
0.000365719
0.00036531
0.00036479
0.000364431
0.000363959
0.00036364
0.000363216
0.000362933
0.000362552
0.000362297
0.000361956
0.000361728
0.000361424
0.00036122
0.000360951
0.000360772
0.00036052
0.00036035
0.00036011
0.000359953
0.00035973
0.000359589
0.000359386
0.000359263
0.000359081
0.000358975
0.000358815
0.00035873
0.000358595
0.00035853
0.000358437
0.000358393
0.000358276
0.000358313
0.00035828
0.000363188
0.0126809
0.0151214
0.00102432
0.000933003
0.000855551
0.000789401
0.000733383
0.000686522
0.000647333
0.000614591
0.000586938
0.000563525
0.000543403
0.000526108
0.000510981
0.000497814
0.000486114
0.000475828
0.000466559
0.00045835
0.00045086
0.000444195
0.000438041
0.000432548
0.000427422
0.000422837
0.000418513
0.000414644
0.00041096
0.000407671
0.0004045
0.00040168
0.000398933
0.000396501
0.000394103
0.000391994
0.000389888
0.000388051
0.000386195
0.00038459
0.000382945
0.000381538
0.000380072
0.000378834
0.000377523
0.000376431
0.000375258
0.000374291
0.000373237
0.000372381
0.000371431
0.000370673
0.000369816
0.000369143
0.000368369
0.000367773
0.000367075
0.000366545
0.000365912
0.000365446
0.000364872
0.000364461
0.000363938
0.000363577
0.000363103
0.000362781
0.000362355
0.00036207
0.000361688
0.00036143
0.000361088
0.000360857
0.000360552
0.000360346
0.000360076
0.000359896
0.000359642
0.00035947
0.000359229
0.00035907
0.000358845
0.000358703
0.000358498
0.000358374
0.000358189
0.000358082
0.000357919
0.000357832
0.000357696
0.000357629
0.000357533
0.000357487
0.000357366
0.000357402
0.000357367
0.000362417
0.0128775
0.0154138
0.00102432
0.000933007
0.000855581
0.000789441
0.000733406
0.000686508
0.000647268
0.000614469
0.000586759
0.000563292
0.000543119
0.000525777
0.000510607
0.000497401
0.000485665
0.000475346
0.000466047
0.00045781
0.000450296
0.000443607
0.000437433
0.00043192
0.000426776
0.000422174
0.000417835
0.000413952
0.000410254
0.000406952
0.00040377
0.000400939
0.000398182
0.000395741
0.000393333
0.000391215
0.000389101
0.000387257
0.000385394
0.000383782
0.000382131
0.000380717
0.000379245
0.000378001
0.000376686
0.000375588
0.00037441
0.000373439
0.000372381
0.000371521
0.000370566
0.000369804
0.000368943
0.000368267
0.00036749
0.00036689
0.000366189
0.000365656
0.00036502
0.000364551
0.000363974
0.00036356
0.000363035
0.000362672
0.000362195
0.000361871
0.000361443
0.000361155
0.00036077
0.000360511
0.000360167
0.000359934
0.000359627
0.00035942
0.000359147
0.000358966
0.00035871
0.000358537
0.000358294
0.000358133
0.000357907
0.000357763
0.000357556
0.00035743
0.000357243
0.000357134
0.000356969
0.000356881
0.000356742
0.000356673
0.000356574
0.000356527
0.000356401
0.000356436
0.000356399
0.000361599
0.013075
0.0157215
0.00102431
0.000933011
0.000855612
0.000789483
0.000733432
0.000686494
0.000647201
0.000614343
0.000586573
0.000563048
0.000542822
0.00052543
0.000510214
0.000496966
0.000485193
0.000474838
0.000465508
0.000457243
0.000449702
0.000442988
0.000436792
0.000431258
0.000426095
0.000421475
0.00041712
0.000413221
0.000409509
0.000406194
0.000402999
0.000400157
0.000397389
0.000394937
0.00039252
0.000390393
0.00038827
0.000386418
0.000384547
0.000382928
0.00038127
0.00037985
0.000378371
0.000377122
0.0003758
0.000374697
0.000373514
0.000372539
0.000371475
0.000370611
0.000369652
0.000368886
0.000368021
0.000367341
0.000366559
0.000365957
0.000365252
0.000364716
0.000364076
0.000363605
0.000363025
0.000362608
0.000362079
0.000361714
0.000361234
0.000360908
0.000360477
0.000360188
0.0003598
0.000359539
0.000359192
0.000358958
0.000358648
0.00035844
0.000358165
0.000357982
0.000357724
0.00035755
0.000357304
0.000357143
0.000356914
0.000356769
0.000356559
0.000356432
0.000356242
0.000356132
0.000355965
0.000355874
0.000355733
0.000355662
0.00035556
0.000355511
0.00035538
0.000355414
0.000355375
0.000360732
0.01327
0.0160431
0.0010243
0.000933015
0.000855645
0.000789528
0.00073346
0.000686481
0.000647132
0.000614212
0.00058638
0.000562794
0.000542511
0.000525067
0.000509803
0.000496511
0.000484697
0.000474306
0.000464942
0.000456646
0.000449077
0.000442338
0.000436117
0.000430562
0.000425378
0.00042074
0.000416367
0.000412452
0.000408725
0.000405396
0.000402188
0.000399333
0.000396553
0.000394091
0.000391663
0.000389527
0.000387395
0.000385534
0.000383655
0.000382029
0.000380362
0.000378935
0.00037745
0.000376195
0.000374867
0.000373759
0.000372569
0.000371589
0.00037052
0.000369652
0.000368688
0.000367918
0.000367048
0.000366364
0.000365579
0.000364973
0.000364263
0.000363725
0.000363081
0.000362607
0.000362023
0.000361604
0.000361072
0.000360704
0.000360221
0.000359893
0.000359459
0.000359167
0.000358777
0.000358514
0.000358164
0.000357929
0.000357616
0.000357406
0.000357129
0.000356944
0.000356685
0.000356509
0.000356261
0.000356098
0.000355867
0.00035572
0.000355508
0.000355379
0.000355187
0.000355075
0.000354905
0.000354812
0.000354668
0.000354595
0.00035449
0.000354439
0.000354303
0.000354336
0.000354295
0.000359816
0.0134587
0.0163766
0.0010243
0.000933018
0.000855678
0.000789575
0.000733491
0.000686469
0.000647063
0.000614078
0.00058618
0.000562531
0.000542188
0.000524688
0.000509374
0.000496035
0.000484179
0.000473749
0.00046435
0.000456021
0.000448422
0.000441656
0.00043541
0.000429831
0.000424626
0.000419968
0.000415577
0.000411645
0.000407902
0.000404558
0.000401335
0.000398468
0.000395676
0.000393202
0.000390763
0.000388617
0.000386475
0.000384605
0.000382717
0.000381083
0.000379408
0.000377974
0.000376482
0.00037522
0.000373885
0.000372772
0.000371576
0.000370591
0.000369516
0.000368643
0.000367674
0.000366899
0.000366025
0.000365337
0.000364547
0.000363937
0.000363224
0.000362682
0.000362035
0.000361557
0.000360969
0.000360548
0.000360012
0.000359641
0.000359156
0.000358825
0.000358388
0.000358093
0.000357701
0.000357435
0.000357083
0.000356845
0.00035653
0.000356318
0.000356039
0.000355853
0.000355591
0.000355413
0.000355163
0.000354998
0.000354764
0.000354616
0.000354401
0.00035427
0.000354076
0.000353962
0.000353789
0.000353694
0.000353547
0.000353472
0.000353364
0.000353312
0.00035317
0.000353201
0.000353159
0.000358848
0.0136367
0.0167196
0.00102429
0.000933022
0.000855714
0.000789626
0.000733525
0.000686459
0.000646993
0.00061394
0.000585974
0.000562257
0.000541853
0.000524295
0.000508927
0.000495539
0.000483638
0.000473167
0.000463731
0.000455368
0.000447738
0.000440943
0.00043467
0.000429067
0.000423839
0.00041916
0.000414749
0.000410799
0.000407039
0.000403679
0.000400442
0.000397561
0.000394756
0.00039227
0.00038982
0.000387663
0.00038551
0.000383631
0.000381734
0.000380091
0.000378408
0.000376966
0.000375466
0.000374198
0.000372856
0.000371736
0.000370534
0.000369543
0.000368462
0.000367584
0.000366609
0.000365831
0.000364951
0.000364259
0.000363464
0.000362851
0.000362133
0.000361588
0.000360936
0.000360455
0.000359863
0.000359439
0.000358899
0.000358526
0.000358037
0.000357703
0.000357263
0.000356966
0.00035657
0.000356303
0.000355948
0.000355708
0.00035539
0.000355176
0.000354894
0.000354706
0.000354442
0.000354262
0.00035401
0.000353843
0.000353607
0.000353457
0.000353239
0.000353106
0.000352909
0.000352793
0.000352617
0.000352521
0.000352371
0.000352293
0.000352182
0.000352127
0.000351981
0.00035201
0.000351966
0.000357827
0.0137992
0.017069
0.00102428
0.000933026
0.000855751
0.000789678
0.000733562
0.000686451
0.000646922
0.000613799
0.000585761
0.000561975
0.000541505
0.000523886
0.000508462
0.000495023
0.000483076
0.000472562
0.000463086
0.000454687
0.000447024
0.000440198
0.000433898
0.000428269
0.000423017
0.000418316
0.000413884
0.000409916
0.000406138
0.000402761
0.000399508
0.000396613
0.000393794
0.000391295
0.000388832
0.000386664
0.000384501
0.000382612
0.000380704
0.000379053
0.000377361
0.000375911
0.000374403
0.000373127
0.000371778
0.000370652
0.000369443
0.000368446
0.000367359
0.000366476
0.000365495
0.000364711
0.000363826
0.00036313
0.00036233
0.000361713
0.00036099
0.000360441
0.000359785
0.0003593
0.000358705
0.000358277
0.000357734