/*--------------------------------*- C++ -*----------------------------------*\
| =========                 |                                                 |
| \\      /  F ield         | OpenFOAM: The Open Source CFD Toolbox           |
|  \\    /   O peration     | Version:  v2012                                 |
|   \\  /    A nd           | Website:  www.openfoam.com                      |
|    \\/     M anipulation  |                                                 |
\*---------------------------------------------------------------------------*/
FoamFile
{
    version     2.0;
    format      ascii;
    class       volScalarField;
    location    "44";
    object      nut;
}
// * * * * * * * * * * * * * * * * * * * * * * * * * * * * * * * * * * * * * //

dimensions      [0 2 -1 0 0 0 0];


internalField   nonuniform List<scalar> 
209825
(
1.24522e-07
1.23542e-07
1.19931e-07
1.14018e-07
1.07082e-07
1.00184e-07
9.38099e-08
8.81605e-08
8.3205e-08
7.89083e-08
7.5155e-08
7.18968e-08
6.90261e-08
6.65191e-08
6.42855e-08
6.23207e-08
6.05495e-08
5.89827e-08
5.75544e-08
5.62859e-08
5.51163e-08
5.40748e-08
5.31047e-08
5.2239e-08
5.14239e-08
5.06963e-08
5.00047e-08
4.93885e-08
4.87949e-08
4.82684e-08
4.77566e-08
4.73038e-08
4.68577e-08
4.64656e-08
4.6075e-08
4.57344e-08
4.53904e-08
4.50933e-08
4.47891e-08
4.45287e-08
4.4258e-08
4.4029e-08
4.37862e-08
4.35838e-08
4.33672e-08
4.31882e-08
4.29924e-08
4.28337e-08
4.26581e-08
4.25169e-08
4.23563e-08
4.22331e-08
4.20879e-08
4.19786e-08
4.18443e-08
4.17468e-08
4.16293e-08
4.15399e-08
4.14328e-08
4.13554e-08
4.12513e-08
4.11848e-08
4.10892e-08
4.10292e-08
4.09416e-08
4.08863e-08
4.08026e-08
4.07493e-08
4.06787e-08
4.06257e-08
4.05626e-08
4.05107e-08
4.04545e-08
4.04064e-08
4.03509e-08
4.03032e-08
4.02489e-08
4.02025e-08
4.01509e-08
4.01069e-08
4.00581e-08
4.00152e-08
3.99691e-08
3.99266e-08
3.98833e-08
3.98412e-08
3.98013e-08
3.97588e-08
3.97258e-08
3.968e-08
3.96448e-08
3.95968e-08
3.95746e-08
3.99071e-08
3.43245e-06
2.53143e-08
1.24521e-07
1.23542e-07
1.19931e-07
1.14019e-07
1.07084e-07
1.00186e-07
9.38123e-08
8.81629e-08
8.32074e-08
7.89105e-08
7.51571e-08
7.18988e-08
6.9028e-08
6.65209e-08
6.42871e-08
6.23222e-08
6.05509e-08
5.89839e-08
5.75555e-08
5.62869e-08
5.51173e-08
5.40757e-08
5.31055e-08
5.22397e-08
5.14246e-08
5.06969e-08
5.00052e-08
4.9389e-08
4.87954e-08
4.82688e-08
4.77569e-08
4.73041e-08
4.68579e-08
4.64658e-08
4.60752e-08
4.57346e-08
4.53906e-08
4.50934e-08
4.47892e-08
4.45288e-08
4.42581e-08
4.4029e-08
4.37862e-08
4.35838e-08
4.33671e-08
4.31882e-08
4.29924e-08
4.28336e-08
4.2658e-08
4.25167e-08
4.23562e-08
4.22329e-08
4.20877e-08
4.19784e-08
4.18441e-08
4.17466e-08
4.16291e-08
4.15397e-08
4.14326e-08
4.13552e-08
4.1251e-08
4.11845e-08
4.10889e-08
4.10289e-08
4.09413e-08
4.0886e-08
4.08022e-08
4.0749e-08
4.06784e-08
4.06254e-08
4.05622e-08
4.05104e-08
4.04542e-08
4.0406e-08
4.03505e-08
4.03029e-08
4.02485e-08
4.02021e-08
4.01505e-08
4.01065e-08
4.00577e-08
4.00149e-08
3.99687e-08
3.99262e-08
3.98829e-08
3.98408e-08
3.98009e-08
3.97584e-08
3.97254e-08
3.96795e-08
3.96443e-08
3.95964e-08
3.95741e-08
3.9907e-08
3.43253e-06
2.55075e-08
1.24521e-07
1.23543e-07
1.19934e-07
1.14025e-07
1.07092e-07
1.00195e-07
9.38221e-08
8.81727e-08
8.32168e-08
7.89195e-08
7.51655e-08
7.19065e-08
6.90351e-08
6.65274e-08
6.42931e-08
6.23277e-08
6.05559e-08
5.89886e-08
5.75598e-08
5.62908e-08
5.51208e-08
5.40789e-08
5.31084e-08
5.22424e-08
5.1427e-08
5.0699e-08
5.00072e-08
4.93907e-08
4.87969e-08
4.82702e-08
4.77581e-08
4.73052e-08
4.68589e-08
4.64666e-08
4.60759e-08
4.57351e-08
4.5391e-08
4.50937e-08
4.47895e-08
4.45289e-08
4.42581e-08
4.4029e-08
4.37861e-08
4.35836e-08
4.33669e-08
4.31879e-08
4.2992e-08
4.28332e-08
4.26575e-08
4.25162e-08
4.23556e-08
4.22323e-08
4.2087e-08
4.19777e-08
4.18433e-08
4.17458e-08
4.16282e-08
4.15388e-08
4.14316e-08
4.13542e-08
4.125e-08
4.11834e-08
4.10878e-08
4.10278e-08
4.09401e-08
4.08849e-08
4.0801e-08
4.07477e-08
4.06772e-08
4.06242e-08
4.05609e-08
4.05091e-08
4.04528e-08
4.04047e-08
4.03492e-08
4.03015e-08
4.02471e-08
4.02007e-08
4.01491e-08
4.01051e-08
4.00562e-08
4.00134e-08
3.99672e-08
3.99247e-08
3.98813e-08
3.98392e-08
3.97993e-08
3.97568e-08
3.97238e-08
3.96779e-08
3.96426e-08
3.95946e-08
3.95724e-08
3.99059e-08
3.43203e-06
2.57728e-08
1.2452e-07
1.23543e-07
1.19939e-07
1.14035e-07
1.07106e-07
1.00211e-07
9.38388e-08
8.81892e-08
8.32327e-08
7.89345e-08
7.51795e-08
7.19195e-08
6.90471e-08
6.65385e-08
6.43033e-08
6.2337e-08
6.05645e-08
5.89964e-08
5.75669e-08
5.62973e-08
5.51267e-08
5.40843e-08
5.31134e-08
5.22469e-08
5.14311e-08
5.07027e-08
5.00105e-08
4.93937e-08
4.87996e-08
4.82726e-08
4.77603e-08
4.73071e-08
4.68605e-08
4.6468e-08
4.60771e-08
4.57361e-08
4.53918e-08
4.50944e-08
4.47899e-08
4.45293e-08
4.42583e-08
4.4029e-08
4.3786e-08
4.35834e-08
4.33665e-08
4.31874e-08
4.29914e-08
4.28325e-08
4.26567e-08
4.25153e-08
4.23546e-08
4.22312e-08
4.20859e-08
4.19765e-08
4.1842e-08
4.17444e-08
4.16268e-08
4.15373e-08
4.143e-08
4.13526e-08
4.12483e-08
4.11817e-08
4.1086e-08
4.10259e-08
4.09382e-08
4.08829e-08
4.07991e-08
4.07457e-08
4.06751e-08
4.06221e-08
4.05588e-08
4.05069e-08
4.04507e-08
4.04025e-08
4.03469e-08
4.02993e-08
4.02448e-08
4.01984e-08
4.01467e-08
4.01027e-08
4.00538e-08
4.00109e-08
3.99647e-08
3.99221e-08
3.98788e-08
3.98366e-08
3.97966e-08
3.97542e-08
3.97211e-08
3.96752e-08
3.96398e-08
3.95918e-08
3.95695e-08
3.9904e-08
3.43111e-06
2.6082e-08
1.24519e-07
1.23544e-07
1.19946e-07
1.1405e-07
1.07126e-07
1.00234e-07
9.38623e-08
8.82126e-08
8.32552e-08
7.89557e-08
7.51994e-08
7.19379e-08
6.90641e-08
6.65541e-08
6.43176e-08
6.23502e-08
6.05766e-08
5.90075e-08
5.7577e-08
5.63066e-08
5.51352e-08
5.4092e-08
5.31204e-08
5.22533e-08
5.14369e-08
5.0708e-08
5.00153e-08
4.9398e-08
4.88035e-08
4.8276e-08
4.77633e-08
4.73097e-08
4.68628e-08
4.64701e-08
4.60788e-08
4.57376e-08
4.5393e-08
4.50953e-08
4.47906e-08
4.45298e-08
4.42586e-08
4.40291e-08
4.37859e-08
4.35831e-08
4.3366e-08
4.31868e-08
4.29906e-08
4.28316e-08
4.26556e-08
4.25141e-08
4.23533e-08
4.22298e-08
4.20843e-08
4.19748e-08
4.18402e-08
4.17425e-08
4.16248e-08
4.15352e-08
4.14278e-08
4.13503e-08
4.12459e-08
4.11793e-08
4.10835e-08
4.10234e-08
4.09355e-08
4.08803e-08
4.07964e-08
4.07429e-08
4.06722e-08
4.06193e-08
4.05558e-08
4.0504e-08
4.04476e-08
4.03994e-08
4.03438e-08
4.02961e-08
4.02416e-08
4.01952e-08
4.01434e-08
4.00994e-08
4.00504e-08
4.00075e-08
3.99612e-08
3.99186e-08
3.98752e-08
3.9833e-08
3.9793e-08
3.97505e-08
3.97173e-08
3.96714e-08
3.96359e-08
3.95878e-08
3.95655e-08
3.99014e-08
3.42982e-06
2.64236e-08
1.24518e-07
1.23545e-07
1.19956e-07
1.14068e-07
1.07152e-07
1.00263e-07
9.38929e-08
8.82429e-08
8.32844e-08
7.89833e-08
7.52252e-08
7.19619e-08
6.90863e-08
6.65745e-08
6.43363e-08
6.23674e-08
6.05923e-08
5.90219e-08
5.75902e-08
5.63186e-08
5.51462e-08
5.41021e-08
5.31296e-08
5.22616e-08
5.14444e-08
5.07148e-08
5.00215e-08
4.94036e-08
4.88085e-08
4.82805e-08
4.77673e-08
4.73133e-08
4.68659e-08
4.64728e-08
4.60811e-08
4.57395e-08
4.53946e-08
4.50966e-08
4.47916e-08
4.45304e-08
4.4259e-08
4.40292e-08
4.37858e-08
4.35828e-08
4.33655e-08
4.3186e-08
4.29896e-08
4.28304e-08
4.26543e-08
4.25126e-08
4.23516e-08
4.2228e-08
4.20823e-08
4.19727e-08
4.1838e-08
4.17401e-08
4.16222e-08
4.15326e-08
4.1425e-08
4.13475e-08
4.12429e-08
4.11762e-08
4.10803e-08
4.10201e-08
4.09322e-08
4.08768e-08
4.07929e-08
4.07393e-08
4.06686e-08
4.06156e-08
4.05521e-08
4.05001e-08
4.04437e-08
4.03955e-08
4.03398e-08
4.02921e-08
4.02375e-08
4.0191e-08
4.01392e-08
4.00951e-08
4.00461e-08
4.00031e-08
3.99567e-08
3.99141e-08
3.98706e-08
3.98284e-08
3.97883e-08
3.97458e-08
3.97125e-08
3.96666e-08
3.96308e-08
3.95828e-08
3.95604e-08
3.98981e-08
3.42818e-06
2.67933e-08
1.24516e-07
1.23546e-07
1.19967e-07
1.14091e-07
1.07183e-07
1.00299e-07
9.39306e-08
8.82803e-08
8.33204e-08
7.90174e-08
7.5257e-08
7.19915e-08
6.91136e-08
6.65997e-08
6.43595e-08
6.23886e-08
6.06118e-08
5.90397e-08
5.76065e-08
5.63335e-08
5.51598e-08
5.41146e-08
5.31409e-08
5.22719e-08
5.14538e-08
5.07234e-08
5.00292e-08
4.94105e-08
4.88147e-08
4.82861e-08
4.77723e-08
4.73177e-08
4.68698e-08
4.64761e-08
4.6084e-08
4.5742e-08
4.53966e-08
4.50982e-08
4.47928e-08
4.45313e-08
4.42595e-08
4.40295e-08
4.37857e-08
4.35824e-08
4.33648e-08
4.31851e-08
4.29885e-08
4.28291e-08
4.26527e-08
4.25108e-08
4.23496e-08
4.22257e-08
4.20799e-08
4.19701e-08
4.18352e-08
4.17372e-08
4.16191e-08
4.15293e-08
4.14216e-08
4.1344e-08
4.12393e-08
4.11724e-08
4.10764e-08
4.10161e-08
4.0928e-08
4.08727e-08
4.07886e-08
4.0735e-08
4.06641e-08
4.06111e-08
4.05474e-08
4.04955e-08
4.0439e-08
4.03907e-08
4.03349e-08
4.02871e-08
4.02325e-08
4.01859e-08
4.01341e-08
4.00899e-08
4.00408e-08
3.99977e-08
3.99513e-08
3.99086e-08
3.9865e-08
3.98227e-08
3.97825e-08
3.97399e-08
3.97066e-08
3.96606e-08
3.96246e-08
3.95765e-08
3.95541e-08
3.98941e-08
3.42626e-06
2.71914e-08
1.24514e-07
1.23548e-07
1.19981e-07
1.14119e-07
1.0722e-07
1.00342e-07
9.39755e-08
8.8325e-08
8.33635e-08
7.90582e-08
7.52951e-08
7.20269e-08
6.91463e-08
6.66298e-08
6.43872e-08
6.24141e-08
6.06351e-08
5.90611e-08
5.76261e-08
5.63515e-08
5.51762e-08
5.41295e-08
5.31545e-08
5.22843e-08
5.14651e-08
5.07336e-08
5.00384e-08
4.94189e-08
4.88222e-08
4.82929e-08
4.77783e-08
4.7323e-08
4.68745e-08
4.64802e-08
4.60875e-08
4.5745e-08
4.53991e-08
4.51002e-08
4.47944e-08
4.45324e-08
4.42602e-08
4.40298e-08
4.37856e-08
4.3582e-08
4.33641e-08
4.31841e-08
4.29872e-08
4.28275e-08
4.26508e-08
4.25087e-08
4.23472e-08
4.22232e-08
4.20771e-08
4.19671e-08
4.1832e-08
4.17338e-08
4.16155e-08
4.15255e-08
4.14176e-08
4.13398e-08
4.1235e-08
4.1168e-08
4.10718e-08
4.10113e-08
4.09231e-08
4.08677e-08
4.07836e-08
4.07298e-08
4.06588e-08
4.06058e-08
4.05419e-08
4.049e-08
4.04333e-08
4.0385e-08
4.03291e-08
4.02813e-08
4.02265e-08
4.01799e-08
4.01279e-08
4.00837e-08
4.00344e-08
3.99914e-08
3.99448e-08
3.99021e-08
3.98583e-08
3.9816e-08
3.97757e-08
3.9733e-08
3.96996e-08
3.96535e-08
3.96172e-08
3.95692e-08
3.95466e-08
3.98894e-08
3.4241e-06
2.76214e-08
1.24512e-07
1.23549e-07
1.19997e-07
1.1415e-07
1.07264e-07
1.00392e-07
9.40279e-08
8.8377e-08
8.34137e-08
7.91057e-08
7.53396e-08
7.20682e-08
6.91845e-08
6.6665e-08
6.44196e-08
6.24438e-08
6.06624e-08
5.90861e-08
5.7649e-08
5.63724e-08
5.51954e-08
5.4147e-08
5.31705e-08
5.22989e-08
5.14784e-08
5.07456e-08
5.00493e-08
4.94288e-08
4.88311e-08
4.83008e-08
4.77853e-08
4.73293e-08
4.688e-08
4.6485e-08
4.60916e-08
4.57485e-08
4.5402e-08
4.51026e-08
4.47962e-08
4.45338e-08
4.42611e-08
4.40302e-08
4.37856e-08
4.35817e-08
4.33634e-08
4.3183e-08
4.29857e-08
4.28257e-08
4.26487e-08
4.25063e-08
4.23445e-08
4.22202e-08
4.20738e-08
4.19636e-08
4.18283e-08
4.17298e-08
4.16113e-08
4.15212e-08
4.1413e-08
4.13351e-08
4.123e-08
4.11628e-08
4.10665e-08
4.10058e-08
4.09175e-08
4.0862e-08
4.07778e-08
4.07238e-08
4.06527e-08
4.05996e-08
4.05356e-08
4.04836e-08
4.04268e-08
4.03784e-08
4.03224e-08
4.02745e-08
4.02196e-08
4.0173e-08
4.01208e-08
4.00765e-08
4.00271e-08
3.9984e-08
3.99372e-08
3.98945e-08
3.98506e-08
3.98082e-08
3.97678e-08
3.97251e-08
3.96914e-08
3.96454e-08
3.96087e-08
3.95606e-08
3.95379e-08
3.98839e-08
3.42175e-06
2.8089e-08
1.24509e-07
1.23551e-07
1.20015e-07
1.14186e-07
1.07313e-07
1.00449e-07
9.40878e-08
8.84366e-08
8.34712e-08
7.91602e-08
7.53906e-08
7.21156e-08
6.92283e-08
6.67054e-08
6.44568e-08
6.2478e-08
6.06937e-08
5.91148e-08
5.76753e-08
5.63965e-08
5.52174e-08
5.41671e-08
5.31889e-08
5.23157e-08
5.14936e-08
5.07595e-08
5.00619e-08
4.94401e-08
4.88413e-08
4.831e-08
4.77935e-08
4.73366e-08
4.68864e-08
4.64906e-08
4.60964e-08
4.57526e-08
4.54054e-08
4.51054e-08
4.47984e-08
4.45354e-08
4.42621e-08
4.40308e-08
4.37857e-08
4.35813e-08
4.33625e-08
4.31818e-08
4.29841e-08
4.28237e-08
4.26463e-08
4.25037e-08
4.23414e-08
4.22169e-08
4.20701e-08
4.19597e-08
4.1824e-08
4.17253e-08
4.16065e-08
4.15162e-08
4.14077e-08
4.13296e-08
4.12243e-08
4.1157e-08
4.10604e-08
4.09996e-08
4.0911e-08
4.08555e-08
4.07711e-08
4.07169e-08
4.06457e-08
4.05926e-08
4.05283e-08
4.04763e-08
4.04193e-08
4.03708e-08
4.03148e-08
4.02668e-08
4.02118e-08
4.0165e-08
4.01127e-08
4.00683e-08
4.00188e-08
3.99756e-08
3.99287e-08
3.98859e-08
3.98418e-08
3.97994e-08
3.97587e-08
3.97159e-08
3.96821e-08
3.9636e-08
3.9599e-08
3.95508e-08
3.9528e-08
3.98778e-08
3.41925e-06
2.86021e-08
1.24506e-07
1.23553e-07
1.20035e-07
1.14227e-07
1.07369e-07
1.00513e-07
9.41553e-08
8.85039e-08
8.35362e-08
7.92218e-08
7.54483e-08
7.21692e-08
6.9278e-08
6.67512e-08
6.44989e-08
6.25167e-08
6.07293e-08
5.91474e-08
5.77052e-08
5.64239e-08
5.52424e-08
5.419e-08
5.32098e-08
5.23347e-08
5.15109e-08
5.07753e-08
5.00761e-08
4.9453e-08
4.88529e-08
4.83204e-08
4.78028e-08
4.73449e-08
4.68937e-08
4.6497e-08
4.61019e-08
4.57573e-08
4.54093e-08
4.51086e-08
4.48009e-08
4.45373e-08
4.42634e-08
4.40316e-08
4.37859e-08
4.3581e-08
4.33617e-08
4.31805e-08
4.29823e-08
4.28215e-08
4.26437e-08
4.25007e-08
4.23381e-08
4.22132e-08
4.2066e-08
4.19553e-08
4.18193e-08
4.17203e-08
4.16012e-08
4.15107e-08
4.14018e-08
4.13236e-08
4.1218e-08
4.11504e-08
4.10537e-08
4.09926e-08
4.09038e-08
4.08481e-08
4.07637e-08
4.07093e-08
4.06379e-08
4.05847e-08
4.05202e-08
4.04681e-08
4.0411e-08
4.03624e-08
4.03062e-08
4.02581e-08
4.02029e-08
4.01561e-08
4.01036e-08
4.00591e-08
4.00094e-08
3.99661e-08
3.9919e-08
3.98761e-08
3.98319e-08
3.97894e-08
3.97486e-08
3.97057e-08
3.96717e-08
3.96255e-08
3.9588e-08
3.95398e-08
3.95169e-08
3.9871e-08
3.41662e-06
2.91699e-08
1.24503e-07
1.23555e-07
1.20057e-07
1.14272e-07
1.07431e-07
1.00585e-07
9.42307e-08
8.8579e-08
8.36088e-08
7.92906e-08
7.55128e-08
7.22292e-08
6.93335e-08
6.68024e-08
6.45461e-08
6.256e-08
6.07691e-08
5.9184e-08
5.77387e-08
5.64545e-08
5.52705e-08
5.42157e-08
5.32332e-08
5.23561e-08
5.15304e-08
5.0793e-08
5.00922e-08
4.94676e-08
4.88661e-08
4.83322e-08
4.78133e-08
4.73542e-08
4.69019e-08
4.65043e-08
4.61082e-08
4.57627e-08
4.54139e-08
4.51124e-08
4.48038e-08
4.45396e-08
4.42649e-08
4.40325e-08
4.37861e-08
4.35807e-08
4.33608e-08
4.31791e-08
4.29804e-08
4.28192e-08
4.26408e-08
4.24975e-08
4.23344e-08
4.22091e-08
4.20616e-08
4.19505e-08
4.18142e-08
4.17148e-08
4.15953e-08
4.15045e-08
4.13953e-08
4.13169e-08
4.1211e-08
4.11432e-08
4.10462e-08
4.09849e-08
4.08958e-08
4.084e-08
4.07554e-08
4.07008e-08
4.06292e-08
4.0576e-08
4.05112e-08
4.0459e-08
4.04017e-08
4.0353e-08
4.02966e-08
4.02484e-08
4.01931e-08
4.01462e-08
4.00935e-08
4.00489e-08
3.9999e-08
3.99556e-08
3.99083e-08
3.98653e-08
3.98209e-08
3.97783e-08
3.97373e-08
3.96943e-08
3.96601e-08
3.96138e-08
3.95759e-08
3.95276e-08
3.95045e-08
3.98634e-08
3.41389e-06
2.98026e-08
1.24499e-07
1.23558e-07
1.20081e-07
1.14321e-07
1.075e-07
1.00664e-07
9.4314e-08
8.86622e-08
8.36892e-08
7.93669e-08
7.55844e-08
7.22958e-08
6.93952e-08
6.68594e-08
6.45985e-08
6.26082e-08
6.08134e-08
5.92246e-08
5.7776e-08
5.64887e-08
5.53018e-08
5.42443e-08
5.32594e-08
5.238e-08
5.15522e-08
5.08128e-08
5.01101e-08
4.94838e-08
4.88807e-08
4.83454e-08
4.78251e-08
4.73647e-08
4.69112e-08
4.65125e-08
4.61153e-08
4.57688e-08
4.5419e-08
4.51166e-08
4.48072e-08
4.45422e-08
4.42667e-08
4.40336e-08
4.37865e-08
4.35805e-08
4.33599e-08
4.31777e-08
4.29784e-08
4.28167e-08
4.26377e-08
4.2494e-08
4.23303e-08
4.22047e-08
4.20567e-08
4.19453e-08
4.18085e-08
4.17088e-08
4.15889e-08
4.14978e-08
4.13882e-08
4.13096e-08
4.12033e-08
4.11352e-08
4.10379e-08
4.09764e-08
4.0887e-08
4.08311e-08
4.07463e-08
4.06914e-08
4.06196e-08
4.05663e-08
4.05012e-08
4.0449e-08
4.03914e-08
4.03427e-08
4.02861e-08
4.02378e-08
4.01823e-08
4.01352e-08
4.00823e-08
4.00376e-08
3.99875e-08
3.9944e-08
3.98965e-08
3.98534e-08
3.98087e-08
3.97661e-08
3.97248e-08
3.96817e-08
3.96473e-08
3.96009e-08
3.95625e-08
3.95141e-08
3.94909e-08
3.98552e-08
3.41104e-06
3.05114e-08
1.24495e-07
1.2356e-07
1.20108e-07
1.14375e-07
1.07574e-07
1.00751e-07
9.44054e-08
8.87534e-08
8.37776e-08
7.94508e-08
7.56631e-08
7.23691e-08
6.94631e-08
6.69221e-08
6.46563e-08
6.26614e-08
6.08622e-08
5.92695e-08
5.78171e-08
5.65264e-08
5.53363e-08
5.42759e-08
5.32883e-08
5.24064e-08
5.15762e-08
5.08347e-08
5.013e-08
4.95019e-08
4.8897e-08
4.83601e-08
4.78382e-08
4.73765e-08
4.69216e-08
4.65216e-08
4.61232e-08
4.57756e-08
4.54247e-08
4.51214e-08
4.4811e-08
4.45451e-08
4.42688e-08
4.40349e-08
4.37871e-08
4.35803e-08
4.3359e-08
4.31763e-08
4.29763e-08
4.2814e-08
4.26345e-08
4.24902e-08
4.23261e-08
4.21999e-08
4.20514e-08
4.19396e-08
4.18024e-08
4.17023e-08
4.1582e-08
4.14906e-08
4.13805e-08
4.13016e-08
4.1195e-08
4.11266e-08
4.10289e-08
4.09671e-08
4.08775e-08
4.08214e-08
4.07364e-08
4.06812e-08
4.06092e-08
4.05558e-08
4.04904e-08
4.04382e-08
4.03803e-08
4.03314e-08
4.02747e-08
4.02262e-08
4.01705e-08
4.01233e-08
4.00702e-08
4.00253e-08
3.99749e-08
3.99313e-08
3.98836e-08
3.98404e-08
3.97955e-08
3.97527e-08
3.97112e-08
3.9668e-08
3.96333e-08
3.95869e-08
3.95478e-08
3.94994e-08
3.9476e-08
3.98462e-08
3.40803e-06
3.13079e-08
1.24491e-07
1.23563e-07
1.20136e-07
1.14434e-07
1.07656e-07
1.00845e-07
9.45049e-08
8.8853e-08
8.38741e-08
7.95425e-08
7.57492e-08
7.24493e-08
6.95375e-08
6.69908e-08
6.47196e-08
6.27197e-08
6.09158e-08
5.93187e-08
5.78623e-08
5.65678e-08
5.53743e-08
5.43107e-08
5.332e-08
5.24354e-08
5.16027e-08
5.08588e-08
5.01519e-08
4.95217e-08
4.89149e-08
4.83763e-08
4.78527e-08
4.73894e-08
4.6933e-08
4.65317e-08
4.6132e-08
4.57832e-08
4.54311e-08
4.51267e-08
4.48153e-08
4.45485e-08
4.42712e-08
4.40365e-08
4.37878e-08
4.35803e-08
4.33583e-08
4.31748e-08
4.29741e-08
4.28113e-08
4.26311e-08
4.24863e-08
4.23215e-08
4.21949e-08
4.20458e-08
4.19335e-08
4.17959e-08
4.16953e-08
4.15745e-08
4.14828e-08
4.13722e-08
4.1293e-08
4.1186e-08
4.11173e-08
4.10193e-08
4.09572e-08
4.08671e-08
4.08109e-08
4.07257e-08
4.06702e-08
4.05979e-08
4.05444e-08
4.04787e-08
4.04264e-08
4.03682e-08
4.03192e-08
4.02623e-08
4.02137e-08
4.01577e-08
4.01104e-08
4.0057e-08
4.0012e-08
3.99613e-08
3.99176e-08
3.98695e-08
3.98263e-08
3.97811e-08
3.97382e-08
3.96964e-08
3.96531e-08
3.96181e-08
3.95716e-08
3.95319e-08
3.94834e-08
3.94599e-08
3.98366e-08
3.40477e-06
3.22042e-08
1.24486e-07
1.23565e-07
1.20166e-07
1.14496e-07
1.07743e-07
1.00947e-07
9.46128e-08
8.89611e-08
8.39789e-08
7.96422e-08
7.58429e-08
7.25367e-08
6.96185e-08
6.70656e-08
6.47886e-08
6.27832e-08
6.09742e-08
5.93724e-08
5.79116e-08
5.66131e-08
5.54158e-08
5.43487e-08
5.33548e-08
5.24672e-08
5.16317e-08
5.08853e-08
5.0176e-08
4.95436e-08
4.89347e-08
4.8394e-08
4.78687e-08
4.74037e-08
4.69457e-08
4.65429e-08
4.61417e-08
4.57917e-08
4.54383e-08
4.51328e-08
4.48202e-08
4.45523e-08
4.4274e-08
4.40384e-08
4.37888e-08
4.35805e-08
4.33576e-08
4.31734e-08
4.29719e-08
4.28084e-08
4.26275e-08
4.24822e-08
4.23167e-08
4.21895e-08
4.20398e-08
4.19271e-08
4.17889e-08
4.16878e-08
4.15665e-08
4.14744e-08
4.13633e-08
4.12838e-08
4.11763e-08
4.11073e-08
4.10089e-08
4.09464e-08
4.0856e-08
4.07995e-08
4.07141e-08
4.06583e-08
4.05857e-08
4.05321e-08
4.04661e-08
4.04137e-08
4.03551e-08
4.0306e-08
4.02489e-08
4.02001e-08
4.01439e-08
4.00964e-08
4.00428e-08
3.99976e-08
3.99466e-08
3.99028e-08
3.98544e-08
3.98111e-08
3.97655e-08
3.97225e-08
3.96804e-08
3.9637e-08
3.96016e-08
3.95551e-08
3.95147e-08
3.94662e-08
3.94424e-08
3.98263e-08
3.40112e-06
3.32126e-08
1.24481e-07
1.23568e-07
1.20199e-07
1.14564e-07
1.07838e-07
1.01057e-07
9.47292e-08
8.90777e-08
8.40922e-08
7.97501e-08
7.59443e-08
7.26313e-08
6.97063e-08
6.71468e-08
6.48635e-08
6.28522e-08
6.10377e-08
5.94307e-08
5.79652e-08
5.66623e-08
5.54609e-08
5.439e-08
5.33927e-08
5.25018e-08
5.16633e-08
5.09141e-08
5.02022e-08
4.95674e-08
4.89562e-08
4.84135e-08
4.78862e-08
4.74194e-08
4.69596e-08
4.65552e-08
4.61525e-08
4.5801e-08
4.54462e-08
4.51395e-08
4.48256e-08
4.45567e-08
4.42773e-08
4.40407e-08
4.379e-08
4.35808e-08
4.3357e-08
4.31721e-08
4.29697e-08
4.28055e-08
4.26238e-08
4.24779e-08
4.23116e-08
4.21839e-08
4.20335e-08
4.19203e-08
4.17815e-08
4.16799e-08
4.1558e-08
4.14655e-08
4.13538e-08
4.1274e-08
4.1166e-08
4.10966e-08
4.09978e-08
4.0935e-08
4.08442e-08
4.07874e-08
4.07017e-08
4.06456e-08
4.05727e-08
4.0519e-08
4.04525e-08
4.04002e-08
4.03411e-08
4.02919e-08
4.02345e-08
4.01856e-08
4.01291e-08
4.00815e-08
4.00275e-08
3.99822e-08
3.99309e-08
3.98869e-08
3.98382e-08
3.97947e-08
3.97488e-08
3.97057e-08
3.96633e-08
3.96197e-08
3.9584e-08
3.95373e-08
3.94963e-08
3.94477e-08
3.94237e-08
3.98152e-08
3.3969e-06
3.43454e-08
1.24476e-07
1.23571e-07
1.20233e-07
1.14635e-07
1.07938e-07
1.01175e-07
9.48542e-08
8.92032e-08
8.42142e-08
7.98663e-08
7.60537e-08
7.27333e-08
6.98011e-08
6.72345e-08
6.49445e-08
6.29268e-08
6.11064e-08
5.94939e-08
5.80232e-08
5.67156e-08
5.55098e-08
5.44349e-08
5.34337e-08
5.25394e-08
5.16977e-08
5.09455e-08
5.02307e-08
4.95934e-08
4.89797e-08
4.84348e-08
4.79053e-08
4.74365e-08
4.69749e-08
4.65688e-08
4.61643e-08
4.58114e-08
4.54551e-08
4.51469e-08
4.48317e-08
4.45616e-08
4.4281e-08
4.40433e-08
4.37916e-08
4.35815e-08
4.33566e-08
4.31708e-08
4.29676e-08
4.28026e-08
4.262e-08
4.24734e-08
4.23064e-08
4.2178e-08
4.20269e-08
4.19132e-08
4.17737e-08
4.16716e-08
4.15491e-08
4.14561e-08
4.13438e-08
4.12636e-08
4.11551e-08
4.10853e-08
4.0986e-08
4.09228e-08
4.08316e-08
4.07746e-08
4.06886e-08
4.06321e-08
4.05589e-08
4.0505e-08
4.04381e-08
4.03857e-08
4.03262e-08
4.02769e-08
4.02192e-08
4.01702e-08
4.01134e-08
4.00656e-08
4.00112e-08
3.99657e-08
3.99141e-08
3.98699e-08
3.98209e-08
3.97773e-08
3.9731e-08
3.96878e-08
3.9645e-08
3.96012e-08
3.95652e-08
3.95184e-08
3.94766e-08
3.94279e-08
3.94036e-08
3.98034e-08
3.39186e-06
3.5615e-08
1.24471e-07
1.23573e-07
1.20269e-07
1.14712e-07
1.08046e-07
1.01301e-07
9.49879e-08
8.93377e-08
8.43451e-08
7.99911e-08
7.61712e-08
7.28431e-08
6.99031e-08
6.73289e-08
6.50317e-08
6.30073e-08
6.11805e-08
5.95621e-08
5.80859e-08
5.67732e-08
5.55627e-08
5.44834e-08
5.34782e-08
5.25802e-08
5.17349e-08
5.09795e-08
5.02617e-08
4.96216e-08
4.90053e-08
4.84579e-08
4.79261e-08
4.74552e-08
4.69915e-08
4.65836e-08
4.61773e-08
4.58227e-08
4.54648e-08
4.51552e-08
4.48386e-08
4.45672e-08
4.42852e-08
4.40464e-08
4.37935e-08
4.35824e-08
4.33564e-08
4.31697e-08
4.29655e-08
4.27997e-08
4.26162e-08
4.24689e-08
4.2301e-08
4.2172e-08
4.20201e-08
4.19057e-08
4.17656e-08
4.16629e-08
4.15397e-08
4.14463e-08
4.13333e-08
4.12527e-08
4.11436e-08
4.10734e-08
4.09736e-08
4.091e-08
4.08183e-08
4.07609e-08
4.06746e-08
4.06177e-08
4.05442e-08
4.04902e-08
4.04228e-08
4.03704e-08
4.03104e-08
4.0261e-08
4.0203e-08
4.01537e-08
4.00966e-08
4.00486e-08
3.9994e-08
3.99483e-08
3.98963e-08
3.98519e-08
3.98025e-08
3.97587e-08
3.97121e-08
3.96687e-08
3.96255e-08
3.95816e-08
3.95451e-08
3.94982e-08
3.94557e-08
3.94068e-08
3.93823e-08
3.97908e-08
3.38567e-06
3.70342e-08
1.24465e-07
1.23576e-07
1.20308e-07
1.14792e-07
1.0816e-07
1.01435e-07
9.51305e-08
8.94812e-08
8.4485e-08
8.01246e-08
7.62971e-08
7.29608e-08
7.00125e-08
6.74303e-08
6.51254e-08
6.30937e-08
6.12602e-08
5.96354e-08
5.81534e-08
5.68352e-08
5.56197e-08
5.45357e-08
5.35262e-08
5.26241e-08
5.17751e-08
5.10163e-08
5.02952e-08
4.96521e-08
4.9033e-08
4.8483e-08
4.79487e-08
4.74756e-08
4.70097e-08
4.65997e-08
4.61916e-08
4.58352e-08
4.54755e-08
4.51644e-08
4.48462e-08
4.45734e-08
4.429e-08
4.40501e-08
4.37959e-08
4.35836e-08
4.33565e-08
4.31688e-08
4.29635e-08
4.27969e-08
4.26124e-08
4.24643e-08
4.22955e-08
4.21658e-08
4.2013e-08
4.1898e-08
4.17572e-08
4.16538e-08
4.15299e-08
4.1436e-08
4.13222e-08
4.12412e-08
4.11316e-08
4.10608e-08
4.09605e-08
4.08965e-08
4.08043e-08
4.07465e-08
4.06599e-08
4.06026e-08
4.05287e-08
4.04745e-08
4.04067e-08
4.03542e-08
4.02937e-08
4.02441e-08
4.01858e-08
4.01364e-08
4.00789e-08
4.00307e-08
3.99757e-08
3.99298e-08
3.98774e-08
3.98328e-08
3.9783e-08
3.97391e-08
3.9692e-08
3.96485e-08
3.96049e-08
3.95608e-08
3.95239e-08
3.94769e-08
3.94335e-08
3.93846e-08
3.93598e-08
3.97775e-08
3.37796e-06
3.86147e-08
1.24459e-07
1.23579e-07
1.20348e-07
1.14877e-07
1.0828e-07
1.01577e-07
9.5282e-08
8.96341e-08
8.46341e-08
8.02672e-08
7.64316e-08
7.30866e-08
7.01296e-08
6.75388e-08
6.52257e-08
6.31863e-08
6.13456e-08
5.97141e-08
5.82258e-08
5.69019e-08
5.56809e-08
5.4592e-08
5.35778e-08
5.26715e-08
5.18185e-08
5.10559e-08
5.03314e-08
4.96851e-08
4.9063e-08
4.85102e-08
4.79732e-08
4.74977e-08
4.70294e-08
4.66174e-08
4.62071e-08
4.58489e-08
4.54874e-08
4.51746e-08
4.48547e-08
4.45805e-08
4.42956e-08
4.40543e-08
4.37987e-08
4.35853e-08
4.33569e-08
4.31682e-08
4.29618e-08
4.27942e-08
4.26086e-08
4.24598e-08
4.229e-08
4.21594e-08
4.20058e-08
4.18901e-08
4.17485e-08
4.16444e-08
4.15197e-08
4.14253e-08
4.13108e-08
4.12293e-08
4.1119e-08
4.10478e-08
4.09469e-08
4.08824e-08
4.07896e-08
4.07314e-08
4.06445e-08
4.05868e-08
4.05124e-08
4.0458e-08
4.03898e-08
4.03372e-08
4.02761e-08
4.02264e-08
4.01677e-08
4.01181e-08
4.00603e-08
4.00119e-08
3.99564e-08
3.99103e-08
3.98575e-08
3.98127e-08
3.97625e-08
3.97183e-08
3.96709e-08
3.96271e-08
3.95831e-08
3.95388e-08
3.95015e-08
3.94543e-08
3.94101e-08
3.9361e-08
3.9336e-08
3.97633e-08
3.36826e-06
4.03681e-08
1.24452e-07
1.23581e-07
1.20389e-07
1.14966e-07
1.08407e-07
1.01727e-07
9.54427e-08
8.97963e-08
8.47927e-08
8.04189e-08
7.65749e-08
7.32208e-08
7.02545e-08
6.76547e-08
6.5333e-08
6.32854e-08
6.1437e-08
5.97984e-08
5.83034e-08
5.69733e-08
5.57466e-08
5.46523e-08
5.36332e-08
5.27223e-08
5.18651e-08
5.10986e-08
5.03704e-08
4.97207e-08
4.90953e-08
4.85396e-08
4.79998e-08
4.75216e-08
4.70509e-08
4.66366e-08
4.62241e-08
4.58639e-08
4.55003e-08
4.51858e-08
4.48641e-08
4.45883e-08
4.43018e-08
4.40591e-08
4.38021e-08
4.35874e-08
4.33577e-08
4.31679e-08
4.29603e-08
4.27917e-08
4.2605e-08
4.24552e-08
4.22844e-08
4.21531e-08
4.19985e-08
4.1882e-08
4.17395e-08
4.16348e-08
4.15092e-08
4.14142e-08
4.12989e-08
4.12169e-08
4.11059e-08
4.10341e-08
4.09327e-08
4.08677e-08
4.07743e-08
4.07157e-08
4.06283e-08
4.05702e-08
4.04954e-08
4.04407e-08
4.0372e-08
4.03194e-08
4.02577e-08
4.02079e-08
4.01488e-08
4.00989e-08
4.00408e-08
3.99921e-08
3.99362e-08
3.98898e-08
3.98365e-08
3.97916e-08
3.97409e-08
3.96966e-08
3.96486e-08
3.96047e-08
3.95602e-08
3.95157e-08
3.94779e-08
3.94306e-08
3.93855e-08
3.93363e-08
3.93109e-08
3.97483e-08
3.35605e-06
4.23051e-08
1.24445e-07
1.23584e-07
1.20433e-07
1.1506e-07
1.08541e-07
1.01885e-07
9.56125e-08
8.99683e-08
8.49609e-08
8.058e-08
7.67273e-08
7.33636e-08
7.03876e-08
6.77782e-08
6.54474e-08
6.33911e-08
6.15346e-08
5.98884e-08
5.83864e-08
5.70497e-08
5.58169e-08
5.4717e-08
5.36926e-08
5.27769e-08
5.19151e-08
5.11445e-08
5.04123e-08
4.9759e-08
4.91302e-08
4.85713e-08
4.80284e-08
4.75476e-08
4.70742e-08
4.66575e-08
4.62426e-08
4.58803e-08
4.55146e-08
4.51982e-08
4.48746e-08
4.45971e-08
4.43089e-08
4.40647e-08
4.38062e-08
4.35901e-08
4.3359e-08
4.3168e-08
4.29591e-08
4.27894e-08
4.26015e-08
4.24508e-08
4.22789e-08
4.21467e-08
4.1991e-08
4.18738e-08
4.17304e-08
4.16249e-08
4.14984e-08
4.14028e-08
4.12866e-08
4.12041e-08
4.10924e-08
4.10201e-08
4.09179e-08
4.08524e-08
4.07584e-08
4.06992e-08
4.06114e-08
4.0553e-08
4.04776e-08
4.04227e-08
4.03535e-08
4.03008e-08
4.02385e-08
4.01885e-08
4.0129e-08
4.00789e-08
4.00203e-08
3.99714e-08
3.99151e-08
3.98684e-08
3.98147e-08
3.97695e-08
3.97183e-08
3.96738e-08
3.96253e-08
3.95812e-08
3.95362e-08
3.94915e-08
3.94531e-08
3.94057e-08
3.93597e-08
3.93103e-08
3.92846e-08
3.97323e-08
3.34072e-06
4.44352e-08
1.24438e-07
1.23586e-07
1.20477e-07
1.15157e-07
1.08681e-07
1.02052e-07
9.57917e-08
9.015e-08
8.5139e-08
8.07508e-08
7.68889e-08
7.35152e-08
7.0529e-08
6.79096e-08
6.55691e-08
6.35037e-08
6.16386e-08
5.99844e-08
5.84749e-08
5.71313e-08
5.5892e-08
5.47862e-08
5.37562e-08
5.28354e-08
5.19688e-08
5.11937e-08
5.04573e-08
4.98001e-08
4.91677e-08
4.86055e-08
4.80594e-08
4.75756e-08
4.70994e-08
4.66801e-08
4.62627e-08
4.58981e-08
4.55302e-08
4.52118e-08
4.48861e-08
4.46069e-08
4.43168e-08
4.40711e-08
4.38109e-08
4.35935e-08
4.33608e-08
4.31686e-08
4.29583e-08
4.27875e-08
4.25983e-08
4.24466e-08
4.22735e-08
4.21403e-08
4.19836e-08
4.18656e-08
4.17212e-08
4.16149e-08
4.14875e-08
4.13912e-08
4.1274e-08
4.1191e-08
4.10785e-08
4.10055e-08
4.09027e-08
4.08366e-08
4.07419e-08
4.06822e-08
4.0594e-08
4.0535e-08
4.04592e-08
4.0404e-08
4.03342e-08
4.02814e-08
4.02184e-08
4.01683e-08
4.01083e-08
4.0058e-08
3.9999e-08
3.99498e-08
3.9893e-08
3.98461e-08
3.97918e-08
3.97464e-08
3.96947e-08
3.965e-08
3.9601e-08
3.95567e-08
3.95112e-08
3.94663e-08
3.94272e-08
3.93797e-08
3.93327e-08
3.92832e-08
3.92571e-08
3.97154e-08
3.32163e-06
4.67661e-08
1.24431e-07
1.23588e-07
1.20524e-07
1.15259e-07
1.08828e-07
1.02227e-07
9.59803e-08
9.03416e-08
8.53271e-08
8.09315e-08
7.70601e-08
7.36759e-08
7.06791e-08
6.80491e-08
6.56985e-08
6.36234e-08
6.17493e-08
6.00866e-08
5.85692e-08
5.72182e-08
5.59722e-08
5.486e-08
5.38242e-08
5.28979e-08
5.20262e-08
5.12464e-08
5.05056e-08
4.98443e-08
4.92081e-08
4.86423e-08
4.80928e-08
4.76059e-08
4.71267e-08
4.67047e-08
4.62846e-08
4.59176e-08
4.55473e-08
4.52267e-08
4.48989e-08
4.46178e-08
4.43258e-08
4.40784e-08
4.38165e-08
4.35975e-08
4.33633e-08
4.31697e-08
4.29579e-08
4.27859e-08
4.25954e-08
4.24426e-08
4.22683e-08
4.21341e-08
4.19762e-08
4.18573e-08
4.1712e-08
4.16047e-08
4.14763e-08
4.13794e-08
4.12612e-08
4.11775e-08
4.10643e-08
4.09906e-08
4.0887e-08
4.08203e-08
4.0725e-08
4.06647e-08
4.05759e-08
4.05165e-08
4.044e-08
4.03846e-08
4.03142e-08
4.02613e-08
4.01977e-08
4.01474e-08
4.00869e-08
4.00364e-08
3.99769e-08
3.99274e-08
3.98701e-08
3.98229e-08
3.97681e-08
3.97224e-08
3.96701e-08
3.96252e-08
3.95756e-08
3.95311e-08
3.9485e-08
3.94399e-08
3.94002e-08
3.93526e-08
3.93046e-08
3.9255e-08
3.92285e-08
3.96974e-08
3.29806e-06
4.9303e-08
1.24424e-07
1.2359e-07
1.20572e-07
1.15365e-07
1.08982e-07
1.0241e-07
9.61785e-08
9.05433e-08
8.55254e-08
8.11222e-08
7.7241e-08
7.3846e-08
7.0838e-08
6.81969e-08
6.58357e-08
6.37505e-08
6.18669e-08
6.01953e-08
5.86696e-08
5.73109e-08
5.60576e-08
5.49388e-08
5.38967e-08
5.29646e-08
5.20875e-08
5.13028e-08
5.05573e-08
4.98918e-08
4.92514e-08
4.86819e-08
4.81287e-08
4.76386e-08
4.71562e-08
4.67313e-08
4.63084e-08
4.59388e-08
4.5566e-08
4.52432e-08
4.49131e-08
4.463e-08
4.43359e-08
4.40867e-08
4.3823e-08
4.36024e-08
4.33664e-08
4.31715e-08
4.29582e-08
4.27848e-08
4.25929e-08
4.2439e-08