/*--------------------------------*- C++ -*----------------------------------*\
| =========                 |                                                 |
| \\      /  F ield         | OpenFOAM: The Open Source CFD Toolbox           |
|  \\    /   O peration     | Version:  v2012                                 |
|   \\  /    A nd           | Website:  www.openfoam.com                      |
|    \\/     M anipulation  |                                                 |
\*---------------------------------------------------------------------------*/
FoamFile
{
    version     2.0;
    format      ascii;
    class       volVectorField;
    location    "44";
    object      wallShearStress;
}
// * * * * * * * * * * * * * * * * * * * * * * * * * * * * * * * * * * * * * //

dimensions      [0 2 -2 0 0 0 0];


internalField   uniform (0 0 0);

boundaryField
{
    inlet
    {
        type            calculated;
        value           uniform (0 0 0);
    }
    outlet
    {
        type            calculated;
        value           uniform (0 0 0);
    }
    topWall
    {
        type            calculated;
        value           nonuniform List<vector> 
545
(
(6.79346e-08 -4.78191e-08 0)
(6.79088e-08 -1.33783e-07 0)
(6.78521e-08 -2.23137e-07 0)
(6.77899e-08 -3.09897e-07 0)
(6.77127e-08 -3.92949e-07 0)
(6.76226e-08 -4.73362e-07 0)
(6.75198e-08 -5.51819e-07 0)
(6.74053e-08 -6.28284e-07 0)
(6.72799e-08 -7.02588e-07 0)
(6.71448e-08 -7.7473e-07 0)
(6.70009e-08 -8.44803e-07 0)
(6.68489e-08 -9.12889e-07 0)
(6.66897e-08 -9.79034e-07 0)
(6.65242e-08 -1.04328e-06 0)
(6.63528e-08 -1.10567e-06 0)
(6.61765e-08 -1.16625e-06 0)
(6.59957e-08 -1.22508e-06 0)
(6.5811e-08 -1.28219e-06 0)
(6.56231e-08 -1.33765e-06 0)
(6.54324e-08 -1.39148e-06 0)
(6.52394e-08 -1.44374e-06 0)
(6.50445e-08 -1.49447e-06 0)
(6.48481e-08 -1.54372e-06 0)
(6.46508e-08 -1.59152e-06 0)
(6.44527e-08 -1.63792e-06 0)
(6.42542e-08 -1.68296e-06 0)
(6.40557e-08 -1.72667e-06 0)
(6.38573e-08 -1.7691e-06 0)
(6.36595e-08 -1.81029e-06 0)
(6.34624e-08 -1.85026e-06 0)
(6.32662e-08 -1.88906e-06 0)
(6.30712e-08 -1.92671e-06 0)
(6.28775e-08 -1.96327e-06 0)
(6.26853e-08 -1.99875e-06 0)
(6.24948e-08 -2.03318e-06 0)
(6.23061e-08 -2.06661e-06 0)
(6.21193e-08 -2.09906e-06 0)
(6.19345e-08 -2.13056e-06 0)
(6.17519e-08 -2.16114e-06 0)
(6.15715e-08 -2.19083e-06 0)
(6.13934e-08 -2.21964e-06 0)
(6.12177e-08 -2.24762e-06 0)
(6.10444e-08 -2.27478e-06 0)
(6.08736e-08 -2.30115e-06 0)
(6.07054e-08 -2.32676e-06 0)
(6.05398e-08 -2.35162e-06 0)
(6.03767e-08 -2.37576e-06 0)
(6.02163e-08 -2.3992e-06 0)
(6.00586e-08 -2.42196e-06 0)
(5.99035e-08 -2.44406e-06 0)
(5.97511e-08 -2.46553e-06 0)
(5.96014e-08 -2.48638e-06 0)
(5.94544e-08 -2.50662e-06 0)
(5.931e-08 -2.52629e-06 0)
(5.91683e-08 -2.54539e-06 0)
(5.90292e-08 -2.56394e-06 0)
(5.88928e-08 -2.58196e-06 0)
(5.8759e-08 -2.59947e-06 0)
(5.86278e-08 -2.61647e-06 0)
(5.84992e-08 -2.63299e-06 0)
(5.83731e-08 -2.64904e-06 0)
(5.82496e-08 -2.66464e-06 0)
(5.81285e-08 -2.67979e-06 0)
(5.80099e-08 -2.69451e-06 0)
(5.78938e-08 -2.70881e-06 0)
(5.778e-08 -2.72271e-06 0)
(5.76686e-08 -2.73622e-06 0)
(5.75596e-08 -2.74934e-06 0)
(5.74528e-08 -2.7621e-06 0)
(5.73483e-08 -2.77449e-06 0)
(5.72461e-08 -2.78654e-06 0)
(5.71456e-08 -2.79823e-06 0)
(5.70483e-08 -2.80948e-06 0)
(5.69546e-08 -2.8204e-06 0)
(5.68616e-08 -2.83119e-06 0)
(5.67688e-08 -2.84193e-06 0)
(5.66762e-08 -2.85262e-06 0)
(5.65837e-08 -2.86325e-06 0)
(5.64913e-08 -2.8738e-06 0)
(5.6399e-08 -2.88429e-06 0)
(5.63068e-08 -2.89471e-06 0)
(5.62147e-08 -2.90507e-06 0)
(5.61227e-08 -2.91537e-06 0)
(5.60308e-08 -2.9256e-06 0)
(5.5939e-08 -2.93577e-06 0)
(5.58473e-08 -2.94587e-06 0)
(5.57557e-08 -2.95592e-06 0)
(5.56643e-08 -2.9659e-06 0)
(5.55729e-08 -2.97581e-06 0)
(5.54817e-08 -2.98567e-06 0)
(5.53907e-08 -2.99547e-06 0)
(5.52997e-08 -3.0052e-06 0)
(5.5209e-08 -3.01488e-06 0)
(5.5118e-08 -3.02448e-06 0)
(5.50285e-08 -3.03409e-06 0)
(5.49326e-08 -3.04344e-06 0)
(5.48415e-08 -3.05204e-06 0)
(5.47648e-08 -3.05992e-06 0)
(5.46901e-08 -3.06749e-06 0)
(5.4616e-08 -3.07511e-06 0)
(5.45418e-08 -3.08281e-06 0)
(5.44672e-08 -3.09053e-06 0)
(5.43924e-08 -3.09825e-06 0)
(5.43171e-08 -3.10596e-06 0)
(5.42416e-08 -3.11368e-06 0)
(5.41657e-08 -3.12141e-06 0)
(5.40894e-08 -3.12915e-06 0)
(5.40128e-08 -3.13689e-06 0)
(5.39358e-08 -3.14465e-06 0)
(5.38585e-08 -3.15241e-06 0)
(5.37808e-08 -3.16017e-06 0)
(5.37027e-08 -3.16795e-06 0)
(5.36243e-08 -3.17573e-06 0)
(5.35456e-08 -3.18352e-06 0)
(5.34664e-08 -3.19131e-06 0)
(5.33869e-08 -3.19911e-06 0)
(5.33071e-08 -3.20692e-06 0)
(5.32269e-08 -3.21474e-06 0)
(5.31463e-08 -3.22256e-06 0)
(5.30654e-08 -3.23039e-06 0)
(5.29841e-08 -3.23822e-06 0)
(5.29024e-08 -3.24606e-06 0)
(5.28204e-08 -3.25391e-06 0)
(5.27379e-08 -3.26176e-06 0)
(5.26552e-08 -3.26962e-06 0)
(5.2572e-08 -3.27749e-06 0)
(5.24885e-08 -3.28536e-06 0)
(5.24046e-08 -3.29324e-06 0)
(5.23203e-08 -3.30113e-06 0)
(5.22357e-08 -3.30902e-06 0)
(5.21507e-08 -3.31691e-06 0)
(5.20653e-08 -3.32481e-06 0)
(5.19795e-08 -3.33272e-06 0)
(5.18933e-08 -3.34063e-06 0)
(5.18068e-08 -3.34855e-06 0)
(5.17199e-08 -3.35647e-06 0)
(5.16326e-08 -3.3644e-06 0)
(5.15449e-08 -3.37234e-06 0)
(5.14569e-08 -3.38028e-06 0)
(5.13684e-08 -3.38822e-06 0)
(5.12796e-08 -3.39617e-06 0)
(5.11904e-08 -3.40412e-06 0)
(5.11008e-08 -3.41208e-06 0)
(5.10108e-08 -3.42005e-06 0)
(5.09204e-08 -3.42802e-06 0)
(5.08297e-08 -3.43599e-06 0)
(5.07385e-08 -3.44397e-06 0)
(5.0647e-08 -3.45195e-06 0)
(5.05551e-08 -3.45994e-06 0)
(5.04628e-08 -3.46793e-06 0)
(5.03701e-08 -3.47592e-06 0)
(5.0277e-08 -3.48392e-06 0)
(5.01835e-08 -3.49192e-06 0)
(5.00896e-08 -3.49993e-06 0)
(4.99953e-08 -3.50794e-06 0)
(4.99006e-08 -3.51596e-06 0)
(4.98056e-08 -3.52397e-06 0)
(4.97101e-08 -3.532e-06 0)
(4.96142e-08 -3.54002e-06 0)
(4.9518e-08 -3.54805e-06 0)
(4.94213e-08 -3.55608e-06 0)
(4.93243e-08 -3.56412e-06 0)
(4.92268e-08 -3.57215e-06 0)
(4.9129e-08 -3.58019e-06 0)
(4.90307e-08 -3.58824e-06 0)
(4.89321e-08 -3.59629e-06 0)
(4.8833e-08 -3.60433e-06 0)
(4.87335e-08 -3.61239e-06 0)
(4.86337e-08 -3.62044e-06 0)
(4.85334e-08 -3.6285e-06 0)
(4.84327e-08 -3.63656e-06 0)
(4.83317e-08 -3.64462e-06 0)
(4.82302e-08 -3.65268e-06 0)
(4.81283e-08 -3.66075e-06 0)
(4.8026e-08 -3.66881e-06 0)
(4.79233e-08 -3.67688e-06 0)
(4.78202e-08 -3.68495e-06 0)
(4.77167e-08 -3.69303e-06 0)
(4.76128e-08 -3.7011e-06 0)
(4.75085e-08 -3.70918e-06 0)
(4.74038e-08 -3.71725e-06 0)
(4.72987e-08 -3.72533e-06 0)
(4.71931e-08 -3.73341e-06 0)
(4.70872e-08 -3.74149e-06 0)
(4.69808e-08 -3.74957e-06 0)
(4.68741e-08 -3.75765e-06 0)
(4.67669e-08 -3.76573e-06 0)
(4.66593e-08 -3.77381e-06 0)
(4.65513e-08 -3.7819e-06 0)
(4.64429e-08 -3.78998e-06 0)
(4.63341e-08 -3.79806e-06 0)
(4.62249e-08 -3.80614e-06 0)
(4.61153e-08 -3.81423e-06 0)
(4.60053e-08 -3.82231e-06 0)
(4.58948e-08 -3.83039e-06 0)
(4.5784e-08 -3.83847e-06 0)
(4.56727e-08 -3.84656e-06 0)
(4.5561e-08 -3.85464e-06 0)
(4.5449e-08 -3.86272e-06 0)
(4.53365e-08 -3.87079e-06 0)
(4.52236e-08 -3.87887e-06 0)
(4.51103e-08 -3.88695e-06 0)
(4.49965e-08 -3.89502e-06 0)
(4.48824e-08 -3.9031e-06 0)
(4.47679e-08 -3.91117e-06 0)
(4.46529e-08 -3.91924e-06 0)
(4.45376e-08 -3.92731e-06 0)
(4.44218e-08 -3.93538e-06 0)
(4.43056e-08 -3.94344e-06 0)
(4.41891e-08 -3.9515e-06 0)
(4.40721e-08 -3.95956e-06 0)
(4.39547e-08 -3.96762e-06 0)
(4.38369e-08 -3.97568e-06 0)
(4.37187e-08 -3.98373e-06 0)
(4.36001e-08 -3.99178e-06 0)
(4.3481e-08 -3.99983e-06 0)
(4.33616e-08 -4.00787e-06 0)
(4.32418e-08 -4.01591e-06 0)
(4.31216e-08 -4.02395e-06 0)
(4.30009e-08 -4.03198e-06 0)
(4.28799e-08 -4.04001e-06 0)
(4.27584e-08 -4.04803e-06 0)
(4.26366e-08 -4.05606e-06 0)
(4.25143e-08 -4.06407e-06 0)
(4.23917e-08 -4.07209e-06 0)
(4.22686e-08 -4.0801e-06 0)
(4.21452e-08 -4.0881e-06 0)
(4.20213e-08 -4.0961e-06 0)
(4.18971e-08 -4.1041e-06 0)
(4.17724e-08 -4.11209e-06 0)
(4.16474e-08 -4.12007e-06 0)
(4.15219e-08 -4.12805e-06 0)
(4.13961e-08 -4.13603e-06 0)
(4.12698e-08 -4.144e-06 0)
(4.11432e-08 -4.15196e-06 0)
(4.10162e-08 -4.15992e-06 0)
(4.08888e-08 -4.16787e-06 0)
(4.0761e-08 -4.17582e-06 0)
(4.06328e-08 -4.18376e-06 0)
(4.05042e-08 -4.19169e-06 0)
(4.03752e-08 -4.19962e-06 0)
(4.02459e-08 -4.20754e-06 0)
(4.01161e-08 -4.21545e-06 0)
(3.9986e-08 -4.22335e-06 0)
(3.98555e-08 -4.23125e-06 0)
(3.97246e-08 -4.23915e-06 0)
(3.95933e-08 -4.24703e-06 0)
(3.94617e-08 -4.25491e-06 0)
(3.93296e-08 -4.26277e-06 0)
(3.91972e-08 -4.27064e-06 0)
(3.90644e-08 -4.27849e-06 0)
(3.89313e-08 -4.28633e-06 0)
(3.87977e-08 -4.29417e-06 0)
(3.86638e-08 -4.302e-06 0)
(3.85295e-08 -4.30981e-06 0)
(3.83949e-08 -4.31762e-06 0)
(3.82599e-08 -4.32542e-06 0)
(3.81245e-08 -4.33322e-06 0)
(3.79888e-08 -4.341e-06 0)
(3.78527e-08 -4.34877e-06 0)
(3.77162e-08 -4.35653e-06 0)
(3.75794e-08 -4.36429e-06 0)
(3.74422e-08 -4.37203e-06 0)
(3.73046e-08 -4.37976e-06 0)
(3.71667e-08 -4.38748e-06 0)
(3.70285e-08 -4.3952e-06 0)
(3.68896e-08 -4.40289e-06 0)
(3.67509e-08 -4.41063e-06 0)
(3.66064e-08 -4.41821e-06 0)
(3.64695e-08 -4.42545e-06 0)
(3.6344e-08 -4.43243e-06 0)
(3.62171e-08 -4.43925e-06 0)
(3.60903e-08 -4.44614e-06 0)
(3.59622e-08 -4.45313e-06 0)
(3.58328e-08 -4.46017e-06 0)
(3.57019e-08 -4.46726e-06 0)
(3.55697e-08 -4.4744e-06 0)
(3.54359e-08 -4.48158e-06 0)
(3.53008e-08 -4.48882e-06 0)
(3.51641e-08 -4.49611e-06 0)
(3.5026e-08 -4.50344e-06 0)
(3.48863e-08 -4.51083e-06 0)
(3.47452e-08 -4.51827e-06 0)
(3.46025e-08 -4.52576e-06 0)
(3.44582e-08 -4.5333e-06 0)
(3.43124e-08 -4.54089e-06 0)
(3.41651e-08 -4.54853e-06 0)
(3.40161e-08 -4.55622e-06 0)
(3.38656e-08 -4.56395e-06 0)
(3.37135e-08 -4.57174e-06 0)
(3.35597e-08 -4.57957e-06 0)
(3.34043e-08 -4.58746e-06 0)
(3.32472e-08 -4.59539e-06 0)
(3.30886e-08 -4.60337e-06 0)
(3.29282e-08 -4.6114e-06 0)
(3.27661e-08 -4.61948e-06 0)
(3.26024e-08 -4.6276e-06 0)
(3.24369e-08 -4.63577e-06 0)
(3.22697e-08 -4.64399e-06 0)
(3.21008e-08 -4.65225e-06 0)
(3.19302e-08 -4.66056e-06 0)
(3.17578e-08 -4.66892e-06 0)
(3.15836e-08 -4.67731e-06 0)
(3.14077e-08 -4.68576e-06 0)
(3.123e-08 -4.69424e-06 0)
(3.10505e-08 -4.70277e-06 0)
(3.08691e-08 -4.71135e-06 0)
(3.0686e-08 -4.71996e-06 0)
(3.0501e-08 -4.72862e-06 0)
(3.03142e-08 -4.73732e-06 0)
(3.01256e-08 -4.74605e-06 0)
(2.99351e-08 -4.75483e-06 0)
(2.97427e-08 -4.76365e-06 0)
(2.95485e-08 -4.7725e-06 0)
(2.93524e-08 -4.78139e-06 0)
(2.91544e-08 -4.79032e-06 0)
(2.89545e-08 -4.79928e-06 0)
(2.87527e-08 -4.80828e-06 0)
(2.8549e-08 -4.81731e-06 0)
(2.83434e-08 -4.82637e-06 0)
(2.81359e-08 -4.83547e-06 0)
(2.79264e-08 -4.8446e-06 0)
(2.77151e-08 -4.85375e-06 0)
(2.75018e-08 -4.86294e-06 0)
(2.72865e-08 -4.87215e-06 0)
(2.70694e-08 -4.88139e-06 0)
(2.68503e-08 -4.89066e-06 0)
(2.66292e-08 -4.89995e-06 0)
(2.64062e-08 -4.90926e-06 0)
(2.61813e-08 -4.9186e-06 0)
(2.59544e-08 -4.92795e-06 0)
(2.57256e-08 -4.93732e-06 0)
(2.54949e-08 -4.94671e-06 0)
(2.52622e-08 -4.95612e-06 0)
(2.50276e-08 -4.96554e-06 0)
(2.4791e-08 -4.97497e-06 0)
(2.45526e-08 -4.98442e-06 0)
(2.43122e-08 -4.99388e-06 0)
(2.40699e-08 -5.00334e-06 0)
(2.38257e-08 -5.01281e-06 0)
(2.35796e-08 -5.02228e-06 0)
(2.33316e-08 -5.03176e-06 0)
(2.30818e-08 -5.04124e-06 0)
(2.283e-08 -5.05072e-06 0)
(2.25765e-08 -5.06019e-06 0)
(2.23211e-08 -5.06967e-06 0)
(2.20638e-08 -5.07913e-06 0)
(2.18048e-08 -5.08859e-06 0)
(2.15439e-08 -5.09803e-06 0)
(2.12813e-08 -5.10747e-06 0)
(2.1017e-08 -5.11688e-06 0)
(2.07509e-08 -5.12628e-06 0)
(2.0483e-08 -5.13566e-06 0)
(2.02135e-08 -5.14502e-06 0)
(1.99424e-08 -5.15436e-06 0)
(1.96696e-08 -5.16367e-06 0)
(1.93951e-08 -5.17294e-06 0)
(1.91191e-08 -5.18219e-06 0)
(1.88416e-08 -5.1914e-06 0)
(1.85625e-08 -5.20058e-06 0)
(1.82819e-08 -5.20972e-06 0)
(1.79999e-08 -5.21882e-06 0)
(1.77164e-08 -5.22786e-06 0)
(1.74316e-08 -5.23687e-06 0)
(1.71453e-08 -5.24582e-06 0)
(1.68579e-08 -5.25472e-06 0)
(1.65691e-08 -5.26356e-06 0)
(1.62791e-08 -5.27235e-06 0)
(1.59879e-08 -5.28107e-06 0)
(1.56956e-08 -5.28973e-06 0)
(1.54022e-08 -5.29832e-06 0)
(1.51078e-08 -5.30684e-06 0)
(1.48124e-08 -5.31528e-06 0)
(1.45161e-08 -5.32365e-06 0)
(1.42189e-08 -5.33193e-06 0)
(1.39209e-08 -5.34014e-06 0)
(1.36221e-08 -5.34825e-06 0)
(1.33226e-08 -5.35628e-06 0)
(1.30225e-08 -5.3642e-06 0)
(1.27218e-08 -5.37204e-06 0)
(1.24206e-08 -5.37977e-06 0)
(1.2119e-08 -5.38741e-06 0)
(1.1817e-08 -5.39492e-06 0)
(1.15147e-08 -5.40234e-06 0)
(1.12121e-08 -5.40963e-06 0)
(1.09094e-08 -5.41682e-06 0)
(1.06066e-08 -5.42387e-06 0)
(1.03038e-08 -5.43081e-06 0)
(1.0001e-08 -5.43761e-06 0)
(9.69845e-09 -5.44429e-06 0)
(9.39607e-09 -5.45082e-06 0)
(9.09403e-09 -5.45723e-06 0)
(8.79236e-09 -5.46348e-06 0)
(8.49118e-09 -5.46959e-06 0)
(8.19056e-09 -5.47555e-06 0)
(7.8906e-09 -5.48136e-06 0)
(7.59137e-09 -5.48701e-06 0)
(7.29299e-09 -5.49251e-06 0)
(6.99552e-09 -5.49783e-06 0)
(6.69908e-09 -5.503e-06 0)
(6.40373e-09 -5.50798e-06 0)
(6.1096e-09 -5.51281e-06 0)
(5.81676e-09 -5.51744e-06 0)
(5.52533e-09 -5.52191e-06 0)
(5.23537e-09 -5.52618e-06 0)
(4.94702e-09 -5.53027e-06 0)
(4.66035e-09 -5.53416e-06 0)
(4.37548e-09 -5.53788e-06 0)
(4.09249e-09 -5.54138e-06 0)
(3.8115e-09 -5.54469e-06 0)
(3.5326e-09 -5.54779e-06 0)
(3.2559e-09 -5.5507e-06 0)
(2.98148e-09 -5.55338e-06 0)
(2.70947e-09 -5.55587e-06 0)
(2.43996e-09 -5.55812e-06 0)
(2.17305e-09 -5.56018e-06 0)
(1.90884e-09 -5.562e-06 0)
(1.64745e-09 -5.56362e-06 0)
(1.38895e-09 -5.56499e-06 0)
(1.13347e-09 -5.56616e-06 0)
(8.81085e-10 -5.56708e-06 0)
(6.31911e-10 -5.56778e-06 0)
(3.86036e-10 -5.56824e-06 0)
(1.43559e-10 -5.56848e-06 0)
(-9.54289e-11 -5.56846e-06 0)
(-3.30835e-10 -5.56823e-06 0)
(-5.62568e-10 -5.56773e-06 0)
(-7.90544e-10 -5.56702e-06 0)
(-1.01467e-09 -5.56604e-06 0)
(-1.23488e-09 -5.56484e-06 0)
(-1.45106e-09 -5.56338e-06 0)
(-1.66317e-09 -5.56169e-06 0)
(-1.87111e-09 -5.55974e-06 0)
(-2.07481e-09 -5.55756e-06 0)
(-2.27419e-09 -5.55511e-06 0)
(-2.46921e-09 -5.55244e-06 0)
(-2.65976e-09 -5.5495e-06 0)
(-2.84582e-09 -5.54634e-06 0)
(-3.02729e-09 -5.5429e-06 0)
(-3.20414e-09 -5.53925e-06 0)
(-3.37628e-09 -5.53532e-06 0)
(-3.5437e-09 -5.53117e-06 0)
(-3.7063e-09 -5.52676e-06 0)
(-3.86408e-09 -5.52213e-06 0)
(-4.01694e-09 -5.51722e-06 0)
(-4.16489e-09 -5.51211e-06 0)
(-4.3078e-09 -5.50673e-06 0)
(-4.44584e-09 -5.50115e-06 0)
(-4.57804e-09 -5.49523e-06 0)
(-4.70704e-09 -5.48924e-06 0)
(-4.84165e-09 -5.48227e-06 0)
(-4.97898e-09 -5.47425e-06 0)
(-5.10998e-09 -5.46604e-06 0)
(-5.23307e-09 -5.45765e-06 0)
(-5.34761e-09 -5.44904e-06 0)
(-5.45394e-09 -5.44029e-06 0)
(-5.55215e-09 -5.43133e-06 0)
(-5.64256e-09 -5.42226e-06 0)
(-5.72533e-09 -5.41301e-06 0)
(-5.80083e-09 -5.40368e-06 0)
(-5.86921e-09 -5.39418e-06 0)
(-5.93082e-09 -5.38463e-06 0)
(-5.98578e-09 -5.37493e-06 0)
(-6.03442e-09 -5.3652e-06 0)
(-6.07688e-09 -5.35535e-06 0)
(-6.11346e-09 -5.34549e-06 0)
(-6.14427e-09 -5.33552e-06 0)
(-6.1696e-09 -5.32555e-06 0)
(-6.18957e-09 -5.3155e-06 0)
(-6.20444e-09 -5.30547e-06 0)
(-6.21431e-09 -5.29538e-06 0)
(-6.21944e-09 -5.28532e-06 0)
(-6.2199e-09 -5.2752e-06 0)
(-6.21596e-09 -5.26514e-06 0)
(-6.20766e-09 -5.25504e-06 0)
(-6.19525e-09 -5.24501e-06 0)
(-6.17878e-09 -5.23495e-06 0)
(-6.15848e-09 -5.22497e-06 0)
(-6.13437e-09 -5.21498e-06 0)
(-6.1067e-09 -5.20508e-06 0)
(-6.07547e-09 -5.19518e-06 0)
(-6.04091e-09 -5.18537e-06 0)
(-6.00302e-09 -5.17559e-06 0)
(-5.962e-09 -5.16591e-06 0)
(-5.91787e-09 -5.15625e-06 0)
(-5.87082e-09 -5.14672e-06 0)
(-5.82083e-09 -5.13721e-06 0)
(-5.76811e-09 -5.12784e-06 0)
(-5.71264e-09 -5.11851e-06 0)
(-5.6546e-09 -5.10932e-06 0)
(-5.59397e-09 -5.10018e-06 0)
(-5.53093e-09 -5.09118e-06 0)
(-5.46544e-09 -5.08224e-06 0)
(-5.39769e-09 -5.07345e-06 0)
(-5.32763e-09 -5.06474e-06 0)
(-5.25543e-09 -5.05618e-06 0)
(-5.18107e-09 -5.0477e-06 0)
(-5.10467e-09 -5.03938e-06 0)
(-5.02623e-09 -5.03114e-06 0)
(-4.94588e-09 -5.02308e-06 0)
(-4.86358e-09 -5.01511e-06 0)
(-4.77947e-09 -5.00731e-06 0)
(-4.69353e-09 -4.99961e-06 0)
(-4.60587e-09 -4.99209e-06 0)
(-4.51647e-09 -4.98467e-06 0)
(-4.42544e-09 -4.97744e-06 0)
(-4.33276e-09 -4.97032e-06 0)
(-4.23854e-09 -4.96339e-06 0)
(-4.14276e-09 -4.95657e-06 0)
(-4.04551e-09 -4.94995e-06 0)
(-3.94678e-09 -4.94345e-06 0)
(-3.84666e-09 -4.93715e-06 0)
(-3.74515e-09 -4.93097e-06 0)
(-3.64232e-09 -4.925e-06 0)
(-3.53818e-09 -4.91916e-06 0)
(-3.43279e-09 -4.91352e-06 0)
(-3.32616e-09 -4.90802e-06 0)
(-3.21837e-09 -4.90272e-06 0)
(-3.10941e-09 -4.89758e-06 0)
(-2.99936e-09 -4.89263e-06 0)
(-2.88822e-09 -4.88784e-06 0)
(-2.77605e-09 -4.88326e-06 0)
(-2.66288e-09 -4.87883e-06 0)
(-2.54876e-09 -4.87461e-06 0)
(-2.4337e-09 -4.87055e-06 0)
(-2.31776e-09 -4.86671e-06 0)
(-2.20096e-09 -4.86303e-06 0)
(-2.08337e-09 -4.85955e-06 0)
(-1.96499e-09 -4.85626e-06 0)
(-1.84588e-09 -4.85317e-06 0)
(-1.72607e-09 -4.85025e-06 0)
(-1.60561e-09 -4.84755e-06 0)
(-1.48454e-09 -4.84503e-06 0)
(-1.3629e-09 -4.84272e-06 0)
(-1.24073e-09 -4.84059e-06 0)
(-1.11808e-09 -4.8387e-06 0)
(-9.95008e-10 -4.83687e-06 0)
(-8.71573e-10 -4.83569e-06 0)
(-7.47763e-10 -4.83324e-06 0)
(-6.23859e-10 -4.83578e-06 0)
(-4.99222e-10 -4.82229e-06 0)
(-3.76115e-10 -4.86082e-06 0)
(-2.48295e-10 -4.7148e-06 0)
(-1.35028e-10 -5.10174e-06 0)
(-4.4609e-11 -4.45574e-06 0)
)
;
    }
    bottomWall
    {
        type            calculated;
        value           nonuniform List<vector> 
449
(
(-52.7155 -0.955701 0)
(-34.7482 -0.00279861 0)
(-34.3572 -0.000255039 0)
(-32.9932 -0.000363775 0)
(-31.8667 -0.000315389 0)
(-30.8302 -0.000284289 0)
(-29.9129 -0.000249324 0)
(-29.113 -0.000217418 0)
(-28.4122 -0.000190858 0)
(-27.7927 -0.000169084 0)
(-27.2399 -0.000151061 0)
(-26.743 -0.000135953 0)
(-26.293 -0.000123294 0)
(-25.8823 -0.000112605 0)
(-25.5052 -0.000103382 0)
(-25.1573 -9.53712e-05 0)
(-24.8349 -8.83757e-05 0)
(-24.5348 -8.22383e-05 0)
(-24.2542 -7.6832e-05 0)
(-23.991 -7.20115e-05 0)
(-23.7434 -6.76862e-05 0)
(-23.5098 -6.37948e-05 0)
(-23.2888 -6.02833e-05 0)
(-23.0792 -5.70955e-05 0)
(-22.88 -5.41936e-05 0)
(-22.6903 -5.15328e-05 0)
(-22.5093 -4.90938e-05 0)
(-22.3364 -4.6852e-05 0)
(-22.1708 -4.47849e-05 0)
(-22.012 -4.28693e-05 0)
(-21.8595 -4.10939e-05 0)
(-21.7129 -3.94414e-05 0)
(-21.5718 -3.79044e-05 0)
(-21.4358 -3.64663e-05 0)
(-21.3046 -3.51211e-05 0)
(-21.1779 -3.38603e-05 0)
(-21.0553 -3.26783e-05 0)
(-20.9367 -3.15686e-05 0)
(-20.8218 -3.05254e-05 0)
(-20.7104 -2.95397e-05 0)
(-20.6023 -2.86088e-05 0)
(-20.4973 -2.77281e-05 0)
(-20.3952 -2.68957e-05 0)
(-20.296 -2.60999e-05 0)
(-20.1995 -2.53389e-05 0)
(-20.1055 -2.46146e-05 0)
(-20.0139 -2.39207e-05 0)
(-19.9248 -2.32587e-05 0)
(-19.8378 -2.26229e-05 0)
(-19.7531 -2.20182e-05 0)
(-19.6703 -2.14401e-05 0)
(-19.5896 -2.08855e-05 0)
(-19.5107 -2.03599e-05 0)
(-19.4336 -1.98528e-05 0)
(-19.3582 -1.93714e-05 0)
(-19.2845 -1.89093e-05 0)
(-19.2124 -1.84674e-05 0)
(-19.1417 -1.80438e-05 0)
(-19.0725 -1.76368e-05 0)
(-19.0047 -1.72456e-05 0)
(-18.9382 -1.68701e-05 0)
(-18.873 -1.65079e-05 0)
(-18.809 -1.61604e-05 0)
(-18.7462 -1.58243e-05 0)
(-18.6846 -1.55019e-05 0)
(-18.6241 -1.51895e-05 0)
(-18.5646 -1.48886e-05 0)
(-18.5062 -1.4598e-05 0)
(-18.4488 -1.43159e-05 0)
(-18.3923 -1.40449e-05 0)
(-18.3368 -1.37795e-05 0)
(-18.2822 -1.3526e-05 0)
(-18.2285 -1.32766e-05 0)
(-18.1756 -1.30377e-05 0)
(-18.1235 -1.28043e-05 0)
(-18.0723 -1.25776e-05 0)
(-18.0218 -1.23593e-05 0)
(-17.9721 -1.21444e-05 0)
(-17.9232 -1.19385e-05 0)
(-17.8749 -1.17362e-05 0)
(-17.8274 -1.154e-05 0)
(-17.7805 -1.13503e-05 0)
(-17.7343 -1.11636e-05 0)
(-17.6887 -1.09838e-05 0)
(-17.6438 -1.08078e-05 0)
(-17.5995 -1.0636e-05 0)
(-17.5557 -1.04701e-05 0)
(-17.5126 -1.03068e-05 0)
(-17.47 -1.01484e-05 0)
(-17.428 -9.99425e-06 0)
(-17.3865 -9.84301e-06 0)
(-17.3455 -9.69642e-06 0)
(-17.3051 -9.55318e-06 0)
(-17.2651 -9.41277e-06 0)
(-17.2257 -9.27653e-06 0)
(-17.1867 -9.14312e-06 0)
(-17.1482 -9.01261e-06 0)
(-17.1101 -8.8856e-06 0)
(-17.0725 -8.76131e-06 0)
(-17.0354 -8.63966e-06 0)
(-16.9986 -8.52114e-06 0)
(-16.9623 -8.40501e-06 0)
(-16.9264 -8.29136e-06 0)
(-16.8908 -8.18045e-06 0)
(-16.8557 -8.07176e-06 0)
(-16.821 -7.96544e-06 0)
(-16.7866 -7.86139e-06 0)
(-16.7526 -7.75962e-06 0)
(-16.7189 -7.65984e-06 0)
(-16.6857 -7.56225e-06 0)
(-16.6527 -7.46662e-06 0)
(-16.6201 -7.37297e-06 0)
(-16.5878 -7.28111e-06 0)
(-16.5559 -7.19113e-06 0)
(-16.5242 -7.10291e-06 0)
(-16.4929 -7.01642e-06 0)
(-16.4619 -6.93157e-06 0)
(-16.4312 -6.84846e-06 0)
(-16.4008 -6.76696e-06 0)
(-16.3706 -6.68698e-06 0)
(-16.3408 -6.60846e-06 0)
(-16.3112 -6.5315e-06 0)
(-16.282 -6.45586e-06 0)
(-16.2529 -6.38163e-06 0)
(-16.2242 -6.30876e-06 0)
(-16.1957 -6.23723e-06 0)
(-16.1675 -6.16684e-06 0)
(-16.1395 -6.09781e-06 0)
(-16.1117 -6.03e-06 0)
(-16.0842 -5.96336e-06 0)
(-16.057 -5.89788e-06 0)
(-16.03 -5.83357e-06 0)
(-16.0032 -5.77046e-06 0)
(-15.9766 -5.70826e-06 0)
(-15.9503 -5.64718e-06 0)
(-15.9241 -5.58704e-06 0)
(-15.8982 -5.528e-06 0)
(-15.8726 -5.46976e-06 0)
(-15.8471 -5.41262e-06 0)
(-15.8218 -5.35631e-06 0)
(-15.7967 -5.3011e-06 0)
(-15.7718 -5.24651e-06 0)
(-15.7472 -5.1931e-06 0)
(-15.7227 -5.14028e-06 0)
(-15.6984 -5.08861e-06 0)
(-15.6743 -5.03732e-06 0)
(-15.6504 -4.9873e-06 0)
(-15.6266 -4.93763e-06 0)
(-15.6031 -4.88912e-06 0)
(-15.5797 -4.8408e-06 0)
(-15.5565 -4.79371e-06 0)
(-15.5334 -4.74695e-06 0)
(-15.5106 -4.70121e-06 0)
(-15.4879 -4.65578e-06 0)
(-15.4654 -4.61138e-06 0)
(-15.443 -4.56743e-06 0)
(-15.4208 -4.52424e-06 0)
(-15.3987 -4.48153e-06 0)
(-15.3768 -4.43958e-06 0)
(-15.3551 -4.39821e-06 0)
(-15.3335 -4.35743e-06 0)
(-15.312 -4.31719e-06 0)
(-15.2908 -4.27746e-06 0)
(-15.2696 -4.23847e-06 0)
(-15.2486 -4.19989e-06 0)
(-15.2277 -4.16184e-06 0)
(-15.207 -4.12422e-06 0)
(-15.1864 -4.08726e-06 0)
(-15.166 -4.05088e-06 0)
(-15.1456 -4.01479e-06 0)
(-15.1255 -3.97941e-06 0)
(-15.1054 -3.9442e-06 0)
(-15.0855 -3.90834e-06 0)
(-15.0668 -3.87925e-06 0)
(-15.0492 -3.85217e-06 0)
(-15.0316 -3.82064e-06 0)
(-15.0139 -3.78957e-06 0)
(-14.9962 -3.75932e-06 0)
(-14.9784 -3.72889e-06 0)
(-14.9606 -3.69886e-06 0)
(-14.9427 -3.66881e-06 0)
(-14.9248 -3.63914e-06 0)
(-14.9068 -3.60952e-06 0)
(-14.8888 -3.58017e-06 0)
(-14.8707 -3.55073e-06 0)
(-14.8526 -3.52156e-06 0)
(-14.8344 -3.4924e-06 0)
(-14.8162 -3.46356e-06 0)
(-14.798 -3.43468e-06 0)
(-14.7797 -3.40602e-06 0)
(-14.7613 -3.37747e-06 0)
(-14.743 -3.34901e-06 0)
(-14.7245 -3.32073e-06 0)
(-14.7061 -3.29252e-06 0)
(-14.6876 -3.26444e-06 0)
(-14.669 -3.23641e-06 0)
(-14.6504 -3.20865e-06 0)
(-14.6318 -3.18097e-06 0)
(-14.6131 -3.1535e-06 0)
(-14.5944 -3.12603e-06 0)
(-14.5757 -3.09879e-06 0)
(-14.5569 -3.07162e-06 0)
(-14.5381 -3.04464e-06 0)
(-14.5192 -3.01771e-06 0)
(-14.5003 -2.99092e-06 0)
(-14.4814 -2.96429e-06 0)
(-14.4624 -2.93786e-06 0)
(-14.4434 -2.91147e-06 0)
(-14.4244 -2.88523e-06 0)
(-14.4053 -2.85904e-06 0)
(-14.3862 -2.8332e-06 0)
(-14.3671 -2.80737e-06 0)
(-14.3479 -2.78178e-06 0)
(-14.3287 -2.75614e-06 0)
(-14.3095 -2.73094e-06 0)
(-14.2902 -2.70564e-06 0)
(-14.2709 -2.68069e-06 0)
(-14.2516 -2.65554e-06 0)
(-14.2323 -2.63082e-06 0)
(-14.2129 -2.60609e-06 0)
(-14.1935 -2.58164e-06 0)
(-14.1741 -2.55716e-06 0)
(-14.1547 -2.53292e-06 0)
(-14.1352 -2.50876e-06 0)
(-14.1157 -2.48491e-06 0)
(-14.0962 -2.46094e-06 0)
(-14.0767 -2.43738e-06 0)
(-14.0571 -2.41381e-06 0)
(-14.0375 -2.3905e-06 0)
(-14.0179 -2.36729e-06 0)
(-13.9983 -2.34418e-06 0)
(-13.9786 -2.32127e-06 0)
(-13.959 -2.29849e-06 0)
(-13.9393 -2.27588e-06 0)
(-13.9196 -2.25332e-06 0)
(-13.8999 -2.231e-06 0)
(-13.8802 -2.20879e-06 0)
(-13.8604 -2.18677e-06 0)
(-13.8407 -2.16479e-06 0)
(-13.8209 -2.14319e-06 0)
(-13.8011 -2.12156e-06 0)
(-13.7813 -2.10024e-06 0)
(-13.7615 -2.0789e-06 0)
(-13.7416 -2.05792e-06 0)
(-13.7218 -2.03678e-06 0)
(-13.7019 -2.01611e-06 0)
(-13.6821 -1.99525e-06 0)
(-13.6622 -1.97485e-06 0)
(-13.6423 -1.95429e-06 0)
(-13.6224 -1.93428e-06 0)
(-13.6026 -1.91403e-06 0)
(-13.5826 -1.89432e-06 0)
(-13.5627 -1.87432e-06 0)
(-13.5428 -1.85494e-06 0)
(-13.5229 -1.83524e-06 0)
(-13.503 -1.81615e-06 0)
(-13.483 -1.79676e-06 0)
(-13.4631 -1.77792e-06 0)
(-13.4432 -1.75886e-06 0)
(-13.4233 -1.74027e-06 0)
(-13.4033 -1.72156e-06 0)
(-13.3834 -1.70328e-06 0)
(-13.3634 -1.68487e-06 0)
(-13.3435 -1.66681e-06 0)
(-13.3235 -1.64871e-06 0)
(-13.3036 -1.63099e-06 0)
(-13.2836 -1.61318e-06 0)
(-13.2637 -1.59573e-06 0)
(-13.2438 -1.5783e-06 0)
(-13.2239 -1.56115e-06 0)
(-13.2039 -1.5439e-06 0)
(-13.184 -1.52699e-06 0)
(-13.1641 -1.51012e-06 0)
(-13.1442 -1.49359e-06 0)
(-13.1243 -1.47698e-06 0)
(-13.1044 -1.46058e-06 0)
(-13.0845 -1.44434e-06 0)
(-13.0646 -1.42821e-06 0)
(-13.0447 -1.41225e-06 0)
(-13.0249 -1.39641e-06 0)
(-13.005 -1.38081e-06 0)
(-12.9852 -1.36525e-06 0)
(-12.9653 -1.34984e-06 0)
(-12.9455 -1.33455e-06 0)
(-12.9257 -1.31949e-06 0)
(-12.9059 -1.30446e-06 0)
(-12.8861 -1.2896e-06 0)
(-12.8664 -1.27482e-06 0)
(-12.8466 -1.26034e-06 0)
(-12.8269 -1.24581e-06 0)
(-12.8071 -1.23164e-06 0)
(-12.7874 -1.21739e-06 0)
(-12.7677 -1.20338e-06 0)
(-12.748 -1.1894e-06 0)
(-12.7283 -1.17573e-06 0)
(-12.7087 -1.16195e-06 0)
(-12.689 -1.14859e-06 0)
(-12.6694 -1.13502e-06 0)
(-12.6498 -1.12192e-06 0)
(-12.6302 -1.10873e-06 0)
(-12.6107 -1.0958e-06 0)
(-12.5911 -1.08283e-06 0)
(-12.5716 -1.07024e-06 0)
(-12.5521 -1.05743e-06 0)
(-12.5326 -1.045e-06 0)
(-12.5132 -1.03245e-06 0)
(-12.4937 -1.02045e-06 0)
(-12.4743 -1.00817e-06 0)
(-12.4549 -9.96297e-07 0)
(-12.4355 -9.8425e-07 0)
(-12.4162 -9.7258e-07 0)
(-12.3969 -9.60784e-07 0)
(-12.3776 -9.49398e-07 0)
(-12.3583 -9.37817e-07 0)
(-12.3391 -9.26588e-07 0)
(-12.3198 -9.15307e-07 0)
(-12.3006 -9.04342e-07 0)
(-12.2815 -8.93305e-07 0)
(-12.2623 -8.82551e-07 0)
(-12.2432 -8.71754e-07 0)
(-12.2241 -8.61258e-07 0)
(-12.205 -8.50688e-07 0)
(-12.186 -8.40338e-07 0)
(-12.167 -8.29978e-07 0)
(-12.1481 -8.19873e-07 0)
(-12.1291 -8.09761e-07 0)
(-12.1102 -7.99824e-07 0)
(-12.0913 -7.8991e-07 0)
(-12.0725 -7.8017e-07 0)
(-12.0536 -7.70523e-07 0)
(-12.0348 -7.60976e-07 0)
(-12.016 -7.51486e-07 0)
(-11.9973 -7.42164e-07 0)
(-11.9786 -7.3297e-07 0)
(-11.96 -7.23796e-07 0)
(-11.9413 -7.1478e-07 0)
(-11.9227 -7.05823e-07 0)
(-11.9041 -6.97084e-07 0)
(-11.8856 -6.88276e-07 0)
(-11.8671 -6.79729e-07 0)
(-11.8487 -6.71126e-07 0)
(-11.8302 -6.62728e-07 0)
(-11.8118 -6.54283e-07 0)
(-11.7934 -6.46111e-07 0)
(-11.7751 -6.37854e-07 0)
(-11.7568 -6.29843e-07 0)
(-11.7386 -6.21797e-07 0)
(-11.7203 -6.13925e-07 0)
(-11.7022 -6.06099e-07 0)
(-11.684 -5.98334e-07 0)
(-11.6659 -5.90715e-07 0)
(-11.6478 -5.83058e-07 0)
(-11.6298 -5.75686e-07 0)
(-11.6118 -5.68026e-07 0)
(-11.5918 -5.59004e-07 0)
(-11.5701 -5.49874e-07 0)
(-11.5488 -5.41766e-07 0)
(-11.5277 -5.33859e-07 0)
(-11.507 -5.25958e-07 0)
(-11.4865 -5.1831e-07 0)
(-11.4664 -5.10804e-07 0)
(-11.4466 -5.03443e-07 0)
(-11.427 -4.9633e-07 0)
(-11.4077 -4.89325e-07 0)
(-11.3887 -4.8248e-07 0)
(-11.37 -4.75803e-07 0)
(-11.3515 -4.69302e-07 0)
(-11.3332 -4.62904e-07 0)
(-11.3153 -4.56709e-07 0)
(-11.2975 -4.50653e-07 0)
(-11.28 -4.44678e-07 0)
(-11.2627 -4.38901e-07 0)
(-11.2456 -4.3318e-07 0)
(-11.2288 -4.27665e-07 0)
(-11.2122 -4.22197e-07 0)
(-11.1957 -4.16939e-07 0)
(-11.1795 -4.1166e-07 0)
(-11.1635 -4.06615e-07 0)
(-11.1477 -4.01591e-07 0)
(-11.1321 -3.96775e-07 0)
(-11.1167 -3.92001e-07 0)
(-11.1014 -3.87305e-07 0)
(-11.0863 -3.82739e-07 0)
(-11.0714 -3.78264e-07 0)
(-11.0567 -3.73834e-07 0)
(-11.0422 -3.69532e-07 0)
(-11.0278 -3.65344e-07 0)
(-11.0136 -3.61234e-07 0)
(-10.9996 -3.57209e-07 0)
(-10.9856 -3.5323e-07 0)
(-10.9719 -3.49339e-07 0)
(-10.9583 -3.45517e-07 0)
(-10.9449 -3.41761e-07 0)
(-10.9315 -3.38084e-07 0)
(-10.9184 -3.3446e-07 0)
(-10.9054 -3.30912e-07 0)
(-10.8925 -3.27451e-07 0)
(-10.8797 -3.24016e-07 0)
(-10.8671 -3.20673e-07 0)
(-10.8546 -3.17392e-07 0)
(-10.8423 -3.14163e-07 0)
(-10.8301 -3.11006e-07 0)
(-10.818 -3.07889e-07 0)
(-10.806 -3.04848e-07 0)
(-10.7941 -3.0186e-07 0)
(-10.7823 -2.98955e-07 0)
(-10.7707 -2.96034e-07 0)
(-10.7592 -2.93208e-07 0)
(-10.7478 -2.90435e-07 0)
(-10.7364 -2.87671e-07 0)
(-10.7253 -2.84985e-07 0)
(-10.7141 -2.82316e-07 0)
(-10.7032 -2.79711e-07 0)
(-10.6922 -2.77136e-07 0)
(-10.6815 -2.74664e-07 0)
(-10.6708 -2.72142e-07 0)
(-10.6602 -2.69749e-07 0)
(-10.6496 -2.6728e-07 0)
(-10.6393 -2.65009e-07 0)
(-10.6289 -2.62588e-07 0)
(-10.6187 -2.60412e-07 0)
(-10.6085 -2.58041e-07 0)
(-10.5985 -2.56012e-07 0)
(-10.5885 -2.53612e-07 0)
(-10.5787 -2.51741e-07 0)
(-10.5688 -2.49418e-07 0)
(-10.5592 -2.47696e-07 0)
(-10.5494 -2.45381e-07 0)
(-10.54 -2.43801e-07 0)
(-10.5303 -2.4149e-07 0)
(-10.5211 -2.40106e-07 0)
(-10.5115 -2.37793e-07 0)
(-10.5024 -2.3652e-07 0)
(-10.493 -2.34239e-07 0)
(-10.4841 -2.33039e-07 0)
(-10.4748 -2.30972e-07 0)
(-10.466 -2.29717e-07 0)
(-10.4568 -2.28119e-07 0)
(-10.4482 -2.26337e-07 0)
(-10.4391 -2.26107e-07 0)
(-10.4305 -2.22267e-07 0)
(-10.4217 -2.2633e-07 0)
(-10.4128 -2.1526e-07 0)
(-10.4049 -2.32584e-07 0)
(-10.3945 -1.98894e-07 0)
(-10.3894 -2.51252e-07 0)
(-10.3747 -1.66662e-07 0)
(-10.3766 -2.25363e-07 0)
(-10.3567 -2.61878e-07 0)
)
;
    }
    symmetry
    {
        type            symmetryPlane;
    }
    frontAndBack
    {
        type            empty;
    }
}


// ************************************************************************* //
