/*--------------------------------*- C++ -*----------------------------------*\
| =========                 |                                                 |
| \\      /  F ield         | OpenFOAM: The Open Source CFD Toolbox           |
|  \\    /   O peration     | Version:  v2012                                 |
|   \\  /    A nd           | Website:  www.openfoam.com                      |
|    \\/     M anipulation  |                                                 |
\*---------------------------------------------------------------------------*/
FoamFile
{
    version     2.0;
    format      ascii;
    class       volScalarField;
    location    "44";
    object      yPlus;
}
// * * * * * * * * * * * * * * * * * * * * * * * * * * * * * * * * * * * * * //

dimensions      [0 0 0 0 0 0 0];


internalField   uniform 0;

boundaryField
{
    inlet
    {
        type            calculated;
        value           uniform 0;
    }
    outlet
    {
        type            calculated;
        value           uniform 0;
    }
    topWall
    {
        type            calculated;
        value           nonuniform List<scalar> 
545
(
0.151373
0.261039
0.334865
0.393615
0.443347
0.486859
0.525721
0.560922
0.593135
0.622843
0.650408
0.676112
0.700177
0.722784
0.744081
0.764194
0.78323
0.801281
0.818424
0.834731
0.850262
0.865071
0.879209
0.892717
0.905637
0.918003
0.929849
0.941204
0.952096
0.96255
0.972589
0.982236
0.991509
1.00043
1.00901
1.01727
1.02523
1.03289
1.04028
1.0474
1.05426
1.06088
1.06728
1.07344
1.0794
1.08515
1.09071
1.09607
1.10126
1.10627
1.11112
1.11581
1.12034
1.12473
1.12897
1.13308
1.13705
1.1409
1.14463
1.14824
1.15173
1.15512
1.1584
1.16157
1.16465
1.16764
1.17053
1.17333
1.17605
1.17869
1.18124
1.18372
1.18609
1.18839
1.19067
1.19293
1.19517
1.19739
1.1996
1.20178
1.20395
1.20611
1.20824
1.21036
1.21246
1.21455
1.21661
1.21867
1.2207
1.22272
1.22473
1.22671
1.22869
1.23064
1.23259
1.23451
1.23625
1.2378
1.23935
1.24091
1.24246
1.24401
1.24556
1.24711
1.24866
1.25021
1.25176
1.2533
1.25485
1.2564
1.25795
1.25949
1.26104
1.26258
1.26413
1.26567
1.26722
1.26876
1.2703
1.27185
1.27339
1.27493
1.27647
1.27801
1.27955
1.28108
1.28262
1.28416
1.2857
1.28723
1.28877
1.2903
1.29183
1.29337
1.2949
1.29643
1.29796
1.29949
1.30102
1.30255
1.30407
1.3056
1.30712
1.30865
1.31017
1.3117
1.31322
1.31474
1.31626
1.31778
1.3193
1.32081
1.32233
1.32385
1.32536
1.32687
1.32838
1.3299
1.33141
1.33291
1.33442
1.33593
1.33744
1.33894
1.34044
1.34195
1.34345
1.34495
1.34644
1.34794
1.34944
1.35093
1.35243
1.35392
1.35541
1.3569
1.35839
1.35988
1.36136
1.36285
1.36433
1.36581
1.36729
1.36877
1.37025
1.37172
1.3732
1.37467
1.37614
1.37761
1.37908
1.38055
1.38201
1.38348
1.38494
1.3864
1.38786
1.38931
1.39077
1.39222
1.39368
1.39513
1.39657
1.39802
1.39947
1.40091
1.40235
1.40379
1.40523
1.40666
1.4081
1.40953
1.41096
1.41239
1.41382
1.41524
1.41666
1.41808
1.4195
1.42092
1.42233
1.42374
1.42515
1.42656
1.42797
1.42937
1.43077
1.43217
1.43357
1.43497
1.43636
1.43775
1.43914
1.44052
1.44191
1.44329
1.44467
1.44604
1.44742
1.44879
1.45016
1.45153
1.45289
1.45425
1.45561
1.45697
1.45832
1.45967
1.46102
1.46237
1.46371
1.46506
1.4664
1.46773
1.46906
1.4704
1.47172
1.47305
1.47437
1.47569
1.47701
1.47832
1.47963
1.48094
1.48225
1.48355
1.48485
1.48614
1.48744
1.48866
1.4898
1.49096
1.49212
1.4933
1.49448
1.49566
1.49686
1.49806
1.49927
1.50048
1.50171
1.50294
1.50418
1.50543
1.50668
1.50794
1.50921
1.51048
1.51177
1.51306
1.51435
1.51566
1.51697
1.51828
1.51961
1.52094
1.52227
1.52362
1.52497
1.52632
1.52769
1.52906
1.53043
1.53181
1.5332
1.53459
1.53599
1.53739
1.5388
1.54022
1.54164
1.54306
1.54449
1.54593
1.54737
1.54881
1.55026
1.55171
1.55317
1.55463
1.5561
1.55757
1.55904
1.56051
1.56199
1.56347
1.56496
1.56644
1.56793
1.56942
1.57091
1.57241
1.5739
1.5754
1.57689
1.57839
1.57989
1.58139
1.58289
1.58439
1.58588
1.58738
1.58887
1.59037
1.59186
1.59335
1.59484
1.59632
1.5978
1.59928
1.60076
1.60223
1.60369
1.60515
1.60661
1.60806
1.60951
1.61095
1.61238
1.6138
1.61522
1.61663
1.61803
1.61943
1.62081
1.62219
1.62355
1.62491
1.62625
1.62759
1.62891
1.63022
1.63151
1.6328
1.63407
1.63533
1.63657
1.6378
1.63901
1.64021
1.64139
1.64256
1.6437
1.64483
1.64594
1.64704
1.64811
1.64917
1.6502
1.65121
1.6522
1.65318
1.65412
1.65505
1.65595
1.65683
1.65769
1.65852
1.65932
1.6601
1.66086
1.66159
1.66228
1.66296
1.6636
1.66422
1.66481
1.66537
1.66589
1.66639
1.66686
1.6673
1.6677
1.66808
1.66842
1.66873
1.669
1.66924
1.66945
1.66963
1.66977
1.66987
1.66994
1.66998
1.66998
1.66995
1.66987
1.66977
1.66962
1.66944
1.66923
1.66897
1.66868
1.66836
1.66799
1.66759
1.66715
1.66668
1.66616
1.66561
1.66502
1.6644
1.66374
1.66304
1.6623
1.66153
1.66072
1.65988
1.659
1.65809
1.65703
1.65583
1.65458
1.65331
1.65201
1.65068
1.64933
1.64795
1.64654
1.64512
1.64368
1.64222
1.64075
1.63926
1.63776
1.63625
1.63472
1.6332
1.63165
1.63011
1.62856
1.62702
1.62546
1.62391
1.62235
1.6208
1.61925
1.61771
1.61616
1.61462
1.61309
1.61157
1.61004
1.60854
1.60704
1.60555
1.60407
1.6026
1.60115
1.59971
1.59828
1.59687
1.59546
1.59408
1.59271
1.59137
1.59003
1.58872
1.58742
1.58615
1.58489
1.58366
1.58244
1.58125
1.58008
1.57893
1.5778
1.5767
1.57562
1.57457
1.57353
1.57253
1.57155
1.57059
1.56966
1.56876
1.56788
1.56704
1.56622
1.56542
1.56466
1.56392
1.56322
1.56254
1.56189
1.56127
1.56068
1.56013
1.5596
1.5591
1.55863
1.5582
1.55779
1.55742
1.55708
1.55677
1.55649
1.55625
1.55604
1.55586
1.55571
1.55559
1.55551
1.55546
1.55542
)
;
    }
    bottomWall
    {
        type            calculated;
        value           nonuniform List<scalar> 
449
(
0.00273737
0.00480176
0.00537557
0.00532817
0.00525705
0.00516107
0.0050637
0.00497255
0.00488887
0.00481241
0.00474244
0.0046783
0.00461926
0.00456461
0.00451381
0.00446649
0.00442222
0.0043807
0.00434158
0.00430464
0.00426968
0.00423652
0.00420498
0.00417494
0.00414626
0.00411884
0.00409257
0.00406738
0.00404318
0.00401991
0.00399749
0.00397588
0.00395501
0.00393485
0.00391534
0.00389646
0.00387816
0.00386041
0.00384318
0.00382643
0.00381015
0.00379431
0.00377889
0.00376386
0.00374922
0.00373495
0.00372102
0.00370744
0.00369417
0.00368123
0.00366857
0.0036562
0.0036441
0.00363226
0.00362067
0.00360932
0.00359819
0.00358729
0.00357659
0.0035661
0.0035558
0.00354569
0.00353576
0.00352601
0.00351642
0.003507
0.00349773
0.00348861
0.00347965
0.00347082
0.00346214
0.00345358
0.00344516
0.00343687
0.00342869
0.00342064
0.0034127
0.00340488
0.00339717
0.00338956
0.00338206
0.00337466
0.00336736
0.00336016
0.00335304
0.00334603
0.0033391
0.00333226
0.0033255
0.00331883
0.00331223
0.00330572
0.00329928
0.00329292
0.00328664
0.00328042
0.00327428
0.00326821
0.0032622
0.00325626
0.00325038
0.00324457
0.00323882
0.00323313
0.0032275
0.00322193
0.00321641
0.00321096
0.00320555
0.0032002
0.0031949
0.00318965
0.00318446
0.00317931
0.00317421
0.00316916
0.00316416
0.0031592
0.00315429
0.00314943
0.0031446
0.00313982
0.00313508
0.00313038
0.00312573
0.00312111
0.00311653
0.00311199
0.00310749
0.00310303
0.0030986
0.00309421
0.00308986
0.00308554
0.00308125
0.003077
0.00307278
0.0030686
0.00306444
0.00306032
0.00305623
0.00305217
0.00304814
0.00304415
0.00304018
0.00303624
0.00303232
0.00302844
0.00302459
0.00302076
0.00301696
0.00301318
0.00300944
0.00300571
0.00300202
0.00299835
0.0029947
0.00299108
0.00298748
0.00298391
0.00298036
0.00297683
0.00297333
0.00296985
0.00296639
0.00296296
0.00295954
0.00295615
0.00295278
0.00294943
0.0029461
0.00294279
0.0029395
0.00293641
0.00293351
0.00293059
0.00292767
0.00292474
0.0029218
0.00291885
0.00291589
0.00291293
0.00290995
0.00290697
0.00290397
0.00290097
0.00289796
0.00289494
0.00289192
0.00288888
0.00288584
0.00288279
0.00287972
0.00287666
0.00287358
0.0028705
0.00286741
0.00286431
0.0028612
0.00285808
0.00285496
0.00285183
0.0028487
0.00284555
0.0028424
0.00283924
0.00283608
0.00283291
0.00282973
0.00282654
0.00282335
0.00282015
0.00281695
0.00281374
0.00281052
0.0028073
0.00280407
0.00280083
0.0027976
0.00279435
0.0027911
0.00278784
0.00278458
0.00278131
0.00277804
0.00277476
0.00277148
0.00276819
0.0027649
0.0027616
0.0027583
0.00275499
0.00275168
0.00274837
0.00274505
0.00274172
0.0027384
0.00273507
0.00273174
0.0027284
0.00272506
0.00272171
0.00271837
0.00271501
0.00271166
0.0027083
0.00270494
0.00270158
0.00269821
0.00269484
0.00269147
0.0026881
0.00268473
0.00268135
0.00267797
0.00267459
0.0026712
0.00266782
0.00266443
0.00266104
0.00265765
0.00265426
0.00265086
0.00264747
0.00264407
0.00264068
0.00263728
0.00263389
0.00263048
0.00262709
0.00262369
0.00262029
0.00261689
0.00261349
0.00261008
0.00260669
0.00260328
0.00259989
0.00259648
0.00259309
0.00258968
0.00258629
0.00258289
0.0025795
0.00257609
0.0025727
0.0025693
0.00256592
0.00256251
0.00255913
0.00255573
0.00255235
0.00254896
0.00254558
0.00254219
0.00253881
0.00253542
0.00253205
0.00252867
0.0025253
0.00252192
0.00251856
0.00251518
0.00251182
0.00250846
0.0025051
0.00250174
0.00249839
0.00249503
0.00249168
0.00248834
0.00248499
0.00248165
0.00247832
0.00247498
0.00247165
0.00246833
0.002465
0.00246168
0.00245836
0.00245506
0.00245174
0.00244844
0.00244513
0.00244184
0.00243854
0.00243526
0.00243197
0.00242869
0.00242541
0.00242214
0.00241887
0.00241561
0.00241235
0.0024091
0.00240584
0.0024026
0.00239936
0.00239613
0.00239289
0.00238967
0.00238644
0.00238323
0.00238001
0.00237681
0.0023736
0.00237041
0.00236722
0.00236404
0.00236085
0.00235768
0.00235451
0.00235135
0.00234819
0.00234469
0.00234088
0.00233713
0.00233343
0.00232979
0.00232619
0.00232265
0.00231915
0.00231572
0.00231231
0.00230897
0.00230566
0.00230241
0.00229919
0.00229602
0.00229288
0.0022898
0.00228674
0.00228373
0.00228075
0.00227782
0.00227491
0.00227205
0.00226921
0.00226642
0.00226365
0.00226093
0.00225822
0.00225556
0.00225292
0.00225031
0.00224773
0.00224519
0.00224266
0.00224018
0.0022377
0.00223527
0.00223285
0.00223047
0.0022281
0.00222577
0.00222345
0.00222117
0.0022189
0.00221666
0.00221444
0.00221225
0.00221007
0.00220792
0.00220578
0.00220367
0.00220158
0.00219951
0.00219745
0.00219542
0.0021934
0.00219141
0.00218943
0.00218747
0.00218553
0.00218361
0.00218169
0.00217981
0.00217793
0.00217607
0.00217423
0.00217241
0.00217059
0.0021688
0.00216701
0.00216526
0.00216349
0.00216177
0.00216003
0.00215834
0.00215662
0.00215496
0.00215325
0.00215163
0.00214994
0.00214835
0.00214668
0.00214512
0.00214346
0.00214193
0.00214029
0.00213877
0.00213716
0.00213562
0.00213411
0.00213243
0.00213124
0.00212903
0.00212874
0.0021257
)
;
    }
    symmetry
    {
        type            symmetryPlane;
    }
    frontAndBack
    {
        type            empty;
    }
}


// ************************************************************************* //
