/*--------------------------------*- C++ -*----------------------------------*\
| =========                 |                                                 |
| \\      /  F ield         | OpenFOAM: The Open Source CFD Toolbox           |
|  \\    /   O peration     | Version:  v2012                                 |
|   \\  /    A nd           | Website:  www.openfoam.com                      |
|    \\/     M anipulation  |                                                 |
\*---------------------------------------------------------------------------*/
FoamFile
{
    version     2.0;
    format      ascii;
    class       volScalarField;
    location    "39.5";
    object      k;
}
// * * * * * * * * * * * * * * * * * * * * * * * * * * * * * * * * * * * * * //

dimensions      [0 2 -2 0 0 0 0];


internalField   nonuniform List<scalar> 
209825
(
0.0010241
0.000930923
0.000855312
0.000795622
0.000749299
0.000713344
0.000685222
0.000662884
0.000644919
0.000630228
0.000618097
0.00060793
0.000599353
0.000592025
0.000585737
0.000580281
0.000575532
0.000571365
0.000567692
0.000564438
0.000561538
0.000558954
0.000556626
0.000554542
0.000552644
0.000550944
0.000549378
0.000547974
0.000546667
0.000545497
0.000544399
0.000543416
0.000542482
0.000541655
0.000540858
0.000540154
0.000539466
0.000538866
0.000538274
0.000537761
0.000537246
0.000536806
0.000536365
0.000535983
0.000535595
0.000535271
0.000534933
0.000534651
0.000534353
0.000534106
0.000533848
0.000533643
0.000533424
0.000533241
0.00053305
0.000532903
0.000532724
0.000532607
0.000532448
0.000532346
0.000532204
0.000532121
0.000531999
0.000531926
0.000531822
0.000531725
0.00053164
0.000531599
0.000531542
0.000531514
0.000531458
0.000531434
0.000531379
0.000531374
0.000531361
0.000531396
0.000531396
0.000531455
0.000531455
0.000531529
0.000531545
0.000531628
0.000531652
0.000531741
0.000531776
0.000531878
0.000531924
0.000532044
0.000532096
0.000532242
0.000532298
0.000532441
0.000532662
0.000541372
0.000569848
0.00140019
0.0010241
0.000930923
0.000855312
0.000795621
0.000749298
0.000713341
0.000685218
0.000662879
0.000644912
0.000630221
0.000618088
0.000607921
0.000599343
0.000592015
0.000585726
0.00058027
0.00057552
0.000571353
0.000567679
0.000564425
0.000561525
0.000558941
0.000556612
0.000554528
0.00055263
0.00055093
0.000549364
0.00054796
0.000546652
0.000545483
0.000544384
0.000543401
0.000542467
0.00054164
0.000540843
0.000540139
0.00053945
0.00053885
0.000538258
0.000537746
0.00053723
0.000536791
0.000536349
0.000535967
0.000535579
0.000535256
0.000534917
0.000534635
0.000534337
0.00053409
0.000533832
0.000533626
0.000533407
0.000533225
0.000533034
0.000532887
0.000532708
0.000532591
0.000532431
0.00053233
0.000532188
0.000532105
0.000531983
0.000531909
0.000531806
0.000531709
0.000531624
0.000531582
0.000531526
0.000531498
0.000531442
0.000531417
0.000531362
0.000531358
0.000531345
0.000531379
0.000531379
0.000531439
0.000531439
0.000531512
0.000531528
0.000531612
0.000531635
0.000531724
0.000531759
0.000531861
0.000531907
0.000532028
0.000532079
0.000532225
0.000532281
0.000532424
0.000532646
0.000541371
0.00056984
0.00140099
0.0010241
0.000930924
0.000855312
0.000795617
0.000749288
0.000713326
0.000685197
0.000662854
0.000644883
0.000630188
0.000618052
0.000607882
0.000599302
0.000591971
0.00058568
0.000580223
0.000575472
0.000571303
0.000567628
0.000564373
0.000561471
0.000558886
0.000556558
0.000554472
0.000552574
0.000550873
0.000549306
0.000547902
0.000546594
0.000545424
0.000544325
0.000543341
0.000542407
0.000541579
0.000540782
0.000540078
0.00053939
0.000538789
0.000538197
0.000537684
0.000537168
0.000536729
0.000536287
0.000535904
0.000535517
0.000535193
0.000534854
0.000534572
0.000534274
0.000534027
0.000533769
0.000533563
0.000533344
0.000533161
0.00053297
0.000532823
0.000532644
0.000532527
0.000532367
0.000532265
0.000532123
0.00053204
0.000531918
0.000531845
0.000531742
0.000531644
0.000531559
0.000531518
0.000531461
0.000531433
0.000531377
0.000531352
0.000531297
0.000531293
0.000531279
0.000531314
0.000531314
0.000531373
0.000531373
0.000531446
0.000531462
0.000531546
0.000531569
0.000531658
0.000531693
0.000531795
0.00053184
0.000531961
0.000532012
0.000532159
0.000532214
0.000532357
0.000532579
0.000541338
0.000569788
0.00140259
0.0010241
0.000930926
0.000855312
0.000795611
0.000749273
0.000713301
0.000685163
0.000662811
0.000644834
0.000630132
0.000617991
0.000607816
0.000599232
0.000591898
0.000585603
0.000580143
0.00057539
0.000571219
0.000567542
0.000564285
0.000561382
0.000558796
0.000556466
0.000554379
0.000552479
0.000550778
0.00054921
0.000547805
0.000546496
0.000545325
0.000544226
0.000543242
0.000542307
0.000541478
0.000540681
0.000539977
0.000539287
0.000538687
0.000538094
0.00053758
0.000537064
0.000536625
0.000536183
0.0005358
0.000535412
0.000535088
0.000534749
0.000534466
0.000534168
0.000533921
0.000533662
0.000533456
0.000533237
0.000533054
0.000532863
0.000532716
0.000532536
0.000532419
0.00053226
0.000532158
0.000532016
0.000531932
0.00053181
0.000531736
0.000531633
0.000531536
0.00053145
0.000531409
0.000531352
0.000531324
0.000531268
0.000531243
0.000531188
0.000531183
0.00053117
0.000531204
0.000531204
0.000531263
0.000531263
0.000531336
0.000531352
0.000531435
0.000531458
0.000531547
0.000531582
0.000531684
0.000531729
0.00053185
0.000531901
0.000532047
0.000532102
0.000532245
0.000532468
0.000541277
0.000569699
0.00140447
0.0010241
0.000930929
0.000855312
0.000795602
0.000749251
0.000713266
0.000685115
0.000662752
0.000644764
0.000630053
0.000617904
0.000607723
0.000599133
0.000591794
0.000585495
0.000580031
0.000575274
0.0005711
0.00056742
0.000564161
0.000561256
0.000558668
0.000556336
0.000554248
0.000552346
0.000550643
0.000549075
0.000547668
0.000546358
0.000545186
0.000544086
0.000543101
0.000542165
0.000541336
0.000540538
0.000539833
0.000539143
0.000538542
0.000537948
0.000537435
0.000536918
0.000536478
0.000536035
0.000535652
0.000535264
0.000534939
0.0005346
0.000534317
0.000534019
0.000533771
0.000533512
0.000533306
0.000533087
0.000532904
0.000532712
0.000532564
0.000532385
0.000532268
0.000532108
0.000532006
0.000531863
0.00053178
0.000531658
0.000531584
0.000531481
0.000531383
0.000531297
0.000531256
0.000531199
0.00053117
0.000531114
0.00053109
0.000531034
0.000531029
0.000531015
0.000531049
0.000531049
0.000531107
0.000531107
0.00053118
0.000531196
0.000531279
0.000531302
0.000531391
0.000531425
0.000531527
0.000531572
0.000531692
0.000531743
0.000531889
0.000531944
0.000532087
0.000532311
0.000541189
0.000569572
0.0014066
0.0010241
0.000930933
0.000855312
0.00079559
0.000749223
0.00071322
0.000685053
0.000662674
0.000644673
0.000629951
0.000617793
0.000607603
0.000599005
0.00059166
0.000585355
0.000579886
0.000575125
0.000570947
0.000567263
0.000564001
0.000561093
0.000558502
0.000556167
0.000554077
0.000552174
0.000550469
0.000548899
0.000547491
0.000546179
0.000545006
0.000543905
0.000542918
0.000541982
0.000541152
0.000540353
0.000539647
0.000538956
0.000538354
0.00053776
0.000537246
0.000536728
0.000536288
0.000535844
0.000535461
0.000535072
0.000534747
0.000534407
0.000534124
0.000533825
0.000533577
0.000533318
0.000533112
0.000532892
0.000532708
0.000532516
0.000532368
0.000532189
0.000532071
0.000531911
0.000531809
0.000531666
0.000531583
0.00053146
0.000531386
0.000531283
0.000531185
0.000531099
0.000531057
0.000531
0.000530971
0.000530915
0.00053089
0.000530835
0.00053083
0.000530815
0.000530848
0.000530848
0.000530906
0.000530906
0.000530978
0.000530994
0.000531076
0.0005311
0.000531188
0.000531222
0.000531324
0.000531369
0.000531489
0.000531539
0.000531685
0.00053174
0.000531883
0.000532108
0.000541076
0.000569408
0.00140892
0.00102411
0.000930937
0.000855312
0.000795575
0.000749188
0.000713164
0.000684976
0.000662579
0.000644562
0.000629826
0.000617655
0.000607454
0.000598848
0.000591494
0.000585182
0.000579707
0.00057494
0.000570757
0.000567069
0.000563803
0.000560891
0.000558297
0.00055596
0.000553867
0.000551961
0.000550254
0.000548682
0.000547272
0.000545959
0.000544784
0.000543681
0.000542694
0.000541755
0.000540924
0.000540124
0.000539417
0.000538726
0.000538123
0.000537528
0.000537012
0.000536495
0.000536053
0.000535609
0.000535225
0.000534835
0.00053451
0.00053417
0.000533886
0.000533586
0.000533338
0.000533078
0.000532872
0.000532651
0.000532467
0.000532275
0.000532127
0.000531947
0.000531829
0.000531668
0.000531566
0.000531423
0.000531339
0.000531216
0.000531142
0.000531039
0.000530941
0.000530854
0.000530812
0.000530755
0.000530726
0.00053067
0.000530645
0.000530589
0.000530584
0.000530568
0.0005306
0.0005306
0.000530657
0.000530657
0.000530729
0.000530744
0.000530827
0.00053085
0.000530938
0.000530972
0.000531073
0.000531118
0.000531237
0.000531288
0.000531433
0.000531487
0.00053163
0.000531858
0.000540938
0.000569206
0.00141132
0.00102411
0.000930942
0.000855312
0.000795558
0.000749147
0.000713097
0.000684885
0.000662466
0.000644429
0.000629676
0.000617491
0.000607278
0.00059866
0.000591297
0.000584977
0.000579494
0.000574721
0.000570532
0.000566838
0.000563568
0.000560651
0.000558053
0.000555713
0.000553616
0.000551708
0.000549998
0.000548423
0.000547011
0.000545696
0.000544519
0.000543415
0.000542425
0.000541486
0.000540653
0.000539852
0.000539144
0.000538451
0.000537847
0.000537251
0.000536734
0.000536216
0.000535773
0.000535328
0.000534944
0.000534553
0.000534227
0.000533886
0.000533602
0.000533302
0.000533053
0.000532793
0.000532585
0.000532364
0.00053218
0.000531987
0.000531839
0.000531658
0.00053154
0.000531379
0.000531276
0.000531133
0.000531049
0.000530926
0.000530851
0.000530747
0.00053065
0.000530563
0.00053052
0.000530462
0.000530433
0.000530377
0.000530352
0.000530296
0.00053029
0.000530273
0.000530305
0.000530305
0.000530361
0.000530361
0.000530433
0.000530447
0.000530529
0.000530552
0.000530639
0.000530673
0.000530774
0.000530818
0.000530938
0.000530988
0.000531133
0.000531186
0.000531329
0.000531559
0.000540774
0.000568966
0.00141363
0.00102411
0.000930948
0.000855312
0.000795538
0.000749099
0.000713019
0.000684779
0.000662334
0.000644275
0.000629503
0.0006173
0.000607072
0.000598442
0.000591067
0.000584737
0.000579246
0.000574465
0.000570269
0.00056657
0.000563293
0.000560372
0.000557769
0.000555425
0.000553325
0.000551413
0.0005497
0.000548122
0.000546708
0.00054539
0.000544211
0.000543104
0.000542113
0.000541172
0.000540337
0.000539534
0.000538825
0.00053813
0.000537525
0.000536928
0.000536411
0.000535891
0.000535447
0.000535002
0.000534616
0.000534224
0.000533898
0.000533556
0.000533271
0.00053297
0.000532721
0.00053246
0.000532252
0.00053203
0.000531846
0.000531652
0.000531503
0.000531322
0.000531203
0.000531042
0.000530939
0.000530795
0.00053071
0.000530587
0.000530512
0.000530408
0.000530311
0.000530223
0.00053018
0.000530122
0.000530092
0.000530036
0.00053001
0.000529955
0.000529948
0.00052993
0.00052996
0.00052996
0.000530015
0.000530016
0.000530087
0.000530101
0.000530182
0.000530204
0.000530292
0.000530325
0.000530425
0.00053047
0.000530588
0.000530638
0.000530783
0.000530836
0.000530978
0.000531211
0.000540586
0.000568688
0.00141559
0.00102411
0.000930955
0.000855312
0.000795516
0.000749045
0.000712931
0.000684658
0.000662184
0.000644099
0.000629304
0.000617083
0.000606838
0.000598193
0.000590805
0.000584464
0.000578962
0.000574172
0.000569969
0.000566262
0.000562979
0.000560053
0.000557445
0.000555095
0.000552991
0.000551075
0.000549359
0.000547778
0.00054636
0.00054504
0.000543858
0.000542749
0.000541756
0.000540812
0.000539976
0.000539171
0.00053846
0.000537764
0.000537157
0.000536559
0.00053604
0.000535519
0.000535074
0.000534628
0.000534241
0.000533848
0.000533521
0.000533178
0.000532892
0.000532591
0.000532341
0.000532079
0.00053187
0.000531648
0.000531463
0.000531268
0.000531119
0.000530937
0.000530818
0.000530656
0.000530552
0.000530409
0.000530323
0.000530199
0.000530124
0.00053002
0.000529922
0.000529834
0.000529791
0.000529732
0.000529702
0.000529645
0.000529619
0.000529564
0.000529557
0.000529538
0.000529567
0.000529566
0.00052962
0.000529621
0.000529691
0.000529704
0.000529786
0.000529807
0.000529894
0.000529927
0.000530027
0.000530071
0.000530189
0.000530238
0.000530382
0.000530435
0.000530577
0.000530813
0.000540374
0.000568371
0.00141683
0.00102411
0.000930963
0.000855313
0.00079549
0.000748984
0.000712832
0.000684522
0.000662015
0.000643902
0.000629081
0.000616838
0.000606574
0.000597912
0.00059051
0.000584156
0.000578643
0.000573843
0.00056963
0.000565916
0.000562626
0.000559692
0.000557079
0.000554724
0.000552615
0.000550695
0.000548974
0.000547389
0.000545968
0.000544645
0.000543461
0.000542348
0.000541353
0.000540407
0.000539569
0.000538762
0.000538048
0.000537351
0.000536742
0.000536142
0.000535622
0.0005351
0.000534654
0.000534206
0.000533818
0.000533424
0.000533095
0.000532752
0.000532465
0.000532162
0.000531912
0.000531649
0.000531439
0.000531216
0.000531031
0.000530835
0.000530685
0.000530503
0.000530383
0.000530221
0.000530117
0.000529972
0.000529886
0.000529762
0.000529686
0.000529582
0.000529484
0.000529395
0.000529351
0.000529292
0.000529262
0.000529204
0.000529178
0.000529123
0.000529115
0.000529095
0.000529122
0.000529122
0.000529175
0.000529175
0.000529244
0.000529257
0.000529338
0.000529359
0.000529445
0.000529478
0.000529577
0.00052962
0.000529738
0.000529787
0.00052993
0.000529982
0.000530124
0.000530364
0.000540137
0.000568014
0.00141684
0.00102411
0.000930972
0.000855313
0.000795463
0.000748917
0.000712722
0.000684372
0.000661828
0.000643682
0.000628833
0.000616565
0.000606279
0.000597599
0.000590181
0.000583812
0.000578287
0.000573475
0.000569253
0.000565529
0.000562231
0.000559291
0.00055667
0.00055431
0.000552195
0.00055027
0.000548545
0.000546956
0.000545531
0.000544204
0.000543017
0.000541902
0.000540903
0.000539954
0.000539114
0.000538304
0.000537589
0.00053689
0.000536279
0.000535677
0.000535156
0.000534632
0.000534184
0.000533735
0.000533346
0.000532951
0.000532621
0.000532276
0.000531988
0.000531685
0.000531433
0.000531169
0.000530959
0.000530735
0.000530548
0.000530352
0.000530202
0.000530018
0.000529898
0.000529735
0.00052963
0.000529485
0.000529399
0.000529274
0.000529198
0.000529093
0.000528995
0.000528905
0.000528861
0.000528801
0.00052877
0.000528712
0.000528686
0.000528631
0.000528622
0.0005286
0.000528627
0.000528626
0.000528677
0.000528677
0.000528746
0.000528758
0.000528838
0.000528859
0.000528944
0.000528976
0.000529075
0.000529118
0.000529234
0.000529283
0.000529426
0.000529477
0.000529619
0.000529863
0.000539877
0.000567618
0.00141518
0.00102411
0.000930982
0.000855314
0.000795432
0.000748843
0.000712601
0.000684206
0.000661621
0.000643439
0.000628559
0.000616264
0.000605955
0.000597254
0.000589817
0.000583433
0.000577893
0.00057307
0.000568836
0.000565103
0.000561796
0.000558847
0.000556219
0.000553852
0.000551732
0.000549801
0.000548071
0.000546477
0.000545048
0.000543717
0.000542526
0.000541408
0.000540406
0.000539454
0.000538611
0.000537799
0.000537082
0.00053638
0.000535768
0.000535164
0.00053464
0.000534114
0.000533665
0.000533214
0.000532824
0.000532427
0.000532096
0.00053175
0.000531461
0.000531156
0.000530904
0.000530639
0.000530427
0.000530202
0.000530015
0.000529818
0.000529667
0.000529483
0.000529362
0.000529198
0.000529092
0.000528947
0.00052886
0.000528734
0.000528657
0.000528553
0.000528454
0.000528364
0.000528319
0.000528258
0.000528227
0.000528168
0.000528142
0.000528087
0.000528077
0.000528053
0.000528078
0.000528077
0.000528127
0.000528127
0.000528195
0.000528206
0.000528286
0.000528305
0.00052839
0.000528422
0.00052852
0.000528562
0.000528678
0.000528726
0.000528868
0.000528918
0.00052906
0.000529309
0.000539592
0.000567181
0.00141185
0.00102411
0.000930992
0.000855314
0.0007954
0.000748763
0.000712469
0.000684025
0.000661395
0.000643174
0.00062826
0.000615935
0.000605599
0.000596876
0.000589419
0.000583018
0.000577463
0.000572625
0.000568379
0.000564635
0.000561318
0.00055836
0.000555725
0.00055335
0.000551223
0.000549286
0.000547551
0.000545952
0.000544518
0.000543183
0.000541988
0.000540866
0.000539861
0.000538906
0.00053806
0.000537245
0.000536525
0.000535821
0.000535206
0.0005346
0.000534074
0.000533547
0.000533096
0.000532643
0.000532251
0.000531853
0.00053152
0.000531173
0.000530883
0.000530577
0.000530323
0.000530057
0.000529844
0.000529618
0.00052943
0.000529231
0.00052908
0.000528895
0.000528773
0.000528608
0.000528502
0.000528356
0.000528268
0.000528142
0.000528064
0.000527959
0.000527861
0.000527769
0.000527723
0.000527662
0.00052763
0.000527571
0.000527545
0.000527489
0.000527479
0.000527453
0.000527477
0.000527475
0.000527523
0.000527523
0.00052759
0.0005276
0.000527679
0.000527698
0.000527783
0.000527813
0.00052791
0.000527952
0.000528067
0.000528115
0.000528256
0.000528304
0.000528446
0.000528701
0.000539283
0.000566702
0.00140688
0.00102411
0.000931004
0.000855315
0.000795364
0.000748677
0.000712327
0.000683829
0.00066115
0.000642886
0.000627934
0.000615577
0.000605213
0.000596465
0.000588986
0.000582566
0.000576993
0.000572141
0.000567881
0.000564125
0.000560798
0.00055783
0.000555186
0.000552803
0.000550669
0.000548726
0.000546984
0.00054538
0.000543941
0.000542601
0.000541401
0.000540275
0.000539266
0.000538308
0.000537458
0.000536641
0.000535918
0.000535211
0.000534594
0.000533985
0.000533458
0.000532928
0.000532475
0.00053202
0.000531626
0.000531227
0.000530893
0.000530543
0.000530252
0.000529944
0.00052969
0.000529422
0.000529208
0.000528981
0.000528792
0.000528592
0.00052844
0.000528253
0.000528131
0.000527965
0.000527859
0.000527711
0.000527623
0.000527496
0.000527418
0.000527312
0.000527214
0.000527121
0.000527074
0.000527012
0.00052698
0.00052692
0.000526893
0.000526837
0.000526826
0.000526799
0.000526821
0.000526819
0.000526864
0.000526865
0.00052693
0.00052694
0.000527018
0.000527036
0.00052712
0.000527149
0.000527246
0.000527286
0.000527401
0.000527448
0.000527588
0.000527636
0.000527778
0.000528038
0.00053895
0.00056618
0.00140029
0.00102411
0.000931016
0.000855317
0.000795327
0.000748584
0.000712173
0.000683617
0.000660886
0.000642576
0.000627583
0.00061519
0.000604795
0.00059602
0.000588518
0.000582076
0.000576486
0.000571617
0.000567343
0.000563574
0.000560234
0.000557256
0.000554602
0.000552211
0.000550069
0.000548118
0.00054637
0.00054476
0.000543315
0.00054197
0.000540766
0.000539635
0.000538622
0.00053766
0.000536807
0.000535986
0.00053526
0.00053455
0.00053393
0.000533319
0.000532789
0.000532257
0.000531802
0.000531345
0.00053095
0.000530548
0.000530212
0.000529861
0.000529568
0.000529259
0.000529003
0.000528734
0.000528519
0.00052829
0.0005281
0.000527899
0.000527746
0.000527558
0.000527435
0.000527268
0.000527161
0.000527013
0.000526923
0.000526796
0.000526717
0.000526611
0.000526512
0.000526418
0.000526371
0.000526307
0.000526275
0.000526215
0.000526187
0.000526131
0.000526119
0.00052609
0.00052611
0.000526107
0.000526151
0.000526151
0.000526215
0.000526224
0.000526301
0.000526318
0.000526401
0.00052643
0.000526525
0.000526565
0.000526679
0.000526725
0.000526864
0.000526911
0.000527052
0.00052732
0.000538591
0.000565614
0.00139213
0.00102411
0.000931029
0.000855318
0.000795287
0.000748484
0.000712009
0.00068339
0.000660602
0.000642242
0.000627205
0.000614774
0.000604345
0.000595541
0.000588013
0.000581549
0.000575939
0.000571052
0.000566762
0.000562979
0.000559627
0.000556638
0.000553973
0.000551573
0.000549422
0.000547463
0.000545708
0.000544091
0.000542641
0.00054129
0.00054008
0.000538945
0.000537927
0.000536961
0.000536104
0.000535279
0.00053455
0.000533837
0.000533214
0.0005326
0.000532068
0.000531533
0.000531076
0.000530616
0.000530219
0.000529815
0.000529478
0.000529125
0.00052883
0.00052852
0.000528262
0.000527991
0.000527775
0.000527545
0.000527354
0.000527151
0.000526997
0.000526808
0.000526684
0.000526516
0.000526408
0.000526259
0.000526168
0.00052604
0.00052596
0.000525854
0.000525755
0.00052566
0.000525611
0.000525546
0.000525514
0.000525453
0.000525425
0.000525368
0.000525355
0.000525325
0.000525343
0.000525339
0.00052538
0.00052538
0.000525443
0.000525451
0.000525527
0.000525543
0.000525625
0.000525653
0.000525748
0.000525787
0.000525899
0.000525945
0.000526083
0.000526128
0.00052627
0.000526545
0.000538206
0.000565
0.00138243
0.00102411
0.000931043
0.00085532
0.000795245
0.000748379
0.000711834
0.000683148
0.000660299
0.000641884
0.0006268
0.000614328
0.000603864
0.000595028
0.000587473
0.000580985
0.000575352
0.000570447
0.00056614
0.000562341
0.000558975
0.000555974
0.000553298
0.000550887
0.000548727
0.00054676
0.000544997
0.000543373
0.000541916
0.000540559
0.000539344
0.000538203
0.000537181
0.000536211
0.000535349
0.000534521
0.000533788
0.000533071
0.000532446
0.000531828
0.000531293
0.000530756
0.000530296
0.000529834
0.000529435
0.000529028
0.000528689
0.000528334
0.000528038
0.000527725
0.000527467
0.000527194
0.000526976
0.000526744
0.000526552
0.000526348
0.000526192
0.000526002
0.000525877
0.000525708
0.000525599
0.000525449
0.000525357
0.000525228
0.000525147
0.00052504
0.000524941
0.000524845
0.000524795
0.000524729
0.000524696
0.000524634
0.000524606
0.000524549
0.000524535
0.000524502
0.000524519
0.000524514
0.000524553
0.000524553
0.000524614
0.000524621
0.000524695
0.00052471
0.000524792
0.000524819
0.000524912
0.00052495
0.000525062
0.000525107
0.000525244
0.000525287
0.000525429
0.000525712
0.000537794
0.000564338
0.00137125
0.00102411
0.000931058
0.000855323
0.0007952
0.000748267
0.000711648
0.000682891
0.000659976
0.000641504
0.000626369
0.000613853
0.00060335
0.00059448
0.000586895
0.000580381
0.000574726
0.0005698
0.000565474
0.000561659
0.000558279
0.000555264
0.000552576
0.000550154
0.000547984
0.000546008
0.000544237
0.000542605
0.000541141
0.000539778
0.000538557
0.00053741
0.000536383
0.000535407
0.000534542
0.000533709
0.000532972
0.000532252
0.000531623
0.000531002
0.000530464
0.000529924
0.000529461
0.000528997
0.000528595
0.000528186
0.000527845
0.000527488
0.00052719
0.000526875
0.000526615
0.00052634
0.000526121
0.000525887
0.000525694
0.000525488
0.000525331
0.00052514
0.000525013
0.000524843
0.000524733
0.000524581
0.000524489
0.000524359
0.000524277
0.000524169
0.00052407
0.000523972
0.000523922
0.000523855
0.00052382
0.000523758
0.000523729
0.000523672
0.000523657
0.000523622
0.000523637
0.000523631
0.000523667
0.000523667
0.000523726
0.000523732
0.000523805
0.000523819
0.0005239
0.000523925
0.000524018
0.000524055
0.000524165
0.000524209
0.000524345
0.000524387
0.000524528
0.000524821
0.000537353
0.000563625
0.00135864
0.00102412
0.000931073
0.000855326
0.000795154
0.000748149
0.000711452
0.000682619
0.000659634
0.0006411
0.000625911
0.000613347
0.000602803
0.000593898
0.000586281
0.000579739
0.000574059
0.000569111
0.000564766
0.000560933
0.000557537
0.000554508
0.000551807
0.000549374
0.000547193
0.000545207
0.000543427
0.000541787
0.000540315
0.000538945
0.000537717
0.000536565
0.000535532
0.000534551
0.000533681
0.000532843
0.000532103
0.000531378
0.000530746
0.000530121
0.00052958
0.000529036
0.000528571
0.000528104
0.000527699
0.000527288
0.000526944
0.000526585
0.000526285
0.000525968
0.000525706
0.00052543
0.000525209
0.000524973
0.000524778
0.00052457
0.000524413
0.00052422
0.000524091
0.00052392
0.000523809
0.000523656
0.000523563
0.000523432
0.000523349
0.00052324
0.00052314
0.000523042
0.00052299
0.000522922
0.000522887
0.000522823
0.000522794
0.000522736
0.00052272
0.000522684
0.000522696
0.000522689
0.000522722
0.000522722
0.000522779
0.000522784
0.000522856
0.000522869
0.000522948
0.000522973
0.000523064
0.0005231
0.000523209
0.000523252
0.000523386
0.000523427
0.000523568
0.000523871
0.000536881
0.000562856
0.00134466
0.00102412
0.00093109
0.000855329
0.000795106
0.000748026
0.000711245
0.000682331
0.000659273
0.000640673
0.000625426
0.000612812
0.000602224
0.00059328
0.00058563
0.000579058
0.000573351
0.00056838
0.000564014
0.000560162
0.000556749
0.000553705
0.00055099
0.000548544
0.000546352
0.000544356
0.000542566
0.000540917
0.000539437
0.000538059
0.000536825
0.000535666
0.000534628
0.000533641
0.000532766
0.000531923
0.000531178
0.00053045
0.000529813
0.000529185
0.00052864
0.000528093
0.000527624
0.000527154
0.000526747
0.000526333
0.000525987
0.000525625
0.000525323
0.000525004
0.00052474
0.000524461
0.000524238
0.000524001
0.000523805
0.000523595
0.000523436
0.000523241
0.000523111
0.000522939
0.000522826
0.000522673
0.000522578
0.000522446
0.000522362
0.000522252
0.000522152
0.000522052
0.000521999
0.000521929
0.000521893
0.000521829
0.000521799
0.00052174
0.000521724
0.000521685
0.000521695
0.000521687
0.000521718
0.000521717
0.000521772
0.000521775
0.000521846
0.000521858
0.000521936
0.000521959
0.000522049
0.000522084
0.000522191
0.000522234
0.000522367
0.000522406
0.000522547
0.00052286
0.000536376
0.000562027
0.00132937
0.00102412
0.000931107
0.000855333
0.000795055
0.000747896
0.000711027
0.000682028
0.000658892
0.000640222
0.000624914
0.000612247
0.000601612
0.000592627
0.00058494
0.000578337
0.000572602
0.000567606
0.000563217
0.000559346
0.000555915
0.000552854
0.000550125
0.000547665
0.000545461
0.000543454
0.000541653
0.000539995
0.000538507
0.000537121
0.000535879
0.000534714
0.000533669
0.000532676
0.000531795
0.000530948
0.000530198
0.000529465
0.000528824
0.000528192
0.000527643
0.000527093
0.000526621
0.000526147
0.000525738
0.00052532
0.000524971
0.000524607
0.000524303
0.000523982
0.000523715
0.000523434
0.000523209
0.00052297
0.000522772
0.00052256
0.0005224
0.000522203
0.000522072
0.000521898
0.000521784
0.000521629
0.000521533
0.0005214
0.000521314
0.000521204
0.000521104
0.000521002
0.000520947
0.000520876
0.00052084
0.000520774
0.000520744
0.000520684
0.000520667
0.000520627
0.000520634
0.000520624
0.000520652
0.000520651
0.000520703
0.000520706
0.000520775
0.000520785
0.000520862
0.000520884
0.000520973
0.000521006
0.000521112
0.000521154
0.000521285
0.000521322
0.000521463
0.000521788
0.000535832
0.000561137
0.00131286
0.00102412
0.000931125
0.000855337
0.000795003
0.000747761
0.0007108
0.000681711
0.000658491
0.000639748
0.000624375
0.000611651
0.000600967
0.000591939
0.000584214
0.000577576
0.000571812
0.000566789
0.000562376
0.000558484
0.000555033
0.000551955
0.000549211
0.000546737
0.00054452
0.0005425
0.000540689
0.000539021
0.000537524
0.000536129
0.00053488
0.000533707
0.000532655
0.000531656
0.000530769
0.000529916
0.000529161
0.000528423
0.000527778
0.000527142
0.000526589
0.000526035
0.000525559
0.000525082
0.00052467
0.000524249
0.000523898
0.00052353
0.000523224
0.0005229
0.000522632
0.000522348
0.000522121
0.000521879
0.00052168
0.000521465
0.000521304
0.000521105
0.000520973
0.000520797
0.000520682
0.000520525
0.000520428
0.000520294
0.000520207
0.000520095
0.000519994
0.000519891
0.000519835
0.000519763
0.000519725
0.000519658
0.000519627
0.000519567
0.000519548
0.000519507
0.000519512
0.0005195
0.000519525
0.000519523
0.000519573
0.000519575
0.000519641
0.000519651
0.000519726
0.000519747
0.000519834
0.000519866
0.000519971
0.000520011
0.000520141
0.000520176
0.000520317
0.000520654
0.000535243
0.000560183
0.00129519
0.00102412
0.000931144
0.000855342
0.00079495
0.000747621
0.000710562
0.000681379
0.000658071
0.000639251
0.000623809
0.000611025
0.000600288
0.000591214
0.000583449
0.000576776
0.000570979
0.000565928
0.000561491
0.000557576
0.000554105
0.000551009
0.000548247
0.000545758
0.000543527
0.000541495
0.000539672
0.000537994
0.000536487
0.000535083
0.000533825
0.000532644
0.000531586
0.00053058
0.000529687
0.000528828
0.000528068
0.000527325
0.000526675
0.000526034
0.000525477
0.000524919
0.000524439
0.000523958
0.000523543
0.000523119
0.000522764
0.000522394
0.000522085
0.000521758
0.000521488
0.000521202
0.000520973
0.000520728
0.000520527
0.00052031
0.000520147
0.000519946
0.000519812
0.000519635
0.000519518
0.00051936
0.000519261
0.000519126
0.000519037
0.000518925
0.000518824
0.000518719
0.000518661
0.000518587
0.000518548
0.000518481
0.000518449
0.000518388
0.000518368
0.000518325
0.000518328
0.000518314
0.000518336
0.000518333
0.00051838
0.000518381
0.000518445
0.000518453
0.000518527
0.000518546
0.000518632
0.000518663
0.000518766
0.000518805
0.000518933
0.000518966
0.000519108
0.000519456
0.000534602
0.000559162
0.00127644
0.00102412
0.000931164
0.000855348
0.000794894
0.000747475
0.000710315
0.000681032
0.000657633
0.00063873
0.000623216
0.000610369
0.000599576
0.000590454
0.000582646
0.000575935
0.000570105
0.000565024
0.00056056
0.000556621
0.000553128
0.000550013
0.000547233
0.000544729
0.000542483
0.000540438
0.000538603
0.000536913
0.000535395
0.000533982
0.000532716
0.000531527
0.000530461
0.000529448
0.000528548
0.000527683
0.000526917
0.000526168
0.000525513
0.000524867
0.000524306
0.000523743
0.00052326
0.000522775
0.000522356
0.000521929
0.000521571
0.000521198
0.000520885
0.000520556
0.000520283
0.000519994
0.000519763
0.000519516
0.000519313
0.000519094
0.000518928
0.000518726
0.00051859
0.000518411
0.000518292
0.000518133
0.000518032
0.000517895
0.000517805
0.000517692
0.00051759
0.000517484
0.000517425
0.000517349
0.000517309
0.00051724
0.000517207
0.000517145
0.000517125
0.00051708
0.00051708
0.000517064
0.000517084
0.000517079
0.000517123
0.000517123
0.000517185
0.000517192
0.000517264
0.000517282
0.000517366
0.000517395
0.000517496
0.000517534
0.000517661
0.000517692
0.000517833
0.000518195
0.0005339
0.000558072
0.00125671
0.00102412
0.000931185
0.000855354
0.000794838
0.000747324
0.000710058
0.00068067
0.000657175
0.000638187
0.000622596
0.000609683
0.000598832
0.000589658
0.000581804
0.000575054
0.000569188
0.000564076
0.000559583
0.000555619
0.000552104
0.000548968
0.00054617
0.000543648
0.000541387
0.000539328
0.00053748
0.000535778
0.000534249
0.000532826
0.00053155
0.000530352
0.000529278
0.000528258
0.000527351
0.000526479
0.000525707
0.000524953
0.000524293
0.000523641
0.000523076
0.000522508
0.000522021
0.000521532
0.000521109
0.000520678
0.000520317
0.00051994
0.000519625
0.000519293
0.000519017
0.000518725
0.000518491
0.000518242
0.000518037
0.000517815