/*--------------------------------*- C++ -*----------------------------------*\
| =========                 |                                                 |
| \\      /  F ield         | OpenFOAM: The Open Source CFD Toolbox           |
|  \\    /   O peration     | Version:  v2012                                 |
|   \\  /    A nd           | Website:  www.openfoam.com                      |
|    \\/     M anipulation  |                                                 |
\*---------------------------------------------------------------------------*/
FoamFile
{
    version     2.0;
    format      ascii;
    class       volScalarField;
    location    "39.5";
    object      omega;
}
// * * * * * * * * * * * * * * * * * * * * * * * * * * * * * * * * * * * * * //

dimensions      [0 0 -1 0 0 0 0];


internalField   nonuniform List<scalar> 
209825
(
8261.46
7567.17
6999.7
6549.21
6196.73
5921.54
5704.2
5530.72
5389.67
5274
5177.32
5096.27
5026.95
4967.86
4916.36
4871.92
4832.54
4798.27
4767.45
4740.47
4715.86
4694.25
4674.29
4656.73
4640.29
4625.86
4612.18
4600.18
4588.65
4578.6
4568.81
4560.33
4551.95
4544.73
4537.5
4531.34
4525.09
4519.8
4514.35
4509.78
4505.05
4501.08
4496.91
4493.5
4489.84
4486.86
4483.63
4481.01
4478.2
4475.91
4473.47
4471.54
4469.43
4467.62
4465.79
4464.23
4462.61
4461.23
4459.79
4458.66
4457.5
4456.53
4455.47
4454.73
4453.81
4453.15
4452.3
4451.81
4451.13
4450.78
4450.19
4449.89
4449.37
4449.1
4448.57
4448.3
4447.85
4447.65
4447.28
4447.14
4446.82
4446.82
4446.74
4446.88
4446.88
4447.23
4447.24
4447.83
4447.83
4448.58
4448.58
4449.6
4450.26
4479.94
4592.45
113253
8261.46
7567.17
6999.7
6549.2
6196.71
5921.51
5704.16
5530.67
5389.61
5273.93
5177.25
5096.18
5026.86
4967.77
4916.26
4871.82
4832.44
4798.16
4767.34
4740.35
4715.74
4694.14
4674.17
4656.6
4640.17
4625.74
4612.05
4600.05
4588.52
4578.47
4568.68
4560.19
4551.81
4544.6
4537.37
4531.21
4524.96
4519.67
4514.21
4509.64
4504.92
4500.94
4496.77
4493.37
4489.7
4486.72
4483.49
4480.86
4478.06
4475.77
4473.33
4471.39
4469.28
4467.48
4465.64
4464.09
4462.47
4461.09
4459.65
4458.52
4457.36
4456.39
4455.32
4454.59
4453.66
4453
4452.16
4451.66
4450.98
4450.63
4450.04
4449.74
4449.22
4448.95
4448.43
4448.15
4447.7
4447.5
4447.13
4446.99
4446.67
4446.67
4446.59
4446.74
4446.74
4447.09
4447.09
4447.68
4447.68
4448.43
4448.43
4449.45
4450.12
4479.84
4592.34
109954
8261.46
7567.18
6999.7
6549.18
6196.65
5921.41
5704.01
5530.49
5389.4
5273.7
5176.99
5095.9
5026.56
4967.46
4915.93
4871.48
4832.08
4797.8
4766.96
4739.97
4715.36
4693.74
4673.77
4656.2
4639.76
4625.32
4611.64
4599.63
4588.1
4578.04
4568.25
4559.76
4551.38
4544.15
4536.92
4530.76
4524.51
4519.22
4513.76
4509.19
4504.46
4500.49
4496.31
4492.91
4489.24
4486.26
4483.02
4480.4
4477.59
4475.31
4472.86
4470.92
4468.81
4467.01
4465.17
4463.62
4462
4460.61
4459.18
4458.04
4456.88
4455.91
4454.84
4454.11
4453.18
4452.52
4451.68
4451.18
4450.5
4450.15
4449.56
4449.26
4448.74
4448.47
4447.94
4447.67
4447.22
4447.02
4446.65
4446.51
4446.18
4446.19
4446.11
4446.25
4446.25
4446.6
4446.6
4447.19
4447.19
4447.94
4447.94
4448.96
4449.63
4479.46
4591.92
106168
8261.46
7567.19
6999.7
6549.13
6196.54
5921.23
5703.77
5530.18
5389.04
5273.29
5176.54
5095.42
5026.05
4966.92
4915.37
4870.9
4831.48
4797.18
4766.33
4739.32
4714.69
4693.07
4673.08
4655.51
4639.06
4624.61
4610.92
4598.9
4587.37
4577.31
4567.51
4559.01
4550.62
4543.4
4536.16
4530
4523.74
4518.45
4512.99
4508.41
4503.68
4499.7
4495.53
4492.12
4488.45
4485.47
4482.23
4479.6
4476.8
4474.51
4472.06
4470.12
4468.01
4466.2
4464.37
4462.81
4461.19
4459.8
4458.36
4457.23
4456.07
4455.1
4454.03
4453.29
4452.36
4451.7
4450.86
4450.36
4449.68
4449.33
4448.74
4448.44
4447.91
4447.64
4447.12
4446.84
4446.39
4446.19
4445.82
4445.68
4445.36
4445.36
4445.27
4445.41
4445.41
4445.76
4445.76
4446.35
4446.35
4447.1
4447.1
4448.12
4448.79
4478.78
4591.2
102275
8261.46
7567.21
6999.7
6549.06
6196.38
5920.97
5703.41
5529.74
5388.53
5272.71
5175.9
5094.73
5025.31
4966.14
4914.56
4870.06
4830.62
4796.29
4765.42
4738.39
4713.75
4692.11
4672.11
4654.52
4638.05
4623.6
4609.89
4597.87
4586.33
4576.26
4566.45
4557.95
4549.55
4542.32
4535.08
4528.91
4522.65
4517.35
4511.88
4507.31
4502.57
4498.59
4494.41
4491
4487.33
4484.34
4481.1
4478.47
4475.66
4473.37
4470.92
4468.98
4466.87
4465.05
4463.22
4461.66
4460.03
4458.65
4457.21
4456.07
4454.91
4453.94
4452.87
4452.13
4451.2
4450.54
4449.69
4449.19
4448.51
4448.16
4447.56
4447.26
4446.74
4446.47
4445.94
4445.66
4445.21
4445.01
4444.64
4444.5
4444.18
4444.17
4444.09
4444.23
4444.22
4444.57
4444.57
4445.15
4445.15
4445.9
4445.9
4446.92
4447.59
4477.81
4590.16
98378.5
8261.47
7567.24
6999.7
6548.97
6196.17
5920.63
5702.95
5529.17
5387.85
5271.95
5175.06
5093.83
5024.36
4965.14
4913.51
4868.97
4829.49
4795.13
4764.23
4737.18
4712.51
4690.85
4670.83
4653.22
4636.75
4622.28
4608.56
4596.52
4584.97
4574.89
4565.07
4556.56
4548.16
4540.92
4533.67
4527.49
4521.22
4515.92
4510.45
4505.86
4501.12
4497.14
4492.95
4489.54
4485.86
4482.87
4479.63
4476.99
4474.18
4471.89
4469.43
4467.49
4465.37
4463.56
4461.72
4460.16
4458.53
4457.15
4455.7
4454.56
4453.4
4452.42
4451.35
4450.61
4449.68
4449.02
4448.17
4447.67
4446.98
4446.63
4446.03
4445.73
4445.21
4444.93
4444.41
4444.13
4443.68
4443.47
4443.1
4442.96
4442.64
4442.63
4442.54
4442.67
4442.67
4443.01
4443.01
4443.59
4443.59
4444.33
4444.33
4445.35
4446.03
4476.55
4588.8
94519.5
8261.47
7567.27
6999.7
6548.86
6195.91
5920.21
5702.38
5528.46
5387.02
5271.01
5174.03
5092.72
5023.17
4963.89
4912.21
4867.62
4828.1
4793.7
4762.76
4735.68
4710.98
4689.3
4669.26
4651.63
4635.13
4620.64
4606.91
4594.86
4583.28
4573.19
4563.37
4554.84
4546.43
4539.18
4531.92
4525.73
4519.46
4514.14
4508.67
4504.08
4499.33
4495.34
4491.15
4487.73
4484.05
4481.05
4477.8
4475.17
4472.35
4470.05
4467.59
4465.64
4463.52
4461.71
4459.86
4458.3
4456.67
4455.28
4453.83
4452.69
4451.52
4450.55
4449.47
4448.73
4447.8
4447.13
4446.28
4445.78
4445.09
4444.74
4444.14
4443.84
4443.31
4443.04
4442.51
4442.23
4441.78
4441.57
4441.2
4441.05
4440.73
4440.72
4440.62
4440.76
4440.75
4441.09
4441.09
4441.66
4441.66
4442.4
4442.4
4443.41
4444.1
4474.98
4587.13
90716.7
8261.47
7567.31
6999.7
6548.73
6195.6
5919.71
5701.7
5527.61
5386.03
5269.89
5172.8
5091.39
5021.76
4962.4
4910.65
4866
4826.43
4791.99
4761.01
4733.89
4709.16
4687.44
4667.37
4649.72
4633.19
4618.68
4604.93
4592.86
4581.27
4571.17
4561.32
4552.79
4544.36
4537.1
4529.83
4523.63
4517.35
4512.02
4506.54
4501.94
4497.18
4493.19
4488.99
4485.56
4481.87
4478.88
4475.62
4472.98
4470.15
4467.85
4465.39
4463.44
4461.31
4459.49
4457.64
4456.08
4454.44
4453.05
4451.6
4450.46
4449.28
4448.3
4447.22
4446.48
4445.54
4444.88
4444.02
4443.52
4442.83
4442.47
4441.87
4441.57
4441.04
4440.77
4440.24
4439.95
4439.5
4439.29
4438.92
4438.77
4438.45
4438.43
4438.33
4438.46
4438.45
4438.78
4438.78
4439.35
4439.35
4440.08
4440.08
4441.1
4441.79
4473.11
4585.14
86978.8
8261.48
7567.36
6999.7
6548.58
6195.24
5919.13
5700.9
5526.62
5384.87
5268.58
5171.36
5089.84
5020.11
4960.67
4908.84
4864.12
4824.49
4789.99
4758.96
4731.8
4707.03
4685.28
4665.17
4647.49
4630.94
4616.4
4602.62
4590.53
4578.93
4568.8
4558.94
4550.39
4541.94
4534.67
4527.39
4521.18
4514.88
4509.55
4504.05
4499.45
4494.68
4490.67
4486.47
4483.03
4479.34
4476.33
4473.07
4470.42
4467.59
4465.28
4462.82
4460.86
4458.73
4456.9
4455.05
4453.48
4451.84
4450.45
4448.99
4447.85
4446.67
4445.69
4444.6
4443.86
4442.91
4442.25
4441.39
4440.88
4440.19
4439.83
4439.23
4438.92
4438.39
4438.11
4437.58
4437.3
4436.84
4436.63
4436.25
4436.11
4435.79
4435.76
4435.65
4435.78
4435.77
4436.09
4436.09
4436.66
4436.66
4437.38
4437.38
4438.39
4439.09
4470.93
4582.83
83308.5
8261.48
7567.41
6999.69
6548.41
6194.84
5918.47
5700
5525.49
5383.55
5267.09
5169.72
5088.07
5018.22
4958.68
4906.76
4861.97
4822.26
4787.7
4756.62
4729.41
4704.59
4682.79
4662.65
4644.93
4628.35
4613.79
4599.98
4587.87
4576.24
4566.09
4556.21
4547.64
4539.18
4531.89
4524.59
4518.37
4512.06
4506.71
4501.2
4496.59
4491.81
4487.8
4483.58
4480.14
4476.43
4473.42
4470.15
4467.5
4464.66
4462.34
4459.87
4457.91
4455.77
4453.94
4452.08
4450.51
4448.86
4447.47
4446
4444.85
4443.67
4442.68
4441.6
4440.85
4439.9
4439.23
4438.37
4437.86
4437.16
4436.8
4436.19
4435.89
4435.35
4435.08
4434.54
4434.26
4433.8
4433.59
4433.2
4433.05
4432.74
4432.7
4432.58
4432.71
4432.7
4433.01
4433.01
4433.56
4433.56
4434.28
4434.28
4435.29
4436
4468.44
4580.2
79704.2
8261.49
7567.47
6999.69
6548.22
6194.38
5917.72
5698.98
5524.23
5382.06
5265.41
5167.87
5086.07
5016.09
4956.44
4904.42
4859.54
4819.75
4785.12
4753.97
4726.7
4701.83
4679.99
4659.81
4642.05
4625.43
4610.83
4597
4584.86
4573.2
4563.03
4553.12
4544.53
4536.05
4528.75
4521.43
4515.2
4508.87
4503.51
4497.99
4493.36
4488.57
4484.54
4480.32
4476.86
4473.15
4470.13
4466.85
4464.19
4461.34
4459.02
4456.54
4454.57
4452.43
4450.59
4448.72
4447.15
4445.5
4444.09
4442.63
4441.47
4440.28
4439.29
4438.2
4437.45
4436.5
4435.82
4434.96
4434.44
4433.74
4433.38
4432.77
4432.46
4431.92
4431.64
4431.11
4430.82
4430.36
4430.14
4429.76
4429.61
4429.29
4429.25
4429.12
4429.24
4429.22
4429.53
4429.53
4430.07
4430.07
4430.78
4430.78
4431.78
4432.51
4465.63
4577.25
76159.9
8261.49
7567.53
6999.7
6548.02
6193.87
5916.9
5697.84
5522.81
5380.4
5263.53
5165.8
5083.84
5013.72
4953.94
4901.81
4856.82
4816.95
4782.24
4751.02
4723.69
4698.75
4676.86
4656.63
4638.83
4622.17
4607.54
4593.66
4581.49
4569.8
4559.61
4549.68
4541.07
4532.56
4525.24
4517.9
4511.65
4505.3
4499.93
4494.39
4489.75
4484.95
4480.91
4476.67
4473.21
4469.48
4466.45
4463.16
4460.49
4457.64
4455.31
4452.82
4450.84
4448.69
4446.85
4444.98
4443.39
4441.73
4440.33
4438.85
4437.69
4436.5
4435.5
4434.4
4433.65
4432.69
4432.02
4431.14
4430.63
4429.92
4429.55
4428.94
4428.63
4428.09
4427.81
4427.27
4426.98
4426.51
4426.29
4425.91
4425.75
4425.43
4425.39
4425.25
4425.36
4425.34
4425.63
4425.63
4426.17
4426.17
4426.86
4426.86
4427.87
4428.6
4462.5
4573.98
72671.8
8261.5
7567.6
6999.7
6547.79
6193.32
5915.99
5696.59
5521.26
5378.57
5261.46
5163.53
5081.38
5011.1
4951.17
4898.92
4853.83
4813.85
4779.06
4747.75
4720.35
4695.35
4673.4
4653.11
4635.26
4618.56
4603.89
4589.98
4577.77
4566.05
4555.83
4545.87
4537.23
4528.7
4521.36
4514
4507.72
4501.36
4495.97
4490.41
4485.76
4480.94
4476.89
4472.64
4469.16
4465.43
4462.38
4459.08
4456.4
4453.54
4451.2
4448.7
4446.71
4444.55
4442.71
4440.83
4439.23
4437.57
4436.16
4434.68
4433.51
4432.31
4431.31
4430.2
4429.44
4428.48
4427.8
4426.92
4426.4
4425.69
4425.32
4424.7
4424.39
4423.84
4423.56
4423.02
4422.73
4422.26
4422.03
4421.64
4421.49
4421.16
4421.11
4420.96
4421.07
4421.04
4421.33
4421.33
4421.85
4421.85
4422.53
4422.53
4423.53
4424.29
4459.04
4570.39
69246.4
8261.51
7567.68
6999.7
6547.54
6192.71
5915
5695.23
5519.55
5376.57
5259.2
5161.03
5078.68
5008.22
4948.14
4895.75
4850.54
4810.45
4775.56
4744.17
4716.69
4691.62
4669.61
4649.26
4631.36
4614.6
4599.88
4585.93
4573.69
4561.93
4551.67
4541.68
4533.02
4524.46
4517.09
4509.71
4503.42
4497.03
4491.62
4486.05
4481.38
4476.54
4472.48
4468.21
4464.72
4460.97
4457.92
4454.6
4451.91
4449.03
4446.69
4444.18
4442.18
4440.01
4438.16
4436.27
4434.67
4433
4431.58
4430.09
4428.92
4427.71
4426.71
4425.59
4424.82
4423.86
4423.17
4422.29
4421.76
4421.05
4420.67
4420.05
4419.73
4419.18
4418.89
4418.35
4418.05
4417.58
4417.36
4416.96
4416.8
4416.48
4416.42
4416.25
4416.35
4416.32
4416.59
4416.59
4417.1
4417.11
4417.78
4417.78
4418.77
4419.54
4455.24
4566.48
65889.6
8261.51
7567.76
6999.7
6547.27
6192.06
5913.92
5693.75
5517.71
5374.39
5256.73
5158.31
5075.75
5005.1
4944.85
4892.3
4846.96
4806.75
4771.76
4740.27
4712.7
4687.55
4665.47
4645.06
4627.09
4610.28
4595.52
4581.52
4569.23
4557.44
4547.15
4537.12
4528.42
4519.84
4512.44
4505.03
4498.72
4492.31
4486.88
4481.28
4476.59
4471.74
4467.66
4463.37
4459.87
4456.11
4453.04
4449.72
4447.01
4444.12
4441.77
4439.24
4437.24
4435.06
4433.2
4431.3
4429.69
4428.01
4426.59
4425.09
4423.91
4422.69
4421.68
4420.56
4419.79
4418.81
4418.12
4417.23
4416.7
4415.98
4415.59
4414.97
4414.64
4414.09
4413.8
4413.26
4412.96
4412.48
4412.25
4411.85
4411.69
4411.36
4411.29
4411.12
4411.21
4411.17
4411.43
4411.43
4411.93
4411.93
4412.59
4412.59
4413.57
4414.37
4451.1
4562.25
62607.2
8261.52
7567.86
6999.71
6546.98
6191.36
5912.77
5692.16
5515.71
5372.04
5254.07
5155.38
5072.57
5001.71
4941.28
4888.57
4843.08
4802.74
4767.63
4736.04
4708.38
4683.14
4660.98
4640.5
4622.48
4605.61
4590.79
4576.74
4564.41
4552.57
4542.24
4532.17
4523.44
4514.83
4507.4
4499.96
4493.62
4487.19
4481.74
4476.12
4471.41
4466.53
4462.44
4458.13
4454.61
4450.83
4447.75
4444.41
4441.7
4438.8
4436.43
4433.89
4431.87
4429.68
4427.81
4425.9
4424.29
4422.6
4421.17
4419.66
4418.47
4417.24
4416.23
4415.1
4414.32
4413.33
4412.64
4411.75
4411.21
4410.48
4410.09
4409.46
4409.13
4408.57
4408.28
4407.73
4407.43
4406.95
4406.71
4406.31
4406.14
4405.81
4405.73
4405.55
4405.63
4405.59
4405.83
4405.83
4406.31
4406.31
4406.96
4406.95
4407.94
4408.76
4446.62
4557.7
59404.4
8261.53
7567.95
6999.72
6546.68
6190.61
5911.53
5690.44
5513.57
5369.51
5251.2
5152.22
5069.15
4998.06
4937.43
4884.55
4838.9
4798.42
4763.19
4731.48
4703.72
4678.39
4656.15
4635.59
4617.49
4600.56
4585.68
4571.58
4559.2
4547.31
4536.94
4526.83
4518.07
4509.42
4501.96
4494.49
4488.12
4481.66
4476.18
4470.54
4465.81
4460.91
4456.8
4452.47
4448.94
4445.14
4442.05
4438.69
4435.96
4433.04
4430.66
4428.11
4426.08
4423.88
4422
4420.08
4418.46
4416.75
4415.32
4413.8
4412.6
4411.36
4410.34
4409.2
4408.42
4407.42
4406.73
4405.82
4405.28
4404.54
4404.14
4403.51
4403.18
4402.61
4402.32
4401.77
4401.46
4400.97
4400.73
4400.32
4400.15
4399.81
4399.73
4399.53
4399.6
4399.55
4399.79
4399.78
4400.25
4400.25
4400.88
4400.87
4401.85
4402.7
4441.77
4552.84
56286
8261.53
7568.06
6999.73
6546.36
6189.81
5910.21
5688.61
5511.28
5366.8
5248.14
5148.83
5065.49
4994.15
4933.31
4880.23
4834.41
4793.79
4758.42
4726.59
4698.72
4673.29
4650.95
4630.31
4612.14
4595.14
4580.2
4566.03
4553.6
4541.66
4531.25
4521.1
4512.3
4503.6
4496.11
4488.61
4482.21
4475.72
4470.22
4464.55
4459.8
4454.88
4450.74
4446.39
4442.84
4439.02
4435.91
4432.54
4429.8
4426.86
4424.47
4421.9
4419.86
4417.65
4415.76
4413.82
4412.19
4410.47
4409.03
4407.5
4406.29
4405.04
4404.02
4402.86
4402.07
4401.07
4400.37
4399.46
4398.9
4398.16
4397.76
4397.11
4396.77
4396.21
4395.91
4395.35
4395.04
4394.55
4394.3
4393.88
4393.71
4393.37
4393.28
4393.07
4393.13
4393.07
4393.29
4393.28
4393.73
4393.73
4394.34
4394.34
4395.31
4396.19
4436.54
4547.67
53256.5
8261.54
7568.17
6999.74
6546.02
6188.96
5908.81
5686.67
5508.84
5363.92
5244.87
5145.22
5061.58
4989.98
4928.9
4875.62
4829.62
4788.83
4753.31
4721.35
4693.37
4667.83
4645.4
4624.67
4606.42
4589.34
4574.33
4560.1
4547.62
4535.62
4525.16
4514.96
4506.12
4497.38
4489.86
4482.32
4475.89
4469.36
4463.83
4458.14
4453.36
4448.41
4444.26
4439.89
4436.31
4432.48
4429.35
4425.96
4423.2
4420.24
4417.84
4415.26
4413.2
4410.97
4409.07
4407.12
4405.48
4403.75
4402.3
4400.75
4399.54
4398.27
4397.24
4396.08
4395.28
4394.27
4393.56
4392.64
4392.08
4391.32
4390.91
4390.26
4389.92
4389.35
4389.05
4388.48
4388.17
4387.67
4387.42
4386.99
4386.81
4386.47
4386.37
4386.15
4386.2
4386.13
4386.33
4386.32
4386.75
4386.75
4387.34
4387.34
4388.31
4389.21
4430.93
4542.18
50320.1
8261.55
7568.28
6999.76
6545.67
6188.07
5907.32
5684.61
5506.25
5360.86
5241.39
5141.38
5057.42
4985.54
4924.22
4870.71
4824.52
4783.55
4747.88
4715.78
4687.67
4662.01
4639.48
4618.65
4600.32
4583.16
4568.08
4553.78
4541.23
4529.18
4518.66
4508.42
4499.52
4490.75
4483.18
4475.6
4469.14
4462.58
4457.02
4451.3
4446.49
4441.52
4437.34
4432.94
4429.35
4425.49
4422.34
4418.93
4416.15
4413.18
4410.76
4408.16
4406.09
4403.85
4401.93
4399.97
4398.31
4396.57
4395.11
4393.56
4392.33
4391.05
4390.01
4388.84
4388.03
4387.01
4386.29
4385.36
4384.79
4384.03
4383.61
4382.95
4382.61
4382.03
4381.72
4381.15
4380.83
4380.33
4380.07
4379.64
4379.45
4379.1
4379
4378.76
4378.8
4378.72
4378.9
4378.89
4379.31
4379.31
4379.87
4379.87
4380.83
4381.77
4424.92
4536.37
47480.5
8261.55
7568.41
6999.78
6545.3
6187.14
5905.76
5682.44
5503.51
5357.62
5237.71
5137.31
5053.01
4980.83
4919.24
4865.5
4819.1
4777.95
4742.11
4709.86
4681.61
4655.83
4633.19
4612.26
4593.83
4576.59
4561.43
4547.06
4534.45
4522.33
4511.76
4501.46
4492.52
4483.69
4476.09
4468.47
4461.96
4455.37
4449.78
4444.02
4439.18
4434.18
4429.98
4425.56
4421.94
4418.06
4414.89
4411.46
4408.66
4405.67
4403.23
4400.61
4398.52
4396.27
4394.34
4392.36
4390.69
4388.94
4387.47
4385.9
4384.66
4383.37
4382.32
4381.13
4380.31
4379.28
4378.56
4377.62
4377.05
4376.27
4375.85
4375.18
4374.82
4374.24
4373.93
4373.35
4373.03
4372.51
4372.25
4371.81
4371.62
4371.26
4371.15
4370.91
4370.93
4370.84
4371.01
4370.99
4371.38
4371.38
4371.93
4371.93
4372.88
4373.86
4418.48
4530.2
44741.1
8261.56
7568.54
6999.8
6544.92
6186.16
5904.12
5680.15
5500.63
5354.21
5233.83
5133.01
5048.35
4975.85
4913.98
4859.99
4813.37
4772.02
4736
4703.59
4675.2
4649.29
4626.53
4605.48
4586.96
4569.62
4554.39
4539.94
4527.25
4515.07
4504.44
4494.08
4485.09
4476.21
4468.56
4460.9
4454.36
4447.72
4442.1
4436.3
4431.44
4426.4
4422.17
4417.72
4414.08
4410.17
4406.98
4403.53
4400.72
4397.7
4395.25
4392.61
4390.5
4388.23
4386.29
4384.29
4382.61
4380.84
4379.36
4377.77
4376.53
4375.22
4374.16
4372.96
4372.13
4371.09
4370.36
4369.41
4368.82
4368.04
4367.6
4366.93
4366.57
4365.97
4365.66
4365.08
4364.75
4364.23
4363.96
4363.51
4363.31
4362.95
4362.83
4362.57
4362.58
4362.47
4362.63
4362.6
4362.98
4362.98
4363.5
4363.5
4364.44
4365.46
4411.61
4523.65
42105
8261.57
7568.67
6999.83
6544.52
6185.13
5902.4
5677.74
5497.6
5350.61
5229.74
5128.48
5043.44
4970.6
4908.43
4854.17
4807.32
4765.75
4729.55
4696.96
4668.42
4642.37
4619.49
4598.33
4579.7
4562.26
4546.94
4532.41
4519.65
4507.39
4496.7
4486.28
4477.23
4468.3
4460.6
4452.89
4446.31
4439.63
4433.97
4428.14
4423.24
4418.17
4413.92
4409.44
4405.77
4401.84
4398.62
4395.14
4392.31
4389.28
4386.8
4384.14
4382.02
4379.72
4377.77
4375.75
4374.06
4372.27
4370.78
4369.18
4367.92
4366.59
4365.53
4364.31
4363.47
4362.42
4361.68
4360.71
4360.12
4359.32
4358.88
4358.19
4357.83
4357.23
4356.91
4356.32
4355.98
4355.45
4355.18
4354.72
4354.51
4354.14
4354.02
4353.76
4353.74
4353.62
4353.76
4353.73
4354.08
4354.08
4354.58
4354.57
4355.51
4356.57
4404.27
4516.68
39575
8261.57
7568.81
6999.86
6544.11
6184.07
5900.61
5675.23
5494.42
5346.84
5225.44
5123.72
5038.27
4965.07
4902.59
4848.05
4800.95
4759.15
4722.76
4689.99
4661.28
4635.08
4612.07
4590.78
4572.05
4554.5
4539.08
4524.46
4511.63
4499.3
4488.53
4478.05
4468.94
4459.96
4452.21
4444.45
4437.82
4431.1
4425.4
4419.53
4414.6
4409.49
4405.2
4400.69
4397
4393.03
4389.8
4386.29
4383.44
4380.38
4377.88
4375.2
4373.06
4370.74
4368.77
4366.74
4365.03
4363.23
4361.72
4360.1
4358.83
4357.49
4356.41
4355.18
4354.33
4353.26
4352.51
4351.54
4350.94
4350.12
4349.67
4348.98
4348.6
4347.99
4347.67
4347.07
4346.73
4346.19
4345.91
4345.44
4345.23
4344.85
4344.72
4344.44
4344.42
4344.28
4344.4
4344.36
4344.69
4344.69
4345.16
4345.16
4346.08
4347.19
4396.44
4509.26
37153.4
8261.57
7568.96
6999.9
6543.69
6182.96
5898.74
5672.6
5491.1
5342.89
5220.94
5118.73
5032.85
4959.27
4896.45
4841.62
4794.25
4752.22
4715.61
4682.65
4653.77
4627.42
4604.26
4582.84
4563.99
4546.34
4530.82
4516.1
4503.19
4490.77
4479.94
4469.38
4460.22
4451.17
4443.37
4435.55
4428.88
4422.11
4416.37
4410.46
4405.49
4400.35
4396.03
4391.48
4387.76
4383.76
4380.5
4376.97
4374.09
4371.01
4368.49
4365.78
4363.62
4361.28
4359.3
4357.24
4355.52
4353.7
4352.18
4350.54
4349.26
4347.9
4346.81
4345.56
4344.7
4343.62
4342.86
4341.87
4341.26
4340.43
4339.97
4339.26
4338.88
4338.27
4337.93
4337.33
4336.98
4336.43
4336.14
4335.67
4335.45
4335.06
4334.92
4334.63
4334.59
4334.43
4334.54
4334.48
4334.79
4334.79
4335.23
4335.23
4336.14
4337.3
4388.1
4501.36
34842.3
8261.58
7569.12
6999.94
6543.26
6181.82
5896.79
5669.87
5487.63
5338.76
5216.23
5113.5
5027.18
4953.19
4890.03
4834.87
4787.23
4744.95
4708.12
4674.95
4645.89
4619.37
4596.06
4574.51
4555.53
4537.76
4522.14
4507.33
4494.32
4481.82
4470.91
4460.28
4451.05
4441.94
4434.08
4426.21
4419.49
4412.67
4406.88
4400.93
4395.92
4390.74
4386.38
4381.8
4378.04
4374.02
4370.73
4367.17
4364.27
4361.15
4358.61
4355.88
4353.7
4351.34
4349.34
4347.26
4345.52
4343.68
4342.15
4340.49
4339.19
4337.81
4336.72
4335.45
4334.57
4333.47
4332.71
4331.71
4331.08
4330.24
4329.77
4329.05
4328.66
4328.04
4327.69
4327.09
4326.73
4326.17
4325.87
4325.39
4325.16
4324.76
4324.61
4324.31
4324.26
4324.08
4324.17
4324.1
4324.39
4324.38
4324.8
4324.8
4325.7
4326.91
4379.2
4492.94
32643.5
8261.58
7569.28
6999.99
6542.82
6180.64
5894.78
5667.03
5484.02
5334.46
5211.32
5108.05
5021.25
4946.84
4883.3
4827.82
4779.88
4737.33
4700.27
4666.89
4637.64
4610.94
4587.48
4565.77
4546.67
4528.77
4513.04
4498.12
4485.02
4472.44
4461.45
4450.74
4441.44
4432.26
4424.34
4416.41
4409.63
4402.76
4396.93
4390.93
4385.88
4380.65
4376.27
4371.65
4367.86
4363.8
4360.48
4356.89
4353.96
4350.82
4348.25
4345.5
4343.29
4340.91
4338.89
4336.78
4335.03
4333.17
4331.62
4329.95
4328.63
4327.23
4326.12
4324.84
4323.95
4322.83
4322.06
4321.04
4320.41
4319.55
4319.07
4318.33
4317.93
4317.3
4316.95
4316.33
4315.97
4315.4
4315.1
4314.6
4314.36
4313.95
4313.79
4313.48
4313.41
4313.22
4313.29
4313.21
4313.47
4313.47
4313.85
4313.85
4314.74
4315.99
4369.71
4483.96
30558.5
8261.58
7569.44
7000.04
6542.37
6179.42
5892.69
5664.08
5480.27
5329.99
5206.2
5102.37
5015.06
4940.21
4876.29
4820.45
4772.21
4729.38
4692.07
4658.46
4629.01
4602.13
4578.5
4556.64
4537.4
4519.37
4503.52
4488.49
4475.3
4462.61
4451.54
4440.75
4431.38
4422.13
4414.14
4406.15
4399.32
4392.39
4386.51
4380.46
4375.37
4370.1
4365.67
4361.01
4357.19
4353.09
4349.74
4346.12
4343.16
4339.99
4337.4
4334.62
4332.38
4329.98
4327.94
4325.81
4324.04
4322.15
4320.59
4318.9
4317.57
4316.14
4315.02
4313.72
4312.81
4311.68
4310.89
4309.86
4309.22
4308.35
4307.85
4307.1
4306.69
4306.05
4305.69
4305.07
4304.7
4304.12
4303.8
4303.3
4303.04
4302.63
4302.46
4302.14
4302.05
4301.84
4301.89
4301.8
4302.03
4302.02
4302.38
4302.37
4303.25
4304.56
4359.59
4474.38
28588.5
8261.58
7569.61
7000.1
6541.91
6178.17
5890.54
5661.03
5476.39
5325.35
5200.88
5096.45
5008.63
4933.31
4868.98
4812.77
4764.2
4721.08
4683.51
4649.66
4620.01
4592.92
4569.12
4547.1
4527.71
4509.55
4493.58
4478.43
4465.13
4452.35
4441.19
4430.31
4420.86
4411.53
4403.49
4395.42
4388.53
4381.55
4375.62
4369.51
4364.38
4359.06
4354.59
4349.89
4346.03
4341.9
4338.51
4334.86
4331.87
4328.67
4326.05
4323.24
4320.98
4318.55
4316.49
4314.33
4312.55
4310.64
4309.06
4307.34
4305.99
4304.55
4303.41
4302.09
4301.17
4300.02
4299.22
4298.17
4297.51
4296.63
4296.12
4295.36
4294.94
4294.28
4293.92
4293.28
4292.9
4292.31
4291.99
4291.47
4291.21
4290.78
4290.6
4290.27
4290.17
4289.94
4289.97
4289.86
4290.06
4290.06
4290.39
4290.37
4291.23
4292.6
4348.83
4464.16
26734.9
8261.58
7569.79
7000.16
6541.45
6176.89
5888.32
5657.88
5472.36
5320.53
5195.37
5090.31
5001.94
4926.14
4861.37
4804.78
4755.87
4712.44
4674.6
4640.5
4610.62
4583.33
4559.35
4537.15
4517.61
4499.31
4483.21
4467.94
4454.53
4441.64
4430.39
4419.42
4409.89
4400.48
4392.36
4384.23
4377.28
4370.23
4364.25
4358.09
4352.9
4347.53
4343.03
4338.28
4334.38
4330.21
4326.79
4323.1
4320.08
4316.85
4314.21
4311.36
4309.07
4306.61
4304.53
4302.35
4300.54
4298.61
4297.01
4295.27
4293.91
4292.44
4291.29
4289.94
4289.01
4287.84
4287.03
4285.96
4285.29
4284.39
4283.87
4283.09
4282.66
4281.99
4281.62
4280.97
4280.58
4279.98
4279.65
4279.12
4278.85
4278.4
4278.21
4277.86
4277.76
4277.51
4277.52
4277.38
4277.57
4277.56
4277.86
4277.83
4278.69
4280.1
4337.4
4453.26
24998.7
8261.58
7569.97
7000.23
6540.98
6175.57
5886.04
5654.63
5468.21
5315.55
5189.65
5083.95
4995
4918.69
4853.47
4796.48
4747.21
4703.46
4665.33
4630.97
4600.86
4573.35
4549.17
4526.8
4507.1
4488.64
4472.41
4457.01
4443.49
4430.49
4419.13
4408.07
4398.46
4388.96
4380.77
4372.57
4365.55
4358.44
4352.4
4346.18
4340.94
4335.52
4330.97
4326.18
4322.24
4318.03
4314.57
4310.84
4307.79
4304.52
4301.85
4298.97
4296.66
4294.17
4292.07
4289.85
4288.03
4286.06
4284.45
4282.69
4281.3
4279.81
4278.64
4277.27
4276.32
4275.13
4274.31
4273.23
4272.54
4271.62
4271.09
4270.29
4269.85
4269.17
4268.79
4268.13
4267.73
4267.12
4266.78
4266.23
4265.95
4265.49
4265.29
4264.93
4264.81
4264.55
4264.53
4264.38
4264.54
4264.52
4264.79
4264.75
4265.6
4267.06
4325.33
4441.64
23380.7
8261.58
7570.15
7000.31
6540.51
6174.23
5883.71
5651.28
5463.92
5310.4
5183.74
5077.36
4987.81
4910.96
4845.28
4787.86
4738.23
4694.14
4655.7
4621.07
4590.71
4562.98
4538.6
4516.04
4496.17
4477.55
4461.18
4445.64
4432
4418.88
4407.43
4396.26
4386.56
4376.98
4368.71
4360.43
4353.35
4346.16
4340.06
4333.78
4328.49
4323.02
4318.42
4313.58
4309.6
4305.34
4301.85
4298.08
4295
4291.69
4288.99
4286.07
4283.73
4281.21
4279.08
4276.84
4274.99
4273
4271.37
4269.58
4268.18
4266.65
4265.47
4264.08
4263.11
4261.9
4261.07
4259.96
4259.26
4258.32
4257.78
4256.97
4256.51
4255.81
4255.42
4254.76
4254.35
4253.72
4253.37
4252.81
4252.52
4252.04
4251.83
4251.45
4251.32
4251.05
4251.01
4250.83
4250.97
4250.94
4251.18
4251.13
4251.96
4253.48
4312.6
4429.26
21877.1
8261.58
7570.34
7000.4
6540.03
6172.87
5881.31
5647.85
5459.51
5305.1
5177.64
5070.55
4980.38
4902.97
4836.79
4778.94
4728.91
4684.47
4645.72
4610.8
4580.19
4552.22
4527.63
4504.87
4484.82
4466.04
4449.52
4433.84
4420.07
4406.83
4395.27
4383.99
4374.2
4364.53
4356.18
4347.81
4340.66
4333.4
4327.24
4320.9
4315.55
4310.02
4305.38
4300.48
4296.45
4292.15
4288.62
4284.81
4281.69
4278.34
4275.61
4272.66
4270.28
4267.73
4265.58
4263.31
4261.43
4259.42
4257.76
4255.95
4254.52
4252.97
4251.78
4250.36
4249.37
4248.14
4247.29
4246.17
4245.45
4244.49
4243.93
4243.1
4242.63
4241.92
4241.52
4240.84
4240.43
4239.78
4239.42
4238.84
4238.54
4238.05
4237.83
4237.44
4237.29
4237
4236.94
4236.74
4236.85
4236.81
4237.03
4236.96
4237.78
4239.34
4299.22
4416.08
20483.1
8261.57
7570.53
7000.49
6539.56
6171.48
5878.86
5644.32
5454.97
5299.63
5171.35
5063.52
4972.7
4894.71
4828.02
4769.71
4719.27
4674.46
4635.38
4600.16
4569.28
4541.06
4516.25
4493.28
4473.06
4454.1
4437.42
4421.59
4407.69
4394.32
4382.65
4371.26
4361.37
4351.6
4343.17
4334.72
4327.49
4320.16
4313.93
4307.52
4302.12
4296.52
4291.83
4286.88
4282.81
4278.45
4274.88
4271.03
4267.87
4264.48
4261.71
4258.73
4256.32
4253.73
4251.56
4249.25
4247.35
4245.3
4243.63
4241.79
4240.34
4238.76
4237.55
4236.1
4235.1
4233.84
4232.98
4231.83
4231.1
4230.12
4229.54
4228.7
4228.21
4227.49
4227.08
4226.38
4225.96
4225.3
4224.92
4224.34
4224.02
4223.52
4223.28
4222.87
4222.71
4222.4
4222.33
4222.1
4222.19
4222.14
4222.32
4222.23
4223.04
4224.65
4285.18
4402.07
19193.8
8261.56
7570.73
7000.59
6539.08
6170.07
5876.36
5640.71
5450.31
5294.01
5164.88
5056.27
4964.78
4886.19
4818.96
4760.17
4709.31
4664.11
4624.69
4589.15
4557.99
4529.51
4504.47
4481.29
4460.87
4441.73
4424.89
4408.9
4394.87
4381.36
4369.57
4358.07
4348.07
4338.2
4329.68
4321.14
4313.83
4306.42
4300.13
4293.65
4288.18
4282.53
4277.78
4272.77
4268.65
4264.24
4260.63
4256.73
4253.53
4250.1
4247.3
4244.27
4241.83
4239.21
4237
4234.66
4232.74
4230.66
4228.97
4227.09
4225.62
4224.01
4222.78
4221.31
4220.29
4219.01
4218.12
4216.96
4216.21
4215.21
4214.61
4213.75
4213.25
4212.51
4212.08
4211.38
4210.94
4210.27
4209.88
4209.28
4208.95
4208.43
4208.18
4207.75
4207.58
4207.25
4207.16
4206.91
4206.97
4206.9
4207.06
4206.95
4207.75
4209.4
4270.48
4387.2
18004
8261.55
7570.93
7000.7
6538.61
6168.64
5873.82
5637.02
5445.54
5288.25
5158.22
5048.82
4956.62
4877.4
4809.62
4750.32
4699.02
4653.42
4613.64
4577.78
4546.32
4517.58
4492.29
4468.88
4448.26
4428.93
4411.92
4395.77
4381.59
4367.95
4356.03
4344.41
4334.31
4324.33
4315.71
4307.08
4299.69
4292.2
4285.83
4279.28
4273.75
4268.03
4263.22
4258.16
4253.98
4249.52
4245.86
4241.92
4238.68
4235.21
4232.36
4229.3
4226.82
4224.15
4221.92
4219.55
4217.6
4215.48
4213.77
4211.86
4210.37
4208.73
4207.48
4205.98
4204.93
4203.63
4202.73
4201.54
4200.78
4199.75
4199.14
4198.25
4197.74
4196.98
4196.54
4195.82
4195.38
4194.69
4194.29
4193.66
4193.32
4192.79
4192.52
4192.08
4191.89
4191.54
4191.43
4191.16
4191.2
4191.11
4191.24
4191.11
4191.9
4193.58
4255.11
4371.44
16908.3
8261.54
7571.14
7000.82
6538.14
6167.2
5871.23
5633.25
5440.65
5282.33
5151.38
5041.16
4948.23
4868.35
4799.99
4740.18
4688.41
4642.39
4602.24
4566.03
4534.28
4505.25
4479.71
4456.07
4435.24
4415.7
4398.52
4382.2
4367.87
4354.08
4342.03
4330.28
4320.07
4309.98
4301.27
4292.54
4285.06
4277.48
4271.04
4264.41
4258.82
4253.02
4248.16
4243.03
4238.8
4234.29
4230.58
4226.59
4223.31
4219.78
4216.9
4213.79
4211.28
4208.57
4206.31
4203.9
4201.92
4199.77
4198.03
4196.09
4194.58
4192.9
4191.63
4190.1
4189.04
4187.71
4186.78
4185.57
4184.79
4183.74
4183.11
4182.2
4181.68
4180.9
4180.45
4179.71
4179.26
4178.55
4178.14
4177.5
4177.14
4176.59
4176.31
4175.84
4175.64
4175.28
4175.15
4174.86
4174.87
4174.76
4174.86
4174.7
4175.48
4177.19
4239.08
4354.75
15900.9
8261.53
7571.34
7000.95
6537.67
6165.75
5868.6
5629.42
5435.66
5276.28
5144.38
5033.3
4939.61
4859.05
4790.09
4729.73
4677.49
4631.03
4590.5
4553.93
4521.86
4492.53
4466.74
4442.84
4421.79
4402.05
4384.68
4368.19
4353.7
4339.75
4327.57
4315.69
4305.36
4295.15
4286.34
4277.51
4269.94
4262.27
4255.75
4249.04
4243.38
4237.51
4232.59
4227.4
4223.11
4218.54
4214.78
4210.73
4207.41
4203.84
4200.92
4197.76
4195.21
4192.46
4190.17
4187.71
4185.71
4183.52
4181.76
4179.79
4178.25
4176.54
4175.24
4173.68
4172.6
4171.23
4170.29
4169.06
4168.26
4167.18
4166.53
4165.6
4165.06
4164.26
4163.8
4163.05
4162.58
4161.86
4161.43
4160.77
4160.4
4159.83
4159.53
4159.05
4158.83
4158.45
4158.3
4157.99
4157.97
4157.85
4157.92
4157.73
4158.5
4160.22
4222.36
4337.12
14976
8261.51
7571.55
7001.08
6537.21
6164.29
5865.94
5625.51
5430.57
5270.1
5137.21
5025.24
4930.76
4849.5
4779.92
4719
4666.25
4619.34
4578.4
4541.47
4509.06
4479.43
4453.36
4429.21
4407.94
4387.98
4370.41
4353.73
4339.08
4324.98
4312.65
4300.63
4290.18
4279.85
4270.93
4262
4254.34
4246.57
4239.97
4233.18
4227.44
4221.5
4216.51
4211.25
4206.91
4202.27
4198.46
4194.36
4190.99