/*--------------------------------*- C++ -*----------------------------------*\
| =========                 |                                                 |
| \\      /  F ield         | OpenFOAM: The Open Source CFD Toolbox           |
|  \\    /   O peration     | Version:  v2012                                 |
|   \\  /    A nd           | Website:  www.openfoam.com                      |
|    \\/     M anipulation  |                                                 |
\*---------------------------------------------------------------------------*/
FoamFile
{
    version     2.0;
    format      ascii;
    class       volScalarField;
    location    "39.5";
    object      yPlus;
}
// * * * * * * * * * * * * * * * * * * * * * * * * * * * * * * * * * * * * * //

dimensions      [0 0 0 0 0 0 0];


internalField   uniform 0;

boundaryField
{
    inlet
    {
        type            calculated;
        value           uniform 0;
    }
    outlet
    {
        type            calculated;
        value           uniform 0;
    }
    topWall
    {
        type            calculated;
        value           nonuniform List<scalar> 
545
(
0.111324
0.191956
0.246262
0.28948
0.326069
0.358086
0.386684
0.412593
0.436307
0.458181
0.478481
0.497415
0.515146
0.531807
0.547506
0.562338
0.576378
0.589695
0.602347
0.614385
0.625854
0.636793
0.647239
0.657224
0.666776
0.675922
0.684686
0.69309
0.701153
0.708895
0.716332
0.72348
0.730354
0.736967
0.743333
0.749462
0.755367
0.761057
0.766542
0.771831
0.776934
0.781857
0.78661
0.791198
0.795629
0.799909
0.804045
0.808042
0.811906
0.815642
0.819254
0.822749
0.82613
0.829402
0.832568
0.835633
0.838601
0.841474
0.844257
0.846952
0.849563
0.852093
0.854545
0.856921
0.859224
0.861456
0.863621
0.865719
0.867755
0.869728
0.871643
0.8735
0.875278
0.876999
0.878706
0.8804
0.88208
0.883747
0.885401
0.887042
0.88867
0.890285
0.891888
0.893479
0.895057
0.896623
0.898176
0.899718
0.901248
0.902766
0.904273
0.905768
0.907251
0.908724
0.910185
0.911635
0.912941
0.91411
0.915279
0.916448
0.917616
0.918784
0.919953
0.921121
0.922289
0.923456
0.924624
0.925791
0.926959
0.928126
0.929293
0.930459
0.931626
0.932792
0.933958
0.935124
0.936289
0.937455
0.93862
0.939785
0.940949
0.942114
0.943278
0.944442
0.945605
0.946768
0.947931
0.949094
0.950256
0.951418
0.95258
0.953741
0.954902
0.956063
0.957223
0.958383
0.959542
0.960702
0.96186
0.963019
0.964176
0.965334
0.966491
0.967648
0.968804
0.96996
0.971115
0.97227
0.973424
0.974578
0.975731
0.976884
0.978036
0.979188
0.980339
0.98149
0.98264
0.98379
0.984939
0.986087
0.987235
0.988383
0.989529
0.990675
0.991821
0.992966
0.99411
0.995253
0.996396
0.997539
0.99868
0.999821
1.00096
1.0021
1.00324
1.00438
1.00551
1.00665
1.00779
1.00892
1.01006
1.01119
1.01232
1.01345
1.01459
1.01572
1.01684
1.01797
1.0191
1.02023
1.02135
1.02248
1.0236
1.02473
1.02585
1.02697
1.02809
1.02921
1.03033
1.03144
1.03256
1.03368
1.03479
1.0359
1.03702
1.03813
1.03924
1.04035
1.04146
1.04256
1.04367
1.04477
1.04588
1.04698
1.04808
1.04918
1.05028
1.05138
1.05248
1.05357
1.05466
1.05576
1.05685
1.05794
1.05903
1.06012
1.0612
1.06229
1.06337
1.06446
1.06554
1.06662
1.0677
1.06877
1.06985
1.07092
1.072
1.07307
1.07414
1.07521
1.07627
1.07734
1.0784
1.07947
1.08053
1.08159
1.08264
1.0837
1.08475
1.08581
1.08686
1.08791
1.08896
1.09
1.09105
1.09209
1.09314
1.09418
1.09521
1.09625
1.09728
1.09832
1.09935
1.10038
1.10141
1.10243
1.10346
1.10448
1.1055
1.10646
1.10737
1.10828
1.1092
1.11013
1.11106
1.112
1.11295
1.1139
1.11486
1.11582
1.11679
1.11777
1.11876
1.11975
1.12074
1.12175
1.12276
1.12377
1.12479
1.12582
1.12686
1.1279
1.12894
1.13
1.13105
1.13212
1.13319
1.13427
1.13535
1.13644
1.13753
1.13863
1.13974
1.14085
1.14197
1.14309
1.14422
1.14535
1.14649
1.14764
1.14879
1.14994
1.1511
1.15226
1.15343
1.15461
1.15579
1.15697
1.15816
1.15935
1.16055
1.16175
1.16296
1.16417
1.16538
1.1666
1.16782
1.16905
1.17027
1.17151
1.17274
1.17398
1.17522
1.17646
1.17771
1.17896
1.18021
1.18146
1.18271
1.18397
1.18523
1.18649
1.18775
1.18901
1.19027
1.19154
1.1928
1.19406
1.19533
1.19659
1.19785
1.19912
1.20038
1.20164
1.2029
1.20416
1.20541
1.20667
1.20792
1.20917
1.21041
1.21166
1.2129
1.21413
1.21537
1.2166
1.21782
1.21904
1.22025
1.22146
1.22266
1.22386
1.22505
1.22624
1.22741
1.22859
1.22975
1.2309
1.23205
1.23319
1.23432
1.23544
1.23655
1.23765
1.23874
1.23982
1.24089
1.24195
1.243
1.24403
1.24505
1.24606
1.24706
1.24805
1.24902
1.24997
1.25091
1.25184
1.25275
1.25365
1.25453
1.25539
1.25624
1.25707
1.25789
1.25868
1.25946
1.26022
1.26096
1.26169
1.26239
1.26307
1.26374
1.26438
1.265
1.26561
1.26619
1.26675
1.26729
1.26781
1.2683
1.26877
1.26922
1.26965
1.27005
1.27043
1.27079
1.27112
1.27143
1.27172
1.27198
1.27221
1.27242
1.27261
1.27277
1.27291
1.27302
1.27311
1.27317
1.2732
1.27321
1.2732
1.27316
1.27309
1.273
1.27288
1.27274
1.27258
1.27238
1.27217
1.27189
1.27156
1.2712
1.27081
1.27039
1.26994
1.26947
1.26897
1.26845
1.26791
1.26735
1.26677
1.26617
1.26556
1.26492
1.26428
1.26362
1.26295
1.26227
1.26158
1.26087
1.26016
1.25944
1.25872
1.25799
1.25725
1.25651
1.25576
1.25501
1.25426
1.25351
1.25275
1.252
1.25124
1.25049
1.24974
1.24898
1.24824
1.24749
1.24675
1.24601
1.24528
1.24455
1.24383
1.24312
1.24241
1.24171
1.24101
1.24033
1.23965
1.23898
1.23832
1.23767
1.23703
1.2364
1.23578
1.23518
1.23458
1.23399
1.23342
1.23286
1.23231
1.23178
1.23126
1.23075
1.23025
1.22977
1.22931
1.22886
1.22842
1.228
1.22759
1.2272
1.22683
1.22647
1.22613
1.2258
1.22549
1.2252
1.22492
1.22466
1.22442
1.2242
1.22399
1.2238
1.22363
1.22347
1.22334
1.22322
1.22312
1.22303
1.22297
1.22292
1.2229
1.22288
)
;
    }
    bottomWall
    {
        type            calculated;
        value           nonuniform List<scalar> 
449
(
0.139404
0.0889394
0.0758052
0.069456
0.0653088
0.0622501
0.0598913
0.058129
0.0570715
0.0571077
0.0594579
0.0635223
0.0666603
0.0685049
0.0694997
0.0700307
0.0702825
0.0703534
0.0702922
0.0701594
0.0699752
0.0697605
0.06953
0.0692929
0.0690545
0.0688182
0.0685855
0.0683581
0.0681367
0.0679217
0.0677132
0.0675112
0.0673155
0.0671259
0.0669423
0.0667641
0.0665912
0.0664235
0.0662607
0.0661026
0.065949
0.0657997
0.0656545
0.0655131
0.0653754
0.0652412
0.0651104
0.0649827
0.0648582
0.0647363
0.0646167
0.0644993
0.0643839
0.0642706
0.0641592
0.0640499
0.0639425
0.0638371
0.0637335
0.0636318
0.0635319
0.0634337
0.0633371
0.0632422
0.0631489
0.0630571
0.0629669
0.062878
0.0627906
0.0627045
0.0626196
0.062536
0.0624537
0.0623726
0.0622926
0.0622138
0.0621361
0.0620595
0.061984
0.0619095
0.0618361
0.0617636
0.0616921
0.0616215
0.0615519
0.0614832
0.0614153
0.0613483
0.0612821
0.0612167
0.061152
0.0610882
0.0610251
0.0609627
0.0609011
0.0608402
0.0607799
0.0607204
0.0606615
0.0606032
0.0605456
0.0604885
0.060432
0.0603761
0.0603207
0.060266
0.0602117
0.0601581
0.0601049
0.0600523
0.0600002
0.0599486
0.0598975
0.0598468
0.0597967
0.059747
0.0596977
0.0596489
0.0596006
0.0595527
0.0595051
0.0594581
0.0594114
0.0593651
0.0593192
0.0592737
0.0592286
0.0591839
0.0591395
0.0590955
0.0590518
0.0590085
0.0589655
0.0589228
0.0588805
0.0588385
0.0587969
0.0587555
0.0587145
0.0586737
0.0586333
0.0585932
0.0585533
0.0585138
0.0584745
0.0584355
0.0583967
0.0583582
0.05832
0.058282
0.0582442
0.0582067
0.0581695
0.0581325
0.0580957
0.0580592
0.0580229
0.0579869
0.0579511
0.0579155
0.0578801
0.057845
0.0578101
0.0577754
0.0577409
0.0577066
0.0576725
0.0576386
0.0576049
0.0575714
0.0575381
0.057505
0.0574721
0.0574413
0.0574122
0.057383
0.0573538
0.0573244
0.057295
0.0572654
0.0572357
0.0572059
0.0571761
0.0571461
0.057116
0.0570858
0.0570556
0.0570252
0.0569947
0.0569641
0.0569334
0.0569027
0.0568718
0.0568408
0.0568098
0.0567786
0.0567474
0.0567161
0.0566846
0.0566531
0.0566215
0.0565898
0.056558
0.0565261
0.0564942
0.0564621
0.05643
0.0563977
0.0563654
0.056333
0.0563005
0.0562679
0.0562352
0.0562025
0.0561696
0.0561366
0.0561036
0.0560705
0.0560373
0.056004
0.0559707
0.0559373
0.0559038
0.0558702
0.0558366
0.0558028
0.0557691
0.0557352
0.0557013
0.0556673
0.0556332
0.0555991
0.0555648
0.0555306
0.0554962
0.0554618
0.0554273
0.0553928
0.0553582
0.0553236
0.0552888
0.0552541
0.0552192
0.0551843
0.0551494
0.0551144
0.0550793
0.0550442
0.055009
0.0549738
0.0549386
0.0549032
0.0548679
0.0548324
0.054797
0.0547615
0.0547259
0.0546903
0.0546547
0.054619
0.0545833
0.0545475
0.0545117
0.0544758
0.05444
0.0544041
0.0543681
0.0543321
0.0542961
0.0542601
0.054224
0.0541879
0.0541517
0.0541155
0.0540793
0.054043
0.0540067
0.0539704
0.0539341
0.0538978
0.0538614
0.053825
0.0537886
0.0537522
0.0537158
0.0536793
0.0536429
0.0536064
0.05357
0.0535335
0.053497
0.0534605
0.0534241
0.0533876
0.0533511
0.0533146
0.0532781
0.0532416
0.0532052
0.0531687
0.0531322
0.0530958
0.0530593
0.0530229
0.0529865
0.05295
0.0529136
0.0528772
0.0528409
0.0528045
0.0527682
0.0527319
0.0526956
0.0526593
0.052623
0.0525868
0.0525506
0.0525144
0.0524783
0.0524421
0.052406
0.05237
0.0523339
0.0522979
0.0522619
0.052226
0.0521901
0.0521542
0.0521183
0.0520825
0.0520467
0.0520109
0.0519751
0.0519394
0.0519038
0.0518681
0.0518325
0.051797
0.0517615
0.051726
0.0516906
0.0516552
0.0516199
0.0515846
0.0515494
0.0515142
0.0514791
0.051444
0.051409
0.051374
0.0513391
0.0513042
0.0512695
0.0512347
0.0511961
0.0511541
0.0511127
0.0510719
0.0510318
0.0509921
0.0509531
0.0509146
0.0508766
0.0508391
0.0508022
0.0507658
0.0507299
0.0506944
0.0506594
0.0506248
0.0505908
0.0505571
0.0505238
0.050491
0.0504586
0.0504266
0.0503949
0.0503637
0.0503328
0.0503023
0.0502722
0.0502423
0.0502129
0.0501838
0.050155
0.0501265
0.0500984
0.0500705
0.050043
0.0500157
0.0499888
0.0499621
0.0499357
0.0499096
0.0498837
0.0498581
0.0498328
0.0498077
0.0497829
0.0497583
0.049734
0.0497099
0.049686
0.0496623
0.049639
0.0496157
0.0495928
0.04957
0.0495475
0.0495251
0.0495031
0.0494811
0.0494594
0.0494378
0.0494165
0.0493952
0.0493743
0.0493534
0.0493329
0.0493124
0.0492922
0.0492719
0.0492521
0.0492322
0.0492127
0.0491931
0.0491739
0.0491545
0.0491357
0.0491166
0.0490981
0.0490793
0.0490611
0.0490425
0.0490245
0.0490062
0.0489885
0.0489704
0.048953
0.0489351
0.0489178
0.0489003
0.0488825
0.0488665
0.0488461
0.0488356
0.0488054
0.0488117
0.0487707
)
;
    }
    symmetry
    {
        type            symmetryPlane;
    }
    frontAndBack
    {
        type            empty;
    }
}


// ************************************************************************* //
