/*--------------------------------*- C++ -*----------------------------------*\
| =========                 |                                                 |
| \\      /  F ield         | OpenFOAM: The Open Source CFD Toolbox           |
|  \\    /   O peration     | Version:  v2012                                 |
|   \\  /    A nd           | Website:  www.openfoam.com                      |
|    \\/     M anipulation  |                                                 |
\*---------------------------------------------------------------------------*/
FoamFile
{
    version     2.0;
    format      ascii;
    class       volScalarField;
    location    "50.5";
    object      nut;
}
// * * * * * * * * * * * * * * * * * * * * * * * * * * * * * * * * * * * * * //

dimensions      [0 2 -1 0 0 0 0];


internalField   nonuniform List<scalar> 
209825
(
1.23948e-07
1.23145e-07
1.22309e-07
1.21222e-07
1.19929e-07
1.18525e-07
1.1715e-07
1.15845e-07
1.14671e-07
1.13605e-07
1.12672e-07
1.11832e-07
1.11103e-07
1.10444e-07
1.09873e-07
1.09352e-07
1.089e-07
1.08484e-07
1.08123e-07
1.07787e-07
1.07495e-07
1.07221e-07
1.06982e-07
1.06756e-07
1.06558e-07
1.0637e-07
1.06205e-07
1.06047e-07
1.05908e-07
1.05774e-07
1.05656e-07
1.05542e-07
1.0544e-07
1.05342e-07
1.05255e-07
1.05171e-07
1.05094e-07
1.05021e-07
1.04954e-07
1.04891e-07
1.04831e-07
1.04775e-07
1.04723e-07
1.04675e-07
1.04628e-07
1.04585e-07
1.04543e-07
1.04506e-07
1.04468e-07
1.04436e-07
1.044e-07
1.04371e-07
1.04336e-07
1.04313e-07
1.04281e-07
1.0426e-07
1.04232e-07
1.04213e-07
1.04188e-07
1.04171e-07
1.04147e-07
1.04129e-07
1.04109e-07
1.04092e-07
1.04071e-07
1.04057e-07
1.04039e-07
1.04025e-07
1.04007e-07
1.03993e-07
1.03976e-07
1.03963e-07
1.03949e-07
1.03939e-07
1.03927e-07
1.03919e-07
1.03907e-07
1.03898e-07
1.03887e-07
1.03878e-07
1.03867e-07
1.03859e-07
1.03848e-07
1.0384e-07
1.0383e-07
1.0382e-07
1.03806e-07
1.03792e-07
1.03783e-07
1.03767e-07
1.03748e-07
1.03736e-07
1.03754e-07
1.04745e-07
1.07395e-07
1.02514e-08
1.23948e-07
1.23145e-07
1.22309e-07
1.21222e-07
1.19929e-07
1.18525e-07
1.1715e-07
1.15845e-07
1.14671e-07
1.13605e-07
1.12672e-07
1.11832e-07
1.11104e-07
1.10444e-07
1.09874e-07
1.09352e-07
1.08901e-07
1.08485e-07
1.08124e-07
1.07788e-07
1.07496e-07
1.07221e-07
1.06983e-07
1.06756e-07
1.06559e-07
1.0637e-07
1.06205e-07
1.06047e-07
1.05909e-07
1.05774e-07
1.05656e-07
1.05542e-07
1.05441e-07
1.05343e-07
1.05255e-07
1.05171e-07
1.05095e-07
1.05021e-07
1.04955e-07
1.04891e-07
1.04832e-07
1.04776e-07
1.04724e-07
1.04675e-07
1.04628e-07
1.04585e-07
1.04544e-07
1.04507e-07
1.04468e-07
1.04436e-07
1.04401e-07
1.04371e-07
1.04336e-07
1.04313e-07
1.04281e-07
1.04261e-07
1.04232e-07
1.04214e-07
1.04188e-07
1.04171e-07
1.04147e-07
1.0413e-07
1.04109e-07
1.04092e-07
1.04071e-07
1.04057e-07
1.0404e-07
1.04026e-07
1.04008e-07
1.03993e-07
1.03976e-07
1.03963e-07
1.03949e-07
1.03939e-07
1.03927e-07
1.03919e-07
1.03907e-07
1.03899e-07
1.03887e-07
1.03879e-07
1.03867e-07
1.03859e-07
1.03849e-07
1.03841e-07
1.0383e-07
1.0382e-07
1.03806e-07
1.03792e-07
1.03783e-07
1.03767e-07
1.03749e-07
1.03737e-07
1.03755e-07
1.04747e-07
1.07396e-07
1.05652e-08
1.23948e-07
1.23144e-07
1.22309e-07
1.21223e-07
1.1993e-07
1.18526e-07
1.17151e-07
1.15847e-07
1.14673e-07
1.13606e-07
1.12674e-07
1.11834e-07
1.11105e-07
1.10445e-07
1.09874e-07
1.09353e-07
1.08902e-07
1.08485e-07
1.08124e-07
1.07788e-07
1.07496e-07
1.07222e-07
1.06983e-07
1.06757e-07
1.06559e-07
1.06371e-07
1.06206e-07
1.06047e-07
1.05909e-07
1.05774e-07
1.05656e-07
1.05542e-07
1.05441e-07
1.05343e-07
1.05255e-07
1.05171e-07
1.05095e-07
1.05021e-07
1.04954e-07
1.04891e-07
1.04831e-07
1.04776e-07
1.04723e-07
1.04675e-07
1.04628e-07
1.04585e-07
1.04543e-07
1.04506e-07
1.04468e-07
1.04436e-07
1.044e-07
1.04371e-07
1.04336e-07
1.04313e-07
1.04281e-07
1.0426e-07
1.04231e-07
1.04213e-07
1.04188e-07
1.04171e-07
1.04147e-07
1.04129e-07
1.04108e-07
1.04092e-07
1.04071e-07
1.04057e-07
1.04039e-07
1.04025e-07
1.04007e-07
1.03992e-07
1.03975e-07
1.03963e-07
1.03948e-07
1.03938e-07
1.03926e-07
1.03918e-07
1.03907e-07
1.03898e-07
1.03886e-07
1.03878e-07
1.03867e-07
1.03858e-07
1.03848e-07
1.0384e-07
1.03829e-07
1.03819e-07
1.03805e-07
1.03791e-07
1.03782e-07
1.03766e-07
1.03748e-07
1.03736e-07
1.03754e-07
1.0475e-07
1.07397e-07
1.0955e-08
1.23948e-07
1.23144e-07
1.2231e-07
1.21223e-07
1.19931e-07
1.18528e-07
1.17154e-07
1.15849e-07
1.14675e-07
1.13609e-07
1.12676e-07
1.11836e-07
1.11107e-07
1.10447e-07
1.09876e-07
1.09355e-07
1.08903e-07
1.08487e-07
1.08126e-07
1.07789e-07
1.07497e-07
1.07222e-07
1.06983e-07
1.06757e-07
1.0656e-07
1.06371e-07
1.06206e-07
1.06048e-07
1.05909e-07
1.05774e-07
1.05656e-07
1.05542e-07
1.05441e-07
1.05343e-07
1.05255e-07
1.05171e-07
1.05094e-07
1.05021e-07
1.04954e-07
1.0489e-07
1.04831e-07
1.04775e-07
1.04723e-07
1.04674e-07
1.04627e-07
1.04584e-07
1.04543e-07
1.04506e-07
1.04467e-07
1.04435e-07
1.04399e-07
1.0437e-07
1.04335e-07
1.04312e-07
1.0428e-07
1.0426e-07
1.04231e-07
1.04212e-07
1.04187e-07
1.0417e-07
1.04146e-07
1.04128e-07
1.04108e-07
1.04091e-07
1.0407e-07
1.04056e-07
1.04038e-07
1.04024e-07
1.04006e-07
1.03992e-07
1.03974e-07
1.03962e-07
1.03948e-07
1.03938e-07
1.03926e-07
1.03917e-07
1.03906e-07
1.03897e-07
1.03886e-07
1.03877e-07
1.03866e-07
1.03857e-07
1.03847e-07
1.03839e-07
1.03828e-07
1.03818e-07
1.03804e-07
1.0379e-07
1.03781e-07
1.03766e-07
1.03747e-07
1.03735e-07
1.03753e-07
1.04756e-07
1.07398e-07
1.13889e-08
1.23948e-07
1.23144e-07
1.2231e-07
1.21224e-07
1.19933e-07
1.1853e-07
1.17157e-07
1.15852e-07
1.14678e-07
1.13612e-07
1.12679e-07
1.11839e-07
1.1111e-07
1.1045e-07
1.09879e-07
1.09357e-07
1.08905e-07
1.08489e-07
1.08127e-07
1.07791e-07
1.07499e-07
1.07224e-07
1.06985e-07
1.06758e-07
1.06561e-07
1.06372e-07
1.06207e-07
1.06048e-07
1.05909e-07
1.05775e-07
1.05657e-07
1.05542e-07
1.05441e-07
1.05343e-07
1.05255e-07
1.05171e-07
1.05094e-07
1.05021e-07
1.04954e-07
1.0489e-07
1.04831e-07
1.04775e-07
1.04723e-07
1.04674e-07
1.04627e-07
1.04584e-07
1.04542e-07
1.04505e-07
1.04467e-07
1.04435e-07
1.04399e-07
1.0437e-07
1.04334e-07
1.04312e-07
1.04279e-07
1.04259e-07
1.0423e-07
1.04212e-07
1.04186e-07
1.04169e-07
1.04145e-07
1.04128e-07
1.04107e-07
1.0409e-07
1.04069e-07
1.04055e-07
1.04037e-07
1.04024e-07
1.04005e-07
1.03991e-07
1.03974e-07
1.03961e-07
1.03947e-07
1.03937e-07
1.03925e-07
1.03916e-07
1.03905e-07
1.03896e-07
1.03885e-07
1.03876e-07
1.03865e-07
1.03856e-07
1.03846e-07
1.03838e-07
1.03827e-07
1.03817e-07
1.03803e-07
1.03789e-07
1.03781e-07
1.03765e-07
1.03746e-07
1.03734e-07
1.03752e-07
1.04763e-07
1.07399e-07
1.18597e-08
1.23947e-07
1.23144e-07
1.2231e-07
1.21225e-07
1.19935e-07
1.18534e-07
1.17161e-07
1.15857e-07
1.14683e-07
1.13617e-07
1.12684e-07
1.11843e-07
1.11114e-07
1.10454e-07
1.09882e-07
1.0936e-07
1.08908e-07
1.08491e-07
1.0813e-07
1.07793e-07
1.07501e-07
1.07226e-07
1.06987e-07
1.0676e-07
1.06562e-07
1.06373e-07
1.06208e-07
1.06049e-07
1.0591e-07
1.05776e-07
1.05657e-07
1.05543e-07
1.05441e-07
1.05343e-07
1.05256e-07
1.05171e-07
1.05095e-07
1.05021e-07
1.04954e-07
1.0489e-07
1.04831e-07
1.04775e-07
1.04723e-07
1.04674e-07
1.04627e-07
1.04584e-07
1.04542e-07
1.04505e-07
1.04466e-07
1.04434e-07
1.04398e-07
1.04369e-07
1.04334e-07
1.04311e-07
1.04279e-07
1.04258e-07
1.04229e-07
1.04211e-07
1.04186e-07
1.04169e-07
1.04144e-07
1.04127e-07
1.04106e-07
1.04089e-07
1.04068e-07
1.04054e-07
1.04036e-07
1.04023e-07
1.04004e-07
1.0399e-07
1.03973e-07
1.0396e-07
1.03946e-07
1.03936e-07
1.03924e-07
1.03915e-07
1.03904e-07
1.03895e-07
1.03884e-07
1.03875e-07
1.03864e-07
1.03855e-07
1.03845e-07
1.03837e-07
1.03826e-07
1.03816e-07
1.03802e-07
1.03788e-07
1.03779e-07
1.03764e-07
1.03745e-07
1.03733e-07
1.03751e-07
1.04773e-07
1.07402e-07
1.23662e-08
1.23947e-07
1.23144e-07
1.2231e-07
1.21227e-07
1.19938e-07
1.18538e-07
1.17165e-07
1.15862e-07
1.14688e-07
1.13622e-07
1.12689e-07
1.11848e-07
1.11119e-07
1.10458e-07
1.09887e-07
1.09364e-07
1.08912e-07
1.08495e-07
1.08133e-07
1.07796e-07
1.07504e-07
1.07228e-07
1.06989e-07
1.06762e-07
1.06564e-07
1.06375e-07
1.06209e-07
1.06051e-07
1.05912e-07
1.05777e-07
1.05659e-07
1.05544e-07
1.05442e-07
1.05344e-07
1.05256e-07
1.05171e-07
1.05095e-07
1.05021e-07
1.04954e-07
1.0489e-07
1.04831e-07
1.04775e-07
1.04723e-07
1.04674e-07
1.04627e-07
1.04584e-07
1.04542e-07
1.04505e-07
1.04466e-07
1.04434e-07
1.04398e-07
1.04369e-07
1.04333e-07
1.0431e-07
1.04278e-07
1.04258e-07
1.04229e-07
1.0421e-07
1.04185e-07
1.04168e-07
1.04144e-07
1.04126e-07
1.04105e-07
1.04089e-07
1.04068e-07
1.04053e-07
1.04036e-07
1.04022e-07
1.04003e-07
1.03989e-07
1.03972e-07
1.03959e-07
1.03945e-07
1.03935e-07
1.03923e-07
1.03914e-07
1.03903e-07
1.03894e-07
1.03883e-07
1.03874e-07
1.03863e-07
1.03854e-07
1.03844e-07
1.03836e-07
1.03825e-07
1.03815e-07
1.03801e-07
1.03787e-07
1.03778e-07
1.03763e-07
1.03744e-07
1.03732e-07
1.0375e-07
1.04786e-07
1.07404e-07
1.29088e-08
1.23947e-07
1.23143e-07
1.2231e-07
1.21228e-07
1.19941e-07
1.18543e-07
1.17171e-07
1.15869e-07
1.14695e-07
1.13629e-07
1.12696e-07
1.11855e-07
1.11125e-07
1.10464e-07
1.09892e-07
1.09369e-07
1.08917e-07
1.08499e-07
1.08137e-07
1.078e-07
1.07507e-07
1.07231e-07
1.06992e-07
1.06765e-07
1.06567e-07
1.06377e-07
1.06212e-07
1.06053e-07
1.05913e-07
1.05778e-07
1.0566e-07
1.05545e-07
1.05443e-07
1.05345e-07
1.05257e-07
1.05172e-07
1.05096e-07
1.05022e-07
1.04955e-07
1.04891e-07
1.04831e-07
1.04775e-07
1.04723e-07
1.04674e-07
1.04627e-07
1.04584e-07
1.04541e-07
1.04505e-07
1.04466e-07
1.04433e-07
1.04398e-07
1.04368e-07
1.04333e-07
1.0431e-07
1.04278e-07
1.04257e-07
1.04228e-07
1.0421e-07
1.04184e-07
1.04167e-07
1.04143e-07
1.04125e-07
1.04105e-07
1.04088e-07
1.04067e-07
1.04052e-07
1.04035e-07
1.04021e-07
1.04003e-07
1.03988e-07
1.03971e-07
1.03958e-07
1.03944e-07
1.03934e-07
1.03922e-07
1.03913e-07
1.03902e-07
1.03893e-07
1.03881e-07
1.03873e-07
1.03861e-07
1.03853e-07
1.03843e-07
1.03834e-07
1.03824e-07
1.03814e-07
1.038e-07
1.03786e-07
1.03777e-07
1.03761e-07
1.03742e-07
1.03731e-07
1.0375e-07
1.04801e-07
1.07408e-07
1.3488e-08
1.23947e-07
1.23143e-07
1.22311e-07
1.2123e-07
1.19945e-07
1.18548e-07
1.17178e-07
1.15876e-07
1.14703e-07
1.13637e-07
1.12703e-07
1.11862e-07
1.11132e-07
1.10471e-07
1.09898e-07
1.09375e-07
1.08922e-07
1.08505e-07
1.08142e-07
1.07804e-07
1.07511e-07
1.07235e-07
1.06995e-07
1.06768e-07
1.0657e-07
1.0638e-07
1.06214e-07
1.06055e-07
1.05916e-07
1.0578e-07
1.05662e-07
1.05547e-07
1.05445e-07
1.05346e-07
1.05258e-07
1.05173e-07
1.05097e-07
1.05023e-07
1.04955e-07
1.04891e-07
1.04832e-07
1.04776e-07
1.04723e-07
1.04674e-07
1.04627e-07
1.04584e-07
1.04541e-07
1.04505e-07
1.04466e-07
1.04433e-07
1.04397e-07
1.04368e-07
1.04333e-07
1.0431e-07
1.04277e-07
1.04257e-07
1.04228e-07
1.04209e-07
1.04184e-07
1.04167e-07
1.04142e-07
1.04125e-07
1.04104e-07
1.04087e-07
1.04066e-07
1.04052e-07
1.04034e-07
1.0402e-07
1.04002e-07
1.03987e-07
1.0397e-07
1.03957e-07
1.03943e-07
1.03933e-07
1.03921e-07
1.03912e-07
1.03901e-07
1.03892e-07
1.0388e-07
1.03871e-07
1.0386e-07
1.03852e-07
1.03841e-07
1.03833e-07
1.03823e-07
1.03813e-07
1.03799e-07
1.03785e-07
1.03776e-07
1.0376e-07
1.03741e-07
1.0373e-07
1.03749e-07
1.0482e-07
1.07411e-07
1.41044e-08
1.23947e-07
1.23142e-07
1.22311e-07
1.21233e-07
1.1995e-07
1.18555e-07
1.17186e-07
1.15885e-07
1.14712e-07
1.13646e-07
1.12712e-07
1.11871e-07
1.1114e-07
1.10479e-07
1.09906e-07
1.09382e-07
1.08929e-07
1.08511e-07
1.08148e-07
1.0781e-07
1.07516e-07
1.0724e-07
1.06999e-07
1.06772e-07
1.06573e-07
1.06383e-07
1.06217e-07
1.06058e-07
1.05918e-07
1.05783e-07
1.05664e-07
1.05549e-07
1.05447e-07
1.05348e-07
1.0526e-07
1.05175e-07
1.05098e-07
1.05024e-07
1.04956e-07
1.04892e-07
1.04832e-07
1.04776e-07
1.04724e-07
1.04674e-07
1.04627e-07
1.04584e-07
1.04542e-07
1.04505e-07
1.04466e-07
1.04433e-07
1.04397e-07
1.04368e-07
1.04332e-07
1.04309e-07
1.04277e-07
1.04256e-07
1.04227e-07
1.04209e-07
1.04183e-07
1.04166e-07
1.04142e-07
1.04124e-07
1.04103e-07
1.04086e-07
1.04065e-07
1.04051e-07
1.04033e-07
1.04019e-07
1.04001e-07
1.03986e-07
1.03969e-07
1.03956e-07
1.03942e-07
1.03932e-07
1.03919e-07
1.03911e-07
1.03899e-07
1.03891e-07
1.03879e-07
1.0387e-07
1.03859e-07
1.0385e-07
1.0384e-07
1.03832e-07
1.03821e-07
1.03811e-07
1.03798e-07
1.03784e-07
1.03775e-07
1.03759e-07
1.0374e-07
1.03728e-07
1.03748e-07
1.04841e-07
1.07416e-07
1.47581e-08
1.23947e-07
1.23142e-07
1.22311e-07
1.21235e-07
1.19955e-07
1.18562e-07
1.17195e-07
1.15895e-07
1.14722e-07
1.13656e-07
1.12722e-07
1.1188e-07
1.11149e-07
1.10488e-07
1.09914e-07
1.0939e-07
1.08936e-07
1.08517e-07
1.08154e-07
1.07816e-07
1.07522e-07
1.07245e-07
1.07004e-07
1.06776e-07
1.06577e-07
1.06387e-07
1.06221e-07
1.06061e-07
1.05921e-07
1.05785e-07
1.05666e-07
1.05551e-07
1.05449e-07
1.0535e-07
1.05261e-07
1.05176e-07
1.05099e-07
1.05025e-07
1.04957e-07
1.04893e-07
1.04833e-07
1.04777e-07
1.04724e-07
1.04675e-07
1.04627e-07
1.04584e-07
1.04542e-07
1.04505e-07
1.04466e-07
1.04433e-07
1.04397e-07
1.04368e-07
1.04332e-07
1.04309e-07
1.04277e-07
1.04256e-07
1.04227e-07
1.04208e-07
1.04183e-07
1.04165e-07
1.04141e-07
1.04123e-07
1.04102e-07
1.04086e-07
1.04064e-07
1.0405e-07
1.04032e-07
1.04018e-07
1.04e-07
1.03985e-07
1.03968e-07
1.03955e-07
1.03941e-07
1.0393e-07
1.03918e-07
1.0391e-07
1.03898e-07
1.03889e-07
1.03878e-07
1.03869e-07
1.03858e-07
1.03849e-07
1.03839e-07
1.0383e-07
1.0382e-07
1.0381e-07
1.03796e-07
1.03783e-07
1.03773e-07
1.03758e-07
1.03738e-07
1.03727e-07
1.03747e-07
1.04866e-07
1.0742e-07
1.54481e-08
1.23947e-07
1.23141e-07
1.22312e-07
1.21238e-07
1.19961e-07
1.18571e-07
1.17205e-07
1.15906e-07
1.14734e-07
1.13668e-07
1.12734e-07
1.11891e-07
1.1116e-07
1.10497e-07
1.09923e-07
1.09399e-07
1.08945e-07
1.08525e-07
1.08161e-07
1.07822e-07
1.07528e-07
1.07251e-07
1.0701e-07
1.06781e-07
1.06582e-07
1.06391e-07
1.06225e-07
1.06065e-07
1.05924e-07
1.05789e-07
1.05669e-07
1.05554e-07
1.05451e-07
1.05352e-07
1.05264e-07
1.05178e-07
1.05101e-07
1.05026e-07
1.04959e-07
1.04894e-07
1.04834e-07
1.04778e-07
1.04725e-07
1.04676e-07
1.04628e-07
1.04585e-07
1.04542e-07
1.04505e-07
1.04466e-07
1.04433e-07
1.04397e-07
1.04368e-07
1.04332e-07
1.04309e-07
1.04276e-07
1.04255e-07
1.04226e-07
1.04208e-07
1.04182e-07
1.04165e-07
1.0414e-07
1.04123e-07
1.04102e-07
1.04085e-07
1.04064e-07
1.04049e-07
1.04031e-07
1.04017e-07
1.03999e-07
1.03984e-07
1.03967e-07
1.03954e-07
1.0394e-07
1.03929e-07
1.03917e-07
1.03909e-07
1.03897e-07
1.03888e-07
1.03876e-07
1.03868e-07
1.03856e-07
1.03848e-07
1.03837e-07
1.03829e-07
1.03818e-07
1.03809e-07
1.03795e-07
1.03781e-07
1.03772e-07
1.03757e-07
1.03737e-07
1.03725e-07
1.03746e-07
1.04895e-07
1.07425e-07
1.61742e-08
1.23947e-07
1.2314e-07
1.22312e-07
1.21241e-07
1.19967e-07
1.1858e-07
1.17216e-07
1.15918e-07
1.14747e-07
1.13681e-07
1.12747e-07
1.11904e-07
1.11172e-07
1.10509e-07
1.09934e-07
1.09409e-07
1.08954e-07
1.08534e-07
1.0817e-07
1.0783e-07
1.07535e-07
1.07257e-07
1.07016e-07
1.06787e-07
1.06587e-07
1.06396e-07
1.06229e-07
1.06069e-07
1.05928e-07
1.05792e-07
1.05673e-07
1.05557e-07
1.05454e-07
1.05354e-07
1.05266e-07
1.0518e-07
1.05103e-07
1.05028e-07
1.0496e-07
1.04896e-07
1.04836e-07
1.04779e-07
1.04726e-07
1.04676e-07
1.04629e-07
1.04585e-07
1.04543e-07
1.04505e-07
1.04466e-07
1.04433e-07
1.04397e-07
1.04368e-07
1.04332e-07
1.04309e-07
1.04276e-07
1.04255e-07
1.04226e-07
1.04207e-07
1.04182e-07
1.04164e-07
1.0414e-07
1.04122e-07
1.04101e-07
1.04084e-07
1.04063e-07
1.04048e-07
1.0403e-07
1.04016e-07
1.03998e-07
1.03983e-07
1.03966e-07
1.03953e-07
1.03938e-07
1.03928e-07
1.03916e-07
1.03907e-07
1.03896e-07
1.03887e-07
1.03875e-07
1.03866e-07
1.03855e-07
1.03846e-07
1.03836e-07
1.03827e-07
1.03817e-07
1.03807e-07
1.03794e-07
1.0378e-07
1.0377e-07
1.03755e-07
1.03735e-07
1.03724e-07
1.03745e-07
1.04927e-07
1.0743e-07
1.69383e-08
1.23947e-07
1.23139e-07
1.22312e-07
1.21245e-07
1.19974e-07
1.1859e-07
1.17228e-07
1.15931e-07
1.14761e-07
1.13695e-07
1.1276e-07
1.11917e-07
1.11185e-07
1.10521e-07
1.09946e-07
1.0942e-07
1.08964e-07
1.08543e-07
1.08179e-07
1.07838e-07
1.07543e-07
1.07265e-07
1.07023e-07
1.06793e-07
1.06593e-07
1.06402e-07
1.06234e-07
1.06074e-07
1.05933e-07
1.05796e-07
1.05676e-07
1.0556e-07
1.05457e-07
1.05357e-07
1.05269e-07
1.05183e-07
1.05105e-07
1.0503e-07
1.04962e-07
1.04898e-07
1.04837e-07
1.0478e-07
1.04727e-07
1.04677e-07
1.0463e-07
1.04586e-07
1.04543e-07
1.04506e-07
1.04467e-07
1.04434e-07
1.04398e-07
1.04368e-07
1.04332e-07
1.04309e-07
1.04276e-07
1.04255e-07
1.04226e-07
1.04207e-07
1.04181e-07
1.04164e-07
1.04139e-07
1.04121e-07
1.041e-07
1.04083e-07
1.04062e-07
1.04047e-07
1.04029e-07
1.04015e-07
1.03997e-07
1.03982e-07
1.03965e-07
1.03952e-07
1.03937e-07
1.03927e-07
1.03915e-07
1.03906e-07
1.03894e-07
1.03885e-07
1.03874e-07
1.03865e-07
1.03853e-07
1.03845e-07
1.03834e-07
1.03826e-07
1.03815e-07
1.03806e-07
1.03792e-07
1.03779e-07
1.03769e-07
1.03754e-07
1.03733e-07
1.03723e-07
1.03744e-07
1.04963e-07
1.07434e-07
1.77429e-08
1.23946e-07
1.23138e-07
1.22313e-07
1.21248e-07
1.19982e-07
1.186e-07
1.17242e-07
1.15946e-07
1.14776e-07
1.1371e-07
1.12776e-07
1.11932e-07
1.11199e-07
1.10534e-07
1.09958e-07
1.09432e-07
1.08975e-07
1.08554e-07
1.08189e-07
1.07848e-07
1.07552e-07
1.07273e-07
1.0703e-07
1.068e-07
1.066e-07
1.06408e-07
1.0624e-07
1.06079e-07
1.05938e-07
1.05801e-07
1.05681e-07
1.05564e-07
1.05461e-07
1.05361e-07
1.05272e-07
1.05185e-07
1.05108e-07
1.05033e-07
1.04965e-07
1.04899e-07
1.04839e-07
1.04782e-07
1.04729e-07
1.04679e-07
1.04631e-07
1.04587e-07
1.04544e-07
1.04507e-07
1.04467e-07
1.04434e-07
1.04398e-07
1.04368e-07
1.04332e-07
1.04309e-07
1.04276e-07
1.04255e-07
1.04225e-07
1.04207e-07
1.04181e-07
1.04163e-07
1.04139e-07
1.04121e-07
1.041e-07
1.04083e-07
1.04061e-07
1.04047e-07
1.04028e-07
1.04015e-07
1.03996e-07
1.03981e-07
1.03964e-07
1.03951e-07
1.03936e-07
1.03926e-07
1.03913e-07
1.03905e-07
1.03893e-07
1.03884e-07
1.03872e-07
1.03863e-07
1.03852e-07
1.03843e-07
1.03832e-07
1.03824e-07
1.03813e-07
1.03804e-07
1.03791e-07
1.03777e-07
1.03767e-07
1.03753e-07
1.03732e-07
1.03721e-07
1.03744e-07
1.05004e-07
1.07438e-07
1.85907e-08
1.23946e-07
1.23138e-07
1.22313e-07
1.21252e-07
1.1999e-07
1.18612e-07
1.17256e-07
1.15962e-07
1.14793e-07
1.13727e-07
1.12792e-07
1.11948e-07
1.11214e-07
1.10549e-07
1.09972e-07
1.09445e-07
1.08988e-07
1.08566e-07
1.08199e-07
1.07858e-07
1.07561e-07
1.07282e-07
1.07038e-07
1.06808e-07
1.06607e-07
1.06414e-07
1.06246e-07
1.06085e-07
1.05943e-07
1.05806e-07
1.05685e-07
1.05568e-07
1.05465e-07
1.05364e-07
1.05275e-07
1.05189e-07
1.05111e-07
1.05035e-07
1.04967e-07
1.04902e-07
1.04841e-07
1.04784e-07
1.0473e-07
1.0468e-07
1.04632e-07
1.04588e-07
1.04545e-07
1.04508e-07
1.04468e-07
1.04435e-07
1.04398e-07
1.04369e-07
1.04332e-07
1.04309e-07
1.04276e-07
1.04255e-07
1.04225e-07
1.04206e-07
1.0418e-07
1.04163e-07
1.04138e-07
1.0412e-07
1.04099e-07
1.04082e-07
1.04061e-07
1.04046e-07
1.04028e-07
1.04014e-07
1.03995e-07
1.0398e-07
1.03963e-07
1.0395e-07
1.03935e-07
1.03925e-07
1.03912e-07
1.03903e-07
1.03891e-07
1.03883e-07
1.03871e-07
1.03862e-07
1.0385e-07
1.03842e-07
1.03831e-07
1.03822e-07
1.03811e-07
1.03802e-07
1.03789e-07
1.03776e-07
1.03766e-07
1.03751e-07
1.0373e-07
1.03719e-07
1.03743e-07
1.05048e-07
1.07441e-07
1.94842e-08
1.23946e-07
1.23137e-07
1.22314e-07
1.21256e-07
1.19998e-07
1.18625e-07
1.17271e-07
1.15979e-07
1.14811e-07
1.13745e-07
1.1281e-07
1.11965e-07
1.11231e-07
1.10565e-07
1.09987e-07
1.09459e-07
1.09001e-07
1.08578e-07
1.08211e-07
1.07869e-07
1.07571e-07
1.07291e-07
1.07048e-07
1.06816e-07
1.06615e-07
1.06422e-07
1.06253e-07
1.06091e-07
1.05949e-07
1.05811e-07
1.0569e-07
1.05573e-07
1.05469e-07
1.05368e-07
1.05279e-07
1.05192e-07
1.05114e-07
1.05038e-07
1.0497e-07
1.04904e-07
1.04843e-07
1.04786e-07
1.04732e-07
1.04682e-07
1.04634e-07
1.0459e-07
1.04546e-07
1.04509e-07
1.04469e-07
1.04436e-07
1.04399e-07
1.04369e-07
1.04333e-07
1.04309e-07
1.04276e-07
1.04255e-07
1.04225e-07
1.04206e-07
1.0418e-07
1.04162e-07
1.04138e-07
1.0412e-07
1.04098e-07
1.04081e-07
1.0406e-07
1.04045e-07
1.04027e-07
1.04013e-07
1.03994e-07
1.03979e-07
1.03962e-07
1.03949e-07
1.03934e-07
1.03923e-07
1.03911e-07
1.03902e-07
1.0389e-07
1.03881e-07
1.03869e-07
1.0386e-07
1.03848e-07
1.0384e-07
1.03829e-07
1.03821e-07
1.03809e-07
1.038e-07
1.03788e-07
1.03774e-07
1.03764e-07
1.0375e-07
1.03728e-07
1.03718e-07
1.03742e-07
1.05096e-07
1.03994e-07
2.04266e-08
1.23946e-07
1.23135e-07
1.22314e-07
1.21261e-07
1.20008e-07
1.18638e-07
1.17288e-07
1.15997e-07
1.1483e-07
1.13765e-07
1.1283e-07
1.11984e-07
1.11249e-07
1.10582e-07
1.10004e-07
1.09475e-07
1.09016e-07
1.08592e-07
1.08224e-07
1.07881e-07
1.07583e-07
1.07302e-07
1.07057e-07
1.06826e-07
1.06623e-07
1.0643e-07
1.06261e-07
1.06098e-07
1.05955e-07
1.05817e-07
1.05696e-07
1.05578e-07
1.05474e-07
1.05373e-07
1.05283e-07
1.05196e-07
1.05117e-07
1.05042e-07
1.04973e-07
1.04907e-07
1.04846e-07
1.04788e-07
1.04734e-07
1.04684e-07
1.04635e-07
1.04591e-07
1.04548e-07
1.0451e-07
1.0447e-07
1.04437e-07
1.044e-07
1.0437e-07
1.04333e-07
1.04309e-07
1.04276e-07
1.04255e-07
1.04225e-07
1.04206e-07
1.0418e-07
1.04162e-07
1.04138e-07
1.04119e-07
1.04098e-07
1.04081e-07
1.04059e-07
1.04044e-07
1.04026e-07
1.04012e-07
1.03993e-07
1.03979e-07
1.03961e-07
1.03948e-07
1.03933e-07
1.03922e-07
1.03909e-07
1.03901e-07
1.03889e-07
1.0388e-07
1.03868e-07
1.03859e-07
1.03847e-07
1.03838e-07
1.03827e-07
1.03819e-07
1.03808e-07
1.03799e-07
1.03786e-07
1.03773e-07
1.03762e-07
1.03748e-07
1.03726e-07
1.03716e-07
1.03742e-07
1.05149e-07
9.81403e-08
2.14206e-08
1.23946e-07
1.23134e-07
1.22314e-07
1.21265e-07
1.20017e-07
1.18652e-07
1.17305e-07
1.16017e-07
1.14851e-07
1.13786e-07
1.1285e-07
1.12004e-07
1.11269e-07
1.10601e-07
1.10021e-07
1.09491e-07
1.09031e-07
1.08607e-07
1.08238e-07
1.07894e-07
1.07595e-07
1.07313e-07
1.07068e-07
1.06835e-07
1.06633e-07
1.06438e-07
1.06269e-07
1.06105e-07
1.05963e-07
1.05824e-07
1.05702e-07
1.05584e-07
1.05479e-07
1.05378e-07
1.05288e-07
1.052e-07
1.05121e-07
1.05045e-07
1.04976e-07
1.0491e-07
1.04849e-07
1.04791e-07
1.04737e-07
1.04686e-07
1.04637e-07
1.04593e-07
1.04549e-07
1.04511e-07
1.04471e-07
1.04438e-07
1.04401e-07
1.04371e-07
1.04334e-07
1.0431e-07
1.04277e-07
1.04255e-07
1.04225e-07
1.04206e-07
1.0418e-07
1.04162e-07
1.04137e-07
1.04119e-07
1.04097e-07
1.0408e-07
1.04059e-07
1.04044e-07
1.04025e-07
1.04011e-07
1.03992e-07
1.03978e-07
1.0396e-07
1.03947e-07
1.03932e-07
1.03921e-07
1.03908e-07
1.03899e-07
1.03887e-07
1.03878e-07
1.03866e-07
1.03857e-07
1.03845e-07
1.03837e-07
1.03826e-07
1.03817e-07
1.03806e-07
1.03797e-07
1.03784e-07
1.03771e-07
1.0376e-07
1.03747e-07
1.03724e-07
1.03714e-07
1.03741e-07
1.05207e-07
9.29177e-08
2.24696e-08
1.23946e-07
1.23133e-07
1.22315e-07
1.2127e-07
1.20028e-07
1.18667e-07
1.17324e-07
1.16038e-07
1.14873e-07
1.13808e-07
1.12872e-07
1.12026e-07
1.11289e-07
1.1062e-07
1.1004e-07
1.09509e-07
1.09048e-07
1.08622e-07
1.08253e-07
1.07908e-07
1.07608e-07
1.07325e-07
1.0708e-07
1.06846e-07
1.06643e-07
1.06448e-07
1.06277e-07
1.06114e-07
1.0597e-07
1.05831e-07
1.05709e-07
1.0559e-07
1.05485e-07
1.05383e-07
1.05293e-07
1.05205e-07
1.05126e-07
1.05049e-07
1.0498e-07
1.04913e-07
1.04852e-07
1.04794e-07
1.04739e-07
1.04688e-07
1.04639e-07
1.04595e-07
1.04551e-07
1.04513e-07
1.04472e-07
1.04439e-07
1.04402e-07
1.04371e-07
1.04335e-07
1.04311e-07
1.04277e-07
1.04256e-07
1.04226e-07
1.04206e-07
1.0418e-07
1.04162e-07
1.04137e-07
1.04119e-07
1.04097e-07
1.0408e-07
1.04058e-07
1.04043e-07
1.04024e-07
1.0401e-07
1.03992e-07
1.03977e-07
1.03959e-07
1.03946e-07
1.03931e-07
1.0392e-07
1.03907e-07
1.03898e-07
1.03886e-07
1.03877e-07
1.03864e-07
1.03855e-07
1.03843e-07
1.03835e-07
1.03824e-07
1.03815e-07
1.03804e-07
1.03795e-07
1.03783e-07
1.0377e-07
1.03759e-07
1.03745e-07
1.03722e-07
1.03713e-07
1.03741e-07
1.05268e-07
8.82556e-08
2.35767e-08
1.23945e-07
1.23132e-07
1.22315e-07
1.21275e-07
1.20039e-07
1.18683e-07
1.17344e-07
1.1606e-07
1.14896e-07
1.13832e-07
1.12896e-07
1.12049e-07
1.11312e-07
1.10642e-07
1.1006e-07
1.09528e-07
1.09066e-07
1.08639e-07
1.08269e-07
1.07923e-07
1.07622e-07
1.07338e-07
1.07092e-07
1.06858e-07
1.06653e-07
1.06458e-07
1.06287e-07
1.06122e-07
1.05978e-07
1.05839e-07
1.05716e-07
1.05597e-07
1.05491e-07
1.05389e-07
1.05298e-07
1.0521e-07
1.0513e-07
1.05054e-07
1.04984e-07
1.04917e-07
1.04855e-07
1.04797e-07
1.04742e-07
1.04691e-07
1.04642e-07
1.04597e-07
1.04553e-07
1.04514e-07
1.04474e-07
1.0444e-07
1.04403e-07
1.04373e-07
1.04336e-07
1.04311e-07
1.04278e-07
1.04256e-07
1.04226e-07
1.04206e-07
1.0418e-07
1.04162e-07
1.04137e-07
1.04118e-07
1.04097e-07
1.04079e-07
1.04058e-07
1.04042e-07
1.04024e-07
1.0401e-07
1.03991e-07
1.03976e-07
1.03958e-07
1.03945e-07
1.0393e-07
1.03919e-07
1.03906e-07
1.03897e-07
1.03884e-07
1.03875e-07
1.03863e-07
1.03854e-07
1.03842e-07
1.03833e-07
1.03822e-07
1.03813e-07
1.03802e-07
1.03793e-07
1.03781e-07
1.03768e-07
1.03757e-07
1.03743e-07
1.0372e-07
1.03711e-07
1.03741e-07
1.05334e-07
8.40887e-08
2.47451e-08
1.23945e-07
1.2313e-07
1.22316e-07
1.2128e-07
1.2005e-07
1.187e-07
1.17365e-07
1.16083e-07
1.14921e-07
1.13857e-07
1.12921e-07
1.12073e-07
1.11335e-07
1.10664e-07
1.10082e-07
1.09548e-07
1.09086e-07
1.08657e-07
1.08286e-07
1.07939e-07
1.07637e-07
1.07353e-07
1.07105e-07
1.0687e-07
1.06665e-07
1.06469e-07
1.06297e-07
1.06132e-07
1.05987e-07
1.05847e-07
1.05724e-07
1.05604e-07
1.05498e-07
1.05395e-07
1.05304e-07
1.05215e-07
1.05135e-07
1.05058e-07
1.04988e-07
1.04921e-07
1.04859e-07
1.048e-07
1.04745e-07
1.04694e-07
1.04645e-07
1.04599e-07
1.04555e-07
1.04516e-07
1.04476e-07
1.04442e-07
1.04404e-07
1.04374e-07
1.04337e-07
1.04312e-07
1.04279e-07
1.04257e-07
1.04226e-07
1.04207e-07
1.0418e-07
1.04162e-07
1.04137e-07
1.04118e-07
1.04096e-07
1.04079e-07
1.04057e-07
1.04042e-07
1.04023e-07
1.04009e-07
1.0399e-07
1.03975e-07
1.03957e-07
1.03944e-07
1.03928e-07
1.03917e-07
1.03904e-07
1.03895e-07
1.03883e-07
1.03874e-07
1.03861e-07
1.03852e-07
1.0384e-07
1.03831e-07
1.0382e-07
1.03811e-07
1.03799e-07
1.03791e-07
1.03779e-07
1.03766e-07
1.03755e-07
1.03742e-07
1.03718e-07
1.03709e-07
1.0374e-07
1.05404e-07
8.03619e-08
2.5978e-08
1.23945e-07
1.23129e-07
1.22316e-07
1.21286e-07
1.20062e-07
1.18718e-07
1.17387e-07
1.16108e-07
1.14947e-07
1.13884e-07
1.12948e-07
1.12099e-07
1.1136e-07
1.10688e-07
1.10105e-07
1.0957e-07
1.09106e-07
1.08677e-07
1.08304e-07
1.07956e-07
1.07653e-07
1.07368e-07
1.07119e-07
1.06883e-07
1.06677e-07
1.0648e-07
1.06308e-07
1.06142e-07
1.05997e-07
1.05856e-07
1.05732e-07
1.05612e-07
1.05505e-07
1.05402e-07
1.0531e-07
1.05221e-07
1.05141e-07
1.05063e-07
1.04993e-07
1.04926e-07
1.04863e-07
1.04804e-07
1.04749e-07
1.04697e-07
1.04647e-07
1.04602e-07
1.04557e-07
1.04519e-07
1.04478e-07
1.04444e-07
1.04406e-07
1.04375e-07
1.04338e-07
1.04313e-07
1.0428e-07
1.04257e-07
1.04227e-07
1.04207e-07
1.0418e-07
1.04162e-07
1.04137e-07
1.04118e-07
1.04096e-07
1.04079e-07
1.04057e-07
1.04041e-07
1.04022e-07
1.04008e-07
1.03989e-07
1.03974e-07
1.03956e-07
1.03943e-07
1.03927e-07
1.03916e-07
1.03903e-07
1.03894e-07
1.03881e-07
1.03872e-07
1.0386e-07
1.0385e-07
1.03838e-07
1.03829e-07
1.03818e-07
1.03809e-07
1.03797e-07
1.03789e-07
1.03777e-07
1.03764e-07
1.03753e-07
1.0374e-07
1.03716e-07
1.03707e-07
1.0374e-07
1.05477e-07
7.70281e-08
2.72783e-08
1.23945e-07
1.23127e-07
1.22316e-07
1.21292e-07
1.20074e-07
1.18736e-07
1.1741e-07
1.16134e-07
1.14975e-07
1.13912e-07
1.12976e-07
1.12127e-07
1.11387e-07
1.10714e-07
1.10129e-07
1.09593e-07
1.09128e-07
1.08697e-07
1.08323e-07
1.07974e-07
1.0767e-07
1.07384e-07
1.07134e-07
1.06897e-07
1.06691e-07
1.06493e-07
1.0632e-07
1.06153e-07
1.06007e-07
1.05865e-07
1.05741e-07
1.0562e-07
1.05513e-07
1.05409e-07
1.05317e-07
1.05227e-07
1.05147e-07
1.05069e-07
1.04998e-07
1.0493e-07
1.04867e-07
1.04808e-07
1.04753e-07
1.04701e-07
1.04651e-07
1.04605e-07
1.0456e-07
1.04521e-07
1.0448e-07
1.04446e-07
1.04407e-07
1.04377e-07
1.04339e-07
1.04314e-07
1.04281e-07
1.04258e-07
1.04228e-07
1.04207e-07
1.04181e-07
1.04162e-07
1.04137e-07
1.04118e-07
1.04096e-07
1.04079e-07
1.04056e-07
1.04041e-07
1.04022e-07
1.04008e-07
1.03989e-07
1.03974e-07
1.03956e-07
1.03942e-07
1.03926e-07
1.03915e-07
1.03902e-07
1.03892e-07
1.0388e-07
1.03871e-07
1.03858e-07
1.03849e-07
1.03836e-07
1.03828e-07
1.03816e-07
1.03807e-07
1.03795e-07
1.03787e-07
1.03775e-07
1.03762e-07
1.03751e-07
1.03738e-07
1.03714e-07
1.03706e-07
1.0374e-07
1.05552e-07
7.4047e-08
2.86485e-08
1.23945e-07
1.23126e-07
1.22317e-07
1.21298e-07
1.20087e-07
1.18756e-07
1.17434e-07
1.16161e-07
1.15004e-07
1.13941e-07
1.13005e-07
1.12156e-07
1.11415e-07
1.10741e-07
1.10155e-07
1.09617e-07
1.09151e-07
1.08719e-07
1.08344e-07
1.07993e-07
1.07689e-07
1.07401e-07
1.0715e-07
1.06912e-07
1.06705e-07
1.06506e-07
1.06332e-07
1.06165e-07
1.06018e-07
1.05876e-07
1.05751e-07
1.05629e-07
1.05522e-07
1.05417e-07
1.05324e-07
1.05234e-07
1.05153e-07
1.05075e-07
1.05004e-07
1.04936e-07
1.04872e-07
1.04813e-07
1.04757e-07
1.04704e-07
1.04654e-07
1.04608e-07
1.04563e-07
1.04524e-07
1.04482e-07
1.04448e-07
1.04409e-07
1.04379e-07
1.04341e-07
1.04316e-07
1.04282e-07
1.04259e-07
1.04228e-07
1.04208e-07
1.04181e-07
1.04162e-07
1.04137e-07
1.04118e-07
1.04096e-07
1.04079e-07
1.04056e-07
1.04041e-07
1.04021e-07
1.04007e-07
1.03988e-07
1.03973e-07
1.03955e-07
1.03941e-07
1.03925e-07
1.03914e-07
1.039e-07
1.03891e-07
1.03878e-07
1.03869e-07
1.03856e-07
1.03847e-07
1.03835e-07
1.03826e-07
1.03814e-07
1.03805e-07
1.03793e-07
1.03784e-07
1.03773e-07
1.0376e-07
1.03749e-07
1.03736e-07
1.03712e-07
1.03704e-07
1.0374e-07
1.05628e-07
7.13843e-08
3.00906e-08
1.23944e-07
1.23124e-07
1.22317e-07
1.21304e-07
1.20101e-07
1.18776e-07
1.1746e-07
1.1619e-07
1.15035e-07
1.13973e-07
1.13037e-07
1.12186e-07
1.11445e-07
1.10769e-07
1.10182e-07
1.09643e-07
1.09176e-07
1.08742e-07
1.08366e-07
1.08014e-07
1.07708e-07
1.07419e-07
1.07168e-07
1.06928e-07
1.0672e-07
1.0652e-07
1.06345e-07
1.06177e-07
1.0603e-07
1.05887e-07
1.05761e-07
1.05639e-07
1.05531e-07
1.05426e-07
1.05332e-07
1.05242e-07
1.0516e-07
1.05081e-07
1.0501e-07
1.04941e-07
1.04877e-07
1.04817e-07
1.04761e-07
1.04709e-07
1.04658e-07
1.04612e-07
1.04566e-07
1.04527e-07