/*--------------------------------*- C++ -*----------------------------------*\
| =========                 |                                                 |
| \\      /  F ield         | OpenFOAM: The Open Source CFD Toolbox           |
|  \\    /   O peration     | Version:  v2012                                 |
|   \\  /    A nd           | Website:  www.openfoam.com                      |
|    \\/     M anipulation  |                                                 |
\*---------------------------------------------------------------------------*/
FoamFile
{
    version     2.0;
    format      ascii;
    class       volScalarField;
    location    "50.5";
    object      omega;
}
// * * * * * * * * * * * * * * * * * * * * * * * * * * * * * * * * * * * * * //

dimensions      [0 0 -1 0 0 0 0];


internalField   nonuniform List<scalar> 
209825
(
8261.76
7569.6
6999.42
6540.86
6177.48
5890.89
5662.86
5479.89
5330.57
5207.78
5104.94
5018.58
4944.63
4881.52
4826.45
4778.91
4736.73
4700.01
4666.96
4638.01
4611.59
4588.38
4566.93
4548.05
4530.37
4514.83
4500.1
4487.17
4474.75
4463.9
4453.34
4444.17
4435.12
4427.32
4419.5
4412.82
4406.06
4400.32
4394.41
4389.43
4384.29
4379.98
4375.43
4371.7
4367.72
4364.45
4360.93
4358.04
4354.96
4352.44
4349.73
4347.55
4345.24
4343.25
4341.19
4339.47
4337.65
4336.14
4334.5
4333.2
4331.83
4330.75
4329.49
4328.62
4327.54
4326.79
4325.8
4325.18
4324.34
4323.88
4323.17
4322.8
4322.19
4321.87
4321.29
4320.93
4320.38
4320.07
4319.59
4319.34
4318.92
4318.73
4318.37
4318.26
4318
4318.07
4318.03
4318.28
4318.28
4318.68
4318.68
4319.4
4320.13
4348.49
4457.42
113107
8261.76
7569.6
6999.42
6540.86
6177.47
5890.87
5662.82
5479.84
5330.52
5207.72
5104.88
5018.51
4944.55
4881.43
4826.36
4778.81
4736.64
4699.91
4666.85
4637.9
4611.48
4588.27
4566.82
4547.93
4530.25
4514.71
4499.98
4487.05
4474.63
4463.78
4453.22
4444.05
4435
4427.19
4419.37
4412.7
4405.93
4400.19
4394.28
4389.3
4384.16
4379.85
4375.3
4371.57
4367.58
4364.32
4360.8
4357.91
4354.83
4352.31
4349.6
4347.42
4345.1
4343.12
4341.06
4339.34
4337.52
4336
4334.36
4333.06
4331.69
4330.62
4329.35
4328.48
4327.4
4326.66
4325.67
4325.04
4324.21
4323.74
4323.03
4322.66
4322.06
4321.73
4321.15
4320.79
4320.24
4319.93
4319.45
4319.2
4318.78
4318.59
4318.23
4318.12
4317.86
4317.93
4317.89
4318.14
4318.14
4318.54
4318.54
4319.26
4319.99
4348.39
4457.32
109809
8261.76
7569.61
6999.42
6540.84
6177.42
5890.78
5662.7
5479.69
5330.34
5207.51
5104.64
5018.25
4944.27
4881.15
4826.06
4778.5
4736.31
4699.57
4666.51
4637.55
4611.12
4587.91
4566.44
4547.55
4529.87
4514.32
4499.59
4486.65
4474.23
4463.38
4452.81
4443.64
4434.59
4426.78
4418.96
4412.28
4405.51
4399.76
4393.85
4388.88
4383.73
4379.42
4374.87
4371.14
4367.15
4363.88
4360.36
4357.47
4354.39
4351.87
4349.16
4346.98
4344.66
4342.67
4340.61
4338.89
4337.07
4335.56
4333.92
4332.61
4331.24
4330.17
4328.9
4328.03
4326.95
4326.2
4325.21
4324.59
4323.75
4323.29
4322.58
4322.2
4321.6
4321.27
4320.69
4320.34
4319.78
4319.47
4318.99
4318.74
4318.32
4318.13
4317.77
4317.66
4317.4
4317.46
4317.43
4317.68
4317.67
4318.08
4318.08
4318.8
4319.52
4348.03
4456.94
106022
8261.76
7569.62
6999.42
6540.81
6177.33
5890.63
5662.49
5479.42
5330.02
5207.15
5104.24
5017.82
4943.81
4880.65
4825.54
4777.96
4735.75
4699
4665.92
4636.94
4610.51
4587.28
4565.81
4546.91
4529.21
4513.66
4498.92
4485.97
4473.54
4462.69
4452.12
4442.94
4433.88
4426.07
4418.24
4411.56
4404.78
4399.04
4393.12
4388.14
4383
4378.68
4374.13
4370.4
4366.4
4363.14
4359.61
4356.72
4353.64
4351.11
4348.4
4346.22
4343.9
4341.91
4339.85
4338.13
4336.31
4334.79
4333.15
4331.84
4330.47
4329.39
4328.13
4327.26
4326.18
4325.43
4324.44
4323.81
4322.97
4322.51
4321.8
4321.42
4320.82
4320.49
4319.91
4319.55
4319
4318.69
4318.2
4317.96
4317.54
4317.35
4316.98
4316.87
4316.61
4316.67
4316.63
4316.88
4316.88
4317.28
4317.28
4318
4318.73
4347.39
4456.27
102128
8261.76
7569.64
6999.43
6540.76
6177.21
5890.42
5662.19
5479.04
5329.56
5206.63
5103.66
5017.19
4943.14
4879.95
4824.8
4777.19
4734.96
4698.18
4665.07
4636.08
4609.63
4586.38
4564.9
4545.98
4528.28
4512.71
4497.96
4485.01
4472.56
4461.7
4451.12
4441.94
4432.87
4425.05
4417.23
4410.54
4403.76
4398.01
4392.09
4387.1
4381.95
4377.63
4373.08
4369.34
4365.34
4362.07
4358.55
4355.65
4352.57
4350.04
4347.32
4345.14
4342.82
4340.83
4338.76
4337.04
4335.22
4333.7
4332.06
4330.75
4329.37
4328.3
4327.03
4326.16
4325.08
4324.33
4323.33
4322.71
4321.87
4321.4
4320.69
4320.31
4319.71
4319.38
4318.79
4318.44
4317.88
4317.57
4317.09
4316.84
4316.42
4316.23
4315.86
4315.75
4315.48
4315.55
4315.5
4315.75
4315.75
4316.15
4316.14
4316.86
4317.6
4346.47
4455.32
98230.8
8261.76
7569.66
6999.44
6540.7
6177.05
5890.14
5661.79
5478.54
5328.97
5205.95
5102.91
5016.38
4942.27
4879.02
4823.84
4776.18
4733.92
4697.11
4663.97
4634.96
4608.48
4585.21
4563.71
4544.78
4527.05
4511.48
4496.71
4483.74
4471.29
4460.42
4449.83
4440.64
4431.56
4423.73
4415.9
4409.2
4402.41
4396.66
4390.73
4385.74
4380.59
4376.26
4371.7
4367.96
4363.96
4360.69
4357.15
4354.26
4351.17
4348.64
4345.92
4343.73
4341.41
4339.42
4337.35
4335.62
4333.79
4332.28
4330.63
4329.32
4327.94
4326.87
4325.6
4324.72
4323.64
4322.89
4321.89
4321.27
4320.42
4319.95
4319.24
4318.86
4318.26
4317.93
4317.34
4316.98
4316.42
4316.12
4315.63
4315.38
4314.96
4314.77
4314.39
4314.28
4314.02
4314.08
4314.03
4314.27
4314.27
4314.67
4314.66
4315.38
4316.12
4345.27
4454.08
94371
8261.76
7569.69
6999.45
6540.63
6176.85
5889.8
5661.31
5477.92
5328.24
5205.12
5101.99
5015.37
4941.19
4877.88
4822.64
4774.94
4732.63
4695.78
4662.61
4633.57
4607.06
4583.77
4562.24
4543.29
4525.54
4509.95
4495.16
4482.18
4469.71
4458.83
4448.23
4439.02
4429.94
4422.1
4414.25
4407.55
4400.75
4394.99
4389.06
4384.06
4378.9
4374.57
4370
4366.25
4362.25
4358.97
4355.43
4352.53
4349.44
4346.9
4344.18
4341.99
4339.66
4337.67
4335.59
4333.87
4332.04
4330.51
4328.87
4327.56
4326.17
4325.09
4323.82
4322.94
4321.86
4321.1
4320.1
4319.48
4318.63
4318.16
4317.45
4317.07
4316.46
4316.13
4315.54
4315.18
4314.62
4314.32
4313.82
4313.58
4313.15
4312.96
4312.58
4312.47
4312.2
4312.26
4312.21
4312.45
4312.45
4312.83
4312.83
4313.54
4314.29
4343.79
4452.55
90567.2
8261.76
7569.72
6999.46
6540.54
6176.61
5889.39
5660.73
5477.19
5327.36
5204.12
5100.88
5014.17
4939.9
4876.52
4821.22
4773.45
4731.09
4694.2
4660.99
4631.9
4605.36
4582.04
4560.48
4541.5
4523.73
4508.12
4493.31
4480.31
4467.83
4456.93
4446.31
4437.09
4427.99
4420.15
4412.29
4405.57
4398.77
4392.99
4387.05
4382.05
4376.88
4372.54
4367.96
4364.21
4360.2
4356.92
4353.37
4350.47
4347.37
4344.83
4342.1
4339.91
4337.57
4335.58
4333.5
4331.77
4329.93
4328.41
4326.75
4325.44
4324.05
4322.97
4321.7
4320.82
4319.73
4318.97
4317.97
4317.34
4316.49
4316.02
4315.3
4314.92
4314.31
4313.98
4313.39
4313.03
4312.47
4312.16
4311.66
4311.41
4310.99
4310.79
4310.42
4310.3
4310.03
4310.08
4310.03
4310.26
4310.26
4310.64
4310.64
4311.35
4312.11
4342.01
4450.73
86828.3
8261.76
7569.76
6999.48
6540.44
6176.33
5888.91
5660.06
5476.33
5326.34
5202.95
5099.59
5012.76
4938.4
4874.94
4819.55
4771.72
4729.3
4692.35
4659.09
4629.96
4603.38
4580.02
4558.43
4539.42
4521.62
4505.98
4491.15
4478.13
4465.63
4454.71
4444.07
4434.84
4425.73
4417.86
4409.99
4403.27
4396.45
4390.66
4384.71
4379.7
4374.52
4370.17
4365.59
4361.83
4357.81
4354.52
4350.97
4348.06
4344.95
4342.4
4339.67
4337.47
4335.13
4333.13
4331.05
4329.31
4327.47
4325.95
4324.29
4322.97
4321.58
4320.5
4319.22
4318.33
4317.24
4316.48
4315.48
4314.85
4313.99
4313.52
4312.8
4312.41
4311.8
4311.47
4310.88
4310.52
4309.95
4309.64
4309.14
4308.89
4308.46
4308.27
4307.89
4307.77
4307.49
4307.54
4307.48
4307.71
4307.71
4308.08
4308.08
4308.78
4309.56
4339.95
4448.62
83157
8261.76
7569.8
6999.49
6540.33
6176.02
5888.37
5659.29
5475.35
5325.17
5201.62
5098.11
5011.16
4936.68
4873.12
4817.65
4769.74
4727.24
4690.23
4656.92
4627.74
4601.11
4577.71
4556.08
4537.04
4519.21
4503.54
4488.68
4475.64
4463.11
4452.17
4441.51
4432.26
4423.13
4415.25
4407.36
4400.62
4393.79
4387.99
4382.03
4377.01
4371.82
4367.46
4362.87
4359.1
4355.07
4351.77
4348.21
4345.3
4342.18
4339.63
4336.89
4334.68
4332.34
4330.33
4328.24
4326.5
4324.66
4323.13
4321.46
4320.14
4318.75
4317.66
4316.37
4315.49
4314.39
4313.63
4312.62
4311.99
4311.13
4310.65
4309.93
4309.54
4308.93
4308.59
4308
4307.64
4307.07
4306.75
4306.25
4306
4305.57
4305.37
4304.99
4304.87
4304.59
4304.63
4304.56
4304.78
4304.78
4305.15
4305.15
4305.84
4306.64
4337.59
4446.22
79551.5
8261.76
7569.85
6999.51
6540.2
6175.66
5887.76
5658.42
5474.25
5323.86
5200.12
5096.44
5009.35
4934.74
4871.07
4815.5
4767.5
4724.92
4687.84
4654.46
4625.23
4598.54
4575.1
4553.42
4534.34
4516.48
4500.77
4485.89
4472.82
4460.26
4449.29
4438.62
4429.34
4420.19
4412.3
4404.39
4397.64
4390.79
4384.98
4379
4373.96
4368.76
4364.39
4359.79
4356.01
4351.97
4348.67
4345.1
4342.17
4339.05
4336.49
4333.74
4331.53
4329.18
4327.17
4325.07
4323.33
4321.47
4319.94
4318.27
4316.95
4315.54
4314.45
4313.16
4312.27
4311.17
4310.4
4309.39
4308.75
4307.89
4307.41
4306.68
4306.29
4305.68
4305.34
4304.74
4304.38
4303.81
4303.49
4302.99
4302.73
4302.29
4302.09
4301.71
4301.59
4301.31
4301.34
4301.27
4301.48
4301.48
4301.83
4301.83
4302.52
4303.33
4334.93
4443.53
76006.2
8261.76
7569.91
6999.54
6540.06
6175.27
5887.08
5657.46
5473.03
5322.4
5198.45
5094.59
5007.33
4932.58
4868.78
4813.1
4765
4722.34
4685.18
4651.73
4622.42
4595.68
4572.18
4550.46
4531.34
4513.43
4497.69
4482.77
4469.66
4457.08
4446.09
4435.38
4426.09
4416.91
4409
4401.07
4394.3
4387.43
4381.61
4375.62
4370.57
4365.35
4360.97
4356.35
4352.56
4348.51
4345.2
4341.62
4338.69
4335.55
4332.99
4330.23
4328.01
4325.65
4323.63
4321.53
4319.78
4317.92
4316.38
4314.7
4313.37
4311.96
4310.87
4309.57
4308.68
4307.57
4306.8
4305.78
4305.14
4304.28
4303.79
4303.06
4302.66
4302.04
4301.71
4301.11
4300.74
4300.17
4299.85
4299.34
4299.08
4298.64
4298.44
4298.05
4297.92
4297.64
4297.66
4297.58
4297.79
4297.78
4298.13
4298.13
4298.81
4299.64
4331.97
4440.56
72517.2
8261.75
7569.97
6999.56
6539.91
6174.84
5886.33
5656.4
5471.68
5320.79
5196.61
5092.54
5005.1
4930.2
4866.26
4810.45
4762.24
4719.48
4682.23
4648.7
4619.33
4592.52
4568.96
4547.18
4528.01
4510.06
4494.28
4479.32
4466.18
4453.56
4442.54
4431.81
4422.48
4413.29
4405.35
4397.4
4390.61
4383.72
4377.88
4371.87
4366.81
4361.57
4357.18
4352.55
4348.75
4344.69
4341.36
4337.77
4334.83
4331.68
4329.11
4326.34
4324.11
4321.74
4319.72
4317.61
4315.85
4313.98
4312.44
4310.76
4309.42
4308
4306.9
4305.6
4304.7
4303.58
4302.81
4301.79
4301.15
4300.27
4299.78
4299.05
4298.65
4298.02
4297.68
4297.08
4296.71
4296.13
4295.81
4295.3
4295.04
4294.59
4294.39
4294
4293.86
4293.58
4293.59
4293.5
4293.7
4293.7
4294.03
4294.03
4294.71
4295.56
4328.69
4437.31
69091.1
8261.75
7570.04
6999.59
6539.74
6174.37
5885.52
5655.24
5470.2
5319.02
5194.59
5090.3
5002.66
4927.58
4863.49
4807.54
4759.22
4716.34
4679
4645.38
4615.93
4589.05
4565.43
4543.59
4524.36
4506.36
4490.53
4475.53
4462.35
4449.7
4438.64
4427.88
4418.53
4409.3
4401.34
4393.37
4386.56
4379.65
4373.79
4367.76
4362.68
4357.43
4353.02
4348.37
4344.56
4340.48
4337.14
4333.54
4330.59
4327.43
4324.85
4322.07
4319.83
4317.45
4315.42
4313.3
4311.54
4309.66
4308.11
4306.42
4305.08
4303.65
4302.55
4301.24
4300.33
4299.21
4298.43
4297.4
4296.76
4295.88
4295.38
4294.64
4294.24
4293.61
4293.27
4292.66
4292.29
4291.71
4291.38
4290.86
4290.6
4290.15
4289.94
4289.54
4289.41
4289.12
4289.12
4289.02
4289.21
4289.21
4289.52
4289.52
4290.19
4291.07
4325.09
4433.77
65733.9
8261.75
7570.11
6999.62
6539.57
6173.87
5884.64
5653.99
5468.6
5317.11
5192.39
5087.86
5000.01
4924.74
4860.47
4804.38
4755.92
4712.93
4675.48
4641.76
4612.22
4585.26
4561.57
4539.67
4520.38
4502.33
4486.45
4471.4
4458.18
4445.48
4434.4
4423.6
4414.22
4404.96
4396.97
4388.97
4382.14
4375.21
4369.32
4363.27
4358.17
4352.9
4348.48
4343.82
4339.99
4335.9
4332.55
4328.93
4325.96
4322.8
4320.2
4317.41
4315.16
4312.77
4310.73
4308.6
4306.83
4304.95
4303.39
4301.69
4300.34
4298.9
4297.79
4296.48
4295.56
4294.43
4293.65
4292.62
4291.96
4291.08
4290.58
4289.83
4289.43
4288.79
4288.45
4287.83
4287.46
4286.87
4286.54
4286.02
4285.75
4285.3
4285.09
4284.69
4284.55
4284.26
4284.24
4284.13
4284.31
4284.31
4284.61
4284.61
4285.27
4286.18
4321.17
4429.95
62451.2
8261.75
7570.18
6999.66
6539.38
6173.33
5883.69
5652.64
5466.87
5315.04
5190.02
5085.22
4997.14
4921.66
4857.21
4800.95
4752.35
4709.23
4671.66
4637.84
4608.21
4581.17
4557.4
4535.42
4516.07
4497.95
4482.03
4466.92
4453.66
4440.92
4429.79
4418.95
4409.54
4400.25
4392.23
4384.2
4377.34
4370.39
4364.48
4358.41
4353.29
4348
4343.56
4338.88
4335.03
4330.92
4327.56
4323.93
4320.95
4317.77
4315.16
4312.36
4310.1
4307.69
4305.65
4303.5
4301.73
4299.83
4298.26
4296.56
4295.2
4293.75
4292.64
4291.31
4290.39
4289.25
4288.47
4287.43
4286.77
4285.88
4285.37
4284.62
4284.2
4283.57
4283.21
4282.6
4282.22
4281.63
4281.3
4280.77
4280.5
4280.04
4279.82
4279.41
4279.27
4278.98
4278.95
4278.83
4279
4278.99
4279.28
4279.27
4279.93
4280.87
4316.92
4425.86
59248.3
8261.75
7570.27
6999.7
6539.18
6172.75
5882.68
5651.19
5465.01
5312.81
5187.47
5082.38
4994.04
4918.34
4853.7
4797.26
4748.51
4705.24
4667.55
4633.62
4603.88
4576.74
4552.89
4530.84
4511.42
4493.24
4477.25
4462.09
4448.78
4435.99
4424.82
4413.94
4404.49
4395.17
4387.12
4379.06
4372.17
4365.18
4359.26
4353.16
4348.02
4342.7
4338.24
4333.54
4329.68
4325.55
4322.17
4318.53
4315.53
4312.34
4309.72
4306.9
4304.63
4302.21
4300.16
4298
4296.21
4294.31
4292.73
4291.02
4289.65
4288.19
4287.07
4285.73
4284.81
4283.66
4282.87
4281.82
4281.16
4280.26
4279.75
4278.98
4278.57
4277.92
4277.57
4276.95
4276.57
4275.97
4275.63
4275.1
4274.82
4274.36
4274.13
4273.72
4273.57
4273.28
4273.24
4273.1
4273.26
4273.25
4273.53
4273.52
4274.17
4275.14
4312.32
4421.51
56130
8261.74
7570.35
6999.74
6538.97
6172.13
5881.6
5649.64
5463.03
5310.43
5184.74
5079.34
4990.73
4914.78
4849.93
4793.3
4744.38
4700.96
4663.14
4629.08
4599.24
4572
4548.06
4525.92
4506.43
4488.17
4472.12
4456.9
4443.54
4430.7
4419.48
4408.56
4399.07
4389.71
4381.62
4373.53
4366.61
4359.59
4353.64
4347.51
4342.35
4337.01
4332.53
4327.81
4323.93
4319.78
4316.39
4312.72
4309.72
4306.5
4303.87
4301.04
4298.75
4296.32
4294.26
4292.09
4290.29
4288.37
4286.79
4285.06
4283.69
4282.22
4281.09
4279.74
4278.81
4277.65
4276.85
4275.8
4275.12
4274.22
4273.7
4272.93
4272.51
4271.86
4271.5
4270.87
4270.49
4269.88
4269.54
4269
4268.72
4268.25
4268.02
4267.6
4267.45
4267.15
4267.1
4266.95
4267.1
4267.08
4267.34
4267.33
4267.97
4268.98
4307.37
4416.87
53100.7
8261.74
7570.45
6999.79
6538.75
6171.48
5880.45
5647.99
5460.92
5307.9
5181.83
5076.09
4987.19
4910.99
4845.91
4789.08
4739.97
4696.39
4658.42
4624.23
4594.27
4566.92
4542.89
4520.66
4501.09
4482.76
4466.64
4451.35
4437.93
4425.04
4413.77
4402.8
4393.27
4383.86
4375.74
4367.61
4360.66
4353.61
4347.63
4341.47
4336.28
4330.92
4326.42
4321.67
4317.77
4313.61
4310.19
4306.51
4303.49
4300.25
4297.61
4294.76
4292.46
4290.01
4287.94
4285.75
4283.94
4282.01
4280.42
4278.68
4277.3
4275.82
4274.68
4273.32
4272.38
4271.21
4270.41
4269.34
4268.66
4267.75
4267.22
4266.45
4266.02
4265.36
4264.99
4264.36
4263.98
4263.37
4263.02
4262.48
4262.19
4261.71
4261.47
4261.05
4260.89
4260.58
4260.53
4260.36
4260.49
4260.48
4260.72
4260.7
4261.33
4262.38
4302.04
4411.94
50164.8
8261.74
7570.54
6999.84
6538.52
6170.8
5879.24
5646.25
5458.68
5305.2
5178.74
5072.65
4983.43
4906.95
4841.63
4784.57
4735.28
4691.52
4653.4
4619.07
4588.98
4561.52
4537.38
4515.05
4495.39
4476.98
4460.79
4445.44
4431.95
4419
4407.68
4396.66
4387.08
4377.63
4369.47
4361.3
4354.31
4347.23
4341.22
4335.03
4329.81
4324.42
4319.9
4315.13
4311.2
4307.02
4303.58
4299.88
4296.84
4293.59
4290.92
4288.06
4285.75
4283.28
4281.19
4278.99
4277.18
4275.23
4273.63
4271.87
4270.49
4268.99
4267.84
4266.47
4265.52
4264.34
4263.53
4262.46
4261.77
4260.84
4260.31
4259.53
4259.09
4258.42
4258.06
4257.42
4257.03
4256.41
4256.06
4255.51
4255.21
4254.72
4254.49
4254.06
4253.89
4253.58
4253.51
4253.33
4253.45
4253.43
4253.65
4253.63
4254.25
4255.34
4296.33
4406.69
47325.8
8261.73
7570.65
6999.9
6538.28
6170.08
5877.96
5644.41
5456.31
5302.36
5175.47
5068.99
4979.45
4902.67
4837.08
4779.8
4730.29
4686.35
4648.06
4613.58
4583.36
4555.77
4531.52
4509.09
4489.34
4470.84
4454.57
4439.15
4425.6
4412.58
4401.2
4390.13
4380.5
4371
4362.8
4354.59
4347.56
4340.44
4334.4
4328.18
4322.93
4317.51
4312.96
4308.16
4304.22
4300
4296.55
4292.83
4289.77
4286.5
4283.82
4280.93
4278.6
4276.12
4274.02
4271.8
4269.97
4268.01
4266.4
4264.63
4263.23
4261.72
4260.57
4259.18
4258.22
4257.03
4256.22
4255.13
4254.44
4253.5
4252.96
4252.16
4251.72
4251.05
4250.67
4250.03
4249.63
4249.01
4248.65
4248.09
4247.79
4247.3
4247.05
4246.62
4246.44
4246.12
4246.05
4245.84
4245.95
4245.93
4246.13
4246.1
4246.71
4247.85
4290.22
4401.1
44587.3
8261.73
7570.76
6999.96
6538.03
6169.32
5876.62
5642.47
5453.81
5299.35
5172.01
5065.13
4975.24
4898.14
4832.28
4774.74
4725.02
4680.88
4642.42
4607.77
4577.41
4549.69
4525.32
4502.78
4482.93
4464.34
4447.99
4432.48
4418.86
4405.77
4394.34
4383.2
4373.52
4363.97
4355.73
4347.47
4340.41
4333.25
4327.16
4320.91
4315.64
4310.18
4305.6
4300.78
4296.81
4292.57
4289.09
4285.34
4282.27
4278.97
4276.28
4273.37
4271.02
4268.53
4266.41
4264.18
4262.33
4260.36
4258.74
4256.95
4255.54
4254.01
4252.85
4251.45
4250.48
4249.28
4248.45
4247.36
4246.65
4245.71
4245.16
4244.35
4243.9
4243.22
4242.84
4242.19
4241.79
4241.16
4240.79
4240.22
4239.92
4239.41
4239.16
4238.72
4238.54
4238.21
4238.13
4237.91
4238
4237.97
4238.16
4238.11
4238.72
4239.9
4283.68
4395.13
41952.3
8261.72
7570.87
7000.02
6537.77
6168.54
5875.22
5640.44
5451.19
5296.19
5168.37
5061.07
4970.8
4893.37
4827.21
4769.41
4719.46
4675.1
4636.45
4601.63
4571.12
4543.26
4518.76
4496.1
4476.15
4457.46
4441.02
4425.43
4411.74
4398.58
4387.08
4375.88
4366.15
4356.54
4348.25
4339.94
4332.84
4325.63
4319.52
4313.23
4307.92
4302.43
4297.82
4292.97
4288.97
4284.7
4281.2
4277.43
4274.33
4271.01
4268.3
4265.37
4263.01
4260.49
4258.36
4256.11
4254.25
4252.25
4250.62
4248.82
4247.4
4245.86
4244.68
4243.27
4242.29
4241.07
4240.24
4239.13
4238.42
4237.46
4236.9
4236.08
4235.63
4234.94
4234.55
4233.89
4233.48
4232.85
4232.48
4231.9
4231.58
4231.07
4230.81
4230.36
4230.18
4229.84
4229.74
4229.51
4229.59
4229.55
4229.72
4229.66
4230.25
4231.49
4276.69
4388.76
39423.5
8261.71
7570.99
7000.1
6537.51
6167.72
5873.76
5638.32
5448.45
5292.88
5164.55
5056.8
4966.13
4888.34
4821.87
4763.8
4713.59
4669.02
4630.17
4595.17
4564.49
4536.48
4511.85
4489.07
4469.01
4450.21
4433.68
4418
4404.23
4390.99
4379.42
4368.16
4358.37
4348.7
4340.36
4332
4324.85
4317.6
4311.44
4305.11
4299.77
4294.24
4289.61
4284.72
4280.69
4276.4
4272.87
4269.08
4265.95
4262.61
4259.88
4256.93
4254.54
4252
4249.86
4247.59
4245.72
4243.7
4242.06
4240.24
4238.81
4237.24
4236.06
4234.63
4233.64
4232.41
4231.57
4230.44
4229.72
4228.75
4228.18
4227.36
4226.89
4226.19
4225.8
4225.13
4224.72
4224.07
4223.69
4223.11
4222.79
4222.26
4222
4221.54
4221.34
4221
4220.89
4220.64
4220.7
4220.65
4220.81
4220.74
4221.32
4222.61
4269.23
4381.96
37003.3
8261.7
7571.11
7000.17
6537.24
6166.88
5872.23
5636.1
5445.58
5289.41
5160.55
5052.32
4961.23
4883.07
4816.27
4757.9
4707.44
4662.63
4623.56
4588.37
4557.53
4529.35
4504.58
4481.67
4461.49
4442.58
4425.95
4410.17
4396.32
4383
4371.36
4360.03
4350.17
4340.45
4332.05
4323.64
4316.44
4309.14
4302.94
4296.57
4291.19
4285.63
4280.96
4276.03
4271.98
4267.65
4264.1
4260.28
4257.13
4253.76
4251.01
4248.04
4245.63
4243.07
4240.91
4238.61
4236.73
4234.69
4233.03
4231.2
4229.75
4228.17
4226.97
4225.53
4224.53
4223.28
4222.43
4221.29
4220.56
4219.58
4219
4218.16
4217.68
4216.97
4216.57
4215.9
4215.48
4214.82
4214.44
4213.84
4213.51
4212.98
4212.71
4212.24
4212.04
4211.68
4211.57
4211.3
4211.35
4211.28
4211.42
4211.34
4211.91
4213.26
4261.27
4374.68
34693.8
8261.7
7571.24
7000.26
6536.96
6166
5870.65
5633.79
5442.58
5285.79
5156.37
5047.64
4956.1
4877.55
4810.41
4751.72
4700.98
4655.92
4616.64
4581.24
4550.21
4521.87
4496.96
4473.9
4453.6
4434.57
4417.83
4401.96
4388.01
4374.61
4362.9
4351.48
4341.56
4331.77
4323.32
4314.85
4307.6
4300.25
4294.01
4287.59
4282.17
4276.57
4271.87
4266.91
4262.82
4258.46
4254.88
4251.03
4247.86
4244.46
4241.68
4238.69
4236.26
4233.67
4231.49
4229.18
4227.27
4225.22
4223.55
4221.7
4220.23
4218.63
4217.42
4215.97
4214.95
4213.69
4212.82
4211.67
4210.93
4209.93
4209.34
4208.49
4208
4207.28
4206.87
4206.19
4205.76
4205.1
4204.71
4204.1
4203.77
4203.22
4202.94
4202.46
4202.25
4201.88
4201.76
4201.48
4201.51
4201.43
4201.55
4201.45
4202.01
4203.41
4252.76
4366.9
32496.9
8261.69
7571.37
7000.34
6536.68
6165.1
5869.01
5631.4
5439.47
5282.02
5152
5042.75
4950.75
4871.78
4804.27
4745.26
4694.23
4648.9
4609.38
4573.77
4542.56
4514.04
4488.96
4465.76
4445.33
4426.17
4409.33
4393.35
4379.31
4365.81
4354.02
4342.53
4332.54
4322.68
4314.16
4305.63
4298.33
4290.93
4284.64
4278.18
4272.72
4267.07
4262.33
4257.33
4253.21
4248.82
4245.21
4241.32
4238.12
4234.7
4231.9
4228.88
4226.42
4223.81
4221.62
4219.28
4217.36
4215.28
4213.59
4211.72
4210.24
4208.62
4207.4
4205.92
4204.89
4203.61
4202.74
4201.57
4200.82
4199.81
4199.21
4198.34
4197.84
4197.11
4196.69
4196
4195.57
4194.89
4194.49
4193.88
4193.53
4192.98
4192.69
4192.2
4191.98
4191.6
4191.47
4191.17
4191.18
4191.09
4191.19
4191.07
4191.62
4193.08
4243.68
4358.58
30413.9
8261.67
7571.5
7000.44
6536.4
6164.17
5867.31
5628.91
5436.23
5278.09
5147.46
5037.65
4945.17
4865.77
4797.87
4738.51
4687.17
4641.57
4601.8
4565.97
4534.55
4505.85
4480.61
4457.25
4436.67
4417.39
4400.43
4384.33
4370.2
4356.61
4344.73
4333.15
4323.09
4313.16
4304.58
4295.99
4288.63
4281.17
4274.83
4268.32
4262.81
4257.12
4252.34
4247.3
4243.15
4238.72
4235.07
4231.16
4227.93
4224.48
4221.65
4218.6
4216.12
4213.48
4211.27
4208.9
4206.97
4204.87
4203.16
4201.27
4199.78
4198.14
4196.9
4195.4
4194.36
4193.06
4192.17
4190.99
4190.23
4189.2
4188.59
4187.71
4187.2
4186.46
4186.03
4185.33
4184.88
4184.2
4183.79
4183.16
4182.81
4182.24
4181.95
4181.44
4181.21
4180.82
4180.68
4180.37
4180.36
4180.26
4180.34
4180.2
4180.74
4182.26
4233.98
4349.67
28446.3
8261.66
7571.64
7000.54
6536.11
6163.22
5865.57
5626.34
5432.88
5274.02
5142.74
5032.35
4939.36
4859.5
4791.2
4731.48
4679.82
4633.92
4593.9
4557.82
4526.19
4497.29
4471.88
4448.36
4427.64
4408.22
4391.13
4374.92
4360.68
4346.99
4335.02
4323.36
4313.22
4303.21
4294.56
4285.9
4278.48
4270.97
4264.58
4258.01
4252.46
4246.71
4241.9
4236.82
4232.62
4228.15
4224.48
4220.53
4217.27
4213.79
4210.93
4207.85
4205.35
4202.68
4200.45
4198.06
4196.1
4193.97
4192.26
4190.34
4188.83
4187.17
4185.91
4184.4
4183.34
4182.02
4181.12
4179.92
4179.15
4178.1
4177.48
4176.58
4176.06
4175.31
4174.87
4174.16
4173.71
4173.01
4172.59
4171.95
4171.59
4171.01
4170.71
4170.19
4169.95
4169.55
4169.4
4169.07
4169.05
4168.93
4168.98
4168.82
4169.35
4170.93
4223.66
4340.14
26595.2
8261.65
7571.79
7000.65
6535.82
6162.25
5863.77
5623.69
5429.41
5269.8
5137.85
5026.85
4933.32
4852.98
4784.26
4724.16
4672.16
4625.96
4585.66
4549.34
4517.49
4488.38
4462.78
4439.09
4418.22
4398.65
4381.44
4365.1
4350.75
4336.95
4324.89
4313.13
4302.91
4292.82
4284.1
4275.37
4267.9
4260.32
4253.87
4247.25
4241.65
4235.85
4230.99
4225.87
4221.64
4217.13
4213.42
4209.43
4206.14
4202.62
4199.74
4196.63
4194.1
4191.4
4189.15
4186.73
4184.75
4182.6
4180.86
4178.92
4177.4
4175.71
4174.44
4172.91
4171.83
4170.49
4169.58
4168.36
4167.58
4166.51
4165.87
4164.96
4164.43
4163.66
4163.22
4162.49
4162.03
4161.32
4160.9
4160.25
4159.87
4159.28
4158.97
4158.44
4158.19
4157.77
4157.61
4157.27
4157.23
4157.09
4157.13
4156.94
4157.46
4159.1
4212.71
4329.96
24861.9
8261.63
7571.93
7000.76
6535.53
6161.25
5861.92
5620.95
5425.83
5265.43
5132.78
5021.15
4927.06
4846.22
4777.06
4716.55
4664.2
4617.68
4577.1
4540.51
4508.43
4479.11
4453.32
4429.44
4408.41
4388.69
4371.34
4354.87
4340.41
4326.5
4314.34
4302.48
4292.18
4282
4273.21
4264.41
4256.86
4249.22
4242.71
4236.03
4230.38
4224.53
4219.63
4214.46
4210.18
4205.63
4201.88
4197.86
4194.54
4190.98
4188.07
4184.93
4182.37
4179.64
4177.36
4174.91
4172.92
4170.74
4168.98
4167.02
4165.48
4163.76
4162.48
4160.92
4159.83
4158.47
4157.54
4156.31
4155.51
4154.42
4153.77
4152.84
4152.3
4151.52
4151.06
4150.32
4149.86
4149.13
4148.7
4148.03
4147.65
4147.05
4146.72
4146.18
4145.91
4145.49
4145.31
4144.96
4144.9
4144.75
4144.76
4144.54
4145.06
4146.75
4201.14
4319.07
23247.2
8261.62
7572.08
7000.88
6535.24
6160.24
5860.02
5618.14
5422.14
5260.92
5127.54
5015.25
4920.58
4839.21
4769.59
4708.67
4655.95
4609.09
4568.21
4531.35
4499.02
4469.47
4443.48
4419.41
4398.21
4378.33
4360.84
4344.24
4329.65
4315.62
4303.36
4291.41
4281.01
4270.74
4261.87
4252.99
4245.38
4237.66
4231.1
4224.35
4218.65
4212.75
4207.8
4202.57
4198.26
4193.66
4189.88
4185.81
4182.46
4178.86
4175.92
4172.74
4170.15
4167.39
4165.09
4162.61
4160.59
4158.39
4156.61
4154.62
4153.06
4151.32
4150.01
4148.43
4147.32
4145.95
4145
4143.75
4142.93
4141.83
4141.17
4140.22
4139.67
4138.86
4138.4
4137.65
4137.17
4136.44
4135.99
4135.31
4134.92
4134.3
4133.96
4133.4
4133.13
4132.69
4132.5
4132.14
4132.06
4131.9
4131.88
4131.63
4132.14
4133.88
4188.94
4307.46
21746.7
8261.6
7572.24
7001.01
6534.95
6159.2
5858.09
5615.25
5418.34
5256.28
5122.13
5009.16
4913.87
4831.96
4761.85
4700.5
4647.39
4600.18
4558.99
4521.84
4489.26
4459.47
4433.27
4409
4387.63
4367.58
4349.94
4333.19
4318.48
4304.33
4291.95
4279.89
4269.4
4259.04
4250.09
4241.13
4233.44
4225.65
4219.03
4212.22
4206.46
4200.5
4195.5
4190.22
4185.86
4181.22
4177.39
4173.28
4169.89
4166.26
4163.28
4160.07
4157.45
4154.66
4152.33
4149.82
4147.77
4145.54
4143.74
4141.72
4140.14
4138.37
4137.05
4135.45
4134.32
4132.92
4131.96
4130.69
4129.86
4128.74
4128.05
4127.09
4126.52
4125.7
4125.22
4124.46
4123.97
4123.22
4122.77
4122.07
4121.67
4121.04
4120.69
4120.12
4119.83
4119.37
4119.17
4118.79
4118.7
4118.52
4118.48
4118.2
4118.7
4120.49
4176.11
4295.08
20355.9
8261.58
7572.39
7001.14
6534.66
6158.16
5856.11
5612.29
5414.43
5251.49
5116.55
5002.87
4906.95
4824.47
4753.86
4692.04
4638.54
4590.96
4549.44
4511.99
4479.14
4449.11
4422.68
4398.21
4376.65
4356.43
4338.63
4321.73
4306.89
4292.61
4280.12
4267.95
4257.36
4246.9
4237.86
4228.81
4221.05
4213.19
4206.49
4199.62
4193.8
4187.78
4182.72
4177.39
4172.99
4168.29
4164.42
4160.27
4156.85
4153.17
4150.16
4146.9
4144.26
4141.42
4139.07
4136.52
4134.46
4132.19
4130.37
4128.33
4126.73
4124.93
4123.59
4121.96
4120.81
4119.38
4118.41
4117.11
4116.27
4115.13
4114.43
4113.44
4112.86
4112.03
4111.54
4110.76
4110.26
4109.5
4109.03
4108.32
4107.9
4107.25
4106.89
4106.31
4106.01
4105.53
4105.32
4104.93
4104.82
4104.62
4104.56
4104.24
4104.74
4106.57
4162.65
4281.89
19069.8
8261.56
7572.55
7001.28
6534.37
6157.1
5854.09
5609.26
5410.43
5246.58
5110.82
4996.39
4899.81
4816.74
4745.6
4683.31
4629.39
4581.42
4539.57
4501.8
4468.67
4438.38
4411.72
4387.04
4365.28
4344.88
4326.92
4309.86
4294.88
4280.46
4267.85
4255.56
4244.87
4234.31
4225.19
4216.04
4208.21
4200.26
4193.5
4186.55
4180.67
4174.58
4169.48
4164.09
4159.63
4154.88
4150.97
4146.77
4143.31
4139.59
4136.54
4133.25
4130.57
4127.7
4125.31
4122.73
4120.64
4118.34
4116.5
4114.43
4112.8
4110.97
4109.61
4107.96
4106.79
4105.34
4104.34
4103.03
4102.17
4101
4100.29
4099.28
4098.69
4097.83
4097.33
4096.53
4096.03
4095.25
4094.77
4094.04
4093.62
4092.95
4092.58
4091.98
4091.66
4091.17
4090.95
4090.54
4090.41
4090.2
4090.11
4089.76
4090.24
4092.12
4148.56
4267.88
17883.2
8261.53
7572.71
7001.43
6534.09
6156.02
5852.03
5606.17
5406.32
5241.54
5104.92
4989.72
4892.46
4808.77
4737.09
4674.31
4619.94
4571.58
4529.37
4491.28
4457.86
4427.29
4400.39
4375.48
4353.52
4332.93
4314.8
4297.58
4282.45
4267.89
4255.16
4242.75
4231.95
4221.28
4212.06
4202.82
4194.9
4186.87
4180.04
4173.01
4167.07
4160.92
4155.75
4150.3
4145.8
4140.99
4137.04
4132.79
4129.28
4125.52
4122.43
4119.1
4116.38
4113.47
4111.06
4108.44
4106.32
4103.99
4102.12
4100.02
4098.37
4096.51
4095.13
4093.45
4092.26
4090.78
4089.77
4088.43
4087.55
4086.36
4085.63
4084.61
4083.99
4083.12
4082.6
4081.79
4081.27
4080.48
4079.99
4079.24
4078.8
4078.12
4077.73
4077.12
4076.79
4076.28
4076.04
4075.61
4075.47
4075.24
4075.13
4074.74
4075.22
4077.13
4133.83
4252.99
16790.5
8261.51
7572.87
7001.59
6533.81
6154.94
5849.95
5603.01
5402.13
5236.37
5098.87
4982.87
4884.9
4800.58
4728.32
4665.03
4610.2
4561.43
4518.84
4480.41
4446.69
4415.84
4388.69
4363.54
4341.38
4320.58
4302.27
4284.88
4269.6
4254.89
4242.03
4229.49
4218.58
4207.8
4198.48
4189.15
4181.14
4173.02
4166.11
4159.01
4153
4146.77
4141.55
4136.04
4131.48
4126.62
4122.61
4118.31
4114.76
4110.95
4107.83
4104.45
4101.7
4098.74
4096.3
4093.64
4091.5
4089.13
4087.24
4085.1
4083.43
4081.54
4080.13
4078.42
4077.21
4075.7
4074.67
4073.31
4072.41
4071.2
4070.45
4069.4
4068.77
4067.88
4067.35
4066.52
4065.99
4065.18
4064.68
4063.92
4063.46
4062.76
4062.36
4061.73
4061.39
4060.86
4060.61
4060.16
4059.99
4059.75
4059.62
4059.19
4059.66
4061.6
4118.47
4237.21
15786.1
8261.48
7573.03
7001.75
6533.54
6153.85
5847.83
5599.8
5397.85
5231.08
5092.67
4975.85
4877.14
4792.15
4719.3
4655.48
4600.18
4550.97
4508
4469.22
4435.18
4404.03
4376.62
4351.22
4328.84
4307.83
4289.34
4271.77
4256.33
4241.47
4228.47
4215.8
4204.77
4193.87
4184.45
4175.01
4166.92
4158.71
4151.72
4144.53
4138.45
4132.15
4126.87
4121.29
4116.67
4111.76
4107.7
4103.34
4099.75
4095.89
4092.73
4089.3
4086.51
4083.51
4081.04
4078.34
4076.16
4073.76
4071.84
4069.67
4067.98
4066.05
4064.62
4062.88
4061.65
4060.11
4059.06
4057.67
4056.75
4055.52
4054.75
4053.68
4053.03
4052.12
4051.57
4050.72
4050.18
4049.35
4048.84
4048.06
4047.59
4046.87
4046.46
4045.8
4045.45
4044.9
4044.63
4044.17
4043.99
4043.72
4043.58
4043.1
4043.56
4045.52
4102.47
4220.52
14864.2
8261.46
7573.2
7001.92
6533.28
6152.76
5845.69
5596.53
5393.48
5225.68
5086.33
4968.65
4869.18
4783.5
4710.04
4645.66
4589.87
4540.21
4496.84
4457.69
4423.32
4391.87
4364.18
4338.53
4315.92
4294.69
4276
4258.25
4242.65
4227.62
4214.48
4201.67
4190.52
4179.5
4169.97
4160.43
4152.23
4143.93
4136.86
4129.59
4123.43
4117.06
4111.71
4106.06
4101.38
4096.4
4092.3
4087.88
4084.25
4080.33
4077.12
4073.65