/*--------------------------------*- C++ -*----------------------------------*\
| =========                 |                                                 |
| \\      /  F ield         | OpenFOAM: The Open Source CFD Toolbox           |
|  \\    /   O peration     | Version:  v2012                                 |
|   \\  /    A nd           | Website:  www.openfoam.com                      |
|    \\/     M anipulation  |                                                 |
\*---------------------------------------------------------------------------*/
FoamFile
{
    version     2.0;
    format      ascii;
    class       volVectorField;
    location    "50.5";
    object      wallShearStress;
}
// * * * * * * * * * * * * * * * * * * * * * * * * * * * * * * * * * * * * * //

dimensions      [0 2 -2 0 0 0 0];


internalField   uniform (0 0 0);

boundaryField
{
    inlet
    {
        type            calculated;
        value           uniform (0 0 0);
    }
    outlet
    {
        type            calculated;
        value           uniform (0 0 0);
    }
    topWall
    {
        type            calculated;
        value           nonuniform List<vector> 
545
(
(3.6745e-08 -2.58653e-08 0)
(3.67336e-08 -7.23553e-08 0)
(3.67136e-08 -1.20699e-07 0)
(3.66852e-08 -1.67645e-07 0)
(3.66494e-08 -2.12593e-07 0)
(3.66071e-08 -2.5612e-07 0)
(3.65588e-08 -2.98596e-07 0)
(3.65049e-08 -3.40003e-07 0)
(3.6446e-08 -3.80248e-07 0)
(3.63823e-08 -4.19332e-07 0)
(3.63145e-08 -4.57306e-07 0)
(3.62429e-08 -4.94214e-07 0)
(3.61678e-08 -5.3008e-07 0)
(3.60897e-08 -5.64926e-07 0)
(3.60088e-08 -5.98777e-07 0)
(3.59255e-08 -6.3166e-07 0)
(3.58402e-08 -6.63601e-07 0)
(3.57529e-08 -6.94624e-07 0)
(3.56641e-08 -7.24755e-07 0)
(3.55739e-08 -7.54018e-07 0)
(3.54826e-08 -7.82436e-07 0)
(3.53904e-08 -8.10033e-07 0)
(3.52974e-08 -8.36833e-07 0)
(3.5204e-08 -8.62856e-07 0)
(3.51101e-08 -8.88126e-07 0)
(3.50161e-08 -9.12664e-07 0)
(3.4922e-08 -9.36491e-07 0)
(3.48279e-08 -9.59627e-07 0)
(3.47341e-08 -9.82093e-07 0)
(3.46406e-08 -1.00391e-06 0)
(3.45475e-08 -1.02509e-06 0)
(3.44549e-08 -1.04566e-06 0)
(3.43629e-08 -1.06563e-06 0)
(3.42717e-08 -1.08502e-06 0)
(3.41811e-08 -1.10385e-06 0)
(3.40915e-08 -1.12214e-06 0)
(3.40027e-08 -1.1399e-06 0)
(3.39148e-08 -1.15714e-06 0)
(3.3828e-08 -1.17389e-06 0)
(3.37422e-08 -1.19015e-06 0)
(3.36575e-08 -1.20595e-06 0)
(3.35739e-08 -1.22129e-06 0)
(3.34915e-08 -1.23619e-06 0)
(3.34103e-08 -1.25066e-06 0)
(3.33302e-08 -1.26471e-06 0)
(3.32514e-08 -1.27837e-06 0)
(3.31738e-08 -1.29163e-06 0)
(3.30975e-08 -1.30451e-06 0)
(3.30224e-08 -1.31702e-06 0)
(3.29486e-08 -1.32918e-06 0)
(3.28761e-08 -1.34099e-06 0)
(3.28049e-08 -1.35246e-06 0)
(3.27349e-08 -1.3636e-06 0)
(3.26662e-08 -1.37443e-06 0)
(3.25988e-08 -1.38495e-06 0)
(3.25327e-08 -1.39518e-06 0)
(3.24678e-08 -1.40511e-06 0)
(3.24042e-08 -1.41476e-06 0)
(3.23419e-08 -1.42414e-06 0)
(3.22808e-08 -1.43326e-06 0)
(3.22209e-08 -1.44212e-06 0)
(3.21622e-08 -1.45072e-06 0)
(3.21048e-08 -1.45909e-06 0)
(3.20485e-08 -1.46722e-06 0)
(3.19934e-08 -1.47512e-06 0)
(3.19395e-08 -1.48281e-06 0)
(3.18867e-08 -1.49027e-06 0)
(3.18351e-08 -1.49753e-06 0)
(3.17846e-08 -1.50459e-06 0)
(3.17352e-08 -1.51144e-06 0)
(3.16868e-08 -1.51811e-06 0)
(3.16399e-08 -1.52459e-06 0)
(3.15942e-08 -1.53082e-06 0)
(3.15492e-08 -1.53686e-06 0)
(3.15047e-08 -1.54284e-06 0)
(3.14603e-08 -1.54879e-06 0)
(3.1416e-08 -1.55472e-06 0)
(3.13717e-08 -1.56061e-06 0)
(3.13274e-08 -1.56646e-06 0)
(3.12832e-08 -1.57228e-06 0)
(3.1239e-08 -1.57806e-06 0)
(3.11949e-08 -1.58381e-06 0)
(3.11508e-08 -1.58952e-06 0)
(3.11068e-08 -1.5952e-06 0)
(3.10628e-08 -1.60085e-06 0)
(3.10188e-08 -1.60646e-06 0)
(3.09749e-08 -1.61204e-06 0)
(3.09311e-08 -1.61758e-06 0)
(3.08873e-08 -1.62309e-06 0)
(3.08436e-08 -1.62857e-06 0)
(3.07999e-08 -1.63402e-06 0)
(3.07563e-08 -1.63943e-06 0)
(3.07127e-08 -1.64481e-06 0)
(3.06693e-08 -1.65016e-06 0)
(3.06255e-08 -1.65548e-06 0)
(3.05839e-08 -1.66072e-06 0)
(3.05454e-08 -1.66552e-06 0)
(3.05081e-08 -1.66987e-06 0)
(3.04722e-08 -1.6741e-06 0)
(3.04364e-08 -1.67835e-06 0)
(3.04006e-08 -1.68264e-06 0)
(3.03645e-08 -1.68695e-06 0)
(3.03283e-08 -1.69125e-06 0)
(3.0292e-08 -1.69555e-06 0)
(3.02554e-08 -1.69985e-06 0)
(3.02187e-08 -1.70417e-06 0)
(3.01818e-08 -1.70848e-06 0)
(3.01447e-08 -1.71281e-06 0)
(3.01075e-08 -1.71713e-06 0)
(3.00701e-08 -1.72146e-06 0)
(3.00325e-08 -1.7258e-06 0)
(2.99947e-08 -1.73014e-06 0)
(2.99567e-08 -1.73449e-06 0)
(2.99186e-08 -1.73884e-06 0)
(2.98803e-08 -1.7432e-06 0)
(2.98418e-08 -1.74756e-06 0)
(2.98031e-08 -1.75192e-06 0)
(2.97643e-08 -1.75629e-06 0)
(2.97252e-08 -1.76067e-06 0)
(2.9686e-08 -1.76505e-06 0)
(2.96466e-08 -1.76943e-06 0)
(2.9607e-08 -1.77382e-06 0)
(2.95673e-08 -1.77821e-06 0)
(2.95273e-08 -1.78261e-06 0)
(2.94872e-08 -1.78701e-06 0)
(2.94468e-08 -1.79141e-06 0)
(2.94063e-08 -1.79582e-06 0)
(2.93656e-08 -1.80024e-06 0)
(2.93248e-08 -1.80466e-06 0)
(2.92837e-08 -1.80908e-06 0)
(2.92424e-08 -1.8135e-06 0)
(2.9201e-08 -1.81794e-06 0)
(2.91593e-08 -1.82237e-06 0)
(2.91175e-08 -1.82681e-06 0)
(2.90755e-08 -1.83125e-06 0)
(2.90333e-08 -1.8357e-06 0)
(2.89909e-08 -1.84015e-06 0)
(2.89483e-08 -1.84461e-06 0)
(2.89055e-08 -1.84907e-06 0)
(2.88626e-08 -1.85353e-06 0)
(2.88194e-08 -1.858e-06 0)
(2.87761e-08 -1.86247e-06 0)
(2.87325e-08 -1.86694e-06 0)
(2.86888e-08 -1.87142e-06 0)
(2.86448e-08 -1.8759e-06 0)
(2.86007e-08 -1.88039e-06 0)
(2.85564e-08 -1.88488e-06 0)
(2.85118e-08 -1.88937e-06 0)
(2.84671e-08 -1.89387e-06 0)
(2.84222e-08 -1.89837e-06 0)
(2.83771e-08 -1.90287e-06 0)
(2.83318e-08 -1.90738e-06 0)
(2.82863e-08 -1.91189e-06 0)
(2.82406e-08 -1.9164e-06 0)
(2.81947e-08 -1.92092e-06 0)
(2.81486e-08 -1.92544e-06 0)
(2.81023e-08 -1.92996e-06 0)
(2.80558e-08 -1.93449e-06 0)
(2.8009e-08 -1.93902e-06 0)
(2.79621e-08 -1.94355e-06 0)
(2.7915e-08 -1.94809e-06 0)
(2.78677e-08 -1.95263e-06 0)
(2.78202e-08 -1.95717e-06 0)
(2.77725e-08 -1.96172e-06 0)
(2.77246e-08 -1.96626e-06 0)
(2.76765e-08 -1.97081e-06 0)
(2.76282e-08 -1.97537e-06 0)
(2.75796e-08 -1.97992e-06 0)
(2.75309e-08 -1.98448e-06 0)
(2.7482e-08 -1.98905e-06 0)
(2.74328e-08 -1.99361e-06 0)
(2.73835e-08 -1.99818e-06 0)
(2.7334e-08 -2.00275e-06 0)
(2.72842e-08 -2.00732e-06 0)
(2.72342e-08 -2.01189e-06 0)
(2.71841e-08 -2.01647e-06 0)
(2.71337e-08 -2.02105e-06 0)
(2.70831e-08 -2.02563e-06 0)
(2.70324e-08 -2.03021e-06 0)
(2.69814e-08 -2.0348e-06 0)
(2.69302e-08 -2.03938e-06 0)
(2.68788e-08 -2.04397e-06 0)
(2.68272e-08 -2.04857e-06 0)
(2.67753e-08 -2.05316e-06 0)
(2.67233e-08 -2.05775e-06 0)
(2.66711e-08 -2.06235e-06 0)
(2.66186e-08 -2.06695e-06 0)
(2.6566e-08 -2.07155e-06 0)
(2.65131e-08 -2.07616e-06 0)
(2.64601e-08 -2.08076e-06 0)
(2.64068e-08 -2.08537e-06 0)
(2.63533e-08 -2.08997e-06 0)
(2.62996e-08 -2.09458e-06 0)
(2.62457e-08 -2.09919e-06 0)
(2.61916e-08 -2.1038e-06 0)
(2.61372e-08 -2.10842e-06 0)
(2.60827e-08 -2.11303e-06 0)
(2.60279e-08 -2.11765e-06 0)
(2.5973e-08 -2.12226e-06 0)
(2.59178e-08 -2.12688e-06 0)
(2.58624e-08 -2.1315e-06 0)
(2.58069e-08 -2.13612e-06 0)
(2.57511e-08 -2.14074e-06 0)
(2.5695e-08 -2.14536e-06 0)
(2.56388e-08 -2.14998e-06 0)
(2.55824e-08 -2.15461e-06 0)
(2.55257e-08 -2.15923e-06 0)
(2.54689e-08 -2.16385e-06 0)
(2.54118e-08 -2.16848e-06 0)
(2.53546e-08 -2.17311e-06 0)
(2.52971e-08 -2.17773e-06 0)
(2.52394e-08 -2.18236e-06 0)
(2.51815e-08 -2.18698e-06 0)
(2.51234e-08 -2.19161e-06 0)
(2.5065e-08 -2.19624e-06 0)
(2.50065e-08 -2.20086e-06 0)
(2.49477e-08 -2.20549e-06 0)
(2.48888e-08 -2.21012e-06 0)
(2.48296e-08 -2.21474e-06 0)
(2.47702e-08 -2.21937e-06 0)
(2.47106e-08 -2.224e-06 0)
(2.46509e-08 -2.22862e-06 0)
(2.45908e-08 -2.23325e-06 0)
(2.45306e-08 -2.23788e-06 0)
(2.44702e-08 -2.2425e-06 0)
(2.44096e-08 -2.24712e-06 0)
(2.43487e-08 -2.25175e-06 0)
(2.42877e-08 -2.25637e-06 0)
(2.42264e-08 -2.26099e-06 0)
(2.4165e-08 -2.26562e-06 0)
(2.41033e-08 -2.27024e-06 0)
(2.40414e-08 -2.27486e-06 0)
(2.39793e-08 -2.27947e-06 0)
(2.3917e-08 -2.28409e-06 0)
(2.38545e-08 -2.28871e-06 0)
(2.37918e-08 -2.29332e-06 0)
(2.37289e-08 -2.29794e-06 0)
(2.36658e-08 -2.30255e-06 0)
(2.36024e-08 -2.30716e-06 0)
(2.35389e-08 -2.31177e-06 0)
(2.34752e-08 -2.31638e-06 0)
(2.34112e-08 -2.32098e-06 0)
(2.33471e-08 -2.32559e-06 0)
(2.32827e-08 -2.33019e-06 0)
(2.32182e-08 -2.33479e-06 0)
(2.31534e-08 -2.33939e-06 0)
(2.30885e-08 -2.34399e-06 0)
(2.30233e-08 -2.34858e-06 0)
(2.2958e-08 -2.35317e-06 0)
(2.28924e-08 -2.35776e-06 0)
(2.28267e-08 -2.36235e-06 0)
(2.27607e-08 -2.36694e-06 0)
(2.26945e-08 -2.37152e-06 0)
(2.26282e-08 -2.3761e-06 0)
(2.25616e-08 -2.38068e-06 0)
(2.24949e-08 -2.38525e-06 0)
(2.2428e-08 -2.38982e-06 0)
(2.23608e-08 -2.39439e-06 0)
(2.22935e-08 -2.39896e-06 0)
(2.22259e-08 -2.40352e-06 0)
(2.21582e-08 -2.40808e-06 0)
(2.20903e-08 -2.41264e-06 0)
(2.20222e-08 -2.41719e-06 0)
(2.19539e-08 -2.42174e-06 0)
(2.18854e-08 -2.42629e-06 0)
(2.18167e-08 -2.43083e-06 0)
(2.17479e-08 -2.43537e-06 0)
(2.16785e-08 -2.43991e-06 0)
(2.1611e-08 -2.44441e-06 0)
(2.15461e-08 -2.44871e-06 0)
(2.14822e-08 -2.45278e-06 0)
(2.14189e-08 -2.45683e-06 0)
(2.13553e-08 -2.46091e-06 0)
(2.12911e-08 -2.46505e-06 0)
(2.12262e-08 -2.46922e-06 0)
(2.11605e-08 -2.47342e-06 0)
(2.10941e-08 -2.47765e-06 0)
(2.1027e-08 -2.48191e-06 0)
(2.09592e-08 -2.48621e-06 0)
(2.08906e-08 -2.49054e-06 0)
(2.08213e-08 -2.4949e-06 0)
(2.07512e-08 -2.49929e-06 0)
(2.06803e-08 -2.50372e-06 0)
(2.06086e-08 -2.50818e-06 0)
(2.05362e-08 -2.51267e-06 0)
(2.0463e-08 -2.51719e-06 0)
(2.03889e-08 -2.52175e-06 0)
(2.03141e-08 -2.52634e-06 0)
(2.02385e-08 -2.53097e-06 0)
(2.0162e-08 -2.53562e-06 0)
(2.00847e-08 -2.54031e-06 0)
(2.00066e-08 -2.54503e-06 0)
(1.99277e-08 -2.54978e-06 0)
(1.98479e-08 -2.55457e-06 0)
(1.97672e-08 -2.55939e-06 0)
(1.96857e-08 -2.56424e-06 0)
(1.96033e-08 -2.56912e-06 0)
(1.95201e-08 -2.57404e-06 0)
(1.9436e-08 -2.57898e-06 0)
(1.93509e-08 -2.58396e-06 0)
(1.9265e-08 -2.58897e-06 0)
(1.91782e-08 -2.59402e-06 0)
(1.90905e-08 -2.59909e-06 0)
(1.90019e-08 -2.6042e-06 0)
(1.89123e-08 -2.60934e-06 0)
(1.88218e-08 -2.61451e-06 0)
(1.87304e-08 -2.61971e-06 0)
(1.86381e-08 -2.62494e-06 0)
(1.85448e-08 -2.6302e-06 0)
(1.84506e-08 -2.63549e-06 0)
(1.83554e-08 -2.64081e-06 0)
(1.82592e-08 -2.64616e-06 0)
(1.81621e-08 -2.65154e-06 0)
(1.8064e-08 -2.65695e-06 0)
(1.79649e-08 -2.66239e-06 0)
(1.78649e-08 -2.66786e-06 0)
(1.77639e-08 -2.67336e-06 0)
(1.76618e-08 -2.67888e-06 0)
(1.75588e-08 -2.68443e-06 0)
(1.74548e-08 -2.69001e-06 0)
(1.73498e-08 -2.69562e-06 0)
(1.72437e-08 -2.70125e-06 0)
(1.71367e-08 -2.70691e-06 0)
(1.70286e-08 -2.71259e-06 0)
(1.69195e-08 -2.7183e-06 0)
(1.68094e-08 -2.72404e-06 0)
(1.66983e-08 -2.7298e-06 0)
(1.65862e-08 -2.73558e-06 0)
(1.6473e-08 -2.74139e-06 0)
(1.63588e-08 -2.74721e-06 0)
(1.62435e-08 -2.75306e-06 0)
(1.61272e-08 -2.75894e-06 0)
(1.60099e-08 -2.76483e-06 0)
(1.58916e-08 -2.77074e-06 0)
(1.57722e-08 -2.77668e-06 0)
(1.56518e-08 -2.78263e-06 0)
(1.55304e-08 -2.7886e-06 0)
(1.54079e-08 -2.79459e-06 0)
(1.52844e-08 -2.80059e-06 0)
(1.51598e-08 -2.80661e-06 0)
(1.50342e-08 -2.81265e-06 0)
(1.49077e-08 -2.8187e-06 0)
(1.478e-08 -2.82476e-06 0)
(1.46514e-08 -2.83084e-06 0)
(1.45217e-08 -2.83693e-06 0)
(1.43911e-08 -2.84303e-06 0)
(1.42594e-08 -2.84914e-06 0)
(1.41267e-08 -2.85526e-06 0)
(1.39931e-08 -2.86139e-06 0)
(1.38584e-08 -2.86753e-06 0)
(1.37228e-08 -2.87367e-06 0)
(1.35862e-08 -2.87982e-06 0)
(1.34486e-08 -2.88597e-06 0)
(1.33101e-08 -2.89213e-06 0)
(1.31706e-08 -2.89828e-06 0)
(1.30302e-08 -2.90444e-06 0)
(1.28889e-08 -2.9106e-06 0)
(1.27467e-08 -2.91676e-06 0)
(1.26035e-08 -2.92291e-06 0)
(1.24595e-08 -2.92907e-06 0)
(1.23146e-08 -2.93521e-06 0)
(1.21688e-08 -2.94135e-06 0)
(1.20222e-08 -2.94748e-06 0)
(1.18748e-08 -2.95361e-06 0)
(1.17265e-08 -2.95972e-06 0)
(1.15775e-08 -2.96582e-06 0)
(1.14276e-08 -2.97191e-06 0)
(1.12771e-08 -2.97799e-06 0)
(1.11257e-08 -2.98405e-06 0)
(1.09737e-08 -2.99009e-06 0)
(1.08209e-08 -2.99611e-06 0)
(1.06675e-08 -3.00211e-06 0)
(1.05134e-08 -3.0081e-06 0)
(1.03587e-08 -3.01405e-06 0)
(1.02034e-08 -3.01999e-06 0)
(1.00475e-08 -3.02589e-06 0)
(9.8911e-09 -3.03177e-06 0)
(9.73413e-09 -3.03762e-06 0)
(9.57666e-09 -3.04344e-06 0)
(9.41872e-09 -3.04922e-06 0)
(9.26034e-09 -3.05497e-06 0)
(9.10155e-09 -3.06069e-06 0)
(8.94238e-09 -3.06636e-06 0)
(8.78287e-09 -3.072e-06 0)
(8.62304e-09 -3.07759e-06 0)
(8.46293e-09 -3.08314e-06 0)
(8.30258e-09 -3.08865e-06 0)
(8.14202e-09 -3.0941e-06 0)
(7.98128e-09 -3.09951e-06 0)
(7.82041e-09 -3.10487e-06 0)
(7.65944e-09 -3.11018e-06 0)
(7.4984e-09 -3.11543e-06 0)
(7.33735e-09 -3.12063e-06 0)
(7.17632e-09 -3.12577e-06 0)
(7.01535e-09 -3.13085e-06 0)
(6.85449e-09 -3.13587e-06 0)
(6.69376e-09 -3.14082e-06 0)
(6.53323e-09 -3.14571e-06 0)
(6.37293e-09 -3.15053e-06 0)
(6.2129e-09 -3.15528e-06 0)
(6.0532e-09 -3.15997e-06 0)
(5.89386e-09 -3.16458e-06 0)
(5.73493e-09 -3.16911e-06 0)
(5.57647e-09 -3.17357e-06 0)
(5.41851e-09 -3.17795e-06 0)
(5.2611e-09 -3.18226e-06 0)
(5.1043e-09 -3.18648e-06 0)
(4.94814e-09 -3.19061e-06 0)
(4.79269e-09 -3.19466e-06 0)
(4.63798e-09 -3.19863e-06 0)
(4.48407e-09 -3.2025e-06 0)
(4.331e-09 -3.20629e-06 0)
(4.17883e-09 -3.20999e-06 0)
(4.02761e-09 -3.21359e-06 0)
(3.87738e-09 -3.21709e-06 0)
(3.7282e-09 -3.2205e-06 0)
(3.58011e-09 -3.22381e-06 0)
(3.43317e-09 -3.22702e-06 0)
(3.28742e-09 -3.23013e-06 0)
(3.14291e-09 -3.23314e-06 0)
(2.99969e-09 -3.23604e-06 0)
(2.85782e-09 -3.23884e-06 0)
(2.71733e-09 -3.24153e-06 0)
(2.57829e-09 -3.24412e-06 0)
(2.44073e-09 -3.24659e-06 0)
(2.3047e-09 -3.24896e-06 0)
(2.17025e-09 -3.25121e-06 0)
(2.03742e-09 -3.25335e-06 0)
(1.90627e-09 -3.25538e-06 0)
(1.77683e-09 -3.25729e-06 0)
(1.64915e-09 -3.25909e-06 0)
(1.52327e-09 -3.26077e-06 0)
(1.39923e-09 -3.26233e-06 0)
(1.27708e-09 -3.26378e-06 0)
(1.15685e-09 -3.26511e-06 0)
(1.03859e-09 -3.26632e-06 0)
(9.22325e-10 -3.26741e-06 0)
(8.08102e-10 -3.26838e-06 0)
(6.95954e-10 -3.26923e-06 0)
(5.85914e-10 -3.26996e-06 0)
(4.78018e-10 -3.27057e-06 0)
(3.72297e-10 -3.27106e-06 0)
(2.68782e-10 -3.27143e-06 0)
(1.67502e-10 -3.27168e-06 0)
(6.84904e-11 -3.27181e-06 0)
(-2.82442e-11 -3.27181e-06 0)
(-1.22596e-10 -3.2717e-06 0)
(-2.14861e-10 -3.27147e-06 0)
(-3.03663e-10 -3.27112e-06 0)
(-3.9486e-10 -3.27064e-06 0)
(-4.90693e-10 -3.26998e-06 0)
(-5.86234e-10 -3.2691e-06 0)
(-6.80049e-10 -3.26805e-06 0)
(-7.69815e-10 -3.26685e-06 0)
(-8.55177e-10 -3.26551e-06 0)
(-9.36222e-10 -3.26404e-06 0)
(-1.01303e-09 -3.26245e-06 0)
(-1.0857e-09 -3.26073e-06 0)
(-1.15436e-09 -3.2589e-06 0)
(-1.21913e-09 -3.25696e-06 0)
(-1.28014e-09 -3.25492e-06 0)
(-1.33751e-09 -3.25278e-06 0)
(-1.39135e-09 -3.25055e-06 0)
(-1.44178e-09 -3.24824e-06 0)
(-1.48889e-09 -3.24585e-06 0)
(-1.53281e-09 -3.24339e-06 0)
(-1.57362e-09 -3.24086e-06 0)
(-1.61144e-09 -3.23827e-06 0)
(-1.64635e-09 -3.23561e-06 0)
(-1.67845e-09 -3.23291e-06 0)
(-1.70783e-09 -3.23015e-06 0)
(-1.73458e-09 -3.22735e-06 0)
(-1.75878e-09 -3.22451e-06 0)
(-1.78051e-09 -3.22163e-06 0)
(-1.79985e-09 -3.21872e-06 0)
(-1.81689e-09 -3.21578e-06 0)
(-1.83168e-09 -3.21281e-06 0)
(-1.8443e-09 -3.20982e-06 0)
(-1.85483e-09 -3.20681e-06 0)
(-1.86332e-09 -3.20379e-06 0)
(-1.86984e-09 -3.20076e-06 0)
(-1.87445e-09 -3.19771e-06 0)
(-1.87721e-09 -3.19466e-06 0)
(-1.87818e-09 -3.19161e-06 0)
(-1.8774e-09 -3.18856e-06 0)
(-1.87494e-09 -3.18551e-06 0)
(-1.87085e-09 -3.18247e-06 0)
(-1.86517e-09 -3.17943e-06 0)
(-1.85795e-09 -3.1764e-06 0)
(-1.84923e-09 -3.17339e-06 0)
(-1.83907e-09 -3.1704e-06 0)
(-1.8275e-09 -3.16742e-06 0)
(-1.81456e-09 -3.16446e-06 0)
(-1.80029e-09 -3.16152e-06 0)
(-1.78473e-09 -3.15861e-06 0)
(-1.76792e-09 -3.15572e-06 0)
(-1.7499e-09 -3.15286e-06 0)
(-1.73069e-09 -3.15004e-06 0)
(-1.71033e-09 -3.14724e-06 0)
(-1.68885e-09 -3.14448e-06 0)
(-1.66629e-09 -3.14175e-06 0)
(-1.64267e-09 -3.13907e-06 0)
(-1.61803e-09 -3.13642e-06 0)
(-1.59239e-09 -3.13381e-06 0)
(-1.56578e-09 -3.13124e-06 0)
(-1.53823e-09 -3.12872e-06 0)
(-1.50977e-09 -3.12624e-06 0)
(-1.48041e-09 -3.12381e-06 0)
(-1.4502e-09 -3.12143e-06 0)
(-1.41915e-09 -3.1191e-06 0)
(-1.38729e-09 -3.11682e-06 0)
(-1.35464e-09 -3.11459e-06 0)
(-1.32122e-09 -3.11241e-06 0)
(-1.28707e-09 -3.1103e-06 0)
(-1.2522e-09 -3.10823e-06 0)
(-1.21664e-09 -3.10622e-06 0)
(-1.18042e-09 -3.10427e-06 0)
(-1.14354e-09 -3.10238e-06 0)
(-1.10605e-09 -3.10055e-06 0)
(-1.06795e-09 -3.09879e-06 0)
(-1.02928e-09 -3.09708e-06 0)
(-9.90049e-10 -3.09544e-06 0)
(-9.50288e-10 -3.09385e-06 0)
(-9.10018e-10 -3.09234e-06 0)
(-8.6926e-10 -3.09089e-06 0)
(-8.28038e-10 -3.08951e-06 0)
(-7.86372e-10 -3.08819e-06 0)
(-7.44287e-10 -3.08695e-06 0)
(-7.01802e-10 -3.08577e-06 0)
(-6.58942e-10 -3.08466e-06 0)
(-6.15728e-10 -3.08362e-06 0)
(-5.72183e-10 -3.08265e-06 0)
(-5.28328e-10 -3.08175e-06 0)
(-4.84188e-10 -3.08092e-06 0)
(-4.39784e-10 -3.08016e-06 0)
(-3.9514e-10 -3.07949e-06 0)
(-3.50278e-10 -3.07881e-06 0)
(-3.0523e-10 -3.07849e-06 0)
(-2.6e-10 -3.07731e-06 0)
(-2.14678e-10 -3.07925e-06 0)
(-1.69116e-10 -3.07093e-06 0)
(-1.23775e-10 -3.09569e-06 0)
(-7.78911e-11 -3.00284e-06 0)
(-3.19616e-11 -3.24937e-06 0)
(-4.73882e-12 -2.83804e-06 0)
)
;
    }
    bottomWall
    {
        type            calculated;
        value           nonuniform List<vector> 
449
(
(-48.4859 -0.963448 0)
(-19.7369 -0.00514921 0)
(-14.3378 -0.00113237 0)
(-12.0362 -0.00054272 0)
(-10.6409 -0.000347183 0)
(-9.66565 -0.000248075 0)
(-8.94305 -0.000182435 0)
(-8.41407 -0.000124396 0)
(-8.08797 -5.25513e-05 0)
(-8.05345 7.00581e-05 0)
(-8.57659 0.000253321 0)
(-9.81197 0.000335997 0)
(-10.9067 0.000257369 0)
(-11.5986 0.00015461 0)
(-11.9832 8.51875e-05 0)
(-12.1935 4.50033e-05 0)
(-12.2983 2.02096e-05 0)
(-12.3352 3.33123e-06 0)
(-12.3216 -7.74944e-06 0)
(-12.2804 -1.43264e-05 0)
(-12.2202 -1.86971e-05 0)
(-12.1479 -2.12184e-05 0)
(-12.0694 -2.23921e-05 0)
(-11.9883 -2.27769e-05 0)
(-11.9068 -2.26943e-05 0)
(-11.8259 -2.23523e-05 0)
(-11.7464 -2.18466e-05 0)
(-11.6688 -2.12187e-05 0)
(-11.5935 -2.05368e-05 0)
(-11.5204 -1.98363e-05 0)
(-11.4498 -1.91369e-05 0)
(-11.3815 -1.84503e-05 0)
(-11.3156 -1.7785e-05 0)
(-11.2518 -1.71438e-05 0)
(-11.1902 -1.65376e-05 0)
(-11.1306 -1.59693e-05 0)
(-11.0729 -1.54223e-05 0)
(-11.0171 -1.48925e-05 0)
(-10.963 -1.43875e-05 0)
(-10.9106 -1.39082e-05 0)
(-10.8599 -1.34532e-05 0)
(-10.8107 -1.30217e-05 0)
(-10.7629 -1.26139e-05 0)
(-10.7165 -1.22263e-05 0)
(-10.6714 -1.1857e-05 0)
(-10.6275 -1.15057e-05 0)
(-10.5848 -1.1174e-05 0)
(-10.5433 -1.08561e-05 0)
(-10.5028 -1.05604e-05 0)
(-10.4633 -1.03003e-05 0)
(-10.4246 -1.00671e-05 0)
(-10.3867 -9.84755e-06 0)
(-10.3495 -9.635e-06 0)
(-10.313 -9.42602e-06 0)
(-10.2772 -9.2206e-06 0)
(-10.2422 -9.01746e-06 0)
(-10.2078 -8.8189e-06 0)
(-10.1741 -8.62644e-06 0)
(-10.1411 -8.43874e-06 0)
(-10.1086 -8.25633e-06 0)
(-10.0769 -8.08028e-06 0)
(-10.0457 -7.9113e-06 0)
(-10.0151 -7.7469e-06 0)
(-9.98504 -7.58669e-06 0)
(-9.95555 -7.43106e-06 0)
(-9.92659 -7.2821e-06 0)
(-9.89814 -7.13828e-06 0)
(-9.87018 -6.99905e-06 0)
(-9.8427 -6.86275e-06 0)
(-9.81569 -6.73431e-06 0)
(-9.7891 -6.61209e-06 0)
(-9.76294 -6.48988e-06 0)
(-9.73721 -6.36988e-06 0)
(-9.71188 -6.2542e-06 0)
(-9.68696 -6.14254e-06 0)
(-9.66242 -6.03248e-06 0)
(-9.63826 -5.9256e-06 0)
(-9.61447 -5.82121e-06 0)
(-9.59105 -5.71974e-06 0)
(-9.56797 -5.62135e-06 0)
(-9.54524 -5.52564e-06 0)
(-9.52284 -5.43255e-06 0)
(-9.50077 -5.34215e-06 0)
(-9.479 -5.25389e-06 0)
(-9.45755 -5.1679e-06 0)
(-9.43639 -5.08466e-06 0)
(-9.41553 -5.00331e-06 0)
(-9.39494 -4.92544e-06 0)
(-9.37463 -4.84903e-06 0)
(-9.35458 -4.77394e-06 0)
(-9.3348 -4.70125e-06 0)
(-9.31527 -4.62955e-06 0)
(-9.29599 -4.55999e-06 0)
(-9.27695 -4.49206e-06 0)
(-9.25816 -4.42491e-06 0)
(-9.2396 -4.36063e-06 0)
(-9.22126 -4.29723e-06 0)
(-9.20315 -4.23505e-06 0)
(-9.18525 -4.17526e-06 0)
(-9.16757 -4.11582e-06 0)
(-9.15009 -4.06053e-06 0)
(-9.1328 -4.00788e-06 0)
(-9.1157 -3.95368e-06 0)
(-9.09879 -3.90049e-06 0)
(-9.08206 -3.84774e-06 0)
(-9.06553 -3.79565e-06 0)
(-9.04918 -3.74582e-06 0)
(-9.033 -3.69645e-06 0)
(-9.017 -3.64752e-06 0)
(-9.00117 -3.60077e-06 0)
(-8.98551 -3.55443e-06 0)
(-8.97001 -3.50833e-06 0)
(-8.95468 -3.46446e-06 0)
(-8.9395 -3.42103e-06 0)
(-8.92448 -3.37764e-06 0)
(-8.90961 -3.33624e-06 0)
(-8.89488 -3.29553e-06 0)
(-8.88031 -3.25468e-06 0)
(-8.86588 -3.21534e-06 0)
(-8.85158 -3.17721e-06 0)
(-8.83743 -3.13882e-06 0)
(-8.82341 -3.1014e-06 0)
(-8.80952 -3.06565e-06 0)
(-8.79576 -3.02966e-06 0)
(-8.78214 -2.99389e-06 0)
(-8.76864 -2.95985e-06 0)
(-8.75526 -2.92625e-06 0)
(-8.742 -2.89256e-06 0)
(-8.72886 -2.85987e-06 0)
(-8.71584 -2.82836e-06 0)
(-8.70293 -2.79673e-06 0)
(-8.69014 -2.76525e-06 0)
(-8.67746 -2.73521e-06 0)
(-8.66489 -2.70569e-06 0)
(-8.65242 -2.67593e-06 0)
(-8.64006 -2.6469e-06 0)
(-8.62781 -2.61915e-06 0)
(-8.61565 -2.59125e-06 0)
(-8.6036 -2.56324e-06 0)
(-8.59164 -2.53649e-06 0)
(-8.57979 -2.51054e-06 0)
(-8.56802 -2.48422e-06 0)
(-8.55636 -2.45813e-06 0)
(-8.54479 -2.43327e-06 0)
(-8.5333 -2.40884e-06 0)
(-8.52191 -2.38407e-06 0)
(-8.5106 -2.36028e-06 0)
(-8.49938 -2.33864e-06 0)
(-8.48823 -2.31698e-06 0)
(-8.47717 -2.29404e-06 0)
(-8.46619 -2.27131e-06 0)
(-8.45529 -2.24942e-06 0)
(-8.44447 -2.22777e-06 0)
(-8.43372 -2.20594e-06 0)
(-8.42306 -2.18447e-06 0)
(-8.41248 -2.1638e-06 0)
(-8.40197 -2.14349e-06 0)
(-8.39154 -2.12299e-06 0)
(-8.38118 -2.10265e-06 0)
(-8.3709 -2.08313e-06 0)
(-8.36068 -2.06411e-06 0)
(-8.35054 -2.04485e-06 0)
(-8.34047 -2.02554e-06 0)
(-8.33046 -2.00703e-06 0)
(-8.32053 -1.98915e-06 0)
(-8.31066 -1.97108e-06 0)
(-8.30086 -1.95287e-06 0)
(-8.29112 -1.93521e-06 0)
(-8.28145 -1.91836e-06 0)
(-8.27184 -1.90136e-06 0)
(-8.2623 -1.88454e-06 0)
(-8.25281 -1.86751e-06 0)
(-8.24339 -1.84907e-06 0)
(-8.23457 -1.83572e-06 0)
(-8.22625 -1.82416e-06 0)
(-8.21791 -1.80805e-06 0)
(-8.20956 -1.79307e-06 0)
(-8.20117 -1.77931e-06 0)
(-8.19277 -1.76545e-06 0)
(-8.18434 -1.75141e-06 0)
(-8.17588 -1.73704e-06 0)
(-8.16741 -1.72316e-06 0)
(-8.15891 -1.70956e-06 0)
(-8.15038 -1.69609e-06 0)
(-8.14183 -1.68218e-06 0)
(-8.13326 -1.66813e-06 0)
(-8.12467 -1.65458e-06 0)
(-8.11606 -1.64128e-06 0)
(-8.10742 -1.62794e-06 0)
(-8.09876 -1.6143e-06 0)
(-8.09008 -1.60067e-06 0)
(-8.08138 -1.58748e-06 0)
(-8.07265 -1.57445e-06 0)
(-8.06391 -1.56124e-06 0)
(-8.05514 -1.54788e-06 0)
(-8.04636 -1.53471e-06 0)
(-8.03755 -1.52183e-06 0)
(-8.02872 -1.50911e-06 0)
(-8.01988 -1.49611e-06 0)
(-8.01101 -1.483e-06 0)
(-8.00213 -1.47028e-06 0)
(-7.99322 -1.45778e-06 0)
(-7.9843 -1.44521e-06 0)
(-7.97536 -1.43248e-06 0)
(-7.9664 -1.41985e-06 0)
(-7.95742 -1.40751e-06 0)
(-7.94842 -1.39537e-06 0)
(-7.93941 -1.38297e-06 0)
(-7.93037 -1.37048e-06 0)
(-7.92133 -1.35834e-06 0)
(-7.91226 -1.34645e-06 0)
(-7.90318 -1.33441e-06 0)
(-7.89408 -1.32292e-06 0)
(-7.88496 -1.312e-06 0)
(-7.87581 -1.30069e-06 0)
(-7.86665 -1.28907e-06 0)
(-7.85747 -1.27724e-06 0)
(-7.84828 -1.26544e-06 0)
(-7.83907 -1.25396e-06 0)
(-7.82985 -1.24265e-06 0)
(-7.82061 -1.23113e-06 0)
(-7.81136 -1.21955e-06 0)
(-7.80209 -1.20832e-06 0)
(-7.79281 -1.19733e-06 0)
(-7.78352 -1.18612e-06 0)
(-7.77421 -1.1748e-06 0)
(-7.76489 -1.16383e-06 0)
(-7.75556 -1.1531e-06 0)
(-7.74622 -1.14221e-06 0)
(-7.73686 -1.13121e-06 0)
(-7.72749 -1.12049e-06 0)
(-7.71811 -1.11004e-06 0)
(-7.70871 -1.09944e-06 0)
(-7.69931 -1.08874e-06 0)
(-7.68989 -1.07831e-06 0)
(-7.68047 -1.06813e-06 0)
(-7.67103 -1.05782e-06 0)
(-7.66158 -1.04742e-06 0)
(-7.65212 -1.03727e-06 0)
(-7.64266 -1.02737e-06 0)
(-7.63318 -1.01734e-06 0)
(-7.62369 -1.00722e-06 0)
(-7.61419 -9.97383e-07 0)
(-7.60469 -9.87763e-07 0)
(-7.59517 -9.78002e-07 0)
(-7.58565 -9.68176e-07 0)
(-7.57612 -9.58646e-07 0)
(-7.56658 -9.49312e-07 0)
(-7.55703 -9.39811e-07 0)
(-7.54747 -9.30278e-07 0)
(-7.53791 -9.21061e-07 0)
(-7.52834 -9.11973e-07 0)
(-7.51876 -9.02734e-07 0)
(-7.50918 -8.93532e-07 0)
(-7.49959 -8.846e-07 0)
(-7.48999 -8.7574e-07 0)
(-7.48039 -8.66774e-07 0)
(-7.47078 -8.57906e-07 0)
(-7.46117 -8.49268e-07 0)
(-7.45154 -8.40635e-07 0)
(-7.44192 -8.31933e-07 0)
(-7.43229 -8.23389e-07 0)
(-7.42266 -8.1504e-07 0)
(-7.41302 -8.06629e-07 0)
(-7.40337 -7.98192e-07 0)
(-7.39373 -7.89964e-07 0)
(-7.38407 -7.8187e-07 0)
(-7.37442 -7.73691e-07 0)
(-7.36476 -7.65558e-07 0)
(-7.3551 -7.57635e-07 0)
(-7.34543 -7.4975e-07 0)
(-7.33577 -7.41817e-07 0)
(-7.3261 -7.34023e-07 0)
(-7.31642 -7.26884e-07 0)
(-7.30673 -7.19802e-07 0)
(-7.29704 -7.12233e-07 0)
(-7.28735 -7.04745e-07 0)
(-7.27765 -6.97335e-07 0)
(-7.26795 -6.89873e-07 0)
(-7.25826 -6.82475e-07 0)
(-7.24856 -6.75254e-07 0)
(-7.23886 -6.68039e-07 0)
(-7.22916 -6.60792e-07 0)
(-7.21946 -6.5369e-07 0)
(-7.20976 -6.46719e-07 0)
(-7.20005 -6.39695e-07 0)
(-7.19036 -6.32699e-07 0)
(-7.18066 -6.25892e-07 0)
(-7.17096 -6.19118e-07 0)
(-7.16126 -6.12309e-07 0)
(-7.15157 -6.05624e-07 0)
(-7.14188 -5.99077e-07 0)
(-7.13219 -5.92485e-07 0)
(-7.1225 -5.85911e-07 0)
(-7.11281 -5.79515e-07 0)
(-7.10313 -5.73153e-07 0)
(-7.09345 -5.6676e-07 0)
(-7.08377 -5.60483e-07 0)
(-7.0741 -5.54337e-07 0)
(-7.06442 -5.4815e-07 0)
(-7.05476 -5.41992e-07 0)
(-7.04509 -5.35996e-07 0)
(-7.03543 -5.30024e-07 0)
(-7.02578 -5.2403e-07 0)
(-7.01613 -5.18155e-07 0)
(-7.00648 -5.12379e-07 0)
(-6.99684 -5.06572e-07 0)
(-6.9872 -5.00815e-07 0)
(-6.97757 -4.95208e-07 0)
(-6.96795 -4.89598e-07 0)
(-6.95833 -4.83986e-07 0)
(-6.94872 -4.78502e-07 0)
(-6.93911 -4.73083e-07 0)
(-6.92951 -4.67642e-07 0)
(-6.91991 -4.62277e-07 0)
(-6.91033 -4.57028e-07 0)
(-6.90074 -4.51762e-07 0)
(-6.89117 -4.46518e-07 0)
(-6.88161 -4.41413e-07 0)
(-6.87205 -4.36325e-07 0)
(-6.8625 -4.31235e-07 0)
(-6.85296 -4.26248e-07 0)
(-6.84342 -4.21331e-07 0)
(-6.8339 -4.16401e-07 0)
(-6.82438 -4.11531e-07 0)
(-6.81487 -4.0677e-07 0)
(-6.80537 -4.02002e-07 0)
(-6.79588 -3.97253e-07 0)
(-6.7864 -3.92614e-07 0)
(-6.77693 -3.88235e-07 0)
(-6.76746 -3.83919e-07 0)
(-6.75799 -3.79445e-07 0)
(-6.74854 -3.74977e-07 0)
(-6.73909 -3.70506e-07 0)
(-6.72966 -3.66103e-07 0)
(-6.72024 -3.61781e-07 0)
(-6.71083 -3.57461e-07 0)
(-6.70142 -3.5318e-07 0)
(-6.69204 -3.49045e-07 0)
(-6.68265 -3.44911e-07 0)
(-6.67328 -3.40744e-07 0)
(-6.66393 -3.36667e-07 0)
(-6.65458 -3.32627e-07 0)
(-6.64525 -3.28585e-07 0)
(-6.63593 -3.24626e-07 0)
(-6.62662 -3.20715e-07 0)
(-6.61733 -3.16813e-07 0)
(-6.60804 -3.12957e-07 0)
(-6.59878 -3.09182e-07 0)
(-6.58952 -3.05386e-07 0)
(-6.58028 -3.01664e-07 0)
(-6.57105 -2.9792e-07 0)
(-6.56184 -2.94331e-07 0)
(-6.55263 -2.90864e-07 0)
(-6.54241 -2.86723e-07 0)
(-6.53128 -2.82285e-07 0)
(-6.52033 -2.78247e-07 0)
(-6.50952 -2.74295e-07 0)
(-6.49887 -2.70338e-07 0)
(-6.48837 -2.66512e-07 0)
(-6.47802 -2.62766e-07 0)
(-6.46781 -2.5909e-07 0)
(-6.45775 -2.5553e-07 0)
(-6.44782 -2.52036e-07 0)
(-6.43804 -2.48611e-07 0)
(-6.42838 -2.45293e-07 0)
(-6.41885 -2.42037e-07 0)
(-6.40944 -2.38834e-07 0)
(-6.40017 -2.35742e-07 0)
(-6.391 -2.32702e-07 0)
(-6.38196 -2.29714e-07 0)
(-6.37303 -2.2682e-07 0)
(-6.36422 -2.23985e-07 0)
(-6.35551 -2.21186e-07 0)
(-6.34692 -2.18472e-07 0)
(-6.33842 -2.15818e-07 0)
(-6.33003 -2.13199e-07 0)
(-6.32174 -2.10642e-07 0)
(-6.31356 -2.08161e-07 0)
(-6.30546 -2.05704e-07 0)
(-6.29747 -2.03291e-07 0)
(-6.28956 -2.00955e-07 0)
(-6.28175 -1.9866e-07 0)
(-6.27402 -1.96436e-07 0)
(-6.26638 -1.94343e-07 0)
(-6.25881 -1.92264e-07 0)
(-6.25134 -1.90144e-07 0)
(-6.24394 -1.88043e-07 0)
(-6.23663 -1.86015e-07 0)
(-6.22939 -1.84031e-07 0)
(-6.22224 -1.82066e-07 0)
(-6.21515 -1.80125e-07 0)
(-6.20815 -1.78241e-07 0)
(-6.20121 -1.76375e-07 0)
(-6.19435 -1.74532e-07 0)
(-6.18755 -1.72729e-07 0)
(-6.18084 -1.70983e-07 0)
(-6.17418 -1.69245e-07 0)
(-6.1676 -1.67532e-07 0)
(-6.16108 -1.65856e-07 0)
(-6.15463 -1.64235e-07 0)
(-6.14823 -1.62615e-07 0)
(-6.14191 -1.61024e-07 0)
(-6.13563 -1.59458e-07 0)
(-6.12944 -1.57949e-07 0)
(-6.12328 -1.56438e-07 0)
(-6.1172 -1.54958e-07 0)
(-6.11116 -1.53486e-07 0)
(-6.10519 -1.5208e-07 0)
(-6.09926 -1.50668e-07 0)
(-6.09341 -1.49295e-07 0)
(-6.08759 -1.47905e-07 0)
(-6.08184 -1.46595e-07 0)
(-6.07612 -1.45275e-07 0)
(-6.07048 -1.44005e-07 0)
(-6.06486 -1.42687e-07 0)
(-6.05932 -1.41469e-07 0)
(-6.05379 -1.40216e-07 0)
(-6.04835 -1.39054e-07 0)
(-6.04291 -1.37812e-07 0)
(-6.03757 -1.36682e-07 0)
(-6.03222 -1.35481e-07 0)
(-6.02697 -1.34423e-07 0)
(-6.02171 -1.33247e-07 0)
(-6.01655 -1.32216e-07 0)
(-6.01137 -1.31054e-07 0)
(-6.0063 -1.30094e-07 0)
(-6.00119 -1.28973e-07 0)
(-5.99621 -1.28063e-07 0)
(-5.99118 -1.26934e-07 0)
(-5.98629 -1.26078e-07 0)
(-5.98131 -1.24984e-07 0)
(-5.97651 -1.24211e-07 0)
(-5.9716 -1.23128e-07 0)
(-5.96688 -1.22405e-07 0)
(-5.96203 -1.21348e-07 0)
(-5.95739 -1.20705e-07 0)
(-5.95258 -1.19752e-07 0)
(-5.94802 -1.19073e-07 0)
(-5.94327 -1.18489e-07 0)
(-5.93875 -1.17193e-07 0)
(-5.93411 -1.18352e-07 0)
(-5.92949 -1.13943e-07 0)
(-5.92521 -1.21999e-07 0)
(-5.91993 -1.04553e-07 0)
(-5.91707 -1.35442e-07 0)
(-5.90925 -8.23861e-08 0)
(-5.91079 -1.13801e-07 0)
(-5.90006 -1.42174e-07 0)
)
;
    }
    symmetry
    {
        type            symmetryPlane;
    }
    frontAndBack
    {
        type            empty;
    }
}


// ************************************************************************* //
