/*--------------------------------*- C++ -*----------------------------------*\
| =========                 |                                                 |
| \\      /  F ield         | OpenFOAM: The Open Source CFD Toolbox           |
|  \\    /   O peration     | Version:  v2012                                 |
|   \\  /    A nd           | Website:  www.openfoam.com                      |
|    \\/     M anipulation  |                                                 |
\*---------------------------------------------------------------------------*/
FoamFile
{
    version     2.0;
    format      ascii;
    class       volScalarField;
    location    "14";
    object      nut;
}
// * * * * * * * * * * * * * * * * * * * * * * * * * * * * * * * * * * * * * //

dimensions      [0 2 -1 0 0 0 0];


internalField   nonuniform List<scalar> 
209825
(
1.2398e-07
1.24467e-07
1.25208e-07
1.25826e-07
1.26308e-07
1.26687e-07
1.26994e-07
1.27246e-07
1.27458e-07
1.27636e-07
1.27791e-07
1.27923e-07
1.28039e-07
1.2814e-07
1.2823e-07
1.28309e-07
1.2838e-07
1.28442e-07
1.285e-07
1.28551e-07
1.28598e-07
1.28639e-07
1.28678e-07
1.28711e-07
1.28743e-07
1.2877e-07
1.28798e-07
1.28821e-07
1.28844e-07
1.28864e-07
1.28884e-07
1.28903e-07
1.28913e-07
1.28925e-07
1.28944e-07
1.28959e-07
1.28968e-07
1.28976e-07
1.28992e-07
1.29001e-07
1.29001e-07
1.2901e-07
1.29031e-07
1.29032e-07
1.29023e-07
1.29041e-07
1.29045e-07
1.2905e-07
1.2906e-07
1.29062e-07
1.29066e-07
1.2907e-07
1.29066e-07
1.29066e-07
1.29066e-07
1.29069e-07
1.29068e-07
1.29066e-07
1.29091e-07
1.29092e-07
1.29074e-07
1.29078e-07
1.29112e-07
1.29125e-07
1.29104e-07
1.29117e-07
1.29135e-07
1.29145e-07
1.29174e-07
1.29185e-07
1.29177e-07
1.29177e-07
1.29184e-07
1.29184e-07
1.29206e-07
1.29224e-07
1.29232e-07
1.29251e-07
1.2925e-07
1.29261e-07
1.29283e-07
1.29306e-07
1.29328e-07
1.29366e-07
1.29391e-07
1.29431e-07
1.29463e-07
1.29521e-07
1.29559e-07
1.29641e-07
1.29691e-07
1.29855e-07
1.29888e-07
1.30948e-07
1.35848e-07
2.06552e-08
1.2398e-07
1.24467e-07
1.25207e-07
1.25826e-07
1.26307e-07
1.26687e-07
1.26994e-07
1.27246e-07
1.27458e-07
1.27636e-07
1.27791e-07
1.27923e-07
1.28039e-07
1.2814e-07
1.2823e-07
1.28309e-07
1.2838e-07
1.28442e-07
1.285e-07
1.28551e-07
1.28598e-07
1.28639e-07
1.28678e-07
1.28712e-07
1.28743e-07
1.28771e-07
1.28798e-07
1.28821e-07
1.28844e-07
1.28864e-07
1.28885e-07
1.28903e-07
1.28913e-07
1.28925e-07
1.28944e-07
1.28959e-07
1.28969e-07
1.28977e-07
1.28993e-07
1.29002e-07
1.29002e-07
1.2901e-07
1.29032e-07
1.29033e-07
1.29023e-07
1.29041e-07
1.29046e-07
1.2905e-07
1.2906e-07
1.29062e-07
1.29067e-07
1.2907e-07
1.29067e-07
1.29067e-07
1.29067e-07
1.2907e-07
1.29068e-07
1.29066e-07
1.29092e-07
1.29093e-07
1.29074e-07
1.29079e-07
1.29112e-07
1.29125e-07
1.29104e-07
1.29118e-07
1.29135e-07
1.29145e-07
1.29175e-07
1.29185e-07
1.29177e-07
1.29178e-07
1.29184e-07
1.29184e-07
1.29207e-07
1.29225e-07
1.29233e-07
1.29251e-07
1.29251e-07
1.29261e-07
1.29284e-07
1.29306e-07
1.29328e-07
1.29367e-07
1.29391e-07
1.29431e-07
1.29464e-07
1.29522e-07
1.2956e-07
1.29641e-07
1.29691e-07
1.29856e-07
1.29888e-07
1.3095e-07
1.35853e-07
2.12733e-08
1.2398e-07
1.24466e-07
1.25205e-07
1.25823e-07
1.26305e-07
1.26684e-07
1.26991e-07
1.27243e-07
1.27455e-07
1.27633e-07
1.27788e-07
1.2792e-07
1.28036e-07
1.28137e-07
1.28228e-07
1.28306e-07
1.28378e-07
1.28439e-07
1.28497e-07
1.28548e-07
1.28595e-07
1.28636e-07
1.28675e-07
1.28709e-07
1.2874e-07
1.28768e-07
1.28795e-07
1.28819e-07
1.28842e-07
1.28862e-07
1.28882e-07
1.289e-07
1.2891e-07
1.28923e-07
1.28941e-07
1.28956e-07
1.28966e-07
1.28974e-07
1.2899e-07
1.28999e-07
1.28999e-07
1.29008e-07
1.29029e-07
1.2903e-07
1.29021e-07
1.29039e-07
1.29043e-07
1.29048e-07
1.29057e-07
1.2906e-07
1.29064e-07
1.29068e-07
1.29064e-07
1.29064e-07
1.29064e-07
1.29067e-07
1.29066e-07
1.29064e-07
1.29089e-07
1.2909e-07
1.29072e-07
1.29076e-07
1.29109e-07
1.29123e-07
1.29102e-07
1.29115e-07
1.29133e-07
1.29143e-07
1.29172e-07
1.29183e-07
1.29175e-07
1.29175e-07
1.29182e-07
1.29182e-07
1.29204e-07
1.29222e-07
1.2923e-07
1.29249e-07
1.29248e-07
1.29259e-07
1.29282e-07
1.29304e-07
1.29326e-07
1.29364e-07
1.29389e-07
1.29429e-07
1.29461e-07
1.2952e-07
1.29558e-07
1.29639e-07
1.29689e-07
1.29854e-07
1.29886e-07
1.30952e-07
1.3586e-07
2.20398e-08
1.23979e-07
1.24463e-07
1.25201e-07
1.25819e-07
1.263e-07
1.26679e-07
1.26986e-07
1.27238e-07
1.2745e-07
1.27629e-07
1.27783e-07
1.27915e-07
1.28032e-07
1.28133e-07
1.28223e-07
1.28302e-07
1.28373e-07
1.28435e-07
1.28493e-07
1.28544e-07
1.28591e-07
1.28632e-07
1.28671e-07
1.28705e-07
1.28736e-07
1.28764e-07
1.28791e-07
1.28815e-07
1.28838e-07
1.28858e-07
1.28878e-07
1.28897e-07
1.28906e-07
1.28919e-07
1.28938e-07
1.28953e-07
1.28962e-07
1.2897e-07
1.28986e-07
1.28995e-07
1.28995e-07
1.29004e-07
1.29025e-07
1.29026e-07
1.29017e-07
1.29035e-07
1.29039e-07
1.29044e-07
1.29054e-07
1.29056e-07
1.29061e-07
1.29064e-07
1.29061e-07
1.29061e-07
1.29061e-07
1.29064e-07
1.29062e-07
1.2906e-07
1.29086e-07
1.29087e-07
1.29068e-07
1.29073e-07
1.29106e-07
1.29119e-07
1.29099e-07
1.29112e-07
1.2913e-07
1.29139e-07
1.29169e-07
1.2918e-07
1.29171e-07
1.29172e-07
1.29179e-07
1.29179e-07
1.29201e-07
1.29219e-07
1.29227e-07
1.29246e-07
1.29245e-07
1.29256e-07
1.29278e-07
1.29301e-07
1.29323e-07
1.29361e-07
1.29386e-07
1.29426e-07
1.29458e-07
1.29517e-07
1.29555e-07
1.29636e-07
1.29686e-07
1.29851e-07
1.29883e-07
1.30955e-07
1.3587e-07
2.289e-08
1.23979e-07
1.24459e-07
1.25196e-07
1.25813e-07
1.26294e-07
1.26673e-07
1.2698e-07
1.27232e-07
1.27444e-07
1.27623e-07
1.27777e-07
1.27909e-07
1.28026e-07
1.28127e-07
1.28217e-07
1.28296e-07
1.28368e-07
1.28429e-07
1.28488e-07
1.28539e-07
1.28586e-07
1.28627e-07
1.28666e-07
1.28699e-07
1.28731e-07
1.28759e-07
1.28786e-07
1.2881e-07
1.28832e-07
1.28853e-07
1.28873e-07
1.28891e-07
1.28901e-07
1.28914e-07
1.28933e-07
1.28948e-07
1.28957e-07
1.28965e-07
1.28981e-07
1.2899e-07
1.28991e-07
1.28999e-07
1.29021e-07
1.29022e-07
1.29012e-07
1.2903e-07
1.29035e-07
1.29039e-07
1.29049e-07
1.29052e-07
1.29056e-07
1.2906e-07
1.29056e-07
1.29056e-07
1.29056e-07
1.29059e-07
1.29057e-07
1.29056e-07
1.29081e-07
1.29082e-07
1.29064e-07
1.29068e-07
1.29102e-07
1.29115e-07
1.29094e-07
1.29108e-07
1.29125e-07
1.29135e-07
1.29164e-07
1.29175e-07
1.29167e-07
1.29168e-07
1.29174e-07
1.29174e-07
1.29197e-07
1.29215e-07
1.29223e-07
1.29242e-07
1.29241e-07
1.29252e-07
1.29275e-07
1.29297e-07
1.29319e-07
1.29357e-07
1.29382e-07
1.29422e-07
1.29454e-07
1.29513e-07
1.29551e-07
1.29632e-07
1.29682e-07
1.29847e-07
1.29878e-07
1.3096e-07
1.35884e-07
2.38117e-08
1.23978e-07
1.24455e-07
1.2519e-07
1.25806e-07
1.26287e-07
1.26666e-07
1.26972e-07
1.27225e-07
1.27437e-07
1.27615e-07
1.2777e-07
1.27902e-07
1.28019e-07
1.2812e-07
1.2821e-07
1.28289e-07
1.28361e-07
1.28422e-07
1.28481e-07
1.28532e-07
1.28579e-07
1.2862e-07
1.28659e-07
1.28693e-07
1.28724e-07
1.28752e-07
1.2878e-07
1.28803e-07
1.28826e-07
1.28846e-07
1.28867e-07
1.28885e-07
1.28895e-07
1.28908e-07
1.28926e-07
1.28942e-07
1.28951e-07
1.28959e-07
1.28975e-07
1.28984e-07
1.28985e-07
1.28993e-07
1.29015e-07
1.29016e-07
1.29007e-07
1.29024e-07
1.29029e-07
1.29033e-07
1.29043e-07
1.29046e-07
1.2905e-07
1.29054e-07
1.2905e-07
1.2905e-07
1.29051e-07
1.29053e-07
1.29052e-07
1.2905e-07
1.29076e-07
1.29077e-07
1.29058e-07
1.29063e-07
1.29096e-07
1.2911e-07
1.29089e-07
1.29102e-07
1.2912e-07
1.2913e-07
1.29159e-07
1.2917e-07
1.29162e-07
1.29163e-07
1.2917e-07
1.2917e-07
1.29192e-07
1.2921e-07
1.29218e-07
1.29237e-07
1.29237e-07
1.29247e-07
1.2927e-07
1.29292e-07
1.29314e-07
1.29353e-07
1.29377e-07
1.29418e-07
1.2945e-07
1.29508e-07
1.29546e-07
1.29628e-07
1.29678e-07
1.29842e-07
1.29873e-07
1.30967e-07
1.359e-07
2.48023e-08
1.23976e-07
1.24449e-07
1.25182e-07
1.25797e-07
1.26278e-07
1.26657e-07
1.26963e-07
1.27215e-07
1.27428e-07
1.27606e-07
1.27761e-07
1.27893e-07
1.2801e-07
1.28111e-07
1.28202e-07
1.28281e-07
1.28352e-07
1.28414e-07
1.28473e-07
1.28524e-07
1.28571e-07
1.28612e-07
1.28651e-07
1.28685e-07
1.28717e-07
1.28744e-07
1.28772e-07
1.28796e-07
1.28819e-07
1.28839e-07
1.28859e-07
1.28878e-07
1.28888e-07
1.289e-07
1.28919e-07
1.28934e-07
1.28944e-07
1.28952e-07
1.28968e-07
1.28977e-07
1.28978e-07
1.28986e-07
1.29008e-07
1.29009e-07
1.29e-07
1.29017e-07
1.29022e-07
1.29027e-07
1.29036e-07
1.29039e-07
1.29044e-07
1.29047e-07
1.29044e-07
1.29044e-07
1.29044e-07
1.29047e-07
1.29045e-07
1.29044e-07
1.29069e-07
1.2907e-07
1.29052e-07
1.29057e-07
1.2909e-07
1.29103e-07
1.29083e-07
1.29096e-07
1.29114e-07
1.29124e-07
1.29153e-07
1.29164e-07
1.29156e-07
1.29157e-07
1.29164e-07
1.29164e-07
1.29186e-07
1.29204e-07
1.29213e-07
1.29231e-07
1.29231e-07
1.29242e-07
1.29264e-07
1.29287e-07
1.29309e-07
1.29347e-07
1.29372e-07
1.29412e-07
1.29444e-07
1.29503e-07
1.29541e-07
1.29622e-07
1.29672e-07
1.29837e-07
1.29867e-07
1.30975e-07
1.35917e-07
2.58619e-08
1.23975e-07
1.24443e-07
1.25173e-07
1.25787e-07
1.26267e-07
1.26646e-07
1.26953e-07
1.27205e-07
1.27417e-07
1.27596e-07
1.27751e-07
1.27883e-07
1.28e-07
1.28101e-07
1.28192e-07
1.28271e-07
1.28343e-07
1.28405e-07
1.28463e-07
1.28514e-07
1.28562e-07
1.28603e-07
1.28642e-07
1.28676e-07
1.28708e-07
1.28736e-07
1.28763e-07
1.28787e-07
1.2881e-07
1.2883e-07
1.28851e-07
1.28869e-07
1.2888e-07
1.28892e-07
1.28911e-07
1.28926e-07
1.28936e-07
1.28944e-07
1.2896e-07
1.28969e-07
1.2897e-07
1.28978e-07
1.29e-07
1.29001e-07
1.28992e-07
1.2901e-07
1.29014e-07
1.29019e-07
1.29028e-07
1.29031e-07
1.29036e-07
1.2904e-07
1.29036e-07
1.29036e-07
1.29036e-07
1.29039e-07
1.29038e-07
1.29036e-07
1.29062e-07
1.29063e-07
1.29045e-07
1.29049e-07
1.29082e-07
1.29096e-07
1.29076e-07
1.29089e-07
1.29107e-07
1.29117e-07
1.29146e-07
1.29157e-07
1.2915e-07
1.2915e-07
1.29157e-07
1.29157e-07
1.2918e-07
1.29198e-07
1.29206e-07
1.29225e-07
1.29225e-07
1.29236e-07
1.29258e-07
1.2928e-07
1.29302e-07
1.29341e-07
1.29366e-07
1.29406e-07
1.29438e-07
1.29497e-07
1.29535e-07
1.29616e-07
1.29666e-07
1.29831e-07
1.2986e-07
1.30985e-07
1.35934e-07
2.69917e-08
1.23973e-07
1.24435e-07
1.25162e-07
1.25775e-07
1.26255e-07
1.26633e-07
1.2694e-07
1.27192e-07
1.27405e-07
1.27584e-07
1.27739e-07
1.27871e-07
1.27989e-07
1.2809e-07
1.28181e-07
1.2826e-07
1.28332e-07
1.28394e-07
1.28452e-07
1.28504e-07
1.28551e-07
1.28592e-07
1.28632e-07
1.28666e-07
1.28697e-07
1.28725e-07
1.28753e-07
1.28777e-07
1.288e-07
1.2882e-07
1.28841e-07
1.2886e-07
1.2887e-07
1.28882e-07
1.28901e-07
1.28917e-07
1.28926e-07
1.28935e-07
1.28951e-07
1.2896e-07
1.28961e-07
1.28969e-07
1.28991e-07
1.28992e-07
1.28983e-07
1.29e-07
1.29005e-07
1.2901e-07
1.2902e-07
1.29023e-07
1.29027e-07
1.29031e-07
1.29028e-07
1.29028e-07
1.29028e-07
1.29031e-07
1.29029e-07
1.29028e-07
1.29053e-07
1.29055e-07
1.29036e-07
1.29041e-07
1.29074e-07
1.29088e-07
1.29068e-07
1.29081e-07
1.29099e-07
1.29109e-07
1.29138e-07
1.29149e-07
1.29142e-07
1.29143e-07
1.2915e-07
1.2915e-07
1.29172e-07
1.2919e-07
1.29198e-07
1.29217e-07
1.29218e-07
1.29228e-07
1.29251e-07
1.29273e-07
1.29295e-07
1.29334e-07
1.29359e-07
1.29399e-07
1.29431e-07
1.2949e-07
1.29528e-07
1.29609e-07
1.29659e-07
1.29824e-07
1.29853e-07
1.30998e-07
1.35952e-07
2.81921e-08
1.23971e-07
1.24427e-07
1.2515e-07
1.25762e-07
1.26241e-07
1.26619e-07
1.26926e-07
1.27178e-07
1.27391e-07
1.2757e-07
1.27725e-07
1.27858e-07
1.27975e-07
1.28077e-07
1.28168e-07
1.28247e-07
1.28319e-07
1.28381e-07
1.2844e-07
1.28492e-07
1.28539e-07
1.28581e-07
1.2862e-07
1.28654e-07
1.28686e-07
1.28714e-07
1.28742e-07
1.28766e-07
1.28789e-07
1.28809e-07
1.2883e-07
1.28849e-07
1.28859e-07
1.28872e-07
1.28891e-07
1.28906e-07
1.28916e-07
1.28924e-07
1.2894e-07
1.2895e-07
1.2895e-07
1.28959e-07
1.2898e-07
1.28982e-07
1.28973e-07
1.2899e-07
1.28995e-07
1.29e-07
1.2901e-07
1.29013e-07
1.29017e-07
1.29021e-07
1.29018e-07
1.29018e-07
1.29018e-07
1.29021e-07
1.2902e-07
1.29019e-07
1.29044e-07
1.29045e-07
1.29027e-07
1.29032e-07
1.29065e-07
1.29079e-07
1.29059e-07
1.29073e-07
1.2909e-07
1.291e-07
1.29129e-07
1.2914e-07
1.29133e-07
1.29134e-07
1.29141e-07
1.29141e-07
1.29164e-07
1.29182e-07
1.2919e-07
1.29209e-07
1.2921e-07
1.2922e-07
1.29242e-07
1.29265e-07
1.29287e-07
1.29326e-07
1.29351e-07
1.29391e-07
1.29423e-07
1.29482e-07
1.2952e-07
1.29601e-07
1.29651e-07
1.29817e-07
1.29844e-07
1.31013e-07
1.3597e-07
2.9463e-08
1.23969e-07
1.24417e-07
1.25137e-07
1.25747e-07
1.26225e-07
1.26603e-07
1.2691e-07
1.27163e-07
1.27375e-07
1.27555e-07
1.2771e-07
1.27843e-07
1.27961e-07
1.28062e-07
1.28153e-07
1.28233e-07
1.28305e-07
1.28368e-07
1.28427e-07
1.28478e-07
1.28526e-07
1.28567e-07
1.28607e-07
1.28641e-07
1.28673e-07
1.28701e-07
1.28729e-07
1.28753e-07
1.28776e-07
1.28797e-07
1.28818e-07
1.28837e-07
1.28847e-07
1.2886e-07
1.28879e-07
1.28894e-07
1.28904e-07
1.28912e-07
1.28929e-07
1.28938e-07
1.28939e-07
1.28947e-07
1.28969e-07
1.2897e-07
1.28961e-07
1.28979e-07
1.28984e-07
1.28988e-07
1.28998e-07
1.29002e-07
1.29006e-07
1.2901e-07
1.29007e-07
1.29007e-07
1.29008e-07
1.29011e-07
1.29009e-07
1.29008e-07
1.29033e-07
1.29035e-07
1.29016e-07
1.29021e-07
1.29054e-07
1.29069e-07
1.29049e-07
1.29063e-07
1.2908e-07
1.2909e-07
1.29119e-07
1.29131e-07
1.29124e-07
1.29124e-07
1.29132e-07
1.29132e-07
1.29155e-07
1.29173e-07
1.29181e-07
1.292e-07
1.29201e-07
1.29211e-07
1.29233e-07
1.29256e-07
1.29278e-07
1.29317e-07
1.29342e-07
1.29383e-07
1.29415e-07
1.29473e-07
1.29511e-07
1.29593e-07
1.29642e-07
1.29808e-07
1.29834e-07
1.31029e-07
1.3599e-07
3.08021e-08
1.23967e-07
1.24407e-07
1.25122e-07
1.2573e-07
1.26208e-07
1.26586e-07
1.26893e-07
1.27145e-07
1.27358e-07
1.27538e-07
1.27693e-07
1.27827e-07
1.27944e-07
1.28046e-07
1.28138e-07
1.28217e-07
1.2829e-07
1.28352e-07
1.28411e-07
1.28463e-07
1.28511e-07
1.28553e-07
1.28592e-07
1.28627e-07
1.28659e-07
1.28687e-07
1.28715e-07
1.28739e-07
1.28763e-07
1.28783e-07
1.28804e-07
1.28823e-07
1.28834e-07
1.28846e-07
1.28865e-07
1.28881e-07
1.28891e-07
1.289e-07
1.28916e-07
1.28925e-07
1.28926e-07
1.28935e-07
1.28956e-07
1.28958e-07
1.28949e-07
1.28966e-07
1.28971e-07
1.28976e-07
1.28986e-07
1.28989e-07
1.28994e-07
1.28998e-07
1.28995e-07
1.28995e-07
1.28996e-07
1.28999e-07
1.28998e-07
1.28996e-07
1.29022e-07
1.29023e-07
1.29005e-07
1.2901e-07
1.29043e-07
1.29057e-07
1.29039e-07
1.29052e-07
1.29069e-07
1.29079e-07
1.29108e-07
1.2912e-07
1.29113e-07
1.29114e-07
1.29121e-07
1.29121e-07
1.29144e-07
1.29162e-07
1.29171e-07
1.2919e-07
1.29191e-07
1.29202e-07
1.29224e-07
1.29247e-07
1.29268e-07
1.29307e-07
1.29332e-07
1.29373e-07
1.29405e-07
1.29464e-07
1.29502e-07
1.29583e-07
1.29633e-07
1.29799e-07
1.29824e-07
1.31049e-07
1.3601e-07
3.22056e-08
1.23964e-07
1.24395e-07
1.25106e-07
1.25712e-07
1.26189e-07
1.26567e-07
1.26874e-07
1.27126e-07
1.27339e-07
1.27519e-07
1.27675e-07
1.27808e-07
1.27926e-07
1.28028e-07
1.2812e-07
1.282e-07
1.28273e-07
1.28335e-07
1.28395e-07
1.28447e-07
1.28495e-07
1.28537e-07
1.28576e-07
1.28611e-07
1.28643e-07
1.28672e-07
1.287e-07
1.28724e-07
1.28748e-07
1.28768e-07
1.28789e-07
1.28808e-07
1.28819e-07
1.28832e-07
1.28851e-07
1.28867e-07
1.28877e-07
1.28885e-07
1.28902e-07
1.28911e-07
1.28913e-07
1.28921e-07
1.28942e-07
1.28944e-07
1.28935e-07
1.28953e-07
1.28958e-07
1.28963e-07
1.28973e-07
1.28976e-07
1.28981e-07
1.28985e-07
1.28982e-07
1.28982e-07
1.28983e-07
1.28986e-07
1.28985e-07
1.28984e-07
1.29009e-07
1.29011e-07
1.28992e-07
1.28998e-07
1.29031e-07
1.29045e-07
1.29027e-07
1.2904e-07
1.29057e-07
1.29067e-07
1.29096e-07
1.29108e-07
1.29102e-07
1.29102e-07
1.2911e-07
1.2911e-07
1.29133e-07
1.29151e-07
1.29159e-07
1.29179e-07
1.2918e-07
1.29191e-07
1.29213e-07
1.29236e-07
1.29258e-07
1.29296e-07
1.29322e-07
1.29363e-07
1.29395e-07
1.29454e-07
1.29491e-07
1.29573e-07
1.29622e-07
1.29789e-07
1.29812e-07
1.31071e-07
1.36032e-07
3.36768e-08
1.23962e-07
1.24383e-07
1.25088e-07
1.25692e-07
1.26168e-07
1.26546e-07
1.26853e-07
1.27105e-07
1.27319e-07
1.27499e-07
1.27655e-07
1.27789e-07
1.27907e-07
1.28009e-07
1.28101e-07
1.28181e-07
1.28254e-07
1.28317e-07
1.28377e-07
1.28429e-07
1.28477e-07
1.28519e-07
1.28559e-07
1.28594e-07
1.28626e-07
1.28655e-07
1.28683e-07
1.28707e-07
1.28731e-07
1.28752e-07
1.28773e-07
1.28792e-07
1.28803e-07
1.28816e-07
1.28835e-07
1.28851e-07
1.28861e-07
1.2887e-07
1.28886e-07
1.28896e-07
1.28898e-07
1.28906e-07
1.28927e-07
1.28929e-07
1.2892e-07
1.28938e-07
1.28943e-07
1.28948e-07
1.28958e-07
1.28961e-07
1.28967e-07
1.28971e-07
1.28968e-07
1.28968e-07
1.28969e-07
1.28972e-07
1.28971e-07
1.2897e-07
1.28995e-07
1.28997e-07
1.28979e-07
1.28984e-07
1.29017e-07
1.29032e-07
1.29014e-07
1.29027e-07
1.29044e-07
1.29054e-07
1.29083e-07
1.29095e-07
1.29089e-07
1.2909e-07
1.29098e-07
1.29098e-07
1.29121e-07
1.29139e-07
1.29147e-07
1.29167e-07
1.29168e-07
1.29179e-07
1.29201e-07
1.29224e-07
1.29246e-07
1.29285e-07
1.2931e-07
1.29351e-07
1.29383e-07
1.29442e-07
1.2948e-07
1.29562e-07
1.29611e-07
1.29778e-07
1.29799e-07
1.31095e-07
1.36054e-07
3.5219e-08
1.23959e-07
1.24369e-07
1.25068e-07
1.2567e-07
1.26145e-07
1.26523e-07
1.2683e-07
1.27083e-07
1.27296e-07
1.27477e-07
1.27633e-07
1.27767e-07
1.27886e-07
1.27988e-07
1.2808e-07
1.28161e-07
1.28234e-07
1.28297e-07
1.28357e-07
1.28409e-07
1.28458e-07
1.285e-07
1.2854e-07
1.28575e-07
1.28608e-07
1.28636e-07
1.28665e-07
1.28689e-07
1.28713e-07
1.28734e-07
1.28755e-07
1.28775e-07
1.28786e-07
1.28799e-07
1.28818e-07
1.28834e-07
1.28845e-07
1.28853e-07
1.2887e-07
1.2888e-07
1.28881e-07
1.28889e-07
1.28911e-07
1.28913e-07
1.28904e-07
1.28922e-07
1.28927e-07
1.28932e-07
1.28942e-07
1.28946e-07
1.28951e-07
1.28955e-07
1.28953e-07
1.28953e-07
1.28954e-07
1.28957e-07
1.28956e-07
1.28955e-07
1.2898e-07
1.28982e-07
1.28964e-07
1.28969e-07
1.29002e-07
1.29017e-07
1.29e-07
1.29013e-07
1.2903e-07
1.29039e-07
1.29069e-07
1.29081e-07
1.29076e-07
1.29076e-07
1.29084e-07
1.29084e-07
1.29108e-07
1.29126e-07
1.29134e-07
1.29154e-07
1.29156e-07
1.29166e-07
1.29188e-07
1.29212e-07
1.29233e-07
1.29272e-07
1.29297e-07
1.29339e-07
1.29371e-07
1.2943e-07
1.29468e-07
1.29549e-07
1.29598e-07
1.29766e-07
1.29785e-07
1.31122e-07
1.36077e-07
3.6836e-08
1.23956e-07
1.24354e-07
1.25048e-07
1.25646e-07
1.26121e-07
1.26498e-07
1.26805e-07
1.27058e-07
1.27272e-07
1.27453e-07
1.27609e-07
1.27744e-07
1.27863e-07
1.27965e-07
1.28058e-07
1.28139e-07
1.28212e-07
1.28276e-07
1.28336e-07
1.28388e-07
1.28437e-07
1.28479e-07
1.2852e-07
1.28555e-07
1.28588e-07
1.28617e-07
1.28646e-07
1.2867e-07
1.28694e-07
1.28715e-07
1.28736e-07
1.28756e-07
1.28768e-07
1.2878e-07
1.288e-07
1.28816e-07
1.28826e-07
1.28835e-07
1.28852e-07
1.28862e-07
1.28864e-07
1.28872e-07
1.28893e-07
1.28896e-07
1.28887e-07
1.28904e-07
1.2891e-07
1.28915e-07
1.28925e-07
1.28929e-07
1.28934e-07
1.28938e-07
1.28936e-07
1.28936e-07
1.28937e-07
1.28941e-07
1.28939e-07
1.28938e-07
1.28964e-07
1.28966e-07
1.28948e-07
1.28954e-07
1.28986e-07
1.29001e-07
1.28985e-07
1.28998e-07
1.29014e-07
1.29024e-07
1.29053e-07
1.29066e-07
1.29061e-07
1.29062e-07
1.2907e-07
1.2907e-07
1.29093e-07
1.29112e-07
1.2912e-07
1.29139e-07
1.29142e-07
1.29153e-07
1.29174e-07
1.29198e-07
1.2922e-07
1.29259e-07
1.29284e-07
1.29325e-07
1.29357e-07
1.29417e-07
1.29455e-07
1.29536e-07
1.29585e-07
1.29753e-07
1.2977e-07
1.31151e-07
1.36102e-07
3.85319e-08
1.23953e-07
1.24339e-07
1.25025e-07
1.25621e-07
1.26095e-07
1.26471e-07
1.26778e-07
1.27032e-07
1.27246e-07
1.27427e-07
1.27584e-07
1.27718e-07
1.27838e-07
1.27941e-07
1.28034e-07
1.28115e-07
1.28189e-07
1.28252e-07
1.28313e-07
1.28366e-07
1.28415e-07
1.28457e-07
1.28498e-07
1.28533e-07
1.28566e-07
1.28595e-07
1.28625e-07
1.28649e-07
1.28673e-07
1.28695e-07
1.28716e-07
1.28736e-07
1.28748e-07
1.2876e-07
1.2878e-07
1.28796e-07
1.28807e-07
1.28816e-07
1.28832e-07
1.28843e-07
1.28845e-07
1.28853e-07
1.28874e-07
1.28877e-07
1.28868e-07
1.28885e-07
1.28891e-07
1.28896e-07
1.28907e-07
1.2891e-07
1.28916e-07
1.2892e-07
1.28918e-07
1.28918e-07
1.28919e-07
1.28923e-07
1.28922e-07
1.28921e-07
1.28947e-07
1.28949e-07
1.2893e-07
1.28937e-07
1.28969e-07
1.28985e-07
1.28968e-07
1.28982e-07
1.28998e-07
1.29008e-07
1.29037e-07
1.29049e-07
1.29045e-07
1.29046e-07
1.29055e-07
1.29055e-07
1.29078e-07
1.29096e-07
1.29105e-07
1.29124e-07
1.29127e-07
1.29138e-07
1.29159e-07
1.29183e-07
1.29205e-07
1.29244e-07
1.29269e-07
1.29311e-07
1.29343e-07
1.29402e-07
1.2944e-07
1.29522e-07
1.2957e-07
1.29739e-07
1.29754e-07
1.31182e-07
1.36127e-07
4.03107e-08
1.23949e-07
1.24322e-07
1.25001e-07
1.25594e-07
1.26067e-07
1.26443e-07
1.2675e-07
1.27003e-07
1.27218e-07
1.27399e-07
1.27557e-07
1.27691e-07
1.27811e-07
1.27915e-07
1.28008e-07
1.2809e-07
1.28164e-07
1.28228e-07
1.28288e-07
1.28341e-07
1.28391e-07
1.28433e-07
1.28475e-07
1.2851e-07
1.28543e-07
1.28573e-07
1.28602e-07
1.28627e-07
1.28651e-07
1.28672e-07
1.28694e-07
1.28714e-07
1.28726e-07
1.28739e-07
1.28758e-07
1.28775e-07
1.28786e-07
1.28795e-07
1.28811e-07
1.28822e-07
1.28824e-07
1.28832e-07
1.28854e-07
1.28857e-07
1.28848e-07
1.28865e-07
1.28871e-07
1.28876e-07
1.28887e-07
1.28891e-07
1.28897e-07
1.28901e-07
1.28899e-07
1.28899e-07
1.289e-07
1.28904e-07
1.28903e-07
1.28902e-07
1.28928e-07
1.2893e-07
1.28912e-07
1.28918e-07
1.28951e-07
1.28966e-07
1.28951e-07
1.28964e-07
1.2898e-07
1.2899e-07
1.29019e-07
1.29032e-07
1.29028e-07
1.29029e-07
1.29038e-07
1.29038e-07
1.29062e-07
1.2908e-07
1.29088e-07
1.29108e-07
1.29111e-07
1.29122e-07
1.29144e-07
1.29168e-07
1.29189e-07
1.29228e-07
1.29254e-07
1.29296e-07
1.29327e-07
1.29387e-07
1.29425e-07
1.29506e-07
1.29555e-07
1.29724e-07
1.29737e-07
1.31216e-07
1.36154e-07
4.21763e-08
1.23946e-07
1.24305e-07
1.24976e-07
1.25565e-07
1.26037e-07
1.26412e-07
1.26719e-07
1.26973e-07
1.27188e-07
1.27369e-07
1.27527e-07
1.27663e-07
1.27783e-07
1.27887e-07
1.2798e-07
1.28062e-07
1.28137e-07
1.28201e-07
1.28262e-07
1.28315e-07
1.28365e-07
1.28408e-07
1.28449e-07
1.28485e-07
1.28519e-07
1.28548e-07
1.28578e-07
1.28603e-07
1.28627e-07
1.28649e-07
1.28671e-07
1.28691e-07
1.28703e-07
1.28716e-07
1.28736e-07
1.28752e-07
1.28764e-07
1.28773e-07
1.28789e-07
1.288e-07
1.28803e-07
1.28811e-07
1.28832e-07
1.28836e-07
1.28827e-07
1.28844e-07
1.2885e-07
1.28855e-07
1.28866e-07
1.2887e-07
1.28876e-07
1.2888e-07
1.28879e-07
1.28879e-07
1.2888e-07
1.28884e-07
1.28883e-07
1.28882e-07
1.28908e-07
1.28911e-07
1.28892e-07
1.28899e-07
1.28931e-07
1.28947e-07
1.28932e-07
1.28945e-07
1.28961e-07
1.28971e-07
1.29e-07
1.29013e-07
1.2901e-07
1.29011e-07
1.2902e-07
1.2902e-07
1.29044e-07
1.29062e-07
1.29071e-07
1.29091e-07
1.29094e-07
1.29106e-07
1.29127e-07
1.29151e-07
1.29172e-07
1.29211e-07
1.29237e-07
1.29279e-07
1.29311e-07
1.29371e-07
1.29409e-07
1.2949e-07
1.29538e-07
1.29708e-07
1.29719e-07
1.31253e-07
1.36181e-07
4.41328e-08
1.23942e-07
1.24286e-07
1.24949e-07
1.25535e-07
1.26005e-07
1.2638e-07
1.26687e-07
1.26941e-07
1.27156e-07
1.27338e-07
1.27496e-07
1.27632e-07
1.27753e-07
1.27857e-07
1.27951e-07
1.28033e-07
1.28108e-07
1.28173e-07
1.28234e-07
1.28288e-07
1.28338e-07
1.28381e-07
1.28423e-07
1.28459e-07
1.28492e-07
1.28522e-07
1.28552e-07
1.28577e-07
1.28602e-07
1.28624e-07
1.28646e-07
1.28666e-07
1.28679e-07
1.28692e-07
1.28711e-07
1.28728e-07
1.2874e-07
1.28749e-07
1.28766e-07
1.28777e-07
1.2878e-07
1.28787e-07
1.28809e-07
1.28813e-07
1.28804e-07
1.28821e-07
1.28827e-07
1.28833e-07
1.28844e-07
1.28848e-07
1.28854e-07
1.28858e-07
1.28857e-07
1.28857e-07
1.28859e-07
1.28862e-07
1.28862e-07
1.28861e-07
1.28887e-07
1.28889e-07
1.28871e-07
1.28878e-07
1.2891e-07
1.28926e-07
1.28912e-07
1.28926e-07
1.28941e-07
1.28951e-07
1.2898e-07
1.28993e-07
1.28991e-07
1.28992e-07
1.29001e-07
1.29001e-07
1.29025e-07
1.29043e-07
1.29052e-07
1.29072e-07
1.29076e-07
1.29088e-07
1.29108e-07
1.29133e-07
1.29154e-07
1.29194e-07
1.29219e-07
1.29262e-07
1.29293e-07
1.29353e-07
1.29391e-07
1.29472e-07
1.29521e-07
1.29691e-07
1.297e-07
1.31291e-07
1.36209e-07
4.61844e-08
1.23939e-07
1.24267e-07
1.2492e-07
1.25503e-07
1.25971e-07
1.26345e-07
1.26652e-07
1.26906e-07
1.27122e-07
1.27304e-07
1.27463e-07
1.27599e-07
1.2772e-07
1.27825e-07
1.2792e-07
1.28002e-07
1.28077e-07
1.28142e-07
1.28204e-07
1.28258e-07
1.28308e-07
1.28352e-07
1.28394e-07
1.2843e-07
1.28464e-07
1.28494e-07
1.28525e-07
1.2855e-07
1.28575e-07
1.28597e-07
1.28619e-07
1.2864e-07
1.28653e-07
1.28666e-07
1.28686e-07
1.28702e-07
1.28714e-07
1.28724e-07
1.2874e-07
1.28752e-07
1.28755e-07
1.28763e-07
1.28785e-07
1.28789e-07
1.2878e-07
1.28797e-07
1.28803e-07
1.28809e-07
1.2882e-07
1.28824e-07
1.28831e-07
1.28835e-07
1.28834e-07
1.28834e-07
1.28836e-07
1.2884e-07
1.28839e-07
1.28838e-07
1.28864e-07
1.28867e-07
1.28849e-07
1.28856e-07
1.28888e-07
1.28905e-07
1.28891e-07
1.28904e-07
1.2892e-07
1.2893e-07
1.28959e-07
1.28972e-07
1.28971e-07
1.28971e-07
1.28981e-07
1.28981e-07
1.29005e-07
1.29023e-07
1.29032e-07
1.29052e-07
1.29057e-07
1.29068e-07
1.29089e-07
1.29114e-07
1.29135e-07
1.29174e-07
1.292e-07
1.29243e-07
1.29274e-07
1.29334e-07
1.29372e-07
1.29454e-07
1.29502e-07
1.29673e-07
1.29679e-07
1.31331e-07
1.36237e-07
4.83346e-08
1.23935e-07
1.24247e-07
1.24891e-07
1.25468e-07
1.25935e-07
1.26309e-07
1.26616e-07
1.2687e-07
1.27086e-07
1.27269e-07
1.27428e-07
1.27564e-07
1.27686e-07
1.27791e-07
1.27886e-07
1.27969e-07
1.28045e-07
1.2811e-07
1.28173e-07
1.28227e-07
1.28277e-07
1.28322e-07
1.28364e-07
1.284e-07
1.28435e-07
1.28465e-07
1.28495e-07
1.28521e-07
1.28546e-07
1.28569e-07
1.28591e-07
1.28612e-07
1.28625e-07
1.28638e-07
1.28658e-07
1.28675e-07
1.28687e-07
1.28697e-07
1.28714e-07
1.28725e-07
1.28729e-07
1.28737e-07
1.28759e-07
1.28763e-07
1.28754e-07
1.28771e-07
1.28778e-07
1.28783e-07
1.28795e-07
1.28799e-07
1.28806e-07
1.2881e-07
1.28809e-07
1.2881e-07
1.28811e-07
1.28815e-07
1.28815e-07
1.28814e-07
1.2884e-07
1.28843e-07
1.28825e-07
1.28833e-07
1.28865e-07
1.28881e-07
1.28868e-07
1.28882e-07
1.28897e-07
1.28907e-07
1.28936e-07
1.28949e-07
1.28949e-07
1.2895e-07
1.2896e-07
1.2896e-07
1.28984e-07
1.29002e-07
1.29011e-07
1.29032e-07
1.29037e-07
1.29048e-07
1.29069e-07
1.29094e-07
1.29115e-07
1.29154e-07
1.2918e-07
1.29223e-07
1.29254e-07
1.29315e-07
1.29353e-07
1.29434e-07
1.29481e-07
1.29653e-07
1.29657e-07
1.31373e-07
1.36266e-07
5.0587e-08
1.23931e-07
1.24225e-07
1.24859e-07
1.25432e-07
1.25897e-07
1.2627e-07
1.26577e-07
1.26831e-07
1.27048e-07
1.27231e-07
1.27391e-07
1.27528e-07
1.2765e-07
1.27755e-07
1.27851e-07
1.27934e-07
1.28011e-07
1.28076e-07
1.28139e-07
1.28194e-07
1.28245e-07
1.28289e-07
1.28332e-07
1.28369e-07
1.28403e-07
1.28434e-07
1.28465e-07
1.2849e-07
1.28516e-07
1.28538e-07
1.28561e-07
1.28582e-07
1.28596e-07
1.28609e-07
1.28629e-07
1.28646e-07
1.28659e-07
1.28668e-07
1.28685e-07
1.28697e-07
1.28701e-07
1.28709e-07
1.28731e-07
1.28736e-07
1.28727e-07
1.28744e-07
1.28751e-07
1.28757e-07
1.28768e-07
1.28773e-07
1.2878e-07
1.28784e-07
1.28783e-07
1.28784e-07
1.28786e-07
1.2879e-07
1.28789e-07
1.28789e-07
1.28815e-07
1.28818e-07
1.288e-07
1.28808e-07
1.2884e-07
1.28857e-07
1.28845e-07
1.28858e-07
1.28873e-07
1.28883e-07
1.28912e-07
1.28926e-07
1.28926e-07
1.28927e-07
1.28937e-07
1.28937e-07
1.28962e-07
1.2898e-07
1.28989e-07
1.29009e-07
1.29015e-07
1.29027e-07
1.29047e-07
1.29072e-07
1.29093e-07
1.29133e-07
1.29159e-07
1.29202e-07
1.29233e-07
1.29293e-07
1.29332e-07
1.29413e-07
1.2946e-07
1.29632e-07
1.29634e-07
1.31416e-07
1.36295e-07
5.29442e-08
1.23927e-07
1.24203e-07
1.24826e-07
1.25394e-07
1.25857e-07
1.2623e-07
1.26536e-07
1.26791e-07
1.27007e-07
1.27191e-07
1.27351e-07
1.27489e-07
1.27612e-07
1.27717e-07
1.27814e-07
1.27898e-07
1.27974e-07
1.28041e-07
1.28104e-07
1.28159e-07
1.2821e-07
1.28255e-07
1.28298e-07
1.28335e-07
1.2837e-07
1.28401e-07
1.28432e-07
1.28458e-07
1.28484e-07
1.28507e-07
1.28529e-07
1.28551e-07
1.28565e-07
1.28578e-07
1.28599e-07
1.28616e-07
1.28629e-07
1.28639e-07
1.28656e-07
1.28668e-07
1.28672e-07
1.2868e-07
1.28702e-07
1.28707e-07
1.28698e-07
1.28715e-07
1.28722e-07
1.28728e-07
1.2874e-07
1.28744e-07
1.28752e-07
1.28756e-07
1.28756e-07
1.28756e-07
1.28759e-07
1.28763e-07
1.28762e-07
1.28762e-07
1.28788e-07
1.28792e-07
1.28773e-07
1.28782e-07
1.28813e-07
1.2883e-07
1.28819e-07
1.28833e-07
1.28848e-07
1.28857e-07
1.28886e-07
1.289e-07
1.28901e-07
1.28902e-07
1.28913e-07
1.28913e-07
1.28938e-07
1.28956e-07
1.28965e-07
1.28986e-07
1.28992e-07
1.29004e-07
1.29024e-07
1.2905e-07
1.2907e-07
1.2911e-07
1.29136e-07
1.29179e-07
1.29211e-07
1.29271e-07
1.29309e-07
1.2939e-07
1.29437e-07
1.29609e-07
1.2961e-07
1.3146e-07
1.36324e-07
5.54084e-08
1.23923e-07
1.2418e-07
1.24792e-07
1.25355e-07
1.25815e-07
1.26187e-07
1.26493e-07
1.26748e-07
1.26965e-07
1.27149e-07
1.2731e-07
1.27448e-07
1.27571e-07
1.27678e-07
1.27774e-07
1.27859e-07
1.27936e-07
1.28003e-07
1.28066e-07
1.28122e-07
1.28174e-07
1.28219e-07
1.28262e-07
1.283e-07
1.28335e-07
1.28366e-07
1.28398e-07
1.28424e-07
1.2845e-07
1.28473e-07
1.28496e-07
1.28518e-07
1.28532e-07
1.28546e-07
1.28566e-07
1.28584e-07
1.28597e-07
1.28607e-07
1.28624e-07
1.28637e-07
1.28641e-07
1.28649e-07
1.28671e-07
1.28676e-07
1.28668e-07
1.28684e-07
1.28692e-07
1.28698e-07
1.2871e-07
1.28715e-07
1.28722e-07
1.28727e-07
1.28727e-07
1.28727e-07
1.2873e-07
1.28734e-07
1.28734e-07
1.28734e-07
1.28759e-07
1.28763e-07
1.28745e-07
1.28754e-07
1.28786e-07
1.28803e-07
1.28793e-07
1.28807e-07
1.28821e-07
1.28831e-07
1.28859e-07
1.28874e-07
1.28875e-07
1.28876e-07
1.28888e-07
1.28888e-07
1.28913e-07
1.28931e-07
1.2894e-07
1.28961e-07
1.28967e-07
1.2898e-07
1.29e-07
1.29026e-07
1.29046e-07
1.29086e-07
1.29112e-07
1.29156e-07
1.29187e-07
1.29247e-07
1.29285e-07
1.29366e-07
1.29413e-07
1.29586e-07
1.29584e-07
1.31504e-07
1.36352e-07
5.79802e-08
1.23919e-07
1.24156e-07
1.24756e-07
1.25313e-07
1.25771e-07
1.26142e-07
1.26448e-07
1.26703e-07
1.2692e-07
1.27105e-07
1.27266e-07
1.27405e-07
1.27529e-07
1.27636e-07
1.27733e-07
1.27818e-07
1.27896e-07
1.27963e-07
1.28027e-07
1.28083e-07
1.28135e-07
1.28181e-07
1.28224e-07
1.28262e-07
1.28298e-07
1.2833e-07
1.28361e-07
1.28388e-07
1.28415e-07
1.28438e-07
1.28461e-07
1.28483e-07
1.28498e-07
1.28512e-07
1.28532e-07
1.2855e-07
1.28563e-07
1.28574e-07
1.28591e-07
1.28604e-07
1.28609e-07
1.28616e-07
1.28639e-07
1.28644e-07
1.28636e-07
1.28652e-07
1.2866e-07
1.28667e-07
1.28679e-07
1.28684e-07
1.28691e-07
1.28696e-07
1.28696e-07
1.28697e-07