/*--------------------------------*- C++ -*----------------------------------*\
| =========                 |                                                 |
| \\      /  F ield         | OpenFOAM: The Open Source CFD Toolbox           |
|  \\    /   O peration     | Version:  v2012                                 |
|   \\  /    A nd           | Website:  www.openfoam.com                      |
|    \\/     M anipulation  |                                                 |
\*---------------------------------------------------------------------------*/
FoamFile
{
    version     2.0;
    format      ascii;
    class       volScalarField;
    location    "14";
    object      yPlus;
}
// * * * * * * * * * * * * * * * * * * * * * * * * * * * * * * * * * * * * * //

dimensions      [0 0 0 0 0 0 0];


internalField   uniform 0;

boundaryField
{
    inlet
    {
        type            calculated;
        value           uniform 0;
    }
    outlet
    {
        type            calculated;
        value           uniform 0;
    }
    topWall
    {
        type            calculated;
        value           nonuniform List<scalar> 
545
(
0.0993029
0.171378
0.219717
0.258211
0.290794
0.319289
0.344729
0.367764
0.388834
0.408255
0.426266
0.443051
0.458754
0.473497
0.487375
0.500473
0.512859
0.524595
0.535732
0.546317
0.556389
0.565986
0.575139
0.583877
0.592226
0.60021
0.607852
0.61517
0.622182
0.628907
0.635359
0.641552
0.6475
0.653215
0.658709
0.663993
0.669076
0.673968
0.678678
0.683215
0.687585
0.691797
0.695857
0.699772
0.703548
0.707192
0.710707
0.714101
0.717378
0.720542
0.723599
0.726552
0.729405
0.732163
0.734829
0.737406
0.739898
0.742309
0.744641
0.746897
0.74908
0.751192
0.753237
0.755217
0.757133
0.758989
0.760786
0.762526
0.764212
0.765845
0.767427
0.76896
0.770426
0.771843
0.773248
0.77464
0.776021
0.777389
0.778746
0.780091
0.781424
0.782746
0.784057
0.785356
0.786644
0.787922
0.789188
0.790443
0.791688
0.792923
0.794147
0.79536
0.796563
0.797756
0.798939
0.800114
0.801165
0.802105
0.803044
0.803983
0.80492
0.805858
0.806794
0.80773
0.808665
0.8096
0.810534
0.811467
0.8124
0.813331
0.814263
0.815193
0.816122
0.817051
0.817979
0.818907
0.819833
0.820759
0.821684
0.822608
0.823531
0.824454
0.825375
0.826296
0.827216
0.828135
0.829053
0.829971
0.830887
0.831803
0.832717
0.833631
0.834544
0.835455
0.836366
0.837276
0.838185
0.839093
0.84
0.840906
0.841811
0.842714
0.843617
0.844519
0.84542
0.846319
0.847218
0.848115
0.849012
0.849907
0.850801
0.851694
0.852586
0.853476
0.854366
0.855254
0.856141
0.857027
0.857912
0.858795
0.859677
0.860558
0.861438
0.862316
0.863193
0.864069
0.864943
0.865817
0.866688
0.867559
0.868428
0.869296
0.870162
0.871027
0.87189
0.872752
0.873613
0.874472
0.87533
0.876186
0.877041
0.877894
0.878746
0.879596
0.880445
0.881292
0.882138
0.882982
0.883824
0.884665
0.885504
0.886342
0.887177
0.888012
0.888844
0.889675
0.890504
0.891332
0.892157
0.892981
0.893804
0.894624
0.895443
0.89626
0.897075
0.897888
0.898699
0.899509
0.900317
0.901122
0.901926
0.902728
0.903528
0.904327
0.905123
0.905917
0.906709
0.907499
0.908288
0.909074
0.909858
0.91064
0.91142
0.912198
0.912974
0.913747
0.914519
0.915288
0.916056
0.916821
0.917584
0.918344
0.919103
0.919859
0.920613
0.921365
0.922114
0.922861
0.923606
0.924349
0.925089
0.925827
0.926562
0.927295
0.928026
0.928754
0.92948
0.930203
0.930924
0.931642
0.932358
0.933071
0.933782
0.93449
0.935196
0.935899
0.936599
0.937297
0.937992
0.938685
0.939375
0.940062
0.940747
0.941428
0.942108
0.942784
0.943458
0.944128
0.944797
0.945421
0.946009
0.946601
0.947195
0.947792
0.948393
0.948996
0.949602
0.950211
0.950823
0.951438
0.952055
0.952676
0.953298
0.953924
0.954552
0.955182
0.955815
0.95645
0.957088
0.957727
0.958369
0.959013
0.959659
0.960307
0.960956
0.961607
0.96226
0.962915
0.963571
0.964228
0.964887
0.965547
0.966208
0.96687
0.967533
0.968196
0.968861
0.969526
0.970191
0.970856
0.971522
0.972188
0.972853
0.973519
0.974184
0.974848
0.975512
0.976175
0.976837
0.977498
0.978158
0.978816
0.979472
0.980127
0.98078
0.981431
0.982079
0.982725
0.983368
0.984008
0.984645
0.985279
0.985909
0.986535
0.987158
0.987776
0.98839
0.989
0.989604
0.990203
0.990797
0.991386
0.991969
0.992545
0.993115
0.993679
0.994236
0.994785
0.995327
0.995862
0.996388
0.996906
0.997416
0.997917
0.998408
0.99889
0.999363
0.999825
1.00028
1.00072
1.00115
1.00157
1.00197
1.00237
1.00275
1.00312
1.00348
1.00382
1.00415
1.00447
1.00477
1.00505
1.00533
1.00558
1.00582
1.00605
1.00625
1.00644
1.00661
1.00677
1.00691
1.00702
1.00712
1.0072
1.00726
1.00731
1.00733
1.00732
1.0073
1.00726
1.0072
1.00711
1.007
1.00687
1.00671
1.00653
1.00633
1.0061
1.00585
1.00557
1.00527
1.00494
1.00459
1.00421
1.0038
1.00336
1.0029
1.00241
1.0019
1.00135
1.00078
1.00017
0.999544
0.998883
0.998194
0.997475
0.996726
0.995947
0.995139
0.9943
0.99343
0.992531
0.9916
0.99064
0.989648
0.988626
0.987573
0.986489
0.985374
0.984229
0.983053
0.981846
0.980609
0.979341
0.978043
0.976715
0.975356
0.973968
0.972549
0.971101
0.969623
0.968116
0.96658
0.965016
0.963422
0.961801
0.960152
0.958475
0.956771
0.955041
0.953096
0.950933
0.948763
0.946588
0.944406
0.94222
0.940031
0.937841
0.935649
0.933458
0.931268
0.929082
0.926899
0.924721
0.922549
0.920383
0.918226
0.916077
0.913937
0.911808
0.909689
0.907583
0.905489
0.903409
0.901342
0.899291
0.897254
0.895234
0.89323
0.891243
0.889275
0.887324
0.885393
0.883481
0.881589
0.879718
0.877868
0.87604
0.874233
0.87245
0.870689
0.868952
0.867239
0.86555
0.863885
0.862246
0.860632
0.859045
0.857483
0.855948
0.854439
0.852959
0.851505
0.850079
0.848682
0.847313
0.845972
0.844661
0.843379
0.842127
0.840904
0.839712
0.83855
0.837418
0.836317
0.835248
0.83421
0.833204
0.832229
0.831286
0.830376
0.829498
0.828653
0.827841
0.827062
0.826317
0.825604
0.824926
0.824282
0.823672
0.823096
0.822556
0.822049
0.821579
0.821143
0.820743
0.820378
0.820048
0.819754
0.819495
0.819268
0.819077
0.818913
0.818802
0.818656
)
;
    }
    bottomWall
    {
        type            calculated;
        value           nonuniform List<scalar> 
449
(
0.139567
0.0890353
0.0758879
0.0695339
0.0653888
0.062344
0.0600241
0.0583695
0.0575926
0.0581304
0.0615049
0.0653578
0.067884
0.0692442
0.0699577
0.0703256
0.0704769
0.0704797
0.070378
0.0702162
0.0700124
0.0697851
0.0695453
0.0692996
0.0690517
0.0688038
0.0685579
0.0683148
0.0680753
0.0678395
0.0676081
0.0673809
0.067158
0.0669394
0.0667257
0.0665165
0.0663123
0.0661125
0.0659176
0.0657269
0.0655411
0.0653591
0.065182
0.0650082
0.0648391
0.0646731
0.0645118
0.0643533
0.0641994
0.0640481
0.063901
0.0637564
0.0636158
0.0634775
0.0633429
0.0632106
0.0630816
0.0629548
0.0628312
0.0627094
0.0625907
0.0624737
0.0623596
0.0622472
0.0621375
0.0620295
0.0619239
0.06182
0.0617182
0.0616181
0.0615199
0.0614234
0.0613287
0.0612356
0.0611441
0.0610543
0.0609659
0.0608791
0.0607936
0.0607096
0.060627
0.0605456
0.0604657
0.0603867
0.0603094
0.0602329
0.0601579
0.0600835
0.0600109
0.0599387
0.0598681
0.059798
0.0597293
0.0596615
0.0595946
0.0595286
0.0594635
0.0593994
0.059336
0.0592737
0.059212
0.0591513
0.0590912
0.0590321
0.0589736
0.0589162
0.0588592
0.0588031
0.0587477
0.0586929
0.0586389
0.0585855
0.0585328
0.0584807
0.0584292
0.0583784
0.0583282
0.0582785
0.0582295
0.0581811
0.0581333
0.0580861
0.0580395
0.0579934
0.0579478
0.0579028
0.0578583
0.0578141
0.0577706
0.0577274
0.0576849
0.0576425
0.0576009
0.0575596
0.0575189
0.0574786
0.0574388
0.0573994
0.0573604
0.0573219
0.0572836
0.057246
0.0572082
0.0571714
0.0571344
0.0570981
0.0570617
0.057026
0.0569903
0.0569552
0.0569201
0.0568854
0.0568509
0.0568169
0.0567832
0.0567501
0.0567174
0.0566852
0.0566534
0.0566219
0.0565906
0.0565596
0.0565288
0.0564984
0.056468
0.0564382
0.0564087
0.0563795
0.0563506
0.0563219
0.0562933
0.0562647
0.0562364
0.0562099
0.0561846
0.0561594
0.0561339
0.0561085
0.0560832
0.0560579
0.0560328
0.0560077
0.0559824
0.0559571
0.055932
0.055907
0.0558824
0.055858
0.0558337
0.0558097
0.0557858
0.0557619
0.0557382
0.0557146
0.0556909
0.0556674
0.0556438
0.0556203
0.0555969
0.0555733
0.0555499
0.0555265
0.0555031
0.0554795
0.0554563
0.0554328
0.0554097
0.0553863
0.0553631
0.0553399
0.0553165
0.0552931
0.0552699
0.0552465
0.0552237
0.055201
0.0551781
0.0551558
0.0551329
0.05511
0.0550873
0.0550646
0.0550423
0.05502
0.0549981
0.0549765
0.0549553
0.0549343
0.0549134
0.0548923
0.0548717
0.054851
0.0548302
0.0548093
0.0547884
0.0547672
0.0547465
0.0547261
0.0547056
0.054686
0.0546658
0.054646
0.0546263
0.054607
0.0545877
0.0545688
0.0545501
0.0545312
0.0545128
0.0544941
0.0544759
0.0544574
0.0544395
0.0544217
0.0544037
0.0543862
0.0543689
0.0543521
0.0543351
0.0543185
0.0543015
0.0542843
0.0542672
0.0542494
0.0542324
0.0542157
0.054199
0.0541827
0.0541665
0.05415
0.0541338
0.0541174
0.0541014
0.0540862
0.0540711
0.0540554
0.0540401
0.0540251
0.054009
0.0539934
0.0539784
0.0539627
0.0539475
0.0539325
0.053917
0.0539021
0.0538871
0.0538717
0.0538569
0.0538416
0.0538263
0.0538118
0.0537964
0.0537818
0.0537673
0.0537527
0.0537377
0.0537233
0.0537086
0.0536932
0.0536781
0.0536637
0.0536486
0.053634
0.0536191
0.0536042
0.0535898
0.0535742
0.0535592
0.0535449
0.0535301
0.0535157
0.0535017
0.0534867
0.0534722
0.0534581
0.0534432
0.053429
0.0534152
0.0534008
0.0533868
0.0533732
0.0533588
0.0533449
0.0533313
0.0533169
0.053303
0.0532894
0.053275
0.0532612
0.0532477
0.0532334
0.0532197
0.0532062
0.0531919
0.0531783
0.0531648
0.053151
0.0531371
0.0531237
0.0531099
0.0530967
0.0530829
0.0530694
0.0530552
0.0530403
0.0530267
0.0530141
0.0530005
0.0529883
0.0529751
0.0529627
0.0529497
0.0529369
0.0529234
0.0529086
0.052895
0.052881
0.0528676
0.0528528
0.0528382
0.0528239
0.0528098
0.0527959
0.0527834
0.052771
0.0527578
0.052745
0.0527329
0.0527197
0.0527075
0.0526952
0.0526832
0.0526722
0.0526607
0.0526504
0.0526396
0.0526293
0.052619
0.0526083
0.0525971
0.0525872
0.0525774
0.0525669
0.0525578
0.052548
0.0525387
0.052529
0.0525199
0.0525109
0.0525013
0.0524932
0.0524841
0.0524759
0.0524669
0.0524582
0.0524502
0.0524415
0.0524338
0.0524255
0.0524176
0.0524092
0.0524002
0.0523924
0.052384
0.0523761
0.0523681
0.0523594
0.0523524
0.0523447
0.0523375
0.0523298
0.052323
0.0523158
0.0523082
0.052302
0.0522953
0.0522881
0.0522819
0.052275
0.052268
0.0522618
0.052255
0.0522483
0.0522422
0.0522356
0.0522291
0.0522234
0.0522168
0.0522113
0.0522047
0.0521992
0.0521935
0.0521881
0.0521834
0.0521776
0.0521715
0.0521662
0.0521601
0.0521543
0.0521492
0.0521434
0.0521378
0.0521335
0.052127
0.0521234
0.0521146
0.0521178
0.0521038
)
;
    }
    symmetry
    {
        type            symmetryPlane;
    }
    frontAndBack
    {
        type            empty;
    }
}


// ************************************************************************* //
