/*--------------------------------*- C++ -*----------------------------------*\
| =========                 |                                                 |
| \\      /  F ield         | OpenFOAM: The Open Source CFD Toolbox           |
|  \\    /   O peration     | Version:  v2012                                 |
|   \\  /    A nd           | Website:  www.openfoam.com                      |
|    \\/     M anipulation  |                                                 |
\*---------------------------------------------------------------------------*/
FoamFile
{
    version     2.0;
    format      ascii;
    class       volScalarField;
    location    "43.5";
    object      k;
}
// * * * * * * * * * * * * * * * * * * * * * * * * * * * * * * * * * * * * * //

dimensions      [0 2 -2 0 0 0 0];


internalField   nonuniform List<scalar> 
209825
(
0.00102415
0.000931542
0.000855388
0.000793763
0.000744718
0.000705837
0.000674948
0.000650128
0.000630005
0.000613446
0.000599709
0.000588153
0.000578375
0.000569999
0.000562795
0.000556532
0.000551071
0.00054627
0.000542033
0.000538274
0.000534919
0.000531925
0.000529226
0.000526805
0.000524599
0.000522618
0.000520795
0.000519156
0.00051763
0.00051626
0.000514974
0.000513821
0.000512724
0.000511748
0.00051081
0.000509979
0.000509167
0.000508454
0.000507751
0.00050714
0.000506528
0.000505998
0.000505467
0.00050501
0.000504541
0.000504146
0.000503736
0.000503393
0.000503031
0.000502731
0.00050241
0.000502149
0.000501872
0.000501649
0.000501397
0.000501214
0.000500987
0.000500829
0.00050063
0.000500493
0.000500316
0.000500195
0.000500045
0.000499934
0.00049981
0.000499712
0.000499582
0.000499499
0.000499396
0.000499341
0.000499257
0.000499215
0.000499143
0.000499107
0.000499038
0.000499005
0.000498949
0.000498927
0.000498882
0.000498874
0.000498856
0.000498875
0.000498875
0.000498919
0.000498919
0.000498984
0.000498989
0.000499066
0.000499086
0.000499179
0.000499199
0.000499282
0.000499481
0.000507627
0.000533934
0.00130394
0.00102415
0.000931542
0.000855388
0.000793763
0.000744717
0.000705835
0.000674944
0.000650124
0.000629999
0.00061344
0.000599703
0.000588145
0.000578367
0.00056999
0.000562785
0.000556522
0.000551061
0.000546259
0.000542022
0.000538263
0.000534908
0.000531913
0.000529214
0.000526793
0.000524587
0.000522606
0.000520782
0.000519143
0.000517617
0.000516247
0.000514961
0.000513807
0.000512711
0.000511734
0.000510796
0.000509965
0.000509154
0.00050844
0.000507737
0.000507126
0.000506514
0.000505984
0.000505453
0.000504996
0.000504527
0.000504132
0.000503722
0.000503379
0.000503017
0.000502716
0.000502395
0.000502135
0.000501857
0.000501634
0.000501383
0.000501199
0.000500972
0.000500814
0.000500615
0.000500479
0.000500301
0.00050018
0.00050003
0.000499919
0.000499795
0.000499697
0.000499567
0.000499484
0.000499381
0.000499326
0.000499242
0.0004992
0.000499128
0.000499092
0.000499023
0.00049899
0.000498934
0.000498912
0.000498867
0.000498859
0.000498841
0.00049886
0.00049886
0.000498904
0.000498904
0.000498968
0.000498974
0.000499051
0.000499071
0.000499164
0.000499184
0.000499267
0.000499466
0.000507627
0.000533927
0.00130468
0.00102415
0.000931543
0.000855389
0.000793762
0.000744712
0.000705825
0.00067493
0.000650105
0.000629977
0.000613413
0.000599673
0.000588113
0.000578332
0.000569953
0.000562746
0.000556481
0.000551019
0.000546216
0.000541977
0.000538217
0.000534861
0.000531866
0.000529165
0.000526744
0.000524537
0.000522555
0.000520731
0.000519091
0.000517565
0.000516194
0.000514908
0.000513754
0.000512657
0.000511681
0.000510742
0.000509911
0.000509099
0.000508385
0.000507682
0.00050707
0.000506458
0.000505928
0.000505397
0.000504939
0.00050447
0.000504075
0.000503665
0.000503322
0.00050296
0.000502659
0.000502338
0.000502077
0.0005018
0.000501577
0.000501325
0.000501141
0.000500914
0.000500756
0.000500557
0.00050042
0.000500243
0.000500122
0.000499971
0.00049986
0.000499737
0.000499638
0.000499508
0.000499425
0.000499322
0.000499267
0.000499183
0.00049914
0.000499069
0.000499033
0.000498964
0.000498931
0.000498875
0.000498853
0.000498807
0.0004988
0.000498781
0.0004988
0.000498799
0.000498844
0.000498844
0.000498908
0.000498913
0.00049899
0.00049901
0.000499103
0.000499123
0.000499206
0.000499406
0.000507597
0.00053388
0.00130616
0.00102415
0.000931544
0.00085539
0.000793759
0.000744702
0.000705808
0.000674905
0.000650073
0.000629938
0.000613368
0.000599623
0.000588058
0.000578274
0.00056989
0.000562681
0.000556413
0.000550948
0.000546143
0.000541902
0.00053814
0.000534783
0.000531786
0.000529084
0.000526661
0.000524453
0.000522471
0.000520645
0.000519005
0.000517478
0.000516106
0.000514819
0.000513665
0.000512567
0.00051159
0.000510651
0.000509819
0.000509007
0.000508293
0.000507589
0.000506977
0.000506364
0.000505834
0.000505302
0.000504845
0.000504375
0.00050398
0.00050357
0.000503226
0.000502864
0.000502563
0.000502242
0.000501981
0.000501703
0.00050148
0.000501228
0.000501044
0.000500816
0.000500659
0.000500459
0.000500322
0.000500145
0.000500024
0.000499873
0.000499762
0.000499638
0.000499539
0.000499409
0.000499326
0.000499224
0.000499168
0.000499084
0.000499041
0.00049897
0.000498933
0.000498864
0.000498831
0.000498775
0.000498753
0.000498707
0.0004987
0.000498681
0.000498699
0.000498699
0.000498743
0.000498743
0.000498807
0.000498812
0.000498889
0.000498909
0.000499001
0.000499021
0.000499104
0.000499305
0.000507543
0.0005338
0.00130795
0.00102414
0.000931546
0.000855392
0.000793755
0.00074469
0.000705784
0.00067487
0.000650027
0.000629883
0.000613305
0.000599552
0.000587981
0.000578191
0.000569803
0.000562589
0.000556317
0.000550848
0.00054604
0.000541797
0.000538032
0.000534672
0.000531673
0.000528969
0.000526545
0.000524335
0.000522351
0.000520525
0.000518883
0.000517355
0.000515982
0.000514694
0.000513539
0.00051244
0.000511462
0.000510522
0.00050969
0.000508877
0.000508162
0.000507458
0.000506846
0.000506232
0.000505701
0.00050517
0.000504711
0.000504242
0.000503846
0.000503435
0.000503091
0.000502729
0.000502428
0.000502106
0.000501845
0.000501567
0.000501343
0.000501091
0.000500907
0.000500679
0.000500521
0.000500321
0.000500184
0.000500007
0.000499885
0.000499734
0.000499623
0.000499499
0.0004994
0.00049927
0.000499187
0.000499084
0.000499028
0.000498944
0.000498901
0.00049883
0.000498793
0.000498724
0.000498691
0.000498635
0.000498612
0.000498566
0.000498559
0.00049854
0.000498558
0.000498557
0.0004986
0.0004986
0.000498664
0.000498669
0.000498746
0.000498766
0.000498858
0.000498878
0.000498961
0.000499163
0.000507465
0.000533686
0.00130997
0.00102414
0.000931549
0.000855394
0.00079375
0.000744673
0.000705753
0.000674825
0.000649969
0.000629812
0.000613224
0.000599461
0.000587882
0.000578084
0.000569689
0.000562469
0.000556192
0.000550719
0.000545907
0.000541659
0.000537891
0.000534529
0.000531527
0.000528821
0.000526394
0.000524183
0.000522197
0.000520368
0.000518725
0.000517195
0.000515821
0.000514532
0.000513375
0.000512276
0.000511297
0.000510356
0.000509523
0.000508709
0.000507994
0.000507289
0.000506675
0.000506061
0.00050553
0.000504997
0.000504539
0.000504068
0.000503672
0.000503261
0.000502917
0.000502554
0.000502252
0.00050193
0.000501668
0.00050139
0.000501166
0.000500914
0.000500729
0.000500501
0.000500343
0.000500143
0.000500005
0.000499828
0.000499706
0.000499555
0.000499443
0.000499319
0.00049922
0.00049909
0.000499006
0.000498903
0.000498847
0.000498763
0.00049872
0.000498648
0.000498611
0.000498542
0.000498509
0.000498452
0.00049843
0.000498384
0.000498376
0.000498356
0.000498374
0.000498373
0.000498416
0.000498416
0.000498479
0.000498484
0.00049856
0.00049858
0.000498672
0.000498691
0.000498775
0.000498978
0.000507364
0.000533538
0.00131217
0.00102414
0.000931552
0.000855396
0.000793744
0.000744652
0.000705715
0.00067477
0.000649897
0.000629725
0.000613123
0.000599348
0.000587759
0.000577952
0.000569549
0.000562322
0.000556039
0.00055056
0.000545742
0.000541491
0.000537718
0.000534352
0.000531347
0.000528638
0.000526208
0.000523994
0.000522006
0.000520175
0.00051853
0.000516998
0.000515623
0.000514332
0.000513174
0.000512073
0.000511093
0.000510151
0.000509316
0.000508501
0.000507785
0.000507079
0.000506465
0.00050585
0.000505318
0.000504785
0.000504326
0.000503854
0.000503458
0.000503046
0.000502701
0.000502337
0.000502035
0.000501713
0.000501451
0.000501172
0.000500948
0.000500695
0.00050051
0.000500282
0.000500123
0.000499923
0.000499785
0.000499607
0.000499485
0.000499333
0.000499221
0.000499097
0.000498998
0.000498867
0.000498784
0.00049868
0.000498624
0.00049854
0.000498496
0.000498424
0.000498387
0.000498318
0.000498285
0.000498228
0.000498205
0.000498159
0.000498151
0.00049813
0.000498147
0.000498146
0.000498188
0.000498188
0.000498251
0.000498256
0.000498332
0.000498351
0.000498443
0.000498462
0.000498545
0.00049875
0.000507241
0.000533356
0.00131445
0.00102414
0.000931556
0.000855399
0.000793737
0.000744628
0.00070567
0.000674704
0.000649811
0.000629621
0.000613003
0.000599215
0.000587612
0.000577794
0.000569382
0.000562146
0.000555855
0.00055037
0.000545546
0.000541289
0.000537512
0.000534141
0.000531132
0.000528419
0.000525986
0.000523769
0.000521778
0.000519945
0.000518297
0.000516764
0.000515386
0.000514093
0.000512934
0.000511831
0.00051085
0.000509906
0.00050907
0.000508254
0.000507537
0.00050683
0.000506215
0.000505599
0.000505065
0.000504531
0.000504071
0.0005036
0.000503202
0.00050279
0.000502444
0.00050208
0.000501777
0.000501454
0.000501192
0.000500912
0.000500687
0.000500434
0.000500248
0.00050002
0.00049986
0.00049966
0.000499522
0.000499343
0.000499221
0.000499069
0.000498957
0.000498832
0.000498733
0.000498602
0.000498518
0.000498414
0.000498358
0.000498273
0.00049823
0.000498157
0.00049812
0.000498051
0.000498017
0.00049796
0.000497937
0.00049789
0.000497882
0.000497861
0.000497877
0.000497876
0.000497917
0.000497917
0.000497979
0.000497983
0.000498059
0.000498078
0.000498169
0.000498188
0.000498271
0.000498479
0.000507096
0.00053314
0.00131665
0.00102414
0.00093156
0.000855403
0.000793729
0.0007446
0.000705618
0.000674627
0.000649711
0.0006295
0.000612864
0.000599059
0.000587442
0.000577611
0.000569187
0.000561942
0.000555642
0.000550149
0.000545318
0.000541055
0.000537272
0.000533896
0.000530882
0.000528165
0.000525728
0.000523508
0.000521514
0.000519677
0.000518027
0.000516491
0.000515111
0.000513816
0.000512654
0.00051155
0.000510566
0.000509621
0.000508784
0.000507966
0.000507248
0.000506539
0.000505923
0.000505306
0.000504771
0.000504236
0.000503776
0.000503303
0.000502904
0.000502491
0.000502145
0.00050178
0.000501476
0.000501153
0.000500889
0.000500609
0.000500384
0.00050013
0.000499944
0.000499715
0.000499555
0.000499354
0.000499215
0.000499037
0.000498914
0.000498762
0.000498649
0.000498524
0.000498424
0.000498293
0.000498209
0.000498105
0.000498048
0.000497963
0.000497919
0.000497846
0.000497809
0.000497739
0.000497705
0.000497648
0.000497624
0.000497578
0.000497569
0.000497547
0.000497562
0.00049756
0.000497601
0.000497601
0.000497662
0.000497666
0.000497741
0.00049776
0.000497851
0.000497869
0.000497952
0.000498163
0.000506929
0.000532889
0.00131852
0.00102414
0.000931565
0.000855406
0.000793719
0.000744568
0.000705559
0.00067454
0.000649597
0.000629363
0.000612705
0.000598881
0.000587248
0.000577402
0.000568966
0.000561709
0.000555399
0.000549896
0.000545058
0.000540787
0.000536998
0.000533616
0.000530597
0.000527875
0.000525433
0.000523209
0.000521211
0.000519371
0.000517717
0.000516178
0.000514796
0.000513498
0.000512334
0.000511228
0.000510242
0.000509295
0.000508456
0.000507637
0.000506917
0.000506207
0.000505589
0.000504971
0.000504435
0.000503899
0.000503437
0.000502963
0.000502564
0.000502149
0.000501802
0.000501436
0.000501132
0.000500808
0.000500544
0.000500263
0.000500037
0.000499782
0.000499596
0.000499366
0.000499205
0.000499004
0.000498865
0.000498685
0.000498562
0.000498409
0.000498296
0.000498171
0.000498071
0.00049794
0.000497855
0.00049775
0.000497693
0.000497607
0.000497563
0.00049749
0.000497453
0.000497383
0.000497348
0.00049729
0.000497267
0.00049722
0.00049721
0.000497188
0.000497202
0.0004972
0.000497239
0.000497239
0.0004973
0.000497303
0.000497378
0.000497396
0.000497486
0.000497504
0.000497588
0.000497801
0.000506741
0.000532604
0.00131972
0.00102414
0.00093157
0.000855411
0.000793709
0.000744532
0.000705492
0.000674442
0.00064947
0.000629208
0.000612526
0.000598681
0.000587029
0.000577167
0.000568716
0.000561446
0.000555125
0.000549612
0.000544764
0.000540485
0.000536688
0.0005333
0.000530274
0.000527547
0.000525101
0.000522871
0.000520869
0.000519026
0.000517368
0.000515826
0.00051444
0.00051314
0.000511973
0.000510864
0.000509877
0.000508927
0.000508086
0.000507265
0.000506543
0.000505832
0.000505212
0.000504593
0.000504056
0.000503518
0.000503055
0.00050258
0.000502179
0.000501764
0.000501416
0.000501049
0.000500744
0.000500418
0.000500154
0.000499872
0.000499645
0.00049939
0.000499202
0.000498972
0.000498811
0.000498609
0.000498469
0.000498289
0.000498165
0.000498012
0.000497899
0.000497772
0.000497673
0.000497541
0.000497456
0.00049735
0.000497293
0.000497207
0.000497162
0.000497089
0.000497051
0.00049698
0.000496946
0.000496887
0.000496863
0.000496816
0.000496806
0.000496782
0.000496796
0.000496793
0.000496831
0.00049683
0.00049689
0.000496893
0.000496968
0.000496985
0.000497075
0.000497092
0.000497176
0.000497393
0.000506531
0.000532283
0.00131977
0.00102414
0.000931576
0.000855416
0.000793698
0.000744492
0.000705418
0.000674333
0.000649328
0.000629036
0.000612327
0.000598458
0.000586785
0.000576905
0.000568437
0.000561153
0.000554819
0.000549295
0.000544437
0.000540148
0.000536343
0.000532947
0.000529915
0.000527182
0.00052473
0.000522495
0.000520488
0.00051864
0.000516979
0.000515433
0.000514044
0.00051274
0.000511571
0.000510459
0.000509469
0.000508517
0.000507674
0.000506851
0.000506127
0.000505413
0.000504792
0.000504171
0.000503632
0.000503093
0.000502629
0.000502152
0.000501751
0.000501334
0.000500984
0.000500616
0.000500311
0.000499984
0.000499719
0.000499435
0.000499208
0.000498952
0.000498764
0.000498532
0.000498371
0.000498168
0.000498027
0.000497847
0.000497723
0.000497569
0.000497455
0.000497328
0.000497228
0.000497095
0.00049701
0.000496904
0.000496846
0.000496759
0.000496714
0.00049664
0.000496602
0.000496531
0.000496496
0.000496437
0.000496413
0.000496365
0.000496355
0.00049633
0.000496342
0.000496339
0.000496375
0.000496375
0.000496434
0.000496436
0.00049651
0.000496527
0.000496616
0.000496632
0.000496716
0.000496938
0.0005063
0.000531926
0.00131828
0.00102414
0.000931583
0.000855422
0.000793686
0.000744449
0.000705338
0.000674214
0.000649172
0.000628847
0.000612108
0.000598213
0.000586516
0.000576616
0.00056813
0.00056083
0.000554481
0.000548944
0.000544075
0.000539777
0.000535962
0.000532558
0.000529518
0.000526778
0.00052432
0.00052208
0.000520067
0.000518215
0.000516549
0.000514999
0.000513606
0.000512299
0.000511126
0.000510011
0.000509018
0.000508063
0.000507218
0.000506392
0.000505666
0.000504951
0.000504328
0.000503704
0.000503164
0.000502623
0.000502157
0.000501679
0.000501276
0.000500858
0.000500508
0.000500138
0.000499832
0.000499504
0.000499237
0.000498953
0.000498725
0.000498467
0.000498279
0.000498046
0.000497884
0.00049768
0.000497539
0.000497358
0.000497233
0.000497078
0.000496964
0.000496836
0.000496736
0.000496603
0.000496517
0.00049641
0.000496351
0.000496264
0.000496219
0.000496145
0.000496106
0.000496035
0.000495999
0.00049594
0.000495915
0.000495867
0.000495856
0.000495829
0.000495841
0.000495837
0.000495871
0.000495871
0.000495929
0.000495931
0.000496004
0.00049602
0.000496108
0.000496123
0.000496208
0.000496435
0.000506048
0.000531533
0.00131523
0.00102414
0.00093159
0.000855428
0.000793672
0.000744402
0.000705249
0.000674083
0.000649001
0.00062864
0.000611868
0.000597944
0.000586222
0.000576299
0.000567793
0.000560476
0.000554112
0.000548561
0.000543679
0.000539369
0.000535545
0.000532131
0.000529083
0.000526335
0.00052387
0.000521624
0.000519606
0.000517748
0.000516077
0.000514522
0.000513125
0.000511814
0.000510638
0.000509519
0.000508523
0.000507566
0.000506718
0.000505889
0.000505161
0.000504443
0.000503818
0.000503192
0.000502651
0.000502108
0.00050164
0.00050116
0.000500756
0.000500336
0.000499984
0.000499614
0.000499306
0.000498977
0.000498709
0.000498423
0.000498195
0.000497936
0.000497746
0.000497513
0.00049735
0.000497145
0.000497003
0.000496821
0.000496696
0.00049654
0.000496425
0.000496297
0.000496196
0.000496062
0.000495976
0.000495868
0.000495809
0.000495721
0.000495675
0.0004956
0.000495561
0.00049549
0.000495454
0.000495394
0.000495369
0.00049532
0.000495308
0.00049528
0.000495291
0.000495285
0.000495318
0.000495318
0.000495374
0.000495376
0.000495448
0.000495464
0.000495551
0.000495565
0.00049565
0.000495883
0.000505775
0.000531102
0.00131066
0.00102414
0.000931598
0.000855435
0.000793658
0.000744351
0.000705154
0.000673942
0.000648816
0.000628415
0.000611608
0.000597652
0.000585903
0.000575955
0.000567427
0.000560091
0.000553709
0.000548143
0.000543248
0.000538926
0.00053509
0.000531667
0.00052861
0.000525853
0.000523381
0.000521127
0.000519103
0.000517239
0.000515563
0.000514003
0.000512602
0.000511286
0.000510106
0.000508984
0.000507984
0.000507023
0.000506172
0.000505341
0.00050461
0.00050389
0.000503262
0.000502635
0.000502091
0.000501546
0.000501076
0.000500595
0.000500189
0.000499767
0.000499414
0.000499042
0.000498733
0.000498402
0.000498133
0.000497846
0.000497617
0.000497356
0.000497166
0.000496931
0.000496767
0.000496562
0.000496419
0.000496236
0.00049611
0.000495954
0.000495838
0.000495708
0.000495607
0.000495473
0.000495386
0.000495278
0.000495218
0.000495129
0.000495082
0.000495007
0.000494968
0.000494896
0.000494859
0.000494799
0.000494773
0.000494723
0.000494711
0.000494682
0.000494691
0.000494685
0.000494716
0.000494715
0.00049477
0.000494771
0.000494842
0.000494857
0.000494943
0.000494956
0.000495042
0.000495281
0.000505481
0.000530631
0.00130459
0.00102414
0.000931606
0.000855442
0.000793643
0.000744297
0.000705052
0.00067379
0.000648617
0.000628173
0.000611327
0.000597337
0.000585557
0.000575583
0.000567032
0.000559674
0.000553274
0.000547691
0.000542781
0.000538445
0.000534598
0.000531163
0.000528096
0.000525331
0.00052285
0.000520589
0.000518558
0.000516688
0.000515006
0.000513441
0.000512034
0.000510714
0.00050953
0.000508403
0.0005074
0.000506436
0.000505581
0.000504747
0.000504013
0.00050329
0.00050266
0.00050203
0.000501484
0.000500936
0.000500465
0.000499981
0.000499574
0.00049915
0.000498796
0.000498422
0.000498111
0.000497779
0.000497509
0.00049722
0.00049699
0.000496728
0.000496537
0.000496301
0.000496136
0.000495929
0.000495786
0.000495602
0.000495474
0.000495317
0.000495201
0.00049507
0.000494969
0.000494834
0.000494746
0.000494637
0.000494576
0.000494487
0.00049444
0.000494364
0.000494324
0.000494251
0.000494214
0.000494153
0.000494126
0.000494077
0.000494063
0.000494033
0.000494041
0.000494033
0.000494062
0.000494062
0.000494115
0.000494115
0.000494186
0.0004942
0.000494284
0.000494297
0.000494383
0.000494629
0.000505164
0.000530121
0.00129705
0.00102414
0.000931615
0.00085545
0.000793628
0.000744239
0.000704942
0.000673627
0.000648403
0.000627912
0.000611025
0.000596998
0.000585185
0.000575182
0.000566605
0.000559225
0.000552805
0.000547204
0.000542278
0.000537928
0.000534067
0.000530621
0.000527543
0.000524768
0.000522278
0.000520009
0.000517971
0.000516094
0.000514405
0.000512834
0.000511422
0.000510097
0.000508908
0.000507777
0.00050677
0.000505802
0.000504944
0.000504106
0.000503369
0.000502643
0.00050201
0.000501378
0.000500829
0.000500279
0.000499806
0.00049932
0.00049891
0.000498485
0.000498129
0.000497753
0.000497441
0.000497107
0.000496836
0.000496545
0.000496314
0.00049605
0.000495858
0.000495621
0.000495454
0.000495246
0.000495102
0.000494917
0.000494789
0.000494631
0.000494513
0.000494382
0.00049428
0.000494145
0.000494056
0.000493946
0.000493884
0.000493794
0.000493746
0.00049367
0.000493629
0.000493556
0.000493518
0.000493456
0.000493429
0.000493379
0.000493364
0.000493333
0.000493339
0.00049333
0.000493357
0.000493356
0.000493407
0.000493408
0.000493477
0.00049349
0.000493573
0.000493585
0.000493671
0.000493925
0.000504824
0.000529568
0.00128809
0.00102414
0.000931624
0.000855459
0.000793611
0.000744178
0.000704825
0.000673454
0.000648175
0.000627634
0.000610701
0.000596635
0.000584787
0.000574753
0.000566149
0.000558744
0.000552302
0.000546682
0.000541738
0.000537373
0.000533498
0.000530039
0.00052695
0.000524164
0.000521665
0.000519387
0.00051734
0.000515456
0.000513761
0.000512183
0.000510765
0.000509435
0.000508241
0.000507105
0.000506093
0.000505121
0.000504259
0.000503418
0.000502678
0.000501948
0.000501313
0.000500677
0.000500126
0.000499573
0.000499098
0.000498609
0.000498198
0.00049777
0.000497412
0.000497034
0.000496721
0.000496385
0.000496112
0.00049582
0.000495587
0.000495322
0.000495128
0.00049489
0.000494722
0.000494513
0.000494368
0.000494182
0.000494052
0.000493893
0.000493775
0.000493642
0.00049354
0.000493404
0.000493315
0.000493203
0.000493141
0.00049305
0.000493001
0.000492924
0.000492883
0.000492809
0.00049277
0.000492708
0.00049268
0.000492628
0.000492613
0.000492581
0.000492585
0.000492575
0.0004926
0.000492599
0.000492647
0.000492648
0.000492715
0.000492728
0.000492809
0.00049282
0.000492906
0.000493169
0.00050446
0.000528971
0.00127774
0.00102413
0.000931634
0.000855469
0.000793594
0.000744113
0.000704702
0.000673269
0.000647932
0.000627338
0.000610357
0.000596249
0.000584363
0.000574295
0.000565662
0.000558231
0.000551766
0.000546125
0.000541162
0.00053678
0.00053289
0.000529417
0.000526315
0.000523519
0.000521009
0.000518721
0.000516666
0.000514773
0.000513071
0.000511487
0.000510063
0.000508726
0.000507527
0.000506386
0.00050537
0.000504393
0.000503527
0.000502682
0.000501938
0.000501205
0.000500566
0.000499927
0.000499373
0.000498818
0.00049834
0.000497849
0.000497435
0.000497005
0.000496645
0.000496265
0.00049595
0.000495612
0.000495338
0.000495044
0.000494809
0.000494543
0.000494347
0.000494108
0.000493939
0.000493728
0.000493582
0.000493395
0.000493264
0.000493104
0.000492985
0.000492851
0.000492748
0.000492611
0.000492521
0.000492408
0.000492345
0.000492253
0.000492203
0.000492125
0.000492084
0.000492009
0.00049197
0.000491906
0.000491878
0.000491825
0.00049181
0.000491776
0.000491778
0.000491766
0.00049179
0.000491787
0.000491834
0.000491834
0.0004919
0.000491912
0.000491992
0.000492001
0.000492088
0.00049236
0.000504071
0.000528327
0.00126607
0.00102413
0.000931645
0.000855479
0.000793576
0.000744045
0.000704571
0.000673074
0.000647675
0.000627024
0.000609992
0.000595838
0.000583912
0.000573809
0.000565143
0.000557684
0.000551194
0.000545531
0.000540548
0.000536148
0.000532242
0.000528755
0.00052564
0.000522831
0.00052031
0.000518012
0.000515947
0.000514046
0.000512336
0.000510745
0.000509314
0.000507971
0.000506765
0.000505619
0.000504598
0.000503616
0.000502746
0.000501897
0.000501149
0.000500412
0.00049977
0.000499128
0.000498571
0.000498012
0.000497532
0.000497038
0.000496622
0.000496189
0.000495827
0.000495445
0.000495128
0.000494788
0.000494512
0.000494216
0.00049398
0.000493711
0.000493514
0.000493273
0.000493103
0.000492891
0.000492743
0.000492555
0.000492423
0.000492262
0.000492141
0.000492006
0.000491903
0.000491765
0.000491674
0.00049156
0.000491496
0.000491402
0.000491352
0.000491273
0.000491231
0.000491156
0.000491116
0.000491051
0.000491022
0.000490969
0.000490952
0.000490917
0.000490918
0.000490904
0.000490925
0.000490922
0.000490966
0.000490966
0.000491031
0.000491041
0.000491119
0.000491127
0.000491215
0.000491497
0.000503654
0.000527632
0.00125313
0.00102413
0.000931656
0.00085549
0.000793558
0.000743973
0.000704434
0.000672868
0.000647403
0.000626692
0.000609605
0.000595403
0.000583434
0.000573293
0.000564594
0.000557105
0.000550588
0.000544901
0.000539897
0.000535478
0.000531554
0.000528051
0.000524922
0.0005221
0.000519567
0.000517259
0.000515184
0.000513274
0.000511555
0.000509956
0.000508518
0.000507168
0.000505956
0.000504805
0.000503778
0.000502791
0.000501916
0.000501062
0.00050031
0.000499569
0.000498924
0.000498278
0.000497718
0.000497156
0.000496672
0.000496176
0.000495757
0.000495322
0.000494957
0.000494573
0.000494253
0.000493912
0.000493634
0.000493335
0.000493098
0.000492827
0.000492629
0.000492386
0.000492214
0.000492001
0.000491851
0.000491662
0.000491529
0.000491366
0.000491245
0.000491108
0.000491004
0.000490865
0.000490773
0.000490658
0.000490593
0.000490498
0.000490447
0.000490367
0.000490324
0.000490248
0.000490208
0.000490142
0.000490112
0.000490058
0.00049004
0.000490004
0.000490002
0.000489987
0.000490006
0.000490002
0.000490043
0.000490043
0.000490106
0.000490115
0.000490191
0.000490198
0.000490287
0.00049058
0.000503207
0.000526883
0.00123897
0.00102413
0.000931667
0.000855501
0.000793539
0.000743899
0.00070429
0.000672652
0.000647117
0.000626341
0.000609197
0.000594944
0.000582929
0.000572748
0.000564013
0.000556492
0.000549947
0.000544235
0.000539208
0.000534768
0.000530826
0.000527307
0.000524162
0.000521326
0.000518781
0.000516461
0.000514375
0.000512455
0.000510727
0.00050912
0.000507674
0.000506317
0.000505099
0.000503941
0.000502908
0.000501916
0.000501036
0.000500177
0.000499421
0.000498676
0.000498026
0.000497377
0.000496813
0.000496248
0.000495761
0.000495261
0.00049484
0.000494402
0.000494035
0.000493648
0.000493326
0.000492982
0.000492702
0.000492401
0.000492162
0.00049189
0.00049169
0.000491445
0.000491272
0.000491056
0.000490906
0.000490715
0.00049058
0.000490416
0.000490294
0.000490155
0.00049005
0.000489911
0.000489818
0.000489702
0.000489635
0.000489539
0.000489487
0.000489406
0.000489363
0.000489286
0.000489244
0.000489177
0.000489146
0.000489091
0.000489073
0.000489035
0.000489032
0.000489015
0.000489031
0.000489026
0.000489064
0.000489064
0.000489125
0.000489133
0.000489207
0.000489213
0.000489302
0.000489607
0.000502725
0.000526079
0.00122368
0.00102413
0.000931679
0.000855513
0.00079352
0.000743821
0.00070414
0.000672426
0.000646817
0.000625974
0.000608768
0.00059446
0.000582397
0.000572173
0.0005634
0.000555846
0.000549271
0.000543531
0.00053848
0.000534019
0.000530057
0.00052652
0.000523359
0.000520508
0.00051795
0.000515617
0.000513521
0.00051159
0.000509853
0.000508236
0.000506782
0.000505418
0.000504193
0.000503028
0.000501989
0.000500991
0.000500106
0.000499242
0.000498481
0.000497731
0.000497077
0.000496424
0.000495856
0.000495287
0.000494798
0.000494295
0.00049387
0.000493429
0.000493059
0.000492669
0.000492346
0.000491999
0.000491717
0.000491414
0.000491173
0.000490898
0.000490696
0.00049045
0.000490274
0.000490057
0.000489905
0.000489713
0.000489577
0.000489411
0.000489288
0.000489148
0.000489042
0.000488901
0.000488807
0.00048869
0.000488622
0.000488525
0.000488472
0.00048839
0.000488345
0.000488267
0.000488225
0.000488157
0.000488125
0.000488069
0.000488049
0.00048801
0.000488005
0.000487986
0.000488
0.000487994
0.000488028
0.000488028
0.000488087
0.000488094
0.000488166
0.00048817
0.00048826
0.000488577
0.000502201
0.000525217
0.00120731
0.00102413
0.000931692
0.000855526
0.0007935
0.000743741
0.000703983
0.000672189
0.000646502
0.000625588
0.000608318
0.000593952
0.000581838
0.000571569
0.000562756
0.000555166
0.000548559
0.000542791
0.000537714
0.00053323
0.000529247
0.000525691
0.000522513
0.000519647
0.000517074
0.000514728
0.00051262
0.000510678
0.000508931
0.000507305
0.000505842
0.000504469
0.000503237
0.000502065
0.00050102
0.000500015
0.000499124
0.000498255
0.000497489
0.000496735
0.000496076
0.000495418
0.000494847
0.000494274
0.000493781
0.000493274
0.000492847
0.000492402
0.00049203
0.000491637
0.000491311
0.000490962
0.000490677
0.000490372
0.000490129
0.000489851
0.000489648
0.000489399
0.000489222
0.000489003
0.000488849
0.000488655
0.000488518
0.000488351
0.000488226
0.000488084
0.000487977
0.000487835
0.000487741
0.000487621
0.000487552
0.000487454
0.0004874
0.000487316
0.000487271
0.000487192
0.000487149
0.00048708
0.000487047
0.000486989
0.000486968
0.000486929
0.000486922
0.0004869
0.000486912
0.000486904
0.000486936
0.000486935
0.000486992
0.000486998
0.000487067
0.00048707
0.000487161
0.000487491
0.000501629
0.000524294
0.00118995
0.00102412
0.000931704
0.00085554
0.00079348
0.000743657
0.00070382
0.000671942
0.000646174
0.000625184
0.000607846
0.00059342
0.000581252
0.000570935
0.000562079
0.000554452
0.000547811
0.000542013
0.000536909
0.0005324
0.000528396
0.00052482
0.000521624
0.000518741
0.000516153
0.000513793
0.000511672
0.000509719
0.000507961
0.000506325
0.000504853
0.000503471
0.000502231
0.000501051
0.000499999
0.000498988
0.000498091
0.000497216
0.000496445
0.000495685
0.000495022
0.00049436
0.000493784
0.000493207
0.00049271
0.0004922
0.000491769
0.000491321
0.000490946
0.00049055
0.000490221
0.000489869
0.000489583
0.000489274
0.000489029
0.000488749
0.000488543
0.000488293
0.000488114
0.000487893
0.000487737
0.000487541
0.000487402
0.000487233
0.000487107
0.000486964
0.000486856
0.000486713
0.000486617
0.000486496
0.000486426
0.000486326
0.00048627
0.000486186
0.00048614
0.00048606
0.000486016
0.000485945
0.000485911
0.000485852
0.00048583
0.000485789
0.000485781
0.000485756
0.000485766
0.000485757
0.000485785
0.000485783
0.000485838
0.000485843
0.000485909
0.000485911
0.000486003
0.000486346
0.000500999
0.000523308
0.00117166
0.00102412
0.000931718
0.000855555
0.00079346
0.000743571
0.000703651
0.000671685
0.000645832
0.000624763
0.000607354
0.000592864
0.000580639
0.000570272
0.000561371
0.000553704
0.000547027
0.000541198
0.000536065
0.000531531
0.000527503
0.000523906
0.00052069
0.00051779
0.000515186
0.000512812
0.000510677
0.000508711
0.000506942
0.000505295
0.000503814
0.000502423
0.000501174
0.000499987
0.000498927
0.000497909
0.000497006
0.000496125
0.000495348
0.000494583
0.000493915
0.000493248
0.000492668
0.000492086
0.000491586
0.000491071
0.000490637
0.000490185
0.000489807
0.000489408
0.000489076
0.000488721
0.000488432
0.00048812
0.000487873
0.000487591
0.000487383