/*--------------------------------*- C++ -*----------------------------------*\
| =========                 |                                                 |
| \\      /  F ield         | OpenFOAM: The Open Source CFD Toolbox           |
|  \\    /   O peration     | Version:  v2012                                 |
|   \\  /    A nd           | Website:  www.openfoam.com                      |
|    \\/     M anipulation  |                                                 |
\*---------------------------------------------------------------------------*/
FoamFile
{
    version     2.0;
    format      ascii;
    class       volScalarField;
    location    "43.5";
    object      nut;
}
// * * * * * * * * * * * * * * * * * * * * * * * * * * * * * * * * * * * * * //

dimensions      [0 2 -1 0 0 0 0];


internalField   nonuniform List<scalar> 
209825
(
1.23964e-07
1.23083e-07
1.22208e-07
1.21283e-07
1.20375e-07
1.19519e-07
1.18767e-07
1.18104e-07
1.17548e-07
1.17062e-07
1.16661e-07
1.16307e-07
1.16016e-07
1.15754e-07
1.15541e-07
1.15344e-07
1.15185e-07
1.15035e-07
1.14915e-07
1.14798e-07
1.14707e-07
1.14615e-07
1.14544e-07
1.14472e-07
1.14416e-07
1.14358e-07
1.14314e-07
1.14266e-07
1.14231e-07
1.14192e-07
1.14165e-07
1.14132e-07
1.14109e-07
1.14083e-07
1.14065e-07
1.14042e-07
1.14027e-07
1.14008e-07
1.13995e-07
1.1398e-07
1.13969e-07
1.13956e-07
1.13948e-07
1.13937e-07
1.13929e-07
1.1392e-07
1.13914e-07
1.13908e-07
1.13902e-07
1.13895e-07
1.13889e-07
1.13883e-07
1.13877e-07
1.13876e-07
1.13869e-07
1.13869e-07
1.13862e-07
1.13864e-07
1.13858e-07
1.13859e-07
1.13851e-07
1.1385e-07
1.13846e-07
1.13841e-07
1.13839e-07
1.13835e-07
1.13829e-07
1.13825e-07
1.13821e-07
1.13819e-07
1.13817e-07
1.13816e-07
1.13814e-07
1.13813e-07
1.13812e-07
1.13813e-07
1.13813e-07
1.13814e-07
1.13815e-07
1.13818e-07
1.13824e-07
1.13831e-07
1.13839e-07
1.13848e-07
1.1385e-07
1.1386e-07
1.13861e-07
1.13867e-07
1.13872e-07
1.13878e-07
1.13883e-07
1.13879e-07
1.13906e-07
1.15003e-07
1.18005e-07
1.1521e-08
1.23964e-07
1.23083e-07
1.22208e-07
1.21283e-07
1.20375e-07
1.19519e-07
1.18767e-07
1.18104e-07
1.17548e-07
1.17062e-07
1.16662e-07
1.16307e-07
1.16016e-07
1.15754e-07
1.15541e-07
1.15344e-07
1.15185e-07
1.15035e-07
1.14915e-07
1.14798e-07
1.14707e-07
1.14615e-07
1.14544e-07
1.14472e-07
1.14416e-07
1.14358e-07
1.14314e-07
1.14267e-07
1.14232e-07
1.14192e-07
1.14165e-07
1.14132e-07
1.1411e-07
1.14083e-07
1.14065e-07
1.14043e-07
1.14027e-07
1.14008e-07
1.13996e-07
1.1398e-07
1.13969e-07
1.13956e-07
1.13948e-07
1.13937e-07
1.13929e-07
1.1392e-07
1.13915e-07
1.13908e-07
1.13902e-07
1.13896e-07
1.13889e-07
1.13883e-07
1.13878e-07
1.13876e-07
1.13869e-07
1.1387e-07
1.13863e-07
1.13864e-07
1.13859e-07
1.13859e-07
1.13852e-07
1.1385e-07
1.13846e-07
1.13842e-07
1.1384e-07
1.13835e-07
1.1383e-07
1.13825e-07
1.13821e-07
1.13819e-07
1.13817e-07
1.13816e-07
1.13814e-07
1.13814e-07
1.13812e-07
1.13813e-07
1.13813e-07
1.13815e-07
1.13815e-07
1.13819e-07
1.13824e-07
1.13832e-07
1.1384e-07
1.13849e-07
1.1385e-07
1.1386e-07
1.13861e-07
1.13868e-07
1.13872e-07
1.13878e-07
1.13883e-07
1.13879e-07
1.13907e-07
1.15006e-07
1.18006e-07
1.18735e-08
1.23964e-07
1.23083e-07
1.22209e-07
1.21284e-07
1.20376e-07
1.19519e-07
1.18768e-07
1.18104e-07
1.17548e-07
1.17062e-07
1.16661e-07
1.16307e-07
1.16016e-07
1.15754e-07
1.15541e-07
1.15343e-07
1.15185e-07
1.15034e-07
1.14914e-07
1.14798e-07
1.14706e-07
1.14614e-07
1.14544e-07
1.14471e-07
1.14415e-07
1.14357e-07
1.14313e-07
1.14266e-07
1.14231e-07
1.14191e-07
1.14164e-07
1.14131e-07
1.14108e-07
1.14082e-07
1.14064e-07
1.14042e-07
1.14026e-07
1.14007e-07
1.13995e-07
1.13979e-07
1.13968e-07
1.13955e-07
1.13947e-07
1.13936e-07
1.13928e-07
1.13919e-07
1.13913e-07
1.13907e-07
1.13901e-07
1.13894e-07
1.13888e-07
1.13882e-07
1.13876e-07
1.13875e-07
1.13868e-07
1.13868e-07
1.13861e-07
1.13863e-07
1.13857e-07
1.13858e-07
1.1385e-07
1.13849e-07
1.13845e-07
1.1384e-07
1.13838e-07
1.13834e-07
1.13828e-07
1.13824e-07
1.1382e-07
1.13818e-07
1.13816e-07
1.13815e-07
1.13813e-07
1.13812e-07
1.13811e-07
1.13812e-07
1.13812e-07
1.13813e-07
1.13814e-07
1.13817e-07
1.13823e-07
1.1383e-07
1.13838e-07
1.13847e-07
1.13848e-07
1.13858e-07
1.1386e-07
1.13866e-07
1.13871e-07
1.13877e-07
1.13882e-07
1.13878e-07
1.13905e-07
1.15009e-07
1.18006e-07
1.23113e-08
1.23964e-07
1.23083e-07
1.22209e-07
1.21284e-07
1.20376e-07
1.19519e-07
1.18768e-07
1.18104e-07
1.17549e-07
1.17062e-07
1.16661e-07
1.16306e-07
1.16016e-07
1.15753e-07
1.1554e-07
1.15343e-07
1.15184e-07
1.15033e-07
1.14913e-07
1.14797e-07
1.14705e-07
1.14613e-07
1.14542e-07
1.1447e-07
1.14414e-07
1.14356e-07
1.14312e-07
1.14264e-07
1.14229e-07
1.1419e-07
1.14162e-07
1.1413e-07
1.14107e-07
1.1408e-07
1.14062e-07
1.1404e-07
1.14024e-07
1.14005e-07
1.13993e-07
1.13978e-07
1.13966e-07
1.13953e-07
1.13945e-07
1.13934e-07
1.13926e-07
1.13917e-07
1.13912e-07
1.13905e-07
1.13899e-07
1.13893e-07
1.13886e-07
1.1388e-07
1.13875e-07
1.13873e-07
1.13866e-07
1.13867e-07
1.13859e-07
1.13861e-07
1.13856e-07
1.13856e-07
1.13848e-07
1.13847e-07
1.13843e-07
1.13839e-07
1.13836e-07
1.13832e-07
1.13826e-07
1.13822e-07
1.13818e-07
1.13816e-07
1.13814e-07
1.13813e-07
1.13811e-07
1.1381e-07
1.13809e-07
1.1381e-07
1.1381e-07
1.13812e-07
1.13812e-07
1.13816e-07
1.13821e-07
1.13828e-07
1.13836e-07
1.13845e-07
1.13846e-07
1.13857e-07
1.13858e-07
1.13864e-07
1.13869e-07
1.13875e-07
1.1388e-07
1.13876e-07
1.13904e-07
1.15014e-07
1.18006e-07
1.27979e-08
1.23964e-07
1.23083e-07
1.22209e-07
1.21284e-07
1.20377e-07
1.1952e-07
1.18769e-07
1.18105e-07
1.17549e-07
1.17063e-07
1.16661e-07
1.16306e-07
1.16015e-07
1.15753e-07
1.15539e-07
1.15342e-07
1.15183e-07
1.15032e-07
1.14912e-07
1.14796e-07
1.14704e-07
1.14612e-07
1.14541e-07
1.14468e-07
1.14413e-07
1.14354e-07
1.1431e-07
1.14263e-07
1.14228e-07
1.14188e-07
1.1416e-07
1.14128e-07
1.14105e-07
1.14078e-07
1.1406e-07
1.14038e-07
1.14022e-07
1.14003e-07
1.13991e-07
1.13976e-07
1.13964e-07
1.13951e-07
1.13943e-07
1.13932e-07
1.13924e-07
1.13915e-07
1.1391e-07
1.13903e-07
1.13897e-07
1.13891e-07
1.13884e-07
1.13878e-07
1.13872e-07
1.13871e-07
1.13864e-07
1.13864e-07
1.13857e-07
1.13859e-07
1.13853e-07
1.13854e-07
1.13846e-07
1.13845e-07
1.13841e-07
1.13836e-07
1.13834e-07
1.1383e-07
1.13824e-07
1.1382e-07
1.13816e-07
1.13814e-07
1.13812e-07
1.13811e-07
1.13809e-07
1.13808e-07
1.13807e-07
1.13808e-07
1.13808e-07
1.13809e-07
1.1381e-07
1.13813e-07
1.13818e-07
1.13826e-07
1.13834e-07
1.13843e-07
1.13844e-07
1.13854e-07
1.13855e-07
1.13862e-07
1.13867e-07
1.13873e-07
1.13877e-07
1.13874e-07
1.13901e-07
1.15021e-07
1.18007e-07
1.33257e-08
1.23964e-07
1.23083e-07
1.22209e-07
1.21285e-07
1.20378e-07
1.19521e-07
1.1877e-07
1.18106e-07
1.1755e-07
1.17063e-07
1.16662e-07
1.16306e-07
1.16015e-07
1.15752e-07
1.15539e-07
1.15341e-07
1.15182e-07
1.15031e-07
1.14911e-07
1.14794e-07
1.14702e-07
1.1461e-07
1.14539e-07
1.14466e-07
1.14411e-07
1.14352e-07
1.14308e-07
1.14261e-07
1.14226e-07
1.14186e-07
1.14158e-07
1.14126e-07
1.14103e-07
1.14076e-07
1.14058e-07
1.14036e-07
1.1402e-07
1.14001e-07
1.13988e-07
1.13973e-07
1.13962e-07
1.13949e-07
1.13941e-07
1.13929e-07
1.13922e-07
1.13913e-07
1.13907e-07
1.139e-07
1.13894e-07
1.13888e-07
1.13882e-07
1.13876e-07
1.1387e-07
1.13868e-07
1.13861e-07
1.13862e-07
1.13855e-07
1.13856e-07
1.13851e-07
1.13851e-07
1.13844e-07
1.13842e-07
1.13838e-07
1.13834e-07
1.13832e-07
1.13827e-07
1.13822e-07
1.13817e-07
1.13813e-07
1.13811e-07
1.13809e-07
1.13808e-07
1.13806e-07
1.13805e-07
1.13804e-07
1.13805e-07
1.13805e-07
1.13807e-07
1.13807e-07
1.1381e-07
1.13815e-07
1.13823e-07
1.13831e-07
1.1384e-07
1.13841e-07
1.13851e-07
1.13852e-07
1.13859e-07
1.13864e-07
1.1387e-07
1.13874e-07
1.13871e-07
1.13899e-07
1.1503e-07
1.18008e-07
1.38935e-08
1.23964e-07
1.23083e-07
1.22209e-07
1.21286e-07
1.20379e-07
1.19522e-07
1.18771e-07
1.18107e-07
1.1755e-07
1.17064e-07
1.16662e-07
1.16306e-07
1.16015e-07
1.15752e-07
1.15538e-07
1.1534e-07
1.15181e-07
1.1503e-07
1.1491e-07
1.14793e-07
1.14701e-07
1.14609e-07
1.14537e-07
1.14464e-07
1.14409e-07
1.1435e-07
1.14306e-07
1.14258e-07
1.14223e-07
1.14184e-07
1.14156e-07
1.14123e-07
1.141e-07
1.14074e-07
1.14055e-07
1.14033e-07
1.14017e-07
1.13998e-07
1.13986e-07
1.1397e-07
1.13959e-07
1.13946e-07
1.13938e-07
1.13926e-07
1.13919e-07
1.1391e-07
1.13904e-07
1.13897e-07
1.13891e-07
1.13885e-07
1.13879e-07
1.13873e-07
1.13867e-07
1.13865e-07
1.13858e-07
1.13859e-07
1.13852e-07
1.13853e-07
1.13848e-07
1.13848e-07
1.13841e-07
1.13839e-07
1.13835e-07
1.13831e-07
1.13828e-07
1.13824e-07
1.13818e-07
1.13814e-07
1.1381e-07
1.13808e-07
1.13806e-07
1.13805e-07
1.13803e-07
1.13802e-07
1.13801e-07
1.13802e-07
1.13802e-07
1.13803e-07
1.13804e-07
1.13807e-07
1.13812e-07
1.1382e-07
1.13827e-07
1.13836e-07
1.13838e-07
1.13848e-07
1.13849e-07
1.13856e-07
1.1386e-07
1.13866e-07
1.13871e-07
1.13867e-07
1.13896e-07
1.15042e-07
1.1801e-07
1.45016e-08
1.23964e-07
1.23083e-07
1.2221e-07
1.21287e-07
1.2038e-07
1.19524e-07
1.18773e-07
1.18108e-07
1.17552e-07
1.17065e-07
1.16662e-07
1.16307e-07
1.16015e-07
1.15752e-07
1.15537e-07
1.15339e-07
1.1518e-07
1.15029e-07
1.14908e-07
1.14791e-07
1.14699e-07
1.14607e-07
1.14535e-07
1.14462e-07
1.14406e-07
1.14347e-07
1.14303e-07
1.14256e-07
1.14221e-07
1.14181e-07
1.14153e-07
1.1412e-07
1.14097e-07
1.14071e-07
1.14052e-07
1.1403e-07
1.14014e-07
1.13995e-07
1.13983e-07
1.13967e-07
1.13956e-07
1.13943e-07
1.13935e-07
1.13923e-07
1.13915e-07
1.13906e-07
1.13901e-07
1.13894e-07
1.13888e-07
1.13882e-07
1.13875e-07
1.13869e-07
1.13863e-07
1.13862e-07
1.13855e-07
1.13855e-07
1.13848e-07
1.1385e-07
1.13844e-07
1.13845e-07
1.13837e-07
1.13836e-07
1.13832e-07
1.13827e-07
1.13825e-07
1.13821e-07
1.13815e-07
1.13811e-07
1.13807e-07
1.13805e-07
1.13802e-07
1.13801e-07
1.13799e-07
1.13799e-07
1.13797e-07
1.13798e-07
1.13798e-07
1.138e-07
1.138e-07
1.13804e-07
1.13808e-07
1.13816e-07
1.13823e-07
1.13832e-07
1.13834e-07
1.13844e-07
1.13845e-07
1.13852e-07
1.13856e-07
1.13863e-07
1.13867e-07
1.13863e-07
1.13892e-07
1.15056e-07
1.18012e-07
1.51507e-08
1.23963e-07
1.23082e-07
1.2221e-07
1.21288e-07
1.20382e-07
1.19526e-07
1.18774e-07
1.1811e-07
1.17553e-07
1.17066e-07
1.16663e-07
1.16307e-07
1.16015e-07
1.15751e-07
1.15537e-07
1.15338e-07
1.15179e-07
1.15027e-07
1.14907e-07
1.14789e-07
1.14697e-07
1.14604e-07
1.14533e-07
1.1446e-07
1.14404e-07
1.14345e-07
1.143e-07
1.14253e-07
1.14218e-07
1.14178e-07
1.1415e-07
1.14117e-07
1.14094e-07
1.14067e-07
1.14049e-07
1.14027e-07
1.14011e-07
1.13992e-07
1.13979e-07
1.13964e-07
1.13952e-07
1.13939e-07
1.13931e-07
1.13919e-07
1.13912e-07
1.13903e-07
1.13897e-07
1.1389e-07
1.13884e-07
1.13878e-07
1.13871e-07
1.13865e-07
1.13859e-07
1.13858e-07
1.13851e-07
1.13851e-07
1.13844e-07
1.13846e-07
1.1384e-07
1.13841e-07
1.13833e-07
1.13832e-07
1.13828e-07
1.13823e-07
1.13821e-07
1.13817e-07
1.13811e-07
1.13807e-07
1.13803e-07
1.13801e-07
1.13798e-07
1.13797e-07
1.13795e-07
1.13795e-07
1.13793e-07
1.13794e-07
1.13794e-07
1.13796e-07
1.13796e-07
1.13799e-07
1.13804e-07
1.13811e-07
1.13819e-07
1.13828e-07
1.1383e-07
1.1384e-07
1.13841e-07
1.13848e-07
1.13852e-07
1.13858e-07
1.13862e-07
1.13859e-07
1.13888e-07
1.15074e-07
1.18014e-07
1.58414e-08
1.23963e-07
1.23082e-07
1.2221e-07
1.21289e-07
1.20384e-07
1.19528e-07
1.18777e-07
1.18112e-07
1.17555e-07
1.17067e-07
1.16664e-07
1.16307e-07
1.16015e-07
1.15751e-07
1.15536e-07
1.15337e-07
1.15177e-07
1.15026e-07
1.14905e-07
1.14787e-07
1.14695e-07
1.14602e-07
1.1453e-07
1.14457e-07
1.14401e-07
1.14342e-07
1.14297e-07
1.1425e-07
1.14214e-07
1.14174e-07
1.14146e-07
1.14114e-07
1.14091e-07
1.14064e-07
1.14045e-07
1.14023e-07
1.14007e-07
1.13988e-07
1.13975e-07
1.1396e-07
1.13948e-07
1.13935e-07
1.13927e-07
1.13915e-07
1.13908e-07
1.13899e-07
1.13893e-07
1.13886e-07
1.1388e-07
1.13874e-07
1.13867e-07
1.13861e-07
1.13855e-07
1.13853e-07
1.13847e-07
1.13847e-07
1.1384e-07
1.13841e-07
1.13836e-07
1.13836e-07
1.13829e-07
1.13827e-07
1.13823e-07
1.13819e-07
1.13817e-07
1.13812e-07
1.13807e-07
1.13802e-07
1.13798e-07
1.13796e-07
1.13794e-07
1.13793e-07
1.13791e-07
1.1379e-07
1.13789e-07
1.13789e-07
1.1379e-07
1.13791e-07
1.13792e-07
1.13795e-07
1.13799e-07
1.13806e-07
1.13814e-07
1.13823e-07
1.13825e-07
1.13835e-07
1.13836e-07
1.13843e-07
1.13847e-07
1.13853e-07
1.13857e-07
1.13854e-07
1.13884e-07
1.15095e-07
1.18017e-07
1.65736e-08
1.23963e-07
1.23082e-07
1.22211e-07
1.2129e-07
1.20386e-07
1.1953e-07
1.18779e-07
1.18114e-07
1.17556e-07
1.17068e-07
1.16665e-07
1.16308e-07
1.16015e-07
1.1575e-07
1.15535e-07
1.15336e-07
1.15176e-07
1.15024e-07
1.14903e-07
1.14785e-07
1.14692e-07
1.14599e-07
1.14528e-07
1.14454e-07
1.14398e-07
1.14339e-07
1.14294e-07
1.14246e-07
1.14211e-07
1.14171e-07
1.14143e-07
1.1411e-07
1.14087e-07
1.1406e-07
1.14041e-07
1.14019e-07
1.14003e-07
1.13984e-07
1.13971e-07
1.13955e-07
1.13944e-07
1.1393e-07
1.13923e-07
1.13911e-07
1.13903e-07
1.13894e-07
1.13888e-07
1.13881e-07
1.13875e-07
1.13869e-07
1.13863e-07
1.13856e-07
1.1385e-07
1.13849e-07
1.13842e-07
1.13842e-07
1.13835e-07
1.13836e-07
1.13831e-07
1.13831e-07
1.13824e-07
1.13823e-07
1.13819e-07
1.13814e-07
1.13812e-07
1.13807e-07
1.13802e-07
1.13797e-07
1.13794e-07
1.13791e-07
1.13789e-07
1.13788e-07
1.13786e-07
1.13785e-07
1.13784e-07
1.13784e-07
1.13785e-07
1.13786e-07
1.13787e-07
1.1379e-07
1.13794e-07
1.13801e-07
1.13809e-07
1.13817e-07
1.13819e-07
1.13829e-07
1.1383e-07
1.13837e-07
1.13841e-07
1.13848e-07
1.13852e-07
1.13849e-07
1.13879e-07
1.15118e-07
1.18019e-07
1.73465e-08
1.23963e-07
1.23082e-07
1.22211e-07
1.21292e-07
1.20388e-07
1.19533e-07
1.18782e-07
1.18117e-07
1.17559e-07
1.1707e-07
1.16666e-07
1.16308e-07
1.16015e-07
1.1575e-07
1.15535e-07
1.15335e-07
1.15175e-07
1.15022e-07
1.14901e-07
1.14783e-07
1.1469e-07
1.14596e-07
1.14525e-07
1.14451e-07
1.14394e-07
1.14335e-07
1.1429e-07
1.14242e-07
1.14207e-07
1.14167e-07
1.14139e-07
1.14106e-07
1.14082e-07
1.14055e-07
1.14037e-07
1.14014e-07
1.13998e-07
1.13979e-07
1.13966e-07
1.1395e-07
1.13939e-07
1.13926e-07
1.13918e-07
1.13906e-07
1.13898e-07
1.13889e-07
1.13883e-07
1.13876e-07
1.1387e-07
1.13864e-07
1.13857e-07
1.13851e-07
1.13845e-07
1.13843e-07
1.13837e-07
1.13837e-07
1.1383e-07
1.13831e-07
1.13826e-07
1.13826e-07
1.13819e-07
1.13817e-07
1.13813e-07
1.13809e-07
1.13806e-07
1.13802e-07
1.13796e-07
1.13792e-07
1.13788e-07
1.13786e-07
1.13784e-07
1.13782e-07
1.13781e-07
1.1378e-07
1.13778e-07
1.13779e-07
1.13779e-07
1.13781e-07
1.13781e-07
1.13784e-07
1.13788e-07
1.13795e-07
1.13802e-07
1.13811e-07
1.13813e-07
1.13823e-07
1.13824e-07
1.13832e-07
1.13836e-07
1.13842e-07
1.13846e-07
1.13843e-07
1.13874e-07
1.15146e-07
1.18022e-07
1.81595e-08
1.23963e-07
1.23082e-07
1.22212e-07
1.21293e-07
1.2039e-07
1.19536e-07
1.18785e-07
1.18119e-07
1.17561e-07
1.17072e-07
1.16667e-07
1.16309e-07
1.16015e-07
1.1575e-07
1.15534e-07
1.15334e-07
1.15173e-07
1.1502e-07
1.14899e-07
1.1478e-07
1.14687e-07
1.14593e-07
1.14521e-07
1.14447e-07
1.14391e-07
1.14331e-07
1.14286e-07
1.14238e-07
1.14203e-07
1.14162e-07
1.14134e-07
1.14101e-07
1.14078e-07
1.1405e-07
1.14032e-07
1.14009e-07
1.13993e-07
1.13974e-07
1.13961e-07
1.13945e-07
1.13934e-07
1.1392e-07
1.13912e-07
1.13901e-07
1.13893e-07
1.13884e-07
1.13878e-07
1.13871e-07
1.13864e-07
1.13858e-07
1.13852e-07
1.13846e-07
1.1384e-07
1.13838e-07
1.13831e-07
1.13831e-07
1.13824e-07
1.13825e-07
1.1382e-07
1.1382e-07
1.13813e-07
1.13811e-07
1.13807e-07
1.13803e-07
1.13801e-07
1.13796e-07
1.13791e-07
1.13786e-07
1.13782e-07
1.1378e-07
1.13778e-07
1.13776e-07
1.13775e-07
1.13774e-07
1.13772e-07
1.13773e-07
1.13773e-07
1.13774e-07
1.13775e-07
1.13778e-07
1.13782e-07
1.13789e-07
1.13796e-07
1.13804e-07
1.13807e-07
1.13817e-07
1.13818e-07
1.13825e-07
1.13829e-07
1.13836e-07
1.13839e-07
1.13837e-07
1.13868e-07
1.15177e-07
1.18024e-07
1.90149e-08
1.23963e-07
1.23082e-07
1.22212e-07
1.21295e-07
1.20393e-07
1.19539e-07
1.18788e-07
1.18123e-07
1.17564e-07
1.17074e-07
1.16669e-07
1.1631e-07
1.16016e-07
1.1575e-07
1.15533e-07
1.15333e-07
1.15171e-07
1.15018e-07
1.14896e-07
1.14777e-07
1.14684e-07
1.1459e-07
1.14518e-07
1.14444e-07
1.14387e-07
1.14327e-07
1.14282e-07
1.14234e-07
1.14198e-07
1.14158e-07
1.14129e-07
1.14096e-07
1.14073e-07
1.14045e-07
1.14027e-07
1.14004e-07
1.13988e-07
1.13968e-07
1.13955e-07
1.1394e-07
1.13928e-07
1.13915e-07
1.13907e-07
1.13895e-07
1.13887e-07
1.13878e-07
1.13872e-07
1.13865e-07
1.13858e-07
1.13852e-07
1.13846e-07
1.1384e-07
1.13833e-07
1.13832e-07
1.13825e-07
1.13825e-07
1.13818e-07
1.13819e-07
1.13814e-07
1.13814e-07
1.13807e-07
1.13805e-07
1.13801e-07
1.13796e-07
1.13794e-07
1.1379e-07
1.13784e-07
1.1378e-07
1.13776e-07
1.13774e-07
1.13771e-07
1.1377e-07
1.13768e-07
1.13767e-07
1.13766e-07
1.13767e-07
1.13767e-07
1.13768e-07
1.13769e-07
1.13772e-07
1.13775e-07
1.13782e-07
1.13789e-07
1.13797e-07
1.138e-07
1.1381e-07
1.13811e-07
1.13818e-07
1.13822e-07
1.13829e-07
1.13832e-07
1.1383e-07
1.13862e-07
1.15212e-07
1.18026e-07
1.99153e-08
1.23963e-07
1.23081e-07
1.22213e-07
1.21297e-07
1.20396e-07
1.19543e-07
1.18792e-07
1.18126e-07
1.17567e-07
1.17076e-07
1.16671e-07
1.16311e-07
1.16016e-07
1.15749e-07
1.15533e-07
1.15332e-07
1.1517e-07
1.15016e-07
1.14894e-07
1.14774e-07
1.14681e-07
1.14587e-07
1.14514e-07
1.1444e-07
1.14383e-07
1.14323e-07
1.14278e-07
1.14229e-07
1.14193e-07
1.14153e-07
1.14124e-07
1.14091e-07
1.14067e-07
1.1404e-07
1.14021e-07
1.13998e-07
1.13982e-07
1.13962e-07
1.13949e-07
1.13934e-07
1.13922e-07
1.13908e-07
1.139e-07
1.13888e-07
1.13881e-07
1.13871e-07
1.13865e-07
1.13858e-07
1.13852e-07
1.13846e-07
1.13839e-07
1.13833e-07
1.13827e-07
1.13825e-07
1.13818e-07
1.13818e-07
1.13811e-07
1.13812e-07
1.13807e-07
1.13807e-07
1.138e-07
1.13798e-07
1.13794e-07
1.1379e-07
1.13787e-07
1.13783e-07
1.13778e-07
1.13773e-07
1.13769e-07
1.13767e-07
1.13765e-07
1.13763e-07
1.13761e-07
1.13761e-07
1.13759e-07
1.1376e-07
1.1376e-07
1.13761e-07
1.13762e-07
1.13764e-07
1.13768e-07
1.13774e-07
1.13781e-07
1.13789e-07
1.13793e-07
1.13802e-07
1.13803e-07
1.13811e-07
1.13814e-07
1.13821e-07
1.13824e-07
1.13822e-07
1.13855e-07
1.1525e-07
1.18027e-07
2.08637e-08
1.23963e-07
1.23081e-07
1.22214e-07
1.21299e-07
1.204e-07
1.19547e-07
1.18796e-07
1.1813e-07
1.1757e-07
1.17079e-07
1.16672e-07
1.16312e-07
1.16017e-07
1.15749e-07
1.15532e-07
1.1533e-07
1.15168e-07
1.15014e-07
1.14891e-07
1.14771e-07
1.14677e-07
1.14583e-07
1.1451e-07
1.14435e-07
1.14378e-07
1.14318e-07
1.14273e-07
1.14224e-07
1.14188e-07
1.14147e-07
1.14118e-07
1.14085e-07
1.14061e-07
1.14034e-07
1.14015e-07
1.13992e-07
1.13976e-07
1.13956e-07
1.13943e-07
1.13927e-07
1.13915e-07
1.13902e-07
1.13894e-07
1.13882e-07
1.13874e-07
1.13864e-07
1.13858e-07
1.13851e-07
1.13845e-07
1.13839e-07
1.13832e-07
1.13826e-07
1.1382e-07
1.13818e-07
1.13811e-07
1.13811e-07
1.13804e-07
1.13805e-07
1.13799e-07
1.138e-07
1.13793e-07
1.13791e-07
1.13787e-07
1.13782e-07
1.1378e-07
1.13776e-07
1.1377e-07
1.13766e-07
1.13762e-07
1.1376e-07
1.13757e-07
1.13756e-07
1.13754e-07
1.13753e-07
1.13752e-07
1.13752e-07
1.13752e-07
1.13753e-07
1.13754e-07
1.13757e-07
1.1376e-07
1.13766e-07
1.13773e-07
1.13781e-07
1.13785e-07
1.13794e-07
1.13795e-07
1.13803e-07
1.13806e-07
1.13813e-07
1.13816e-07
1.13814e-07
1.13848e-07
1.15293e-07
1.18027e-07
2.1863e-08
1.23962e-07
1.23081e-07
1.22214e-07
1.21301e-07
1.20403e-07
1.19551e-07
1.188e-07
1.18134e-07
1.17573e-07
1.17081e-07
1.16675e-07
1.16314e-07
1.16017e-07
1.15749e-07
1.15531e-07
1.15329e-07
1.15166e-07
1.15012e-07
1.14888e-07
1.14768e-07
1.14674e-07
1.14579e-07
1.14506e-07
1.14431e-07
1.14373e-07
1.14313e-07
1.14267e-07
1.14218e-07
1.14182e-07
1.14141e-07
1.14113e-07
1.14079e-07
1.14055e-07
1.14027e-07
1.14009e-07
1.13985e-07
1.13969e-07
1.13949e-07
1.13936e-07
1.1392e-07
1.13908e-07
1.13895e-07
1.13886e-07
1.13875e-07
1.13867e-07
1.13857e-07
1.13851e-07
1.13844e-07
1.13837e-07
1.13831e-07
1.13825e-07
1.13819e-07
1.13812e-07
1.1381e-07
1.13803e-07
1.13803e-07
1.13796e-07
1.13797e-07
1.13792e-07
1.13792e-07
1.13785e-07
1.13783e-07
1.13779e-07
1.13775e-07
1.13772e-07
1.13768e-07
1.13763e-07
1.13758e-07
1.13754e-07
1.13752e-07
1.13749e-07
1.13748e-07
1.13746e-07
1.13745e-07
1.13744e-07
1.13744e-07
1.13744e-07
1.13745e-07
1.13746e-07
1.13749e-07
1.13752e-07
1.13758e-07
1.13764e-07
1.13772e-07
1.13776e-07
1.13785e-07
1.13786e-07
1.13794e-07
1.13797e-07
1.13805e-07
1.13807e-07
1.13806e-07
1.13841e-07
1.1534e-07
1.18025e-07
2.29165e-08
1.23962e-07
1.2308e-07
1.22215e-07
1.21304e-07
1.20407e-07
1.19556e-07
1.18805e-07
1.18138e-07
1.17577e-07
1.17084e-07
1.16677e-07
1.16315e-07
1.16018e-07
1.15749e-07
1.15531e-07
1.15328e-07
1.15164e-07
1.15009e-07
1.14886e-07
1.14765e-07
1.1467e-07
1.14575e-07
1.14502e-07
1.14426e-07
1.14368e-07
1.14308e-07
1.14262e-07
1.14212e-07
1.14176e-07
1.14135e-07
1.14106e-07
1.14072e-07
1.14049e-07
1.14021e-07
1.14002e-07
1.13978e-07
1.13962e-07
1.13942e-07
1.13929e-07
1.13913e-07
1.13901e-07
1.13887e-07
1.13879e-07
1.13867e-07
1.13859e-07
1.13849e-07
1.13843e-07
1.13836e-07
1.1383e-07
1.13823e-07
1.13817e-07
1.1381e-07
1.13804e-07
1.13802e-07
1.13795e-07
1.13795e-07
1.13788e-07
1.13789e-07
1.13783e-07
1.13784e-07
1.13776e-07
1.13775e-07
1.13771e-07
1.13766e-07
1.13764e-07
1.1376e-07
1.13754e-07
1.1375e-07
1.13746e-07
1.13743e-07
1.13741e-07
1.1374e-07
1.13738e-07
1.13737e-07
1.13735e-07
1.13735e-07
1.13735e-07
1.13737e-07
1.13737e-07
1.1374e-07
1.13743e-07
1.13749e-07
1.13755e-07
1.13762e-07
1.13767e-07
1.13776e-07
1.13777e-07
1.13785e-07
1.13788e-07
1.13795e-07
1.13798e-07
1.13797e-07
1.13833e-07
1.15391e-07
1.12877e-07
2.40274e-08
1.23962e-07
1.2308e-07
1.22216e-07
1.21306e-07
1.20411e-07
1.1956e-07
1.1881e-07
1.18143e-07
1.17581e-07
1.17088e-07
1.16679e-07
1.16317e-07
1.16019e-07
1.15749e-07
1.1553e-07
1.15326e-07
1.15162e-07
1.15007e-07
1.14883e-07
1.14761e-07
1.14666e-07
1.14571e-07
1.14497e-07
1.14421e-07
1.14363e-07
1.14302e-07
1.14256e-07
1.14206e-07
1.1417e-07
1.14129e-07
1.14099e-07
1.14065e-07
1.14041e-07
1.14013e-07
1.13994e-07
1.13971e-07
1.13954e-07
1.13934e-07
1.13921e-07
1.13905e-07
1.13893e-07
1.13879e-07
1.13871e-07
1.13859e-07
1.13851e-07
1.13841e-07
1.13835e-07
1.13828e-07
1.13821e-07
1.13815e-07
1.13808e-07
1.13802e-07
1.13795e-07
1.13793e-07
1.13786e-07
1.13786e-07
1.13779e-07
1.1378e-07
1.13775e-07
1.13775e-07
1.13768e-07
1.13766e-07
1.13762e-07
1.13757e-07
1.13755e-07
1.13751e-07
1.13745e-07
1.13741e-07
1.13737e-07
1.13735e-07
1.13732e-07
1.13731e-07
1.13729e-07
1.13728e-07
1.13726e-07
1.13726e-07
1.13726e-07
1.13727e-07
1.13728e-07
1.13731e-07
1.13734e-07
1.13739e-07
1.13745e-07
1.13752e-07
1.13757e-07
1.13765e-07
1.13767e-07
1.13775e-07
1.13778e-07
1.13785e-07
1.13788e-07
1.13787e-07
1.13824e-07
1.15446e-07
1.06845e-07
2.51993e-08
1.23962e-07
1.2308e-07
1.22217e-07
1.21309e-07
1.20415e-07
1.19566e-07
1.18815e-07
1.18148e-07
1.17586e-07
1.17091e-07
1.16682e-07
1.16319e-07
1.1602e-07
1.15749e-07
1.15529e-07
1.15325e-07
1.1516e-07
1.15004e-07
1.14879e-07
1.14758e-07
1.14662e-07
1.14566e-07
1.14492e-07
1.14416e-07
1.14357e-07
1.14296e-07
1.1425e-07
1.142e-07
1.14163e-07
1.14122e-07
1.14092e-07
1.14058e-07
1.14034e-07
1.14006e-07
1.13987e-07
1.13963e-07
1.13946e-07
1.13926e-07
1.13913e-07
1.13897e-07
1.13885e-07
1.13871e-07
1.13862e-07
1.1385e-07
1.13842e-07
1.13832e-07
1.13826e-07
1.13819e-07
1.13812e-07
1.13806e-07
1.13799e-07
1.13793e-07
1.13786e-07
1.13784e-07
1.13777e-07
1.13777e-07
1.1377e-07
1.13771e-07
1.13765e-07
1.13765e-07
1.13758e-07
1.13756e-07
1.13753e-07
1.13748e-07
1.13745e-07
1.13742e-07
1.13736e-07
1.13732e-07
1.13728e-07
1.13725e-07
1.13722e-07
1.13721e-07
1.13719e-07
1.13718e-07
1.13716e-07
1.13717e-07
1.13716e-07
1.13718e-07
1.13718e-07
1.13721e-07
1.13724e-07
1.13729e-07
1.13735e-07
1.13742e-07
1.13746e-07
1.13755e-07
1.13756e-07
1.13765e-07
1.13767e-07
1.13775e-07
1.13777e-07
1.13777e-07
1.13815e-07
1.15506e-07
1.01457e-07
2.64356e-08
1.23962e-07
1.23079e-07
1.22218e-07
1.21311e-07
1.2042e-07
1.19571e-07
1.18821e-07
1.18153e-07
1.1759e-07
1.17095e-07
1.16685e-07
1.16321e-07
1.16021e-07
1.1575e-07
1.15529e-07
1.15324e-07
1.15158e-07
1.15001e-07
1.14876e-07
1.14754e-07
1.14658e-07
1.14561e-07
1.14487e-07
1.1441e-07
1.14351e-07
1.1429e-07
1.14243e-07
1.14193e-07
1.14156e-07
1.14114e-07
1.14085e-07
1.1405e-07
1.14026e-07
1.13998e-07
1.13978e-07
1.13955e-07
1.13938e-07
1.13918e-07
1.13904e-07
1.13888e-07
1.13876e-07
1.13862e-07
1.13853e-07
1.13841e-07
1.13833e-07
1.13823e-07
1.13816e-07
1.13809e-07
1.13803e-07
1.13796e-07
1.13789e-07
1.13783e-07
1.13776e-07
1.13775e-07
1.13767e-07
1.13767e-07
1.1376e-07
1.13761e-07
1.13755e-07
1.13755e-07
1.13748e-07
1.13746e-07
1.13743e-07
1.13738e-07
1.13735e-07
1.13732e-07
1.13726e-07
1.13722e-07
1.13718e-07
1.13715e-07
1.13712e-07
1.13711e-07
1.13709e-07
1.13708e-07
1.13706e-07
1.13706e-07
1.13706e-07
1.13707e-07
1.13708e-07
1.1371e-07
1.13713e-07
1.13718e-07
1.13724e-07
1.1373e-07
1.13735e-07
1.13743e-07
1.13745e-07
1.13754e-07
1.13756e-07
1.13764e-07
1.13765e-07
1.13766e-07
1.13806e-07
1.1557e-07
9.66408e-08
2.77398e-08
1.23961e-07
1.23079e-07
1.22219e-07
1.21314e-07
1.20424e-07
1.19577e-07
1.18827e-07
1.18159e-07
1.17596e-07
1.17099e-07
1.16688e-07
1.16323e-07
1.16022e-07
1.1575e-07
1.15528e-07
1.15322e-07
1.15156e-07
1.14998e-07
1.14873e-07
1.1475e-07
1.14653e-07
1.14556e-07
1.14481e-07
1.14404e-07
1.14345e-07
1.14283e-07
1.14236e-07
1.14186e-07
1.14149e-07
1.14107e-07
1.14077e-07
1.14042e-07
1.14018e-07
1.13989e-07
1.1397e-07
1.13946e-07
1.13929e-07
1.13909e-07
1.13895e-07
1.13878e-07
1.13866e-07
1.13852e-07
1.13843e-07
1.13831e-07
1.13823e-07
1.13813e-07
1.13806e-07
1.13799e-07
1.13792e-07
1.13786e-07
1.13779e-07
1.13773e-07
1.13766e-07
1.13764e-07
1.13757e-07
1.13757e-07
1.13749e-07
1.1375e-07
1.13745e-07
1.13745e-07
1.13738e-07
1.13736e-07
1.13732e-07
1.13727e-07
1.13725e-07
1.13721e-07
1.13716e-07
1.13711e-07
1.13707e-07
1.13704e-07
1.13702e-07
1.137e-07
1.13698e-07
1.13697e-07
1.13695e-07
1.13695e-07
1.13695e-07
1.13696e-07
1.13697e-07
1.13699e-07
1.13702e-07
1.13707e-07
1.13712e-07
1.13718e-07
1.13723e-07
1.13731e-07
1.13734e-07
1.13742e-07
1.13744e-07
1.13752e-07
1.13753e-07
1.13754e-07
1.13796e-07
1.15638e-07
9.2333e-08
2.91154e-08
1.23961e-07
1.23078e-07
1.22219e-07
1.21317e-07
1.20429e-07
1.19583e-07
1.18833e-07
1.18165e-07
1.17601e-07
1.17104e-07
1.16692e-07
1.16325e-07
1.16024e-07
1.1575e-07
1.15528e-07
1.15321e-07
1.15154e-07
1.14995e-07
1.14869e-07
1.14745e-07
1.14648e-07
1.14551e-07
1.14476e-07
1.14398e-07
1.14339e-07
1.14276e-07
1.14229e-07
1.14178e-07
1.14141e-07
1.14098e-07
1.14069e-07
1.14034e-07
1.14009e-07
1.1398e-07
1.13961e-07
1.13936e-07
1.1392e-07
1.13899e-07
1.13885e-07
1.13869e-07
1.13856e-07
1.13842e-07
1.13833e-07
1.13821e-07
1.13812e-07
1.13803e-07
1.13796e-07
1.13789e-07
1.13782e-07
1.13775e-07
1.13768e-07
1.13762e-07
1.13755e-07
1.13753e-07
1.13746e-07
1.13746e-07
1.13738e-07
1.13739e-07
1.13734e-07
1.13734e-07
1.13727e-07
1.13725e-07
1.13721e-07
1.13716e-07
1.13714e-07
1.1371e-07
1.13704e-07
1.137e-07
1.13696e-07
1.13693e-07
1.1369e-07
1.13689e-07
1.13687e-07
1.13686e-07
1.13684e-07
1.13684e-07
1.13684e-07
1.13685e-07
1.13685e-07
1.13688e-07
1.13691e-07
1.13695e-07
1.137e-07
1.13706e-07
1.13711e-07
1.13718e-07
1.13721e-07
1.1373e-07
1.13731e-07
1.13739e-07
1.13741e-07
1.13742e-07
1.13785e-07
1.15708e-07
8.84789e-08
3.05654e-08
1.23961e-07
1.23078e-07
1.2222e-07
1.21321e-07
1.20435e-07
1.19589e-07
1.1884e-07
1.18171e-07
1.17607e-07
1.17109e-07
1.16696e-07
1.16328e-07
1.16025e-07
1.15751e-07
1.15527e-07
1.15319e-07
1.15152e-07
1.14992e-07
1.14865e-07
1.14741e-07
1.14643e-07
1.14545e-07
1.1447e-07
1.14391e-07
1.14332e-07
1.14269e-07
1.14221e-07
1.1417e-07
1.14133e-07
1.1409e-07
1.1406e-07
1.14025e-07
1.14e-07
1.13971e-07
1.13951e-07
1.13927e-07
1.1391e-07
1.13889e-07
1.13875e-07
1.13858e-07
1.13846e-07
1.13831e-07
1.13823e-07
1.1381e-07
1.13802e-07
1.13792e-07
1.13785e-07
1.13777e-07
1.13771e-07
1.13764e-07
1.13757e-07
1.13751e-07
1.13744e-07
1.13742e-07
1.13734e-07
1.13734e-07
1.13727e-07
1.13727e-07
1.13722e-07
1.13722e-07
1.13715e-07
1.13713e-07
1.13709e-07
1.13704e-07
1.13702e-07
1.13698e-07
1.13693e-07
1.13688e-07
1.13684e-07
1.13681e-07
1.13678e-07
1.13677e-07
1.13675e-07
1.13674e-07
1.13672e-07
1.13672e-07
1.13672e-07
1.13673e-07
1.13673e-07
1.13675e-07
1.13678e-07
1.13682e-07
1.13687e-07
1.13693e-07
1.13698e-07
1.13705e-07
1.13708e-07
1.13716e-07
1.13718e-07
1.13726e-07
1.13727e-07
1.13729e-07
1.13774e-07
1.1578e-07
8.50319e-08
3.20927e-08
1.23961e-07
1.23077e-07
1.22221e-07
1.21324e-07
1.2044e-07
1.19596e-07
1.18847e-07
1.18178e-07
1.17613e-07
1.17114e-07
1.167e-07
1.1633e-07
1.16027e-07
1.15751e-07
1.15527e-07
1.15318e-07
1.1515e-07
1.14989e-07
1.14862e-07
1.14736e-07
1.14638e-07
1.14539e-07
1.14463e-07
1.14385e-07
1.14325e-07
1.14261e-07
1.14213e-07
1.14162e-07
1.14124e-07
1.14081e-07
1.14051e-07
1.14015e-07
1.1399e-07
1.13961e-07
1.13941e-07
1.13916e-07
1.13899e-07
1.13878e-07
1.13864e-07
1.13847e-07
1.13835e-07
1.1382e-07
1.13811e-07
1.13799e-07
1.1379e-07
1.1378e-07
1.13773e-07
1.13766e-07
1.13759e-07
1.13752e-07
1.13745e-07
1.13739e-07
1.13732e-07
1.1373e-07
1.13722e-07
1.13722e-07
1.13715e-07
1.13715e-07
1.13709e-07
1.13709e-07
1.13703e-07
1.137e-07
1.13697e-07
1.13692e-07
1.13689e-07
1.13686e-07
1.1368e-07
1.13676e-07
1.13672e-07
1.13669e-07
1.13666e-07
1.13664e-07
1.13662e-07
1.13661e-07
1.13659e-07
1.13659e-07
1.13659e-07
1.1366e-07
1.1366e-07
1.13662e-07
1.13665e-07
1.13669e-07
1.13673e-07
1.13679e-07
1.13684e-07
1.13691e-07
1.13694e-07
1.13703e-07
1.13704e-07
1.13712e-07
1.13713e-07
1.13715e-07
1.13762e-07
1.15853e-07
8.19521e-08
3.36993e-08
1.23961e-07
1.23077e-07
1.22222e-07
1.21327e-07
1.20446e-07
1.19603e-07
1.18855e-07
1.18185e-07
1.17619e-07
1.17119e-07
1.16704e-07
1.16333e-07
1.16029e-07
1.15752e-07
1.15526e-07
1.15317e-07
1.15147e-07
1.14986e-07
1.14858e-07
1.14732e-07
1.14633e-07
1.14533e-07
1.14457e-07
1.14377e-07
1.14317e-07
1.14253e-07
1.14205e-07
1.14153e-07
1.14115e-07
1.14072e-07
1.14041e-07
1.14005e-07
1.1398e-07
1.1395e-07
1.1393e-07
1.13906e-07
1.13888e-07
1.13867e-07
1.13853e-07
1.13836e-07
1.13824e-07
1.13809e-07
1.138e-07
1.13787e-07
1.13778e-07
1.13768e-07
1.13761e-07
1.13753e-07