/*--------------------------------*- C++ -*----------------------------------*\
| =========                 |                                                 |
| \\      /  F ield         | OpenFOAM: The Open Source CFD Toolbox           |
|  \\    /   O peration     | Version:  v2012                                 |
|   \\  /    A nd           | Website:  www.openfoam.com                      |
|    \\/     M anipulation  |                                                 |
\*---------------------------------------------------------------------------*/
FoamFile
{
    version     2.0;
    format      ascii;
    class       volVectorField;
    location    "21.5";
    object      wallShearStress;
}
// * * * * * * * * * * * * * * * * * * * * * * * * * * * * * * * * * * * * * //

dimensions      [0 2 -2 0 0 0 0];


internalField   uniform (0 0 0);

boundaryField
{
    inlet
    {
        type            calculated;
        value           uniform (0 0 0);
    }
    outlet
    {
        type            calculated;
        value           uniform (0 0 0);
    }
    topWall
    {
        type            calculated;
        value           nonuniform List<vector> 
545
(
(1.46837e-08 -1.03351e-08 0)
(1.46775e-08 -2.89175e-08 0)
(1.46621e-08 -4.82357e-08 0)
(1.46412e-08 -6.69865e-08 0)
(1.46148e-08 -8.49259e-08 0)
(1.45833e-08 -1.02282e-07 0)
(1.45473e-08 -1.19202e-07 0)
(1.45068e-08 -1.35676e-07 0)
(1.44625e-08 -1.51666e-07 0)
(1.44146e-08 -1.67171e-07 0)
(1.43635e-08 -1.82212e-07 0)
(1.43096e-08 -1.96805e-07 0)
(1.42531e-08 -2.10961e-07 0)
(1.41944e-08 -2.24688e-07 0)
(1.41338e-08 -2.37996e-07 0)
(1.40714e-08 -2.50897e-07 0)
(1.40076e-08 -2.63401e-07 0)
(1.39425e-08 -2.7552e-07 0)
(1.38763e-08 -2.87264e-07 0)
(1.38093e-08 -2.98644e-07 0)
(1.37417e-08 -3.09669e-07 0)
(1.36734e-08 -3.20351e-07 0)
(1.36049e-08 -3.30699e-07 0)
(1.35361e-08 -3.40724e-07 0)
(1.34672e-08 -3.50434e-07 0)
(1.33983e-08 -3.59841e-07 0)
(1.33295e-08 -3.68952e-07 0)
(1.32609e-08 -3.77778e-07 0)
(1.31927e-08 -3.86327e-07 0)
(1.31249e-08 -3.94607e-07 0)
(1.30575e-08 -4.02628e-07 0)
(1.29906e-08 -4.10397e-07 0)
(1.29244e-08 -4.17923e-07 0)
(1.28588e-08 -4.25212e-07 0)
(1.27939e-08 -4.32274e-07 0)
(1.27298e-08 -4.39115e-07 0)
(1.26664e-08 -4.45743e-07 0)
(1.26039e-08 -4.52163e-07 0)
(1.25422e-08 -4.58384e-07 0)
(1.24813e-08 -4.64411e-07 0)
(1.24214e-08 -4.7025e-07 0)
(1.23624e-08 -4.75909e-07 0)
(1.23043e-08 -4.81392e-07 0)
(1.22472e-08 -4.86706e-07 0)
(1.2191e-08 -4.91856e-07 0)
(1.21358e-08 -4.96847e-07 0)
(1.20815e-08 -5.01685e-07 0)
(1.20283e-08 -5.06374e-07 0)
(1.1976e-08 -5.1092e-07 0)
(1.19246e-08 -5.15327e-07 0)
(1.18743e-08 -5.19599e-07 0)
(1.18249e-08 -5.23741e-07 0)
(1.17765e-08 -5.27757e-07 0)
(1.1729e-08 -5.31652e-07 0)
(1.16825e-08 -5.35428e-07 0)
(1.16369e-08 -5.39091e-07 0)
(1.15923e-08 -5.42643e-07 0)
(1.15486e-08 -5.46089e-07 0)
(1.15058e-08 -5.49431e-07 0)
(1.14639e-08 -5.52673e-07 0)
(1.14229e-08 -5.55818e-07 0)
(1.13828e-08 -5.58869e-07 0)
(1.13435e-08 -5.61829e-07 0)
(1.13052e-08 -5.64702e-07 0)
(1.12676e-08 -5.6749e-07 0)
(1.12309e-08 -5.70195e-07 0)
(1.1195e-08 -5.7282e-07 0)
(1.11599e-08 -5.75368e-07 0)
(1.11256e-08 -5.77841e-07 0)
(1.1092e-08 -5.80241e-07 0)
(1.10593e-08 -5.82572e-07 0)
(1.10273e-08 -5.8483e-07 0)
(1.09962e-08 -5.87001e-07 0)
(1.09661e-08 -5.89107e-07 0)
(1.09362e-08 -5.91184e-07 0)
(1.09064e-08 -5.9325e-07 0)
(1.08767e-08 -5.95304e-07 0)
(1.08471e-08 -5.97343e-07 0)
(1.08175e-08 -5.99367e-07 0)
(1.0788e-08 -6.01376e-07 0)
(1.07585e-08 -6.0337e-07 0)
(1.07291e-08 -6.05349e-07 0)
(1.06998e-08 -6.07314e-07 0)
(1.06705e-08 -6.09265e-07 0)
(1.06413e-08 -6.11202e-07 0)
(1.06121e-08 -6.13124e-07 0)
(1.05831e-08 -6.15033e-07 0)
(1.0554e-08 -6.16927e-07 0)
(1.05251e-08 -6.18808e-07 0)
(1.04962e-08 -6.20675e-07 0)
(1.04673e-08 -6.22528e-07 0)
(1.04386e-08 -6.24368e-07 0)
(1.04099e-08 -6.26195e-07 0)
(1.03813e-08 -6.28005e-07 0)
(1.03528e-08 -6.29813e-07 0)
(1.0324e-08 -6.31577e-07 0)
(1.02969e-08 -6.33193e-07 0)
(1.02725e-08 -6.34668e-07 0)
(1.0249e-08 -6.36092e-07 0)
(1.02257e-08 -6.3752e-07 0)
(1.02023e-08 -6.38961e-07 0)
(1.01788e-08 -6.40406e-07 0)
(1.01553e-08 -6.41848e-07 0)
(1.01316e-08 -6.43288e-07 0)
(1.01079e-08 -6.44728e-07 0)
(1.00841e-08 -6.46169e-07 0)
(1.00602e-08 -6.4761e-07 0)
(1.00362e-08 -6.49051e-07 0)
(1.00121e-08 -6.50492e-07 0)
(9.98785e-09 -6.51933e-07 0)
(9.96356e-09 -6.53373e-07 0)
(9.93918e-09 -6.54814e-07 0)
(9.9147e-09 -6.56254e-07 0)
(9.89013e-09 -6.57694e-07 0)
(9.86546e-09 -6.59134e-07 0)
(9.8407e-09 -6.60574e-07 0)
(9.81585e-09 -6.62013e-07 0)
(9.7909e-09 -6.63453e-07 0)
(9.76586e-09 -6.64892e-07 0)
(9.74073e-09 -6.6633e-07 0)
(9.7155e-09 -6.67769e-07 0)
(9.69018e-09 -6.69207e-07 0)
(9.66476e-09 -6.70644e-07 0)
(9.63925e-09 -6.72081e-07 0)
(9.61364e-09 -6.73518e-07 0)
(9.58794e-09 -6.74955e-07 0)
(9.56215e-09 -6.7639e-07 0)
(9.53626e-09 -6.77826e-07 0)
(9.51027e-09 -6.79261e-07 0)
(9.4842e-09 -6.80695e-07 0)
(9.45802e-09 -6.82129e-07 0)
(9.43176e-09 -6.83562e-07 0)
(9.4054e-09 -6.84994e-07 0)
(9.37894e-09 -6.86426e-07 0)
(9.35239e-09 -6.87857e-07 0)
(9.32574e-09 -6.89288e-07 0)
(9.299e-09 -6.90718e-07 0)
(9.27217e-09 -6.92147e-07 0)
(9.24524e-09 -6.93575e-07 0)
(9.21822e-09 -6.95002e-07 0)
(9.1911e-09 -6.96429e-07 0)
(9.16389e-09 -6.97855e-07 0)
(9.13658e-09 -6.99279e-07 0)
(9.10918e-09 -7.00703e-07 0)
(9.08169e-09 -7.02126e-07 0)
(9.0541e-09 -7.03548e-07 0)
(9.02641e-09 -7.0497e-07 0)
(8.99863e-09 -7.0639e-07 0)
(8.97076e-09 -7.07809e-07 0)
(8.9428e-09 -7.09226e-07 0)
(8.91473e-09 -7.10643e-07 0)
(8.88658e-09 -7.12059e-07 0)
(8.85833e-09 -7.13474e-07 0)
(8.82999e-09 -7.14887e-07 0)
(8.80155e-09 -7.16299e-07 0)
(8.77302e-09 -7.1771e-07 0)
(8.7444e-09 -7.19119e-07 0)
(8.71568e-09 -7.20528e-07 0)
(8.68687e-09 -7.21935e-07 0)
(8.65797e-09 -7.2334e-07 0)
(8.62897e-09 -7.24745e-07 0)
(8.59988e-09 -7.26147e-07 0)
(8.5707e-09 -7.27549e-07 0)
(8.54143e-09 -7.28949e-07 0)
(8.51206e-09 -7.30347e-07 0)
(8.4826e-09 -7.31744e-07 0)
(8.45305e-09 -7.33139e-07 0)
(8.4234e-09 -7.34533e-07 0)
(8.39367e-09 -7.35925e-07 0)
(8.36384e-09 -7.37315e-07 0)
(8.33392e-09 -7.38704e-07 0)
(8.3039e-09 -7.40091e-07 0)
(8.2738e-09 -7.41476e-07 0)
(8.24361e-09 -7.4286e-07 0)
(8.21332e-09 -7.44241e-07 0)
(8.18295e-09 -7.45621e-07 0)
(8.15248e-09 -7.46999e-07 0)
(8.12192e-09 -7.48375e-07 0)
(8.09128e-09 -7.49749e-07 0)
(8.06054e-09 -7.51121e-07 0)
(8.02972e-09 -7.52491e-07 0)
(7.9988e-09 -7.53859e-07 0)
(7.9678e-09 -7.55225e-07 0)
(7.9367e-09 -7.56589e-07 0)
(7.90552e-09 -7.57951e-07 0)
(7.87425e-09 -7.5931e-07 0)
(7.84289e-09 -7.60668e-07 0)
(7.81145e-09 -7.62023e-07 0)
(7.77991e-09 -7.63375e-07 0)
(7.74829e-09 -7.64726e-07 0)
(7.71658e-09 -7.66074e-07 0)
(7.68479e-09 -7.6742e-07 0)
(7.65291e-09 -7.68763e-07 0)
(7.62094e-09 -7.70104e-07 0)
(7.58889e-09 -7.71443e-07 0)
(7.55675e-09 -7.72779e-07 0)
(7.52453e-09 -7.74112e-07 0)
(7.49222e-09 -7.75443e-07 0)
(7.45983e-09 -7.76771e-07 0)
(7.42735e-09 -7.78097e-07 0)
(7.39479e-09 -7.7942e-07 0)
(7.36215e-09 -7.8074e-07 0)
(7.32943e-09 -7.82058e-07 0)
(7.29662e-09 -7.83372e-07 0)
(7.26373e-09 -7.84684e-07 0)
(7.23076e-09 -7.85993e-07 0)
(7.1977e-09 -7.87299e-07 0)
(7.16457e-09 -7.88602e-07 0)
(7.13136e-09 -7.89903e-07 0)
(7.09806e-09 -7.912e-07 0)
(7.06469e-09 -7.92494e-07 0)
(7.03124e-09 -7.93785e-07 0)
(6.99771e-09 -7.95073e-07 0)
(6.9641e-09 -7.96358e-07 0)
(6.93041e-09 -7.9764e-07 0)
(6.89664e-09 -7.98918e-07 0)
(6.8628e-09 -8.00193e-07 0)
(6.82889e-09 -8.01465e-07 0)
(6.79489e-09 -8.02734e-07 0)
(6.76083e-09 -8.03999e-07 0)
(6.72668e-09 -8.05261e-07 0)
(6.69247e-09 -8.06519e-07 0)
(6.65818e-09 -8.07774e-07 0)
(6.62381e-09 -8.09026e-07 0)
(6.58938e-09 -8.10274e-07 0)
(6.55487e-09 -8.11518e-07 0)
(6.52029e-09 -8.12759e-07 0)
(6.48564e-09 -8.13996e-07 0)
(6.45092e-09 -8.15229e-07 0)
(6.41613e-09 -8.16458e-07 0)
(6.38127e-09 -8.17684e-07 0)
(6.34634e-09 -8.18906e-07 0)
(6.31135e-09 -8.20124e-07 0)
(6.27628e-09 -8.21338e-07 0)
(6.24115e-09 -8.22549e-07 0)
(6.20596e-09 -8.23755e-07 0)
(6.1707e-09 -8.24957e-07 0)
(6.13537e-09 -8.26156e-07 0)
(6.09998e-09 -8.2735e-07 0)
(6.06453e-09 -8.2854e-07 0)
(6.02902e-09 -8.29726e-07 0)
(5.99344e-09 -8.30908e-07 0)
(5.9578e-09 -8.32085e-07 0)
(5.9221e-09 -8.33258e-07 0)
(5.88634e-09 -8.34427e-07 0)
(5.85052e-09 -8.35592e-07 0)
(5.81465e-09 -8.36752e-07 0)
(5.77871e-09 -8.37908e-07 0)
(5.74272e-09 -8.39059e-07 0)
(5.70667e-09 -8.40206e-07 0)
(5.67057e-09 -8.41348e-07 0)
(5.63441e-09 -8.42486e-07 0)
(5.5982e-09 -8.43619e-07 0)
(5.56194e-09 -8.44747e-07 0)
(5.52562e-09 -8.45871e-07 0)
(5.48926e-09 -8.4699e-07 0)
(5.45284e-09 -8.48104e-07 0)
(5.41637e-09 -8.49214e-07 0)
(5.37985e-09 -8.50318e-07 0)
(5.34329e-09 -8.51418e-07 0)
(5.30667e-09 -8.52512e-07 0)
(5.27002e-09 -8.53602e-07 0)
(5.23331e-09 -8.54687e-07 0)
(5.19656e-09 -8.55766e-07 0)
(5.15977e-09 -8.56841e-07 0)
(5.12293e-09 -8.57911e-07 0)
(5.08605e-09 -8.58973e-07 0)
(5.04915e-09 -8.60038e-07 0)
(5.0121e-09 -8.6108e-07 0)
(4.97623e-09 -8.62069e-07 0)
(4.94224e-09 -8.63019e-07 0)
(4.90879e-09 -8.63948e-07 0)
(4.87522e-09 -8.6488e-07 0)
(4.84137e-09 -8.65822e-07 0)
(4.8072e-09 -8.6677e-07 0)
(4.77271e-09 -8.6772e-07 0)
(4.73788e-09 -8.68673e-07 0)
(4.70273e-09 -8.69628e-07 0)
(4.66724e-09 -8.70588e-07 0)
(4.63141e-09 -8.7155e-07 0)
(4.59525e-09 -8.72515e-07 0)
(4.55875e-09 -8.73483e-07 0)
(4.52191e-09 -8.74453e-07 0)
(4.48472e-09 -8.75427e-07 0)
(4.44719e-09 -8.76402e-07 0)
(4.40932e-09 -8.7738e-07 0)
(4.3711e-09 -8.7836e-07 0)
(4.33253e-09 -8.79342e-07 0)
(4.29361e-09 -8.80326e-07 0)
(4.25434e-09 -8.81311e-07 0)
(4.21472e-09 -8.82298e-07 0)
(4.17474e-09 -8.83286e-07 0)
(4.13442e-09 -8.84276e-07 0)
(4.09373e-09 -8.85266e-07 0)
(4.05269e-09 -8.86257e-07 0)
(4.01129e-09 -8.87249e-07 0)
(3.96954e-09 -8.88242e-07 0)
(3.92743e-09 -8.89234e-07 0)
(3.88495e-09 -8.90227e-07 0)
(3.84212e-09 -8.91219e-07 0)
(3.79893e-09 -8.92211e-07 0)
(3.75538e-09 -8.93202e-07 0)
(3.71147e-09 -8.94193e-07 0)
(3.6672e-09 -8.95182e-07 0)
(3.62256e-09 -8.96171e-07 0)
(3.57757e-09 -8.97157e-07 0)
(3.53222e-09 -8.98142e-07 0)
(3.48651e-09 -8.99125e-07 0)
(3.44044e-09 -9.00105e-07 0)
(3.39401e-09 -9.01083e-07 0)
(3.34722e-09 -9.02058e-07 0)
(3.30008e-09 -9.0303e-07 0)
(3.25258e-09 -9.03998e-07 0)
(3.20473e-09 -9.04963e-07 0)
(3.15652e-09 -9.05923e-07 0)
(3.10797e-09 -9.06879e-07 0)
(3.05906e-09 -9.07831e-07 0)
(3.0098e-09 -9.08778e-07 0)
(2.9602e-09 -9.09719e-07 0)
(2.91026e-09 -9.10654e-07 0)
(2.85997e-09 -9.11584e-07 0)
(2.80935e-09 -9.12507e-07 0)
(2.75838e-09 -9.13424e-07 0)
(2.70709e-09 -9.14333e-07 0)
(2.65546e-09 -9.15235e-07 0)
(2.60351e-09 -9.1613e-07 0)
(2.55124e-09 -9.17015e-07 0)
(2.49864e-09 -9.17893e-07 0)
(2.44573e-09 -9.18761e-07 0)
(2.39251e-09 -9.1962e-07 0)
(2.33898e-09 -9.20469e-07 0)
(2.28515e-09 -9.21308e-07 0)
(2.23103e-09 -9.22136e-07 0)
(2.17661e-09 -9.22953e-07 0)
(2.1219e-09 -9.23758e-07 0)
(2.06691e-09 -9.24551e-07 0)
(2.01165e-09 -9.25332e-07 0)
(1.95612e-09 -9.261e-07 0)
(1.90032e-09 -9.26854e-07 0)
(1.84427e-09 -9.27594e-07 0)
(1.78797e-09 -9.2832e-07 0)
(1.73143e-09 -9.29031e-07 0)
(1.67465e-09 -9.29727e-07 0)
(1.61765e-09 -9.30406e-07 0)
(1.56043e-09 -9.31069e-07 0)
(1.503e-09 -9.31715e-07 0)
(1.44537e-09 -9.32343e-07 0)
(1.38755e-09 -9.32954e-07 0)
(1.32955e-09 -9.33545e-07 0)
(1.27137e-09 -9.34118e-07 0)
(1.21304e-09 -9.3467e-07 0)
(1.15454e-09 -9.35203e-07 0)
(1.09591e-09 -9.35714e-07 0)
(1.03715e-09 -9.36204e-07 0)
(9.78269e-10 -9.36672e-07 0)
(9.1928e-10 -9.37117e-07 0)
(8.60196e-10 -9.37539e-07 0)
(8.01028e-10 -9.37937e-07 0)
(7.4179e-10 -9.38311e-07 0)
(6.82495e-10 -9.38659e-07 0)
(6.23156e-10 -9.38982e-07 0)
(5.63787e-10 -9.39278e-07 0)
(5.04402e-10 -9.39548e-07 0)
(4.45015e-10 -9.3979e-07 0)
(3.85641e-10 -9.40004e-07 0)
(3.26294e-10 -9.40189e-07 0)
(2.66991e-10 -9.40344e-07 0)
(2.07748e-10 -9.4047e-07 0)
(1.48579e-10 -9.40564e-07 0)
(8.95019e-11 -9.40628e-07 0)
(3.0533e-11 -9.40659e-07 0)
(-2.83106e-11 -9.40658e-07 0)
(-8.70117e-11 -9.40623e-07 0)
(-1.45553e-10 -9.40555e-07 0)
(-2.03916e-10 -9.40452e-07 0)
(-2.62082e-10 -9.40314e-07 0)
(-3.20034e-10 -9.4014e-07 0)
(-3.77752e-10 -9.3993e-07 0)
(-4.35218e-10 -9.39682e-07 0)
(-4.92412e-10 -9.39397e-07 0)
(-5.49314e-10 -9.39074e-07 0)
(-6.05905e-10 -9.38712e-07 0)
(-6.62165e-10 -9.3831e-07 0)
(-7.18074e-10 -9.37868e-07 0)
(-7.73611e-10 -9.37385e-07 0)
(-8.28756e-10 -9.36861e-07 0)
(-8.83488e-10 -9.36296e-07 0)
(-9.37786e-10 -9.35688e-07 0)
(-9.91629e-10 -9.35037e-07 0)
(-1.045e-09 -9.34342e-07 0)
(-1.09787e-09 -9.33603e-07 0)
(-1.15022e-09 -9.3282e-07 0)
(-1.20203e-09 -9.31992e-07 0)
(-1.25328e-09 -9.31118e-07 0)
(-1.30395e-09 -9.30198e-07 0)
(-1.35401e-09 -9.29232e-07 0)
(-1.40345e-09 -9.28218e-07 0)
(-1.45224e-09 -9.27157e-07 0)
(-1.50036e-09 -9.26049e-07 0)
(-1.54779e-09 -9.24892e-07 0)
(-1.59451e-09 -9.23686e-07 0)
(-1.6405e-09 -9.22432e-07 0)
(-1.68574e-09 -9.21128e-07 0)
(-1.7302e-09 -9.19774e-07 0)
(-1.77388e-09 -9.18371e-07 0)
(-1.81673e-09 -9.16918e-07 0)
(-1.85876e-09 -9.15414e-07 0)
(-1.89993e-09 -9.13859e-07 0)
(-1.94023e-09 -9.12253e-07 0)
(-1.97963e-09 -9.10597e-07 0)
(-2.01813e-09 -9.08889e-07 0)
(-2.0557e-09 -9.0713e-07 0)
(-2.09233e-09 -9.05319e-07 0)
(-2.12799e-09 -9.03457e-07 0)
(-2.16267e-09 -9.01543e-07 0)
(-2.19635e-09 -8.99578e-07 0)
(-2.22903e-09 -8.97561e-07 0)
(-2.26067e-09 -8.95493e-07 0)
(-2.29128e-09 -8.93373e-07 0)
(-2.32083e-09 -8.91202e-07 0)
(-2.34931e-09 -8.8898e-07 0)
(-2.37671e-09 -8.86707e-07 0)
(-2.40302e-09 -8.84383e-07 0)
(-2.42822e-09 -8.82009e-07 0)
(-2.45231e-09 -8.79585e-07 0)
(-2.47527e-09 -8.7711e-07 0)
(-2.4971e-09 -8.74586e-07 0)
(-2.51778e-09 -8.72013e-07 0)
(-2.53732e-09 -8.69391e-07 0)
(-2.55569e-09 -8.66721e-07 0)
(-2.57291e-09 -8.64003e-07 0)
(-2.58896e-09 -8.61237e-07 0)
(-2.60384e-09 -8.58425e-07 0)
(-2.61754e-09 -8.55567e-07 0)
(-2.63007e-09 -8.52663e-07 0)
(-2.64142e-09 -8.49714e-07 0)
(-2.65159e-09 -8.46721e-07 0)
(-2.66058e-09 -8.43685e-07 0)
(-2.66839e-09 -8.40606e-07 0)
(-2.67502e-09 -8.37485e-07 0)
(-2.68049e-09 -8.34323e-07 0)
(-2.68478e-09 -8.31121e-07 0)
(-2.68791e-09 -8.2788e-07 0)
(-2.68988e-09 -8.24601e-07 0)
(-2.6907e-09 -8.21284e-07 0)
(-2.69037e-09 -8.17931e-07 0)
(-2.68891e-09 -8.14542e-07 0)
(-2.68628e-09 -8.11119e-07 0)
(-2.68272e-09 -8.0766e-07 0)
(-2.67722e-09 -8.04147e-07 0)
(-2.66985e-09 -8.00262e-07 0)
(-2.66141e-09 -7.95987e-07 0)
(-2.65132e-09 -7.91662e-07 0)
(-2.63979e-09 -7.87364e-07 0)
(-2.62697e-09 -7.83105e-07 0)
(-2.61295e-09 -7.78871e-07 0)
(-2.59779e-09 -7.74657e-07 0)
(-2.58156e-09 -7.70465e-07 0)
(-2.56432e-09 -7.66301e-07 0)
(-2.54613e-09 -7.62167e-07 0)
(-2.52704e-09 -7.58063e-07 0)
(-2.50712e-09 -7.53991e-07 0)
(-2.48642e-09 -7.49951e-07 0)
(-2.46498e-09 -7.45945e-07 0)
(-2.44285e-09 -7.41975e-07 0)
(-2.42008e-09 -7.38041e-07 0)
(-2.3967e-09 -7.34145e-07 0)
(-2.37277e-09 -7.30287e-07 0)
(-2.34831e-09 -7.26468e-07 0)
(-2.32336e-09 -7.22689e-07 0)
(-2.29796e-09 -7.18951e-07 0)
(-2.27213e-09 -7.15254e-07 0)
(-2.24591e-09 -7.116e-07 0)
(-2.21933e-09 -7.07988e-07 0)
(-2.1924e-09 -7.04419e-07 0)
(-2.16517e-09 -7.00895e-07 0)
(-2.13764e-09 -6.97414e-07 0)
(-2.10984e-09 -6.93979e-07 0)
(-2.08179e-09 -6.90588e-07 0)
(-2.0535e-09 -6.87243e-07 0)
(-2.02501e-09 -6.83945e-07 0)
(-1.99631e-09 -6.80692e-07 0)
(-1.96743e-09 -6.77486e-07 0)
(-1.93838e-09 -6.74327e-07 0)
(-1.90917e-09 -6.71215e-07 0)
(-1.87981e-09 -6.6815e-07 0)
(-1.85032e-09 -6.65133e-07 0)
(-1.8207e-09 -6.62164e-07 0)
(-1.79096e-09 -6.59243e-07 0)
(-1.76111e-09 -6.5637e-07 0)
(-1.73115e-09 -6.53545e-07 0)
(-1.7011e-09 -6.50769e-07 0)
(-1.67096e-09 -6.48042e-07 0)
(-1.64073e-09 -6.45364e-07 0)
(-1.61041e-09 -6.42734e-07 0)
(-1.58002e-09 -6.40154e-07 0)
(-1.54955e-09 -6.37622e-07 0)
(-1.51901e-09 -6.35141e-07 0)
(-1.48839e-09 -6.32708e-07 0)
(-1.45771e-09 -6.30325e-07 0)
(-1.42696e-09 -6.27992e-07 0)
(-1.39615e-09 -6.25709e-07 0)
(-1.36527e-09 -6.23475e-07 0)
(-1.33433e-09 -6.21292e-07 0)
(-1.30332e-09 -6.19159e-07 0)
(-1.27225e-09 -6.17076e-07 0)
(-1.24112e-09 -6.15043e-07 0)
(-1.20993e-09 -6.1306e-07 0)
(-1.17867e-09 -6.11128e-07 0)
(-1.14735e-09 -6.09247e-07 0)
(-1.11597e-09 -6.07416e-07 0)
(-1.08453e-09 -6.05637e-07 0)
(-1.05302e-09 -6.03908e-07 0)
(-1.02145e-09 -6.0223e-07 0)
(-9.89821e-10 -6.00603e-07 0)
(-9.58126e-10 -5.99028e-07 0)
(-9.26368e-10 -5.97504e-07 0)
(-8.94547e-10 -5.96031e-07 0)
(-8.62663e-10 -5.94609e-07 0)
(-8.30717e-10 -5.9324e-07 0)
(-7.9871e-10 -5.91922e-07 0)
(-7.66641e-10 -5.90656e-07 0)
(-7.34513e-10 -5.89442e-07 0)
(-7.02325e-10 -5.8828e-07 0)
(-6.70079e-10 -5.87169e-07 0)
(-6.37776e-10 -5.86112e-07 0)
(-6.05418e-10 -5.85106e-07 0)
(-5.73006e-10 -5.84153e-07 0)
(-5.40541e-10 -5.83252e-07 0)
(-5.08027e-10 -5.82404e-07 0)
(-4.75465e-10 -5.81609e-07 0)
(-4.42857e-10 -5.80866e-07 0)
(-4.10206e-10 -5.80176e-07 0)
(-3.77515e-10 -5.79539e-07 0)
(-3.44786e-10 -5.78954e-07 0)
(-3.12022e-10 -5.78426e-07 0)
(-2.79223e-10 -5.77936e-07 0)
(-2.46401e-10 -5.77551e-07 0)
(-2.1353e-10 -5.77045e-07 0)
(-1.80703e-10 -5.77163e-07 0)
(-1.47621e-10 -5.75399e-07 0)
(-1.15324e-10 -5.79867e-07 0)
(-8.03725e-11 -5.62358e-07 0)
(-5.50095e-11 -6.08428e-07 0)
(-2.45072e-11 -5.31357e-07 0)
)
;
    }
    bottomWall
    {
        type            calculated;
        value           nonuniform List<vector> 
449
(
(-48.5693 -0.964622 0)
(-19.765 -0.00515946 0)
(-14.3533 -0.00113569 0)
(-12.0418 -0.000545951 0)
(-10.6345 -0.000351806 0)
(-9.63981 -0.000256223 0)
(-8.88105 -0.000198665 0)
(-8.277 -0.00015996 0)
(-7.78112 -0.000132445 0)
(-7.36411 -0.000112079 0)
(-7.00678 -9.64644e-05 0)
(-6.69608 -8.41459e-05 0)
(-6.42268 -7.42187e-05 0)
(-6.17967 -6.60833e-05 0)
(-5.96179 -5.93198e-05 0)
(-5.76497 -5.36248e-05 0)
(-5.58602 -4.87758e-05 0)
(-5.42238 -4.46067e-05 0)
(-5.27197 -4.09915e-05 0)
(-5.13309 -3.78325e-05 0)
(-5.00435 -3.50532e-05 0)
(-4.88455 -3.25927e-05 0)
(-4.7727 -3.04021e-05 0)
(-4.66796 -2.84418e-05 0)
(-4.5696 -2.66794e-05 0)
(-4.477 -2.5088e-05 0)
(-4.38961 -2.36453e-05 0)
(-4.30695 -2.23326e-05 0)
(-4.22862 -2.11342e-05 0)
(-4.15425 -2.00365e-05 0)
(-4.08351 -1.90282e-05 0)
(-4.01611 -1.80995e-05 0)
(-3.9518 -1.72418e-05 0)
(-3.89035 -1.64478e-05 0)
(-3.83155 -1.5711e-05 0)
(-3.77521 -1.5026e-05 0)
(-3.72117 -1.43877e-05 0)
(-3.66927 -1.37918e-05 0)
(-3.61938 -1.32346e-05 0)
(-3.57137 -1.27125e-05 0)
(-3.52512 -1.22227e-05 0)
(-3.48052 -1.17623e-05 0)
(-3.43748 -1.1329e-05 0)
(-3.39592 -1.09206e-05 0)
(-3.35574 -1.05351e-05 0)
(-3.31687 -1.01709e-05 0)
(-3.27925 -9.82625e-06 0)
(-3.2428 -9.49979e-06 0)
(-3.20746 -9.19021e-06 0)
(-3.17319 -8.89631e-06 0)
(-3.13992 -8.61701e-06 0)
(-3.10762 -8.35131e-06 0)
(-3.07622 -8.09833e-06 0)
(-3.0457 -7.85723e-06 0)
(-3.01601 -7.62724e-06 0)
(-2.98711 -7.40768e-06 0)
(-2.95897 -7.19789e-06 0)
(-2.93155 -6.99728e-06 0)
(-2.90484 -6.80531e-06 0)
(-2.87878 -6.62146e-06 0)
(-2.85337 -6.44527e-06 0)
(-2.82857 -6.27631e-06 0)
(-2.80435 -6.11417e-06 0)
(-2.78071 -5.95847e-06 0)
(-2.7576 -5.80886e-06 0)
(-2.73502 -5.66502e-06 0)
(-2.71294 -5.52665e-06 0)
(-2.69135 -5.39347e-06 0)
(-2.67022 -5.2652e-06 0)
(-2.64955 -5.1416e-06 0)
(-2.62931 -5.02244e-06 0)
(-2.60949 -4.9075e-06 0)
(-2.59007 -4.79658e-06 0)
(-2.57104 -4.68949e-06 0)
(-2.5524 -4.58604e-06 0)
(-2.53412 -4.48606e-06 0)
(-2.51619 -4.38941e-06 0)
(-2.49861 -4.29592e-06 0)
(-2.48135 -4.20546e-06 0)
(-2.46442 -4.1179e-06 0)
(-2.4478 -4.0331e-06 0)
(-2.43149 -3.95094e-06 0)
(-2.41546 -3.87132e-06 0)
(-2.39972 -3.79413e-06 0)
(-2.38426 -3.71927e-06 0)
(-2.36906 -3.64664e-06 0)
(-2.35412 -3.57616e-06 0)
(-2.33944 -3.50772e-06 0)
(-2.325 -3.44126e-06 0)
(-2.3108 -3.3767e-06 0)
(-2.29684 -3.31396e-06 0)
(-2.28309 -3.25298e-06 0)
(-2.26957 -3.19368e-06 0)
(-2.25627 -3.136e-06 0)
(-2.24317 -3.07989e-06 0)
(-2.23027 -3.02528e-06 0)
(-2.21757 -2.97212e-06 0)
(-2.20507 -2.92036e-06 0)
(-2.19275 -2.86994e-06 0)
(-2.18061 -2.82083e-06 0)
(-2.16866 -2.77297e-06 0)
(-2.15688 -2.72632e-06 0)
(-2.14527 -2.68084e-06 0)
(-2.13382 -2.63649e-06 0)
(-2.12254 -2.59324e-06 0)
(-2.11141 -2.55103e-06 0)
(-2.10044 -2.50985e-06 0)
(-2.08962 -2.46966e-06 0)
(-2.07895 -2.43042e-06 0)
(-2.06842 -2.3921e-06 0)
(-2.05803 -2.35468e-06 0)
(-2.04778 -2.31812e-06 0)
(-2.03767 -2.2824e-06 0)
(-2.02769 -2.2475e-06 0)
(-2.01783 -2.21338e-06 0)
(-2.0081 -2.18003e-06 0)
(-1.9985 -2.14742e-06 0)
(-1.98902 -2.11552e-06 0)
(-1.97965 -2.08433e-06 0)
(-1.9704 -2.05381e-06 0)
(-1.96127 -2.02394e-06 0)
(-1.95224 -1.99472e-06 0)
(-1.94333 -1.96611e-06 0)
(-1.93452 -1.9381e-06 0)
(-1.92581 -1.91068e-06 0)
(-1.91721 -1.88382e-06 0)
(-1.90871 -1.85752e-06 0)
(-1.90031 -1.83175e-06 0)
(-1.892 -1.80651e-06 0)
(-1.88379 -1.78177e-06 0)
(-1.87567 -1.75753e-06 0)
(-1.86764 -1.73376e-06 0)
(-1.8597 -1.71047e-06 0)
(-1.85186 -1.68763e-06 0)
(-1.84409 -1.66523e-06 0)
(-1.83641 -1.64326e-06 0)
(-1.82882 -1.62172e-06 0)
(-1.8213 -1.60058e-06 0)
(-1.81387 -1.57984e-06 0)
(-1.80651 -1.55949e-06 0)
(-1.79924 -1.53952e-06 0)
(-1.79203 -1.51992e-06 0)
(-1.78491 -1.50068e-06 0)
(-1.77785 -1.4818e-06 0)
(-1.77087 -1.46325e-06 0)
(-1.76396 -1.44504e-06 0)
(-1.75712 -1.42715e-06 0)
(-1.75035 -1.40959e-06 0)
(-1.74364 -1.39233e-06 0)
(-1.737 -1.37538e-06 0)
(-1.73043 -1.35872e-06 0)
(-1.72392 -1.34235e-06 0)
(-1.71747 -1.32627e-06 0)
(-1.71109 -1.31046e-06 0)
(-1.70476 -1.29492e-06 0)
(-1.6985 -1.27965e-06 0)
(-1.69229 -1.26463e-06 0)
(-1.68615 -1.24986e-06 0)
(-1.68006 -1.23534e-06 0)
(-1.67403 -1.22106e-06 0)
(-1.66805 -1.20701e-06 0)
(-1.66213 -1.1932e-06 0)
(-1.65626 -1.17961e-06 0)
(-1.65044 -1.16624e-06 0)
(-1.64468 -1.15308e-06 0)
(-1.63897 -1.14013e-06 0)
(-1.63331 -1.12739e-06 0)
(-1.62769 -1.11486e-06 0)
(-1.62213 -1.10254e-06 0)
(-1.61662 -1.09029e-06 0)
(-1.61115 -1.07863e-06 0)
(-1.60573 -1.06659e-06 0)
(-1.60036 -1.05375e-06 0)
(-1.59534 -1.04378e-06 0)
(-1.59062 -1.03547e-06 0)
(-1.58589 -1.02502e-06 0)
(-1.58116 -1.01436e-06 0)
(-1.57643 -1.00439e-06 0)
(-1.57169 -9.94418e-07 0)
(-1.56695 -9.84576e-07 0)
(-1.5622 -9.74807e-07 0)
(-1.55745 -9.65111e-07 0)
(-1.5527 -9.55482e-07 0)
(-1.54794 -9.45916e-07 0)
(-1.54318 -9.36412e-07 0)
(-1.53842 -9.26967e-07 0)
(-1.53365 -9.17582e-07 0)
(-1.52888 -9.08255e-07 0)
(-1.52411 -8.98986e-07 0)
(-1.51933 -8.89775e-07 0)
(-1.51455 -8.80622e-07 0)
(-1.50977 -8.71527e-07 0)
(-1.50499 -8.6249e-07 0)
(-1.50021 -8.53511e-07 0)
(-1.49542 -8.4459e-07 0)
(-1.49064 -8.35728e-07 0)
(-1.48585 -8.26923e-07 0)
(-1.48106 -8.18178e-07 0)
(-1.47627 -8.0949e-07 0)
(-1.47148 -8.00862e-07 0)
(-1.46669 -7.92292e-07 0)
(-1.4619 -7.83781e-07 0)
(-1.45711 -7.75329e-07 0)
(-1.45232 -7.66937e-07 0)
(-1.44754 -7.58603e-07 0)
(-1.44275 -7.50329e-07 0)
(-1.43796 -7.42115e-07 0)
(-1.43317 -7.3396e-07 0)
(-1.42839 -7.25864e-07 0)
(-1.4236 -7.17828e-07 0)
(-1.41882 -7.09852e-07 0)
(-1.41404 -7.01936e-07 0)
(-1.40926 -6.9408e-07 0)
(-1.40449 -6.86283e-07 0)
(-1.39971 -6.78547e-07 0)
(-1.39494 -6.7087e-07 0)
(-1.39017 -6.63254e-07 0)
(-1.38541 -6.55697e-07 0)
(-1.38065 -6.482e-07 0)
(-1.37589 -6.40764e-07 0)
(-1.37113 -6.33387e-07 0)
(-1.36638 -6.2607e-07 0)
(-1.36163 -6.18814e-07 0)
(-1.35689 -6.11617e-07 0)
(-1.35215 -6.0448e-07 0)
(-1.34742 -5.97403e-07 0)
(-1.34269 -5.90385e-07 0)
(-1.33796 -5.83427e-07 0)
(-1.33324 -5.76529e-07 0)
(-1.32853 -5.6969e-07 0)
(-1.32382 -5.62911e-07 0)
(-1.31911 -5.5619e-07 0)
(-1.31442 -5.49529e-07 0)
(-1.30972 -5.42927e-07 0)
(-1.30504 -5.36384e-07 0)
(-1.30036 -5.299e-07 0)
(-1.29569 -5.23475e-07 0)
(-1.29102 -5.17107e-07 0)
(-1.28636 -5.10799e-07 0)
(-1.28171 -5.04548e-07 0)
(-1.27706 -4.98355e-07 0)
(-1.27242 -4.92221e-07 0)
(-1.26779 -4.86144e-07 0)
(-1.26317 -4.80124e-07 0)
(-1.25855 -4.74161e-07 0)
(-1.25394 -4.68256e-07 0)
(-1.24934 -4.62408e-07 0)
(-1.24475 -4.56616e-07 0)
(-1.24017 -4.5088e-07 0)
(-1.23559 -4.45201e-07 0)
(-1.23102 -4.39578e-07 0)
(-1.22647 -4.3401e-07 0)
(-1.22192 -4.28498e-07 0)
(-1.21738 -4.23041e-07 0)
(-1.21285 -4.17639e-07 0)
(-1.20833 -4.12292e-07 0)
(-1.20381 -4.06999e-07 0)
(-1.19931 -4.0176e-07 0)
(-1.19482 -3.96576e-07 0)
(-1.19034 -3.91445e-07 0)
(-1.18587 -3.86367e-07 0)
(-1.1814 -3.81342e-07 0)
(-1.17695 -3.7637e-07 0)
(-1.17251 -3.71451e-07 0)
(-1.16808 -3.66584e-07 0)
(-1.16366 -3.61768e-07 0)
(-1.15925 -3.57005e-07 0)
(-1.15485 -3.52292e-07 0)
(-1.15046 -3.4763e-07 0)
(-1.14608 -3.43019e-07 0)
(-1.14172 -3.38459e-07 0)
(-1.13736 -3.33948e-07 0)
(-1.13302 -3.29487e-07 0)
(-1.12869 -3.25076e-07 0)
(-1.12437 -3.20713e-07 0)
(-1.12006 -3.16399e-07 0)
(-1.11576 -3.12134e-07 0)
(-1.11148 -3.07916e-07 0)
(-1.10721 -3.03747e-07 0)
(-1.10295 -2.99624e-07 0)
(-1.0987 -2.95549e-07 0)
(-1.09446 -2.9152e-07 0)
(-1.09024 -2.87537e-07 0)
(-1.08603 -2.83601e-07 0)
(-1.08183 -2.7971e-07 0)
(-1.07765 -2.75864e-07 0)
(-1.07347 -2.72064e-07 0)
(-1.06931 -2.68308e-07 0)
(-1.06517 -2.64596e-07 0)
(-1.06103 -2.60928e-07 0)
(-1.05691 -2.57303e-07 0)
(-1.0528 -2.53722e-07 0)
(-1.04871 -2.50183e-07 0)
(-1.04463 -2.46687e-07 0)
(-1.04056 -2.43233e-07 0)
(-1.0365 -2.39821e-07 0)
(-1.03246 -2.3645e-07 0)
(-1.02844 -2.3312e-07 0)
(-1.02442 -2.2983e-07 0)
(-1.02042 -2.26581e-07 0)
(-1.01644 -2.23372e-07 0)
(-1.01246 -2.20203e-07 0)
(-1.0085 -2.17072e-07 0)
(-1.00456 -2.13981e-07 0)
(-1.00063 -2.10928e-07 0)
(-0.996713 -2.07913e-07 0)
(-0.99281 -2.04936e-07 0)
(-0.988922 -2.01997e-07 0)
(-0.985047 -1.99094e-07 0)
(-0.981187 -1.96229e-07 0)
(-0.977342 -1.93399e-07 0)
(-0.97351 -1.90606e-07 0)
(-0.969693 -1.87849e-07 0)
(-0.96589 -1.85126e-07 0)
(-0.962102 -1.82439e-07 0)
(-0.958328 -1.79786e-07 0)
(-0.954569 -1.77168e-07 0)
(-0.950824 -1.74584e-07 0)
(-0.947094 -1.72033e-07 0)
(-0.943379 -1.69515e-07 0)
(-0.939678 -1.6703e-07 0)
(-0.935992 -1.64578e-07 0)
(-0.93232 -1.62159e-07 0)
(-0.928663 -1.59771e-07 0)
(-0.925021 -1.57414e-07 0)
(-0.921394 -1.55089e-07 0)
(-0.917782 -1.52795e-07 0)
(-0.914184 -1.50531e-07 0)
(-0.910601 -1.48298e-07 0)
(-0.907033 -1.46094e-07 0)
(-0.90348 -1.4392e-07 0)
(-0.899942 -1.41775e-07 0)
(-0.896419 -1.3966e-07 0)
(-0.89291 -1.37572e-07 0)
(-0.889417 -1.35514e-07 0)
(-0.885938 -1.33483e-07 0)
(-0.882475 -1.3148e-07 0)
(-0.879026 -1.29504e-07 0)
(-0.875592 -1.27555e-07 0)
(-0.872174 -1.25633e-07 0)
(-0.86877 -1.23738e-07 0)
(-0.865381 -1.21869e-07 0)
(-0.862007 -1.20026e-07 0)
(-0.858648 -1.18208e-07 0)
(-0.855304 -1.16416e-07 0)
(-0.851975 -1.14648e-07 0)
(-0.848661 -1.12906e-07 0)
(-0.845362 -1.11188e-07 0)
(-0.842078 -1.09495e-07 0)
(-0.838809 -1.07828e-07 0)
(-0.835554 -1.06182e-07 0)
(-0.832315 -1.04545e-07 0)
(-0.829091 -1.03008e-07 0)
(-0.825877 -1.01481e-07 0)
(-0.822321 -9.96881e-08 0)
(-0.818464 -9.78068e-08 0)
(-0.814678 -9.60961e-08 0)
(-0.810955 -9.4434e-08 0)
(-0.807299 -9.27457e-08 0)
(-0.803708 -9.10843e-08 0)
(-0.800181 -8.94634e-08 0)
(-0.796717 -8.78858e-08 0)
(-0.793314 -8.6351e-08 0)
(-0.78997 -8.48579e-08 0)
(-0.786683 -8.34056e-08 0)
(-0.783453 -8.1993e-08 0)
(-0.780277 -8.06186e-08 0)
(-0.777154 -7.9281e-08 0)
(-0.774082 -7.79789e-08 0)
(-0.771061 -7.67111e-08 0)
(-0.768089 -7.54762e-08 0)
(-0.765164 -7.42732e-08 0)
(-0.762286 -7.31008e-08 0)
(-0.759452 -7.19581e-08 0)
(-0.756663 -7.0844e-08 0)
(-0.753917 -6.97574e-08 0)
(-0.751213 -6.86975e-08 0)
(-0.74855 -6.76634e-08 0)
(-0.745927 -6.66542e-08 0)
(-0.743343 -6.56691e-08 0)
(-0.740796 -6.47072e-08 0)
(-0.738287 -6.37679e-08 0)
(-0.735814 -6.28504e-08 0)
(-0.733377 -6.19541e-08 0)
(-0.730974 -6.10781e-08 0)
(-0.728605 -6.0222e-08 0)
(-0.72627 -5.93851e-08 0)
(-0.723966 -5.85668e-08 0)
(-0.721694 -5.77666e-08 0)
(-0.719453 -5.69838e-08 0)
(-0.717243 -5.6218e-08 0)
(-0.715061 -5.54687e-08 0)
(-0.712909 -5.47354e-08 0)
(-0.710786 -5.40176e-08 0)
(-0.70869 -5.33149e-08 0)
(-0.706621 -5.26269e-08 0)
(-0.704578 -5.19531e-08 0)
(-0.702562 -5.12931e-08 0)
(-0.700572 -5.06466e-08 0)
(-0.698606 -5.00131e-08 0)
(-0.696665 -4.93924e-08 0)
(-0.694748 -4.87841e-08 0)
(-0.692854 -4.81878e-08 0)
(-0.690983 -4.76032e-08 0)
(-0.689136 -4.703e-08 0)
(-0.68731 -4.6468e-08 0)
(-0.685506 -4.59168e-08 0)
(-0.683723 -4.53762e-08 0)
(-0.681961 -4.48458e-08 0)
(-0.68022 -4.43255e-08 0)
(-0.678499 -4.3815e-08 0)
(-0.676798 -4.3314e-08 0)
(-0.675116 -4.28224e-08 0)
(-0.673453 -4.23398e-08 0)
(-0.671809 -4.18661e-08 0)
(-0.670183 -4.14012e-08 0)
(-0.668575 -4.09447e-08 0)
(-0.666985 -4.04965e-08 0)
(-0.665412 -4.00565e-08 0)
(-0.663856 -3.96244e-08 0)
(-0.662317 -3.92002e-08 0)
(-0.660794 -3.87836e-08 0)
(-0.659288 -3.83745e-08 0)
(-0.657797 -3.79729e-08 0)
(-0.656322 -3.75786e-08 0)
(-0.654862 -3.71914e-08 0)
(-0.653417 -3.68114e-08 0)
(-0.651987 -3.64385e-08 0)
(-0.650571 -3.60727e-08 0)
(-0.64917 -3.5714e-08 0)
(-0.647782 -3.53624e-08 0)
(-0.646408 -3.50181e-08 0)
(-0.645047 -3.46813e-08 0)
(-0.643699 -3.43523e-08 0)
(-0.642364 -3.40316e-08 0)
(-0.641041 -3.37199e-08 0)
(-0.639731 -3.34185e-08 0)
(-0.638431 -3.31287e-08 0)
(-0.637143 -3.28527e-08 0)
(-0.635866 -3.25993e-08 0)
(-0.634597 -3.23568e-08 0)
(-0.633339 -3.21544e-08 0)
(-0.632086 -3.21348e-08 0)
(-0.630829 -3.17609e-08 0)
(-0.629606 -3.09455e-08 0)
(-0.628412 -4.07212e-08 0)
(-0.626426 -1.10615e-08 0)
(-0.627559 -2.99611e-08 0)
(-0.624046 -4.58472e-08 0)
)
;
    }
    symmetry
    {
        type            symmetryPlane;
    }
    frontAndBack
    {
        type            empty;
    }
}


// ************************************************************************* //
