/*--------------------------------*- C++ -*----------------------------------*\
| =========                 |                                                 |
| \\      /  F ield         | OpenFOAM: The Open Source CFD Toolbox           |
|  \\    /   O peration     | Version:  v2012                                 |
|   \\  /    A nd           | Website:  www.openfoam.com                      |
|    \\/     M anipulation  |                                                 |
\*---------------------------------------------------------------------------*/
FoamFile
{
    version     2.0;
    format      ascii;
    class       volScalarField;
    location    "21.5";
    object      yPlus;
}
// * * * * * * * * * * * * * * * * * * * * * * * * * * * * * * * * * * * * * //

dimensions      [0 0 0 0 0 0 0];


internalField   uniform 0;

boundaryField
{
    inlet
    {
        type            calculated;
        value           uniform 0;
    }
    outlet
    {
        type            calculated;
        value           uniform 0;
    }
    topWall
    {
        type            calculated;
        value           nonuniform List<scalar> 
545
(
0.0703784
0.121363
0.155689
0.182994
0.206097
0.226298
0.244327
0.260644
0.275562
0.289305
0.302042
0.313905
0.324998
0.335404
0.345194
0.354426
0.36315
0.37141
0.379243
0.386682
0.393755
0.400488
0.406905
0.413027
0.418871
0.424455
0.429796
0.434906
0.439799
0.444487
0.448982
0.453293
0.45743
0.461402
0.465218
0.468885
0.47241
0.4758
0.479062
0.482201
0.485223
0.488134
0.490938
0.49364
0.496245
0.498757
0.501179
0.503516
0.505771
0.507948
0.510049
0.512078
0.514038
0.515931
0.51776
0.519528
0.521237
0.522889
0.524487
0.526032
0.527527
0.528973
0.530372
0.531726
0.533037
0.534306
0.535535
0.536724
0.537877
0.538993
0.540074
0.541122
0.542124
0.543092
0.544052
0.545003
0.545945
0.546879
0.547805
0.548722
0.549631
0.550532
0.551425
0.55231
0.553187
0.554056
0.554918
0.555772
0.556619
0.557458
0.558289
0.559114
0.559931
0.560741
0.561544
0.56234
0.563056
0.563696
0.564336
0.564975
0.565613
0.56625
0.566887
0.567523
0.568158
0.568793
0.569426
0.57006
0.570692
0.571324
0.571955
0.572585
0.573214
0.573843
0.574471
0.575098
0.575725
0.57635
0.576975
0.577599
0.578222
0.578844
0.579466
0.580086
0.580706
0.581325
0.581943
0.58256
0.583177
0.583792
0.584407
0.585021
0.585633
0.586245
0.586856
0.587466
0.588075
0.588683
0.58929
0.589897
0.590502
0.591106
0.591709
0.592311
0.592913
0.593513
0.594112
0.59471
0.595307
0.595903
0.596498
0.597092
0.597685
0.598277
0.598868
0.599457
0.600046
0.600633
0.60122
0.601805
0.602389
0.602971
0.603553
0.604134
0.604713
0.605291
0.605868
0.606444
0.607018
0.607591
0.608163
0.608734
0.609304
0.609872
0.610439
0.611005
0.611569
0.612132
0.612694
0.613255
0.613814
0.614372
0.614928
0.615483
0.616037
0.616589
0.61714
0.61769
0.618238
0.618785
0.61933
0.619874
0.620417
0.620958
0.621497
0.622035
0.622572
0.623107
0.62364
0.624172
0.624703
0.625232
0.625759
0.626285
0.62681
0.627332
0.627854
0.628373
0.628891
0.629407
0.629922
0.630435
0.630947
0.631456
0.631965
0.632471
0.632976
0.633479
0.63398
0.63448
0.634977
0.635474
0.635968
0.636461
0.636951
0.63744
0.637928
0.638413
0.638897
0.639379
0.639859
0.640337
0.640813
0.641287
0.64176
0.64223
0.642699
0.643166
0.643631
0.644094
0.644555
0.645014
0.645471
0.645926
0.646379
0.64683
0.647279
0.647726
0.648171
0.648614
0.649055
0.649494
0.649931
0.650366
0.650798
0.651229
0.651657
0.652083
0.652508
0.65293
0.653349
0.653767
0.654182
0.654596
0.655007
0.655416
0.655822
0.656227
0.656629
0.657006
0.657361
0.657717
0.658075
0.658434
0.658793
0.659154
0.659516
0.659879
0.660243
0.660608
0.660974
0.661341
0.661709
0.662077
0.662446
0.662816
0.663186
0.663557
0.663928
0.6643
0.664672
0.665044
0.665417
0.66579
0.666163
0.666536
0.666909
0.667281
0.667654
0.668026
0.668398
0.66877
0.669141
0.669511
0.669881
0.67025
0.670618
0.670985
0.671351
0.671716
0.67208
0.672442
0.672803
0.673162
0.67352
0.673875
0.674229
0.674581
0.674931
0.675278
0.675623
0.675965
0.676305
0.676642
0.676976
0.677307
0.677635
0.67796
0.678281
0.678598
0.678912
0.679222
0.679527
0.679829
0.680126
0.680418
0.680706
0.680989
0.681266
0.681539
0.681806
0.682067
0.682323
0.682573
0.682817
0.683054
0.683285
0.683509
0.683726
0.683936
0.684139
0.684335
0.684522
0.684702
0.684874
0.685037
0.685192
0.685338
0.685475
0.685603
0.685721
0.68583
0.685929
0.686018
0.686097
0.686165
0.686222
0.686269
0.686304
0.686328
0.68634
0.68634
0.686328
0.686304
0.686267
0.686217
0.686155
0.686079
0.685989
0.685886
0.685768
0.685637
0.685491
0.68533
0.685154
0.684964
0.684757
0.684536
0.684298
0.684045
0.683775
0.683489
0.683186
0.682867
0.68253
0.682176
0.681805
0.681416
0.681009
0.680584
0.680141
0.67968
0.6792
0.678702
0.678185
0.677649
0.677093
0.676519
0.675925
0.675312
0.674679
0.674027
0.673354
0.672662
0.67195
0.671218
0.670466
0.669694
0.668901
0.668089
0.667256
0.666403
0.66553
0.664637
0.663723
0.66279
0.661836
0.660863
0.659869
0.658855
0.657822
0.656769
0.655697
0.654605
0.653493
0.652363
0.651214
0.650046
0.648859
0.647654
0.646431
0.64519
0.643931
0.642655
0.641362
0.640052
0.638725
0.637382
0.636023
0.634649
0.633104
0.631396
0.629689
0.627985
0.626284
0.624587
0.622894
0.621208
0.619528
0.617854
0.616189
0.614532
0.612884
0.611245
0.609617
0.607999
0.606392
0.604797
0.603214
0.601643
0.600085
0.598541
0.59701
0.595493
0.59399
0.592503
0.59103
0.589572
0.588131
0.586705
0.585295
0.583902
0.582525
0.581166
0.579823
0.578498
0.577191
0.575901
0.574629
0.573376
0.572141
0.570925
0.569727
0.568549
0.567389
0.566249
0.565129
0.564028
0.562947
0.561886
0.560845
0.559825
0.558825
0.557845
0.556887
0.555949
0.555033
0.554138
0.553264
0.552412
0.551581
0.550773
0.549986
0.549222
0.548479
0.54776
0.547062
0.546388
0.545736
0.545107
0.544501
0.543919
0.54336
0.542824
0.542311
0.541823
0.541358
0.540917
0.5405
0.540106
0.539738
0.539393
0.539072
0.538776
0.538505
0.538258
0.538035
0.537837
0.537664
0.537515
0.537392
0.537293
0.537218
0.537172
0.537135
)
;
    }
    bottomWall
    {
        type            calculated;
        value           nonuniform List<scalar> 
449
(
0.139506
0.0889921
0.0758366
0.0694621
0.0652771
0.0621493
0.0596533
0.0575889
0.0558371
0.0543203
0.052986
0.0517979
0.0507295
0.0497605
0.0488754
0.0480619
0.04731
0.0466119
0.0459609
0.0453515
0.0447791
0.0442399
0.0437305
0.043248
0.0427899
0.0423541
0.0419387
0.041542
0.0411625
0.0407989
0.04045
0.0401148
0.0397923
0.0394817
0.0391822
0.0388931
0.0386137
0.0383435
0.038082
0.0378285
0.0375828
0.0373443
0.0371127
0.0368876
0.0366688
0.0364558
0.0362484
0.0360464
0.0358495
0.0356574
0.03547
0.0352871
0.0351084
0.0349338
0.0347631
0.0345961
0.0344328
0.0342729
0.0341164
0.033963
0.0338128
0.0336655
0.0335211
0.0333795
0.0332405
0.0331041
0.0329703
0.0328388
0.0327096
0.0325828
0.0324581
0.0323355
0.032215
0.0320964
0.0319798
0.0318651
0.0317522
0.0316411
0.0315316
0.0314239
0.0313177
0.0312132
0.0311102
0.0310086
0.0309085
0.0308099
0.0307126
0.0306167
0.030522
0.0304287
0.0303366
0.0302457
0.030156
0.0300675
0.0299801
0.0298938
0.0298086
0.0297244
0.0296412
0.0295591
0.029478
0.0293978
0.0293186
0.0292402
0.0291628
0.0290863
0.0290106
0.0289358
0.0288618
0.0287887
0.0287163
0.0286447
0.0285739
0.0285038
0.0284344
0.0283658
0.0282979
0.0282307
0.0281641
0.0280983
0.028033
0.0279685
0.0279045
0.0278412
0.0277785
0.0277164
0.0276549
0.0275939
0.0275336
0.0274738
0.0274145
0.0273558
0.0272976
0.0272399
0.0271827
0.0271261
0.0270699
0.0270143
0.0269591
0.0269044
0.0268501
0.0267963
0.026743
0.0266901
0.0266376
0.0265856
0.026534
0.0264828
0.026432
0.0263817
0.0263317
0.0262821
0.0262329
0.0261841
0.0261357
0.0260876
0.0260399
0.0259926
0.0259456
0.025899
0.0258527
0.0258068
0.0257612
0.0257159
0.025671
0.0256264
0.0255821
0.0255381
0.0254944
0.0254511
0.025408
0.0253652
0.0253228
0.025283
0.0252456
0.025208
0.0251704
0.0251327
0.0250949
0.025057
0.025019
0.024981
0.0249428
0.0249046
0.0248662
0.0248278
0.0247893
0.0247508
0.0247121
0.0246734
0.0246345
0.0245956
0.0245567
0.0245176
0.0244785
0.0244393
0.0244
0.0243606
0.0243212
0.0242817
0.0242422
0.0242026
0.0241629
0.0241231
0.0240833
0.0240435
0.0240035
0.0239636
0.0239235
0.0238834
0.0238433
0.0238031
0.0237628
0.0237225
0.0236822
0.0236418
0.0236013
0.0235608
0.0235203
0.0234797
0.0234391
0.0233985
0.0233578
0.0233171
0.0232763
0.0232355
0.0231947
0.0231539
0.023113
0.0230721
0.0230312
0.0229902
0.0229492
0.0229083
0.0228672
0.0228262
0.0227851
0.0227441
0.022703
0.0226619
0.0226208
0.0225797
0.0225385
0.0224974
0.0224563
0.0224151
0.0223739
0.0223328
0.0222916
0.0222505
0.0222093
0.0221682
0.022127
0.0220859
0.0220448
0.0220036
0.0219625
0.0219214
0.0218803
0.0218392
0.0217982
0.0217571
0.0217161
0.0216751
0.0216341
0.0215931
0.0215521
0.0215112
0.0214703
0.0214294
0.0213885
0.0213477
0.0213069
0.0212662
0.0212254
0.0211847
0.021144
0.0211034
0.0210628
0.0210223
0.0209817
0.0209412
0.0209008
0.0208604
0.02082
0.0207797
0.0207395
0.0206992
0.0206591
0.0206189
0.0205789
0.0205388
0.0204988
0.0204589
0.020419
0.0203792
0.0203395
0.0202997
0.0202601
0.0202205
0.020181
0.0201415
0.0201021
0.0200627
0.0200234
0.0199842
0.019945
0.019906
0.0198669
0.019828
0.0197891
0.0197502
0.0197115
0.0196728
0.0196342
0.0195956
0.0195572
0.0195188
0.0194804
0.0194422
0.019404
0.0193659
0.0193279
0.01929
0.0192521
0.0192143
0.0191766
0.019139
0.0191014
0.019064
0.0190266
0.0189893
0.0189521
0.018915
0.0188779
0.018841
0.0188041
0.0187673
0.0187307
0.0186941
0.0186575
0.0186211
0.0185848
0.0185485
0.0185124
0.0184763
0.0184404
0.0184045
0.0183687
0.018333
0.0182974
0.0182619
0.0182265
0.0181911
0.0181519
0.0181093
0.0180674
0.018026
0.0179854
0.0179453
0.0179059
0.0178671
0.0178289
0.0177913
0.0177542
0.0177177
0.0176818
0.0176464
0.0176115
0.0175771
0.0175432
0.0175097
0.0174768
0.0174443
0.0174122
0.0173806
0.0173494
0.0173186
0.0172882
0.0172582
0.0172287
0.0171995
0.0171706
0.0171422
0.0171141
0.0170863
0.0170589
0.0170318
0.0170051
0.0169787
0.0169526
0.0169268
0.0169013
0.0168761
0.0168512
0.0168266
0.0168022
0.0167782
0.0167544
0.0167309
0.0167076
0.0166846
0.0166618
0.0166393
0.0166171
0.016595
0.0165732
0.0165517
0.0165303
0.0165092
0.0164883
0.0164676
0.0164472
0.0164269
0.0164068
0.016387
0.0163673
0.0163478
0.0163285
0.0163094
0.0162905
0.0162718
0.0162532
0.0162348
0.0162166
0.0161986
0.0161807
0.016163
0.0161454
0.016128
0.0161108
0.0160937
0.0160767
0.0160599
0.0160433
0.0160267
0.0160103
0.0159941
0.0159779
0.0159619
0.015946
0.0159302
0.0159144
0.0158986
0.0158831
0.0158681
0.015843
0.0158573
0.0158129
)
;
    }
    symmetry
    {
        type            symmetryPlane;
    }
    frontAndBack
    {
        type            empty;
    }
}


// ************************************************************************* //
