/*--------------------------------*- C++ -*----------------------------------*\
| =========                 |                                                 |
| \\      /  F ield         | OpenFOAM: The Open Source CFD Toolbox           |
|  \\    /   O peration     | Version:  v2012                                 |
|   \\  /    A nd           | Website:  www.openfoam.com                      |
|    \\/     M anipulation  |                                                 |
\*---------------------------------------------------------------------------*/
FoamFile
{
    version     2.0;
    format      ascii;
    class       volScalarField;
    location    "0.5";
    object      p;
}
// * * * * * * * * * * * * * * * * * * * * * * * * * * * * * * * * * * * * * //

dimensions      [0 2 -2 0 0 0 0];


internalField   nonuniform List<scalar> 
209825
(
3.92881
3.93115
3.93698
3.94581
3.95713
3.97075
3.98661
4.00466
4.0248
4.04693
4.07098
4.0969
4.12464
4.15418
4.18549
4.21853
4.25328
4.28973
4.32785
4.36765
4.4091
4.45223
4.49703
4.54353
4.59174
4.64166
4.69331
4.74669
4.80185
4.8588
4.91757
4.97821
5.04074
5.10518
5.1716
5.24002
5.31051
5.38313
5.45791
5.53493
5.61423
5.69588
5.77995
5.86651
5.95564
6.04743
6.14196
6.23933
6.33965
6.44303
6.54959
6.65944
6.7727
6.88954
7.01007
7.13447
7.26292
7.39558
7.53268
7.67442
7.82103
7.97276
8.12988
8.29268
8.46147
8.6366
8.81844
9.00737
9.20387
9.40841
9.62155
9.84382
10.073
10.3117
10.5666
10.84
11.1344
11.4524
11.7973
12.1732
12.585
13.0385
13.5414
14.1032
14.7362
15.4568
16.2869
17.2582
18.4121
19.8248
21.5735
23.9386
26.9451
32.4989
38.7919
71.5265
3.92881
3.93115
3.93698
3.94581
3.95713
3.97075
3.98661
4.00466
4.0248
4.04693
4.07098
4.0969
4.12464
4.15418
4.18549
4.21853
4.25328
4.28973
4.32785
4.36765
4.4091
4.45223
4.49703
4.54353
4.59174
4.64166
4.69331
4.74669
4.80185
4.8588
4.91757
4.97821
5.04074
5.10518
5.1716
5.24002
5.31051
5.38313
5.45791
5.53493
5.61423
5.69588
5.77995
5.86651
5.95564
6.04743
6.14196
6.23933
6.33965
6.44303
6.54959
6.65944
6.7727
6.88954
7.01007
7.13447
7.26292
7.39558
7.53268
7.67442
7.82103
7.97276
8.12988
8.29267
8.46147
8.63659
8.81844
9.00737
9.20387
9.40841
9.62155
9.84382
10.073
10.3117
10.5666
10.84
11.1343
11.4524
11.7973
12.1732
12.585
13.0385
13.5414
14.1032
14.7362
15.4568
16.2869
17.2581
18.412
19.8247
21.5734
23.9383
26.9447
32.4965
38.7711
70.8887
3.92881
3.93115
3.93698
3.94581
3.95713
3.97075
3.98661
4.00466
4.0248
4.04693
4.07098
4.0969
4.12464
4.15418
4.18549
4.21853
4.25328
4.28973
4.32785
4.36765
4.4091
4.45223
4.49703
4.54353
4.59174
4.64166
4.69331
4.74669
4.80185
4.8588
4.91757
4.97821
5.04074
5.10518
5.1716
5.24002
5.31051
5.38313
5.45791
5.53493
5.61423
5.69588
5.77995
5.86651
5.95564
6.04743
6.14196
6.23933
6.33965
6.44303
6.54958
6.65944
6.7727
6.88954
7.01007
7.13447
7.26291
7.39558
7.53268
7.67442
7.82102
7.97276
8.12987
8.29267
8.46147
8.63659
8.81843
9.00737
9.20387
9.4084
9.62154
9.84381
10.073
10.3117
10.5666
10.84
11.1343
11.4524
11.7973
12.1732
12.5849
13.0385
13.5414
14.1031
14.7361
15.4568
16.2868
17.2581
18.4119
19.8245
21.5731
23.9378
26.9439
32.4924
38.7487
70.1192
3.92881
3.93115
3.93698
3.94581
3.95713
3.97075
3.98661
4.00466
4.0248
4.04693
4.07098
4.0969
4.12464
4.15418
4.18549
4.21853
4.25328
4.28973
4.32785
4.36765
4.4091
4.45223
4.49703
4.54353
4.59174
4.64166
4.69331
4.74669
4.80185
4.8588
4.91757
4.97821
5.04074
5.10518
5.1716
5.24002
5.31051
5.38312
5.45791
5.53493
5.61423
5.69588
5.77995
5.86651
5.95564
6.04742
6.14196
6.23933
6.33965
6.44303
6.54958
6.65944
6.7727
6.88954
7.01007
7.13447
7.26291
7.39558
7.53267
7.67441
7.82102
7.97275
8.12987
8.29267
8.46147
8.63659
8.81843
9.00736
9.20386
9.4084
9.62154
9.84381
10.073
10.3117
10.5666
10.84
11.1343
11.4524
11.7973
12.1732
12.5849
13.0384
13.5413
14.1031
14.7361
15.4567
16.2867
17.2579
18.4117
19.8243
21.5727
23.9371
26.9427
32.4866
38.7287
69.3566
3.92881
3.93115
3.93698
3.94581
3.95713
3.97075
3.98661
4.00466
4.0248
4.04693
4.07097
4.0969
4.12464
4.15418
4.18549
4.21853
4.25328
4.28973
4.32785
4.36765
4.4091
4.45223
4.49703
4.54353
4.59174
4.64166
4.69331
4.74669
4.80185
4.8588
4.91757
4.97821
5.04074
5.10518
5.1716
5.24002
5.31051
5.38312
5.45791
5.53492
5.61423
5.69588
5.77995
5.8665
5.95564
6.04742
6.14196
6.23933
6.33965
6.44303
6.54958
6.65944
6.7727
6.88954
7.01007
7.13447
7.26291
7.39558
7.53267
7.67441
7.82102
7.97275
8.12987
8.29266
8.46146
8.63658
8.81842
9.00735
9.20385
9.40839
9.62153
9.84379
10.073
10.3117
10.5666
10.84
11.1343
11.4523
11.7973
12.1732
12.5849
13.0384
13.5413
14.103
14.736
15.4566
16.2865
17.2577
18.4114
19.8239
21.5721
23.936
26.9411
32.4791
38.709
68.6067
3.92881
3.93115
3.93698
3.94581
3.95713
3.97075
3.98661
4.00466
4.0248
4.04693
4.07097
4.0969
4.12464
4.15418
4.18549
4.21853
4.25328
4.28973
4.32785
4.36765
4.4091
4.45223
4.49703
4.54353
4.59174
4.64166
4.69331
4.74669
4.80185
4.8588
4.91757
4.97821
5.04074
5.10518
5.1716
5.24002
5.31051
5.38312
5.45791
5.53492
5.61423
5.69588
5.77995
5.8665
5.95564
6.04742
6.14195
6.23933
6.33965
6.44303
6.54958
6.65943
6.7727
6.88953
7.01006
7.13447
7.26291
7.39557
7.53267
7.67441
7.82101
7.97274
8.12986
8.29266
8.46145
8.63657
8.81841
9.00734
9.20384
9.40837
9.62151
9.84378
10.073
10.3117
10.5666
10.84
11.1343
11.4523
11.7972
12.1731
12.5848
13.0383
13.5412
14.1029
14.7359
15.4564
16.2864
17.2575
18.4111
19.8234
21.5714
23.9346
26.9391
32.4696
38.6869
67.8609
3.92881
3.93115
3.93698
3.94581
3.95713
3.97075
3.98661
4.00466
4.0248
4.04693
4.07097
4.0969
4.12464
4.15418
4.18549
4.21853
4.25328
4.28973
4.32785
4.36765
4.4091
4.45223
4.49703
4.54353
4.59174
4.64166
4.69331
4.74669
4.80185
4.8588
4.91757
4.97821
5.04074
5.10518
5.1716
5.24002
5.31051
5.38312
5.45791
5.53492
5.61423
5.69587
5.77995
5.8665
5.95563
6.04742
6.14195
6.23933
6.33965
6.44303
6.54958
6.65943
6.7727
6.88953
7.01006
7.13446
7.2629
7.39557
7.53266
7.6744
7.82101
7.97274
8.12985
8.29265
8.46144
8.63656
8.8184
9.00733
9.20383
9.40836
9.62149
9.84376
10.073
10.3116
10.5665
10.8399
11.1342
11.4523
11.7972
12.1731
12.5848
13.0383
13.5411
14.1028
14.7357
15.4562
16.2861
17.2572
18.4107
19.8228
21.5705
23.9329
26.9365
32.4582
38.6613
67.1161
3.92881
3.93115
3.93698
3.94581
3.95713
3.97075
3.98661
4.00466
4.0248
4.04693
4.07097
4.0969
4.12464
4.15418
4.18549
4.21853
4.25328
4.28973
4.32785
4.36765
4.4091
4.45223
4.49703
4.54353
4.59174
4.64166
4.69331
4.74669
4.80185
4.85879
4.91757
4.97821
5.04074
5.10518
5.1716
5.24002
5.31051
5.38312
5.45791
5.53492
5.61423
5.69587
5.77995
5.8665
5.95563
6.04742
6.14195
6.23932
6.33965
6.44302
6.54958
6.65943
6.77269
6.88953
7.01006
7.13446
7.2629
7.39556
7.53266
7.67439
7.821
7.97273
8.12984
8.29264
8.46143
8.63655
8.81839
9.00732
9.20381
9.40834
9.62147
9.84373
10.0729
10.3116
10.5665
10.8399
11.1342
11.4522
11.7971
12.173
12.5847
13.0382
13.541
14.1027
14.7355
15.456
16.2859
17.2568
18.4102
19.822
21.5694
23.9309
26.9335
32.4447
38.632
66.3714
3.92881
3.93115
3.93698
3.94581
3.95713
3.97075
3.98661
4.00466
4.0248
4.04693
4.07097
4.0969
4.12464
4.15418
4.18549
4.21853
4.25328
4.28973
4.32785
4.36765
4.4091
4.45223
4.49703
4.54353
4.59174
4.64166
4.69331
4.74669
4.80184
4.85879
4.91757
4.97821
5.04074
5.10518
5.1716
5.24002
5.31051
5.38312
5.45791
5.53492
5.61423
5.69587
5.77994
5.8665
5.95563
6.04742
6.14195
6.23932
6.33964
6.44302
6.54957
6.65942
6.77269
6.88952
7.01005
7.13445
7.26289
7.39556
7.53265
7.67439
7.82099
7.97272
8.12983
8.29263
8.46142
8.63654
8.81837
9.0073
9.20379
9.40832
9.62145
9.84371
10.0729
10.3116
10.5665
10.8398
11.1341
11.4522
11.7971
12.1729
12.5846
13.0381
13.5409
14.1025
14.7353
15.4558
16.2855
17.2564
18.4096
19.8212
21.5682
23.9285
26.9299
32.429
38.5991
65.6269
3.92881
3.93115
3.93698
3.94581
3.95713
3.97075
3.98661
4.00466
4.0248
4.04693
4.07097
4.0969
4.12464
4.15418
4.18549
4.21853
4.25328
4.28973
4.32785
4.36765
4.4091
4.45223
4.49703
4.54353
4.59174
4.64165
4.69331
4.74669
4.80184
4.85879
4.91757
4.97821
5.04074
5.10518
5.17159
5.24002
5.31051
5.38312
5.45791
5.53492
5.61423
5.69587
5.77994
5.8665
5.95563
6.04741
6.14194
6.23932
6.33964
6.44302
6.54957
6.65942
6.77268
6.88952
7.01005
7.13445
7.26288
7.39555
7.53264
7.67438
7.82098
7.97271
8.12982
8.29261
8.46141
8.63652
8.81835
9.00728
9.20377
9.40829
9.62142
9.84368
10.0729
10.3115
10.5664
10.8398
11.1341
11.4521
11.797
12.1728
12.5845
13.0379
13.5407
14.1023
14.7351
15.4555
16.2852
17.2559
18.4089
19.8202
21.5667
23.9258
26.9258
32.4112
38.5624
64.8826
3.92881
3.93115
3.93698
3.94581
3.95713
3.97075
3.98661
4.00466
4.0248
4.04693
4.07097
4.0969
4.12464
4.15418
4.18549
4.21853
4.25328
4.28973
4.32785
4.36765
4.4091
4.45223
4.49703
4.54353
4.59174
4.64165
4.69331
4.74669
4.80184
4.85879
4.91757
4.97821
5.04074
5.10518
5.17159
5.24002
5.31051
5.38312
5.4579
5.53492
5.61422
5.69587
5.77994
5.86649
5.95563
6.04741
6.14194
6.23931
6.33964
6.44301
6.54956
6.65942
6.77268
6.88951
7.01004
7.13444
7.26288
7.39554
7.53263
7.67437
7.82097
7.9727
8.12981
8.2926
8.46139
8.6365
8.81833
9.00725
9.20374
9.40827
9.62139
9.84364
10.0728
10.3115
10.5664
10.8397
11.134
11.452
11.7969
12.1727
12.5844
13.0378
13.5405
14.1021
14.7349
15.4552
16.2847
17.2553
18.4081
19.819
21.565
23.9227
26.9211
32.3912
38.522
64.1389
3.92881
3.93115
3.93698
3.94581
3.95713
3.97075
3.98661
4.00466
4.0248
4.04693
4.07097
4.0969
4.12464
4.15418
4.18549
4.21853
4.25328
4.28973
4.32785
4.36764
4.4091
4.45223
4.49703
4.54353
4.59174
4.64165
4.6933
4.74669
4.80184
4.85879
4.91757
4.9782
5.04073
5.10518
5.17159
5.24001
5.3105
5.38312
5.4579
5.53492
5.61422
5.69586
5.77994
5.86649
5.95562
6.04741
6.14194
6.23931
6.33963
6.44301
6.54956
6.65941
6.77267
6.88951
7.01003
7.13443
7.26287
7.39553
7.53262
7.67435
7.82096
7.97268
8.12979
8.29258
8.46137
8.63648
8.81831
9.00723
9.20371
9.40823
9.62135
9.8436
10.0728
10.3114
10.5663
10.8397
11.1339
11.4519
11.7968
12.1726
12.5842
13.0376
13.5404
14.1019
14.7346
15.4548
16.2843
17.2547
18.4073
19.8177
21.5631
23.9191
26.9158
32.3689
38.4776
63.3961
3.92881
3.93115
3.93698
3.94581
3.95713
3.97075
3.98661
4.00466
4.0248
4.04693
4.07097
4.0969
4.12464
4.15418
4.18549
4.21853
4.25328
4.28973
4.32785
4.36764
4.4091
4.45223
4.49703
4.54353
4.59174
4.64165
4.6933
4.74669
4.80184
4.85879
4.91757
4.9782
5.04073
5.10518
5.17159
5.24001
5.3105
5.38311
5.4579
5.53491
5.61422
5.69586
5.77993
5.86649
5.95562
6.0474
6.14193
6.23931
6.33963
6.443
6.54955
6.6594
6.77266
6.8895
7.01002
7.13442
7.26286
7.39552
7.53261
7.67434
7.82094
7.97267
8.12977
8.29256
8.46135
8.63645
8.81828
9.0072
9.20368
9.4082
9.62131
9.84355
10.0727
10.3114
10.5663
10.8396
11.1339
11.4518
11.7967
12.1725
12.5841
13.0374
13.5401
14.1016
14.7342
15.4544
16.2837
17.254
18.4063
19.8163
21.561
23.9152
26.9098
32.3443
38.4292
62.6544
3.92881
3.93115
3.93698
3.94581
3.95713
3.97075
3.98661
4.00466
4.0248
4.04693
4.07097
4.0969
4.12464
4.15418
4.18549
4.21853
4.25328
4.28972
4.32785
4.36764
4.4091
4.45223
4.49703
4.54353
4.59174
4.64165
4.6933
4.74668
4.80184
4.85879
4.91757
4.9782
5.04073
5.10517
5.17159
5.24001
5.3105
5.38311
5.4579
5.53491
5.61422
5.69586
5.77993
5.86648
5.95562
6.0474
6.14193
6.2393
6.33962
6.443
6.54955
6.6594
6.77266
6.88949
7.01001
7.13441
7.26285
7.39551
7.5326
7.67433
7.82092
7.97265
8.12975
8.29254
8.46132
8.63643
8.81825
9.00717
9.20364
9.40816
9.62127
9.8435
10.0727
10.3113
10.5662
10.8395
11.1338
11.4517
11.7966
12.1723
12.5839
13.0372
13.5399
14.1013
14.7339
15.4539
16.2831
17.2532
18.4052
19.8147
21.5586
23.9108
26.9031
32.3174
38.3767
61.9142
3.92881
3.93115
3.93698
3.94581
3.95713
3.97075
3.98661
4.00466
4.0248
4.04693
4.07097
4.0969
4.12464
4.15418
4.18549
4.21852
4.25328
4.28972
4.32785
4.36764
4.4091
4.45223
4.49703
4.54353
4.59173
4.64165
4.6933
4.74668
4.80184
4.85879
4.91757
4.9782
5.04073
5.10517
5.17159
5.24001
5.3105
5.38311
5.4579
5.53491
5.61421
5.69586
5.77993
5.86648
5.95561
6.0474
6.14192
6.2393
6.33961
6.44299
6.54954
6.65939
6.77265
6.88948
7.01
7.1344
7.26283
7.39549
7.53258
7.67431
7.82091
7.97263
8.12973
8.29252
8.4613
8.6364
8.81822
9.00713
9.2036
9.40811
9.62122
9.84345
10.0726
10.3112
10.5661
10.8394
11.1337
11.4516
11.7964
12.1722
12.5837
13.037
13.5396
14.101
14.7335
15.4534
16.2825
17.2523
18.404
19.8129
21.556
23.906
26.8957
32.288
38.32
61.1756
3.92881
3.93115
3.93698
3.94581
3.95713
3.97075
3.98661
4.00466
4.0248
4.04693
4.07097
4.0969
4.12464
4.15418
4.18549
4.21852
4.25328
4.28972
4.32785
4.36764
4.4091
4.45222
4.49703
4.54353
4.59173
4.64165
4.6933
4.74668
4.80184
4.85879
4.91756
4.9782
5.04073
5.10517
5.17158
5.24001
5.3105
5.38311
5.45789
5.5349
5.61421
5.69585
5.77992
5.86648
5.95561
6.04739
6.14192
6.23929
6.33961
6.44298
6.54953
6.65938
6.77264
6.88947
7.00999
7.13439
7.26282
7.39548
7.53256
7.67429
7.82089
7.97261
8.12971
8.29249
8.46127
8.63637
8.81818
9.00709
9.20356
9.40806
9.62116
9.84339
10.0726
10.3112
10.566
10.8393
11.1336
11.4515
11.7963
12.172
12.5835
13.0368
13.5393
14.1006
14.733
15.4528
16.2817
17.2513
18.4027
19.811
21.5532
23.9007
26.8876
32.2563
38.2589
60.439
3.92881
3.93115
3.93698
3.94581
3.95713
3.97075
3.98661
4.00466
4.0248
4.04693
4.07097
4.09689
4.12464
4.15418
4.18549
4.21852
4.25328
4.28972
4.32785
4.36764
4.40909
4.45222
4.49703
4.54353
4.59173
4.64165
4.6933
4.74668
4.80184
4.85879
4.91756
4.9782
5.04073
5.10517
5.17158
5.24
5.31049
5.3831
5.45789
5.5349
5.61421
5.69585
5.77992
5.86647
5.9556
6.04738
6.14191
6.23928
6.3396
6.44298
6.54952
6.65937
6.77263
6.88946
7.00998
7.13438
7.26281
7.39546
7.53255
7.67427
7.82087
7.97258
8.12968
8.29246
8.46124
8.63633
8.81814
9.00705
9.20351
9.40801
9.6211
9.84332
10.0725
10.3111
10.5659
10.8392
11.1334
11.4513
11.7961
12.1718
12.5833
13.0365
13.539
14.1002
14.7325
15.4522
16.2809
17.2502
18.4012
19.8089
21.55
23.8949
26.8786
32.222
38.1934
59.7047
3.92881
3.93115
3.93697
3.94581
3.95712
3.97075
3.98661
4.00466
4.02479
4.04693
4.07097
4.09689
4.12464
4.15418
4.18548
4.21852
4.25328
4.28972
4.32784
4.36764
4.40909
4.45222
4.49703
4.54353
4.59173
4.64165
4.6933
4.74668
4.80184
4.85878
4.91756
4.9782
5.04072
5.10517
5.17158
5.24
5.31049
5.3831
5.45789
5.5349
5.6142
5.69584
5.77991
5.86647
5.9556
6.04738
6.14191
6.23928
6.33959
6.44297
6.54951
6.65936
6.77262
6.88945
7.00997
7.13436
7.26279
7.39545
7.53253
7.67425
7.82084
7.97256
8.12965
8.29243
8.4612
8.63629
8.8181
9.007
9.20346
9.40795
9.62103
9.84324
10.0724
10.311
10.5658
10.8391
11.1333
11.4512
11.7959
12.1716
12.583
13.0362
13.5387
14.0998
14.732
15.4515
16.2801
17.2491
18.3996
19.8065
21.5466
23.8886
26.8688
32.1853
38.1233
58.9728
3.92881
3.93115
3.93697
3.94581
3.95712
3.97075
3.98661
4.00466
4.02479
4.04692
4.07097
4.09689
4.12464
4.15418
4.18548
4.21852
4.25328
4.28972
4.32784
4.36764
4.40909
4.45222
4.49702
4.54352
4.59173
4.64165
4.6933
4.74668
4.80183
4.85878
4.91756
4.97819
5.04072
5.10516
5.17158
5.24
5.31049
5.3831
5.45788
5.53489
5.6142
5.69584
5.77991
5.86646
5.95559
6.04737
6.1419
6.23927
6.33958
6.44296
6.5495
6.65935
6.77261
6.88943
7.00995
7.13434
7.26277
7.39543
7.53251
7.67423
7.82082
7.97253
8.12962
8.29239
8.46116
8.63625
8.81805
9.00695
9.2034
9.40788
9.62096
9.84316
10.0723
10.3109
10.5657
10.839
11.1331
11.451
11.7957
12.1714
12.5828
13.0359
13.5383
14.0993
14.7314
15.4508
16.2791
17.2478
18.3979
19.804
21.5429
23.8817
26.8582
32.1459
38.0487
58.2437
3.92881
3.93115
3.93697
3.9458
3.95712
3.97074
3.98661
4.00466
4.02479
4.04692
4.07097
4.09689
4.12464
4.15418
4.18548
4.21852
4.25327
4.28972
4.32784
4.36764
4.40909
4.45222
4.49702
4.54352
4.59173
4.64164
4.6933
4.74668
4.80183
4.85878
4.91756
4.97819
5.04072
5.10516
5.17157
5.24
5.31048
5.38309
5.45788
5.53489
5.61419
5.69583
5.7799
5.86646
5.95558
6.04736
6.14189
6.23926
6.33958
6.44295
6.54949
6.65934
6.77259
6.88942
7.00994
7.13433
7.26275
7.39541
7.53248
7.6742
7.82079
7.9725
8.12959
8.29236
8.46112
8.6362
8.818
9.00689
9.20334
9.40781
9.62088
9.84308
10.0722
10.3108
10.5656
10.8388
11.133
11.4508
11.7955
12.1711
12.5825
13.0355
13.5379
14.0988
14.7308
15.45
16.2781
17.2465
18.396
19.8013
21.5388
23.8743
26.8466
32.104
37.9693
57.5176
3.92881
3.93115
3.93697
3.9458
3.95712
3.97074
3.98661
4.00466
4.02479
4.04692
4.07097
4.09689
4.12464
4.15418
4.18548
4.21852
4.25327
4.28972
4.32784
4.36764
4.40909
4.45222
4.49702
4.54352
4.59173
4.64164
4.69329
4.74667
4.80183
4.85878
4.91755
4.97819
5.04072
5.10516
5.17157
5.23999
5.31048
5.38309
5.45787
5.53488
5.61419
5.69583
5.7799
5.86645
5.95558
6.04736
6.14188
6.23925
6.33957
6.44294
6.54948
6.65932
6.77258
6.8894
7.00992
7.13431
7.26273
7.39538
7.53246
7.67418
7.82076
7.97246
8.12955
8.29232
8.46108
8.63615
8.81795
9.00683
9.20327
9.40774
9.6208
9.84298
10.0721
10.3106
10.5654
10.8387
11.1328
11.4506
11.7953
12.1709
12.5822
13.0352
13.5374
14.0983
14.7301
15.4492
16.277
17.245
18.394
19.7983
21.5345
23.8663
26.8341
32.0594
37.8853
56.7947
3.9288
3.93115
3.93697
3.9458
3.95712
3.97074
3.98661
4.00466
4.02479
4.04692
4.07097
4.09689
4.12464
4.15418
4.18548
4.21852
4.25327
4.28972
4.32784
4.36764
4.40909
4.45222
4.49702
4.54352
4.59173
4.64164
4.69329
4.74667
4.80183
4.85878
4.91755
4.97819
5.04071
5.10515
5.17157
5.23999
5.31048
5.38309
5.45787
5.53488
5.61418
5.69582
5.77989
5.86644
5.95557
6.04735
6.14187
6.23924
6.33955
6.44293
6.54947
6.65931
6.77256
6.88939
7.0099
7.13429
7.26271
7.39536
7.53243
7.67415
7.82073
7.97243
8.12951
8.29227
8.46103
8.6361
8.81789
9.00676
9.2032
9.40766
9.62071
9.84288
10.072
10.3105
10.5653
10.8385
11.1326
11.4504
11.7951
12.1706
12.5818
13.0348
13.5369
14.0977
14.7294
15.4482
16.2758
17.2434
18.3918
19.7951
21.5298
23.8577
26.8206
32.0121
37.7964
56.0754
3.9288
3.93115
3.93697
3.9458
3.95712
3.97074
3.98661
4.00466
4.02479
4.04692
4.07097
4.09689
4.12464
4.15418
4.18548
4.21852
4.25327
4.28972
4.32784
4.36764
4.40909
4.45222
4.49702
4.54352
4.59172
4.64164
4.69329
4.74667
4.80183
4.85877
4.91755
4.97818
5.04071
5.10515
5.17156
5.23998
5.31047
5.38308
5.45786
5.53487
5.61418
5.69582
5.77988
5.86643
5.95556
6.04734
6.14186
6.23923
6.33954
6.44291
6.54945
6.65929
6.77255
6.88937
7.00988
7.13427
7.26269
7.39533
7.5324
7.67412
7.82069
7.97239
8.12947
8.29223
8.46098
8.63604
8.81783
9.00669
9.20312
9.40757
9.62061
9.84277
10.0719
10.3104
10.5651
10.8383
11.1324
11.4502
11.7948
12.1703
12.5815
13.0343
13.5364
14.097
14.7286
15.4472
16.2745
17.2417
18.3895
19.7917
21.5247
23.8485
26.806
31.9622
37.7025
55.3598
3.9288
3.93115
3.93697
3.9458
3.95712
3.97074
3.98661
4.00466
4.02479
4.04692
4.07097
4.09689
4.12463
4.15418
4.18548
4.21852
4.25327
4.28972
4.32784
4.36763
4.40909
4.45222
4.49702
4.54352
4.59172
4.64164
4.69329
4.74667
4.80182
4.85877
4.91755
4.97818
5.04071
5.10515
5.17156
5.23998
5.31047
5.38308
5.45786
5.53487
5.61417
5.69581
5.77988
5.86643
5.95555
6.04733
6.14185
6.23922
6.33953
6.4429
6.54944
6.65928
6.77253
6.88935
7.00986
7.13424
7.26266
7.3953
7.53237
7.67408
7.82065
7.97235
8.12942
8.29218
8.46092
8.63598
8.81776
9.00662
9.20303
9.40747
9.6205
9.84265
10.0717
10.3102
10.565
10.8381
11.1322
11.4499
11.7945
12.1699
12.5811
13.0339
13.5358
14.0964
14.7277
15.4462
16.2731
17.2398
18.3869
19.788
21.5192
23.8386
26.7904
31.9094
37.6038
54.6482
3.9288
3.93115
3.93697
3.9458
3.95712
3.97074
3.98661
4.00466
4.02479
4.04692
4.07097
4.09689
4.12463
4.15418
4.18548
4.21852
4.25327
4.28972
4.32784
4.36763
4.40909
4.45221
4.49702
4.54352
4.59172
4.64164
4.69329
4.74667
4.80182
4.85877
4.91754
4.97818
5.0407
5.10514
5.17156
5.23998
5.31046
5.38307
5.45785
5.53486
5.61416
5.6958
5.77987
5.86642
5.95554
6.04732
6.14184
6.23921
6.33952
6.44288
6.54942
6.65926
6.77251
6.88933
7.00984
7.13422
7.26263
7.39527
7.53234
7.67404
7.82061
7.9723
8.12937
8.29212
8.46086
8.63592
8.81768
9.00653
9.20294
9.40737
9.62039
9.84252
10.0716
10.3101
10.5648
10.8379
11.132
11.4497
11.7942
12.1696
12.5806
13.0334
13.5352
14.0956
14.7268
15.445
16.2716
17.2379
18.3842
19.784
21.5134
23.828
26.7736
31.8539
37.5
53.9408
3.9288
3.93115
3.93697
3.9458
3.95712
3.97074
3.98661
4.00465
4.02479
4.04692
4.07097
4.09689
4.12463
4.15417
4.18548
4.21852
4.25327
4.28971
4.32784
4.36763
4.40908
4.45221
4.49701
4.54351
4.59172
4.64163
4.69328
4.74666
4.80182
4.85876
4.91754
4.97817
5.0407
5.10514
5.17155
5.23997
5.31046
5.38307
5.45785
5.53486
5.61416
5.69579
5.77986
5.86641
5.95553
6.04731
6.14183
6.23919
6.3395
6.44287
6.54941
6.65924
6.77249
6.88931
7.00981
7.13419
7.2626
7.39524
7.5323
7.67401
7.82057
7.97226
8.12932
8.29206
8.4608
8.63584
8.81761
9.00645
9.20284
9.40726
9.62027
9.84239
10.0714
10.3099
10.5646
10.8377
11.1317
11.4494
11.7939
12.1692
12.5802
13.0328
13.5346
14.0948
14.7259
15.4438
16.2701
17.2357
18.3813
19.7798
21.5072
23.8168
26.7556
31.7956
37.3912
53.2378
3.9288
3.93115
3.93697
3.9458
3.95712
3.97074
3.98661
4.00465
4.02479
4.04692
4.07097
4.09689
4.12463
4.15417
4.18548
4.21851
4.25327
4.28971
4.32783
4.36763
4.40908
4.45221
4.49701
4.54351
4.59172
4.64163
4.69328
4.74666
4.80181
4.85876
4.91754
4.97817
5.0407
5.10514
5.17155
5.23997
5.31045
5.38306
5.45784
5.53485
5.61415
5.69579
5.77985
5.8664
5.95552
6.0473
6.14182
6.23918
6.33949
6.44285
6.54939
6.65922
6.77247
6.88928
7.00979
7.13416
7.26257
7.39521
7.53227
7.67396
7.82052
7.97221
8.12927
8.292
8.46073
8.63577
8.81752
9.00635
9.20274
9.40715
9.62014
9.84224
10.0713
10.3097
10.5644
10.8375
11.1315
11.4491
11.7935
12.1688
12.5797
13.0322
13.5339
14.094
14.7248
15.4425
16.2684
17.2335
18.3783
19.7753
21.5005
23.8048
26.7364
31.7344
37.2772
52.5395
3.9288
3.93115
3.93697
3.9458
3.95712
3.97074
3.9866
4.00465
4.02479
4.04692
4.07096
4.09689
4.12463
4.15417
4.18548
4.21851
4.25327
4.28971
4.32783
4.36763
4.40908
4.45221
4.49701
4.54351
4.59171
4.64163
4.69328
4.74666
4.80181
4.85876
4.91753
4.97817
5.04069
5.10513
5.17154
5.23996
5.31045
5.38305
5.45783
5.53484
5.61414
5.69578
5.77984
5.86639
5.95551
6.04728
6.1418
6.23916
6.33947
6.44283
6.54937
6.6592
6.77244
6.88926
7.00976
7.13413
7.26254
7.39517
7.53222
7.67392
7.82048
7.97215
8.12921
8.29194
8.46066
8.63569
8.81743
9.00625
9.20263
9.40702
9.62
9.84209
10.0711
10.3095
10.5642
10.8372
11.1312
11.4488
11.7931
12.1683
12.5792
13.0316
13.5332
14.0931
14.7237
15.4411
16.2665
17.2311
18.375
19.7705
21.4934
23.792
26.7159
31.6703
37.1581
51.8461
3.9288
3.93115
3.93697
3.9458
3.95712
3.97074
3.9866
4.00465
4.02479
4.04692
4.07096
4.09689
4.12463
4.15417
4.18547
4.21851
4.25326
4.28971
4.32783
4.36763
4.40908
4.45221
4.49701
4.54351
4.59171
4.64163
4.69328
4.74665
4.80181
4.85875
4.91753
4.97816
5.04069
5.10513
5.17154
5.23995
5.31044
5.38305
5.45783
5.53483
5.61413
5.69577
5.77983
5.86638
5.9555
6.04727
6.14179
6.23915
6.33945
6.44281
6.54935
6.65918
6.77242
6.88923
7.00973
7.1341
7.2625
7.39513
7.53218
7.67387
7.82042
7.97209
8.12914
8.29187
8.46058
8.6356
8.81734
9.00615
9.20251
9.40689
9.61985
9.84192
10.0709
10.3093
10.5639
10.837
11.1309
11.4484
11.7927
12.1679
12.5786
13.031
13.5324
14.0921
14.7225
15.4396
16.2646
17.2285
18.3715
19.7654
21.4859
23.7785
26.6941
31.6033
37.0338
51.1578
3.9288
3.93114
3.93697
3.9458
3.95712
3.97074
3.9866
4.00465
4.02479
4.04692
4.07096
4.09688
4.12463
4.15417
4.18547
4.21851
4.25326
4.28971
4.32783
4.36762
4.40908
4.4522
4.49701
4.5435
4.59171
4.64162
4.69327
4.74665
4.8018
4.85875
4.91752
4.97816
5.04068
5.10512
5.17153
5.23995
5.31043
5.38304
5.45782
5.53482
5.61412
5.69576
5.77982
5.86636
5.95548
6.04726
6.14177
6.23913
6.33943
6.44279
6.54932
6.65915
6.77239
6.8892
7.0097
7.13406
7.26247
7.39509
7.53214
7.67382
7.82037
7.97203
8.12908
8.29179
8.4605
8.63551
8.81723
9.00603
9.20238
9.40675
9.6197
9.84175
10.0707
10.3091
10.5637
10.8367
11.1306
11.448
11.7923
12.1674
12.5781
13.0303
13.5315
14.0911
14.7213
15.438
16.2626
17.2258
18.3677
19.7599
21.4778
23.7641
26.6709
31.5334
36.9043
50.4748
3.9288
3.93114
3.93697
3.9458
3.95712
3.97074
3.9866
4.00465
4.02479
4.04692
4.07096
4.09688
4.12463
4.15417
4.18547
4.21851
4.25326
4.28971
4.32783
4.36762
4.40907
4.4522
4.497
4.5435
4.59171
4.64162
4.69327
4.74665
4.8018
4.85875
4.91752
4.97815
5.04068
5.10511
5.17152
5.23994
5.31042
5.38303
5.45781
5.53481
5.61411
5.69575
5.77981
5.86635
5.95547
6.04724
6.14176
6.23911
6.33942
6.44277
6.5493
6.65913
6.77236
6.88917
7.00966
7.13403
7.26243
7.39504
7.53209
7.67377
7.82031
7.97197
8.129
8.29171
8.46041
8.63541
8.81713
9.00591
9.20225
9.4066
9.61953
9.84156
10.0705
10.3089
10.5634
10.8364
11.1302
11.4477
11.7919
12.1668
12.5774
13.0296
13.5307
14.09
14.7199
15.4363
16.2604
17.2229
18.3638
19.7542
21.4693
23.7489
26.6463
31.4605
36.7696
49.7972
3.9288
3.93114
3.93697
3.9458
3.95712
3.97074
3.9866
4.00465
4.02478
4.04691
4.07096
4.09688
4.12463
4.15417
4.18547
4.21851
4.25326
4.28971
4.32783
4.36762
4.40907
4.4522
4.497
4.5435
4.5917
4.64162
4.69327
4.74664
4.8018
4.85874
4.91752
4.97815
5.04067
5.10511
5.17152
5.23993
5.31042
5.38302
5.4578
5.5348
5.6141
5.69573
5.7798
5.86634
5.95545
6.04723
6.14174
6.23909
6.33939
6.44275
6.54928
6.6591
6.77234
6.88914
7.00963
7.13399
7.26238
7.395
7.53204
7.67371
7.82025
7.9719
8.12893
8.29163
8.46031
8.63531
8.81701
9.00579
9.20211
9.40644
9.61935
9.84136
10.0703
10.3086
10.5631
10.8361
11.1298
11.4472
11.7914
12.1663
12.5768
13.0288
13.5297
14.0889
14.7185
15.4345
16.2581
17.2198
18.3595
19.748
21.4602
23.7329
26.6202
31.3846
36.6297
49.1253
3.9288
3.93114
3.93696
3.9458
3.95711
3.97074
3.9866
4.00465
4.02478
4.04691
4.07096
4.09688
4.12462
4.15417
4.18547
4.21851
4.25326
4.2897
4.32782
4.36762
4.40907
4.4522
4.497
4.5435
4.5917
4.64161
4.69326
4.74664
4.80179
4.85874
4.91751
4.97814
5.04067
5.1051
5.17151
5.23993
5.31041
5.38301
5.45779
5.53479
5.61409
5.69572
5.77978
5.86632
5.95544
6.04721
6.14172
6.23907
6.33937
6.44273
6.54925
6.65907
6.7723
6.8891
7.00959
7.13395
7.26234
7.39495
7.53198
7.67365
7.82018
7.97183
8.12885
8.29154
8.46021
8.6352
8.81689
9.00565
9.20196
9.40627
9.61916
9.84115
10.07
10.3083
10.5629
10.8357
11.1295
11.4468
11.7909
12.1657
12.5761
13.0279
13.5287
14.0877
14.717
15.4326
16.2556
17.2165
18.3551
19.7415
21.4506
23.7159
26.5926
31.3057
36.4845
48.4593
3.9288
3.93114
3.93696
3.94579
3.95711
3.97073
3.9866
4.00465
4.02478
4.04691
4.07096
4.09688
4.12462
4.15416
4.18547
4.2185
4.25326
4.2897
4.32782
4.36762
4.40907
4.45219
4.497
4.54349
4.5917
4.64161
4.69326
4.74664
4.80179
4.85873
4.91751
4.97813
5.04066
5.1051
5.1715
5.23992
5.3104
5.383
5.45778
5.53478
5.61408
5.69571
5.77977
5.86631
5.95542
6.04719
6.1417
6.23905
6.33935
6.4427
6.54922
6.65904
6.77227
6.88907
7.00955
7.1339
7.26229
7.39489
7.53192
7.67359
7.82011
7.97175
8.12876
8.29144
8.46011
8.63508
8.81676
9.00551
9.2018
9.4061
9.61897
9.84093
10.0698
10.3081
10.5625
10.8354
11.1291
11.4463
11.7903
12.165
12.5753
13.0271
13.5277
14.0864
14.7154
15.4306
16.253
17.2131
18.3504
19.7347
21.4405
23.698
26.5634
31.2238
36.3341
47.7993
3.92879
3.93114
3.93696
3.94579
3.95711
3.97073
3.9866
4.00465
4.02478
4.04691
4.07096
4.09688
4.12462
4.15416
4.18547
4.2185
4.25325
4.2897
4.32782
4.36761
4.40906
4.45219
4.49699
4.54349
4.59169
4.64161
4.69325
4.74663
4.80178
4.85873
4.9175
4.97813
5.04065
5.10509
5.1715
5.23991
5.31039
5.38299
5.45777
5.53477
5.61407
5.6957
5.77975
5.86629
5.9554
6.04717
6.14168
6.23903
6.33932
6.44267
6.54919
6.65901
6.77223
6.88903
7.00951
7.13386
7.26224
7.39484
7.53186
7.67352
7.82003
7.97166
8.12867
8.29134
8.46
8.63496
8.81662
9.00535
9.20163
9.40591
9.61875
9.8407
10.0695
10.3078
10.5622
10.835
11.1286
11.4458
11.7897
12.1644
12.5745
13.0261
13.5265
14.085
14.7137
15.4284
16.2503
17.2094
18.3454
19.7274
21.4297
23.6792
26.5326
31.1388
36.1784
47.1454
3.92879
3.93114
3.93696
3.94579
3.95711
3.97073
3.9866
4.00464
4.02478
4.04691
4.07095
4.09688
4.12462
4.15416
4.18546
4.2185
4.25325
4.2897
4.32782
4.36761
4.40906
4.45219
4.49699
4.54349
4.59169
4.6416
4.69325
4.74663
4.80178
4.85872
4.91749
4.97812
5.04065
5.10508
5.17149
5.2399
5.31038
5.38298
5.45776
5.53476
5.61405
5.69568
5.77974
5.86627
5.95539
6.04715
6.14166
6.239
6.3393
6.44264
6.54916
6.65898
6.7722
6.88899
7.00946
7.13381
7.26218
7.39478
7.53179
7.67345
7.81995
7.97158
8.12857
8.29123
8.45988
8.63483
8.81648
9.00519
9.20145
9.40571
9.61853
9.84045
10.0693
10.3075
10.5618
10.8346
11.1282
11.4453
11.7891
12.1637
12.5737
13.0251
13.5253
14.0836
14.7119
15.4262
16.2473
17.2055
18.3401
19.7198
21.4184
23.6593
26.5001
31.0507
36.0176
46.4978
3.92879
3.93114
3.93696
3.94579
3.95711
3.97073
3.98659
4.00464
4.02478
4.04691
4.07095
4.09687
4.12462
4.15416
4.18546
4.2185
4.25325
4.28969
4.32781
4.36761
4.40906
4.45219
4.49699
4.54348
4.59168
4.6416
4.69324
4.74662
4.80177
4.85872
4.91749
4.97812
5.04064
5.10507
5.17148
5.23989
5.31037
5.38297
5.45775
5.53475
5.61404
5.69567
5.77972
5.86626
5.95537
6.04713
6.14163
6.23898
6.33927
6.44261
6.54913
6.65894
6.77216
6.88894
7.00942
7.13375
7.26213
7.39472
7.53173
7.67337
7.81987
7.97148
8.12847
8.29112
8.45975
8.63469
8.81632
9.00502
9.20126
9.4055
9.61829
9.84018
10.069
10.3071
10.5615
10.8342
11.1277
11.4448
11.7885
12.1629
12.5728
13.0241
13.5241
14.0821
14.71
15.4238
16.2443
17.2015
18.3345
19.7117
21.4064
23.6384
26.4658
30.9595
35.8515
45.8567
3.92879
3.93114
3.93696
3.94579
3.95711
3.97073
3.98659
4.00464
4.02478
4.04691
4.07095
4.09687
4.12462
4.15416
4.18546
4.2185
4.25325
4.28969
4.32781
4.36761
4.40906
4.45218
4.49698
4.54348
4.59168
4.64159
4.69324
4.74662
4.80177
4.85871
4.91748
4.97811
5.04063
5.10506
5.17147
5.23988
5.31036
5.38296
5.45773
5.53473
5.61402
5.69565
5.7797
5.86624
5.95535
6.04711
6.14161
6.23895
6.33924
6.44258
6.54909
6.6589
6.77212
6.8889
7.00937
7.1337
7.26207
7.39465
7.53165
7.67329
7.81978
7.97139
8.12836
8.291
8.45962
8.63454
8.81616
9.00484
9.20106
9.40527
9.61805
9.8399
10.0686
10.3068
10.5611
10.8337
11.1272
11.4442
11.7878
12.1621
12.5719
13.023
13.5228
14.0804
14.708
15.4213
16.241
17.1971
18.3286
19.7031
21.3938
23.6165
26.4298
30.8653
35.6803
45.2222
3.92879
3.93114
3.93696
3.94579
3.95711
3.97073
3.98659
4.00464
4.02477
4.0469
4.07095
4.09687
4.12461
4.15415
4.18546
4.21849
4.25324
4.28969
4.32781
4.3676
4.40905
4.45218
4.49698
4.54347
4.59168
4.64159
4.69323
4.74661
4.80176
4.8587
4.91747
4.9781
5.04062
5.10506
5.17146
5.23987
5.31035
5.38295
5.45772
5.53472
5.61401
5.69563
5.77968
5.86622
5.95532
6.04708
6.14158
6.23892
6.33921