/*--------------------------------*- C++ -*----------------------------------*\
| =========                 |                                                 |
| \\      /  F ield         | OpenFOAM: The Open Source CFD Toolbox           |
|  \\    /   O peration     | Version:  v2012                                 |
|   \\  /    A nd           | Website:  www.openfoam.com                      |
|    \\/     M anipulation  |                                                 |
\*---------------------------------------------------------------------------*/
FoamFile
{
    version     2.0;
    format      ascii;
    class       volScalarField;
    location    "3";
    object      yPlus;
}
// * * * * * * * * * * * * * * * * * * * * * * * * * * * * * * * * * * * * * //

dimensions      [0 0 0 0 0 0 0];


internalField   uniform 0;

boundaryField
{
    inlet
    {
        type            calculated;
        value           uniform 0;
    }
    outlet
    {
        type            calculated;
        value           uniform 0;
    }
    topWall
    {
        type            calculated;
        value           nonuniform List<scalar> 
545
(
0.038091
0.0665054
0.0851043
0.0998226
0.112257
0.123118
0.1328
0.141548
0.149533
0.156874
0.163664
0.169973
0.175857
0.181363
0.186529
0.191387
0.195965
0.200285
0.204369
0.208235
0.211898
0.215374
0.218675
0.221812
0.224797
0.227638
0.230345
0.232925
0.235386
0.237735
0.239978
0.24212
0.244167
0.246125
0.247997
0.249789
0.251503
0.253145
0.254717
0.256224
0.257668
0.259052
0.260379
0.261652
0.262873
0.264045
0.265169
0.266248
0.267284
0.268279
0.269234
0.270152
0.271034
0.271881
0.272695
0.273477
0.274229
0.274952
0.275646
0.276314
0.276956
0.277573
0.278167
0.278738
0.279286
0.279814
0.280322
0.28081
0.281279
0.28173
0.282164
0.282582
0.282976
0.283355
0.283729
0.284098
0.284462
0.284822
0.285177
0.285527
0.285873
0.286214
0.28655
0.286882
0.28721
0.287533
0.287852
0.288167
0.288478
0.288784
0.289086
0.289384
0.289678
0.289969
0.290254
0.29054
0.29078
0.290992
0.291203
0.291413
0.291622
0.29183
0.292038
0.292245
0.29245
0.292655
0.292859
0.293063
0.293265
0.293466
0.293667
0.293866
0.294065
0.294263
0.29446
0.294656
0.294851
0.295045
0.295238
0.29543
0.295621
0.295812
0.296001
0.296189
0.296376
0.296563
0.296748
0.296933
0.297116
0.297298
0.297479
0.29766
0.297839
0.298017
0.298194
0.29837
0.298545
0.298719
0.298892
0.299064
0.299234
0.299404
0.299572
0.299739
0.299906
0.300071
0.300235
0.300397
0.300559
0.300719
0.300879
0.301037
0.301194
0.301349
0.301504
0.301657
0.30181
0.30196
0.30211
0.302259
0.302406
0.302552
0.302697
0.30284
0.302982
0.303123
0.303263
0.303401
0.303538
0.303674
0.303809
0.303942
0.304073
0.304204
0.304333
0.304461
0.304587
0.304712
0.304836
0.304958
0.305079
0.305199
0.305317
0.305434
0.305549
0.305663
0.305775
0.305886
0.305996
0.306104
0.30621
0.306316
0.306419
0.306521
0.306622
0.306721
0.306819
0.306915
0.30701
0.307103
0.307194
0.307284
0.307373
0.30746
0.307545
0.307629
0.307711
0.307792
0.30787
0.307948
0.308024
0.308098
0.30817
0.308241
0.308311
0.308378
0.308444
0.308509
0.308571
0.308633
0.308692
0.30875
0.308806
0.30886
0.308913
0.308964
0.309013
0.30906
0.309106
0.30915
0.309193
0.309233
0.309272
0.309309
0.309344
0.309378
0.309409
0.309439
0.309467
0.309493
0.309517
0.309539
0.309559
0.309577
0.309594
0.309608
0.30962
0.30963
0.309639
0.309645
0.309649
0.309651
0.30965
0.309648
0.309643
0.309637
0.309628
0.309617
0.309603
0.309588
0.30957
0.30955
0.309528
0.309504
0.309477
0.309448
0.309417
0.309384
0.30935
0.309306
0.309261
0.309215
0.309167
0.309117
0.309066
0.309013
0.308959
0.308903
0.308845
0.308786
0.308724
0.308661
0.308596
0.30853
0.308461
0.30839
0.308317
0.308242
0.308164
0.308085
0.308003
0.307919
0.307832
0.307744
0.307652
0.307558
0.307461
0.307361
0.307258
0.307153
0.307045
0.306933
0.306818
0.306701
0.306579
0.306455
0.306327
0.306195
0.30606
0.305921
0.305778
0.305631
0.30548
0.305325
0.305166
0.305002
0.304834
0.304662
0.304485
0.304303
0.304117
0.303925
0.303729
0.303527
0.30332
0.303108
0.302891
0.302667
0.302438
0.302203
0.301963
0.301716
0.301463
0.301203
0.300938
0.300665
0.300387
0.300101
0.299808
0.299508
0.299202
0.298887
0.298566
0.298236
0.297899
0.297554
0.297201
0.29684
0.296471
0.296093
0.295707
0.295312
0.294908
0.294496
0.294074
0.293643
0.293202
0.292752
0.292293
0.291824
0.291344
0.290855
0.290355
0.289845
0.289325
0.288794
0.288252
0.287699
0.287136
0.286561
0.285974
0.285377
0.284767
0.284146
0.283514
0.282869
0.282212
0.281543
0.280861
0.280167
0.279461
0.278742
0.27801
0.277265
0.276507
0.275736
0.274952
0.274155
0.273344
0.27252
0.271682
0.270831
0.269966
0.269087
0.268195
0.267288
0.266368
0.265434
0.264485
0.263523
0.262546
0.261555
0.26055
0.259531
0.258498
0.25745
0.256389
0.255313
0.254224
0.253119
0.252002
0.25087
0.249724
0.248564
0.24739
0.246203
0.245002
0.243787
0.242559
0.241317
0.240063
0.238795
0.237514
0.23622
0.234913
0.233594
0.232263
0.230919
0.229564
0.228196
0.226817
0.225427
0.224026
0.222613
0.22119
0.219757
0.218313
0.21686
0.215397
0.213925
0.212443
0.210953
0.209454
0.207948
0.206433
0.204912
0.203383
0.201847
0.200306
0.198758
0.197031
0.195152
0.193296
0.191458
0.189639
0.187839
0.186058
0.184296
0.182553
0.18083
0.179128
0.177444
0.175781
0.174138
0.172514
0.170912
0.169329
0.167768
0.166226
0.164705
0.163204
0.161724
0.160263
0.158824
0.157405
0.156006
0.15463
0.153271
0.151932
0.150614
0.149315
0.148035
0.146777
0.14554
0.144323
0.143127
0.14195
0.140794
0.139657
0.13854
0.137443
0.136365
0.135307
0.134269
0.13325
0.13225
0.131269
0.130309
0.129366
0.128444
0.127538
0.126653
0.125788
0.124943
0.124116
0.123309
0.122521
0.121752
0.121001
0.12027
0.119557
0.118863
0.118188
0.117531
0.116893
0.116274
0.115673
0.115092
0.114528
0.113984
0.113458
0.112951
0.112462
0.111992
0.111541
0.111108
0.110694
0.110299
0.109921
0.109563
0.109222
0.108901
0.108599
0.108316
0.108052
0.107807
0.10758
0.107373
0.107184
0.107015
0.106863
0.106732
0.106615
0.106531
0.106409
)
;
    }
    bottomWall
    {
        type            calculated;
        value           nonuniform List<scalar> 
449
(
0.139389
0.0894196
0.0774043
0.0726375
0.0702108
0.0687654
0.0677872
0.0670712
0.0665239
0.0660945
0.0657519
0.0654747
0.065248
0.0650605
0.0649039
0.064772
0.0646599
0.064564
0.0644815
0.0644101
0.0643479
0.0642934
0.0642456
0.0642034
0.0641661
0.0641329
0.0641033
0.0640768
0.064053
0.0640316
0.0640123
0.0639949
0.0639791
0.0639647
0.0639516
0.0639397
0.0639288
0.0639188
0.0639096
0.0639012
0.0638935
0.0638863
0.0638797
0.0638736
0.0638679
0.0638626
0.0638577
0.0638532
0.063849
0.063845
0.0638413
0.0638379
0.0638347
0.0638317
0.0638288
0.0638261
0.0638236
0.0638212
0.063819
0.0638169
0.0638149
0.063813
0.0638112
0.0638095
0.0638078
0.0638063
0.0638049
0.0638034
0.0638021
0.0638009
0.0637996
0.0637985
0.0637974
0.0637963
0.0637952
0.0637943
0.0637933
0.0637924
0.0637915
0.0637906
0.0637898
0.063789
0.0637883
0.0637875
0.0637868
0.0637861
0.0637854
0.0637847
0.0637841
0.0637835
0.0637829
0.0637823
0.0637817
0.0637811
0.0637806
0.06378
0.0637795
0.063779
0.0637784
0.0637779
0.0637775
0.063777
0.0637765
0.063776
0.0637756
0.0637752
0.0637747
0.0637743
0.0637738
0.0637734
0.063773
0.0637726
0.0637722
0.0637718
0.0637714
0.063771
0.0637706
0.0637702
0.0637698
0.0637694
0.0637691
0.0637687
0.0637683
0.063768
0.0637676
0.0637673
0.0637669
0.0637665
0.0637662
0.0637659
0.0637655
0.0637652
0.0637648
0.0637645
0.0637642
0.0637638
0.0637635
0.0637632
0.0637628
0.0637625
0.0637622
0.0637619
0.0637616
0.0637612
0.0637609
0.0637606
0.0637603
0.06376
0.0637597
0.0637594
0.0637591
0.0637588
0.0637584
0.0637581
0.0637578
0.0637575
0.0637572
0.0637569
0.0637566
0.0637563
0.0637561
0.0637558
0.0637555
0.0637552
0.0637549
0.0637546
0.0637543
0.0637541
0.0637538
0.0637536
0.0637533
0.0637533
0.0637529
0.0637536
0.0637546
0.0637559
0.0637568
0.0637573
0.0637574
0.0637572
0.0637569
0.0637564
0.0637558
0.0637551
0.0637543
0.0637535
0.0637526
0.0637517
0.0637508
0.0637498
0.0637488
0.0637478
0.0637468
0.0637457
0.0637446
0.0637436
0.0637425
0.0637414
0.0637404
0.0637393
0.0637382
0.0637372
0.0637361
0.063735
0.063734
0.0637329
0.0637319
0.0637308
0.0637298
0.0637288
0.0637277
0.0637267
0.0637257
0.0637247
0.0637237
0.0637227
0.0637217
0.0637208
0.0637198
0.0637189
0.0637179
0.063717
0.0637161
0.0637152
0.0637142
0.0637134
0.0637125
0.0637116
0.0637107
0.0637099
0.063709
0.0637082
0.0637073
0.0637065
0.0637057
0.0637049
0.0637041
0.0637033
0.0637025
0.0637017
0.063701
0.0637002
0.0636994
0.0636987
0.063698
0.0636972
0.0636965
0.0636958
0.0636951
0.0636944
0.0636937
0.0636931
0.0636924
0.0636917
0.0636911
0.0636904
0.0636898
0.0636891
0.0636885
0.0636879
0.0636873
0.0636867
0.0636861
0.0636855
0.0636849
0.0636843
0.0636838
0.0636832
0.0636826
0.0636821
0.0636815
0.063681
0.0636805
0.0636799
0.0636794
0.0636789
0.0636784
0.0636779
0.0636774
0.0636769
0.0636764
0.0636759
0.0636754
0.063675
0.0636745
0.063674
0.0636736
0.0636731
0.0636727
0.0636722
0.0636718
0.0636714
0.0636709
0.0636705
0.0636701
0.0636697
0.0636693
0.0636689
0.0636685
0.0636681
0.0636677
0.0636673
0.0636669
0.0636666
0.0636662
0.0636658
0.0636655
0.0636651
0.0636648
0.0636644
0.0636641
0.0636637
0.0636634
0.063663
0.0636627
0.0636624
0.0636621
0.0636617
0.0636614
0.0636611
0.0636608
0.0636605
0.0636602
0.0636599
0.0636596
0.0636593
0.063659
0.0636587
0.0636584
0.0636581
0.0636579
0.0636576
0.0636573
0.0636571
0.0636568
0.0636565
0.0636563
0.063656
0.0636558
0.0636555
0.0636553
0.063655
0.0636548
0.0636545
0.0636543
0.0636541
0.0636538
0.0636536
0.0636534
0.0636531
0.0636529
0.0636527
0.0636524
0.0636523
0.0636504
0.0636493
0.0636488
0.0636486
0.0636485
0.0636484
0.0636484
0.0636484
0.0636484
0.0636483
0.0636483
0.0636483
0.0636483
0.0636483
0.0636483
0.0636483
0.0636483
0.0636483
0.0636483
0.0636483
0.0636483
0.0636483
0.0636483
0.0636483
0.0636483
0.0636483
0.0636483
0.0636483
0.0636483
0.0636483
0.0636483
0.0636483
0.0636483
0.0636483
0.0636483
0.0636483
0.0636483
0.0636483
0.0636483
0.0636483
0.0636483
0.0636483
0.0636483
0.0636483
0.0636483
0.0636483
0.0636483
0.0636483
0.0636483
0.0636483
0.0636483
0.0636483
0.0636483
0.0636483
0.0636483
0.0636483
0.0636483
0.0636483
0.0636483
0.0636483
0.0636483
0.0636483
0.0636483
0.0636483
0.0636483
0.0636483
0.0636483
0.0636483
0.0636483
0.0636483
0.0636483
0.0636483
0.0636483
0.0636483
0.0636483
0.0636483
0.0636483
0.0636483
0.0636483
0.0636483
0.0636483
0.0636483
0.0636483
0.0636483
0.0636483
0.0636483
0.0636483
0.0636483
0.0636483
0.0636483
0.0636483
0.0636483
0.0636483
0.0636483
0.0636483
)
;
    }
    symmetry
    {
        type            symmetryPlane;
    }
    frontAndBack
    {
        type            empty;
    }
}


// ************************************************************************* //
