/*--------------------------------*- C++ -*----------------------------------*\
| =========                 |                                                 |
| \\      /  F ield         | OpenFOAM: The Open Source CFD Toolbox           |
|  \\    /   O peration     | Version:  v2012                                 |
|   \\  /    A nd           | Website:  www.openfoam.com                      |
|    \\/     M anipulation  |                                                 |
\*---------------------------------------------------------------------------*/
FoamFile
{
    version     2.0;
    format      ascii;
    class       volScalarField;
    location    "19.5";
    object      k;
}
// * * * * * * * * * * * * * * * * * * * * * * * * * * * * * * * * * * * * * //

dimensions      [0 2 -2 0 0 0 0];


internalField   nonuniform List<scalar> 
209825
(
0.00101955
0.000937083
0.000886495
0.000854735
0.000833534
0.000818575
0.000807526
0.000799105
0.000792508
0.000787244
0.000782967
0.000779449
0.000776515
0.000774049
0.000771951
0.000770163
0.000768615
0.000767275
0.000766101
0.000765084
0.000764179
0.000763384
0.000762669
0.00076205
0.00076148
0.000760975
0.000760513
0.000760118
0.000759744
0.00075942
0.000759108
0.000758865
0.000758603
0.000758376
0.000758167
0.00075801
0.000757842
0.0007577
0.000757563
0.000757471
0.000757344
0.000757244
0.000757161
0.0007571
0.000756964
0.000756918
0.000756896
0.000756882
0.000756865
0.000756833
0.000756735
0.000756754
0.000756754
0.000756752
0.000756719
0.000756816
0.000756832
0.000756832
0.000756969
0.000756995
0.000756995
0.000757085
0.000757202
0.000757385
0.000757533
0.000757696
0.000757791
0.000757936
0.000758038
0.000758224
0.000758379
0.000758583
0.000758715
0.000758934
0.000759089
0.000759323
0.000759479
0.000759762
0.000759946
0.000760257
0.000760431
0.000760792
0.000760992
0.000761414
0.000761656
0.000762165
0.000762452
0.000763054
0.000763393
0.00076416
0.000764533
0.000765824
0.000766102
0.000777464
0.000827327
0.00213972
0.00101955
0.000937081
0.000886489
0.000854725
0.000833521
0.000818559
0.000807508
0.000799085
0.000792487
0.000787223
0.000782944
0.000779426
0.000776491
0.000774025
0.000771927
0.000770137
0.000768589
0.000767249
0.000766075
0.000765058
0.000764152
0.000763357
0.000762641
0.000762023
0.000761453
0.000760948
0.000760485
0.00076009
0.000759716
0.000759392
0.00075908
0.000758837
0.000758574
0.000758347
0.000758139
0.000757981
0.000757813
0.000757672
0.000757534
0.000757443
0.000757315
0.000757215
0.000757132
0.000757071
0.000756935
0.000756889
0.000756867
0.000756853
0.000756836
0.000756804
0.000756706
0.000756725
0.000756725
0.000756723
0.00075669
0.000756787
0.000756803
0.000756803
0.00075694
0.000756966
0.000756966
0.000757055
0.000757172
0.000757356
0.000757504
0.000757667
0.000757762
0.000757907
0.000758008
0.000758195
0.00075835
0.000758554
0.000758686
0.000758905
0.00075906
0.000759294
0.000759449
0.000759732
0.000759916
0.000760228
0.000760402
0.000760762
0.000760962
0.000761385
0.000761627
0.000762136
0.000762423
0.000763025
0.000763363
0.000764131
0.000764504
0.000765795
0.000766072
0.000777456
0.000827327
0.00214103
0.00101955
0.00093707
0.000886459
0.000854679
0.000833463
0.000818492
0.000807434
0.000799005
0.000792402
0.000787134
0.000782852
0.000779331
0.000776394
0.000773926
0.000771826
0.000770035
0.000768485
0.000767144
0.000765969
0.000764951
0.000764044
0.000763249
0.000762532
0.000761913
0.000761343
0.000760837
0.000760374
0.000759979
0.000759604
0.00075928
0.000758967
0.000758724
0.000758461
0.000758234
0.000758025
0.000757868
0.000757699
0.000757558
0.00075742
0.000757328
0.000757201
0.000757101
0.000757018
0.000756956
0.00075682
0.000756774
0.000756752
0.000756737
0.000756721
0.000756689
0.00075659
0.000756609
0.000756609
0.000756607
0.000756575
0.000756671
0.000756687
0.000756687
0.000756824
0.00075685
0.00075685
0.000756939
0.000757056
0.000757239
0.000757388
0.00075755
0.000757646
0.000757791
0.000757892
0.000758079
0.000758233
0.000758438
0.00075857
0.000758788
0.000758944
0.000759177
0.000759333
0.000759616
0.0007598
0.000760111
0.000760285
0.000760646
0.000760846
0.000761268
0.00076151
0.000762019
0.000762306
0.000762907
0.000763246
0.000764013
0.000764386
0.000765677
0.000765953
0.000777382
0.000827263
0.00214362
0.00101955
0.000937051
0.000886409
0.000854602
0.000833365
0.000818379
0.000807308
0.000798869
0.000792258
0.000786984
0.000782697
0.000779171
0.00077623
0.000773759
0.000771656
0.000769863
0.000768311
0.000766968
0.000765791
0.000764772
0.000763864
0.000763067
0.000762349
0.000761729
0.000761158
0.000760652
0.000760188
0.000759792
0.000759416
0.000759092
0.000758779
0.000758535
0.000758272
0.000758044
0.000757835
0.000757677
0.000757508
0.000757367
0.000757228
0.000757136
0.000757009
0.000756909
0.000756825
0.000756763
0.000756628
0.000756581
0.000756559
0.000756544
0.000756528
0.000756495
0.000756397
0.000756416
0.000756416
0.000756414
0.000756381
0.000756477
0.000756492
0.000756492
0.00075663
0.000756655
0.000756655
0.000756745
0.000756862
0.000757044
0.000757193
0.000757355
0.000757451
0.000757596
0.000757697
0.000757884
0.000758038
0.000758242
0.000758374
0.000758593
0.000758748
0.000758982
0.000759137
0.00075942
0.000759604
0.000759915
0.00076009
0.00076045
0.00076065
0.000761072
0.000761314
0.000761822
0.000762109
0.00076271
0.000763049
0.000763815
0.000764188
0.000765479
0.000765753
0.000777251
0.000827139
0.00214664
0.00101956
0.000937024
0.000886338
0.000854493
0.000833227
0.000818218
0.00080713
0.000798678
0.000792056
0.000786772
0.000782477
0.000778945
0.000775999
0.000773523
0.000771417
0.00076962
0.000768065
0.000766719
0.00076554
0.000764519
0.000763609
0.000762811
0.000762091
0.00076147
0.000760897
0.00076039
0.000759925
0.000759528
0.000759152
0.000758826
0.000758512
0.000758268
0.000758005
0.000757776
0.000757567
0.000757408
0.000757239
0.000757097
0.000756958
0.000756866
0.000756738
0.000756638
0.000756554
0.000756492
0.000756356
0.000756309
0.000756287
0.000756272
0.000756255
0.000756223
0.000756124
0.000756143
0.000756143
0.00075614
0.000756107
0.000756203
0.000756218
0.000756218
0.000756355
0.000756381
0.000756381
0.00075647
0.000756587
0.000756769
0.000756918
0.00075708
0.000757176
0.000757321
0.000757422
0.000757608
0.000757762
0.000757967
0.000758099
0.000758317
0.000758472
0.000758706
0.000758861
0.000759144
0.000759328
0.000759639
0.000759813
0.000760173
0.000760373
0.000760795
0.000761037
0.000761544
0.000761831
0.000762432
0.00076277
0.000763536
0.000763908
0.0007652
0.00076547
0.000777064
0.000826943
0.00215009
0.00101957
0.000936989
0.000886246
0.000854353
0.000833049
0.000818011
0.0008069
0.00079843
0.000791794
0.000786498
0.000782194
0.000778653
0.0007757
0.000773218
0.000771106
0.000769305
0.000767747
0.000766397
0.000765215
0.000764191
0.000763279
0.000762478
0.000761757
0.000761134
0.000760559
0.000760051
0.000759584
0.000759186
0.000758809
0.000758482
0.000758168
0.000757922
0.000757658
0.000757429
0.000757219
0.00075706
0.00075689
0.000756747
0.000756608
0.000756515
0.000756387
0.000756286
0.000756202
0.00075614
0.000756004
0.000755957
0.000755934
0.000755918
0.000755902
0.000755869
0.000755771
0.000755788
0.000755788
0.000755786
0.000755752
0.000755848
0.000755863
0.000755863
0.000756
0.000756025
0.000756025
0.000756115
0.000756231
0.000756413
0.000756561
0.000756724
0.000756819
0.000756965
0.000757066
0.000757251
0.000757405
0.00075761
0.000757742
0.00075796
0.000758115
0.000758349
0.000758504
0.000758786
0.00075897
0.000759281
0.000759455
0.000759815
0.000760014
0.000760436
0.000760678
0.000761185
0.000761471
0.000762071
0.000762409
0.000763175
0.000763546
0.000764837
0.000765104
0.000776822
0.000826674
0.00215388
0.00101958
0.000936947
0.000886134
0.000854179
0.000832829
0.000817755
0.000806617
0.000798125
0.000791471
0.00078616
0.000781844
0.000778293
0.000775332
0.000772843
0.000770724
0.000768917
0.000767354
0.000766
0.000764814
0.000763787
0.000762871
0.000762068
0.000761345
0.000760719
0.000760143
0.000759632
0.000759165
0.000758765
0.000758386
0.000758058
0.000757742
0.000757496
0.000757231
0.000757001
0.00075679
0.00075663
0.00075646
0.000756316
0.000756176
0.000756083
0.000755955
0.000755853
0.000755768
0.000755706
0.00075557
0.000755522
0.000755498
0.000755483
0.000755466
0.000755433
0.000755335
0.000755352
0.000755352
0.000755349
0.000755315
0.00075541
0.000755425
0.000755425
0.000755561
0.000755587
0.000755586
0.000755676
0.000755792
0.000755974
0.000756121
0.000756284
0.00075638
0.000756525
0.000756626
0.000756811
0.000756965
0.00075717
0.000757301
0.00075752
0.000757674
0.000757908
0.000758063
0.000758345
0.000758528
0.00075884
0.000759014
0.000759373
0.000759572
0.000759993
0.000760235
0.000760741
0.000761027
0.000761627
0.000761964
0.000762729
0.000763099
0.00076439
0.000764653
0.000776524
0.000826331
0.00215785
0.00101959
0.000936896
0.000886
0.000853974
0.000832567
0.000817451
0.000806279
0.000797761
0.000791086
0.000785758
0.000781427
0.000777865
0.000774893
0.000772395
0.000770268
0.000768455
0.000766886
0.000765527
0.000764337
0.000763305
0.000762386
0.00076158
0.000760853
0.000760225
0.000759646
0.000759134
0.000758664
0.000758262
0.000757882
0.000757553
0.000757236
0.000756988
0.000756722
0.000756491
0.000756278
0.000756118
0.000755946
0.000755802
0.000755662
0.000755568
0.000755439
0.000755337
0.000755251
0.000755189
0.000755052
0.000755004
0.00075498
0.000754964
0.000754946
0.000754913
0.000754815
0.000754831
0.000754831
0.000754829
0.000754794
0.000754888
0.000754902
0.000754902
0.000755038
0.000755063
0.000755063
0.000755153
0.000755268
0.00075545
0.000755597
0.00075576
0.000755856
0.000756001
0.000756102
0.000756287
0.00075644
0.000756644
0.000756776
0.000756994
0.000757149
0.000757382
0.000757537
0.000757819
0.000758002
0.000758313
0.000758487
0.000758846
0.000759045
0.000759466
0.000759706
0.000760212
0.000760498
0.000761097
0.000761433
0.000762197
0.000762565
0.000763857
0.000764115
0.000776171
0.000825914
0.00216175
0.0010196
0.000936838
0.000885845
0.000853735
0.000832263
0.000817097
0.000805887
0.000797338
0.000790638
0.00078529
0.000780942
0.000777366
0.000774382
0.000771873
0.000769738
0.000767917
0.000766341
0.000764976
0.000763781
0.000762744
0.000761821
0.000761011
0.000760281
0.00075965
0.000759068
0.000758553
0.000758081
0.000757677
0.000757295
0.000756964
0.000756645
0.000756396
0.000756129
0.000755897
0.000755683
0.000755521
0.000755349
0.000755204
0.000755062
0.000754968
0.000754838
0.000754735
0.000754649
0.000754586
0.00075445
0.0007544
0.000754375
0.000754359
0.000754341
0.000754308
0.00075421
0.000754225
0.000754225
0.000754222
0.000754186
0.00075428
0.000754294
0.000754294
0.000754429
0.000754454
0.000754454
0.000754544
0.000754659
0.000754839
0.000754986
0.000755149
0.000755245
0.000755391
0.000755491
0.000755675
0.000755828
0.000756033
0.000756165
0.000756382
0.000756537
0.00075677
0.000756924
0.000757206
0.000757389
0.0007577
0.000757873
0.000758232
0.000758431
0.000758851
0.000759091
0.000759596
0.000759881
0.000760479
0.000760815
0.000761577
0.000761944
0.000763236
0.000763489
0.000775762
0.000825422
0.0021652
0.00101962
0.000936772
0.000885668
0.000853463
0.000831917
0.000816694
0.000805439
0.000796855
0.000790127
0.000784756
0.000780388
0.000776795
0.000773798
0.000771277
0.000769132
0.000767302
0.000765718
0.000764346
0.000763145
0.000762103
0.000761175
0.000760361
0.000759627
0.000758992
0.000758407
0.000757889
0.000757415
0.000757008
0.000756624
0.000756291
0.00075597
0.000755719
0.00075545
0.000755217
0.000755002
0.000754839
0.000754665
0.000754519
0.000754377
0.000754281
0.000754151
0.000754047
0.00075396
0.000753897
0.00075376
0.00075371
0.000753684
0.000753667
0.000753649
0.000753616
0.000753517
0.000753532
0.000753531
0.000753528
0.000753492
0.000753585
0.000753598
0.000753598
0.000753733
0.000753757
0.000753757
0.000753847
0.000753961
0.000754141
0.000754287
0.000754451
0.000754547
0.000754693
0.000754792
0.000754976
0.000755128
0.000755333
0.000755465
0.000755682
0.000755836
0.00075607
0.000756224
0.000756505
0.000756687
0.000756998
0.000757171
0.000757529
0.000757728
0.000758147
0.000758387
0.000758891
0.000759176
0.000759773
0.000760108
0.000760868
0.000761234
0.000762526
0.000762772
0.000775298
0.000824854
0.00216766
0.00101963
0.000936698
0.000885471
0.000853157
0.000831528
0.00081624
0.000804935
0.000796311
0.000789551
0.000784153
0.000779764
0.000776153
0.000773139
0.000770605
0.000768449
0.000766608
0.000765016
0.000763636
0.000762428
0.00076138
0.000760446
0.000759627
0.000758889
0.00075825
0.000757662
0.000757141
0.000756663
0.000756254
0.000755867
0.000755532
0.000755209
0.000754956
0.000754685
0.00075445
0.000754233
0.000754069
0.000753894
0.000753747
0.000753603
0.000753507
0.000753375
0.000753271
0.000753183
0.000753119
0.000752982
0.000752931
0.000752904
0.000752887
0.000752868
0.000752835
0.000752736
0.000752749
0.000752749
0.000752745
0.000752708
0.000752801
0.000752812
0.000752812
0.000752947
0.000752971
0.000752971
0.00075306
0.000753174
0.000753353
0.000753499
0.000753662
0.000753759
0.000753905
0.000754004
0.000754187
0.000754339
0.000754544
0.000754675
0.000754892
0.000755046
0.000755279
0.000755433
0.000755714
0.000755896
0.000756207
0.00075638
0.000756737
0.000756935
0.000757354
0.000757593
0.000758096
0.00075838
0.000758975
0.00075931
0.000760068
0.000760432
0.000761725
0.000761964
0.000774777
0.00082421
0.00216835
0.00101965
0.000936617
0.000885252
0.000852818
0.000831095
0.000815735
0.000804374
0.000795706
0.000788909
0.000783482
0.000779069
0.000775436
0.000772405
0.000769857
0.000767687
0.000765835
0.000764233
0.000762844
0.000761628
0.000760573
0.000759634
0.000758809
0.000758066
0.000757422
0.00075683
0.000756305
0.000755824
0.000755412
0.000755022
0.000754685
0.000754359
0.000754104
0.000753832
0.000753595
0.000753376
0.00075321
0.000753034
0.000752886
0.00075274
0.000752643
0.000752511
0.000752406
0.000752316
0.000752252
0.000752115
0.000752062
0.000752034
0.000752016
0.000751997
0.000751963
0.000751865
0.000751877
0.000751876
0.000751872
0.000751834
0.000751925
0.000751936
0.000751936
0.00075207
0.000752093
0.000752093
0.000752183
0.000752296
0.000752474
0.00075262
0.000752783
0.00075288
0.000753026
0.000753125
0.000753307
0.000753458
0.000753663
0.000753794
0.000754011
0.000754164
0.000754398
0.000754551
0.000754831
0.000755012
0.000755323
0.000755496
0.000755853
0.000756051
0.000756468
0.000756707
0.000757208
0.000757492
0.000758086
0.000758419
0.000759176
0.000759538
0.000760831
0.000761063
0.0007742
0.000823489
0.00216644
0.00101967
0.000936529
0.000885012
0.000852445
0.000830619
0.000815179
0.000803756
0.000795038
0.000788201
0.000782742
0.000778301
0.000774645
0.000771595
0.000769029
0.000766845
0.000764981
0.000763368
0.00076197
0.000760745
0.000759682
0.000758736
0.000757905
0.000757156
0.000756508
0.000755911
0.000755382
0.000754897
0.000754482
0.000754089
0.000753749
0.000753421
0.000753163
0.000752889
0.00075265
0.000752429
0.000752261
0.000752083
0.000751934
0.000751787
0.000751688
0.000751555
0.000751449
0.000751358
0.000751293
0.000751155
0.000751102
0.000751073
0.000751054
0.000751034
0.000751
0.000750901
0.000750912
0.000750912
0.000750907
0.000750867
0.000750958
0.000750968
0.000750968
0.000751101
0.000751124
0.000751124
0.000751213
0.000751326
0.000751503
0.000751648
0.000751811
0.000751908
0.000752055
0.000752153
0.000752334
0.000752484
0.000752689
0.00075282
0.000753037
0.00075319
0.000753423
0.000753576
0.000753856
0.000754036
0.000754347
0.000754519
0.000754875
0.000755073
0.000755489
0.000755727
0.000756227
0.00075651
0.000757102
0.000757435
0.000758189
0.000758549
0.000759843
0.000760066
0.000773566
0.00082269
0.0021619
0.0010197
0.000936433
0.000884751
0.000852039
0.000830098
0.000814571
0.000803079
0.000794307
0.000787426
0.00078193
0.00077746
0.000773779
0.000770707
0.000768123
0.000765923
0.000764045
0.000762419
0.000761011
0.000759776
0.000758705
0.000757751
0.000756914
0.000756159
0.000755505
0.000754904
0.00075437
0.000753881
0.000753462
0.000753065
0.000752722
0.000752391
0.000752131
0.000751854
0.000751613
0.00075139
0.00075122
0.000751041
0.000750889
0.000750741
0.00075064
0.000750506
0.000750399
0.000750307
0.000750242
0.000750103
0.000750048
0.000750018
0.000749998
0.000749977
0.000749943
0.000749845
0.000749854
0.000749853
0.000749848
0.000749807
0.000749897
0.000749906
0.000749905
0.000750037
0.00075006
0.00075006
0.00075015
0.000750261
0.000750437
0.000750581
0.000750744
0.000750841
0.000750989
0.000751086
0.000751266
0.000751416
0.000751621
0.000751752
0.000751968
0.00075212
0.000752354
0.000752506
0.000752785
0.000752965
0.000753275
0.000753447
0.000753803
0.000754
0.000754415
0.000754652
0.000755151
0.000755433
0.000756023
0.000756354
0.000757107
0.000757465
0.000758758
0.000758973
0.000772875
0.000821812
0.00215479
0.00101972
0.00093633
0.000884468
0.000851598
0.000829534
0.00081391
0.000802344
0.000793512
0.000786584
0.000781048
0.000776544
0.000772836
0.000769741
0.000767136
0.000764919
0.000763025
0.000761386
0.000759966
0.000758721
0.000757641
0.000756679
0.000755834
0.000755072
0.000754413
0.000753806
0.000753268
0.000752774
0.00075235
0.00075195
0.000751604
0.000751269
0.000751006
0.000750727
0.000750483
0.000750258
0.000750085
0.000749904
0.000749751
0.000749601
0.000749499
0.000749363
0.000749255
0.000749161
0.000749095
0.000748956
0.0007489
0.000748868
0.000748847
0.000748826
0.000748791
0.000748693
0.000748701
0.0007487
0.000748694
0.000748652
0.00074874
0.000748748
0.000748747
0.000748878
0.0007489
0.0007489
0.00074899
0.0007491
0.000749275
0.000749418
0.000749582
0.000749679
0.000749827
0.000749923
0.000750103
0.000750252
0.000750456
0.000750587
0.000750803
0.000750954
0.000751188
0.000751339
0.000751618
0.000751797
0.000752107
0.000752279
0.000752633
0.00075283
0.000753244
0.000753481
0.000753977
0.000754259
0.000754847
0.000755177
0.000755927
0.000756282
0.000757576
0.000757782
0.000772125
0.000820853
0.00214513
0.00101975
0.000936221
0.000884165
0.000851124
0.000828924
0.000813197
0.000801549
0.000792652
0.000785672
0.000780093
0.000775554
0.000771815
0.000768694
0.000766068
0.000763831
0.000761921
0.000760268
0.000758835
0.000757579
0.000756488
0.000755517
0.000754664
0.000753895
0.000753229
0.000752616
0.000752073
0.000751574
0.000751146
0.000750742
0.000750392
0.000750053
0.000749787
0.000749505
0.000749259
0.000749031
0.000748856
0.000748673
0.000748518
0.000748365
0.000748261
0.000748125
0.000748015
0.00074792
0.000747853
0.000747713
0.000747655
0.000747622
0.0007476
0.000747578
0.000747543
0.000747445
0.000747451
0.00074745
0.000747443
0.000747399
0.000747486
0.000747493
0.000747492
0.000747622
0.000747644
0.000747643
0.000747733
0.000747842
0.000748016
0.000748158
0.000748322
0.000748419
0.000748567
0.000748663
0.000748841
0.000748989
0.000749194
0.000749324
0.00074954
0.000749691
0.000749924
0.000750075
0.000750353
0.000750531
0.000750841
0.000751012
0.000751366
0.000751562
0.000751975
0.000752211
0.000752705
0.000752986
0.000753572
0.000753901
0.000754648
0.000755
0.000756295
0.000756492
0.000771316
0.000819812
0.00213298
0.00101978
0.000936105
0.000883841
0.000850615
0.000828271
0.00081243
0.000800695
0.000791728
0.000784691
0.000779065
0.000774487
0.000770716
0.000767567
0.000764917
0.00076266
0.000760732
0.000759063
0.000757616
0.000756347
0.000755246
0.000754265
0.000753404
0.000752627
0.000751953
0.000751334
0.000750785
0.00075028
0.000749848
0.000749439
0.000749085
0.000748743
0.000748472
0.000748187
0.000747939
0.000747708
0.00074753
0.000747345
0.000747188
0.000747033
0.000746927
0.000746789
0.000746678
0.000746581
0.000746513
0.000746373
0.000746313
0.000746278
0.000746255
0.000746232
0.000746197
0.000746099
0.000746103
0.000746102
0.000746094
0.000746048
0.000746134
0.000746139
0.000746138
0.000746267
0.000746288
0.000746288
0.000746378
0.000746486
0.000746658
0.000746799
0.000746962
0.00074706
0.000747209
0.000747304
0.000747481
0.000747628
0.000747832
0.000747962
0.000748177
0.000748328
0.000748561
0.000748711
0.000748988
0.000749166
0.000749475
0.000749646
0.000749999
0.000750194
0.000750605
0.00075084
0.000751333
0.000751612
0.000752197
0.000752524
0.000753268
0.000753618
0.000754913
0.0007551
0.000770445
0.000818687
0.00211841
0.00101981
0.000935982
0.000883497
0.000850073
0.000827572
0.000811611
0.000799781
0.000790738
0.00078364
0.000777964
0.000773344
0.000769537
0.000766358
0.000763682
0.000761403
0.000759455
0.000757769
0.000756307
0.000755026
0.000753912
0.000752921
0.00075205
0.000751265
0.000750583
0.000749957
0.000749402
0.000748892
0.000748454
0.00074804
0.000747681
0.000747335
0.000747061
0.000746773
0.000746521
0.000746287
0.000746107
0.000745919
0.00074576
0.000745602
0.000745495
0.000745355
0.000745242
0.000745143
0.000745074
0.000744934
0.000744872
0.000744835
0.000744811
0.000744786
0.000744751
0.000744654
0.000744656
0.000744654
0.000744645
0.000744598
0.000744681
0.000744686
0.000744685
0.000744812
0.000744832
0.000744832
0.000744922
0.000745028
0.000745199
0.000745339
0.000745503
0.000745601
0.000745749
0.000745844
0.000746019
0.000746165
0.00074637
0.000746499
0.000746714
0.000746864
0.000747096
0.000747246
0.000747522
0.000747699
0.000748008
0.000748178
0.00074853
0.000748725
0.000749134
0.000749369
0.000749859
0.000750137
0.000750719
0.000751045
0.000751786
0.000752132
0.000753429
0.000753606
0.000769512
0.000817475
0.00210148
0.00101985
0.000935854
0.000883132
0.000849497
0.000826829
0.000810738
0.000798806
0.000789682
0.000782518
0.000776788
0.000772123
0.000768278
0.000765067
0.000762363
0.00076006
0.000758091
0.000756387
0.000754909
0.000753613
0.000752487
0.000751484
0.000750603
0.000749808
0.000749119
0.000748485
0.000747923
0.000747407
0.000746963
0.000746544
0.000746181
0.00074583
0.000745552
0.00074526
0.000745005
0.000744768
0.000744584
0.000744393
0.000744232
0.000744072
0.000743962
0.000743821
0.000743706
0.000743605
0.000743535
0.000743394
0.00074333
0.000743291
0.000743266
0.00074324
0.000743204
0.000743108
0.000743108
0.000743105
0.000743095
0.000743046
0.000743127
0.000743131
0.000743129
0.000743255
0.000743274
0.000743274
0.000743364
0.000743469
0.000743639
0.000743777
0.000743941
0.000744039
0.000744188
0.000744281
0.000744456
0.0007446
0.000744805
0.000744934
0.000745148
0.000745297
0.00074553
0.000745678
0.000745954
0.000746129
0.000746438
0.000746608
0.000746958
0.000747153
0.000747561
0.000747794
0.000748282
0.000748559
0.000749138
0.000749462
0.0007502
0.000750543
0.00075184
0.000752007
0.000768515
0.000816175
0.00208227
0.00101989
0.000935719
0.000882748
0.000848888
0.000826042
0.000809811
0.00079777
0.000788559
0.000781325
0.000775537
0.000770823
0.000766938
0.000763692
0.000760959
0.000758629
0.000756639
0.000754915
0.000753419
0.000752108
0.000750968
0.000749953
0.000749061
0.000748257
0.000747558
0.000746916
0.000746347
0.000745824
0.000745374
0.000744949
0.000744581
0.000744226
0.000743943
0.000743648
0.000743389
0.000743148
0.000742961
0.000742767
0.000742603
0.000742441
0.000742328
0.000742185
0.000742069
0.000741965
0.000741894
0.000741752
0.000741686
0.000741645
0.000741619
0.000741591
0.000741555
0.000741459
0.000741457
0.000741453
0.000741442
0.000741391
0.00074147
0.000741473
0.000741471
0.000741595
0.000741614
0.000741613
0.000741703
0.000741807
0.000741974
0.000742112
0.000742275
0.000742373
0.000742523
0.000742616
0.000742788
0.000742932
0.000743136
0.000743265
0.000743478
0.000743627
0.000743859
0.000744006
0.000744281
0.000744456
0.000744764
0.000744933
0.000745282
0.000745476
0.000745882
0.000746114
0.0007466
0.000746876
0.000747452
0.000747774
0.000748509
0.000748849
0.000750146
0.000750303
0.00076745
0.000814783
0.00206088
0.00101993
0.000935579
0.000882344
0.000848246
0.00082521
0.000808831
0.000796674
0.00078737
0.00078006
0.00077421
0.000769445
0.000765516
0.000762233
0.000759468
0.000757111
0.000755096
0.000753351
0.000751837
0.00075051
0.000749355
0.000748327
0.000747423
0.000746608
0.0007459
0.00074525
0.000744672
0.000744142
0.000743686
0.000743255
0.000742881
0.000742521
0.000742233
0.000741934
0.000741672
0.000741426
0.000741236
0.000741039
0.000740872
0.000740707
0.000740592
0.000740447
0.000740329
0.000740222
0.00074015
0.000740007
0.000739938
0.000739896
0.000739867
0.000739839
0.000739802
0.000739707
0.000739703
0.000739698
0.000739685
0.000739633
0.000739709
0.000739711
0.000739708
0.000739831
0.000739848
0.000739848
0.000739937
0.00074004
0.000740205
0.000740342
0.000740504
0.000740603
0.000740753
0.000740844
0.000741015
0.000741158
0.000741362
0.00074149
0.000741703
0.00074185
0.000742082
0.000742229
0.000742503
0.000742676
0.000742984
0.000743153
0.0007435
0.000743693
0.000744097
0.000744328
0.000744812
0.000745086
0.00074566
0.00074598
0.000746711
0.000747047
0.000748345
0.000748492
0.000766315
0.000813295
0.00203741
0.00101997
0.000935434
0.000881921
0.000847571
0.000824333
0.000807797
0.000795516
0.000786113
0.000778723
0.000772807
0.000767987
0.000764011
0.000760689
0.00075789
0.000755504
0.000753463
0.000751696
0.000750162
0.000748817
0.000747646
0.000746604
0.000745688
0.000744862
0.000744143
0.000743484
0.000742898
0.00074236
0.000741897
0.00074146
0.00074108
0.000740714
0.000740421
0.000740118
0.000739851
0.000739602
0.000739408
0.000739208
0.000739038
0.000738869
0.000738752
0.000738604
0.000738484
0.000738375
0.000738302
0.000738157
0.000738086
0.000738041
0.000738011
0.000737981
0.000737944
0.000737849
0.000737843
0.000737837
0.000737823
0.000737768
0.000737842
0.000737844
0.00073784
0.000737961
0.000737976
0.000737976
0.000738065
0.000738166
0.00073833
0.000738465
0.000738627
0.000738726
0.000738876
0.000738967
0.000739136
0.000739277
0.000739481
0.000739609
0.000739821
0.000739967
0.000740199
0.000740345
0.000740617
0.00074079
0.000741097
0.000741265
0.000741611
0.000741803
0.000742205
0.000742435
0.000742916
0.000743189
0.000743759
0.000744077
0.000744805
0.000745136
0.000746436
0.000746572
0.000765106
0.000811707
0.00201196
0.00102001
0.000935284
0.00088148
0.000846863
0.000823412
0.000806709
0.000794297
0.000784789
0.000777314
0.000771327
0.000766449
0.000762424
0.000759059
0.000756224
0.000753806
0.000751738
0.000749947
0.000748392
0.000747028
0.000745841
0.000744785
0.000743855
0.000743017
0.000742287
0.000741618
0.000741023
0.000740477
0.000740006
0.000739562
0.000739177
0.000738805
0.000738506
0.000738198
0.000737928
0.000737674
0.000737476
0.000737272
0.000737099
0.000736927
0.000736806
0.000736656
0.000736534
0.000736422
0.000736347
0.000736202
0.000736128
0.000736081
0.000736049
0.000736017
0.000735979
0.000735885
0.000735876
0.000735869
0.000735854
0.000735797
0.000735868
0.000735869
0.000735864
0.000735983
0.000735997
0.000735997
0.000736086
0.000736185
0.000736347
0.00073648
0.000736642
0.000736741
0.000736892
0.000736981
0.000737149
0.000737288
0.000737491
0.000737619
0.00073783
0.000737976
0.000738207
0.000738352
0.000738624
0.000738795
0.000739101
0.000739268
0.000739613
0.000739805
0.000740204
0.000740433
0.000740911
0.000741182
0.000741749
0.000742065
0.000742788
0.000743116
0.000744416
0.000744543
0.000763821
0.000810014
0.00198464
0.00102006
0.00093513
0.00088102
0.000846123
0.000822448
0.000805568
0.000793017
0.000783397
0.000775832
0.000769771
0.00076483
0.000760752
0.000757343
0.000754469
0.000752019
0.000749922
0.000748105
0.000746528
0.000745144
0.000743939
0.000742867
0.000741923
0.000741071
0.00074033
0.000739651
0.000739047
0.000738492
0.000738013
0.000737562
0.000737169
0.000736791
0.000736487
0.000736174
0.000735899
0.00073564
0.000735438
0.00073523
0.000735054
0.000734878
0.000734754
0.000734602
0.000734477
0.000734362
0.000734286
0.000734139
0.000734063
0.000734013
0.000733979
0.000733945
0.000733907
0.000733813
0.000733802
0.000733793
0.000733777
0.000733718
0.000733786
0.000733786
0.00073378
0.000733897
0.00073391
0.00073391
0.000733999
0.000734096
0.000734256
0.000734387
0.000734548
0.000734647
0.000734798
0.000734886
0.000735052
0.00073519
0.000735393
0.00073552
0.00073573
0.000735875
0.000736106
0.00073625
0.00073652
0.00073669
0.000736995
0.000737162
0.000737505
0.000737695
0.000738093
0.00073832
0.000738795
0.000739064
0.000739628
0.000739942
0.000740661
0.000740985
0.000742285
0.000742403
0.000762456
0.00080821
0.00195559
0.00102011
0.000934971
0.000880543
0.000845352
0.00082144
0.000804373
0.000791676
0.000781938
0.000774277
0.000768137
0.00076313
0.000758997
0.00075554
0.000752625
0.00075014
0.000748012
0.000746168
0.000744567
0.000743162
0.000741939
0.000740849
0.00073989
0.000739026
0.000738272
0.000737581
0.000736967
0.000736403
0.000735916
0.000735457
0.000735057
0.000734672
0.000734362
0.000734044
0.000733764
0.0007335
0.000733293
0.000733081
0.000732901
0.000732722
0.000732595
0.00073244
0.000732313
0.000732194
0.000732116
0.000731968
0.000731889
0.000731836
0.000731801
0.000731765
0.000731726
0.000731632
0.000731619
0.000731609
0.000731591
0.00073153
0.000731594
0.000731594
0.000731586
0.000731701
0.000731712
0.000731712
0.000731801
0.000731896
0.000732054
0.000732183
0.000732343
0.000732443
0.000732594
0.000732681
0.000732845
0.000732981
0.000733183
0.00073331
0.000733519
0.000733663
0.000733893
0.000734036
0.000734305
0.000734473
0.000734778
0.000734944
0.000735285
0.000735475
0.00073587
0.000736095
0.000736567
0.000736835
0.000737395
0.000737707
0.000738421
0.00073874
0.000740042
0.00074015
0.000761005
0.000806288
0.00192491
0.00102016
0.000934809
0.000880049
0.00084455
0.000820389
0.000803126
0.000790274
0.000780411
0.000772649
0.000766425
0.000761349
0.000757156
0.00075365
0.000750692
0.000748169
0.000746008
0.000744136
0.00074251
0.000741083
0.000739839
0.000738732
0.000737757
0.000736878
0.000736111
0.000735409
0.000734784
0.00073421
0.000733714
0.000733246
0.00073284
0.000732448
0.000732131
0.000731807
0.000731522
0.000731253
0.000731041
0.000730825
0.000730641
0.000730458
0.000730327
0.000730169
0.000730039
0.000729917
0.000729837
0.000729688
0.000729606
0.00072955
0.000729512
0.000729474
0.000729435
0.000729341
0.000729325
0.000729313
0.000729294