/*--------------------------------*- C++ -*----------------------------------*\
| =========                 |                                                 |
| \\      /  F ield         | OpenFOAM: The Open Source CFD Toolbox           |
|  \\    /   O peration     | Version:  v2012                                 |
|   \\  /    A nd           | Website:  www.openfoam.com                      |
|    \\/     M anipulation  |                                                 |
\*---------------------------------------------------------------------------*/
FoamFile
{
    version     2.0;
    format      ascii;
    class       volScalarField;
    location    "19.5";
    object      nut;
}
// * * * * * * * * * * * * * * * * * * * * * * * * * * * * * * * * * * * * * //

dimensions      [0 2 -1 0 0 0 0];


internalField   nonuniform List<scalar> 
209825
(
1.23794e-07
1.2364e-07
1.24132e-07
1.24749e-07
1.25316e-07
1.25795e-07
1.26201e-07
1.26542e-07
1.26836e-07
1.27086e-07
1.27306e-07
1.27495e-07
1.27665e-07
1.27812e-07
1.27946e-07
1.28063e-07
1.28171e-07
1.28264e-07
1.28352e-07
1.2843e-07
1.28503e-07
1.28566e-07
1.28628e-07
1.28681e-07
1.28733e-07
1.28777e-07
1.28822e-07
1.2886e-07
1.28898e-07
1.28931e-07
1.28963e-07
1.28994e-07
1.29022e-07
1.29042e-07
1.29067e-07
1.29091e-07
1.29115e-07
1.29132e-07
1.29152e-07
1.29172e-07
1.29189e-07
1.29197e-07
1.29218e-07
1.29235e-07
1.29237e-07
1.29246e-07
1.29262e-07
1.29271e-07
1.29286e-07
1.29292e-07
1.293e-07
1.29314e-07
1.2932e-07
1.29326e-07
1.29338e-07
1.29345e-07
1.29347e-07
1.29347e-07
1.29371e-07
1.29382e-07
1.2937e-07
1.29385e-07
1.29405e-07
1.29433e-07
1.29435e-07
1.29463e-07
1.29479e-07
1.29491e-07
1.29508e-07
1.29517e-07
1.29543e-07
1.29547e-07
1.29566e-07
1.29572e-07
1.29583e-07
1.296e-07
1.29613e-07
1.29629e-07
1.29647e-07
1.29668e-07
1.29678e-07
1.29703e-07
1.29718e-07
1.29749e-07
1.2977e-07
1.29813e-07
1.2984e-07
1.2989e-07
1.29922e-07
1.29987e-07
1.30025e-07
1.30142e-07
1.30178e-07
1.31239e-07
1.35845e-07
1.86177e-08
1.23794e-07
1.23639e-07
1.24131e-07
1.24749e-07
1.25316e-07
1.25795e-07
1.26201e-07
1.26542e-07
1.26836e-07
1.27085e-07
1.27306e-07
1.27495e-07
1.27665e-07
1.27812e-07
1.27946e-07
1.28063e-07
1.28171e-07
1.28264e-07
1.28352e-07
1.2843e-07
1.28503e-07
1.28567e-07
1.28628e-07
1.28681e-07
1.28733e-07
1.28777e-07
1.28822e-07
1.2886e-07
1.28898e-07
1.28931e-07
1.28963e-07
1.28994e-07
1.29022e-07
1.29043e-07
1.29068e-07
1.29091e-07
1.29116e-07
1.29132e-07
1.29152e-07
1.29172e-07
1.2919e-07
1.29198e-07
1.29218e-07
1.29235e-07
1.29237e-07
1.29247e-07
1.29262e-07
1.29271e-07
1.29286e-07
1.29293e-07
1.293e-07
1.29314e-07
1.2932e-07
1.29326e-07
1.29338e-07
1.29345e-07
1.29348e-07
1.29348e-07
1.29372e-07
1.29382e-07
1.2937e-07
1.29385e-07
1.29405e-07
1.29433e-07
1.29436e-07
1.29463e-07
1.2948e-07
1.29491e-07
1.29508e-07
1.29517e-07
1.29543e-07
1.29547e-07
1.29567e-07
1.29572e-07
1.29583e-07
1.296e-07
1.29613e-07
1.2963e-07
1.29647e-07
1.29668e-07
1.29678e-07
1.29703e-07
1.29718e-07
1.29749e-07
1.29771e-07
1.29814e-07
1.2984e-07
1.2989e-07
1.29922e-07
1.29988e-07
1.30025e-07
1.30143e-07
1.30178e-07
1.31241e-07
1.35849e-07
1.91791e-08
1.23794e-07
1.23639e-07
1.2413e-07
1.24747e-07
1.25313e-07
1.25792e-07
1.26198e-07
1.26539e-07
1.26833e-07
1.27082e-07
1.27303e-07
1.27492e-07
1.27662e-07
1.27809e-07
1.27943e-07
1.2806e-07
1.28168e-07
1.28261e-07
1.2835e-07
1.28427e-07
1.285e-07
1.28564e-07
1.28625e-07
1.28679e-07
1.2873e-07
1.28774e-07
1.28819e-07
1.28857e-07
1.28895e-07
1.28928e-07
1.2896e-07
1.28992e-07
1.29019e-07
1.2904e-07
1.29065e-07
1.29089e-07
1.29113e-07
1.29129e-07
1.29149e-07
1.29169e-07
1.29187e-07
1.29195e-07
1.29215e-07
1.29232e-07
1.29235e-07
1.29244e-07
1.29259e-07
1.29269e-07
1.29284e-07
1.2929e-07
1.29298e-07
1.29312e-07
1.29317e-07
1.29323e-07
1.29335e-07
1.29342e-07
1.29345e-07
1.29345e-07
1.29369e-07
1.29379e-07
1.29367e-07
1.29383e-07
1.29403e-07
1.2943e-07
1.29433e-07
1.29461e-07
1.29477e-07
1.29488e-07
1.29506e-07
1.29514e-07
1.29541e-07
1.29544e-07
1.29564e-07
1.29569e-07
1.2958e-07
1.29597e-07
1.2961e-07
1.29627e-07
1.29644e-07
1.29666e-07
1.29675e-07
1.297e-07
1.29716e-07
1.29747e-07
1.29768e-07
1.29811e-07
1.29837e-07
1.29888e-07
1.2992e-07
1.29985e-07
1.30022e-07
1.3014e-07
1.30175e-07
1.31243e-07
1.35852e-07
1.98759e-08
1.23794e-07
1.23637e-07
1.24127e-07
1.24743e-07
1.25309e-07
1.25788e-07
1.26194e-07
1.26534e-07
1.26828e-07
1.27078e-07
1.27298e-07
1.27487e-07
1.27658e-07
1.27804e-07
1.27939e-07
1.28055e-07
1.28164e-07
1.28257e-07
1.28345e-07
1.28422e-07
1.28496e-07
1.28559e-07
1.28621e-07
1.28674e-07
1.28726e-07
1.2877e-07
1.28815e-07
1.28853e-07
1.28891e-07
1.28924e-07
1.28956e-07
1.28988e-07
1.29015e-07
1.29036e-07
1.29061e-07
1.29085e-07
1.29109e-07
1.29125e-07
1.29145e-07
1.29165e-07
1.29183e-07
1.29191e-07
1.29211e-07
1.29229e-07
1.29231e-07
1.2924e-07
1.29256e-07
1.29265e-07
1.2928e-07
1.29286e-07
1.29294e-07
1.29308e-07
1.29314e-07
1.2932e-07
1.29331e-07
1.29339e-07
1.29341e-07
1.29341e-07
1.29365e-07
1.29376e-07
1.29364e-07
1.29379e-07
1.29399e-07
1.29427e-07
1.29429e-07
1.29457e-07
1.29473e-07
1.29485e-07
1.29502e-07
1.29511e-07
1.29537e-07
1.29541e-07
1.29561e-07
1.29566e-07
1.29577e-07
1.29594e-07
1.29607e-07
1.29624e-07
1.29641e-07
1.29662e-07
1.29672e-07
1.29697e-07
1.29712e-07
1.29743e-07
1.29765e-07
1.29808e-07
1.29834e-07
1.29884e-07
1.29916e-07
1.29981e-07
1.30019e-07
1.30136e-07
1.30172e-07
1.31246e-07
1.35858e-07
2.06485e-08
1.23794e-07
1.23635e-07
1.24123e-07
1.24738e-07
1.25304e-07
1.25782e-07
1.26188e-07
1.26528e-07
1.26822e-07
1.27072e-07
1.27292e-07
1.27481e-07
1.27652e-07
1.27798e-07
1.27933e-07
1.28049e-07
1.28158e-07
1.28251e-07
1.2834e-07
1.28417e-07
1.2849e-07
1.28554e-07
1.28616e-07
1.28669e-07
1.28721e-07
1.28765e-07
1.28809e-07
1.28848e-07
1.28886e-07
1.28919e-07
1.28951e-07
1.28982e-07
1.2901e-07
1.29031e-07
1.29056e-07
1.2908e-07
1.29104e-07
1.2912e-07
1.2914e-07
1.2916e-07
1.29178e-07
1.29186e-07
1.29206e-07
1.29224e-07
1.29226e-07
1.29235e-07
1.29251e-07
1.2926e-07
1.29275e-07
1.29281e-07
1.29289e-07
1.29303e-07
1.29309e-07
1.29315e-07
1.29327e-07
1.29334e-07
1.29336e-07
1.29336e-07
1.2936e-07
1.29371e-07
1.29359e-07
1.29374e-07
1.29394e-07
1.29422e-07
1.29425e-07
1.29452e-07
1.29469e-07
1.2948e-07
1.29497e-07
1.29506e-07
1.29533e-07
1.29536e-07
1.29556e-07
1.29561e-07
1.29572e-07
1.29589e-07
1.29602e-07
1.29619e-07
1.29636e-07
1.29658e-07
1.29667e-07
1.29692e-07
1.29708e-07
1.29739e-07
1.2976e-07
1.29803e-07
1.29829e-07
1.2988e-07
1.29912e-07
1.29977e-07
1.30014e-07
1.30132e-07
1.30167e-07
1.3125e-07
1.35863e-07
2.14858e-08
1.23794e-07
1.23633e-07
1.24118e-07
1.24732e-07
1.25297e-07
1.25775e-07
1.2618e-07
1.26521e-07
1.26814e-07
1.27064e-07
1.27285e-07
1.27474e-07
1.27644e-07
1.27791e-07
1.27925e-07
1.28042e-07
1.28151e-07
1.28244e-07
1.28333e-07
1.2841e-07
1.28483e-07
1.28547e-07
1.28609e-07
1.28662e-07
1.28714e-07
1.28758e-07
1.28803e-07
1.28841e-07
1.28879e-07
1.28912e-07
1.28944e-07
1.28976e-07
1.29004e-07
1.29024e-07
1.29049e-07
1.29073e-07
1.29097e-07
1.29114e-07
1.29134e-07
1.29154e-07
1.29172e-07
1.2918e-07
1.292e-07
1.29217e-07
1.2922e-07
1.29229e-07
1.29244e-07
1.29254e-07
1.29269e-07
1.29275e-07
1.29283e-07
1.29297e-07
1.29303e-07
1.29309e-07
1.29321e-07
1.29328e-07
1.2933e-07
1.2933e-07
1.29354e-07
1.29365e-07
1.29353e-07
1.29368e-07
1.29388e-07
1.29416e-07
1.29419e-07
1.29446e-07
1.29463e-07
1.29474e-07
1.29492e-07
1.29501e-07
1.29527e-07
1.2953e-07
1.2955e-07
1.29556e-07
1.29567e-07
1.29584e-07
1.29597e-07
1.29613e-07
1.29631e-07
1.29652e-07
1.29662e-07
1.29687e-07
1.29702e-07
1.29733e-07
1.29755e-07
1.29798e-07
1.29824e-07
1.29874e-07
1.29906e-07
1.29971e-07
1.30008e-07
1.30126e-07
1.30161e-07
1.31256e-07
1.3587e-07
2.23854e-08
1.23794e-07
1.23629e-07
1.24112e-07
1.24725e-07
1.25288e-07
1.25766e-07
1.26171e-07
1.26512e-07
1.26805e-07
1.27055e-07
1.27276e-07
1.27465e-07
1.27635e-07
1.27782e-07
1.27917e-07
1.28033e-07
1.28142e-07
1.28235e-07
1.28324e-07
1.28401e-07
1.28475e-07
1.28539e-07
1.286e-07
1.28654e-07
1.28706e-07
1.2875e-07
1.28795e-07
1.28833e-07
1.28871e-07
1.28904e-07
1.28937e-07
1.28968e-07
1.28996e-07
1.29016e-07
1.29042e-07
1.29065e-07
1.2909e-07
1.29106e-07
1.29127e-07
1.29147e-07
1.29164e-07
1.29172e-07
1.29192e-07
1.2921e-07
1.29213e-07
1.29222e-07
1.29237e-07
1.29246e-07
1.29262e-07
1.29268e-07
1.29276e-07
1.2929e-07
1.29296e-07
1.29302e-07
1.29314e-07
1.29321e-07
1.29323e-07
1.29323e-07
1.29347e-07
1.29358e-07
1.29346e-07
1.29362e-07
1.29382e-07
1.29409e-07
1.29412e-07
1.2944e-07
1.29456e-07
1.29468e-07
1.29485e-07
1.29494e-07
1.2952e-07
1.29524e-07
1.29544e-07
1.29549e-07
1.2956e-07
1.29577e-07
1.2959e-07
1.29607e-07
1.29624e-07
1.29646e-07
1.29655e-07
1.2968e-07
1.29696e-07
1.29727e-07
1.29748e-07
1.29791e-07
1.29817e-07
1.29868e-07
1.29899e-07
1.29964e-07
1.30002e-07
1.3012e-07
1.30154e-07
1.31264e-07
1.35877e-07
2.33476e-08
1.23794e-07
1.23626e-07
1.24105e-07
1.24716e-07
1.25278e-07
1.25756e-07
1.2616e-07
1.26501e-07
1.26794e-07
1.27044e-07
1.27265e-07
1.27454e-07
1.27625e-07
1.27772e-07
1.27906e-07
1.28023e-07
1.28132e-07
1.28225e-07
1.28314e-07
1.28391e-07
1.28465e-07
1.28529e-07
1.28591e-07
1.28644e-07
1.28696e-07
1.2874e-07
1.28785e-07
1.28824e-07
1.28862e-07
1.28895e-07
1.28928e-07
1.28959e-07
1.28987e-07
1.29008e-07
1.29033e-07
1.29057e-07
1.29081e-07
1.29097e-07
1.29118e-07
1.29138e-07
1.29156e-07
1.29164e-07
1.29184e-07
1.29201e-07
1.29204e-07
1.29213e-07
1.29229e-07
1.29238e-07
1.29253e-07
1.2926e-07
1.29268e-07
1.29282e-07
1.29288e-07
1.29293e-07
1.29305e-07
1.29313e-07
1.29315e-07
1.29315e-07
1.29339e-07
1.2935e-07
1.29338e-07
1.29354e-07
1.29373e-07
1.29401e-07
1.29404e-07
1.29432e-07
1.29448e-07
1.2946e-07
1.29477e-07
1.29486e-07
1.29512e-07
1.29516e-07
1.29536e-07
1.29541e-07
1.29552e-07
1.29569e-07
1.29582e-07
1.29599e-07
1.29617e-07
1.29638e-07
1.29648e-07
1.29673e-07
1.29688e-07
1.29719e-07
1.2974e-07
1.29783e-07
1.29809e-07
1.2986e-07
1.29892e-07
1.29957e-07
1.29994e-07
1.30112e-07
1.30145e-07
1.31273e-07
1.35886e-07
2.43734e-08
1.23794e-07
1.23621e-07
1.24097e-07
1.24705e-07
1.25267e-07
1.25743e-07
1.26148e-07
1.26488e-07
1.26782e-07
1.27032e-07
1.27253e-07
1.27442e-07
1.27613e-07
1.2776e-07
1.27894e-07
1.28011e-07
1.2812e-07
1.28214e-07
1.28303e-07
1.2838e-07
1.28454e-07
1.28518e-07
1.2858e-07
1.28633e-07
1.28685e-07
1.2873e-07
1.28775e-07
1.28813e-07
1.28851e-07
1.28884e-07
1.28917e-07
1.28949e-07
1.28977e-07
1.28997e-07
1.29022e-07
1.29046e-07
1.29071e-07
1.29087e-07
1.29108e-07
1.29128e-07
1.29146e-07
1.29154e-07
1.29174e-07
1.29192e-07
1.29195e-07
1.29204e-07
1.29219e-07
1.29228e-07
1.29244e-07
1.2925e-07
1.29258e-07
1.29272e-07
1.29278e-07
1.29284e-07
1.29296e-07
1.29303e-07
1.29306e-07
1.29306e-07
1.2933e-07
1.29341e-07
1.29329e-07
1.29344e-07
1.29364e-07
1.29392e-07
1.29395e-07
1.29423e-07
1.29439e-07
1.29451e-07
1.29468e-07
1.29477e-07
1.29503e-07
1.29507e-07
1.29527e-07
1.29533e-07
1.29544e-07
1.2956e-07
1.29574e-07
1.29591e-07
1.29608e-07
1.29629e-07
1.29639e-07
1.29664e-07
1.29679e-07
1.2971e-07
1.29732e-07
1.29775e-07
1.29801e-07
1.29851e-07
1.29883e-07
1.29948e-07
1.29985e-07
1.30103e-07
1.30136e-07
1.31284e-07
1.35895e-07
2.54633e-08
1.23794e-07
1.23617e-07
1.24088e-07
1.24693e-07
1.25253e-07
1.2573e-07
1.26134e-07
1.26474e-07
1.26768e-07
1.27018e-07
1.27239e-07
1.27428e-07
1.27599e-07
1.27746e-07
1.27881e-07
1.27998e-07
1.28107e-07
1.28201e-07
1.2829e-07
1.28367e-07
1.28441e-07
1.28505e-07
1.28567e-07
1.28621e-07
1.28673e-07
1.28717e-07
1.28763e-07
1.28801e-07
1.28839e-07
1.28873e-07
1.28905e-07
1.28937e-07
1.28965e-07
1.28986e-07
1.29011e-07
1.29035e-07
1.29059e-07
1.29076e-07
1.29097e-07
1.29117e-07
1.29134e-07
1.29143e-07
1.29163e-07
1.29181e-07
1.29184e-07
1.29193e-07
1.29208e-07
1.29218e-07
1.29233e-07
1.29239e-07
1.29247e-07
1.29261e-07
1.29268e-07
1.29274e-07
1.29285e-07
1.29293e-07
1.29295e-07
1.29295e-07
1.29319e-07
1.2933e-07
1.29319e-07
1.29334e-07
1.29354e-07
1.29382e-07
1.29385e-07
1.29412e-07
1.29429e-07
1.29441e-07
1.29458e-07
1.29467e-07
1.29493e-07
1.29497e-07
1.29517e-07
1.29523e-07
1.29534e-07
1.29551e-07
1.29564e-07
1.29581e-07
1.29598e-07
1.2962e-07
1.2963e-07
1.29654e-07
1.2967e-07
1.29701e-07
1.29722e-07
1.29765e-07
1.29791e-07
1.29841e-07
1.29873e-07
1.29938e-07
1.29975e-07
1.30093e-07
1.30126e-07
1.31298e-07
1.35905e-07
2.66172e-08
1.23794e-07
1.23611e-07
1.24077e-07
1.2468e-07
1.25239e-07
1.25714e-07
1.26118e-07
1.26458e-07
1.26752e-07
1.27002e-07
1.27223e-07
1.27413e-07
1.27583e-07
1.27731e-07
1.27866e-07
1.27983e-07
1.28092e-07
1.28186e-07
1.28275e-07
1.28353e-07
1.28427e-07
1.28491e-07
1.28553e-07
1.28607e-07
1.28659e-07
1.28704e-07
1.28749e-07
1.28788e-07
1.28826e-07
1.28859e-07
1.28892e-07
1.28924e-07
1.28952e-07
1.28973e-07
1.28998e-07
1.29022e-07
1.29047e-07
1.29063e-07
1.29084e-07
1.29104e-07
1.29122e-07
1.29131e-07
1.2915e-07
1.29168e-07
1.29172e-07
1.29181e-07
1.29196e-07
1.29206e-07
1.29221e-07
1.29227e-07
1.29235e-07
1.29249e-07
1.29256e-07
1.29262e-07
1.29274e-07
1.29281e-07
1.29283e-07
1.29283e-07
1.29307e-07
1.29318e-07
1.29307e-07
1.29323e-07
1.29342e-07
1.2937e-07
1.29373e-07
1.29401e-07
1.29418e-07
1.2943e-07
1.29447e-07
1.29456e-07
1.29482e-07
1.29486e-07
1.29506e-07
1.29512e-07
1.29523e-07
1.2954e-07
1.29553e-07
1.2957e-07
1.29587e-07
1.29609e-07
1.29619e-07
1.29644e-07
1.29659e-07
1.2969e-07
1.29711e-07
1.29754e-07
1.2978e-07
1.2983e-07
1.29862e-07
1.29927e-07
1.29964e-07
1.30082e-07
1.30114e-07
1.31314e-07
1.35916e-07
2.78331e-08
1.23794e-07
1.23605e-07
1.24066e-07
1.24665e-07
1.25222e-07
1.25697e-07
1.26101e-07
1.26441e-07
1.26734e-07
1.26985e-07
1.27206e-07
1.27395e-07
1.27566e-07
1.27714e-07
1.27849e-07
1.27967e-07
1.28076e-07
1.2817e-07
1.28259e-07
1.28337e-07
1.28412e-07
1.28476e-07
1.28538e-07
1.28592e-07
1.28644e-07
1.28689e-07
1.28734e-07
1.28773e-07
1.28811e-07
1.28845e-07
1.28878e-07
1.28909e-07
1.28938e-07
1.28959e-07
1.28984e-07
1.29008e-07
1.29033e-07
1.29049e-07
1.2907e-07
1.2909e-07
1.29108e-07
1.29117e-07
1.29137e-07
1.29155e-07
1.29158e-07
1.29167e-07
1.29183e-07
1.29192e-07
1.29208e-07
1.29214e-07
1.29222e-07
1.29236e-07
1.29243e-07
1.29249e-07
1.29261e-07
1.29268e-07
1.2927e-07
1.2927e-07
1.29294e-07
1.29306e-07
1.29294e-07
1.2931e-07
1.29329e-07
1.29357e-07
1.2936e-07
1.29389e-07
1.29405e-07
1.29418e-07
1.29434e-07
1.29443e-07
1.29469e-07
1.29474e-07
1.29494e-07
1.295e-07
1.29511e-07
1.29527e-07
1.29541e-07
1.29558e-07
1.29575e-07
1.29597e-07
1.29607e-07
1.29632e-07
1.29647e-07
1.29678e-07
1.29699e-07
1.29742e-07
1.29768e-07
1.29818e-07
1.2985e-07
1.29915e-07
1.29951e-07
1.3007e-07
1.30101e-07
1.31332e-07
1.35929e-07
2.91082e-08
1.23795e-07
1.23599e-07
1.24053e-07
1.24649e-07
1.25204e-07
1.25678e-07
1.26081e-07
1.26421e-07
1.26715e-07
1.26965e-07
1.27186e-07
1.27376e-07
1.27548e-07
1.27695e-07
1.27831e-07
1.27949e-07
1.28058e-07
1.28152e-07
1.28242e-07
1.2832e-07
1.28394e-07
1.28459e-07
1.28521e-07
1.28575e-07
1.28628e-07
1.28672e-07
1.28718e-07
1.28757e-07
1.28795e-07
1.28829e-07
1.28862e-07
1.28893e-07
1.28922e-07
1.28943e-07
1.28968e-07
1.28993e-07
1.29017e-07
1.29034e-07
1.29055e-07
1.29075e-07
1.29093e-07
1.29102e-07
1.29122e-07
1.2914e-07
1.29143e-07
1.29153e-07
1.29168e-07
1.29178e-07
1.29193e-07
1.292e-07
1.29208e-07
1.29222e-07
1.29229e-07
1.29235e-07
1.29246e-07
1.29254e-07
1.29256e-07
1.29256e-07
1.2928e-07
1.29291e-07
1.29281e-07
1.29296e-07
1.29315e-07
1.29344e-07
1.29347e-07
1.29375e-07
1.29391e-07
1.29404e-07
1.29421e-07
1.2943e-07
1.29456e-07
1.2946e-07
1.29481e-07
1.29487e-07
1.29497e-07
1.29514e-07
1.29528e-07
1.29545e-07
1.29562e-07
1.29584e-07
1.29594e-07
1.29619e-07
1.29634e-07
1.29665e-07
1.29686e-07
1.29729e-07
1.29755e-07
1.29805e-07
1.29837e-07
1.29901e-07
1.29938e-07
1.30057e-07
1.30087e-07
1.31353e-07
1.35942e-07
3.04456e-08
1.23795e-07
1.23591e-07
1.2404e-07
1.24631e-07
1.25185e-07
1.25657e-07
1.2606e-07
1.264e-07
1.26694e-07
1.26944e-07
1.27165e-07
1.27356e-07
1.27527e-07
1.27675e-07
1.27811e-07
1.27929e-07
1.28039e-07
1.28133e-07
1.28223e-07
1.28301e-07
1.28375e-07
1.2844e-07
1.28503e-07
1.28557e-07
1.28609e-07
1.28654e-07
1.287e-07
1.28739e-07
1.28777e-07
1.28811e-07
1.28844e-07
1.28876e-07
1.28905e-07
1.28926e-07
1.28951e-07
1.28976e-07
1.29e-07
1.29017e-07
1.29038e-07
1.29058e-07
1.29077e-07
1.29085e-07
1.29105e-07
1.29124e-07
1.29127e-07
1.29137e-07
1.29152e-07
1.29162e-07
1.29177e-07
1.29184e-07
1.29192e-07
1.29206e-07
1.29213e-07
1.29219e-07
1.29231e-07
1.29239e-07
1.2924e-07
1.29241e-07
1.29265e-07
1.29276e-07
1.29265e-07
1.29281e-07
1.293e-07
1.29328e-07
1.29332e-07
1.2936e-07
1.29376e-07
1.29389e-07
1.29406e-07
1.29415e-07
1.29441e-07
1.29446e-07
1.29466e-07
1.29472e-07
1.29483e-07
1.29499e-07
1.29514e-07
1.2953e-07
1.29548e-07
1.29569e-07
1.2958e-07
1.29604e-07
1.2962e-07
1.29651e-07
1.29672e-07
1.29714e-07
1.2974e-07
1.29791e-07
1.29822e-07
1.29887e-07
1.29923e-07
1.30042e-07
1.30072e-07
1.31376e-07
1.35958e-07
3.18487e-08
1.23795e-07
1.23584e-07
1.24025e-07
1.24612e-07
1.25163e-07
1.25635e-07
1.26037e-07
1.26377e-07
1.26671e-07
1.26921e-07
1.27143e-07
1.27333e-07
1.27505e-07
1.27653e-07
1.27789e-07
1.27907e-07
1.28017e-07
1.28112e-07
1.28202e-07
1.2828e-07
1.28355e-07
1.2842e-07
1.28482e-07
1.28537e-07
1.2859e-07
1.28635e-07
1.2868e-07
1.28719e-07
1.28758e-07
1.28792e-07
1.28825e-07
1.28857e-07
1.28886e-07
1.28907e-07
1.28933e-07
1.28957e-07
1.28982e-07
1.28999e-07
1.2902e-07
1.2904e-07
1.29059e-07
1.29068e-07
1.29088e-07
1.29106e-07
1.2911e-07
1.29119e-07
1.29135e-07
1.29144e-07
1.2916e-07
1.29167e-07
1.29175e-07
1.29189e-07
1.29196e-07
1.29202e-07
1.29214e-07
1.29222e-07
1.29224e-07
1.29224e-07
1.29248e-07
1.29259e-07
1.29249e-07
1.29264e-07
1.29283e-07
1.29312e-07
1.29315e-07
1.29343e-07
1.2936e-07
1.29373e-07
1.2939e-07
1.29399e-07
1.29425e-07
1.2943e-07
1.2945e-07
1.29456e-07
1.29467e-07
1.29484e-07
1.29498e-07
1.29515e-07
1.29532e-07
1.29554e-07
1.29564e-07
1.29589e-07
1.29604e-07
1.29635e-07
1.29656e-07
1.29699e-07
1.29725e-07
1.29775e-07
1.29806e-07
1.29871e-07
1.29907e-07
1.30027e-07
1.30055e-07
1.31402e-07
1.35974e-07
3.33212e-08
1.23795e-07
1.23576e-07
1.24009e-07
1.24592e-07
1.2514e-07
1.25611e-07
1.26013e-07
1.26352e-07
1.26646e-07
1.26896e-07
1.27118e-07
1.27309e-07
1.27481e-07
1.27629e-07
1.27765e-07
1.27884e-07
1.27994e-07
1.28089e-07
1.28179e-07
1.28258e-07
1.28333e-07
1.28398e-07
1.28461e-07
1.28515e-07
1.28568e-07
1.28613e-07
1.28659e-07
1.28698e-07
1.28738e-07
1.28771e-07
1.28805e-07
1.28837e-07
1.28866e-07
1.28887e-07
1.28913e-07
1.28937e-07
1.28962e-07
1.2898e-07
1.29e-07
1.29021e-07
1.2904e-07
1.29049e-07
1.29068e-07
1.29087e-07
1.29091e-07
1.291e-07
1.29116e-07
1.29126e-07
1.29142e-07
1.29148e-07
1.29157e-07
1.2917e-07
1.29178e-07
1.29184e-07
1.29195e-07
1.29204e-07
1.29205e-07
1.29206e-07
1.2923e-07
1.29241e-07
1.29231e-07
1.29246e-07
1.29266e-07
1.29294e-07
1.29297e-07
1.29326e-07
1.29343e-07
1.29356e-07
1.29373e-07
1.29382e-07
1.29407e-07
1.29413e-07
1.29433e-07
1.29439e-07
1.2945e-07
1.29467e-07
1.29481e-07
1.29498e-07
1.29515e-07
1.29537e-07
1.29548e-07
1.29572e-07
1.29588e-07
1.29619e-07
1.2964e-07
1.29682e-07
1.29708e-07
1.29758e-07
1.29789e-07
1.29854e-07
1.29889e-07
1.3001e-07
1.30038e-07
1.3143e-07
1.35992e-07
3.48669e-08
1.23795e-07
1.23567e-07
1.23992e-07
1.24569e-07
1.25115e-07
1.25585e-07
1.25986e-07
1.26325e-07
1.26619e-07
1.26869e-07
1.27091e-07
1.27282e-07
1.27455e-07
1.27603e-07
1.2774e-07
1.27859e-07
1.27969e-07
1.28064e-07
1.28155e-07
1.28233e-07
1.28309e-07
1.28374e-07
1.28437e-07
1.28492e-07
1.28545e-07
1.2859e-07
1.28637e-07
1.28676e-07
1.28715e-07
1.28749e-07
1.28783e-07
1.28815e-07
1.28844e-07
1.28866e-07
1.28891e-07
1.28916e-07
1.28941e-07
1.28958e-07
1.28979e-07
1.29e-07
1.29019e-07
1.29028e-07
1.29048e-07
1.29066e-07
1.29071e-07
1.2908e-07
1.29096e-07
1.29106e-07
1.29122e-07
1.29128e-07
1.29137e-07
1.29151e-07
1.29158e-07
1.29164e-07
1.29176e-07
1.29185e-07
1.29186e-07
1.29186e-07
1.2921e-07
1.29222e-07
1.29212e-07
1.29227e-07
1.29246e-07
1.29275e-07
1.29278e-07
1.29307e-07
1.29324e-07
1.29337e-07
1.29354e-07
1.29363e-07
1.29389e-07
1.29394e-07
1.29415e-07
1.29421e-07
1.29432e-07
1.29448e-07
1.29463e-07
1.2948e-07
1.29497e-07
1.29519e-07
1.2953e-07
1.29554e-07
1.2957e-07
1.29601e-07
1.29622e-07
1.29664e-07
1.2969e-07
1.2974e-07
1.29771e-07
1.29835e-07
1.29871e-07
1.29992e-07
1.30019e-07
1.31461e-07
1.36011e-07
3.64897e-08
1.23796e-07
1.23558e-07
1.23973e-07
1.24546e-07
1.25089e-07
1.25557e-07
1.25957e-07
1.26296e-07
1.2659e-07
1.26841e-07
1.27063e-07
1.27254e-07
1.27427e-07
1.27576e-07
1.27713e-07
1.27832e-07
1.27942e-07
1.28038e-07
1.28129e-07
1.28208e-07
1.28283e-07
1.28348e-07
1.28412e-07
1.28467e-07
1.2852e-07
1.28566e-07
1.28612e-07
1.28652e-07
1.28691e-07
1.28725e-07
1.28759e-07
1.28791e-07
1.28821e-07
1.28842e-07
1.28868e-07
1.28893e-07
1.28918e-07
1.28936e-07
1.28957e-07
1.28977e-07
1.28996e-07
1.29006e-07
1.29026e-07
1.29044e-07
1.29049e-07
1.29058e-07
1.29074e-07
1.29084e-07
1.291e-07
1.29107e-07
1.29116e-07
1.29129e-07
1.29137e-07
1.29143e-07
1.29155e-07
1.29164e-07
1.29165e-07
1.29165e-07
1.29189e-07
1.29201e-07
1.29191e-07
1.29207e-07
1.29225e-07
1.29254e-07
1.29258e-07
1.29286e-07
1.29303e-07
1.29317e-07
1.29334e-07
1.29343e-07
1.29369e-07
1.29374e-07
1.29395e-07
1.29402e-07
1.29412e-07
1.29429e-07
1.29444e-07
1.2946e-07
1.29477e-07
1.295e-07
1.2951e-07
1.29535e-07
1.29551e-07
1.29581e-07
1.29602e-07
1.29644e-07
1.2967e-07
1.2972e-07
1.29751e-07
1.29815e-07
1.29851e-07
1.29972e-07
1.29998e-07
1.31495e-07
1.36031e-07
3.81937e-08
1.23796e-07
1.23548e-07
1.23954e-07
1.2452e-07
1.2506e-07
1.25527e-07
1.25927e-07
1.26265e-07
1.26559e-07
1.2681e-07
1.27032e-07
1.27224e-07
1.27397e-07
1.27546e-07
1.27683e-07
1.27803e-07
1.27914e-07
1.28009e-07
1.28101e-07
1.2818e-07
1.28256e-07
1.28321e-07
1.28385e-07
1.2844e-07
1.28494e-07
1.2854e-07
1.28586e-07
1.28626e-07
1.28666e-07
1.287e-07
1.28734e-07
1.28766e-07
1.28796e-07
1.28818e-07
1.28844e-07
1.28868e-07
1.28894e-07
1.28911e-07
1.28933e-07
1.28953e-07
1.28973e-07
1.28982e-07
1.29002e-07
1.29021e-07
1.29026e-07
1.29035e-07
1.29051e-07
1.29061e-07
1.29077e-07
1.29084e-07
1.29093e-07
1.29107e-07
1.29115e-07
1.29121e-07
1.29132e-07
1.29142e-07
1.29142e-07
1.29142e-07
1.29167e-07
1.29179e-07
1.29169e-07
1.29185e-07
1.29203e-07
1.29233e-07
1.29236e-07
1.29265e-07
1.29282e-07
1.29296e-07
1.29312e-07
1.29322e-07
1.29347e-07
1.29353e-07
1.29374e-07
1.29381e-07
1.29391e-07
1.29408e-07
1.29423e-07
1.2944e-07
1.29457e-07
1.29479e-07
1.2949e-07
1.29515e-07
1.2953e-07
1.29561e-07
1.29582e-07
1.29624e-07
1.29649e-07
1.29699e-07
1.2973e-07
1.29794e-07
1.29829e-07
1.29951e-07
1.29976e-07
1.31531e-07
1.36052e-07
3.99829e-08
1.23796e-07
1.23537e-07
1.23933e-07
1.24494e-07
1.2503e-07
1.25495e-07
1.25894e-07
1.26232e-07
1.26526e-07
1.26777e-07
1.27e-07
1.27192e-07
1.27365e-07
1.27515e-07
1.27652e-07
1.27772e-07
1.27883e-07
1.27979e-07
1.28071e-07
1.2815e-07
1.28227e-07
1.28292e-07
1.28356e-07
1.28412e-07
1.28466e-07
1.28512e-07
1.28558e-07
1.28598e-07
1.28638e-07
1.28673e-07
1.28707e-07
1.28739e-07
1.28769e-07
1.28791e-07
1.28817e-07
1.28842e-07
1.28868e-07
1.28886e-07
1.28907e-07
1.28928e-07
1.28947e-07
1.28957e-07
1.28977e-07
1.28996e-07
1.29001e-07
1.2901e-07
1.29026e-07
1.29036e-07
1.29053e-07
1.2906e-07
1.29069e-07
1.29083e-07
1.29091e-07
1.29097e-07
1.29108e-07
1.29118e-07
1.29118e-07
1.29119e-07
1.29143e-07
1.29155e-07
1.29146e-07
1.29161e-07
1.2918e-07
1.29209e-07
1.29213e-07
1.29241e-07
1.29258e-07
1.29273e-07
1.29289e-07
1.29299e-07
1.29324e-07
1.2933e-07
1.29351e-07
1.29358e-07
1.29369e-07
1.29385e-07
1.29401e-07
1.29418e-07
1.29434e-07
1.29457e-07
1.29468e-07
1.29493e-07
1.29508e-07
1.29539e-07
1.2956e-07
1.29601e-07
1.29627e-07
1.29677e-07
1.29708e-07
1.29772e-07
1.29807e-07
1.29929e-07
1.29953e-07
1.3157e-07
1.36075e-07
4.18615e-08
1.23797e-07
1.23527e-07
1.23912e-07
1.24465e-07
1.24998e-07
1.25461e-07
1.25859e-07
1.26197e-07
1.26491e-07
1.26742e-07
1.26965e-07
1.27157e-07
1.27331e-07
1.27481e-07
1.27619e-07
1.27739e-07
1.27851e-07
1.27947e-07
1.28039e-07
1.28119e-07
1.28195e-07
1.28261e-07
1.28326e-07
1.28381e-07
1.28436e-07
1.28482e-07
1.28529e-07
1.28569e-07
1.28609e-07
1.28644e-07
1.28678e-07
1.28711e-07
1.28741e-07
1.28763e-07
1.28789e-07
1.28814e-07
1.2884e-07
1.28858e-07
1.28879e-07
1.289e-07
1.2892e-07
1.2893e-07
1.2895e-07
1.28969e-07
1.28975e-07
1.28984e-07
1.29e-07
1.2901e-07
1.29027e-07
1.29034e-07
1.29043e-07
1.29057e-07
1.29066e-07
1.29071e-07
1.29082e-07
1.29092e-07
1.29093e-07
1.29093e-07
1.29117e-07
1.2913e-07
1.29121e-07
1.29136e-07
1.29154e-07
1.29184e-07
1.29188e-07
1.29217e-07
1.29234e-07
1.29249e-07
1.29265e-07
1.29275e-07
1.293e-07
1.29306e-07
1.29328e-07
1.29335e-07
1.29345e-07
1.29361e-07
1.29377e-07
1.29394e-07
1.29411e-07
1.29434e-07
1.29445e-07
1.29469e-07
1.29485e-07
1.29516e-07
1.29536e-07
1.29578e-07
1.29604e-07
1.29653e-07
1.29684e-07
1.29748e-07
1.29782e-07
1.29906e-07
1.29928e-07
1.3161e-07
1.36098e-07
4.38331e-08
1.23797e-07
1.23515e-07
1.23889e-07
1.24435e-07
1.24965e-07
1.25425e-07
1.25823e-07
1.2616e-07
1.26454e-07
1.26705e-07
1.26929e-07
1.27121e-07
1.27295e-07
1.27445e-07
1.27584e-07
1.27704e-07
1.27816e-07
1.27913e-07
1.28005e-07
1.28085e-07
1.28162e-07
1.28229e-07
1.28293e-07
1.28349e-07
1.28404e-07
1.2845e-07
1.28497e-07
1.28538e-07
1.28578e-07
1.28613e-07
1.28648e-07
1.2868e-07
1.28711e-07
1.28733e-07
1.2876e-07
1.28785e-07
1.28811e-07
1.28829e-07
1.2885e-07
1.28871e-07
1.28891e-07
1.28901e-07
1.28921e-07
1.28941e-07
1.28947e-07
1.28956e-07
1.28972e-07
1.28982e-07
1.28999e-07
1.29006e-07
1.29016e-07
1.2903e-07
1.29039e-07
1.29044e-07
1.29055e-07
1.29065e-07
1.29066e-07
1.29066e-07
1.2909e-07
1.29103e-07
1.29094e-07
1.2911e-07
1.29128e-07
1.29158e-07
1.29162e-07
1.2919e-07
1.29208e-07
1.29223e-07
1.29239e-07
1.29249e-07
1.29274e-07
1.29281e-07
1.29302e-07
1.29309e-07
1.2932e-07
1.29336e-07
1.29352e-07
1.29369e-07
1.29386e-07
1.29409e-07
1.2942e-07
1.29444e-07
1.2946e-07
1.29491e-07
1.29511e-07
1.29553e-07
1.29579e-07
1.29628e-07
1.29659e-07
1.29722e-07
1.29757e-07
1.29881e-07
1.29902e-07
1.31653e-07
1.36122e-07
4.59016e-08
1.23798e-07
1.23504e-07
1.23865e-07
1.24404e-07
1.24929e-07
1.25388e-07
1.25784e-07
1.26121e-07
1.26415e-07
1.26666e-07
1.2689e-07
1.27082e-07
1.27257e-07
1.27408e-07
1.27547e-07
1.27667e-07
1.2778e-07
1.27877e-07
1.27969e-07
1.2805e-07
1.28127e-07
1.28194e-07
1.28259e-07
1.28315e-07
1.2837e-07
1.28417e-07
1.28464e-07
1.28505e-07
1.28545e-07
1.28581e-07
1.28615e-07
1.28648e-07
1.28679e-07
1.28702e-07
1.28728e-07
1.28753e-07
1.2878e-07
1.28798e-07
1.2882e-07
1.28841e-07
1.28861e-07
1.28871e-07
1.28891e-07
1.28911e-07
1.28917e-07
1.28926e-07
1.28943e-07
1.28953e-07
1.2897e-07
1.28977e-07
1.28987e-07
1.29001e-07
1.2901e-07
1.29016e-07
1.29026e-07
1.29037e-07
1.29037e-07
1.29038e-07
1.29062e-07
1.29074e-07
1.29066e-07
1.29082e-07
1.291e-07
1.2913e-07
1.29134e-07
1.29163e-07
1.2918e-07
1.29196e-07
1.29212e-07
1.29222e-07
1.29246e-07
1.29254e-07
1.29275e-07
1.29282e-07
1.29293e-07
1.29309e-07
1.29326e-07
1.29342e-07
1.29359e-07
1.29382e-07
1.29394e-07
1.29418e-07
1.29434e-07
1.29465e-07
1.29485e-07
1.29526e-07
1.29552e-07
1.29601e-07
1.29632e-07
1.29695e-07
1.2973e-07
1.29854e-07
1.29875e-07
1.31698e-07
1.36146e-07
4.80698e-08
1.23798e-07
1.23492e-07
1.23841e-07
1.24371e-07
1.24892e-07
1.25348e-07
1.25743e-07
1.26079e-07
1.26373e-07
1.26625e-07
1.26849e-07
1.27042e-07
1.27217e-07
1.27368e-07
1.27507e-07
1.27628e-07
1.27741e-07
1.27839e-07
1.27932e-07
1.28013e-07
1.2809e-07
1.28157e-07
1.28223e-07
1.28279e-07
1.28334e-07
1.28381e-07
1.28429e-07
1.2847e-07
1.28511e-07
1.28546e-07
1.28581e-07
1.28614e-07
1.28645e-07
1.28668e-07
1.28695e-07
1.2872e-07
1.28747e-07
1.28765e-07
1.28787e-07
1.28808e-07
1.28829e-07
1.28839e-07
1.28859e-07
1.28879e-07
1.28886e-07
1.28895e-07
1.28912e-07
1.28922e-07
1.28939e-07
1.28946e-07
1.28957e-07
1.2897e-07
1.2898e-07
1.28986e-07
1.28996e-07
1.29006e-07
1.29007e-07
1.29007e-07
1.29031e-07
1.29044e-07
1.29037e-07
1.29052e-07
1.2907e-07
1.291e-07
1.29105e-07
1.29133e-07
1.29151e-07
1.29167e-07
1.29183e-07
1.29193e-07
1.29217e-07
1.29225e-07
1.29247e-07
1.29254e-07
1.29265e-07
1.29281e-07
1.29298e-07
1.29314e-07
1.29331e-07
1.29354e-07
1.29366e-07
1.2939e-07
1.29406e-07
1.29437e-07
1.29457e-07
1.29498e-07
1.29524e-07
1.29573e-07
1.29604e-07
1.29667e-07
1.29701e-07
1.29826e-07
1.29846e-07
1.31744e-07
1.3617e-07
5.03401e-08
1.23799e-07
1.23479e-07
1.23815e-07
1.24337e-07
1.24853e-07
1.25306e-07
1.257e-07
1.26036e-07
1.2633e-07
1.26581e-07
1.26805e-07
1.26999e-07
1.27174e-07
1.27326e-07
1.27466e-07
1.27587e-07
1.27701e-07
1.27798e-07
1.27892e-07
1.27973e-07
1.28051e-07
1.28118e-07
1.28184e-07
1.28241e-07
1.28297e-07
1.28344e-07
1.28392e-07
1.28433e-07
1.28474e-07
1.2851e-07
1.28545e-07
1.28578e-07
1.2861e-07
1.28633e-07
1.2866e-07
1.28685e-07
1.28712e-07
1.28731e-07
1.28753e-07
1.28774e-07
1.28795e-07
1.28805e-07
1.28825e-07
1.28846e-07
1.28853e-07
1.28862e-07
1.28879e-07
1.28889e-07
1.28906e-07
1.28914e-07
1.28924e-07
1.28938e-07
1.28948e-07
1.28954e-07
1.28964e-07
1.28974e-07
1.28975e-07
1.28976e-07
1.28999e-07
1.29013e-07
1.29006e-07
1.29021e-07
1.29038e-07
1.29069e-07
1.29074e-07
1.29102e-07
1.2912e-07
1.29137e-07
1.29152e-07
1.29163e-07
1.29187e-07
1.29195e-07
1.29216e-07
1.29224e-07
1.29235e-07
1.29251e-07
1.29268e-07
1.29285e-07
1.29302e-07
1.29325e-07
1.29336e-07
1.29361e-07
1.29377e-07
1.29408e-07
1.29428e-07
1.29469e-07
1.29494e-07
1.29543e-07
1.29574e-07
1.29637e-07
1.2967e-07
1.29797e-07
1.29815e-07
1.31791e-07
1.36193e-07
5.27136e-08
1.238e-07
1.23466e-07
1.23788e-07
1.24301e-07
1.24812e-07
1.25262e-07
1.25655e-07
1.2599e-07
1.26284e-07
1.26535e-07
1.2676e-07
1.26953e-07
1.27129e-07
1.27281e-07
1.27422e-07
1.27543e-07
1.27658e-07
1.27756e-07
1.2785e-07
1.27931e-07
1.2801e-07
1.28078e-07
1.28144e-07
1.28201e-07
1.28257e-07
1.28305e-07
1.28353e-07
1.28394e-07
1.28436e-07
1.28472e-07
1.28507e-07
1.28541e-07
1.28572e-07
1.28596e-07
1.28623e-07
1.28648e-07
1.28675e-07
1.28694e-07
1.28717e-07
1.28738e-07
1.28759e-07
1.2877e-07
1.2879e-07
1.2881e-07
1.28818e-07
1.28827e-07
1.28844e-07
1.28855e-07
1.28872e-07
1.2888e-07
1.28891e-07
1.28904e-07