/*--------------------------------*- C++ -*----------------------------------*\
| =========                 |                                                 |
| \\      /  F ield         | OpenFOAM: The Open Source CFD Toolbox           |
|  \\    /   O peration     | Version:  v2012                                 |
|   \\  /    A nd           | Website:  www.openfoam.com                      |
|    \\/     M anipulation  |                                                 |
\*---------------------------------------------------------------------------*/
FoamFile
{
    version     2.0;
    format      ascii;
    class       volScalarField;
    location    "19.5";
    object      omega;
}
// * * * * * * * * * * * * * * * * * * * * * * * * * * * * * * * * * * * * * //

dimensions      [0 0 -1 0 0 0 0];


internalField   nonuniform List<scalar> 
209825
(
8235.82
7579.15
7141.57
6851.61
6651.46
6507.19
6398.72
6314.94
6248.3
6194.6
6150.28
6113.57
6082.44
6056.17
6033.41
6013.95
5996.8
5982
5968.73
5957.23
5946.77
5937.66
5929.25
5921.99
5915.19
5909.25
5903.61
5898.8
5894.16
5890.14
5886.24
5882.94
5879.64
5876.95
5874.2
5871.89
5869.49
5867.66
5865.67
5864.05
5862.28
5861.14
5859.59
5858.32
5857.16
5856.39
5855.53
5855
5854.18
5853.65
5852.54
5852.05
5851.8
5851.52
5850.73
5851.16
5851.16
5851.16
5851.13
5850.86
5851.41
5851.4
5851.4
5851.57
5852.6
5852.61
5852.6
5853.21
5853.21
5854.26
5854.26
5855.68
5855.8
5857.26
5857.96
5858.99
5859.61
5861.04
5861.67
5863.11
5864.01
5865.66
5866.52
5868.37
5869.26
5871.23
5872.26
5874.61
5875.78
5878.73
5879.91
5884.52
5885.05
5924.04
6090.22
114929
8235.82
7579.14
7141.54
6851.54
6651.37
6507.08
6398.59
6314.8
6248.15
6194.44
6150.11
6113.39
6082.26
6055.98
6033.22
6013.76
5996.59
5981.79
5968.52
5957.02
5946.56
5937.45
5929.04
5921.78
5914.98
5909.03
5903.39
5898.58
5893.94
5889.92
5886.02
5882.71
5879.42
5876.72
5873.97
5871.66
5869.26
5867.43
5865.44
5863.82
5862.05
5860.91
5859.36
5858.09
5856.93
5856.16
5855.29
5854.77
5853.95
5853.42
5852.31
5851.82
5851.57
5851.29
5850.49
5850.92
5850.93
5850.92
5850.9
5850.63
5851.17
5851.17
5851.17
5851.34
5852.37
5852.37
5852.37
5852.97
5852.97
5854.02
5854.02
5855.44
5855.56
5857.02
5857.72
5858.75
5859.37
5860.8
5861.43
5862.87
5863.78
5865.42
5866.28
5868.13
5869.02
5871
5872.03
5874.37
5875.54
5878.49
5879.67
5884.28
5884.81
5923.87
6090.06
111633
8235.84
7579.11
7141.4
6851.3
6651.04
6506.69
6398.14
6314.3
6247.62
6193.88
6149.53
6112.79
6081.64
6055.34
6032.57
6013.09
5995.92
5981.11
5967.83
5956.32
5945.86
5936.74
5928.32
5921.06
5914.25
5908.3
5902.66
5897.84
5893.2
5889.18
5885.27
5881.96
5878.67
5875.97
5873.22
5870.91
5868.5
5866.67
5864.68
5863.06
5861.29
5860.14
5858.59
5857.32
5856.16
5855.39
5854.52
5854
5853.18
5852.65
5851.54
5851.05
5850.79
5850.51
5849.72
5850.15
5850.15
5850.14
5850.12
5849.85
5850.39
5850.39
5850.38
5850.55
5851.58
5851.59
5851.59
5852.19
5852.19
5853.24
5853.24
5854.66
5854.78
5856.23
5856.93
5857.97
5858.58
5860.01
5860.64
5862.08
5862.99
5864.63
5865.49
5867.34
5868.23
5870.2
5871.23
5873.58
5874.75
5877.7
5878.88
5883.49
5884.01
5923.23
6089.43
107850
8235.87
7579.04
7141.15
6850.88
6650.48
6506
6397.36
6313.46
6246.71
6192.92
6148.52
6111.75
6080.57
6054.25
6031.45
6011.96
5994.77
5979.94
5966.65
5955.12
5944.65
5935.52
5927.1
5919.82
5913.01
5907.05
5901.4
5896.58
5891.93
5887.9
5883.99
5880.68
5877.38
5874.68
5871.92
5869.61
5867.2
5865.37
5863.37
5861.76
5859.98
5858.83
5857.28
5856.01
5854.85
5854.07
5853.2
5852.67
5851.85
5851.32
5850.21
5849.72
5849.46
5849.18
5848.39
5848.81
5848.81
5848.81
5848.78
5848.51
5849.05
5849.05
5849.05
5849.21
5850.24
5850.25
5850.24
5850.85
5850.85
5851.89
5851.89
5853.31
5853.43
5854.89
5855.59
5856.62
5857.23
5858.66
5859.29
5860.73
5861.63
5863.28
5864.14
5865.98
5866.88
5868.85
5869.88
5872.22
5873.39
5876.34
5877.52
5882.13
5882.64
5922.1
6088.28
103961
8235.92
7578.95
7140.8
6850.28
6649.67
6505.03
6396.26
6312.24
6245.41
6191.55
6147.09
6110.27
6079.04
6052.68
6029.86
6010.33
5993.12
5978.27
5964.96
5953.42
5942.92
5933.78
5925.34
5918.06
5911.23
5905.27
5899.61
5894.78
5890.12
5886.09
5882.17
5878.85
5875.55
5872.84
5870.08
5867.76
5865.35
5863.51
5861.51
5859.89
5858.11
5856.96
5855.41
5854.13
5852.97
5852.19
5851.32
5850.79
5849.97
5849.44
5848.32
5847.83
5847.57
5847.29
5846.49
5846.91
5846.91
5846.91
5846.88
5846.61
5847.15
5847.14
5847.14
5847.31
5848.33
5848.33
5848.33
5848.93
5848.93
5849.98
5849.98
5851.39
5851.51
5852.97
5853.66
5854.7
5855.31
5856.74
5857.37
5858.8
5859.71
5861.35
5862.21
5864.05
5864.95
5866.92
5867.95
5870.29
5871.45
5874.4
5875.58
5880.19
5880.69
5920.49
6086.57
100071
8235.98
7578.82
7140.34
6849.5
6648.61
6503.76
6394.82
6310.66
6243.72
6189.76
6145.23
6108.34
6077.05
6050.65
6027.78
6008.22
5990.97
5976.09
5962.75
5951.19
5940.68
5931.52
5923.06
5915.76
5908.92
5902.94
5897.27
5892.43
5887.76
5883.72
5879.8
5876.47
5873.16
5870.44
5867.68
5865.36
5862.94
5861.09
5859.09
5857.46
5855.68
5854.53
5852.97
5851.69
5850.52
5849.74
5848.87
5848.33
5847.51
5846.98
5845.86
5845.37
5845.1
5844.82
5844.02
5844.43
5844.44
5844.43
5844.4
5844.13
5844.66
5844.66
5844.65
5844.81
5845.84
5845.84
5845.84
5846.44
5846.44
5847.48
5847.48
5848.89
5849.01
5850.46
5851.16
5852.2
5852.8
5854.23
5854.86
5856.29
5857.19
5858.84
5859.69
5861.54
5862.43
5864.4
5865.43
5867.76
5868.93
5871.88
5873.05
5877.65
5878.15
5918.38
6084.3
96217.9
8236.05
7578.67
7139.78
6848.53
6647.31
6502.19
6393.03
6308.71
6241.62
6187.55
6142.92
6105.95
6074.59
6048.13
6025.2
6005.6
5988.31
5973.39
5960.03
5948.43
5937.89
5928.71
5920.23
5912.91
5906.06
5900.07
5894.38
5889.52
5884.84
5880.79
5876.86
5873.52
5870.2
5867.48
5864.7
5862.37
5859.95
5858.1
5856.09
5854.46
5852.67
5851.51
5849.94
5848.67
5847.49
5846.71
5845.83
5845.29
5844.46
5843.93
5842.81
5842.31
5842.05
5841.76
5840.96
5841.37
5841.37
5841.36
5841.33
5841.05
5841.58
5841.58
5841.58
5841.73
5842.75
5842.75
5842.75
5843.35
5843.35
5844.38
5844.38
5845.8
5845.91
5847.36
5848.06
5849.1
5849.7
5851.12
5851.75
5853.18
5854.08
5855.73
5856.58
5858.42
5859.31
5861.28
5862.31
5864.64
5865.81
5868.75
5869.91
5874.52
5875
5915.77
6081.45
92422.5
8236.14
7578.49
7139.11
6847.37
6645.75
6500.31
6390.9
6306.37
6239.12
6184.91
6140.16
6103.09
6071.65
6045.11
6022.13
6002.47
5985.13
5970.17
5956.76
5945.14
5934.57
5925.36
5916.85
5909.51
5902.63
5896.62
5890.92
5886.05
5881.35
5877.29
5873.34
5869.99
5866.66
5863.93
5861.14
5858.81
5856.37
5854.51
5852.5
5850.86
5849.06
5847.9
5846.33
5845.05
5843.87
5843.08
5842.19
5841.65
5840.82
5840.29
5839.17
5838.66
5838.39
5838.1
5837.3
5837.7
5837.7
5837.69
5837.66
5837.37
5837.9
5837.9
5837.89
5838.04
5839.06
5839.06
5839.06
5839.66
5839.65
5840.68
5840.68
5842.09
5842.21
5843.65
5844.35
5845.39
5845.98
5847.4
5848.03
5849.46
5850.36
5852
5852.85
5854.69
5855.58
5857.55
5858.57
5860.9
5862.07
5865
5866.17
5870.77
5871.24
5912.65
6078.01
88693
8236.25
7578.28
7138.33
6846.03
6643.94
6498.13
6388.42
6303.65
6236.2
6181.83
6136.95
6099.76
6068.22
6041.6
6018.54
5998.81
5981.42
5966.41
5952.96
5941.29
5930.69
5921.44
5912.91
5905.54
5898.64
5892.61
5886.88
5881.99
5877.28
5873.2
5869.24
5865.88
5862.53
5859.79
5856.99
5854.64
5852.2
5850.33
5848.31
5846.67
5844.86
5843.69
5842.11
5840.83
5839.64
5838.85
5837.95
5837.41
5836.57
5836.03
5834.92
5834.4
5834.13
5833.83
5833.02
5833.42
5833.42
5833.41
5833.38
5833.08
5833.6
5833.6
5833.6
5833.74
5834.75
5834.75
5834.75
5835.34
5835.34
5836.37
5836.37
5837.77
5837.88
5839.32
5840.02
5841.06
5841.65
5843.07
5843.69
5845.12
5846.02
5847.66
5848.5
5850.34
5851.23
5853.19
5854.22
5856.54
5857.7
5860.64
5861.79
5866.4
5866.84
5909.02
6073.98
85032.3
8236.37
7578.04
7137.44
6844.5
6641.87
6495.63
6385.58
6300.54
6232.86
6178.31
6133.27
6095.95
6064.3
6037.58
6014.43
5994.63
5977.17
5962.1
5948.6
5936.89
5926.24
5916.96
5908.39
5900.99
5894.06
5888.01
5882.26
5877.34
5872.61
5868.52
5864.54
5861.16
5857.8
5855.04
5852.23
5849.88
5847.42
5845.54
5843.51
5841.86
5840.04
5838.86
5837.28
5835.99
5834.79
5833.99
5833.09
5832.54
5831.7
5831.16
5830.04
5829.52
5829.24
5828.94
5828.13
5828.51
5828.51
5828.5
5828.46
5828.16
5828.68
5828.68
5828.67
5828.81
5829.81
5829.82
5829.81
5830.4
5830.4
5831.42
5831.42
5832.81
5832.92
5834.35
5835.06
5836.1
5836.68
5838.1
5838.72
5840.15
5841.04
5842.68
5843.52
5845.36
5846.25
5848.2
5849.22
5851.55
5852.7
5855.63
5856.78
5861.38
5861.81
5904.87
6069.35
81438.4
8236.5
7577.78
7136.44
6842.78
6639.54
6492.82
6382.39
6297.03
6229.1
6174.34
6129.12
6091.65
6059.87
6033.04
6009.79
5989.91
5972.37
5957.24
5943.68
5931.91
5921.22
5911.9
5903.29
5895.86
5888.89
5882.81
5877.04
5872.1
5867.34
5863.23
5859.23
5855.83
5852.45
5849.68
5846.86
5844.49
5842.02
5840.13
5838.09
5836.43
5834.6
5833.41
5831.83
5830.52
5829.32
5828.51
5827.6
5827.05
5826.2
5825.66
5824.53
5824.01
5823.72
5823.42
5822.6
5822.97
5822.97
5822.96
5822.92
5822.61
5823.12
5823.12
5823.11
5823.24
5824.23
5824.24
5824.24
5824.82
5824.82
5825.83
5825.83
5827.22
5827.32
5828.75
5829.45
5830.49
5831.07
5832.48
5833.11
5834.53
5835.42
5837.05
5837.89
5839.72
5840.61
5842.57
5843.58
5845.9
5847.05
5849.97
5851.12
5855.72
5856.12
5900.19
6064.11
77905.7
8236.65
7577.49
7135.34
6840.87
6636.96
6489.69
6378.83
6293.12
6224.9
6169.9
6124.49
6086.85
6054.93
6027.97
6004.62
5984.64
5967.02
5951.82
5938.19
5926.36
5915.61
5906.25
5897.6
5890.12
5883.12
5877.01
5871.2
5866.24
5861.46
5857.32
5853.3
5849.88
5846.49
5843.7
5840.86
5838.47
5835.99
5834.09
5832.03
5830.36
5828.52
5827.32
5825.73
5824.42
5823.21
5822.39
5821.47
5820.91
5820.05
5819.51
5818.38
5817.85
5817.55
5817.25
5816.42
5816.77
5816.78
5816.77
5816.72
5816.4
5816.9
5816.9
5816.9
5817.01
5818
5818.01
5818.01
5818.58
5818.58
5819.58
5819.58
5820.97
5821.07
5822.49
5823.19
5824.24
5824.8
5826.21
5826.83
5828.25
5829.13
5830.77
5831.61
5833.43
5834.32
5836.27
5837.28
5839.59
5840.74
5843.65
5844.79
5849.39
5849.77
5894.97
6058.25
74427
8236.82
7577.18
7134.13
6838.76
6634.11
6486.24
6374.9
6288.81
6220.27
6165.01
6119.37
6081.55
6049.46
6022.37
5998.9
5978.82
5961.1
5945.82
5932.11
5920.22
5909.42
5900
5891.3
5883.78
5876.74
5870.59
5864.75
5859.76
5854.95
5850.78
5846.74
5843.3
5839.88
5837.08
5834.22
5831.82
5829.32
5827.4
5825.33
5823.65
5821.8
5820.59
5818.99
5817.67
5816.44
5815.62
5814.69
5814.12
5813.26
5812.71
5811.58
5811.03
5810.72
5810.42
5809.59
5809.92
5809.93
5809.92
5809.87
5809.54
5810.03
5810.03
5810.03
5810.13
5811.11
5811.11
5811.11
5811.68
5811.68
5812.67
5812.67
5814.05
5814.15
5815.56
5816.26
5817.31
5817.86
5819.27
5819.89
5821.31
5822.18
5823.81
5824.65
5826.47
5827.35
5829.3
5830.31
5832.61
5833.76
5836.66
5837.8
5842.39
5842.74
5889.22
6051.75
71008.7
8237
7576.84
7132.81
6836.47
6630.99
6482.47
6370.6
6284.08
6215.2
6159.65
6113.76
6075.73
6043.48
6016.23
5992.62
5972.43
5954.61
5939.23
5925.45
5913.49
5902.62
5893.14
5884.39
5876.82
5869.74
5863.55
5857.67
5852.64
5847.8
5843.61
5839.54
5836.08
5832.64
5829.81
5826.93
5824.51
5822
5820.06
5817.98
5816.28
5814.42
5813.19
5811.58
5810.25
5809.02
5808.18
5807.24
5806.66
5805.79
5805.24
5804.11
5803.55
5803.23
5802.92
5802.08
5802.4
5802.4
5802.39
5802.34
5802
5802.48
5802.48
5802.48
5802.57
5803.54
5803.54
5803.54
5804.1
5804.11
5805.09
5805.09
5806.46
5806.55
5807.95
5808.65
5809.7
5810.25
5811.65
5812.27
5813.68
5814.55
5816.18
5817.01
5818.82
5819.71
5821.65
5822.65
5824.95
5826.09
5828.99
5830.11
5834.7
5835.02
5882.92
6044.62
67657
8237.2
7576.48
7131.39
6833.99
6627.61
6478.37
6365.92
6278.94
6209.68
6153.81
6107.66
6069.4
6036.95
6009.54
5985.79
5965.46
5947.53
5932.06
5918.19
5906.15
5895.2
5885.66
5876.85
5869.23
5862.1
5855.87
5849.96
5844.89
5840.01
5835.79
5831.69
5828.2
5824.74
5821.88
5818.98
5816.55
5814.01
5812.06
5809.96
5808.25
5806.37
5805.13
5803.51
5802.17
5800.92
5800.07
5799.12
5798.53
5797.65
5797.09
5795.96
5795.39
5795.06
5794.75
5793.9
5794.2
5794.2
5794.19
5794.13
5793.78
5794.25
5794.25
5794.25
5794.32
5795.29
5795.29
5795.29
5795.84
5795.84
5796.81
5796.81
5798.17
5798.26
5799.66
5800.35
5801.41
5801.94
5803.34
5803.95
5805.36
5806.22
5807.85
5808.67
5810.48
5811.36
5813.3
5814.3
5816.59
5817.73
5820.61
5821.73
5826.31
5826.61
5876.05
6036.84
64377.4
8237.41
7576.1
7129.87
6831.31
6623.97
6473.95
6360.87
6273.38
6203.7
6147.49
6101.05
6062.55
6029.89
6002.29
5978.38
5957.92
5939.87
5924.29
5910.32
5898.19
5887.17
5877.56
5868.69
5861.01
5853.83
5847.55
5841.59
5836.48
5831.57
5827.31
5823.18
5819.67
5816.17
5813.29
5810.37
5807.91
5805.36
5803.38
5801.26
5799.54
5797.64
5796.39
5794.75
5793.4
5792.14
5791.28
5790.31
5789.71
5788.82
5788.26
5787.12
5786.55
5786.2
5785.88
5785.03
5785.31
5785.31
5785.29
5785.22
5784.87
5785.33
5785.33
5785.32
5785.38
5786.33
5786.33
5786.33
5786.88
5786.88
5787.84
5787.84
5789.19
5789.27
5790.66
5791.35
5792.41
5792.93
5794.32
5794.93
5796.34
5797.19
5798.81
5799.64
5801.44
5802.32
5804.25
5805.24
5807.52
5808.65
5811.53
5812.64
5817.22
5817.48
5868.62
6028.4
61175.1
8237.64
7575.7
7128.24
6828.45
6620.06
6469.19
6355.44
6267.4
6197.27
6140.69
6093.93
6055.17
6022.28
5994.49
5970.4
5949.79
5931.61
5915.91
5901.83
5889.62
5878.51
5868.82
5859.88
5852.14
5844.9
5838.57
5832.56
5827.41
5822.46
5818.17
5814
5810.45
5806.93
5804.02
5801.07
5798.59
5796.01
5794.02
5791.88
5790.14
5788.22
5786.95
5785.31
5783.95
5782.66
5781.79
5780.81
5780.2
5779.3
5778.73
5777.58
5777
5776.64
5776.31
5775.45
5775.71
5775.71
5775.69
5775.62
5775.24
5775.69
5775.69
5775.69
5775.73
5776.67
5776.67
5776.67
5777.21
5777.21
5778.15
5778.16
5779.49
5779.57
5780.95
5781.64
5782.7
5783.2
5784.59
5785.2
5786.6
5787.45
5789.06
5789.88
5791.67
5792.55
5794.47
5795.47
5797.74
5798.86
5801.73
5802.82
5807.4
5807.63
5860.62
6019.29
58055
8237.88
7575.27
7126.51
6825.4
6615.88
6464.11
6349.62
6261
6190.38
6133.39
6086.3
6047.25
6014.11
5986.11
5961.84
5941.07
5922.74
5906.91
5892.72
5880.41
5869.21
5859.44
5850.42
5842.62
5835.31
5828.93
5822.87
5817.67
5812.67
5808.34
5804.13
5800.56
5797
5794.06
5791.08
5788.58
5785.98
5783.96
5781.8
5780.04
5778.11
5776.82
5775.16
5773.78
5772.48
5771.59
5770.59
5769.97
5769.06
5768.49
5767.34
5766.74
5766.36
5766.04
5765.17
5765.4
5765.4
5765.38
5765.29
5764.91
5765.34
5765.34
5765.34
5765.37
5766.29
5766.29
5766.29
5766.82
5766.82
5767.75
5767.75
5769.08
5769.15
5770.51
5771.2
5772.27
5772.75
5774.14
5774.74
5776.13
5776.98
5778.59
5779.4
5781.18
5782.06
5783.97
5784.96
5787.22
5788.34
5791.2
5792.28
5796.85
5797.05
5852.03
6009.49
55021.6
8238.14
7574.83
7124.68
6822.16
6611.44
6458.69
6343.43
6254.17
6183.03
6125.61
6078.15
6038.79
6005.38
5977.15
5952.69
5931.74
5913.25
5897.29
5882.98
5870.56
5859.26
5849.41
5840.31
5832.43
5825.06
5818.62
5812.5
5807.25
5802.21
5797.83
5793.58
5789.97
5786.38
5783.41
5780.4
5777.87
5775.24
5773.2
5771.01
5769.24
5767.28
5765.97
5764.3
5762.91
5761.59
5760.68
5759.67
5759.03
5758.11
5757.53
5756.37
5755.76
5755.37
5755.03
5754.16
5754.36
5754.36
5754.34
5754.24
5753.84
5754.27
5754.27
5754.26
5754.27
5755.18
5755.18
5755.18
5755.7
5755.69
5756.61
5756.61
5757.92
5757.99
5759.34
5760.02
5761.1
5761.57
5762.95
5763.55
5764.93
5765.77
5767.37
5768.18
5769.95
5770.83
5772.73
5773.72
5775.97
5777.08
5779.92
5780.99
5785.55
5785.72
5842.83
5998.98
52079.1
8238.42
7574.38
7122.76
6818.73
6606.73
6452.95
6336.84
6246.9
6175.21
6117.32
6069.48
6029.78
5996.09
5967.62
5942.94
5921.8
5903.15
5887.04
5872.6
5860.06
5848.66
5838.71
5829.52
5821.57
5814.13
5807.62
5801.44
5796.14
5791.04
5786.63
5782.33
5778.68
5775.05
5772.05
5769
5766.45
5763.79
5761.72
5759.51
5757.72
5755.74
5754.4
5752.71
5751.31
5749.97
5749.04
5748.01
5747.36
5746.43
5745.84
5744.68
5744.05
5743.64
5743.3
5742.41
5742.59
5742.59
5742.56
5742.46
5742.04
5742.45
5742.45
5742.45
5742.43
5743.32
5743.32
5743.32
5743.83
5743.83
5744.73
5744.73
5746.03
5746.09
5747.43
5748.11
5749.18
5749.64
5751.01
5751.6
5752.98
5753.81
5755.41
5756.21
5757.97
5758.84
5760.74
5761.72
5763.96
5765.06
5767.89
5768.95
5773.5
5773.64
5833.03
5987.77
49231
8238.71
7573.9
7120.74
6815.12
6601.76
6446.87
6329.87
6239.21
6166.92
6108.54
6060.28
6020.23
5986.23
5957.5
5932.58
5911.25
5892.42
5876.16
5861.57
5848.91
5837.39
5827.34
5818.07
5810.03
5802.51
5795.93
5789.69
5784.33
5779.18
5774.71
5770.37
5766.68
5763.01
5759.97
5756.89
5754.31
5751.62
5749.52
5747.28
5745.46
5743.46
5742.1
5740.4
5738.97
5737.61
5736.67
5735.62
5734.96
5734
5733.41
5732.24
5731.6
5731.17
5730.82
5729.93
5730.08
5730.08
5730.04
5729.92
5729.5
5729.89
5729.89
5729.88
5729.84
5730.72
5730.72
5730.72
5731.21
5731.21
5732.09
5732.09
5733.38
5733.43
5734.76
5735.43
5736.51
5736.95
5738.31
5738.9
5740.27
5741.09
5742.68
5743.47
5745.23
5746.1
5747.99
5748.96
5751.19
5752.28
5755.1
5756.14
5760.69
5760.8
5822.6
5975.81
46481
8239.02
7573.42
7118.63
6811.33
6596.53
6440.46
6322.52
6231.08
6158.16
6099.25
6050.54
6010.12
5975.8
5946.78
5921.62
5900.07
5881.06
5864.63
5849.89
5837.1
5825.46
5815.3
5805.93
5797.8
5790.2
5783.55
5777.24
5771.82
5766.61
5762.09
5757.7
5753.96
5750.24
5747.17
5744.05
5741.43
5738.71
5736.59
5734.32
5732.48
5730.44
5729.07
5727.34
5725.9
5724.51
5723.55
5722.48
5721.8
5720.83
5720.22
5719.05
5718.39
5717.94
5717.59
5716.69
5716.81
5716.8
5716.76
5716.63
5716.19
5716.56
5716.56
5716.55
5716.5
5717.35
5717.35
5717.35
5717.83
5717.83
5718.69
5718.69
5719.96
5720.01
5721.33
5721.99
5723.07
5723.49
5724.85
5725.43
5726.8
5727.6
5729.19
5729.97
5731.72
5732.58
5734.46
5735.43
5737.64
5738.73
5741.53
5742.56
5747.09
5747.18
5811.53
5963.1
43832
8239.34
7572.92
7116.43
6807.36
6591.03
6433.73
6314.78
6222.52
6148.92
6089.45
6040.27
5999.45
5964.78
5935.47
5910.05
5888.27
5869.05
5852.45
5837.55
5824.61
5812.85
5802.58
5793.09
5784.87
5777.18
5770.46
5764.07
5758.59
5753.31
5748.74
5744.3
5740.51
5736.75
5733.63
5730.47
5727.82
5725.06
5722.91
5720.61
5718.74
5716.68
5715.28
5713.53
5712.07
5710.66
5709.68
5708.58
5707.89
5706.9
5706.28
5705.1
5704.43
5703.96
5703.59
5702.69
5702.78
5702.77
5702.71
5702.57
5702.12
5702.47
5702.47
5702.46
5702.38
5703.21
5703.21
5703.21
5703.68
5703.68
5704.52
5704.52
5705.77
5705.81
5707.12
5707.77
5708.85
5709.25
5710.6
5711.18
5712.54
5713.33
5714.91
5715.69
5717.43
5718.29
5720.16
5721.11
5723.31
5724.39
5727.18
5728.19
5732.71
5732.77
5799.8
5949.61
41286.8
8239.68
7572.41
7114.14
6803.22
6585.28
6426.66
6306.65
6213.53
6139.21
6079.15
6029.46
5988.21
5953.18
5923.55
5897.85
5875.84
5856.4
5839.61
5824.54
5811.46
5799.55
5789.16
5779.57
5771.24
5763.46
5756.66
5750.19
5744.63
5739.29
5734.66
5730.16
5726.33
5722.51
5719.35
5716.15
5713.46
5710.67
5708.48
5706.15
5704.25
5702.16
5700.73
5698.96
5697.48
5696.04
5695.04
5693.92
5693.21
5692.2
5691.57
5690.39
5689.69
5689.2
5688.83
5687.92
5687.98
5687.96
5687.89
5687.74
5687.27
5687.6
5687.6
5687.59
5687.48
5688.29
5688.29
5688.29
5688.74
5688.74
5689.56
5689.57
5690.8
5690.83
5692.12
5692.76
5693.85
5694.23
5695.57
5696.14
5697.49
5698.27
5699.84
5700.62
5702.34
5703.2
5705.05
5706.01
5708.19
5709.26
5712.03
5713.03
5717.53
5717.57
5787.4
5935.32
38847.5
8240.03
7571.89
7111.77
6798.9
6579.28
6419.27
6298.13
6204.1
6129.03
6068.33
6018.12
5976.41
5940.99
5911.03
5885.04
5862.77
5843.1
5826.11
5810.87
5797.62
5785.57
5775.05
5765.33
5756.91
5749.02
5742.13
5735.58
5729.95
5724.54
5719.85
5715.28
5711.4
5707.53
5704.32
5701.07
5698.35
5695.51
5693.29
5690.92
5689
5686.88
5685.42
5683.62
5682.12
5680.66
5679.63
5678.49
5677.75
5676.73
5676.09
5674.89
5674.18
5673.66
5673.28
5672.37
5672.4
5672.36
5672.28
5672.12
5671.64
5671.94
5671.94
5671.93
5671.8
5672.59
5672.59
5672.59
5673.02
5673.02
5673.82
5673.82
5675.03
5675.06
5676.33
5676.96
5678.05
5678.41
5679.74
5680.31
5681.65
5682.42
5683.98
5684.74
5686.45
5687.3
5689.15
5690.1
5692.26
5693.32
5696.08
5697.06
5701.54
5701.56
5774.32
5920.19
36516.4
8240.4
7571.37
7109.33
6794.42
6573.02
6411.56
6289.23
6194.23
6118.36
6057.01
6006.23
5964.05
5928.21
5897.9
5871.6
5849.05
5829.15
5811.94
5796.51
5783.09
5770.89
5760.23
5750.39
5741.85
5733.86
5726.88
5720.24
5714.53
5709.05
5704.29
5699.66
5695.72
5691.79
5688.53
5685.24
5682.47
5679.6
5677.33
5674.93
5672.97
5670.82
5669.33
5667.51
5665.99
5664.49
5663.44
5662.27
5661.52
5660.47
5659.82
5658.61
5657.88
5657.34
5656.95
5656.03
5656.02
5655.97
5655.88
5655.71
5655.21
5655.49
5655.49
5655.47
5655.32
5656.08
5656.08
5656.08
5656.49
5656.49
5657.27
5657.27
5658.46
5658.48
5659.74
5660.35
5661.44
5661.78
5663.11
5663.66
5665
5665.75
5667.3
5668.06
5669.76
5670.6
5672.44
5673.37
5675.53
5676.57
5679.32
5680.28
5684.74
5684.74
5760.53
5904.19
34295
8240.79
7570.85
7106.8
6789.77
6566.52
6403.52
6279.95
6183.94
6107.22
6045.17
5993.79
5951.11
5914.84
5884.15
5857.52
5834.69
5814.54
5797.11
5781.47
5767.87
5755.51
5744.71
5734.74
5726.07
5717.98
5710.89
5704.16
5698.37
5692.8
5687.98
5683.28
5679.28
5675.29
5671.98
5668.64
5665.83
5662.9
5660.6
5658.16
5656.17
5653.98
5652.45
5650.61
5649.07
5647.54
5646.46
5645.26
5644.49
5643.42
5642.75
5641.53
5640.78
5640.21
5639.81
5638.89
5638.85
5638.78
5638.67
5638.5
5637.98
5638.24
5638.23
5638.21
5638.03
5638.77
5638.76
5638.76
5639.15
5639.16
5639.91
5639.91
5641.07
5641.09
5642.33
5642.93
5644.02
5644.34
5645.66
5646.2
5647.53
5648.27
5649.81
5650.56
5652.24
5653.08
5654.9
5655.83
5657.96
5659
5661.73
5662.67
5667.1
5667.1
5746
5887.29
32184.7
8241.19
7570.32
7104.21
6784.97
6559.77
6395.17
6270.3
6173.21
6095.61
6032.82
5980.82
5937.61
5900.88
5869.79
5842.82
5819.69
5799.26
5781.6
5765.75
5751.96
5739.42
5728.47
5718.36
5709.57
5701.35
5694.17
5687.34
5681.46
5675.81
5670.91
5666.14
5662.07
5658.03
5654.66
5651.26
5648.4
5645.43
5643.09
5640.6
5638.58
5636.36
5634.79
5632.92
5631.35
5629.79
5628.69
5627.46
5626.66
5625.57
5624.88
5623.65
5622.88
5622.28
5621.87
5620.95
5620.87
5620.78
5620.66
5620.47
5619.94
5620.17
5620.17
5620.13
5619.93
5620.64
5620.64
5620.63
5621
5621
5621.73
5621.73
5622.87
5622.88
5624.11
5624.68
5625.78
5626.08
5627.38
5627.92
5629.23
5629.96
5631.49
5632.23
5633.9
5634.73
5636.54
5637.46
5639.57
5640.6
5643.31
5644.23
5648.64
5648.63
5730.69
5869.49
30186.7
8241.6
7569.79
7101.55
6780.01
6552.78
6386.51
6260.26
6162.05
6083.52
6019.95
5967.3
5923.53
5886.32
5854.82
5827.48
5804.03
5783.32
5765.41
5749.33
5735.35
5722.63
5711.52
5701.25
5692.33
5683.99
5676.7
5669.77
5663.79
5658.05
5653.07
5648.23
5644.1
5639.99
5636.56
5633.1
5630.2
5627.18
5624.78
5622.25
5620.2
5617.93
5616.33
5614.43
5612.83
5611.24
5610.11
5608.85
5608.02
5606.91
5606.2
5604.96
5604.17
5603.55
5603.12
5602.19
5602.07
5601.96
5601.83
5601.63
5601.09
5601.28
5601.28
5601.24
5601.01
5601.68
5601.68
5601.68
5602.03
5602.03
5602.72
5602.72
5603.83
5603.84
5605.05
5605.61
5606.71
5606.98
5608.28
5608.8
5610.11
5610.82
5612.33
5613.06
5614.72
5615.54
5617.34
5618.25
5620.35
5621.36
5624.05
5624.95
5629.33
5629.31
5714.55
5850.76
28302
8242.03
7569.27
7098.83
6774.91
6545.57
6377.54
6249.86
6150.47
6070.97
6006.58
5953.24
5908.88
5871.16
5839.22
5811.5
5787.72
5766.71
5748.53
5732.22
5718.03
5705.12
5693.84
5683.42
5674.36
5665.89
5658.48
5651.44
5645.36
5639.53
5634.47
5629.55
5625.34
5621.16
5617.68
5614.16
5611.2
5608.13
5605.69
5603.11
5601.02
5598.71
5597.07
5595.14
5593.51
5591.88
5590.72
5589.43
5588.57
5587.43
5586.71
5585.46
5584.64
5583.99
5583.55
5582.61
5582.46
5582.33
5582.17
5581.97
5581.41
5581.57
5581.57
5581.52
5581.26
5581.9
5581.9
5581.89
5582.22
5582.22
5582.89
5582.88
5583.97
5583.97
5585.16
5585.7
5586.8
5587.05
5588.33
5588.85
5590.14
5590.83
5592.34
5593.06
5594.69
5595.51
5597.29
5598.19
5600.27
5601.27
5603.94
5604.83
5609.18
5609.15
5697.53
5831.07
26531.3
8242.46
7568.75
7096.06
6769.66
6538.12
6368.27
6239.08
6138.47
6057.94
5992.7
5938.63
5893.66
5855.41
5823.01
5794.88
5770.75
5749.43
5730.98
5714.42
5700.01
5686.89
5675.44
5664.85
5655.65
5647.04
5639.51
5632.35
5626.17
5620.24
5615.1
5610.09
5605.81
5601.56
5598
5594.42
5591.41
5588.28
5585.79
5583.17
5581.03
5578.68
5577
5575.04
5573.38
5571.71
5570.52
5569.19
5568.31
5567.14
5566.4
5565.13
5564.29
5563.6
5563.15
5562.2
5562.01
5561.86
5561.69
5561.47
5560.9
5561.03
5561.02
5560.96
5560.67
5561.29
5561.28
5561.27
5561.57
5561.58
5562.21
5562.21
5563.26
5563.26
5564.43
5564.94
5566.04
5566.27
5567.54
5568.04
5569.33
5570
5571.49
5572.2
5573.82
5574.63
5576.39
5577.28
5579.34
5580.33
5582.98
5583.84
5588.17
5588.13
5679.59
5810.4
24875.4
8242.92
7568.23
7093.23
6764.28
6530.46
6358.7
6227.95
6126.04
6044.45
5978.31
5923.49
5877.87
5839.06
5806.18
5777.63
5753.13
5731.48
5712.74
5695.92
5681.28
5667.95
5656.31
5645.55
5636.19
5627.44
5619.78
5612.5
5606.21
5600.18
5594.94
5589.84
5585.49
5581.16
5577.54
5573.89
5570.82
5567.63
5565.09
5562.41
5560.24
5557.84
5556.12
5554.12
5552.43
5550.72
5549.49
5548.12
5547.22
5546.02
5545.25
5543.97
5543.11
5542.39
5541.92
5540.96
5540.73
5540.55
5540.36
5540.14
5539.56
5539.65
5539.64
5539.57
5539.25
5539.82
5539.82
5539.81
5540.09
5540.08
5540.69
5540.68
5541.7
5541.7
5542.85
5543.33
5544.43
5544.64
5545.9
5546.38
5547.66
5548.31
5549.79
5550.49
5552.09
5552.89
5554.64
5555.52
5557.55
5558.53
5561.15
5562
5566.3
5566.25
5660.67
5788.73
23334.7
8243.38
7567.73
7090.35
6758.77
6522.59
6348.84
6216.46
6113.21
6030.5
5963.43
5907.8
5861.51
5822.12
5788.73
5759.74
5734.85
5712.86
5693.81
5676.72
5661.84
5648.29
5636.45
5625.51
5615.98
5607.08
5599.29
5591.88
5585.48
5579.34
5574.01
5568.82
5564.38
5559.97
5556.28
5552.55
5549.43
5546.18
5543.58
5540.85
5538.63
5536.19
5534.42
5532.37
5530.65
5528.9
5527.64
5526.24
5525.3
5524.06
5523.28
5521.98
5521.09
5520.34
5519.86
5518.88
5518.61
5518.41
5518.2
5517.96
5517.37
5517.43
5517.41
5517.32
5516.98
5517.51
5517.52
5517.5
5517.75
5517.74
5518.31
5518.31
5519.28
5519.28
5520.41
5520.87
5521.97
5522.15
5523.39
5523.87
5525.13
5525.77
5527.23
5527.91
5529.5
5530.28
5532.02
5532.88
5534.9
5535.86
5538.46
5539.29
5543.56
5543.49
5640.71
5766.02
21904.4
8243.86
7567.24
7087.44
6753.14
6514.51
6338.71
6204.62
6099.97
6016.09
5948.04
5891.59
5844.59
5804.58
5770.67
5741.21
5715.92
5693.56
5674.2
5656.82
5641.68
5627.9
5615.86
5604.73
5595.03
5585.97
5578.04
5570.5
5563.98
5557.72
5552.29
5547
5542.48
5537.98
5534.21
5530.42
5527.23
5523.91
5521.26
5518.47
5516.2
5513.71
5511.89
5509.81
5508.05
5506.26
5504.96
5503.51
5502.54
5501.28
5500.47
5499.15
5498.24
5497.45
5496.95
5495.96
5495.65
5495.42
5495.19
5494.94
5494.34
5494.36
5494.33
5494.23
5493.85
5494.35
5494.36
5494.33
5494.56
5494.55
5495.08
5495.08
5496.01
5496.01
5497.12
5497.54
5498.64
5498.8
5500.03
5500.48
5501.74
5502.35
5503.79
5504.47
5506.03
5506.81
5508.52
5509.38
5511.37
5512.32
5514.89
5515.7
5519.95
5519.87
5619.66
5742.26
20579.5
8244.34
7566.76
7084.49
6747.4
6506.23
6328.29
6192.44
6086.33
6001.23
5932.16
5874.84
5827.1
5786.46
5752
5722.05
5696.34
5673.6
5653.91
5636.22
5620.82
5606.8
5594.54
5583.2
5573.33
5564.1
5556.02
5548.34
5541.7
5535.32
5529.79
5524.39
5519.78
5515.19
5511.35
5507.47
5504.22
5500.84
5498.12
5495.27
5492.95
5490.41
5488.54
5486.41
5484.62
5482.78
5481.44
5479.96
5478.95
5477.65
5476.81
5475.48
5474.54
5473.71
5473.19
5472.19
5471.84
5471.58
5471.32
5471.07
5470.47
5470.45
5470.4
5470.28
5469.88
5470.34
5470.34
5470.31
5470.51
5470.49
5470.98
5470.98
5471.87
5471.88
5472.96
5473.35
5474.44
5474.59
5475.8
5476.23
5477.47
5478.07
5479.49
5480.15
5481.7
5482.46
5484.16
5485
5486.97
5487.9
5490.45
5491.23
5495.46
5495.36
5597.45
5717.4
19355
8244.84
7566.3
7081.51
6741.56
6497.77
6317.62
6179.93
6072.3
5985.93
5915.8
5857.58
5809.07
5767.75
5732.71
5702.26
5676.1
5652.97
5632.93
5614.93
5599.25
5584.97
5572.48
5560.94
5550.88
5541.48
5533.24
5525.42
5518.64
5512.14
5506.49
5500.99
5496.28
5491.61
5487.68
5483.72
5480.39
5476.94
5474.16
5471.25
5468.88
5466.28
5464.36
5462.19
5460.36
5458.47
5457.09
5455.56
5454.52
5453.18
5452.32
5450.97
5450
5449.13
5448.59
5447.57
5447.18
5446.88
5446.61
5446.33
5445.73
5445.67
5445.61
5445.47
5445.04
5445.46
5445.46
5445.43
5445.6
5445.57
5446.02
5446.02
5446.87
5446.87
5447.93
5448.29
5449.37
5449.5
5450.69
5451.11
5452.33
5452.91
5454.31
5454.96
5456.48
5457.24
5458.91
5459.74
5461.69
5462.6
5465.12
5465.89
5470.08
5469.96
5574.05
5691.43
18225.6
8245.35
7565.86
7078.51
6735.62
6489.13
6306.69
6167.1
6057.89
5970.2
5898.96
5839.79
5790.48
5748.47
5712.82
5681.84
5655.22
5631.67
5611.27
5592.94
5576.97
5562.42
5549.7
5537.94
5527.68
5518.1
5509.7
5501.72
5494.81
5488.18
5482.41
5476.8
5471.99
5467.22
5463.2
5459.16
5455.76
5452.23
5449.39
5446.41
5443.98
5441.32
5439.35
5437.13
5435.26
5433.33
5431.9
5430.32
5429.24
5427.87
5426.97
5425.6
5424.6
5423.69
5423.13
5422.1
5421.66
5421.34
5421.03
5420.75
5420.13
5420.04
5419.95
5419.8
5419.34
5419.72
5419.72
5419.68
5419.83
5419.78
5420.2
5420.2
5421
5421
5422.04
5422.36
5423.43
5423.53
5424.71
5425.11
5426.32
5426.87
5428.25
5428.88
5430.39
5431.13
5432.78
5433.6
5435.52
5436.41
5438.91
5439.65
5443.82
5443.68
5549.38
5664.31
17185.6
8245.86
7565.44
7075.5
6729.59
6480.33
6295.52
6153.95
6043.1
5954.04
5881.65
5821.5
5771.34
5728.61
5692.33
5660.8
5633.69
5609.71
5588.93
5570.26
5553.98
5539.16
5526.19
5514.2
5503.74
5493.96
5485.4
5477.26
5470.2
5463.43
5457.55
5451.81
5446.9
5442.02
5437.92
5433.79
5430.31
5426.71
5423.79
5420.74
5418.26
5415.54
5413.51
5411.24
5409.33
5407.34
5405.87
5404.24
5403.12
5401.71
5400.78
5399.39
5398.36
5397.41
5396.82
5395.77
5395.29
5394.93
5394.6
5394.3
5393.67
5393.54
5393.43
5393.27
5392.78
5393.11
5393.11
5393.07
5393.18
5393.12
5393.5
5393.5
5394.25
5394.26
5395.26
5395.55
5396.61
5396.69
5397.85
5398.23
5399.42
5399.95
5401.31
5401.93
5403.41
5404.13
5405.76
5406.57
5408.46
5409.34
5411.81
5412.53
5416.66
5416.5
5523.39
5636.01
16229.2
8246.38
7565.04
7072.47
6723.49
6471.37
6284.11
6140.5
6027.95
5937.46
5863.87
5802.7
5751.67
5708.18
5671.25
5639.14
5611.53
5587.1
5565.92
5546.89
5530.29
5515.18
5501.95
5489.72
5479.05
5469.07
5460.33
5452.02
5444.82
5437.9
5431.89
5426.04
5421.02
5416.03
5411.83
5407.6
5404.05
5400.36
5397.37
5394.25
5391.71
5388.93
5386.83
5384.51
5382.55
5380.51
5379
5377.32
5376.16
5374.7
5373.74
5372.32