/*--------------------------------*- C++ -*----------------------------------*\
| =========                 |                                                 |
| \\      /  F ield         | OpenFOAM: The Open Source CFD Toolbox           |
|  \\    /   O peration     | Version:  v2012                                 |
|   \\  /    A nd           | Website:  www.openfoam.com                      |
|    \\/     M anipulation  |                                                 |
\*---------------------------------------------------------------------------*/
FoamFile
{
    version     2.0;
    format      ascii;
    class       volVectorField;
    location    "19.5";
    object      wallShearStress;
}
// * * * * * * * * * * * * * * * * * * * * * * * * * * * * * * * * * * * * * //

dimensions      [0 2 -2 0 0 0 0];


internalField   uniform (0 0 0);

boundaryField
{
    inlet
    {
        type            calculated;
        value           uniform (0 0 0);
    }
    outlet
    {
        type            calculated;
        value           uniform (0 0 0);
    }
    topWall
    {
        type            calculated;
        value           nonuniform List<vector> 
545
(
(3.44494e-08 -2.4242e-08 0)
(3.44256e-08 -6.78674e-08 0)
(3.4356e-08 -1.13117e-07 0)
(3.43244e-08 -1.57051e-07 0)
(3.42819e-08 -1.99103e-07 0)
(3.42324e-08 -2.39813e-07 0)
(3.41768e-08 -2.79529e-07 0)
(3.41146e-08 -3.18231e-07 0)
(3.40466e-08 -3.55836e-07 0)
(3.39733e-08 -3.92341e-07 0)
(3.38952e-08 -4.27794e-07 0)
(3.38128e-08 -4.62236e-07 0)
(3.37264e-08 -4.9569e-07 0)
(3.36365e-08 -5.28177e-07 0)
(3.35435e-08 -5.5972e-07 0)
(3.34477e-08 -5.90344e-07 0)
(3.33495e-08 -6.20074e-07 0)
(3.32492e-08 -6.48934e-07 0)
(3.31471e-08 -6.76947e-07 0)
(3.30434e-08 -7.04137e-07 0)
(3.29385e-08 -7.30527e-07 0)
(3.28325e-08 -7.56138e-07 0)
(3.27257e-08 -7.80994e-07 0)
(3.26183e-08 -8.05115e-07 0)
(3.25105e-08 -8.28522e-07 0)
(3.24025e-08 -8.51237e-07 0)
(3.22944e-08 -8.73278e-07 0)
(3.21864e-08 -8.94667e-07 0)
(3.20786e-08 -9.15423e-07 0)
(3.19712e-08 -9.35563e-07 0)
(3.18642e-08 -9.55106e-07 0)
(3.17579e-08 -9.74071e-07 0)
(3.16522e-08 -9.92474e-07 0)
(3.15473e-08 -1.01033e-06 0)
(3.14433e-08 -1.02766e-06 0)
(3.13402e-08 -1.04448e-06 0)
(3.12381e-08 -1.0608e-06 0)
(3.1137e-08 -1.07664e-06 0)
(3.10371e-08 -1.09201e-06 0)
(3.09384e-08 -1.10693e-06 0)
(3.08409e-08 -1.1214e-06 0)
(3.07446e-08 -1.13546e-06 0)
(3.06496e-08 -1.1491e-06 0)
(3.05559e-08 -1.16234e-06 0)
(3.04635e-08 -1.17519e-06 0)
(3.03725e-08 -1.18766e-06 0)
(3.02829e-08 -1.19977e-06 0)
(3.01946e-08 -1.21153e-06 0)
(3.01077e-08 -1.22294e-06 0)
(3.00223e-08 -1.23402e-06 0)
(2.99382e-08 -1.24477e-06 0)
(2.98555e-08 -1.25522e-06 0)
(2.97742e-08 -1.26536e-06 0)
(2.96944e-08 -1.27521e-06 0)
(2.96159e-08 -1.28477e-06 0)
(2.95387e-08 -1.29405e-06 0)
(2.9463e-08 -1.30307e-06 0)
(2.93886e-08 -1.31183e-06 0)
(2.93156e-08 -1.32033e-06 0)
(2.92438e-08 -1.32859e-06 0)
(2.91735e-08 -1.33661e-06 0)
(2.91044e-08 -1.34441e-06 0)
(2.90366e-08 -1.35198e-06 0)
(2.897e-08 -1.35933e-06 0)
(2.89047e-08 -1.36647e-06 0)
(2.88407e-08 -1.37341e-06 0)
(2.87778e-08 -1.38015e-06 0)
(2.87161e-08 -1.3867e-06 0)
(2.86557e-08 -1.39306e-06 0)
(2.85962e-08 -1.39924e-06 0)
(2.85384e-08 -1.40526e-06 0)
(2.84795e-08 -1.41105e-06 0)
(2.8423e-08 -1.41667e-06 0)
(2.83714e-08 -1.42215e-06 0)
(2.83202e-08 -1.4275e-06 0)
(2.82691e-08 -1.43284e-06 0)
(2.82181e-08 -1.43817e-06 0)
(2.81671e-08 -1.44346e-06 0)
(2.81162e-08 -1.44871e-06 0)
(2.80653e-08 -1.45393e-06 0)
(2.80145e-08 -1.45912e-06 0)
(2.79637e-08 -1.46427e-06 0)
(2.79129e-08 -1.46939e-06 0)
(2.78623e-08 -1.47448e-06 0)
(2.78116e-08 -1.47954e-06 0)
(2.77611e-08 -1.48456e-06 0)
(2.77106e-08 -1.48955e-06 0)
(2.76601e-08 -1.49451e-06 0)
(2.76097e-08 -1.49944e-06 0)
(2.75594e-08 -1.50434e-06 0)
(2.75092e-08 -1.5092e-06 0)
(2.74589e-08 -1.51404e-06 0)
(2.7409e-08 -1.51884e-06 0)
(2.7358e-08 -1.52361e-06 0)
(2.73118e-08 -1.52849e-06 0)
(2.72461e-08 -1.5329e-06 0)
(2.71784e-08 -1.53717e-06 0)
(2.71356e-08 -1.5413e-06 0)
(2.70949e-08 -1.54495e-06 0)
(2.70548e-08 -1.54871e-06 0)
(2.70145e-08 -1.55252e-06 0)
(2.69741e-08 -1.55635e-06 0)
(2.69335e-08 -1.56017e-06 0)
(2.68928e-08 -1.56399e-06 0)
(2.68518e-08 -1.56781e-06 0)
(2.68107e-08 -1.57164e-06 0)
(2.67693e-08 -1.57547e-06 0)
(2.67278e-08 -1.5793e-06 0)
(2.66861e-08 -1.58314e-06 0)
(2.66442e-08 -1.58698e-06 0)
(2.66021e-08 -1.59082e-06 0)
(2.65598e-08 -1.59466e-06 0)
(2.65173e-08 -1.59851e-06 0)
(2.64747e-08 -1.60236e-06 0)
(2.64318e-08 -1.60622e-06 0)
(2.63887e-08 -1.61007e-06 0)
(2.63455e-08 -1.61393e-06 0)
(2.6302e-08 -1.61779e-06 0)
(2.62583e-08 -1.62166e-06 0)
(2.62145e-08 -1.62553e-06 0)
(2.61704e-08 -1.6294e-06 0)
(2.61262e-08 -1.63327e-06 0)
(2.60817e-08 -1.63715e-06 0)
(2.60371e-08 -1.64102e-06 0)
(2.59922e-08 -1.6449e-06 0)
(2.59471e-08 -1.64879e-06 0)
(2.59019e-08 -1.65267e-06 0)
(2.58564e-08 -1.65656e-06 0)
(2.58108e-08 -1.66045e-06 0)
(2.57649e-08 -1.66434e-06 0)
(2.57189e-08 -1.66823e-06 0)
(2.56726e-08 -1.67213e-06 0)
(2.56261e-08 -1.67603e-06 0)
(2.55794e-08 -1.67993e-06 0)
(2.55326e-08 -1.68383e-06 0)
(2.54855e-08 -1.68774e-06 0)
(2.54382e-08 -1.69164e-06 0)
(2.53907e-08 -1.69555e-06 0)
(2.5343e-08 -1.69946e-06 0)
(2.52951e-08 -1.70338e-06 0)
(2.52469e-08 -1.70729e-06 0)
(2.51986e-08 -1.71121e-06 0)
(2.51501e-08 -1.71512e-06 0)
(2.51013e-08 -1.71904e-06 0)
(2.50524e-08 -1.72296e-06 0)
(2.50032e-08 -1.72689e-06 0)
(2.49538e-08 -1.73081e-06 0)
(2.49042e-08 -1.73474e-06 0)
(2.48544e-08 -1.73866e-06 0)
(2.48044e-08 -1.74259e-06 0)
(2.47542e-08 -1.74652e-06 0)
(2.47038e-08 -1.75045e-06 0)
(2.46531e-08 -1.75438e-06 0)
(2.46023e-08 -1.75832e-06 0)
(2.45512e-08 -1.76225e-06 0)
(2.44999e-08 -1.76619e-06 0)
(2.44484e-08 -1.77012e-06 0)
(2.43967e-08 -1.77406e-06 0)
(2.43448e-08 -1.778e-06 0)
(2.42926e-08 -1.78194e-06 0)
(2.42403e-08 -1.78588e-06 0)
(2.41877e-08 -1.78982e-06 0)
(2.41349e-08 -1.79376e-06 0)
(2.40819e-08 -1.7977e-06 0)
(2.40287e-08 -1.80164e-06 0)
(2.39752e-08 -1.80559e-06 0)
(2.39216e-08 -1.80953e-06 0)
(2.38677e-08 -1.81347e-06 0)
(2.38136e-08 -1.81742e-06 0)
(2.37593e-08 -1.82136e-06 0)
(2.37048e-08 -1.82531e-06 0)
(2.365e-08 -1.82925e-06 0)
(2.3595e-08 -1.8332e-06 0)
(2.35399e-08 -1.83714e-06 0)
(2.34845e-08 -1.84109e-06 0)
(2.34288e-08 -1.84503e-06 0)
(2.3373e-08 -1.84898e-06 0)
(2.33169e-08 -1.85292e-06 0)
(2.32607e-08 -1.85687e-06 0)
(2.32042e-08 -1.86081e-06 0)
(2.31474e-08 -1.86476e-06 0)
(2.30905e-08 -1.8687e-06 0)
(2.30333e-08 -1.87264e-06 0)
(2.29759e-08 -1.87659e-06 0)
(2.29183e-08 -1.88053e-06 0)
(2.28605e-08 -1.88447e-06 0)
(2.28025e-08 -1.88841e-06 0)
(2.27442e-08 -1.89235e-06 0)
(2.26857e-08 -1.89629e-06 0)
(2.2627e-08 -1.90023e-06 0)
(2.25681e-08 -1.90417e-06 0)
(2.25089e-08 -1.9081e-06 0)
(2.24496e-08 -1.91204e-06 0)
(2.239e-08 -1.91597e-06 0)
(2.23302e-08 -1.91991e-06 0)
(2.22701e-08 -1.92384e-06 0)
(2.22099e-08 -1.92777e-06 0)
(2.21494e-08 -1.9317e-06 0)
(2.20887e-08 -1.93562e-06 0)
(2.20278e-08 -1.93955e-06 0)
(2.19666e-08 -1.94347e-06 0)
(2.19053e-08 -1.9474e-06 0)
(2.18437e-08 -1.95132e-06 0)
(2.17819e-08 -1.95524e-06 0)
(2.17198e-08 -1.95915e-06 0)
(2.16576e-08 -1.96307e-06 0)
(2.15951e-08 -1.96698e-06 0)
(2.15324e-08 -1.97089e-06 0)
(2.14695e-08 -1.9748e-06 0)
(2.14064e-08 -1.97871e-06 0)
(2.1343e-08 -1.98261e-06 0)
(2.12795e-08 -1.98651e-06 0)
(2.12157e-08 -1.99041e-06 0)
(2.11517e-08 -1.99431e-06 0)
(2.10874e-08 -1.9982e-06 0)
(2.1023e-08 -2.00209e-06 0)
(2.09583e-08 -2.00598e-06 0)
(2.08934e-08 -2.00987e-06 0)
(2.08283e-08 -2.01375e-06 0)
(2.0763e-08 -2.01763e-06 0)
(2.06974e-08 -2.02151e-06 0)
(2.06317e-08 -2.02538e-06 0)
(2.05657e-08 -2.02925e-06 0)
(2.04995e-08 -2.03311e-06 0)
(2.04331e-08 -2.03698e-06 0)
(2.03665e-08 -2.04084e-06 0)
(2.02996e-08 -2.04469e-06 0)
(2.02326e-08 -2.04855e-06 0)
(2.01653e-08 -2.0524e-06 0)
(2.00978e-08 -2.05624e-06 0)
(2.00301e-08 -2.06008e-06 0)
(1.99622e-08 -2.06392e-06 0)
(1.98941e-08 -2.06775e-06 0)
(1.98257e-08 -2.07158e-06 0)
(1.97572e-08 -2.07541e-06 0)
(1.96884e-08 -2.07923e-06 0)
(1.96194e-08 -2.08304e-06 0)
(1.95502e-08 -2.08685e-06 0)
(1.94808e-08 -2.09066e-06 0)
(1.94112e-08 -2.09446e-06 0)
(1.93414e-08 -2.09826e-06 0)
(1.92714e-08 -2.10206e-06 0)
(1.92011e-08 -2.10584e-06 0)
(1.91307e-08 -2.10963e-06 0)
(1.906e-08 -2.1134e-06 0)
(1.89892e-08 -2.11718e-06 0)
(1.89181e-08 -2.12095e-06 0)
(1.88469e-08 -2.12471e-06 0)
(1.87754e-08 -2.12847e-06 0)
(1.87037e-08 -2.13222e-06 0)
(1.86319e-08 -2.13596e-06 0)
(1.85598e-08 -2.1397e-06 0)
(1.84875e-08 -2.14344e-06 0)
(1.84151e-08 -2.14717e-06 0)
(1.83424e-08 -2.15089e-06 0)
(1.82695e-08 -2.15461e-06 0)
(1.81965e-08 -2.15832e-06 0)
(1.81232e-08 -2.16202e-06 0)
(1.80497e-08 -2.16572e-06 0)
(1.79761e-08 -2.16941e-06 0)
(1.79022e-08 -2.1731e-06 0)
(1.78282e-08 -2.17678e-06 0)
(1.7754e-08 -2.18045e-06 0)
(1.76796e-08 -2.18412e-06 0)
(1.76049e-08 -2.18777e-06 0)
(1.75303e-08 -2.19143e-06 0)
(1.74548e-08 -2.19507e-06 0)
(1.73827e-08 -2.19881e-06 0)
(1.7294e-08 -2.20223e-06 0)
(1.72048e-08 -2.20563e-06 0)
(1.71381e-08 -2.20911e-06 0)
(1.70721e-08 -2.21226e-06 0)
(1.7005e-08 -2.21548e-06 0)
(1.69375e-08 -2.21877e-06 0)
(1.68693e-08 -2.22209e-06 0)
(1.68003e-08 -2.22543e-06 0)
(1.67305e-08 -2.22879e-06 0)
(1.66599e-08 -2.23216e-06 0)
(1.65885e-08 -2.23556e-06 0)
(1.65162e-08 -2.23899e-06 0)
(1.64431e-08 -2.24243e-06 0)
(1.63692e-08 -2.2459e-06 0)
(1.62945e-08 -2.24939e-06 0)
(1.62189e-08 -2.2529e-06 0)
(1.61425e-08 -2.25643e-06 0)
(1.60652e-08 -2.25999e-06 0)
(1.59871e-08 -2.26356e-06 0)
(1.59081e-08 -2.26716e-06 0)
(1.58282e-08 -2.27078e-06 0)
(1.57474e-08 -2.27441e-06 0)
(1.56658e-08 -2.27807e-06 0)
(1.55832e-08 -2.28175e-06 0)
(1.54998e-08 -2.28545e-06 0)
(1.54154e-08 -2.28917e-06 0)
(1.53302e-08 -2.29291e-06 0)
(1.5244e-08 -2.29667e-06 0)
(1.51569e-08 -2.30045e-06 0)
(1.50689e-08 -2.30424e-06 0)
(1.49799e-08 -2.30806e-06 0)
(1.489e-08 -2.31189e-06 0)
(1.47991e-08 -2.31574e-06 0)
(1.47073e-08 -2.31961e-06 0)
(1.46145e-08 -2.3235e-06 0)
(1.45208e-08 -2.32741e-06 0)
(1.44261e-08 -2.33133e-06 0)
(1.43304e-08 -2.33527e-06 0)
(1.42337e-08 -2.33922e-06 0)
(1.41361e-08 -2.34319e-06 0)
(1.40374e-08 -2.34718e-06 0)
(1.39378e-08 -2.35118e-06 0)
(1.38371e-08 -2.35519e-06 0)
(1.37355e-08 -2.35922e-06 0)
(1.36328e-08 -2.36326e-06 0)
(1.35292e-08 -2.36732e-06 0)
(1.34245e-08 -2.37139e-06 0)
(1.33188e-08 -2.37547e-06 0)
(1.3212e-08 -2.37956e-06 0)
(1.31043e-08 -2.38366e-06 0)
(1.29955e-08 -2.38778e-06 0)
(1.28857e-08 -2.3919e-06 0)
(1.27748e-08 -2.39603e-06 0)
(1.2663e-08 -2.40017e-06 0)
(1.255e-08 -2.40432e-06 0)
(1.24361e-08 -2.40848e-06 0)
(1.23211e-08 -2.41264e-06 0)
(1.2205e-08 -2.41681e-06 0)
(1.2088e-08 -2.42098e-06 0)
(1.19698e-08 -2.42516e-06 0)
(1.18507e-08 -2.42934e-06 0)
(1.17305e-08 -2.43353e-06 0)
(1.16092e-08 -2.43771e-06 0)
(1.14869e-08 -2.4419e-06 0)
(1.13636e-08 -2.44609e-06 0)
(1.12393e-08 -2.45028e-06 0)
(1.11139e-08 -2.45446e-06 0)
(1.09875e-08 -2.45865e-06 0)
(1.086e-08 -2.46283e-06 0)
(1.07316e-08 -2.46701e-06 0)
(1.06021e-08 -2.47118e-06 0)
(1.04716e-08 -2.47534e-06 0)
(1.03401e-08 -2.4795e-06 0)
(1.02076e-08 -2.48365e-06 0)
(1.00741e-08 -2.4878e-06 0)
(9.93965e-09 -2.49193e-06 0)
(9.8042e-09 -2.49605e-06 0)
(9.66778e-09 -2.50015e-06 0)
(9.5304e-09 -2.50424e-06 0)
(9.39207e-09 -2.50832e-06 0)
(9.2528e-09 -2.51238e-06 0)
(9.1126e-09 -2.51643e-06 0)
(8.97149e-09 -2.52045e-06 0)
(8.82947e-09 -2.52446e-06 0)
(8.68655e-09 -2.52844e-06 0)
(8.54276e-09 -2.5324e-06 0)
(8.39811e-09 -2.53634e-06 0)
(8.25261e-09 -2.54025e-06 0)
(8.10628e-09 -2.54413e-06 0)
(7.95914e-09 -2.54799e-06 0)
(7.81119e-09 -2.55182e-06 0)
(7.66248e-09 -2.55561e-06 0)
(7.513e-09 -2.55937e-06 0)
(7.36278e-09 -2.5631e-06 0)
(7.21185e-09 -2.56679e-06 0)
(7.06022e-09 -2.57044e-06 0)
(6.90792e-09 -2.57406e-06 0)
(6.75497e-09 -2.57763e-06 0)
(6.6014e-09 -2.58117e-06 0)
(6.44723e-09 -2.58465e-06 0)
(6.29249e-09 -2.58809e-06 0)
(6.13721e-09 -2.59149e-06 0)
(5.98141e-09 -2.59483e-06 0)
(5.82512e-09 -2.59813e-06 0)
(5.66838e-09 -2.60137e-06 0)
(5.51122e-09 -2.60456e-06 0)
(5.35366e-09 -2.60769e-06 0)
(5.19575e-09 -2.61076e-06 0)
(5.03751e-09 -2.61377e-06 0)
(4.87898e-09 -2.61672e-06 0)
(4.72019e-09 -2.61961e-06 0)
(4.56119e-09 -2.62243e-06 0)
(4.40201e-09 -2.62518e-06 0)
(4.24269e-09 -2.62787e-06 0)
(4.08327e-09 -2.63048e-06 0)
(3.9238e-09 -2.63302e-06 0)
(3.7643e-09 -2.63548e-06 0)
(3.60483e-09 -2.63787e-06 0)
(3.44543e-09 -2.64018e-06 0)
(3.28613e-09 -2.64241e-06 0)
(3.127e-09 -2.64455e-06 0)
(2.96807e-09 -2.64661e-06 0)
(2.80939e-09 -2.64859e-06 0)
(2.651e-09 -2.65047e-06 0)
(2.49297e-09 -2.65227e-06 0)
(2.33532e-09 -2.65397e-06 0)
(2.17812e-09 -2.65557e-06 0)
(2.02141e-09 -2.65708e-06 0)
(1.86524e-09 -2.6585e-06 0)
(1.70967e-09 -2.65981e-06 0)
(1.55475e-09 -2.66102e-06 0)
(1.40053e-09 -2.66213e-06 0)
(1.24706e-09 -2.66313e-06 0)
(1.0944e-09 -2.66402e-06 0)
(9.426e-10 -2.66481e-06 0)
(7.91717e-10 -2.66548e-06 0)
(6.41806e-10 -2.66604e-06 0)
(4.92924e-10 -2.66648e-06 0)
(3.45126e-10 -2.66681e-06 0)
(1.98471e-10 -2.66702e-06 0)
(5.3016e-11 -2.66711e-06 0)
(-9.11804e-11 -2.66708e-06 0)
(-2.34059e-10 -2.66693e-06 0)
(-3.75561e-10 -2.66665e-06 0)
(-5.15626e-10 -2.66625e-06 0)
(-6.54193e-10 -2.66572e-06 0)
(-7.91202e-10 -2.66506e-06 0)
(-9.26591e-10 -2.66427e-06 0)
(-1.0603e-09 -2.66336e-06 0)
(-1.19227e-09 -2.6623e-06 0)
(-1.32243e-09 -2.66112e-06 0)
(-1.45074e-09 -2.6598e-06 0)
(-1.57712e-09 -2.65834e-06 0)
(-1.70152e-09 -2.65675e-06 0)
(-1.82388e-09 -2.65502e-06 0)
(-1.94414e-09 -2.65316e-06 0)
(-2.06226e-09 -2.65115e-06 0)
(-2.17817e-09 -2.64901e-06 0)
(-2.29183e-09 -2.64673e-06 0)
(-2.40319e-09 -2.6443e-06 0)
(-2.51219e-09 -2.64174e-06 0)
(-2.61881e-09 -2.63903e-06 0)
(-2.72299e-09 -2.63619e-06 0)
(-2.82468e-09 -2.6332e-06 0)
(-2.92387e-09 -2.63008e-06 0)
(-3.0205e-09 -2.62681e-06 0)
(-3.11454e-09 -2.6234e-06 0)
(-3.20595e-09 -2.61985e-06 0)
(-3.29471e-09 -2.61616e-06 0)
(-3.38078e-09 -2.61233e-06 0)
(-3.46414e-09 -2.60836e-06 0)
(-3.54475e-09 -2.60426e-06 0)
(-3.62259e-09 -2.60001e-06 0)
(-3.69763e-09 -2.59563e-06 0)
(-3.76984e-09 -2.59111e-06 0)
(-3.8392e-09 -2.58646e-06 0)
(-3.90569e-09 -2.58167e-06 0)
(-3.96928e-09 -2.57675e-06 0)
(-4.03005e-09 -2.57169e-06 0)
(-4.08749e-09 -2.56653e-06 0)
(-4.14228e-09 -2.56105e-06 0)
(-4.18283e-09 -2.55586e-06 0)
(-4.23199e-09 -2.5498e-06 0)
(-4.2927e-09 -2.54258e-06 0)
(-4.34137e-09 -2.53567e-06 0)
(-4.3867e-09 -2.52863e-06 0)
(-4.42767e-09 -2.52149e-06 0)
(-4.46408e-09 -2.51427e-06 0)
(-4.49622e-09 -2.507e-06 0)
(-4.52419e-09 -2.49969e-06 0)
(-4.54813e-09 -2.49234e-06 0)
(-4.5682e-09 -2.48495e-06 0)
(-4.58452e-09 -2.47753e-06 0)
(-4.59725e-09 -2.47009e-06 0)
(-4.60651e-09 -2.46263e-06 0)
(-4.61243e-09 -2.45516e-06 0)
(-4.61514e-09 -2.44768e-06 0)
(-4.61475e-09 -2.4402e-06 0)
(-4.6114e-09 -2.43272e-06 0)
(-4.60518e-09 -2.42525e-06 0)
(-4.59622e-09 -2.4178e-06 0)
(-4.58462e-09 -2.41036e-06 0)
(-4.57047e-09 -2.40294e-06 0)
(-4.55387e-09 -2.39555e-06 0)
(-4.53492e-09 -2.38818e-06 0)
(-4.51371e-09 -2.38085e-06 0)
(-4.49032e-09 -2.37356e-06 0)
(-4.46484e-09 -2.3663e-06 0)
(-4.43733e-09 -2.35909e-06 0)
(-4.40787e-09 -2.35193e-06 0)
(-4.37654e-09 -2.34481e-06 0)
(-4.3434e-09 -2.33774e-06 0)
(-4.30852e-09 -2.33074e-06 0)
(-4.27196e-09 -2.32378e-06 0)
(-4.23377e-09 -2.31689e-06 0)
(-4.19401e-09 -2.31007e-06 0)
(-4.15274e-09 -2.3033e-06 0)
(-4.11001e-09 -2.29661e-06 0)
(-4.06586e-09 -2.28999e-06 0)
(-4.02035e-09 -2.28344e-06 0)
(-3.97353e-09 -2.27696e-06 0)
(-3.92542e-09 -2.27056e-06 0)
(-3.87608e-09 -2.26424e-06 0)
(-3.82555e-09 -2.258e-06 0)
(-3.77386e-09 -2.25185e-06 0)
(-3.72105e-09 -2.24578e-06 0)
(-3.66715e-09 -2.23979e-06 0)
(-3.61221e-09 -2.2339e-06 0)
(-3.55624e-09 -2.22809e-06 0)
(-3.49928e-09 -2.22237e-06 0)
(-3.44136e-09 -2.21675e-06 0)
(-3.38251e-09 -2.21122e-06 0)
(-3.32275e-09 -2.20579e-06 0)
(-3.26211e-09 -2.20046e-06 0)
(-3.20061e-09 -2.19522e-06 0)
(-3.13827e-09 -2.19009e-06 0)
(-3.07511e-09 -2.18505e-06 0)
(-3.01116e-09 -2.18012e-06 0)
(-2.94644e-09 -2.1753e-06 0)
(-2.88096e-09 -2.17058e-06 0)
(-2.81474e-09 -2.16596e-06 0)
(-2.7478e-09 -2.16146e-06 0)
(-2.68016e-09 -2.15706e-06 0)
(-2.61184e-09 -2.15277e-06 0)
(-2.54285e-09 -2.14859e-06 0)
(-2.4732e-09 -2.14453e-06 0)
(-2.40293e-09 -2.14058e-06 0)
(-2.33203e-09 -2.13674e-06 0)
(-2.26054e-09 -2.13302e-06 0)
(-2.18846e-09 -2.12941e-06 0)
(-2.11581e-09 -2.12592e-06 0)
(-2.04261e-09 -2.12255e-06 0)
(-1.96887e-09 -2.1193e-06 0)
(-1.8946e-09 -2.11617e-06 0)
(-1.81983e-09 -2.11316e-06 0)
(-1.74457e-09 -2.11027e-06 0)
(-1.66883e-09 -2.1075e-06 0)
(-1.59263e-09 -2.10486e-06 0)
(-1.51598e-09 -2.10233e-06 0)
(-1.43888e-09 -2.09994e-06 0)
(-1.36136e-09 -2.09767e-06 0)
(-1.28343e-09 -2.09552e-06 0)
(-1.20509e-09 -2.0935e-06 0)
(-1.12637e-09 -2.09161e-06 0)
(-1.04727e-09 -2.08984e-06 0)
(-9.67814e-10 -2.08821e-06 0)
(-8.88025e-10 -2.0867e-06 0)
(-8.07938e-10 -2.08533e-06 0)
(-7.27586e-10 -2.08404e-06 0)
(-6.47054e-10 -2.08307e-06 0)
(-5.66329e-10 -2.08159e-06 0)
(-4.85776e-10 -2.08232e-06 0)
(-4.04452e-10 -2.07618e-06 0)
(-3.26134e-10 -2.09248e-06 0)
(-2.37073e-10 -2.0294e-06 0)
(-1.90908e-10 -2.19572e-06 0)
(-9.83404e-11 -1.91752e-06 0)
)
;
    }
    bottomWall
    {
        type            calculated;
        value           nonuniform List<vector> 
449
(
(-48.5632 -0.964523 0)
(-19.7663 -0.00515754 0)
(-14.3599 -0.00113378 0)
(-12.056 -0.000542962 0)
(-10.6613 -0.000346392 0)
(-9.69082 -0.000245492 0)
(-8.98112 -0.000175307 0)
(-8.48833 -0.000106708 0)
(-8.24823 -1.64357e-05 0)
(-8.37811 0.000160471 0)
(-9.36297 0.000321053 0)
(-10.6024 0.000303892 0)
(-11.4679 0.000194145 0)
(-11.9503 0.000106108 0)
(-12.2067 5.56951e-05 0)
(-12.3391 2.67312e-05 0)
(-12.3937 7.84033e-06 0)
(-12.394 -5.06322e-06 0)
(-12.358 -1.32468e-05 0)
(-12.3005 -1.83224e-05 0)
(-12.2284 -2.14274e-05 0)
(-12.1486 -2.29393e-05 0)
(-12.0654 -2.34888e-05 0)
(-11.9813 -2.34521e-05 0)
(-11.898 -2.30707e-05 0)
(-11.8162 -2.25094e-05 0)
(-11.7366 -2.18336e-05 0)
(-11.6593 -2.10774e-05 0)
(-11.5847 -2.0297e-05 0)
(-11.5127 -1.952e-05 0)
(-11.4434 -1.87646e-05 0)
(-11.3766 -1.80405e-05 0)
(-11.3122 -1.73523e-05 0)
(-11.25 -1.67039e-05 0)
(-11.1901 -1.61154e-05 0)
(-11.1319 -1.55665e-05 0)
(-11.0757 -1.5038e-05 0)
(-11.0212 -1.45402e-05 0)
(-10.9683 -1.40775e-05 0)
(-10.9169 -1.36471e-05 0)
(-10.867 -1.32451e-05 0)
(-10.8183 -1.28673e-05 0)
(-10.771 -1.25165e-05 0)
(-10.7247 -1.21847e-05 0)
(-10.6796 -1.1871e-05 0)
(-10.6355 -1.15945e-05 0)
(-10.5922 -1.13632e-05 0)
(-10.5496 -1.11591e-05 0)
(-10.5077 -1.09552e-05 0)
(-10.4665 -1.07436e-05 0)
(-10.426 -1.05316e-05 0)
(-10.3862 -1.03235e-05 0)
(-10.3471 -1.01166e-05 0)
(-10.3086 -9.91375e-06 0)
(-10.2709 -9.7174e-06 0)
(-10.2338 -9.52363e-06 0)
(-10.1975 -9.33443e-06 0)
(-10.1617 -9.15252e-06 0)
(-10.1265 -8.97438e-06 0)
(-10.0919 -8.80128e-06 0)
(-10.058 -8.63044e-06 0)
(-10.0246 -8.46503e-06 0)
(-9.99173 -8.30508e-06 0)
(-9.95942 -8.15337e-06 0)
(-9.92764 -8.00824e-06 0)
(-9.89632 -7.86586e-06 0)
(-9.86552 -7.72171e-06 0)
(-9.8352 -7.57988e-06 0)
(-9.80538 -7.44176e-06 0)
(-9.77602 -7.30796e-06 0)
(-9.74713 -7.17711e-06 0)
(-9.71868 -7.05007e-06 0)
(-9.69067 -6.92614e-06 0)
(-9.66309 -6.8052e-06 0)
(-9.63592 -6.68792e-06 0)
(-9.60916 -6.57299e-06 0)
(-9.58279 -6.46173e-06 0)
(-9.55681 -6.35232e-06 0)
(-9.53121 -6.24632e-06 0)
(-9.50597 -6.14207e-06 0)
(-9.4811 -6.0411e-06 0)
(-9.45657 -5.94165e-06 0)
(-9.43241 -5.84532e-06 0)
(-9.40855 -5.7509e-06 0)
(-9.38505 -5.65887e-06 0)
(-9.36185 -5.56907e-06 0)
(-9.33899 -5.48077e-06 0)
(-9.31641 -5.39564e-06 0)
(-9.29414 -5.31195e-06 0)
(-9.27216 -5.23236e-06 0)
(-9.25046 -5.15447e-06 0)
(-9.22902 -5.0789e-06 0)
(-9.20785 -5.0031e-06 0)
(-9.18695 -4.92729e-06 0)
(-9.16633 -4.85421e-06 0)
(-9.14595 -4.78199e-06 0)
(-9.12584 -4.71154e-06 0)
(-9.10597 -4.64302e-06 0)
(-9.08635 -4.57515e-06 0)
(-9.06696 -4.5093e-06 0)
(-9.04781 -4.44505e-06 0)
(-9.02889 -4.38074e-06 0)
(-9.0102 -4.31954e-06 0)
(-8.99171 -4.25851e-06 0)
(-8.97347 -4.19815e-06 0)
(-8.95542 -4.14089e-06 0)
(-8.93759 -4.0832e-06 0)
(-8.91995 -4.02699e-06 0)
(-8.90253 -3.97299e-06 0)
(-8.88528 -3.91941e-06 0)
(-8.86825 -3.86617e-06 0)
(-8.85139 -3.81594e-06 0)
(-8.83471 -3.765e-06 0)
(-8.81822 -3.71511e-06 0)
(-8.80191 -3.66708e-06 0)
(-8.78577 -3.61959e-06 0)
(-8.76981 -3.57186e-06 0)
(-8.75402 -3.52686e-06 0)
(-8.73838 -3.48187e-06 0)
(-8.72292 -3.43718e-06 0)
(-8.7076 -3.39394e-06 0)
(-8.69246 -3.35184e-06 0)
(-8.67745 -3.30942e-06 0)
(-8.66262 -3.26842e-06 0)
(-8.64792 -3.22882e-06 0)
(-8.63338 -3.18913e-06 0)
(-8.61896 -3.14965e-06 0)
(-8.60471 -3.11213e-06 0)
(-8.59058 -3.07432e-06 0)
(-8.5766 -3.03748e-06 0)
(-8.56274 -3.00173e-06 0)
(-8.54903 -2.96803e-06 0)
(-8.53541 -2.93346e-06 0)
(-8.52196 -2.89891e-06 0)
(-8.5086 -2.86507e-06 0)
(-8.4954 -2.832e-06 0)
(-8.48228 -2.79829e-06 0)
(-8.46933 -2.76597e-06 0)
(-8.45645 -2.73464e-06 0)
(-8.44374 -2.7031e-06 0)
(-8.4311 -2.67191e-06 0)
(-8.41862 -2.64149e-06 0)
(-8.4062 -2.61241e-06 0)
(-8.39394 -2.58247e-06 0)
(-8.38175 -2.55325e-06 0)
(-8.36971 -2.5247e-06 0)
(-8.35773 -2.49727e-06 0)
(-8.34589 -2.46926e-06 0)
(-8.33413 -2.44194e-06 0)
(-8.3225 -2.41552e-06 0)
(-8.31094 -2.38946e-06 0)
(-8.2995 -2.36319e-06 0)
(-8.28814 -2.33725e-06 0)
(-8.2769 -2.31225e-06 0)
(-8.26573 -2.28787e-06 0)
(-8.25468 -2.26333e-06 0)
(-8.24369 -2.2393e-06 0)
(-8.23282 -2.21603e-06 0)
(-8.22201 -2.1936e-06 0)
(-8.21131 -2.17065e-06 0)
(-8.20067 -2.14828e-06 0)
(-8.19014 -2.12589e-06 0)
(-8.17968 -2.10523e-06 0)
(-8.1693 -2.08308e-06 0)
(-8.15901 -2.06165e-06 0)
(-8.1488 -2.04042e-06 0)
(-8.13867 -2.02008e-06 0)
(-8.12862 -1.99928e-06 0)
(-8.11865 -1.97865e-06 0)
(-8.10876 -1.95835e-06 0)
(-8.09895 -1.93911e-06 0)
(-8.0892 -1.91963e-06 0)
(-8.07955 -1.89849e-06 0)
(-8.0705 -1.88422e-06 0)
(-8.06198 -1.87377e-06 0)
(-8.05341 -1.85823e-06 0)
(-8.04484 -1.84221e-06 0)
(-8.03624 -1.82629e-06 0)
(-8.02763 -1.80924e-06 0)
(-8.01901 -1.79254e-06 0)
(-8.01038 -1.77612e-06 0)
(-8.00172 -1.75938e-06 0)
(-7.99307 -1.74234e-06 0)
(-7.9844 -1.72529e-06 0)
(-7.97573 -1.70839e-06 0)
(-7.96704 -1.69161e-06 0)
(-7.95835 -1.67491e-06 0)
(-7.94965 -1.65743e-06 0)
(-7.94096 -1.64026e-06 0)
(-7.93225 -1.62357e-06 0)
(-7.92355 -1.60696e-06 0)
(-7.91483 -1.59063e-06 0)
(-7.90612 -1.5742e-06 0)
(-7.8974 -1.55761e-06 0)
(-7.88868 -1.54147e-06 0)
(-7.87995 -1.52549e-06 0)
(-7.87123 -1.50892e-06 0)
(-7.86251 -1.49261e-06 0)
(-7.85379 -1.47626e-06 0)
(-7.84507 -1.46075e-06 0)
(-7.83635 -1.44508e-06 0)
(-7.82763 -1.42877e-06 0)
(-7.81892 -1.41191e-06 0)
(-7.81021 -1.39602e-06 0)
(-7.80151 -1.37971e-06 0)
(-7.79283 -1.36397e-06 0)
(-7.78414 -1.34759e-06 0)
(-7.77548 -1.3317e-06 0)
(-7.76681 -1.31637e-06 0)
(-7.75816 -1.30064e-06 0)
(-7.74951 -1.28526e-06 0)
(-7.74088 -1.27007e-06 0)
(-7.73225 -1.25471e-06 0)
(-7.72364 -1.23989e-06 0)
(-7.71503 -1.22534e-06 0)
(-7.70644 -1.20974e-06 0)
(-7.69787 -1.19587e-06 0)
(-7.68929 -1.18095e-06 0)
(-7.68075 -1.16689e-06 0)
(-7.67219 -1.15292e-06 0)
(-7.66367 -1.13884e-06 0)
(-7.65514 -1.12518e-06 0)
(-7.64663 -1.11105e-06 0)
(-7.63814 -1.09727e-06 0)
(-7.62966 -1.08328e-06 0)
(-7.6212 -1.06928e-06 0)
(-7.61276 -1.05546e-06 0)
(-7.60434 -1.04179e-06 0)
(-7.59594 -1.02753e-06 0)
(-7.58757 -1.01454e-06 0)
(-7.5792 -1.00131e-06 0)
(-7.57087 -9.88201e-07 0)
(-7.56254 -9.75097e-07 0)
(-7.55425 -9.62077e-07 0)
(-7.54597 -9.4889e-07 0)
(-7.53773 -9.36236e-07 0)
(-7.5295 -9.23206e-07 0)
(-7.52131 -9.10108e-07 0)
(-7.51313 -8.98372e-07 0)
(-7.50498 -8.85527e-07 0)
(-7.49686 -8.73481e-07 0)
(-7.48875 -8.61619e-07 0)
(-7.48068 -8.49795e-07 0)
(-7.47263 -8.37803e-07 0)
(-7.46461 -8.26279e-07 0)
(-7.4566 -8.14446e-07 0)
(-7.44865 -8.02707e-07 0)
(-7.4407 -7.91104e-07 0)
(-7.4328 -7.79314e-07 0)
(-7.42493 -7.68001e-07 0)
(-7.41709 -7.56164e-07 0)
(-7.40929 -7.45469e-07 0)
(-7.40151 -7.34515e-07 0)
(-7.39376 -7.23747e-07 0)
(-7.38605 -7.1321e-07 0)
(-7.37836 -7.02916e-07 0)
(-7.3707 -6.92447e-07 0)
(-7.36309 -6.81562e-07 0)
(-7.3555 -6.71428e-07 0)
(-7.34795 -6.60949e-07 0)
(-7.34045 -6.50922e-07 0)
(-7.33296 -6.413e-07 0)
(-7.32551 -6.31236e-07 0)
(-7.31811 -6.22347e-07 0)
(-7.31071 -6.13038e-07 0)
(-7.30336 -6.03563e-07 0)
(-7.29604 -5.94934e-07 0)
(-7.28874 -5.86137e-07 0)
(-7.28148 -5.77345e-07 0)
(-7.27425 -5.69056e-07 0)
(-7.26703 -5.60513e-07 0)
(-7.25987 -5.51972e-07 0)
(-7.25272 -5.43586e-07 0)
(-7.24562 -5.34903e-07 0)
(-7.23855 -5.26284e-07 0)
(-7.23153 -5.18494e-07 0)
(-7.22451 -5.1059e-07 0)
(-7.21755 -5.02037e-07 0)
(-7.21063 -4.94681e-07 0)
(-7.20372 -4.87006e-07 0)
(-7.19686 -4.78806e-07 0)
(-7.19005 -4.72015e-07 0)
(-7.18323 -4.65086e-07 0)
(-7.17647 -4.5817e-07 0)
(-7.16971 -4.51996e-07 0)
(-7.16299 -4.45082e-07 0)
(-7.15629 -4.3827e-07 0)
(-7.14963 -4.32136e-07 0)
(-7.14297 -4.2525e-07 0)
(-7.13638 -4.19001e-07 0)
(-7.12978 -4.12757e-07 0)
(-7.12324 -4.05901e-07 0)
(-7.11672 -3.99923e-07 0)
(-7.11024 -3.93726e-07 0)
(-7.10378 -3.87643e-07 0)
(-7.09736 -3.81634e-07 0)
(-7.09096 -3.76375e-07 0)
(-7.08458 -3.70689e-07 0)
(-7.07824 -3.65237e-07 0)
(-7.07191 -3.60183e-07 0)
(-7.06561 -3.54751e-07 0)
(-7.05933 -3.49459e-07 0)
(-7.05308 -3.4453e-07 0)
(-7.04684 -3.39359e-07 0)
(-7.04065 -3.34719e-07 0)
(-7.03445 -3.30102e-07 0)
(-7.0283 -3.25106e-07 0)
(-7.02215 -3.21175e-07 0)
(-7.01601 -3.16797e-07 0)
(-7.0099 -3.11787e-07 0)
(-7.00382 -3.07242e-07 0)
(-6.99776 -3.02604e-07 0)
(-6.99174 -2.97761e-07 0)
(-6.98574 -2.93668e-07 0)
(-6.97975 -2.89195e-07 0)
(-6.97381 -2.84707e-07 0)
(-6.96788 -2.80782e-07 0)
(-6.96197 -2.76499e-07 0)
(-6.9561 -2.72082e-07 0)
(-6.95025 -2.68233e-07 0)
(-6.94442 -2.63972e-07 0)
(-6.93864 -2.597e-07 0)
(-6.93287 -2.55923e-07 0)
(-6.92713 -2.51938e-07 0)
(-6.92141 -2.47894e-07 0)
(-6.91574 -2.44511e-07 0)
(-6.91005 -2.40855e-07 0)
(-6.90443 -2.37263e-07 0)
(-6.89879 -2.34038e-07 0)
(-6.89319 -2.30581e-07 0)
(-6.8876 -2.27133e-07 0)
(-6.88205 -2.24124e-07 0)
(-6.87649 -2.20745e-07 0)
(-6.87099 -2.1755e-07 0)
(-6.86547 -2.14653e-07 0)
(-6.86 -2.1147e-07 0)
(-6.85452 -2.08411e-07 0)
(-6.84909 -2.05682e-07 0)
(-6.84364 -2.02673e-07 0)
(-6.83825 -1.99739e-07 0)
(-6.83284 -1.96854e-07 0)
(-6.82749 -1.93973e-07 0)
(-6.82213 -1.9142e-07 0)
(-6.8168 -1.88875e-07 0)
(-6.81146 -1.86348e-07 0)
(-6.80617 -1.84403e-07 0)
(-6.80082 -1.81946e-07 0)
(-6.79555 -1.79384e-07 0)
(-6.79024 -1.77048e-07 0)
(-6.785 -1.73948e-07 0)
(-6.77976 -1.71345e-07 0)
(-6.77457 -1.68012e-07 0)
(-6.76942 -1.6575e-07 0)
(-6.76425 -1.62521e-07 0)
(-6.75863 -1.57813e-07 0)
(-6.75258 -1.5333e-07 0)
(-6.74671 -1.50081e-07 0)
(-6.74091 -1.47375e-07 0)
(-6.73525 -1.44763e-07 0)
(-6.72965 -1.42724e-07 0)
(-6.72415 -1.40885e-07 0)
(-6.71869 -1.39139e-07 0)
(-6.71332 -1.37465e-07 0)
(-6.70799 -1.35877e-07 0)
(-6.70275 -1.33849e-07 0)
(-6.69758 -1.31683e-07 0)
(-6.6925 -1.29776e-07 0)
(-6.68748 -1.27734e-07 0)
(-6.68256 -1.25643e-07 0)
(-6.6777 -1.23943e-07 0)
(-6.67292 -1.21957e-07 0)
(-6.66821 -1.20415e-07 0)
(-6.66355 -1.18819e-07 0)
(-6.65897 -1.17157e-07 0)
(-6.65444 -1.15823e-07 0)
(-6.64996 -1.14194e-07 0)
(-6.64555 -1.12699e-07 0)
(-6.64119 -1.1117e-07 0)
(-6.6369 -1.09706e-07 0)
(-6.63266 -1.08242e-07 0)
(-6.62848 -1.07036e-07 0)
(-6.62433 -1.05476e-07 0)
(-6.62028 -1.03935e-07 0)
(-6.61624 -1.02623e-07 0)
(-6.6123 -1.00977e-07 0)
(-6.60839 -9.98231e-08 0)
(-6.60453 -9.84752e-08 0)
(-6.60073 -9.75944e-08 0)
(-6.59694 -9.64638e-08 0)
(-6.59323 -9.54807e-08 0)
(-6.58951 -9.47094e-08 0)
(-6.58586 -9.33072e-08 0)
(-6.58225 -9.23982e-08 0)
(-6.57867 -9.1127e-08 0)
(-6.57517 -9.01142e-08 0)
(-6.57166 -8.88444e-08 0)
(-6.56826 -8.73293e-08 0)
(-6.56487 -8.62523e-08 0)
(-6.56155 -8.4885e-08 0)
(-6.55828 -8.40802e-08 0)
(-6.55501 -8.34657e-08 0)
(-6.55178 -8.30317e-08 0)
(-6.54855 -8.31093e-08 0)
(-6.54532 -8.23784e-08 0)
(-6.54214 -8.22057e-08 0)
(-6.53892 -8.14879e-08 0)
(-6.5358 -8.09811e-08 0)
(-6.53261 -8.07097e-08 0)
(-6.52952 -7.98958e-08 0)
(-6.52639 -7.93665e-08 0)
(-6.52334 -7.87125e-08 0)
(-6.52027 -7.82542e-08 0)
(-6.51725 -7.71465e-08 0)
(-6.51426 -7.60508e-08 0)
(-6.51133 -7.49582e-08 0)
(-6.50843 -7.37204e-08 0)
(-6.5056 -7.29406e-08 0)
(-6.50276 -7.27081e-08 0)
(-6.49994 -7.22071e-08 0)
(-6.49714 -7.17029e-08 0)
(-6.49436 -7.0747e-08 0)
(-6.49164 -6.98102e-08 0)
(-6.48893 -6.89807e-08 0)
(-6.48627 -6.83989e-08 0)
(-6.48361 -6.74042e-08 0)
(-6.48103 -6.71531e-08 0)
(-6.47839 -6.68134e-08 0)
(-6.47583 -6.64072e-08 0)
(-6.47322 -6.6469e-08 0)
(-6.47066 -6.60094e-08 0)
(-6.46808 -6.58832e-08 0)
(-6.46553 -6.53266e-08 0)
(-6.463 -6.50514e-08 0)
(-6.46047 -6.46626e-08 0)
(-6.45797 -6.40007e-08 0)
(-6.45549 -6.34085e-08 0)
(-6.45304 -6.32093e-08 0)
(-6.45057 -6.26661e-08 0)
(-6.44816 -6.24143e-08 0)
(-6.44572 -6.19452e-08 0)
(-6.44334 -6.11025e-08 0)
(-6.44097 -6.17503e-08 0)
(-6.43854 -5.95804e-08 0)
(-6.43634 -6.3175e-08 0)
(-6.43362 -5.33497e-08 0)
(-6.43221 -7.05603e-08 0)
(-6.42809 -3.89859e-08 0)
(-6.42928 -5.36305e-08 0)
(-6.42375 -7.40954e-08 0)
)
;
    }
    symmetry
    {
        type            symmetryPlane;
    }
    frontAndBack
    {
        type            empty;
    }
}


// ************************************************************************* //
