/*--------------------------------*- C++ -*----------------------------------*\
| =========                 |                                                 |
| \\      /  F ield         | OpenFOAM: The Open Source CFD Toolbox           |
|  \\    /   O peration     | Version:  v2012                                 |
|   \\  /    A nd           | Website:  www.openfoam.com                      |
|    \\/     M anipulation  |                                                 |
\*---------------------------------------------------------------------------*/
FoamFile
{
    version     2.0;
    format      ascii;
    class       volScalarField;
    location    "12.5";
    object      nut;
}
// * * * * * * * * * * * * * * * * * * * * * * * * * * * * * * * * * * * * * //

dimensions      [0 2 -1 0 0 0 0];


internalField   nonuniform List<scalar> 
209825
(
1.2162e-07
1.13598e-07
1.08227e-07
1.04736e-07
1.02288e-07
1.00482e-07
9.90766e-08
9.79688e-08
9.7056e-08
9.63129e-08
9.56748e-08
9.51461e-08
9.46792e-08
9.42837e-08
9.39316e-08
9.36339e-08
9.33598e-08
9.31282e-08
9.2909e-08
9.27251e-08
9.25473e-08
9.23978e-08
9.22537e-08
9.2136e-08
9.20163e-08
9.19193e-08
9.18215e-08
9.17461e-08
9.16617e-08
9.15969e-08
9.15385e-08
9.14889e-08
9.14371e-08
9.13937e-08
9.13419e-08
9.13032e-08
9.12708e-08
9.12389e-08
9.12059e-08
9.11794e-08
9.11446e-08
9.11174e-08
9.10929e-08
9.10709e-08
9.10484e-08
9.10258e-08
9.10104e-08
9.09846e-08
9.0969e-08
9.09511e-08
9.09264e-08
9.09037e-08
9.08999e-08
9.08925e-08
9.0863e-08
9.08734e-08
9.0856e-08
9.08404e-08
9.08215e-08
9.08364e-08
9.08365e-08
9.08362e-08
9.08439e-08
9.08781e-08
9.08761e-08
9.08761e-08
9.088e-08
9.09157e-08
9.0951e-08
9.09314e-08
9.09324e-08
9.09848e-08
9.10279e-08
9.10632e-08
9.11196e-08
9.11456e-08
9.1164e-08
9.1197e-08
9.12324e-08
9.12927e-08
9.13467e-08
9.14218e-08
9.14842e-08
9.15537e-08
9.16125e-08
9.17198e-08
9.17938e-08
9.19524e-08
9.20258e-08
9.22565e-08
9.23657e-08
9.27141e-08
9.28224e-08
9.3663e-08
8.8312e-07
1.74122e-09
1.21621e-07
1.13599e-07
1.08228e-07
1.04737e-07
1.02289e-07
1.00482e-07
9.90766e-08
9.79686e-08
9.70556e-08
9.63123e-08
9.5674e-08
9.51451e-08
9.46781e-08
9.42826e-08
9.39303e-08
9.36325e-08
9.33583e-08
9.31266e-08
9.29074e-08
9.27234e-08
9.25456e-08
9.2396e-08
9.22518e-08
9.21341e-08
9.20144e-08
9.19173e-08
9.18195e-08
9.1744e-08
9.16596e-08
9.15948e-08
9.15364e-08
9.14868e-08
9.14349e-08
9.13915e-08
9.13396e-08
9.13009e-08
9.12685e-08
9.12366e-08
9.12036e-08
9.11771e-08
9.11423e-08
9.1115e-08
9.10905e-08
9.10685e-08
9.1046e-08
9.10234e-08
9.1008e-08
9.09822e-08
9.09665e-08
9.09487e-08
9.0924e-08
9.09013e-08
9.08975e-08
9.089e-08
9.08606e-08
9.08709e-08
9.08535e-08
9.08379e-08
9.0819e-08
9.08339e-08
9.0834e-08
9.08337e-08
9.08414e-08
9.08756e-08
9.08736e-08
9.08736e-08
9.08775e-08
9.09132e-08
9.09484e-08
9.09289e-08
9.09299e-08
9.09822e-08
9.10254e-08
9.10607e-08
9.1117e-08
9.1143e-08
9.11615e-08
9.11945e-08
9.12298e-08
9.12901e-08
9.13442e-08
9.14193e-08
9.14817e-08
9.15512e-08
9.161e-08
9.17173e-08
9.17913e-08
9.19499e-08
9.20233e-08
9.2254e-08
9.23632e-08
9.27116e-08
9.28198e-08
9.36618e-08
8.84172e-07
1.7694e-09
1.21624e-07
1.13606e-07
1.08234e-07
1.04741e-07
1.02291e-07
1.00483e-07
9.90766e-08
9.79677e-08
9.70538e-08
9.63098e-08
9.56709e-08
9.51415e-08
9.46739e-08
9.4278e-08
9.39253e-08
9.36272e-08
9.33527e-08
9.31207e-08
9.29012e-08
9.2717e-08
9.25389e-08
9.23891e-08
9.22448e-08
9.21269e-08
9.2007e-08
9.19098e-08
9.18118e-08
9.17363e-08
9.16517e-08
9.15867e-08
9.15283e-08
9.14785e-08
9.14266e-08
9.13831e-08
9.13312e-08
9.12924e-08
9.12599e-08
9.12279e-08
9.11948e-08
9.11683e-08
9.11335e-08
9.11062e-08
9.10816e-08
9.10596e-08
9.1037e-08
9.10144e-08
9.0999e-08
9.09731e-08
9.09574e-08
9.09395e-08
9.09149e-08
9.08921e-08
9.08883e-08
9.08808e-08
9.08513e-08
9.08616e-08
9.08442e-08
9.08286e-08
9.08097e-08
9.08245e-08
9.08246e-08
9.08243e-08
9.0832e-08
9.08661e-08
9.08641e-08
9.08641e-08
9.08681e-08
9.09036e-08
9.0939e-08
9.09194e-08
9.09203e-08
9.09727e-08
9.10158e-08
9.10511e-08
9.11075e-08
9.11335e-08
9.1152e-08
9.11849e-08
9.12203e-08
9.12806e-08
9.13346e-08
9.14097e-08
9.14721e-08
9.15416e-08
9.16004e-08
9.17077e-08
9.17817e-08
9.19403e-08
9.20137e-08
9.22443e-08
9.23535e-08
9.27019e-08
9.28097e-08
9.36548e-08
8.87236e-07
1.81333e-09
1.21631e-07
1.13616e-07
1.08243e-07
1.04747e-07
1.02295e-07
1.00485e-07
9.90767e-08
9.79662e-08
9.7051e-08
9.63057e-08
9.56658e-08
9.51354e-08
9.46671e-08
9.42704e-08
9.39171e-08
9.36184e-08
9.33433e-08
9.31109e-08
9.28909e-08
9.27063e-08
9.25279e-08
9.23778e-08
9.22331e-08
9.2115e-08
9.19948e-08
9.18973e-08
9.17991e-08
9.17234e-08
9.16386e-08
9.15735e-08
9.15148e-08
9.14649e-08
9.14129e-08
9.13692e-08
9.13172e-08
9.12783e-08
9.12457e-08
9.12136e-08
9.11804e-08
9.11538e-08
9.11188e-08
9.10915e-08
9.10668e-08
9.10447e-08
9.10222e-08
9.09995e-08
9.0984e-08
9.09581e-08
9.09424e-08
9.09244e-08
9.08997e-08
9.08769e-08
9.0873e-08
9.08656e-08
9.0836e-08
9.08462e-08
9.08288e-08
9.08132e-08
9.07941e-08
9.0809e-08
9.0809e-08
9.08088e-08
9.08164e-08
9.08505e-08
9.08484e-08
9.08484e-08
9.08524e-08
9.08878e-08
9.09232e-08
9.09036e-08
9.09046e-08
9.09568e-08
9.09999e-08
9.10352e-08
9.10915e-08
9.11177e-08
9.11362e-08
9.11692e-08
9.12044e-08
9.12647e-08
9.13187e-08
9.13938e-08
9.14561e-08
9.15258e-08
9.15845e-08
9.16918e-08
9.17657e-08
9.19243e-08
9.19977e-08
9.22281e-08
9.23373e-08
9.26856e-08
9.27929e-08
9.36427e-08
8.92233e-07
1.869e-09
1.2164e-07
1.13632e-07
1.08256e-07
1.04756e-07
1.02301e-07
1.00488e-07
9.90769e-08
9.79642e-08
9.7047e-08
9.63001e-08
9.56587e-08
9.5127e-08
9.46575e-08
9.42598e-08
9.39056e-08
9.36061e-08
9.33302e-08
9.30971e-08
9.28765e-08
9.26914e-08
9.25125e-08
9.23619e-08
9.22168e-08
9.20982e-08
9.19777e-08
9.18799e-08
9.17814e-08
9.17053e-08
9.16203e-08
9.15549e-08
9.1496e-08
9.14459e-08
9.13936e-08
9.13497e-08
9.12976e-08
9.12585e-08
9.12257e-08
9.11935e-08
9.11601e-08
9.11334e-08
9.10983e-08
9.10709e-08
9.10462e-08
9.1024e-08
9.10013e-08
9.09785e-08
9.09629e-08
9.09371e-08
9.09212e-08
9.09033e-08
9.08785e-08
9.08556e-08
9.08516e-08
9.08441e-08
9.08145e-08
9.08246e-08
9.08072e-08
9.07915e-08
9.07724e-08
9.07871e-08
9.07872e-08
9.07869e-08
9.07944e-08
9.08284e-08
9.08264e-08
9.08264e-08
9.08303e-08
9.08656e-08
9.09011e-08
9.08816e-08
9.08824e-08
9.09345e-08
9.09777e-08
9.10129e-08
9.10692e-08
9.10955e-08
9.1114e-08
9.1147e-08
9.11822e-08
9.12424e-08
9.12963e-08
9.13714e-08
9.14338e-08
9.15035e-08
9.15622e-08
9.16695e-08
9.17432e-08
9.19018e-08
9.19753e-08
9.22053e-08
9.23146e-08
9.26627e-08
9.27694e-08
9.36255e-08
8.99235e-07
1.93511e-09
1.21652e-07
1.13651e-07
1.08273e-07
1.04769e-07
1.02308e-07
1.00492e-07
9.90773e-08
9.79617e-08
9.7042e-08
9.62929e-08
9.56496e-08
9.51162e-08
9.46452e-08
9.42462e-08
9.38908e-08
9.35902e-08
9.33134e-08
9.30794e-08
9.2858e-08
9.26722e-08
9.24926e-08
9.23414e-08
9.21957e-08
9.20767e-08
9.19556e-08
9.18574e-08
9.17584e-08
9.1682e-08
9.15966e-08
9.15309e-08
9.14716e-08
9.14213e-08
9.13687e-08
9.13246e-08
9.12722e-08
9.12329e-08
9.11999e-08
9.11675e-08
9.1134e-08
9.11071e-08
9.10718e-08
9.10443e-08
9.10194e-08
9.09971e-08
9.09743e-08
9.09515e-08
9.09358e-08
9.09098e-08
9.08939e-08
9.08759e-08
9.08511e-08
9.0828e-08
9.0824e-08
9.08165e-08
9.07867e-08
9.07967e-08
9.07793e-08
9.07635e-08
9.07443e-08
9.07589e-08
9.07589e-08
9.07587e-08
9.07661e-08
9.08e-08
9.0798e-08
9.07979e-08
9.08019e-08
9.08369e-08
9.08726e-08
9.0853e-08
9.08538e-08
9.09057e-08
9.09489e-08
9.09841e-08
9.10403e-08
9.10668e-08
9.10854e-08
9.11183e-08
9.11535e-08
9.12136e-08
9.12674e-08
9.13425e-08
9.14048e-08
9.14747e-08
9.15333e-08
9.16406e-08
9.17141e-08
9.18727e-08
9.19462e-08
9.21757e-08
9.22851e-08
9.2633e-08
9.27389e-08
9.36031e-08
9.08322e-07
2.01132e-09
1.21667e-07
1.13676e-07
1.08294e-07
1.04784e-07
1.02318e-07
1.00497e-07
9.90779e-08
9.79587e-08
9.70359e-08
9.62842e-08
9.56384e-08
9.5103e-08
9.46302e-08
9.42295e-08
9.38726e-08
9.35707e-08
9.32927e-08
9.30576e-08
9.28353e-08
9.26485e-08
9.24681e-08
9.23162e-08
9.21698e-08
9.20501e-08
9.19285e-08
9.18297e-08
9.17302e-08
9.16533e-08
9.15675e-08
9.15014e-08
9.14417e-08
9.1391e-08
9.1338e-08
9.12937e-08
9.1241e-08
9.12014e-08
9.11681e-08
9.11355e-08
9.11018e-08
9.10747e-08
9.10393e-08
9.10116e-08
9.09865e-08
9.09641e-08
9.09411e-08
9.09182e-08
9.09023e-08
9.08764e-08
9.08602e-08
9.08422e-08
9.08174e-08
9.07941e-08
9.079e-08
9.07824e-08
9.07524e-08
9.07624e-08
9.0745e-08
9.0729e-08
9.07096e-08
9.07241e-08
9.07242e-08
9.0724e-08
9.07312e-08
9.0765e-08
9.07629e-08
9.07628e-08
9.07668e-08
9.08016e-08
9.08374e-08
9.08178e-08
9.08185e-08
9.08703e-08
9.09135e-08
9.09486e-08
9.10047e-08
9.10314e-08
9.10501e-08
9.10831e-08
9.11181e-08
9.11781e-08
9.12318e-08
9.13068e-08
9.13692e-08
9.14392e-08
9.14976e-08
9.1605e-08
9.16783e-08
9.18369e-08
9.19104e-08
9.21394e-08
9.22488e-08
9.25965e-08
9.27013e-08
9.35755e-08
9.19572e-07
2.09785e-09
1.21684e-07
1.13705e-07
1.08319e-07
1.04802e-07
1.02329e-07
1.00502e-07
9.90787e-08
9.79553e-08
9.70288e-08
9.62738e-08
9.56253e-08
9.50874e-08
9.46123e-08
9.42097e-08
9.3851e-08
9.35475e-08
9.32681e-08
9.30318e-08
9.28082e-08
9.26204e-08
9.2439e-08
9.22862e-08
9.2139e-08
9.20185e-08
9.18962e-08
9.17968e-08
9.16967e-08
9.16192e-08
9.15329e-08
9.14662e-08
9.1406e-08
9.13549e-08
9.13016e-08
9.12569e-08
9.12038e-08
9.11639e-08
9.11302e-08
9.10974e-08
9.10634e-08
9.10362e-08
9.10004e-08
9.09725e-08
9.09473e-08
9.09247e-08
9.09016e-08
9.08785e-08
9.08625e-08
9.08364e-08
9.08202e-08
9.08021e-08
9.07772e-08
9.07537e-08
9.07495e-08
9.07418e-08
9.07117e-08
9.07214e-08
9.0704e-08
9.0688e-08
9.06683e-08
9.06827e-08
9.06828e-08
9.06826e-08
9.06896e-08
9.07232e-08
9.07211e-08
9.07211e-08
9.0725e-08
9.07595e-08
9.07955e-08
9.07759e-08
9.07765e-08
9.08281e-08
9.08712e-08
9.09063e-08
9.09623e-08
9.09893e-08
9.1008e-08
9.1041e-08
9.10759e-08
9.11358e-08
9.11894e-08
9.12643e-08
9.13267e-08
9.13969e-08
9.14552e-08
9.15625e-08
9.16356e-08
9.17941e-08
9.18677e-08
9.2096e-08
9.22055e-08
9.25529e-08
9.26565e-08
9.35426e-08
9.33066e-07
2.19539e-09
1.21704e-07
1.13739e-07
1.08348e-07
1.04823e-07
1.02343e-07
1.00509e-07
9.90798e-08
9.79514e-08
9.70206e-08
9.62619e-08
9.56101e-08
9.50693e-08
9.45916e-08
9.41867e-08
9.3826e-08
9.35206e-08
9.32395e-08
9.30017e-08
9.27768e-08
9.25877e-08
9.24052e-08
9.22513e-08
9.21031e-08
9.19818e-08
9.18586e-08
9.17585e-08
9.16576e-08
9.15795e-08
9.14926e-08
9.14253e-08
9.13645e-08
9.13129e-08
9.12591e-08
9.1214e-08
9.11606e-08
9.11202e-08
9.10862e-08
9.10531e-08
9.10187e-08
9.09912e-08
9.09552e-08
9.09271e-08
9.09017e-08
9.08789e-08
9.08555e-08
9.08323e-08
9.08161e-08
9.079e-08
9.07735e-08
9.07553e-08
9.07303e-08
9.07066e-08
9.07023e-08
9.06945e-08
9.06642e-08
9.06738e-08
9.06563e-08
9.06401e-08
9.06203e-08
9.06345e-08
9.06346e-08
9.06344e-08
9.06411e-08
9.06746e-08
9.06725e-08
9.06724e-08
9.06764e-08
9.07105e-08
9.07467e-08
9.07271e-08
9.07276e-08
9.07788e-08
9.0822e-08
9.0857e-08
9.09129e-08
9.09402e-08
9.0959e-08
9.0992e-08
9.10267e-08
9.10865e-08
9.11399e-08
9.12148e-08
9.12772e-08
9.13475e-08
9.14057e-08
9.1513e-08
9.15858e-08
9.17443e-08
9.18179e-08
9.20454e-08
9.2155e-08
9.2502e-08
9.26042e-08
9.35042e-08
9.48877e-07
2.30498e-09
1.21727e-07
1.13778e-07
1.08381e-07
1.04847e-07
1.02358e-07
1.00517e-07
9.90812e-08
9.79471e-08
9.70114e-08
9.62484e-08
9.55928e-08
9.50487e-08
9.45681e-08
9.41606e-08
9.37974e-08
9.349e-08
9.32069e-08
9.29674e-08
9.27409e-08
9.25504e-08
9.23665e-08
9.22115e-08
9.20621e-08
9.19398e-08
9.18157e-08
9.17146e-08
9.16129e-08
9.15341e-08
9.14465e-08
9.13785e-08
9.13171e-08
9.12649e-08
9.12105e-08
9.1165e-08
9.11111e-08
9.10703e-08
9.10358e-08
9.10024e-08
9.09676e-08
9.09398e-08
9.09035e-08
9.08752e-08
9.08495e-08
9.08265e-08
9.08028e-08
9.07795e-08
9.0763e-08
9.07368e-08
9.072e-08
9.07018e-08
9.06767e-08
9.06527e-08
9.06482e-08
9.06404e-08
9.06099e-08
9.06192e-08
9.06017e-08
9.05854e-08
9.05653e-08
9.05793e-08
9.05794e-08
9.05792e-08
9.05857e-08
9.06189e-08
9.06167e-08
9.06167e-08
9.06207e-08
9.06544e-08
9.06908e-08
9.06712e-08
9.06716e-08
9.07225e-08
9.07657e-08
9.08005e-08
9.08564e-08
9.0884e-08
9.09029e-08
9.09358e-08
9.09704e-08
9.103e-08
9.10833e-08
9.11581e-08
9.12204e-08
9.1291e-08
9.1349e-08
9.14563e-08
9.15288e-08
9.16872e-08
9.17608e-08
9.19875e-08
9.20972e-08
9.24438e-08
9.25443e-08
9.34602e-08
9.67076e-07
2.42803e-09
1.21753e-07
1.13821e-07
1.08419e-07
1.04875e-07
1.02376e-07
1.00526e-07
9.90829e-08
9.79425e-08
9.70012e-08
9.62333e-08
9.55734e-08
9.50255e-08
9.45416e-08
9.41311e-08
9.37653e-08
9.34555e-08
9.31702e-08
9.29287e-08
9.27004e-08
9.25083e-08
9.2323e-08
9.21666e-08
9.2016e-08
9.18925e-08
9.17673e-08
9.16653e-08
9.15626e-08
9.14829e-08
9.13945e-08
9.13258e-08
9.12636e-08
9.12107e-08
9.11557e-08
9.11097e-08
9.10553e-08
9.10139e-08
9.09789e-08
9.09451e-08
9.09099e-08
9.08819e-08
9.08451e-08
9.08165e-08
9.07906e-08
9.07673e-08
9.07433e-08
9.07198e-08
9.07031e-08
9.06767e-08
9.06598e-08
9.06415e-08
9.06163e-08
9.05919e-08
9.05873e-08
9.05794e-08
9.05486e-08
9.05577e-08
9.05401e-08
9.05237e-08
9.05032e-08
9.0517e-08
9.05171e-08
9.05169e-08
9.05231e-08
9.05561e-08
9.05539e-08
9.05538e-08
9.05578e-08
9.0591e-08
9.06277e-08
9.06081e-08
9.06083e-08
9.06589e-08
9.07021e-08
9.07368e-08
9.07925e-08
9.08205e-08
9.08395e-08
9.08725e-08
9.09068e-08
9.09663e-08
9.10194e-08
9.10941e-08
9.11564e-08
9.12272e-08
9.12849e-08
9.13923e-08
9.14645e-08
9.16227e-08
9.16964e-08
9.1922e-08
9.20318e-08
9.23781e-08
9.24767e-08
9.34106e-08
9.87722e-07
2.56629e-09
1.21781e-07
1.1387e-07
1.08461e-07
1.04905e-07
1.02396e-07
1.00537e-07
9.90851e-08
9.79375e-08
9.699e-08
9.62167e-08
9.5552e-08
9.49999e-08
9.45122e-08
9.40984e-08
9.37296e-08
9.34171e-08
9.31294e-08
9.28857e-08
9.26554e-08
9.24615e-08
9.22745e-08
9.21166e-08
9.19645e-08
9.18397e-08
9.17133e-08
9.16102e-08
9.15065e-08
9.14258e-08
9.13365e-08
9.12669e-08
9.12039e-08
9.11503e-08
9.10946e-08
9.1048e-08
9.0993e-08
9.09511e-08
9.09154e-08
9.08813e-08
9.08456e-08
9.08171e-08
9.07799e-08
9.07511e-08
9.07248e-08
9.07012e-08
9.06769e-08
9.06533e-08
9.06363e-08
9.06097e-08
9.05925e-08
9.05741e-08
9.05487e-08
9.05241e-08
9.05192e-08
9.05112e-08
9.04802e-08
9.0489e-08
9.04714e-08
9.04547e-08
9.04339e-08
9.04475e-08
9.04475e-08
9.04474e-08
9.04532e-08
9.0486e-08
9.04837e-08
9.04836e-08
9.04876e-08
9.05203e-08
9.05573e-08
9.05376e-08
9.05377e-08
9.05879e-08
9.0631e-08
9.06657e-08
9.07212e-08
9.07496e-08
9.07687e-08
9.08017e-08
9.08358e-08
9.08951e-08
9.0948e-08
9.10226e-08
9.10848e-08
9.11559e-08
9.12134e-08
9.13207e-08
9.13925e-08
9.15507e-08
9.16244e-08
9.18489e-08
9.19588e-08
9.23046e-08
9.24011e-08
9.3355e-08
1.01086e-06
2.72189e-09
1.21812e-07
1.13923e-07
1.08508e-07
1.0494e-07
1.02419e-07
1.00549e-07
9.90878e-08
9.79323e-08
9.69778e-08
9.61985e-08
9.55285e-08
9.49717e-08
9.44799e-08
9.40624e-08
9.36902e-08
9.33747e-08
9.30844e-08
9.28383e-08
9.26057e-08
9.24098e-08
9.22209e-08
9.20614e-08
9.19077e-08
9.17815e-08
9.16537e-08
9.15494e-08
9.14444e-08
9.13627e-08
9.12724e-08
9.12019e-08
9.11379e-08
9.10836e-08
9.10271e-08
9.09798e-08
9.09242e-08
9.08816e-08
9.08452e-08
9.08106e-08
9.07744e-08
9.07456e-08
9.07079e-08
9.06787e-08
9.06521e-08
9.06282e-08
9.06035e-08
9.05796e-08
9.05623e-08
9.05356e-08
9.0518e-08
9.04995e-08
9.0474e-08
9.0449e-08
9.04439e-08
9.04358e-08
9.04045e-08
9.04129e-08
9.03953e-08
9.03785e-08
9.03573e-08
9.03706e-08
9.03706e-08
9.03704e-08
9.03759e-08
9.04084e-08
9.0406e-08
9.0406e-08
9.041e-08
9.0442e-08
9.04794e-08
9.04596e-08
9.04596e-08
9.05093e-08
9.05524e-08
9.0587e-08
9.06423e-08
9.06711e-08
9.06903e-08
9.07233e-08
9.07572e-08
9.08163e-08
9.08689e-08
9.09434e-08
9.10056e-08
9.1077e-08
9.11342e-08
9.12415e-08
9.13129e-08
9.14709e-08
9.15447e-08
9.1768e-08
9.18779e-08
9.22233e-08
9.23175e-08
9.32934e-08
1.03654e-06
2.89727e-09
1.21845e-07
1.13981e-07
1.08559e-07
1.04978e-07
1.02443e-07
1.00562e-07
9.9091e-08
9.79268e-08
9.69647e-08
9.61788e-08
9.55029e-08
9.4941e-08
9.44447e-08
9.40231e-08
9.36472e-08
9.33285e-08
9.30351e-08
9.27863e-08
9.25513e-08
9.23532e-08
9.21623e-08
9.20009e-08
9.18454e-08
9.17176e-08
9.15884e-08
9.14827e-08
9.13764e-08
9.12936e-08
9.12022e-08
9.11306e-08
9.10655e-08
9.10103e-08
9.0953e-08
9.09049e-08
9.08487e-08
9.08054e-08
9.07682e-08
9.07332e-08
9.06964e-08
9.0667e-08
9.06288e-08
9.05993e-08
9.05723e-08
9.0548e-08
9.05229e-08
9.04988e-08
9.04811e-08
9.04543e-08
9.04363e-08
9.04177e-08
9.0392e-08
9.03666e-08
9.03613e-08
9.0353e-08
9.03214e-08
9.03295e-08
9.03118e-08
9.02948e-08
9.02731e-08
9.02862e-08
9.02861e-08
9.0286e-08
9.0291e-08
9.03232e-08
9.03207e-08
9.03207e-08
9.03247e-08
9.03561e-08
9.03938e-08
9.0374e-08
9.03738e-08
9.0423e-08
9.04661e-08
9.05005e-08
9.05556e-08
9.05849e-08
9.06042e-08
9.06372e-08
9.06709e-08
9.07297e-08
9.07821e-08
9.08565e-08
9.09186e-08
9.09903e-08
9.10472e-08
9.11545e-08
9.12254e-08
9.13832e-08
9.14571e-08
9.1679e-08
9.1789e-08
9.21339e-08
9.22256e-08
9.32255e-08
1.06475e-06
3.09527e-09
1.21881e-07
1.14045e-07
1.08616e-07
1.05019e-07
1.02471e-07
1.00577e-07
9.90948e-08
9.79212e-08
9.69507e-08
9.61576e-08
9.54754e-08
9.49078e-08
9.44065e-08
9.39805e-08
9.36005e-08
9.32782e-08
9.29815e-08
9.27299e-08
9.24921e-08
9.22916e-08
9.20984e-08
9.1935e-08
9.17776e-08
9.16481e-08
9.15172e-08
9.14101e-08
9.13024e-08
9.12182e-08
9.11257e-08
9.10529e-08
9.09867e-08
9.09306e-08
9.08722e-08
9.08234e-08
9.07664e-08
9.07223e-08
9.06843e-08
9.06487e-08
9.06112e-08
9.05814e-08
9.05426e-08
9.05127e-08
9.04853e-08
9.04606e-08
9.0435e-08
9.04106e-08
9.03926e-08
9.03655e-08
9.03472e-08
9.03285e-08
9.03026e-08
9.02767e-08
9.02711e-08
9.02628e-08
9.02308e-08
9.02385e-08
9.02208e-08
9.02035e-08
9.01814e-08
9.01941e-08
9.0194e-08
9.01939e-08
9.01985e-08
9.02302e-08
9.02277e-08
9.02276e-08
9.02317e-08
9.02624e-08
9.03005e-08
9.02806e-08
9.02802e-08
9.03289e-08
9.03719e-08
9.04062e-08
9.0461e-08
9.04908e-08
9.05102e-08
9.05433e-08
9.05767e-08
9.06353e-08
9.06874e-08
9.07616e-08
9.08235e-08
9.08956e-08
9.09522e-08
9.10595e-08
9.11299e-08
9.12875e-08
9.13614e-08
9.15819e-08
9.16919e-08
9.20363e-08
9.21253e-08
9.31513e-08
1.09551e-06
3.31917e-09
1.2192e-07
1.14113e-07
1.08677e-07
1.05065e-07
1.02501e-07
1.00593e-07
9.90994e-08
9.79154e-08
9.6936e-08
9.6135e-08
9.54458e-08
9.48722e-08
9.43653e-08
9.39345e-08
9.35502e-08
9.32239e-08
9.29237e-08
9.26688e-08
9.24282e-08
9.2225e-08
9.20294e-08
9.18637e-08
9.17042e-08
9.15728e-08
9.14402e-08
9.13314e-08
9.12222e-08
9.11366e-08
9.10428e-08
9.09688e-08
9.09013e-08
9.08441e-08
9.07847e-08
9.07351e-08
9.06772e-08
9.06322e-08
9.05934e-08
9.05571e-08
9.0519e-08
9.04886e-08
9.04492e-08
9.04188e-08
9.0391e-08
9.03658e-08
9.03398e-08
9.0315e-08
9.02966e-08
9.02693e-08
9.02505e-08
9.02317e-08
9.02056e-08
9.01793e-08
9.01733e-08
9.01649e-08
9.01326e-08
9.01398e-08
9.01221e-08
9.01045e-08
9.00819e-08
9.00941e-08
9.00942e-08
9.0094e-08
9.0098e-08
9.01294e-08
9.01267e-08
9.01267e-08
9.01308e-08
9.01607e-08
9.01992e-08
9.01792e-08
9.01786e-08
9.02267e-08
9.02697e-08
9.03039e-08
9.03584e-08
9.03886e-08
9.04083e-08
9.04414e-08
9.04744e-08
9.05328e-08
9.05845e-08
9.06586e-08
9.07204e-08
9.07928e-08
9.08491e-08
9.09563e-08
9.10262e-08
9.11835e-08
9.12576e-08
9.14765e-08
9.15864e-08
9.19304e-08
9.20164e-08
9.30704e-08
1.12876e-06
3.5727e-09
1.2196e-07
1.14187e-07
1.08743e-07
1.05114e-07
1.02534e-07
1.00612e-07
9.91048e-08
9.79097e-08
9.69205e-08
9.6111e-08
9.54143e-08
9.4834e-08
9.43213e-08
9.38853e-08
9.34961e-08
9.31657e-08
9.28616e-08
9.26032e-08
9.23594e-08
9.21534e-08
9.19551e-08
9.1787e-08
9.16252e-08
9.14918e-08
9.13572e-08
9.12467e-08
9.11358e-08
9.10487e-08
9.09534e-08
9.08781e-08
9.08092e-08
9.07509e-08
9.06904e-08
9.06398e-08
9.0581e-08
9.05351e-08
9.04953e-08
9.04583e-08
9.04194e-08
9.03884e-08
9.03484e-08
9.03175e-08
9.02892e-08
9.02636e-08
9.02369e-08
9.02119e-08
9.0193e-08
9.01655e-08
9.01462e-08
9.01272e-08
9.01009e-08
9.00741e-08
9.00678e-08
9.00592e-08
9.00266e-08
9.00333e-08
9.00155e-08
8.99977e-08
8.99745e-08
8.99863e-08
8.99864e-08
8.99861e-08
8.99897e-08
9.00206e-08
9.00178e-08
9.00177e-08
9.00218e-08
9.0051e-08
9.00898e-08
9.00698e-08
9.0069e-08
9.01165e-08
9.01593e-08
9.01934e-08
9.02476e-08
9.02783e-08
9.02981e-08
9.03312e-08
9.0364e-08
9.04221e-08
9.04735e-08
9.05473e-08
9.0609e-08
9.06818e-08
9.07377e-08
9.08449e-08
9.09142e-08
9.10712e-08
9.11453e-08
9.13626e-08
9.14725e-08
9.18159e-08
9.18987e-08
9.29827e-08
1.16445e-06
3.86012e-09
1.22004e-07
1.14266e-07
1.08814e-07
1.05168e-07
1.0257e-07
1.00632e-07
9.91112e-08
9.79041e-08
9.69044e-08
9.60857e-08
9.53809e-08
9.47935e-08
9.42744e-08
9.38327e-08
9.34384e-08
9.31034e-08
9.27951e-08
9.2533e-08
9.22857e-08
9.20766e-08
9.18754e-08
9.17048e-08
9.15406e-08
9.14049e-08
9.12682e-08
9.11558e-08
9.10431e-08
9.09544e-08
9.08576e-08
9.07807e-08
9.07104e-08
9.06509e-08
9.05892e-08
9.05375e-08
9.04777e-08
9.04309e-08
9.039e-08
9.03523e-08
9.03125e-08
9.02808e-08
9.02402e-08
9.02087e-08
9.01798e-08
9.01537e-08
9.01265e-08
9.01011e-08
9.00817e-08
9.0054e-08
9.00341e-08
9.0015e-08
8.99884e-08
8.99611e-08
8.99544e-08
8.99456e-08
8.99127e-08
8.99188e-08
8.99011e-08
8.98829e-08
8.98591e-08
8.98704e-08
8.98706e-08
8.98703e-08
8.98732e-08
8.99036e-08
8.99007e-08
8.99006e-08
8.99047e-08
8.9933e-08
8.99723e-08
8.99521e-08
8.99511e-08
8.9998e-08
9.00407e-08
9.00746e-08
9.01284e-08
9.01597e-08
9.01797e-08
9.02128e-08
9.02453e-08
9.0303e-08
9.03541e-08
9.04277e-08
9.04892e-08
9.05624e-08
9.06178e-08
9.0725e-08
9.07937e-08
9.09503e-08
9.10246e-08
9.12401e-08
9.13499e-08
9.16927e-08
9.17722e-08
9.28878e-08
1.20246e-06
4.18632e-09
1.22049e-07
1.1435e-07
1.0889e-07
1.05225e-07
1.02609e-07
1.00654e-07
9.91186e-08
9.78987e-08
9.68877e-08
9.60592e-08
9.53456e-08
9.47506e-08
9.42246e-08
9.37769e-08
9.3377e-08
9.30371e-08
9.27243e-08
9.24582e-08
9.22072e-08
9.19948e-08
9.17905e-08
9.16171e-08
9.14502e-08
9.13121e-08
9.11732e-08
9.10588e-08
9.0944e-08
9.08535e-08
9.07551e-08
9.06767e-08
9.06048e-08
9.0544e-08
9.04809e-08
9.04282e-08
9.03673e-08
9.03194e-08
9.02774e-08
9.02388e-08
9.01981e-08
9.01657e-08
9.01244e-08
9.00923e-08
9.00628e-08
9.00362e-08
9.00083e-08
8.99825e-08
8.99626e-08
8.99346e-08
8.99142e-08
8.98949e-08
8.9868e-08
8.98401e-08
8.9833e-08
8.98241e-08
8.97908e-08
8.97963e-08
8.97786e-08
8.976e-08
8.97355e-08
8.97464e-08
8.97466e-08
8.97462e-08
8.97485e-08
8.97784e-08
8.97752e-08
8.97752e-08
8.97794e-08
8.98068e-08
8.98464e-08
8.98261e-08
8.98249e-08
8.9871e-08
8.99137e-08
8.99473e-08
9.00008e-08
9.00327e-08
9.00528e-08
9.0086e-08
9.01181e-08
9.01755e-08
9.02261e-08
9.02995e-08
9.03608e-08
9.04344e-08
9.04894e-08
9.05965e-08
9.06645e-08
9.08208e-08
9.08952e-08
9.11088e-08
9.12184e-08
9.15607e-08
9.16366e-08
9.27855e-08
1.24264e-06
4.55687e-09
1.22097e-07
1.14439e-07
1.08971e-07
1.05287e-07
1.02651e-07
1.00678e-07
9.91273e-08
9.78936e-08
9.68706e-08
9.60315e-08
9.53086e-08
9.47053e-08
9.4172e-08
9.37178e-08
9.3312e-08
9.29668e-08
9.26492e-08
9.23788e-08
9.21238e-08
9.19078e-08
9.17002e-08
9.15238e-08
9.1354e-08
9.12134e-08
9.10721e-08
9.09555e-08
9.08386e-08
9.07462e-08
9.0646e-08
9.05659e-08
9.04923e-08
9.043e-08
9.03656e-08
9.03116e-08
9.02496e-08
9.02006e-08
9.01574e-08
9.01179e-08
9.00762e-08
9.00431e-08
9.0001e-08
8.99682e-08
8.99381e-08
8.99108e-08
8.98822e-08
8.9856e-08
8.98355e-08
8.98073e-08
8.97862e-08
8.97668e-08
8.97396e-08
8.97111e-08
8.97035e-08
8.96944e-08
8.96609e-08
8.96657e-08
8.9648e-08
8.9629e-08
8.96038e-08
8.96141e-08
8.96142e-08
8.96139e-08
8.96154e-08
8.96448e-08
8.96414e-08
8.96414e-08
8.96456e-08
8.9672e-08
8.97121e-08
8.96917e-08
8.96902e-08
8.97356e-08
8.97781e-08
8.98116e-08
8.98646e-08
8.9897e-08
8.99174e-08
8.99506e-08
8.99823e-08
9.00393e-08
9.00896e-08
9.01627e-08
9.02237e-08
9.02977e-08
9.03523e-08
9.04593e-08
9.05266e-08
9.06824e-08
9.07569e-08
9.09686e-08
9.1078e-08
9.14197e-08
9.14918e-08
9.26755e-08
1.2848e-06
4.97804e-09
1.22147e-07
1.14533e-07
1.09058e-07
1.05354e-07
1.02696e-07
1.00705e-07
9.91372e-08
9.7889e-08
9.68531e-08
9.60028e-08
9.527e-08
9.46579e-08
9.41167e-08
9.36555e-08
9.32434e-08
9.28925e-08
9.25697e-08
9.22948e-08
9.20355e-08
9.18157e-08
9.16045e-08
9.14249e-08
9.12521e-08
9.11087e-08
9.09648e-08
9.08459e-08
9.07267e-08
9.06323e-08
9.05302e-08
9.04483e-08
9.03729e-08
9.03091e-08
9.02431e-08
9.01879e-08
9.01246e-08
9.00743e-08
9.00299e-08
8.99894e-08
8.99467e-08
8.99127e-08
8.98698e-08
8.98363e-08
8.98055e-08
8.97776e-08
8.97482e-08
8.97215e-08
8.97005e-08
8.96719e-08
8.96502e-08
8.96306e-08
8.9603e-08
8.9574e-08
8.95658e-08
8.95566e-08
8.95227e-08
8.95269e-08
8.95091e-08
8.94896e-08
8.94637e-08
8.94734e-08
8.94735e-08
8.94732e-08
8.9474e-08
8.95027e-08
8.94991e-08
8.94991e-08
8.95034e-08
8.95287e-08
8.95692e-08
8.95487e-08
8.95469e-08
8.95915e-08
8.96338e-08
8.96671e-08
8.97197e-08
8.97527e-08
8.97732e-08
8.98064e-08
8.98378e-08
8.98944e-08
8.99442e-08
9.0017e-08
9.00778e-08
9.01521e-08
9.02063e-08
9.03132e-08
9.03798e-08
9.05351e-08
9.06097e-08
9.08193e-08
9.09284e-08
9.12695e-08
9.13378e-08
9.25575e-08
1.32867e-06
5.457e-09
1.22198e-07
1.14633e-07
1.0915e-07
1.05425e-07
1.02746e-07
1.00734e-07
9.91487e-08
9.7885e-08
9.68354e-08
9.59731e-08
9.52297e-08
9.46082e-08
9.40587e-08
9.35901e-08
9.31712e-08
9.28143e-08
9.2486e-08
9.22061e-08
9.19423e-08
9.17184e-08
9.15035e-08
9.13205e-08
9.11443e-08
9.09981e-08
9.08514e-08
9.073e-08
9.06084e-08
9.05118e-08
9.04077e-08
9.03238e-08
9.02465e-08
9.0181e-08
9.01134e-08
9.00569e-08
8.99923e-08
8.99407e-08
8.98948e-08
8.98534e-08
8.98095e-08
8.97746e-08
8.97308e-08
8.96965e-08
8.9665e-08
8.96364e-08
8.96062e-08
8.9579e-08
8.95573e-08
8.95284e-08
8.9506e-08
8.94862e-08
8.94582e-08
8.94285e-08
8.94199e-08
8.94104e-08
8.93763e-08
8.93797e-08
8.93619e-08
8.93419e-08
8.93152e-08
8.93242e-08
8.93243e-08
8.9324e-08
8.93239e-08
8.9352e-08
8.93482e-08
8.93482e-08
8.93525e-08
8.93767e-08
8.94176e-08
8.93969e-08
8.93949e-08
8.94387e-08
8.94808e-08
8.95139e-08
8.95659e-08
8.95995e-08
8.96202e-08
8.96535e-08
8.96844e-08
8.97406e-08
8.97899e-08
8.98625e-08
8.99229e-08
8.99976e-08
9.00513e-08
9.0158e-08
9.0224e-08
9.03786e-08
9.04533e-08
9.06607e-08
9.07695e-08
9.111e-08
9.11742e-08
9.2431e-08
1.37393e-06
6.00202e-09
1.22252e-07
1.14737e-07
1.09248e-07
1.05501e-07
1.02799e-07
1.00766e-07
9.91618e-08
9.78817e-08
9.68176e-08
9.59427e-08
9.5188e-08
9.45566e-08
9.39982e-08
9.35217e-08
9.30956e-08
9.27323e-08
9.23981e-08
9.2113e-08
9.18443e-08
9.1616e-08
9.1397e-08
9.12104e-08
9.10308e-08
9.08814e-08
9.07318e-08
9.06077e-08
9.04835e-08
9.03846e-08
9.02784e-08
9.01924e-08
9.0113e-08
9.00458e-08
8.99765e-08
8.99185e-08
8.98525e-08
8.97995e-08
8.97522e-08
8.97096e-08
8.96646e-08
8.96287e-08
8.95839e-08
8.95488e-08
8.95164e-08
8.94871e-08
8.9456e-08
8.94283e-08
8.9406e-08
8.93767e-08
8.93535e-08
8.93335e-08
8.93051e-08
8.92748e-08
8.92655e-08
8.92558e-08
8.92215e-08
8.92242e-08
8.92062e-08
8.91857e-08
8.91581e-08
8.91664e-08
8.91666e-08
8.91662e-08
8.91652e-08
8.91926e-08
8.91885e-08
8.91885e-08
8.91929e-08
8.9216e-08
8.92572e-08
8.92364e-08
8.92341e-08
8.9277e-08
8.93188e-08
8.93517e-08
8.94032e-08
8.94373e-08
8.94582e-08
8.94915e-08
8.95221e-08
8.95779e-08
8.96266e-08
8.96988e-08
8.97589e-08
8.9834e-08
8.98872e-08
8.99937e-08
9.00589e-08
9.02129e-08
9.02877e-08
9.04929e-08
9.06013e-08
9.09409e-08
9.10011e-08
9.22958e-08
1.42021e-06
6.62218e-09
1.22307e-07
1.14847e-07
1.09352e-07
1.05582e-07
1.02855e-07
1.00801e-07
9.91768e-08
9.78793e-08
9.67999e-08
9.59115e-08
9.51449e-08
9.4503e-08
9.39351e-08
9.34503e-08
9.30165e-08
9.26464e-08
9.2306e-08
9.20153e-08
9.17415e-08
9.15086e-08
9.12853e-08
9.10948e-08
9.09114e-08
9.07588e-08
9.0606e-08
9.04791e-08
9.03521e-08
9.02508e-08
9.01422e-08
9.00541e-08
8.99725e-08
8.99034e-08
8.98322e-08
8.97727e-08
8.97052e-08
8.96507e-08
8.96019e-08
8.95581e-08
8.95118e-08
8.94749e-08
8.94291e-08
8.93931e-08
8.93598e-08
8.93297e-08
8.92976e-08
8.92694e-08
8.92464e-08
8.92167e-08
8.91927e-08
8.91724e-08
8.91436e-08
8.91126e-08
8.91026e-08
8.90928e-08
8.90582e-08
8.90601e-08
8.9042e-08
8.90208e-08
8.89924e-08
8.89999e-08
8.90001e-08
8.89997e-08
8.89978e-08
8.90244e-08
8.902e-08
8.902e-08
8.90244e-08
8.90463e-08
8.90879e-08
8.90669e-08
8.90644e-08
8.91063e-08
8.91479e-08
8.91806e-08
8.92314e-08
8.92661e-08
8.92872e-08
8.93205e-08
8.93507e-08
8.9406e-08
8.94542e-08
8.9526e-08
8.95857e-08
8.96611e-08
8.97138e-08
8.98202e-08
8.98845e-08
9.00378e-08
9.01126e-08
9.03155e-08
9.04234e-08
9.07621e-08
9.08182e-08
9.21514e-08
1.46705e-06
7.32767e-09
1.22365e-07
1.14962e-07
1.09461e-07
1.05668e-07
1.02916e-07
1.00839e-07
9.91938e-08
9.7878e-08
9.67825e-08
9.58799e-08
9.51006e-08
9.44475e-08
9.38697e-08
9.3376e-08
9.2934e-08
9.25568e-08
9.22097e-08
9.19131e-08
9.16339e-08
9.13961e-08
9.11682e-08
9.09735e-08
9.07863e-08
9.06301e-08
9.0474e-08
9.03441e-08
9.02142e-08
9.01102e-08
8.99993e-08
8.99088e-08
8.98248e-08
8.97538e-08
8.96807e-08
8.96194e-08
8.95504e-08
8.94943e-08
8.94438e-08
8.93988e-08
8.93512e-08
8.93132e-08
8.92663e-08
8.92293e-08
8.9195e-08
8.91641e-08
8.9131e-08
8.91022e-08
8.90784e-08
8.90483e-08
8.90234e-08
8.90028e-08
8.89736e-08
8.89418e-08
8.89312e-08
8.89211e-08
8.88863e-08
8.88875e-08
8.88692e-08
8.88473e-08
8.8818e-08
8.88247e-08
8.88249e-08
8.88244e-08
8.88214e-08
8.88473e-08
8.88425e-08
8.88425e-08
8.88471e-08
8.88677e-08
8.89096e-08
8.88884e-08
8.88856e-08
8.89266e-08
8.89679e-08
8.90003e-08
8.90505e-08
8.90857e-08
8.91069e-08
8.91403e-08
8.917e-08
8.92249e-08
8.92725e-08
8.93439e-08
8.94031e-08
8.94789e-08
8.9531e-08
8.96372e-08
8.97007e-08
8.98531e-08
8.99281e-08
9.01285e-08
9.02359e-08
9.05734e-08
9.06255e-08
9.19974e-08
1.51393e-06
8.12973e-09
1.22423e-07
1.15082e-07
1.09577e-07
1.0576e-07
1.02982e-07
1.0088e-07
9.9213e-08
9.78781e-08
9.67654e-08
9.58479e-08
9.50553e-08
9.43904e-08
9.3802e-08
9.32989e-08
9.28484e-08
9.24635e-08
9.21094e-08
9.18066e-08
9.15215e-08
9.12785e-08
9.10458e-08
9.08468e-08
9.06554e-08
9.04955e-08
9.03359e-08
9.02028e-08
9.00698e-08
8.9963e-08
8.98495e-08
8.97565e-08
8.96701e-08
8.9597e-08
8.95217e-08
8.94588e-08
8.9388e-08
8.93303e-08
8.92781e-08
8.92317e-08
8.91826e-08
8.91435e-08
8.90954e-08
8.90573e-08
8.9022e-08
8.89902e-08
8.89561e-08
8.89266e-08
8.8902e-08
8.88715e-08
8.88456e-08
8.88248e-08
8.8795e-08