/*--------------------------------*- C++ -*----------------------------------*\
| =========                 |                                                 |
| \\      /  F ield         | OpenFOAM: The Open Source CFD Toolbox           |
|  \\    /   O peration     | Version:  v2012                                 |
|   \\  /    A nd           | Website:  www.openfoam.com                      |
|    \\/     M anipulation  |                                                 |
\*---------------------------------------------------------------------------*/
FoamFile
{
    version     2.0;
    format      ascii;
    class       volScalarField;
    location    "15";
    object      k;
}
// * * * * * * * * * * * * * * * * * * * * * * * * * * * * * * * * * * * * * //

dimensions      [0 2 -2 0 0 0 0];


internalField   nonuniform List<scalar> 
209825
(
0.00101918
0.000950395
0.000913365
0.000891642
0.000877579
0.000867843
0.000860732
0.000855384
0.000851228
0.000847954
0.000845311
0.000843164
0.000841383
0.000839905
0.000838653
0.000837601
0.00083669
0.000835912
0.000835236
0.00083466
0.000834142
0.000833696
0.000833296
0.000832961
0.000832637
0.00083236
0.000832113
0.000831909
0.000831705
0.000831536
0.000831379
0.000831265
0.000831101
0.000830991
0.000830905
0.000830841
0.000830748
0.000830686
0.000830637
0.000830594
0.000830505
0.000830476
0.000830459
0.000830428
0.000830329
0.000830418
0.00083042
0.00083042
0.00083042
0.000830415
0.000830378
0.000830501
0.000830501
0.000830501
0.000830497
0.000830627
0.000830719
0.000830719
0.000830886
0.0008309
0.0008309
0.000830992
0.000831197
0.000831392
0.000831483
0.000831574
0.000831669
0.000831847
0.000832031
0.000832262
0.000832391
0.000832561
0.000832737
0.000832972
0.000833125
0.000833376
0.000833604
0.000833889
0.00083408
0.00083438
0.00083463
0.000835018
0.000835306
0.000835801
0.000836131
0.000836729
0.000837102
0.000837888
0.000838341
0.000839365
0.000839916
0.000841805
0.000842106
0.000854529
0.000912014
0.00235277
0.00101918
0.000950391
0.000913354
0.000891627
0.000877561
0.000867822
0.00086071
0.00085536
0.000851203
0.000847927
0.000845283
0.000843135
0.000841354
0.000839875
0.000838623
0.000837571
0.000836659
0.000835881
0.000835205
0.000834629
0.000834111
0.000833664
0.000833264
0.000832929
0.000832605
0.000832328
0.000832081
0.000831877
0.000831672
0.000831503
0.000831346
0.000831232
0.000831068
0.000830958
0.000830872
0.000830808
0.000830715
0.000830653
0.000830603
0.000830561
0.000830472
0.000830443
0.000830426
0.000830394
0.000830296
0.000830385
0.000830387
0.000830387
0.000830386
0.000830382
0.000830344
0.000830467
0.000830467
0.000830467
0.000830463
0.000830593
0.000830686
0.000830686
0.000830853
0.000830867
0.000830867
0.000830958
0.000831163
0.000831358
0.000831449
0.00083154
0.000831636
0.000831814
0.000831997
0.000832228
0.000832357
0.000832528
0.000832703
0.000832939
0.000833091
0.000833343
0.00083357
0.000833855
0.000834046
0.000834347
0.000834597
0.000834985
0.000835273
0.000835768
0.000836097
0.000836696
0.000837069
0.000837855
0.000838307
0.000839332
0.000839882
0.000841772
0.000842072
0.000854519
0.000912028
0.00235424
0.00101918
0.000950366
0.000913306
0.000891561
0.000877482
0.000867734
0.000860614
0.000855258
0.000851097
0.000847818
0.00084517
0.00084302
0.000841236
0.000839756
0.000838502
0.000837448
0.000836535
0.000835756
0.000835079
0.000834502
0.000833983
0.000833536
0.000833135
0.0008328
0.000832475
0.000832198
0.00083195
0.000831746
0.000831541
0.000831372
0.000831215
0.0008311
0.000830936
0.000830826
0.000830739
0.000830675
0.000830582
0.00083052
0.00083047
0.000830428
0.000830338
0.000830309
0.000830292
0.00083026
0.000830162
0.000830251
0.000830253
0.000830253
0.000830252
0.000830248
0.00083021
0.000830333
0.000830333
0.000830333
0.000830329
0.000830459
0.000830551
0.000830551
0.000830718
0.000830732
0.000830732
0.000830824
0.000831028
0.000831224
0.000831315
0.000831406
0.000831501
0.00083168
0.000831863
0.000832094
0.000832223
0.000832394
0.000832569
0.000832804
0.000832957
0.000833209
0.000833436
0.000833721
0.000833912
0.000834213
0.000834463
0.000834851
0.000835139
0.000835634
0.000835964
0.000836562
0.000836935
0.000837721
0.000838173
0.000839198
0.000839748
0.000841638
0.000841935
0.000854431
0.000911981
0.00235709
0.00101918
0.000950323
0.000913223
0.000891449
0.000877348
0.000867584
0.000860452
0.000855087
0.000850918
0.000847633
0.00084498
0.000842826
0.000841038
0.000839555
0.000838298
0.000837242
0.000836327
0.000835546
0.000834867
0.00083429
0.000833769
0.000833321
0.000832919
0.000832583
0.000832258
0.00083198
0.000831731
0.000831526
0.000831321
0.000831151
0.000830994
0.000830878
0.000830714
0.000830604
0.000830516
0.000830452
0.000830359
0.000830297
0.000830247
0.000830204
0.000830114
0.000830085
0.000830068
0.000830036
0.000829937
0.000830026
0.000830028
0.000830028
0.000830027
0.000830023
0.000829985
0.000830107
0.000830107
0.000830107
0.000830103
0.000830233
0.000830325
0.000830325
0.000830493
0.000830507
0.000830507
0.000830598
0.000830803
0.000830998
0.000831089
0.000831181
0.000831276
0.000831454
0.000831637
0.000831868
0.000831998
0.000832169
0.000832344
0.000832579
0.000832732
0.000832983
0.000833211
0.000833496
0.000833687
0.000833988
0.000834238
0.000834626
0.000834914
0.000835409
0.000835739
0.000836337
0.00083671
0.000837495
0.000837948
0.000838972
0.000839522
0.000841411
0.000841705
0.000854276
0.000911882
0.0023605
0.00101918
0.000950263
0.000913107
0.000891291
0.00087716
0.000867374
0.000860225
0.000854846
0.000850666
0.000847372
0.000844713
0.000842552
0.000840759
0.000839271
0.000838011
0.000836952
0.000836034
0.00083525
0.000834569
0.000833989
0.000833468
0.000833017
0.000832615
0.000832277
0.000831951
0.000831671
0.000831422
0.000831216
0.00083101
0.00083084
0.000830682
0.000830566
0.000830401
0.00083029
0.000830203
0.000830138
0.000830044
0.000829982
0.000829931
0.000829888
0.000829799
0.000829769
0.000829752
0.00082972
0.000829621
0.000829709
0.00082971
0.00082971
0.00082971
0.000829705
0.000829667
0.000829789
0.000829789
0.000829789
0.000829785
0.000829915
0.000830007
0.000830007
0.000830174
0.000830189
0.000830188
0.00083028
0.000830484
0.00083068
0.000830771
0.000830863
0.000830958
0.000831136
0.000831319
0.00083155
0.00083168
0.000831851
0.000832026
0.000832262
0.000832415
0.000832666
0.000832894
0.000833179
0.00083337
0.000833671
0.000833921
0.000834309
0.000834597
0.000835092
0.000835421
0.00083602
0.000836393
0.000837177
0.00083763
0.000838653
0.000839202
0.000841092
0.000841381
0.000854055
0.000911723
0.00236444
0.00101918
0.000950185
0.000912956
0.000891086
0.000876916
0.000867101
0.00085993
0.000854534
0.00085034
0.000847035
0.000844366
0.000842197
0.000840398
0.000838904
0.000837639
0.000836575
0.000835654
0.000834867
0.000834183
0.000833601
0.000833076
0.000832624
0.00083222
0.00083188
0.000831553
0.000831272
0.000831021
0.000830815
0.000830607
0.000830436
0.000830277
0.000830161
0.000829995
0.000829884
0.000829796
0.000829731
0.000829636
0.000829573
0.000829523
0.000829479
0.000829389
0.00082936
0.000829342
0.00082931
0.00082921
0.000829298
0.000829299
0.000829299
0.000829299
0.000829294
0.000829255
0.000829377
0.000829377
0.000829377
0.000829373
0.000829503
0.000829595
0.000829595
0.000829762
0.000829776
0.000829776
0.000829867
0.000830071
0.000830267
0.000830359
0.000830452
0.000830546
0.000830724
0.000830907
0.000831138
0.000831268
0.000831439
0.000831614
0.00083185
0.000832003
0.000832254
0.000832482
0.000832768
0.000832959
0.00083326
0.00083351
0.000833898
0.000834185
0.000834681
0.00083501
0.000835608
0.000835981
0.000836765
0.000837218
0.00083824
0.000838788
0.000840678
0.000840961
0.000853768
0.000911487
0.00236882
0.00101918
0.00095009
0.000912771
0.000890834
0.000876616
0.000866765
0.000859567
0.000854149
0.000849938
0.000846619
0.000843938
0.00084176
0.000839952
0.000838451
0.00083718
0.000836111
0.000835185
0.000834394
0.000833707
0.000833121
0.000832594
0.00083214
0.000831733
0.000831392
0.000831062
0.00083078
0.000830528
0.00083032
0.000830111
0.000829939
0.000829779
0.000829662
0.000829495
0.000829383
0.000829294
0.000829228
0.000829134
0.00082907
0.000829019
0.000828975
0.000828885
0.000828855
0.000828837
0.000828804
0.000828704
0.000828791
0.000828792
0.000828792
0.000828792
0.000828787
0.000828748
0.000828869
0.000828869
0.000828869
0.000828865
0.000828994
0.000829086
0.000829086
0.000829253
0.000829268
0.000829267
0.000829359
0.000829563
0.000829758
0.000829851
0.000829944
0.000830038
0.000830216
0.000830398
0.000830629
0.00083076
0.000830932
0.000831106
0.000831342
0.000831496
0.000831747
0.000831974
0.00083226
0.000832452
0.000832753
0.000833003
0.000833391
0.000833678
0.000834174
0.000834502
0.000835101
0.000835473
0.000836257
0.000836709
0.000837731
0.000838278
0.000840167
0.000840442
0.000853415
0.000911162
0.00237349
0.00101918
0.000949976
0.00091255
0.000890534
0.000876259
0.000866365
0.000859134
0.000853691
0.000849459
0.000846123
0.000843428
0.000841238
0.000839421
0.000837912
0.000836634
0.000835558
0.000834627
0.000833831
0.000833139
0.00083255
0.00083202
0.000831562
0.000831153
0.000830809
0.000830477
0.000830193
0.000829939
0.000829729
0.00082952
0.000829346
0.000829185
0.000829066
0.000828899
0.000828786
0.000828696
0.00082863
0.000828534
0.00082847
0.000828418
0.000828374
0.000828283
0.000828253
0.000828234
0.000828201
0.000828101
0.000828187
0.000828188
0.000828188
0.000828187
0.000828182
0.000828143
0.000828264
0.000828264
0.000828264
0.000828259
0.000828388
0.000828479
0.000828479
0.000828646
0.000828661
0.000828661
0.000828752
0.000828956
0.000829151
0.000829246
0.000829339
0.000829433
0.000829609
0.000829792
0.000830023
0.000830154
0.000830326
0.000830501
0.000830737
0.000830891
0.000831142
0.000831369
0.000831655
0.000831847
0.000832149
0.000832398
0.000832787
0.000833073
0.000833569
0.000833897
0.000834496
0.000834868
0.000835651
0.000836102
0.000837123
0.000837669
0.000839558
0.000839824
0.000852995
0.000910745
0.00237816
0.00101917
0.000949846
0.000912295
0.000890186
0.000875844
0.0008659
0.000858631
0.000853158
0.000848903
0.000845547
0.000842836
0.000840632
0.000838803
0.000837284
0.000835997
0.000834915
0.000833977
0.000833175
0.000832479
0.000831885
0.000831351
0.00083089
0.000830477
0.000830131
0.000829797
0.00082951
0.000829254
0.000829042
0.000828831
0.000828656
0.000828493
0.000828373
0.000828205
0.000828091
0.000827999
0.000827932
0.000827836
0.000827771
0.000827718
0.000827674
0.000827583
0.000827552
0.000827532
0.000827499
0.000827398
0.000827483
0.000827484
0.000827484
0.000827484
0.000827478
0.000827438
0.000827558
0.000827558
0.000827558
0.000827554
0.000827683
0.000827773
0.000827773
0.00082794
0.000827955
0.000827955
0.000828046
0.000828249
0.000828445
0.00082854
0.000828634
0.000828727
0.000828904
0.000829085
0.000829317
0.000829449
0.000829621
0.000829796
0.000830032
0.000830186
0.000830437
0.000830664
0.000830951
0.000831143
0.000831445
0.000831694
0.000832082
0.000832368
0.000832864
0.000833192
0.000833791
0.000834162
0.000834945
0.000835396
0.000836416
0.00083696
0.000838849
0.000839105
0.000852508
0.000910236
0.00238241
0.00101917
0.000949697
0.000912004
0.00088979
0.000875371
0.00086537
0.000858057
0.00085255
0.000848266
0.000844888
0.000842158
0.000839939
0.000838097
0.000836566
0.00083527
0.000834179
0.000833234
0.000832426
0.000831723
0.000831125
0.000830586
0.000830121
0.000829705
0.000829355
0.000829018
0.000828729
0.00082847
0.000828256
0.000828043
0.000827866
0.000827702
0.000827581
0.000827411
0.000827296
0.000827203
0.000827135
0.000827038
0.000826972
0.000826918
0.000826873
0.000826782
0.00082675
0.00082673
0.000826696
0.000826594
0.000826678
0.000826679
0.000826679
0.000826679
0.000826673
0.000826632
0.000826751
0.000826751
0.000826751
0.000826747
0.000826875
0.000826965
0.000826965
0.000827132
0.000827147
0.000827147
0.000827238
0.000827441
0.000827637
0.000827733
0.000827828
0.000827921
0.000828096
0.000828277
0.000828509
0.000828642
0.000828815
0.000828989
0.000829225
0.00082938
0.000829631
0.000829857
0.000830145
0.000830337
0.000830639
0.000830888
0.000831277
0.000831562
0.000832058
0.000832385
0.000832984
0.000833355
0.000834137
0.000834588
0.000835606
0.000836148
0.000838037
0.000838281
0.000851953
0.000909634
0.00238565
0.00101917
0.000949531
0.000911678
0.000889344
0.000874838
0.000864773
0.000857411
0.000851864
0.00084755
0.000844145
0.000841395
0.000839158
0.000837301
0.000835757
0.00083445
0.000833349
0.000832396
0.000831581
0.000830872
0.000830267
0.000829723
0.000829254
0.000828833
0.00082848
0.00082814
0.000827848
0.000827587
0.00082737
0.000827155
0.000826976
0.000826809
0.000826687
0.000826516
0.000826399
0.000826305
0.000826235
0.000826137
0.000826071
0.000826016
0.00082597
0.000825878
0.000825845
0.000825825
0.000825791
0.000825688
0.00082577
0.000825771
0.000825771
0.00082577
0.000825765
0.000825723
0.000825841
0.000825841
0.000825841
0.000825836
0.000825965
0.000826054
0.000826054
0.00082622
0.000826236
0.000826236
0.000826327
0.000826529
0.000826725
0.000826823
0.000826918
0.00082701
0.000827185
0.000827366
0.000827598
0.000827732
0.000827905
0.000828079
0.000828316
0.00082847
0.000828721
0.000828947
0.000829235
0.000829428
0.000829731
0.000829979
0.000830368
0.000830653
0.000831149
0.000831475
0.000832075
0.000832445
0.000833225
0.000833676
0.000834693
0.000835233
0.000837121
0.000837352
0.000851331
0.000908938
0.00238705
0.00101917
0.000949348
0.000911317
0.000888849
0.000874246
0.000864109
0.000856691
0.000851101
0.000846751
0.000843318
0.000840544
0.000838287
0.000836413
0.000834856
0.000833536
0.000832424
0.000831462
0.000830638
0.000829922
0.000829311
0.000828762
0.000828287
0.000827862
0.000827504
0.000827161
0.000826865
0.000826601
0.000826382
0.000826164
0.000825983
0.000825814
0.00082569
0.000825517
0.000825399
0.000825303
0.000825232
0.000825133
0.000825065
0.000825009
0.000824963
0.000824871
0.000824837
0.000824815
0.000824781
0.000824677
0.000824758
0.000824759
0.000824759
0.000824758
0.000824752
0.000824709
0.000824826
0.000824826
0.000824826
0.000824821
0.000824949
0.000825037
0.000825037
0.000825204
0.00082522
0.00082522
0.000825311
0.000825512
0.000825708
0.000825807
0.000825903
0.000825995
0.000826169
0.000826349
0.000826582
0.000826717
0.00082689
0.000827063
0.000827301
0.000827456
0.000827706
0.000827932
0.000828221
0.000828414
0.000828717
0.000828964
0.000829354
0.000829638
0.000830134
0.00083046
0.000831059
0.000831429
0.000832208
0.000832658
0.000833674
0.000834211
0.000836099
0.000836316
0.00085064
0.000908147
0.00238559
0.00101917
0.000949147
0.00091092
0.000888304
0.000873594
0.000863376
0.000855897
0.000850258
0.00084587
0.000842406
0.000839605
0.000837326
0.000835434
0.00083386
0.000832526
0.000831403
0.00083043
0.000829597
0.000828873
0.000828255
0.000827699
0.000827219
0.000826789
0.000826426
0.000826079
0.00082578
0.000825512
0.00082529
0.000825069
0.000824885
0.000824714
0.000824588
0.000824414
0.000824293
0.000824195
0.000824123
0.000824023
0.000823954
0.000823896
0.00082385
0.000823757
0.000823722
0.000823699
0.000823664
0.000823559
0.000823638
0.000823639
0.000823639
0.000823638
0.000823632
0.000823588
0.000823704
0.000823704
0.000823704
0.000823699
0.000823826
0.000823914
0.000823914
0.00082408
0.000824096
0.000824096
0.000824187
0.000824387
0.000824583
0.000824684
0.000824782
0.000824873
0.000825046
0.000825225
0.000825458
0.000825594
0.000825768
0.000825941
0.000826178
0.000826334
0.000826584
0.000826809
0.000827099
0.000827293
0.000827596
0.000827843
0.000828233
0.000828516
0.000829012
0.000829338
0.000829937
0.000830306
0.000831084
0.000831533
0.000832547
0.000833082
0.00083497
0.000835171
0.000849879
0.00090726
0.00238127
0.00101917
0.000948929
0.000910487
0.00088771
0.000872881
0.000862575
0.000855028
0.000849336
0.000844905
0.000841406
0.000838576
0.000836272
0.00083436
0.000832768
0.00083142
0.000830283
0.000829299
0.000828456
0.000827723
0.000827097
0.000826534
0.000826047
0.000825612
0.000825244
0.000824892
0.000824589
0.000824318
0.000824092
0.000823868
0.000823682
0.000823508
0.000823379
0.000823204
0.000823081
0.000822981
0.000822907
0.000822806
0.000822735
0.000822676
0.000822629
0.000822535
0.000822499
0.000822475
0.00082244
0.000822334
0.000822411
0.000822411
0.000822411
0.00082241
0.000822404
0.000822359
0.000822473
0.000822473
0.000822473
0.000822468
0.000822595
0.000822681
0.000822681
0.000822847
0.000822864
0.000822864
0.000822955
0.000823154
0.00082335
0.000823453
0.000823551
0.000823642
0.000823814
0.000823993
0.000824226
0.000824362
0.000824537
0.000824709
0.000824947
0.000825103
0.000825354
0.000825578
0.000825869
0.000826063
0.000826367
0.000826613
0.000827003
0.000827286
0.000827782
0.000828106
0.000828706
0.000829074
0.00082985
0.000830299
0.000831311
0.000831843
0.00083373
0.000833915
0.000849047
0.000906276
0.00237412
0.00101918
0.000948695
0.000910019
0.000887065
0.000872108
0.000861705
0.000854084
0.000848334
0.000843856
0.000840318
0.000837456
0.000835126
0.000833191
0.00083158
0.000830215
0.000829064
0.000828067
0.000827213
0.00082647
0.000825835
0.000825265
0.000824772
0.00082433
0.000823957
0.0008236
0.000823292
0.000823016
0.000822787
0.00082256
0.000822371
0.000822194
0.000822063
0.000821885
0.00082176
0.000821658
0.000821583
0.00082148
0.000821407
0.000821347
0.000821299
0.000821204
0.000821166
0.000821142
0.000821106
0.000820998
0.000821073
0.000821073
0.000821073
0.000821072
0.000821066
0.000821019
0.000821132
0.000821132
0.000821132
0.000821126
0.000821253
0.000821338
0.000821338
0.000821503
0.000821521
0.000821521
0.000821612
0.00082181
0.000822006
0.00082211
0.00082221
0.0008223
0.000822471
0.000822649
0.000822882
0.00082302
0.000823196
0.000823367
0.000823606
0.000823762
0.000824012
0.000824236
0.000824527
0.000824722
0.000825027
0.000825272
0.000825663
0.000825944
0.00082644
0.000826764
0.000827363
0.000827731
0.000828505
0.000828953
0.000829963
0.000830492
0.000832379
0.000832546
0.000848142
0.000905192
0.00236418
0.00101918
0.000948444
0.000909516
0.00088637
0.000871272
0.000860765
0.000853063
0.000847249
0.00084272
0.00083914
0.000836245
0.000833885
0.000831925
0.000830294
0.00082891
0.000827743
0.000826733
0.000825867
0.000825113
0.000824469
0.000823891
0.00082339
0.000822941
0.000822562
0.0008222
0.000821888
0.000821607
0.000821374
0.000821143
0.00082095
0.00082077
0.000820636
0.000820456
0.000820329
0.000820224
0.000820147
0.000820042
0.000819968
0.000819906
0.000819857
0.000819761
0.000819722
0.000819696
0.00081966
0.000819551
0.000819623
0.000819624
0.000819624
0.000819623
0.000819615
0.000819568
0.000819679
0.000819679
0.000819679
0.000819672
0.000819798
0.000819883
0.000819883
0.000820048
0.000820065
0.000820065
0.000820156
0.000820354
0.00082055
0.000820656
0.000820757
0.000820845
0.000821016
0.000821193
0.000821426
0.000821565
0.000821742
0.000821913
0.000822151
0.000822308
0.000822558
0.000822782
0.000823074
0.000823269
0.000823574
0.000823818
0.000824209
0.00082449
0.000824986
0.000825309
0.000825908
0.000826275
0.000827048
0.000827495
0.000828502
0.000829028
0.000830914
0.000831063
0.000847164
0.000904006
0.0023515
0.00101918
0.000948176
0.000908977
0.000885625
0.000870376
0.000859754
0.000851966
0.000846083
0.000841498
0.000837873
0.00083494
0.000832549
0.000830562
0.000828908
0.000827505
0.000826321
0.000825295
0.000824416
0.000823651
0.000822997
0.000822409
0.0008219
0.000821444
0.000821059
0.000820691
0.000820373
0.000820087
0.00081985
0.000819615
0.000819419
0.000819235
0.000819098
0.000818916
0.000818786
0.000818678
0.000818599
0.000818493
0.000818417
0.000818353
0.000818303
0.000818206
0.000818165
0.000818138
0.000818101
0.000817991
0.00081806
0.000818061
0.000818061
0.000818059
0.000818051
0.000818002
0.000818112
0.000818112
0.000818112
0.000818105
0.00081823
0.000818313
0.000818313
0.000818478
0.000818496
0.000818496
0.000818587
0.000818783
0.000818979
0.000819087
0.000819189
0.000819277
0.000819446
0.000819622
0.000819856
0.000819996
0.000820173
0.000820344
0.000820583
0.00082074
0.00082099
0.000821213
0.000821506
0.000821701
0.000822007
0.000822251
0.000822642
0.000822921
0.000823417
0.000823739
0.000824339
0.000824704
0.000825475
0.000825921
0.000826926
0.000827449
0.000829334
0.000829463
0.000846109
0.000902718
0.00233615
0.00101919
0.000947893
0.000908404
0.000884829
0.000869417
0.000858673
0.00085079
0.000844833
0.000840189
0.000836515
0.000833541
0.000831116
0.0008291
0.000827421
0.000825997
0.000824794
0.000823753
0.00082286
0.000822082
0.000821417
0.000820819
0.000820302
0.000819837
0.000819445
0.000819071
0.000818747
0.000818456
0.000818214
0.000817975
0.000817775
0.000817587
0.000817447
0.000817262
0.000817129
0.000817019
0.000816937
0.000816829
0.000816751
0.000816685
0.000816634
0.000816536
0.000816494
0.000816465
0.000816427
0.000816316
0.000816382
0.000816382
0.000816382
0.000816381
0.000816372
0.000816322
0.000816429
0.000816429
0.000816429
0.000816422
0.000816546
0.000816628
0.000816628
0.000816792
0.000816811
0.00081681
0.000816901
0.000817096
0.000817292
0.000817402
0.000817506
0.000817593
0.000817761
0.000817936
0.00081817
0.000818311
0.000818489
0.000818659
0.000818898
0.000819056
0.000819306
0.000819528
0.000819822
0.000820018
0.000820324
0.000820567
0.000820958
0.000821237
0.000821733
0.000822054
0.000822653
0.000823017
0.000823786
0.000824231
0.000825234
0.000825752
0.000827636
0.000827745
0.000844976
0.000901324
0.0023182
0.00101919
0.000947595
0.000907796
0.000883983
0.000868396
0.000857521
0.000849537
0.000843499
0.000838791
0.000835064
0.000832047
0.000829585
0.000827539
0.000825833
0.000824386
0.000823163
0.000822104
0.000821196
0.000820405
0.000819727
0.00081912
0.000818592
0.00081812
0.00081772
0.000817339
0.000817009
0.000816712
0.000816465
0.000816221
0.000816017
0.000815825
0.000815681
0.000815494
0.000815358
0.000815244
0.00081516
0.00081505
0.00081497
0.000814901
0.000814849
0.00081475
0.000814706
0.000814676
0.000814637
0.000814524
0.000814587
0.000814587
0.000814587
0.000814585
0.000814576
0.000814524
0.000814629
0.000814629
0.000814629
0.000814621
0.000814745
0.000814825
0.000814825
0.000814988
0.000815008
0.000815007
0.000815098
0.000815292
0.000815487
0.000815599
0.000815705
0.000815791
0.000815958
0.000816131
0.000816366
0.000816508
0.000816687
0.000816857
0.000817096
0.000817254
0.000817504
0.000817725
0.00081802
0.000818216
0.000818523
0.000818765
0.000819157
0.000819434
0.00081993
0.00082025
0.000820849
0.000821212
0.000821978
0.000822422
0.000823422
0.000823936
0.000825819
0.000825908
0.000843761
0.000899822
0.00229774
0.0010192
0.000947281
0.000907153
0.000883087
0.000867313
0.000856297
0.000848205
0.000842082
0.000837305
0.000833521
0.000830457
0.000827956
0.000825876
0.000824141
0.00082267
0.000821426
0.000820349
0.000819424
0.000818618
0.000817928
0.000817309
0.000816771
0.00081629
0.000815881
0.000815493
0.000815157
0.000814854
0.0008146
0.000814352
0.000814143
0.000813947
0.0008138
0.000813609
0.000813469
0.000813353
0.000813266
0.000813153
0.000813071
0.000813
0.000812946
0.000812846
0.0008128
0.000812768
0.000812728
0.000812614
0.000812673
0.000812674
0.000812673
0.000812672
0.000812662
0.000812607
0.00081271
0.000812711
0.00081271
0.000812702
0.000812825
0.000812903
0.000812903
0.000813066
0.000813086
0.000813085
0.000813176
0.000813368
0.000813563
0.000813677
0.000813785
0.00081387
0.000814035
0.000814208
0.000814442
0.000814586
0.000814766
0.000814935
0.000815174
0.000815333
0.000815583
0.000815803
0.000816098
0.000816295
0.000816603
0.000816844
0.000817236
0.000817512
0.000818007
0.000818326
0.000818925
0.000819287
0.000820051
0.000820493
0.00082149
0.000822
0.000823881
0.000823949
0.000842462
0.000898208
0.00227487
0.00101921
0.000946953
0.000906477
0.000882142
0.000866168
0.000855002
0.000846794
0.000840579
0.000835728
0.000831884
0.00082877
0.000826227
0.000824111
0.000822346
0.000820848
0.000819581
0.000818484
0.000817542
0.000816721
0.000816017
0.000815386
0.000814837
0.000814346
0.000813928
0.000813532
0.000813189
0.000812879
0.00081262
0.000812366
0.000812152
0.000811951
0.0008118
0.000811607
0.000811463
0.000811343
0.000811253
0.000811138
0.000811054
0.00081098
0.000810925
0.000810823
0.000810775
0.000810741
0.0008107
0.000810584
0.00081064
0.00081064
0.00081064
0.000810638
0.000810627
0.000810571
0.000810671
0.000810672
0.000810671
0.000810662
0.000810784
0.000810861
0.00081086
0.000811022
0.000811043
0.000811042
0.000811133
0.000811324
0.000811518
0.000811634
0.000811744
0.000811828
0.000811992
0.000812163
0.000812398
0.000812543
0.000812724
0.000812891
0.000813132
0.000813291
0.00081354
0.000813759
0.000814056
0.000814253
0.000814561
0.000814801
0.000815194
0.000815468
0.000815964
0.000816281
0.000816879
0.00081724
0.000818001
0.000818442
0.000819436
0.000819941
0.000821821
0.000821866
0.000841074
0.000896479
0.00224968
0.00101922
0.000946611
0.000905768
0.000881146
0.000864961
0.000853635
0.000845303
0.000838991
0.000834062
0.000830153
0.000826985
0.000824397
0.000822244
0.000820446
0.00081892
0.000817629
0.00081651
0.00081555
0.000814712
0.000813993
0.000813349
0.000812789
0.000812286
0.00081186
0.000811456
0.000811104
0.000810788
0.000810522
0.000810263
0.000810043
0.000809837
0.000809682
0.000809485
0.000809338
0.000809213
0.000809121
0.000809003
0.000808916
0.000808839
0.000808782
0.000808679
0.000808629
0.000808593
0.000808551
0.000808434
0.000808486
0.000808486
0.000808485
0.000808482
0.00080847
0.000808413
0.00080851
0.000808511
0.00080851
0.0008085
0.000808621
0.000808696
0.000808695
0.000808857
0.000808878
0.000808877
0.000808968
0.000809157
0.000809351
0.000809469
0.000809581
0.000809663
0.000809826
0.000809996
0.00081023
0.000810377
0.000810559
0.000810726
0.000810966
0.000811126
0.000811375
0.000811593
0.00081189
0.000812088
0.000812397
0.000812636
0.000813029
0.000813302
0.000813797
0.000814112
0.00081471
0.00081507
0.000815828
0.000816268
0.000817259
0.000817759
0.000819635
0.00081966
0.000839594
0.00089463
0.0022223
0.00101924
0.000946255
0.000905025
0.000880102
0.000863692
0.000852196
0.000843733
0.000837317
0.000832304
0.000828327
0.000825103
0.000822466
0.000820273
0.00081844
0.000816884
0.000815567
0.000814426
0.000813445
0.00081259
0.000811855
0.000811197
0.000810624
0.000810111
0.000809674
0.000809261
0.000808902
0.000808577
0.000808305
0.000808039
0.000807815
0.000807603
0.000807443
0.000807242
0.000807091
0.000806963
0.000806867
0.000806746
0.000806656
0.000806577
0.000806518
0.000806413
0.000806361
0.000806322
0.00080628
0.00080616
0.000806208
0.000806208
0.000806208
0.000806204
0.000806191
0.000806131
0.000806226
0.000806226
0.000806226
0.000806215
0.000806335
0.000806407
0.000806407
0.000806567
0.000806589
0.000806588
0.000806679
0.000806867
0.000807059
0.00080718
0.000807294
0.000807375
0.000807536
0.000807704
0.000807939
0.000808087
0.00080827
0.000808436
0.000808676
0.000808837
0.000809086
0.000809302
0.0008096
0.000809799
0.000810109
0.000810346
0.000810739
0.00081101
0.000811505
0.000811819
0.000812417
0.000812774
0.00081353
0.000813968
0.000814955
0.00081545
0.000817323
0.000817327
0.000838016
0.000892656
0.00219284
0.00101925
0.000945887
0.000904251
0.000879009
0.000862361
0.000850685
0.000842084
0.000835557
0.000830456
0.000826406
0.000823121
0.000820434
0.000818197
0.000816327
0.00081474
0.000813394
0.00081223
0.000811227
0.000810353
0.000809602
0.000808929
0.000808343
0.000807818
0.00080737
0.000806948
0.00080658
0.000806248
0.000805968
0.000805696
0.000805465
0.000805248
0.000805083
0.000804878
0.000804722
0.00080459
0.00080449
0.000804366
0.000804273
0.000804191
0.00080413
0.000804023
0.000803969
0.000803928
0.000803884
0.000803763
0.000803807
0.000803806
0.000803806
0.000803801
0.000803787
0.000803725
0.000803817
0.000803817
0.000803817
0.000803805
0.000803924
0.000803994
0.000803993
0.000804153
0.000804174
0.000804174
0.000804264
0.00080445
0.000804642
0.000804765
0.000804881
0.000804961
0.000805121
0.000805287
0.000805522
0.000805671
0.000805855
0.00080602
0.000806261
0.000806422
0.000806671
0.000806886
0.000807185
0.000807383
0.000807694
0.00080793
0.000808323
0.000808593
0.000809087
0.0008094
0.000809996
0.000810353
0.000811105
0.000811541
0.000812525
0.000813015
0.000814883
0.000814866
0.000836336
0.000890553
0.00216144
0.00101927
0.000945506
0.000903445
0.000877868
0.000860969
0.000849103
0.000840355
0.000833711
0.000828516
0.000824388
0.00082104
0.000818298
0.000816016
0.000814107
0.000812486
0.000811111
0.000809921
0.000808896
0.000808002
0.000807233
0.000806544
0.000805945
0.000805407
0.000804947
0.000804515
0.000804138
0.000803797
0.000803509
0.00080323
0.000802993
0.00080277
0.0008026
0.00080239
0.00080223
0.000802093
0.000801989
0.000801863
0.000801766
0.00080168
0.000801617
0.000801509
0.000801452
0.000801408
0.000801364
0.000801241
0.00080128
0.000801279
0.000801278
0.000801273
0.000801258
0.000801193
0.000801282
0.000801282
0.000801282
0.000801268
0.000801386
0.000801454
0.000801453
0.000801612
0.000801633
0.000801633
0.000801723
0.000801908
0.000802099
0.000802223
0.000802341
0.00080242
0.000802578
0.000802743
0.000802977
0.000803128
0.000803313
0.000803477
0.000803718
0.000803879
0.000804128
0.000804342
0.000804641
0.000804841
0.000805152
0.000805386
0.00080578
0.000806048
0.000806541
0.000806852
0.000807448
0.000807803
0.000808552
0.000808986
0.000809966
0.00081045
0.000812314
0.000812276
0.000834547
0.000888312
0.00212823
0.00101929
0.000945114
0.000902609
0.000876679
0.000859517
0.00084745
0.000838546
0.000831779
0.000826484
0.000822275
0.000818858
0.00081606
0.000813729
0.000811779
0.000810122
0.000808716
0.000807498
0.00080645
0.000805535
0.000804747
0.000804042
0.000803427
0.000802875
0.000802404
0.000801961
0.000801574
0.000801224
0.000800928
0.000800642
0.000800398
0.000800168
0.000799992
0.000799779
0.000799613
0.000799471
0.000799364
0.000799233
0.000799134
0.000799044
0.000798979
0.000798868
0.000798808
0.000798762
0.000798716
0.000798592
0.000798626
0.000798626
0.000798624
0.000798618
0.000798601
0.000798534
0.00079862
0.00079862
0.000798619
0.000798604