/*--------------------------------*- C++ -*----------------------------------*\
| =========                 |                                                 |
| \\      /  F ield         | OpenFOAM: The Open Source CFD Toolbox           |
|  \\    /   O peration     | Version:  v2012                                 |
|   \\  /    A nd           | Website:  www.openfoam.com                      |
|    \\/     M anipulation  |                                                 |
\*---------------------------------------------------------------------------*/
FoamFile
{
    version     2.0;
    format      ascii;
    class       volScalarField;
    location    "15";
    object      nut;
}
// * * * * * * * * * * * * * * * * * * * * * * * * * * * * * * * * * * * * * //

dimensions      [0 2 -1 0 0 0 0];


internalField   nonuniform List<scalar> 
209825
(
1.23924e-07
1.24294e-07
1.25008e-07
1.2564e-07
1.26143e-07
1.26544e-07
1.26869e-07
1.27138e-07
1.27365e-07
1.27556e-07
1.27722e-07
1.27864e-07
1.2799e-07
1.28099e-07
1.28197e-07
1.28283e-07
1.2836e-07
1.28427e-07
1.28491e-07
1.28546e-07
1.28598e-07
1.28643e-07
1.28686e-07
1.28723e-07
1.28758e-07
1.28788e-07
1.28819e-07
1.28845e-07
1.2887e-07
1.28893e-07
1.28915e-07
1.28936e-07
1.28949e-07
1.28962e-07
1.28982e-07
1.28999e-07
1.29012e-07
1.29021e-07
1.29037e-07
1.29049e-07
1.29052e-07
1.2906e-07
1.29081e-07
1.29085e-07
1.29076e-07
1.29094e-07
1.29099e-07
1.29104e-07
1.29114e-07
1.29119e-07
1.29128e-07
1.29131e-07
1.29131e-07
1.29131e-07
1.29132e-07
1.29135e-07
1.29134e-07
1.29134e-07
1.2916e-07
1.29162e-07
1.29143e-07
1.2915e-07
1.29182e-07
1.292e-07
1.29185e-07
1.292e-07
1.29214e-07
1.29223e-07
1.29251e-07
1.29266e-07
1.29265e-07
1.29264e-07
1.29274e-07
1.29272e-07
1.29296e-07
1.29313e-07
1.29321e-07
1.29342e-07
1.29347e-07
1.29356e-07
1.29375e-07
1.294e-07
1.29419e-07
1.29458e-07
1.29483e-07
1.29525e-07
1.29555e-07
1.29614e-07
1.29651e-07
1.29729e-07
1.29777e-07
1.29933e-07
1.29966e-07
1.31019e-07
1.35862e-07
2.03439e-08
1.23924e-07
1.24294e-07
1.25008e-07
1.25639e-07
1.26143e-07
1.26543e-07
1.26869e-07
1.27138e-07
1.27365e-07
1.27556e-07
1.27722e-07
1.27864e-07
1.2799e-07
1.28099e-07
1.28197e-07
1.28283e-07
1.2836e-07
1.28428e-07
1.28491e-07
1.28547e-07
1.28598e-07
1.28643e-07
1.28686e-07
1.28723e-07
1.28758e-07
1.28789e-07
1.28819e-07
1.28845e-07
1.28871e-07
1.28893e-07
1.28915e-07
1.28936e-07
1.2895e-07
1.28963e-07
1.28983e-07
1.29e-07
1.29012e-07
1.29021e-07
1.29038e-07
1.29049e-07
1.29053e-07
1.2906e-07
1.29081e-07
1.29086e-07
1.29076e-07
1.29094e-07
1.29099e-07
1.29104e-07
1.29115e-07
1.2912e-07
1.29128e-07
1.29131e-07
1.29131e-07
1.29131e-07
1.29132e-07
1.29136e-07
1.29134e-07
1.29134e-07
1.2916e-07
1.29163e-07
1.29144e-07
1.29151e-07
1.29182e-07
1.292e-07
1.29186e-07
1.292e-07
1.29215e-07
1.29223e-07
1.29252e-07
1.29266e-07
1.29265e-07
1.29264e-07
1.29274e-07
1.29273e-07
1.29296e-07
1.29313e-07
1.29322e-07
1.29342e-07
1.29347e-07
1.29356e-07
1.29375e-07
1.294e-07
1.2942e-07
1.29458e-07
1.29484e-07
1.29525e-07
1.29555e-07
1.29614e-07
1.29651e-07
1.29729e-07
1.29777e-07
1.29933e-07
1.29966e-07
1.31021e-07
1.35867e-07
2.09537e-08
1.23924e-07
1.24292e-07
1.25006e-07
1.25637e-07
1.2614e-07
1.2654e-07
1.26866e-07
1.27135e-07
1.27362e-07
1.27553e-07
1.27719e-07
1.27861e-07
1.27987e-07
1.28096e-07
1.28194e-07
1.2828e-07
1.28358e-07
1.28425e-07
1.28488e-07
1.28544e-07
1.28595e-07
1.2864e-07
1.28683e-07
1.2872e-07
1.28755e-07
1.28786e-07
1.28816e-07
1.28842e-07
1.28868e-07
1.2889e-07
1.28913e-07
1.28934e-07
1.28947e-07
1.2896e-07
1.2898e-07
1.28997e-07
1.29009e-07
1.29018e-07
1.29035e-07
1.29047e-07
1.2905e-07
1.29057e-07
1.29079e-07
1.29083e-07
1.29073e-07
1.29091e-07
1.29097e-07
1.29102e-07
1.29112e-07
1.29117e-07
1.29126e-07
1.29129e-07
1.29129e-07
1.29129e-07
1.29129e-07
1.29133e-07
1.29132e-07
1.29132e-07
1.29158e-07
1.2916e-07
1.29141e-07
1.29148e-07
1.2918e-07
1.29198e-07
1.29183e-07
1.29198e-07
1.29212e-07
1.29221e-07
1.29249e-07
1.29264e-07
1.29263e-07
1.29262e-07
1.29272e-07
1.2927e-07
1.29294e-07
1.29311e-07
1.29319e-07
1.2934e-07
1.29345e-07
1.29354e-07
1.29373e-07
1.29398e-07
1.29417e-07
1.29456e-07
1.29481e-07
1.29523e-07
1.29553e-07
1.29612e-07
1.29649e-07
1.29727e-07
1.29775e-07
1.29931e-07
1.29964e-07
1.31023e-07
1.35873e-07
2.17098e-08
1.23923e-07
1.2429e-07
1.25002e-07
1.25633e-07
1.26136e-07
1.26536e-07
1.26862e-07
1.2713e-07
1.27357e-07
1.27549e-07
1.27715e-07
1.27857e-07
1.27983e-07
1.28092e-07
1.2819e-07
1.28275e-07
1.28353e-07
1.2842e-07
1.28484e-07
1.28539e-07
1.28591e-07
1.28636e-07
1.28679e-07
1.28716e-07
1.28751e-07
1.28782e-07
1.28812e-07
1.28838e-07
1.28864e-07
1.28886e-07
1.28909e-07
1.2893e-07
1.28943e-07
1.28956e-07
1.28976e-07
1.28993e-07
1.29005e-07
1.29014e-07
1.29031e-07
1.29043e-07
1.29046e-07
1.29053e-07
1.29075e-07
1.29079e-07
1.2907e-07
1.29087e-07
1.29093e-07
1.29098e-07
1.29108e-07
1.29113e-07
1.29122e-07
1.29125e-07
1.29125e-07
1.29125e-07
1.29126e-07
1.29129e-07
1.29128e-07
1.29128e-07
1.29154e-07
1.29157e-07
1.29138e-07
1.29145e-07
1.29176e-07
1.29194e-07
1.2918e-07
1.29194e-07
1.29209e-07
1.29217e-07
1.29246e-07
1.2926e-07
1.29259e-07
1.29258e-07
1.29268e-07
1.29267e-07
1.29291e-07
1.29307e-07
1.29316e-07
1.29336e-07
1.29342e-07
1.29351e-07
1.2937e-07
1.29395e-07
1.29414e-07
1.29452e-07
1.29478e-07
1.2952e-07
1.2955e-07
1.29609e-07
1.29646e-07
1.29724e-07
1.29772e-07
1.29928e-07
1.2996e-07
1.31026e-07
1.35883e-07
2.25484e-08
1.23923e-07
1.24287e-07
1.24998e-07
1.25627e-07
1.2613e-07
1.2653e-07
1.26856e-07
1.27124e-07
1.27351e-07
1.27543e-07
1.27709e-07
1.27851e-07
1.27977e-07
1.28086e-07
1.28184e-07
1.2827e-07
1.28348e-07
1.28415e-07
1.28478e-07
1.28534e-07
1.28586e-07
1.28631e-07
1.28674e-07
1.28711e-07
1.28746e-07
1.28776e-07
1.28807e-07
1.28833e-07
1.28859e-07
1.28881e-07
1.28903e-07
1.28925e-07
1.28938e-07
1.28951e-07
1.28971e-07
1.28988e-07
1.29e-07
1.29009e-07
1.29026e-07
1.29038e-07
1.29041e-07
1.29049e-07
1.2907e-07
1.29074e-07
1.29065e-07
1.29083e-07
1.29088e-07
1.29093e-07
1.29104e-07
1.29109e-07
1.29117e-07
1.2912e-07
1.2912e-07
1.2912e-07
1.29121e-07
1.29125e-07
1.29123e-07
1.29123e-07
1.29149e-07
1.29152e-07
1.29133e-07
1.2914e-07
1.29172e-07
1.2919e-07
1.29175e-07
1.2919e-07
1.29204e-07
1.29213e-07
1.29241e-07
1.29256e-07
1.29255e-07
1.29254e-07
1.29264e-07
1.29263e-07
1.29286e-07
1.29303e-07
1.29312e-07
1.29332e-07
1.29338e-07
1.29347e-07
1.29366e-07
1.2939e-07
1.2941e-07
1.29448e-07
1.29474e-07
1.29516e-07
1.29546e-07
1.29605e-07
1.29642e-07
1.2972e-07
1.29768e-07
1.29924e-07
1.29956e-07
1.31031e-07
1.35895e-07
2.34574e-08
1.23922e-07
1.24282e-07
1.24991e-07
1.2562e-07
1.26123e-07
1.26522e-07
1.26848e-07
1.27117e-07
1.27344e-07
1.27535e-07
1.27701e-07
1.27844e-07
1.2797e-07
1.28079e-07
1.28177e-07
1.28263e-07
1.28341e-07
1.28408e-07
1.28471e-07
1.28527e-07
1.28579e-07
1.28624e-07
1.28667e-07
1.28704e-07
1.28739e-07
1.2877e-07
1.28801e-07
1.28827e-07
1.28852e-07
1.28875e-07
1.28897e-07
1.28918e-07
1.28931e-07
1.28945e-07
1.28965e-07
1.28982e-07
1.28994e-07
1.29003e-07
1.2902e-07
1.29032e-07
1.29035e-07
1.29043e-07
1.29064e-07
1.29068e-07
1.29059e-07
1.29077e-07
1.29082e-07
1.29087e-07
1.29098e-07
1.29103e-07
1.29112e-07
1.29115e-07
1.29114e-07
1.29115e-07
1.29115e-07
1.29119e-07
1.29118e-07
1.29118e-07
1.29144e-07
1.29146e-07
1.29127e-07
1.29134e-07
1.29166e-07
1.29184e-07
1.2917e-07
1.29184e-07
1.29199e-07
1.29207e-07
1.29236e-07
1.2925e-07
1.2925e-07
1.29249e-07
1.29259e-07
1.29257e-07
1.29281e-07
1.29298e-07
1.29307e-07
1.29327e-07
1.29333e-07
1.29342e-07
1.29361e-07
1.29386e-07
1.29405e-07
1.29443e-07
1.29469e-07
1.29511e-07
1.29541e-07
1.296e-07
1.29637e-07
1.29715e-07
1.29763e-07
1.29919e-07
1.2995e-07
1.31037e-07
1.35909e-07
2.44341e-08
1.23921e-07
1.24277e-07
1.24984e-07
1.25612e-07
1.26114e-07
1.26513e-07
1.26839e-07
1.27108e-07
1.27335e-07
1.27526e-07
1.27692e-07
1.27835e-07
1.27961e-07
1.2807e-07
1.28168e-07
1.28254e-07
1.28332e-07
1.28399e-07
1.28463e-07
1.28519e-07
1.28571e-07
1.28616e-07
1.28659e-07
1.28696e-07
1.28731e-07
1.28762e-07
1.28793e-07
1.28819e-07
1.28844e-07
1.28867e-07
1.28889e-07
1.28911e-07
1.28924e-07
1.28937e-07
1.28957e-07
1.28974e-07
1.28987e-07
1.28996e-07
1.29013e-07
1.29025e-07
1.29028e-07
1.29035e-07
1.29057e-07
1.29061e-07
1.29052e-07
1.29069e-07
1.29075e-07
1.2908e-07
1.29091e-07
1.29096e-07
1.29105e-07
1.29108e-07
1.29108e-07
1.29108e-07
1.29109e-07
1.29112e-07
1.29111e-07
1.29111e-07
1.29137e-07
1.2914e-07
1.29121e-07
1.29128e-07
1.2916e-07
1.29178e-07
1.29164e-07
1.29178e-07
1.29193e-07
1.29201e-07
1.2923e-07
1.29244e-07
1.29244e-07
1.29243e-07
1.29253e-07
1.29251e-07
1.29275e-07
1.29292e-07
1.29301e-07
1.29321e-07
1.29327e-07
1.29336e-07
1.29355e-07
1.2938e-07
1.29399e-07
1.29438e-07
1.29463e-07
1.29505e-07
1.29535e-07
1.29594e-07
1.29631e-07
1.29709e-07
1.29757e-07
1.29913e-07
1.29944e-07
1.31045e-07
1.35923e-07
2.54789e-08
1.2392e-07
1.24271e-07
1.24975e-07
1.25602e-07
1.26103e-07
1.26502e-07
1.26828e-07
1.27097e-07
1.27324e-07
1.27515e-07
1.27682e-07
1.27824e-07
1.27951e-07
1.2806e-07
1.28158e-07
1.28244e-07
1.28322e-07
1.2839e-07
1.28454e-07
1.28509e-07
1.28561e-07
1.28606e-07
1.2865e-07
1.28687e-07
1.28722e-07
1.28753e-07
1.28784e-07
1.2881e-07
1.28836e-07
1.28858e-07
1.28881e-07
1.28902e-07
1.28915e-07
1.28929e-07
1.28949e-07
1.28966e-07
1.28978e-07
1.28988e-07
1.29004e-07
1.29016e-07
1.2902e-07
1.29027e-07
1.29049e-07
1.29053e-07
1.29044e-07
1.29061e-07
1.29067e-07
1.29072e-07
1.29083e-07
1.29088e-07
1.29097e-07
1.291e-07
1.291e-07
1.291e-07
1.29101e-07
1.29105e-07
1.29104e-07
1.29104e-07
1.2913e-07
1.29132e-07
1.29113e-07
1.2912e-07
1.29152e-07
1.2917e-07
1.29156e-07
1.29171e-07
1.29186e-07
1.29194e-07
1.29222e-07
1.29237e-07
1.29237e-07
1.29236e-07
1.29246e-07
1.29244e-07
1.29268e-07
1.29285e-07
1.29294e-07
1.29314e-07
1.2932e-07
1.29329e-07
1.29348e-07
1.29373e-07
1.29392e-07
1.29431e-07
1.29457e-07
1.29499e-07
1.29529e-07
1.29588e-07
1.29624e-07
1.29703e-07
1.2975e-07
1.29907e-07
1.29937e-07
1.31055e-07
1.35938e-07
2.65926e-08
1.23919e-07
1.24264e-07
1.24965e-07
1.2559e-07
1.26091e-07
1.2649e-07
1.26816e-07
1.27084e-07
1.27312e-07
1.27503e-07
1.2767e-07
1.27812e-07
1.27939e-07
1.28048e-07
1.28147e-07
1.28233e-07
1.28311e-07
1.28379e-07
1.28443e-07
1.28498e-07
1.2855e-07
1.28596e-07
1.28639e-07
1.28676e-07
1.28712e-07
1.28743e-07
1.28774e-07
1.288e-07
1.28825e-07
1.28848e-07
1.28871e-07
1.28892e-07
1.28906e-07
1.28919e-07
1.28939e-07
1.28956e-07
1.28969e-07
1.28978e-07
1.28995e-07
1.29007e-07
1.29011e-07
1.29018e-07
1.29039e-07
1.29044e-07
1.29034e-07
1.29052e-07
1.29058e-07
1.29063e-07
1.29074e-07
1.29079e-07
1.29088e-07
1.29091e-07
1.29091e-07
1.29091e-07
1.29092e-07
1.29096e-07
1.29095e-07
1.29095e-07
1.29121e-07
1.29124e-07
1.29104e-07
1.29112e-07
1.29144e-07
1.29162e-07
1.29148e-07
1.29163e-07
1.29177e-07
1.29186e-07
1.29214e-07
1.29228e-07
1.29228e-07
1.29228e-07
1.29238e-07
1.29237e-07
1.29261e-07
1.29277e-07
1.29286e-07
1.29306e-07
1.29312e-07
1.29322e-07
1.29341e-07
1.29365e-07
1.29385e-07
1.29423e-07
1.29449e-07
1.29491e-07
1.29521e-07
1.2958e-07
1.29617e-07
1.29695e-07
1.29743e-07
1.29899e-07
1.29928e-07
1.31067e-07
1.35954e-07
2.7776e-08
1.23917e-07
1.24256e-07
1.24953e-07
1.25577e-07
1.26077e-07
1.26476e-07
1.26802e-07
1.2707e-07
1.27298e-07
1.27489e-07
1.27656e-07
1.27799e-07
1.27926e-07
1.28035e-07
1.28134e-07
1.2822e-07
1.28298e-07
1.28366e-07
1.2843e-07
1.28486e-07
1.28538e-07
1.28584e-07
1.28627e-07
1.28665e-07
1.287e-07
1.28731e-07
1.28762e-07
1.28788e-07
1.28814e-07
1.28837e-07
1.28859e-07
1.28881e-07
1.28895e-07
1.28908e-07
1.28928e-07
1.28945e-07
1.28958e-07
1.28967e-07
1.28984e-07
1.28996e-07
1.29e-07
1.29007e-07
1.29029e-07
1.29034e-07
1.29024e-07
1.29042e-07
1.29048e-07
1.29053e-07
1.29063e-07
1.29069e-07
1.29078e-07
1.29081e-07
1.29081e-07
1.29081e-07
1.29082e-07
1.29086e-07
1.29085e-07
1.29085e-07
1.29111e-07
1.29114e-07
1.29095e-07
1.29102e-07
1.29134e-07
1.29152e-07
1.29139e-07
1.29154e-07
1.29168e-07
1.29176e-07
1.29205e-07
1.29219e-07
1.29219e-07
1.29219e-07
1.29229e-07
1.29228e-07
1.29252e-07
1.29269e-07
1.29277e-07
1.29298e-07
1.29304e-07
1.29313e-07
1.29332e-07
1.29357e-07
1.29376e-07
1.29415e-07
1.29441e-07
1.29483e-07
1.29513e-07
1.29572e-07
1.29609e-07
1.29687e-07
1.29734e-07
1.29891e-07
1.29919e-07
1.31081e-07
1.3597e-07
2.90287e-08
1.23916e-07
1.24248e-07
1.2494e-07
1.25562e-07
1.26061e-07
1.2646e-07
1.26786e-07
1.27055e-07
1.27282e-07
1.27474e-07
1.27641e-07
1.27784e-07
1.27911e-07
1.2802e-07
1.28119e-07
1.28206e-07
1.28284e-07
1.28352e-07
1.28416e-07
1.28472e-07
1.28525e-07
1.2857e-07
1.28614e-07
1.28651e-07
1.28687e-07
1.28718e-07
1.28749e-07
1.28775e-07
1.28801e-07
1.28824e-07
1.28847e-07
1.28868e-07
1.28882e-07
1.28896e-07
1.28916e-07
1.28933e-07
1.28946e-07
1.28955e-07
1.28972e-07
1.28984e-07
1.28988e-07
1.28995e-07
1.29017e-07
1.29022e-07
1.29012e-07
1.2903e-07
1.29036e-07
1.29041e-07
1.29052e-07
1.29057e-07
1.29066e-07
1.2907e-07
1.2907e-07
1.2907e-07
1.29071e-07
1.29075e-07
1.29074e-07
1.29074e-07
1.291e-07
1.29103e-07
1.29084e-07
1.29092e-07
1.29123e-07
1.29142e-07
1.29128e-07
1.29143e-07
1.29158e-07
1.29166e-07
1.29194e-07
1.29209e-07
1.29209e-07
1.29209e-07
1.29219e-07
1.29218e-07
1.29242e-07
1.29259e-07
1.29267e-07
1.29288e-07
1.29294e-07
1.29304e-07
1.29323e-07
1.29348e-07
1.29367e-07
1.29405e-07
1.29431e-07
1.29474e-07
1.29503e-07
1.29562e-07
1.29599e-07
1.29677e-07
1.29725e-07
1.29882e-07
1.29909e-07
1.31097e-07
1.35987e-07
3.03486e-08
1.23914e-07
1.24238e-07
1.24926e-07
1.25545e-07
1.26044e-07
1.26443e-07
1.26768e-07
1.27037e-07
1.27265e-07
1.27457e-07
1.27624e-07
1.27767e-07
1.27894e-07
1.28004e-07
1.28103e-07
1.2819e-07
1.28268e-07
1.28336e-07
1.28401e-07
1.28457e-07
1.2851e-07
1.28555e-07
1.28599e-07
1.28637e-07
1.28672e-07
1.28703e-07
1.28735e-07
1.28761e-07
1.28787e-07
1.2881e-07
1.28833e-07
1.28855e-07
1.28869e-07
1.28882e-07
1.28902e-07
1.2892e-07
1.28933e-07
1.28942e-07
1.28959e-07
1.28971e-07
1.28975e-07
1.28982e-07
1.29004e-07
1.29009e-07
1.29e-07
1.29017e-07
1.29023e-07
1.29029e-07
1.29039e-07
1.29045e-07
1.29054e-07
1.29057e-07
1.29057e-07
1.29057e-07
1.29059e-07
1.29063e-07
1.29062e-07
1.29062e-07
1.29088e-07
1.29091e-07
1.29072e-07
1.2908e-07
1.29111e-07
1.2913e-07
1.29117e-07
1.29132e-07
1.29146e-07
1.29155e-07
1.29183e-07
1.29197e-07
1.29198e-07
1.29198e-07
1.29208e-07
1.29207e-07
1.29231e-07
1.29248e-07
1.29257e-07
1.29277e-07
1.29284e-07
1.29293e-07
1.29312e-07
1.29337e-07
1.29356e-07
1.29395e-07
1.29421e-07
1.29463e-07
1.29493e-07
1.29552e-07
1.29589e-07
1.29667e-07
1.29714e-07
1.29872e-07
1.29897e-07
1.31116e-07
1.36006e-07
3.17319e-08
1.23912e-07
1.24227e-07
1.2491e-07
1.25527e-07
1.26025e-07
1.26423e-07
1.26749e-07
1.27018e-07
1.27246e-07
1.27438e-07
1.27606e-07
1.27749e-07
1.27876e-07
1.27986e-07
1.28086e-07
1.28172e-07
1.28251e-07
1.28319e-07
1.28384e-07
1.2844e-07
1.28493e-07
1.28539e-07
1.28583e-07
1.28621e-07
1.28656e-07
1.28688e-07
1.28719e-07
1.28746e-07
1.28772e-07
1.28795e-07
1.28818e-07
1.2884e-07
1.28854e-07
1.28867e-07
1.28887e-07
1.28905e-07
1.28918e-07
1.28927e-07
1.28944e-07
1.28957e-07
1.28961e-07
1.28968e-07
1.2899e-07
1.28995e-07
1.28986e-07
1.29003e-07
1.29009e-07
1.29015e-07
1.29026e-07
1.29031e-07
1.2904e-07
1.29044e-07
1.29044e-07
1.29044e-07
1.29046e-07
1.2905e-07
1.29049e-07
1.29049e-07
1.29075e-07
1.29078e-07
1.29059e-07
1.29067e-07
1.29098e-07
1.29117e-07
1.29104e-07
1.2912e-07
1.29134e-07
1.29142e-07
1.2917e-07
1.29185e-07
1.29186e-07
1.29186e-07
1.29197e-07
1.29195e-07
1.29219e-07
1.29236e-07
1.29245e-07
1.29266e-07
1.29272e-07
1.29282e-07
1.29301e-07
1.29326e-07
1.29345e-07
1.29384e-07
1.2941e-07
1.29452e-07
1.29482e-07
1.29541e-07
1.29578e-07
1.29656e-07
1.29703e-07
1.29861e-07
1.29885e-07
1.31137e-07
1.36025e-07
3.31819e-08
1.2391e-07
1.24216e-07
1.24893e-07
1.25508e-07
1.26005e-07
1.26402e-07
1.26728e-07
1.26997e-07
1.27225e-07
1.27417e-07
1.27585e-07
1.27729e-07
1.27856e-07
1.27967e-07
1.28066e-07
1.28153e-07
1.28232e-07
1.28301e-07
1.28366e-07
1.28422e-07
1.28475e-07
1.28521e-07
1.28565e-07
1.28603e-07
1.28639e-07
1.2867e-07
1.28702e-07
1.28729e-07
1.28755e-07
1.28778e-07
1.28801e-07
1.28823e-07
1.28837e-07
1.28851e-07
1.28871e-07
1.28889e-07
1.28902e-07
1.28911e-07
1.28929e-07
1.28941e-07
1.28946e-07
1.28953e-07
1.28974e-07
1.2898e-07
1.2897e-07
1.28987e-07
1.28994e-07
1.29e-07
1.29011e-07
1.29016e-07
1.29025e-07
1.29029e-07
1.29029e-07
1.29029e-07
1.29031e-07
1.29035e-07
1.29034e-07
1.29034e-07
1.2906e-07
1.29064e-07
1.29045e-07
1.29053e-07
1.29084e-07
1.29103e-07
1.29091e-07
1.29106e-07
1.2912e-07
1.29128e-07
1.29156e-07
1.29171e-07
1.29173e-07
1.29173e-07
1.29184e-07
1.29182e-07
1.29207e-07
1.29223e-07
1.29232e-07
1.29253e-07
1.2926e-07
1.2927e-07
1.29288e-07
1.29314e-07
1.29333e-07
1.29371e-07
1.29397e-07
1.2944e-07
1.2947e-07
1.29529e-07
1.29566e-07
1.29644e-07
1.2969e-07
1.29849e-07
1.29871e-07
1.3116e-07
1.36045e-07
3.47021e-08
1.23908e-07
1.24203e-07
1.24874e-07
1.25486e-07
1.25982e-07
1.26379e-07
1.26705e-07
1.26974e-07
1.27202e-07
1.27395e-07
1.27563e-07
1.27707e-07
1.27835e-07
1.27945e-07
1.28045e-07
1.28132e-07
1.28212e-07
1.2828e-07
1.28345e-07
1.28402e-07
1.28455e-07
1.28501e-07
1.28546e-07
1.28584e-07
1.2862e-07
1.28652e-07
1.28683e-07
1.2871e-07
1.28737e-07
1.2876e-07
1.28783e-07
1.28805e-07
1.2882e-07
1.28833e-07
1.28853e-07
1.28871e-07
1.28885e-07
1.28894e-07
1.28911e-07
1.28924e-07
1.28929e-07
1.28936e-07
1.28957e-07
1.28963e-07
1.28954e-07
1.28971e-07
1.28978e-07
1.28983e-07
1.28994e-07
1.29e-07
1.29009e-07
1.29013e-07
1.29013e-07
1.29013e-07
1.29015e-07
1.29019e-07
1.29019e-07
1.29019e-07
1.29045e-07
1.29048e-07
1.29029e-07
1.29038e-07
1.29069e-07
1.29088e-07
1.29076e-07
1.29092e-07
1.29106e-07
1.29114e-07
1.29142e-07
1.29156e-07
1.29159e-07
1.29158e-07
1.2917e-07
1.29168e-07
1.29193e-07
1.2921e-07
1.29218e-07
1.29239e-07
1.29246e-07
1.29256e-07
1.29275e-07
1.293e-07
1.29319e-07
1.29358e-07
1.29384e-07
1.29427e-07
1.29456e-07
1.29515e-07
1.29552e-07
1.2963e-07
1.29677e-07
1.29836e-07
1.29857e-07
1.31186e-07
1.36067e-07
3.62962e-08
1.23906e-07
1.2419e-07
1.24854e-07
1.25463e-07
1.25958e-07
1.26355e-07
1.2668e-07
1.26949e-07
1.27178e-07
1.27371e-07
1.27539e-07
1.27683e-07
1.27812e-07
1.27922e-07
1.28023e-07
1.2811e-07
1.2819e-07
1.28258e-07
1.28324e-07
1.28381e-07
1.28434e-07
1.2848e-07
1.28525e-07
1.28563e-07
1.286e-07
1.28631e-07
1.28663e-07
1.2869e-07
1.28717e-07
1.2874e-07
1.28764e-07
1.28786e-07
1.288e-07
1.28814e-07
1.28834e-07
1.28852e-07
1.28866e-07
1.28876e-07
1.28893e-07
1.28906e-07
1.28911e-07
1.28918e-07
1.28939e-07
1.28945e-07
1.28936e-07
1.28953e-07
1.2896e-07
1.28966e-07
1.28977e-07
1.28982e-07
1.28992e-07
1.28996e-07
1.28996e-07
1.28996e-07
1.28998e-07
1.29002e-07
1.29002e-07
1.29002e-07
1.29028e-07
1.29031e-07
1.29013e-07
1.29021e-07
1.29052e-07
1.29072e-07
1.2906e-07
1.29076e-07
1.2909e-07
1.29098e-07
1.29126e-07
1.29141e-07
1.29143e-07
1.29143e-07
1.29154e-07
1.29153e-07
1.29178e-07
1.29195e-07
1.29203e-07
1.29224e-07
1.29232e-07
1.29242e-07
1.2926e-07
1.29286e-07
1.29305e-07
1.29343e-07
1.29369e-07
1.29412e-07
1.29442e-07
1.29501e-07
1.29538e-07
1.29616e-07
1.29662e-07
1.29821e-07
1.29841e-07
1.31215e-07
1.36089e-07
3.79681e-08
1.23903e-07
1.24176e-07
1.24832e-07
1.25438e-07
1.25932e-07
1.26328e-07
1.26653e-07
1.26923e-07
1.27151e-07
1.27345e-07
1.27513e-07
1.27658e-07
1.27787e-07
1.27897e-07
1.27998e-07
1.28086e-07
1.28166e-07
1.28235e-07
1.283e-07
1.28358e-07
1.28411e-07
1.28458e-07
1.28503e-07
1.28541e-07
1.28578e-07
1.2861e-07
1.28642e-07
1.28669e-07
1.28696e-07
1.28719e-07
1.28743e-07
1.28765e-07
1.2878e-07
1.28794e-07
1.28814e-07
1.28832e-07
1.28846e-07
1.28856e-07
1.28873e-07
1.28886e-07
1.28891e-07
1.28898e-07
1.2892e-07
1.28926e-07
1.28917e-07
1.28933e-07
1.28941e-07
1.28947e-07
1.28958e-07
1.28963e-07
1.28973e-07
1.28978e-07
1.28977e-07
1.28978e-07
1.2898e-07
1.28984e-07
1.28984e-07
1.28984e-07
1.2901e-07
1.29014e-07
1.28995e-07
1.29004e-07
1.29035e-07
1.29054e-07
1.29043e-07
1.29059e-07
1.29073e-07
1.29081e-07
1.29108e-07
1.29123e-07
1.29127e-07
1.29126e-07
1.29138e-07
1.29137e-07
1.29162e-07
1.29178e-07
1.29187e-07
1.29208e-07
1.29216e-07
1.29226e-07
1.29244e-07
1.2927e-07
1.29289e-07
1.29328e-07
1.29354e-07
1.29397e-07
1.29427e-07
1.29486e-07
1.29523e-07
1.296e-07
1.29647e-07
1.29806e-07
1.29824e-07
1.31246e-07
1.36112e-07
3.97218e-08
1.23901e-07
1.24161e-07
1.24809e-07
1.25412e-07
1.25904e-07
1.26299e-07
1.26625e-07
1.26894e-07
1.27123e-07
1.27317e-07
1.27486e-07
1.27631e-07
1.2776e-07
1.27871e-07
1.27972e-07
1.2806e-07
1.2814e-07
1.2821e-07
1.28275e-07
1.28333e-07
1.28387e-07
1.28434e-07
1.28479e-07
1.28517e-07
1.28554e-07
1.28586e-07
1.28619e-07
1.28646e-07
1.28673e-07
1.28696e-07
1.2872e-07
1.28743e-07
1.28758e-07
1.28772e-07
1.28792e-07
1.2881e-07
1.28824e-07
1.28834e-07
1.28851e-07
1.28865e-07
1.2887e-07
1.28877e-07
1.28899e-07
1.28905e-07
1.28896e-07
1.28913e-07
1.2892e-07
1.28926e-07
1.28938e-07
1.28943e-07
1.28953e-07
1.28958e-07
1.28958e-07
1.28958e-07
1.28961e-07
1.28965e-07
1.28965e-07
1.28964e-07
1.2899e-07
1.28994e-07
1.28976e-07
1.28985e-07
1.29015e-07
1.29035e-07
1.29024e-07
1.29041e-07
1.29054e-07
1.29062e-07
1.2909e-07
1.29105e-07
1.29109e-07
1.29109e-07
1.29121e-07
1.2912e-07
1.29144e-07
1.29161e-07
1.2917e-07
1.29191e-07
1.29199e-07
1.2921e-07
1.29228e-07
1.29253e-07
1.29272e-07
1.29311e-07
1.29337e-07
1.2938e-07
1.2941e-07
1.29469e-07
1.29506e-07
1.29584e-07
1.2963e-07
1.2979e-07
1.29806e-07
1.31279e-07
1.36137e-07
4.15614e-08
1.23899e-07
1.24145e-07
1.24785e-07
1.25383e-07
1.25874e-07
1.26269e-07
1.26594e-07
1.26864e-07
1.27093e-07
1.27287e-07
1.27456e-07
1.27601e-07
1.27731e-07
1.27842e-07
1.27944e-07
1.28032e-07
1.28113e-07
1.28182e-07
1.28249e-07
1.28306e-07
1.28361e-07
1.28408e-07
1.28453e-07
1.28492e-07
1.28529e-07
1.28561e-07
1.28594e-07
1.28621e-07
1.28648e-07
1.28672e-07
1.28696e-07
1.28719e-07
1.28734e-07
1.28748e-07
1.28769e-07
1.28787e-07
1.28801e-07
1.28811e-07
1.28829e-07
1.28842e-07
1.28848e-07
1.28855e-07
1.28876e-07
1.28883e-07
1.28874e-07
1.2889e-07
1.28898e-07
1.28904e-07
1.28916e-07
1.28922e-07
1.28931e-07
1.28936e-07
1.28936e-07
1.28937e-07
1.2894e-07
1.28944e-07
1.28944e-07
1.28944e-07
1.2897e-07
1.28974e-07
1.28955e-07
1.28964e-07
1.28995e-07
1.29015e-07
1.29005e-07
1.29021e-07
1.29035e-07
1.29043e-07
1.2907e-07
1.29085e-07
1.2909e-07
1.2909e-07
1.29102e-07
1.29101e-07
1.29126e-07
1.29143e-07
1.29151e-07
1.29172e-07
1.29181e-07
1.29192e-07
1.2921e-07
1.29236e-07
1.29254e-07
1.29293e-07
1.29319e-07
1.29363e-07
1.29392e-07
1.29451e-07
1.29488e-07
1.29566e-07
1.29612e-07
1.29773e-07
1.29786e-07
1.31314e-07
1.36162e-07
4.34909e-08
1.23896e-07
1.24128e-07
1.24759e-07
1.25353e-07
1.25842e-07
1.26236e-07
1.26562e-07
1.26831e-07
1.27061e-07
1.27255e-07
1.27425e-07
1.2757e-07
1.277e-07
1.27812e-07
1.27914e-07
1.28002e-07
1.28084e-07
1.28154e-07
1.2822e-07
1.28278e-07
1.28333e-07
1.2838e-07
1.28425e-07
1.28465e-07
1.28502e-07
1.28535e-07
1.28567e-07
1.28595e-07
1.28622e-07
1.28646e-07
1.2867e-07
1.28693e-07
1.28709e-07
1.28723e-07
1.28744e-07
1.28762e-07
1.28777e-07
1.28787e-07
1.28804e-07
1.28818e-07
1.28824e-07
1.28831e-07
1.28852e-07
1.28859e-07
1.28851e-07
1.28867e-07
1.28875e-07
1.28881e-07
1.28893e-07
1.28899e-07
1.28908e-07
1.28914e-07
1.28914e-07
1.28914e-07
1.28917e-07
1.28922e-07
1.28922e-07
1.28922e-07
1.28948e-07
1.28952e-07
1.28933e-07
1.28943e-07
1.28973e-07
1.28993e-07
1.28984e-07
1.29001e-07
1.29014e-07
1.29022e-07
1.29049e-07
1.29064e-07
1.2907e-07
1.29069e-07
1.29082e-07
1.29081e-07
1.29106e-07
1.29123e-07
1.29132e-07
1.29153e-07
1.29162e-07
1.29173e-07
1.2919e-07
1.29217e-07
1.29235e-07
1.29274e-07
1.293e-07
1.29344e-07
1.29373e-07
1.29432e-07
1.29469e-07
1.29547e-07
1.29593e-07
1.29754e-07
1.29765e-07
1.31352e-07
1.36188e-07
4.55143e-08
1.23893e-07
1.2411e-07
1.24732e-07
1.25321e-07
1.25808e-07
1.26202e-07
1.26527e-07
1.26797e-07
1.27026e-07
1.27221e-07
1.27391e-07
1.27537e-07
1.27667e-07
1.2778e-07
1.27882e-07
1.27971e-07
1.28053e-07
1.28123e-07
1.2819e-07
1.28248e-07
1.28303e-07
1.28351e-07
1.28396e-07
1.28436e-07
1.28474e-07
1.28506e-07
1.28539e-07
1.28567e-07
1.28595e-07
1.28619e-07
1.28643e-07
1.28666e-07
1.28682e-07
1.28697e-07
1.28717e-07
1.28736e-07
1.28751e-07
1.28761e-07
1.28778e-07
1.28792e-07
1.28798e-07
1.28805e-07
1.28827e-07
1.28834e-07
1.28826e-07
1.28842e-07
1.2885e-07
1.28857e-07
1.28869e-07
1.28874e-07
1.28884e-07
1.2889e-07
1.2889e-07
1.2889e-07
1.28894e-07
1.28898e-07
1.28898e-07
1.28898e-07
1.28924e-07
1.28929e-07
1.2891e-07
1.2892e-07
1.2895e-07
1.2897e-07
1.28961e-07
1.28979e-07
1.28992e-07
1.29e-07
1.29027e-07
1.29042e-07
1.29048e-07
1.29048e-07
1.29061e-07
1.2906e-07
1.29085e-07
1.29102e-07
1.29111e-07
1.29132e-07
1.29141e-07
1.29153e-07
1.2917e-07
1.29196e-07
1.29215e-07
1.29254e-07
1.2928e-07
1.29324e-07
1.29353e-07
1.29412e-07
1.29449e-07
1.29527e-07
1.29572e-07
1.29734e-07
1.29743e-07
1.31391e-07
1.36214e-07
4.76354e-08
1.23891e-07
1.24091e-07
1.24703e-07
1.25288e-07
1.25772e-07
1.26165e-07
1.2649e-07
1.2676e-07
1.2699e-07
1.27185e-07
1.27356e-07
1.27502e-07
1.27633e-07
1.27746e-07
1.27848e-07
1.27938e-07
1.2802e-07
1.2809e-07
1.28158e-07
1.28216e-07
1.28271e-07
1.28319e-07
1.28365e-07
1.28405e-07
1.28443e-07
1.28476e-07
1.28509e-07
1.28538e-07
1.28566e-07
1.2859e-07
1.28614e-07
1.28638e-07
1.28654e-07
1.28668e-07
1.28689e-07
1.28708e-07
1.28723e-07
1.28733e-07
1.28751e-07
1.28765e-07
1.28771e-07
1.28778e-07
1.288e-07
1.28808e-07
1.288e-07
1.28815e-07
1.28824e-07
1.28831e-07
1.28843e-07
1.28848e-07
1.28858e-07
1.28864e-07
1.28864e-07
1.28865e-07
1.28869e-07
1.28873e-07
1.28873e-07
1.28873e-07
1.28899e-07
1.28904e-07
1.28886e-07
1.28896e-07
1.28926e-07
1.28946e-07
1.28938e-07
1.28955e-07
1.28968e-07
1.28976e-07
1.29003e-07
1.29019e-07
1.29025e-07
1.29025e-07
1.29039e-07
1.29038e-07
1.29063e-07
1.2908e-07
1.29089e-07
1.2911e-07
1.29119e-07
1.29131e-07
1.29148e-07
1.29175e-07
1.29194e-07
1.29232e-07
1.29258e-07
1.29303e-07
1.29332e-07
1.29391e-07
1.29428e-07
1.29505e-07
1.2955e-07
1.29713e-07
1.2972e-07
1.31432e-07
1.36241e-07
4.98577e-08
1.23888e-07
1.24072e-07
1.24673e-07
1.25252e-07
1.25735e-07
1.26127e-07
1.26451e-07
1.26721e-07
1.26952e-07
1.27147e-07
1.27318e-07
1.27465e-07
1.27596e-07
1.27709e-07
1.27812e-07
1.27902e-07
1.27985e-07
1.28056e-07
1.28123e-07
1.28182e-07
1.28238e-07
1.28286e-07
1.28333e-07
1.28373e-07
1.28411e-07
1.28444e-07
1.28478e-07
1.28506e-07
1.28534e-07
1.28559e-07
1.28584e-07
1.28607e-07
1.28624e-07
1.28638e-07
1.28659e-07
1.28678e-07
1.28693e-07
1.28704e-07
1.28722e-07
1.28736e-07
1.28743e-07
1.2875e-07
1.28772e-07
1.2878e-07
1.28772e-07
1.28787e-07
1.28796e-07
1.28803e-07
1.28815e-07
1.28821e-07
1.28831e-07
1.28837e-07
1.28837e-07
1.28838e-07
1.28842e-07
1.28846e-07
1.28847e-07
1.28847e-07
1.28873e-07
1.28878e-07
1.2886e-07
1.2887e-07
1.289e-07
1.28921e-07
1.28912e-07
1.2893e-07
1.28944e-07
1.28951e-07
1.28978e-07
1.28993e-07
1.29001e-07
1.29001e-07
1.29015e-07
1.29014e-07
1.29039e-07
1.29056e-07
1.29065e-07
1.29086e-07
1.29096e-07
1.29108e-07
1.29125e-07
1.29152e-07
1.29171e-07
1.29209e-07
1.29235e-07
1.2928e-07
1.29309e-07
1.29368e-07
1.29405e-07
1.29483e-07
1.29527e-07
1.2969e-07
1.29696e-07
1.31474e-07
1.36268e-07
5.21838e-08
1.23885e-07
1.24052e-07
1.24641e-07
1.25215e-07
1.25695e-07
1.26086e-07
1.2641e-07
1.2668e-07
1.26911e-07
1.27107e-07
1.27278e-07
1.27425e-07
1.27557e-07
1.27671e-07
1.27775e-07
1.27865e-07
1.27948e-07
1.28019e-07
1.28087e-07
1.28147e-07
1.28203e-07
1.28251e-07
1.28298e-07
1.28339e-07
1.28377e-07
1.28411e-07
1.28445e-07
1.28473e-07
1.28502e-07
1.28526e-07
1.28551e-07
1.28575e-07
1.28592e-07
1.28607e-07
1.28628e-07
1.28647e-07
1.28662e-07
1.28673e-07
1.28691e-07
1.28705e-07
1.28713e-07
1.2872e-07
1.28741e-07
1.2875e-07
1.28742e-07
1.28757e-07
1.28767e-07
1.28774e-07
1.28787e-07
1.28792e-07
1.28802e-07
1.28809e-07
1.28809e-07
1.28809e-07
1.28814e-07
1.28818e-07
1.28819e-07
1.28819e-07
1.28845e-07
1.2885e-07
1.28832e-07
1.28843e-07
1.28873e-07
1.28893e-07
1.28886e-07
1.28904e-07
1.28917e-07
1.28925e-07
1.28952e-07
1.28967e-07
1.28975e-07
1.28975e-07
1.2899e-07
1.28989e-07
1.29014e-07
1.29031e-07
1.2904e-07
1.29061e-07
1.29072e-07
1.29084e-07
1.29101e-07
1.29128e-07
1.29146e-07
1.29185e-07
1.29211e-07
1.29256e-07
1.29285e-07
1.29344e-07
1.29381e-07
1.29459e-07
1.29503e-07
1.29666e-07
1.2967e-07
1.31518e-07
1.36295e-07
5.46159e-08
1.23882e-07
1.24031e-07
1.24608e-07
1.25176e-07
1.25653e-07
1.26043e-07
1.26367e-07
1.26637e-07
1.26868e-07
1.27064e-07
1.27236e-07
1.27384e-07
1.27516e-07
1.2763e-07
1.27735e-07
1.27825e-07
1.27909e-07
1.27981e-07
1.28049e-07
1.28109e-07
1.28166e-07
1.28214e-07
1.28262e-07
1.28302e-07
1.28341e-07
1.28375e-07
1.28409e-07
1.28438e-07
1.28467e-07
1.28492e-07
1.28517e-07
1.28541e-07
1.28558e-07
1.28573e-07
1.28595e-07
1.28614e-07
1.2863e-07
1.28641e-07
1.28659e-07
1.28673e-07
1.28681e-07
1.28688e-07
1.2871e-07
1.28718e-07
1.28711e-07
1.28726e-07
1.28736e-07
1.28743e-07
1.28756e-07
1.28762e-07
1.28772e-07
1.28778e-07
1.28778e-07
1.28779e-07
1.28784e-07
1.28789e-07
1.2879e-07
1.2879e-07
1.28815e-07
1.28821e-07
1.28803e-07
1.28814e-07
1.28844e-07
1.28865e-07
1.28858e-07
1.28877e-07
1.28889e-07
1.28897e-07
1.28924e-07
1.28939e-07
1.28948e-07
1.28949e-07
1.28963e-07
1.28963e-07
1.28987e-07
1.29005e-07
1.29014e-07
1.29035e-07
1.29046e-07
1.29059e-07
1.29075e-07
1.29102e-07
1.29121e-07
1.2916e-07
1.29186e-07
1.29231e-07
1.2926e-07
1.29319e-07
1.29356e-07
1.29433e-07
1.29477e-07
1.2964e-07
1.29642e-07
1.31561e-07
1.36322e-07
5.71548e-08
1.2388e-07
1.24009e-07
1.24573e-07
1.25135e-07
1.2561e-07
1.25998e-07
1.26322e-07
1.26592e-07
1.26823e-07
1.2702e-07
1.27192e-07
1.2734e-07
1.27473e-07
1.27588e-07
1.27693e-07
1.27784e-07
1.27868e-07
1.2794e-07
1.28009e-07
1.28069e-07
1.28126e-07
1.28176e-07
1.28223e-07
1.28264e-07
1.28304e-07
1.28338e-07
1.28372e-07
1.28401e-07
1.28431e-07
1.28456e-07
1.28481e-07
1.28505e-07
1.28523e-07
1.28538e-07
1.2856e-07
1.28579e-07
1.28595e-07
1.28607e-07
1.28624e-07
1.28639e-07
1.28647e-07
1.28654e-07
1.28676e-07
1.28685e-07
1.28678e-07
1.28693e-07
1.28703e-07
1.28711e-07
1.28724e-07
1.28729e-07
1.28739e-07
1.28746e-07
1.28747e-07