/*--------------------------------*- C++ -*----------------------------------*\
| =========                 |                                                 |
| \\      /  F ield         | OpenFOAM: The Open Source CFD Toolbox           |
|  \\    /   O peration     | Version:  v2012                                 |
|   \\  /    A nd           | Website:  www.openfoam.com                      |
|    \\/     M anipulation  |                                                 |
\*---------------------------------------------------------------------------*/
FoamFile
{
    version     2.0;
    format      ascii;
    class       volScalarField;
    location    "15";
    object      omega;
}
// * * * * * * * * * * * * * * * * * * * * * * * * * * * * * * * * * * * * * //

dimensions      [0 0 -1 0 0 0 0];


internalField   nonuniform List<scalar> 
209825
(
8224.24
7646.36
7306.43
7096.82
6957.01
6858.06
6784.39
6728
6683.39
6647.69
6618.35
6594.2
6573.8
6556.68
6541.9
6529.34
6518.29
6508.83
6500.35
6493.07
6486.43
6480.7
6475.43
6470.96
6466.7
6463.01
6459.55
6456.67
6453.81
6451.38
6449.05
6447.1
6445.17
6443.67
6442.01
6440.66
6439.33
6438.4
6437.18
6436.27
6435.41
6434.83
6433.62
6433.16
6432.88
6432.69
6432.42
6432.17
6431.66
6431.37
6430.65
6431.45
6431.46
6431.46
6431.39
6432.22
6433
6433
6433
6432.99
6433.94
6434.3
6434.3
6434.92
6436.35
6436.35
6436.35
6437.31
6437.31
6438.38
6439.43
6440.79
6441.66
6443.55
6443.55
6444.66
6446
6447.18
6448.39
6450.27
6451.24
6453.02
6454.27
6456.18
6457.44
6459.98
6461.37
6464.49
6466.15
6470.15
6472
6478.77
6479.45
6522.18
6712.79
115650
8224.25
7646.34
7306.36
7096.71
6956.87
6857.9
6784.22
6727.81
6683.19
6647.48
6618.13
6593.98
6573.57
6556.45
6541.66
6529.1
6518.05
6508.58
6500.1
6492.82
6486.18
6480.44
6475.17
6470.7
6466.44
6462.75
6459.29
6456.41
6453.55
6451.12
6448.78
6446.83
6444.91
6443.4
6441.74
6440.39
6439.06
6438.13
6436.9
6436
6435.14
6434.55
6433.35
6432.89
6432.61
6432.41
6432.15
6431.9
6431.38
6431.1
6430.37
6431.18
6431.19
6431.19
6431.12
6431.94
6432.73
6432.73
6432.73
6432.72
6433.66
6434.02
6434.02
6434.64
6436.07
6436.07
6436.07
6437.03
6437.03
6438.11
6439.15
6440.52
6441.39
6443.27
6443.28
6444.38
6445.72
6446.91
6448.11
6449.99
6450.97
6452.74
6454
6455.9
6457.16
6459.7
6461.09
6464.21
6465.87
6469.87
6471.72
6478.5
6479.17
6521.99
6712.65
112354
8224.26
7646.23
7306.1
7096.33
6956.4
6857.36
6783.62
6727.17
6682.51
6646.78
6617.4
6593.23
6572.8
6555.67
6540.87
6528.3
6517.23
6507.76
6499.27
6491.98
6485.33
6479.59
6474.32
6469.84
6465.57
6461.88
6458.42
6455.53
6452.67
6450.24
6447.9
6445.95
6444.02
6442.51
6440.85
6439.5
6438.16
6437.23
6436.01
6435.1
6434.23
6433.65
6432.44
6431.99
6431.7
6431.51
6431.24
6430.99
6430.47
6430.19
6429.46
6430.27
6430.28
6430.28
6430.2
6431.03
6431.81
6431.81
6431.81
6431.8
6432.75
6433.11
6433.11
6433.72
6435.15
6435.16
6435.16
6436.12
6436.12
6437.19
6438.23
6439.6
6440.47
6442.36
6442.36
6443.46
6444.8
6445.99
6447.19
6449.07
6450.05
6451.82
6453.08
6454.98
6456.24
6458.78
6460.17
6463.29
6464.95
6468.95
6470.8
6477.57
6478.24
6521.23
6712
108573
8224.28
7646.03
7305.65
7095.67
6955.58
6856.42
6782.59
6726.07
6681.35
6645.57
6616.15
6591.94
6571.48
6554.33
6539.5
6526.91
6515.83
6506.34
6497.84
6490.53
6483.88
6478.13
6472.85
6468.36
6464.09
6460.39
6456.92
6454.03
6451.16
6448.72
6446.38
6444.43
6442.5
6440.98
6439.32
6437.96
6436.63
6435.69
6434.47
6433.55
6432.69
6432.11
6430.9
6430.44
6430.15
6429.95
6429.69
6429.43
6428.92
6428.63
6427.9
6428.7
6428.71
6428.71
6428.64
6429.46
6430.24
6430.24
6430.25
6430.23
6431.18
6431.54
6431.54
6432.15
6433.58
6433.58
6433.58
6434.54
6434.54
6435.62
6436.66
6438.02
6438.89
6440.78
6440.78
6441.88
6443.22
6444.41
6445.61
6447.49
6448.47
6450.24
6451.5
6453.41
6454.66
6457.2
6458.6
6461.71
6463.37
6467.37
6469.22
6475.99
6476.64
6519.89
6710.8
104686
8224.32
7645.74
7305
7094.73
6954.41
6855.09
6781.12
6724.49
6679.69
6643.84
6614.36
6590.11
6569.61
6552.41
6537.56
6524.94
6513.83
6504.32
6495.8
6488.48
6481.81
6476.05
6470.75
6466.26
6461.97
6458.26
6454.78
6451.89
6449.01
6446.57
6444.22
6442.26
6440.32
6438.81
6437.14
6435.78
6434.44
6433.5
6432.27
6431.36
6430.49
6429.9
6428.69
6428.23
6427.94
6427.74
6427.47
6427.22
6426.7
6426.41
6425.68
6426.48
6426.49
6426.49
6426.41
6427.23
6428.01
6428.01
6428.01
6428
6428.94
6429.3
6429.3
6429.91
6431.34
6431.34
6431.34
6432.3
6432.3
6433.38
6434.41
6435.78
6436.64
6438.53
6438.54
6439.64
6440.98
6442.17
6443.37
6445.24
6446.22
6448
6449.25
6451.16
6452.41
6454.95
6456.35
6459.46
6461.12
6465.11
6466.96
6473.73
6474.37
6517.98
6709.03
100797
8224.36
7645.37
7304.15
7093.49
6952.89
6853.34
6779.2
6722.44
6677.52
6641.58
6612.03
6587.71
6567.16
6549.91
6535.02
6522.36
6511.23
6501.69
6493.14
6485.8
6479.11
6473.33
6468.02
6463.51
6459.21
6455.49
6452
6449.09
6446.21
6443.76
6441.4
6439.43
6437.49
6435.97
6434.29
6432.93
6431.58
6430.64
6429.41
6428.49
6427.62
6427.03
6425.81
6425.35
6425.05
6424.85
6424.58
6424.33
6423.81
6423.52
6422.78
6423.57
6423.58
6423.58
6423.5
6424.32
6425.09
6425.1
6425.1
6425.08
6426.03
6426.38
6426.38
6426.99
6428.42
6428.42
6428.42
6429.38
6429.38
6430.45
6431.49
6432.85
6433.71
6435.61
6435.61
6436.71
6438.05
6439.24
6440.44
6442.31
6443.29
6445.07
6446.32
6448.23
6449.48
6452.02
6453.41
6456.52
6458.18
6462.17
6464.02
6470.79
6471.4
6515.48
6706.61
96947.3
8224.41
7644.92
7303.11
7091.97
6951
6851.18
6776.83
6719.9
6674.85
6638.79
6609.15
6584.75
6564.12
6546.82
6531.88
6519.18
6508
6498.43
6489.85
6482.48
6475.77
6469.97
6464.64
6460.11
6455.79
6452.06
6448.56
6445.64
6442.74
6440.28
6437.91
6435.94
6433.98
6432.45
6430.77
6429.4
6428.05
6427.1
6425.86
6424.94
6424.06
6423.47
6422.25
6421.78
6421.48
6421.28
6421
6420.75
6420.22
6419.93
6419.19
6419.97
6419.98
6419.98
6419.9
6420.72
6421.49
6421.49
6421.49
6421.47
6422.42
6422.77
6422.76
6423.37
6424.8
6424.8
6424.8
6425.76
6425.76
6426.83
6427.86
6429.23
6430.09
6431.98
6431.98
6433.08
6434.42
6435.61
6436.81
6438.68
6439.66
6441.44
6442.69
6444.6
6445.85
6448.39
6449.78
6452.89
6454.54
6458.53
6460.37
6467.14
6467.73
6512.39
6703.51
93155
8224.47
7644.38
7301.86
7090.15
6948.75
6848.6
6774
6716.86
6671.65
6635.45
6605.7
6581.2
6560.5
6543.13
6528.12
6515.37
6504.15
6494.53
6485.92
6478.52
6471.78
6465.95
6460.59
6456.04
6451.71
6447.96
6444.44
6441.5
6438.59
6436.12
6433.74
6431.75
6429.79
6428.25
6426.56
6425.18
6423.82
6422.86
6421.62
6420.69
6419.81
6419.21
6417.99
6417.51
6417.21
6417
6416.72
6416.46
6415.94
6415.65
6414.9
6415.67
6415.68
6415.68
6415.59
6416.41
6417.17
6417.17
6417.17
6417.15
6418.1
6418.44
6418.44
6419.05
6420.48
6420.48
6420.48
6421.43
6421.43
6422.5
6423.53
6424.9
6425.75
6427.64
6427.64
6428.74
6430.08
6431.28
6432.47
6434.34
6435.32
6437.09
6438.35
6440.26
6441.51
6444.04
6445.43
6448.54
6450.19
6454.18
6456.01
6462.77
6463.34
6508.69
6699.71
89429.1
8224.55
7643.75
7300.42
7088.04
6946.14
6845.6
6770.7
6713.32
6667.92
6631.57
6601.68
6577.07
6556.27
6538.82
6523.74
6510.93
6499.65
6489.99
6481.33
6473.89
6467.12
6461.26
6455.87
6451.3
6446.94
6443.17
6439.63
6436.68
6433.75
6431.26
6428.87
6426.87
6424.9
6423.35
6421.64
6420.26
6418.89
6417.92
6416.67
6415.74
6414.85
6414.25
6413.02
6412.54
6412.23
6412.01
6411.73
6411.47
6410.94
6410.64
6409.89
6410.65
6410.66
6410.66
6410.56
6411.38
6412.13
6412.14
6412.13
6412.12
6413.06
6413.4
6413.4
6414
6415.43
6415.43
6415.43
6416.38
6416.38
6417.45
6418.47
6419.84
6420.68
6422.58
6422.58
6423.68
6425.01
6426.22
6427.4
6429.27
6430.26
6432.03
6433.28
6435.19
6436.44
6438.97
6440.36
6443.46
6445.11
6449.09
6450.92
6457.68
6458.21
6504.38
6695.19
85772.2
8224.63
7643.04
7298.77
7085.63
6943.15
6842.17
6766.92
6709.28
6663.65
6627.12
6597.08
6572.34
6551.43
6533.89
6518.73
6505.84
6494.5
6484.78
6476.08
6468.6
6461.78
6455.88
6450.47
6445.87
6441.48
6437.69
6434.12
6431.15
6428.2
6425.7
6423.29
6421.28
6419.29
6417.73
6416.01
6414.62
6413.24
6412.26
6411.01
6410.06
6409.16
6408.56
6407.33
6406.83
6406.51
6406.29
6406
6405.74
6405.21
6404.91
6404.15
6404.9
6404.91
6404.91
6404.81
6405.62
6406.36
6406.36
6406.36
6406.34
6407.29
6407.62
6407.62
6408.22
6409.64
6409.64
6409.64
6410.59
6410.59
6411.67
6412.67
6414.05
6414.88
6416.78
6416.78
6417.88
6419.21
6420.42
6421.59
6423.47
6424.45
6426.22
6427.47
6429.38
6430.63
6433.16
6434.55
6437.64
6439.29
6443.27
6445.09
6451.84
6452.34
6499.45
6689.95
82182.6
8224.73
7642.24
7296.92
7082.91
6939.78
6838.3
6762.67
6704.71
6658.83
6622.1
6591.88
6567
6545.97
6528.32
6513.07
6500.1
6488.69
6478.91
6470.15
6462.61
6455.75
6449.82
6444.36
6439.73
6435.32
6431.49
6427.9
6424.91
6421.94
6419.42
6416.99
6414.96
6412.96
6411.38
6409.66
6408.25
6406.86
6405.87
6404.61
6403.65
6402.74
6402.13
6400.9
6400.39
6400.06
6399.84
6399.54
6399.28
6398.74
6398.44
6397.67
6398.41
6398.41
6398.41
6398.3
6399.11
6399.85
6399.85
6399.85
6399.82
6400.76
6401.09
6401.09
6401.69
6403.11
6403.11
6403.11
6404.05
6404.05
6405.13
6406.13
6407.5
6408.32
6410.22
6410.23
6411.33
6412.65
6413.87
6415.03
6416.91
6417.89
6419.66
6420.91
6422.83
6424.07
6426.59
6427.98
6431.07
6432.72
6436.69
6438.5
6445.25
6445.7
6493.9
6683.99
78654.5
8224.84
7641.36
7294.87
7079.9
6936.03
6834
6757.93
6699.62
6653.46
6616.5
6586.09
6561.05
6539.87
6522.1
6506.75
6493.69
6482.2
6472.35
6463.52
6455.94
6449.03
6443.05
6437.55
6432.88
6428.43
6424.58
6420.96
6417.94
6414.95
6412.41
6409.96
6407.91
6405.89
6404.3
6402.56
6401.14
6399.73
6398.73
6397.46
6396.5
6395.57
6394.96
6393.72
6393.2
6392.86
6392.63
6392.32
6392.06
6391.52
6391.21
6390.43
6391.15
6391.16
6391.15
6391.04
6391.84
6392.57
6392.57
6392.57
6392.54
6393.48
6393.8
6393.8
6394.39
6395.81
6395.81
6395.81
6396.75
6396.75
6397.83
6398.81
6400.19
6401
6402.91
6402.91
6404.01
6405.33
6406.55
6407.71
6409.58
6410.57
6412.34
6413.58
6415.5
6416.74
6419.26
6420.64
6423.73
6425.37
6429.34
6431.15
6437.88
6438.29
6487.7
6677.27
75179.5
8224.97
7640.4
7292.61
7076.58
6931.9
6829.25
6752.69
6694.01
6647.54
6610.31
6579.69
6554.47
6533.14
6515.24
6499.76
6486.61
6475.02
6465.1
6456.2
6448.55
6441.59
6435.56
6430.02
6425.3
6420.82
6416.93
6413.28
6410.23
6407.22
6404.65
6402.18
6400.11
6398.07
6396.46
6394.7
6393.27
6391.85
6390.84
6389.55
6388.58
6387.64
6387.02
6385.77
6385.24
6384.89
6384.65
6384.34
6384.07
6383.52
6383.21
6382.42
6383.13
6383.13
6383.13
6383
6383.8
6384.51
6384.51
6384.51
6384.49
6385.42
6385.73
6385.73
6386.32
6387.73
6387.73
6387.73
6388.67
6388.67
6389.75
6390.72
6392.11
6392.9
6394.81
6394.81
6395.91
6397.23
6398.45
6399.61
6401.47
6402.46
6404.23
6405.47
6407.39
6408.63
6411.15
6412.53
6415.61
6417.25
6421.21
6423.01
6429.73
6430.09
6480.85
6669.81
71764.1
8225.11
7639.36
7290.16
7072.95
6927.38
6824.05
6746.96
6687.85
6641.04
6603.53
6572.68
6547.25
6525.75
6507.7
6492.1
6478.84
6467.16
6457.14
6448.17
6440.45
6433.43
6427.34
6421.75
6416.99
6412.46
6408.54
6404.86
6401.78
6398.73
6396.14
6393.64
6391.55
6389.49
6387.86
6386.08
6384.63
6383.19
6382.17
6380.87
6379.89
6378.93
6378.3
6377.05
6376.51
6376.14
6375.9
6375.57
6375.3
6374.75
6374.43
6373.63
6374.32
6374.32
6374.31
6374.18
6374.97
6375.67
6375.67
6375.67
6375.64
6376.58
6376.88
6376.88
6377.46
6378.87
6378.87
6378.87
6379.8
6379.8
6380.88
6381.84
6383.23
6384.01
6385.92
6385.92
6387.03
6388.34
6389.56
6390.71
6392.57
6393.57
6395.33
6396.57
6398.5
6399.72
6402.24
6403.62
6406.69
6408.33
6412.28
6414.07
6420.78
6421.09
6473.35
6661.57
68414.3
8225.26
7638.24
7287.5
7069.02
6922.48
6818.4
6740.73
6681.16
6633.97
6596.15
6565.04
6539.4
6517.71
6499.5
6483.76
6470.37
6458.58
6448.47
6439.42
6431.62
6424.53
6418.38
6412.74
6407.93
6403.36
6399.39
6395.67
6392.55
6389.48
6386.86
6384.33
6382.22
6380.13
6378.48
6376.69
6375.22
6373.76
6372.72
6371.41
6370.41
6369.44
6368.8
6367.54
6366.98
6366.61
6366.35
6366.01
6365.74
6365.18
6364.86
6364.04
6364.71
6364.71
6364.71
6364.56
6365.34
6366.03
6366.04
6366.03
6366
6366.93
6367.23
6367.22
6367.8
6369.2
6369.2
6369.2
6370.13
6370.13
6371.21
6372.16
6373.54
6374.31
6376.22
6376.23
6377.33
6378.64
6379.87
6381.01
6382.87
6383.86
6385.63
6386.86
6388.79
6390.01
6392.52
6393.9
6396.97
6398.6
6402.54
6404.32
6411.02
6411.28
6465.17
6652.57
65135.7
8225.43
7637.04
7284.64
7064.79
6917.18
6812.29
6734
6673.92
6626.32
6588.17
6556.77
6530.89
6509
6490.61
6474.72
6461.2
6449.29
6439.08
6429.93
6422.06
6414.89
6408.68
6402.97
6398.11
6393.49
6389.48
6385.71
6382.56
6379.45
6376.8
6374.24
6372.1
6369.98
6368.31
6366.5
6365.01
6363.53
6362.48
6361.15
6360.14
6359.15
6358.5
6357.23
6356.66
6356.27
6356
6355.65
6355.37
6354.81
6354.48
6353.65
6354.29
6354.3
6354.29
6354.13
6354.91
6355.58
6355.58
6355.58
6355.55
6356.47
6356.75
6356.75
6357.32
6358.72
6358.72
6358.72
6359.64
6359.64
6360.72
6361.65
6363.04
6363.8
6365.71
6365.71
6366.82
6368.12
6369.36
6370.48
6372.34
6373.34
6375.1
6376.33
6378.26
6379.48
6381.99
6383.36
6386.42
6388.05
6391.98
6393.74
6400.44
6400.63
6456.32
6642.76
61933.6
8225.61
7635.76
7281.58
7060.24
6911.5
6805.73
6726.75
6666.13
6618.08
6579.56
6547.86
6521.72
6499.61
6481.03
6464.98
6451.31
6439.28
6428.95
6419.7
6411.74
6404.49
6398.21
6392.43
6387.51
6382.84
6378.78
6374.97
6371.78
6368.63
6365.94
6363.36
6361.19
6359.04
6357.35
6355.51
6354
6352.5
6351.42
6350.08
6349.05
6348.05
6347.39
6346.11
6345.52
6345.11
6344.83
6344.47
6344.18
6343.61
6343.28
6342.43
6343.06
6343.06
6343.05
6342.87
6343.65
6344.3
6344.31
6344.3
6344.26
6345.18
6345.46
6345.46
6346.02
6347.41
6347.41
6347.41
6348.33
6348.33
6349.4
6350.32
6351.71
6352.45
6354.36
6354.37
6355.48
6356.77
6358.01
6359.13
6360.98
6361.98
6363.74
6364.97
6366.9
6368.11
6370.62
6371.99
6375.04
6376.66
6380.58
6382.33
6389.01
6389.15
6446.76
6632.16
58812.8
8225.81
7634.41
7278.33
7055.39
6905.42
6798.71
6718.99
6657.78
6609.25
6570.34
6538.3
6511.89
6489.54
6470.76
6454.52
6440.7
6428.53
6418.08
6408.73
6400.67
6393.33
6386.97
6381.12
6376.14
6371.41
6367.3
6363.44
6360.2
6357.01
6354.29
6351.67
6349.47
6347.29
6345.57
6343.7
6342.17
6340.65
6339.55
6338.19
6337.15
6336.12
6335.45
6334.16
6333.55
6333.12
6332.83
6332.46
6332.17
6331.59
6331.25
6330.39
6330.99
6330.99
6330.98
6330.78
6331.55
6332.19
6332.19
6332.19
6332.14
6333.06
6333.32
6333.32
6333.87
6335.25
6335.26
6335.26
6336.17
6336.17
6337.24
6338.14
6339.54
6340.26
6342.17
6342.18
6343.29
6344.57
6345.83
6346.93
6348.78
6349.78
6351.54
6352.76
6354.7
6355.9
6358.4
6359.76
6362.8
6364.42
6368.34
6370.07
6376.73
6376.81
6436.5
6620.74
55777.8
8226.03
7633
7274.88
7050.24
6898.95
6791.23
6710.71
6648.87
6599.83
6560.49
6528.1
6501.38
6478.77
6459.77
6443.34
6429.35
6417.03
6406.46
6396.99
6388.82
6381.39
6374.95
6369.03
6363.98
6359.18
6355.02
6351.1
6347.82
6344.58
6341.82
6339.16
6336.93
6334.72
6332.96
6331.07
6329.52
6327.97
6326.85
6325.47
6324.41
6323.36
6322.68
6321.38
6320.75
6320.3
6320
6319.61
6319.31
6318.72
6318.38
6317.5
6318.07
6318.07
6318.06
6317.85
6318.6
6319.22
6319.23
6319.22
6319.17
6320.08
6320.33
6320.33
6320.88
6322.25
6322.25
6322.25
6323.16
6323.16
6324.23
6325.11
6326.51
6327.21
6329.13
6329.14
6330.24
6331.52
6332.78
6333.87
6335.72
6336.72
6338.48
6339.7
6341.63
6342.83
6345.32
6346.68
6349.71
6351.33
6355.23
6356.95
6363.59
6363.61
6425.52
6608.48
52832.7
8226.26
7631.51
7271.25
7044.79
6892.09
6783.28
6701.92
6639.39
6589.8
6550.01
6517.24
6490.2
6467.31
6448.07
6431.44
6417.27
6404.79
6394.08
6384.48
6376.2
6368.67
6362.14
6356.13
6351.01
6346.15
6341.92
6337.95
6334.62
6331.34
6328.53
6325.83
6323.56
6321.31
6319.53
6317.61
6316.03
6314.45
6313.31
6311.9
6310.82
6309.75
6309.06
6307.74
6307.1
6306.63
6306.31
6305.91
6305.6
6305
6304.65
6303.76
6304.3
6304.3
6304.28
6304.05
6304.8
6305.4
6305.4
6305.4
6305.34
6306.25
6306.48
6306.48
6307.02
6308.38
6308.38
6308.38
6309.28
6309.28
6310.35
6311.21
6312.61
6313.3
6315.21
6315.23
6316.33
6317.6
6318.87
6319.94
6321.79
6322.79
6324.54
6325.76
6327.7
6328.89
6331.37
6332.73
6335.75
6337.35
6341.25
6342.95
6349.57
6349.53
6413.79
6595.37
49981.3
8226.51
7629.96
7267.42
7039.03
6884.83
6774.87
6692.6
6629.35
6579.17
6538.89
6505.71
6478.32
6455.14
6435.65
6418.79
6404.43
6391.78
6380.92
6371.19
6362.8
6355.16
6348.53
6342.44
6337.23
6332.3
6328.01
6323.98
6320.59
6317.25
6314.4
6311.66
6309.35
6307.06
6305.25
6303.29
6301.69
6300.08
6298.91
6297.49
6296.38
6295.29
6294.58
6293.25
6292.58
6292.09
6291.75
6291.34
6291.02
6290.41
6290.05
6289.14
6289.65
6289.65
6289.63
6289.38
6290.12
6290.7
6290.7
6290.7
6290.63
6291.53
6291.76
6291.76
6292.28
6293.63
6293.64
6293.63
6294.52
6294.52
6295.6
6296.44
6297.84
6298.5
6300.41
6300.43
6301.54
6302.79
6304.07
6305.13
6306.97
6307.97
6309.73
6310.94
6312.88
6314.06
6316.54
6317.89
6320.9
6322.5
6326.38
6328.07
6334.66
6334.55
6401.31
6581.39
47227
8226.79
7628.34
7263.41
7032.98
6877.19
6766
6682.76
6618.74
6567.93
6527.13
6493.51
6465.76
6442.27
6422.5
6405.41
6390.84
6378.01
6366.99
6357.11
6348.59
6340.84
6334.11
6327.92
6322.63
6317.62
6313.27
6309.17
6305.72
6302.33
6299.43
6296.64
6294.29
6291.96
6290.11
6288.12
6286.49
6284.85
6283.65
6282.2
6281.08
6279.96
6279.23
6277.89
6277.2
6276.68
6276.33
6275.89
6275.57
6274.95
6274.58
6273.65
6274.13
6274.13
6274.1
6273.83
6274.56
6275.11
6275.12
6275.12
6275.04
6275.93
6276.14
6276.14
6276.65
6277.99
6278
6278
6278.88
6278.88
6279.95
6280.77
6282.17
6282.82
6284.72
6284.75
6285.85
6287.1
6288.38
6289.43
6291.26
6292.27
6294.02
6295.22
6297.16
6298.34
6300.81
6302.15
6305.15
6306.74
6310.61
6312.28
6318.85
6318.68
6388.05
6566.52
44572.9
8227.08
7626.67
7259.22
7026.63
6869.16
6756.66
6672.4
6607.56
6556.08
6514.73
6480.64
6452.5
6428.67
6408.62
6391.27
6376.49
6363.46
6352.27
6342.24
6333.59
6325.71
6318.87
6312.58
6307.2
6302.11
6297.68
6293.51
6290
6286.56
6283.61
6280.76
6278.37
6276
6274.11
6272.09
6270.42
6268.74
6267.52
6266.04
6264.9
6263.75
6263
6261.64
6260.93
6260.39
6260.02
6259.56
6259.23
6258.6
6258.22
6257.28
6257.72
6257.72
6257.68
6257.39
6258.11
6258.64
6258.64
6258.64
6258.55
6259.44
6259.63
6259.63
6260.13
6261.46
6261.47
6261.46
6262.33
6262.33
6263.41
6264.2
6265.61
6266.23
6268.13
6268.16
6269.26
6270.5
6271.79
6272.82
6274.65
6275.65
6277.4
6278.6
6280.54
6281.71
6284.17
6285.51
6288.49
6290.08
6293.93
6295.58
6302.13
6301.89
6373.99
6550.73
42021.5
8227.39
7624.94
7254.85
7019.98
6860.74
6746.86
6661.51
6595.8
6543.61
6501.67
6467.1
6438.54
6414.35
6394
6376.38
6361.37
6348.13
6336.76
6326.57
6317.77
6309.76
6302.81
6296.41
6290.94
6285.76
6281.25
6277.01
6273.43
6269.93
6266.92
6264.02
6261.58
6259.16
6257.23
6255.17
6253.47
6251.76
6250.51
6249
6247.83
6246.65
6245.88
6244.51
6243.77
6243.2
6242.81
6242.34
6242
6241.35
6240.96
6240
6240.4
6240.4
6240.36
6240.05
6240.75
6241.25
6241.26
6241.25
6241.16
6242.03
6242.22
6242.21
6242.7
6244.01
6244.02
6244.02
6244.88
6244.88
6245.95
6246.71
6248.12
6248.72
6250.62
6250.66
6251.76
6252.98
6254.28
6255.3
6257.12
6258.12
6259.87
6261.06
6263
6264.16
6266.61
6267.95
6270.91
6272.49
6276.33
6277.96
6284.49
6284.17
6359.12
6534
39575.4
8227.72
7623.16
7250.31
7013.06
6851.93
6736.6
6650.1
6583.47
6530.53
6487.97
6452.87
6423.88
6399.31
6378.63
6360.73
6345.47
6332.02
6320.45
6310.08
6301.14
6292.99
6285.91
6279.4
6273.83
6268.56
6263.97
6259.64
6256
6252.42
6249.36
6246.4
6243.91
6241.45
6239.47
6237.37
6235.63
6233.88
6232.6
6231.06
6229.87
6228.65
6227.87
6226.48
6225.71
6225.11
6224.7
6224.21
6223.85
6223.19
6222.8
6221.82
6222.18
6222.18
6222.13
6221.79
6222.48
6222.95
6222.96
6222.95
6222.85
6223.71
6223.88
6223.88
6224.35
6225.65
6225.65
6225.65
6226.5
6226.5
6227.57
6228.31
6229.72
6230.3
6232.18
6232.23
6233.33
6234.54
6235.84
6236.85
6238.66
6239.66
6241.4
6242.59
6244.53
6245.68
6248.12
6249.45
6252.41
6253.97
6257.8
6259.41
6265.92
6265.52
6343.4
6516.3
37236.3
8228.07
7621.34
7245.61
7005.85
6842.75
6725.88
6638.17
6570.56
6516.83
6473.61
6437.97
6408.5
6383.54
6362.51
6344.31
6328.79
6315.1
6303.34
6292.79
6283.68
6275.38
6268.18
6261.55
6255.87
6250.49
6245.82
6241.41
6237.69
6234.05
6230.92
6227.9
6225.36
6222.84
6220.82
6218.68
6216.9
6215.11
6213.79
6212.22
6211
6209.75
6208.94
6207.53
6206.74
6206.11
6205.68
6205.16
6204.79
6204.12
6203.71
6202.72
6203.04
6203.04
6202.98
6202.61
6203.29
6203.73
6203.73
6203.73
6203.61
6204.47
6204.62
6204.61
6205.07
6206.35
6206.35
6206.35
6207.19
6207.19
6208.26
6208.97
6210.38
6210.94
6212.82
6212.87
6213.97
6215.16
6216.47
6217.46
6219.26
6220.26
6222
6223.18
6225.12
6226.27
6228.69
6230.02
6232.95
6234.51
6238.32
6239.91
6246.4
6245.93
6326.83
6497.6
35006
8228.45
7619.47
7240.74
6998.36
6833.19
6714.7
6625.71
6557.08
6502.51
6458.6
6422.37
6392.42
6367.03
6345.64
6327.12
6311.32
6297.39
6285.41
6274.67
6265.39
6256.94
6249.6
6242.84
6237.04
6231.57
6226.8
6222.3
6218.5
6214.79
6211.6
6208.51
6205.91
6203.34
6201.27
6199.08
6197.26
6195.43
6194.07
6192.47
6191.22
6189.94
6189.1
6187.67
6186.85
6186.19
6185.73
6185.19
6184.81
6184.12
6183.7
6182.69
6182.97
6182.97
6182.89
6182.49
6183.16
6183.58
6183.57
6183.57
6183.44
6184.28
6184.42
6184.41
6184.85
6186.11
6186.12
6186.12
6186.94
6186.94
6188.01
6188.68
6190.1
6190.63
6192.5
6192.56
6193.66
6194.84
6196.16
6197.13
6198.92
6199.92
6201.65
6202.82
6204.76
6205.9
6208.31
6209.63
6212.55
6214.1
6217.89
6219.46
6225.93
6225.38
6309.36
6477.86
32885.9
8228.84
7617.56
7235.72
6990.6
6823.26
6703.07
6612.74
6543.03
6487.58
6442.94
6406.09
6375.62
6349.78
6328.01
6309.16
6293.07
6278.88
6266.67
6255.72
6246.26
6237.65
6230.16
6223.27
6217.35
6211.77
6206.9
6202.31
6198.42
6194.63
6191.37
6188.22
6185.56
6182.93
6180.81
6178.57
6176.71
6174.83
6173.44
6171.8
6170.51
6169.19
6168.33
6166.89
6166.03
6165.33
6164.86
6164.29
6163.89
6163.18
6162.76
6161.73
6161.97
6161.96
6161.87
6161.44
6162.09
6162.48
6162.47
6162.47
6162.32
6163.15
6163.27
6163.27
6163.68
6164.93
6164.93
6164.93
6165.74
6165.75
6166.81
6167.45
6168.86
6169.37
6171.23
6171.3
6172.4
6173.56
6174.88
6175.84
6177.62
6178.62
6180.35
6181.5
6183.45
6184.57
6186.97
6188.28
6191.19
6192.73
6196.5
6198.04
6204.49
6203.86
6290.99
6457.03
30876.9
8229.26
7615.62
7230.56
6982.58
6812.97
6691
6599.26
6528.41
6472.02
6426.62
6389.13
6358.1
6331.8
6309.62
6290.42
6274.02
6259.56
6247.11
6235.95
6226.3
6217.51
6209.87
6202.83
6196.79
6191.09
6186.12
6181.43
6177.46
6173.58
6170.25
6167.03
6164.31
6161.61
6159.43
6157.14
6155.24
6153.31
6151.88
6150.2
6148.88
6147.52
6146.63
6145.17
6144.28
6143.54
6143.04
6142.44
6142.03
6141.3
6140.87
6139.82
6140.02
6140
6139.9
6139.44
6140.07
6140.43
6140.42
6140.42
6140.25
6141.06
6141.17
6141.17
6141.56
6142.79
6142.79
6142.79
6143.58
6143.59
6144.65
6145.26
6146.67
6147.15
6149
6149.07
6150.17
6151.31
6152.65
6153.59
6155.35
6156.35
6158.07
6159.22
6161.16
6162.28
6164.66
6165.97
6168.85
6170.38
6174.13
6175.65
6182.08
6181.37
6271.67
6435.11
28980.1
8229.7
7613.65
7225.25
6974.31
6802.32
6678.48
6585.26
6513.22
6455.86
6409.64
6371.47
6339.88
6313.08
6290.48
6270.9
6254.18
6239.43
6226.73
6215.34
6205.49
6196.52
6188.72
6181.53
6175.35
6169.53
6164.45
6159.66
6155.59
6151.63
6148.22
6144.92
6142.14
6139.37
6137.14
6134.79
6132.84
6130.86
6129.38
6127.67
6126.32
6124.92
6124
6122.5
6121.58
6120.81
6120.28
6119.65
6119.23
6118.48
6118.03
6116.97
6117.12
6117.09
6116.97
6116.48
6117.09
6117.42
6117.41
6117.4
6117.22
6118.02
6118.11
6118.1
6118.47
6119.68
6119.68
6119.69
6120.46
6120.47
6121.53
6122.09
6123.51
6123.97
6125.8
6125.88
6126.98
6128.1
6129.44
6130.36
6132.11
6133.1
6134.82
6135.96
6137.9
6139.01
6141.38
6142.67
6145.54
6147.05
6150.78
6152.28
6158.68
6157.9
6251.34
6412.05
27196
8230.16
7611.66
7219.82
6965.78
6791.32
6665.53
6570.76
6497.47
6439.08
6392.02
6353.14
6320.93
6293.61
6270.57
6250.6
6233.54
6218.48
6205.52
6193.89
6183.83
6174.67
6166.7
6159.35
6153.04
6147.08
6141.89
6136.99
6132.82
6128.77
6125.28
6121.9
6119.04
6116.21
6113.92
6111.51
6109.51
6107.48
6105.96
6104.2
6102.81
6101.36
6100.41
6098.89
6097.94
6097.13
6096.57
6095.91
6095.47
6094.69
6094.24
6093.16
6093.26
6093.22
6093.08
6092.57
6093.15
6093.44
6093.44
6093.43
6093.23
6094
6094.07
6094.08
6094.42
6095.6
6095.6
6095.61
6096.36
6096.37
6097.43
6097.95
6099.36
6099.8
6101.62
6101.7
6102.8
6103.9
6105.25
6106.15
6107.89
6108.88
6110.59
6111.71
6113.65
6114.75
6117.11
6118.39
6121.24
6122.74
6126.45
6127.91
6134.3
6133.44
6229.95
6387.85
25525.3
8230.65
7609.64
7214.26
6957.02
6779.97
6652.15
6555.75
6481.16
6421.7
6373.75
6334.11
6301.28
6273.41
6249.9
6229.52
6212.1
6196.73
6183.48
6171.6
6161.32
6151.96
6143.81
6136.3
6129.83
6123.74
6118.43
6113.41
6109.14
6104.99
6101.42
6097.96
6095.03
6092.12
6089.76
6087.3
6085.25
6083.16
6081.58
6079.78
6078.35
6076.86
6075.88
6074.33
6073.34
6072.49
6071.9
6071.21
6070.74
6069.95
6069.48
6068.39
6068.44
6068.39
6068.23
6067.68
6068.24
6068.49
6068.49
6068.48
6068.26
6069.01
6069.07
6069.07
6069.39
6070.54
6070.54
6070.55
6071.29
6071.3
6072.34
6072.83
6074.24
6074.65
6076.45
6076.54
6077.64
6078.72
6080.07
6080.96
6082.68
6083.66
6085.37
6086.48
6088.41
6089.5
6091.84
6093.12
6095.94
6097.43
6101.11
6102.56
6108.91
6107.98
6207.45
6362.46
23968.4
8231.15
7607.62
7208.58
6948.02
6768.29
6638.35
6540.26
6464.29
6403.71
6354.83
6314.41
6280.91
6252.47
6228.46
6207.65
6189.86
6174.16
6160.62
6148.48
6137.96
6128.39
6120.05
6112.36
6105.74
6099.51
6094.07
6088.93
6084.55
6080.3
6076.64
6073.09
6070.08
6067.1
6064.67
6062.15
6060.04
6057.89
6056.27
6054.42
6052.95
6051.41
6050.39
6048.81
6047.78
6046.88
6046.27
6045.54
6045.05
6044.24
6043.75
6042.65
6042.66
6042.58
6042.4
6041.82
6042.36
6042.57
6042.57
6042.55
6042.31
6043.04
6043.08
6043.08
6043.37
6044.5
6044.5
6044.5
6045.23
6045.23
6046.27
6046.73
6048.13
6048.51
6050.3
6050.39
6051.49
6052.54
6053.9
6054.77
6056.47
6057.45
6059.15
6060.25
6062.18
6063.26
6065.57
6066.84
6069.64
6071.12
6074.78
6076.19
6082.52
6081.52
6183.77
6335.87
22522.5
8231.68
7605.58
7202.8
6938.81
6756.29
6624.13
6524.28
6446.88
6385.13
6335.27
6294.03
6259.83
6230.8
6206.27
6185.01
6166.82
6150.77
6136.93
6124.51
6113.75
6103.95
6095.42
6087.55
6080.77
6074.38
6068.81
6063.54
6059.05
6054.69
6050.93
6047.29
6044.2
6041.14
6038.64
6036.05
6033.89
6031.67
6030
6028.1
6026.58
6024.99
6023.93
6022.33
6021.26
6020.32
6019.67
6018.9
6018.39
6017.55
6017.05
6015.94
6015.9
6015.79
6015.59
6014.98
6015.49
6015.67
6015.67
6015.64
6015.37
6016.08
6016.11
6016.11
6016.36
6017.46
6017.47
6017.47
6018.17
6018.18
6019.21
6019.62
6021.02
6021.38
6023.14
6023.24
6024.34
6025.37
6026.73
6027.58
6029.26
6030.23
6031.93
6033.01
6034.94
6036
6038.3
6039.56
6042.34
6043.8
6047.43
6048.82
6055.12
6054.05
6158.87
6308.05
21182.4
8232.24
7603.55
7196.92
6929.39
6743.98
6609.52
6507.82
6428.93
6365.95
6315.07
6272.98
6238.05
6208.39
6183.32
6161.59
6142.99
6126.57
6112.41
6099.7
6088.68
6078.65
6069.91
6061.85
6054.9
6048.36
6042.64
6037.24
6032.63
6028.16
6024.3
6020.57
6017.39
6014.25
6011.67
6009.01
6006.78
6004.51
6002.77
6000.82
5999.26
5997.62
5996.52
5994.88
5993.77
5992.78
5992.09
5991.29
5990.76
5989.89
5989.37
5988.25
5988.16
5988.02
5987.8
5987.16
5987.63
5987.78
5987.78
5987.75
5987.45
5988.13
5988.15
5988.15
5988.37
5989.44
5989.45
5989.44
5990.13
5990.13
5991.15
5991.52
5992.91
5993.25
5994.99
5995.09
5996.19
5997.19
5998.56
5999.38
6001.05
6002.01
6003.7
6004.77
6006.69
6007.74
6010.02
6011.27
6014.02
6015.46
6019.07
6020.43
6026.7
6025.56
6132.67
6278.97
19943.1
8232.81
7601.52
7190.96
6919.77
6731.36
6594.51
6490.89
6410.46
6346.2
6294.25
6251.26
6215.57
6185.25
6159.62
6137.39
6118.36
6101.56
6087.06
6074.05
6062.76
6052.49
6043.53
6035.27
6028.14
6021.43
6015.57
6010.03
6005.3
6000.71
5996.75
5992.91
5989.65
5986.41
5983.76
5981.02
5978.73
5976.39
5974.59
5972.59
5970.98
5969.28
5968.14
5966.47
5965.31
5964.27
5963.55
5962.71
5962.15
5961.25
5960.72
5959.58
5959.44
5959.26
5959.03
5958.36
5958.79
5958.9
5958.91
5958.86
5958.54
5959.18
5959.19
5959.19
5959.38
5960.41
5960.43
5960.42
5961.08
5961.08
5962.09
5962.42
5963.8
5964.11
5965.83
5965.94
5967.03
5968.01
5969.38
5970.18
5971.82
5972.78
5974.46
5975.51
5977.42
5978.47
5980.72
5981.96
5984.68
5986.11
5989.69
5991.02
5997.26
5996.06
6105.13
6248.6
18799.2
8233.41
7599.49
7184.92
6909.97
6718.46
6579.12
6473.51
6391.46
6325.86
6272.81
6228.88
6192.4
6161.39
6135.17
6112.43
6092.95
6075.74
6060.89
6047.56
6035.99
6025.47
6016.28
6007.81
6000.49
5993.61
5987.6
5981.91
5977.05
5972.34
5968.27
5964.32
5960.96
5957.64
5954.9
5952.09
5949.73
5947.31
5945.46
5943.39
5941.73
5939.98
5938.79
5937.08
5935.88
5934.79
5934.03
5933.14
5932.56
5931.63
5931.08
5929.93
5929.73
5929.52
5929.27
5928.57
5928.96
5929.04
5929.04
5928.98
5928.63
5929.24
5929.24
5929.24
5929.38
5930.39
5930.4
5930.39
5931.03
5931.03
5932.03
5932.32
5933.68
5933.97
5935.66
5935.77
5936.87
5937.81
5939.18
5939.96
5941.59
5942.53
5944.2
5945.24
5947.14
5948.17
5950.41
5951.63
5954.33
5955.74
5959.28
5960.59
5966.79
5965.53
6076.18
6216.9
17745.3
8234.03
7597.48
7178.82
6899.99
6705.28
6563.37
6455.69
6371.95
6304.96
6250.76
6205.85
6168.54
6136.82
6109.98
6086.7
6066.74
6049.12
6033.9
6020.24
6008.38
5997.58
5988.16
5979.48
5971.96
5964.9
5958.72
5952.88
5947.88
5943.04
5938.86
5934.8
5931.34
5927.92
5925.1
5922.2
5919.77
5917.28
5915.36
5913.24
5911.53
5909.71
5908.47
5906.73
5905.48
5904.34
5903.53
5902.6
5901.98
5901.02
5900.45
5899.29
5899.04
5898.79
5898.53
5897.79
5898.13
5898.18
5898.18
5898.11
5897.73
5898.3
5898.3
5898.3
5898.39
5899.36
5899.37
5899.36
5899.98
5899.97
5900.96
5901.21
5902.56
5902.82
5904.48
5904.6
5905.69
5906.61
5907.97
5908.73
5910.33
5911.27
5912.93
5913.95
5915.84
5916.86
5919.07
5920.28
5922.95
5924.34
5927.85
5929.13
5935.29
5933.98
6045.77
6183.87
16775.5
8234.67
7595.5
7172.66
6889.86
6691.84
6547.26
6437.43
6351.94
6283.51
6228.1
6182.17
6144
6111.53
6084.06
6060.2
6039.76
6021.7
6006.1
5992.09
5979.92
5968.85
5959.18
5950.26
5942.54
5935.29
5928.95
5922.95
5917.8
5912.83
5908.52
5904.35
5900.79
5897.26
5894.36
5891.37
5888.87
5886.3
5884.31
5882.12
5880.35
5878.47
5877.18
5875.4
5874.11
5872.91
5872.06
5871.08
5870.43
5869.44
5868.85
5867.66
5867.36
5867.07
5866.79
5866.03
5866.32
5866.34
5866.33
5866.24