/*--------------------------------*- C++ -*----------------------------------*\
| =========                 |                                                 |
| \\      /  F ield         | OpenFOAM: The Open Source CFD Toolbox           |
|  \\    /   O peration     | Version:  v2012                                 |
|   \\  /    A nd           | Website:  www.openfoam.com                      |
|    \\/     M anipulation  |                                                 |
\*---------------------------------------------------------------------------*/
FoamFile
{
    version     2.0;
    format      ascii;
    class       volVectorField;
    location    "15";
    object      wallShearStress;
}
// * * * * * * * * * * * * * * * * * * * * * * * * * * * * * * * * * * * * * //

dimensions      [0 2 -2 0 0 0 0];


internalField   uniform (0 0 0);

boundaryField
{
    inlet
    {
        type            calculated;
        value           uniform (0 0 0);
    }
    outlet
    {
        type            calculated;
        value           uniform (0 0 0);
    }
    topWall
    {
        type            calculated;
        value           nonuniform List<vector> 
545
(
(3.06076e-08 -2.15492e-08 0)
(3.05776e-08 -6.03171e-08 0)
(3.05116e-08 -1.00499e-07 0)
(3.04853e-08 -1.39523e-07 0)
(3.04405e-08 -1.76872e-07 0)
(3.03867e-08 -2.13014e-07 0)
(3.03282e-08 -2.48263e-07 0)
(3.02632e-08 -2.82603e-07 0)
(3.0192e-08 -3.15957e-07 0)
(3.01151e-08 -3.48324e-07 0)
(3.00331e-08 -3.79745e-07 0)
(2.99466e-08 -4.10257e-07 0)
(2.9856e-08 -4.3988e-07 0)
(2.97616e-08 -4.68633e-07 0)
(2.9664e-08 -4.96535e-07 0)
(2.95634e-08 -5.23611e-07 0)
(2.94603e-08 -5.49882e-07 0)
(2.9355e-08 -5.7537e-07 0)
(2.92478e-08 -6.00097e-07 0)
(2.9139e-08 -6.24082e-07 0)
(2.90289e-08 -6.47347e-07 0)
(2.89177e-08 -6.69913e-07 0)
(2.88057e-08 -6.91799e-07 0)
(2.86931e-08 -7.13024e-07 0)
(2.85801e-08 -7.33609e-07 0)
(2.84668e-08 -7.53572e-07 0)
(2.83535e-08 -7.72931e-07 0)
(2.82403e-08 -7.91704e-07 0)
(2.81274e-08 -8.0991e-07 0)
(2.80149e-08 -8.27564e-07 0)
(2.79029e-08 -8.44684e-07 0)
(2.77915e-08 -8.61286e-07 0)
(2.76808e-08 -8.77386e-07 0)
(2.7571e-08 -8.92999e-07 0)
(2.7462e-08 -9.0814e-07 0)
(2.7354e-08 -9.22824e-07 0)
(2.72471e-08 -9.37064e-07 0)
(2.71413e-08 -9.50875e-07 0)
(2.70366e-08 -9.6427e-07 0)
(2.69331e-08 -9.77261e-07 0)
(2.68309e-08 -9.89861e-07 0)
(2.67299e-08 -1.00208e-06 0)
(2.66303e-08 -1.01394e-06 0)
(2.65319e-08 -1.02544e-06 0)
(2.64349e-08 -1.03659e-06 0)
(2.63393e-08 -1.04741e-06 0)
(2.6245e-08 -1.05791e-06 0)
(2.61522e-08 -1.0681e-06 0)
(2.60607e-08 -1.07798e-06 0)
(2.59706e-08 -1.08757e-06 0)
(2.58819e-08 -1.09687e-06 0)
(2.57946e-08 -1.10589e-06 0)
(2.57086e-08 -1.11465e-06 0)
(2.56241e-08 -1.12315e-06 0)
(2.55409e-08 -1.1314e-06 0)
(2.5459e-08 -1.13941e-06 0)
(2.53785e-08 -1.14718e-06 0)
(2.52993e-08 -1.15472e-06 0)
(2.52214e-08 -1.16204e-06 0)
(2.51448e-08 -1.16914e-06 0)
(2.50694e-08 -1.17604e-06 0)
(2.49953e-08 -1.18273e-06 0)
(2.49224e-08 -1.18923e-06 0)
(2.48507e-08 -1.19554e-06 0)
(2.47802e-08 -1.20166e-06 0)
(2.47109e-08 -1.20761e-06 0)
(2.46427e-08 -1.21338e-06 0)
(2.45755e-08 -1.21899e-06 0)
(2.45095e-08 -1.22443e-06 0)
(2.44442e-08 -1.22972e-06 0)
(2.43813e-08 -1.23486e-06 0)
(2.4314e-08 -1.23981e-06 0)
(2.42504e-08 -1.2446e-06 0)
(2.41967e-08 -1.24927e-06 0)
(2.41432e-08 -1.25383e-06 0)
(2.40901e-08 -1.25839e-06 0)
(2.4037e-08 -1.26292e-06 0)
(2.3984e-08 -1.26743e-06 0)
(2.3931e-08 -1.27191e-06 0)
(2.38781e-08 -1.27635e-06 0)
(2.38252e-08 -1.28076e-06 0)
(2.37724e-08 -1.28514e-06 0)
(2.37196e-08 -1.28949e-06 0)
(2.36669e-08 -1.29382e-06 0)
(2.36143e-08 -1.29811e-06 0)
(2.35617e-08 -1.30237e-06 0)
(2.35092e-08 -1.30661e-06 0)
(2.34567e-08 -1.31082e-06 0)
(2.34043e-08 -1.31499e-06 0)
(2.33519e-08 -1.31914e-06 0)
(2.32997e-08 -1.32327e-06 0)
(2.32474e-08 -1.32736e-06 0)
(2.31957e-08 -1.33142e-06 0)
(2.31414e-08 -1.33547e-06 0)
(2.30979e-08 -1.33956e-06 0)
(2.30062e-08 -1.34332e-06 0)
(2.29086e-08 -1.34694e-06 0)
(2.28661e-08 -1.35038e-06 0)
(2.2824e-08 -1.35348e-06 0)
(2.27836e-08 -1.35664e-06 0)
(2.27429e-08 -1.35983e-06 0)
(2.27022e-08 -1.36306e-06 0)
(2.26613e-08 -1.36629e-06 0)
(2.26203e-08 -1.3695e-06 0)
(2.2579e-08 -1.37271e-06 0)
(2.25376e-08 -1.37593e-06 0)
(2.24961e-08 -1.37915e-06 0)
(2.24543e-08 -1.38237e-06 0)
(2.24123e-08 -1.38559e-06 0)
(2.23702e-08 -1.38881e-06 0)
(2.23279e-08 -1.39204e-06 0)
(2.22854e-08 -1.39526e-06 0)
(2.22427e-08 -1.39849e-06 0)
(2.21999e-08 -1.40172e-06 0)
(2.21568e-08 -1.40495e-06 0)
(2.21136e-08 -1.40818e-06 0)
(2.20701e-08 -1.41142e-06 0)
(2.20265e-08 -1.41465e-06 0)
(2.19827e-08 -1.41789e-06 0)
(2.19387e-08 -1.42113e-06 0)
(2.18945e-08 -1.42436e-06 0)
(2.18502e-08 -1.4276e-06 0)
(2.18056e-08 -1.43084e-06 0)
(2.17609e-08 -1.43409e-06 0)
(2.17159e-08 -1.43733e-06 0)
(2.16708e-08 -1.44057e-06 0)
(2.16255e-08 -1.44381e-06 0)
(2.158e-08 -1.44706e-06 0)
(2.15343e-08 -1.45031e-06 0)
(2.14884e-08 -1.45355e-06 0)
(2.14423e-08 -1.4568e-06 0)
(2.1396e-08 -1.46005e-06 0)
(2.13496e-08 -1.46329e-06 0)
(2.13029e-08 -1.46654e-06 0)
(2.12561e-08 -1.46979e-06 0)
(2.1209e-08 -1.47304e-06 0)
(2.11618e-08 -1.47629e-06 0)
(2.11143e-08 -1.47954e-06 0)
(2.10667e-08 -1.4828e-06 0)
(2.10189e-08 -1.48605e-06 0)
(2.09709e-08 -1.4893e-06 0)
(2.09227e-08 -1.49255e-06 0)
(2.08743e-08 -1.4958e-06 0)
(2.08257e-08 -1.49905e-06 0)
(2.07769e-08 -1.50231e-06 0)
(2.07279e-08 -1.50556e-06 0)
(2.06787e-08 -1.50881e-06 0)
(2.06293e-08 -1.51206e-06 0)
(2.05797e-08 -1.51531e-06 0)
(2.05299e-08 -1.51857e-06 0)
(2.048e-08 -1.52182e-06 0)
(2.04298e-08 -1.52507e-06 0)
(2.03794e-08 -1.52832e-06 0)
(2.03288e-08 -1.53157e-06 0)
(2.02781e-08 -1.53482e-06 0)
(2.02271e-08 -1.53807e-06 0)
(2.01759e-08 -1.54132e-06 0)
(2.01246e-08 -1.54457e-06 0)
(2.0073e-08 -1.54781e-06 0)
(2.00212e-08 -1.55106e-06 0)
(1.99693e-08 -1.55431e-06 0)
(1.99171e-08 -1.55755e-06 0)
(1.98647e-08 -1.5608e-06 0)
(1.98122e-08 -1.56404e-06 0)
(1.97594e-08 -1.56728e-06 0)
(1.97064e-08 -1.57052e-06 0)
(1.96533e-08 -1.57377e-06 0)
(1.95999e-08 -1.577e-06 0)
(1.95464e-08 -1.58024e-06 0)
(1.94926e-08 -1.58348e-06 0)
(1.94386e-08 -1.58671e-06 0)
(1.93845e-08 -1.58995e-06 0)
(1.93301e-08 -1.59318e-06 0)
(1.92755e-08 -1.59641e-06 0)
(1.92207e-08 -1.59964e-06 0)
(1.91658e-08 -1.60287e-06 0)
(1.91106e-08 -1.6061e-06 0)
(1.90552e-08 -1.60932e-06 0)
(1.89997e-08 -1.61254e-06 0)
(1.89439e-08 -1.61576e-06 0)
(1.88879e-08 -1.61898e-06 0)
(1.88317e-08 -1.6222e-06 0)
(1.87754e-08 -1.62542e-06 0)
(1.87188e-08 -1.62863e-06 0)
(1.8662e-08 -1.63184e-06 0)
(1.8605e-08 -1.63505e-06 0)
(1.85478e-08 -1.63825e-06 0)
(1.84905e-08 -1.64146e-06 0)
(1.84329e-08 -1.64466e-06 0)
(1.83751e-08 -1.64786e-06 0)
(1.83171e-08 -1.65105e-06 0)
(1.82589e-08 -1.65425e-06 0)
(1.82005e-08 -1.65744e-06 0)
(1.8142e-08 -1.66063e-06 0)
(1.80832e-08 -1.66381e-06 0)
(1.80242e-08 -1.667e-06 0)
(1.7965e-08 -1.67018e-06 0)
(1.79056e-08 -1.67335e-06 0)
(1.78461e-08 -1.67653e-06 0)
(1.77863e-08 -1.6797e-06 0)
(1.77263e-08 -1.68286e-06 0)
(1.76661e-08 -1.68603e-06 0)
(1.76058e-08 -1.68919e-06 0)
(1.75452e-08 -1.69235e-06 0)
(1.74844e-08 -1.6955e-06 0)
(1.74234e-08 -1.69865e-06 0)
(1.73623e-08 -1.7018e-06 0)
(1.73009e-08 -1.70494e-06 0)
(1.72394e-08 -1.70808e-06 0)
(1.71776e-08 -1.71121e-06 0)
(1.71157e-08 -1.71435e-06 0)
(1.70535e-08 -1.71747e-06 0)
(1.69912e-08 -1.7206e-06 0)
(1.69287e-08 -1.72372e-06 0)
(1.68659e-08 -1.72683e-06 0)
(1.6803e-08 -1.72994e-06 0)
(1.67399e-08 -1.73305e-06 0)
(1.66766e-08 -1.73615e-06 0)
(1.66131e-08 -1.73925e-06 0)
(1.65494e-08 -1.74234e-06 0)
(1.64856e-08 -1.74543e-06 0)
(1.64215e-08 -1.74851e-06 0)
(1.63572e-08 -1.75159e-06 0)
(1.62928e-08 -1.75467e-06 0)
(1.62281e-08 -1.75773e-06 0)
(1.61633e-08 -1.7608e-06 0)
(1.60983e-08 -1.76386e-06 0)
(1.60331e-08 -1.76691e-06 0)
(1.59677e-08 -1.76996e-06 0)
(1.59021e-08 -1.773e-06 0)
(1.58364e-08 -1.77604e-06 0)
(1.57704e-08 -1.77907e-06 0)
(1.57043e-08 -1.7821e-06 0)
(1.5638e-08 -1.78512e-06 0)
(1.55715e-08 -1.78814e-06 0)
(1.55048e-08 -1.79114e-06 0)
(1.5438e-08 -1.79415e-06 0)
(1.5371e-08 -1.79715e-06 0)
(1.53037e-08 -1.80014e-06 0)
(1.52364e-08 -1.80312e-06 0)
(1.51688e-08 -1.8061e-06 0)
(1.5101e-08 -1.80908e-06 0)
(1.50331e-08 -1.81204e-06 0)
(1.4965e-08 -1.815e-06 0)
(1.48967e-08 -1.81796e-06 0)
(1.48283e-08 -1.8209e-06 0)
(1.47597e-08 -1.82384e-06 0)
(1.46909e-08 -1.82678e-06 0)
(1.46219e-08 -1.8297e-06 0)
(1.45528e-08 -1.83262e-06 0)
(1.44835e-08 -1.83554e-06 0)
(1.4414e-08 -1.83844e-06 0)
(1.43444e-08 -1.84134e-06 0)
(1.42746e-08 -1.84423e-06 0)
(1.42046e-08 -1.84712e-06 0)
(1.41345e-08 -1.84999e-06 0)
(1.40642e-08 -1.85286e-06 0)
(1.39938e-08 -1.85572e-06 0)
(1.39232e-08 -1.85858e-06 0)
(1.38524e-08 -1.86142e-06 0)
(1.37815e-08 -1.86426e-06 0)
(1.37104e-08 -1.86709e-06 0)
(1.36391e-08 -1.86991e-06 0)
(1.35678e-08 -1.87273e-06 0)
(1.34961e-08 -1.87553e-06 0)
(1.34247e-08 -1.87833e-06 0)
(1.33517e-08 -1.88112e-06 0)
(1.32858e-08 -1.88402e-06 0)
(1.31798e-08 -1.88656e-06 0)
(1.30762e-08 -1.88911e-06 0)
(1.30198e-08 -1.89186e-06 0)
(1.29585e-08 -1.89424e-06 0)
(1.28968e-08 -1.89666e-06 0)
(1.28347e-08 -1.89913e-06 0)
(1.27722e-08 -1.90166e-06 0)
(1.27088e-08 -1.90419e-06 0)
(1.26446e-08 -1.90673e-06 0)
(1.25797e-08 -1.90928e-06 0)
(1.25141e-08 -1.91184e-06 0)
(1.24476e-08 -1.91442e-06 0)
(1.23804e-08 -1.91702e-06 0)
(1.23124e-08 -1.91963e-06 0)
(1.22436e-08 -1.92225e-06 0)
(1.21741e-08 -1.92489e-06 0)
(1.21037e-08 -1.92753e-06 0)
(1.20325e-08 -1.9302e-06 0)
(1.19606e-08 -1.93287e-06 0)
(1.18878e-08 -1.93556e-06 0)
(1.18142e-08 -1.93826e-06 0)
(1.17398e-08 -1.94097e-06 0)
(1.16646e-08 -1.9437e-06 0)
(1.15885e-08 -1.94644e-06 0)
(1.15116e-08 -1.94918e-06 0)
(1.14339e-08 -1.95194e-06 0)
(1.13554e-08 -1.95471e-06 0)
(1.12759e-08 -1.95749e-06 0)
(1.11957e-08 -1.96029e-06 0)
(1.11146e-08 -1.96309e-06 0)
(1.10326e-08 -1.9659e-06 0)
(1.09497e-08 -1.96872e-06 0)
(1.0866e-08 -1.97155e-06 0)
(1.07815e-08 -1.97439e-06 0)
(1.0696e-08 -1.97723e-06 0)
(1.06097e-08 -1.98009e-06 0)
(1.05225e-08 -1.98295e-06 0)
(1.04344e-08 -1.98582e-06 0)
(1.03454e-08 -1.9887e-06 0)
(1.02555e-08 -1.99158e-06 0)
(1.01648e-08 -1.99447e-06 0)
(1.00731e-08 -1.99736e-06 0)
(9.98055e-09 -2.00026e-06 0)
(9.8871e-09 -2.00316e-06 0)
(9.79274e-09 -2.00606e-06 0)
(9.69748e-09 -2.00897e-06 0)
(9.60132e-09 -2.01188e-06 0)
(9.50425e-09 -2.0148e-06 0)
(9.40627e-09 -2.01771e-06 0)
(9.30739e-09 -2.02063e-06 0)
(9.20761e-09 -2.02355e-06 0)
(9.10691e-09 -2.02646e-06 0)
(9.00532e-09 -2.02938e-06 0)
(8.90281e-09 -2.03229e-06 0)
(8.7994e-09 -2.0352e-06 0)
(8.69509e-09 -2.03811e-06 0)
(8.58988e-09 -2.04102e-06 0)
(8.48376e-09 -2.04392e-06 0)
(8.37676e-09 -2.04681e-06 0)
(8.26885e-09 -2.0497e-06 0)
(8.16006e-09 -2.05258e-06 0)
(8.05037e-09 -2.05546e-06 0)
(7.93981e-09 -2.05833e-06 0)
(7.82836e-09 -2.06118e-06 0)
(7.71604e-09 -2.06403e-06 0)
(7.60285e-09 -2.06687e-06 0)
(7.48879e-09 -2.06969e-06 0)
(7.37388e-09 -2.07251e-06 0)
(7.25812e-09 -2.0753e-06 0)
(7.14151e-09 -2.07809e-06 0)
(7.02407e-09 -2.08086e-06 0)
(6.9058e-09 -2.08361e-06 0)
(6.78671e-09 -2.08634e-06 0)
(6.66681e-09 -2.08906e-06 0)
(6.54611e-09 -2.09175e-06 0)
(6.42462e-09 -2.09443e-06 0)
(6.30235e-09 -2.09708e-06 0)
(6.17932e-09 -2.09971e-06 0)
(6.05553e-09 -2.10232e-06 0)
(5.931e-09 -2.1049e-06 0)
(5.80574e-09 -2.10745e-06 0)
(5.67977e-09 -2.10998e-06 0)
(5.5531e-09 -2.11248e-06 0)
(5.42575e-09 -2.11495e-06 0)
(5.29773e-09 -2.11738e-06 0)
(5.16906e-09 -2.11979e-06 0)
(5.03976e-09 -2.12216e-06 0)
(4.90984e-09 -2.12449e-06 0)
(4.77933e-09 -2.12679e-06 0)
(4.64825e-09 -2.12905e-06 0)
(4.51662e-09 -2.13127e-06 0)
(4.38445e-09 -2.13345e-06 0)
(4.25177e-09 -2.13559e-06 0)
(4.11861e-09 -2.13768e-06 0)
(3.98498e-09 -2.13973e-06 0)
(3.85092e-09 -2.14173e-06 0)
(3.71645e-09 -2.14369e-06 0)
(3.58159e-09 -2.14559e-06 0)
(3.44637e-09 -2.14745e-06 0)
(3.31082e-09 -2.14925e-06 0)
(3.17497e-09 -2.151e-06 0)
(3.03886e-09 -2.15269e-06 0)
(2.9025e-09 -2.15433e-06 0)
(2.76593e-09 -2.15591e-06 0)
(2.62918e-09 -2.15742e-06 0)
(2.49229e-09 -2.15888e-06 0)
(2.35529e-09 -2.16027e-06 0)
(2.21822e-09 -2.1616e-06 0)
(2.08111e-09 -2.16286e-06 0)
(1.94399e-09 -2.16405e-06 0)
(1.80691e-09 -2.16517e-06 0)
(1.6699e-09 -2.16622e-06 0)
(1.533e-09 -2.1672e-06 0)
(1.39625e-09 -2.16811e-06 0)
(1.25969e-09 -2.16893e-06 0)
(1.12336e-09 -2.16968e-06 0)
(9.87305e-10 -2.17035e-06 0)
(8.51559e-10 -2.17094e-06 0)
(7.1617e-10 -2.17145e-06 0)
(5.81179e-10 -2.17187e-06 0)
(4.46629e-10 -2.1722e-06 0)
(3.12566e-10 -2.17245e-06 0)
(1.79033e-10 -2.17261e-06 0)
(4.60744e-11 -2.17268e-06 0)
(-8.62636e-11 -2.17265e-06 0)
(-2.17935e-10 -2.17254e-06 0)
(-3.48895e-10 -2.17232e-06 0)
(-4.79095e-10 -2.17201e-06 0)
(-6.0849e-10 -2.1716e-06 0)
(-7.37031e-10 -2.17109e-06 0)
(-8.64671e-10 -2.17048e-06 0)
(-9.91359e-10 -2.16977e-06 0)
(-1.11705e-09 -2.16895e-06 0)
(-1.24169e-09 -2.16803e-06 0)
(-1.36523e-09 -2.167e-06 0)
(-1.48762e-09 -2.16586e-06 0)
(-1.60881e-09 -2.16461e-06 0)
(-1.72874e-09 -2.16325e-06 0)
(-1.84736e-09 -2.16178e-06 0)
(-1.96462e-09 -2.1602e-06 0)
(-2.08047e-09 -2.1585e-06 0)
(-2.19484e-09 -2.15668e-06 0)
(-2.30768e-09 -2.15475e-06 0)
(-2.41894e-09 -2.1527e-06 0)
(-2.52856e-09 -2.15053e-06 0)
(-2.63648e-09 -2.14825e-06 0)
(-2.74264e-09 -2.14584e-06 0)
(-2.84698e-09 -2.14331e-06 0)
(-2.94946e-09 -2.14066e-06 0)
(-3.05e-09 -2.13788e-06 0)
(-3.14856e-09 -2.13499e-06 0)
(-3.24507e-09 -2.13197e-06 0)
(-3.33949e-09 -2.12883e-06 0)
(-3.43176e-09 -2.12556e-06 0)
(-3.52183e-09 -2.12217e-06 0)
(-3.60965e-09 -2.11865e-06 0)
(-3.69518e-09 -2.11501e-06 0)
(-3.77839e-09 -2.11125e-06 0)
(-3.85923e-09 -2.10736e-06 0)
(-3.93767e-09 -2.10335e-06 0)
(-4.01368e-09 -2.09921e-06 0)
(-4.08724e-09 -2.09495e-06 0)
(-4.15832e-09 -2.09057e-06 0)
(-4.22691e-09 -2.08607e-06 0)
(-4.29298e-09 -2.08144e-06 0)
(-4.35653e-09 -2.0767e-06 0)
(-4.41754e-09 -2.07183e-06 0)
(-4.476e-09 -2.06684e-06 0)
(-4.5319e-09 -2.06174e-06 0)
(-4.58524e-09 -2.05652e-06 0)
(-4.63599e-09 -2.05118e-06 0)
(-4.68416e-09 -2.04573e-06 0)
(-4.72974e-09 -2.04016e-06 0)
(-4.77269e-09 -2.03448e-06 0)
(-4.81302e-09 -2.02868e-06 0)
(-4.85069e-09 -2.02278e-06 0)
(-4.88567e-09 -2.01677e-06 0)
(-4.9179e-09 -2.01065e-06 0)
(-4.9477e-09 -2.00442e-06 0)
(-4.97404e-09 -1.99812e-06 0)
(-4.9971e-09 -1.99145e-06 0)
(-5.00767e-09 -1.98526e-06 0)
(-5.02094e-09 -1.97807e-06 0)
(-5.04079e-09 -1.96949e-06 0)
(-5.05239e-09 -1.96142e-06 0)
(-5.0632e-09 -1.95332e-06 0)
(-5.07168e-09 -1.94512e-06 0)
(-5.07648e-09 -1.93687e-06 0)
(-5.07798e-09 -1.92864e-06 0)
(-5.07631e-09 -1.92042e-06 0)
(-5.07157e-09 -1.9122e-06 0)
(-5.06387e-09 -1.904e-06 0)
(-5.05332e-09 -1.8958e-06 0)
(-5.04004e-09 -1.88763e-06 0)
(-5.02413e-09 -1.87948e-06 0)
(-5.00572e-09 -1.87136e-06 0)
(-4.98492e-09 -1.86326e-06 0)
(-4.96184e-09 -1.85521e-06 0)
(-4.93658e-09 -1.84719e-06 0)
(-4.90924e-09 -1.83922e-06 0)
(-4.87992e-09 -1.83129e-06 0)
(-4.8487e-09 -1.82341e-06 0)
(-4.81567e-09 -1.81559e-06 0)
(-4.78091e-09 -1.80781e-06 0)
(-4.74449e-09 -1.8001e-06 0)
(-4.70648e-09 -1.79245e-06 0)
(-4.66695e-09 -1.78485e-06 0)
(-4.62594e-09 -1.77733e-06 0)
(-4.58353e-09 -1.76987e-06 0)
(-4.53976e-09 -1.76248e-06 0)
(-4.49468e-09 -1.75516e-06 0)
(-4.44835e-09 -1.74792e-06 0)
(-4.4008e-09 -1.74075e-06 0)
(-4.35209e-09 -1.73366e-06 0)
(-4.30225e-09 -1.72665e-06 0)
(-4.25134e-09 -1.71972e-06 0)
(-4.19939e-09 -1.71288e-06 0)
(-4.14644e-09 -1.70612e-06 0)
(-4.09253e-09 -1.69945e-06 0)
(-4.03771e-09 -1.69286e-06 0)
(-3.98201e-09 -1.68637e-06 0)
(-3.92548e-09 -1.67996e-06 0)
(-3.86814e-09 -1.67365e-06 0)
(-3.81004e-09 -1.66743e-06 0)
(-3.7512e-09 -1.66131e-06 0)
(-3.69167e-09 -1.65528e-06 0)
(-3.63148e-09 -1.64935e-06 0)
(-3.57065e-09 -1.64352e-06 0)
(-3.50922e-09 -1.63779e-06 0)
(-3.44721e-09 -1.63216e-06 0)
(-3.38465e-09 -1.62663e-06 0)
(-3.32156e-09 -1.6212e-06 0)
(-3.25797e-09 -1.61587e-06 0)
(-3.19389e-09 -1.61065e-06 0)
(-3.12933e-09 -1.60553e-06 0)
(-3.06433e-09 -1.60051e-06 0)
(-2.99888e-09 -1.5956e-06 0)
(-2.93301e-09 -1.5908e-06 0)
(-2.86673e-09 -1.58611e-06 0)
(-2.80005e-09 -1.58152e-06 0)
(-2.73297e-09 -1.57704e-06 0)
(-2.66552e-09 -1.57267e-06 0)
(-2.5977e-09 -1.56841e-06 0)
(-2.52951e-09 -1.56426e-06 0)
(-2.46097e-09 -1.56022e-06 0)
(-2.39208e-09 -1.55629e-06 0)
(-2.32286e-09 -1.55247e-06 0)
(-2.25331e-09 -1.54877e-06 0)
(-2.18344e-09 -1.54518e-06 0)
(-2.11325e-09 -1.5417e-06 0)
(-2.04275e-09 -1.53833e-06 0)
(-1.97196e-09 -1.53508e-06 0)
(-1.90087e-09 -1.53194e-06 0)
(-1.82949e-09 -1.52892e-06 0)
(-1.75782e-09 -1.52602e-06 0)
(-1.68587e-09 -1.52323e-06 0)
(-1.61363e-09 -1.52055e-06 0)
(-1.54111e-09 -1.518e-06 0)
(-1.46829e-09 -1.51556e-06 0)
(-1.39516e-09 -1.51324e-06 0)
(-1.32172e-09 -1.51103e-06 0)
(-1.24796e-09 -1.50895e-06 0)
(-1.17386e-09 -1.50698e-06 0)
(-1.09941e-09 -1.50514e-06 0)
(-1.02463e-09 -1.50341e-06 0)
(-9.49531e-10 -1.50181e-06 0)
(-8.74182e-10 -1.50033e-06 0)
(-7.98717e-10 -1.49898e-06 0)
(-7.23335e-10 -1.49771e-06 0)
(-6.48402e-10 -1.4967e-06 0)
(-5.74258e-10 -1.49537e-06 0)
(-5.01727e-10 -1.49563e-06 0)
(-4.29752e-10 -1.49099e-06 0)
(-3.62183e-10 -1.50247e-06 0)
(-2.80754e-10 -1.45699e-06 0)
(-2.52193e-10 -1.5762e-06 0)
(-1.36886e-10 -1.37633e-06 0)
)
;
    }
    bottomWall
    {
        type            calculated;
        value           nonuniform List<vector> 
449
(
(-48.6004 -0.965043 0)
(-19.7801 -0.00516165 0)
(-14.3699 -0.00113458 0)
(-12.0643 -0.000543311 0)
(-10.6689 -0.000346494 0)
(-9.69844 -0.000245289 0)
(-8.99004 -0.000174544 0)
(-8.50109 -0.000104022 0)
(-8.27537 -1.06837e-05 0)
(-8.42984 0.000167667 0)
(-9.43851 0.000322255 0)
(-10.6616 0.00029815 0)
(-11.504 0.00018845 0)
(-11.9707 0.000102545 0)
(-12.2186 5.38413e-05 0)
(-12.347 2.58239e-05 0)
(-12.3996 7.52561e-06 0)
(-12.3999 -5.03842e-06 0)
(-12.3641 -1.31031e-05 0)
(-12.3075 -1.80403e-05 0)
(-12.2366 -2.10647e-05 0)
(-12.1581 -2.25691e-05 0)
(-12.0761 -2.31702e-05 0)
(-11.993 -2.32466e-05 0)
(-11.91 -2.30534e-05 0)
(-11.8278 -2.26935e-05 0)
(-11.747 -2.22186e-05 0)
(-11.6677 -2.17001e-05 0)
(-11.5902 -2.1169e-05 0)
(-11.5144 -2.06393e-05 0)
(-11.4404 -2.01158e-05 0)
(-11.368 -1.96063e-05 0)
(-11.2973 -1.91269e-05 0)
(-11.2281 -1.86544e-05 0)
(-11.1605 -1.81741e-05 0)
(-11.0945 -1.76974e-05 0)
(-11.0302 -1.72361e-05 0)
(-10.9673 -1.67813e-05 0)
(-10.906 -1.63442e-05 0)
(-10.846 -1.59123e-05 0)
(-10.7877 -1.54976e-05 0)
(-10.7306 -1.50896e-05 0)
(-10.675 -1.46987e-05 0)
(-10.6206 -1.43264e-05 0)
(-10.5676 -1.3968e-05 0)
(-10.5156 -1.36105e-05 0)
(-10.465 -1.32586e-05 0)
(-10.4154 -1.29187e-05 0)
(-10.3672 -1.25894e-05 0)
(-10.3199 -1.22732e-05 0)
(-10.2739 -1.19639e-05 0)
(-10.2288 -1.16666e-05 0)
(-10.1848 -1.13781e-05 0)
(-10.1417 -1.10996e-05 0)
(-10.0997 -1.08295e-05 0)
(-10.0584 -1.05688e-05 0)
(-10.0182 -1.0317e-05 0)
(-9.97871 -1.00732e-05 0)
(-9.94022 -9.83692e-06 0)
(-9.90237 -9.61209e-06 0)
(-9.86545 -9.39735e-06 0)
(-9.82911 -9.18745e-06 0)
(-9.79367 -8.9776e-06 0)
(-9.75881 -8.77728e-06 0)
(-9.72477 -8.57962e-06 0)
(-9.69131 -8.39304e-06 0)
(-9.65859 -8.20723e-06 0)
(-9.62644 -8.03257e-06 0)
(-9.59496 -7.85905e-06 0)
(-9.56404 -7.69403e-06 0)
(-9.53372 -7.53213e-06 0)
(-9.50395 -7.37633e-06 0)
(-9.47474 -7.22352e-06 0)
(-9.44606 -7.07692e-06 0)
(-9.4179 -6.93257e-06 0)
(-9.39025 -6.794e-06 0)
(-9.36307 -6.659e-06 0)
(-9.33639 -6.52666e-06 0)
(-9.31016 -6.40114e-06 0)
(-9.28437 -6.27568e-06 0)
(-9.25904 -6.1576e-06 0)
(-9.2341 -6.0386e-06 0)
(-9.20963 -5.92813e-06 0)
(-9.18548 -5.81517e-06 0)
(-9.16182 -5.70843e-06 0)
(-9.13844 -5.60439e-06 0)
(-9.11553 -5.50702e-06 0)
(-9.09285 -5.40941e-06 0)
(-9.07065 -5.31089e-06 0)
(-9.04867 -5.21982e-06 0)
(-9.02713 -5.12479e-06 0)
(-9.00585 -5.04008e-06 0)
(-8.98492 -4.95008e-06 0)
(-8.9643 -4.86677e-06 0)
(-8.94397 -4.78436e-06 0)
(-8.92394 -4.70501e-06 0)
(-8.90419 -4.62533e-06 0)
(-8.88475 -4.5492e-06 0)
(-8.86555 -4.47444e-06 0)
(-8.84666 -4.40182e-06 0)
(-8.82799 -4.32896e-06 0)
(-8.80963 -4.26022e-06 0)
(-8.79147 -4.19216e-06 0)
(-8.77361 -4.12354e-06 0)
(-8.75595 -4.05854e-06 0)
(-8.73857 -3.99267e-06 0)
(-8.7214 -3.93324e-06 0)
(-8.70445 -3.87105e-06 0)
(-8.68775 -3.81226e-06 0)
(-8.67123 -3.75469e-06 0)
(-8.65495 -3.69757e-06 0)
(-8.63886 -3.64129e-06 0)
(-8.623 -3.586e-06 0)
(-8.60732 -3.53224e-06 0)
(-8.59186 -3.48067e-06 0)
(-8.57656 -3.42916e-06 0)
(-8.56148 -3.37993e-06 0)
(-8.54655 -3.3309e-06 0)
(-8.53184 -3.28066e-06 0)
(-8.51729 -3.23163e-06 0)
(-8.50295 -3.18399e-06 0)
(-8.48876 -3.13685e-06 0)
(-8.47477 -3.09238e-06 0)
(-8.46092 -3.04911e-06 0)
(-8.44726 -3.00536e-06 0)
(-8.43374 -2.96289e-06 0)
(-8.4204 -2.92209e-06 0)
(-8.40718 -2.88124e-06 0)
(-8.39415 -2.84377e-06 0)
(-8.38122 -2.80606e-06 0)
(-8.36848 -2.76829e-06 0)
(-8.35583 -2.7327e-06 0)
(-8.34335 -2.69399e-06 0)
(-8.331 -2.65857e-06 0)
(-8.31879 -2.61948e-06 0)
(-8.30675 -2.58397e-06 0)
(-8.29482 -2.54818e-06 0)
(-8.28305 -2.51496e-06 0)
(-8.27137 -2.47949e-06 0)
(-8.25988 -2.45011e-06 0)
(-8.24842 -2.41682e-06 0)
(-8.23719 -2.387e-06 0)
(-8.22595 -2.35699e-06 0)
(-8.21495 -2.32722e-06 0)
(-8.20395 -2.30134e-06 0)
(-8.19314 -2.27375e-06 0)
(-8.18234 -2.24815e-06 0)
(-8.17173 -2.22044e-06 0)
(-8.16115 -2.19549e-06 0)
(-8.15072 -2.16813e-06 0)
(-8.14035 -2.14573e-06 0)
(-8.13009 -2.12159e-06 0)
(-8.11991 -2.09755e-06 0)
(-8.10983 -2.07201e-06 0)
(-8.09985 -2.04491e-06 0)
(-8.08999 -2.01626e-06 0)
(-8.08024 -1.98625e-06 0)
(-8.07063 -1.95848e-06 0)
(-8.06111 -1.93196e-06 0)
(-8.05172 -1.90728e-06 0)
(-8.04239 -1.88459e-06 0)
(-8.03318 -1.86525e-06 0)
(-8.024 -1.84216e-06 0)
(-8.01497 -1.82057e-06 0)
(-8.00596 -1.8016e-06 0)
(-7.99708 -1.77579e-06 0)
(-7.98829 -1.75214e-06 0)
(-7.9796 -1.72981e-06 0)
(-7.97099 -1.7099e-06 0)
(-7.96246 -1.69044e-06 0)
(-7.95401 -1.67576e-06 0)
(-7.94558 -1.66329e-06 0)
(-7.93721 -1.6458e-06 0)
(-7.92939 -1.63791e-06 0)
(-7.92196 -1.63139e-06 0)
(-7.91452 -1.6187e-06 0)
(-7.90705 -1.60842e-06 0)
(-7.89955 -1.59157e-06 0)
(-7.89207 -1.57272e-06 0)
(-7.88459 -1.5539e-06 0)
(-7.87713 -1.53286e-06 0)
(-7.86969 -1.51598e-06 0)
(-7.86223 -1.501e-06 0)
(-7.85478 -1.48228e-06 0)
(-7.84735 -1.46307e-06 0)
(-7.83994 -1.44067e-06 0)
(-7.83258 -1.41384e-06 0)
(-7.82528 -1.38977e-06 0)
(-7.81802 -1.36687e-06 0)
(-7.81081 -1.343e-06 0)
(-7.80365 -1.32358e-06 0)
(-7.79649 -1.30419e-06 0)
(-7.78939 -1.28395e-06 0)
(-7.7823 -1.267e-06 0)
(-7.77523 -1.25041e-06 0)
(-7.76818 -1.23284e-06 0)
(-7.76115 -1.2185e-06 0)
(-7.75411 -1.20292e-06 0)
(-7.74712 -1.18696e-06 0)
(-7.74011 -1.17349e-06 0)
(-7.73312 -1.15943e-06 0)
(-7.72613 -1.14476e-06 0)
(-7.71917 -1.13279e-06 0)
(-7.71218 -1.11842e-06 0)
(-7.70525 -1.10523e-06 0)
(-7.69827 -1.0928e-06 0)
(-7.69135 -1.0786e-06 0)
(-7.6844 -1.06747e-06 0)
(-7.67747 -1.05256e-06 0)
(-7.67056 -1.04186e-06 0)
(-7.66362 -1.03337e-06 0)
(-7.65668 -1.02015e-06 0)
(-7.64977 -1.008e-06 0)
(-7.64285 -9.94679e-07 0)
(-7.63598 -9.72863e-07 0)
(-7.62921 -9.60367e-07 0)
(-7.62237 -9.45541e-07 0)
(-7.61567 -9.30208e-07 0)
(-7.6089 -9.25462e-07 0)
(-7.60212 -9.13552e-07 0)
(-7.59538 -9.01353e-07 0)
(-7.58863 -8.86353e-07 0)
(-7.58197 -8.71971e-07 0)
(-7.57531 -8.58106e-07 0)
(-7.56872 -8.39254e-07 0)
(-7.56221 -8.20941e-07 0)
(-7.55577 -8.03808e-07 0)
(-7.54939 -7.86558e-07 0)
(-7.54309 -7.76383e-07 0)
(-7.53674 -7.6477e-07 0)
(-7.53049 -7.50333e-07 0)
(-7.52424 -7.42073e-07 0)
(-7.518 -7.33495e-07 0)
(-7.51176 -7.24833e-07 0)
(-7.50553 -7.18223e-07 0)
(-7.49926 -7.09806e-07 0)
(-7.49305 -6.93842e-07 0)
(-7.48693 -6.83769e-07 0)
(-7.48076 -6.67608e-07 0)
(-7.47482 -6.53855e-07 0)
(-7.46877 -6.48151e-07 0)
(-7.46279 -6.35115e-07 0)
(-7.45686 -6.22166e-07 0)
(-7.451 -6.10245e-07 0)
(-7.44517 -5.99084e-07 0)
(-7.4394 -5.84389e-07 0)
(-7.43373 -5.74224e-07 0)
(-7.42804 -5.64018e-07 0)
(-7.42245 -5.54548e-07 0)
(-7.41683 -5.44387e-07 0)
(-7.41133 -5.35431e-07 0)
(-7.40577 -5.28091e-07 0)
(-7.4003 -5.15332e-07 0)
(-7.3949 -5.08326e-07 0)
(-7.38946 -5.00609e-07 0)
(-7.3841 -4.89623e-07 0)
(-7.37879 -4.75854e-07 0)
(-7.37362 -4.6524e-07 0)
(-7.36843 -4.56951e-07 0)
(-7.36334 -4.48523e-07 0)
(-7.35822 -4.46481e-07 0)
(-7.35306 -4.41501e-07 0)
(-7.34795 -4.40234e-07 0)
(-7.3427 -4.36673e-07 0)
(-7.33757 -4.24197e-07 0)
(-7.33251 -4.16208e-07 0)
(-7.32746 -4.09017e-07 0)
(-7.32247 -3.99337e-07 0)
(-7.31755 -3.94431e-07 0)
(-7.31258 -3.89246e-07 0)
(-7.30768 -3.82457e-07 0)
(-7.30277 -3.75813e-07 0)
(-7.29794 -3.62976e-07 0)
(-7.29327 -3.49523e-07 0)
(-7.2887 -3.44623e-07 0)
(-7.28405 -3.43186e-07 0)
(-7.27941 -3.34843e-07 0)
(-7.27489 -3.332e-07 0)
(-7.27019 -3.3466e-07 0)
(-7.26553 -3.25073e-07 0)
(-7.26101 -3.20212e-07 0)
(-7.25638 -3.18814e-07 0)
(-7.2518 -3.11221e-07 0)
(-7.2473 -3.08309e-07 0)
(-7.2427 -3.03983e-07 0)
(-7.23823 -2.95579e-07 0)
(-7.23379 -2.94109e-07 0)
(-7.22926 -2.90012e-07 0)
(-7.22485 -2.83871e-07 0)
(-7.22042 -2.83185e-07 0)
(-7.21593 -2.76216e-07 0)
(-7.21162 -2.71875e-07 0)
(-7.20717 -2.69407e-07 0)
(-7.20286 -2.61926e-07 0)
(-7.19856 -2.57517e-07 0)
(-7.19429 -2.56841e-07 0)
(-7.18992 -2.54262e-07 0)
(-7.18565 -2.49179e-07 0)
(-7.18136 -2.50153e-07 0)
(-7.17696 -2.50314e-07 0)
(-7.17257 -2.43676e-07 0)
(-7.16831 -2.39615e-07 0)
(-7.16397 -2.37045e-07 0)
(-7.15972 -2.32594e-07 0)
(-7.15544 -2.31696e-07 0)
(-7.15112 -2.27389e-07 0)
(-7.14692 -2.26976e-07 0)
(-7.14252 -2.29003e-07 0)
(-7.13815 -2.21585e-07 0)
(-7.13395 -2.15956e-07 0)
(-7.1297 -2.13563e-07 0)
(-7.1255 -2.07043e-07 0)
(-7.12142 -2.05404e-07 0)
(-7.1172 -2.05873e-07 0)
(-7.11301 -2.00756e-07 0)
(-7.1089 -1.99413e-07 0)
(-7.10468 -1.98189e-07 0)
(-7.10054 -1.91013e-07 0)
(-7.09653 -1.87648e-07 0)
(-7.09244 -1.8614e-07 0)
(-7.08841 -1.80838e-07 0)
(-7.08447 -1.79504e-07 0)
(-7.08041 -1.79196e-07 0)
(-7.0764 -1.74581e-07 0)
(-7.07246 -1.73556e-07 0)
(-7.06841 -1.73187e-07 0)
(-7.0644 -1.68527e-07 0)
(-7.06048 -1.6741e-07 0)
(-7.05644 -1.66836e-07 0)
(-7.05246 -1.62274e-07 0)
(-7.04855 -1.61171e-07 0)
(-7.04454 -1.60368e-07 0)
(-7.04059 -1.55909e-07 0)
(-7.03671 -1.55191e-07 0)
(-7.03271 -1.53831e-07 0)
(-7.02882 -1.50112e-07 0)
(-7.02493 -1.489e-07 0)
(-7.02102 -1.48077e-07 0)
(-7.01708 -1.45019e-07 0)
(-7.01325 -1.43252e-07 0)
(-7.00932 -1.40924e-07 0)
(-7.00553 -1.38879e-07 0)
(-7.00164 -1.38489e-07 0)
(-6.99779 -1.37601e-07 0)
(-6.99385 -1.40539e-07 0)
(-6.98974 -1.40196e-07 0)
(-6.98575 -1.32086e-07 0)
(-6.98204 -1.28976e-07 0)
(-6.97814 -1.24913e-07 0)
(-6.97459 -1.20758e-07 0)
(-6.97086 -1.19808e-07 0)
(-6.96729 -1.17409e-07 0)
(-6.96362 -1.17534e-07 0)
(-6.95996 -1.13141e-07 0)
(-6.95611 -1.08668e-07 0)
(-6.9519 -1.04754e-07 0)
(-6.94795 -1.02597e-07 0)
(-6.94392 -1.01291e-07 0)
(-6.94006 -1.02062e-07 0)
(-6.93596 -1.04832e-07 0)
(-6.93189 -1.04254e-07 0)
(-6.92783 -1.03105e-07 0)
(-6.92385 -1.0217e-07 0)
(-6.91987 -9.86503e-08 0)
(-6.91617 -9.36904e-08 0)
(-6.91258 -9.27276e-08 0)
(-6.90895 -9.29863e-08 0)
(-6.90533 -9.01714e-08 0)
(-6.90192 -9.06908e-08 0)
(-6.89826 -9.13359e-08 0)
(-6.8948 -8.88976e-08 0)
(-6.89133 -8.83193e-08 0)
(-6.88791 -8.48227e-08 0)
(-6.88473 -8.29684e-08 0)
(-6.88145 -8.12053e-08 0)
(-6.87841 -7.86795e-08 0)
(-6.87533 -7.8163e-08 0)
(-6.87232 -7.69369e-08 0)
(-6.86934 -7.65598e-08 0)
(-6.86636 -7.76652e-08 0)
(-6.86329 -7.67162e-08 0)
(-6.86038 -7.2855e-08 0)
(-6.85761 -7.33174e-08 0)
(-6.85467 -7.19871e-08 0)
(-6.85201 -6.99938e-08 0)
(-6.84922 -6.99035e-08 0)
(-6.84656 -6.9273e-08 0)
(-6.84382 -6.91748e-08 0)
(-6.84118 -6.66599e-08 0)
(-6.83863 -6.78584e-08 0)
(-6.83589 -6.60071e-08 0)
(-6.8335 -6.38637e-08 0)
(-6.83092 -6.38949e-08 0)
(-6.82852 -6.23849e-08 0)
(-6.82606 -6.33348e-08 0)
(-6.82359 -6.07519e-08 0)
(-6.82133 -6.00784e-08 0)
(-6.8189 -5.96834e-08 0)
(-6.81668 -5.82934e-08 0)
(-6.81436 -5.94269e-08 0)
(-6.81205 -5.94133e-08 0)
(-6.80974 -6.20771e-08 0)
(-6.80721 -6.15206e-08 0)
(-6.80494 -5.96716e-08 0)
(-6.80256 -6.00432e-08 0)
(-6.80027 -5.81617e-08 0)
(-6.79803 -6.01307e-08 0)
(-6.79558 -5.87125e-08 0)
(-6.79346 -5.59317e-08 0)
(-6.79123 -5.54363e-08 0)
(-6.78915 -5.49902e-08 0)
(-6.78695 -5.41242e-08 0)
(-6.78494 -5.1961e-08 0)
(-6.78291 -5.36101e-08 0)
(-6.78076 -5.21168e-08 0)
(-6.77885 -4.91075e-08 0)
(-6.77695 -5.11509e-08 0)
(-6.77487 -5.10188e-08 0)
(-6.77298 -4.91683e-08 0)
(-6.77105 -4.99619e-08 0)
(-6.76909 -4.85225e-08 0)
(-6.76727 -4.75473e-08 0)
(-6.76538 -4.88317e-08 0)
(-6.76346 -4.74382e-08 0)
(-6.76169 -4.65316e-08 0)
(-6.75984 -4.78828e-08 0)
(-6.75796 -4.57927e-08 0)
(-6.75628 -4.62851e-08 0)
(-6.75436 -4.60348e-08 0)
(-6.7527 -4.54803e-08 0)
(-6.75082 -4.58063e-08 0)
(-6.74914 -4.32188e-08 0)
(-6.74747 -4.27308e-08 0)
(-6.74582 -4.01496e-08 0)
(-6.74435 -3.94821e-08 0)
(-6.74275 -4.29632e-08 0)
(-6.74101 -4.29189e-08 0)
(-6.73941 -4.2338e-08 0)
(-6.73771 -4.39621e-08 0)
(-6.73599 -4.19617e-08 0)
(-6.73445 -4.05067e-08 0)
(-6.73284 -4.23621e-08 0)
(-6.73115 -3.87818e-08 0)
(-6.72983 -4.03356e-08 0)
(-6.72801 -3.67879e-08 0)
(-6.72698 -4.7054e-08 0)
(-6.72433 -2.29203e-08 0)
(-6.72526 -3.71824e-08 0)
(-6.72131 -5.2754e-08 0)
)
;
    }
    symmetry
    {
        type            symmetryPlane;
    }
    frontAndBack
    {
        type            empty;
    }
}


// ************************************************************************* //
