/*--------------------------------*- C++ -*----------------------------------*\
| =========                 |                                                 |
| \\      /  F ield         | OpenFOAM: The Open Source CFD Toolbox           |
|  \\    /   O peration     | Version:  v2012                                 |
|   \\  /    A nd           | Website:  www.openfoam.com                      |
|    \\/     M anipulation  |                                                 |
\*---------------------------------------------------------------------------*/
FoamFile
{
    version     2.0;
    format      ascii;
    class       volScalarField;
    location    "15";
    object      yPlus;
}
// * * * * * * * * * * * * * * * * * * * * * * * * * * * * * * * * * * * * * //

dimensions      [0 0 0 0 0 0 0];


internalField   uniform 0;

boundaryField
{
    inlet
    {
        type            calculated;
        value           uniform 0;
    }
    outlet
    {
        type            calculated;
        value           uniform 0;
    }
    topWall
    {
        type            calculated;
        value           nonuniform List<scalar> 
545
(
0.101562
0.175242
0.2247
0.26408
0.297415
0.326569
0.352601
0.376172
0.397734
0.417611
0.436047
0.453229
0.469307
0.484402
0.498615
0.51203
0.524718
0.536741
0.548154
0.559001
0.569325
0.579164
0.588548
0.597509
0.606073
0.614263
0.622104
0.629613
0.636811
0.643715
0.650339
0.656699
0.662808
0.668679
0.674324
0.679754
0.684979
0.690008
0.694851
0.699516
0.704011
0.708344
0.712522
0.716551
0.720438
0.724189
0.727809
0.731304
0.734679
0.737939
0.741088
0.744131
0.747072
0.749915
0.752664
0.755322
0.757893
0.76038
0.762786
0.765114
0.767367
0.769548
0.77166
0.773704
0.775683
0.7776
0.779457
0.781256
0.782998
0.784687
0.786322
0.787908
0.789424
0.79089
0.792344
0.793785
0.795213
0.79663
0.798034
0.799427
0.800807
0.802176
0.803533
0.804879
0.806214
0.807537
0.808849
0.81015
0.81144
0.812719
0.813988
0.815246
0.816494
0.817731
0.818958
0.820176
0.821267
0.822243
0.823218
0.824193
0.825167
0.826141
0.827114
0.828086
0.829058
0.830029
0.830999
0.831969
0.832938
0.833907
0.834874
0.835841
0.836808
0.837774
0.838739
0.839703
0.840667
0.841629
0.842592
0.843553
0.844513
0.845473
0.846432
0.847391
0.848348
0.849305
0.850261
0.851215
0.85217
0.853123
0.854075
0.855027
0.855978
0.856928
0.857876
0.858824
0.859772
0.860718
0.861663
0.862607
0.86355
0.864493
0.865434
0.866375
0.867314
0.868252
0.86919
0.870126
0.871061
0.871995
0.872928
0.87386
0.874791
0.875721
0.87665
0.877578
0.878504
0.879429
0.880353
0.881276
0.882198
0.883119
0.884038
0.884957
0.885873
0.886789
0.887704
0.888617
0.889529
0.890439
0.891349
0.892257
0.893163
0.894069
0.894973
0.895876
0.896777
0.897677
0.898575
0.899472
0.900368
0.901262
0.902155
0.903046
0.903936
0.904824
0.905711
0.906596
0.90748
0.908362
0.909243
0.910122
0.911
0.911876
0.91275
0.913623
0.914494
0.915363
0.916231
0.917097
0.917961
0.918824
0.919685
0.920544
0.921402
0.922257
0.923111
0.923963
0.924814
0.925662
0.926509
0.927354
0.928197
0.929038
0.929877
0.930715
0.93155
0.932383
0.933215
0.934045
0.934872
0.935698
0.936521
0.937343
0.938162
0.93898
0.939795
0.940609
0.94142
0.942229
0.943036
0.943841
0.944643
0.945444
0.946242
0.947038
0.947832
0.948624
0.949413
0.9502
0.950985
0.951768
0.952548
0.953326
0.954102
0.954875
0.955646
0.956414
0.95718
0.957944
0.958705
0.959464
0.96022
0.960974
0.961725
0.962474
0.96322
0.963964
0.964705
0.965444
0.96618
0.966913
0.967644
0.968372
0.969097
0.96982
0.97054
0.971257
0.971972
0.972641
0.973271
0.973905
0.974542
0.975182
0.975826
0.976474
0.977124
0.977778
0.978436
0.979096
0.97976
0.980426
0.981096
0.981769
0.982444
0.983123
0.983804
0.984488
0.985175
0.985865
0.986557
0.987252
0.987949
0.988648
0.98935
0.990054
0.99076
0.991468
0.992178
0.992889
0.993603
0.994318
0.995035
0.995754
0.996473
0.997194
0.997916
0.99864
0.999364
1.00009
1.00081
1.00154
1.00227
1.00299
1.00372
1.00445
1.00517
1.0059
1.00663
1.00735
1.00808
1.0088
1.00952
1.01025
1.01097
1.01168
1.0124
1.01312
1.01383
1.01454
1.01525
1.01595
1.01665
1.01735
1.01805
1.01874
1.01943
1.02011
1.02079
1.02147
1.02214
1.0228
1.02346
1.02412
1.02477
1.02541
1.02605
1.02668
1.0273
1.02792
1.02853
1.02913
1.02972
1.03031
1.03088
1.03145
1.03201
1.03256
1.0331
1.03362
1.03414
1.03465
1.03515
1.03563
1.03611
1.03657
1.03702
1.03745
1.03787
1.03828
1.03868
1.03906
1.03943
1.03978
1.04011
1.04043
1.04074
1.04102
1.0413
1.04155
1.04179
1.042
1.0422
1.04238
1.04255
1.04269
1.04281
1.04291
1.04299
1.04305
1.04309
1.04311
1.0431
1.04308
1.04303
1.04295
1.04285
1.04273
1.04259
1.04242
1.04222
1.042
1.04175
1.04148
1.04118
1.04085
1.0405
1.04012
1.03971
1.03927
1.03881
1.03832
1.03779
1.03724
1.03666
1.03605
1.03541
1.03474
1.03404
1.03331
1.03255
1.03176
1.03094
1.03008
1.0292
1.02829
1.02734
1.02636
1.02535
1.02432
1.02325
1.02214
1.02101
1.01985
1.01865
1.01743
1.01617
1.01489
1.01357
1.01222
1.01084
1.00944
1.008
1.00653
1.00504
1.00351
1.00196
1.00038
0.998768
0.997132
0.995288
0.993235
0.991172
0.9891
0.98702
0.984932
0.982839
0.980742
0.978641
0.976539
0.974436
0.972333
0.970232
0.968133
0.966038
0.963948
0.961864
0.959786
0.957716
0.955654
0.953601
0.951559
0.949527
0.947507
0.945499
0.943504
0.941523
0.939556
0.937604
0.935668
0.933749
0.931846
0.929962
0.928095
0.926247
0.924418
0.922609
0.920821
0.919054
0.917307
0.915583
0.913881
0.912202
0.910547
0.908914
0.907306
0.905723
0.904164
0.902631
0.901123
0.899641
0.898186
0.896758
0.895356
0.893982
0.892635
0.891317
0.890027
0.888765
0.887533
0.886329
0.885155
0.884011
0.882897
0.881813
0.88076
0.879738
0.878747
0.877787
0.876859
0.875962
0.875098
0.874266
0.873466
0.8727
0.871966
0.871265
0.870598
0.869964
0.869365
0.868799
0.868268
0.86777
0.867308
0.866881
0.866489
0.866132
0.86581
0.865522
0.86527
0.86505
0.864865
0.864708
0.864603
0.864466
)
;
    }
    bottomWall
    {
        type            calculated;
        value           nonuniform List<scalar> 
449
(
0.139551
0.089026
0.0758802
0.069527
0.0653824
0.062338
0.0600182
0.0583632
0.0575832
0.0581181
0.061497
0.0653603
0.0678933
0.0692567
0.0699703
0.0703368
0.0704864
0.0704873
0.0703857
0.0702241
0.0700216
0.0697967
0.0695611
0.0693211
0.0690809
0.068842
0.0686064
0.0683746
0.0681472
0.0679239
0.0677052
0.0674907
0.0672805
0.0670741
0.066872
0.066674
0.0664803
0.0662905
0.066105
0.0659231
0.0657456
0.0655713
0.0654013
0.0652343
0.0650713
0.064911
0.0647548
0.0646012
0.0644516
0.0643044
0.0641608
0.0640197
0.063882
0.0637466
0.0636144
0.0634843
0.0633573
0.0632323
0.0631103
0.06299
0.0628725
0.0627566
0.0626433
0.0625317
0.0624226
0.0623151
0.0622098
0.0621062
0.0620045
0.0619046
0.0618064
0.0617098
0.0616149
0.0615216
0.0614298
0.0613395
0.0612507
0.0611634
0.0610774
0.0609928
0.0609095
0.0608274
0.0607468
0.060667
0.0605889
0.0605115
0.0604356
0.0603604
0.0602867
0.0602136
0.0601419
0.0600709
0.0600011
0.0599322
0.0598642
0.0597971
0.0597309
0.0596657
0.0596012
0.0595376
0.0594748
0.0594129
0.0593516
0.0592913
0.0592316
0.0591728
0.0591146
0.0590572
0.0590005
0.0589444
0.058889
0.0588343
0.0587802
0.0587268
0.058674
0.0586217
0.0585702
0.0585191
0.0584687
0.0584188
0.0583696
0.0583209
0.0582728
0.0582252
0.0581782
0.0581316
0.0580856
0.05804
0.057995
0.0579503
0.0579062
0.0578624
0.0578192
0.0577764
0.0577341
0.0576923
0.0576508
0.0576099
0.0575693
0.0575293
0.0574893
0.0574502
0.057411
0.0573726
0.0573342
0.0572964
0.0572586
0.0572215
0.0571844
0.0571479
0.0571115
0.0570755
0.0570398
0.0570043
0.0569693
0.0569346
0.0569003
0.0568664
0.0568329
0.0567997
0.0567668
0.0567343
0.0567019
0.05667
0.0566381
0.0566067
0.0565756
0.0565448
0.0565143
0.056484
0.056454
0.0564241
0.0563944
0.0563666
0.0563402
0.0563137
0.0562871
0.0562604
0.0562338
0.0562071
0.0561806
0.056154
0.0561274
0.0561008
0.0560743
0.0560478
0.0560215
0.0559954
0.0559694
0.0559436
0.0559179
0.0558923
0.0558668
0.0558414
0.055816
0.0557907
0.0557654
0.0557401
0.055715
0.0556898
0.0556647
0.0556395
0.0556144
0.0555892
0.0555642
0.0555391
0.0555141
0.055489
0.055464
0.055439
0.055414
0.0553889
0.0553639
0.0553388
0.0553139
0.0552894
0.0552646
0.0552403
0.0552157
0.0551911
0.0551667
0.0551422
0.055118
0.0550937
0.0550698
0.0550461
0.0550226
0.0549994
0.0549764
0.0549533
0.0549305
0.0549077
0.0548849
0.0548622
0.0548394
0.0548165
0.0547938
0.0547714
0.0547489
0.0547271
0.0547049
0.054683
0.0546613
0.0546398
0.0546184
0.0545973
0.0545765
0.0545556
0.0545351
0.0545144
0.0544942
0.0544737
0.0544536
0.0544337
0.0544137
0.054394
0.0543744
0.0543554
0.0543362
0.0543175
0.0542986
0.0542795
0.0542607
0.0542413
0.0542223
0.0542036
0.0541849
0.0541665
0.0541483
0.0541299
0.0541118
0.0540936
0.0540757
0.0540584
0.0540414
0.0540242
0.054007
0.0539902
0.0539728
0.0539555
0.0539387
0.0539215
0.0539045
0.0538878
0.0538707
0.053854
0.0538375
0.0538207
0.0538042
0.0537877
0.053771
0.053755
0.0537384
0.0537223
0.0537062
0.0536903
0.053674
0.0536581
0.0536421
0.0536256
0.0536092
0.0535933
0.0535771
0.0535612
0.0535452
0.053529
0.0535133
0.0534968
0.0534804
0.0534647
0.0534488
0.053433
0.0534177
0.0534019
0.0533862
0.0533708
0.0533549
0.0533393
0.0533243
0.0533089
0.0532938
0.053279
0.0532637
0.0532486
0.0532338
0.0532185
0.0532034
0.0531887
0.0531734
0.0531584
0.0531437
0.0531286
0.0531137
0.0530991
0.053084
0.0530693
0.0530546
0.0530398
0.0530249
0.0530105
0.0529956
0.0529813
0.0529666
0.052952
0.0529371
0.0529216
0.0529064
0.0528924
0.0528776
0.0528642
0.05285
0.0528365
0.0528226
0.0528087
0.0527941
0.0527781
0.0527631
0.0527478
0.0527331
0.0527176
0.0527021
0.0526867
0.0526715
0.0526564
0.0526423
0.0526286
0.0526148
0.052601
0.052588
0.0525741
0.0525609
0.0525477
0.0525346
0.0525225
0.05251
0.0524984
0.0524866
0.0524752
0.0524638
0.0524524
0.0524407
0.0524296
0.052419
0.0524077
0.0523975
0.0523869
0.0523767
0.0523662
0.0523561
0.0523464
0.0523359
0.0523267
0.0523169
0.0523077
0.0522982
0.0522888
0.0522801
0.0522708
0.0522623
0.0522534
0.0522445
0.0522357
0.052226
0.0522173
0.0522082
0.0521993
0.0521908
0.0521814
0.0521732
0.0521647
0.0521567
0.0521482
0.0521405
0.0521327
0.0521244
0.0521171
0.0521098
0.0521018
0.0520945
0.0520871
0.0520795
0.0520725
0.0520653
0.0520579
0.0520511
0.052044
0.0520367
0.0520302
0.0520229
0.0520165
0.0520092
0.0520027
0.0519963
0.0519899
0.0519843
0.0519781
0.0519714
0.0519653
0.0519587
0.0519521
0.0519461
0.0519399
0.0519334
0.0519283
0.0519213
0.0519173
0.0519071
0.0519107
0.0518954
)
;
    }
    symmetry
    {
        type            symmetryPlane;
    }
    frontAndBack
    {
        type            empty;
    }
}


// ************************************************************************* //
