/*--------------------------------*- C++ -*----------------------------------*\
| =========                 |                                                 |
| \\      /  F ield         | OpenFOAM: The Open Source CFD Toolbox           |
|  \\    /   O peration     | Version:  v2012                                 |
|   \\  /    A nd           | Website:  www.openfoam.com                      |
|    \\/     M anipulation  |                                                 |
\*---------------------------------------------------------------------------*/
FoamFile
{
    version     2.0;
    format      ascii;
    class       volScalarField;
    location    "16";
    object      nut;
}
// * * * * * * * * * * * * * * * * * * * * * * * * * * * * * * * * * * * * * //

dimensions      [0 2 -1 0 0 0 0];


internalField   nonuniform List<scalar> 
209825
(
1.22789e-07
1.14269e-07
1.07426e-07
1.02643e-07
9.92014e-08
9.66289e-08
9.46132e-08
9.30104e-08
9.16853e-08
9.05961e-08
8.96617e-08
8.88777e-08
8.81887e-08
8.7599e-08
8.70719e-08
8.66208e-08
8.6208e-08
8.58535e-08
8.5522e-08
8.52376e-08
8.49676e-08
8.47349e-08
8.45114e-08
8.43231e-08
8.41376e-08
8.39807e-08
8.38244e-08
8.36972e-08
8.35662e-08
8.3454e-08
8.33485e-08
8.32607e-08
8.31712e-08
8.30965e-08
8.30152e-08
8.29462e-08
8.28821e-08
8.28271e-08
8.27685e-08
8.27224e-08
8.26687e-08
8.26252e-08
8.25839e-08
8.25465e-08
8.25077e-08
8.2474e-08
8.24441e-08
8.24128e-08
8.23819e-08
8.23597e-08
8.23311e-08
8.22935e-08
8.22777e-08
8.22664e-08
8.22334e-08
8.22242e-08
8.22043e-08
8.21777e-08
8.21368e-08
8.21389e-08
8.21389e-08
8.21386e-08
8.21294e-08
8.21471e-08
8.21517e-08
8.21517e-08
8.21643e-08
8.21689e-08
8.22151e-08
8.22316e-08
8.22241e-08
8.22433e-08
8.22778e-08
8.23067e-08
8.23458e-08
8.23936e-08
8.24241e-08
8.24681e-08
8.24903e-08
8.25432e-08
8.25821e-08
8.26506e-08
8.27015e-08
8.27927e-08
8.28328e-08
8.29425e-08
8.2986e-08
8.31229e-08
8.31919e-08
8.33454e-08
8.34347e-08
8.36788e-08
8.37532e-08
8.44897e-08
2.98052e-06
1.14674e-08
1.22789e-07
1.14271e-07
1.07427e-07
1.02644e-07
9.92026e-08
9.66298e-08
9.46138e-08
9.30108e-08
9.16855e-08
9.05961e-08
8.96615e-08
8.88773e-08
8.81882e-08
8.75984e-08
8.70712e-08
8.662e-08
8.62071e-08
8.58526e-08
8.5521e-08
8.52365e-08
8.49664e-08
8.47336e-08
8.45101e-08
8.43218e-08
8.41362e-08
8.39793e-08
8.3823e-08
8.36957e-08
8.35647e-08
8.34525e-08
8.33469e-08
8.32591e-08
8.31695e-08
8.30949e-08
8.30135e-08
8.29445e-08
8.28804e-08
8.28254e-08
8.27668e-08
8.27207e-08
8.2667e-08
8.26234e-08
8.25821e-08
8.25447e-08
8.25059e-08
8.24722e-08
8.24422e-08
8.24109e-08
8.238e-08
8.23579e-08
8.23292e-08
8.22916e-08
8.22759e-08
8.22645e-08
8.22315e-08
8.22223e-08
8.22024e-08
8.21758e-08
8.21349e-08
8.2137e-08
8.2137e-08
8.21366e-08
8.21275e-08
8.21452e-08
8.21497e-08
8.21497e-08
8.21623e-08
8.2167e-08
8.22131e-08
8.22296e-08
8.22222e-08
8.22414e-08
8.22758e-08
8.23047e-08
8.23438e-08
8.23916e-08
8.24221e-08
8.24661e-08
8.24883e-08
8.25412e-08
8.25801e-08
8.26486e-08
8.26994e-08
8.27907e-08
8.28308e-08
8.29405e-08
8.2984e-08
8.31209e-08
8.31898e-08
8.33434e-08
8.34327e-08
8.36768e-08
8.37511e-08
8.44888e-08
2.98196e-06
1.15922e-08
1.22792e-07
1.14278e-07
1.07434e-07
1.0265e-07
9.92071e-08
9.66331e-08
9.4616e-08
9.30121e-08
9.16859e-08
9.05958e-08
8.96606e-08
8.88759e-08
8.81863e-08
8.7596e-08
8.70684e-08
8.66168e-08
8.62036e-08
8.58488e-08
8.5517e-08
8.52323e-08
8.49619e-08
8.47289e-08
8.45052e-08
8.43167e-08
8.4131e-08
8.39739e-08
8.38175e-08
8.36901e-08
8.35589e-08
8.34466e-08
8.33409e-08
8.3253e-08
8.31634e-08
8.30887e-08
8.30072e-08
8.29381e-08
8.28739e-08
8.28188e-08
8.27602e-08
8.2714e-08
8.26603e-08
8.26166e-08
8.25753e-08
8.25378e-08
8.2499e-08
8.24652e-08
8.24353e-08
8.24039e-08
8.2373e-08
8.23508e-08
8.23222e-08
8.22845e-08
8.22687e-08
8.22573e-08
8.22243e-08
8.22151e-08
8.21952e-08
8.21686e-08
8.21276e-08
8.21296e-08
8.21296e-08
8.21293e-08
8.21201e-08
8.21378e-08
8.21423e-08
8.21423e-08
8.21549e-08
8.21595e-08
8.22056e-08
8.22222e-08
8.22147e-08
8.22339e-08
8.22683e-08
8.22971e-08
8.23363e-08
8.2384e-08
8.24145e-08
8.24585e-08
8.24807e-08
8.25336e-08
8.25724e-08
8.2641e-08
8.26918e-08
8.2783e-08
8.28231e-08
8.29327e-08
8.29762e-08
8.31131e-08
8.3182e-08
8.33356e-08
8.34248e-08
8.36689e-08
8.3743e-08
8.44831e-08
2.98606e-06
1.17912e-08
1.22797e-07
1.14289e-07
1.07446e-07
1.0266e-07
9.92147e-08
9.66386e-08
9.46198e-08
9.30142e-08
9.16867e-08
9.05953e-08
8.96591e-08
8.88735e-08
8.81831e-08
8.7592e-08
8.70638e-08
8.66116e-08
8.61978e-08
8.58426e-08
8.55103e-08
8.52252e-08
8.49545e-08
8.47212e-08
8.44972e-08
8.43084e-08
8.41224e-08
8.3965e-08
8.38084e-08
8.36807e-08
8.35494e-08
8.34369e-08
8.33311e-08
8.32429e-08
8.31532e-08
8.30783e-08
8.29967e-08
8.29275e-08
8.28632e-08
8.2808e-08
8.27492e-08
8.2703e-08
8.26491e-08
8.26054e-08
8.2564e-08
8.25265e-08
8.24875e-08
8.24538e-08
8.24237e-08
8.23923e-08
8.23614e-08
8.23391e-08
8.23105e-08
8.22728e-08
8.22569e-08
8.22455e-08
8.22125e-08
8.22032e-08
8.21832e-08
8.21567e-08
8.21156e-08
8.21175e-08
8.21175e-08
8.21172e-08
8.21079e-08
8.21255e-08
8.213e-08
8.21299e-08
8.21425e-08
8.21472e-08
8.21932e-08
8.22098e-08
8.22024e-08
8.22215e-08
8.22558e-08
8.22846e-08
8.23237e-08
8.23714e-08
8.24019e-08
8.24459e-08
8.24682e-08
8.2521e-08
8.25598e-08
8.26283e-08
8.2679e-08
8.27702e-08
8.28103e-08
8.29199e-08
8.29634e-08
8.31001e-08
8.31691e-08
8.33225e-08
8.34116e-08
8.36557e-08
8.37294e-08
8.44733e-08
2.99269e-06
1.20457e-08
1.22804e-07
1.14306e-07
1.07463e-07
1.02674e-07
9.92255e-08
9.66465e-08
9.46251e-08
9.30173e-08
9.16879e-08
9.05949e-08
8.96572e-08
8.88702e-08
8.81786e-08
8.75866e-08
8.70574e-08
8.66044e-08
8.61899e-08
8.58339e-08
8.5501e-08
8.52153e-08
8.49441e-08
8.47103e-08
8.44859e-08
8.42967e-08
8.41103e-08
8.39526e-08
8.37956e-08
8.36677e-08
8.35361e-08
8.34234e-08
8.33172e-08
8.32289e-08
8.31389e-08
8.30638e-08
8.2982e-08
8.29127e-08
8.28481e-08
8.27929e-08
8.27339e-08
8.26875e-08
8.26336e-08
8.25897e-08
8.25482e-08
8.25106e-08
8.24715e-08
8.24377e-08
8.24076e-08
8.23761e-08
8.2345e-08
8.23228e-08
8.22941e-08
8.22563e-08
8.22404e-08
8.2229e-08
8.21958e-08
8.21866e-08
8.21665e-08
8.21399e-08
8.20988e-08
8.21005e-08
8.21005e-08
8.21002e-08
8.20908e-08
8.21084e-08
8.21127e-08
8.21126e-08
8.21253e-08
8.21299e-08
8.21757e-08
8.21925e-08
8.21851e-08
8.22041e-08
8.22383e-08
8.22671e-08
8.2306e-08
8.23538e-08
8.23843e-08
8.24283e-08
8.24505e-08
8.25033e-08
8.2542e-08
8.26105e-08
8.26611e-08
8.27523e-08
8.27923e-08
8.29019e-08
8.29454e-08
8.30819e-08
8.31509e-08
8.33042e-08
8.33932e-08
8.36372e-08
8.37103e-08
8.44595e-08
3.00192e-06
1.23502e-08
1.22813e-07
1.14327e-07
1.07485e-07
1.02692e-07
9.92396e-08
9.66569e-08
9.46321e-08
9.30215e-08
9.16895e-08
9.05943e-08
8.96547e-08
8.8866e-08
8.81729e-08
8.75796e-08
8.70492e-08
8.65951e-08
8.61796e-08
8.58227e-08
8.5489e-08
8.52026e-08
8.49308e-08
8.46964e-08
8.44713e-08
8.42816e-08
8.40947e-08
8.39366e-08
8.37792e-08
8.36509e-08
8.35189e-08
8.34058e-08
8.32994e-08
8.32107e-08
8.31204e-08
8.30451e-08
8.29631e-08
8.28936e-08
8.28288e-08
8.27733e-08
8.27141e-08
8.26676e-08
8.26135e-08
8.25695e-08
8.25278e-08
8.24901e-08
8.24508e-08
8.24169e-08
8.23867e-08
8.23552e-08
8.2324e-08
8.23017e-08
8.22729e-08
8.2235e-08
8.2219e-08
8.22075e-08
8.21744e-08
8.2165e-08
8.21449e-08
8.21183e-08
8.2077e-08
8.20786e-08
8.20786e-08
8.20782e-08
8.20687e-08
8.20862e-08
8.20904e-08
8.20902e-08
8.21029e-08
8.21075e-08
8.21532e-08
8.217e-08
8.21628e-08
8.21816e-08
8.22157e-08
8.22444e-08
8.22832e-08
8.23309e-08
8.23614e-08
8.24054e-08
8.24277e-08
8.24804e-08
8.2519e-08
8.25874e-08
8.26379e-08
8.27291e-08
8.27691e-08
8.28786e-08
8.29221e-08
8.30583e-08
8.31273e-08
8.32805e-08
8.33693e-08
8.36132e-08
8.36856e-08
8.44416e-08
3.01383e-06
1.27036e-08
1.22824e-07
1.14354e-07
1.07511e-07
1.02714e-07
9.9257e-08
9.66697e-08
9.46409e-08
9.30267e-08
9.16917e-08
9.05938e-08
8.96518e-08
8.8861e-08
8.81661e-08
8.7571e-08
8.70392e-08
8.65838e-08
8.6167e-08
8.58091e-08
8.54744e-08
8.51871e-08
8.49144e-08
8.46792e-08
8.44534e-08
8.42631e-08
8.40756e-08
8.39169e-08
8.3759e-08
8.36302e-08
8.34978e-08
8.33843e-08
8.32774e-08
8.31884e-08
8.30977e-08
8.30222e-08
8.29398e-08
8.287e-08
8.28049e-08
8.27492e-08
8.26898e-08
8.2643e-08
8.25887e-08
8.25446e-08
8.25027e-08
8.24648e-08
8.24254e-08
8.23914e-08
8.2361e-08
8.23294e-08
8.22981e-08
8.22757e-08
8.22468e-08
8.22088e-08
8.21927e-08
8.21812e-08
8.2148e-08
8.21385e-08
8.21183e-08
8.20916e-08
8.20502e-08
8.20515e-08
8.20515e-08
8.20512e-08
8.20415e-08
8.20588e-08
8.20629e-08
8.20626e-08
8.20754e-08
8.208e-08
8.21254e-08
8.21424e-08
8.21352e-08
8.21539e-08
8.21879e-08
8.22165e-08
8.22552e-08
8.23028e-08
8.23333e-08
8.23773e-08
8.23996e-08
8.24522e-08
8.24907e-08
8.25591e-08
8.26094e-08
8.27005e-08
8.27405e-08
8.28499e-08
8.28934e-08
8.30293e-08
8.30983e-08
8.32513e-08
8.33399e-08
8.35837e-08
8.36552e-08
8.44195e-08
3.02846e-06
1.31078e-08
1.22837e-07
1.14385e-07
1.07544e-07
1.02741e-07
9.92779e-08
9.66851e-08
9.46515e-08
9.30331e-08
9.16943e-08
9.05932e-08
8.96484e-08
8.88551e-08
8.81579e-08
8.7561e-08
8.70273e-08
8.65703e-08
8.61521e-08
8.57928e-08
8.54569e-08
8.51686e-08
8.48948e-08
8.46588e-08
8.44322e-08
8.4241e-08
8.40529e-08
8.38935e-08
8.3735e-08
8.36056e-08
8.34726e-08
8.33587e-08
8.32512e-08
8.31618e-08
8.30707e-08
8.29948e-08
8.29121e-08
8.28419e-08
8.27765e-08
8.27205e-08
8.26608e-08
8.26138e-08
8.25593e-08
8.25149e-08
8.24728e-08
8.24347e-08
8.23951e-08
8.23609e-08
8.23304e-08
8.22987e-08
8.22672e-08
8.22447e-08
8.22157e-08
8.21777e-08
8.21613e-08
8.21498e-08
8.21165e-08
8.21069e-08
8.20867e-08
8.20599e-08
8.20183e-08
8.20194e-08
8.20193e-08
8.2019e-08
8.2009e-08
8.20263e-08
8.20302e-08
8.20298e-08
8.20426e-08
8.20472e-08
8.20923e-08
8.21095e-08
8.21024e-08
8.21209e-08
8.21547e-08
8.21833e-08
8.22217e-08
8.22693e-08
8.22997e-08
8.23438e-08
8.2366e-08
8.24186e-08
8.2457e-08
8.25253e-08
8.25753e-08
8.26665e-08
8.27064e-08
8.28157e-08
8.28592e-08
8.29947e-08
8.30637e-08
8.32164e-08
8.33048e-08
8.35484e-08
8.36189e-08
8.43932e-08
3.04585e-06
1.35667e-08
1.22852e-07
1.14421e-07
1.07581e-07
1.02773e-07
9.93024e-08
9.67032e-08
9.46639e-08
9.30406e-08
9.16975e-08
9.05926e-08
8.96445e-08
8.88483e-08
8.81486e-08
8.75493e-08
8.70135e-08
8.65547e-08
8.61347e-08
8.5774e-08
8.54367e-08
8.51471e-08
8.48722e-08
8.46351e-08
8.44075e-08
8.42154e-08
8.40264e-08
8.38663e-08
8.3707e-08
8.3577e-08
8.34434e-08
8.33288e-08
8.32208e-08
8.31309e-08
8.30393e-08
8.29629e-08
8.28798e-08
8.28093e-08
8.27434e-08
8.26871e-08
8.26271e-08
8.25798e-08
8.2525e-08
8.24803e-08
8.24379e-08
8.23997e-08
8.23597e-08
8.23255e-08
8.22948e-08
8.2263e-08
8.22312e-08
8.22086e-08
8.21795e-08
8.21413e-08
8.21248e-08
8.21132e-08
8.20798e-08
8.20702e-08
8.20498e-08
8.20229e-08
8.19812e-08
8.19819e-08
8.19818e-08
8.19815e-08
8.19712e-08
8.19883e-08
8.19921e-08
8.19915e-08
8.20045e-08
8.2009e-08
8.20537e-08
8.20712e-08
8.20642e-08
8.20825e-08
8.2116e-08
8.21446e-08
8.21827e-08
8.22303e-08
8.22607e-08
8.23048e-08
8.2327e-08
8.23795e-08
8.24177e-08
8.24859e-08
8.25357e-08
8.26268e-08
8.26667e-08
8.27758e-08
8.28194e-08
8.29544e-08
8.30234e-08
8.31758e-08
8.3264e-08
8.35074e-08
8.35767e-08
8.43625e-08
3.06598e-06
1.40858e-08
1.22868e-07
1.14463e-07
1.07624e-07
1.02809e-07
9.93306e-08
9.67241e-08
9.46783e-08
9.30493e-08
9.17013e-08
9.05922e-08
8.96402e-08
8.88407e-08
8.81379e-08
8.7536e-08
8.69979e-08
8.65369e-08
8.6115e-08
8.57525e-08
8.54136e-08
8.51226e-08
8.48463e-08
8.4608e-08
8.43793e-08
8.41862e-08
8.39962e-08
8.38352e-08
8.36751e-08
8.35442e-08
8.341e-08
8.32948e-08
8.31861e-08
8.30955e-08
8.30034e-08
8.29265e-08
8.2843e-08
8.2772e-08
8.27056e-08
8.26489e-08
8.25885e-08
8.25409e-08
8.24857e-08
8.24408e-08
8.23981e-08
8.23596e-08
8.23194e-08
8.22849e-08
8.2254e-08
8.22221e-08
8.21901e-08
8.21674e-08
8.21381e-08
8.20998e-08
8.2083e-08
8.20714e-08
8.20379e-08
8.20281e-08
8.20076e-08
8.19806e-08
8.19387e-08
8.1939e-08
8.19389e-08
8.19386e-08
8.1928e-08
8.19449e-08
8.19485e-08
8.19477e-08
8.19608e-08
8.19653e-08
8.20096e-08
8.20273e-08
8.20205e-08
8.20385e-08
8.20718e-08
8.21002e-08
8.21381e-08
8.21856e-08
8.2216e-08
8.22601e-08
8.22823e-08
8.23347e-08
8.23727e-08
8.24407e-08
8.24903e-08
8.25814e-08
8.26212e-08
8.27302e-08
8.27737e-08
8.29082e-08
8.29772e-08
8.31293e-08
8.32172e-08
8.34604e-08
8.35284e-08
8.43274e-08
3.08885e-06
1.46725e-08
1.22887e-07
1.1451e-07
1.07672e-07
1.0285e-07
9.93625e-08
9.67478e-08
9.46946e-08
9.30594e-08
9.17058e-08
9.05918e-08
8.96355e-08
8.88322e-08
8.81261e-08
8.75212e-08
8.69803e-08
8.65169e-08
8.60929e-08
8.57284e-08
8.53877e-08
8.5095e-08
8.48172e-08
8.45776e-08
8.43475e-08
8.41533e-08
8.39622e-08
8.38002e-08
8.36391e-08
8.35074e-08
8.33723e-08
8.32563e-08
8.31469e-08
8.30557e-08
8.29629e-08
8.28854e-08
8.28013e-08
8.27299e-08
8.2663e-08
8.26059e-08
8.2545e-08
8.2497e-08
8.24415e-08
8.23962e-08
8.23531e-08
8.23144e-08
8.22738e-08
8.22391e-08
8.2208e-08
8.21759e-08
8.21436e-08
8.21208e-08
8.20914e-08
8.20529e-08
8.20358e-08
8.20242e-08
8.19905e-08
8.19806e-08
8.19599e-08
8.19328e-08
8.18907e-08
8.18905e-08
8.18905e-08
8.18901e-08
8.18792e-08
8.1896e-08
8.18993e-08
8.18983e-08
8.19114e-08
8.1916e-08
8.19598e-08
8.19777e-08
8.19711e-08
8.19888e-08
8.20219e-08
8.20502e-08
8.20877e-08
8.21351e-08
8.21654e-08
8.22097e-08
8.22318e-08
8.2284e-08
8.23219e-08
8.23898e-08
8.24391e-08
8.25301e-08
8.25698e-08
8.26786e-08
8.27222e-08
8.28561e-08
8.29251e-08
8.30768e-08
8.31643e-08
8.34073e-08
8.34737e-08
8.42878e-08
3.11437e-06
1.53356e-08
1.22908e-07
1.14562e-07
1.07726e-07
1.02895e-07
9.93983e-08
9.67744e-08
9.47131e-08
9.30708e-08
9.1711e-08
9.05915e-08
8.96304e-08
8.88229e-08
8.8113e-08
8.75048e-08
8.69609e-08
8.64948e-08
8.60682e-08
8.57016e-08
8.53588e-08
8.50643e-08
8.47848e-08
8.45436e-08
8.43121e-08
8.41166e-08
8.39242e-08
8.37612e-08
8.3599e-08
8.34663e-08
8.33303e-08
8.32135e-08
8.31031e-08
8.30112e-08
8.29177e-08
8.28396e-08
8.27549e-08
8.26829e-08
8.26154e-08
8.25578e-08
8.24964e-08
8.2448e-08
8.23921e-08
8.23464e-08
8.23029e-08
8.22639e-08
8.22229e-08
8.21881e-08
8.21567e-08
8.21244e-08
8.20918e-08
8.20688e-08
8.20392e-08
8.20005e-08
8.19832e-08
8.19714e-08
8.19377e-08
8.19275e-08
8.19067e-08
8.18795e-08
8.18371e-08
8.18364e-08
8.18364e-08
8.18361e-08
8.18248e-08
8.18413e-08
8.18443e-08
8.18431e-08
8.18564e-08
8.18609e-08
8.19041e-08
8.19224e-08
8.19159e-08
8.19334e-08
8.19661e-08
8.19943e-08
8.20315e-08
8.20788e-08
8.2109e-08
8.21533e-08
8.21754e-08
8.22275e-08
8.22652e-08
8.23329e-08
8.23818e-08
8.24729e-08
8.25124e-08
8.2621e-08
8.26646e-08
8.27979e-08
8.28668e-08
8.30182e-08
8.31053e-08
8.3348e-08
8.34128e-08
8.42436e-08
3.14242e-06
1.60851e-08
1.22931e-07
1.14619e-07
1.07785e-07
1.02946e-07
9.94381e-08
9.68041e-08
9.47338e-08
9.30836e-08
9.17169e-08
9.05914e-08
8.9625e-08
8.88128e-08
8.80987e-08
8.74868e-08
8.69395e-08
8.64704e-08
8.60411e-08
8.5672e-08
8.5327e-08
8.50304e-08
8.47491e-08
8.45062e-08
8.42731e-08
8.4076e-08
8.38823e-08
8.3718e-08
8.35546e-08
8.34208e-08
8.32839e-08
8.31661e-08
8.30548e-08
8.29621e-08
8.28677e-08
8.2789e-08
8.27036e-08
8.2631e-08
8.25628e-08
8.25047e-08
8.24427e-08
8.23938e-08
8.23374e-08
8.22914e-08
8.22474e-08
8.2208e-08
8.21666e-08
8.21315e-08
8.20999e-08
8.20674e-08
8.20344e-08
8.20113e-08
8.19815e-08
8.19426e-08
8.19249e-08
8.19131e-08
8.18792e-08
8.18688e-08
8.18478e-08
8.18205e-08
8.17779e-08
8.17766e-08
8.17765e-08
8.17762e-08
8.17645e-08
8.17807e-08
8.17835e-08
8.1782e-08
8.17954e-08
8.17999e-08
8.18426e-08
8.18611e-08
8.18549e-08
8.1872e-08
8.19043e-08
8.19324e-08
8.19692e-08
8.20164e-08
8.20466e-08
8.20909e-08
8.2113e-08
8.21649e-08
8.22023e-08
8.22699e-08
8.23185e-08
8.24094e-08
8.24489e-08
8.25572e-08
8.26008e-08
8.27334e-08
8.28023e-08
8.29533e-08
8.30399e-08
8.32823e-08
8.33452e-08
8.41945e-08
3.17282e-06
1.69326e-08
1.22955e-07
1.14681e-07
1.0785e-07
1.03001e-07
9.94819e-08
9.68369e-08
9.47568e-08
9.3098e-08
9.17237e-08
9.05916e-08
8.96193e-08
8.88019e-08
8.80833e-08
8.74673e-08
8.69162e-08
8.64438e-08
8.60115e-08
8.56397e-08
8.52922e-08
8.49934e-08
8.47099e-08
8.44652e-08
8.42303e-08
8.40317e-08
8.38364e-08
8.36708e-08
8.3506e-08
8.33711e-08
8.3233e-08
8.31142e-08
8.30018e-08
8.29082e-08
8.28129e-08
8.27334e-08
8.26473e-08
8.2574e-08
8.25051e-08
8.24464e-08
8.23838e-08
8.23344e-08
8.22775e-08
8.2231e-08
8.21865e-08
8.21467e-08
8.21048e-08
8.20695e-08
8.20376e-08
8.20048e-08
8.19714e-08
8.19481e-08
8.19181e-08
8.1879e-08
8.1861e-08
8.1849e-08
8.1815e-08
8.18043e-08
8.17831e-08
8.17557e-08
8.17129e-08
8.17109e-08
8.17108e-08
8.17105e-08
8.16983e-08
8.17143e-08
8.17167e-08
8.17149e-08
8.17284e-08
8.17329e-08
8.1775e-08
8.17938e-08
8.17878e-08
8.18046e-08
8.18365e-08
8.18645e-08
8.19008e-08
8.19479e-08
8.1978e-08
8.20224e-08
8.20444e-08
8.20962e-08
8.21333e-08
8.22007e-08
8.22489e-08
8.23397e-08
8.2379e-08
8.24871e-08
8.25308e-08
8.26625e-08
8.27315e-08
8.28819e-08
8.29681e-08
8.32102e-08
8.32711e-08
8.41406e-08
3.20534e-06
1.78907e-08
1.22981e-07
1.14749e-07
1.07921e-07
1.03062e-07
9.953e-08
9.6873e-08
9.47822e-08
9.31139e-08
9.17314e-08
9.0592e-08
8.96134e-08
8.87903e-08
8.80666e-08
8.74462e-08
8.68911e-08
8.64151e-08
8.59794e-08
8.56046e-08
8.52544e-08
8.49531e-08
8.46674e-08
8.44206e-08
8.41837e-08
8.39834e-08
8.37865e-08
8.36193e-08
8.34532e-08
8.33168e-08
8.31775e-08
8.30576e-08
8.29441e-08
8.28494e-08
8.27532e-08
8.26729e-08
8.2586e-08
8.25119e-08
8.24422e-08
8.23828e-08
8.23196e-08
8.22696e-08
8.22121e-08
8.21651e-08
8.212e-08
8.20799e-08
8.20374e-08
8.20018e-08
8.19696e-08
8.19365e-08
8.19027e-08
8.18792e-08
8.18489e-08
8.18096e-08
8.17912e-08
8.17792e-08
8.17449e-08
8.1734e-08
8.17126e-08
8.1685e-08
8.16419e-08
8.16393e-08
8.16392e-08
8.16389e-08
8.16261e-08
8.16418e-08
8.16438e-08
8.16416e-08
8.16553e-08
8.16598e-08
8.17012e-08
8.17204e-08
8.17146e-08
8.1731e-08
8.17625e-08
8.17903e-08
8.18262e-08
8.18731e-08
8.19031e-08
8.19476e-08
8.19696e-08
8.20211e-08
8.2058e-08
8.21252e-08
8.21729e-08
8.22637e-08
8.23028e-08
8.24106e-08
8.24543e-08
8.25852e-08
8.26541e-08
8.2804e-08
8.28896e-08
8.31314e-08
8.31901e-08
8.40816e-08
3.23966e-06
1.89736e-08
1.23009e-07
1.14821e-07
1.07999e-07
1.03128e-07
9.95825e-08
9.69125e-08
9.481e-08
9.31316e-08
9.17401e-08
9.05928e-08
8.96073e-08
8.87781e-08
8.80488e-08
8.74235e-08
8.6864e-08
8.63841e-08
8.59448e-08
8.55668e-08
8.52136e-08
8.49097e-08
8.46214e-08
8.43724e-08
8.41334e-08
8.39311e-08
8.37324e-08
8.35636e-08
8.33959e-08
8.32581e-08
8.31175e-08
8.29964e-08
8.28816e-08
8.27858e-08
8.26885e-08
8.26073e-08
8.25195e-08
8.24446e-08
8.2374e-08
8.2314e-08
8.22499e-08
8.21993e-08
8.21413e-08
8.20937e-08
8.2048e-08
8.20074e-08
8.19643e-08
8.19284e-08
8.18958e-08
8.18625e-08
8.18282e-08
8.18045e-08
8.17739e-08
8.17343e-08
8.17155e-08
8.17034e-08
8.16689e-08
8.16577e-08
8.1636e-08
8.16083e-08
8.1565e-08
8.15615e-08
8.15614e-08
8.15612e-08
8.15477e-08
8.15632e-08
8.15647e-08
8.15622e-08
8.1576e-08
8.15806e-08
8.16212e-08
8.16406e-08
8.16351e-08
8.16511e-08
8.16822e-08
8.17098e-08
8.17452e-08
8.1792e-08
8.18219e-08
8.18664e-08
8.18883e-08
8.19396e-08
8.19762e-08
8.20432e-08
8.20904e-08
8.21811e-08
8.22201e-08
8.23276e-08
8.23712e-08
8.25012e-08
8.257e-08
8.27194e-08
8.28045e-08
8.30459e-08
8.31023e-08
8.40173e-08
3.27537e-06
2.01968e-08
1.23039e-07
1.14899e-07
1.08082e-07
1.032e-07
9.96395e-08
9.69556e-08
9.48406e-08
9.31511e-08
9.17499e-08
9.05941e-08
8.9601e-08
8.87652e-08
8.803e-08
8.73994e-08
8.68351e-08
8.63509e-08
8.59077e-08
8.55262e-08
8.51698e-08
8.48629e-08
8.4572e-08
8.43206e-08
8.40793e-08
8.38749e-08
8.36742e-08
8.35037e-08
8.33342e-08
8.31949e-08
8.30528e-08
8.29304e-08
8.28142e-08
8.27173e-08
8.26188e-08
8.25365e-08
8.24478e-08
8.2372e-08
8.23005e-08
8.22397e-08
8.21748e-08
8.21235e-08
8.20648e-08
8.20166e-08
8.19702e-08
8.19291e-08
8.18855e-08
8.18492e-08
8.18162e-08
8.17826e-08
8.17478e-08
8.17238e-08
8.1693e-08
8.16531e-08
8.16338e-08
8.16215e-08
8.15868e-08
8.15754e-08
8.15534e-08
8.15255e-08
8.14819e-08
8.14776e-08
8.14775e-08
8.14773e-08
8.14631e-08
8.14783e-08
8.14793e-08
8.14764e-08
8.14904e-08
8.14949e-08
8.15347e-08
8.15545e-08
8.15493e-08
8.15649e-08
8.15955e-08
8.16229e-08
8.16577e-08
8.17044e-08
8.17341e-08
8.17786e-08
8.18005e-08
8.18516e-08
8.18879e-08
8.19546e-08
8.20014e-08
8.20918e-08
8.21307e-08
8.22378e-08
8.22815e-08
8.24105e-08
8.24792e-08
8.2628e-08
8.27125e-08
8.29535e-08
8.30074e-08
8.39477e-08
3.31199e-06
2.15768e-08
1.2307e-07
1.14983e-07
1.08171e-07
1.03277e-07
9.97011e-08
9.70023e-08
9.48739e-08
9.31726e-08
9.17609e-08
9.0596e-08
8.95947e-08
8.87517e-08
8.80101e-08
8.73739e-08
8.68044e-08
8.63155e-08
8.58681e-08
8.54829e-08
8.51229e-08
8.4813e-08
8.45191e-08
8.42651e-08
8.40212e-08
8.38146e-08
8.36118e-08
8.34394e-08
8.32681e-08
8.31271e-08
8.29834e-08
8.28595e-08
8.27419e-08
8.26437e-08
8.25439e-08
8.24606e-08
8.23708e-08
8.22941e-08
8.22215e-08
8.21599e-08
8.20942e-08
8.20421e-08
8.19827e-08
8.19338e-08
8.18867e-08
8.1845e-08
8.18008e-08
8.17641e-08
8.17307e-08
8.16967e-08
8.16614e-08
8.16371e-08
8.1606e-08
8.15658e-08
8.1546e-08
8.15336e-08
8.14986e-08
8.14868e-08
8.14645e-08
8.14365e-08
8.13926e-08
8.13875e-08
8.13873e-08
8.13871e-08
8.13722e-08
8.1387e-08
8.13876e-08
8.13842e-08
8.13983e-08
8.14029e-08
8.14418e-08
8.14619e-08
8.14569e-08
8.14721e-08
8.15023e-08
8.15294e-08
8.15637e-08
8.16101e-08
8.16397e-08
8.16843e-08
8.17061e-08
8.1757e-08
8.17929e-08
8.18594e-08
8.19055e-08
8.19958e-08
8.20345e-08
8.21412e-08
8.21849e-08
8.2313e-08
8.23815e-08
8.25297e-08
8.26135e-08
8.2854e-08
8.29054e-08
8.38724e-08
3.34893e-06
2.31318e-08
1.23103e-07
1.15071e-07
1.08266e-07
1.0336e-07
9.97676e-08
9.70529e-08
9.49101e-08
9.31961e-08
9.17732e-08
9.05985e-08
8.95885e-08
8.87378e-08
8.79893e-08
8.73469e-08
8.67718e-08
8.6278e-08
8.58261e-08
8.54368e-08
8.50731e-08
8.47597e-08
8.44627e-08
8.42059e-08
8.39594e-08
8.37503e-08
8.35452e-08
8.33707e-08
8.31974e-08
8.30546e-08
8.29093e-08
8.27838e-08
8.26646e-08
8.2565e-08
8.24639e-08
8.23794e-08
8.22885e-08
8.22108e-08
8.21371e-08
8.20745e-08
8.20079e-08
8.19551e-08
8.18949e-08
8.18453e-08
8.17973e-08
8.17551e-08
8.17101e-08
8.1673e-08
8.16391e-08
8.16048e-08
8.15689e-08
8.15442e-08
8.15128e-08
8.14723e-08
8.1452e-08
8.14394e-08
8.14041e-08
8.1392e-08
8.13694e-08
8.13412e-08
8.12971e-08
8.12909e-08
8.12907e-08
8.12905e-08
8.12749e-08
8.12893e-08
8.12893e-08
8.12854e-08
8.12997e-08
8.13043e-08
8.13423e-08
8.13627e-08
8.1358e-08
8.13728e-08
8.14024e-08
8.14293e-08
8.1463e-08
8.15091e-08
8.15385e-08
8.15831e-08
8.16049e-08
8.16555e-08
8.16911e-08
8.17573e-08
8.18029e-08
8.18929e-08
8.19315e-08
8.20377e-08
8.20815e-08
8.22084e-08
8.22768e-08
8.24243e-08
8.25075e-08
8.27475e-08
8.27961e-08
8.37913e-08
3.38551e-06
2.48809e-08
1.23137e-07
1.15165e-07
1.08368e-07
1.03449e-07
9.9839e-08
9.71075e-08
9.49493e-08
9.32218e-08
9.17869e-08
9.06017e-08
8.95824e-08
8.87234e-08
8.79675e-08
8.73186e-08
8.67376e-08
8.62385e-08
8.57816e-08
8.53879e-08
8.50202e-08
8.47032e-08
8.44029e-08
8.4143e-08
8.38936e-08
8.3682e-08
8.34744e-08
8.32977e-08
8.31223e-08
8.29775e-08
8.28303e-08
8.27033e-08
8.25823e-08
8.24812e-08
8.23787e-08
8.22929e-08
8.22008e-08
8.2122e-08
8.20471e-08
8.19836e-08
8.19159e-08
8.18622e-08
8.18012e-08
8.17508e-08
8.17019e-08
8.16591e-08
8.16135e-08
8.15759e-08
8.15415e-08
8.15068e-08
8.14702e-08
8.14452e-08
8.14134e-08
8.13726e-08
8.13517e-08
8.13389e-08
8.13033e-08
8.12909e-08
8.12679e-08
8.12395e-08
8.11951e-08
8.1188e-08
8.11876e-08
8.11874e-08
8.1171e-08
8.1185e-08
8.11844e-08
8.11799e-08
8.11944e-08
8.1199e-08
8.12361e-08
8.12568e-08
8.12524e-08
8.12667e-08
8.12958e-08
8.13224e-08
8.13554e-08
8.14013e-08
8.14306e-08
8.14751e-08
8.14969e-08
8.15472e-08
8.15823e-08
8.16482e-08
8.16933e-08
8.17831e-08
8.18214e-08
8.19272e-08
8.19709e-08
8.20967e-08
8.2165e-08
8.23117e-08
8.23942e-08
8.26336e-08
8.26793e-08
8.37041e-08
3.42093e-06
2.68444e-08
1.23173e-07
1.15264e-07
1.08476e-07
1.03544e-07
9.99156e-08
9.71662e-08
9.49918e-08
9.32499e-08
9.18023e-08
9.06058e-08
8.95765e-08
8.87087e-08
8.7945e-08
8.72891e-08
8.67016e-08
8.61968e-08
8.57348e-08
8.53364e-08
8.49644e-08
8.46435e-08
8.43396e-08
8.40764e-08
8.3824e-08
8.36095e-08
8.33994e-08
8.32203e-08
8.30425e-08
8.28957e-08
8.27466e-08
8.26177e-08
8.24949e-08
8.23923e-08
8.22881e-08
8.2201e-08
8.21077e-08
8.20276e-08
8.19514e-08
8.18869e-08
8.18182e-08
8.17636e-08
8.17017e-08
8.16505e-08
8.16006e-08
8.15571e-08
8.15107e-08
8.14726e-08
8.14376e-08
8.14025e-08
8.13652e-08
8.13398e-08
8.13077e-08
8.12666e-08
8.1245e-08
8.12319e-08
8.11961e-08
8.11833e-08
8.11598e-08
8.11314e-08
8.10867e-08
8.10784e-08
8.1078e-08
8.10777e-08
8.10605e-08
8.10741e-08
8.10728e-08
8.10678e-08
8.10824e-08
8.10871e-08
8.11231e-08
8.1144e-08
8.114e-08
8.11539e-08
8.11823e-08
8.12087e-08
8.1241e-08
8.12866e-08
8.13156e-08
8.13602e-08
8.13819e-08
8.14319e-08
8.14666e-08
8.15322e-08
8.15765e-08
8.16661e-08
8.17043e-08
8.18094e-08
8.18532e-08
8.19778e-08
8.20458e-08
8.21919e-08
8.22735e-08
8.25123e-08
8.25551e-08
8.36105e-08
3.4543e-06
2.90429e-08
1.2321e-07
1.15369e-07
1.0859e-07
1.03645e-07
9.99974e-08
9.72292e-08
9.50376e-08
9.32806e-08
9.18193e-08
9.0611e-08
8.95711e-08
8.86939e-08
8.79217e-08
8.72584e-08
8.66641e-08
8.61532e-08
8.56856e-08
8.52822e-08
8.49056e-08
8.45806e-08
8.42728e-08
8.40062e-08
8.37504e-08
8.3533e-08
8.332e-08
8.31385e-08
8.29582e-08
8.28091e-08
8.2658e-08
8.25272e-08
8.24025e-08
8.22981e-08
8.21923e-08
8.21038e-08
8.2009e-08
8.19277e-08
8.18502e-08
8.17846e-08
8.17146e-08
8.16591e-08
8.15962e-08
8.15441e-08
8.14932e-08
8.1449e-08
8.14018e-08
8.13631e-08
8.13275e-08
8.1292e-08
8.12539e-08
8.12281e-08
8.11956e-08
8.11541e-08
8.11319e-08
8.11186e-08
8.10823e-08
8.10691e-08
8.10452e-08
8.10166e-08
8.09718e-08
8.09623e-08
8.09618e-08
8.09613e-08
8.09432e-08
8.09564e-08
8.09545e-08
8.09488e-08
8.09635e-08
8.09683e-08
8.10032e-08
8.10244e-08
8.10207e-08
8.10341e-08
8.10618e-08
8.10879e-08
8.11195e-08
8.11648e-08
8.11936e-08
8.12382e-08
8.12598e-08
8.13095e-08
8.13437e-08
8.1409e-08
8.14527e-08
8.15419e-08
8.15798e-08
8.16844e-08
8.17282e-08
8.18516e-08
8.19193e-08
8.20646e-08
8.21454e-08
8.23836e-08
8.24233e-08
8.35104e-08
3.4846e-06
3.14974e-08
1.23248e-07
1.15478e-07
1.08711e-07
1.03752e-07
1.00085e-07
9.72968e-08
9.50871e-08
9.33139e-08
9.18383e-08
9.06172e-08
8.95661e-08
8.86789e-08
8.78978e-08
8.72265e-08
8.6625e-08
8.61077e-08
8.56341e-08
8.52255e-08
8.48439e-08
8.45145e-08
8.42026e-08
8.39323e-08
8.3673e-08
8.34525e-08
8.32365e-08
8.30522e-08
8.28694e-08
8.27179e-08
8.25645e-08
8.24317e-08
8.23049e-08
8.21987e-08
8.20911e-08
8.20011e-08
8.19049e-08
8.18222e-08
8.17432e-08
8.16764e-08
8.16052e-08
8.15486e-08
8.14847e-08
8.14317e-08
8.13798e-08
8.13348e-08
8.12867e-08
8.12473e-08
8.12111e-08
8.1175e-08
8.11362e-08
8.111e-08
8.1077e-08
8.10352e-08
8.10122e-08
8.09986e-08
8.0962e-08
8.09484e-08
8.0924e-08
8.08952e-08
8.08502e-08
8.08394e-08
8.08388e-08
8.08382e-08
8.08192e-08
8.0832e-08
8.08292e-08
8.08228e-08
8.08377e-08
8.08425e-08
8.08763e-08
8.08977e-08
8.08943e-08
8.09073e-08
8.09344e-08
8.09602e-08
8.0991e-08
8.10359e-08
8.10644e-08
8.11089e-08
8.11305e-08
8.11798e-08
8.12136e-08
8.12785e-08
8.13215e-08
8.14103e-08
8.14481e-08
8.1552e-08
8.15958e-08
8.17179e-08
8.17854e-08
8.19297e-08
8.20097e-08
8.22471e-08
8.22837e-08
8.34033e-08
3.51072e-06
3.4228e-08
1.23287e-07
1.15593e-07
1.08839e-07
1.03865e-07
1.00178e-07
9.73691e-08
9.51403e-08
9.335e-08
9.18593e-08
9.06248e-08
8.95618e-08
8.8664e-08
8.78734e-08
8.71937e-08
8.65845e-08
8.60603e-08
8.55804e-08
8.51661e-08
8.47794e-08
8.44453e-08
8.4129e-08
8.38548e-08
8.35918e-08
8.33678e-08
8.31486e-08
8.29615e-08
8.27759e-08
8.26219e-08
8.24662e-08
8.23312e-08
8.22022e-08
8.20941e-08
8.19846e-08
8.18929e-08
8.17951e-08
8.1711e-08
8.16304e-08
8.15624e-08
8.14899e-08
8.14322e-08
8.13672e-08
8.13132e-08
8.12601e-08
8.12143e-08
8.11653e-08
8.11252e-08
8.10883e-08
8.10517e-08
8.1012e-08
8.09853e-08
8.09519e-08
8.09097e-08
8.08859e-08
8.0872e-08
8.0835e-08
8.08209e-08
8.0796e-08
8.07671e-08
8.07219e-08
8.07097e-08
8.0709e-08
8.07083e-08
8.06883e-08
8.07006e-08
8.0697e-08
8.06899e-08
8.07049e-08
8.07098e-08
8.07423e-08
8.07639e-08
8.07609e-08
8.07734e-08
8.07998e-08
8.08252e-08
8.08552e-08
8.08998e-08
8.0928e-08
8.09724e-08
8.09939e-08
8.10429e-08
8.10762e-08
8.11407e-08
8.11829e-08
8.12713e-08
8.13089e-08
8.1412e-08
8.14559e-08
8.15766e-08
8.16438e-08
8.17872e-08
8.18663e-08
8.21029e-08
8.21363e-08
8.32889e-08
3.53159e-06
3.72537e-08
1.23327e-07
1.15712e-07
1.08973e-07
1.03986e-07
1.00277e-07
9.74464e-08
9.51974e-08
9.33893e-08
9.18825e-08
9.06339e-08
8.95582e-08
8.86493e-08
8.78486e-08
8.716e-08
8.65426e-08
8.60111e-08
8.55246e-08
8.51043e-08
8.4712e-08
8.4373e-08
8.4052e-08
8.37737e-08
8.35067e-08
8.32792e-08
8.30566e-08
8.28664e-08
8.26779e-08
8.25212e-08
8.23629e-08
8.22257e-08
8.20943e-08
8.19842e-08
8.18727e-08
8.17792e-08
8.16798e-08
8.15942e-08
8.15119e-08
8.14426e-08
8.13687e-08
8.13097e-08
8.12436e-08
8.11885e-08
8.11343e-08
8.10875e-08
8.10376e-08
8.09967e-08
8.0959e-08
8.09219e-08
8.08812e-08
8.08541e-08
8.08202e-08
8.07776e-08
8.0753e-08
8.07387e-08
8.07013e-08
8.06867e-08
8.06612e-08
8.06321e-08
8.05869e-08
8.05733e-08
8.05724e-08
8.05715e-08
8.05504e-08
8.05622e-08
8.05578e-08
8.055e-08
8.0565e-08
8.05699e-08
8.06012e-08
8.0623e-08
8.06203e-08
8.06324e-08
8.06579e-08
8.0683e-08
8.07122e-08
8.07563e-08
8.07842e-08
8.08286e-08
8.08499e-08
8.08986e-08
8.09314e-08
8.09954e-08
8.10369e-08
8.11248e-08
8.11621e-08
8.12645e-08
8.13084e-08
8.14276e-08
8.14945e-08
8.1637e-08
8.17151e-08
8.19509e-08
8.19809e-08
8.31668e-08
3.54613e-06
4.05938e-08
1.23368e-07
1.15837e-07
1.09115e-07
1.04113e-07
1.00382e-07
9.75287e-08
9.52588e-08
9.34318e-08
9.19081e-08
9.06446e-08
8.95556e-08
8.86348e-08
8.78236e-08
8.71255e-08
8.64995e-08
8.59603e-08
8.54667e-08
8.50401e-08
8.4642e-08
8.42977e-08
8.39718e-08
8.3689e-08
8.34178e-08
8.31865e-08
8.29604e-08
8.2767e-08
8.25753e-08
8.24157e-08
8.22548e-08
8.21152e-08
8.19813e-08
8.1869e-08
8.17554e-08
8.16601e-08
8.15588e-08
8.14716e-08
8.13876e-08
8.13168e-08
8.12415e-08
8.11812e-08
8.11138e-08
8.10576e-08
8.10021e-08
8.09545e-08
8.09035e-08
8.08618e-08
8.08232e-08
8.07855e-08
8.07439e-08
8.07162e-08