/*--------------------------------*- C++ -*----------------------------------*\
| =========                 |                                                 |
| \\      /  F ield         | OpenFOAM: The Open Source CFD Toolbox           |
|  \\    /   O peration     | Version:  v2012                                 |
|   \\  /    A nd           | Website:  www.openfoam.com                      |
|    \\/     M anipulation  |                                                 |
\*---------------------------------------------------------------------------*/
FoamFile
{
    version     2.0;
    format      ascii;
    class       volVectorField;
    location    "16";
    object      wallShearStress;
}
// * * * * * * * * * * * * * * * * * * * * * * * * * * * * * * * * * * * * * //

dimensions      [0 2 -2 0 0 0 0];


internalField   uniform (0 0 0);

boundaryField
{
    inlet
    {
        type            calculated;
        value           uniform (0 0 0);
    }
    outlet
    {
        type            calculated;
        value           uniform (0 0 0);
    }
    topWall
    {
        type            calculated;
        value           nonuniform List<vector> 
545
(
(3.97418e-08 -2.79253e-08 0)
(3.98361e-08 -7.83994e-08 0)
(3.97346e-08 -1.30788e-07 0)
(3.96292e-08 -1.81541e-07 0)
(3.95538e-08 -2.30082e-07 0)
(3.94656e-08 -2.77036e-07 0)
(3.93674e-08 -3.22805e-07 0)
(3.92598e-08 -3.67368e-07 0)
(3.9143e-08 -4.10627e-07 0)
(3.9018e-08 -4.52578e-07 0)
(3.88854e-08 -4.93276e-07 0)
(3.87462e-08 -5.3277e-07 0)
(3.86008e-08 -5.71085e-07 0)
(3.845e-08 -6.08248e-07 0)
(3.82944e-08 -6.44284e-07 0)
(3.81347e-08 -6.79225e-07 0)
(3.79713e-08 -7.13101e-07 0)
(3.78047e-08 -7.4594e-07 0)
(3.76355e-08 -7.77772e-07 0)
(3.74641e-08 -8.08624e-07 0)
(3.72909e-08 -8.38524e-07 0)
(3.71163e-08 -8.675e-07 0)
(3.69407e-08 -8.9558e-07 0)
(3.67643e-08 -9.22788e-07 0)
(3.65876e-08 -9.49153e-07 0)
(3.64107e-08 -9.74698e-07 0)
(3.62339e-08 -9.99449e-07 0)
(3.60576e-08 -1.02343e-06 0)
(3.58818e-08 -1.04666e-06 0)
(3.57068e-08 -1.06918e-06 0)
(3.55327e-08 -1.09099e-06 0)
(3.53599e-08 -1.11212e-06 0)
(3.51882e-08 -1.1326e-06 0)
(3.5018e-08 -1.15243e-06 0)
(3.48494e-08 -1.17166e-06 0)
(3.46823e-08 -1.19028e-06 0)
(3.4517e-08 -1.20833e-06 0)
(3.43536e-08 -1.22582e-06 0)
(3.4192e-08 -1.24276e-06 0)
(3.40324e-08 -1.25919e-06 0)
(3.38748e-08 -1.2751e-06 0)
(3.37192e-08 -1.29053e-06 0)
(3.35658e-08 -1.30547e-06 0)
(3.34144e-08 -1.31996e-06 0)
(3.32652e-08 -1.334e-06 0)
(3.31182e-08 -1.34762e-06 0)
(3.29734e-08 -1.36081e-06 0)
(3.28307e-08 -1.3736e-06 0)
(3.26903e-08 -1.386e-06 0)
(3.2552e-08 -1.39802e-06 0)
(3.24159e-08 -1.40968e-06 0)
(3.22819e-08 -1.42098e-06 0)
(3.21501e-08 -1.43194e-06 0)
(3.20205e-08 -1.44256e-06 0)
(3.18929e-08 -1.45287e-06 0)
(3.17674e-08 -1.46286e-06 0)
(3.1644e-08 -1.47255e-06 0)
(3.15226e-08 -1.48195e-06 0)
(3.14032e-08 -1.49106e-06 0)
(3.12858e-08 -1.49991e-06 0)
(3.11703e-08 -1.50848e-06 0)
(3.10566e-08 -1.5168e-06 0)
(3.09449e-08 -1.52487e-06 0)
(3.08349e-08 -1.5327e-06 0)
(3.07268e-08 -1.5403e-06 0)
(3.06203e-08 -1.54767e-06 0)
(3.05156e-08 -1.55482e-06 0)
(3.04125e-08 -1.56176e-06 0)
(3.03111e-08 -1.5685e-06 0)
(3.02107e-08 -1.57502e-06 0)
(3.01141e-08 -1.58139e-06 0)
(3.00082e-08 -1.58753e-06 0)
(2.99101e-08 -1.59339e-06 0)
(2.98311e-08 -1.59915e-06 0)
(2.97504e-08 -1.60481e-06 0)
(2.96698e-08 -1.6104e-06 0)
(2.95895e-08 -1.61599e-06 0)
(2.95092e-08 -1.62154e-06 0)
(2.94291e-08 -1.62704e-06 0)
(2.9349e-08 -1.6325e-06 0)
(2.92691e-08 -1.63792e-06 0)
(2.91892e-08 -1.6433e-06 0)
(2.91095e-08 -1.64864e-06 0)
(2.90299e-08 -1.65395e-06 0)
(2.89505e-08 -1.65921e-06 0)
(2.88711e-08 -1.66444e-06 0)
(2.87919e-08 -1.66963e-06 0)
(2.87128e-08 -1.67478e-06 0)
(2.86338e-08 -1.67989e-06 0)
(2.8555e-08 -1.68497e-06 0)
(2.84764e-08 -1.69001e-06 0)
(2.83976e-08 -1.69501e-06 0)
(2.83202e-08 -1.7e-06 0)
(2.82386e-08 -1.70482e-06 0)
(2.81752e-08 -1.70988e-06 0)
(2.80238e-08 -1.7147e-06 0)
(2.78637e-08 -1.71875e-06 0)
(2.78042e-08 -1.72299e-06 0)
(2.77421e-08 -1.72697e-06 0)
(2.7681e-08 -1.73065e-06 0)
(2.76209e-08 -1.73455e-06 0)
(2.75604e-08 -1.73848e-06 0)
(2.74998e-08 -1.7424e-06 0)
(2.74388e-08 -1.74629e-06 0)
(2.73777e-08 -1.75019e-06 0)
(2.73163e-08 -1.75409e-06 0)
(2.72546e-08 -1.75799e-06 0)
(2.71927e-08 -1.76189e-06 0)
(2.71305e-08 -1.76579e-06 0)
(2.70682e-08 -1.76969e-06 0)
(2.70055e-08 -1.77359e-06 0)
(2.69426e-08 -1.7775e-06 0)
(2.68795e-08 -1.7814e-06 0)
(2.68161e-08 -1.7853e-06 0)
(2.67525e-08 -1.7892e-06 0)
(2.66887e-08 -1.7931e-06 0)
(2.66245e-08 -1.797e-06 0)
(2.65602e-08 -1.80091e-06 0)
(2.64956e-08 -1.80481e-06 0)
(2.64307e-08 -1.80871e-06 0)
(2.63656e-08 -1.81261e-06 0)
(2.63002e-08 -1.81651e-06 0)
(2.62346e-08 -1.82041e-06 0)
(2.61687e-08 -1.82431e-06 0)
(2.61026e-08 -1.8282e-06 0)
(2.60363e-08 -1.8321e-06 0)
(2.59696e-08 -1.836e-06 0)
(2.59027e-08 -1.83989e-06 0)
(2.58356e-08 -1.84379e-06 0)
(2.57682e-08 -1.84768e-06 0)
(2.57006e-08 -1.85157e-06 0)
(2.56327e-08 -1.85547e-06 0)
(2.55645e-08 -1.85936e-06 0)
(2.54961e-08 -1.86325e-06 0)
(2.54275e-08 -1.86713e-06 0)
(2.53585e-08 -1.87102e-06 0)
(2.52894e-08 -1.87491e-06 0)
(2.52199e-08 -1.87879e-06 0)
(2.51502e-08 -1.88267e-06 0)
(2.50803e-08 -1.88655e-06 0)
(2.50101e-08 -1.89043e-06 0)
(2.49397e-08 -1.89431e-06 0)
(2.48689e-08 -1.89818e-06 0)
(2.4798e-08 -1.90206e-06 0)
(2.47267e-08 -1.90593e-06 0)
(2.46553e-08 -1.9098e-06 0)
(2.45835e-08 -1.91366e-06 0)
(2.45115e-08 -1.91753e-06 0)
(2.44393e-08 -1.92139e-06 0)
(2.43668e-08 -1.92525e-06 0)
(2.4294e-08 -1.92911e-06 0)
(2.4221e-08 -1.93297e-06 0)
(2.41477e-08 -1.93682e-06 0)
(2.40742e-08 -1.94067e-06 0)
(2.40004e-08 -1.94452e-06 0)
(2.39263e-08 -1.94836e-06 0)
(2.3852e-08 -1.9522e-06 0)
(2.37774e-08 -1.95604e-06 0)
(2.37026e-08 -1.95988e-06 0)
(2.36276e-08 -1.96371e-06 0)
(2.35522e-08 -1.96754e-06 0)
(2.34766e-08 -1.97137e-06 0)
(2.34008e-08 -1.97519e-06 0)
(2.33247e-08 -1.97901e-06 0)
(2.32484e-08 -1.98282e-06 0)
(2.31718e-08 -1.98664e-06 0)
(2.30949e-08 -1.99045e-06 0)
(2.30178e-08 -1.99425e-06 0)
(2.29404e-08 -1.99805e-06 0)
(2.28628e-08 -2.00185e-06 0)
(2.27849e-08 -2.00564e-06 0)
(2.27068e-08 -2.00943e-06 0)
(2.26284e-08 -2.01322e-06 0)
(2.25498e-08 -2.017e-06 0)
(2.24709e-08 -2.02078e-06 0)
(2.23917e-08 -2.02455e-06 0)
(2.23123e-08 -2.02832e-06 0)
(2.22327e-08 -2.03208e-06 0)
(2.21528e-08 -2.03584e-06 0)
(2.20727e-08 -2.03959e-06 0)
(2.19923e-08 -2.04334e-06 0)
(2.19116e-08 -2.04708e-06 0)
(2.18307e-08 -2.05082e-06 0)
(2.17496e-08 -2.05456e-06 0)
(2.16682e-08 -2.05829e-06 0)
(2.15866e-08 -2.06201e-06 0)
(2.15047e-08 -2.06573e-06 0)
(2.14226e-08 -2.06944e-06 0)
(2.13402e-08 -2.07315e-06 0)
(2.12576e-08 -2.07685e-06 0)
(2.11747e-08 -2.08055e-06 0)
(2.10916e-08 -2.08424e-06 0)
(2.10082e-08 -2.08792e-06 0)
(2.09246e-08 -2.0916e-06 0)
(2.08408e-08 -2.09527e-06 0)
(2.07567e-08 -2.09894e-06 0)
(2.06724e-08 -2.1026e-06 0)
(2.05878e-08 -2.10625e-06 0)
(2.0503e-08 -2.1099e-06 0)
(2.0418e-08 -2.11354e-06 0)
(2.03327e-08 -2.11717e-06 0)
(2.02472e-08 -2.1208e-06 0)
(2.01614e-08 -2.12442e-06 0)
(2.00754e-08 -2.12804e-06 0)
(1.99892e-08 -2.13164e-06 0)
(1.99028e-08 -2.13524e-06 0)
(1.98161e-08 -2.13884e-06 0)
(1.97292e-08 -2.14242e-06 0)
(1.9642e-08 -2.146e-06 0)
(1.95546e-08 -2.14957e-06 0)
(1.9467e-08 -2.15313e-06 0)
(1.93792e-08 -2.15669e-06 0)
(1.92911e-08 -2.16023e-06 0)
(1.92028e-08 -2.16377e-06 0)
(1.91143e-08 -2.1673e-06 0)
(1.90255e-08 -2.17083e-06 0)
(1.89365e-08 -2.17434e-06 0)
(1.88474e-08 -2.17785e-06 0)
(1.87579e-08 -2.18135e-06 0)
(1.86683e-08 -2.18484e-06 0)
(1.85785e-08 -2.18832e-06 0)
(1.84884e-08 -2.19179e-06 0)
(1.83981e-08 -2.19526e-06 0)
(1.83076e-08 -2.19871e-06 0)
(1.82169e-08 -2.20216e-06 0)
(1.8126e-08 -2.2056e-06 0)
(1.80348e-08 -2.20902e-06 0)
(1.79435e-08 -2.21244e-06 0)
(1.78519e-08 -2.21585e-06 0)
(1.77601e-08 -2.21925e-06 0)
(1.76682e-08 -2.22264e-06 0)
(1.7576e-08 -2.22602e-06 0)
(1.74836e-08 -2.22939e-06 0)
(1.7391e-08 -2.23275e-06 0)
(1.72982e-08 -2.2361e-06 0)
(1.72053e-08 -2.23945e-06 0)
(1.71121e-08 -2.24278e-06 0)
(1.70187e-08 -2.2461e-06 0)
(1.69251e-08 -2.24941e-06 0)
(1.68314e-08 -2.25271e-06 0)
(1.67374e-08 -2.25599e-06 0)
(1.66433e-08 -2.25927e-06 0)
(1.65489e-08 -2.26254e-06 0)
(1.64544e-08 -2.2658e-06 0)
(1.63597e-08 -2.26904e-06 0)
(1.62648e-08 -2.27227e-06 0)
(1.61697e-08 -2.2755e-06 0)
(1.60745e-08 -2.27871e-06 0)
(1.59791e-08 -2.28191e-06 0)
(1.58835e-08 -2.2851e-06 0)
(1.57877e-08 -2.28827e-06 0)
(1.56917e-08 -2.29144e-06 0)
(1.55956e-08 -2.29459e-06 0)
(1.54993e-08 -2.29773e-06 0)
(1.54029e-08 -2.30086e-06 0)
(1.53063e-08 -2.30398e-06 0)
(1.52095e-08 -2.30708e-06 0)
(1.51125e-08 -2.31017e-06 0)
(1.50154e-08 -2.31325e-06 0)
(1.49182e-08 -2.31632e-06 0)
(1.48208e-08 -2.31937e-06 0)
(1.47232e-08 -2.32241e-06 0)
(1.46255e-08 -2.32544e-06 0)
(1.45277e-08 -2.32845e-06 0)
(1.44295e-08 -2.33145e-06 0)
(1.4332e-08 -2.33446e-06 0)
(1.42318e-08 -2.33735e-06 0)
(1.41427e-08 -2.34051e-06 0)
(1.39977e-08 -2.34332e-06 0)
(1.38475e-08 -2.3458e-06 0)
(1.37636e-08 -2.34876e-06 0)
(1.36802e-08 -2.35142e-06 0)
(1.3597e-08 -2.35386e-06 0)
(1.3514e-08 -2.35647e-06 0)
(1.34299e-08 -2.35913e-06 0)
(1.33449e-08 -2.3618e-06 0)
(1.3259e-08 -2.36446e-06 0)
(1.3172e-08 -2.36713e-06 0)
(1.3084e-08 -2.36981e-06 0)
(1.2995e-08 -2.37251e-06 0)
(1.2905e-08 -2.37522e-06 0)
(1.28141e-08 -2.37793e-06 0)
(1.27221e-08 -2.38066e-06 0)
(1.2629e-08 -2.38339e-06 0)
(1.2535e-08 -2.38614e-06 0)
(1.244e-08 -2.38889e-06 0)
(1.23439e-08 -2.39166e-06 0)
(1.22468e-08 -2.39443e-06 0)
(1.21486e-08 -2.3972e-06 0)
(1.20494e-08 -2.39999e-06 0)
(1.19492e-08 -2.40278e-06 0)
(1.18479e-08 -2.40558e-06 0)
(1.17456e-08 -2.40839e-06 0)
(1.16422e-08 -2.4112e-06 0)
(1.15378e-08 -2.41402e-06 0)
(1.14323e-08 -2.41684e-06 0)
(1.13257e-08 -2.41966e-06 0)
(1.12181e-08 -2.42249e-06 0)
(1.11094e-08 -2.42533e-06 0)
(1.09997e-08 -2.42816e-06 0)
(1.08888e-08 -2.431e-06 0)
(1.07769e-08 -2.43384e-06 0)
(1.06639e-08 -2.43668e-06 0)
(1.05499e-08 -2.43952e-06 0)
(1.04348e-08 -2.44236e-06 0)
(1.03185e-08 -2.4452e-06 0)
(1.02012e-08 -2.44804e-06 0)
(1.00829e-08 -2.45087e-06 0)
(9.96343e-09 -2.45371e-06 0)
(9.84291e-09 -2.45654e-06 0)
(9.72131e-09 -2.45936e-06 0)
(9.59864e-09 -2.46218e-06 0)
(9.47489e-09 -2.465e-06 0)
(9.35008e-09 -2.4678e-06 0)
(9.22419e-09 -2.4706e-06 0)
(9.09724e-09 -2.4734e-06 0)
(8.96922e-09 -2.47618e-06 0)
(8.84015e-09 -2.47895e-06 0)
(8.71001e-09 -2.48171e-06 0)
(8.57884e-09 -2.48447e-06 0)
(8.44661e-09 -2.4872e-06 0)
(8.31334e-09 -2.48993e-06 0)
(8.17904e-09 -2.49264e-06 0)
(8.04371e-09 -2.49533e-06 0)
(7.90736e-09 -2.49801e-06 0)
(7.77e-09 -2.50067e-06 0)
(7.63163e-09 -2.50332e-06 0)
(7.49227e-09 -2.50594e-06 0)
(7.35191e-09 -2.50854e-06 0)
(7.21058e-09 -2.51112e-06 0)
(7.06828e-09 -2.51368e-06 0)
(6.92503e-09 -2.51621e-06 0)
(6.78082e-09 -2.51872e-06 0)
(6.63569e-09 -2.5212e-06 0)
(6.48963e-09 -2.52366e-06 0)
(6.34267e-09 -2.52608e-06 0)
(6.19482e-09 -2.52848e-06 0)
(6.04609e-09 -2.53084e-06 0)
(5.89649e-09 -2.53317e-06 0)
(5.74605e-09 -2.53547e-06 0)
(5.59478e-09 -2.53773e-06 0)
(5.44271e-09 -2.53995e-06 0)
(5.28984e-09 -2.54214e-06 0)
(5.1362e-09 -2.54429e-06 0)
(4.9818e-09 -2.54639e-06 0)
(4.82668e-09 -2.54845e-06 0)
(4.67084e-09 -2.55047e-06 0)
(4.51432e-09 -2.55245e-06 0)
(4.35714e-09 -2.55437e-06 0)
(4.19932e-09 -2.55625e-06 0)
(4.04088e-09 -2.55808e-06 0)
(3.88186e-09 -2.55986e-06 0)
(3.72228e-09 -2.56158e-06 0)
(3.56217e-09 -2.56325e-06 0)
(3.40156e-09 -2.56486e-06 0)
(3.24048e-09 -2.56641e-06 0)
(3.07895e-09 -2.5679e-06 0)
(2.91702e-09 -2.56934e-06 0)
(2.7547e-09 -2.5707e-06 0)
(2.59205e-09 -2.57201e-06 0)
(2.42909e-09 -2.57324e-06 0)
(2.26585e-09 -2.57441e-06 0)
(2.10238e-09 -2.57551e-06 0)
(1.93872e-09 -2.57654e-06 0)
(1.77489e-09 -2.57749e-06 0)
(1.61094e-09 -2.57837e-06 0)
(1.44692e-09 -2.57916e-06 0)
(1.28285e-09 -2.57989e-06 0)
(1.1188e-09 -2.58052e-06 0)
(9.54787e-10 -2.58108e-06 0)
(7.9087e-10 -2.58155e-06 0)
(6.27092e-10 -2.58194e-06 0)
(4.63498e-10 -2.58223e-06 0)
(3.00137e-10 -2.58244e-06 0)
(1.37055e-10 -2.58255e-06 0)
(-2.56975e-11 -2.58257e-06 0)
(-1.88072e-10 -2.5825e-06 0)
(-3.50017e-10 -2.58233e-06 0)
(-5.11481e-10 -2.58205e-06 0)
(-6.72413e-10 -2.58168e-06 0)
(-8.32759e-10 -2.5812e-06 0)
(-9.92466e-10 -2.58062e-06 0)
(-1.15148e-09 -2.57993e-06 0)
(-1.30974e-09 -2.57913e-06 0)
(-1.4672e-09 -2.57822e-06 0)
(-1.62381e-09 -2.57721e-06 0)
(-1.77949e-09 -2.57607e-06 0)
(-1.9342e-09 -2.57482e-06 0)
(-2.08788e-09 -2.57346e-06 0)
(-2.24047e-09 -2.57197e-06 0)
(-2.39191e-09 -2.57037e-06 0)
(-2.54216e-09 -2.56864e-06 0)
(-2.69113e-09 -2.56679e-06 0)
(-2.83878e-09 -2.56481e-06 0)
(-2.98505e-09 -2.56271e-06 0)
(-3.12988e-09 -2.56048e-06 0)
(-3.27321e-09 -2.55811e-06 0)
(-3.41498e-09 -2.55562e-06 0)
(-3.55513e-09 -2.553e-06 0)
(-3.6936e-09 -2.55024e-06 0)
(-3.83033e-09 -2.54734e-06 0)
(-3.96526e-09 -2.54431e-06 0)
(-4.09833e-09 -2.54114e-06 0)
(-4.22949e-09 -2.53784e-06 0)
(-4.35866e-09 -2.53439e-06 0)
(-4.4858e-09 -2.5308e-06 0)
(-4.61083e-09 -2.52707e-06 0)
(-4.73371e-09 -2.5232e-06 0)
(-4.85436e-09 -2.51918e-06 0)
(-4.97274e-09 -2.51502e-06 0)
(-5.08877e-09 -2.51071e-06 0)
(-5.20241e-09 -2.50626e-06 0)
(-5.31359e-09 -2.50166e-06 0)
(-5.42226e-09 -2.49692e-06 0)
(-5.52835e-09 -2.49202e-06 0)
(-5.63182e-09 -2.48698e-06 0)
(-5.73259e-09 -2.48179e-06 0)
(-5.83064e-09 -2.47646e-06 0)
(-5.92588e-09 -2.47097e-06 0)
(-6.01829e-09 -2.46534e-06 0)
(-6.1078e-09 -2.45956e-06 0)
(-6.19438e-09 -2.45364e-06 0)
(-6.27796e-09 -2.44756e-06 0)
(-6.35854e-09 -2.44135e-06 0)
(-6.43603e-09 -2.43498e-06 0)
(-6.51044e-09 -2.42847e-06 0)
(-6.5817e-09 -2.42181e-06 0)
(-6.64983e-09 -2.41501e-06 0)
(-6.71475e-09 -2.40807e-06 0)
(-6.7765e-09 -2.40099e-06 0)
(-6.835e-09 -2.39376e-06 0)
(-6.89029e-09 -2.3864e-06 0)
(-6.9423e-09 -2.3789e-06 0)
(-6.9911e-09 -2.37126e-06 0)
(-7.0366e-09 -2.36349e-06 0)
(-7.07888e-09 -2.35559e-06 0)
(-7.11786e-09 -2.34755e-06 0)
(-7.15362e-09 -2.33938e-06 0)
(-7.18608e-09 -2.33108e-06 0)
(-7.21532e-09 -2.32267e-06 0)
(-7.24128e-09 -2.31412e-06 0)
(-7.26401e-09 -2.30546e-06 0)
(-7.28344e-09 -2.29667e-06 0)
(-7.29965e-09 -2.28777e-06 0)
(-7.31253e-09 -2.27874e-06 0)
(-7.32208e-09 -2.26962e-06 0)
(-7.32841e-09 -2.26035e-06 0)
(-7.33098e-09 -2.2511e-06 0)
(-7.33483e-09 -2.24139e-06 0)
(-7.32739e-09 -2.23202e-06 0)
(-7.29716e-09 -2.22162e-06 0)
(-7.27344e-09 -2.20944e-06 0)
(-7.25964e-09 -2.19764e-06 0)
(-7.23989e-09 -2.18606e-06 0)
(-7.21677e-09 -2.17436e-06 0)
(-7.19035e-09 -2.16267e-06 0)
(-7.16042e-09 -2.15103e-06 0)
(-7.12726e-09 -2.13947e-06 0)
(-7.0909e-09 -2.12795e-06 0)
(-7.05159e-09 -2.11651e-06 0)
(-7.00938e-09 -2.10512e-06 0)
(-6.96452e-09 -2.09381e-06 0)
(-6.91705e-09 -2.08256e-06 0)
(-6.86722e-09 -2.07141e-06 0)
(-6.81507e-09 -2.06032e-06 0)
(-6.76084e-09 -2.04934e-06 0)
(-6.70454e-09 -2.03843e-06 0)
(-6.64641e-09 -2.02763e-06 0)
(-6.58644e-09 -2.0169e-06 0)
(-6.52487e-09 -2.0063e-06 0)
(-6.46168e-09 -1.99577e-06 0)
(-6.39706e-09 -1.98537e-06 0)
(-6.331e-09 -1.97506e-06 0)
(-6.26369e-09 -1.96487e-06 0)
(-6.19509e-09 -1.95477e-06 0)
(-6.12538e-09 -1.94481e-06 0)
(-6.05452e-09 -1.93494e-06 0)
(-5.98268e-09 -1.9252e-06 0)
(-5.9098e-09 -1.91556e-06 0)
(-5.83605e-09 -1.90606e-06 0)
(-5.76136e-09 -1.89666e-06 0)
(-5.68589e-09 -1.8874e-06 0)
(-5.60959e-09 -1.87825e-06 0)
(-5.53258e-09 -1.86924e-06 0)
(-5.45482e-09 -1.86034e-06 0)
(-5.37643e-09 -1.85157e-06 0)
(-5.29737e-09 -1.84293e-06 0)
(-5.21774e-09 -1.83442e-06 0)
(-5.1375e-09 -1.82603e-06 0)
(-5.05676e-09 -1.81779e-06 0)
(-4.97546e-09 -1.80966e-06 0)
(-4.89371e-09 -1.80168e-06 0)
(-4.81146e-09 -1.79381e-06 0)
(-4.72882e-09 -1.7861e-06 0)
(-4.64571e-09 -1.7785e-06 0)
(-4.56224e-09 -1.77105e-06 0)
(-4.47835e-09 -1.76373e-06 0)
(-4.39413e-09 -1.75655e-06 0)
(-4.30952e-09 -1.7495e-06 0)
(-4.22461e-09 -1.7426e-06 0)
(-4.13934e-09 -1.73582e-06 0)
(-4.05378e-09 -1.7292e-06 0)
(-3.96789e-09 -1.7227e-06 0)
(-3.88172e-09 -1.71635e-06 0)
(-3.79523e-09 -1.71013e-06 0)
(-3.70848e-09 -1.70406e-06 0)
(-3.62142e-09 -1.69812e-06 0)
(-3.53411e-09 -1.69234e-06 0)
(-3.44649e-09 -1.68668e-06 0)
(-3.35863e-09 -1.68118e-06 0)
(-3.27048e-09 -1.67581e-06 0)
(-3.18208e-09 -1.67059e-06 0)
(-3.09339e-09 -1.6655e-06 0)
(-3.00446e-09 -1.66057e-06 0)
(-2.91526e-09 -1.65577e-06 0)
(-2.82582e-09 -1.65113e-06 0)
(-2.7361e-09 -1.64662e-06 0)
(-2.64616e-09 -1.64227e-06 0)
(-2.55595e-09 -1.63805e-06 0)
(-2.46551e-09 -1.63399e-06 0)
(-2.37482e-09 -1.63006e-06 0)
(-2.2839e-09 -1.62629e-06 0)
(-2.19273e-09 -1.62266e-06 0)
(-2.10134e-09 -1.61919e-06 0)
(-2.00971e-09 -1.61585e-06 0)
(-1.91785e-09 -1.61268e-06 0)
(-1.82576e-09 -1.60964e-06 0)
(-1.73344e-09 -1.60676e-06 0)
(-1.64087e-09 -1.60402e-06 0)
(-1.54807e-09 -1.60144e-06 0)
(-1.45503e-09 -1.599e-06 0)
(-1.36174e-09 -1.59672e-06 0)
(-1.26821e-09 -1.59459e-06 0)
(-1.17443e-09 -1.59261e-06 0)
(-1.08041e-09 -1.59077e-06 0)
(-9.86173e-10 -1.58911e-06 0)
(-8.91731e-10 -1.58755e-06 0)
(-7.97167e-10 -1.58629e-06 0)
(-7.02452e-10 -1.5847e-06 0)
(-6.08091e-10 -1.58484e-06 0)
(-5.12743e-10 -1.57982e-06 0)
(-4.21909e-10 -1.5919e-06 0)
(-3.1441e-10 -1.54367e-06 0)
(-2.70314e-10 -1.66997e-06 0)
(-1.4564e-10 -1.4582e-06 0)
)
;
    }
    bottomWall
    {
        type            calculated;
        value           nonuniform List<vector> 
449
(
(-52.9994 -0.959087 0)
(-34.9388 -0.00281585 0)
(-34.5276 -0.000259174 0)
(-33.1564 -0.000366142 0)
(-32.0205 -0.000320255 0)
(-30.9584 -0.000292232 0)
(-30.0113 -0.000255484 0)
(-29.1997 -0.000218238 0)
(-28.5066 -0.000187877 0)
(-27.901 -0.000165647 0)
(-27.3581 -0.000149392 0)
(-26.8622 -0.000136832 0)
(-26.404 -0.000126445 0)
(-25.9783 -0.000117401 0)
(-25.5814 -0.000109408 0)
(-25.2099 -0.000102178 0)
(-24.8623 -9.55867e-05 0)
(-24.5358 -8.96322e-05 0)
(-24.2287 -8.41329e-05 0)
(-23.9398 -7.91222e-05 0)
(-23.6671 -7.45518e-05 0)
(-23.4095 -7.03133e-05 0)
(-23.1658 -6.64923e-05 0)
(-22.9344 -6.2941e-05 0)
(-22.715 -5.96037e-05 0)
(-22.5066 -5.65576e-05 0)
(-22.3083 -5.37864e-05 0)
(-22.1189 -5.11894e-05 0)
(-21.9384 -4.88463e-05 0)
(-21.7652 -4.66122e-05 0)
(-21.6001 -4.44675e-05 0)
(-21.4418 -4.24941e-05 0)
(-21.2904 -4.06948e-05 0)
(-21.1444 -3.90194e-05 0)
(-21.0046 -3.74752e-05 0)
(-20.8694 -3.59589e-05 0)
(-20.7401 -3.45371e-05 0)
(-20.6147 -3.3233e-05 0)
(-20.4945 -3.19757e-05 0)
(-20.3779 -3.08119e-05 0)
(-20.2657 -2.96923e-05 0)
(-20.1569 -2.86906e-05 0)
(-20.0517 -2.77157e-05 0)
(-19.9497 -2.67889e-05 0)
(-19.851 -2.58951e-05 0)
(-19.7553 -2.50774e-05 0)
(-19.6622 -2.42549e-05 0)
(-19.5723 -2.35004e-05 0)
(-19.4845 -2.27581e-05 0)
(-19.3998 -2.20496e-05 0)
(-19.317 -2.1378e-05 0)
(-19.237 -2.07949e-05 0)
(-19.1583 -2.01978e-05 0)
(-19.0825 -1.95974e-05 0)
(-19.008 -1.90594e-05 0)
(-18.936 -1.85507e-05 0)
(-18.8651 -1.80808e-05 0)
(-18.7963 -1.75893e-05 0)
(-18.7289 -1.71359e-05 0)
(-18.6634 -1.67052e-05 0)
(-18.599 -1.62908e-05 0)
(-18.5364 -1.5899e-05 0)
(-18.4748 -1.55064e-05 0)
(-18.415 -1.5096e-05 0)
(-18.3563 -1.47303e-05 0)
(-18.2991 -1.44027e-05 0)
(-18.2428 -1.40808e-05 0)
(-18.1878 -1.37491e-05 0)
(-18.1338 -1.34607e-05 0)
(-18.0809 -1.31892e-05 0)
(-18.0288 -1.28966e-05 0)
(-17.978 -1.25838e-05 0)
(-17.9282 -1.23154e-05 0)
(-17.8793 -1.20861e-05 0)
(-17.8311 -1.1841e-05 0)
(-17.7839 -1.16113e-05 0)
(-17.7373 -1.13867e-05 0)
(-17.6918 -1.1155e-05 0)
(-17.6469 -1.09049e-05 0)
(-17.6031 -1.06529e-05 0)
(-17.5601 -1.04481e-05 0)
(-17.5178 -1.0269e-05 0)
(-17.476 -1.01053e-05 0)
(-17.4349 -9.91995e-06 0)
(-17.3944 -9.72411e-06 0)
(-17.3547 -9.51079e-06 0)
(-17.3158 -9.30926e-06 0)
(-17.2776 -9.18709e-06 0)
(-17.2396 -9.05681e-06 0)
(-17.2022 -8.89482e-06 0)
(-17.1654 -8.73531e-06 0)
(-17.1292 -8.55782e-06 0)
(-17.0937 -8.40307e-06 0)
(-17.0586 -8.25483e-06 0)
(-17.0242 -8.09352e-06 0)
(-16.9903 -7.94888e-06 0)
(-16.9569 -7.84497e-06 0)
(-16.9238 -7.72814e-06 0)
(-16.8912 -7.60232e-06 0)
(-16.8591 -7.46916e-06 0)
(-16.8275 -7.34012e-06 0)
(-16.7963 -7.23625e-06 0)
(-16.7654 -7.11808e-06 0)
(-16.7351 -6.9861e-06 0)
(-16.7052 -6.87076e-06 0)
(-16.6757 -6.77461e-06 0)
(-16.6465 -6.6577e-06 0)
(-16.6179 -6.58864e-06 0)
(-16.5892 -6.50637e-06 0)
(-16.5612 -6.41763e-06 0)
(-16.5331 -6.32884e-06 0)
(-16.5057 -6.20331e-06 0)
(-16.4786 -6.0984e-06 0)
(-16.4521 -5.98542e-06 0)
(-16.4258 -5.87313e-06 0)
(-16.4001 -5.77777e-06 0)
(-16.3746 -5.72103e-06 0)
(-16.3493 -5.65853e-06 0)
(-16.3243 -5.56101e-06 0)
(-16.2997 -5.48033e-06 0)
(-16.2752 -5.44248e-06 0)
(-16.2508 -5.38561e-06 0)
(-16.2268 -5.30875e-06 0)
(-16.203 -5.24036e-06 0)
(-16.1795 -5.15055e-06 0)
(-16.1564 -5.05352e-06 0)
(-16.1336 -4.96726e-06 0)
(-16.1112 -4.88912e-06 0)
(-16.0891 -4.82113e-06 0)
(-16.0672 -4.77795e-06 0)
(-16.0453 -4.74418e-06 0)
(-16.0236 -4.71613e-06 0)
(-16.0019 -4.66049e-06 0)
(-15.9806 -4.59869e-06 0)
(-15.9594 -4.55467e-06 0)
(-15.9384 -4.49577e-06 0)
(-15.9176 -4.41285e-06 0)
(-15.8974 -4.34453e-06 0)
(-15.8771 -4.26699e-06 0)
(-15.8575 -4.2041e-06 0)
(-15.8377 -4.12056e-06 0)
(-15.8188 -4.04289e-06 0)
(-15.7997 -3.99916e-06 0)
(-15.781 -3.95394e-06 0)
(-15.7622 -3.91888e-06 0)
(-15.7439 -3.88456e-06 0)
(-15.7253 -3.87649e-06 0)
(-15.7069 -3.81706e-06 0)
(-15.6888 -3.76286e-06 0)
(-15.6709 -3.71885e-06 0)
(-15.6531 -3.69425e-06 0)
(-15.6353 -3.63791e-06 0)
(-15.6181 -3.58833e-06 0)
(-15.6007 -3.54552e-06 0)
(-15.5837 -3.46638e-06 0)
(-15.567 -3.42168e-06 0)
(-15.5505 -3.38216e-06 0)
(-15.534 -3.34259e-06 0)
(-15.5178 -3.29029e-06 0)
(-15.5018 -3.27489e-06 0)
(-15.4856 -3.25322e-06 0)
(-15.4698 -3.22374e-06 0)
(-15.4538 -3.21667e-06 0)
(-15.4379 -3.17096e-06 0)
(-15.4224 -3.08967e-06 0)
(-15.4072 -3.03972e-06 0)
(-15.3921 -3.01531e-06 0)
(-15.3771 -2.96599e-06 0)
(-15.3624 -2.92933e-06 0)
(-15.3477 -2.90716e-06 0)
(-15.3332 -2.87855e-06 0)
(-15.3187 -2.86974e-06 0)
(-15.3041 -2.87143e-06 0)
(-15.2904 -2.88386e-06 0)
(-15.2772 -2.87804e-06 0)
(-15.2642 -2.83589e-06 0)
(-15.2511 -2.8021e-06 0)
(-15.238 -2.77588e-06 0)
(-15.2249 -2.71244e-06 0)
(-15.2122 -2.69537e-06 0)
(-15.199 -2.69906e-06 0)
(-15.186 -2.65503e-06 0)
(-15.1729 -2.62635e-06 0)
(-15.1598 -2.59464e-06 0)
(-15.1468 -2.53474e-06 0)
(-15.1341 -2.47722e-06 0)
(-15.1213 -2.43858e-06 0)
(-15.1088 -2.43883e-06 0)
(-15.0957 -2.44521e-06 0)
(-15.0828 -2.44047e-06 0)
(-15.0696 -2.39387e-06 0)
(-15.0569 -2.36469e-06 0)
(-15.0436 -2.36988e-06 0)
(-15.0306 -2.30791e-06 0)
(-15.0178 -2.2613e-06 0)
(-15.005 -2.23661e-06 0)
(-14.9922 -2.22667e-06 0)
(-14.9792 -2.20085e-06 0)
(-14.9664 -2.17993e-06 0)
(-14.9534 -2.16907e-06 0)
(-14.9405 -2.15202e-06 0)
(-14.9274 -2.14044e-06 0)
(-14.9143 -2.13443e-06 0)
(-14.901 -2.11623e-06 0)
(-14.8879 -2.0917e-06 0)
(-14.8746 -2.08177e-06 0)
(-14.8613 -2.05095e-06 0)
(-14.8482 -1.99391e-06 0)
(-14.8354 -1.95077e-06 0)
(-14.8226 -1.90796e-06 0)
(-14.81 -1.87152e-06 0)
(-14.7974 -1.83211e-06 0)
(-14.7852 -1.80479e-06 0)
(-14.7726 -1.80542e-06 0)
(-14.7601 -1.79293e-06 0)
(-14.7474 -1.76388e-06 0)
(-14.735 -1.74419e-06 0)
(-14.7224 -1.73128e-06 0)
(-14.7098 -1.73894e-06 0)
(-14.6968 -1.74375e-06 0)
(-14.6839 -1.72354e-06 0)
(-14.6709 -1.72389e-06 0)
(-14.6578 -1.70518e-06 0)
(-14.6448 -1.69295e-06 0)
(-14.6315 -1.67899e-06 0)
(-14.6185 -1.64277e-06 0)
(-14.6055 -1.65013e-06 0)
(-14.592 -1.61698e-06 0)
(-14.5793 -1.58889e-06 0)
(-14.566 -1.59988e-06 0)
(-14.5529 -1.56683e-06 0)
(-14.5398 -1.56526e-06 0)
(-14.5264 -1.56221e-06 0)
(-14.5131 -1.51917e-06 0)
(-14.5002 -1.50167e-06 0)
(-14.4869 -1.49064e-06 0)
(-14.4739 -1.46994e-06 0)
(-14.4607 -1.41833e-06 0)
(-14.4484 -1.37447e-06 0)
(-14.4357 -1.34749e-06 0)
(-14.4236 -1.31386e-06 0)
(-14.4113 -1.30548e-06 0)
(-14.399 -1.31502e-06 0)
(-14.3863 -1.31696e-06 0)
(-14.3737 -1.30099e-06 0)
(-14.3609 -1.30991e-06 0)
(-14.3479 -1.29872e-06 0)
(-14.3351 -1.26026e-06 0)
(-14.3226 -1.25197e-06 0)
(-14.3097 -1.24412e-06 0)
(-14.297 -1.23625e-06 0)
(-14.284 -1.22861e-06 0)
(-14.2713 -1.19961e-06 0)
(-14.2586 -1.1783e-06 0)
(-14.246 -1.1733e-06 0)
(-14.2332 -1.16813e-06 0)
(-14.2204 -1.14966e-06 0)
(-14.2077 -1.12418e-06 0)
(-14.1953 -1.11724e-06 0)
(-14.1825 -1.09609e-06 0)
(-14.1702 -1.08485e-06 0)
(-14.1574 -1.08794e-06 0)
(-14.1448 -1.07588e-06 0)
(-14.132 -1.05668e-06 0)
(-14.1196 -1.03047e-06 0)
(-14.1071 -1.01929e-06 0)
(-14.0948 -9.88948e-07 0)
(-14.0828 -9.78231e-07 0)
(-14.0704 -9.85204e-07 0)
(-14.0579 -9.82046e-07 0)
(-14.0454 -9.60609e-07 0)
(-14.0332 -9.25949e-07 0)
(-14.0213 -9.07226e-07 0)
(-14.0094 -9.09763e-07 0)
(-13.9971 -9.02118e-07 0)
(-13.9852 -8.78589e-07 0)
(-13.9733 -8.71697e-07 0)
(-13.9612 -8.50542e-07 0)
(-13.9497 -8.23881e-07 0)
(-13.9381 -8.14163e-07 0)
(-13.9266 -8.10506e-07 0)
(-13.9149 -8.24746e-07 0)
(-13.9026 -8.12927e-07 0)
(-13.891 -8.04485e-07 0)
(-13.8788 -8.00282e-07 0)
(-13.8671 -7.98935e-07 0)
(-13.8546 -7.83283e-07 0)
(-13.8431 -7.43024e-07 0)
(-13.8317 -7.22617e-07 0)
(-13.8206 -7.07123e-07 0)
(-13.8094 -7.20743e-07 0)
(-13.7976 -7.25824e-07 0)
(-13.7859 -7.08063e-07 0)
(-13.7745 -7.05062e-07 0)
(-13.7627 -7.03568e-07 0)
(-13.751 -6.71713e-07 0)
(-13.74 -6.65658e-07 0)
(-13.7283 -6.57875e-07 0)
(-13.7174 -6.37331e-07 0)
(-13.7061 -6.44111e-07 0)
(-13.6947 -6.25218e-07 0)
(-13.6838 -6.29286e-07 0)
(-13.672 -6.58543e-07 0)
(-13.6598 -6.59449e-07 0)
(-13.6477 -6.31212e-07 0)
(-13.6364 -5.83442e-07 0)
(-13.6259 -5.67894e-07 0)
(-13.6149 -5.69111e-07 0)
(-13.6041 -5.66612e-07 0)
(-13.5929 -5.7439e-07 0)
(-13.5815 -5.62375e-07 0)
(-13.5706 -5.44828e-07 0)
(-13.5597 -5.45556e-07 0)
(-13.5485 -5.31992e-07 0)
(-13.538 -5.09988e-07 0)
(-13.5275 -4.97875e-07 0)
(-13.5172 -5.03755e-07 0)
(-13.5062 -5.01552e-07 0)
(-13.4957 -4.91648e-07 0)
(-13.4849 -4.81008e-07 0)
(-13.4747 -4.81231e-07 0)
(-13.4637 -4.89822e-07 0)
(-13.4528 -4.81012e-07 0)
(-13.442 -4.69226e-07 0)
(-13.4314 -4.59751e-07 0)
(-13.4208 -4.58118e-07 0)
(-13.4101 -4.53418e-07 0)
(-13.3994 -4.48295e-07 0)
(-13.3887 -4.32876e-07 0)
(-13.3786 -4.3016e-07 0)
(-13.3678 -4.38209e-07 0)
(-13.357 -4.19038e-07 0)
(-13.347 -4.08318e-07 0)
(-13.3365 -4.18021e-07 0)
(-13.3257 -4.25078e-07 0)
(-13.3146 -4.02862e-07 0)
(-13.3048 -3.71576e-07 0)
(-13.2952 -3.67093e-07 0)
(-13.2854 -3.60758e-07 0)
(-13.2759 -3.53533e-07 0)
(-13.2662 -3.63397e-07 0)
(-13.2559 -3.66827e-07 0)
(-13.2459 -3.55024e-07 0)
(-13.236 -3.4921e-07 0)
(-13.2261 -3.40649e-07 0)
(-13.2166 -3.32921e-07 0)
(-13.2069 -3.37678e-07 0)
(-13.1968 -3.35216e-07 0)
(-13.187 -3.27805e-07 0)
(-13.1772 -3.30471e-07 0)
(-13.1671 -3.23587e-07 0)
(-13.1574 -3.1311e-07 0)
(-13.1477 -3.11684e-07 0)
(-13.138 -3.01919e-07 0)
(-13.1277 -2.91675e-07 0)
(-13.1164 -2.87079e-07 0)
(-13.1053 -2.82025e-07 0)
(-13.0944 -2.82347e-07 0)
(-13.0833 -2.75836e-07 0)
(-13.0729 -2.67739e-07 0)
(-13.0624 -2.62528e-07 0)
(-13.0524 -2.51682e-07 0)
(-13.0428 -2.49306e-07 0)
(-13.033 -2.56079e-07 0)
(-13.0229 -2.53705e-07 0)
(-13.0132 -2.39588e-07 0)
(-13.0042 -2.31545e-07 0)
(-12.9952 -2.25385e-07 0)
(-12.9867 -2.21898e-07 0)
(-12.9779 -2.31505e-07 0)
(-12.9686 -2.26791e-07 0)
(-12.9602 -2.1812e-07 0)
(-12.9516 -2.16242e-07 0)
(-12.9434 -2.09332e-07 0)
(-12.9353 -2.11854e-07 0)
(-12.9269 -2.25017e-07 0)
(-12.9177 -2.21923e-07 0)
(-12.9096 -2.04578e-07 0)
(-12.9018 -1.90592e-07 0)
(-12.8947 -1.81588e-07 0)
(-12.8876 -1.93032e-07 0)
(-12.8797 -1.93119e-07 0)
(-12.8726 -1.92255e-07 0)
(-12.8646 -1.9551e-07 0)
(-12.8573 -1.79009e-07 0)
(-12.8507 -1.54798e-07 0)
(-12.8453 -1.45171e-07 0)
(-12.8395 -1.53694e-07 0)
(-12.8333 -1.62787e-07 0)
(-12.8267 -1.72452e-07 0)
(-12.8199 -1.77711e-07 0)
(-12.8129 -1.81464e-07 0)
(-12.8057 -1.77934e-07 0)
(-12.799 -1.73105e-07 0)
(-12.7922 -1.74015e-07 0)
(-12.7855 -1.69096e-07 0)
(-12.779 -1.67946e-07 0)
(-12.7723 -1.65217e-07 0)
(-12.7662 -1.58023e-07 0)
(-12.76 -1.5933e-07 0)
(-12.7537 -1.60214e-07 0)
(-12.7475 -1.59252e-07 0)
(-12.7413 -1.57974e-07 0)
(-12.7352 -1.47655e-07 0)
(-12.7298 -1.32254e-07 0)
(-12.7249 -1.35187e-07 0)
(-12.7192 -1.44958e-07 0)
(-12.7136 -1.35127e-07 0)
(-12.7087 -1.36676e-07 0)
(-12.7029 -1.38932e-07 0)
(-12.6979 -1.39494e-07 0)
(-12.6921 -1.40607e-07 0)
(-12.6869 -1.35007e-07 0)
(-12.6816 -1.27762e-07 0)
(-12.677 -1.21233e-07 0)
(-12.6721 -1.24004e-07 0)
(-12.6673 -1.26471e-07 0)
(-12.6623 -1.29352e-07 0)
(-12.6572 -1.34449e-07 0)
(-12.6518 -1.40127e-07 0)
(-12.6463 -1.27494e-07 0)
(-12.6418 -1.18021e-07 0)
(-12.6371 -1.31156e-07 0)
(-12.6316 -1.27245e-07 0)
(-12.6272 -1.08693e-07 0)
(-12.6231 -1.08165e-07 0)
(-12.6187 -1.06759e-07 0)
(-12.6148 -1.03465e-07 0)
(-12.6107 -1.061e-07 0)
(-12.6065 -1.07112e-07 0)
(-12.6024 -1.11556e-07 0)
(-12.5979 -1.16246e-07 0)
(-12.5933 -1.21459e-07 0)
(-12.5884 -1.13499e-07 0)
(-12.5845 -9.81479e-08 0)
(-12.5807 -9.70553e-08 0)
(-12.5769 -9.7184e-08 0)
(-12.5732 -1.02499e-07 0)
(-12.5689 -1.12881e-07 0)
(-12.5644 -1.10801e-07 0)
(-12.5603 -1.06838e-07 0)
(-12.556 -1.1237e-07 0)
(-12.5515 -1.12593e-07 0)
(-12.5473 -1.09045e-07 0)
(-12.543 -1.03246e-07 0)
(-12.5392 -1.2301e-07 0)
(-12.5334 -8.66747e-08 0)
(-12.5325 -1.16737e-07 0)
(-12.5242 -1.09779e-07 0)
)
;
    }
    symmetry
    {
        type            symmetryPlane;
    }
    frontAndBack
    {
        type            empty;
    }
}


// ************************************************************************* //
