/*--------------------------------*- C++ -*----------------------------------*\
| =========                 |                                                 |
| \\      /  F ield         | OpenFOAM: The Open Source CFD Toolbox           |
|  \\    /   O peration     | Version:  v2012                                 |
|   \\  /    A nd           | Website:  www.openfoam.com                      |
|    \\/     M anipulation  |                                                 |
\*---------------------------------------------------------------------------*/
FoamFile
{
    version     2.0;
    format      ascii;
    class       volScalarField;
    location    "16";
    object      yPlus;
}
// * * * * * * * * * * * * * * * * * * * * * * * * * * * * * * * * * * * * * //

dimensions      [0 0 0 0 0 0 0];


internalField   uniform 0;

boundaryField
{
    inlet
    {
        type            calculated;
        value           uniform 0;
    }
    outlet
    {
        type            calculated;
        value           uniform 0;
    }
    topWall
    {
        type            calculated;
        value           nonuniform List<scalar> 
545
(
0.1156
0.199757
0.256323
0.301213
0.339196
0.372407
0.402047
0.428874
0.453402
0.476003
0.496952
0.516466
0.534716
0.55184
0.567953
0.583151
0.597517
0.611122
0.624025
0.636282
0.64794
0.659041
0.669622
0.679718
0.68936
0.698576
0.70739
0.715827
0.723907
0.731651
0.739077
0.746201
0.753039
0.759606
0.765915
0.771979
0.77781
0.783418
0.788815
0.79401
0.799012
0.803831
0.808473
0.812947
0.81726
0.821419
0.825431
0.829302
0.833037
0.836642
0.840122
0.843483
0.846729
0.849865
0.852895
0.855823
0.858653
0.861389
0.864035
0.866593
0.869068
0.871461
0.873777
0.876018
0.878186
0.880285
0.882317
0.884284
0.886189
0.888033
0.889819
0.891549
0.893202
0.8948
0.896383
0.897952
0.899507
0.901049
0.902576
0.904089
0.905589
0.907076
0.90855
0.91001
0.911457
0.912892
0.914314
0.915723
0.91712
0.918505
0.919877
0.921237
0.922585
0.923922
0.925247
0.926561
0.927737
0.928787
0.929837
0.930886
0.931933
0.93298
0.934026
0.93507
0.936114
0.937156
0.938198
0.939238
0.940278
0.941316
0.942353
0.943389
0.944424
0.945458
0.946491
0.947522
0.948553
0.949582
0.95061
0.951637
0.952662
0.953687
0.95471
0.955732
0.956752
0.957772
0.95879
0.959807
0.960822
0.961836
0.962849
0.963861
0.964871
0.965879
0.966887
0.967893
0.968897
0.9699
0.970902
0.971902
0.972901
0.973898
0.974894
0.975888
0.976881
0.977872
0.978862
0.97985
0.980836
0.981821
0.982805
0.983786
0.984766
0.985745
0.986722
0.987697
0.98867
0.989642
0.990612
0.99158
0.992547
0.993512
0.994475
0.995436
0.996395
0.997353
0.998309
0.999263
1.00021
1.00116
1.00211
1.00306
1.004
1.00495
1.00589
1.00683
1.00776
1.0087
1.00963
1.01056
1.01149
1.01241
1.01334
1.01426
1.01518
1.0161
1.01702
1.01793
1.01884
1.01975
1.02066
1.02156
1.02247
1.02337
1.02426
1.02516
1.02605
1.02694
1.02783
1.02872
1.0296
1.03049
1.03137
1.03224
1.03312
1.03399
1.03486
1.03573
1.03659
1.03745
1.03831
1.03917
1.04002
1.04088
1.04173
1.04257
1.04342
1.04426
1.0451
1.04593
1.04676
1.0476
1.04842
1.04925
1.05007
1.05089
1.05171
1.05252
1.05333
1.05414
1.05494
1.05575
1.05655
1.05734
1.05814
1.05893
1.05971
1.0605
1.06128
1.06206
1.06283
1.0636
1.06437
1.06514
1.0659
1.06666
1.06742
1.06817
1.06892
1.06967
1.07041
1.07115
1.07189
1.07262
1.07335
1.07408
1.0748
1.07552
1.07624
1.07695
1.07766
1.07837
1.07907
1.07977
1.08047
1.08116
1.08185
1.08253
1.08322
1.08385
1.08445
1.08505
1.08566
1.08626
1.08687
1.08748
1.08809
1.08871
1.08933
1.08995
1.09057
1.09119
1.09182
1.09244
1.09307
1.0937
1.09434
1.09497
1.09561
1.09624
1.09688
1.09752
1.09816
1.0988
1.09944
1.10009
1.10073
1.10137
1.10202
1.10266
1.10331
1.10395
1.1046
1.10524
1.10588
1.10653
1.10717
1.10781
1.10845
1.10909
1.10973
1.11037
1.111
1.11164
1.11227
1.1129
1.11352
1.11415
1.11477
1.11539
1.116
1.11661
1.11722
1.11782
1.11843
1.11902
1.11961
1.1202
1.12078
1.12136
1.12193
1.1225
1.12306
1.12361
1.12416
1.1247
1.12523
1.12576
1.12628
1.12679
1.12729
1.12779
1.12827
1.12875
1.12922
1.12968
1.13012
1.13056
1.13099
1.13141
1.13181
1.13221
1.13259
1.13296
1.13331
1.13366
1.13399
1.13431
1.13461
1.1349
1.13517
1.13543
1.13567
1.1359
1.13611
1.1363
1.13648
1.13664
1.13678
1.13691
1.13701
1.1371
1.13716
1.13721
1.13724
1.13724
1.13723
1.13719
1.13713
1.13705
1.13694
1.13682
1.13667
1.13649
1.13629
1.13607
1.13582
1.13555
1.13525
1.13492
1.13457
1.13419
1.13378
1.13334
1.13288
1.13239
1.13187
1.13132
1.13074
1.13013
1.12948
1.12881
1.12811
1.12738
1.12661
1.12582
1.12499
1.12413
1.12323
1.12231
1.12134
1.12035
1.11932
1.11826
1.11717
1.11604
1.11487
1.11368
1.11244
1.11118
1.10987
1.10854
1.10717
1.10576
1.10432
1.10284
1.10133
1.09979
1.0982
1.09659
1.09494
1.09326
1.09154
1.08979
1.088
1.08618
1.08432
1.08244
1.08052
1.07857
1.07658
1.07457
1.07252
1.07044
1.06833
1.06619
1.06401
1.06181
1.05958
1.05732
1.05478
1.05198
1.04918
1.04637
1.04357
1.04076
1.03796
1.03517
1.03238
1.0296
1.02683
1.02407
1.02131
1.01857
1.01585
1.01314
1.01044
1.00775
1.00509
1.00244
0.99981
0.997201
0.994609
0.99204
0.989489
0.986964
0.984457
0.981978
0.979517
0.977086
0.974675
0.972293
0.969933
0.967604
0.965297
0.963022
0.960771
0.958551
0.956357
0.954196
0.95206
0.949958
0.947883
0.945843
0.943829
0.941852
0.939902
0.937988
0.936103
0.934255
0.932437
0.930656
0.928905
0.927192
0.92551
0.923866
0.922255
0.920682
0.919142
0.917641
0.916174
0.914746
0.913353
0.912
0.910681
0.909403
0.908161
0.90696
0.905794
0.904671
0.903584
0.902539
0.901531
0.900565
0.899638
0.898753
0.897907
0.897103
0.896339
0.895617
0.894936
0.894297
0.8937
0.893145
0.892632
0.892162
0.891734
0.891349
0.891007
0.890708
0.890452
0.890239
0.890065
0.889954
0.88981
)
;
    }
    bottomWall
    {
        type            calculated;
        value           nonuniform List<scalar> 
449
(
0.00275304
0.00482517
0.00539673
0.00534888
0.00527644
0.00517543
0.00507204
0.00497826
0.00489538
0.00482065
0.00475145
0.00468627
0.00462435
0.00456547
0.00450946
0.00445614
0.00440553
0.00435741
0.00431167
0.00426826
0.00422693
0.00418764
0.00415023
0.00411449
0.00408046
0.00404797
0.00401692
0.00398715
0.00395868
0.00393123
0.00390505
0.00387982
0.00385566
0.00383228
0.00380985
0.00378807
0.00376726
0.00374698
0.00372755
0.00370862
0.00369043
0.00367271
0.00365557
0.00363891
0.00362278
0.00360709
0.00359185
0.00357708
0.00356265
0.00354872
0.00353508
0.00352189
0.00350887
0.00349636
0.00348403
0.00347211
0.00346034
0.00344894
0.00343773
0.00342684
0.00341611
0.00340569
0.0033954
0.00338543
0.00337563
0.00336606
0.00335662
0.00334742
0.00333837
0.00332948
0.00332073
0.00331219
0.00330382
0.00329558
0.00328746
0.00327951
0.00327164
0.00326395
0.00325636
0.00324898
0.00324169
0.00323454
0.00322745
0.00322047
0.0032136
0.00320686
0.00320027
0.00319378
0.00318729
0.00318094
0.00317465
0.00316849
0.00316243
0.00315646
0.00315059
0.00314482
0.00313912
0.00313346
0.00312789
0.00312238
0.00311698
0.00311163
0.00310634
0.00310114
0.00309602
0.00309095
0.00308595
0.00308103
0.00307608
0.00307127
0.00306642
0.00306172
0.00305706
0.0030525
0.003048
0.00304359
0.00303921
0.00303485
0.00303054
0.00302632
0.0030221
0.00301788
0.00301373
0.00300961
0.00300554
0.00300156
0.00299763
0.00299377
0.00298995
0.00298617
0.00298238
0.00297862
0.00297484
0.00297115
0.00296744
0.00296379
0.00296016
0.00295664
0.00295312
0.00294972
0.00294629
0.00294303
0.00293972
0.00293651
0.00293325
0.00293007
0.00292683
0.00292364
0.00292049
0.00291737
0.00291428
0.00291118
0.00290818
0.00290513
0.0029022
0.0028993
0.00289642
0.00289357
0.00289075
0.00288797
0.00288515
0.00288239
0.00287959
0.00287682
0.00287411
0.00287149
0.00286885
0.00286626
0.00286371
0.00286118
0.00285865
0.00285614
0.00285359
0.00285121
0.00284889
0.00284661
0.00284432
0.00284204
0.00283975
0.00283753
0.00283519
0.0028329
0.00283059
0.0028283
0.00282601
0.0028238
0.00282158
0.0028194
0.00281711
0.00281484
0.0028125
0.00281028
0.00280793
0.00280565
0.0028034
0.00280117
0.00279893
0.00279667
0.00279443
0.00279216
0.00278989
0.0027876
0.00278529
0.00278294
0.00278063
0.00277828
0.00277593
0.00277361
0.00277136
0.00276909
0.0027669
0.00276469
0.00276255
0.00276036
0.00275816
0.00275595
0.00275379
0.00275159
0.0027494
0.0027471
0.00274485
0.00274255
0.00274022
0.00273792
0.00273556
0.00273326
0.00273097
0.00272857
0.00272635
0.00272398
0.00272165
0.00271934
0.00271694
0.00271458
0.00271229
0.00270992
0.00270758
0.00270522
0.00270304
0.0027008
0.00269869
0.00269653
0.00269436
0.00269209
0.00268985
0.00268758
0.00268524
0.00268297
0.00268074
0.00267843
0.00267617
0.00267383
0.00267155
0.0026693
0.00266705
0.00266475
0.00266246
0.00266019
0.00265797
0.00265567
0.00265349
0.00265117
0.0026489
0.00264658
0.00264436
0.00264212
0.0026399
0.00263778
0.00263555
0.00263331
0.00263103
0.00262885
0.00262672
0.00262458
0.00262237
0.00262022
0.00261808
0.0026159
0.00261384
0.00261177
0.00260971
0.00260761
0.00260538
0.00260329
0.00260107
0.00259894
0.00259665
0.00259457
0.00259251
0.00259053
0.00258851
0.00258636
0.00258425
0.00258218
0.00258002
0.00257791
0.00257594
0.0025738
0.00257184
0.00256981
0.00256775
0.00256583
0.00256366
0.00256141
0.00255915
0.00255709
0.00255521
0.00255323
0.00255129
0.00254927
0.00254719
0.00254524
0.00254326
0.00254121
0.00253927
0.00253737
0.00253549
0.00253348
0.00253158
0.00252962
0.00252779
0.00252576
0.00252377
0.00252178
0.00251987
0.00251793
0.002516
0.00251404
0.0025121
0.00251027
0.00250827
0.00250629
0.00250446
0.00250255
0.00250055
0.00249848
0.0024967
0.00249496
0.00249317
0.00249145
0.00248969
0.00248776
0.0024859
0.00248409
0.00248225
0.00248051
0.00247873
0.00247687
0.00247508
0.00247327
0.00247139
0.00246962
0.00246784
0.00246603
0.00246412
0.00246203
0.00246
0.00245799
0.00245596
0.00245408
0.00245219
0.00245039
0.00244867
0.00244688
0.00244499
0.00244323
0.00244158
0.00243994
0.00243838
0.00243677
0.00243503
0.00243351
0.00243191
0.00243039
0.00242891
0.00242734
0.0024256
0.00242408
0.00242266
0.00242139
0.00242011
0.00241862
0.00241731
0.00241583
0.00241445
0.00241322
0.00241225
0.00241118
0.00241005
0.00240883
0.00240754
0.00240622
0.00240487
0.00240363
0.00240237
0.00240111
0.00239994
0.0023987
0.00239756
0.00239644
0.00239526
0.00239409
0.00239292
0.00239176
0.00239078
0.0023899
0.00238883
0.00238778
0.00238691
0.00238583
0.0023849
0.0023838
0.00238285
0.00238183
0.002381
0.00238009
0.00237919
0.00237823
0.00237729
0.00237624
0.0023752
0.00237438
0.0023735
0.00237245
0.00237163
0.00237087
0.00237005
0.00236933
0.00236859
0.00236782
0.00236706
0.00236622
0.00236535
0.00236443
0.00236372
0.00236304
0.00236232
0.00236163
0.00236082
0.00235996
0.00235921
0.00235842
0.00235757
0.00235677
0.00235601
0.00235524
0.00235423
0.00235391
0.00235246
)
;
    }
    symmetry
    {
        type            symmetryPlane;
    }
    frontAndBack
    {
        type            empty;
    }
}


// ************************************************************************* //
