/*--------------------------------*- C++ -*----------------------------------*\
| =========                 |                                                 |
| \\      /  F ield         | OpenFOAM: The Open Source CFD Toolbox           |
|  \\    /   O peration     | Version:  v2012                                 |
|   \\  /    A nd           | Website:  www.openfoam.com                      |
|    \\/     M anipulation  |                                                 |
\*---------------------------------------------------------------------------*/
FoamFile
{
    version     2.0;
    format      ascii;
    class       volScalarField;
    location    "54.5";
    object      nut;
}
// * * * * * * * * * * * * * * * * * * * * * * * * * * * * * * * * * * * * * //

dimensions      [0 2 -1 0 0 0 0];


internalField   nonuniform List<scalar> 
209825
(
1.23937e-07
1.23154e-07
1.22362e-07
1.21263e-07
1.1986e-07
1.1825e-07
1.16604e-07
1.14994e-07
1.13507e-07
1.12134e-07
1.10911e-07
1.098e-07
1.08822e-07
1.07934e-07
1.07154e-07
1.06441e-07
1.05816e-07
1.0524e-07
1.04734e-07
1.04265e-07
1.03851e-07
1.03464e-07
1.03122e-07
1.02801e-07
1.02516e-07
1.02247e-07
1.02006e-07
1.01779e-07
1.01575e-07
1.01382e-07
1.01207e-07
1.01041e-07
1.0089e-07
1.00747e-07
1.00616e-07
1.00492e-07
1.00377e-07
1.00269e-07
1.00168e-07
1.00074e-07
9.99837e-08
9.99011e-08
9.9821e-08
9.9748e-08
9.96759e-08
9.96117e-08
9.95467e-08
9.94909e-08
9.94313e-08
9.9382e-08
9.93271e-08
9.92832e-08
9.92304e-08
9.91931e-08
9.91454e-08
9.91115e-08
9.90682e-08
9.90377e-08
9.89992e-08
9.89712e-08
9.89346e-08
9.89079e-08
9.8875e-08
9.88503e-08
9.88187e-08
9.8796e-08
9.87681e-08
9.87476e-08
9.87212e-08
9.87006e-08
9.86752e-08
9.8656e-08
9.86333e-08
9.86169e-08
9.85967e-08
9.85827e-08
9.85638e-08
9.85501e-08
9.85311e-08
9.85172e-08
9.84984e-08
9.84845e-08
9.84664e-08
9.84527e-08
9.84353e-08
9.84194e-08
9.83997e-08
9.83805e-08
9.83616e-08
9.83426e-08
9.83167e-08
9.82856e-08
9.82947e-08
9.9221e-08
1.01697e-07
9.62026e-09
1.23937e-07
1.23154e-07
1.22362e-07
1.21264e-07
1.19861e-07
1.1825e-07
1.16604e-07
1.14994e-07
1.13507e-07
1.12134e-07
1.10912e-07
1.09801e-07
1.08823e-07
1.07934e-07
1.07154e-07
1.06442e-07
1.05816e-07
1.05241e-07
1.04735e-07
1.04265e-07
1.03851e-07
1.03465e-07
1.03123e-07
1.02802e-07
1.02517e-07
1.02248e-07
1.02007e-07
1.0178e-07
1.01576e-07
1.01382e-07
1.01207e-07
1.01042e-07
1.00891e-07
1.00748e-07
1.00617e-07
1.00493e-07
1.00378e-07
1.0027e-07
1.00169e-07
1.00075e-07
9.99842e-08
9.99017e-08
9.98215e-08
9.97485e-08
9.96764e-08
9.96122e-08
9.95472e-08
9.94914e-08
9.94318e-08
9.93825e-08
9.93276e-08
9.92837e-08
9.92309e-08
9.91936e-08
9.91459e-08
9.9112e-08
9.90687e-08
9.90382e-08
9.89997e-08
9.89717e-08
9.89351e-08
9.89084e-08
9.88754e-08
9.88508e-08
9.88192e-08
9.87965e-08
9.87686e-08
9.87481e-08
9.87217e-08
9.87011e-08
9.86757e-08
9.86564e-08
9.86337e-08
9.86173e-08
9.85971e-08
9.85831e-08
9.85643e-08
9.85505e-08
9.85316e-08
9.85176e-08
9.84988e-08
9.84849e-08
9.84668e-08
9.84531e-08
9.84358e-08
9.84198e-08
9.84002e-08
9.83809e-08
9.83621e-08
9.83431e-08
9.83171e-08
9.82861e-08
9.82951e-08
9.92233e-08
1.01698e-07
9.91487e-09
1.23937e-07
1.23154e-07
1.22362e-07
1.21264e-07
1.19861e-07
1.18252e-07
1.16606e-07
1.14996e-07
1.13509e-07
1.12136e-07
1.10914e-07
1.09803e-07
1.08825e-07
1.07936e-07
1.07156e-07
1.06444e-07
1.05818e-07
1.05242e-07
1.04736e-07
1.04267e-07
1.03852e-07
1.03466e-07
1.03124e-07
1.02803e-07
1.02517e-07
1.02248e-07
1.02008e-07
1.0178e-07
1.01576e-07
1.01383e-07
1.01208e-07
1.01042e-07
1.00891e-07
1.00748e-07
1.00617e-07
1.00493e-07
1.00378e-07
1.0027e-07
1.00169e-07
1.00075e-07
9.99843e-08
9.99017e-08
9.98215e-08
9.97485e-08
9.96764e-08
9.96122e-08
9.95471e-08
9.94913e-08
9.94317e-08
9.93824e-08
9.93275e-08
9.92835e-08
9.92307e-08
9.91934e-08
9.91457e-08
9.91117e-08
9.90685e-08
9.9038e-08
9.89994e-08
9.89714e-08
9.89348e-08
9.89081e-08
9.88751e-08
9.88505e-08
9.88189e-08
9.87962e-08
9.87682e-08
9.87477e-08
9.87213e-08
9.87007e-08
9.86753e-08
9.86561e-08
9.86334e-08
9.86169e-08
9.85967e-08
9.85827e-08
9.85639e-08
9.85501e-08
9.85312e-08
9.85172e-08
9.84984e-08
9.84845e-08
9.84664e-08
9.84527e-08
9.84353e-08
9.84194e-08
9.83997e-08
9.83805e-08
9.83616e-08
9.83426e-08
9.83167e-08
9.82857e-08
9.82948e-08
9.92266e-08
1.01698e-07
1.02807e-08
1.23937e-07
1.23154e-07
1.22362e-07
1.21265e-07
1.19863e-07
1.18254e-07
1.16609e-07
1.14999e-07
1.13512e-07
1.1214e-07
1.10917e-07
1.09806e-07
1.08828e-07
1.07939e-07
1.07159e-07
1.06446e-07
1.0582e-07
1.05245e-07
1.04738e-07
1.04269e-07
1.03854e-07
1.03468e-07
1.03125e-07
1.02804e-07
1.02519e-07
1.0225e-07
1.02009e-07
1.01782e-07
1.01578e-07
1.01384e-07
1.01209e-07
1.01043e-07
1.00892e-07
1.00749e-07
1.00618e-07
1.00494e-07
1.00379e-07
1.00271e-07
1.00169e-07
1.00075e-07
9.99847e-08
9.99021e-08
9.98219e-08
9.97488e-08
9.96767e-08
9.96124e-08
9.95473e-08
9.94915e-08
9.94318e-08
9.93825e-08
9.93276e-08
9.92836e-08
9.92308e-08
9.91934e-08
9.91457e-08
9.91117e-08
9.90684e-08
9.90379e-08
9.89994e-08
9.89713e-08
9.89347e-08
9.8908e-08
9.8875e-08
9.88503e-08
9.88187e-08
9.8796e-08
9.8768e-08
9.87475e-08
9.87211e-08
9.87005e-08
9.86751e-08
9.86558e-08
9.86331e-08
9.86167e-08
9.85965e-08
9.85824e-08
9.85635e-08
9.85498e-08
9.85308e-08
9.85169e-08
9.8498e-08
9.84842e-08
9.8466e-08
9.84523e-08
9.84349e-08
9.8419e-08
9.83994e-08
9.83802e-08
9.83612e-08
9.83423e-08
9.83163e-08
9.82854e-08
9.82946e-08
9.9232e-08
1.017e-07
1.06884e-08
1.23937e-07
1.23153e-07
1.22362e-07
1.21266e-07
1.19865e-07
1.18257e-07
1.16613e-07
1.15004e-07
1.13517e-07
1.12145e-07
1.10922e-07
1.09811e-07
1.08832e-07
1.07944e-07
1.07163e-07
1.0645e-07
1.05824e-07
1.05248e-07
1.04741e-07
1.04272e-07
1.03857e-07
1.03471e-07
1.03128e-07
1.02807e-07
1.02521e-07
1.02252e-07
1.02011e-07
1.01784e-07
1.01579e-07
1.01386e-07
1.01211e-07
1.01045e-07
1.00893e-07
1.0075e-07
1.00619e-07
1.00495e-07
1.0038e-07
1.00272e-07
1.0017e-07
1.00076e-07
9.99856e-08
9.99029e-08
9.98226e-08
9.97495e-08
9.96773e-08
9.9613e-08
9.95479e-08
9.9492e-08
9.94323e-08
9.9383e-08
9.9328e-08
9.9284e-08
9.92311e-08
9.91937e-08
9.9146e-08
9.9112e-08
9.90686e-08
9.90381e-08
9.89995e-08
9.89714e-08
9.89348e-08
9.89081e-08
9.88751e-08
9.88504e-08
9.88187e-08
9.8796e-08
9.8768e-08
9.87475e-08
9.8721e-08
9.87005e-08
9.8675e-08
9.86557e-08
9.8633e-08
9.86165e-08
9.85963e-08
9.85823e-08
9.85634e-08
9.85496e-08
9.85306e-08
9.85166e-08
9.84978e-08
9.84839e-08
9.84658e-08
9.84521e-08
9.84346e-08
9.84187e-08
9.83991e-08
9.838e-08
9.8361e-08
9.83421e-08
9.83161e-08
9.82852e-08
9.82945e-08
9.92398e-08
1.01702e-07
1.11307e-08
1.23937e-07
1.23153e-07
1.22362e-07
1.21267e-07
1.19868e-07
1.18261e-07
1.16618e-07
1.15009e-07
1.13523e-07
1.12151e-07
1.10928e-07
1.09817e-07
1.08838e-07
1.07949e-07
1.07169e-07
1.06456e-07
1.05829e-07
1.05253e-07
1.04746e-07
1.04276e-07
1.03861e-07
1.03474e-07
1.03132e-07
1.0281e-07
1.02524e-07
1.02255e-07
1.02014e-07
1.01786e-07
1.01582e-07
1.01388e-07
1.01213e-07
1.01047e-07
1.00896e-07
1.00752e-07
1.00621e-07
1.00497e-07
1.00382e-07
1.00273e-07
1.00172e-07
1.00077e-07
9.99869e-08
9.99041e-08
9.98238e-08
9.97506e-08
9.96783e-08
9.9614e-08
9.95488e-08
9.94928e-08
9.94331e-08
9.93837e-08
9.93287e-08
9.92847e-08
9.92317e-08
9.91943e-08
9.91465e-08
9.91125e-08
9.90691e-08
9.90385e-08
9.89999e-08
9.89718e-08
9.89351e-08
9.89084e-08
9.88753e-08
9.88506e-08
9.8819e-08
9.87962e-08
9.87682e-08
9.87476e-08
9.87212e-08
9.87006e-08
9.86751e-08
9.86558e-08
9.86331e-08
9.86166e-08
9.85963e-08
9.85823e-08
9.85633e-08
9.85495e-08
9.85305e-08
9.85166e-08
9.84977e-08
9.84838e-08
9.84656e-08
9.84519e-08
9.84344e-08
9.84186e-08
9.8399e-08
9.83799e-08
9.83608e-08
9.83421e-08
9.83161e-08
9.82851e-08
9.82947e-08
9.92501e-08
1.01705e-07
1.16067e-08
1.23937e-07
1.23153e-07
1.22362e-07
1.21268e-07
1.19871e-07
1.18266e-07
1.16624e-07
1.15017e-07
1.13531e-07
1.12159e-07
1.10936e-07
1.09825e-07
1.08846e-07
1.07957e-07
1.07176e-07
1.06463e-07
1.05836e-07
1.05259e-07
1.04752e-07
1.04282e-07
1.03867e-07
1.03479e-07
1.03136e-07
1.02815e-07
1.02529e-07
1.02259e-07
1.02018e-07
1.0179e-07
1.01585e-07
1.01391e-07
1.01216e-07
1.0105e-07
1.00898e-07
1.00755e-07
1.00623e-07
1.00499e-07
1.00384e-07
1.00275e-07
1.00174e-07
1.00079e-07
9.99887e-08
9.99058e-08
9.98254e-08
9.97521e-08
9.96798e-08
9.96154e-08
9.95501e-08
9.94941e-08
9.94343e-08
9.93848e-08
9.93297e-08
9.92857e-08
9.92327e-08
9.91952e-08
9.91474e-08
9.91132e-08
9.90698e-08
9.90392e-08
9.90005e-08
9.89724e-08
9.89357e-08
9.89089e-08
9.88758e-08
9.88511e-08
9.88194e-08
9.87966e-08
9.87686e-08
9.8748e-08
9.87215e-08
9.87009e-08
9.86754e-08
9.86561e-08
9.86333e-08
9.86168e-08
9.85965e-08
9.85824e-08
9.85634e-08
9.85496e-08
9.85306e-08
9.85166e-08
9.84977e-08
9.84838e-08
9.84656e-08
9.84519e-08
9.84343e-08
9.84186e-08
9.83991e-08
9.838e-08
9.83608e-08
9.83421e-08
9.83161e-08
9.82852e-08
9.8295e-08
9.92632e-08
1.01708e-07
1.21165e-08
1.23937e-07
1.23152e-07
1.22362e-07
1.2127e-07
1.19875e-07
1.18272e-07
1.16632e-07
1.15026e-07
1.13541e-07
1.12169e-07
1.10946e-07
1.09834e-07
1.08855e-07
1.07966e-07
1.07184e-07
1.06471e-07
1.05844e-07
1.05267e-07
1.04759e-07
1.04288e-07
1.03873e-07
1.03485e-07
1.03142e-07
1.0282e-07
1.02534e-07
1.02264e-07
1.02022e-07
1.01794e-07
1.0159e-07
1.01395e-07
1.0122e-07
1.01053e-07
1.00902e-07
1.00758e-07
1.00626e-07
1.00502e-07
1.00386e-07
1.00278e-07
1.00176e-07
1.00082e-07
9.99909e-08
9.99079e-08
9.98274e-08
9.97541e-08
9.96816e-08
9.96171e-08
9.95517e-08
9.94957e-08
9.94358e-08
9.93863e-08
9.93311e-08
9.9287e-08
9.92339e-08
9.91964e-08
9.91485e-08
9.91143e-08
9.90709e-08
9.90402e-08
9.90015e-08
9.89733e-08
9.89365e-08
9.89097e-08
9.88766e-08
9.88518e-08
9.88201e-08
9.87973e-08
9.87692e-08
9.87486e-08
9.87221e-08
9.87014e-08
9.86759e-08
9.86566e-08
9.86338e-08
9.86172e-08
9.85969e-08
9.85827e-08
9.85637e-08
9.85499e-08
9.85309e-08
9.85169e-08
9.84979e-08
9.8484e-08
9.84658e-08
9.8452e-08
9.84343e-08
9.84187e-08
9.83992e-08
9.83802e-08
9.8361e-08
9.83424e-08
9.83164e-08
9.82855e-08
9.82956e-08
9.92792e-08
1.01713e-07
1.26609e-08
1.23937e-07
1.23152e-07
1.22362e-07
1.21272e-07
1.1988e-07
1.18279e-07
1.16641e-07
1.15036e-07
1.13552e-07
1.1218e-07
1.10957e-07
1.09845e-07
1.08866e-07
1.07976e-07
1.07194e-07
1.0648e-07
1.05853e-07
1.05275e-07
1.04767e-07
1.04296e-07
1.03881e-07
1.03492e-07
1.03149e-07
1.02827e-07
1.0254e-07
1.02269e-07
1.02028e-07
1.01799e-07
1.01595e-07
1.014e-07
1.01224e-07
1.01057e-07
1.00906e-07
1.00762e-07
1.0063e-07
1.00505e-07
1.0039e-07
1.00281e-07
1.00179e-07
1.00085e-07
9.99937e-08
9.99106e-08
9.98299e-08
9.97565e-08
9.96839e-08
9.96193e-08
9.95538e-08
9.94977e-08
9.94377e-08
9.93881e-08
9.93328e-08
9.92887e-08
9.92355e-08
9.91979e-08
9.915e-08
9.91157e-08
9.90722e-08
9.90415e-08
9.90027e-08
9.89744e-08
9.89377e-08
9.89108e-08
9.88776e-08
9.88528e-08
9.8821e-08
9.87982e-08
9.877e-08
9.87494e-08
9.87228e-08
9.87022e-08
9.86766e-08
9.86573e-08
9.86344e-08
9.86178e-08
9.85974e-08
9.85833e-08
9.85642e-08
9.85504e-08
9.85313e-08
9.85173e-08
9.84983e-08
9.84844e-08
9.84661e-08
9.84523e-08
9.84345e-08
9.8419e-08
9.83996e-08
9.83806e-08
9.83613e-08
9.83429e-08
9.83168e-08
9.8286e-08
9.82964e-08
9.92982e-08
1.01717e-07
1.32402e-08
1.23937e-07
1.23151e-07
1.22362e-07
1.21275e-07
1.19885e-07
1.18288e-07
1.16651e-07
1.15047e-07
1.13564e-07
1.12193e-07
1.1097e-07
1.09858e-07
1.08879e-07
1.07988e-07
1.07206e-07
1.06491e-07
1.05863e-07
1.05286e-07
1.04777e-07
1.04305e-07
1.03889e-07
1.03501e-07
1.03157e-07
1.02834e-07
1.02547e-07
1.02276e-07
1.02034e-07
1.01805e-07
1.016e-07
1.01405e-07
1.01229e-07
1.01062e-07
1.0091e-07
1.00766e-07
1.00634e-07
1.0051e-07
1.00394e-07
1.00285e-07
1.00183e-07
1.00088e-07
9.9997e-08
9.99137e-08
9.98329e-08
9.97594e-08
9.96867e-08
9.9622e-08
9.95563e-08
9.95001e-08
9.944e-08
9.93903e-08
9.9335e-08
9.92907e-08
9.92375e-08
9.91998e-08
9.91518e-08
9.91175e-08
9.90738e-08
9.9043e-08
9.90042e-08
9.89759e-08
9.89391e-08
9.89122e-08
9.88789e-08
9.88541e-08
9.88222e-08
9.87993e-08
9.87711e-08
9.87504e-08
9.87238e-08
9.87032e-08
9.86776e-08
9.86582e-08
9.86353e-08
9.86187e-08
9.85982e-08
9.8584e-08
9.85649e-08
9.8551e-08
9.85319e-08
9.85178e-08
9.84988e-08
9.84849e-08
9.84666e-08
9.84528e-08
9.84348e-08
9.84195e-08
9.84001e-08
9.83812e-08
9.83617e-08
9.83435e-08
9.83174e-08
9.82867e-08
9.82975e-08
9.93205e-08
1.01723e-07
1.38546e-08
1.23937e-07
1.2315e-07
1.22363e-07
1.21277e-07
1.19891e-07
1.18297e-07
1.16663e-07
1.15061e-07
1.13578e-07
1.12207e-07
1.10985e-07
1.09873e-07
1.08893e-07
1.08002e-07
1.07219e-07
1.06504e-07
1.05875e-07
1.05297e-07
1.04788e-07
1.04316e-07
1.03899e-07
1.0351e-07
1.03166e-07
1.02842e-07
1.02555e-07
1.02284e-07
1.02042e-07
1.01812e-07
1.01607e-07
1.01412e-07
1.01235e-07
1.01068e-07
1.00916e-07
1.00772e-07
1.00639e-07
1.00514e-07
1.00398e-07
1.00289e-07
1.00187e-07
1.00092e-07
1.00001e-07
9.99174e-08
9.98364e-08
9.97627e-08
9.96899e-08
9.96251e-08
9.95593e-08
9.95029e-08
9.94427e-08
9.93929e-08
9.93375e-08
9.92931e-08
9.92398e-08
9.9202e-08
9.91539e-08
9.91195e-08
9.90758e-08
9.90449e-08
9.9006e-08
9.89776e-08
9.89407e-08
9.89138e-08
9.88804e-08
9.88556e-08
9.88237e-08
9.88007e-08
9.87724e-08
9.87517e-08
9.87251e-08
9.87044e-08
9.86788e-08
9.86593e-08
9.86363e-08
9.86197e-08
9.85992e-08
9.85849e-08
9.85657e-08
9.85518e-08
9.85327e-08
9.85186e-08
9.84996e-08
9.84856e-08
9.84672e-08
9.84534e-08
9.84354e-08
9.84201e-08
9.84008e-08
9.8382e-08
9.83624e-08
9.83443e-08
9.83182e-08
9.82875e-08
9.82988e-08
9.93463e-08
1.01729e-07
1.45033e-08
1.23937e-07
1.23149e-07
1.22363e-07
1.2128e-07
1.19898e-07
1.18307e-07
1.16676e-07
1.15075e-07
1.13594e-07
1.12224e-07
1.11001e-07
1.09889e-07
1.08909e-07
1.08017e-07
1.07234e-07
1.06518e-07
1.05889e-07
1.0531e-07
1.048e-07
1.04327e-07
1.0391e-07
1.03521e-07
1.03176e-07
1.02852e-07
1.02564e-07
1.02293e-07
1.0205e-07
1.0182e-07
1.01614e-07
1.01419e-07
1.01242e-07
1.01075e-07
1.00922e-07
1.00778e-07
1.00645e-07
1.0052e-07
1.00404e-07
1.00294e-07
1.00192e-07
1.00097e-07
1.00005e-07
9.99216e-08
9.98404e-08
9.97666e-08
9.96936e-08
9.96286e-08
9.95627e-08
9.95062e-08
9.94458e-08
9.9396e-08
9.93404e-08
9.9296e-08
9.92425e-08
9.92046e-08
9.91564e-08
9.91219e-08
9.90781e-08
9.90471e-08
9.90081e-08
9.89797e-08
9.89427e-08
9.89157e-08
9.88823e-08
9.88574e-08
9.88254e-08
9.88024e-08
9.8774e-08
9.87533e-08
9.87266e-08
9.87059e-08
9.86802e-08
9.86607e-08
9.86377e-08
9.8621e-08
9.86003e-08
9.85861e-08
9.85668e-08
9.85529e-08
9.85337e-08
9.85196e-08
9.85005e-08
9.84865e-08
9.8468e-08
9.84542e-08
9.84361e-08
9.84208e-08
9.84017e-08
9.83829e-08
9.83632e-08
9.83453e-08
9.83192e-08
9.82886e-08
9.83004e-08
9.93756e-08
1.01735e-07
1.51859e-08
1.23937e-07
1.23148e-07
1.22363e-07
1.21283e-07
1.19905e-07
1.18318e-07
1.1669e-07
1.15092e-07
1.13612e-07
1.12242e-07
1.1102e-07
1.09907e-07
1.08926e-07
1.08034e-07
1.0725e-07
1.06534e-07
1.05904e-07
1.05324e-07
1.04814e-07
1.04341e-07
1.03923e-07
1.03533e-07
1.03187e-07
1.02863e-07
1.02574e-07
1.02302e-07
1.02059e-07
1.01829e-07
1.01623e-07
1.01427e-07
1.0125e-07
1.01082e-07
1.00929e-07
1.00784e-07
1.00651e-07
1.00526e-07
1.00409e-07
1.003e-07
1.00197e-07
1.00102e-07
1.0001e-07
9.99263e-08
9.9845e-08
9.9771e-08
9.96978e-08
9.96327e-08
9.95666e-08
9.951e-08
9.94494e-08
9.93994e-08
9.93437e-08
9.92992e-08
9.92456e-08
9.92076e-08
9.91593e-08
9.91247e-08
9.90808e-08
9.90497e-08
9.90106e-08
9.89821e-08
9.8945e-08
9.89179e-08
9.88844e-08
9.88595e-08
9.88275e-08
9.88043e-08
9.87759e-08
9.87551e-08
9.87284e-08
9.87076e-08
9.86819e-08
9.86624e-08
9.86392e-08
9.86225e-08
9.86018e-08
9.85874e-08
9.85681e-08
9.85541e-08
9.85348e-08
9.85207e-08
9.85016e-08
9.84876e-08
9.84691e-08
9.84552e-08
9.84369e-08
9.84218e-08
9.84027e-08
9.83841e-08
9.83642e-08
9.83465e-08
9.83203e-08
9.82899e-08
9.83023e-08
9.94087e-08
1.01742e-07
1.59044e-08
1.23937e-07
1.23147e-07
1.22363e-07
1.21287e-07
1.19913e-07
1.1833e-07
1.16706e-07
1.1511e-07
1.13631e-07
1.12262e-07
1.1104e-07
1.09927e-07
1.08946e-07
1.08053e-07
1.07268e-07
1.06551e-07
1.05921e-07
1.0534e-07
1.04829e-07
1.04355e-07
1.03936e-07
1.03546e-07
1.03199e-07
1.02875e-07
1.02586e-07
1.02313e-07
1.02069e-07
1.01839e-07
1.01632e-07
1.01436e-07
1.01258e-07
1.0109e-07
1.00937e-07
1.00792e-07
1.00659e-07
1.00533e-07
1.00416e-07
1.00306e-07
1.00203e-07
1.00108e-07
1.00016e-07
9.99317e-08
9.98501e-08
9.97759e-08
9.97025e-08
9.96372e-08
9.95709e-08
9.95142e-08
9.94535e-08
9.94034e-08
9.93474e-08
9.93028e-08
9.92491e-08
9.9211e-08
9.91625e-08
9.91278e-08
9.90838e-08
9.90526e-08
9.90134e-08
9.89848e-08
9.89477e-08
9.89205e-08
9.88869e-08
9.88619e-08
9.88298e-08
9.88066e-08
9.87781e-08
9.87572e-08
9.87304e-08
9.87096e-08
9.86838e-08
9.86643e-08
9.8641e-08
9.86243e-08
9.86034e-08
9.8589e-08
9.85696e-08
9.85556e-08
9.85363e-08
9.85221e-08
9.85029e-08
9.84889e-08
9.84703e-08
9.84564e-08
9.8438e-08
9.84229e-08
9.8404e-08
9.83854e-08
9.83653e-08
9.83479e-08
9.83217e-08
9.82914e-08
9.83045e-08
9.94457e-08
1.01748e-07
1.66611e-08
1.23937e-07
1.23146e-07
1.22363e-07
1.21291e-07
1.19922e-07
1.18344e-07
1.16723e-07
1.15129e-07
1.13652e-07
1.12283e-07
1.11061e-07
1.09948e-07
1.08967e-07
1.08074e-07
1.07288e-07
1.0657e-07
1.05939e-07
1.05358e-07
1.04846e-07
1.04371e-07
1.03952e-07
1.0356e-07
1.03213e-07
1.02888e-07
1.02598e-07
1.02325e-07
1.02081e-07
1.0185e-07
1.01643e-07
1.01446e-07
1.01268e-07
1.01099e-07
1.00946e-07
1.008e-07
1.00666e-07
1.0054e-07
1.00423e-07
1.00313e-07
1.0021e-07
1.00114e-07
1.00022e-07
9.99376e-08
9.98558e-08
9.97814e-08
9.97078e-08
9.96423e-08
9.95758e-08
9.95189e-08
9.9458e-08
9.94077e-08
9.93516e-08
9.93069e-08
9.92531e-08
9.92148e-08
9.91662e-08
9.91314e-08
9.90872e-08
9.90559e-08
9.90166e-08
9.89879e-08
9.89507e-08
9.89234e-08
9.88897e-08
9.88646e-08
9.88324e-08
9.88092e-08
9.87806e-08
9.87596e-08
9.87327e-08
9.87119e-08
9.8686e-08
9.86664e-08
9.86431e-08
9.86263e-08
9.86054e-08
9.85909e-08
9.85714e-08
9.85574e-08
9.85379e-08
9.85238e-08
9.85045e-08
9.84904e-08
9.84717e-08
9.84578e-08
9.84393e-08
9.84243e-08
9.84054e-08
9.8387e-08
9.83667e-08
9.83494e-08
9.83233e-08
9.82931e-08
9.83071e-08
9.94868e-08
1.01754e-07
1.74584e-08
1.23937e-07
1.23145e-07
1.22363e-07
1.21295e-07
1.19931e-07
1.18358e-07
1.16741e-07
1.1515e-07
1.13675e-07
1.12307e-07
1.11085e-07
1.09972e-07
1.0899e-07
1.08096e-07
1.0731e-07
1.06591e-07
1.05959e-07
1.05377e-07
1.04864e-07
1.04388e-07
1.03968e-07
1.03576e-07
1.03228e-07
1.02902e-07
1.02612e-07
1.02338e-07
1.02093e-07
1.01862e-07
1.01654e-07
1.01456e-07
1.01278e-07
1.01109e-07
1.00955e-07
1.00809e-07
1.00675e-07
1.00549e-07
1.00431e-07
1.00321e-07
1.00217e-07
1.00121e-07
1.00029e-07
9.99441e-08
9.98621e-08
9.97874e-08
9.97136e-08
9.96479e-08
9.95812e-08
9.95241e-08
9.9463e-08
9.94126e-08
9.93563e-08
9.93115e-08
9.92575e-08
9.9219e-08
9.91703e-08
9.91353e-08
9.90911e-08
9.90596e-08
9.90201e-08
9.89913e-08
9.8954e-08
9.89267e-08
9.88928e-08
9.88677e-08
9.88354e-08
9.8812e-08
9.87833e-08
9.87623e-08
9.87353e-08
9.87145e-08
9.86885e-08
9.86689e-08
9.86455e-08
9.86286e-08
9.86075e-08
9.8593e-08
9.85734e-08
9.85593e-08
9.85398e-08
9.85256e-08
9.85062e-08
9.84921e-08
9.84734e-08
9.84594e-08
9.84408e-08
9.84258e-08
9.84071e-08
9.83887e-08
9.83683e-08
9.83513e-08
9.83252e-08
9.82951e-08
9.83099e-08
9.9532e-08
1.0176e-07
1.8299e-08
1.23936e-07
1.23144e-07
1.22363e-07
1.21299e-07
1.19941e-07
1.18373e-07
1.16761e-07
1.15173e-07
1.13699e-07
1.12332e-07
1.11111e-07
1.09997e-07
1.09015e-07
1.0812e-07
1.07333e-07
1.06614e-07
1.0598e-07
1.05397e-07
1.04884e-07
1.04407e-07
1.03986e-07
1.03593e-07
1.03245e-07
1.02918e-07
1.02627e-07
1.02352e-07
1.02107e-07
1.01875e-07
1.01666e-07
1.01468e-07
1.01289e-07
1.0112e-07
1.00965e-07
1.00819e-07
1.00685e-07
1.00558e-07
1.0044e-07
1.00329e-07
1.00225e-07
1.00129e-07
1.00036e-07
9.99513e-08
9.9869e-08
9.97941e-08
9.972e-08
9.96541e-08
9.95871e-08
9.95298e-08
9.94685e-08
9.94179e-08
9.93614e-08
9.93165e-08
9.92623e-08
9.92236e-08
9.91748e-08
9.91397e-08
9.90953e-08
9.90637e-08
9.9024e-08
9.89952e-08
9.89577e-08
9.89303e-08
9.88963e-08
9.88711e-08
9.88387e-08
9.88153e-08
9.87864e-08
9.87653e-08
9.87383e-08
9.87174e-08
9.86913e-08
9.86717e-08
9.86481e-08
9.86312e-08
9.861e-08
9.85954e-08
9.85757e-08
9.85615e-08
9.85419e-08
9.85277e-08
9.85082e-08
9.84941e-08
9.84753e-08
9.84613e-08
9.84425e-08
9.84276e-08
9.84089e-08
9.83907e-08
9.83701e-08
9.83533e-08
9.83272e-08
9.82974e-08
9.83131e-08
9.95815e-08
9.68678e-08
1.91855e-08
1.23936e-07
1.23143e-07
1.22363e-07
1.21303e-07
1.19952e-07
1.1839e-07
1.16782e-07
1.15197e-07
1.13725e-07
1.1236e-07
1.11139e-07
1.10025e-07
1.09042e-07
1.08146e-07
1.07359e-07
1.06638e-07
1.06004e-07
1.0542e-07
1.04905e-07
1.04427e-07
1.04006e-07
1.03611e-07
1.03262e-07
1.02934e-07
1.02643e-07
1.02367e-07
1.02121e-07
1.01889e-07
1.0168e-07
1.01481e-07
1.01302e-07
1.01132e-07
1.00977e-07
1.0083e-07
1.00695e-07
1.00568e-07
1.00449e-07
1.00338e-07
1.00234e-07
1.00137e-07
1.00044e-07
9.99591e-08
9.98765e-08
9.98014e-08
9.9727e-08
9.96609e-08
9.95936e-08
9.95361e-08
9.94746e-08
9.94238e-08
9.93671e-08
9.9322e-08
9.92676e-08
9.92288e-08
9.91797e-08
9.91445e-08
9.90999e-08
9.90682e-08
9.90284e-08
9.89994e-08
9.89618e-08
9.89342e-08
9.89002e-08
9.88748e-08
9.88424e-08
9.88188e-08
9.87899e-08
9.87687e-08
9.87415e-08
9.87206e-08
9.86945e-08
9.86747e-08
9.86511e-08
9.8634e-08
9.86127e-08
9.8598e-08
9.85782e-08
9.8564e-08
9.85443e-08
9.85301e-08
9.85105e-08
9.84963e-08
9.84774e-08
9.84634e-08
9.84445e-08
9.84296e-08
9.8411e-08
9.83929e-08
9.83721e-08
9.83555e-08
9.83295e-08
9.82999e-08
9.83167e-08
9.96354e-08
9.14231e-08
2.01209e-08
1.23936e-07
1.23141e-07
1.22363e-07
1.21308e-07
1.19963e-07
1.18407e-07
1.16804e-07
1.15223e-07
1.13754e-07
1.12389e-07
1.11168e-07
1.10054e-07
1.09071e-07
1.08174e-07
1.07386e-07
1.06664e-07
1.06029e-07
1.05444e-07
1.04928e-07
1.04449e-07
1.04027e-07
1.03631e-07
1.03281e-07
1.02953e-07
1.0266e-07
1.02384e-07
1.02137e-07
1.01904e-07
1.01694e-07
1.01495e-07
1.01315e-07
1.01144e-07
1.00989e-07
1.00841e-07
1.00706e-07
1.00578e-07
1.0046e-07
1.00348e-07
1.00244e-07
1.00146e-07
1.00053e-07
9.99676e-08
9.98847e-08
9.98093e-08
9.97346e-08
9.96682e-08
9.96007e-08
9.95429e-08
9.94811e-08
9.94302e-08
9.93732e-08
9.9328e-08
9.92734e-08
9.92344e-08
9.91852e-08
9.91497e-08
9.9105e-08
9.90731e-08
9.90331e-08
9.9004e-08
9.89663e-08
9.89386e-08
9.89044e-08
9.8879e-08
9.88464e-08
9.88228e-08
9.87936e-08
9.87724e-08
9.87451e-08
9.87241e-08
9.86979e-08
9.86781e-08
9.86544e-08
9.86372e-08
9.86158e-08
9.8601e-08
9.85811e-08
9.85668e-08
9.8547e-08
9.85327e-08
9.8513e-08
9.84988e-08
9.84798e-08
9.84657e-08
9.84467e-08
9.84318e-08
9.84133e-08
9.83953e-08
9.83744e-08
9.8358e-08
9.83321e-08
9.83026e-08
9.83206e-08
9.96938e-08
8.65687e-08
2.11081e-08
1.23936e-07
1.2314e-07
1.22363e-07
1.21313e-07
1.19975e-07
1.18426e-07
1.16828e-07
1.15251e-07
1.13784e-07
1.1242e-07
1.112e-07
1.10086e-07
1.09102e-07
1.08204e-07
1.07415e-07
1.06692e-07
1.06056e-07
1.05469e-07
1.04953e-07
1.04473e-07
1.04049e-07
1.03653e-07
1.03302e-07
1.02972e-07
1.02679e-07
1.02402e-07
1.02154e-07
1.0192e-07
1.0171e-07
1.0151e-07
1.01329e-07
1.01158e-07
1.01002e-07
1.00854e-07
1.00718e-07
1.0059e-07
1.00471e-07
1.00359e-07
1.00254e-07
1.00156e-07
1.00063e-07
9.99769e-08
9.98936e-08
9.98178e-08
9.97428e-08
9.96762e-08
9.96084e-08
9.95504e-08
9.94883e-08
9.94371e-08
9.93799e-08
9.93345e-08
9.92797e-08
9.92405e-08
9.91911e-08
9.91555e-08
9.91105e-08
9.90784e-08
9.90383e-08
9.9009e-08
9.89712e-08
9.89434e-08
9.89091e-08
9.88835e-08
9.88508e-08
9.88271e-08
9.87978e-08
9.87764e-08
9.87491e-08
9.8728e-08
9.87017e-08
9.86818e-08
9.8658e-08
9.86408e-08
9.86192e-08
9.86043e-08
9.85842e-08
9.85699e-08
9.855e-08
9.85356e-08
9.85159e-08
9.85016e-08
9.84825e-08
9.84683e-08
9.84492e-08
9.84343e-08
9.84158e-08
9.8398e-08
9.83769e-08
9.83608e-08
9.83349e-08
9.83057e-08
9.83249e-08
9.97566e-08
8.22353e-08
2.21502e-08
1.23936e-07
1.23138e-07
1.22363e-07
1.21318e-07
1.19987e-07
1.18445e-07
1.16854e-07
1.1528e-07
1.13816e-07
1.12453e-07
1.11233e-07
1.10119e-07
1.09134e-07
1.08236e-07
1.07446e-07
1.06722e-07
1.06085e-07
1.05497e-07
1.04979e-07
1.04498e-07
1.04073e-07
1.03676e-07
1.03324e-07
1.02993e-07
1.02699e-07
1.02421e-07
1.02173e-07
1.01938e-07
1.01727e-07
1.01526e-07
1.01345e-07
1.01173e-07
1.01016e-07
1.00868e-07
1.00731e-07
1.00603e-07
1.00483e-07
1.00371e-07
1.00265e-07
1.00167e-07
1.00073e-07
9.99868e-08
9.99032e-08
9.98271e-08
9.97517e-08
9.96848e-08
9.96167e-08
9.95584e-08
9.94961e-08
9.94446e-08
9.93872e-08
9.93416e-08
9.92865e-08
9.92471e-08
9.91975e-08
9.91617e-08
9.91166e-08
9.90843e-08
9.9044e-08
9.90145e-08
9.89766e-08
9.89486e-08
9.89141e-08
9.88885e-08
9.88556e-08
9.88317e-08
9.88023e-08
9.87809e-08
9.87534e-08
9.87323e-08
9.87058e-08
9.86859e-08
9.86619e-08
9.86446e-08
9.86229e-08
9.86079e-08
9.85877e-08
9.85733e-08
9.85532e-08
9.85388e-08
9.8519e-08
9.85047e-08
9.84854e-08
9.84712e-08
9.8452e-08
9.8437e-08
9.84186e-08
9.8401e-08
9.83796e-08
9.83638e-08
9.8338e-08
9.8309e-08
9.83297e-08
9.98237e-08
7.83624e-08
2.32503e-08
1.23936e-07
1.23136e-07
1.22363e-07
1.21324e-07
1.20001e-07
1.18466e-07
1.1688e-07
1.15311e-07
1.13849e-07
1.12488e-07
1.11269e-07
1.10155e-07
1.0917e-07
1.0827e-07
1.07479e-07
1.06754e-07
1.06115e-07
1.05526e-07
1.05007e-07
1.04525e-07
1.04099e-07
1.037e-07
1.03347e-07
1.03016e-07
1.0272e-07
1.02442e-07
1.02192e-07
1.01956e-07
1.01745e-07
1.01543e-07
1.01361e-07
1.01189e-07
1.01031e-07
1.00882e-07
1.00745e-07
1.00616e-07
1.00496e-07
1.00383e-07
1.00277e-07
1.00179e-07
1.00084e-07
9.99975e-08
9.99135e-08
9.98371e-08
9.97614e-08
9.96941e-08
9.96256e-08
9.95671e-08
9.95044e-08
9.94527e-08
9.9395e-08
9.93492e-08
9.92939e-08
9.92542e-08
9.92044e-08
9.91684e-08
9.91231e-08
9.90906e-08
9.90501e-08
9.90205e-08
9.89824e-08
9.89543e-08
9.89196e-08
9.88938e-08
9.88608e-08
9.88369e-08
9.88073e-08
9.87857e-08
9.87581e-08
9.87369e-08
9.87103e-08
9.86904e-08
9.86662e-08
9.86488e-08
9.86269e-08
9.86118e-08
9.85914e-08
9.8577e-08
9.85568e-08
9.85423e-08
9.85224e-08
9.8508e-08
9.84886e-08
9.84744e-08
9.8455e-08
9.84401e-08
9.84216e-08
9.84042e-08
9.83827e-08
9.83671e-08
9.83414e-08
9.83127e-08
9.83348e-08
9.98946e-08
7.48988e-08
2.44113e-08
1.23936e-07
1.23135e-07
1.22362e-07
1.21329e-07
1.20014e-07
1.18488e-07
1.16908e-07
1.15344e-07
1.13885e-07
1.12526e-07
1.11307e-07
1.10192e-07
1.09207e-07
1.08307e-07
1.07514e-07
1.06787e-07
1.06148e-07
1.05557e-07
1.05037e-07
1.04553e-07
1.04126e-07
1.03727e-07
1.03372e-07
1.03039e-07
1.02743e-07
1.02463e-07
1.02213e-07
1.01976e-07
1.01764e-07
1.01561e-07
1.01379e-07
1.01205e-07
1.01048e-07
1.00898e-07
1.0076e-07
1.0063e-07
1.0051e-07
1.00396e-07
1.0029e-07
1.00191e-07
1.00096e-07
1.00009e-07
9.99245e-08
9.98478e-08
9.97717e-08
9.97041e-08
9.96353e-08
9.95764e-08
9.95134e-08
9.94615e-08
9.94035e-08
9.93574e-08
9.93019e-08
9.9262e-08
9.92119e-08
9.91757e-08
9.91301e-08
9.90974e-08
9.90567e-08
9.90269e-08
9.89887e-08
9.89604e-08
9.89255e-08
9.88997e-08
9.88665e-08
9.88424e-08
9.88126e-08
9.87909e-08
9.87632e-08
9.87419e-08
9.87152e-08
9.86952e-08
9.86709e-08
9.86534e-08
9.86313e-08
9.86161e-08
9.85956e-08
9.8581e-08
9.85607e-08
9.85462e-08
9.85261e-08
9.85117e-08
9.84921e-08
9.84779e-08
9.84583e-08
9.84434e-08
9.84249e-08
9.84076e-08
9.83859e-08
9.83706e-08
9.8345e-08
9.83166e-08
9.83403e-08
9.99687e-08
7.18007e-08
2.5636e-08
1.23936e-07
1.23133e-07
1.22362e-07
1.21335e-07
1.20029e-07
1.1851e-07
1.16938e-07
1.15378e-07
1.13923e-07
1.12565e-07
1.11347e-07
1.10232e-07
1.09246e-07
1.08345e-07
1.07551e-07
1.06823e-07
1.06182e-07
1.0559e-07
1.05069e-07
1.04584e-07
1.04155e-07
1.03754e-07
1.03399e-07
1.03065e-07
1.02768e-07
1.02487e-07
1.02236e-07
1.01998e-07
1.01784e-07
1.01581e-07
1.01398e-07
1.01223e-07
1.01065e-07
1.00914e-07
1.00776e-07
1.00646e-07
1.00525e-07
1.00411e-07
1.00304e-07
1.00204e-07
1.00109e-07
1.00021e-07
9.99364e-08
9.98592e-08
9.97827e-08
9.97148e-08
9.96456e-08
9.95864e-08
9.95231e-08
9.94709e-08
9.94125e-08
9.93663e-08
9.93105e-08
9.92703e-08
9.922e-08
9.91835e-08
9.91377e-08
9.91048e-08
9.90638e-08
9.90339e-08
9.89954e-08
9.8967e-08
9.89319e-08
9.89059e-08
9.88726e-08
9.88484e-08
9.88184e-08
9.87966e-08
9.87687e-08
9.87474e-08
9.87206e-08
9.87004e-08
9.8676e-08
9.86584e-08
9.86361e-08
9.86207e-08
9.86e-08
9.85854e-08
9.8565e-08
9.85504e-08
9.85301e-08
9.85157e-08
9.8496e-08
9.84817e-08
9.8462e-08
9.8447e-08
9.84284e-08
9.84114e-08
9.83895e-08
9.83745e-08
9.8349e-08
9.83209e-08
9.83463e-08
1.00045e-07
6.90307e-08
2.69269e-08
1.23936e-07
1.23131e-07
1.22362e-07
1.21341e-07
1.20043e-07
1.18534e-07
1.16969e-07
1.15414e-07
1.13962e-07
1.12606e-07
1.11389e-07
1.10274e-07
1.09288e-07
1.08385e-07
1.07591e-07
1.06861e-07
1.06219e-07
1.05626e-07
1.05103e-07
1.04616e-07
1.04186e-07
1.03784e-07
1.03427e-07
1.03092e-07
1.02794e-07
1.02511e-07
1.02259e-07
1.0202e-07
1.01806e-07
1.01602e-07
1.01418e-07
1.01243e-07
1.01083e-07
1.00932e-07
1.00793e-07
1.00662e-07
1.0054e-07
1.00426e-07
1.00318e-07
1.00218e-07
1.00122e-07
1.00034e-07
9.99491e-08
9.98715e-08
9.97946e-08
9.97263e-08
9.96566e-08
9.95971e-08
9.95334e-08
9.94809e-08
9.94222e-08
9.93757e-08
9.93197e-08
9.92792e-08
9.92286e-08
9.91919e-08
9.91459e-08
9.91127e-08
9.90715e-08
9.90414e-08
9.90027e-08
9.89741e-08
9.89388e-08
9.89127e-08
9.88792e-08
9.88548e-08
9.88247e-08
9.88027e-08
9.87747e-08
9.87533e-08
9.87263e-08
9.87061e-08
9.86814e-08
9.86637e-08
9.86413e-08
9.86258e-08
9.86049e-08
9.85902e-08
9.85696e-08
9.85549e-08
9.85345e-08
9.852e-08
9.85002e-08
9.84859e-08
9.8466e-08
9.8451e-08
9.84322e-08
9.84154e-08
9.83934e-08
9.83786e-08
9.83533e-08
9.83255e-08
9.83527e-08
1.00123e-07
6.65571e-08
2.82858e-08
1.23936e-07
1.23129e-07
1.22361e-07
1.21347e-07
1.20059e-07
1.18559e-07
1.17001e-07
1.15452e-07
1.14004e-07
1.1265e-07
1.11434e-07
1.10319e-07
1.09331e-07
1.08428e-07
1.07632e-07
1.06901e-07
1.06258e-07
1.05663e-07
1.05138e-07
1.0465e-07
1.04219e-07
1.03815e-07
1.03457e-07
1.03121e-07
1.02821e-07
1.02538e-07
1.02285e-07
1.02044e-07
1.01829e-07
1.01624e-07
1.01439e-07
1.01263e-07
1.01103e-07
1.00951e-07
1.00811e-07
1.0068e-07
1.00557e-07
1.00442e-07
1.00334e-07
1.00233e-07
1.00137e-07
1.00048e-07
9.99626e-08
9.98846e-08
9.98072e-08
9.97385e-08
9.96684e-08
9.96086e-08
9.95445e-08