/*--------------------------------*- C++ -*----------------------------------*\
| =========                 |                                                 |
| \\      /  F ield         | OpenFOAM: The Open Source CFD Toolbox           |
|  \\    /   O peration     | Version:  v2012                                 |
|   \\  /    A nd           | Website:  www.openfoam.com                      |
|    \\/     M anipulation  |                                                 |
\*---------------------------------------------------------------------------*/
FoamFile
{
    version     2.0;
    format      ascii;
    class       volScalarField;
    location    "54.5";
    object      omega;
}
// * * * * * * * * * * * * * * * * * * * * * * * * * * * * * * * * * * * * * //

dimensions      [0 0 -1 0 0 0 0];


internalField   nonuniform List<scalar> 
209825
(
8261.78
7570.01
6999.47
6539.64
6174.44
5885.88
5655.96
5471.3
5320.5
5196.43
5092.47
5005.14
4930.34
4866.49
4810.78
4762.66
4719.97
4682.8
4649.33
4620.02
4593.27
4569.77
4548.04
4528.91
4511
4495.26
4480.34
4467.24
4454.65
4443.66
4432.95
4423.66
4414.48
4406.57
4398.64
4391.87
4385.01
4379.18
4373.19
4368.14
4362.92
4358.55
4353.93
4350.14
4346.09
4342.78
4339.2
4336.27
4333.13
4330.57
4327.81
4325.59
4323.23
4321.22
4319.11
4317.36
4315.5
4313.96
4312.29
4310.96
4309.55
4308.45
4307.16
4306.26
4305.15
4304.39
4303.37
4302.73
4301.86
4301.37
4300.64
4300.25
4299.63
4299.29
4298.7
4298.33
4297.75
4297.43
4296.93
4296.66
4296.22
4296.02
4295.63
4295.49
4295.16
4295.18
4295.11
4295.3
4295.3
4295.64
4295.64
4296.31
4297.04
4325.17
4433.53
113082
8261.78
7570.01
6999.48
6539.64
6174.43
5885.85
5655.93
5471.26
5320.45
5196.37
5092.4
5005.07
4930.26
4866.41
4810.69
4762.57
4719.88
4682.7
4649.23
4619.92
4593.17
4569.66
4547.93
4528.8
4510.89
4495.15
4480.22
4467.12
4454.53
4443.54
4432.83
4423.54
4414.36
4406.45
4398.52
4391.75
4384.88
4379.06
4373.06
4368.01
4362.8
4358.42
4353.8
4350.01
4345.96
4342.65
4339.07
4336.14
4333
4330.44
4327.68
4325.46
4323.1
4321.08
4318.98
4317.23
4315.37
4313.83
4312.16
4310.82
4309.41
4308.32
4307.02
4306.12
4305.01
4304.25
4303.23
4302.59
4301.72
4301.24
4300.5
4300.11
4299.49
4299.15
4298.56
4298.19
4297.62
4297.3
4296.79
4296.53
4296.08
4295.88
4295.49
4295.35
4295.02
4295.04
4294.97
4295.16
4295.16
4295.5
4295.5
4296.16
4296.9
4325.08
4433.43
109783
8261.78
7570.02
6999.48
6539.62
6174.38
5885.77
5655.81
5471.11
5320.27
5196.16
5092.17
5004.82
4929.99
4866.13
4810.39
4762.26
4719.56
4682.37
4648.89
4619.57
4592.81
4569.3
4547.56
4528.43
4510.51
4494.76
4479.83
4466.73
4454.13
4443.14
4432.43
4423.13
4413.95
4406.04
4398.11
4391.33
4384.46
4378.64
4372.64
4367.59
4362.37
4357.99
4353.37
4349.58
4345.53
4342.21
4338.64
4335.7
4332.57
4330
4327.24
4325.02
4322.66
4320.64
4318.54
4316.79
4314.93
4313.39
4311.71
4310.38
4308.97
4307.87
4306.57
4305.68
4304.57
4303.8
4302.78
4302.14
4301.27
4300.79
4300.05
4299.66
4299.04
4298.7
4298.11
4297.74
4297.16
4296.84
4296.33
4296.07
4295.63
4295.42
4295.03
4294.89
4294.57
4294.59
4294.51
4294.7
4294.7
4295.04
4295.04
4295.7
4296.44
4324.72
4433.05
105996
8261.78
7570.03
6999.48
6539.59
6174.3
5885.63
5655.61
5470.85
5319.96
5195.81
5091.78
5004.39
4929.53
4865.64
4809.88
4761.72
4719.01
4681.8
4648.31
4618.97
4592.2
4568.68
4546.93
4527.79
4509.86
4494.11
4479.17
4466.06
4453.46
4442.46
4431.74
4422.44
4413.26
4405.33
4397.4
4390.62
4383.75
4377.92
4371.92
4366.87
4361.65
4357.26
4352.64
4348.85
4344.8
4341.48
4337.9
4334.96
4331.82
4329.25
4326.5
4324.27
4321.91
4319.89
4317.78
4316.03
4314.17
4312.63
4310.95
4309.62
4308.2
4307.11
4305.81
4304.91
4303.8
4303.03
4302.01
4301.37
4300.5
4300.01
4299.28
4298.89
4298.27
4297.93
4297.33
4296.96
4296.39
4296.07
4295.56
4295.29
4294.85
4294.64
4294.25
4294.11
4293.79
4293.8
4293.73
4293.92
4293.92
4294.25
4294.25
4294.91
4295.66
4324.09
4432.4
102102
8261.78
7570.05
6999.49
6539.55
6174.18
5885.42
5655.31
5470.48
5319.52
5195.3
5091.21
5003.77
4928.88
4864.95
4809.15
4760.97
4718.22
4680.99
4647.48
4618.12
4591.33
4567.79
4546.03
4526.88
4508.94
4493.17
4478.22
4465.1
4452.49
4441.48
4430.76
4421.45
4412.26
4404.33
4396.39
4389.61
4382.73
4376.9
4370.9
4365.84
4360.61
4356.22
4351.6
4347.8
4343.75
4340.42
4336.84
4333.9
4330.76
4328.19
4325.43
4323.2
4320.84
4318.82
4316.71
4314.95
4313.09
4311.55
4309.87
4308.54
4307.12
4306.02
4304.72
4303.82
4302.71
4301.94
4300.92
4300.28
4299.41
4298.92
4298.18
4297.79
4297.16
4296.83
4296.23
4295.86
4295.28
4294.96
4294.45
4294.19
4293.74
4293.53
4293.14
4293
4292.68
4292.69
4292.61
4292.8
4292.8
4293.13
4293.13
4293.79
4294.54
4323.18
4431.46
98204.9
8261.78
7570.07
6999.5
6539.49
6174.02
5885.15
5654.93
5469.99
5318.94
5194.64
5090.48
5002.98
4928.02
4864.04
4808.2
4759.98
4717.2
4679.93
4646.39
4617.01
4590.2
4566.64
4544.86
4525.69
4507.73
4491.95
4476.99
4463.85
4451.23
4440.21
4429.48
4420.16
4410.96
4403.03
4395.08
4388.29
4381.41
4375.57
4369.56
4364.49
4359.26
4354.87
4350.24
4346.44
4342.38
4339.05
4335.47
4332.52
4329.38
4326.81
4324.04
4321.81
4319.44
4317.42
4315.31
4313.55
4311.68
4310.14
4308.46
4307.12
4305.7
4304.6
4303.3
4302.4
4301.28
4300.52
4299.49
4298.85
4297.98
4297.48
4296.75
4296.35
4295.73
4295.39
4294.79
4294.42
4293.84
4293.52
4293.01
4292.74
4292.3
4292.09
4291.69
4291.55
4291.23
4291.23
4291.15
4291.34
4291.34
4291.66
4291.66
4292.32
4293.08
4321.99
4430.24
94344.8
8261.78
7570.1
6999.51
6539.43
6173.83
5884.82
5654.46
5469.39
5318.22
5193.82
5089.57
5001.99
4926.96
4862.92
4807.03
4758.75
4715.93
4678.63
4645.05
4615.64
4588.8
4565.21
4543.41
4524.21
4506.24
4490.44
4475.46
4462.31
4449.67
4438.64
4427.9
4418.57
4409.36
4401.41
4393.46
4386.66
4379.76
4373.92
4367.9
4362.83
4357.59
4353.19
4348.56
4344.75
4340.69
4337.35
4333.76
4330.81
4327.67
4325.09
4322.32
4320.08
4317.71
4315.69
4313.57
4311.81
4309.94
4308.4
4306.71
4305.37
4303.95
4302.85
4301.54
4300.64
4299.52
4298.75
4297.73
4297.08
4296.2
4295.71
4294.97
4294.57
4293.95
4293.61
4293.01
4292.64
4292.06
4291.73
4291.22
4290.95
4290.5
4290.3
4289.9
4289.76
4289.43
4289.43
4289.35
4289.53
4289.53
4289.85
4289.85
4290.5
4291.27
4320.52
4428.74
90540.8
8261.78
7570.13
6999.53
6539.35
6173.6
5884.43
5653.9
5468.67
5317.36
5192.84
5088.48
5000.8
4925.69
4861.58
4805.62
4757.29
4714.41
4677.07
4643.45
4614
4587.12
4563.51
4541.67
4522.45
4504.45
4488.63
4473.63
4460.46
4447.81
4436.76
4426
4416.66
4407.44
4399.48
4391.51
4384.7
4377.8
4371.94
4365.92
4360.84
4355.59
4351.19
4346.54
4342.73
4338.66
4335.32
4331.72
4328.77
4325.62
4323.04
4320.26
4318.02
4315.64
4313.62
4311.5
4309.73
4307.86
4306.31
4304.62
4303.28
4301.85
4300.75
4299.44
4298.53
4297.41
4296.64
4295.61
4294.96
4294.08
4293.59
4292.85
4292.45
4291.82
4291.48
4290.88
4290.51
4289.92
4289.6
4289.08
4288.81
4288.36
4288.15
4287.75
4287.61
4287.29
4287.28
4287.19
4287.36
4287.36
4287.68
4287.68
4288.33
4289.11
4318.77
4426.95
86801.7
8261.78
7570.17
6999.54
6539.25
6173.34
5883.97
5653.25
5467.84
5316.37
5191.7
5087.22
4999.43
4924.22
4860.02
4803.98
4755.58
4712.64
4675.24
4641.58
4612.08
4585.17
4561.51
4539.65
4520.4
4502.37
4486.52
4471.5
4458.31
4445.64
4434.57
4423.79
4414.43
4405.19
4397.22
4389.24
4382.42
4375.51
4369.64
4363.6
4358.51
4353.26
4348.84
4344.19
4340.37
4336.29
4332.95
4329.35
4326.39
4323.23
4320.64
4317.86
4315.61
4313.23
4311.2
4309.07
4307.31
4305.43
4303.88
4302.18
4300.84
4299.4
4298.3
4296.98
4296.08
4294.95
4294.18
4293.15
4292.49
4291.61
4291.11
4290.37
4289.97
4289.34
4288.99
4288.39
4288.02
4287.43
4287.1
4286.59
4286.32
4285.86
4285.65
4285.25
4285.1
4284.78
4284.77
4284.66
4284.84
4284.84
4285.14
4285.14
4285.79
4286.58
4316.72
4424.87
83130.2
8261.78
7570.21
6999.56
6539.15
6173.04
5883.45
5652.5
5466.89
5315.23
5190.4
5085.77
4997.85
4922.53
4858.23
4802.11
4753.63
4710.62
4673.16
4639.43
4609.89
4582.93
4559.23
4537.33
4518.04
4499.98
4484.11
4469.06
4455.84
4443.14
4432.06
4421.26
4411.88
4402.62
4394.64
4386.64
4379.81
4372.88
4367
4360.95
4355.85
4350.58
4346.16
4341.5
4337.67
4333.58
4330.23
4326.62
4323.65
4320.48
4317.89
4315.1
4312.85
4310.46
4308.43
4306.29
4304.52
4302.64
4301.08
4299.39
4298.04
4296.6
4295.49
4294.17
4293.26
4292.13
4291.35
4290.32
4289.66
4288.78
4288.28
4287.53
4287.12
4286.49
4286.15
4285.54
4285.16
4284.58
4284.25
4283.72
4283.45
4283
4282.78
4282.38
4282.23
4281.91
4281.88
4281.77
4281.94
4281.94
4282.24
4282.24
4282.88
4283.69
4314.39
4422.52
79524.5
8261.78
7570.26
6999.59
6539.03
6172.7
5882.86
5651.66
5465.82
5313.95
5188.93
5084.13
4996.08
4920.63
4856.22
4799.99
4751.42
4708.34
4670.8
4637.01
4607.41
4580.4
4556.66
4534.71
4515.38
4497.29
4481.38
4466.3
4453.05
4440.33
4429.22
4418.4
4409
4399.72
4391.72
4383.7
4376.85
4369.91
4364.01
4357.95
4352.84
4347.56
4343.13
4338.46
4334.62
4330.52
4327.16
4323.54
4320.56
4317.39
4314.79
4311.99
4309.73
4307.34
4305.3
4303.16
4301.38
4299.49
4297.93
4296.23
4294.87
4293.43
4292.31
4290.99
4290.07
4288.94
4288.16
4287.12
4286.46
4285.57
4285.07
4284.32
4283.91
4283.27
4282.93
4282.31
4281.94
4281.35
4281.02
4280.49
4280.22
4279.76
4279.54
4279.13
4278.98
4278.66
4278.63
4278.51
4278.67
4278.67
4278.95
4278.95
4279.59
4280.42
4311.75
4419.88
75979
8261.77
7570.31
6999.61
6538.9
6172.33
5882.2
5650.73
5464.62
5312.52
5187.29
5082.31
4994.09
4918.5
4853.97
4797.63
4748.97
4705.79
4668.18
4634.31
4604.65
4577.57
4553.78
4531.78
4512.41
4494.28
4478.33
4463.21
4449.94
4437.19
4426.05
4415.2
4405.78
4396.48
4388.46
4380.42
4373.55
4366.59
4360.68
4354.6
4349.48
4344.18
4339.74
4335.06
4331.21
4327.1
4323.73
4320.1
4317.11
4313.93
4311.32
4308.51
4306.25
4303.84
4301.8
4299.65
4297.87
4295.97
4294.41
4292.7
4291.34
4289.88
4288.77
4287.44
4286.52
4285.38
4284.59
4283.55
4282.89
4281.99
4281.48
4280.73
4280.32
4279.68
4279.33
4278.71
4278.34
4277.74
4277.41
4276.88
4276.6
4276.14
4275.92
4275.51
4275.35
4275.03
4274.99
4274.86
4275.02
4275.01
4275.29
4275.29
4275.91
4276.76
4308.82
4416.96
72489.8
8261.77
7570.37
6999.64
6538.76
6171.92
5881.49
5649.7
5463.31
5310.94
5185.49
5080.31
4991.91
4916.16
4851.48
4795.02
4746.25
4702.97
4665.27
4631.33
4601.59
4574.45
4550.6
4528.55
4509.13
4490.95
4474.96
4459.8
4446.5
4433.71
4422.54
4411.67
4402.22
4392.89
4384.85
4376.79
4369.9
4362.92
4356.99
4350.9
4345.76
4340.45
4335.99
4331.29
4327.43
4323.31
4319.93
4316.29
4313.29
4310.1
4307.48
4304.67
4302.39
4299.98
4297.92
4295.77
4293.98
4292.08
4290.5
4288.79
4287.42
4285.96
4284.84
4283.51
4282.58
4281.43
4280.64
4279.6
4278.93
4278.03
4277.52
4276.76
4276.34
4275.7
4275.34
4274.73
4274.35
4273.75
4273.41
4272.88
4272.6
4272.13
4271.91
4271.49
4271.33
4271.01
4270.96
4270.82
4270.97
4270.97
4271.23
4271.23
4271.85
4272.72
4305.58
4413.77
69063.6
8261.77
7570.43
6999.67
6538.61
6171.48
5880.7
5648.58
5461.87
5309.22
5183.51
5078.11
4989.51
4913.59
4848.76
4792.16
4743.27
4699.88
4662.09
4628.05
4598.24
4571.03
4547.11
4525
4505.53
4487.29
4471.26
4456.06
4442.72
4429.89
4418.69
4407.78
4398.31
4388.96
4380.89
4372.8
4365.89
4358.89
4352.95
4346.83
4341.68
4336.35
4331.88
4327.16
4323.29
4319.15
4315.76
4312.1
4309.1
4305.89
4303.26
4300.44
4298.16
4295.73
4293.67
4291.51
4289.71
4287.8
4286.22
4284.5
4283.12
4281.66
4280.53
4279.19
4278.25
4277.1
4276.31
4275.25
4274.58
4273.68
4273.16
4272.39
4271.97
4271.33
4270.97
4270.35
4269.97
4269.37
4269.02
4268.49
4268.2
4267.73
4267.5
4267.08
4266.92
4266.59
4266.54
4266.39
4266.53
4266.52
4266.77
4266.77
4267.38
4268.28
4302.02
4410.3
65706.3
8261.77
7570.5
6999.71
6538.45
6171
5879.86
5647.36
5460.31
5307.35
5181.36
5075.72
4986.91
4910.79
4845.8
4789.05
4740.02
4696.52
4658.61
4624.49
4594.59
4567.29
4543.31
4521.13
4501.6
4483.31
4467.23
4451.98
4438.59
4425.73
4414.49
4403.55
4394.04
4384.66
4376.56
4368.46
4361.52
4354.5
4348.53
4342.4
4337.22
4331.87
4327.39
4322.65
4318.76
4314.61
4311.21
4307.54
4304.52
4301.3
4298.67
4295.83
4293.53
4291.1
4289.03
4286.86
4285.05
4283.13
4281.55
4279.81
4278.44
4276.96
4275.83
4274.47
4273.54
4272.38
4271.58
4270.52
4269.84
4268.93
4268.4
4267.63
4267.21
4266.56
4266.2
4265.57
4265.19
4264.58
4264.24
4263.69
4263.4
4262.93
4262.7
4262.27
4262.11
4261.77
4261.72
4261.55
4261.68
4261.67
4261.91
4261.9
4262.51
4263.44
4298.14
4406.56
62423.5
8261.76
7570.58
6999.75
6538.27
6170.48
5878.94
5646.05
5458.63
5305.33
5179.04
5073.13
4984.09
4907.76
4842.59
4785.68
4736.51
4692.87
4654.85
4620.62
4590.63
4563.25
4539.19
4516.93
4497.34
4478.99
4462.86
4447.56
4434.13
4421.22
4409.94
4398.96
4389.42
4380.01
4371.88
4363.74
4356.78
4349.73
4343.74
4337.58
4332.39
4327.02
4322.51
4317.77
4313.86
4309.69
4306.27
4302.59
4299.56
4296.33
4293.68
4290.83
4288.52
4286.08
4284
4281.81
4280
4278.07
4276.48
4274.73
4273.35
4271.86
4270.72
4269.36
4268.42
4267.25
4266.44
4265.38
4264.69
4263.77
4263.25
4262.47
4262.04
4261.38
4261.02
4260.39
4260
4259.39
4259.04
4258.49
4258.2
4257.72
4257.48
4257.05
4256.88
4256.55
4256.48
4256.3
4256.42
4256.41
4256.64
4256.62
4257.22
4258.18
4293.93
4402.55
59220.5
8261.76
7570.66
6999.79
6538.09
6169.93
5877.97
5644.65
5456.82
5303.16
5176.55
5070.35
4981.05
4904.51
4839.13
4782.04
4732.72
4688.94
4650.8
4616.45
4586.36
4558.89
4534.74
4512.41
4492.75
4474.33
4458.14
4442.79
4429.3
4416.35
4405.03
4394.01
4384.43
4374.98
4366.82
4358.65
4351.67
4344.59
4338.57
4332.39
4327.17
4321.78
4317.26
4312.49
4308.57
4304.38
4300.94
4297.24
4294.2
4290.95
4288.29
4285.43
4283.11
4280.65
4278.56
4276.36
4274.54
4272.6
4271
4269.25
4267.85
4266.36
4265.21
4263.84
4262.89
4261.71
4260.9
4259.83
4259.14
4258.21
4257.68
4256.89
4256.46
4255.79
4255.43
4254.79
4254.4
4253.78
4253.43
4252.88
4252.58
4252.09
4251.85
4251.42
4251.24
4250.9
4250.83
4250.63
4250.74
4250.73
4250.94
4250.92
4251.51
4252.51
4289.37
4398.29
56102.2
8261.76
7570.74
6999.84
6537.9
6169.34
5876.93
5643.15
5454.89
5300.83
5173.88
5067.37
4977.8
4901.01
4835.43
4778.15
4728.66
4684.73
4646.45
4611.98
4581.78
4554.2
4529.97
4507.55
4487.82
4469.33
4453.08
4437.66
4424.13
4411.12
4399.76
4388.69
4379.07
4369.58
4361.39
4353.19
4346.17
4339.06
4333.02
4326.81
4321.57
4316.15
4311.61
4306.82
4302.88
4298.67
4295.22
4291.5
4288.44
4285.18
4282.5
4279.62
4277.29
4274.82
4272.72
4270.51
4268.68
4266.72
4265.12
4263.35
4261.95
4260.44
4259.29
4257.91
4256.95
4255.76
4254.94
4253.86
4253.17
4252.23
4251.69
4250.9
4250.46
4249.79
4249.41
4248.78
4248.38
4247.76
4247.4
4246.84
4246.54
4246.04
4245.8
4245.36
4245.18
4244.83
4244.75
4244.54
4244.64
4244.62
4244.82
4244.79
4245.37
4246.41
4284.47
4393.75
53073
8261.75
7570.83
6999.89
6537.69
6168.72
5875.82
5641.55
5452.83
5298.36
5171.03
5064.19
4974.33
4897.28
4831.47
4773.99
4724.31
4680.22
4641.8
4607.2
4576.88
4549.2
4524.86
4502.36
4482.54
4463.98
4447.66
4432.18
4418.59
4405.52
4394.11
4382.99
4373.34
4363.8
4355.57
4347.33
4340.28
4333.14
4327.07
4320.83
4315.57
4310.13
4305.56
4300.75
4296.78
4292.56
4289.09
4285.35
4282.28
4279
4276.31
4273.41
4271.07
4268.58
4266.47
4264.24
4262.4
4260.43
4258.81
4257.04
4255.63
4254.1
4252.94
4251.55
4250.58
4249.39
4248.56
4247.47
4246.77
4245.83
4245.28
4244.48
4244.03
4243.35
4242.98
4242.33
4241.93
4241.3
4240.94
4240.37
4240.07
4239.56
4239.31
4238.87
4238.68
4238.33
4238.24
4238.02
4238.11
4238.08
4238.26
4238.23
4238.8
4239.88
4279.2
4388.92
50137.1
8261.75
7570.92
6999.95
6537.48
6168.07
5874.66
5639.86
5450.65
5295.73
5168
5060.81
4970.64
4893.32
4827.26
4769.56
4719.69
4675.43
4636.85
4602.11
4571.66
4543.86
4519.42
4496.82
4476.92
4458.28
4441.88
4426.33
4412.68
4399.55
4388.09
4376.92
4367.22
4357.64
4349.37
4341.09
4334.01
4326.83
4320.73
4314.46
4309.17
4303.7
4299.11
4294.27
4290.29
4286.04
4282.55
4278.79
4275.7
4272.4
4269.69
4266.78
4264.42
4261.91
4259.79
4257.55
4255.7
4253.71
4252.09
4250.3
4248.88
4247.34
4246.17
4244.77
4243.79
4242.59
4241.76
4240.65
4239.95
4238.99
4238.44
4237.62
4237.17
4236.49
4236.1
4235.45
4235.05
4234.42
4234.05
4233.47
4233.16
4232.65
4232.39
4231.94
4231.75
4231.39
4231.3
4231.05
4231.13
4231.1
4231.27
4231.22
4231.79
4232.91
4273.54
4383.77
47298.2
8261.74
7571.02
7000.01
6537.26
6167.39
5873.43
5638.08
5448.35
5292.95
5164.8
5057.23
4966.73
4889.11
4822.79
4764.86
4714.79
4670.33
4631.59
4596.7
4566.12
4538.19
4513.64
4490.94
4470.94
4452.21
4435.74
4420.12
4406.4
4393.21
4381.69
4370.47
4360.71
4351.09
4342.78
4334.45
4327.33
4320.12
4313.99
4307.68
4302.36
4296.86
4292.25
4287.38
4283.37
4279.1
4275.59
4271.81
4268.7
4265.38
4262.66
4259.73
4257.35
4254.83
4252.69
4250.43
4248.57
4246.57
4244.94
4243.13
4241.7
4240.15
4238.97
4237.56
4236.57
4235.35
4234.51
4233.4
4232.68
4231.72
4231.15
4230.33
4229.87
4229.18
4228.79
4228.14
4227.73
4227.09
4226.71
4226.13
4225.81
4225.29
4225.03
4224.57
4224.37
4224.01
4223.9
4223.65
4223.72
4223.67
4223.83
4223.77
4224.32
4225.5
4267.49
4378.28
44559.8
8261.73
7571.13
7000.07
6537.03
6166.67
5872.14
5636.2
5445.92
5290.02
5161.42
5053.44
4962.59
4884.66
4818.07
4759.88
4709.59
4664.94
4626.03
4590.97
4560.25
4532.19
4507.52
4484.71
4464.61
4445.79
4429.23
4413.53
4399.74
4386.48
4374.9
4363.62
4353.82
4344.14
4335.78
4327.42
4320.26
4313
4306.83
4300.5
4295.14
4289.61
4284.97
4280.07
4276.04
4271.74
4268.21
4264.41
4261.28
4257.94
4255.2
4252.24
4249.85
4247.31
4245.16
4242.89
4241.01
4238.99
4237.35
4235.53
4234.09
4232.52
4231.33
4229.9
4228.91
4227.67
4226.83
4225.7
4224.98
4224
4223.43
4222.6
4222.13
4221.43
4221.04
4220.37
4219.96
4219.31
4218.93
4218.34
4218.02
4217.49
4217.22
4216.75
4216.55
4216.18
4216.06
4215.79
4215.84
4215.79
4215.93
4215.86
4216.4
4217.63
4261.01
4372.42
41925
8261.72
7571.24
7000.15
6536.8
6165.93
5870.79
5634.24
5443.37
5286.93
5157.86
5049.46
4958.24
4879.97
4813.08
4754.64
4704.11
4659.25
4620.15
4584.92
4554.04
4525.84
4501.05
4478.12
4457.92
4439
4422.35
4406.57
4392.7
4379.37
4367.73
4356.38
4346.52
4336.79
4328.39
4319.97
4312.77
4305.47
4299.27
4292.89
4287.51
4281.94
4277.27
4272.34
4268.29
4263.96
4260.4
4256.58
4253.43
4250.06
4247.3
4244.33
4241.92
4239.35
4237.19
4234.9
4233.01
4230.97
4229.32
4227.48
4226.03
4224.44
4223.25
4221.8
4220.8
4219.55
4218.69
4217.56
4216.83
4215.84
4215.26
4214.42
4213.94
4213.23
4212.83
4212.16
4211.74
4211.08
4210.69
4210.09
4209.76
4209.23
4208.95
4208.48
4208.26
4207.89
4207.76
4207.48
4207.52
4207.45
4207.57
4207.49
4208.03
4209.3
4254.09
4366.15
39396.4
8261.71
7571.35
7000.22
6536.56
6165.15
5869.38
5632.18
5440.7
5283.7
5154.12
5045.27
4953.65
4875.04
4807.84
4749.11
4698.34
4653.25
4613.95
4578.54
4547.51
4519.16
4494.23
4471.17
4450.87
4431.84
4415.1
4399.22
4385.28
4371.87
4360.16
4348.75
4338.83
4329.04
4320.58
4312.12
4304.87
4297.53
4291.28
4284.87
4279.45
4273.85
4269.14
4264.19
4260.1
4255.74
4252.16
4248.31
4245.14
4241.75
4238.97
4235.97
4233.54
4230.96
4228.78
4226.46
4224.56
4222.51
4220.84
4218.99
4217.52
4215.92
4214.71
4213.25
4212.23
4210.97
4210.11
4208.96
4208.22
4207.22
4206.62
4205.77
4205.29
4204.57
4204.16
4203.48
4203.05
4202.39
4202
4201.39
4201.05
4200.51
4200.22
4199.74
4199.52
4199.13
4199
4198.7
4198.72
4198.65
4198.75
4198.65
4199.18
4200.51
4246.7
4359.45
36976.4
8261.7
7571.47
7000.3
6536.31
6164.35
5867.91
5630.03
5437.91
5280.31
5150.21
5040.89
4948.85
4869.86
4802.33
4743.31
4692.28
4646.96
4607.44
4571.84
4540.63
4512.13
4487.06
4463.87
4443.44
4424.3
4407.47
4391.49
4377.47
4363.98
4352.19
4340.71
4330.73
4320.88
4312.37
4303.85
4296.55
4289.16
4282.88
4276.42
4270.96
4265.32
4260.59
4255.59
4251.48
4247.09
4243.48
4239.6
4236.41
4232.99
4230.19
4227.17
4224.72
4222.11
4219.92
4217.58
4215.66
4213.59
4211.91
4210.04
4208.56
4206.94
4205.72
4204.24
4203.21
4201.93
4201.06
4199.9
4199.15
4198.13
4197.53
4196.67
4196.17
4195.44
4195.03
4194.34
4193.91
4193.23
4192.83
4192.21
4191.87
4191.31
4191.02
4190.53
4190.3
4189.9
4189.76
4189.46
4189.46
4189.37
4189.46
4189.34
4189.86
4191.24
4238.81
4352.29
34667.2
8261.69
7571.59
7000.39
6536.06
6163.52
5866.39
5627.8
5434.99
5276.78
5146.12
5036.3
4943.82
4864.43
4796.56
4737.23
4685.92
4640.35
4600.62
4564.81
4533.42
4504.75
4479.53
4456.2
4435.65
4416.39
4399.45
4383.38
4369.26
4355.69
4343.83
4332.27
4322.22
4312.3
4303.74
4295.16
4287.81
4280.37
4274.04
4267.54
4262.04
4256.36
4251.59
4246.56
4242.41
4237.99
4234.36
4230.45
4227.23
4223.78
4220.96
4217.92
4215.44
4212.81
4210.6
4208.24
4206.31
4204.21
4202.52
4200.63
4199.14
4197.5
4196.26
4194.77
4193.73
4192.43
4191.55
4190.37
4189.61
4188.58
4187.97
4187.09
4186.59
4185.85
4185.42
4184.73
4184.29
4183.6
4183.2
4182.57
4182.21
4181.65
4181.35
4180.84
4180.61
4180.2
4180.05
4179.74
4179.72
4179.62
4179.69
4179.55
4180.06
4181.5
4230.38
4344.62
32470.6
8261.68
7571.72
7000.49
6535.8
6162.66
5864.81
5625.47
5431.96
5273.1
5141.85
5031.5
4938.56
4858.77
4790.53
4730.87
4679.27
4633.43
4593.47
4557.45
4525.87
4497.01
4471.64
4448.16
4427.48
4408.1
4391.05
4374.87
4360.66
4346.99
4335.05
4323.42
4313.3
4303.31
4294.69
4286.05
4278.65
4271.15
4264.78
4258.22
4252.69
4246.96
4242.16
4237.09
4232.91
4228.45
4224.79
4220.85
4217.6
4214.13
4211.28
4208.21
4205.71
4203.05
4200.82
4198.44
4196.49
4194.37
4192.66
4190.75
4189.25
4187.59
4186.34
4184.83
4183.77
4182.46
4181.56
4180.37
4179.6
4178.56
4177.93
4177.04
4176.53
4175.78
4175.34
4174.64
4174.19
4173.5
4173.08
4172.44
4172.08
4171.5
4171.2
4170.68
4170.43
4170.02
4169.86
4169.53
4169.5
4169.38
4169.43
4169.27
4169.77
4171.27
4221.38
4336.41
30387.9
8261.67
7571.85
7000.59
6535.55
6161.78
5863.18
5623.07
5428.81
5269.27
5137.4
5026.51
4933.09
4852.86
4784.23
4724.23
4672.33
4626.21
4586
4549.75
4517.97
4488.93
4463.39
4439.76
4418.94
4399.43
4382.26
4365.97
4351.66
4337.9
4325.87
4314.15
4303.96
4293.9
4285.21
4276.51
4269.05
4261.5
4255.07
4248.47
4242.89
4237.12
4232.27
4227.17
4222.95
4218.46
4214.76
4210.79
4207.51
4204.01
4201.13
4198.04
4195.51
4192.83
4190.58
4188.18
4186.21
4184.07
4182.34
4180.41
4178.89
4177.2
4175.94
4174.41
4173.34
4172.01
4171.1
4169.9
4169.11
4168.06
4167.42
4166.51
4165.99
4165.22
4164.78
4164.06
4163.61
4162.91
4162.48
4161.83
4161.46
4160.87
4160.56
4160.03
4159.77
4159.34
4159.18
4158.84
4158.79
4158.66
4158.69
4158.51
4158.99
4160.56
4211.76
4327.62
28420.7
8261.65
7571.98
7000.69
6535.28
6160.88
5861.5
5620.58
5425.55
5265.29
5132.79
5021.32
4927.39
4846.7
4777.68
4717.31
4665.08
4618.68
4578.21
4541.72
4509.73
4480.49
4454.78
4430.98
4410.02
4390.37
4373.08
4356.67
4342.25
4328.39
4316.27
4304.47
4294.2
4284.06
4275.3
4266.53
4259.02
4251.4
4244.93
4238.27
4232.65
4226.83
4221.94
4216.79
4212.54
4208.01
4204.28
4200.27
4196.97
4193.43
4190.53
4187.4
4184.85
4182.14
4179.87
4177.44
4175.45
4173.28
4171.54
4169.59
4168.05
4166.34
4165.07
4163.52
4162.43
4161.08
4160.16
4158.94
4158.14
4157.07
4156.42
4155.5
4154.96
4154.18
4153.73
4153
4152.54
4151.83
4151.39
4150.73
4150.35
4149.75
4149.43
4148.89
4148.62
4148.18
4148
4147.65
4147.59
4147.44
4147.45
4147.24
4147.72
4149.34
4201.53
4318.22
26570.1
8261.64
7572.12
7000.8
6535.02
6159.95
5859.77
5618.01
5422.18
5261.17
5128
5015.93
4921.46
4840.3
4770.86
4710.11
4657.55
4610.83
4570.09
4533.36
4501.14
4471.7
4445.81
4421.83
4400.72
4380.92
4363.5
4346.97
4332.44
4318.47
4306.26
4294.36
4284.01
4273.79
4264.97
4256.13
4248.55
4240.87
4234.34
4227.63
4221.95
4216.08
4211.16
4205.96
4201.67
4197.1
4193.33
4189.29
4185.95
4182.38
4179.45
4176.29
4173.72
4170.98
4168.69
4166.22
4164.22
4162.03
4160.26
4158.29
4156.73
4155
4153.71
4152.14
4151.04
4149.67
4148.73
4147.49
4146.68
4145.59
4144.93
4143.99
4143.45
4142.65
4142.19
4141.45
4140.98
4140.25
4139.81
4139.14
4138.75
4138.13
4137.8
4137.25
4136.97
4136.52
4136.33
4135.96
4135.89
4135.73
4135.71
4135.47
4135.94
4137.62
4190.69
4308.16
24837.2
8261.62
7572.26
7000.92
6534.76
6159.01
5858
5615.36
5418.7
5256.91
5123.04
5010.35
4915.32
4833.66
4763.77
4702.63
4649.71
4602.68
4561.65
4524.66
4492.21
4462.55
4436.46
4412.31
4391.03
4371.08
4353.53
4336.86
4322.22
4308.14
4295.83
4283.84
4273.4
4263.1
4254.19
4245.28
4237.64
4229.89
4223.3
4216.53
4210.81
4204.88
4199.91
4194.67
4190.34
4185.72
4181.92
4177.84
4174.47
4170.86
4167.9
4164.71
4162.11
4159.34
4157.02
4154.53
4152.5
4150.28
4148.5
4146.5
4144.93
4143.17
4141.86
4140.27
4139.16
4137.77
4136.81
4135.56
4134.73
4133.62
4132.95
4131.99
4131.43
4130.63
4130.16
4129.4
4128.92
4128.18
4127.73
4127.04
4126.64
4126.02
4125.67
4125.1
4124.82
4124.35
4124.15
4123.77
4123.68
4123.51
4123.46
4123.2
4123.66
4125.4
4179.22
4297.4
23223
8261.6
7572.4
7001.05
6534.49
6158.05
5856.18
5612.64
5415.11
5252.52
5117.92
5004.57
4908.96
4826.78
4756.43
4694.87
4641.58
4594.22
4552.89
4515.62
4482.93
4453.04
4426.75
4402.41
4380.97
4360.85
4343.16
4326.36
4311.6
4297.4
4284.98
4272.88
4262.36
4251.97
4242.99
4233.99
4226.28
4218.47
4211.82
4204.99
4199.21
4193.23
4188.21
4182.91
4178.54
4173.88
4170.04
4165.91
4162.51
4158.87
4155.88
4152.65
4150.02
4147.21
4144.87
4142.35
4140.3
4138.05
4136.25
4134.23
4132.64
4130.85
4129.53
4127.91
4126.78
4125.37
4124.4
4123.12
4122.29
4121.16
4120.47
4119.5
4118.92
4118.1
4117.62
4116.85
4116.36
4115.61
4115.15
4114.44
4114.03
4113.39
4113.04
4112.45
4112.16
4111.67
4111.46
4111.07
4110.96
4110.77
4110.71
4110.41
4110.87
4112.66
4167.13
4285.92
21723.1
8261.58
7572.55
7001.18
6534.23
6157.07
5854.31
5609.85
5411.41
5247.98
5112.63
4998.6
4902.38
4819.66
4748.83
4686.83
4633.16
4585.44
4543.8
4506.24
4473.3
4443.18
4416.68
4392.14
4370.51
4350.23
4332.39
4315.44
4300.56
4286.23
4273.71
4261.5
4250.89
4240.4
4231.34
4222.26
4214.48
4206.59
4199.88
4192.98
4187.15
4181.11
4176.04
4170.69
4166.27
4161.56
4157.68
4153.52
4150.08
4146.39
4143.37
4140.11
4137.45
4134.6
4132.24
4129.69
4127.61
4125.34
4123.51
4121.46
4119.85
4118.04
4116.7
4115.06
4113.9
4112.47
4111.49
4110.19
4109.34
4108.19
4107.48
4106.49
4105.9
4105.06
4104.57
4103.79
4103.29
4102.52
4102.05
4101.33
4100.91
4100.26
4099.89
4099.29
4098.98
4098.49
4098.26
4097.86
4097.73
4097.53
4097.45
4097.11
4097.56
4099.4
4154.41
4273.67
20332.9
8261.56
7572.69
7001.32
6533.97
6156.08
5852.41
5606.98
5407.61
5243.32
5107.18
4992.43
4895.59
4812.3
4740.97
4678.51
4624.45
4576.36
4534.39
4496.54
4463.32
4432.95
4406.23
4381.48
4359.68
4339.22
4321.22
4304.12
4289.1
4274.65
4262.01
4249.7
4238.98
4228.39
4219.25
4210.08
4202.22
4194.26
4187.48
4180.52
4174.62
4168.52
4163.4
4158
4153.53
4148.77
4144.85
4140.64
4137.17
4133.44
4130.38
4127.08
4124.39
4121.51
4119.12
4116.53
4114.43
4112.12
4110.28
4108.2
4106.57
4104.73
4103.36
4101.7
4100.53
4099.07
4098.07
4096.75
4095.88
4094.71
4093.99
4092.98
4092.38
4091.52
4091.02
4090.22
4089.71
4088.93
4088.45
4087.71
4087.28
4086.61
4086.23
4085.62
4085.3
4084.78
4084.55
4084.13
4083.98
4083.76
4083.66
4083.29
4083.73
4085.62
4141.07
4260.62
19047.4
8261.54
7572.85
7001.46
6533.71
6155.07
5850.47
5604.05
5403.72
5238.53
5101.57
4986.09
4888.59
4804.71
4732.85
4669.93
4615.44
4566.97
4524.66
4486.49
4453
4422.37
4395.42
4370.45
4348.45
4327.81
4309.65
4292.39
4277.24
4262.65
4249.89
4237.46
4226.64
4215.95
4206.71
4197.46
4189.52
4181.48
4174.63
4167.59
4161.64
4155.47
4150.29
4144.84
4140.32
4135.51
4131.54
4127.28
4123.77
4120
4116.91
4113.56
4110.84
4107.92
4105.5
4102.88
4100.75
4098.41
4096.55
4094.43
4092.79
4090.91
4089.53
4087.84
4086.65
4085.16
4084.15
4082.8
4081.92
4080.73
4079.99
4078.96
4078.34
4077.47
4076.95
4076.13
4075.62
4074.82
4074.32
4073.58
4073.13
4072.44
4072.05
4071.42
4071.09
4070.56
4070.31
4069.87
4069.71
4069.47
4069.36
4068.94
4069.38
4071.31
4127.1
4246.75
17861.3
8261.51
7573
7001.62
6533.46
6154.06
5848.5
5601.06
5399.73
5233.61
5095.81
4979.56
4881.38
4796.88
4724.48
4661.07
4606.14
4557.27
4514.61
4476.11
4442.33
4411.43
4384.24
4359.05
4336.84
4316.01
4297.68
4280.26
4264.96
4250.23
4237.35
4224.79
4213.86
4203.06
4193.73
4184.38
4176.36
4168.23
4161.31
4154.2
4148.18
4141.95
4136.72
4131.2
4126.63
4121.76
4117.75
4113.44
4109.89
4106.07
4102.94
4099.56
4096.8
4093.84
4091.39
4088.73
4086.58
4084.21
4082.31
4080.17
4078.5
4076.6
4075.19
4073.47
4072.26
4070.75
4069.71
4068.35
4067.45
4066.23
4065.48
4064.43
4063.79
4062.9
4062.37
4061.53
4061
4060.19
4059.68
4058.92
4058.46
4057.75
4057.35
4056.71
4056.36
4055.81
4055.55
4055.09
4054.92
4054.66
4054.53
4054.07
4054.5
4056.47
4112.51
4232.01
16769.2
8261.49
7573.15
7001.77
6533.21
6153.03
5846.5
5598.01
5395.66
5228.57
5089.89
4972.85
4873.97
4788.83
4715.87
4651.94
4596.56
4547.27
4504.24
4465.4
4431.32
4400.14
4372.69
4347.26
4324.85
4303.82
4285.3
4267.71
4252.26
4237.38
4224.37
4211.69
4200.64
4189.74
4180.31
4170.86
4162.75
4154.54
4147.54
4140.35
4134.26
4127.96
4122.67
4117.09
4112.46
4107.54
4103.48
4099.12
4095.52
4091.66
4088.49
4085.06
4082.26
4079.26
4076.79
4074.09
4071.91
4069.49
4067.58
4065.4
4063.71
4061.77
4060.34
4058.6
4057.36
4055.82
4054.77
4053.38
4052.46
4051.22
4050.45
4049.37
4048.72
4047.81
4047.26
4046.41
4045.87
4045.04
4044.52
4043.74
4043.27
4042.54
4042.13
4041.47
4041.1
4040.54
4040.26
4039.79
4039.59
4039.32
4039.17
4038.67
4039.09
4041.09
4097.28
4216.39
15765.4
8261.46
7573.31
7001.94
6532.97
6152
5844.47
5594.9
5391.5
5223.42
5083.84
4965.97
4866.36
4780.56
4707.01
4642.54
4586.69
4536.97
4493.56
4454.37
4419.96
4388.49
4360.78
4335.1
4312.47
4291.23
4272.53
4254.76
4239.15
4224.12
4210.97
4198.15
4186.99
4175.97
4166.43
4156.88
4148.69
4140.38
4133.3
4126.03
4119.87
4113.5
4108.14
4102.49
4097.81
4092.83
4088.72
4084.31
4080.67
4076.75
4073.54
4070.07
4067.23
4064.19
4061.68
4058.94
4056.73
4054.28
4052.34
4050.13
4048.41
4046.44
4044.99
4043.21
4041.95
4040.38
4039.31
4037.89
4036.95
4035.69
4034.9
4033.8
4033.13
4032.2
4031.64
4030.77
4030.21
4029.36
4028.84
4028.03
4027.55
4026.81
4026.38
4025.7
4025.32
4024.73
4024.44
4023.95
4023.74
4023.44
4023.27
4022.74
4023.15
4025.17
4081.42
4199.85
14844
8261.43
7573.46
7002.11
6532.74
6150.97
5842.41
5591.74
5387.25
5218.15
5077.64
4958.92
4858.55
4772.06
4697.9
4632.89
4576.54
4526.37
4482.56
4443
4408.27
4376.49
4348.51
4322.57
4299.71
4278.26
4259.36
4241.41
4225.63
4210.44
4197.15
4184.19
4172.9
4161.76
4152.12
4142.46
4134.17
4125.76
4118.6
4111.25
4105.02
4098.56
4093.14
4087.43
4082.69
4077.64
4073.48
4069.01
4065.32