/*--------------------------------*- C++ -*----------------------------------*\
| =========                 |                                                 |
| \\      /  F ield         | OpenFOAM: The Open Source CFD Toolbox           |
|  \\    /   O peration     | Version:  v2012                                 |
|   \\  /    A nd           | Website:  www.openfoam.com                      |
|    \\/     M anipulation  |                                                 |
\*---------------------------------------------------------------------------*/
FoamFile
{
    version     2.0;
    format      ascii;
    class       volScalarField;
    location    "54.5";
    object      yPlus;
}
// * * * * * * * * * * * * * * * * * * * * * * * * * * * * * * * * * * * * * //

dimensions      [0 0 0 0 0 0 0];


internalField   uniform 0;

boundaryField
{
    inlet
    {
        type            calculated;
        value           uniform 0;
    }
    outlet
    {
        type            calculated;
        value           uniform 0;
    }
    topWall
    {
        type            calculated;
        value           nonuniform List<scalar> 
545
(
0.111334
0.191971
0.246281
0.289502
0.326095
0.358115
0.386716
0.412628
0.436344
0.458221
0.478525
0.497463
0.515196
0.53186
0.547563
0.562397
0.576441
0.589761
0.602417
0.614458
0.62593
0.636873
0.647323
0.657311
0.666867
0.676017
0.684784
0.693191
0.701258
0.709004
0.716445
0.723596
0.730474
0.737091
0.74346
0.749593
0.755502
0.761195
0.766684
0.771977
0.777083
0.78201
0.786765
0.791357
0.795791
0.800075
0.804214
0.808214
0.812082
0.815821
0.819437
0.822935
0.826319
0.829593
0.832763
0.835831
0.838801
0.841677
0.844463
0.847161
0.849775
0.852308
0.854762
0.857141
0.859446
0.861681
0.863848
0.865949
0.867987
0.869963
0.87188
0.873739
0.87552
0.877243
0.878952
0.880648
0.88233
0.884
0.885656
0.887299
0.888929
0.890547
0.892152
0.893744
0.895325
0.896893
0.898449
0.899993
0.901525
0.903045
0.904554
0.906051
0.907537
0.909012
0.910475
0.911927
0.913236
0.914407
0.915577
0.916748
0.917918
0.919088
0.920259
0.921429
0.922598
0.923768
0.924938
0.926107
0.927276
0.928445
0.929614
0.930783
0.931952
0.93312
0.934288
0.935456
0.936624
0.937791
0.938959
0.940126
0.941293
0.942459
0.943625
0.944791
0.945957
0.947123
0.948288
0.949453
0.950617
0.951782
0.952946
0.954109
0.955273
0.956436
0.957598
0.958761
0.959923
0.961084
0.962245
0.963406
0.964567
0.965727
0.966886
0.968045
0.969204
0.970362
0.97152
0.972678
0.973835
0.974991
0.976147
0.977303
0.978458
0.979612
0.980766
0.98192
0.983073
0.984225
0.985377
0.986528
0.987679
0.988829
0.989979
0.991128
0.992277
0.993424
0.994572
0.995718
0.996864
0.998009
0.999154
1.0003
1.00144
1.00258
1.00373
1.00487
1.00601
1.00715
1.00829
1.00942
1.01056
1.0117
1.01284
1.01397
1.0151
1.01624
1.01737
1.0185
1.01963
1.02076
1.02189
1.02302
1.02415
1.02528
1.0264
1.02753
1.02865
1.02978
1.0309
1.03202
1.03314
1.03426
1.03538
1.03649
1.03761
1.03873
1.03984
1.04095
1.04207
1.04318
1.04429
1.0454
1.0465
1.04761
1.04872
1.04982
1.05092
1.05203
1.05313
1.05423
1.05533
1.05642
1.05752
1.05861
1.05971
1.0608
1.06189
1.06298
1.06407
1.06516
1.06624
1.06733
1.06841
1.06949
1.07057
1.07165
1.07273
1.07381
1.07488
1.07596
1.07703
1.0781
1.07917
1.08024
1.0813
1.08237
1.08343
1.08449
1.08555
1.08661
1.08767
1.08872
1.08978
1.09083
1.09188
1.09293
1.09398
1.09502
1.09607
1.09711
1.09815
1.09919
1.10023
1.10126
1.1023
1.10333
1.10436
1.10539
1.10641
1.10738
1.1083
1.10922
1.11014
1.11107
1.11201
1.11296
1.11391
1.11487
1.11583
1.11681
1.11778
1.11877
1.11976
1.12076
1.12176
1.12277
1.12379
1.12481
1.12584
1.12688
1.12792
1.12897
1.13002
1.13108
1.13215
1.13322
1.1343
1.13539
1.13648
1.13758
1.13868
1.13979
1.1409
1.14202
1.14315
1.14428
1.14542
1.14657
1.14772
1.14887
1.15003
1.1512
1.15237
1.15354
1.15473
1.15591
1.1571
1.1583
1.1595
1.16071
1.16192
1.16313
1.16435
1.16557
1.1668
1.16803
1.16927
1.17051
1.17175
1.173
1.17425
1.1755
1.17676
1.17802
1.17928
1.18054
1.18181
1.18308
1.18435
1.18563
1.1869
1.18818
1.18946
1.19074
1.19202
1.19331
1.19459
1.19587
1.19716
1.19845
1.19973
1.20102
1.2023
1.20358
1.20487
1.20615
1.20743
1.20871
1.20999
1.21126
1.21253
1.21381
1.21507
1.21634
1.2176
1.21886
1.22011
1.22136
1.2226
1.22385
1.22508
1.22631
1.22754
1.22875
1.22997
1.23117
1.23237
1.23356
1.23475
1.23593
1.23709
1.23826
1.23941
1.24055
1.24168
1.24281
1.24392
1.24503
1.24612
1.2472
1.24827
1.24933
1.25038
1.25141
1.25243
1.25344
1.25444
1.25542
1.25639
1.25734
1.25828
1.25921
1.26011
1.26101
1.26189
1.26275
1.26359
1.26442
1.26523
1.26602
1.2668
1.26755
1.26829
1.26901
1.26971
1.27039
1.27106
1.2717
1.27232
1.27292
1.2735
1.27406
1.2746
1.27512
1.27562
1.27609
1.27655
1.27698
1.27739
1.27778
1.27814
1.27848
1.2788
1.2791
1.27937
1.27962
1.27985
1.28006
1.28024
1.2804
1.28053
1.28064
1.28073
1.28079
1.28084
1.28085
1.28085
1.28082
1.28077
1.2807
1.28059
1.28043
1.28025
1.28004
1.2798
1.27954
1.27925
1.27894
1.2786
1.27825
1.27787
1.27747
1.27706
1.27663
1.27619
1.27573
1.27526
1.27477
1.27427
1.27377
1.27325
1.27272
1.27219
1.27165
1.2711
1.27054
1.26998
1.26942
1.26885
1.26827
1.2677
1.26712
1.26654
1.26596
1.26538
1.2648
1.26422
1.26365
1.26307
1.26249
1.26192
1.26135
1.26079
1.26023
1.25967
1.25912
1.25857
1.25803
1.2575
1.25697
1.25644
1.25593
1.25542
1.25492
1.25443
1.25394
1.25347
1.253
1.25254
1.25209
1.25165
1.25123
1.25081
1.2504
1.25
1.24961
1.24924
1.24887
1.24852
1.24818
1.24785
1.24753
1.24723
1.24694
1.24666
1.24639
1.24614
1.2459
1.24567
1.24545
1.24525
1.24507
1.24489
1.24473
1.24459
1.24446
1.24434
1.24423
1.24414
1.24407
1.24401
1.24396
1.24393
1.24392
1.2439
)
;
    }
    bottomWall
    {
        type            calculated;
        value           nonuniform List<scalar> 
449
(
0.139383
0.0889262
0.0757931
0.0694433
0.0652934
0.0622276
0.0598523
0.0580441
0.0568834
0.0567166
0.0583562
0.0624193
0.0659175
0.0680593
0.0692244
0.0698548
0.0701709
0.0702874
0.0702568
0.0701444
0.0699759
0.0697711
0.0695471
0.0693143
0.0690788
0.0688444
0.0686128
0.068386
0.0681649
0.0679498
0.0677411
0.0675387
0.0673426
0.0671525
0.0669682
0.0667895
0.066616
0.0664476
0.0662842
0.0661256
0.0659714
0.0658215
0.0656758
0.0655339
0.0653957
0.065261
0.0651297
0.0650016
0.0648766
0.0647543
0.0646344
0.0645166
0.0644009
0.0642872
0.0641756
0.0640659
0.0639582
0.0638525
0.0637487
0.0636466
0.0635465
0.063448
0.0633512
0.063256
0.0631625
0.0630705
0.06298
0.0628909
0.0628032
0.0627169
0.0626319
0.0625481
0.0624656
0.0623842
0.0623041
0.0622251
0.0621472
0.0620704
0.0619947
0.06192
0.0618464
0.0617737
0.0617021
0.0616313
0.0615615
0.0614926
0.0614245
0.0613573
0.0612909
0.0612253
0.0611605
0.0610964
0.0610331
0.0609706
0.0609088
0.0608476
0.0607872
0.0607274
0.0606683
0.0606099
0.0605521
0.0604948
0.0604381
0.060382
0.0603264
0.0602715
0.0602171
0.0601632
0.0601099
0.0600571
0.0600048
0.059953
0.0599017
0.0598509
0.0598005
0.0597507
0.0597013
0.0596523
0.0596038
0.0595557
0.059508
0.0594608
0.059414
0.0593675
0.0593215
0.0592759
0.0592306
0.0591857
0.0591412
0.059097
0.0590532
0.0590098
0.0589667
0.058924
0.0588815
0.0588394
0.0587977
0.0587562
0.0587151
0.0586743
0.0586337
0.0585935
0.0585536
0.058514
0.0584746
0.0584355
0.0583967
0.0583582
0.0583199
0.0582819
0.0582441
0.0582066
0.0581693
0.0581323
0.0580955
0.058059
0.0580227
0.0579866
0.0579508
0.0579152
0.0578798
0.0578447
0.0578098
0.0577751
0.0577406
0.0577064
0.0576723
0.0576385
0.0576048
0.0575714
0.0575381
0.0575051
0.0574722
0.0574415
0.0574124
0.0573833
0.0573541
0.0573248
0.0572954
0.0572659
0.0572363
0.0572066
0.0571769
0.057147
0.057117
0.0570869
0.0570567
0.0570265
0.0569961
0.0569656
0.0569351
0.0569045
0.0568737
0.0568429
0.056812
0.056781
0.0567499
0.0567187
0.0566875
0.0566561
0.0566247
0.0565932
0.0565616
0.0565299
0.0564981
0.0564663
0.0564343
0.0564023
0.0563702
0.0563381
0.0563058
0.0562735
0.0562411
0.0562086
0.056176
0.0561433
0.0561105
0.0560777
0.0560448
0.0560118
0.0559788
0.0559457
0.0559125
0.0558793
0.0558459
0.0558125
0.0557791
0.0557456
0.055712
0.0556783
0.0556446
0.0556109
0.055577
0.0555431
0.0555092
0.0554752
0.0554411
0.055407
0.0553728
0.0553385
0.0553042
0.0552699
0.0552355
0.055201
0.0551665
0.0551319
0.0550973
0.0550626
0.0550279
0.0549931
0.0549583
0.0549235
0.0548885
0.0548536
0.0548186
0.0547835
0.0547484
0.0547133
0.0546781
0.0546429
0.0546077
0.0545724
0.054537
0.0545017
0.0544662
0.0544308
0.0543953
0.0543598
0.0543242
0.0542886
0.054253
0.0542174
0.0541817
0.0541459
0.0541101
0.0540743
0.0540384
0.0540025
0.0539666
0.0539306
0.0538946
0.0538586
0.0538226
0.0537865
0.0537505
0.0537143
0.0536782
0.0536421
0.0536059
0.0535697
0.0535335
0.0534973
0.053461
0.0534248
0.0533885
0.0533522
0.0533159
0.0532796
0.0532433
0.0532069
0.0531706
0.0531342
0.0530978
0.0530614
0.053025
0.0529886
0.0529522
0.0529158
0.0528794
0.0528429
0.0528065
0.05277
0.0527336
0.0526971
0.0526607
0.0526242
0.0525878
0.0525513
0.0525149
0.0524784
0.052442
0.0524056
0.0523691
0.0523327
0.0522963
0.0522598
0.0522234
0.052187
0.0521506
0.0521142
0.0520778
0.0520413
0.0520049
0.0519685
0.0519321
0.0518957
0.0518594
0.051823
0.0517867
0.0517503
0.051714
0.0516777
0.0516414
0.0516052
0.0515689
0.0515327
0.0514965
0.0514603
0.0514241
0.051388
0.0513519
0.0513158
0.0512797
0.0512436
0.0512036
0.0511599
0.0511168
0.0510743
0.0510324
0.050991
0.0509502
0.0509099
0.0508701
0.0508308
0.0507921
0.0507538
0.050716
0.0506786
0.0506418
0.0506053
0.0505694
0.0505338
0.0504986
0.0504639
0.0504296
0.0503956
0.050362
0.0503288
0.050296
0.0502636
0.0502315
0.0501997
0.0501683
0.0501372
0.0501065
0.050076
0.0500459
0.050016
0.0499865
0.0499572
0.0499283
0.0498996
0.0498713
0.0498432
0.0498154
0.0497878
0.0497605
0.0497335
0.0497067
0.0496802
0.0496539
0.0496279
0.0496021
0.0495765
0.0495512
0.0495261
0.0495012
0.0494765
0.0494521
0.0494278
0.0494039
0.04938
0.0493564
0.049333
0.0493098
0.0492867
0.0492639
0.0492412
0.0492188
0.0491965
0.0491744
0.0491524
0.0491308
0.049109
0.0490877
0.0490663
0.0490454
0.0490243
0.0490037
0.0489828
0.0489626
0.048942
0.0489221
0.0489017
0.0488822
0.048862
0.0488428
0.0488228
0.0488038
0.0487841
0.0487653
0.048746
0.0487268
0.0487089
0.0486869
0.048675
0.0486425
0.0486488
0.0486041
)
;
    }
    symmetry
    {
        type            symmetryPlane;
    }
    frontAndBack
    {
        type            empty;
    }
}


// ************************************************************************* //
