/*--------------------------------*- C++ -*----------------------------------*\
| =========                 |                                                 |
| \\      /  F ield         | OpenFOAM: The Open Source CFD Toolbox           |
|  \\    /   O peration     | Version:  v2012                                 |
|   \\  /    A nd           | Website:  www.openfoam.com                      |
|    \\/     M anipulation  |                                                 |
\*---------------------------------------------------------------------------*/
FoamFile
{
    version     2.0;
    format      ascii;
    class       volScalarField;
    location    "8";
    object      nut;
}
// * * * * * * * * * * * * * * * * * * * * * * * * * * * * * * * * * * * * * //

dimensions      [0 2 -1 0 0 0 0];


internalField   nonuniform List<scalar> 
209825
(
1.2462e-07
1.2562e-07
1.263e-07
1.26742e-07
1.27054e-07
1.27285e-07
1.27463e-07
1.27603e-07
1.27716e-07
1.27807e-07
1.27883e-07
1.27947e-07
1.28e-07
1.28045e-07
1.28085e-07
1.28118e-07
1.28146e-07
1.2817e-07
1.28194e-07
1.28212e-07
1.28229e-07
1.28243e-07
1.28256e-07
1.28266e-07
1.28275e-07
1.28284e-07
1.28292e-07
1.28298e-07
1.28304e-07
1.2831e-07
1.28315e-07
1.28318e-07
1.28318e-07
1.28329e-07
1.28335e-07
1.28334e-07
1.28333e-07
1.28339e-07
1.28342e-07
1.28339e-07
1.28339e-07
1.28344e-07
1.28345e-07
1.28326e-07
1.28324e-07
1.28337e-07
1.28343e-07
1.28334e-07
1.28334e-07
1.2832e-07
1.2832e-07
1.28314e-07
1.28302e-07
1.28293e-07
1.28292e-07
1.28283e-07
1.28269e-07
1.28279e-07
1.28281e-07
1.28281e-07
1.28281e-07
1.28279e-07
1.28285e-07
1.28266e-07
1.28251e-07
1.28268e-07
1.28289e-07
1.2828e-07
1.28281e-07
1.28254e-07
1.28253e-07
1.28265e-07
1.28244e-07
1.28256e-07
1.28284e-07
1.28277e-07
1.28262e-07
1.28256e-07
1.2827e-07
1.28303e-07
1.28304e-07
1.28324e-07
1.28344e-07
1.28342e-07
1.28368e-07
1.28399e-07
1.28424e-07
1.2846e-07
1.28511e-07
1.28567e-07
1.28649e-07
1.28803e-07
1.28885e-07
1.29979e-07
1.34775e-07
2.03023e-08
1.24619e-07
1.2562e-07
1.263e-07
1.26742e-07
1.27054e-07
1.27286e-07
1.27463e-07
1.27603e-07
1.27716e-07
1.27808e-07
1.27884e-07
1.27947e-07
1.28001e-07
1.28046e-07
1.28085e-07
1.28118e-07
1.28146e-07
1.28171e-07
1.28194e-07
1.28213e-07
1.28229e-07
1.28244e-07
1.28256e-07
1.28266e-07
1.28275e-07
1.28284e-07
1.28292e-07
1.28298e-07
1.28305e-07
1.2831e-07
1.28316e-07
1.28318e-07
1.28319e-07
1.28329e-07
1.28336e-07
1.28335e-07
1.28334e-07
1.2834e-07
1.28343e-07
1.2834e-07
1.28339e-07
1.28345e-07
1.28346e-07
1.28326e-07
1.28325e-07
1.28338e-07
1.28343e-07
1.28334e-07
1.28334e-07
1.2832e-07
1.2832e-07
1.28315e-07
1.28302e-07
1.28294e-07
1.28293e-07
1.28283e-07
1.2827e-07
1.28279e-07
1.28282e-07
1.28282e-07
1.28282e-07
1.2828e-07
1.28285e-07
1.28267e-07
1.28252e-07
1.28269e-07
1.28289e-07
1.28281e-07
1.28282e-07
1.28255e-07
1.28254e-07
1.28266e-07
1.28245e-07
1.28257e-07
1.28285e-07
1.28278e-07
1.28263e-07
1.28257e-07
1.28271e-07
1.28304e-07
1.28305e-07
1.28325e-07
1.28345e-07
1.28343e-07
1.28369e-07
1.284e-07
1.28425e-07
1.28461e-07
1.28512e-07
1.28568e-07
1.2865e-07
1.28804e-07
1.28886e-07
1.29983e-07
1.34782e-07
2.09034e-08
1.24618e-07
1.25617e-07
1.26297e-07
1.26739e-07
1.27052e-07
1.27283e-07
1.27461e-07
1.27601e-07
1.27714e-07
1.27805e-07
1.27882e-07
1.27945e-07
1.27999e-07
1.28044e-07
1.28083e-07
1.28116e-07
1.28144e-07
1.28169e-07
1.28193e-07
1.28211e-07
1.28228e-07
1.28242e-07
1.28255e-07
1.28265e-07
1.28274e-07
1.28283e-07
1.28291e-07
1.28297e-07
1.28303e-07
1.28309e-07
1.28314e-07
1.28317e-07
1.28317e-07
1.28328e-07
1.28335e-07
1.28334e-07
1.28332e-07
1.28338e-07
1.28341e-07
1.28338e-07
1.28338e-07
1.28344e-07
1.28344e-07
1.28325e-07
1.28323e-07
1.28337e-07
1.28342e-07
1.28333e-07
1.28333e-07
1.28319e-07
1.28319e-07
1.28314e-07
1.28301e-07
1.28292e-07
1.28291e-07
1.28282e-07
1.28269e-07
1.28278e-07
1.28281e-07
1.2828e-07
1.2828e-07
1.28278e-07
1.28284e-07
1.28266e-07
1.28251e-07
1.28268e-07
1.28288e-07
1.2828e-07
1.28281e-07
1.28254e-07
1.28253e-07
1.28265e-07
1.28244e-07
1.28256e-07
1.28284e-07
1.28277e-07
1.28262e-07
1.28256e-07
1.2827e-07
1.28303e-07
1.28304e-07
1.28324e-07
1.28344e-07
1.28342e-07
1.28368e-07
1.284e-07
1.28424e-07
1.28461e-07
1.28512e-07
1.28568e-07
1.28649e-07
1.28804e-07
1.28885e-07
1.29987e-07
1.34795e-07
2.16528e-08
1.24616e-07
1.25614e-07
1.26293e-07
1.26735e-07
1.27047e-07
1.27279e-07
1.27457e-07
1.27597e-07
1.2771e-07
1.27802e-07
1.27878e-07
1.27942e-07
1.27996e-07
1.28041e-07
1.2808e-07
1.28114e-07
1.28142e-07
1.28166e-07
1.2819e-07
1.28209e-07
1.28225e-07
1.2824e-07
1.28253e-07
1.28263e-07
1.28272e-07
1.28281e-07
1.28289e-07
1.28295e-07
1.28301e-07
1.28307e-07
1.28312e-07
1.28315e-07
1.28315e-07
1.28326e-07
1.28333e-07
1.28332e-07
1.28331e-07
1.28337e-07
1.28339e-07
1.28337e-07
1.28336e-07
1.28342e-07
1.28343e-07
1.28323e-07
1.28322e-07
1.28335e-07
1.28341e-07
1.28332e-07
1.28331e-07
1.28318e-07
1.28318e-07
1.28313e-07
1.283e-07
1.28291e-07
1.2829e-07
1.28281e-07
1.28267e-07
1.28277e-07
1.28279e-07
1.28279e-07
1.28279e-07
1.28277e-07
1.28283e-07
1.28265e-07
1.28249e-07
1.28266e-07
1.28287e-07
1.28279e-07
1.2828e-07
1.28253e-07
1.28252e-07
1.28264e-07
1.28242e-07
1.28255e-07
1.28283e-07
1.28276e-07
1.28261e-07
1.28255e-07
1.28269e-07
1.28302e-07
1.28303e-07
1.28323e-07
1.28344e-07
1.28341e-07
1.28368e-07
1.28399e-07
1.28424e-07
1.2846e-07
1.28511e-07
1.28567e-07
1.28649e-07
1.28804e-07
1.28885e-07
1.29994e-07
1.34816e-07
2.24869e-08
1.24614e-07
1.25608e-07
1.26287e-07
1.26729e-07
1.27042e-07
1.27274e-07
1.27452e-07
1.27592e-07
1.27706e-07
1.27798e-07
1.27874e-07
1.27938e-07
1.27992e-07
1.28037e-07
1.28077e-07
1.2811e-07
1.28139e-07
1.28164e-07
1.28187e-07
1.28206e-07
1.28223e-07
1.28237e-07
1.2825e-07
1.2826e-07
1.28269e-07
1.28278e-07
1.28287e-07
1.28292e-07
1.28299e-07
1.28305e-07
1.2831e-07
1.28313e-07
1.28313e-07
1.28324e-07
1.28331e-07
1.2833e-07
1.28329e-07
1.28335e-07
1.28338e-07
1.28335e-07
1.28334e-07
1.2834e-07
1.28341e-07
1.28322e-07
1.2832e-07
1.28333e-07
1.28339e-07
1.2833e-07
1.2833e-07
1.28316e-07
1.28316e-07
1.28311e-07
1.28298e-07
1.28289e-07
1.28288e-07
1.28279e-07
1.28266e-07
1.28275e-07
1.28278e-07
1.28278e-07
1.28278e-07
1.28275e-07
1.28282e-07
1.28263e-07
1.28248e-07
1.28265e-07
1.28286e-07
1.28277e-07
1.28279e-07
1.28252e-07
1.28251e-07
1.28263e-07
1.28241e-07
1.28254e-07
1.28282e-07
1.28275e-07
1.28261e-07
1.28255e-07
1.28268e-07
1.28301e-07
1.28302e-07
1.28322e-07
1.28343e-07
1.28341e-07
1.28367e-07
1.28399e-07
1.28424e-07
1.2846e-07
1.28511e-07
1.28568e-07
1.28649e-07
1.28805e-07
1.28885e-07
1.30004e-07
1.34846e-07
2.3394e-08
1.2461e-07
1.25602e-07
1.2628e-07
1.26722e-07
1.27035e-07
1.27267e-07
1.27446e-07
1.27587e-07
1.277e-07
1.27793e-07
1.27869e-07
1.27933e-07
1.27988e-07
1.28033e-07
1.28073e-07
1.28107e-07
1.28135e-07
1.2816e-07
1.28184e-07
1.28203e-07
1.2822e-07
1.28234e-07
1.28247e-07
1.28257e-07
1.28267e-07
1.28276e-07
1.28284e-07
1.2829e-07
1.28297e-07
1.28302e-07
1.28308e-07
1.28311e-07
1.28311e-07
1.28322e-07
1.28329e-07
1.28328e-07
1.28326e-07
1.28333e-07
1.28336e-07
1.28333e-07
1.28332e-07
1.28338e-07
1.28339e-07
1.2832e-07
1.28318e-07
1.28332e-07
1.28337e-07
1.28328e-07
1.28328e-07
1.28314e-07
1.28314e-07
1.28309e-07
1.28296e-07
1.28288e-07
1.28287e-07
1.28278e-07
1.28264e-07
1.28274e-07
1.28276e-07
1.28276e-07
1.28276e-07
1.28274e-07
1.2828e-07
1.28262e-07
1.28246e-07
1.28264e-07
1.28284e-07
1.28276e-07
1.28278e-07
1.28251e-07
1.2825e-07
1.28262e-07
1.28241e-07
1.28253e-07
1.28281e-07
1.28274e-07
1.2826e-07
1.28254e-07
1.28267e-07
1.283e-07
1.28301e-07
1.28322e-07
1.28343e-07
1.28341e-07
1.28367e-07
1.28399e-07
1.28424e-07
1.2846e-07
1.28512e-07
1.28568e-07
1.2865e-07
1.28807e-07
1.28885e-07
1.30018e-07
1.34883e-07
2.43718e-08
1.24606e-07
1.25594e-07
1.26271e-07
1.26714e-07
1.27027e-07
1.27259e-07
1.27438e-07
1.2758e-07
1.27694e-07
1.27786e-07
1.27864e-07
1.27928e-07
1.27982e-07
1.28028e-07
1.28068e-07
1.28102e-07
1.28131e-07
1.28156e-07
1.2818e-07
1.28199e-07
1.28216e-07
1.28231e-07
1.28244e-07
1.28254e-07
1.28264e-07
1.28273e-07
1.28281e-07
1.28287e-07
1.28294e-07
1.283e-07
1.28305e-07
1.28308e-07
1.28308e-07
1.28319e-07
1.28326e-07
1.28325e-07
1.28324e-07
1.2833e-07
1.28333e-07
1.28331e-07
1.2833e-07
1.28336e-07
1.28337e-07
1.28318e-07
1.28316e-07
1.2833e-07
1.28335e-07
1.28326e-07
1.28326e-07
1.28312e-07
1.28312e-07
1.28308e-07
1.28295e-07
1.28286e-07
1.28285e-07
1.28276e-07
1.28262e-07
1.28272e-07
1.28275e-07
1.28275e-07
1.28274e-07
1.28272e-07
1.28279e-07
1.28261e-07
1.28245e-07
1.28262e-07
1.28283e-07
1.28275e-07
1.28277e-07
1.2825e-07
1.28249e-07
1.28261e-07
1.2824e-07
1.28252e-07
1.2828e-07
1.28273e-07
1.28259e-07
1.28253e-07
1.28266e-07
1.283e-07
1.28301e-07
1.28321e-07
1.28342e-07
1.28341e-07
1.28367e-07
1.28399e-07
1.28424e-07
1.28461e-07
1.28512e-07
1.28569e-07
1.2865e-07
1.28809e-07
1.28885e-07
1.30034e-07
1.34927e-07
2.54209e-08
1.24601e-07
1.25585e-07
1.26261e-07
1.26704e-07
1.27017e-07
1.2725e-07
1.2743e-07
1.27572e-07
1.27686e-07
1.27779e-07
1.27857e-07
1.27922e-07
1.27977e-07
1.28023e-07
1.28063e-07
1.28097e-07
1.28126e-07
1.28152e-07
1.28176e-07
1.28195e-07
1.28212e-07
1.28227e-07
1.2824e-07
1.28251e-07
1.2826e-07
1.2827e-07
1.28278e-07
1.28284e-07
1.28291e-07
1.28297e-07
1.28303e-07
1.28305e-07
1.28306e-07
1.28316e-07
1.28323e-07
1.28323e-07
1.28321e-07
1.28328e-07
1.28331e-07
1.28328e-07
1.28328e-07
1.28334e-07
1.28335e-07
1.28316e-07
1.28314e-07
1.28328e-07
1.28333e-07
1.28324e-07
1.28324e-07
1.28311e-07
1.28311e-07
1.28306e-07
1.28293e-07
1.28284e-07
1.28283e-07
1.28275e-07
1.28261e-07
1.28271e-07
1.28273e-07
1.28273e-07
1.28273e-07
1.28271e-07
1.28277e-07
1.28259e-07
1.28244e-07
1.28261e-07
1.28282e-07
1.28274e-07
1.28276e-07
1.28249e-07
1.28248e-07
1.2826e-07
1.28239e-07
1.28251e-07
1.28279e-07
1.28273e-07
1.28259e-07
1.28253e-07
1.28265e-07
1.28299e-07
1.28301e-07
1.28321e-07
1.28342e-07
1.28341e-07
1.28367e-07
1.28399e-07
1.28425e-07
1.28462e-07
1.28513e-07
1.28571e-07
1.28652e-07
1.28811e-07
1.28886e-07
1.30055e-07
1.34976e-07
2.65423e-08
1.24595e-07
1.25574e-07
1.26249e-07
1.26692e-07
1.27006e-07
1.2724e-07
1.2742e-07
1.27563e-07
1.27678e-07
1.27771e-07
1.2785e-07
1.27915e-07
1.2797e-07
1.28016e-07
1.28057e-07
1.28092e-07
1.28121e-07
1.28146e-07
1.28171e-07
1.2819e-07
1.28208e-07
1.28223e-07
1.28236e-07
1.28247e-07
1.28257e-07
1.28266e-07
1.28275e-07
1.28281e-07
1.28288e-07
1.28294e-07
1.283e-07
1.28302e-07
1.28303e-07
1.28314e-07
1.28321e-07
1.2832e-07
1.28319e-07
1.28325e-07
1.28328e-07
1.28326e-07
1.28325e-07
1.28331e-07
1.28333e-07
1.28313e-07
1.28312e-07
1.28325e-07
1.28331e-07
1.28322e-07
1.28322e-07
1.28309e-07
1.28309e-07
1.28304e-07
1.28291e-07
1.28282e-07
1.28281e-07
1.28273e-07
1.28259e-07
1.28269e-07
1.28272e-07
1.28271e-07
1.28271e-07
1.28269e-07
1.28276e-07
1.28258e-07
1.28242e-07
1.28259e-07
1.28281e-07
1.28273e-07
1.28275e-07
1.28248e-07
1.28247e-07
1.28259e-07
1.28238e-07
1.2825e-07
1.28278e-07
1.28272e-07
1.28258e-07
1.28253e-07
1.28265e-07
1.28299e-07
1.283e-07
1.28321e-07
1.28342e-07
1.28341e-07
1.28367e-07
1.284e-07
1.28426e-07
1.28463e-07
1.28515e-07
1.28573e-07
1.28653e-07
1.28815e-07
1.28887e-07
1.30079e-07
1.35029e-07
2.7737e-08
1.24589e-07
1.25562e-07
1.26236e-07
1.26679e-07
1.26994e-07
1.27228e-07
1.27409e-07
1.27552e-07
1.27668e-07
1.27762e-07
1.27841e-07
1.27907e-07
1.27963e-07
1.28009e-07
1.28051e-07
1.28085e-07
1.28115e-07
1.28141e-07
1.28166e-07
1.28185e-07
1.28203e-07
1.28218e-07
1.28232e-07
1.28243e-07
1.28253e-07
1.28262e-07
1.28271e-07
1.28277e-07
1.28284e-07
1.2829e-07
1.28296e-07
1.28299e-07
1.28299e-07
1.2831e-07
1.28317e-07
1.28317e-07
1.28316e-07
1.28322e-07
1.28326e-07
1.28323e-07
1.28323e-07
1.28329e-07
1.2833e-07
1.28311e-07
1.28309e-07
1.28323e-07
1.28329e-07
1.2832e-07
1.2832e-07
1.28307e-07
1.28307e-07
1.28302e-07
1.28289e-07
1.28281e-07
1.2828e-07
1.28271e-07
1.28257e-07
1.28267e-07
1.2827e-07
1.2827e-07
1.2827e-07
1.28267e-07
1.28275e-07
1.28257e-07
1.28241e-07
1.28258e-07
1.28279e-07
1.28272e-07
1.28275e-07
1.28247e-07
1.28246e-07
1.28258e-07
1.28238e-07
1.2825e-07
1.28278e-07
1.28272e-07
1.28258e-07
1.28252e-07
1.28264e-07
1.28299e-07
1.28301e-07
1.28321e-07
1.28343e-07
1.28342e-07
1.28368e-07
1.28401e-07
1.28427e-07
1.28465e-07
1.28516e-07
1.28575e-07
1.28655e-07
1.28819e-07
1.28888e-07
1.30106e-07
1.35084e-07
2.90049e-08
1.24582e-07
1.25548e-07
1.26221e-07
1.26664e-07
1.2698e-07
1.27215e-07
1.27397e-07
1.27541e-07
1.27657e-07
1.27752e-07
1.27832e-07
1.27898e-07
1.27954e-07
1.28002e-07
1.28043e-07
1.28078e-07
1.28109e-07
1.28135e-07
1.2816e-07
1.2818e-07
1.28198e-07
1.28213e-07
1.28227e-07
1.28238e-07
1.28248e-07
1.28258e-07
1.28267e-07
1.28273e-07
1.28281e-07
1.28287e-07
1.28293e-07
1.28296e-07
1.28296e-07
1.28307e-07
1.28314e-07
1.28314e-07
1.28312e-07
1.28319e-07
1.28323e-07
1.2832e-07
1.2832e-07
1.28326e-07
1.28328e-07
1.28308e-07
1.28307e-07
1.28321e-07
1.28327e-07
1.28318e-07
1.28318e-07
1.28304e-07
1.28304e-07
1.283e-07
1.28287e-07
1.28279e-07
1.28278e-07
1.28269e-07
1.28256e-07
1.28266e-07
1.28268e-07
1.28268e-07
1.28268e-07
1.28265e-07
1.28273e-07
1.28256e-07
1.28239e-07
1.28256e-07
1.28278e-07
1.28271e-07
1.28274e-07
1.28247e-07
1.28245e-07
1.28257e-07
1.28237e-07
1.28249e-07
1.28277e-07
1.28272e-07
1.28258e-07
1.28253e-07
1.28264e-07
1.28298e-07
1.28301e-07
1.28321e-07
1.28343e-07
1.28343e-07
1.28369e-07
1.28402e-07
1.28428e-07
1.28467e-07
1.28518e-07
1.28578e-07
1.28658e-07
1.28823e-07
1.2889e-07
1.30137e-07
1.35141e-07
3.03442e-08
1.24574e-07
1.25533e-07
1.26205e-07
1.26648e-07
1.26964e-07
1.272e-07
1.27383e-07
1.27528e-07
1.27645e-07
1.27741e-07
1.27821e-07
1.27888e-07
1.27945e-07
1.27993e-07
1.28035e-07
1.28071e-07
1.28101e-07
1.28128e-07
1.28153e-07
1.28174e-07
1.28192e-07
1.28208e-07
1.28222e-07
1.28233e-07
1.28243e-07
1.28253e-07
1.28262e-07
1.28269e-07
1.28277e-07
1.28283e-07
1.28289e-07
1.28292e-07
1.28292e-07
1.28303e-07
1.2831e-07
1.2831e-07
1.28309e-07
1.28316e-07
1.2832e-07
1.28317e-07
1.28317e-07
1.28323e-07
1.28325e-07
1.28306e-07
1.28304e-07
1.28318e-07
1.28324e-07
1.28316e-07
1.28316e-07
1.28302e-07
1.28302e-07
1.28298e-07
1.28285e-07
1.28277e-07
1.28276e-07
1.28268e-07
1.28254e-07
1.28264e-07
1.28267e-07
1.28267e-07
1.28266e-07
1.28264e-07
1.28272e-07
1.28254e-07
1.28238e-07
1.28255e-07
1.28277e-07
1.28269e-07
1.28273e-07
1.28246e-07
1.28244e-07
1.28256e-07
1.28237e-07
1.28249e-07
1.28277e-07
1.28272e-07
1.28258e-07
1.28253e-07
1.28264e-07
1.28298e-07
1.28301e-07
1.28321e-07
1.28344e-07
1.28344e-07
1.2837e-07
1.28404e-07
1.2843e-07
1.28469e-07
1.28521e-07
1.28581e-07
1.28661e-07
1.28828e-07
1.28891e-07
1.30172e-07
1.35201e-07
3.17511e-08
1.24565e-07
1.25516e-07
1.26186e-07
1.2663e-07
1.26947e-07
1.27184e-07
1.27368e-07
1.27514e-07
1.27632e-07
1.27729e-07
1.2781e-07
1.27877e-07
1.27935e-07
1.27984e-07
1.28027e-07
1.28063e-07
1.28094e-07
1.28121e-07
1.28146e-07
1.28167e-07
1.28186e-07
1.28202e-07
1.28216e-07
1.28228e-07
1.28238e-07
1.28248e-07
1.28258e-07
1.28264e-07
1.28272e-07
1.28278e-07
1.28285e-07
1.28288e-07
1.28288e-07
1.28299e-07
1.28307e-07
1.28307e-07
1.28305e-07
1.28312e-07
1.28316e-07
1.28314e-07
1.28313e-07
1.2832e-07
1.28322e-07
1.28303e-07
1.28301e-07
1.28315e-07
1.28322e-07
1.28313e-07
1.28313e-07
1.283e-07
1.283e-07
1.28296e-07
1.28283e-07
1.28274e-07
1.28274e-07
1.28266e-07
1.28252e-07
1.28262e-07
1.28265e-07
1.28265e-07
1.28264e-07
1.28262e-07
1.2827e-07
1.28253e-07
1.28236e-07
1.28253e-07
1.28276e-07
1.28268e-07
1.28273e-07
1.28246e-07
1.28243e-07
1.28255e-07
1.28237e-07
1.28248e-07
1.28276e-07
1.28272e-07
1.28259e-07
1.28253e-07
1.28264e-07
1.28299e-07
1.28301e-07
1.28322e-07
1.28345e-07
1.28346e-07
1.28372e-07
1.28405e-07
1.28432e-07
1.28471e-07
1.28524e-07
1.28584e-07
1.28664e-07
1.28834e-07
1.28893e-07
1.30211e-07
1.35263e-07
3.32293e-08
1.24556e-07
1.25498e-07
1.26167e-07
1.26611e-07
1.26928e-07
1.27166e-07
1.27351e-07
1.27498e-07
1.27618e-07
1.27716e-07
1.27797e-07
1.27866e-07
1.27924e-07
1.27974e-07
1.28017e-07
1.28054e-07
1.28085e-07
1.28112e-07
1.28139e-07
1.2816e-07
1.28179e-07
1.28195e-07
1.2821e-07
1.28222e-07
1.28233e-07
1.28243e-07
1.28252e-07
1.2826e-07
1.28267e-07
1.28274e-07
1.28281e-07
1.28284e-07
1.28284e-07
1.28295e-07
1.28302e-07
1.28303e-07
1.28301e-07
1.28308e-07
1.28313e-07
1.2831e-07
1.2831e-07
1.28317e-07
1.28319e-07
1.283e-07
1.28298e-07
1.28313e-07
1.28319e-07
1.28311e-07
1.28311e-07
1.28297e-07
1.28297e-07
1.28294e-07
1.2828e-07
1.28272e-07
1.28271e-07
1.28264e-07
1.2825e-07
1.2826e-07
1.28263e-07
1.28263e-07
1.28263e-07
1.2826e-07
1.28268e-07
1.28252e-07
1.28235e-07
1.28252e-07
1.28275e-07
1.28267e-07
1.28272e-07
1.28245e-07
1.28242e-07
1.28255e-07
1.28236e-07
1.28248e-07
1.28276e-07
1.28272e-07
1.28259e-07
1.28254e-07
1.28264e-07
1.28299e-07
1.28302e-07
1.28322e-07
1.28346e-07
1.28347e-07
1.28373e-07
1.28407e-07
1.28435e-07
1.28474e-07
1.28527e-07
1.28588e-07
1.28667e-07
1.2884e-07
1.28896e-07
1.30254e-07
1.35327e-07
3.47827e-08
1.24546e-07
1.25479e-07
1.26145e-07
1.26589e-07
1.26908e-07
1.27147e-07
1.27333e-07
1.27482e-07
1.27602e-07
1.27701e-07
1.27784e-07
1.27853e-07
1.27912e-07
1.27962e-07
1.28007e-07
1.28044e-07
1.28076e-07
1.28104e-07
1.2813e-07
1.28152e-07
1.28171e-07
1.28188e-07
1.28203e-07
1.28215e-07
1.28226e-07
1.28237e-07
1.28247e-07
1.28254e-07
1.28262e-07
1.28269e-07
1.28276e-07
1.28279e-07
1.28279e-07
1.2829e-07
1.28298e-07
1.28299e-07
1.28297e-07
1.28304e-07
1.28309e-07
1.28307e-07
1.28306e-07
1.28313e-07
1.28316e-07
1.28297e-07
1.28295e-07
1.2831e-07
1.28316e-07
1.28308e-07
1.28308e-07
1.28295e-07
1.28295e-07
1.28291e-07
1.28278e-07
1.2827e-07
1.28269e-07
1.28262e-07
1.28248e-07
1.28259e-07
1.28261e-07
1.28261e-07
1.28261e-07
1.28258e-07
1.28267e-07
1.28251e-07
1.28233e-07
1.2825e-07
1.28273e-07
1.28266e-07
1.28272e-07
1.28245e-07
1.28242e-07
1.28254e-07
1.28236e-07
1.28247e-07
1.28275e-07
1.28272e-07
1.28259e-07
1.28254e-07
1.28264e-07
1.28299e-07
1.28303e-07
1.28323e-07
1.28347e-07
1.28349e-07
1.28375e-07
1.2841e-07
1.28437e-07
1.28477e-07
1.2853e-07
1.28592e-07
1.28671e-07
1.28846e-07
1.28898e-07
1.303e-07
1.35393e-07
3.64151e-08
1.24536e-07
1.25458e-07
1.26122e-07
1.26566e-07
1.26886e-07
1.27127e-07
1.27314e-07
1.27464e-07
1.27585e-07
1.27685e-07
1.27769e-07
1.27839e-07
1.279e-07
1.2795e-07
1.27995e-07
1.28033e-07
1.28066e-07
1.28094e-07
1.28122e-07
1.28144e-07
1.28163e-07
1.2818e-07
1.28196e-07
1.28209e-07
1.2822e-07
1.28231e-07
1.28241e-07
1.28248e-07
1.28257e-07
1.28264e-07
1.28271e-07
1.28274e-07
1.28274e-07
1.28285e-07
1.28293e-07
1.28294e-07
1.28293e-07
1.283e-07
1.28305e-07
1.28303e-07
1.28302e-07
1.2831e-07
1.28312e-07
1.28293e-07
1.28292e-07
1.28306e-07
1.28313e-07
1.28305e-07
1.28305e-07
1.28292e-07
1.28292e-07
1.28289e-07
1.28275e-07
1.28268e-07
1.28267e-07
1.2826e-07
1.28246e-07
1.28257e-07
1.28259e-07
1.28259e-07
1.28259e-07
1.28256e-07
1.28265e-07
1.28249e-07
1.28231e-07
1.28249e-07
1.28272e-07
1.28265e-07
1.28272e-07
1.28245e-07
1.28241e-07
1.28253e-07
1.28236e-07
1.28247e-07
1.28275e-07
1.28272e-07
1.2826e-07
1.28255e-07
1.28265e-07
1.283e-07
1.28304e-07
1.28324e-07
1.28348e-07
1.28351e-07
1.28377e-07
1.28412e-07
1.2844e-07
1.28481e-07
1.28533e-07
1.28597e-07
1.28675e-07
1.28853e-07
1.28901e-07
1.3035e-07
1.35461e-07
3.81308e-08
1.24524e-07
1.25435e-07
1.26097e-07
1.26542e-07
1.26862e-07
1.27104e-07
1.27293e-07
1.27444e-07
1.27567e-07
1.27668e-07
1.27753e-07
1.27825e-07
1.27886e-07
1.27938e-07
1.27983e-07
1.28022e-07
1.28055e-07
1.28084e-07
1.28112e-07
1.28135e-07
1.28155e-07
1.28172e-07
1.28188e-07
1.28201e-07
1.28213e-07
1.28224e-07
1.28234e-07
1.28242e-07
1.28251e-07
1.28258e-07
1.28265e-07
1.28269e-07
1.28269e-07
1.2828e-07
1.28288e-07
1.28289e-07
1.28288e-07
1.28295e-07
1.28301e-07
1.28299e-07
1.28298e-07
1.28306e-07
1.28308e-07
1.2829e-07
1.28288e-07
1.28303e-07
1.2831e-07
1.28302e-07
1.28302e-07
1.28289e-07
1.28289e-07
1.28286e-07
1.28272e-07
1.28265e-07
1.28264e-07
1.28257e-07
1.28244e-07
1.28255e-07
1.28257e-07
1.28257e-07
1.28256e-07
1.28253e-07
1.28263e-07
1.28248e-07
1.28229e-07
1.28247e-07
1.28271e-07
1.28264e-07
1.28271e-07
1.28245e-07
1.2824e-07
1.28253e-07
1.28236e-07
1.28247e-07
1.28275e-07
1.28273e-07
1.28261e-07
1.28256e-07
1.28265e-07
1.283e-07
1.28305e-07
1.28325e-07
1.2835e-07
1.28353e-07
1.28379e-07
1.28415e-07
1.28443e-07
1.28484e-07
1.28537e-07
1.28602e-07
1.28679e-07
1.28861e-07
1.28903e-07
1.30404e-07
1.35532e-07
3.99344e-08
1.24512e-07
1.25411e-07
1.2607e-07
1.26515e-07
1.26837e-07
1.2708e-07
1.27271e-07
1.27423e-07
1.27548e-07
1.2765e-07
1.27736e-07
1.27809e-07
1.27871e-07
1.27924e-07
1.2797e-07
1.28009e-07
1.28044e-07
1.28073e-07
1.28102e-07
1.28125e-07
1.28146e-07
1.28163e-07
1.2818e-07
1.28193e-07
1.28205e-07
1.28217e-07
1.28227e-07
1.28236e-07
1.28245e-07
1.28252e-07
1.2826e-07
1.28263e-07
1.28263e-07
1.28275e-07
1.28283e-07
1.28284e-07
1.28283e-07
1.2829e-07
1.28296e-07
1.28294e-07
1.28293e-07
1.28301e-07
1.28305e-07
1.28286e-07
1.28284e-07
1.28299e-07
1.28306e-07
1.28299e-07
1.28299e-07
1.28286e-07
1.28286e-07
1.28283e-07
1.2827e-07
1.28262e-07
1.28261e-07
1.28255e-07
1.28241e-07
1.28252e-07
1.28255e-07
1.28255e-07
1.28254e-07
1.28251e-07
1.28261e-07
1.28247e-07
1.28228e-07
1.28245e-07
1.28269e-07
1.28263e-07
1.28271e-07
1.28244e-07
1.28239e-07
1.28252e-07
1.28236e-07
1.28247e-07
1.28275e-07
1.28273e-07
1.28261e-07
1.28257e-07
1.28265e-07
1.283e-07
1.28306e-07
1.28326e-07
1.28351e-07
1.28356e-07
1.28381e-07
1.28417e-07
1.28446e-07
1.28488e-07
1.28541e-07
1.28607e-07
1.28684e-07
1.28868e-07
1.28906e-07
1.30461e-07
1.35604e-07
4.18301e-08
1.245e-07
1.25386e-07
1.26042e-07
1.26487e-07
1.2681e-07
1.27055e-07
1.27247e-07
1.27401e-07
1.27527e-07
1.27631e-07
1.27718e-07
1.27792e-07
1.27855e-07
1.27909e-07
1.27956e-07
1.27996e-07
1.28031e-07
1.28062e-07
1.28091e-07
1.28114e-07
1.28136e-07
1.28154e-07
1.28171e-07
1.28185e-07
1.28197e-07
1.28209e-07
1.2822e-07
1.28229e-07
1.28238e-07
1.28245e-07
1.28253e-07
1.28257e-07
1.28257e-07
1.28269e-07
1.28277e-07
1.28279e-07
1.28278e-07
1.28285e-07
1.28291e-07
1.28289e-07
1.28288e-07
1.28297e-07
1.283e-07
1.28282e-07
1.2828e-07
1.28295e-07
1.28302e-07
1.28295e-07
1.28295e-07
1.28283e-07
1.28283e-07
1.2828e-07
1.28266e-07
1.28259e-07
1.28259e-07
1.28253e-07
1.28239e-07
1.2825e-07
1.28253e-07
1.28253e-07
1.28252e-07
1.28249e-07
1.28259e-07
1.28245e-07
1.28226e-07
1.28244e-07
1.28268e-07
1.28262e-07
1.2827e-07
1.28244e-07
1.28239e-07
1.28251e-07
1.28236e-07
1.28246e-07
1.28274e-07
1.28273e-07
1.28262e-07
1.28258e-07
1.28266e-07
1.28301e-07
1.28307e-07
1.28327e-07
1.28353e-07
1.28358e-07
1.28384e-07
1.2842e-07
1.2845e-07
1.28492e-07
1.28545e-07
1.28612e-07
1.28689e-07
1.28876e-07
1.28909e-07
1.30522e-07
1.35678e-07
4.38225e-08
1.24487e-07
1.25359e-07
1.26012e-07
1.26457e-07
1.26781e-07
1.27027e-07
1.27221e-07
1.27377e-07
1.27504e-07
1.2761e-07
1.27699e-07
1.27773e-07
1.27838e-07
1.27893e-07
1.27941e-07
1.27982e-07
1.28018e-07
1.28049e-07
1.28079e-07
1.28103e-07
1.28125e-07
1.28144e-07
1.28161e-07
1.28176e-07
1.28188e-07
1.28201e-07
1.28212e-07
1.28221e-07
1.28231e-07
1.28238e-07
1.28247e-07
1.28251e-07
1.28251e-07
1.28262e-07
1.28271e-07
1.28273e-07
1.28272e-07
1.28279e-07
1.28286e-07
1.28284e-07
1.28283e-07
1.28292e-07
1.28296e-07
1.28277e-07
1.28276e-07
1.28291e-07
1.28298e-07
1.28292e-07
1.28292e-07
1.28279e-07
1.28279e-07
1.28277e-07
1.28263e-07
1.28256e-07
1.28255e-07
1.2825e-07
1.28236e-07
1.28248e-07
1.2825e-07
1.28251e-07
1.28249e-07
1.28246e-07
1.28257e-07
1.28244e-07
1.28224e-07
1.28242e-07
1.28266e-07
1.2826e-07
1.2827e-07
1.28244e-07
1.28238e-07
1.2825e-07
1.28236e-07
1.28246e-07
1.28274e-07
1.28274e-07
1.28263e-07
1.28259e-07
1.28266e-07
1.28301e-07
1.28308e-07
1.28328e-07
1.28354e-07
1.28361e-07
1.28386e-07
1.28423e-07
1.28453e-07
1.28496e-07
1.28549e-07
1.28617e-07
1.28694e-07
1.28885e-07
1.28912e-07
1.30585e-07
1.35753e-07
4.59161e-08
1.24473e-07
1.25331e-07
1.2598e-07
1.26425e-07
1.2675e-07
1.26998e-07
1.27193e-07
1.27351e-07
1.2748e-07
1.27587e-07
1.27678e-07
1.27754e-07
1.2782e-07
1.27875e-07
1.27925e-07
1.27967e-07
1.28004e-07
1.28035e-07
1.28066e-07
1.28091e-07
1.28114e-07
1.28133e-07
1.28151e-07
1.28166e-07
1.28179e-07
1.28192e-07
1.28204e-07
1.28213e-07
1.28223e-07
1.28231e-07
1.28239e-07
1.28244e-07
1.28244e-07
1.28255e-07
1.28264e-07
1.28266e-07
1.28266e-07
1.28273e-07
1.2828e-07
1.28279e-07
1.28277e-07
1.28287e-07
1.28291e-07
1.28273e-07
1.28271e-07
1.28286e-07
1.28294e-07
1.28288e-07
1.28288e-07
1.28275e-07
1.28275e-07
1.28274e-07
1.2826e-07
1.28253e-07
1.28252e-07
1.28247e-07
1.28234e-07
1.28245e-07
1.28248e-07
1.28248e-07
1.28246e-07
1.28243e-07
1.28255e-07
1.28242e-07
1.28221e-07
1.28239e-07
1.28264e-07
1.28259e-07
1.28269e-07
1.28244e-07
1.28237e-07
1.28249e-07
1.28235e-07
1.28246e-07
1.28274e-07
1.28274e-07
1.28264e-07
1.2826e-07
1.28267e-07
1.28302e-07
1.28309e-07
1.28329e-07
1.28356e-07
1.28363e-07
1.28389e-07
1.28426e-07
1.28457e-07
1.28501e-07
1.28554e-07
1.28623e-07
1.28699e-07
1.28893e-07
1.28915e-07
1.30651e-07
1.3583e-07
4.8115e-08
1.24459e-07
1.25301e-07
1.25946e-07
1.26391e-07
1.26717e-07
1.26967e-07
1.27164e-07
1.27324e-07
1.27455e-07
1.27563e-07
1.27655e-07
1.27733e-07
1.278e-07
1.27857e-07
1.27907e-07
1.27951e-07
1.27988e-07
1.28021e-07
1.28052e-07
1.28078e-07
1.28101e-07
1.28121e-07
1.2814e-07
1.28155e-07
1.28169e-07
1.28182e-07
1.28194e-07
1.28204e-07
1.28214e-07
1.28223e-07
1.28232e-07
1.28237e-07
1.28236e-07
1.28248e-07
1.28257e-07
1.2826e-07
1.28259e-07
1.28267e-07
1.28274e-07
1.28273e-07
1.28271e-07
1.28281e-07
1.28286e-07
1.28268e-07
1.28266e-07
1.28282e-07
1.28289e-07
1.28283e-07
1.28283e-07
1.28271e-07
1.28271e-07
1.2827e-07
1.28256e-07
1.28249e-07
1.28249e-07
1.28244e-07
1.28231e-07
1.28242e-07
1.28245e-07
1.28245e-07
1.28243e-07
1.2824e-07
1.28252e-07
1.2824e-07
1.28219e-07
1.28237e-07
1.28262e-07
1.28257e-07
1.28268e-07
1.28244e-07
1.28236e-07
1.28248e-07
1.28235e-07
1.28245e-07
1.28273e-07
1.28274e-07
1.28265e-07
1.28261e-07
1.28267e-07
1.28302e-07
1.2831e-07
1.2833e-07
1.28358e-07
1.28366e-07
1.28391e-07
1.28429e-07
1.2846e-07
1.28505e-07
1.28558e-07
1.28629e-07
1.28704e-07
1.28902e-07
1.28918e-07
1.30719e-07
1.35907e-07
5.04231e-08
1.24444e-07
1.2527e-07
1.25911e-07
1.26355e-07
1.26683e-07
1.26934e-07
1.27133e-07
1.27295e-07
1.27427e-07
1.27538e-07
1.27632e-07
1.27711e-07
1.27779e-07
1.27837e-07
1.27889e-07
1.27933e-07
1.27972e-07
1.28006e-07
1.28038e-07
1.28064e-07
1.28088e-07
1.28109e-07
1.28128e-07
1.28144e-07
1.28158e-07
1.28172e-07
1.28185e-07
1.28195e-07
1.28205e-07
1.28214e-07
1.28223e-07
1.28229e-07
1.28229e-07
1.2824e-07
1.2825e-07
1.28253e-07
1.28252e-07
1.2826e-07
1.28267e-07
1.28266e-07
1.28265e-07
1.28275e-07
1.2828e-07
1.28262e-07
1.28261e-07
1.28276e-07
1.28284e-07
1.28279e-07
1.28279e-07
1.28267e-07
1.28267e-07
1.28266e-07
1.28252e-07
1.28246e-07
1.28245e-07
1.2824e-07
1.28227e-07
1.28239e-07
1.28242e-07
1.28242e-07
1.2824e-07
1.28237e-07
1.28249e-07
1.28238e-07
1.28216e-07
1.28234e-07
1.2826e-07
1.28256e-07
1.28267e-07
1.28243e-07
1.28235e-07
1.28247e-07
1.28235e-07
1.28245e-07
1.28273e-07
1.28275e-07
1.28266e-07
1.28262e-07
1.28268e-07
1.28303e-07
1.28311e-07
1.28331e-07
1.28359e-07
1.28368e-07
1.28394e-07
1.28432e-07
1.28464e-07
1.28509e-07
1.28563e-07
1.28635e-07
1.28709e-07
1.2891e-07
1.28921e-07
1.3079e-07
1.35985e-07
5.2844e-08
1.24429e-07
1.25237e-07
1.25873e-07
1.26318e-07
1.26646e-07
1.26899e-07
1.271e-07
1.27264e-07
1.27399e-07
1.27511e-07
1.27606e-07
1.27687e-07
1.27757e-07
1.27816e-07
1.27869e-07
1.27915e-07
1.27954e-07
1.27989e-07
1.28022e-07
1.28049e-07
1.28074e-07
1.28096e-07
1.28115e-07
1.28132e-07
1.28147e-07
1.28161e-07
1.28174e-07
1.28185e-07
1.28196e-07
1.28205e-07
1.28215e-07
1.2822e-07
1.2822e-07
1.28232e-07
1.28242e-07
1.28245e-07
1.28244e-07
1.28252e-07
1.2826e-07
1.28259e-07
1.28258e-07
1.28268e-07
1.28274e-07
1.28257e-07
1.28255e-07
1.28271e-07
1.28279e-07
1.28273e-07
1.28274e-07
1.28262e-07
1.28262e-07
1.28261e-07
1.28247e-07
1.28241e-07
1.28241e-07
1.28237e-07
1.28224e-07
1.28236e-07
1.28239e-07
1.28239e-07
1.28237e-07
1.28233e-07
1.28246e-07
1.28236e-07
1.28214e-07
1.28232e-07
1.28258e-07
1.28254e-07
1.28266e-07
1.28243e-07
1.28234e-07
1.28246e-07
1.28234e-07
1.28244e-07
1.28272e-07
1.28275e-07
1.28266e-07
1.28263e-07
1.28268e-07
1.28303e-07
1.28312e-07
1.28333e-07
1.28361e-07
1.28371e-07
1.28397e-07
1.28436e-07
1.28468e-07
1.28514e-07
1.28567e-07
1.28641e-07
1.28714e-07
1.28919e-07
1.28924e-07
1.30862e-07
1.36064e-07
5.53802e-08
1.24414e-07
1.25203e-07
1.25834e-07
1.26278e-07
1.26608e-07
1.26863e-07
1.27066e-07
1.27231e-07
1.27368e-07
1.27482e-07
1.27579e-07
1.27662e-07
1.27733e-07
1.27794e-07
1.27848e-07
1.27895e-07
1.27936e-07
1.27971e-07
1.28005e-07
1.28034e-07
1.28059e-07
1.28081e-07
1.28102e-07
1.28119e-07
1.28135e-07
1.28149e-07
1.28163e-07
1.28174e-07
1.28185e-07
1.28195e-07
1.28205e-07
1.28211e-07
1.28211e-07
1.28223e-07
1.28233e-07
1.28237e-07
1.28236e-07
1.28244e-07
1.28252e-07
1.28252e-07
1.2825e-07
1.28261e-07
1.28268e-07
1.2825e-07
1.28249e-07
1.28264e-07
1.28273e-07
1.28268e-07
1.28268e-07
1.28257e-07
1.28257e-07
1.28257e-07
1.28243e-07
1.28237e-07
1.28236e-07
1.28233e-07
1.2822e-07
1.28232e-07
1.28235e-07
1.28235e-07
1.28233e-07
1.28229e-07
1.28243e-07
1.28233e-07
1.28211e-07
1.28229e-07
1.28255e-07
1.28251e-07
1.28264e-07
1.28242e-07
1.28232e-07
1.28244e-07
1.28233e-07
1.28243e-07
1.28271e-07
1.28275e-07
1.28267e-07
1.28263e-07
1.28269e-07
1.28303e-07
1.28313e-07
1.28333e-07
1.28362e-07
1.28373e-07
1.28399e-07
1.28439e-07
1.28471e-07
1.28518e-07
1.28572e-07
1.28646e-07
1.28719e-07
1.28927e-07
1.28927e-07
1.30935e-07
1.36142e-07
5.80334e-08
1.24398e-07
1.25168e-07
1.25793e-07
1.26236e-07
1.26567e-07
1.26824e-07
1.27029e-07
1.27197e-07
1.27335e-07
1.27452e-07
1.27551e-07
1.27635e-07
1.27708e-07
1.27771e-07
1.27826e-07
1.27874e-07
1.27916e-07
1.27953e-07
1.27987e-07
1.28017e-07
1.28043e-07
1.28066e-07
1.28087e-07
1.28105e-07
1.28121e-07
1.28136e-07
1.28151e-07
1.28162e-07
1.28174e-07
1.28184e-07
1.28195e-07
1.28201e-07
1.28201e-07
1.28213e-07
1.28224e-07
1.28228e-07
1.28228e-07
1.28236e-07
1.28244e-07
1.28244e-07
1.28242e-07
1.28254e-07
1.28261e-07
1.28244e-07
1.28242e-07
1.28258e-07
1.28267e-07
1.28262e-07