/*--------------------------------*- C++ -*----------------------------------*\
| =========                 |                                                 |
| \\      /  F ield         | OpenFOAM: The Open Source CFD Toolbox           |
|  \\    /   O peration     | Version:  v2012                                 |
|   \\  /    A nd           | Website:  www.openfoam.com                      |
|    \\/     M anipulation  |                                                 |
\*---------------------------------------------------------------------------*/
FoamFile
{
    version     2.0;
    format      ascii;
    class       volScalarField;
    location    "8";
    object      omega;
}
// * * * * * * * * * * * * * * * * * * * * * * * * * * * * * * * * * * * * * //

dimensions      [0 0 -1 0 0 0 0];


internalField   nonuniform List<scalar> 
209825
(
8268.51
7949.17
7807.79
7731.75
7684.17
7652.3
7629.37
7612.59
7599.63
7589.7
7581.67
7575.35
7570.05
7565.82
7562.16
7559.22
7556.62
7554.53
7552.61
7551.09
7549.62
7548.51
7547.52
7546.72
7545.75
7545.15
7544.62
7544.2
7543.58
7543.31
7542.99
7542.83
7542.65
7542.49
7542.1
7542.16
7542.16
7542.13
7541.97
7542.21
7542.21
7542.41
7542.36
7543.54
7543.62
7543.62
7543.62
7544.15
7544.14
7545.07
7545.06
7546.32
7547.09
7547.6
7547.6
7548.58
7549.38
7549.87
7550.22
7550.23
7550.22
7551.45
7551.45
7552.52
7553.41
7553.41
7553.41
7554.71
7554.71
7556.3
7557.51
7558.33
7559.83
7560.01
7560.01
7561.5
7562.36
7563.81
7565
7565
7566.67
7567.67
7568.71
7571.07
7572.5
7574.31
7576.74
7579.36
7582.66
7586.62
7590.78
7600.17
7602.95
7655.98
7882.22
117026
8268.49
7949.08
7807.63
7731.56
7683.95
7652.06
7629.11
7612.32
7599.35
7589.41
7581.37
7575.04
7569.74
7565.51
7561.85
7558.91
7556.3
7554.2
7552.28
7550.77
7549.3
7548.18
7547.19
7546.39
7545.42
7544.82
7544.29
7543.87
7543.25
7542.97
7542.66
7542.5
7542.32
7542.15
7541.76
7541.82
7541.82
7541.79
7541.63
7541.87
7541.87
7542.07
7542.02
7543.2
7543.28
7543.28
7543.28
7543.81
7543.81
7544.73
7544.72
7545.98
7546.75
7547.26
7547.26
7548.24
7549.04
7549.53
7549.88
7549.89
7549.88
7551.11
7551.11
7552.18
7553.07
7553.07
7553.07
7554.37
7554.37
7555.96
7557.17
7557.99
7559.49
7559.68
7559.68
7561.17
7562.02
7563.47
7564.66
7564.66
7566.33
7567.34
7568.38
7570.74
7572.16
7573.98
7576.41
7579.03
7582.33
7586.29
7590.45
7599.84
7602.62
7655.75
7882.13
113733
8268.41
7948.71
7807.07
7730.86
7683.17
7651.21
7628.21
7611.38
7598.38
7588.42
7580.36
7574.02
7568.7
7564.46
7560.79
7557.84
7555.22
7553.12
7551.19
7549.67
7548.2
7547.08
7546.08
7545.28
7544.3
7543.71
7543.17
7542.75
7542.13
7541.85
7541.53
7541.37
7541.19
7541.02
7540.63
7540.69
7540.69
7540.66
7540.5
7540.73
7540.73
7540.94
7540.88
7542.06
7542.15
7542.15
7542.14
7542.67
7542.67
7543.59
7543.59
7544.84
7545.61
7546.12
7546.12
7547.1
7547.9
7548.39
7548.74
7548.75
7548.74
7549.97
7549.97
7551.04
7551.93
7551.93
7551.93
7553.23
7553.23
7554.82
7556.03
7556.85
7558.36
7558.54
7558.54
7560.03
7560.89
7562.34
7563.54
7563.54
7565.2
7566.21
7567.25
7569.62
7571.04
7572.86
7575.29
7577.91
7581.22
7585.18
7589.34
7598.74
7601.5
7654.86
7881.53
109954
8268.26
7948.07
7806.09
7729.66
7681.82
7649.75
7626.67
7609.77
7596.72
7586.72
7578.63
7572.26
7566.92
7562.65
7558.96
7556
7553.37
7551.26
7549.32
7547.79
7546.31
7545.19
7544.18
7543.37
7542.39
7541.79
7541.25
7540.83
7540.2
7539.92
7539.6
7539.44
7539.25
7539.09
7538.69
7538.75
7538.75
7538.72
7538.56
7538.79
7538.79
7538.99
7538.93
7540.11
7540.19
7540.19
7540.19
7540.71
7540.71
7541.63
7541.63
7542.89
7543.65
7544.16
7544.16
7545.14
7545.94
7546.43
7546.79
7546.79
7546.79
7548.02
7548.02
7549.09
7549.98
7549.98
7549.98
7551.28
7551.28
7552.87
7554.08
7554.9
7556.41
7556.6
7556.6
7558.09
7558.95
7560.4
7561.6
7561.6
7563.27
7564.28
7565.32
7567.69
7569.12
7570.94
7573.37
7576
7579.3
7583.28
7587.43
7596.84
7599.57
7653.28
7880.42
106070
8268.05
7947.15
7804.69
7727.95
7679.89
7647.66
7624.46
7607.48
7594.36
7584.3
7576.15
7569.74
7564.37
7560.07
7556.36
7553.38
7550.73
7548.6
7546.65
7545.11
7543.62
7542.48
7541.47
7540.66
7539.67
7539.06
7538.52
7538.09
7537.46
7537.18
7536.85
7536.68
7536.5
7536.33
7535.93
7535.99
7535.98
7535.95
7535.78
7536.01
7536.01
7536.21
7536.15
7537.33
7537.41
7537.41
7537.4
7537.93
7537.93
7538.84
7538.84
7540.1
7540.86
7541.37
7541.37
7542.35
7543.16
7543.64
7544
7544
7544
7545.23
7545.23
7546.3
7547.2
7547.2
7547.2
7548.5
7548.5
7550.09
7551.31
7552.13
7553.63
7553.83
7553.83
7555.31
7556.18
7557.63
7558.84
7558.84
7560.51
7561.53
7562.57
7564.93
7566.37
7568.2
7570.63
7573.26
7576.57
7580.55
7584.7
7594.14
7596.82
7651
7878.78
102186
8267.77
7945.95
7802.87
7725.72
7677.38
7644.95
7621.59
7604.49
7591.27
7581.13
7572.93
7566.46
7561.05
7556.71
7552.97
7549.96
7547.29
7545.14
7543.17
7541.62
7540.11
7538.96
7537.93
7537.11
7536.12
7535.5
7534.95
7534.51
7533.88
7533.59
7533.26
7533.09
7532.9
7532.73
7532.33
7532.38
7532.37
7532.34
7532.16
7532.39
7532.39
7532.59
7532.52
7533.7
7533.78
7533.78
7533.77
7534.29
7534.29
7535.2
7535.2
7536.46
7537.23
7537.73
7537.73
7538.71
7539.52
7540
7540.36
7540.37
7540.36
7541.6
7541.6
7542.66
7543.57
7543.57
7543.57
7544.87
7544.87
7546.46
7547.68
7548.5
7550.01
7550.21
7550.21
7551.7
7552.57
7554.01
7555.24
7555.24
7556.9
7557.93
7558.98
7561.34
7562.78
7564.62
7567.05
7569.69
7573
7577
7581.13
7590.61
7593.23
7648.03
7876.57
98341.2
8267.42
7944.47
7800.61
7722.96
7674.27
7641.58
7618.04
7600.78
7587.45
7577.22
7568.93
7562.4
7556.93
7552.55
7548.77
7545.72
7543.02
7540.85
7538.86
7537.29
7535.76
7534.6
7533.56
7532.72
7531.72
7531.09
7530.53
7530.09
7529.44
7529.15
7528.82
7528.64
7528.44
7528.27
7527.86
7527.91
7527.9
7527.86
7527.68
7527.91
7527.91
7528.1
7528.03
7529.2
7529.28
7529.28
7529.27
7529.79
7529.79
7530.7
7530.7
7531.96
7532.72
7533.23
7533.22
7534.21
7535.01
7535.49
7535.86
7535.86
7535.86
7537.1
7537.1
7538.16
7539.07
7539.07
7539.07
7540.37
7540.37
7541.96
7543.19
7544.01
7545.52
7545.73
7545.73
7547.22
7548.09
7549.54
7550.78
7550.78
7552.44
7553.49
7554.53
7556.89
7558.35
7560.18
7562.62
7565.27
7568.57
7572.6
7576.72
7586.23
7588.79
7644.33
7873.74
94554.8
8267.02
7942.71
7797.92
7719.67
7670.56
7637.57
7613.79
7596.36
7582.88
7572.54
7564.16
7557.55
7552.01
7547.58
7543.75
7540.66
7537.93
7535.73
7533.71
7532.11
7530.56
7529.38
7528.33
7527.48
7526.46
7525.82
7525.25
7524.79
7524.14
7523.84
7523.5
7523.31
7523.11
7522.94
7522.53
7522.57
7522.56
7522.51
7522.33
7522.55
7522.55
7522.73
7522.66
7523.83
7523.91
7523.91
7523.9
7524.41
7524.41
7525.32
7525.32
7526.57
7527.34
7527.84
7527.84
7528.82
7529.63
7530.1
7530.48
7530.48
7530.47
7531.73
7531.73
7532.77
7533.69
7533.69
7533.69
7535
7535
7536.59
7537.82
7538.64
7540.15
7540.37
7540.37
7541.86
7542.74
7544.19
7545.44
7545.44
7547.11
7548.16
7549.21
7551.57
7553.04
7554.88
7557.32
7559.99
7563.28
7567.33
7571.44
7581
7583.46
7639.92
7870.19
90835.2
8266.55
7940.66
7794.8
7715.83
7666.23
7632.89
7608.84
7591.2
7577.56
7567.08
7558.59
7551.89
7546.28
7541.78
7537.9
7534.76
7531.99
7529.75
7527.7
7526.07
7524.5
7523.3
7522.22
7521.36
7520.33
7519.67
7519.09
7518.62
7517.96
7517.65
7517.3
7517.1
7516.9
7516.71
7516.3
7516.34
7516.32
7516.27
7516.08
7516.29
7516.29
7516.47
7516.39
7517.56
7517.64
7517.63
7517.62
7518.13
7518.13
7519.03
7519.03
7520.28
7521.06
7521.55
7521.55
7522.54
7523.34
7523.81
7524.19
7524.19
7524.19
7525.45
7525.45
7526.49
7527.42
7527.42
7527.42
7528.72
7528.72
7530.31
7531.55
7532.38
7533.89
7534.12
7534.12
7535.61
7536.5
7537.94
7539.21
7539.22
7540.88
7541.95
7543
7545.36
7546.84
7548.69
7551.13
7553.81
7557.11
7561.18
7565.27
7574.89
7577.25
7634.76
7865.81
87184.8
8266.02
7938.33
7791.23
7711.45
7661.29
7627.54
7603.18
7585.3
7571.47
7560.83
7552.22
7545.41
7539.71
7535.14
7531.19
7528
7525.18
7522.9
7520.81
7519.16
7517.56
7516.33
7515.23
7514.35
7513.3
7512.63
7512.03
7511.55
7510.88
7510.56
7510.19
7509.99
7509.78
7509.59
7509.17
7509.2
7509.18
7509.12
7508.92
7509.13
7509.13
7509.3
7509.22
7510.37
7510.45
7510.45
7510.44
7510.94
7510.94
7511.83
7511.83
7513.08
7513.86
7514.34
7514.34
7515.34
7516.14
7516.6
7516.99
7516.99
7516.99
7518.26
7518.26
7519.29
7520.23
7520.23
7520.23
7521.54
7521.54
7523.13
7524.37
7525.2
7526.72
7526.96
7526.96
7528.44
7529.34
7530.79
7532.07
7532.09
7533.75
7534.84
7535.88
7538.25
7539.73
7541.6
7544.04
7546.74
7550.03
7554.13
7558.21
7567.88
7570.13
7628.85
7860.54
83601.5
8265.44
7935.72
7787.22
7706.52
7655.72
7621.5
7596.8
7578.64
7564.59
7553.78
7545.03
7538.1
7532.3
7527.64
7523.62
7520.37
7517.49
7515.17
7513.04
7511.35
7509.72
7508.46
7507.33
7506.43
7505.36
7504.67
7504.05
7503.56
7502.88
7502.54
7502.17
7501.96
7501.73
7501.54
7501.12
7501.13
7501.11
7501.05
7500.83
7501.04
7501.04
7501.2
7501.11
7502.26
7502.33
7502.33
7502.32
7502.81
7502.81
7503.7
7503.7
7504.95
7505.73
7506.21
7506.21
7507.2
7508.01
7508.45
7508.86
7508.86
7508.86
7510.13
7510.14
7511.16
7512.11
7512.11
7512.11
7513.42
7513.42
7515.01
7516.26
7517.09
7518.61
7518.87
7518.87
7520.35
7521.26
7522.7
7524.01
7524.03
7525.69
7526.8
7527.84
7530.21
7531.71
7533.59
7536.03
7538.75
7542.03
7546.17
7550.22
7559.96
7562.08
7622.18
7854.37
80079.2
8264.79
7932.82
7782.76
7701.03
7649.52
7614.78
7589.68
7571.22
7556.93
7545.92
7537
7529.94
7524.03
7519.28
7515.18
7511.85
7508.92
7506.54
7504.36
7502.63
7500.96
7499.68
7498.52
7497.59
7496.5
7495.79
7495.15
7494.65
7493.95
7493.6
7493.21
7492.99
7492.75
7492.55
7492.12
7492.13
7492.1
7492.03
7491.8
7492
7492
7492.15
7492.05
7493.2
7493.27
7493.27
7493.26
7493.74
7493.74
7494.62
7494.62
7495.87
7496.65
7497.12
7497.12
7498.12
7498.93
7499.36
7499.78
7499.78
7499.79
7501.06
7501.08
7502.07
7503.04
7503.04
7503.04
7504.35
7504.36
7505.94
7507.2
7508.04
7509.56
7509.83
7509.83
7511.32
7512.23
7513.68
7515
7515.03
7516.69
7517.82
7518.86
7521.23
7522.75
7524.64
7527.08
7529.82
7533.1
7537.27
7541.3
7551.1
7553.09
7614.72
7847.27
76608.6
8264.09
7929.64
7777.85
7694.99
7642.68
7607.36
7581.82
7563.02
7548.46
7537.23
7528.13
7520.93
7514.89
7510.03
7505.84
7502.44
7499.43
7497
7494.77
7492.99
7491.29
7489.96
7488.77
7487.82
7486.7
7485.97
7485.31
7484.78
7484.07
7483.71
7483.31
7483.07
7482.82
7482.61
7482.18
7482.17
7482.13
7482.05
7481.81
7482.01
7482.01
7482.15
7482.04
7483.18
7483.24
7483.24
7483.23
7483.7
7483.7
7484.58
7484.58
7485.82
7486.6
7487.07
7487.07
7488.07
7488.88
7489.3
7489.73
7489.73
7489.74
7491.02
7491.05
7492.03
7493.01
7493.01
7493.01
7494.32
7494.33
7495.91
7497.18
7498.02
7499.54
7499.83
7499.83
7501.32
7502.24
7503.69
7505.03
7505.08
7506.73
7507.88
7508.92
7511.3
7512.83
7514.74
7517.18
7519.94
7523.21
7527.42
7531.42
7541.3
7543.14
7606.48
7839.24
73196.3
8263.34
7926.18
7772.49
7688.37
7635.19
7599.24
7573.22
7554.04
7539.17
7527.71
7518.41
7511.04
7504.86
7499.89
7495.59
7492.11
7489.03
7486.53
7484.24
7482.42
7480.67
7479.3
7478.08
7477.09
7475.95
7475.19
7474.51
7473.96
7473.23
7472.85
7472.43
7472.18
7471.92
7471.7
7471.26
7471.24
7471.19
7471.11
7470.85
7471.04
7471.04
7471.17
7471.05
7472.18
7472.24
7472.24
7472.22
7472.69
7472.69
7473.56
7473.56
7474.79
7475.58
7476.04
7476.04
7477.05
7477.85
7478.26
7478.7
7478.7
7478.72
7480.01
7480.04
7481
7482
7482
7482
7483.32
7483.32
7484.9
7486.18
7487.02
7488.55
7488.86
7488.86
7490.34
7491.28
7492.72
7494.09
7494.15
7495.8
7496.97
7498.01
7500.39
7501.94
7503.86
7506.3
7509.09
7512.36
7516.6
7520.58
7530.54
7532.2
7597.42
7830.26
69848.2
8262.54
7922.45
7766.69
7681.19
7627.06
7590.4
7563.85
7544.26
7529.07
7517.33
7507.82
7500.27
7493.94
7488.84
7484.43
7480.85
7477.69
7475.12
7472.77
7470.89
7469.09
7467.68
7466.42
7465.4
7464.23
7463.44
7462.73
7462.16
7461.41
7461.01
7460.58
7460.31
7460.03
7459.81
7459.36
7459.33
7459.26
7459.17
7458.9
7459.08
7459.08
7459.2
7459.06
7460.19
7460.24
7460.24
7460.23
7460.68
7460.68
7461.54
7461.54
7462.77
7463.56
7464.01
7464.01
7465.02
7465.82
7466.22
7466.68
7466.68
7466.7
7467.99
7468.03
7468.97
7469.99
7469.99
7469.99
7471.31
7471.31
7472.89
7474.19
7475.03
7476.56
7476.89
7476.89
7478.37
7479.32
7480.76
7482.15
7482.23
7483.87
7485.07
7486.11
7488.49
7490.06
7492
7494.44
7497.25
7500.51
7504.8
7508.75
7518.79
7520.28
7587.53
7820.3
66570
8261.7
7918.43
7760.43
7673.44
7618.26
7580.84
7553.72
7533.68
7518.13
7506.1
7496.35
7488.6
7482.11
7476.86
7472.34
7468.66
7465.41
7462.75
7460.34
7458.4
7456.54
7455.09
7453.78
7452.72
7451.52
7450.7
7449.96
7449.37
7448.6
7448.18
7447.73
7447.44
7447.15
7446.91
7446.46
7446.41
7446.33
7446.23
7445.95
7446.11
7446.11
7446.22
7446.07
7447.18
7447.23
7447.23
7447.22
7447.65
7447.65
7448.5
7448.5
7449.73
7450.52
7450.96
7450.96
7451.98
7452.78
7453.17
7453.64
7453.64
7453.66
7454.96
7455.02
7455.93
7456.97
7456.97
7456.97
7458.3
7458.29
7459.87
7461.18
7462.03
7463.56
7463.91
7463.91
7465.39
7466.35
7467.79
7469.21
7469.3
7470.94
7472.16
7473.21
7475.59
7477.17
7479.13
7481.58
7484.41
7487.66
7492
7495.91
7506.04
7507.34
7576.79
7809.34
63366.8
8260.8
7914.14
7753.72
7665.11
7608.81
7570.56
7542.81
7522.28
7506.34
7494.01
7484
7476.03
7469.36
7463.96
7459.3
7455.51
7452.16
7449.42
7446.93
7444.93
7443.01
7441.51
7440.15
7439.06
7437.82
7436.96
7436.19
7435.58
7434.78
7434.34
7433.86
7433.56
7433.25
7433
7432.53
7432.47
7432.38
7432.27
7431.97
7432.13
7432.13
7432.21
7432.05
7433.15
7433.2
7433.2
7433.18
7433.61
7433.6
7434.44
7434.44
7435.66
7436.46
7436.89
7436.89
7437.91
7438.71
7439.08
7439.57
7439.56
7439.6
7440.9
7440.97
7441.85
7442.91
7442.92
7442.91
7444.25
7444.25
7445.82
7447.14
7447.99
7449.53
7449.9
7449.9
7451.38
7452.36
7453.8
7455.24
7455.35
7456.98
7458.23
7459.28
7461.66
7463.26
7465.25
7467.69
7470.55
7473.79
7478.18
7482.06
7492.26
7493.38
7565.19
7797.36
60243.6
8259.87
7909.59
7746.57
7656.21
7598.69
7559.55
7531.12
7510.06
7493.7
7481.03
7470.74
7462.54
7455.67
7450.11
7445.31
7441.4
7437.94
7435.11
7432.54
7430.46
7428.49
7426.93
7425.52
7424.38
7423.1
7422.21
7421.4
7420.76
7419.94
7419.47
7418.97
7418.65
7418.32
7418.06
7417.58
7417.5
7417.4
7417.28
7416.96
7417.1
7417.1
7417.17
7416.99
7418.08
7418.12
7418.12
7418.1
7418.51
7418.51
7419.34
7419.34
7420.55
7421.35
7421.77
7421.77
7422.8
7423.59
7423.95
7424.45
7424.45
7424.49
7425.8
7425.88
7426.73
7427.82
7427.82
7427.82
7429.16
7429.16
7430.73
7432.06
7432.92
7434.45
7434.85
7434.85
7436.33
7437.32
7438.76
7440.22
7440.36
7441.98
7443.27
7444.31
7446.69
7448.32
7450.32
7452.76
7455.65
7458.88
7463.32
7467.16
7477.45
7478.36
7552.7
7784.35
57204.8
8258.9
7904.77
7738.96
7646.74
7587.91
7547.81
7518.65
7497.02
7480.21
7467.16
7456.57
7448.13
7441.04
7435.3
7430.35
7426.3
7422.73
7419.8
7417.15
7414.99
7412.95
7411.33
7409.87
7408.68
7407.36
7406.43
7405.58
7404.91
7404.06
7403.57
7403.04
7402.7
7402.35
7402.08
7401.58
7401.49
7401.36
7401.23
7400.9
7401.03
7401.03
7401.08
7400.87
7401.96
7401.99
7401.99
7401.97
7402.37
7402.36
7403.18
7403.17
7404.38
7405.18
7405.59
7405.59
7406.62
7407.42
7407.75
7408.27
7408.27
7408.32
7409.63
7409.74
7410.55
7411.66
7411.66
7411.66
7413
7413
7414.57
7415.91
7416.78
7418.31
7418.74
7418.74
7420.22
7421.22
7422.66
7424.15
7424.32
7425.93
7427.24
7428.29
7430.67
7432.32
7434.34
7436.78
7439.7
7442.92
7447.41
7451.21
7461.59
7462.29
7539.29
7770.28
54254.6
8257.9
7899.69
7730.92
7636.69
7576.46
7535.33
7505.38
7483.14
7465.84
7452.4
7441.49
7432.77
7425.46
7419.53
7414.41
7410.22
7406.53
7403.49
7400.74
7398.5
7396.39
7394.7
7393.18
7391.94
7390.57
7389.6
7388.72
7388.01
7387.14
7386.61
7386.06
7385.7
7385.32
7385.03
7384.52
7384.41
7384.27
7384.13
7383.77
7383.89
7383.89
7383.92
7383.69
7384.76
7384.79
7384.79
7384.77
7385.15
7385.14
7385.94
7385.94
7387.14
7387.94
7388.34
7388.34
7389.37
7390.16
7390.48
7391.02
7391.02
7391.08
7392.39
7392.52
7393.29
7394.42
7394.43
7394.43
7395.78
7395.78
7397.34
7398.7
7399.57
7401.1
7401.56
7401.56
7403.03
7404.05
7405.49
7407
7407.2
7408.8
7410.15
7411.2
7413.58
7415.24
7417.29
7419.73
7422.68
7425.88
7430.43
7434.19
7444.65
7445.14
7524.95
7755.12
51396.7
8256.86
7894.35
7722.43
7626.07
7564.34
7522.1
7491.32
7468.43
7450.6
7436.74
7425.48
7416.47
7408.92
7402.78
7397.49
7393.14
7389.32
7386.17
7383.31
7380.98
7378.79
7377.03
7375.45
7374.15
7372.74
7371.72
7370.79
7370.05
7369.14
7368.58
7368.01
7367.62
7367.22
7366.91
7366.39
7366.25
7366.09
7365.94
7365.57
7365.67
7365.66
7365.67
7365.43
7366.48
7366.5
7366.5
7366.48
7366.84
7366.83
7367.62
7367.61
7368.8
7369.61
7369.99
7369.99
7371.03
7371.82
7372.11
7372.67
7372.67
7372.75
7374.06
7374.21
7374.94
7376.1
7376.11
7376.11
7377.46
7377.46
7379.02
7380.39
7381.27
7382.8
7383.29
7383.28
7384.76
7385.8
7387.23
7388.77
7389
7390.59
7391.96
7393.02
7395.4
7397.09
7399.16
7401.59
7404.58
7407.76
7412.37
7416.08
7426.62
7426.89
7509.64
7738.85
48634.5
8255.8
7888.77
7713.51
7614.88
7551.55
7508.14
7476.46
7452.86
7434.48
7420.17
7408.53
7399.21
7391.4
7385.04
7379.56
7375.05
7371.08
7367.81
7364.85
7362.42
7360.15
7358.31
7356.66
7355.3
7353.84
7352.77
7351.8
7351.02
7350.07
7349.48
7348.87
7348.46
7348.03
7347.7
7347.16
7347.01
7346.83
7346.67
7346.27
7346.36
7346.35
7346.33
7346.06
7347.1
7347.12
7347.11
7347.09
7347.44
7347.42
7348.19
7348.19
7349.37
7350.17
7350.54
7350.54
7351.59
7352.37
7352.64
7353.22
7353.22
7353.31
7354.63
7354.79
7355.48
7356.68
7356.68
7356.68
7358.03
7358.04
7359.6
7360.97
7361.86
7363.39
7363.91
7363.91
7365.38
7366.43
7367.87
7369.43
7369.7
7371.27
7372.68
7373.73
7376.12
7377.82
7379.92
7382.35
7385.37
7388.53
7393.2
7396.87
7407.48
7407.54
7493.34
7721.43
45971.1
8254.72
7882.94
7704.15
7603.12
7538.09
7493.42
7460.79
7436.45
7417.47
7402.67
7390.64
7380.99
7372.9
7366.3
7360.62
7355.94
7351.82
7348.41
7345.33
7342.81
7340.44
7338.52
7336.8
7335.38
7333.86
7332.74
7331.72
7330.9
7329.91
7329.29
7328.65
7328.2
7327.75
7327.4
7326.84
7326.66
7326.46
7326.28
7325.87
7325.94
7325.92
7325.89
7325.59
7326.6
7326.62
7326.62
7326.59
7326.92
7326.89
7327.65
7327.64
7328.81
7329.62
7329.98
7329.98
7331.03
7331.8
7332.04
7332.65
7332.65
7332.75
7334.07
7334.26
7334.9
7336.13
7336.14
7336.13
7337.49
7337.49
7339.05
7340.44
7341.34
7342.86
7343.42
7343.41
7344.88
7345.95
7347.38
7348.97
7349.28
7350.84
7352.28
7353.34
7355.72
7357.45
7359.57
7362
7365.05
7368.19
7372.91
7376.54
7387.21
7387.06
7476.02
7702.85
43409.1
8253.62
7876.89
7694.38
7590.79
7523.96
7477.96
7444.31
7419.18
7399.57
7384.26
7371.8
7361.8
7353.41
7346.56
7340.66
7335.8
7331.51
7327.97
7324.76
7322.13
7319.66
7317.66
7315.86
7314.37
7312.79
7311.61
7310.54
7309.67
7308.65
7307.99
7307.31
7306.83
7306.35
7305.98
7305.4
7305.19
7304.97
7304.78
7304.35
7304.4
7304.38
7304.32
7303.99
7304.98
7304.99
7304.99
7304.96
7305.27
7305.24
7305.98
7305.97
7307.13
7307.94
7308.28
7308.28
7309.34
7310.1
7310.32
7310.95
7310.95
7311.06
7312.38
7312.6
7313.19
7314.44
7314.46
7314.45
7315.82
7315.82
7317.37
7318.77
7319.68
7321.2
7321.79
7321.78
7323.25
7324.34
7325.77
7327.37
7327.73
7329.28
7330.75
7331.81
7334.19
7335.94
7338.09
7340.51
7343.6
7346.71
7351.5
7355.07
7365.81
7365.44
7457.64
7683.05
40950.8
8252.51
7870.6
7684.18
7577.9
7509.16
7461.75
7427.03
7401.06
7380.77
7364.91
7352.01
7341.63
7332.93
7325.81
7319.68
7314.62
7310.16
7306.46
7303.13
7300.38
7297.81
7295.72
7293.82
7292.27
7290.62
7289.38
7288.25
7287.34
7286.28
7285.57
7284.86
7284.35
7283.83
7283.44
7282.83
7282.6
7282.36
7282.15
7281.7
7281.73
7281.69
7281.62
7281.25
7282.23
7282.23
7282.23
7282.2
7282.48
7282.45
7283.16
7283.16
7284.3
7285.11
7285.44
7285.43
7286.5
7287.26
7287.44
7288.1
7288.1
7288.23
7289.55
7289.79
7290.32
7291.61
7291.63
7291.62
7292.99
7293
7294.55
7295.95
7296.87
7298.39
7299.01
7299.01
7300.48
7301.58
7303.01
7304.63
7305.04
7306.56
7308.07
7309.13
7311.51
7313.28
7315.46
7317.87
7320.99
7324.09
7328.93
7332.45
7343.26
7342.66
7438.18
7662.02
38598.1
8251.39
7864.1
7673.58
7564.46
7493.7
7444.8
7408.94
7382.07
7361.07
7344.64
7331.25
7320.48
7311.44
7304.04
7297.66
7292.39
7287.75
7283.89
7280.41
7277.54
7274.86
7272.67
7270.69
7269.06
7267.34
7266.04
7264.85
7263.89
7262.78
7262.03
7261.27
7260.73
7260.18
7259.76
7259.13
7258.87
7258.6
7258.38
7257.91
7257.91
7257.87
7257.77
7257.37
7258.32
7258.32
7258.32
7258.28
7258.55
7258.5
7259.19
7259.19
7260.32
7261.13
7261.43
7261.43
7262.5
7263.25
7263.41
7264.09
7264.09
7264.24
7265.56
7265.82
7266.3
7267.62
7267.64
7267.64
7269.01
7269.02
7270.56
7271.98
7272.91
7274.42
7275.08
7275.07
7276.54
7277.66
7279.08
7280.73
7281.18
7282.69
7284.23
7285.3
7287.68
7289.46
7291.67
7294.07
7297.23
7300.3
7305.2
7308.67
7319.54
7318.71
7417.6
7639.71
36352.7
8250.26
7857.4
7662.57
7550.46
7477.58
7427.11
7390.04
7362.23
7340.48
7323.42
7309.53
7298.34
7288.94
7281.24
7274.6
7269.1
7264.27
7260.24
7256.62
7253.61
7250.82
7248.52
7246.44
7244.73
7242.94
7241.57
7240.32
7239.3
7238.15
7237.35
7236.55
7235.97
7235.38
7234.93
7234.28
7233.99
7233.69
7233.46
7232.97
7232.95
7232.88
7232.76
7232.33
7233.25
7233.25
7233.25
7233.2
7233.45
7233.39
7234.06
7234.06
7235.17
7235.98
7236.27
7236.27
7237.34
7238.07
7238.2
7238.91
7238.91
7239.08
7240.39
7240.68
7241.1
7242.46
7242.48
7242.48
7243.86
7243.86
7245.4
7246.83
7247.77
7249.27
7249.97
7249.97
7251.43
7252.56
7253.99
7255.65
7256.16
7257.65
7259.22
7260.29
7262.67
7264.47
7266.71
7269.1
7272.3
7275.34
7280.29
7283.71
7294.63
7293.58
7395.86
7616.07
34215.7
8249.14
7850.5
7651.17
7535.93
7460.81
7408.67
7370.33
7341.52
7318.97
7301.27
7286.84
7275.21
7265.43
7257.4
7250.49
7244.76
7239.72
7235.51
7231.73
7228.58
7225.66
7223.26
7221.08
7219.28
7217.41
7215.97
7214.65
7213.58
7212.37
7211.52
7210.68
7210.05
7209.43
7208.95
7208.27
7207.95
7207.62
7207.37
7206.86
7206.81
7206.72
7206.59
7206.12
7207
7207
7207
7206.95
7207.17
7207.1
7207.75
7207.75
7208.84
7209.65
7209.92
7209.92
7210.99
7211.71
7211.82
7212.55
7212.55
7212.74
7214.05
7214.35
7214.73
7216.11
7216.14
7216.14
7217.52
7217.52
7219.06
7220.49
7221.45
7222.94
7223.67
7223.68
7225.13
7226.28
7227.71
7229.39
7229.95
7231.42
7233.02
7234.1
7236.48
7238.29
7240.56
7242.94
7246.17
7249.18
7254.2
7257.56
7268.53
7267.25
7372.92
7591.06
32188.2
8248.02
7843.41
7639.4
7520.86
7443.39
7389.5
7349.82
7319.96
7296.57
7278.18
7263.19
7251.07
7240.9
7232.54
7225.34
7219.35
7214.09
7209.69
7205.74
7202.45
7199.4
7196.87
7194.59
7192.7
7190.75
7189.23
7187.83
7186.7
7185.44
7184.54
7183.64
7182.98
7182.31
7181.8
7181.09
7180.74
7180.38
7180.11
7179.58
7179.5
7179.39
7179.23
7178.73
7179.58
7179.58
7179.58
7179.52
7179.72
7179.63
7180.25
7180.26
7181.32
7182.13
7182.38
7182.38
7183.46
7184.16
7184.24
7184.99
7184.99
7185.2
7186.5
7186.83
7187.15
7188.56
7188.6
7188.6
7189.99
7189.99
7191.52
7192.96
7193.93
7195.41
7196.18
7196.19
7197.64
7198.81
7200.23
7201.93
7202.54
7204
7205.63
7206.72
7209.09
7210.91
7213.21
7215.58
7218.85
7221.83
7226.9
7230.2
7241.22
7239.71
7348.76
7564.64
30270.8
8246.91
7836.15
7627.25
7505.27
7425.32
7369.6
7328.51
7297.54
7273.26
7254.15
7238.56
7225.95
7215.35
7206.63
7199.12
7192.87
7187.37
7182.78
7178.65
7175.2
7172.01
7169.36
7166.96
7164.97
7162.93
7161.33
7159.86
7158.67
7157.34
7156.39
7155.44
7154.73
7154.02
7153.48
7152.73
7152.35
7151.96
7151.66
7151.11
7151
7150.87
7150.69
7150.15
7150.96
7150.96
7150.96
7150.89
7151.06
7150.96
7151.56
7151.56
7152.6
7153.41
7153.64
7153.64
7154.72
7155.4
7155.46
7156.23
7156.23
7156.46
7157.76
7158.1
7158.37
7159.81
7159.86
7159.86
7161.25
7161.25
7162.78
7164.22
7165.21
7166.67
7167.48
7167.49
7168.94
7170.12
7171.55
7173.25
7173.93
7175.36
7177.03
7178.12
7180.49
7182.33
7184.65
7187.01
7190.32
7193.25
7198.38
7201.63
7212.68
7210.96
7323.33
7536.74
28464
8245.82
7828.73
7614.75
7489.17
7406.63
7348.98
7306.4
7274.26
7249.05
7229.17
7212.95
7199.82
7188.78
7179.68
7171.84
7165.31
7159.57
7154.76
7150.44
7146.83
7143.49
7140.71
7138.19
7136.1
7133.97
7132.28
7130.73
7129.47
7128.08
7127.07
7126.07
7125.31
7124.55
7123.97
7123.19
7122.77
7122.34
7122.02
7121.45
7121.31
7121.15
7120.96
7120.37
7121.14
7121.14
7121.14
7121.07
7121.21
7121.09
7121.67
7121.66
7122.68
7123.48
7123.69
7123.69
7124.77
7125.43
7125.47
7126.26
7126.25
7126.52
7127.8
7128.16
7128.38
7129.85
7129.9
7129.9
7131.3
7131.3
7132.82
7134.27
7135.27
7136.72
7137.57
7137.58
7139.02
7140.22
7141.65
7143.36
7144.1
7145.51
7147.2
7148.3
7150.67
7152.52
7154.88
7157.22
7160.56
7163.46
7168.63
7171.82
7182.91
7180.98
7296.56
7507.34
26768.3
8244.75
7821.16
7601.9
7472.56
7387.32
7327.64
7283.51
7250.14
7223.94
7203.26
7186.38
7172.69
7161.18
7151.68
7143.5
7136.68
7130.68
7125.65
7121.13
7117.34
7113.84
7110.93
7108.28
7106.08
7103.85
7102.07
7100.43
7099.1
7097.65
7096.57
7095.51
7094.7
7093.89
7093.27
7092.46
7092
7091.53
7091.19
7090.59
7090.42
7090.23
7090.02
7089.39
7090.11
7090.12
7090.11
7090.03
7090.15
7090
7090.55
7090.55
7091.54
7092.33
7092.52
7092.52
7093.61
7094.24
7094.27
7095.07
7095.06
7095.35
7096.63
7096.99
7097.17
7098.66
7098.72
7098.72
7100.13
7100.12
7101.64
7103.09
7104.1
7105.53
7106.44
7106.44
7107.88
7109.09
7110.52
7112.24
7113.04
7114.43
7116.15
7117.26
7119.62
7121.47
7123.86
7126.19
7129.56
7132.43
7137.65
7140.78
7151.89
7149.75
7268.4
7476.41
25183.8
8243.71
7813.45
7588.73
7455.48
7367.39
7305.59
7259.82
7225.17
7197.94
7176.42
7158.83
7144.56
7132.56
7122.64
7114.1
7106.96
7100.69
7095.42
7090.69
7086.72
7083.06
7080
7077.22
7074.9
7072.56
7070.69
7068.96
7067.55
7066.03
7064.89
7063.77
7062.9
7062.04
7061.38
7060.53
7060.02
7059.52
7059.15
7058.52
7058.32
7058.1
7057.87
7057.2
7057.87
7057.88
7057.87
7057.78
7057.86
7057.7
7058.22
7058.22
7059.18
7059.96
7060.13
7060.12
7061.22
7061.82
7061.83
7062.64
7062.63
7062.95
7064.22
7064.59
7064.73
7066.23
7066.31
7066.31
7067.72
7067.72
7069.22
7070.67
7071.71
7073.12
7074.06
7074.06
7075.5
7076.72
7078.15
7079.88
7080.73
7082.11
7083.86
7084.98
7087.33
7089.19
7091.61
7093.92
7097.32
7100.15
7105.41
7108.49
7119.61
7117.28
7238.78
7443.92
23710.6
8242.7
7805.62
7575.25
7437.91
7346.87
7282.85
7235.37
7199.37
7171.05
7148.64
7130.32
7115.44
7102.92
7092.56
7083.64
7076.17
7069.61
7064.09
7059.14
7054.97
7051.14
7047.92
7045
7042.56
7040.11
7038.14
7036.32
7034.82
7033.23
7032.01
7030.83
7029.9
7028.99
7028.28
7027.39
7026.84
7026.3
7025.9
7025.24
7025
7024.76
7024.5
7023.79
7024.42
7024.42
7024.4
7024.31
7024.36
7024.17
7024.66
7024.66
7025.58
7026.35
7026.5
7026.5
7027.59
7028.16
7028.17
7028.98
7028.97
7029.32
7030.57
7030.95
7031.05
7032.57
7032.66
7032.66
7034.07
7034.07
7035.57
7037.01
7038.07
7039.45
7040.44
7040.44
7041.88
7043.11
7044.54
7046.27
7047.19
7048.54
7050.32
7051.44
7053.8
7055.66
7058.11
7060.4
7063.83
7066.62
7071.92
7074.93
7086.06
7083.55
7207.62
7409.82
22344.2
8241.73
7797.69
7561.47
7419.9
7325.76
7259.42
7210.15
7172.73
7143.27
7119.94
7100.85
7085.32
7072.26
7061.43
7052.11
7044.3
7037.44
7031.65
7026.47
7022.1
7018.08
7014.7
7011.63
7009.06
7006.5
7004.41
7002.49
7000.91
6999.24
6997.95
6996.7
6995.71
6994.74
6993.98
6993.04
6992.45
6991.86
6991.43
6990.74
6990.47
6990.19
6989.91
6989.15
6989.73
6989.74
6989.71
6989.61
6989.63
6989.41
6989.87
6989.87
6990.75
6991.51
6991.64
6991.63
6992.73
6993.26
6993.26
6994.08
6994.07
6994.45
6995.69
6996.06
6996.13
6997.67
6997.76
6997.76
6999.17
6999.17
7000.67
7002.11
7003.18
7004.54
7005.57
7005.58
7007.01
7008.25
7009.68
7011.41
7012.39
7013.72
7015.53
7016.66
7019.01
7020.87
7023.35
7025.61
7029.08
7031.82
7037.15
7040.11
7051.24
7048.56
7174.86
7374.1
21079.4
8240.8
7789.67
7547.42
7401.44
7304.09
7235.32
7184.18
7145.28
7114.63
7090.32
7070.43
7054.22
7040.58
7029.27
7019.53
7011.35
7004.17
6998.11
6992.68
6988.09
6983.88
6980.33
6977.1
6974.39
6971.71
6969.51
6967.48
6965.81
6964.06
6962.69
6961.36
6960.32
6959.28
6958.47
6957.49
6956.85
6956.21
6955.75
6955.03
6954.71
6954.4
6954.1
6953.3
6953.82
6953.82
6953.79
6953.68
6953.66
6953.41
6953.84
6953.84
6954.68
6955.43
6955.54
6955.53
6956.62
6957.11
6957.12
6957.93
6957.93
6958.33
6959.55
6959.92
6959.96
6961.51
6961.61
6961.61
6963.03
6963.03
6964.52
6965.95
6967.04
6968.38
6969.44
6969.45
6970.88
6972.13
6973.57
6975.29
6976.33
6977.64
6979.48
6980.61
6982.95
6984.82
6987.33
6989.57
6993.06
6995.76
7001.12
7004.02
7015.13
7012.3
7140.44
7336.71
19910.9
8239.91
7781.57
7533.11
7382.56
7281.86
7210.57
7157.47
7117.02
7085.12
7059.79
7039.05
7022.13
7007.89
6996.07
6985.88
6977.33
6969.82
6963.46
6957.77
6952.96
6948.55
6944.81
6941.42
6938.56
6935.75
6933.43
6931.3
6929.52
6927.68
6926.24
6924.83
6923.72
6922.61
6921.75
6920.72
6920.03
6919.34
6918.84
6918.09
6917.73
6917.38
6917.06
6916.21
6916.67
6916.67
6916.64
6916.52
6916.47
6916.18
6916.57
6916.57
6917.37
6918.1
6918.18
6918.18
6919.27
6919.72
6919.72
6920.53
6920.53
6920.97
6922.17
6922.53
6922.55
6924.1
6924.21
6924.21
6925.62
6925.63
6927.11
6928.53
6929.64
6930.95
6932.06
6932.07
6933.49
6934.75
6936.19
6937.9
6939
6940.3
6942.16
6943.3
6945.64
6947.5
6950.03
6952.25
6955.76
6958.42
6963.8
6966.64
6977.72
6974.76
7104.29
7297.63
18833.2
8239.07
7773.42
7518.56
7363.29
7259.1
7185.17
7130.03
7087.97
7054.76
7028.36
7006.73
6989.07
6974.2
6961.84
6951.19
6942.24
6934.37
6927.71
6921.75
6916.7
6912.07
6908.15
6904.58
6901.57
6898.62
6896.18
6893.93
6892.05
6890.12
6888.59
6887.1
6885.91
6884.74
6883.82
6882.73
6881.99
6881.25
6880.71
6879.92
6879.53
6879.13
6878.79
6877.9
6878.3
6878.29
6878.25
6878.11
6878.03
6877.7
6878.07
6878.07
6878.81
6879.52
6879.58
6879.59
6880.67
6881.07
6881.08
6881.88
6881.87
6882.35
6883.53
6883.87
6883.87
6885.43
6885.55
6885.55
6886.96
6886.97
6888.45
6889.85
6890.98
6892.26
6893.41
6893.42
6894.83
6896.1
6897.54
6899.25
6900.41
6901.69
6903.57
6904.72
6907.05
6908.9
6911.46
6913.65
6917.19
6919.8
6925.19
6927.98
6939.02
6935.94
7066.36
7256.82
17840.5
8238.3
7765.22
7503.8
7343.63
7235.83
7159.15
7101.89
7058.13
7023.56
6996.05
6973.49
6955.05
6939.52
6926.59
6915.46
6906.08
6897.85
6890.87
6884.62
6879.31
6874.47
6870.34
6866.59
6863.42
6860.33
6857.76
6855.38
6853.4
6851.36
6849.74
6848.17
6846.91
6845.66
6844.68
6843.54
6842.74
6841.95
6841.36
6840.53
6840.09
6839.66
6839.29
6838.36
6838.69
6838.68
6838.62
6838.47
6838.36
6837.99
6838.32
6838.32
6839.01
6839.7
6839.74
6839.74