/*--------------------------------*- C++ -*----------------------------------*\
| =========                 |                                                 |
| \\      /  F ield         | OpenFOAM: The Open Source CFD Toolbox           |
|  \\    /   O peration     | Version:  v2012                                 |
|   \\  /    A nd           | Website:  www.openfoam.com                      |
|    \\/     M anipulation  |                                                 |
\*---------------------------------------------------------------------------*/
FoamFile
{
    version     2.0;
    format      ascii;
    class       volVectorField;
    location    "38.5";
    object      wallShearStress;
}
// * * * * * * * * * * * * * * * * * * * * * * * * * * * * * * * * * * * * * //

dimensions      [0 2 -2 0 0 0 0];


internalField   uniform (0 0 0);

boundaryField
{
    inlet
    {
        type            calculated;
        value           uniform (0 0 0);
    }
    outlet
    {
        type            calculated;
        value           uniform (0 0 0);
    }
    topWall
    {
        type            calculated;
        value           nonuniform List<vector> 
545
(
(1.48693e-08 -1.04667e-08 0)
(1.48625e-08 -2.92819e-08 0)
(1.48487e-08 -4.88454e-08 0)
(1.48282e-08 -6.7835e-08 0)
(1.48021e-08 -8.60038e-08 0)
(1.47708e-08 -1.03583e-07 0)
(1.47349e-08 -1.2072e-07 0)
(1.46946e-08 -1.37407e-07 0)
(1.46504e-08 -1.53604e-07 0)
(1.46027e-08 -1.69312e-07 0)
(1.45518e-08 -1.84549e-07 0)
(1.44981e-08 -1.99334e-07 0)
(1.44419e-08 -2.13677e-07 0)
(1.43834e-08 -2.27586e-07 0)
(1.4323e-08 -2.41072e-07 0)
(1.42608e-08 -2.54145e-07 0)
(1.41972e-08 -2.66819e-07 0)
(1.41323e-08 -2.79102e-07 0)
(1.40664e-08 -2.91006e-07 0)
(1.39997e-08 -3.02542e-07 0)
(1.39322e-08 -3.1372e-07 0)
(1.38642e-08 -3.2455e-07 0)
(1.37959e-08 -3.35043e-07 0)
(1.37273e-08 -3.45209e-07 0)
(1.36587e-08 -3.55057e-07 0)
(1.359e-08 -3.64598e-07 0)
(1.35215e-08 -3.7384e-07 0)
(1.34532e-08 -3.82793e-07 0)
(1.33852e-08 -3.91466e-07 0)
(1.33176e-08 -3.99868e-07 0)
(1.32504e-08 -4.08006e-07 0)
(1.31838e-08 -4.15891e-07 0)
(1.31178e-08 -4.23528e-07 0)
(1.30525e-08 -4.30928e-07 0)
(1.29878e-08 -4.38096e-07 0)
(1.29239e-08 -4.45041e-07 0)
(1.28608e-08 -4.5177e-07 0)
(1.27985e-08 -4.58289e-07 0)
(1.2737e-08 -4.64606e-07 0)
(1.26764e-08 -4.70727e-07 0)
(1.26167e-08 -4.76658e-07 0)
(1.2558e-08 -4.82406e-07 0)
(1.25001e-08 -4.87976e-07 0)
(1.24432e-08 -4.93375e-07 0)
(1.23873e-08 -4.98608e-07 0)
(1.23323e-08 -5.03679e-07 0)
(1.22783e-08 -5.08596e-07 0)
(1.22253e-08 -5.13361e-07 0)
(1.21732e-08 -5.17982e-07 0)
(1.21222e-08 -5.22461e-07 0)
(1.20721e-08 -5.26804e-07 0)
(1.20229e-08 -5.31016e-07 0)
(1.19748e-08 -5.35099e-07 0)
(1.19276e-08 -5.3906e-07 0)
(1.18813e-08 -5.429e-07 0)
(1.1836e-08 -5.46625e-07 0)
(1.17917e-08 -5.50239e-07 0)
(1.17482e-08 -5.53743e-07 0)
(1.17057e-08 -5.57143e-07 0)
(1.16641e-08 -5.60442e-07 0)
(1.16234e-08 -5.63642e-07 0)
(1.15836e-08 -5.66747e-07 0)
(1.15447e-08 -5.6976e-07 0)
(1.15066e-08 -5.72683e-07 0)
(1.14694e-08 -5.7552e-07 0)
(1.1433e-08 -5.78274e-07 0)
(1.13974e-08 -5.80947e-07 0)
(1.13626e-08 -5.83541e-07 0)
(1.13286e-08 -5.86059e-07 0)
(1.12955e-08 -5.88503e-07 0)
(1.1263e-08 -5.90877e-07 0)
(1.12315e-08 -5.93177e-07 0)
(1.1201e-08 -5.95389e-07 0)
(1.11709e-08 -5.97532e-07 0)
(1.11411e-08 -5.99649e-07 0)
(1.11115e-08 -6.01754e-07 0)
(1.10819e-08 -6.03846e-07 0)
(1.10524e-08 -6.05924e-07 0)
(1.1023e-08 -6.07986e-07 0)
(1.09936e-08 -6.10033e-07 0)
(1.09643e-08 -6.12065e-07 0)
(1.0935e-08 -6.14083e-07 0)
(1.09058e-08 -6.16086e-07 0)
(1.08766e-08 -6.18074e-07 0)
(1.08476e-08 -6.20048e-07 0)
(1.08185e-08 -6.22008e-07 0)
(1.07896e-08 -6.23953e-07 0)
(1.07607e-08 -6.25885e-07 0)
(1.07319e-08 -6.27802e-07 0)
(1.07031e-08 -6.29706e-07 0)
(1.06744e-08 -6.31596e-07 0)
(1.06458e-08 -6.33472e-07 0)
(1.06172e-08 -6.35335e-07 0)
(1.05888e-08 -6.37183e-07 0)
(1.05601e-08 -6.39022e-07 0)
(1.05329e-08 -6.40828e-07 0)
(1.05077e-08 -6.42481e-07 0)
(1.04834e-08 -6.43976e-07 0)
(1.046e-08 -6.4543e-07 0)
(1.04367e-08 -6.4689e-07 0)
(1.04133e-08 -6.48362e-07 0)
(1.03899e-08 -6.49836e-07 0)
(1.03664e-08 -6.51308e-07 0)
(1.03428e-08 -6.52778e-07 0)
(1.03191e-08 -6.54248e-07 0)
(1.02953e-08 -6.55719e-07 0)
(1.02714e-08 -6.57191e-07 0)
(1.02474e-08 -6.58662e-07 0)
(1.02233e-08 -6.60133e-07 0)
(1.01991e-08 -6.61604e-07 0)
(1.01749e-08 -6.63075e-07 0)
(1.01505e-08 -6.64546e-07 0)
(1.0126e-08 -6.66017e-07 0)
(1.01015e-08 -6.67488e-07 0)
(1.00768e-08 -6.68959e-07 0)
(1.00521e-08 -6.70429e-07 0)
(1.00273e-08 -6.719e-07 0)
(1.00024e-08 -6.7337e-07 0)
(9.97733e-09 -6.7484e-07 0)
(9.95222e-09 -6.7631e-07 0)
(9.92701e-09 -6.7778e-07 0)
(9.90171e-09 -6.79249e-07 0)
(9.87631e-09 -6.80718e-07 0)
(9.85082e-09 -6.82187e-07 0)
(9.82523e-09 -6.83655e-07 0)
(9.79955e-09 -6.85123e-07 0)
(9.77377e-09 -6.86591e-07 0)
(9.7479e-09 -6.88058e-07 0)
(9.72194e-09 -6.89525e-07 0)
(9.69588e-09 -6.90991e-07 0)
(9.66972e-09 -6.92457e-07 0)
(9.64347e-09 -6.93922e-07 0)
(9.61712e-09 -6.95387e-07 0)
(9.59068e-09 -6.96851e-07 0)
(9.56415e-09 -6.98314e-07 0)
(9.53752e-09 -6.99777e-07 0)
(9.51079e-09 -7.01239e-07 0)
(9.48397e-09 -7.02701e-07 0)
(9.45706e-09 -7.04162e-07 0)
(9.43005e-09 -7.05622e-07 0)
(9.40295e-09 -7.07082e-07 0)
(9.37575e-09 -7.0854e-07 0)
(9.34845e-09 -7.09998e-07 0)
(9.32106e-09 -7.11455e-07 0)
(9.29358e-09 -7.12911e-07 0)
(9.266e-09 -7.14367e-07 0)
(9.23833e-09 -7.15821e-07 0)
(9.21056e-09 -7.17274e-07 0)
(9.1827e-09 -7.18727e-07 0)
(9.15474e-09 -7.20178e-07 0)
(9.12669e-09 -7.21629e-07 0)
(9.09854e-09 -7.23078e-07 0)
(9.0703e-09 -7.24526e-07 0)
(9.04196e-09 -7.25974e-07 0)
(9.01354e-09 -7.2742e-07 0)
(8.98501e-09 -7.28865e-07 0)
(8.95639e-09 -7.30308e-07 0)
(8.92768e-09 -7.31751e-07 0)
(8.89888e-09 -7.33192e-07 0)
(8.86998e-09 -7.34632e-07 0)
(8.84099e-09 -7.36071e-07 0)
(8.8119e-09 -7.37508e-07 0)
(8.78272e-09 -7.38944e-07 0)
(8.75345e-09 -7.40379e-07 0)
(8.72408e-09 -7.41812e-07 0)
(8.69462e-09 -7.43244e-07 0)
(8.66507e-09 -7.44674e-07 0)
(8.63543e-09 -7.46102e-07 0)
(8.60569e-09 -7.4753e-07 0)
(8.57586e-09 -7.48955e-07 0)
(8.54594e-09 -7.50379e-07 0)
(8.51593e-09 -7.51801e-07 0)
(8.48582e-09 -7.53222e-07 0)
(8.45563e-09 -7.54641e-07 0)
(8.42534e-09 -7.56058e-07 0)
(8.39496e-09 -7.57474e-07 0)
(8.36449e-09 -7.58887e-07 0)
(8.33392e-09 -7.60299e-07 0)
(8.30327e-09 -7.61709e-07 0)
(8.27253e-09 -7.63117e-07 0)
(8.2417e-09 -7.64523e-07 0)
(8.21077e-09 -7.65928e-07 0)
(8.17976e-09 -7.6733e-07 0)
(8.14866e-09 -7.6873e-07 0)
(8.11747e-09 -7.70128e-07 0)
(8.08619e-09 -7.71524e-07 0)
(8.05482e-09 -7.72918e-07 0)
(8.02336e-09 -7.7431e-07 0)
(7.99181e-09 -7.757e-07 0)
(7.96018e-09 -7.77087e-07 0)
(7.92846e-09 -7.78472e-07 0)
(7.89665e-09 -7.79855e-07 0)
(7.86475e-09 -7.81236e-07 0)
(7.83277e-09 -7.82614e-07 0)
(7.8007e-09 -7.83989e-07 0)
(7.76855e-09 -7.85363e-07 0)
(7.7363e-09 -7.86734e-07 0)
(7.70398e-09 -7.88102e-07 0)
(7.67157e-09 -7.89468e-07 0)
(7.63907e-09 -7.90831e-07 0)
(7.60649e-09 -7.92192e-07 0)
(7.57383e-09 -7.9355e-07 0)
(7.54108e-09 -7.94906e-07 0)
(7.50825e-09 -7.96258e-07 0)
(7.47534e-09 -7.97608e-07 0)
(7.44234e-09 -7.98956e-07 0)
(7.40926e-09 -8.003e-07 0)
(7.3761e-09 -8.01642e-07 0)
(7.34286e-09 -8.0298e-07 0)
(7.30954e-09 -8.04316e-07 0)
(7.27614e-09 -8.05649e-07 0)
(7.24265e-09 -8.06979e-07 0)
(7.20909e-09 -8.08306e-07 0)
(7.17545e-09 -8.09629e-07 0)
(7.14173e-09 -8.1095e-07 0)
(7.10794e-09 -8.12268e-07 0)
(7.07406e-09 -8.13582e-07 0)
(7.04011e-09 -8.14893e-07 0)
(7.00608e-09 -8.16201e-07 0)
(6.97198e-09 -8.17506e-07 0)
(6.9378e-09 -8.18807e-07 0)
(6.90354e-09 -8.20105e-07 0)
(6.86922e-09 -8.214e-07 0)
(6.83481e-09 -8.22691e-07 0)
(6.80034e-09 -8.23979e-07 0)
(6.76579e-09 -8.25263e-07 0)
(6.73116e-09 -8.26543e-07 0)
(6.69647e-09 -8.27821e-07 0)
(6.66171e-09 -8.29094e-07 0)
(6.62687e-09 -8.30364e-07 0)
(6.59196e-09 -8.3163e-07 0)
(6.55699e-09 -8.32892e-07 0)
(6.52195e-09 -8.34151e-07 0)
(6.48683e-09 -8.35406e-07 0)
(6.45165e-09 -8.36657e-07 0)
(6.41641e-09 -8.37904e-07 0)
(6.38109e-09 -8.39147e-07 0)
(6.34572e-09 -8.40387e-07 0)
(6.31027e-09 -8.41622e-07 0)
(6.27476e-09 -8.42853e-07 0)
(6.23919e-09 -8.4408e-07 0)
(6.20356e-09 -8.45303e-07 0)
(6.16786e-09 -8.46522e-07 0)
(6.1321e-09 -8.47737e-07 0)
(6.09628e-09 -8.48948e-07 0)
(6.0604e-09 -8.50154e-07 0)
(6.02446e-09 -8.51356e-07 0)
(5.98847e-09 -8.52553e-07 0)
(5.95241e-09 -8.53747e-07 0)
(5.9163e-09 -8.54935e-07 0)
(5.88013e-09 -8.5612e-07 0)
(5.8439e-09 -8.573e-07 0)
(5.80762e-09 -8.58475e-07 0)
(5.77129e-09 -8.59646e-07 0)
(5.7349e-09 -8.60812e-07 0)
(5.69846e-09 -8.61973e-07 0)
(5.66197e-09 -8.6313e-07 0)
(5.62543e-09 -8.64282e-07 0)
(5.58883e-09 -8.65429e-07 0)
(5.55219e-09 -8.66572e-07 0)
(5.5155e-09 -8.67709e-07 0)
(5.47876e-09 -8.68842e-07 0)
(5.44197e-09 -8.6997e-07 0)
(5.40514e-09 -8.71093e-07 0)
(5.36827e-09 -8.72211e-07 0)
(5.33134e-09 -8.73324e-07 0)
(5.29442e-09 -8.74431e-07 0)
(5.25721e-09 -8.75535e-07 0)
(5.22104e-09 -8.76626e-07 0)
(5.1864e-09 -8.77661e-07 0)
(5.1523e-09 -8.78641e-07 0)
(5.11862e-09 -8.7961e-07 0)
(5.0848e-09 -8.80585e-07 0)
(5.05069e-09 -8.81569e-07 0)
(5.01626e-09 -8.82557e-07 0)
(4.98151e-09 -8.83548e-07 0)
(4.94642e-09 -8.84543e-07 0)
(4.91101e-09 -8.85541e-07 0)
(4.87526e-09 -8.86542e-07 0)
(4.83917e-09 -8.87548e-07 0)
(4.80274e-09 -8.88556e-07 0)
(4.76598e-09 -8.89568e-07 0)
(4.72887e-09 -8.90583e-07 0)
(4.69142e-09 -8.91601e-07 0)
(4.65363e-09 -8.92622e-07 0)
(4.61549e-09 -8.93645e-07 0)
(4.577e-09 -8.94671e-07 0)
(4.53817e-09 -8.95699e-07 0)
(4.49898e-09 -8.9673e-07 0)
(4.45944e-09 -8.97763e-07 0)
(4.41955e-09 -8.98797e-07 0)
(4.3793e-09 -8.99834e-07 0)
(4.3387e-09 -9.00872e-07 0)
(4.29774e-09 -9.01912e-07 0)
(4.25642e-09 -9.02953e-07 0)
(4.21475e-09 -9.03995e-07 0)
(4.17271e-09 -9.05037e-07 0)
(4.13032e-09 -9.06081e-07 0)
(4.08756e-09 -9.07125e-07 0)
(4.04445e-09 -9.0817e-07 0)
(4.00097e-09 -9.09214e-07 0)
(3.95713e-09 -9.10259e-07 0)
(3.91293e-09 -9.11303e-07 0)
(3.86837e-09 -9.12346e-07 0)
(3.82344e-09 -9.13389e-07 0)
(3.77815e-09 -9.1443e-07 0)
(3.7325e-09 -9.15471e-07 0)
(3.68649e-09 -9.1651e-07 0)
(3.64011e-09 -9.17547e-07 0)
(3.59338e-09 -9.18582e-07 0)
(3.54628e-09 -9.19614e-07 0)
(3.49883e-09 -9.20644e-07 0)
(3.45101e-09 -9.21671e-07 0)
(3.40284e-09 -9.22695e-07 0)
(3.35432e-09 -9.23716e-07 0)
(3.30543e-09 -9.24732e-07 0)
(3.2562e-09 -9.25745e-07 0)
(3.20661e-09 -9.26753e-07 0)
(3.15668e-09 -9.27756e-07 0)
(3.10639e-09 -9.28755e-07 0)
(3.05577e-09 -9.29747e-07 0)
(3.0048e-09 -9.30734e-07 0)
(2.95348e-09 -9.31715e-07 0)
(2.90184e-09 -9.3269e-07 0)
(2.84985e-09 -9.33657e-07 0)
(2.79754e-09 -9.34618e-07 0)
(2.7449e-09 -9.3557e-07 0)
(2.69193e-09 -9.36515e-07 0)
(2.63865e-09 -9.37451e-07 0)
(2.58505e-09 -9.38378e-07 0)
(2.53114e-09 -9.39297e-07 0)
(2.47692e-09 -9.40205e-07 0)
(2.42239e-09 -9.41104e-07 0)
(2.36757e-09 -9.41991e-07 0)
(2.31246e-09 -9.42868e-07 0)
(2.25707e-09 -9.43734e-07 0)
(2.20139e-09 -9.44587e-07 0)
(2.14543e-09 -9.45429e-07 0)
(2.08921e-09 -9.46257e-07 0)
(2.03273e-09 -9.47072e-07 0)
(1.97599e-09 -9.47873e-07 0)
(1.91901e-09 -9.4866e-07 0)
(1.86178e-09 -9.49432e-07 0)
(1.80432e-09 -9.50189e-07 0)
(1.74664e-09 -9.5093e-07 0)
(1.68874e-09 -9.51654e-07 0)
(1.63063e-09 -9.52362e-07 0)
(1.57233e-09 -9.53052e-07 0)
(1.51383e-09 -9.53724e-07 0)
(1.45516e-09 -9.54378e-07 0)
(1.39632e-09 -9.55013e-07 0)
(1.33732e-09 -9.55627e-07 0)
(1.27816e-09 -9.56222e-07 0)
(1.21887e-09 -9.56796e-07 0)
(1.15946e-09 -9.57348e-07 0)
(1.09993e-09 -9.57879e-07 0)
(1.04029e-09 -9.58386e-07 0)
(9.80564e-10 -9.58871e-07 0)
(9.20759e-10 -9.59332e-07 0)
(8.60889e-10 -9.59768e-07 0)
(8.00965e-10 -9.60179e-07 0)
(7.41003e-10 -9.60565e-07 0)
(6.81016e-10 -9.60924e-07 0)
(6.21019e-10 -9.61257e-07 0)
(5.61025e-10 -9.61562e-07 0)
(5.0105e-10 -9.61839e-07 0)
(4.41109e-10 -9.62087e-07 0)
(3.81218e-10 -9.62305e-07 0)
(3.21392e-10 -9.62494e-07 0)
(2.61648e-10 -9.62652e-07 0)
(2.02003e-10 -9.62778e-07 0)
(1.42473e-10 -9.62873e-07 0)
(8.30751e-11 -9.62935e-07 0)
(2.38276e-11 -9.62963e-07 0)
(-3.52521e-11 -9.62958e-07 0)
(-9.41458e-11 -9.62918e-07 0)
(-1.52835e-10 -9.62844e-07 0)
(-2.11302e-10 -9.62733e-07 0)
(-2.69526e-10 -9.62586e-07 0)
(-3.27489e-10 -9.62402e-07 0)
(-3.85172e-10 -9.6218e-07 0)
(-4.42555e-10 -9.61919e-07 0)
(-4.99617e-10 -9.6162e-07 0)
(-5.56339e-10 -9.61282e-07 0)
(-6.12701e-10 -9.60903e-07 0)
(-6.68682e-10 -9.60484e-07 0)
(-7.24261e-10 -9.60023e-07 0)
(-7.79417e-10 -9.59521e-07 0)
(-8.3413e-10 -9.58976e-07 0)
(-8.88379e-10 -9.58388e-07 0)
(-9.42141e-10 -9.57757e-07 0)
(-9.95397e-10 -9.57082e-07 0)
(-1.04812e-09 -9.56362e-07 0)
(-1.1003e-09 -9.55597e-07 0)
(-1.15191e-09 -9.54786e-07 0)
(-1.20292e-09 -9.5393e-07 0)
(-1.25332e-09 -9.53027e-07 0)
(-1.30309e-09 -9.52077e-07 0)
(-1.35219e-09 -9.5108e-07 0)
(-1.40062e-09 -9.50035e-07 0)
(-1.44835e-09 -9.48941e-07 0)
(-1.49536e-09 -9.478e-07 0)
(-1.54163e-09 -9.46609e-07 0)
(-1.58714e-09 -9.45369e-07 0)
(-1.63187e-09 -9.4408e-07 0)
(-1.67579e-09 -9.42741e-07 0)
(-1.71889e-09 -9.41351e-07 0)
(-1.76115e-09 -9.39912e-07 0)
(-1.80255e-09 -9.38422e-07 0)
(-1.84307e-09 -9.36881e-07 0)
(-1.88269e-09 -9.35289e-07 0)
(-1.92139e-09 -9.33646e-07 0)
(-1.95916e-09 -9.31952e-07 0)
(-1.99597e-09 -9.30207e-07 0)
(-2.03181e-09 -9.2841e-07 0)
(-2.06667e-09 -9.26562e-07 0)
(-2.10053e-09 -9.24663e-07 0)
(-2.13337e-09 -9.22713e-07 0)
(-2.16518e-09 -9.20711e-07 0)
(-2.19594e-09 -9.18658e-07 0)
(-2.22564e-09 -9.16554e-07 0)
(-2.25427e-09 -9.14399e-07 0)
(-2.28181e-09 -9.12194e-07 0)
(-2.30826e-09 -9.09938e-07 0)
(-2.3336e-09 -9.07632e-07 0)
(-2.35782e-09 -9.05276e-07 0)
(-2.38092e-09 -9.0287e-07 0)
(-2.40288e-09 -9.00416e-07 0)
(-2.4237e-09 -8.97912e-07 0)
(-2.44337e-09 -8.9536e-07 0)
(-2.46188e-09 -8.9276e-07 0)
(-2.47923e-09 -8.90113e-07 0)
(-2.49542e-09 -8.87419e-07 0)
(-2.51043e-09 -8.84678e-07 0)
(-2.52428e-09 -8.81892e-07 0)
(-2.53695e-09 -8.79061e-07 0)
(-2.54844e-09 -8.76185e-07 0)
(-2.55876e-09 -8.73266e-07 0)
(-2.5679e-09 -8.70304e-07 0)
(-2.57587e-09 -8.673e-07 0)
(-2.58267e-09 -8.64254e-07 0)
(-2.58831e-09 -8.61168e-07 0)
(-2.59278e-09 -8.58042e-07 0)
(-2.59609e-09 -8.54878e-07 0)
(-2.59825e-09 -8.51676e-07 0)
(-2.59926e-09 -8.48437e-07 0)
(-2.59914e-09 -8.45163e-07 0)
(-2.59787e-09 -8.41852e-07 0)
(-2.59554e-09 -8.38514e-07 0)
(-2.59186e-09 -8.35102e-07 0)
(-2.58656e-09 -8.31335e-07 0)
(-2.57965e-09 -8.2721e-07 0)
(-2.57109e-09 -8.23012e-07 0)
(-2.56107e-09 -8.18838e-07 0)
(-2.54974e-09 -8.14705e-07 0)
(-2.53718e-09 -8.10596e-07 0)
(-2.52346e-09 -8.06503e-07 0)
(-2.50864e-09 -8.02431e-07 0)
(-2.49279e-09 -7.98384e-07 0)
(-2.47596e-09 -7.94364e-07 0)
(-2.45822e-09 -7.90372e-07 0)
(-2.43961e-09 -7.8641e-07 0)
(-2.4202e-09 -7.82479e-07 0)
(-2.40003e-09 -7.78579e-07 0)
(-2.37915e-09 -7.74713e-07 0)
(-2.3576e-09 -7.70881e-07 0)
(-2.33543e-09 -7.67085e-07 0)
(-2.31267e-09 -7.63325e-07 0)
(-2.28937e-09 -7.59602e-07 0)
(-2.26556e-09 -7.55917e-07 0)
(-2.24127e-09 -7.52272e-07 0)
(-2.21654e-09 -7.48666e-07 0)
(-2.1914e-09 -7.451e-07 0)
(-2.16587e-09 -7.41576e-07 0)
(-2.13998e-09 -7.38093e-07 0)
(-2.11376e-09 -7.34652e-07 0)
(-2.08722e-09 -7.31254e-07 0)
(-2.0604e-09 -7.27899e-07 0)
(-2.03331e-09 -7.24588e-07 0)
(-2.00598e-09 -7.21321e-07 0)
(-1.97841e-09 -7.18098e-07 0)
(-1.95062e-09 -7.1492e-07 0)
(-1.92264e-09 -7.11787e-07 0)
(-1.89446e-09 -7.087e-07 0)
(-1.86612e-09 -7.05658e-07 0)
(-1.83761e-09 -7.02663e-07 0)
(-1.80895e-09 -6.99713e-07 0)
(-1.78016e-09 -6.9681e-07 0)
(-1.75122e-09 -6.93954e-07 0)
(-1.72217e-09 -6.91145e-07 0)
(-1.693e-09 -6.88382e-07 0)
(-1.66372e-09 -6.85668e-07 0)
(-1.63433e-09 -6.83e-07 0)
(-1.60485e-09 -6.8038e-07 0)
(-1.57527e-09 -6.77808e-07 0)
(-1.5456e-09 -6.75284e-07 0)
(-1.51585e-09 -6.72808e-07 0)
(-1.48602e-09 -6.7038e-07 0)
(-1.4561e-09 -6.68e-07 0)
(-1.42611e-09 -6.65669e-07 0)
(-1.39604e-09 -6.63386e-07 0)
(-1.3659e-09 -6.61153e-07 0)
(-1.33568e-09 -6.58968e-07 0)
(-1.3054e-09 -6.56831e-07 0)
(-1.27504e-09 -6.54744e-07 0)
(-1.24462e-09 -6.52706e-07 0)
(-1.21412e-09 -6.50718e-07 0)
(-1.18356e-09 -6.48779e-07 0)
(-1.15293e-09 -6.46889e-07 0)
(-1.12223e-09 -6.45049e-07 0)
(-1.09146e-09 -6.43258e-07 0)
(-1.06063e-09 -6.41517e-07 0)
(-1.02973e-09 -6.39827e-07 0)
(-9.9876e-10 -6.38186e-07 0)
(-9.67725e-10 -6.36596e-07 0)
(-9.36624e-10 -6.35055e-07 0)
(-9.05456e-10 -6.33565e-07 0)
(-8.74223e-10 -6.32126e-07 0)
(-8.42925e-10 -6.30737e-07 0)
(-8.11561e-10 -6.29399e-07 0)
(-7.80134e-10 -6.28112e-07 0)
(-7.48644e-10 -6.26875e-07 0)
(-7.17091e-10 -6.2569e-07 0)
(-6.85478e-10 -6.24555e-07 0)
(-6.53804e-10 -6.23472e-07 0)
(-6.22073e-10 -6.2244e-07 0)
(-5.90285e-10 -6.21459e-07 0)
(-5.58441e-10 -6.2053e-07 0)
(-5.26545e-10 -6.19653e-07 0)
(-4.94597e-10 -6.18827e-07 0)
(-4.62601e-10 -6.18052e-07 0)
(-4.30558e-10 -6.1733e-07 0)
(-3.98471e-10 -6.16659e-07 0)
(-3.66342e-10 -6.16041e-07 0)
(-3.34175e-10 -6.15473e-07 0)
(-3.01973e-10 -6.14963e-07 0)
(-2.69736e-10 -6.14487e-07 0)
(-2.37476e-10 -6.1412e-07 0)
(-2.0517e-10 -6.13619e-07 0)
(-1.72905e-10 -6.13779e-07 0)
(-1.40413e-10 -6.11931e-07 0)
(-1.086e-10 -6.16708e-07 0)
(-7.4578e-11 -5.98106e-07 0)
(-4.82731e-11 -6.47122e-07 0)
(-2.02878e-11 -5.65163e-07 0)
)
;
    }
    bottomWall
    {
        type            calculated;
        value           nonuniform List<vector> 
449
(
(-48.5319 -0.964097 0)
(-19.7512 -0.0051553 0)
(-14.3435 -0.00113486 0)
(-12.0337 -0.000545536 0)
(-10.6275 -0.000351537 0)
(-9.63354 -0.000256026 0)
(-8.87537 -0.000198511 0)
(-8.27179 -0.000159836 0)
(-7.7763 -0.000132343 0)
(-7.35961 -0.000111993 0)
(-7.00256 -9.63906e-05 0)
(-6.69209 -8.40822e-05 0)
(-6.4189 -7.4163e-05 0)
(-6.17607 -6.60344e-05 0)
(-5.95835 -5.92765e-05 0)
(-5.76168 -5.35864e-05 0)
(-5.58285 -4.87414e-05 0)
(-5.41932 -4.4576e-05 0)
(-5.26902 -4.09641e-05 0)
(-5.13023 -3.7808e-05 0)
(-5.00157 -3.50314e-05 0)
(-4.88184 -3.25733e-05 0)
(-4.77006 -3.0385e-05 0)
(-4.66538 -2.84268e-05 0)
(-4.56707 -2.66663e-05 0)
(-4.47451 -2.50768e-05 0)
(-4.38715 -2.36359e-05 0)
(-4.30453 -2.2325e-05 0)
(-4.22622 -2.11282e-05 0)
(-4.15186 -2.00321e-05 0)
(-4.08114 -1.90254e-05 0)
(-4.01375 -1.80981e-05 0)
(-3.94944 -1.72419e-05 0)
(-3.88798 -1.64493e-05 0)
(-3.82917 -1.57139e-05 0)
(-3.77282 -1.50302e-05 0)
(-3.71876 -1.43932e-05 0)
(-3.66684 -1.37985e-05 0)
(-3.61692 -1.32425e-05 0)
(-3.56887 -1.27216e-05 0)
(-3.52258 -1.22329e-05 0)
(-3.47795 -1.17737e-05 0)
(-3.43486 -1.13415e-05 0)
(-3.39325 -1.09341e-05 0)
(-3.35301 -1.05497e-05 0)
(-3.31409 -1.01865e-05 0)
(-3.2764 -9.84281e-06 0)
(-3.23989 -9.5173e-06 0)
(-3.20448 -9.20864e-06 0)
(-3.17013 -8.91563e-06 0)
(-3.13679 -8.6372e-06 0)
(-3.1044 -8.37235e-06 0)
(-3.07292 -8.12018e-06 0)
(-3.04231 -7.87987e-06 0)
(-3.01253 -7.65065e-06 0)
(-2.98354 -7.43183e-06 0)
(-2.9553 -7.22276e-06 0)
(-2.92779 -7.02285e-06 0)
(-2.90097 -6.83155e-06 0)
(-2.87481 -6.64836e-06 0)
(-2.84929 -6.47281e-06 0)
(-2.82437 -6.30446e-06 0)
(-2.80005 -6.1429e-06 0)
(-2.77628 -5.98778e-06 0)
(-2.75306 -5.83872e-06 0)
(-2.73036 -5.69542e-06 0)
(-2.70815 -5.55757e-06 0)
(-2.68644 -5.42488e-06 0)
(-2.66518 -5.2971e-06 0)
(-2.64438 -5.17396e-06 0)
(-2.624 -5.05525e-06 0)
(-2.60405 -4.94075e-06 0)
(-2.58449 -4.83024e-06 0)
(-2.56533 -4.72355e-06 0)
(-2.54654 -4.62049e-06 0)
(-2.52812 -4.52089e-06 0)
(-2.51005 -4.4246e-06 0)
(-2.49232 -4.33146e-06 0)
(-2.47492 -4.24133e-06 0)
(-2.45784 -4.15409e-06 0)
(-2.44107 -4.06959e-06 0)
(-2.4246 -3.98774e-06 0)
(-2.40842 -3.9084e-06 0)
(-2.39252 -3.83149e-06 0)
(-2.3769 -3.75689e-06 0)
(-2.36154 -3.68451e-06 0)
(-2.34645 -3.61426e-06 0)
(-2.3316 -3.54606e-06 0)
(-2.317 -3.47982e-06 0)
(-2.30264 -3.41547e-06 0)
(-2.28851 -3.35293e-06 0)
(-2.2746 -3.29214e-06 0)
(-2.26091 -3.23302e-06 0)
(-2.24743 -3.17552e-06 0)
(-2.23416 -3.11958e-06 0)
(-2.2211 -3.06513e-06 0)
(-2.20823 -3.01212e-06 0)
(-2.19555 -2.9605e-06 0)
(-2.18306 -2.91022e-06 0)
(-2.17075 -2.86124e-06 0)
(-2.15862 -2.8135e-06 0)
(-2.14666 -2.76697e-06 0)
(-2.13487 -2.7216e-06 0)
(-2.12324 -2.67735e-06 0)
(-2.11178 -2.63419e-06 0)
(-2.10047 -2.59208e-06 0)
(-2.08932 -2.55098e-06 0)
(-2.07832 -2.51086e-06 0)
(-2.06747 -2.47169e-06 0)
(-2.05675 -2.43344e-06 0)
(-2.04618 -2.39608e-06 0)
(-2.03575 -2.35959e-06 0)
(-2.02545 -2.32392e-06 0)
(-2.01528 -2.28906e-06 0)
(-2.00524 -2.25499e-06 0)
(-1.99532 -2.22168e-06 0)
(-1.98553 -2.1891e-06 0)
(-1.97586 -2.15723e-06 0)
(-1.96631 -2.12606e-06 0)
(-1.95687 -2.09556e-06 0)
(-1.94754 -2.06571e-06 0)
(-1.93832 -2.0365e-06 0)
(-1.92922 -2.0079e-06 0)
(-1.92022 -1.9799e-06 0)
(-1.91132 -1.95248e-06 0)
(-1.90253 -1.92563e-06 0)
(-1.89383 -1.89932e-06 0)
(-1.88524 -1.87354e-06 0)
(-1.87674 -1.84829e-06 0)
(-1.86833 -1.82354e-06 0)
(-1.86002 -1.79928e-06 0)
(-1.85179 -1.7755e-06 0)
(-1.84366 -1.75218e-06 0)
(-1.83562 -1.72931e-06 0)
(-1.82766 -1.70689e-06 0)
(-1.81978 -1.68489e-06 0)
(-1.81199 -1.66331e-06 0)
(-1.80428 -1.64214e-06 0)
(-1.79665 -1.62137e-06 0)
(-1.78909 -1.60098e-06 0)
(-1.78162 -1.58097e-06 0)
(-1.77422 -1.56132e-06 0)
(-1.76689 -1.54204e-06 0)
(-1.75964 -1.5231e-06 0)
(-1.75246 -1.50451e-06 0)
(-1.74535 -1.48624e-06 0)
(-1.73831 -1.46831e-06 0)
(-1.73134 -1.45068e-06 0)
(-1.72443 -1.43337e-06 0)
(-1.7176 -1.41636e-06 0)
(-1.71082 -1.39965e-06 0)
(-1.70411 -1.38322e-06 0)
(-1.69747 -1.36707e-06 0)
(-1.69088 -1.3512e-06 0)
(-1.68436 -1.33559e-06 0)
(-1.67789 -1.32025e-06 0)
(-1.67149 -1.30516e-06 0)
(-1.66514 -1.29033e-06 0)
(-1.65885 -1.27574e-06 0)
(-1.65262 -1.26138e-06 0)
(-1.64644 -1.24727e-06 0)
(-1.64031 -1.23338e-06 0)
(-1.63424 -1.21971e-06 0)
(-1.62823 -1.20627e-06 0)
(-1.62226 -1.19304e-06 0)
(-1.61635 -1.18002e-06 0)
(-1.61048 -1.1672e-06 0)
(-1.60467 -1.15459e-06 0)
(-1.59891 -1.1422e-06 0)
(-1.59319 -1.12987e-06 0)
(-1.58752 -1.11818e-06 0)
(-1.5819 -1.10607e-06 0)
(-1.57633 -1.09293e-06 0)
(-1.57112 -1.08275e-06 0)
(-1.56622 -1.07452e-06 0)
(-1.5613 -1.06416e-06 0)
(-1.55639 -1.05347e-06 0)
(-1.55147 -1.04346e-06 0)
(-1.54655 -1.03342e-06 0)
(-1.54161 -1.0235e-06 0)
(-1.53668 -1.01364e-06 0)
(-1.53174 -1.00385e-06 0)
(-1.52679 -9.94116e-07 0)
(-1.52184 -9.84442e-07 0)
(-1.51688 -9.74824e-07 0)
(-1.51192 -9.65262e-07 0)
(-1.50695 -9.55755e-07 0)
(-1.50198 -9.46303e-07 0)
(-1.497 -9.36906e-07 0)
(-1.49202 -9.27565e-07 0)
(-1.48704 -9.18279e-07 0)
(-1.48205 -9.09048e-07 0)
(-1.47706 -8.99873e-07 0)
(-1.47206 -8.90755e-07 0)
(-1.46707 -8.81692e-07 0)
(-1.46207 -8.72686e-07 0)
(-1.45706 -8.63737e-07 0)
(-1.45206 -8.54845e-07 0)
(-1.44705 -8.4601e-07 0)
(-1.44204 -8.37232e-07 0)
(-1.43703 -8.28512e-07 0)
(-1.43202 -8.1985e-07 0)
(-1.42701 -8.11246e-07 0)
(-1.42199 -8.027e-07 0)
(-1.41697 -7.94212e-07 0)
(-1.41196 -7.85783e-07 0)
(-1.40694 -7.77412e-07 0)
(-1.40192 -7.69101e-07 0)
(-1.3969 -7.60848e-07 0)
(-1.39189 -7.52654e-07 0)
(-1.38687 -7.44519e-07 0)
(-1.38185 -7.36444e-07 0)
(-1.37683 -7.28428e-07 0)
(-1.37182 -7.20471e-07 0)
(-1.3668 -7.12574e-07 0)
(-1.36179 -7.04736e-07 0)
(-1.35677 -6.96958e-07 0)
(-1.35176 -6.89239e-07 0)
(-1.34675 -6.8158e-07 0)
(-1.34175 -6.73981e-07 0)
(-1.33674 -6.66441e-07 0)
(-1.33174 -6.58961e-07 0)
(-1.32674 -6.51541e-07 0)
(-1.32174 -6.4418e-07 0)
(-1.31674 -6.36879e-07 0)
(-1.31175 -6.29638e-07 0)
(-1.30676 -6.22456e-07 0)
(-1.30178 -6.15333e-07 0)
(-1.29679 -6.0827e-07 0)
(-1.29182 -6.01266e-07 0)
(-1.28684 -5.94321e-07 0)
(-1.28187 -5.87436e-07 0)
(-1.2769 -5.80609e-07 0)
(-1.27194 -5.73841e-07 0)
(-1.26699 -5.67133e-07 0)
(-1.26203 -5.60483e-07 0)
(-1.25709 -5.53891e-07 0)
(-1.25214 -5.47358e-07 0)
(-1.24721 -5.40883e-07 0)
(-1.24228 -5.34466e-07 0)
(-1.23735 -5.28108e-07 0)
(-1.23243 -5.21807e-07 0)
(-1.22752 -5.15564e-07 0)
(-1.22261 -5.09378e-07 0)
(-1.21771 -5.03249e-07 0)
(-1.21281 -4.97178e-07 0)
(-1.20792 -4.91163e-07 0)
(-1.20304 -4.85205e-07 0)
(-1.19817 -4.79304e-07 0)
(-1.1933 -4.73458e-07 0)
(-1.18844 -4.67669e-07 0)
(-1.18359 -4.61936e-07 0)
(-1.17874 -4.56258e-07 0)
(-1.1739 -4.50635e-07 0)
(-1.16907 -4.45068e-07 0)
(-1.16425 -4.39555e-07 0)
(-1.15943 -4.34097e-07 0)
(-1.15463 -4.28694e-07 0)
(-1.14983 -4.23344e-07 0)
(-1.14504 -4.18048e-07 0)
(-1.14026 -4.12806e-07 0)
(-1.13549 -4.07616e-07 0)
(-1.13072 -4.0248e-07 0)
(-1.12597 -3.97397e-07 0)
(-1.12122 -3.92365e-07 0)
(-1.11649 -3.87386e-07 0)
(-1.11176 -3.82459e-07 0)
(-1.10704 -3.77583e-07 0)
(-1.10233 -3.72759e-07 0)
(-1.09764 -3.67985e-07 0)
(-1.09295 -3.63262e-07 0)
(-1.08827 -3.58589e-07 0)
(-1.0836 -3.53966e-07 0)
(-1.07894 -3.49393e-07 0)
(-1.07429 -3.44869e-07 0)
(-1.06966 -3.40394e-07 0)
(-1.06503 -3.35967e-07 0)
(-1.06041 -3.31589e-07 0)
(-1.05581 -3.27259e-07 0)
(-1.05121 -3.22977e-07 0)
(-1.04663 -3.18742e-07 0)
(-1.04206 -3.14554e-07 0)
(-1.03749 -3.10412e-07 0)
(-1.03294 -3.06317e-07 0)
(-1.0284 -3.02268e-07 0)
(-1.02388 -2.98265e-07 0)
(-1.01936 -2.94307e-07 0)
(-1.01486 -2.90393e-07 0)
(-1.01036 -2.86525e-07 0)
(-1.00588 -2.82701e-07 0)
(-1.00141 -2.7892e-07 0)
(-0.996952 -2.75183e-07 0)
(-0.992506 -2.7149e-07 0)
(-0.988073 -2.67839e-07 0)
(-0.983651 -2.64231e-07 0)
(-0.979241 -2.60665e-07 0)
(-0.974844 -2.57141e-07 0)
(-0.970459 -2.53658e-07 0)
(-0.966087 -2.50217e-07 0)
(-0.961727 -2.46816e-07 0)
(-0.957379 -2.43456e-07 0)
(-0.953045 -2.40135e-07 0)
(-0.948723 -2.36855e-07 0)
(-0.944413 -2.33613e-07 0)
(-0.940117 -2.30411e-07 0)
(-0.935833 -2.27248e-07 0)
(-0.931563 -2.24123e-07 0)
(-0.927305 -2.21035e-07 0)
(-0.92306 -2.17986e-07 0)
(-0.918829 -2.14973e-07 0)
(-0.914611 -2.11998e-07 0)
(-0.910405 -2.09059e-07 0)
(-0.906214 -2.06157e-07 0)
(-0.902035 -2.0329e-07 0)
(-0.89787 -2.00459e-07 0)
(-0.893718 -1.97663e-07 0)
(-0.88958 -1.94902e-07 0)
(-0.885455 -1.92175e-07 0)
(-0.881344 -1.89483e-07 0)
(-0.877246 -1.86825e-07 0)
(-0.873162 -1.842e-07 0)
(-0.869092 -1.81608e-07 0)
(-0.865035 -1.79049e-07 0)
(-0.860992 -1.76523e-07 0)
(-0.856963 -1.74028e-07 0)
(-0.852948 -1.71566e-07 0)
(-0.848946 -1.69135e-07 0)
(-0.844958 -1.66736e-07 0)
(-0.840985 -1.64367e-07 0)
(-0.837025 -1.62029e-07 0)
(-0.833079 -1.59721e-07 0)
(-0.829147 -1.57442e-07 0)
(-0.825229 -1.55194e-07 0)
(-0.821325 -1.52975e-07 0)
(-0.817435 -1.50784e-07 0)
(-0.813559 -1.48623e-07 0)
(-0.809697 -1.4649e-07 0)
(-0.80585 -1.44384e-07 0)
(-0.802016 -1.42307e-07 0)
(-0.798197 -1.40257e-07 0)
(-0.794391 -1.38233e-07 0)
(-0.7906 -1.36237e-07 0)
(-0.786823 -1.34267e-07 0)
(-0.78306 -1.32324e-07 0)
(-0.779312 -1.30406e-07 0)
(-0.775577 -1.28513e-07 0)
(-0.771857 -1.26646e-07 0)
(-0.768151 -1.24804e-07 0)
(-0.76446 -1.22984e-07 0)
(-0.760782 -1.21192e-07 0)
(-0.757119 -1.19418e-07 0)
(-0.753471 -1.17633e-07 0)
(-0.749838 -1.15995e-07 0)
(-0.746213 -1.14369e-07 0)
(-0.7422 -1.12385e-07 0)
(-0.737846 -1.10278e-07 0)
(-0.733572 -1.08381e-07 0)
(-0.729368 -1.06585e-07 0)
(-0.725234 -1.04777e-07 0)
(-0.721171 -1.03004e-07 0)
(-0.717176 -1.01276e-07 0)
(-0.713248 -9.95942e-08 0)
(-0.709385 -9.79579e-08 0)
(-0.705585 -9.6365e-08 0)
(-0.701846 -9.48145e-08 0)
(-0.698168 -9.33049e-08 0)
(-0.694547 -9.18348e-08 0)
(-0.690983 -9.04028e-08 0)
(-0.687475 -8.90075e-08 0)
(-0.68402 -8.76476e-08 0)
(-0.680618 -8.63219e-08 0)
(-0.677267 -8.50292e-08 0)
(-0.673966 -8.37684e-08 0)
(-0.670714 -8.25384e-08 0)
(-0.66751 -8.13381e-08 0)
(-0.664351 -8.01666e-08 0)
(-0.661238 -7.90229e-08 0)
(-0.658169 -7.7906e-08 0)
(-0.655144 -7.68152e-08 0)
(-0.65216 -7.57495e-08 0)
(-0.649218 -7.47082e-08 0)
(-0.646316 -7.36906e-08 0)
(-0.643453 -7.26957e-08 0)
(-0.640629 -7.17231e-08 0)
(-0.637842 -7.07719e-08 0)
(-0.635092 -6.98415e-08 0)
(-0.632379 -6.89313e-08 0)
(-0.6297 -6.80407e-08 0)
(-0.627056 -6.71692e-08 0)
(-0.624446 -6.6316e-08 0)
(-0.621868 -6.54808e-08 0)
(-0.619323 -6.4663e-08 0)
(-0.61681 -6.38621e-08 0)
(-0.614327 -6.30776e-08 0)
(-0.611875 -6.2309e-08 0)
(-0.609453 -6.1556e-08 0)
(-0.60706 -6.0818e-08 0)
(-0.604695 -6.00948e-08 0)
(-0.602359 -5.93858e-08 0)
(-0.60005 -5.86906e-08 0)
(-0.597767 -5.80091e-08 0)
(-0.595512 -5.73406e-08 0)
(-0.593282 -5.6685e-08 0)
(-0.591077 -5.60419e-08 0)
(-0.588898 -5.5411e-08 0)
(-0.586743 -5.47919e-08 0)
(-0.584611 -5.41844e-08 0)
(-0.582504 -5.35881e-08 0)
(-0.580419 -5.30029e-08 0)
(-0.578358 -5.24284e-08 0)
(-0.576318 -5.18644e-08 0)
(-0.5743 -5.13106e-08 0)
(-0.572304 -5.07668e-08 0)
(-0.570329 -5.02328e-08 0)
(-0.568375 -4.97084e-08 0)
(-0.56644 -4.91933e-08 0)
(-0.564526 -4.86873e-08 0)
(-0.562632 -4.81903e-08 0)
(-0.560757 -4.77021e-08 0)
(-0.5589 -4.72224e-08 0)
(-0.557063 -4.67513e-08 0)
(-0.555243 -4.62884e-08 0)
(-0.553442 -4.58338e-08 0)
(-0.551658 -4.53871e-08 0)
(-0.549891 -4.49485e-08 0)
(-0.548141 -4.45177e-08 0)
(-0.546409 -4.40948e-08 0)
(-0.544692 -4.36796e-08 0)
(-0.542992 -4.32723e-08 0)
(-0.541307 -4.28728e-08 0)
(-0.539638 -4.24812e-08 0)
(-0.537984 -4.20979e-08 0)
(-0.536345 -4.17229e-08 0)
(-0.53472 -4.13568e-08 0)
(-0.53311 -4.10002e-08 0)
(-0.531513 -4.06539e-08 0)
(-0.529929 -4.03195e-08 0)
(-0.528359 -3.99981e-08 0)
(-0.5268 -3.9693e-08 0)
(-0.525254 -3.94163e-08 0)
(-0.523717 -3.91387e-08 0)
(-0.522192 -3.8918e-08 0)
(-0.520673 -3.89749e-08 0)
(-0.519143 -3.83073e-08 0)
(-0.517676 -3.74372e-08 0)
(-0.516214 -4.95065e-08 0)
(-0.513803 -1.37705e-08 0)
(-0.515149 -3.64861e-08 0)
(-0.510906 -5.51626e-08 0)
)
;
    }
    symmetry
    {
        type            symmetryPlane;
    }
    frontAndBack
    {
        type            empty;
    }
}


// ************************************************************************* //
