/*--------------------------------*- C++ -*----------------------------------*\
| =========                 |                                                 |
| \\      /  F ield         | OpenFOAM: The Open Source CFD Toolbox           |
|  \\    /   O peration     | Version:  v2012                                 |
|   \\  /    A nd           | Website:  www.openfoam.com                      |
|    \\/     M anipulation  |                                                 |
\*---------------------------------------------------------------------------*/
FoamFile
{
    version     2.0;
    format      ascii;
    class       volScalarField;
    location    "55";
    object      k;
}
// * * * * * * * * * * * * * * * * * * * * * * * * * * * * * * * * * * * * * //

dimensions      [0 2 -2 0 0 0 0];


internalField   nonuniform List<scalar> 
209825
(
0.00102387
0.000932973
0.00085744
0.000792517
0.000735915
0.000686646
0.0006439
0.000606978
0.00057503
0.000547386
0.0005233
0.000502296
0.000483793
0.000467508
0.000452998
0.000440121
0.000428519
0.000418151
0.000408713
0.000400236
0.000392444
0.000385418
0.000378901
0.000373011
0.000367497
0.000362511
0.000357795
0.000353538
0.000349472
0.00034581
0.000342275
0.000339104
0.00033601
0.00033325
0.000330524
0.00032811
0.000325695
0.000323575
0.000321426
0.000319558
0.000317636
0.000315984
0.00031426
0.000312794
0.00031124
0.000309937
0.000308532
0.000307372
0.000306097
0.000305063
0.000303903
0.000302978
0.000301922
0.000301094
0.00030013
0.000299389
0.000298506
0.000297844
0.000297035
0.000296439
0.000295701
0.000295164
0.000294489
0.000294003
0.000293387
0.000292948
0.000292384
0.000291987
0.00029147
0.000291112
0.000290637
0.000290314
0.000289884
0.000289599
0.000289194
0.000288923
0.00028853
0.000288271
0.00028789
0.000287642
0.000287273
0.000287037
0.00028668
0.000286458
0.000286112
0.000285909
0.000285572
0.000285391
0.000285063
0.000284905
0.000284584
0.00028445
0.000284115
0.000287292
0.0126389
0.0151377
0.00102387
0.000932973
0.00085744
0.000792517
0.000735916
0.000686647
0.000643901
0.000606979
0.00057503
0.000547386
0.000523299
0.000502294
0.000483791
0.000467506
0.000452996
0.000440118
0.000428515
0.000418147
0.000408709
0.000400231
0.000392439
0.000385413
0.000378895
0.000373006
0.000367491
0.000362505
0.000357789
0.000353532
0.000349466
0.000345803
0.000342268
0.000339097
0.000336003
0.000333243
0.000330517
0.000328102
0.000325687
0.000323567
0.000321418
0.000319549
0.000317628
0.000315976
0.000314251
0.000312786
0.000311231
0.000309929
0.000308523
0.000307363
0.000306089
0.000305054
0.000303894
0.000302969
0.000301913
0.000301085
0.00030012
0.00029938
0.000298497
0.000297834
0.000297025
0.00029643
0.000295692
0.000295154
0.00029448
0.000293994
0.000293378
0.000292938
0.000292374
0.000291978
0.00029146
0.000291102
0.000290627
0.000290304
0.000289875
0.000289589
0.000289184
0.000288913
0.00028852
0.000288261
0.00028788
0.000287632
0.000287263
0.000287027
0.00028667
0.000286448
0.000286102
0.000285899
0.000285561
0.000285381
0.000285053
0.000284895
0.000284574
0.000284439
0.000284105
0.000287285
0.0126481
0.0151524
0.00102387
0.000932973
0.00085744
0.000792519
0.000735919
0.00068665
0.000643903
0.00060698
0.000575029
0.000547383
0.000523294
0.000502287
0.000483781
0.000467495
0.000452982
0.000440102
0.000428499
0.000418129
0.000408689
0.00040021
0.000392417
0.00038539
0.000378871
0.00037298
0.000367464
0.000362477
0.000357761
0.000353503
0.000349436
0.000345773
0.000342237
0.000339066
0.000335971
0.00033321
0.000330484
0.000328068
0.000325653
0.000323533
0.000321383
0.000319514
0.000317593
0.00031594
0.000314215
0.000312749
0.000311195
0.000309892
0.000308486
0.000307326
0.000306051
0.000305016
0.000303856
0.000302931
0.000301874
0.000301046
0.000300081
0.000299341
0.000298457
0.000297794
0.000296985
0.00029639
0.000295651
0.000295114
0.000294439
0.000293953
0.000293337
0.000292897
0.000292333
0.000291936
0.000291419
0.000291061
0.000290585
0.000290263
0.000289833
0.000289548
0.000289142
0.000288871
0.000288478
0.000288219
0.000287838
0.00028759
0.00028722
0.000286984
0.000286627
0.000286405
0.000286059
0.000285855
0.000285518
0.000285338
0.00028501
0.000284851
0.00028453
0.000284396
0.000284061
0.000287249
0.0126639
0.0151843
0.00102387
0.000932972
0.000857441
0.000792522
0.000735923
0.000686655
0.000643907
0.000606981
0.000575027
0.000547378
0.000523285
0.000502274
0.000483765
0.000467475
0.000452959
0.000440077
0.00042847
0.000418098
0.000408656
0.000400175
0.000392379
0.00038535
0.000378829
0.000372937
0.00036742
0.000362431
0.000357714
0.000353455
0.000349386
0.000345722
0.000342185
0.000339013
0.000335917
0.000333155
0.000330428
0.000328012
0.000325596
0.000323475
0.000321324
0.000319455
0.000317533
0.00031588
0.000314154
0.000312688
0.000311133
0.000309829
0.000308423
0.000307262
0.000305987
0.000304951
0.000303791
0.000302866
0.000301809
0.000300981
0.000300015
0.000299274
0.000298391
0.000297728
0.000296918
0.000296322
0.000295584
0.000295046
0.000294371
0.000293885
0.000293268
0.000292828
0.000292264
0.000291867
0.000291349
0.000290991
0.000290515
0.000290193
0.000289762
0.000289477
0.000289071
0.0002888
0.000288407
0.000288147
0.000287766
0.000287518
0.000287148
0.000286912
0.000286555
0.000286333
0.000285986
0.000285783
0.000285445
0.000285265
0.000284937
0.000284778
0.000284457
0.000284322
0.000283988
0.000287187
0.0126879
0.0152344
0.00102387
0.000932971
0.000857441
0.000792526
0.00073593
0.000686662
0.000643913
0.000606983
0.000575025
0.00054737
0.000523272
0.000502256
0.000483742
0.000467447
0.000452927
0.00044004
0.00042843
0.000418054
0.000408609
0.000400124
0.000392326
0.000385294
0.000378771
0.000372876
0.000367357
0.000362366
0.000357647
0.000353386
0.000349316
0.00034565
0.000342111
0.000338938
0.000335841
0.000333078
0.00033035
0.000327932
0.000325515
0.000323393
0.000321242
0.000319371
0.000317448
0.000315794
0.000314068
0.000312601
0.000311045
0.000309741
0.000308334
0.000307173
0.000305897
0.000304861
0.0003037
0.000302774
0.000301716
0.000300888
0.000299922
0.000299181
0.000298296
0.000297633
0.000296823
0.000296227
0.000295488
0.00029495
0.000294274
0.000293788
0.000293171
0.00029273
0.000292166
0.000291769
0.000291251
0.000290892
0.000290416
0.000290093
0.000289663
0.000289377
0.000288971
0.000288699
0.000288306
0.000288047
0.000287665
0.000287417
0.000287047
0.000286811
0.000286453
0.000286231
0.000285884
0.00028568
0.000285342
0.000285162
0.000284833
0.000284675
0.000284353
0.000284218
0.000283884
0.000287098
0.0127206
0.0153036
0.00102387
0.00093297
0.000857443
0.000792531
0.000735939
0.000686672
0.00064392
0.000606985
0.000575021
0.00054736
0.000523256
0.000502233
0.000483713
0.000467411
0.000452886
0.000439993
0.000428378
0.000417997
0.000408548
0.000400059
0.000392257
0.000385222
0.000378695
0.000372798
0.000367275
0.000362282
0.00035756
0.000353297
0.000349225
0.000345556
0.000342016
0.000338841
0.000335742
0.000332977
0.000330248
0.000327829
0.000325411
0.000323287
0.000321134
0.000319263
0.000317339
0.000315684
0.000313957
0.000312488
0.000310931
0.000309627
0.000308219
0.000307057
0.00030578
0.000304743
0.000303582
0.000302655
0.000301597
0.000300768
0.000299801
0.000299059
0.000298174
0.000297511
0.0002967
0.000296103
0.000295364
0.000294825
0.000294149
0.000293663
0.000293045
0.000292604
0.000292039
0.000291642
0.000291123
0.000290765
0.000290288
0.000289965
0.000289534
0.000289248
0.000288842
0.00028857
0.000288176
0.000287916
0.000287535
0.000287286
0.000286916
0.000286679
0.000286321
0.000286098
0.000285752
0.000285548
0.000285209
0.000285029
0.0002847
0.000284541
0.000284218
0.000284084
0.000283749
0.000286984
0.0127627
0.0153931
0.00102387
0.000932968
0.000857444
0.000792538
0.00073595
0.000686683
0.000643928
0.000606989
0.000575017
0.000547348
0.000523236
0.000502205
0.000483676
0.000467367
0.000452835
0.000439935
0.000428314
0.000417927
0.000408473
0.000399979
0.000392172
0.000385133
0.000378602
0.000372701
0.000367175
0.000362178
0.000357453
0.000353187
0.000349112
0.000345441
0.000341899
0.000338721
0.000335621
0.000332854
0.000330122
0.000327702
0.000325282
0.000323156
0.000321002
0.00031913
0.000317204
0.000315548
0.000313819
0.00031235
0.000310792
0.000309486
0.000308077
0.000306914
0.000305636
0.000304599
0.000303436
0.000302509
0.00030145
0.00030062
0.000299652
0.00029891
0.000298024
0.00029736
0.000296549
0.000295951
0.000295211
0.000294672
0.000293995
0.000293508
0.00029289
0.000292449
0.000291883
0.000291485
0.000290966
0.000290607
0.00029013
0.000289807
0.000289375
0.000289089
0.000288682
0.00028841
0.000288016
0.000287756
0.000287373
0.000287125
0.000286754
0.000286517
0.000286158
0.000285936
0.000285588
0.000285384
0.000285045
0.000284864
0.000284535
0.000284376
0.000284053
0.000283918
0.000283584
0.000286843
0.0128148
0.0155036
0.00102386
0.000932966
0.000857446
0.000792546
0.000735962
0.000686696
0.000643939
0.000606992
0.000575013
0.000547334
0.000523212
0.000502171
0.000483633
0.000467315
0.000452774
0.000439867
0.000428238
0.000417845
0.000408383
0.000399884
0.000392071
0.000385027
0.000378491
0.000372585
0.000367055
0.000362055
0.000357326
0.000353057
0.000348979
0.000345305
0.000341759
0.000338579
0.000335476
0.000332707
0.000329973
0.00032755
0.000325129
0.000323001
0.000320845
0.000318971
0.000317043
0.000315386
0.000313656
0.000312185
0.000310625
0.000309318
0.000307908
0.000306744
0.000305465
0.000304426
0.000303263
0.000302334
0.000301274
0.000300443
0.000299475
0.000298732
0.000297845
0.00029718
0.000296368
0.00029577
0.000295029
0.000294489
0.000293812
0.000293324
0.000292706
0.000292264
0.000291697
0.000291299
0.000290779
0.00029042
0.000289942
0.000289618
0.000289186
0.0002889
0.000288492
0.00028822
0.000287825
0.000287565
0.000287182
0.000286933
0.000286561
0.000286324
0.000285965
0.000285742
0.000285394
0.00028519
0.00028485
0.000284669
0.000284339
0.000284179
0.000283855
0.000283721
0.000283386
0.000286676
0.0128773
0.0156361
0.00102386
0.000932964
0.000857448
0.000792555
0.000735977
0.000686712
0.000643951
0.000606997
0.000575008
0.000547318
0.000523185
0.000502132
0.000483584
0.000467255
0.000452704
0.000439787
0.00042815
0.000417748
0.00040828
0.000399773
0.000391954
0.000384904
0.000378363
0.000372452
0.000366917
0.000361912
0.000357179
0.000352905
0.000348824
0.000345146
0.000341598
0.000338414
0.000335308
0.000332536
0.0003298
0.000327374
0.00032495
0.000322821
0.000320663
0.000318786
0.000316857
0.000315197
0.000313466
0.000311993
0.000310432
0.000309124
0.000307712
0.000306546
0.000305266
0.000304226
0.000303061
0.000302132
0.00030107
0.000300239
0.000299269
0.000298525
0.000297637
0.000296971
0.000296158
0.00029556
0.000294818
0.000294277
0.000293599
0.00029311
0.000292491
0.000292048
0.000291481
0.000291082
0.000290562
0.000290202
0.000289723
0.000289399
0.000288966
0.000288679
0.000288271
0.000287998
0.000287603
0.000287342
0.000286959
0.000286709
0.000286337
0.0002861
0.00028574
0.000285516
0.000285168
0.000284963
0.000284623
0.000284441
0.00028411
0.000283951
0.000283626
0.000283492
0.000283157
0.000286482
0.0129504
0.0157911
0.00102386
0.000932961
0.00085745
0.000792566
0.000735994
0.000686731
0.000643965
0.000607003
0.000575003
0.0005473
0.000523154
0.000502088
0.000483527
0.000467186
0.000452624
0.000439697
0.00042805
0.000417639
0.000408162
0.000399647
0.000391821
0.000384764
0.000378216
0.000372299
0.000366759
0.000361748
0.000357011
0.000352732
0.000348647
0.000344965
0.000341413
0.000338226
0.000335116
0.000332341
0.000329602
0.000327174
0.000324747
0.000322615
0.000320454
0.000318576
0.000316644
0.000314982
0.000313249
0.000311774
0.000310211
0.000308901
0.000307488
0.000306321
0.000305039
0.000303997
0.000302831
0.000301901
0.000300838
0.000300005
0.000299034
0.000298289
0.0002974
0.000296733
0.000295919
0.000295319
0.000294576
0.000294035
0.000293356
0.000292866
0.000292246
0.000291803
0.000291235
0.000290835
0.000290313
0.000289953
0.000289473
0.000289149
0.000288715
0.000288428
0.000288019
0.000287745
0.000287349
0.000287088
0.000286704
0.000286454
0.000286081
0.000285844
0.000285482
0.000285259
0.000284909
0.000284704
0.000284363
0.000284181
0.00028385
0.00028369
0.000283364
0.000283229
0.000282894
0.000286262
0.0130344
0.0159692
0.00102386
0.000932958
0.000857452
0.000792577
0.000736014
0.000686751
0.000643981
0.00060701
0.000574997
0.000547281
0.00052312
0.000502039
0.000483464
0.00046711
0.000452535
0.000439596
0.000427938
0.000417516
0.00040803
0.000399506
0.000391672
0.000384606
0.000378052
0.000372128
0.000366581
0.000361565
0.000356822
0.000352538
0.000348448
0.000344762
0.000341205
0.000338014
0.000334901
0.000332122
0.000329379
0.000326948
0.000324518
0.000322383
0.00032022
0.000318339
0.000316405
0.000314741
0.000313004
0.000311528
0.000309963
0.000308651
0.000307236
0.000306067
0.000304783
0.00030374
0.000302572
0.00030164
0.000300576
0.000299741
0.000298769
0.000298023
0.000297133
0.000296464
0.000295649
0.000295048
0.000294304
0.000293762
0.000293082
0.000292591
0.00029197
0.000291526
0.000290957
0.000290556
0.000290034
0.000289673
0.000289192
0.000288867
0.000288432
0.000288145
0.000287735
0.000287461
0.000287064
0.000286802
0.000286417
0.000286167
0.000285793
0.000285555
0.000285193
0.000284969
0.000284618
0.000284413
0.000284071
0.000283889
0.000283556
0.000283396
0.000283069
0.000282934
0.000282599
0.000286014
0.0131292
0.0161711
0.00102386
0.000932954
0.000857455
0.00079259
0.000736035
0.000686774
0.000644
0.000607017
0.000574992
0.000547259
0.000523082
0.000501986
0.000483395
0.000467025
0.000452437
0.000439484
0.000427814
0.000417381
0.000407883
0.000399349
0.000391506
0.000384432
0.000377869
0.000371938
0.000366384
0.000361361
0.000356612
0.000352323
0.000348227
0.000344535
0.000340974
0.000337778
0.000334661
0.000331878
0.000329132
0.000326697
0.000324264
0.000322125
0.000319959
0.000318075
0.000316138
0.000314471
0.000312733
0.000311254
0.000309687
0.000308372
0.000306955
0.000305784
0.000304498
0.000303454
0.000302284
0.00030135
0.000300284
0.000299448
0.000298475
0.000297727
0.000296835
0.000296166
0.000295349
0.000294747
0.000294001
0.000293458
0.000292776
0.000292285
0.000291662
0.000291218
0.000290647
0.000290246
0.000289723
0.000289361
0.000288879
0.000288553
0.000288118
0.000287829
0.000287418
0.000287144
0.000286746
0.000286484
0.000286097
0.000285847
0.000285472
0.000285233
0.00028487
0.000284646
0.000284294
0.000284089
0.000283745
0.000283563
0.000283229
0.000283068
0.00028274
0.000282606
0.00028227
0.000285739
0.0132345
0.0163969
0.00102386
0.000932951
0.000857458
0.000792605
0.000736059
0.0006868
0.00064402
0.000607027
0.000574986
0.000547236
0.000523042
0.000501927
0.000483319
0.000466933
0.000452329
0.000439361
0.000427677
0.000417231
0.000407723
0.000399177
0.000391324
0.00038424
0.000377669
0.000371728
0.000366167
0.000361137
0.000356381
0.000352085
0.000347983
0.000344286
0.00034072
0.000337519
0.000334397
0.00033161
0.000328859
0.00032642
0.000323983
0.000321841
0.000319672
0.000317784
0.000315844
0.000314175
0.000312433
0.000310952
0.000309382
0.000308065
0.000306646
0.000305473
0.000304185
0.000303138
0.000301966
0.000301031
0.000299963
0.000299125
0.00029815
0.0002974
0.000296507
0.000295836
0.000295018
0.000294415
0.000293668
0.000293123
0.00029244
0.000291948
0.000291324
0.000290878
0.000290306
0.000289904
0.000289379
0.000289017
0.000288534
0.000288207
0.00028777
0.000287481
0.000287069
0.000286794
0.000286395
0.000286132
0.000285745
0.000285494
0.000285118
0.000284879
0.000284515
0.00028429
0.000283937
0.000283731
0.000283386
0.000283203
0.000282868
0.000282707
0.000282378
0.000282243
0.000281908
0.000285436
0.0133498
0.0166469
0.00102386
0.000932947
0.000857461
0.00079262
0.000736085
0.000686828
0.000644043
0.000607037
0.000574981
0.000547212
0.000522998
0.000501864
0.000483237
0.000466833
0.000452212
0.000439228
0.000427529
0.000417069
0.000407547
0.00039899
0.000391125
0.00038403
0.000377449
0.0003715
0.00036593
0.000360892
0.000356129
0.000351826
0.000347718
0.000344014
0.000340442
0.000337236
0.000334109
0.000331316
0.000328561
0.000326118
0.000323677
0.000321531
0.000319358
0.000317466
0.000315523
0.00031385
0.000312106
0.000310622
0.000309049
0.000307729
0.000306307
0.000305132
0.000303841
0.000302793
0.000301619
0.000300681
0.000299611
0.000298772
0.000297794
0.000297043
0.000296148
0.000295475
0.000294656
0.000294051
0.000293302
0.000292756
0.000292072
0.000291578
0.000290953
0.000290506
0.000289933
0.00028953
0.000289003
0.00028864
0.000288156
0.000287828
0.00028739
0.0002871
0.000286687
0.000286411
0.000286011
0.000285748
0.000285359
0.000285107
0.00028473
0.000284491
0.000284125
0.0002839
0.000283546
0.000283339
0.000282993
0.00028281
0.000282473
0.000282311
0.000281981
0.000281846
0.000281511
0.000285106
0.0134743
0.0169211
0.00102386
0.000932942
0.000857464
0.000792637
0.000736113
0.00068686
0.000644069
0.00060705
0.000574976
0.000547187
0.000522952
0.000501796
0.000483149
0.000466725
0.000452085
0.000439084
0.000427369
0.000416893
0.000407357
0.000398786
0.00039091
0.000383803
0.000377212
0.000371252
0.000365674
0.000360626
0.000355855
0.000351544
0.000347429
0.000343719
0.00034014
0.000336928
0.000333795
0.000330998
0.000328238
0.000325789
0.000323344
0.000321193
0.000319016
0.000317121
0.000315174
0.000313498
0.00031175
0.000310263
0.000308687
0.000307364
0.000305939
0.000304761
0.000303468
0.000302417
0.000301241
0.000300301
0.000299228
0.000298387
0.000297408
0.000296655
0.000295758
0.000295083
0.000294262
0.000293655
0.000292905
0.000292357
0.000291671
0.000291176
0.000290549
0.000290101
0.000289527
0.000289123
0.000288595
0.00028823
0.000287745
0.000287416
0.000286977
0.000286686
0.000286272
0.000285995
0.000285593
0.000285329
0.000284939
0.000284687
0.000284308
0.000284068
0.000283702
0.000283476
0.00028312
0.000282913
0.000282566
0.000282381
0.000282044
0.000281881
0.000281549
0.000281414
0.000281079
0.000284747
0.0136069
0.0172194
0.00102386
0.000932937
0.000857467
0.000792655
0.000736144
0.000686893
0.000644097
0.000607064
0.000574971
0.00054716
0.000522903
0.000501724
0.000483055
0.000466609
0.00045195
0.000438929
0.000427197
0.000416704
0.000407153
0.000398568
0.000390678
0.000383559
0.000376956
0.000370985
0.000365397
0.00036034
0.00035556
0.000351241
0.000347118
0.0003434
0.000339815
0.000336596
0.000333457
0.000330654
0.000327888
0.000325435
0.000322984
0.000320829
0.000318648
0.000316748
0.000314797
0.000313117
0.000311366
0.000309875
0.000308295
0.00030697
0.000305542
0.000304361
0.000303065
0.000302011
0.000300832
0.00029989
0.000298815
0.000297972
0.00029699
0.000296235
0.000295336
0.00029466
0.000293836
0.000293228
0.000292475
0.000291926
0.000291238
0.000290742
0.000290113
0.000289664
0.000289088
0.000288682
0.000288153
0.000287787
0.0002873
0.000286971
0.00028653
0.000286238
0.000285822
0.000285545
0.000285142
0.000284877
0.000284486
0.000284233
0.000283853
0.000283612
0.000283244
0.000283017
0.00028266
0.000282452
0.000282103
0.000281918
0.000281579
0.000281416
0.000281082
0.000280947
0.000280613
0.00028436
0.0137462
0.0175413
0.00102386
0.000932932
0.00085747
0.000792675
0.000736177
0.00068693
0.000644127
0.000607079
0.000574967
0.000547133
0.000522852
0.000501648
0.000482955
0.000466486
0.000451805
0.000438764
0.000427013
0.000416502
0.000406935
0.000398334
0.00039043
0.000383297
0.000376682
0.000370699
0.0003651
0.000360032
0.000355243
0.000350915
0.000346784
0.000343058
0.000339465
0.000336239
0.000333094
0.000330284
0.000327513
0.000325054
0.000322598
0.000320438
0.000318251
0.000316347
0.000314392
0.000312708
0.000310952
0.000309458
0.000307875
0.000306546
0.000305114
0.000303931
0.000302632
0.000301575
0.000300393
0.000299448
0.000298371
0.000297525
0.000296541
0.000295784
0.000294882
0.000294204
0.000293378
0.000292768
0.000292014
0.000291463
0.000290773
0.000290275
0.000289644
0.000289193
0.000288615
0.000288209
0.000287677
0.000287311
0.000286822
0.000286491
0.000286049
0.000285756
0.000285339
0.00028506
0.000284656
0.00028439
0.000283997
0.000283744
0.000283362
0.000283121
0.000282751
0.000282524
0.000282165
0.000281956
0.000281606
0.00028142
0.00028108
0.000280915
0.00028058
0.000280445
0.00028011
0.000283945
0.0138904
0.0178863
0.00102386
0.000932926
0.000857474
0.000792696
0.000736213
0.00068697
0.000644161
0.000607097
0.000574964
0.000547105
0.000522798
0.000501567
0.00048285
0.000466356
0.000451652
0.000438588
0.000426817
0.000416287
0.000406702
0.000398084
0.000390165
0.000383017
0.000376389
0.000370394
0.000364783
0.000359704
0.000354905
0.000350567
0.000346427
0.000342692
0.000339092
0.000335858
0.000332706
0.000329889
0.000327111
0.000324646
0.000322185
0.000320019
0.000317828
0.000315919
0.000313959
0.00031227
0.00031051
0.000309012
0.000307425
0.000306092
0.000304657
0.00030347
0.000302167
0.000301108
0.000299923
0.000298975
0.000297895
0.000297047
0.00029606
0.0002953
0.000294396
0.000293716
0.000292887
0.000292275
0.000291519
0.000290966
0.000290274
0.000289775
0.000289142
0.00028869
0.000288109
0.000287702
0.000287168
0.000286801
0.00028631
0.000285978
0.000285534
0.00028524
0.000284821
0.000284542
0.000284135
0.000283869
0.000283474
0.00028322
0.000282837
0.000282594
0.000282223
0.000281995
0.000281634
0.000281425
0.000281073
0.000280887
0.000280544
0.000280379
0.000280042
0.000279907
0.000279573
0.0002835
0.0140372
0.0182534
0.00102386
0.00093292
0.000857478
0.000792717
0.000736251
0.000687013
0.000644198
0.000607117
0.000574962
0.000547076
0.000522742
0.000501483
0.000482739
0.000466218
0.00045149
0.000438403
0.00042661
0.000416059
0.000406456
0.00039782
0.000389884
0.000382721
0.000376078
0.000370069
0.000364446
0.000359355
0.000354545
0.000350196
0.000346047
0.000342303
0.000338694
0.000335452
0.000332292
0.000329468
0.000326684
0.000324212
0.000321744
0.000319573
0.000317376
0.000315462
0.000313497
0.000311803
0.000310039
0.000308536
0.000306945
0.000305609
0.000304169
0.000302979
0.000301673
0.00030061
0.000299422
0.000298471
0.000297388
0.000296537
0.000295547
0.000294785
0.000293878
0.000293195
0.000292364
0.00029175
0.000290991
0.000290437
0.000289742
0.000289241
0.000288606
0.000288152
0.00028757
0.000287161
0.000286625
0.000286256
0.000285763
0.000285431
0.000284985
0.00028469
0.000284269
0.000283988
0.00028358
0.000283313
0.000282916
0.000282661
0.000282276
0.000282033
0.000281659
0.000281431
0.000281068
0.000280859
0.000280504
0.000280317
0.000279973
0.000279807
0.000279467
0.000279332
0.000278999
0.000283025
0.0141839
0.0186412
0.00102385
0.000932914
0.000857481
0.000792741
0.000736291
0.000687059
0.000644237
0.00060714
0.000574961
0.000547048
0.000522684
0.000501396
0.000482623
0.000466074
0.00045132
0.000438207
0.000426391
0.000415819
0.000406195
0.00039754
0.000389587
0.000382407
0.000375749
0.000369725
0.000364089
0.000358985
0.000354164
0.000349804
0.000345644
0.00034189
0.000338272
0.000335021
0.000331853
0.000329022
0.00032623
0.000323751
0.000321277
0.000319099
0.000316896
0.000314977
0.000313006
0.000311308
0.000309538
0.000308031
0.000306435
0.000305095
0.000303652
0.000302457
0.000301147
0.000300081
0.000298889
0.000297935
0.000296848
0.000295995
0.000295001
0.000294237
0.000293327
0.000292642
0.000291808
0.000291192
0.00029043
0.000289874
0.000289177
0.000288674
0.000288036
0.000287581
0.000286996
0.000286585
0.000286048
0.000285677
0.000285183
0.000284848
0.0002844
0.000284104
0.000283681
0.0002834
0.00028299
0.000282721
0.000282323
0.000282067
0.00028168
0.000281436
0.00028106
0.000280831
0.000280466
0.000280256
0.0002799
0.000279711
0.000279365
0.000279198
0.000278857
0.000278721
0.000278388
0.00028252
0.0143276
0.0190481
0.00102385
0.000932907
0.000857485
0.000792765
0.000736334
0.000687108
0.00064428
0.000607165
0.000574962
0.000547019
0.000522625
0.000501305
0.000482502
0.000465923
0.000451142
0.000438002
0.000426162
0.000415566
0.000405921
0.000397245
0.000389273
0.000382075
0.000375402
0.000369363
0.000363712
0.000358595
0.000353761
0.000349389
0.000345218
0.000341454
0.000337826
0.000334566
0.000331389
0.000328549
0.00032575
0.000323264
0.000320783
0.000318598
0.000316389
0.000314463
0.000312487
0.000310783
0.000309009
0.000307496
0.000305896
0.000304551
0.000303103
0.000301905
0.000300591
0.000299521
0.000298325
0.000297368
0.000296277
0.00029542
0.000294424
0.000293657
0.000292744
0.000292056
0.00029122
0.000290601
0.000289836
0.000289277
0.000288578
0.000288073
0.000287433
0.000286975
0.000286388
0.000285976
0.000285436
0.000285064
0.000284567
0.000284231
0.000283781
0.000283484
0.000283059
0.000282776
0.000282364
0.000282094
0.000281694
0.000281437
0.000281048
0.000280803
0.000280425
0.000280195
0.000279828
0.000279617
0.000279259
0.00027907
0.000278721
0.000278553
0.000278209
0.000278074
0.000277742
0.000281984
0.0144648
0.0194717
0.00102385
0.000932899
0.000857489
0.000792791
0.00073638
0.00068716
0.000644326
0.000607193
0.000574964
0.000546991
0.000522565
0.000501212
0.000482376
0.000465766
0.000450955
0.000437788
0.000425921
0.0004153
0.000405633
0.000396935
0.000388944
0.000381727
0.000375037
0.000368981
0.000363315
0.000358184
0.000353337
0.000348952
0.000344769
0.000340994
0.000337356
0.000334086
0.0003309
0.000328051
0.000325244
0.00032275
0.000320261
0.00031807
0.000315854
0.000313921
0.000311939
0.000310229
0.000308449
0.000306932
0.000305326
0.000303976
0.000302524
0.000301321
0.000300003
0.000298929
0.000297729
0.000296769
0.000295674
0.000294814
0.000293814
0.000293044
0.000292127
0.000291437
0.000290597
0.000289976
0.000289209
0.000288647
0.000287945
0.000287438
0.000286795
0.000286336
0.000285746
0.000285332
0.00028479
0.000284416
0.000283916
0.000283579
0.000283127
0.000282828
0.000282401
0.000282117
0.000281703
0.000281432
0.00028103
0.000280771
0.00028038
0.000280134
0.000279754
0.000279523
0.000279154
0.000278942
0.000278581
0.000278391
0.000278041
0.000277872
0.000277525
0.00027739
0.000277058
0.000281416
0.0145914
0.0199092
0.00102385
0.000932891
0.000857493
0.000792817
0.000736428
0.000687216
0.000644376
0.000607223
0.000574969
0.000546963
0.000522504
0.000501115
0.000482246
0.000465603
0.000450761
0.000437564
0.00042567
0.000415023
0.000405332
0.000396611
0.000388599
0.000381362
0.000374654
0.00036858
0.000362899
0.000357752
0.000352891
0.000348493
0.000344298
0.000340511
0.000336862
0.000333581
0.000330386
0.000327527
0.000324711
0.000322209
0.000319713
0.000317513
0.00031529
0.000313351
0.000311363
0.000309647
0.000307861
0.000306337
0.000304727
0.000303372
0.000301914
0.000300707
0.000299384
0.000298306
0.000297102
0.000296137
0.000295039
0.000294175
0.000293172
0.000292398
0.000291478
0.000290785
0.000289942
0.000289318
0.000288547
0.000287984
0.000287278
0.000286769
0.000286123
0.000285662
0.000285069
0.000284653
0.000284108
0.000283733
0.000283231
0.000282892
0.000282437
0.000282137
0.000281708
0.000281422
0.000281006
0.000280734
0.000280329
0.000280069
0.000279676
0.000279429
0.000279047
0.000278815
0.000278443
0.00027823
0.000277867
0.000277676
0.000277323
0.000277153
0.000276804
0.000276668
0.000276338
0.000280816
0.0147031
0.0203573
0.00102385
0.000932883
0.000857496
0.000792845
0.000736478
0.000687275
0.000644429
0.000607257
0.000574975
0.000546936
0.000522441
0.000501016
0.000482112
0.000465434
0.00045056
0.000437331
0.000425409
0.000414734
0.000405018
0.000396273
0.000388239
0.000380981
0.000374253
0.000368161
0.000362463
0.0003573
0.000352424
0.000348012
0.000343804
0.000340004
0.000336344
0.000333052
0.000329847
0.000326978
0.000324153
0.000321641
0.000319137
0.00031693
0.000314699
0.000312753
0.000310757
0.000309035
0.000307243
0.000305713
0.000304097
0.000302737
0.000301274
0.000300062
0.000298734
0.000297651
0.000296443
0.000295474
0.000294372
0.000293504
0.000292497
0.00029172
0.000290796
0.000290099
0.000289253
0.000288626
0.000287852
0.000287286
0.000286578
0.000286065
0.000285417
0.000284953
0.000284358
0.00028394
0.000283392
0.000283015
0.00028251
0.00028217
0.000281713
0.000281411
0.000280979
0.000280692
0.000280273
0.00028
0.000279593
0.000279332
0.000278936
0.000278688
0.000278303
0.00027807
0.000277696
0.000277482
0.000277116
0.000276924
0.000276568
0.000276397
0.000276045
0.00027591
0.00027558
0.000280182
0.0147951
0.0208116
0.00102385
0.000932875
0.0008575
0.000792874
0.000736531
0.000687337
0.000644486
0.000607294
0.000574984
0.00054691
0.000522379
0.000500916
0.000481975
0.00046526
0.000450352
0.00043709
0.000425138
0.000414433
0.000404691
0.00039592
0.000387864
0.000380583
0.000373835
0.000367724
0.000362008
0.000356828
0.000351937
0.000347509
0.000343288
0.000339475
0.000335802
0.000332498
0.000329282
0.000326403
0.000323568
0.000321047
0.000318534
0.000316318
0.00031408
0.000312126
0.000310123
0.000308394
0.000306595
0.00030506
0.000303437
0.000302071
0.000300603
0.000299386
0.000298052
0.000296965
0.000295752
0.000294779
0.000293672
0.000292801
0.000291789
0.000291008
0.000290081
0.000289381
0.000288531
0.000287901
0.000287124
0.000286554
0.000285843
0.000285328
0.000284676
0.00028421
0.000283612
0.000283192
0.000282641
0.000282262
0.000281754
0.000281412
0.000280952
0.000280649
0.000280214
0.000279926
0.000279504
0.00027923
0.00027882
0.000278558
0.000278159
0.00027791
0.000277523
0.000277289
0.000276912
0.000276697
0.000276328
0.000276135
0.000275777
0.000275604
0.000275249
0.000275114
0.000274785
0.000279513
0.0148623
0.0212672
0.00102385
0.000932865
0.000857503
0.000792905
0.000736587
0.000687403
0.000644547
0.000607335
0.000574996
0.000546885
0.000522317
0.000500813
0.000481834
0.000465081
0.000450137
0.000436841
0.000424857
0.000414122
0.000404352
0.000395554
0.000387473
0.000380169
0.0003734
0.000367268
0.000361534
0.000356336
0.000351429
0.000346985
0.00034275
0.000338922
0.000335237
0.000331921
0.000328693
0.000325803
0.000322958
0.000320427
0.000317905
0.00031568
0.000313433
0.000311471
0.000309461
0.000307724
0.000305918
0.000304377
0.000302747
0.000301376
0.000299901
0.000298679
0.00029734
0.000296248
0.00029503
0.000294052
0.000292941
0.000292065
0.000291049
0.000290264
0.000289333
0.000288629
0.000287775
0.000287142
0.000286361
0.000285789