/*--------------------------------*- C++ -*----------------------------------*\
| =========                 |                                                 |
| \\      /  F ield         | OpenFOAM: The Open Source CFD Toolbox           |
|  \\    /   O peration     | Version:  v2012                                 |
|   \\  /    A nd           | Website:  www.openfoam.com                      |
|    \\/     M anipulation  |                                                 |
\*---------------------------------------------------------------------------*/
FoamFile
{
    version     2.0;
    format      ascii;
    class       volScalarField;
    location    "55";
    object      nut;
}
// * * * * * * * * * * * * * * * * * * * * * * * * * * * * * * * * * * * * * //

dimensions      [0 2 -1 0 0 0 0];


internalField   nonuniform List<scalar> 
209825
(
1.24163e-07
1.23573e-07
1.2211e-07
1.18856e-07
1.1396e-07
1.081e-07
1.01928e-07
9.59003e-08
9.02491e-08
8.5087e-08
8.04207e-08
7.62454e-08
7.25031e-08
6.91687e-08
6.61757e-08
6.3505e-08
6.10936e-08
5.89349e-08
5.69715e-08
5.52082e-08
5.35916e-08
5.21357e-08
5.079e-08
4.9576e-08
4.84439e-08
4.7422e-08
4.64597e-08
4.55925e-08
4.47677e-08
4.40255e-08
4.33125e-08
4.26738e-08
4.20531e-08
4.14996e-08
4.09553e-08
4.04733e-08
3.99931e-08
3.95713e-08
3.91455e-08
3.87753e-08
3.83958e-08
3.80695e-08
3.77297e-08
3.74407e-08
3.71347e-08
3.68788e-08
3.66024e-08
3.63746e-08
3.61237e-08
3.59218e-08
3.56928e-08
3.55124e-08
3.53036e-08
3.51427e-08
3.49529e-08
3.48068e-08
3.46327e-08
3.45037e-08
3.43421e-08
3.42274e-08
3.40793e-08
3.39746e-08
3.38382e-08
3.37431e-08
3.36181e-08
3.35303e-08
3.34172e-08
3.33357e-08
3.32301e-08
3.31555e-08
3.30583e-08
3.29909e-08
3.29024e-08
3.28422e-08
3.27579e-08
3.26997e-08
3.26169e-08
3.25604e-08
3.24788e-08
3.24231e-08
3.23414e-08
3.22861e-08
3.22059e-08
3.21504e-08
3.20728e-08
3.20191e-08
3.19416e-08
3.18909e-08
3.18139e-08
3.17644e-08
3.16883e-08
3.16369e-08
3.15537e-08
3.18835e-08
4.34244e-06
3.44806e-08
1.24163e-07
1.23573e-07
1.2211e-07
1.18856e-07
1.13961e-07
1.08101e-07
1.0193e-07
9.59026e-08
9.02516e-08
8.50894e-08
8.04232e-08
7.62478e-08
7.25054e-08
6.9171e-08
6.61779e-08
6.3507e-08
6.10955e-08
5.89367e-08
5.69732e-08
5.52098e-08
5.35931e-08
5.21371e-08
5.07914e-08
4.95773e-08
4.84451e-08
4.74231e-08
4.64607e-08
4.55935e-08
4.47686e-08
4.40264e-08
4.33134e-08
4.26746e-08
4.20539e-08
4.15003e-08
4.0956e-08
4.0474e-08
3.99937e-08
3.95719e-08
3.9146e-08
3.87758e-08
3.83963e-08
3.807e-08
3.77302e-08
3.74411e-08
3.71351e-08
3.68791e-08
3.66028e-08
3.63749e-08
3.6124e-08
3.59221e-08
3.5693e-08
3.55127e-08
3.53039e-08
3.5143e-08
3.49531e-08
3.4807e-08
3.46329e-08
3.45039e-08
3.43422e-08
3.42275e-08
3.40795e-08
3.39747e-08
3.38383e-08
3.37432e-08
3.36182e-08
3.35304e-08
3.34173e-08
3.33358e-08
3.32302e-08
3.31556e-08
3.30584e-08
3.2991e-08
3.29024e-08
3.28422e-08
3.27579e-08
3.26998e-08
3.26169e-08
3.25604e-08
3.24788e-08
3.24231e-08
3.23414e-08
3.22861e-08
3.22059e-08
3.21503e-08
3.20728e-08
3.20191e-08
3.19416e-08
3.18909e-08
3.18139e-08
3.17644e-08
3.16883e-08
3.16369e-08
3.15537e-08
3.18837e-08
4.34135e-06
3.47392e-08
1.24163e-07
1.23573e-07
1.22111e-07
1.18859e-07
1.13966e-07
1.08109e-07
1.01939e-07
9.59122e-08
9.02615e-08
8.50995e-08
8.0433e-08
7.62574e-08
7.25146e-08
6.91797e-08
6.61861e-08
6.35148e-08
6.11029e-08
5.89437e-08
5.69797e-08
5.52159e-08
5.35989e-08
5.21426e-08
5.07965e-08
4.95821e-08
4.84496e-08
4.74274e-08
4.64648e-08
4.55973e-08
4.47722e-08
4.40298e-08
4.33166e-08
4.26776e-08
4.20567e-08
4.1503e-08
4.09585e-08
4.04764e-08
3.99959e-08
3.9574e-08
3.9148e-08
3.87777e-08
3.83981e-08
3.80717e-08
3.77318e-08
3.74426e-08
3.71365e-08
3.68805e-08
3.66041e-08
3.63761e-08
3.61251e-08
3.59232e-08
3.5694e-08
3.55136e-08
3.53048e-08
3.51438e-08
3.49539e-08
3.48077e-08
3.46336e-08
3.45045e-08
3.43428e-08
3.42281e-08
3.408e-08
3.39752e-08
3.38387e-08
3.37436e-08
3.36185e-08
3.35307e-08
3.34175e-08
3.33361e-08
3.32304e-08
3.31558e-08
3.30586e-08
3.29911e-08
3.29025e-08
3.28423e-08
3.2758e-08
3.26998e-08
3.26169e-08
3.25604e-08
3.24788e-08
3.24231e-08
3.23413e-08
3.2286e-08
3.22058e-08
3.21503e-08
3.20727e-08
3.2019e-08
3.19414e-08
3.18908e-08
3.18137e-08
3.17642e-08
3.1688e-08
3.16366e-08
3.15534e-08
3.18839e-08
4.33683e-06
3.51078e-08
1.24163e-07
1.23573e-07
1.22112e-07
1.18864e-07
1.13975e-07
1.08121e-07
1.01953e-07
9.59283e-08
9.02783e-08
8.51163e-08
8.04496e-08
7.62734e-08
7.253e-08
6.91943e-08
6.62e-08
6.35279e-08
6.11153e-08
5.89553e-08
5.69906e-08
5.52262e-08
5.36086e-08
5.21517e-08
5.0805e-08
4.95902e-08
4.84572e-08
4.74345e-08
4.64715e-08
4.56036e-08
4.47782e-08
4.40354e-08
4.33219e-08
4.26827e-08
4.20615e-08
4.15075e-08
4.09628e-08
4.04804e-08
3.99997e-08
3.95776e-08
3.91514e-08
3.87809e-08
3.84011e-08
3.80746e-08
3.77345e-08
3.74452e-08
3.71389e-08
3.68828e-08
3.66062e-08
3.63782e-08
3.61271e-08
3.5925e-08
3.56957e-08
3.55152e-08
3.53063e-08
3.51452e-08
3.49552e-08
3.4809e-08
3.46347e-08
3.45056e-08
3.43438e-08
3.4229e-08
3.40808e-08
3.3976e-08
3.38395e-08
3.37443e-08
3.36191e-08
3.35313e-08
3.3418e-08
3.33365e-08
3.32308e-08
3.31561e-08
3.30589e-08
3.29914e-08
3.29027e-08
3.28425e-08
3.27581e-08
3.26999e-08
3.2617e-08
3.25604e-08
3.24787e-08
3.2423e-08
3.23412e-08
3.22859e-08
3.22057e-08
3.21501e-08
3.20725e-08
3.20188e-08
3.19412e-08
3.18905e-08
3.18134e-08
3.17639e-08
3.16877e-08
3.16363e-08
3.1553e-08
3.18843e-08
4.32925e-06
3.5548e-08
1.24163e-07
1.23572e-07
1.22114e-07
1.18871e-07
1.13987e-07
1.08138e-07
1.01974e-07
9.59511e-08
9.0302e-08
8.51402e-08
8.0473e-08
7.62961e-08
7.25517e-08
6.9215e-08
6.62196e-08
6.35464e-08
6.11328e-08
5.89718e-08
5.70061e-08
5.52408e-08
5.36223e-08
5.21646e-08
5.08172e-08
4.96016e-08
4.8468e-08
4.74447e-08
4.6481e-08
4.56126e-08
4.47867e-08
4.40435e-08
4.33295e-08
4.26898e-08
4.20683e-08
4.15139e-08
4.09688e-08
4.04861e-08
4.00051e-08
3.95827e-08
3.91563e-08
3.87855e-08
3.84054e-08
3.80787e-08
3.77384e-08
3.74489e-08
3.71424e-08
3.6886e-08
3.66093e-08
3.63811e-08
3.61298e-08
3.59276e-08
3.56982e-08
3.55175e-08
3.53084e-08
3.51472e-08
3.49571e-08
3.48108e-08
3.46364e-08
3.45072e-08
3.43453e-08
3.42304e-08
3.40821e-08
3.39772e-08
3.38405e-08
3.37453e-08
3.362e-08
3.35321e-08
3.34188e-08
3.33372e-08
3.32314e-08
3.31567e-08
3.30593e-08
3.29918e-08
3.29031e-08
3.28428e-08
3.27583e-08
3.27001e-08
3.26171e-08
3.25605e-08
3.24787e-08
3.2423e-08
3.23412e-08
3.22859e-08
3.22056e-08
3.215e-08
3.20723e-08
3.20186e-08
3.19409e-08
3.18902e-08
3.1813e-08
3.17635e-08
3.16872e-08
3.16358e-08
3.15525e-08
3.18848e-08
4.31863e-06
3.60447e-08
1.24162e-07
1.23571e-07
1.22116e-07
1.1888e-07
1.14004e-07
1.08161e-07
1.02001e-07
9.59807e-08
9.03328e-08
8.51711e-08
8.05034e-08
7.63256e-08
7.258e-08
6.92419e-08
6.62451e-08
6.35705e-08
6.11555e-08
5.89931e-08
5.70263e-08
5.52597e-08
5.36401e-08
5.21813e-08
5.0833e-08
4.96165e-08
4.8482e-08
4.74579e-08
4.64935e-08
4.56244e-08
4.47977e-08
4.40539e-08
4.33393e-08
4.26991e-08
4.20771e-08
4.15222e-08
4.09767e-08
4.04936e-08
4.00122e-08
3.95894e-08
3.91626e-08
3.87914e-08
3.8411e-08
3.8084e-08
3.77434e-08
3.74536e-08
3.71469e-08
3.68903e-08
3.66133e-08
3.63849e-08
3.61334e-08
3.5931e-08
3.57014e-08
3.55205e-08
3.53113e-08
3.51499e-08
3.49596e-08
3.48131e-08
3.46386e-08
3.45093e-08
3.43472e-08
3.42322e-08
3.40837e-08
3.39787e-08
3.3842e-08
3.37466e-08
3.36212e-08
3.35332e-08
3.34198e-08
3.33381e-08
3.32322e-08
3.31574e-08
3.306e-08
3.29924e-08
3.29036e-08
3.28432e-08
3.27586e-08
3.27004e-08
3.26173e-08
3.25607e-08
3.24788e-08
3.2423e-08
3.23412e-08
3.22858e-08
3.22054e-08
3.21499e-08
3.2072e-08
3.20183e-08
3.19406e-08
3.18898e-08
3.18125e-08
3.1763e-08
3.16866e-08
3.16352e-08
3.15519e-08
3.18855e-08
4.305e-06
3.65925e-08
1.24162e-07
1.2357e-07
1.22119e-07
1.18891e-07
1.14024e-07
1.08188e-07
1.02034e-07
9.60172e-08
9.03708e-08
8.52093e-08
8.0541e-08
7.63619e-08
7.26149e-08
6.92751e-08
6.62767e-08
6.36003e-08
6.11836e-08
5.90196e-08
5.70512e-08
5.52832e-08
5.36622e-08
5.22021e-08
5.08525e-08
4.96348e-08
4.84993e-08
4.74742e-08
4.65089e-08
4.56389e-08
4.48114e-08
4.40668e-08
4.33516e-08
4.27107e-08
4.2088e-08
4.15325e-08
4.09864e-08
4.05028e-08
4.00209e-08
3.95977e-08
3.91704e-08
3.87988e-08
3.8418e-08
3.80906e-08
3.77497e-08
3.74596e-08
3.71525e-08
3.68956e-08
3.66183e-08
3.63896e-08
3.61379e-08
3.59352e-08
3.57054e-08
3.55243e-08
3.53148e-08
3.51532e-08
3.49627e-08
3.48161e-08
3.46413e-08
3.45118e-08
3.43496e-08
3.42344e-08
3.40858e-08
3.39806e-08
3.38437e-08
3.37483e-08
3.36228e-08
3.35346e-08
3.3421e-08
3.33393e-08
3.32333e-08
3.31584e-08
3.30608e-08
3.29932e-08
3.29042e-08
3.28438e-08
3.27591e-08
3.27008e-08
3.26176e-08
3.25609e-08
3.24788e-08
3.24231e-08
3.23412e-08
3.22858e-08
3.22053e-08
3.21498e-08
3.20717e-08
3.2018e-08
3.19402e-08
3.18894e-08
3.1812e-08
3.17625e-08
3.16859e-08
3.16346e-08
3.15511e-08
3.18865e-08
4.28839e-06
3.71916e-08
1.24161e-07
1.23568e-07
1.22122e-07
1.18903e-07
1.14047e-07
1.08221e-07
1.02074e-07
9.60607e-08
9.04161e-08
8.52548e-08
8.05859e-08
7.64054e-08
7.26566e-08
6.93148e-08
6.63143e-08
6.36359e-08
6.12172e-08
5.90512e-08
5.7081e-08
5.53112e-08
5.36886e-08
5.22269e-08
5.08759e-08
4.96569e-08
4.852e-08
4.74937e-08
4.65273e-08
4.56563e-08
4.48279e-08
4.40823e-08
4.33662e-08
4.27245e-08
4.21011e-08
4.15449e-08
4.09981e-08
4.05139e-08
4.00314e-08
3.96076e-08
3.91798e-08
3.88077e-08
3.84265e-08
3.80986e-08
3.77572e-08
3.74667e-08
3.71593e-08
3.6902e-08
3.66244e-08
3.63954e-08
3.61432e-08
3.59403e-08
3.57102e-08
3.55289e-08
3.53191e-08
3.51573e-08
3.49665e-08
3.48196e-08
3.46446e-08
3.4515e-08
3.43525e-08
3.42371e-08
3.40883e-08
3.3983e-08
3.38459e-08
3.37503e-08
3.36246e-08
3.35363e-08
3.34226e-08
3.33407e-08
3.32346e-08
3.31596e-08
3.30618e-08
3.29941e-08
3.2905e-08
3.28445e-08
3.27596e-08
3.27013e-08
3.26179e-08
3.25612e-08
3.2479e-08
3.24232e-08
3.23412e-08
3.22858e-08
3.22051e-08
3.21497e-08
3.20714e-08
3.20177e-08
3.19397e-08
3.18889e-08
3.18114e-08
3.17618e-08
3.16852e-08
3.16338e-08
3.15503e-08
3.18876e-08
4.26889e-06
3.78465e-08
1.2416e-07
1.23567e-07
1.22126e-07
1.18918e-07
1.14075e-07
1.0826e-07
1.0212e-07
9.61113e-08
9.04689e-08
8.53079e-08
8.06381e-08
7.6456e-08
7.27052e-08
6.93612e-08
6.63583e-08
6.36774e-08
6.12564e-08
5.90882e-08
5.71158e-08
5.53439e-08
5.37194e-08
5.22559e-08
5.09032e-08
4.96826e-08
4.85443e-08
4.75166e-08
4.65489e-08
4.56766e-08
4.48471e-08
4.41005e-08
4.33834e-08
4.27407e-08
4.21164e-08
4.15594e-08
4.10119e-08
4.05269e-08
4.00437e-08
3.96192e-08
3.91908e-08
3.88182e-08
3.84363e-08
3.8108e-08
3.77661e-08
3.74751e-08
3.71672e-08
3.69095e-08
3.66315e-08
3.64021e-08
3.61496e-08
3.59463e-08
3.57158e-08
3.55342e-08
3.53241e-08
3.5162e-08
3.49709e-08
3.48238e-08
3.46485e-08
3.45187e-08
3.43559e-08
3.42403e-08
3.40913e-08
3.39858e-08
3.38485e-08
3.37527e-08
3.36268e-08
3.35384e-08
3.34244e-08
3.33425e-08
3.32361e-08
3.3161e-08
3.30631e-08
3.29952e-08
3.29059e-08
3.28453e-08
3.27604e-08
3.27019e-08
3.26184e-08
3.25615e-08
3.24792e-08
3.24234e-08
3.23413e-08
3.22859e-08
3.2205e-08
3.21496e-08
3.20711e-08
3.20174e-08
3.19393e-08
3.18884e-08
3.18107e-08
3.17611e-08
3.16843e-08
3.16329e-08
3.15493e-08
3.1889e-08
4.24655e-06
3.85646e-08
1.2416e-07
1.23565e-07
1.2213e-07
1.18935e-07
1.14106e-07
1.08304e-07
1.02173e-07
9.61692e-08
9.05293e-08
8.53687e-08
8.0698e-08
7.65141e-08
7.2761e-08
6.94143e-08
6.64087e-08
6.37251e-08
6.13014e-08
5.91306e-08
5.71558e-08
5.53816e-08
5.37549e-08
5.22893e-08
5.09346e-08
4.97122e-08
4.85722e-08
4.75429e-08
4.65737e-08
4.57e-08
4.48692e-08
4.41214e-08
4.34031e-08
4.27594e-08
4.2134e-08
4.15761e-08
4.10276e-08
4.05418e-08
4.00578e-08
3.96326e-08
3.92035e-08
3.88302e-08
3.84477e-08
3.81188e-08
3.77763e-08
3.74848e-08
3.71763e-08
3.69182e-08
3.66397e-08
3.64099e-08
3.61569e-08
3.59533e-08
3.57223e-08
3.55404e-08
3.53299e-08
3.51675e-08
3.49761e-08
3.48287e-08
3.46531e-08
3.4523e-08
3.43599e-08
3.42441e-08
3.40948e-08
3.39891e-08
3.38515e-08
3.37555e-08
3.36294e-08
3.35408e-08
3.34266e-08
3.33445e-08
3.32379e-08
3.31627e-08
3.30645e-08
3.29966e-08
3.29071e-08
3.28464e-08
3.27612e-08
3.27026e-08
3.2619e-08
3.2562e-08
3.24795e-08
3.24236e-08
3.23414e-08
3.2286e-08
3.2205e-08
3.21496e-08
3.20708e-08
3.20171e-08
3.19388e-08
3.18879e-08
3.181e-08
3.17604e-08
3.16833e-08
3.1632e-08
3.15483e-08
3.18907e-08
4.22146e-06
3.93554e-08
1.24159e-07
1.23562e-07
1.22135e-07
1.18954e-07
1.14142e-07
1.08353e-07
1.02232e-07
9.62344e-08
9.05974e-08
8.54373e-08
8.07657e-08
7.65797e-08
7.2824e-08
6.94744e-08
6.64658e-08
6.3779e-08
6.13524e-08
5.91786e-08
5.72011e-08
5.54242e-08
5.3795e-08
5.2327e-08
5.09702e-08
4.97457e-08
4.86038e-08
4.75727e-08
4.66018e-08
4.57266e-08
4.48943e-08
4.4145e-08
4.34255e-08
4.27805e-08
4.21541e-08
4.1595e-08
4.10456e-08
4.05588e-08
4.00739e-08
3.96479e-08
3.92179e-08
3.88439e-08
3.84607e-08
3.8131e-08
3.77879e-08
3.74958e-08
3.71867e-08
3.69281e-08
3.6649e-08
3.64187e-08
3.61652e-08
3.59612e-08
3.57298e-08
3.55475e-08
3.53365e-08
3.51738e-08
3.4982e-08
3.48343e-08
3.46583e-08
3.45279e-08
3.43645e-08
3.42484e-08
3.40988e-08
3.39928e-08
3.3855e-08
3.37588e-08
3.36324e-08
3.35436e-08
3.34292e-08
3.33469e-08
3.32401e-08
3.31646e-08
3.30663e-08
3.29982e-08
3.29085e-08
3.28476e-08
3.27622e-08
3.27036e-08
3.26197e-08
3.25626e-08
3.24799e-08
3.2424e-08
3.23416e-08
3.22861e-08
3.22049e-08
3.21496e-08
3.20706e-08
3.20168e-08
3.19382e-08
3.18873e-08
3.18092e-08
3.17596e-08
3.16823e-08
3.1631e-08
3.15471e-08
3.18927e-08
4.19372e-06
4.02306e-08
1.24158e-07
1.2356e-07
1.2214e-07
1.18975e-07
1.14181e-07
1.08408e-07
1.02298e-07
9.63072e-08
9.06734e-08
8.5514e-08
8.08413e-08
7.6653e-08
7.28945e-08
6.95416e-08
6.65296e-08
6.38394e-08
6.14095e-08
5.92324e-08
5.72518e-08
5.54719e-08
5.384e-08
5.23694e-08
5.10102e-08
4.97833e-08
4.86393e-08
4.76061e-08
4.66334e-08
4.57563e-08
4.49224e-08
4.41716e-08
4.34506e-08
4.28043e-08
4.21765e-08
4.16163e-08
4.10657e-08
4.05779e-08
4.0092e-08
3.9665e-08
3.92341e-08
3.88593e-08
3.84752e-08
3.81448e-08
3.78009e-08
3.75082e-08
3.71985e-08
3.69392e-08
3.66595e-08
3.64287e-08
3.61747e-08
3.59701e-08
3.57382e-08
3.55554e-08
3.53441e-08
3.51809e-08
3.49887e-08
3.48406e-08
3.46642e-08
3.45335e-08
3.43697e-08
3.42533e-08
3.41034e-08
3.39971e-08
3.3859e-08
3.37625e-08
3.36358e-08
3.35467e-08
3.3432e-08
3.33496e-08
3.32425e-08
3.31669e-08
3.30683e-08
3.3e-08
3.291e-08
3.28491e-08
3.27635e-08
3.27046e-08
3.26206e-08
3.25634e-08
3.24804e-08
3.24244e-08
3.23419e-08
3.22864e-08
3.22049e-08
3.21497e-08
3.20703e-08
3.20165e-08
3.19377e-08
3.18868e-08
3.18084e-08
3.17587e-08
3.16812e-08
3.16299e-08
3.15459e-08
3.1895e-08
4.16339e-06
4.12029e-08
1.24156e-07
1.23557e-07
1.22146e-07
1.18998e-07
1.14224e-07
1.08468e-07
1.02371e-07
9.63875e-08
9.07575e-08
8.55987e-08
8.09249e-08
7.67342e-08
7.29726e-08
6.96161e-08
6.66004e-08
6.39064e-08
6.14728e-08
5.92921e-08
5.73081e-08
5.55249e-08
5.38899e-08
5.24164e-08
5.10545e-08
4.98251e-08
4.86787e-08
4.76433e-08
4.66685e-08
4.57895e-08
4.49537e-08
4.42012e-08
4.34786e-08
4.28308e-08
4.22016e-08
4.164e-08
4.10882e-08
4.05991e-08
4.01121e-08
3.96841e-08
3.92522e-08
3.88764e-08
3.84915e-08
3.81602e-08
3.78155e-08
3.75221e-08
3.72116e-08
3.69517e-08
3.66713e-08
3.64399e-08
3.61852e-08
3.59801e-08
3.57477e-08
3.55644e-08
3.53525e-08
3.51888e-08
3.49962e-08
3.48477e-08
3.46708e-08
3.45397e-08
3.43756e-08
3.42588e-08
3.41085e-08
3.4002e-08
3.38635e-08
3.37667e-08
3.36397e-08
3.35503e-08
3.34353e-08
3.33527e-08
3.32453e-08
3.31695e-08
3.30706e-08
3.30021e-08
3.29119e-08
3.28508e-08
3.27649e-08
3.27059e-08
3.26216e-08
3.25643e-08
3.24811e-08
3.2425e-08
3.23423e-08
3.22867e-08
3.2205e-08
3.21498e-08
3.20701e-08
3.20163e-08
3.19372e-08
3.18862e-08
3.18076e-08
3.17579e-08
3.16801e-08
3.16288e-08
3.15447e-08
3.18976e-08
4.13055e-06
4.22858e-08
1.24155e-07
1.23554e-07
1.22152e-07
1.19023e-07
1.14271e-07
1.08534e-07
1.0245e-07
9.64755e-08
9.08497e-08
8.56918e-08
8.10168e-08
7.68235e-08
7.30586e-08
6.96981e-08
6.66784e-08
6.39802e-08
6.15425e-08
5.93579e-08
5.73701e-08
5.55833e-08
5.3945e-08
5.24683e-08
5.11034e-08
4.98712e-08
4.87222e-08
4.76843e-08
4.67072e-08
4.5826e-08
4.49883e-08
4.42339e-08
4.35095e-08
4.286e-08
4.22293e-08
4.16662e-08
4.1113e-08
4.06227e-08
4.01344e-08
3.97052e-08
3.92722e-08
3.88954e-08
3.85095e-08
3.81773e-08
3.78317e-08
3.75374e-08
3.72261e-08
3.69654e-08
3.66843e-08
3.64523e-08
3.61969e-08
3.59912e-08
3.57581e-08
3.55743e-08
3.53618e-08
3.51977e-08
3.50045e-08
3.48556e-08
3.46782e-08
3.45467e-08
3.43821e-08
3.4265e-08
3.41142e-08
3.40074e-08
3.38685e-08
3.37714e-08
3.36441e-08
3.35544e-08
3.34391e-08
3.33562e-08
3.32485e-08
3.31725e-08
3.30732e-08
3.30046e-08
3.2914e-08
3.28527e-08
3.27666e-08
3.27075e-08
3.26229e-08
3.25654e-08
3.24819e-08
3.24257e-08
3.23428e-08
3.22872e-08
3.22052e-08
3.215e-08
3.20699e-08
3.20161e-08
3.19368e-08
3.18857e-08
3.18068e-08
3.1757e-08
3.16789e-08
3.16277e-08
3.15434e-08
3.19006e-08
4.09522e-06
4.34934e-08
1.24154e-07
1.23551e-07
1.22159e-07
1.1905e-07
1.14321e-07
1.08605e-07
1.02537e-07
9.65714e-08
9.09501e-08
8.57933e-08
8.11172e-08
7.6921e-08
7.31525e-08
6.97877e-08
6.67637e-08
6.40609e-08
6.16189e-08
5.94299e-08
5.74381e-08
5.56473e-08
5.40054e-08
5.25252e-08
5.11571e-08
4.99217e-08
4.87699e-08
4.77293e-08
4.67498e-08
4.58662e-08
4.50263e-08
4.42698e-08
4.35435e-08
4.28921e-08
4.22597e-08
4.16951e-08
4.11403e-08
4.06485e-08
4.01589e-08
3.97285e-08
3.92943e-08
3.89163e-08
3.85293e-08
3.81961e-08
3.78495e-08
3.75544e-08
3.72421e-08
3.69807e-08
3.66987e-08
3.6466e-08
3.62098e-08
3.60035e-08
3.57697e-08
3.55853e-08
3.53722e-08
3.52075e-08
3.50137e-08
3.48644e-08
3.46864e-08
3.45545e-08
3.43894e-08
3.42718e-08
3.41207e-08
3.40134e-08
3.38741e-08
3.37767e-08
3.3649e-08
3.3559e-08
3.34432e-08
3.33601e-08
3.32521e-08
3.31758e-08
3.30762e-08
3.30073e-08
3.29165e-08
3.2855e-08
3.27685e-08
3.27092e-08
3.26243e-08
3.25667e-08
3.24829e-08
3.24266e-08
3.23435e-08
3.22878e-08
3.22055e-08
3.21503e-08
3.20699e-08
3.2016e-08
3.19364e-08
3.18852e-08
3.18061e-08
3.17562e-08
3.16777e-08
3.16266e-08
3.15421e-08
3.19039e-08
4.05741e-06
4.48397e-08
1.24153e-07
1.23548e-07
1.22165e-07
1.19079e-07
1.14376e-07
1.08683e-07
1.02631e-07
9.66752e-08
9.10591e-08
8.59035e-08
8.12262e-08
7.7027e-08
7.32545e-08
6.98852e-08
6.68564e-08
6.41488e-08
6.1702e-08
5.95083e-08
5.75121e-08
5.57171e-08
5.40712e-08
5.25872e-08
5.12156e-08
4.99769e-08
4.8822e-08
4.77784e-08
4.67962e-08
4.591e-08
4.50677e-08
4.4309e-08
4.35806e-08
4.29272e-08
4.2293e-08
4.17266e-08
4.11702e-08
4.06768e-08
4.01858e-08
3.97539e-08
3.93184e-08
3.89392e-08
3.8551e-08
3.82167e-08
3.78691e-08
3.75729e-08
3.72597e-08
3.69974e-08
3.67145e-08
3.6481e-08
3.6224e-08
3.6017e-08
3.57825e-08
3.55975e-08
3.53836e-08
3.52184e-08
3.50239e-08
3.48741e-08
3.46955e-08
3.45631e-08
3.43974e-08
3.42794e-08
3.41278e-08
3.40201e-08
3.38804e-08
3.37825e-08
3.36544e-08
3.35641e-08
3.34479e-08
3.33645e-08
3.32561e-08
3.31796e-08
3.30796e-08
3.30105e-08
3.29192e-08
3.28575e-08
3.27707e-08
3.27113e-08
3.2626e-08
3.25683e-08
3.24841e-08
3.24276e-08
3.23443e-08
3.22886e-08
3.2206e-08
3.21508e-08
3.20699e-08
3.20161e-08
3.19361e-08
3.18848e-08
3.18053e-08
3.17554e-08
3.16766e-08
3.16254e-08
3.15408e-08
3.19076e-08
4.01706e-06
4.63387e-08
1.24151e-07
1.23544e-07
1.22173e-07
1.1911e-07
1.14435e-07
1.08766e-07
1.02732e-07
9.67871e-08
9.11766e-08
8.60225e-08
8.13439e-08
7.71416e-08
7.3365e-08
6.99908e-08
6.69569e-08
6.4244e-08
6.17921e-08
5.95934e-08
5.75925e-08
5.57928e-08
5.41427e-08
5.26545e-08
5.12791e-08
5.00368e-08
4.88786e-08
4.78318e-08
4.68467e-08
4.59577e-08
4.51128e-08
4.43516e-08
4.3621e-08
4.29655e-08
4.23292e-08
4.17609e-08
4.12027e-08
4.07077e-08
4.0215e-08
3.97817e-08
3.93447e-08
3.89642e-08
3.85747e-08
3.82392e-08
3.78904e-08
3.75932e-08
3.7279e-08
3.70157e-08
3.67318e-08
3.64974e-08
3.62396e-08
3.60318e-08
3.57965e-08
3.56107e-08
3.53962e-08
3.52303e-08
3.50352e-08
3.48848e-08
3.47055e-08
3.45726e-08
3.44063e-08
3.42878e-08
3.41356e-08
3.40275e-08
3.38873e-08
3.3789e-08
3.36605e-08
3.35698e-08
3.34532e-08
3.33694e-08
3.32606e-08
3.31838e-08
3.30834e-08
3.3014e-08
3.29224e-08
3.28605e-08
3.27733e-08
3.27136e-08
3.2628e-08
3.25701e-08
3.24855e-08
3.2429e-08
3.23453e-08
3.22895e-08
3.22066e-08
3.21514e-08
3.20701e-08
3.20162e-08
3.19358e-08
3.18845e-08
3.18047e-08
3.17547e-08
3.16755e-08
3.16243e-08
3.15395e-08
3.19117e-08
3.97407e-06
4.8004e-08
1.2415e-07
1.2354e-07
1.2218e-07
1.19143e-07
1.14497e-07
1.08854e-07
1.0284e-07
9.69071e-08
9.13028e-08
8.61504e-08
8.14707e-08
7.7265e-08
7.34841e-08
7.01046e-08
6.70653e-08
6.43467e-08
6.18894e-08
5.96852e-08
5.76792e-08
5.58746e-08
5.42199e-08
5.27273e-08
5.13478e-08
5.01016e-08
4.89398e-08
4.78896e-08
4.69013e-08
4.60093e-08
4.51617e-08
4.43979e-08
4.36647e-08
4.30069e-08
4.23684e-08
4.17981e-08
4.1238e-08
4.07412e-08
4.02468e-08
3.98118e-08
3.93733e-08
3.89914e-08
3.86004e-08
3.82637e-08
3.79136e-08
3.76153e-08
3.72999e-08
3.70356e-08
3.67507e-08
3.65154e-08
3.62566e-08
3.6048e-08
3.58118e-08
3.56253e-08
3.54099e-08
3.52433e-08
3.50474e-08
3.48965e-08
3.47165e-08
3.4583e-08
3.44161e-08
3.42971e-08
3.41443e-08
3.40357e-08
3.38949e-08
3.37963e-08
3.36672e-08
3.35761e-08
3.3459e-08
3.33749e-08
3.32656e-08
3.31886e-08
3.30877e-08
3.3018e-08
3.2926e-08
3.28638e-08
3.27762e-08
3.27164e-08
3.26304e-08
3.25722e-08
3.24873e-08
3.24305e-08
3.23466e-08
3.22907e-08
3.22074e-08
3.21523e-08
3.20705e-08
3.20166e-08
3.19358e-08
3.18844e-08
3.18042e-08
3.17541e-08
3.16744e-08
3.16233e-08
3.15383e-08
3.19162e-08
3.92827e-06
4.98484e-08
1.24148e-07
1.23535e-07
1.22188e-07
1.19177e-07
1.14564e-07
1.08949e-07
1.02955e-07
9.70354e-08
9.14379e-08
8.62874e-08
8.16066e-08
7.73975e-08
7.36119e-08
7.02269e-08
6.71819e-08
6.44572e-08
6.19941e-08
5.97841e-08
5.77727e-08
5.59628e-08
5.43031e-08
5.28058e-08
5.14219e-08
5.01715e-08
4.90058e-08
4.7952e-08
4.69603e-08
4.60651e-08
4.52145e-08
4.44478e-08
4.3712e-08
4.30517e-08
4.24109e-08
4.18383e-08
4.12762e-08
4.07774e-08
4.02812e-08
3.98445e-08
3.94043e-08
3.90208e-08
3.86284e-08
3.82903e-08
3.79388e-08
3.76393e-08
3.73226e-08
3.70572e-08
3.67712e-08
3.65349e-08
3.62751e-08
3.60655e-08
3.58284e-08
3.56411e-08
3.54249e-08
3.52575e-08
3.50609e-08
3.49092e-08
3.47285e-08
3.45944e-08
3.44268e-08
3.43072e-08
3.41538e-08
3.40447e-08
3.39034e-08
3.38042e-08
3.36746e-08
3.35831e-08
3.34654e-08
3.33811e-08
3.32712e-08
3.31939e-08
3.30925e-08
3.30226e-08
3.293e-08
3.28676e-08
3.27796e-08
3.27195e-08
3.26331e-08
3.25747e-08
3.24894e-08
3.24324e-08
3.23481e-08
3.22922e-08
3.22085e-08
3.21533e-08
3.2071e-08
3.20171e-08
3.19359e-08
3.18844e-08
3.18038e-08
3.17536e-08
3.16734e-08
3.16224e-08
3.15372e-08
3.19211e-08
3.87944e-06
5.1884e-08
1.24146e-07
1.23531e-07
1.22197e-07
1.19214e-07
1.14634e-07
1.09049e-07
1.03077e-07
9.7172e-08
9.1582e-08
8.64338e-08
8.17518e-08
7.75391e-08
7.37487e-08
7.03579e-08
6.73068e-08
6.45757e-08
6.21064e-08
5.98903e-08
5.7873e-08
5.60574e-08
5.43925e-08
5.28901e-08
5.15016e-08
5.02467e-08
4.90769e-08
4.80191e-08
4.70238e-08
4.61251e-08
4.52713e-08
4.45016e-08
4.3763e-08
4.31e-08
4.24567e-08
4.18818e-08
4.13174e-08
4.08165e-08
4.03183e-08
3.98797e-08
3.94378e-08
3.90526e-08
3.86586e-08
3.8319e-08
3.79661e-08
3.76652e-08
3.73473e-08
3.70806e-08
3.67934e-08
3.65561e-08
3.62951e-08
3.60846e-08
3.58465e-08
3.56583e-08
3.54412e-08
3.5273e-08
3.50755e-08
3.49232e-08
3.47416e-08
3.46069e-08
3.44386e-08
3.43183e-08
3.41642e-08
3.40546e-08
3.39126e-08
3.3813e-08
3.36828e-08
3.35908e-08
3.34726e-08
3.33878e-08
3.32775e-08
3.31998e-08
3.30979e-08
3.30276e-08
3.29346e-08
3.28719e-08
3.27834e-08
3.27231e-08
3.26362e-08
3.25776e-08
3.24918e-08
3.24347e-08
3.23499e-08
3.22939e-08
3.22099e-08
3.21547e-08
3.20718e-08
3.2018e-08
3.19362e-08
3.18846e-08
3.18035e-08
3.17533e-08
3.16726e-08
3.16216e-08
3.15362e-08
3.19264e-08
3.82728e-06
5.4121e-08
1.24145e-07
1.23526e-07
1.22205e-07
1.19252e-07
1.14708e-07
1.09155e-07
1.03207e-07
9.7317e-08
9.17352e-08
8.65895e-08
8.19066e-08
7.76902e-08
7.38948e-08
7.04978e-08
6.74402e-08
6.47024e-08
6.22265e-08
6.00038e-08
5.79804e-08
5.61588e-08
5.44883e-08
5.29805e-08
5.1587e-08
5.03273e-08
4.91531e-08
4.80911e-08
4.70919e-08
4.61896e-08
4.53323e-08
4.45594e-08
4.38178e-08
4.31519e-08
4.25059e-08
4.19285e-08
4.13617e-08
4.08586e-08
4.03583e-08
3.99177e-08
3.94739e-08
3.90869e-08
3.86912e-08
3.835e-08
3.79955e-08
3.76932e-08
3.73739e-08
3.7106e-08
3.68175e-08
3.6579e-08
3.63168e-08
3.61053e-08
3.58661e-08
3.5677e-08
3.54588e-08
3.52898e-08
3.50914e-08
3.49383e-08
3.47559e-08
3.46205e-08
3.44514e-08
3.43305e-08
3.41757e-08
3.40655e-08
3.39228e-08
3.38226e-08
3.36918e-08
3.35993e-08
3.34805e-08
3.33953e-08
3.32844e-08
3.32063e-08
3.31039e-08
3.30333e-08
3.29397e-08
3.28768e-08
3.27878e-08
3.27271e-08
3.26398e-08
3.2581e-08
3.24947e-08
3.24373e-08
3.23521e-08
3.2296e-08
3.22115e-08
3.21563e-08
3.2073e-08
3.20191e-08
3.19367e-08
3.18851e-08
3.18035e-08
3.17532e-08
3.1672e-08
3.1621e-08
3.15354e-08
3.19321e-08
3.77144e-06
5.65682e-08
1.24143e-07
1.23521e-07
1.22214e-07
1.19292e-07
1.14786e-07
1.09266e-07
1.03345e-07
9.74706e-08
9.18977e-08
8.67549e-08
8.20711e-08
7.7851e-08
7.40503e-08
7.06468e-08
6.75825e-08
6.48375e-08
6.23547e-08
6.01251e-08
5.80951e-08
5.62671e-08
5.45907e-08
5.30771e-08
5.16783e-08
5.04135e-08
4.92347e-08
4.81682e-08
4.71649e-08
4.62586e-08
4.53978e-08
4.46213e-08
4.38765e-08
4.32076e-08
4.25588e-08
4.19786e-08
4.14093e-08
4.09038e-08
4.04012e-08
3.99585e-08
3.95127e-08
3.91238e-08
3.87262e-08
3.83834e-08
3.80273e-08
3.77234e-08
3.74026e-08
3.71333e-08
3.68434e-08
3.66038e-08
3.63403e-08
3.61277e-08
3.58874e-08
3.56972e-08
3.5478e-08
3.53081e-08
3.51087e-08
3.49548e-08
3.47714e-08
3.46353e-08
3.44653e-08
3.43437e-08
3.41881e-08
3.40773e-08
3.39339e-08
3.38332e-08
3.37017e-08
3.36087e-08
3.34892e-08
3.34036e-08
3.32921e-08
3.32136e-08
3.31106e-08
3.30396e-08
3.29455e-08
3.28822e-08
3.27927e-08
3.27318e-08
3.26439e-08
3.25848e-08
3.2498e-08
3.24405e-08
3.23547e-08
3.22985e-08
3.22136e-08
3.21584e-08
3.20744e-08
3.20205e-08
3.19376e-08
3.18859e-08
3.18038e-08
3.17534e-08
3.16716e-08
3.16206e-08
3.15348e-08
3.19381e-08
3.71151e-06
5.92314e-08
1.24141e-07
1.23515e-07
1.22223e-07
1.19334e-07
1.14867e-07
1.09384e-07
1.03489e-07
9.76328e-08
9.20695e-08
8.69301e-08
8.22456e-08
7.80216e-08
7.42154e-08
7.08052e-08
6.77338e-08
6.49814e-08
6.24912e-08
6.02542e-08
5.82174e-08
5.63826e-08
5.46999e-08
5.31802e-08
5.17758e-08
5.05056e-08
4.93218e-08
4.82506e-08
4.72429e-08
4.63324e-08
4.54677e-08
4.46876e-08
4.39394e-08
4.32672e-08
4.26154e-08
4.20323e-08
4.14603e-08
4.09523e-08
4.04473e-08
4.00024e-08
3.95543e-08
3.91634e-08
3.87639e-08
3.84192e-08
3.80614e-08
3.7756e-08
3.74335e-08
3.71628e-08
3.68714e-08
3.66305e-08
3.63657e-08
3.61519e-08
3.59103e-08
3.57191e-08
3.54988e-08
3.53278e-08
3.51274e-08
3.49727e-08
3.47883e-08
3.46514e-08
3.44805e-08
3.43581e-08
3.42018e-08
3.40903e-08
3.39461e-08
3.38447e-08
3.37126e-08
3.3619e-08
3.34988e-08
3.34128e-08
3.33007e-08
3.32217e-08
3.3118e-08
3.30467e-08
3.2952e-08
3.28883e-08
3.27982e-08
3.2737e-08
3.26486e-08
3.25893e-08
3.25019e-08
3.24441e-08
3.23578e-08
3.23015e-08
3.22161e-08
3.21608e-08
3.20763e-08
3.20224e-08
3.19388e-08
3.1887e-08
3.18044e-08
3.17539e-08
3.16715e-08
3.16205e-08
3.15344e-08
3.19445e-08
3.64704e-06
6.21151e-08
1.24139e-07
1.23509e-07
1.22232e-07
1.19377e-07
1.14953e-07
1.09507e-07
1.03641e-07
9.78036e-08
9.22509e-08
8.71153e-08
8.24301e-08
7.82023e-08
7.43905e-08
7.09733e-08
6.78944e-08
6.51341e-08
6.26363e-08
6.03915e-08
5.83474e-08
5.65054e-08
5.48161e-08
5.329e-08
5.18797e-08
5.06038e-08
4.94148e-08
4.83385e-08
4.73262e-08
4.64112e-08
4.55424e-08
4.47584e-08
4.40066e-08
4.33309e-08
4.26759e-08
4.20898e-08
4.15149e-08
4.10042e-08
4.04967e-08
4.00493e-08
3.9599e-08
3.92059e-08
3.88043e-08
3.84577e-08
3.8098e-08
3.77909e-08
3.74667e-08
3.71944e-08
3.69016e-08
3.66592e-08
3.6393e-08
3.6178e-08
3.59351e-08
3.57428e-08
3.55212e-08
3.53492e-08
3.51477e-08
3.49921e-08
3.48066e-08
3.46689e-08
3.4497e-08
3.43739e-08
3.42166e-08
3.41044e-08
3.39595e-08
3.38574e-08
3.37245e-08
3.36303e-08
3.35094e-08
3.34229e-08
3.33101e-08
3.32307e-08
3.31263e-08
3.30546e-08
3.29592e-08
3.28952e-08
3.28045e-08
3.2743e-08
3.2654e-08
3.25943e-08
3.25064e-08
3.24483e-08
3.23615e-08
3.2305e-08
3.22191e-08
3.21637e-08
3.20786e-08
3.20248e-08
3.19404e-08
3.18886e-08
3.18053e-08
3.17547e-08
3.16716e-08
3.16208e-08
3.15344e-08
3.19513e-08
3.57753e-06
6.52181e-08
1.24137e-07
1.23503e-07
1.22241e-07
1.19422e-07
1.15041e-07
1.09636e-07
1.03801e-07
9.79833e-08
9.24419e-08
8.73105e-08
8.2625e-08
7.83932e-08
7.45757e-08
7.11512e-08
6.80646e-08
6.5296e-08
6.27902e-08
6.05373e-08
5.84855e-08
5.6636e-08
5.49397e-08
5.34068e-08
5.19902e-08
5.07083e-08
4.95137e-08
4.84321e-08
4.74149e-08
4.64952e-08
4.56221e-08
4.48339e-08
4.40783e-08
4.33989e-08
4.27405e-08
4.21512e-08
4.15733e-08
4.10597e-08
4.05494e-08
4.00995e-08
3.96468e-08
3.92514e-08
3.88477e-08
3.8499e-08
3.81373e-08
3.78284e-08
3.75024e-08
3.72285e-08
3.69339e-08
3.66901e-08
3.64224e-08
3.6206e-08
3.59618e-08
3.57682e-08
3.55454e-08
3.53723e-08
3.51696e-08
3.50131e-08
3.48264e-08
3.46878e-08
3.4515e-08
3.4391e-08
3.42328e-08
3.41198e-08
3.3974e-08
3.38713e-08
3.37376e-08
3.36428e-08
3.35211e-08
3.3434e-08
3.33205e-08
3.32406e-08
3.31355e-08
3.30634e-08
3.29673e-08
3.29029e-08
3.28116e-08
3.27497e-08
3.266e-08
3.26001e-08
3.25115e-08
3.24532e-08
3.23657e-08
3.23091e-08
3.22226e-08
3.21672e-08
3.20814e-08
3.20276e-08
3.19425e-08
3.18906e-08
3.18067e-08
3.1756e-08
3.16722e-08
3.16214e-08
3.15347e-08
3.19584e-08
3.50247e-06
6.85351e-08
1.24135e-07
1.23496e-07
1.22251e-07
1.19468e-07
1.15134e-07
1.0977e-07
1.03968e-07
9.81717e-08
9.26426e-08
8.7516e-08
8.28304e-08
7.85947e-08
7.47713e-08
7.13393e-08
6.82447e-08
6.54674e-08
6.29531e-08
6.06917e-08
5.86319e-08
5.67745e-08
5.50708e-08
5.35307e-08
5.21076e-08
5.08193e-08
4.96188e-08
4.85316e-08
4.75092e-08
4.65846e-08
4.57069e-08
4.49143e-08
4.41546e-08
4.34714e-08
4.28094e-08
4.22167e-08
4.16356e-08
4.11189e-08
4.06058e-08
4.01532e-08
3.96979e-08
3.93001e-08
3.8894e-08
3.85432e-08
3.81794e-08
3.78685e-08
3.75406e-08
3.7265e-08
3.69687e-08
3.67234e-08
3.6454e-08
3.62362e-08
3.59905e-08