/*--------------------------------*- C++ -*----------------------------------*\
| =========                 |                                                 |
| \\      /  F ield         | OpenFOAM: The Open Source CFD Toolbox           |
|  \\    /   O peration     | Version:  v2012                                 |
|   \\  /    A nd           | Website:  www.openfoam.com                      |
|    \\/     M anipulation  |                                                 |
\*---------------------------------------------------------------------------*/
FoamFile
{
    version     2.0;
    format      ascii;
    class       volVectorField;
    location    "32.5";
    object      wallShearStress;
}
// * * * * * * * * * * * * * * * * * * * * * * * * * * * * * * * * * * * * * //

dimensions      [0 2 -2 0 0 0 0];


internalField   uniform (0 0 0);

boundaryField
{
    inlet
    {
        type            calculated;
        value           uniform (0 0 0);
    }
    outlet
    {
        type            calculated;
        value           uniform (0 0 0);
    }
    topWall
    {
        type            calculated;
        value           nonuniform List<vector> 
545
(
(3.66422e-08 -2.57925e-08 0)
(3.66313e-08 -7.21542e-08 0)
(3.66098e-08 -1.20362e-07 0)
(3.65803e-08 -1.67175e-07 0)
(3.65436e-08 -2.11994e-07 0)
(3.65002e-08 -2.55395e-07 0)
(3.64507e-08 -2.97747e-07 0)
(3.63955e-08 -3.3903e-07 0)
(3.63351e-08 -3.79154e-07 0)
(3.62698e-08 -4.18119e-07 0)
(3.62003e-08 -4.55974e-07 0)
(3.61269e-08 -4.92765e-07 0)
(3.605e-08 -5.28516e-07 0)
(3.59699e-08 -5.63248e-07 0)
(3.5887e-08 -5.96986e-07 0)
(3.58017e-08 -6.29756e-07 0)
(3.57141e-08 -6.61586e-07 0)
(3.56247e-08 -6.92499e-07 0)
(3.55336e-08 -7.22521e-07 0)
(3.54412e-08 -7.51676e-07 0)
(3.53476e-08 -7.79987e-07 0)
(3.5253e-08 -8.07479e-07 0)
(3.51577e-08 -8.34173e-07 0)
(3.50619e-08 -8.60093e-07 0)
(3.49657e-08 -8.8526e-07 0)
(3.48692e-08 -9.09696e-07 0)
(3.47727e-08 -9.33422e-07 0)
(3.46763e-08 -9.56459e-07 0)
(3.458e-08 -9.78825e-07 0)
(3.44841e-08 -1.00054e-06 0)
(3.43886e-08 -1.02163e-06 0)
(3.42936e-08 -1.0421e-06 0)
(3.41993e-08 -1.06198e-06 0)
(3.41056e-08 -1.08128e-06 0)
(3.40128e-08 -1.10002e-06 0)
(3.39207e-08 -1.11821e-06 0)
(3.38296e-08 -1.13588e-06 0)
(3.37395e-08 -1.15304e-06 0)
(3.36504e-08 -1.1697e-06 0)
(3.35623e-08 -1.18588e-06 0)
(3.34754e-08 -1.20159e-06 0)
(3.33896e-08 -1.21684e-06 0)
(3.3305e-08 -1.23166e-06 0)
(3.32216e-08 -1.24605e-06 0)
(3.31394e-08 -1.26003e-06 0)
(3.30584e-08 -1.2736e-06 0)
(3.29787e-08 -1.28678e-06 0)
(3.29003e-08 -1.29959e-06 0)
(3.28232e-08 -1.31203e-06 0)
(3.27474e-08 -1.32411e-06 0)
(3.26729e-08 -1.33584e-06 0)
(3.25997e-08 -1.34724e-06 0)
(3.25278e-08 -1.35832e-06 0)
(3.24572e-08 -1.36908e-06 0)
(3.23879e-08 -1.37953e-06 0)
(3.23199e-08 -1.38969e-06 0)
(3.22532e-08 -1.39956e-06 0)
(3.21878e-08 -1.40915e-06 0)
(3.21237e-08 -1.41846e-06 0)
(3.20608e-08 -1.42752e-06 0)
(3.19992e-08 -1.43631e-06 0)
(3.19388e-08 -1.44486e-06 0)
(3.18797e-08 -1.45317e-06 0)
(3.18218e-08 -1.46125e-06 0)
(3.1765e-08 -1.46909e-06 0)
(3.17095e-08 -1.47672e-06 0)
(3.16551e-08 -1.48413e-06 0)
(3.16019e-08 -1.49134e-06 0)
(3.15499e-08 -1.49834e-06 0)
(3.1499e-08 -1.50515e-06 0)
(3.14491e-08 -1.51177e-06 0)
(3.14005e-08 -1.51819e-06 0)
(3.13533e-08 -1.52437e-06 0)
(3.13071e-08 -1.53037e-06 0)
(3.12614e-08 -1.53631e-06 0)
(3.12157e-08 -1.54221e-06 0)
(3.11702e-08 -1.54809e-06 0)
(3.11246e-08 -1.55393e-06 0)
(3.10791e-08 -1.55974e-06 0)
(3.10337e-08 -1.56551e-06 0)
(3.09883e-08 -1.57125e-06 0)
(3.09429e-08 -1.57695e-06 0)
(3.08975e-08 -1.58262e-06 0)
(3.08523e-08 -1.58825e-06 0)
(3.0807e-08 -1.59385e-06 0)
(3.07618e-08 -1.59941e-06 0)
(3.07167e-08 -1.60495e-06 0)
(3.06716e-08 -1.61044e-06 0)
(3.06266e-08 -1.61591e-06 0)
(3.05816e-08 -1.62134e-06 0)
(3.05367e-08 -1.62674e-06 0)
(3.04919e-08 -1.63211e-06 0)
(3.04471e-08 -1.63744e-06 0)
(3.04024e-08 -1.64274e-06 0)
(3.03576e-08 -1.64803e-06 0)
(3.03135e-08 -1.65321e-06 0)
(3.02722e-08 -1.65797e-06 0)
(3.02341e-08 -1.66228e-06 0)
(3.01972e-08 -1.66647e-06 0)
(3.01605e-08 -1.67069e-06 0)
(3.01237e-08 -1.67494e-06 0)
(3.00867e-08 -1.6792e-06 0)
(3.00495e-08 -1.68346e-06 0)
(3.00122e-08 -1.68772e-06 0)
(2.99746e-08 -1.69199e-06 0)
(2.99369e-08 -1.69626e-06 0)
(2.98991e-08 -1.70054e-06 0)
(2.9861e-08 -1.70482e-06 0)
(2.98228e-08 -1.70911e-06 0)
(2.97843e-08 -1.7134e-06 0)
(2.97457e-08 -1.7177e-06 0)
(2.97069e-08 -1.722e-06 0)
(2.9668e-08 -1.7263e-06 0)
(2.96288e-08 -1.73061e-06 0)
(2.95895e-08 -1.73492e-06 0)
(2.95499e-08 -1.73924e-06 0)
(2.95102e-08 -1.74356e-06 0)
(2.94703e-08 -1.74789e-06 0)
(2.94302e-08 -1.75222e-06 0)
(2.93899e-08 -1.75656e-06 0)
(2.93495e-08 -1.7609e-06 0)
(2.93088e-08 -1.76524e-06 0)
(2.9268e-08 -1.76959e-06 0)
(2.9227e-08 -1.77394e-06 0)
(2.91857e-08 -1.7783e-06 0)
(2.91443e-08 -1.78266e-06 0)
(2.91027e-08 -1.78702e-06 0)
(2.90609e-08 -1.79139e-06 0)
(2.90189e-08 -1.79576e-06 0)
(2.89767e-08 -1.80014e-06 0)
(2.89344e-08 -1.80452e-06 0)
(2.88918e-08 -1.8089e-06 0)
(2.8849e-08 -1.81329e-06 0)
(2.88061e-08 -1.81768e-06 0)
(2.87629e-08 -1.82208e-06 0)
(2.87196e-08 -1.82648e-06 0)
(2.8676e-08 -1.83088e-06 0)
(2.86323e-08 -1.83529e-06 0)
(2.85883e-08 -1.8397e-06 0)
(2.85442e-08 -1.84411e-06 0)
(2.84998e-08 -1.84853e-06 0)
(2.84553e-08 -1.85295e-06 0)
(2.84106e-08 -1.85738e-06 0)
(2.83656e-08 -1.86181e-06 0)
(2.83205e-08 -1.86624e-06 0)
(2.82751e-08 -1.87067e-06 0)
(2.82296e-08 -1.87511e-06 0)
(2.81839e-08 -1.87955e-06 0)
(2.81379e-08 -1.884e-06 0)
(2.80918e-08 -1.88844e-06 0)
(2.80454e-08 -1.8929e-06 0)
(2.79989e-08 -1.89735e-06 0)
(2.79521e-08 -1.90181e-06 0)
(2.79051e-08 -1.90627e-06 0)
(2.7858e-08 -1.91073e-06 0)
(2.78106e-08 -1.9152e-06 0)
(2.7763e-08 -1.91967e-06 0)
(2.77152e-08 -1.92414e-06 0)
(2.76672e-08 -1.92861e-06 0)
(2.7619e-08 -1.93309e-06 0)
(2.75706e-08 -1.93757e-06 0)
(2.7522e-08 -1.94205e-06 0)
(2.74731e-08 -1.94654e-06 0)
(2.74241e-08 -1.95103e-06 0)
(2.73749e-08 -1.95552e-06 0)
(2.73254e-08 -1.96001e-06 0)
(2.72757e-08 -1.96451e-06 0)
(2.72259e-08 -1.969e-06 0)
(2.71758e-08 -1.97351e-06 0)
(2.71255e-08 -1.97801e-06 0)
(2.7075e-08 -1.98251e-06 0)
(2.70243e-08 -1.98702e-06 0)
(2.69733e-08 -1.99153e-06 0)
(2.69222e-08 -1.99604e-06 0)
(2.68708e-08 -2.00055e-06 0)
(2.68193e-08 -2.00507e-06 0)
(2.67675e-08 -2.00959e-06 0)
(2.67155e-08 -2.0141e-06 0)
(2.66633e-08 -2.01863e-06 0)
(2.66108e-08 -2.02315e-06 0)
(2.65582e-08 -2.02767e-06 0)
(2.65053e-08 -2.0322e-06 0)
(2.64523e-08 -2.03673e-06 0)
(2.6399e-08 -2.04126e-06 0)
(2.63455e-08 -2.04579e-06 0)
(2.62918e-08 -2.05032e-06 0)
(2.62378e-08 -2.05485e-06 0)
(2.61837e-08 -2.05939e-06 0)
(2.61293e-08 -2.06392e-06 0)
(2.60748e-08 -2.06846e-06 0)
(2.602e-08 -2.073e-06 0)
(2.59649e-08 -2.07754e-06 0)
(2.59097e-08 -2.08208e-06 0)
(2.58543e-08 -2.08662e-06 0)
(2.57986e-08 -2.09117e-06 0)
(2.57427e-08 -2.09571e-06 0)
(2.56866e-08 -2.10025e-06 0)
(2.56303e-08 -2.1048e-06 0)
(2.55738e-08 -2.10934e-06 0)
(2.5517e-08 -2.11389e-06 0)
(2.546e-08 -2.11844e-06 0)
(2.54029e-08 -2.12299e-06 0)
(2.53454e-08 -2.12753e-06 0)
(2.52878e-08 -2.13208e-06 0)
(2.523e-08 -2.13663e-06 0)
(2.51719e-08 -2.14118e-06 0)
(2.51136e-08 -2.14573e-06 0)
(2.50551e-08 -2.15028e-06 0)
(2.49964e-08 -2.15483e-06 0)
(2.49375e-08 -2.15938e-06 0)
(2.48783e-08 -2.16393e-06 0)
(2.48189e-08 -2.16848e-06 0)
(2.47594e-08 -2.17303e-06 0)
(2.46995e-08 -2.17757e-06 0)
(2.46395e-08 -2.18212e-06 0)
(2.45793e-08 -2.18667e-06 0)
(2.45188e-08 -2.19122e-06 0)
(2.44581e-08 -2.19577e-06 0)
(2.43972e-08 -2.20031e-06 0)
(2.43361e-08 -2.20486e-06 0)
(2.42748e-08 -2.2094e-06 0)
(2.42132e-08 -2.21395e-06 0)
(2.41514e-08 -2.21849e-06 0)
(2.40894e-08 -2.22303e-06 0)
(2.40272e-08 -2.22758e-06 0)
(2.39648e-08 -2.23212e-06 0)
(2.39022e-08 -2.23666e-06 0)
(2.38393e-08 -2.24119e-06 0)
(2.37762e-08 -2.24573e-06 0)
(2.3713e-08 -2.25027e-06 0)
(2.36494e-08 -2.2548e-06 0)
(2.35857e-08 -2.25933e-06 0)
(2.35218e-08 -2.26386e-06 0)
(2.34576e-08 -2.26839e-06 0)
(2.33933e-08 -2.27292e-06 0)
(2.33287e-08 -2.27744e-06 0)
(2.32639e-08 -2.28197e-06 0)
(2.31989e-08 -2.28649e-06 0)
(2.31337e-08 -2.29101e-06 0)
(2.30682e-08 -2.29553e-06 0)
(2.30026e-08 -2.30004e-06 0)
(2.29367e-08 -2.30456e-06 0)
(2.28706e-08 -2.30907e-06 0)
(2.28044e-08 -2.31357e-06 0)
(2.27379e-08 -2.31808e-06 0)
(2.26712e-08 -2.32258e-06 0)
(2.26042e-08 -2.32708e-06 0)
(2.25371e-08 -2.33158e-06 0)
(2.24698e-08 -2.33608e-06 0)
(2.24022e-08 -2.34057e-06 0)
(2.23345e-08 -2.34506e-06 0)
(2.22665e-08 -2.34954e-06 0)
(2.21983e-08 -2.35403e-06 0)
(2.213e-08 -2.35851e-06 0)
(2.20614e-08 -2.36298e-06 0)
(2.19926e-08 -2.36746e-06 0)
(2.19236e-08 -2.37192e-06 0)
(2.18544e-08 -2.37639e-06 0)
(2.1785e-08 -2.38085e-06 0)
(2.17154e-08 -2.38531e-06 0)
(2.16456e-08 -2.38977e-06 0)
(2.15756e-08 -2.39422e-06 0)
(2.15054e-08 -2.39866e-06 0)
(2.1435e-08 -2.40311e-06 0)
(2.13644e-08 -2.40754e-06 0)
(2.12936e-08 -2.41198e-06 0)
(2.12226e-08 -2.41641e-06 0)
(2.11513e-08 -2.42084e-06 0)
(2.10803e-08 -2.42523e-06 0)
(2.10119e-08 -2.42941e-06 0)
(2.09462e-08 -2.4334e-06 0)
(2.08812e-08 -2.43734e-06 0)
(2.08159e-08 -2.44132e-06 0)
(2.07498e-08 -2.44535e-06 0)
(2.06831e-08 -2.44942e-06 0)
(2.06156e-08 -2.45351e-06 0)
(2.05473e-08 -2.45763e-06 0)
(2.04783e-08 -2.46178e-06 0)
(2.04085e-08 -2.46597e-06 0)
(2.0338e-08 -2.47018e-06 0)
(2.02666e-08 -2.47443e-06 0)
(2.01945e-08 -2.4787e-06 0)
(2.01216e-08 -2.48301e-06 0)
(2.00478e-08 -2.48735e-06 0)
(1.99733e-08 -2.49172e-06 0)
(1.98979e-08 -2.49612e-06 0)
(1.98217e-08 -2.50055e-06 0)
(1.97447e-08 -2.50501e-06 0)
(1.96668e-08 -2.5095e-06 0)
(1.95881e-08 -2.51403e-06 0)
(1.95085e-08 -2.51858e-06 0)
(1.94281e-08 -2.52316e-06 0)
(1.93468e-08 -2.52778e-06 0)
(1.92646e-08 -2.53243e-06 0)
(1.91815e-08 -2.5371e-06 0)
(1.90975e-08 -2.54181e-06 0)
(1.90127e-08 -2.54654e-06 0)
(1.89269e-08 -2.55131e-06 0)
(1.88402e-08 -2.55611e-06 0)
(1.87526e-08 -2.56093e-06 0)
(1.86641e-08 -2.56579e-06 0)
(1.85746e-08 -2.57067e-06 0)
(1.84842e-08 -2.57559e-06 0)
(1.83928e-08 -2.58053e-06 0)
(1.83005e-08 -2.5855e-06 0)
(1.82072e-08 -2.5905e-06 0)
(1.8113e-08 -2.59553e-06 0)
(1.80178e-08 -2.60059e-06 0)
(1.79215e-08 -2.60568e-06 0)
(1.78244e-08 -2.61079e-06 0)
(1.77262e-08 -2.61593e-06 0)
(1.7627e-08 -2.6211e-06 0)
(1.75268e-08 -2.62629e-06 0)
(1.74256e-08 -2.63151e-06 0)
(1.73234e-08 -2.63675e-06 0)
(1.72201e-08 -2.64203e-06 0)
(1.71159e-08 -2.64732e-06 0)
(1.70106e-08 -2.65264e-06 0)
(1.69043e-08 -2.65799e-06 0)
(1.67969e-08 -2.66336e-06 0)
(1.66885e-08 -2.66875e-06 0)
(1.6579e-08 -2.67417e-06 0)
(1.64685e-08 -2.67961e-06 0)
(1.63569e-08 -2.68507e-06 0)
(1.62443e-08 -2.69055e-06 0)
(1.61305e-08 -2.69606e-06 0)
(1.60158e-08 -2.70158e-06 0)
(1.58999e-08 -2.70713e-06 0)
(1.5783e-08 -2.71269e-06 0)
(1.5665e-08 -2.71827e-06 0)
(1.5546e-08 -2.72388e-06 0)
(1.54258e-08 -2.72949e-06 0)
(1.53046e-08 -2.73513e-06 0)
(1.51823e-08 -2.74078e-06 0)
(1.50589e-08 -2.74644e-06 0)
(1.49345e-08 -2.75213e-06 0)
(1.48089e-08 -2.75782e-06 0)
(1.46823e-08 -2.76353e-06 0)
(1.45546e-08 -2.76925e-06 0)
(1.44258e-08 -2.77498e-06 0)
(1.4296e-08 -2.78072e-06 0)
(1.41651e-08 -2.78647e-06 0)
(1.40331e-08 -2.79223e-06 0)
(1.39e-08 -2.798e-06 0)
(1.37659e-08 -2.80377e-06 0)
(1.36307e-08 -2.80955e-06 0)
(1.34945e-08 -2.81534e-06 0)
(1.33573e-08 -2.82113e-06 0)
(1.32189e-08 -2.82692e-06 0)
(1.30796e-08 -2.83272e-06 0)
(1.29392e-08 -2.83851e-06 0)
(1.27978e-08 -2.8443e-06 0)
(1.26554e-08 -2.8501e-06 0)
(1.2512e-08 -2.85588e-06 0)
(1.23677e-08 -2.86167e-06 0)
(1.22223e-08 -2.86745e-06 0)
(1.20759e-08 -2.87322e-06 0)
(1.19286e-08 -2.87899e-06 0)
(1.17804e-08 -2.88474e-06 0)
(1.16312e-08 -2.89049e-06 0)
(1.14811e-08 -2.89622e-06 0)
(1.13301e-08 -2.90194e-06 0)
(1.11782e-08 -2.90765e-06 0)
(1.10255e-08 -2.91334e-06 0)
(1.08719e-08 -2.91901e-06 0)
(1.07174e-08 -2.92466e-06 0)
(1.05621e-08 -2.93029e-06 0)
(1.04061e-08 -2.9359e-06 0)
(1.02492e-08 -2.94149e-06 0)
(1.00916e-08 -2.94705e-06 0)
(9.9333e-09 -2.95258e-06 0)
(9.77425e-09 -2.95809e-06 0)
(9.61451e-09 -2.96356e-06 0)
(9.45411e-09 -2.969e-06 0)
(9.29308e-09 -2.97441e-06 0)
(9.13143e-09 -2.97978e-06 0)
(8.9692e-09 -2.98512e-06 0)
(8.80641e-09 -2.99042e-06 0)
(8.64309e-09 -2.99567e-06 0)
(8.47928e-09 -3.00088e-06 0)
(8.31501e-09 -3.00605e-06 0)
(8.1503e-09 -3.01117e-06 0)
(7.9852e-09 -3.01625e-06 0)
(7.81972e-09 -3.02127e-06 0)
(7.65392e-09 -3.02624e-06 0)
(7.48782e-09 -3.03116e-06 0)
(7.32146e-09 -3.03602e-06 0)
(7.15488e-09 -3.04083e-06 0)
(6.98811e-09 -3.04557e-06 0)
(6.82121e-09 -3.05025e-06 0)
(6.6542e-09 -3.05487e-06 0)
(6.48712e-09 -3.05942e-06 0)
(6.32003e-09 -3.06391e-06 0)
(6.15296e-09 -3.06832e-06 0)
(5.98595e-09 -3.07266e-06 0)
(5.81906e-09 -3.07693e-06 0)
(5.65232e-09 -3.08113e-06 0)
(5.48578e-09 -3.08524e-06 0)
(5.31948e-09 -3.08928e-06 0)
(5.15349e-09 -3.09323e-06 0)
(4.98783e-09 -3.0971e-06 0)
(4.82257e-09 -3.10088e-06 0)
(4.65775e-09 -3.10458e-06 0)
(4.49342e-09 -3.10818e-06 0)
(4.32964e-09 -3.1117e-06 0)
(4.16644e-09 -3.11511e-06 0)
(4.0039e-09 -3.11844e-06 0)
(3.84205e-09 -3.12166e-06 0)
(3.68095e-09 -3.12479e-06 0)
(3.52066e-09 -3.12781e-06 0)
(3.36123e-09 -3.13073e-06 0)
(3.2027e-09 -3.13355e-06 0)
(3.04515e-09 -3.13626e-06 0)
(2.88862e-09 -3.13886e-06 0)
(2.73316e-09 -3.14135e-06 0)
(2.57884e-09 -3.14372e-06 0)
(2.42571e-09 -3.14598e-06 0)
(2.27382e-09 -3.14813e-06 0)
(2.12323e-09 -3.15016e-06 0)
(1.97399e-09 -3.15207e-06 0)
(1.82617e-09 -3.15386e-06 0)
(1.67981e-09 -3.15553e-06 0)
(1.53497e-09 -3.15707e-06 0)
(1.3917e-09 -3.15849e-06 0)
(1.25006e-09 -3.15979e-06 0)
(1.1101e-09 -3.16096e-06 0)
(9.71871e-10 -3.162e-06 0)
(8.35427e-10 -3.1629e-06 0)
(7.00818e-10 -3.16368e-06 0)
(5.68094e-10 -3.16433e-06 0)
(4.37304e-10 -3.16485e-06 0)
(3.08496e-10 -3.16523e-06 0)
(1.81718e-10 -3.16548e-06 0)
(5.70158e-11 -3.16559e-06 0)
(-6.5565e-11 -3.16557e-06 0)
(-1.8598e-10 -3.16541e-06 0)
(-3.04186e-10 -3.16512e-06 0)
(-4.20141e-10 -3.16469e-06 0)
(-5.33803e-10 -3.16412e-06 0)
(-6.45133e-10 -3.16341e-06 0)
(-7.54093e-10 -3.16257e-06 0)
(-8.60643e-10 -3.16159e-06 0)
(-9.64749e-10 -3.16047e-06 0)
(-1.06637e-09 -3.15921e-06 0)
(-1.16549e-09 -3.15782e-06 0)
(-1.26206e-09 -3.15629e-06 0)
(-1.35602e-09 -3.15463e-06 0)
(-1.44751e-09 -3.15283e-06 0)
(-1.53582e-09 -3.15087e-06 0)
(-1.62377e-09 -3.14881e-06 0)
(-1.71599e-09 -3.14637e-06 0)
(-1.81028e-09 -3.14349e-06 0)
(-1.90181e-09 -3.14046e-06 0)
(-1.98872e-09 -3.13729e-06 0)
(-2.07083e-09 -3.13399e-06 0)
(-2.14823e-09 -3.13056e-06 0)
(-2.22103e-09 -3.127e-06 0)
(-2.28933e-09 -3.12333e-06 0)
(-2.35327e-09 -3.11956e-06 0)
(-2.41298e-09 -3.11568e-06 0)
(-2.46859e-09 -3.11172e-06 0)
(-2.52022e-09 -3.10766e-06 0)
(-2.56801e-09 -3.10353e-06 0)
(-2.61207e-09 -3.09932e-06 0)
(-2.65251e-09 -3.09504e-06 0)
(-2.68945e-09 -3.09071e-06 0)
(-2.723e-09 -3.08631e-06 0)
(-2.75327e-09 -3.08186e-06 0)
(-2.78035e-09 -3.07737e-06 0)
(-2.80435e-09 -3.07284e-06 0)
(-2.82536e-09 -3.06827e-06 0)
(-2.84348e-09 -3.06366e-06 0)
(-2.85881e-09 -3.05904e-06 0)
(-2.87141e-09 -3.05439e-06 0)
(-2.88139e-09 -3.04972e-06 0)
(-2.88882e-09 -3.04503e-06 0)
(-2.89377e-09 -3.04034e-06 0)
(-2.89634e-09 -3.03564e-06 0)
(-2.89658e-09 -3.03094e-06 0)
(-2.89457e-09 -3.02624e-06 0)
(-2.89038e-09 -3.02155e-06 0)
(-2.88407e-09 -3.01687e-06 0)
(-2.87571e-09 -3.01219e-06 0)
(-2.86535e-09 -3.00754e-06 0)
(-2.85306e-09 -3.0029e-06 0)
(-2.83889e-09 -2.99828e-06 0)
(-2.8229e-09 -2.99369e-06 0)
(-2.80514e-09 -2.98912e-06 0)
(-2.78565e-09 -2.98458e-06 0)
(-2.7645e-09 -2.98008e-06 0)
(-2.74172e-09 -2.97562e-06 0)
(-2.71736e-09 -2.97119e-06 0)
(-2.69147e-09 -2.9668e-06 0)
(-2.66409e-09 -2.96246e-06 0)
(-2.63525e-09 -2.95816e-06 0)
(-2.60501e-09 -2.95391e-06 0)
(-2.57339e-09 -2.94971e-06 0)
(-2.54043e-09 -2.94556e-06 0)
(-2.50618e-09 -2.94147e-06 0)
(-2.47065e-09 -2.93743e-06 0)
(-2.4339e-09 -2.93345e-06 0)
(-2.39595e-09 -2.92953e-06 0)
(-2.35682e-09 -2.92568e-06 0)
(-2.31656e-09 -2.92189e-06 0)
(-2.2752e-09 -2.91816e-06 0)
(-2.23275e-09 -2.9145e-06 0)
(-2.18926e-09 -2.91092e-06 0)
(-2.14474e-09 -2.9074e-06 0)
(-2.09923e-09 -2.90396e-06 0)
(-2.05275e-09 -2.90059e-06 0)
(-2.00533e-09 -2.8973e-06 0)
(-1.95699e-09 -2.89408e-06 0)
(-1.90777e-09 -2.89094e-06 0)
(-1.85768e-09 -2.88789e-06 0)
(-1.80676e-09 -2.88491e-06 0)
(-1.75502e-09 -2.88203e-06 0)
(-1.70249e-09 -2.87922e-06 0)
(-1.64921e-09 -2.8765e-06 0)
(-1.59518e-09 -2.87386e-06 0)
(-1.54044e-09 -2.87132e-06 0)
(-1.48502e-09 -2.86886e-06 0)
(-1.42893e-09 -2.8665e-06 0)
(-1.3722e-09 -2.86422e-06 0)
(-1.31486e-09 -2.86204e-06 0)
(-1.25694e-09 -2.85995e-06 0)
(-1.19845e-09 -2.85795e-06 0)
(-1.13942e-09 -2.85605e-06 0)
(-1.07988e-09 -2.85425e-06 0)
(-1.01985e-09 -2.85254e-06 0)
(-9.59358e-10 -2.85093e-06 0)
(-8.98432e-10 -2.84942e-06 0)
(-8.37099e-10 -2.84801e-06 0)
(-7.75384e-10 -2.84669e-06 0)
(-7.13319e-10 -2.84548e-06 0)
(-6.5093e-10 -2.84436e-06 0)
(-5.88253e-10 -2.84337e-06 0)
(-5.25317e-10 -2.8424e-06 0)
(-4.6217e-10 -2.8418e-06 0)
(-3.98808e-10 -2.84043e-06 0)
(-3.35411e-10 -2.84198e-06 0)
(-2.71542e-10 -2.8341e-06 0)
(-2.08747e-10 -2.85677e-06 0)
(-1.42147e-10 -2.77097e-06 0)
(-8.8053e-11 -2.99835e-06 0)
(-3.499e-11 -2.61873e-06 0)
)
;
    }
    bottomWall
    {
        type            calculated;
        value           nonuniform List<vector> 
449
(
(-48.5113 -0.963799 0)
(-19.7468 -0.0051519 0)
(-14.3454 -0.00113278 0)
(-12.0433 -0.000542691 0)
(-10.6487 -0.000346698 0)
(-9.67606 -0.000246746 0)
(-8.95993 -0.000178892 0)
(-8.44886 -0.000115898 0)
(-8.16346 -3.4961e-05 0)
(-8.21011 0.000120776 0)
(-9.00341 0.000294768 0)
(-10.254 0.00032 0)
(-11.2212 0.000221897 0)
(-11.7945 0.000127211 0)
(-12.107 6.86093e-05 0)
(-12.2736 3.47128e-05 0)
(-12.3499 1.32021e-05 0)
(-12.3661 -1.4833e-06 0)
(-12.3394 -1.09224e-05 0)
(-12.289 -1.6639e-05 0)
(-12.2216 -2.03082e-05 0)
(-12.145 -2.22237e-05 0)
(-12.0637 -2.30534e-05 0)
(-11.9807 -2.32179e-05 0)
(-11.8979 -2.29857e-05 0)
(-11.8162 -2.25394e-05 0)
(-11.7362 -2.19587e-05 0)
(-11.6583 -2.12778e-05 0)
(-11.5828 -2.05574e-05 0)
(-11.5098 -1.98284e-05 0)
(-11.4392 -1.91088e-05 0)
(-11.3711 -1.84087e-05 0)
(-11.3053 -1.77342e-05 0)
(-11.2417 -1.70864e-05 0)
(-11.1804 -1.64785e-05 0)
(-11.121 -1.5909e-05 0)
(-11.0635 -1.53592e-05 0)
(-11.0079 -1.48294e-05 0)
(-10.954 -1.43263e-05 0)
(-10.9019 -1.38496e-05 0)
(-10.8514 -1.33965e-05 0)
(-10.8023 -1.29672e-05 0)
(-10.7547 -1.25615e-05 0)
(-10.7085 -1.21763e-05 0)
(-10.6636 -1.18101e-05 0)
(-10.6199 -1.14609e-05 0)
(-10.5774 -1.11301e-05 0)
(-10.536 -1.08134e-05 0)
(-10.4957 -1.05221e-05 0)
(-10.4563 -1.02664e-05 0)
(-10.4177 -1.00336e-05 0)
(-10.3799 -9.81508e-06 0)
(-10.3429 -9.6029e-06 0)
(-10.3065 -9.39306e-06 0)
(-10.2709 -9.18743e-06 0)
(-10.2359 -8.98336e-06 0)
(-10.2017 -8.78341e-06 0)
(-10.1682 -8.59019e-06 0)
(-10.1353 -8.40103e-06 0)
(-10.103 -8.21763e-06 0)
(-10.0714 -8.04114e-06 0)
(-10.0404 -7.8717e-06 0)
(-10.0099 -7.70648e-06 0)
(-9.98003 -7.54507e-06 0)
(-9.95071 -7.38906e-06 0)
(-9.92191 -7.23996e-06 0)
(-9.89363 -7.09566e-06 0)
(-9.86584 -6.95539e-06 0)
(-9.83854 -6.81889e-06 0)
(-9.8117 -6.69081e-06 0)
(-9.78529 -6.5684e-06 0)
(-9.75931 -6.44633e-06 0)
(-9.73374 -6.32779e-06 0)
(-9.70859 -6.21265e-06 0)
(-9.68383 -6.10034e-06 0)
(-9.65947 -5.99024e-06 0)
(-9.63548 -5.88329e-06 0)
(-9.61187 -5.77957e-06 0)
(-9.58861 -5.67897e-06 0)
(-9.5657 -5.58132e-06 0)
(-9.54313 -5.48646e-06 0)
(-9.52089 -5.39414e-06 0)
(-9.49897 -5.30496e-06 0)
(-9.47735 -5.21813e-06 0)
(-9.45604 -5.13388e-06 0)
(-9.43502 -5.05273e-06 0)
(-9.41428 -4.97306e-06 0)
(-9.39382 -4.89541e-06 0)
(-9.37363 -4.81921e-06 0)
(-9.35371 -4.74465e-06 0)
(-9.33405 -4.67268e-06 0)
(-9.31463 -4.60198e-06 0)
(-9.29547 -4.53399e-06 0)
(-9.27654 -4.46705e-06 0)
(-9.25785 -4.40122e-06 0)
(-9.23938 -4.33834e-06 0)
(-9.22113 -4.27603e-06 0)
(-9.20311 -4.21564e-06 0)
(-9.18529 -4.15665e-06 0)
(-9.16769 -4.09958e-06 0)
(-9.15027 -4.04734e-06 0)
(-9.13303 -3.99523e-06 0)
(-9.11598 -3.94145e-06 0)
(-9.09912 -3.8895e-06 0)
(-9.08244 -3.83805e-06 0)
(-9.06594 -3.78714e-06 0)
(-9.04962 -3.73875e-06 0)
(-9.03347 -3.69061e-06 0)
(-9.01749 -3.64271e-06 0)
(-9.00168 -3.59749e-06 0)
(-8.98602 -3.55232e-06 0)
(-8.97054 -3.50727e-06 0)
(-8.9552 -3.46483e-06 0)
(-8.94001 -3.42242e-06 0)
(-8.92498 -3.3801e-06 0)
(-8.9101 -3.34006e-06 0)
(-8.89535 -3.30033e-06 0)
(-8.88075 -3.2606e-06 0)
(-8.86629 -3.22262e-06 0)
(-8.85195 -3.18538e-06 0)
(-8.83776 -3.14802e-06 0)
(-8.82369 -3.11178e-06 0)
(-8.80976 -3.07684e-06 0)
(-8.79594 -3.04176e-06 0)
(-8.78226 -3.00707e-06 0)
(-8.76869 -2.974e-06 0)
(-8.75524 -2.94124e-06 0)
(-8.74191 -2.90836e-06 0)
(-8.7287 -2.87663e-06 0)
(-8.7156 -2.846e-06 0)
(-8.7026 -2.8151e-06 0)
(-8.68972 -2.78447e-06 0)
(-8.67695 -2.75542e-06 0)
(-8.66427 -2.7266e-06 0)
(-8.65171 -2.69741e-06 0)
(-8.63925 -2.66925e-06 0)
(-8.62688 -2.64237e-06 0)
(-8.61461 -2.61501e-06 0)
(-8.60244 -2.58761e-06 0)
(-8.59037 -2.56168e-06 0)
(-8.57839 -2.53635e-06 0)
(-8.5665 -2.51052e-06 0)
(-8.55471 -2.48514e-06 0)
(-8.54301 -2.46114e-06 0)
(-8.53138 -2.43853e-06 0)
(-8.51984 -2.41634e-06 0)
(-8.50837 -2.39364e-06 0)
(-8.49699 -2.3708e-06 0)
(-8.48569 -2.34806e-06 0)
(-8.47447 -2.32521e-06 0)
(-8.46334 -2.30288e-06 0)
(-8.45228 -2.28136e-06 0)
(-8.4413 -2.26009e-06 0)
(-8.4304 -2.23861e-06 0)
(-8.41958 -2.21753e-06 0)
(-8.40883 -2.19725e-06 0)
(-8.39816 -2.17728e-06 0)
(-8.38755 -2.15705e-06 0)
(-8.37703 -2.13707e-06 0)
(-8.36657 -2.11791e-06 0)
(-8.35618 -2.09916e-06 0)
(-8.34586 -2.08009e-06 0)
(-8.33561 -2.06109e-06 0)
(-8.32543 -2.04292e-06 0)
(-8.31531 -2.02535e-06 0)
(-8.30526 -2.00736e-06 0)
(-8.29528 -1.98927e-06 0)
(-8.28536 -1.97197e-06 0)
(-8.2755 -1.95541e-06 0)
(-8.2657 -1.93841e-06 0)
(-8.25596 -1.92162e-06 0)
(-8.24629 -1.9049e-06 0)
(-8.23668 -1.88656e-06 0)
(-8.22767 -1.87312e-06 0)
(-8.21918 -1.86154e-06 0)
(-8.21067 -1.84558e-06 0)
(-8.20214 -1.83082e-06 0)
(-8.19357 -1.81721e-06 0)
(-8.18499 -1.80332e-06 0)
(-8.17637 -1.78926e-06 0)
(-8.16773 -1.77504e-06 0)
(-8.15907 -1.76133e-06 0)
(-8.15038 -1.74779e-06 0)
(-8.14166 -1.73418e-06 0)
(-8.13291 -1.72027e-06 0)
(-8.12415 -1.70639e-06 0)
(-8.11536 -1.69289e-06 0)
(-8.10654 -1.67959e-06 0)
(-8.0977 -1.66611e-06 0)
(-8.08883 -1.65243e-06 0)
(-8.07994 -1.63889e-06 0)
(-8.07103 -1.62567e-06 0)
(-8.06209 -1.6126e-06 0)
(-8.05313 -1.59929e-06 0)
(-8.04415 -1.5858e-06 0)
(-8.03515 -1.57264e-06 0)
(-8.02612 -1.55972e-06 0)
(-8.01707 -1.54684e-06 0)
(-8.008 -1.53371e-06 0)
(-7.99891 -1.52057e-06 0)
(-7.9898 -1.50778e-06 0)
(-7.98066 -1.49524e-06 0)
(-7.97151 -1.48248e-06 0)
(-7.96233 -1.46955e-06 0)
(-7.95314 -1.45691e-06 0)
(-7.94392 -1.44465e-06 0)
(-7.93469 -1.43253e-06 0)
(-7.92543 -1.42044e-06 0)
(-7.91615 -1.40879e-06 0)
(-7.90684 -1.39726e-06 0)
(-7.89751 -1.38522e-06 0)
(-7.88816 -1.37279e-06 0)
(-7.8788 -1.36028e-06 0)
(-7.86942 -1.34821e-06 0)
(-7.86003 -1.33636e-06 0)
(-7.85061 -1.32432e-06 0)
(-7.84118 -1.31211e-06 0)
(-7.83174 -1.30018e-06 0)
(-7.82227 -1.28853e-06 0)
(-7.81279 -1.27679e-06 0)
(-7.8033 -1.26484e-06 0)
(-7.7938 -1.25307e-06 0)
(-7.78427 -1.24161e-06 0)
(-7.77474 -1.23013e-06 0)
(-7.76519 -1.21844e-06 0)
(-7.75563 -1.20685e-06 0)
(-7.74605 -1.19559e-06 0)
(-7.73647 -1.18436e-06 0)
(-7.72687 -1.17291e-06 0)
(-7.71726 -1.16153e-06 0)
(-7.70764 -1.1505e-06 0)
(-7.698 -1.1395e-06 0)
(-7.68836 -1.1283e-06 0)
(-7.67871 -1.11716e-06 0)
(-7.66905 -1.10635e-06 0)
(-7.65938 -1.0956e-06 0)
(-7.6497 -1.08466e-06 0)
(-7.64001 -1.07379e-06 0)
(-7.63031 -1.06322e-06 0)
(-7.62061 -1.0527e-06 0)
(-7.6109 -1.04201e-06 0)
(-7.60118 -1.03142e-06 0)
(-7.59146 -1.02109e-06 0)
(-7.58173 -1.01077e-06 0)
(-7.57199 -1.00033e-06 0)
(-7.56226 -9.90003e-07 0)
(-7.55251 -9.79898e-07 0)
(-7.54276 -9.69798e-07 0)
(-7.53301 -9.59606e-07 0)
(-7.52326 -9.4955e-07 0)
(-7.5135 -9.39699e-07 0)
(-7.50374 -9.29827e-07 0)
(-7.49397 -9.19888e-07 0)
(-7.48421 -9.10121e-07 0)
(-7.47445 -9.00541e-07 0)
(-7.46468 -8.90902e-07 0)
(-7.45492 -8.81201e-07 0)
(-7.44515 -8.71732e-07 0)
(-7.43539 -8.62402e-07 0)
(-7.42562 -8.52991e-07 0)
(-7.41586 -8.43565e-07 0)
(-7.4061 -8.34392e-07 0)
(-7.39634 -8.25289e-07 0)
(-7.38659 -8.16113e-07 0)
(-7.37683 -8.07005e-07 0)
(-7.36709 -7.98143e-07 0)
(-7.35734 -7.89265e-07 0)
(-7.3476 -7.80327e-07 0)
(-7.33786 -7.71537e-07 0)
(-7.32813 -7.6307e-07 0)
(-7.3184 -7.54882e-07 0)
(-7.30867 -7.46579e-07 0)
(-7.29895 -7.38099e-07 0)
(-7.28923 -7.29673e-07 0)
(-7.27951 -7.21148e-07 0)
(-7.26982 -7.12734e-07 0)
(-7.26012 -7.04521e-07 0)
(-7.25044 -6.96307e-07 0)
(-7.24076 -6.88031e-07 0)
(-7.2311 -6.79967e-07 0)
(-7.22144 -6.72036e-07 0)
(-7.2118 -6.64035e-07 0)
(-7.20216 -6.56077e-07 0)
(-7.19254 -6.4835e-07 0)
(-7.18293 -6.40623e-07 0)
(-7.17333 -6.32848e-07 0)
(-7.16374 -6.25238e-07 0)
(-7.15417 -6.17765e-07 0)
(-7.14461 -6.10234e-07 0)
(-7.13506 -6.02738e-07 0)
(-7.12553 -5.95468e-07 0)
(-7.11601 -5.88208e-07 0)
(-7.1065 -5.80923e-07 0)
(-7.09702 -5.73786e-07 0)
(-7.08754 -5.66791e-07 0)
(-7.07808 -5.59741e-07 0)
(-7.06864 -5.52755e-07 0)
(-7.05921 -5.45953e-07 0)
(-7.04979 -5.39179e-07 0)
(-7.0404 -5.32372e-07 0)
(-7.03102 -5.25737e-07 0)
(-7.02166 -5.19188e-07 0)
(-7.01231 -5.12621e-07 0)
(-7.00299 -5.06113e-07 0)
(-6.99368 -4.99788e-07 0)
(-6.98439 -4.93447e-07 0)
(-6.97511 -4.87135e-07 0)
(-6.96586 -4.80961e-07 0)
(-6.95662 -4.7488e-07 0)
(-6.9474 -4.6877e-07 0)
(-6.9382 -4.62776e-07 0)
(-6.92903 -4.56901e-07 0)
(-6.91986 -4.51035e-07 0)
(-6.91072 -4.4518e-07 0)
(-6.9016 -4.39494e-07 0)
(-6.8925 -4.33828e-07 0)
(-6.88342 -4.28187e-07 0)
(-6.87436 -4.22638e-07 0)
(-6.86531 -4.17197e-07 0)
(-6.85629 -4.11737e-07 0)
(-6.84729 -4.06357e-07 0)
(-6.83831 -4.01092e-07 0)
(-6.82935 -3.95855e-07 0)
(-6.82042 -3.90632e-07 0)
(-6.8115 -3.85546e-07 0)
(-6.80261 -3.805e-07 0)
(-6.79373 -3.75475e-07 0)
(-6.78488 -3.70524e-07 0)
(-6.77605 -3.65666e-07 0)
(-6.76724 -3.60806e-07 0)
(-6.75846 -3.56005e-07 0)
(-6.7497 -3.51343e-07 0)
(-6.74095 -3.46798e-07 0)
(-6.73223 -3.42258e-07 0)
(-6.72353 -3.37765e-07 0)
(-6.71484 -3.33281e-07 0)
(-6.70619 -3.28822e-07 0)
(-6.69755 -3.24422e-07 0)
(-6.68894 -3.20104e-07 0)
(-6.68035 -3.15789e-07 0)
(-6.67179 -3.11534e-07 0)
(-6.66324 -3.07365e-07 0)
(-6.65473 -3.03223e-07 0)
(-6.64623 -2.99101e-07 0)
(-6.63776 -2.95089e-07 0)
(-6.62931 -2.91098e-07 0)
(-6.62089 -2.87135e-07 0)
(-6.61248 -2.83226e-07 0)
(-6.60411 -2.79392e-07 0)
(-6.59575 -2.75558e-07 0)
(-6.58743 -2.71834e-07 0)
(-6.57912 -2.68078e-07 0)
(-6.57086 -2.64519e-07 0)
(-6.56259 -2.6101e-07 0)
(-6.55344 -2.56691e-07 0)
(-6.54349 -2.52137e-07 0)
(-6.53373 -2.48069e-07 0)
(-6.5241 -2.44135e-07 0)
(-6.51465 -2.4021e-07 0)
(-6.50533 -2.36418e-07 0)
(-6.49617 -2.32688e-07 0)
(-6.48714 -2.2904e-07 0)
(-6.47826 -2.25485e-07 0)
(-6.46951 -2.22016e-07 0)
(-6.46091 -2.18631e-07 0)
(-6.45243 -2.15372e-07 0)
(-6.44408 -2.122e-07 0)
(-6.43584 -2.09104e-07 0)
(-6.42774 -2.06103e-07 0)
(-6.41973 -2.03173e-07 0)
(-6.41186 -2.00303e-07 0)
(-6.40408 -1.97509e-07 0)
(-6.39642 -1.94787e-07 0)
(-6.38885 -1.92119e-07 0)
(-6.3814 -1.8952e-07 0)
(-6.37404 -1.87004e-07 0)
(-6.36679 -1.84539e-07 0)
(-6.35962 -1.82129e-07 0)
(-6.35255 -1.79793e-07 0)
(-6.34557 -1.77508e-07 0)
(-6.33868 -1.75252e-07 0)
(-6.33187 -1.73055e-07 0)
(-6.32515 -1.70914e-07 0)
(-6.31851 -1.68811e-07 0)
(-6.31196 -1.66756e-07 0)
(-6.30548 -1.64762e-07 0)
(-6.29908 -1.62818e-07 0)
(-6.29275 -1.60891e-07 0)
(-6.28651 -1.59011e-07 0)
(-6.28032 -1.57173e-07 0)
(-6.27423 -1.55369e-07 0)
(-6.26818 -1.53589e-07 0)
(-6.26222 -1.51859e-07 0)
(-6.25631 -1.50173e-07 0)
(-6.25049 -1.4852e-07 0)
(-6.24471 -1.46882e-07 0)
(-6.23901 -1.45296e-07 0)
(-6.23335 -1.43738e-07 0)
(-6.22777 -1.42221e-07 0)
(-6.22224 -1.4071e-07 0)
(-6.21678 -1.39256e-07 0)
(-6.21135 -1.37831e-07 0)
(-6.206 -1.36436e-07 0)
(-6.20069 -1.35033e-07 0)
(-6.19545 -1.33667e-07 0)
(-6.19024 -1.32322e-07 0)
(-6.18511 -1.31023e-07 0)
(-6.18 -1.29722e-07 0)
(-6.17497 -1.28472e-07 0)
(-6.16996 -1.27225e-07 0)
(-6.16503 -1.26042e-07 0)
(-6.16011 -1.24836e-07 0)
(-6.15527 -1.23696e-07 0)
(-6.15045 -1.22538e-07 0)
(-6.1457 -1.21459e-07 0)
(-6.14095 -1.20343e-07 0)
(-6.13629 -1.19308e-07 0)
(-6.13163 -1.18215e-07 0)
(-6.12705 -1.17215e-07 0)
(-6.12247 -1.16149e-07 0)
(-6.11797 -1.15177e-07 0)
(-6.11347 -1.14127e-07 0)
(-6.10905 -1.13202e-07 0)
(-6.10462 -1.12194e-07 0)
(-6.10029 -1.11317e-07 0)
(-6.09592 -1.10339e-07 0)
(-6.09166 -1.09483e-07 0)
(-6.08736 -1.0853e-07 0)
(-6.08318 -1.0771e-07 0)
(-6.07894 -1.06797e-07 0)
(-6.07483 -1.06004e-07 0)
(-6.07066 -1.05126e-07 0)
(-6.06662 -1.04366e-07 0)
(-6.0625 -1.03547e-07 0)
(-6.05852 -1.02829e-07 0)
(-6.05447 -1.02093e-07 0)
(-6.05055 -1.01391e-07 0)
(-6.04654 -1.00777e-07 0)
(-6.04267 -9.99926e-08 0)
(-6.03873 -9.97603e-08 0)
(-6.03487 -9.8435e-08 0)
(-6.03104 -9.96863e-08 0)
(-6.02707 -9.56936e-08 0)
(-6.02357 -1.02844e-07 0)
(-6.01902 -8.77938e-08 0)
(-6.01674 -1.14531e-07 0)
(-6.00999 -6.88984e-08 0)
(-6.0115 -9.4067e-08 0)
(-6.00239 -1.20954e-07 0)
)
;
    }
    symmetry
    {
        type            symmetryPlane;
    }
    frontAndBack
    {
        type            empty;
    }
}


// ************************************************************************* //
