/*--------------------------------*- C++ -*----------------------------------*\
| =========                 |                                                 |
| \\      /  F ield         | OpenFOAM: The Open Source CFD Toolbox           |
|  \\    /   O peration     | Version:  v2012                                 |
|   \\  /    A nd           | Website:  www.openfoam.com                      |
|    \\/     M anipulation  |                                                 |
\*---------------------------------------------------------------------------*/
FoamFile
{
    version     2.0;
    format      ascii;
    class       volVectorField;
    location    "56.5";
    object      wallShearStress;
}
// * * * * * * * * * * * * * * * * * * * * * * * * * * * * * * * * * * * * * //

dimensions      [0 2 -2 0 0 0 0];


internalField   uniform (0 0 0);

boundaryField
{
    inlet
    {
        type            calculated;
        value           uniform (0 0 0);
    }
    outlet
    {
        type            calculated;
        value           uniform (0 0 0);
    }
    topWall
    {
        type            calculated;
        value           nonuniform List<vector> 
545
(
(1.48729e-08 -1.04692e-08 0)
(1.48661e-08 -2.9289e-08 0)
(1.48523e-08 -4.88573e-08 0)
(1.48319e-08 -6.78516e-08 0)
(1.48057e-08 -8.60249e-08 0)
(1.47745e-08 -1.03608e-07 0)
(1.47386e-08 -1.2075e-07 0)
(1.46983e-08 -1.37441e-07 0)
(1.46541e-08 -1.53642e-07 0)
(1.46064e-08 -1.69354e-07 0)
(1.45555e-08 -1.84595e-07 0)
(1.45018e-08 -1.99384e-07 0)
(1.44456e-08 -2.1373e-07 0)
(1.43871e-08 -2.27643e-07 0)
(1.43267e-08 -2.41132e-07 0)
(1.42646e-08 -2.54209e-07 0)
(1.4201e-08 -2.66886e-07 0)
(1.41361e-08 -2.79172e-07 0)
(1.40702e-08 -2.9108e-07 0)
(1.40034e-08 -3.02618e-07 0)
(1.3936e-08 -3.13799e-07 0)
(1.3868e-08 -3.24632e-07 0)
(1.37997e-08 -3.35128e-07 0)
(1.37311e-08 -3.45297e-07 0)
(1.36625e-08 -3.55148e-07 0)
(1.35938e-08 -3.64691e-07 0)
(1.35253e-08 -3.73936e-07 0)
(1.3457e-08 -3.82892e-07 0)
(1.3389e-08 -3.91567e-07 0)
(1.33214e-08 -3.99971e-07 0)
(1.32543e-08 -4.08112e-07 0)
(1.31877e-08 -4.15999e-07 0)
(1.31217e-08 -4.23639e-07 0)
(1.30563e-08 -4.3104e-07 0)
(1.29917e-08 -4.38211e-07 0)
(1.29278e-08 -4.45158e-07 0)
(1.28647e-08 -4.51889e-07 0)
(1.28024e-08 -4.5841e-07 0)
(1.27409e-08 -4.64729e-07 0)
(1.26803e-08 -4.70851e-07 0)
(1.26207e-08 -4.76785e-07 0)
(1.25619e-08 -4.82534e-07 0)
(1.25041e-08 -4.88106e-07 0)
(1.24472e-08 -4.93507e-07 0)
(1.23913e-08 -4.98741e-07 0)
(1.23363e-08 -5.03814e-07 0)
(1.22823e-08 -5.08732e-07 0)
(1.22293e-08 -5.135e-07 0)
(1.21772e-08 -5.18121e-07 0)
(1.21262e-08 -5.22602e-07 0)
(1.20761e-08 -5.26947e-07 0)
(1.2027e-08 -5.3116e-07 0)
(1.19788e-08 -5.35245e-07 0)
(1.19316e-08 -5.39206e-07 0)
(1.18854e-08 -5.43048e-07 0)
(1.18401e-08 -5.46775e-07 0)
(1.17957e-08 -5.50389e-07 0)
(1.17523e-08 -5.53895e-07 0)
(1.17098e-08 -5.57296e-07 0)
(1.16682e-08 -5.60596e-07 0)
(1.16275e-08 -5.63797e-07 0)
(1.15877e-08 -5.66903e-07 0)
(1.15488e-08 -5.69917e-07 0)
(1.15107e-08 -5.72842e-07 0)
(1.14735e-08 -5.7568e-07 0)
(1.14371e-08 -5.78434e-07 0)
(1.14015e-08 -5.81108e-07 0)
(1.13668e-08 -5.83703e-07 0)
(1.13328e-08 -5.86222e-07 0)
(1.12996e-08 -5.88667e-07 0)
(1.12672e-08 -5.91042e-07 0)
(1.12357e-08 -5.93343e-07 0)
(1.12052e-08 -5.95556e-07 0)
(1.11751e-08 -5.97699e-07 0)
(1.11454e-08 -5.99817e-07 0)
(1.11157e-08 -6.01923e-07 0)
(1.10862e-08 -6.04016e-07 0)
(1.10567e-08 -6.06095e-07 0)
(1.10272e-08 -6.08158e-07 0)
(1.09979e-08 -6.10205e-07 0)
(1.09685e-08 -6.12238e-07 0)
(1.09393e-08 -6.14256e-07 0)
(1.09101e-08 -6.1626e-07 0)
(1.08809e-08 -6.18249e-07 0)
(1.08518e-08 -6.20224e-07 0)
(1.08228e-08 -6.22185e-07 0)
(1.07939e-08 -6.24131e-07 0)
(1.0765e-08 -6.26063e-07 0)
(1.07362e-08 -6.27982e-07 0)
(1.07074e-08 -6.29886e-07 0)
(1.06787e-08 -6.31777e-07 0)
(1.06501e-08 -6.33654e-07 0)
(1.06215e-08 -6.35517e-07 0)
(1.05931e-08 -6.37366e-07 0)
(1.05644e-08 -6.39206e-07 0)
(1.05372e-08 -6.41013e-07 0)
(1.05121e-08 -6.42666e-07 0)
(1.04878e-08 -6.44162e-07 0)
(1.04644e-08 -6.45617e-07 0)
(1.04411e-08 -6.47077e-07 0)
(1.04178e-08 -6.4855e-07 0)
(1.03943e-08 -6.50024e-07 0)
(1.03708e-08 -6.51497e-07 0)
(1.03472e-08 -6.52967e-07 0)
(1.03235e-08 -6.54438e-07 0)
(1.02997e-08 -6.5591e-07 0)
(1.02758e-08 -6.57382e-07 0)
(1.02518e-08 -6.58854e-07 0)
(1.02277e-08 -6.60326e-07 0)
(1.02036e-08 -6.61797e-07 0)
(1.01793e-08 -6.63269e-07 0)
(1.01549e-08 -6.64741e-07 0)
(1.01305e-08 -6.66212e-07 0)
(1.01059e-08 -6.67684e-07 0)
(1.00813e-08 -6.69155e-07 0)
(1.00566e-08 -6.70627e-07 0)
(1.00317e-08 -6.72098e-07 0)
(1.00068e-08 -6.73569e-07 0)
(9.98179e-09 -6.7504e-07 0)
(9.95668e-09 -6.7651e-07 0)
(9.93148e-09 -6.7798e-07 0)
(9.90618e-09 -6.7945e-07 0)
(9.88078e-09 -6.8092e-07 0)
(9.85529e-09 -6.82389e-07 0)
(9.82971e-09 -6.83858e-07 0)
(9.80403e-09 -6.85327e-07 0)
(9.77826e-09 -6.86795e-07 0)
(9.75239e-09 -6.88263e-07 0)
(9.72643e-09 -6.89731e-07 0)
(9.70037e-09 -6.91198e-07 0)
(9.67422e-09 -6.92664e-07 0)
(9.64797e-09 -6.9413e-07 0)
(9.62163e-09 -6.95595e-07 0)
(9.59519e-09 -6.9706e-07 0)
(9.56866e-09 -6.98524e-07 0)
(9.54203e-09 -6.99988e-07 0)
(9.51531e-09 -7.01451e-07 0)
(9.48849e-09 -7.02913e-07 0)
(9.46158e-09 -7.04375e-07 0)
(9.43457e-09 -7.05836e-07 0)
(9.40747e-09 -7.07296e-07 0)
(9.38028e-09 -7.08755e-07 0)
(9.35298e-09 -7.10214e-07 0)
(9.3256e-09 -7.11671e-07 0)
(9.29812e-09 -7.13128e-07 0)
(9.27054e-09 -7.14584e-07 0)
(9.24287e-09 -7.16039e-07 0)
(9.21511e-09 -7.17493e-07 0)
(9.18725e-09 -7.18947e-07 0)
(9.15929e-09 -7.20399e-07 0)
(9.13125e-09 -7.2185e-07 0)
(9.1031e-09 -7.233e-07 0)
(9.07487e-09 -7.24749e-07 0)
(9.04653e-09 -7.26197e-07 0)
(9.01811e-09 -7.27644e-07 0)
(8.98959e-09 -7.2909e-07 0)
(8.96097e-09 -7.30534e-07 0)
(8.93227e-09 -7.31977e-07 0)
(8.90346e-09 -7.33419e-07 0)
(8.87457e-09 -7.3486e-07 0)
(8.84558e-09 -7.36299e-07 0)
(8.8165e-09 -7.37738e-07 0)
(8.78732e-09 -7.39174e-07 0)
(8.75805e-09 -7.4061e-07 0)
(8.72869e-09 -7.42044e-07 0)
(8.69923e-09 -7.43476e-07 0)
(8.66969e-09 -7.44907e-07 0)
(8.64005e-09 -7.46336e-07 0)
(8.61031e-09 -7.47764e-07 0)
(8.58049e-09 -7.49191e-07 0)
(8.55057e-09 -7.50615e-07 0)
(8.52056e-09 -7.52039e-07 0)
(8.49046e-09 -7.5346e-07 0)
(8.46026e-09 -7.5488e-07 0)
(8.42998e-09 -7.56298e-07 0)
(8.3996e-09 -7.57714e-07 0)
(8.36914e-09 -7.59128e-07 0)
(8.33858e-09 -7.60541e-07 0)
(8.30793e-09 -7.61952e-07 0)
(8.27719e-09 -7.63361e-07 0)
(8.24636e-09 -7.64768e-07 0)
(8.21544e-09 -7.66173e-07 0)
(8.18443e-09 -7.67576e-07 0)
(8.15333e-09 -7.68977e-07 0)
(8.12214e-09 -7.70376e-07 0)
(8.09087e-09 -7.71772e-07 0)
(8.0595e-09 -7.73167e-07 0)
(8.02805e-09 -7.7456e-07 0)
(7.99651e-09 -7.7595e-07 0)
(7.96488e-09 -7.77338e-07 0)
(7.93316e-09 -7.78724e-07 0)
(7.90135e-09 -7.80108e-07 0)
(7.86946e-09 -7.81489e-07 0)
(7.83748e-09 -7.82868e-07 0)
(7.80542e-09 -7.84245e-07 0)
(7.77327e-09 -7.85619e-07 0)
(7.74103e-09 -7.86991e-07 0)
(7.70871e-09 -7.8836e-07 0)
(7.6763e-09 -7.89727e-07 0)
(7.64381e-09 -7.91091e-07 0)
(7.61123e-09 -7.92453e-07 0)
(7.57857e-09 -7.93811e-07 0)
(7.54583e-09 -7.95168e-07 0)
(7.513e-09 -7.96521e-07 0)
(7.48009e-09 -7.97872e-07 0)
(7.4471e-09 -7.9922e-07 0)
(7.41403e-09 -8.00566e-07 0)
(7.38087e-09 -8.01908e-07 0)
(7.34763e-09 -8.03248e-07 0)
(7.31431e-09 -8.04584e-07 0)
(7.28092e-09 -8.05918e-07 0)
(7.24744e-09 -8.07249e-07 0)
(7.21388e-09 -8.08576e-07 0)
(7.18025e-09 -8.09901e-07 0)
(7.14653e-09 -8.11223e-07 0)
(7.11274e-09 -8.12541e-07 0)
(7.07887e-09 -8.13856e-07 0)
(7.04492e-09 -8.15168e-07 0)
(7.0109e-09 -8.16477e-07 0)
(6.9768e-09 -8.17783e-07 0)
(6.94262e-09 -8.19085e-07 0)
(6.90837e-09 -8.20384e-07 0)
(6.87405e-09 -8.21679e-07 0)
(6.83965e-09 -8.22972e-07 0)
(6.80518e-09 -8.2426e-07 0)
(6.77063e-09 -8.25545e-07 0)
(6.73601e-09 -8.26827e-07 0)
(6.70132e-09 -8.28105e-07 0)
(6.66656e-09 -8.29379e-07 0)
(6.63173e-09 -8.3065e-07 0)
(6.59683e-09 -8.31917e-07 0)
(6.56186e-09 -8.33181e-07 0)
(6.52682e-09 -8.3444e-07 0)
(6.49171e-09 -8.35696e-07 0)
(6.45654e-09 -8.36948e-07 0)
(6.42129e-09 -8.38196e-07 0)
(6.38599e-09 -8.3944e-07 0)
(6.35061e-09 -8.4068e-07 0)
(6.31517e-09 -8.41917e-07 0)
(6.27967e-09 -8.43149e-07 0)
(6.2441e-09 -8.44377e-07 0)
(6.20847e-09 -8.45601e-07 0)
(6.17278e-09 -8.46821e-07 0)
(6.13703e-09 -8.48037e-07 0)
(6.10121e-09 -8.49248e-07 0)
(6.06534e-09 -8.50455e-07 0)
(6.0294e-09 -8.51658e-07 0)
(5.99341e-09 -8.52857e-07 0)
(5.95736e-09 -8.54051e-07 0)
(5.92125e-09 -8.55241e-07 0)
(5.88508e-09 -8.56426e-07 0)
(5.84886e-09 -8.57607e-07 0)
(5.81259e-09 -8.58783e-07 0)
(5.77626e-09 -8.59955e-07 0)
(5.73987e-09 -8.61122e-07 0)
(5.70344e-09 -8.62285e-07 0)
(5.66695e-09 -8.63443e-07 0)
(5.63041e-09 -8.64596e-07 0)
(5.59382e-09 -8.65744e-07 0)
(5.55719e-09 -8.66887e-07 0)
(5.5205e-09 -8.68026e-07 0)
(5.48377e-09 -8.6916e-07 0)
(5.44699e-09 -8.70289e-07 0)
(5.41016e-09 -8.71413e-07 0)
(5.37329e-09 -8.72531e-07 0)
(5.33636e-09 -8.73645e-07 0)
(5.29945e-09 -8.74754e-07 0)
(5.26224e-09 -8.75858e-07 0)
(5.2261e-09 -8.76951e-07 0)
(5.19149e-09 -8.77987e-07 0)
(5.15739e-09 -8.78968e-07 0)
(5.12371e-09 -8.79938e-07 0)
(5.08989e-09 -8.80914e-07 0)
(5.05578e-09 -8.81899e-07 0)
(5.02135e-09 -8.82888e-07 0)
(4.9866e-09 -8.8388e-07 0)
(4.95152e-09 -8.84875e-07 0)
(4.9161e-09 -8.85874e-07 0)
(4.88036e-09 -8.86877e-07 0)
(4.84427e-09 -8.87884e-07 0)
(4.80785e-09 -8.88893e-07 0)
(4.77108e-09 -8.89906e-07 0)
(4.73398e-09 -8.90922e-07 0)
(4.69653e-09 -8.91941e-07 0)
(4.65874e-09 -8.92963e-07 0)
(4.6206e-09 -8.93988e-07 0)
(4.58212e-09 -8.95015e-07 0)
(4.54328e-09 -8.96044e-07 0)
(4.50409e-09 -8.97076e-07 0)
(4.46456e-09 -8.9811e-07 0)
(4.42467e-09 -8.99146e-07 0)
(4.38442e-09 -9.00184e-07 0)
(4.34382e-09 -9.01223e-07 0)
(4.30287e-09 -9.02264e-07 0)
(4.26155e-09 -9.03306e-07 0)
(4.21988e-09 -9.04349e-07 0)
(4.17785e-09 -9.05393e-07 0)
(4.13546e-09 -9.06438e-07 0)
(4.09271e-09 -9.07484e-07 0)
(4.04959e-09 -9.08529e-07 0)
(4.00612e-09 -9.09575e-07 0)
(3.96228e-09 -9.10621e-07 0)
(3.91808e-09 -9.11667e-07 0)
(3.87352e-09 -9.12711e-07 0)
(3.8286e-09 -9.13755e-07 0)
(3.78331e-09 -9.14799e-07 0)
(3.73767e-09 -9.1584e-07 0)
(3.69166e-09 -9.16881e-07 0)
(3.64529e-09 -9.17919e-07 0)
(3.59855e-09 -9.18956e-07 0)
(3.55146e-09 -9.1999e-07 0)
(3.50401e-09 -9.21021e-07 0)
(3.4562e-09 -9.2205e-07 0)
(3.40803e-09 -9.23075e-07 0)
(3.35951e-09 -9.24097e-07 0)
(3.31063e-09 -9.25115e-07 0)
(3.2614e-09 -9.2613e-07 0)
(3.21182e-09 -9.27139e-07 0)
(3.16189e-09 -9.28144e-07 0)
(3.11161e-09 -9.29144e-07 0)
(3.06099e-09 -9.30139e-07 0)
(3.01002e-09 -9.31127e-07 0)
(2.95871e-09 -9.3211e-07 0)
(2.90707e-09 -9.33086e-07 0)
(2.85509e-09 -9.34056e-07 0)
(2.80279e-09 -9.35018e-07 0)
(2.75015e-09 -9.35972e-07 0)
(2.69719e-09 -9.36919e-07 0)
(2.64391e-09 -9.37857e-07 0)
(2.59031e-09 -9.38786e-07 0)
(2.53641e-09 -9.39706e-07 0)
(2.48219e-09 -9.40616e-07 0)
(2.42767e-09 -9.41517e-07 0)
(2.37286e-09 -9.42407e-07 0)
(2.31775e-09 -9.43285e-07 0)
(2.26236e-09 -9.44153e-07 0)
(2.20669e-09 -9.45008e-07 0)
(2.15074e-09 -9.45852e-07 0)
(2.09453e-09 -9.46682e-07 0)
(2.03805e-09 -9.47499e-07 0)
(1.98132e-09 -9.48303e-07 0)
(1.92434e-09 -9.49092e-07 0)
(1.86712e-09 -9.49866e-07 0)
(1.80966e-09 -9.50625e-07 0)
(1.75199e-09 -9.51368e-07 0)
(1.6941e-09 -9.52095e-07 0)
(1.636e-09 -9.52805e-07 0)
(1.5777e-09 -9.53497e-07 0)
(1.51921e-09 -9.54172e-07 0)
(1.46054e-09 -9.54828e-07 0)
(1.4017e-09 -9.55465e-07 0)
(1.34271e-09 -9.56082e-07 0)
(1.28356e-09 -9.56679e-07 0)
(1.22428e-09 -9.57256e-07 0)
(1.16487e-09 -9.5781e-07 0)
(1.10534e-09 -9.58343e-07 0)
(1.04572e-09 -9.58854e-07 0)
(9.85996e-10 -9.59341e-07 0)
(9.26197e-10 -9.59804e-07 0)
(8.66333e-10 -9.60243e-07 0)
(8.06416e-10 -9.60657e-07 0)
(7.46461e-10 -9.61046e-07 0)
(6.8648e-10 -9.61408e-07 0)
(6.26489e-10 -9.61743e-07 0)
(5.66502e-10 -9.62051e-07 0)
(5.06533e-10 -9.62331e-07 0)
(4.46599e-10 -9.62582e-07 0)
(3.86714e-10 -9.62803e-07 0)
(3.26895e-10 -9.62995e-07 0)
(2.67157e-10 -9.63156e-07 0)
(2.07518e-10 -9.63285e-07 0)
(1.47994e-10 -9.63383e-07 0)
(8.86032e-11 -9.63448e-07 0)
(2.93619e-11 -9.6348e-07 0)
(-2.97115e-11 -9.63478e-07 0)
(-8.85991e-11 -9.63441e-07 0)
(-1.47282e-10 -9.6337e-07 0)
(-2.05743e-10 -9.63262e-07 0)
(-2.63961e-10 -9.63118e-07 0)
(-3.21919e-10 -9.62938e-07 0)
(-3.79596e-10 -9.62719e-07 0)
(-4.36973e-10 -9.62463e-07 0)
(-4.9403e-10 -9.62167e-07 0)
(-5.50746e-10 -9.61832e-07 0)
(-6.07103e-10 -9.61457e-07 0)
(-6.63078e-10 -9.61041e-07 0)
(-7.18652e-10 -9.60584e-07 0)
(-7.73803e-10 -9.60086e-07 0)
(-8.28511e-10 -9.59545e-07 0)
(-8.82755e-10 -9.58961e-07 0)
(-9.36513e-10 -9.58333e-07 0)
(-9.89764e-10 -9.57662e-07 0)
(-1.04249e-09 -9.56946e-07 0)
(-1.09466e-09 -9.56185e-07 0)
(-1.14626e-09 -9.55379e-07 0)
(-1.19727e-09 -9.54526e-07 0)
(-1.24767e-09 -9.53627e-07 0)
(-1.29743e-09 -9.52682e-07 0)
(-1.34653e-09 -9.51689e-07 0)
(-1.39496e-09 -9.50648e-07 0)
(-1.44269e-09 -9.49559e-07 0)
(-1.4897e-09 -9.48422e-07 0)
(-1.53596e-09 -9.47235e-07 0)
(-1.58147e-09 -9.46e-07 0)
(-1.6262e-09 -9.44715e-07 0)
(-1.67012e-09 -9.43381e-07 0)
(-1.71322e-09 -9.41996e-07 0)
(-1.75548e-09 -9.40561e-07 0)
(-1.79687e-09 -9.39076e-07 0)
(-1.83739e-09 -9.3754e-07 0)
(-1.87701e-09 -9.35953e-07 0)
(-1.91571e-09 -9.34315e-07 0)
(-1.95348e-09 -9.32626e-07 0)
(-1.99029e-09 -9.30885e-07 0)
(-2.02614e-09 -9.29094e-07 0)
(-2.061e-09 -9.27251e-07 0)
(-2.09486e-09 -9.25357e-07 0)
(-2.1277e-09 -9.23412e-07 0)
(-2.15951e-09 -9.21415e-07 0)
(-2.19028e-09 -9.19368e-07 0)
(-2.21998e-09 -9.17269e-07 0)
(-2.24862e-09 -9.1512e-07 0)
(-2.27617e-09 -9.1292e-07 0)
(-2.30262e-09 -9.10669e-07 0)
(-2.32796e-09 -9.08369e-07 0)
(-2.35219e-09 -9.06018e-07 0)
(-2.3753e-09 -9.03619e-07 0)
(-2.39727e-09 -9.0117e-07 0)
(-2.41809e-09 -8.98672e-07 0)
(-2.43777e-09 -8.96126e-07 0)
(-2.45629e-09 -8.93532e-07 0)
(-2.47365e-09 -8.90891e-07 0)
(-2.48985e-09 -8.88203e-07 0)
(-2.50487e-09 -8.85468e-07 0)
(-2.51873e-09 -8.82688e-07 0)
(-2.53141e-09 -8.79863e-07 0)
(-2.54291e-09 -8.76994e-07 0)
(-2.55324e-09 -8.74081e-07 0)
(-2.5624e-09 -8.71125e-07 0)
(-2.57039e-09 -8.68127e-07 0)
(-2.5772e-09 -8.65088e-07 0)
(-2.58285e-09 -8.62009e-07 0)
(-2.58733e-09 -8.5889e-07 0)
(-2.59066e-09 -8.55732e-07 0)
(-2.59284e-09 -8.52537e-07 0)
(-2.59387e-09 -8.49304e-07 0)
(-2.59376e-09 -8.46037e-07 0)
(-2.59252e-09 -8.42732e-07 0)
(-2.5902e-09 -8.39401e-07 0)
(-2.58656e-09 -8.35996e-07 0)
(-2.5813e-09 -8.32237e-07 0)
(-2.57442e-09 -8.28121e-07 0)
(-2.56588e-09 -8.23931e-07 0)
(-2.55589e-09 -8.19765e-07 0)
(-2.54458e-09 -8.15641e-07 0)
(-2.53205e-09 -8.1154e-07 0)
(-2.51836e-09 -8.07456e-07 0)
(-2.50357e-09 -8.03392e-07 0)
(-2.48774e-09 -7.99353e-07 0)
(-2.47095e-09 -7.95341e-07 0)
(-2.45323e-09 -7.91358e-07 0)
(-2.43466e-09 -7.87403e-07 0)
(-2.41528e-09 -7.8348e-07 0)
(-2.39514e-09 -7.79588e-07 0)
(-2.37429e-09 -7.7573e-07 0)
(-2.35278e-09 -7.71906e-07 0)
(-2.33064e-09 -7.68117e-07 0)
(-2.30792e-09 -7.64365e-07 0)
(-2.28465e-09 -7.6065e-07 0)
(-2.26088e-09 -7.56973e-07 0)
(-2.23663e-09 -7.53335e-07 0)
(-2.21193e-09 -7.49737e-07 0)
(-2.18682e-09 -7.46179e-07 0)
(-2.16133e-09 -7.42661e-07 0)
(-2.13548e-09 -7.39186e-07 0)
(-2.1093e-09 -7.35752e-07 0)
(-2.08281e-09 -7.32361e-07 0)
(-2.05603e-09 -7.29014e-07 0)
(-2.02898e-09 -7.2571e-07 0)
(-2.00168e-09 -7.22449e-07 0)
(-1.97416e-09 -7.19233e-07 0)
(-1.94641e-09 -7.16062e-07 0)
(-1.91847e-09 -7.12936e-07 0)
(-1.89034e-09 -7.09856e-07 0)
(-1.86204e-09 -7.06821e-07 0)
(-1.83358e-09 -7.03831e-07 0)
(-1.80497e-09 -7.00888e-07 0)
(-1.77621e-09 -6.97992e-07 0)
(-1.74733e-09 -6.95142e-07 0)
(-1.71832e-09 -6.92339e-07 0)
(-1.6892e-09 -6.89583e-07 0)
(-1.65997e-09 -6.86874e-07 0)
(-1.63063e-09 -6.84213e-07 0)
(-1.6012e-09 -6.81599e-07 0)
(-1.57167e-09 -6.79032e-07 0)
(-1.54206e-09 -6.76514e-07 0)
(-1.51236e-09 -6.74044e-07 0)
(-1.48257e-09 -6.71621e-07 0)
(-1.45271e-09 -6.69247e-07 0)
(-1.42277e-09 -6.66921e-07 0)
(-1.39276e-09 -6.64644e-07 0)
(-1.36267e-09 -6.62416e-07 0)
(-1.33251e-09 -6.60236e-07 0)
(-1.30228e-09 -6.58105e-07 0)
(-1.27199e-09 -6.56023e-07 0)
(-1.24162e-09 -6.5399e-07 0)
(-1.21118e-09 -6.52006e-07 0)
(-1.18068e-09 -6.50071e-07 0)
(-1.15011e-09 -6.48186e-07 0)
(-1.11947e-09 -6.4635e-07 0)
(-1.08877e-09 -6.44564e-07 0)
(-1.058e-09 -6.42828e-07 0)
(-1.02716e-09 -6.41142e-07 0)
(-9.96255e-10 -6.39505e-07 0)
(-9.65285e-10 -6.37918e-07 0)
(-9.34249e-10 -6.36382e-07 0)
(-9.03148e-10 -6.34896e-07 0)
(-8.71982e-10 -6.3346e-07 0)
(-8.40751e-10 -6.32075e-07 0)
(-8.09456e-10 -6.3074e-07 0)
(-7.78098e-10 -6.29456e-07 0)
(-7.46677e-10 -6.28223e-07 0)
(-7.15195e-10 -6.2704e-07 0)
(-6.83652e-10 -6.25909e-07 0)
(-6.52051e-10 -6.24829e-07 0)
(-6.20391e-10 -6.238e-07 0)
(-5.88676e-10 -6.22822e-07 0)
(-5.56906e-10 -6.21895e-07 0)
(-5.25083e-10 -6.2102e-07 0)
(-4.9321e-10 -6.20196e-07 0)
(-4.61288e-10 -6.19424e-07 0)
(-4.29321e-10 -6.18704e-07 0)
(-3.9731e-10 -6.18035e-07 0)
(-3.65258e-10 -6.17419e-07 0)
(-3.33167e-10 -6.16853e-07 0)
(-3.01042e-10 -6.16344e-07 0)
(-2.68882e-10 -6.1587e-07 0)
(-2.367e-10 -6.15503e-07 0)
(-2.04472e-10 -6.15004e-07 0)
(-1.72284e-10 -6.15165e-07 0)
(-1.39872e-10 -6.13315e-07 0)
(-1.08132e-10 -6.18104e-07 0)
(-7.42061e-11 -5.99461e-07 0)
(-4.7906e-11 -6.48589e-07 0)
(-2.00749e-11 -5.66445e-07 0)
)
;
    }
    bottomWall
    {
        type            calculated;
        value           nonuniform List<vector> 
449
(
(-48.5207 -0.963941 0)
(-19.7471 -0.00515406 0)
(-14.3405 -0.00113461 0)
(-12.0313 -0.000545412 0)
(-10.6254 -0.000351457 0)
(-9.63166 -0.000255966 0)
(-8.87367 -0.000198464 0)
(-8.27023 -0.000159799 0)
(-7.77486 -0.000132311 0)
(-7.35827 -0.000111967 0)
(-7.0013 -9.63679e-05 0)
(-6.69091 -8.40624e-05 0)
(-6.41778 -7.41456e-05 0)
(-6.17501 -6.60189e-05 0)
(-5.95734 -5.92627e-05 0)
(-5.76071 -5.35739e-05 0)
(-5.58193 -4.87301e-05 0)
(-5.41844 -4.45657e-05 0)
(-5.26817 -4.09546e-05 0)
(-5.12942 -3.77993e-05 0)
(-5.00078 -3.50234e-05 0)
(-4.88108 -3.25659e-05 0)
(-4.76933 -3.03781e-05 0)
(-4.66467 -2.84204e-05 0)
(-4.56638 -2.66603e-05 0)
(-4.47384 -2.50712e-05 0)
(-4.3865 -2.36306e-05 0)
(-4.3039 -2.232e-05 0)
(-4.22561 -2.11235e-05 0)
(-4.15127 -2.00277e-05 0)
(-4.08055 -1.90212e-05 0)
(-4.01318 -1.80942e-05 0)
(-3.94889 -1.72381e-05 0)
(-3.88744 -1.64457e-05 0)
(-3.82865 -1.57105e-05 0)
(-3.77231 -1.50269e-05 0)
(-3.71826 -1.43901e-05 0)
(-3.66635 -1.37956e-05 0)
(-3.61644 -1.32397e-05 0)
(-3.5684 -1.2719e-05 0)
(-3.52212 -1.22304e-05 0)
(-3.4775 -1.17712e-05 0)
(-3.43442 -1.13391e-05 0)
(-3.39282 -1.09318e-05 0)
(-3.35259 -1.05475e-05 0)
(-3.31367 -1.01844e-05 0)
(-3.27599 -9.84079e-06 0)
(-3.23948 -9.51536e-06 0)
(-3.20409 -9.20677e-06 0)
(-3.16975 -8.91383e-06 0)
(-3.13641 -8.63546e-06 0)
(-3.10403 -8.37067e-06 0)
(-3.07256 -8.11857e-06 0)
(-3.04195 -7.87831e-06 0)
(-3.01218 -7.64914e-06 0)
(-2.98319 -7.43037e-06 0)
(-2.95496 -7.22135e-06 0)
(-2.92745 -7.02149e-06 0)
(-2.90063 -6.83024e-06 0)
(-2.87448 -6.64709e-06 0)
(-2.84896 -6.47158e-06 0)
(-2.82405 -6.30326e-06 0)
(-2.79973 -6.14175e-06 0)
(-2.77597 -5.98666e-06 0)
(-2.75275 -5.83764e-06 0)
(-2.73006 -5.69437e-06 0)
(-2.70786 -5.55655e-06 0)
(-2.68614 -5.4239e-06 0)
(-2.66489 -5.29614e-06 0)
(-2.64409 -5.17304e-06 0)
(-2.62372 -5.05435e-06 0)
(-2.60377 -4.93988e-06 0)
(-2.58422 -4.8294e-06 0)
(-2.56506 -4.72273e-06 0)
(-2.54627 -4.6197e-06 0)
(-2.52785 -4.52012e-06 0)
(-2.50979 -4.42385e-06 0)
(-2.49206 -4.33073e-06 0)
(-2.47466 -4.24063e-06 0)
(-2.45758 -4.1534e-06 0)
(-2.44082 -4.06893e-06 0)
(-2.42435 -3.98709e-06 0)
(-2.40817 -3.90778e-06 0)
(-2.39228 -3.83088e-06 0)
(-2.37666 -3.7563e-06 0)
(-2.36131 -3.68394e-06 0)
(-2.34621 -3.61371e-06 0)
(-2.33137 -3.54553e-06 0)
(-2.31677 -3.47931e-06 0)
(-2.30241 -3.41497e-06 0)
(-2.28828 -3.35245e-06 0)
(-2.27437 -3.29167e-06 0)
(-2.26069 -3.23257e-06 0)
(-2.24721 -3.17509e-06 0)
(-2.23394 -3.11915e-06 0)
(-2.22088 -3.06472e-06 0)
(-2.20801 -3.01172e-06 0)
(-2.19533 -2.96012e-06 0)
(-2.18284 -2.90986e-06 0)
(-2.17054 -2.86088e-06 0)
(-2.15841 -2.81316e-06 0)
(-2.14645 -2.76664e-06 0)
(-2.13466 -2.72128e-06 0)
(-2.12304 -2.67705e-06 0)
(-2.11158 -2.6339e-06 0)
(-2.10027 -2.5918e-06 0)
(-2.08912 -2.55071e-06 0)
(-2.07812 -2.51061e-06 0)
(-2.06727 -2.47145e-06 0)
(-2.05656 -2.43321e-06 0)
(-2.04599 -2.39586e-06 0)
(-2.03555 -2.35937e-06 0)
(-2.02525 -2.32372e-06 0)
(-2.01508 -2.28887e-06 0)
(-2.00504 -2.25481e-06 0)
(-1.99513 -2.22151e-06 0)
(-1.98534 -2.18894e-06 0)
(-1.97567 -2.15708e-06 0)
(-1.96611 -2.12592e-06 0)
(-1.95668 -2.09543e-06 0)
(-1.94735 -2.06559e-06 0)
(-1.93814 -2.03639e-06 0)
(-1.92903 -2.0078e-06 0)
(-1.92003 -1.97981e-06 0)
(-1.91113 -1.9524e-06 0)
(-1.90234 -1.92555e-06 0)
(-1.89364 -1.89925e-06 0)
(-1.88505 -1.87348e-06 0)
(-1.87655 -1.84824e-06 0)
(-1.86814 -1.82349e-06 0)
(-1.85983 -1.79924e-06 0)
(-1.85161 -1.77547e-06 0)
(-1.84348 -1.75216e-06 0)
(-1.83543 -1.7293e-06 0)
(-1.82747 -1.70688e-06 0)
(-1.8196 -1.68489e-06 0)
(-1.8118 -1.66332e-06 0)
(-1.80409 -1.64216e-06 0)
(-1.79646 -1.62139e-06 0)
(-1.78891 -1.60101e-06 0)
(-1.78143 -1.58101e-06 0)
(-1.77403 -1.56137e-06 0)
(-1.76671 -1.54209e-06 0)
(-1.75945 -1.52317e-06 0)
(-1.75227 -1.50458e-06 0)
(-1.74516 -1.48632e-06 0)
(-1.73812 -1.46839e-06 0)
(-1.73115 -1.45077e-06 0)
(-1.72424 -1.43347e-06 0)
(-1.71741 -1.41646e-06 0)
(-1.71063 -1.39975e-06 0)
(-1.70392 -1.38333e-06 0)
(-1.69727 -1.36719e-06 0)
(-1.69069 -1.35133e-06 0)
(-1.68416 -1.33573e-06 0)
(-1.6777 -1.32039e-06 0)
(-1.67129 -1.30531e-06 0)
(-1.66494 -1.29048e-06 0)
(-1.65865 -1.27589e-06 0)
(-1.65242 -1.26155e-06 0)
(-1.64624 -1.24744e-06 0)
(-1.64012 -1.23355e-06 0)
(-1.63404 -1.2199e-06 0)
(-1.62803 -1.20646e-06 0)
(-1.62206 -1.19323e-06 0)
(-1.61615 -1.18022e-06 0)
(-1.61028 -1.16741e-06 0)
(-1.60447 -1.15481e-06 0)
(-1.5987 -1.14242e-06 0)
(-1.59298 -1.13009e-06 0)
(-1.58732 -1.11841e-06 0)
(-1.58169 -1.10631e-06 0)
(-1.57612 -1.09317e-06 0)
(-1.57091 -1.08299e-06 0)
(-1.566 -1.07477e-06 0)
(-1.56109 -1.06441e-06 0)
(-1.55618 -1.05373e-06 0)
(-1.55125 -1.04372e-06 0)
(-1.54633 -1.03368e-06 0)
(-1.5414 -1.02377e-06 0)
(-1.53646 -1.01392e-06 0)
(-1.53151 -1.00413e-06 0)
(-1.52657 -9.944e-07 0)
(-1.52161 -9.8473e-07 0)
(-1.51665 -9.75116e-07 0)
(-1.51169 -9.65558e-07 0)
(-1.50672 -9.56055e-07 0)
(-1.50175 -9.46608e-07 0)
(-1.49677 -9.37215e-07 0)
(-1.49179 -9.27878e-07 0)
(-1.4868 -9.18596e-07 0)
(-1.48181 -9.0937e-07 0)
(-1.47682 -9.002e-07 0)
(-1.47182 -8.91085e-07 0)
(-1.46682 -8.82027e-07 0)
(-1.46182 -8.73025e-07 0)
(-1.45682 -8.6408e-07 0)
(-1.45181 -8.55192e-07 0)
(-1.4468 -8.46361e-07 0)
(-1.44179 -8.37587e-07 0)
(-1.43678 -8.28871e-07 0)
(-1.43176 -8.20213e-07 0)
(-1.42675 -8.11613e-07 0)
(-1.42173 -8.03071e-07 0)
(-1.41671 -7.94587e-07 0)
(-1.41169 -7.86162e-07 0)
(-1.40667 -7.77795e-07 0)
(-1.40165 -7.69487e-07 0)
(-1.39663 -7.61238e-07 0)
(-1.39161 -7.53048e-07 0)
(-1.38659 -7.44917e-07 0)
(-1.38157 -7.36846e-07 0)
(-1.37655 -7.28833e-07 0)
(-1.37153 -7.2088e-07 0)
(-1.36651 -7.12987e-07 0)
(-1.36149 -7.05153e-07 0)
(-1.35648 -6.97378e-07 0)
(-1.35146 -6.89663e-07 0)
(-1.34645 -6.82008e-07 0)
(-1.34144 -6.74412e-07 0)
(-1.33643 -6.66876e-07 0)
(-1.33142 -6.59399e-07 0)
(-1.32642 -6.51982e-07 0)
(-1.32142 -6.44625e-07 0)
(-1.31642 -6.37327e-07 0)
(-1.31142 -6.30089e-07 0)
(-1.30643 -6.2291e-07 0)
(-1.30144 -6.15791e-07 0)
(-1.29645 -6.08731e-07 0)
(-1.29147 -6.0173e-07 0)
(-1.28649 -5.94789e-07 0)
(-1.28152 -5.87907e-07 0)
(-1.27655 -5.81083e-07 0)
(-1.27158 -5.74319e-07 0)
(-1.26662 -5.67613e-07 0)
(-1.26167 -5.60966e-07 0)
(-1.25671 -5.54377e-07 0)
(-1.25177 -5.47847e-07 0)
(-1.24683 -5.41375e-07 0)
(-1.24189 -5.34962e-07 0)
(-1.23696 -5.28606e-07 0)
(-1.23204 -5.22308e-07 0)
(-1.22712 -5.16067e-07 0)
(-1.2222 -5.09884e-07 0)
(-1.2173 -5.03758e-07 0)
(-1.2124 -4.97689e-07 0)
(-1.2075 -4.91677e-07 0)
(-1.20262 -4.85722e-07 0)
(-1.19774 -4.79823e-07 0)
(-1.19286 -4.7398e-07 0)
(-1.188 -4.68194e-07 0)
(-1.18314 -4.62463e-07 0)
(-1.17829 -4.56787e-07 0)
(-1.17344 -4.51167e-07 0)
(-1.16861 -4.45602e-07 0)
(-1.16378 -4.40092e-07 0)
(-1.15896 -4.34636e-07 0)
(-1.15414 -4.29234e-07 0)
(-1.14934 -4.23887e-07 0)
(-1.14454 -4.18593e-07 0)
(-1.13976 -4.13353e-07 0)
(-1.13498 -4.08166e-07 0)
(-1.13021 -4.03032e-07 0)
(-1.12545 -3.9795e-07 0)
(-1.12069 -3.92921e-07 0)
(-1.11595 -3.87944e-07 0)
(-1.11122 -3.83018e-07 0)
(-1.10649 -3.78144e-07 0)
(-1.10178 -3.73321e-07 0)
(-1.09707 -3.68549e-07 0)
(-1.09238 -3.63828e-07 0)
(-1.08769 -3.59157e-07 0)
(-1.08302 -3.54535e-07 0)
(-1.07835 -3.49964e-07 0)
(-1.07369 -3.45441e-07 0)
(-1.06905 -3.40968e-07 0)
(-1.06441 -3.36543e-07 0)
(-1.05979 -3.32166e-07 0)
(-1.05518 -3.27837e-07 0)
(-1.05057 -3.23556e-07 0)
(-1.04598 -3.19322e-07 0)
(-1.0414 -3.15136e-07 0)
(-1.03683 -3.10996e-07 0)
(-1.03227 -3.06902e-07 0)
(-1.02772 -3.02854e-07 0)
(-1.02318 -2.98851e-07 0)
(-1.01866 -2.94894e-07 0)
(-1.01414 -2.90982e-07 0)
(-1.00964 -2.87115e-07 0)
(-1.00515 -2.83291e-07 0)
(-1.00067 -2.79512e-07 0)
(-0.996203 -2.75776e-07 0)
(-0.991747 -2.72083e-07 0)
(-0.987303 -2.68433e-07 0)
(-0.982872 -2.64826e-07 0)
(-0.978452 -2.6126e-07 0)
(-0.974045 -2.57737e-07 0)
(-0.969649 -2.54255e-07 0)
(-0.965266 -2.50814e-07 0)
(-0.960896 -2.47413e-07 0)
(-0.956538 -2.44054e-07 0)
(-0.952192 -2.40734e-07 0)
(-0.947859 -2.37453e-07 0)
(-0.943539 -2.34213e-07 0)
(-0.939231 -2.31011e-07 0)
(-0.934936 -2.27847e-07 0)
(-0.930654 -2.24723e-07 0)
(-0.926385 -2.21635e-07 0)
(-0.922128 -2.18586e-07 0)
(-0.917885 -2.15574e-07 0)
(-0.913655 -2.12599e-07 0)
(-0.909437 -2.0966e-07 0)
(-0.905233 -2.06757e-07 0)
(-0.901042 -2.0389e-07 0)
(-0.896865 -2.01059e-07 0)
(-0.8927 -1.98263e-07 0)
(-0.888549 -1.95502e-07 0)
(-0.884411 -1.92775e-07 0)
(-0.880287 -1.90083e-07 0)
(-0.876176 -1.87424e-07 0)
(-0.872079 -1.84799e-07 0)
(-0.867995 -1.82207e-07 0)
(-0.863925 -1.79647e-07 0)
(-0.859868 -1.77121e-07 0)
(-0.855825 -1.74626e-07 0)
(-0.851796 -1.72163e-07 0)
(-0.84778 -1.69732e-07 0)
(-0.843778 -1.67331e-07 0)
(-0.83979 -1.64962e-07 0)
(-0.835815 -1.62623e-07 0)
(-0.831854 -1.60314e-07 0)
(-0.827907 -1.58036e-07 0)
(-0.823974 -1.55786e-07 0)
(-0.820055 -1.53566e-07 0)
(-0.81615 -1.51375e-07 0)
(-0.812259 -1.49213e-07 0)
(-0.808381 -1.47079e-07 0)
(-0.804518 -1.44972e-07 0)
(-0.800668 -1.42894e-07 0)
(-0.796833 -1.40843e-07 0)
(-0.793011 -1.38819e-07 0)
(-0.789204 -1.36821e-07 0)
(-0.78541 -1.3485e-07 0)
(-0.781631 -1.32906e-07 0)
(-0.777866 -1.30987e-07 0)
(-0.774114 -1.29093e-07 0)
(-0.770377 -1.27224e-07 0)
(-0.766654 -1.25381e-07 0)
(-0.762945 -1.2356e-07 0)
(-0.75925 -1.21766e-07 0)
(-0.755569 -1.19991e-07 0)
(-0.751903 -1.18203e-07 0)
(-0.748253 -1.16565e-07 0)
(-0.74461 -1.14938e-07 0)
(-0.740576 -1.12951e-07 0)
(-0.7362 -1.10841e-07 0)
(-0.731904 -1.0894e-07 0)
(-0.727677 -1.07142e-07 0)
(-0.723522 -1.05332e-07 0)
(-0.719437 -1.03557e-07 0)
(-0.71542 -1.01828e-07 0)
(-0.71147 -1.00145e-07 0)
(-0.707585 -9.85068e-08 0)
(-0.703764 -9.69126e-08 0)
(-0.700003 -9.53606e-08 0)
(-0.696303 -9.38496e-08 0)
(-0.692661 -9.23781e-08 0)
(-0.689076 -9.09447e-08 0)
(-0.685546 -8.9548e-08 0)
(-0.68207 -8.81868e-08 0)
(-0.678647 -8.68598e-08 0)
(-0.675275 -8.55658e-08 0)
(-0.671953 -8.43036e-08 0)
(-0.668679 -8.30722e-08 0)
(-0.665453 -8.18706e-08 0)
(-0.662274 -8.06977e-08 0)
(-0.65914 -7.95526e-08 0)
(-0.65605 -7.84344e-08 0)
(-0.653004 -7.73422e-08 0)
(-0.649999 -7.62752e-08 0)
(-0.647036 -7.52325e-08 0)
(-0.644114 -7.42135e-08 0)
(-0.64123 -7.32173e-08 0)
(-0.638386 -7.22433e-08 0)
(-0.635578 -7.12907e-08 0)
(-0.632808 -7.0359e-08 0)
(-0.630074 -6.94474e-08 0)
(-0.627375 -6.85555e-08 0)
(-0.62471 -6.76825e-08 0)
(-0.62208 -6.6828e-08 0)
(-0.619482 -6.59914e-08 0)
(-0.616917 -6.51723e-08 0)
(-0.614383 -6.437e-08 0)
(-0.611881 -6.35841e-08 0)
(-0.609409 -6.28142e-08 0)
(-0.606967 -6.20598e-08 0)
(-0.604554 -6.13205e-08 0)
(-0.602169 -6.05959e-08 0)
(-0.599813 -5.98855e-08 0)
(-0.597484 -5.91891e-08 0)
(-0.595182 -5.85062e-08 0)
(-0.592907 -5.78364e-08 0)
(-0.590658 -5.71795e-08 0)
(-0.588434 -5.6535e-08 0)
(-0.586235 -5.59028e-08 0)
(-0.58406 -5.52824e-08 0)
(-0.58191 -5.46735e-08 0)
(-0.579783 -5.4076e-08 0)
(-0.577679 -5.34894e-08 0)
(-0.575598 -5.29136e-08 0)
(-0.573539 -5.23483e-08 0)
(-0.571503 -5.17932e-08 0)
(-0.569487 -5.12482e-08 0)
(-0.567493 -5.07129e-08 0)
(-0.56552 -5.01871e-08 0)
(-0.563567 -4.96708e-08 0)
(-0.561634 -4.91635e-08 0)
(-0.559721 -4.86653e-08 0)
(-0.557827 -4.81758e-08 0)
(-0.555952 -4.76949e-08 0)
(-0.554095 -4.72226e-08 0)
(-0.552257 -4.67585e-08 0)
(-0.550437 -4.63026e-08 0)
(-0.548635 -4.58548e-08 0)
(-0.54685 -4.54149e-08 0)
(-0.545082 -4.4983e-08 0)
(-0.54333 -4.45588e-08 0)
(-0.541596 -4.41425e-08 0)
(-0.539877 -4.3734e-08 0)
(-0.538174 -4.33334e-08 0)
(-0.536487 -4.29408e-08 0)
(-0.534815 -4.25563e-08 0)
(-0.533157 -4.21803e-08 0)
(-0.531515 -4.18132e-08 0)
(-0.529886 -4.14556e-08 0)
(-0.528271 -4.11084e-08 0)
(-0.52667 -4.07731e-08 0)
(-0.525082 -4.04508e-08 0)
(-0.523506 -4.0145e-08 0)
(-0.521941 -3.98678e-08 0)
(-0.520386 -3.9589e-08 0)
(-0.518844 -3.93681e-08 0)
(-0.517307 -3.94295e-08 0)
(-0.515759 -3.87468e-08 0)
(-0.514275 -3.78778e-08 0)
(-0.512795 -5.00507e-08 0)
(-0.510359 -1.40259e-08 0)
(-0.51171 -3.69599e-08 0)
(-0.507425 -5.56999e-08 0)
)
;
    }
    symmetry
    {
        type            symmetryPlane;
    }
    frontAndBack
    {
        type            empty;
    }
}


// ************************************************************************* //
