/*--------------------------------*- C++ -*----------------------------------*\
| =========                 |                                                 |
| \\      /  F ield         | OpenFOAM: The Open Source CFD Toolbox           |
|  \\    /   O peration     | Version:  v2012                                 |
|   \\  /    A nd           | Website:  www.openfoam.com                      |
|    \\/     M anipulation  |                                                 |
\*---------------------------------------------------------------------------*/
FoamFile
{
    version     2.0;
    format      ascii;
    class       volScalarField;
    location    "50.5";
    object      epsilon;
}
// * * * * * * * * * * * * * * * * * * * * * * * * * * * * * * * * * * * * * //

dimensions      [0 2 -3 0 0 0 0];


internalField   nonuniform List<scalar> 
209825
(
0.759439
0.633717
0.543746
0.480484
0.435607
0.403073
0.378803
0.360256
0.345704
0.334094
0.324621
0.316816
0.310251
0.304712
0.299937
0.295836
0.292229
0.289093
0.286286
0.283823
0.281585
0.279608
0.277787
0.276173
0.274668
0.273331
0.27207
0.270949
0.26988
0.268935
0.268019
0.267213
0.266424
0.265735
0.26505
0.264455
0.26386
0.263347
0.262824
0.26238
0.261919
0.261532
0.261127
0.260793
0.260435
0.26014
0.259826
0.259572
0.259292
0.259063
0.258827
0.258623
0.258413
0.258229
0.258046
0.257905
0.257728
0.2576
0.25746
0.257332
0.257225
0.257122
0.257032
0.256943
0.256873
0.256798
0.256734
0.256702
0.256649
0.256623
0.256572
0.256555
0.256517
0.256519
0.25651
0.256529
0.256529
0.256572
0.256572
0.256633
0.25664
0.256711
0.256734
0.256818
0.256856
0.25696
0.257012
0.257142
0.257207
0.257377
0.257448
0.257699
0.257793
0.260854
3.07277
581.199
0.759439
0.633717
0.543745
0.480481
0.435602
0.403067
0.378795
0.360246
0.345694
0.334083
0.324609
0.316803
0.310238
0.304698
0.299922
0.295822
0.292215
0.289078
0.286271
0.283807
0.281569
0.279592
0.277771
0.276157
0.274651
0.273315
0.272053
0.270933
0.269864
0.268918
0.268003
0.267196
0.266407
0.265718
0.265033
0.264438
0.263843
0.26333
0.262807
0.262362
0.261902
0.261514
0.26111
0.260775
0.260418
0.260122
0.259808
0.259554
0.259274
0.259045
0.258809
0.258605
0.258395
0.258211
0.258028
0.257887
0.25771
0.257582
0.257442
0.257314
0.257207
0.257104
0.257014
0.256925
0.256855
0.25678
0.256716
0.256684
0.256631
0.256605
0.256554
0.256537
0.256499
0.256501
0.256491
0.256511
0.25651
0.256554
0.256554
0.256614
0.256622
0.256692
0.256716
0.2568
0.256838
0.256941
0.256994
0.257123
0.257189
0.257359
0.25743
0.257681
0.257775
0.26084
3.07761
577.879
0.75944
0.633718
0.54374
0.480468
0.43558
0.403037
0.378759
0.360205
0.345648
0.334034
0.324557
0.316749
0.310181
0.30464
0.299862
0.29576
0.292152
0.289014
0.286206
0.283742
0.281503
0.279526
0.277704
0.276089
0.274583
0.273246
0.271984
0.270863
0.269794
0.268848
0.267932
0.267125
0.266336
0.265646
0.264961
0.264366
0.26377
0.263258
0.262734
0.262289
0.261829
0.261441
0.261036
0.260702
0.260344
0.260049
0.259734
0.25948
0.2592
0.258971
0.258735
0.258531
0.25832
0.258137
0.257953
0.257812
0.257635
0.257507
0.257367
0.257239
0.257131
0.257028
0.256939
0.256849
0.25678
0.256705
0.25664
0.256608
0.256555
0.256529
0.256478
0.256461
0.256423
0.256424
0.256415
0.256434
0.256433
0.256477
0.256477
0.256537
0.256544
0.256615
0.256638
0.256722
0.25676
0.256863
0.256916
0.257045
0.25711
0.25728
0.257351
0.257602
0.257696
0.26077
3.08686
573.867
0.759442
0.633719
0.543731
0.480445
0.435543
0.402987
0.378698
0.360135
0.345571
0.333951
0.324469
0.316657
0.310086
0.304541
0.299761
0.295657
0.292047
0.288907
0.286098
0.283632
0.281391
0.279413
0.27759
0.275974
0.274467
0.27313
0.271867
0.270745
0.269675
0.268729
0.267812
0.267005
0.266215
0.265525
0.26484
0.264244
0.263648
0.263135
0.262612
0.262166
0.261705
0.261317
0.260912
0.260578
0.26022
0.259924
0.25961
0.259355
0.259075
0.258846
0.258609
0.258405
0.258194
0.25801
0.257827
0.257685
0.257508
0.25738
0.25724
0.257112
0.257004
0.256901
0.256811
0.256722
0.256652
0.256577
0.256512
0.256479
0.256427
0.2564
0.256349
0.256332
0.256294
0.256295
0.256285
0.256305
0.256304
0.256347
0.256347
0.256407
0.256414
0.256484
0.256508
0.256591
0.256629
0.256732
0.256784
0.256914
0.256979
0.257148
0.257219
0.25747
0.257563
0.260652
3.10108
569.955
0.759445
0.63372
0.543719
0.480412
0.435489
0.402915
0.378612
0.360037
0.345463
0.333834
0.324345
0.316527
0.309951
0.304402
0.299618
0.29551
0.291897
0.288755
0.285944
0.283476
0.281234
0.279254
0.27743
0.275812
0.274304
0.272965
0.271701
0.270579
0.269508
0.268561
0.267644
0.266836
0.266045
0.265355
0.264669
0.264073
0.263476
0.262962
0.262438
0.261993
0.261531
0.261143
0.260737
0.260402
0.260044
0.259748
0.259433
0.259178
0.258898
0.258668
0.258432
0.258227
0.258016
0.257832
0.257648
0.257506
0.257329
0.257201
0.257061
0.256932
0.256824
0.256721
0.256631
0.256541
0.256471
0.256396
0.256331
0.256298
0.256245
0.256219
0.256168
0.25615
0.256112
0.256113
0.256103
0.256122
0.256121
0.256163
0.256163
0.256223
0.25623
0.2563
0.256323
0.256406
0.256444
0.256546
0.256599
0.256728
0.256792
0.256961
0.257032
0.257282
0.257376
0.260484
3.12074
566.488
0.759449
0.633722
0.543702
0.480369
0.43542
0.402823
0.3785
0.359909
0.345321
0.333681
0.324184
0.316358
0.309775
0.304221
0.299432
0.295321
0.291704
0.288559
0.285744
0.283274
0.281029
0.279047
0.277221
0.275602
0.274093
0.272752
0.271487
0.270364
0.269292
0.268343
0.267425
0.266616
0.265825
0.265133
0.264447
0.26385
0.263253
0.262738
0.262214
0.261767
0.261305
0.260916
0.26051
0.260175
0.259816
0.25952
0.259204
0.258949
0.258668
0.258438
0.258201
0.257997
0.257785
0.257601
0.257417
0.257275
0.257097
0.256969
0.256828
0.256699
0.256591
0.256487
0.256397
0.256307
0.256237
0.256161
0.256096
0.256063
0.25601
0.255983
0.255932
0.255914
0.255876
0.255876
0.255866
0.255884
0.255883
0.255925
0.255925
0.255984
0.255991
0.256061
0.256083
0.256166
0.256204
0.256306
0.256358
0.256486
0.256551
0.256719
0.256789
0.257039
0.257132
0.260266
3.14627
563.633
0.759453
0.633725
0.543682
0.480317
0.435335
0.402709
0.378362
0.359751
0.345148
0.333494
0.323985
0.31615
0.309559
0.303998
0.299204
0.295087
0.291466
0.288316
0.285498
0.283025
0.280778
0.278793
0.276965
0.275343
0.273832
0.27249
0.271223
0.270098
0.269024
0.268075
0.267155
0.266345
0.265553
0.26486
0.264173
0.263575
0.262977
0.262462
0.261937
0.26149
0.261027
0.260637
0.260231
0.259894
0.259535
0.259238
0.258922
0.258667
0.258386
0.258155
0.257918
0.257712
0.257501
0.257316
0.257131
0.256989
0.256811
0.256682
0.256541
0.256412
0.256303
0.2562
0.256109
0.256019
0.255948
0.255872
0.255806
0.255773
0.25572
0.255693
0.255641
0.255623
0.255585
0.255585
0.255574
0.255592
0.25559
0.255631
0.255631
0.25569
0.255696
0.255766
0.255788
0.255871
0.255908
0.256009
0.256061
0.256189
0.256253
0.256421
0.256491
0.25674
0.256833
0.259998
3.17811
561.448
0.759458
0.633728
0.543659
0.480255
0.435235
0.402574
0.378199
0.359564
0.344941
0.333271
0.323749
0.315902
0.309302
0.303733
0.298931
0.294808
0.291182
0.288028
0.285206
0.282728
0.280478
0.27849
0.276659
0.275035
0.273521
0.272177
0.270908
0.269781
0.268706
0.267755
0.266834
0.266023
0.265229
0.264535
0.263847
0.263248
0.262649
0.262133
0.261607
0.261159
0.260695
0.260305
0.259897
0.259561
0.259201
0.258903
0.258587
0.25833
0.258049
0.257818
0.257579
0.257374
0.257162
0.256976
0.256791
0.256648
0.25647
0.256341
0.256199
0.25607
0.255961
0.255857
0.255765
0.255675
0.255604
0.255528
0.255462
0.255428
0.255374
0.255347
0.255295
0.255277
0.255239
0.255238
0.255226
0.255243
0.255241
0.255282
0.255282
0.25534
0.255346
0.255414
0.255436
0.255519
0.255555
0.255656
0.255707
0.255835
0.255898
0.256065
0.256135
0.256383
0.256476
0.259679
3.2167
559.923
0.759464
0.633731
0.543632
0.480183
0.435118
0.402418
0.378008
0.359346
0.3447
0.333012
0.323474
0.315614
0.309003
0.303424
0.298615
0.294484
0.290852
0.287692
0.284865
0.282383
0.280129
0.278138
0.276303
0.274677
0.27316
0.271813
0.270542
0.269413
0.268336
0.267383
0.266461
0.265648
0.264852
0.264157
0.263467
0.262868
0.262267
0.26175
0.261223
0.260774
0.260309
0.259918
0.25951
0.259172
0.258811
0.258513
0.258196
0.257939
0.257657
0.257425
0.257186
0.25698
0.256767
0.256582
0.256395
0.256252
0.256074
0.255944
0.255802
0.255673
0.255562
0.255458
0.255366
0.255276
0.255203
0.255128
0.25506
0.255027
0.254972
0.254945
0.254892
0.254874
0.254836
0.254834
0.254821
0.254838
0.254836
0.254875
0.254875
0.254932
0.254938
0.255006
0.255027
0.255109
0.255145
0.255245
0.255296
0.255422
0.255485
0.255652
0.25572
0.255968
0.25606
0.259309
3.26245
558.995
0.759471
0.633735
0.543601
0.480102
0.434985
0.402239
0.377792
0.359098
0.344426
0.332716
0.323161
0.315286
0.308662
0.303072
0.298253
0.294115
0.290475
0.287309
0.284476
0.281989
0.279731
0.277735
0.275897
0.274267
0.272747
0.271398
0.270124
0.268993
0.267914
0.266959
0.266034
0.26522
0.264422
0.263726
0.263034
0.262433
0.261831
0.261313
0.260784
0.260334
0.259869
0.259476
0.259067
0.258729
0.258367
0.258068
0.25775
0.257492
0.257209
0.256977
0.256737
0.25653
0.256317
0.256131
0.255944
0.2558
0.255621
0.255491
0.255348
0.255218
0.255107
0.255003
0.25491
0.254819
0.254746
0.25467
0.254602
0.254568
0.254513
0.254485
0.254433
0.254414
0.254375
0.254373
0.254359
0.254375
0.254372
0.25441
0.25441
0.254467
0.254472
0.254539
0.25456
0.254641
0.254676
0.254776
0.254826
0.254952
0.255014
0.255179
0.255247
0.255494
0.255586
0.258888
3.31575
558.566
0.759479
0.63374
0.543566
0.48001
0.434836
0.402039
0.377548
0.358818
0.344118
0.332384
0.322808
0.314916
0.308278
0.302676
0.297846
0.293699
0.290051
0.286878
0.284039
0.281546
0.279282
0.277282
0.27544
0.273806
0.272283
0.27093
0.269654
0.26852
0.267438
0.26648
0.265554
0.264737
0.263938
0.26324
0.262546
0.261944
0.26134
0.260821
0.260291
0.25984
0.259373
0.258979
0.258569
0.258229
0.257867
0.257567
0.257247
0.256989
0.256705
0.256472
0.256231
0.256024
0.255809
0.255623
0.255435
0.255291
0.255111
0.25498
0.254837
0.254707
0.254595
0.25449
0.254397
0.254305
0.254232
0.254155
0.254087
0.254052
0.253996
0.253968
0.253915
0.253896
0.253857
0.253853
0.253839
0.253854
0.25385
0.253887
0.253887
0.253942
0.253947
0.254014
0.254034
0.254114
0.254149
0.254248
0.254297
0.254422
0.254484
0.254648
0.254715
0.254961
0.255052
0.258415
3.37695
558.512
0.759488
0.633745
0.543528
0.479909
0.43467
0.401816
0.377278
0.358508
0.343775
0.332014
0.322416
0.314505
0.307851
0.302235
0.297393
0.293235
0.289579
0.286397
0.283551
0.281052
0.278783
0.276778
0.274931
0.273293
0.271766
0.27041
0.26913
0.267993
0.266908
0.265948
0.265019
0.2642
0.263399
0.262699
0.262003
0.261399
0.260794
0.260273
0.259741
0.259289
0.25882
0.258426
0.258014
0.257673
0.257309
0.257008
0.256688
0.256428
0.256144
0.25591
0.255668
0.25546
0.255245
0.255057
0.254869
0.254724
0.254543
0.254412
0.254268
0.254137
0.254024
0.253919
0.253825
0.253733
0.253659
0.253582
0.253512
0.253477
0.25342
0.253392
0.253338
0.253319
0.25328
0.253275
0.253259
0.253273
0.25327
0.253305
0.253305
0.253359
0.253363
0.253429
0.253448
0.253528
0.253562
0.25366
0.253708
0.253832
0.253893
0.254056
0.254122
0.254367
0.254458
0.257889
3.44635
558.693
0.759497
0.633751
0.543487
0.479798
0.434489
0.401571
0.37698
0.358167
0.343397
0.331607
0.321984
0.314052
0.30738
0.301749
0.296894
0.292725
0.289058
0.285868
0.283014
0.280508
0.278232
0.276222
0.27437
0.272727
0.271196
0.269835
0.268552
0.267412
0.266324
0.265361
0.264429
0.263608
0.262804
0.262102
0.261404
0.260798
0.260191
0.259668
0.259135
0.258681
0.258211
0.257815
0.257402
0.25706
0.256695
0.256393
0.256071
0.25581
0.255525
0.25529
0.255047
0.254838
0.254622
0.254434
0.254244
0.254098
0.253917
0.253785
0.25364
0.253509
0.253395
0.253289
0.253194
0.253102
0.253026
0.252949
0.252879
0.252843
0.252786
0.252757
0.252702
0.252682
0.252643
0.252637
0.25262
0.252633
0.252629
0.252662
0.252662
0.252715
0.252719
0.252784
0.252802
0.252881
0.252914
0.253011
0.253059
0.253181
0.253241
0.253403
0.253468
0.253712
0.253802
0.25731
3.52417
558.964
0.759507
0.633757
0.543442
0.479678
0.434291
0.401305
0.376655
0.357794
0.342985
0.331161
0.321511
0.313556
0.306865
0.301217
0.296348
0.292166
0.288488
0.285289
0.282426
0.279913
0.27763
0.275613
0.273755
0.272107
0.270572
0.269207
0.26792
0.266776
0.265685
0.264719
0.263784
0.26296
0.262153
0.261449
0.260749
0.26014
0.259531
0.259007
0.258471
0.258016
0.257544
0.257147
0.256732
0.256389
0.256022
0.255719
0.255396
0.255134
0.254847
0.254611
0.254367
0.254157
0.25394
0.253751
0.25356
0.253414
0.253232
0.253098
0.252953
0.252821
0.252706
0.252599
0.252504
0.252411
0.252335
0.252257
0.252186
0.252149
0.252091
0.252061
0.252006
0.251986
0.251946
0.25194
0.251921
0.251933
0.251928
0.25196
0.251959
0.252011
0.252013
0.252078
0.252095
0.252173
0.252205
0.252301
0.252348
0.252469
0.252528
0.252688
0.252753
0.252995
0.253085
0.256678
3.61059
559.177
0.759518
0.633764
0.543394
0.479548
0.434077
0.401016
0.376303
0.357389
0.342538
0.330678
0.320998
0.313018
0.306306
0.30064
0.295755
0.291559
0.287869
0.284659
0.281787
0.279265
0.276975
0.274951
0.273088
0.271434
0.269893
0.268524
0.267232
0.266084
0.264989
0.26402
0.263082
0.262255
0.261446
0.260739
0.260036
0.259426
0.258814
0.258287
0.25775
0.257293
0.256819
0.25642
0.256004
0.255659
0.255291
0.254986
0.254662
0.254398
0.25411
0.253873
0.253628
0.253417
0.253199
0.253009
0.252817
0.25267
0.252487
0.252352
0.252206
0.252073
0.251958
0.25185
0.251753
0.25166
0.251582
0.251505
0.251432
0.251394
0.251335
0.251305
0.25125
0.251228
0.251188
0.251181
0.251161
0.251171
0.251165
0.251196
0.251195
0.251245
0.251247
0.25131
0.251327
0.251403
0.251434
0.251529
0.251575
0.251694
0.251753
0.251911
0.251975
0.252215
0.252305
0.255992
3.70564
559.191
0.75953
0.633772
0.543343
0.479409
0.433847
0.400705
0.375924
0.356953
0.342055
0.330157
0.320444
0.312437
0.305701
0.300016
0.295114
0.290904
0.287201
0.283979
0.281097
0.278566
0.276268
0.274237
0.272366
0.270707
0.26916
0.267786
0.266489
0.265337
0.264238
0.263265
0.262324
0.261493
0.260681
0.259971
0.259266
0.258653
0.258039
0.25751
0.256971
0.256511
0.256036
0.255635
0.255217
0.25487
0.2545
0.254194
0.253868
0.253604
0.253314
0.253076
0.252829
0.252617
0.252398
0.252207
0.252013
0.251865
0.251681
0.251546
0.251399
0.251265
0.251148
0.25104
0.250942
0.250848
0.250769
0.250691
0.250617
0.250579
0.250519
0.250488
0.250432
0.25041
0.250369
0.250361
0.250339
0.250348
0.250341
0.25037
0.250369
0.250417
0.250418
0.25048
0.250496
0.250571
0.250601
0.250694
0.250739
0.250857
0.250915
0.251072
0.251134
0.251373
0.251463
0.255251
3.80926
558.873
0.759542
0.633781
0.543289
0.47926
0.433602
0.400372
0.375517
0.356485
0.341536
0.329596
0.319849
0.311813
0.305052
0.299345
0.294425
0.290199
0.286482
0.283248
0.280355
0.277814
0.275507
0.273468
0.27159
0.269924
0.268372
0.266992
0.265691
0.264534
0.26343
0.262453
0.261508
0.260674
0.259859
0.259146
0.258438
0.257822
0.257205
0.256674
0.256132
0.25567
0.255193
0.25479
0.25437
0.254022
0.25365
0.253342
0.253015
0.252749
0.252458
0.252218
0.25197
0.251757
0.251536
0.251344
0.251149
0.251
0.250815
0.250679
0.250531
0.250396
0.250278
0.250169
0.25007
0.249975
0.249895
0.249816
0.249741
0.249701
0.24964
0.249609
0.249552
0.249529
0.249488
0.249478
0.249455
0.249463
0.249455
0.249482
0.24948
0.249526
0.249527
0.249588
0.249602
0.249676
0.249705
0.249797
0.249841
0.249957
0.250014
0.250169
0.250229
0.250467
0.250557
0.254456
3.92123
558.096
0.759556
0.633791
0.543232
0.479103
0.43334
0.400017
0.375083
0.355986
0.340983
0.328998
0.319213
0.311145
0.304358
0.298628
0.293688
0.289444
0.285713
0.282465
0.279561
0.277009
0.274693
0.272645
0.27076
0.269087
0.267528
0.266142
0.264835
0.263673
0.262565
0.261584
0.260635
0.259797
0.258978
0.258262
0.257551
0.256932
0.256313
0.255779
0.255234
0.25477
0.254291
0.253886
0.253463
0.253113
0.25274
0.25243
0.252101
0.251833
0.251541
0.251299
0.25105
0.250836
0.250613
0.250421
0.250224
0.250073
0.249888
0.24975
0.249601
0.249465
0.249346
0.249236
0.249135
0.24904
0.248958
0.248879
0.248802
0.248762
0.2487
0.248668
0.24861
0.248586
0.248544
0.248534
0.248509
0.248516
0.248506
0.248531
0.248529
0.248573
0.248573
0.248632
0.248645
0.248718
0.248746
0.248836
0.248879
0.248993
0.249049
0.249202
0.249261
0.249497
0.249587
0.253605
4.04119
556.754
0.759569
0.633801
0.543172
0.478936
0.433063
0.39964
0.374622
0.355454
0.340393
0.32836
0.318536
0.310434
0.303618
0.297863
0.292903
0.28864
0.284893
0.281631
0.278714
0.276151
0.273824
0.271767
0.269874
0.268193
0.266628
0.265236
0.263923
0.262756
0.261643
0.260657
0.259703
0.258862
0.258039
0.257319
0.256605
0.255983
0.25536
0.254824
0.254277
0.25381
0.253328
0.252921
0.252496
0.252144
0.251769
0.251457
0.251126
0.250857
0.250563
0.25032
0.250068
0.249853
0.249629
0.249435
0.249237
0.249085
0.248898
0.248759
0.248609
0.248473
0.248351
0.24824
0.248139
0.248042
0.247959
0.24788
0.247801
0.24776
0.247697
0.247664
0.247605
0.247581
0.247537
0.247526
0.2475
0.247505
0.247494
0.247517
0.247514
0.247555
0.247556
0.247613
0.247625
0.247696
0.247723
0.247811
0.247853
0.247965
0.248019
0.24817
0.248228
0.248462
0.248552
0.252699
4.16855
554.755
0.759584
0.633813
0.543109
0.478761
0.43277
0.399241
0.374133
0.354891
0.339769
0.327684
0.317817
0.309679
0.302832
0.297052
0.292068
0.287786
0.284021
0.280745
0.277814
0.275239
0.272902
0.270835
0.268933
0.267244
0.265671
0.264273
0.262954
0.261781
0.260663
0.259672
0.258714
0.257868
0.257041
0.256317
0.255599
0.254974
0.254349
0.253809
0.253259
0.25279
0.252305
0.251896
0.251469
0.251114
0.250737
0.250423
0.25009
0.249819
0.249523
0.249278
0.249025
0.248809
0.248583
0.248388
0.248188
0.248035
0.247847
0.247706
0.247555
0.247417
0.247294
0.247183
0.247079
0.246982
0.246898
0.246818
0.246737
0.246695
0.246631
0.246597
0.246537
0.246512
0.246468
0.246455
0.246428
0.246431
0.246418
0.246439
0.246435
0.246474
0.246474
0.24653
0.24654
0.24661
0.246635
0.246722
0.246762
0.246873
0.246926
0.247074
0.247131
0.247363
0.247453
0.251735
4.30254
552.021
0.759599
0.633825
0.543044
0.478577
0.432462
0.398821
0.373618
0.354297
0.339108
0.326969
0.317056
0.30888
0.302001
0.296193
0.291185
0.286882
0.283099
0.279806
0.276861
0.274273
0.271925
0.269848
0.267936
0.266239
0.264658
0.263252
0.261927
0.260748
0.259624
0.258628
0.257665
0.256815
0.255984
0.255256
0.254534
0.253905
0.253277
0.252734
0.252181
0.251709
0.251222
0.25081
0.25038
0.250023
0.249643
0.249328
0.248993
0.248719
0.248422
0.248175
0.24792
0.247702
0.247474
0.247278
0.247076
0.246922
0.246732
0.246591
0.246438
0.246299
0.246175
0.246062
0.245957
0.245859
0.245773
0.245692
0.24561
0.245567
0.245501
0.245466
0.245405
0.245379
0.245334
0.245321
0.245292
0.245293
0.245279
0.245297
0.245293
0.245329
0.245329
0.245382
0.245391
0.245459
0.245483
0.245568
0.245607
0.245715
0.245767
0.245913
0.245968
0.246198
0.246289
0.250714
4.44213
548.489
0.759615
0.633838
0.542977
0.478385
0.432139
0.39838
0.373076
0.35367
0.338413
0.326216
0.316255
0.308038
0.301124
0.295286
0.290253
0.285928
0.282125
0.278815
0.275855
0.273254
0.270893
0.268805
0.266884
0.265177
0.263588
0.262175
0.260843
0.259657
0.258527
0.257526
0.256558
0.255703
0.254867
0.254135
0.253409
0.252777
0.252144
0.251598
0.251042
0.250567
0.250077
0.249662
0.24923
0.248871
0.248488
0.248171
0.247833
0.247558
0.247258
0.24701
0.246753
0.246533
0.246304
0.246106
0.245902
0.245746
0.245556
0.245412
0.245258
0.245118
0.244992
0.244878
0.244772
0.244672
0.244585
0.244503
0.24442
0.244375
0.244308
0.244272
0.24421
0.244183
0.244137
0.244122
0.244092
0.244091
0.244075
0.244091
0.244086
0.244119
0.244118
0.24417
0.244177
0.244244
0.244266
0.244349
0.244386
0.244493
0.244543
0.244687
0.24474
0.244968
0.245059
0.249634
4.58602
544.111
0.759631
0.633853
0.542907
0.478184
0.431802
0.397918
0.372507
0.353013
0.337682
0.325424
0.315412
0.307151
0.300202
0.294332
0.289272
0.284924
0.2811
0.277772
0.274796
0.27218
0.269806
0.267707
0.265775
0.264059
0.262461
0.26104
0.2597
0.258508
0.257372
0.256365
0.255391
0.254531
0.253691
0.252954
0.252224
0.251588
0.250951
0.250402
0.249842
0.249364
0.248871
0.248454
0.248018
0.247657
0.247272
0.246952
0.246612
0.246335
0.246033
0.245783
0.245523
0.245302
0.24507
0.244872
0.244665
0.244508
0.244316
0.244171
0.244015
0.243874
0.243746
0.243631
0.243523
0.243422
0.243333
0.243251
0.243165
0.243119
0.24305
0.243014
0.24295
0.242922
0.242875
0.242859
0.242828
0.242825
0.242807
0.242821
0.242814
0.242845
0.242843
0.242892
0.242899
0.242963
0.242984
0.243065
0.243101
0.243205
0.243253
0.243395
0.243446
0.243672
0.243763
0.248495
4.73265
538.851
0.759648
0.633868
0.542835
0.477976
0.43145
0.397435
0.371912
0.352324
0.336916
0.324593
0.314527
0.306222
0.299233
0.29333
0.288242
0.283869
0.280024
0.276676
0.273683
0.271052
0.268665
0.266553
0.26461
0.262884
0.261277
0.259848
0.2585
0.257301
0.256158
0.255144
0.254165
0.2533
0.252454
0.251713
0.250979
0.250338
0.249698
0.249145
0.248582
0.2481
0.247604
0.247183
0.246745
0.246381
0.245993
0.245671
0.245328
0.245049
0.244744
0.244492
0.244231
0.244008
0.243774
0.243574
0.243365
0.243206
0.243012
0.242866
0.242708
0.242567
0.242436
0.24232
0.24221
0.242109
0.242017
0.241934
0.241847
0.241799
0.241729
0.241691
0.241626
0.241597
0.241549
0.241532
0.241499
0.241494
0.241475
0.241486
0.241478
0.241506
0.241504
0.24155
0.241555
0.241617
0.241636
0.241715
0.241749
0.241851
0.241898
0.242037
0.242086
0.24231
0.242402
0.247295
4.88015
532.685
0.759666
0.633885
0.542762
0.477761
0.431084
0.396931
0.371291
0.351605
0.336115
0.323725
0.313602
0.305248
0.298219
0.292281
0.287163
0.282764
0.278896
0.275528
0.272517
0.26987
0.267469
0.265344
0.263389
0.261653
0.260036
0.258598
0.257242
0.256035
0.254885
0.253865
0.25288
0.252009
0.251158
0.250412
0.249673
0.249028
0.248384
0.247827
0.24726
0.246775
0.246275
0.245851
0.24541
0.245043
0.244652
0.244328
0.243982
0.2437
0.243394
0.24314
0.242876
0.24265
0.242415
0.242213
0.242002
0.241841
0.241646
0.241498
0.241338
0.241195
0.241063
0.240945
0.240833
0.240731
0.240638
0.240554
0.240465
0.240415
0.240343
0.240305
0.240238
0.240208
0.240158
0.240141
0.240106
0.240099
0.240077
0.240086
0.240077
0.240102
0.240099
0.240142
0.240146
0.240206
0.240223
0.2403
0.240333
0.240432
0.240477
0.240613
0.240661
0.240882
0.240975
0.246033
5.02634
525.597
0.759684
0.633902
0.542686
0.477538
0.430704
0.396408
0.370645
0.350856
0.33528
0.322818
0.312636
0.304231
0.29716
0.291185
0.286035
0.281608
0.277717
0.274328
0.271298
0.268634
0.266218
0.264079
0.262113
0.260365
0.258738
0.25729
0.255926
0.254711
0.253554
0.252527
0.251535
0.250659
0.249802
0.249051
0.248307
0.247658
0.247009
0.246447
0.245877
0.245388
0.244885
0.244458
0.244013
0.243643
0.24325
0.242922
0.242574
0.24229
0.241981
0.241724
0.241458
0.241231
0.240992
0.240789
0.240576
0.240413
0.240216
0.240066
0.239905
0.239761
0.239626
0.239507
0.239393
0.23929
0.239194
0.239109
0.239018
0.238967
0.238894
0.238854
0.238786
0.238755
0.238703
0.238684
0.238648
0.23864
0.238616
0.238622
0.238611
0.238633
0.238629
0.23867
0.238672
0.23873
0.238745
0.23882
0.23885
0.238947
0.238991
0.239124
0.239169
0.239388
0.239482
0.244707
5.16874
517.577
0.759702
0.633921
0.54261
0.477309
0.430312
0.395865
0.369974
0.350076
0.334411
0.321874
0.311629
0.303172
0.296055
0.290042
0.284859
0.280403
0.276486
0.273075
0.270025
0.267344
0.264912
0.262759
0.26078
0.25902
0.257383
0.255925
0.254552
0.253329
0.252164
0.25113
0.250132
0.249249
0.248386
0.24763
0.246881
0.246227
0.245573
0.245007
0.244432
0.24394
0.243433
0.243003
0.242555
0.242181
0.241785
0.241455
0.241104
0.240816
0.240505
0.240246
0.239977
0.239748
0.239507
0.239302
0.239086
0.238922
0.238723
0.238571
0.238408
0.238262
0.238126
0.238005
0.237889
0.237784
0.237687
0.237601
0.237508
0.237455
0.23738
0.237338
0.237269
0.237237
0.237184
0.237164
0.237125
0.237115
0.237089
0.237093
0.23708
0.237099
0.237094
0.237132
0.237133
0.237188
0.237201
0.237274
0.237302
0.237396
0.237438
0.237568
0.237612
0.237828
0.237923
0.243318
5.30459
508.622
0.759721
0.633941
0.542532
0.477073
0.429906
0.395304
0.369278
0.349267
0.333508
0.320892
0.310582
0.302069
0.294906
0.288852
0.283635
0.279148
0.275205
0.27177
0.2687
0.266
0.263552
0.261384
0.259391
0.257619
0.255971
0.254503
0.25312
0.251888
0.250715
0.249674
0.248669
0.247779
0.246911
0.246149
0.245394
0.244735
0.244076
0.243507
0.242927
0.242431
0.24192
0.241486
0.241035
0.240658
0.240258
0.239925
0.239571
0.239281
0.238967
0.238705
0.238433
0.238202
0.237959
0.237753
0.237534
0.237368
0.237167
0.237013
0.236848
0.236701
0.236562
0.23644
0.236321
0.236216
0.236115
0.236029
0.235933
0.235879
0.235802
0.235759
0.235688
0.235654
0.2356
0.235578
0.235538
0.235527
0.235499
0.2355
0.235485
0.235501
0.235495
0.235529
0.235529
0.235581
0.235593
0.235662
0.235689
0.23578
0.23582
0.235947
0.235989
0.236202
0.236299
0.241861
5.43086
498.729
0.75974
0.633962
0.542453
0.476831
0.429489
0.394724
0.368558
0.34843
0.332572
0.319874
0.309495
0.300925
0.293712
0.287616
0.282362
0.277844
0.273873
0.270414
0.267322
0.264603
0.262137
0.259954
0.257947
0.256162
0.254502
0.253023
0.251631
0.25039
0.249209
0.248159
0.247147
0.246251
0.245376
0.244608
0.243848
0.243183
0.24252
0.241945
0.241361
0.240861
0.240346
0.239908
0.239453
0.239073
0.23867
0.238334
0.237976
0.237683
0.237366
0.237102
0.236828
0.236594
0.236349
0.23614
0.235919
0.23575
0.235548
0.235391
0.235224
0.235076
0.234934
0.234811
0.23469
0.234583
0.234481
0.234393
0.234295
0.234239
0.23416
0.234116
0.234043
0.234008
0.233952
0.233929
0.233887
0.233874
0.233844
0.233843
0.233825
0.233838
0.23383
0.23386
0.23386
0.23391
0.233919
0.233986
0.23401
0.234099
0.234137
0.234261
0.2343
0.234511
0.234609
0.240337
5.54427
487.899
0.75976
0.633985
0.542373
0.476584
0.42906
0.394126
0.367815
0.347563
0.331603
0.31882
0.308369
0.299738
0.292474
0.286334
0.281042
0.276491
0.272491
0.269006
0.265892
0.263153
0.260668
0.258469
0.256447
0.254649
0.252977
0.251487
0.250084
0.248834
0.247644
0.246587
0.245566
0.244663
0.243782
0.243007
0.242241
0.241572
0.240903
0.240324
0.239735
0.239231
0.238711
0.23827
0.23781
0.237426
0.23702
0.236681
0.23632
0.236024
0.235704
0.235438
0.23516
0.234924
0.234676
0.234465
0.234241
0.23407
0.233866
0.233707
0.233538
0.233388
0.233244
0.233119
0.232996
0.232887
0.232782
0.232694
0.232593
0.232536
0.232454
0.232409
0.232335
0.232298
0.23224
0.232216
0.232172
0.232157
0.232125
0.232121
0.232102
0.232111
0.232102
0.232128
0.232127
0.232173
0.23218
0.232245
0.232267
0.232353
0.232388
0.232509
0.232546
0.232754
0.232853
0.238744
5.64139
476.133
0.759779
0.634008
0.542293
0.476331
0.42862
0.393511
0.367048
0.346669
0.330603
0.31773
0.307205
0.29851
0.291192
0.285007
0.279675
0.275089
0.271059
0.267547
0.26441
0.261649
0.259146
0.25693
0.254893
0.253081
0.251396
0.249894
0.248481
0.247221
0.246021
0.244956
0.243928
0.243017
0.242129
0.241348
0.240576
0.239901
0.239226
0.238642
0.238048
0.237539
0.237015
0.23657
0.236107
0.235719
0.235309
0.234966
0.234602
0.234303
0.23398
0.233711
0.23343
0.233192
0.232941
0.232728
0.232501
0.232328
0.232121
0.231961
0.231789
0.231637
0.231491
0.231364
0.231239
0.231129
0.231021
0.230931
0.230828
0.230769
0.230685
0.230638
0.230562
0.230524
0.230465
0.230439
0.230393
0.230376
0.230342
0.230336
0.230314
0.230321
0.230309
0.230332
0.230329
0.230372
0.230377
0.230439
0.230459
0.230542
0.230575
0.230692
0.230727
0.230932
0.231033
0.237078
5.71871
463.433
0.759799
0.634033
0.542212
0.476074
0.428169
0.39288
0.36626
0.345748
0.329571
0.316606
0.306002
0.297242
0.289868
0.283634
0.278261
0.273639
0.269578
0.266038
0.262876
0.260094
0.257571
0.255337
0.253284
0.251458
0.249759
0.248245
0.246821
0.245551
0.244342
0.243267
0.242231
0.241313
0.240417
0.23963
0.238852
0.23817
0.23749
0.236901
0.236302
0.235789
0.23526
0.23481
0.234343
0.233951
0.233537
0.233191
0.232823
0.232521
0.232195
0.231923
0.231639
0.231398
0.231144
0.230929
0.230699
0.230524
0.230315
0.230152
0.229978
0.229825
0.229675
0.229547
0.229419
0.229307
0.229197
0.229106
0.229001
0.228939
0.228853
0.228805
0.228727
0.228687
0.228626
0.228598
0.228551
0.228532
0.228496
0.228488
0.228463
0.228467
0.228453
0.228472
0.228468
0.228507
0.228511
0.228569
0.228587
0.228666
0.228698
0.228811
0.228844
0.229046
0.229148
0.23534
5.77268
449.803
0.759819
0.63406
0.542132
0.475813
0.427708
0.392233
0.365451
0.344801
0.328509
0.315447
0.304763
0.295934
0.288502
0.282218
0.276802
0.272142
0.268048
0.264479
0.261292
0.258486
0.255944
0.253691
0.251621
0.24978
0.248068
0.246541
0.245105
0.243824
0.242606
0.241522
0.240477
0.239551
0.238648
0.237854
0.237069
0.236381
0.235695
0.2351
0.234497
0.233978
0.233445
0.232991
0.232519
0.232123
0.231705
0.231356
0.230984
0.230679
0.230349
0.230074
0.229787
0.229544
0.229286
0.229069
0.228836
0.228658
0.228447
0.228282
0.228105
0.22795
0.227798
0.227668
0.227537
0.227424
0.227311
0.227219
0.227111
0.227048
0.226959
0.226909
0.22683
0.226788
0.226725
0.226696
0.226646
0.226626
0.226587
0.226576
0.226549
0.22655
0.226534
0.226549
0.226543
0.226579
0.226581
0.226636
0.226651
0.226727
0.226757
0.226866
0.226896
0.227095
0.227199
0.233525
5.79985
435.25
0.75984
0.634087
0.542051
0.475547
0.427238
0.39157
0.364621
0.343828
0.327417
0.314255
0.303486
0.294586
0.287094
0.280757
0.275297
0.270598
0.26647
0.262871
0.259657
0.256828
0.254264
0.251992
0.249905
0.248048
0.246322
0.244782
0.243334
0.242042
0.240813
0.23972
0.238666
0.237732
0.236822
0.23602
0.235228
0.234535
0.233842
0.233242
0.232632
0.232109
0.231571
0.231112
0.230636
0.230236
0.229814
0.229461
0.229085
0.228776
0.228443
0.228165
0.227874
0.227628
0.227368
0.227149
0.226912
0.226732
0.226518
0.226351
0.226172
0.226015
0.22586
0.225728
0.225594
0.22548
0.225364
0.22527
0.225159
0.225094
0.225003
0.224951
0.22487
0.224827
0.224762
0.224731
0.224679
0.224657
0.224616
0.224603
0.224574
0.224571
0.224552
0.224564
0.224556
0.224588
0.224588
0.22464
0.224652
0.224725
0.224752
0.224858
0.224886
0.225082
0.225186
0.231634
5.79718
419.785
0.75986
0.634116
0.541971
0.475279
0.42676
0.390894
0.363771
0.342831
0.326296
0.31303
0.302175
0.2932
0.285645
0.279255
0.273748
0.269008
0.264845
0.261215
0.257973