/*--------------------------------*- C++ -*----------------------------------*\
| =========                 |                                                 |
| \\      /  F ield         | OpenFOAM: The Open Source CFD Toolbox           |
|  \\    /   O peration     | Version:  v2012                                 |
|   \\  /    A nd           | Website:  www.openfoam.com                      |
|    \\/     M anipulation  |                                                 |
\*---------------------------------------------------------------------------*/
FoamFile
{
    version     2.0;
    format      ascii;
    class       volScalarField;
    location    "50.5";
    object      nut;
}
// * * * * * * * * * * * * * * * * * * * * * * * * * * * * * * * * * * * * * //

dimensions      [0 2 -1 0 0 0 0];


internalField   nonuniform List<scalar> 
209825
(
1.24269e-07
1.23668e-07
1.2153e-07
1.17246e-07
1.11411e-07
1.04949e-07
9.85147e-08
9.24944e-08
8.70165e-08
8.21313e-08
7.77852e-08
7.3952e-08
7.05445e-08
6.75375e-08
6.48489e-08
6.24664e-08
6.03177e-08
5.84051e-08
5.66643e-08
5.51092e-08
5.36803e-08
5.24e-08
5.1213e-08
5.01475e-08
4.91498e-08
4.82538e-08
4.74064e-08
4.6647e-08
4.59205e-08
4.52709e-08
4.46434e-08
4.40848e-08
4.35383e-08
4.30543e-08
4.25752e-08
4.2154e-08
4.17314e-08
4.13633e-08
4.09889e-08
4.06661e-08
4.03326e-08
4.00483e-08
3.97496e-08
3.94976e-08
3.92293e-08
3.90065e-08
3.87642e-08
3.85659e-08
3.83467e-08
3.81711e-08
3.79705e-08
3.78145e-08
3.76322e-08
3.74938e-08
3.73273e-08
3.7201e-08
3.7051e-08
3.6939e-08
3.67992e-08
3.6702e-08
3.65719e-08
3.6483e-08
3.6364e-08
3.62837e-08
3.61742e-08
3.61011e-08
3.60023e-08
3.59315e-08
3.58409e-08
3.57769e-08
3.56949e-08
3.56368e-08
3.55625e-08
3.55091e-08
3.54358e-08
3.53824e-08
3.53105e-08
3.5256e-08
3.51867e-08
3.51325e-08
3.50654e-08
3.50127e-08
3.49471e-08
3.48958e-08
3.48323e-08
3.47818e-08
3.47205e-08
3.4671e-08
3.46106e-08
3.4563e-08
3.45028e-08
3.44495e-08
3.43843e-08
3.46863e-08
3.27853e-06
2.53862e-08
1.24269e-07
1.23668e-07
1.2153e-07
1.17247e-07
1.11413e-07
1.04951e-07
9.85169e-08
9.24968e-08
8.70189e-08
8.21337e-08
7.77876e-08
7.39543e-08
7.05467e-08
6.75396e-08
6.48508e-08
6.24682e-08
6.03194e-08
5.84067e-08
5.66658e-08
5.51105e-08
5.36816e-08
5.24012e-08
5.12141e-08
5.01486e-08
4.91508e-08
4.82547e-08
4.74072e-08
4.66478e-08
4.59213e-08
4.52716e-08
4.4644e-08
4.40854e-08
4.35389e-08
4.30548e-08
4.25757e-08
4.21545e-08
4.17319e-08
4.13637e-08
4.09893e-08
4.06664e-08
4.03329e-08
4.00486e-08
3.97499e-08
3.94978e-08
3.92295e-08
3.90067e-08
3.87644e-08
3.8566e-08
3.83468e-08
3.81713e-08
3.79706e-08
3.78146e-08
3.76323e-08
3.74938e-08
3.73274e-08
3.72011e-08
3.7051e-08
3.69391e-08
3.67992e-08
3.6702e-08
3.65719e-08
3.6483e-08
3.6364e-08
3.62837e-08
3.61741e-08
3.6101e-08
3.60023e-08
3.59314e-08
3.58409e-08
3.57768e-08
3.56948e-08
3.56367e-08
3.55624e-08
3.55089e-08
3.54356e-08
3.53823e-08
3.53103e-08
3.52559e-08
3.51866e-08
3.51324e-08
3.50652e-08
3.50126e-08
3.49469e-08
3.48957e-08
3.48322e-08
3.47816e-08
3.47203e-08
3.46708e-08
3.46104e-08
3.45628e-08
3.45026e-08
3.44493e-08
3.43841e-08
3.46863e-08
3.27852e-06
2.55751e-08
1.24269e-07
1.23667e-07
1.21532e-07
1.17251e-07
1.11419e-07
1.0496e-07
9.85263e-08
9.25067e-08
8.70289e-08
8.21435e-08
7.7797e-08
7.39632e-08
7.05551e-08
6.75475e-08
6.48583e-08
6.24751e-08
6.03259e-08
5.84128e-08
5.66714e-08
5.51158e-08
5.36865e-08
5.24058e-08
5.12184e-08
5.01525e-08
4.91545e-08
4.82582e-08
4.74104e-08
4.66508e-08
4.59241e-08
4.52742e-08
4.46464e-08
4.40876e-08
4.3541e-08
4.30568e-08
4.25775e-08
4.21562e-08
4.17334e-08
4.13651e-08
4.09906e-08
4.06676e-08
4.0334e-08
4.00496e-08
3.97508e-08
3.94987e-08
3.92303e-08
3.90075e-08
3.8765e-08
3.85666e-08
3.83473e-08
3.81717e-08
3.7971e-08
3.78149e-08
3.76326e-08
3.74941e-08
3.73275e-08
3.72012e-08
3.70511e-08
3.69391e-08
3.67992e-08
3.67019e-08
3.65718e-08
3.64829e-08
3.63638e-08
3.62835e-08
3.61739e-08
3.61007e-08
3.6002e-08
3.59311e-08
3.58405e-08
3.57764e-08
3.56944e-08
3.56363e-08
3.55619e-08
3.55085e-08
3.54351e-08
3.53818e-08
3.53098e-08
3.52554e-08
3.5186e-08
3.51318e-08
3.50646e-08
3.50119e-08
3.49463e-08
3.4895e-08
3.48315e-08
3.47809e-08
3.47196e-08
3.46701e-08
3.46097e-08
3.45621e-08
3.45019e-08
3.44485e-08
3.43833e-08
3.46861e-08
3.27763e-06
2.58265e-08
1.24268e-07
1.23667e-07
1.21534e-07
1.17258e-07
1.1143e-07
1.04974e-07
9.85423e-08
9.25234e-08
8.70457e-08
8.216e-08
7.78128e-08
7.39783e-08
7.05693e-08
6.75609e-08
6.48708e-08
6.24868e-08
6.03368e-08
5.84229e-08
5.66809e-08
5.51246e-08
5.36947e-08
5.24135e-08
5.12255e-08
5.01592e-08
4.91607e-08
4.8264e-08
4.74158e-08
4.66558e-08
4.59287e-08
4.52786e-08
4.46505e-08
4.40914e-08
4.35445e-08
4.306e-08
4.25805e-08
4.2159e-08
4.1736e-08
4.13675e-08
4.09929e-08
4.06697e-08
4.03359e-08
4.00514e-08
3.97524e-08
3.95002e-08
3.92316e-08
3.90087e-08
3.87661e-08
3.85676e-08
3.83482e-08
3.81725e-08
3.79716e-08
3.78155e-08
3.7633e-08
3.74944e-08
3.73278e-08
3.72014e-08
3.70512e-08
3.69392e-08
3.67992e-08
3.67018e-08
3.65716e-08
3.64827e-08
3.63636e-08
3.62832e-08
3.61735e-08
3.61003e-08
3.60015e-08
3.59306e-08
3.58399e-08
3.57758e-08
3.56938e-08
3.56356e-08
3.55612e-08
3.55077e-08
3.54344e-08
3.5381e-08
3.5309e-08
3.52545e-08
3.51851e-08
3.51309e-08
3.50637e-08
3.5011e-08
3.49453e-08
3.4894e-08
3.48304e-08
3.47798e-08
3.47185e-08
3.46689e-08
3.46085e-08
3.45609e-08
3.45006e-08
3.44472e-08
3.4382e-08
3.46856e-08
3.27605e-06
2.61134e-08
1.24268e-07
1.23667e-07
1.21538e-07
1.17268e-07
1.11446e-07
1.04994e-07
9.85648e-08
9.25471e-08
8.70695e-08
8.21833e-08
7.78352e-08
7.39996e-08
7.05895e-08
6.75798e-08
6.48885e-08
6.25034e-08
6.03522e-08
5.84373e-08
5.66943e-08
5.51371e-08
5.37063e-08
5.24243e-08
5.12356e-08
5.01686e-08
4.91695e-08
4.82722e-08
4.74235e-08
4.66629e-08
4.59354e-08
4.52848e-08
4.46563e-08
4.40968e-08
4.35495e-08
4.30647e-08
4.25849e-08
4.2163e-08
4.17398e-08
4.1371e-08
4.09961e-08
4.06727e-08
4.03386e-08
4.00539e-08
3.97547e-08
3.95023e-08
3.92335e-08
3.90104e-08
3.87677e-08
3.8569e-08
3.83494e-08
3.81736e-08
3.79726e-08
3.78163e-08
3.76338e-08
3.7495e-08
3.73283e-08
3.72018e-08
3.70515e-08
3.69393e-08
3.67992e-08
3.67018e-08
3.65715e-08
3.64825e-08
3.63633e-08
3.62828e-08
3.61731e-08
3.60998e-08
3.60009e-08
3.59299e-08
3.58392e-08
3.5775e-08
3.56929e-08
3.56346e-08
3.55601e-08
3.55067e-08
3.54333e-08
3.53799e-08
3.53078e-08
3.52534e-08
3.51839e-08
3.51296e-08
3.50624e-08
3.50096e-08
3.49439e-08
3.48926e-08
3.48289e-08
3.47783e-08
3.47169e-08
3.46674e-08
3.46068e-08
3.45592e-08
3.44988e-08
3.44455e-08
3.43802e-08
3.46848e-08
3.27383e-06
2.6424e-08
1.24267e-07
1.23666e-07
1.21542e-07
1.1728e-07
1.11466e-07
1.05019e-07
9.8594e-08
9.25777e-08
8.71004e-08
8.22135e-08
7.78643e-08
7.40272e-08
7.06156e-08
6.76043e-08
6.49115e-08
6.25249e-08
6.03723e-08
5.8456e-08
5.67118e-08
5.51534e-08
5.37215e-08
5.24384e-08
5.12488e-08
5.01809e-08
4.9181e-08
4.82829e-08
4.74334e-08
4.66722e-08
4.59441e-08
4.52929e-08
4.46638e-08
4.41038e-08
4.35561e-08
4.30708e-08
4.25906e-08
4.21683e-08
4.17447e-08
4.13756e-08
4.10003e-08
4.06766e-08
4.03422e-08
4.00572e-08
3.97577e-08
3.95051e-08
3.9236e-08
3.90127e-08
3.87698e-08
3.85709e-08
3.83511e-08
3.81751e-08
3.79739e-08
3.78175e-08
3.76347e-08
3.74958e-08
3.7329e-08
3.72023e-08
3.70518e-08
3.69396e-08
3.67993e-08
3.67018e-08
3.65713e-08
3.64822e-08
3.63629e-08
3.62824e-08
3.61725e-08
3.60991e-08
3.60001e-08
3.59291e-08
3.58383e-08
3.5774e-08
3.56918e-08
3.56335e-08
3.55588e-08
3.55054e-08
3.5432e-08
3.53785e-08
3.53064e-08
3.52519e-08
3.51823e-08
3.5128e-08
3.50607e-08
3.50079e-08
3.49421e-08
3.48908e-08
3.4827e-08
3.47764e-08
3.47149e-08
3.46653e-08
3.46047e-08
3.4557e-08
3.44966e-08
3.44433e-08
3.4378e-08
3.4684e-08
3.27101e-06
2.67539e-08
1.24266e-07
1.23665e-07
1.21548e-07
1.17296e-07
1.11491e-07
1.05051e-07
9.863e-08
9.26156e-08
8.71385e-08
8.22508e-08
7.79003e-08
7.40614e-08
7.06479e-08
6.76346e-08
6.49399e-08
6.25514e-08
6.03971e-08
5.84792e-08
5.67334e-08
5.51735e-08
5.37403e-08
5.24559e-08
5.12651e-08
5.01961e-08
4.91952e-08
4.82961e-08
4.74458e-08
4.66838e-08
4.59548e-08
4.53029e-08
4.46732e-08
4.41126e-08
4.35642e-08
4.30784e-08
4.25976e-08
4.21749e-08
4.17508e-08
4.13812e-08
4.10055e-08
4.06814e-08
4.03467e-08
4.00613e-08
3.97615e-08
3.95086e-08
3.92392e-08
3.90156e-08
3.87724e-08
3.85732e-08
3.83532e-08
3.81769e-08
3.79755e-08
3.78189e-08
3.76359e-08
3.74969e-08
3.73298e-08
3.7203e-08
3.70523e-08
3.69399e-08
3.67994e-08
3.67018e-08
3.65712e-08
3.64819e-08
3.63625e-08
3.62818e-08
3.61718e-08
3.60983e-08
3.59992e-08
3.59281e-08
3.58372e-08
3.57728e-08
3.56905e-08
3.56321e-08
3.55573e-08
3.55039e-08
3.54303e-08
3.53769e-08
3.53046e-08
3.52502e-08
3.51804e-08
3.51261e-08
3.50587e-08
3.50059e-08
3.494e-08
3.48886e-08
3.48247e-08
3.47741e-08
3.47124e-08
3.46629e-08
3.46021e-08
3.45544e-08
3.44939e-08
3.44406e-08
3.43752e-08
3.46829e-08
3.26766e-06
2.71031e-08
1.24265e-07
1.23664e-07
1.21555e-07
1.17314e-07
1.11521e-07
1.05089e-07
9.86729e-08
9.26607e-08
8.7184e-08
8.22953e-08
7.79432e-08
7.41023e-08
7.06865e-08
6.76709e-08
6.49739e-08
6.25832e-08
6.04268e-08
5.85069e-08
5.67592e-08
5.51976e-08
5.37628e-08
5.24769e-08
5.12847e-08
5.02143e-08
4.92122e-08
4.8312e-08
4.74606e-08
4.66976e-08
4.59677e-08
4.53149e-08
4.46844e-08
4.4123e-08
4.3574e-08
4.30875e-08
4.26061e-08
4.21828e-08
4.17581e-08
4.1388e-08
4.10118e-08
4.06873e-08
4.03521e-08
4.00663e-08
3.97661e-08
3.95128e-08
3.9243e-08
3.90191e-08
3.87755e-08
3.85761e-08
3.83558e-08
3.81792e-08
3.79776e-08
3.78207e-08
3.76374e-08
3.74982e-08
3.73309e-08
3.72038e-08
3.70529e-08
3.69403e-08
3.67997e-08
3.67018e-08
3.65711e-08
3.64817e-08
3.6362e-08
3.62812e-08
3.61711e-08
3.60974e-08
3.59982e-08
3.5927e-08
3.58359e-08
3.57715e-08
3.56889e-08
3.56305e-08
3.55555e-08
3.55021e-08
3.54284e-08
3.53749e-08
3.53026e-08
3.52482e-08
3.51782e-08
3.51239e-08
3.50563e-08
3.50035e-08
3.49374e-08
3.4886e-08
3.4822e-08
3.47713e-08
3.47095e-08
3.466e-08
3.4599e-08
3.45514e-08
3.44906e-08
3.44374e-08
3.43719e-08
3.46818e-08
3.26384e-06
2.74746e-08
1.24263e-07
1.23663e-07
1.21562e-07
1.17335e-07
1.11555e-07
1.05133e-07
9.87229e-08
9.27133e-08
8.7237e-08
8.23473e-08
7.79932e-08
7.41499e-08
7.07316e-08
6.77133e-08
6.50136e-08
6.26203e-08
6.04615e-08
5.85393e-08
5.67894e-08
5.52258e-08
5.3789e-08
5.25014e-08
5.13076e-08
5.02357e-08
4.92321e-08
4.83306e-08
4.7478e-08
4.67138e-08
4.59829e-08
4.53291e-08
4.46976e-08
4.41353e-08
4.35854e-08
4.30982e-08
4.2616e-08
4.2192e-08
4.17667e-08
4.1396e-08
4.10192e-08
4.06941e-08
4.03584e-08
4.00722e-08
3.97715e-08
3.95177e-08
3.92476e-08
3.90233e-08
3.87793e-08
3.85795e-08
3.83588e-08
3.8182e-08
3.798e-08
3.78228e-08
3.76392e-08
3.74997e-08
3.73321e-08
3.72049e-08
3.70537e-08
3.69409e-08
3.68e-08
3.6702e-08
3.6571e-08
3.64814e-08
3.63615e-08
3.62806e-08
3.61703e-08
3.60965e-08
3.59971e-08
3.59257e-08
3.58344e-08
3.57699e-08
3.56872e-08
3.56286e-08
3.55535e-08
3.55e-08
3.54263e-08
3.53727e-08
3.53002e-08
3.52458e-08
3.51757e-08
3.51213e-08
3.50536e-08
3.50007e-08
3.49345e-08
3.4883e-08
3.48189e-08
3.47682e-08
3.47062e-08
3.46566e-08
3.45955e-08
3.45478e-08
3.44869e-08
3.44338e-08
3.43681e-08
3.46805e-08
3.25961e-06
2.78739e-08
1.24262e-07
1.23662e-07
1.21571e-07
1.17359e-07
1.11594e-07
1.05184e-07
9.878e-08
9.27734e-08
8.72976e-08
8.24068e-08
7.80506e-08
7.42045e-08
7.07832e-08
6.77619e-08
6.50592e-08
6.2663e-08
6.05014e-08
5.85764e-08
5.68241e-08
5.52582e-08
5.38193e-08
5.25296e-08
5.13339e-08
5.02602e-08
4.9255e-08
4.8352e-08
4.74979e-08
4.67324e-08
4.60003e-08
4.53453e-08
4.47128e-08
4.41495e-08
4.35986e-08
4.31105e-08
4.26275e-08
4.22027e-08
4.17766e-08
4.14053e-08
4.10278e-08
4.07021e-08
4.03658e-08
4.0079e-08
3.97777e-08
3.95235e-08
3.92528e-08
3.90281e-08
3.87836e-08
3.85835e-08
3.83623e-08
3.81852e-08
3.79828e-08
3.78253e-08
3.76414e-08
3.75015e-08
3.73336e-08
3.72061e-08
3.70546e-08
3.69416e-08
3.68004e-08
3.67022e-08
3.65709e-08
3.64811e-08
3.6361e-08
3.62799e-08
3.61694e-08
3.60954e-08
3.59958e-08
3.59243e-08
3.58328e-08
3.57681e-08
3.56852e-08
3.56265e-08
3.55512e-08
3.54976e-08
3.54238e-08
3.53703e-08
3.52975e-08
3.52432e-08
3.51728e-08
3.51184e-08
3.50506e-08
3.49976e-08
3.49312e-08
3.48797e-08
3.48154e-08
3.47646e-08
3.47024e-08
3.46529e-08
3.45915e-08
3.45438e-08
3.44827e-08
3.44296e-08
3.43639e-08
3.46791e-08
3.25503e-06
2.83083e-08
1.2426e-07
1.23661e-07
1.2158e-07
1.17386e-07
1.11639e-07
1.0524e-07
9.88443e-08
9.28413e-08
8.73661e-08
8.24739e-08
7.81154e-08
7.42663e-08
7.08417e-08
6.78168e-08
6.51108e-08
6.27112e-08
6.05465e-08
5.86185e-08
5.68634e-08
5.52948e-08
5.38535e-08
5.25615e-08
5.13637e-08
5.0288e-08
4.9281e-08
4.83762e-08
4.75206e-08
4.67536e-08
4.602e-08
4.53638e-08
4.473e-08
4.41656e-08
4.36136e-08
4.31245e-08
4.26405e-08
4.22149e-08
4.17879e-08
4.14158e-08
4.10375e-08
4.07111e-08
4.03741e-08
4.00867e-08
3.97848e-08
3.95301e-08
3.92588e-08
3.90336e-08
3.87886e-08
3.8588e-08
3.83664e-08
3.81888e-08
3.7986e-08
3.78281e-08
3.76438e-08
3.75037e-08
3.73354e-08
3.72076e-08
3.70557e-08
3.69425e-08
3.68009e-08
3.67024e-08
3.65709e-08
3.64809e-08
3.63606e-08
3.62792e-08
3.61684e-08
3.60942e-08
3.59944e-08
3.59227e-08
3.58311e-08
3.57662e-08
3.56831e-08
3.56242e-08
3.55486e-08
3.5495e-08
3.54211e-08
3.53675e-08
3.52946e-08
3.52403e-08
3.51696e-08
3.51152e-08
3.50471e-08
3.49941e-08
3.49276e-08
3.48759e-08
3.48114e-08
3.47606e-08
3.46982e-08
3.46486e-08
3.45871e-08
3.45393e-08
3.4478e-08
3.44249e-08
3.43591e-08
3.46777e-08
3.25016e-06
2.87865e-08
1.24258e-07
1.23659e-07
1.21591e-07
1.17416e-07
1.11688e-07
1.05304e-07
9.8916e-08
9.29169e-08
8.74426e-08
8.2549e-08
7.81878e-08
7.43353e-08
7.0907e-08
6.78784e-08
6.51685e-08
6.27652e-08
6.0597e-08
5.86657e-08
5.69075e-08
5.53359e-08
5.38919e-08
5.25973e-08
5.13971e-08
5.03193e-08
4.93102e-08
4.84035e-08
4.75461e-08
4.67774e-08
4.60422e-08
4.53845e-08
4.47494e-08
4.41837e-08
4.36305e-08
4.31403e-08
4.26552e-08
4.22286e-08
4.18007e-08
4.14276e-08
4.10485e-08
4.07213e-08
4.03836e-08
4.00955e-08
3.97929e-08
3.95375e-08
3.92656e-08
3.90398e-08
3.87943e-08
3.85932e-08
3.8371e-08
3.8193e-08
3.79897e-08
3.78314e-08
3.76467e-08
3.75061e-08
3.73375e-08
3.72093e-08
3.7057e-08
3.69435e-08
3.68016e-08
3.67028e-08
3.6571e-08
3.64807e-08
3.63601e-08
3.62785e-08
3.61674e-08
3.6093e-08
3.5993e-08
3.59211e-08
3.58292e-08
3.57641e-08
3.56808e-08
3.56218e-08
3.55459e-08
3.54922e-08
3.54182e-08
3.53645e-08
3.52914e-08
3.5237e-08
3.51661e-08
3.51117e-08
3.50434e-08
3.49902e-08
3.49235e-08
3.48718e-08
3.48071e-08
3.47562e-08
3.46936e-08
3.4644e-08
3.45821e-08
3.45344e-08
3.44728e-08
3.44198e-08
3.43538e-08
3.46762e-08
3.24503e-06
2.93182e-08
1.24256e-07
1.23657e-07
1.21603e-07
1.17449e-07
1.11741e-07
1.05373e-07
9.89952e-08
9.30005e-08
8.75271e-08
8.26321e-08
7.82681e-08
7.44119e-08
7.09795e-08
6.79466e-08
6.52326e-08
6.28252e-08
6.06531e-08
5.87181e-08
5.69565e-08
5.53816e-08
5.39345e-08
5.26372e-08
5.14343e-08
5.0354e-08
4.93426e-08
4.84338e-08
4.75744e-08
4.68038e-08
4.6067e-08
4.54076e-08
4.4771e-08
4.42038e-08
4.36493e-08
4.31578e-08
4.26716e-08
4.22439e-08
4.18149e-08
4.14409e-08
4.10608e-08
4.07328e-08
4.03941e-08
4.01053e-08
3.98019e-08
3.95458e-08
3.92732e-08
3.90468e-08
3.88007e-08
3.8599e-08
3.83763e-08
3.81978e-08
3.79939e-08
3.78352e-08
3.76499e-08
3.7509e-08
3.73399e-08
3.72113e-08
3.70586e-08
3.69448e-08
3.68024e-08
3.67033e-08
3.65712e-08
3.64806e-08
3.63596e-08
3.62778e-08
3.61664e-08
3.60917e-08
3.59914e-08
3.59194e-08
3.58272e-08
3.57619e-08
3.56783e-08
3.56191e-08
3.55429e-08
3.54892e-08
3.5415e-08
3.53612e-08
3.52879e-08
3.52335e-08
3.51623e-08
3.51078e-08
3.50393e-08
3.4986e-08
3.49191e-08
3.48673e-08
3.48024e-08
3.47514e-08
3.46885e-08
3.46389e-08
3.45768e-08
3.4529e-08
3.44671e-08
3.44142e-08
3.4348e-08
3.46746e-08
3.23966e-06
2.99135e-08
1.24254e-07
1.23655e-07
1.21615e-07
1.17485e-07
1.118e-07
1.05449e-07
9.90819e-08
9.30923e-08
8.762e-08
8.27234e-08
7.83563e-08
7.44961e-08
7.10593e-08
6.80217e-08
6.53032e-08
6.28913e-08
6.0715e-08
5.87759e-08
5.70104e-08
5.5432e-08
5.39816e-08
5.26811e-08
5.14754e-08
5.03923e-08
4.93785e-08
4.84673e-08
4.76057e-08
4.68331e-08
4.60943e-08
4.54332e-08
4.47948e-08
4.42262e-08
4.36702e-08
4.31773e-08
4.26898e-08
4.22608e-08
4.18307e-08
4.14556e-08
4.10745e-08
4.07455e-08
4.04059e-08
4.01162e-08
3.9812e-08
3.95551e-08
3.92818e-08
3.90547e-08
3.88078e-08
3.86056e-08
3.83821e-08
3.82031e-08
3.79986e-08
3.78394e-08
3.76536e-08
3.75122e-08
3.73426e-08
3.72137e-08
3.70604e-08
3.69463e-08
3.68034e-08
3.6704e-08
3.65715e-08
3.64806e-08
3.63592e-08
3.62771e-08
3.61654e-08
3.60904e-08
3.59898e-08
3.59175e-08
3.5825e-08
3.57596e-08
3.56756e-08
3.56162e-08
3.55398e-08
3.54859e-08
3.54115e-08
3.53577e-08
3.52841e-08
3.52298e-08
3.51582e-08
3.51037e-08
3.50349e-08
3.49815e-08
3.49144e-08
3.48624e-08
3.47972e-08
3.47462e-08
3.4683e-08
3.46334e-08
3.45709e-08
3.45231e-08
3.44609e-08
3.4408e-08
3.43418e-08
3.46731e-08
3.23404e-06
3.05832e-08
1.24252e-07
1.23653e-07
1.21629e-07
1.17524e-07
1.11864e-07
1.05532e-07
9.91763e-08
9.31922e-08
8.77213e-08
8.28231e-08
7.84527e-08
7.45881e-08
7.11466e-08
6.81039e-08
6.53804e-08
6.29636e-08
6.07827e-08
5.88392e-08
5.70696e-08
5.54873e-08
5.40333e-08
5.27293e-08
5.15204e-08
5.04344e-08
4.94178e-08
4.8504e-08
4.76401e-08
4.68652e-08
4.61244e-08
4.54613e-08
4.48211e-08
4.42507e-08
4.36931e-08
4.31988e-08
4.27098e-08
4.22795e-08
4.18481e-08
4.14718e-08
4.10896e-08
4.07595e-08
4.04189e-08
4.01282e-08
3.98231e-08
3.95654e-08
3.92912e-08
3.90634e-08
3.88157e-08
3.86128e-08
3.83887e-08
3.82091e-08
3.80039e-08
3.78442e-08
3.76577e-08
3.75158e-08
3.73457e-08
3.72163e-08
3.70625e-08
3.6948e-08
3.68047e-08
3.67049e-08
3.65719e-08
3.64807e-08
3.63589e-08
3.62764e-08
3.61644e-08
3.60891e-08
3.59882e-08
3.59157e-08
3.58228e-08
3.57571e-08
3.56728e-08
3.56132e-08
3.55365e-08
3.54824e-08
3.54079e-08
3.53539e-08
3.52801e-08
3.52257e-08
3.51538e-08
3.50993e-08
3.50301e-08
3.49767e-08
3.49093e-08
3.48572e-08
3.47917e-08
3.47407e-08
3.46771e-08
3.46274e-08
3.45647e-08
3.45168e-08
3.44543e-08
3.44014e-08
3.4335e-08
3.46715e-08
3.22814e-06
3.13383e-08
1.24249e-07
1.2365e-07
1.21643e-07
1.17566e-07
1.11933e-07
1.05621e-07
9.92784e-08
9.33005e-08
8.78311e-08
8.29313e-08
7.85575e-08
7.46882e-08
7.12415e-08
6.81934e-08
6.54645e-08
6.30425e-08
6.08565e-08
5.89082e-08
5.71341e-08
5.55475e-08
5.40896e-08
5.27819e-08
5.15696e-08
5.04804e-08
4.94608e-08
4.85442e-08
4.76777e-08
4.69004e-08
4.61573e-08
4.54921e-08
4.48499e-08
4.42776e-08
4.37183e-08
4.32223e-08
4.27317e-08
4.23e-08
4.18672e-08
4.14897e-08
4.11061e-08
4.07749e-08
4.04332e-08
4.01415e-08
3.98354e-08
3.95768e-08
3.93016e-08
3.9073e-08
3.88245e-08
3.86209e-08
3.83959e-08
3.82157e-08
3.80098e-08
3.78495e-08
3.76624e-08
3.75199e-08
3.73492e-08
3.72194e-08
3.7065e-08
3.695e-08
3.68061e-08
3.67059e-08
3.65725e-08
3.64809e-08
3.63587e-08
3.62759e-08
3.61635e-08
3.60878e-08
3.59865e-08
3.59138e-08
3.58205e-08
3.57546e-08
3.56699e-08
3.56101e-08
3.5533e-08
3.54788e-08
3.5404e-08
3.535e-08
3.52758e-08
3.52215e-08
3.51492e-08
3.50946e-08
3.50251e-08
3.49716e-08
3.49038e-08
3.48517e-08
3.47859e-08
3.47347e-08
3.46708e-08
3.46211e-08
3.45579e-08
3.451e-08
3.44471e-08
3.43944e-08
3.43278e-08
3.46699e-08
3.22184e-06
3.21897e-08
1.24246e-07
1.23648e-07
1.21658e-07
1.1761e-07
1.12007e-07
1.05717e-07
9.93884e-08
9.34173e-08
8.79497e-08
8.30482e-08
7.86707e-08
7.47965e-08
7.13442e-08
6.82903e-08
6.55557e-08
6.31279e-08
6.09366e-08
5.8983e-08
5.72042e-08
5.5613e-08
5.41508e-08
5.28391e-08
5.16231e-08
5.05304e-08
4.95076e-08
4.8588e-08
4.77186e-08
4.69387e-08
4.61931e-08
4.55256e-08
4.48812e-08
4.43069e-08
4.37457e-08
4.32479e-08
4.27557e-08
4.23224e-08
4.18881e-08
4.15091e-08
4.11243e-08
4.07918e-08
4.04488e-08
4.01561e-08
3.98488e-08
3.95893e-08
3.93131e-08
3.90836e-08
3.88342e-08
3.86298e-08
3.8404e-08
3.8223e-08
3.80164e-08
3.78554e-08
3.76676e-08
3.75246e-08
3.73532e-08
3.72228e-08
3.70678e-08
3.69524e-08
3.68079e-08
3.67073e-08
3.65733e-08
3.64813e-08
3.63587e-08
3.62755e-08
3.61626e-08
3.60866e-08
3.59849e-08
3.59119e-08
3.58182e-08
3.5752e-08
3.56669e-08
3.56069e-08
3.55293e-08
3.5475e-08
3.53999e-08
3.53458e-08
3.52713e-08
3.5217e-08
3.51443e-08
3.50897e-08
3.50198e-08
3.49661e-08
3.48981e-08
3.48458e-08
3.47797e-08
3.47284e-08
3.46641e-08
3.46144e-08
3.45508e-08
3.45028e-08
3.44395e-08
3.43869e-08
3.43201e-08
3.46683e-08
3.21503e-06
3.31487e-08
1.24243e-07
1.23645e-07
1.21674e-07
1.17658e-07
1.12086e-07
1.0582e-07
9.95064e-08
9.35428e-08
8.80773e-08
8.31741e-08
7.87927e-08
7.49132e-08
7.14551e-08
6.83949e-08
6.56541e-08
6.32202e-08
6.10231e-08
5.9064e-08
5.72799e-08
5.56837e-08
5.4217e-08
5.2901e-08
5.1681e-08
5.05845e-08
4.95582e-08
4.86353e-08
4.77629e-08
4.69802e-08
4.6232e-08
4.5562e-08
4.49153e-08
4.43388e-08
4.37755e-08
4.32758e-08
4.27817e-08
4.23467e-08
4.19108e-08
4.15304e-08
4.1144e-08
4.08103e-08
4.0466e-08
4.0172e-08
3.98636e-08
3.9603e-08
3.93257e-08
3.90953e-08
3.88448e-08
3.86396e-08
3.84129e-08
3.82312e-08
3.80237e-08
3.7862e-08
3.76734e-08
3.75297e-08
3.73577e-08
3.72267e-08
3.7071e-08
3.69551e-08
3.681e-08
3.67089e-08
3.65744e-08
3.6482e-08
3.63588e-08
3.62752e-08
3.61619e-08
3.60854e-08
3.59834e-08
3.591e-08
3.58159e-08
3.57494e-08
3.56639e-08
3.56036e-08
3.55256e-08
3.5471e-08
3.53957e-08
3.53415e-08
3.52667e-08
3.52123e-08
3.51392e-08
3.50845e-08
3.50142e-08
3.49605e-08
3.48921e-08
3.48397e-08
3.47731e-08
3.47218e-08
3.46571e-08
3.46073e-08
3.45433e-08
3.44953e-08
3.44315e-08
3.4379e-08
3.4312e-08
3.46667e-08
3.20749e-06
3.4226e-08
1.2424e-07
1.23641e-07
1.21691e-07
1.17708e-07
1.12169e-07
1.0593e-07
9.96324e-08
9.3677e-08
8.82139e-08
8.3309e-08
7.89237e-08
7.50385e-08
7.15742e-08
6.85074e-08
6.576e-08
6.33196e-08
6.11162e-08
5.91511e-08
5.73615e-08
5.576e-08
5.42884e-08
5.29678e-08
5.17435e-08
5.0643e-08
4.96129e-08
4.86865e-08
4.78109e-08
4.70251e-08
4.6274e-08
4.56013e-08
4.49521e-08
4.43733e-08
4.38078e-08
4.3306e-08
4.281e-08
4.23732e-08
4.19355e-08
4.15534e-08
4.11655e-08
4.08303e-08
4.04846e-08
4.01894e-08
3.98797e-08
3.96179e-08
3.93395e-08
3.9108e-08
3.88565e-08
3.86504e-08
3.84226e-08
3.82401e-08
3.80318e-08
3.78693e-08
3.76799e-08
3.75355e-08
3.73628e-08
3.72312e-08
3.70747e-08
3.69583e-08
3.68125e-08
3.67108e-08
3.65758e-08
3.64829e-08
3.63591e-08
3.62751e-08
3.61613e-08
3.60844e-08
3.59819e-08
3.59082e-08
3.58137e-08
3.57468e-08
3.56608e-08
3.56002e-08
3.55218e-08
3.5467e-08
3.53914e-08
3.5337e-08
3.52619e-08
3.52074e-08
3.51339e-08
3.50792e-08
3.50084e-08
3.49546e-08
3.48858e-08
3.48332e-08
3.47663e-08
3.47149e-08
3.46497e-08
3.45999e-08
3.45354e-08
3.44873e-08
3.44231e-08
3.43706e-08
3.43034e-08
3.46652e-08
3.19897e-06
3.54324e-08
1.24237e-07
1.23638e-07
1.21708e-07
1.17761e-07
1.12258e-07
1.06046e-07
9.97665e-08
9.38201e-08
8.83597e-08
8.34533e-08
7.90637e-08
7.51727e-08
7.17018e-08
6.86279e-08
6.58735e-08
6.34262e-08
6.12162e-08
5.92448e-08
5.74492e-08
5.58421e-08
5.43652e-08
5.30396e-08
5.18107e-08
5.07059e-08
4.96718e-08
4.87417e-08
4.78625e-08
4.70734e-08
4.63193e-08
4.56438e-08
4.49919e-08
4.44106e-08
4.38427e-08
4.33387e-08
4.28406e-08
4.24018e-08
4.19622e-08
4.15785e-08
4.11888e-08
4.08521e-08
4.05048e-08
4.02082e-08
3.98972e-08
3.96342e-08
3.93545e-08
3.91219e-08
3.88693e-08
3.86622e-08
3.84334e-08
3.825e-08
3.80407e-08
3.78774e-08
3.76871e-08
3.7542e-08
3.73684e-08
3.72362e-08
3.70789e-08
3.69619e-08
3.68154e-08
3.67132e-08
3.65775e-08
3.64841e-08
3.63597e-08
3.62752e-08
3.61609e-08
3.60835e-08
3.59805e-08
3.59065e-08
3.58115e-08
3.57443e-08
3.56578e-08
3.55969e-08
3.5518e-08
3.5463e-08
3.53869e-08
3.53325e-08
3.52569e-08
3.52024e-08
3.51284e-08
3.50738e-08
3.50024e-08
3.49484e-08
3.48792e-08
3.48266e-08
3.47592e-08
3.47077e-08
3.4642e-08
3.45921e-08
3.45272e-08
3.4479e-08
3.44143e-08
3.43619e-08
3.42945e-08
3.46636e-08
3.18914e-06
3.67782e-08
1.24234e-07
1.23634e-07
1.21727e-07
1.17816e-07
1.12352e-07
1.06169e-07
9.99088e-08
9.39722e-08
8.8515e-08
8.3607e-08
7.92131e-08
7.5316e-08
7.18382e-08
6.87568e-08
6.5995e-08
6.35402e-08
6.13233e-08
5.93451e-08
5.75431e-08
5.593e-08
5.44475e-08
5.31166e-08
5.18829e-08
5.07734e-08
4.97351e-08
4.8801e-08
4.79181e-08
4.71255e-08
4.63681e-08
4.56895e-08
4.50347e-08
4.44507e-08
4.38803e-08
4.3374e-08
4.28736e-08
4.24327e-08
4.19911e-08
4.16055e-08
4.12141e-08
4.08757e-08
4.05268e-08
4.02287e-08
3.99162e-08
3.96519e-08
3.93709e-08
3.91371e-08
3.88833e-08
3.86751e-08
3.84451e-08
3.82608e-08
3.80505e-08
3.78864e-08
3.76951e-08
3.75492e-08
3.73748e-08
3.72418e-08
3.70837e-08
3.69661e-08
3.68188e-08
3.6716e-08
3.65796e-08
3.64856e-08
3.63607e-08
3.62756e-08
3.61607e-08
3.60829e-08
3.59794e-08
3.5905e-08
3.58094e-08
3.57418e-08
3.56548e-08
3.55936e-08
3.55142e-08
3.54589e-08
3.53824e-08
3.53278e-08
3.52519e-08
3.51973e-08
3.51228e-08
3.50682e-08
3.49962e-08
3.49422e-08
3.48725e-08
3.48197e-08
3.47519e-08
3.47002e-08
3.46341e-08
3.45841e-08
3.45186e-08
3.44704e-08
3.44051e-08
3.43528e-08
3.42852e-08
3.46621e-08
3.17759e-06
3.82731e-08
1.2423e-07
1.2363e-07
1.21746e-07
1.17875e-07
1.12451e-07
1.06299e-07
1.00059e-07
9.41334e-08
8.86798e-08
8.37703e-08
7.93721e-08
7.54685e-08
7.19834e-08
6.88942e-08
6.61246e-08
6.3662e-08
6.14376e-08
5.94522e-08
5.76436e-08
5.6024e-08
5.45356e-08
5.31991e-08
5.19602e-08
5.08458e-08
4.9803e-08
4.88645e-08
4.79777e-08
4.71813e-08
4.64205e-08
4.57386e-08
4.50808e-08
4.44939e-08
4.39208e-08
4.34119e-08
4.29091e-08
4.2466e-08
4.20223e-08
4.16347e-08
4.12413e-08
4.09012e-08
4.05505e-08
4.02509e-08
3.99368e-08
3.96711e-08
3.93886e-08
3.91537e-08
3.88985e-08
3.86892e-08
3.8458e-08
3.82727e-08
3.80613e-08
3.78962e-08
3.77039e-08
3.75572e-08
3.73818e-08
3.72482e-08
3.70891e-08
3.69709e-08
3.68227e-08
3.67192e-08
3.65822e-08
3.64876e-08
3.6362e-08
3.62764e-08
3.61609e-08
3.60825e-08
3.59784e-08
3.59036e-08
3.58075e-08
3.57395e-08
3.56519e-08
3.55904e-08
3.55104e-08
3.54548e-08
3.53779e-08
3.53232e-08
3.52468e-08
3.51921e-08
3.51171e-08
3.50625e-08
3.499e-08
3.49358e-08
3.48656e-08
3.48126e-08
3.47444e-08
3.46926e-08
3.46259e-08
3.45758e-08
3.45098e-08
3.44614e-08
3.43956e-08
3.43434e-08
3.42756e-08
3.46605e-08
3.16387e-06
3.9926e-08
1.24227e-07
1.23626e-07
1.21765e-07
1.17935e-07
1.12554e-07
1.06436e-07
1.00218e-07
9.43038e-08
8.88543e-08
8.39435e-08
7.95408e-08
7.56306e-08
7.21379e-08
6.90404e-08
6.62626e-08
6.37918e-08
6.15595e-08
5.95665e-08
5.77508e-08
5.61244e-08
5.46297e-08
5.32872e-08
5.20428e-08
5.09232e-08
4.98755e-08
4.89326e-08
4.80415e-08
4.72412e-08
4.64766e-08
4.57913e-08
4.51302e-08
4.45402e-08
4.39642e-08
4.34527e-08
4.29473e-08
4.25019e-08
4.20558e-08
4.16662e-08
4.12707e-08
4.09287e-08
4.05762e-08
4.02749e-08
3.99591e-08
3.9692e-08
3.94079e-08
3.91716e-08
3.89151e-08
3.87046e-08
3.84721e-08
3.82857e-08
3.80731e-08
3.79071e-08
3.77137e-08
3.75661e-08
3.73898e-08
3.72553e-08
3.70952e-08
3.69763e-08
3.68272e-08
3.67231e-08
3.65853e-08
3.64901e-08
3.63637e-08
3.62776e-08
3.61614e-08
3.60825e-08
3.59778e-08
3.59026e-08
3.58058e-08
3.57374e-08
3.56492e-08
3.55873e-08
3.55068e-08
3.54509e-08
3.53734e-08
3.53185e-08
3.52418e-08
3.5187e-08
3.51114e-08
3.50568e-08
3.49836e-08
3.49293e-08
3.48586e-08
3.48055e-08
3.47367e-08
3.46847e-08
3.46175e-08
3.45674e-08
3.45007e-08
3.44523e-08
3.43858e-08
3.43338e-08
3.42657e-08
3.46589e-08
3.14745e-06
4.17447e-08
1.24223e-07
1.23621e-07
1.21786e-07
1.17999e-07
1.12662e-07
1.0658e-07
1.00386e-07
9.44837e-08
8.90387e-08
8.41268e-08
7.97195e-08
7.58024e-08
7.23018e-08
6.91957e-08
6.64092e-08
6.39297e-08
6.16892e-08
5.96881e-08
5.78649e-08
5.62314e-08
5.473e-08
5.33812e-08
5.21309e-08
5.10058e-08
4.9953e-08
4.90052e-08
4.81097e-08
4.73051e-08
4.65367e-08
4.58476e-08
4.51831e-08
4.45899e-08
4.40108e-08
4.34965e-08
4.29884e-08
4.25404e-08
4.20919e-08
4.17e-08
4.13024e-08
4.09584e-08
4.06039e-08
4.03008e-08
3.99833e-08
3.97146e-08
3.94289e-08
3.91911e-08
3.89331e-08
3.87214e-08
3.84875e-08
3.83e-08
3.80861e-08
3.79191e-08
3.77245e-08
3.75759e-08
3.73986e-08
3.72632e-08
3.71021e-08
3.69825e-08
3.68325e-08
3.67276e-08
3.6589e-08
3.64931e-08
3.6366e-08
3.62792e-08
3.61624e-08
3.60828e-08
3.59775e-08
3.59018e-08
3.58044e-08
3.57356e-08
3.56468e-08
3.55844e-08
3.55033e-08
3.54471e-08
3.5369e-08
3.53139e-08
3.52367e-08
3.51818e-08
3.51057e-08
3.5051e-08
3.49772e-08
3.49228e-08
3.48516e-08
3.47982e-08
3.47289e-08
3.46768e-08
3.46089e-08
3.45587e-08
3.44915e-08
3.44429e-08
3.43758e-08
3.43238e-08
3.42556e-08
3.46573e-08
3.12772e-06
4.37355e-08
1.24219e-07
1.23616e-07
1.21806e-07
1.18065e-07
1.12776e-07
1.06731e-07
1.00561e-07
9.46729e-08
8.92331e-08
8.43203e-08
7.99084e-08
7.59842e-08
7.24754e-08
6.93602e-08
6.65647e-08
6.40761e-08
6.18269e-08
5.98174e-08
5.79862e-08
5.63451e-08
5.48368e-08
5.34813e-08
5.22248e-08
5.10938e-08
5.00356e-08
4.90827e-08
4.81824e-08
4.73734e-08
4.66008e-08
4.59079e-08
4.52396e-08
4.4643e-08
4.40607e-08
4.35433e-08
4.30324e-08
4.25817e-08
4.21307e-08
4.17364e-08
4.13364e-08
4.09903e-08
4.06338e-08
4.03288e-08
4.00093e-08
3.97389e-08
3.94515e-08
3.92123e-08
3.89527e-08
3.87396e-08
3.85043e-08
3.83156e-08
3.81004e-08
3.79322e-08
3.77364e-08
3.75868e-08
3.74083e-08
3.72721e-08
3.71099e-08
3.69895e-08
3.68385e-08
3.67328e-08
3.65934e-08
3.64968e-08
3.63688e-08
3.62814e-08
3.61638e-08
3.60836e-08
3.59776e-08
3.59015e-08
3.58034e-08
3.57341e-08
3.56446e-08
3.55818e-08
3.55e-08
3.54435e-08
3.53649e-08
3.53095e-08
3.52318e-08
3.51767e-08
3.51001e-08
3.50453e-08
3.49708e-08
3.49163e-08
3.48445e-08
3.47909e-08
3.4721e-08
3.46688e-08
3.46003e-08
3.455e-08
3.44821e-08
3.44334e-08
3.43656e-08
3.43137e-08
3.42452e-08
3.46555e-08
3.10405e-06
4.59025e-08
1.24215e-07
1.2361e-07
1.21827e-07
1.18133e-07
1.12893e-07
1.06888e-07
1.00746e-07
9.48718e-08
8.94377e-08
8.45242e-08
8.01077e-08
7.61763e-08
7.26589e-08
6.95344e-08
6.67293e-08
6.42312e-08
6.19729e-08
5.99545e-08
5.8115e-08
5.64659e-08
5.49502e-08
5.35876e-08
5.23246e-08
5.11875e-08
5.01236e-08
4.91653e-08
4.826e-08
4.74463e-08
4.66693e-08
4.59722e-08
4.53001e-08
4.46998e-08
4.41141e-08
4.35935e-08
4.30795e-08
4.2626e-08
4.21722e-08
4.17754e-08
4.1373e-08
4.10246e-08
4.06659e-08
4.03589e-08
4.00375e-08
3.97653e-08
3.94761e-08
3.92352e-08
3.89739e-08
3.87594e-08
3.85226e-08
3.83326e-08
3.8116e-08