/*--------------------------------*- C++ -*----------------------------------*\
| =========                 |                                                 |
| \\      /  F ield         | OpenFOAM: The Open Source CFD Toolbox           |
|  \\    /   O peration     | Version:  v2012                                 |
|   \\  /    A nd           | Website:  www.openfoam.com                      |
|    \\/     M anipulation  |                                                 |
\*---------------------------------------------------------------------------*/
FoamFile
{
    version     2.0;
    format      ascii;
    class       volScalarField;
    location    "50.5";
    object      yPlus;
}
// * * * * * * * * * * * * * * * * * * * * * * * * * * * * * * * * * * * * * //

dimensions      [0 0 0 0 0 0 0];


internalField   uniform 0;

boundaryField
{
    inlet
    {
        type            calculated;
        value           uniform 0;
    }
    outlet
    {
        type            calculated;
        value           uniform 0;
    }
    topWall
    {
        type            calculated;
        value           nonuniform List<scalar> 
545
(
0.152793
0.263474
0.33801
0.397321
0.44753
0.491461
0.530697
0.566239
0.598764
0.628762
0.656599
0.682557
0.70686
0.729693
0.751205
0.771522
0.790752
0.808988
0.826309
0.842786
0.85848
0.873446
0.887735
0.901389
0.914448
0.926949
0.938925
0.950406
0.96142
0.971992
0.982145
0.991901
1.00128
1.0103
1.01899
1.02734
1.03539
1.04315
1.05062
1.05783
1.06478
1.07148
1.07795
1.0842
1.09023
1.09605
1.10168
1.10711
1.11237
1.11745
1.12236
1.1271
1.1317
1.13614
1.14044
1.1446
1.14863
1.15253
1.15631
1.15997
1.16351
1.16694
1.17026
1.17349
1.17661
1.17963
1.18257
1.18541
1.18817
1.19084
1.19343
1.19595
1.19836
1.20069
1.203
1.20529
1.20756
1.20982
1.21206
1.21428
1.21648
1.21866
1.22083
1.22298
1.22511
1.22723
1.22933
1.23141
1.23348
1.23553
1.23757
1.23959
1.24159
1.24358
1.24555
1.24751
1.24927
1.25085
1.25242
1.254
1.25558
1.25715
1.25873
1.2603
1.26188
1.26345
1.26503
1.2666
1.26817
1.26975
1.27132
1.27289
1.27446
1.27603
1.2776
1.27917
1.28074
1.28231
1.28388
1.28545
1.28701
1.28858
1.29015
1.29171
1.29328
1.29484
1.29641
1.29797
1.29953
1.3011
1.30266
1.30422
1.30578
1.30734
1.3089
1.31045
1.31201
1.31357
1.31512
1.31668
1.31823
1.31979
1.32134
1.32289
1.32444
1.32599
1.32754
1.32909
1.33064
1.33219
1.33373
1.33528
1.33682
1.33837
1.33991
1.34145
1.34299
1.34453
1.34607
1.3476
1.34914
1.35068
1.35221
1.35374
1.35528
1.35681
1.35834
1.35987
1.36139
1.36292
1.36445
1.36597
1.36749
1.36902
1.37054
1.37206
1.37357
1.37509
1.37661
1.37812
1.37963
1.38115
1.38266
1.38416
1.38567
1.38718
1.38868
1.39019
1.39169
1.39319
1.39469
1.39619
1.39768
1.39918
1.40067
1.40216
1.40365
1.40514
1.40663
1.40811
1.40959
1.41108
1.41256
1.41404
1.41551
1.41699
1.41846
1.41993
1.4214
1.42287
1.42434
1.4258
1.42726
1.42873
1.43018
1.43164
1.4331
1.43455
1.436
1.43745
1.4389
1.44034
1.44179
1.44323
1.44467
1.44611
1.44754
1.44897
1.45041
1.45183
1.45326
1.45469
1.45611
1.45753
1.45895
1.46036
1.46178
1.46319
1.4646
1.466
1.46741
1.46881
1.47021
1.47161
1.473
1.47439
1.47578
1.47717
1.47856
1.47994
1.48132
1.4827
1.48407
1.48544
1.48681
1.48818
1.48954
1.49091
1.49227
1.49362
1.49498
1.49633
1.49767
1.49902
1.50036
1.5017
1.50304
1.50437
1.5057
1.50696
1.50814
1.50933
1.51053
1.51174
1.51295
1.51417
1.5154
1.51664
1.51789
1.51914
1.52041
1.52168
1.52295
1.52424
1.52553
1.52683
1.52814
1.52946
1.53078
1.53211
1.53345
1.53479
1.53615
1.53751
1.53888
1.54025
1.54163
1.54302
1.54442
1.54582
1.54723
1.54865
1.55007
1.5515
1.55293
1.55438
1.55583
1.55728
1.55874
1.56021
1.56168
1.56316
1.56464
1.56613
1.56762
1.56912
1.57063
1.57214
1.57365
1.57517
1.57669
1.57822
1.57975
1.58129
1.58283
1.58437
1.58591
1.58746
1.58902
1.59057
1.59213
1.59369
1.59525
1.59681
1.59838
1.59994
1.60151
1.60308
1.60465
1.60622
1.60779
1.60936
1.61093
1.6125
1.61406
1.61563
1.61719
1.61876
1.62032
1.62187
1.62343
1.62498
1.62653
1.62808
1.62962
1.63115
1.63268
1.63421
1.63573
1.63724
1.63875
1.64025
1.64174
1.64323
1.64471
1.64618
1.64764
1.64909
1.65053
1.65197
1.65339
1.6548
1.6562
1.65759
1.65896
1.66032
1.66167
1.66301
1.66433
1.66564
1.66693
1.6682
1.66946
1.67071
1.67193
1.67314
1.67433
1.67551
1.67666
1.6778
1.67891
1.68
1.68108
1.68213
1.68316
1.68417
1.68515
1.68611
1.68705
1.68796
1.68885
1.68971
1.69055
1.69136
1.69214
1.6929
1.69363
1.69433
1.695
1.69565
1.69626
1.69684
1.6974
1.69792
1.69841
1.69887
1.6993
1.6997
1.70006
1.7004
1.70069
1.70096
1.70119
1.70139
1.70155
1.70168
1.70177
1.70184
1.70186
1.70185
1.7018
1.70172
1.7016
1.70144
1.70125
1.70103
1.70076
1.70046
1.70012
1.69975
1.69934
1.6989
1.69842
1.6979
1.69735
1.69676
1.69614
1.69548
1.69478
1.69405
1.6932
1.69222
1.69121
1.69016
1.68908
1.68797
1.68682
1.68566
1.68447
1.68326
1.68202
1.68077
1.67949
1.67821
1.6769
1.67559
1.67425
1.67292
1.67157
1.67021
1.66885
1.66748
1.6661
1.66473
1.66335
1.66197
1.66059
1.65921
1.65783
1.65646
1.65509
1.65373
1.65236
1.65101
1.64966
1.64833
1.64699
1.64568
1.64436
1.64306
1.64177
1.6405
1.63923
1.63799
1.63675
1.63553
1.63432
1.63313
1.63196
1.6308
1.62966
1.62854
1.62744
1.62635
1.62529
1.62425
1.62322
1.62222
1.62123
1.62028
1.61934
1.61842
1.61753
1.61666
1.61582
1.615
1.6142
1.61343
1.61268
1.61196
1.61126
1.6106
1.60995
1.60934
1.60875
1.60819
1.60765
1.60715
1.60667
1.60622
1.60579
1.6054
1.60503
1.6047
1.60439
1.60411
1.60386
1.60365
1.60346
1.6033
1.60316
1.60306
1.60299
1.60296
1.60293
)
;
    }
    bottomWall
    {
        type            calculated;
        value           nonuniform List<scalar> 
449
(
0.00273584
0.00480015
0.00537413
0.00532684
0.00525586
0.00516004
0.0050628
0.00497177
0.00488819
0.0048118
0.0047419
0.00467782
0.00461883
0.00456422
0.00451346
0.00446617
0.00442193
0.00438043
0.00434133
0.00430442
0.00426948
0.00423634
0.00420483
0.0041748
0.00414613
0.00411872
0.00409247
0.00406729
0.0040431
0.00401983
0.00399743
0.00397582
0.00395497
0.00393482
0.00391534
0.00389647
0.00387819
0.00386046
0.00384326
0.00382654
0.00381029
0.00379447
0.00377907
0.00376408
0.00374946
0.00373521
0.00372131
0.00370775
0.0036945
0.00368157
0.00366893
0.00365658
0.00364449
0.00363267
0.00362109
0.00360976
0.00359865
0.00358776
0.00357709
0.00356661
0.00355634
0.00354624
0.00353634
0.0035266
0.00351703
0.00350763
0.00349838
0.00348929
0.00348034
0.00347154
0.00346287
0.00345434
0.00344594
0.00343767
0.00342952
0.00342149
0.00341358
0.00340578
0.00339809
0.00339051
0.00338303
0.00337566
0.00336838
0.0033612
0.00335412
0.00334713
0.00334023
0.00333341
0.00332669
0.00332004
0.00331348
0.003307
0.00330059
0.00329426
0.00328801
0.00328183
0.00327572
0.00326967
0.0032637
0.00325779
0.00325195
0.00324617
0.00324046
0.0032348
0.0032292
0.00322367
0.00321819
0.00321276
0.00320739
0.00320208
0.00319681
0.0031916
0.00318644
0.00318133
0.00317627
0.00317125
0.00316629
0.00316136
0.00315649
0.00315166
0.00314687
0.00314212
0.00313742
0.00313276
0.00312814
0.00312356
0.00311902
0.00311451
0.00311005
0.00310562
0.00310123
0.00309687
0.00309256
0.00308827
0.00308402
0.0030798
0.00307562
0.00307147
0.00306735
0.00306327
0.00305921
0.00305519
0.00305119
0.00304723
0.00304329
0.00303939
0.00303551
0.00303166
0.00302784
0.00302404
0.00302028
0.00301653
0.00301282
0.00300913
0.00300547
0.00300183
0.00299821
0.00299462
0.00299106
0.00298752
0.002984
0.0029805
0.00297703
0.00297358
0.00297015
0.00296675
0.00296336
0.00296
0.00295666
0.00295334
0.00295004
0.00294676
0.0029435
0.00294044
0.00293756
0.00293467
0.00293178
0.00292887
0.00292596
0.00292303
0.0029201
0.00291716
0.00291421
0.00291125
0.00290828
0.0029053
0.00290232
0.00289933
0.00289632
0.00289331
0.00289029
0.00288726
0.00288423
0.00288119
0.00287813
0.00287507
0.00287201
0.00286893
0.00286585
0.00286275
0.00285966
0.00285655
0.00285344
0.00285031
0.00284719
0.00284405
0.00284091
0.00283776
0.0028346
0.00283144
0.00282827
0.00282509
0.00282191
0.00281872
0.00281552
0.00281232
0.00280911
0.0028059
0.00280268
0.00279945
0.00279622
0.00279298
0.00278974
0.00278649
0.00278324
0.00277998
0.00277671
0.00277344
0.00277016
0.00276689
0.0027636
0.00276031
0.00275701
0.00275372
0.00275041
0.00274711
0.00274379
0.00274048
0.00273715
0.00273383
0.0027305
0.00272717
0.00272383
0.00272049
0.00271715
0.0027138
0.00271045
0.0027071
0.00270374
0.00270038
0.00269702
0.00269365
0.00269028
0.00268692
0.00268354
0.00268017
0.00267678
0.00267341
0.00267002
0.00266664
0.00266325
0.00265986
0.00265647
0.00265308
0.00264968
0.00264629
0.00264288
0.00263949
0.00263609
0.00263269
0.00262928
0.00262588
0.00262248
0.00261907
0.00261566
0.00261226
0.00260885
0.00260544
0.00260204
0.00259863
0.00259522
0.00259181
0.0025884
0.00258499
0.00258159
0.00257818
0.00257477
0.00257136
0.00256796
0.00256455
0.00256115
0.00255774
0.00255434
0.00255093
0.00254753
0.00254413
0.00254073
0.00253733
0.00253394
0.00253054
0.00252715
0.00252375
0.00252037
0.00251697
0.00251359
0.0025102
0.00250682
0.00250343
0.00250006
0.00249668
0.00249331
0.00248993
0.00248656
0.00248319
0.00247983
0.00247646
0.00247311
0.00246974
0.0024664
0.00246304
0.0024597
0.00245635
0.00245301
0.00244966
0.00244634
0.002443
0.00243967
0.00243634
0.00243303
0.0024297
0.00242639
0.00242308
0.00241977
0.00241647
0.00241317
0.00240987
0.00240658
0.00240329
0.00240001
0.00239673
0.00239346
0.00239018
0.00238692
0.00238366
0.0023804
0.00237715
0.0023739
0.00237065
0.00236742
0.00236418
0.00236096
0.00235773
0.00235451
0.00235129
0.00234773
0.00234384
0.00234002
0.00233625
0.00233253
0.00232886
0.00232525
0.00232169
0.00231818
0.00231471
0.00231129
0.00230792
0.00230459
0.0023013
0.00229807
0.00229486
0.00229171
0.00228859
0.00228551
0.00228247
0.00227947
0.00227649
0.00227357
0.00227067
0.00226781
0.00226498
0.00226219
0.00225942
0.00225669
0.00225399
0.00225132
0.00224868
0.00224607
0.00224349
0.00224094
0.00223841
0.00223591
0.00223343
0.00223099
0.00222857
0.00222617
0.0022238
0.00222146
0.00221913
0.00221683
0.00221455
0.0022123
0.00221006
0.00220786
0.00220566
0.0022035
0.00220134
0.00219922
0.00219711
0.00219502
0.00219295
0.0021909
0.00218887
0.00218686
0.00218486
0.00218288
0.00218092
0.00217898
0.00217704
0.00217514
0.00217324
0.00217137
0.00216949
0.00216766
0.00216581
0.00216401
0.00216219
0.00216042
0.00215862
0.00215689
0.00215511
0.00215341
0.00215165
0.00214999
0.00214824
0.00214661
0.00214488
0.00214329
0.00214156
0.00214
0.00213829
0.00213675
0.00213506
0.00213351
0.00213192
0.00213022
0.00212895
0.00212672
0.0021264
0.00212324
)
;
    }
    symmetry
    {
        type            symmetryPlane;
    }
    frontAndBack
    {
        type            empty;
    }
}


// ************************************************************************* //
