/*--------------------------------*- C++ -*----------------------------------*\
| =========                 |                                                 |
| \\      /  F ield         | OpenFOAM: The Open Source CFD Toolbox           |
|  \\    /   O peration     | Version:  v2012                                 |
|   \\  /    A nd           | Website:  www.openfoam.com                      |
|    \\/     M anipulation  |                                                 |
\*---------------------------------------------------------------------------*/
FoamFile
{
    version     2.0;
    format      ascii;
    class       volScalarField;
    location    "42.5";
    object      epsilon;
}
// * * * * * * * * * * * * * * * * * * * * * * * * * * * * * * * * * * * * * //

dimensions      [0 2 -3 0 0 0 0];


internalField   nonuniform List<scalar> 
209825
(
0.758147
0.63439
0.550737
0.494852
0.456595
0.429485
0.40954
0.394444
0.382668
0.373323
0.365719
0.359478
0.354235
0.349826
0.346026
0.342776
0.339916
0.337441
0.335223
0.333286
0.331523
0.329975
0.328544
0.327286
0.326109
0.325072
0.324089
0.323224
0.322397
0.321672
0.320966
0.320351
0.319749
0.319229
0.318709
0.318265
0.31782
0.317439
0.31705
0.316724
0.316384
0.316106
0.315815
0.315578
0.315319
0.315116
0.314899
0.314723
0.314525
0.314381
0.314222
0.314079
0.313944
0.313825
0.313734
0.313625
0.313515
0.313457
0.313359
0.313305
0.313271
0.313211
0.313191
0.31315
0.313158
0.313151
0.313192
0.313207
0.313207
0.313269
0.313274
0.313357
0.313375
0.313469
0.313505
0.313612
0.313662
0.313785
0.313843
0.313981
0.314053
0.314216
0.314304
0.314498
0.314605
0.314835
0.314962
0.315235
0.315384
0.315723
0.315886
0.316391
0.316558
0.32044
3.15979
574.564
0.758147
0.63439
0.550735
0.494847
0.456587
0.429475
0.409528
0.39443
0.382653
0.373308
0.365702
0.35946
0.354217
0.349808
0.346007
0.342757
0.339897
0.337421
0.335203
0.333266
0.331503
0.329954
0.328524
0.327265
0.326088
0.325051
0.324068
0.323203
0.322376
0.32165
0.320944
0.32033
0.319727
0.319207
0.318687
0.318243
0.317798
0.317417
0.317028
0.316702
0.316362
0.316084
0.315793
0.315556
0.315297
0.315094
0.314876
0.3147
0.314503
0.314359
0.314199
0.314057
0.313921
0.313803
0.313712
0.313602
0.313493
0.313434
0.313336
0.313283
0.313249
0.313188
0.313168
0.313127
0.313136
0.313129
0.313169
0.313185
0.313184
0.313246
0.313252
0.313334
0.313352
0.313446
0.313482
0.313589
0.313639
0.313762
0.31382
0.313957
0.31403
0.314193
0.314281
0.314475
0.314582
0.314811
0.314938
0.315212
0.315361
0.3157
0.315862
0.316368
0.316535
0.320422
3.16515
571.252
0.75815
0.634388
0.550722
0.494822
0.45655
0.429429
0.409475
0.394371
0.38259
0.37324
0.365632
0.359387
0.354142
0.349731
0.345929
0.342677
0.339816
0.337338
0.335119
0.333181
0.331417
0.329868
0.328437
0.327178
0.326
0.324962
0.323979
0.323114
0.322287
0.32156
0.320854
0.320239
0.319637
0.319117
0.318596
0.318152
0.317706
0.317326
0.316936
0.31661
0.316269
0.315991
0.315701
0.315463
0.315204
0.315
0.314783
0.314607
0.314409
0.314265
0.314106
0.313963
0.313827
0.313709
0.313617
0.313508
0.313398
0.31334
0.313242
0.313188
0.313154
0.313093
0.313073
0.313032
0.313041
0.313033
0.313073
0.313089
0.313089
0.31315
0.313156
0.313238
0.313256
0.31335
0.313386
0.313492
0.313543
0.313665
0.313723
0.313861
0.313933
0.314096
0.314184
0.314378
0.314484
0.314714
0.314841
0.315114
0.315263
0.315602
0.315764
0.316269
0.316436
0.320335
3.17638
567.392
0.758153
0.634385
0.5507
0.494778
0.456488
0.429352
0.409385
0.394272
0.382482
0.373126
0.365513
0.359264
0.354015
0.3496
0.345795
0.342541
0.339678
0.337199
0.334978
0.333039
0.331274
0.329723
0.328291
0.327031
0.325852
0.324814
0.32383
0.322964
0.322136
0.321409
0.320702
0.320087
0.319484
0.318963
0.318442
0.317998
0.317552
0.317171
0.31678
0.316454
0.316113
0.315835
0.315544
0.315307
0.315047
0.314843
0.314625
0.314449
0.314251
0.314107
0.313947
0.313804
0.313669
0.31355
0.313458
0.313349
0.313239
0.313181
0.313082
0.313028
0.312994
0.312933
0.312913
0.312872
0.31288
0.312873
0.312912
0.312928
0.312928
0.312989
0.312994
0.313076
0.313094
0.313187
0.313224
0.31333
0.31338
0.313502
0.31356
0.313698
0.31377
0.313932
0.31402
0.314213
0.31432
0.314549
0.314676
0.314949
0.315097
0.315436
0.315598
0.316102
0.316269
0.320186
3.19392
563.756
0.758159
0.634381
0.550669
0.494717
0.4564
0.429242
0.409258
0.394131
0.38233
0.372965
0.365344
0.359089
0.353835
0.349416
0.345607
0.34235
0.339483
0.337002
0.334779
0.332837
0.33107
0.329519
0.328085
0.326823
0.325643
0.324604
0.323619
0.322752
0.321923
0.321195
0.320488
0.319872
0.319268
0.318747
0.318225
0.31778
0.317333
0.316952
0.316561
0.316234
0.315893
0.315614
0.315323
0.315085
0.314825
0.314621
0.314403
0.314226
0.314028
0.313884
0.313724
0.313581
0.313445
0.313326
0.313234
0.313124
0.313014
0.312955
0.312857
0.312803
0.312768
0.312707
0.312687
0.312645
0.312653
0.312645
0.312685
0.3127
0.3127
0.312761
0.312766
0.312848
0.312865
0.312958
0.312995
0.3131
0.31315
0.313272
0.31333
0.313467
0.313539
0.313701
0.313789
0.313982
0.314088
0.314317
0.314443
0.314715
0.314864
0.315202
0.315363
0.315867
0.316033
0.319975
3.21825
560.69
0.758166
0.634375
0.550628
0.494637
0.456286
0.4291
0.409093
0.393948
0.382134
0.372757
0.365126
0.358863
0.353602
0.349177
0.345363
0.342101
0.339231
0.336746
0.33452
0.332576
0.330807
0.329253
0.327817
0.326554
0.325372
0.324331
0.323345
0.322477
0.321647
0.320918
0.320209
0.319592
0.318988
0.318466
0.317943
0.317498
0.31705
0.316668
0.316277
0.315949
0.315608
0.315328
0.315036
0.314798
0.314538
0.314333
0.314115
0.313938
0.313739
0.313594
0.313434
0.31329
0.313154
0.313035
0.312943
0.312833
0.312722
0.312663
0.312565
0.31251
0.312475
0.312414
0.312393
0.312351
0.312359
0.312351
0.31239
0.312405
0.312404
0.312465
0.312469
0.312551
0.312569
0.312661
0.312697
0.312803
0.312852
0.312974
0.313032
0.313168
0.31324
0.313401
0.313489
0.313681
0.313787
0.314015
0.314141
0.314413
0.31456
0.314898
0.315059
0.315562
0.315727
0.319701
3.24983
558.359
0.758174
0.634369
0.550579
0.49454
0.456146
0.428925
0.40889
0.393723
0.381891
0.3725
0.364857
0.358584
0.353314
0.348882
0.345062
0.341795
0.338921
0.336432
0.334202
0.332254
0.330482
0.328926
0.327488
0.326222
0.325038
0.323996
0.323007
0.322138
0.321306
0.320576
0.319866
0.319248
0.318642
0.318119
0.317596
0.317149
0.316701
0.316318
0.315926
0.315598
0.315256
0.314976
0.314683
0.314444
0.314183
0.313978
0.313759
0.313582
0.313383
0.313237
0.313077
0.312933
0.312796
0.312676
0.312584
0.312474
0.312363
0.312303
0.312204
0.312149
0.312114
0.312053
0.312032
0.31199
0.311996
0.311988
0.312027
0.31204
0.31204
0.3121
0.312104
0.312186
0.312203
0.312295
0.312331
0.312436
0.312485
0.312606
0.312663
0.312799
0.312871
0.313032
0.313119
0.31331
0.313416
0.313643
0.313769
0.31404
0.314187
0.314523
0.314684
0.315186
0.31535
0.319364
3.28912
556.824
0.758185
0.634361
0.55052
0.494424
0.455979
0.428716
0.408649
0.393456
0.381602
0.372193
0.364536
0.358251
0.352972
0.348532
0.344704
0.341431
0.33855
0.336057
0.333822
0.331871
0.330095
0.328536
0.327095
0.325826
0.324641
0.323596
0.322605
0.321734
0.320901
0.320169
0.319458
0.318838
0.318231
0.317707
0.317182
0.316735
0.316285
0.315901
0.315508
0.315179
0.314836
0.314555
0.314262
0.314023
0.313761
0.313555
0.313336
0.313158
0.312958
0.312812
0.312651
0.312506
0.312369
0.312249
0.312156
0.312046
0.311934
0.311875
0.311775
0.31172
0.311684
0.311622
0.311601
0.311558
0.311564
0.311555
0.311594
0.311607
0.311606
0.311665
0.311669
0.31175
0.311767
0.311859
0.311894
0.311998
0.312047
0.312168
0.312225
0.31236
0.312431
0.312591
0.312678
0.312869
0.312974
0.3132
0.313326
0.313595
0.313742
0.314077
0.314237
0.314738
0.3149
0.318963
3.33656
556.074
0.758196
0.634351
0.550452
0.494289
0.455785
0.428475
0.408369
0.393145
0.381267
0.371838
0.364164
0.357865
0.352574
0.348124
0.344288
0.341007
0.33812
0.33562
0.333381
0.331425
0.329645
0.328082
0.326638
0.325367
0.324178
0.32313
0.322138
0.321264
0.320429
0.319695
0.318982
0.318361
0.317753
0.317227
0.316701
0.316252
0.315801
0.315417
0.315022
0.314693
0.314349
0.314067
0.313773
0.313532
0.31327
0.313063
0.312843
0.312664
0.312464
0.312317
0.312156
0.312011
0.311873
0.311752
0.311658
0.311548
0.311436
0.311376
0.311276
0.31122
0.311184
0.311122
0.3111
0.311057
0.311062
0.311052
0.31109
0.311102
0.311101
0.31116
0.311163
0.311244
0.31126
0.311351
0.311386
0.31149
0.311538
0.311658
0.311715
0.311849
0.31192
0.312079
0.312166
0.312355
0.31246
0.312685
0.31281
0.313078
0.313224
0.313558
0.313717
0.314217
0.314378
0.318498
3.39259
556.047
0.75821
0.634341
0.550375
0.494136
0.455565
0.428199
0.40805
0.39279
0.380884
0.371432
0.363739
0.357424
0.35212
0.347658
0.343812
0.340523
0.337629
0.335122
0.332877
0.330916
0.329132
0.327564
0.326116
0.324841
0.32365
0.322599
0.321604
0.320728
0.31989
0.319155
0.318439
0.317817
0.317206
0.316679
0.316151
0.315701
0.315249
0.314863
0.314468
0.314137
0.313791
0.313509
0.313214
0.312972
0.312709
0.312502
0.31228
0.312101
0.3119
0.311753
0.31159
0.311445
0.311306
0.311185
0.31109
0.31098
0.310867
0.310806
0.310706
0.310649
0.310612
0.31055
0.310527
0.310484
0.310488
0.310477
0.310515
0.310526
0.310525
0.310582
0.310586
0.310665
0.310681
0.310772
0.310806
0.310909
0.310957
0.311076
0.311132
0.311266
0.311336
0.311495
0.31158
0.311769
0.311873
0.312097
0.312221
0.312488
0.312633
0.312966
0.313123
0.313622
0.313781
0.317968
3.4576
556.644
0.758225
0.63433
0.550289
0.493965
0.455318
0.42789
0.407691
0.392392
0.380453
0.370975
0.363261
0.356928
0.351609
0.347134
0.343277
0.339978
0.337075
0.334562
0.33231
0.330343
0.328553
0.326981
0.325529
0.32425
0.323055
0.322001
0.321003
0.320124
0.319284
0.318546
0.317828
0.317204
0.316591
0.316062
0.315533
0.315081
0.314627
0.31424
0.313843
0.313511
0.313164
0.31288
0.312584
0.312342
0.312077
0.311869
0.311647
0.311467
0.311265
0.311116
0.310953
0.310807
0.310668
0.310546
0.31045
0.31034
0.310226
0.310164
0.310064
0.310006
0.309969
0.309906
0.309883
0.309839
0.309842
0.30983
0.309867
0.309877
0.309876
0.309932
0.309935
0.310014
0.310029
0.310119
0.310152
0.310255
0.310302
0.310421
0.310476
0.310609
0.310679
0.310836
0.310921
0.311108
0.311212
0.311435
0.311558
0.311823
0.311968
0.312298
0.312455
0.312952
0.31311
0.317372
3.53195
557.745
0.758242
0.634318
0.550194
0.493775
0.455043
0.427546
0.407292
0.391949
0.379974
0.370467
0.362729
0.356376
0.35104
0.346551
0.342682
0.339372
0.33646
0.333938
0.331679
0.329705
0.32791
0.326332
0.324875
0.323592
0.322392
0.321335
0.320333
0.319451
0.318608
0.317868
0.317148
0.316521
0.315906
0.315375
0.314844
0.31439
0.313935
0.313546
0.313147
0.312814
0.312466
0.312181
0.311883
0.31164
0.311374
0.311165
0.310941
0.31076
0.310557
0.310408
0.310244
0.310097
0.309957
0.309834
0.309738
0.309627
0.309512
0.30945
0.309349
0.30929
0.309252
0.309189
0.309165
0.309121
0.309123
0.309109
0.309145
0.309155
0.309153
0.309208
0.309211
0.309289
0.309303
0.309392
0.309425
0.309527
0.309573
0.309691
0.309746
0.309878
0.309946
0.310103
0.310187
0.310373
0.310476
0.310697
0.310819
0.311083
0.311227
0.311555
0.311711
0.312206
0.312362
0.316709
3.61592
559.21
0.75826
0.634305
0.55009
0.493567
0.454742
0.427169
0.406853
0.391461
0.379447
0.369908
0.362143
0.355768
0.350413
0.345908
0.342025
0.338704
0.335781
0.33325
0.330983
0.329002
0.3272
0.325616
0.324154
0.322866
0.321662
0.320601
0.319595
0.31871
0.317864
0.31712
0.316397
0.315768
0.31515
0.314617
0.314084
0.313628
0.313171
0.31278
0.31238
0.312045
0.311695
0.311409
0.31111
0.310865
0.310598
0.310388
0.310163
0.309981
0.309777
0.309627
0.309462
0.309314
0.309173
0.30905
0.308952
0.308841
0.308725
0.308662
0.308561
0.308501
0.308462
0.308398
0.308373
0.308329
0.308329
0.308315
0.30835
0.308358
0.308356
0.30841
0.308412
0.308489
0.308502
0.30859
0.308622
0.308723
0.308769
0.308886
0.30894
0.309071
0.309139
0.309294
0.309377
0.309562
0.309664
0.309883
0.310005
0.310267
0.310409
0.310736
0.31089
0.311384
0.311537
0.31598
3.70977
560.892
0.75828
0.634291
0.549977
0.49334
0.454414
0.426756
0.406373
0.390928
0.37887
0.369296
0.361502
0.355103
0.349727
0.345205
0.341307
0.337972
0.335038
0.332497
0.330221
0.328232
0.326423
0.324833
0.323365
0.322072
0.320863
0.319797
0.318787
0.317898
0.317048
0.316302
0.315576
0.314944
0.314324
0.313788
0.313252
0.312795
0.312335
0.311942
0.31154
0.311204
0.310852
0.310564
0.310263
0.310017
0.309749
0.309537
0.309311
0.309128
0.308923
0.308772
0.308606
0.308457
0.308315
0.308191
0.308092
0.30798
0.307864
0.3078
0.307698
0.307637
0.307597
0.307533
0.307507
0.307462
0.307461
0.307445
0.307479
0.307486
0.307483
0.307536
0.307537
0.307613
0.307625
0.307713
0.307744
0.307844
0.307889
0.308004
0.308058
0.308188
0.308255
0.308408
0.308491
0.308674
0.308775
0.308993
0.309113
0.309373
0.309515
0.309839
0.309992
0.310483
0.310634
0.315184
3.81361
562.644
0.758301
0.634276
0.549856
0.493096
0.454058
0.426309
0.405853
0.390349
0.378245
0.368632
0.360806
0.35438
0.348982
0.344441
0.340526
0.337177
0.334231
0.331679
0.329393
0.327395
0.325578
0.323982
0.322507
0.321208
0.319994
0.318923
0.317909
0.317016
0.316162
0.315412
0.314683
0.314048
0.313425
0.312886
0.312348
0.311888
0.311426
0.311031
0.310627
0.310289
0.309936
0.309646
0.309343
0.309096
0.308826
0.308613
0.308385
0.308201
0.307995
0.307842
0.307675
0.307526
0.307382
0.307257
0.307156
0.307045
0.306927
0.306862
0.30676
0.306697
0.306656
0.306592
0.306565
0.306519
0.306517
0.306499
0.306532
0.306538
0.306535
0.306585
0.306586
0.306661
0.306672
0.306759
0.306789
0.306888
0.306932
0.307046
0.307099
0.307227
0.307294
0.307446
0.307528
0.307709
0.307809
0.308025
0.308144
0.308402
0.308542
0.308864
0.309015
0.309505
0.309653
0.314319
3.92749
564.323
0.758325
0.634261
0.549726
0.492833
0.453675
0.425828
0.405293
0.389725
0.37757
0.367915
0.360055
0.3536
0.348178
0.343615
0.339683
0.336319
0.333359
0.330795
0.328498
0.326491
0.324666
0.323061
0.32158
0.320275
0.319055
0.317979
0.31696
0.316062
0.315205
0.314451
0.313718
0.313079
0.312453
0.311912
0.311371
0.310908
0.310444
0.310047
0.309641
0.3093
0.308945
0.308653
0.308349
0.3081
0.307829
0.307614
0.307384
0.307199
0.306991
0.306837
0.306669
0.306519
0.306374
0.306247
0.306146
0.306033
0.305914
0.305848
0.305745
0.305682
0.30564
0.305574
0.305546
0.3055
0.305496
0.305477
0.305508
0.305514
0.305509
0.305558
0.305558
0.305632
0.305642
0.305728
0.305757
0.305855
0.305898
0.306011
0.306063
0.306189
0.306255
0.306405
0.306486
0.306665
0.306764
0.306978
0.307096
0.307352
0.30749
0.30781
0.307959
0.308447
0.308593
0.313386
4.05131
565.793
0.758349
0.634246
0.549587
0.492552
0.453266
0.425312
0.404692
0.389055
0.376845
0.367145
0.359247
0.352762
0.347313
0.342728
0.338777
0.335396
0.332421
0.329844
0.327536
0.325519
0.323685
0.322072
0.320583
0.319271
0.318045
0.316963
0.315939
0.315037
0.314175
0.313417
0.31268
0.312038
0.311408
0.310864
0.31032
0.309854
0.309387
0.308988
0.308579
0.308236
0.307879
0.307585
0.307279
0.307028
0.306755
0.306539
0.306308
0.306121
0.305912
0.305756
0.305587
0.305435
0.305289
0.305161
0.305058
0.304945
0.304825
0.304758
0.304654
0.304589
0.304546
0.30448
0.30445
0.304404
0.304398
0.304377
0.304407
0.304411
0.304406
0.304453
0.304453
0.304525
0.304534
0.304619
0.304646
0.304743
0.304785
0.304897
0.304948
0.305073
0.305138
0.305286
0.305366
0.305543
0.305641
0.305852
0.305969
0.306222
0.30636
0.306676
0.306824
0.307309
0.307453
0.312383
4.1848
566.93
0.758376
0.63423
0.549441
0.492253
0.45283
0.424762
0.40405
0.38834
0.37607
0.366321
0.358384
0.351865
0.346388
0.341779
0.337807
0.334408
0.331417
0.328827
0.326506
0.324479
0.322634
0.321013
0.319516
0.318196
0.316964
0.315876
0.314846
0.313939
0.313072
0.312309
0.311569
0.310923
0.310289
0.309742
0.309194
0.308726
0.308256
0.307854
0.307443
0.307098
0.306738
0.306442
0.306133
0.305881
0.305606
0.305388
0.305155
0.304967
0.304756
0.304599
0.304428
0.304275
0.304128
0.303999
0.303894
0.30378
0.303659
0.30359
0.303486
0.303419
0.303375
0.303308
0.303277
0.30323
0.303223
0.303199
0.303228
0.303231
0.303225
0.303269
0.303269
0.303339
0.303348
0.303431
0.303457
0.303553
0.303594
0.303704
0.303754
0.303877
0.303941
0.304087
0.304166
0.304341
0.304438
0.304647
0.304762
0.305013
0.305149
0.305462
0.305608
0.30609
0.306232
0.31131
4.32753
567.622
0.758403
0.634213
0.549287
0.491937
0.452367
0.424178
0.403367
0.387579
0.375245
0.365444
0.357464
0.350909
0.345402
0.340767
0.336773
0.333355
0.330347
0.327742
0.325409
0.323369
0.321514
0.319883
0.318377
0.317051
0.315811
0.314717
0.313681
0.312768
0.311895
0.311128
0.310383
0.309733
0.309096
0.308545
0.307994
0.307522
0.307049
0.306644
0.30623
0.305883
0.305521
0.305223
0.304912
0.304657
0.30438
0.30416
0.303925
0.303735
0.303523
0.303364
0.303191
0.303038
0.302889
0.302758
0.302651
0.302537
0.302415
0.302345
0.302239
0.302171
0.302126
0.302058
0.302026
0.301978
0.301969
0.301943
0.30197
0.301972
0.301965
0.302006
0.302006
0.302075
0.302082
0.302164
0.302189
0.302283
0.302323
0.302431
0.30248
0.302602
0.302664
0.302809
0.302887
0.303059
0.303155
0.303361
0.303475
0.303723
0.303857
0.304168
0.304311
0.304791
0.30493
0.310166
4.47886
567.771
0.758433
0.634197
0.549125
0.491604
0.451878
0.423559
0.402644
0.386772
0.37437
0.364514
0.356488
0.349895
0.344355
0.339693
0.335675
0.332236
0.329211
0.32659
0.324242
0.32219
0.320324
0.318683
0.317168
0.315833
0.314585
0.313485
0.312442
0.311523
0.310645
0.309873
0.309123
0.308469
0.307828
0.307272
0.306718
0.306243
0.305766
0.305359
0.304942
0.304592
0.304227
0.303926
0.303613
0.303356
0.303077
0.302855
0.302618
0.302427
0.302212
0.302051
0.301877
0.301722
0.301572
0.30144
0.301331
0.301217
0.301092
0.301021
0.300915
0.300845
0.300798
0.300729
0.300695
0.300647
0.300636
0.300609
0.300633
0.300634
0.300626
0.300665
0.300664
0.30073
0.300737
0.300817
0.300841
0.300933
0.300972
0.301079
0.301126
0.301246
0.301308
0.30145
0.301526
0.301697
0.301791
0.301994
0.302107
0.302352
0.302484
0.302792
0.302932
0.30341
0.303546
0.30895
4.63791
567.297
0.758463
0.63418
0.548956
0.491254
0.451363
0.422907
0.401881
0.385919
0.373445
0.36353
0.355455
0.348821
0.343247
0.338556
0.334513
0.331052
0.328007
0.325369
0.323007
0.320942
0.319063
0.317412
0.315887
0.314543
0.313288
0.312179
0.31113
0.310205
0.309321
0.308544
0.307789
0.30713
0.306484
0.305925
0.305366
0.304888
0.304408
0.303997
0.303577
0.303224
0.302856
0.302553
0.302237
0.301978
0.301697
0.301472
0.301233
0.30104
0.300824
0.300661
0.300485
0.300329
0.300176
0.300043
0.299932
0.299817
0.299691
0.299618
0.299511
0.29944
0.299391
0.299322
0.299286
0.299237
0.299224
0.299194
0.299216
0.299217
0.299207
0.299243
0.299242
0.299306
0.299311
0.29939
0.299412
0.299503
0.29954
0.299646
0.299692
0.29981
0.29987
0.30001
0.300085
0.300253
0.300345
0.300547
0.300658
0.300899
0.30103
0.301334
0.301472
0.301947
0.302081
0.30766
4.80353
566.121
0.758496
0.634164
0.54878
0.490888
0.450822
0.422221
0.401077
0.385021
0.37247
0.362492
0.354366
0.347688
0.342078
0.337356
0.333286
0.329802
0.326737
0.324081
0.321703
0.319623
0.317732
0.316069
0.314534
0.313181
0.311917
0.310801
0.309745
0.308813
0.307923
0.30714
0.306379
0.305715
0.305065
0.304501
0.303939
0.303456
0.302972
0.302559
0.302135
0.301779
0.301408
0.301103
0.300784
0.300522
0.300238
0.300012
0.299771
0.299575
0.299357
0.299192
0.299014
0.298856
0.298702
0.298567
0.298454
0.298338
0.298211
0.298137
0.298028
0.297955
0.297904
0.297834
0.297797
0.297747
0.297732
0.2977
0.29772
0.29772
0.297708
0.297741
0.29774
0.297801
0.297805
0.297883
0.297903
0.297993
0.298028
0.298132
0.298176
0.298293
0.298351
0.298489
0.298563
0.298728
0.298819
0.299017
0.299126
0.299364
0.299493
0.299793
0.299929
0.300401
0.300533
0.306297
4.97429
564.184
0.758529
0.634148
0.548597
0.490506
0.450256
0.421501
0.400234
0.384077
0.371446
0.361401
0.35322
0.346497
0.340848
0.336092
0.331994
0.328485
0.325399
0.322724
0.320329
0.318235
0.31633
0.314655
0.31311
0.311746
0.310473
0.309349
0.308285
0.307346
0.306449
0.30566
0.304894
0.304225
0.303569
0.303002
0.302434
0.301948
0.30146
0.301043
0.300616
0.300257
0.299883
0.299574
0.299252
0.298988
0.298702
0.298473
0.298229
0.298032
0.297812
0.297644
0.297465
0.297305
0.297149
0.297012
0.296897
0.29678
0.296651
0.296575
0.296466
0.296391
0.296338
0.296267
0.296228
0.296177
0.296161
0.296126
0.296143
0.296142
0.296128
0.296159
0.296157
0.296216
0.296219
0.296294
0.296313
0.296401
0.296435
0.296536
0.29658
0.296694
0.296751
0.296887
0.296959
0.297121
0.29721
0.297405
0.297513
0.297748
0.297874
0.298171
0.298304
0.298773
0.298902
0.304858
5.14846
561.438
0.758564
0.634132
0.548408
0.490107
0.449666
0.420749
0.399351
0.383088
0.370371
0.360257
0.352018
0.345246
0.339556
0.334766
0.330638
0.327103
0.323994
0.321299
0.318886
0.316776
0.314858
0.31317
0.311613
0.310239
0.308956
0.307823
0.306751
0.305805
0.304901
0.304106
0.303334
0.302659
0.301998
0.301426
0.300854
0.300363
0.299871
0.29945
0.299019
0.298657
0.29828
0.297968
0.297643
0.297376
0.297087
0.296856
0.296609
0.29641
0.296187
0.296018
0.295836
0.295675
0.295517
0.295378
0.295261
0.295143
0.295012
0.294934
0.294823
0.294746
0.294692
0.29462
0.294579
0.294526
0.294509
0.294472
0.294485
0.294484
0.294468
0.294496
0.294493
0.294549
0.294552
0.294625
0.294642
0.294728
0.29476
0.29486
0.294901
0.295014
0.295069
0.295202
0.295273
0.295432
0.29552
0.295711
0.295817
0.296048
0.296173
0.296466
0.296596
0.297061
0.297188
0.303342
5.32397
557.842
0.7586
0.634117
0.548213
0.489694
0.449051
0.419965
0.398429
0.382055
0.369248
0.35906
0.350759
0.343937
0.338203
0.333377
0.329217
0.325655
0.322522
0.319806
0.317374
0.315248
0.313314
0.311613
0.310043
0.308659
0.307366
0.306224
0.305143
0.304189
0.303278
0.302476
0.301698
0.301017
0.300351
0.299773
0.299197
0.298702
0.298205
0.29778
0.297345
0.29698
0.296599
0.296284
0.295955
0.295686
0.295394
0.29516
0.294911
0.294709
0.294484
0.294312
0.294128
0.293965
0.293805
0.293665
0.293545
0.293426
0.293293
0.293213
0.293101
0.293022
0.292966
0.292892
0.292849
0.292796
0.292776
0.292737
0.292748
0.292745
0.292728
0.292753
0.292749
0.292802
0.292803
0.292874
0.29289
0.292974
0.293004
0.293101
0.293141
0.293251
0.293305
0.293436
0.293505
0.293661
0.293747
0.293935
0.294039
0.294266
0.294389
0.294677
0.294805
0.295267
0.295392
0.301748
5.4984
553.359
0.758638
0.634102
0.548012
0.489266
0.448412
0.419148
0.397468
0.380978
0.368075
0.35781
0.349445
0.342569
0.33679
0.331925
0.327731
0.324141
0.320982
0.318244
0.315793
0.313649
0.3117
0.309984
0.308402
0.307006
0.305702
0.30455
0.303461
0.302499
0.30158
0.300771
0.299986
0.2993
0.298627
0.298044
0.297463
0.296963
0.296462
0.296033
0.295594
0.295224
0.29484
0.294522
0.29419
0.293917
0.293622
0.293386
0.293133
0.292929
0.292702
0.292527
0.292341
0.292176
0.292014
0.291872
0.291749
0.291629
0.291494
0.291412
0.291299
0.291218
0.291159
0.291085
0.29104
0.290985
0.290963
0.290922
0.290929
0.290926
0.290906
0.290929
0.290923
0.290973
0.290974
0.291042
0.291056
0.291138
0.291166
0.291261
0.2913
0.291407
0.29146
0.291587
0.291654
0.291808
0.291892
0.292076
0.292178
0.292402
0.292522
0.292806
0.292931
0.293389
0.293512
0.300073
5.66903
547.958
0.758677
0.634088
0.547806
0.488824
0.44775
0.418301
0.396469
0.379856
0.366855
0.356507
0.348075
0.341142
0.335316
0.33041
0.326182
0.322561
0.319376
0.316614
0.314143
0.31198
0.310014
0.308284
0.306689
0.30528
0.303965
0.302803
0.301704
0.300734
0.299807
0.298991
0.298199
0.297506
0.296828
0.296239
0.295652
0.295147
0.294641
0.294208
0.293765
0.293391
0.293003
0.292681
0.292346
0.29207
0.291772
0.291532
0.291277
0.291071
0.290841
0.290664
0.290475
0.290308
0.290143
0.289999
0.289873
0.289752
0.289615
0.289532
0.289417
0.289334
0.289273
0.289197
0.289149
0.289094
0.289069
0.289027
0.289031
0.289026
0.289004
0.289023
0.289017
0.289063
0.289063
0.289129
0.289141
0.28922
0.289247
0.28934
0.289376
0.289482
0.289532
0.289657
0.289722
0.289872
0.289954
0.290135
0.290235
0.290454
0.290572
0.290852
0.290974
0.291429
0.29155
0.298317
5.83277
541.605
0.758717
0.634075
0.547595
0.488369
0.447066
0.417423
0.395433
0.378692
0.365586
0.355153
0.34665
0.339658
0.333782
0.328833
0.324568
0.320915
0.317703
0.314917
0.312424
0.310242
0.308259
0.306513
0.304903
0.303482
0.302156
0.300983
0.299874
0.298895
0.297959
0.297136
0.296336
0.295637
0.294952
0.294358
0.293765
0.293255
0.292744
0.292306
0.291858
0.291481
0.291089
0.290763
0.290424
0.290145
0.289844
0.289601
0.289342
0.289133
0.2889
0.288721
0.288529
0.288361
0.288193
0.288047
0.287918
0.287796
0.287657
0.287571
0.287455
0.287369
0.287306
0.287229
0.287179
0.287122
0.287095
0.287051
0.287052
0.287046
0.287022
0.287038
0.28703
0.287072
0.287072
0.287134
0.287144
0.287222
0.287246
0.287337
0.287371
0.287474
0.287522
0.287644
0.287708
0.287854
0.287935
0.288112
0.28821
0.288425
0.28854
0.288816
0.288934
0.289385
0.289504
0.296477
5.98625
534.267
0.758758
0.634063
0.54738
0.487901
0.44636
0.416515
0.39436
0.377485
0.36427
0.353748
0.345171
0.338116
0.332188
0.327194
0.322891
0.319205
0.315964
0.313152
0.310636
0.308434
0.306433
0.304671
0.303046
0.301612
0.300273
0.29909
0.29797
0.296982
0.296037
0.295206
0.294399
0.293692
0.293001
0.2924
0.291801
0.291286
0.29077
0.290327
0.289875
0.289493
0.289097
0.288768
0.288424
0.288142
0.287837
0.287591
0.287329
0.287117
0.286882
0.286699
0.286505
0.286334
0.286164
0.286016
0.285884
0.285761
0.285619
0.285531
0.285413
0.285325
0.28526
0.285181
0.285129
0.28507
0.285041
0.284996
0.284993
0.284985
0.284959
0.284972
0.284962
0.285
0.284999
0.285059
0.285067
0.285142
0.285164
0.285253
0.285285
0.285385
0.285432
0.28555
0.285612
0.285755
0.285833
0.286006
0.286102
0.286313
0.286426
0.286696
0.286812
0.287258
0.287376
0.294552
6.12581
525.91
0.7588
0.634053
0.547161
0.487421
0.445633
0.415578
0.393251
0.376236
0.362907
0.352291
0.343637
0.336518
0.330535
0.325495
0.321151
0.31743
0.314158
0.31132
0.30878
0.306557
0.304537
0.302758
0.301118
0.29967
0.298318
0.297123
0.295993
0.294995
0.294041
0.293201
0.292386
0.291673
0.290974
0.290367
0.289762
0.289242
0.288719
0.288272
0.287815
0.287429
0.287028
0.286694
0.286347
0.286061
0.285753
0.285503
0.285238
0.285023
0.284785
0.284599
0.284402
0.284229
0.284056
0.283906
0.283771
0.283646
0.283502
0.283412
0.283292
0.283202
0.283134
0.283054
0.282999
0.282939
0.282907
0.28286
0.282853
0.282844
0.282816
0.282826
0.282814
0.282848
0.282846
0.282903
0.282909
0.282982
0.283001
0.283087
0.283118
0.283215
0.283259
0.283375
0.283434
0.283574
0.28365
0.283819
0.283912
0.284119
0.284229
0.284495
0.284607
0.28505
0.285165
0.292538
6.2476
516.496
0.758842
0.634043
0.546938
0.486929
0.444886
0.414613
0.392107
0.374946
0.361499
0.350785
0.34205
0.334864
0.328823
0.323734
0.319349
0.315592
0.312288
0.309422
0.306857
0.304612
0.302572
0.300776
0.29912
0.297657
0.296292
0.295084
0.293943
0.292934
0.291971
0.291122
0.290299
0.289578
0.288872
0.288259
0.287647
0.287121
0.286593
0.286141
0.285678
0.285288
0.284882
0.284544
0.284193
0.283903
0.283591
0.283338
0.283069
0.282851
0.28261
0.282421
0.282221
0.282046
0.28187
0.281717
0.281579
0.281453
0.281306
0.281213
0.281092
0.281
0.280928
0.280847
0.28079
0.280728
0.280694
0.280646
0.280635
0.280624
0.280593
0.2806
0.280586
0.280616
0.280614
0.280667
0.280671
0.280741
0.280758
0.280841
0.280869
0.280964
0.281006
0.281119
0.281176
0.281312
0.281385
0.28155
0.281641
0.281843
0.281951
0.282212
0.282321
0.282759
0.282873
0.290435
6.34762
505.986
0.758886
0.634035
0.546713
0.486427
0.44412
0.413621
0.390929
0.373617
0.360046
0.349231
0.340411
0.333154
0.327053
0.321914
0.317485
0.31369
0.310353
0.307457
0.304867
0.302599
0.300538
0.298724
0.297051
0.295573
0.294194
0.292974
0.291821
0.290802
0.289828
0.288971
0.288139
0.28741
0.286696
0.286076
0.285458
0.284925
0.284391
0.283933
0.283466
0.28307
0.28266
0.282318
0.281962
0.281668
0.281352
0.281096
0.280823
0.280602
0.280357
0.280165
0.279962
0.279785
0.279606
0.279451
0.279309
0.279181
0.279033
0.278937
0.278814
0.278719
0.278645
0.278562
0.278502
0.278438
0.278401
0.278352
0.278337
0.278325
0.278292
0.278295
0.278279
0.278305
0.278301
0.27835
0.278353
0.27842
0.278435
0.278515
0.278541
0.278633
0.278673
0.278782
0.278837
0.278969
0.27904
0.279201
0.27929
0.279486
0.279592
0.279847
0.279953
0.280386
0.280499
0.288239
6.42185
494.341
0.758931
0.634029
0.546485
0.485915
0.443336
0.412603
0.389718
0.372248
0.358549
0.347627
0.33872
0.331389
0.325227
0.320034
0.31556
0.311725
0.308354
0.305428
0.302811
0.300519
0.298437
0.296603
0.294913
0.293419
0.292025
0.290792
0.289627
0.288597
0.287613
0.286746
0.285905
0.285168
0.284446
0.283819
0.283194
0.282655
0.282115
0.281651
0.281178
0.280778
0.280362
0.280016
0.279655
0.279358
0.279037
0.278777
0.278501
0.278276
0.278028
0.277833
0.277627
0.277447
0.277265
0.277107
0.276962
0.276832
0.276681
0.276583
0.276458
0.27636
0.276283
0.276199
0.276135
0.27607
0.27603
0.275979
0.275961
0.275947
0.275912
0.275912
0.275893
0.275915
0.27591
0.275955
0.275957
0.27602
0.276032
0.27611
0.276133
0.276222
0.27626
0.276366
0.276418
0.276546
0.276615
0.276772
0.276857
0.27705
0.277152
0.277402
0.277504
0.277933
0.278044
0.285948
6.46631
481.523
0.758976
0.634024
0.546256
0.485394
0.442534
0.41156
0.388475
0.370842
0.357009
0.345977
0.336979
0.329572
0.323345
0.318097
0.313575
0.309699
0.306292
0.303334
0.300689
0.298372
0.296268
0.294414
0.292706
0.291196
0.289787
0.28854
0.287363
0.286321
0.285326
0.284449
0.283599
0.282853
0.282123
0.281488
0.280856
0.280311
0.279764
0.279295
0.278816
0.278411
0.27799
0.277639
0.277273
0.276972
0.276647
0.276383
0.276102
0.275875
0.275623
0.275424
0.275215
0.275032
0.274847
0.274686
0.274538
0.274407
0.274252
0.274151
0.274025
0.273924
0.273844
0.273758
0.273692
0.273625
0.273582
0.273529
0.273507
0.273491
0.273454
0.273451
0.273429
0.273447
0.273441
0.273481
0.273482
0.273541
0.273551
0.273626
0.273647
0.273733
0.273768
0.27387
0.27392
0.274044
0.274111
0.274263
0.274346
0.274533
0.274632
0.274878
0.274976
0.2754
0.275509
0.28356
6.47738
467.502
0.759021
0.634022
0.546025
0.484865
0.441717
0.410493
0.387201
0.369399
0.355427
0.344281
0.335188
0.327701
0.321407
0.316102
0.311531
0.307612
0.304168
0.301177
0.298503