/*--------------------------------*- C++ -*----------------------------------*\
| =========                 |                                                 |
| \\      /  F ield         | OpenFOAM: The Open Source CFD Toolbox           |
|  \\    /   O peration     | Version:  v2012                                 |
|   \\  /    A nd           | Website:  www.openfoam.com                      |
|    \\/     M anipulation  |                                                 |
\*---------------------------------------------------------------------------*/
FoamFile
{
    version     2.0;
    format      ascii;
    class       volScalarField;
    location    "42.5";
    object      k;
}
// * * * * * * * * * * * * * * * * * * * * * * * * * * * * * * * * * * * * * //

dimensions      [0 2 -2 0 0 0 0];


internalField   nonuniform List<scalar> 
209825
(
0.00102448
0.000932781
0.000854808
0.000788706
0.000733409
0.000687736
0.000649941
0.000618636
0.000592358
0.000570227
0.000551271
0.000535034
0.000520858
0.000508551
0.000497625
0.000488039
0.000479403
0.000471771
0.000464806
0.00045862
0.000452905
0.000447815
0.00044306
0.000438817
0.00043481
0.000431234
0.000427824
0.000424786
0.000421853
0.000419253
0.000416716
0.000414476
0.000412263
0.000410322
0.000408382
0.000406696
0.00040499
0.000403518
0.000402007
0.000400718
0.000399375
0.000398243
0.000397043
0.000396047
0.000394976
0.000394096
0.000393136
0.000392358
0.000391495
0.000390808
0.000390032
0.000389424
0.000388727
0.00038819
0.000387564
0.000387088
0.000386522
0.000386107
0.000385596
0.00038523
0.000384768
0.000384451
0.000384029
0.000383752
0.000383377
0.000383132
0.000382795
0.000382576
0.000382277
0.000382083
0.000381819
0.000381644
0.000381413
0.000381259
0.000381043
0.0003809
0.0003807
0.000380574
0.000380394
0.000380287
0.000380129
0.000380042
0.000379905
0.000379838
0.000379726
0.000379683
0.000379598
0.000379587
0.00037956
0.000379582
0.000379573
0.000379677
0.000379677
0.000383625
0.0115705
0.0131739
0.00102448
0.000932781
0.000854809
0.000788707
0.000733409
0.000687736
0.00064994
0.000618634
0.000592355
0.000570223
0.000551266
0.000535028
0.000520851
0.000508544
0.000497617
0.000488031
0.000479394
0.000471762
0.000464796
0.00045861
0.000452895
0.000447805
0.000443049
0.000438806
0.000434799
0.000431222
0.000427812
0.000424774
0.000421841
0.000419241
0.000416704
0.000414463
0.00041225
0.000410309
0.000408369
0.000406682
0.000404976
0.000403504
0.000401994
0.000400704
0.00039936
0.000398228
0.000397029
0.000396033
0.000394961
0.000394082
0.000393122
0.000392344
0.00039148
0.000390794
0.000390017
0.000389409
0.000388712
0.000388175
0.000387549
0.000387073
0.000386507
0.000386092
0.000385581
0.000385215
0.000384752
0.000384436
0.000384014
0.000383736
0.000383361
0.000383116
0.00038278
0.000382561
0.000382262
0.000382067
0.000381804
0.000381629
0.000381397
0.000381244
0.000381027
0.000380884
0.000380684
0.000380558
0.000380378
0.000380272
0.000380113
0.000380026
0.000379889
0.000379821
0.00037971
0.000379667
0.000379582
0.000379571
0.000379543
0.000379566
0.000379557
0.000379661
0.000379661
0.000383613
0.0115803
0.013187
0.00102448
0.000932782
0.000854811
0.000788709
0.000733409
0.000687733
0.000649932
0.000618622
0.000592339
0.000570203
0.000551243
0.000535001
0.000520822
0.000508512
0.000497582
0.000487994
0.000479355
0.000471721
0.000464754
0.000458566
0.00045285
0.000447758
0.000443002
0.000438757
0.000434749
0.000431171
0.000427761
0.000424721
0.000421788
0.000419187
0.000416649
0.000414408
0.000412194
0.000410253
0.000408312
0.000406625
0.000404918
0.000403446
0.000401935
0.000400646
0.000399301
0.000398169
0.000396969
0.000395973
0.000394901
0.000394021
0.000393061
0.000392283
0.000391419
0.000390732
0.000389955
0.000389347
0.000388649
0.000388113
0.000387486
0.00038701
0.000386444
0.000386028
0.000385517
0.000385151
0.000384689
0.000384372
0.00038395
0.000383672
0.000383297
0.000383052
0.000382715
0.000382496
0.000382197
0.000382002
0.000381738
0.000381563
0.000381331
0.000381178
0.000380962
0.000380818
0.000380618
0.000380492
0.000380312
0.000380205
0.000380046
0.000379959
0.000379822
0.000379755
0.000379643
0.0003796
0.000379515
0.000379503
0.000379476
0.000379498
0.000379489
0.000379592
0.000379592
0.000383555
0.0115998
0.0132151
0.00102448
0.000932783
0.000854815
0.000788712
0.000733409
0.000687727
0.000649919
0.000618601
0.000592312
0.000570168
0.000551202
0.000534956
0.000520771
0.000508457
0.000497523
0.000487931
0.000479289
0.000471652
0.000464682
0.000458492
0.000452773
0.00044768
0.000442921
0.000438675
0.000434665
0.000431086
0.000427674
0.000424633
0.000421698
0.000419096
0.000416558
0.000414315
0.0004121
0.000410158
0.000408217
0.000406529
0.000404821
0.000403348
0.000401837
0.000400547
0.000399202
0.000398069
0.000396868
0.000395872
0.000394799
0.000393919
0.000392958
0.000392179
0.000391315
0.000390628
0.000389851
0.000389242
0.000388544
0.000388007
0.00038738
0.000386904
0.000386337
0.000385922
0.00038541
0.000385044
0.000384581
0.000384264
0.000383842
0.000383564
0.000383188
0.000382943
0.000382606
0.000382386
0.000382087
0.000381892
0.000381628
0.000381453
0.000381221
0.000381068
0.000380851
0.000380708
0.000380507
0.000380381
0.0003802
0.000380094
0.000379935
0.000379847
0.00037971
0.000379642
0.00037953
0.000379487
0.000379402
0.00037939
0.000379362
0.000379384
0.000379374
0.000379477
0.000379477
0.000383457
0.01163
0.013259
0.00102448
0.000932785
0.000854821
0.000788717
0.000733409
0.000687718
0.000649901
0.000618572
0.000592273
0.00057012
0.000551146
0.000534892
0.0005207
0.000508379
0.00049744
0.000487843
0.000479196
0.000471555
0.000464581
0.000458388
0.000452666
0.000447569
0.000442808
0.000438559
0.000434547
0.000430966
0.000427551
0.000424509
0.000421572
0.000418969
0.000416428
0.000414184
0.000411968
0.000410025
0.000408082
0.000406393
0.000404685
0.000403211
0.000401698
0.000400407
0.000399061
0.000397927
0.000396726
0.000395729
0.000394655
0.000393775
0.000392813
0.000392034
0.000391169
0.000390481
0.000389704
0.000389094
0.000388396
0.000387859
0.000387231
0.000386754
0.000386187
0.000385771
0.000385259
0.000384892
0.000384429
0.000384112
0.000383689
0.000383411
0.000383035
0.000382789
0.000382452
0.000382232
0.000381933
0.000381738
0.000381473
0.000381298
0.000381066
0.000380912
0.000380695
0.000380551
0.000380351
0.000380224
0.000380043
0.000379936
0.000379777
0.000379689
0.000379551
0.000379484
0.000379371
0.000379327
0.000379242
0.00037923
0.000379201
0.000379222
0.000379212
0.000379315
0.000379314
0.000383316
0.0116718
0.0133197
0.00102448
0.000932787
0.000854828
0.000788724
0.000733409
0.000687707
0.000649876
0.000618535
0.000592222
0.000570058
0.000551073
0.000534808
0.000520608
0.000508279
0.000497332
0.000487728
0.000479076
0.000471429
0.00046445
0.000458252
0.000452526
0.000447426
0.000442661
0.000438409
0.000434393
0.00043081
0.000427393
0.000424348
0.000421409
0.000418803
0.000416261
0.000414015
0.000411797
0.000409852
0.000407908
0.000406218
0.000404507
0.000403032
0.000401518
0.000400226
0.000398879
0.000397744
0.000396542
0.000395544
0.000394469
0.000393588
0.000392625
0.000391845
0.00039098
0.000390291
0.000389513
0.000388903
0.000388203
0.000387666
0.000387037
0.00038656
0.000385993
0.000385576
0.000385063
0.000384696
0.000384232
0.000383914
0.000383491
0.000383213
0.000382836
0.00038259
0.000382252
0.000382032
0.000381732
0.000381537
0.000381272
0.000381097
0.000380864
0.00038071
0.000380493
0.000380349
0.000380148
0.000380021
0.00037984
0.000379732
0.000379573
0.000379485
0.000379346
0.000379278
0.000379165
0.000379121
0.000379035
0.000379022
0.000378993
0.000379014
0.000379003
0.000379104
0.000379104
0.000383135
0.0117257
0.0133981
0.00102448
0.00093279
0.000854836
0.000788732
0.000733409
0.000687693
0.000649847
0.000618489
0.00059216
0.000569981
0.000550982
0.000534706
0.000520494
0.000508156
0.0004972
0.000487588
0.000478928
0.000471274
0.000464289
0.000458086
0.000452354
0.000447249
0.00044248
0.000438224
0.000434205
0.000430617
0.000427197
0.00042415
0.000421208
0.000418599
0.000416055
0.000413807
0.000411586
0.00040964
0.000407693
0.000406001
0.000404289
0.000402812
0.000401297
0.000400003
0.000398655
0.000397519
0.000396315
0.000395315
0.00039424
0.000393357
0.000392394
0.000391613
0.000390746
0.000390057
0.000389278
0.000388667
0.000387966
0.000387428
0.000386799
0.000386321
0.000385753
0.000385335
0.000384822
0.000384454
0.00038399
0.000383671
0.000383248
0.000382968
0.000382591
0.000382345
0.000382007
0.000381786
0.000381486
0.00038129
0.000381025
0.000380849
0.000380616
0.000380461
0.000380244
0.000380099
0.000379898
0.00037977
0.000379589
0.000379481
0.000379321
0.000379232
0.000379093
0.000379025
0.000378911
0.000378867
0.00037878
0.000378767
0.000378736
0.000378756
0.000378744
0.000378845
0.000378844
0.000382911
0.0117925
0.0134951
0.00102447
0.000932793
0.000854847
0.000788742
0.000733409
0.000687677
0.000649812
0.000618434
0.000592087
0.00056989
0.000550875
0.000534584
0.000520359
0.000508009
0.000497042
0.000487421
0.000478752
0.00047109
0.000464098
0.000457887
0.00045215
0.000447039
0.000442265
0.000438004
0.00043398
0.000430389
0.000426965
0.000423913
0.000420968
0.000418357
0.000415809
0.000413558
0.000411335
0.000409386
0.000407437
0.000405743
0.000404029
0.00040255
0.000401033
0.000399738
0.000398387
0.00039725
0.000396045
0.000395044
0.000393967
0.000393083
0.000392118
0.000391336
0.000390468
0.000389778
0.000388997
0.000388386
0.000387684
0.000387145
0.000386515
0.000386036
0.000385467
0.000385049
0.000384535
0.000384166
0.000383701
0.000383382
0.000382958
0.000382678
0.0003823
0.000382053
0.000381714
0.000381493
0.000381192
0.000380996
0.00038073
0.000380553
0.00038032
0.000380165
0.000379947
0.000379802
0.0003796
0.000379472
0.00037929
0.000379182
0.000379021
0.000378932
0.000378792
0.000378723
0.000378609
0.000378564
0.000378477
0.000378463
0.000378431
0.000378449
0.000378436
0.000378537
0.000378534
0.000382646
0.0118727
0.0136115
0.00102447
0.000932796
0.000854859
0.000788753
0.000733409
0.000687659
0.000649772
0.000618371
0.000592002
0.000569785
0.000550751
0.000534443
0.000520203
0.000507839
0.00049686
0.000487226
0.000478547
0.000470876
0.000463875
0.000457657
0.000451912
0.000446795
0.000442014
0.000437748
0.000433719
0.000430123
0.000426694
0.000423639
0.00042069
0.000418075
0.000415523
0.000413269
0.000411044
0.000409092
0.00040714
0.000405443
0.000403727
0.000402246
0.000400726
0.000399429
0.000398077
0.000396937
0.00039573
0.000394728
0.000393649
0.000392764
0.000391797
0.000391014
0.000390145
0.000389453
0.000388671
0.000388059
0.000387356
0.000386816
0.000386184
0.000385705
0.000385134
0.000384716
0.0003842
0.000383831
0.000383365
0.000383045
0.00038262
0.000382339
0.000381961
0.000381713
0.000381373
0.000381152
0.00038085
0.000380653
0.000380387
0.00038021
0.000379975
0.00037982
0.000379602
0.000379456
0.000379254
0.000379125
0.000378942
0.000378833
0.000378672
0.000378582
0.000378442
0.000378372
0.000378257
0.000378211
0.000378123
0.000378109
0.000378075
0.000378093
0.000378078
0.000378177
0.000378175
0.000382337
0.0119669
0.0137481
0.00102447
0.0009328
0.000854872
0.000788767
0.00073341
0.000687638
0.000649726
0.0006183
0.000591906
0.000569665
0.00055061
0.000534283
0.000520025
0.000507645
0.000496651
0.000487005
0.000478314
0.000470632
0.000463621
0.000457394
0.000451641
0.000446516
0.000441729
0.000437456
0.000433421
0.000429819
0.000426385
0.000423325
0.000420372
0.000417752
0.000415197
0.00041294
0.00041071
0.000408755
0.0004068
0.000405101
0.000403382
0.000401898
0.000400376
0.000399076
0.000397722
0.00039658
0.000395371
0.000394367
0.000393286
0.000392399
0.000391431
0.000390646
0.000389775
0.000389082
0.000388299
0.000387685
0.000386981
0.00038644
0.000385807
0.000385326
0.000384755
0.000384335
0.000383818
0.000383449
0.000382981
0.00038266
0.000382234
0.000381953
0.000381573
0.000381325
0.000380984
0.000380762
0.000380459
0.000380262
0.000379995
0.000379817
0.000379582
0.000379426
0.000379207
0.000379061
0.000378858
0.000378729
0.000378545
0.000378435
0.000378273
0.000378183
0.000378041
0.000377971
0.000377855
0.000377808
0.00037772
0.000377704
0.000377669
0.000377685
0.000377669
0.000377767
0.000377763
0.000381986
0.0120752
0.0139055
0.00102446
0.000932805
0.000854888
0.000788782
0.000733411
0.000687616
0.000649676
0.00061822
0.000591798
0.000569531
0.000550452
0.000534103
0.000519825
0.000507427
0.000496417
0.000486756
0.000478052
0.000470358
0.000463336
0.000457099
0.000451336
0.000446203
0.000441407
0.000437127
0.000433086
0.000429478
0.000426038
0.000422972
0.000420014
0.00041739
0.00041483
0.000412569
0.000410335
0.000408376
0.000406418
0.000404715
0.000402993
0.000401506
0.000399981
0.000398679
0.000397322
0.000396178
0.000394967
0.00039396
0.000392878
0.000391989
0.000391018
0.000390232
0.000389359
0.000388665
0.00038788
0.000387265
0.000386559
0.000386016
0.000385381
0.0003849
0.000384327
0.000383906
0.000383388
0.000383017
0.000382549
0.000382227
0.0003818
0.000381517
0.000381137
0.000380888
0.000380546
0.000380323
0.000380019
0.000379821
0.000379553
0.000379375
0.000379139
0.000378983
0.000378762
0.000378616
0.000378412
0.000378282
0.000378097
0.000377987
0.000377823
0.000377732
0.00037759
0.000377519
0.000377402
0.000377354
0.000377265
0.000377248
0.000377211
0.000377226
0.000377208
0.000377305
0.0003773
0.000381591
0.012198
0.0140844
0.00102446
0.000932809
0.000854905
0.000788799
0.000733413
0.000687591
0.00064962
0.000618132
0.000591679
0.000569383
0.000550277
0.000533903
0.000519603
0.000507185
0.000496157
0.00048648
0.000477761
0.000470053
0.000463019
0.00045677
0.000450997
0.000445854
0.00044105
0.000436761
0.000432712
0.000429097
0.000425651
0.00042258
0.000419615
0.000416986
0.000414421
0.000412155
0.000409918
0.000407955
0.000405992
0.000404286
0.00040256
0.00040107
0.000399542
0.000398237
0.000396877
0.000395731
0.000394517
0.000393508
0.000392423
0.000391532
0.000390559
0.000389771
0.000388896
0.0003882
0.000387413
0.000386796
0.000386088
0.000385544
0.000384908
0.000384425
0.00038385
0.000383428
0.000382909
0.000382537
0.000382067
0.000381744
0.000381316
0.000381032
0.00038065
0.0003804
0.000380057
0.000379833
0.000379529
0.00037933
0.000379061
0.000378882
0.000378645
0.000378488
0.000378267
0.00037812
0.000377914
0.000377784
0.000377598
0.000377487
0.000377323
0.000377231
0.000377088
0.000377015
0.000376897
0.000376849
0.000376758
0.00037674
0.000376701
0.000376714
0.000376694
0.00037679
0.000376784
0.000381152
0.0123351
0.0142853
0.00102446
0.000932815
0.000854923
0.000788817
0.000733415
0.000687565
0.00064956
0.000618036
0.000591548
0.00056922
0.000550084
0.000533683
0.000519359
0.000506919
0.000495871
0.000486175
0.00047744
0.000469717
0.000462669
0.000456408
0.000450624
0.00044547
0.000440656
0.000436358
0.000432301
0.000428678
0.000425225
0.000422147
0.000419176
0.000416541
0.000413971
0.0004117
0.000409457
0.000407489
0.000405523
0.000403812
0.000402082
0.000400589
0.000399057
0.000397749
0.000396386
0.000395237
0.00039402
0.000393008
0.00039192
0.000391027
0.000390052
0.000389262
0.000388384
0.000387686
0.000386897
0.000386279
0.000385569
0.000385023
0.000384385
0.000383901
0.000383324
0.000382901
0.00038238
0.000382007
0.000381535
0.000381211
0.000380781
0.000380497
0.000380113
0.000379862
0.000379518
0.000379293
0.000378988
0.000378787
0.000378517
0.000378338
0.0003781
0.000377942
0.00037772
0.000377572
0.000377366
0.000377234
0.000377048
0.000376936
0.00037677
0.000376677
0.000376533
0.000376459
0.00037634
0.00037629
0.000376199
0.000376179
0.000376139
0.00037615
0.000376127
0.000376222
0.000376214
0.000380669
0.0124862
0.0145088
0.00102445
0.00093282
0.000854944
0.000788838
0.000733418
0.000687537
0.000649495
0.000617932
0.000591407
0.000569043
0.000549875
0.000533444
0.000519093
0.000506628
0.000495559
0.000485843
0.00047709
0.00046935
0.000462287
0.000456012
0.000450215
0.00044505
0.000440225
0.000435918
0.000431851
0.00042822
0.000424759
0.000421673
0.000418695
0.000416054
0.000413478
0.000411201
0.000408953
0.00040698
0.000405009
0.000403294
0.000401559
0.000400062
0.000398527
0.000397215
0.000395848
0.000394696
0.000393476
0.000392461
0.000391371
0.000390475
0.000389497
0.000388704
0.000387824
0.000387124
0.000386333
0.000385712
0.000385
0.000384453
0.000383813
0.000383327
0.000382748
0.000382323
0.000381801
0.000381426
0.000380952
0.000380628
0.000380196
0.00037991
0.000379525
0.000379273
0.000378928
0.000378702
0.000378395
0.000378194
0.000377922
0.000377742
0.000377503
0.000377344
0.000377121
0.000376973
0.000376765
0.000376633
0.000376444
0.000376332
0.000376165
0.000376071
0.000375925
0.00037585
0.000375729
0.000375679
0.000375586
0.000375565
0.000375522
0.000375531
0.000375506
0.000375599
0.00037559
0.00038014
0.012651
0.0147551
0.00102445
0.000932826
0.000854966
0.000788861
0.000733422
0.000687508
0.000649425
0.00061782
0.000591254
0.000568851
0.000549648
0.000533185
0.000518805
0.000506314
0.00049522
0.000485483
0.000476709
0.000468952
0.000461873
0.000455582
0.000449772
0.000444594
0.000439757
0.000435439
0.000431362
0.000427722
0.000424252
0.000421158
0.000418173
0.000415525
0.000412941
0.000410659
0.000408404
0.000406427
0.00040445
0.00040273
0.000400991
0.00039949
0.00039795
0.000396634
0.000395263
0.000394108
0.000392884
0.000391867
0.000390772
0.000389874
0.000388893
0.000388098
0.000387215
0.000386513
0.000385719
0.000385096
0.000384382
0.000383832
0.00038319
0.000382702
0.000382122
0.000381695
0.00038117
0.000380794
0.000380319
0.000379992
0.000379559
0.000379272
0.000378885
0.000378632
0.000378285
0.000378058
0.000377749
0.000377547
0.000377275
0.000377093
0.000376853
0.000376694
0.000376469
0.00037632
0.000376111
0.000375978
0.000375788
0.000375674
0.000375506
0.000375411
0.000375263
0.000375188
0.000375065
0.000375013
0.000374919
0.000374897
0.000374852
0.000374858
0.00037483
0.000374922
0.000374912
0.000379566
0.0128284
0.0150245
0.00102444
0.000932833
0.00085499
0.000788886
0.000733427
0.000687477
0.000649351
0.000617701
0.00059109
0.000568646
0.000549404
0.000532907
0.000518495
0.000505975
0.000494855
0.000485094
0.0004763
0.000468522
0.000461425
0.000455119
0.000449293
0.000444101
0.000439252
0.000434922
0.000430834
0.000427184
0.000423704
0.000420602
0.000417608
0.000414952
0.000412362
0.000410072
0.000407812
0.000405828
0.000403846
0.000402121
0.000400376
0.00039887
0.000397326
0.000396006
0.000394631
0.000393472
0.000392244
0.000391223
0.000390126
0.000389224
0.00038824
0.000387442
0.000386556
0.000385851
0.000385054
0.00038443
0.000383713
0.000383161
0.000382516
0.000382027
0.000381444
0.000381015
0.000380488
0.000380111
0.000379633
0.000379305
0.00037887
0.000378581
0.000378193
0.000377938
0.00037759
0.000377361
0.000377051
0.000376848
0.000376574
0.000376391
0.00037615
0.00037599
0.000375764
0.000375614
0.000375403
0.000375269
0.000375078
0.000374963
0.000374793
0.000374697
0.000374548
0.000374471
0.000374347
0.000374293
0.000374197
0.000374173
0.000374126
0.00037413
0.000374099
0.000374189
0.000374177
0.000378946
0.0130174
0.0153171
0.00102444
0.000932839
0.000855016
0.000788914
0.000733433
0.000687445
0.000649272
0.000617574
0.000590915
0.000568427
0.000549144
0.000532608
0.000518163
0.000505611
0.000494464
0.000484677
0.00047586
0.000468061
0.000460945
0.000454621
0.000448779
0.000443572
0.000438709
0.000434366
0.000430267
0.000426605
0.000423115
0.000420004
0.000417001
0.000414337
0.000411739
0.000409442
0.000407175
0.000405185
0.000403196
0.000401465
0.000399715
0.000398204
0.000396654
0.00039533
0.000393951
0.000392787
0.000391555
0.000390531
0.000389429
0.000388525
0.000387537
0.000386736
0.000385847
0.000385139
0.000384339
0.000383712
0.000382992
0.000382439
0.000381791
0.000381299
0.000380714
0.000380284
0.000379754
0.000379375
0.000378895
0.000378566
0.000378128
0.000377838
0.000377448
0.000377192
0.000376841
0.000376612
0.0003763
0.000376095
0.000375819
0.000375636
0.000375393
0.000375232
0.000375005
0.000374853
0.000374641
0.000374506
0.000374313
0.000374197
0.000374025
0.000373928
0.000373777
0.000373699
0.000373573
0.000373518
0.00037342
0.000373394
0.000373346
0.000373346
0.000373311
0.000373401
0.000373387
0.000378279
0.0132163
0.0156329
0.00102443
0.000932846
0.000855044
0.000788943
0.00073344
0.000687412
0.00064919
0.000617439
0.00059073
0.000568193
0.000548867
0.000532291
0.000517808
0.000505224
0.000494046
0.000484232
0.00047539
0.000467569
0.000460431
0.000454088
0.000448229
0.000443006
0.000438128
0.000433772
0.00042966
0.000425986
0.000422485
0.000419364
0.000416351
0.000413678
0.000411072
0.000408767
0.000406492
0.000404495
0.0004025
0.000400763
0.000399007
0.000397491
0.000395935
0.000394606
0.000393222
0.000392054
0.000390817
0.000389789
0.000388684
0.000387775
0.000386783
0.000385979
0.000385087
0.000384376
0.000383573
0.000382943
0.00038222
0.000381664
0.000381014
0.00038052
0.000379932
0.000379499
0.000378967
0.000378586
0.000378104
0.000377773
0.000377333
0.000377041
0.000376649
0.000376391
0.000376039
0.000375808
0.000375494
0.000375288
0.000375011
0.000374826
0.000374581
0.000374419
0.00037419
0.000374038
0.000373824
0.000373688
0.000373493
0.000373376
0.000373202
0.000373103
0.000372951
0.000372871
0.000372743
0.000372686
0.000372587
0.000372559
0.000372509
0.000372506
0.000372467
0.000372555
0.000372539
0.000377564
0.0134233
0.0159714
0.00102442
0.000932853
0.000855073
0.000788975
0.000733449
0.000687378
0.000649104
0.000617298
0.000590535
0.000567947
0.000548573
0.000531954
0.000517432
0.000504812
0.000493602
0.000483759
0.00047489
0.000467044
0.000459885
0.000453521
0.000447643
0.000442403
0.000437509
0.000433138
0.000429012
0.000425326
0.000421814
0.000418681
0.000415658
0.000412976
0.00041036
0.000408047
0.000405764
0.00040376
0.000401757
0.000400014
0.000398251
0.000396729
0.000395168
0.000393834
0.000392444
0.000391271
0.00039003
0.000388998
0.000387887
0.000386975
0.000385979
0.000385172
0.000384276
0.000383562
0.000382755
0.000382123
0.000381396
0.000380837
0.000380184
0.000379688
0.000379097
0.000378662
0.000378127
0.000377744
0.000377259
0.000376926
0.000376484
0.00037619
0.000375796
0.000375537
0.000375182
0.000374949
0.000374634
0.000374426
0.000374147
0.000373961
0.000373715
0.000373551
0.000373321
0.000373167
0.000372952
0.000372814
0.000372618
0.000372499
0.000372323
0.000372223
0.000372068
0.000371987
0.000371857
0.000371799
0.000371697
0.000371668
0.000371615
0.000371609
0.000371566
0.000371652
0.000371635
0.0003768
0.0136359
0.0163321
0.00102442
0.000932861
0.000855104
0.00078901
0.000733459
0.000687343
0.000649014
0.000617149
0.000590329
0.000567687
0.000548263
0.000531598
0.000517034
0.000504376
0.000493132
0.000483257
0.00047436
0.000466488
0.000459305
0.000452919
0.000447021
0.000441763
0.000436852
0.000432465
0.000428325
0.000424626
0.0004211
0.000417956
0.000414922
0.000412229
0.000409604
0.000407282
0.00040499
0.000402978
0.000400968
0.000399218
0.000397448
0.000395919
0.000394352
0.000393012
0.000391617
0.000390439
0.000389193
0.000388156
0.000387041
0.000386124
0.000385124
0.000384313
0.000383413
0.000382696
0.000381885
0.00038125
0.00038052
0.000379958
0.000379301
0.000378802
0.000378208
0.000377771
0.000377234
0.000376848
0.000376361
0.000376025
0.000375581
0.000375285
0.000374889
0.000374627
0.000374271
0.000374036
0.000373719
0.000373509
0.000373228
0.000373041
0.000372792
0.000372628
0.000372396
0.000372241
0.000372024
0.000371884
0.000371686
0.000371565
0.000371388
0.000371286
0.000371129
0.000371046
0.000370914
0.000370854
0.00037075
0.000370719
0.000370663
0.000370655
0.000370607
0.000370691
0.000370672
0.000375988
0.0138513
0.0167141
0.00102441
0.000932868
0.000855137
0.000789047
0.000733471
0.000687309
0.000648922
0.000616995
0.000590114
0.000567414
0.000547936
0.000531223
0.000516615
0.000503916
0.000492636
0.000482728
0.0004738
0.0004659
0.000458692
0.000452283
0.000446364
0.000441085
0.000436157
0.000431753
0.000427597
0.000423884
0.000420344
0.000417188
0.000414142
0.000411439
0.000408803
0.000406471
0.00040417
0.00040215
0.000400131
0.000398374
0.000396596
0.000395061
0.000393487
0.000392142
0.00039074
0.000389557
0.000388305
0.000387263
0.000386143
0.000385223
0.000384218
0.000383403
0.000382498
0.000381777
0.000380963
0.000380324
0.00037959
0.000379025
0.000378365
0.000377864
0.000377266
0.000376826
0.000376286
0.000375898
0.000375408
0.00037507
0.000374623
0.000374325
0.000373926
0.000373662
0.000373304
0.000373067
0.000372748
0.000372537
0.000372253
0.000372064
0.000371814
0.000371648
0.000371414
0.000371258
0.000371039
0.000370898
0.000370698
0.000370575
0.000370396
0.000370292
0.000370133
0.000370048
0.000369914
0.000369852
0.000369746
0.000369712
0.000369654
0.000369643
0.000369589
0.000369672
0.000369651
0.000375124
0.0140661
0.0171161
0.0010244
0.000932876
0.000855172
0.000789086
0.000733485
0.000687274
0.000648826
0.000616834
0.000589889
0.000567128
0.000547594
0.000530829
0.000516174
0.000503433
0.000492113
0.00048217
0.00047321
0.000465281
0.000458046
0.000451612
0.00044567
0.000440371
0.000435423
0.000431001
0.000426829
0.0004231
0.000419547
0.000416377
0.000413319
0.000410604
0.000407956
0.000405615
0.000403304
0.000401275
0.000399247
0.000397482
0.000395697
0.000394155
0.000392573
0.000391221
0.000389813
0.000388625
0.000387367
0.00038632
0.000385194
0.000384269
0.000383259
0.00038244
0.000381531
0.000380806
0.000379987
0.000379345
0.000378607
0.000378039
0.000377375
0.000376871
0.00037627
0.000375827
0.000375283
0.000374893
0.0003744
0.00037406
0.00037361
0.00037331
0.000372908
0.000372642
0.000372281
0.000372043
0.000371721
0.000371508
0.000371222
0.000371032
0.000370779
0.000370612
0.000370376
0.000370219
0.000369997
0.000369855
0.000369652
0.000369528
0.000369346
0.000369241
0.000369079
0.000368993
0.000368856
0.000368791
0.000368683
0.000368647
0.000368586
0.000368572
0.000368513
0.000368594
0.000368571
0.000374209
0.0142765
0.0175363
0.0010244
0.000932884
0.000855208
0.000789129
0.000733501
0.000687239
0.000648728
0.000616667
0.000589655
0.00056683
0.000547237
0.000530417
0.000515713
0.000502926
0.000491565
0.000481584
0.00047259
0.00046463
0.000457367
0.000450907
0.000444941
0.000439619
0.000434651
0.000430211
0.000426021
0.000422275
0.000418707
0.000415523
0.000412452
0.000409724
0.000407065
0.000404713
0.000402392
0.000400353
0.000398316
0.000396542
0.000394748
0.000393199
0.00039161
0.000390251
0.000388836
0.000387642
0.000386377
0.000385325
0.000384194
0.000383264
0.000382248
0.000381425
0.000380511
0.000379782
0.000378959
0.000378313
0.000377571
0.000376999
0.000376331
0.000375824
0.000375219
0.000374774
0.000374226
0.000373833
0.000373336
0.000372994
0.000372541
0.000372238
0.000371834
0.000371566
0.000371202
0.000370962
0.000370637
0.000370422
0.000370134
0.000369942
0.000369688
0.000369519
0.000369281
0.000369122
0.000368898
0.000368754
0.000368549
0.000368423
0.000368239
0.000368131
0.000367968
0.000367879
0.000367739
0.000367673
0.000367562
0.000367523
0.00036746
0.000367442
0.000367377
0.000367457
0.000367432
0.000373241
0.0144781
0.0179722
0.00102439
0.000932892
0.000855246
0.000789173
0.00073352
0.000687205
0.000648627
0.000616495
0.000589412
0.000566519
0.000546864
0.000529987
0.00051523
0.000502396
0.000490992
0.000480971
0.000471941
0.000463948
0.000456654
0.000450167
0.000444176
0.000438831
0.000433841
0.00042938
0.000425172
0.000421409
0.000417824
0.000414626
0.00041154
0.0004088
0.000406129
0.000403765
0.000401433
0.000399384
0.000397337
0.000395554
0.000393752
0.000392194
0.000390597
0.000389231
0.000387809
0.000386608
0.000385337
0.000384279
0.000383142
0.000382206
0.000381185
0.000380357
0.000379438
0.000378705
0.000377877
0.000377227
0.00037648
0.000375905
0.000375233
0.000374722
0.000374113
0.000373665
0.000373114
0.000372718
0.000372217
0.000371873
0.000371417
0.000371111
0.000370704
0.000370433
0.000370067
0.000369824
0.000369497
0.00036928
0.000368989
0.000368795
0.000368539
0.000368368
0.000368128
0.000367967
0.000367741
0.000367595
0.000367388
0.00036726
0.000367073
0.000366964
0.000366797
0.000366707
0.000366564
0.000366496
0.000366382
0.00036634
0.000366274
0.000366254
0.000366182
0.000366261
0.000366233
0.000372218
0.0146662
0.018421
0.00102438
0.0009329
0.000855286
0.000789221
0.000733541
0.000687172
0.000648525
0.000616318
0.000589161
0.000566198
0.000546477
0.000529539
0.000514727
0.000501842
0.000490393
0.000480331
0.000471263
0.000463235
0.00045591
0.000449393
0.000443375
0.000438005
0.000432992
0.000428511
0.000424283
0.000420502
0.0004169
0.000413686
0.000410585
0.000407831
0.000405147
0.000402771
0.000400427
0.000398368
0.00039631
0.000394518
0.000392706
0.00039114
0.000389534
0.000388161
0.000386731
0.000385524
0.000384245
0.000383181
0.000382038
0.000381097
0.00038007
0.000379237
0.000378312
0.000377574
0.000376741
0.000376087
0.000375335
0.000374757
0.000374079
0.000373566
0.000372952
0.000372501
0.000371946
0.000371547
0.000371043
0.000370695
0.000370236
0.000369928
0.000369517
0.000369244
0.000368875
0.00036863
0.0003683
0.000368081
0.000367787
0.000367591
0.000367332
0.00036716
0.000366918
0.000366755
0.000366526
0.000366379
0.000366168
0.000366039
0.000365849
0.000365738
0.000365568
0.000365476
0.00036533
0.000365259
0.000365142
0.000365098
0.000365028
0.000365005
0.000364927
0.000365004
0.000364975
0.00037114
0.0148354
0.0188789
0.00102437
0.000932907
0.000855327
0.000789271
0.000733564
0.000687139
0.000648421
0.000616136
0.000588902
0.000565865
0.000546075
0.000529074
0.000514205
0.000501267
0.000489769
0.000479663
0.000470555
0.000462492
0.000455132
0.000448585
0.000442539
0.000437143
0.000432106
0.000427602
0.000423353
0.000419554
0.000415934
0.000412703
0.000409587
0.000406818
0.000404119
0.000401731
0.000399375
0.000397304
0.000395236
0.000393434
0.000391612
0.000390037
0.000388422
0.000387041
0.000385603
0.000384388
0.000383103
0.000382032
0.000380881
0.000379935
0.000378901
0.000378063
0.000377132
0.00037639
0.000375551
0.000374893
0.000374136
0.000373554
0.000372872
0.000372354
0.000371736
0.000371282
0.000370722
0.000370321
0.000369812