/*--------------------------------*- C++ -*----------------------------------*\
| =========                 |                                                 |
| \\      /  F ield         | OpenFOAM: The Open Source CFD Toolbox           |
|  \\    /   O peration     | Version:  v2012                                 |
|   \\  /    A nd           | Website:  www.openfoam.com                      |
|    \\/     M anipulation  |                                                 |
\*---------------------------------------------------------------------------*/
FoamFile
{
    version     2.0;
    format      ascii;
    class       volScalarField;
    location    "42.5";
    object      nut;
}
// * * * * * * * * * * * * * * * * * * * * * * * * * * * * * * * * * * * * * //

dimensions      [0 2 -1 0 0 0 0];


internalField   nonuniform List<scalar> 
209825
(
1.24594e-07
1.23437e-07
1.19409e-07
1.13135e-07
1.06024e-07
9.91147e-08
9.28313e-08
8.73228e-08
8.25257e-08
7.83885e-08
7.47869e-08
7.16693e-08
6.8927e-08
6.65364e-08
6.44076e-08
6.25375e-08
6.08515e-08
5.93618e-08
5.80032e-08
5.67979e-08
5.56857e-08
5.46965e-08
5.37742e-08
5.2952e-08
5.2177e-08
5.1486e-08
5.08287e-08
5.02434e-08
4.96791e-08
4.91793e-08
4.86929e-08
4.8263e-08
4.78389e-08
4.74668e-08
4.70957e-08
4.67727e-08
4.64461e-08
4.61644e-08
4.58758e-08
4.56289e-08
4.53721e-08
4.51549e-08
4.49246e-08
4.47332e-08
4.4528e-08
4.43585e-08
4.41731e-08
4.40231e-08
4.38571e-08
4.37233e-08
4.3572e-08
4.3456e-08
4.33191e-08
4.3216e-08
4.3089e-08
4.29983e-08
4.28877e-08
4.28035e-08
4.27037e-08
4.263e-08
4.25323e-08
4.24706e-08
4.23802e-08
4.23244e-08
4.22406e-08
4.21876e-08
4.21081e-08
4.20578e-08
4.19921e-08
4.19412e-08
4.18826e-08
4.18332e-08
4.178e-08
4.1734e-08
4.16818e-08
4.16363e-08
4.15859e-08
4.15421e-08
4.14951e-08
4.14537e-08
4.14096e-08
4.13692e-08
4.13277e-08
4.12877e-08
4.12494e-08
4.12099e-08
4.1175e-08
4.11368e-08
4.11115e-08
4.10722e-08
4.10491e-08
4.1006e-08
4.09843e-08
4.13341e-08
3.81317e-06
2.7185e-08
1.24594e-07
1.23437e-07
1.19409e-07
1.13136e-07
1.06026e-07
9.9117e-08
9.28337e-08
8.73252e-08
8.2528e-08
7.83907e-08
7.4789e-08
7.16712e-08
6.89287e-08
6.65381e-08
6.44091e-08
6.25389e-08
6.08528e-08
5.93629e-08
5.80042e-08
5.67988e-08
5.56866e-08
5.46973e-08
5.37749e-08
5.29526e-08
5.21776e-08
5.14865e-08
5.08291e-08
5.02438e-08
4.96794e-08
4.91797e-08
4.86931e-08
4.82632e-08
4.78391e-08
4.7467e-08
4.70959e-08
4.67728e-08
4.64462e-08
4.61644e-08
4.58758e-08
4.56289e-08
4.53721e-08
4.51549e-08
4.49246e-08
4.47331e-08
4.45279e-08
4.43584e-08
4.41729e-08
4.40229e-08
4.38569e-08
4.37232e-08
4.35718e-08
4.34557e-08
4.33188e-08
4.32157e-08
4.30888e-08
4.2998e-08
4.28875e-08
4.28032e-08
4.27034e-08
4.26297e-08
4.2532e-08
4.24703e-08
4.23798e-08
4.23241e-08
4.22402e-08
4.21873e-08
4.21077e-08
4.20574e-08
4.19918e-08
4.19408e-08
4.18822e-08
4.18328e-08
4.17796e-08
4.17336e-08
4.16813e-08
4.16359e-08
4.15855e-08
4.15417e-08
4.14947e-08
4.14533e-08
4.14092e-08
4.13688e-08
4.13273e-08
4.12872e-08
4.12489e-08
4.12095e-08
4.11745e-08
4.11363e-08
4.1111e-08
4.10717e-08
4.10486e-08
4.10055e-08
4.09838e-08
4.1334e-08
3.81316e-06
2.73974e-08
1.24593e-07
1.23438e-07
1.19413e-07
1.13143e-07
1.06034e-07
9.91266e-08
9.28435e-08
8.73349e-08
8.25372e-08
7.83993e-08
7.4797e-08
7.16786e-08
6.89355e-08
6.65443e-08
6.44148e-08
6.2544e-08
6.08575e-08
5.93672e-08
5.80081e-08
5.68023e-08
5.56898e-08
5.47002e-08
5.37775e-08
5.2955e-08
5.21797e-08
5.14884e-08
5.08308e-08
5.02453e-08
4.96807e-08
4.91808e-08
4.86941e-08
4.8264e-08
4.78398e-08
4.74675e-08
4.70963e-08
4.67731e-08
4.64464e-08
4.61645e-08
4.58758e-08
4.56288e-08
4.53719e-08
4.51546e-08
4.49242e-08
4.47326e-08
4.45274e-08
4.43578e-08
4.41723e-08
4.40223e-08
4.38562e-08
4.37224e-08
4.35709e-08
4.34548e-08
4.33179e-08
4.32147e-08
4.30877e-08
4.29969e-08
4.28863e-08
4.28021e-08
4.27022e-08
4.26285e-08
4.25308e-08
4.2469e-08
4.23785e-08
4.23227e-08
4.22388e-08
4.21859e-08
4.21063e-08
4.2056e-08
4.19903e-08
4.19393e-08
4.18807e-08
4.18313e-08
4.1778e-08
4.1732e-08
4.16798e-08
4.16343e-08
4.15838e-08
4.154e-08
4.1493e-08
4.14516e-08
4.14075e-08
4.1367e-08
4.13255e-08
4.12855e-08
4.12471e-08
4.12077e-08
4.11727e-08
4.11345e-08
4.11091e-08
4.10698e-08
4.10466e-08
4.10035e-08
4.09819e-08
4.13328e-08
3.81252e-06
2.77014e-08
1.24592e-07
1.23439e-07
1.19419e-07
1.13154e-07
1.06049e-07
9.91427e-08
9.28601e-08
8.73511e-08
8.25527e-08
7.84139e-08
7.48105e-08
7.16911e-08
6.8947e-08
6.65548e-08
6.44244e-08
6.25528e-08
6.08655e-08
5.93745e-08
5.80147e-08
5.68083e-08
5.56952e-08
5.47051e-08
5.37819e-08
5.29589e-08
5.21833e-08
5.14916e-08
5.08336e-08
5.02478e-08
4.96829e-08
4.91827e-08
4.86957e-08
4.82654e-08
4.7841e-08
4.74685e-08
4.7097e-08
4.67737e-08
4.64467e-08
4.61647e-08
4.58758e-08
4.56287e-08
4.53716e-08
4.51542e-08
4.49237e-08
4.4732e-08
4.45266e-08
4.4357e-08
4.41713e-08
4.40212e-08
4.3855e-08
4.37211e-08
4.35695e-08
4.34534e-08
4.33163e-08
4.32131e-08
4.3086e-08
4.29952e-08
4.28845e-08
4.28002e-08
4.27002e-08
4.26265e-08
4.25287e-08
4.24668e-08
4.23763e-08
4.23205e-08
4.22365e-08
4.21836e-08
4.21039e-08
4.20536e-08
4.19878e-08
4.19369e-08
4.18782e-08
4.18288e-08
4.17755e-08
4.17294e-08
4.16772e-08
4.16317e-08
4.15812e-08
4.15373e-08
4.14903e-08
4.14489e-08
4.14046e-08
4.13642e-08
4.13226e-08
4.12826e-08
4.12442e-08
4.12047e-08
4.11697e-08
4.11314e-08
4.1106e-08
4.10666e-08
4.10434e-08
4.10002e-08
4.09786e-08
4.13306e-08
3.81137e-06
2.80657e-08
1.24591e-07
1.2344e-07
1.19427e-07
1.13169e-07
1.06069e-07
9.91656e-08
9.28836e-08
8.73742e-08
8.25747e-08
7.84345e-08
7.48296e-08
7.17087e-08
6.89631e-08
6.65696e-08
6.44379e-08
6.25651e-08
6.08767e-08
5.93847e-08
5.8024e-08
5.68168e-08
5.57028e-08
5.4712e-08
5.37882e-08
5.29646e-08
5.21883e-08
5.14961e-08
5.08377e-08
5.02514e-08
4.96861e-08
4.91854e-08
4.86981e-08
4.82675e-08
4.78426e-08
4.74699e-08
4.70981e-08
4.67745e-08
4.64473e-08
4.61651e-08
4.58759e-08
4.56286e-08
4.53713e-08
4.51537e-08
4.4923e-08
4.47311e-08
4.45255e-08
4.43558e-08
4.417e-08
4.40197e-08
4.38533e-08
4.37193e-08
4.35676e-08
4.34514e-08
4.33142e-08
4.32109e-08
4.30837e-08
4.29927e-08
4.28819e-08
4.27976e-08
4.26975e-08
4.26237e-08
4.25258e-08
4.24639e-08
4.23733e-08
4.23174e-08
4.22334e-08
4.21804e-08
4.21007e-08
4.20503e-08
4.19845e-08
4.19335e-08
4.18747e-08
4.18253e-08
4.17719e-08
4.17258e-08
4.16735e-08
4.1628e-08
4.15775e-08
4.15336e-08
4.14865e-08
4.1445e-08
4.14007e-08
4.13603e-08
4.13186e-08
4.12786e-08
4.12401e-08
4.12006e-08
4.11655e-08
4.11272e-08
4.11017e-08
4.10622e-08
4.10389e-08
4.09956e-08
4.0974e-08
4.13277e-08
3.80974e-06
2.84781e-08
1.2459e-07
1.23441e-07
1.19438e-07
1.13189e-07
1.06096e-07
9.91952e-08
9.29141e-08
8.7404e-08
8.26032e-08
7.84612e-08
7.48544e-08
7.17316e-08
6.89842e-08
6.65888e-08
6.44555e-08
6.25812e-08
6.08914e-08
5.9398e-08
5.80362e-08
5.68278e-08
5.57128e-08
5.47211e-08
5.37964e-08
5.2972e-08
5.21949e-08
5.1502e-08
5.08429e-08
5.02561e-08
4.96902e-08
4.91891e-08
4.87012e-08
4.82701e-08
4.78449e-08
4.74717e-08
4.70996e-08
4.67756e-08
4.64481e-08
4.61655e-08
4.58761e-08
4.56285e-08
4.53709e-08
4.51531e-08
4.49221e-08
4.473e-08
4.45242e-08
4.43543e-08
4.41683e-08
4.40178e-08
4.38512e-08
4.37171e-08
4.35652e-08
4.34488e-08
4.33115e-08
4.32081e-08
4.30807e-08
4.29896e-08
4.28787e-08
4.27942e-08
4.2694e-08
4.26201e-08
4.25221e-08
4.24601e-08
4.23694e-08
4.23134e-08
4.22293e-08
4.21763e-08
4.20965e-08
4.20461e-08
4.19801e-08
4.19291e-08
4.18703e-08
4.18208e-08
4.17674e-08
4.17212e-08
4.16689e-08
4.16233e-08
4.15727e-08
4.15288e-08
4.14816e-08
4.14401e-08
4.13957e-08
4.13552e-08
4.13135e-08
4.12734e-08
4.12348e-08
4.11953e-08
4.11602e-08
4.11218e-08
4.10961e-08
4.10566e-08
4.10332e-08
4.09898e-08
4.09682e-08
4.13239e-08
3.80766e-06
2.89346e-08
1.24588e-07
1.23443e-07
1.19451e-07
1.13214e-07
1.06128e-07
9.92318e-08
9.29517e-08
8.74409e-08
8.26384e-08
7.84943e-08
7.48851e-08
7.17599e-08
6.90102e-08
6.66127e-08
6.44773e-08
6.26011e-08
6.09095e-08
5.94146e-08
5.80512e-08
5.68415e-08
5.57252e-08
5.47323e-08
5.38065e-08
5.29811e-08
5.22032e-08
5.15094e-08
5.08495e-08
5.02619e-08
4.96954e-08
4.91936e-08
4.87052e-08
4.82735e-08
4.78477e-08
4.7474e-08
4.71015e-08
4.67771e-08
4.64491e-08
4.61662e-08
4.58763e-08
4.56284e-08
4.53705e-08
4.51524e-08
4.49211e-08
4.47287e-08
4.45226e-08
4.43524e-08
4.41662e-08
4.40155e-08
4.38487e-08
4.37144e-08
4.35623e-08
4.34457e-08
4.33082e-08
4.32046e-08
4.30771e-08
4.29858e-08
4.28747e-08
4.27901e-08
4.26897e-08
4.26157e-08
4.25176e-08
4.24554e-08
4.23646e-08
4.23086e-08
4.22244e-08
4.21713e-08
4.20913e-08
4.20409e-08
4.19748e-08
4.19237e-08
4.18648e-08
4.18153e-08
4.17618e-08
4.17156e-08
4.16632e-08
4.16176e-08
4.15668e-08
4.15229e-08
4.14756e-08
4.1434e-08
4.13896e-08
4.1349e-08
4.13072e-08
4.1267e-08
4.12284e-08
4.11888e-08
4.11536e-08
4.11152e-08
4.10893e-08
4.10496e-08
4.10261e-08
4.09826e-08
4.0961e-08
4.13193e-08
3.80516e-06
2.9436e-08
1.24586e-07
1.23446e-07
1.19466e-07
1.13243e-07
1.06167e-07
9.92754e-08
9.29966e-08
8.7485e-08
8.26805e-08
7.85338e-08
7.49218e-08
7.17938e-08
6.90413e-08
6.66412e-08
6.45034e-08
6.26249e-08
6.09313e-08
5.94344e-08
5.80692e-08
5.68579e-08
5.57401e-08
5.47458e-08
5.38187e-08
5.29921e-08
5.22131e-08
5.15183e-08
5.08574e-08
5.0269e-08
4.97016e-08
4.9199e-08
4.87099e-08
4.82776e-08
4.78511e-08
4.74769e-08
4.71037e-08
4.67788e-08
4.64504e-08
4.6167e-08
4.58767e-08
4.56283e-08
4.537e-08
4.51516e-08
4.49199e-08
4.47272e-08
4.45208e-08
4.43503e-08
4.41638e-08
4.40128e-08
4.38458e-08
4.37112e-08
4.35588e-08
4.34421e-08
4.33043e-08
4.32005e-08
4.30728e-08
4.29813e-08
4.287e-08
4.27853e-08
4.26847e-08
4.26106e-08
4.25122e-08
4.24499e-08
4.2359e-08
4.23028e-08
4.22185e-08
4.21653e-08
4.20853e-08
4.20348e-08
4.19685e-08
4.19174e-08
4.18584e-08
4.18087e-08
4.17552e-08
4.17089e-08
4.16564e-08
4.16107e-08
4.15599e-08
4.15159e-08
4.14684e-08
4.14268e-08
4.13822e-08
4.13416e-08
4.12997e-08
4.12595e-08
4.12207e-08
4.11811e-08
4.11458e-08
4.11073e-08
4.10812e-08
4.10414e-08
4.10177e-08
4.0974e-08
4.09525e-08
4.13138e-08
3.80227e-06
2.99863e-08
1.24583e-07
1.23449e-07
1.19484e-07
1.13278e-07
1.06212e-07
9.93261e-08
9.30489e-08
8.75363e-08
8.27295e-08
7.85798e-08
7.49646e-08
7.18334e-08
6.90777e-08
6.66746e-08
6.45339e-08
6.26528e-08
6.09567e-08
5.94576e-08
5.80903e-08
5.6877e-08
5.57575e-08
5.47616e-08
5.3833e-08
5.3005e-08
5.22247e-08
5.15287e-08
5.08668e-08
5.02773e-08
4.97089e-08
4.92055e-08
4.87155e-08
4.82824e-08
4.78552e-08
4.74803e-08
4.71065e-08
4.6781e-08
4.64519e-08
4.6168e-08
4.58772e-08
4.56284e-08
4.53696e-08
4.51507e-08
4.49186e-08
4.47256e-08
4.45187e-08
4.43479e-08
4.4161e-08
4.40098e-08
4.38424e-08
4.37076e-08
4.35549e-08
4.34378e-08
4.32997e-08
4.31958e-08
4.30678e-08
4.29761e-08
4.28646e-08
4.27797e-08
4.26788e-08
4.26046e-08
4.2506e-08
4.24436e-08
4.23524e-08
4.22961e-08
4.22117e-08
4.21584e-08
4.20782e-08
4.20277e-08
4.19613e-08
4.191e-08
4.18509e-08
4.18012e-08
4.17475e-08
4.17012e-08
4.16485e-08
4.16028e-08
4.15518e-08
4.15077e-08
4.14602e-08
4.14185e-08
4.13738e-08
4.13331e-08
4.1291e-08
4.12507e-08
4.12118e-08
4.11721e-08
4.11367e-08
4.10982e-08
4.10717e-08
4.10318e-08
4.10079e-08
4.09641e-08
4.09426e-08
4.13075e-08
3.79901e-06
3.05924e-08
1.2458e-07
1.23452e-07
1.19505e-07
1.13316e-07
1.06264e-07
9.93841e-08
9.31087e-08
8.75951e-08
8.27857e-08
7.86327e-08
7.50138e-08
7.18788e-08
6.91195e-08
6.67129e-08
6.4569e-08
6.26849e-08
6.09859e-08
5.94842e-08
5.81146e-08
5.68991e-08
5.57776e-08
5.47798e-08
5.38495e-08
5.30199e-08
5.22381e-08
5.15408e-08
5.08775e-08
5.02868e-08
4.97174e-08
4.92129e-08
4.87219e-08
4.8288e-08
4.78599e-08
4.74843e-08
4.71097e-08
4.67835e-08
4.64537e-08
4.61692e-08
4.58778e-08
4.56284e-08
4.53691e-08
4.51498e-08
4.49172e-08
4.47237e-08
4.45164e-08
4.43452e-08
4.41579e-08
4.40063e-08
4.38385e-08
4.37034e-08
4.35504e-08
4.34331e-08
4.32946e-08
4.31904e-08
4.30622e-08
4.29702e-08
4.28584e-08
4.27733e-08
4.26721e-08
4.25978e-08
4.2499e-08
4.24364e-08
4.2345e-08
4.22885e-08
4.22039e-08
4.21506e-08
4.20702e-08
4.20196e-08
4.19529e-08
4.19016e-08
4.18423e-08
4.17925e-08
4.17387e-08
4.16923e-08
4.16396e-08
4.15937e-08
4.15426e-08
4.14985e-08
4.14507e-08
4.1409e-08
4.13641e-08
4.13233e-08
4.12811e-08
4.12407e-08
4.12017e-08
4.11619e-08
4.11263e-08
4.10877e-08
4.1061e-08
4.10209e-08
4.09967e-08
4.09528e-08
4.09312e-08
4.13004e-08
3.7954e-06
3.12634e-08
1.24577e-07
1.23455e-07
1.19528e-07
1.1336e-07
1.06322e-07
9.94494e-08
9.31762e-08
8.76615e-08
8.28492e-08
7.86924e-08
7.50694e-08
7.19301e-08
6.91667e-08
6.67562e-08
6.46087e-08
6.27212e-08
6.10191e-08
5.95145e-08
5.81422e-08
5.69242e-08
5.58004e-08
5.48005e-08
5.38682e-08
5.30368e-08
5.22533e-08
5.15545e-08
5.08898e-08
5.02978e-08
4.9727e-08
4.92214e-08
4.87293e-08
4.82944e-08
4.78654e-08
4.74888e-08
4.71134e-08
4.67864e-08
4.64559e-08
4.61707e-08
4.58785e-08
4.56286e-08
4.53686e-08
4.51488e-08
4.49156e-08
4.47217e-08
4.45139e-08
4.43423e-08
4.41544e-08
4.40025e-08
4.38343e-08
4.36988e-08
4.35454e-08
4.34277e-08
4.32889e-08
4.31845e-08
4.30559e-08
4.29636e-08
4.28515e-08
4.27661e-08
4.26647e-08
4.25901e-08
4.24911e-08
4.24282e-08
4.23366e-08
4.228e-08
4.21952e-08
4.21418e-08
4.20612e-08
4.20104e-08
4.19436e-08
4.18922e-08
4.18327e-08
4.17828e-08
4.17289e-08
4.16824e-08
4.16295e-08
4.15836e-08
4.15323e-08
4.1488e-08
4.14401e-08
4.13983e-08
4.13532e-08
4.13124e-08
4.12699e-08
4.12295e-08
4.11903e-08
4.11504e-08
4.11147e-08
4.1076e-08
4.1049e-08
4.10087e-08
4.09842e-08
4.09402e-08
4.09185e-08
4.12925e-08
3.79143e-06
3.20098e-08
1.24573e-07
1.23459e-07
1.19553e-07
1.13408e-07
1.06386e-07
9.95223e-08
9.32515e-08
8.77357e-08
8.29202e-08
7.87592e-08
7.51315e-08
7.19876e-08
6.92197e-08
6.68048e-08
6.46532e-08
6.27619e-08
6.10563e-08
5.95484e-08
5.81731e-08
5.69523e-08
5.5826e-08
5.48237e-08
5.38892e-08
5.30559e-08
5.22705e-08
5.15699e-08
5.09036e-08
5.03101e-08
4.9738e-08
4.92311e-08
4.87377e-08
4.83016e-08
4.78716e-08
4.7494e-08
4.71176e-08
4.67898e-08
4.64584e-08
4.61724e-08
4.58795e-08
4.56289e-08
4.53682e-08
4.51478e-08
4.4914e-08
4.47195e-08
4.45111e-08
4.4339e-08
4.41507e-08
4.39983e-08
4.38296e-08
4.36938e-08
4.35398e-08
4.34218e-08
4.32826e-08
4.31779e-08
4.30489e-08
4.29563e-08
4.28438e-08
4.27582e-08
4.26564e-08
4.25817e-08
4.24823e-08
4.24192e-08
4.23274e-08
4.22705e-08
4.21856e-08
4.2132e-08
4.20512e-08
4.20003e-08
4.19332e-08
4.18818e-08
4.18221e-08
4.1772e-08
4.1718e-08
4.16714e-08
4.16183e-08
4.15723e-08
4.15208e-08
4.14764e-08
4.14283e-08
4.13864e-08
4.13411e-08
4.13002e-08
4.12575e-08
4.1217e-08
4.11775e-08
4.11376e-08
4.11017e-08
4.10629e-08
4.10356e-08
4.0995e-08
4.09702e-08
4.0926e-08
4.09043e-08
4.12837e-08
3.78709e-06
3.28434e-08
1.24569e-07
1.23463e-07
1.19581e-07
1.13462e-07
1.06458e-07
9.96027e-08
9.33348e-08
8.78178e-08
8.29989e-08
7.88332e-08
7.52005e-08
7.20514e-08
6.92784e-08
6.68588e-08
6.47026e-08
6.28071e-08
6.10976e-08
5.95861e-08
5.82075e-08
5.69837e-08
5.58545e-08
5.48496e-08
5.39127e-08
5.30771e-08
5.22896e-08
5.15871e-08
5.0919e-08
5.03239e-08
4.97502e-08
4.92418e-08
4.87471e-08
4.83098e-08
4.78785e-08
4.74999e-08
4.71224e-08
4.67936e-08
4.64613e-08
4.61744e-08
4.58807e-08
4.56293e-08
4.53679e-08
4.51467e-08
4.49122e-08
4.47171e-08
4.45081e-08
4.43355e-08
4.41466e-08
4.39937e-08
4.38245e-08
4.36882e-08
4.35338e-08
4.34154e-08
4.32757e-08
4.31706e-08
4.30412e-08
4.29483e-08
4.28354e-08
4.27496e-08
4.26473e-08
4.25724e-08
4.24727e-08
4.24094e-08
4.23172e-08
4.226e-08
4.21749e-08
4.21212e-08
4.20401e-08
4.19892e-08
4.19218e-08
4.18702e-08
4.18103e-08
4.17602e-08
4.17059e-08
4.16592e-08
4.16059e-08
4.15598e-08
4.15082e-08
4.14637e-08
4.14153e-08
4.13732e-08
4.13277e-08
4.12867e-08
4.12439e-08
4.12032e-08
4.11635e-08
4.11235e-08
4.10874e-08
4.10485e-08
4.10208e-08
4.098e-08
4.09548e-08
4.09105e-08
4.08887e-08
4.1274e-08
3.78233e-06
3.37773e-08
1.24565e-07
1.23467e-07
1.19612e-07
1.1352e-07
1.06535e-07
9.96908e-08
9.34261e-08
8.79079e-08
8.30853e-08
7.89147e-08
7.52764e-08
7.21217e-08
6.93432e-08
6.69182e-08
6.47571e-08
6.2857e-08
6.11432e-08
5.96278e-08
5.82455e-08
5.70183e-08
5.58859e-08
5.48782e-08
5.39386e-08
5.31006e-08
5.23108e-08
5.16062e-08
5.09361e-08
5.03392e-08
4.97638e-08
4.92538e-08
4.87576e-08
4.83189e-08
4.78863e-08
4.75065e-08
4.71278e-08
4.67979e-08
4.64645e-08
4.61768e-08
4.58821e-08
4.56299e-08
4.53676e-08
4.51457e-08
4.49105e-08
4.47147e-08
4.4505e-08
4.43318e-08
4.41422e-08
4.39888e-08
4.3819e-08
4.36823e-08
4.35273e-08
4.34084e-08
4.32683e-08
4.31628e-08
4.30329e-08
4.29396e-08
4.28263e-08
4.27401e-08
4.26375e-08
4.25623e-08
4.24622e-08
4.23986e-08
4.23061e-08
4.22486e-08
4.21633e-08
4.21095e-08
4.20281e-08
4.1977e-08
4.19094e-08
4.18577e-08
4.17974e-08
4.17472e-08
4.16927e-08
4.16459e-08
4.15924e-08
4.15462e-08
4.14943e-08
4.14497e-08
4.14011e-08
4.13589e-08
4.13131e-08
4.1272e-08
4.12289e-08
4.11882e-08
4.11482e-08
4.11081e-08
4.10718e-08
4.10327e-08
4.10047e-08
4.09636e-08
4.0938e-08
4.08935e-08
4.08716e-08
4.12635e-08
3.77706e-06
3.48251e-08
1.2456e-07
1.23471e-07
1.19644e-07
1.13583e-07
1.0662e-07
9.97867e-08
9.35257e-08
8.80063e-08
8.31797e-08
7.90037e-08
7.53595e-08
7.21986e-08
6.94141e-08
6.69834e-08
6.48169e-08
6.29117e-08
6.11932e-08
5.96735e-08
5.82872e-08
5.70563e-08
5.59206e-08
5.49097e-08
5.39672e-08
5.31265e-08
5.23342e-08
5.16273e-08
5.0955e-08
5.03561e-08
4.97788e-08
4.92671e-08
4.87693e-08
4.83291e-08
4.7895e-08
4.75138e-08
4.71339e-08
4.68029e-08
4.64683e-08
4.61795e-08
4.58837e-08
4.56306e-08
4.53674e-08
4.51448e-08
4.49087e-08
4.47122e-08
4.45016e-08
4.43278e-08
4.41376e-08
4.39836e-08
4.38131e-08
4.36759e-08
4.35203e-08
4.3401e-08
4.32602e-08
4.31543e-08
4.3024e-08
4.29302e-08
4.28165e-08
4.27299e-08
4.26268e-08
4.25514e-08
4.24508e-08
4.23869e-08
4.22941e-08
4.22363e-08
4.21507e-08
4.20967e-08
4.20151e-08
4.19638e-08
4.18958e-08
4.18441e-08
4.17835e-08
4.17331e-08
4.16784e-08
4.16315e-08
4.15778e-08
4.15314e-08
4.14793e-08
4.14345e-08
4.13857e-08
4.13433e-08
4.12973e-08
4.1256e-08
4.12126e-08
4.11718e-08
4.11316e-08
4.10913e-08
4.10547e-08
4.10155e-08
4.09871e-08
4.09458e-08
4.09197e-08
4.0875e-08
4.08531e-08
4.12521e-08
3.77114e-06
3.60011e-08
1.24555e-07
1.23476e-07
1.19679e-07
1.13651e-07
1.06711e-07
9.98905e-08
9.36337e-08
8.81131e-08
8.32823e-08
7.91005e-08
7.54498e-08
7.22823e-08
6.94913e-08
6.70544e-08
6.4882e-08
6.29714e-08
6.12479e-08
5.97234e-08
5.83327e-08
5.70979e-08
5.59584e-08
5.49441e-08
5.39984e-08
5.31548e-08
5.23598e-08
5.16504e-08
5.09757e-08
5.03747e-08
4.97953e-08
4.92818e-08
4.87821e-08
4.83403e-08
4.79046e-08
4.7522e-08
4.71406e-08
4.68084e-08
4.64725e-08
4.61827e-08
4.58857e-08
4.56317e-08
4.53674e-08
4.51439e-08
4.49069e-08
4.47096e-08
4.44982e-08
4.43237e-08
4.41327e-08
4.3978e-08
4.38068e-08
4.36691e-08
4.35128e-08
4.3393e-08
4.32516e-08
4.31453e-08
4.30144e-08
4.29201e-08
4.28059e-08
4.2719e-08
4.26153e-08
4.25396e-08
4.24386e-08
4.23744e-08
4.22811e-08
4.2223e-08
4.21371e-08
4.2083e-08
4.20011e-08
4.19495e-08
4.18812e-08
4.18294e-08
4.17685e-08
4.1718e-08
4.1663e-08
4.16159e-08
4.1562e-08
4.15155e-08
4.14631e-08
4.14182e-08
4.1369e-08
4.13265e-08
4.12802e-08
4.12388e-08
4.11951e-08
4.11541e-08
4.11136e-08
4.10732e-08
4.10364e-08
4.0997e-08
4.09683e-08
4.09266e-08
4.08999e-08
4.0855e-08
4.0833e-08
4.12399e-08
3.76439e-06
3.73199e-08
1.2455e-07
1.23481e-07
1.19717e-07
1.13723e-07
1.06809e-07
1.00002e-07
9.37502e-08
8.82284e-08
8.33932e-08
7.92053e-08
7.55477e-08
7.23731e-08
6.95751e-08
6.71315e-08
6.49528e-08
6.30363e-08
6.13072e-08
5.97777e-08
5.83823e-08
5.71431e-08
5.59996e-08
5.49816e-08
5.40325e-08
5.31857e-08
5.23878e-08
5.16757e-08
5.09984e-08
5.0395e-08
4.98134e-08
4.92979e-08
4.87962e-08
4.83526e-08
4.79152e-08
4.75311e-08
4.71482e-08
4.68146e-08
4.64774e-08
4.61863e-08
4.58881e-08
4.5633e-08
4.53676e-08
4.51431e-08
4.49051e-08
4.4707e-08
4.44947e-08
4.43194e-08
4.41276e-08
4.39722e-08
4.38002e-08
4.36619e-08
4.35049e-08
4.33845e-08
4.32425e-08
4.31356e-08
4.30042e-08
4.29094e-08
4.27946e-08
4.27073e-08
4.26031e-08
4.25271e-08
4.24255e-08
4.2361e-08
4.22673e-08
4.22088e-08
4.21225e-08
4.20683e-08
4.1986e-08
4.19343e-08
4.18656e-08
4.18137e-08
4.17523e-08
4.17017e-08
4.16465e-08
4.15992e-08
4.15451e-08
4.14984e-08
4.14457e-08
4.14006e-08
4.13511e-08
4.13085e-08
4.12618e-08
4.12202e-08
4.11762e-08
4.11351e-08
4.10943e-08
4.10538e-08
4.10166e-08
4.09771e-08
4.0948e-08
4.09059e-08
4.08786e-08
4.08336e-08
4.08114e-08
4.12267e-08
3.75656e-06
3.87963e-08
1.24544e-07
1.23486e-07
1.19756e-07
1.13801e-07
1.06915e-07
1.00122e-07
9.38753e-08
8.83525e-08
8.35127e-08
7.93182e-08
7.56532e-08
7.24711e-08
6.96655e-08
6.72147e-08
6.50293e-08
6.31064e-08
6.13715e-08
5.98365e-08
5.8436e-08
5.71922e-08
5.60443e-08
5.50224e-08
5.40695e-08
5.32193e-08
5.24182e-08
5.17031e-08
5.10231e-08
5.04172e-08
4.98332e-08
4.93155e-08
4.88117e-08
4.83662e-08
4.7927e-08
4.75412e-08
4.71566e-08
4.68215e-08
4.64828e-08
4.61904e-08
4.58909e-08
4.56346e-08
4.5368e-08
4.51425e-08
4.49034e-08
4.47044e-08
4.44911e-08
4.4315e-08
4.41222e-08
4.39662e-08
4.37933e-08
4.36544e-08
4.34966e-08
4.33756e-08
4.32329e-08
4.31255e-08
4.29934e-08
4.2898e-08
4.27826e-08
4.26949e-08
4.259e-08
4.25137e-08
4.24117e-08
4.23467e-08
4.22526e-08
4.21937e-08
4.2107e-08
4.20526e-08
4.197e-08
4.1918e-08
4.18489e-08
4.17969e-08
4.17351e-08
4.16843e-08
4.16288e-08
4.15814e-08
4.1527e-08
4.14801e-08
4.14271e-08
4.13818e-08
4.1332e-08
4.12892e-08
4.12422e-08
4.12004e-08
4.11561e-08
4.11148e-08
4.10736e-08
4.1033e-08
4.09955e-08
4.09558e-08
4.09264e-08
4.08839e-08
4.08559e-08
4.08107e-08
4.07884e-08
4.12126e-08
3.74734e-06
4.04454e-08
1.24538e-07
1.23491e-07
1.19798e-07
1.13883e-07
1.07026e-07
1.0025e-07
9.40092e-08
8.84854e-08
8.36409e-08
7.94395e-08
7.57667e-08
7.25764e-08
6.97629e-08
6.73044e-08
6.51117e-08
6.31821e-08
6.14408e-08
5.99e-08
5.8494e-08
5.72452e-08
5.60927e-08
5.50664e-08
5.41096e-08
5.32557e-08
5.24512e-08
5.1733e-08
5.105e-08
5.04414e-08
4.98548e-08
4.93347e-08
4.88286e-08
4.83811e-08
4.79398e-08
4.75522e-08
4.71658e-08
4.68291e-08
4.64889e-08
4.6195e-08
4.58941e-08
4.56366e-08
4.53687e-08
4.51421e-08
4.49019e-08
4.47018e-08
4.44875e-08
4.43105e-08
4.41168e-08
4.39599e-08
4.37862e-08
4.36465e-08
4.34879e-08
4.33662e-08
4.32227e-08
4.31148e-08
4.2982e-08
4.28861e-08
4.277e-08
4.26818e-08
4.25763e-08
4.24996e-08
4.2397e-08
4.23316e-08
4.2237e-08
4.21777e-08
4.20906e-08
4.2036e-08
4.1953e-08
4.19006e-08
4.18312e-08
4.17791e-08
4.17168e-08
4.16659e-08
4.161e-08
4.15624e-08
4.15077e-08
4.14606e-08
4.14074e-08
4.13619e-08
4.13117e-08
4.12686e-08
4.12213e-08
4.11794e-08
4.11347e-08
4.10932e-08
4.10516e-08
4.10108e-08
4.0973e-08
4.09331e-08
4.09034e-08
4.08604e-08
4.08316e-08
4.07862e-08
4.07638e-08
4.11975e-08
3.73633e-06
4.22819e-08
1.24532e-07
1.23496e-07
1.19842e-07
1.1397e-07
1.07145e-07
1.00387e-07
9.4152e-08
8.86275e-08
8.3778e-08
7.95693e-08
7.58883e-08
7.26894e-08
6.98674e-08
6.74008e-08
6.52003e-08
6.32634e-08
6.15154e-08
5.99683e-08
5.85565e-08
5.73023e-08
5.61448e-08
5.5114e-08
5.41529e-08
5.32951e-08
5.24868e-08
5.17653e-08
5.10791e-08
5.04676e-08
4.98782e-08
4.93555e-08
4.88471e-08
4.83973e-08
4.79539e-08
4.75644e-08
4.71761e-08
4.68377e-08
4.64957e-08
4.62004e-08
4.58979e-08
4.5639e-08
4.53698e-08
4.5142e-08
4.49005e-08
4.46994e-08
4.44839e-08
4.4306e-08
4.41112e-08
4.39535e-08
4.37788e-08
4.36384e-08
4.34788e-08
4.33565e-08
4.32122e-08
4.31036e-08
4.29701e-08
4.28735e-08
4.27568e-08
4.26681e-08
4.25618e-08
4.24847e-08
4.23815e-08
4.23156e-08
4.22205e-08
4.21608e-08
4.20732e-08
4.20184e-08
4.19351e-08
4.18823e-08
4.18125e-08
4.17603e-08
4.16974e-08
4.16464e-08
4.15901e-08
4.15423e-08
4.14873e-08
4.14401e-08
4.13864e-08
4.13407e-08
4.12902e-08
4.12469e-08
4.11991e-08
4.1157e-08
4.11119e-08
4.10703e-08
4.10283e-08
4.09873e-08
4.09491e-08
4.0909e-08
4.08789e-08
4.08356e-08
4.08059e-08
4.07603e-08
4.07378e-08
4.11815e-08
3.72308e-06
4.432e-08
1.24525e-07
1.23501e-07
1.19888e-07
1.14062e-07
1.07271e-07
1.00531e-07
9.43039e-08
8.87788e-08
8.39242e-08
7.9708e-08
7.60182e-08
7.28103e-08
6.99793e-08
6.75039e-08
6.52952e-08
6.33506e-08
6.15954e-08
6.00416e-08
5.86237e-08
5.73637e-08
5.62009e-08
5.51652e-08
5.41995e-08
5.33375e-08
5.25253e-08
5.18002e-08
5.11106e-08
5.04959e-08
4.99036e-08
4.93782e-08
4.88671e-08
4.84151e-08
4.79694e-08
4.75777e-08
4.71874e-08
4.68472e-08
4.65034e-08
4.62064e-08
4.59023e-08
4.5642e-08
4.53713e-08
4.51422e-08
4.48994e-08
4.46971e-08
4.44804e-08
4.43015e-08
4.41056e-08
4.39469e-08
4.37712e-08
4.363e-08
4.34695e-08
4.33464e-08
4.32012e-08
4.30919e-08
4.29577e-08
4.28604e-08
4.27429e-08
4.26537e-08
4.25467e-08
4.24692e-08
4.23653e-08
4.22989e-08
4.22032e-08
4.2143e-08
4.20549e-08
4.19999e-08
4.19162e-08
4.1863e-08
4.17928e-08
4.17404e-08
4.1677e-08
4.16258e-08
4.15692e-08
4.15212e-08
4.14658e-08
4.14183e-08
4.13643e-08
4.13184e-08
4.12674e-08
4.12239e-08
4.11757e-08
4.11334e-08
4.10879e-08
4.10461e-08
4.10037e-08
4.09625e-08
4.09239e-08
4.08835e-08
4.0853e-08
4.08093e-08
4.07787e-08
4.0733e-08
4.07102e-08
4.11643e-08
3.70707e-06
4.6574e-08
1.24518e-07
1.23506e-07
1.19936e-07
1.14159e-07
1.07404e-07
1.00685e-07
9.4465e-08
8.89395e-08
8.40797e-08
7.98556e-08
7.61568e-08
7.29392e-08
7.00987e-08
6.76141e-08
6.53967e-08
6.34439e-08
6.1681e-08
6.01202e-08
5.86956e-08
5.74296e-08
5.62611e-08
5.52201e-08
5.42496e-08
5.33832e-08
5.25668e-08
5.18378e-08
5.11445e-08
5.05266e-08
4.99311e-08
4.94028e-08
4.8889e-08
4.84344e-08
4.79862e-08
4.75924e-08
4.71999e-08
4.68577e-08
4.65119e-08
4.62132e-08
4.59074e-08
4.56455e-08
4.53732e-08
4.51428e-08
4.48986e-08
4.46951e-08
4.4477e-08
4.4297e-08
4.41e-08
4.39403e-08
4.37635e-08
4.36215e-08
4.34599e-08
4.3336e-08
4.31898e-08
4.30799e-08
4.29448e-08
4.28468e-08
4.27285e-08
4.26387e-08
4.25309e-08
4.24529e-08
4.23483e-08
4.22814e-08
4.21852e-08
4.21244e-08
4.20358e-08
4.19805e-08
4.18965e-08
4.18428e-08
4.1772e-08
4.17195e-08
4.16556e-08
4.16042e-08
4.15471e-08
4.14989e-08
4.14432e-08
4.13955e-08
4.13411e-08
4.12949e-08
4.12435e-08
4.11998e-08
4.11511e-08
4.11086e-08
4.10626e-08
4.10206e-08
4.09777e-08
4.09363e-08
4.08973e-08
4.08567e-08
4.08257e-08
4.07817e-08
4.07501e-08
4.07042e-08
4.06812e-08
4.11461e-08
3.68769e-06
4.90565e-08
1.2451e-07
1.23511e-07
1.19987e-07
1.1426e-07
1.07544e-07
1.00846e-07
9.46354e-08
8.91099e-08
8.42447e-08
8.00125e-08
7.63041e-08
7.30765e-08
7.0226e-08
6.77317e-08
6.5505e-08
6.35435e-08
6.17725e-08
6.02041e-08
5.87726e-08
5.75001e-08
5.63256e-08
5.52791e-08
5.43034e-08
5.34322e-08
5.26114e-08
5.18783e-08
5.11812e-08
5.05597e-08
4.99608e-08
4.94295e-08
4.89126e-08
4.84553e-08
4.80046e-08
4.76084e-08
4.72136e-08
4.68693e-08
4.65214e-08
4.62209e-08
4.59132e-08
4.56497e-08
4.53757e-08
4.51439e-08
4.48981e-08
4.46933e-08
4.44739e-08
4.42927e-08
4.40944e-08
4.39337e-08
4.37557e-08
4.36128e-08
4.34501e-08
4.33253e-08
4.31781e-08
4.30674e-08
4.29315e-08
4.28327e-08
4.27135e-08
4.26232e-08
4.25144e-08
4.2436e-08
4.23307e-08
4.22632e-08
4.21663e-08
4.2105e-08
4.20158e-08
4.19602e-08
4.18758e-08
4.18216e-08
4.17504e-08
4.16977e-08
4.16331e-08
4.15816e-08
4.1524e-08
4.14756e-08
4.14195e-08
4.13716e-08
4.13168e-08
4.12703e-08
4.12184e-08
4.11744e-08
4.11253e-08
4.10826e-08
4.10361e-08
4.09939e-08
4.09504e-08
4.09088e-08
4.08693e-08
4.08285e-08
4.0797e-08
4.07527e-08
4.072e-08
4.06739e-08
4.06507e-08
4.11267e-08
3.66429e-06
5.1778e-08
1.24503e-07
1.23517e-07
1.20039e-07
1.14366e-07
1.0769e-07
1.01016e-07
9.48152e-08
8.92899e-08
8.44195e-08
8.01788e-08
7.64604e-08
7.32223e-08
7.03612e-08
6.78567e-08
6.56203e-08
6.36497e-08
6.18701e-08
6.02938e-08
5.88548e-08
5.75755e-08
5.63946e-08
5.53422e-08
5.4361e-08
5.34848e-08
5.26592e-08
5.19218e-08
5.12206e-08
5.05953e-08
4.99929e-08
4.94583e-08
4.89383e-08
4.84781e-08
4.80246e-08
4.76259e-08
4.72286e-08
4.68821e-08
4.65321e-08
4.62296e-08
4.59199e-08
4.56547e-08
4.53789e-08
4.51455e-08
4.48981e-08
4.46919e-08
4.4471e-08
4.42887e-08
4.4089e-08
4.39272e-08
4.37479e-08
4.3604e-08
4.34402e-08
4.33144e-08
4.31662e-08
4.30547e-08
4.29178e-08
4.28182e-08
4.26981e-08
4.26071e-08
4.24975e-08
4.24185e-08
4.23124e-08
4.22444e-08
4.21468e-08
4.20849e-08
4.19951e-08
4.19391e-08
4.18542e-08
4.17995e-08
4.17278e-08
4.16749e-08
4.16097e-08
4.15581e-08
4.14999e-08
4.14513e-08
4.13948e-08
4.13466e-08
4.12913e-08
4.12446e-08
4.11922e-08
4.1148e-08
4.10983e-08
4.10553e-08
4.10083e-08
4.09659e-08
4.09219e-08
4.08801e-08
4.08401e-08
4.0799e-08
4.0767e-08
4.07223e-08
4.06885e-08
4.06422e-08
4.06187e-08
4.11061e-08
3.63614e-06
5.47469e-08
1.24495e-07
1.23522e-07
1.20092e-07
1.14476e-07
1.07844e-07
1.01195e-07
9.50047e-08
8.948e-08
8.46042e-08
8.03548e-08
7.66261e-08
7.3377e-08
7.05048e-08
6.79895e-08
6.57429e-08
6.37626e-08
6.1974e-08
6.03892e-08
5.89425e-08
5.76559e-08
5.64683e-08
5.54097e-08
5.44227e-08
5.35411e-08
5.27105e-08
5.19685e-08
5.12629e-08
5.06337e-08
5.00275e-08
4.94894e-08
4.8966e-08
4.85029e-08
4.80464e-08
4.76451e-08
4.72451e-08
4.68963e-08
4.65439e-08
4.62393e-08
4.59275e-08
4.56605e-08
4.53828e-08
4.51478e-08
4.48987e-08
4.4691e-08
4.44685e-08
4.42848e-08
4.40837e-08
4.39207e-08
4.37401e-08
4.35952e-08
4.34301e-08
4.33034e-08
4.31541e-08
4.30417e-08
4.29038e-08
4.28033e-08
4.26823e-08
4.25906e-08
4.248e-08
4.24005e-08
4.22935e-08
4.22248e-08
4.21265e-08
4.20641e-08
4.19735e-08
4.19172e-08
4.18319e-08
4.17766e-08
4.17043e-08
4.16512e-08
4.15854e-08
4.15336e-08
4.14748e-08
4.1426e-08
4.1369e-08
4.13206e-08
4.12648e-08
4.12178e-08
4.11649e-08
4.11204e-08
4.10701e-08
4.10269e-08
4.09794e-08
4.09367e-08
4.08922e-08
4.08501e-08
4.08095e-08
4.07682e-08
4.07356e-08
4.06906e-08
4.06556e-08
4.06091e-08
4.05854e-08
4.10841e-08
3.6025e-06
5.7968e-08
1.24486e-07
1.23527e-07
1.20148e-07
1.14591e-07
1.08004e-07
1.01383e-07
9.52038e-08
8.96801e-08
8.47991e-08
8.05408e-08
7.68013e-08
7.35407e-08
7.0657e-08
6.81304e-08
6.5873e-08
6.38826e-08
6.20845e-08
6.04908e-08
5.90358e-08
5.77416e-08
5.65469e-08
5.54817e-08
5.44885e-08
5.36013e-08
5.27655e-08
5.20186e-08
5.13083e-08
5.06749e-08
5.00647e-08
4.95229e-08
4.8996e-08
4.85297e-08
4.80701e-08
4.76659e-08
4.72632e-08
4.69119e-08
4.6557e-08
4.62503e-08
4.59362e-08
4.56672e-08
4.53875e-08
4.51508e-08
4.48999e-08
4.46906e-08
4.44665e-08
4.42814e-08
4.40788e-08
4.39145e-08
4.37325e-08