/*--------------------------------*- C++ -*----------------------------------*\
| =========                 |                                                 |
| \\      /  F ield         | OpenFOAM: The Open Source CFD Toolbox           |
|  \\    /   O peration     | Version:  v2012                                 |
|   \\  /    A nd           | Website:  www.openfoam.com                      |
|    \\/     M anipulation  |                                                 |
\*---------------------------------------------------------------------------*/
FoamFile
{
    version     2.0;
    format      ascii;
    class       volVectorField;
    location    "42.5";
    object      wallShearStress;
}
// * * * * * * * * * * * * * * * * * * * * * * * * * * * * * * * * * * * * * //

dimensions      [0 2 -2 0 0 0 0];


internalField   uniform (0 0 0);

boundaryField
{
    inlet
    {
        type            calculated;
        value           uniform (0 0 0);
    }
    outlet
    {
        type            calculated;
        value           uniform (0 0 0);
    }
    topWall
    {
        type            calculated;
        value           nonuniform List<vector> 
545
(
(6.74998e-08 -4.75099e-08 0)
(6.74858e-08 -1.32929e-07 0)
(6.74363e-08 -2.21738e-07 0)
(6.7371e-08 -3.07962e-07 0)
(6.72937e-08 -3.90501e-07 0)
(6.72029e-08 -4.70416e-07 0)
(6.70996e-08 -5.48386e-07 0)
(6.69844e-08 -6.24375e-07 0)
(6.68585e-08 -6.98214e-07 0)
(6.67228e-08 -7.69903e-07 0)
(6.65782e-08 -8.39536e-07 0)
(6.64256e-08 -9.07192e-07 0)
(6.62658e-08 -9.72917e-07 0)
(6.60996e-08 -1.03675e-06 0)
(6.59276e-08 -1.09874e-06 0)
(6.57506e-08 -1.15894e-06 0)
(6.55692e-08 -1.21738e-06 0)
(6.53839e-08 -1.27413e-06 0)
(6.51953e-08 -1.32922e-06 0)
(6.50039e-08 -1.38271e-06 0)
(6.48103e-08 -1.43462e-06 0)
(6.46147e-08 -1.48502e-06 0)
(6.44177e-08 -1.53394e-06 0)
(6.42197e-08 -1.58143e-06 0)
(6.4021e-08 -1.62752e-06 0)
(6.38219e-08 -1.67225e-06 0)
(6.36227e-08 -1.71567e-06 0)
(6.34238e-08 -1.75781e-06 0)
(6.32253e-08 -1.79872e-06 0)
(6.30276e-08 -1.83842e-06 0)
(6.28308e-08 -1.87695e-06 0)
(6.26352e-08 -1.91435e-06 0)
(6.24409e-08 -1.95064e-06 0)
(6.22482e-08 -1.98588e-06 0)
(6.20571e-08 -2.02008e-06 0)
(6.18678e-08 -2.05327e-06 0)
(6.16804e-08 -2.08549e-06 0)
(6.14951e-08 -2.11677e-06 0)
(6.13119e-08 -2.14713e-06 0)
(6.1131e-08 -2.1766e-06 0)
(6.09524e-08 -2.20521e-06 0)
(6.07762e-08 -2.23299e-06 0)
(6.06024e-08 -2.25995e-06 0)
(6.04311e-08 -2.28613e-06 0)
(6.02624e-08 -2.31155e-06 0)
(6.00962e-08 -2.33623e-06 0)
(5.99327e-08 -2.36019e-06 0)
(5.97718e-08 -2.38346e-06 0)
(5.96136e-08 -2.40605e-06 0)
(5.94581e-08 -2.42799e-06 0)
(5.93052e-08 -2.4493e-06 0)
(5.9155e-08 -2.46999e-06 0)
(5.90075e-08 -2.49008e-06 0)
(5.88627e-08 -2.5096e-06 0)
(5.87205e-08 -2.52856e-06 0)
(5.8581e-08 -2.54697e-06 0)
(5.84441e-08 -2.56485e-06 0)
(5.83099e-08 -2.58222e-06 0)
(5.81782e-08 -2.5991e-06 0)
(5.80491e-08 -2.61549e-06 0)
(5.79226e-08 -2.63142e-06 0)
(5.77986e-08 -2.64689e-06 0)
(5.76771e-08 -2.66193e-06 0)
(5.75581e-08 -2.67653e-06 0)
(5.74415e-08 -2.69072e-06 0)
(5.73273e-08 -2.70452e-06 0)
(5.72154e-08 -2.71792e-06 0)
(5.71059e-08 -2.73094e-06 0)
(5.69987e-08 -2.74359e-06 0)
(5.68938e-08 -2.75589e-06 0)
(5.67912e-08 -2.76784e-06 0)
(5.669e-08 -2.77944e-06 0)
(5.65922e-08 -2.7906e-06 0)
(5.64981e-08 -2.80143e-06 0)
(5.64049e-08 -2.81214e-06 0)
(5.63119e-08 -2.82279e-06 0)
(5.6219e-08 -2.83339e-06 0)
(5.61263e-08 -2.84393e-06 0)
(5.60336e-08 -2.8544e-06 0)
(5.5941e-08 -2.86481e-06 0)
(5.58485e-08 -2.87514e-06 0)
(5.57562e-08 -2.88542e-06 0)
(5.56639e-08 -2.89563e-06 0)
(5.55717e-08 -2.90578e-06 0)
(5.54797e-08 -2.91586e-06 0)
(5.53877e-08 -2.92588e-06 0)
(5.52959e-08 -2.93584e-06 0)
(5.52042e-08 -2.94574e-06 0)
(5.51127e-08 -2.95558e-06 0)
(5.50212e-08 -2.96535e-06 0)
(5.49299e-08 -2.97507e-06 0)
(5.48387e-08 -2.98472e-06 0)
(5.47477e-08 -2.99432e-06 0)
(5.46565e-08 -3.00383e-06 0)
(5.45673e-08 -3.01335e-06 0)
(5.4471e-08 -3.02266e-06 0)
(5.43773e-08 -3.03118e-06 0)
(5.42992e-08 -3.03895e-06 0)
(5.42247e-08 -3.04649e-06 0)
(5.41505e-08 -3.05404e-06 0)
(5.40761e-08 -3.06167e-06 0)
(5.40015e-08 -3.06933e-06 0)
(5.39265e-08 -3.07698e-06 0)
(5.38512e-08 -3.08462e-06 0)
(5.37755e-08 -3.09228e-06 0)
(5.36995e-08 -3.09994e-06 0)
(5.36231e-08 -3.10761e-06 0)
(5.35464e-08 -3.11529e-06 0)
(5.34693e-08 -3.12298e-06 0)
(5.33919e-08 -3.13067e-06 0)
(5.33141e-08 -3.13837e-06 0)
(5.32359e-08 -3.14608e-06 0)
(5.31574e-08 -3.15379e-06 0)
(5.30785e-08 -3.16151e-06 0)
(5.29993e-08 -3.16924e-06 0)
(5.29197e-08 -3.17697e-06 0)
(5.28398e-08 -3.18471e-06 0)
(5.27595e-08 -3.19246e-06 0)
(5.26788e-08 -3.20021e-06 0)
(5.25977e-08 -3.20797e-06 0)
(5.25163e-08 -3.21574e-06 0)
(5.24345e-08 -3.22351e-06 0)
(5.23524e-08 -3.23129e-06 0)
(5.22699e-08 -3.23907e-06 0)
(5.2187e-08 -3.24686e-06 0)
(5.21037e-08 -3.25466e-06 0)
(5.20201e-08 -3.26246e-06 0)
(5.19361e-08 -3.27027e-06 0)
(5.18517e-08 -3.27808e-06 0)
(5.1767e-08 -3.2859e-06 0)
(5.16819e-08 -3.29373e-06 0)
(5.15964e-08 -3.30156e-06 0)
(5.15105e-08 -3.30939e-06 0)
(5.14242e-08 -3.31723e-06 0)
(5.13376e-08 -3.32508e-06 0)
(5.12506e-08 -3.33293e-06 0)
(5.11632e-08 -3.34079e-06 0)
(5.10754e-08 -3.34865e-06 0)
(5.09873e-08 -3.35652e-06 0)
(5.08987e-08 -3.36439e-06 0)
(5.08098e-08 -3.37227e-06 0)
(5.07205e-08 -3.38015e-06 0)
(5.06308e-08 -3.38803e-06 0)
(5.05407e-08 -3.39592e-06 0)
(5.04503e-08 -3.40382e-06 0)
(5.03594e-08 -3.41172e-06 0)
(5.02682e-08 -3.41962e-06 0)
(5.01765e-08 -3.42753e-06 0)
(5.00845e-08 -3.43544e-06 0)
(4.99921e-08 -3.44336e-06 0)
(4.98993e-08 -3.45128e-06 0)
(4.98061e-08 -3.4592e-06 0)
(4.97125e-08 -3.46713e-06 0)
(4.96185e-08 -3.47506e-06 0)
(4.95242e-08 -3.483e-06 0)
(4.94294e-08 -3.49094e-06 0)
(4.93342e-08 -3.49888e-06 0)
(4.92387e-08 -3.50683e-06 0)
(4.91427e-08 -3.51477e-06 0)
(4.90464e-08 -3.52273e-06 0)
(4.89496e-08 -3.53068e-06 0)
(4.88525e-08 -3.53864e-06 0)
(4.8755e-08 -3.5466e-06 0)
(4.8657e-08 -3.55456e-06 0)
(4.85587e-08 -3.56253e-06 0)
(4.84599e-08 -3.5705e-06 0)
(4.83608e-08 -3.57847e-06 0)
(4.82613e-08 -3.58645e-06 0)
(4.81613e-08 -3.59442e-06 0)
(4.8061e-08 -3.6024e-06 0)
(4.79602e-08 -3.61038e-06 0)
(4.78591e-08 -3.61836e-06 0)
(4.77575e-08 -3.62635e-06 0)
(4.76556e-08 -3.63433e-06 0)
(4.75532e-08 -3.64232e-06 0)
(4.74504e-08 -3.65031e-06 0)
(4.73473e-08 -3.6583e-06 0)
(4.72437e-08 -3.6663e-06 0)
(4.71397e-08 -3.67429e-06 0)
(4.70353e-08 -3.68228e-06 0)
(4.69305e-08 -3.69028e-06 0)
(4.68253e-08 -3.69828e-06 0)
(4.67197e-08 -3.70627e-06 0)
(4.66137e-08 -3.71427e-06 0)
(4.65073e-08 -3.72227e-06 0)
(4.64005e-08 -3.73027e-06 0)
(4.62933e-08 -3.73827e-06 0)
(4.61856e-08 -3.74627e-06 0)
(4.60776e-08 -3.75427e-06 0)
(4.59691e-08 -3.76227e-06 0)
(4.58603e-08 -3.77027e-06 0)
(4.5751e-08 -3.77827e-06 0)
(4.56413e-08 -3.78627e-06 0)
(4.55313e-08 -3.79427e-06 0)
(4.54208e-08 -3.80227e-06 0)
(4.53099e-08 -3.81027e-06 0)
(4.51986e-08 -3.81827e-06 0)
(4.50868e-08 -3.82626e-06 0)
(4.49747e-08 -3.83426e-06 0)
(4.48622e-08 -3.84225e-06 0)
(4.47492e-08 -3.85025e-06 0)
(4.46359e-08 -3.85824e-06 0)
(4.45221e-08 -3.86623e-06 0)
(4.4408e-08 -3.87422e-06 0)
(4.42934e-08 -3.8822e-06 0)
(4.41784e-08 -3.89019e-06 0)
(4.40631e-08 -3.89817e-06 0)
(4.39473e-08 -3.90615e-06 0)
(4.38311e-08 -3.91413e-06 0)
(4.37145e-08 -3.92211e-06 0)
(4.35975e-08 -3.93008e-06 0)
(4.348e-08 -3.93805e-06 0)
(4.33622e-08 -3.94602e-06 0)
(4.3244e-08 -3.95398e-06 0)
(4.31254e-08 -3.96195e-06 0)
(4.30063e-08 -3.9699e-06 0)
(4.28869e-08 -3.97786e-06 0)
(4.2767e-08 -3.98581e-06 0)
(4.26468e-08 -3.99376e-06 0)
(4.25262e-08 -4.00171e-06 0)
(4.24051e-08 -4.00965e-06 0)
(4.22837e-08 -4.01758e-06 0)
(4.21618e-08 -4.02552e-06 0)
(4.20395e-08 -4.03344e-06 0)
(4.19169e-08 -4.04137e-06 0)
(4.17938e-08 -4.04929e-06 0)
(4.16704e-08 -4.0572e-06 0)
(4.15465e-08 -4.06511e-06 0)
(4.14223e-08 -4.07302e-06 0)
(4.12977e-08 -4.08092e-06 0)
(4.11726e-08 -4.08881e-06 0)
(4.10472e-08 -4.0967e-06 0)
(4.09214e-08 -4.10458e-06 0)
(4.07951e-08 -4.11246e-06 0)
(4.06685e-08 -4.12033e-06 0)
(4.05415e-08 -4.1282e-06 0)
(4.04141e-08 -4.13606e-06 0)
(4.02864e-08 -4.14391e-06 0)
(4.01582e-08 -4.15176e-06 0)
(4.00296e-08 -4.1596e-06 0)
(3.99007e-08 -4.16743e-06 0)
(3.97714e-08 -4.17526e-06 0)
(3.96416e-08 -4.18308e-06 0)
(3.95116e-08 -4.19089e-06 0)
(3.93811e-08 -4.1987e-06 0)
(3.92502e-08 -4.20649e-06 0)
(3.9119e-08 -4.21428e-06 0)
(3.89874e-08 -4.22207e-06 0)
(3.88554e-08 -4.22984e-06 0)
(3.8723e-08 -4.23761e-06 0)
(3.85903e-08 -4.24536e-06 0)
(3.84572e-08 -4.25311e-06 0)
(3.83237e-08 -4.26085e-06 0)
(3.81898e-08 -4.26858e-06 0)
(3.80556e-08 -4.27631e-06 0)
(3.7921e-08 -4.28402e-06 0)
(3.77861e-08 -4.29172e-06 0)
(3.76507e-08 -4.29942e-06 0)
(3.75151e-08 -4.3071e-06 0)
(3.7379e-08 -4.31478e-06 0)
(3.72426e-08 -4.32244e-06 0)
(3.71059e-08 -4.3301e-06 0)
(3.69688e-08 -4.33775e-06 0)
(3.68313e-08 -4.34538e-06 0)
(3.66935e-08 -4.353e-06 0)
(3.65554e-08 -4.36062e-06 0)
(3.64167e-08 -4.36821e-06 0)
(3.62791e-08 -4.37584e-06 0)
(3.61383e-08 -4.38335e-06 0)
(3.59973e-08 -4.39049e-06 0)
(3.58669e-08 -4.39735e-06 0)
(3.57416e-08 -4.40411e-06 0)
(3.5615e-08 -4.4109e-06 0)
(3.54874e-08 -4.4178e-06 0)
(3.53583e-08 -4.42475e-06 0)
(3.52278e-08 -4.43175e-06 0)
(3.50959e-08 -4.43878e-06 0)
(3.49625e-08 -4.44587e-06 0)
(3.48276e-08 -4.45301e-06 0)
(3.46913e-08 -4.4602e-06 0)
(3.45534e-08 -4.46744e-06 0)
(3.44141e-08 -4.47473e-06 0)
(3.42732e-08 -4.48207e-06 0)
(3.41308e-08 -4.48946e-06 0)
(3.39868e-08 -4.49689e-06 0)
(3.38413e-08 -4.50438e-06 0)
(3.36942e-08 -4.51191e-06 0)
(3.35456e-08 -4.51949e-06 0)
(3.33953e-08 -4.52712e-06 0)
(3.32435e-08 -4.5348e-06 0)
(3.309e-08 -4.54252e-06 0)
(3.29349e-08 -4.5503e-06 0)
(3.27781e-08 -4.55812e-06 0)
(3.26197e-08 -4.56599e-06 0)
(3.24597e-08 -4.5739e-06 0)
(3.22979e-08 -4.58186e-06 0)
(3.21345e-08 -4.58987e-06 0)
(3.19693e-08 -4.59792e-06 0)
(3.18025e-08 -4.60602e-06 0)
(3.16339e-08 -4.61417e-06 0)
(3.14636e-08 -4.62235e-06 0)
(3.12915e-08 -4.63058e-06 0)
(3.11177e-08 -4.63886e-06 0)
(3.09421e-08 -4.64718e-06 0)
(3.07647e-08 -4.65554e-06 0)
(3.05855e-08 -4.66394e-06 0)
(3.04045e-08 -4.67238e-06 0)
(3.02218e-08 -4.68087e-06 0)
(3.00372e-08 -4.68939e-06 0)
(2.98508e-08 -4.69796e-06 0)
(2.96625e-08 -4.70656e-06 0)
(2.94724e-08 -4.7152e-06 0)
(2.92804e-08 -4.72388e-06 0)
(2.90866e-08 -4.7326e-06 0)
(2.88909e-08 -4.74135e-06 0)
(2.86933e-08 -4.75014e-06 0)
(2.84938e-08 -4.75896e-06 0)
(2.82925e-08 -4.76781e-06 0)
(2.80892e-08 -4.7767e-06 0)
(2.78841e-08 -4.78562e-06 0)
(2.7677e-08 -4.79456e-06 0)
(2.74681e-08 -4.80354e-06 0)
(2.72572e-08 -4.81255e-06 0)
(2.70444e-08 -4.82158e-06 0)
(2.68296e-08 -4.83064e-06 0)
(2.6613e-08 -4.83973e-06 0)
(2.63944e-08 -4.84883e-06 0)
(2.61738e-08 -4.85796e-06 0)
(2.59514e-08 -4.86712e-06 0)
(2.5727e-08 -4.87629e-06 0)
(2.55007e-08 -4.88548e-06 0)
(2.52725e-08 -4.89469e-06 0)
(2.50423e-08 -4.90391e-06 0)
(2.48102e-08 -4.91315e-06 0)
(2.45762e-08 -4.9224e-06 0)
(2.43403e-08 -4.93167e-06 0)
(2.41024e-08 -4.94094e-06 0)
(2.38627e-08 -4.95022e-06 0)
(2.36211e-08 -4.95951e-06 0)
(2.33775e-08 -4.9688e-06 0)
(2.31321e-08 -4.97809e-06 0)
(2.28849e-08 -4.98739e-06 0)
(2.26357e-08 -4.99669e-06 0)
(2.23847e-08 -5.00598e-06 0)
(2.21319e-08 -5.01527e-06 0)
(2.18772e-08 -5.02456e-06 0)
(2.16208e-08 -5.03383e-06 0)
(2.13625e-08 -5.0431e-06 0)
(2.11025e-08 -5.05235e-06 0)
(2.08407e-08 -5.06159e-06 0)
(2.05772e-08 -5.07081e-06 0)
(2.0312e-08 -5.08001e-06 0)
(2.0045e-08 -5.08919e-06 0)
(1.97764e-08 -5.09835e-06 0)
(1.95062e-08 -5.10748e-06 0)
(1.92343e-08 -5.11659e-06 0)
(1.89608e-08 -5.12565e-06 0)
(1.86858e-08 -5.1347e-06 0)
(1.84092e-08 -5.1437e-06 0)
(1.81311e-08 -5.15266e-06 0)
(1.78516e-08 -5.16158e-06 0)
(1.75706e-08 -5.17047e-06 0)
(1.72882e-08 -5.1793e-06 0)
(1.70045e-08 -5.18808e-06 0)
(1.67194e-08 -5.19681e-06 0)
(1.6433e-08 -5.20549e-06 0)
(1.61454e-08 -5.21411e-06 0)
(1.58566e-08 -5.22267e-06 0)
(1.55667e-08 -5.23116e-06 0)
(1.52756e-08 -5.23959e-06 0)
(1.49835e-08 -5.24794e-06 0)
(1.46904e-08 -5.25623e-06 0)
(1.43963e-08 -5.26444e-06 0)
(1.41013e-08 -5.27257e-06 0)
(1.38055e-08 -5.28061e-06 0)
(1.35088e-08 -5.28858e-06 0)
(1.32115e-08 -5.29645e-06 0)
(1.29135e-08 -5.30423e-06 0)
(1.26148e-08 -5.31191e-06 0)
(1.23156e-08 -5.3195e-06 0)
(1.20159e-08 -5.32698e-06 0)
(1.17159e-08 -5.33436e-06 0)
(1.14154e-08 -5.34163e-06 0)
(1.11147e-08 -5.34879e-06 0)
(1.08138e-08 -5.35582e-06 0)
(1.05128e-08 -5.36275e-06 0)
(1.02117e-08 -5.36954e-06 0)
(9.91062e-09 -5.37622e-06 0)
(9.60964e-09 -5.38275e-06 0)
(9.30885e-09 -5.38917e-06 0)
(9.00831e-09 -5.39543e-06 0)
(8.70813e-09 -5.40157e-06 0)
(8.40836e-09 -5.40755e-06 0)
(8.10911e-09 -5.41339e-06 0)
(7.81045e-09 -5.41908e-06 0)
(7.5125e-09 -5.42462e-06 0)
(7.2153e-09 -5.42999e-06 0)
(6.91899e-09 -5.43521e-06 0)
(6.62361e-09 -5.44025e-06 0)
(6.32931e-09 -5.44514e-06 0)
(6.03613e-09 -5.44984e-06 0)
(5.74421e-09 -5.45438e-06 0)
(5.45361e-09 -5.45873e-06 0)
(5.16445e-09 -5.46291e-06 0)
(4.87681e-09 -5.46689e-06 0)
(4.59081e-09 -5.4707e-06 0)
(4.30653e-09 -5.4743e-06 0)
(4.02408e-09 -5.47772e-06 0)
(3.74354e-09 -5.48093e-06 0)
(3.46504e-09 -5.48395e-06 0)
(3.18866e-09 -5.48675e-06 0)
(2.91451e-09 -5.48936e-06 0)
(2.64268e-09 -5.49175e-06 0)
(2.37329e-09 -5.49394e-06 0)
(2.10643e-09 -5.4959e-06 0)
(1.84221e-09 -5.49766e-06 0)
(1.58071e-09 -5.49918e-06 0)
(1.32206e-09 -5.50049e-06 0)
(1.06633e-09 -5.50157e-06 0)
(8.13644e-10 -5.50243e-06 0)
(5.64088e-10 -5.50305e-06 0)
(3.17763e-10 -5.50345e-06 0)
(7.47644e-11 -5.5036e-06 0)
(-1.64813e-10 -5.50354e-06 0)
(-4.00875e-10 -5.50322e-06 0)
(-6.33333e-10 -5.50268e-06 0)
(-8.62094e-10 -5.50188e-06 0)
(-1.08707e-09 -5.50086e-06 0)
(-1.30818e-09 -5.49958e-06 0)
(-1.52534e-09 -5.49808e-06 0)
(-1.73847e-09 -5.49631e-06 0)
(-1.94749e-09 -5.49431e-06 0)
(-2.15231e-09 -5.49205e-06 0)
(-2.35289e-09 -5.48957e-06 0)
(-2.54912e-09 -5.48682e-06 0)
(-2.74096e-09 -5.48384e-06 0)
(-2.92833e-09 -5.48059e-06 0)
(-3.11118e-09 -5.47713e-06 0)
(-3.28942e-09 -5.47339e-06 0)
(-3.46303e-09 -5.46943e-06 0)
(-3.63192e-09 -5.4652e-06 0)
(-3.79606e-09 -5.46075e-06 0)
(-3.95537e-09 -5.45603e-06 0)
(-4.10983e-09 -5.4511e-06 0)
(-4.25935e-09 -5.44589e-06 0)
(-4.40392e-09 -5.44048e-06 0)
(-4.54342e-09 -5.4348e-06 0)
(-4.678e-09 -5.42893e-06 0)
(-4.80713e-09 -5.42273e-06 0)
(-4.93387e-09 -5.41637e-06 0)
(-5.06299e-09 -5.4091e-06 0)
(-5.19434e-09 -5.40079e-06 0)
(-5.32178e-09 -5.39219e-06 0)
(-5.44081e-09 -5.38347e-06 0)
(-5.55147e-09 -5.37453e-06 0)
(-5.65396e-09 -5.36545e-06 0)
(-5.74839e-09 -5.35617e-06 0)
(-5.83508e-09 -5.34679e-06 0)
(-5.91418e-09 -5.33723e-06 0)
(-5.98604e-09 -5.32759e-06 0)
(-6.05083e-09 -5.3178e-06 0)
(-6.10888e-09 -5.30796e-06 0)
(-6.16033e-09 -5.29798e-06 0)
(-6.20551e-09 -5.28797e-06 0)
(-6.24454e-09 -5.27785e-06 0)
(-6.27774e-09 -5.26771e-06 0)
(-6.30522e-09 -5.25748e-06 0)
(-6.32727e-09 -5.24726e-06 0)
(-6.344e-09 -5.23696e-06 0)
(-6.3557e-09 -5.22668e-06 0)
(-6.36243e-09 -5.21634e-06 0)
(-6.36448e-09 -5.20604e-06 0)
(-6.36191e-09 -5.1957e-06 0)
(-6.35498e-09 -5.18541e-06 0)
(-6.34375e-09 -5.17509e-06 0)
(-6.32846e-09 -5.16484e-06 0)
(-6.30915e-09 -5.15457e-06 0)
(-6.28606e-09 -5.14438e-06 0)
(-6.25921e-09 -5.13418e-06 0)
(-6.22884e-09 -5.12408e-06 0)
(-6.19496e-09 -5.11399e-06 0)
(-6.15778e-09 -5.10399e-06 0)
(-6.11732e-09 -5.09402e-06 0)
(-6.07379e-09 -5.08416e-06 0)
(-6.02717e-09 -5.07432e-06 0)
(-5.97767e-09 -5.06461e-06 0)
(-5.92529e-09 -5.05494e-06 0)
(-5.8702e-09 -5.0454e-06 0)
(-5.8124e-09 -5.03591e-06 0)
(-5.75207e-09 -5.02655e-06 0)
(-5.68919e-09 -5.01726e-06 0)
(-5.62393e-09 -5.00811e-06 0)
(-5.55626e-09 -4.99902e-06 0)
(-5.48636e-09 -4.99009e-06 0)
(-5.41419e-09 -4.98123e-06 0)
(-5.3399e-09 -4.97254e-06 0)
(-5.26349e-09 -4.96392e-06 0)
(-5.18507e-09 -4.95547e-06 0)
(-5.10464e-09 -4.94711e-06 0)
(-5.02233e-09 -4.93892e-06 0)
(-4.9381e-09 -4.93082e-06 0)
(-4.85209e-09 -4.92291e-06 0)
(-4.76427e-09 -4.91509e-06 0)
(-4.67476e-09 -4.90746e-06 0)
(-4.58353e-09 -4.89993e-06 0)
(-4.4907e-09 -4.89259e-06 0)
(-4.39625e-09 -4.88537e-06 0)
(-4.30028e-09 -4.87834e-06 0)
(-4.20276e-09 -4.87142e-06 0)
(-4.10381e-09 -4.8647e-06 0)
(-4.00339e-09 -4.85811e-06 0)
(-3.90162e-09 -4.85172e-06 0)
(-3.79846e-09 -4.84546e-06 0)
(-3.69402e-09 -4.8394e-06 0)
(-3.58827e-09 -4.83348e-06 0)
(-3.48131e-09 -4.82776e-06 0)
(-3.37312e-09 -4.82218e-06 0)
(-3.26379e-09 -4.81681e-06 0)
(-3.15331e-09 -4.81159e-06 0)
(-3.04176e-09 -4.80658e-06 0)
(-2.92914e-09 -4.80172e-06 0)
(-2.81551e-09 -4.79707e-06 0)
(-2.7009e-09 -4.79258e-06 0)
(-2.58534e-09 -4.7883e-06 0)
(-2.46887e-09 -4.78419e-06 0)
(-2.35154e-09 -4.78029e-06 0)
(-2.23336e-09 -4.77655e-06 0)
(-2.11439e-09 -4.77303e-06 0)
(-1.99465e-09 -4.76968e-06 0)
(-1.87418e-09 -4.76655e-06 0)
(-1.75302e-09 -4.76359e-06 0)
(-1.63119e-09 -4.76085e-06 0)
(-1.50875e-09 -4.75828e-06 0)
(-1.38574e-09 -4.75594e-06 0)
(-1.26219e-09 -4.75377e-06 0)
(-1.13819e-09 -4.75185e-06 0)
(-1.01379e-09 -4.74999e-06 0)
(-8.89124e-10 -4.74877e-06 0)
(-7.64232e-10 -4.74631e-06 0)
(-6.39486e-10 -4.74877e-06 0)
(-5.14218e-10 -4.73548e-06 0)
(-3.90762e-10 -4.77328e-06 0)
(-2.61679e-10 -4.62986e-06 0)
(-1.48858e-10 -5.00979e-06 0)
(-5.23462e-11 -4.37542e-06 0)
)
;
    }
    bottomWall
    {
        type            calculated;
        value           nonuniform List<vector> 
449
(
(-52.7241 -0.955785 0)
(-34.7512 -0.00279961 0)
(-34.3592 -0.000255153 0)
(-32.9957 -0.00036368 0)
(-31.8694 -0.000315373 0)
(-30.8327 -0.000284369 0)
(-29.915 -0.000249421 0)
(-29.1148 -0.000217494 0)
(-28.4138 -0.000190912 0)
(-27.7941 -0.000169126 0)
(-27.2412 -0.000151096 0)
(-26.7441 -0.000135984 0)
(-26.2941 -0.00012332 0)
(-25.8833 -0.000112624 0)
(-25.5061 -0.000103398 0)
(-25.1582 -9.53862e-05 0)
(-24.8357 -8.83915e-05 0)
(-24.5356 -8.22541e-05 0)
(-24.2549 -7.68464e-05 0)
(-23.9917 -7.20231e-05 0)
(-23.744 -6.7694e-05 0)
(-23.5104 -6.37991e-05 0)
(-23.2894 -6.02854e-05 0)
(-23.0798 -5.70964e-05 0)
(-22.8806 -5.41945e-05 0)
(-22.6909 -5.15347e-05 0)
(-22.5099 -4.90966e-05 0)
(-22.3369 -4.68565e-05 0)
(-22.1713 -4.47918e-05 0)
(-22.0125 -4.28775e-05 0)
(-21.86 -4.1102e-05 0)
(-21.7134 -3.94513e-05 0)
(-21.5723 -3.79147e-05 0)
(-21.4362 -3.64769e-05 0)
(-21.305 -3.5131e-05 0)
(-21.1782 -3.38703e-05 0)
(-21.0556 -3.26867e-05 0)
(-20.937 -3.15755e-05 0)
(-20.822 -3.05323e-05 0)
(-20.7106 -2.95464e-05 0)
(-20.6024 -2.86147e-05 0)
(-20.4975 -2.77337e-05 0)
(-20.3954 -2.69022e-05 0)
(-20.2961 -2.61053e-05 0)
(-20.1996 -2.5343e-05 0)
(-20.1056 -2.46185e-05 0)
(-20.014 -2.39244e-05 0)
(-19.9249 -2.32613e-05 0)
(-19.8379 -2.26266e-05 0)
(-19.7531 -2.20223e-05 0)
(-19.6704 -2.14442e-05 0)
(-19.5896 -2.08901e-05 0)
(-19.5107 -2.03641e-05 0)
(-19.4336 -1.9858e-05 0)
(-19.3582 -1.93756e-05 0)
(-19.2845 -1.89138e-05 0)
(-19.2123 -1.84709e-05 0)
(-19.1416 -1.80476e-05 0)
(-19.0724 -1.76402e-05 0)
(-19.0046 -1.72493e-05 0)
(-18.938 -1.68738e-05 0)
(-18.8728 -1.6512e-05 0)
(-18.8088 -1.61648e-05 0)
(-18.7461 -1.58289e-05 0)
(-18.6844 -1.55072e-05 0)
(-18.6239 -1.51946e-05 0)
(-18.5644 -1.48948e-05 0)
(-18.5059 -1.46033e-05 0)
(-18.4485 -1.43227e-05 0)
(-18.392 -1.40506e-05 0)
(-18.3365 -1.37868e-05 0)
(-18.2818 -1.35325e-05 0)
(-18.2281 -1.32838e-05 0)
(-18.1752 -1.30453e-05 0)
(-18.1231 -1.28113e-05 0)
(-18.0718 -1.25862e-05 0)
(-18.0213 -1.23666e-05 0)
(-17.9716 -1.21532e-05 0)
(-17.9226 -1.19469e-05 0)
(-17.8743 -1.17447e-05 0)
(-17.8267 -1.15496e-05 0)
(-17.7798 -1.13588e-05 0)
(-17.7335 -1.11734e-05 0)
(-17.6879 -1.09934e-05 0)
(-17.643 -1.08172e-05 0)
(-17.5986 -1.06464e-05 0)
(-17.5548 -1.04798e-05 0)
(-17.5116 -1.0317e-05 0)
(-17.469 -1.01589e-05 0)
(-17.4269 -1.00043e-05 0)
(-17.3854 -9.85372e-06 0)
(-17.3444 -9.707e-06 0)
(-17.3039 -9.56348e-06 0)
(-17.2639 -9.4236e-06 0)
(-17.2244 -9.2871e-06 0)
(-17.1854 -9.15359e-06 0)
(-17.1468 -9.02351e-06 0)
(-17.1087 -8.8962e-06 0)
(-17.0711 -8.77198e-06 0)
(-17.0339 -8.65054e-06 0)
(-16.9971 -8.53179e-06 0)
(-16.9607 -8.41558e-06 0)
(-16.9247 -8.30216e-06 0)
(-16.8892 -8.19093e-06 0)
(-16.854 -8.08229e-06 0)
(-16.8192 -7.97602e-06 0)
(-16.7848 -7.87181e-06 0)
(-16.7507 -7.76999e-06 0)
(-16.717 -7.67026e-06 0)
(-16.6837 -7.5725e-06 0)
(-16.6507 -7.47682e-06 0)
(-16.6181 -7.38312e-06 0)
(-16.5857 -7.29109e-06 0)
(-16.5537 -7.20099e-06 0)
(-16.5221 -7.11276e-06 0)
(-16.4907 -7.02614e-06 0)
(-16.4596 -6.94118e-06 0)
(-16.4289 -6.8581e-06 0)
(-16.3984 -6.77651e-06 0)
(-16.3683 -6.69639e-06 0)
(-16.3384 -6.61779e-06 0)
(-16.3088 -6.54072e-06 0)
(-16.2794 -6.4649e-06 0)
(-16.2504 -6.39059e-06 0)
(-16.2216 -6.31759e-06 0)
(-16.1931 -6.24591e-06 0)
(-16.1648 -6.17536e-06 0)
(-16.1368 -6.10633e-06 0)
(-16.109 -6.03831e-06 0)
(-16.0814 -5.97165e-06 0)
(-16.0541 -5.90604e-06 0)
(-16.0271 -5.84172e-06 0)
(-16.0003 -5.77837e-06 0)
(-15.9737 -5.7161e-06 0)
(-15.9473 -5.65484e-06 0)
(-15.9211 -5.59458e-06 0)
(-15.8952 -5.53532e-06 0)
(-15.8695 -5.47705e-06 0)
(-15.8439 -5.41976e-06 0)
(-15.8186 -5.36338e-06 0)
(-15.7935 -5.30797e-06 0)
(-15.7686 -5.25341e-06 0)
(-15.7439 -5.19986e-06 0)
(-15.7194 -5.14692e-06 0)
(-15.6951 -5.09509e-06 0)
(-15.6709 -5.04377e-06 0)
(-15.647 -4.99361e-06 0)
(-15.6232 -4.94372e-06 0)
(-15.5996 -4.89506e-06 0)
(-15.5762 -4.84659e-06 0)
(-15.553 -4.79944e-06 0)
(-15.5299 -4.75239e-06 0)
(-15.507 -4.70659e-06 0)
(-15.4843 -4.66102e-06 0)
(-15.4618 -4.61664e-06 0)
(-15.4394 -4.57236e-06 0)
(-15.4171 -4.52916e-06 0)
(-15.395 -4.48633e-06 0)
(-15.3731 -4.44442e-06 0)
(-15.3514 -4.40272e-06 0)
(-15.3298 -4.36191e-06 0)
(-15.3083 -4.32148e-06 0)
(-15.287 -4.28184e-06 0)
(-15.2658 -4.24255e-06 0)
(-15.2448 -4.20383e-06 0)
(-15.2239 -4.16558e-06 0)
(-15.2032 -4.12802e-06 0)
(-15.1825 -4.0909e-06 0)
(-15.1621 -4.05437e-06 0)
(-15.1417 -4.01815e-06 0)
(-15.1215 -3.98274e-06 0)
(-15.1015 -3.94744e-06 0)
(-15.0815 -3.91165e-06 0)
(-15.0628 -3.88268e-06 0)
(-15.0452 -3.85559e-06 0)
(-15.0276 -3.82389e-06 0)
(-15.0099 -3.79265e-06 0)
(-14.9921 -3.76216e-06 0)
(-14.9743 -3.73143e-06 0)
(-14.9565 -3.70128e-06 0)
(-14.9386 -3.67113e-06 0)
(-14.9207 -3.64139e-06 0)
(-14.9027 -3.61153e-06 0)
(-14.8847 -3.58199e-06 0)
(-14.8666 -3.55239e-06 0)
(-14.8485 -3.52319e-06 0)
(-14.8303 -3.49387e-06 0)
(-14.8121 -3.46489e-06 0)
(-14.7938 -3.43575e-06 0)
(-14.7755 -3.40715e-06 0)
(-14.7572 -3.37842e-06 0)
(-14.7388 -3.34989e-06 0)
(-14.7204 -3.32135e-06 0)
(-14.7019 -3.29304e-06 0)
(-14.6834 -3.26483e-06 0)
(-14.6648 -3.23677e-06 0)
(-14.6463 -3.20888e-06 0)
(-14.6276 -3.18109e-06 0)
(-14.609 -3.15348e-06 0)
(-14.5902 -3.12598e-06 0)
(-14.5715 -3.09861e-06 0)
(-14.5527 -3.07131e-06 0)
(-14.5339 -3.04415e-06 0)
(-14.515 -3.01715e-06 0)
(-14.4961 -2.99027e-06 0)
(-14.4772 -2.96358e-06 0)
(-14.4583 -2.93695e-06 0)
(-14.4393 -2.91046e-06 0)
(-14.4202 -2.88409e-06 0)
(-14.4012 -2.85791e-06 0)
(-14.3821 -2.83196e-06 0)
(-14.363 -2.80602e-06 0)
(-14.3438 -2.78032e-06 0)
(-14.3246 -2.75468e-06 0)
(-14.3054 -2.72938e-06 0)
(-14.2862 -2.70392e-06 0)
(-14.2669 -2.67883e-06 0)
(-14.2476 -2.65357e-06 0)
(-14.2283 -2.62884e-06 0)
(-14.2089 -2.60393e-06 0)
(-14.1895 -2.57939e-06 0)
(-14.1701 -2.55479e-06 0)
(-14.1507 -2.53051e-06 0)
(-14.1313 -2.50624e-06 0)
(-14.1118 -2.4823e-06 0)
(-14.0923 -2.4582e-06 0)
(-14.0728 -2.43472e-06 0)
(-14.0532 -2.41092e-06 0)
(-14.0337 -2.38763e-06 0)
(-14.0141 -2.36422e-06 0)
(-13.9945 -2.34113e-06 0)
(-13.9749 -2.31805e-06 0)
(-13.9553 -2.29525e-06 0)
(-13.9356 -2.27245e-06 0)
(-13.916 -2.24993e-06 0)
(-13.8962 -2.22744e-06 0)
(-13.8766 -2.20523e-06 0)
(-13.8568 -2.18304e-06 0)
(-13.8371 -2.16115e-06 0)
(-13.8174 -2.13941e-06 0)
(-13.7976 -2.11779e-06 0)
(-13.7778 -2.09632e-06 0)
(-13.7581 -2.07501e-06 0)
(-13.7383 -2.05384e-06 0)
(-13.7185 -2.03269e-06 0)
(-13.6987 -2.0119e-06 0)
(-13.6789 -1.99103e-06 0)
(-13.659 -1.97051e-06 0)
(-13.6392 -1.94999e-06 0)
(-13.6193 -1.9299e-06 0)
(-13.5995 -1.90962e-06 0)
(-13.5796 -1.88982e-06 0)
(-13.5598 -1.86979e-06 0)
(-13.5399 -1.85036e-06 0)
(-13.5201 -1.83059e-06 0)
(-13.5002 -1.81147e-06 0)
(-13.4803 -1.79198e-06 0)
(-13.4604 -1.77314e-06 0)
(-13.4406 -1.75397e-06 0)
(-13.4207 -1.7354e-06 0)
(-13.4008 -1.71661e-06 0)
(-13.3809 -1.69835e-06 0)
(-13.361 -1.67979e-06 0)
(-13.3411 -1.66176e-06 0)
(-13.3213 -1.64361e-06 0)
(-13.3014 -1.6259e-06 0)
(-13.2815 -1.608e-06 0)
(-13.2617 -1.59062e-06 0)
(-13.2418 -1.57311e-06 0)
(-13.2219 -1.55596e-06 0)
(-13.202 -1.53861e-06 0)
(-13.1822 -1.52177e-06 0)
(-13.1623 -1.50485e-06 0)
(-13.1425 -1.48836e-06 0)
(-13.1227 -1.47158e-06 0)
(-13.1029 -1.45525e-06 0)
(-13.083 -1.43893e-06 0)
(-13.0633 -1.42283e-06 0)
(-13.0434 -1.4068e-06 0)
(-13.0237 -1.39102e-06 0)
(-13.0039 -1.37537e-06 0)
(-12.9841 -1.3598e-06 0)
(-12.9643 -1.34434e-06 0)
(-12.9446 -1.32911e-06 0)
(-12.9249 -1.31398e-06 0)
(-12.9052 -1.29898e-06 0)
(-12.8854 -1.28406e-06 0)
(-12.8658 -1.26936e-06 0)
(-12.8461 -1.25482e-06 0)
(-12.8265 -1.24037e-06 0)
(-12.8068 -1.22616e-06 0)
(-12.7872 -1.21192e-06 0)
(-12.7675 -1.19785e-06 0)
(-12.748 -1.18395e-06 0)
(-12.7284 -1.17021e-06 0)
(-12.7088 -1.15651e-06 0)
(-12.6893 -1.14311e-06 0)
(-12.6698 -1.12959e-06 0)
(-12.6502 -1.11649e-06 0)
(-12.6308 -1.10328e-06 0)
(-12.6113 -1.09032e-06 0)
(-12.5919 -1.07742e-06 0)
(-12.5724 -1.06474e-06 0)
(-12.553 -1.05195e-06 0)
(-12.5336 -1.03948e-06 0)
(-12.5143 -1.02701e-06 0)
(-12.4949 -1.01502e-06 0)
(-12.4757 -1.00272e-06 0)
(-12.4563 -9.90839e-07 0)
(-12.4371 -9.78775e-07 0)
(-12.4178 -9.6712e-07 0)
(-12.3986 -9.55344e-07 0)
(-12.3794 -9.43959e-07 0)
(-12.3603 -9.32331e-07 0)
(-12.3412 -9.21167e-07 0)
(-12.3221 -9.09889e-07 0)
(-12.303 -8.98961e-07 0)
(-12.2839 -8.87927e-07 0)
(-12.2649 -8.77234e-07 0)
(-12.2459 -8.66432e-07 0)
(-12.2269 -8.55991e-07 0)
(-12.208 -8.45394e-07 0)
(-12.1891 -8.35084e-07 0)
(-12.1702 -8.24711e-07 0)
(-12.1513 -8.14683e-07 0)
(-12.1325 -8.04544e-07 0)
(-12.1137 -7.94642e-07 0)
(-12.0949 -7.84698e-07 0)
(-12.0762 -7.75044e-07 0)
(-12.0575 -7.65371e-07 0)
(-12.0389 -7.55862e-07 0)
(-12.0202 -7.46363e-07 0)
(-12.0016 -7.37142e-07 0)
(-11.983 -7.27898e-07 0)
(-11.9645 -7.1879e-07 0)
(-11.946 -7.0977e-07 0)
(-11.9275 -7.00912e-07 0)
(-11.9091 -6.92151e-07 0)
(-11.8907 -6.83409e-07 0)
(-11.8723 -6.74871e-07 0)
(-11.854 -6.663e-07 0)
(-11.8356 -6.57897e-07 0)
(-11.8174 -6.49504e-07 0)
(-11.7992 -6.41347e-07 0)
(-11.781 -6.33119e-07 0)
(-11.7628 -6.25148e-07 0)
(-11.7447 -6.17123e-07 0)
(-11.7266 -6.09278e-07 0)
(-11.7086 -6.01469e-07 0)
(-11.6905 -5.93725e-07 0)
(-11.6726 -5.8612e-07 0)
(-11.6546 -5.78502e-07 0)
(-11.6368 -5.71129e-07 0)
(-11.6189 -5.63438e-07 0)
(-11.5991 -5.54371e-07 0)
(-11.5776 -5.45283e-07 0)
(-11.5564 -5.37235e-07 0)
(-11.5355 -5.29391e-07 0)
(-11.515 -5.21538e-07 0)
(-11.4947 -5.13954e-07 0)
(-11.4748 -5.06489e-07 0)
(-11.4551 -4.99181e-07 0)
(-11.4357 -4.92124e-07 0)
(-11.4166 -4.85144e-07 0)
(-11.3977 -4.78341e-07 0)
(-11.3791 -4.71697e-07 0)
(-11.3608 -4.65242e-07 0)
(-11.3427 -4.58871e-07 0)
(-11.3249 -4.52736e-07 0)
(-11.3073 -4.46689e-07 0)
(-11.29 -4.40772e-07 0)
(-11.2728 -4.35013e-07 0)
(-11.2559 -4.29328e-07 0)
(-11.2392 -4.23858e-07 0)
(-11.2227 -4.18416e-07 0)
(-11.2064 -4.13167e-07 0)
(-11.1904 -4.07911e-07 0)
(-11.1745 -4.02926e-07 0)
(-11.1589 -3.97909e-07 0)
(-11.1434 -3.93157e-07 0)
(-11.1281 -3.88384e-07 0)
(-11.113 -3.8373e-07 0)
(-11.0981 -3.79188e-07 0)
(-11.0833 -3.7473e-07 0)
(-11.0687 -3.70323e-07 0)
(-11.0543 -3.66075e-07 0)
(-11.0401 -3.61913e-07 0)
(-11.026 -3.57842e-07 0)
(-11.0121 -3.53841e-07 0)
(-10.9983 -3.49872e-07 0)
(-10.9847 -3.45996e-07 0)
(-10.9712 -3.42188e-07 0)
(-10.9579 -3.38461e-07 0)
(-10.9447 -3.34799e-07 0)
(-10.9317 -3.31186e-07 0)
(-10.9188 -3.27669e-07 0)
(-10.9061 -3.24236e-07 0)
(-10.8934 -3.20811e-07 0)
(-10.881 -3.17505e-07 0)
(-10.8686 -3.14229e-07 0)
(-10.8564 -3.11046e-07 0)
(-10.8443 -3.07908e-07 0)
(-10.8323 -3.04828e-07 0)
(-10.8204 -3.01798e-07 0)
(-10.8087 -2.98859e-07 0)
(-10.797 -2.95965e-07 0)
(-10.7855 -2.93066e-07 0)
(-10.7741 -2.90269e-07 0)
(-10.7628 -2.87512e-07 0)
(-10.7516 -2.84763e-07 0)
(-10.7405 -2.82118e-07 0)
(-10.7295 -2.79453e-07 0)
(-10.7186 -2.76875e-07 0)
(-10.7078 -2.74323e-07 0)
(-10.6972 -2.71871e-07 0)
(-10.6866 -2.69354e-07 0)
(-10.6761 -2.6697e-07 0)
(-10.6657 -2.64512e-07 0)
(-10.6554 -2.62253e-07 0)
(-10.6451 -2.59846e-07 0)
(-10.6351 -2.57674e-07 0)
(-10.625 -2.55348e-07 0)
(-10.6151 -2.53299e-07 0)
(-10.6052 -2.50949e-07 0)
(-10.5954 -2.49092e-07 0)
(-10.5857 -2.46825e-07 0)
(-10.5761 -2.45073e-07 0)
(-10.5665 -2.42818e-07 0)
(-10.5571 -2.41192e-07 0)
(-10.5476 -2.38986e-07 0)
(-10.5384 -2.37536e-07 0)
(-10.529 -2.35305e-07 0)
(-10.52 -2.33939e-07 0)
(-10.5107 -2.31743e-07 0)
(-10.5019 -2.3048e-07 0)
(-10.4927 -2.28507e-07 0)
(-10.484 -2.27178e-07 0)
(-10.4749 -2.2564e-07 0)
(-10.4663 -2.23816e-07 0)
(-10.4574 -2.23611e-07 0)
(-10.4488 -2.19809e-07 0)
(-10.4402 -2.23771e-07 0)
(-10.4313 -2.12889e-07 0)
(-10.4236 -2.29899e-07 0)
(-10.4133 -1.96784e-07 0)
(-10.4083 -2.48266e-07 0)
(-10.3937 -1.65163e-07 0)
(-10.3956 -2.22374e-07 0)
(-10.3759 -2.57872e-07 0)
)
;
    }
    symmetry
    {
        type            symmetryPlane;
    }
    frontAndBack
    {
        type            empty;
    }
}


// ************************************************************************* //
