/*--------------------------------*- C++ -*----------------------------------*\
| =========                 |                                                 |
| \\      /  F ield         | OpenFOAM: The Open Source CFD Toolbox           |
|  \\    /   O peration     | Version:  v2012                                 |
|   \\  /    A nd           | Website:  www.openfoam.com                      |
|    \\/     M anipulation  |                                                 |
\*---------------------------------------------------------------------------*/
FoamFile
{
    version     2.0;
    format      ascii;
    class       volScalarField;
    location    "21";
    object      epsilon;
}
// * * * * * * * * * * * * * * * * * * * * * * * * * * * * * * * * * * * * * //

dimensions      [0 2 -3 0 0 0 0];


internalField   nonuniform List<scalar> 
209825
(
0.756018
0.669418
0.626637
0.602921
0.588188
0.578309
0.571269
0.566078
0.562087
0.558981
0.556468
0.554445
0.552744
0.551336
0.550127
0.549115
0.548219
0.547462
0.546775
0.546195
0.545655
0.545197
0.544769
0.54441
0.544063
0.543772
0.543492
0.543264
0.54303
0.542837
0.542655
0.542511
0.542357
0.542236
0.542116
0.542027
0.541913
0.541835
0.541755
0.541701
0.541648
0.54161
0.541539
0.541508
0.541487
0.541462
0.541396
0.541402
0.541402
0.541405
0.541393
0.541491
0.541491
0.541491
0.541552
0.541552
0.541649
0.541791
0.541908
0.54206
0.542069
0.542069
0.542157
0.542309
0.542525
0.542641
0.542716
0.542879
0.5431
0.543252
0.543473
0.543692
0.543884
0.544108
0.544333
0.544585
0.544863
0.545194
0.545472
0.545891
0.546196
0.546681
0.547037
0.54763
0.548045
0.548807
0.549291
0.5503
0.550901
0.55223
0.552998
0.555426
0.555986
0.565181
2.83241
527.308
0.756018
0.66941
0.626622
0.6029
0.588163
0.578281
0.571239
0.566046
0.562054
0.558947
0.556433
0.554409
0.552708
0.5513
0.55009
0.549077
0.548181
0.547424
0.546737
0.546156
0.545617
0.545158
0.54473
0.544371
0.544024
0.543732
0.543452
0.543224
0.54299
0.542797
0.542615
0.542471
0.542317
0.542196
0.542076
0.541987
0.541873
0.541794
0.541715
0.541661
0.541608
0.54157
0.541499
0.541468
0.541446
0.541421
0.541355
0.541362
0.541362
0.541365
0.541353
0.541451
0.541451
0.54145
0.541511
0.541511
0.541609
0.54175
0.541868
0.54202
0.542028
0.542028
0.542116
0.542269
0.542485
0.5426
0.542676
0.542838
0.543059
0.543212
0.543432
0.543652
0.543843
0.544068
0.544292
0.544545
0.544823
0.545154
0.545431
0.54585
0.546156
0.54664
0.546997
0.54759
0.548005
0.548767
0.549251
0.55026
0.550861
0.55219
0.552958
0.555386
0.555945
0.565155
2.83696
523.973
0.756014
0.669368
0.626547
0.602802
0.58805
0.578157
0.571107
0.565909
0.561912
0.558801
0.556285
0.554258
0.552555
0.551145
0.549933
0.548919
0.548022
0.547264
0.546576
0.545994
0.545454
0.544995
0.544566
0.544207
0.543859
0.543568
0.543287
0.543059
0.542824
0.542631
0.542449
0.542305
0.54215
0.542029
0.541909
0.54182
0.541705
0.541627
0.541547
0.541493
0.54144
0.541402
0.541331
0.5413
0.541278
0.541253
0.541187
0.541194
0.541193
0.541196
0.541184
0.541282
0.541282
0.541282
0.541343
0.541343
0.54144
0.541581
0.541699
0.541851
0.541859
0.541859
0.541948
0.5421
0.542316
0.542431
0.542507
0.54267
0.54289
0.543043
0.543264
0.543483
0.543675
0.543899
0.544124
0.544376
0.544654
0.544985
0.545263
0.545682
0.545988
0.546472
0.546828
0.547422
0.547836
0.548598
0.549082
0.550091
0.550691
0.55202
0.552788
0.555216
0.555771
0.565011
2.84683
520.068
0.756008
0.669296
0.62642
0.602638
0.58786
0.577949
0.570885
0.565677
0.561672
0.558555
0.556033
0.554002
0.552296
0.550883
0.549669
0.548653
0.547753
0.546994
0.546305
0.545722
0.54518
0.54472
0.54429
0.54393
0.543582
0.54329
0.543008
0.54278
0.542545
0.542351
0.542168
0.542024
0.541869
0.541747
0.541627
0.541538
0.541423
0.541344
0.541264
0.541209
0.541156
0.541118
0.541047
0.541016
0.540994
0.540969
0.540903
0.540909
0.540909
0.540912
0.540899
0.540997
0.540997
0.540997
0.541058
0.541058
0.541155
0.541296
0.541413
0.541566
0.541575
0.541574
0.541663
0.541815
0.542031
0.542147
0.542222
0.542385
0.542606
0.542758
0.542979
0.543198
0.54339
0.543615
0.543839
0.544091
0.544369
0.5447
0.544978
0.545397
0.545703
0.546187
0.546543
0.547137
0.547551
0.548312
0.548796
0.549805
0.550405
0.551733
0.5525
0.554927
0.555479
0.564763
2.86235
516.366
0.755999
0.669193
0.62624
0.602405
0.587591
0.577654
0.570572
0.565349
0.561333
0.558207
0.555678
0.553641
0.55193
0.550513
0.549295
0.548276
0.547374
0.546612
0.545921
0.545336
0.544793
0.544332
0.543901
0.54354
0.54319
0.542897
0.542614
0.542385
0.54215
0.541955
0.541772
0.541627
0.541472
0.541349
0.541228
0.541139
0.541023
0.540944
0.540864
0.540809
0.540756
0.540717
0.540646
0.540615
0.540593
0.540568
0.540502
0.540508
0.540508
0.54051
0.540497
0.540594
0.540594
0.540594
0.540655
0.540655
0.540752
0.540893
0.54101
0.541163
0.541172
0.541172
0.54126
0.541412
0.541628
0.541744
0.54182
0.541982
0.542203
0.542356
0.542576
0.542796
0.542987
0.543212
0.543437
0.543689
0.543966
0.544298
0.544575
0.544994
0.5453
0.545784
0.54614
0.546734
0.547148
0.547909
0.548393
0.549401
0.55
0.551327
0.552093
0.554519
0.555065
0.564409
2.88394
513.21
0.755987
0.669061
0.626007
0.602103
0.587242
0.577272
0.570165
0.564924
0.560893
0.557756
0.555218
0.553173
0.551455
0.550033
0.548811
0.547788
0.546882
0.546117
0.545424
0.544837
0.544292
0.543828
0.543395
0.543033
0.542682
0.542388
0.542104
0.541874
0.541637
0.541441
0.541257
0.541112
0.540956
0.540833
0.540711
0.540622
0.540506
0.540426
0.540346
0.54029
0.540236
0.540198
0.540127
0.540095
0.540072
0.540047
0.539981
0.539987
0.539987
0.539989
0.539976
0.540072
0.540072
0.540072
0.540133
0.540133
0.54023
0.540371
0.540488
0.54064
0.54065
0.54065
0.540738
0.54089
0.541105
0.541222
0.541298
0.54146
0.541681
0.541834
0.542054
0.542274
0.542465
0.54269
0.542915
0.543167
0.543444
0.543776
0.544053
0.544472
0.544778
0.545262
0.545618
0.546211
0.546625
0.547386
0.547869
0.548876
0.549475
0.550801
0.551565
0.553989
0.554527
0.56395
2.91203
510.762
0.755973
0.668898
0.62572
0.601731
0.586812
0.576801
0.569664
0.5644
0.560351
0.5572
0.55465
0.552596
0.550871
0.549442
0.548214
0.547186
0.546276
0.545508
0.544811
0.544221
0.543673
0.543207
0.542773
0.542408
0.542056
0.54176
0.541475
0.541243
0.541005
0.540809
0.540624
0.540477
0.54032
0.540196
0.540074
0.539984
0.539868
0.539788
0.539707
0.539651
0.539596
0.539557
0.539486
0.539454
0.539431
0.539405
0.539339
0.539345
0.539345
0.539346
0.539333
0.539429
0.539429
0.539429
0.539489
0.539489
0.539586
0.539727
0.539843
0.539996
0.540006
0.540006
0.540094
0.540246
0.540461
0.540578
0.540655
0.540817
0.541037
0.54119
0.54141
0.54163
0.541822
0.542047
0.542271
0.542524
0.542801
0.543133
0.543409
0.543829
0.544134
0.544618
0.544974
0.545567
0.54598
0.546741
0.547223
0.548229
0.548828
0.550152
0.550914
0.553336
0.553865
0.563384
2.94704
509.077
0.755957
0.668705
0.625379
0.601289
0.586301
0.576241
0.569068
0.563776
0.559706
0.556538
0.553975
0.551909
0.550174
0.548737
0.547503
0.546469
0.545554
0.544781
0.544081
0.543487
0.542936
0.542468
0.542031
0.541664
0.541309
0.541012
0.540725
0.540492
0.540253
0.540055
0.539869
0.539721
0.539563
0.539438
0.539315
0.539224
0.539107
0.539026
0.538945
0.538888
0.538833
0.538794
0.538722
0.53869
0.538667
0.538641
0.538575
0.53858
0.53858
0.538581
0.538566
0.538662
0.538662
0.538662
0.538722
0.538722
0.538819
0.53896
0.539076
0.539229
0.539239
0.539239
0.539327
0.539478
0.539693
0.539812
0.539889
0.54005
0.54027
0.540423
0.540643
0.540863
0.541055
0.54128
0.541504
0.541757
0.542033
0.542366
0.542642
0.543061
0.543367
0.543851
0.544206
0.5448
0.545212
0.545972
0.546454
0.547458
0.548056
0.549378
0.550138
0.552557
0.553076
0.562711
2.98939
508.142
0.755938
0.668482
0.624984
0.600777
0.585708
0.57559
0.568375
0.563051
0.558956
0.555769
0.553189
0.551111
0.549365
0.547918
0.546676
0.545635
0.544715
0.543937
0.543231
0.542634
0.54208
0.541608
0.541168
0.540798
0.540441
0.540142
0.539853
0.539618
0.539377
0.539178
0.53899
0.538841
0.538683
0.538557
0.538432
0.538341
0.538223
0.538141
0.538059
0.538002
0.537946
0.537906
0.537834
0.537801
0.537778
0.537752
0.537685
0.53769
0.53769
0.53769
0.537675
0.53777
0.537771
0.53777
0.53783
0.53783
0.537926
0.538068
0.538183
0.538336
0.538347
0.538347
0.538435
0.538585
0.5388
0.538919
0.538997
0.539157
0.539377
0.539531
0.53975
0.539971
0.540163
0.540388
0.540612
0.540865
0.541141
0.541473
0.541749
0.542169
0.542474
0.542958
0.543313
0.543906
0.544318
0.545078
0.545558
0.546561
0.547158
0.548477
0.549235
0.551652
0.552158
0.561928
3.0395
507.892
0.755918
0.668228
0.624535
0.600192
0.585031
0.574848
0.567584
0.562224
0.5581
0.55489
0.552292
0.550199
0.54844
0.546983
0.545732
0.544683
0.543756
0.542972
0.542261
0.541659
0.541101
0.540625
0.540182
0.53981
0.53945
0.539148
0.538857
0.53862
0.538377
0.538176
0.537987
0.537837
0.537677
0.537549
0.537424
0.537331
0.537213
0.53713
0.537047
0.536989
0.536933
0.536892
0.53682
0.536786
0.536762
0.536736
0.53667
0.536673
0.536673
0.536673
0.536657
0.536752
0.536752
0.536752
0.536811
0.536811
0.536907
0.537048
0.537162
0.537316
0.537327
0.537327
0.537415
0.537565
0.53778
0.5379
0.537978
0.538138
0.538357
0.538512
0.53873
0.538951
0.539144
0.539369
0.539593
0.539846
0.540121
0.540454
0.54073
0.541149
0.541454
0.541938
0.542292
0.542886
0.543296
0.544056
0.544535
0.545536
0.546132
0.547449
0.548204
0.550617
0.551109
0.561035
3.09776
508.225
0.755895
0.667945
0.624031
0.599536
0.58427
0.574013
0.566695
0.561293
0.557137
0.553901
0.551283
0.549172
0.547399
0.54593
0.544668
0.543611
0.542676
0.541885
0.541169
0.540562
0.539999
0.539519
0.539072
0.538696
0.538334
0.538029
0.537735
0.537496
0.537251
0.537048
0.536857
0.536705
0.536544
0.536415
0.536288
0.536194
0.536075
0.535991
0.535907
0.535848
0.535791
0.53575
0.535677
0.535643
0.535618
0.535592
0.535525
0.535529
0.535528
0.535527
0.53551
0.535604
0.535604
0.535604
0.535663
0.535663
0.535759
0.5359
0.536013
0.536167
0.536179
0.536179
0.536267
0.536416
0.53663
0.536752
0.536831
0.53699
0.537209
0.537364
0.537582
0.537803
0.537996
0.538221
0.538445
0.538699
0.538972
0.539306
0.539581
0.54
0.540304
0.540789
0.541142
0.541736
0.542145
0.542904
0.543383
0.544382
0.544976
0.546289
0.547042
0.549451
0.549927
0.560031
3.16453
509.02
0.755871
0.667632
0.623473
0.598808
0.583425
0.573085
0.565706
0.560257
0.556066
0.552801
0.550159
0.548029
0.546241
0.544758
0.543485
0.542418
0.541474
0.540676
0.539953
0.53934
0.538772
0.538288
0.537836
0.537457
0.537091
0.536783
0.536486
0.536244
0.535997
0.535792
0.535599
0.535445
0.535282
0.535152
0.535024
0.534928
0.534808
0.534723
0.534638
0.534578
0.53452
0.534479
0.534405
0.53437
0.534344
0.534318
0.534251
0.534254
0.534253
0.534251
0.534233
0.534326
0.534326
0.534326
0.534385
0.534385
0.53448
0.534621
0.534734
0.534888
0.5349
0.5349
0.534989
0.535137
0.53535
0.535473
0.535553
0.535711
0.53593
0.536085
0.536302
0.536524
0.536717
0.536942
0.537166
0.53742
0.537693
0.538027
0.538301
0.538721
0.539025
0.53951
0.539861
0.540455
0.540863
0.541622
0.542099
0.543095
0.543689
0.544998
0.545747
0.548153
0.548611
0.558914
3.24014
510.136
0.755845
0.667289
0.622859
0.598007
0.582495
0.572063
0.564616
0.559116
0.554884
0.551588
0.54892
0.546769
0.544963
0.543466
0.54218
0.541102
0.540149
0.539342
0.538612
0.537992
0.537418
0.536929
0.536473
0.536089
0.535719
0.535408
0.535108
0.534864
0.534614
0.534407
0.534211
0.534055
0.53389
0.533758
0.533628
0.533532
0.53341
0.533324
0.533238
0.533177
0.533117
0.533076
0.533001
0.532966
0.532939
0.532912
0.532846
0.532847
0.532847
0.532844
0.532824
0.532916
0.532917
0.532917
0.532975
0.532975
0.533069
0.53321
0.533322
0.533476
0.533489
0.533489
0.533578
0.533725
0.533938
0.534062
0.534143
0.5343
0.534518
0.534675
0.534891
0.535113
0.535306
0.535532
0.535755
0.536009
0.536281
0.536616
0.536889
0.537309
0.537612
0.538097
0.538448
0.539042
0.539448
0.540206
0.540682
0.541676
0.542268
0.543574
0.544318
0.54672
0.547159
0.557683
3.32484
511.43
0.755819
0.666917
0.622192
0.597133
0.581479
0.570946
0.563425
0.557869
0.553593
0.550261
0.547565
0.545391
0.543565
0.542052
0.540751
0.539661
0.538698
0.537882
0.537144
0.536517
0.535937
0.535442
0.534981
0.534593
0.534219
0.533904
0.5336
0.533353
0.5331
0.53289
0.532692
0.532534
0.532367
0.532233
0.532101
0.532003
0.53188
0.531793
0.531705
0.531643
0.531582
0.53154
0.531465
0.531428
0.531401
0.531374
0.531307
0.531308
0.531307
0.531303
0.531282
0.531373
0.531373
0.531373
0.531431
0.53143
0.531525
0.531665
0.531776
0.53193
0.531945
0.531945
0.532033
0.53218
0.532392
0.532518
0.532599
0.532756
0.532973
0.53313
0.533345
0.533568
0.533761
0.533987
0.53421
0.534464
0.534735
0.53507
0.535343
0.535762
0.536065
0.536551
0.536901
0.537494
0.537899
0.538656
0.53913
0.540121
0.540712
0.542013
0.542754
0.545151
0.545569
0.556337
3.41883
512.757
0.755791
0.666517
0.62147
0.596187
0.580378
0.569735
0.562132
0.556514
0.55219
0.54882
0.546093
0.543893
0.542046
0.540515
0.539199
0.538096
0.537121
0.536295
0.535548
0.534914
0.534327
0.533826
0.533359
0.532966
0.532587
0.532268
0.531961
0.531709
0.531454
0.531241
0.53104
0.53088
0.53071
0.530574
0.530441
0.530341
0.530216
0.530128
0.530038
0.529975
0.529913
0.529869
0.529794
0.529756
0.529728
0.5297
0.529634
0.529633
0.529632
0.529627
0.529605
0.529695
0.529695
0.529695
0.529751
0.529751
0.529845
0.529985
0.530095
0.53025
0.530265
0.530265
0.530353
0.530499
0.53071
0.530838
0.53092
0.531075
0.531292
0.53145
0.531664
0.531887
0.53208
0.532307
0.53253
0.532784
0.533054
0.533389
0.533661
0.534081
0.534383
0.534868
0.535217
0.53581
0.536214
0.53697
0.537443
0.538431
0.539019
0.540316
0.541052
0.543444
0.54384
0.554874
3.52222
513.978
0.755763
0.666088
0.620694
0.595167
0.57919
0.568427
0.560736
0.555051
0.550674
0.547263
0.544502
0.542274
0.540404
0.538853
0.537521
0.536404
0.535416
0.53458
0.533823
0.53318
0.532586
0.532078
0.531605
0.531207
0.530823
0.530499
0.530188
0.529933
0.529674
0.529458
0.529254
0.529091
0.528919
0.528781
0.528645
0.528544
0.528417
0.528327
0.528236
0.528172
0.528108
0.528064
0.527987
0.527948
0.527919
0.527891
0.527825
0.527823
0.527821
0.527815
0.527791
0.52788
0.52788
0.52788
0.527936
0.527936
0.528029
0.528168
0.528277
0.528432
0.528448
0.528448
0.528536
0.528681
0.528892
0.529021
0.529104
0.529259
0.529475
0.529633
0.529846
0.53007
0.530263
0.530489
0.530712
0.530967
0.531236
0.531571
0.531842
0.532262
0.532563
0.533049
0.533396
0.533989
0.534391
0.535147
0.535617
0.536601
0.537188
0.53848
0.539211
0.541598
0.54197
0.553292
3.63498
514.963
0.755734
0.665632
0.619864
0.594075
0.577917
0.567024
0.559237
0.553479
0.549046
0.545589
0.542792
0.540534
0.538639
0.537067
0.535717
0.534584
0.533583
0.532735
0.531968
0.531316
0.530713
0.530198
0.529719
0.529314
0.528925
0.528597
0.528281
0.528022
0.52776
0.52754
0.527333
0.527167
0.526992
0.526852
0.526714
0.52661
0.526482
0.52639
0.526297
0.526231
0.526166
0.526121
0.526043
0.526003
0.525973
0.525945
0.525878
0.525876
0.525873
0.525866
0.52584
0.525927
0.525927
0.525927
0.525982
0.525982
0.526075
0.526214
0.526321
0.526476
0.526493
0.526493
0.526582
0.526726
0.526935
0.527066
0.52715
0.527304
0.527519
0.527678
0.52789
0.528114
0.528307
0.528534
0.528756
0.529012
0.529279
0.529615
0.529885
0.530304
0.530605
0.53109
0.531437
0.53203
0.53243
0.533184
0.533652
0.534633
0.535217
0.536504
0.53723
0.539611
0.539958
0.551589
3.75697
515.596
0.755705
0.665148
0.618981
0.592911
0.576557
0.565525
0.557634
0.551798
0.547304
0.543799
0.540962
0.538672
0.53675
0.535156
0.533786
0.532636
0.531621
0.53076
0.529982
0.52932
0.528708
0.528186
0.527699
0.527288
0.526893
0.52656
0.526239
0.525976
0.525709
0.525486
0.525275
0.525106
0.524929
0.524786
0.524645
0.524539
0.524409
0.524315
0.524221
0.524153
0.524086
0.52404
0.523961
0.52392
0.523888
0.52386
0.523793
0.523789
0.523786
0.523778
0.52375
0.523836
0.523836
0.523836
0.52389
0.52389
0.523982
0.52412
0.524226
0.524381
0.524399
0.524399
0.524488
0.524631
0.524839
0.524971
0.525056
0.525209
0.525423
0.525583
0.525794
0.526018
0.526212
0.526439
0.526661
0.526917
0.527182
0.527519
0.527788
0.528207
0.528507
0.528992
0.529337
0.52993
0.530328
0.53108
0.531547
0.532523
0.533105
0.534387
0.535107
0.537482
0.537802
0.549763
3.88789
515.774
0.755676
0.664638
0.618045
0.591674
0.575111
0.563929
0.555928
0.550008
0.545448
0.54189
0.539011
0.536687
0.534736
0.533117
0.531726
0.530559
0.529528
0.528653
0.527863
0.527191
0.52657
0.526039
0.525544
0.525127
0.524726
0.524386
0.52406
0.523793
0.523522
0.523295
0.52308
0.522908
0.522727
0.522582
0.522438
0.52233
0.522198
0.522102
0.522005
0.521936
0.521867
0.521819
0.52174
0.521698
0.521664
0.521635
0.521569
0.521563
0.521559
0.52155
0.52152
0.521604
0.521604
0.521604
0.521657
0.521657
0.521748
0.521886
0.52199
0.522146
0.522165
0.522165
0.522253
0.522395
0.522602
0.522736
0.522822
0.522974
0.523187
0.523348
0.523558
0.523782
0.523976
0.524203
0.524425
0.524681
0.524944
0.525282
0.525549
0.525968
0.526267
0.526752
0.527096
0.527688
0.528084
0.528835
0.5293
0.530272
0.530851
0.532126
0.532841
0.535209
0.535502
0.547813
4.02724
515.412
0.755648
0.664102
0.617058
0.590366
0.573579
0.562237
0.554118
0.548107
0.543477
0.539864
0.53694
0.534578
0.532596
0.530951
0.529538
0.528351
0.527303
0.526415
0.525611
0.524928
0.524297
0.523757
0.523254
0.522829
0.522421
0.522076
0.521745
0.521472
0.521197
0.520966
0.520747
0.520571
0.520387
0.520239
0.520092
0.519981
0.519847
0.519749
0.51965
0.519579
0.519508
0.519459
0.519378
0.519335
0.5193
0.51927
0.519203
0.519197
0.519191
0.519182
0.51915
0.519231
0.519231
0.519231
0.519283
0.519283
0.519373
0.519511
0.519613
0.519768
0.519789
0.519789
0.519878
0.520018
0.520224
0.520359
0.520447
0.520597
0.52081
0.520971
0.52118
0.521404
0.521598
0.521825
0.522046
0.522303
0.522565
0.522902
0.523169
0.523588
0.523886
0.524371
0.524712
0.525304
0.525698
0.526447
0.526909
0.527877
0.528454
0.529722
0.53043
0.532792
0.533056
0.545735
4.17435
514.436
0.75562
0.663542
0.616019
0.588986
0.571962
0.560449
0.552203
0.546097
0.541392
0.537719
0.534746
0.532345
0.53033
0.528657
0.52722
0.526013
0.524947
0.524043
0.523226
0.522531
0.521889
0.521339
0.520828
0.520395
0.51998
0.519629
0.519291
0.519013
0.518733
0.518497
0.518274
0.518094
0.517907
0.517755
0.517605
0.517492
0.517355
0.517255
0.517154
0.517081
0.517008
0.516957
0.516875
0.51683
0.516794
0.516763
0.516696
0.516688
0.516682
0.516671
0.516637
0.516717
0.516716
0.516716
0.516767
0.516767
0.516856
0.516993
0.517094
0.517249
0.517271
0.517271
0.517359
0.517498
0.517702
0.51784
0.517929
0.518078
0.518289
0.518451
0.518658
0.518883
0.519077
0.519305
0.519525
0.519782
0.520042
0.52038
0.520645
0.521063
0.521361
0.521845
0.522185
0.522776
0.523167
0.523915
0.524375
0.525337
0.525911
0.527173
0.527874
0.530228
0.530463
0.543526
4.32826
512.785
0.755594
0.662957
0.614931
0.587537
0.570259
0.558565
0.550185
0.543977
0.539192
0.535455
0.532431
0.529988
0.527937
0.526235
0.524772
0.523544
0.522459
0.521538
0.520707
0.519998
0.519345
0.518785
0.518264
0.517824
0.517401
0.517043
0.516699
0.516415
0.51613
0.515889
0.515661
0.515478
0.515286
0.515132
0.514978
0.514862
0.514723
0.51462
0.514516
0.514441
0.514366
0.514314
0.514231
0.514184
0.514145
0.514114
0.514047
0.514037
0.51403
0.514018
0.513982
0.514059
0.514059
0.514059
0.514108
0.514107
0.514196
0.514332
0.514431
0.514586
0.514609
0.514609
0.514698
0.514835
0.515038
0.515177
0.515267
0.515415
0.515625
0.515788
0.515994
0.516219
0.516413
0.51664
0.51686
0.517117
0.517375
0.517713
0.517977
0.518395
0.518691
0.519175
0.519514
0.520104
0.520492
0.521238
0.521695
0.522652
0.523223
0.524478
0.525172
0.527518
0.527722
0.541185
4.4878
510.416
0.755569
0.66235
0.613793
0.586017
0.568472
0.556586
0.548063
0.541746
0.536877
0.533073
0.529994
0.527506
0.525418
0.523684
0.522195
0.520943
0.519838
0.5189
0.518052
0.517331
0.516665
0.516094
0.515564
0.515114
0.514683
0.514318
0.513967
0.513677
0.513387
0.513141
0.512908
0.51272
0.512525
0.512367
0.51221
0.51209
0.511948
0.511843
0.511737
0.511659
0.511582
0.511528
0.511443
0.511395
0.511354
0.511323
0.511255
0.511244
0.511235
0.511222
0.511183
0.511258
0.511258
0.511258
0.511305
0.511305
0.511393
0.511528
0.511624
0.511779
0.511804
0.511804
0.511892
0.512028
0.512229
0.51237
0.512462
0.512609
0.512817
0.51298
0.513184
0.51341
0.513603
0.513831
0.51405
0.514308
0.514564
0.514902
0.515164
0.515582
0.515876
0.51636
0.516697
0.517286
0.517672
0.518415
0.518869
0.519821
0.520389
0.521636
0.522322
0.524659
0.524833
0.538707
4.65149
507.298
0.755545
0.661721
0.612607
0.584429
0.566601
0.554512
0.545838
0.539406
0.534447
0.530572
0.527435
0.524899
0.522772
0.521004
0.519486
0.51821
0.517083
0.516127
0.515263
0.514527
0.513848
0.513266
0.512725
0.512266
0.511827
0.511454
0.511096
0.5108
0.510503
0.510253
0.510014
0.509822
0.509622
0.50946
0.509299
0.509177
0.509032
0.508924
0.508815
0.508735
0.508655
0.508599
0.508513
0.508462
0.50842
0.508388
0.508319
0.508306
0.508296
0.508283
0.508241
0.508313
0.508313
0.508313
0.508358
0.508358
0.508445
0.508579
0.508673
0.508828
0.508854
0.508854
0.508942
0.509077
0.509276
0.509418
0.509511
0.509657
0.509863
0.510028
0.51023
0.510456
0.510649
0.510877
0.511095
0.511353
0.511607
0.511946
0.512206
0.512623
0.512916
0.513399
0.513734
0.514322
0.514705
0.515446
0.515897
0.516843
0.517407
0.518646
0.519325
0.521652
0.521794
0.536089
4.81757
503.407
0.755524
0.661071
0.611374
0.582773
0.564648
0.552343
0.54351
0.536957
0.531903
0.527952
0.524754
0.522168
0.519998
0.518196
0.516647
0.515345
0.514196
0.51322
0.512339
0.511587
0.510895
0.510301
0.509749
0.50928
0.508832
0.508451
0.508085
0.507782
0.507479
0.507223
0.506979
0.506782
0.506578
0.506412
0.506246
0.506121
0.505972
0.505862
0.50575
0.505667
0.505584
0.505527
0.505439
0.505387
0.505342
0.505309
0.50524
0.505225
0.505214
0.505199
0.505154
0.505224
0.505224
0.505223
0.505267
0.505266
0.505352
0.505485
0.505577
0.505731
0.505759
0.505758
0.505847
0.50598
0.506177
0.506321
0.506415
0.50656
0.506765
0.50693
0.507131
0.507356
0.507549
0.507777
0.507994
0.508253
0.508504
0.508843
0.509102
0.509518
0.509809
0.510292
0.510624
0.511211
0.511591
0.512329
0.512778
0.513717
0.514277
0.515508
0.516179
0.518495
0.518606
0.533328
4.98396
498.727
0.755506
0.660401
0.610096
0.581052
0.562612
0.550082
0.541081
0.534399
0.529245
0.525214
0.521952
0.519312
0.517098
0.515259
0.513678
0.512348
0.511176
0.510179
0.509279
0.508512
0.507805
0.507198
0.506634
0.506155
0.505697
0.505308
0.504934
0.504624
0.504314
0.504052
0.503803
0.5036
0.503391
0.503221
0.503051
0.502922
0.502771
0.502657
0.502541
0.502456
0.50237
0.502311
0.502221
0.502167
0.50212
0.502086
0.502016
0.501999
0.501987
0.501971
0.501924
0.50199
0.50199
0.501989
0.50203
0.50203
0.502115
0.502247
0.502336
0.502489
0.502518
0.502518
0.502606
0.502738
0.502933
0.503078
0.503174
0.503317
0.50352
0.503686
0.503885
0.50411
0.504303
0.504532
0.504748
0.505006
0.505255
0.505594
0.505851
0.506266
0.506556
0.507038
0.507367
0.507953
0.50833
0.509065
0.50951
0.510443
0.510999
0.512221
0.512884
0.515187
0.515268
0.530419
5.14827
493.244
0.75549
0.659714
0.608774
0.579265
0.560496
0.547727
0.53855
0.531733
0.526473
0.522359
0.519028
0.516332
0.514072
0.512193
0.510579
0.50922
0.508022
0.507003
0.506085
0.5053
0.504578
0.503958
0.503381
0.502891
0.502424
0.502025
0.501643
0.501325
0.501009
0.500741
0.500485
0.500277
0.500063
0.499888
0.499714
0.499581
0.499426
0.499309
0.49919
0.499102
0.499013
0.498951
0.49886
0.498803
0.498754
0.498719
0.498648
0.498629
0.498615
0.498598
0.498548
0.498611
0.498611
0.49861
0.498649
0.498649
0.498732
0.498863
0.498949
0.499102
0.499132
0.499132
0.49922
0.49935
0.499543
0.49969
0.499787
0.499929
0.50013
0.500296
0.500493
0.500718
0.500911
0.501139
0.501354
0.501613
0.501859
0.502198
0.502453
0.502867
0.503155
0.503636
0.503963
0.504547
0.504921
0.505653
0.506095
0.50702
0.507572
0.508785
0.509439
0.511729
0.51178
0.527358
5.3078
486.948
0.755477
0.659009
0.60741
0.577415
0.558301
0.545282
0.535918
0.52896
0.523589
0.519386
0.515984
0.513229
0.51092
0.508999
0.50735
0.505961
0.504736
0.503694
0.502755
0.501953
0.501215
0.50058
0.499991
0.499489
0.499011
0.498603
0.498212
0.497886
0.497563
0.497288
0.497026
0.496812
0.496593
0.496413
0.496234
0.496097
0.495938
0.495818
0.495696
0.495604
0.495513
0.495448
0.495355
0.495296
0.495244
0.495208
0.495136
0.495115
0.495099
0.495081
0.495029
0.495088
0.495088
0.495087
0.495123
0.495123
0.495205
0.495334
0.495418
0.49557
0.495601
0.495601
0.495689
0.495817
0.496007
0.496156
0.496254
0.496395
0.496594
0.49676
0.496955
0.49718
0.497373
0.497601
0.497814
0.498073
0.498317
0.498655
0.498908
0.499321
0.499607
0.500087
0.500411
0.500994
0.501364
0.502092
0.502531
0.503449
0.503997
0.5052
0.505844
0.50812
0.508142
0.524141
5.45956
479.826
0.755468
0.658289
0.606005
0.575503
0.556028
0.542747
0.533188
0.526081
0.520593
0.516297
0.51282
0.510003
0.507642
0.505678
0.503991
0.50257
0.501318
0.500252
0.499292
0.49847
0.497716
0.497066
0.496463
0.495949
0.49546
0.495042
0.494642
0.494308
0.493976
0.493695
0.493426
0.493206
0.492981
0.492797
0.492613
0.492471
0.492309
0.492184
0.492058
0.491964
0.491869
0.491802
0.491706
0.491645
0.491591
0.491553
0.49148
0.491457
0.491439
0.49142
0.491365
0.491421
0.491421
0.491419
0.491453
0.491452
0.491533
0.49166
0.491741
0.491892
0.491925
0.491925
0.492012
0.492139
0.492326
0.492476
0.492575
0.492715
0.492912
0.493079
0.493272
0.493496
0.493688
0.493916
0.494128
0.494387
0.494628
0.494966
0.495216
0.495628
0.495912
0.496391
0.496712
0.497293
0.49766
0.498384
0.498819
0.499729
0.500272
0.501465
0.5021
0.50436
0.504353
0.520764
5.6003
471.864
0.755463
0.657554
0.604562
0.573532
0.553678
0.540124
0.53036
0.523096
0.517486
0.513093
0.509537
0.506655
0.50424
0.50223
0.500504
0.49905
0.497768
0.496677
0.495694
0.494853
0.494081
0.493416
0.492799
0.492272
0.491771
0.491343
0.490933
0.49059
0.49025
0.489961
0.489685
0.489459
0.489229
0.489039
0.48885
0.488704
0.488537
0.488409
0.488279
0.488181
0.488082
0.488013
0.487915
0.487851
0.487794
0.487755
0.487681
0.487656
0.487636
0.487615
0.487557
0.487609
0.487609
0.487606
0.487638
0.487637
0.487716
0.487842
0.487919
0.488069
0.488103
0.488103
0.488191
0.488315
0.488499
0.48865
0.488751
0.48889
0.489084
0.489252
0.489442
0.489666
0.489857
0.490085
0.490296
0.490555
0.490792
0.49113
0.491378
0.491789
0.49207
0.492548
0.492866
0.493444
0.493808
0.494527
0.494958
0.495861
0.496399
0.497581
0.498207
0.500449
0.500414
0.51722
5.72656
463.044
0.755461
0.656807
0.603082
0.571503
0.551255
0.537414
0.527436
0.520009
0.514271
0.509776
0.506136
0.503186
0.500714
0.498657
0.49689
0.4954
0.494088
0.492971
0.491964
0.491102
0.490311
0.48963
0.488998
0.488458
0.487945
0.487506
0.487085
0.486733
0.486385
0.486089
0.485805
0.485572
0.485335
0.48514
0.484946
0.484795
0.484624
0.484492
0.484358
0.484256
0.484154
0.484082
0.483981
0.483915
0.483855
0.483814
0.483738
0.483711
0.483689
0.483667
0.483606
0.483654
0.483654
0.483651
0.48368
0.483678
0.483756
0.483879
0.483953
0.484102
0.484137
0.484137
0.484224
0.484347
0.484528
0.48468
0.484782
0.48492
0.485111
0.485279
0.485467
0.485691
0.485881
0.486108
0.486317
0.486577
0.486811
0.487148
0.487394
0.487803
0.488082
0.488558
0.488873
0.489448
0.489808
0.490523
0.49095
0.491844
0.492377
0.493548
0.494164
0.496388
0.496325
0.513506
5.83471
453.343
0.755465
0.65605
0.601567
0.569418
0.54876
0.534619
0.524418
0.516819
0.510947
0.506345
0.502619
0.499598
0.497066
0.494959
0.493149
0.491623
0.490279
0.489133
0.488102
0.487219
0.486408
0.48571
0.485062
0.484508
0.483982
0.483531
0.4831
0.482739
0.482382
0.482077
0.481786
0.481546
0.481303
0.481102
0.480901
0.480746
0.48057
0.480434
0.480296
0.480191
0.480084
0.480009
0.479906
0.479837
0.479773
0.479731
0.479654
0.479624
0.479599
0.479576
0.479513
0.479557
0.479557
0.479552
0.479579
0.479576
0.479652
0.479774
0.479843
0.479991
0.480028
0.480028
0.480115
0.480235
0.480413
0.480566
0.480669
0.480805
0.480994
0.481162
0.481348
0.481571
0.48176
0.481987
0.482194
0.482453
0.482684
0.483021
0.483264
0.483671
0.483947
0.484421
0.484733
0.485306
0.485662
0.486371
0.486794
0.48768
0.488207
0.489367
0.489972
0.492178
0.492088
0.509616
5.92108
442.736
0.755473
0.655283
0.60002
0.56728
0.546194
0.531742
0.521307
0.51353
0.507517
0.502804
0.498987
0.495891
0.493297
0.491138
0.489283
0.487718
0.486341
0.485166
0.484109
0.483203
0.482373
0.481657
0.480992
0.480423
0.479884
0.479422
0.478979
0.478607
0.478242
0.477929
0.477629
0.477382
0.477132
0.476925
0.476718
0.476557
0.476377
0.476236
0.476093
0.475985
0.475874
0.475795
0.475689
0.475618
0.475551
0.475506
0.475428
0.475395
0.475369
0.475344
0.475278
0.475317
0.475317
0.475312
0.475336
0.475331
0.475406
0.475525
0.475591
0.475737
0.475775
0.475775
0.475862
0.47598
0.476155
0.476308
0.476413
0.476547
0.476733
0.476902
0.477085
0.477306
0.477494
0.477721
0.477927
0.478185
0.478413
0.478748
0.478989
0.479394
0.479667
0.480139
0.480448
0.481017
0.48137
0.482073
0.482492
0.483368
0.483889
0.485038
0.485633
0.487818
0.487702
0.505545
5.98201
431.195
0.755486
0.654508
0.598444
0.565091
0.543561
0.528784
0.518106
0.510142
0.503983
0.499153
0.495242
0.492068
0.489409
0.487195
0.485293
0.483689
0.482276
0.481071
0.479987
0.479058
0.478206
0.477471
0.476789
0.476205
0.475652
0.475177
0.474723
0.474341
0.473965
0.473644
0.473335
0.473081
0.472824
0.47261
0.472397
0.472231
0.472046
0.4719
0.471753
0.47164
0.471524
0.471443
0.471334
0.471259
0.471189
0.471142
0.471062
0.471027
0.470998
0.470972
0.470903
0.470938
0.470938
0.470931
0.470952
0.470946
0.471019
0.471136
0.471197
0.471341
0.471381
0.471381
0.471467
0.471583
0.471755
0.471908
0.472014
0.472147
0.47233
0.472498
0.472679
0.472899
0.473086
0.473312
0.473515
0.473774
0.473998
0.474332
0.47457
0.474973
0.475243
0.475713
0.476018
0.476584
0.476932
0.47763
0.478044
0.478911
0.479426
0.480562
0.481146
0.48331
0.483169
0.501288
6.01393
418.693
0.755505
0.653727
0.59684
0.562853
0.540864
0.525749
0.514817
0.506658
0.500347
0.495395
0.491385
0.48813
0.485404
0.483132
0.481182
0.479535
0.478086
0.476849
0.475737
0.474783
0.473909
0.473155
0.472455