/*--------------------------------*- C++ -*----------------------------------*\
| =========                 |                                                 |
| \\      /  F ield         | OpenFOAM: The Open Source CFD Toolbox           |
|  \\    /   O peration     | Version:  v2012                                 |
|   \\  /    A nd           | Website:  www.openfoam.com                      |
|    \\/     M anipulation  |                                                 |
\*---------------------------------------------------------------------------*/
FoamFile
{
    version     2.0;
    format      ascii;
    class       volScalarField;
    location    "21";
    object      k;
}
// * * * * * * * * * * * * * * * * * * * * * * * * * * * * * * * * * * * * * //

dimensions      [0 2 -2 0 0 0 0];


internalField   nonuniform List<scalar> 
209825
(
0.00102112
0.000930453
0.000868335
0.000826165
0.000796332
0.000774362
0.000757427
0.000744096
0.000733212
0.000724301
0.000716742
0.000710392
0.000704864
0.000700131
0.00069592
0.000692295
0.000689005
0.000686157
0.000683524
0.000681238
0.000679094
0.000677227
0.000675449
0.000673918
0.000672439
0.000671164
0.000669913
0.000668851
0.000667805
0.00066689
0.000665999
0.000665252
0.000664499
0.000663868
0.000663222
0.000662668
0.000662101
0.000661638
0.000661151
0.00066076
0.000660346
0.000660002
0.000659633
0.000659337
0.000659029
0.000658777
0.000658509
0.000658312
0.000658071
0.000657905
0.000657716
0.000657564
0.000657389
0.000657293
0.00065716
0.000657056
0.000656961
0.000656906
0.000656796
0.000656727
0.000656697
0.000656653
0.000656518
0.000656604
0.000656659
0.000656659
0.000656758
0.000656884
0.000657034
0.000657248
0.000657437
0.000657623
0.000657779
0.000658011
0.000658188
0.000658494
0.000658722
0.000659127
0.000659376
0.000659832
0.000660095
0.000660638
0.000660947
0.000661606
0.000661995
0.000662801
0.000663267
0.000664238
0.000664806
0.000666049
0.000666727
0.000668783
0.000669249
0.000677529
0.0100945
0.0103136
0.00102112
0.000930453
0.000868332
0.000826158
0.000796322
0.000774349
0.000757412
0.000744079
0.000733194
0.000724281
0.00071672
0.00071037
0.000704841
0.000700107
0.000695896
0.00069227
0.00068898
0.000686131
0.000683498
0.000681212
0.000679067
0.0006772
0.000675421
0.00067389
0.00067241
0.000671135
0.000669884
0.000668823
0.000667776
0.000666861
0.00066597
0.000665223
0.00066447
0.000663838
0.000663193
0.000662639
0.000662071
0.000661608
0.000661121
0.00066073
0.000660316
0.000659971
0.000659603
0.000659307
0.000658998
0.000658747
0.000658478
0.000658281
0.00065804
0.000657874
0.000657685
0.000657533
0.000657358
0.000657262
0.000657129
0.000657025
0.00065693
0.000656875
0.000656765
0.000656696
0.000656666
0.000656621
0.000656487
0.000656572
0.000656627
0.000656627
0.000656726
0.000656852
0.000657002
0.000657217
0.000657406
0.000657592
0.000657747
0.00065798
0.000658157
0.000658462
0.000658691
0.000659096
0.000659344
0.0006598
0.000660064
0.000660606
0.000660916
0.000661574
0.000661964
0.000662769
0.000663236
0.000664206
0.000664775
0.000666018
0.000666695
0.000668752
0.000669216
0.00067751
0.0101039
0.0103252
0.00102113
0.000930449
0.000868312
0.000826123
0.000796274
0.00077429
0.000757344
0.000744004
0.000733113
0.000724195
0.00071663
0.000710276
0.000704744
0.000700007
0.000695794
0.000692166
0.000688873
0.000686023
0.000683388
0.000681101
0.000678955
0.000677086
0.000675307
0.000673775
0.000672294
0.000671018
0.000669766
0.000668704
0.000667657
0.000666741
0.000665849
0.000665101
0.000664348
0.000663716
0.00066307
0.000662516
0.000661948
0.000661484
0.000660997
0.000660605
0.000660191
0.000659846
0.000659478
0.000659181
0.000658872
0.000658621
0.000658352
0.000658154
0.000657913
0.000657747
0.000657558
0.000657406
0.000657231
0.000657134
0.000657002
0.000656898
0.000656802
0.000656747
0.000656637
0.000656568
0.000656538
0.000656494
0.000656359
0.000656444
0.000656499
0.000656499
0.000656598
0.000656724
0.000656873
0.000657088
0.000657277
0.000657463
0.000657619
0.000657851
0.000658028
0.000658333
0.000658561
0.000658966
0.000659215
0.000659671
0.000659934
0.000660477
0.000660786
0.000661444
0.000661834
0.000662639
0.000663105
0.000664076
0.000664644
0.000665886
0.000666563
0.00066862
0.000669082
0.000677402
0.0101248
0.0103508
0.00102113
0.000930442
0.000868279
0.000826064
0.000796192
0.00077419
0.000757229
0.000743877
0.000732976
0.00072405
0.000716478
0.000710118
0.000704581
0.000699839
0.000695621
0.00069199
0.000688694
0.000685841
0.000683204
0.000680914
0.000678766
0.000676896
0.000675114
0.000673581
0.000672098
0.000670821
0.000669567
0.000668504
0.000667456
0.000666539
0.000665646
0.000664898
0.000664143
0.00066351
0.000662864
0.000662309
0.00066174
0.000661276
0.000660788
0.000660396
0.000659981
0.000659636
0.000659267
0.00065897
0.000658661
0.000658409
0.00065814
0.000657942
0.0006577
0.000657534
0.000657345
0.000657192
0.000657017
0.000656921
0.000656788
0.000656683
0.000656588
0.000656532
0.000656423
0.000656354
0.000656323
0.000656279
0.000656144
0.000656229
0.000656283
0.000656283
0.000656382
0.000656508
0.000656657
0.000656871
0.00065706
0.000657246
0.000657402
0.000657634
0.000657811
0.000658116
0.000658344
0.000658749
0.000658997
0.000659453
0.000659716
0.000660258
0.000660567
0.000661225
0.000661615
0.00066242
0.000662886
0.000663856
0.000664424
0.000665665
0.000666342
0.000668398
0.000668857
0.000677216
0.0101577
0.010391
0.00102114
0.000930431
0.000868232
0.00082598
0.000796076
0.000774048
0.000757067
0.000743698
0.000732783
0.000723845
0.000716263
0.000709895
0.00070435
0.000699602
0.000695378
0.000691742
0.000688441
0.000685585
0.000682943
0.00068065
0.000678499
0.000676626
0.000674842
0.000673306
0.000671822
0.000670542
0.000669287
0.000668222
0.000667172
0.000666254
0.00066536
0.00066461
0.000663855
0.00066322
0.000662573
0.000662017
0.000661448
0.000660983
0.000660494
0.000660101
0.000659685
0.000659339
0.00065897
0.000658673
0.000658363
0.00065811
0.00065784
0.000657642
0.0006574
0.000657234
0.000657044
0.000656891
0.000656716
0.000656619
0.000656486
0.000656381
0.000656285
0.00065623
0.00065612
0.000656051
0.00065602
0.000655975
0.00065584
0.000655925
0.000655979
0.000655979
0.000656077
0.000656203
0.000656352
0.000656566
0.000656754
0.00065694
0.000657096
0.000657328
0.000657505
0.000657809
0.000658037
0.000658441
0.000658689
0.000659145
0.000659409
0.00065995
0.000660259
0.000660917
0.000661306
0.00066211
0.000662576
0.000663545
0.000664113
0.000665353
0.000666029
0.000668085
0.000668538
0.000676952
0.0102035
0.0104464
0.00102115
0.000930418
0.000868172
0.000825871
0.000795926
0.000773865
0.000756857
0.000743466
0.000732533
0.00072358
0.000715985
0.000709605
0.000704051
0.000699295
0.000695063
0.00069142
0.000688114
0.000685252
0.000682606
0.000680308
0.000678153
0.000676277
0.00067449
0.000672951
0.000671463
0.000670182
0.000668924
0.000667857
0.000666805
0.000665885
0.000664989
0.000664237
0.00066348
0.000662845
0.000662196
0.000661639
0.000661068
0.000660602
0.000660112
0.000659718
0.000659302
0.000658955
0.000658585
0.000658287
0.000657976
0.000657723
0.000657452
0.000657254
0.000657011
0.000656844
0.000656654
0.000656501
0.000656325
0.000656228
0.000656095
0.00065599
0.000655893
0.000655838
0.000655727
0.000655658
0.000655627
0.000655582
0.000655447
0.000655531
0.000655584
0.000655584
0.000655682
0.000655808
0.000655956
0.000656169
0.000656358
0.000656544
0.000656699
0.000656932
0.000657108
0.000657412
0.000657639
0.000658043
0.000658291
0.000658747
0.00065901
0.000659551
0.00065986
0.000660516
0.000660905
0.000661709
0.000662174
0.000663142
0.000663709
0.000664949
0.000665623
0.000667678
0.000668125
0.00067661
0.0102628
0.010518
0.00102116
0.000930402
0.000868097
0.000825737
0.000795742
0.00077364
0.000756599
0.000743181
0.000732225
0.000723253
0.000715643
0.000709249
0.000703683
0.000698916
0.000694675
0.000691024
0.000687711
0.000684842
0.00068219
0.000679887
0.000677727
0.000675847
0.000674055
0.000672513
0.000671022
0.000669737
0.000668477
0.000667407
0.000666352
0.00066543
0.000664532
0.000663778
0.000663019
0.000662382
0.000661731
0.000661172
0.0006606
0.000660133
0.000659642
0.000659247
0.000658829
0.000658482
0.00065811
0.000657811
0.0006575
0.000657246
0.000656974
0.000656775
0.000656532
0.000656364
0.000656174
0.00065602
0.000655844
0.000655746
0.000655612
0.000655507
0.00065541
0.000655354
0.000655244
0.000655174
0.000655143
0.000655098
0.000654962
0.000655046
0.000655098
0.000655098
0.000655195
0.000655321
0.000655468
0.000655681
0.000655869
0.000656056
0.000656211
0.000656443
0.000656618
0.000656922
0.000657149
0.000657552
0.0006578
0.000658255
0.000658518
0.000659059
0.000659367
0.000660023
0.000660411
0.000661214
0.000661679
0.000662646
0.000663212
0.00066445
0.000665123
0.000667177
0.000667616
0.000676187
0.0103364
0.0106063
0.00102117
0.000930383
0.000868009
0.000825578
0.000795523
0.000773372
0.000756292
0.000742841
0.000731859
0.000722865
0.000715235
0.000708825
0.000703244
0.000698465
0.000694213
0.000690552
0.00068723
0.000684354
0.000681695
0.000679386
0.00067722
0.000675334
0.000673538
0.000671991
0.000670496
0.000669208
0.000667943
0.00066687
0.000665813
0.000664888
0.000663987
0.000663231
0.000662469
0.00066183
0.000661177
0.000660617
0.000660043
0.000659574
0.000659081
0.000658685
0.000658266
0.000657917
0.000657545
0.000657245
0.000656932
0.000656677
0.000656405
0.000656205
0.000655961
0.000655792
0.000655601
0.000655447
0.00065527
0.000655171
0.000655037
0.000654932
0.000654834
0.000654778
0.000654667
0.000654597
0.000654565
0.00065452
0.000654384
0.000654467
0.000654518
0.000654518
0.000654615
0.00065474
0.000654886
0.000655099
0.000655286
0.000655473
0.000655628
0.00065586
0.000656035
0.000656338
0.000656564
0.000656967
0.000657214
0.000657669
0.000657932
0.000658472
0.00065878
0.000659435
0.000659822
0.000660624
0.000661088
0.000662054
0.000662619
0.000663855
0.000664527
0.000666579
0.000667009
0.000675684
0.0104249
0.0107123
0.00102119
0.000930362
0.000867907
0.000825394
0.000795269
0.000773062
0.000755935
0.000742447
0.000731434
0.000722413
0.000714761
0.000708332
0.000702734
0.000697941
0.000693676
0.000690004
0.000686672
0.000683786
0.000681119
0.000678802
0.00067663
0.000674738
0.000672936
0.000671384
0.000669884
0.000668591
0.000667323
0.000666246
0.000665185
0.000664257
0.000663353
0.000662594
0.00066183
0.000661188
0.000660533
0.000659971
0.000659395
0.000658924
0.000658429
0.000658031
0.00065761
0.00065726
0.000656886
0.000656585
0.000656271
0.000656016
0.000655742
0.000655541
0.000655296
0.000655126
0.000654934
0.00065478
0.000654602
0.000654503
0.000654368
0.000654262
0.000654164
0.000654107
0.000653997
0.000653926
0.000653893
0.000653848
0.000653711
0.000653793
0.000653844
0.000653843
0.000653939
0.000654064
0.000654209
0.000654421
0.000654608
0.000654796
0.00065495
0.000655181
0.000655356
0.000655659
0.000655884
0.000656286
0.000656533
0.000656987
0.000657249
0.000657789
0.000658096
0.00065875
0.000659137
0.000659937
0.000660401
0.000661365
0.000661929
0.000663163
0.000663832
0.000665883
0.000666302
0.0006751
0.0105289
0.0108364
0.00102121
0.000930337
0.000867792
0.000825185
0.00079498
0.000772708
0.000755528
0.000741998
0.000730948
0.000721898
0.00071422
0.000707769
0.000702152
0.000697342
0.000693063
0.000689377
0.000686033
0.000683138
0.000680461
0.000678136
0.000675955
0.000674057
0.000672248
0.00067069
0.000669185
0.000667887
0.000666614
0.000665533
0.000664468
0.000663537
0.000662629
0.000661866
0.000661099
0.000660455
0.000659797
0.000659232
0.000658654
0.000658181
0.000657684
0.000657284
0.000656861
0.00065651
0.000656134
0.000655832
0.000655516
0.000655259
0.000654984
0.000654782
0.000654536
0.000654366
0.000654173
0.000654017
0.000653838
0.000653738
0.000653603
0.000653497
0.000653397
0.00065334
0.00065323
0.000653159
0.000653125
0.00065308
0.000652942
0.000653023
0.000653072
0.000653072
0.000653167
0.000653292
0.000653436
0.000653646
0.000653833
0.000654021
0.000654174
0.000654406
0.000654579
0.000654882
0.000655106
0.000655508
0.000655754
0.000656208
0.000656469
0.000657008
0.000657315
0.000657967
0.000658353
0.000659152
0.000659615
0.000660577
0.00066114
0.000662371
0.000663038
0.000665087
0.000665494
0.000674432
0.0106488
0.0109795
0.00102123
0.000930311
0.000867663
0.000824951
0.000794656
0.000772311
0.000755072
0.000741492
0.000730402
0.000721318
0.000713611
0.000707135
0.000701497
0.000696668
0.000692372
0.000688672
0.000685315
0.000682407
0.00067972
0.000677385
0.000675196
0.000673289
0.000671473
0.000669909
0.000668397
0.000667094
0.000665816
0.00066473
0.00066366
0.000662724
0.000661812
0.000661046
0.000660275
0.000659628
0.000658967
0.000658399
0.000657818
0.000657343
0.000656844
0.000656442
0.000656017
0.000655664
0.000655286
0.000654982
0.000654665
0.000654407
0.00065413
0.000653927
0.000653679
0.000653508
0.000653314
0.000653158
0.000652978
0.000652877
0.00065274
0.000652634
0.000652533
0.000652476
0.000652365
0.000652293
0.000652259
0.000652213
0.000652075
0.000652155
0.000652203
0.000652202
0.000652296
0.000652421
0.000652563
0.000652773
0.000652959
0.000653147
0.0006533
0.000653531
0.000653704
0.000654006
0.000654228
0.00065463
0.000654875
0.000655329
0.00065559
0.000656127
0.000656434
0.000657084
0.00065747
0.000658266
0.000658729
0.000659688
0.00066025
0.000661478
0.000662143
0.00066419
0.000664584
0.000673681
0.010785
0.011142
0.00102126
0.000930282
0.000867521
0.000824692
0.000794297
0.000771869
0.000754564
0.00074093
0.000729795
0.000720672
0.000712933
0.00070643
0.000700767
0.000695917
0.000691603
0.000687886
0.000684514
0.000681593
0.000678894
0.000676549
0.00067435
0.000672434
0.00067061
0.000669038
0.00066752
0.00066621
0.000664926
0.000663834
0.00066276
0.000661819
0.000660902
0.000660132
0.000659358
0.000658706
0.000658042
0.000657472
0.000656887
0.00065641
0.000655907
0.000655503
0.000655076
0.00065472
0.000654341
0.000654035
0.000653716
0.000653456
0.000653178
0.000652973
0.000652725
0.000652552
0.000652356
0.0006522
0.000652018
0.000651916
0.000651779
0.000651672
0.00065157
0.000651513
0.000651401
0.000651329
0.000651294
0.000651248
0.000651108
0.000651188
0.000651233
0.000651233
0.000651326
0.00065145
0.00065159
0.000651799
0.000651985
0.000652173
0.000652325
0.000652556
0.000652728
0.000653029
0.000653251
0.000653651
0.000653895
0.000654348
0.000654609
0.000655145
0.000655451
0.0006561
0.000656484
0.000657279
0.00065774
0.000658698
0.000659258
0.000660483
0.000661145
0.00066319
0.000663568
0.000672845
0.0109376
0.0113247
0.00102128
0.000930251
0.000867366
0.000824408
0.000793902
0.000771384
0.000754005
0.000740311
0.000729126
0.000719961
0.000712186
0.000705652
0.000699963
0.00069509
0.000690754
0.00068702
0.000683631
0.000680696
0.000677983
0.000675626
0.000673416
0.000671491
0.000669657
0.000668077
0.000666551
0.000665234
0.000663943
0.000662846
0.000661765
0.00066082
0.000659898
0.000659123
0.000658344
0.000657689
0.000657021
0.000656447
0.00065586
0.000655379
0.000654874
0.000654466
0.000654036
0.000653679
0.000653297
0.000652989
0.000652668
0.000652407
0.000652126
0.00065192
0.00065167
0.000651496
0.000651299
0.000651141
0.000650958
0.000650855
0.000650717
0.000650609
0.000650507
0.000650448
0.000650336
0.000650264
0.000650227
0.000650181
0.00065004
0.000650119
0.000650162
0.000650162
0.000650254
0.000650377
0.000650516
0.000650724
0.000650908
0.000651097
0.000651249
0.000651479
0.00065165
0.00065195
0.00065217
0.000652569
0.000652813
0.000653265
0.000653525
0.00065406
0.000654366
0.000655012
0.000655396
0.000656188
0.000656648
0.000657603
0.000658162
0.000659383
0.000660042
0.000662085
0.000662446
0.000671923
0.0111065
0.011528
0.00102131
0.000930218
0.000867197
0.000824099
0.000793472
0.000770855
0.000753395
0.000739635
0.000728395
0.000719184
0.000711369
0.000704801
0.000699083
0.000694184
0.000689826
0.000686071
0.000682664
0.000679713
0.000676985
0.000674615
0.000672393
0.000670457
0.000668614
0.000667024
0.00066549
0.000664165
0.000662867
0.000661763
0.000660676
0.000659725
0.000658798
0.000658018
0.000657234
0.000656574
0.000655902
0.000655325
0.000654733
0.000654249
0.00065374
0.00065333
0.000652898
0.000652538
0.000652153
0.000651843
0.000651519
0.000651256
0.000650974
0.000650766
0.000650514
0.000650338
0.00065014
0.000649981
0.000649797
0.000649692
0.000649553
0.000649445
0.000649341
0.000649282
0.000649169
0.000649096
0.000649058
0.000649011
0.00064887
0.000648947
0.000648989
0.000648989
0.000649078
0.000649201
0.000649338
0.000649545
0.000649729
0.000649917
0.000650068
0.000650298
0.000650468
0.000650767
0.000650986
0.000651384
0.000651627
0.000652078
0.000652337
0.000652871
0.000653175
0.00065382
0.000654202
0.000654992
0.000655451
0.000656403
0.00065696
0.000658177
0.000658833
0.000660873
0.000661217
0.000670913
0.0112915
0.0117525
0.00102134
0.000930183
0.000867016
0.000823766
0.000793006
0.000770281
0.000752734
0.000738901
0.000727601
0.000718339
0.000710482
0.000703876
0.000698126
0.000693199
0.000688816
0.000685039
0.000681612
0.000678643
0.0006759
0.000673515
0.00067128
0.000669333
0.000667478
0.000665879
0.000664335
0.000663002
0.000661696
0.000660584
0.000659491
0.000658534
0.0006576
0.000656815
0.000656025
0.000655361
0.000654684
0.000654102
0.000653507
0.000653019
0.000652507
0.000652094
0.000651658
0.000651295
0.000650908
0.000650596
0.000650269
0.000650004
0.000649719
0.00064951
0.000649256
0.000649078
0.000648878
0.000648718
0.000648532
0.000648426
0.000648286
0.000648177
0.000648071
0.000648011
0.000647899
0.000647824
0.000647786
0.000647738
0.000647596
0.000647671
0.000647711
0.000647711
0.000647798
0.000647921
0.000648056
0.00064826
0.000648444
0.000648633
0.000648783
0.000649012
0.000649181
0.000649479
0.000649696
0.000650092
0.000650334
0.000650785
0.000651043
0.000651575
0.000651879
0.000652521
0.000652902
0.00065369
0.000654147
0.000655096
0.000655651
0.000656864
0.000657516
0.000659553
0.000659877
0.000669813
0.0114919
0.0119986
0.00102138
0.000930147
0.000866823
0.000823408
0.000792506
0.000769664
0.00075202
0.000738109
0.000726744
0.000717427
0.000709523
0.000702877
0.000697091
0.000692134
0.000687724
0.000683923
0.000680475
0.000677487
0.000674726
0.000672326
0.000670077
0.000668116
0.00066625
0.000664639
0.000663085
0.000661743
0.000660428
0.000659308
0.000658208
0.000657244
0.000656303
0.000655512
0.000654717
0.000654047
0.000653365
0.00065278
0.00065218
0.000651688
0.000651172
0.000650755
0.000650315
0.00064995
0.00064956
0.000649245
0.000648915
0.000648648
0.00064836
0.000648149
0.000647893
0.000647714
0.000647512
0.000647351
0.000647163
0.000647056
0.000646914
0.000646804
0.000646696
0.000646636
0.000646523
0.000646447
0.000646407
0.000646359
0.000646216
0.00064629
0.000646327
0.000646327
0.000646412
0.000646534
0.000646667
0.00064687
0.000647052
0.000647241
0.00064739
0.000647619
0.000647787
0.000648084
0.000648299
0.000648694
0.000648935
0.000649385
0.000649642
0.000650172
0.000650475
0.000651115
0.000651494
0.000652279
0.000652735
0.00065368
0.000654233
0.000655441
0.000656089
0.000658123
0.000658427
0.000668622
0.011707
0.0122667
0.00102141
0.000930109
0.000866618
0.000823025
0.00079197
0.000769001
0.000751255
0.000737259
0.000725823
0.000716447
0.000708492
0.000701803
0.000695979
0.000690989
0.00068655
0.000682723
0.000679251
0.000676242
0.000673463
0.000671046
0.000668781
0.000666806
0.000664927
0.000663305
0.00066174
0.000660388
0.000659064
0.000657935
0.000656826
0.000655855
0.000654907
0.000654109
0.000653308
0.000652632
0.000651945
0.000651355
0.00065075
0.000650254
0.000649733
0.000649313
0.000648869
0.000648501
0.000648107
0.00064779
0.000647457
0.000647187
0.000646897
0.000646684
0.000646425
0.000646244
0.000646039
0.000645877
0.000645688
0.000645579
0.000645436
0.000645324
0.000645215
0.000645154
0.00064504
0.000644964
0.000644922
0.000644874
0.000644729
0.000644801
0.000644835
0.000644836
0.000644919
0.00064504
0.00064517
0.000645371
0.000645552
0.000645742
0.00064589
0.000646118
0.000646284
0.00064658
0.000646793
0.000647187
0.000647427
0.000647875
0.000648131
0.00064866
0.000648962
0.000649599
0.000649977
0.000650758
0.000651212
0.000652154
0.000652704
0.000653908
0.000654551
0.000656582
0.000656864
0.000667339
0.0119354
0.012557
0.00102145
0.00093007
0.0008664
0.000822619
0.000791399
0.000768295
0.000750438
0.000736351
0.000724839
0.000715399
0.000707389
0.000700653
0.000694788
0.000689763
0.000685292
0.000681437
0.00067794
0.000674909
0.000672109
0.000669674
0.000667392
0.000665402
0.000663509
0.000661874
0.000660297
0.000658935
0.0006576
0.000656462
0.000655345
0.000654366
0.00065341
0.000652605
0.000651797
0.000651115
0.000650422
0.000649827
0.000649217
0.000648716
0.000648191
0.000647766
0.000647318
0.000646947
0.000646549
0.000646229
0.000645893
0.000645621
0.000645327
0.000645111
0.000644851
0.000644667
0.00064446
0.000644297
0.000644105
0.000643994
0.000643849
0.000643737
0.000643626
0.000643564
0.000643449
0.000643372
0.000643328
0.00064328
0.000643134
0.000643204
0.000643236
0.000643236
0.000643316
0.000643436
0.000643564
0.000643764
0.000643943
0.000644133
0.00064428
0.000644507
0.000644672
0.000644966
0.000645178
0.000645569
0.000645808
0.000646255
0.000646511
0.000647037
0.000647338
0.000647972
0.000648348
0.000649126
0.000649578
0.000650516
0.000651064
0.000652262
0.000652901
0.000654928
0.000655187
0.00066596
0.0121755
0.0128697
0.00102149
0.00093003
0.000866172
0.00082219
0.000790793
0.000767545
0.000749569
0.000735384
0.000723791
0.000714282
0.000706214
0.000699427
0.000693519
0.000688454
0.000683949
0.000680065
0.000676541
0.000673486
0.000670664
0.000668209
0.000665909
0.000663904
0.000661995
0.000660347
0.000658757
0.000657383
0.000656037
0.000654889
0.000653762
0.000652775
0.000651811
0.000650999
0.000650183
0.000649495
0.000648795
0.000648194
0.000647578
0.000647073
0.000646543
0.000646113
0.000645661
0.000645286
0.000644885
0.000644561
0.000644221
0.000643946
0.00064365
0.000643431
0.000643168
0.000642982
0.000642773
0.000642608
0.000642414
0.000642301
0.000642154
0.000642041
0.000641928
0.000641864
0.000641749
0.00064167
0.000641625
0.000641576
0.000641429
0.000641497
0.000641526
0.000641526
0.000641604
0.000641723
0.000641847
0.000642045
0.000642223
0.000642413
0.000642559
0.000642785
0.000642949
0.000643242
0.000643451
0.000643841
0.000644078
0.000644523
0.000644778
0.000645302
0.000645601
0.000646232
0.000646607
0.000647381
0.000647831
0.000648764
0.00064931
0.000650503
0.000651136
0.000653159
0.000653394
0.000664483
0.0124253
0.0132047
0.00102153
0.000929989
0.000865932
0.000821737
0.000790154
0.00076675
0.000748648
0.000734359
0.000722678
0.000713096
0.000704965
0.000698125
0.000692169
0.000687064
0.000682523
0.000678606
0.000675053
0.000671972
0.000669127
0.000666651
0.000664332
0.000662309
0.000660385
0.000658721
0.000657118
0.000655731
0.000654374
0.000653215
0.000652078
0.000651082
0.000650109
0.000649288
0.000648464
0.000647769
0.000647063
0.000646456
0.000645834
0.000645323
0.000644788
0.000644354
0.000643897
0.000643518
0.000643113
0.000642785
0.000642442
0.000642164
0.000641863
0.000641642
0.000641376
0.000641187
0.000640976
0.000640809
0.000640612
0.000640497
0.000640349
0.000640234
0.000640119
0.000640054
0.000639938
0.000639858
0.000639811
0.000639761
0.000639613
0.000639678
0.000639704
0.000639705
0.000639779
0.000639897
0.000640019
0.000640214
0.000640391
0.000640581
0.000640726
0.000640951
0.000641113
0.000641404
0.000641611
0.000641999
0.000642234
0.000642678
0.000642932
0.000643453
0.000643752
0.000644379
0.000644752
0.000645522
0.00064597
0.000646899
0.000647441
0.000648628
0.000649256
0.000651275
0.000651485
0.000662907
0.0126823
0.0135617
0.00102158
0.000929948
0.000865682
0.000821261
0.00078948
0.000765913
0.000747675
0.000733275
0.000721502
0.000711841
0.000703643
0.000696745
0.00069074
0.000685591
0.000681011
0.000677059
0.000673476
0.000670367
0.000667497
0.000664999
0.000662659
0.000660618
0.000658676
0.000656997
0.000655379
0.000653979
0.00065261
0.000651439
0.000650291
0.000649286
0.000648303
0.000647473
0.000646641
0.000645939
0.000645225
0.000644612
0.000643983
0.000643467
0.000642925
0.000642486
0.000642025
0.000641641
0.000641231
0.0006409
0.000640552
0.000640271
0.000639967
0.000639743
0.000639474
0.000639282
0.000639068
0.000638899
0.0006387
0.000638583
0.000638432
0.000638316
0.000638198
0.000638133
0.000638015
0.000637934
0.000637885
0.000637835
0.000637685
0.000637748
0.000637771
0.000637771
0.000637842
0.000637959
0.000638077
0.00063827
0.000638445
0.000638636
0.000638779
0.000639003
0.000639163
0.000639453
0.000639657
0.000640043
0.000640276
0.000640719
0.000640971
0.00064149
0.000641787
0.000642411
0.000642781
0.000643547
0.000643993
0.000644917
0.000645456
0.000646636
0.000647259
0.000649272
0.000649457
0.000661228
0.0129433
0.0139402
0.00102163
0.000929907
0.000865422
0.000820764
0.000788773
0.000765032
0.000746651
0.000732133
0.000720261
0.000710517
0.000702248
0.000695289
0.00068923
0.000684035
0.000679413
0.000675425
0.000671809
0.000668671
0.000665774
0.000663252
0.00066089
0.000658829
0.000656869
0.000655173
0.00065354
0.000652126
0.000650743
0.00064956
0.000648401
0.000647385
0.000646391
0.000645553
0.000644712
0.000644001
0.000643279
0.00064266
0.000642024
0.000641502
0.000640954
0.00064051
0.000640042
0.000639654
0.00063924
0.000638904
0.000638552
0.000638268
0.00063796
0.000637733
0.00063746
0.000637266
0.000637048
0.000636877
0.000636675
0.000636556
0.000636403
0.000636286
0.000636165
0.000636098
0.00063598
0.000635897
0.000635846
0.000635795
0.000635644
0.000635704
0.000635723
0.000635724
0.00063579
0.000635906
0.000636021
0.000636212
0.000636385
0.000636576
0.000636717
0.00063694
0.000637099
0.000637386
0.000637588
0.000637971
0.000638203
0.000638644
0.000638894
0.00063941
0.000639706
0.000640326
0.000640694
0.000641455
0.000641899
0.000642817
0.000643353
0.000644527
0.000645143
0.000647151
0.00064731
0.000659443
0.013205
0.0143391
0.00102168
0.000929866
0.000865152
0.000820245
0.000788033
0.000764108
0.000745576
0.000730933
0.000718956
0.000709124
0.00070078
0.000693755
0.000687639
0.000682395
0.000677729
0.000673703
0.000670051
0.000666882
0.000663957
0.00066141
0.000659025
0.000656942
0.000654963
0.000653249
0.000651599
0.00065017
0.000648773
0.000647578
0.000646406
0.000645379
0.000644375
0.000643526
0.000642675
0.000641956
0.000641226
0.0006406
0.000639957
0.000639428
0.000638874
0.000638423
0.00063795
0.000637557
0.000637138
0.000636798
0.000636441
0.000636153
0.00063584
0.00063561
0.000635334
0.000635136
0.000634915
0.000634743
0.000634538
0.000634415
0.00063426
0.000634141
0.000634018
0.000633949
0.00063383
0.000633746
0.000633692
0.00063364
0.000633488
0.000633545
0.000633561
0.000633561
0.000633624
0.000633738
0.00063385
0.000634038
0.000634209
0.000634399
0.000634539
0.000634761
0.000634918
0.000635203
0.000635403
0.000635782
0.000636013
0.000636451
0.0006367
0.000637214
0.000637508
0.000638123
0.000638489
0.000639245
0.000639686
0.000640599
0.000641132
0.000642298
0.000642908
0.00064491
0.000645042
0.00065755
0.0134632
0.0147572
0.00102173
0.000929825
0.000864874
0.000819705
0.000787261
0.000763142
0.000744451
0.000729675
0.000717588
0.000707662
0.000699238
0.000692144
0.000685969
0.000680672
0.000675959
0.000671891
0.000668203
0.000665001
0.000662046
0.000659471
0.000657062
0.000654957
0.000652957
0.000651225
0.000649557
0.000648112
0.0006467
0.00064549
0.000644305
0.000643267
0.000642251
0.000641392
0.000640531
0.000639803
0.000639064
0.00063843
0.000637779
0.000637243
0.000636682
0.000636226
0.000635746
0.000635348
0.000634923
0.000634579
0.000634217
0.000633925
0.000633608
0.000633374
0.000633094
0.000632893
0.000632669
0.000632494
0.000632286
0.000632161
0.000632003
0.000631882
0.000631756
0.000631685
0.000631565
0.00063148
0.000631423
0.00063137
0.000631217
0.00063127
0.000631284
0.000631283
0.000631341
0.000631454
0.000631562
0.000631747
0.000631916
0.000632106
0.000632244
0.000632465
0.000632619
0.000632903
0.000633099
0.000633476
0.000633705
0.000634141
0.000634388
0.000634898
0.00063519
0.000635802
0.000636165
0.000636916
0.000637354
0.000638261
0.00063879
0.000639949
0.000640553
0.000642547
0.000642652
0.000655544
0.0137133
0.0151925
0.00102178
0.000929785
0.000864587
0.000819146
0.000786458
0.000762135
0.000743275
0.00072836
0.000716156
0.000706131
0.000697622
0.000690456
0.000684217
0.000678865
0.000674103
0.000669992
0.000666264
0.000663027
0.00066004
0.000657437
0.000655001
0.000652873
0.000650851
0.000649099
0.000647412
0.00064595
0.000644522
0.000643298
0.000642099
0.000641049
0.00064002
0.000639151
0.000638279
0.000637541
0.000636792
0.00063615
0.000635491
0.000634948
0.00063438
0.000633917
0.000633431
0.000633027
0.000632596
0.000632247
0.00063188
0.000631584
0.000631262
0.000631024
0.00063074
0.000630536
0.000630307
0.00063013
0.000629918
0.00062979
0.00062963
0.000629508
0.000629378
0.000629306
0.000629184
0.000629097
0.000629037
0.000628984
0.00062883
0.000628878
0.000628889
0.000628889
0.000628941
0.000629053
0.000629156
0.000629339
0.000629505
0.000629695
0.000629831
0.000630051
0.000630203
0.000630483
0.000630677
0.000631051
0.000631277
0.000631711
0.000631957
0.000632463
0.000632754
0.000633361
0.000633721
0.000634467
0.000634902
0.000635802
0.000636327
0.000637478
0.000638075
0.000640061
0.000640139
0.000653421
0.0139503
0.0156424
0.00102184
0.000929745
0.000864292
0.000818567
0.000785623
0.000761086
0.000742049
0.000726988
0.00071466
0.000704532
0.000695934
0.000688691
0.000682385
0.000676974
0.00067216
0.000668003
0.000664234
0.00066096
0.000657939
0.000655306
0.000652842
0.00065069
0.000648644
0.000646871
0.000645164
0.000643685
0.00064224
0.000641
0.000639787
0.000638724
0.000637682
0.0006368
0.000635917
0.000635169
0.000634411
0.00063376
0.000633092
0.000632541
0.000631965
0.000631495
0.000631002
0.000630593
0.000630156
0.000629802
0.000629429
0.000629128
0.000628801
0.000628559
0.000628271
0.000628063
0.00062783
0.00062765
0.000627435
0.000627304
0.000627141
0.000627016
0.000626884
0.000626809
0.000626686
0.000626597
0.000626534
0.00062648