/*--------------------------------*- C++ -*----------------------------------*\
| =========                 |                                                 |
| \\      /  F ield         | OpenFOAM: The Open Source CFD Toolbox           |
|  \\    /   O peration     | Version:  v2012                                 |
|   \\  /    A nd           | Website:  www.openfoam.com                      |
|    \\/     M anipulation  |                                                 |
\*---------------------------------------------------------------------------*/
FoamFile
{
    version     2.0;
    format      ascii;
    class       volScalarField;
    location    "21";
    object      nut;
}
// * * * * * * * * * * * * * * * * * * * * * * * * * * * * * * * * * * * * * //

dimensions      [0 2 -1 0 0 0 0];


internalField   nonuniform List<scalar> 
209825
(
1.24127e-07
1.16395e-07
1.08293e-07
1.01886e-07
9.7032e-08
9.3319e-08
9.03822e-08
8.80286e-08
8.60793e-08
8.44663e-08
8.30858e-08
8.19182e-08
8.08964e-08
8.00173e-08
7.92316e-08
7.85528e-08
7.79351e-08
7.73991e-08
7.69026e-08
7.64704e-08
7.60648e-08
7.57109e-08
7.53729e-08
7.50811e-08
7.47995e-08
7.4556e-08
7.43166e-08
7.41124e-08
7.39126e-08
7.37364e-08
7.35641e-08
7.34186e-08
7.32734e-08
7.31506e-08
7.30245e-08
7.29145e-08
7.28051e-08
7.27138e-08
7.26174e-08
7.25388e-08
7.2455e-08
7.23845e-08
7.23132e-08
7.22525e-08
7.21877e-08
7.2136e-08
7.20859e-08
7.20419e-08
7.19892e-08
7.19525e-08
7.19129e-08
7.18666e-08
7.18284e-08
7.18074e-08
7.17704e-08
7.17476e-08
7.1714e-08
7.16831e-08
7.16437e-08
7.16085e-08
7.16009e-08
7.15912e-08
7.15502e-08
7.15487e-08
7.15322e-08
7.1517e-08
7.15287e-08
7.15347e-08
7.15382e-08
7.15649e-08
7.15769e-08
7.15885e-08
7.15973e-08
7.16183e-08
7.16273e-08
7.16605e-08
7.16737e-08
7.17183e-08
7.17358e-08
7.178e-08
7.17971e-08
7.18515e-08
7.18719e-08
7.19372e-08
7.19674e-08
7.20426e-08
7.20804e-08
7.21589e-08
7.22037e-08
7.22995e-08
7.2346e-08
7.24748e-08
7.25027e-08
7.3099e-08
3.23787e-06
1.81551e-08
1.24127e-07
1.16396e-07
1.08295e-07
1.01888e-07
9.70337e-08
9.33205e-08
9.03834e-08
8.80295e-08
8.608e-08
8.44668e-08
8.30862e-08
8.19185e-08
8.08964e-08
8.00173e-08
7.92314e-08
7.85526e-08
7.79348e-08
7.73987e-08
7.69021e-08
7.64698e-08
7.60642e-08
7.57102e-08
7.53722e-08
7.50803e-08
7.47986e-08
7.45551e-08
7.43157e-08
7.41114e-08
7.39116e-08
7.37354e-08
7.3563e-08
7.34175e-08
7.32723e-08
7.31494e-08
7.30234e-08
7.29133e-08
7.28039e-08
7.27126e-08
7.26162e-08
7.25375e-08
7.24538e-08
7.23832e-08
7.23119e-08
7.22512e-08
7.21864e-08
7.21347e-08
7.20846e-08
7.20406e-08
7.19878e-08
7.19511e-08
7.19115e-08
7.18652e-08
7.1827e-08
7.1806e-08
7.1769e-08
7.17462e-08
7.17125e-08
7.16817e-08
7.16422e-08
7.16071e-08
7.15994e-08
7.15897e-08
7.15488e-08
7.15473e-08
7.15307e-08
7.15155e-08
7.15272e-08
7.15332e-08
7.15367e-08
7.15634e-08
7.15754e-08
7.1587e-08
7.15957e-08
7.16168e-08
7.16257e-08
7.1659e-08
7.16721e-08
7.17167e-08
7.17343e-08
7.17784e-08
7.17956e-08
7.18499e-08
7.18703e-08
7.19356e-08
7.19658e-08
7.2041e-08
7.20788e-08
7.21573e-08
7.22021e-08
7.22978e-08
7.23444e-08
7.24732e-08
7.2501e-08
7.30982e-08
3.23867e-06
1.83118e-08
1.24128e-07
1.16403e-07
1.08303e-07
1.01896e-07
9.70405e-08
9.33261e-08
9.0388e-08
8.80331e-08
8.60827e-08
8.44688e-08
8.30875e-08
8.19192e-08
8.08966e-08
8.0017e-08
7.92307e-08
7.85515e-08
7.79333e-08
7.73969e-08
7.69001e-08
7.64675e-08
7.60616e-08
7.57074e-08
7.53692e-08
7.50772e-08
7.47953e-08
7.45517e-08
7.43121e-08
7.41077e-08
7.39077e-08
7.37314e-08
7.35589e-08
7.34133e-08
7.32679e-08
7.3145e-08
7.30189e-08
7.29087e-08
7.27993e-08
7.27079e-08
7.26114e-08
7.25327e-08
7.24489e-08
7.23783e-08
7.23069e-08
7.22461e-08
7.21813e-08
7.21295e-08
7.20794e-08
7.20353e-08
7.19825e-08
7.19458e-08
7.19061e-08
7.18598e-08
7.18216e-08
7.18005e-08
7.17635e-08
7.17407e-08
7.17071e-08
7.16762e-08
7.16367e-08
7.16016e-08
7.15938e-08
7.15842e-08
7.15432e-08
7.15416e-08
7.15251e-08
7.15098e-08
7.15214e-08
7.15274e-08
7.15309e-08
7.15575e-08
7.15696e-08
7.15812e-08
7.15899e-08
7.16109e-08
7.16199e-08
7.16531e-08
7.16662e-08
7.17108e-08
7.17283e-08
7.17724e-08
7.17895e-08
7.18439e-08
7.18643e-08
7.19295e-08
7.19597e-08
7.20348e-08
7.20727e-08
7.21511e-08
7.21959e-08
7.22916e-08
7.23381e-08
7.24669e-08
7.24946e-08
7.30935e-08
3.2408e-06
1.85409e-08
1.24131e-07
1.16413e-07
1.08317e-07
1.01909e-07
9.70519e-08
9.33357e-08
9.03957e-08
8.80392e-08
8.60874e-08
8.44722e-08
8.30898e-08
8.19204e-08
8.0897e-08
8.00166e-08
7.92295e-08
7.85497e-08
7.7931e-08
7.7394e-08
7.68967e-08
7.64637e-08
7.60575e-08
7.57029e-08
7.53644e-08
7.5072e-08
7.47899e-08
7.4546e-08
7.43061e-08
7.41015e-08
7.39013e-08
7.37248e-08
7.35521e-08
7.34063e-08
7.32608e-08
7.31377e-08
7.30115e-08
7.29012e-08
7.27916e-08
7.27001e-08
7.26035e-08
7.25247e-08
7.24408e-08
7.23701e-08
7.22986e-08
7.22377e-08
7.21729e-08
7.2121e-08
7.20708e-08
7.20267e-08
7.19738e-08
7.1937e-08
7.18973e-08
7.1851e-08
7.18127e-08
7.17916e-08
7.17545e-08
7.17317e-08
7.1698e-08
7.16671e-08
7.16276e-08
7.15924e-08
7.15846e-08
7.15749e-08
7.15339e-08
7.15323e-08
7.15157e-08
7.15004e-08
7.15119e-08
7.15179e-08
7.15213e-08
7.15479e-08
7.15599e-08
7.15715e-08
7.15802e-08
7.16012e-08
7.16101e-08
7.16432e-08
7.16563e-08
7.17009e-08
7.17184e-08
7.17625e-08
7.17796e-08
7.18338e-08
7.18542e-08
7.19193e-08
7.19495e-08
7.20246e-08
7.20624e-08
7.21408e-08
7.21855e-08
7.22812e-08
7.23276e-08
7.24565e-08
7.24839e-08
7.30855e-08
3.24424e-06
1.8819e-08
1.24134e-07
1.16429e-07
1.08336e-07
1.01928e-07
9.70681e-08
9.33492e-08
9.04067e-08
8.80479e-08
8.6094e-08
8.4477e-08
8.3093e-08
8.19223e-08
8.08976e-08
8.00161e-08
7.9228e-08
7.85473e-08
7.79278e-08
7.73901e-08
7.68921e-08
7.64585e-08
7.60517e-08
7.56966e-08
7.53576e-08
7.50648e-08
7.47823e-08
7.4538e-08
7.42978e-08
7.40929e-08
7.38924e-08
7.37156e-08
7.35427e-08
7.33966e-08
7.32509e-08
7.31276e-08
7.30011e-08
7.28907e-08
7.27809e-08
7.26892e-08
7.25925e-08
7.25135e-08
7.24294e-08
7.23586e-08
7.2287e-08
7.2226e-08
7.2161e-08
7.21091e-08
7.20587e-08
7.20146e-08
7.19616e-08
7.19247e-08
7.1885e-08
7.18386e-08
7.18003e-08
7.17791e-08
7.17419e-08
7.17191e-08
7.16853e-08
7.16544e-08
7.16149e-08
7.15796e-08
7.15717e-08
7.1562e-08
7.15209e-08
7.15193e-08
7.15025e-08
7.14871e-08
7.14986e-08
7.15046e-08
7.15079e-08
7.15343e-08
7.15464e-08
7.1558e-08
7.15666e-08
7.15876e-08
7.15964e-08
7.16295e-08
7.16425e-08
7.1687e-08
7.17044e-08
7.17485e-08
7.17656e-08
7.18197e-08
7.18402e-08
7.19051e-08
7.19353e-08
7.20103e-08
7.20481e-08
7.21263e-08
7.2171e-08
7.22666e-08
7.2313e-08
7.24418e-08
7.24688e-08
7.30743e-08
3.24903e-06
1.91374e-08
1.24138e-07
1.16448e-07
1.08361e-07
1.01952e-07
9.70892e-08
9.33668e-08
9.0421e-08
8.80593e-08
8.61027e-08
8.44834e-08
8.30974e-08
8.19248e-08
8.08984e-08
8.00155e-08
7.92262e-08
7.85442e-08
7.79237e-08
7.7385e-08
7.68862e-08
7.64518e-08
7.60442e-08
7.56885e-08
7.53489e-08
7.50556e-08
7.47725e-08
7.45277e-08
7.42871e-08
7.40818e-08
7.38809e-08
7.37038e-08
7.35305e-08
7.33841e-08
7.3238e-08
7.31145e-08
7.29877e-08
7.28771e-08
7.2767e-08
7.26752e-08
7.25782e-08
7.2499e-08
7.24148e-08
7.23438e-08
7.2272e-08
7.22109e-08
7.21458e-08
7.20937e-08
7.20432e-08
7.19989e-08
7.19458e-08
7.19089e-08
7.18691e-08
7.18227e-08
7.17842e-08
7.17629e-08
7.17257e-08
7.17027e-08
7.16689e-08
7.16379e-08
7.15984e-08
7.1563e-08
7.1555e-08
7.15453e-08
7.1504e-08
7.15024e-08
7.14855e-08
7.147e-08
7.14813e-08
7.14873e-08
7.14905e-08
7.15169e-08
7.15289e-08
7.15405e-08
7.1549e-08
7.157e-08
7.15787e-08
7.16117e-08
7.16247e-08
7.1669e-08
7.16865e-08
7.17305e-08
7.17475e-08
7.18016e-08
7.1822e-08
7.18867e-08
7.19169e-08
7.19917e-08
7.20295e-08
7.21077e-08
7.21523e-08
7.22477e-08
7.2294e-08
7.24228e-08
7.24494e-08
7.30597e-08
3.25522e-06
1.94934e-08
1.24143e-07
1.16473e-07
1.08392e-07
1.01982e-07
9.71153e-08
9.33886e-08
9.04388e-08
8.80734e-08
8.61136e-08
8.44914e-08
8.31028e-08
8.19279e-08
8.08996e-08
8.00149e-08
7.92239e-08
7.85406e-08
7.79187e-08
7.73789e-08
7.6879e-08
7.64436e-08
7.60351e-08
7.56786e-08
7.53382e-08
7.50442e-08
7.47605e-08
7.45152e-08
7.4274e-08
7.40681e-08
7.38667e-08
7.36892e-08
7.35155e-08
7.33687e-08
7.32223e-08
7.30984e-08
7.29713e-08
7.28603e-08
7.275e-08
7.26579e-08
7.25607e-08
7.24813e-08
7.23968e-08
7.23256e-08
7.22536e-08
7.21923e-08
7.2127e-08
7.20747e-08
7.2024e-08
7.19797e-08
7.19264e-08
7.18894e-08
7.18495e-08
7.1803e-08
7.17644e-08
7.17429e-08
7.17057e-08
7.16827e-08
7.16487e-08
7.16177e-08
7.15782e-08
7.15427e-08
7.15345e-08
7.15247e-08
7.14834e-08
7.14816e-08
7.14646e-08
7.1449e-08
7.14601e-08
7.14661e-08
7.14692e-08
7.14953e-08
7.15073e-08
7.15189e-08
7.15274e-08
7.15483e-08
7.15569e-08
7.15899e-08
7.16027e-08
7.16469e-08
7.16643e-08
7.17083e-08
7.17252e-08
7.17792e-08
7.17995e-08
7.18641e-08
7.18943e-08
7.19689e-08
7.20066e-08
7.20847e-08
7.21292e-08
7.22245e-08
7.22707e-08
7.23994e-08
7.24255e-08
7.30418e-08
3.26285e-06
1.98879e-08
1.2415e-07
1.16502e-07
1.08429e-07
1.02018e-07
9.71465e-08
9.34148e-08
9.04601e-08
8.80903e-08
8.61266e-08
8.4501e-08
8.31093e-08
8.19318e-08
8.09011e-08
8.00142e-08
7.92213e-08
7.85363e-08
7.79128e-08
7.73716e-08
7.68704e-08
7.64339e-08
7.60244e-08
7.56669e-08
7.53256e-08
7.50308e-08
7.47463e-08
7.45002e-08
7.42584e-08
7.40519e-08
7.38499e-08
7.36719e-08
7.34976e-08
7.33504e-08
7.32035e-08
7.30792e-08
7.29518e-08
7.28405e-08
7.27298e-08
7.26373e-08
7.25398e-08
7.24601e-08
7.23754e-08
7.2304e-08
7.22317e-08
7.21702e-08
7.21046e-08
7.20522e-08
7.20012e-08
7.19567e-08
7.19032e-08
7.18661e-08
7.18261e-08
7.17796e-08
7.17408e-08
7.17192e-08
7.16819e-08
7.16588e-08
7.16246e-08
7.15935e-08
7.1554e-08
7.15184e-08
7.15101e-08
7.15002e-08
7.14587e-08
7.14569e-08
7.14396e-08
7.14239e-08
7.14349e-08
7.14409e-08
7.14437e-08
7.14697e-08
7.14817e-08
7.14933e-08
7.15016e-08
7.15225e-08
7.1531e-08
7.15638e-08
7.15765e-08
7.16206e-08
7.1638e-08
7.16818e-08
7.16987e-08
7.17525e-08
7.17728e-08
7.18372e-08
7.18673e-08
7.19417e-08
7.19794e-08
7.20573e-08
7.21017e-08
7.21968e-08
7.22429e-08
7.23716e-08
7.2397e-08
7.30205e-08
3.27195e-06
2.03245e-08
1.24157e-07
1.16535e-07
1.08473e-07
1.02059e-07
9.71829e-08
9.34453e-08
9.0485e-08
8.81101e-08
8.61419e-08
8.45123e-08
8.31171e-08
8.19364e-08
8.09029e-08
8.00136e-08
7.92184e-08
7.85314e-08
7.79061e-08
7.73633e-08
7.68605e-08
7.64227e-08
7.60119e-08
7.56533e-08
7.53109e-08
7.50151e-08
7.47297e-08
7.44829e-08
7.42402e-08
7.4033e-08
7.38304e-08
7.36518e-08
7.34769e-08
7.33291e-08
7.31817e-08
7.30569e-08
7.2929e-08
7.28173e-08
7.27062e-08
7.26134e-08
7.25155e-08
7.24355e-08
7.23504e-08
7.22788e-08
7.22062e-08
7.21445e-08
7.20786e-08
7.20259e-08
7.19747e-08
7.19301e-08
7.18763e-08
7.18391e-08
7.1799e-08
7.17524e-08
7.17133e-08
7.16916e-08
7.16541e-08
7.16309e-08
7.15966e-08
7.15655e-08
7.1526e-08
7.14902e-08
7.14816e-08
7.14717e-08
7.143e-08
7.14281e-08
7.14106e-08
7.13947e-08
7.14054e-08
7.14114e-08
7.14141e-08
7.14398e-08
7.14518e-08
7.14634e-08
7.14716e-08
7.14924e-08
7.15008e-08
7.15334e-08
7.15461e-08
7.15899e-08
7.16072e-08
7.1651e-08
7.16678e-08
7.17214e-08
7.17417e-08
7.18058e-08
7.18359e-08
7.191e-08
7.19477e-08
7.20254e-08
7.20697e-08
7.21646e-08
7.22106e-08
7.23391e-08
7.23639e-08
7.29958e-08
3.28253e-06
2.08086e-08
1.24165e-07
1.16573e-07
1.08522e-07
1.02107e-07
9.72247e-08
9.34804e-08
9.05136e-08
8.81329e-08
8.61595e-08
8.45253e-08
8.31261e-08
8.19418e-08
8.09051e-08
8.00129e-08
7.92152e-08
7.85259e-08
7.78985e-08
7.73538e-08
7.68493e-08
7.64099e-08
7.59977e-08
7.56378e-08
7.52942e-08
7.49973e-08
7.47109e-08
7.44631e-08
7.42196e-08
7.40115e-08
7.38081e-08
7.36288e-08
7.34532e-08
7.33049e-08
7.31568e-08
7.30315e-08
7.29031e-08
7.27909e-08
7.26793e-08
7.25861e-08
7.24878e-08
7.24074e-08
7.23219e-08
7.22499e-08
7.2177e-08
7.2115e-08
7.20489e-08
7.19959e-08
7.19444e-08
7.18996e-08
7.18455e-08
7.18081e-08
7.17679e-08
7.17212e-08
7.16819e-08
7.166e-08
7.16224e-08
7.15991e-08
7.15646e-08
7.15333e-08
7.14938e-08
7.14578e-08
7.14491e-08
7.14391e-08
7.13972e-08
7.13952e-08
7.13774e-08
7.13613e-08
7.13718e-08
7.13778e-08
7.13801e-08
7.14057e-08
7.14176e-08
7.14292e-08
7.14373e-08
7.14579e-08
7.14662e-08
7.14987e-08
7.15112e-08
7.15549e-08
7.15721e-08
7.16157e-08
7.16325e-08
7.16859e-08
7.17061e-08
7.17699e-08
7.17999e-08
7.18737e-08
7.19113e-08
7.19889e-08
7.2033e-08
7.21277e-08
7.21735e-08
7.2302e-08
7.23259e-08
7.29675e-08
3.29458e-06
2.13476e-08
1.24174e-07
1.16616e-07
1.08577e-07
1.02161e-07
9.72719e-08
9.35201e-08
9.05461e-08
8.81588e-08
8.61796e-08
8.45402e-08
8.31364e-08
8.19481e-08
8.09077e-08
8.00123e-08
7.92117e-08
7.85197e-08
7.789e-08
7.73432e-08
7.68368e-08
7.63956e-08
7.59817e-08
7.56204e-08
7.52754e-08
7.49773e-08
7.46896e-08
7.44408e-08
7.41963e-08
7.39873e-08
7.3783e-08
7.36029e-08
7.34266e-08
7.32775e-08
7.31287e-08
7.30028e-08
7.28738e-08
7.27611e-08
7.26489e-08
7.25553e-08
7.24565e-08
7.23757e-08
7.22898e-08
7.22174e-08
7.21441e-08
7.20818e-08
7.20153e-08
7.19621e-08
7.19102e-08
7.18651e-08
7.18108e-08
7.17732e-08
7.17328e-08
7.16861e-08
7.16465e-08
7.16243e-08
7.15866e-08
7.15632e-08
7.15284e-08
7.14971e-08
7.14575e-08
7.14214e-08
7.14123e-08
7.14023e-08
7.13602e-08
7.1358e-08
7.13399e-08
7.13237e-08
7.13338e-08
7.13398e-08
7.13419e-08
7.13671e-08
7.1379e-08
7.13906e-08
7.13985e-08
7.14191e-08
7.14272e-08
7.14595e-08
7.14718e-08
7.15153e-08
7.15324e-08
7.15759e-08
7.15926e-08
7.16457e-08
7.1666e-08
7.17294e-08
7.17593e-08
7.18328e-08
7.18703e-08
7.19476e-08
7.19916e-08
7.2086e-08
7.21317e-08
7.226e-08
7.2283e-08
7.29356e-08
3.30807e-06
2.19501e-08
1.24184e-07
1.16663e-07
1.08639e-07
1.02221e-07
9.73247e-08
9.35645e-08
9.05825e-08
8.8188e-08
8.62022e-08
8.4557e-08
8.31481e-08
8.19552e-08
8.09108e-08
8.00118e-08
7.92079e-08
7.85131e-08
7.78807e-08
7.73314e-08
7.68229e-08
7.63797e-08
7.5964e-08
7.5601e-08
7.52546e-08
7.4955e-08
7.4666e-08
7.4416e-08
7.41703e-08
7.39603e-08
7.37551e-08
7.35741e-08
7.33969e-08
7.3247e-08
7.30974e-08
7.29708e-08
7.28411e-08
7.27279e-08
7.26151e-08
7.25209e-08
7.24216e-08
7.23403e-08
7.2254e-08
7.21812e-08
7.21074e-08
7.20448e-08
7.19779e-08
7.19243e-08
7.1872e-08
7.18267e-08
7.1772e-08
7.17342e-08
7.16937e-08
7.16468e-08
7.16069e-08
7.15845e-08
7.15466e-08
7.1523e-08
7.14881e-08
7.14566e-08
7.14171e-08
7.13807e-08
7.13713e-08
7.13612e-08
7.13188e-08
7.13165e-08
7.1298e-08
7.12816e-08
7.12913e-08
7.12974e-08
7.12991e-08
7.13241e-08
7.13358e-08
7.13475e-08
7.13552e-08
7.13757e-08
7.13836e-08
7.14157e-08
7.14279e-08
7.1471e-08
7.14881e-08
7.15314e-08
7.1548e-08
7.16009e-08
7.16211e-08
7.16841e-08
7.1714e-08
7.17871e-08
7.18245e-08
7.19016e-08
7.19454e-08
7.20395e-08
7.20849e-08
7.22132e-08
7.22352e-08
7.29001e-08
3.32293e-06
2.26261e-08
1.24194e-07
1.16716e-07
1.08707e-07
1.02287e-07
9.73833e-08
9.36139e-08
9.0623e-08
8.82204e-08
8.62274e-08
8.45758e-08
8.31612e-08
8.19633e-08
8.09143e-08
8.00114e-08
7.92039e-08
7.85058e-08
7.78705e-08
7.73186e-08
7.68076e-08
7.63623e-08
7.59446e-08
7.55797e-08
7.52316e-08
7.49304e-08
7.464e-08
7.43887e-08
7.41417e-08
7.39306e-08
7.37242e-08
7.35423e-08
7.3364e-08
7.32133e-08
7.30628e-08
7.29355e-08
7.28051e-08
7.26912e-08
7.25777e-08
7.24829e-08
7.2383e-08
7.23012e-08
7.22143e-08
7.21411e-08
7.20669e-08
7.20038e-08
7.19365e-08
7.18825e-08
7.18297e-08
7.17842e-08
7.17292e-08
7.16911e-08
7.16504e-08
7.16034e-08
7.15632e-08
7.15405e-08
7.15024e-08
7.14787e-08
7.14434e-08
7.14118e-08
7.13723e-08
7.13356e-08
7.13259e-08
7.13157e-08
7.12731e-08
7.12706e-08
7.12517e-08
7.12351e-08
7.12444e-08
7.12504e-08
7.12518e-08
7.12765e-08
7.12881e-08
7.12998e-08
7.13074e-08
7.13277e-08
7.13354e-08
7.13672e-08
7.13792e-08
7.14221e-08
7.1439e-08
7.14822e-08
7.14987e-08
7.15513e-08
7.15714e-08
7.1634e-08
7.16638e-08
7.17364e-08
7.17738e-08
7.18506e-08
7.18943e-08
7.1988e-08
7.20332e-08
7.21613e-08
7.21822e-08
7.28608e-08
3.33907e-06
2.33866e-08
1.24206e-07
1.16772e-07
1.08781e-07
1.0236e-07
9.74477e-08
9.36683e-08
9.06677e-08
8.82562e-08
8.62553e-08
8.45967e-08
8.31758e-08
8.19724e-08
8.09185e-08
8.00112e-08
7.91997e-08
7.84981e-08
7.78595e-08
7.73047e-08
7.6791e-08
7.63433e-08
7.59233e-08
7.55565e-08
7.52064e-08
7.49036e-08
7.46115e-08
7.43587e-08
7.41104e-08
7.3898e-08
7.36904e-08
7.35074e-08
7.33281e-08
7.31763e-08
7.3025e-08
7.28967e-08
7.27655e-08
7.26509e-08
7.25367e-08
7.24413e-08
7.23407e-08
7.22583e-08
7.21709e-08
7.20971e-08
7.20224e-08
7.19589e-08
7.18911e-08
7.18367e-08
7.17833e-08
7.17375e-08
7.16821e-08
7.16438e-08
7.16029e-08
7.15558e-08
7.15152e-08
7.14922e-08
7.14539e-08
7.143e-08
7.13944e-08
7.13626e-08
7.13231e-08
7.12862e-08
7.12761e-08
7.12658e-08
7.12229e-08
7.12201e-08
7.12009e-08
7.11841e-08
7.11929e-08
7.11989e-08
7.11999e-08
7.12242e-08
7.12358e-08
7.12474e-08
7.12548e-08
7.12749e-08
7.12824e-08
7.1314e-08
7.13258e-08
7.13683e-08
7.13852e-08
7.14282e-08
7.14446e-08
7.14968e-08
7.15168e-08
7.15789e-08
7.16087e-08
7.16809e-08
7.17182e-08
7.17947e-08
7.18381e-08
7.19314e-08
7.19764e-08
7.21044e-08
7.2124e-08
7.28177e-08
3.35632e-06
2.42434e-08
1.24218e-07
1.16834e-07
1.08862e-07
1.0244e-07
9.75181e-08
9.37279e-08
9.07167e-08
8.82957e-08
8.62861e-08
8.46198e-08
8.31921e-08
8.19827e-08
8.09233e-08
8.00112e-08
7.91954e-08
7.84898e-08
7.78477e-08
7.72897e-08
7.67731e-08
7.63227e-08
7.59003e-08
7.55313e-08
7.51792e-08
7.48745e-08
7.45806e-08
7.43262e-08
7.40764e-08
7.38625e-08
7.36536e-08
7.34695e-08
7.3289e-08
7.31361e-08
7.29837e-08
7.28546e-08
7.27225e-08
7.26071e-08
7.2492e-08
7.23959e-08
7.22946e-08
7.22116e-08
7.21235e-08
7.20492e-08
7.19738e-08
7.19099e-08
7.18416e-08
7.17868e-08
7.17328e-08
7.16867e-08
7.16308e-08
7.15922e-08
7.15511e-08
7.15038e-08
7.14628e-08
7.14395e-08
7.14009e-08
7.13768e-08
7.13409e-08
7.1309e-08
7.12694e-08
7.12322e-08
7.12217e-08
7.12113e-08
7.11681e-08
7.11651e-08
7.11454e-08
7.11284e-08
7.11367e-08
7.11426e-08
7.11433e-08
7.11671e-08
7.11786e-08
7.11903e-08
7.11974e-08
7.12174e-08
7.12246e-08
7.1256e-08
7.12675e-08
7.13097e-08
7.13264e-08
7.13692e-08
7.13854e-08
7.14373e-08
7.14573e-08
7.15189e-08
7.15486e-08
7.16202e-08
7.16574e-08
7.17336e-08
7.17767e-08
7.18697e-08
7.19144e-08
7.20422e-08
7.20606e-08
7.27706e-08
3.37451e-06
2.52094e-08
1.24231e-07
1.169e-07
1.0895e-07
1.02526e-07
9.75946e-08
9.37928e-08
9.07703e-08
8.83388e-08
8.63198e-08
8.46453e-08
8.32101e-08
8.19941e-08
8.09288e-08
8.00115e-08
7.91909e-08
7.84811e-08
7.78351e-08
7.72737e-08
7.67539e-08
7.63006e-08
7.58756e-08
7.55041e-08
7.51497e-08
7.4843e-08
7.45472e-08
7.42911e-08
7.40396e-08
7.38242e-08
7.36139e-08
7.34284e-08
7.32466e-08
7.30926e-08
7.29391e-08
7.28089e-08
7.26758e-08
7.25596e-08
7.24436e-08
7.23467e-08
7.22446e-08
7.21609e-08
7.20722e-08
7.19973e-08
7.19213e-08
7.18568e-08
7.17879e-08
7.17326e-08
7.1678e-08
7.16315e-08
7.15752e-08
7.15363e-08
7.14949e-08
7.14474e-08
7.1406e-08
7.13823e-08
7.13435e-08
7.13192e-08
7.12829e-08
7.12508e-08
7.12112e-08
7.11737e-08
7.11627e-08
7.11522e-08
7.11087e-08
7.11055e-08
7.10853e-08
7.1068e-08
7.10757e-08
7.10816e-08
7.10818e-08
7.11052e-08
7.11166e-08
7.11283e-08
7.11351e-08
7.11549e-08
7.11619e-08
7.1193e-08
7.12043e-08
7.12461e-08
7.12626e-08
7.13052e-08
7.13213e-08
7.13728e-08
7.13927e-08
7.14537e-08
7.14833e-08
7.15544e-08
7.15915e-08
7.16673e-08
7.17102e-08
7.18027e-08
7.18471e-08
7.19747e-08
7.19917e-08
7.27194e-08
3.39335e-06
2.6298e-08
1.24244e-07
1.1697e-07
1.09044e-07
1.02619e-07
9.76775e-08
9.38632e-08
9.08284e-08
8.83857e-08
8.63567e-08
8.46731e-08
8.32299e-08
8.20067e-08
8.09351e-08
8.00121e-08
7.91864e-08
7.84721e-08
7.78218e-08
7.72566e-08
7.67334e-08
7.6277e-08
7.5849e-08
7.5475e-08
7.51182e-08
7.48092e-08
7.45114e-08
7.42533e-08
7.4e-08
7.3783e-08
7.35711e-08
7.33842e-08
7.3201e-08
7.30458e-08
7.2891e-08
7.27597e-08
7.26256e-08
7.25084e-08
7.23915e-08
7.22937e-08
7.21908e-08
7.21064e-08
7.20169e-08
7.19413e-08
7.18646e-08
7.17995e-08
7.17301e-08
7.16742e-08
7.16188e-08
7.1572e-08
7.15152e-08
7.14759e-08
7.14343e-08
7.13866e-08
7.13447e-08
7.13206e-08
7.12816e-08
7.1257e-08
7.12203e-08
7.1188e-08
7.11484e-08
7.11106e-08
7.10991e-08
7.10884e-08
7.10446e-08
7.10411e-08
7.10204e-08
7.10029e-08
7.10099e-08
7.10157e-08
7.10155e-08
7.10384e-08
7.10496e-08
7.10613e-08
7.10679e-08
7.10875e-08
7.10942e-08
7.11249e-08
7.1136e-08
7.11773e-08
7.11938e-08
7.12361e-08
7.1252e-08
7.13031e-08
7.13229e-08
7.13834e-08
7.14128e-08
7.14833e-08
7.15203e-08
7.15957e-08
7.16383e-08
7.17303e-08
7.17744e-08
7.19018e-08
7.19173e-08
7.2664e-08
3.41254e-06
2.75237e-08
1.24258e-07
1.17046e-07
1.09145e-07
1.02719e-07
9.77668e-08
9.39393e-08
9.08914e-08
8.84366e-08
8.63967e-08
8.47034e-08
8.32517e-08
8.20208e-08
8.09423e-08
8.00132e-08
7.9182e-08
7.84626e-08
7.78079e-08
7.72386e-08
7.67116e-08
7.62519e-08
7.58208e-08
7.5444e-08
7.50845e-08
7.47731e-08
7.4473e-08
7.42129e-08
7.39577e-08
7.37389e-08
7.35252e-08
7.33369e-08
7.31522e-08
7.29956e-08
7.28394e-08
7.2707e-08
7.25717e-08
7.24536e-08
7.23355e-08
7.22369e-08
7.2133e-08
7.20478e-08
7.19575e-08
7.18812e-08
7.18037e-08
7.17381e-08
7.16679e-08
7.16114e-08
7.15554e-08
7.15081e-08
7.14508e-08
7.14111e-08
7.13692e-08
7.13213e-08
7.12789e-08
7.12543e-08
7.1215e-08
7.11901e-08
7.11531e-08
7.11205e-08
7.10808e-08
7.10427e-08
7.10306e-08
7.10199e-08
7.09757e-08
7.09719e-08
7.09507e-08
7.09328e-08
7.09391e-08
7.09449e-08
7.09441e-08
7.09666e-08
7.09776e-08
7.09893e-08
7.09956e-08
7.1015e-08
7.10214e-08
7.10518e-08
7.10625e-08
7.11035e-08
7.11197e-08
7.11617e-08
7.11776e-08
7.12281e-08
7.12479e-08
7.13077e-08
7.1337e-08
7.14069e-08
7.14437e-08
7.15186e-08
7.1561e-08
7.16525e-08
7.16962e-08
7.18233e-08
7.18374e-08
7.26043e-08
3.43166e-06
2.89016e-08
1.24273e-07
1.17125e-07
1.09252e-07
1.02826e-07
9.78627e-08
9.40211e-08
9.09593e-08
8.84917e-08
8.64401e-08
8.47365e-08
8.32754e-08
8.20364e-08
8.09505e-08
8.00148e-08
7.91776e-08
7.8453e-08
7.77933e-08
7.72197e-08
7.66887e-08
7.62253e-08
7.57909e-08
7.5411e-08
7.50487e-08
7.47347e-08
7.44322e-08
7.41699e-08
7.39126e-08
7.36918e-08
7.34763e-08
7.32864e-08
7.31001e-08
7.2942e-08
7.27844e-08
7.26506e-08
7.25141e-08
7.23949e-08
7.22757e-08
7.21761e-08
7.20712e-08
7.19851e-08
7.18939e-08
7.18169e-08
7.17386e-08
7.16723e-08
7.16014e-08
7.15443e-08
7.14875e-08
7.14397e-08
7.13819e-08
7.13417e-08
7.12994e-08
7.12514e-08
7.12084e-08
7.11834e-08
7.11437e-08
7.11186e-08
7.1081e-08
7.10482e-08
7.10085e-08
7.097e-08
7.09574e-08
7.09465e-08
7.0902e-08
7.08977e-08
7.0876e-08
7.08579e-08
7.08634e-08
7.08691e-08
7.08678e-08
7.08897e-08
7.09006e-08
7.09122e-08
7.09181e-08
7.09374e-08
7.09435e-08
7.09734e-08
7.09839e-08
7.10243e-08
7.10404e-08
7.10821e-08
7.10978e-08
7.11478e-08
7.11675e-08
7.12266e-08
7.12558e-08
7.1325e-08
7.13616e-08
7.14361e-08
7.14782e-08
7.15691e-08
7.16125e-08
7.17393e-08
7.17517e-08
7.25402e-08
3.45025e-06
3.04471e-08
1.24288e-07
1.1721e-07
1.09367e-07
1.02941e-07
9.79653e-08
9.4109e-08
9.10324e-08
8.85511e-08
8.64871e-08
8.47724e-08
8.33014e-08
8.20535e-08
8.09597e-08
8.0017e-08
7.91734e-08
7.84431e-08
7.77782e-08
7.71999e-08
7.66646e-08
7.61974e-08
7.57593e-08
7.53762e-08
7.50108e-08
7.4694e-08
7.43888e-08
7.41242e-08
7.38647e-08
7.36418e-08
7.34244e-08
7.32327e-08
7.30446e-08
7.28849e-08
7.27258e-08
7.25907e-08
7.24529e-08
7.23325e-08
7.22121e-08
7.21114e-08
7.20055e-08
7.19184e-08
7.18263e-08
7.17484e-08
7.16692e-08
7.16022e-08
7.15306e-08
7.14728e-08
7.14151e-08
7.13669e-08
7.13084e-08
7.12677e-08
7.12251e-08
7.11768e-08
7.11332e-08
7.11077e-08
7.10677e-08
7.10422e-08
7.10042e-08
7.09711e-08
7.09314e-08
7.08925e-08
7.08793e-08
7.08682e-08
7.08233e-08
7.08186e-08
7.07964e-08
7.0778e-08
7.07826e-08
7.07882e-08
7.07863e-08
7.08076e-08
7.08183e-08
7.08299e-08
7.08355e-08
7.08545e-08
7.08603e-08
7.08898e-08
7.09e-08
7.09398e-08
7.09557e-08
7.09971e-08
7.10126e-08
7.10621e-08
7.10817e-08
7.11401e-08
7.11691e-08
7.12376e-08
7.1274e-08
7.13481e-08
7.13898e-08
7.14801e-08
7.15231e-08
7.16495e-08
7.16603e-08
7.24713e-08
3.46776e-06
3.21767e-08
1.24303e-07
1.17298e-07
1.09488e-07
1.03062e-07
9.80749e-08
9.4203e-08
9.11108e-08
8.86149e-08
8.65377e-08
8.48112e-08
8.33297e-08
8.20724e-08
8.09702e-08
8.002e-08
7.91696e-08
7.84331e-08
7.77626e-08
7.71793e-08
7.66394e-08
7.6168e-08
7.5726e-08
7.53395e-08
7.49708e-08
7.46511e-08
7.43431e-08
7.40759e-08
7.3814e-08
7.35889e-08
7.33694e-08
7.31758e-08
7.29858e-08
7.28245e-08
7.26637e-08
7.25271e-08
7.23878e-08
7.22662e-08
7.21445e-08
7.20427e-08
7.19356e-08
7.18476e-08
7.17544e-08
7.16757e-08
7.15955e-08
7.15278e-08
7.14553e-08
7.13968e-08
7.13382e-08
7.12894e-08
7.12303e-08
7.11891e-08
7.11461e-08
7.10976e-08
7.10533e-08
7.10272e-08
7.09868e-08
7.0961e-08
7.09225e-08
7.08891e-08
7.08493e-08
7.08101e-08
7.07961e-08
7.07849e-08
7.07397e-08
7.07345e-08
7.07117e-08
7.0693e-08
7.06966e-08
7.07021e-08
7.06996e-08
7.07203e-08
7.07308e-08
7.07423e-08
7.07476e-08
7.07663e-08
7.07717e-08
7.08008e-08
7.08107e-08
7.085e-08
7.08657e-08
7.09067e-08
7.0922e-08
7.09709e-08
7.09904e-08
7.10481e-08
7.10769e-08
7.11446e-08
7.11808e-08
7.12543e-08
7.12957e-08
7.13854e-08
7.14279e-08
7.15539e-08
7.1563e-08
7.23977e-08
3.48355e-06
3.4107e-08
1.24319e-07
1.17391e-07
1.09616e-07
1.03192e-07
9.81916e-08
9.43034e-08
9.11947e-08
8.86835e-08
8.65923e-08
8.48532e-08
8.33605e-08
8.20932e-08
8.09819e-08
8.00238e-08
7.91661e-08
7.84231e-08
7.77467e-08
7.7158e-08
7.66131e-08
7.61373e-08
7.56912e-08
7.53009e-08
7.49288e-08
7.46059e-08
7.42949e-08
7.4025e-08
7.37605e-08
7.35331e-08
7.33113e-08
7.31158e-08
7.29238e-08
7.27606e-08
7.2598e-08
7.24599e-08
7.23191e-08
7.21961e-08
7.2073e-08
7.197e-08
7.18617e-08
7.17726e-08
7.16783e-08
7.15987e-08
7.15175e-08
7.1449e-08
7.13756e-08
7.13163e-08
7.12567e-08
7.12074e-08
7.11475e-08
7.11057e-08
7.10623e-08
7.10135e-08
7.09685e-08
7.09419e-08
7.09011e-08
7.0875e-08
7.08359e-08
7.08022e-08
7.07623e-08
7.07227e-08
7.0708e-08
7.06966e-08
7.0651e-08
7.06453e-08
7.0622e-08
7.06029e-08
7.06054e-08
7.06108e-08
7.06077e-08
7.06277e-08
7.06379e-08
7.06494e-08
7.06543e-08
7.06727e-08
7.06778e-08
7.07064e-08
7.07159e-08
7.07546e-08
7.07701e-08
7.08107e-08
7.08258e-08
7.08742e-08
7.08935e-08
7.09504e-08
7.0979e-08
7.10459e-08
7.10819e-08
7.11548e-08
7.11958e-08
7.12848e-08
7.13269e-08
7.14525e-08
7.14598e-08
7.23189e-08
3.49692e-06
3.62545e-08
1.24336e-07
1.17488e-07
1.0975e-07
1.03328e-07
9.83156e-08
9.44104e-08
9.12843e-08
8.87569e-08
8.66509e-08
8.48986e-08
8.33939e-08
8.2116e-08
8.09952e-08
8.00285e-08
7.91631e-08
7.84132e-08
7.77304e-08
7.7136e-08
7.65859e-08
7.61054e-08
7.56549e-08
7.52607e-08
7.48848e-08
7.45585e-08
7.42443e-08
7.39716e-08
7.37043e-08
7.34743e-08
7.32501e-08
7.30525e-08
7.28584e-08
7.26933e-08
7.25288e-08
7.2389e-08
7.22466e-08
7.21222e-08
7.19975e-08
7.18933e-08
7.17837e-08
7.16934e-08
7.1598e-08
7.15173e-08
7.14351e-08
7.13657e-08
7.12913e-08
7.12312e-08
7.11706e-08
7.11207e-08
7.10601e-08
7.10177e-08
7.09737e-08
7.09247e-08
7.08789e-08
7.08517e-08
7.08105e-08
7.0784e-08
7.07443e-08
7.07102e-08
7.06703e-08
7.06302e-08
7.06148e-08
7.06032e-08
7.05572e-08
7.05509e-08
7.0527e-08
7.05076e-08
7.05089e-08
7.05142e-08
7.05104e-08
7.05298e-08
7.05397e-08
7.05511e-08
7.05556e-08
7.05737e-08
7.05784e-08
7.06065e-08
7.06157e-08
7.06537e-08
7.06689e-08
7.07091e-08
7.0724e-08
7.07717e-08
7.07909e-08
7.0847e-08
7.08754e-08
7.09414e-08
7.09771e-08
7.10495e-08
7.10901e-08
7.11784e-08
7.122e-08
7.1345e-08
7.13506e-08
7.22349e-08
3.50708e-06
3.86354e-08
1.24352e-07
1.1759e-07
1.09892e-07
1.03473e-07
9.84471e-08
9.45241e-08
9.13798e-08
8.88353e-08
8.67137e-08
8.49474e-08
8.34302e-08
8.2141e-08
8.101e-08
8.00344e-08
7.91607e-08
7.84034e-08
7.77139e-08
7.71135e-08
7.65578e-08
7.60723e-08
7.56171e-08
7.52187e-08
7.48388e-08
7.4509e-08
7.41914e-08
7.39156e-08
7.36454e-08
7.34127e-08
7.3186e-08
7.29861e-08
7.27897e-08
7.26225e-08
7.2456e-08
7.23144e-08
7.21703e-08
7.20444e-08
7.19182e-08
7.18125e-08
7.17015e-08
7.161e-08
7.15134e-08
7.14317e-08
7.13482e-08
7.12779e-08
7.12026e-08
7.11416e-08
7.10799e-08
7.10293e-08
7.09679e-08
7.09248e-08
7.08803e-08
7.0831e-08
7.07844e-08
7.07565e-08
7.07149e-08
7.06879e-08
7.06476e-08
7.06132e-08
7.05732e-08
7.05327e-08
7.05164e-08
7.05046e-08
7.04583e-08
7.04514e-08
7.04269e-08
7.04071e-08
7.04072e-08
7.04123e-08
7.04078e-08
7.04264e-08
7.0436e-08
7.04473e-08
7.04514e-08
7.04692e-08
7.04735e-08
7.0501e-08
7.05098e-08
7.05471e-08
7.05621e-08
7.06018e-08
7.06165e-08
7.06635e-08
7.06826e-08
7.07378e-08
7.07659e-08
7.08311e-08
7.08666e-08
7.09383e-08
7.09784e-08
7.10659e-08
7.11071e-08
7.12314e-08
7.12353e-08
7.21454e-08
3.51317e-06
4.12647e-08
1.24369e-07
1.17695e-07
1.10041e-07
1.03625e-07
9.85861e-08
9.46448e-08
9.14815e-08
8.89191e-08
8.67811e-08
8.5e-08
8.34694e-08
8.21684e-08
8.10267e-08
8.00414e-08
7.91591e-08
7.8394e-08
7.76974e-08
7.70906e-08
7.6529e-08
7.60381e-08
7.55779e-08
7.5175e-08
7.4791e-08
7.44573e-08
7.41361e-08
7.38571e-08
7.35838e-08
7.33483e-08
7.31188e-08
7.29165e-08
7.27177e-08
7.25484e-08
7.23797e-08
7.22362e-08
7.20902e-08
7.19628e-08
7.18348e-08
7.17277e-08
7.16152e-08
7.15224e-08
7.14245e-08
7.13416e-08
7.1257e-08
7.11857e-08
7.11093e-08
7.10473e-08
7.09846e-08
7.09332e-08
7.08709e-08
7.08271e-08
7.0782e-08
7.07325e-08
7.0685e-08
7.06564e-08
7.06143e-08
7.05869e-08
7.05459e-08
7.0511e-08
7.04709e-08
7.043e-08
7.04128e-08
7.04009e-08
7.03541e-08
7.03465e-08
7.03216e-08
7.03014e-08
7.03e-08
7.03049e-08
7.02997e-08
7.03175e-08
7.03267e-08
7.0338e-08
7.03416e-08
7.0359e-08
7.03629e-08
7.03899e-08
7.03983e-08
7.04349e-08
7.04496e-08
7.04888e-08
7.05033e-08
7.05496e-08
7.05685e-08
7.06227e-08
7.06507e-08
7.07149e-08
7.075e-08
7.08211e-08
7.08608e-08
7.09475e-08
7.09881e-08
7.11117e-08
7.11138e-08
7.20501e-08
3.51429e-06
4.41558e-08
1.24386e-07
1.17805e-07
1.10196e-07
1.03785e-07
9.8733e-08
9.47727e-08
9.15896e-08
8.90084e-08
8.68531e-08
8.50564e-08
8.35119e-08
8.21983e-08
8.10453e-08
8.00499e-08
7.91584e-08
7.83851e-08
7.76809e-08
7.70673e-08
7.64994e-08
7.60029e-08
7.55374e-08
7.51299e-08
7.47414e-08
7.44037e-08
7.40786e-08
7.37961e-08
7.35195e-08
7.3281e-08
7.30486e-08
7.28438e-08
7.26424e-08
7.24708e-08
7.22999e-08
7.21544e-08
7.20064e-08
7.18773e-08
7.17475e-08
7.16389e-08
7.15248e-08
7.14306e-08
7.13313e-08
7.12473e-08
7.11613e-08
7.10889e-08
7.10114e-08
7.09484e-08
7.08845e-08
7.08323e-08
7.07692e-08
7.07246e-08