/*--------------------------------*- C++ -*----------------------------------*\
| =========                 |                                                 |
| \\      /  F ield         | OpenFOAM: The Open Source CFD Toolbox           |
|  \\    /   O peration     | Version:  v2012                                 |
|   \\  /    A nd           | Website:  www.openfoam.com                      |
|    \\/     M anipulation  |                                                 |
\*---------------------------------------------------------------------------*/
FoamFile
{
    version     2.0;
    format      ascii;
    class       volVectorField;
    location    "21";
    object      wallShearStress;
}
// * * * * * * * * * * * * * * * * * * * * * * * * * * * * * * * * * * * * * //

dimensions      [0 2 -2 0 0 0 0];


internalField   uniform (0 0 0);

boundaryField
{
    inlet
    {
        type            calculated;
        value           uniform (0 0 0);
    }
    outlet
    {
        type            calculated;
        value           uniform (0 0 0);
    }
    topWall
    {
        type            calculated;
        value           nonuniform List<vector> 
545
(
(4.98272e-08 -3.50497e-08 0)
(4.97851e-08 -9.82222e-08 0)
(4.96074e-08 -1.6358e-07 0)
(4.95445e-08 -2.27012e-07 0)
(4.94645e-08 -2.87703e-07 0)
(4.93724e-08 -3.46431e-07 0)
(4.92701e-08 -4.03699e-07 0)
(4.9156e-08 -4.59482e-07 0)
(4.90315e-08 -5.13654e-07 0)
(4.88976e-08 -5.66212e-07 0)
(4.8755e-08 -6.17225e-07 0)
(4.86047e-08 -6.66752e-07 0)
(4.84474e-08 -7.14827e-07 0)
(4.82839e-08 -7.61479e-07 0)
(4.8115e-08 -8.06742e-07 0)
(4.79412e-08 -8.50654e-07 0)
(4.77631e-08 -8.93252e-07 0)
(4.75815e-08 -9.3457e-07 0)
(4.73967e-08 -9.74644e-07 0)
(4.72094e-08 -1.01351e-06 0)
(4.702e-08 -1.0512e-06 0)
(4.68289e-08 -1.08774e-06 0)
(4.66365e-08 -1.12318e-06 0)
(4.64432e-08 -1.15754e-06 0)
(4.62494e-08 -1.19085e-06 0)
(4.60553e-08 -1.22316e-06 0)
(4.58613e-08 -1.25447e-06 0)
(4.56677e-08 -1.28483e-06 0)
(4.54745e-08 -1.31427e-06 0)
(4.52823e-08 -1.34281e-06 0)
(4.5091e-08 -1.37048e-06 0)
(4.49009e-08 -1.3973e-06 0)
(4.47122e-08 -1.42331e-06 0)
(4.4525e-08 -1.44853e-06 0)
(4.43394e-08 -1.47298e-06 0)
(4.41557e-08 -1.49668e-06 0)
(4.39738e-08 -1.51967e-06 0)
(4.3794e-08 -1.54195e-06 0)
(4.36162e-08 -1.56356e-06 0)
(4.34406e-08 -1.58452e-06 0)
(4.32673e-08 -1.60484e-06 0)
(4.30962e-08 -1.62455e-06 0)
(4.29275e-08 -1.64366e-06 0)
(4.27611e-08 -1.66219e-06 0)
(4.25971e-08 -1.68017e-06 0)
(4.24356e-08 -1.69761e-06 0)
(4.22765e-08 -1.71452e-06 0)
(4.21199e-08 -1.73092e-06 0)
(4.19658e-08 -1.74684e-06 0)
(4.18142e-08 -1.76227e-06 0)
(4.1665e-08 -1.77725e-06 0)
(4.15183e-08 -1.79178e-06 0)
(4.1374e-08 -1.80588e-06 0)
(4.12322e-08 -1.81956e-06 0)
(4.10928e-08 -1.83283e-06 0)
(4.09558e-08 -1.84571e-06 0)
(4.08212e-08 -1.8582e-06 0)
(4.06889e-08 -1.87033e-06 0)
(4.05589e-08 -1.8821e-06 0)
(4.04313e-08 -1.89353e-06 0)
(4.03059e-08 -1.90461e-06 0)
(4.01827e-08 -1.91538e-06 0)
(4.00617e-08 -1.92582e-06 0)
(3.99428e-08 -1.93596e-06 0)
(3.98261e-08 -1.94581e-06 0)
(3.97114e-08 -1.95536e-06 0)
(3.95987e-08 -1.96464e-06 0)
(3.94881e-08 -1.97365e-06 0)
(3.93794e-08 -1.9824e-06 0)
(3.92722e-08 -1.99089e-06 0)
(3.91685e-08 -1.99917e-06 0)
(3.90599e-08 -2.00708e-06 0)
(3.89562e-08 -2.01478e-06 0)
(3.8866e-08 -2.02233e-06 0)
(3.87766e-08 -2.02964e-06 0)
(3.86876e-08 -2.03695e-06 0)
(3.85986e-08 -2.04423e-06 0)
(3.85098e-08 -2.05147e-06 0)
(3.84211e-08 -2.05865e-06 0)
(3.83325e-08 -2.06578e-06 0)
(3.8244e-08 -2.07287e-06 0)
(3.81556e-08 -2.0799e-06 0)
(3.80674e-08 -2.08689e-06 0)
(3.79792e-08 -2.09382e-06 0)
(3.78912e-08 -2.10071e-06 0)
(3.78034e-08 -2.10756e-06 0)
(3.77156e-08 -2.11435e-06 0)
(3.7628e-08 -2.1211e-06 0)
(3.75406e-08 -2.1278e-06 0)
(3.74532e-08 -2.13446e-06 0)
(3.7366e-08 -2.14107e-06 0)
(3.72788e-08 -2.14763e-06 0)
(3.71925e-08 -2.15416e-06 0)
(3.71031e-08 -2.16061e-06 0)
(3.70278e-08 -2.16738e-06 0)
(3.68962e-08 -2.1731e-06 0)
(3.67509e-08 -2.17881e-06 0)
(3.66732e-08 -2.18472e-06 0)
(3.66038e-08 -2.18955e-06 0)
(3.65355e-08 -2.19458e-06 0)
(3.64671e-08 -2.19971e-06 0)
(3.63986e-08 -2.20489e-06 0)
(3.63298e-08 -2.21006e-06 0)
(3.62607e-08 -2.21521e-06 0)
(3.61913e-08 -2.22035e-06 0)
(3.61217e-08 -2.22551e-06 0)
(3.60517e-08 -2.23067e-06 0)
(3.59814e-08 -2.23583e-06 0)
(3.59108e-08 -2.241e-06 0)
(3.584e-08 -2.24616e-06 0)
(3.57688e-08 -2.25133e-06 0)
(3.56973e-08 -2.2565e-06 0)
(3.56255e-08 -2.26167e-06 0)
(3.55534e-08 -2.26684e-06 0)
(3.54811e-08 -2.27202e-06 0)
(3.54084e-08 -2.27719e-06 0)
(3.53354e-08 -2.28237e-06 0)
(3.52621e-08 -2.28755e-06 0)
(3.51885e-08 -2.29273e-06 0)
(3.51146e-08 -2.29791e-06 0)
(3.50404e-08 -2.30309e-06 0)
(3.49659e-08 -2.30828e-06 0)
(3.48911e-08 -2.31346e-06 0)
(3.48159e-08 -2.31865e-06 0)
(3.47405e-08 -2.32383e-06 0)
(3.46648e-08 -2.32902e-06 0)
(3.45887e-08 -2.33421e-06 0)
(3.45124e-08 -2.3394e-06 0)
(3.44357e-08 -2.34459e-06 0)
(3.43588e-08 -2.34978e-06 0)
(3.42815e-08 -2.35498e-06 0)
(3.42039e-08 -2.36017e-06 0)
(3.4126e-08 -2.36536e-06 0)
(3.40478e-08 -2.37055e-06 0)
(3.39693e-08 -2.37575e-06 0)
(3.38905e-08 -2.38094e-06 0)
(3.38114e-08 -2.38613e-06 0)
(3.37319e-08 -2.39133e-06 0)
(3.36522e-08 -2.39652e-06 0)
(3.35721e-08 -2.40172e-06 0)
(3.34917e-08 -2.40691e-06 0)
(3.3411e-08 -2.4121e-06 0)
(3.333e-08 -2.41729e-06 0)
(3.32487e-08 -2.42249e-06 0)
(3.31671e-08 -2.42768e-06 0)
(3.30851e-08 -2.43287e-06 0)
(3.30029e-08 -2.43806e-06 0)
(3.29203e-08 -2.44325e-06 0)
(3.28374e-08 -2.44844e-06 0)
(3.27542e-08 -2.45363e-06 0)
(3.26707e-08 -2.45882e-06 0)
(3.25869e-08 -2.464e-06 0)
(3.25027e-08 -2.46919e-06 0)
(3.24183e-08 -2.47437e-06 0)
(3.23335e-08 -2.47955e-06 0)
(3.22484e-08 -2.48473e-06 0)
(3.2163e-08 -2.48991e-06 0)
(3.20773e-08 -2.49509e-06 0)
(3.19913e-08 -2.50027e-06 0)
(3.19049e-08 -2.50544e-06 0)
(3.18182e-08 -2.51062e-06 0)
(3.17313e-08 -2.51579e-06 0)
(3.1644e-08 -2.52095e-06 0)
(3.15563e-08 -2.52612e-06 0)
(3.14684e-08 -2.53129e-06 0)
(3.13802e-08 -2.53645e-06 0)
(3.12916e-08 -2.54161e-06 0)
(3.12027e-08 -2.54676e-06 0)
(3.11135e-08 -2.55192e-06 0)
(3.1024e-08 -2.55707e-06 0)
(3.09342e-08 -2.56222e-06 0)
(3.0844e-08 -2.56737e-06 0)
(3.07536e-08 -2.57251e-06 0)
(3.06628e-08 -2.57765e-06 0)
(3.05717e-08 -2.58279e-06 0)
(3.04803e-08 -2.58792e-06 0)
(3.03886e-08 -2.59305e-06 0)
(3.02965e-08 -2.59818e-06 0)
(3.02042e-08 -2.6033e-06 0)
(3.01115e-08 -2.60842e-06 0)
(3.00185e-08 -2.61354e-06 0)
(2.99252e-08 -2.61865e-06 0)
(2.98316e-08 -2.62376e-06 0)
(2.97377e-08 -2.62887e-06 0)
(2.96434e-08 -2.63397e-06 0)
(2.95489e-08 -2.63906e-06 0)
(2.9454e-08 -2.64415e-06 0)
(2.93588e-08 -2.64924e-06 0)
(2.92633e-08 -2.65432e-06 0)
(2.91675e-08 -2.6594e-06 0)
(2.90714e-08 -2.66448e-06 0)
(2.8975e-08 -2.66954e-06 0)
(2.88783e-08 -2.67461e-06 0)
(2.87812e-08 -2.67967e-06 0)
(2.86839e-08 -2.68472e-06 0)
(2.85862e-08 -2.68977e-06 0)
(2.84882e-08 -2.69481e-06 0)
(2.839e-08 -2.69985e-06 0)
(2.82914e-08 -2.70488e-06 0)
(2.81925e-08 -2.7099e-06 0)
(2.80933e-08 -2.71492e-06 0)
(2.79938e-08 -2.71994e-06 0)
(2.78939e-08 -2.72495e-06 0)
(2.77938e-08 -2.72995e-06 0)
(2.76934e-08 -2.73494e-06 0)
(2.75927e-08 -2.73993e-06 0)
(2.74917e-08 -2.74492e-06 0)
(2.73903e-08 -2.74989e-06 0)
(2.72887e-08 -2.75486e-06 0)
(2.71868e-08 -2.75982e-06 0)
(2.70846e-08 -2.76478e-06 0)
(2.6982e-08 -2.76973e-06 0)
(2.68792e-08 -2.77467e-06 0)
(2.67761e-08 -2.7796e-06 0)
(2.66727e-08 -2.78453e-06 0)
(2.6569e-08 -2.78945e-06 0)
(2.6465e-08 -2.79436e-06 0)
(2.63607e-08 -2.79926e-06 0)
(2.62561e-08 -2.80416e-06 0)
(2.61512e-08 -2.80905e-06 0)
(2.60461e-08 -2.81393e-06 0)
(2.59406e-08 -2.8188e-06 0)
(2.58349e-08 -2.82366e-06 0)
(2.57289e-08 -2.82852e-06 0)
(2.56225e-08 -2.83336e-06 0)
(2.5516e-08 -2.8382e-06 0)
(2.54091e-08 -2.84303e-06 0)
(2.53019e-08 -2.84785e-06 0)
(2.51945e-08 -2.85266e-06 0)
(2.50868e-08 -2.85746e-06 0)
(2.49788e-08 -2.86225e-06 0)
(2.48705e-08 -2.86703e-06 0)
(2.47619e-08 -2.8718e-06 0)
(2.46531e-08 -2.87657e-06 0)
(2.4544e-08 -2.88132e-06 0)
(2.44347e-08 -2.88606e-06 0)
(2.4325e-08 -2.8908e-06 0)
(2.42151e-08 -2.89552e-06 0)
(2.4105e-08 -2.90023e-06 0)
(2.39945e-08 -2.90493e-06 0)
(2.38838e-08 -2.90963e-06 0)
(2.37729e-08 -2.91431e-06 0)
(2.36617e-08 -2.91898e-06 0)
(2.35502e-08 -2.92364e-06 0)
(2.34384e-08 -2.92828e-06 0)
(2.33265e-08 -2.93292e-06 0)
(2.32142e-08 -2.93754e-06 0)
(2.31017e-08 -2.94216e-06 0)
(2.2989e-08 -2.94676e-06 0)
(2.2876e-08 -2.95135e-06 0)
(2.27628e-08 -2.95593e-06 0)
(2.26493e-08 -2.96049e-06 0)
(2.25355e-08 -2.96505e-06 0)
(2.24216e-08 -2.96959e-06 0)
(2.23074e-08 -2.97412e-06 0)
(2.21929e-08 -2.97864e-06 0)
(2.20783e-08 -2.98314e-06 0)
(2.19634e-08 -2.98763e-06 0)
(2.18482e-08 -2.99211e-06 0)
(2.17329e-08 -2.99658e-06 0)
(2.16173e-08 -3.00103e-06 0)
(2.15015e-08 -3.00547e-06 0)
(2.13854e-08 -3.00989e-06 0)
(2.12692e-08 -3.0143e-06 0)
(2.11526e-08 -3.0187e-06 0)
(2.10363e-08 -3.02309e-06 0)
(2.0918e-08 -3.02744e-06 0)
(2.08089e-08 -3.03206e-06 0)
(2.06634e-08 -3.03593e-06 0)
(2.05059e-08 -3.03991e-06 0)
(2.03958e-08 -3.04433e-06 0)
(2.02953e-08 -3.04802e-06 0)
(2.01935e-08 -3.05179e-06 0)
(2.00912e-08 -3.05568e-06 0)
(1.99878e-08 -3.05962e-06 0)
(1.98832e-08 -3.06359e-06 0)
(1.97775e-08 -3.06756e-06 0)
(1.96705e-08 -3.07154e-06 0)
(1.95623e-08 -3.07555e-06 0)
(1.94529e-08 -3.07959e-06 0)
(1.93422e-08 -3.08364e-06 0)
(1.92304e-08 -3.08772e-06 0)
(1.91173e-08 -3.09181e-06 0)
(1.90029e-08 -3.09593e-06 0)
(1.88873e-08 -3.10006e-06 0)
(1.87705e-08 -3.10422e-06 0)
(1.86524e-08 -3.10839e-06 0)
(1.8533e-08 -3.11258e-06 0)
(1.84123e-08 -3.11679e-06 0)
(1.82904e-08 -3.12102e-06 0)
(1.81672e-08 -3.12526e-06 0)
(1.80427e-08 -3.12953e-06 0)
(1.79169e-08 -3.1338e-06 0)
(1.77898e-08 -3.1381e-06 0)
(1.76614e-08 -3.14241e-06 0)
(1.75317e-08 -3.14673e-06 0)
(1.74006e-08 -3.15107e-06 0)
(1.72683e-08 -3.15543e-06 0)
(1.71345e-08 -3.15979e-06 0)
(1.69995e-08 -3.16417e-06 0)
(1.68631e-08 -3.16856e-06 0)
(1.67254e-08 -3.17297e-06 0)
(1.65864e-08 -3.17738e-06 0)
(1.64459e-08 -3.18181e-06 0)
(1.63042e-08 -3.18624e-06 0)
(1.6161e-08 -3.19069e-06 0)
(1.60165e-08 -3.19514e-06 0)
(1.58707e-08 -3.1996e-06 0)
(1.57234e-08 -3.20407e-06 0)
(1.55748e-08 -3.20854e-06 0)
(1.54249e-08 -3.21302e-06 0)
(1.52735e-08 -3.21751e-06 0)
(1.51208e-08 -3.22199e-06 0)
(1.49667e-08 -3.22648e-06 0)
(1.48113e-08 -3.23097e-06 0)
(1.46544e-08 -3.23547e-06 0)
(1.44962e-08 -3.23996e-06 0)
(1.43366e-08 -3.24446e-06 0)
(1.41756e-08 -3.24895e-06 0)
(1.40133e-08 -3.25343e-06 0)
(1.38496e-08 -3.25792e-06 0)
(1.36845e-08 -3.2624e-06 0)
(1.35181e-08 -3.26687e-06 0)
(1.33503e-08 -3.27134e-06 0)
(1.31812e-08 -3.2758e-06 0)
(1.30107e-08 -3.28025e-06 0)
(1.28389e-08 -3.28468e-06 0)
(1.26657e-08 -3.28911e-06 0)
(1.24913e-08 -3.29352e-06 0)
(1.23154e-08 -3.29793e-06 0)
(1.21383e-08 -3.30231e-06 0)
(1.19599e-08 -3.30668e-06 0)
(1.17802e-08 -3.31102e-06 0)
(1.15992e-08 -3.31535e-06 0)
(1.14169e-08 -3.31966e-06 0)
(1.12334e-08 -3.32395e-06 0)
(1.10486e-08 -3.32821e-06 0)
(1.08626e-08 -3.33244e-06 0)
(1.06754e-08 -3.33665e-06 0)
(1.04869e-08 -3.34083e-06 0)
(1.02973e-08 -3.34498e-06 0)
(1.01065e-08 -3.3491e-06 0)
(9.91456e-09 -3.35318e-06 0)
(9.72148e-09 -3.35723e-06 0)
(9.52728e-09 -3.36124e-06 0)
(9.332e-09 -3.36522e-06 0)
(9.13563e-09 -3.36915e-06 0)
(8.93823e-09 -3.37304e-06 0)
(8.73979e-09 -3.37689e-06 0)
(8.54036e-09 -3.38069e-06 0)
(8.33995e-09 -3.38444e-06 0)
(8.1386e-09 -3.38814e-06 0)
(7.93632e-09 -3.39179e-06 0)
(7.73315e-09 -3.39539e-06 0)
(7.52912e-09 -3.39893e-06 0)
(7.32427e-09 -3.40242e-06 0)
(7.11862e-09 -3.40584e-06 0)
(6.91221e-09 -3.4092e-06 0)
(6.70506e-09 -3.4125e-06 0)
(6.49723e-09 -3.41573e-06 0)
(6.28874e-09 -3.4189e-06 0)
(6.07964e-09 -3.42199e-06 0)
(5.86996e-09 -3.42501e-06 0)
(5.65975e-09 -3.42796e-06 0)
(5.44904e-09 -3.43082e-06 0)
(5.23789e-09 -3.43362e-06 0)
(5.02632e-09 -3.43632e-06 0)
(4.81441e-09 -3.43895e-06 0)
(4.60217e-09 -3.44148e-06 0)
(4.38968e-09 -3.44393e-06 0)
(4.17697e-09 -3.44628e-06 0)
(3.96411e-09 -3.44855e-06 0)
(3.75113e-09 -3.45072e-06 0)
(3.5381e-09 -3.45279e-06 0)
(3.32506e-09 -3.45475e-06 0)
(3.11208e-09 -3.45662e-06 0)
(2.8992e-09 -3.45838e-06 0)
(2.6865e-09 -3.46003e-06 0)
(2.47403e-09 -3.46157e-06 0)
(2.26184e-09 -3.46301e-06 0)
(2.05001e-09 -3.46432e-06 0)
(1.83859e-09 -3.46552e-06 0)
(1.62764e-09 -3.46659e-06 0)
(1.41724e-09 -3.46755e-06 0)
(1.20745e-09 -3.46837e-06 0)
(9.98334e-10 -3.46908e-06 0)
(7.89957e-10 -3.46965e-06 0)
(5.82392e-10 -3.47009e-06 0)
(3.75705e-10 -3.47039e-06 0)
(1.69969e-10 -3.47056e-06 0)
(-3.47466e-11 -3.47059e-06 0)
(-2.38371e-10 -3.47048e-06 0)
(-4.40832e-10 -3.47022e-06 0)
(-6.42057e-10 -3.46982e-06 0)
(-8.41973e-10 -3.46927e-06 0)
(-1.04051e-09 -3.46857e-06 0)
(-1.23759e-09 -3.46771e-06 0)
(-1.43314e-09 -3.46671e-06 0)
(-1.62708e-09 -3.46554e-06 0)
(-1.81935e-09 -3.46422e-06 0)
(-2.00986e-09 -3.46273e-06 0)
(-2.19854e-09 -3.46109e-06 0)
(-2.38532e-09 -3.45927e-06 0)
(-2.57013e-09 -3.4573e-06 0)
(-2.75287e-09 -3.45515e-06 0)
(-2.93349e-09 -3.45284e-06 0)
(-3.1119e-09 -3.45034e-06 0)
(-3.28804e-09 -3.44769e-06 0)
(-3.46181e-09 -3.44484e-06 0)
(-3.63316e-09 -3.44184e-06 0)
(-3.80199e-09 -3.43864e-06 0)
(-3.96825e-09 -3.43527e-06 0)
(-4.13184e-09 -3.43172e-06 0)
(-4.2927e-09 -3.42799e-06 0)
(-4.45074e-09 -3.42407e-06 0)
(-4.60591e-09 -3.41998e-06 0)
(-4.7581e-09 -3.41569e-06 0)
(-4.90728e-09 -3.41122e-06 0)
(-5.05333e-09 -3.40657e-06 0)
(-5.19622e-09 -3.40173e-06 0)
(-5.33584e-09 -3.3967e-06 0)
(-5.47217e-09 -3.39149e-06 0)
(-5.60509e-09 -3.38608e-06 0)
(-5.73459e-09 -3.3805e-06 0)
(-5.86057e-09 -3.37471e-06 0)
(-5.983e-09 -3.36876e-06 0)
(-6.10179e-09 -3.3626e-06 0)
(-6.21695e-09 -3.35627e-06 0)
(-6.32836e-09 -3.34974e-06 0)
(-6.43605e-09 -3.34304e-06 0)
(-6.53992e-09 -3.33614e-06 0)
(-6.63998e-09 -3.32907e-06 0)
(-6.73616e-09 -3.3218e-06 0)
(-6.82847e-09 -3.31437e-06 0)
(-6.91684e-09 -3.30674e-06 0)
(-7.00129e-09 -3.29894e-06 0)
(-7.08175e-09 -3.29096e-06 0)
(-7.15827e-09 -3.28281e-06 0)
(-7.23075e-09 -3.27447e-06 0)
(-7.29925e-09 -3.26598e-06 0)
(-7.3637e-09 -3.2573e-06 0)
(-7.42414e-09 -3.24847e-06 0)
(-7.4805e-09 -3.23945e-06 0)
(-7.53284e-09 -3.23029e-06 0)
(-7.58109e-09 -3.22095e-06 0)
(-7.62529e-09 -3.21147e-06 0)
(-7.66554e-09 -3.2018e-06 0)
(-7.70106e-09 -3.19206e-06 0)
(-7.73324e-09 -3.18178e-06 0)
(-7.74344e-09 -3.17213e-06 0)
(-7.76014e-09 -3.16097e-06 0)
(-7.79049e-09 -3.14784e-06 0)
(-7.8052e-09 -3.13532e-06 0)
(-7.81686e-09 -3.12276e-06 0)
(-7.82341e-09 -3.11009e-06 0)
(-7.82466e-09 -3.09741e-06 0)
(-7.82091e-09 -3.08471e-06 0)
(-7.8124e-09 -3.07206e-06 0)
(-7.79923e-09 -3.0594e-06 0)
(-7.78173e-09 -3.0468e-06 0)
(-7.75997e-09 -3.03419e-06 0)
(-7.73425e-09 -3.02166e-06 0)
(-7.70465e-09 -3.00914e-06 0)
(-7.67145e-09 -2.9967e-06 0)
(-7.63471e-09 -2.98429e-06 0)
(-7.59471e-09 -2.97197e-06 0)
(-7.55148e-09 -2.95969e-06 0)
(-7.5053e-09 -2.9475e-06 0)
(-7.45619e-09 -2.93538e-06 0)
(-7.4044e-09 -2.92335e-06 0)
(-7.34994e-09 -2.91139e-06 0)
(-7.29307e-09 -2.89955e-06 0)
(-7.23376e-09 -2.88777e-06 0)
(-7.17227e-09 -2.87612e-06 0)
(-7.10856e-09 -2.86454e-06 0)
(-7.04285e-09 -2.85309e-06 0)
(-6.97513e-09 -2.84173e-06 0)
(-6.9056e-09 -2.8305e-06 0)
(-6.83422e-09 -2.81936e-06 0)
(-6.76119e-09 -2.80836e-06 0)
(-6.68646e-09 -2.79746e-06 0)
(-6.61022e-09 -2.78671e-06 0)
(-6.53243e-09 -2.77605e-06 0)
(-6.45325e-09 -2.76555e-06 0)
(-6.37264e-09 -2.75515e-06 0)
(-6.29077e-09 -2.74491e-06 0)
(-6.20757e-09 -2.73478e-06 0)
(-6.1232e-09 -2.7248e-06 0)
(-6.03761e-09 -2.71494e-06 0)
(-5.95095e-09 -2.70525e-06 0)
(-5.86315e-09 -2.69567e-06 0)
(-5.77436e-09 -2.68626e-06 0)
(-5.68451e-09 -2.67697e-06 0)
(-5.59375e-09 -2.66785e-06 0)
(-5.502e-09 -2.65885e-06 0)
(-5.40939e-09 -2.65003e-06 0)
(-5.31587e-09 -2.64133e-06 0)
(-5.22154e-09 -2.63281e-06 0)
(-5.12635e-09 -2.62442e-06 0)
(-5.0304e-09 -2.61621e-06 0)
(-4.93364e-09 -2.60813e-06 0)
(-4.83616e-09 -2.60023e-06 0)
(-4.7379e-09 -2.59247e-06 0)
(-4.63897e-09 -2.58488e-06 0)
(-4.5393e-09 -2.57744e-06 0)
(-4.43898e-09 -2.57018e-06 0)
(-4.33795e-09 -2.56306e-06 0)
(-4.2363e-09 -2.55613e-06 0)
(-4.13397e-09 -2.54934e-06 0)
(-4.03104e-09 -2.54274e-06 0)
(-3.92745e-09 -2.53628e-06 0)
(-3.82329e-09 -2.53001e-06 0)
(-3.7185e-09 -2.5239e-06 0)
(-3.61314e-09 -2.51797e-06 0)
(-3.50719e-09 -2.51219e-06 0)
(-3.40069e-09 -2.5066e-06 0)
(-3.29362e-09 -2.50117e-06 0)
(-3.18602e-09 -2.49593e-06 0)
(-3.07787e-09 -2.49085e-06 0)
(-2.96922e-09 -2.48596e-06 0)
(-2.86004e-09 -2.48123e-06 0)
(-2.75038e-09 -2.47669e-06 0)
(-2.64021e-09 -2.47232e-06 0)
(-2.52958e-09 -2.46813e-06 0)
(-2.41847e-09 -2.46412e-06 0)
(-2.30691e-09 -2.46029e-06 0)
(-2.1949e-09 -2.45664e-06 0)
(-2.08245e-09 -2.45317e-06 0)
(-1.96957e-09 -2.44989e-06 0)
(-1.85627e-09 -2.44679e-06 0)
(-1.74256e-09 -2.44387e-06 0)
(-1.62845e-09 -2.44113e-06 0)
(-1.51395e-09 -2.43858e-06 0)
(-1.39909e-09 -2.43622e-06 0)
(-1.28385e-09 -2.43404e-06 0)
(-1.16828e-09 -2.43207e-06 0)
(-1.05236e-09 -2.43021e-06 0)
(-9.36149e-10 -2.42876e-06 0)
(-8.19542e-10 -2.42677e-06 0)
(-7.02973e-10 -2.42737e-06 0)
(-5.85007e-10 -2.42002e-06 0)
(-4.71328e-10 -2.43884e-06 0)
(-3.4175e-10 -2.3652e-06 0)
(-2.76039e-10 -2.55895e-06 0)
(-1.4303e-10 -2.23464e-06 0)
)
;
    }
    bottomWall
    {
        type            calculated;
        value           nonuniform List<vector> 
449
(
(-52.9044 -0.957973 0)
(-34.8735 -0.00280981 0)
(-34.4723 -0.000258409 0)
(-33.0954 -0.000367641 0)
(-31.955 -0.000318964 0)
(-30.9077 -0.000286385 0)
(-29.9871 -0.000250248 0)
(-29.1842 -0.000218699 0)
(-28.4771 -0.000193075 0)
(-27.8481 -0.000171684 0)
(-27.2866 -0.000153102 0)
(-26.7844 -0.000137038 0)
(-26.3325 -0.000123491 0)
(-25.9227 -0.000112225 0)
(-25.5475 -0.000102837 0)
(-25.2016 -9.49304e-05 0)
(-24.8803 -8.81974e-05 0)
(-24.5802 -8.23937e-05 0)
(-24.2983 -7.73365e-05 0)
(-24.0326 -7.2869e-05 0)
(-23.7812 -6.88733e-05 0)
(-23.5426 -6.52707e-05 0)
(-23.3157 -6.19809e-05 0)
(-23.0996 -5.89749e-05 0)
(-22.8932 -5.62286e-05 0)
(-22.6959 -5.36817e-05 0)
(-22.5068 -5.13123e-05 0)
(-22.3257 -4.91178e-05 0)
(-22.1517 -4.70586e-05 0)
(-21.9847 -4.51482e-05 0)
(-21.8237 -4.33744e-05 0)
(-21.6689 -4.17019e-05 0)
(-21.5194 -4.01227e-05 0)
(-21.3754 -3.86365e-05 0)
(-21.2362 -3.7229e-05 0)
(-21.1019 -3.59309e-05 0)
(-20.9716 -3.46951e-05 0)
(-20.8458 -3.35346e-05 0)
(-20.7235 -3.2423e-05 0)
(-20.6054 -3.13732e-05 0)
(-20.4903 -3.03667e-05 0)
(-20.3791 -2.94061e-05 0)
(-20.2707 -2.84829e-05 0)
(-20.166 -2.76111e-05 0)
(-20.0636 -2.67742e-05 0)
(-19.9647 -2.59795e-05 0)
(-19.8678 -2.5222e-05 0)
(-19.7742 -2.44958e-05 0)
(-19.6824 -2.3811e-05 0)
(-19.5935 -2.31515e-05 0)
(-19.5063 -2.25256e-05 0)
(-19.4217 -2.19083e-05 0)
(-19.3388 -2.13341e-05 0)
(-19.2583 -2.07848e-05 0)
(-19.1793 -2.02575e-05 0)
(-19.1024 -1.97452e-05 0)
(-19.027 -1.9254e-05 0)
(-18.9536 -1.87898e-05 0)
(-18.8814 -1.83416e-05 0)
(-18.8111 -1.79086e-05 0)
(-18.7419 -1.74942e-05 0)
(-18.6746 -1.70899e-05 0)
(-18.6083 -1.6707e-05 0)
(-18.5436 -1.63406e-05 0)
(-18.4799 -1.59808e-05 0)
(-18.4177 -1.56239e-05 0)
(-18.3565 -1.52838e-05 0)
(-18.2968 -1.49587e-05 0)
(-18.2379 -1.46396e-05 0)
(-18.1804 -1.43293e-05 0)
(-18.1237 -1.40371e-05 0)
(-18.0683 -1.37614e-05 0)
(-18.0135 -1.34856e-05 0)
(-17.9601 -1.32103e-05 0)
(-17.9073 -1.29519e-05 0)
(-17.8557 -1.26959e-05 0)
(-17.8047 -1.24529e-05 0)
(-17.7548 -1.22163e-05 0)
(-17.7055 -1.1994e-05 0)
(-17.6572 -1.17769e-05 0)
(-17.6094 -1.15575e-05 0)
(-17.5627 -1.13384e-05 0)
(-17.5165 -1.11271e-05 0)
(-17.4713 -1.09268e-05 0)
(-17.4266 -1.07363e-05 0)
(-17.3827 -1.05561e-05 0)
(-17.3392 -1.03768e-05 0)
(-17.2967 -1.0184e-05 0)
(-17.2546 -1.00027e-05 0)
(-17.2134 -9.83245e-06 0)
(-17.1725 -9.67138e-06 0)
(-17.1324 -9.51831e-06 0)
(-17.0926 -9.36345e-06 0)
(-17.0537 -9.21077e-06 0)
(-17.015 -9.06716e-06 0)
(-16.9771 -8.91991e-06 0)
(-16.9395 -8.7714e-06 0)
(-16.9026 -8.6288e-06 0)
(-16.8661 -8.49421e-06 0)
(-16.8302 -8.36443e-06 0)
(-16.7946 -8.24132e-06 0)
(-16.7596 -8.11151e-06 0)
(-16.7249 -7.99214e-06 0)
(-16.6908 -7.87595e-06 0)
(-16.657 -7.76121e-06 0)
(-16.6237 -7.63905e-06 0)
(-16.5907 -7.5322e-06 0)
(-16.5582 -7.40974e-06 0)
(-16.5262 -7.30491e-06 0)
(-16.4945 -7.19577e-06 0)
(-16.4632 -7.09993e-06 0)
(-16.4322 -7.00857e-06 0)
(-16.4016 -6.91545e-06 0)
(-16.3712 -6.8255e-06 0)
(-16.3413 -6.73586e-06 0)
(-16.3116 -6.64305e-06 0)
(-16.2824 -6.54184e-06 0)
(-16.2534 -6.44802e-06 0)
(-16.2249 -6.3645e-06 0)
(-16.1965 -6.28098e-06 0)
(-16.1686 -6.18786e-06 0)
(-16.141 -6.10682e-06 0)
(-16.1137 -6.02989e-06 0)
(-16.0866 -5.95617e-06 0)
(-16.0598 -5.88694e-06 0)
(-16.0332 -5.82097e-06 0)
(-16.0069 -5.75108e-06 0)
(-15.9808 -5.67932e-06 0)
(-15.9551 -5.60676e-06 0)
(-15.9295 -5.52836e-06 0)
(-15.9044 -5.4561e-06 0)
(-15.8794 -5.38205e-06 0)
(-15.8548 -5.32025e-06 0)
(-15.8302 -5.26059e-06 0)
(-15.8061 -5.19831e-06 0)
(-15.782 -5.14199e-06 0)
(-15.7582 -5.08831e-06 0)
(-15.7345 -5.03273e-06 0)
(-15.7112 -4.97879e-06 0)
(-15.6879 -4.91774e-06 0)
(-15.665 -4.8656e-06 0)
(-15.6421 -4.80865e-06 0)
(-15.6197 -4.74891e-06 0)
(-15.5972 -4.6866e-06 0)
(-15.5752 -4.62592e-06 0)
(-15.5533 -4.56835e-06 0)
(-15.5318 -4.50829e-06 0)
(-15.5102 -4.46175e-06 0)
(-15.4891 -4.41322e-06 0)
(-15.4679 -4.36862e-06 0)
(-15.4471 -4.31801e-06 0)
(-15.4263 -4.28164e-06 0)
(-15.4057 -4.23459e-06 0)
(-15.3853 -4.19126e-06 0)
(-15.3651 -4.15195e-06 0)
(-15.3449 -4.1086e-06 0)
(-15.325 -4.06394e-06 0)
(-15.3052 -4.01905e-06 0)
(-15.2856 -3.979e-06 0)
(-15.2662 -3.92884e-06 0)
(-15.247 -3.88639e-06 0)
(-15.2278 -3.84631e-06 0)
(-15.209 -3.80273e-06 0)
(-15.1902 -3.76829e-06 0)
(-15.1715 -3.74129e-06 0)
(-15.1529 -3.70359e-06 0)
(-15.1346 -3.66095e-06 0)
(-15.1163 -3.6246e-06 0)
(-15.0982 -3.58477e-06 0)
(-15.0803 -3.54465e-06 0)
(-15.0625 -3.50878e-06 0)
(-15.0448 -3.46546e-06 0)
(-15.0274 -3.43996e-06 0)
(-15.0109 -3.42434e-06 0)
(-14.9955 -3.39541e-06 0)
(-14.9799 -3.36434e-06 0)
(-14.9644 -3.32989e-06 0)
(-14.9488 -3.29647e-06 0)
(-14.9333 -3.27275e-06 0)
(-14.9176 -3.23678e-06 0)
(-14.9021 -3.19768e-06 0)
(-14.8864 -3.16694e-06 0)
(-14.8709 -3.13094e-06 0)
(-14.8553 -3.09793e-06 0)
(-14.8397 -3.07338e-06 0)
(-14.824 -3.05069e-06 0)
(-14.8083 -3.02169e-06 0)
(-14.7926 -2.9838e-06 0)
(-14.777 -2.94645e-06 0)
(-14.7613 -2.91355e-06 0)
(-14.7457 -2.89231e-06 0)
(-14.7299 -2.86355e-06 0)
(-14.7143 -2.82848e-06 0)
(-14.6985 -2.81208e-06 0)
(-14.6828 -2.78835e-06 0)
(-14.6669 -2.75961e-06 0)
(-14.6511 -2.72424e-06 0)
(-14.6354 -2.69416e-06 0)
(-14.6196 -2.66335e-06 0)
(-14.6038 -2.63435e-06 0)
(-14.5881 -2.60675e-06 0)
(-14.5723 -2.57795e-06 0)
(-14.5566 -2.54783e-06 0)
(-14.5408 -2.52269e-06 0)
(-14.5251 -2.49868e-06 0)
(-14.5093 -2.47166e-06 0)
(-14.4935 -2.45276e-06 0)
(-14.4776 -2.43841e-06 0)
(-14.4617 -2.41853e-06 0)
(-14.4457 -2.39782e-06 0)
(-14.4297 -2.3755e-06 0)
(-14.4137 -2.35528e-06 0)
(-14.3977 -2.32637e-06 0)
(-14.3817 -2.29251e-06 0)
(-14.3658 -2.26471e-06 0)
(-14.3499 -2.24058e-06 0)
(-14.3339 -2.21373e-06 0)
(-14.318 -2.18571e-06 0)
(-14.3021 -2.15296e-06 0)
(-14.2864 -2.12567e-06 0)
(-14.2706 -2.10325e-06 0)
(-14.2549 -2.07769e-06 0)
(-14.2391 -2.05914e-06 0)
(-14.2233 -2.03499e-06 0)
(-14.2075 -2.01621e-06 0)
(-14.1917 -1.99469e-06 0)
(-14.1759 -1.96294e-06 0)
(-14.1603 -1.94643e-06 0)
(-14.1444 -1.92254e-06 0)
(-14.1288 -1.8926e-06 0)
(-14.1131 -1.87464e-06 0)
(-14.0975 -1.84493e-06 0)
(-14.0819 -1.82466e-06 0)
(-14.0663 -1.80798e-06 0)
(-14.0507 -1.78935e-06 0)
(-14.035 -1.77321e-06 0)
(-14.0194 -1.75832e-06 0)
(-14.0037 -1.74785e-06 0)
(-13.9879 -1.72788e-06 0)
(-13.9722 -1.70473e-06 0)
(-13.9565 -1.68451e-06 0)
(-13.9408 -1.66007e-06 0)
(-13.9252 -1.63501e-06 0)
(-13.9097 -1.61603e-06 0)
(-13.8941 -1.59729e-06 0)
(-13.8786 -1.57388e-06 0)
(-13.8632 -1.55789e-06 0)
(-13.8476 -1.54493e-06 0)
(-13.8321 -1.5241e-06 0)
(-13.8167 -1.50493e-06 0)
(-13.8012 -1.48271e-06 0)
(-13.7859 -1.4652e-06 0)
(-13.7705 -1.45074e-06 0)
(-13.7551 -1.43273e-06 0)
(-13.7398 -1.41252e-06 0)
(-13.7245 -1.39448e-06 0)
(-13.7092 -1.38313e-06 0)
(-13.6939 -1.36719e-06 0)
(-13.6786 -1.34859e-06 0)
(-13.6634 -1.33595e-06 0)
(-13.6481 -1.31806e-06 0)
(-13.6329 -1.30037e-06 0)
(-13.6177 -1.2849e-06 0)
(-13.6025 -1.27292e-06 0)
(-13.5873 -1.25942e-06 0)
(-13.5721 -1.2432e-06 0)
(-13.5569 -1.23005e-06 0)
(-13.5418 -1.20976e-06 0)
(-13.5268 -1.19263e-06 0)
(-13.5117 -1.1812e-06 0)
(-13.4966 -1.17364e-06 0)
(-13.4815 -1.16311e-06 0)
(-13.4664 -1.14753e-06 0)
(-13.4513 -1.12628e-06 0)
(-13.4364 -1.11519e-06 0)
(-13.4213 -1.10531e-06 0)
(-13.4063 -1.09042e-06 0)
(-13.3913 -1.08009e-06 0)
(-13.3763 -1.0677e-06 0)
(-13.3613 -1.05213e-06 0)
(-13.3464 -1.03523e-06 0)
(-13.3316 -1.01898e-06 0)
(-13.3169 -1.00991e-06 0)
(-13.302 -9.96401e-07 0)
(-13.2873 -9.8267e-07 0)
(-13.2725 -9.6914e-07 0)
(-13.258 -9.63228e-07 0)
(-13.243 -9.5879e-07 0)
(-13.2283 -9.4545e-07 0)
(-13.2134 -9.31555e-07 0)
(-13.1988 -9.13846e-07 0)
(-13.1842 -9.02156e-07 0)
(-13.1697 -8.9265e-07 0)
(-13.155 -8.78798e-07 0)
(-13.1406 -8.67904e-07 0)
(-13.126 -8.606e-07 0)
(-13.1116 -8.45179e-07 0)
(-13.0972 -8.34774e-07 0)
(-13.0828 -8.23134e-07 0)
(-13.0685 -8.07887e-07 0)
(-13.0543 -7.99106e-07 0)
(-13.0401 -7.81736e-07 0)
(-13.0262 -7.67783e-07 0)
(-13.0121 -7.62381e-07 0)
(-12.9981 -7.62023e-07 0)
(-12.9838 -7.59878e-07 0)
(-12.9696 -7.44755e-07 0)
(-12.9555 -7.31622e-07 0)
(-12.9415 -7.20355e-07 0)
(-12.9275 -7.08295e-07 0)
(-12.9136 -6.99748e-07 0)
(-12.8997 -6.8937e-07 0)
(-12.886 -6.79109e-07 0)
(-12.8722 -6.7641e-07 0)
(-12.8583 -6.72469e-07 0)
(-12.8443 -6.63283e-07 0)
(-12.8305 -6.51908e-07 0)
(-12.8167 -6.43328e-07 0)
(-12.8029 -6.34952e-07 0)
(-12.7892 -6.25892e-07 0)
(-12.7755 -6.13995e-07 0)
(-12.762 -6.05208e-07 0)
(-12.7485 -6.00007e-07 0)
(-12.7349 -5.92272e-07 0)
(-12.7214 -5.81913e-07 0)
(-12.708 -5.71286e-07 0)
(-12.6948 -5.63601e-07 0)
(-12.6815 -5.57428e-07 0)
(-12.6682 -5.51843e-07 0)
(-12.6548 -5.43039e-07 0)
(-12.6417 -5.35278e-07 0)
(-12.6285 -5.33783e-07 0)
(-12.6151 -5.24251e-07 0)
(-12.6021 -5.13104e-07 0)
(-12.589 -5.06437e-07 0)
(-12.576 -5.06013e-07 0)
(-12.5627 -5.02115e-07 0)
(-12.5496 -4.92722e-07 0)
(-12.5365 -4.86385e-07 0)
(-12.5235 -4.78909e-07 0)
(-12.5105 -4.69919e-07 0)
(-12.4977 -4.64257e-07 0)
(-12.4847 -4.59707e-07 0)
(-12.4719 -4.53191e-07 0)
(-12.459 -4.47571e-07 0)
(-12.4463 -4.39325e-07 0)
(-12.4336 -4.30398e-07 0)
(-12.4211 -4.24441e-07 0)
(-12.4085 -4.17999e-07 0)
(-12.396 -4.1026e-07 0)
(-12.3836 -4.05738e-07 0)
(-12.3712 -4.00258e-07 0)
(-12.3589 -3.9591e-07 0)
(-12.3465 -3.8941e-07 0)
(-12.3329 -3.79865e-07 0)
(-12.3183 -3.73481e-07 0)
(-12.3037 -3.67923e-07 0)
(-12.2895 -3.61545e-07 0)
(-12.2755 -3.56446e-07 0)
(-12.2617 -3.51124e-07 0)
(-12.2481 -3.46661e-07 0)
(-12.2346 -3.43683e-07 0)
(-12.2212 -3.37346e-07 0)
(-12.2082 -3.31913e-07 0)
(-12.1953 -3.29312e-07 0)
(-12.1825 -3.26465e-07 0)
(-12.1697 -3.2237e-07 0)
(-12.1573 -3.18023e-07 0)
(-12.1449 -3.13229e-07 0)
(-12.1328 -3.06025e-07 0)
(-12.121 -3.03114e-07 0)
(-12.1091 -2.98947e-07 0)
(-12.0976 -2.95746e-07 0)
(-12.086 -2.92173e-07 0)
(-12.0748 -2.84418e-07 0)
(-12.0638 -2.78206e-07 0)
(-12.0531 -2.76767e-07 0)
(-12.0422 -2.75725e-07 0)
(-12.0315 -2.72764e-07 0)
(-12.0209 -2.68824e-07 0)
(-12.0105 -2.60768e-07 0)
(-12.0005 -2.59905e-07 0)
(-11.9902 -2.56008e-07 0)
(-11.9805 -2.50115e-07 0)
(-11.9707 -2.51996e-07 0)
(-11.9608 -2.55134e-07 0)
(-11.9508 -2.51806e-07 0)
(-11.9412 -2.45874e-07 0)
(-11.9316 -2.39609e-07 0)
(-11.9225 -2.33819e-07 0)
(-11.9133 -2.29878e-07 0)
(-11.9045 -2.26022e-07 0)
(-11.8957 -2.24635e-07 0)
(-11.887 -2.21949e-07 0)
(-11.8783 -2.19084e-07 0)
(-11.8699 -2.16126e-07 0)
(-11.8615 -2.12395e-07 0)
(-11.8533 -2.11126e-07 0)
(-11.845 -2.09142e-07 0)
(-11.8369 -2.06678e-07 0)
(-11.8288 -2.06519e-07 0)
(-11.8208 -2.04001e-07 0)
(-11.8129 -2.02292e-07 0)
(-11.805 -2.01044e-07 0)
(-11.7972 -2.0064e-07 0)
(-11.7893 -1.96519e-07 0)
(-11.7818 -1.93461e-07 0)
(-11.7742 -1.92046e-07 0)
(-11.7669 -1.87626e-07 0)
(-11.7596 -1.86081e-07 0)
(-11.7523 -1.84176e-07 0)
(-11.7452 -1.82356e-07 0)
(-11.7381 -1.82326e-07 0)
(-11.7309 -1.81461e-07 0)
(-11.7239 -1.79583e-07 0)
(-11.7169 -1.77582e-07 0)
(-11.71 -1.75662e-07 0)
(-11.7032 -1.72868e-07 0)
(-11.6965 -1.69674e-07 0)
(-11.69 -1.66829e-07 0)
(-11.6835 -1.67985e-07 0)
(-11.6768 -1.66353e-07 0)
(-11.6705 -1.59736e-07 0)
(-11.6644 -1.59352e-07 0)
(-11.6581 -1.61144e-07 0)
(-11.6518 -1.60383e-07 0)
(-11.6456 -1.59206e-07 0)
(-11.6394 -1.56116e-07 0)
(-11.6334 -1.54026e-07 0)
(-11.6274 -1.52193e-07 0)
(-11.6215 -1.4864e-07 0)
(-11.6158 -1.47025e-07 0)
(-11.61 -1.44544e-07 0)
(-11.6045 -1.42726e-07 0)
(-11.5989 -1.43464e-07 0)
(-11.5933 -1.42082e-07 0)
(-11.5878 -1.42076e-07 0)
(-11.5822 -1.38817e-07 0)
(-11.577 -1.39359e-07 0)
(-11.5713 -1.38939e-07 0)
(-11.5661 -1.39889e-07 0)
(-11.5604 -1.40496e-07 0)
(-11.5551 -1.37863e-07 0)
(-11.5496 -1.47985e-07 0)
(-11.5435 -1.30542e-07 0)
(-11.5394 -1.61538e-07 0)
(-11.5308 -1.12899e-07 0)
(-11.5307 -1.44888e-07 0)
(-11.5193 -1.48664e-07 0)
)
;
    }
    symmetry
    {
        type            symmetryPlane;
    }
    frontAndBack
    {
        type            empty;
    }
}


// ************************************************************************* //
