/*--------------------------------*- C++ -*----------------------------------*\
| =========                 |                                                 |
| \\      /  F ield         | OpenFOAM: The Open Source CFD Toolbox           |
|  \\    /   O peration     | Version:  v2012                                 |
|   \\  /    A nd           | Website:  www.openfoam.com                      |
|    \\/     M anipulation  |                                                 |
\*---------------------------------------------------------------------------*/
FoamFile
{
    version     2.0;
    format      ascii;
    class       volScalarField;
    location    "21";
    object      yPlus;
}
// * * * * * * * * * * * * * * * * * * * * * * * * * * * * * * * * * * * * * //

dimensions      [0 0 0 0 0 0 0];


internalField   uniform 0;

boundaryField
{
    inlet
    {
        type            calculated;
        value           uniform 0;
    }
    outlet
    {
        type            calculated;
        value           uniform 0;
    }
    topWall
    {
        type            calculated;
        value           nonuniform List<scalar> 
545
(
0.129501
0.223637
0.286674
0.336849
0.379318
0.416464
0.449628
0.479655
0.50712
0.532435
0.555912
0.577788
0.598256
0.61747
0.635557
0.652626
0.668767
0.68406
0.698573
0.712365
0.72549
0.737994
0.749919
0.761304
0.772181
0.782584
0.792539
0.802073
0.811209
0.819969
0.828374
0.836442
0.844191
0.851636
0.858793
0.865676
0.872298
0.878671
0.884807
0.890717
0.89641
0.901897
0.907187
0.912288
0.917208
0.921955
0.926536
0.930958
0.935228
0.939351
0.943334
0.947183
0.950902
0.954496
0.957971
0.961331
0.96458
0.967723
0.970763
0.973705
0.976552
0.979307
0.981974
0.984556
0.987056
0.989477
0.991822
0.994093
0.996294
0.998426
1.00049
1.00249
1.00441
1.00626
1.00809
1.00991
1.01172
1.0135
1.01528
1.01703
1.01877
1.0205
1.02221
1.02391
1.0256
1.02726
1.02892
1.03056
1.03219
1.0338
1.0354
1.03699
1.03856
1.04012
1.04166
1.0432
1.04458
1.04581
1.04704
1.04827
1.04949
1.05072
1.05195
1.05317
1.0544
1.05562
1.05684
1.05807
1.05929
1.06051
1.06173
1.06294
1.06416
1.06538
1.06659
1.06781
1.06902
1.07023
1.07144
1.07265
1.07386
1.07507
1.07628
1.07748
1.07869
1.07989
1.08109
1.0823
1.0835
1.0847
1.08589
1.08709
1.08828
1.08948
1.09067
1.09186
1.09305
1.09424
1.09543
1.09662
1.0978
1.09899
1.10017
1.10135
1.10253
1.10371
1.10488
1.10606
1.10723
1.10841
1.10958
1.11075
1.11191
1.11308
1.11425
1.11541
1.11657
1.11773
1.11889
1.12005
1.1212
1.12236
1.12351
1.12466
1.12581
1.12696
1.1281
1.12925
1.13039
1.13153
1.13267
1.13381
1.13494
1.13608
1.13721
1.13834
1.13947
1.14059
1.14172
1.14284
1.14396
1.14508
1.14619
1.14731
1.14842
1.14953
1.15064
1.15175
1.15285
1.15395
1.15505
1.15615
1.15725
1.15834
1.15943
1.16052
1.16161
1.1627
1.16378
1.16486
1.16594
1.16702
1.16809
1.16916
1.17023
1.1713
1.17236
1.17342
1.17448
1.17554
1.1766
1.17765
1.1787
1.17975
1.18079
1.18184
1.18288
1.18391
1.18495
1.18598
1.18701
1.18804
1.18906
1.19008
1.1911
1.19212
1.19313
1.19415
1.19515
1.19616
1.19716
1.19816
1.19916
1.20015
1.20114
1.20213
1.20312
1.2041
1.20508
1.20606
1.20703
1.208
1.20897
1.20993
1.2109
1.21185
1.21281
1.21376
1.21471
1.21566
1.2166
1.21754
1.21848
1.21941
1.22034
1.22127
1.22219
1.22311
1.22403
1.22494
1.22585
1.22676
1.22766
1.22856
1.22945
1.23035
1.23124
1.23212
1.233
1.23383
1.23461
1.23539
1.23618
1.23697
1.23776
1.23856
1.23937
1.24017
1.24098
1.2418
1.24261
1.24343
1.24426
1.24509
1.24592
1.24675
1.24759
1.24843
1.24928
1.25012
1.25097
1.25183
1.25268
1.25354
1.2544
1.25527
1.25613
1.257
1.25787
1.25874
1.25961
1.26049
1.26137
1.26225
1.26313
1.26401
1.26489
1.26577
1.26666
1.26754
1.26842
1.26931
1.2702
1.27108
1.27197
1.27285
1.27373
1.27462
1.2755
1.27638
1.27726
1.27814
1.27902
1.27989
1.28076
1.28163
1.2825
1.28337
1.28423
1.28509
1.28594
1.28679
1.28764
1.28848
1.28932
1.29015
1.29098
1.2918
1.29261
1.29343
1.29423
1.29503
1.29582
1.2966
1.29737
1.29814
1.2989
1.29965
1.30039
1.30113
1.30185
1.30256
1.30326
1.30396
1.30464
1.30531
1.30596
1.30661
1.30724
1.30786
1.30847
1.30906
1.30964
1.3102
1.31075
1.31129
1.3118
1.31231
1.31279
1.31326
1.31371
1.31414
1.31455
1.31495
1.31533
1.31568
1.31602
1.31633
1.31663
1.3169
1.31715
1.31738
1.31759
1.31777
1.31793
1.31806
1.31817
1.31826
1.31831
1.31835
1.31835
1.31833
1.31829
1.31821
1.31811
1.31798
1.31782
1.31763
1.3174
1.31715
1.31687
1.31656
1.31622
1.31584
1.31543
1.315
1.31452
1.31402
1.31348
1.3129
1.3123
1.31165
1.31098
1.31027
1.30952
1.30874
1.30792
1.30706
1.30617
1.30525
1.30428
1.30328
1.30224
1.30117
1.30006
1.29891
1.29773
1.29651
1.29525
1.29395
1.29262
1.29125
1.28984
1.2884
1.28691
1.2854
1.28384
1.28225
1.28063
1.27897
1.27727
1.27553
1.27376
1.27196
1.27012
1.26825
1.26635
1.26441
1.26244
1.26044
1.25818
1.25567
1.25315
1.25062
1.24808
1.24553
1.24298
1.24043
1.23787
1.23532
1.23276
1.23022
1.22767
1.22513
1.22259
1.22006
1.21754
1.21503
1.21253
1.21004
1.20757
1.20511
1.20266
1.20023
1.19781
1.19542
1.19303
1.19067
1.18833
1.18601
1.18371
1.18143
1.17917
1.17694
1.17472
1.17254
1.17037
1.16824
1.16612
1.16404
1.16198
1.15995
1.15794
1.15596
1.15401
1.1521
1.15021
1.14835
1.14652
1.14472
1.14295
1.14122
1.13952
1.13785
1.13621
1.13461
1.13304
1.1315
1.13
1.12854
1.1271
1.12571
1.12435
1.12303
1.12174
1.12049
1.11927
1.1181
1.11696
1.11587
1.1148
1.11378
1.1128
1.11186
1.11095
1.11009
1.10927
1.10848
1.10774
1.10704
1.10638
1.10576
1.10518
1.10465
1.10415
1.1037
1.10329
1.10293
1.1026
1.10232
1.10208
1.10189
1.10173
1.10164
1.10152
)
;
    }
    bottomWall
    {
        type            calculated;
        value           nonuniform List<scalar> 
449
(
0.00274778
0.00481726
0.00539039
0.00534138
0.0052681
0.00517045
0.00507269
0.00498105
0.00489612
0.0048177
0.00474589
0.0046805
0.00462081
0.00456602
0.00451526
0.00446793
0.00442347
0.00438152
0.0043417
0.00430381
0.00426762
0.00423301
0.00419983
0.00416801
0.00413739
0.00410795
0.00407959
0.00405227
0.00402589
0.00400046
0.00397584
0.00395206
0.00392901
0.00390674
0.00388512
0.00386422
0.00384385
0.00382415
0.00380492
0.00378634
0.00376815
0.00375058
0.00373337
0.00371675
0.00370043
0.00368467
0.00366917
0.0036542
0.00363946
0.0036252
0.00361114
0.00359754
0.00358415
0.00357115
0.00355834
0.0035459
0.00353364
0.00352173
0.00350997
0.00349854
0.00348725
0.00347627
0.00346542
0.00345485
0.00344439
0.00343423
0.00342417
0.00341437
0.00340467
0.00339523
0.00338587
0.00337675
0.0033677
0.00335889
0.00335014
0.00334162
0.00333317
0.00332492
0.00331674
0.00330873
0.00330079
0.00329304
0.00328535
0.00327784
0.00327037
0.00326308
0.00325581
0.00324872
0.00324169
0.00323481
0.00322798
0.00322128
0.00321462
0.0032081
0.00320161
0.00319526
0.00318894
0.00318277
0.00317662
0.0031706
0.0031646
0.00315873
0.00315288
0.00314714
0.00314143
0.00313583
0.00313027
0.00312478
0.00311938
0.00311402
0.00310874
0.00310349
0.00309832
0.00309317
0.00308811
0.00308307
0.00307812
0.00307321
0.00306838
0.00306356
0.00305883
0.00305413
0.0030495
0.00304489
0.00304034
0.00303581
0.00303133
0.00302689
0.0030225
0.00301815
0.00301386
0.0030096
0.0030054
0.00300121
0.00299709
0.00299297
0.00298891
0.00298485
0.00298085
0.00297686
0.00297294
0.00296901
0.00296516
0.00296131
0.00295755
0.00295378
0.00295009
0.0029464
0.00294277
0.00293913
0.00293556
0.00293198
0.00292844
0.00292493
0.00292144
0.00291798
0.00291454
0.00291113
0.00290775
0.0029044
0.00290109
0.00289779
0.00289453
0.00289128
0.00288806
0.00288484
0.00288167
0.00287851
0.00287539
0.00287229
0.00286922
0.00286616
0.00286316
0.0028603
0.00285764
0.00285494
0.00285227
0.00284957
0.00284688
0.00284416
0.00284148
0.00283876
0.00283607
0.00283336
0.00283066
0.00282793
0.00282521
0.00282247
0.00281977
0.00281704
0.00281434
0.00281159
0.00280888
0.00280613
0.00280339
0.00280063
0.00279789
0.00279515
0.00279241
0.00278967
0.00278693
0.00278419
0.00278146
0.00277872
0.00277598
0.00277323
0.00277048
0.00276771
0.00276493
0.00276213
0.00275933
0.00275652
0.0027537
0.00275091
0.00274812
0.00274534
0.00274255
0.00273978
0.002737
0.00273426
0.00273149
0.00272875
0.00272599
0.00272323
0.00272048
0.0027177
0.00271495
0.00271221
0.00270944
0.00270671
0.00270397
0.00270123
0.00269853
0.00269579
0.00269306
0.00269031
0.00268757
0.0026848
0.00268202
0.00267925
0.00267649
0.00267373
0.00267099
0.00266826
0.00266553
0.0026628
0.00266009
0.00265735
0.00265463
0.0026519
0.00264919
0.00264649
0.00264377
0.00264107
0.00263837
0.00263568
0.00263299
0.00263028
0.00262759
0.0026249
0.00262219
0.00261952
0.00261682
0.00261415
0.00261144
0.00260877
0.00260607
0.0026034
0.00260074
0.00259808
0.00259541
0.00259271
0.00259002
0.00258735
0.00258471
0.00258202
0.00257936
0.00257669
0.00257402
0.00257134
0.0025687
0.00256606
0.00256345
0.00256079
0.00255819
0.00255555
0.00255297
0.00255028
0.00254765
0.00254498
0.00254238
0.00253976
0.00253717
0.00253455
0.00253198
0.00252937
0.00252678
0.00252421
0.00252163
0.00251909
0.00251655
0.00251401
0.00251155
0.00250904
0.00250654
0.00250394
0.00250139
0.00249886
0.00249636
0.00249386
0.00249139
0.00248889
0.00248644
0.00248396
0.00248145
0.00247892
0.00247643
0.00247395
0.00247147
0.002469
0.00246655
0.00246412
0.00246169
0.00245924
0.00245682
0.00245442
0.00245204
0.00244965
0.00244726
0.00244486
0.00244251
0.00244012
0.00243771
0.00243536
0.00243301
0.00243067
0.00242824
0.00242588
0.0024235
0.00242115
0.00241879
0.00241648
0.00241412
0.0024118
0.00240946
0.00240714
0.00240484
0.00240258
0.00240029
0.00239805
0.00239581
0.00239357
0.00239133
0.00238908
0.00238661
0.00238394
0.0023813
0.00237872
0.00237618
0.00237368
0.00237122
0.00236877
0.00236635
0.00236399
0.00236164
0.00235931
0.00235698
0.0023547
0.00235243
0.00235023
0.00234808
0.0023459
0.00234381
0.00234167
0.00233962
0.00233762
0.00233566
0.00233366
0.00233172
0.00232976
0.00232787
0.00232605
0.00232416
0.00232239
0.00232059
0.00231876
0.00231688
0.00231509
0.00231332
0.00231165
0.00230997
0.00230836
0.00230675
0.00230515
0.00230358
0.00230203
0.0023005
0.00229902
0.0022975
0.00229604
0.00229456
0.00229309
0.00229164
0.00229018
0.00228875
0.00228729
0.00228592
0.00228452
0.00228317
0.00228184
0.0022805
0.0022792
0.00227789
0.00227657
0.00227527
0.00227398
0.0022727
0.00227144
0.00227022
0.00226901
0.00226783
0.00226659
0.00226544
0.00226432
0.00226317
0.002262
0.00226084
0.0022597
0.0022586
0.00225748
0.00225641
0.00225536
0.00225431
0.0022533
0.00225227
0.00225124
0.00225023
0.00224919
0.00224823
0.00224719
0.00224625
0.00224518
0.00224424
0.00224319
0.00224213
0.00224129
0.00223985
0.00223957
0.0022377
)
;
    }
    symmetry
    {
        type            symmetryPlane;
    }
    frontAndBack
    {
        type            empty;
    }
}


// ************************************************************************* //
