/*--------------------------------*- C++ -*----------------------------------*\
| =========                 |                                                 |
| \\      /  F ield         | OpenFOAM: The Open Source CFD Toolbox           |
|  \\    /   O peration     | Version:  v2012                                 |
|   \\  /    A nd           | Website:  www.openfoam.com                      |
|    \\/     M anipulation  |                                                 |
\*---------------------------------------------------------------------------*/
FoamFile
{
    version     2.0;
    format      ascii;
    class       volScalarField;
    location    "36";
    object      nut;
}
// * * * * * * * * * * * * * * * * * * * * * * * * * * * * * * * * * * * * * //

dimensions      [0 2 -1 0 0 0 0];


internalField   nonuniform List<scalar> 
209825
(
1.23944e-07
1.22964e-07
1.22254e-07
1.21825e-07
1.21621e-07
1.21549e-07
1.21568e-07
1.21624e-07
1.21715e-07
1.21808e-07
1.21918e-07
1.22017e-07
1.22127e-07
1.22221e-07
1.22324e-07
1.2241e-07
1.22504e-07
1.22581e-07
1.22665e-07
1.22734e-07
1.22809e-07
1.2287e-07
1.22937e-07
1.22991e-07
1.23051e-07
1.23098e-07
1.23152e-07
1.23194e-07
1.23242e-07
1.23279e-07
1.23323e-07
1.23356e-07
1.23395e-07
1.23426e-07
1.23462e-07
1.23488e-07
1.23519e-07
1.23544e-07
1.23574e-07
1.23596e-07
1.23621e-07
1.23644e-07
1.23669e-07
1.23685e-07
1.23709e-07
1.23727e-07
1.23748e-07
1.23763e-07
1.23781e-07
1.23795e-07
1.23812e-07
1.23825e-07
1.23841e-07
1.23855e-07
1.2387e-07
1.23882e-07
1.23893e-07
1.23909e-07
1.23916e-07
1.23927e-07
1.23932e-07
1.23944e-07
1.23947e-07
1.23953e-07
1.23951e-07
1.23955e-07
1.23972e-07
1.23981e-07
1.2399e-07
1.23998e-07
1.24011e-07
1.24028e-07
1.24041e-07
1.24064e-07
1.24081e-07
1.24108e-07
1.24123e-07
1.24147e-07
1.24164e-07
1.24186e-07
1.24198e-07
1.2422e-07
1.24232e-07
1.2425e-07
1.24264e-07
1.24281e-07
1.24298e-07
1.24314e-07
1.24331e-07
1.24351e-07
1.24368e-07
1.24385e-07
1.2442e-07
1.25609e-07
1.29089e-07
1.3187e-08
1.23944e-07
1.22964e-07
1.22254e-07
1.21824e-07
1.21621e-07
1.21549e-07
1.21568e-07
1.21624e-07
1.21715e-07
1.21808e-07
1.21918e-07
1.22017e-07
1.22127e-07
1.22221e-07
1.22324e-07
1.2241e-07
1.22504e-07
1.22581e-07
1.22665e-07
1.22734e-07
1.22809e-07
1.2287e-07
1.22937e-07
1.22991e-07
1.23051e-07
1.23098e-07
1.23152e-07
1.23194e-07
1.23242e-07
1.2328e-07
1.23323e-07
1.23356e-07
1.23395e-07
1.23426e-07
1.23462e-07
1.23488e-07
1.23519e-07
1.23544e-07
1.23574e-07
1.23596e-07
1.23622e-07
1.23644e-07
1.23669e-07
1.23685e-07
1.23709e-07
1.23727e-07
1.23748e-07
1.23763e-07
1.23781e-07
1.23795e-07
1.23812e-07
1.23826e-07
1.23841e-07
1.23855e-07
1.2387e-07
1.23882e-07
1.23894e-07
1.23909e-07
1.23916e-07
1.23928e-07
1.23932e-07
1.23944e-07
1.23947e-07
1.23953e-07
1.23951e-07
1.23955e-07
1.23972e-07
1.23981e-07
1.2399e-07
1.23999e-07
1.24011e-07
1.24028e-07
1.24041e-07
1.24064e-07
1.24081e-07
1.24108e-07
1.24123e-07
1.24148e-07
1.24164e-07
1.24186e-07
1.24199e-07
1.2422e-07
1.24232e-07
1.2425e-07
1.24265e-07
1.24281e-07
1.24298e-07
1.24314e-07
1.24331e-07
1.24351e-07
1.24369e-07
1.24386e-07
1.2442e-07
1.25612e-07
1.2909e-07
1.359e-08
1.23944e-07
1.22964e-07
1.22254e-07
1.21824e-07
1.21621e-07
1.21548e-07
1.21567e-07
1.21622e-07
1.21713e-07
1.21806e-07
1.21916e-07
1.22015e-07
1.22125e-07
1.22219e-07
1.22322e-07
1.22408e-07
1.22502e-07
1.22579e-07
1.22663e-07
1.22732e-07
1.22807e-07
1.22868e-07
1.22935e-07
1.22989e-07
1.23049e-07
1.23096e-07
1.2315e-07
1.23192e-07
1.2324e-07
1.23277e-07
1.23321e-07
1.23354e-07
1.23393e-07
1.23424e-07
1.2346e-07
1.23486e-07
1.23517e-07
1.23542e-07
1.23572e-07
1.23594e-07
1.23619e-07
1.23642e-07
1.23667e-07
1.23683e-07
1.23707e-07
1.23725e-07
1.23746e-07
1.23761e-07
1.23779e-07
1.23793e-07
1.2381e-07
1.23824e-07
1.23839e-07
1.23853e-07
1.23868e-07
1.2388e-07
1.23892e-07
1.23907e-07
1.23914e-07
1.23926e-07
1.2393e-07
1.23942e-07
1.23945e-07
1.23951e-07
1.23949e-07
1.23953e-07
1.2397e-07
1.23979e-07
1.23988e-07
1.23997e-07
1.24009e-07
1.24026e-07
1.24039e-07
1.24062e-07
1.24079e-07
1.24106e-07
1.24121e-07
1.24145e-07
1.24162e-07
1.24184e-07
1.24196e-07
1.24218e-07
1.2423e-07
1.24248e-07
1.24263e-07
1.24279e-07
1.24296e-07
1.24312e-07
1.24329e-07
1.24349e-07
1.24366e-07
1.24383e-07
1.24418e-07
1.25614e-07
1.2909e-07
1.40903e-08
1.23944e-07
1.22964e-07
1.22254e-07
1.21823e-07
1.21619e-07
1.21546e-07
1.21565e-07
1.2162e-07
1.21711e-07
1.21804e-07
1.21913e-07
1.22012e-07
1.22122e-07
1.22217e-07
1.22319e-07
1.22405e-07
1.22499e-07
1.22576e-07
1.2266e-07
1.22729e-07
1.22804e-07
1.22865e-07
1.22932e-07
1.22985e-07
1.23046e-07
1.23093e-07
1.23147e-07
1.23189e-07
1.23237e-07
1.23274e-07
1.23318e-07
1.23351e-07
1.2339e-07
1.23421e-07
1.23457e-07
1.23483e-07
1.23514e-07
1.23539e-07
1.23569e-07
1.23591e-07
1.23616e-07
1.23639e-07
1.23664e-07
1.2368e-07
1.23704e-07
1.23722e-07
1.23743e-07
1.23758e-07
1.23776e-07
1.2379e-07
1.23807e-07
1.23821e-07
1.23836e-07
1.2385e-07
1.23865e-07
1.23877e-07
1.23889e-07
1.23904e-07
1.23911e-07
1.23923e-07
1.23927e-07
1.23939e-07
1.23942e-07
1.23948e-07
1.23947e-07
1.2395e-07
1.23967e-07
1.23976e-07
1.23985e-07
1.23994e-07
1.24006e-07
1.24023e-07
1.24036e-07
1.24059e-07
1.24076e-07
1.24103e-07
1.24118e-07
1.24142e-07
1.24159e-07
1.24181e-07
1.24193e-07
1.24215e-07
1.24227e-07
1.24245e-07
1.2426e-07
1.24276e-07
1.24293e-07
1.24309e-07
1.24326e-07
1.24346e-07
1.24363e-07
1.2438e-07
1.24415e-07
1.25619e-07
1.2909e-07
1.46456e-08
1.23944e-07
1.22964e-07
1.22254e-07
1.21822e-07
1.21618e-07
1.21544e-07
1.21563e-07
1.21617e-07
1.21708e-07
1.218e-07
1.2191e-07
1.22009e-07
1.22118e-07
1.22213e-07
1.22315e-07
1.22401e-07
1.22495e-07
1.22572e-07
1.22656e-07
1.22725e-07
1.228e-07
1.2286e-07
1.22928e-07
1.22981e-07
1.23042e-07
1.23089e-07
1.23143e-07
1.23185e-07
1.23233e-07
1.2327e-07
1.23314e-07
1.23347e-07
1.23386e-07
1.23417e-07
1.23453e-07
1.23479e-07
1.2351e-07
1.23535e-07
1.23565e-07
1.23587e-07
1.23612e-07
1.23635e-07
1.2366e-07
1.23676e-07
1.237e-07
1.23718e-07
1.23739e-07
1.23754e-07
1.23772e-07
1.23786e-07
1.23803e-07
1.23817e-07
1.23832e-07
1.23846e-07
1.23861e-07
1.23873e-07
1.23885e-07
1.239e-07
1.23907e-07
1.23919e-07
1.23923e-07
1.23935e-07
1.23939e-07
1.23944e-07
1.23943e-07
1.23946e-07
1.23964e-07
1.23972e-07
1.23981e-07
1.2399e-07
1.24003e-07
1.24019e-07
1.24032e-07
1.24055e-07
1.24072e-07
1.24099e-07
1.24114e-07
1.24138e-07
1.24155e-07
1.24177e-07
1.24189e-07
1.24211e-07
1.24223e-07
1.24241e-07
1.24256e-07
1.24273e-07
1.24289e-07
1.24305e-07
1.24322e-07
1.24342e-07
1.2436e-07
1.24376e-07
1.24411e-07
1.25625e-07
1.29091e-07
1.52478e-08
1.23944e-07
1.22965e-07
1.22253e-07
1.21821e-07
1.21616e-07
1.21541e-07
1.21559e-07
1.21613e-07
1.21704e-07
1.21796e-07
1.21905e-07
1.22004e-07
1.22113e-07
1.22208e-07
1.2231e-07
1.22396e-07
1.2249e-07
1.22567e-07
1.22651e-07
1.22719e-07
1.22795e-07
1.22855e-07
1.22923e-07
1.22976e-07
1.23036e-07
1.23084e-07
1.23137e-07
1.2318e-07
1.23228e-07
1.23265e-07
1.23309e-07
1.23342e-07
1.23381e-07
1.23412e-07
1.23448e-07
1.23474e-07
1.23505e-07
1.2353e-07
1.2356e-07
1.23582e-07
1.23608e-07
1.2363e-07
1.23655e-07
1.23671e-07
1.23695e-07
1.23713e-07
1.23734e-07
1.23749e-07
1.23767e-07
1.23781e-07
1.23798e-07
1.23812e-07
1.23827e-07
1.23841e-07
1.23856e-07
1.23869e-07
1.2388e-07
1.23896e-07
1.23903e-07
1.23914e-07
1.23918e-07
1.23931e-07
1.23934e-07
1.2394e-07
1.23938e-07
1.23942e-07
1.23959e-07
1.23968e-07
1.23977e-07
1.23985e-07
1.23998e-07
1.24014e-07
1.24028e-07
1.2405e-07
1.24068e-07
1.24094e-07
1.24109e-07
1.24133e-07
1.2415e-07
1.24172e-07
1.24185e-07
1.24206e-07
1.24218e-07
1.24236e-07
1.24251e-07
1.24268e-07
1.24284e-07
1.243e-07
1.24318e-07
1.24337e-07
1.24355e-07
1.24372e-07
1.24407e-07
1.25633e-07
1.29091e-07
1.58956e-08
1.23944e-07
1.22965e-07
1.22253e-07
1.2182e-07
1.21613e-07
1.21538e-07
1.21555e-07
1.21609e-07
1.21699e-07
1.2179e-07
1.219e-07
1.21998e-07
1.22107e-07
1.22202e-07
1.22304e-07
1.2239e-07
1.22484e-07
1.22561e-07
1.22645e-07
1.22713e-07
1.22789e-07
1.22849e-07
1.22917e-07
1.2297e-07
1.2303e-07
1.23078e-07
1.23131e-07
1.23174e-07
1.23222e-07
1.23259e-07
1.23303e-07
1.23336e-07
1.23375e-07
1.23406e-07
1.23442e-07
1.23468e-07
1.23499e-07
1.23524e-07
1.23554e-07
1.23576e-07
1.23602e-07
1.23624e-07
1.23649e-07
1.23666e-07
1.2369e-07
1.23707e-07
1.23728e-07
1.23744e-07
1.23761e-07
1.23776e-07
1.23793e-07
1.23806e-07
1.23822e-07
1.23836e-07
1.23851e-07
1.23863e-07
1.23874e-07
1.2389e-07
1.23897e-07
1.23909e-07
1.23913e-07
1.23925e-07
1.23929e-07
1.23934e-07
1.23933e-07
1.23936e-07
1.23954e-07
1.23962e-07
1.23971e-07
1.2398e-07
1.23992e-07
1.24008e-07
1.24022e-07
1.24045e-07
1.24062e-07
1.24088e-07
1.24103e-07
1.24128e-07
1.24144e-07
1.24166e-07
1.24179e-07
1.242e-07
1.24212e-07
1.24231e-07
1.24245e-07
1.24262e-07
1.24279e-07
1.24295e-07
1.24312e-07
1.24331e-07
1.24349e-07
1.24366e-07
1.24401e-07
1.25644e-07
1.29092e-07
1.65891e-08
1.23944e-07
1.22965e-07
1.22252e-07
1.21818e-07
1.2161e-07
1.21534e-07
1.21551e-07
1.21604e-07
1.21693e-07
1.21784e-07
1.21893e-07
1.21992e-07
1.22101e-07
1.22195e-07
1.22297e-07
1.22383e-07
1.22477e-07
1.22554e-07
1.22638e-07
1.22706e-07
1.22781e-07
1.22842e-07
1.22909e-07
1.22963e-07
1.23023e-07
1.23071e-07
1.23124e-07
1.23167e-07
1.23215e-07
1.23252e-07
1.23296e-07
1.23329e-07
1.23368e-07
1.23399e-07
1.23435e-07
1.23461e-07
1.23493e-07
1.23517e-07
1.23547e-07
1.23569e-07
1.23595e-07
1.23617e-07
1.23642e-07
1.23659e-07
1.23683e-07
1.237e-07
1.23722e-07
1.23737e-07
1.23755e-07
1.23769e-07
1.23786e-07
1.238e-07
1.23815e-07
1.23829e-07
1.23844e-07
1.23856e-07
1.23868e-07
1.23884e-07
1.23891e-07
1.23902e-07
1.23906e-07
1.23919e-07
1.23922e-07
1.23928e-07
1.23927e-07
1.2393e-07
1.23947e-07
1.23956e-07
1.23965e-07
1.23973e-07
1.23986e-07
1.24002e-07
1.24015e-07
1.24038e-07
1.24055e-07
1.24081e-07
1.24097e-07
1.24121e-07
1.24137e-07
1.24159e-07
1.24172e-07
1.24194e-07
1.24206e-07
1.24224e-07
1.24239e-07
1.24256e-07
1.24272e-07
1.24288e-07
1.24305e-07
1.24325e-07
1.24342e-07
1.24359e-07
1.24395e-07
1.25658e-07
1.29094e-07
1.73291e-08
1.23944e-07
1.22965e-07
1.22251e-07
1.21816e-07
1.21607e-07
1.2153e-07
1.21545e-07
1.21597e-07
1.21686e-07
1.21777e-07
1.21886e-07
1.21984e-07
1.22093e-07
1.22187e-07
1.22289e-07
1.22375e-07
1.22468e-07
1.22546e-07
1.2263e-07
1.22698e-07
1.22773e-07
1.22834e-07
1.22901e-07
1.22955e-07
1.23015e-07
1.23063e-07
1.23116e-07
1.23159e-07
1.23206e-07
1.23244e-07
1.23288e-07
1.23321e-07
1.2336e-07
1.23391e-07
1.23427e-07
1.23453e-07
1.23485e-07
1.23509e-07
1.23539e-07
1.23561e-07
1.23587e-07
1.23609e-07
1.23635e-07
1.23651e-07
1.23675e-07
1.23693e-07
1.23714e-07
1.2373e-07
1.23747e-07
1.23761e-07
1.23779e-07
1.23792e-07
1.23807e-07
1.23822e-07
1.23836e-07
1.23849e-07
1.2386e-07
1.23876e-07
1.23883e-07
1.23895e-07
1.23899e-07
1.23912e-07
1.23915e-07
1.23921e-07
1.2392e-07
1.23923e-07
1.2394e-07
1.23949e-07
1.23958e-07
1.23966e-07
1.23978e-07
1.23994e-07
1.24008e-07
1.2403e-07
1.24047e-07
1.24073e-07
1.24089e-07
1.24113e-07
1.24129e-07
1.24152e-07
1.24165e-07
1.24186e-07
1.24198e-07
1.24217e-07
1.24231e-07
1.24248e-07
1.24264e-07
1.24281e-07
1.24298e-07
1.24317e-07
1.24335e-07
1.24352e-07
1.24388e-07
1.25674e-07
1.29096e-07
1.81163e-08
1.23944e-07
1.22965e-07
1.22251e-07
1.21814e-07
1.21603e-07
1.21525e-07
1.21539e-07
1.2159e-07
1.21679e-07
1.21769e-07
1.21877e-07
1.21975e-07
1.22084e-07
1.22178e-07
1.2228e-07
1.22366e-07
1.22459e-07
1.22536e-07
1.2262e-07
1.22688e-07
1.22764e-07
1.22824e-07
1.22892e-07
1.22945e-07
1.23006e-07
1.23053e-07
1.23107e-07
1.23149e-07
1.23197e-07
1.23235e-07
1.23279e-07
1.23312e-07
1.23351e-07
1.23382e-07
1.23418e-07
1.23444e-07
1.23476e-07
1.235e-07
1.2353e-07
1.23552e-07
1.23578e-07
1.23601e-07
1.23626e-07
1.23643e-07
1.23667e-07
1.23684e-07
1.23705e-07
1.23721e-07
1.23739e-07
1.23753e-07
1.2377e-07
1.23784e-07
1.23799e-07
1.23813e-07
1.23828e-07
1.23841e-07
1.23852e-07
1.23868e-07
1.23875e-07
1.23887e-07
1.23891e-07
1.23903e-07
1.23907e-07
1.23913e-07
1.23912e-07
1.23915e-07
1.23932e-07
1.23941e-07
1.2395e-07
1.23958e-07
1.2397e-07
1.23986e-07
1.23999e-07
1.24022e-07
1.24039e-07
1.24065e-07
1.2408e-07
1.24104e-07
1.2412e-07
1.24143e-07
1.24156e-07
1.24178e-07
1.2419e-07
1.24208e-07
1.24222e-07
1.2424e-07
1.24256e-07
1.24272e-07
1.24289e-07
1.24309e-07
1.24326e-07
1.24343e-07
1.2438e-07
1.25693e-07
1.29098e-07
1.89507e-08
1.23945e-07
1.22965e-07
1.2225e-07
1.21811e-07
1.21599e-07
1.21519e-07
1.21532e-07
1.21583e-07
1.2167e-07
1.2176e-07
1.21868e-07
1.21965e-07
1.22074e-07
1.22168e-07
1.2227e-07
1.22355e-07
1.22449e-07
1.22526e-07
1.2261e-07
1.22678e-07
1.22753e-07
1.22814e-07
1.22881e-07
1.22935e-07
1.22995e-07
1.23043e-07
1.23097e-07
1.23139e-07
1.23187e-07
1.23225e-07
1.23269e-07
1.23301e-07
1.23341e-07
1.23372e-07
1.23408e-07
1.23434e-07
1.23466e-07
1.23491e-07
1.23521e-07
1.23543e-07
1.23569e-07
1.23591e-07
1.23616e-07
1.23633e-07
1.23657e-07
1.23675e-07
1.23696e-07
1.23711e-07
1.23729e-07
1.23743e-07
1.23761e-07
1.23774e-07
1.2379e-07
1.23804e-07
1.23819e-07
1.23831e-07
1.23843e-07
1.23858e-07
1.23866e-07
1.23877e-07
1.23882e-07
1.23894e-07
1.23898e-07
1.23904e-07
1.23903e-07
1.23906e-07
1.23923e-07
1.23931e-07
1.23941e-07
1.23949e-07
1.23961e-07
1.23976e-07
1.2399e-07
1.24012e-07
1.24029e-07
1.24055e-07
1.24071e-07
1.24095e-07
1.2411e-07
1.24133e-07
1.24146e-07
1.24168e-07
1.2418e-07
1.24199e-07
1.24213e-07
1.2423e-07
1.24247e-07
1.24263e-07
1.2428e-07
1.243e-07
1.24317e-07
1.24334e-07
1.24371e-07
1.25715e-07
1.291e-07
1.98311e-08
1.23945e-07
1.22965e-07
1.22249e-07
1.21809e-07
1.21595e-07
1.21513e-07
1.21525e-07
1.21574e-07
1.21661e-07
1.2175e-07
1.21857e-07
1.21955e-07
1.22063e-07
1.22156e-07
1.22258e-07
1.22344e-07
1.22437e-07
1.22514e-07
1.22598e-07
1.22666e-07
1.22742e-07
1.22802e-07
1.2287e-07
1.22923e-07
1.22984e-07
1.23032e-07
1.23085e-07
1.23128e-07
1.23176e-07
1.23213e-07
1.23257e-07
1.2329e-07
1.2333e-07
1.23361e-07
1.23397e-07
1.23423e-07
1.23455e-07
1.2348e-07
1.2351e-07
1.23532e-07
1.23558e-07
1.2358e-07
1.23605e-07
1.23622e-07
1.23646e-07
1.23664e-07
1.23685e-07
1.23701e-07
1.23718e-07
1.23733e-07
1.2375e-07
1.23764e-07
1.23779e-07
1.23793e-07
1.23808e-07
1.23821e-07
1.23832e-07
1.23848e-07
1.23855e-07
1.23867e-07
1.23871e-07
1.23884e-07
1.23888e-07
1.23894e-07
1.23893e-07
1.23896e-07
1.23913e-07
1.23921e-07
1.23931e-07
1.23939e-07
1.23951e-07
1.23966e-07
1.2398e-07
1.24002e-07
1.24018e-07
1.24044e-07
1.2406e-07
1.24084e-07
1.24099e-07
1.24122e-07
1.24136e-07
1.24158e-07
1.2417e-07
1.24188e-07
1.24202e-07
1.2422e-07
1.24236e-07
1.24252e-07
1.2427e-07
1.24289e-07
1.24307e-07
1.24323e-07
1.24361e-07
1.2574e-07
1.29102e-07
2.07567e-08
1.23945e-07
1.22966e-07
1.22248e-07
1.21805e-07
1.21589e-07
1.21506e-07
1.21516e-07
1.21564e-07
1.2165e-07
1.21739e-07
1.21846e-07
1.21943e-07
1.22051e-07
1.22144e-07
1.22246e-07
1.22331e-07
1.22425e-07
1.22501e-07
1.22585e-07
1.22654e-07
1.22729e-07
1.2279e-07
1.22857e-07
1.22911e-07
1.22971e-07
1.23019e-07
1.23073e-07
1.23115e-07
1.23163e-07
1.23201e-07
1.23245e-07
1.23278e-07
1.23318e-07
1.23348e-07
1.23385e-07
1.23411e-07
1.23443e-07
1.23468e-07
1.23498e-07
1.2352e-07
1.23546e-07
1.23568e-07
1.23594e-07
1.2361e-07
1.23635e-07
1.23652e-07
1.23674e-07
1.23689e-07
1.23707e-07
1.23721e-07
1.23739e-07
1.23752e-07
1.23768e-07
1.23782e-07
1.23797e-07
1.2381e-07
1.23821e-07
1.23837e-07
1.23844e-07
1.23856e-07
1.2386e-07
1.23873e-07
1.23876e-07
1.23883e-07
1.23882e-07
1.23885e-07
1.23901e-07
1.2391e-07
1.2392e-07
1.23928e-07
1.23939e-07
1.23954e-07
1.23968e-07
1.2399e-07
1.24007e-07
1.24033e-07
1.24048e-07
1.24072e-07
1.24087e-07
1.24111e-07
1.24124e-07
1.24146e-07
1.24158e-07
1.24177e-07
1.24191e-07
1.24209e-07
1.24225e-07
1.24241e-07
1.24258e-07
1.24278e-07
1.24295e-07
1.24312e-07
1.2435e-07
1.25769e-07
1.29104e-07
2.17301e-08
1.23945e-07
1.22966e-07
1.22247e-07
1.21802e-07
1.21584e-07
1.21498e-07
1.21507e-07
1.21554e-07
1.21639e-07
1.21727e-07
1.21833e-07
1.2193e-07
1.22037e-07
1.2213e-07
1.22232e-07
1.22317e-07
1.22411e-07
1.22487e-07
1.22571e-07
1.2264e-07
1.22715e-07
1.22776e-07
1.22843e-07
1.22897e-07
1.22957e-07
1.23005e-07
1.23059e-07
1.23102e-07
1.2315e-07
1.23188e-07
1.23232e-07
1.23264e-07
1.23304e-07
1.23335e-07
1.23371e-07
1.23398e-07
1.2343e-07
1.23454e-07
1.23485e-07
1.23507e-07
1.23533e-07
1.23555e-07
1.23581e-07
1.23598e-07
1.23622e-07
1.23639e-07
1.23661e-07
1.23677e-07
1.23694e-07
1.23709e-07
1.23726e-07
1.2374e-07
1.23755e-07
1.23769e-07
1.23784e-07
1.23797e-07
1.23809e-07
1.23824e-07
1.23832e-07
1.23844e-07
1.23848e-07
1.23861e-07
1.23864e-07
1.23871e-07
1.2387e-07
1.23873e-07
1.23889e-07
1.23898e-07
1.23908e-07
1.23916e-07
1.23927e-07
1.23942e-07
1.23956e-07
1.23978e-07
1.23994e-07
1.2402e-07
1.24035e-07
1.24059e-07
1.24074e-07
1.24098e-07
1.24111e-07
1.24133e-07
1.24145e-07
1.24165e-07
1.24178e-07
1.24196e-07
1.24212e-07
1.24229e-07
1.24246e-07
1.24266e-07
1.24282e-07
1.24299e-07
1.24338e-07
1.25802e-07
1.29106e-07
2.27543e-08
1.23946e-07
1.22966e-07
1.22246e-07
1.21799e-07
1.21578e-07
1.2149e-07
1.21497e-07
1.21543e-07
1.21627e-07
1.21714e-07
1.2182e-07
1.21916e-07
1.22023e-07
1.22116e-07
1.22217e-07
1.22302e-07
1.22396e-07
1.22472e-07
1.22556e-07
1.22624e-07
1.227e-07
1.2276e-07
1.22828e-07
1.22882e-07
1.22942e-07
1.2299e-07
1.23044e-07
1.23087e-07
1.23135e-07
1.23173e-07
1.23217e-07
1.2325e-07
1.2329e-07
1.23321e-07
1.23357e-07
1.23383e-07
1.23415e-07
1.2344e-07
1.23471e-07
1.23493e-07
1.23519e-07
1.23541e-07
1.23567e-07
1.23584e-07
1.23608e-07
1.23626e-07
1.23647e-07
1.23663e-07
1.23681e-07
1.23695e-07
1.23712e-07
1.23726e-07
1.23742e-07
1.23756e-07
1.23771e-07
1.23784e-07
1.23795e-07
1.23811e-07
1.23819e-07
1.2383e-07
1.23835e-07
1.23847e-07
1.23851e-07
1.23858e-07
1.23857e-07
1.2386e-07
1.23876e-07
1.23885e-07
1.23895e-07
1.23903e-07
1.23914e-07
1.23928e-07
1.23942e-07
1.23964e-07
1.2398e-07
1.24006e-07
1.24021e-07
1.24045e-07
1.2406e-07
1.24084e-07
1.24098e-07
1.2412e-07
1.24132e-07
1.24151e-07
1.24165e-07
1.24183e-07
1.24198e-07
1.24215e-07
1.24232e-07
1.24252e-07
1.24269e-07
1.24285e-07
1.24325e-07
1.25838e-07
1.29107e-07
2.38325e-08
1.23946e-07
1.22966e-07
1.22244e-07
1.21795e-07
1.21571e-07
1.21481e-07
1.21487e-07
1.21531e-07
1.21614e-07
1.217e-07
1.21805e-07
1.219e-07
1.22007e-07
1.221e-07
1.22201e-07
1.22286e-07
1.22379e-07
1.22456e-07
1.2254e-07
1.22608e-07
1.22684e-07
1.22744e-07
1.22812e-07
1.22866e-07
1.22926e-07
1.22974e-07
1.23028e-07
1.23071e-07
1.23119e-07
1.23157e-07
1.23201e-07
1.23234e-07
1.23274e-07
1.23305e-07
1.23341e-07
1.23368e-07
1.234e-07
1.23425e-07
1.23455e-07
1.23477e-07
1.23504e-07
1.23526e-07
1.23552e-07
1.23569e-07
1.23593e-07
1.23611e-07
1.23632e-07
1.23648e-07
1.23666e-07
1.2368e-07
1.23698e-07
1.23712e-07
1.23727e-07
1.23741e-07
1.23756e-07
1.23769e-07
1.23781e-07
1.23797e-07
1.23804e-07
1.23816e-07
1.23821e-07
1.23833e-07
1.23837e-07
1.23844e-07
1.23843e-07
1.23846e-07
1.23862e-07
1.23871e-07
1.23881e-07
1.23889e-07
1.239e-07
1.23914e-07
1.23928e-07
1.23949e-07
1.23965e-07
1.23991e-07
1.24006e-07
1.2403e-07
1.24045e-07
1.24069e-07
1.24083e-07
1.24105e-07
1.24117e-07
1.24136e-07
1.2415e-07
1.24168e-07
1.24184e-07
1.24201e-07
1.24217e-07
1.24238e-07
1.24254e-07
1.24271e-07
1.24312e-07
1.25878e-07
1.29108e-07
2.49679e-08
1.23946e-07
1.22967e-07
1.22243e-07
1.21791e-07
1.21564e-07
1.21472e-07
1.21475e-07
1.21518e-07
1.21599e-07
1.21685e-07
1.21789e-07
1.21884e-07
1.21991e-07
1.22083e-07
1.22184e-07
1.22269e-07
1.22362e-07
1.22438e-07
1.22522e-07
1.2259e-07
1.22666e-07
1.22726e-07
1.22794e-07
1.22848e-07
1.22909e-07
1.22957e-07
1.23011e-07
1.23053e-07
1.23102e-07
1.2314e-07
1.23184e-07
1.23217e-07
1.23257e-07
1.23288e-07
1.23325e-07
1.23351e-07
1.23383e-07
1.23408e-07
1.23439e-07
1.23461e-07
1.23487e-07
1.2351e-07
1.23535e-07
1.23552e-07
1.23577e-07
1.23594e-07
1.23616e-07
1.23632e-07
1.2365e-07
1.23664e-07
1.23682e-07
1.23696e-07
1.23711e-07
1.23725e-07
1.2374e-07
1.23753e-07
1.23765e-07
1.23781e-07
1.23789e-07
1.23801e-07
1.23805e-07
1.23818e-07
1.23822e-07
1.23828e-07
1.23828e-07
1.23831e-07
1.23847e-07
1.23856e-07
1.23866e-07
1.23873e-07
1.23884e-07
1.23898e-07
1.23912e-07
1.23933e-07
1.23949e-07
1.23975e-07
1.2399e-07
1.24014e-07
1.24029e-07
1.24052e-07
1.24067e-07
1.24089e-07
1.24101e-07
1.24121e-07
1.24134e-07
1.24152e-07
1.24168e-07
1.24185e-07
1.24202e-07
1.24222e-07
1.24238e-07
1.24255e-07
1.24297e-07
1.25922e-07
1.29107e-07
2.61641e-08
1.23947e-07
1.22967e-07
1.22242e-07
1.21786e-07
1.21557e-07
1.21462e-07
1.21463e-07
1.21504e-07
1.21584e-07
1.21668e-07
1.21772e-07
1.21866e-07
1.21973e-07
1.22064e-07
1.22165e-07
1.2225e-07
1.22343e-07
1.22419e-07
1.22503e-07
1.22571e-07
1.22647e-07
1.22707e-07
1.22775e-07
1.22829e-07
1.2289e-07
1.22938e-07
1.22992e-07
1.23035e-07
1.23083e-07
1.23121e-07
1.23166e-07
1.23199e-07
1.23239e-07
1.2327e-07
1.23307e-07
1.23333e-07
1.23366e-07
1.2339e-07
1.23421e-07
1.23443e-07
1.2347e-07
1.23492e-07
1.23518e-07
1.23535e-07
1.23559e-07
1.23577e-07
1.23599e-07
1.23615e-07
1.23633e-07
1.23647e-07
1.23665e-07
1.23679e-07
1.23694e-07
1.23708e-07
1.23724e-07
1.23737e-07
1.23748e-07
1.23764e-07
1.23772e-07
1.23784e-07
1.23789e-07
1.23801e-07
1.23806e-07
1.23812e-07
1.23812e-07
1.23815e-07
1.23831e-07
1.2384e-07
1.2385e-07
1.23857e-07
1.23868e-07
1.23881e-07
1.23895e-07
1.23916e-07
1.23932e-07
1.23957e-07
1.23973e-07
1.23996e-07
1.24011e-07
1.24035e-07
1.24049e-07
1.24071e-07
1.24084e-07
1.24104e-07
1.24117e-07
1.24136e-07
1.24151e-07
1.24168e-07
1.24185e-07
1.24205e-07
1.24221e-07
1.24238e-07
1.24281e-07
1.2597e-07
1.29104e-07
2.74248e-08
1.23947e-07
1.22967e-07
1.2224e-07
1.21782e-07
1.21549e-07
1.21451e-07
1.2145e-07
1.21489e-07
1.21568e-07
1.21651e-07
1.21754e-07
1.21847e-07
1.21953e-07
1.22045e-07
1.22145e-07
1.2223e-07
1.22323e-07
1.22399e-07
1.22483e-07
1.22551e-07
1.22627e-07
1.22687e-07
1.22755e-07
1.22809e-07
1.2287e-07
1.22918e-07
1.22972e-07
1.23015e-07
1.23064e-07
1.23102e-07
1.23146e-07
1.23179e-07
1.2322e-07
1.23251e-07
1.23287e-07
1.23314e-07
1.23346e-07
1.23371e-07
1.23402e-07
1.23424e-07
1.23451e-07
1.23473e-07
1.23499e-07
1.23516e-07
1.23541e-07
1.23558e-07
1.2358e-07
1.23596e-07
1.23614e-07
1.23629e-07
1.23646e-07
1.2366e-07
1.23676e-07
1.2369e-07
1.23706e-07
1.23719e-07
1.2373e-07
1.23746e-07
1.23754e-07
1.23766e-07
1.23771e-07
1.23784e-07
1.23788e-07
1.23795e-07
1.23795e-07
1.23797e-07
1.23813e-07
1.23822e-07
1.23832e-07
1.2384e-07
1.2385e-07
1.23863e-07
1.23877e-07
1.23898e-07
1.23914e-07
1.23939e-07
1.23954e-07
1.23978e-07
1.23993e-07
1.24016e-07
1.24031e-07
1.24053e-07
1.24065e-07
1.24085e-07
1.24099e-07
1.24118e-07
1.24133e-07
1.2415e-07
1.24166e-07
1.24187e-07
1.24203e-07
1.2422e-07
1.24264e-07
1.26022e-07
1.29098e-07
2.87537e-08
1.23947e-07
1.22968e-07
1.22238e-07
1.21777e-07
1.21541e-07
1.2144e-07
1.21436e-07
1.21473e-07
1.21551e-07
1.21632e-07
1.21735e-07
1.21827e-07
1.21933e-07
1.22024e-07
1.22124e-07
1.22208e-07
1.22301e-07
1.22377e-07
1.22461e-07
1.22529e-07
1.22605e-07
1.22666e-07
1.22734e-07
1.22787e-07
1.22849e-07
1.22896e-07
1.22951e-07
1.22994e-07
1.23043e-07
1.2308e-07
1.23125e-07
1.23158e-07
1.23199e-07
1.2323e-07
1.23267e-07
1.23294e-07
1.23326e-07
1.23351e-07
1.23382e-07
1.23404e-07
1.23431e-07
1.23453e-07
1.23479e-07
1.23496e-07
1.23521e-07
1.23539e-07
1.2356e-07
1.23577e-07
1.23595e-07
1.23609e-07
1.23627e-07
1.23641e-07
1.23657e-07
1.23671e-07
1.23686e-07
1.23699e-07
1.23711e-07
1.23727e-07
1.23735e-07
1.23747e-07
1.23752e-07
1.23765e-07
1.23769e-07
1.23776e-07
1.23777e-07
1.23779e-07
1.23795e-07
1.23804e-07
1.23814e-07
1.23821e-07
1.23831e-07
1.23844e-07
1.23858e-07
1.23878e-07
1.23894e-07
1.23919e-07
1.23934e-07
1.23958e-07
1.23973e-07
1.23996e-07
1.24011e-07
1.24033e-07
1.24046e-07
1.24066e-07
1.24079e-07
1.24098e-07
1.24113e-07
1.24131e-07
1.24147e-07
1.24168e-07
1.24184e-07
1.242e-07
1.24246e-07
1.26079e-07
1.23038e-07
3.01547e-08
1.23948e-07
1.22968e-07
1.22237e-07
1.21772e-07
1.21532e-07
1.21428e-07
1.21421e-07
1.21456e-07
1.21532e-07
1.21613e-07
1.21714e-07
1.21806e-07
1.21911e-07
1.22001e-07
1.22102e-07
1.22186e-07
1.22278e-07
1.22354e-07
1.22438e-07
1.22506e-07
1.22582e-07
1.22643e-07
1.22711e-07
1.22764e-07
1.22826e-07
1.22874e-07
1.22928e-07
1.22971e-07
1.2302e-07
1.23058e-07
1.23103e-07
1.23136e-07
1.23177e-07
1.23208e-07
1.23245e-07
1.23272e-07
1.23304e-07
1.23329e-07
1.2336e-07
1.23383e-07
1.23409e-07
1.23432e-07
1.23458e-07
1.23475e-07
1.235e-07
1.23518e-07
1.23539e-07
1.23556e-07
1.23574e-07
1.23589e-07
1.23606e-07
1.2362e-07
1.23636e-07
1.2365e-07
1.23666e-07
1.23679e-07
1.23691e-07
1.23707e-07
1.23715e-07
1.23727e-07
1.23732e-07
1.23745e-07
1.23749e-07
1.23756e-07
1.23757e-07
1.23759e-07
1.23775e-07
1.23784e-07
1.23794e-07
1.23802e-07
1.23811e-07
1.23824e-07
1.23838e-07
1.23858e-07
1.23873e-07
1.23898e-07
1.23913e-07
1.23937e-07
1.23951e-07
1.23975e-07
1.2399e-07
1.24012e-07
1.24025e-07
1.24045e-07
1.24058e-07
1.24078e-07
1.24093e-07
1.24111e-07
1.24126e-07
1.24148e-07
1.24163e-07
1.24179e-07
1.24227e-07
1.26139e-07
1.17145e-07
3.16316e-08
1.23948e-07
1.22969e-07
1.22235e-07
1.21766e-07
1.21523e-07
1.21415e-07
1.21406e-07
1.21439e-07
1.21513e-07
1.21592e-07
1.21692e-07
1.21784e-07
1.21888e-07
1.21978e-07
1.22078e-07
1.22161e-07
1.22254e-07
1.2233e-07
1.22414e-07
1.22482e-07
1.22558e-07
1.22618e-07
1.22686e-07
1.2274e-07
1.22802e-07
1.2285e-07
1.22904e-07
1.22947e-07
1.22996e-07
1.23034e-07
1.23079e-07
1.23113e-07
1.23153e-07
1.23184e-07
1.23222e-07
1.23249e-07
1.23281e-07
1.23306e-07
1.23337e-07
1.2336e-07
1.23387e-07
1.23409e-07
1.23435e-07
1.23453e-07
1.23477e-07
1.23495e-07
1.23517e-07
1.23533e-07
1.23552e-07
1.23567e-07
1.23584e-07
1.23599e-07
1.23614e-07
1.23629e-07
1.23644e-07
1.23657e-07
1.23669e-07
1.23685e-07
1.23693e-07
1.23706e-07
1.23711e-07
1.23723e-07
1.23728e-07
1.23735e-07
1.23736e-07
1.23738e-07
1.23754e-07
1.23763e-07
1.23773e-07
1.23781e-07
1.2379e-07
1.23802e-07
1.23816e-07
1.23836e-07
1.23851e-07
1.23876e-07
1.23891e-07
1.23915e-07
1.23929e-07
1.23952e-07
1.23967e-07
1.2399e-07
1.24003e-07
1.24023e-07
1.24036e-07
1.24056e-07
1.24071e-07
1.24089e-07
1.24105e-07
1.24126e-07
1.24141e-07
1.24157e-07
1.24206e-07
1.26203e-07
1.11873e-07
3.31881e-08
1.23948e-07
1.22969e-07
1.22233e-07
1.21761e-07
1.21514e-07
1.21402e-07
1.2139e-07
1.2142e-07
1.21492e-07
1.2157e-07
1.21669e-07
1.2176e-07
1.21863e-07
1.21953e-07
1.22053e-07
1.22136e-07
1.22228e-07
1.22304e-07
1.22388e-07
1.22456e-07
1.22532e-07
1.22592e-07
1.22661e-07
1.22714e-07
1.22776e-07
1.22824e-07
1.22879e-07
1.22922e-07
1.22971e-07
1.23009e-07
1.23054e-07
1.23088e-07
1.23129e-07
1.2316e-07
1.23197e-07
1.23224e-07
1.23257e-07
1.23282e-07
1.23313e-07
1.23336e-07
1.23363e-07
1.23385e-07
1.23411e-07
1.23429e-07
1.23453e-07
1.23472e-07
1.23493e-07
1.2351e-07
1.23528e-07
1.23543e-07
1.23561e-07
1.23575e-07
1.23591e-07
1.23606e-07
1.23621e-07
1.23634e-07
1.23646e-07
1.23662e-07
1.23671e-07
1.23683e-07
1.23688e-07
1.23701e-07
1.23706e-07
1.23713e-07
1.23714e-07
1.23716e-07
1.23731e-07
1.23741e-07
1.23751e-07
1.23759e-07
1.23768e-07
1.2378e-07
1.23793e-07
1.23812e-07
1.23828e-07
1.23852e-07
1.23867e-07
1.23891e-07
1.23905e-07
1.23929e-07
1.23943e-07
1.23966e-07
1.23979e-07
1.24e-07
1.24013e-07
1.24033e-07
1.24048e-07
1.24066e-07
1.24081e-07
1.24104e-07
1.24118e-07
1.24134e-07
1.24185e-07
1.26269e-07
1.07154e-07
3.48275e-08
1.23949e-07
1.2297e-07
1.22232e-07
1.21755e-07
1.21504e-07
1.21388e-07
1.21373e-07
1.214e-07
1.21471e-07
1.21547e-07
1.21645e-07
1.21734e-07
1.21838e-07
1.21927e-07
1.22026e-07
1.22109e-07
1.22201e-07
1.22277e-07
1.22361e-07
1.22428e-07
1.22504e-07
1.22565e-07
1.22633e-07
1.22687e-07
1.22749e-07
1.22797e-07
1.22852e-07
1.22895e-07
1.22944e-07
1.22982e-07
1.23028e-07
1.23061e-07
1.23102e-07
1.23133e-07
1.23171e-07
1.23198e-07
1.23231e-07
1.23256e-07
1.23287e-07
1.2331e-07
1.23337e-07
1.23359e-07
1.23386e-07
1.23404e-07
1.23428e-07
1.23446e-07
1.23469e-07
1.23485e-07
1.23504e-07
1.23518e-07
1.23536e-07
1.23551e-07
1.23567e-07
1.23581e-07
1.23596e-07
1.2361e-07
1.23622e-07
1.23638e-07
1.23646e-07
1.23659e-07
1.23664e-07
1.23677e-07
1.23682e-07
1.2369e-07
1.23691e-07
1.23693e-07
1.23708e-07
1.23717e-07
1.23728e-07
1.23735e-07
1.23744e-07
1.23756e-07
1.23769e-07
1.23788e-07
1.23803e-07
1.23827e-07
1.23842e-07
1.23866e-07
1.2388e-07
1.23903e-07
1.23918e-07
1.23941e-07
1.23954e-07
1.23975e-07
1.23988e-07
1.24009e-07
1.24023e-07
1.24042e-07
1.24057e-07
1.24079e-07
1.24094e-07
1.2411e-07
1.24162e-07
1.26338e-07
1.02933e-07
3.65528e-08
1.23949e-07
1.2297e-07
1.2223e-07
1.21749e-07
1.21493e-07
1.21373e-07
1.21355e-07
1.2138e-07
1.21448e-07
1.21523e-07
1.2162e-07
1.21708e-07
1.2181e-07
1.21899e-07
1.21998e-07
1.2208e-07
1.22173e-07
1.22248e-07
1.22332e-07
1.224e-07
1.22476e-07
1.22536e-07
1.22605e-07
1.22658e-07
1.2272e-07
1.22768e-07
1.22823e-07
1.22866e-07
1.22916e-07
1.22954e-07
1.23e-07
1.23033e-07
1.23074e-07
1.23106e-07
1.23143e-07
1.23171e-07
1.23204e-07
1.23229e-07
1.2326e-07
1.23283e-07
1.2331e-07
1.23333e-07
1.23359e-07
1.23377e-07
1.23402e-07
1.2342e-07
1.23442e-07
1.23459e-07
1.23477e-07
1.23492e-07
1.2351e-07
1.23525e-07
1.23541e-07
1.23555e-07
1.23571e-07
1.23584e-07
1.23596e-07
1.23612e-07
1.23621e-07
1.23634e-07
1.23639e-07
1.23652e-07
1.23657e-07
1.23665e-07
1.23666e-07
1.23668e-07
1.23683e-07
1.23693e-07
1.23703e-07
1.2371e-07
1.2372e-07
1.23731e-07
1.23744e-07
1.23762e-07
1.23777e-07
1.23801e-07
1.23816e-07
1.23839e-07
1.23854e-07
1.23877e-07
1.23892e-07
1.23915e-07
1.23928e-07
1.23949e-07
1.23962e-07
1.23983e-07
1.23997e-07
1.24016e-07
1.24031e-07
1.24054e-07
1.24068e-07
1.24084e-07
1.24138e-07
1.26406e-07
9.91601e-08
3.83659e-08
1.2395e-07
1.22971e-07
1.22228e-07
1.21743e-07
1.21482e-07
1.21358e-07
1.21336e-07
1.21358e-07
1.21424e-07
1.21497e-07
1.21593e-07
1.2168e-07
1.21782e-07
1.2187e-07
1.21968e-07
1.2205e-07
1.22143e-07
1.22218e-07
1.22302e-07
1.22369e-07
1.22445e-07
1.22506e-07
1.22574e-07
1.22628e-07
1.2269e-07
1.22738e-07
1.22794e-07
1.22837e-07
1.22886e-07
1.22925e-07
1.2297e-07
1.23004e-07
1.23045e-07
1.23076e-07
1.23114e-07
1.23142e-07
1.23175e-07
1.232e-07
1.23232e-07
1.23255e-07
1.23282e-07
1.23304e-07
1.23331e-07
1.23349e-07
1.23374e-07
1.23392e-07
1.23414e-07
1.23431e-07
1.2345e-07
1.23465e-07
1.23483e-07