/*--------------------------------*- C++ -*----------------------------------*\
| =========                 |                                                 |
| \\      /  F ield         | OpenFOAM: The Open Source CFD Toolbox           |
|  \\    /   O peration     | Version:  v2012                                 |
|   \\  /    A nd           | Website:  www.openfoam.com                      |
|    \\/     M anipulation  |                                                 |
\*---------------------------------------------------------------------------*/
FoamFile
{
    version     2.0;
    format      ascii;
    class       volScalarField;
    location    "23";
    object      epsilon;
}
// * * * * * * * * * * * * * * * * * * * * * * * * * * * * * * * * * * * * * //

dimensions      [0 2 -3 0 0 0 0];


internalField   nonuniform List<scalar> 
209825
(
0.755196
0.661807
0.613715
0.586518
0.569472
0.557979
0.54976
0.543679
0.538996
0.53534
0.532381
0.52999
0.527984
0.526317
0.524885
0.523682
0.522619
0.521717
0.520902
0.520207
0.519566
0.519017
0.518506
0.518074
0.517659
0.517308
0.51697
0.516691
0.516411
0.516175
0.515951
0.515771
0.515584
0.515432
0.515281
0.515168
0.515032
0.514931
0.514829
0.514755
0.514682
0.514632
0.514551
0.514503
0.514467
0.514435
0.514367
0.514355
0.514347
0.514334
0.514294
0.514372
0.514372
0.514371
0.51442
0.51442
0.514507
0.514643
0.514741
0.514904
0.51492
0.51492
0.515005
0.515133
0.515334
0.515484
0.515571
0.515705
0.515912
0.516074
0.516272
0.516497
0.516689
0.516911
0.517125
0.517375
0.517621
0.517956
0.518208
0.518618
0.518904
0.519379
0.519701
0.52028
0.520646
0.521376
0.521809
0.522731
0.52328
0.524479
0.525154
0.527276
0.527792
0.536121
2.95152
542.68
0.755196
0.6618
0.613701
0.586499
0.569449
0.557952
0.549732
0.543649
0.538964
0.535308
0.532348
0.529957
0.52795
0.526283
0.52485
0.523646
0.522583
0.521681
0.520865
0.520171
0.51953
0.518981
0.518469
0.518037
0.517622
0.51727
0.516932
0.516654
0.516374
0.516138
0.515913
0.515734
0.515546
0.515394
0.515243
0.51513
0.514994
0.514893
0.514791
0.514717
0.514644
0.514594
0.514513
0.514465
0.514428
0.514397
0.514329
0.514316
0.514309
0.514295
0.514256
0.514333
0.514333
0.514333
0.514382
0.514382
0.514468
0.514605
0.514703
0.514865
0.514881
0.514881
0.514966
0.515094
0.515296
0.515445
0.515533
0.515666
0.515874
0.516036
0.516234
0.516458
0.51665
0.516872
0.517087
0.517336
0.517583
0.517917
0.51817
0.51858
0.518866
0.51934
0.519663
0.520241
0.520607
0.521338
0.52177
0.522693
0.523241
0.524441
0.525116
0.527237
0.527752
0.536095
2.95622
539.347
0.755195
0.661766
0.613636
0.586412
0.569346
0.557839
0.54961
0.543522
0.538832
0.535172
0.532209
0.529815
0.527805
0.526137
0.524702
0.523498
0.522433
0.52153
0.520713
0.520018
0.519376
0.518827
0.518315
0.517882
0.517466
0.517114
0.516776
0.516497
0.516217
0.515981
0.515756
0.515576
0.515388
0.515236
0.515085
0.514972
0.514835
0.514734
0.514632
0.514558
0.514484
0.514435
0.514353
0.514306
0.514269
0.514237
0.514169
0.514156
0.514149
0.514135
0.514096
0.514173
0.514173
0.514173
0.514222
0.514222
0.514308
0.514444
0.514542
0.514705
0.514721
0.514721
0.514806
0.514934
0.515135
0.515285
0.515372
0.515506
0.515713
0.515875
0.516073
0.516298
0.51649
0.516712
0.516926
0.517176
0.517422
0.517757
0.518009
0.518419
0.518705
0.519179
0.519502
0.52008
0.520446
0.521177
0.521609
0.522531
0.523079
0.524278
0.524953
0.527074
0.527587
0.535956
2.96622
535.457
0.755193
0.661706
0.613524
0.586264
0.569172
0.557647
0.549404
0.543306
0.538608
0.534941
0.531973
0.529575
0.527562
0.52589
0.524454
0.523246
0.52218
0.521275
0.520457
0.519761
0.519118
0.518567
0.518054
0.51762
0.517204
0.516852
0.516512
0.516233
0.515952
0.515715
0.51549
0.51531
0.515122
0.514969
0.514818
0.514704
0.514567
0.514466
0.514364
0.514289
0.514216
0.514166
0.514084
0.514036
0.513999
0.513968
0.5139
0.513887
0.51388
0.513866
0.513826
0.513903
0.513903
0.513902
0.513951
0.513951
0.514037
0.514174
0.514271
0.514434
0.51445
0.51445
0.514535
0.514663
0.514864
0.515014
0.515102
0.515235
0.515442
0.515604
0.515802
0.516027
0.516219
0.516441
0.516655
0.516905
0.517151
0.517485
0.517737
0.518148
0.518433
0.518908
0.51923
0.519808
0.520174
0.520904
0.521336
0.522257
0.522805
0.524004
0.524677
0.526798
0.527307
0.535716
2.98191
531.783
0.75519
0.661622
0.613367
0.586054
0.568927
0.557375
0.549114
0.543
0.538291
0.534616
0.53164
0.529236
0.527218
0.525542
0.524102
0.522892
0.521822
0.520915
0.520095
0.519397
0.518752
0.5182
0.517686
0.517251
0.516834
0.51648
0.51614
0.51586
0.515578
0.515341
0.515115
0.514934
0.514745
0.514592
0.51444
0.514326
0.514189
0.514087
0.513985
0.51391
0.513836
0.513786
0.513704
0.513656
0.513619
0.513587
0.513519
0.513506
0.513498
0.513484
0.513444
0.513521
0.513521
0.513521
0.513569
0.513569
0.513655
0.513791
0.513889
0.514051
0.514068
0.514068
0.514153
0.51428
0.514481
0.514631
0.514719
0.514852
0.515059
0.515221
0.515419
0.515644
0.515836
0.516057
0.516272
0.516521
0.516767
0.517102
0.517354
0.517764
0.518049
0.518523
0.518845
0.519424
0.519789
0.520519
0.52095
0.521871
0.522418
0.523615
0.524288
0.526407
0.526911
0.535374
3.00371
528.669
0.755186
0.661513
0.613163
0.585782
0.568608
0.557023
0.548737
0.542605
0.537881
0.534194
0.531209
0.528797
0.526772
0.525091
0.523646
0.522431
0.521359
0.520449
0.519626
0.518925
0.518278
0.517724
0.517208
0.516772
0.516353
0.515998
0.515657
0.515376
0.515093
0.514855
0.514628
0.514446
0.514257
0.514103
0.513951
0.513836
0.513698
0.513596
0.513493
0.513418
0.513344
0.513293
0.513211
0.513163
0.513125
0.513093
0.513025
0.513012
0.513004
0.51299
0.512949
0.513025
0.513025
0.513025
0.513073
0.513073
0.513159
0.513295
0.513392
0.513555
0.513571
0.513571
0.513657
0.513784
0.513985
0.514134
0.514223
0.514356
0.514563
0.514725
0.514922
0.515147
0.515339
0.515561
0.515775
0.516024
0.51627
0.516605
0.516856
0.517266
0.517551
0.518025
0.518347
0.518925
0.519289
0.520019
0.52045
0.521369
0.521916
0.523112
0.523783
0.5259
0.526398
0.534931
3.03204
526.276
0.755181
0.661379
0.612911
0.585448
0.568216
0.556589
0.548272
0.542117
0.537375
0.533673
0.530677
0.528255
0.526223
0.524535
0.523084
0.521864
0.520787
0.519873
0.519047
0.518344
0.517694
0.517138
0.516619
0.516181
0.515761
0.515404
0.515061
0.514779
0.514495
0.514256
0.514028
0.513845
0.513655
0.513501
0.513347
0.513232
0.513094
0.512991
0.512887
0.512812
0.512737
0.512686
0.512604
0.512555
0.512517
0.512485
0.512417
0.512403
0.512395
0.51238
0.512339
0.512415
0.512415
0.512415
0.512462
0.512462
0.512548
0.512684
0.51278
0.512943
0.51296
0.51296
0.513045
0.513172
0.513372
0.513522
0.513611
0.513744
0.51395
0.514113
0.51431
0.514534
0.514726
0.514948
0.515162
0.515412
0.515657
0.515992
0.516243
0.516652
0.516937
0.517411
0.517732
0.51831
0.518674
0.519403
0.519833
0.520751
0.521297
0.522491
0.52316
0.525276
0.525765
0.534385
3.06732
524.661
0.755176
0.66122
0.612613
0.58505
0.567749
0.556073
0.54772
0.541537
0.536773
0.533054
0.530044
0.52761
0.525568
0.523872
0.522414
0.521189
0.520107
0.519188
0.518358
0.517651
0.516998
0.516439
0.515918
0.515477
0.515055
0.514697
0.514352
0.514068
0.513783
0.513542
0.513313
0.513129
0.512938
0.512782
0.512628
0.512512
0.512373
0.51227
0.512165
0.512089
0.512014
0.511962
0.51188
0.511831
0.511792
0.51176
0.511691
0.511677
0.511669
0.511654
0.511612
0.511687
0.511687
0.511687
0.511734
0.511734
0.51182
0.511955
0.512051
0.512214
0.512231
0.512231
0.512316
0.512443
0.512642
0.512793
0.512882
0.513015
0.513221
0.513383
0.51358
0.513804
0.513996
0.514218
0.514432
0.514682
0.514926
0.515261
0.515511
0.515921
0.516205
0.516679
0.517
0.517577
0.51794
0.518668
0.519098
0.520014
0.520559
0.521751
0.522418
0.524531
0.525011
0.533735
3.10996
523.81
0.75517
0.661037
0.612268
0.584589
0.567207
0.555473
0.547078
0.540862
0.536073
0.532334
0.529307
0.52686
0.524807
0.523102
0.521635
0.520403
0.519315
0.518391
0.517556
0.516845
0.516189
0.515626
0.515102
0.514659
0.514234
0.513874
0.513527
0.513241
0.512954
0.512712
0.512481
0.512296
0.512104
0.511947
0.511792
0.511675
0.511535
0.511431
0.511326
0.511249
0.511172
0.511121
0.511038
0.510988
0.510949
0.510916
0.510848
0.510833
0.510824
0.510809
0.510767
0.510841
0.510841
0.510841
0.510888
0.510888
0.510973
0.511108
0.511203
0.511366
0.511383
0.511383
0.511468
0.511594
0.511794
0.511945
0.512034
0.512166
0.512372
0.512535
0.512731
0.512955
0.513147
0.513369
0.513583
0.513833
0.514076
0.514411
0.514661
0.51507
0.515354
0.515828
0.516147
0.516724
0.517087
0.517814
0.518243
0.519157
0.519701
0.52089
0.521555
0.523665
0.524134
0.53298
3.16036
523.657
0.755164
0.660829
0.611874
0.584063
0.566589
0.554789
0.546345
0.540092
0.535274
0.531512
0.528466
0.526004
0.523938
0.522222
0.520746
0.519506
0.518411
0.517481
0.516641
0.515925
0.515264
0.514698
0.514171
0.513724
0.513297
0.512934
0.512585
0.512297
0.512008
0.511764
0.511531
0.511345
0.511151
0.510993
0.510837
0.510719
0.510578
0.510473
0.510367
0.510289
0.510212
0.510159
0.510076
0.510025
0.509986
0.509953
0.509884
0.509869
0.50986
0.509845
0.509801
0.509874
0.509874
0.509874
0.50992
0.50992
0.510005
0.51014
0.510235
0.510397
0.510415
0.510415
0.5105
0.510625
0.510824
0.510976
0.511066
0.511197
0.511402
0.511565
0.511761
0.511985
0.512177
0.512399
0.512612
0.512862
0.513105
0.51344
0.513689
0.514098
0.514381
0.514855
0.515174
0.51575
0.516112
0.516838
0.517266
0.518178
0.51872
0.519906
0.520569
0.522675
0.523133
0.532119
3.21889
524.1
0.755157
0.660596
0.611434
0.583473
0.565895
0.55402
0.545521
0.539226
0.534375
0.530587
0.52752
0.525041
0.52296
0.521231
0.519745
0.518496
0.517393
0.516456
0.51561
0.514889
0.514223
0.513653
0.513122
0.512672
0.512241
0.511875
0.511523
0.511233
0.510942
0.510696
0.510462
0.510273
0.510078
0.509919
0.509761
0.509642
0.5095
0.509393
0.509286
0.509208
0.50913
0.509077
0.508992
0.508941
0.508901
0.508868
0.508799
0.508783
0.508773
0.508758
0.508713
0.508785
0.508785
0.508785
0.508831
0.508831
0.508915
0.50905
0.509143
0.509305
0.509324
0.509324
0.509409
0.509534
0.509732
0.509884
0.509975
0.510106
0.51031
0.510473
0.510668
0.510893
0.511084
0.511306
0.511519
0.511769
0.512011
0.512346
0.512595
0.513003
0.513286
0.513759
0.514077
0.514653
0.515014
0.515738
0.516165
0.517074
0.517616
0.518798
0.519458
0.52156
0.522004
0.53115
3.28589
525.015
0.755151
0.660339
0.610945
0.582818
0.565123
0.553166
0.544604
0.538262
0.533375
0.529557
0.526467
0.523968
0.521871
0.520129
0.518631
0.517372
0.51626
0.515315
0.514462
0.513735
0.513064
0.512489
0.511954
0.5115
0.511065
0.510696
0.510342
0.510049
0.509755
0.509507
0.509271
0.50908
0.508883
0.508722
0.508563
0.508442
0.508299
0.508192
0.508084
0.508004
0.507925
0.507871
0.507786
0.507734
0.507693
0.50766
0.50759
0.507574
0.507564
0.507547
0.507502
0.507573
0.507573
0.507573
0.507617
0.507617
0.507701
0.507836
0.507928
0.50809
0.508109
0.508109
0.508195
0.508319
0.508515
0.508668
0.50876
0.50889
0.509094
0.509257
0.509451
0.509676
0.509867
0.510089
0.510302
0.510552
0.510793
0.511127
0.511376
0.511784
0.512066
0.512539
0.512856
0.513431
0.51379
0.514513
0.514939
0.515846
0.516385
0.517564
0.51822
0.520319
0.520748
0.530074
3.36164
526.261
0.755145
0.660058
0.610409
0.582098
0.564274
0.552224
0.543594
0.537201
0.532273
0.528423
0.525306
0.522786
0.520671
0.518913
0.517402
0.516132
0.51501
0.514057
0.513197
0.512463
0.511786
0.511206
0.510665
0.510207
0.509769
0.509396
0.509038
0.508742
0.508446
0.508196
0.507957
0.507764
0.507565
0.507403
0.507241
0.507119
0.506975
0.506866
0.506757
0.506676
0.506595
0.506541
0.506455
0.506403
0.50636
0.506327
0.506257
0.506239
0.506229
0.506212
0.506165
0.506235
0.506235
0.506235
0.506279
0.506279
0.506362
0.506496
0.506587
0.506749
0.506769
0.506769
0.506854
0.506978
0.507173
0.507327
0.507419
0.507549
0.507752
0.507915
0.508109
0.508333
0.508524
0.508746
0.508959
0.509209
0.509449
0.509783
0.51003
0.510438
0.510719
0.511192
0.511508
0.512082
0.51244
0.513161
0.513586
0.51449
0.515027
0.516203
0.516855
0.518949
0.519361
0.528887
3.44638
527.691
0.755139
0.659753
0.609825
0.581313
0.563347
0.551196
0.542491
0.53604
0.531067
0.527182
0.524036
0.521492
0.519357
0.517583
0.516058
0.514775
0.513642
0.51268
0.511811
0.51107
0.510387
0.509801
0.509255
0.508792
0.50835
0.507973
0.507612
0.507312
0.507013
0.50676
0.506519
0.506324
0.506122
0.505958
0.505795
0.505671
0.505525
0.505415
0.505304
0.505222
0.50514
0.505085
0.504998
0.504945
0.504901
0.504867
0.504797
0.504779
0.504768
0.504751
0.504702
0.504771
0.504771
0.50477
0.504813
0.504813
0.504896
0.50503
0.50512
0.505281
0.505302
0.505301
0.505387
0.50551
0.505704
0.505858
0.505951
0.506081
0.506282
0.506446
0.506639
0.506863
0.507054
0.507276
0.507488
0.507738
0.507977
0.508311
0.508557
0.508965
0.509245
0.509717
0.510032
0.510606
0.510962
0.511681
0.512105
0.513005
0.513541
0.514712
0.51536
0.517449
0.517844
0.52759
3.54025
529.156
0.755133
0.659425
0.609194
0.580462
0.562343
0.55008
0.541293
0.53478
0.529758
0.525834
0.522656
0.520086
0.51793
0.516137
0.514596
0.5133
0.512156
0.511183
0.510305
0.509556
0.508866
0.508273
0.507722
0.507254
0.506807
0.506426
0.506061
0.505758
0.505455
0.505199
0.504955
0.504757
0.504554
0.504387
0.504222
0.504096
0.503949
0.503837
0.503724
0.503641
0.503558
0.503501
0.503414
0.50336
0.503315
0.50328
0.50321
0.503191
0.503179
0.503161
0.503112
0.503178
0.503178
0.503178
0.50322
0.50322
0.503302
0.503435
0.503524
0.503685
0.503706
0.503706
0.503791
0.503913
0.504106
0.504261
0.504355
0.504484
0.504684
0.504848
0.50504
0.505264
0.505455
0.505677
0.505888
0.506139
0.506376
0.50671
0.506956
0.507362
0.507642
0.508113
0.508426
0.508999
0.509355
0.510072
0.510494
0.51139
0.511924
0.51309
0.513734
0.515818
0.516193
0.526181
3.64329
530.513
0.755128
0.659074
0.608516
0.579546
0.561259
0.548877
0.54
0.533419
0.528344
0.524377
0.521166
0.518567
0.516387
0.514575
0.513017
0.511706
0.510549
0.509566
0.508678
0.50792
0.507222
0.506623
0.506065
0.505591
0.505139
0.504754
0.504384
0.504077
0.503771
0.503512
0.503264
0.503064
0.502858
0.502689
0.502521
0.502394
0.502244
0.502131
0.502017
0.501932
0.501847
0.501789
0.501701
0.501646
0.5016
0.501565
0.501493
0.501473
0.501461
0.501442
0.501392
0.501457
0.501457
0.501456
0.501497
0.501497
0.501578
0.50171
0.501798
0.501958
0.50198
0.50198
0.502066
0.502187
0.502378
0.502534
0.502628
0.502757
0.502956
0.503121
0.503311
0.503535
0.503726
0.503948
0.504158
0.504409
0.504645
0.504979
0.505223
0.505629
0.505907
0.506378
0.50669
0.507262
0.507616
0.508331
0.508751
0.509644
0.510175
0.511336
0.511975
0.514053
0.514409
0.524658
3.75546
531.63
0.755124
0.658701
0.607792
0.578565
0.560098
0.547585
0.538612
0.531957
0.526825
0.522812
0.519564
0.516934
0.514729
0.512895
0.511318
0.509992
0.508821
0.507826
0.506927
0.50616
0.505454
0.504847
0.504282
0.503803
0.503345
0.502955
0.50258
0.502269
0.501959
0.501696
0.501445
0.501242
0.501033
0.500862
0.500692
0.500562
0.500411
0.500296
0.500179
0.500093
0.500007
0.499948
0.499858
0.499802
0.499754
0.499719
0.499647
0.499626
0.499612
0.499593
0.499541
0.499604
0.499604
0.499603
0.499643
0.499643
0.499724
0.499855
0.499941
0.500101
0.500124
0.500124
0.500209
0.500329
0.500519
0.500675
0.500771
0.500899
0.501097
0.501262
0.501451
0.501675
0.501865
0.502087
0.502297
0.502548
0.502782
0.503116
0.503359
0.503764
0.504041
0.504512
0.504822
0.505393
0.505745
0.506457
0.506876
0.507764
0.508293
0.509448
0.510083
0.512155
0.512489
0.523019
3.87654
532.385
0.755121
0.658305
0.607021
0.577519
0.558858
0.546205
0.537128
0.530394
0.5252
0.521138
0.517849
0.515187
0.512954
0.511097
0.509501
0.508157
0.506971
0.505963
0.505053
0.504276
0.50356
0.502945
0.502373
0.501887
0.501423
0.501028
0.500648
0.500333
0.500019
0.499753
0.499498
0.499291
0.499079
0.498905
0.498732
0.4986
0.498447
0.49833
0.498212
0.498124
0.498035
0.497975
0.497885
0.497827
0.497778
0.497742
0.497669
0.497647
0.497632
0.497613
0.497559
0.49762
0.49762
0.497619
0.497657
0.497657
0.497737
0.497868
0.497952
0.498111
0.498135
0.498135
0.49822
0.49834
0.498528
0.498684
0.498781
0.498908
0.499105
0.49927
0.499458
0.499682
0.499872
0.500094
0.500303
0.500554
0.500786
0.50112
0.501362
0.501766
0.502042
0.502512
0.50282
0.50339
0.50374
0.50445
0.504867
0.50575
0.506276
0.507426
0.508055
0.510121
0.510432
0.521263
4.00616
532.669
0.755119
0.657889
0.606205
0.576409
0.557539
0.544737
0.535548
0.528729
0.523468
0.519353
0.516022
0.513324
0.511062
0.50918
0.507562
0.5062
0.504998
0.503976
0.503054
0.502266
0.501541
0.500917
0.500338
0.499844
0.499374
0.498973
0.498588
0.498268
0.497949
0.497679
0.49742
0.49721
0.496995
0.496818
0.496642
0.496508
0.496352
0.496233
0.496113
0.496023
0.495932
0.495871
0.495779
0.495719
0.495669
0.495632
0.495559
0.495536
0.49552
0.4955
0.495444
0.495503
0.495503
0.495502
0.495538
0.495538
0.495618
0.495747
0.495829
0.495988
0.496013
0.496013
0.496098
0.496216
0.496403
0.49656
0.496658
0.496785
0.49698
0.497145
0.497332
0.497555
0.497745
0.497967
0.498175
0.498426
0.498657
0.49899
0.49923
0.499634
0.499908
0.500377
0.500684
0.501253
0.501601
0.502307
0.502722
0.503601
0.504124
0.505268
0.505891
0.50795
0.508238
0.519388
4.14376
532.392
0.755119
0.657452
0.605343
0.575235
0.556143
0.54318
0.533872
0.526962
0.52163
0.517459
0.514081
0.511346
0.509052
0.507143
0.505502
0.504121
0.502902
0.501865
0.50093
0.50013
0.499395
0.498762
0.498174
0.497673
0.497196
0.496789
0.496398
0.496072
0.495749
0.495474
0.495211
0.494998
0.494779
0.494599
0.49442
0.494283
0.494125
0.494003
0.493881
0.493789
0.493696
0.493633
0.49354
0.493479
0.493427
0.49339
0.493316
0.493291
0.493274
0.493253
0.493196
0.493253
0.493253
0.493251
0.493286
0.493285
0.493364
0.493493
0.493573
0.493731
0.493756
0.493756
0.493842
0.493959
0.494144
0.494301
0.4944
0.494526
0.49472
0.494885
0.495071
0.495293
0.495483
0.495705
0.495912
0.496163
0.496392
0.496725
0.496964
0.497367
0.497639
0.498107
0.498413
0.498979
0.499325
0.500029
0.500442
0.501315
0.501835
0.502972
0.50359
0.505642
0.505905
0.517392
4.28859
531.475
0.755121
0.656995
0.604438
0.573997
0.554669
0.541535
0.5321
0.525093
0.519685
0.515453
0.512027
0.509251
0.506923
0.504986
0.503321
0.501919
0.500682
0.499629
0.498679
0.497867
0.497121
0.496479
0.495881
0.495373
0.494888
0.494474
0.494077
0.493746
0.493418
0.493139
0.492871
0.492654
0.492431
0.492248
0.492065
0.491926
0.491765
0.491641
0.491516
0.491422
0.491327
0.491262
0.491168
0.491105
0.491051
0.491013
0.490938
0.490912
0.490894
0.490872
0.490813
0.490867
0.490867
0.490866
0.490899
0.490898
0.490976
0.491103
0.491181
0.491339
0.491365
0.491365
0.49145
0.491566
0.491749
0.491907
0.492007
0.492132
0.492324
0.49249
0.492674
0.492896
0.493085
0.493307
0.493513
0.493764
0.493991
0.494323
0.494561
0.494963
0.495234
0.495701
0.496004
0.496569
0.496913
0.497613
0.498024
0.498892
0.499409
0.500539
0.50115
0.503195
0.503433
0.515271
4.43962
529.848
0.755125
0.656518
0.603489
0.572697
0.553118
0.539803
0.530233
0.523122
0.517634
0.513337
0.509858
0.50704
0.504676
0.502709
0.501018
0.499593
0.498337
0.497267
0.496303
0.495477
0.494719
0.494066
0.493459
0.492942
0.49245
0.492029
0.491626
0.491289
0.490955
0.490671
0.490399
0.490177
0.48995
0.489764
0.489578
0.489435
0.489271
0.489145
0.489017
0.488921
0.488824
0.488757
0.488661
0.488597
0.488541
0.488502
0.488426
0.488398
0.488379
0.488357
0.488295
0.488347
0.488347
0.488345
0.488376
0.488375
0.488452
0.488578
0.488654
0.48881
0.488837
0.488837
0.488923
0.489038
0.489218
0.489377
0.489477
0.489602
0.489792
0.489958
0.490141
0.490362
0.490551
0.490772
0.490977
0.491229
0.491454
0.491785
0.492021
0.492422
0.492692
0.493157
0.493458
0.494022
0.494364
0.49506
0.495468
0.496331
0.496844
0.497966
0.498571
0.500607
0.50082
0.513024
4.5956
527.465
0.755131
0.656024
0.602498
0.571334
0.55149
0.537982
0.528269
0.521049
0.515475
0.51111
0.507576
0.504712
0.50231
0.50031
0.498592
0.497144
0.495867
0.494779
0.493799
0.49296
0.492189
0.491525
0.490908
0.490382
0.489881
0.489453
0.489042
0.488699
0.48836
0.488071
0.487793
0.487567
0.487336
0.487146
0.486956
0.48681
0.486643
0.486514
0.486384
0.486285
0.486185
0.486117
0.486019
0.485953
0.485895
0.485855
0.485778
0.485749
0.485728
0.485705
0.485642
0.485691
0.485691
0.485688
0.485717
0.485716
0.485792
0.485917
0.48599
0.486145
0.486173
0.486173
0.486259
0.486372
0.486551
0.486709
0.486811
0.486935
0.487123
0.487289
0.48747
0.487691
0.487879
0.488101
0.488304
0.488556
0.488779
0.48911
0.489344
0.489743
0.490011
0.490476
0.490775
0.491336
0.491675
0.492368
0.492774
0.49363
0.494139
0.495254
0.495852
0.497879
0.498066
0.510648
4.75496
524.285
0.755139
0.655512
0.601466
0.569911
0.549786
0.536075
0.52621
0.518875
0.51321
0.508773
0.505179
0.502267
0.499824
0.497791
0.496044
0.49457
0.493271
0.492165
0.491168
0.490314
0.48953
0.488854
0.488226
0.487691
0.487181
0.486745
0.486327
0.485978
0.485632
0.485337
0.485055
0.484824
0.484588
0.484394
0.4842
0.484051
0.483881
0.483749
0.483616
0.483514
0.483412
0.483341
0.483241
0.483174
0.483114
0.483072
0.482995
0.482964
0.482941
0.482917
0.482852
0.482898
0.482898
0.482895
0.482922
0.48292
0.482995
0.483118
0.483189
0.483343
0.483372
0.483372
0.483458
0.48357
0.483746
0.483905
0.484007
0.484131
0.484317
0.484483
0.484662
0.484883
0.48507
0.485291
0.485493
0.485745
0.485965
0.486296
0.486528
0.486926
0.487192
0.487655
0.487952
0.488511
0.488848
0.489536
0.48994
0.49079
0.491295
0.492402
0.492992
0.49501
0.49517
0.50814
4.91587
520.279
0.75515
0.654984
0.600393
0.568427
0.548008
0.534082
0.524057
0.516599
0.510838
0.506324
0.502669
0.499705
0.49722
0.495151
0.493373
0.491873
0.490551
0.489424
0.488409
0.48754
0.486742
0.486054
0.485415
0.484869
0.48435
0.483906
0.48348
0.483123
0.482772
0.482471
0.482182
0.481946
0.481706
0.481508
0.48131
0.481157
0.480984
0.480849
0.480712
0.480608
0.480503
0.48043
0.480328
0.480259
0.480196
0.480153
0.480075
0.480042
0.480018
0.479993
0.479926
0.479969
0.479969
0.479965
0.47999
0.479987
0.480061
0.480183
0.48025
0.480404
0.480434
0.480434
0.480519
0.48063
0.480803
0.480962
0.481066
0.481189
0.481373
0.481539
0.481716
0.481936
0.482122
0.482343
0.482544
0.482796
0.483014
0.483343
0.483574
0.48397
0.484234
0.484696
0.48499
0.485547
0.485881
0.486565
0.486965
0.487809
0.48831
0.489408
0.489991
0.491999
0.492133
0.505496
5.07617
515.423
0.755164
0.654441
0.599282
0.566885
0.546155
0.532004
0.52181
0.514222
0.50836
0.503766
0.500045
0.497027
0.494497
0.49239
0.490579
0.489051
0.487705
0.486557
0.485524
0.484638
0.483825
0.483124
0.482473
0.481916
0.481387
0.480934
0.480501
0.480136
0.479778
0.479471
0.479177
0.478935
0.47869
0.478487
0.478285
0.478128
0.477951
0.477813
0.477673
0.477566
0.477458
0.477382
0.477279
0.477207
0.477142
0.477098
0.477018
0.476984
0.476958
0.476932
0.476863
0.476903
0.476902
0.476898
0.476921
0.476917
0.47699
0.47711
0.477174
0.477327
0.477358
0.477358
0.477443
0.477552
0.477723
0.477882
0.477986
0.478109
0.47829
0.478457
0.478632
0.478851
0.479036
0.479257
0.479456
0.479708
0.479923
0.480252
0.48048
0.480875
0.481137
0.481597
0.481888
0.482442
0.482774
0.483453
0.483851
0.484687
0.485184
0.486274
0.486848
0.488845
0.488953
0.502712
5.23338
509.698
0.755181
0.653884
0.598133
0.565285
0.54423
0.529841
0.519469
0.511746
0.505777
0.501098
0.497308
0.494233
0.491656
0.489509
0.487663
0.486106
0.484734
0.483564
0.482511
0.481608
0.480779
0.480064
0.4794
0.478833
0.478294
0.477831
0.477389
0.477017
0.476651
0.476338
0.476037
0.47579
0.47554
0.475332
0.475125
0.474964
0.474784
0.474642
0.474499
0.474389
0.474277
0.474199
0.474094
0.47402
0.473952
0.473907
0.473825
0.473789
0.473761
0.473734
0.473663
0.473699
0.473699
0.473694
0.473715
0.47371
0.473782
0.473899
0.473961
0.474112
0.474144
0.474143
0.474228
0.474336
0.474504
0.474663
0.474769
0.474891
0.475069
0.475236
0.475409
0.475627
0.475811
0.476031
0.476229
0.47648
0.476693
0.477021
0.477247
0.47764
0.4779
0.478358
0.478647
0.479198
0.479527
0.480201
0.480596
0.481425
0.481917
0.482997
0.483564
0.485549
0.485631
0.499786
5.38474
503.088
0.755202
0.653313
0.596948
0.563629
0.542233
0.527595
0.517036
0.50917
0.503089
0.498321
0.494458
0.491323
0.488696
0.486507
0.484626
0.483038
0.481639
0.480445
0.479371
0.478449
0.477605
0.476875
0.476198
0.475618
0.475069
0.474597
0.474145
0.473765
0.473392
0.473072
0.472764
0.472512
0.472256
0.472043
0.471831
0.471666
0.471482
0.471336
0.471189
0.471076
0.470961
0.47088
0.470772
0.470696
0.470626
0.470579
0.470496
0.470458
0.470427
0.4704
0.470327
0.470359
0.470359
0.470353
0.470372
0.470365
0.470436
0.470551
0.470609
0.470759
0.470792
0.470791
0.470876
0.470983
0.471148
0.471306
0.471413
0.471534
0.47171
0.471876
0.472047
0.472264
0.472447
0.472667
0.472863
0.473114
0.473325
0.473651
0.473875
0.474266
0.474523
0.474979
0.475265
0.475814
0.47614
0.476808
0.4772
0.478022
0.478509
0.479579
0.480137
0.482109
0.482166
0.496712
5.52719
495.575
0.755226
0.652731
0.595729
0.561919
0.540166
0.525266
0.514513
0.506496
0.500298
0.495435
0.491496
0.488299
0.485619
0.483386
0.481467
0.479846
0.478419
0.477201
0.476105
0.475164
0.474302
0.473557
0.472866
0.472274
0.471713
0.471231
0.47077
0.470381
0.47
0.469673
0.469358
0.469099
0.468838
0.46862
0.468403
0.468233
0.468044
0.467895
0.467744
0.467628
0.467509
0.467426
0.467315
0.467237
0.467163
0.467114
0.46703
0.46699
0.466957
0.466929
0.466854
0.466883
0.466882
0.466875
0.466892
0.466884
0.466953
0.467066
0.46712
0.467268
0.467302
0.467302
0.467386
0.467491
0.467653
0.467811
0.467918
0.468039
0.468212
0.468378
0.468547
0.468763
0.468945
0.469164
0.469359
0.469609
0.469817
0.470142
0.470364
0.470753
0.471007
0.471461
0.471744
0.472289
0.472612
0.473275
0.473663
0.474477
0.474959
0.476019
0.476569
0.478526
0.478559
0.493487
5.65745
487.141
0.755255
0.652138
0.594477
0.560156
0.538031
0.522858
0.511899
0.503725
0.497404
0.492443
0.488424
0.485161
0.482426
0.480146
0.478187
0.476532
0.475075
0.473832
0.472713
0.471752
0.470872
0.470111
0.469405
0.4688
0.468227
0.467734
0.467263
0.466865
0.466476
0.466142
0.46582
0.465554
0.465286
0.465063
0.46484
0.464666
0.464473
0.46432
0.464165
0.464045
0.463922
0.463836
0.463723
0.463642
0.463565
0.463515
0.463429
0.463386
0.463351
0.463322
0.463245
0.46327
0.463269
0.463261
0.463275
0.463265
0.463333
0.463444
0.463495
0.46364
0.463675
0.463675
0.463759
0.463862
0.464021
0.464178
0.464286
0.464406
0.464577
0.464742
0.464909
0.465124
0.465304
0.465523
0.465715
0.465966
0.46617
0.466494
0.466713
0.4671
0.467351
0.467803
0.468083
0.468625
0.468945
0.469602
0.469986
0.470792
0.471269
0.472318
0.472859
0.474801
0.47481
0.490106
5.77201
477.765
0.755287
0.651536
0.593194
0.558343
0.535828
0.52037
0.509197
0.500859
0.494408
0.489344
0.485241
0.481909
0.479117
0.476789
0.474788
0.473098
0.471609
0.470338
0.469196
0.468214
0.467315
0.466537
0.465816
0.465198
0.464612
0.464108
0.463626
0.463219
0.462821
0.462479
0.462149
0.461877
0.461602
0.461374
0.461145
0.460965
0.460768
0.460611
0.460451
0.460328
0.460201
0.460112
0.459996
0.459912
0.459832
0.45978
0.459692
0.459647
0.45961
0.459579
0.459501
0.459521
0.459521
0.459511
0.459523
0.459511
0.459577
0.459685
0.459732
0.459876
0.459911
0.459911
0.459995
0.460096
0.460251
0.460409
0.460517
0.460637
0.460804
0.460969
0.461134
0.461346
0.461525
0.461744
0.461934
0.462184
0.462385
0.462707
0.462924
0.463308
0.463557
0.464006
0.464283
0.464821
0.465137
0.465788
0.466169
0.466966
0.467437
0.468476
0.469008
0.470932
0.470919
0.486566
5.86726
467.424
0.755324
0.650926
0.591882
0.55648
0.533562
0.517806
0.506409
0.497899
0.491313
0.486141
0.48195
0.478546
0.475693
0.473314
0.47127
0.469542
0.468022
0.466722
0.465554
0.46455
0.463632
0.462837
0.4621
0.461467
0.460868
0.460352
0.45986
0.459443
0.459035
0.458685
0.458347
0.458068
0.457787
0.457552
0.457317
0.457132
0.456931
0.456769
0.456605
0.456477
0.456347
0.456254
0.456135
0.456048
0.455965
0.45591
0.455821
0.455774
0.455734
0.455702
0.455621
0.455638
0.455637
0.455626
0.455635
0.455621
0.455685
0.45579
0.455834
0.455975
0.456011
0.456011
0.456095
0.456194
0.456346
0.456502
0.456611
0.45673
0.456894
0.457059
0.457221
0.457432
0.457609
0.457827
0.458015
0.458264
0.458463
0.458783
0.458997
0.459378
0.459624
0.46007
0.460344
0.460878
0.461191
0.461835
0.462212
0.463
0.463466
0.464493
0.465016
0.466922
0.466887
0.48286
5.93955
456.095
0.755365
0.650309
0.590543
0.554571
0.531232
0.515166
0.503536
0.494846
0.488119
0.482834
0.478552
0.475072
0.472156
0.469725
0.467635
0.465868
0.464313
0.462984
0.46179
0.460763
0.459824
0.459011
0.458257
0.457609
0.456997
0.456469
0.455965
0.455537
0.45512
0.454761
0.454415
0.454128
0.45384
0.453599
0.453358
0.453168
0.452961
0.452795
0.452626
0.452494
0.452359
0.452263
0.452141
0.452051
0.451965
0.451908
0.451817
0.451767
0.451724
0.45169
0.451609
0.451621
0.451619
0.451607
0.451613
0.451596
0.451659
0.451761
0.4518
0.45194
0.451976
0.451976
0.452059
0.452156
0.452305
0.45246
0.452569
0.452687
0.452848
0.453012
0.453172
0.453381
0.453557
0.453773
0.453959
0.454208
0.454403
0.454721
0.454932
0.455311
0.455554
0.455997
0.456267
0.456796
0.457106
0.457744
0.458117
0.458896
0.459355
0.460371
0.460884
0.462771
0.462715
0.478985
5.98526
443.753
0.75541
0.649687
0.589179
0.552617
0.528842
0.512453
0.50058
0.491703
0.484829
0.479427
0.475049
0.47149
0.468508
0.466021
0.463884
0.462076
0.460486
0.459126
0.457905
0.456853
0.455892
0.45506
0.454289
0.453625
0.452999
0.452458
0.451942
0.451504
0.451077
0.450709
0.450354
0.450059
0.449764
0.449517
0.449269
0.449073
0.448861
0.448689
0.448516
0.44838
0.44824
0.44814
0.448015
0.447922
0.447832
0.447772
0.447679
0.447627
0.447581
0.447546
0.447463
0.447471
0.447468
0.447455
0.447458
0.447438
0.447499
0.447598
0.447633
0.44777
0.447806
0.447806
0.447889
0.447984
0.448129
0.448283
0.448393
0.44851
0.448668
0.448831
0.448987
0.449195
0.449369
0.449584
0.449768
0.450015
0.450207
0.450523
0.450732
0.451107
0.451347
0.451786
0.452053
0.452578
0.452884
0.453515
0.453883
0.454653
0.455106
0.456109
0.456613
0.45848
0.458404
0.474935
6.00105
430.38
0.755461
0.649062
0.587793
0.550622
0.526394
0.50967
0.497543
0.488471
0.481444
0.475919
0.471442
0.467801
0.46475
0.462205
0.460018
0.458168
0.456541
0.455149