/*--------------------------------*- C++ -*----------------------------------*\
| =========                 |                                                 |
| \\      /  F ield         | OpenFOAM: The Open Source CFD Toolbox           |
|  \\    /   O peration     | Version:  v2012                                 |
|   \\  /    A nd           | Website:  www.openfoam.com                      |
|    \\/     M anipulation  |                                                 |
\*---------------------------------------------------------------------------*/
FoamFile
{
    version     2.0;
    format      ascii;
    class       volScalarField;
    location    "23";
    object      k;
}
// * * * * * * * * * * * * * * * * * * * * * * * * * * * * * * * * * * * * * //

dimensions      [0 2 -2 0 0 0 0];


internalField   nonuniform List<scalar> 
209825
(
0.00102205
0.000929109
0.000862569
0.000816057
0.000782639
0.000757828
0.000738634
0.000723482
0.000711103
0.000700946
0.000692334
0.000685086
0.000678781
0.000673375
0.000668568
0.000664419
0.000660659
0.000657395
0.000654385
0.000651761
0.000649308
0.000647165
0.000645129
0.000643364
0.000641666
0.000640195
0.000638759
0.000637525
0.00063632
0.000635264
0.000634228
0.000633351
0.000632474
0.000631731
0.00063098
0.000630336
0.000629673
0.000629126
0.000628555
0.000628088
0.000627601
0.000627196
0.000626764
0.000626413
0.000626043
0.000625747
0.000625422
0.000625183
0.000624899
0.000624692
0.000624464
0.000624288
0.000624074
0.000623941
0.000623784
0.000623661
0.000623527
0.000623454
0.00062334
0.000623245
0.000623183
0.000623124
0.000622953
0.000622977
0.000622977
0.000622972
0.00062303
0.000623144
0.000623233
0.000623401
0.000623563
0.000623764
0.000623894
0.000624111
0.000624247
0.000624518
0.000624687
0.000625046
0.000625259
0.000625685
0.000625917
0.000626401
0.000626675
0.000627249
0.000627585
0.00062829
0.000628698
0.00062955
0.00063004
0.000631109
0.000631676
0.000633403
0.000633781
0.000641347
0.0105718
0.0112246
0.00102205
0.000929109
0.000862567
0.000816052
0.00078263
0.000757817
0.000738621
0.000723467
0.000711086
0.000700928
0.000692315
0.000685066
0.00067876
0.000673354
0.000668546
0.000664396
0.000660636
0.000657371
0.00065436
0.000651736
0.000649283
0.00064714
0.000645103
0.000643338
0.00064164
0.000640169
0.000638732
0.000637498
0.000636294
0.000635237
0.0006342
0.000633324
0.000632446
0.000631704
0.000630952
0.000630308
0.000629645
0.000629098
0.000628527
0.00062806
0.000627572
0.000627168
0.000626736
0.000626384
0.000626015
0.000625718
0.000625393
0.000625155
0.000624871
0.000624663
0.000624435
0.000624259
0.000624045
0.000623912
0.000623755
0.000623632
0.000623498
0.000623425
0.000623311
0.000623216
0.000623154
0.000623095
0.000622923
0.000622948
0.000622948
0.000622943
0.000623001
0.000623114
0.000623203
0.000623371
0.000623534
0.000623734
0.000623864
0.000624081
0.000624218
0.000624488
0.000624658
0.000625017
0.000625229
0.000625656
0.000625887
0.000626371
0.000626645
0.000627219
0.000627555
0.00062826
0.000628669
0.00062952
0.00063001
0.000631079
0.000631646
0.000633373
0.00063375
0.000641328
0.0105807
0.0112365
0.00102205
0.000929107
0.000862553
0.000816024
0.00078259
0.000757767
0.000738562
0.000723401
0.000711014
0.00070085
0.000692234
0.00068498
0.000678671
0.000673262
0.000668452
0.0006643
0.000660538
0.000657271
0.000654259
0.000651634
0.000649179
0.000647034
0.000644997
0.00064323
0.000641532
0.00064006
0.000638622
0.000637387
0.000636182
0.000635125
0.000634088
0.00063321
0.000632333
0.000631589
0.000630838
0.000630193
0.000629529
0.000628982
0.00062841
0.000627943
0.000627455
0.000627051
0.000626618
0.000626266
0.000625897
0.0006256
0.000625275
0.000625036
0.000624752
0.000624544
0.000624316
0.00062414
0.000623925
0.000623793
0.000623635
0.000623512
0.000623378
0.000623305
0.000623191
0.000623096
0.000623034
0.000622975
0.000622803
0.000622827
0.000622827
0.000622822
0.00062288
0.000622993
0.000623082
0.00062325
0.000623412
0.000623613
0.000623742
0.000623959
0.000624096
0.000624367
0.000624536
0.000624894
0.000625107
0.000625533
0.000625764
0.000626248
0.000626523
0.000627096
0.000627432
0.000628137
0.000628545
0.000629397
0.000629886
0.000630955
0.000631522
0.000633248
0.000633623
0.000641224
0.0105992
0.0112623
0.00102206
0.000929105
0.00086253
0.000815977
0.000782522
0.000757681
0.000738461
0.000723288
0.000710892
0.00070072
0.000692096
0.000684836
0.000678522
0.000673108
0.000668294
0.000664138
0.000660372
0.000657103
0.000654088
0.00065146
0.000649003
0.000646857
0.000644817
0.00064305
0.000641349
0.000639876
0.000638437
0.000637201
0.000635995
0.000634936
0.000633898
0.00063302
0.000632141
0.000631397
0.000630645
0.000629999
0.000629335
0.000628787
0.000628215
0.000627747
0.000627259
0.000626854
0.000626421
0.000626069
0.000625699
0.000625401
0.000625076
0.000624837
0.000624552
0.000624344
0.000624116
0.000623939
0.000623725
0.000623592
0.000623434
0.000623311
0.000623176
0.000623103
0.000622989
0.000622894
0.000622832
0.000622773
0.000622601
0.000622625
0.000622624
0.000622619
0.000622677
0.00062279
0.000622878
0.000623046
0.000623208
0.000623408
0.000623538
0.000623755
0.000623891
0.000624162
0.000624331
0.000624689
0.000624901
0.000625327
0.000625558
0.000626042
0.000626316
0.000626889
0.000627225
0.000627929
0.000628337
0.000629188
0.000629677
0.000630745
0.000631312
0.000633038
0.00063341
0.000641046
0.010628
0.0113026
0.00102206
0.000929102
0.000862497
0.00081591
0.000782425
0.000757559
0.00073832
0.00072313
0.000710719
0.000700535
0.000691901
0.000684633
0.000678311
0.00067289
0.00066807
0.000663909
0.000660139
0.000656865
0.000653847
0.000651216
0.000648756
0.000646607
0.000644565
0.000642794
0.000641092
0.000639617
0.000638176
0.000636938
0.00063573
0.00063467
0.000633631
0.000632751
0.000631871
0.000631126
0.000630373
0.000629726
0.000629061
0.000628512
0.000627939
0.000627471
0.000626982
0.000626576
0.000626142
0.000625789
0.000625419
0.000625121
0.000624795
0.000624555
0.00062427
0.000624062
0.000623833
0.000623657
0.000623441
0.000623308
0.00062315
0.000623027
0.000622892
0.000622819
0.000622704
0.000622609
0.000622546
0.000622487
0.000622316
0.000622339
0.000622338
0.000622333
0.000622389
0.000622503
0.00062259
0.000622758
0.000622919
0.00062312
0.000623249
0.000623466
0.000623602
0.000623872
0.000624041
0.000624399
0.000624611
0.000625037
0.000625268
0.000625751
0.000626025
0.000626597
0.000626933
0.000627636
0.000628044
0.000628894
0.000629383
0.00063045
0.000631015
0.000632741
0.000633109
0.000640794
0.0106678
0.0113582
0.00102207
0.000929097
0.000862454
0.000815824
0.0007823
0.000757402
0.000738136
0.000722924
0.000710495
0.000700296
0.000691648
0.000684369
0.000678038
0.000672609
0.000667781
0.000663613
0.000659837
0.000656558
0.000653535
0.000650899
0.000648435
0.000646282
0.000644237
0.000642464
0.000640759
0.000639281
0.000637837
0.000636597
0.000635387
0.000634326
0.000633284
0.000632403
0.000631521
0.000630775
0.00063002
0.000629372
0.000628706
0.000628156
0.000627582
0.000627113
0.000626622
0.000626216
0.000625781
0.000625428
0.000625056
0.000624758
0.000624431
0.000624191
0.000623905
0.000623696
0.000623467
0.00062329
0.000623074
0.000622941
0.000622782
0.000622659
0.000622523
0.00062245
0.000622335
0.00062224
0.000622177
0.000622117
0.000621946
0.000621968
0.000621968
0.000621962
0.000622017
0.00062213
0.000622218
0.000622385
0.000622546
0.000622746
0.000622875
0.000623092
0.000623228
0.000623497
0.000623666
0.000624023
0.000624235
0.00062466
0.000624891
0.000625374
0.000625647
0.000626219
0.000626554
0.000627256
0.000627664
0.000628513
0.000629001
0.000630067
0.000630631
0.000632355
0.000632718
0.000640466
0.0107194
0.0114298
0.00102208
0.000929092
0.000862401
0.000815718
0.000782147
0.000757209
0.00073791
0.000722671
0.000710219
0.000700001
0.000691338
0.000684045
0.000677701
0.000672261
0.000667424
0.000663248
0.000659465
0.000656179
0.00065315
0.000650509
0.00064804
0.000645883
0.000643833
0.000642056
0.000640348
0.000638867
0.00063742
0.000636178
0.000634965
0.000633901
0.000632857
0.000631974
0.00063109
0.000630342
0.000629585
0.000628936
0.000628268
0.000627717
0.000627141
0.000626671
0.00062618
0.000625772
0.000625337
0.000624982
0.00062461
0.00062431
0.000623982
0.000623742
0.000623456
0.000623246
0.000623016
0.000622838
0.000622622
0.000622488
0.000622329
0.000622205
0.000622069
0.000621995
0.00062188
0.000621784
0.000621721
0.000621662
0.00062149
0.000621511
0.000621511
0.000621505
0.000621559
0.000621671
0.000621758
0.000621924
0.000622085
0.000622285
0.000622414
0.000622631
0.000622766
0.000623035
0.000623203
0.00062356
0.000623771
0.000624196
0.000624426
0.000624908
0.000625182
0.000625752
0.000626087
0.000626788
0.000627195
0.000628043
0.00062853
0.000629594
0.000630158
0.000631881
0.000632237
0.000640062
0.0107834
0.0115184
0.00102209
0.000929086
0.000862339
0.000815593
0.000781965
0.000756979
0.000737641
0.00072237
0.000709892
0.000699651
0.000690968
0.000683658
0.0006773
0.000671848
0.000667
0.000662814
0.000659021
0.000655728
0.000652691
0.000650044
0.000647569
0.000645407
0.000643352
0.000641571
0.000639858
0.000638373
0.000636923
0.000635677
0.000634462
0.000633395
0.000632349
0.000631463
0.000630577
0.000629826
0.000629067
0.000628416
0.000627747
0.000627194
0.000626617
0.000626145
0.000625652
0.000625243
0.000624806
0.000624451
0.000624077
0.000623777
0.000623448
0.000623207
0.000622919
0.000622709
0.000622478
0.0006223
0.000622083
0.000621948
0.000621788
0.000621665
0.000621528
0.000621453
0.000621338
0.000621242
0.000621178
0.000621118
0.000620947
0.000620966
0.000620966
0.00062096
0.000621012
0.000621125
0.00062121
0.000621376
0.000621536
0.000621736
0.000621865
0.000622081
0.000622216
0.000622485
0.000622652
0.000623007
0.000623218
0.000623642
0.000623872
0.000624354
0.000624627
0.000625196
0.00062553
0.00062623
0.000626636
0.000627483
0.000627969
0.000629031
0.000629593
0.000631315
0.000631663
0.000639582
0.0108604
0.0116244
0.00102211
0.000929079
0.000862268
0.000815448
0.000781753
0.000756712
0.000737329
0.000722021
0.000709511
0.000699244
0.000690538
0.000683209
0.000676834
0.000671367
0.000666506
0.000662309
0.000658506
0.000655203
0.000652158
0.000649504
0.000647022
0.000644853
0.000642793
0.000641006
0.000639289
0.000637799
0.000636345
0.000635095
0.000633876
0.000632806
0.000631757
0.000630868
0.000629979
0.000629226
0.000628465
0.000627812
0.00062714
0.000626585
0.000626006
0.000625532
0.000625038
0.000624627
0.000624189
0.000623833
0.000623458
0.000623156
0.000622826
0.000622584
0.000622295
0.000622084
0.000621852
0.000621674
0.000621456
0.00062132
0.000621159
0.000621035
0.000620897
0.000620823
0.000620707
0.000620611
0.000620546
0.000620486
0.000620315
0.000620333
0.000620333
0.000620326
0.000620376
0.000620488
0.000620573
0.000620738
0.000620897
0.000621097
0.000621225
0.000621441
0.000621575
0.000621843
0.00062201
0.000622365
0.000622575
0.000622998
0.000623228
0.000623708
0.000623981
0.000624549
0.000624882
0.000625581
0.000625986
0.000626831
0.000627316
0.000628376
0.000628936
0.000630656
0.000630995
0.000639023
0.0109509
0.0117485
0.00102213
0.000929071
0.000862186
0.000815283
0.000781513
0.000756409
0.000736974
0.000721622
0.000709077
0.000698779
0.000690048
0.000682697
0.000676302
0.000670819
0.000665942
0.000661732
0.000657917
0.000654604
0.000651549
0.000648886
0.000646396
0.000644221
0.000642154
0.000640361
0.000638638
0.000637144
0.000635685
0.00063443
0.000633207
0.000632134
0.00063108
0.000630188
0.000629296
0.00062854
0.000627776
0.000627121
0.000626447
0.00062589
0.000625308
0.000624833
0.000624336
0.000623924
0.000623484
0.000623126
0.000622749
0.000622447
0.000622115
0.000621872
0.000621582
0.00062137
0.000621137
0.000620957
0.000620739
0.000620602
0.000620441
0.000620316
0.000620177
0.000620102
0.000619986
0.000619889
0.000619823
0.000619763
0.000619593
0.000619609
0.000619608
0.000619601
0.000619649
0.00061976
0.000619844
0.000620008
0.000620166
0.000620366
0.000620494
0.000620709
0.000620843
0.00062111
0.000621276
0.00062163
0.000621839
0.000622261
0.000622491
0.00062297
0.000623242
0.000623809
0.000624141
0.000624838
0.000625242
0.000626085
0.000626569
0.000627626
0.000628184
0.000629902
0.000630232
0.000638386
0.0110552
0.0118914
0.00102214
0.000929063
0.000862096
0.000815098
0.000781243
0.000756068
0.000736574
0.000721174
0.000708588
0.000698256
0.000689496
0.00068212
0.000675703
0.000670201
0.000665308
0.000661082
0.000657254
0.000653929
0.000650863
0.00064819
0.000645692
0.000643508
0.000641434
0.000639634
0.000637905
0.000636405
0.000634941
0.000633681
0.000632453
0.000631376
0.000630318
0.000629422
0.000628527
0.000627768
0.000627
0.000626342
0.000625665
0.000625106
0.000624522
0.000624044
0.000623545
0.000623131
0.00062269
0.00062233
0.000621951
0.000621647
0.000621314
0.000621069
0.000620778
0.000620565
0.00062033
0.00062015
0.00061993
0.000619793
0.00061963
0.000619505
0.000619365
0.000619289
0.000619172
0.000619075
0.000619008
0.000618948
0.000618778
0.000618792
0.000618792
0.000618783
0.000618829
0.00061894
0.000619022
0.000619186
0.000619343
0.000619542
0.000619669
0.000619884
0.000620018
0.000620284
0.000620449
0.000620801
0.00062101
0.000621431
0.00062166
0.000622138
0.000622409
0.000622975
0.000623306
0.000624001
0.000624404
0.000625244
0.000625727
0.000626782
0.000627337
0.000629053
0.000629372
0.000637669
0.0111735
0.0120535
0.00102217
0.000929055
0.000861997
0.000814894
0.000780945
0.00075569
0.000736131
0.000720677
0.000708045
0.000697675
0.000688882
0.000681478
0.000675037
0.000669513
0.000664601
0.000660359
0.000656516
0.000653177
0.0006501
0.000647416
0.000644907
0.000642714
0.000640632
0.000638825
0.000637088
0.000635582
0.000634111
0.000632847
0.000631613
0.000630531
0.000629469
0.000628569
0.000627669
0.000626906
0.000626135
0.000625474
0.000624794
0.000624232
0.000623645
0.000623165
0.000622663
0.000622248
0.000621804
0.000621442
0.000621061
0.000620756
0.000620421
0.000620175
0.000619882
0.000619667
0.000619431
0.00061925
0.000619029
0.000618891
0.000618727
0.000618601
0.00061846
0.000618383
0.000618266
0.000618168
0.0006181
0.00061804
0.00061787
0.000617882
0.000617881
0.000617872
0.000617915
0.000618026
0.000618106
0.000618268
0.000618425
0.000618624
0.00061875
0.000618965
0.000619097
0.000619363
0.000619527
0.000619877
0.000620085
0.000620505
0.000620734
0.00062121
0.000621481
0.000622045
0.000622375
0.000623067
0.000623469
0.000624307
0.000624788
0.00062584
0.000626393
0.000628106
0.000628412
0.00063687
0.0113059
0.0122353
0.00102219
0.000929046
0.000861888
0.000814671
0.000780617
0.000755275
0.000735643
0.000720129
0.000707447
0.000697035
0.000688206
0.00068077
0.000674302
0.000668755
0.000663822
0.000659561
0.000655701
0.000652348
0.000649257
0.000646561
0.000644041
0.000641839
0.000639747
0.000637931
0.000636187
0.000634673
0.000633196
0.000631925
0.000630686
0.000629599
0.000628531
0.000627626
0.000626722
0.000625955
0.000625181
0.000624516
0.000623832
0.000623267
0.000622677
0.000622194
0.00062169
0.000621272
0.000620826
0.000620462
0.000620079
0.000619772
0.000619435
0.000619187
0.000618893
0.000618676
0.000618439
0.000618257
0.000618034
0.000617894
0.000617729
0.000617603
0.00061746
0.000617382
0.000617265
0.000617166
0.000617097
0.000617037
0.000616868
0.000616877
0.000616876
0.000616866
0.000616905
0.000617015
0.000617095
0.000617256
0.00061741
0.00061761
0.000617735
0.000617949
0.00061808
0.000618345
0.000618508
0.000618857
0.000619064
0.000619483
0.00061971
0.000620185
0.000620455
0.000621017
0.000621346
0.000622036
0.000622437
0.000623271
0.000623751
0.000624799
0.000625349
0.00062706
0.000627353
0.00063599
0.0114522
0.0124372
0.00102221
0.000929037
0.000861771
0.000814428
0.00078026
0.000754822
0.00073511
0.00071953
0.000706794
0.000696335
0.000687466
0.000679996
0.000673499
0.000667925
0.000662969
0.000658688
0.00065481
0.00065144
0.000648334
0.000645625
0.000643093
0.000640879
0.000638777
0.000636952
0.000635199
0.000633678
0.000632193
0.000630916
0.00062967
0.000628577
0.000627504
0.000626594
0.000625685
0.000624914
0.000624134
0.000623466
0.000622778
0.00062221
0.000621617
0.000621131
0.000620623
0.000620203
0.000619754
0.000619388
0.000619002
0.000618693
0.000618354
0.000618104
0.000617808
0.00061759
0.000617351
0.000617168
0.000616944
0.000616802
0.000616636
0.000616508
0.000616365
0.000616286
0.000616167
0.000616068
0.000615998
0.000615937
0.000615769
0.000615776
0.000615774
0.000615763
0.000615799
0.000615908
0.000615986
0.000616145
0.000616299
0.000616497
0.000616622
0.000616835
0.000616966
0.000617229
0.000617391
0.000617738
0.000617945
0.000618361
0.000618589
0.000619062
0.000619331
0.000619891
0.000620218
0.000620905
0.000621305
0.000622136
0.000622614
0.000623658
0.000624205
0.000625914
0.000626191
0.000635026
0.0116121
0.0126596
0.00102224
0.000929028
0.000861645
0.000814166
0.000779874
0.000754331
0.000734533
0.000718881
0.000706084
0.000695575
0.000686662
0.000679155
0.000672625
0.000667023
0.000662042
0.000657738
0.00065384
0.000650452
0.00064733
0.000644607
0.000642061
0.000639836
0.000637722
0.000635888
0.000634125
0.000632595
0.000631102
0.000629817
0.000628564
0.000627465
0.000626386
0.00062547
0.000624556
0.00062378
0.000622996
0.000622323
0.000621631
0.000621059
0.000620462
0.000619973
0.000619462
0.000619039
0.000618587
0.000618218
0.00061783
0.000617519
0.000617177
0.000616925
0.000616628
0.000616408
0.000616166
0.000615982
0.000615756
0.000615613
0.000615445
0.000615317
0.000615172
0.000615092
0.000614972
0.000614873
0.000614801
0.00061474
0.000614572
0.000614577
0.000614574
0.000614562
0.000614594
0.000614703
0.000614778
0.000614936
0.000615088
0.000615286
0.00061541
0.000615622
0.000615752
0.000616014
0.000616175
0.00061652
0.000616725
0.000617141
0.000617367
0.000617838
0.000618106
0.000618664
0.00061899
0.000619674
0.000620072
0.0006209
0.000621375
0.000622416
0.000622959
0.000624665
0.000624927
0.000633978
0.0117848
0.0129027
0.00102227
0.000929019
0.00086151
0.000813885
0.000779459
0.000753802
0.00073391
0.000718181
0.000705319
0.000694754
0.000685795
0.000678247
0.000671681
0.000666048
0.00066104
0.000656712
0.000652792
0.000649385
0.000646245
0.000643505
0.000640945
0.000638707
0.000636581
0.000634735
0.000632962
0.000631423
0.000629922
0.000628628
0.000627368
0.000626262
0.000625176
0.000624254
0.000623334
0.000622552
0.000621763
0.000621086
0.00062039
0.000619814
0.000619212
0.00061872
0.000618205
0.000617779
0.000617324
0.000616952
0.000616561
0.000616248
0.000615903
0.000615649
0.000615349
0.000615127
0.000614884
0.000614698
0.000614471
0.000614326
0.000614156
0.000614027
0.00061388
0.000613799
0.000613679
0.000613578
0.000613504
0.000613443
0.000613277
0.000613279
0.000613275
0.000613262
0.000613289
0.000613397
0.00061347
0.000613627
0.000613777
0.000613975
0.000614098
0.000614309
0.000614438
0.000614699
0.000614858
0.000615201
0.000615405
0.000615818
0.000616044
0.000616513
0.00061678
0.000617335
0.00061766
0.00061834
0.000618737
0.000619561
0.000620034
0.00062107
0.00062161
0.000623313
0.000623557
0.000632843
0.0119694
0.0131666
0.0010223
0.000929011
0.000861368
0.000813585
0.000779015
0.000753237
0.000733243
0.000717429
0.000704497
0.000693872
0.000684862
0.00067727
0.000670666
0.000665
0.000659962
0.000655607
0.000651664
0.000648236
0.000645077
0.00064232
0.000639744
0.000637492
0.000635353
0.000633495
0.000631711
0.000630161
0.000628651
0.000627348
0.00062608
0.000624967
0.000623873
0.000622945
0.000622018
0.00062123
0.000620436
0.000619754
0.000619053
0.000618472
0.000617866
0.00061737
0.000616851
0.000616421
0.000615963
0.000615589
0.000615195
0.000614878
0.000614531
0.000614275
0.000613972
0.000613748
0.000613502
0.000613315
0.000613085
0.000612939
0.000612768
0.000612637
0.000612489
0.000612406
0.000612285
0.000612183
0.000612108
0.000612046
0.000611881
0.00061188
0.000611876
0.000611861
0.000611883
0.000611991
0.000612061
0.000612216
0.000612365
0.000612562
0.000612683
0.000612894
0.000613022
0.000613281
0.000613439
0.000613779
0.000613982
0.000614393
0.000614618
0.000615085
0.000615351
0.000615903
0.000616226
0.000616903
0.000617298
0.000618118
0.000618589
0.00061962
0.000620156
0.000621855
0.000622082
0.000631619
0.0121645
0.0134513
0.00102233
0.000929003
0.000861218
0.000813267
0.000778543
0.000752633
0.000732531
0.000716627
0.000703618
0.000692929
0.000683864
0.000676225
0.00066958
0.000663877
0.000658807
0.000654425
0.000650456
0.000647005
0.000643825
0.00064105
0.000638457
0.000636189
0.000634037
0.000632166
0.000630369
0.000628809
0.000627288
0.000625976
0.000624699
0.000623578
0.000622476
0.000621541
0.000620607
0.000619813
0.000619012
0.000618325
0.000617619
0.000617033
0.000616423
0.000615922
0.000615399
0.000614966
0.000614504
0.000614126
0.000613729
0.00061341
0.000613059
0.0006128
0.000612495
0.000612269
0.00061202
0.000611831
0.0006116
0.000611452
0.000611278
0.000611146
0.000610996
0.000610911
0.000610789
0.000610687
0.000610609
0.000610548
0.000610384
0.00061038
0.000610374
0.000610358
0.000610375
0.000610481
0.000610549
0.000610703
0.000610849
0.000611046
0.000611166
0.000611376
0.000611502
0.000611759
0.000611916
0.000612254
0.000612455
0.000612864
0.000613088
0.000613553
0.000613817
0.000614366
0.000614688
0.000615361
0.000615753
0.000616569
0.000617038
0.000618064
0.000618596
0.000620291
0.000620499
0.000630306
0.0123684
0.0137567
0.00102237
0.000928995
0.000861061
0.000812932
0.000778042
0.000751993
0.000731774
0.000715773
0.000702683
0.000691925
0.000682801
0.000675111
0.000668421
0.00066268
0.000657576
0.000653163
0.000649167
0.000645691
0.00064249
0.000639694
0.000637083
0.000634799
0.000632631
0.000630746
0.000628937
0.000627365
0.000625833
0.000624511
0.000623224
0.000622094
0.000620984
0.000620041
0.000619099
0.000618299
0.000617492
0.000616799
0.000616087
0.000615496
0.000614881
0.000614375
0.000613848
0.000613411
0.000612944
0.000612564
0.000612162
0.00061184
0.000611486
0.000611225
0.000610917
0.000610688
0.000610437
0.000610246
0.000610012
0.000609862
0.000609686
0.000609553
0.0006094
0.000609314
0.000609191
0.000609088
0.000609008
0.000608946
0.000608784
0.000608776
0.000608769
0.000608752
0.000608764
0.000608868
0.000608934
0.000609085
0.00060923
0.000609425
0.000609544
0.000609753
0.000609877
0.000610133
0.000610289
0.000610623
0.000610823
0.00061123
0.000611452
0.000611915
0.000612178
0.000612724
0.000613044
0.000613713
0.000614103
0.000614914
0.00061538
0.000616401
0.000616928
0.000618618
0.000618807
0.000628901
0.012579
0.0140823
0.0010224
0.000928988
0.000860896
0.000812578
0.000777514
0.000751315
0.000730972
0.000714867
0.000701691
0.000690859
0.000681672
0.000673928
0.000667191
0.000661408
0.000656267
0.000651821
0.000647796
0.000644294
0.000641069
0.000638253
0.000635622
0.00063332
0.000631136
0.000629236
0.000627413
0.000625828
0.000624284
0.000622952
0.000621654
0.000620515
0.000619396
0.000618445
0.000617495
0.000616688
0.000615873
0.000615174
0.000614456
0.00061386
0.000613239
0.000612729
0.000612196
0.000611755
0.000611284
0.0006109
0.000610494
0.000610169
0.000609812
0.000609547
0.000609236
0.000609005
0.000608751
0.000608558
0.000608321
0.000608169
0.000607991
0.000607856
0.000607701
0.000607613
0.000607489
0.000607385
0.000607303
0.00060724
0.000607079
0.000607068
0.000607059
0.000607042
0.000607047
0.000607151
0.000607213
0.000607362
0.000607505
0.000607699
0.000607816
0.000608024
0.000608147
0.000608401
0.000608555
0.000608887
0.000609085
0.000609489
0.00060971
0.00061017
0.000610431
0.000610974
0.000611292
0.000611956
0.000612344
0.000613151
0.000613614
0.000614628
0.000615151
0.000616837
0.000617005
0.000627401
0.0127937
0.0144274
0.00102244
0.000928983
0.000860725
0.000812208
0.000776958
0.000750602
0.000730126
0.000713911
0.000700642
0.000689732
0.000680478
0.000672675
0.000665887
0.000660061
0.00065488
0.0006504
0.000646343
0.000642814
0.000639563
0.000636724
0.000634073
0.000631752
0.00062955
0.000627635
0.000625796
0.000624198
0.000622642
0.000621297
0.000619989
0.00061884
0.000617711
0.000616751
0.000615793
0.000614978
0.000614155
0.00061345
0.000612725
0.000612124
0.000611497
0.000610981
0.000610443
0.000609998
0.000609522
0.000609134
0.000608724
0.000608396
0.000608034
0.000607766
0.000607452
0.000607218
0.000606961
0.000606765
0.000606527
0.000606372
0.000606191
0.000606055
0.000605898
0.000605808
0.000605681
0.000605577
0.000605492
0.000605429
0.000605269
0.000605255
0.000605244
0.000605226
0.000605225
0.000605327
0.000605385
0.000605533
0.000605673
0.000605866
0.000605982
0.000606188
0.00060631
0.000606561
0.000606714
0.000607042
0.000607239
0.00060764
0.00060786
0.000608317
0.000608577
0.000609116
0.000609432
0.000610091
0.000610477
0.000611278
0.000611738
0.000612746
0.000613263
0.000614944
0.000615092
0.000625805
0.0130094
0.0147912
0.00102248
0.000928978
0.000860548
0.000811821
0.000776375
0.000749851
0.000729236
0.000712904
0.000699536
0.000688543
0.000679217
0.000671353
0.000664511
0.000658638
0.000653416
0.000648898
0.000644808
0.000641249
0.000637972
0.000635108
0.000632434
0.000630094
0.000627873
0.000625941
0.000624087
0.000622474
0.000620904
0.000619547
0.000618227
0.000617068
0.000615929
0.000614959
0.000613991
0.000613168
0.000612338
0.000611626
0.000610894
0.000610286
0.000609653
0.000609132
0.000608588
0.000608138
0.000607657
0.000607265
0.000606851
0.000606519
0.000606153
0.000605882
0.000605564
0.000605327
0.000605066
0.000604868
0.000604627
0.000604469
0.000604286
0.000604148
0.000603988
0.000603896
0.000603768
0.000603662
0.000603575
0.000603512
0.000603353
0.000603335
0.000603322
0.000603304
0.000603295
0.000603396
0.000603451
0.000603596
0.000603733
0.000603926
0.000604039
0.000604244
0.000604364
0.000604614
0.000604764
0.000605089
0.000605284
0.000605682
0.000605901
0.000606354
0.000606613
0.000607148
0.000607461
0.000608116
0.000608499
0.000609294
0.000609751
0.000610753
0.000611265
0.00061294
0.000613066
0.00062411
0.0132226
0.0151722
0.00102252
0.000928975
0.000860365
0.000811418
0.000775766
0.000749065
0.000728302
0.000711846
0.000698374
0.000687292
0.000677891
0.000669961
0.000663062
0.000657139
0.000651872
0.000647316
0.00064319
0.000639599
0.000636293
0.000633404
0.000630707
0.000628345
0.000626104
0.000624154
0.000622283
0.000620656
0.000619071
0.000617701
0.000616368
0.000615198
0.000614048
0.000613068
0.000612091
0.000611259
0.00061042
0.000609701
0.000608961
0.000608346
0.000607706
0.000607179
0.00060663
0.000606174
0.000605689
0.000605292
0.000604873
0.000604537
0.000604167
0.000603892
0.00060357
0.00060333
0.000603065
0.000602865
0.000602621
0.00060246
0.000602274
0.000602134
0.000601972
0.000601878
0.000601748
0.000601641
0.000601551
0.000601487
0.000601329
0.000601307
0.000601293
0.000601273
0.000601258
0.000601356
0.000601408
0.000601551
0.000601685
0.000601876
0.000601988
0.000602191
0.000602309
0.000602556
0.000602705
0.000603027
0.00060322
0.000603614
0.000603832
0.000604281
0.000604538
0.000605069
0.00060538
0.00060603
0.00060641
0.000607199
0.000607652
0.000608648
0.000609154
0.000610822
0.000610927
0.000622312
0.0134294
0.0155686
0.00102257
0.000928974
0.000860176
0.000811
0.000775131
0.000748244
0.000727324
0.000710738
0.000697156
0.00068598
0.000676499
0.0006685
0.00066154
0.000655564
0.00065025
0.000645652
0.000641489
0.000637865
0.000634528
0.000631612
0.000628889
0.000626505
0.000624243
0.000622274
0.000620385
0.000618742
0.000617142
0.000615758
0.000614411
0.000613229
0.000612067
0.000611077
0.000610089
0.000609248
0.000608401
0.000607673
0.000606926
0.000606304
0.000605657
0.000605124
0.000604568
0.000604107
0.000603616
0.000603214
0.000602789
0.000602449
0.000602075
0.000601796
0.00060147
0.000601226
0.000600958
0.000600755
0.000600507
0.000600344
0.000600155
0.000600013
0.000599848
0.000599751
0.00059962
0.000599511
0.000599418
0.000599353
0.000599196
0.000599171
0.000599154
0.000599134
0.000599112
0.000599208
0.000599255
0.000599396
0.000599527
0.000599716
0.000599826
0.000600027
0.000600144
0.000600388
0.000600535
0.000600853
0.000601044
0.000601435
0.000601651
0.000602097
0.000602352
0.000602879
0.000603187
0.000603831
0.000604208
0.000604991
0.000605441
0.000606429
0.000606929
0.00060859
0.000608673
0.000620408
0.0136253
0.015978
0.00102261
0.000928974
0.000859983
0.000810567
0.000774471
0.000747389
0.000726304
0.00070958
0.000695881
0.000684607
0.000675041
0.000666968
0.000659945
0.000653913
0.00064855
0.000643907
0.000639705
0.000636045
0.000632676
0.000629731
0.000626982
0.000624573
0.00062229
0.0006203
0.000618393
0.000616732
0.000615116
0.000613717
0.000612356
0.000611162
0.000609988
0.000608986
0.000607987
0.000607137
0.000606279
0.000605544
0.000604788
0.000604158
0.000603504
0.000602964
0.000602401
0.000601934
0.000601437
0.000601031
0.0006006
0.000600256
0.000599876
0.000599593
0.000599263
0.000599016
0.000598743
0.000598538
0.000598286
0.00059812
0.000597927
0.000597784
0.000597615
0.000597516
0.000597382
0.000597272
0.000597176
0.000597111
0.000596954
0.000596925
0.000596906
0.000596885
0.000596856
0.000596949
0.000596992
0.00059713
0.000597258
0.000597446
0.000597553
0.000597753
0.000597867
0.000598109
0.000598254
0.000598568
0.000598757
0.000599144
0.000599358
0.0005998
0.000600053
0.000600575
0.000600881
0.000601519
0.000601893
0.000602669
0.000603115
0.000604095
0.000604589
0.000606243
0.000606304
0.000618396
0.0138053
0.0163974
0.00102266
0.000928976
0.000859786
0.000810119
0.000773787
0.000746499
0.000725241
0.000708372
0.000694551
0.000683173
0.000673518
0.000665368
0.000658277
0.000652186
0.00064677
0.000642081
0.000637837
0.00063414
0.000630737
0.000627761
0.000624984
0.00062255
0.000620243
0.000618232
0.000616305
0.000614626
0.000612993
0.000611578
0.000610202
0.000608995
0.000607808
0.000606794
0.000605784
0.000604923
0.000604055
0.000603311
0.000602546
0.000601909
0.000601246
0.000600699
0.000600129
0.000599656
0.000599153
0.000598741
0.000598305
0.000597956
0.00059757
0.000597283
0.000596949
0.000596698
0.00059642
0.000596212
0.000595957
0.000595787
0.000595591
0.000595445
0.000595273
0.000595172
0.000595036