/*--------------------------------*- C++ -*----------------------------------*\
| =========                 |                                                 |
| \\      /  F ield         | OpenFOAM: The Open Source CFD Toolbox           |
|  \\    /   O peration     | Version:  v2012                                 |
|   \\  /    A nd           | Website:  www.openfoam.com                      |
|    \\/     M anipulation  |                                                 |
\*---------------------------------------------------------------------------*/
FoamFile
{
    version     2.0;
    format      ascii;
    class       volVectorField;
    location    "49";
    object      wallShearStress;
}
// * * * * * * * * * * * * * * * * * * * * * * * * * * * * * * * * * * * * * //

dimensions      [0 2 -2 0 0 0 0];


internalField   uniform (0 0 0);

boundaryField
{
    inlet
    {
        type            calculated;
        value           uniform (0 0 0);
    }
    outlet
    {
        type            calculated;
        value           uniform (0 0 0);
    }
    topWall
    {
        type            calculated;
        value           nonuniform List<vector> 
545
(
(3.67458e-08 -2.58658e-08 0)
(3.67344e-08 -7.23568e-08 0)
(3.67144e-08 -1.20702e-07 0)
(3.66859e-08 -1.67648e-07 0)
(3.66501e-08 -2.12597e-07 0)
(3.66078e-08 -2.56125e-07 0)
(3.65595e-08 -2.98602e-07 0)
(3.65056e-08 -3.40009e-07 0)
(3.64466e-08 -3.80256e-07 0)
(3.6383e-08 -4.1934e-07 0)
(3.63151e-08 -4.57315e-07 0)
(3.62434e-08 -4.94223e-07 0)
(3.61684e-08 -5.3009e-07 0)
(3.60902e-08 -5.64937e-07 0)
(3.60093e-08 -5.98789e-07 0)
(3.5926e-08 -6.31672e-07 0)
(3.58406e-08 -6.63613e-07 0)
(3.57533e-08 -6.94636e-07 0)
(3.56645e-08 -7.24768e-07 0)
(3.55743e-08 -7.54031e-07 0)
(3.54829e-08 -7.82449e-07 0)
(3.53907e-08 -8.10047e-07 0)
(3.52977e-08 -8.36846e-07 0)
(3.52042e-08 -8.6287e-07 0)
(3.51103e-08 -8.88141e-07 0)
(3.50162e-08 -9.12679e-07 0)
(3.49221e-08 -9.36506e-07 0)
(3.4828e-08 -9.59642e-07 0)
(3.47342e-08 -9.82107e-07 0)
(3.46406e-08 -1.00392e-06 0)
(3.45475e-08 -1.0251e-06 0)
(3.44549e-08 -1.04567e-06 0)
(3.43629e-08 -1.06564e-06 0)
(3.42715e-08 -1.08504e-06 0)
(3.4181e-08 -1.10387e-06 0)
(3.40913e-08 -1.12215e-06 0)
(3.40024e-08 -1.13991e-06 0)
(3.39146e-08 -1.15716e-06 0)
(3.38277e-08 -1.1739e-06 0)
(3.37419e-08 -1.19017e-06 0)
(3.36571e-08 -1.20596e-06 0)
(3.35735e-08 -1.2213e-06 0)
(3.34911e-08 -1.2362e-06 0)
(3.34098e-08 -1.25067e-06 0)
(3.33297e-08 -1.26473e-06 0)
(3.32509e-08 -1.27838e-06 0)
(3.31733e-08 -1.29164e-06 0)
(3.30969e-08 -1.30452e-06 0)
(3.30218e-08 -1.31703e-06 0)
(3.2948e-08 -1.32919e-06 0)
(3.28754e-08 -1.341e-06 0)
(3.28041e-08 -1.35247e-06 0)
(3.27342e-08 -1.36361e-06 0)
(3.26654e-08 -1.37444e-06 0)
(3.2598e-08 -1.38496e-06 0)
(3.25319e-08 -1.39519e-06 0)
(3.2467e-08 -1.40512e-06 0)
(3.24033e-08 -1.41477e-06 0)
(3.2341e-08 -1.42415e-06 0)
(3.22798e-08 -1.43327e-06 0)
(3.22199e-08 -1.44212e-06 0)
(3.21612e-08 -1.45073e-06 0)
(3.21037e-08 -1.4591e-06 0)
(3.20475e-08 -1.46723e-06 0)
(3.19924e-08 -1.47513e-06 0)
(3.19384e-08 -1.48281e-06 0)
(3.18856e-08 -1.49028e-06 0)
(3.1834e-08 -1.49754e-06 0)
(3.17834e-08 -1.50459e-06 0)
(3.1734e-08 -1.51145e-06 0)
(3.16856e-08 -1.51812e-06 0)
(3.16387e-08 -1.52459e-06 0)
(3.1593e-08 -1.53082e-06 0)
(3.1548e-08 -1.53687e-06 0)
(3.15034e-08 -1.54285e-06 0)
(3.1459e-08 -1.5488e-06 0)
(3.14147e-08 -1.55472e-06 0)
(3.13703e-08 -1.56061e-06 0)
(3.13261e-08 -1.56646e-06 0)
(3.12818e-08 -1.57228e-06 0)
(3.12376e-08 -1.57806e-06 0)
(3.11935e-08 -1.58381e-06 0)
(3.11493e-08 -1.58952e-06 0)
(3.11053e-08 -1.5952e-06 0)
(3.10613e-08 -1.60085e-06 0)
(3.10173e-08 -1.60646e-06 0)
(3.09734e-08 -1.61204e-06 0)
(3.09295e-08 -1.61758e-06 0)
(3.08857e-08 -1.62309e-06 0)
(3.08419e-08 -1.62857e-06 0)
(3.07983e-08 -1.63402e-06 0)
(3.07546e-08 -1.63943e-06 0)
(3.0711e-08 -1.64481e-06 0)
(3.06676e-08 -1.65016e-06 0)
(3.06237e-08 -1.65548e-06 0)
(3.05821e-08 -1.66072e-06 0)
(3.05437e-08 -1.66552e-06 0)
(3.05064e-08 -1.66987e-06 0)
(3.04704e-08 -1.6741e-06 0)
(3.04347e-08 -1.67835e-06 0)
(3.03988e-08 -1.68264e-06 0)
(3.03627e-08 -1.68694e-06 0)
(3.03265e-08 -1.69124e-06 0)
(3.02901e-08 -1.69554e-06 0)
(3.02536e-08 -1.69985e-06 0)
(3.02168e-08 -1.70416e-06 0)
(3.01799e-08 -1.70848e-06 0)
(3.01428e-08 -1.7128e-06 0)
(3.01056e-08 -1.71713e-06 0)
(3.00681e-08 -1.72146e-06 0)
(3.00305e-08 -1.7258e-06 0)
(2.99927e-08 -1.73014e-06 0)
(2.99547e-08 -1.73449e-06 0)
(2.99166e-08 -1.73884e-06 0)
(2.98782e-08 -1.74319e-06 0)
(2.98397e-08 -1.74755e-06 0)
(2.9801e-08 -1.75192e-06 0)
(2.97622e-08 -1.75629e-06 0)
(2.97231e-08 -1.76066e-06 0)
(2.96839e-08 -1.76504e-06 0)
(2.96444e-08 -1.76942e-06 0)
(2.96048e-08 -1.77381e-06 0)
(2.95651e-08 -1.7782e-06 0)
(2.95251e-08 -1.7826e-06 0)
(2.94849e-08 -1.787e-06 0)
(2.94446e-08 -1.7914e-06 0)
(2.94041e-08 -1.79581e-06 0)
(2.93633e-08 -1.80023e-06 0)
(2.93224e-08 -1.80465e-06 0)
(2.92813e-08 -1.80907e-06 0)
(2.92401e-08 -1.81349e-06 0)
(2.91986e-08 -1.81792e-06 0)
(2.9157e-08 -1.82236e-06 0)
(2.91151e-08 -1.8268e-06 0)
(2.90731e-08 -1.83124e-06 0)
(2.90308e-08 -1.83569e-06 0)
(2.89884e-08 -1.84014e-06 0)
(2.89458e-08 -1.84459e-06 0)
(2.8903e-08 -1.84905e-06 0)
(2.886e-08 -1.85352e-06 0)
(2.88169e-08 -1.85798e-06 0)
(2.87735e-08 -1.86245e-06 0)
(2.87299e-08 -1.86693e-06 0)
(2.86861e-08 -1.87141e-06 0)
(2.86422e-08 -1.87589e-06 0)
(2.8598e-08 -1.88037e-06 0)
(2.85537e-08 -1.88486e-06 0)
(2.85091e-08 -1.88935e-06 0)
(2.84644e-08 -1.89385e-06 0)
(2.84195e-08 -1.89835e-06 0)
(2.83743e-08 -1.90285e-06 0)
(2.8329e-08 -1.90736e-06 0)
(2.82835e-08 -1.91187e-06 0)
(2.82377e-08 -1.91638e-06 0)
(2.81918e-08 -1.9209e-06 0)
(2.81457e-08 -1.92542e-06 0)
(2.80993e-08 -1.92994e-06 0)
(2.80528e-08 -1.93447e-06 0)
(2.80061e-08 -1.939e-06 0)
(2.79592e-08 -1.94353e-06 0)
(2.7912e-08 -1.94807e-06 0)
(2.78647e-08 -1.95261e-06 0)
(2.78172e-08 -1.95715e-06 0)
(2.77694e-08 -1.96169e-06 0)
(2.77215e-08 -1.96624e-06 0)
(2.76733e-08 -1.97079e-06 0)
(2.7625e-08 -1.97534e-06 0)
(2.75765e-08 -1.9799e-06 0)
(2.75277e-08 -1.98446e-06 0)
(2.74787e-08 -1.98902e-06 0)
(2.74296e-08 -1.99358e-06 0)
(2.73802e-08 -1.99815e-06 0)
(2.73306e-08 -2.00272e-06 0)
(2.72809e-08 -2.00729e-06 0)
(2.72309e-08 -2.01186e-06 0)
(2.71807e-08 -2.01644e-06 0)
(2.71303e-08 -2.02101e-06 0)
(2.70797e-08 -2.0256e-06 0)
(2.70289e-08 -2.03018e-06 0)
(2.69779e-08 -2.03476e-06 0)
(2.69267e-08 -2.03935e-06 0)
(2.68752e-08 -2.04394e-06 0)
(2.68236e-08 -2.04853e-06 0)
(2.67717e-08 -2.05312e-06 0)
(2.67197e-08 -2.05772e-06 0)
(2.66674e-08 -2.06231e-06 0)
(2.6615e-08 -2.06691e-06 0)
(2.65623e-08 -2.07151e-06 0)
(2.65094e-08 -2.07612e-06 0)
(2.64563e-08 -2.08072e-06 0)
(2.6403e-08 -2.08532e-06 0)
(2.63495e-08 -2.08993e-06 0)
(2.62957e-08 -2.09454e-06 0)
(2.62418e-08 -2.09915e-06 0)
(2.61876e-08 -2.10376e-06 0)
(2.61333e-08 -2.10837e-06 0)
(2.60787e-08 -2.11299e-06 0)
(2.60239e-08 -2.1176e-06 0)
(2.5969e-08 -2.12222e-06 0)
(2.59138e-08 -2.12683e-06 0)
(2.58584e-08 -2.13145e-06 0)
(2.58027e-08 -2.13607e-06 0)
(2.57469e-08 -2.14069e-06 0)
(2.56909e-08 -2.14531e-06 0)
(2.56346e-08 -2.14993e-06 0)
(2.55781e-08 -2.15456e-06 0)
(2.55215e-08 -2.15918e-06 0)
(2.54646e-08 -2.1638e-06 0)
(2.54075e-08 -2.16843e-06 0)
(2.53502e-08 -2.17305e-06 0)
(2.52927e-08 -2.17768e-06 0)
(2.52349e-08 -2.1823e-06 0)
(2.5177e-08 -2.18693e-06 0)
(2.51189e-08 -2.19155e-06 0)
(2.50605e-08 -2.19618e-06 0)
(2.50019e-08 -2.2008e-06 0)
(2.49431e-08 -2.20543e-06 0)
(2.48842e-08 -2.21006e-06 0)
(2.4825e-08 -2.21468e-06 0)
(2.47655e-08 -2.21931e-06 0)
(2.47059e-08 -2.22393e-06 0)
(2.46461e-08 -2.22856e-06 0)
(2.4586e-08 -2.23318e-06 0)
(2.45258e-08 -2.23781e-06 0)
(2.44653e-08 -2.24243e-06 0)
(2.44047e-08 -2.24706e-06 0)
(2.43438e-08 -2.25168e-06 0)
(2.42827e-08 -2.2563e-06 0)
(2.42214e-08 -2.26092e-06 0)
(2.41599e-08 -2.26554e-06 0)
(2.40982e-08 -2.27016e-06 0)
(2.40363e-08 -2.27478e-06 0)
(2.39741e-08 -2.2794e-06 0)
(2.39118e-08 -2.28402e-06 0)
(2.38493e-08 -2.28863e-06 0)
(2.37865e-08 -2.29325e-06 0)
(2.37236e-08 -2.29786e-06 0)
(2.36604e-08 -2.30247e-06 0)
(2.35971e-08 -2.30708e-06 0)
(2.35335e-08 -2.31169e-06 0)
(2.34697e-08 -2.3163e-06 0)
(2.34057e-08 -2.3209e-06 0)
(2.33415e-08 -2.3255e-06 0)
(2.32772e-08 -2.3301e-06 0)
(2.32126e-08 -2.3347e-06 0)
(2.31478e-08 -2.3393e-06 0)
(2.30828e-08 -2.3439e-06 0)
(2.30176e-08 -2.34849e-06 0)
(2.29522e-08 -2.35308e-06 0)
(2.28866e-08 -2.35767e-06 0)
(2.28208e-08 -2.36226e-06 0)
(2.27548e-08 -2.36684e-06 0)
(2.26886e-08 -2.37142e-06 0)
(2.26222e-08 -2.376e-06 0)
(2.25556e-08 -2.38058e-06 0)
(2.24888e-08 -2.38515e-06 0)
(2.24218e-08 -2.38972e-06 0)
(2.23547e-08 -2.39429e-06 0)
(2.22873e-08 -2.39885e-06 0)
(2.22197e-08 -2.40342e-06 0)
(2.21519e-08 -2.40797e-06 0)
(2.2084e-08 -2.41253e-06 0)
(2.20158e-08 -2.41708e-06 0)
(2.19475e-08 -2.42163e-06 0)
(2.1879e-08 -2.42617e-06 0)
(2.18102e-08 -2.43072e-06 0)
(2.17414e-08 -2.43525e-06 0)
(2.16719e-08 -2.43979e-06 0)
(2.16043e-08 -2.4443e-06 0)
(2.15394e-08 -2.44859e-06 0)
(2.14754e-08 -2.45266e-06 0)
(2.14121e-08 -2.45671e-06 0)
(2.13485e-08 -2.46079e-06 0)
(2.12842e-08 -2.46493e-06 0)
(2.12192e-08 -2.4691e-06 0)
(2.11536e-08 -2.47329e-06 0)
(2.10871e-08 -2.47752e-06 0)
(2.102e-08 -2.48178e-06 0)
(2.09521e-08 -2.48608e-06 0)
(2.08835e-08 -2.49041e-06 0)
(2.08141e-08 -2.49477e-06 0)
(2.07439e-08 -2.49916e-06 0)
(2.0673e-08 -2.50358e-06 0)
(2.06013e-08 -2.50804e-06 0)
(2.05288e-08 -2.51253e-06 0)
(2.04555e-08 -2.51705e-06 0)
(2.03815e-08 -2.52161e-06 0)
(2.03066e-08 -2.5262e-06 0)
(2.02309e-08 -2.53082e-06 0)
(2.01544e-08 -2.53547e-06 0)
(2.00771e-08 -2.54016e-06 0)
(1.99989e-08 -2.54488e-06 0)
(1.99199e-08 -2.54963e-06 0)
(1.984e-08 -2.55441e-06 0)
(1.97593e-08 -2.55923e-06 0)
(1.96778e-08 -2.56408e-06 0)
(1.95953e-08 -2.56896e-06 0)
(1.9512e-08 -2.57387e-06 0)
(1.94278e-08 -2.57882e-06 0)
(1.93427e-08 -2.5838e-06 0)
(1.92568e-08 -2.5888e-06 0)
(1.91699e-08 -2.59385e-06 0)
(1.90821e-08 -2.59892e-06 0)
(1.89934e-08 -2.60402e-06 0)
(1.89038e-08 -2.60916e-06 0)
(1.88132e-08 -2.61432e-06 0)
(1.87218e-08 -2.61952e-06 0)
(1.86294e-08 -2.62475e-06 0)
(1.8536e-08 -2.63001e-06 0)
(1.84417e-08 -2.6353e-06 0)
(1.83464e-08 -2.64062e-06 0)
(1.82502e-08 -2.64597e-06 0)
(1.8153e-08 -2.65134e-06 0)
(1.80548e-08 -2.65675e-06 0)
(1.79557e-08 -2.66219e-06 0)
(1.78556e-08 -2.66765e-06 0)
(1.77544e-08 -2.67315e-06 0)
(1.76523e-08 -2.67867e-06 0)
(1.75492e-08 -2.68422e-06 0)
(1.74451e-08 -2.68979e-06 0)
(1.734e-08 -2.6954e-06 0)
(1.72339e-08 -2.70103e-06 0)
(1.71268e-08 -2.70668e-06 0)
(1.70186e-08 -2.71236e-06 0)
(1.69094e-08 -2.71807e-06 0)
(1.67992e-08 -2.7238e-06 0)
(1.6688e-08 -2.72955e-06 0)
(1.65758e-08 -2.73533e-06 0)
(1.64625e-08 -2.74114e-06 0)
(1.63482e-08 -2.74696e-06 0)
(1.62329e-08 -2.75281e-06 0)
(1.61165e-08 -2.75868e-06 0)
(1.59991e-08 -2.76456e-06 0)
(1.58806e-08 -2.77047e-06 0)
(1.57611e-08 -2.7764e-06 0)
(1.56406e-08 -2.78235e-06 0)
(1.55191e-08 -2.78832e-06 0)
(1.53965e-08 -2.7943e-06 0)
(1.52729e-08 -2.8003e-06 0)
(1.51482e-08 -2.80632e-06 0)
(1.50225e-08 -2.81235e-06 0)
(1.48958e-08 -2.81839e-06 0)
(1.47681e-08 -2.82445e-06 0)
(1.46393e-08 -2.83053e-06 0)
(1.45095e-08 -2.83661e-06 0)
(1.43787e-08 -2.84271e-06 0)
(1.4247e-08 -2.84881e-06 0)
(1.41142e-08 -2.85493e-06 0)
(1.39804e-08 -2.86105e-06 0)
(1.38456e-08 -2.86718e-06 0)
(1.37098e-08 -2.87332e-06 0)
(1.35731e-08 -2.87946e-06 0)
(1.34354e-08 -2.88561e-06 0)
(1.32967e-08 -2.89176e-06 0)
(1.31571e-08 -2.89791e-06 0)
(1.30166e-08 -2.90406e-06 0)
(1.28751e-08 -2.91021e-06 0)
(1.27327e-08 -2.91636e-06 0)
(1.25894e-08 -2.92251e-06 0)
(1.24452e-08 -2.92866e-06 0)
(1.23002e-08 -2.93479e-06 0)
(1.21542e-08 -2.94093e-06 0)
(1.20075e-08 -2.94705e-06 0)
(1.18599e-08 -2.95317e-06 0)
(1.17115e-08 -2.95927e-06 0)
(1.15622e-08 -2.96537e-06 0)
(1.14122e-08 -2.97145e-06 0)
(1.12615e-08 -2.97752e-06 0)
(1.111e-08 -2.98357e-06 0)
(1.09578e-08 -2.9896e-06 0)
(1.08048e-08 -2.99561e-06 0)
(1.06512e-08 -3.00161e-06 0)
(1.0497e-08 -3.00758e-06 0)
(1.03421e-08 -3.01353e-06 0)
(1.01866e-08 -3.01945e-06 0)
(1.00305e-08 -3.02535e-06 0)
(9.87389e-09 -3.03122e-06 0)
(9.71672e-09 -3.03706e-06 0)
(9.55906e-09 -3.04286e-06 0)
(9.40092e-09 -3.04864e-06 0)
(9.24234e-09 -3.05438e-06 0)
(9.08334e-09 -3.06008e-06 0)
(8.92396e-09 -3.06574e-06 0)
(8.76424e-09 -3.07136e-06 0)
(8.6042e-09 -3.07695e-06 0)
(8.44387e-09 -3.08248e-06 0)
(8.2833e-09 -3.08798e-06 0)
(8.12251e-09 -3.09342e-06 0)
(7.96155e-09 -3.09882e-06 0)
(7.80045e-09 -3.10416e-06 0)
(7.63925e-09 -3.10946e-06 0)
(7.47799e-09 -3.1147e-06 0)
(7.3167e-09 -3.11988e-06 0)
(7.15543e-09 -3.125e-06 0)
(6.99422e-09 -3.13007e-06 0)
(6.83311e-09 -3.13507e-06 0)
(6.67215e-09 -3.14001e-06 0)
(6.51136e-09 -3.14488e-06 0)
(6.35081e-09 -3.14969e-06 0)
(6.19053e-09 -3.15442e-06 0)
(6.03057e-09 -3.15909e-06 0)
(5.87097e-09 -3.16368e-06 0)
(5.71179e-09 -3.1682e-06 0)
(5.55306e-09 -3.17264e-06 0)
(5.39483e-09 -3.177e-06 0)
(5.23716e-09 -3.18128e-06 0)
(5.08009e-09 -3.18548e-06 0)
(4.92366e-09 -3.1896e-06 0)
(4.76793e-09 -3.19363e-06 0)
(4.61295e-09 -3.19758e-06 0)
(4.45876e-09 -3.20143e-06 0)
(4.30541e-09 -3.2052e-06 0)
(4.15296e-09 -3.20887e-06 0)
(4.00145e-09 -3.21245e-06 0)
(3.85094e-09 -3.21593e-06 0)
(3.70147e-09 -3.21931e-06 0)
(3.55309e-09 -3.2226e-06 0)
(3.40586e-09 -3.22579e-06 0)
(3.25982e-09 -3.22887e-06 0)
(3.11502e-09 -3.23185e-06 0)
(2.97151e-09 -3.23473e-06 0)
(2.82935e-09 -3.2375e-06 0)
(2.68857e-09 -3.24016e-06 0)
(2.54923e-09 -3.24272e-06 0)
(2.41137e-09 -3.24516e-06 0)
(2.27505e-09 -3.2475e-06 0)
(2.14031e-09 -3.24972e-06 0)
(2.00719e-09 -3.25183e-06 0)
(1.87574e-09 -3.25383e-06 0)
(1.74601e-09 -3.25571e-06 0)
(1.61804e-09 -3.25747e-06 0)
(1.49187e-09 -3.25912e-06 0)
(1.36755e-09 -3.26065e-06 0)
(1.24511e-09 -3.26206e-06 0)
(1.1246e-09 -3.26335e-06 0)
(1.00605e-09 -3.26453e-06 0)
(8.89511e-10 -3.26558e-06 0)
(7.75011e-10 -3.26651e-06 0)
(6.62589e-10 -3.26733e-06 0)
(5.52279e-10 -3.26802e-06 0)
(4.44116e-10 -3.26859e-06 0)
(3.38131e-10 -3.26904e-06 0)
(2.34357e-10 -3.26937e-06 0)
(1.32823e-10 -3.26957e-06 0)
(3.35611e-11 -3.26966e-06 0)
(-6.3418e-11 -3.26962e-06 0)
(-1.58009e-10 -3.26946e-06 0)
(-2.50496e-10 -3.26919e-06 0)
(-3.39537e-10 -3.26879e-06 0)
(-4.31011e-10 -3.26827e-06 0)
(-5.27028e-10 -3.26755e-06 0)
(-6.22723e-10 -3.26661e-06 0)
(-7.1678e-10 -3.2655e-06 0)
(-8.06787e-10 -3.26424e-06 0)
(-8.92364e-10 -3.26285e-06 0)
(-9.73609e-10 -3.26132e-06 0)
(-1.0506e-09 -3.25966e-06 0)
(-1.12344e-09 -3.25788e-06 0)
(-1.19226e-09 -3.25599e-06 0)
(-1.25717e-09 -3.25399e-06 0)
(-1.31831e-09 -3.25188e-06 0)
(-1.3758e-09 -3.24969e-06 0)
(-1.42974e-09 -3.2474e-06 0)
(-1.48024e-09 -3.24502e-06 0)
(-1.52743e-09 -3.24257e-06 0)
(-1.57139e-09 -3.24005e-06 0)
(-1.61225e-09 -3.23746e-06 0)
(-1.65009e-09 -3.2348e-06 0)
(-1.685e-09 -3.23208e-06 0)
(-1.7171e-09 -3.22932e-06 0)
(-1.74646e-09 -3.2265e-06 0)
(-1.77317e-09 -3.22363e-06 0)
(-1.79731e-09 -3.22073e-06 0)
(-1.81898e-09 -3.21779e-06 0)
(-1.83824e-09 -3.21481e-06 0)
(-1.85517e-09 -3.21181e-06 0)
(-1.86985e-09 -3.20878e-06 0)
(-1.88235e-09 -3.20573e-06 0)
(-1.89273e-09 -3.20266e-06 0)
(-1.90107e-09 -3.19958e-06 0)
(-1.90742e-09 -3.19648e-06 0)
(-1.91184e-09 -3.19338e-06 0)
(-1.9144e-09 -3.19027e-06 0)
(-1.91516e-09 -3.18716e-06 0)
(-1.91416e-09 -3.18404e-06 0)
(-1.91145e-09 -3.18094e-06 0)
(-1.9071e-09 -3.17783e-06 0)
(-1.90115e-09 -3.17474e-06 0)
(-1.89364e-09 -3.17166e-06 0)
(-1.88463e-09 -3.16859e-06 0)
(-1.87415e-09 -3.16553e-06 0)
(-1.86225e-09 -3.1625e-06 0)
(-1.84897e-09 -3.15948e-06 0)
(-1.83435e-09 -3.15649e-06 0)
(-1.81842e-09 -3.15352e-06 0)
(-1.80123e-09 -3.15058e-06 0)
(-1.78281e-09 -3.14767e-06 0)
(-1.76319e-09 -3.14479e-06 0)
(-1.74241e-09 -3.14194e-06 0)
(-1.72049e-09 -3.13913e-06 0)
(-1.69748e-09 -3.13635e-06 0)
(-1.6734e-09 -3.13362e-06 0)
(-1.64828e-09 -3.13092e-06 0)
(-1.62215e-09 -3.12826e-06 0)
(-1.59504e-09 -3.12565e-06 0)
(-1.56698e-09 -3.12308e-06 0)
(-1.53799e-09 -3.12055e-06 0)
(-1.5081e-09 -3.11808e-06 0)
(-1.47733e-09 -3.11565e-06 0)
(-1.44572e-09 -3.11328e-06 0)
(-1.41328e-09 -3.11095e-06 0)
(-1.38004e-09 -3.10868e-06 0)
(-1.34603e-09 -3.10647e-06 0)
(-1.31127e-09 -3.10431e-06 0)
(-1.27578e-09 -3.1022e-06 0)
(-1.23958e-09 -3.10016e-06 0)
(-1.20271e-09 -3.09817e-06 0)
(-1.16518e-09 -3.09625e-06 0)
(-1.12702e-09 -3.09438e-06 0)
(-1.08825e-09 -3.09258e-06 0)
(-1.04889e-09 -3.09084e-06 0)
(-1.00897e-09 -3.08917e-06 0)
(-9.68504e-10 -3.08756e-06 0)
(-9.2752e-10 -3.08602e-06 0)
(-8.8604e-10 -3.08454e-06 0)
(-8.44087e-10 -3.08313e-06 0)
(-8.01682e-10 -3.08179e-06 0)
(-7.5885e-10 -3.08052e-06 0)
(-7.15611e-10 -3.07931e-06 0)
(-6.71991e-10 -3.07818e-06 0)
(-6.28009e-10 -3.07712e-06 0)
(-5.8369e-10 -3.07613e-06 0)
(-5.39056e-10 -3.07521e-06 0)
(-4.9413e-10 -3.07437e-06 0)
(-4.48935e-10 -3.07359e-06 0)
(-4.03496e-10 -3.07292e-06 0)
(-3.57832e-10 -3.07222e-06 0)
(-3.11975e-10 -3.07189e-06 0)
(-2.65928e-10 -3.0707e-06 0)
(-2.19781e-10 -3.07263e-06 0)
(-1.73376e-10 -3.06431e-06 0)
(-1.2722e-10 -3.08901e-06 0)
(-8.0404e-11 -2.99636e-06 0)
(-3.3993e-11 -3.24238e-06 0)
(-5.78776e-12 -2.83189e-06 0)
)
;
    }
    bottomWall
    {
        type            calculated;
        value           nonuniform List<vector> 
449
(
(-48.4871 -0.963465 0)
(-19.7374 -0.00514934 0)
(-14.3382 -0.00113239 0)
(-12.0365 -0.000542712 0)
(-10.6413 -0.000347146 0)
(-9.66627 -0.000247983 0)
(-8.94411 -0.000182195 0)
(-8.41635 -0.000123835 0)
(-8.0929 -5.1379e-05 0)
(-8.06386 7.38478e-05 0)
(-8.60781 0.00025676 0)
(-9.84608 0.000334989 0)
(-10.9308 0.000254583 0)
(-11.6134 0.000152463 0)
(-11.9924 8.39068e-05 0)
(-12.1993 4.42148e-05 0)
(-12.3019 1.96821e-05 0)
(-12.3373 2.96122e-06 0)
(-12.3226 -7.99938e-06 0)
(-12.2808 -1.44922e-05 0)
(-12.22 -1.88145e-05 0)
(-12.1474 -2.12947e-05 0)
(-12.0687 -2.24415e-05 0)
(-11.9875 -2.2808e-05 0)
(-11.9058 -2.27131e-05 0)
(-11.825 -2.23631e-05 0)
(-11.7454 -2.18513e-05 0)
(-11.6678 -2.12195e-05 0)
(-11.5925 -2.05351e-05 0)
(-11.5195 -1.98326e-05 0)
(-11.4488 -1.91319e-05 0)
(-11.3806 -1.84445e-05 0)
(-11.3146 -1.77787e-05 0)
(-11.2509 -1.71372e-05 0)
(-11.1893 -1.65311e-05 0)
(-11.1298 -1.59628e-05 0)
(-11.0721 -1.54157e-05 0)
(-11.0163 -1.4886e-05 0)
(-10.9622 -1.43813e-05 0)
(-10.9099 -1.39022e-05 0)
(-10.8591 -1.34475e-05 0)
(-10.8099 -1.30162e-05 0)
(-10.7622 -1.26087e-05 0)
(-10.7158 -1.22213e-05 0)
(-10.6707 -1.18523e-05 0)
(-10.6268 -1.15012e-05 0)
(-10.5842 -1.11696e-05 0)
(-10.5426 -1.08518e-05 0)
(-10.5022 -1.05565e-05 0)
(-10.4627 -1.02969e-05 0)
(-10.424 -1.00637e-05 0)
(-10.3861 -9.8443e-06 0)
(-10.3489 -9.6318e-06 0)
(-10.3125 -9.42284e-06 0)
(-10.2767 -9.2175e-06 0)
(-10.2416 -9.01441e-06 0)
(-10.2073 -8.81589e-06 0)
(-10.1736 -8.62355e-06 0)
(-10.1406 -8.43591e-06 0)
(-10.1082 -8.25361e-06 0)
(-10.0764 -8.07769e-06 0)
(-10.0452 -7.9088e-06 0)
(-10.0146 -7.74449e-06 0)
(-9.98461 -7.58435e-06 0)
(-9.95513 -7.42884e-06 0)
(-9.92618 -7.27998e-06 0)
(-9.89774 -7.13621e-06 0)
(-9.86978 -6.99701e-06 0)
(-9.84231 -6.8608e-06 0)
(-9.81531 -6.73253e-06 0)
(-9.78873 -6.61038e-06 0)
(-9.76257 -6.48819e-06 0)
(-9.73684 -6.36824e-06 0)
(-9.71153 -6.2526e-06 0)
(-9.68661 -6.14099e-06 0)
(-9.66208 -6.03098e-06 0)
(-9.63793 -5.92414e-06 0)
(-9.61414 -5.81979e-06 0)
(-9.59073 -5.71838e-06 0)
(-9.56766 -5.62004e-06 0)
(-9.54493 -5.52435e-06 0)
(-9.52253 -5.43131e-06 0)
(-9.50046 -5.34095e-06 0)
(-9.4787 -5.25271e-06 0)
(-9.45726 -5.16674e-06 0)
(-9.4361 -5.08353e-06 0)
(-9.41524 -5.00222e-06 0)
(-9.39466 -4.92438e-06 0)
(-9.37435 -4.84799e-06 0)
(-9.35431 -4.77293e-06 0)
(-9.33453 -4.70024e-06 0)
(-9.315 -4.62855e-06 0)
(-9.29573 -4.55903e-06 0)
(-9.2767 -4.4911e-06 0)
(-9.25791 -4.42396e-06 0)
(-9.23935 -4.3597e-06 0)
(-9.22102 -4.2963e-06 0)
(-9.20291 -4.23414e-06 0)
(-9.18502 -4.17436e-06 0)
(-9.16734 -4.11492e-06 0)
(-9.14987 -4.05969e-06 0)
(-9.13258 -4.00705e-06 0)
(-9.11548 -3.95282e-06 0)
(-9.09857 -3.89965e-06 0)
(-9.08185 -3.84689e-06 0)
(-9.06532 -3.79481e-06 0)
(-9.04897 -3.74499e-06 0)
(-9.0328 -3.69562e-06 0)
(-9.0168 -3.6467e-06 0)
(-9.00098 -3.59996e-06 0)
(-8.98532 -3.55362e-06 0)
(-8.96983 -3.50751e-06 0)
(-8.9545 -3.46366e-06 0)
(-8.93932 -3.42023e-06 0)
(-8.9243 -3.37684e-06 0)
(-8.90944 -3.33546e-06 0)
(-8.89471 -3.29475e-06 0)
(-8.88014 -3.2539e-06 0)
(-8.86571 -3.21458e-06 0)
(-8.85142 -3.17644e-06 0)
(-8.83727 -3.13805e-06 0)
(-8.82326 -3.10064e-06 0)
(-8.80937 -3.0649e-06 0)
(-8.79562 -3.02891e-06 0)
(-8.782 -2.99315e-06 0)
(-8.7685 -2.95912e-06 0)
(-8.75512 -2.92552e-06 0)
(-8.74187 -2.89183e-06 0)
(-8.72873 -2.85915e-06 0)
(-8.71571 -2.82765e-06 0)
(-8.70281 -2.79602e-06 0)
(-8.69002 -2.76455e-06 0)
(-8.67734 -2.73452e-06 0)
(-8.66477 -2.705e-06 0)
(-8.65231 -2.67524e-06 0)
(-8.63995 -2.64623e-06 0)
(-8.6277 -2.61849e-06 0)
(-8.61555 -2.59059e-06 0)
(-8.6035 -2.56259e-06 0)
(-8.59155 -2.53585e-06 0)
(-8.5797 -2.5099e-06 0)
(-8.56794 -2.48359e-06 0)
(-8.55627 -2.45751e-06 0)
(-8.5447 -2.43266e-06 0)
(-8.53322 -2.40824e-06 0)
(-8.52183 -2.38348e-06 0)
(-8.51053 -2.35972e-06 0)
(-8.49931 -2.3381e-06 0)
(-8.48816 -2.31643e-06 0)
(-8.4771 -2.29349e-06 0)
(-8.46612 -2.27078e-06 0)
(-8.45523 -2.24889e-06 0)
(-8.44441 -2.22725e-06 0)
(-8.43367 -2.20543e-06 0)
(-8.42301 -2.18397e-06 0)
(-8.41243 -2.16331e-06 0)
(-8.40192 -2.14301e-06 0)
(-8.39149 -2.12252e-06 0)
(-8.38114 -2.1022e-06 0)
(-8.37085 -2.08268e-06 0)
(-8.36064 -2.06368e-06 0)
(-8.3505 -2.04442e-06 0)
(-8.34043 -2.02513e-06 0)
(-8.33043 -2.00663e-06 0)
(-8.3205 -1.98877e-06 0)
(-8.31063 -1.9707e-06 0)
(-8.30083 -1.9525e-06 0)
(-8.2911 -1.93486e-06 0)
(-8.28143 -1.91802e-06 0)
(-8.27182 -1.90103e-06 0)
(-8.26228 -1.88421e-06 0)
(-8.25279 -1.8672e-06 0)
(-8.24338 -1.84878e-06 0)
(-8.23455 -1.83543e-06 0)
(-8.22624 -1.82387e-06 0)
(-8.2179 -1.80777e-06 0)
(-8.20954 -1.7928e-06 0)
(-8.20116 -1.77906e-06 0)
(-8.19276 -1.76522e-06 0)
(-8.18433 -1.75119e-06 0)
(-8.17588 -1.73683e-06 0)
(-8.1674 -1.72296e-06 0)
(-8.1589 -1.70938e-06 0)
(-8.15038 -1.69592e-06 0)
(-8.14183 -1.68202e-06 0)
(-8.13326 -1.66798e-06 0)
(-8.12467 -1.65445e-06 0)
(-8.11605 -1.64116e-06 0)
(-8.10742 -1.62783e-06 0)
(-8.09876 -1.6142e-06 0)
(-8.09008 -1.60058e-06 0)
(-8.08138 -1.5874e-06 0)
(-8.07265 -1.57439e-06 0)
(-8.06391 -1.5612e-06 0)
(-8.05514 -1.54784e-06 0)
(-8.04636 -1.53468e-06 0)
(-8.03755 -1.52182e-06 0)
(-8.02872 -1.50911e-06 0)
(-8.01988 -1.49613e-06 0)
(-8.01101 -1.48302e-06 0)
(-8.00213 -1.47032e-06 0)
(-7.99322 -1.45784e-06 0)
(-7.9843 -1.44528e-06 0)
(-7.97535 -1.43256e-06 0)
(-7.96639 -1.41994e-06 0)
(-7.95742 -1.40762e-06 0)
(-7.94842 -1.39549e-06 0)
(-7.9394 -1.38311e-06 0)
(-7.93037 -1.37063e-06 0)
(-7.92132 -1.3585e-06 0)
(-7.91225 -1.34663e-06 0)
(-7.90317 -1.33459e-06 0)
(-7.89407 -1.32317e-06 0)
(-7.88494 -1.31228e-06 0)
(-7.8758 -1.30093e-06 0)
(-7.86663 -1.28931e-06 0)
(-7.85745 -1.27749e-06 0)
(-7.84826 -1.2657e-06 0)
(-7.83905 -1.25424e-06 0)
(-7.82982 -1.24294e-06 0)
(-7.82058 -1.23143e-06 0)
(-7.81133 -1.21986e-06 0)
(-7.80206 -1.20864e-06 0)
(-7.79278 -1.19766e-06 0)
(-7.78348 -1.18647e-06 0)
(-7.77417 -1.17516e-06 0)
(-7.76485 -1.1642e-06 0)
(-7.75552 -1.15349e-06 0)
(-7.74617 -1.1426e-06 0)
(-7.73681 -1.13161e-06 0)
(-7.72744 -1.12091e-06 0)
(-7.71805 -1.11047e-06 0)
(-7.70865 -1.09988e-06 0)
(-7.69924 -1.08919e-06 0)
(-7.68982 -1.07877e-06 0)
(-7.68039 -1.0686e-06 0)
(-7.67095 -1.0583e-06 0)
(-7.6615 -1.0479e-06 0)
(-7.65204 -1.03777e-06 0)
(-7.64256 -1.02788e-06 0)
(-7.63308 -1.01786e-06 0)
(-7.62359 -1.00775e-06 0)
(-7.61409 -9.97918e-07 0)
(-7.60458 -9.88306e-07 0)
(-7.59505 -9.78555e-07 0)
(-7.58552 -9.68737e-07 0)
(-7.57599 -9.59215e-07 0)
(-7.56644 -9.49888e-07 0)
(-7.55689 -9.40396e-07 0)
(-7.54733 -9.30871e-07 0)
(-7.53776 -9.21658e-07 0)
(-7.52818 -9.12575e-07 0)
(-7.5186 -9.03343e-07 0)
(-7.50901 -8.94147e-07 0)
(-7.49941 -8.85218e-07 0)
(-7.48981 -8.76361e-07 0)
(-7.48019 -8.67401e-07 0)
(-7.47058 -8.58537e-07 0)
(-7.46096 -8.49901e-07 0)
(-7.45133 -8.4127e-07 0)
(-7.4417 -8.32572e-07 0)
(-7.43206 -8.24031e-07 0)
(-7.42242 -8.15683e-07 0)
(-7.41277 -8.07272e-07 0)
(-7.40312 -7.98837e-07 0)
(-7.39346 -7.90612e-07 0)
(-7.3838 -7.82516e-07 0)
(-7.37414 -7.74335e-07 0)
(-7.36447 -7.66204e-07 0)
(-7.35481 -7.5828e-07 0)
(-7.34513 -7.50391e-07 0)
(-7.33546 -7.42455e-07 0)
(-7.32578 -7.34699e-07 0)
(-7.3161 -7.27576e-07 0)
(-7.3064 -7.20413e-07 0)
(-7.2967 -7.1281e-07 0)
(-7.287 -7.05349e-07 0)
(-7.27729 -6.97946e-07 0)
(-7.26758 -6.90484e-07 0)
(-7.25788 -6.83085e-07 0)
(-7.24817 -6.75856e-07 0)
(-7.23846 -6.6863e-07 0)
(-7.22875 -6.61376e-07 0)
(-7.21904 -6.54266e-07 0)
(-7.20933 -6.47284e-07 0)
(-7.19962 -6.40251e-07 0)
(-7.18992 -6.33251e-07 0)
(-7.18021 -6.26432e-07 0)
(-7.1705 -6.19645e-07 0)
(-7.1608 -6.12827e-07 0)
(-7.1511 -6.06131e-07 0)
(-7.1414 -5.99568e-07 0)
(-7.1317 -5.92966e-07 0)
(-7.122 -5.86384e-07 0)
(-7.11231 -5.79973e-07 0)
(-7.10262 -5.73595e-07 0)
(-7.09293 -5.67193e-07 0)
(-7.08324 -5.60904e-07 0)
(-7.07356 -5.54738e-07 0)
(-7.06388 -5.48537e-07 0)
(-7.05421 -5.42367e-07 0)
(-7.04454 -5.36352e-07 0)
(-7.03487 -5.30363e-07 0)
(-7.02521 -5.24359e-07 0)
(-7.01556 -5.18467e-07 0)
(-7.0059 -5.1267e-07 0)
(-6.99626 -5.06851e-07 0)
(-6.98662 -5.0108e-07 0)
(-6.97698 -4.95453e-07 0)
(-6.96735 -4.89825e-07 0)
(-6.95773 -4.84198e-07 0)
(-6.94811 -4.78695e-07 0)
(-6.9385 -4.73258e-07 0)
(-6.92889 -4.67802e-07 0)
(-6.9193 -4.62418e-07 0)
(-6.90971 -4.5715e-07 0)
(-6.90012 -4.5187e-07 0)
(-6.89055 -4.46608e-07 0)
(-6.88098 -4.41482e-07 0)
(-6.87142 -4.36377e-07 0)
(-6.86187 -4.31269e-07 0)
(-6.85233 -4.26263e-07 0)
(-6.84279 -4.21329e-07 0)
(-6.83327 -4.16381e-07 0)
(-6.82375 -4.11493e-07 0)
(-6.81425 -4.06715e-07 0)
(-6.80475 -4.0193e-07 0)
(-6.79526 -3.97162e-07 0)
(-6.78578 -3.92507e-07 0)
(-6.77631 -3.88123e-07 0)
(-6.76684 -3.83786e-07 0)
(-6.75738 -3.79283e-07 0)
(-6.74793 -3.74799e-07 0)
(-6.73849 -3.7031e-07 0)
(-6.72907 -3.65889e-07 0)
(-6.71965 -3.61554e-07 0)
(-6.71024 -3.57222e-07 0)
(-6.70085 -3.52942e-07 0)
(-6.69147 -3.48794e-07 0)
(-6.68209 -3.44621e-07 0)
(-6.67273 -3.40428e-07 0)
(-6.66338 -3.36341e-07 0)
(-6.65405 -3.32286e-07 0)
(-6.64472 -3.28226e-07 0)
(-6.63541 -3.24256e-07 0)
(-6.62612 -3.20331e-07 0)
(-6.61683 -3.16411e-07 0)
(-6.60756 -3.12542e-07 0)
(-6.59831 -3.08753e-07 0)
(-6.58906 -3.0494e-07 0)
(-6.57984 -3.01206e-07 0)
(-6.57062 -2.9745e-07 0)
(-6.56143 -2.93845e-07 0)
(-6.55224 -2.90366e-07 0)
(-6.54203 -2.86206e-07 0)
(-6.53093 -2.81748e-07 0)
(-6.51999 -2.77698e-07 0)
(-6.5092 -2.73732e-07 0)
(-6.49858 -2.69762e-07 0)
(-6.4881 -2.65926e-07 0)
(-6.47778 -2.62168e-07 0)
(-6.46759 -2.58482e-07 0)
(-6.45756 -2.54911e-07 0)
(-6.44765 -2.51404e-07 0)
(-6.43789 -2.47969e-07 0)
(-6.42826 -2.44641e-07 0)
(-6.41876 -2.41374e-07 0)
(-6.40937 -2.38164e-07 0)
(-6.40013 -2.35064e-07 0)
(-6.39099 -2.32015e-07 0)
(-6.38198 -2.2902e-07 0)
(-6.37307 -2.2612e-07 0)
(-6.36429 -2.23277e-07 0)
(-6.35561 -2.20471e-07 0)
(-6.34704 -2.17752e-07 0)
(-6.33857 -2.15091e-07 0)
(-6.33022 -2.12466e-07 0)
(-6.32195 -2.09906e-07 0)
(-6.3138 -2.07419e-07 0)
(-6.30573 -2.04956e-07 0)
(-6.29777 -2.0254e-07 0)
(-6.28989 -2.002e-07 0)
(-6.28211 -1.97901e-07 0)
(-6.27441 -1.95648e-07 0)
(-6.2668 -1.93542e-07 0)
(-6.25927 -1.91477e-07 0)
(-6.25183 -1.89364e-07 0)
(-6.24446 -1.87276e-07 0)
(-6.23718 -1.85259e-07 0)
(-6.22997 -1.83263e-07 0)
(-6.22284 -1.81279e-07 0)
(-6.21579 -1.79332e-07 0)
(-6.20882 -1.77447e-07 0)
(-6.20191 -1.75578e-07 0)
(-6.19508 -1.73734e-07 0)
(-6.18832 -1.71931e-07 0)
(-6.18164 -1.70184e-07 0)
(-6.17501 -1.68445e-07 0)
(-6.16846 -1.66732e-07 0)
(-6.16197 -1.65056e-07 0)
(-6.15555 -1.63434e-07 0)
(-6.14918 -1.61814e-07 0)
(-6.14289 -1.60223e-07 0)
(-6.13665 -1.58657e-07 0)
(-6.13048 -1.57149e-07 0)
(-6.12436 -1.55637e-07 0)
(-6.11831 -1.54158e-07 0)
(-6.1123 -1.52686e-07 0)
(-6.10637 -1.51281e-07 0)
(-6.10047 -1.49869e-07 0)
(-6.09465 -1.48497e-07 0)
(-6.08885 -1.47108e-07 0)
(-6.08314 -1.458e-07 0)
(-6.07745 -1.44479e-07 0)
(-6.07184 -1.43211e-07 0)
(-6.06625 -1.41894e-07 0)
(-6.06074 -1.40678e-07 0)
(-6.05525 -1.39426e-07 0)
(-6.04984 -1.38267e-07 0)
(-6.04443 -1.37025e-07 0)
(-6.03912 -1.35898e-07 0)
(-6.0338 -1.34699e-07 0)
(-6.02858 -1.33643e-07 0)
(-6.02335 -1.32468e-07 0)
(-6.01822 -1.31439e-07 0)
(-6.01307 -1.3028e-07 0)
(-6.00803 -1.29322e-07 0)
(-6.00295 -1.28204e-07 0)
(-5.99801 -1.27294e-07 0)
(-5.993 -1.2617e-07 0)
(-5.98814 -1.25314e-07 0)
(-5.9832 -1.24227e-07 0)
(-5.97842 -1.23452e-07 0)
(-5.97354 -1.22377e-07 0)
(-5.96885 -1.2165e-07 0)
(-5.96403 -1.20603e-07 0)
(-5.95942 -1.19954e-07 0)
(-5.95465 -1.19014e-07 0)
(-5.95011 -1.18325e-07 0)
(-5.94539 -1.17759e-07 0)
(-5.9409 -1.16449e-07 0)
(-5.93629 -1.17629e-07 0)
(-5.93169 -1.13203e-07 0)
(-5.92744 -1.21239e-07 0)
(-5.92219 -1.03891e-07 0)
(-5.91936 -1.34623e-07 0)
(-5.91158 -8.18513e-08 0)
(-5.91312 -1.12995e-07 0)
(-5.90246 -1.4136e-07 0)
)
;
    }
    symmetry
    {
        type            symmetryPlane;
    }
    frontAndBack
    {
        type            empty;
    }
}


// ************************************************************************* //
