/*--------------------------------*- C++ -*----------------------------------*\
| =========                 |                                                 |
| \\      /  F ield         | OpenFOAM: The Open Source CFD Toolbox           |
|  \\    /   O peration     | Version:  v2012                                 |
|   \\  /    A nd           | Website:  www.openfoam.com                      |
|    \\/     M anipulation  |                                                 |
\*---------------------------------------------------------------------------*/
FoamFile
{
    version     2.0;
    format      ascii;
    class       volScalarField;
    location    "49";
    object      yPlus;
}
// * * * * * * * * * * * * * * * * * * * * * * * * * * * * * * * * * * * * * //

dimensions      [0 0 0 0 0 0 0];


internalField   uniform 0;

boundaryField
{
    inlet
    {
        type            calculated;
        value           uniform 0;
    }
    outlet
    {
        type            calculated;
        value           uniform 0;
    }
    topWall
    {
        type            calculated;
        value           nonuniform List<scalar> 
545
(
0.111338
0.191979
0.246292
0.289515
0.326109
0.35813
0.386733
0.412646
0.436363
0.458241
0.478545
0.497483
0.515217
0.531881
0.547585
0.56242
0.576464
0.589784
0.60244
0.614481
0.625954
0.636897
0.647346
0.657335
0.666891
0.67604
0.684808
0.693215
0.701282
0.709028
0.716468
0.72362
0.730498
0.737115
0.743484
0.749617
0.755525
0.761218
0.766707
0.771999
0.777105
0.782032
0.786787
0.791379
0.795813
0.800097
0.804236
0.808236
0.812103
0.815842
0.819457
0.822955
0.826339
0.829614
0.832783
0.835851
0.838821
0.841697
0.844482
0.84718
0.849794
0.852327
0.854781
0.857159
0.859464
0.861699
0.863866
0.865967
0.868004
0.86998
0.871897
0.873756
0.875536
0.877259
0.878968
0.880664
0.882346
0.884015
0.885671
0.887314
0.888944
0.890562
0.892167
0.893759
0.895339
0.896907
0.898463
0.900006
0.901538
0.903059
0.904567
0.906064
0.90755
0.909024
0.910488
0.91194
0.913248
0.914419
0.915589
0.916759
0.91793
0.9191
0.92027
0.921439
0.922609
0.923779
0.924948
0.926117
0.927286
0.928455
0.929624
0.930793
0.931961
0.933129
0.934297
0.935465
0.936632
0.9378
0.938967
0.940134
0.9413
0.942467
0.943633
0.944799
0.945964
0.947129
0.948294
0.949459
0.950623
0.951788
0.952951
0.954115
0.955278
0.956441
0.957603
0.958765
0.959927
0.961088
0.962249
0.96341
0.96457
0.965729
0.966889
0.968048
0.969206
0.970364
0.971522
0.972679
0.973836
0.974992
0.976148
0.977303
0.978458
0.979612
0.980766
0.981919
0.983072
0.984224
0.985375
0.986527
0.987677
0.988827
0.989976
0.991125
0.992273
0.993421
0.994568
0.995714
0.996859
0.998004
0.999149
1.00029
1.00144
1.00258
1.00372
1.00486
1.006
1.00714
1.00828
1.00942
1.01055
1.01169
1.01283
1.01396
1.01509
1.01623
1.01736
1.01849
1.01962
1.02075
1.02188
1.02301
1.02414
1.02526
1.02639
1.02751
1.02864
1.02976
1.03088
1.032
1.03312
1.03424
1.03536
1.03648
1.03759
1.03871
1.03982
1.04093
1.04205
1.04316
1.04427
1.04537
1.04648
1.04759
1.04869
1.0498
1.0509
1.052
1.0531
1.0542
1.0553
1.0564
1.05749
1.05859
1.05968
1.06077
1.06186
1.06295
1.06404
1.06513
1.06621
1.0673
1.06838
1.06946
1.07054
1.07162
1.0727
1.07377
1.07485
1.07592
1.07699
1.07806
1.07913
1.0802
1.08126
1.08233
1.08339
1.08445
1.08551
1.08657
1.08763
1.08868
1.08973
1.09079
1.09184
1.09288
1.09393
1.09498
1.09602
1.09706
1.0981
1.09914
1.10018
1.10121
1.10224
1.10328
1.1043
1.10533
1.10636
1.10733
1.10824
1.10916
1.11008
1.11101
1.11195
1.1129
1.11385
1.11481
1.11577
1.11674
1.11772
1.1187
1.11969
1.12069
1.12169
1.1227
1.12372
1.12474
1.12577
1.1268
1.12784
1.12889
1.12994
1.131
1.13207
1.13314
1.13422
1.1353
1.1364
1.13749
1.13859
1.1397
1.14082
1.14194
1.14306
1.14419
1.14533
1.14647
1.14762
1.14877
1.14993
1.1511
1.15227
1.15344
1.15462
1.15581
1.157
1.15819
1.15939
1.16059
1.1618
1.16302
1.16423
1.16545
1.16668
1.16791
1.16914
1.17038
1.17162
1.17287
1.17411
1.17537
1.17662
1.17788
1.17914
1.1804
1.18166
1.18293
1.1842
1.18547
1.18675
1.18802
1.1893
1.19058
1.19186
1.19314
1.19442
1.1957
1.19698
1.19827
1.19955
1.20083
1.20211
1.20339
1.20467
1.20595
1.20723
1.2085
1.20978
1.21105
1.21232
1.21358
1.21485
1.21611
1.21737
1.21862
1.21987
1.22111
1.22235
1.22359
1.22482
1.22605
1.22727
1.22848
1.22969
1.23089
1.23208
1.23327
1.23445
1.23562
1.23678
1.23794
1.23908
1.24022
1.24135
1.24246
1.24357
1.24467
1.24575
1.24683
1.24789
1.24894
1.24998
1.25101
1.25202
1.25302
1.25401
1.25498
1.25594
1.25689
1.25782
1.25873
1.25963
1.26052
1.26138
1.26223
1.26307
1.26388
1.26468
1.26547
1.26623
1.26697
1.2677
1.26841
1.2691
1.26976
1.27041
1.27104
1.27165
1.27224
1.2728
1.27335
1.27388
1.27438
1.27486
1.27532
1.27576
1.27617
1.27656
1.27693
1.27728
1.2776
1.2779
1.27818
1.27844
1.27867
1.27887
1.27906
1.27922
1.27935
1.27947
1.27955
1.27962
1.27966
1.27968
1.27967
1.27964
1.27959
1.27951
1.27941
1.27927
1.27908
1.27887
1.27862
1.27835
1.27805
1.27773
1.27738
1.27701
1.27662
1.27621
1.27578
1.27533
1.27486
1.27438
1.27388
1.27338
1.27285
1.27232
1.27177
1.27122
1.27066
1.27008
1.2695
1.26892
1.26833
1.26773
1.26713
1.26652
1.26591
1.2653
1.26468
1.26407
1.26345
1.26283
1.26222
1.2616
1.26099
1.26038
1.25977
1.25916
1.25856
1.25796
1.25736
1.25677
1.25618
1.2556
1.25503
1.25446
1.2539
1.25335
1.2528
1.25226
1.25173
1.2512
1.25069
1.25019
1.24969
1.2492
1.24873
1.24826
1.24781
1.24736
1.24693
1.24651
1.24609
1.2457
1.24531
1.24493
1.24457
1.24422
1.24388
1.24356
1.24325
1.24295
1.24267
1.2424
1.24214
1.2419
1.24167
1.24146
1.24126
1.24107
1.2409
1.24075
1.24061
1.24048
1.24037
1.24027
1.24019
1.24013
1.24008
1.24004
1.24002
1.24001
)
;
    }
    bottomWall
    {
        type            calculated;
        value           nonuniform List<scalar> 
449
(
0.139388
0.0889298
0.0757964
0.0694469
0.065298
0.0622345
0.0598647
0.0580716
0.0569448
0.0568425
0.0587284
0.0628107
0.0661803
0.0682152
0.0693194
0.0699149
0.0702082
0.0703093
0.0702673
0.070148
0.0699743
0.0697659
0.0695396
0.0693053
0.0690688
0.0688338
0.0686019
0.0683749
0.0681538
0.0679388
0.0677303
0.067528
0.0673321
0.0671422
0.0669583
0.0667798
0.0666065
0.0664384
0.0662753
0.0661168
0.0659629
0.0658133
0.0656677
0.065526
0.065388
0.0652536
0.0651225
0.0649945
0.0648697
0.0647476
0.0646278
0.0645102
0.0643946
0.0642811
0.0641695
0.06406
0.0639525
0.0638468
0.0637431
0.0636412
0.0635411
0.0634428
0.0633461
0.063251
0.0631576
0.0630657
0.0629753
0.0628863
0.0627987
0.0627125
0.0626275
0.0625438
0.0624613
0.0623801
0.0623
0.062221
0.0621432
0.0620665
0.0619909
0.0619163
0.0618427
0.0617701
0.0616985
0.0616278
0.061558
0.0614891
0.0614211
0.061354
0.0612876
0.0612221
0.0611573
0.0610933
0.0610301
0.0609675
0.0609058
0.0608447
0.0607843
0.0607246
0.0606655
0.0606071
0.0605493
0.0604921
0.0604354
0.0603794
0.0603239
0.0602689
0.0602146
0.0601607
0.0601075
0.0600547
0.0600024
0.0599507
0.0598994
0.0598486
0.0597983
0.0597485
0.0596991
0.0596502
0.0596017
0.0595537
0.059506
0.0594589
0.0594121
0.0593656
0.0593197
0.0592741
0.0592288
0.059184
0.0591395
0.0590954
0.0590516
0.0590082
0.0589652
0.0589224
0.05888
0.058838
0.0587962
0.0587548
0.0587137
0.0586729
0.0586324
0.0585922
0.0585524
0.0585128
0.0584734
0.0584344
0.0583956
0.0583571
0.0583188
0.0582808
0.0582431
0.0582056
0.0581683
0.0581313
0.0580946
0.0580581
0.0580218
0.0579858
0.05795
0.0579144
0.0578791
0.057844
0.0578091
0.0577744
0.05774
0.0577057
0.0576717
0.0576379
0.0576043
0.0575708
0.0575376
0.0575046
0.0574718
0.057441
0.057412
0.0573829
0.0573537
0.0573244
0.0572951
0.0572656
0.057236
0.0572063
0.0571765
0.0571467
0.0571167
0.0570866
0.0570565
0.0570262
0.0569959
0.0569654
0.0569349
0.0569043
0.0568735
0.0568427
0.0568118
0.0567808
0.0567497
0.0567186
0.0566873
0.056656
0.0566245
0.056593
0.0565614
0.0565297
0.056498
0.0564661
0.0564342
0.0564022
0.0563701
0.0563379
0.0563057
0.0562733
0.0562409
0.0562084
0.0561758
0.0561431
0.0561103
0.0560775
0.0560446
0.0560116
0.0559785
0.0559454
0.0559122
0.055879
0.0558456
0.0558122
0.0557787
0.0557452
0.0557116
0.0556779
0.0556442
0.0556104
0.0555765
0.0555426
0.0555086
0.0554745
0.0554404
0.0554063
0.055372
0.0553378
0.0553034
0.055269
0.0552346
0.0552001
0.0551655
0.0551309
0.0550962
0.0550615
0.0550267
0.0549919
0.054957
0.0549221
0.0548871
0.0548521
0.054817
0.0547819
0.0547468
0.0547116
0.0546763
0.054641
0.0546057
0.0545703
0.0545349
0.0544995
0.054464
0.0544285
0.0543929
0.0543573
0.0543216
0.054286
0.0542503
0.0542145
0.0541787
0.0541429
0.054107
0.0540711
0.0540351
0.0539991
0.0539631
0.0539271
0.053891
0.0538549
0.0538188
0.0537826
0.0537464
0.0537102
0.053674
0.0536378
0.0536015
0.0535652
0.0535289
0.0534926
0.0534563
0.0534199
0.0533835
0.0533471
0.0533108
0.0532743
0.0532379
0.0532015
0.053165
0.0531286
0.0530921
0.0530557
0.0530192
0.0529827
0.0529462
0.0529097
0.0528732
0.0528367
0.0528002
0.0527637
0.0527272
0.0526907
0.0526542
0.0526177
0.0525812
0.0525447
0.0525082
0.0524717
0.0524352
0.0523988
0.0523623
0.0523258
0.0522894
0.052253
0.0522165
0.0521801
0.0521437
0.0521073
0.0520709
0.0520345
0.0519981
0.0519617
0.0519253
0.051889
0.0518527
0.0518164
0.0517801
0.0517438
0.0517075
0.0516713
0.0516351
0.0515989
0.0515627
0.0515266
0.0514905
0.0514544
0.0514184
0.0513823
0.0513464
0.0513104
0.0512745
0.0512385
0.0511986
0.0511552
0.0511123
0.05107
0.0510283
0.0509872
0.0509466
0.0509065
0.050867
0.050828
0.0507895
0.0507515
0.050714
0.0506769
0.0506403
0.0506041
0.0505684
0.0505332
0.0504983
0.0504639
0.0504299
0.0503962
0.050363
0.0503301
0.0502976
0.0502655
0.0502337
0.0502023
0.0501712
0.0501405
0.0501101
0.0500799
0.0500502
0.0500207
0.0499915
0.0499626
0.049934
0.0499057
0.0498777
0.0498499
0.0498225
0.0497953
0.0497684
0.0497417
0.0497153
0.0496892
0.0496633
0.0496376
0.0496122
0.049587
0.0495621
0.0495373
0.0495128
0.0494885
0.0494645
0.0494406
0.049417
0.0493935
0.0493703
0.0493472
0.0493244
0.0493017
0.0492793
0.049257
0.049235
0.049213
0.0491914
0.0491697
0.0491484
0.0491271
0.0491062
0.0490852
0.0490646
0.0490439
0.0490236
0.0490032
0.0489833
0.0489631
0.0489435
0.0489236
0.0489043
0.0488846
0.0488657
0.0488461
0.0488275
0.0488081
0.0487897
0.0487708
0.0487519
0.0487344
0.0487128
0.0487012
0.0486691
0.0486755
0.0486316
)
;
    }
    symmetry
    {
        type            symmetryPlane;
    }
    frontAndBack
    {
        type            empty;
    }
}


// ************************************************************************* //
