/*--------------------------------*- C++ -*----------------------------------*\
| =========                 |                                                 |
| \\      /  F ield         | OpenFOAM: The Open Source CFD Toolbox           |
|  \\    /   O peration     | Version:  v2012                                 |
|   \\  /    A nd           | Website:  www.openfoam.com                      |
|    \\/     M anipulation  |                                                 |
\*---------------------------------------------------------------------------*/
FoamFile
{
    version     2.0;
    format      ascii;
    class       volVectorField;
    location    "29";
    object      wallShearStress;
}
// * * * * * * * * * * * * * * * * * * * * * * * * * * * * * * * * * * * * * //

dimensions      [0 2 -2 0 0 0 0];


internalField   uniform (0 0 0);

boundaryField
{
    inlet
    {
        type            calculated;
        value           uniform (0 0 0);
    }
    outlet
    {
        type            calculated;
        value           uniform (0 0 0);
    }
    topWall
    {
        type            calculated;
        value           nonuniform List<vector> 
545
(
(1.48401e-08 -1.0446e-08 0)
(1.48334e-08 -2.92245e-08 0)
(1.48193e-08 -4.87494e-08 0)
(1.47988e-08 -6.77014e-08 0)
(1.47726e-08 -8.5834e-08 0)
(1.47413e-08 -1.03378e-07 0)
(1.47053e-08 -1.20481e-07 0)
(1.4665e-08 -1.37134e-07 0)
(1.46208e-08 -1.53299e-07 0)
(1.4573e-08 -1.68974e-07 0)
(1.45221e-08 -1.84181e-07 0)
(1.44683e-08 -1.98935e-07 0)
(1.4412e-08 -2.13248e-07 0)
(1.43535e-08 -2.27129e-07 0)
(1.4293e-08 -2.40586e-07 0)
(1.42308e-08 -2.53633e-07 0)
(1.41671e-08 -2.66279e-07 0)
(1.41022e-08 -2.78536e-07 0)
(1.40362e-08 -2.90415e-07 0)
(1.39694e-08 -3.01926e-07 0)
(1.39018e-08 -3.13079e-07 0)
(1.38338e-08 -3.23886e-07 0)
(1.37654e-08 -3.34356e-07 0)
(1.36968e-08 -3.44499e-07 0)
(1.3628e-08 -3.54326e-07 0)
(1.35593e-08 -3.63845e-07 0)
(1.34907e-08 -3.73066e-07 0)
(1.34223e-08 -3.81999e-07 0)
(1.33543e-08 -3.90652e-07 0)
(1.32866e-08 -3.99034e-07 0)
(1.32194e-08 -4.07154e-07 0)
(1.31527e-08 -4.15019e-07 0)
(1.30867e-08 -4.22639e-07 0)
(1.30213e-08 -4.30021e-07 0)
(1.29565e-08 -4.37172e-07 0)
(1.28926e-08 -4.441e-07 0)
(1.28294e-08 -4.50813e-07 0)
(1.2767e-08 -4.57316e-07 0)
(1.27055e-08 -4.63617e-07 0)
(1.26448e-08 -4.69723e-07 0)
(1.25851e-08 -4.75639e-07 0)
(1.25262e-08 -4.81373e-07 0)
(1.24683e-08 -4.86929e-07 0)
(1.24114e-08 -4.92314e-07 0)
(1.23554e-08 -4.97533e-07 0)
(1.23004e-08 -5.02592e-07 0)
(1.22463e-08 -5.07495e-07 0)
(1.21932e-08 -5.12249e-07 0)
(1.21411e-08 -5.16857e-07 0)
(1.209e-08 -5.21324e-07 0)
(1.20398e-08 -5.25656e-07 0)
(1.19906e-08 -5.29856e-07 0)
(1.19424e-08 -5.33929e-07 0)
(1.18951e-08 -5.37878e-07 0)
(1.18488e-08 -5.41708e-07 0)
(1.18034e-08 -5.45423e-07 0)
(1.1759e-08 -5.49026e-07 0)
(1.17155e-08 -5.52521e-07 0)
(1.1673e-08 -5.55912e-07 0)
(1.16313e-08 -5.59201e-07 0)
(1.15905e-08 -5.62392e-07 0)
(1.15506e-08 -5.65488e-07 0)
(1.15116e-08 -5.68492e-07 0)
(1.14735e-08 -5.71408e-07 0)
(1.14362e-08 -5.74237e-07 0)
(1.13997e-08 -5.76982e-07 0)
(1.13641e-08 -5.79647e-07 0)
(1.13292e-08 -5.82234e-07 0)
(1.12952e-08 -5.84744e-07 0)
(1.12619e-08 -5.87181e-07 0)
(1.12294e-08 -5.89548e-07 0)
(1.11978e-08 -5.91842e-07 0)
(1.11672e-08 -5.94046e-07 0)
(1.11371e-08 -5.96183e-07 0)
(1.11073e-08 -5.98294e-07 0)
(1.10776e-08 -6.00392e-07 0)
(1.1048e-08 -6.02478e-07 0)
(1.10185e-08 -6.0455e-07 0)
(1.0989e-08 -6.06606e-07 0)
(1.09596e-08 -6.08646e-07 0)
(1.09302e-08 -6.10672e-07 0)
(1.09009e-08 -6.12683e-07 0)
(1.08717e-08 -6.1468e-07 0)
(1.08425e-08 -6.16662e-07 0)
(1.08134e-08 -6.1863e-07 0)
(1.07843e-08 -6.20583e-07 0)
(1.07553e-08 -6.22523e-07 0)
(1.07264e-08 -6.24448e-07 0)
(1.06975e-08 -6.2636e-07 0)
(1.06687e-08 -6.28257e-07 0)
(1.064e-08 -6.30141e-07 0)
(1.06113e-08 -6.32011e-07 0)
(1.05827e-08 -6.33868e-07 0)
(1.05543e-08 -6.35709e-07 0)
(1.05256e-08 -6.37544e-07 0)
(1.04981e-08 -6.39342e-07 0)
(1.04726e-08 -6.40989e-07 0)
(1.04483e-08 -6.42481e-07 0)
(1.04249e-08 -6.4393e-07 0)
(1.04015e-08 -6.45385e-07 0)
(1.03782e-08 -6.46851e-07 0)
(1.03547e-08 -6.48321e-07 0)
(1.03312e-08 -6.49787e-07 0)
(1.03076e-08 -6.51252e-07 0)
(1.02838e-08 -6.52718e-07 0)
(1.026e-08 -6.54184e-07 0)
(1.02361e-08 -6.5565e-07 0)
(1.02121e-08 -6.57116e-07 0)
(1.0188e-08 -6.58582e-07 0)
(1.01638e-08 -6.60048e-07 0)
(1.01395e-08 -6.61514e-07 0)
(1.01152e-08 -6.6298e-07 0)
(1.00907e-08 -6.64446e-07 0)
(1.00661e-08 -6.65912e-07 0)
(1.00415e-08 -6.67378e-07 0)
(1.00167e-08 -6.68843e-07 0)
(9.99187e-09 -6.70308e-07 0)
(9.96693e-09 -6.71773e-07 0)
(9.9419e-09 -6.73238e-07 0)
(9.91677e-09 -6.74703e-07 0)
(9.89154e-09 -6.76167e-07 0)
(9.86622e-09 -6.77631e-07 0)
(9.84081e-09 -6.79095e-07 0)
(9.8153e-09 -6.80559e-07 0)
(9.7897e-09 -6.82022e-07 0)
(9.764e-09 -6.83484e-07 0)
(9.73821e-09 -6.84946e-07 0)
(9.71233e-09 -6.86408e-07 0)
(9.68635e-09 -6.8787e-07 0)
(9.66027e-09 -6.89331e-07 0)
(9.6341e-09 -6.90791e-07 0)
(9.60783e-09 -6.92251e-07 0)
(9.58147e-09 -6.9371e-07 0)
(9.55502e-09 -6.95169e-07 0)
(9.52847e-09 -6.96627e-07 0)
(9.50182e-09 -6.98084e-07 0)
(9.47508e-09 -6.99541e-07 0)
(9.44824e-09 -7.00997e-07 0)
(9.42131e-09 -7.02453e-07 0)
(9.39429e-09 -7.03907e-07 0)
(9.36717e-09 -7.05361e-07 0)
(9.33995e-09 -7.06814e-07 0)
(9.31264e-09 -7.08266e-07 0)
(9.28524e-09 -7.09718e-07 0)
(9.25774e-09 -7.11168e-07 0)
(9.23015e-09 -7.12618e-07 0)
(9.20246e-09 -7.14067e-07 0)
(9.17467e-09 -7.15515e-07 0)
(9.14679e-09 -7.16961e-07 0)
(9.11882e-09 -7.18407e-07 0)
(9.09075e-09 -7.19852e-07 0)
(9.06259e-09 -7.21296e-07 0)
(9.03434e-09 -7.22738e-07 0)
(9.00599e-09 -7.2418e-07 0)
(8.97754e-09 -7.2562e-07 0)
(8.949e-09 -7.27059e-07 0)
(8.92037e-09 -7.28497e-07 0)
(8.89164e-09 -7.29934e-07 0)
(8.86282e-09 -7.31369e-07 0)
(8.83391e-09 -7.32803e-07 0)
(8.8049e-09 -7.34236e-07 0)
(8.7758e-09 -7.35668e-07 0)
(8.7466e-09 -7.37098e-07 0)
(8.71732e-09 -7.38526e-07 0)
(8.68793e-09 -7.39954e-07 0)
(8.65846e-09 -7.41379e-07 0)
(8.62889e-09 -7.42804e-07 0)
(8.59923e-09 -7.44226e-07 0)
(8.56948e-09 -7.45648e-07 0)
(8.53964e-09 -7.47067e-07 0)
(8.5097e-09 -7.48485e-07 0)
(8.47967e-09 -7.49901e-07 0)
(8.44955e-09 -7.51316e-07 0)
(8.41934e-09 -7.52729e-07 0)
(8.38903e-09 -7.5414e-07 0)
(8.35864e-09 -7.55549e-07 0)
(8.32815e-09 -7.56957e-07 0)
(8.29758e-09 -7.58362e-07 0)
(8.26691e-09 -7.59766e-07 0)
(8.23615e-09 -7.61168e-07 0)
(8.2053e-09 -7.62568e-07 0)
(8.17436e-09 -7.63966e-07 0)
(8.14334e-09 -7.65362e-07 0)
(8.11222e-09 -7.66756e-07 0)
(8.08101e-09 -7.68148e-07 0)
(8.04972e-09 -7.69538e-07 0)
(8.01833e-09 -7.70925e-07 0)
(7.98686e-09 -7.72311e-07 0)
(7.9553e-09 -7.73694e-07 0)
(7.92365e-09 -7.75075e-07 0)
(7.89191e-09 -7.76454e-07 0)
(7.86009e-09 -7.7783e-07 0)
(7.82818e-09 -7.79204e-07 0)
(7.79618e-09 -7.80576e-07 0)
(7.7641e-09 -7.81946e-07 0)
(7.73193e-09 -7.83312e-07 0)
(7.69967e-09 -7.84677e-07 0)
(7.66733e-09 -7.86039e-07 0)
(7.6349e-09 -7.87398e-07 0)
(7.60239e-09 -7.88755e-07 0)
(7.5698e-09 -7.90109e-07 0)
(7.53712e-09 -7.91461e-07 0)
(7.50436e-09 -7.92809e-07 0)
(7.47151e-09 -7.94156e-07 0)
(7.43859e-09 -7.95499e-07 0)
(7.40557e-09 -7.9684e-07 0)
(7.37248e-09 -7.98177e-07 0)
(7.33931e-09 -7.99512e-07 0)
(7.30605e-09 -8.00844e-07 0)
(7.27272e-09 -8.02173e-07 0)
(7.2393e-09 -8.03499e-07 0)
(7.20581e-09 -8.04823e-07 0)
(7.17223e-09 -8.06143e-07 0)
(7.13858e-09 -8.0746e-07 0)
(7.10484e-09 -8.08773e-07 0)
(7.07103e-09 -8.10084e-07 0)
(7.03714e-09 -8.11392e-07 0)
(7.00318e-09 -8.12696e-07 0)
(6.96914e-09 -8.13997e-07 0)
(6.93502e-09 -8.15295e-07 0)
(6.90083e-09 -8.16589e-07 0)
(6.86656e-09 -8.1788e-07 0)
(6.83222e-09 -8.19168e-07 0)
(6.7978e-09 -8.20452e-07 0)
(6.76331e-09 -8.21733e-07 0)
(6.72875e-09 -8.2301e-07 0)
(6.69411e-09 -8.24284e-07 0)
(6.6594e-09 -8.25554e-07 0)
(6.62463e-09 -8.2682e-07 0)
(6.58978e-09 -8.28083e-07 0)
(6.55486e-09 -8.29342e-07 0)
(6.51987e-09 -8.30597e-07 0)
(6.48481e-09 -8.31849e-07 0)
(6.44969e-09 -8.33097e-07 0)
(6.4145e-09 -8.3434e-07 0)
(6.37924e-09 -8.3558e-07 0)
(6.34391e-09 -8.36816e-07 0)
(6.30852e-09 -8.38048e-07 0)
(6.27307e-09 -8.39276e-07 0)
(6.23755e-09 -8.405e-07 0)
(6.20196e-09 -8.4172e-07 0)
(6.16632e-09 -8.42936e-07 0)
(6.13061e-09 -8.44148e-07 0)
(6.09484e-09 -8.45355e-07 0)
(6.05901e-09 -8.46558e-07 0)
(6.02311e-09 -8.47757e-07 0)
(5.98716e-09 -8.48951e-07 0)
(5.95115e-09 -8.50142e-07 0)
(5.91509e-09 -8.51327e-07 0)
(5.87896e-09 -8.52509e-07 0)
(5.84278e-09 -8.53686e-07 0)
(5.80655e-09 -8.54858e-07 0)
(5.77026e-09 -8.56026e-07 0)
(5.73391e-09 -8.57189e-07 0)
(5.69751e-09 -8.58347e-07 0)
(5.66106e-09 -8.59501e-07 0)
(5.62456e-09 -8.6065e-07 0)
(5.588e-09 -8.61795e-07 0)
(5.5514e-09 -8.62934e-07 0)
(5.51475e-09 -8.64069e-07 0)
(5.47805e-09 -8.65199e-07 0)
(5.4413e-09 -8.66324e-07 0)
(5.4045e-09 -8.67444e-07 0)
(5.36766e-09 -8.68559e-07 0)
(5.33078e-09 -8.69669e-07 0)
(5.29384e-09 -8.70774e-07 0)
(5.2569e-09 -8.71874e-07 0)
(5.21972e-09 -8.72971e-07 0)
(5.18338e-09 -8.74053e-07 0)
(5.1485e-09 -8.7508e-07 0)
(5.1144e-09 -8.76054e-07 0)
(5.08074e-09 -8.77016e-07 0)
(5.04694e-09 -8.77984e-07 0)
(5.01285e-09 -8.7896e-07 0)
(4.97844e-09 -8.79941e-07 0)
(4.94371e-09 -8.80924e-07 0)
(4.90865e-09 -8.81911e-07 0)
(4.87325e-09 -8.82901e-07 0)
(4.83752e-09 -8.83895e-07 0)
(4.80146e-09 -8.84893e-07 0)
(4.76505e-09 -8.85894e-07 0)
(4.72831e-09 -8.86897e-07 0)
(4.69122e-09 -8.87904e-07 0)
(4.65379e-09 -8.88914e-07 0)
(4.61602e-09 -8.89926e-07 0)
(4.5779e-09 -8.90942e-07 0)
(4.53943e-09 -8.91959e-07 0)
(4.50061e-09 -8.92979e-07 0)
(4.46144e-09 -8.94001e-07 0)
(4.42192e-09 -8.95025e-07 0)
(4.38205e-09 -8.96051e-07 0)
(4.34182e-09 -8.97079e-07 0)
(4.30123e-09 -8.98108e-07 0)
(4.26029e-09 -8.99139e-07 0)
(4.21899e-09 -9.0017e-07 0)
(4.17734e-09 -9.01203e-07 0)
(4.13532e-09 -9.02237e-07 0)
(4.09294e-09 -9.03271e-07 0)
(4.05021e-09 -9.04306e-07 0)
(4.00711e-09 -9.0534e-07 0)
(3.96365e-09 -9.06375e-07 0)
(3.91983e-09 -9.0741e-07 0)
(3.87564e-09 -9.08444e-07 0)
(3.8311e-09 -9.09478e-07 0)
(3.78619e-09 -9.1051e-07 0)
(3.74092e-09 -9.11542e-07 0)
(3.69528e-09 -9.12572e-07 0)
(3.64929e-09 -9.136e-07 0)
(3.60293e-09 -9.14627e-07 0)
(3.55622e-09 -9.15651e-07 0)
(3.50914e-09 -9.16673e-07 0)
(3.4617e-09 -9.17692e-07 0)
(3.41391e-09 -9.18708e-07 0)
(3.36575e-09 -9.19721e-07 0)
(3.31724e-09 -9.2073e-07 0)
(3.26838e-09 -9.21735e-07 0)
(3.21916e-09 -9.22736e-07 0)
(3.1696e-09 -9.23733e-07 0)
(3.11968e-09 -9.24725e-07 0)
(3.06942e-09 -9.25711e-07 0)
(3.01881e-09 -9.26692e-07 0)
(2.96786e-09 -9.27667e-07 0)
(2.91657e-09 -9.28636e-07 0)
(2.86494e-09 -9.29598e-07 0)
(2.81298e-09 -9.30553e-07 0)
(2.76068e-09 -9.31501e-07 0)
(2.70806e-09 -9.32441e-07 0)
(2.65512e-09 -9.33372e-07 0)
(2.60186e-09 -9.34296e-07 0)
(2.54828e-09 -9.3521e-07 0)
(2.49439e-09 -9.36115e-07 0)
(2.44019e-09 -9.3701e-07 0)
(2.38569e-09 -9.37895e-07 0)
(2.3309e-09 -9.38769e-07 0)
(2.27581e-09 -9.39632e-07 0)
(2.22044e-09 -9.40484e-07 0)
(2.16478e-09 -9.41324e-07 0)
(2.10886e-09 -9.42151e-07 0)
(2.05266e-09 -9.42965e-07 0)
(1.9962e-09 -9.43765e-07 0)
(1.93949e-09 -9.44552e-07 0)
(1.88254e-09 -9.45324e-07 0)
(1.82534e-09 -9.46081e-07 0)
(1.76791e-09 -9.46823e-07 0)
(1.71026e-09 -9.47548e-07 0)
(1.65239e-09 -9.48258e-07 0)
(1.59431e-09 -9.4895e-07 0)
(1.53604e-09 -9.49624e-07 0)
(1.47758e-09 -9.50281e-07 0)
(1.41894e-09 -9.50918e-07 0)
(1.36013e-09 -9.51537e-07 0)
(1.30117e-09 -9.52135e-07 0)
(1.24205e-09 -9.52713e-07 0)
(1.1828e-09 -9.53271e-07 0)
(1.12342e-09 -9.53806e-07 0)
(1.06393e-09 -9.5432e-07 0)
(1.00433e-09 -9.5481e-07 0)
(9.44646e-10 -9.55277e-07 0)
(8.84883e-10 -9.55721e-07 0)
(8.25055e-10 -9.56139e-07 0)
(7.65177e-10 -9.56533e-07 0)
(7.0526e-10 -9.56901e-07 0)
(6.45319e-10 -9.57242e-07 0)
(5.85369e-10 -9.57556e-07 0)
(5.25424e-10 -9.57843e-07 0)
(4.65499e-10 -9.58101e-07 0)
(4.0561e-10 -9.5833e-07 0)
(3.45771e-10 -9.5853e-07 0)
(2.86e-10 -9.58699e-07 0)
(2.26311e-10 -9.58837e-07 0)
(1.66723e-10 -9.58944e-07 0)
(1.07251e-10 -9.59019e-07 0)
(4.79129e-11 -9.59061e-07 0)
(-1.12734e-11 -9.5907e-07 0)
(-7.02903e-11 -9.59044e-07 0)
(-1.2912e-10 -9.58984e-07 0)
(-1.87743e-10 -9.58888e-07 0)
(-2.46142e-10 -9.58757e-07 0)
(-3.04297e-10 -9.58589e-07 0)
(-3.6219e-10 -9.58383e-07 0)
(-4.198e-10 -9.5814e-07 0)
(-4.77108e-10 -9.57858e-07 0)
(-5.34095e-10 -9.57538e-07 0)
(-5.90739e-10 -9.57177e-07 0)
(-6.47021e-10 -9.56776e-07 0)
(-7.0292e-10 -9.56335e-07 0)
(-7.58415e-10 -9.55852e-07 0)
(-8.13486e-10 -9.55326e-07 0)
(-8.68111e-10 -9.54759e-07 0)
(-9.2227e-10 -9.54148e-07 0)
(-9.75941e-10 -9.53493e-07 0)
(-1.0291e-09 -9.52794e-07 0)
(-1.08173e-09 -9.52051e-07 0)
(-1.13381e-09 -9.51262e-07 0)
(-1.18532e-09 -9.50428e-07 0)
(-1.23623e-09 -9.49547e-07 0)
(-1.28653e-09 -9.4862e-07 0)
(-1.33618e-09 -9.47645e-07 0)
(-1.38518e-09 -9.46623e-07 0)
(-1.4335e-09 -9.45553e-07 0)
(-1.48112e-09 -9.44435e-07 0)
(-1.52801e-09 -9.43268e-07 0)
(-1.57416e-09 -9.42052e-07 0)
(-1.61955e-09 -9.40786e-07 0)
(-1.66415e-09 -9.39471e-07 0)
(-1.70795e-09 -9.38106e-07 0)
(-1.75092e-09 -9.3669e-07 0)
(-1.79305e-09 -9.35224e-07 0)
(-1.83432e-09 -9.33707e-07 0)
(-1.8747e-09 -9.3214e-07 0)
(-1.91418e-09 -9.30521e-07 0)
(-1.95274e-09 -9.28851e-07 0)
(-1.99036e-09 -9.2713e-07 0)
(-2.02703e-09 -9.25357e-07 0)
(-2.06272e-09 -9.23533e-07 0)
(-2.09743e-09 -9.21657e-07 0)
(-2.13113e-09 -9.1973e-07 0)
(-2.16382e-09 -9.17751e-07 0)
(-2.19546e-09 -9.15721e-07 0)
(-2.22606e-09 -9.1364e-07 0)
(-2.2556e-09 -9.11508e-07 0)
(-2.28406e-09 -9.09324e-07 0)
(-2.31144e-09 -9.0709e-07 0)
(-2.33771e-09 -9.04805e-07 0)
(-2.36288e-09 -9.0247e-07 0)
(-2.38692e-09 -9.00084e-07 0)
(-2.40984e-09 -8.97649e-07 0)
(-2.43162e-09 -8.95165e-07 0)
(-2.45225e-09 -8.92632e-07 0)
(-2.47173e-09 -8.9005e-07 0)
(-2.49005e-09 -8.8742e-07 0)
(-2.50721e-09 -8.84743e-07 0)
(-2.5232e-09 -8.82019e-07 0)
(-2.53802e-09 -8.79248e-07 0)
(-2.55166e-09 -8.76431e-07 0)
(-2.56413e-09 -8.7357e-07 0)
(-2.57542e-09 -8.70664e-07 0)
(-2.58553e-09 -8.67714e-07 0)
(-2.59446e-09 -8.64721e-07 0)
(-2.60222e-09 -8.61685e-07 0)
(-2.6088e-09 -8.58609e-07 0)
(-2.61422e-09 -8.55492e-07 0)
(-2.61847e-09 -8.52335e-07 0)
(-2.62156e-09 -8.49139e-07 0)
(-2.6235e-09 -8.45906e-07 0)
(-2.62428e-09 -8.42636e-07 0)
(-2.62394e-09 -8.39331e-07 0)
(-2.62244e-09 -8.35988e-07 0)
(-2.6199e-09 -8.32617e-07 0)
(-2.61587e-09 -8.29175e-07 0)
(-2.6102e-09 -8.25375e-07 0)
(-2.60303e-09 -8.21209e-07 0)
(-2.5942e-09 -8.16974e-07 0)
(-2.58391e-09 -8.12763e-07 0)
(-2.5723e-09 -8.08594e-07 0)
(-2.55947e-09 -8.04449e-07 0)
(-2.54548e-09 -8.0032e-07 0)
(-2.5304e-09 -7.96212e-07 0)
(-2.51428e-09 -7.9213e-07 0)
(-2.49718e-09 -7.88076e-07 0)
(-2.47918e-09 -7.8405e-07 0)
(-2.46031e-09 -7.80054e-07 0)
(-2.44064e-09 -7.76089e-07 0)
(-2.42021e-09 -7.72157e-07 0)
(-2.39907e-09 -7.68258e-07 0)
(-2.37727e-09 -7.64394e-07 0)
(-2.35484e-09 -7.60566e-07 0)
(-2.33183e-09 -7.56775e-07 0)
(-2.30828e-09 -7.53022e-07 0)
(-2.28422e-09 -7.49307e-07 0)
(-2.25969e-09 -7.45631e-07 0)
(-2.23471e-09 -7.41996e-07 0)
(-2.20932e-09 -7.38401e-07 0)
(-2.18355e-09 -7.34848e-07 0)
(-2.15742e-09 -7.31336e-07 0)
(-2.13096e-09 -7.27868e-07 0)
(-2.10419e-09 -7.24442e-07 0)
(-2.07713e-09 -7.2106e-07 0)
(-2.0498e-09 -7.17722e-07 0)
(-2.02223e-09 -7.14428e-07 0)
(-1.99443e-09 -7.11179e-07 0)
(-1.96641e-09 -7.07976e-07 0)
(-1.9382e-09 -7.04817e-07 0)
(-1.90979e-09 -7.01705e-07 0)
(-1.88122e-09 -6.98639e-07 0)
(-1.85248e-09 -6.95619e-07 0)
(-1.8236e-09 -6.92646e-07 0)
(-1.79457e-09 -6.89719e-07 0)
(-1.76542e-09 -6.8684e-07 0)
(-1.73614e-09 -6.84008e-07 0)
(-1.70674e-09 -6.81223e-07 0)
(-1.67724e-09 -6.78486e-07 0)
(-1.64763e-09 -6.75797e-07 0)
(-1.61792e-09 -6.73156e-07 0)
(-1.58812e-09 -6.70562e-07 0)
(-1.55823e-09 -6.68018e-07 0)
(-1.52826e-09 -6.65521e-07 0)
(-1.4982e-09 -6.63074e-07 0)
(-1.46806e-09 -6.60674e-07 0)
(-1.43785e-09 -6.58324e-07 0)
(-1.40756e-09 -6.56023e-07 0)
(-1.37719e-09 -6.5377e-07 0)
(-1.34676e-09 -6.51567e-07 0)
(-1.31625e-09 -6.49413e-07 0)
(-1.28567e-09 -6.47309e-07 0)
(-1.25502e-09 -6.45254e-07 0)
(-1.2243e-09 -6.43249e-07 0)
(-1.19352e-09 -6.41293e-07 0)
(-1.16266e-09 -6.39387e-07 0)
(-1.13174e-09 -6.37532e-07 0)
(-1.10075e-09 -6.35726e-07 0)
(-1.06969e-09 -6.33971e-07 0)
(-1.03856e-09 -6.32265e-07 0)
(-1.00736e-09 -6.30611e-07 0)
(-9.76102e-10 -6.29006e-07 0)
(-9.44771e-10 -6.27453e-07 0)
(-9.13374e-10 -6.2595e-07 0)
(-8.8191e-10 -6.24498e-07 0)
(-8.5038e-10 -6.23097e-07 0)
(-8.18784e-10 -6.21747e-07 0)
(-7.87124e-10 -6.20448e-07 0)
(-7.55399e-10 -6.192e-07 0)
(-7.23612e-10 -6.18004e-07 0)
(-6.91762e-10 -6.16859e-07 0)
(-6.59852e-10 -6.15766e-07 0)
(-6.27883e-10 -6.14724e-07 0)
(-5.95856e-10 -6.13734e-07 0)
(-5.63773e-10 -6.12797e-07 0)
(-5.31637e-10 -6.11911e-07 0)
(-4.99448e-10 -6.11077e-07 0)
(-4.6721e-10 -6.10295e-07 0)
(-4.34925e-10 -6.09565e-07 0)
(-4.02595e-10 -6.08888e-07 0)
(-3.70223e-10 -6.08263e-07 0)
(-3.37811e-10 -6.07689e-07 0)
(-3.05364e-10 -6.07173e-07 0)
(-2.72882e-10 -6.06692e-07 0)
(-2.40376e-10 -6.06319e-07 0)
(-2.07822e-10 -6.05816e-07 0)
(-1.7531e-10 -6.05965e-07 0)
(-1.42564e-10 -6.04134e-07 0)
(-1.10522e-10 -6.08845e-07 0)
(-7.6163e-11 -5.90475e-07 0)
(-4.99712e-11 -6.38862e-07 0)
(-2.13139e-11 -5.57946e-07 0)
)
;
    }
    bottomWall
    {
        type            calculated;
        value           nonuniform List<vector> 
449
(
(-48.5464 -0.964301 0)
(-19.7566 -0.00515692 0)
(-14.3473 -0.00113519 0)
(-12.0368 -0.000545698 0)
(-10.6302 -0.000351643 0)
(-9.63598 -0.000256103 0)
(-8.87758 -0.000198571 0)
(-8.27381 -0.000159885 0)
(-7.77816 -0.000132383 0)
(-7.36135 -0.000112027 0)
(-7.00419 -9.64201e-05 0)
(-6.69363 -8.41078e-05 0)
(-6.42035 -7.41855e-05 0)
(-6.17745 -6.60543e-05 0)
(-5.95967 -5.92944e-05 0)
(-5.76293 -5.36024e-05 0)
(-5.58405 -4.8756e-05 0)
(-5.42048 -4.45892e-05 0)
(-5.27012 -4.09761e-05 0)
(-5.1313 -3.78191e-05 0)
(-5.0026 -3.50416e-05 0)
(-4.88284 -3.25827e-05 0)
(-4.77102 -3.03937e-05 0)
(-4.66631 -2.84349e-05 0)
(-4.56797 -2.66739e-05 0)
(-4.47539 -2.50839e-05 0)
(-4.38801 -2.36425e-05 0)
(-4.30536 -2.23311e-05 0)
(-4.22703 -2.11339e-05 0)
(-4.15265 -2.00375e-05 0)
(-4.0819 -1.90305e-05 0)
(-4.0145 -1.81029e-05 0)
(-3.95017 -1.72464e-05 0)
(-3.8887 -1.64535e-05 0)
(-3.82988 -1.57178e-05 0)
(-3.77351 -1.50339e-05 0)
(-3.71944 -1.43967e-05 0)
(-3.66751 -1.38018e-05 0)
(-3.61757 -1.32456e-05 0)
(-3.56951 -1.27245e-05 0)
(-3.52321 -1.22356e-05 0)
(-3.47857 -1.17762e-05 0)
(-3.43548 -1.13438e-05 0)
(-3.39385 -1.09363e-05 0)
(-3.35361 -1.05517e-05 0)
(-3.31468 -1.01884e-05 0)
(-3.27698 -9.84455e-06 0)
(-3.24046 -9.5189e-06 0)
(-3.20505 -9.2101e-06 0)
(-3.1707 -8.91696e-06 0)
(-3.13735 -8.63839e-06 0)
(-3.10496 -8.37341e-06 0)
(-3.07348 -8.12112e-06 0)
(-3.04286 -7.88069e-06 0)
(-3.01308 -7.65135e-06 0)
(-2.98408 -7.43241e-06 0)
(-2.95584 -7.22323e-06 0)
(-2.92833 -7.02321e-06 0)
(-2.9015 -6.8318e-06 0)
(-2.87535 -6.6485e-06 0)
(-2.84982 -6.47284e-06 0)
(-2.82491 -6.30439e-06 0)
(-2.80058 -6.14273e-06 0)
(-2.77682 -5.98751e-06 0)
(-2.7536 -5.83836e-06 0)
(-2.7309 -5.69496e-06 0)
(-2.7087 -5.55701e-06 0)
(-2.68698 -5.42423e-06 0)
(-2.66573 -5.29635e-06 0)
(-2.64493 -5.17313e-06 0)
(-2.62456 -5.05433e-06 0)
(-2.60461 -4.93973e-06 0)
(-2.58506 -4.82914e-06 0)
(-2.5659 -4.72237e-06 0)
(-2.54712 -4.61922e-06 0)
(-2.5287 -4.51954e-06 0)
(-2.51063 -4.42317e-06 0)
(-2.49291 -4.32995e-06 0)
(-2.47552 -4.23974e-06 0)
(-2.45844 -4.15242e-06 0)
(-2.44168 -4.06785e-06 0)
(-2.42522 -3.98592e-06 0)
(-2.40905 -3.90651e-06 0)
(-2.39316 -3.82952e-06 0)
(-2.37755 -3.75485e-06 0)
(-2.3622 -3.6824e-06 0)
(-2.34711 -3.61208e-06 0)
(-2.33227 -3.54381e-06 0)
(-2.31768 -3.47751e-06 0)
(-2.30333 -3.41309e-06 0)
(-2.28921 -3.35049e-06 0)
(-2.27531 -3.28963e-06 0)
(-2.26163 -3.23045e-06 0)
(-2.24817 -3.17289e-06 0)
(-2.23491 -3.11688e-06 0)
(-2.22186 -3.06237e-06 0)
(-2.209 -3.0093e-06 0)
(-2.19633 -2.95763e-06 0)
(-2.18385 -2.90729e-06 0)
(-2.17156 -2.85825e-06 0)
(-2.15944 -2.81046e-06 0)
(-2.14749 -2.76387e-06 0)
(-2.13572 -2.71845e-06 0)
(-2.12411 -2.67415e-06 0)
(-2.11266 -2.63094e-06 0)
(-2.10137 -2.58877e-06 0)
(-2.09023 -2.54763e-06 0)
(-2.07924 -2.50746e-06 0)
(-2.0684 -2.46824e-06 0)
(-2.05771 -2.42995e-06 0)
(-2.04715 -2.39254e-06 0)
(-2.03673 -2.356e-06 0)
(-2.02645 -2.32029e-06 0)
(-2.0163 -2.28538e-06 0)
(-2.00627 -2.25127e-06 0)
(-1.99637 -2.21791e-06 0)
(-1.9866 -2.18529e-06 0)
(-1.97694 -2.15338e-06 0)
(-1.96741 -2.12217e-06 0)
(-1.95799 -2.09163e-06 0)
(-1.94868 -2.06175e-06 0)
(-1.93948 -2.03249e-06 0)
(-1.93039 -2.00386e-06 0)
(-1.92141 -1.97582e-06 0)
(-1.91253 -1.94836e-06 0)
(-1.90376 -1.92147e-06 0)
(-1.89508 -1.89513e-06 0)
(-1.88651 -1.86932e-06 0)
(-1.87802 -1.84403e-06 0)
(-1.86964 -1.81925e-06 0)
(-1.86135 -1.79496e-06 0)
(-1.85314 -1.77114e-06 0)
(-1.84503 -1.74779e-06 0)
(-1.83701 -1.7249e-06 0)
(-1.82907 -1.70244e-06 0)
(-1.82121 -1.68042e-06 0)
(-1.81344 -1.65881e-06 0)
(-1.80575 -1.63761e-06 0)
(-1.79814 -1.61681e-06 0)
(-1.79061 -1.59639e-06 0)
(-1.78316 -1.57636e-06 0)
(-1.77578 -1.55669e-06 0)
(-1.76848 -1.53738e-06 0)
(-1.76125 -1.51842e-06 0)
(-1.75409 -1.4998e-06 0)
(-1.747 -1.48151e-06 0)
(-1.73999 -1.46355e-06 0)
(-1.73304 -1.4459e-06 0)
(-1.72616 -1.42857e-06 0)
(-1.71934 -1.41154e-06 0)
(-1.71259 -1.3948e-06 0)
(-1.70591 -1.37835e-06 0)
(-1.69928 -1.36218e-06 0)
(-1.69272 -1.34629e-06 0)
(-1.68622 -1.33066e-06 0)
(-1.67978 -1.3153e-06 0)
(-1.6734 -1.3002e-06 0)
(-1.66708 -1.28534e-06 0)
(-1.66081 -1.27073e-06 0)
(-1.65461 -1.25636e-06 0)
(-1.64845 -1.24223e-06 0)
(-1.64235 -1.22832e-06 0)
(-1.63631 -1.21464e-06 0)
(-1.63032 -1.20118e-06 0)
(-1.62438 -1.18794e-06 0)
(-1.61849 -1.1749e-06 0)
(-1.61265 -1.16207e-06 0)
(-1.60687 -1.14945e-06 0)
(-1.60113 -1.13704e-06 0)
(-1.59544 -1.1247e-06 0)
(-1.5898 -1.11299e-06 0)
(-1.5842 -1.10087e-06 0)
(-1.57866 -1.08773e-06 0)
(-1.57347 -1.07755e-06 0)
(-1.56859 -1.0693e-06 0)
(-1.5637 -1.05892e-06 0)
(-1.55882 -1.04821e-06 0)
(-1.55392 -1.03818e-06 0)
(-1.54902 -1.02813e-06 0)
(-1.54412 -1.0182e-06 0)
(-1.53921 -1.00833e-06 0)
(-1.53429 -9.98533e-07 0)
(-1.52937 -9.88793e-07 0)
(-1.52444 -9.79112e-07 0)
(-1.51951 -9.69487e-07 0)
(-1.51458 -9.59919e-07 0)
(-1.50964 -9.50407e-07 0)
(-1.5047 -9.40951e-07 0)
(-1.49975 -9.3155e-07 0)
(-1.4948 -9.22204e-07 0)
(-1.48984 -9.12915e-07 0)
(-1.48489 -9.03681e-07 0)
(-1.47993 -8.94504e-07 0)
(-1.47496 -8.85383e-07 0)
(-1.47 -8.76319e-07 0)
(-1.46503 -8.67311e-07 0)
(-1.46006 -8.58361e-07 0)
(-1.45508 -8.49468e-07 0)
(-1.45011 -8.40632e-07 0)
(-1.44513 -8.31854e-07 0)
(-1.44015 -8.23134e-07 0)
(-1.43517 -8.14473e-07 0)
(-1.43019 -8.05869e-07 0)
(-1.42521 -7.97324e-07 0)
(-1.42023 -7.88838e-07 0)
(-1.41525 -7.8041e-07 0)
(-1.41026 -7.72042e-07 0)
(-1.40528 -7.63733e-07 0)
(-1.4003 -7.55482e-07 0)
(-1.39532 -7.47291e-07 0)
(-1.39033 -7.3916e-07 0)
(-1.38535 -7.31088e-07 0)
(-1.38037 -7.23076e-07 0)
(-1.3754 -7.15123e-07 0)
(-1.37042 -7.07231e-07 0)
(-1.36544 -6.99397e-07 0)
(-1.36047 -6.91624e-07 0)
(-1.3555 -6.83911e-07 0)
(-1.35053 -6.76258e-07 0)
(-1.34556 -6.68664e-07 0)
(-1.34059 -6.61131e-07 0)
(-1.33563 -6.53657e-07 0)
(-1.33067 -6.46243e-07 0)
(-1.32571 -6.38889e-07 0)
(-1.32076 -6.31595e-07 0)
(-1.31581 -6.24361e-07 0)
(-1.31086 -6.17186e-07 0)
(-1.30592 -6.10072e-07 0)
(-1.30098 -6.03016e-07 0)
(-1.29605 -5.96021e-07 0)
(-1.29112 -5.89085e-07 0)
(-1.28619 -5.82208e-07 0)
(-1.28127 -5.7539e-07 0)
(-1.27635 -5.68632e-07 0)
(-1.27144 -5.61933e-07 0)
(-1.26654 -5.55292e-07 0)
(-1.26164 -5.48711e-07 0)
(-1.25674 -5.42188e-07 0)
(-1.25185 -5.35723e-07 0)
(-1.24697 -5.29317e-07 0)
(-1.24209 -5.22969e-07 0)
(-1.23722 -5.1668e-07 0)
(-1.23236 -5.10448e-07 0)
(-1.2275 -5.04273e-07 0)
(-1.22265 -4.98156e-07 0)
(-1.2178 -4.92097e-07 0)
(-1.21296 -4.86094e-07 0)
(-1.20813 -4.80149e-07 0)
(-1.20331 -4.7426e-07 0)
(-1.19849 -4.68427e-07 0)
(-1.19369 -4.62651e-07 0)
(-1.18889 -4.5693e-07 0)
(-1.18409 -4.51266e-07 0)
(-1.17931 -4.45657e-07 0)
(-1.17453 -4.40103e-07 0)
(-1.16976 -4.34604e-07 0)
(-1.165 -4.2916e-07 0)
(-1.16025 -4.23771e-07 0)
(-1.15551 -4.18435e-07 0)
(-1.15078 -4.13154e-07 0)
(-1.14605 -4.07926e-07 0)
(-1.14134 -4.02752e-07 0)
(-1.13663 -3.97631e-07 0)
(-1.13194 -3.92563e-07 0)
(-1.12725 -3.87547e-07 0)
(-1.12257 -3.82583e-07 0)
(-1.11791 -3.77672e-07 0)
(-1.11325 -3.72812e-07 0)
(-1.1086 -3.68003e-07 0)
(-1.10396 -3.63246e-07 0)
(-1.09934 -3.58539e-07 0)
(-1.09472 -3.53883e-07 0)
(-1.09011 -3.49276e-07 0)
(-1.08552 -3.4472e-07 0)
(-1.08093 -3.40213e-07 0)
(-1.07636 -3.35755e-07 0)
(-1.0718 -3.31346e-07 0)
(-1.06725 -3.26985e-07 0)
(-1.06271 -3.22673e-07 0)
(-1.05818 -3.18408e-07 0)
(-1.05366 -3.14191e-07 0)
(-1.04915 -3.10021e-07 0)
(-1.04466 -3.05897e-07 0)
(-1.04017 -3.01821e-07 0)
(-1.0357 -2.9779e-07 0)
(-1.03124 -2.93805e-07 0)
(-1.02679 -2.89865e-07 0)
(-1.02236 -2.85971e-07 0)
(-1.01793 -2.82121e-07 0)
(-1.01352 -2.78316e-07 0)
(-1.00912 -2.74554e-07 0)
(-1.00474 -2.70837e-07 0)
(-1.00036 -2.67162e-07 0)
(-0.995999 -2.63531e-07 0)
(-0.99165 -2.59942e-07 0)
(-0.987313 -2.56396e-07 0)
(-0.982989 -2.52891e-07 0)
(-0.978677 -2.49428e-07 0)
(-0.974379 -2.46006e-07 0)
(-0.970093 -2.42626e-07 0)
(-0.965821 -2.39285e-07 0)
(-0.961562 -2.35985e-07 0)
(-0.957315 -2.32724e-07 0)
(-0.953082 -2.29503e-07 0)
(-0.948863 -2.26322e-07 0)
(-0.944656 -2.23178e-07 0)
(-0.940463 -2.20074e-07 0)
(-0.936284 -2.17007e-07 0)
(-0.932118 -2.13978e-07 0)
(-0.927965 -2.10986e-07 0)
(-0.923826 -2.08032e-07 0)
(-0.919701 -2.05113e-07 0)
(-0.91559 -2.02232e-07 0)
(-0.911492 -1.99386e-07 0)
(-0.907408 -1.96576e-07 0)
(-0.903338 -1.93801e-07 0)
(-0.899282 -1.91061e-07 0)
(-0.895239 -1.88355e-07 0)
(-0.891211 -1.85684e-07 0)
(-0.887197 -1.83047e-07 0)
(-0.883197 -1.80443e-07 0)
(-0.87921 -1.77872e-07 0)
(-0.875238 -1.75335e-07 0)
(-0.871281 -1.7283e-07 0)
(-0.867337 -1.70357e-07 0)
(-0.863408 -1.67916e-07 0)
(-0.859492 -1.65506e-07 0)
(-0.855592 -1.63128e-07 0)
(-0.851705 -1.60781e-07 0)
(-0.847833 -1.58464e-07 0)
(-0.843975 -1.56177e-07 0)
(-0.840131 -1.53921e-07 0)
(-0.836302 -1.51693e-07 0)
(-0.832488 -1.49496e-07 0)
(-0.828687 -1.47327e-07 0)
(-0.824902 -1.45187e-07 0)
(-0.82113 -1.43075e-07 0)
(-0.817374 -1.40991e-07 0)
(-0.813632 -1.38935e-07 0)
(-0.809904 -1.36907e-07 0)
(-0.806191 -1.34905e-07 0)
(-0.802492 -1.3293e-07 0)
(-0.798808 -1.30982e-07 0)
(-0.795139 -1.2906e-07 0)
(-0.791484 -1.27164e-07 0)
(-0.787844 -1.25293e-07 0)
(-0.784218 -1.23448e-07 0)
(-0.780607 -1.21627e-07 0)
(-0.777011 -1.1983e-07 0)
(-0.773429 -1.1806e-07 0)
(-0.769862 -1.16309e-07 0)
(-0.766309 -1.1455e-07 0)
(-0.762774 -1.12931e-07 0)
(-0.759246 -1.11323e-07 0)
(-0.75534 -1.09371e-07 0)
(-0.751105 -1.07304e-07 0)
(-0.746948 -1.05441e-07 0)
(-0.742859 -1.03671e-07 0)
(-0.73884 -1.01887e-07 0)
(-0.734891 -1.00136e-07 0)
(-0.731009 -9.84289e-08 0)
(-0.727193 -9.67677e-08 0)
(-0.723441 -9.51509e-08 0)
(-0.719751 -9.35772e-08 0)
(-0.716122 -9.20454e-08 0)
(-0.712552 -9.05542e-08 0)
(-0.70904 -8.91022e-08 0)
(-0.705584 -8.76881e-08 0)
(-0.702182 -8.63104e-08 0)
(-0.698834 -8.4968e-08 0)
(-0.695537 -8.36596e-08 0)
(-0.692291 -8.2384e-08 0)
(-0.689094 -8.114e-08 0)
(-0.685946 -7.99267e-08 0)
(-0.682844 -7.87429e-08 0)
(-0.679787 -7.75877e-08 0)
(-0.676776 -7.64601e-08 0)
(-0.673808 -7.53592e-08 0)
(-0.670882 -7.42842e-08 0)
(-0.667999 -7.32341e-08 0)
(-0.665155 -7.22083e-08 0)
(-0.662352 -7.12059e-08 0)
(-0.659587 -7.02262e-08 0)
(-0.65686 -6.92685e-08 0)
(-0.65417 -6.83321e-08 0)
(-0.651516 -6.74164e-08 0)
(-0.648898 -6.65207e-08 0)
(-0.646314 -6.56444e-08 0)
(-0.643764 -6.4787e-08 0)
(-0.641247 -6.39479e-08 0)
(-0.638763 -6.31266e-08 0)
(-0.636311 -6.23225e-08 0)
(-0.633889 -6.15352e-08 0)
(-0.631499 -6.07641e-08 0)
(-0.629138 -6.00089e-08 0)
(-0.626806 -5.9269e-08 0)
(-0.624503 -5.85441e-08 0)
(-0.622228 -5.78337e-08 0)
(-0.61998 -5.71375e-08 0)
(-0.617759 -5.6455e-08 0)
(-0.615565 -5.57859e-08 0)
(-0.613397 -5.51298e-08 0)
(-0.611254 -5.44864e-08 0)
(-0.609136 -5.38554e-08 0)
(-0.607043 -5.32364e-08 0)
(-0.604973 -5.26292e-08 0)
(-0.602927 -5.20334e-08 0)
(-0.600904 -5.14488e-08 0)
(-0.598904 -5.0875e-08 0)
(-0.596926 -5.03118e-08 0)
(-0.59497 -4.97591e-08 0)
(-0.593035 -4.92164e-08 0)
(-0.591121 -4.86836e-08 0)
(-0.589228 -4.81604e-08 0)
(-0.587355 -4.76467e-08 0)
(-0.585502 -4.71423e-08 0)
(-0.583668 -4.66468e-08 0)
(-0.581854 -4.61602e-08 0)
(-0.580059 -4.56822e-08 0)
(-0.578282 -4.52128e-08 0)
(-0.576523 -4.47516e-08 0)
(-0.574783 -4.42987e-08 0)
(-0.573059 -4.38538e-08 0)
(-0.571353 -4.34169e-08 0)
(-0.569664 -4.29877e-08 0)
(-0.567992 -4.25664e-08 0)
(-0.566336 -4.21527e-08 0)
(-0.564696 -4.17466e-08 0)
(-0.563072 -4.13483e-08 0)
(-0.561463 -4.09576e-08 0)
(-0.559869 -4.05747e-08 0)
(-0.55829 -4.01997e-08 0)
(-0.556725 -3.9833e-08 0)
(-0.555175 -3.9475e-08 0)
(-0.553639 -3.91261e-08 0)
(-0.552116 -3.87873e-08 0)
(-0.550606 -3.84599e-08 0)
(-0.549108 -3.81454e-08 0)
(-0.547623 -3.78464e-08 0)
(-0.546149 -3.75744e-08 0)
(-0.544685 -3.73054e-08 0)
(-0.543232 -3.70881e-08 0)
(-0.541785 -3.71234e-08 0)
(-0.540329 -3.65342e-08 0)
(-0.538929 -3.56716e-08 0)
(-0.53754 -4.71855e-08 0)
(-0.535239 -1.29176e-08 0)
(-0.536541 -3.46689e-08 0)
(-0.532485 -5.2779e-08 0)
)
;
    }
    symmetry
    {
        type            symmetryPlane;
    }
    frontAndBack
    {
        type            empty;
    }
}


// ************************************************************************* //
