/*--------------------------------*- C++ -*----------------------------------*\
| =========                 |                                                 |
| \\      /  F ield         | OpenFOAM: The Open Source CFD Toolbox           |
|  \\    /   O peration     | Version:  v2012                                 |
|   \\  /    A nd           | Website:  www.openfoam.com                      |
|    \\/     M anipulation  |                                                 |
\*---------------------------------------------------------------------------*/
FoamFile
{
    version     2.0;
    format      ascii;
    class       volScalarField;
    location    "29";
    object      yPlus;
}
// * * * * * * * * * * * * * * * * * * * * * * * * * * * * * * * * * * * * * //

dimensions      [0 0 0 0 0 0 0];


internalField   uniform 0;

boundaryField
{
    inlet
    {
        type            calculated;
        value           uniform 0;
    }
    outlet
    {
        type            calculated;
        value           uniform 0;
    }
    topWall
    {
        type            calculated;
        value           nonuniform List<scalar> 
545
(
0.0707561
0.122006
0.156515
0.183968
0.207197
0.227508
0.245636
0.262042
0.277042
0.290861
0.30367
0.3156
0.326755
0.337221
0.347068
0.356354
0.36513
0.373439
0.381318
0.388802
0.395918
0.402693
0.40915
0.41531
0.421191
0.426811
0.432186
0.437329
0.442255
0.446974
0.451499
0.455839
0.460005
0.464005
0.467847
0.47154
0.47509
0.478505
0.48179
0.484952
0.487997
0.490929
0.493754
0.496477
0.499102
0.501633
0.504074
0.506429
0.508702
0.510896
0.513014
0.51506
0.517035
0.518944
0.520789
0.522571
0.524295
0.525961
0.527572
0.529131
0.530639
0.532097
0.533509
0.534875
0.536198
0.537478
0.538718
0.539919
0.541081
0.542208
0.543299
0.544357
0.545368
0.546346
0.547314
0.548275
0.549226
0.550169
0.551104
0.55203
0.552948
0.553858
0.55476
0.555654
0.556539
0.557418
0.558288
0.559151
0.560006
0.560854
0.561694
0.562527
0.563353
0.564171
0.564982
0.565787
0.566511
0.567158
0.567804
0.56845
0.569095
0.56974
0.570383
0.571026
0.571669
0.57231
0.572951
0.573592
0.574231
0.57487
0.575508
0.576146
0.576782
0.577418
0.578053
0.578688
0.579321
0.579954
0.580586
0.581218
0.581848
0.582478
0.583106
0.583735
0.584362
0.584988
0.585614
0.586238
0.586862
0.587485
0.588107
0.588728
0.589348
0.589968
0.590586
0.591204
0.591821
0.592436
0.593051
0.593665
0.594278
0.59489
0.595501
0.596111
0.596719
0.597327
0.597934
0.59854
0.599145
0.599749
0.600352
0.600954
0.601555
0.602154
0.602753
0.60335
0.603947
0.604542
0.605136
0.60573
0.606322
0.606912
0.607502
0.608091
0.608678
0.609264
0.609849
0.610433
0.611016
0.611597
0.612178
0.612757
0.613334
0.613911
0.614486
0.61506
0.615633
0.616205
0.616775
0.617344
0.617911
0.618478
0.619042
0.619606
0.620168
0.620729
0.621289
0.621847
0.622404
0.622959
0.623513
0.624066
0.624617
0.625166
0.625715
0.626261
0.626807
0.627351
0.627893
0.628434
0.628973
0.629511
0.630047
0.630582
0.631116
0.631647
0.632177
0.632706
0.633233
0.633758
0.634282
0.634804
0.635325
0.635844
0.636361
0.636877
0.637391
0.637903
0.638413
0.638922
0.639429
0.639935
0.640439
0.640941
0.641441
0.641939
0.642436
0.642931
0.643424
0.643915
0.644405
0.644893
0.645378
0.645862
0.646345
0.646825
0.647303
0.64778
0.648254
0.648727
0.649198
0.649667
0.650134
0.650599
0.651062
0.651523
0.651982
0.652439
0.652894
0.653347
0.653798
0.654247
0.654694
0.655139
0.655581
0.656022
0.656461
0.656897
0.657332
0.657764
0.658194
0.658622
0.659048
0.659472
0.659893
0.660312
0.660729
0.661144
0.661557
0.661945
0.662309
0.662675
0.663042
0.663411
0.663781
0.664152
0.664524
0.664897
0.665271
0.665647
0.666023
0.666401
0.666779
0.667159
0.667539
0.66792
0.668301
0.668683
0.669066
0.66945
0.669833
0.670218
0.670602
0.670987
0.671372
0.671758
0.672143
0.672528
0.672914
0.673299
0.673684
0.674069
0.674453
0.674837
0.67522
0.675603
0.675985
0.676366
0.676746
0.677125
0.677503
0.67788
0.678256
0.67863
0.679002
0.679373
0.679743
0.68011
0.680475
0.680839
0.6812
0.681558
0.681914
0.682268
0.682619
0.682967
0.683312
0.683653
0.683992
0.684327
0.684658
0.684986
0.68531
0.68563
0.685945
0.686257
0.686563
0.686865
0.687162
0.687455
0.687741
0.688023
0.688299
0.688569
0.688834
0.689092
0.689344
0.689589
0.689828
0.69006
0.690285
0.690503
0.690713
0.690915
0.69111
0.691297
0.691475
0.691645
0.691806
0.691958
0.692101
0.692234
0.692358
0.692473
0.692577
0.692671
0.692754
0.692827
0.692889
0.69294
0.692979
0.693007
0.693023
0.693026
0.693018
0.692997
0.692963
0.692916
0.692856
0.692783
0.692695
0.692594
0.692479
0.692349
0.692205
0.692046
0.691872
0.691683
0.691478
0.691257
0.691021
0.690768
0.690499
0.690214
0.689912
0.689593
0.689257
0.688904
0.688533
0.688144
0.687738
0.687314
0.686871
0.686411
0.685931
0.685433
0.684917
0.684381
0.683827
0.683254
0.682661
0.682049
0.681417
0.680766
0.680095
0.679405
0.678695
0.677966
0.677216
0.676447
0.675657
0.674848
0.67402
0.673171
0.672302
0.671414
0.670506
0.669578
0.66863
0.667663
0.666677
0.665671
0.664646
0.663602
0.662539
0.661457
0.660356
0.659237
0.6581
0.656945
0.655771
0.65458
0.653372
0.652147
0.650904
0.649646
0.64837
0.647079
0.645773
0.644451
0.642963
0.641319
0.639675
0.638033
0.636394
0.634759
0.633128
0.631501
0.629881
0.628268
0.626661
0.625063
0.623472
0.621891
0.620319
0.618758
0.617207
0.615667
0.614138
0.612622
0.611118
0.609626
0.608148
0.606683
0.605232
0.603795
0.602373
0.600965
0.599573
0.598196
0.596834
0.595488
0.594159
0.592846
0.591549
0.590269
0.589006
0.587761
0.586533
0.585322
0.58413
0.582955
0.581799
0.580661
0.579542
0.578441
0.577359
0.576297
0.575253
0.574229
0.573225
0.57224
0.571275
0.57033
0.569405
0.568501
0.567617
0.566753
0.565911
0.565089
0.564288
0.563508
0.56275
0.562013
0.561298
0.560604
0.559933
0.559283
0.558655
0.55805
0.557467
0.556906
0.556368
0.555852
0.555359
0.55489
0.554443
0.554019
0.553618
0.553241
0.552887
0.552556
0.552249
0.551966
0.551706
0.55147
0.551257
0.551069
0.550904
0.550763
0.550646
0.550553
0.550483
0.550441
0.55041
)
;
    }
    bottomWall
    {
        type            calculated;
        value           nonuniform List<scalar> 
449
(
0.139473
0.0889731
0.0758206
0.0694478
0.0652639
0.0621369
0.0596416
0.0575778
0.0558265
0.0543101
0.0529762
0.0517884
0.0507203
0.0497516
0.0488667
0.0480534
0.0473017
0.0466037
0.0459528
0.0453436
0.0447713
0.0442322
0.0437228
0.0432403
0.0427823
0.0423465
0.041931
0.0415343
0.0411547
0.040791
0.0404421
0.0401068
0.0397841
0.0394734
0.0391737
0.0388844
0.0386047
0.0383343
0.0380724
0.0378187
0.0375726
0.0373338
0.0371018
0.0368764
0.0366571
0.0364437
0.0362359
0.0360334
0.035836
0.0356434
0.0354555
0.035272
0.0350927
0.0349175
0.0347462
0.0345786
0.0344146
0.034254
0.0340968
0.0339427
0.0337918
0.0336437
0.0334986
0.0333562
0.0332164
0.0330792
0.0329445
0.0328121
0.0326821
0.0325543
0.0324287
0.0323052
0.0321838
0.0320643
0.0319467
0.031831
0.0317171
0.031605
0.0314945
0.0313857
0.0312785
0.0311729
0.0310688
0.0309662
0.030865
0.0307652
0.0306668
0.0305698
0.030474
0.0303795
0.0302862
0.0301941
0.0301032
0.0300135
0.0299249
0.0298373
0.0297509
0.0296654
0.0295811
0.0294977
0.0294152
0.0293338
0.0292532
0.0291736
0.0290949
0.029017
0.02894
0.0288639
0.0287885
0.028714
0.0286403
0.0285673
0.0284951
0.0284236
0.0283529
0.0282828
0.0282135
0.0281449
0.0280769
0.0280096
0.0279429
0.0278769
0.0278115
0.0277467
0.0276826
0.027619
0.027556
0.0274936
0.0274317
0.0273704
0.0273096
0.0272494
0.0271897
0.0271305
0.0270718
0.0270136
0.0269559
0.0268987
0.026842
0.0267857
0.0267299
0.0266745
0.0266196
0.0265652
0.0265111
0.0264575
0.0264043
0.0263515
0.0262992
0.0262472
0.0261956
0.0261445
0.0260937
0.0260432
0.0259932
0.0259435
0.0258942
0.0258452
0.0257966
0.0257483
0.0257004
0.0256528
0.0256056
0.0255587
0.0255121
0.0254658
0.0254198
0.0253742
0.0253288
0.0252838
0.025239
0.0251946
0.0251504
0.0251091
0.0250702
0.0250311
0.0249919
0.0249526
0.0249133
0.0248738
0.0248342
0.0247945
0.0247547
0.0247148
0.0246748
0.0246347
0.0245945
0.0245542
0.0245138
0.0244733
0.0244328
0.0243921
0.0243513
0.0243104
0.0242695
0.0242284
0.0241873
0.024146
0.0241047
0.0240633
0.0240218
0.0239803
0.0239386
0.0238969
0.0238551
0.0238132
0.0237713
0.0237292
0.0236871
0.0236449
0.0236027
0.0235604
0.023518
0.0234756
0.023433
0.0233905
0.0233478
0.0233051
0.0232623
0.0232195
0.0231766
0.0231337
0.0230907
0.0230477
0.0230046
0.0229614
0.0229182
0.022875
0.0228317
0.0227883
0.0227449
0.0227015
0.022658
0.0226145
0.022571
0.0225274
0.0224838
0.0224401
0.0223964
0.0223527
0.0223089
0.0222651
0.0222213
0.0221775
0.0221336
0.0220897
0.0220458
0.0220019
0.0219579
0.0219139
0.0218699
0.0218259
0.0217819
0.0217378
0.0216937
0.0216497
0.0216056
0.0215615
0.0215174
0.0214733
0.0214291
0.021385
0.0213409
0.0212967
0.0212526
0.0212085
0.0211643
0.0211202
0.0210761
0.0210319
0.0209878
0.0209437
0.0208996
0.0208555
0.0208114
0.0207673
0.0207233
0.0206792
0.0206352
0.0205912
0.0205472
0.0205032
0.0204592
0.0204153
0.0203713
0.0203274
0.0202835
0.0202397
0.0201958
0.020152
0.0201082
0.0200645
0.0200208
0.0199771
0.0199334
0.0198898
0.0198462
0.0198026
0.019759
0.0197155
0.0196721
0.0196287
0.0195853
0.0195419
0.0194986
0.0194553
0.0194121
0.0193689
0.0193258
0.0192827
0.0192397
0.0191966
0.0191537
0.0191108
0.0190679
0.0190251
0.0189823
0.0189396
0.018897
0.0188544
0.0188118
0.0187693
0.0187269
0.0186845
0.0186421
0.0185999
0.0185577
0.0185155
0.0184734
0.0184313
0.0183894
0.0183474
0.0183056
0.0182638
0.0182221
0.0181804
0.0181388
0.0180972
0.0180558
0.0180144
0.017973
0.0179317
0.0178905
0.0178494
0.0178083
0.0177673
0.0177264
0.0176855
0.0176447
0.017604
0.0175634
0.0175228
0.0174824
0.0174419
0.017397
0.0173481
0.0173
0.0172526
0.0172059
0.0171598
0.0171145
0.0170697
0.0170256
0.0169822
0.0169393
0.016897
0.0168553
0.0168142
0.0167736
0.0167336
0.0166941
0.0166551
0.0166166
0.0165786
0.016541
0.016504
0.0164674
0.0164312
0.0163955
0.0163602
0.0163254
0.0162909
0.0162569
0.0162233
0.01619
0.0161571
0.0161246
0.0160925
0.0160607
0.0160293
0.0159982
0.0159675
0.0159371
0.015907
0.0158772
0.0158478
0.0158186
0.0157898
0.0157613
0.015733
0.015705
0.0156774
0.0156499
0.0156228
0.0155959
0.0155693
0.015543
0.0155169
0.015491
0.0154654
0.0154401
0.0154149
0.0153901
0.0153654
0.015341
0.0153167
0.0152927
0.0152689
0.0152454
0.015222
0.0151988
0.0151759
0.0151531
0.0151305
0.0151082
0.015086
0.015064
0.0150421
0.0150205
0.014999
0.0149777
0.0149566
0.0149356
0.0149148
0.0148941
0.0148736
0.0148533
0.0148331
0.014813
0.014793
0.0147732
0.0147535
0.0147338
0.014714
0.0146949
0.014676
0.0146445
0.0146623
0.0146068
)
;
    }
    symmetry
    {
        type            symmetryPlane;
    }
    frontAndBack
    {
        type            empty;
    }
}


// ************************************************************************* //
