/*--------------------------------*- C++ -*----------------------------------*\
| =========                 |                                                 |
| \\      /  F ield         | OpenFOAM: The Open Source CFD Toolbox           |
|  \\    /   O peration     | Version:  v2012                                 |
|   \\  /    A nd           | Website:  www.openfoam.com                      |
|    \\/     M anipulation  |                                                 |
\*---------------------------------------------------------------------------*/
FoamFile
{
    version     2.0;
    format      ascii;
    class       volScalarField;
    location    "17";
    object      p;
}
// * * * * * * * * * * * * * * * * * * * * * * * * * * * * * * * * * * * * * //

dimensions      [0 2 -2 0 0 0 0];


internalField   nonuniform List<scalar> 
209825
(
6.9971
6.99986
7.0067
7.01703
7.03027
7.04622
7.06478
7.08587
7.10937
7.13517
7.16318
7.19333
7.22557
7.25982
7.29606
7.33423
7.3743
7.41625
7.46005
7.50569
7.55314
7.60241
7.65349
7.70637
7.76107
7.81757
7.87591
7.93608
7.9981
8.062
8.12779
8.1955
8.26517
8.33681
8.41047
8.48618
8.564
8.64395
8.72609
8.81048
8.89717
8.98622
9.07769
9.17166
9.26821
9.3674
9.46933
9.57409
9.68177
9.79248
9.90634
10.0234
10.144
10.268
10.3957
10.5272
10.6627
10.8024
10.9465
11.0952
11.2486
11.4072
11.571
11.7405
11.9159
12.0975
12.2858
12.4811
12.6839
12.8947
13.114
13.3424
13.5775
13.8219
14.0827
14.3621
14.6625
14.9867
15.3379
15.7202
16.1383
16.5984
17.1078
17.6763
18.3161
19.0436
19.8807
20.859
22.0201
23.4401
25.196
27.5691
30.5814
36.1464
42.4364
75.194
6.9971
6.99986
7.0067
7.01703
7.03027
7.04622
7.06478
7.08587
7.10937
7.13517
7.16318
7.19333
7.22557
7.25982
7.29606
7.33423
7.3743
7.41625
7.46005
7.50569
7.55314
7.60241
7.65349
7.70637
7.76107
7.81757
7.87591
7.93608
7.9981
8.062
8.12779
8.1955
8.26517
8.33681
8.41047
8.48618
8.564
8.64395
8.72609
8.81048
8.89717
8.98622
9.07769
9.17166
9.26821
9.3674
9.46933
9.57409
9.68177
9.79248
9.90634
10.0234
10.144
10.268
10.3957
10.5272
10.6627
10.8024
10.9465
11.0952
11.2486
11.4072
11.571
11.7405
11.9159
12.0975
12.2858
12.4811
12.6839
12.8947
13.114
13.3424
13.5775
13.8219
14.0827
14.3621
14.6625
14.9867
15.3379
15.7201
16.1383
16.5983
17.1078
17.6763
18.3161
19.0436
19.8806
20.8589
22.02
23.44
25.1959
27.5688
30.581
36.1439
42.4156
74.557
6.9971
6.99986
7.0067
7.01703
7.03027
7.04622
7.06478
7.08587
7.10937
7.13517
7.16318
7.19333
7.22557
7.25982
7.29606
7.33423
7.3743
7.41625
7.46005
7.50569
7.55314
7.60241
7.65349
7.70637
7.76107
7.81757
7.87591
7.93608
7.9981
8.062
8.12779
8.1955
8.26517
8.33681
8.41047
8.48618
8.564
8.64395
8.72609
8.81048
8.89717
8.98622
9.07769
9.17166
9.26821
9.3674
9.46933
9.57409
9.68177
9.79248
9.90634
10.0234
10.1439
10.268
10.3957
10.5272
10.6627
10.8024
10.9465
11.0952
11.2486
11.4072
11.571
11.7405
11.9159
12.0975
12.2858
12.4811
12.6839
12.8947
13.114
13.3424
13.5775
13.8219
14.0827
14.3621
14.6625
14.9867
15.3379
15.7201
16.1383
16.5983
17.1078
17.6762
18.316
19.0435
19.8806
20.8588
22.0199
23.4398
25.1956
27.5683
30.5802
36.1399
42.3933
73.7872
6.9971
6.99986
7.0067
7.01703
7.03027
7.04622
7.06478
7.08587
7.10937
7.13517
7.16318
7.19333
7.22557
7.25982
7.29606
7.33423
7.3743
7.41625
7.46005
7.50569
7.55314
7.60241
7.65349
7.70637
7.76106
7.81757
7.87591
7.93608
7.9981
8.062
8.12779
8.1955
8.26517
8.33681
8.41047
8.48618
8.56399
8.64395
8.72609
8.81048
8.89717
8.98622
9.07769
9.17166
9.26821
9.3674
9.46933
9.57409
9.68177
9.79248
9.90633
10.0234
10.1439
10.268
10.3957
10.5272
10.6627
10.8024
10.9465
11.0952
11.2486
11.4072
11.571
11.7405
11.9159
12.0975
12.2858
12.4811
12.6839
12.8947
13.114
13.3424
13.5775
13.8219
14.0827
14.3621
14.6625
14.9867
15.3379
15.7201
16.1382
16.5983
17.1077
17.6762
18.3159
19.0434
19.8805
20.8587
22.0197
23.4395
25.1952
27.5675
30.579
36.1341
42.3733
73.0252
6.9971
6.99986
7.0067
7.01703
7.03027
7.04622
7.06478
7.08587
7.10937
7.13517
7.16318
7.19333
7.22557
7.25982
7.29606
7.33423
7.3743
7.41625
7.46005
7.50569
7.55314
7.60241
7.65349
7.70637
7.76106
7.81757
7.87591
7.93608
7.9981
8.062
8.12779
8.1955
8.26516
8.33681
8.41047
8.48618
8.56399
8.64395
8.72609
8.81048
8.89717
8.98622
9.07769
9.17166
9.2682
9.3674
9.46933
9.57409
9.68177
9.79248
9.90633
10.0234
10.1439
10.268
10.3957
10.5272
10.6627
10.8024
10.9465
11.0951
11.2486
11.4071
11.571
11.7405
11.9158
12.0975
12.2858
12.4811
12.6839
12.8947
13.114
13.3424
13.5774
13.8219
14.0827
14.3621
14.6625
14.9866
15.3378
15.7201
16.1382
16.5982
17.1077
17.6761
18.3159
19.0433
19.8803
20.8585
22.0194
23.4391
25.1946
27.5665
30.5774
36.1265
42.3535
72.2761
6.9971
6.99986
7.0067
7.01703
7.03027
7.04621
7.06478
7.08587
7.10937
7.13517
7.16318
7.19333
7.22557
7.25982
7.29606
7.33423
7.3743
7.41625
7.46005
7.50569
7.55314
7.60241
7.65349
7.70637
7.76106
7.81757
7.8759
7.93608
7.9981
8.062
8.12779
8.1955
8.26516
8.33681
8.41047
8.48618
8.56399
8.64395
8.72609
8.81048
8.89717
8.98621
9.07769
9.17166
9.2682
9.3674
9.46933
9.57408
9.68177
9.79248
9.90633
10.0234
10.1439
10.268
10.3957
10.5272
10.6627
10.8024
10.9465
11.0951
11.2486
11.4071
11.571
11.7405
11.9158
12.0975
12.2858
12.4811
12.6839
12.8947
13.114
13.3423
13.5774
13.8218
14.0827
14.3621
14.6624
14.9866
15.3378
15.72
16.1381
16.5982
17.1076
17.676
18.3157
19.0432
19.8801
20.8582
22.0191
23.4386
25.1939
27.5651
30.5754
36.1171
42.3314
71.5306
6.9971
6.99986
7.0067
7.01703
7.03027
7.04621
7.06478
7.08587
7.10937
7.13517
7.16318
7.19333
7.22557
7.25982
7.29606
7.33423
7.3743
7.41625
7.46005
7.50569
7.55314
7.60241
7.65349
7.70637
7.76106
7.81757
7.8759
7.93607
7.9981
8.062
8.12779
8.1955
8.26516
8.33681
8.41047
8.48618
8.56399
8.64395
8.72609
8.81048
8.89716
8.98621
9.07769
9.17166
9.2682
9.3674
9.46932
9.57408
9.68176
9.79248
9.90633
10.0234
10.1439
10.268
10.3957
10.5272
10.6627
10.8024
10.9465
11.0951
11.2486
11.4071
11.571
11.7404
11.9158
12.0975
12.2858
12.4811
12.6839
12.8947
13.114
13.3423
13.5774
13.8218
14.0827
14.362
14.6624
14.9866
15.3377
15.72
16.1381
16.5981
17.1075
17.6759
18.3156
19.043
19.8799
20.8579
22.0187
23.438
25.193
27.5634
30.5728
36.1057
42.3058
70.7859
6.9971
6.99986
7.0067
7.01703
7.03027
7.04621
7.06478
7.08587
7.10937
7.13517
7.16318
7.19333
7.22557
7.25982
7.29606
7.33423
7.3743
7.41625
7.46005
7.50569
7.55314
7.60241
7.65349
7.70637
7.76106
7.81757
7.8759
7.93607
7.9981
8.062
8.12779
8.1955
8.26516
8.33681
8.41047
8.48618
8.56399
8.64394
8.72609
8.81048
8.89716
8.98621
9.07769
9.17166
9.2682
9.36739
9.46932
9.57408
9.68176
9.79247
9.90632
10.0234
10.1439
10.268
10.3957
10.5272
10.6627
10.8024
10.9465
11.0951
11.2486
11.4071
11.571
11.7404
11.9158
12.0975
12.2857
12.4811
12.6839
12.8946
13.1139
13.3423
13.5774
13.8218
14.0826
14.362
14.6624
14.9865
15.3377
15.7199
16.138
16.598
17.1074
17.6758
18.3154
19.0428
19.8796
20.8576
22.0182
23.4373
25.1919
27.5614
30.5698
36.0922
42.2766
70.0415
6.9971
6.99986
7.0067
7.01703
7.03027
7.04621
7.06478
7.08587
7.10937
7.13517
7.16318
7.19333
7.22557
7.25982
7.29606
7.33423
7.3743
7.41625
7.46005
7.50569
7.55314
7.60241
7.65349
7.70637
7.76106
7.81757
7.8759
7.93607
7.9981
8.06199
8.12779
8.1955
8.26516
8.33681
8.41047
8.48618
8.56399
8.64394
8.72609
8.81047
8.89716
8.98621
9.07768
9.17166
9.2682
9.36739
9.46932
9.57408
9.68176
9.79247
9.90632
10.0234
10.1439
10.268
10.3957
10.5272
10.6627
10.8024
10.9465
11.0951
11.2486
11.4071
11.571
11.7404
11.9158
12.0974
12.2857
12.481
12.6839
12.8946
13.1139
13.3423
13.5773
13.8218
14.0826
14.3619
14.6623
14.9864
15.3376
15.7198
16.1379
16.5979
17.1073
17.6756
18.3152
19.0425
19.8793
20.8571
22.0176
23.4364
25.1906
27.559
30.5662
36.0765
42.2436
69.2973
6.9971
6.99986
7.0067
7.01703
7.03027
7.04621
7.06478
7.08587
7.10937
7.13517
7.16318
7.19333
7.22556
7.25982
7.29606
7.33423
7.3743
7.41625
7.46005
7.50569
7.55314
7.60241
7.65349
7.70637
7.76106
7.81757
7.8759
7.93607
7.9981
8.06199
8.12779
8.1955
8.26516
8.3368
8.41046
8.48618
8.56399
8.64394
8.72609
8.81047
8.89716
8.98621
9.07768
9.17165
9.2682
9.36739
9.46932
9.57407
9.68175
9.79247
9.90632
10.0234
10.1439
10.268
10.3956
10.5272
10.6627
10.8024
10.9465
11.0951
11.2486
11.4071
11.571
11.7404
11.9158
12.0974
12.2857
12.481
12.6838
12.8946
13.1139
13.3422
13.5773
13.8217
14.0825
14.3619
14.6622
14.9864
15.3375
15.7197
16.1378
16.5978
17.1071
17.6754
18.315
19.0422
19.8789
20.8567
22.0169
23.4354
25.1892
27.5562
30.5621
36.0587
42.2069
68.5532
6.9971
6.99986
7.0067
7.01703
7.03027
7.04621
7.06478
7.08587
7.10937
7.13517
7.16318
7.19333
7.22556
7.25982
7.29606
7.33423
7.3743
7.41625
7.46005
7.50569
7.55314
7.60241
7.65349
7.70637
7.76106
7.81757
7.8759
7.93607
7.9981
8.06199
8.12779
8.1955
8.26516
8.3368
8.41046
8.48618
8.56399
8.64394
8.72608
8.81047
8.89716
8.98621
9.07768
9.17165
9.26819
9.36739
9.46931
9.57407
9.68175
9.79246
9.90631
10.0234
10.1439
10.2679
10.3956
10.5272
10.6627
10.8024
10.9464
11.0951
11.2486
11.4071
11.5709
11.7404
11.9158
12.0974
12.2857
12.481
12.6838
12.8946
13.1138
13.3422
13.5773
13.8217
14.0825
14.3618
14.6622
14.9863
15.3375
15.7196
16.1377
16.5976
17.107
17.6752
18.3148
19.0419
19.8785
20.8561
22.0161
23.4343
25.1875
27.5531
30.5574
36.0387
42.1665
67.8098
6.9971
6.99986
7.0067
7.01703
7.03027
7.04621
7.06478
7.08587
7.10937
7.13517
7.16318
7.19333
7.22556
7.25982
7.29606
7.33423
7.3743
7.41625
7.46005
7.50569
7.55314
7.60241
7.65349
7.70637
7.76106
7.81757
7.8759
7.93607
7.9981
8.06199
8.12778
8.1955
8.26516
8.3368
8.41046
8.48618
8.56399
8.64394
8.72608
8.81047
8.89716
8.9862
9.07768
9.17165
9.26819
9.36738
9.46931
9.57407
9.68175
9.79246
9.90631
10.0234
10.1439
10.2679
10.3956
10.5272
10.6627
10.8024
10.9464
11.0951
11.2486
11.4071
11.5709
11.7404
11.9158
12.0974
12.2857
12.481
12.6838
12.8945
13.1138
13.3422
13.5772
13.8216
14.0824
14.3618
14.6621
14.9862
15.3374
15.7195
16.1376
16.5975
17.1068
17.675
18.3145
19.0415
19.878
20.8554
22.0153
23.433
25.1856
27.5496
30.5521
36.0164
42.1221
67.0671
6.9971
6.99986
7.0067
7.01703
7.03027
7.04621
7.06478
7.08587
7.10937
7.13516
7.16318
7.19333
7.22556
7.25982
7.29606
7.33423
7.3743
7.41625
7.46005
7.50568
7.55314
7.60241
7.65349
7.70637
7.76106
7.81757
7.8759
7.93607
7.99809
8.06199
8.12778
8.1955
8.26516
8.3368
8.41046
8.48617
8.56398
8.64394
8.72608
8.81047
8.89715
8.9862
9.07767
9.17164
9.26819
9.36738
9.46931
9.57406
9.68174
9.79245
9.9063
10.0234
10.1439
10.2679
10.3956
10.5271
10.6627
10.8024
10.9464
11.0951
11.2485
11.4071
11.5709
11.7404
11.9157
12.0974
12.2856
12.4809
12.6837
12.8945
13.1138
13.3421
13.5772
13.8216
14.0824
14.3617
14.662
14.9861
15.3372
15.7194
16.1374
16.5973
17.1065
17.6747
18.3141
19.0411
19.8775
20.8547
22.0143
23.4316
25.1835
27.5457
30.5461
35.9918
42.0737
66.3256
6.99709
6.99986
7.0067
7.01703
7.03027
7.04621
7.06478
7.08587
7.10937
7.13516
7.16318
7.19333
7.22556
7.25982
7.29606
7.33423
7.3743
7.41625
7.46005
7.50568
7.55314
7.60241
7.65348
7.70637
7.76106
7.81757
7.8759
7.93607
7.99809
8.06199
8.12778
8.19549
8.26516
8.3368
8.41046
8.48617
8.56398
8.64393
8.72608
8.81046
8.89715
8.9862
9.07767
9.17164
9.26818
9.36737
9.4693
9.57406
9.68174
9.79244
9.90629
10.0234
10.1439
10.2679
10.3956
10.5271
10.6626
10.8023
10.9464
11.0951
11.2485
11.407
11.5709
11.7403
11.9157
12.0973
12.2856
12.4809
12.6837
12.8945
13.1137
13.3421
13.5771
13.8215
14.0823
14.3616
14.6619
14.986
15.3371
15.7192
16.1372
16.5971
17.1063
17.6744
18.3138
19.0407
19.8769
20.8539
22.0132
23.43
25.1811
27.5413
30.5394
35.9648
42.0212
65.5855
6.99709
6.99986
7.0067
7.01703
7.03027
7.04621
7.06478
7.08587
7.10937
7.13516
7.16318
7.19333
7.22556
7.25982
7.29606
7.33423
7.3743
7.41625
7.46005
7.50568
7.55314
7.60241
7.65348
7.70637
7.76106
7.81757
7.8759
7.93607
7.99809
8.06199
8.12778
8.19549
8.26515
8.3368
8.41046
8.48617
8.56398
8.64393
8.72607
8.81046
8.89715
8.98619
9.07767
9.17164
9.26818
9.36737
9.4693
9.57405
9.68173
9.79244
9.90629
10.0234
10.1439
10.2679
10.3956
10.5271
10.6626
10.8023
10.9464
11.095
11.2485
11.407
11.5709
11.7403
11.9157
12.0973
12.2856
12.4809
12.6837
12.8944
13.1137
13.342
13.577
13.8214
14.0822
14.3615
14.6618
14.9859
15.337
15.7191
16.137
16.5969
17.106
17.6741
18.3134
19.0402
19.8762
20.8531
22.012
23.4282
25.1785
27.5364
30.532
35.9355
41.9645
64.847
6.99709
6.99986
7.0067
7.01703
7.03027
7.04621
7.06478
7.08587
7.10937
7.13516
7.16318
7.19333
7.22556
7.25982
7.29605
7.33423
7.3743
7.41625
7.46005
7.50568
7.55314
7.60241
7.65348
7.70637
7.76106
7.81757
7.8759
7.93607
7.99809
8.06199
8.12778
8.19549
8.26515
8.3368
8.41045
8.48617
8.56398
8.64393
8.72607
8.81046
8.89714
8.98619
9.07766
9.17163
9.26817
9.36736
9.46929
9.57404
9.68172
9.79243
9.90628
10.0234
10.1439
10.2679
10.3956
10.5271
10.6626
10.8023
10.9464
11.095
11.2485
11.407
11.5708
11.7403
11.9156
12.0973
12.2855
12.4808
12.6836
12.8944
13.1136
13.3419
13.577
13.8214
14.0821
14.3614
14.6617
14.9858
15.3368
15.7189
16.1368
16.5966
17.1057
17.6737
18.3129
19.0396
19.8755
20.8521
22.0107
23.4262
25.1757
27.5311
30.5239
35.9037
41.9034
64.1105
6.99709
6.99986
7.0067
7.01703
7.03027
7.04621
7.06478
7.08587
7.10937
7.13516
7.16317
7.19333
7.22556
7.25982
7.29605
7.33423
7.3743
7.41625
7.46005
7.50568
7.55314
7.60241
7.65348
7.70636
7.76106
7.81756
7.8759
7.93607
7.99809
8.06199
8.12778
8.19549
8.26515
8.33679
8.41045
8.48616
8.56397
8.64393
8.72607
8.81045
8.89714
8.98619
9.07766
9.17163
9.26817
9.36736
9.46928
9.57404
9.68172
9.79242
9.90627
10.0234
10.1439
10.2679
10.3956
10.5271
10.6626
10.8023
10.9464
11.095
11.2485
11.407
11.5708
11.7403
11.9156
12.0972
12.2855
12.4808
12.6836
12.8943
13.1136
13.3419
13.5769
13.8213
14.082
14.3613
14.6616
14.9856
15.3367
15.7187
16.1366
16.5963
17.1054
17.6733
18.3124
19.039
19.8747
20.851
22.0092
23.4241
25.1725
27.5253
30.5149
35.8694
41.8379
63.3762
6.99709
6.99986
7.0067
7.01703
7.03027
7.04621
7.06478
7.08587
7.10937
7.13516
7.16317
7.19333
7.22556
7.25982
7.29605
7.33422
7.3743
7.41625
7.46005
7.50568
7.55314
7.60241
7.65348
7.70636
7.76106
7.81756
7.87589
7.93606
7.99809
8.06198
8.12777
8.19549
8.26515
8.33679
8.41045
8.48616
8.56397
8.64392
8.72606
8.81045
8.89714
8.98618
9.07765
9.17162
9.26816
9.36735
9.46928
9.57403
9.68171
9.79241
9.90626
10.0234
10.1439
10.2679
10.3956
10.5271
10.6626
10.8023
10.9463
11.095
11.2484
11.407
11.5708
11.7402
11.9156
12.0972
12.2855
12.4807
12.6835
12.8942
13.1135
13.3418
13.5768
13.8212
14.0819
14.3612
14.6614
14.9855
15.3365
15.7185
16.1364
16.596
17.1051
17.6729
18.3119
19.0383
19.8738
20.8499
22.0076
23.4218
25.1691
27.519
30.5052
35.8327
41.7679
62.6444
6.99709
6.99986
7.0067
7.01703
7.03027
7.04621
7.06478
7.08587
7.10936
7.13516
7.16317
7.19333
7.22556
7.25982
7.29605
7.33422
7.3743
7.41625
7.46005
7.50568
7.55314
7.6024
7.65348
7.70636
7.76105
7.81756
7.87589
7.93606
7.99809
8.06198
8.12777
8.19548
8.26515
8.33679
8.41045
8.48616
8.56397
8.64392
8.72606
8.81045
8.89713
8.98618
9.07765
9.17162
9.26816
9.36734
9.46927
9.57402
9.6817
9.7924
9.90625
10.0234
10.1438
10.2679
10.3956
10.5271
10.6626
10.8023
10.9463
11.095
11.2484
11.4069
11.5707
11.7402
11.9155
12.0972
12.2854
12.4807
12.6835
12.8942
13.1134
13.3417
13.5767
13.8211
14.0818
14.3611
14.6613
14.9853
15.3363
15.7183
16.1361
16.5957
17.1047
17.6724
18.3113
19.0376
19.8729
20.8486
22.0059
23.4192
25.1654
27.5122
30.4945
35.7933
41.6933
61.9153
6.99709
6.99986
7.0067
7.01702
7.03027
7.04621
7.06478
7.08587
7.10936
7.13516
7.16317
7.19333
7.22556
7.25982
7.29605
7.33422
7.3743
7.41624
7.46004
7.50568
7.55313
7.6024
7.65348
7.70636
7.76105
7.81756
7.87589
7.93606
7.99808
8.06198
8.12777
8.19548
8.26514
8.33679
8.41044
8.48616
8.56396
8.64392
8.72606
8.81044
8.89713
8.98617
9.07764
9.17161
9.26815
9.36734
9.46926
9.57401
9.68169
9.79239
9.90624
10.0233
10.1438
10.2678
10.3955
10.527
10.6626
10.8022
10.9463
11.0949
11.2484
11.4069
11.5707
11.7401
11.9155
12.0971
12.2854
12.4806
12.6834
12.8941
13.1133
13.3416
13.5766
13.821
14.0817
14.3609
14.6611
14.9851
15.3361
15.718
16.1358
16.5954
17.1043
17.6719
18.3107
19.0368
19.8719
20.8472
22.004
23.4165
25.1613
27.5047
30.4829
35.7514
41.614
61.1892
6.99709
6.99986
7.0067
7.01702
7.03027
7.04621
7.06478
7.08587
7.10936
7.13516
7.16317
7.19333
7.22556
7.25982
7.29605
7.33422
7.3743
7.41624
7.46004
7.50568
7.55313
7.6024
7.65348
7.70636
7.76105
7.81756
7.87589
7.93606
7.99808
8.06198
8.12777
8.19548
8.26514
8.33678
8.41044
8.48615
8.56396
8.64391
8.72605
8.81044
8.89712
8.98617
9.07764
9.1716
9.26814
9.36733
9.46925
9.574
9.68168
9.79238
9.90623
10.0233
10.1438
10.2678
10.3955
10.527
10.6625
10.8022
10.9463
11.0949
11.2484
11.4069
11.5707
11.7401
11.9155
12.0971
12.2853
12.4806
12.6833
12.894
13.1133
13.3415
13.5765
13.8208
14.0815
14.3608
14.661
14.9849
15.3358
15.7178
16.1355
16.595
17.1038
17.6714
18.31
19.0359
19.8708
20.8457
22.002
23.4135
25.1569
27.4967
30.4704
35.7068
41.53
60.4663
6.99709
6.99986
7.0067
7.01702
7.03027
7.04621
7.06478
7.08587
7.10936
7.13516
7.16317
7.19333
7.22556
7.25982
7.29605
7.33422
7.37429
7.41624
7.46004
7.50568
7.55313
7.6024
7.65348
7.70636
7.76105
7.81756
7.87589
7.93606
7.99808
8.06197
8.12777
8.19548
8.26514
8.33678
8.41044
8.48615
8.56396
8.64391
8.72605
8.81043
8.89711
8.98616
9.07763
9.1716
9.26813
9.36732
9.46924
9.57399
9.68167
9.79237
9.90621
10.0233
10.1438
10.2678
10.3955
10.527
10.6625
10.8022
10.9462
11.0949
11.2483
11.4068
11.5706
11.7401
11.9154
12.097
12.2852
12.4805
12.6833
12.894
13.1132
13.3414
13.5764
13.8207
14.0814
14.3606
14.6608
14.9847
15.3356
15.7175
16.1351
16.5946
17.1033
17.6708
18.3093
19.035
19.8696
20.8441
21.9998
23.4103
25.1522
27.4881
30.4569
35.6595
41.4411
59.7469
6.99709
6.99986
7.0067
7.01702
7.03026
7.04621
7.06478
7.08587
7.10936
7.13516
7.16317
7.19332
7.22556
7.25982
7.29605
7.33422
7.37429
7.41624
7.46004
7.50568
7.55313
7.6024
7.65347
7.70636
7.76105
7.81755
7.87589
7.93605
7.99808
8.06197
8.12776
8.19547
8.26513
8.33677
8.41043
8.48614
8.56395
8.6439
8.72604
8.81042
8.89711
8.98615
9.07762
9.17159
9.26812
9.36731
9.46923
9.57398
9.68166
9.79236
9.9062
10.0233
10.1438
10.2678
10.3955
10.527
10.6625
10.8022
10.9462
11.0948
11.2483
11.4068
11.5706
11.74
11.9154
12.097
12.2852
12.4804
12.6832
12.8939
13.1131
13.3413
13.5763
13.8206
14.0812
14.3604
14.6606
14.9845
15.3353
15.7172
16.1348
16.5942
17.1028
17.6702
18.3085
19.034
19.8683
20.8424
21.9975
23.4069
25.1472
27.4789
30.4424
35.6095
41.3474
59.0313
6.99709
6.99986
7.0067
7.01702
7.03026
7.04621
7.06477
7.08586
7.10936
7.13516
7.16317
7.19332
7.22556
7.25981
7.29605
7.33422
7.37429
7.41624
7.46004
7.50567
7.55313
7.6024
7.65347
7.70635
7.76105
7.81755
7.87588
7.93605
7.99807
8.06197
8.12776
8.19547
8.26513
8.33677
8.41043
8.48614
8.56395
8.6439
8.72604
8.81042
8.8971
8.98614
9.07761
9.17158
9.26811
9.3673
9.46922
9.57397
9.68164
9.79234
9.90618
10.0233
10.1438
10.2678
10.3955
10.527
10.6625
10.8021
10.9462
11.0948
11.2482
11.4067
11.5705
11.74
11.9153
12.0969
12.2851
12.4804
12.6831
12.8938
13.113
13.3412
13.5761
13.8204
14.0811
14.3602
14.6604
14.9842
15.335
15.7168
16.1344
16.5937
17.1022
17.6695
18.3076
19.0329
19.8669
20.8406
21.9949
23.4032
25.1417
27.469
30.4267
35.5567
41.2487
58.3195
6.99709
6.99986
7.0067
7.01702
7.03026
7.04621
7.06477
7.08586
7.10936
7.13516
7.16317
7.19332
7.22556
7.25981
7.29605
7.33422
7.37429
7.41624
7.46004
7.50567
7.55313
7.6024
7.65347
7.70635
7.76104
7.81755
7.87588
7.93605
7.99807
8.06197
8.12776
8.19547
8.26513
8.33677
8.41042
8.48613
8.56394
8.64389
8.72603
8.81041
8.89709
8.98614
9.07761
9.17157
9.26811
9.36729
9.46921
9.57396
9.68163
9.79233
9.90617
10.0233
10.1437
10.2678
10.3954
10.5269
10.6624
10.8021
10.9461
11.0948
11.2482
11.4067
11.5705
11.7399
11.9152
12.0968
12.285
12.4803
12.683
12.8937
13.1128
13.3411
13.576
13.8203
14.0809
14.36
14.6601
14.9839
15.3347
15.7165
16.134
16.5932
17.1016
17.6687
18.3067
19.0318
19.8654
20.8386
21.9922
23.3993
25.1359
27.4584
30.4099
35.5012
41.145
57.612
6.99709
6.99985
7.0067
7.01702
7.03026
7.04621
7.06477
7.08586
7.10936
7.13516
7.16317
7.19332
7.22555
7.25981
7.29605
7.33422
7.37429
7.41624
7.46004
7.50567
7.55313
7.60239
7.65347
7.70635
7.76104
7.81755
7.87588
7.93605
7.99807
8.06196
8.12775
8.19546
8.26512
8.33676
8.41042
8.48613
8.56394
8.64388
8.72602
8.81041
8.89709
8.98613
9.0776
9.17156
9.26809
9.36728
9.4692
9.57394
9.68161
9.79231
9.90615
10.0232
10.1437
10.2677
10.3954
10.5269
10.6624
10.8021
10.9461
11.0947
11.2482
11.4066
11.5704
11.7399
11.9152
12.0967
12.285
12.4802
12.6829
12.8936
13.1127
13.3409
13.5758
13.8201
14.0807
14.3598
14.6599
14.9837
15.3344
15.7161
16.1335
16.5927
17.101
17.6679
18.3057
19.0305
19.8638
20.8365
21.9893
23.395
25.1297
27.4472
30.392
35.4428
41.0362
56.9089
6.99709
6.99985
7.00669
7.01702
7.03026
7.04621
7.06477
7.08586
7.10936
7.13516
7.16317
7.19332
7.22555
7.25981
7.29604
7.33422
7.37429
7.41624
7.46004
7.50567
7.55312
7.60239
7.65347
7.70635
7.76104
7.81754
7.87588
7.93604
7.99806
8.06196
8.12775
8.19546
8.26512
8.33676
8.41041
8.48612
8.56393
8.64388
8.72602
8.8104
8.89708
8.98612
9.07759
9.17155
9.26808
9.36727
9.46918
9.57393
9.6816
9.79229
9.90613
10.0232
10.1437
10.2677
10.3954
10.5269
10.6624
10.802
10.9461
11.0947
11.2481
11.4066
11.5704
11.7398
11.9151
12.0967
12.2849
12.4801
12.6828
12.8934
13.1126
13.3408
13.5757
13.8199
14.0805
14.3596
14.6596
14.9833
15.334
15.7157
16.133
16.5921
17.1003
17.6671
18.3047
19.0292
19.8621
20.8342
21.9862
23.3905
25.123
27.4352
30.3728
35.3816
40.9224
56.2105
6.99709
6.99985
7.00669
7.01702
7.03026
7.04621
7.06477
7.08586
7.10936
7.13515
7.16317
7.19332
7.22555
7.25981
7.29604
7.33421
7.37429
7.41623
7.46003
7.50567
7.55312
7.60239
7.65346
7.70635
7.76104
7.81754
7.87587
7.93604
7.99806
8.06196
8.12774
8.19545
8.26511
8.33675
8.41041
8.48612
8.56392
8.64387
8.72601
8.81039
8.89707
8.98611
9.07758
9.17154
9.26807
9.36725
9.46917
9.57391
9.68158
9.79228
9.90611
10.0232
10.1437
10.2677
10.3954
10.5268
10.6623
10.802
10.946
11.0946
11.2481
11.4065
11.5703
11.7397
11.915
12.0966
12.2848
12.48
12.6827
12.8933
13.1124
13.3406
13.5755
13.8197
14.0803
14.3593
14.6593
14.983
15.3337
15.7152
16.1325
16.5915
17.0996
17.6662
18.3036
19.0278
19.8603
20.8318
21.9829
23.3857
25.1159
27.4224
30.3523
35.3175
40.8034
55.5169
6.99709
6.99985
7.00669
7.01702
7.03026
7.0462
7.06477
7.08586
7.10936
7.13515
7.16316
7.19332
7.22555
7.25981
7.29604
7.33421
7.37428
7.41623
7.46003
7.50567
7.55312
7.60239
7.65346
7.70634
7.76103
7.81754
7.87587
7.93604
7.99806
8.06195
8.12774
8.19545
8.26511
8.33675
8.4104
8.48611
8.56392
8.64386
8.726
8.81038
8.89706
8.9861
9.07757
9.17153
9.26806
9.36724
9.46915
9.5739
9.68156
9.79226
9.90609
10.0232
10.1437
10.2677
10.3953
10.5268
10.6623
10.802
10.946
11.0946
11.248
11.4065
11.5703
11.7396
11.9149
12.0965
12.2847
12.4799
12.6826
12.8932
13.1123
13.3405
13.5753
13.8195
14.08
14.3591
14.659
14.9827
15.3333
15.7148
16.132
16.5908
17.0988
17.6652
18.3024
19.0263
19.8584
20.8292
21.9794
23.3806
25.1083
27.4089
30.3305
35.2504
40.6792
54.8284
6.99709
6.99985
7.00669
7.01702
7.03026
7.0462
7.06477
7.08586
7.10936
7.13515
7.16316
7.19332
7.22555
7.25981
7.29604
7.33421
7.37428
7.41623
7.46003
7.50566
7.55312
7.60238
7.65346
7.70634
7.76103
7.81754
7.87587
7.93603
7.99805
8.06195
8.12774
8.19544
8.2651
8.33674
8.4104
8.48611
8.56391
8.64386
8.72599
8.81037
8.89705
8.98609
9.07755
9.17151
9.26804
9.36722
9.46914
9.57388
9.68154
9.79224
9.90607
10.0232
10.1436
10.2676
10.3953
10.5268
10.6623
10.8019
10.9459
11.0945
11.248
11.4064
11.5702
11.7396
11.9149
12.0964
12.2846
12.4798
12.6824
12.893
13.1121
13.3403
13.5751
13.8193
14.0798
14.3588
14.6587
14.9823
15.3328
15.7143
16.1314
16.5901
17.0979
17.6642
18.3011
19.0247
19.8563
20.8265
21.9757
23.3751
25.1003
27.3945
30.3074
35.1804
40.5499
54.1451
6.99708
6.99985
7.00669
7.01702
7.03026
7.0462
7.06477
7.08586
7.10935
7.13515
7.16316
7.19332
7.22555
7.25981
7.29604
7.33421
7.37428
7.41623
7.46003
7.50566
7.55312
7.60238
7.65346
7.70634
7.76103
7.81753
7.87586
7.93603
7.99805
8.06194
8.12773
8.19544
8.2651
8.33674
8.41039
8.4861
8.5639
8.64385
8.72598
8.81036
8.89704
8.98608
9.07754
9.1715
9.26803
9.36721
9.46912
9.57386
9.68152
9.79221
9.90604
10.0231
10.1436
10.2676
10.3953
10.5267
10.6622
10.8019
10.9459
11.0945
11.2479
11.4064
11.5701
11.7395
11.9148
12.0963
12.2845
12.4796
12.6823
12.8929
13.112
13.3401
13.5749
13.819
14.0795
14.3585
14.6584
14.9819
15.3324
15.7137
16.1307
16.5894
17.097
17.6631
18.2998
19.023
19.8541
20.8236
21.9717
23.3694
25.0918
27.3793
30.2828
35.1075
40.4153
53.4673
6.99708
6.99985
7.00669
7.01702
7.03026
7.0462
7.06477
7.08586
7.10935
7.13515
7.16316
7.19331
7.22555
7.2598
7.29604
7.33421
7.37428
7.41623
7.46003
7.50566
7.55311
7.60238
7.65345
7.70633
7.76102
7.81753
7.87586
7.93602
7.99805
8.06194
8.12773
8.19543
8.26509
8.33673
8.41038
8.48609
8.56389
8.64384
8.72597
8.81035
8.89703
8.98607
9.07753
9.17149
9.26801
9.36719
9.4691
9.57384
9.6815
9.79219
9.90602
10.0231
10.1436
10.2676
10.3952
10.5267
10.6622
10.8018
10.9458
11.0944
11.2478
11.4063
11.57
11.7394
11.9147
12.0962
12.2844
12.4795
12.6822
12.8927
13.1118
13.3399
13.5747
13.8188
14.0792
14.3581
14.658
14.9815
15.3319
15.7132
16.1301
16.5886
17.0961
17.662
18.2984
19.0212
19.8518
20.8205
21.9675
23.3632
25.0827
27.3632
30.2567
35.0316
40.2755
52.7951
6.99708
6.99985
7.00669
7.01701
7.03026
7.0462
7.06477
7.08586
7.10935
7.13515
7.16316
7.19331
7.22555
7.2598
7.29604
7.3342
7.37428
7.41622
7.46002
7.50566
7.55311
7.60238
7.65345
7.70633
7.76102
7.81752
7.87585
7.93602
7.99804
8.06193
8.12772
8.19543
8.26508
8.33672
8.41038
8.48608
8.56389
8.64383
8.72596
8.81034
8.89702
8.98605
9.07751
9.17147
9.268
9.36717
9.46908
9.57382
9.68148
9.79216
9.90599
10.0231
10.1435
10.2675
10.3952
10.5267
10.6621
10.8018
10.9458
11.0944
11.2478
11.4062
11.57
11.7393
11.9146
12.0961
12.2842
12.4794
12.682
12.8926
13.1116
13.3397
13.5744
13.8185
14.0789
14.3578
14.6576
14.981
15.3314
15.7126
16.1294
16.5878
17.0951
17.6608
18.2968
19.0193
19.8493
20.8173
21.9631
23.3567
25.0731
27.3462
30.2291
34.9526
40.1305
52.1288
6.99708
6.99985
7.00669
7.01701
7.03025
7.0462
7.06476
7.08585
7.10935
7.13515
7.16316
7.19331
7.22554
7.2598
7.29603
7.3342
7.37427
7.41622
7.46002
7.50565
7.55311
7.60237
7.65345
7.70633
7.76102
7.81752
7.87585
7.93602
7.99804
8.06193
8.12771
8.19542
8.26508
8.33671
8.41037
8.48607
8.56388
8.64382
8.72595
8.81033
8.897
8.98604
9.0775
9.17146
9.26798
9.36715
9.46906
9.5738
9.68145
9.79214
9.90596
10.023
10.1435
10.2675
10.3951
10.5266
10.6621
10.8017
10.9457
11.0943
11.2477
11.4061
11.5699
11.7392
11.9145
12.096
12.2841
12.4792
12.6818
12.8924
13.1114
13.3395
13.5742
13.8182
14.0786
14.3574
14.6572
14.9806
15.3308
15.7119
16.1286
16.5869
17.094
17.6595
18.2952
19.0173
19.8467
20.8138
21.9583
23.3499
25.0629
27.3283
30.1999
34.8706
39.9802
51.4685
6.99708
6.99985
7.00669
7.01701
7.03025
7.0462
7.06476
7.08585
7.10935
7.13515
7.16316
7.19331
7.22554
7.2598
7.29603
7.3342
7.37427
7.41622
7.46002
7.50565
7.5531
7.60237
7.65344
7.70632
7.76101
7.81752
7.87584
7.93601
7.99803
8.06192
8.12771
8.19542
8.26507
8.33671
8.41036
8.48606
8.56387
8.64381
8.72594
8.81032
8.89699
8.98602
9.07748
9.17144
9.26796
9.36713
9.46904
9.57377
9.68143
9.79211
9.90593
10.023
10.1435
10.2674
10.3951
10.5266
10.662
10.8017
10.9457
11.0942
11.2476
11.406
11.5698
11.7391
11.9144
12.0959
12.284
12.4791
12.6817
12.8922
13.1112
13.3392
13.5739
13.8179
14.0783
14.3571
14.6568
14.9801
15.3303
15.7113
16.1278
16.5859
17.0929
17.6581
18.2936
19.0152
19.844
20.8101
21.9533
23.3426
25.0522
27.3095
30.1691
34.7856
39.8248
50.8143
6.99708
6.99985
7.00668
7.01701
7.03025
7.0462
7.06476
7.08585
7.10935
7.13514
7.16315
7.19331
7.22554
7.2598
7.29603
7.3342
7.37427
7.41622
7.46001
7.50565
7.5531
7.60237
7.65344
7.70632
7.76101
7.81751
7.87584
7.93601
7.99802
8.06192
8.1277
8.19541
8.26506
8.3367
8.41035
8.48606
8.56386
8.6438
8.72593
8.8103
8.89698
8.98601
9.07747
9.17142
9.26794
9.36711
9.46902
9.57375
9.6814
9.79208
9.9059
10.023
10.1434
10.2674
10.395
10.5265
10.662
10.8016
10.9456
11.0942
11.2475
11.406
11.5697
11.739
11.9142
12.0957
12.2838
12.4789
12.6815
12.892
13.111
13.339
13.5736
13.8176
14.0779
14.3567
14.6563
14.9795
15.3297
15.7106
16.127
16.5849
17.0917
17.6567
18.2918
19.0129
19.8411
20.8063
21.948
23.3349
25.0409
27.2896
30.1366
34.6974
39.6641
50.1664
6.99708
6.99984
7.00668
7.01701
7.03025
7.04619
7.06476
7.08585
7.10935
7.13514
7.16315
7.19331
7.22554
7.25979
7.29603
7.3342
7.37427
7.41621
7.46001
7.50564
7.5531
7.60236
7.65344
7.70632
7.761
7.81751
7.87583
7.936
7.99802
8.06191
8.12769
8.1954
8.26506
8.33669
8.41034
8.48605
8.56385
8.64379
8.72592
8.81029
8.89696
8.98599
9.07745
9.1714
9.26792
9.36709
9.46899
9.57372
9.68137
9.79205
9.90586
10.0229
10.1434
10.2674
10.395
10.5265
10.6619
10.8015
10.9455
11.0941
11.2474
11.4059
11.5696
11.7389
11.9141
12.0956
12.2837
12.4787
12.6813
12.8918
13.1107
13.3387
13.5733
13.8173
14.0776
14.3562
14.6558
14.979
15.329
15.7098
16.1261
16.5839
17.0905
17.6551
18.2899
19.0105
19.838
20.8022
21.9424
23.3268
25.0289
27.2687
30.1024
34.6062
39.4982
49.525
6.99708
6.99984
7.00668
7.01701
7.03025
7.04619
7.06476
7.08585
7.10934
7.13514
7.16315
7.1933
7.22554
7.25979
7.29602
7.33419
7.37426
7.41621
7.46001
7.50564
7.55309
7.60236
7.65343
7.70631
7.761
7.8175
7.87583
7.93599
7.99801
8.0619
8.12769
8.19539
8.26505
8.33668
8.41033
8.48603
8.56383
8.64377
8.7259
8.81027
8.89695
8.98598
9.07743
9.17138
9.2679
9.36707
9.46897
9.57369
9.68134
9.79201
9.90582
10.0229
10.1433
10.2673
10.3949
10.5264
10.6618
10.8015
10.9454
11.094
11.2474
11.4058
11.5695
11.7388
11.914
12.0954
12.2835
12.4786
12.6811
12.8915
13.1105
13.3384
13.573
13.8169
14.0772
14.3558
14.6553
14.9784
15.3283
15.709
16.1252
16.5828
17.0891
17.6535
18.2879
19.008
19.8347
20.7979
21.9366
23.3183
25.0163
27.2468
30.0664
34.5119
39.3272
48.8901
6.99707
6.99984
7.00668
7.01701
7.03025
7.04619
7.06476
7.08585
7.10934
7.13514
7.16315
7.1933
7.22553
7.25979
7.29602
7.33419
7.37426
7.41621
7.46001
7.50564
7.55309
7.60236
7.65343
7.70631
7.76099
7.8175
7.87582
7.93599
7.99801
8.0619
8.12768
8.19538
8.26504
8.33667
8.41032
8.48602
8.56382
8.64376
8.72589
8.81026
8.89693
8.98596
9.07741
9.17136
9.26788
9.36704
9.46894