/*--------------------------------*- C++ -*----------------------------------*\
| =========                 |                                                 |
| \\      /  F ield         | OpenFOAM: The Open Source CFD Toolbox           |
|  \\    /   O peration     | Version:  v2012                                 |
|   \\  /    A nd           | Website:  www.openfoam.com                      |
|    \\/     M anipulation  |                                                 |
\*---------------------------------------------------------------------------*/
FoamFile
{
    version     2.0;
    format      ascii;
    class       volVectorField;
    location    "30";
    object      wallShearStress;
}
// * * * * * * * * * * * * * * * * * * * * * * * * * * * * * * * * * * * * * //

dimensions      [0 2 -2 0 0 0 0];


internalField   uniform (0 0 0);

boundaryField
{
    inlet
    {
        type            calculated;
        value           uniform (0 0 0);
    }
    outlet
    {
        type            calculated;
        value           uniform (0 0 0);
    }
    topWall
    {
        type            calculated;
        value           nonuniform List<vector> 
545
(
(1.48469e-08 -1.04508e-08 0)
(1.48402e-08 -2.9238e-08 0)
(1.48262e-08 -4.87718e-08 0)
(1.48057e-08 -6.77327e-08 0)
(1.47795e-08 -8.58738e-08 0)
(1.47482e-08 -1.03426e-07 0)
(1.47122e-08 -1.20537e-07 0)
(1.46719e-08 -1.37198e-07 0)
(1.46277e-08 -1.53371e-07 0)
(1.458e-08 -1.69053e-07 0)
(1.4529e-08 -1.84267e-07 0)
(1.44753e-08 -1.99029e-07 0)
(1.4419e-08 -2.13349e-07 0)
(1.43605e-08 -2.27236e-07 0)
(1.43e-08 -2.407e-07 0)
(1.42378e-08 -2.53753e-07 0)
(1.41741e-08 -2.66405e-07 0)
(1.41092e-08 -2.78669e-07 0)
(1.40433e-08 -2.90553e-07 0)
(1.39764e-08 -3.0207e-07 0)
(1.39089e-08 -3.13229e-07 0)
(1.38409e-08 -3.24041e-07 0)
(1.37725e-08 -3.34517e-07 0)
(1.37039e-08 -3.44665e-07 0)
(1.36352e-08 -3.54497e-07 0)
(1.35665e-08 -3.64021e-07 0)
(1.34979e-08 -3.73247e-07 0)
(1.34295e-08 -3.82184e-07 0)
(1.33615e-08 -3.90842e-07 0)
(1.32938e-08 -3.99229e-07 0)
(1.32266e-08 -4.07353e-07 0)
(1.316e-08 -4.15223e-07 0)
(1.30939e-08 -4.22847e-07 0)
(1.30285e-08 -4.30233e-07 0)
(1.29638e-08 -4.37388e-07 0)
(1.28998e-08 -4.4432e-07 0)
(1.28367e-08 -4.51036e-07 0)
(1.27743e-08 -4.57543e-07 0)
(1.27128e-08 -4.63848e-07 0)
(1.26522e-08 -4.69957e-07 0)
(1.25924e-08 -4.75877e-07 0)
(1.25336e-08 -4.81614e-07 0)
(1.24757e-08 -4.87173e-07 0)
(1.24188e-08 -4.92561e-07 0)
(1.23628e-08 -4.97784e-07 0)
(1.23078e-08 -5.02845e-07 0)
(1.22537e-08 -5.07752e-07 0)
(1.22006e-08 -5.12508e-07 0)
(1.21485e-08 -5.17119e-07 0)
(1.20974e-08 -5.21589e-07 0)
(1.20473e-08 -5.25924e-07 0)
(1.19981e-08 -5.30126e-07 0)
(1.19499e-08 -5.34202e-07 0)
(1.19026e-08 -5.38153e-07 0)
(1.18563e-08 -5.41986e-07 0)
(1.1811e-08 -5.45703e-07 0)
(1.17666e-08 -5.49309e-07 0)
(1.17231e-08 -5.52806e-07 0)
(1.16805e-08 -5.56199e-07 0)
(1.16389e-08 -5.5949e-07 0)
(1.15981e-08 -5.62683e-07 0)
(1.15583e-08 -5.65781e-07 0)
(1.15193e-08 -5.68788e-07 0)
(1.14811e-08 -5.71705e-07 0)
(1.14438e-08 -5.74536e-07 0)
(1.14074e-08 -5.77283e-07 0)
(1.13718e-08 -5.7995e-07 0)
(1.13369e-08 -5.82538e-07 0)
(1.13029e-08 -5.8505e-07 0)
(1.12697e-08 -5.87489e-07 0)
(1.12371e-08 -5.89857e-07 0)
(1.12056e-08 -5.92153e-07 0)
(1.1175e-08 -5.94359e-07 0)
(1.11449e-08 -5.96497e-07 0)
(1.11151e-08 -5.98609e-07 0)
(1.10854e-08 -6.00709e-07 0)
(1.10558e-08 -6.02797e-07 0)
(1.10263e-08 -6.0487e-07 0)
(1.09968e-08 -6.06927e-07 0)
(1.09674e-08 -6.08969e-07 0)
(1.09381e-08 -6.10996e-07 0)
(1.09088e-08 -6.13009e-07 0)
(1.08795e-08 -6.15007e-07 0)
(1.08504e-08 -6.16991e-07 0)
(1.08213e-08 -6.1896e-07 0)
(1.07922e-08 -6.20915e-07 0)
(1.07632e-08 -6.22856e-07 0)
(1.07343e-08 -6.24783e-07 0)
(1.07054e-08 -6.26695e-07 0)
(1.06766e-08 -6.28594e-07 0)
(1.06479e-08 -6.3048e-07 0)
(1.06193e-08 -6.32351e-07 0)
(1.05907e-08 -6.34209e-07 0)
(1.05622e-08 -6.36052e-07 0)
(1.05335e-08 -6.37888e-07 0)
(1.05061e-08 -6.39688e-07 0)
(1.04807e-08 -6.41336e-07 0)
(1.04564e-08 -6.42829e-07 0)
(1.0433e-08 -6.44279e-07 0)
(1.04096e-08 -6.45735e-07 0)
(1.03863e-08 -6.47203e-07 0)
(1.03628e-08 -6.48673e-07 0)
(1.03393e-08 -6.50141e-07 0)
(1.03157e-08 -6.51607e-07 0)
(1.02919e-08 -6.53074e-07 0)
(1.02681e-08 -6.54541e-07 0)
(1.02442e-08 -6.56008e-07 0)
(1.02202e-08 -6.57476e-07 0)
(1.01961e-08 -6.58943e-07 0)
(1.01719e-08 -6.6041e-07 0)
(1.01477e-08 -6.61877e-07 0)
(1.01233e-08 -6.63344e-07 0)
(1.00988e-08 -6.64811e-07 0)
(1.00743e-08 -6.66278e-07 0)
(1.00496e-08 -6.67745e-07 0)
(1.00248e-08 -6.69212e-07 0)
(1e-08 -6.70678e-07 0)
(9.97506e-09 -6.72145e-07 0)
(9.95003e-09 -6.73611e-07 0)
(9.9249e-09 -6.75077e-07 0)
(9.89968e-09 -6.76542e-07 0)
(9.87437e-09 -6.78007e-07 0)
(9.84896e-09 -6.79472e-07 0)
(9.82345e-09 -6.80937e-07 0)
(9.79785e-09 -6.82401e-07 0)
(9.77216e-09 -6.83865e-07 0)
(9.74637e-09 -6.85329e-07 0)
(9.72048e-09 -6.86792e-07 0)
(9.6945e-09 -6.88254e-07 0)
(9.66843e-09 -6.89716e-07 0)
(9.64226e-09 -6.91178e-07 0)
(9.616e-09 -6.92639e-07 0)
(9.58964e-09 -6.941e-07 0)
(9.56319e-09 -6.95559e-07 0)
(9.53664e-09 -6.97019e-07 0)
(9.51e-09 -6.98478e-07 0)
(9.48326e-09 -6.99936e-07 0)
(9.45643e-09 -7.01393e-07 0)
(9.4295e-09 -7.0285e-07 0)
(9.40248e-09 -7.04305e-07 0)
(9.37536e-09 -7.05761e-07 0)
(9.34815e-09 -7.07215e-07 0)
(9.32084e-09 -7.08669e-07 0)
(9.29344e-09 -7.10121e-07 0)
(9.26594e-09 -7.11573e-07 0)
(9.23835e-09 -7.13024e-07 0)
(9.21066e-09 -7.14474e-07 0)
(9.18288e-09 -7.15923e-07 0)
(9.155e-09 -7.17371e-07 0)
(9.12703e-09 -7.18818e-07 0)
(9.09897e-09 -7.20264e-07 0)
(9.07081e-09 -7.21709e-07 0)
(9.04256e-09 -7.23153e-07 0)
(9.01421e-09 -7.24596e-07 0)
(8.98577e-09 -7.26038e-07 0)
(8.95723e-09 -7.27478e-07 0)
(8.9286e-09 -7.28917e-07 0)
(8.89987e-09 -7.30355e-07 0)
(8.87106e-09 -7.31792e-07 0)
(8.84214e-09 -7.33228e-07 0)
(8.81314e-09 -7.34662e-07 0)
(8.78404e-09 -7.36095e-07 0)
(8.75485e-09 -7.37526e-07 0)
(8.72556e-09 -7.38956e-07 0)
(8.69618e-09 -7.40385e-07 0)
(8.66671e-09 -7.41812e-07 0)
(8.63715e-09 -7.43237e-07 0)
(8.60749e-09 -7.44661e-07 0)
(8.57774e-09 -7.46084e-07 0)
(8.5479e-09 -7.47505e-07 0)
(8.51796e-09 -7.48924e-07 0)
(8.48794e-09 -7.50342e-07 0)
(8.45782e-09 -7.51758e-07 0)
(8.42761e-09 -7.53172e-07 0)
(8.39731e-09 -7.54585e-07 0)
(8.36691e-09 -7.55995e-07 0)
(8.33643e-09 -7.57404e-07 0)
(8.30585e-09 -7.58811e-07 0)
(8.27519e-09 -7.60217e-07 0)
(8.24443e-09 -7.6162e-07 0)
(8.21359e-09 -7.63021e-07 0)
(8.18265e-09 -7.64421e-07 0)
(8.15162e-09 -7.65818e-07 0)
(8.12051e-09 -7.67214e-07 0)
(8.0893e-09 -7.68607e-07 0)
(8.05801e-09 -7.69998e-07 0)
(8.02663e-09 -7.71387e-07 0)
(7.99516e-09 -7.72774e-07 0)
(7.9636e-09 -7.74159e-07 0)
(7.93195e-09 -7.75541e-07 0)
(7.90022e-09 -7.76921e-07 0)
(7.8684e-09 -7.78299e-07 0)
(7.83649e-09 -7.79675e-07 0)
(7.80449e-09 -7.81048e-07 0)
(7.77241e-09 -7.82419e-07 0)
(7.74024e-09 -7.83787e-07 0)
(7.70799e-09 -7.85153e-07 0)
(7.67565e-09 -7.86516e-07 0)
(7.64322e-09 -7.87877e-07 0)
(7.61072e-09 -7.89236e-07 0)
(7.57812e-09 -7.90591e-07 0)
(7.54545e-09 -7.91944e-07 0)
(7.51269e-09 -7.93295e-07 0)
(7.47984e-09 -7.94642e-07 0)
(7.44692e-09 -7.95987e-07 0)
(7.41391e-09 -7.97329e-07 0)
(7.38082e-09 -7.98669e-07 0)
(7.34764e-09 -8.00005e-07 0)
(7.31439e-09 -8.01338e-07 0)
(7.28106e-09 -8.02669e-07 0)
(7.24764e-09 -8.03997e-07 0)
(7.21415e-09 -8.05321e-07 0)
(7.18057e-09 -8.06643e-07 0)
(7.14692e-09 -8.07961e-07 0)
(7.11319e-09 -8.09277e-07 0)
(7.07938e-09 -8.10589e-07 0)
(7.0455e-09 -8.11898e-07 0)
(7.01153e-09 -8.13204e-07 0)
(6.97749e-09 -8.14507e-07 0)
(6.94338e-09 -8.15806e-07 0)
(6.90918e-09 -8.17102e-07 0)
(6.87492e-09 -8.18395e-07 0)
(6.84058e-09 -8.19684e-07 0)
(6.80616e-09 -8.2097e-07 0)
(6.77167e-09 -8.22252e-07 0)
(6.73711e-09 -8.23531e-07 0)
(6.70248e-09 -8.24806e-07 0)
(6.66777e-09 -8.26078e-07 0)
(6.63299e-09 -8.27346e-07 0)
(6.59815e-09 -8.2861e-07 0)
(6.56323e-09 -8.29871e-07 0)
(6.52824e-09 -8.31128e-07 0)
(6.49319e-09 -8.32381e-07 0)
(6.45806e-09 -8.3363e-07 0)
(6.42287e-09 -8.34875e-07 0)
(6.38761e-09 -8.36117e-07 0)
(6.35229e-09 -8.37355e-07 0)
(6.3169e-09 -8.38588e-07 0)
(6.28145e-09 -8.39818e-07 0)
(6.24593e-09 -8.41044e-07 0)
(6.21034e-09 -8.42265e-07 0)
(6.1747e-09 -8.43482e-07 0)
(6.13899e-09 -8.44696e-07 0)
(6.10322e-09 -8.45905e-07 0)
(6.06739e-09 -8.4711e-07 0)
(6.0315e-09 -8.4831e-07 0)
(5.99555e-09 -8.49506e-07 0)
(5.95954e-09 -8.50698e-07 0)
(5.92348e-09 -8.51885e-07 0)
(5.88735e-09 -8.53068e-07 0)
(5.85117e-09 -8.54247e-07 0)
(5.81494e-09 -8.55421e-07 0)
(5.77865e-09 -8.5659e-07 0)
(5.7423e-09 -8.57755e-07 0)
(5.7059e-09 -8.58916e-07 0)
(5.66945e-09 -8.60071e-07 0)
(5.63295e-09 -8.61222e-07 0)
(5.5964e-09 -8.62368e-07 0)
(5.55979e-09 -8.6351e-07 0)
(5.52314e-09 -8.64646e-07 0)
(5.48644e-09 -8.65778e-07 0)
(5.44969e-09 -8.66904e-07 0)
(5.4129e-09 -8.68026e-07 0)
(5.37605e-09 -8.69143e-07 0)
(5.33917e-09 -8.70255e-07 0)
(5.30223e-09 -8.71362e-07 0)
(5.2653e-09 -8.72463e-07 0)
(5.22811e-09 -8.73561e-07 0)
(5.19181e-09 -8.74645e-07 0)
(5.15698e-09 -8.75674e-07 0)
(5.12288e-09 -8.7665e-07 0)
(5.08921e-09 -8.77613e-07 0)
(5.0554e-09 -8.78583e-07 0)
(5.02131e-09 -8.7956e-07 0)
(4.98689e-09 -8.80543e-07 0)
(4.95215e-09 -8.81528e-07 0)
(4.91708e-09 -8.82517e-07 0)
(4.88168e-09 -8.83509e-07 0)
(4.84595e-09 -8.84505e-07 0)
(4.80987e-09 -8.85504e-07 0)
(4.77346e-09 -8.86506e-07 0)
(4.73671e-09 -8.87512e-07 0)
(4.69962e-09 -8.8852e-07 0)
(4.66218e-09 -8.89532e-07 0)
(4.6244e-09 -8.90546e-07 0)
(4.58627e-09 -8.91563e-07 0)
(4.5478e-09 -8.92583e-07 0)
(4.50897e-09 -8.93604e-07 0)
(4.4698e-09 -8.94628e-07 0)
(4.43027e-09 -8.95655e-07 0)
(4.39039e-09 -8.96682e-07 0)
(4.35015e-09 -8.97712e-07 0)
(4.30956e-09 -8.98743e-07 0)
(4.26861e-09 -8.99776e-07 0)
(4.22731e-09 -9.0081e-07 0)
(4.18565e-09 -9.01845e-07 0)
(4.14362e-09 -9.0288e-07 0)
(4.10124e-09 -9.03916e-07 0)
(4.0585e-09 -9.04953e-07 0)
(4.01539e-09 -9.0599e-07 0)
(3.97193e-09 -9.07027e-07 0)
(3.9281e-09 -9.08064e-07 0)
(3.88391e-09 -9.091e-07 0)
(3.83935e-09 -9.10136e-07 0)
(3.79444e-09 -9.11171e-07 0)
(3.74916e-09 -9.12205e-07 0)
(3.70352e-09 -9.13237e-07 0)
(3.65752e-09 -9.14268e-07 0)
(3.61115e-09 -9.15296e-07 0)
(3.56443e-09 -9.16323e-07 0)
(3.51734e-09 -9.17347e-07 0)
(3.4699e-09 -9.18369e-07 0)
(3.4221e-09 -9.19387e-07 0)
(3.37394e-09 -9.20403e-07 0)
(3.32542e-09 -9.21414e-07 0)
(3.27655e-09 -9.22422e-07 0)
(3.22733e-09 -9.23426e-07 0)
(3.17775e-09 -9.24425e-07 0)
(3.12783e-09 -9.25419e-07 0)
(3.07755e-09 -9.26408e-07 0)
(3.02694e-09 -9.27392e-07 0)
(2.97598e-09 -9.28369e-07 0)
(2.92468e-09 -9.29341e-07 0)
(2.87304e-09 -9.30305e-07 0)
(2.82107e-09 -9.31263e-07 0)
(2.76877e-09 -9.32214e-07 0)
(2.71614e-09 -9.33157e-07 0)
(2.66319e-09 -9.34091e-07 0)
(2.60992e-09 -9.35017e-07 0)
(2.55633e-09 -9.35935e-07 0)
(2.50243e-09 -9.36842e-07 0)
(2.44823e-09 -9.3774e-07 0)
(2.39372e-09 -9.38628e-07 0)
(2.33891e-09 -9.39506e-07 0)
(2.28382e-09 -9.40372e-07 0)
(2.22843e-09 -9.41226e-07 0)
(2.17277e-09 -9.42069e-07 0)
(2.11683e-09 -9.42899e-07 0)
(2.06063e-09 -9.43716e-07 0)
(2.00416e-09 -9.4452e-07 0)
(1.94744e-09 -9.4531e-07 0)
(1.89047e-09 -9.46085e-07 0)
(1.83326e-09 -9.46845e-07 0)
(1.77582e-09 -9.4759e-07 0)
(1.71816e-09 -9.48319e-07 0)
(1.66028e-09 -9.49032e-07 0)
(1.60219e-09 -9.49727e-07 0)
(1.54391e-09 -9.50405e-07 0)
(1.48544e-09 -9.51065e-07 0)
(1.42678e-09 -9.51706e-07 0)
(1.36796e-09 -9.52328e-07 0)
(1.30898e-09 -9.5293e-07 0)
(1.24985e-09 -9.53512e-07 0)
(1.19059e-09 -9.54073e-07 0)
(1.13119e-09 -9.54612e-07 0)
(1.07169e-09 -9.55129e-07 0)
(1.01208e-09 -9.55623e-07 0)
(9.52378e-10 -9.56094e-07 0)
(8.92601e-10 -9.56541e-07 0)
(8.32758e-10 -9.56964e-07 0)
(7.72864e-10 -9.57361e-07 0)
(7.12931e-10 -9.57733e-07 0)
(6.52975e-10 -9.58078e-07 0)
(5.93008e-10 -9.58396e-07 0)
(5.33047e-10 -9.58686e-07 0)
(4.73105e-10 -9.58949e-07 0)
(4.13198e-10 -9.59182e-07 0)
(3.53342e-10 -9.59385e-07 0)
(2.93552e-10 -9.59559e-07 0)
(2.33845e-10 -9.59702e-07 0)
(1.74238e-10 -9.59813e-07 0)
(1.14747e-10 -9.59892e-07 0)
(5.53898e-11 -9.59938e-07 0)
(-3.81633e-12 -9.59951e-07 0)
(-6.28535e-11 -9.5993e-07 0)
(-1.21703e-10 -9.59874e-07 0)
(-1.80348e-10 -9.59783e-07 0)
(-2.38768e-10 -9.59655e-07 0)
(-2.96945e-10 -9.59492e-07 0)
(-3.5486e-10 -9.59291e-07 0)
(-4.12493e-10 -9.59052e-07 0)
(-4.69824e-10 -9.58775e-07 0)
(-5.26834e-10 -9.58459e-07 0)
(-5.83502e-10 -9.58103e-07 0)
(-6.39808e-10 -9.57707e-07 0)
(-6.95732e-10 -9.5727e-07 0)
(-7.51253e-10 -9.56791e-07 0)
(-8.06349e-10 -9.56271e-07 0)
(-8.61001e-10 -9.55708e-07 0)
(-9.15187e-10 -9.55102e-07 0)
(-9.68885e-10 -9.54452e-07 0)
(-1.02207e-09 -9.53758e-07 0)
(-1.07473e-09 -9.5302e-07 0)
(-1.12684e-09 -9.52236e-07 0)
(-1.17838e-09 -9.51406e-07 0)
(-1.22932e-09 -9.50531e-07 0)
(-1.27964e-09 -9.49608e-07 0)
(-1.32933e-09 -9.48639e-07 0)
(-1.37836e-09 -9.47622e-07 0)
(-1.42671e-09 -9.46557e-07 0)
(-1.47436e-09 -9.45444e-07 0)
(-1.52129e-09 -9.44282e-07 0)
(-1.56747e-09 -9.43071e-07 0)
(-1.61289e-09 -9.41811e-07 0)
(-1.65753e-09 -9.40501e-07 0)
(-1.70136e-09 -9.39141e-07 0)
(-1.74437e-09 -9.37731e-07 0)
(-1.78653e-09 -9.36271e-07 0)
(-1.82784e-09 -9.34759e-07 0)
(-1.86825e-09 -9.33197e-07 0)
(-1.90777e-09 -9.31584e-07 0)
(-1.94637e-09 -9.29919e-07 0)
(-1.98403e-09 -9.28204e-07 0)
(-2.02074e-09 -9.26437e-07 0)
(-2.05647e-09 -9.24618e-07 0)
(-2.09122e-09 -9.22748e-07 0)
(-2.12497e-09 -9.20826e-07 0)
(-2.15769e-09 -9.18853e-07 0)
(-2.18938e-09 -9.16829e-07 0)
(-2.22002e-09 -9.14753e-07 0)
(-2.2496e-09 -9.12627e-07 0)
(-2.27811e-09 -9.10449e-07 0)
(-2.30552e-09 -9.0822e-07 0)
(-2.33184e-09 -9.05941e-07 0)
(-2.35706e-09 -9.03612e-07 0)
(-2.38115e-09 -9.01232e-07 0)
(-2.40411e-09 -8.98803e-07 0)
(-2.42593e-09 -8.96325e-07 0)
(-2.44661e-09 -8.93797e-07 0)
(-2.46614e-09 -8.91221e-07 0)
(-2.48451e-09 -8.88598e-07 0)
(-2.50172e-09 -8.85926e-07 0)
(-2.51776e-09 -8.83208e-07 0)
(-2.53262e-09 -8.80443e-07 0)
(-2.54631e-09 -8.77632e-07 0)
(-2.55883e-09 -8.74777e-07 0)
(-2.57017e-09 -8.71876e-07 0)
(-2.58033e-09 -8.68932e-07 0)
(-2.58932e-09 -8.65945e-07 0)
(-2.59713e-09 -8.62916e-07 0)
(-2.60376e-09 -8.59846e-07 0)
(-2.60923e-09 -8.56735e-07 0)
(-2.61353e-09 -8.53584e-07 0)
(-2.61668e-09 -8.50394e-07 0)
(-2.61867e-09 -8.47167e-07 0)
(-2.61951e-09 -8.43903e-07 0)
(-2.61921e-09 -8.40603e-07 0)
(-2.61777e-09 -8.37267e-07 0)
(-2.61528e-09 -8.33902e-07 0)
(-2.61133e-09 -8.30466e-07 0)
(-2.60574e-09 -8.26672e-07 0)
(-2.59863e-09 -8.22513e-07 0)
(-2.58987e-09 -8.18285e-07 0)
(-2.57964e-09 -8.14082e-07 0)
(-2.56809e-09 -8.09919e-07 0)
(-2.55532e-09 -8.0578e-07 0)
(-2.54139e-09 -8.01659e-07 0)
(-2.52637e-09 -7.97557e-07 0)
(-2.51031e-09 -7.93482e-07 0)
(-2.49328e-09 -7.89434e-07 0)
(-2.47533e-09 -7.85414e-07 0)
(-2.45652e-09 -7.81424e-07 0)
(-2.43691e-09 -7.77466e-07 0)
(-2.41653e-09 -7.73539e-07 0)
(-2.39545e-09 -7.69647e-07 0)
(-2.3737e-09 -7.65789e-07 0)
(-2.35133e-09 -7.61966e-07 0)
(-2.32837e-09 -7.58181e-07 0)
(-2.30487e-09 -7.54433e-07 0)
(-2.28087e-09 -7.50724e-07 0)
(-2.25638e-09 -7.47053e-07 0)
(-2.23146e-09 -7.43423e-07 0)
(-2.20612e-09 -7.39834e-07 0)
(-2.1804e-09 -7.36285e-07 0)
(-2.15432e-09 -7.32779e-07 0)
(-2.12791e-09 -7.29315e-07 0)
(-2.10118e-09 -7.25895e-07 0)
(-2.07418e-09 -7.22517e-07 0)
(-2.0469e-09 -7.19184e-07 0)
(-2.01937e-09 -7.15895e-07 0)
(-1.99162e-09 -7.12651e-07 0)
(-1.96365e-09 -7.09452e-07 0)
(-1.93547e-09 -7.06298e-07 0)
(-1.90712e-09 -7.0319e-07 0)
(-1.87859e-09 -7.00128e-07 0)
(-1.8499e-09 -6.97112e-07 0)
(-1.82106e-09 -6.94143e-07 0)
(-1.79207e-09 -6.91221e-07 0)
(-1.76296e-09 -6.88345e-07 0)
(-1.73372e-09 -6.85517e-07 0)
(-1.70437e-09 -6.82736e-07 0)
(-1.67491e-09 -6.80003e-07 0)
(-1.64534e-09 -6.77318e-07 0)
(-1.61568e-09 -6.7468e-07 0)
(-1.58592e-09 -6.72091e-07 0)
(-1.55607e-09 -6.69549e-07 0)
(-1.52614e-09 -6.67056e-07 0)
(-1.49612e-09 -6.64612e-07 0)
(-1.46602e-09 -6.62216e-07 0)
(-1.43585e-09 -6.59869e-07 0)
(-1.4056e-09 -6.57571e-07 0)
(-1.37527e-09 -6.55322e-07 0)
(-1.34488e-09 -6.53122e-07 0)
(-1.31441e-09 -6.50971e-07 0)
(-1.28387e-09 -6.48869e-07 0)
(-1.25326e-09 -6.46817e-07 0)
(-1.22258e-09 -6.44815e-07 0)
(-1.19183e-09 -6.42862e-07 0)
(-1.16102e-09 -6.40959e-07 0)
(-1.13013e-09 -6.39106e-07 0)
(-1.09918e-09 -6.37303e-07 0)
(-1.06816e-09 -6.3555e-07 0)
(-1.03707e-09 -6.33847e-07 0)
(-1.00591e-09 -6.32195e-07 0)
(-9.74687e-10 -6.30593e-07 0)
(-9.43395e-10 -6.29041e-07 0)
(-9.12037e-10 -6.27541e-07 0)
(-8.80612e-10 -6.26091e-07 0)
(-8.4912e-10 -6.24692e-07 0)
(-8.17563e-10 -6.23344e-07 0)
(-7.85942e-10 -6.22047e-07 0)
(-7.54256e-10 -6.20801e-07 0)
(-7.22508e-10 -6.19607e-07 0)
(-6.90697e-10 -6.18464e-07 0)
(-6.58826e-10 -6.17372e-07 0)
(-6.26896e-10 -6.16332e-07 0)
(-5.94908e-10 -6.15344e-07 0)
(-5.62865e-10 -6.14407e-07 0)
(-5.30767e-10 -6.13523e-07 0)
(-4.98618e-10 -6.1269e-07 0)
(-4.66419e-10 -6.1191e-07 0)
(-4.34173e-10 -6.11181e-07 0)
(-4.01883e-10 -6.10505e-07 0)
(-3.6955e-10 -6.09881e-07 0)
(-3.37179e-10 -6.09309e-07 0)
(-3.04771e-10 -6.08793e-07 0)
(-2.72329e-10 -6.08314e-07 0)
(-2.39862e-10 -6.07941e-07 0)
(-2.07349e-10 -6.07439e-07 0)
(-1.74876e-10 -6.0759e-07 0)
(-1.42172e-10 -6.05756e-07 0)
(-1.10166e-10 -6.1048e-07 0)
(-7.58639e-11 -5.92062e-07 0)
(-4.96403e-11 -6.40579e-07 0)
(-2.1111e-11 -5.59447e-07 0)
)
;
    }
    bottomWall
    {
        type            calculated;
        value           nonuniform List<vector> 
449
(
(-48.5443 -0.964272 0)
(-19.7558 -0.00515668 0)
(-14.3468 -0.00113514 0)
(-12.0364 -0.000545675 0)
(-10.6298 -0.000351628 0)
(-9.63563 -0.000256092 0)
(-8.87727 -0.000198563 0)
(-8.27352 -0.000159878 0)
(-7.7779 -0.000132377 0)
(-7.3611 -0.000112023 0)
(-7.00396 -9.64159e-05 0)
(-6.69341 -8.41041e-05 0)
(-6.42015 -7.41823e-05 0)
(-6.17725 -6.60515e-05 0)
(-5.95948 -5.92919e-05 0)
(-5.76275 -5.36001e-05 0)
(-5.58388 -4.87539e-05 0)
(-5.42031 -4.45874e-05 0)
(-5.26996 -4.09744e-05 0)
(-5.13115 -3.78176e-05 0)
(-5.00245 -3.50402e-05 0)
(-4.88269 -3.25814e-05 0)
(-4.77088 -3.03925e-05 0)
(-4.66618 -2.84338e-05 0)
(-4.56784 -2.66729e-05 0)
(-4.47526 -2.50829e-05 0)
(-4.38788 -2.36416e-05 0)
(-4.30524 -2.23303e-05 0)
(-4.22691 -2.11332e-05 0)
(-4.15254 -2.00368e-05 0)
(-4.08179 -1.90298e-05 0)
(-4.01439 -1.81023e-05 0)
(-3.95006 -1.72458e-05 0)
(-3.88859 -1.6453e-05 0)
(-3.82977 -1.57174e-05 0)
(-3.77341 -1.50335e-05 0)
(-3.71934 -1.43963e-05 0)
(-3.66741 -1.38015e-05 0)
(-3.61747 -1.32453e-05 0)
(-3.56942 -1.27243e-05 0)
(-3.52312 -1.22354e-05 0)
(-3.47847 -1.1776e-05 0)
(-3.43538 -1.13436e-05 0)
(-3.39376 -1.09362e-05 0)
(-3.35352 -1.05516e-05 0)
(-3.31458 -1.01883e-05 0)
(-3.27689 -9.84449e-06 0)
(-3.24037 -9.51887e-06 0)
(-3.20496 -9.2101e-06 0)
(-3.17061 -8.91699e-06 0)
(-3.13726 -8.63845e-06 0)
(-3.10486 -8.3735e-06 0)
(-3.07338 -8.12123e-06 0)
(-3.04277 -7.88083e-06 0)
(-3.01298 -7.65152e-06 0)
(-2.98398 -7.4326e-06 0)
(-2.95575 -7.22345e-06 0)
(-2.92823 -7.02345e-06 0)
(-2.90141 -6.83207e-06 0)
(-2.87525 -6.64879e-06 0)
(-2.84972 -6.47316e-06 0)
(-2.82481 -6.30473e-06 0)
(-2.80048 -6.14309e-06 0)
(-2.77672 -5.98789e-06 0)
(-2.75349 -5.83876e-06 0)
(-2.73079 -5.69539e-06 0)
(-2.70859 -5.55746e-06 0)
(-2.68687 -5.4247e-06 0)
(-2.66562 -5.29684e-06 0)
(-2.64481 -5.17364e-06 0)
(-2.62444 -5.05486e-06 0)
(-2.60449 -4.94029e-06 0)
(-2.58493 -4.82972e-06 0)
(-2.56577 -4.72296e-06 0)
(-2.54699 -4.61984e-06 0)
(-2.52857 -4.52017e-06 0)
(-2.5105 -4.42382e-06 0)
(-2.49277 -4.33062e-06 0)
(-2.47538 -4.24043e-06 0)
(-2.4583 -4.15312e-06 0)
(-2.44154 -4.06857e-06 0)
(-2.42507 -3.98665e-06 0)
(-2.4089 -3.90726e-06 0)
(-2.393 -3.83029e-06 0)
(-2.37739 -3.75564e-06 0)
(-2.36204 -3.6832e-06 0)
(-2.34695 -3.6129e-06 0)
(-2.33211 -3.54465e-06 0)
(-2.31751 -3.47836e-06 0)
(-2.30316 -3.41395e-06 0)
(-2.28903 -3.35137e-06 0)
(-2.27513 -3.29052e-06 0)
(-2.26145 -3.23136e-06 0)
(-2.24798 -3.17381e-06 0)
(-2.23472 -3.11781e-06 0)
(-2.22166 -3.06331e-06 0)
(-2.20879 -3.01026e-06 0)
(-2.19612 -2.95859e-06 0)
(-2.18364 -2.90827e-06 0)
(-2.17134 -2.85924e-06 0)
(-2.15922 -2.81146e-06 0)
(-2.14727 -2.76489e-06 0)
(-2.13549 -2.71947e-06 0)
(-2.12387 -2.67518e-06 0)
(-2.11242 -2.63198e-06 0)
(-2.10112 -2.58983e-06 0)
(-2.08998 -2.54869e-06 0)
(-2.07899 -2.50853e-06 0)
(-2.06815 -2.46933e-06 0)
(-2.05745 -2.43104e-06 0)
(-2.04688 -2.39364e-06 0)
(-2.03646 -2.35711e-06 0)
(-2.02617 -2.32141e-06 0)
(-2.01601 -2.28651e-06 0)
(-2.00599 -2.2524e-06 0)
(-1.99608 -2.21905e-06 0)
(-1.9863 -2.18644e-06 0)
(-1.97664 -2.15454e-06 0)
(-1.9671 -2.12334e-06 0)
(-1.95767 -2.09281e-06 0)
(-1.94836 -2.06293e-06 0)
(-1.93916 -2.03368e-06 0)
(-1.93006 -2.00505e-06 0)
(-1.92108 -1.97702e-06 0)
(-1.91219 -1.94957e-06 0)
(-1.90341 -1.92269e-06 0)
(-1.89473 -1.89635e-06 0)
(-1.88615 -1.87055e-06 0)
(-1.87766 -1.84527e-06 0)
(-1.86927 -1.82049e-06 0)
(-1.86097 -1.7962e-06 0)
(-1.85277 -1.77239e-06 0)
(-1.84465 -1.74905e-06 0)
(-1.83662 -1.72616e-06 0)
(-1.82867 -1.70371e-06 0)
(-1.82081 -1.68168e-06 0)
(-1.81303 -1.66008e-06 0)
(-1.80534 -1.63889e-06 0)
(-1.79772 -1.61809e-06 0)
(-1.79019 -1.59768e-06 0)
(-1.78273 -1.57765e-06 0)
(-1.77534 -1.55798e-06 0)
(-1.76803 -1.53867e-06 0)
(-1.7608 -1.51971e-06 0)
(-1.75363 -1.5011e-06 0)
(-1.74654 -1.48282e-06 0)
(-1.73952 -1.46486e-06 0)
(-1.73256 -1.44722e-06 0)
(-1.72567 -1.42988e-06 0)
(-1.71885 -1.41285e-06 0)
(-1.7121 -1.39612e-06 0)
(-1.7054 -1.37967e-06 0)
(-1.69877 -1.36351e-06 0)
(-1.69221 -1.34762e-06 0)
(-1.6857 -1.33199e-06 0)
(-1.67925 -1.31663e-06 0)
(-1.67287 -1.30153e-06 0)
(-1.66654 -1.28668e-06 0)
(-1.66027 -1.27207e-06 0)
(-1.65405 -1.25771e-06 0)
(-1.64789 -1.24357e-06 0)
(-1.64178 -1.22967e-06 0)
(-1.63573 -1.21599e-06 0)
(-1.62974 -1.20253e-06 0)
(-1.62379 -1.18928e-06 0)
(-1.61789 -1.17625e-06 0)
(-1.61205 -1.16342e-06 0)
(-1.60626 -1.1508e-06 0)
(-1.60051 -1.1384e-06 0)
(-1.59481 -1.12605e-06 0)
(-1.58917 -1.11434e-06 0)
(-1.58356 -1.10223e-06 0)
(-1.57801 -1.08908e-06 0)
(-1.57282 -1.07891e-06 0)
(-1.56794 -1.07065e-06 0)
(-1.56304 -1.06028e-06 0)
(-1.55815 -1.04957e-06 0)
(-1.55325 -1.03954e-06 0)
(-1.54834 -1.02949e-06 0)
(-1.54343 -1.01956e-06 0)
(-1.53851 -1.0097e-06 0)
(-1.53359 -9.99898e-07 0)
(-1.52866 -9.90158e-07 0)
(-1.52373 -9.80476e-07 0)
(-1.51879 -9.70851e-07 0)
(-1.51385 -9.61282e-07 0)
(-1.5089 -9.51769e-07 0)
(-1.50395 -9.42312e-07 0)
(-1.499 -9.32909e-07 0)
(-1.49404 -9.23563e-07 0)
(-1.48908 -9.14272e-07 0)
(-1.48411 -9.05037e-07 0)
(-1.47914 -8.95858e-07 0)
(-1.47417 -8.86735e-07 0)
(-1.4692 -8.77669e-07 0)
(-1.46422 -8.6866e-07 0)
(-1.45924 -8.59707e-07 0)
(-1.45426 -8.50812e-07 0)
(-1.44928 -8.41975e-07 0)
(-1.44429 -8.33195e-07 0)
(-1.43931 -8.24472e-07 0)
(-1.43432 -8.15808e-07 0)
(-1.42933 -8.07202e-07 0)
(-1.42434 -7.98655e-07 0)
(-1.41935 -7.90166e-07 0)
(-1.41436 -7.81736e-07 0)
(-1.40937 -7.73365e-07 0)
(-1.40438 -7.65053e-07 0)
(-1.39938 -7.568e-07 0)
(-1.39439 -7.48606e-07 0)
(-1.3894 -7.40472e-07 0)
(-1.38441 -7.32397e-07 0)
(-1.37942 -7.24381e-07 0)
(-1.37444 -7.16426e-07 0)
(-1.36945 -7.0853e-07 0)
(-1.36446 -7.00693e-07 0)
(-1.35948 -6.92917e-07 0)
(-1.3545 -6.852e-07 0)
(-1.34952 -6.77543e-07 0)
(-1.34454 -6.69946e-07 0)
(-1.33957 -6.62409e-07 0)
(-1.33459 -6.54932e-07 0)
(-1.32963 -6.47515e-07 0)
(-1.32466 -6.40157e-07 0)
(-1.31969 -6.32859e-07 0)
(-1.31473 -6.25621e-07 0)
(-1.30978 -6.18443e-07 0)
(-1.30483 -6.11324e-07 0)
(-1.29988 -6.04265e-07 0)
(-1.29493 -5.97266e-07 0)
(-1.28999 -5.90325e-07 0)
(-1.28505 -5.83445e-07 0)
(-1.28012 -5.76623e-07 0)
(-1.2752 -5.69861e-07 0)
(-1.27027 -5.63157e-07 0)
(-1.26536 -5.56513e-07 0)
(-1.26045 -5.49927e-07 0)
(-1.25554 -5.434e-07 0)
(-1.25064 -5.36931e-07 0)
(-1.24574 -5.30521e-07 0)
(-1.24086 -5.24168e-07 0)
(-1.23597 -5.17874e-07 0)
(-1.2311 -5.11638e-07 0)
(-1.22623 -5.05459e-07 0)
(-1.22136 -4.99337e-07 0)
(-1.21651 -4.93273e-07 0)
(-1.21166 -4.87266e-07 0)
(-1.20682 -4.81316e-07 0)
(-1.20198 -4.75422e-07 0)
(-1.19715 -4.69585e-07 0)
(-1.19233 -4.63804e-07 0)
(-1.18752 -4.58079e-07 0)
(-1.18272 -4.5241e-07 0)
(-1.17792 -4.46796e-07 0)
(-1.17313 -4.41237e-07 0)
(-1.16835 -4.35734e-07 0)
(-1.16358 -4.30285e-07 0)
(-1.15881 -4.2489e-07 0)
(-1.15406 -4.1955e-07 0)
(-1.14931 -4.14264e-07 0)
(-1.14458 -4.09031e-07 0)
(-1.13985 -4.03852e-07 0)
(-1.13513 -3.98726e-07 0)
(-1.13042 -3.93652e-07 0)
(-1.12572 -3.88632e-07 0)
(-1.12103 -3.83663e-07 0)
(-1.11635 -3.78746e-07 0)
(-1.11168 -3.73881e-07 0)
(-1.10702 -3.69068e-07 0)
(-1.10237 -3.64305e-07 0)
(-1.09773 -3.59593e-07 0)
(-1.0931 -3.54932e-07 0)
(-1.08848 -3.5032e-07 0)
(-1.08387 -3.45758e-07 0)
(-1.07927 -3.41246e-07 0)
(-1.07468 -3.36783e-07 0)
(-1.0701 -3.32369e-07 0)
(-1.06554 -3.28003e-07 0)
(-1.06098 -3.23685e-07 0)
(-1.05644 -3.19415e-07 0)
(-1.05191 -3.15192e-07 0)
(-1.04738 -3.11017e-07 0)
(-1.04287 -3.06888e-07 0)
(-1.03838 -3.02806e-07 0)
(-1.03389 -2.9877e-07 0)
(-1.02941 -2.9478e-07 0)
(-1.02495 -2.90835e-07 0)
(-1.0205 -2.86935e-07 0)
(-1.01606 -2.8308e-07 0)
(-1.01164 -2.79269e-07 0)
(-1.00722 -2.75502e-07 0)
(-1.00282 -2.71779e-07 0)
(-0.998428 -2.68099e-07 0)
(-0.994051 -2.64462e-07 0)
(-0.989685 -2.60868e-07 0)
(-0.985333 -2.57316e-07 0)
(-0.980993 -2.53806e-07 0)
(-0.976666 -2.50338e-07 0)
(-0.972352 -2.46911e-07 0)
(-0.96805 -2.43524e-07 0)
(-0.963762 -2.40178e-07 0)
(-0.959486 -2.36873e-07 0)
(-0.955224 -2.33607e-07 0)
(-0.950975 -2.3038e-07 0)
(-0.946738 -2.27193e-07 0)
(-0.942516 -2.24044e-07 0)
(-0.938306 -2.20934e-07 0)
(-0.93411 -2.17862e-07 0)
(-0.929927 -2.14827e-07 0)
(-0.925758 -2.1183e-07 0)
(-0.921602 -2.0887e-07 0)
(-0.91746 -2.05947e-07 0)
(-0.913332 -2.03059e-07 0)
(-0.909217 -2.00208e-07 0)
(-0.905116 -1.97392e-07 0)
(-0.901029 -1.94612e-07 0)
(-0.896955 -1.91867e-07 0)
(-0.892896 -1.89156e-07 0)
(-0.88885 -1.86479e-07 0)
(-0.884819 -1.83836e-07 0)
(-0.880801 -1.81227e-07 0)
(-0.876797 -1.78651e-07 0)
(-0.872808 -1.76108e-07 0)
(-0.868832 -1.73598e-07 0)
(-0.864871 -1.71119e-07 0)
(-0.860923 -1.68673e-07 0)
(-0.85699 -1.66258e-07 0)
(-0.853071 -1.63874e-07 0)
(-0.849167 -1.61522e-07 0)
(-0.845276 -1.59199e-07 0)
(-0.8414 -1.56908e-07 0)
(-0.837539 -1.54646e-07 0)
(-0.833691 -1.52413e-07 0)
(-0.829858 -1.5021e-07 0)
(-0.82604 -1.48036e-07 0)
(-0.822236 -1.45891e-07 0)
(-0.818446 -1.43774e-07 0)
(-0.81467 -1.41685e-07 0)
(-0.81091 -1.39624e-07 0)
(-0.807163 -1.3759e-07 0)
(-0.803431 -1.35583e-07 0)
(-0.799714 -1.33603e-07 0)
(-0.796011 -1.3165e-07 0)
(-0.792323 -1.29722e-07 0)
(-0.788649 -1.27821e-07 0)
(-0.784989 -1.25945e-07 0)
(-0.781345 -1.24095e-07 0)
(-0.777714 -1.22269e-07 0)
(-0.774099 -1.20466e-07 0)
(-0.770498 -1.18691e-07 0)
(-0.766911 -1.16934e-07 0)
(-0.76334 -1.15169e-07 0)
(-0.759785 -1.13546e-07 0)
(-0.756237 -1.11934e-07 0)
(-0.75231 -1.09975e-07 0)
(-0.748052 -1.07898e-07 0)
(-0.743871 -1.06028e-07 0)
(-0.739759 -1.04252e-07 0)
(-0.735717 -1.02462e-07 0)
(-0.731745 -1.00706e-07 0)
(-0.727841 -9.89942e-08 0)
(-0.724002 -9.73284e-08 0)
(-0.720228 -9.57071e-08 0)
(-0.716517 -9.41291e-08 0)
(-0.712866 -9.2593e-08 0)
(-0.709275 -9.10976e-08 0)
(-0.705741 -8.96415e-08 0)
(-0.702264 -8.82233e-08 0)
(-0.698841 -8.68416e-08 0)
(-0.695472 -8.54952e-08 0)
(-0.692155 -8.41829e-08 0)
(-0.688888 -8.29034e-08 0)
(-0.685671 -8.16556e-08 0)
(-0.682502 -8.04385e-08 0)
(-0.67938 -7.9251e-08 0)
(-0.676304 -7.8092e-08 0)
(-0.673272 -7.69608e-08 0)
(-0.670284 -7.58563e-08 0)
(-0.667339 -7.47777e-08 0)
(-0.664436 -7.37242e-08 0)
(-0.661574 -7.26949e-08 0)
(-0.658751 -7.1689e-08 0)
(-0.655967 -7.0706e-08 0)
(-0.653221 -6.97449e-08 0)
(-0.650512 -6.88052e-08 0)
(-0.64784 -6.78862e-08 0)
(-0.645203 -6.69873e-08 0)
(-0.642601 -6.61079e-08 0)
(-0.640033 -6.52473e-08 0)
(-0.637498 -6.44051e-08 0)
(-0.634996 -6.35807e-08 0)
(-0.632526 -6.27736e-08 0)
(-0.630087 -6.19833e-08 0)
(-0.627678 -6.12093e-08 0)
(-0.6253 -6.04511e-08 0)
(-0.62295 -5.97083e-08 0)
(-0.62063 -5.89805e-08 0)
(-0.618338 -5.82673e-08 0)
(-0.616073 -5.75683e-08 0)
(-0.613836 -5.6883e-08 0)
(-0.611625 -5.62112e-08 0)
(-0.60944 -5.55525e-08 0)
(-0.60728 -5.49064e-08 0)
(-0.605146 -5.42728e-08 0)
(-0.603036 -5.36512e-08 0)
(-0.60095 -5.30414e-08 0)
(-0.598888 -5.24431e-08 0)
(-0.596849 -5.18559e-08 0)
(-0.594832 -5.12797e-08 0)
(-0.592838 -5.07141e-08 0)
(-0.590866 -5.01589e-08 0)
(-0.588916 -4.96138e-08 0)
(-0.586986 -4.90786e-08 0)
(-0.585078 -4.85532e-08 0)
(-0.583189 -4.80371e-08 0)
(-0.581321 -4.75304e-08 0)
(-0.579472 -4.70327e-08 0)
(-0.577643 -4.65438e-08 0)
(-0.575832 -4.60637e-08 0)
(-0.574041 -4.5592e-08 0)
(-0.572267 -4.51288e-08 0)
(-0.570511 -4.46737e-08 0)
(-0.568774 -4.42268e-08 0)
(-0.567053 -4.37877e-08 0)
(-0.565349 -4.33566e-08 0)
(-0.563662 -4.29332e-08 0)
(-0.561992 -4.25176e-08 0)
(-0.560337 -4.21096e-08 0)
(-0.558699 -4.17093e-08 0)
(-0.557076 -4.13168e-08 0)
(-0.555468 -4.0932e-08 0)
(-0.553875 -4.05553e-08 0)
(-0.552296 -4.01869e-08 0)
(-0.550732 -3.98271e-08 0)
(-0.549182 -3.94766e-08 0)
(-0.547645 -3.91362e-08 0)
(-0.546121 -3.88073e-08 0)
(-0.54461 -3.84913e-08 0)
(-0.543111 -3.81911e-08 0)
(-0.541624 -3.79181e-08 0)
(-0.540146 -3.76473e-08 0)
(-0.53868 -3.74292e-08 0)
(-0.537219 -3.74687e-08 0)
(-0.53575 -3.6864e-08 0)
(-0.534337 -3.59994e-08 0)
(-0.532934 -4.76253e-08 0)
(-0.530612 -1.3064e-08 0)
(-0.531924 -3.50011e-08 0)
(-0.527833 -5.32375e-08 0)
)
;
    }
    symmetry
    {
        type            symmetryPlane;
    }
    frontAndBack
    {
        type            empty;
    }
}


// ************************************************************************* //
