/*--------------------------------*- C++ -*----------------------------------*\
| =========                 |                                                 |
| \\      /  F ield         | OpenFOAM: The Open Source CFD Toolbox           |
|  \\    /   O peration     | Version:  v2012                                 |
|   \\  /    A nd           | Website:  www.openfoam.com                      |
|    \\/     M anipulation  |                                                 |
\*---------------------------------------------------------------------------*/
FoamFile
{
    version     2.0;
    format      ascii;
    class       volScalarField;
    location    "23";
    object      k;
}
// * * * * * * * * * * * * * * * * * * * * * * * * * * * * * * * * * * * * * //

dimensions      [0 2 -2 0 0 0 0];


internalField   nonuniform List<scalar> 
209825
(
0.00102078
0.000932165
0.00087317
0.000834231
0.000807575
0.000788508
0.00077432
0.000763436
0.000754876
0.000748011
0.000742414
0.000737788
0.000733921
0.000730655
0.000727871
0.000725483
0.000723416
0.000721618
0.000720039
0.000718661
0.000717436
0.000716356
0.000715381
0.000714527
0.000713749
0.000713057
0.000712418
0.000711862
0.000711342
0.000710889
0.00071045
0.000710089
0.000709734
0.000709417
0.000709111
0.000708865
0.000708622
0.000708416
0.000708204
0.00070805
0.000707879
0.000707732
0.000707584
0.000707494
0.000707348
0.000707237
0.000707153
0.000707097
0.000707047
0.000707006
0.000706922
0.000706874
0.000706848
0.000706815
0.000706721
0.000706732
0.000706731
0.000706711
0.000706799
0.000706799
0.000706799
0.000706886
0.00070695
0.000707078
0.000707188
0.000707349
0.000707448
0.000707609
0.000707689
0.000707828
0.000707928
0.000708118
0.000708236
0.00070843
0.000708551
0.000708772
0.000708893
0.000709136
0.000709271
0.000709555
0.000709704
0.000710009
0.000710174
0.000710518
0.000710709
0.000711111
0.000711337
0.000711817
0.000712078
0.000712673
0.000712947
0.000713894
0.000714169
0.000725092
0.000770027
0.00197468
0.00102078
0.000932164
0.000873166
0.000834224
0.000807565
0.000788495
0.000774306
0.000763421
0.000754859
0.000747992
0.000742394
0.000737768
0.0007339
0.000730634
0.000727849
0.000725461
0.000723393
0.000721595
0.000720016
0.000718638
0.000717412
0.000716332
0.000715357
0.000714503
0.000713725
0.000713032
0.000712393
0.000711838
0.000711317
0.000710864
0.000710425
0.000710064
0.000709708
0.000709391
0.000709086
0.00070884
0.000708597
0.000708391
0.000708179
0.000708024
0.000707853
0.000707707
0.000707558
0.000707468
0.000707323
0.000707211
0.000707127
0.000707071
0.000707021
0.000706981
0.000706896
0.000706848
0.000706822
0.000706789
0.000706695
0.000706706
0.000706705
0.000706685
0.000706773
0.000706773
0.000706772
0.00070686
0.000706924
0.000707052
0.000707162
0.000707323
0.000707422
0.000707582
0.000707663
0.000707801
0.000707901
0.000708092
0.000708209
0.000708404
0.000708524
0.000708746
0.000708866
0.000709109
0.000709245
0.000709529
0.000709678
0.000709983
0.000710148
0.000710492
0.000710682
0.000711084
0.00071131
0.00071179
0.000712051
0.000712646
0.00071292
0.000713867
0.000714143
0.000725086
0.000770019
0.00197586
0.00102078
0.000932159
0.000873148
0.000834191
0.00080752
0.000788442
0.000774245
0.000763354
0.000754787
0.000747917
0.000742316
0.000737687
0.000733816
0.000730548
0.000727761
0.000725372
0.000723303
0.000721504
0.000719924
0.000718544
0.000717318
0.000716237
0.000715261
0.000714407
0.000713628
0.000712935
0.000712295
0.000711739
0.000711218
0.000710765
0.000710326
0.000709964
0.000709608
0.000709291
0.000708985
0.000708739
0.000708496
0.00070829
0.000708077
0.000707922
0.000707752
0.000707605
0.000707456
0.000707366
0.00070722
0.000707108
0.000707024
0.000706969
0.000706919
0.000706878
0.000706793
0.000706745
0.000706719
0.000706686
0.000706592
0.000706602
0.000706602
0.000706582
0.00070667
0.00070667
0.000706669
0.000706756
0.00070682
0.000706948
0.000707058
0.000707219
0.000707318
0.000707478
0.000707559
0.000707697
0.000707797
0.000707987
0.000708105
0.0007083
0.00070842
0.000708642
0.000708762
0.000709005
0.00070914
0.000709424
0.000709573
0.000709878
0.000710043
0.000710387
0.000710577
0.000710979
0.000711205
0.000711685
0.000711946
0.00071254
0.000712814
0.000713761
0.000714036
0.000725022
0.000769943
0.00197821
0.00102079
0.000932151
0.000873115
0.000834135
0.000807445
0.000788351
0.000774142
0.000763241
0.000754667
0.00074779
0.000742183
0.00073755
0.000733675
0.000730404
0.000727614
0.000725222
0.000723151
0.00072135
0.000719768
0.000718387
0.000717159
0.000716077
0.0007151
0.000714245
0.000713465
0.000712771
0.000712131
0.000711574
0.000711052
0.000710598
0.000710159
0.000709797
0.00070944
0.000709123
0.000708816
0.00070857
0.000708326
0.00070812
0.000707907
0.000707752
0.000707581
0.000707434
0.000707285
0.000707195
0.000707049
0.000706937
0.000706853
0.000706797
0.000706746
0.000706706
0.000706621
0.000706572
0.000706546
0.000706513
0.000706419
0.000706429
0.000706429
0.000706409
0.000706496
0.000706496
0.000706495
0.000706583
0.000706646
0.000706774
0.000706884
0.000707044
0.000707144
0.000707304
0.000707384
0.000707523
0.000707622
0.000707812
0.00070793
0.000708125
0.000708245
0.000708466
0.000708587
0.000708829
0.000708965
0.000709248
0.000709397
0.000709702
0.000709867
0.000710211
0.000710401
0.000710802
0.000711028
0.000711508
0.000711768
0.000712363
0.000712636
0.000713583
0.000713856
0.00072491
0.000769804
0.00198094
0.0010208
0.000932139
0.00087307
0.000834057
0.000807339
0.000788223
0.000773997
0.000763082
0.000754497
0.00074761
0.000741996
0.000737356
0.000733476
0.0007302
0.000727406
0.000725011
0.000722936
0.000721132
0.000719548
0.000718165
0.000716935
0.000715851
0.000714873
0.000714016
0.000713235
0.00071254
0.000711899
0.000711341
0.000710818
0.000710364
0.000709923
0.00070956
0.000709203
0.000708885
0.000708578
0.000708331
0.000708087
0.00070788
0.000707667
0.000707512
0.00070734
0.000707193
0.000707043
0.000706953
0.000706807
0.000706695
0.00070661
0.000706554
0.000706504
0.000706463
0.000706378
0.000706329
0.000706303
0.000706269
0.000706176
0.000706186
0.000706185
0.000706164
0.000706251
0.000706251
0.00070625
0.000706338
0.0007064
0.000706528
0.000706638
0.000706798
0.000706898
0.000707058
0.000707138
0.000707276
0.000707376
0.000707566
0.000707683
0.000707878
0.000707998
0.000708219
0.000708339
0.000708582
0.000708717
0.000709
0.000709149
0.000709454
0.000709618
0.000709962
0.000710152
0.000710553
0.000710779
0.000711258
0.000711518
0.000712112
0.000712385
0.000713332
0.000713604
0.000724749
0.000769602
0.00198404
0.0010208
0.000932124
0.000873011
0.000833955
0.000807202
0.000788057
0.000773809
0.000762876
0.000754276
0.000747378
0.000741754
0.000737105
0.000733218
0.000729936
0.000727137
0.000724737
0.000722658
0.000720851
0.000719263
0.000717877
0.000716645
0.000715559
0.000714579
0.00071372
0.000712937
0.000712241
0.000711598
0.000711039
0.000710515
0.000710059
0.000709618
0.000709254
0.000708896
0.000708578
0.00070827
0.000708022
0.000707778
0.00070757
0.000707356
0.0007072
0.000707028
0.000706881
0.000706731
0.00070664
0.000706494
0.000706381
0.000706296
0.00070624
0.000706189
0.000706148
0.000706063
0.000706014
0.000705987
0.000705954
0.00070586
0.000705869
0.000705869
0.000705847
0.000705934
0.000705934
0.000705933
0.00070602
0.000706082
0.00070621
0.000706319
0.000706479
0.000706579
0.000706739
0.000706819
0.000706957
0.000707056
0.000707246
0.000707363
0.000707558
0.000707677
0.000707899
0.000708019
0.000708261
0.000708396
0.000708679
0.000708828
0.000709132
0.000709296
0.00070964
0.00070983
0.00071023
0.000710456
0.000710934
0.000711194
0.000711787
0.000712059
0.000713006
0.000713276
0.00072454
0.000769337
0.00198742
0.00102081
0.000932105
0.000872939
0.000833829
0.000807032
0.000787853
0.000773578
0.000762623
0.000754005
0.000747091
0.000741455
0.000736796
0.000732901
0.000729611
0.000726805
0.000724399
0.000722316
0.000720504
0.000718912
0.000717523
0.000716287
0.000715199
0.000714216
0.000713355
0.00071257
0.000711872
0.000711227
0.000710666
0.000710141
0.000709684
0.000709241
0.000708877
0.000708518
0.000708198
0.000707889
0.000707641
0.000707396
0.000707187
0.000706973
0.000706816
0.000706644
0.000706496
0.000706345
0.000706254
0.000706108
0.000705994
0.000705909
0.000705852
0.000705801
0.000705759
0.000705675
0.000705625
0.000705598
0.000705565
0.000705471
0.00070548
0.000705479
0.000705457
0.000705542
0.000705542
0.000705541
0.000705628
0.00070569
0.000705817
0.000705926
0.000706086
0.000706185
0.000706346
0.000706425
0.000706563
0.000706662
0.000706852
0.000706969
0.000707163
0.000707283
0.000707504
0.000707623
0.000707866
0.000708
0.000708283
0.000708431
0.000708735
0.000708899
0.000709242
0.000709432
0.000709832
0.000710057
0.000710534
0.000710794
0.000711386
0.000711658
0.000712605
0.000712872
0.000724284
0.000769008
0.00199096
0.00102083
0.000932083
0.000872853
0.000833681
0.000806831
0.00078761
0.000773302
0.00076232
0.000753681
0.00074675
0.000741099
0.000736428
0.000732522
0.000729223
0.000726409
0.000723997
0.000721907
0.00072009
0.000718494
0.0007171
0.000715861
0.000714769
0.000713783
0.000712919
0.000712132
0.000711431
0.000710785
0.000710222
0.000709695
0.000709237
0.000708793
0.000708427
0.000708066
0.000707746
0.000707436
0.000707186
0.00070694
0.000706731
0.000706516
0.000706358
0.000706185
0.000706036
0.000705885
0.000705794
0.000705647
0.000705533
0.000705447
0.00070539
0.000705338
0.000705296
0.000705211
0.000705161
0.000705134
0.0007051
0.000705007
0.000705015
0.000705014
0.000704991
0.000705076
0.000705076
0.000705075
0.000705161
0.000705222
0.000705349
0.000705458
0.000705617
0.000705716
0.000705876
0.000705956
0.000706094
0.000706192
0.000706381
0.000706498
0.000706692
0.000706812
0.000707032
0.000707152
0.000707394
0.000707528
0.00070781
0.000707958
0.000708262
0.000708426
0.000708768
0.000708958
0.000709357
0.000709581
0.000710058
0.000710317
0.000710908
0.000711179
0.000712125
0.000712391
0.000723981
0.000768615
0.0019944
0.00102084
0.000932057
0.000872754
0.000833508
0.000806598
0.000787328
0.000772982
0.000761969
0.000753305
0.000746354
0.000740685
0.000736
0.000732081
0.000728772
0.000725949
0.000723528
0.000721432
0.000719608
0.000718007
0.000716608
0.000715365
0.000714269
0.000713279
0.000712412
0.000711622
0.000710919
0.00071027
0.000709705
0.000709176
0.000708716
0.00070827
0.000707902
0.000707541
0.000707219
0.000706908
0.000706657
0.00070641
0.000706199
0.000705983
0.000705825
0.000705651
0.000705502
0.00070535
0.000705257
0.00070511
0.000704996
0.000704909
0.000704851
0.000704799
0.000704757
0.000704672
0.000704622
0.000704593
0.00070456
0.000704466
0.000704473
0.000704472
0.000704448
0.000704532
0.000704532
0.000704531
0.000704617
0.000704678
0.000704804
0.000704912
0.000705071
0.00070517
0.00070533
0.000705409
0.000705547
0.000705645
0.000705833
0.00070595
0.000706144
0.000706263
0.000706483
0.000706603
0.000706844
0.000706978
0.00070726
0.000707408
0.000707711
0.000707875
0.000708216
0.000708405
0.000708803
0.000709028
0.000709503
0.000709762
0.000710352
0.000710621
0.000711567
0.00071183
0.00072363
0.000768158
0.0019974
0.00102086
0.000932029
0.000872641
0.000833312
0.000806332
0.000787007
0.000772616
0.000761568
0.000752875
0.0007459
0.000740212
0.00073551
0.000731577
0.000728256
0.000725423
0.000722993
0.000720888
0.000719058
0.00071745
0.000716046
0.000714797
0.000713697
0.000712703
0.000711833
0.000711039
0.000710333
0.000709681
0.000709114
0.000708583
0.00070812
0.000707672
0.000707303
0.000706939
0.000706616
0.000706303
0.000706051
0.000705803
0.000705592
0.000705374
0.000705215
0.00070504
0.00070489
0.000704737
0.000704644
0.000704496
0.000704381
0.000704294
0.000704235
0.000704182
0.00070414
0.000704054
0.000704004
0.000703975
0.000703941
0.000703848
0.000703854
0.000703852
0.000703828
0.00070391
0.00070391
0.000703909
0.000703995
0.000704054
0.00070418
0.000704287
0.000704446
0.000704545
0.000704705
0.000704784
0.000704921
0.000705019
0.000705207
0.000705323
0.000705517
0.000705635
0.000705855
0.000705975
0.000706215
0.000706349
0.00070663
0.000706778
0.00070708
0.000707244
0.000707585
0.000707773
0.00070817
0.000708394
0.000708868
0.000709126
0.000709715
0.000709983
0.000710929
0.000711188
0.000723232
0.000767636
0.00199944
0.00102087
0.000931997
0.000872515
0.000833091
0.000806033
0.000786645
0.000772204
0.000761117
0.000752392
0.00074539
0.000739679
0.000734958
0.00073101
0.000727674
0.000724829
0.000722389
0.000720275
0.000718437
0.000716822
0.000715411
0.000714157
0.000713052
0.000712054
0.000711179
0.000710381
0.000709672
0.000709017
0.000708447
0.000707913
0.000707448
0.000706998
0.000706626
0.000706261
0.000705936
0.000705622
0.000705368
0.000705118
0.000704906
0.000704687
0.000704527
0.000704351
0.0007042
0.000704046
0.000703952
0.000703804
0.000703688
0.000703599
0.00070354
0.000703486
0.000703444
0.000703358
0.000703307
0.000703277
0.000703243
0.00070315
0.000703155
0.000703153
0.000703127
0.000703209
0.000703209
0.000703207
0.000703293
0.000703351
0.000703476
0.000703583
0.000703741
0.00070384
0.000704
0.000704078
0.000704215
0.000704312
0.000704499
0.000704616
0.000704809
0.000704927
0.000705147
0.000705266
0.000705506
0.000705639
0.000705919
0.000706067
0.000706369
0.000706532
0.000706872
0.00070706
0.000707456
0.000707679
0.000708152
0.000708409
0.000708996
0.000709263
0.000710209
0.000710465
0.000722787
0.000767049
0.00199982
0.00102089
0.000931962
0.000872375
0.000832847
0.0008057
0.000786243
0.000771746
0.000760614
0.000751853
0.000744821
0.000739086
0.000734344
0.000730377
0.000727026
0.000724168
0.000721716
0.000719592
0.000717745
0.000716122
0.000714704
0.000713443
0.000712332
0.000711329
0.000710449
0.000709648
0.000708935
0.000708276
0.000707703
0.000707166
0.000706698
0.000706246
0.000705872
0.000705505
0.000705178
0.000704861
0.000704606
0.000704354
0.000704141
0.000703921
0.000703759
0.000703582
0.00070343
0.000703275
0.00070318
0.000703031
0.000702915
0.000702825
0.000702765
0.00070271
0.000702667
0.000702581
0.000702529
0.000702499
0.000702465
0.000702371
0.000702376
0.000702373
0.000702346
0.000702426
0.000702426
0.000702424
0.000702509
0.000702566
0.000702691
0.000702797
0.000702954
0.000703053
0.000703213
0.000703291
0.000703427
0.000703524
0.00070371
0.000703826
0.000704019
0.000704137
0.000704356
0.000704475
0.000704714
0.000704847
0.000705126
0.000705274
0.000705575
0.000705737
0.000706077
0.000706264
0.000706659
0.000706881
0.000707353
0.000707609
0.000708195
0.00070846
0.000709405
0.000709658
0.000722294
0.000766395
0.0019978
0.00102091
0.000931924
0.000872222
0.000832578
0.000805335
0.000785799
0.000771242
0.00076006
0.000751258
0.000744193
0.00073843
0.000733665
0.000729678
0.00072631
0.000723437
0.000720972
0.000718837
0.00071698
0.000715348
0.000713922
0.000712655
0.000711537
0.000710528
0.000709643
0.000708837
0.00070812
0.000707457
0.00070688
0.00070634
0.00070587
0.000705414
0.000705038
0.000704668
0.000704339
0.000704021
0.000703764
0.00070351
0.000703295
0.000703073
0.00070291
0.000702732
0.000702579
0.000702422
0.000702326
0.000702177
0.00070206
0.000701969
0.000701907
0.000701851
0.000701808
0.000701722
0.000701669
0.000701638
0.000701604
0.000701511
0.000701514
0.00070151
0.000701482
0.00070156
0.00070156
0.000701558
0.000701643
0.000701699
0.000701822
0.000701928
0.000702085
0.000702183
0.000702343
0.00070242
0.000702556
0.000702652
0.000702838
0.000702953
0.000703146
0.000703263
0.000703482
0.0007036
0.000703839
0.000703971
0.00070425
0.000704396
0.000704697
0.000704859
0.000705197
0.000705384
0.000705778
0.000705999
0.000706469
0.000706724
0.000707308
0.000707572
0.000708517
0.000708765
0.000721754
0.000765674
0.00199337
0.00102094
0.000931884
0.000872056
0.000832285
0.000804935
0.000785315
0.00077069
0.000759453
0.000750607
0.000743506
0.000737712
0.000732921
0.000728913
0.000725526
0.000722636
0.000720157
0.000718009
0.000716141
0.0007145
0.000713065
0.00071179
0.000710665
0.00070965
0.00070876
0.000707948
0.000707226
0.000706559
0.000705978
0.000705435
0.000704961
0.000704502
0.000704123
0.000703751
0.00070342
0.000703099
0.000702839
0.000702584
0.000702367
0.000702144
0.000701978
0.000701799
0.000701645
0.000701487
0.00070139
0.00070124
0.000701121
0.000701029
0.000700967
0.000700909
0.000700866
0.000700779
0.000700726
0.000700694
0.000700659
0.000700567
0.000700568
0.000700564
0.000700534
0.000700611
0.000700611
0.000700608
0.000700693
0.000700747
0.00070087
0.000700974
0.00070113
0.000701228
0.000701388
0.000701465
0.0007016
0.000701695
0.000701881
0.000701995
0.000702188
0.000702304
0.000702522
0.00070264
0.000702879
0.00070301
0.000703288
0.000703434
0.000703734
0.000703895
0.000704232
0.000704419
0.000704811
0.000705031
0.000705499
0.000705753
0.000706335
0.000706597
0.000707542
0.000707787
0.000721166
0.000764885
0.00198657
0.00102096
0.00093184
0.000871876
0.000831968
0.000804502
0.000784789
0.00077009
0.000758794
0.0007499
0.000742758
0.000736931
0.000732112
0.000728079
0.000724671
0.000721764
0.000719269
0.000717108
0.000715228
0.000713576
0.000712132
0.000710848
0.000709715
0.000708693
0.000707796
0.000706979
0.000706252
0.000705581
0.000704996
0.000704448
0.000703971
0.000703509
0.000703126
0.000702751
0.000702417
0.000702094
0.000701832
0.000701575
0.000701356
0.000701131
0.000700964
0.000700782
0.000700627
0.000700467
0.000700369
0.000700218
0.000700099
0.000700005
0.000699942
0.000699883
0.000699839
0.000699752
0.000699698
0.000699665
0.00069963
0.000699538
0.000699538
0.000699533
0.000699501
0.000699576
0.000699576
0.000699573
0.000699657
0.000699709
0.000699831
0.000699934
0.00070009
0.000700187
0.000700347
0.000700423
0.000700558
0.000700652
0.000700837
0.000700951
0.000701143
0.000701259
0.000701477
0.000701594
0.000701832
0.000701963
0.000702239
0.000702385
0.000702684
0.000702845
0.00070318
0.000703366
0.000703757
0.000703976
0.000704442
0.000704695
0.000705275
0.000705534
0.000706479
0.00070672
0.000720529
0.000764027
0.00197744
0.00102099
0.000931794
0.000871684
0.000831627
0.000804036
0.000784222
0.000769442
0.000758081
0.000749134
0.000741949
0.000736086
0.000731235
0.000727177
0.000723747
0.00072082
0.000718308
0.000716132
0.000714238
0.000712575
0.00071112
0.000709827
0.000708686
0.000707657
0.000706753
0.00070593
0.000705197
0.000704521
0.000703931
0.000703378
0.000702897
0.000702432
0.000702045
0.000701667
0.000701331
0.000701005
0.000700741
0.000700481
0.00070026
0.000700032
0.000699863
0.000699681
0.000699524
0.000699362
0.000699262
0.000699111
0.00069899
0.000698895
0.00069883
0.00069877
0.000698726
0.000698638
0.000698583
0.000698549
0.000698514
0.000698423
0.000698421
0.000698414
0.000698382
0.000698454
0.000698454
0.00069845
0.000698533
0.000698584
0.000698705
0.000698807
0.000698962
0.000699059
0.000699219
0.000699294
0.000699429
0.000699522
0.000699705
0.000699819
0.000700011
0.000700126
0.000700343
0.00070046
0.000700696
0.000700827
0.000701102
0.000701247
0.000701545
0.000701706
0.00070204
0.000702225
0.000702614
0.000702832
0.000703296
0.000703548
0.000704126
0.000704383
0.000705328
0.000705564
0.000719843
0.000763098
0.00196602
0.00102102
0.000931746
0.000871478
0.000831261
0.000803535
0.000783612
0.000768746
0.000757315
0.000748311
0.000741078
0.000735176
0.000730292
0.000726205
0.000722751
0.000719803
0.000717272
0.00071508
0.000713172
0.000711496
0.00071003
0.000708727
0.000707577
0.000706539
0.000705628
0.000704798
0.000704059
0.000703377
0.000702782
0.000702225
0.00070174
0.00070127
0.00070088
0.000700499
0.00070016
0.000699831
0.000699564
0.000699301
0.000699078
0.000698848
0.000698677
0.000698492
0.000698334
0.000698171
0.000698069
0.000697917
0.000697795
0.000697698
0.000697632
0.00069757
0.000697525
0.000697437
0.000697381
0.000697346
0.00069731
0.000697219
0.000697216
0.000697208
0.000697174
0.000697244
0.000697244
0.000697239
0.000697322
0.000697371
0.000697491
0.000697592
0.000697746
0.000697842
0.000698002
0.000698076
0.00069821
0.000698302
0.000698485
0.000698598
0.000698789
0.000698904
0.00069912
0.000699236
0.000699472
0.000699602
0.000699875
0.00070002
0.000700317
0.000700477
0.00070081
0.000700994
0.000701381
0.000701598
0.00070206
0.00070231
0.000702885
0.00070314
0.000704085
0.000704318
0.000719107
0.000762097
0.00195238
0.00102105
0.000931695
0.000871261
0.000830872
0.000803001
0.00078296
0.000768
0.000756494
0.000747429
0.000740145
0.0007342
0.000729281
0.000725163
0.000721682
0.000718711
0.000716161
0.000713951
0.000712028
0.000710338
0.00070886
0.000707546
0.000706386
0.00070534
0.000704421
0.000703583
0.000702838
0.00070215
0.000701549
0.000700987
0.000700497
0.000700023
0.000699629
0.000699244
0.000698902
0.00069857
0.000698299
0.000698034
0.000697808
0.000697576
0.000697403
0.000697216
0.000697056
0.000696891
0.000696787
0.000696634
0.000696511
0.000696412
0.000696344
0.000696281
0.000696235
0.000696146
0.00069609
0.000696053
0.000696017
0.000695927
0.000695922
0.000695913
0.000695876
0.000695944
0.000695944
0.000695939
0.000696021
0.000696067
0.000696186
0.000696286
0.000696439
0.000696535
0.000696694
0.000696768
0.000696901
0.000696992
0.000697174
0.000697287
0.000697477
0.000697591
0.000697806
0.000697922
0.000698156
0.000698286
0.000698557
0.000698702
0.000698998
0.000699157
0.000699488
0.000699671
0.000700056
0.000700273
0.000700732
0.000700981
0.000701553
0.000701806
0.00070275
0.000702979
0.000718319
0.00076102
0.00193658
0.00102109
0.000931642
0.00087103
0.000830459
0.000802432
0.000782266
0.000767206
0.000755619
0.000746487
0.000739149
0.000733159
0.0007282
0.00072405
0.00072054
0.000717545
0.000714973
0.000712745
0.000710805
0.0007091
0.000707609
0.000706283
0.000705113
0.000704057
0.000703129
0.000702284
0.000701532
0.000700837
0.00070023
0.000699663
0.000699168
0.000698689
0.000698291
0.000697902
0.000697556
0.000697221
0.000696947
0.000696678
0.00069645
0.000696216
0.00069604
0.000695851
0.000695689
0.000695522
0.000695416
0.000695262
0.000695137
0.000695036
0.000694967
0.000694902
0.000694855
0.000694766
0.000694708
0.00069467
0.000694634
0.000694544
0.000694537
0.000694527
0.000694488
0.000694553
0.000694553
0.000694547
0.000694628
0.000694672
0.00069479
0.000694889
0.00069504
0.000695136
0.000695295
0.000695368
0.0006955
0.000695591
0.000695771
0.000695883
0.000696073
0.000696186
0.0006964
0.000696515
0.000696749
0.000696877
0.000697147
0.000697292
0.000697586
0.000697744
0.000698074
0.000698256
0.000698639
0.000698854
0.000699311
0.000699558
0.000700128
0.000700377
0.000701322
0.000701548
0.000717477
0.000759866
0.00191869
0.00102112
0.000931588
0.000870788
0.000830023
0.00080183
0.00078153
0.000766363
0.000754689
0.000745487
0.00073809
0.00073205
0.00072705
0.000722865
0.000719325
0.000716303
0.000713708
0.00071146
0.000709502
0.000707782
0.000706276
0.000704938
0.000703756
0.00070269
0.000701753
0.000700899
0.000700139
0.000699438
0.000698825
0.000698251
0.000697751
0.000697268
0.000696864
0.000696471
0.000696121
0.000695782
0.000695505
0.000695233
0.000695002
0.000694765
0.000694586
0.000694395
0.000694231
0.000694061
0.000693954
0.000693799
0.000693672
0.000693569
0.000693498
0.000693432
0.000693384
0.000693294
0.000693234
0.000693195
0.000693158
0.000693069
0.00069306
0.000693049
0.000693008
0.00069307
0.00069307
0.000693064
0.000693143
0.000693185
0.000693302
0.000693399
0.000693549
0.000693644
0.000693803
0.000693875
0.000694007
0.000694096
0.000694275
0.000694386
0.000694575
0.000694687
0.0006949
0.000695015
0.000695247
0.000695375
0.000695644
0.000695787
0.00069608
0.000696237
0.000696565
0.000696747
0.000697127
0.000697341
0.000697795
0.000698041
0.000698608
0.000698854
0.000699798
0.000700021
0.00071658
0.00075863
0.00189881
0.00102116
0.000931531
0.000870533
0.000829563
0.000801195
0.000780752
0.00076547
0.000753704
0.000744426
0.000736966
0.000730875
0.00072583
0.000721607
0.000718035
0.000714985
0.000712365
0.000710095
0.000708118
0.000706381
0.000704861
0.000703508
0.000702315
0.000701238
0.00070029
0.000699428
0.00069866
0.000697951
0.000697331
0.000696751
0.000696245
0.000695756
0.000695348
0.00069495
0.000694597
0.000694254
0.000693973
0.000693697
0.000693463
0.000693223
0.000693041
0.000692847
0.000692682
0.000692509
0.0006924
0.000692243
0.000692115
0.00069201
0.000691937
0.000691868
0.000691819
0.000691728
0.000691668
0.000691627
0.00069159
0.000691501
0.00069149
0.000691477
0.000691434
0.000691493
0.000691493
0.000691486
0.000691564
0.000691604
0.000691719
0.000691815
0.000691964
0.000692058
0.000692216
0.000692287
0.000692418
0.000692506
0.000692684
0.000692794
0.000692983
0.000693094
0.000693306
0.00069342
0.000693651
0.000693777
0.000694044
0.000694187
0.000694479
0.000694635
0.000694962
0.000695142
0.00069552
0.000695732
0.000696183
0.000696427
0.000696991
0.000697234
0.000698179
0.000698398
0.000715625
0.00075731
0.00187703
0.0010212
0.000931473
0.000870268
0.00082908
0.000800526
0.000779932
0.000764528
0.000752663
0.000743305
0.000735779
0.000729631
0.00072454
0.000720276
0.000716669
0.000713589
0.000710943
0.00070865
0.000706653
0.000704898
0.000703361
0.000701994
0.000700788
0.000699699
0.000698741
0.000697869
0.000697092
0.000696375
0.000695748
0.000695161
0.000694649
0.000694155
0.000693741
0.000693339
0.000692981
0.000692633
0.000692348
0.000692069
0.000691832
0.000691588
0.000691404
0.000691207
0.000691039
0.000690864
0.000690752
0.000690594
0.000690464
0.000690357
0.000690282
0.000690211
0.000690161
0.000690069
0.000690007
0.000689964
0.000689927
0.000689838
0.000689825
0.000689811
0.000689766
0.000689822
0.000689822
0.000689813
0.000689891
0.000689927
0.000690041
0.000690135
0.000690283
0.000690377
0.000690534
0.000690604
0.000690734
0.00069082
0.000690997
0.000691107
0.000691294
0.000691404
0.000691615
0.000691728
0.000691958
0.000692084
0.000692349
0.000692491
0.000692781
0.000692937
0.000693261
0.00069344
0.000693816
0.000694027
0.000694474
0.000694717
0.000695277
0.000695517
0.000696461
0.000696678
0.00071461
0.000755901
0.00185344
0.00102124
0.000931414
0.000869991
0.000828575
0.000799823
0.000779069
0.000763537
0.000751567
0.000742124
0.000734527
0.00072832
0.000723178
0.000718871
0.000715227
0.000712116
0.000709442
0.000707124
0.000705105
0.00070333
0.000701777
0.000700395
0.000699175
0.000698073
0.000697104
0.000696221
0.000695436
0.00069471
0.000694075
0.000693481
0.000692962
0.000692462
0.000692042
0.000691635
0.000691272
0.00069092
0.000690631
0.000690348
0.000690107
0.00068986
0.000689672
0.000689473
0.000689303
0.000689125
0.00068901
0.00068885
0.000688718
0.000688608
0.000688532
0.000688458
0.000688407
0.000688314
0.000688251
0.000688206
0.000688168
0.00068808
0.000688065
0.00068805
0.000688002
0.000688054
0.000688054
0.000688045
0.00068812
0.000688154
0.000688267
0.000688359
0.000688505
0.000688598
0.000688755
0.000688823
0.000688953
0.000689038
0.000689213
0.000689322
0.000689508
0.000689617
0.000689827
0.000689939
0.000690168
0.000690293
0.000690556
0.000690697
0.000690985
0.00069114
0.000691462
0.00069164
0.000692013
0.000692222
0.000692667
0.000692907
0.000693464
0.000693701
0.000694645
0.00069486
0.000713532
0.000754396
0.00182816
0.00102129
0.000931353
0.000869703
0.000828047
0.000799088
0.000778164
0.000762496
0.000750416
0.000740882
0.000733209
0.00072694
0.000721744
0.000717392
0.000713709
0.000710563
0.00070786
0.000705516
0.000703474
0.000701679
0.000700107
0.000698708
0.000697474
0.000696359
0.000695378
0.000694484
0.000693689
0.000692954
0.000692311
0.000691709
0.000691184
0.000690677
0.000690251
0.000689838
0.00068947
0.000689114
0.00068882
0.000688532
0.000688288
0.000688037
0.000687846
0.000687643
0.00068747
0.00068729
0.000687173
0.000687011
0.000686877
0.000686764
0.000686685
0.00068661
0.000686557
0.000686463
0.000686399
0.000686352
0.000686313
0.000686224
0.000686207
0.000686191
0.00068614
0.00068619
0.00068619
0.000686179
0.000686253
0.000686284
0.000686395
0.000686485
0.000686629
0.000686722
0.000686878
0.000686945
0.000687073
0.000687157
0.00068733
0.000687438
0.000687624
0.000687732
0.00068794
0.000688052
0.000688279
0.000688402
0.000688663
0.000688804
0.00068909
0.000689244
0.000689564
0.000689741
0.000690111
0.000690319
0.00069076
0.000690998
0.000691551
0.000691785
0.000692728
0.000692941
0.000712386
0.000752791
0.00180128
0.00102133
0.000931292
0.000869405
0.000827498
0.000798321
0.000777218
0.000761406
0.000749209
0.000739579
0.000731827
0.000725491
0.000720239
0.000715839
0.000712114
0.000708932
0.000706197
0.000703825
0.000701759
0.000699942
0.000698351
0.000696935
0.000695685
0.000694556
0.000693562
0.000692657
0.000691851
0.000691106
0.000690454
0.000689844
0.000689312
0.000688798
0.000688365
0.000687946
0.000687574
0.000687212
0.000686914
0.000686622
0.000686373
0.000686119
0.000685923
0.000685718
0.000685542
0.000685358
0.000685238
0.000685075
0.000684939
0.000684823
0.000684742
0.000684663
0.000684609
0.000684514
0.000684448
0.000684399
0.00068436
0.000684271
0.000684252
0.000684234
0.000684181
0.000684226
0.000684226
0.000684214
0.000684286
0.000684315
0.000684424
0.000684512
0.000684654
0.000684746
0.000684902
0.000684967
0.000685094
0.000685176
0.000685348
0.000685455
0.00068564
0.000685746
0.000685953
0.000686064
0.000686289
0.000686412
0.000686671
0.00068681
0.000687095
0.000687248
0.000687565
0.000687741
0.000688108
0.000688314
0.000688751
0.000688988
0.000689537
0.000689767
0.00069071
0.000690922
0.00071117
0.000751077
0.00177294
0.00102138
0.00093123
0.000869097
0.000826927
0.000797521
0.000776231
0.000760267
0.000747946
0.000738215
0.000730379
0.000723972
0.000718661
0.00071421
0.000710441
0.000707221
0.000704452
0.000702051
0.000699959
0.00069812
0.000696507
0.000695073
0.000693807
0.000692663
0.000691655
0.000690738
0.000689921
0.000689166
0.000688505
0.000687886
0.000687346
0.000686825
0.000686385
0.00068596
0.000685582
0.000685215
0.000684911
0.000684614
0.000684362
0.000684103
0.000683904
0.000683695
0.000683516
0.000683329
0.000683206
0.00068304
0.000682902
0.000682783
0.0006827
0.000682619
0.000682563
0.000682467
0.000682399
0.000682348
0.000682308
0.000682219
0.000682197
0.000682178
0.000682122