/*--------------------------------*- C++ -*----------------------------------*\
| =========                 |                                                 |
| \\      /  F ield         | OpenFOAM: The Open Source CFD Toolbox           |
|  \\    /   O peration     | Version:  v2012                                 |
|   \\  /    A nd           | Website:  www.openfoam.com                      |
|    \\/     M anipulation  |                                                 |
\*---------------------------------------------------------------------------*/
FoamFile
{
    version     2.0;
    format      ascii;
    class       volScalarField;
    location    "23";
    object      nut;
}
// * * * * * * * * * * * * * * * * * * * * * * * * * * * * * * * * * * * * * //

dimensions      [0 2 -1 0 0 0 0];


internalField   nonuniform List<scalar> 
209825
(
1.23787e-07
1.23289e-07
1.23528e-07
1.2405e-07
1.24613e-07
1.25126e-07
1.2558e-07
1.25969e-07
1.26312e-07
1.26607e-07
1.2687e-07
1.27097e-07
1.27303e-07
1.27482e-07
1.27646e-07
1.27789e-07
1.27923e-07
1.28039e-07
1.28149e-07
1.28244e-07
1.28337e-07
1.28416e-07
1.28494e-07
1.28561e-07
1.28627e-07
1.28683e-07
1.28739e-07
1.28788e-07
1.28837e-07
1.28879e-07
1.28921e-07
1.28959e-07
1.28997e-07
1.29026e-07
1.29058e-07
1.29086e-07
1.29118e-07
1.29142e-07
1.29167e-07
1.2919e-07
1.29217e-07
1.29232e-07
1.29252e-07
1.29276e-07
1.29291e-07
1.29301e-07
1.2932e-07
1.29332e-07
1.29351e-07
1.29361e-07
1.29373e-07
1.29387e-07
1.29402e-07
1.29408e-07
1.29413e-07
1.29426e-07
1.29432e-07
1.29432e-07
1.29454e-07
1.29468e-07
1.2947e-07
1.29487e-07
1.295e-07
1.29532e-07
1.29542e-07
1.29571e-07
1.2959e-07
1.29613e-07
1.29628e-07
1.29642e-07
1.2966e-07
1.29674e-07
1.29696e-07
1.29708e-07
1.29718e-07
1.29729e-07
1.29751e-07
1.29768e-07
1.29781e-07
1.29803e-07
1.29819e-07
1.29842e-07
1.29857e-07
1.29885e-07
1.29902e-07
1.29937e-07
1.2996e-07
1.30004e-07
1.30032e-07
1.30087e-07
1.30118e-07
1.30207e-07
1.30245e-07
1.31344e-07
1.35788e-07
1.72536e-08
1.23787e-07
1.23289e-07
1.23528e-07
1.2405e-07
1.24613e-07
1.25126e-07
1.25579e-07
1.25969e-07
1.26312e-07
1.26607e-07
1.2687e-07
1.27097e-07
1.27303e-07
1.27482e-07
1.27646e-07
1.27789e-07
1.27923e-07
1.28039e-07
1.28149e-07
1.28244e-07
1.28337e-07
1.28416e-07
1.28494e-07
1.28561e-07
1.28627e-07
1.28683e-07
1.28739e-07
1.28788e-07
1.28837e-07
1.28879e-07
1.28921e-07
1.28959e-07
1.28997e-07
1.29027e-07
1.29058e-07
1.29086e-07
1.29118e-07
1.29142e-07
1.29167e-07
1.29191e-07
1.29217e-07
1.29233e-07
1.29252e-07
1.29276e-07
1.29291e-07
1.29301e-07
1.2932e-07
1.29332e-07
1.29351e-07
1.29361e-07
1.29373e-07
1.29387e-07
1.29402e-07
1.29408e-07
1.29413e-07
1.29426e-07
1.29432e-07
1.29433e-07
1.29454e-07
1.29468e-07
1.2947e-07
1.29487e-07
1.295e-07
1.29533e-07
1.29542e-07
1.29571e-07
1.2959e-07
1.29613e-07
1.29628e-07
1.29642e-07
1.2966e-07
1.29674e-07
1.29696e-07
1.29708e-07
1.29718e-07
1.29729e-07
1.29751e-07
1.29769e-07
1.29781e-07
1.29803e-07
1.29819e-07
1.29842e-07
1.29857e-07
1.29885e-07
1.29902e-07
1.29937e-07
1.2996e-07
1.30004e-07
1.30032e-07
1.30087e-07
1.30118e-07
1.30207e-07
1.30245e-07
1.31346e-07
1.3579e-07
1.77759e-08
1.23787e-07
1.23289e-07
1.23527e-07
1.24048e-07
1.24611e-07
1.25123e-07
1.25577e-07
1.25966e-07
1.26309e-07
1.26604e-07
1.26867e-07
1.27094e-07
1.273e-07
1.27479e-07
1.27643e-07
1.27786e-07
1.2792e-07
1.28036e-07
1.28146e-07
1.28242e-07
1.28334e-07
1.28413e-07
1.28491e-07
1.28558e-07
1.28624e-07
1.2868e-07
1.28737e-07
1.28785e-07
1.28834e-07
1.28876e-07
1.28918e-07
1.28956e-07
1.28995e-07
1.29024e-07
1.29055e-07
1.29083e-07
1.29115e-07
1.29139e-07
1.29164e-07
1.29188e-07
1.29214e-07
1.2923e-07
1.29249e-07
1.29273e-07
1.29289e-07
1.29299e-07
1.29317e-07
1.29329e-07
1.29349e-07
1.29359e-07
1.29371e-07
1.29385e-07
1.294e-07
1.29405e-07
1.2941e-07
1.29424e-07
1.2943e-07
1.2943e-07
1.29452e-07
1.29466e-07
1.29467e-07
1.29484e-07
1.29498e-07
1.2953e-07
1.29539e-07
1.29569e-07
1.29587e-07
1.29611e-07
1.29626e-07
1.29639e-07
1.29658e-07
1.29672e-07
1.29693e-07
1.29705e-07
1.29716e-07
1.29726e-07
1.29748e-07
1.29766e-07
1.29779e-07
1.29801e-07
1.29816e-07
1.2984e-07
1.29855e-07
1.29882e-07
1.299e-07
1.29934e-07
1.29957e-07
1.30002e-07
1.30029e-07
1.30084e-07
1.30116e-07
1.30204e-07
1.30242e-07
1.31348e-07
1.35792e-07
1.84242e-08
1.23788e-07
1.23288e-07
1.23525e-07
1.24045e-07
1.24607e-07
1.25119e-07
1.25573e-07
1.25962e-07
1.26305e-07
1.26599e-07
1.26862e-07
1.27089e-07
1.27296e-07
1.27474e-07
1.27639e-07
1.27782e-07
1.27916e-07
1.28031e-07
1.28142e-07
1.28237e-07
1.2833e-07
1.28409e-07
1.28487e-07
1.28554e-07
1.2862e-07
1.28676e-07
1.28733e-07
1.28781e-07
1.2883e-07
1.28872e-07
1.28914e-07
1.28952e-07
1.28991e-07
1.2902e-07
1.29051e-07
1.29079e-07
1.29111e-07
1.29135e-07
1.29161e-07
1.29184e-07
1.29211e-07
1.29226e-07
1.29245e-07
1.29269e-07
1.29285e-07
1.29295e-07
1.29313e-07
1.29325e-07
1.29345e-07
1.29355e-07
1.29367e-07
1.29381e-07
1.29396e-07
1.29401e-07
1.29407e-07
1.2942e-07
1.29426e-07
1.29426e-07
1.29448e-07
1.29462e-07
1.29463e-07
1.2948e-07
1.29494e-07
1.29526e-07
1.29536e-07
1.29565e-07
1.29584e-07
1.29607e-07
1.29622e-07
1.29636e-07
1.29654e-07
1.29668e-07
1.2969e-07
1.29702e-07
1.29712e-07
1.29723e-07
1.29745e-07
1.29762e-07
1.29775e-07
1.29797e-07
1.29813e-07
1.29836e-07
1.29851e-07
1.29879e-07
1.29896e-07
1.29931e-07
1.29954e-07
1.29998e-07
1.30026e-07
1.30081e-07
1.30112e-07
1.302e-07
1.30238e-07
1.31351e-07
1.35794e-07
1.91432e-08
1.23788e-07
1.23287e-07
1.23522e-07
1.24041e-07
1.24602e-07
1.25114e-07
1.25567e-07
1.25956e-07
1.26299e-07
1.26593e-07
1.26856e-07
1.27083e-07
1.2729e-07
1.27468e-07
1.27633e-07
1.27776e-07
1.2791e-07
1.28026e-07
1.28136e-07
1.28232e-07
1.28324e-07
1.28403e-07
1.28481e-07
1.28548e-07
1.28614e-07
1.2867e-07
1.28727e-07
1.28776e-07
1.28825e-07
1.28867e-07
1.28909e-07
1.28947e-07
1.28985e-07
1.29015e-07
1.29046e-07
1.29074e-07
1.29106e-07
1.2913e-07
1.29155e-07
1.29179e-07
1.29205e-07
1.29221e-07
1.2924e-07
1.29264e-07
1.2928e-07
1.2929e-07
1.29308e-07
1.2932e-07
1.2934e-07
1.2935e-07
1.29362e-07
1.29376e-07
1.29391e-07
1.29397e-07
1.29402e-07
1.29415e-07
1.29421e-07
1.29422e-07
1.29443e-07
1.29457e-07
1.29459e-07
1.29476e-07
1.29489e-07
1.29521e-07
1.29531e-07
1.2956e-07
1.29579e-07
1.29602e-07
1.29617e-07
1.29631e-07
1.29649e-07
1.29663e-07
1.29685e-07
1.29697e-07
1.29707e-07
1.29718e-07
1.2974e-07
1.29758e-07
1.2977e-07
1.29792e-07
1.29808e-07
1.29831e-07
1.29846e-07
1.29874e-07
1.29891e-07
1.29926e-07
1.29949e-07
1.29993e-07
1.30021e-07
1.30076e-07
1.30107e-07
1.30196e-07
1.30233e-07
1.31356e-07
1.35797e-07
1.99225e-08
1.23788e-07
1.23285e-07
1.23518e-07
1.24035e-07
1.24596e-07
1.25107e-07
1.2556e-07
1.25949e-07
1.26291e-07
1.26586e-07
1.26849e-07
1.27076e-07
1.27282e-07
1.27461e-07
1.27626e-07
1.27769e-07
1.27903e-07
1.28018e-07
1.28129e-07
1.28224e-07
1.28317e-07
1.28396e-07
1.28474e-07
1.28541e-07
1.28608e-07
1.28664e-07
1.2872e-07
1.28769e-07
1.28818e-07
1.2886e-07
1.28902e-07
1.2894e-07
1.28979e-07
1.29008e-07
1.2904e-07
1.29068e-07
1.291e-07
1.29124e-07
1.29149e-07
1.29172e-07
1.29199e-07
1.29215e-07
1.29234e-07
1.29258e-07
1.29274e-07
1.29284e-07
1.29302e-07
1.29314e-07
1.29334e-07
1.29344e-07
1.29356e-07
1.2937e-07
1.29385e-07
1.29391e-07
1.29396e-07
1.29409e-07
1.29415e-07
1.29416e-07
1.29437e-07
1.29451e-07
1.29453e-07
1.2947e-07
1.29483e-07
1.29515e-07
1.29525e-07
1.29554e-07
1.29573e-07
1.29597e-07
1.29611e-07
1.29625e-07
1.29643e-07
1.29657e-07
1.29679e-07
1.29691e-07
1.29702e-07
1.29712e-07
1.29734e-07
1.29752e-07
1.29765e-07
1.29787e-07
1.29802e-07
1.29826e-07
1.29841e-07
1.29868e-07
1.29886e-07
1.2992e-07
1.29943e-07
1.29987e-07
1.30015e-07
1.3007e-07
1.30101e-07
1.3019e-07
1.30227e-07
1.31362e-07
1.358e-07
2.076e-08
1.23788e-07
1.23283e-07
1.23513e-07
1.24029e-07
1.24588e-07
1.25098e-07
1.25551e-07
1.2594e-07
1.26282e-07
1.26576e-07
1.2684e-07
1.27067e-07
1.27273e-07
1.27452e-07
1.27617e-07
1.2776e-07
1.27894e-07
1.2801e-07
1.2812e-07
1.28216e-07
1.28308e-07
1.28388e-07
1.28466e-07
1.28533e-07
1.28599e-07
1.28655e-07
1.28712e-07
1.28761e-07
1.2881e-07
1.28852e-07
1.28894e-07
1.28932e-07
1.28971e-07
1.29e-07
1.29032e-07
1.2906e-07
1.29092e-07
1.29116e-07
1.29141e-07
1.29165e-07
1.29192e-07
1.29207e-07
1.29227e-07
1.2925e-07
1.29266e-07
1.29276e-07
1.29295e-07
1.29307e-07
1.29326e-07
1.29337e-07
1.29349e-07
1.29363e-07
1.29378e-07
1.29383e-07
1.29389e-07
1.29402e-07
1.29408e-07
1.29408e-07
1.2943e-07
1.29444e-07
1.29445e-07
1.29462e-07
1.29476e-07
1.29508e-07
1.29518e-07
1.29547e-07
1.29566e-07
1.2959e-07
1.29604e-07
1.29618e-07
1.29636e-07
1.29651e-07
1.29672e-07
1.29684e-07
1.29695e-07
1.29705e-07
1.29727e-07
1.29745e-07
1.29758e-07
1.2978e-07
1.29796e-07
1.29819e-07
1.29834e-07
1.29861e-07
1.29879e-07
1.29913e-07
1.29936e-07
1.2998e-07
1.30008e-07
1.30063e-07
1.30094e-07
1.30183e-07
1.3022e-07
1.3137e-07
1.35805e-07
2.16559e-08
1.23789e-07
1.23281e-07
1.23508e-07
1.24021e-07
1.24578e-07
1.25088e-07
1.2554e-07
1.25929e-07
1.26271e-07
1.26566e-07
1.26829e-07
1.27056e-07
1.27263e-07
1.27441e-07
1.27606e-07
1.27749e-07
1.27884e-07
1.28e-07
1.2811e-07
1.28206e-07
1.28299e-07
1.28378e-07
1.28456e-07
1.28523e-07
1.2859e-07
1.28646e-07
1.28703e-07
1.28752e-07
1.28801e-07
1.28843e-07
1.28885e-07
1.28923e-07
1.28962e-07
1.28991e-07
1.29023e-07
1.29051e-07
1.29083e-07
1.29107e-07
1.29133e-07
1.29156e-07
1.29183e-07
1.29198e-07
1.29218e-07
1.29242e-07
1.29258e-07
1.29268e-07
1.29286e-07
1.29298e-07
1.29318e-07
1.29328e-07
1.2934e-07
1.29354e-07
1.2937e-07
1.29375e-07
1.2938e-07
1.29394e-07
1.294e-07
1.294e-07
1.29422e-07
1.29435e-07
1.29437e-07
1.29454e-07
1.29468e-07
1.295e-07
1.2951e-07
1.29539e-07
1.29557e-07
1.29581e-07
1.29596e-07
1.2961e-07
1.29628e-07
1.29642e-07
1.29664e-07
1.29676e-07
1.29687e-07
1.29697e-07
1.29719e-07
1.29737e-07
1.2975e-07
1.29772e-07
1.29788e-07
1.29811e-07
1.29826e-07
1.29854e-07
1.29871e-07
1.29905e-07
1.29928e-07
1.29972e-07
1.3e-07
1.30055e-07
1.30086e-07
1.30174e-07
1.30212e-07
1.31379e-07
1.3581e-07
2.26112e-08
1.23789e-07
1.23278e-07
1.23501e-07
1.24012e-07
1.24568e-07
1.25077e-07
1.25528e-07
1.25916e-07
1.26259e-07
1.26553e-07
1.26816e-07
1.27044e-07
1.2725e-07
1.27429e-07
1.27594e-07
1.27737e-07
1.27872e-07
1.27988e-07
1.28098e-07
1.28194e-07
1.28287e-07
1.28367e-07
1.28445e-07
1.28512e-07
1.28579e-07
1.28635e-07
1.28692e-07
1.28741e-07
1.2879e-07
1.28832e-07
1.28874e-07
1.28913e-07
1.28951e-07
1.28981e-07
1.29012e-07
1.29041e-07
1.29073e-07
1.29097e-07
1.29122e-07
1.29146e-07
1.29173e-07
1.29189e-07
1.29208e-07
1.29232e-07
1.29248e-07
1.29258e-07
1.29276e-07
1.29289e-07
1.29308e-07
1.29319e-07
1.29331e-07
1.29345e-07
1.2936e-07
1.29366e-07
1.29371e-07
1.29384e-07
1.2939e-07
1.29391e-07
1.29412e-07
1.29426e-07
1.29428e-07
1.29445e-07
1.29458e-07
1.29491e-07
1.295e-07
1.2953e-07
1.29548e-07
1.29572e-07
1.29587e-07
1.29601e-07
1.29619e-07
1.29633e-07
1.29655e-07
1.29667e-07
1.29678e-07
1.29688e-07
1.2971e-07
1.29728e-07
1.29741e-07
1.29763e-07
1.29779e-07
1.29802e-07
1.29817e-07
1.29844e-07
1.29862e-07
1.29896e-07
1.29919e-07
1.29963e-07
1.29991e-07
1.30045e-07
1.30077e-07
1.30165e-07
1.30202e-07
1.31391e-07
1.35817e-07
2.36265e-08
1.2379e-07
1.23275e-07
1.23494e-07
1.24001e-07
1.24556e-07
1.25063e-07
1.25514e-07
1.25902e-07
1.26245e-07
1.26539e-07
1.26802e-07
1.2703e-07
1.27236e-07
1.27415e-07
1.2758e-07
1.27724e-07
1.27859e-07
1.27975e-07
1.28085e-07
1.28181e-07
1.28274e-07
1.28354e-07
1.28432e-07
1.285e-07
1.28566e-07
1.28622e-07
1.2868e-07
1.28729e-07
1.28778e-07
1.2882e-07
1.28862e-07
1.28901e-07
1.2894e-07
1.28969e-07
1.29001e-07
1.29029e-07
1.29061e-07
1.29085e-07
1.29111e-07
1.29135e-07
1.29161e-07
1.29177e-07
1.29197e-07
1.29221e-07
1.29237e-07
1.29247e-07
1.29265e-07
1.29278e-07
1.29297e-07
1.29308e-07
1.2932e-07
1.29334e-07
1.29349e-07
1.29355e-07
1.2936e-07
1.29374e-07
1.2938e-07
1.2938e-07
1.29401e-07
1.29415e-07
1.29417e-07
1.29434e-07
1.29447e-07
1.2948e-07
1.2949e-07
1.29519e-07
1.29537e-07
1.29562e-07
1.29576e-07
1.2959e-07
1.29608e-07
1.29623e-07
1.29644e-07
1.29657e-07
1.29668e-07
1.29678e-07
1.297e-07
1.29718e-07
1.29731e-07
1.29753e-07
1.29769e-07
1.29792e-07
1.29807e-07
1.29834e-07
1.29852e-07
1.29886e-07
1.29909e-07
1.29953e-07
1.29981e-07
1.30035e-07
1.30066e-07
1.30154e-07
1.30191e-07
1.31406e-07
1.35825e-07
2.47016e-08
1.2379e-07
1.23272e-07
1.23486e-07
1.2399e-07
1.24542e-07
1.25049e-07
1.25499e-07
1.25887e-07
1.26229e-07
1.26523e-07
1.26787e-07
1.27014e-07
1.27221e-07
1.274e-07
1.27565e-07
1.27709e-07
1.27844e-07
1.2796e-07
1.28071e-07
1.28167e-07
1.2826e-07
1.2834e-07
1.28418e-07
1.28486e-07
1.28552e-07
1.28609e-07
1.28666e-07
1.28715e-07
1.28764e-07
1.28807e-07
1.28849e-07
1.28887e-07
1.28926e-07
1.28956e-07
1.28988e-07
1.29016e-07
1.29048e-07
1.29073e-07
1.29098e-07
1.29122e-07
1.29149e-07
1.29165e-07
1.29184e-07
1.29208e-07
1.29224e-07
1.29234e-07
1.29253e-07
1.29265e-07
1.29285e-07
1.29296e-07
1.29308e-07
1.29322e-07
1.29337e-07
1.29343e-07
1.29349e-07
1.29362e-07
1.29368e-07
1.29368e-07
1.29389e-07
1.29403e-07
1.29405e-07
1.29422e-07
1.29436e-07
1.29468e-07
1.29478e-07
1.29507e-07
1.29525e-07
1.2955e-07
1.29564e-07
1.29579e-07
1.29597e-07
1.29611e-07
1.29633e-07
1.29645e-07
1.29656e-07
1.29667e-07
1.29689e-07
1.29706e-07
1.29719e-07
1.29741e-07
1.29757e-07
1.2978e-07
1.29795e-07
1.29823e-07
1.2984e-07
1.29875e-07
1.29898e-07
1.29941e-07
1.29969e-07
1.30023e-07
1.30054e-07
1.30143e-07
1.30179e-07
1.31422e-07
1.35834e-07
2.58349e-08
1.23791e-07
1.23269e-07
1.23477e-07
1.23977e-07
1.24527e-07
1.25032e-07
1.25482e-07
1.25869e-07
1.26211e-07
1.26505e-07
1.26769e-07
1.26996e-07
1.27203e-07
1.27382e-07
1.27548e-07
1.27692e-07
1.27827e-07
1.27943e-07
1.28054e-07
1.28151e-07
1.28244e-07
1.28324e-07
1.28402e-07
1.2847e-07
1.28537e-07
1.28593e-07
1.28651e-07
1.287e-07
1.28749e-07
1.28792e-07
1.28834e-07
1.28873e-07
1.28912e-07
1.28941e-07
1.28973e-07
1.29002e-07
1.29034e-07
1.29058e-07
1.29084e-07
1.29108e-07
1.29135e-07
1.29151e-07
1.2917e-07
1.29194e-07
1.2921e-07
1.29221e-07
1.2924e-07
1.29252e-07
1.29271e-07
1.29282e-07
1.29294e-07
1.29308e-07
1.29324e-07
1.2933e-07
1.29335e-07
1.29349e-07
1.29355e-07
1.29355e-07
1.29376e-07
1.2939e-07
1.29392e-07
1.29409e-07
1.29422e-07
1.29455e-07
1.29465e-07
1.29494e-07
1.29512e-07
1.29537e-07
1.29552e-07
1.29566e-07
1.29584e-07
1.29599e-07
1.2962e-07
1.29632e-07
1.29643e-07
1.29654e-07
1.29676e-07
1.29694e-07
1.29707e-07
1.29729e-07
1.29745e-07
1.29768e-07
1.29783e-07
1.2981e-07
1.29828e-07
1.29862e-07
1.29885e-07
1.29929e-07
1.29956e-07
1.3001e-07
1.30041e-07
1.3013e-07
1.30166e-07
1.31441e-07
1.35845e-07
2.70242e-08
1.23792e-07
1.23265e-07
1.23467e-07
1.23963e-07
1.2451e-07
1.25014e-07
1.25463e-07
1.2585e-07
1.26192e-07
1.26486e-07
1.2675e-07
1.26977e-07
1.27184e-07
1.27364e-07
1.27529e-07
1.27673e-07
1.27809e-07
1.27925e-07
1.28036e-07
1.28133e-07
1.28226e-07
1.28306e-07
1.28385e-07
1.28453e-07
1.2852e-07
1.28576e-07
1.28634e-07
1.28683e-07
1.28733e-07
1.28775e-07
1.28818e-07
1.28856e-07
1.28896e-07
1.28925e-07
1.28957e-07
1.28986e-07
1.29018e-07
1.29043e-07
1.29069e-07
1.29092e-07
1.29119e-07
1.29135e-07
1.29155e-07
1.29179e-07
1.29195e-07
1.29206e-07
1.29225e-07
1.29237e-07
1.29257e-07
1.29267e-07
1.2928e-07
1.29294e-07
1.29309e-07
1.29315e-07
1.29321e-07
1.29334e-07
1.29341e-07
1.29341e-07
1.29361e-07
1.29375e-07
1.29377e-07
1.29395e-07
1.29408e-07
1.29441e-07
1.2945e-07
1.2948e-07
1.29498e-07
1.29523e-07
1.29537e-07
1.29552e-07
1.29569e-07
1.29584e-07
1.29606e-07
1.29618e-07
1.2963e-07
1.2964e-07
1.29662e-07
1.2968e-07
1.29693e-07
1.29715e-07
1.29731e-07
1.29754e-07
1.29769e-07
1.29797e-07
1.29814e-07
1.29848e-07
1.29871e-07
1.29915e-07
1.29942e-07
1.29996e-07
1.30027e-07
1.30115e-07
1.30151e-07
1.31463e-07
1.35857e-07
2.82724e-08
1.23793e-07
1.2326e-07
1.23457e-07
1.23947e-07
1.24492e-07
1.24994e-07
1.25442e-07
1.25829e-07
1.2617e-07
1.26465e-07
1.26728e-07
1.26956e-07
1.27163e-07
1.27343e-07
1.27509e-07
1.27653e-07
1.27788e-07
1.27905e-07
1.28017e-07
1.28113e-07
1.28207e-07
1.28287e-07
1.28366e-07
1.28434e-07
1.28501e-07
1.28558e-07
1.28615e-07
1.28665e-07
1.28715e-07
1.28758e-07
1.288e-07
1.28839e-07
1.28878e-07
1.28908e-07
1.2894e-07
1.28969e-07
1.29001e-07
1.29026e-07
1.29052e-07
1.29075e-07
1.29102e-07
1.29119e-07
1.29138e-07
1.29162e-07
1.29179e-07
1.29189e-07
1.29208e-07
1.29221e-07
1.2924e-07
1.29251e-07
1.29264e-07
1.29278e-07
1.29293e-07
1.29299e-07
1.29305e-07
1.29318e-07
1.29325e-07
1.29325e-07
1.29345e-07
1.29359e-07
1.29362e-07
1.29379e-07
1.29392e-07
1.29425e-07
1.29435e-07
1.29464e-07
1.29482e-07
1.29507e-07
1.29522e-07
1.29536e-07
1.29554e-07
1.29569e-07
1.2959e-07
1.29603e-07
1.29614e-07
1.29625e-07
1.29647e-07
1.29665e-07
1.29678e-07
1.297e-07
1.29716e-07
1.29739e-07
1.29754e-07
1.29782e-07
1.29799e-07
1.29833e-07
1.29856e-07
1.29899e-07
1.29927e-07
1.29981e-07
1.30011e-07
1.301e-07
1.30136e-07
1.31488e-07
1.3587e-07
2.95828e-08
1.23794e-07
1.23256e-07
1.23445e-07
1.23931e-07
1.24472e-07
1.24973e-07
1.2542e-07
1.25806e-07
1.26147e-07
1.26441e-07
1.26705e-07
1.26933e-07
1.27141e-07
1.2732e-07
1.27487e-07
1.27631e-07
1.27767e-07
1.27883e-07
1.27995e-07
1.28092e-07
1.28186e-07
1.28266e-07
1.28345e-07
1.28414e-07
1.28481e-07
1.28538e-07
1.28596e-07
1.28645e-07
1.28695e-07
1.28738e-07
1.28781e-07
1.28819e-07
1.28859e-07
1.28889e-07
1.28921e-07
1.2895e-07
1.28983e-07
1.29007e-07
1.29033e-07
1.29057e-07
1.29084e-07
1.29101e-07
1.2912e-07
1.29144e-07
1.29161e-07
1.29172e-07
1.29191e-07
1.29203e-07
1.29223e-07
1.29234e-07
1.29246e-07
1.2926e-07
1.29276e-07
1.29282e-07
1.29288e-07
1.29301e-07
1.29308e-07
1.29308e-07
1.29328e-07
1.29342e-07
1.29345e-07
1.29362e-07
1.29375e-07
1.29408e-07
1.29418e-07
1.29447e-07
1.29465e-07
1.2949e-07
1.29505e-07
1.2952e-07
1.29537e-07
1.29552e-07
1.29574e-07
1.29586e-07
1.29598e-07
1.29609e-07
1.29631e-07
1.29648e-07
1.29662e-07
1.29683e-07
1.297e-07
1.29723e-07
1.29738e-07
1.29765e-07
1.29783e-07
1.29817e-07
1.29839e-07
1.29883e-07
1.2991e-07
1.29964e-07
1.29995e-07
1.30083e-07
1.30118e-07
1.31515e-07
1.35885e-07
3.09592e-08
1.23794e-07
1.23251e-07
1.23433e-07
1.23913e-07
1.24451e-07
1.24949e-07
1.25395e-07
1.25781e-07
1.26122e-07
1.26416e-07
1.2668e-07
1.26908e-07
1.27116e-07
1.27296e-07
1.27462e-07
1.27607e-07
1.27743e-07
1.2786e-07
1.27972e-07
1.28069e-07
1.28163e-07
1.28244e-07
1.28323e-07
1.28391e-07
1.28459e-07
1.28516e-07
1.28574e-07
1.28624e-07
1.28674e-07
1.28717e-07
1.2876e-07
1.28799e-07
1.28838e-07
1.28868e-07
1.28901e-07
1.2893e-07
1.28962e-07
1.28987e-07
1.29013e-07
1.29037e-07
1.29064e-07
1.29081e-07
1.29101e-07
1.29125e-07
1.29142e-07
1.29152e-07
1.29171e-07
1.29184e-07
1.29204e-07
1.29215e-07
1.29227e-07
1.29241e-07
1.29257e-07
1.29263e-07
1.2927e-07
1.29283e-07
1.2929e-07
1.2929e-07
1.29309e-07
1.29323e-07
1.29326e-07
1.29343e-07
1.29356e-07
1.29389e-07
1.29399e-07
1.29428e-07
1.29446e-07
1.29472e-07
1.29486e-07
1.29502e-07
1.29519e-07
1.29534e-07
1.29555e-07
1.29568e-07
1.2958e-07
1.29591e-07
1.29613e-07
1.29631e-07
1.29644e-07
1.29665e-07
1.29682e-07
1.29705e-07
1.2972e-07
1.29748e-07
1.29765e-07
1.29799e-07
1.29822e-07
1.29865e-07
1.29892e-07
1.29946e-07
1.29976e-07
1.30065e-07
1.301e-07
1.31545e-07
1.35901e-07
3.24053e-08
1.23796e-07
1.23246e-07
1.23419e-07
1.23893e-07
1.24428e-07
1.24924e-07
1.25369e-07
1.25754e-07
1.26095e-07
1.26389e-07
1.26653e-07
1.26881e-07
1.27089e-07
1.27269e-07
1.27436e-07
1.27581e-07
1.27717e-07
1.27835e-07
1.27947e-07
1.28044e-07
1.28139e-07
1.2822e-07
1.28299e-07
1.28368e-07
1.28435e-07
1.28493e-07
1.28551e-07
1.28601e-07
1.28651e-07
1.28694e-07
1.28737e-07
1.28776e-07
1.28816e-07
1.28846e-07
1.28879e-07
1.28908e-07
1.28941e-07
1.28965e-07
1.28992e-07
1.29015e-07
1.29043e-07
1.2906e-07
1.2908e-07
1.29104e-07
1.29121e-07
1.29132e-07
1.29151e-07
1.29163e-07
1.29183e-07
1.29195e-07
1.29207e-07
1.29221e-07
1.29237e-07
1.29243e-07
1.2925e-07
1.29263e-07
1.2927e-07
1.2927e-07
1.29289e-07
1.29303e-07
1.29306e-07
1.29324e-07
1.29336e-07
1.29369e-07
1.2938e-07
1.29408e-07
1.29427e-07
1.29452e-07
1.29467e-07
1.29482e-07
1.29499e-07
1.29515e-07
1.29536e-07
1.29549e-07
1.29561e-07
1.29572e-07
1.29594e-07
1.29611e-07
1.29625e-07
1.29646e-07
1.29663e-07
1.29686e-07
1.29701e-07
1.29729e-07
1.29746e-07
1.2978e-07
1.29803e-07
1.29846e-07
1.29873e-07
1.29926e-07
1.29957e-07
1.30045e-07
1.3008e-07
1.31578e-07
1.35919e-07
3.39249e-08
1.23797e-07
1.2324e-07
1.23405e-07
1.23873e-07
1.24403e-07
1.24897e-07
1.25341e-07
1.25725e-07
1.26066e-07
1.2636e-07
1.26624e-07
1.26853e-07
1.27061e-07
1.27241e-07
1.27408e-07
1.27553e-07
1.2769e-07
1.27808e-07
1.2792e-07
1.28018e-07
1.28112e-07
1.28193e-07
1.28273e-07
1.28342e-07
1.2841e-07
1.28467e-07
1.28526e-07
1.28576e-07
1.28626e-07
1.2867e-07
1.28713e-07
1.28752e-07
1.28792e-07
1.28823e-07
1.28855e-07
1.28884e-07
1.28917e-07
1.28942e-07
1.28969e-07
1.28992e-07
1.2902e-07
1.29037e-07
1.29057e-07
1.29081e-07
1.29099e-07
1.29109e-07
1.29129e-07
1.29141e-07
1.29161e-07
1.29173e-07
1.29185e-07
1.29199e-07
1.29216e-07
1.29222e-07
1.29229e-07
1.29242e-07
1.29249e-07
1.29248e-07
1.29268e-07
1.29282e-07
1.29285e-07
1.29302e-07
1.29315e-07
1.29348e-07
1.29359e-07
1.29387e-07
1.29405e-07
1.29431e-07
1.29446e-07
1.29461e-07
1.29478e-07
1.29494e-07
1.29515e-07
1.29528e-07
1.29541e-07
1.29552e-07
1.29573e-07
1.29591e-07
1.29605e-07
1.29626e-07
1.29643e-07
1.29666e-07
1.29681e-07
1.29708e-07
1.29726e-07
1.2976e-07
1.29782e-07
1.29825e-07
1.29852e-07
1.29906e-07
1.29936e-07
1.30024e-07
1.30059e-07
1.31614e-07
1.35938e-07
3.5522e-08
1.23798e-07
1.23234e-07
1.2339e-07
1.23851e-07
1.24377e-07
1.24869e-07
1.25311e-07
1.25695e-07
1.26035e-07
1.26329e-07
1.26593e-07
1.26822e-07
1.2703e-07
1.27211e-07
1.27379e-07
1.27524e-07
1.27661e-07
1.27779e-07
1.27891e-07
1.27989e-07
1.28084e-07
1.28166e-07
1.28246e-07
1.28315e-07
1.28383e-07
1.28441e-07
1.28499e-07
1.28549e-07
1.286e-07
1.28644e-07
1.28687e-07
1.28726e-07
1.28767e-07
1.28797e-07
1.2883e-07
1.28859e-07
1.28892e-07
1.28917e-07
1.28944e-07
1.28968e-07
1.28996e-07
1.29013e-07
1.29033e-07
1.29057e-07
1.29075e-07
1.29086e-07
1.29105e-07
1.29118e-07
1.29138e-07
1.29149e-07
1.29162e-07
1.29176e-07
1.29192e-07
1.29199e-07
1.29206e-07
1.29219e-07
1.29226e-07
1.29226e-07
1.29244e-07
1.29259e-07
1.29262e-07
1.2928e-07
1.29292e-07
1.29325e-07
1.29336e-07
1.29364e-07
1.29382e-07
1.29409e-07
1.29423e-07
1.29439e-07
1.29456e-07
1.29472e-07
1.29493e-07
1.29506e-07
1.29519e-07
1.2953e-07
1.29551e-07
1.29569e-07
1.29583e-07
1.29604e-07
1.29621e-07
1.29644e-07
1.29659e-07
1.29687e-07
1.29704e-07
1.29738e-07
1.2976e-07
1.29803e-07
1.2983e-07
1.29883e-07
1.29913e-07
1.30002e-07
1.30036e-07
1.31652e-07
1.35958e-07
3.72008e-08
1.23799e-07
1.23228e-07
1.23374e-07
1.23828e-07
1.24349e-07
1.24838e-07
1.25279e-07
1.25662e-07
1.26002e-07
1.26296e-07
1.2656e-07
1.26789e-07
1.26998e-07
1.27179e-07
1.27347e-07
1.27492e-07
1.2763e-07
1.27748e-07
1.27861e-07
1.27959e-07
1.28054e-07
1.28136e-07
1.28216e-07
1.28285e-07
1.28354e-07
1.28412e-07
1.28471e-07
1.28521e-07
1.28572e-07
1.28616e-07
1.2866e-07
1.28699e-07
1.28739e-07
1.2877e-07
1.28803e-07
1.28832e-07
1.28866e-07
1.28891e-07
1.28918e-07
1.28942e-07
1.2897e-07
1.28987e-07
1.29007e-07
1.29031e-07
1.29049e-07
1.2906e-07
1.2908e-07
1.29092e-07
1.29112e-07
1.29124e-07
1.29137e-07
1.29151e-07
1.29168e-07
1.29175e-07
1.29182e-07
1.29195e-07
1.29202e-07
1.29202e-07
1.2922e-07
1.29234e-07
1.29238e-07
1.29255e-07
1.29267e-07
1.29301e-07
1.29312e-07
1.2934e-07
1.29358e-07
1.29385e-07
1.29399e-07
1.29415e-07
1.29432e-07
1.29448e-07
1.29469e-07
1.29482e-07
1.29495e-07
1.29507e-07
1.29528e-07
1.29546e-07
1.2956e-07
1.29581e-07
1.29598e-07
1.29621e-07
1.29636e-07
1.29663e-07
1.29681e-07
1.29714e-07
1.29737e-07
1.29779e-07
1.29806e-07
1.2986e-07
1.29889e-07
1.29978e-07
1.30012e-07
1.31694e-07
1.3598e-07
3.89653e-08
1.23801e-07
1.23222e-07
1.23358e-07
1.23803e-07
1.2432e-07
1.24806e-07
1.25246e-07
1.25627e-07
1.25967e-07
1.26261e-07
1.26525e-07
1.26754e-07
1.26963e-07
1.27144e-07
1.27313e-07
1.27458e-07
1.27596e-07
1.27715e-07
1.27828e-07
1.27927e-07
1.28022e-07
1.28104e-07
1.28185e-07
1.28254e-07
1.28323e-07
1.28381e-07
1.2844e-07
1.28491e-07
1.28542e-07
1.28586e-07
1.2863e-07
1.2867e-07
1.2871e-07
1.28741e-07
1.28775e-07
1.28804e-07
1.28837e-07
1.28863e-07
1.2889e-07
1.28914e-07
1.28942e-07
1.28959e-07
1.2898e-07
1.29004e-07
1.29022e-07
1.29033e-07
1.29053e-07
1.29066e-07
1.29086e-07
1.29098e-07
1.29111e-07
1.29125e-07
1.29141e-07
1.29148e-07
1.29156e-07
1.29169e-07
1.29177e-07
1.29176e-07
1.29194e-07
1.29208e-07
1.29212e-07
1.29229e-07
1.29241e-07
1.29275e-07
1.29286e-07
1.29314e-07
1.29332e-07
1.29359e-07
1.29373e-07
1.2939e-07
1.29406e-07
1.29423e-07
1.29444e-07
1.29457e-07
1.2947e-07
1.29482e-07
1.29503e-07
1.29521e-07
1.29535e-07
1.29556e-07
1.29573e-07
1.29596e-07
1.29612e-07
1.29639e-07
1.29656e-07
1.2969e-07
1.29712e-07
1.29754e-07
1.29781e-07
1.29834e-07
1.29864e-07
1.29952e-07
1.29987e-07
1.31737e-07
1.36002e-07
4.08195e-08
1.23802e-07
1.23215e-07
1.2334e-07
1.23777e-07
1.24289e-07
1.24772e-07
1.2521e-07
1.25591e-07
1.2593e-07
1.26224e-07
1.26488e-07
1.26717e-07
1.26927e-07
1.27108e-07
1.27277e-07
1.27423e-07
1.27561e-07
1.2768e-07
1.27794e-07
1.27892e-07
1.27988e-07
1.28071e-07
1.28152e-07
1.28221e-07
1.28291e-07
1.28349e-07
1.28408e-07
1.28459e-07
1.28511e-07
1.28555e-07
1.28599e-07
1.28638e-07
1.2868e-07
1.28711e-07
1.28744e-07
1.28774e-07
1.28807e-07
1.28833e-07
1.2886e-07
1.28884e-07
1.28912e-07
1.2893e-07
1.2895e-07
1.28975e-07
1.28993e-07
1.29005e-07
1.29024e-07
1.29037e-07
1.29057e-07
1.2907e-07
1.29083e-07
1.29097e-07
1.29114e-07
1.29121e-07
1.29129e-07
1.29142e-07
1.29149e-07
1.29149e-07
1.29166e-07
1.2918e-07
1.29185e-07
1.29202e-07
1.29213e-07
1.29247e-07
1.29259e-07
1.29286e-07
1.29304e-07
1.29332e-07
1.29346e-07
1.29363e-07
1.29379e-07
1.29396e-07
1.29417e-07
1.2943e-07
1.29444e-07
1.29456e-07
1.29477e-07
1.29494e-07
1.29509e-07
1.29529e-07
1.29547e-07
1.2957e-07
1.29585e-07
1.29613e-07
1.2963e-07
1.29663e-07
1.29686e-07
1.29728e-07
1.29755e-07
1.29807e-07
1.29837e-07
1.29925e-07
1.2996e-07
1.31784e-07
1.36025e-07
4.2767e-08
1.23804e-07
1.23209e-07
1.23322e-07
1.2375e-07
1.24256e-07
1.24736e-07
1.25172e-07
1.25552e-07
1.25891e-07
1.26184e-07
1.26449e-07
1.26678e-07
1.26888e-07
1.27069e-07
1.27238e-07
1.27385e-07
1.27523e-07
1.27643e-07
1.27757e-07
1.27856e-07
1.27952e-07
1.28035e-07
1.28116e-07
1.28186e-07
1.28256e-07
1.28314e-07
1.28374e-07
1.28425e-07
1.28477e-07
1.28521e-07
1.28566e-07
1.28606e-07
1.28647e-07
1.28678e-07
1.28712e-07
1.28741e-07
1.28775e-07
1.28801e-07
1.28828e-07
1.28853e-07
1.28881e-07
1.28899e-07
1.2892e-07
1.28944e-07
1.28963e-07
1.28974e-07
1.28994e-07
1.29007e-07
1.29027e-07
1.2904e-07
1.29053e-07
1.29067e-07
1.29084e-07
1.29092e-07
1.291e-07
1.29113e-07
1.29121e-07
1.2912e-07
1.29137e-07
1.29151e-07
1.29156e-07
1.29173e-07
1.29184e-07
1.29218e-07
1.29229e-07
1.29257e-07
1.29275e-07
1.29303e-07
1.29317e-07
1.29334e-07
1.2935e-07
1.29368e-07
1.29388e-07
1.29402e-07
1.29416e-07
1.29428e-07
1.29449e-07
1.29466e-07
1.29481e-07
1.29501e-07
1.29519e-07
1.29542e-07
1.29558e-07
1.29585e-07
1.29602e-07
1.29635e-07
1.29658e-07
1.297e-07
1.29726e-07
1.29779e-07
1.29808e-07
1.29897e-07
1.29931e-07
1.31832e-07
1.36047e-07
4.48111e-08
1.23805e-07
1.23202e-07
1.23303e-07
1.23722e-07
1.24222e-07
1.24698e-07
1.25132e-07
1.25511e-07
1.25849e-07
1.26142e-07
1.26407e-07
1.26636e-07
1.26847e-07
1.27028e-07
1.27198e-07
1.27345e-07
1.27484e-07
1.27603e-07
1.27718e-07
1.27818e-07
1.27914e-07
1.27997e-07
1.28079e-07
1.28149e-07
1.28219e-07
1.28278e-07
1.28338e-07
1.2839e-07
1.28442e-07
1.28486e-07
1.28531e-07
1.28571e-07
1.28612e-07
1.28644e-07
1.28678e-07
1.28708e-07
1.28742e-07
1.28768e-07
1.28795e-07
1.2882e-07
1.28848e-07
1.28867e-07
1.28887e-07
1.28911e-07
1.2893e-07
1.28942e-07
1.28962e-07
1.28975e-07
1.28996e-07
1.29008e-07
1.29022e-07
1.29036e-07
1.29053e-07
1.29061e-07
1.29069e-07
1.29082e-07
1.2909e-07
1.29089e-07
1.29106e-07
1.2912e-07
1.29125e-07
1.29143e-07
1.29153e-07
1.29187e-07
1.29199e-07
1.29226e-07
1.29244e-07
1.29272e-07
1.29287e-07
1.29304e-07
1.2932e-07
1.29338e-07
1.29358e-07
1.29371e-07
1.29386e-07
1.29398e-07
1.29419e-07
1.29437e-07
1.29452e-07
1.29472e-07
1.2949e-07
1.29513e-07
1.29529e-07
1.29555e-07
1.29573e-07
1.29606e-07
1.29628e-07
1.2967e-07
1.29697e-07
1.29749e-07
1.29778e-07
1.29867e-07
1.29901e-07
1.31883e-07
1.3607e-07
4.69544e-08
1.23807e-07
1.23194e-07
1.23283e-07
1.23692e-07
1.24186e-07
1.24658e-07
1.2509e-07
1.25468e-07
1.25806e-07
1.26098e-07
1.26363e-07
1.26593e-07
1.26803e-07
1.26985e-07
1.27155e-07
1.27302e-07
1.27442e-07
1.27562e-07
1.27677e-07
1.27777e-07
1.27874e-07
1.27957e-07
1.2804e-07
1.2811e-07
1.28181e-07
1.2824e-07
1.283e-07
1.28352e-07
1.28404e-07
1.28449e-07
1.28494e-07
1.28534e-07
1.28576e-07
1.28608e-07
1.28642e-07
1.28672e-07
1.28706e-07
1.28732e-07
1.2876e-07
1.28784e-07
1.28813e-07
1.28832e-07
1.28853e-07
1.28877e-07
1.28896e-07
1.28908e-07
1.28928e-07
1.28942e-07
1.28962e-07
1.28975e-07
1.28988e-07
1.29003e-07
1.2902e-07
1.29028e-07
1.29036e-07
1.2905e-07
1.29058e-07
1.29057e-07
1.29073e-07
1.29088e-07
1.29093e-07
1.2911e-07
1.2912e-07
1.29154e-07
1.29166e-07
1.29193e-07
1.29212e-07
1.2924e-07
1.29254e-07
1.29272e-07
1.29288e-07
1.29306e-07
1.29326e-07
1.2934e-07
1.29355e-07
1.29367e-07
1.29388e-07
1.29405e-07
1.2942e-07
1.29441e-07
1.29459e-07
1.29482e-07
1.29498e-07
1.29524e-07
1.29542e-07
1.29575e-07
1.29597e-07
1.29638e-07
1.29665e-07
1.29717e-07
1.29746e-07
1.29835e-07
1.29869e-07
1.31935e-07
1.36091e-07
4.91982e-08
1.23809e-07
1.23187e-07
1.23263e-07
1.23661e-07
1.24148e-07
1.24617e-07
1.25046e-07
1.25422e-07
1.2576e-07
1.26052e-07
1.26317e-07
1.26547e-07
1.26757e-07
1.2694e-07
1.2711e-07
1.27258e-07
1.27398e-07
1.27518e-07
1.27634e-07
1.27734e-07
1.27832e-07
1.27915e-07
1.27998e-07
1.28069e-07
1.2814e-07
1.28199e-07
1.2826e-07
1.28312e-07
1.28365e-07
1.2841e-07
1.28455e-07
1.28495e-07
1.28538e-07
1.2857e-07
1.28604e-07
1.28634e-07
1.28669e-07
1.28695e-07
1.28723e-07
1.28748e-07
1.28777e-07
1.28795e-07
1.28816e-07
1.28841e-07
1.28861e-07
1.28873e-07
1.28893e-07
1.28906e-07
1.28927e-07
1.2894e-07
1.28954e-07
1.28968e-07
1.28985e-07
1.28993e-07