/*--------------------------------*- C++ -*----------------------------------*\
| =========                 |                                                 |
| \\      /  F ield         | OpenFOAM: The Open Source CFD Toolbox           |
|  \\    /   O peration     | Version:  v2012                                 |
|   \\  /    A nd           | Website:  www.openfoam.com                      |
|    \\/     M anipulation  |                                                 |
\*---------------------------------------------------------------------------*/
FoamFile
{
    version     2.0;
    format      ascii;
    class       volScalarField;
    location    "2.5";
    object      k;
}
// * * * * * * * * * * * * * * * * * * * * * * * * * * * * * * * * * * * * * //

dimensions      [0 2 -2 0 0 0 0];


internalField   nonuniform List<scalar> 
209825
(
0.00106829
0.00106736
0.0010673
0.0010673
0.0010673
0.0010673
0.0010673
0.0010673
0.0010673
0.0010673
0.0010673
0.0010673
0.0010673
0.0010673
0.0010673
0.0010673
0.0010673
0.0010673
0.0010673
0.0010673
0.0010673
0.0010673
0.0010673
0.00106731
0.00106731
0.00106731
0.00106731
0.00106731
0.00106731
0.00106731
0.00106731
0.00106731
0.00106731
0.00106731
0.00106731
0.00106731
0.00106731
0.00106731
0.00106731
0.00106732
0.00106732
0.00106732
0.00106732
0.00106732
0.00106732
0.00106732
0.00106732
0.00106733
0.00106733
0.00106733
0.00106733
0.00106733
0.00106733
0.00106733
0.00106733
0.00106733
0.00106733
0.00106733
0.00106733
0.00106734
0.00106734
0.00106734
0.00106734
0.00106734
0.00106734
0.00106734
0.00106734
0.00106735
0.00106735
0.00106735
0.00106735
0.00106735
0.00106736
0.00106736
0.00106737
0.00106737
0.00106737
0.00106738
0.00106738
0.00106739
0.00106739
0.00106741
0.00106742
0.00106742
0.00106747
0.00106747
0.00106754
0.00106758
0.00106769
0.0010678
0.00106813
0.00106827
0.00107144
0.00107066
0.00111666
0.0013759
0.00106828
0.00106735
0.00106729
0.00106729
0.00106729
0.00106729
0.00106729
0.00106729
0.00106729
0.00106729
0.00106729
0.00106729
0.00106729
0.00106729
0.00106729
0.00106729
0.00106729
0.00106729
0.00106729
0.00106729
0.00106729
0.00106729
0.00106729
0.0010673
0.0010673
0.0010673
0.0010673
0.0010673
0.0010673
0.0010673
0.0010673
0.0010673
0.0010673
0.0010673
0.0010673
0.0010673
0.0010673
0.0010673
0.0010673
0.00106731
0.00106731
0.00106731
0.00106731
0.00106731
0.00106731
0.00106731
0.00106731
0.00106732
0.00106732
0.00106732
0.00106732
0.00106732
0.00106732
0.00106732
0.00106732
0.00106732
0.00106732
0.00106732
0.00106732
0.00106733
0.00106733
0.00106733
0.00106733
0.00106733
0.00106733
0.00106733
0.00106733
0.00106734
0.00106734
0.00106734
0.00106734
0.00106734
0.00106735
0.00106735
0.00106736
0.00106736
0.00106736
0.00106737
0.00106737
0.00106738
0.00106738
0.0010674
0.00106741
0.00106741
0.00106746
0.00106746
0.00106753
0.00106757
0.00106768
0.0010678
0.00106812
0.00106826
0.00107144
0.00107066
0.00111663
0.00137623
0.00106824
0.00106729
0.00106723
0.00106723
0.00106723
0.00106723
0.00106723
0.00106723
0.00106723
0.00106723
0.00106723
0.00106723
0.00106723
0.00106723
0.00106723
0.00106723
0.00106723
0.00106723
0.00106723
0.00106723
0.00106723
0.00106723
0.00106723
0.00106723
0.00106723
0.00106724
0.00106724
0.00106724
0.00106724
0.00106724
0.00106724
0.00106724
0.00106724
0.00106724
0.00106724
0.00106724
0.00106724
0.00106724
0.00106724
0.00106725
0.00106725
0.00106725
0.00106725
0.00106725
0.00106725
0.00106725
0.00106725
0.00106726
0.00106726
0.00106726
0.00106726
0.00106726
0.00106726
0.00106726
0.00106726
0.00106726
0.00106726
0.00106726
0.00106726
0.00106726
0.00106726
0.00106727
0.00106727
0.00106727
0.00106727
0.00106727
0.00106727
0.00106728
0.00106728
0.00106728
0.00106728
0.00106728
0.00106729
0.00106729
0.0010673
0.0010673
0.0010673
0.00106731
0.00106731
0.00106732
0.00106732
0.00106734
0.00106735
0.00106735
0.0010674
0.00106741
0.00106747
0.00106751
0.00106762
0.00106774
0.00106807
0.00106821
0.00107142
0.00107061
0.00111661
0.00137759
0.00106815
0.00106718
0.00106713
0.00106712
0.00106712
0.00106712
0.00106712
0.00106712
0.00106712
0.00106712
0.00106712
0.00106712
0.00106712
0.00106713
0.00106713
0.00106713
0.00106713
0.00106713
0.00106713
0.00106713
0.00106713
0.00106713
0.00106713
0.00106713
0.00106713
0.00106713
0.00106713
0.00106713
0.00106713
0.00106713
0.00106713
0.00106713
0.00106713
0.00106714
0.00106714
0.00106714
0.00106714
0.00106714
0.00106714
0.00106714
0.00106714
0.00106714
0.00106714
0.00106715
0.00106714
0.00106715
0.00106715
0.00106715
0.00106715
0.00106715
0.00106715
0.00106716
0.00106716
0.00106716
0.00106715
0.00106716
0.00106716
0.00106716
0.00106716
0.00106716
0.00106716
0.00106716
0.00106716
0.00106717
0.00106717
0.00106717
0.00106717
0.00106718
0.00106718
0.00106717
0.00106718
0.00106718
0.00106719
0.00106719
0.00106719
0.00106719
0.00106719
0.0010672
0.0010672
0.00106721
0.00106721
0.00106724
0.00106725
0.00106725
0.0010673
0.0010673
0.00106737
0.00106741
0.00106752
0.00106765
0.00106798
0.00106813
0.00107137
0.00107053
0.00111658
0.00137976
0.00106804
0.00106704
0.00106698
0.00106697
0.00106697
0.00106697
0.00106697
0.00106697
0.00106697
0.00106697
0.00106697
0.00106697
0.00106697
0.00106698
0.00106698
0.00106698
0.00106698
0.00106698
0.00106698
0.00106698
0.00106698
0.00106698
0.00106698
0.00106698
0.00106698
0.00106698
0.00106698
0.00106698
0.00106698
0.00106698
0.00106698
0.00106698
0.00106698
0.00106699
0.00106699
0.00106699
0.00106699
0.00106699
0.00106699
0.00106699
0.00106699
0.00106699
0.00106699
0.001067
0.001067
0.001067
0.001067
0.001067
0.001067
0.00106701
0.00106701
0.00106701
0.00106701
0.00106701
0.00106701
0.00106701
0.00106701
0.00106701
0.00106701
0.00106701
0.00106701
0.00106701
0.00106701
0.00106702
0.00106702
0.00106702
0.00106702
0.00106703
0.00106703
0.00106703
0.00106703
0.00106703
0.00106704
0.00106704
0.00106705
0.00106705
0.00106705
0.00106706
0.00106706
0.00106707
0.00106707
0.00106709
0.0010671
0.00106711
0.00106715
0.00106716
0.00106723
0.00106727
0.00106739
0.00106751
0.00106785
0.001068
0.00107129
0.00107042
0.00111653
0.00138283
0.00106788
0.00106685
0.00106678
0.00106678
0.00106678
0.00106678
0.00106678
0.00106678
0.00106678
0.00106678
0.00106678
0.00106678
0.00106678
0.00106678
0.00106678
0.00106678
0.00106678
0.00106678
0.00106678
0.00106678
0.00106678
0.00106678
0.00106678
0.00106679
0.00106679
0.00106679
0.00106679
0.00106679
0.00106679
0.00106679
0.00106679
0.00106679
0.00106679
0.00106679
0.00106679
0.00106679
0.00106679
0.0010668
0.0010668
0.0010668
0.0010668
0.0010668
0.0010668
0.0010668
0.0010668
0.00106681
0.00106681
0.00106681
0.00106681
0.00106681
0.00106681
0.00106681
0.00106681
0.00106681
0.00106681
0.00106681
0.00106681
0.00106682
0.00106682
0.00106682
0.00106682
0.00106682
0.00106682
0.00106682
0.00106682
0.00106683
0.00106683
0.00106683
0.00106683
0.00106683
0.00106684
0.00106684
0.00106685
0.00106685
0.00106686
0.00106686
0.00106685
0.00106686
0.00106686
0.00106688
0.00106688
0.0010669
0.00106691
0.00106692
0.00106696
0.00106697
0.00106704
0.00106709
0.0010672
0.00106733
0.00106768
0.00106783
0.00107119
0.00107026
0.00111647
0.0013869
0.0010677
0.00106662
0.00106654
0.00106654
0.00106654
0.00106654
0.00106654
0.00106654
0.00106654
0.00106654
0.00106654
0.00106654
0.00106654
0.00106654
0.00106654
0.00106654
0.00106654
0.00106654
0.00106654
0.00106654
0.00106654
0.00106655
0.00106655
0.00106655
0.00106655
0.00106655
0.00106655
0.00106655
0.00106655
0.00106655
0.00106655
0.00106655
0.00106655
0.00106655
0.00106655
0.00106655
0.00106655
0.00106656
0.00106656
0.00106656
0.00106656
0.00106656
0.00106656
0.00106656
0.00106656
0.00106657
0.00106657
0.00106657
0.00106657
0.00106657
0.00106657
0.00106658
0.00106658
0.00106658
0.00106657
0.00106658
0.00106658
0.00106658
0.00106658
0.00106658
0.00106658
0.00106658
0.00106658
0.00106659
0.00106659
0.00106659
0.00106659
0.0010666
0.0010666
0.0010666
0.0010666
0.0010666
0.00106661
0.00106661
0.00106662
0.00106662
0.00106662
0.00106663
0.00106663
0.00106664
0.00106664
0.00106667
0.00106668
0.00106668
0.00106673
0.00106674
0.00106681
0.00106686
0.00106698
0.00106711
0.00106748
0.00106763
0.00107106
0.00107008
0.00111639
0.0013921
0.00106748
0.00106634
0.00106626
0.00106626
0.00106625
0.00106625
0.00106625
0.00106626
0.00106626
0.00106626
0.00106626
0.00106626
0.00106626
0.00106626
0.00106626
0.00106626
0.00106626
0.00106626
0.00106626
0.00106626
0.00106626
0.00106626
0.00106626
0.00106626
0.00106626
0.00106626
0.00106626
0.00106626
0.00106626
0.00106627
0.00106627
0.00106627
0.00106627
0.00106627
0.00106627
0.00106627
0.00106627
0.00106627
0.00106627
0.00106628
0.00106628
0.00106628
0.00106628
0.00106628
0.00106628
0.00106628
0.00106628
0.00106629
0.00106629
0.00106629
0.00106629
0.00106629
0.00106629
0.00106629
0.00106629
0.00106629
0.00106629
0.0010663
0.0010663
0.0010663
0.0010663
0.0010663
0.0010663
0.0010663
0.0010663
0.00106631
0.00106631
0.00106632
0.00106632
0.00106631
0.00106632
0.00106632
0.00106633
0.00106633
0.00106634
0.00106634
0.00106634
0.00106635
0.00106635
0.00106636
0.00106636
0.00106639
0.0010664
0.00106641
0.00106646
0.00106647
0.00106654
0.00106659
0.00106672
0.00106685
0.00106723
0.00106739
0.00107089
0.00106985
0.00111627
0.00139852
0.00106722
0.00106602
0.00106593
0.00106593
0.00106592
0.00106592
0.00106592
0.00106592
0.00106592
0.00106593
0.00106593
0.00106593
0.00106593
0.00106593
0.00106593
0.00106593
0.00106593
0.00106593
0.00106593
0.00106593
0.00106593
0.00106593
0.00106593
0.00106593
0.00106593
0.00106593
0.00106593
0.00106593
0.00106593
0.00106594
0.00106594
0.00106594
0.00106594
0.00106594
0.00106594
0.00106594
0.00106594
0.00106594
0.00106594
0.00106595
0.00106595
0.00106595
0.00106595
0.00106595
0.00106595
0.00106595
0.00106595
0.00106596
0.00106596
0.00106596
0.00106596
0.00106596
0.00106596
0.00106596
0.00106596
0.00106596
0.00106596
0.00106597
0.00106597
0.00106597
0.00106597
0.00106597
0.00106597
0.00106598
0.00106598
0.00106598
0.00106598
0.00106599
0.00106599
0.00106599
0.00106599
0.00106599
0.00106601
0.00106601
0.00106601
0.00106601
0.00106601
0.00106602
0.00106602
0.00106604
0.00106604
0.00106607
0.00106608
0.00106609
0.00106614
0.00106615
0.00106622
0.00106628
0.00106641
0.00106655
0.00106694
0.0010671
0.00107069
0.00106959
0.00111612
0.00140629
0.00106693
0.00106565
0.00106555
0.00106555
0.00106554
0.00106555
0.00106555
0.00106555
0.00106555
0.00106555
0.00106555
0.00106555
0.00106555
0.00106555
0.00106555
0.00106555
0.00106555
0.00106555
0.00106555
0.00106555
0.00106555
0.00106555
0.00106555
0.00106555
0.00106555
0.00106556
0.00106556
0.00106556
0.00106556
0.00106556
0.00106556
0.00106556
0.00106556
0.00106556
0.00106556
0.00106556
0.00106556
0.00106557
0.00106557
0.00106557
0.00106557
0.00106557
0.00106557
0.00106557
0.00106557
0.00106558
0.00106558
0.00106558
0.00106558
0.00106559
0.00106559
0.00106559
0.00106559
0.00106559
0.00106559
0.00106559
0.00106559
0.00106559
0.00106559
0.0010656
0.0010656
0.0010656
0.0010656
0.0010656
0.0010656
0.00106561
0.00106561
0.00106561
0.00106561
0.00106561
0.00106562
0.00106562
0.00106563
0.00106563
0.00106564
0.00106564
0.00106564
0.00106565
0.00106565
0.00106566
0.00106566
0.0010657
0.00106571
0.00106572
0.00106577
0.00106578
0.00106586
0.00106592
0.00106605
0.0010662
0.00106661
0.00106677
0.00107045
0.00106928
0.00111592
0.00141547
0.0010666
0.00106524
0.00106513
0.00106512
0.00106512
0.00106512
0.00106512
0.00106512
0.00106512
0.00106512
0.00106512
0.00106512
0.00106512
0.00106512
0.00106512
0.00106512
0.00106512
0.00106513
0.00106513
0.00106513
0.00106513
0.00106513
0.00106513
0.00106513
0.00106513
0.00106513
0.00106513
0.00106513
0.00106513
0.00106513
0.00106513
0.00106513
0.00106513
0.00106514
0.00106514
0.00106514
0.00106514
0.00106514
0.00106514
0.00106514
0.00106514
0.00106515
0.00106515
0.00106515
0.00106515
0.00106515
0.00106515
0.00106516
0.00106516
0.00106516
0.00106516
0.00106517
0.00106517
0.00106517
0.00106516
0.00106517
0.00106517
0.00106517
0.00106517
0.00106517
0.00106517
0.00106518
0.00106518
0.00106518
0.00106518
0.00106518
0.00106518
0.00106519
0.00106519
0.00106519
0.0010652
0.0010652
0.00106521
0.00106521
0.00106522
0.00106522
0.00106522
0.00106523
0.00106523
0.00106525
0.00106525
0.00106528
0.00106529
0.0010653
0.00106536
0.00106537
0.00106545
0.00106551
0.00106565
0.00106581
0.00106623
0.0010664
0.00107016
0.00106895
0.00111567
0.00142609
0.00106624
0.00106478
0.00106466
0.00106465
0.00106464
0.00106464
0.00106464
0.00106465
0.00106465
0.00106465
0.00106465
0.00106465
0.00106465
0.00106465
0.00106465
0.00106465
0.00106465
0.00106465
0.00106465
0.00106465
0.00106465
0.00106465
0.00106465
0.00106465
0.00106465
0.00106466
0.00106466
0.00106466
0.00106466
0.00106466
0.00106466
0.00106466
0.00106466
0.00106466
0.00106466
0.00106467
0.00106467
0.00106467
0.00106467
0.00106467
0.00106467
0.00106468
0.00106468
0.00106468
0.00106468
0.00106468
0.00106468
0.00106469
0.00106469
0.00106469
0.00106469
0.00106469
0.00106469
0.00106469
0.00106469
0.0010647
0.0010647
0.0010647
0.0010647
0.0010647
0.0010647
0.00106471
0.00106471
0.00106471
0.00106471
0.00106471
0.00106471
0.00106472
0.00106472
0.00106472
0.00106473
0.00106473
0.00106475
0.00106475
0.00106475
0.00106475
0.00106475
0.00106476
0.00106476
0.00106478
0.00106478
0.00106482
0.00106483
0.00106484
0.0010649
0.00106491
0.001065
0.00106506
0.00106521
0.00106537
0.00106581
0.00106599
0.00106984
0.00106857
0.00111536
0.00143812
0.00106585
0.00106427
0.00106414
0.00106413
0.00106412
0.00106412
0.00106412
0.00106412
0.00106412
0.00106412
0.00106412
0.00106412
0.00106412
0.00106412
0.00106412
0.00106413
0.00106413
0.00106413
0.00106413
0.00106413
0.00106413
0.00106413
0.00106413
0.00106413
0.00106413
0.00106413
0.00106413
0.00106413
0.00106413
0.00106414
0.00106414
0.00106414
0.00106414
0.00106414
0.00106414
0.00106414
0.00106414
0.00106415
0.00106415
0.00106415
0.00106415
0.00106415
0.00106415
0.00106416
0.00106416
0.00106416
0.00106416
0.00106416
0.00106416
0.00106417
0.00106417
0.00106417
0.00106417
0.00106417
0.00106417
0.00106417
0.00106417
0.00106418
0.00106418
0.00106418
0.00106418
0.00106419
0.00106419
0.00106419
0.00106419
0.00106419
0.0010642
0.0010642
0.0010642
0.0010642
0.00106421
0.00106421
0.00106423
0.00106423
0.00106424
0.00106424
0.00106424
0.00106425
0.00106425
0.00106427
0.00106427
0.00106431
0.00106432
0.00106433
0.00106439
0.00106441
0.0010645
0.00106456
0.00106472
0.00106489
0.00106535
0.00106553
0.00106947
0.00106816
0.00111497
0.00145142
0.00106542
0.00106371
0.00106356
0.00106355
0.00106354
0.00106354
0.00106354
0.00106355
0.00106355
0.00106355
0.00106355
0.00106355
0.00106355
0.00106355
0.00106355
0.00106355
0.00106355
0.00106355
0.00106355
0.00106355
0.00106355
0.00106355
0.00106355
0.00106356
0.00106356
0.00106356
0.00106356
0.00106356
0.00106356
0.00106356
0.00106356
0.00106356
0.00106356
0.00106357
0.00106357
0.00106357
0.00106357
0.00106357
0.00106357
0.00106358
0.00106358
0.00106358
0.00106358
0.00106358
0.00106358
0.00106359
0.00106359
0.00106359
0.00106359
0.0010636
0.0010636
0.0010636
0.0010636
0.0010636
0.0010636
0.0010636
0.0010636
0.00106361
0.00106361
0.00106361
0.00106361
0.00106362
0.00106362
0.00106362
0.00106362
0.00106362
0.00106363
0.00106363
0.00106363
0.00106363
0.00106364
0.00106364
0.00106366
0.00106366
0.00106367
0.00106367
0.00106367
0.00106368
0.00106368
0.0010637
0.0010637
0.00106375
0.00106375
0.00106377
0.00106383
0.00106385
0.00106395
0.00106402
0.00106418
0.00106436
0.00106483
0.00106503
0.00106904
0.00106771
0.00111449
0.00146572
0.00106495
0.00106311
0.00106294
0.00106292
0.00106291
0.00106292
0.00106292
0.00106292
0.00106292
0.00106292
0.00106292
0.00106292
0.00106292
0.00106292
0.00106292
0.00106292
0.00106292
0.00106292
0.00106292
0.00106293
0.00106293
0.00106293
0.00106293
0.00106293
0.00106293
0.00106293
0.00106293
0.00106293
0.00106293
0.00106294
0.00106294
0.00106294
0.00106294
0.00106294
0.00106294
0.00106294
0.00106294
0.00106295
0.00106295
0.00106295
0.00106295
0.00106296
0.00106296
0.00106296
0.00106296
0.00106296
0.00106296
0.00106297
0.00106297
0.00106298
0.00106298
0.00106298
0.00106298
0.00106298
0.00106298
0.00106298
0.00106298
0.00106298
0.00106298
0.00106299
0.00106299
0.00106299
0.00106299
0.001063
0.001063
0.001063
0.001063
0.00106301
0.00106301
0.00106301
0.00106302
0.00106302
0.00106304
0.00106304
0.00106305
0.00106305
0.00106305
0.00106307
0.00106307
0.00106309
0.00106309
0.00106313
0.00106314
0.00106316
0.00106323
0.00106324
0.00106334
0.00106342
0.00106359
0.00106377
0.00106427
0.00106448
0.00106857
0.00106723
0.00111391
0.00148056
0.00106445
0.00106245
0.00106226
0.00106224
0.00106223
0.00106223
0.00106223
0.00106224
0.00106224
0.00106224
0.00106224
0.00106224
0.00106224
0.00106224
0.00106224
0.00106224
0.00106224
0.00106224
0.00106224
0.00106225
0.00106225
0.00106225
0.00106225
0.00106225
0.00106225
0.00106225
0.00106225
0.00106225
0.00106225
0.00106226
0.00106226
0.00106226
0.00106226
0.00106226
0.00106226
0.00106226
0.00106226
0.00106227
0.00106227
0.00106227
0.00106227
0.00106228
0.00106228
0.00106228
0.00106228
0.00106229
0.00106229
0.00106229
0.00106229
0.0010623
0.0010623
0.0010623
0.0010623
0.0010623
0.0010623
0.0010623
0.0010623
0.00106231
0.00106231
0.00106232
0.00106232
0.00106232
0.00106232
0.00106232
0.00106232
0.00106233
0.00106233
0.00106233
0.00106234
0.00106234
0.00106235
0.00106235
0.00106237
0.00106237
0.00106238
0.00106238
0.00106238
0.0010624
0.0010624
0.00106242
0.00106242
0.00106247
0.00106247
0.0010625
0.00106257
0.00106258
0.00106269
0.00106277
0.00106295
0.00106314
0.00106366
0.00106387
0.00106803
0.00106672
0.00111322
0.00149523
0.00106392
0.00106175
0.00106153
0.00106151
0.0010615
0.0010615
0.0010615
0.0010615
0.0010615
0.0010615
0.0010615
0.0010615
0.0010615
0.0010615
0.0010615
0.00106151
0.00106151
0.00106151
0.00106151
0.00106151
0.00106151
0.00106151
0.00106151
0.00106151
0.00106151
0.00106151
0.00106151
0.00106152
0.00106152
0.00106152
0.00106152
0.00106152
0.00106152
0.00106153
0.00106153
0.00106153
0.00106153
0.00106153
0.00106153
0.00106154
0.00106154
0.00106154
0.00106154
0.00106155
0.00106155
0.00106155
0.00106155
0.00106156
0.00106156
0.00106157
0.00106157
0.00106157
0.00106157
0.00106157
0.00106157
0.00106157
0.00106157
0.00106158
0.00106158
0.00106159
0.00106159
0.00106159
0.00106159
0.00106159
0.00106159
0.0010616
0.0010616
0.0010616
0.00106161
0.00106161
0.00106162
0.00106162
0.00106164
0.00106164
0.00106166
0.00106166
0.00106166
0.00106167
0.00106167
0.0010617
0.0010617
0.00106175
0.00106175
0.00106179
0.00106185
0.00106187
0.00106198
0.00106207
0.00106225
0.00106246
0.001063
0.00106322
0.00106744
0.00106618
0.0011124
0.00150878
0.00106335
0.00106099
0.00106074
0.00106072
0.0010607
0.0010607
0.0010607
0.00106071
0.00106071
0.00106071
0.00106071
0.00106071
0.00106071
0.00106071
0.00106071
0.00106071
0.00106071
0.00106071
0.00106071
0.00106072
0.00106072
0.00106072
0.00106072
0.00106072
0.00106072
0.00106072
0.00106072
0.00106073
0.00106073
0.00106073
0.00106073
0.00106073
0.00106073
0.00106074
0.00106074
0.00106074
0.00106074
0.00106074
0.00106074
0.00106075
0.00106075
0.00106075
0.00106075
0.00106076
0.00106076
0.00106077
0.00106077
0.00106077
0.00106077
0.00106078
0.00106078
0.00106078
0.00106078
0.00106078
0.00106078
0.00106079
0.00106079
0.00106079
0.00106079
0.0010608
0.0010608
0.0010608
0.0010608
0.00106081
0.00106081
0.00106081
0.00106081
0.00106081
0.00106082
0.00106082
0.00106084
0.00106084
0.00106086
0.00106086
0.00106088
0.00106088
0.00106088
0.00106089
0.00106089
0.00106092
0.00106092
0.00106097
0.00106098
0.00106102
0.00106109
0.00106111
0.00106122
0.00106131
0.0010615
0.00106172
0.00106228
0.00106251
0.00106678
0.00106562
0.00111144
0.00152115
0.00106275
0.00106017
0.0010599
0.00105987
0.00105985
0.00105985
0.00105985
0.00105985
0.00105985
0.00105986
0.00105986
0.00105986
0.00105986
0.00105986
0.00105986
0.00105986
0.00105986
0.00105986
0.00105986
0.00105986
0.00105986
0.00105987
0.00105987
0.00105987
0.00105987
0.00105987
0.00105987
0.00105987
0.00105987
0.00105988
0.00105988
0.00105988
0.00105988
0.00105989
0.00105989
0.00105989
0.00105989
0.00105989
0.00105989
0.0010599
0.0010599
0.00105991
0.00105991
0.00105991
0.00105991
0.00105992
0.00105992
0.00105992
0.00105992
0.00105994
0.00105994
0.00105994
0.00105994
0.00105994
0.00105994
0.00105994
0.00105994
0.00105995
0.00105995
0.00105996
0.00105996
0.00105996
0.00105996
0.00105996
0.00105996
0.00105997
0.00105997
0.00105997
0.00105998
0.00105998
0.00106
0.00106
0.00106002
0.00106002
0.00106004
0.00106004
0.00106004
0.00106006
0.00106006
0.00106008
0.00106008
0.00106014
0.00106014
0.00106019
0.00106026
0.00106028
0.0010604
0.0010605
0.0010607
0.00106092
0.00106151
0.00106175
0.00106605
0.00106502
0.00111039
0.00153234
0.00106211
0.00105931
0.00105899
0.00105896
0.00105894
0.00105894
0.00105894
0.00105894
0.00105894
0.00105894
0.00105894
0.00105895
0.00105895
0.00105895
0.00105895
0.00105895
0.00105895
0.00105895
0.00105895
0.00105895
0.00105895
0.00105896
0.00105896
0.00105896
0.00105896
0.00105896
0.00105896
0.00105896
0.00105896
0.00105897
0.00105897
0.00105897
0.00105897
0.00105898
0.00105898
0.00105898
0.00105898
0.00105899
0.00105899
0.00105899
0.00105899
0.001059
0.001059
0.001059
0.001059
0.00105901
0.00105901
0.00105902
0.00105902
0.00105903
0.00105903
0.00105903
0.00105903
0.00105903
0.00105903
0.00105904
0.00105904
0.00105904
0.00105904
0.00105905
0.00105905
0.00105905
0.00105906
0.00105906
0.00105906
0.00105906
0.00105907
0.00105907
0.00105908
0.00105908
0.0010591
0.0010591
0.00105912
0.00105912
0.00105914
0.00105914
0.00105914
0.00105916
0.00105916
0.00105919
0.00105919
0.00105925
0.00105925
0.0010593
0.00105938
0.0010594
0.00105953
0.00105963
0.00105983
0.00106007
0.00106068
0.00106094
0.00106525
0.00106441
0.00110938
0.00154231
0.00106144
0.00105838
0.00105803
0.00105798
0.00105796
0.00105796
0.00105796
0.00105797
0.00105797
0.00105797
0.00105797
0.00105797
0.00105797
0.00105797
0.00105797
0.00105797
0.00105797
0.00105798
0.00105798
0.00105798
0.00105798
0.00105798
0.00105798
0.00105798
0.00105798
0.00105799
0.00105799
0.00105799
0.00105799
0.00105799
0.00105799
0.001058
0.001058
0.001058
0.001058
0.00105801
0.00105801
0.00105802
0.00105802
0.00105802
0.00105802
0.00105803
0.00105803
0.00105804
0.00105804
0.00105804
0.00105804
0.00105805
0.00105805
0.00105807
0.00105807
0.00105807
0.00105806
0.00105806
0.00105806
0.00105807
0.00105807
0.00105808
0.00105808
0.00105809
0.00105809
0.00105809
0.00105809
0.00105809
0.00105809
0.0010581
0.0010581
0.0010581
0.00105812
0.00105812
0.00105814
0.00105814
0.00105816
0.00105816
0.00105819
0.00105819
0.00105818
0.00105821
0.00105821
0.00105823
0.00105823
0.0010583
0.0010583
0.00105835
0.00105844
0.00105846
0.00105859
0.00105869
0.00105891
0.00105915
0.00105978
0.00106006
0.00106437
0.00106377
0.00110851
0.00155107
0.00106073
0.0010574
0.001057
0.00105695
0.00105692
0.00105692
0.00105692
0.00105693
0.00105693
0.00105693
0.00105693
0.00105693
0.00105693
0.00105693
0.00105693
0.00105694
0.00105694
0.00105694
0.00105694
0.00105694
0.00105694
0.00105694
0.00105694
0.00105695
0.00105695
0.00105695
0.00105695
0.00105695
0.00105695
0.00105696
0.00105696
0.00105696
0.00105696
0.00105697
0.00105697
0.00105697
0.00105697
0.00105698
0.00105698
0.00105699
0.00105699
0.00105699
0.00105699
0.001057
0.001057
0.00105701
0.00105701
0.00105702
0.00105702
0.00105704
0.00105704
0.00105704
0.00105703
0.00105703
0.00105703
0.00105704
0.00105704
0.00105705
0.00105705
0.00105706
0.00105706
0.00105706
0.00105707
0.00105706
0.00105706
0.00105707
0.00105707
0.00105707
0.00105709
0.00105709
0.00105711
0.00105711
0.00105714
0.00105714
0.00105717
0.00105717
0.00105716
0.00105719
0.00105719
0.00105722
0.00105722
0.00105728
0.00105729
0.00105734
0.00105743
0.00105745
0.00105759
0.0010577
0.00105793
0.00105818
0.00105883
0.00105912
0.00106342
0.00106312
0.00110786
0.0015586
0.00105999
0.00105636
0.00105591
0.00105585
0.00105581
0.00105582
0.00105582
0.00105582
0.00105582
0.00105582
0.00105582
0.00105583
0.00105583
0.00105583
0.00105583
0.00105583
0.00105583
0.00105583
0.00105583
0.00105584
0.00105584
0.00105584
0.00105584
0.00105584
0.00105584
0.00105585
0.00105585
0.00105585
0.00105585
0.00105585
0.00105585
0.00105586
0.00105586
0.00105587
0.00105587
0.00105587
0.00105587
0.00105588
0.00105588
0.00105589
0.00105589
0.0010559
0.00105589
0.0010559
0.0010559
0.00105591
0.00105591
0.00105592
0.00105592
0.00105594
0.00105594
0.00105594
0.00105594
0.00105594
0.00105593
0.00105594
0.00105594
0.00105595
0.00105595
0.00105596
0.00105596
0.00105596
0.00105597
0.00105597
0.00105597
0.00105597
0.00105598
0.00105598
0.001056
0.001056
0.00105602
0.00105602
0.00105605
0.00105605
0.00105608
0.00105608
0.00105608
0.0010561
0.00105611
0.00105614
0.00105614
0.0010562
0.00105621
0.00105627
0.00105636
0.00105638
0.00105653
0.00105664
0.00105688
0.00105714
0.00105781
0.00105812
0.00106238
0.00106244
0.00110751
0.00156491
0.00105922
0.00105526
0.00105475
0.00105467
0.00105464
0.00105464
0.00105464
0.00105464
0.00105464
0.00105465
0.00105465
0.00105465
0.00105465
0.00105465
0.00105465
0.00105466
0.00105466
0.00105466
0.00105466
0.00105466
0.00105466
0.00105467
0.00105467
0.00105467
0.00105467
0.00105467
0.00105467
0.00105468
0.00105468
0.00105468
0.00105468
0.00105469
0.00105469
0.0010547
0.00105469
0.0010547
0.0010547
0.00105471
0.00105471
0.00105472
0.00105472
0.00105473
0.00105473
0.00105474
0.00105474
0.00105475
0.00105475
0.00105475
0.00105475
0.00105478
0.00105478
0.00105478
0.00105477
0.00105477
0.00105477
0.00105478
0.00105478
0.00105479
0.00105479
0.0010548
0.0010548
0.0010548
0.00105481
0.00105481
0.00105481
0.00105481
0.00105482
0.00105482
0.00105484
0.00105484
0.00105486
0.00105486
0.0010549
0.0010549
0.00105493
0.00105493
0.00105492
0.00105495
0.00105496
0.00105499
0.00105499
0.00105506
0.00105506
0.00105513
0.00105522
0.00105524
0.0010554
0.00105552
0.00105576
0.00105603
0.00105673
0.00105706
0.00106125
0.00106175
0.00110749
0.00157002
0.00105841
0.0010541
0.00105352
0.00105343
0.00105339
0.0010534
0.00105339
0.0010534
0.0010534
0.0010534
0.0010534
0.0010534
0.0010534
0.00105341
0.00105341
0.00105341
0.00105341
0.00105341
0.00105341
0.00105342
0.00105342
0.00105342
0.00105342
0.00105343
0.00105343
0.00105343
0.00105343
0.00105343
0.00105343
0.00105344
0.00105344
0.00105345
0.00105345
0.00105345
0.00105345
0.00105346
0.00105346
0.00105347
0.00105347
0.00105348
0.00105348
0.00105349
0.00105349
0.0010535
0.0010535
0.00105351
0.00105351
0.00105352
0.00105352
0.00105354
0.00105354
0.00105354
0.00105354
0.00105354
0.00105353
0.00105354
0.00105354
0.00105355
0.00105355
0.00105356
0.00105357
0.00105357
0.00105358
0.00105358
0.00105358
0.00105358
0.00105359
0.00105359
0.00105361
0.00105361
0.00105364
0.00105364
0.00105367
0.00105367
0.0010537
0.0010537
0.0010537
0.00105373
0.00105374
0.00105377
0.00105377
0.00105384
0.00105384
0.00105392
0.00105402
0.00105404
0.0010542
0.00105432
0.00105458
0.00105485
0.00105557
0.00105592
0.00106003
0.00106103
0.00110778
0.00157394
0.00105758
0.00105288
0.00105222
0.00105212
0.00105207
0.00105207
0.00105207
0.00105208
0.00105208
0.00105208
0.00105208
0.00105208
0.00105208
0.00105209
0.00105209
0.00105209
0.00105209
0.0010521
0.0010521
0.0010521
0.0010521
0.0010521
0.0010521
0.00105211
0.00105211
0.00105211
0.00105211
0.00105212
0.00105212
0.00105212
0.00105212
0.00105213
0.00105213
0.00105214
0.00105214
0.00105215
0.00105215
0.00105216
0.00105216
0.00105217
0.00105217
0.00105218
0.00105218
0.00105219
0.00105219
0.0010522
0.0010522
0.00105221
0.00105221
0.00105224
0.00105223
0.00105223
0.00105223
0.00105223
0.00105223
0.00105224
0.00105224
0.00105225
0.00105225
0.00105225
0.00105226
0.00105226
0.00105227
0.00105227
0.00105227
0.00105227
0.00105228
0.00105228
0.0010523
0.0010523
0.00105234
0.00105234
0.00105238
0.00105238
0.00105241
0.00105241
0.00105241
0.00105243
0.00105245
0.00105248
0.00105248
0.00105255
0.00105255
0.00105264
0.00105274
0.00105276
0.00105293
0.00105306
0.00105332
0.00105361
0.00105434
0.00105471
0.00105872
0.0010603
0.00110834
0.00157669
0.00105671
0.00105159
0.00105085
0.00105073
0.00105068
0.00105068
0.00105067
0.00105068
0.00105068
0.00105068
0.00105068
0.00105069
0.00105069
0.00105069
0.00105069
0.0010507
0.0010507
0.0010507
0.0010507
0.0010507
0.0010507
0.00105071
0.00105071
0.00105071
0.00105071
0.00105072
0.00105072
0.00105072
0.00105072
0.00105073
0.00105073
0.00105074
0.00105074
0.00105075
0.00105075
0.00105076
0.00105076
0.00105077
0.00105077
0.00105078
0.00105078
0.00105079
0.00105079
0.0010508
0.0010508
0.00105081
0.00105081
0.00105082
0.00105082
0.00105085
0.00105085
0.00105085
0.00105085
0.00105085
0.00105084
0.00105085
0.00105085
0.00105087
0.00105087
0.00105087
0.00105088
0.00105088
0.00105089
0.00105089
0.00105089
0.00105089
0.0010509
0.0010509
0.00105093
0.00105092
0.00105096
0.00105096
0.001051
0.001051
0.00105104
0.00105104
0.00105104
0.00105106
0.00105108
0.00105111
0.00105112
0.00105119
0.00105119
0.00105128
0.00105139
0.00105141
0.00105159
0.00105172
0.00105199
0.00105228
0.00105304
0.00105343
0.00105731
0.00105955
0.00110906
0.00157829
0.00105581
0.00105024
0.0010494
0.00104926
0.0010492
0.0010492
0.00104919
0.0010492
0.0010492
0.00104921
0.00104921
0.00104921
0.00104921
0.00104922
0.00104922
0.00104922
0.00104922
0.00104923
0.00104923
0.00104923
0.00104923
0.00104923
0.00104923
0.00104924
0.00104924
0.00104925
0.00104925
0.00104925
0.00104925
0.00104926
0.00104926
0.00104927
0.00104927
0.00104928
0.00104928
0.00104929
0.00104929
0.0010493
0.0010493
0.00104931
0.00104931
0.00104932
0.00104932
0.00104933
0.00104933
0.00104935
0.00104935
0.00104936
0.00104936
0.00104939
0.00104939
0.00104939
0.00104939
0.00104939
0.00104938
0.00104939
0.00104939
0.0010494
0.00104941
0.00104941
0.00104942
0.00104942
0.00104943
0.00104943
0.00104943
0.00104943
0.00104944
0.00104944
0.00104947
0.00104947
0.00104951
0.00104951
0.00104956
0.00104956
0.00104959
0.00104959
0.00104959
0.00104962
0.00104964
0.00104966
0.00104968
0.00104975
0.00104975