/*--------------------------------*- C++ -*----------------------------------*\
| =========                 |                                                 |
| \\      /  F ield         | OpenFOAM: The Open Source CFD Toolbox           |
|  \\    /   O peration     | Version:  v2012                                 |
|   \\  /    A nd           | Website:  www.openfoam.com                      |
|    \\/     M anipulation  |                                                 |
\*---------------------------------------------------------------------------*/
FoamFile
{
    version     2.0;
    format      ascii;
    class       volScalarField;
    location    "2.5";
    object      omega;
}
// * * * * * * * * * * * * * * * * * * * * * * * * * * * * * * * * * * * * * //

dimensions      [0 0 -1 0 0 0 0];


internalField   nonuniform List<scalar> 
209825
(
8509.97
8476.61
8470.97
8469.62
8468.96
8468.77
8468.6
8468.57
8468.5
8468.52
8468.5
8468.52
8468.52
8468.56
8468.56
8468.6
8468.6
8468.66
8468.66
8468.72
8468.72
8468.78
8468.78
8468.86
8468.85
8468.93
8468.93
8469.02
8469.01
8469.1
8469.1
8469.2
8469.2
8469.3
8469.3
8469.42
8469.42
8469.54
8469.54
8469.66
8469.66
8469.8
8469.8
8469.95
8469.95
8470.11
8470.11
8470.28
8470.28
8470.45
8470.45
8470.67
8470.67
8470.83
8470.83
8471
8471
8471.11
8471.11
8471.22
8471.22
8471.35
8471.35
8471.42
8471.42
8471.53
8471.52
8471.67
8471.67
8471.98
8471.98
8472.14
8472.14
8472.31
8472.31
8472.47
8472.47
8472.58
8472.58
8472.55
8472.75
8472.74
8473.06
8473.06
8473.07
8473.55
8473.55
8474.24
8475.02
8475.24
8477.56
8478.29
8494.95
8493.13
8720.12
127281
8509.89
8476.46
8470.8
8469.44
8468.78
8468.59
8468.42
8468.38
8468.32
8468.33
8468.31
8468.34
8468.33
8468.37
8468.37
8468.42
8468.42
8468.47
8468.47
8468.53
8468.53
8468.6
8468.6
8468.67
8468.67
8468.75
8468.75
8468.83
8468.83
8468.92
8468.92
8469.02
8469.02
8469.12
8469.12
8469.23
8469.23
8469.35
8469.35
8469.48
8469.48
8469.62
8469.62
8469.77
8469.77
8469.93
8469.93
8470.1
8470.1
8470.27
8470.27
8470.49
8470.49
8470.65
8470.65
8470.82
8470.82
8470.93
8470.93
8471.04
8471.04
8471.17
8471.17
8471.24
8471.24
8471.35
8471.34
8471.49
8471.49
8471.8
8471.8
8471.96
8471.96
8472.14
8472.14
8472.3
8472.29
8472.4
8472.4
8472.38
8472.57
8472.57
8472.89
8472.89
8472.9
8473.38
8473.38
8474.06
8474.85
8475.07
8477.4
8478.13
8494.83
8492.98
8719.87
123978
8509.54
8475.88
8470.15
8468.77
8468.09
8467.9
8467.73
8467.69
8467.62
8467.64
8467.61
8467.64
8467.64
8467.68
8467.68
8467.72
8467.72
8467.78
8467.78
8467.84
8467.84
8467.9
8467.9
8467.98
8467.98
8468.05
8468.05
8468.14
8468.14
8468.23
8468.23
8468.32
8468.32
8468.43
8468.43
8468.54
8468.54
8468.66
8468.66
8468.79
8468.79
8468.93
8468.93
8469.09
8469.08
8469.25
8469.24
8469.41
8469.41
8469.59
8469.59
8469.81
8469.81
8469.97
8469.97
8470.15
8470.15
8470.25
8470.25
8470.36
8470.36
8470.49
8470.49
8470.57
8470.57
8470.67
8470.67
8470.81
8470.81
8471.13
8471.13
8471.29
8471.29
8471.47
8471.47
8471.63
8471.63
8471.74
8471.73
8471.71
8471.91
8471.9
8472.23
8472.22
8472.24
8472.72
8472.72
8473.41
8474.2
8474.43
8476.77
8477.5
8494.28
8492.37
8719.06
120142
8508.91
8474.86
8469.02
8467.6
8466.9
8466.7
8466.52
8466.48
8466.41
8466.42
8466.4
8466.43
8466.42
8466.46
8466.46
8466.51
8466.51
8466.56
8466.56
8466.62
8466.62
8466.69
8466.69
8466.76
8466.76
8466.84
8466.84
8466.93
8466.93
8467.02
8467.02
8467.12
8467.12
8467.22
8467.22
8467.34
8467.34
8467.46
8467.46
8467.59
8467.59
8467.73
8467.73
8467.89
8467.89
8468.05
8468.05
8468.22
8468.22
8468.4
8468.4
8468.62
8468.62
8468.78
8468.78
8468.96
8468.96
8469.07
8469.07
8469.18
8469.18
8469.31
8469.31
8469.39
8469.39
8469.49
8469.49
8469.64
8469.64
8469.96
8469.96
8470.12
8470.12
8470.3
8470.3
8470.46
8470.46
8470.57
8470.57
8470.55
8470.74
8470.74
8471.07
8471.07
8471.08
8471.57
8471.57
8472.26
8473.07
8473.3
8475.66
8476.4
8493.29
8491.31
8717.69
116158
8508.01
8473.4
8467.39
8465.91
8465.19
8464.98
8464.79
8464.75
8464.67
8464.68
8464.66
8464.69
8464.68
8464.72
8464.72
8464.77
8464.77
8464.82
8464.82
8464.88
8464.88
8464.95
8464.95
8465.02
8465.02
8465.1
8465.1
8465.19
8465.19
8465.28
8465.28
8465.38
8465.38
8465.49
8465.49
8465.61
8465.61
8465.73
8465.73
8465.87
8465.87
8466.01
8466.01
8466.17
8466.17
8466.33
8466.33
8466.51
8466.51
8466.69
8466.69
8466.92
8466.92
8467.08
8467.08
8467.26
8467.26
8467.37
8467.37
8467.48
8467.48
8467.62
8467.62
8467.7
8467.7
8467.8
8467.8
8467.95
8467.95
8468.29
8468.29
8468.45
8468.44
8468.62
8468.62
8468.79
8468.79
8468.9
8468.9
8468.88
8469.08
8469.07
8469.41
8469.41
8469.42
8469.92
8469.93
8470.62
8471.44
8471.68
8474.06
8474.81
8491.85
8489.77
8715.73
112135
8506.84
8471.5
8465.27
8463.72
8462.95
8462.72
8462.53
8462.48
8462.4
8462.41
8462.38
8462.41
8462.4
8462.44
8462.44
8462.49
8462.49
8462.54
8462.54
8462.61
8462.61
8462.68
8462.68
8462.75
8462.75
8462.83
8462.83
8462.92
8462.92
8463.02
8463.02
8463.12
8463.12
8463.23
8463.23
8463.35
8463.35
8463.47
8463.47
8463.61
8463.61
8463.76
8463.76
8463.92
8463.92
8464.09
8464.09
8464.27
8464.27
8464.45
8464.45
8464.69
8464.69
8464.86
8464.86
8465.04
8465.04
8465.15
8465.15
8465.26
8465.26
8465.4
8465.4
8465.49
8465.49
8465.59
8465.59
8465.74
8465.74
8466.1
8466.1
8466.25
8466.25
8466.43
8466.43
8466.61
8466.6
8466.72
8466.72
8466.69
8466.9
8466.9
8467.24
8467.24
8467.26
8467.77
8467.77
8468.47
8469.31
8469.56
8471.97
8472.74
8489.95
8487.76
8713.17
108119
8505.39
8469.14
8462.64
8460.99
8460.18
8459.93
8459.72
8459.67
8459.58
8459.59
8459.56
8459.59
8459.58
8459.62
8459.62
8459.66
8459.66
8459.72
8459.72
8459.79
8459.79
8459.86
8459.86
8459.93
8459.93
8460.02
8460.02
8460.11
8460.11
8460.21
8460.21
8460.31
8460.31
8460.42
8460.42
8460.55
8460.54
8460.68
8460.68
8460.82
8460.82
8460.97
8460.97
8461.14
8461.14
8461.31
8461.31
8461.49
8461.49
8461.68
8461.68
8461.93
8461.93
8462.1
8462.1
8462.29
8462.29
8462.4
8462.4
8462.52
8462.51
8462.66
8462.66
8462.75
8462.75
8462.86
8462.85
8463.01
8463.01
8463.38
8463.38
8463.53
8463.53
8463.72
8463.72
8463.9
8463.89
8464.02
8464.02
8463.99
8464.2
8464.2
8464.55
8464.54
8464.57
8465.1
8465.09
8465.81
8466.67
8466.93
8469.38
8470.16
8487.58
8485.26
8710
104138
8503.67
8466.33
8459.5
8457.73
8456.87
8456.59
8456.36
8456.3
8456.21
8456.22
8456.18
8456.21
8456.2
8456.24
8456.23
8456.28
8456.28
8456.34
8456.34
8456.41
8456.41
8456.48
8456.48
8456.56
8456.56
8456.65
8456.65
8456.74
8456.74
8456.84
8456.84
8456.95
8456.95
8457.07
8457.07
8457.19
8457.19
8457.33
8457.33
8457.47
8457.47
8457.63
8457.63
8457.8
8457.8
8457.98
8457.98
8458.17
8458.17
8458.37
8458.36
8458.62
8458.62
8458.8
8458.8
8459
8459
8459.11
8459.11
8459.23
8459.22
8459.37
8459.37
8459.47
8459.47
8459.58
8459.58
8459.74
8459.74
8460.12
8460.13
8460.28
8460.28
8460.47
8460.47
8460.65
8460.65
8460.78
8460.78
8460.75
8460.97
8460.96
8461.33
8461.32
8461.35
8461.89
8461.89
8462.62
8463.51
8463.78
8466.27
8467.07
8484.7
8482.26
8706.18
100208
8501.68
8463.05
8455.84
8453.93
8453
8452.69
8452.44
8452.38
8452.28
8452.28
8452.24
8452.26
8452.25
8452.29
8452.29
8452.34
8452.34
8452.4
8452.4
8452.46
8452.46
8452.54
8452.54
8452.62
8452.62
8452.71
8452.71
8452.81
8452.81
8452.91
8452.91
8453.02
8453.02
8453.14
8453.14
8453.28
8453.27
8453.42
8453.42
8453.57
8453.57
8453.73
8453.73
8453.91
8453.91
8454.09
8454.09
8454.29
8454.29
8454.49
8454.49
8454.76
8454.76
8454.94
8454.94
8455.15
8455.15
8455.26
8455.26
8455.39
8455.38
8455.53
8455.53
8455.64
8455.64
8455.75
8455.75
8455.91
8455.91
8456.32
8456.34
8456.48
8456.48
8456.67
8456.67
8456.87
8456.87
8457
8457
8456.97
8457.19
8457.19
8457.57
8457.57
8457.59
8458.16
8458.16
8458.9
8459.82
8460.1
8462.63
8463.46
8481.32
8478.76
8701.7
96342.5
8499.42
8459.31
8451.65
8449.58
8448.57
8448.22
8447.95
8447.87
8447.76
8447.76
8447.71
8447.74
8447.72
8447.76
8447.76
8447.81
8447.81
8447.87
8447.87
8447.94
8447.94
8448.02
8448.02
8448.1
8448.1
8448.2
8448.2
8448.3
8448.3
8448.41
8448.41
8448.52
8448.52
8448.65
8448.65
8448.78
8448.78
8448.93
8448.93
8449.09
8449.09
8449.26
8449.26
8449.44
8449.44
8449.64
8449.63
8449.84
8449.84
8450.05
8450.05
8450.34
8450.34
8450.52
8450.52
8450.74
8450.74
8450.86
8450.85
8450.98
8450.98
8451.13
8451.13
8451.25
8451.25
8451.36
8451.36
8451.53
8451.53
8451.96
8451.99
8452.12
8452.12
8452.32
8452.32
8452.53
8452.53
8452.67
8452.67
8452.64
8452.87
8452.87
8453.26
8453.26
8453.29
8453.87
8453.87
8454.63
8455.58
8455.87
8458.46
8459.32
8477.41
8474.74
8696.53
92551.2
8496.89
8455.09
8446.92
8444.66
8443.56
8443.17
8442.87
8442.78
8442.66
8442.65
8442.6
8442.62
8442.6
8442.64
8442.64
8442.69
8442.69
8442.75
8442.75
8442.83
8442.82
8442.91
8442.91
8443
8442.99
8443.09
8443.09
8443.2
8443.2
8443.31
8443.31
8443.43
8443.43
8443.56
8443.56
8443.71
8443.7
8443.86
8443.86
8444.02
8444.02
8444.2
8444.2
8444.39
8444.39
8444.59
8444.59
8444.81
8444.81
8445.03
8445.03
8445.33
8445.33
8445.53
8445.53
8445.75
8445.75
8445.87
8445.87
8446
8446
8446.16
8446.16
8446.29
8446.29
8446.4
8446.4
8446.58
8446.58
8447.04
8447.07
8447.2
8447.2
8447.4
8447.4
8447.62
8447.62
8447.77
8447.77
8447.74
8447.98
8447.98
8448.39
8448.38
8448.42
8449.03
8449.03
8449.8
8450.79
8451.1
8453.74
8454.63
8472.96
8470.2
8690.64
88840.7
8494.09
8450.4
8441.64
8439.17
8437.96
8437.52
8437.19
8437.09
8436.95
8436.94
8436.88
8436.9
8436.88
8436.92
8436.91
8436.97
8436.96
8437.03
8437.03
8437.1
8437.1
8437.19
8437.19
8437.28
8437.28
8437.38
8437.38
8437.49
8437.49
8437.61
8437.61
8437.74
8437.74
8437.88
8437.88
8438.03
8438.02
8438.19
8438.19
8438.36
8438.36
8438.54
8438.54
8438.75
8438.75
8438.96
8438.96
8439.18
8439.18
8439.42
8439.42
8439.74
8439.74
8439.94
8439.94
8440.18
8440.18
8440.3
8440.3
8440.43
8440.43
8440.59
8440.6
8440.74
8440.74
8440.86
8440.86
8441.04
8441.04
8441.53
8441.57
8441.7
8441.7
8441.91
8441.91
8442.14
8442.14
8442.3
8442.3
8442.27
8442.51
8442.51
8442.94
8442.94
8442.97
8443.61
8443.61
8444.4
8445.43
8445.75
8448.46
8449.38
8467.94
8465.13
8684.01
85215.4
8491.02
8445.24
8435.81
8433.09
8431.76
8431.27
8430.9
8430.78
8430.63
8430.61
8430.54
8430.56
8430.53
8430.57
8430.57
8430.62
8430.62
8430.69
8430.69
8430.76
8430.76
8430.85
8430.85
8430.95
8430.95
8431.06
8431.06
8431.17
8431.17
8431.3
8431.29
8431.43
8431.43
8431.57
8431.57
8431.73
8431.73
8431.9
8431.9
8432.08
8432.08
8432.28
8432.28
8432.49
8432.49
8432.71
8432.71
8432.95
8432.95
8433.2
8433.2
8433.54
8433.54
8433.75
8433.75
8434
8434
8434.13
8434.12
8434.27
8434.26
8434.43
8434.43
8434.59
8434.59
8434.71
8434.71
8434.91
8434.91
8435.42
8435.49
8435.6
8435.6
8435.82
8435.82
8436.06
8436.06
8436.23
8436.23
8436.2
8436.45
8436.45
8436.91
8436.9
8436.94
8437.61
8437.61
8438.42
8439.49
8439.83
8442.6
8443.56
8462.33
8459.52
8676.6
81676.5
8487.69
8439.58
8429.42
8426.41
8424.95
8424.4
8423.99
8423.84
8423.68
8423.64
8423.57
8423.58
8423.56
8423.59
8423.59
8423.64
8423.64
8423.71
8423.71
8423.79
8423.79
8423.88
8423.88
8423.98
8423.98
8424.1
8424.1
8424.22
8424.22
8424.35
8424.35
8424.49
8424.49
8424.64
8424.64
8424.81
8424.81
8424.98
8424.98
8425.18
8425.18
8425.38
8425.38
8425.61
8425.61
8425.84
8425.84
8426.09
8426.09
8426.36
8426.36
8426.73
8426.73
8426.94
8426.94
8427.21
8427.21
8427.34
8427.33
8427.48
8427.48
8427.65
8427.66
8427.83
8427.83
8427.96
8427.95
8428.16
8428.16
8428.71
8428.79
8428.9
8428.9
8429.12
8429.12
8429.38
8429.38
8429.57
8429.56
8429.53
8429.79
8429.79
8430.27
8430.27
8430.31
8431.01
8431.01
8431.84
8432.96
8433.31
8436.15
8437.16
8456.11
8453.37
8668.37
78222.2
8484.11
8433.44
8422.45
8419.13
8417.52
8416.89
8416.43
8416.26
8416.08
8416.04
8415.95
8415.96
8415.93
8415.96
8415.95
8416.01
8416.01
8416.08
8416.08
8416.16
8416.16
8416.26
8416.26
8416.37
8416.37
8416.49
8416.49
8416.61
8416.61
8416.75
8416.75
8416.9
8416.9
8417.06
8417.06
8417.24
8417.24
8417.42
8417.42
8417.63
8417.63
8417.85
8417.85
8418.09
8418.09
8418.33
8418.33
8418.6
8418.6
8418.88
8418.88
8419.28
8419.28
8419.5
8419.5
8419.78
8419.78
8419.91
8419.91
8420.07
8420.06
8420.25
8420.25
8420.45
8420.44
8420.57
8420.57
8420.79
8420.79
8421.37
8421.47
8421.57
8421.57
8421.81
8421.8
8422.08
8422.08
8422.28
8422.28
8422.24
8422.52
8422.52
8423.02
8423.02
8423.06
8423.79
8423.8
8424.65
8425.81
8426.19
8429.1
8430.15
8449.26
8446.67
8659.28
74846.8
8480.27
8426.8
8414.89
8411.23
8409.44
8408.73
8408.22
8408.02
8407.81
8407.76
8407.66
8407.67
8407.63
8407.67
8407.65
8407.71
8407.71
8407.78
8407.78
8407.87
8407.87
8407.97
8407.97
8408.09
8408.09
8408.21
8408.21
8408.35
8408.34
8408.49
8408.49
8408.65
8408.65
8408.82
8408.82
8409.01
8409
8409.2
8409.2
8409.42
8409.42
8409.65
8409.65
8409.91
8409.91
8410.17
8410.17
8410.45
8410.45
8410.75
8410.75
8411.18
8411.18
8411.41
8411.41
8411.71
8411.71
8411.85
8411.84
8412
8412
8412.19
8412.19
8412.42
8412.41
8412.55
8412.54
8412.77
8412.77
8413.39
8413.51
8413.61
8413.61
8413.85
8413.85
8414.15
8414.15
8414.36
8414.36
8414.32
8414.61
8414.61
8415.14
8415.14
8415.18
8415.95
8415.96
8416.83
8418.05
8418.44
8421.42
8422.52
8441.76
8439.41
8649.3
71540.2
8476.19
8419.67
8406.75
8402.69
8400.71
8399.9
8399.33
8399.1
8398.87
8398.81
8398.69
8398.7
8398.65
8398.69
8398.67
8398.73
8398.73
8398.8
8398.8
8398.89
8398.89
8399
8399
8399.12
8399.12
8399.25
8399.25
8399.39
8399.39
8399.55
8399.55
8399.72
8399.72
8399.9
8399.9
8400.09
8400.09
8400.31
8400.31
8400.54
8400.53
8400.78
8400.78
8401.06
8401.06
8401.33
8401.33
8401.63
8401.63
8401.95
8401.95
8402.41
8402.41
8402.65
8402.65
8402.98
8402.98
8403.11
8403.11
8403.28
8403.28
8403.48
8403.48
8403.73
8403.72
8403.86
8403.85
8404.1
8404.1
8404.75
8404.9
8405
8405
8405.25
8405.24
8405.56
8405.56
8405.79
8405.79
8405.75
8406.05
8406.05
8406.61
8406.61
8406.65
8407.47
8407.47
8408.36
8409.64
8410.05
8413.1
8414.26
8433.59
8431.59
8638.35
68287.9
8471.86
8412.04
8398
8393.51
8391.31
8390.39
8389.76
8389.49
8389.23
8389.16
8389.03
8389.02
8388.97
8389.01
8388.99
8389.04
8389.04
8389.12
8389.12
8389.21
8389.21
8389.33
8389.32
8389.45
8389.45
8389.59
8389.59
8389.74
8389.74
8389.91
8389.91
8390.08
8390.08
8390.28
8390.28
8390.49
8390.48
8390.71
8390.71
8390.96
8390.95
8391.22
8391.22
8391.51
8391.51
8391.8
8391.8
8392.12
8392.12
8392.46
8392.46
8392.96
8392.97
8393.21
8393.21
8393.56
8393.56
8393.7
8393.7
8393.88
8393.87
8394.08
8394.08
8394.36
8394.36
8394.49
8394.49
8394.75
8394.75
8395.44
8395.62
8395.72
8395.72
8395.97
8395.96
8396.31
8396.31
8396.56
8396.55
8396.51
8396.82
8396.82
8397.42
8397.42
8397.46
8398.32
8398.33
8399.24
8400.57
8401
8404.12
8405.34
8424.71
8423.21
8626.4
65096.4
8467.3
8403.91
8388.65
8383.67
8381.22
8380.19
8379.48
8379.17
8378.88
8378.79
8378.64
8378.63
8378.57
8378.6
8378.58
8378.64
8378.63
8378.71
8378.71
8378.81
8378.81
8378.93
8378.93
8379.06
8379.06
8379.21
8379.21
8379.37
8379.37
8379.54
8379.54
8379.73
8379.73
8379.94
8379.94
8380.16
8380.16
8380.4
8380.4
8380.66
8380.66
8380.94
8380.94
8381.26
8381.25
8381.57
8381.57
8381.9
8381.9
8382.26
8382.26
8382.81
8382.82
8383.08
8383.07
8383.45
8383.45
8383.59
8383.58
8383.77
8383.77
8383.99
8383.99
8384.3
8384.3
8384.44
8384.43
8384.71
8384.71
8385.44
8385.65
8385.75
8385.75
8386
8386
8386.37
8386.37
8386.64
8386.64
8386.59
8386.92
8386.92
8387.56
8387.56
8387.59
8388.5
8388.5
8389.44
8390.83
8391.27
8394.47
8395.76
8415.11
8414.26
8613.67
61971.4
8462.51
8395.27
8378.67
8373.16
8370.44
8369.27
8368.47
8368.12
8367.79
8367.68
8367.52
8367.5
8367.43
8367.46
8367.43
8367.49
8367.48
8367.56
8367.56
8367.67
8367.67
8367.79
8367.79
8367.93
8367.93
8368.09
8368.09
8368.26
8368.26
8368.44
8368.44
8368.65
8368.65
8368.86
8368.86
8369.1
8369.1
8369.36
8369.36
8369.63
8369.63
8369.93
8369.93
8370.27
8370.27
8370.6
8370.6
8370.96
8370.96
8371.34
8371.34
8371.94
8371.95
8372.22
8372.21
8372.62
8372.62
8372.76
8372.76
8372.95
8372.95
8373.18
8373.18
8373.53
8373.52
8373.66
8373.66
8373.95
8373.95
8374.73
8374.97
8375.08
8375.08
8375.34
8375.33
8375.73
8375.73
8376.02
8376.02
8375.97
8376.31
8376.31
8376.99
8376.99
8377.02
8377.99
8377.99
8378.94
8380.4
8380.85
8384.12
8385.49
8404.76
8404.72
8600.54
58918.8
8457.49
8386.14
8368.07
8361.96
8358.94
8357.62
8356.72
8356.32
8355.95
8355.82
8355.64
8355.61
8355.52
8355.55
8355.52
8355.58
8355.57
8355.65
8355.65
8355.76
8355.76
8355.89
8355.89
8356.04
8356.04
8356.21
8356.21
8356.39
8356.39
8356.58
8356.58
8356.8
8356.8
8357.03
8357.03
8357.28
8357.28
8357.56
8357.56
8357.85
8357.85
8358.17
8358.17
8358.54
8358.53
8358.88
8358.88
8359.27
8359.27
8359.68
8359.68
8360.32
8360.35
8360.62
8360.61
8361.05
8361.05
8361.19
8361.19
8361.4
8361.39
8361.64
8361.64
8362.03
8362.02
8362.16
8362.15
8362.47
8362.47
8363.29
8363.57
8363.68
8363.68
8363.94
8363.94
8364.37
8364.37
8364.68
8364.68
8364.63
8364.99
8364.99
8365.71
8365.71
8365.74
8366.75
8366.75
8367.73
8369.25
8369.72
8373.06
8374.5
8393.63
8394.6
8587.37
55943.9
8452.27
8376.49
8356.83
8350.06
8346.71
8345.23
8344.22
8343.76
8343.34
8343.19
8342.98
8342.94
8342.84
8342.87
8342.82
8342.88
8342.87
8342.96
8342.95
8343.07
8343.07
8343.21
8343.21
8343.36
8343.36
8343.54
8343.54
8343.73
8343.73
8343.94
8343.94
8344.17
8344.17
8344.42
8344.42
8344.69
8344.69
8344.98
8344.98
8345.3
8345.29
8345.64
8345.64
8346.03
8346.02
8346.4
8346.4
8346.81
8346.81
8347.25
8347.25
8347.95
8347.98
8348.26
8348.26
8348.73
8348.72
8348.87
8348.87
8349.08
8349.08
8349.34
8349.34
8349.77
8349.76
8349.9
8349.9
8350.24
8350.23
8351.1
8351.42
8351.55
8351.55
8351.81
8351.81
8352.27
8352.27
8352.6
8352.6
8352.55
8352.93
8352.92
8353.69
8353.69
8353.72
8354.79
8354.79
8355.78
8357.38
8357.86
8361.26
8362.79
8381.7
8383.89
8574.44
53051.8
8446.85
8366.34
8344.94
8337.46
8333.74
8332.06
8330.93
8330.4
8329.94
8329.76
8329.53
8329.47
8329.36
8329.38
8329.32
8329.38
8329.37
8329.46
8329.45
8329.57
8329.57
8329.72
8329.72
8329.88
8329.88
8330.07
8330.07
8330.28
8330.28
8330.5
8330.5
8330.74
8330.74
8331.01
8331.01
8331.3
8331.29
8331.61
8331.61
8331.94
8331.94
8332.31
8332.31
8332.73
8332.72
8333.12
8333.13
8333.56
8333.56
8334.04
8334.03
8334.78
8334.84
8335.12
8335.12
8335.63
8335.62
8335.76
8335.76
8335.99
8335.99
8336.27
8336.27
8336.75
8336.74
8336.87
8336.87
8337.23
8337.23
8338.14
8338.51
8338.65
8338.65
8338.91
8338.91
8339.41
8339.41
8339.77
8339.76
8339.71
8340.11
8340.1
8340.92
8340.92
8340.94
8342.07
8342.07
8343.08
8344.74
8345.24
8348.71
8350.33
8368.94
8372.57
8561.97
50247.2
8441.23
8355.69
8332.4
8324.13
8320
8318.11
8316.84
8316.24
8315.72
8315.51
8315.25
8315.18
8315.05
8315.06
8315
8315.06
8315.04
8315.13
8315.12
8315.25
8315.25
8315.4
8315.4
8315.58
8315.57
8315.78
8315.77
8315.99
8315.99
8316.23
8316.23
8316.49
8316.49
8316.77
8316.77
8317.08
8317.08
8317.41
8317.41
8317.77
8317.77
8318.16
8318.16
8318.61
8318.61
8319.04
8319.04
8319.5
8319.5
8320.01
8320.01
8320.81
8320.9
8321.18
8321.18
8321.73
8321.72
8321.86
8321.86
8322.1
8322.1
8322.39
8322.39
8322.93
8322.92
8323.05
8323.04
8323.43
8323.43
8324.39
8324.8
8324.97
8324.98
8325.23
8325.23
8325.77
8325.77
8326.15
8326.15
8326.09
8326.51
8326.5
8327.36
8327.37
8327.38
8328.57
8328.58
8329.6
8331.34
8331.85
8335.38
8337.1
8355.33
8360.64
8550.06
47534.4
8435.43
8344.53
8319.2
8310.06
8305.48
8303.35
8301.94
8301.25
8300.66
8300.41
8300.12
8300.05
8299.89
8299.9
8299.82
8299.88
8299.86
8299.95
8299.94
8300.07
8300.07
8300.23
8300.23
8300.41
8300.41
8300.63
8300.62
8300.86
8300.86
8301.11
8301.11
8301.39
8301.39
8301.69
8301.69
8302.02
8302.02
8302.37
8302.37
8302.76
8302.76
8303.18
8303.18
8303.66
8303.66
8304.11
8304.11
8304.61
8304.61
8305.16
8305.15
8306.02
8306.13
8306.41
8306.41
8307.01
8307.01
8307.14
8307.14
8307.39
8307.39
8307.7
8307.7
8308.29
8308.28
8308.41
8308.4
8308.82
8308.81
8309.83
8310.29
8310.49
8310.5
8310.74
8310.74
8311.32
8311.32
8311.73
8311.73
8311.67
8312.11
8312.1
8313.01
8313.02
8313.03
8314.28
8314.3
8315.32
8317.14
8317.66
8321.25
8323.07
8340.84
8348.07
8538.66
44917.3
8429.46
8332.88
8305.34
8295.24
8290.16
8287.78
8286.19
8285.41
8284.75
8284.46
8284.14
8284.04
8283.87
8283.86
8283.77
8283.83
8283.8
8283.89
8283.88
8284.02
8284.02
8284.18
8284.18
8284.38
8284.38
8284.6
8284.6
8284.85
8284.85
8285.12
8285.12
8285.41
8285.41
8285.73
8285.73
8286.08
8286.08
8286.46
8286.46
8286.87
8286.87
8287.32
8287.32
8287.85
8287.84
8288.33
8288.33
8288.86
8288.86
8289.44
8289.44
8290.36
8290.52
8290.8
8290.8
8291.44
8291.44
8291.57
8291.57
8291.84
8291.83
8292.16
8292.16
8292.82
8292.81
8292.93
8292.92
8293.37
8293.36
8294.44
8294.94
8295.18
8295.19
8295.42
8295.42
8296.05
8296.06
8296.49
8296.49
8296.42
8296.88
8296.88
8297.84
8297.85
8297.85
8299.18
8299.2
8300.22
8302.12
8302.65
8306.29
8308.23
8325.46
8334.86
8527.58
42399.5
8423.33
8320.73
8290.8
8279.66
8274.04
8271.36
8269.59
8268.7
8267.96
8267.62
8267.26
8267.14
8266.94
8266.93
8266.83
8266.88
8266.84
8266.93
8266.92
8267.06
8267.06
8267.23
8267.23
8267.44
8267.44
8267.68
8267.67
8267.94
8267.94
8268.23
8268.22
8268.54
8268.54
8268.88
8268.88
8269.26
8269.26
8269.66
8269.66
8270.1
8270.1
8270.58
8270.58
8271.15
8271.14
8271.66
8271.66
8272.22
8272.22
8272.85
8272.85
8273.84
8274.03
8274.32
8274.32
8275
8275.02
8275.13
8275.13
8275.41
8275.41
8275.75
8275.75
8276.48
8276.48
8276.58
8276.58
8277.06
8277.06
8278.18
8278.74
8279.02
8279.04
8279.25
8279.25
8279.94
8279.94
8280.41
8280.4
8280.33
8280.82
8280.82
8281.83
8281.84
8281.84
8283.23
8283.26
8284.29
8286.26
8286.8
8290.49
8292.55
8309.17
8320.98
8516.43
39983.9
8417.06
8308.09
8275.59
8263.31
8257.08
8254.08
8252.1
8251.09
8250.26
8249.87
8249.46
8249.32
8249.1
8249.07
8248.96
8249
8248.96
8249.05
8249.04
8249.18
8249.18
8249.36
8249.36
8249.58
8249.57
8249.83
8249.82
8250.11
8250.1
8250.41
8250.41
8250.74
8250.74
8251.11
8251.11
8251.51
8251.51
8251.94
8251.94
8252.41
8252.41
8252.93
8252.93
8253.53
8253.53
8254.08
8254.08
8254.68
8254.68
8255.35
8255.35
8256.41
8256.64
8256.94
8256.94
8257.67
8257.7
8257.8
8257.8
8258.1
8258.09
8258.46
8258.45
8259.26
8259.27
8259.36
8259.35
8259.87
8259.86
8261.04
8261.65
8261.98
8262.02
8262.21
8262.21
8262.96
8262.96
8263.46
8263.45
8263.38
8263.89
8263.89
8264.95
8264.96
8264.96
8266.42
8266.46
8267.48
8269.54
8270.08
8273.81
8276.01
8291.94
8306.4
8504.58
37673.2
8410.66
8294.97
8259.69
8246.17
8239.28
8235.92
8233.71
8232.57
8231.64
8231.19
8230.73
8230.56
8230.32
8230.27
8230.14
8230.18
8230.12
8230.22
8230.2
8230.34
8230.34
8230.53
8230.53
8230.76
8230.76
8231.02
8231.02
8231.32
8231.31
8231.65
8231.64
8232
8232
8232.39
8232.39
8232.81
8232.81
8233.28
8233.28
8233.78
8233.78
8234.33
8234.33
8234.98
8234.98
8235.56
8235.56
8236.21
8236.21
8236.93
8236.92
8238.05
8238.34
8238.63
8238.64
8239.42
8239.47
8239.55
8239.55
8239.86
8239.86
8240.24
8240.24
8241.12
8241.15
8241.22
8241.21
8241.77
8241.76
8242.99
8243.66
8244.04
8244.11
8244.27
8244.27
8245.08
8245.08
8245.62
8245.6
8245.53
8246.07
8246.06
8247.19
8247.2
8247.19
8248.72
8248.78
8249.78
8251.92
8252.47
8256.24
8258.58
8273.76
8291.08
8491.76
35469.5
8404.15
8281.37
8243.12
8228.24
8220.62
8216.87
8214.4
8213.11
8212.07
8211.56
8211.04
8210.84
8210.56
8210.5
8210.34
8210.38
8210.31
8210.4
8210.38
8210.53
8210.53
8210.72
8210.72
8210.96
8210.96
8211.24
8211.24
8211.56
8211.55
8211.9
8211.89
8212.28
8212.28
8212.69
8212.69
8213.15
8213.14
8213.64
8213.64
8214.18
8214.18
8214.77
8214.76
8215.47
8215.47
8216.09
8216.09
8216.77
8216.78
8217.54
8217.54
8218.74
8219.08
8219.38
8219.4
8220.22
8220.3
8220.36
8220.35
8220.69
8220.68
8221.09
8221.09
8222.05
8222.09
8222.14
8222.13
8222.73
8222.73
8224.01
8224.74
8225.17
8225.28
8225.4
8225.41
8226.29
8226.29
8226.86
8226.84
8226.76
8227.33
8227.33
8228.51
8228.52
8228.51
8230.11
8230.2
8231.17
8233.4
8233.95
8237.75
8240.24
8254.61
8274.99
8477.91
33374.5
8397.53
8267.31
8225.86
8209.51
8201.09
8196.9
8194.15
8192.69
8191.52
8190.94
8190.36
8190.12
8189.81
8189.73
8189.55
8189.58
8189.5
8189.59
8189.56
8189.71
8189.7
8189.91
8189.91
8190.16
8190.15
8190.45
8190.45
8190.78
8190.78
8191.15
8191.15
8191.55
8191.55
8192
8191.99
8192.48
8192.48
8193.01
8193
8193.58
8193.58
8194.21
8194.21
8194.97
8194.97
8195.63
8195.62
8196.35
8196.36
8197.18
8197.17
8198.44
8198.85
8199.16
8199.19
8200.05
8200.15
8200.2
8200.19
8200.54
8200.54
8200.97
8200.96
8202.01
8202.07
8202.11
8202.09
8202.74
8202.74
8204.08
8204.87
8205.35
8205.5
8205.59
8205.6
8206.56
8206.57
8207.16
8207.13
8207.05
8207.66
8207.65
8208.89
8208.9
8208.89
8210.57
8210.68
8211.62
8213.93
8214.49
8218.31
8220.96
8234.49
8258.08
8463
31389.6
8390.84
8252.79
8207.91
8189.96
8180.67
8176
8172.93
8171.28
8169.98
8169.31
8168.66
8168.39
8168.04
8167.94
8167.73
8167.75
8167.65
8167.74
8167.7
8167.85
8167.85
8168.06
8168.06
8168.32
8168.32
8168.63
8168.63
8168.98
8168.98
8169.37
8169.36
8169.79
8169.79
8170.27
8170.26
8170.78
8170.78
8171.35
8171.34
8171.96
8171.95
8172.64
8172.63
8173.45
8173.45
8174.15
8174.14
8174.92
8174.93
8175.8
8175.8
8177.14
8177.62
8177.92
8177.99
8178.88
8179.01
8179.04
8179.04
8179.4
8179.4
8179.85
8179.85
8180.99
8181.07
8181.08
8181.07
8181.77
8181.76
8183.15
8184.01
8184.56
8184.75
8184.81
8184.81
8185.87
8185.87
8186.49
8186.46
8186.38
8187.02
8187.02
8188.31
8188.32
8188.31
8190.06
8190.22
8191.11
8193.51
8194.07
8197.9
8200.72
8213.38
8240.29
8446.98
29515.8
8384.07
8237.83
8189.28
8169.59
8159.36
8154.15
8150.74
8148.88
8147.42
8146.66
8145.93
8145.61
8145.22
8145.1
8144.87
8144.87
8144.75
8144.83
8144.79
8144.94
8144.93
8145.15
8145.14
8145.42
8145.41
8145.75
8145.74
8146.12
8146.11
8146.53
8146.52
8146.98
8146.98
8147.48
8147.48
8148.03
8148.03
8148.63
8148.63
8149.28
8149.28
8150.01
8150
8150.89
8150.88
8151.63
8151.62
8152.45
8152.45
8153.39
8153.39
8154.81
8155.37
8155.66
8155.77
8156.68
8156.85
8156.86
8156.86
8157.24
8157.24
8157.72
8157.72
8158.94
8159.04
8159.04
8159.03
8159.78
8159.77
8161.22
8162.15
8162.76
8162.99
8163.03
8163.03
8164.17
8164.2
8164.83
8164.8
8164.71
8165.4
8165.39
8166.74
8166.74
8166.74
8168.57
8168.77
8169.6
8172.09
8172.65
8176.5
8179.5
8191.28
8221.57
8429.81
27753.7
8377.26
8222.44
8169.97
8148.4
8137.12
8131.33
8127.54
8125.45
8123.82
8122.95
8122.14
8121.77
8121.33
8121.18
8120.92
8120.9
8120.77
8120.84
8120.78
8120.93
8120.92
8121.15
8121.14
8121.43
8121.42
8121.77
8121.76
8122.16
8122.16
8122.6
8122.59
8123.08
8123.08
8123.61
8123.61
8124.2
8124.19
8124.83
8124.83
8125.53
8125.52
8126.3
8126.29
8127.25
8127.25
8128.04
8128.03
8128.91
8128.92
8129.91
8129.91
8131.41
8132.05
8132.34
8132.5
8133.43
8133.63
8133.64
8133.64
8134.04
8134.03
8134.54
8134.54
8135.85
8135.97
8135.97
8135.95
8136.77
8136.75
8138.26
8139.25
8139.93
8140.21
8140.22
8140.23
8141.46
8141.51
8142.15
8142.12
8142.03
8142.77
8142.75
8144.16
8144.16
8144.16
8146.06
8146.32
8147.07
8149.66
8150.21
8154.07
8157.27
8168.15
8201.86
8411.44
26103.9
8370.41
8206.64
8149.99
8126.38
8113.97
8107.53
8103.32
8100.97
8099.15
8098.17
8097.26
8096.83
8096.33
8096.16
8095.87
8095.83
8095.67
8095.73
8095.66
8095.81
8095.8
8096.03
8096.02
8096.32
8096.31
8096.68
8096.67
8097.09
8097.08
8097.55
8097.54
8098.06
8098.06
8098.62
8098.62
8099.25
8099.24
8099.92
8099.92
8100.67
8100.66
8101.49
8101.48
8102.52
8102.52
8103.35
8103.34
8104.27
8104.28
8105.34
8105.34
8106.92
8107.65
8107.93
8108.15
8109.09
8109.34
8109.34
8109.34
8109.76
8109.75
8110.29
8110.28
8111.69
8111.82
8111.84
8111.8
8112.69
8112.67
8114.23
8115.29
8116.04
8116.37
8116.38
8116.37
8117.69
8117.79
8118.43
8118.4
8118.3
8119.09
8119.07
8120.54
8120.55
8120.55
8122.52
8122.83
8123.51
8126.18
8126.74
8130.58
8134
8143.99
8181.11
8391.8
24566.7
8363.55
8190.44
8129.33
8103.53
8089.88
8082.73
8078.06
8075.42
8073.4
8072.28
8071.26
8070.77
8070.21
8070.01
8069.68
8069.62
8069.43
8069.49
8069.4
8069.55
8069.53
8069.76
8069.76
8070.06
8070.05
8070.44
8070.43
8070.87
8070.86
8071.36
8071.35
8071.89
8071.89
8072.49
8072.49
8073.15
8073.15
8073.87
8073.87
8074.67
8074.66
8075.54
8075.54
8076.65
8076.65
8077.53
8077.52
8078.51
8078.52
8079.65
8079.65
8081.31
8082.14
8082.41
8082.71
8083.64
8083.94
8083.95
8083.94
8084.37
8084.37
8084.93
8084.93
8086.42
8086.59
8086.61
8086.56
8087.52
8087.5
8089.1
8090.24
8091.06
8091.45
8091.45
8091.43
8092.85
8093.01
8093.63
8093.61
8093.51
8094.35
8094.33
8095.85
8095.87
8095.86
8097.92
8098.29
8098.87
8101.64
8102.19
8106.03
8109.66
8118.76
8159.24
8370.85
23142.1
8356.7
8173.87
8108.02
8079.84
8064.85
8056.93
8051.75
8048.79
8046.53
8045.27
8044.13
8043.56
8042.94
8042.7
8042.33
8042.25
8042.03
8042.07
8041.97
8042.11
8042.09
8042.32
8042.32
8042.62
8042.62
8043.02
8043.01
8043.47
8043.46
8043.99
8043.97
8044.55
8044.55
8045.19
8045.19
8045.89
8045.89
8046.65
8046.66
8047.5
8047.49
8048.43
8048.43
8049.64
8049.63
8050.55
8050.55
8051.6
8051.61
8052.81
8052.81
8054.55
8055.49
8055.74
8056.13
8057.05
8057.42
8057.42
8057.41
8057.85
8057.85
8058.45
8058.45
8060.03
8060.23
8060.25
8060.2
8061.23
8061.21
8062.87
8064.07
8064.97
8065.42
8065.43
8065.39
8066.9
8067.14
8067.74
8067.72
8067.62
8068.52
8068.49
8070.07
8070.1
8070.08
8072.23
8072.65
8073.15
8076.01
8076.55
8080.37
8084.24
8092.44
8136.21
8348.52
21826.7
8349.87
8156.94
8086.06
8055.32
8038.88
8030.1
8024.36
8021.06
8018.54
8017.11
8015.84
8015.19
8014.49
8014.2
8013.79
8013.69
8013.44
8013.46
8013.33
8013.48
8013.44
8013.67
8013.67
8013.98
8013.98
8014.4
8014.38
8014.87
8014.86
8015.41
8015.4
8016.01
8016.01
8016.68
8016.68
8017.42
8017.42
8018.23
8018.24
8019.13
8019.13
8020.12
8020.13
8021.43
8021.43
8022.4
8022.39
8023.51
8023.51
8024.79
8024.79
8026.61
8027.67
8027.9
8028.39
8029.28
8029.73
8029.74
8029.72
8030.18
8030.18
8030.82
8030.81
8032.49
8032.72
8032.74
8032.69
8033.8
8033.78
8035.48
8036.76
8037.74
8038.26
8038.27
8038.22
8039.83
8040.16
8040.73
8040.71
8040.61
8041.57
8041.55
8043.17
8043.21
8043.2
8045.42
8045.9
8046.31
8049.25
8049.79
8053.59
8057.71
8065.01
8111.93
8324.76
20614.7
8343.09
8139.68
8063.46
8029.97
8011.95
8002.24
7995.89
7992.2
7989.4
7987.79
7986.37
7985.62
7984.84
7984.5
7984.04
7983.91
7983.63
7983.63
7983.48
7983.61
7983.57
7983.8
7983.8
7984.11
7984.11
7984.54
7984.53
7985.03
7985.03
7985.61
7985.59
7986.23
7986.24
7986.95
7986.94
7987.73
7987.73
7988.59
7988.6
7989.55
7989.54
7990.6
7990.6
7992.01
7992.01
7993.03
7993.02