/*--------------------------------*- C++ -*----------------------------------*\
| =========                 |                                                 |
| \\      /  F ield         | OpenFOAM: The Open Source CFD Toolbox           |
|  \\    /   O peration     | Version:  v2012                                 |
|   \\  /    A nd           | Website:  www.openfoam.com                      |
|    \\/     M anipulation  |                                                 |
\*---------------------------------------------------------------------------*/
FoamFile
{
    version     2.0;
    format      ascii;
    class       volVectorField;
    location    "2.5";
    object      wallShearStress;
}
// * * * * * * * * * * * * * * * * * * * * * * * * * * * * * * * * * * * * * //

dimensions      [0 2 -2 0 0 0 0];


internalField   uniform (0 0 0);

boundaryField
{
    inlet
    {
        type            calculated;
        value           uniform (0 0 0);
    }
    outlet
    {
        type            calculated;
        value           uniform (0 0 0);
    }
    topWall
    {
        type            calculated;
        value           nonuniform List<vector> 
545
(
(3.48112e-09 -2.41882e-09 0)
(3.50465e-09 -6.91105e-09 0)
(3.43541e-09 -1.14519e-08 0)
(3.40975e-09 -1.58359e-08 0)
(3.39309e-09 -2.00108e-08 0)
(3.37726e-09 -2.40343e-08 0)
(3.36033e-09 -2.79452e-08 0)
(3.34193e-09 -3.17441e-08 0)
(3.32208e-09 -3.54221e-08 0)
(3.3009e-09 -3.89782e-08 0)
(3.27852e-09 -4.24165e-08 0)
(3.25507e-09 -4.5741e-08 0)
(3.23065e-09 -4.89546e-08 0)
(3.20538e-09 -5.20595e-08 0)
(3.17938e-09 -5.50582e-08 0)
(3.15272e-09 -5.79537e-08 0)
(3.12551e-09 -6.07488e-08 0)
(3.09782e-09 -6.34463e-08 0)
(3.06974e-09 -6.60492e-08 0)
(3.04134e-09 -6.85602e-08 0)
(3.01267e-09 -7.09821e-08 0)
(2.98381e-09 -7.33176e-08 0)
(2.9548e-09 -7.55697e-08 0)
(2.9257e-09 -7.77408e-08 0)
(2.89654e-09 -7.98338e-08 0)
(2.86738e-09 -8.18511e-08 0)
(2.83824e-09 -8.37953e-08 0)
(2.80917e-09 -8.5669e-08 0)
(2.78018e-09 -8.74744e-08 0)
(2.75131e-09 -8.92142e-08 0)
(2.72257e-09 -9.08901e-08 0)
(2.694e-09 -9.25051e-08 0)
(2.6656e-09 -9.40606e-08 0)
(2.6374e-09 -9.55594e-08 0)
(2.60939e-09 -9.7003e-08 0)
(2.58161e-09 -9.83937e-08 0)
(2.55404e-09 -9.97331e-08 0)
(2.52671e-09 -1.01023e-07 0)
(2.49961e-09 -1.02266e-07 0)
(2.47276e-09 -1.03463e-07 0)
(2.44615e-09 -1.04616e-07 0)
(2.41978e-09 -1.05726e-07 0)
(2.39366e-09 -1.06796e-07 0)
(2.36778e-09 -1.07826e-07 0)
(2.34215e-09 -1.08818e-07 0)
(2.31675e-09 -1.09773e-07 0)
(2.29159e-09 -1.10693e-07 0)
(2.26666e-09 -1.11579e-07 0)
(2.24195e-09 -1.12432e-07 0)
(2.21746e-09 -1.13254e-07 0)
(2.19319e-09 -1.14045e-07 0)
(2.16911e-09 -1.14807e-07 0)
(2.14524e-09 -1.15541e-07 0)
(2.12155e-09 -1.16247e-07 0)
(2.09804e-09 -1.16928e-07 0)
(2.0747e-09 -1.17583e-07 0)
(2.05153e-09 -1.18213e-07 0)
(2.0285e-09 -1.1882e-07 0)
(2.00562e-09 -1.19405e-07 0)
(1.98286e-09 -1.19967e-07 0)
(1.96023e-09 -1.20509e-07 0)
(1.93771e-09 -1.2103e-07 0)
(1.91528e-09 -1.21531e-07 0)
(1.89293e-09 -1.22014e-07 0)
(1.87067e-09 -1.22478e-07 0)
(1.84846e-09 -1.22925e-07 0)
(1.8263e-09 -1.23355e-07 0)
(1.80417e-09 -1.23768e-07 0)
(1.78214e-09 -1.24167e-07 0)
(1.75977e-09 -1.24545e-07 0)
(1.73892e-09 -1.24931e-07 0)
(1.71151e-09 -1.25251e-07 0)
(1.68642e-09 -1.2558e-07 0)
(1.67245e-09 -1.25951e-07 0)
(1.65878e-09 -1.26251e-07 0)
(1.64522e-09 -1.26548e-07 0)
(1.63168e-09 -1.26856e-07 0)
(1.61817e-09 -1.27166e-07 0)
(1.60467e-09 -1.27468e-07 0)
(1.59121e-09 -1.27764e-07 0)
(1.57775e-09 -1.28056e-07 0)
(1.56432e-09 -1.28346e-07 0)
(1.55091e-09 -1.28631e-07 0)
(1.53752e-09 -1.28913e-07 0)
(1.52415e-09 -1.29191e-07 0)
(1.51081e-09 -1.29465e-07 0)
(1.49748e-09 -1.29736e-07 0)
(1.48418e-09 -1.30003e-07 0)
(1.4709e-09 -1.30266e-07 0)
(1.45763e-09 -1.30526e-07 0)
(1.44442e-09 -1.30783e-07 0)
(1.43108e-09 -1.31032e-07 0)
(1.41843e-09 -1.31294e-07 0)
(1.40293e-09 -1.31507e-07 0)
(1.39967e-09 -1.31906e-07 0)
(1.34448e-09 -1.31928e-07 0)
(1.27277e-09 -1.32007e-07 0)
(1.25712e-09 -1.32511e-07 0)
(1.24727e-09 -1.32647e-07 0)
(1.23884e-09 -1.32732e-07 0)
(1.23073e-09 -1.32889e-07 0)
(1.22267e-09 -1.33081e-07 0)
(1.21461e-09 -1.33266e-07 0)
(1.20653e-09 -1.33436e-07 0)
(1.19843e-09 -1.33603e-07 0)
(1.19031e-09 -1.33773e-07 0)
(1.18218e-09 -1.33943e-07 0)
(1.17402e-09 -1.34112e-07 0)
(1.16584e-09 -1.3428e-07 0)
(1.15765e-09 -1.34447e-07 0)
(1.14943e-09 -1.34613e-07 0)
(1.14119e-09 -1.34779e-07 0)
(1.13294e-09 -1.34944e-07 0)
(1.12466e-09 -1.35107e-07 0)
(1.11637e-09 -1.35271e-07 0)
(1.10805e-09 -1.35433e-07 0)
(1.09972e-09 -1.35594e-07 0)
(1.09136e-09 -1.35755e-07 0)
(1.08299e-09 -1.35915e-07 0)
(1.0746e-09 -1.36074e-07 0)
(1.06619e-09 -1.36232e-07 0)
(1.05776e-09 -1.36389e-07 0)
(1.04931e-09 -1.36545e-07 0)
(1.04084e-09 -1.367e-07 0)
(1.03236e-09 -1.36855e-07 0)
(1.02385e-09 -1.37008e-07 0)
(1.01533e-09 -1.37161e-07 0)
(1.00679e-09 -1.37313e-07 0)
(9.98228e-10 -1.37464e-07 0)
(9.89651e-10 -1.37613e-07 0)
(9.81055e-10 -1.37762e-07 0)
(9.72442e-10 -1.3791e-07 0)
(9.63811e-10 -1.38057e-07 0)
(9.55163e-10 -1.38203e-07 0)
(9.46496e-10 -1.38348e-07 0)
(9.37813e-10 -1.38492e-07 0)
(9.29111e-10 -1.38635e-07 0)
(9.20394e-10 -1.38777e-07 0)
(9.11658e-10 -1.38918e-07 0)
(9.02906e-10 -1.39059e-07 0)
(8.94137e-10 -1.39197e-07 0)
(8.85351e-10 -1.39335e-07 0)
(8.76549e-10 -1.39472e-07 0)
(8.6773e-10 -1.39608e-07 0)
(8.58895e-10 -1.39743e-07 0)
(8.50044e-10 -1.39877e-07 0)
(8.41176e-10 -1.40009e-07 0)
(8.32293e-10 -1.40141e-07 0)
(8.23393e-10 -1.40271e-07 0)
(8.14479e-10 -1.40401e-07 0)
(8.05548e-10 -1.40529e-07 0)
(7.96603e-10 -1.40656e-07 0)
(7.87642e-10 -1.40782e-07 0)
(7.78666e-10 -1.40907e-07 0)
(7.69675e-10 -1.41031e-07 0)
(7.6067e-10 -1.41153e-07 0)
(7.51649e-10 -1.41275e-07 0)
(7.42615e-10 -1.41395e-07 0)
(7.33566e-10 -1.41514e-07 0)
(7.24503e-10 -1.41632e-07 0)
(7.15425e-10 -1.41749e-07 0)
(7.06335e-10 -1.41864e-07 0)
(6.9723e-10 -1.41978e-07 0)
(6.88113e-10 -1.42091e-07 0)
(6.78981e-10 -1.42203e-07 0)
(6.69838e-10 -1.42314e-07 0)
(6.60679e-10 -1.42423e-07 0)
(6.51511e-10 -1.42531e-07 0)
(6.42327e-10 -1.42638e-07 0)
(6.33133e-10 -1.42744e-07 0)
(6.23925e-10 -1.42848e-07 0)
(6.14707e-10 -1.42951e-07 0)
(6.05475e-10 -1.43052e-07 0)
(5.96234e-10 -1.43153e-07 0)
(5.86979e-10 -1.43252e-07 0)
(5.77715e-10 -1.4335e-07 0)
(5.68438e-10 -1.43446e-07 0)
(5.59152e-10 -1.43542e-07 0)
(5.49854e-10 -1.43635e-07 0)
(5.40547e-10 -1.43728e-07 0)
(5.31229e-10 -1.43819e-07 0)
(5.21901e-10 -1.43909e-07 0)
(5.12564e-10 -1.43998e-07 0)
(5.03217e-10 -1.44085e-07 0)
(4.93861e-10 -1.44171e-07 0)
(4.84496e-10 -1.44255e-07 0)
(4.75122e-10 -1.44338e-07 0)
(4.65739e-10 -1.4442e-07 0)
(4.56348e-10 -1.445e-07 0)
(4.46948e-10 -1.44579e-07 0)
(4.37541e-10 -1.44656e-07 0)
(4.28126e-10 -1.44732e-07 0)
(4.18703e-10 -1.44807e-07 0)
(4.09273e-10 -1.4488e-07 0)
(3.99836e-10 -1.44952e-07 0)
(3.90392e-10 -1.45022e-07 0)
(3.80941e-10 -1.4509e-07 0)
(3.71484e-10 -1.45157e-07 0)
(3.6202e-10 -1.45223e-07 0)
(3.52551e-10 -1.45287e-07 0)
(3.43075e-10 -1.45349e-07 0)
(3.33595e-10 -1.4541e-07 0)
(3.24109e-10 -1.45469e-07 0)
(3.14618e-10 -1.45527e-07 0)
(3.05122e-10 -1.45583e-07 0)
(2.95621e-10 -1.45637e-07 0)
(2.86117e-10 -1.4569e-07 0)
(2.76608e-10 -1.4574e-07 0)
(2.67095e-10 -1.45789e-07 0)
(2.57579e-10 -1.45837e-07 0)
(2.4806e-10 -1.45882e-07 0)
(2.38538e-10 -1.45926e-07 0)
(2.29014e-10 -1.45968e-07 0)
(2.19487e-10 -1.46008e-07 0)
(2.09958e-10 -1.46046e-07 0)
(2.00427e-10 -1.46082e-07 0)
(1.90895e-10 -1.46116e-07 0)
(1.81363e-10 -1.46149e-07 0)
(1.71829e-10 -1.46179e-07 0)
(1.62295e-10 -1.46208e-07 0)
(1.52761e-10 -1.46234e-07 0)
(1.43228e-10 -1.46259e-07 0)
(1.33694e-10 -1.46282e-07 0)
(1.24163e-10 -1.46303e-07 0)
(1.14632e-10 -1.46321e-07 0)
(1.05104e-10 -1.46338e-07 0)
(9.5577e-11 -1.46353e-07 0)
(8.60531e-11 -1.46366e-07 0)
(7.65316e-11 -1.46377e-07 0)
(6.70136e-11 -1.46387e-07 0)
(5.74989e-11 -1.46394e-07 0)
(4.79882e-11 -1.46399e-07 0)
(3.84816e-11 -1.46402e-07 0)
(2.89795e-11 -1.46404e-07 0)
(1.94824e-11 -1.46403e-07 0)
(9.99055e-12 -1.46401e-07 0)
(5.04243e-13 -1.46397e-07 0)
(-8.9761e-12 -1.46391e-07 0)
(-1.84502e-11 -1.46383e-07 0)
(-2.79177e-11 -1.46373e-07 0)
(-3.73783e-11 -1.46361e-07 0)
(-4.68316e-11 -1.46347e-07 0)
(-5.62772e-11 -1.46332e-07 0)
(-6.5715e-11 -1.46315e-07 0)
(-7.51443e-11 -1.46295e-07 0)
(-8.45652e-11 -1.46274e-07 0)
(-9.3977e-11 -1.46251e-07 0)
(-1.0338e-10 -1.46226e-07 0)
(-1.12772e-10 -1.46199e-07 0)
(-1.22156e-10 -1.46171e-07 0)
(-1.31528e-10 -1.4614e-07 0)
(-1.4089e-10 -1.46108e-07 0)
(-1.50241e-10 -1.46074e-07 0)
(-1.59581e-10 -1.46038e-07 0)
(-1.68909e-10 -1.45999e-07 0)
(-1.78226e-10 -1.4596e-07 0)
(-1.87529e-10 -1.45918e-07 0)
(-1.9682e-10 -1.45874e-07 0)
(-2.06098e-10 -1.45828e-07 0)
(-2.15363e-10 -1.45781e-07 0)
(-2.24613e-10 -1.45731e-07 0)
(-2.33849e-10 -1.4568e-07 0)
(-2.43074e-10 -1.45626e-07 0)
(-2.52267e-10 -1.45571e-07 0)
(-2.61521e-10 -1.45511e-07 0)
(-2.70433e-10 -1.45462e-07 0)
(-2.80717e-10 -1.45371e-07 0)
(-2.85093e-10 -1.45452e-07 0)
(-3.1449e-10 -1.45194e-07 0)
(-3.53751e-10 -1.44997e-07 0)
(-3.65353e-10 -1.45218e-07 0)
(-3.71059e-10 -1.45126e-07 0)
(-3.75428e-10 -1.4497e-07 0)
(-3.7956e-10 -1.44872e-07 0)
(-3.8372e-10 -1.44808e-07 0)
(-3.87971e-10 -1.4474e-07 0)
(-3.92323e-10 -1.44658e-07 0)
(-3.96776e-10 -1.44571e-07 0)
(-4.01331e-10 -1.44485e-07 0)
(-4.05986e-10 -1.44399e-07 0)
(-4.10743e-10 -1.44311e-07 0)
(-4.15599e-10 -1.4422e-07 0)
(-4.20553e-10 -1.44127e-07 0)
(-4.25604e-10 -1.44033e-07 0)
(-4.30751e-10 -1.43936e-07 0)
(-4.35994e-10 -1.43837e-07 0)
(-4.4133e-10 -1.43737e-07 0)
(-4.46759e-10 -1.43633e-07 0)
(-4.5228e-10 -1.43528e-07 0)
(-4.57891e-10 -1.4342e-07 0)
(-4.63591e-10 -1.4331e-07 0)
(-4.69379e-10 -1.43197e-07 0)
(-4.75254e-10 -1.43082e-07 0)
(-4.81214e-10 -1.42964e-07 0)
(-4.87257e-10 -1.42843e-07 0)
(-4.93384e-10 -1.4272e-07 0)
(-4.99591e-10 -1.42594e-07 0)
(-5.0588e-10 -1.42465e-07 0)
(-5.12244e-10 -1.42333e-07 0)
(-5.18688e-10 -1.42198e-07 0)
(-5.25205e-10 -1.4206e-07 0)
(-5.31797e-10 -1.41919e-07 0)
(-5.38459e-10 -1.41774e-07 0)
(-5.45194e-10 -1.41626e-07 0)
(-5.51995e-10 -1.41475e-07 0)
(-5.58865e-10 -1.4132e-07 0)
(-5.65798e-10 -1.41162e-07 0)
(-5.72796e-10 -1.41e-07 0)
(-5.79853e-10 -1.40834e-07 0)
(-5.86972e-10 -1.40665e-07 0)
(-5.94146e-10 -1.40492e-07 0)
(-6.01377e-10 -1.40314e-07 0)
(-6.08661e-10 -1.40133e-07 0)
(-6.15996e-10 -1.39948e-07 0)
(-6.2338e-10 -1.39758e-07 0)
(-6.30811e-10 -1.39564e-07 0)
(-6.38286e-10 -1.39366e-07 0)
(-6.45805e-10 -1.39163e-07 0)
(-6.53362e-10 -1.38956e-07 0)
(-6.60958e-10 -1.38744e-07 0)
(-6.68589e-10 -1.38527e-07 0)
(-6.76253e-10 -1.38306e-07 0)
(-6.83946e-10 -1.38079e-07 0)
(-6.91667e-10 -1.37848e-07 0)
(-6.99413e-10 -1.37612e-07 0)
(-7.07181e-10 -1.37371e-07 0)
(-7.14967e-10 -1.37124e-07 0)
(-7.22772e-10 -1.36872e-07 0)
(-7.30587e-10 -1.36614e-07 0)
(-7.38415e-10 -1.36351e-07 0)
(-7.46248e-10 -1.36082e-07 0)
(-7.54089e-10 -1.35808e-07 0)
(-7.61926e-10 -1.35527e-07 0)
(-7.69766e-10 -1.35241e-07 0)
(-7.77594e-10 -1.34948e-07 0)
(-7.8542e-10 -1.34651e-07 0)
(-7.93227e-10 -1.34345e-07 0)
(-8.01025e-10 -1.34035e-07 0)
(-8.08796e-10 -1.33717e-07 0)
(-8.16553e-10 -1.33393e-07 0)
(-8.24274e-10 -1.33062e-07 0)
(-8.31974e-10 -1.32725e-07 0)
(-8.39632e-10 -1.3238e-07 0)
(-8.4726e-10 -1.3203e-07 0)
(-8.5484e-10 -1.31671e-07 0)
(-8.62381e-10 -1.31307e-07 0)
(-8.69868e-10 -1.30934e-07 0)
(-8.77305e-10 -1.30555e-07 0)
(-8.84684e-10 -1.30169e-07 0)
(-8.92002e-10 -1.29775e-07 0)
(-8.99256e-10 -1.29374e-07 0)
(-9.06437e-10 -1.28964e-07 0)
(-9.13548e-10 -1.28548e-07 0)
(-9.20576e-10 -1.28123e-07 0)
(-9.27526e-10 -1.27691e-07 0)
(-9.34384e-10 -1.27251e-07 0)
(-9.41154e-10 -1.26803e-07 0)
(-9.47823e-10 -1.26346e-07 0)
(-9.54395e-10 -1.25882e-07 0)
(-9.60858e-10 -1.25409e-07 0)
(-9.67214e-10 -1.24928e-07 0)
(-9.73453e-10 -1.24438e-07 0)
(-9.79575e-10 -1.2394e-07 0)
(-9.85572e-10 -1.23433e-07 0)
(-9.91442e-10 -1.22918e-07 0)
(-9.97178e-10 -1.22394e-07 0)
(-1.00278e-09 -1.21862e-07 0)
(-1.00823e-09 -1.21321e-07 0)
(-1.01355e-09 -1.20771e-07 0)
(-1.01871e-09 -1.20213e-07 0)
(-1.02371e-09 -1.19646e-07 0)
(-1.02855e-09 -1.19069e-07 0)
(-1.03324e-09 -1.18484e-07 0)
(-1.03774e-09 -1.1789e-07 0)
(-1.04208e-09 -1.17287e-07 0)
(-1.04623e-09 -1.16675e-07 0)
(-1.05021e-09 -1.16054e-07 0)
(-1.05398e-09 -1.15424e-07 0)
(-1.05758e-09 -1.14785e-07 0)
(-1.06097e-09 -1.14136e-07 0)
(-1.06417e-09 -1.1348e-07 0)
(-1.06715e-09 -1.12813e-07 0)
(-1.06993e-09 -1.12138e-07 0)
(-1.07249e-09 -1.11453e-07 0)
(-1.07484e-09 -1.1076e-07 0)
(-1.07696e-09 -1.10057e-07 0)
(-1.07887e-09 -1.09346e-07 0)
(-1.08054e-09 -1.08627e-07 0)
(-1.08198e-09 -1.07898e-07 0)
(-1.08319e-09 -1.07161e-07 0)
(-1.08415e-09 -1.06414e-07 0)
(-1.08489e-09 -1.0566e-07 0)
(-1.08536e-09 -1.04896e-07 0)
(-1.0856e-09 -1.04125e-07 0)
(-1.08557e-09 -1.03344e-07 0)
(-1.0853e-09 -1.02556e-07 0)
(-1.08478e-09 -1.01759e-07 0)
(-1.08399e-09 -1.00954e-07 0)
(-1.08294e-09 -1.00141e-07 0)
(-1.08162e-09 -9.93192e-08 0)
(-1.08004e-09 -9.84897e-08 0)
(-1.07815e-09 -9.7649e-08 0)
(-1.07606e-09 -9.68059e-08 0)
(-1.07364e-09 -9.59509e-08 0)
(-1.07098e-09 -9.50906e-08 0)
(-1.06806e-09 -9.42239e-08 0)
(-1.06487e-09 -9.33514e-08 0)
(-1.06142e-09 -9.24716e-08 0)
(-1.05769e-09 -9.1586e-08 0)
(-1.0537e-09 -9.06933e-08 0)
(-1.04944e-09 -8.97953e-08 0)
(-1.04491e-09 -8.8891e-08 0)
(-1.04011e-09 -8.7981e-08 0)
(-1.03505e-09 -8.70657e-08 0)
(-1.02971e-09 -8.61443e-08 0)
(-1.02413e-09 -8.52191e-08 0)
(-1.01826e-09 -8.42877e-08 0)
(-1.01215e-09 -8.3352e-08 0)
(-1.00576e-09 -8.24113e-08 0)
(-9.99123e-10 -8.14663e-08 0)
(-9.92209e-10 -8.05156e-08 0)
(-9.85067e-10 -7.95631e-08 0)
(-9.77692e-10 -7.86081e-08 0)
(-9.70086e-10 -7.7651e-08 0)
(-9.62238e-10 -7.66907e-08 0)
(-9.54166e-10 -7.57286e-08 0)
(-9.45857e-10 -7.47638e-08 0)
(-9.37334e-10 -7.37977e-08 0)
(-9.28592e-10 -7.28301e-08 0)
(-9.1963e-10 -7.18606e-08 0)
(-9.10467e-10 -7.08907e-08 0)
(-9.01091e-10 -6.99194e-08 0)
(-8.91532e-10 -6.89487e-08 0)
(-8.81741e-10 -6.79747e-08 0)
(-8.71814e-10 -6.70048e-08 0)
(-8.61664e-10 -6.60319e-08 0)
(-8.51361e-10 -6.50613e-08 0)
(-8.40908e-10 -6.40931e-08 0)
(-8.30306e-10 -6.31272e-08 0)
(-8.19553e-10 -6.2163e-08 0)
(-8.08664e-10 -6.12016e-08 0)
(-7.9764e-10 -6.02429e-08 0)
(-7.86486e-10 -5.92869e-08 0)
(-7.75216e-10 -5.83346e-08 0)
(-7.6384e-10 -5.73857e-08 0)
(-7.52347e-10 -5.64425e-08 0)
(-7.40767e-10 -5.54947e-08 0)
(-7.29107e-10 -5.45793e-08 0)
(-7.17283e-10 -5.35471e-08 0)
(-7.05713e-10 -5.27498e-08 0)
(-6.89878e-10 -5.18139e-08 0)
(-6.71674e-10 -5.05195e-08 0)
(-6.564e-10 -4.94609e-08 0)
(-6.41961e-10 -4.84606e-08 0)
(-6.27875e-10 -4.74456e-08 0)
(-6.13996e-10 -4.64309e-08 0)
(-6.00282e-10 -4.54411e-08 0)
(-5.86743e-10 -4.4481e-08 0)
(-5.73383e-10 -4.35444e-08 0)
(-5.60204e-10 -4.26275e-08 0)
(-5.4722e-10 -4.17311e-08 0)
(-5.3443e-10 -4.08554e-08 0)
(-5.21841e-10 -4.00006e-08 0)
(-5.09462e-10 -3.91669e-08 0)
(-4.97285e-10 -3.83528e-08 0)
(-4.85314e-10 -3.75581e-08 0)
(-4.73551e-10 -3.67827e-08 0)
(-4.62007e-10 -3.6027e-08 0)
(-4.50656e-10 -3.52887e-08 0)
(-4.39517e-10 -3.45686e-08 0)
(-4.28583e-10 -3.38662e-08 0)
(-4.17849e-10 -3.31807e-08 0)
(-4.07325e-10 -3.25126e-08 0)
(-3.9702e-10 -3.18623e-08 0)
(-3.86916e-10 -3.12284e-08 0)
(-3.77018e-10 -3.06109e-08 0)
(-3.67317e-10 -3.00091e-08 0)
(-3.57816e-10 -2.94229e-08 0)
(-3.48508e-10 -2.88518e-08 0)
(-3.39392e-10 -2.82955e-08 0)
(-3.30466e-10 -2.77537e-08 0)
(-3.21725e-10 -2.7226e-08 0)
(-3.13172e-10 -2.67127e-08 0)
(-3.04801e-10 -2.6213e-08 0)
(-2.96609e-10 -2.57268e-08 0)
(-2.88594e-10 -2.52539e-08 0)
(-2.80749e-10 -2.47936e-08 0)
(-2.73073e-10 -2.43459e-08 0)
(-2.65564e-10 -2.39106e-08 0)
(-2.58214e-10 -2.34871e-08 0)
(-2.51026e-10 -2.30756e-08 0)
(-2.43991e-10 -2.26754e-08 0)
(-2.37107e-10 -2.22863e-08 0)
(-2.30372e-10 -2.19082e-08 0)
(-2.23776e-10 -2.15404e-08 0)
(-2.17325e-10 -2.11833e-08 0)
(-2.11017e-10 -2.0837e-08 0)
(-2.04842e-10 -2.05006e-08 0)
(-1.98803e-10 -2.01744e-08 0)
(-1.92889e-10 -1.98577e-08 0)
(-1.87103e-10 -1.95506e-08 0)
(-1.81437e-10 -1.92526e-08 0)
(-1.75891e-10 -1.89638e-08 0)
(-1.70459e-10 -1.86838e-08 0)
(-1.65139e-10 -1.84126e-08 0)
(-1.59927e-10 -1.81498e-08 0)
(-1.54819e-10 -1.78952e-08 0)
(-1.49818e-10 -1.76493e-08 0)
(-1.44911e-10 -1.74109e-08 0)
(-1.40104e-10 -1.71809e-08 0)
(-1.35385e-10 -1.6958e-08 0)
(-1.30757e-10 -1.67427e-08 0)
(-1.26214e-10 -1.65348e-08 0)
(-1.21754e-10 -1.6334e-08 0)
(-1.17374e-10 -1.61403e-08 0)
(-1.13074e-10 -1.59538e-08 0)
(-1.08848e-10 -1.57744e-08 0)
(-1.04697e-10 -1.5602e-08 0)
(-1.00613e-10 -1.5436e-08 0)
(-9.65996e-11 -1.52772e-08 0)
(-9.26447e-11 -1.51241e-08 0)
(-8.87532e-11 -1.49778e-08 0)
(-8.492e-11 -1.48378e-08 0)
(-8.11394e-11 -1.47035e-08 0)
(-7.7414e-11 -1.45756e-08 0)
(-7.37364e-11 -1.44532e-08 0)
(-7.01069e-11 -1.43367e-08 0)
(-6.65224e-11 -1.42259e-08 0)
(-6.29825e-11 -1.41211e-08 0)
(-5.94844e-11 -1.4022e-08 0)
(-5.60255e-11 -1.39287e-08 0)
(-5.26039e-11 -1.38409e-08 0)
(-4.9217e-11 -1.37586e-08 0)
(-4.58634e-11 -1.36819e-08 0)
(-4.25398e-11 -1.36104e-08 0)
(-3.92443e-11 -1.35444e-08 0)
(-3.59718e-11 -1.34833e-08 0)
(-3.27195e-11 -1.34287e-08 0)
(-2.94747e-11 -1.33753e-08 0)
(-2.62541e-11 -1.33402e-08 0)
(-2.29655e-11 -1.32663e-08 0)
(-1.99534e-11 -1.33383e-08 0)
(-1.59206e-11 -1.29125e-08 0)
(-1.61386e-11 -1.39455e-08 0)
(-9.53461e-12 -1.21573e-08 0)
)
;
    }
    bottomWall
    {
        type            calculated;
        value           nonuniform List<vector> 
449
(
(-48.2245 -0.958041 0)
(-20.1616 -0.00494549 0)
(-15.5786 -0.000898151 0)
(-14.1655 -0.0003068 0)
(-13.5716 -0.000141831 0)
(-13.2503 -8.28988e-05 0)
(-13.0376 -5.6722e-05 0)
(-12.8835 -4.15253e-05 0)
(-12.7685 -3.12273e-05 0)
(-12.6813 -2.38741e-05 0)
(-12.6141 -1.85122e-05 0)
(-12.5618 -1.45392e-05 0)
(-12.5205 -1.15567e-05 0)
(-12.4875 -9.29193e-06 0)
(-12.4608 -7.55064e-06 0)
(-12.4391 -6.19393e-06 0)
(-12.4211 -5.12353e-06 0)
(-12.4063 -4.26998e-06 0)
(-12.3939 -3.58288e-06 0)
(-12.3834 -3.02512e-06 0)
(-12.3746 -2.56886e-06 0)
(-12.3671 -2.19286e-06 0)
(-12.3606 -1.88114e-06 0)
(-12.3551 -1.62106e-06 0)
(-12.3503 -1.40283e-06 0)
(-12.3462 -1.21888e-06 0)
(-12.3426 -1.06305e-06 0)
(-12.3394 -9.30394e-07 0)
(-12.3367 -8.1708e-07 0)
(-12.3343 -7.19945e-07 0)
(-12.3321 -6.36283e-07 0)
(-12.3302 -5.64127e-07 0)
(-12.3285 -5.01565e-07 0)
(-12.327 -4.47077e-07 0)
(-12.3257 -3.99696e-07 0)
(-12.3245 -3.58221e-07 0)
(-12.3234 -3.21766e-07 0)
(-12.3225 -2.89934e-07 0)
(-12.3216 -2.62034e-07 0)
(-12.3208 -2.37203e-07 0)
(-12.3201 -2.15283e-07 0)
(-12.3194 -1.95966e-07 0)
(-12.3188 -1.7866e-07 0)
(-12.3183 -1.63325e-07 0)
(-12.3178 -1.49705e-07 0)
(-12.3173 -1.37597e-07 0)
(-12.3169 -1.26768e-07 0)
(-12.3165 -1.1685e-07 0)
(-12.3161 -1.08125e-07 0)
(-12.3158 -1.00379e-07 0)
(-12.3155 -9.31824e-08 0)
(-12.3152 -8.67821e-08 0)
(-12.3149 -8.12951e-08 0)
(-12.3146 -7.61422e-08 0)
(-12.3144 -7.12625e-08 0)
(-12.3142 -6.7126e-08 0)
(-12.3139 -6.3321e-08 0)
(-12.3137 -5.97164e-08 0)
(-12.3135 -5.6642e-08 0)
(-12.3134 -5.37862e-08 0)
(-12.3132 -5.11219e-08 0)
(-12.313 -4.88279e-08 0)
(-12.3128 -4.66223e-08 0)
(-12.3127 -4.4538e-08 0)
(-12.3125 -4.26605e-08 0)
(-12.3124 -4.10584e-08 0)
(-12.3122 -3.97031e-08 0)
(-12.3121 -3.81956e-08 0)
(-12.312 -3.68219e-08 0)
(-12.3118 -3.57662e-08 0)
(-12.3117 -3.45885e-08 0)
(-12.3116 -3.35547e-08 0)
(-12.3115 -3.27908e-08 0)
(-12.3113 -3.18478e-08 0)
(-12.3112 -3.09308e-08 0)
(-12.3111 -3.02779e-08 0)
(-12.311 -2.96458e-08 0)
(-12.3109 -2.90831e-08 0)
(-12.3108 -2.84748e-08 0)
(-12.3107 -2.7761e-08 0)
(-12.3106 -2.73495e-08 0)
(-12.3105 -2.70298e-08 0)
(-12.3104 -2.65203e-08 0)
(-12.3103 -2.60751e-08 0)
(-12.3102 -2.57026e-08 0)
(-12.3101 -2.5336e-08 0)
(-12.31 -2.50266e-08 0)
(-12.3099 -2.47049e-08 0)
(-12.3098 -2.42994e-08 0)
(-12.3097 -2.4034e-08 0)
(-12.3096 -2.38904e-08 0)
(-12.3095 -2.35884e-08 0)
(-12.3094 -2.33298e-08 0)
(-12.3093 -2.31447e-08 0)
(-12.3092 -2.28866e-08 0)
(-12.3091 -2.26981e-08 0)
(-12.309 -2.25321e-08 0)
(-12.3089 -2.23323e-08 0)
(-12.3088 -2.21618e-08 0)
(-12.3087 -2.19855e-08 0)
(-12.3086 -2.17858e-08 0)
(-12.3086 -2.16336e-08 0)
(-12.3085 -2.14442e-08 0)
(-12.3084 -2.12675e-08 0)
(-12.3083 -2.12052e-08 0)
(-12.3082 -2.11223e-08 0)
(-12.3081 -2.09978e-08 0)
(-12.308 -2.08011e-08 0)
(-12.3079 -2.06484e-08 0)
(-12.3078 -2.06155e-08 0)
(-12.3078 -2.04556e-08 0)
(-12.3077 -2.02873e-08 0)
(-12.3076 -2.02773e-08 0)
(-12.3075 -2.01561e-08 0)
(-12.3074 -2.00004e-08 0)
(-12.3073 -1.99536e-08 0)
(-12.3072 -1.98667e-08 0)
(-12.3071 -1.97386e-08 0)
(-12.3071 -1.95811e-08 0)
(-12.307 -1.94639e-08 0)
(-12.3069 -1.94476e-08 0)
(-12.3068 -1.93558e-08 0)
(-12.3067 -1.92278e-08 0)
(-12.3066 -1.91768e-08 0)
(-12.3065 -1.91033e-08 0)
(-12.3065 -1.89787e-08 0)
(-12.3064 -1.88841e-08 0)
(-12.3063 -1.88033e-08 0)
(-12.3062 -1.87149e-08 0)
(-12.3061 -1.86579e-08 0)
(-12.306 -1.85385e-08 0)
(-12.306 -1.84437e-08 0)
(-12.3059 -1.84045e-08 0)
(-12.3058 -1.83061e-08 0)
(-12.3057 -1.82494e-08 0)
(-12.3056 -1.81728e-08 0)
(-12.3055 -1.80597e-08 0)
(-12.3055 -1.80188e-08 0)
(-12.3054 -1.7932e-08 0)
(-12.3053 -1.78405e-08 0)
(-12.3052 -1.78002e-08 0)
(-12.3051 -1.76873e-08 0)
(-12.305 -1.7594e-08 0)
(-12.305 -1.75655e-08 0)
(-12.3049 -1.74583e-08 0)
(-12.3048 -1.73597e-08 0)
(-12.3047 -1.73281e-08 0)
(-12.3046 -1.72323e-08 0)
(-12.3046 -1.71206e-08 0)
(-12.3045 -1.70755e-08 0)
(-12.3044 -1.70077e-08 0)
(-12.3043 -1.69084e-08 0)
(-12.3042 -1.68565e-08 0)
(-12.3041 -1.68001e-08 0)
(-12.3041 -1.67066e-08 0)
(-12.304 -1.66346e-08 0)
(-12.3039 -1.65137e-08 0)
(-12.3038 -1.63865e-08 0)
(-12.3037 -1.63752e-08 0)
(-12.3037 -1.62973e-08 0)
(-12.3036 -1.61591e-08 0)
(-12.3035 -1.60839e-08 0)
(-12.3034 -1.59508e-08 0)
(-12.3034 -1.58096e-08 0)
(-12.3033 -1.56821e-08 0)
(-12.3032 -1.54377e-08 0)
(-12.3031 -1.50949e-08 0)
(-12.3031 -1.47146e-08 0)
(-12.303 -1.38128e-08 0)
(-12.3029 -1.28735e-08 0)
(-12.3029 -5.76181e-09 0)
(-12.3029 -1.22855e-08 0)
(-12.3027 2.58433e-08 0)
(-12.3031 9.20271e-08 0)
(-12.3036 1.07489e-07 0)
(-12.3041 8.48929e-08 0)
(-12.3044 4.21419e-08 0)
(-12.3045 9.02016e-09 0)
(-12.3045 -1.29392e-08 0)
(-12.3044 -2.72959e-08 0)
(-12.3042 -3.70284e-08 0)
(-12.304 -4.40029e-08 0)
(-12.3038 -4.89803e-08 0)
(-12.3035 -5.25202e-08 0)
(-12.3032 -5.51233e-08 0)
(-12.3029 -5.69129e-08 0)
(-12.3026 -5.80911e-08 0)
(-12.3023 -5.88667e-08 0)
(-12.302 -5.92415e-08 0)
(-12.3017 -5.93244e-08 0)
(-12.3014 -5.92481e-08 0)
(-12.3011 -5.89597e-08 0)
(-12.3007 -5.84919e-08 0)
(-12.3004 -5.79486e-08 0)
(-12.3001 -5.73074e-08 0)
(-12.2998 -5.65578e-08 0)
(-12.2994 -5.57676e-08 0)
(-12.2991 -5.49736e-08 0)
(-12.2988 -5.41297e-08 0)
(-12.2985 -5.32314e-08 0)
(-12.2982 -5.23477e-08 0)
(-12.2979 -5.14529e-08 0)
(-12.2975 -5.049e-08 0)
(-12.2972 -4.95495e-08 0)
(-12.2969 -4.86613e-08 0)
(-12.2966 -4.77307e-08 0)
(-12.2963 -4.6781e-08 0)
(-12.296 -4.5876e-08 0)
(-12.2957 -4.49745e-08 0)
(-12.2955 -4.40757e-08 0)
(-12.2952 -4.31928e-08 0)
(-12.2949 -4.22993e-08 0)
(-12.2946 -4.14219e-08 0)
(-12.2943 -4.05652e-08 0)
(-12.294 -3.97477e-08 0)
(-12.2938 -3.89344e-08 0)
(-12.2935 -3.80875e-08 0)
(-12.2932 -3.7302e-08 0)
(-12.293 -3.65322e-08 0)
(-12.2927 -3.5716e-08 0)
(-12.2924 -3.49641e-08 0)
(-12.2922 -3.42473e-08 0)
(-12.2919 -3.34984e-08 0)
(-12.2917 -3.27876e-08 0)
(-12.2914 -3.2085e-08 0)
(-12.2912 -3.13663e-08 0)
(-12.2909 -3.07088e-08 0)
(-12.2907 -3.00698e-08 0)
(-12.2905 -2.93976e-08 0)
(-12.2902 -2.87317e-08 0)
(-12.29 -2.8116e-08 0)
(-12.2898 -2.75369e-08 0)
(-12.2895 -2.69466e-08 0)
(-12.2893 -2.6358e-08 0)
(-12.2891 -2.57899e-08 0)
(-12.2889 -2.52255e-08 0)
(-12.2886 -2.46677e-08 0)
(-12.2884 -2.41445e-08 0)
(-12.2882 -2.36279e-08 0)
(-12.288 -2.31009e-08 0)
(-12.2878 -2.26011e-08 0)
(-12.2876 -2.2114e-08 0)
(-12.2874 -2.16169e-08 0)
(-12.2872 -2.11276e-08 0)
(-12.287 -2.06605e-08 0)
(-12.2868 -2.02241e-08 0)
(-12.2866 -1.98057e-08 0)
(-12.2864 -1.93881e-08 0)
(-12.2862 -1.89702e-08 0)
(-12.286 -1.85438e-08 0)
(-12.2858 -1.8123e-08 0)
(-12.2856 -1.77277e-08 0)
(-12.2855 -1.73458e-08 0)
(-12.2853 -1.6971e-08 0)
(-12.2851 -1.66081e-08 0)
(-12.2849 -1.6238e-08 0)
(-12.2848 -1.58759e-08 0)
(-12.2846 -1.55456e-08 0)
(-12.2844 -1.51997e-08 0)
(-12.2842 -1.4848e-08 0)
(-12.2841 -1.45429e-08 0)
(-12.2839 -1.42299e-08 0)
(-12.2837 -1.39026e-08 0)
(-12.2836 -1.36191e-08 0)
(-12.2834 -1.3323e-08 0)
(-12.2833 -1.30065e-08 0)
(-12.2831 -1.27234e-08 0)
(-12.283 -1.24474e-08 0)
(-12.2828 -1.21822e-08 0)
(-12.2827 -1.19445e-08 0)
(-12.2825 -1.16841e-08 0)
(-12.2824 -1.14147e-08 0)
(-12.2822 -1.11792e-08 0)
(-12.2821 -1.09327e-08 0)
(-12.2819 -1.06762e-08 0)
(-12.2818 -1.04445e-08 0)
(-12.2816 -1.02268e-08 0)
(-12.2815 -1.0007e-08 0)
(-12.2814 -9.78075e-09 0)
(-12.2812 -9.56869e-09 0)
(-12.2811 -9.36718e-09 0)
(-12.281 -9.1623e-09 0)
(-12.2808 -8.9553e-09 0)
(-12.2807 -8.75262e-09 0)
(-12.2806 -8.56197e-09 0)
(-12.2805 -8.38534e-09 0)
(-12.2803 -8.2262e-09 0)
(-12.2802 -8.04251e-09 0)
(-12.2801 -7.8502e-09 0)
(-12.28 -7.6845e-09 0)
(-12.2798 -7.52208e-09 0)
(-12.2797 -7.36098e-09 0)
(-12.2796 -7.19604e-09 0)
(-12.2795 -7.04518e-09 0)
(-12.2794 -6.89133e-09 0)
(-12.2793 -6.72698e-09 0)
(-12.2792 -6.58513e-09 0)
(-12.2791 -6.44523e-09 0)
(-12.2789 -6.30641e-09 0)
(-12.2788 -6.184e-09 0)
(-12.2787 -6.04482e-09 0)
(-12.2786 -5.90179e-09 0)
(-12.2785 -5.77511e-09 0)
(-12.2784 -5.6447e-09 0)
(-12.2783 -5.52841e-09 0)
(-12.2782 -5.42408e-09 0)
(-12.2781 -5.30551e-09 0)
(-12.278 -5.18495e-09 0)
(-12.2779 -5.07102e-09 0)
(-12.2778 -4.95912e-09 0)
(-12.2777 -4.85645e-09 0)
(-12.2776 -4.74948e-09 0)
(-12.2775 -4.64329e-09 0)
(-12.2774 -4.54989e-09 0)
(-12.2773 -4.44602e-09 0)
(-12.2773 -4.34531e-09 0)
(-12.2772 -4.2619e-09 0)
(-12.2771 -4.16347e-09 0)
(-12.277 -4.0646e-09 0)
(-12.2769 -3.98111e-09 0)
(-12.2768 -3.89184e-09 0)
(-12.2767 -3.81181e-09 0)
(-12.2767 -3.74542e-09 0)
(-12.2766 -3.65956e-09 0)
(-12.2765 -3.56932e-09 0)
(-12.2764 -3.49386e-09 0)
(-12.2763 -3.41456e-09 0)
(-12.2762 -3.34433e-09 0)
(-12.2762 -3.28605e-09 0)
(-12.2761 -3.21148e-09 0)
(-12.276 -3.13564e-09 0)
(-12.2759 -3.07311e-09 0)
(-12.2759 -3.00397e-09 0)
(-12.2758 -2.93097e-09 0)
(-12.2757 -2.86352e-09 0)
(-12.2756 -2.8103e-09 0)
(-12.2756 -2.76092e-09 0)
(-12.2755 -2.69645e-09 0)
(-12.2754 -2.63311e-09 0)
(-12.2754 -2.58074e-09 0)
(-12.2753 -2.52315e-09 0)
(-12.2752 -2.4659e-09 0)
(-12.2752 -2.41565e-09 0)
(-12.2751 -2.36451e-09 0)
(-12.275 -2.31298e-09 0)
(-12.275 -2.26458e-09 0)
(-12.2749 -2.2202e-09 0)
(-12.2748 -2.16999e-09 0)
(-12.2748 -2.1218e-09 0)
(-12.2747 -2.08631e-09 0)
(-12.2746 -2.04797e-09 0)
(-12.2746 -2.11064e-09 0)
(-12.2745 -1.532e-09 0)
(-12.2745 -9.69457e-09 0)
(-12.2738 -1.3342e-08 0)
(-12.2735 -5.31139e-09 0)
(-12.2734 -1.56978e-09 0)
(-12.2734 -4.52102e-10 0)
(-12.2734 -1.79968e-10 0)
(-12.2734 -1.02926e-10 0)
(-12.2734 -6.00958e-11 0)
(-12.2734 -4.20198e-11 0)
(-12.2734 -3.02432e-11 0)
(-12.2734 -1.36916e-11 0)
(-12.2734 -1.0977e-11 0)
(-12.2734 -1.18459e-11 0)
(-12.2734 -6.7854e-12 0)
(-12.2734 -4.91947e-12 0)
(-12.2734 -2.50639e-13 0)
(-12.2734 1.63629e-12 0)
(-12.2734 -2.5203e-12 0)
(-12.2734 1.07682e-12 0)
(-12.2734 2.81333e-12 0)
(-12.2734 -1.53197e-12 0)
(-12.2734 2.09199e-12 0)
(-12.2734 3.13214e-12 0)
(-12.2734 1.30266e-14 0)
(-12.2734 1.06196e-12 0)
(-12.2734 1.46642e-12 0)
(-12.2734 4.13801e-12 0)
(-12.2734 3.08671e-12 0)
(-12.2734 -1.5716e-12 0)
(-12.2734 1.79247e-12 0)
(-12.2734 3.01598e-12 0)
(-12.2734 -1.42156e-12 0)
(-12.2734 1.96852e-12 0)
(-12.2734 3.60512e-12 0)
(-12.2734 -1.42855e-12 0)
(-12.2734 1.49378e-12 0)
(-12.2734 3.16368e-12 0)
(-12.2734 -1.40239e-12 0)
(-12.2734 2.01584e-12 0)
(-12.2734 3.97875e-12 0)
(-12.2734 7.87802e-13 0)
(-12.2734 1.38717e-12 0)
(-12.2734 1.91911e-12 0)
(-12.2734 9.93471e-13 0)
(-12.2734 3.03472e-12 0)
(-12.2734 1.53403e-12 0)
(-12.2734 -3.03633e-12 0)
(-12.2734 5.00127e-13 0)
(-12.2734 2.05341e-12 0)
(-12.2734 -2.51099e-12 0)
(-12.2734 9.09855e-13 0)
(-12.2734 3.71762e-12 0)
(-12.2734 9.56085e-13 0)
(-12.2734 -1.60265e-12 0)
(-12.2734 -9.93575e-13 0)
(-12.2734 1.59e-12 0)
(-12.2734 8.34201e-13 0)
(-12.2734 -6.16842e-13 0)
(-12.2734 -3.71998e-13 0)
(-12.2734 4.28219e-12 0)
(-12.2734 3.08853e-12 0)
(-12.2734 -2.76332e-12 0)
(-12.2734 4.32235e-13 0)
(-12.2734 1.68286e-12 0)
(-12.2734 -2.42677e-12 0)
(-12.2734 1.31446e-12 0)
(-12.2734 3.20679e-12 0)
(-12.2734 -4.22516e-13 0)
(-12.2734 3.21777e-13 0)
(-12.2734 2.65735e-12 0)
(-12.2734 3.32349e-12 0)
(-12.2734 2.70303e-12 0)
(-12.2734 -1.57964e-12 0)
(-12.2734 -5.16726e-12 0)
(-12.2734 -3.70171e-13 0)
(-12.2734 1.49136e-12 0)
(-12.2734 -3.18583e-12 0)
(-12.2734 3.88245e-13 0)
(-12.2734 2.9266e-12 0)
(-12.2734 -9.7325e-14 0)
(-12.2734 -2.00285e-12 0)
(-12.2734 -2.01828e-12 0)
(-12.2734 -2.47714e-13 0)
(-12.2734 -1.2845e-12 0)
(-12.2734 2.17295e-12 0)
(-12.2734 3.9824e-12 0)
(-12.2734 5.20467e-13 0)
(-12.2734 -1.37919e-12 0)
(-12.2734 -1.15773e-12 0)
(-12.2734 1.21411e-13 0)
(-12.2734 -2.11656e-12 0)
(-12.2734 -6.56653e-14 0)
(-12.2734 3.39448e-13 0)
(-12.2734 8.13342e-12 0)
(-12.2734 3.50322e-12 0)
(-12.2734 -1.26635e-11 0)
)
;
    }
    symmetry
    {
        type            symmetryPlane;
    }
    frontAndBack
    {
        type            empty;
    }
}


// ************************************************************************* //
