/*--------------------------------*- C++ -*----------------------------------*\
| =========                 |                                                 |
| \\      /  F ield         | OpenFOAM: The Open Source CFD Toolbox           |
|  \\    /   O peration     | Version:  v2012                                 |
|   \\  /    A nd           | Website:  www.openfoam.com                      |
|    \\/     M anipulation  |                                                 |
\*---------------------------------------------------------------------------*/
FoamFile
{
    version     2.0;
    format      ascii;
    class       volScalarField;
    location    "2.5";
    object      yPlus;
}
// * * * * * * * * * * * * * * * * * * * * * * * * * * * * * * * * * * * * * //

dimensions      [0 0 0 0 0 0 0];


internalField   uniform 0;

boundaryField
{
    inlet
    {
        type            calculated;
        value           uniform 0;
    }
    outlet
    {
        type            calculated;
        value           uniform 0;
    }
    topWall
    {
        type            calculated;
        value           nonuniform List<scalar> 
545
(
0.0338908
0.0593013
0.0758556
0.0889455
0.100003
0.109661
0.118269
0.126047
0.133144
0.139668
0.145701
0.151305
0.156531
0.161419
0.166004
0.170313
0.174373
0.178203
0.181822
0.185247
0.188491
0.191567
0.194487
0.197262
0.1999
0.20241
0.2048
0.207078
0.209249
0.21132
0.213296
0.215183
0.216984
0.218707
0.220353
0.221927
0.223432
0.224873
0.226252
0.227573
0.228837
0.230049
0.23121
0.232322
0.233388
0.234411
0.235391
0.236332
0.237234
0.238099
0.23893
0.239727
0.240492
0.241226
0.241931
0.242607
0.243257
0.243881
0.24448
0.245056
0.245608
0.246139
0.246648
0.247138
0.247608
0.248059
0.248492
0.248909
0.249308
0.249692
0.25006
0.250414
0.250747
0.251067
0.251383
0.251694
0.252
0.252303
0.252601
0.252895
0.253185
0.253471
0.253753
0.254031
0.254304
0.254574
0.25484
0.255102
0.255361
0.255615
0.255866
0.256113
0.256357
0.256597
0.256833
0.257069
0.257264
0.257436
0.257607
0.257776
0.257945
0.258113
0.258281
0.258447
0.258613
0.258777
0.258941
0.259104
0.259267
0.259428
0.259589
0.259748
0.259907
0.260065
0.260222
0.260378
0.260533
0.260687
0.260841
0.260993
0.261145
0.261296
0.261445
0.261594
0.261742
0.261889
0.262035
0.26218
0.262324
0.262467
0.262609
0.26275
0.26289
0.263029
0.263167
0.263304
0.26344
0.263575
0.263709
0.263842
0.263974
0.264105
0.264235
0.264364
0.264491
0.264618
0.264744
0.264868
0.264991
0.265114
0.265235
0.265355
0.265474
0.265592
0.265708
0.265824
0.265938
0.266052
0.266164
0.266275
0.266384
0.266493
0.2666
0.266707
0.266811
0.266915
0.267018
0.267119
0.267219
0.267319
0.267416
0.267513
0.267608
0.267702
0.267795
0.267886
0.267977
0.268066
0.268153
0.26824
0.268325
0.268409
0.268492
0.268573
0.268653
0.268732
0.26881
0.268886
0.268961
0.269034
0.269106
0.269177
0.269246
0.269315
0.269381
0.269447
0.26951
0.269573
0.269634
0.269693
0.269752
0.269808
0.269863
0.269917
0.269969
0.270019
0.270068
0.270115
0.270161
0.270205
0.270247
0.270287
0.270326
0.270364
0.270399
0.270433
0.270464
0.270495
0.270523
0.27055
0.270574
0.270598
0.270618
0.270638
0.270655
0.270672
0.270685
0.270698
0.270708
0.270717
0.270723
0.270729
0.270732
0.270733
0.270733
0.270731
0.270727
0.270722
0.270715
0.270706
0.270695
0.270683
0.270668
0.270653
0.270635
0.270616
0.270594
0.270572
0.270547
0.270521
0.270493
0.270463
0.270431
0.270398
0.270363
0.270326
0.270288
0.270247
0.270205
0.270161
0.270115
0.270068
0.270018
0.269967
0.269914
0.269859
0.269802
0.269743
0.269685
0.269618
0.269551
0.269483
0.269413
0.269342
0.269269
0.269195
0.269119
0.269042
0.268963
0.268882
0.2688
0.268716
0.26863
0.268542
0.268452
0.26836
0.268266
0.26817
0.268072
0.267971
0.267869
0.267763
0.267656
0.267546
0.267433
0.267318
0.2672
0.267079
0.266956
0.26683
0.2667
0.266568
0.266432
0.266294
0.266152
0.266007
0.265858
0.265706
0.26555
0.26539
0.265227
0.26506
0.264889
0.264714
0.264535
0.264352
0.264164
0.263972
0.263776
0.263575
0.263369
0.263159
0.262944
0.262724
0.262499
0.262269
0.262034
0.261794
0.261547
0.261296
0.261038
0.260776
0.260506
0.260232
0.25995
0.259664
0.25937
0.25907
0.258763
0.25845
0.258129
0.257803
0.257468
0.257128
0.256779
0.256424
0.25606
0.25569
0.255311
0.254925
0.254531
0.254129
0.253719
0.2533
0.252873
0.252437
0.251993
0.251539
0.251077
0.250605
0.250124
0.249634
0.249135
0.248625
0.248107
0.247578
0.24704
0.246491
0.245933
0.245364
0.244785
0.244195
0.243595
0.242984
0.242363
0.241729
0.241086
0.240431
0.239766
0.239087
0.2384
0.237698
0.236987
0.236263
0.235528
0.23478
0.234021
0.23325
0.232466
0.231672
0.230864
0.230045
0.229213
0.228369
0.227512
0.226643
0.225761
0.224867
0.22396
0.22304
0.222107
0.221158
0.220201
0.219227
0.218243
0.217247
0.216239
0.215218
0.214186
0.21314
0.212082
0.211012
0.20993
0.208836
0.207728
0.20661
0.205479
0.204335
0.203179
0.202012
0.20083
0.199639
0.198438
0.197227
0.196004
0.194771
0.193527
0.192273
0.191009
0.189734
0.188449
0.187154
0.185851
0.184534
0.183213
0.181879
0.180537
0.179189
0.177834
0.176471
0.175102
0.173725
0.172342
0.170952
0.169557
0.168155
0.166749
0.165338
0.163922
0.162502
0.160918
0.159196
0.157495
0.155813
0.154152
0.152511
0.150889
0.149287
0.147703
0.146139
0.144595
0.143071
0.141566
0.140083
0.13862
0.137176
0.135753
0.134351
0.132968
0.131604
0.130261
0.128936
0.127631
0.126348
0.125085
0.123843
0.122619
0.121416
0.120232
0.119067
0.117922
0.116795
0.115689
0.114602
0.113534
0.112486
0.111456
0.110446
0.109454
0.10848
0.107526
0.106589
0.105671
0.10477
0.103887
0.103023
0.102177
0.101349
0.100539
0.0997467
0.0989724
0.0982154
0.0974758
0.0967536
0.0960486
0.0953607
0.0946895
0.0940367
0.0933994
0.0927803
0.0921764
0.0915896
0.091019
0.0904646
0.0899268
0.0894057
0.0889014
0.0884142
0.0879428
0.0874892
0.0870498
0.0866277
0.0862218
0.0858306
0.0854565
0.085097
0.0847533
0.0844251
0.0841134
0.083818
0.0835384
0.0832748
0.0830268
0.0827949
0.0825782
0.0823777
0.0821925
0.0820232
0.0818694
0.0817315
0.0816094
0.0815038
0.0814109
0.0813453
0.0812509
)
;
    }
    bottomWall
    {
        type            calculated;
        value           nonuniform List<scalar> 
449
(
0.13901
0.0898804
0.0790072
0.0753387
0.0737423
0.0728642
0.072277
0.0718487
0.0715273
0.0712826
0.0710936
0.070946
0.0708292
0.0707358
0.0706602
0.0705985
0.0705477
0.0705055
0.0704702
0.0704405
0.0704154
0.070394
0.0703756
0.0703599
0.0703463
0.0703345
0.0703243
0.0703153
0.0703075
0.0703005
0.0702944
0.070289
0.0702842
0.07028
0.0702762
0.0702727
0.0702697
0.0702669
0.0702644
0.0702621
0.0702601
0.0702582
0.0702565
0.070255
0.0702535
0.0702522
0.070251
0.0702499
0.0702488
0.0702479
0.070247
0.0702461
0.0702453
0.0702446
0.0702439
0.0702432
0.0702426
0.070242
0.0702415
0.0702409
0.0702404
0.0702399
0.0702394
0.070239
0.0702386
0.0702381
0.0702377
0.0702373
0.070237
0.0702366
0.0702362
0.0702359
0.0702355
0.0702352
0.0702348
0.0702345
0.0702342
0.0702339
0.0702336
0.0702333
0.070233
0.0702327
0.0702324
0.0702321
0.0702318
0.0702315
0.0702312
0.070231
0.0702307
0.0702304
0.0702301
0.0702299
0.0702296
0.0702293
0.0702291
0.0702288
0.0702285
0.0702283
0.070228
0.0702277
0.0702275
0.0702272
0.070227
0.0702267
0.0702265
0.0702262
0.0702259
0.0702257
0.0702254
0.0702252
0.0702249
0.0702247
0.0702244
0.0702242
0.0702239
0.0702237
0.0702235
0.0702232
0.070223
0.0702227
0.0702225
0.0702222
0.070222
0.0702217
0.0702215
0.0702213
0.070221
0.0702208
0.0702205
0.0702203
0.0702201
0.0702198
0.0702196
0.0702193
0.0702191
0.0702189
0.0702186
0.0702184
0.0702182
0.0702179
0.0702177
0.0702174
0.0702172
0.070217
0.0702167
0.0702165
0.0702163
0.070216
0.0702158
0.0702156
0.0702154
0.0702151
0.0702149
0.0702147
0.0702144
0.0702142
0.070214
0.0702138
0.0702135
0.0702133
0.0702131
0.0702128
0.0702126
0.0702124
0.0702122
0.070212
0.0702117
0.0702115
0.0702113
0.0702111
0.070211
0.070211
0.0702106
0.0702118
0.0702132
0.0702146
0.0702154
0.0702157
0.0702156
0.0702153
0.0702148
0.0702142
0.0702135
0.0702128
0.070212
0.0702112
0.0702103
0.0702095
0.0702086
0.0702077
0.0702067
0.0702058
0.0702049
0.070204
0.0702031
0.0702021
0.0702012
0.0702003
0.0701994
0.0701985
0.0701976
0.0701967
0.0701958
0.0701949
0.0701941
0.0701932
0.0701924
0.0701915
0.0701907
0.0701898
0.070189
0.0701882
0.0701874
0.0701866
0.0701858
0.070185
0.0701842
0.0701835
0.0701827
0.070182
0.0701812
0.0701805
0.0701798
0.070179
0.0701783
0.0701776
0.0701769
0.0701763
0.0701756
0.0701749
0.0701742
0.0701736
0.0701729
0.0701723
0.0701716
0.070171
0.0701704
0.0701698
0.0701692
0.0701686
0.070168
0.0701674
0.0701668
0.0701662
0.0701657
0.0701651
0.0701645
0.070164
0.0701634
0.0701629
0.0701624
0.0701618
0.0701613
0.0701608
0.0701603
0.0701598
0.0701593
0.0701588
0.0701583
0.0701578
0.0701574
0.0701569
0.0701564
0.070156
0.0701555
0.0701551
0.0701546
0.0701542
0.0701537
0.0701533
0.0701529
0.0701525
0.070152
0.0701516
0.0701512
0.0701508
0.0701504
0.07015
0.0701496
0.0701493
0.0701489
0.0701485
0.0701481
0.0701478
0.0701474
0.070147
0.0701467
0.0701463
0.070146
0.0701456
0.0701453
0.070145
0.0701446
0.0701443
0.070144
0.0701436
0.0701433
0.070143
0.0701427
0.0701424
0.0701421
0.0701418
0.0701415
0.0701412
0.0701409
0.0701406
0.0701403
0.07014
0.0701398
0.0701395
0.0701392
0.0701389
0.0701387
0.0701384
0.0701382
0.0701379
0.0701376
0.0701374
0.0701371
0.0701369
0.0701366
0.0701364
0.0701362
0.0701359
0.0701357
0.0701355
0.0701352
0.070135
0.0701348
0.0701346
0.0701343
0.0701341
0.0701339
0.0701337
0.0701335
0.0701333
0.0701331
0.0701329
0.0701327
0.0701325
0.0701323
0.0701321
0.0701319
0.0701317
0.0701315
0.0701313
0.0701311
0.070131
0.0701308
0.0701306
0.0701304
0.0701303
0.0701301
0.07013
0.0701281
0.0701272
0.070127
0.0701269
0.0701269
0.0701269
0.0701268
0.0701268
0.0701268
0.0701268
0.0701268
0.0701268
0.0701268
0.0701268
0.0701268
0.0701268
0.0701268
0.0701268
0.0701268
0.0701268
0.0701268
0.0701268
0.0701268
0.0701268
0.0701268
0.0701268
0.0701268
0.0701268
0.0701268
0.0701268
0.0701268
0.0701268
0.0701268
0.0701268
0.0701268
0.0701268
0.0701268
0.0701268
0.0701268
0.0701268
0.0701268
0.0701268
0.0701268
0.0701268
0.0701268
0.0701268
0.0701268
0.0701268
0.0701268
0.0701268
0.0701268
0.0701268
0.0701268
0.0701268
0.0701268
0.0701268
0.0701268
0.0701268
0.0701268
0.0701268
0.0701268
0.0701268
0.0701268
0.0701268
0.0701268
0.0701268
0.0701268
0.0701268
0.0701268
0.0701268
0.0701268
0.0701268
0.0701268
0.0701268
0.0701268
0.0701268
0.0701268
0.0701268
0.0701268
0.0701268
0.0701268
0.0701268
0.0701268
0.0701268
0.0701268
0.0701268
0.0701268
0.0701268
0.0701268
0.0701268
0.0701268
0.0701268
0.0701268
0.0701268
0.0701268
)
;
    }
    symmetry
    {
        type            symmetryPlane;
    }
    frontAndBack
    {
        type            empty;
    }
}


// ************************************************************************* //
